/*--------------------------------*- C++ -*----------------------------------*\
  =========                 |
  \\      /  F ield         | OpenFOAM: The Open Source CFD Toolbox
   \\    /   O peration     | Website:  https://openfoam.org
    \\  /    A nd           | Version:  6.0
     \\/     M anipulation  |
\*---------------------------------------------------------------------------*/
FoamFile
{
    version     2.0;
    format      ascii;
    class       surfaceScalarField;
    location    "0.245";
    object      phi;
}
// * * * * * * * * * * * * * * * * * * * * * * * * * * * * * * * * * * * * * //

dimensions      [0 3 -1 0 0 0 0];

internalField   nonuniform List<scalar> 
4670
(
0.000516428
-0.0215815
0.021065
0.00241796
-0.0169832
0.0150817
0.00567482
-0.0137704
0.0105135
0.0100455
-0.0114878
0.00711712
0.01522
-0.00983648
0.00466204
0.0209064
-0.00862265
0.00293621
0.0268689
-0.0077181
0.00175556
0.0329322
-0.00703372
0.000970487
0.038967
-0.00650221
0.000467348
-0.00606761
0.00016954
0.0448651
0.000535259
-0.0221167
0.00246252
-0.0189104
0.00573682
-0.0170447
0.0101092
-0.0158602
0.0152682
-0.0149955
0.0209247
-0.0142792
0.026847
-0.0136404
0.0328638
-0.0130505
0.03885
-0.0124884
-0.0119192
0.0447016
0.000565809
-0.0226825
0.00253935
-0.020884
0.00584715
-0.0203525
0.0102261
-0.0202391
0.0153615
-0.0201309
0.0209675
-0.0198852
0.0268189
-0.0194918
0.0327518
-0.0189834
0.0386484
-0.018385
-0.0176842
0.0444133
0.000607599
-0.0232901
0.00264371
-0.0229201
0.00599595
-0.0237047
0.0103813
-0.0246245
0.0154804
-0.0252299
0.021012
-0.0254168
0.02676
-0.0252398
0.0325709
-0.0247943
0.0383378
-0.0241518
-0.0233241
0.0439778
0.000658601
-0.0239487
0.00276885
-0.0250304
0.00616997
-0.0271058
0.0105549
-0.0290095
0.0155989
-0.0302739
0.021027
-0.0308449
0.0266355
-0.0308483
0.0322847
-0.0304436
0.0378819
-0.029749
-0.0288024
0.0433601
0.000716261
-0.024665
0.00290655
-0.0272206
0.0063539
-0.0305532
0.0107241
-0.0333797
0.0156871
-0.0352369
0.0209767
-0.0361346
0.0264044
-0.0362759
0.0318482
-0.0358874
0.0372335
-0.0351343
-0.0340819
0.0425131
0.000777997
-0.025443
0.00304842
-0.0294911
0.00653206
-0.0340368
0.010866
-0.0377137
0.0157161
-0.0400869
0.0208267
-0.0412452
0.0260271
-0.0414764
0.0312165
-0.0410768
0.0363431
-0.040261
-0.0391233
0.0413845
0.000841416
-0.0262844
0.00318655
-0.0318362
0.00669019
-0.0375405
0.0109612
-0.0419846
0.0156629
-0.0447886
0.0205521
-0.0461344
0.0254768
-0.0464011
0.0303583
-0.0459582
0.0351723
-0.045075
-0.0438817
0.0399307
0.000904925
-0.0271893
0.0033143
-0.0342456
0.00681661
-0.0410428
0.0109957
-0.0461637
0.0155162
-0.0493091
0.0201483
-0.0507664
0.0247568
-0.0510096
0.0292798
-0.0504812
0.0337177
-0.0495129
-0.0483109
0.0381469
0.000968755
-0.0281581
0.00342584
-0.0367027
0.00690094
-0.0445179
0.01096
-0.0502228
0.0152755
-0.0536246
0.0196371
-0.055128
0.0239287
-0.0553013
0.0280967
-0.0546492
0.0321334
-0.0535496
-0.0523139
0.0361364
0.0372964
0.000786502
-0.0380829
0.0364195
0.000876895
0.0354676
0.000951889
0.0344581
0.00100954
0.0334087
0.00104935
0.0323374
0.00107136
0.0312609
0.00107652
0.0301951
0.00106573
0.0291554
0.00103972
0.000997339
0.056074
0.00203264
-0.0573202
0.0545575
0.00239347
0.0528023
0.00270703
0.0508417
0.00297014
0.0487101
0.00318097
0.0464426
0.00333883
0.0440747
0.00344445
0.0416406
0.00349982
0.0391732
0.00350714
0.00346786
0.0684411
0.00317792
-0.0695863
0.0669009
0.00393363
0.0649959
0.00461203
0.0627591
0.00520691
0.0602267
0.00571338
0.0574372
0.00612832
0.0544309
0.0064508
0.0512485
0.00668216
0.0479312
0.00682448
0.00688118
0.0751416
0.00401604
-0.0759797
0.0738431
0.00523206
0.0721055
0.00634968
0.0699537
0.00735864
0.0674173
0.00824984
0.0645292
0.0090164
0.0613258
0.00965418
0.0578462
0.0101618
0.0541311
0.0105396
0.0107895
0.077748
0.00453992
-0.0782719
0.0767423
0.00623781
0.0752662
0.0078257
0.0733358
0.00928909
0.0709711
0.0106145
0.0681965
0.011791
0.0650403
0.0128104
0.0615344
0.0136677
0.0577156
0.0143584
0.0148805
0.0778404
0.00482489
-0.0781253
0.0770775
0.00700062
0.0758414
0.00906181
0.0741405
0.01099
0.0719869
0.0127682
0.0693965
0.0143814
0.0663887
0.0158182
0.062987
0.0170694
0.0592211
0.0181243
0.0189736
0.0766147
0.00495941
-0.0767492
0.0760176
0.00759769
0.0749587
0.0101207
0.0734418
0.0125069
0.0714738
0.0147361
0.0690643
0.0167909
0.0662246
0.0186579
0.0629689
0.0203251
0.059317
0.0217762
0.0229893
0.0748272
0.005015
-0.0748828
0.0743273
0.00809755
0.0733828
0.0110653
0.0719956
0.0138941
0.0701703
0.0165615
0.0679122
0.019049
0.0652267
0.0213434
0.0621168
0.023435
0.0585845
0.0253086
0.0269245
0.0728851
0.00503926
-0.0729094
0.0724348
0.00854784
0.0715587
0.0119413
0.0702595
0.0151933
0.0685413
0.0182796
0.0664088
0.0211815
0.0638636
0.0238885
0.0608972
0.0264014
0.0574742
0.0287316
0.0308491
0.0709733
-0.0709952
0.00506111
0.0705435
0.0089777
0.0697082
0.0127766
0.0684725
0.016429
0.0668428
0.0199094
0.0648258
0.0231984
0.0624257
0.0262887
0.0596316
0.0291955
0.0563648
0.0319985
0.0349
0.0380226
-0.000943177
-0.0370794
0.0387822
-0.000759576
0.039345
-0.000562836
0.0397064
-0.000361412
0.0398687
-0.000162297
0.0398398
2.89565e-05
0.0396312
0.000208544
0.0392574
0.000373788
0.0387348
0.000522616
0.000651888
0.0524961
-0.00339507
-0.0500442
0.0545861
-0.00284954
0.0562914
-0.00226817
0.0575971
-0.0016671
0.0584987
-0.00106384
0.0590009
-0.000473266
0.0591156
9.38308e-05
0.0588596
0.00062977
0.0582535
0.00112877
0.00158518
0.0592857
-0.00684033
-0.0558404
0.062317
-0.00588083
0.0648987
-0.00484987
0.0670058
-0.00377424
0.0686265
-0.0026845
0.069759
-0.00160577
0.070409
-0.000556163
0.070587
0.000451728
0.0703072
0.0014086
0.002306
0.0613701
-0.0108227
-0.0573877
0.0649474
-0.00945819
0.0680712
-0.00797368
0.0707089
-0.00641195
0.0728445
-0.0048201
0.0744731
-0.00323437
0.0755958
-0.00167879
0.0762166
-0.000169066
0.0763418
0.00128337
0.00266812
0.0609652
-0.0150264
-0.0567614
0.0647947
-0.0132877
0.0681871
-0.0113661
0.0711051
-0.0093299
0.0735333
-0.00724838
0.0754678
-0.00516887
0.0769083
-0.00311931
0.0778554
-0.00111608
0.0783095
0.000829261
0.0027057
0.0594697
-0.0192711
-0.0552251
0.0633752
-0.0171932
0.06686
-0.0148509
0.0698842
-0.012354
0.0724368
-0.00980102
0.0745179
-0.00724993
0.0761287
-0.0047301
0.0772686
-0.00225599
0.0779351
0.000162716
0.00251551
0.0576304
-0.0234758
-0.0534257
0.0615288
-0.0210917
0.0650139
-0.018336
0.0680459
-0.0153861
0.070621
-0.0123761
0.0727447
-0.00937361
0.0744209
-0.00640634
0.0756496
-0.00348468
0.0764273
-0.000614984
0.00219358
0.0557981
-0.0276329
-0.0516411
0.0596606
-0.0249541
0.0631053
-0.0217806
0.0660978
-0.0183786
0.0686433
-0.0149216
0.0707525
-0.0114828
0.0724319
-0.00808572
0.0736823
-0.00473516
0.0745009
-0.00143355
0.0018117
0.0541573
-0.0317779
-0.0500123
0.0579556
-0.0287525
0.0613311
-0.0251561
0.0642582
-0.0213057
0.0667479
-0.0174113
0.0688136
-0.0135484
0.0704625
-0.00973466
0.0716964
-0.00596902
0.0725132
-0.00225038
0.00141556
0.0527972
-0.0487572
-0.0358179
0.0564932
-0.0324485
0.0597558
-0.0284187
0.0625992
-0.0241491
0.0650197
-0.0198318
0.0670268
-0.0155555
0.0686269
-0.0113348
0.0698222
-0.00716438
0.0706123
-0.00304039
0.00103263
0.0469133
0.00580287
-0.000470601
-0.0522456
0.0414375
0.00599713
-0.000521295
0.0358019
0.00623986
-0.000604291
0.0299972
0.00657064
-0.00076591
0.0240308
0.00708193
-0.00111554
0.01796
0.00795989
-0.00188912
0.0119558
0.00952807
-0.00352382
0.00640417
0.0122334
-0.00668176
0.00202979
0.0164644
-0.0120901
0.0220935
-0.0200637
0.0466322
0.0111003
-0.0519296
0.041191
0.0114384
0.0355901
0.0118407
0.0298202
0.0123406
0.0238884
0.0130137
0.0178519
0.0139964
0.0118811
0.0154988
0.00636139
0.0177531
0.00201487
0.020811
0.0241084
0.0460296
0.0163305
-0.0512598
0.0406552
0.0168127
0.035122
0.0173739
0.0294208
0.0180419
0.0235592
0.0188753
0.0175949
0.0199607
0.0116986
0.0213951
0.00625384
0.0231979
0.00197519
0.0250896
0.0260836
0.0451134
0.0214629
-0.0502458
0.0398371
0.022089
0.0344036
0.0228075
0.0288041
0.0236413
0.0230475
0.0246319
0.0171925
0.0258156
0.011411
0.0271766
0.00608387
0.0285251
0.00191268
0.0292608
0.0279962
0.0438942
0.0264686
-0.0488999
0.0387459
0.0272373
0.0334431
0.0281103
0.0279776
0.0291068
0.0223595
0.03025
0.0166501
0.031525
0.0110227
0.0328041
0.00585419
0.0336936
0.00182864
0.0332863
0.0298249
0.0423851
0.0313219
-0.0472383
0.0373934
0.032229
0.0322514
0.0332522
0.026951
0.0344072
0.0215039
0.0356972
0.0159746
0.0370544
0.0105386
0.03824
0.00556857
0.0386636
0.00172469
0.0371302
0.0315496
0.0406023
0.0360012
-0.0452817
0.0357941
0.0370372
0.0308422
0.0382041
0.0257365
0.0395129
0.0204907
0.0409429
0.0151742
0.0423709
0.00996538
0.0434488
0.00523092
0.0433981
0.00160254
0.0407586
0.0331521
0.0385626
0.040485
-0.0430464
0.0339654
0.0416344
0.0292326
0.042937
0.0243486
0.0443968
0.0193316
0.0459599
0.0142575
0.047445
0.00930919
0.0483972
0.00484572
0.0478616
0.00146435
0.04414
0.0346164
0.0362759
0.0447391
-0.0405301
0.0319275
0.0459829
0.027444
0.0474205
0.0228039
0.0490369
0.0180377
0.0507261
0.0132327
0.05225
0.008576
0.0530539
0.00441714
0.0520204
0.00131218
0.047245
0.0359286
0.033753
-0.0377711
0.0297236
0.0255031
0.0211143
0.0166153
0.0121039
0.00777009
0.0039501
0.0011508
0.0328767
-0.0439222
0.0479593
-0.0369138
0.0288187
-0.0450554
0.0491134
0.0245801
-0.0462994
0.050538
0.020192
-0.0475213
0.0519094
0.0157288
-0.0483647
0.0528278
0.0113131
-0.0480886
0.0525043
0.00715445
-0.0452717
0.0494303
0.00357985
-0.0375868
0.0411614
0.00102855
-0.0219433
0.0244946
0.00475392
-0.00372537
0.0354799
-0.0396441
-0.039758
0.0311103
-0.0406858
0.0266111
-0.0418002
0.0219708
-0.042881
0.0172357
-0.0436297
0.0125152
-0.043368
0.00801533
-0.0407718
0.00407932
-0.0336508
0.00120264
-0.0190666
0.00595656
0.0378591
-0.0351388
-0.0423644
0.0332421
-0.0360688
0.0284947
-0.0370528
0.0236096
-0.0379958
0.0186186
-0.0386387
0.0136176
-0.0383669
0.00880677
-0.035961
0.00454114
-0.0293852
0.0013645
-0.01589
0.00732106
0.0399935
-0.0304403
-0.0446921
0.0351673
-0.0312425
0.0302019
-0.0320874
0.025094
-0.032888
0.0198697
-0.0334144
0.014615
-0.0331122
0.00952423
-0.0308702
0.00496176
-0.0248227
0.00151328
-0.0124415
0.00883434
0.0418718
-0.0255699
-0.0467422
0.036864
-0.0262347
0.0317098
-0.0269332
0.0264067
-0.0275849
0.0209765
-0.0279842
0.0154984
-0.0276341
0.0101615
-0.0255334
0.00533692
-0.0199981
0.00164699
-0.00875158
0.0104813
0.0434762
-0.0205494
-0.0484967
0.0383141
-0.0210727
0.0330006
-0.0216196
0.0275321
-0.0221164
0.0219271
-0.0223792
0.0162586
-0.0219657
0.0107115
-0.0199863
0.0056622
-0.0149488
0.00176368
-0.00485306
0.012245
0.0447901
-0.0154051
-0.0499344
0.0395025
-0.0157852
0.0340601
-0.0161772
0.0284578
-0.0165141
0.0227107
-0.016632
0.0168871
-0.0161421
0.0111677
-0.0142669
0.00593303
-0.00971413
0.00186123
-0.000781255
0.0141062
0.0457997
-0.0101661
-0.0510387
0.0404171
-0.0104025
0.0348772
-0.0106374
0.0291737
-0.0108105
0.0233187
-0.010777
0.0173765
-0.0101999
0.0115244
-0.00841475
0.00614569
-0.00433544
0.00193807
0.00342636
0.0160443
0.0464947
-0.00486346
-0.0517974
0.0410484
-0.00495623
0.0354436
-0.00503252
0.0296722
-0.00503916
0.0237445
-0.00484931
0.0177213
-0.00417675
0.0117771
-0.0024706
0.00629708
0.00114462
0.00199301
0.00773043
0.0180373
0.0468677
-0.0522017
0.0413902
0.0357534
0.0299483
0.0239834
0.0179176
0.0119231
0.006386
0.00202637
0.0520735
0.030855
-0.0349691
0.0558214
0.027773
-0.0315209
0.0591341
0.0241051
-0.0274178
0.0620275
0.0201837
-0.0230771
0.0644987
0.0162245
-0.0186958
0.0665578
0.0123046
-0.0143636
0.0682109
0.00844088
-0.010094
0.0694594
0.00463225
-0.00588074
0.0703017
0.000877565
-0.00171994
-0.00281616
0.0707353
0.00238257
0.0533014
0.0266669
0.0571494
0.023925
0.0605736
0.0206809
0.0635481
0.0172092
0.0660846
0.0136881
0.0681965
0.0101926
0.0698908
0.00674662
0.0711682
0.00335479
0.0720259
1.99198e-05
-0.00324938
0.0724591
0.0547235
0.0224813
0.0586215
0.0200271
0.0621022
0.0172003
0.0651288
0.0141826
0.0677057
0.0111112
0.0698432
0.00805509
0.0715471
0.00504268
0.0728175
0.00208445
0.0736501
-0.000812721
-0.0036386
0.0740393
0.0561189
0.0182718
0.0600252
0.0161208
0.0635168
0.0137086
0.0665513
0.0111481
0.0691234
0.00853914
0.0712374
0.00594105
0.0728965
0.00338357
0.0740996
0.00088137
0.0748423
-0.00155544
-0.00391547
0.0751192
0.0570336
0.014066
0.0608974
0.012257
0.0643349
0.0102712
0.0673038
0.00817919
0.0697916
0.00605135
0.0717971
0.00393554
0.0733209
0.00185979
0.0743617
-0.000159455
0.0749167
-0.00211049
-0.0039817
0.074983
0.0565999
0.00997039
0.0603114
0.00854545
0.0635741
0.00700846
0.0663495
0.00540383
0.0686214
0.00377946
0.0703854
0.00217156
0.0716413
0.000603895
0.0723899
-0.00090811
0.0726326
-0.00235321
-0.00372093
0.0723719
0.0532158
0.00618488
0.0565802
0.00518105
0.0594742
0.00411448
0.0618653
0.00301273
0.0637383
0.0019064
0.0650897
0.000820236
0.0659218
-0.000228244
0.0662408
-0.00122708
0.0660551
-0.00216753
-0.00304169
0.0653759
0.0443344
0.00301195
0.0470752
0.00244023
0.0493481
0.00184159
0.0511301
0.00123071
0.0524121
0.000624386
0.0531957
3.66467e-05
0.0534897
-0.000522227
0.0533078
-0.00104523
0.0526677
-0.00152741
-0.00196454
0.0515906
0.0266784
0.00082815
0.0284853
0.000633307
0.0298939
0.000433006
0.0308931
0.000231515
0.0314827
3.47867e-05
0.0316715
-0.000152098
0.0314748
-0.000325571
0.0309129
-0.000483353
0.0300095
-0.000623982
-0.000746806
0.0287918
-0.00289722
-0.00226392
-0.00183091
-0.00159939
-0.00156461
-0.00171671
-0.00204228
-0.00252563
-0.00314961
-0.00389642
0.0707614
-0.00645798
0.00643197
0.0703756
-0.00997406
0.0103598
0.0695796
-0.0133633
0.0141593
0.068377
-0.0165984
0.0178011
0.0667734
-0.0196542
0.0212578
0.0647753
-0.0225125
0.0245106
0.0623861
-0.0251651
0.0275543
0.0595949
-0.0276141
0.0304054
0.056322
-0.0298709
0.0331438
-0.0319044
0.0522597
0.0359667
0.0724669
-0.00646581
0.0720428
-0.00954998
0.071186
-0.0125064
0.0698978
-0.0153103
0.0681819
-0.0179383
0.0660425
-0.0203732
0.0634813
-0.0226038
0.0604894
-0.0246222
0.0570318
-0.0264133
-0.0279375
0.0530649
0.073983
-0.00640948
0.0734737
-0.00904072
0.0725103
-0.0115429
0.071094
-0.013894
0.0692291
-0.0160734
0.0669212
-0.0180652
0.0641759
-0.0198586
0.0609971
-0.0214434
0.0573879
-0.0228041
-0.0239195
0.0533699
0.0749283
-0.00621855
0.0742636
-0.0083761
0.0731259
-0.0104052
0.0715189
-0.012287
0.0694502
-0.0140047
0.0669303
-0.0155453
0.0639719
-0.0169001
0.0605908
-0.0180623
0.056809
-0.0190223
-0.0197716
0.052661
0.0745606
-0.00579618
0.0736488
-0.00746425
0.0722528
-0.00900929
0.0703825
-0.0104167
0.0680517
-0.011674
0.0652786
-0.0127721
0.0620846
-0.0137061
0.0584961
-0.0144738
0.0545452
-0.0150714
-0.0154983
0.0502719
0.0716124
-0.00503668
0.0703629
-0.00621475
0.068637
-0.00728342
0.0664532
-0.00823286
0.0638346
-0.0090554
0.0608089
-0.00974637
0.0574074
-0.0103047
0.0536647
-0.0107311
0.0496207
-0.0110274
-0.0111965
0.0453189
0.0642141
-0.00387495
0.0625926
-0.00459326
0.0605353
-0.00522611
0.058071
-0.00576848
0.0552327
-0.0062171
0.0520571
-0.00657085
0.0485836
-0.00683113
0.0448537
-0.00700116
0.0409102
-0.00708387
-0.00708395
0.0367976
0.0500929
-0.00237726
0.0482127
-0.00271308
0.0459827
-0.00299607
0.0434394
-0.00322522
0.0406224
-0.00340006
0.0375731
-0.0035216
0.0343336
-0.0035916
0.0309452
-0.00361279
0.0274499
-0.00358856
-0.00352318
0.0238891
0.0272762
-0.000861708
0.025509
-0.000945841
0.0235236
-0.00101068
0.0213555
-0.00105718
0.0190412
-0.00108575
0.0166166
-0.00109701
0.0141171
-0.00109207
0.0115765
-0.00107214
0.00902614
-0.00103825
-0.000994308
0.00649727
-0.00475813
-0.00570397
-0.00671465
-0.00777183
-0.00885757
-0.00995459
-0.0110467
-0.0121188
-0.013157
-0.0141514
0.000944142
-0.0150955
0.00343807
0.00400334
0.00703727
0.0202899
0.0112796
0.0325553
0.0157931
0.0408055
0.020331
0.0457339
0.0247585
0.0482336
0.0290174
0.049111
0.0331045
0.0489777
0.0482283
0.0371359
0.000883478
-0.015979
0.00331005
0.00157677
0.00690707
0.0166929
0.0112422
0.0282201
0.0159413
0.0361064
0.0207401
0.0409351
0.0254833
0.0434904
0.0301024
0.0444919
0.0346011
0.044479
0.0437654
0.039064
0.000818724
-0.0167977
0.00316622
-0.000770721
0.00673978
0.0131193
0.0111404
0.0238194
0.0159996
0.0312472
0.021042
0.0358927
0.0260953
0.0384372
0.0310724
0.0395148
0.0359501
0.0396013
0.0389687
0.0407468
0.000754115
-0.0175518
0.00301558
-0.00303218
0.00654788
0.00958703
0.0109865
0.0193808
0.0159712
0.0262625
0.0212181
0.0306458
0.0265367
0.0331186
0.0318169
0.0342347
0.0370063
0.0344119
0.0338874
0.0420875
0.000692476
-0.0182443
0.00286611
-0.00520582
0.00634465
0.00610849
0.0107965
0.014929
0.015871
0.021188
0.0212775
0.0252393
0.0268094
0.0275867
0.0323356
0.0287085
0.0377797
0.0289678
0.0285692
0.0430979
0.000636398
-0.0188807
0.00272618
-0.0072956
0.00614523
0.00268945
0.0105913
0.0104829
0.015724
0.0160552
0.0212485
0.0197148
0.026945
0.0218902
0.0326654
0.0229881
0.0383146
0.0233186
0.0230557
0.043828
0.000588426
-0.0194691
0.00260407
-0.00931124
0.00596509
-0.000671573
0.0103941
0.00605389
0.0155603
0.010889
0.0211669
0.0141082
0.026985
0.0160721
0.0328537
0.0171194
0.0386635
0.0175087
0.0173861
0.0443331
0.00055109
-0.0200202
0.00250753
-0.0112677
0.00581876
-0.0039828
0.0102265
0.00164613
0.0154087
0.00570687
0.0210682
0.00844868
0.0269704
0.0101699
0.0329458
0.0111441
0.0388744
0.0115801
0.0115988
0.0446617
0.000526699
-0.0205469
0.0024431
-0.0131841
0.00571819
-0.00725788
0.0101066
-0.00274225
0.0152928
0.000520606
0.0209812
0.00276029
0.0269342
0.00421694
0.0329769
0.00510131
0.0389829
0.00557411
0.0057332
0.0448485
0.000518127
0.00241569
0.00567133
0.0100462
0.0152288
0.0209253
0.0268978
0.0329696
0.0390111
0.0449138
0.0572587
-0.0111697
-0.0012239
0.0647663
-0.00607136
-0.00143629
0.0692867
-0.00333555
-0.0011848
0.0720326
-0.00179964
-0.000946264
0.0737057
-0.000913746
-0.000759381
0.0747055
-0.000374973
-0.000624854
0.0752686
-4.53719e-05
-0.000517632
0.075535
0.000170393
-0.000436837
0.0755929
0.000309592
-0.000367491
0.0755023
0.000401671
-0.000311077
0.0752976
0.000460632
-0.000255893
0.075009
0.00049444
-0.000205924
0.074646
0.000526684
-0.000163664
0.0742308
0.000547586
-0.000132327
0.0737591
0.000581591
-0.000109888
0.0732397
0.000602002
-8.26396e-05
0.0726746
0.000636948
-7.1895e-05
0.072062
0.00064574
-3.31208e-05
0.0714039
0.000698755
-4.06406e-05
0.000719301
-1.04333e-05
0.0568404
-0.0233084
0.0642879
-0.0135188
0.068812
-0.00785972
0.071577
-0.00456465
0.0732715
-0.00260823
0.0742931
-0.00139652
0.0748769
-0.000629154
0.0751643
-0.000117012
0.0752434
0.000230438
0.0751748
0.000470255
0.0749935
0.000641935
0.0747299
0.000758084
0.0743939
0.000862679
0.074007
0.000934426
0.0735664
0.00102222
0.0730799
0.00108849
0.0725507
0.00116619
0.0719762
0.00122023
0.0713596
0.00131535
0.00138396
0.0560393
-0.0349344
0.0633503
-0.0208299
0.0678731
-0.0123825
0.070672
-0.00736353
0.0724072
-0.00434349
0.0734709
-0.00246019
0.0740959
-0.00125418
0.074425
-0.000446102
0.0745468
0.000108689
0.0745221
0.000494922
0.0743876
0.000776439
0.0741736
0.000972106
0.0738915
0.00114478
0.0735613
0.00126459
0.0731825
0.00140105
0.0727618
0.00150916
0.0723035
0.0016245
0.0718054
0.00171833
0.0712712
0.00184956
0.00196034
0.054865
-0.0458217
0.0619618
-0.0279267
0.0664761
-0.0168968
0.0693229
-0.0102104
0.0711182
-0.00613874
0.0722441
-0.00358608
0.0729307
-0.0019408
0.0733218
-0.000837223
0.0735071
-7.66353e-05
0.0735482
0.000453853
0.0734836
0.000841043
0.0733437
0.00111202
0.0731418
0.00134668
0.0728964
0.00150998
0.0726096
0.00168783
0.0722874
0.00183138
0.0719347
0.00197715
0.0715508
0.00210226
0.0711393
0.00226107
0.00240489
0.0533316
-0.0557931
0.0601369
-0.034732
0.0646317
-0.0213916
0.0675389
-0.0131176
0.0694127
-0.0080125
0.0706203
-0.00479368
0.0713883
-0.00270881
0.0718614
-0.00131029
0.0721309
-0.000346129
0.0722592
0.000325535
0.072287
0.000813178
0.0722453
0.00115376
0.0721493
0.00144265
0.0720164
0.00164289
0.0718513
0.00185296
0.0716595
0.00202317
0.0714467
0.00218998
0.0712139
0.00233508
0.0709647
0.00251028
0.00267488
0.0514581
-0.0647382
0.0578966
-0.0411704
0.0623555
-0.0258505
0.0653328
-0.0160949
0.0673023
-0.009982
0.0686102
-0.00610157
0.0694787
-0.00357733
0.070053
-0.0018846
0.0704266
-0.000719689
0.0706631
8.90244e-05
0.0708054
0.000670892
0.0708853
0.00107386
0.0709202
0.00140774
0.0709268
0.0016363
0.0709122
0.00186756
0.070882
0.0020534
0.0708424
0.00222953
0.0707966
0.00238086
0.0707484
0.00255849
0.00272872
0.0492386
-0.0725923
0.0552487
-0.0471805
0.0596574
-0.0302592
0.062716
-0.0191535
0.0647991
-0.0120651
0.0662258
-0.00752835
0.0672136
-0.00456508
0.067908
-0.00257899
0.0684049
-0.00121662
0.0687699
-0.000275942
0.0690479
0.000392907
0.0692721
0.000849591
0.0694621
0.00121778
0.0696343
0.00146406
0.0697982
0.00170371
0.0699596
0.00189199
0.0701258
0.00206338
0.0703018
0.00220486
0.070492
0.00236828
0.0025261
0.0465911
-0.0792528
0.0521662
-0.0527556
0.0565326
-0.0346255
0.0596932
-0.0223141
0.0619126
-0.0142845
0.0634791
-0.00909485
0.0646056
-0.00569154
0.065439
-0.0034124
0.0660782
-0.00185586
0.0665912
-0.000788996
0.0670255
-4.13183e-05
0.0674159
0.000459131
0.0677841
0.000849593
0.068147
0.00110114
0.0685162
0.00133459
0.0688982
0.00150999
0.0693012
0.0016603
0.0697325
0.00177364
0.070197
0.0019037
0.00202835
0.0435717
-0.0846775
0.048736
-0.0579198
0.0530456
-0.0389352
0.0563108
-0.0255792
0.0586781
-0.0166519
0.0603982
-0.010815
0.0616781
-0.00697141
0.062666
-0.00440034
0.063464
-0.00265385
0.0641428
-0.00146779
0.0647522
-0.000650683
0.0653291
-0.000117804
0.0658973
0.00028142
0.0664745
0.000523877
0.0670744
0.000734758
0.0677046
0.000879774
0.0683744
0.000990462
0.0690927
0.00105533
0.0698659
0.00113056
0.00119861
0.0408423
-0.0893834
0.0453781
-0.0624557
0.0494563
-0.0430134
0.0527306
-0.0288535
0.0551992
-0.0191204
0.0570519
-0.0126677
0.0584787
-0.00839816
0.0596235
-0.00554517
0.0605884
-0.00361876
0.0614453
-0.00232462
0.0622451
-0.00145056
0.0630262
-0.000898879
0.063814
-0.000506376
0.0646275
-0.000289648
0.0654819
-0.000119641
0.0663864
-2.47043e-05
0.0673516
2.52653e-05
0.0683871
1.98432e-05
0.0695011
1.66104e-05
2.0606e-06
0.125906
-0.0759049
-0.139384
0.121417
-0.0579664
0.120617
-0.0422137
0.121395
-0.0296317
0.122593
-0.0203181
0.12373
-0.0138054
0.12466
-0.0093275
0.125363
-0.00624874
0.125871
-0.00412692
0.126224
-0.00267765
0.126463
-0.00168941
0.126617
-0.00105308
0.126717
-0.00060549
0.126776
-0.000348943
0.126812
-0.000155346
0.12683
-4.33232e-05
0.126842
1.39476e-05
0.126845
1.65826e-05
0.126848
1.35937e-05
1.13734e-06
0.152287
-0.0620487
-0.166143
0.146011
-0.0516904
0.143672
-0.0398751
0.143436
-0.0293956
0.144102
-0.0209833
0.144988
-0.0146915
0.14581
-0.01015
0.146476
-0.00691492
0.146977
-0.00462791
0.147334
-0.00303438
0.147579
-0.00193462
0.147737
-0.00121104
0.14784
-0.000708256
0.1479
-0.000409116
0.147938
-0.000192985
0.147959
-6.46246e-05
0.147973
-1.85981e-07
0.147978
1.21105e-05
0.14798
1.10189e-05
4.98718e-07
0.182305
-0.0484381
-0.195915
0.174724
-0.0441093
0.171018
-0.0361699
0.169681
-0.0280581
0.169623
-0.0209252
0.17009
-0.0151584
0.170684
-0.0107447
0.171233
-0.00746353
0.171676
-0.00507077
0.172005
-0.00336334
0.172237
-0.00216674
0.172388
-0.00136234
0.172488
-0.00080809
0.172546
-0.000467275
0.172584
-0.000230469
0.172606
-8.73097e-05
0.172622
-1.55024e-05
0.172627
6.46297e-06
0.17263
8.48511e-06
3.13913e-08
0.216242
-0.0361147
-0.228565
0.207943
-0.0358105
0.203126
-0.031353
0.200711
-0.0256427
0.199805
-0.02002
0.1997
-0.0150529
0.199937
-0.0109816
0.200271
-0.00779814
0.20059
-0.005389
0.200847
-0.00362082
0.201038
-0.00235774
0.201166
-0.0014904
0.201253
-0.00089461
0.201303
-0.000518088
0.201337
-0.000264458
0.20136
-0.000109412
0.201375
-3.05538e-05
0.201381
-4.8436e-08
0.201384
5.82968e-06
-3.04052e-07
0.254301
-0.0257709
-0.264645
0.246046
-0.027556
0.240496
-0.025803
0.237143
-0.0222896
0.235359
-0.018236
0.234567
-0.0142606
0.23432
-0.0107345
0.234333
-0.00781095
0.234445
-0.00550095
0.234573
-0.00374946
0.234685
-0.0024693
0.234766
-0.00157128
0.234824
-0.000952781
0.234859
-0.000553342
0.234885
-0.000289949
0.234903
-0.00012799
0.234916
-4.37343e-05
0.234923
-6.7461e-06
0.234926
3.06272e-06
-5.50021e-07
0.297063
-0.0175947
-0.305239
0.28953
-0.0200237
0.283718
-0.0199908
0.279669
-0.0182405
0.277069
-0.0156362
0.275533
-0.0127247
0.274696
-0.0098968
0.274276
-0.00739101
0.274087
-0.00531231
0.274015
-0.00367778
0.273997
-0.00245127
0.273998
-0.00157201
0.274007
-0.000961809
0.274015
-0.000560961
0.274025
-0.000299816
0.274035
-0.000138846
0.274045
-5.29956e-05
0.274051
-1.25556e-05
0.274053
3.96172e-07
-7.37025e-07
0.345549
-0.0113852
-0.351759
0.339124
-0.0135987
0.333497
-0.0143634
0.329054
-0.0137981
0.325785
-0.0123668
0.323519
-0.0104586
0.322023
-0.00840131
0.321073
-0.00644085
0.320488
-0.00472681
0.320136
-0.00332559
0.319928
-0.00224391
0.319808
-0.00145139
0.319741
-0.000895279
0.319705
-0.000524881
0.31969
-0.000284731
0.319688
-0.000136547
0.31969
-5.5716e-05
0.319694
-1.60647e-05
0.319696
-1.73787e-06
-8.51735e-07
0.401177
-0.00673487
-0.405827
0.39591
-0.00833161
0.390752
-0.00920558
0.386193
-0.0092393
0.382438
-0.00861164
0.379515
-0.007536
0.377347
-0.00623303
0.375802
-0.0048957
0.374739
-0.00366347
0.37403
-0.00261703
0.373573
-0.00178657
0.373287
-0.00116543
0.373116
-0.000724135
0.373018
-0.000426829
0.372967
-0.000234079
0.372945
-0.000115027
0.372939
-4.89257e-05
0.372938
-1.57094e-05
0.372939
-2.74716e-06
-8.20307e-07
0.465765
-0.00313933
-0.46936
0.461411
-0.0039782
0.456739
-0.0045335
0.452194
-0.00469389
0.448085
-0.00450327
0.444593
-0.00404352
0.44178
-0.00342033
0.439621
-0.00273711
0.438037
-0.00207905
0.436923
-0.00150334
0.436173
-0.00103607
0.435688
-0.000680635
0.435389
-0.000425323
0.435214
-0.000251816
0.435119
-0.000139096
0.435074
-6.93864e-05
0.435055
-3.02204e-05
0.435049
-1.02685e-05
0.435049
-2.12309e-06
-5.36138e-07
0.541639
-0.544778
0.537661
0.533127
0.528434
0.52393
0.519887
0.516466
0.513729
0.51165
0.510147
0.509111
0.50843
0.508005
0.507753
0.507614
0.507545
0.507514
0.507504
0.507502
0.155356
0.00442656
-0.154721
0.155533
0.0088002
0.155219
0.0130907
0.154386
0.0172623
0.153015
0.02128
0.151105
0.025109
0.148676
0.0287176
0.145792
0.0320797
0.142606
0.0351839
0.0381218
0.17277
0.00386639
-0.17221
0.173111
0.00845979
0.17321
0.0129911
0.17305
0.0174226
0.172614
0.0217159
0.17189
0.0258327
0.170873
0.0297354
0.169561
0.0333912
0.167965
0.03678
0.0399434
0.193286
0.00337098
-0.192791
0.193789
0.00795729
0.194285
0.0124942
0.194761
0.0169469
0.195197
0.0212805
0.195567
0.0254618
0.195845
0.0294576
0.195999
0.0332375
0.196009
0.0367703
0.0400368
0.217498
0.00293589
-0.217063
0.218133
0.00732201
0.21896
0.0116674
0.219966
0.015941
0.221134
0.0201127
0.222442
0.0241533
0.223866
0.0280335
0.225378
0.0317255
0.22695
0.0351983
0.0384222
0.246089
0.00252664
-0.24568
0.246862
0.00654888
0.247994
0.010536
0.249474
0.014461
0.251288
0.0182979
0.253421
0.0220207
0.25585
0.0256043
0.258551
0.0290248
0.261493
0.0322563
0.0352704
0.279898
0.00211309
-0.279485
0.280823
0.00562397
0.282255
0.00910429
0.284184
0.0125313
0.2866
0.0158828
0.289483
0.0191368
0.292816
0.0222719
0.296573
0.025268
0.300724
0.0281045
0.030756
0.319945
0.0016722
-0.319504
0.321039
0.00453055
0.32278
0.00736306
0.32516
0.0101515
0.328164
0.0128786
0.331774
0.015527
0.335966
0.0180795
0.340715
0.0205189
0.345991
0.0228287
0.0249883
0.367485
0.00118442
-0.366997
0.368767
0.0032482
0.370837
0.00529348
0.373682
0.00730658
0.377286
0.00927388
0.381631
0.0111822
0.386691
0.0130198
0.392435
0.0147749
0.398827
0.0164363
0.0179884
0.423997
0.000629481
-0.423442
0.425498
0.00174663
0.427939
0.0028533
0.431303
0.00394214
0.435571
0.00500574
0.440716
0.00603712
0.446707
0.00702943
0.453506
0.00797542
0.461073
0.00886899
0.00970173
0.491618
-0.490988
0.493365
0.496218
0.50016
0.505166
0.511203
0.518232
0.526208
0.535077
0.136996
-0.0379744
-0.13484
0.139183
-0.0346355
0.141557
-0.030792
0.143988
-0.0265802
0.146321
-0.0221652
0.148513
-0.0177475
0.150513
-0.0133341
0.152252
-0.00890433
0.153673
-0.00446042
-1.61834e-05
0.162634
-0.0389402
-0.161668
0.163615
-0.0356163
0.164662
-0.0318388
0.165855
-0.0277739
0.167094
-0.0234043
0.16831
-0.0189629
0.169468
-0.0144929
0.170531
-0.00996649
0.171455
-0.00538511
-0.000770875
0.191194
-0.0385164
-0.191617
0.190931
-0.0353537
0.190753
-0.0316605
0.190732
-0.0277531
0.190877
-0.0235488
0.191133
-0.0192196
0.19147
-0.0148299
0.19187
-0.0103662
0.192315
-0.00583027
-0.00124632
0.222704
-0.0368061
-0.224414
0.221234
-0.0338836
0.219939
-0.0303652
0.218846
-0.0266602
0.218003
-0.0227061
0.217395
-0.0186116
0.217
-0.0144349
0.216813
-0.0101792
0.216834
-0.00585153
-0.00147487
0.257994
-0.0338571
-0.260943
0.255313
-0.0312025
0.252914
-0.0279671
0.250816
-0.0245617
0.249068
-0.0209586
0.24768
-0.0172235
0.246644
-0.0133987
0.245961
-0.00949647
0.245638
-0.00552859
-0.00151639
0.297985
-0.0296555
-0.302186
0.29411
-0.0273276
0.290638
-0.0244958
0.28759
-0.0215138
0.28501
-0.0183784
0.282915
-0.0151282
0.281308
-0.0117918
0.280195
-0.00838372
0.279585
-0.00491853
-0.00141558
0.343866
-0.0241998
-0.349322
0.338828
-0.022289
0.334316
-0.0199839
0.330356
-0.0175542
0.326986
-0.0150083
0.324226
-0.0123687
0.322089
-0.00965389
0.320583
-0.00687772
0.319719
-0.00405459
-0.00120119
0.397159
-0.0174788
-0.40388
0.390961
-0.016091
0.385411
-0.0144335
0.380541
-0.0126839
0.376384
-0.0108514
0.372965
-0.00894991
0.370303
-0.00699179
0.368413
-0.00498797
0.367308
-0.00294983
-0.000889887
0.459596
-0.00943477
-0.46764
0.452194
-0.00868892
0.44556
-0.0077991
0.439734
-0.00685857
0.434756
-0.0058731
0.430656
-0.00484939
0.427457
-0.00379322
0.42518
-0.00271066
0.423838
-0.00160837
-0.000493484
0.533663
-0.543098
0.524974
0.517175
0.510317
0.504444
0.499594
0.495801
0.49309
0.491482
0.126507
0.00285448
-0.00256186
0.125888
0.0063867
-0.00576806
0.125098
0.00826671
-0.00747615
0.1242
0.0101609
-0.00926327
0.123205
0.0129281
-0.0119327
0.122156
0.0171556
-0.0161074
0.121248
0.0236886
-0.0227804
0.121001
0.0335993
-0.0333526
0.123426
0.0484686
-0.0508933
0.0746699
-0.0860836
0.147655
0.003132
0.147072
0.00697002
0.146347
0.00899205
0.145567
0.0109408
0.14479