/*--------------------------------*- C++ -*----------------------------------*\
  =========                 |
  \\      /  F ield         | OpenFOAM: The Open Source CFD Toolbox
   \\    /   O peration     | Website:  https://openfoam.org
    \\  /    A nd           | Version:  6.0
     \\/     M anipulation  |
\*---------------------------------------------------------------------------*/
FoamFile
{
    version     2.0;
    format      ascii;
    class       surfaceScalarField;
    location    "5";
    object      phi;
}
// * * * * * * * * * * * * * * * * * * * * * * * * * * * * * * * * * * * * * //

dimensions      [0 3 -1 0 0 0 0];

internalField   nonuniform List<scalar> 
38030
(
-7.87528e-06
-0.00792781
0.00793569
-2.46932e-05
-0.00719565
0.00721246
-4.82872e-05
-0.00652946
0.00655306
-7.66622e-05
-0.00592442
0.00595279
-0.000107995
-0.00537563
0.00540697
-0.000140752
-0.00487835
0.00491111
-0.000173667
-0.00442807
0.00446099
-0.000205707
-0.00402057
0.00405261
-0.000236044
-0.00365193
0.00368227
-0.000264023
-0.00331853
0.00334651
-0.000289141
-0.00301703
0.00304215
-0.000311026
-0.00274438
0.00276627
-0.000329418
-0.00249779
0.00251619
-0.000344159
-0.00227472
0.00228946
-0.000355174
-0.00207286
0.00208388
-0.000362465
-0.0018901
0.0018974
-0.000366102
-0.00172455
0.00172819
-0.000366209
-0.00157448
0.00157459
-0.000362965
-0.00143834
0.00143509
-0.000356589
-0.00131472
0.00130834
-0.000347338
-0.00120237
0.00119311
-0.000335498
-0.00110014
0.0010883
-0.000321381
-0.00100699
0.000992875
-0.000305317
-0.000921959
0.000905894
-0.000287651
-0.000844177
0.000826512
-0.000268736
-0.000772951
0.000754035
-0.000248924
-0.000707714
0.000687902
-0.000228559
-0.000647992
0.000627628
-0.000207981
-0.000593316
0.000572738
-0.000543213
0.00052276
-0.000187528
-6.68595e-06
-0.00792113
-2.26834e-05
-0.00717965
-4.50715e-05
-0.00650707
-7.16306e-05
-0.00589786
-0.00010052
-0.00534674
-0.000130211
-0.00484866
-0.000159446
-0.00439884
-0.000187201
-0.00399282
-0.000212654
-0.00362648
-0.000235159
-0.00329603
-0.000254222
-0.00299797
-0.000269477
-0.00272913
-0.000280673
-0.0024866
-0.000287661
-0.00226774
-0.000290375
-0.00207015
-0.000288826
-0.00189165
-0.000283096
-0.00173028
-0.000273321
-0.00158425
-0.000259692
-0.00145197
-0.000242444
-0.00133197
-0.000221851
-0.00122296
-0.000198217
-0.00112377
-0.000171874
-0.00103333
-0.000143177
-0.000950656
-0.000112493
-0.000874861
-8.02102e-05
-0.000805234
-4.67123e-05
-0.000741211
-1.23816e-05
-0.000682323
2.24085e-05
-0.000628106
-0.000578086
5.7281e-05
-6.1207e-06
-0.00791501
-2.10259e-05
-0.00716474
-4.18274e-05
-0.00648627
-6.62074e-05
-0.00587348
-9.2281e-05
-0.00532067
-0.000118503
-0.00482244
-0.000143613
-0.00437373
-0.000166588
-0.00396984
-0.000186612
-0.00360646
-0.000203045
-0.00327959
-0.000215397
-0.00298562
-0.000223312
-0.00272121
-0.000226546
-0.00248336
-0.000224953
-0.00226933
-0.000218477
-0.00207662
-0.000207138
-0.00190299
-0.000191025
-0.00174639
-0.000170286
-0.00160499
-0.000145124
-0.00147713
-0.000115789
-0.0013613
-8.25713e-05
-0.00125618
-4.57965e-05
-0.00116055
-5.81806e-06
-0.00107331
3.69881e-05
-0.000993463
8.22205e-05
-0.000920093
0.000129463
-0.000852476
0.000178283
-0.000790032
0.000228258
-0.000732298
0.00027897
-0.000678817
-0.000629113
0.000329997
-5.70274e-06
-0.00790931
-1.94675e-05
-0.00715098
-3.84757e-05
-0.00646726
-6.03966e-05
-0.00585156
-8.33243e-05
-0.00529774
-0.000105702
-0.00480006
-0.000126264
-0.00435317
-0.000143989
-0.00395212
-0.000158065
-0.00359238
-0.000167857
-0.0032698
-0.000172881
-0.00298059
-0.000172785
-0.00272131
-0.00016733
-0.00248882
-0.000156378
-0.00228028
-0.000139876
-0.00209312
-0.000117852
-0.00192501
-9.04013e-05
-0.00177385
-5.76811e-05
-0.00163771
-1.99052e-05
-0.0015149
2.26623e-05
-0.00140387
6.97135e-05
-0.00130323
0.000120901
-0.00121174
0.000175849
-0.00112826
0.000234155
-0.00105177
0.000295392
-0.00098133
0.000359096
-0.00091618
0.000424796
-0.000855731
0.00049201
-0.000799513
0.000560268
-0.000747076
-0.000697941
0.000629096
-5.30858e-06
-0.007904
-1.7886e-05
-0.0071384
-3.4951e-05
-0.0064502
-5.41826e-05
-0.00583233
-7.36712e-05
-0.00527825
-9.18573e-05
-0.00478188
-0.000107475
-0.00433755
-0.000119507
-0.00394009
-0.000127145
-0.00358474
-0.000129758
-0.00326719
-0.00012687
-0.00298348
-0.000118131
-0.00273005
-0.000103308
-0.00250364
-8.22662e-05
-0.00230132
-5.49574e-05
-0.00212043
-2.14123e-05
-0.00195856
1.82683e-05
-0.00181353
6.39196e-05
-0.00168337
0.000115319
-0.0015663
0.000172189
-0.00146074
0.000234206
-0.00136524
0.000300999
-0.00127853
0.000372172
-0.00119943
0.000447289
-0.00112689
0.000525897
-0.00105994
0.000607487
-0.000997771
0.000691534
-0.000939778
0.000777498
-0.000885476
0.000864843
-0.000834421
-0.000786127
0.00095303
-4.90228e-06
-0.00789909
-1.62302e-05
-0.00712707
-3.12167e-05
-0.00643521
-4.75525e-05
-0.00581599
-6.33338e-05
-0.00526247
-7.70052e-05
-0.0047682
-8.73064e-05
-0.00432725
-9.32259e-05
-0.00393417
-9.39621e-05
-0.00358401
-8.88913e-05
-0.00327226
-7.75407e-05
-0.00299483
-5.95675e-05
-0.00274802
-3.4741e-05
-0.00252847
-2.92875e-06
-0.00233314
3.59146e-05
-0.00215928
8.17564e-05
-0.0020044
0.000134493
-0.00186626
0.000193954
-0.00174283
0.00025991
-0.00163226
0.000332075
-0.00153291
0.000410108
-0.00144328
0.00049362
-0.00136204
0.000582187
-0.001288
0.000675349
-0.00122005
0.000772608
-0.0011572
0.000873419
-0.00109858
0.000977193
-0.00104355
0.00108333
-0.000991616
0.00119122
-0.000942311
-0.000895151
0.00130025
-4.47127e-06
-0.00789462
-1.44776e-05
-0.00711707
-2.72531e-05
-0.00642244
-4.04985e-05
-0.00580275
-5.23197e-05
-0.00525065
-6.11713e-05
-0.00475935
-6.58028e-05
-0.00432262
-6.52126e-05
-0.00393476
-5.86086e-05
-0.00359061
-4.53751e-05
-0.00328549
-2.50464e-05
-0.00301516
2.71568e-06
-0.00277578
3.81385e-05
-0.00256389
8.13528e-05
-0.00237635
0.000132403
-0.00221033
0.000191257
-0.00206326
0.000257809
-0.00193281
0.000331889
-0.00181691
0.000413262
-0.00171363
0.000501633
-0.00162128
0.000596651
-0.0015383
0.000697911
-0.0014633
0.000804958
-0.00139505
0.000917306
-0.0013324
0.00103441
-0.0012743
0.00115568
-0.00121986
0.00128049
-0.00116836
0.00140814
-0.00111927
0.00153796
-0.00107212
-0.00102641
0.00166921
-4.01213e-06
-0.00789061
-1.26184e-05
-0.00710846
-2.30497e-05
-0.00641201
-3.30148e-05
-0.00579278
-4.06322e-05
-0.00524303
-4.43705e-05
-0.00475561
-4.29936e-05
-0.00432399
-3.5514e-05
-0.00394224
-2.1152e-05
-0.00360497
6.9718e-07
-0.00330734
3.0491e-05
-0.00304495
6.85614e-05
-0.00281385
0.000115132
-0.00261046
0.000170334
-0.00243155
0.000234211
-0.0022742
0.000306732
-0.00213578
0.000387796
-0.00201388
0.000477231
-0.00190634
0.000574804
-0.0018112
0.000680214
-0.00172669
0.000793103
-0.00165118
0.000913048
-0.00158325
0.00103957
-0.00152157
0.00117215
-0.00146497
0.00131021
-0.00141236
0.00145311
-0.00136276
0.00160016
-0.0013154
0.00175059
-0.00126971
0.00190363
-0.00122516
-0.00118122
0.00205844
-3.52389e-06
-0.00788709
-1.06484e-05
-0.00710134
-1.85995e-05
-0.00640405
-2.5095e-05
-0.00578629
-2.82686e-05
-0.00523986
-2.66066e-05
-0.00475728
-1.88921e-05
-0.00433171
-4.1557e-06
-0.00395697
1.83658e-05
-0.00362749
4.92634e-05
-0.00333824
8.89836e-05
-0.00308467
0.000137851
-0.00286272
0.000196085
-0.0026687
0.000263815
-0.00249928
0.000341087
-0.00235148
0.000427874
-0.00222256
0.000524079
-0.00211008
0.000629536
-0.0020118
0.000744013
-0.00192568
0.000867212
-0.00184989
0.000998768
-0.00178274
0.00113825
-0.00172273
0.00128515
-0.00166847
0.00143892
-0.00161875
0.00159894
-0.00157238
0.00176455
-0.00152836
0.00193496
-0.00148581
0.00210936
-0.0014441
0.00228683
-0.00140263
-0.00136084
0.00246645
-3.00633e-06
-0.00788408
-8.56376e-06
-0.00709578
-1.38953e-05
-0.00639872
-1.67294e-05
-0.00578345
-1.52182e-05
-0.00524137
-7.87081e-06
-0.00476462
6.50616e-06
-0.00434608
2.88593e-05
-0.00397933
5.99309e-05
-0.00365857
0.000100294
-0.0033786
0.000150382
-0.00313476
0.000210508
-0.00292285
0.000280887
-0.00273908
0.000361646
-0.00258004
0.000452835
-0.00244266
0.00055443
-0.00232416
0.000666342
-0.00222199
0.000788413
-0.00213387
0.00092042
-0.00205769
0.00106207
-0.00199154
0.001213
-0.00193367
0.00137276
-0.00188249
0.00154085
-0.00183656
0.00171668
-0.00179457
0.00189959
-0.00175529
0.00208887
-0.00171764
0.00228369
-0.00168064
0.00248313
-0.00164354
0.00268619
-0.00160569
-0.00156643
0.00289178
-2.45845e-06
-0.00788162
-6.35996e-06
-0.00709188
-8.92715e-06
-0.00639616
-7.90262e-06
-0.00578448
-1.46165e-06
-0.00524781
1.18591e-05
-0.00477794
3.32242e-05
-0.00436745
6.35517e-05
-0.00400965
0.000103558
-0.00369857
0.000153795
-0.00342884
0.000214676
-0.00319564
0.000286503
-0.00299467
0.000369482
-0.00282205
0.000463737
-0.0026743
0.000569319
-0.00254825
0.000686212
-0.00244105
0.000814335
-0.00235012
0.000953544
-0.00227308
0.00110363
-0.00220777
0.0012643
-0.00215221
0.00143521
-0.00210458
0.00161592
-0.0020632
0.0018059
-0.00202654
0.00200454
-0.00199321
0.00221117
-0.00196192
0.00242499
-0.00193146
0.00264516
-0.0019008
0.00287064
-0.00186903
0.00310034
-0.00183538
-0.00179911
0.00333301
-1.87856e-06
-0.00787974
-4.03054e-06
-0.00708973
-3.68153e-06
-0.0063965
1.40661e-06
-0.00578957
1.30303e-05
-0.00525944
3.26193e-05
-0.00479753
6.13033e-05
-0.00439613
9.99662e-05
-0.00404832
0.000149293
-0.0037479
0.000209807
-0.00348935
0.0002819
-0.00326774
0.000365855
-0.00307863
0.000461867
-0.00291807
0.000570054
-0.00278248
0.000690469
-0.00266866
0.000823101
-0.00257368
0.000967882
-0.0024949
0.00112468
-0.00242988
0.0012933
-0.00237639
0.00147349
-0.0023324
0.00166489
-0.00229598
0.00186709
-0.00226539
0.00207956
-0.00223901
0.00230167
-0.00221533
0.00253272
-0.00219297
0.00277188
-0.00217062
0.00301822
-0.00214714
0.00327066
-0.00212147
0.00352795
-0.00209268
-0.00205991
0.00378875
-1.26447e-06
-0.00787848
-1.56685e-06
-0.00708942
1.85885e-06
-0.00639993
1.12261e-05
-0.00579893
2.82961e-05
-0.00527651
5.44591e-05
-0.0048237
9.08026e-05
-0.00443248
0.00013817
-0.00409568
0.000197208
-0.00380694
0.000268405
-0.00356055
0.000352125
-0.00335146
0.000448628
-0.00317513
0.000558092
-0.00302753
0.000680627
-0.00290502
0.000816282
-0.00280432
0.000965053
-0.00272246
0.00112688
-0.00265673
0.00130166
-0.00260465
0.00148921
-0.00256395
0.0016893
-0.00253248
0.00190161
-0.00250829
0.00212573
-0.00248952
0.00236116
-0.00247444
0.00260728
-0.00246145
0.00286334
-0.00244903
0.00312849
-0.00243578
0.00340173
-0.00242038
0.00368192
-0.00240166
0.0039677
-0.00237846
-0.00234976
0.00425755
-6.13085e-07
-0.00787787
1.04129e-06
-0.00709108
7.71492e-06
-0.0064066
2.15891e-05
-0.00581281
4.43832e-05
-0.0052993
7.74398e-05
-0.00485675
0.000121797
-0.00447683
0.000178251
-0.00415214
0.000247402
-0.00387609
0.000329697
-0.00364285
0.000425464
-0.00344722
0.000534935
-0.0032846
0.000658263
-0.00315086
0.000795545
-0.0030423
0.000946824
-0.00295559
0.0011121
-0.00288773
0.00129132
-0.00283595
0.0014844
-0.00279773
0.00169119
-0.00277074
0.00191148
-0.00275278
0.00214499
-0.0027418
0.00239136
-0.00273588
0.0026501
-0.00273318
0.0029206
-0.00273195
0.00320213
-0.00273056
0.0034938
-0.00272744
0.00379455
-0.00272113
0.00410316
-0.00271027
0.0044182
-0.0026935
-0.0026695
0.00473794
7.90052e-08
-0.00787795
3.80587e-06
-0.0070948
1.39104e-05
-0.00641671
3.25339e-05
-0.00583143
6.13454e-05
-0.00532811
0.000101632
-0.00489704
0.000154375
-0.00452958
0.000220313
-0.00421808
0.000299995
-0.00395577
0.000393817
-0.00373667
0.000502063
-0.00355547
0.000624927
-0.00340747
0.000762534
-0.00328847
0.000914956
-0.00319472
0.00108223
-0.00312286
0.00126434
-0.00306984
0.00146125
-0.00303287
0.0016729
-0.00300938
0.00189916
-0.002997
0.00213986
-0.00299348
0.00239477
-0.00299672
0.00266357
-0.00300468
0.00294581
-0.00301542
0.00324094
-0.00302708
0.00354823
-0.00303784
0.00386676
-0.00304598
0.00419548
-0.00304985
0.00453306
-0.00304785
0.00487796
-0.0030384
-0.00301985
0.00522832
8.15736e-07
-0.00787876
6.73981e-06
-0.00710073
2.0471e-05
-0.00643044
4.41014e-05
-0.00585506
7.92409e-05
-0.00536325
0.000127113
-0.00494491
0.000188632
-0.0045911
0.000264474
-0.00429392
0.000355123
-0.00404642
0.00046092
-0.00384246
0.000582094
-0.00367664
0.000718792
-0.00354416
0.0008711
-0.00344077
0.00103906
-0.00336268
0.00122268
-0.00330648
0.00142195
-0.00326911
0.00163682
-0.00324774
0.00186725
-0.00323981
0.00211315
-0.00324289
0.00237438
-0.00325471
0.00265076
-0.0032731
0.00294203
-0.00329595
0.00324782
-0.00332121
0.00356761
-0.00334688
0.00390074
-0.00337098
0.00424633
-0.00339156
0.00460325
-0.00340677
0.00497016
-0.00341476
0.0053454
-0.00341363
-0.00340146
0.005727
1.60101e-06
-0.00788036
9.85634e-06
-0.00710898
2.7423e-05
-0.00644801
5.63335e-05
-0.00588397
9.81293e-05
-0.00540505
0.00015396
-0.00500074
0.000224668
-0.0046618
0.000310852
-0.0043801
0.000412929
-0.00414849
0.000531171
-0.00396071
0.000665744
-0.00381122
0.000816738
-0.00369516
0.000984188
-0.00360822
0.00116809
-0.00354659
0.00136843
-0.00350682
0.00158516
-0.00348584
0.00181825
-0.00348083
0.00206764
-0.0034892
0.00233327
-0.00350852
0.00261505
-0.0035365
0.00291287
-0.00357091
0.00322651
-0.0036096
0.00355571
-0.00365041
0.00390003
-0.0036912
0.00425888
-0.00372982
0.00463143
-0.00376411
0.00501659
-0.00379193
0.00541299
-0.00381115
0.00581889
-0.00381954
-0.00381476
0.0062322
2.43876e-06
-0.0078828
1.31683e-05
-0.00711971
3.47916e-05
-0.00646963
6.92706e-05
-0.00591845
0.000118068
-0.00545385
0.000182251
-0.00506493
0.000262577
-0.00474213
0.000359567
-0.00447709
0.000473554
-0.00426248
0.000604736
-0.00409189
0.000753206
-0.00395969
0.000918984
-0.00386094
0.00110204
-0.00379128
0.00130232
-0.00374687
0.00151976
-0.00372426
0.00175428
-0.00372036
0.00200582
-0.00373237
0.00227432
-0.0037577
0.00255974
-0.00379394
0.00286204
-0.00383879
0.00318113
-0.00389001
0.00351692
-0.00394539
0.00386922
-0.00400271
0.00423772
-0.0040597
0.00462194
-0.00411404
0.00502115
-0.00416333
0.00543434
-0.00420512
0.00586015
-0.00423696
0.00629682
-0.00425621
-0.00426002
0.00674208
3.33265e-06
-0.00788613
1.66877e-05
-0.00713307
4.26e-05
-0.00649554
8.29489e-05
-0.0059588
0.000139107
-0.00551
0.000212051
-0.00513787
0.000302446
-0.00483253
0.000410722
-0.00458537
0.000537125
-0.00438889
0.000681767
-0.00423653
0.000844657
-0.00412258
0.00102574
-0.00404202
0.0012249
-0.00399045
0.00144202
-0.00396399
0.00167697
-0.00395921
0.00192962
-0.00397301
0.00219987
-0.00400261
0.00248763
-0.00404547
0.00279287
-0.00409918
0.00311557
-0.00416148
0.00345571
-0.00423015
0.00381328
-0.00430295
0.0041882
-0.00437763
0.00458032
-0.00445182
0.0049893
-0.00452302
0.00541458
-0.00458861
0.00585529
-0.00464583
0.00631013
-0.00469181
0.00677734
-0.00472341
-0.00473724
0.00725455
4.28551e-06
-0.00789042
2.0424e-05
-0.00714921
5.08669e-05
-0.00652598
9.73978e-05
-0.00600533
0.000161289
-0.00557389
0.000243413
-0.00521999
0.00034434
-0.00493345
0.000464398
-0.00470543
0.00060374
-0.00452823
0.000762383
-0.00439517
0.000940245
-0.00430044
0.00113718
-0.00423895
0.00135298
-0.00420625
0.00158745
-0.00419846
0.00184036
-0.00421212
0.00211152
-0.00424417
0.00240076
-0.00429186
0.00270796
-0.00435267
0.00303305
-0.00442427
0.00337602
-0.00450445
0.0037369
-0.00459103
0.00411576
-0.00468181
0.00451265
-0.00477452
0.00492758
-0.00486675
0.00536044
-0.00495587
0.00581086
-0.00503904
0.00627819
-0.00511315
0.00676128
-0.0051749
0.00725843
-0.00522056
-0.00524604
0.00776723
5.29944e-06
-0.00789572
2.43845e-05
-0.00716829
5.96061e-05
-0.00656121
0.000112637
-0.00605836
0.000184638
-0.00564589
0.000276371
-0.00531173
0.000388296
-0.00504538
0.000520642
-0.00483777
0.000673457
-0.00468104
0.000846657
-0.00456837
0.00104006
-0.00449384
0.00125342
-0.0044523
0.00148643
-0.00443927
0.00173879
-0.00445082
0.00201018
-0.0044835
0.00230029
-0.00453428
0.00260888
-0.00460044
0.00293574
-0.00467953
0.00328075
-0.00476928
0.00364387
-0.00486757
0.00402515
-0.00497231
0.00442472
-0.00508138
0.00484276
-0.00519257
0.00527948
-0.00530347
0.005735
-0.00541139
0.00620926
-0.00551329
0.00670188
-0.00560577
0.00721198
-0.00568501
0.00773804
-0.00574662
-0.00578564
0.00827764
6.3754e-06
-0.00790209
2.85731e-05
-0.00719049
6.88248e-05
-0.00660146
0.000128677
-0.00611821
0.000209164
-0.00572638
0.000310929
-0.00541349
0.00043432
-0.00516877
0.000579454
-0.00498291
0.000746274
-0.00484786
0.000934593
-0.00475669
0.00114412
-0.00470337
0.0013745
-0.00468268
0.00162533
-0.00469009
0.00189617
-0.00472165
0.00218659
-0.00477392
0.00249617
-0.00484386
0.00282453
-0.00492881
0.00317137
-0.00502637
0.00353646
-0.00513437
0.00391968
-0.00525079
0.00432106
-0.00537368
0.00474074
-0.00550107
0.00517903
-0.00563086
0.0056363
-0.00576074
0.00611296
-0.00588805
0.00660932
-0.00600965
0.00712541
-0.00612185
0.00766075
-0.00622035
0.00821412
-0.00629999
-0.00635475
0.00878324
7.51344e-06
-0.00790961
3.29913e-05
-0.00721597
7.85242e-05
-0.00664699
0.000145513
-0.0061852
0.000234854
-0.00581572
0.000347065
-0.0055257
0.000482371
-0.00530408
0.000640779
-0.00514131
0.000822123
-0.00502921
0.00102611
-0.00496068
0.00125234
-0.0049296
0.00150034
-0.00493069
0.00176959
-0.00495935
0.00205954
-0.0050116
0.00236962
-0.005084
0.00269926
-0.00517351
0.00304795
-0.0052775
0.00341522
-0.00539364
0.00380069
-0.00551984
0.00420412
-0.00565422
0.00462542
-0.00579499
0.00506472
-0.00594036
0.00552233
-0.00608847
0.0059988
-0.00623721
0.00649482
-0.00638407
0.00701113
-0.00652596
0.00754831
-0.00665903
0.00810648
-0.00677852
0.00868493
-0.00687844
-0.00695148
0.00928166
8.71265e-06
-0.00791832
3.76389e-05
-0.00724489
8.87004e-05
-0.00669805
0.000163131
-0.00625963
0.000261677
-0.00591427
0.000384719
-0.00564875
0.000532361
-0.00545172
0.000704495
-0.00531345
0.000900846
-0.00522556
0.00112101
-0.00518084
0.00136449
-0.00517308
0.00163069
-0.00519689
0.00191899
-0.00524764
0.00222868
-0.0053213
0.00255908
-0.0054144
0.00290947
-0.00552389
0.00327915
-0.00564717
0.00366746
-0.00578195
0.00407384
-0.00592622
0.00449783
-0.00607822
0.00493917
-0.00623632
0.00539781
-0.006399
0.00587402
-0.00656468
0.0063684
-0.00673159
0.00688188
-0.00689755
0.00741566
-0.00705974
0.007971
-0.00721437
0.00854887
-0.00735639
0.00914938
-0.00747895
-0.00757316
0.00977107
9.97371e-06
-0.00792829
4.25179e-05
-0.00727744
9.9348e-05
-0.00675488
0.000181506
-0.00634179
0.000289575
-0.00602234
0.000423796
-0.00578297
0.000584149
-0.00561207
0.00077041
-0.00549971
0.000982196
-0.00543734
0.001219
-0.00541764
0.00148021
-0.00543429
0.00176515
-0.00548183
0.00207305
-0.00555554
0.00240312
-0.00565138
0.00275452
-0.00576579
0.00312638
-0.00589575
0.00351782
-0.00603861
0.00392798
-0.00619211
0.00435606
-0.0063543
0.00480133
-0.00652349
0.00526324
-0.00669823
0.00574146
-0.00687723
0.00623603
-0.00705925
0.00674742
-0.00724298
0.00727664
-0.00742678
0.00782528
-0.00760839
0.00839537
-0.00778446
0.00898902
-0.00795004
0.00960764
-0.00809757
-0.00821625
0.0102507
1.13036e-05
-0.0079396
4.76405e-05
-0.00731377
0.000110466
-0.00681771
0.000200606
-0.00643193
0.000318473
-0.0061402
0.000464166
-0.00592866
0.00063754
-0.00578544
0.000838255
-0.00570042
0.00106582
-0.00566491
0.00131963
-0.00567146
0.00159898
-0.00571364
0.00190308
-0.00578593
0.00223108
-0.00588355
0.00258207
-0.00600237
0.0029551
-0.00613882
0.00334915
-0.0062898
0.00376319
-0.00645266
0.00419617
-0.00662509
0.00464702
-0.00680515
0.00511472
-0.00699119
0.00559834
-0.00718186
0.00609715
-0.00737604
0.00661073
-0.00757283
0.00713914
-0.00777139
0.00768317
-0.00797081
0.00824451
-0.00816972
0.00882583
-0.00836579
0.00943066
-0.00855486
0.0100624
-0.0087293
-0.00887595
0.0107221
1.27275e-05
-0.00795232
5.30427e-05
-0.00735409
0.000122067
-0.00688673
0.000220395
-0.00653026
0.000348273
-0.00626808
0.00050566
-0.00608605
0.000692283
-0.00597207
0.000907689
-0.00591583
0.00115128
-0.0059085
0.00142235
-0.00594253
0.0017201
-0.00601139
0.00204366
-0.00610948
0.00239209
-0.00623198
0.0027644
-0.00637468
0.00315955
-0.00653396
0.00357642
-0.00670667
0.00401386
-0.0068901
0.00447067
-0.00708189
0.00494558
-0.00728005
0.00543728
-0.00748289
0.00594448
-0.00768905
0.00646592
-0.00789749
0.00700057
-0.00810747
0.00754775
-0.00831857
0.0081075
-0.00853056
0.00868098
-0.0087432
0.00927097
-0.00895578
0.00988222
-0.00916611
0.0105209
-0.00936795
-0.00954582
0.0111907
1.43146e-05
-0.00796664
5.88086e-05
-0.00739858
0.000134185
-0.00696211
0.000240835
-0.00663691
0.000378856
-0.0064061
0.00054807
-0.00625526
0.000748076
-0.00617207
0.000978298
-0.00614605
0.00123803
-0.00616824
0.00152647
-0.00623096
0.00184272
-0.00632764
0.00218584
-0.0064526
0.00255482
-0.00660096
0.00294862
-0.00676847
0.00336613
-0.00695147
0.0038062
-0.00714675
0.00426763
-0.00735153
0.00474914
-0.00756341
0.00524938
-0.00778029
0.00576688
-0.0080004
0.00630009
-0.00822226
0.00684733
-0.00844474
0.0074069
-0.00866704
0.00797717
-0.00888884
0.00855689
-0.00911027
0.00914571
-0.00933203
0.00974509
-0.00955516
0.0103596
-0.00978063
0.0109982
-0.0100066
-0.0102203
0.0116727
1.62894e-05
-0.00798293
6.51396e-05
-0.00744743
0.000146892
-0.00704386
0.000261878
-0.00675189
0.000410072
-0.0065543
0.00059115
-0.00643634
0.000804566
-0.00638549
0.00104961
-0.0063911
0.00132546
-0.00644409
0.0016312
-0.0065367
0.00196586
-0.00666229
0.0023284
-0.00681515
0.00271778
-0.00699034
0.0031329
-0.00718359
0.00357264
-0.00739121
0.00403587
-0.00760998
0.00452141
-0.00783707
0.00502804
-0.00807004
0.00555447
-0.00830671
0.00609931
-0.00854524
0.00666104
-0.00878399
0.00723792
-0.00902162
0.00782796
-0.00925708
0.00842883
-0.0094897
0.00903791
-0.00971936
0.00965259
-0.00994671
0.010271
-0.0101736
0.010894
-0.0104037
0.0115306
-0.0106431
-0.0109045
0.0122148
1.94635e-05
-0.00800239
7.24223e-05
-0.00750039
0.000160248
-0.00713169
0.000283417
-0.00687506
0.000441712
-0.00671259
0.0006346
-0.00662923
0.000861354
-0.00661224
0.00112111
-0.00665085
0.0014129
-0.00673588
0.0017357
-0.0068595
0.00208844
-0.00701503
0.00247
-0.00719672
0.00287928
-0.00739962
0.00331516
-0.00761947
0.00377653
-0.00785258
0.00426228
-0.00809573
0.00477133
-0.00834612
0.00530261
-0.00860132
0.00585509
-0.0088592
0.00642773
-0.00911788
0.00701949
-0.00937574
0.00762926
-0.00963139
0.00825583
-0.00988365
0.00889771
-0.0101316
0.00955296
-0.0103746
0.010219
-0.0106127
0.0108923
-0.0108469
0.0115675
-0.0110789
0.0122401
-0.0113157
-0.0115794
0.012915
0.00903568
4.62751e-05
-0.00908196
0.00899028
4.54026e-05
0.00894509
4.51896e-05
0.00889997
4.51206e-05
0.00885493
4.50344e-05
0.00881006
4.48727e-05
0.00876545
4.4609e-05
0.00872122
4.42367e-05
0.00867746
4.37593e-05
0.00863427
4.31848e-05
0.00859175
4.25183e-05
0.00854999
4.1763e-05
0.00850907
4.09227e-05
0.00846907
4.00013e-05
0.00843006
3.90045e-05
0.00839212
3.79381e-05
0.00835532
3.6808e-05
0.0083197
3.56197e-05
0.00828532
3.43785e-05
0.00825223
3.30897e-05
0.00822047
3.17583e-05
0.00819008
3.03893e-05
0.00816109
2.89872e-05
0.00813354
2.75566e-05
0.00810744
2.61001e-05
0.00808282
2.46147e-05
0.00805974
2.30818e-05
0.0080383
2.14419e-05
0.00801881
1.94869e-05
1.6419e-05
0.0104049
0.000164982
-0.0105237
0.0102849
0.000165493
0.0101639
0.000166131
0.0100424
0.00016664
0.00992056
0.000166872
0.00979868
0.00016675
0.00967706
0.000166235
0.00955598
0.000165317
0.00943573
0.000164004
0.00931661
0.000162312
0.00919887
0.000160256
0.00908278
0.000157849
0.0089686
0.000155105
0.00885656
0.00015204
0.00874689
0.000148672
0.00863981
0.000145023
0.0085355
0.000141112
0.00843417
0.000136958
0.00833596
0.000132581
0.00824106
0.000127998
0.00814959
0.000123229
0.00806169
0.000118289
0.00797748
0.000113195
0.00789708
0.000107959
0.00782058
0.000102592
0.00774811
9.70896e-05
0.00767976
9.14257e-05
0.00761568
8.55239e-05
0.00755598
7.91879e-05
7.20082e-05
0.0117318
0.000343769
-0.0119106
0.0115499
0.000347393
0.0113657
0.000350366
0.0111797
0.000352621
0.0109925
0.000354081
0.0108045
0.00035469
0.0106163
0.000354422
0.0104284
0.000353273
0.0102411
0.000351262
0.010055
0.000348416
0.00987052
0.000344758
0.00968805
0.000340315
0.00950804
0.000335119
0.00933087
0.000329204
0.00915693
0.000322609
0.00898658
0.000315373
0.00882016
0.000307538
0.00865797
0.000299142
0.00850033
0.000290225
0.0083475
0.000280826
0.00819975
0.00027098
0.00805732
0.000260724
0.00792042
0.00025009
0.00778927
0.000239108
0.00766406
0.000227802
0.00754497
0.000216185
0.00743214
0.000204251
0.0073257
0.000191963
0.00722565
0.000179238
0.000165973
0.0130069
0.000571608
-0.0132347
0.0127742
0.000580032
0.0125376
0.000586973
0.0122978
0.000592433
0.0120555
0.000596383
0.0118114
0.000598802
0.0115661
0.000599677
0.0113204
0.000599023
0.0110748
0.000596872
0.0108299
0.000593257
0.0105865
0.000588219
0.010345
0.0005818
0.010106
0.000574052
0.00987022
0.000565032
0.00963802
0.000554802
0.00940997
0.000543427
0.00918654
0.00053097
0.00896818
0.000517497
0.00875534
0.000503073
0.0085484
0.00048776
0.00834776
0.000471619
0.00815378
0.00045471
0.00796678
0.000437088
0.00778708
0.000418807
0.00761497
0.000399917
0.00745069
0.00038046
0.00729447
0.000360472
0.00714645
0.000339979
0.00700669
0.000319001
0.000297599
0.0142224
0.000838507
-0.0144893
0.0139489
0.000853559
0.0136696
0.000866237
0.0133855
0.000876558
0.0130974
0.000884517
0.0128061
0.000890107
0.0125124
0.000893336
0.0122172
0.000894234
0.0119212
0.000892843
0.0116253
0.000889209
0.0113301
0.000883384
0.0110365
0.000875428
0.0107451
0.000865416
0.0104567
0.00085343
0.010172
0.000839555
0.00989153
0.000823883
0.00961599
0.000806506
0.00934597
0.000787516
0.00908204
0.000767007
0.00882473
0.000745069
0.00857456
0.000721791
0.00833201
0.000697261
0.00809753
0.000671563
0.00787156
0.000644781
0.00765447
0.000616998
0.00744664
0.000588298
0.00724834
0.000558766
0.00705983
0.000528496
0.00688123
0.000497599
0.000466236
0.0153726
0.00113555
-0.0156696
0.015067
0.00115916
0.0147537
0.00117945
0.0144339
0.00119644
0.0141083
0.0012101
0.013778
0.00122043
0.0134438
0.00122747
0.0131068
0.00123124
0.0127679
0.00123179
0.0124279
0.00122918
0.0120878
0.00122348
0.0117485
0.00121475
0.0114108
0.0012031
0.0110756
0.00118863
0.0107437
0.00117145
0.0104159
0.00115168
0.010093
0.00112943
0.00977565
0.00110484
0.00946464
0.00107802
0.00916061
0.0010491
0.00886422
0.00101819
0.00857607
0.000985406
0.00829676
0.000950874
0.00802683
0.000914707
0.00776681
0.000877027
0.00751714
0.000837962
0.00727825
0.000797655
0.00705048
0.00075627
0.00683408
0.000714
0.000671087
0.0164529
0.00145481
-0.0167722
0.0161231
0.00148897
0.0157838
0.00151882
0.0154358
0.00154435
0.0150804
0.00156553
0.0147185
0.00158234
0.0143512
0.00159481
0.0139794
0.00160297
0.0136043
0.00160688
0.0132269
0.00160659
0.0128482
0.00160218
0.0124693
0.00159372
0.012091
0.00158134
0.0117145
0.00156516
0.0113406
0.00154532
0.0109703
0.00152195
0.0106046
0.00149521
0.0102442
0.00146525
0.00988996
0.00143222
0.00954279
0.00139626
0.00920344
0.00135754
0.00887265
0.0013162
0.00855115
0.00127237
0.00823962
0.00122623
0.00793872
0.00117793
0.00764904
0.00112764
0.00737112
0.00107557
0.00710544
0.00102195
0.00685238
0.000967061
0.000911222
0.0174608
0.00178928
-0.0177953
0.0171138
0.00183598
0.0167552
0.00187736
0.0163862
0.00191337
0.0160078
0.00194395
0.0156211
0.00196906
0.0152272
0.00198871
0.0148272
0.00200295
0.0144223
0.0020118
0.0140136
0.00201531
0.0136022
0.00201356
0.0131893
0.00200664
0.0127759
0.00199469
0.0123633
0.00197783
0.0119523
0.00195623
0.0115442
0.00193005
0.01114
0.00189947
0.0107406
0.00186466
0.010347
0.0018258
0.00996019
0.00178307
0.00958108
0.00173665
0.00921057
0.00168671
0.00884952
0.00163343
0.00849876
0.001577
0.00815908
0.00151761
0.00783123
0.00145549
0.00751591
0.00139089
0.00721374
0.00132413
0.00692524
0.00125556
0.00118561
0.0183947
0.00213284
-0.0187382
0.0180366
0.00219401
0.0176651
0.00224887
0.0172812
0.00229728
0.016886
0.00233917
0.0164806
0.00237445
0.0160662
0.00240313
0.0156439
0.00242521
0.015215
0.0024407
0.0147807
0.00244964
0.0143421
0.00245209
0.0139006
0.00244816
0.0134573
0.00243798
0.0130135
0.0024217
0.0125702
0.00239948
0.0121288
0.00237151
0.0116902
0.00233798
0.0112558
0.0022991
0.0108265
0.00225507
0.0104035
0.00220608
0.00998783
0.00215234
0.00958049
0.00209405
0.0091825
0.00203142
0.00879485
0.00196464
0.00841851
0.00189395
0.00805437
0.00181962
0.0077033
0.00174196
0.00736608
0.00166135
0.00704341
0.00157823
0.00149314
0.0192543
0.00248014
-0.0196016
0.0188907
0.00255766
0.0185117
0.00262786
0.0181184
0.00269058
0.0177119
0.00274566
0.0172933
0.002793
0.0168639
0.00283256
0.0164248
0.0028643
0.0159773
0.00288822
0.0155226
0.00290431
0.0150621
0.00291263
0.014597
0.00291328
0.0141286
0.00290637
0.0136582
0.00289208
0.0131871
0.00287057
0.0127166
0.00284203
0.0122479
0.00280668
0.0117823
0.00276474
0.0113209
0.00271642
0.010865
0.00266194
0.0104158
0.00260153
0.00997451
0.00253539
0.00954218
0.00246375
0.00911999
0.00238682
0.00870908
0.00230487
0.00831051
0.00221819
0.00792535
0.00212713
0.00755456
0.00203214
0.00719903
0.00193377
0.00183266
0.0200405
0.00282661
-0.020387
0.019676
0.00292222
0.0192943
0.00300956
0.0188964
0.00308839
0.0184836
0.00315851
0.0180568
0.00321976
0.0176173
0.00327204
0.0171664
0.00331529
0.0167051
0.00334943
0.016235
0.00337445
0.0157572
0.00339038
0.0152732
0.00339729
0.0147843
0.0033953
0.0142918
0.00338456
0.0137972
0.00336523
0.0133017
0.00333753
0.0128067
0.00330166
0.0123136
0.00325786
0.0118236
0.00320636
0.0113382
0.00314739
0.0108585
0.00308117
0.010386
0.00300792
0.0099219
0.00292787
0.00946749
0.00284123
0.00902408
0.00274828
0.00859295
0.00264931
0.00817535
0.00254473
0.00777246
0.00243503
0.00738537
0.00232086
0.00220301
0.0207549
0.00316838
-0.0210966
0.0203934
0.00328369
0.0200131
0.00338983
0.019615
0.00348649
0.0192001
0.0035734
0.0187696
0.00365033
0.0183245
0.00371713
0.0178661
0.00377369
0.0173956
0.00381987
0.0169145
0.00385563
0.0164239
0.00388094
0.0159253
0.00389587
0.0154201
0.0039005
0.0149097
0.00389496
0.0143955
0.00387942
0.013879
0.00385408
0.0133615
0.00381916
0.0128445
0.00377489
0.0123293
0.00372149
0.0118175
0.00365921
0.0113104
0.00358827
0.0108094
0.00350888
0.010316
0.00342125
0.0098317
0.00332559
0.00935785
0.00322213
0.00889598
0.00311118
0.00844757
0.00299314
0.00801403