/*--------------------------------*- C++ -*----------------------------------*\
  =========                 |
  \\      /  F ield         | OpenFOAM: The Open Source CFD Toolbox
   \\    /   O peration     | Website:  https://openfoam.org
    \\  /    A nd           | Version:  6.0
     \\/     M anipulation  |
\*---------------------------------------------------------------------------*/
FoamFile
{
    version     2.0;
    format      ascii;
    class       volScalarField;
    location    "4.75";
    object      p;
}
// * * * * * * * * * * * * * * * * * * * * * * * * * * * * * * * * * * * * * //

dimensions      [0 2 -2 0 0 0 0];

internalField   nonuniform List<scalar> 
19200
(
-128.325
-113.597
-102.598
-93.3724
-84.9089
-77.2406
-70.3255
-64.0766
-58.4241
-53.3092
-48.6787
-44.4846
-40.6836
-37.2368
-34.1091
-31.2692
-28.6888
-26.3425
-24.2075
-22.2635
-20.4921
-18.8767
-17.4028
-16.0569
-14.8273
-13.7033
-12.6754
-11.7343
-10.8712
-10.0893
-128.458
-113.763
-102.773
-93.5426
-85.0713
-77.3947
-70.4713
-64.2146
-58.5549
-53.4335
-48.7972
-44.5979
-40.7923
-37.3414
-34.2101
-31.3668
-28.7833
-26.4342
-24.2966
-22.3502
-20.5765
-18.9591
-17.4831
-16.1353
-14.9038
-13.778
-12.7484
-11.8054
-10.9401
-10.1576
-128.611
-113.927
-102.944
-93.7099
-85.2315
-77.547
-70.6157
-64.3515
-58.6848
-53.5571
-48.9152
-44.7109
-40.9008
-37.4459
-34.311
-31.4645
-28.878
-26.5261
-24.386
-22.4373
-20.6614
-19.0419
-17.5639
-16.2143
-14.9809
-13.8533
-12.822
-11.877
-11.0096
-10.2268
-128.777
-114.096
-103.114
-93.8756
-85.3903
-77.6979
-70.7588
-64.4872
-58.8137
-53.6799
-49.0325
-44.8234
-41.009
-37.5502
-34.4118
-31.5621
-28.9727
-26.6182
-24.4756
-22.5246
-20.7466
-19.1251
-17.6452
-16.2937
-15.0585
-13.9292
-12.8961
-11.9493
-11.0797
-10.2966
-128.951
-114.269
-103.284
-94.0405
-85.5481
-77.8478
-70.9009
-64.622
-58.9419
-53.8021
-49.1494
-44.9355
-41.1169
-37.6544
-34.5125
-31.6598
-29.0676
-26.7105
-24.5655
-22.6122
-20.8321
-19.2087
-17.727
-16.3736
-15.1367
-14.0057
-12.9709
-12.0222
-11.1505
-10.3673
-129.13
-114.445
-103.455
-94.2053
-85.7052
-77.9969
-71.0422
-64.756
-59.0693
-53.9237
-49.2658
-45.0473
-41.2246
-37.7583
-34.6132
-31.7574
-29.1625
-26.8029
-24.6556
-22.7002
-20.9181
-19.2928
-17.8092
-16.4542
-15.2156
-14.0829
-13.0464
-12.0958
-11.222
-10.4388
-129.311
-114.622
-103.627
-94.37
-85.8618
-78.1452
-71.1827
-64.8893
-59.1961
-54.0447
-49.3816
-45.1586
-41.3319
-37.8621
-34.7138
-31.8551
-29.2575
-26.8955
-24.746
-22.7885
-21.0044
-19.3773
-17.892
-16.5353
-15.295
-14.1607
-13.1226
-12.1701
-11.2944
-10.5112
-129.494
-114.802
-103.799
-94.5346
-86.0179
-78.293
-71.3224
-65.0218
-59.3221
-54.165
-49.497
-45.2695
-41.4389
-37.9656
-34.8142
-31.9527
-29.3526
-26.9882
-24.8366
-22.8771
-21.0911
-19.4622
-17.9753
-16.6169
-15.3751
-14.2392
-13.1996
-12.2453
-11.3676
-10.5846
-129.679
-114.981
-103.972
-94.6991
-86.1736
-78.44
-71.4614
-65.1535
-59.4474
-54.2846
-49.6117
-45.3799
-41.5455
-38.0689
-34.9144
-32.0502
-29.4477
-27.081
-24.9273
-22.9659
-21.1782
-19.5476
-18.0591
-16.6992
-15.4558
-14.3185
-13.2773
-12.3213
-11.4417
-10.659
-129.864
-115.162
-104.145
-94.8632
-86.3286
-78.5862
-71.5996
-65.2844
-59.5719
-54.4035
-49.7257
-45.4898
-41.6517
-38.1717
-35.0144
-32.1476
-29.5426
-27.1739
-25.0182
-23.0549
-21.2655
-19.6333
-18.1433
-16.782
-15.5373
-14.3985
-13.3559
-12.3981
-11.5167
-10.7344
-130.049
-115.342
-104.318
-95.0269
-86.4829
-78.7316
-71.7368
-65.4143
-59.6955
-54.5216
-49.8391
-45.599
-41.7572
-38.2742
-35.114
-32.2447
-29.6375
-27.2667
-25.1091
-23.1441
-21.3532
-19.7195
-18.2281
-16.8654
-15.6193
-14.4792
-13.4353
-12.4759
-11.5927
-10.811
-130.235
-115.522
-104.49
-95.1898
-86.6364
-78.876
-71.873
-65.5433
-59.8181
-54.6388
-49.9515
-45.7074
-41.8622
-38.376
-35.2132
-32.3414
-29.7321
-27.3593
-25.2
-23.2334
-21.4409
-19.8059
-18.3132
-16.9493
-15.702
-14.5607
-13.5155
-12.5545
-11.6697
-10.8888
-130.419
-115.702
-104.661
-95.3518
-86.7888
-79.0193
-72.008
-65.671
-59.9396
-54.7549
-50.063
-45.8149
-41.9663
-38.4772
-35.3117
-32.4377
-29.8263
-27.4517
-25.2907
-23.3226
-21.5288
-19.8925
-18.3986
-17.0336
-15.7853
-14.6429
-13.5965
-12.6341
-11.7478
-10.9677
-130.604
-115.88
-104.832
-95.5127
-86.94
-79.1613
-72.1417
-65.7975
-60.0598
-54.8697
-50.1733
-45.9214
-42.0694
-38.5775
-35.4095
-32.5333
-29.92
-27.5437
-25.3812
-23.4117
-21.6167
-19.9792
-18.4843
-17.1183
-15.869
-14.7257
-13.6784
-12.7146
-11.8268
-11.0478
-130.787
-116.058
-105.001
-95.6725
-87.0898
-79.3019
-72.274
-65.9225
-60.1786
-54.9832
-50.2823
-46.0266
-42.1714
-38.6767
-35.5064
-32.6281
-30.013
-27.6351
-25.4712
-23.5005
-21.7043
-20.0659
-18.5701
-17.2033
-15.9532
-14.8092
-13.7609
-12.796
-11.907
-11.1292
-130.969
-116.235
-105.17
-95.8308
-87.2381
-79.4408
-72.4046
-66.0458
-60.2957
-55.0951
-50.3898
-46.1304
-42.2721
-38.7747
-35.6021
-32.7219
-30.105
-27.7257
-25.5605
-23.5887
-21.7916
-20.1524
-18.6559
-17.2884
-16.0378
-14.8931
-13.8442
-12.8783
-11.9882
-11.2119
-131.151
-116.411
-105.337
-95.9877
-87.3848
-79.578
-72.5334
-66.1673
-60.4111
-55.2053
-50.4956
-46.2325
-42.3711
-38.8712
-35.6964
-32.8143
-30.1959
-27.8152
-25.6489
-23.6761
-21.8782
-20.2384
-18.7413
-17.3734
-16.1224
-14.9774
-13.9281
-12.9614
-12.0705
-11.2958
-131.332
-116.586
-105.502
-96.1429
-87.5296
-79.7133
-72.6602
-66.2868
-60.5244
-55.3134
-50.5995
-46.3328
-42.4684
-38.9659
-35.789
-32.9052
-30.2853
-27.9033
-25.736
-23.7625
-21.9639
-20.3236
-18.8262
-17.4581
-16.2069
-15.0618
-14.0123
-13.0451
-12.1536
-11.3809
-131.512
-116.759
-105.666
-96.2963
-87.6724
-79.8464
-72.7847
-66.4041
-60.6355
-55.4194
-50.7011
-46.4309
-42.5636
-39.0586
-35.8797
-32.9942
-30.3729
-27.9898
-25.8216
-23.8473
-22.0483
-20.4077
-18.9102
-17.5421
-16.291
-15.1461
-14.0967
-13.1293
-12.2376
-11.4672
-131.691
-116.931
-105.829
-96.4479
-87.8132
-79.9773
-72.907
-66.5189
-60.7441
-55.5228
-50.8004
-46.5266
-42.6563
-39.149
-35.9681
-33.0809
-30.4583
-28.0741
-25.9051
-23.9303
-22.131
-20.4902
-18.9928
-17.625
-16.3743
-15.2298
-14.1809
-13.2137
-12.3221
-11.5545
-131.87
-117.103
-105.99
-96.5975
-87.9516
-80.1057
-73.0266
-66.6311
-60.85
-55.6236
-50.8969
-46.6196
-42.7464
-39.2367
-36.0538
-33.165
-30.5411
-28.156
-25.9862
-24.0109
-22.2114
-20.5707
-19.0735
-17.7062
-16.4562
-15.3126
-14.2645
-13.2979
-12.4069
-11.6425
-132.049
-117.273
-106.149
-96.7451
-88.0877
-80.2314
-73.1434
-66.7403
-60.953
-55.7215
-50.9904
-46.7096
-42.8336
-39.3214
-36.1365
-33.2461
-30.6209
-28.2348
-26.0643
-24.0886
-22.2889
-20.6484
-19.1517
-17.7851
-16.536
-15.3936
-14.3468
-13.3813
-12.4914
-11.7307
-132.23
-117.443
-106.307
-96.8905
-88.2211
-80.3542
-73.2571
-66.8465
-61.0529
-55.8161
-51.0808
-46.7964
-42.9175
-39.4029
-36.2159
-33.3238
-30.6972
-28.31
-26.1388
-24.1627
-22.3629
-20.7226
-19.2264
-17.8607
-16.613
-15.4722
-14.4272
-13.4634
-12.5753
-11.8189
-132.413
-117.612
-106.464
-97.0335
-88.3516
-80.4738
-73.3676
-66.9493
-61.1493
-55.9073
-51.1677
-46.8798
-42.9978
-39.4807
-36.2916
-33.3977
-30.7697
-28.3813
-26.2092
-24.2325
-22.4325
-20.7923
-19.2968
-17.9321
-16.6859
-15.547
-14.5044
-13.543
-12.6576
-11.907
-132.597
-117.78
-106.618
-97.174
-88.4792
-80.5902
-73.4746
-67.0486
-61.2423
-55.9951
-51.2511
-46.9596
-43.0746
-39.5548
-36.3635
-33.4676
-30.8379
-28.4481
-26.2748
-24.2973
-22.4969
-20.8566
-19.3615
-17.9978
-16.7531
-15.6164
-14.5766
-13.6183
-12.7369
-11.9937
-132.785
-117.947
-106.769
-97.3117
-88.6034
-80.7028
-73.5778
-67.144
-61.3314
-56.079
-51.3308
-47.0356
-43.1474
-39.625
-36.4312
-33.5332
-30.9015
-28.51
-26.3353
-24.3566
-22.5552
-20.9145
-19.4194
-18.0563
-16.8129
-15.6783
-14.6413
-13.6866
-12.8101
-12.0739
-132.984
-118.116
-106.919
-97.4456
-88.7231
-80.8106
-73.676
-67.2347
-61.416
-56.1586
-51.4062
-47.1075
-43.2162
-39.6909
-36.4946
-33.5942
-30.9603
-28.5667
-26.3901
-24.4096
-22.6068
-20.965
-19.4693
-18.1063
-16.8637
-15.731
-14.6971
-13.7465
-12.8749
-12.1443
-133.213
-118.294
-107.065
-97.5735
-88.8364
-80.9122
-73.7685
-67.3201
-61.4957
-56.2336
-51.4773
-47.1751
-43.2808
-39.7526
-36.5536
-33.6506
-31.0141
-28.618
-26.4389
-24.456
-22.6508
-21.0069
-19.5095
-18.1454
-16.903
-15.7722
-14.7421
-13.7968
-12.9328
-12.2191
-133.474
-118.479
-107.206
-97.6931
-88.9431
-81.0086
-73.8566
-67.4016
-61.5717
-56.3051
-51.5449
-47.2393
-43.3419
-39.8108
-36.6089
-33.703
-31.0636
-28.6645
-26.4821
-24.4958
-22.6871
-21.0394
-19.538
-18.1701
-16.9246
-15.7921
-14.7618
-13.82
-12.9738
-12.308
-133.686
-118.641
-107.336
-97.8066
-89.0469
-81.104
-73.9444
-67.4828
-61.6475
-56.3762
-51.6119
-47.3027
-43.4018
-39.8675
-36.6625
-33.7534
-31.1106
-28.7079
-26.5217
-24.5312
-22.7176
-21.0643
-19.5563
-18.1804
-16.9251
-15.7801
-14.7334
-13.7768
-12.9373
-12.2946
-135.18
-135.177
-135.138
-135.111
-135.096
-135.082
-135.064
-135.041
-135.014
-134.982
-134.945
-134.904
-134.857
-134.806
-134.749
-134.688
-134.623
-134.553
-134.48
-134.403
-134.324
-134.242
-134.158
-134.073
-133.988
-133.906
-133.828
-133.761
-133.712
-133.694
-120.055
-120.082
-120.089
-120.093
-120.098
-120.097
-120.091
-120.077
-120.059
-120.034
-120.004
-119.969
-119.928
-119.883
-119.832
-119.777
-119.717
-119.653
-119.585
-119.514
-119.44
-119.363
-119.284
-119.203
-119.122
-119.042
-118.964
-118.889
-118.818
-118.742
-108.583
-108.629
-108.662
-108.685
-108.701
-108.71
-108.712
-108.707
-108.696
-108.679
-108.657
-108.629
-108.596
-108.557
-108.514
-108.466
-108.413
-108.356
-108.296
-108.232
-108.164
-108.094
-108.021
-107.946
-107.87
-107.792
-107.714
-107.632
-107.547
-107.45
-98.8759
-98.9278
-98.9705
-99.003
-99.0264
-99.042
-99.0508
-99.0531
-99.0489
-99.0387
-99.0232
-99.0021
-98.9755
-98.9437
-98.9071
-98.8659
-98.8204
-98.7706
-98.717
-98.6598
-98.5993
-98.5356
-98.4691
-98.4
-98.3284
-98.2542
-98.177
-98.0958
-98.009
-97.9141
-89.9664
-90.0195
-90.0656
-90.103
-90.1313
-90.1517
-90.1655
-90.1726
-90.1732
-90.1682
-90.1578
-90.1418
-90.1203
-90.0939
-90.0628
-90.0272
-89.9873
-89.9434
-89.8957
-89.8444
-89.7897
-89.7318
-89.6709
-89.6071
-89.5403
-89.4704
-89.3969
-89.3193
-89.2364
-89.1471
-81.9125
-81.9649
-82.0119
-82.0512
-82.082
-82.105
-82.1215
-82.1313
-82.1348
-82.133
-82.1259
-82.1131
-82.0952
-82.0725
-82.0452
-82.0136
-81.9779
-81.9383
-81.895
-81.8483
-81.7982
-81.745
-81.6887
-81.6295
-81.5671
-81.5015
-81.4323
-81.3591
-81.281
-81.1972
-74.6782
-74.729
-74.775
-74.8142
-74.8453
-74.8689
-74.8863
-74.8972
-74.902
-74.9018
-74.8962
-74.8852
-74.8693
-74.8489
-74.824
-74.7951
-74.7621
-74.7255
-74.6853
-74.6418
-74.5951
-74.5454
-74.4928
-74.4372
-74.3786
-74.3168
-74.2516
-74.1827
-74.1092
-74.0309
-68.1715
-68.2199
-68.2639
-68.3015
-68.3315
-68.3546
-68.3715
-68.3822
-68.3872
-68.3873
-68.3821
-68.3718
-68.3568
-68.3374
-68.3138
-68.2863
-68.2549
-68.2201
-68.1819
-68.1406
-68.0963
-68.0491
-67.9992
-67.9465
-67.8909
-67.8325
-67.7708
-67.7057
-67.6366
-67.5632
-62.3133
-62.3589
-62.4002
-62.4354
-62.4636
-62.4852
-62.5008
-62.5105
-62.5149
-62.5144
-62.5089
-62.4984
-62.4834
-62.4642
-62.441
-62.414
-62.3834
-62.3495
-62.3125
-62.2725
-62.2298
-62.1844
-62.1364
-62.0859
-62.0328
-61.9771
-61.9185
-61.8568
-61.7915
-61.7226
-57.0346
-57.077
-57.1154
-57.1479
-57.1738
-57.1935
-57.2074
-57.2155
-57.2188
-57.2173
-57.2107
-57.1995
-57.184
-57.1644
-57.141
-57.1139
-57.0835
-57.0499
-57.0134
-56.9741
-56.9323
-56.8881
-56.8415
-56.7927
-56.7416
-56.6882
-56.6322
-56.5736
-56.5117
-56.4467
-52.2726
-52.312
-52.3474
-52.377
-52.4005
-52.4181
-52.4299
-52.4363
-52.4382
-52.4352
-52.4274
-52.4151
-52.3987
-52.3783
-52.3543
-52.3268
-52.2961
-52.2624
-52.226
-52.187
-52.1457
-52.1022
-52.0567
-52.0091
-51.9597
-51.9082
-51.8545
-51.7986
-51.7399
-51.6784
-47.9715
-48.0079
-48.0403
-48.0672
-48.0882
-48.1035
-48.1133
-48.118
-48.1182
-48.1136
-48.1043
-48.0908
-48.0732
-48.0519
-48.027
-47.9989
-47.9676
-47.9335
-47.8969
-47.8579
-47.8168
-47.7738
-47.729
-47.6825
-47.6344
-47.5846
-47.5331
-47.4796
-47.4237
-47.3654
-44.0816
-44.1152
-44.1448
-44.1691
-44.1876
-44.2007
-44.2085
-44.2114
-44.2099
-44.2037
-44.1929
-44.1781
-44.1593
-44.1369
-44.1111
-44.082
-44.0501
-44.0154
-43.9784
-43.9392
-43.8981
-43.8554
-43.8111
-43.7655
-43.7185
-43.6703
-43.6207
-43.5696
-43.5164
-43.4611
-40.5591
-40.5902
-40.6172
-40.639
-40.6552
-40.6663
-40.6721
-40.6732
-40.67
-40.6623
-40.6501
-40.6339
-40.6139
-40.5904
-40.5635
-40.5335
-40.5008
-40.4655
-40.4279
-40.3884
-40.3472
-40.3045
-40.2606
-40.2157
-40.1698
-40.123
-40.0753
-40.0264
-39.9758
-39.9235
-37.3656
-37.3943
-37.4189
-37.4384
-37.4526
-37.4616
-37.4657
-37.4652
-37.4604
-37.4511
-37.4375
-37.42
-37.3988
-37.3741
-37.3462
-37.3153
-37.2817
-37.2456
-37.2075
-37.1675
-37.126
-37.0834
-37.0397
-36.9954
-36.9505
-36.9051
-36.8591
-36.8124
-36.7645
-36.7151
-34.4671
-34.4936
-34.516
-34.5335
-34.5457
-34.5529
-34.5553
-34.5533
-34.547
-34.5362
-34.5213
-34.5026
-34.4803
-34.4545
-34.4255
-34.3936
-34.3591
-34.3223
-34.2835
-34.243
-34.2012
-34.1584
-34.1149
-34.071
-34.027
-33.9829
-33.9387
-33.8942
-33.849
-33.8027
-31.8336
-31.8582
-31.8786
-31.8941
-31.9046
-31.9101
-31.9109
-31.9076
-31.8998
-31.8877
-31.8716
-31.8517
-31.8283
-31.8014
-31.7715
-31.7386
-31.7032
-31.6656
-31.6261
-31.585
-31.5427
-31.4997
-31.4563
-31.4128
-31.3695
-31.3266
-31.2842
-31.242
-31.1996
-31.1564
-29.4386
-29.4614
-29.48
-29.4938
-29.5027
-29.5066
-29.5061
-29.5015
-29.4924
-29.4791
-29.4618
-29.4409
-29.4163
-29.3885
-29.3575
-29.3238
-29.2875
-29.2491
-29.2088
-29.167
-29.1242
-29.0809
-29.0373
-28.9941
-28.9514
-28.9097
-28.869
-28.8292
-28.7897
-28.75
-27.2586
-27.2798
-27.2968
-27.309
-27.3165
-27.319
-27.3173
-27.3114
-27.3011
-27.2867
-27.2684
-27.2464
-27.2209
-27.1921
-27.1602
-27.1255
-27.0884
-27.0491
-27.008
-26.9655
-26.9221
-26.8782
-26.8345
-26.7913
-26.7492
-26.7085
-26.6695
-26.6321
-26.5958
-26.5597
-25.2728
-25.2925
-25.308
-25.3189
-25.325
-25.3263
-25.3234
-25.3164
-25.3051
-25.2896
-25.2703
-25.2474
-25.221
-25.1913
-25.1585
-25.1229
-25.0849
-25.0447
-25.0028
-24.9595
-24.9153
-24.8709
-24.8267
-24.7834
-24.7416
-24.7018
-24.6645
-24.6295
-24.5966
-24.5646
-23.4626
-23.4809
-23.4951
-23.5047
-23.5096
-23.5098
-23.5059
-23.4978
-23.4855
-23.4692
-23.449
-23.4252
-23.3979
-23.3673
-23.3337
-23.2973
-23.2584
-23.2174
-23.1745
-23.1303
-23.0853
-23.0401
-22.9953
-22.9516
-22.9099
-22.8708
-22.8349
-22.8025
-22.7732
-22.7458
-21.8114
-21.8285
-21.8415
-21.8499
-21.8537
-21.853
-21.8481
-21.8391
-21.8259
-21.8087
-21.7877
-21.7631
-21.735
-21.7037
-21.6692
-21.632
-21.5922
-21.5502
-21.5065
-21.4613
-21.4153
-21.3691
-21.3234
-21.2791
-21.2371
-21.1984
-21.1638
-21.1339
-21.1085
-21.0863
-20.3044
-20.3204
-20.3323
-20.3397
-20.3425
-20.3408
-20.3351
-20.3253
-20.3113
-20.2933
-20.2716
-20.2462
-20.2174
-20.1853
-20.15
-20.112
-20.0714
-20.0285
-19.9837
-19.9375
-19.8904
-19.843
-19.7962
-19.7509
-19.7082
-19.6694
-19.6358
-19.6082
-19.5871
-19.5708
-18.9283
-18.9433
-18.9542
-18.9606
-18.9626
-18.9601
-18.9536
-18.943
-18.9282
-18.9096
-18.8871
-18.8611
-18.8316
-18.7987
-18.7628
-18.7239
-18.6824
-18.6386
-18.5928
-18.5454
-18.4971
-18.4483
-18.4001
-18.3534
-18.3095
-18.2701
-18.2369
-18.2113
-18.1948
-18.1853
-17.6712
-17.6853
-17.6952
-17.7008
-17.7019
-17.6987
-17.6915
-17.6802
-17.6647
-17.6454
-17.6224
-17.5957
-17.5655
-17.532
-17.4953
-17.4557
-17.4133
-17.3685
-17.3217
-17.2731
-17.2233
-17.1731
-17.1231
-17.0745
-17.0289
-16.9881
-16.9545
-16.9303
-16.9186
-16.9171
-16.5222
-16.5355
-16.5446
-16.5493
-16.5496
-16.5457
-16.5378
-16.5258
-16.5098
-16.4898
-16.4662
-16.4389
-16.408
-16.3738
-16.3364
-16.296
-16.2528
-16.2071
-16.1591
-16.1092
-16.0579
-16.0059
-15.9538
-15.9029
-15.8548
-15.8116
-15.7765
-15.7527
-15.7455
-15.753
-15.4719
-15.4842
-15.4925
-15.4965
-15.496
-15.4915
-15.4829
-15.4702
-15.4535
-15.4329
-15.4086
-15.3806
-15.3491
-15.3142
-15.276
-15.2348
-15.1906
-15.1438
-15.0945
-15.0432
-14.9902
-14.936
-14.8815
-14.8277
-14.7761
-14.7293
-14.691
-14.6658
-14.662
-14.6783
-14.511
-14.5227
-14.5305
-14.5338
-14.5328
-14.5277
-14.5186
-14.5054
-14.4882
-14.4671
-14.4422
-14.4137
-14.3816
-14.346
-14.3071
-14.265
-14.22
-14.1721
-14.1216
-14.0688
-14.0139
-13.9576
-13.9003
-13.8431
-13.7873
-13.7355
-13.6918
-13.6632
-13.6619
-13.688
-13.6308
-13.6424
-13.65
-13.6533
-13.6523
-13.6472
-13.6381
-13.625
-13.6078
-13.5868
-13.562
-13.5336
-13.5016
-13.4661
-13.4272
-13.3851
-13.34
-13.2919
-13.241
-13.1876
-13.132
-13.0744
-13.0153
-12.9555
-12.8961
-12.8392
-12.7886
-12.7536
-12.753
-12.8035
-12.8257
-12.8355
-12.8414
-12.8432
-12.8408
-12.8346
-12.8245
-12.8104
-12.7925
-12.7709
-12.7457
-12.7169
-12.6847
-12.6491
-12.6102
-12.5681
-12.523
-12.475
-12.4241
-12.3707
-12.3148
-12.2566
-12.1964
-12.1348
-12.0721
-12.0099
-11.95
-11.9007
-11.878
-11.9581
-129.683
-129.921
-130.106
-130.32
-130.562
-130.81
-131.058
-131.304
-131.546
-131.785
-132.018
-132.245
-132.465
-132.678
-132.883
-133.08
-133.268
-133.448
-133.619
-133.781
-133.935
-134.081
-134.218
-134.348
-134.471
-134.588
-134.7
-134.812
-134.927
-135.054
-114.477
-114.754
-115.004
-115.259
-115.521
-115.781
-116.036
-116.286
-116.531
-116.77
-117.003
-117.23
-117.449
-117.661
-117.865
-118.061
-118.249
-118.428
-118.6
-118.763
-118.917
-119.064
-119.202
-119.333
-119.456
-119.573
-119.684
-119.791
-119.893
-119.984
-103.021
-103.313
-103.592
-103.862
-104.128
-104.388
-104.642
-104.89
-105.133
-105.369
-105.599
-105.822
-106.039
-106.248
-106.45
-106.643
-106.829
-107.007
-107.177
-107.339
-107.493
-107.639
-107.777
-107.907
-108.03
-108.145
-108.253
-108.354
-108.445
-108.523
-93.4219
-93.7092
-93.989
-94.259
-94.5206
-94.7757
-95.025
-95.2683
-95.5057
-95.7369
-95.9617
-96.1799
-96.3912
-96.5955
-96.7925
-96.982
-97.164
-97.3383
-97.5048
-97.6636
-97.8146
-97.9578
-98.0932
-98.2209
-98.3409
-98.4532
-98.5574
-98.653
-98.7391
-98.8143
-84.6822
-84.9578
-85.2294
-85.4931
-85.7483
-85.9967
-86.239
-86.4754
-86.7058
-86.9298
-87.1475
-87.3586
-87.563
-87.7606
-87.9511
-88.1344
-88.3105
-88.4792
-88.6404
-88.7942
-88.9405
-89.0792
-89.2103
-89.3338
-89.4497
-89.5578
-89.6579
-89.7496
-89.8322
-89.9054
-76.8339
-77.0973
-77.3585
-77.6134
-77.8605
-78.1005
-78.3344
-78.5624
-78.7843
-78.9999
-79.2093
-79.4122
-79.6086
-79.7982
-79.9811
-80.1571
-80.3261
-80.488
-80.6428
-80.7903
-80.9306
-81.0636
-81.1893
-81.3076
-81.4183
-81.5215
-81.617
-81.7044
-81.7833
-81.8535
-69.8214
-70.0732
-70.3236
-70.5685
-70.8062
-71.037
-71.2618
-71.4807
-71.6936
-71.9004
-72.101
-72.2953
-72.4832
-72.6646
-72.8394
-73.0076
-73.1689
-73.3235
-73.4711
-73.6118
-73.7455
-73.8722
-73.9918
-74.1042
-74.2093
-74.3072
-74.3975
-74.4803
-74.555
-74.6216
-63.5387
-63.7796
-64.0193
-64.2541
-64.482
-64.7036
-64.9192
-65.1291
-65.3331
-65.5311
-65.723
-65.9087
-66.0882
-66.2613
-66.4281
-66.5883
-66.7421
-66.8892
-67.0296
-67.1633
-67.2902
-67.4104
-67.5236
-67.63
-67.7294
-67.8217
-67.9068
-67.9847
-68.055
-68.1179
-57.8974
-58.1282
-58.3578
-58.5828
-58.8015
-59.014
-59.2209
-59.4221
-59.6176
-59.8071
-59.9907
-60.1682
-60.3396
-60.5048
-60.6638
-60.8164
-60.9627
-61.1025
-61.2359
-61.3628
-61.4831
-61.5969
-61.704
-61.8044
-61.898
-61.9849
-62.0649
-62.138
-62.204
-62.2629
-52.823
-53.0447
-53.265
-53.4809
-53.6909
-53.8951
-54.0937
-54.2868
-54.4742
-54.6559
-54.8316
-55.0014
-55.1652
-55.323
-55.4746
-55.6201
-55.7593
-55.8923
-56.0191
-56.1395
-56.2535
-56.3612
-56.4624
-56.5571
-56.6454
-56.7271
-56.8022
-56.8707
-56.9324
-56.9875
-48.2503
-48.4638
-48.6758
-48.8834
-49.0854
-49.2818
-49.4729
-49.6585
-49.8385
-50.0128
-50.1813
-50.344
-50.5007
-50.6516
-50.7964
-50.9352
-51.068
-51.1946
-51.3152
-51.4295
-51.5377
-51.6397
-51.7355
-51.825
-51.9082
-51.985
-52.0556
-52.1197
-52.1774
-52.2288
-44.1226
-44.3288
-44.5332
-44.7333
-44.9281
-45.1175
-45.3016
-45.4804
-45.6536
-45.8211
-45.983
-46.1391
-46.2894
-46.4339
-46.5725
-46.7052
-46.8319
-46.9528
-47.0676
-47.1764
-47.2793
-47.3761
-47.4668
-47.5514
-47.63
-47.7024
-47.7687
-47.8289
-47.8828
-47.9307
-40.3908
-40.5904
-40.788
-40.9814
-41.1697
-41.3527
-41.5305
-41.703
-41.87
-42.0314
-42.1872
-42.3373
-42.4817
-42.6203
-42.7532
-42.8803
-43.0016
-43.117
-43.2267
-43.3305
-43.4284
-43.5205
-43.6066
-43.6868
-43.7611
-43.8295
-43.8919
-43.9484
-43.9989
-44.0437
-37.0119
-37.2056
-37.3972
-37.5847
-37.7671
-37.9443
-38.1164
-38.2832
-38.4445
-38.6003
-38.7505
-38.8951
-39.0341
-39.1674
-39.295
-39.417
-39.5333
-39.6439
-39.7488
-39.848
-39.9415
-40.0292
-40.1112
-40.1875
-40.2579
-40.3226
-40.3815
-40.4347
-40.4821
-40.5239
-33.9488
-34.1373
-34.3235
-34.5056
-34.6828
-34.8548
-35.0217
-35.1832
-35.3394
-35.49
-35.6351
-35.7747
-35.9087
-36.0371
-36.16
-36.2773
-36.3891
-36.4952
-36.5958
-36.6908
-36.7803
-36.8641
-36.9423
-37.0149
-37.0819
-37.1432
-37.199
-37.2492
-37.2937
-37.3328
-31.1688
-31.3526
-31.5341
-31.7115
-31.8839
-32.0512
-32.2133
-32.3702
-32.5216
-32.6675
-32.8079
-32.9428
-33.0722
-33.1962
-33.3146
-33.4277
-33.5352
-33.6374
-33.734
-33.8252
-33.911
-33.9912
-34.066
-34.1353
-34.1992
-34.2575
-34.3104
-34.3578
-34.3998
-34.4365
-28.6432
-28.8229
-29.0002
-29.1733
-29.3415
-29.5046
-29.6624
-29.8149
-29.9619
-30.1034
-30.2395
-30.3701
-30.4953
-30.6151
-30.7295
-30.8386
-30.9424
-31.0408
-31.1338
-31.2216
-31.304
-31.381
-31.4527
-31.519
-31.58
-31.6356
-31.6859
-31.7309
-31.7705
-31.805
-26.3467
-26.5228
-26.6964
-26.8658
-27.0302
-27.1894
-27.3433
-27.4917
-27.6346
-27.7721
-27.9041
-28.0307
-28.152
-28.268
-28.3787
-28.4841
-28.5843
-28.6793
-28.7691
-28.8537
-28.933
-29.0071
-29.0759
-29.1396
-29.198
-29.2511
-29.299
-29.3418
-29.3793
-29.4118
-24.2569
-24.4298
-24.6002
-24.7664
-24.9274
-25.0831
-25.2333
-25.378
-25.5171
-25.6507
-25.7789
-25.9018
-26.0194
-26.1318
-26.239
-26.3411
-26.438
-26.5299
-26.6167
-26.6983
-26.7748
-26.8462
-26.9125
-26.9737
-27.0297
-27.0806
-27.1264
-27.1672
-27.2028
-27.2335
-22.3538
-22.5239
-22.6916
-22.8551
-23.0131
-23.1656
-23.3123
-23.4534
-23.5889
-23.7189
-23.8435
-23.9628
-24.077
-24.186
-24.29
-24.389
-24.4829
-24.5719
-24.6559
-24.7348
-24.8088
-24.8778
-24.9417
-25.0006
-25.0545
-25.1034
-25.1473
-25.1862
-25.2201
-25.2492
-20.6195
-20.7873
-20.9529
-21.1141
-21.2694
-21.4188
-21.5623
-21.7
-21.832
-21.9585
-22.0797
-22.1957
-22.3066
-22.4125
-22.5135
-22.6096
-22.7007
-22.787
-22.8684
-22.9449
-23.0165
-23.0833
-23.1451
-23.202
-23.2539
-23.301
-23.3431
-23.3804
-23.4127
-23.4403
-19.0379
-19.2039
-19.3681
-19.5274
-19.6804
-19.8269
-19.9672
-20.1016
-20.2302
-20.3534
-20.4713
-20.5841
-20.692
-20.7949
-20.8931
-20.9865
-21.0751
-21.1589
-21.2379
-21.3122
-21.3817
-21.4464
-21.5062
-21.5613
-21.6115
-21.6568
-21.6974
-21.7332
-21.7641
-21.7903
-17.5944
-17.7592
-17.923
-18.0809
-18.2316
-18.3752
-18.5125
-18.6436
-18.7689
-18.8889
-19.0037
-19.1135
-19.2184
-19.3187
-19.4142
-19.5051
-19.5913
-19.6729
-19.7498
-19.822
-19.8895
-19.9523
-20.0104
-20.0638
-20.1124
-20.1563
-20.1954
-20.2298
-20.2594
-20.2844
-16.2756
-16.4402
-16.6046
-16.7617
-16.9101
-17.0509
-17.1851
-17.3129
-17.4351
-17.5519
-17.6637
-17.7707
-17.873
-17.9707
-18.0638
-18.1524
-18.2364
-18.3159
-18.3909
-18.4612
-18.5269
-18.5881
-18.6445
-18.6964
-18.7435
-18.786
-18.8238
-18.8569
-18.8854
-18.9093
-15.0695
-15.2352
-15.4017
-15.5583
-15.7044
-15.8423
-15.9733
-16.098
-16.217
-16.3308
-16.4398
-16.5442
-16.644
-16.7393
-16.8302
-16.9167
-16.9988
-17.0764
-17.1495
-17.2181
-17.2822
-17.3418
-17.3967
-17.4472
-17.493
-17.5342
-17.5708
-17.6028
-17.6302
-17.6531
-13.9648
-14.135
-14.3054
-14.4612
-14.6047
-14.7397
-14.8675
-14.989
-15.1049
-15.2159
-15.3222
-15.4241
-15.5215
-15.6147
-15.7035
-15.788
-15.8682
-15.944
-16.0154
-16.0824
-16.145
-16.2031
-16.2566
-16.3057
-16.3503
-16.3903
-16.4258
-16.4567
-16.4831
-16.5051
-12.9458
-13.129
-13.3066
-13.4612
-13.6015
-13.7333
-13.8578
-13.9761
-14.0891
-14.1973
-14.3012
-14.4007
-14.496
-14.5871
-14.674
-14.7567
-14.8351
-14.9092
-14.979
-15.0445
-15.1056
-15.1623
-15.2146
-15.2624
-15.3058
-15.3447
-15.3791
-15.4091
-15.4345
-15.4555
-11.986
-12.1948
-12.3875
-12.5416
-12.6786
-12.8073
-12.9288
-13.0442
-13.1546
-13.2606
-13.3624
-13.4601
-13.5536
-13.6431
-13.7285
-13.8097
-13.8868
-13.9596
-14.0282
-14.0926
-14.1526
-14.2083
-14.2596
-14.3066
-14.3491
-14.3872
-14.4208
-14.4501
-14.4748
-14.4952
-11.0815
-11.3201
-11.5347
-11.6927
-11.8273
-11.9528
-12.0715
-12.1844
-12.2925
-12.3966
-12.4967
-12.5928
-12.685
-12.7732
-12.8574
-12.9376
-13.0136
-13.0856
-13.1533
-13.2169
-13.2762
-13.3313
-13.382
-13.4285
-13.4705
-13.5082
-13.5415
-13.5704
-13.595
-13.6152
-10.3935
-10.6443
-10.8452
-11.0023
-11.131
-11.2473
-11.3586
-11.4653
-11.5676
-11.6662
-11.7611
-11.8524
-11.9398
-12.0234
-12.1032
-12.179
-12.2509
-12.3188
-12.3827
-12.4425
-12.4982
-12.5498
-12.5973
-12.6406
-12.6797
-12.7146
-12.7453
-12.7717
-12.794
-12.812
-5.93027
-6.63733
-7.41846
-8.27397
-9.21195
-10.241
-11.3697
-12.6077
-13.9658
-15.4559
-17.0914
-18.8873
-20.8602
-23.0288
-25.4139
-28.039
-30.9306
-34.1188
-37.6377
-41.5268
-45.8316
-50.6048
-55.9084
-61.8145
-68.4121
-75.813
-84.0877
-93.2292
-104.264
-119.128
-6.06233
-6.77234
-7.55422
-8.41101
-9.35067
-10.3815
-11.5122
-12.7524
-14.1128
-15.6055
-17.2439
-19.0429
-21.0192
-23.1915
-25.5806
-28.2101
-31.1066
-34.3002
-37.8252
-41.7212
-46.0335
-50.8155
-56.1289
-62.0461
-68.6562
-76.071
-84.3603
-93.5132
-104.548
-119.396
-6.19704
-6.90998
-7.69266
-8.55084
-9.49227
-10.525
-11.6578
-12.9002
-14.2632
-15.7586
-17.4
-19.2022
-21.1821
-23.3582
-25.7515
-28.3857
-31.2873
-34.4866
-38.0179
-41.921
-46.2414
-51.0323
-56.3558
-62.2843
-68.9067
-76.3347
-84.6372
-93.7988
-104.826
-119.642
-6.33406
-7.04988
-7.83338
-8.69301
-9.63628
-10.671
-11.8059
-13.0507
-14.4162
-15.9145
-17.5589
-19.3644
-21.3479
-23.5279
-25.9256
-28.5645
-31.4714
-34.6765
-38.2143
-42.1246
-46.4531
-51.2532
-56.5869
-62.5266
-69.1612
-76.6018
-84.9166
-94.0883
-105.116
-119.916
-6.47318
-7.19183
-7.97619
-8.83734
-9.78252
-10.8193
-11.9564
-13.2036
-14.5717
-16.0728
-17.7203
-19.5292
-21.5164
-23.7004
-26.1025
-28.7462
-31.6584
-34.8694
-38.4137
-42.3313
-46.6679
-51.4771
-56.821
-62.772
-69.4187
-76.8719
-85.1995
-94.3832
-105.418
-120.213
-6.61427
-7.33569
-8.12095
-8.98371
-9.93087
-10.9697
-12.1091
-13.3587
-14.7295
-16.2335
-17.8842
-19.6966
-21.6874
-23.8756
-26.2821
-28.9307
-31.8482
-35.0651
-38.6161
-42.541
-46.8859
-51.7042
-57.0583
-63.0206
-69.6797
-77.1459
-85.4866
-94.6834
-105.728
-120.524
-6.75715
-7.4813
-8.2675
-9.13196
-10.0812
-11.1222
-12.2639
-13.516
-14.8896
-16.3965
-18.0505
-19.8663
-21.861
-24.0533
-26.4644
-29.1179
-32.0409
-35.2639
-38.8215
-42.7538
-47.107
-51.9346
-57.2991
-63.2729
-69.9445
-77.4241
-85.7785
-94.9885
-106.044
-120.843
-6.90167
-7.62849
-8.41567
-9.28192
-10.2333
-11.2766
-12.4206
-13.6754
-15.0517
-16.5617
-18.2189
-20.0384
-22.037
-24.2335
-26.6491
-29.3078
-32.2363
-35.4654
-39.0298
-42.9697
-47.3313
-52.1683
-57.5433
-63.5288
-70.2132
-77.7065
-86.0749
-95.2984
-106.366
-121.17
-7.04767
-7.77709
-8.56531
-9.43344
-10.387
-11.4326
-12.5791
-13.8365
-15.2157
-16.7288
-18.3894
-20.2125
-22.2151
-24.4159
-26.8362
-29.5
-32.4342
-35.6694
-39.2408
-43.1883
-47.5585
-52.4051
-57.7908
-63.7881
-70.4856
-77.9928
-86.3756
-95.6131
-106.692
-121.503
-7.19502
-7.92698
-8.71627
-9.58637
-10.5423
-11.5902
-12.7393
-13.9994
-15.3815
-16.8978
-18.5618
-20.3886
-22.3952
-24.6004
-27.0255
-29.6945
-32.6344
-35.8759
-39.4542
-43.4096
-47.7884
-52.6448
-58.0413
-64.0508
-70.7615
-78.2829
-86.6803
-95.9321
-107.024
-121.842
-7.34358
-8.07801
-8.86841
-9.74059
-10.6989
-11.7493
-12.901
-14.1638
-15.549
-17.0685
-18.736
-20.5666
-22.5772
-24.7868
-27.2168
-29.891
-32.8367
-36.0847
-39.6701
-43.6333
-48.021
-52.8872
-58.2948
-64.3165
-71.0406
-78.5765
-86.9889
-96.2553
-107.36
-122.186
-7.49325
-8.23008
-9.02163
-9.89598
-10.8567
-11.9097
-13.064
-14.3298
-15.7179
-17.2407
-18.9118
-20.7462
-22.761
-24.9751
-27.4099
-30.0895
-33.0411
-36.2956
-39.8882
-43.8594
-48.256
-53.1322
-58.5509
-64.585
-71.3228
-78.8734
-87.301
-96.5821
-107.7
-122.535
-7.64393
-8.38308
-9.17583
-10.0525
-11.0158
-12.0714
-13.2284
-14.497
-15.8883
-17.4145
-19.0891
-20.9274
-22.9463
-25.165
-27.6048
-30.2898
-33.2473
-36.5083
-40.1082
-44.0876
-48.4931
-53.3795
-58.8095
-64.8562
-71.6078
-79.1733
-87.6162
-96.9123
-108.043
-122.887
-7.79556
-8.53694
-9.33094
-10.2099
-11.1759
-12.2342
-13.394
-14.6656
-16.06
-17.5895
-19.2678
-21.11
-23.1332
-25.3564
-27.8012
-30.4916
-33.4552
-36.7228
-40.33
-44.3175
-48.7323
-53.6289
-59.0704
-65.1298
-71.8954
-79.4758
-87.9342
-97.2454
-108.389
-123.242
-7.94808
-8.69163
-9.4869
-10.3684
-11.3371
-12.3981
-13.5607
-14.8353
-16.2329
-17.7659
-19.4478
-21.2939
-23.3213
-25.5492
-27.999
-30.6949
-33.6645
-36.9388
-40.5535
-44.5492
-48.9733
-53.8802
-59.3332
-65.4055
-72.1852
-79.7807
-88.2548
-97.581
-108.738
-123.6
-8.10152
-8.84712
-9.64371
-10.5278
-11.4993
-12.5631
-13.7286
-15.0062
-16.407
-17.9433
-19.6289
-21.479
-23.5107
-25.7432
-28.198
-30.8995
-33.8751
-37.1561
-40.7783
-44.7824
-49.2158
-54.1331
-59.5978
-65.683
-72.4769
-80.0877
-88.5774
-97.9189
-109.089
-123.96
-8.2559
-9.00347
-9.80139
-10.6881
-11.6625
-12.7291
-13.8975
-15.1781
-16.5821
-18.1219
-19.8111
-21.6651
-23.7011
-25.9382
-28.3981
-31.1051
-34.0869
-37.3747
-41.0043
-45.0168
-49.4595
-54.3874
-59.8639
-65.9621
-72.7703
-80.3964
-88.902
-98.2587
-109.442
-124.322
-8.41135
-9.16077
-9.96
-10.8494
-11.8267
-12.8961
-14.0674
-15.351
-16.7583
-18.3014
-19.9942
-21.8522
-23.8924
-26.1341
-28.5991
-31.3116
-34.2995
-37.5941
-41.2312
-45.2521
-49.7043
-54.6428
-60.1311
-66.2425
-73.0651
-80.7067
-89.228
-98.6
-109.796
-124.685
-8.56803
-9.31915
-10.1197
-11.0118
-11.992
-13.0642
-14.2383
-15.5249
-16.9353
-18.4817
-20.1782
-22.04
-24.0844
-26.3307
-28.8007
-31.5187
-34.5127
-37.814
-41.4588
-45.4882
-49.9499
-54.899
-60.3992
-66.5239
-73.361
-81.018
-89.5553
-98.9426
-110.152
-125.05
-8.72623
-9.47885
-10.2805
-11.1754
-12.1584
-13.2333
-14.4102
-15.6997
-17.1131
-18.6628
-20.3628
-22.2284
-24.2769
-26.5278
-29.0027
-31.7263
-34.7264
-38.0344
-41.6868
-45.7247
-50.1959
-55.1557
-60.6679
-66.8059
-73.6576
-81.3302
-89.8835
-99.2861
-110.509