/*--------------------------------*- C++ -*----------------------------------*\
  =========                 |
  \\      /  F ield         | OpenFOAM: The Open Source CFD Toolbox
   \\    /   O peration     | Website:  https://openfoam.org
    \\  /    A nd           | Version:  6.0
     \\/     M anipulation  |
\*---------------------------------------------------------------------------*/
FoamFile
{
    version     2.0;
    format      ascii;
    class       surfaceScalarField;
    location    "4.75";
    object      phi;
}
// * * * * * * * * * * * * * * * * * * * * * * * * * * * * * * * * * * * * * //

dimensions      [0 3 -1 0 0 0 0];

internalField   nonuniform List<scalar> 
38030
(
-2.22745e-05
-0.324752
0.324774
4.51423e-05
-0.311528
0.31146
0.00016768
-0.299525
0.299403
0.000320828
-0.288352
0.288199
0.000491415
-0.277845
0.277675
0.0006693
-0.267826
0.267648
0.00084713
-0.258189
0.258011
0.00102032
-0.248882
0.248709
0.00118637
-0.239883
0.239716
0.00134426
-0.231181
0.231023
0.0014939
-0.222774
0.222624
0.00163574
-0.214661
0.21452
0.00177058
-0.206842
0.206707
0.00189927
-0.199312
0.199183
0.00202269
-0.192066
0.191943
0.0021416
-0.185099
0.18498
0.0022567
-0.178402
0.178287
0.0023686
-0.171967
0.171855
0.00247785
-0.165784
0.165675
0.00258502
-0.159846
0.159739
0.00269075
-0.154143
0.154037
0.00279572
-0.148665
0.14856
0.00290074
-0.143401
0.143296
0.00300661
-0.138342
0.138236
0.00311412
-0.133476
0.133368
0.003224
-0.12879
0.12868
0.00333666
-0.12427
0.124158
0.0034519
-0.119904
0.119789
0.00356872
-0.115678
0.115561
-0.111581
0.111465
0.00368522
-2.99696e-06
-0.324749
6.54686e-05
-0.311596
0.000186888
-0.299647
0.000339328
-0.288505
0.000508855
-0.278015
0.000685512
-0.268003
0.000862118
-0.258365
0.00103409
-0.249054
0.00119893
-0.240047
0.00135565
-0.231337
0.00150419
-0.222922
0.00164506
-0.214802
0.00177905
-0.206976
0.00190705
-0.19944
0.00202994
-0.192189
0.00214848
-0.185217
0.00226336
-0.178517
0.00237517
-0.172078
0.00248444
-0.165894
0.00259172
-0.159954
0.0026976
-0.154249
0.00280281
-0.14877
0.00290813
-0.143507
0.00301441
-0.138449
0.00312247
-0.133584
0.00323312
-0.1289
0.00334694
-0.124384
0.00346391
-0.120021
0.00358317
-0.115798
-0.111701
0.003703
1.50801e-05
-0.324764
8.50379e-05
-0.311666
0.000204383
-0.299766
0.000355864
-0.288656
0.000524766
-0.278184
0.000700622
-0.268179
0.00087625
-0.258541
0.00104713
-0.249225
0.00121084
-0.240211
0.00136642
-0.231493
0.00151387
-0.22307
0.00165375
-0.214942
0.00178689
-0.207109
0.0019142
-0.199567
0.00203656
-0.192312
0.00215474
-0.185336
0.00226941
-0.178631
0.00238115
-0.17219
0.00249046
-0.166003
0.00259786
-0.160061
0.00270395
-0.154355
0.0028094
-0.148875
0.00291506
-0.143612
0.00302174
-0.138555
0.00313044
-0.133693
0.00324187
-0.129012
0.00335686
-0.124499
0.00347552
-0.12014
0.00359722
-0.115919
-0.111824
0.0037204
2.0852e-05
-0.324785
9.63553e-05
-0.311741
0.000217662
-0.299887
0.00036981
-0.288809
0.000538843
-0.278353
0.000714353
-0.268354
0.000889266
-0.258716
0.0010592
-0.249395
0.00122185
-0.240374
0.00137633
-0.231647
0.00152272
-0.223216
0.00166162
-0.215081
0.00179392
-0.207241
0.00192053
-0.199694
0.00204236
-0.192433
0.00216018
-0.185453
0.00227466
-0.178746
0.00238635
-0.172302
0.00249574
-0.166112
0.00260331
-0.160169
0.00270962
-0.154461
0.00281535
-0.148981
0.00292134
-0.143718
0.00302851
-0.138662
0.00313779
-0.133802
0.00325012
-0.129124
0.00336626
-0.124615
0.00348665
-0.12026
0.0036108
-0.116043
-0.111951
0.00373736
2.55705e-05
-0.32481
0.000105303
-0.311821
0.000228817
-0.300011
0.000381978
-0.288962
0.000551397
-0.278522
0.000726781
-0.268529
0.000901144
-0.25889
0.00107024
-0.249564
0.00123187
-0.240535
0.00138528
-0.231801
0.00153062
-0.223362
0.00166855
-0.215219
0.00179999
-0.207373
0.0019259
-0.19982
0.00204719
-0.192555
0.00216466
-0.185571
0.00227895
-0.17886
0.00239061
-0.172413
0.00250009
-0.166222
0.00260786
-0.160276
0.00271444
-0.154568
0.00282051
-0.149087
0.00292686
-0.143825
0.00303447
-0.13877
0.00314431
-0.133912
0.00325754
-0.129237
0.00337491
-0.124732
0.00349702
-0.120382
0.00362364
-0.11617
-0.112081
0.00375362
2.81967e-05
-0.324838
0.000111454
-0.311904
0.000237604
-0.300137
0.000392299
-0.289116
0.000562424
-0.278692
0.000737875
-0.268705
0.000911812
-0.259064
0.00108014
-0.249732
0.0012408
-0.240696
0.00139315
-0.231953
0.00153743
-0.223506
0.00167437
-0.215356
0.00180494
-0.207503
0.00193013
-0.199945
0.00205088
-0.192675
0.00216798
-0.185688
0.00228208
-0.178974
0.0023937
-0.172525
0.0025033
-0.166331
0.00261129
-0.160384
0.00271817
-0.154675
0.00282458
-0.149194
0.00293132
-0.143931
0.00303937
-0.138878
0.00314987
-0.134022
0.00326389
-0.129351
0.00338253
-0.124851
0.0035064
-0.120506
0.00363551
-0.116299
-0.112214
0.00376895
3.03407e-05
-0.324869
0.000116446
-0.311991
0.000244986
-0.300266
0.000401259
-0.289273
0.000572172
-0.278863
0.00074775
-0.26888
0.000921304
-0.259238
0.00108888
-0.2499
0.00124858
-0.240856
0.00139986
-0.232104
0.00154305
-0.223649
0.00167898
-0.215492
0.00180864
-0.207633
0.00193309
-0.200069
0.00205326
-0.192796
0.00216996
-0.185805
0.00228385
-0.179088
0.00239544
-0.172637
0.00250514
-0.166441
0.00261335
-0.160493
0.00272053
-0.154782
0.00282729
-0.1493
0.00293443
-0.144039
0.00304301
-0.138987
0.00315415
-0.134133
0.0032691
-0.129466
0.0033889
-0.124971
0.00351451
-0.120632
0.00364613
-0.116431
-0.112351
0.00378304
3.19351e-05
-0.324901
0.000120427
-0.312079
0.000251173
-0.300396
0.00040901
-0.28943
0.00058074
-0.279035
0.000756464
-0.269056
0.000929629
-0.259411
0.00109644
-0.250067
0.00125514
-0.241014
0.00140531
-0.232255
0.00154738
-0.223791
0.00168224
-0.215627
0.00181096
-0.207762
0.0019346
-0.200193
0.00205415
-0.192915
0.00217042
-0.185921
0.00228407
-0.179202
0.00239559
-0.172748
0.00250538
-0.166551
0.00261381
-0.160601
0.0027213
-0.154889
0.00282842
-0.149408
0.00293599
-0.144146
0.00304507
-0.139096
0.00315688
-0.134245
0.00327269
-0.129582
0.00339375
-0.125092
0.00352106
-0.120759
0.00365517
-0.116565
-0.112491
0.00379559
3.32682e-05
-0.324934
0.000123806
-0.31217
0.000256533
-0.300529
0.000415817
-0.28959
0.000588293
-0.279207
0.000764107
-0.269232
0.00093683
-0.259584
0.00110283
-0.250233
0.00126046
-0.241172
0.00140946
-0.232404
0.00155034
-0.223932
0.00168406
-0.21576
0.00181176
-0.207889
0.00193453
-0.200316
0.00205339
-0.193034
0.00216917
-0.186037
0.00228252
-0.179315
0.00239393
-0.17286
0.0025038
-0.166661
0.00261243
-0.16071
0.00272023
-0.154997
0.00282773
-0.149515
0.00293572
-0.144254
0.00304526
-0.139205
0.00315766
-0.134358
0.00327425
-0.129699
0.00339663
-0.125214
0.00352567
-0.120888
0.00366227
-0.116701
-0.112635
0.00380621
3.43655e-05
-0.324968
0.000126699
-0.312262
0.000261211
-0.300664
0.000421812
-0.28975
0.000594937
-0.279381
0.000770745
-0.269408
0.000942937
-0.259756
0.00110802
-0.250398
0.00126451
-0.241329
0.00141224
-0.232551
0.00155184
-0.224072
0.00168433
-0.215893
0.00181091
-0.208016
0.00193272
-0.200437
0.0020508
-0.193152
0.002166
-0.186152
0.00227898
-0.179428
0.00239023
-0.172971
0.0025001
-0.166771
0.0026089
-0.160818
0.00271699
-0.155105
0.00282485
-0.149623
0.00293325
-0.144363
0.0030432
-0.139315
0.00315611
-0.13447
0.00327355
-0.129816
0.00339702
-0.125338
0.00352791
-0.121019
0.00366698
-0.116841
-0.112783
0.00381446
3.5295e-05
-0.325004
0.000129224
-0.312356
0.000265359
-0.3008
0.000427131
-0.289912
0.000600772
-0.279554
0.000776448
-0.269584
0.000947989
-0.259927
0.00111204
-0.250562
0.00126727
-0.241484
0.00141361
-0.232698
0.0015518
-0.22421
0.00168295
-0.216024
0.00180829
-0.208141
0.00192902
-0.200558
0.00204621
-0.193269
0.00216072
-0.186266
0.00227323
-0.179541
0.00238421
-0.173082
0.00249401
-0.166881
0.00260291
-0.160927
0.00271123
-0.155214
0.00281941
-0.149731
0.00292816
-0.144471
0.00303853
-0.139426
0.00315195
-0.134584
0.0032701
-0.129934
0.00339463
-0.125462
0.00352727
-0.121152
0.00366882
-0.116982
-0.112934
0.00381985
3.60791e-05
-0.32504
0.000131441
-0.312451
0.000269063
-0.300937
0.000431866
-0.290075
0.000605876
-0.279728
0.000781277
-0.269759
0.000952018
-0.260098
0.0011149
-0.250725
0.00126872
-0.241638
0.00141354
-0.232842
0.00155018
-0.224346
0.00167983
-0.216154
0.00180379
-0.208265
0.0019233
-0.200678
0.00203944
-0.193385
0.00215312
-0.18638
0.00226501
-0.179652
0.0023756
-0.173192
0.00248522
-0.16699
0.00259413
-0.161036
0.00270259
-0.155322
0.00281102
-0.149839
0.00292008
-0.14458
0.00303082
-0.139536
0.00314466
-0.134698
0.00326338
-0.130053
0.00338896
-0.125588
0.00352312
-0.121286
0.00366724
-0.117126
-0.113088
0.0038218
3.67293e-05
-0.325076
0.00013341
-0.312548
0.0002724
-0.301076
0.000436101
-0.290239
0.000610321
-0.279902
0.000785284
-0.269934
0.000955061
-0.260268
0.00111661
-0.250886
0.00126885
-0.24179
0.00141198
-0.232986
0.0015469
-0.224481
0.00167489
-0.216282
0.00179729
-0.208388
0.0019154
-0.200796
0.00203033
-0.1935
0.002143
-0.186493
0.00225411
-0.179764
0.00236414
-0.173302
0.00247343
-0.167099
0.0025822
-0.161145
0.00269068
-0.155431
0.00279926
-0.149948
0.00290854
-0.14469
0.00301954
-0.139647
0.00313371
-0.134812
0.00325295
-0.130172
0.00337938
-0.125714
0.00351496
-0.121421
0.00366152
-0.117273
-0.113247
0.00381965
3.72569e-05
-0.325114
0.000135162
-0.312646
0.000275439
-0.301217
0.000439908
-0.290403
0.00061418
-0.280077
0.000788529
-0.270108
0.000957166
-0.260437
0.00111719
-0.251046
0.00126768
-0.24194
0.00140892
-0.233127
0.00154193
-0.224614
0.00166806
-0.216408
0.0017887
-0.208508
0.0019052
-0.200912
0.0020187
-0.193614
0.00213015
-0.186604
0.00224026
-0.179874
0.00234953
-0.173412
0.00245828
-0.167208
0.00256673
-0.161253
0.00267508
-0.155539
0.00278365
-0.150057
0.00289302
-0.144799
0.00300417
-0.139758
0.00311856
-0.134926
0.00323814
-0.130292
0.00336522
-0.125841
0.00350217
-0.121558
0.00365085
-0.117421
-0.113408
0.0038127
3.76652e-05
-0.325151
0.000136744
-0.312745
0.000278244
-0.301358
0.00044336
-0.290568
0.000617526
-0.280251
0.000791078
-0.270282
0.000958381
-0.260604
0.00111669
-0.251205
0.00126522
-0.242089
0.00140437
-0.233266
0.00153525
-0.224745
0.00165929
-0.216532
0.00177793
-0.208627
0.00189257
-0.201027
0.0020044
-0.193726
0.00211438
-0.186714
0.00222323
-0.179983
0.00233148
-0.17352
0.00243945
-0.167316
0.00254734
-0.161361
0.00265533
-0.155647
0.00276369
-0.150165
0.00287296
-0.144908
0.00298408
-0.13987
0.00309852
-0.135041
0.00321829
-0.130412
0.00334589
-0.125969
0.00348394
-0.121696
0.00363477
-0.117572
-0.113574
0.00380009
3.79633e-05
-0.325189
0.000138203
-0.312845
0.000280892
-0.301501
0.000446547
-0.290734
0.000620436
-0.280425
0.000793004
-0.270454
0.000958775
-0.26077
0.00111516
-0.251361
0.0012615
-0.242235
0.00139833
-0.233403
0.00152685
-0.224874
0.00164854
-0.216654
0.00176493
-0.208743
0.00187744
-0.201139
0.0019873
-0.193836
0.0020955
-0.186822
0.00220279
-0.18009
0.00230971
-0.173627
0.00241658
-0.167423
0.00252361
-0.161468
0.00263094
-0.155754
0.00273882
-0.150273
0.00284773
-0.145017
0.00295859
-0.13998
0.00307286
-0.135155
0.00319263
-0.130531
0.00332051
-0.126097
0.00345942
-0.121835
0.00361213
-0.117725
-0.113742
0.00378054
3.81593e-05
-0.325228
0.000139596
-0.312947
0.000283476
-0.301645
0.000449562
-0.2909
0.000623012
-0.280598
0.000794401
-0.270626
0.000958427
-0.260934
0.00111267
-0.251515
0.00125659
-0.242379
0.00139085
-0.233537
0.00151674
-0.225
0.00163581
-0.216773
0.00174965
-0.208857
0.00185972
-0.20125
0.00196728
-0.193943
0.00207336
-0.186929
0.00217872
-0.180195
0.00228393
-0.173732
0.00238933
-0.167528
0.00249511
-0.161574
0.00260141
-0.155861
0.00270844
-0.15038
0.00281664
-0.145125
0.00292689
-0.140091
0.00304064
-0.135269
0.00316004
-0.130651
0.00328786
-0.126225
0.00342729
-0.121975
0.00358144
-0.117879
-0.113914
0.00375292
3.8275e-05
-0.325266
0.000141006
-0.313049
0.000286104
-0.30179
0.00045253
-0.291066
0.000625374
-0.280771
0.000795385
-0.270796
0.000957451
-0.261096
0.0011093
-0.251667
0.00125056
-0.24252
0.00138199
-0.233669
0.00150497
-0.225123
0.00162113
-0.216889
0.0017321
-0.208968
0.00183939
-0.201357
0.00194428
-0.194048
0.00204783
-0.187032
0.00215085
-0.180298
0.00225391
-0.173835
0.00235737
-0.167632
0.00246143
-0.161678
0.00256622
-0.155965
0.00267192
-0.150486
0.00277895
-0.145232
0.00288811
-0.1402
0.00300087
-0.135381
0.00311942
-0.130769
0.0032467
-0.126352
0.00338618
-0.122114
0.00354148
-0.118034
-0.114088
0.00371574
3.83556e-05
-0.325304
0.000142553
-0.313154
0.000288929
-0.301936
0.000455596
-0.291233
0.000627661
-0.280943
0.000796089
-0.270964
0.000955968
-0.261256
0.0011052
-0.251816
0.00124353
-0.242659
0.00137185
-0.233797
0.00149162
-0.225242
0.00160455
-0.217002
0.00171231
-0.209076
0.00181644
-0.201461
0.00191827
-0.19415
0.00201886
-0.187133
0.00211905
-0.180398
0.00221944
-0.173936
0.00232041
-0.167733
0.00242218
-0.16178
0.00252488
-0.156068
0.00262867
-0.150589
0.00273391
-0.145338
0.00284139
-0.140307
0.00295256
-0.135493
0.00306964
-0.130886
0.00319576
-0.126478
0.0033347
-0.122253
0.00349059
-0.11819
-0.114264
0.00366717
3.84667e-05
-0.325343
0.000144391
-0.313259
0.000292129
-0.302084
0.000458942
-0.2914
0.000630049
-0.281114
0.000796684
-0.271131
0.000954145
-0.261413
0.0011005
-0.251963
0.00123564
-0.242794
0.00136056
-0.233922
0.00147683
-0.225359
0.00158619
-0.217111
0.00169038
-0.20918
0.00179097
-0.201562
0.00188928
-0.194248
0.00198643
-0.18723
0.00208326
-0.180495
0.00218039
-0.174033
0.00227825
-0.167831
0.00237705
-0.161879
0.00247694
-0.156168
0.00257806
-0.15069
0.00268075
-0.14544
0.00278577
-0.140412
0.00289454
-0.135601
0.00300937
-0.131001
0.0031335
-0.126602
0.00327107
-0.122391
0.00342672
-0.118346
-0.114443
0.00360495
3.87299e-05
-0.325381
0.000146738
-0.313367
0.000295932
-0.302233
0.000462789
-0.291567
0.00063275
-0.281284
0.00079737
-0.271295
0.000952168
-0.261568
0.00109539
-0.252106
0.00122706
-0.242925
0.00134829
-0.234043
0.00146074
-0.225471
0.00156621
-0.217217
0.00166647
-0.20928
0.00176309
-0.201658
0.00185745
-0.194342
0.00195063
-0.187323
0.00204352
-0.180588
0.00213675
-0.174126
0.00223076
-0.167925
0.00232579
-0.161974
0.00242201
-0.156264
0.00251954
-0.150788
0.00261872
-0.14554
0.00272026
-0.140514
0.0028256
-0.135707
0.00293709
-0.131113
0.00305814
-0.126723
0.00319322
-0.122526
0.00334755
-0.1185
-0.114622
0.00352652
3.93413e-05
-0.325421
0.000149892
-0.313478
0.000300646
-0.302384
0.000467418
-0.291734
0.000636023
-0.281453
0.000798383
-0.271458
0.000950257
-0.26172
0.00109006
-0.252246
0.00121799
-0.243053
0.00133525
-0.23416
0.00144357
-0.225579
0.00154482
-0.217318
0.00164078
-0.209376
0.00173305
-0.20175
0.00182298
-0.194432
0.00191167
-0.187412
0.002
-0.180676
0.00208862
-0.174215
0.00217798
-0.168014
0.00226834
-0.162064
0.00235986
-0.156356
0.0024527
-0.150881
0.00254715
-0.145634
0.00264393
-0.140611
0.00274447
-0.135807
0.00285121
-0.131219
0.00296774
-0.12684
0.00309887
-0.122657
0.00325044
-0.118652
-0.1148
0.00342882
4.06384e-05
-0.325461
0.000154315
-0.313592
0.000306686
-0.302536
0.000473192
-0.2919
0.000640177
-0.28162
0.000799991
-0.271618
0.00094865
-0.261868
0.00108476
-0.252382
0.00120865
-0.243177
0.00132165
-0.234273
0.00142556
-0.225683
0.00152228
-0.217415
0.00161361
-0.209468
0.00170114
-0.201838
0.0017862
-0.194517
0.00186988
-0.187495
0.00195304
-0.18076
0.00203631
-0.174298
0.00212014
-0.168098
0.00220481
-0.162149
0.00229047
-0.156441
0.00237728
-0.150968
0.00246552
-0.145722
0.00255589
-0.140701
0.00264987
-0.135901
0.00274997
-0.131319
0.00286005
-0.12695
0.00298529
-0.122782
0.00313218
-0.118799
-0.114976
0.00330804
4.31658e-05
-0.325504
0.000160698
-0.313709
0.000314602
-0.30269
0.000480528
-0.292066
0.000645545
-0.281785
0.00080247
-0.271775
0.000947593
-0.262014
0.00107971
-0.252514
0.00119928
-0.243297
0.00130776
-0.234382
0.00140699
-0.225783
0.00149891
-0.217506
0.00158532
-0.209554
0.00166777
-0.20192
0.00174758
-0.194597
0.00182577
-0.187574
0.00190317
-0.180837
0.00198036
-0.174375
0.00205777
-0.168175
0.00213566
-0.162227
0.00221415
-0.15652
0.00229338
-0.151047
0.00237359
-0.145802
0.00245547
-0.140783
0.00254051
-0.135986
0.00263141
-0.13141
0.00273233
-0.127051
0.00284888
-0.122899
0.00298819
-0.118938
-0.115146
0.00315871
4.7788e-05
-0.325552
0.000169925
-0.313831
0.000324957
-0.302845
0.000489802
-0.292231
0.000652427
-0.281947
0.000806087
-0.271928
0.000947335
-0.262155
0.00107515
-0.252642
0.00119014
-0.243412
0.00129385
-0.234485
0.00138818
-0.225877
0.00147509
-0.217593
0.00155635
-0.209635
0.00163347
-0.201998
0.0017077
-0.194672
0.00178002
-0.187646
0.00185115
-0.180908
0.00192163
-0.174445
0.00199178
-0.168245
0.0020618
-0.162297
0.00213175
-0.15659
0.00220166
-0.151117
0.0022717
-0.145872
0.00234247
-0.140854
0.00241546
-0.136059
0.00249355
-0.131488
0.0025813
-0.127139
0.00268489
-0.123002
0.00281214
-0.119065
-0.115308
0.00297369
5.55852e-05
-0.325608
0.000182777
-0.313959
0.000338159
-0.303001
0.000501344
-0.292394
0.00066116
-0.282107
0.000811152
-0.272078
0.000948144
-0.262292
0.00107133
-0.252765
0.00118147
-0.243522
0.0012802
-0.234584
0.00136946
-0.225966
0.00145121
-0.217675
0.00152718
-0.209711
0.00159882
-0.202069
0.00166731
-0.19474
0.00173351
-0.187712
0.00179804
-0.180973
0.00186131
-0.174509
0.00192353
-0.168308
0.00198474
-0.162358
0.00204485
-0.15665
0.00210373
-0.151176
0.00216134
-0.14593
0.00221804
-0.14091
0.00227516
-0.136116
0.00233566
-0.131549
0.00240461
-0.127208
0.00248915
-0.123087
0.0025986
-0.119175
-0.115456
0.00274695
6.75954e-05
-0.325675
0.000199938
-0.314091
0.000354928
-0.303155
0.000515855
-0.292555
0.000672279
-0.282264
0.000818022
-0.272224
0.000950249
-0.262424
0.00106842
-0.252883
0.00117344
-0.243627
0.00126701
-0.234678
0.00135111
-0.22605
0.00142765
-0.217752
0.00149831
-0.209782
0.00156448
-0.202135
0.00162722
-0.194803
0.00168726
-0.187772
0.00174508
-0.18103
0.00180093
-0.174565
0.00185481
-0.168362
0.00190655
-0.16241
0.00195582
-0.156699
0.00200219
-0.151222
0.00204525
-0.145973
0.00208494
-0.14095
0.00212217
-0.136154
0.00215969
-0.131586
0.00220301
-0.127251
0.00226069
-0.123144
0.00234473
-0.119259
-0.115581
0.00246985
8.55896e-05
-0.325761
0.000224218
-0.31423
0.000377879
-0.303309
0.00053489
-0.292712
0.000686461
-0.282415
0.000826894
-0.272364
0.000953655
-0.262551
0.00106637
-0.252996
0.00116604
-0.243727
0.00125436
-0.234766
0.00133328
-0.226129
0.00140468
-0.217823
0.00147019
-0.209847
0.00153107
-0.202196
0.00158827
-0.19486
0.0016424
-0.187826
0.00169375
-0.181082
0.00174234
-0.174613
0.00178792
-0.168407
0.00182997
-0.162452
0.00186778
-0.156737
0.00190042
-0.151255
0.00192688
-0.146
0.00194636
-0.14097
0.00195897
-0.136166
0.00196692
-0.131594
0.00197581
-0.12726
0.00199468
-0.123163
0.00203655
-0.119301
-0.115655
0.00210966
0.000118043
-0.325879
0.000264339
-0.314376
0.00041135
-0.303456
0.000559657
-0.29286
0.000703606
-0.282559
0.000837363
-0.272498
0.00095799
-0.262671
0.00106494
-0.253103
0.00115912
-0.243821
0.00124219
-0.234849
0.00131606
-0.226203
0.00138253
-0.21789
0.00144315
-0.209908
0.00149912
-0.202252
0.00155127
-0.194912
0.00160007
-0.187875
0.00164564
-0.181127
0.00168774
-0.174655
0.00172581
-0.168445
0.00175892
-0.162485
0.00178569
-0.156764
0.00180434
-0.151273
0.00181265
-0.146008
0.00180817
-0.140965
0.00178893
-0.136147
0.00175492
-0.13156
0.00170979
-0.127215
0.0016617
-0.123115
0.0016262
-0.119265
-0.115644
0.00161584
0.000192153
-0.326071
0.000327058
-0.314511
0.000453628
-0.303583
0.000587743
-0.292994
0.000722069
-0.282694
0.00084847
-0.272625
0.000962755
-0.262786
0.0010639
-0.253204
0.00115265
-0.24391
0.00123061
-0.234927
0.00129963
-0.226272
0.00136146
-0.217951
0.00141762
-0.209964
0.00146922
-0.202304
0.00151701
-0.19496
0.00156137
-0.187919
0.0016023
-0.181168
0.00163941
-0.174692
0.00167188
-0.168478
0.0016984
-0.162511
0.00171704
-0.156782
0.001725
-0.151281
0.00171838
-0.146001
0.00169188
-0.140939
0.00163872
-0.136094
0.00155098
-0.131473
0.00142076
-0.127084
0.00124386
-0.122938
0.00103814
-0.119059
-0.115607
0.00100112
0.327227
0.000131009
-0.327358
0.327139
8.79114e-05
0.327069
6.93549e-05
0.32701
5.94138e-05
0.326957
5.30664e-05
0.326908
4.9086e-05
0.326861
4.68827e-05
0.326815
4.59036e-05
0.32677
4.55402e-05
0.326724
4.53292e-05
0.326679
4.53751e-05
0.326633
4.56308e-05
0.326587
4.57718e-05
0.326542
4.57921e-05
0.326496
4.56944e-05
0.326451
4.54712e-05
0.326405
4.51181e-05
0.326361
4.46282e-05
0.326317
4.3985e-05
0.326274
4.3181e-05
0.326231
4.21814e-05
0.32619
4.09527e-05
0.326151
3.93731e-05
0.326114
3.73907e-05
0.326079
3.45217e-05
0.326048
3.0877e-05
0.326025
2.3718e-05
0.32601
1.48332e-05
0.326025
-1.48656e-05
-4.66104e-05
0.317182
0.000218776
-0.317269
0.317084
0.000185855
0.316987
0.000165927
0.316891
0.000155233
0.316796
0.000148636
0.3167
0.000144267
0.316606
0.000141751
0.316511
0.000140631
0.316416
0.000140417
0.316321
0.000140574
0.316225
0.000141039
0.316129
0.000141807
0.316032
0.000142449
0.315935
0.00014292
0.315838
0.00014317
0.31574
0.000143166
0.315642
0.000142875
0.315545
0.000142264
0.315447
0.000141291
0.31535
0.000139918
0.315255
0.000138068
0.31516
0.000135659
0.315067
0.00013248
0.314976
0.000128359
0.314888
0.000122596
0.314804
0.000114952
0.314725
0.000102633
0.314653
8.63895e-05
0.314582
5.6194e-05
2.48052e-05
0.306808
0.000275666
-0.306865
0.306734
0.000260036
0.306651
0.000248945
0.306562
0.000243631
0.30647
0.000241621
0.306373
0.00024121
0.306272
0.00024203
0.306169
0.000243548
0.306064
0.000245722
0.305956
0.000248447
0.305846
0.000251157
0.305734
0.000253874
0.30562
0.000256374
0.305504
0.00025855
0.305387
0.000260337
0.305269
0.000261678
0.305149
0.000262516
0.305029
0.000262812
0.304907
0.000262502
0.304786
0.000261529
0.304664
0.000259799
0.304542
0.000257196
0.304421
0.000253492
0.304301
0.000248462
0.304182
0.000241487
0.304065
0.000232243
0.303949
0.000219077
0.303833
0.000202431
0.30371
0.000178731
0.000152249
0.296162
0.000308395
-0.296195
0.296115
0.000307208
0.296057
0.000307078
0.295991
0.000309594
0.295918
0.00031418
0.29584
0.000319783
0.295755
0.0003262
0.295666
0.000332746
0.295573
0.000339155
0.295475
0.000346211
0.295373
0.000353202
0.295267
0.000359486
0.295158
0.00036537
0.295046
0.000370689
0.294931
0.000375383
0.294813
0.000379369
0.294693
0.000382597
0.294571
0.000385009
0.294447
0.000386555
0.294321
0.000387169
0.294195
0.000386763
0.294066
0.000385227
0.293938
0.000382368
0.293808
0.000377993
0.293678
0.000371679
0.293547
0.000363194
0.293414
0.000351719
0.293279
0.000337403
0.293139
0.000318851
0.000297092
0.285493
0.000316811
-0.285501
0.285472
0.000327606
0.285441
0.00033808
0.285402
0.000349321
0.285354
0.000361544
0.2853
0.000374265
0.285239
0.000387154
0.285172
0.000399928
0.285098
0.000412541
0.28502
0.000424919
0.284936
0.000436874
0.284847
0.000448063
0.284754
0.000458495
0.284657
0.000468077
0.284555
0.000476742
0.28445
0.000484425
0.284342
0.000491067
0.28423
0.000496619
0.284116
0.000501039
0.283999
0.000504275
0.283879
0.000506257
0.283758
0.000506905
0.283634
0.000506091
0.283508
0.000503684
0.28338
0.000499443
0.28325
0.000493224
0.283117
0.000484637
0.282981
0.000473691
0.28284
0.000459899
0.000443656
0.274942
0.000302802
-0.274928
0.274945
0.000324111
0.274939
0.000344541
0.274924
0.000364723
0.2749
0.000385073
0.274869
0.000405368
0.274831
0.000425361
0.274786
0.000445083
0.274734
0.000464203
0.274676
0.000482555
0.274613
0.000500254
0.274544
0.00051695
0.27447
0.000532576
0.274391
0.000547071
0.274307
0.000560367
0.274219
0.000572401
0.274127
0.000583124
0.274031
0.000592495
0.273932
0.000600485
0.273829
0.000607057
0.273723
0.000612175
0.273614
0.000615798
0.273503
0.000617864
0.273388
0.000618311
0.27327
0.000617031
0.27315
0.00061397
0.273025
0.000608966
0.272897
0.000602084
0.272764
0.00059324
0.000582753
0.264625
0.000270644
-0.264593
0.264648
0.000301574
0.264661
0.000331363
0.264665
0.000360322
0.264661
0.00038887
0.26465
0.000416897
0.264631
0.000444152
0.264605
0.000470878
0.264573
0.000496762
0.264534
0.000521465
0.264489
0.000545169
0.264438
0.000567615
0.264382
0.000588726
0.264321
0.000608432
0.264254
0.000626671
0.264183
0.00064338
0.264108
0.000658523
0.264029
0.000672064
0.263945
0.000683991
0.263858
0.000694291
0.263767
0.000702959
0.263673
0.00071
0.263575
0.00071541
0.263474
0.0007192
0.26337
0.000721357
0.263262
0.000721923
0.26315
0.000720889
0.263034
0.000718394
0.262913
0.000714536
0.000709587
0.25463
0.000225431
-0.254585
0.254666
0.000265324
0.254694
0.000303907
0.254713
0.000341286
0.254724
0.000377841
0.254727
0.000413566
0.254723
0.000447975
0.254712
0.000481534
0.254695
0.000514293
0.254671
0.000545446
0.254641
0.000575154
0.254605
0.000603385
0.254564
0.000630033
0.254517
0.00065502
0.254466
0.000678277
0.254409
0.000699749
0.254348
0.000719403
0.254283
0.000737219
0.254214
0.000753195
0.254141
0.00076735
0.254064
0.000779709
0.253984
0.000790321
0.2539
0.000799234
0.253813
0.000806533
0.253722
0.000812293
0.253627
0.000816631
0.253528
0.00081965
0.253425
0.000821559
0.253317
0.000822531
0.000822812
0.24501
0.000171913
-0.244957
0.245055
0.000220213
0.245092
0.000267068
0.245121
0.000312459
0.245142
0.000356689
0.245156
0.000399885
0.245162
0.000441486
0.245162
0.000481581
0.245156
0.000520906
0.245142
0.000558581
0.245123
0.000594162
0.245099
0.000628095
0.245069
0.000660197
0.245033
0.000690392
0.244993
0.000718598
0.244948
0.000744764
0.244898
0.000768863
0.244845
0.00079089
0.244787
0.000810857
0.244726
0.000828806
0.24466
0.000844793
0.244592
0.000858912
0.24452
0.000871271
0.244444
0.000882013
0.244365
0.000891293
0.244283
0.000899305
0.244196
0.000906239
0.244105
0.000912362
0.24401
0.000917907
0.000923104
0.235792
0.000114001
-0.235734
0.235842
0.000170237
0.235884
0.000224903
0.235919
0.000277934
0.235946
0.000329568
0.235966
0.000379734
0.235979
0.000428218
0.235986
0.000475283
0.235986
0.00052079
0.23598
0.000564338
0.235968
0.000605848
0.235951
0.000645359
0.235928
0.000682783
0.235901
0.000718036
0.235868
0.000751039
0.235831
0.000781746
0.23579
0.000810134
0.235745
0.000836206
0.235696
0.000859989
0.235643
0.000881547
0.235587
0.00090097
0.235527
0.000918393
0.235464
0.000933977
0.235399
0.000947931
0.235329
0.000960479
0.235257
0.0009719
0.235181
0.000982457
0.2351
0.000992486
0.235016
0.00100227
0.00101204
0.226981
5.4669e-05
-0.226922
0.227033
0.000118447
0.227078
0.000180538
0.227115
0.000240856
0.227145
0.00029954
0.227168
0.000356505
0.227184
0.000411806
0.227194
0.000465269
0.227198
0.000516737
0.227197
0.000566174
0.227189
0.000613377
0.227176
0.000658296
0.227158
0.000700863
0.227135
0.000740993
0.227108
0.000778608
0.227076
0.000813663
0.22704
0.000846134
0.227
0.000876032
0.226956
0.000903396
0.22691
0.000928309
0.22686
0.000950891
0.226807
0.000971321
0.226751
0.000989808
0.226692
0.00100663
0.226631
0.00102208
0.226566
0.00103653
0.226498
0.00105032
0.226427
0.00106386
0.226352
0.0010775
0.00109149
0.218571
-3.96723e-06
-0.218512
0.218622
6.70337e-05
0.218667
0.000136239
0.218704
0.000203548
0.218734
0.000269028
0.218758
0.0003326
0.218776
0.000394349
0.218787
0.000453995
0.218792
0.000511384
0.218792
0.000566527
0.218786
0.00061921
0.218775
0.000669362
0.218759
0.000716897
0.218738
0.000761724
0.218713
0.000803761
0.218684
0.000842963
0.218651
0.000879299
0.218614
0.000912785
0.218574
0.000943468
0.218531
0.000971447
0.218485
0.000996871
0.218436
0.00101995
0.218385
0.00104095
0.218331
0.00106022
0.218275
0.00107813
0.218217
0.00109514
0.218155
0.0011117
0.218091
0.0011283
0.218023
0.00114538
0.00116322
0.210545
-6.05046e-05
-0.210488
0.210594
1.74672e-05
0.210637
9.35422e-05
0.210673
0.000167608
0.210702
0.000239683
0.210725
0.000309634
0.210742
0.000377609
0.210753
0.000443308
0.210757
0.000506495
0.210757
0.000567181
0.210751
0.000625184
0.21074
0.00068041
0.210724
0.000732755
0.210704
0.000782116
0.210679
0.000828405
0.21065
0.00087156
0.210618
0.000911555
0.210582
0.000948394
0.210544
0.000982132
0.210502
0.00101288
0.210458
0.0010408
0.210412
0.00106614
0.210364
0.00108923
0.210314
0.00111047
0.210261
0.00113034
0.210207
0.00114939
0.210151
0.00116819
0.210092
0.00118735
0.21003
0.00120741
0.00122874
0.202883
-0.000114089
-0.202829
0.202929
-2.93296e-05
0.202969
5.34211e-05
0.203003
0.000134076
0.20303
0.000212597
0.203051
0.000288722
0.203066
0.000362761
0.203075
0.000434441
0.203078
0.000503309
0.203076
0.000569405
0.203068
0.000632596
0.203056
0.000692771
0.203039
0.0007498
0.203017
0.000803558
0.202992
0.000853949
0.202963
0.000900896
0.20293
0.000944361
0.202894
0.000984338
0.202855
0.00102088
0.202814
0.00105409
0.20277
0.00108416
0.202725
0.00111137
0.202678
0.00113609
0.20263
0.00115879
0.20258
0.00118005
0.202529
0.00120055
0.202476
0.00122101
0.202422
0.00124217
0.202364
0.00126473
0.00128917
0.195563
-0.000164253
-0.195513
0.195607
-7.28407e-05
0.195644
1.64474e-05
0.195674
0.000103561
0.195698
0.000188448
0.195716
0.000270616
0.195729
0.000350549
0.195735
0.000428174
0.195736
0.000502653
0.195731
0.000574036
0.195721
0.000642326
0.195707
0.000707359
0.195687
0.000768974
0.195664
0.000827029
0.195636
0.000881408
0.195605
0.000932017
0.195571
0.000978791
0.195534
0.00102171
0.195494
0.00106082
0.195451
0.00109622
0.195408
0.0011281
0.195362
0.00115677
0.195316
0.00118263
0.195268
0.00120625
0.19522
0.0012283
0.195171
0.00124959
0.195121
0.00127104
0.195069
0.00129358
0.195016
0.00131812
0.00134528
0.188565
-0.000210788
-0.188518
0.188605
-0.00011282
0.188638
-1.7078e-05
0.188665
7.6377e-05
0.188686
0.000167513
0.188701
0.000255835
0.18871
0.000341546
0.188713
0.000424889
0.188711
0.000504998
0.188703
0.000581595
0.188691
0.000654938
0.188673
0.000724771
0.188651
0.000790916
0.188625
0.000853201
0.188595
0.000911488
0.188562
0.000965654
0.188525
0.00101562
0.188485
0.00106132
0.188443
0.0011028
0.188399
0.00114012
0.188354
0.00117349
0.188307
0.0012032
0.18826
0.00122972
0.188213
0.00125366
0.188165
0.00127582
0.188118
0.00129719
0.18807
0.00131887
0.188021
0.00134208
0.187972
0.00136798
0.00139745
0.181866
-0.000253652
-0.181823
0.181902
-0.000149193
0.181932
-4.70414e-05
0.181956
5.27262e-05
0.181974
0.000149956
0.181985
0.000244319
0.181991
0.000336119
0.18199
0.00042503
0.181985
0.000510455
0.181974