/*--------------------------------*- C++ -*----------------------------------*\
| =========                 |                                                 |
| \\      /  F ield         | OpenFOAM: The Open Source CFD Toolbox           |
|  \\    /   O peration     | Version:  v1912                                 |
|   \\  /    A nd           | Website:  www.openfoam.com                      |
|    \\/     M anipulation  |                                                 |
\*---------------------------------------------------------------------------*/
FoamFile
{
    version     2.0;
    format      ascii;
    class       volScalarField;
    location    "61";
    object      p;
}
// * * * * * * * * * * * * * * * * * * * * * * * * * * * * * * * * * * * * * //

dimensions      [0 2 -2 0 0 0 0];


internalField   nonuniform List<scalar> 
9600
(
-41.4875
-36.2227
-32.9959
-30.2588
-27.7535
-25.4867
-23.4301
-21.556
-19.8467
-18.2886
-16.8691
-15.5763
-14.3988
-13.3258
-12.3472
-11.4537
-10.6367
-9.88845
-9.20131
-8.57313
-42.2475
-36.9652
-33.7024
-30.9224
-28.3719
-26.0611
-23.9631
-22.0511
-20.308
-18.7199
-17.274
-15.9581
-14.7602
-13.6693
-12.6748
-11.7671
-10.9374
-10.1773
-9.47906
-8.8416
-43.0091
-37.7036
-34.4035
-31.5804
-28.9846
-26.6294
-24.4901
-22.5404
-20.7636
-19.1457
-17.6738
-16.335
-15.1171
-14.0085
-12.9984
-12.0767
-11.2343
-10.4626
-9.75323
-9.10668
-43.7692
-38.4376
-35.0987
-32.2319
-29.5904
-27.1908
-25.01
-23.0229
-21.2126
-19.5654
-18.0677
-16.7064
-15.4688
-14.3429
-13.3173
-12.3818
-11.527
-10.7437
-10.0234
-9.36803
-44.5247
-39.1657
-35.7871
-32.8758
-30.1882
-27.7441
-25.5221
-23.4977
-21.6543
-19.978
-18.455
-17.0716
-15.8146
-14.6717
-13.6311
-12.682
-11.815
-11.0203
-10.2892
-9.62539
-45.2737
-39.8863
-36.4673
-33.511
-30.7772
-28.2885
-26.0253
-23.9639
-22.0878
-20.383
-18.835
-17.4299
-16.154
-14.9944
-13.9391
-12.9768
-12.0978
-11.292
-10.5503
-9.87847
-46.0142
-40.5981
-37.1382
-34.1364
-31.3561
-28.8229
-26.5188
-24.4207
-22.5123
-20.7793
-19.2069
-17.7806
-16.4863
-15.3105
-14.2407
-13.2657
-12.3751
-11.5584
-10.8064
-10.127
-46.7449
-41.2996
-37.7984
-34.7508
-31.9239
-29.3463
-27.0015
-24.8671
-22.9269
-21.1663
-19.57
-18.123
-16.8107
-15.6192
-14.5355
-13.5481
-12.6462
-11.819
-11.0572
-10.3707
-47.4642
-41.9896
-38.4469
-35.3532
-32.4796
-29.8576
-27.4725
-25.3023
-23.3309
-21.5431
-19.9235
-18.4564
-17.1266
-15.9198
-14.8227
-13.8233
-12.9107
-12.0734
-11.302
-10.6092
-48.1711
-42.6667
-39.0824
-35.9423
-33.0221
-30.3561
-27.931
-25.7254
-23.7232
-21.909
-20.2666
-18.7799
-17.4332
-16.2117
-15.1016
-14.0908
-13.1679
-12.321
-11.5406
-10.842
-48.8643
-43.3301
-39.7039
-36.5173
-33.5505
-30.8407
-28.376
-26.1356
-24.1032
-22.2631
-20.5985
-19.0928
-17.7297
-16.4939
-15.3715
-14.3497
-13.417
-12.561
-11.7722
-11.0687
-49.5429
-43.9785
-40.3103
-37.0772
-34.0639
-31.3105
-28.8066
-26.5319
-24.47
-22.6045
-20.9184
-19.3941
-18.0151
-16.7657
-15.6313
-14.5991
-13.6572
-12.7928
-11.9961
-11.2883
-50.2062
-44.6112
-40.9009
-37.621
-34.5613
-31.7647
-29.2222
-26.9137
-24.8227
-22.9325
-21.2252
-19.683
-18.2886
-17.026
-15.8802
-14.8381
-13.8876
-13.0152
-12.2114
-11.5002
-50.8537
-45.2274
-41.4746
-38.148
-35.042
-32.2026
-29.6218
-27.2801
-25.1606
-23.2462
-21.5183
-19.9585
-18.5491
-17.2735
-16.1167
-15.0652
-14.1066
-13.227
-12.4168
-11.7037
-51.4846
-45.8261
-42.0308
-38.6574
-35.5053
-32.6234
-30.0049
-27.6305
-25.4831
-23.5448
-21.7967
-20.2197
-18.7955
-17.5072
-16.3395
-15.2787
-14.3123
-13.4259
-12.6103
-11.8968
-52.0987
-46.4067
-42.5686
-39.1485
-35.9506
-33.0266
-30.371
-27.9644
-25.7895
-23.8279
-22.0598
-20.4657
-19.0269
-17.726
-16.5474
-15.4773
-14.5029
-13.6099
-12.7891
-12.0742
-52.6972
-46.9691
-43.0875
-39.6207
-36.3772
-33.4115
-30.7193
-28.2812
-26.0794
-24.0947
-22.307
-20.696
-19.2424
-17.9288
-16.7392
-15.6599
-14.6781
-13.7789
-12.9521
-12.2326
-53.2844
-47.5144
-43.5867
-40.0728
-36.7841
-33.7776
-31.0495
-28.5806
-26.3524
-24.3451
-22.5378
-20.9096
-19.4409
-18.1139
-16.9127
-15.8239
-14.8351
-13.9301
-13.0984
-12.3833
-53.8624
-48.042
-44.0645
-40.5038
-37.1711
-34.1248
-31.3618
-28.863
-26.609
-24.5795
-22.7526
-21.1068
-19.6219
-18.2798
-17.0644
-15.9628
-14.9619
-14.0461
-13.2131
-12.5305
-54.4093
-48.5443
-44.52
-40.9144
-37.5394
-34.4547
-31.658
-29.1301
-26.8512
-24.8
-22.9537
-21.2901
-19.7883
-18.4292
-17.1962
-16.0749
-15.0502
-14.1087
-13.2647
-12.5885
-59.8658
-59.8343
-59.765
-59.6726
-59.5562
-59.4135
-59.2438
-59.0477
-58.8258
-58.5786
-58.3067
-58.0105
-57.6909
-57.3484
-56.9838
-56.598
-56.1922
-55.7679
-55.328
-54.8757
-53.5169
-53.5143
-53.4785
-53.4152
-53.325
-53.2075
-53.0629
-52.8918
-52.6951
-52.4733
-52.227
-51.9569
-51.6635
-51.3476
-51.0097
-50.6504
-50.2705
-49.8705
-49.4509
-49.0095
-48.8725
-48.8943
-48.8867
-48.8504
-48.7865
-48.6961
-48.5796
-48.4378
-48.2712
-48.0804
-47.8661
-47.6287
-47.3688
-47.0871
-46.7839
-46.4597
-46.1149
-45.7494
-45.363
-44.9537
-44.6417
-44.6812
-44.6941
-44.6799
-44.6394
-44.5737
-44.4836
-44.3694
-44.2319
-44.0715
-43.8887
-43.6841
-43.4582
-43.2114
-42.9442
-42.6568
-42.3494
-42.0219
-41.6741
-41.3051
-40.7297
-40.7791
-40.8045
-40.8052
-40.7817
-40.7347
-40.665
-40.5729
-40.459
-40.3239
-40.1679
-39.9917
-39.7956
-39.58
-39.3454
-39.092
-38.8198
-38.5288
-38.2188
-37.8893
-37.2163
-37.2698
-37.3016
-37.311
-37.2981
-37.2636
-37.208
-37.1318
-37.0355
-36.9197
-36.7847
-36.631
-36.4592
-36.2695
-36.0624
-35.8381
-35.5966
-35.3379
-35.0617
-34.7676
-34.0924
-34.1459
-34.1796
-34.1927
-34.1854
-34.1581
-34.1114
-34.0458
-33.9618
-33.8598
-33.7403
-33.6038
-33.4508
-33.2817
-33.0967
-32.8963
-32.6804
-32.449
-32.202
-31.9386
-31.3214
-31.372
-31.4044
-31.4178
-31.4124
-31.3886
-31.347
-31.2879
-31.2119
-31.1195
-31.011
-30.8871
-30.7483
-30.5949
-30.4274
-30.2461
-30.0512
-29.8425
-29.6199
-29.3828
-28.8633
-28.9095
-28.9387
-28.9503
-28.9445
-28.9217
-28.8824
-28.827
-28.756
-28.6699
-28.5692
-28.4543
-28.326
-28.1846
-28.0307
-27.8646
-27.6867
-27.4968
-27.2948
-27.0801
-26.6783
-26.7194
-26.7445
-26.7533
-26.7458
-26.7225
-26.6839
-26.6303
-26.5623
-26.4803
-26.3848
-26.2765
-26.1559
-26.0236
-25.8803
-25.7264
-25.5623
-25.3881
-25.2036
-25.0081
-24.7294
-24.7652
-24.786
-24.7914
-24.7816
-24.7571
-24.7182
-24.6653
-24.5989
-24.5196
-24.4278
-24.3241
-24.2093
-24.0841
-23.9491
-23.805
-23.6523
-23.4914
-23.322
-23.1433
-22.9837
-23.0143
-23.0308
-23.0329
-23.0207
-22.9945
-22.9549
-22.9021
-22.8366
-22.759
-22.6698
-22.5696
-22.4592
-22.3394
-22.2109
-22.0748
-21.9317
-21.7821
-21.6261
-21.4627
-21.4127
-21.4387
-21.4513
-21.4502
-21.4355
-21.4077
-21.3671
-21.3142
-21.2492
-21.1728
-21.0854
-20.9879
-20.8808
-20.7652
-20.6421
-20.5124
-20.3773
-20.2376
-20.0937
-19.9446
-19.9927
-20.0146
-20.0236
-20.0196
-20.0028
-19.9734
-19.932
-19.8787
-19.814
-19.7385
-19.6526
-19.5571
-19.4527
-19.3403
-19.2213
-19.0968
-18.9684
-18.8373
-18.7046
-18.5692
-18.704
-18.7222
-18.728
-18.7215
-18.7027
-18.672
-18.6297
-18.5762
-18.5117
-18.4369
-18.3522
-18.2583
-18.1559
-18.0461
-17.9303
-17.8098
-17.6868
-17.5629
-17.4407
-17.3188
-17.53
-17.5448
-17.5478
-17.539
-17.5185
-17.4867
-17.4437
-17.39
-17.3258
-17.2516
-17.1679
-17.0752
-16.9744
-16.8665
-16.7529
-16.6352
-16.5163
-16.3982
-16.2855
-16.1768
-16.4568
-16.4687
-16.4692
-16.4584
-16.4364
-16.4035
-16.36
-16.3061
-16.2421
-16.1684
-16.0854
-15.9937
-15.8941
-15.7873
-15.6749
-15.5587
-15.442
-15.3277
-15.2232
-15.1263
-15.4726
-15.4821
-15.4807
-15.4684
-15.4453
-15.4118
-15.3679
-15.314
-15.2503
-15.1771
-15.0949
-15.004
-14.9051
-14.799
-14.6869
-14.5708
-14.4544
-14.3416
-14.2441
-14.1563
-14.5663
-14.5743
-14.5719
-14.5591
-14.536
-14.5028
-14.4597
-14.4068
-14.3445
-14.273
-14.1926
-14.1036
-14.0066
-13.9021
-13.7911
-13.6752
-13.5581
-13.4449
-13.3543
-13.2807
-13.7325
-13.7373
-13.7324
-13.7178
-13.6936
-13.66
-13.6171
-13.5652
-13.5043
-13.4348
-13.3568
-13.2706
-13.1764
-13.0747
-12.966
-12.8512
-12.7322
-12.6143
-12.5172
-12.468
-53.5725
-54.148
-54.6864
-55.2097
-55.7151
-56.1966
-56.6513
-57.0782
-57.4763
-57.8447
-58.1828
-58.4901
-58.7663
-59.0109
-59.2233
-59.4037
-59.5529
-59.672
-59.7631
-59.8281
-47.0894
-47.6703
-48.2231
-48.7535
-49.2611
-49.7435
-50.1991
-50.6274
-51.0276
-51.3992
-51.7414
-52.0543
-52.3378
-52.5928
-52.817
-53.0099
-53.1722
-53.3041
-53.4063
-53.4775
-42.4449
-43.0135
-43.5585
-44.08
-44.5781
-45.052
-45.501
-45.9242
-46.3212
-46.6912
-47.0333
-47.3473
-47.6328
-47.8886
-48.116
-48.3151
-48.4857
-48.6275
-48.7402
-48.8222
-38.3208
-38.8641
-39.3878
-39.8898
-40.3697
-40.8271
-41.2614
-41.6719
-42.0581
-42.4194
-42.7543
-43.0626
-43.3449
-43.601
-43.8309
-44.0343
-44.2109
-44.3602
-44.4821
-44.576
-34.6428
-35.1561
-35.6523
-36.1289
-36.5849
-37.0198
-37.4332
-37.8244
-38.1927
-38.5376
-38.8595
-39.1582
-39.4321
-39.6815
-39.9065
-40.1067
-40.282
-40.432
-40.5569
-40.6562
-31.4442
-31.9259
-32.3924
-32.8408
-33.2701
-33.6798
-34.0695
-34.4385
-34.7863
-35.1128
-35.4176
-35.7003
-35.9601
-36.1973
-36.4122
-36.6045
-36.7735
-36.9192
-37.0417
-37.1409
-28.6722
-29.1231
-29.5599
-29.98
-30.3822
-30.7661
-31.1311
-31.4769
-31.8028
-32.1088
-32.3943
-32.6592
-32.9031
-33.1259
-33.327
-33.5086
-33.6687
-33.807
-33.9236
-34.0189
-26.2601
-26.6822
-27.0909
-27.4839
-27.8602
-28.2191
-28.5601
-28.8828
-29.187
-29.4722
-29.7382
-29.985
-30.2123
-30.4201
-30.6082
-30.7753
-30.9248
-31.0541
-31.1631
-31.2523
-24.1493
-24.545
-24.9279
-25.296
-25.6481
-25.9835
-26.3019
-26.6029
-26.8862
-27.1516
-27.3989
-27.6281
-27.839
-28.0316
-28.2059
-28.3618
-28.498
-28.6172
-28.7179
-28.7999
-22.2896
-22.6614
-23.0211
-23.3666
-23.6966
-24.0106
-24.3082
-24.589
-24.8529
-25.0998
-25.3296
-25.5422
-25.7376
-25.9157
-26.0766
-26.22
-26.3459
-26.4546
-26.5466
-26.6212
-20.6393
-20.99
-21.3289
-21.6541
-21.9643
-22.2587
-22.5372
-22.7996
-23.0458
-23.2757
-23.4893
-23.6866
-23.8676
-24.0323
-24.1807
-24.3127
-24.4283
-24.5276
-24.6112
-24.6785
-19.1649
-19.4967
-19.8174
-20.1246
-20.4168
-20.6936
-20.9547
-21.2003
-21.4302
-21.6446
-21.8434
-22.0267
-22.1946
-22.3471
-22.4841
-22.6056
-22.7118
-22.8027
-22.878
-22.9386
-17.8392
-18.1545
-18.4594
-18.7506
-19.0266
-19.2873
-19.5326
-19.7628
-19.9778
-20.178
-20.3633
-20.5339
-20.6899
-20.8312
-20.9579
-21.07
-21.1675
-21.2503
-21.3183
-21.373
-16.6408
-16.9417
-17.233
-17.5101
-17.7714
-18.0173
-18.2481
-18.464
-18.6654
-18.8525
-19.0256
-19.1846
-19.3297
-19.461
-19.5784
-19.6819
-19.7716
-19.8476
-19.91
-19.958
-15.5526
-15.8412
-16.1209
-16.3853
-16.6331
-16.8653
-17.0825
-17.2853
-17.4741
-17.6492
-17.8109
-17.9594
-18.0947
-18.2168
-18.3258
-18.4216
-18.5043
-18.5739
-18.6303
-18.6736
-14.5597
-14.8398
-15.1103
-15.3628
-15.5977
-15.8169
-16.0214
-16.2117
-16.3886
-16.5526
-16.7039
-16.8426
-16.9689
-17.0827
-17.1841
-17.273
-17.3493
-17.4131
-17.4645
-17.5034
-13.6446
-13.9236
-14.189
-14.43
-14.6522
-14.859
-15.0512
-15.2298
-15.3956
-15.5493
-15.691
-15.8209
-15.9391
-16.0454
-16.1399
-16.2225
-16.2932
-16.352
-16.3988
-16.4337
-12.7866
-13.0698
-13.3364
-13.5681
-13.7783
-13.9734
-14.1545
-14.3225
-14.4786
-14.6232
-14.7567
-14.8792
-14.9904
-15.0905
-15.1793
-15.2567
-15.3228
-15.3774
-15.4205
-15.4524
-11.9991
-12.2729
-12.5402
-12.767
-12.9671
-13.1509
-13.3214
-13.4799
-13.6273
-13.764
-13.8903
-14.0063
-14.1117
-14.2065
-14.2906
-14.3639
-14.4262
-14.4776
-14.5181
-14.5477
-11.4084
-11.6592
-11.887
-12.1038
-12.2922
-12.4582
-12.6122
-12.7564
-12.8904
-13.0146
-13.1294
-13.2347
-13.3302
-13.4158
-13.4915
-13.5571
-13.6125
-13.6577
-13.6926
-13.7171
-6.00676
-6.49811
-7.03654
-7.619
-8.25191
-8.94268
-9.69896
-10.5302
-11.4486
-12.4699
-13.6144
-14.909
-16.3893
-18.1013
-20.1054
-22.4809
-25.3091
-28.6122
-32.6096
-38.6056
-6.2774
-6.78228
-7.33124
-7.92576
-8.57245
-9.27841
-10.0514
-10.9012
-11.8401
-12.8843
-14.0543
-15.3776
-16.89
-18.638
-20.6822
-23.1019
-25.9771
-29.327
-33.363
-39.38
-6.54946
-7.06788
-7.62748
-8.23431
-8.89504
-9.61643
-10.4064
-11.275
-12.2348
-13.3021
-14.4981
-15.8503
-17.3952
-19.1795
-21.2642
-23.728
-26.6498
-30.0454
-34.1181
-40.1516
-6.82246
-7.35437
-7.92468
-8.54403
-9.21901
-9.95605
-10.7632
-11.6508
-12.6317
-13.7224
-14.9445
-16.326
-17.9035
-19.7244
-21.8495
-24.3574
-27.3256
-30.7668
-34.8773
-40.932
-7.09596
-7.64126
-8.22238
-8.85445
-9.54388
-10.2967
-11.1213
-12.028
-13.0302
-14.1445
-15.3929
-16.8038
-18.4142
-20.2717
-22.4374
-24.9893
-28.0038
-31.4906
-35.6395
-41.7187
-7.36958
-7.92816
-8.52015
-9.16514
-9.86921
-10.6381
-11.4801
-12.4062
-13.4297
-14.5679
-15.8427
-17.2831
-18.9265
-20.8207
-23.027
-25.623
-28.6837
-32.2158
-36.403
-42.5075
-7.64302
-8.21471
-8.8176
-9.4757
-10.1946
-10.9796
-11.8393
-12.7848
-13.8299
-14.9919
-16.2933
-17.7633
-19.4397
-21.3708
-23.6177
-26.2577
-29.3643
-32.9413
-37.166
-43.2961
-7.91601
-8.50061
-9.11443
-9.78581
-10.5196
-11.3209
-12.1983
-13.1634
-14.23
-15.4159
-16.744
-18.2437
-19.9532
-21.9211
-24.2085
-26.8923
-30.0446
-33.666
-37.9274
-44.083
-8.18841
-8.78566
-9.41038
-10.0952
-10.8441
-11.6616
-12.5568
-13.5414
-14.6297
-15.8395
-17.1942
-18.7236
-20.4661
-22.4707
-24.7986
-27.5259
-30.7235
-34.3888
-38.686
-44.8667
-8.46018
-9.06975
-9.7053
-10.4036
-11.1676
-12.0014
-12.9144
-13.9185
-15.0283
-16.262
-17.6432
-19.2022
-20.9777
-23.0189
-25.3869
-28.1575
-31.3998
-35.1084
-39.4405
-45.6458
-8.73142
-9.35292
-9.99914
-10.7109
-11.49
-12.34
-13.2707
-14.2942
-15.4254
-16.6829
-18.0905
-19.6789
-21.4872
-23.5647
-25.9727
-28.786
-32.0725
-35.8236
-40.1895
-46.4187
-9.00243
-9.63533
-10.292
-11.0172
-11.8111
-12.6772
-13.6253
-14.6681
-15.8205
-17.1015
-18.5353
-20.1529
-21.9938
-24.1073
-26.5548
-29.4104
-32.7404
-36.5332
-40.9317
-47.1841
-9.27369
-9.91728
-10.5838
-11.3222
-12.1309
-13.0127
-13.978
-15.0396
-16.213
-17.5172
-18.977
-20.6235
-22.4965
-24.6458
-27.1322
-30.0296
-33.4024
-37.236
-41.6658
-47.9406
-9.54593
-10.1992
-10.875
-11.6261
-12.449
-13.3461
-14.3282
-15.4083
-16.6022
-17.9294
-19.4147
-21.0897
-22.9946
-25.1791
-27.704
-30.6424
-34.0572
-37.9308
-42.3904
-48.6869
-9.81991
-10.4814
-11.1653
-11.9285
-12.765
-13.677
-14.6753
-15.7735
-16.9876
-18.3372
-19.8476
-21.5508
-23.4869
-25.7062
-28.269
-31.2477
-34.7035
-38.6161
-43.1045
-49.4218
-10.0966
-10.7641
-11.4547
-12.2289
-13.0784
-14.0045
-15.0186
-16.1345
-17.3682
-18.7399
-20.2749
-22.0056
-23.9726
-26.226
-28.826
-31.8441
-35.3402
-39.2909
-43.8069
-50.1443
-10.3757
-11.0462
-11.7416
-12.526
-13.3879
-14.3278
-15.3571
-16.4901
-17.7431
-19.1363
-20.6955
-22.4533
-24.4505
-26.7373
-29.3738
-32.4305
-35.9657
-39.9537
-44.4964
-50.8539
-10.6567
-11.3252
-12.0235
-12.818
-13.6923
-14.6455
-15.6898
-16.8395
-18.1113
-19.5256
-21.1085
-22.8928
-24.9195
-27.239
-29.911
-33.0052
-36.5785
-40.6028
-45.172
-51.5505
-10.9321
-11.5927
-12.2943
-13.1013
-13.9892
-14.9561
-16.0152
-17.1814
-18.4717
-19.9066
-21.5126
-23.3227
-25.3784
-27.7297
-30.4363
-33.5669
-37.1769
-41.2365
-45.8324
-52.2355
-11.1835
-11.8289
-12.5495
-13.3772
-14.2794
-15.2593
-16.3328
-17.5152
-18.8233
-20.2783
-21.9068
-23.7422
-25.8259
-28.2082
-30.9482
-34.1137
-37.7587
-41.8516
-46.473
-52.9106
-1.58511
-1.83906
-2.18694
-2.57588
-2.99444
-3.448
-3.94286
-4.48494
-5.08175
-5.74355
-6.48427
-7.32294
-8.28571
-9.40862
-10.7426
-12.3619
-14.3562
-16.7867
-19.9619
-25.3567
-1.73828
-2.00867
-2.37502
-2.7699
-3.1919
-3.65079
-4.15257
-4.70274
-5.30896
-5.98174
-6.73531
-7.58901
-8.56942
-9.7131
-11.0715
-12.7195
-14.7468
-17.2128
-20.4202
-25.8288
-1.88581
-2.18027
-2.55979
-2.96281
-3.39255
-3.85984
-4.37055
-4.93041
-5.54741
-6.23244
-7.00002
-7.8699
-8.86912
-10.0348
-11.4188
-13.0966
-15.1574
-17.6589
-20.8978
-26.315
-2.05562
-2.36092
-2.74864
-3.16039
-3.59933
-4.07616
-4.59691
-5.16758
-5.7965
-6.49484
-7.2775
-8.16462
-9.1837
-10.3724
-11.7831
-13.4916
-15.587
-18.1252
-21.399
-26.8339
-2.23676
-2.54915
-2.94471
-3.36543
-3.81387
-4.30069
-4.83212
-5.4144
-6.05611
-6.7687
-7.56739
-8.47272
-9.51267
-10.7254
-12.164
-13.9043
-16.0355
-18.6119
-21.9232
-27.3822
-2.42337
-2.74438
-3.14829
-3.57813
-4.03635
-4.53362
-5.07633
-5.67092
-6.32618
-7.05385
-7.86945
-8.79394
-9.85575
-11.0936
-12.561
-14.3344
-16.5025
-19.1185
-22.4685
-27.9546
-2.61699
-2.94751
-3.35968
-3.79867
-4.26695
-4.7751
-5.32962
-5.93711
-6.60662
-7.3501
-8.18345
-9.12797
-10.2126
-11.4765
-12.9739
-14.7815
-16.9878
-19.6443
-23.0339
-28.5487
-2.81901
-3.15902
-3.57923
-4.02736
-4.5059
-5.02526
-5.592
-6.21293
-6.89727
-7.65727
-8.50911
-9.4745
-10.5828
-11.8739
-13.4023
-15.2451
-17.4907
-20.1888
-23.6187
-29.1636
-3.02919
-3.37875
-3.80697
-4.26429
-4.75326
-5.2841
-5.86344
-6.49826
-7.19799
-7.97511
-8.84614
-9.83319
-10.9661
-12.2852
-13.8456
-15.7247
-18.0107
-20.7513
-24.2223
-29.7981
-3.24696
-3.60638
-4.04271
-4.50931
-5.0089
-5.55148
-6.14377
-6.79291
-7.50852
-8.30336
-9.19424
-10.2037
-11.362
-12.71
-14.3033
-16.2197
-18.547
-21.3312
-24.8439
-30.4511
-3.47187
-3.84155
-4.28613
-4.76215
-5.27255
-5.82715
-6.43273
-7.09659
-7.82858
-8.64167
-9.55303
-10.5855
-11.77
-13.1477
-14.7749
-16.7296
-19.099
-21.9276
-25.4825
-31.1217
-3.70353
-4.08385
-4.53685
-5.02245
-5.54389
-6.11079
-6.72999
-7.40897
-8.15778
-8.98967
-9.92209
-10.9783
-12.1897
-13.598
-15.2599
-17.2536
-19.6661
-22.5397
-26.1374
-31.8086
-3.94149
-4.33283
-4.79442
-5.28979
-5.82252
-6.402
-7.03515
-7.72964
-8.49572
-9.34689
-10.3009
-11.3816
-12.6205
-14.0601
-15.7575
-17.7911
-20.2475
-23.1669
-26.8075
-32.5111
-4.18521
-4.58794
-5.05835
-5.56371
-6.10798
-6.70033
-7.34776
-8.05813
-8.84191
-9.71286
-10.6891
-11.7947
-13.0619
-14.5335
-16.2671
-18.3414
-20.8424
-23.8082
-27.4922
-33.2281
-4.43416
-4.84865
-5.32809
-5.84368
-6.39976
-7.00528
-7.66732
-8.39394
-9.19583
-10.087
-11.086
-12.2171
-13.5132
-15.0175
-16.7881
-18.9038
-21.4501
-24.4628
-28.1905
-33.9588
-4.68777
-5.11437
-5.60308
-6.12914
-6.69732
-7.31631
-7.99329
-8.73652
-9.55693
-10.4688
-11.4909
-12.6482
-13.9737
-15.5114
-17.3196
-19.4774
-22.0696
-25.1298
-28.9015
-34.7024
-4.9455
-5.38454
-5.88274
-6.41955
-7.0001
-7.63287
-8.3251
-9.08529
-9.92461
-10.8576
-11.9034
-13.0873
-14.4429
-16.0144
-17.8609
-20.0615
-22.7001
-25.8083
-29.6246
-35.4583
-5.2068
-5.65856
-6.1665
-6.71431
-7.30753
-7.95438
-8.66218
-9.43968
-10.2983
-11.2528
-12.3227
-13.5337
-14.9198
-16.5259
-18.4112
-20.6549
-23.3406
-26.4973
-30.3587
-36.2263
-5.47111
-5.93586
-6.45375
-7.01285
-7.61903
-8.28024
-9.00393
-9.79905
-10.6773
-11.6537
-12.7481
-13.9866
-15.4038
-17.0448
-18.9694
-21.2569
-23.9899
-27.1954
-31.1029
-37.0068
-5.73794
-6.2159
-6.74397
-7.31463
-7.93404
-8.6099
-9.34976
-10.1628
-11.061
-12.0597
-13.179
-14.4455
-15.894
-17.5704
-19.5347
-21.8662
-24.6468
-27.9011
-31.8544
-37.8006
-1.33733
-1.13061
-0.976837
-0.84011
-0.720043
-0.614097
-0.521157
-0.440429
-0.371412
-0.313748
-0.26717
-0.231467
-0.206469
-0.192038
-0.188038
-0.194257
-0.210477
-0.236828
-0.273495
-0.320252
-1.66714
-1.48371
-1.32595
-1.184
-1.0591
-0.948686
-0.851778
-0.767576
-0.695567
-0.635374
-0.586715
-0.549367
-0.523147
-0.507906
-0.503497
-0.509749
-0.526504
-0.553776
-0.591658
-0.639819
-1.99962
-1.82407
-1.66633
-1.52323
-1.3962
-1.28361
-1.18474
-1.09892
-1.02568
-0.964648
-0.915556
-0.878181
-0.852338
-0.837868
-0.834624
-0.842454
-0.861237
-0.890922
-0.931368
-0.982827
-2.3833
-2.20608
-2.0453
-1.89924
-1.76864
-1.65254
-1.55046
-1.46185
-1.3863
-1.32347
-1.27309
-1.23493
-1.2088
-1.19454
-1.192
-1.20102
-1.22149
-1.25333
-1.29641
-1.35079
-2.80196
-2.62229
-2.45754
-2.30753
-2.17271
-2.05255
-1.94673
-1.85482
-1.77649
-1.71141
-1.65933
-1.62003
-1.59332
-1.57903
-1.57698
-1.58705
-1.6091
-1.64302
-1.6887
-1.74612
-3.25316
-3.07026
-2.90133
-2.74699
-2.60771
-2.48329
-2.37352
-2.27812
-2.1968
-2.12929
-2.07536
-2.0348
-2.0074
-1.99301
-1.99145
-2.00257
-2.02625
-2.06236
-2.11075
-2.17139
-3.74307
-3.55543
-3.38159
-3.22232
-3.07813
-2.94905
-2.83499
-2.73576
-2.65115
-2.58093
-2.5249
-2.48284
-2.45459
-2.43996
-2.43879
-2.45093
-2.47624
-2.51458
-2.56579
-2.62986
-4.27846
-4.08461
-3.90477
-3.7397
-3.58991
-3.45555
-3.33665
-3.23308
-3.14471
-3.07135
-3.01282
-2.96894
-2.93953
-2.92442
-2.92345
-2.93647
-2.96333
-3.00387
-3.05794
-3.12551
-4.86705
-4.66553
-4.47845
-4.30651
-4.1502
-4.00976
-3.88527
-3.7767
-3.68395
-3.60687
-3.54533
-3.49915
-3.46818
-3.45223
-3.45117
-3.46483
-3.49306
-3.53568
-3.59256
-3.66366
-5.51896
-5.30821
-5.11247
-4.93238
-4.76841
-4.62085
-4.48984
-4.37538
-4.27743
-4.1959
-4.13065
-4.08155
-4.04844
-4.03116
-4.02957
-4.04349
-4.07279
-4.11726
-4.17677
-4.25131
-6.24793
-6.02615
-5.82008
-5.63028
-5.45724
-5.30125
-5.16248
-5.04101
-4.93681
-4.84983
-4.77997
-4.7271
-4.69108
-4.67177
-4.66901
-4.68265
-4.71253
-4.75845
-4.82025
-4.89798
-7.07269
-6.83776
-6.61935
-6.41795
-6.23405
-6.06797
-5.9199
-5.78995
-5.67813
-5.58442
-5.50873
-5.45096
-5.41098
-5.38867
-5.38385
-5.3964
-5.42613
-5.47285
-5.53638
-5.61682
-8.01898
-7.76835
-7.53515
-7.31982
-7.12287
-6.94459
-6.78524
-6.64493
-6.52371
-6.42157
-6.33846
-6.27429
-6.22894
-6.20229
-6.19419
-6.20449
-6.23302
-6.27956
-6.34393
-6.42628
-9.12233
-8.85293
-8.60196
-8.36982
-8.15704
-7.96395
-7.7908
-7.63773
-7.50481
-7.39207
-7.29945
-7.22689
-7.17429
-7.14151
-7.12844
-7.13491
-7.16074
-7.20569
-7.26958
-7.35261
-10.433
-10.1411
-9.86877
-9.6163
-9.38431
-9.17313
-8.98303
-8.81418
-8.66667
-8.54052
-8.43571
-8.35218
-8.28984
-8.24857
-8.22824
-8.22871
-8.24978
-8.29117
-8.3527
-8.43461
-12.0247
-11.706
-11.4079
-11.1309
-10.8756
-10.6424
-10.4316
-10.2432
-10.0776
-9.93453
-9.81416
-9.7164
-9.64116
-9.58834
-9.55779
-9.54939
-9.56294
-9.59813
-9.65473
-9.73302
-13.9867
-13.6363
-13.3078
-13.0017
-12.7187
-12.4592
-12.2235
-12.0117
-11.8239
-11.6602
-11.5205
-11.4048
-11.3131
-11.2453
-11.2012
-11.1807
-11.1836
-11.2096
-11.2585
-11.3302
-16.3804
-15.9945
-15.6314
-15.2923
-14.9778
-14.6884
-14.4242
-14.1855
-13.9722
-13.7844
-13.6222
-13.4855
-13.3742
-13.2883
-13.2277
-13.1922
-13.1818
-13.1963
-13.2352
-13.2978
-19.5169
-19.0911
-18.6891
-18.3135
-17.9646
-17.6424
-17.3469
-17.0781
-16.8361
-16.6207
-16.4321
-16.2701
-16.1349
-16.0262
-15.9441
-15.8883
-15.8588
-15.856
-15.8795
-15.9274
-24.8536
-24.3828
-23.9464
-23.5413
-23.1654
-22.8178
-22.4981
-22.206
-21.9416
-21.7049
-21.4958
-21.3145
-21.1611
-21.0356
-20.9381
-20.8687
-20.8281
-20.8185
-20.8414
-20.8865
-0.377015
-0.44346
-0.519548
-0.605198
-0.700326
-0.804826
-0.918568
-1.04139
-1.17308
-1.31335
-1.46185
-1.61805
-1.78114
-1.9499
-2.12268
-2.29721
-2.469
-2.62825
-2.75958
-2.88942
-0.698459
-0.767182
-0.845912
-0.934536
-1.03295
-1.14103
-1.25862
-1.38553
-1.52154
-1.66632
-1.81947
-1.98045
-2.14846
-2.32236
-2.50052
-2.68129
-2.86291
-3.03764
-3.19028
-3.3626
-1.04497
-1.11754
-1.20049
-1.29369
-1.39701
-1.5103
-1.63341
-1.76612
-1.90817
-2.05923
-2.21887
-2.38653
-2.56147
-2.74266
-2.92874
-3.11851
-3.31102
-3.50187
-3.68536
-3.89142
-1.41636
-1.49279
-1.58001
-1.67787
-1.78625
-1.90496
-2.03383
-2.17262
-2.32106
-2.47879
-2.64538
-2.82028
-3.00277
-3.19196
-3.38676
-3.58631
-3.7898
-3.99492
-4.20218
-4.43195
-1.81521
-1.89566
-1.98735
-2.09013
-2.20385
-2.32832
-2.46334
-2.60867
-2.76399
-2.92897
-3.10316
-3.28602
-3.47691
-3.67504
-3.87961
-4.09
-4.30559
-4.52535
-4.75192
-4.99845
-2.24432
-2.32906
-2.42555
-2.53363
-2.65313
-2.78385
-2.92556
-3.07802
-3.24092
-3.41388
-3.5965
-3.78826
-3.98859
-4.19683
-4.41236
-4.63476
-4.86365
-5.09881
-5.34298
-5.60403
-2.70683
-2.79608
-2.8977
-3.01146
-3.13718
-3.27464
-3.42362
-3.58385
-3.75503
-3.93679
-4.12874
-4.33039
-4.54125
-4.76075
-4.98845
-5.22403
-5.46729
-5.71844
-5.97969
-6.25549
-3.20652
-3.30067
-3.40771
-3.5275
-3.65984
-3.80454
-3.96135
-4.13
-4.31019
-4.50157
-4.70375
-4.91631
-5.13879
-5.37074
-5.61178
-5.86169
-6.12038
-6.38818
-6.66665
-6.95827
-3.74897
-3.84802
-3.9607
-4.08679
-4.22614
-4.37853
-4.5437
-4.7214
-4.91131
-5.11311
-5.32644
-5.5509
-5.78609
-6.03161
-6.28717
-6.55258
-6.82777
-7.11304
-7.40938
-7.71819
-4.34089
-4.44489
-4.5634
-4.696
-4.84264
-5.00308
-5.17709
-5.36438
-5.56468
-5.77765
-6.00297
-6.24027
-6.48918
-6.74937
-7.02057
-7.30259
-7.59538
-7.8991
-8.21431
-8.5418
-4.99166
-5.10056
-5.22469
-5.364
-5.51809
-5.68685
-5.87003
-6.06737
-6.27858
-6.50336
-6.7414
-6.99236
-7.25592
-7.53176
-7.81962
-8.11933
-8.43078
-8.75399
-9.08921
-9.43693
-5.71421
-5.8277
-5.95736
-6.10302
-6.26459
-6.44169
-6.63419
-6.84182
-7.06429
-7.30133
-7.55264
-7.81793
-8.09687
-8.38917
-8.69458
-9.0129
-9.34398
-9.68771
-10.0441
-10.4135
-6.52668
-6.64412
-6.77879
-6.93041
-7.0989
-7.28434
-7.48607
-7.70386
-7.93762
-8.18707
-8.45194
-8.73192
-9.02671
-9.33603
-9.65962
-9.99728
-10.3488
-10.7139
-11.0925
-11.4848
-7.4549
-7.57521
-7.71392
-7.87073
-8.04543
-8.238
-8.44924
-8.67638
-8.92107
-9.18264
-9.46088
-9.75551
-10.0662
-10.3928
-10.7348
-11.0922
-11.4646
-11.8517
-12.2531
-12.6693
-8.53706
-8.65856
-8.79968
-8.96021
-9.13998
-9.33851
-9.55534
-9.79271
-10.048
-10.3207
-10.6116
-10.9203
-11.2466
-11.5902
-11.9505
-12.3275
-12.7207
-13.1298
-13.5544
-13.9948
-9.83311
-9.95325
-10.0944
-10.2563
-10.439
-10.642
-10.8648
-11.1077
-11.3706
-11.6541
-11.9568
-12.2789
-12.62
-12.9793
-13.3567
-13.7522
-14.1654
-14.5959
-15.043
-15.5071
-11.4246
-11.5402
-11.6784
-11.8391
-12.022
-12.2267
-12.453
-12.7009
-12.97
-13.2606
-13.5734
-13.9072
-14.2602
-14.6317
-15.0229
-15.4344
-15.8656
-16.3158
-16.7839
-17.2698
-13.3824
-13.4904
-13.6226
-13.7787
-13.9574
-14.1592
-14.3841
-14.632
-14.9027
-15.1957
-15.5102
-15.8466
-16.2065
-16.5905
-16.9969
-17.4242
-17.8721
-18.3403
-18.8278
-19.3335
-15.9976
-16.0896
-16.2056
-16.347
-16.5153
-16.7097
-16.9293
-17.1738
-17.4429
-17.736
-18.0528
-18.3927
-18.7561
-19.1436
-19.5549
-19.9895
-20.4472
-20.9287
-21.4338
-21.9577
-20.9282
-21.0006
-21.1039
-21.2358
-21.3951
-21.5813
-21.7937
-22.032
-22.2958
-22.5849
-22.899
-23.238
-23.6022
-23.9917
-24.4067
-24.8472
-25.3143
-25.8118
-26.3423
-26.8881
-27.4049
-22.4923
-19.8571
-17.7738
-15.988
-14.4508
-13.1001
-11.8908
-10.7958
-9.79705
-8.88149
-8.0394
-7.26316
-6.54655
-5.88439
-5.27214
-4.70456
-4.17605
-3.6951
-3.2907
-27.9495
-23.0431
-20.3964
-18.2928
-16.4831
-14.9203
-13.5435
-12.3088
-11.1895
-10.168
-9.23171
-8.37091
-7.57818
-6.84745
-6.17368
-5.55244
-4.97902
-4.45102
-3.98157
-3.57908
-28.5228
-23.6128
-20.9529
-18.8279
-16.9931
-15.4034
-13.9995
-12.7383
-11.594
-10.5492
-9.59152
-8.71152
-7.9018
-7.15631
-6.46997
-5.8383
-5.25665
-4.72275
-4.24616
-3.82417
-29.1204
-24.202
-21.5266
-19.3788
-17.5172
-15.8994
-14.4673
-13.1787
-12.0084
-10.9396
-9.95983
-9.0599
-8.23234
-7.47098
-6.77055
-6.12627
-5.53327
-4.98861
-4.49903
-4.05829
-29.7394
-24.8102
-22.1169
-19.9449
-18.055
-16.4077
-14.9462
-13.6292
-12.4321
-11.3383
-10.3358
-9.41518
-8.56898
-7.79084
-7.07526
-6.41714
-5.81131
-5.25425
-4.75087
-4.29399
-30.3781
-25.4377
-22.7218
-20.5251
-18.6057
-16.9274
-15.4354
-14.089
-12.8642
-11.7447
-10.7187
-9.77669
-8.91115
-8.11553
-7.38405
-6.71137
-6.09206
-5.52228
-5.00562
-4.53465
-31.0354
-26.0832
-23.3411
-21.1186
-19.1683
-17.4579
-15.9341
-14.5574
-13.304
-12.1581
-11.1079
-10.1439
-9.25853
-8.44495
-7.69718
-7.00964
-6.37676
-5.79443
-5.26519
-4.78154
-31.7101
-26.7446
-23.9745
-21.7244
-19.7421
-17.9982
-16.4417
-15.0336
-13.7508
-12.5778
-11.5029
-10.5165
-9.61082
-8.77897
-8.0147
-7.31222
-6.66583
-6.07125
-5.53001
-5.03459
-32.4007
-27.4204
-24.6213
-22.3418
-20.326
-18.5475
-16.9572
-15.5169
-14.204
-13.0033
-11.9031
-10.8939
-9.96766
-9.11736
-8.3365
-7.6191
-6.95934
-6.35274
-5.79989
-5.29329
-33.106
-28.1094
-25.2803
-22.9699
-20.9192
-19.105
-17.4798
-16.0065
-14.6628
-13.4338
-12.3079
-11.2756
-10.3287
-9.45978
-8.6623
-7.93002
-7.25699
-6.63853
-6.07434
-5.55692
-33.8248
-28.8106
-25.9505
-23.6075
-21.5208
-19.6697
-18.0088
-16.5015
-15.1264
-13.8687
-12.7168
-11.6611
-10.6933
-9.80578
-8.99167
-8.24456
-7.55833
-6.9281
-6.3527
-5.82469
-34.5559
-29.5229
-26.6307
-24.2538
-22.1297
-20.2407
-18.543
-17.0012
-15.5941
-14.3073
-13.1291
-12.0499
-11.061
-10.1548
-9.32408
-8.56216
-7.86278
-7.22081
-6.63427
-6.0958
-35.2984
-30.2451
-27.3198
-24.9076
-22.7449
-20.817
-19.0818
-17.5047
-16.0651
-14.7488
-13.5441
-12.4411
-11.4312
-10.5063
-9.65893
-8.88222
-8.1697
-7.51599
-6.91832
-6.3695
-36.051
-30.976
-28.0167
-25.5677
-23.3653
-21.3974
-19.624
-18.0111
-16.5386
-15.1924
-13.961
-12.8342
-11.8032
-10.8596
-9.99558
-9.2041
-8.47845
-7.81297
-7.20415
-6.64504
-36.8125
-31.7145
-28.72
-26.233
-23.9897
-21.9811
-20.1686
-18.5194
-17.0136
-15.6374
-14.3791
-13.2285
-12.1763
-11.2139
-10.3334
-9.52714
-8.78836
-8.11107
-7.49108
-6.92175
-37.582
-32.459
-29.4284
-26.9023
-24.6171
-22.5669
-20.7148
-19.0287
-17.4893
-16.0829
-14.7976
-13.6231
-12.5498
-11.5688
-10.6716
-9.85069
-9.09877
-8.40965
-7.77845
-7.19898
-38.3588
-33.2087
-30.1407
-27.5742
-25.2462
-23.1536
-21.2612
-19.5379
-17.9647
-16.5279
-15.2157
-14.0174
-12.923
-11.9233
-11.0097
-10.1741
-9.40905
-8.70807
-8.06565
-7.47611
-39.1443
-33.9629
-30.8553
-28.2472
-25.8755
-23.7398
-21.8068
-20.046
-18.4389
-16.9717
-15.6326
-14.4104
-13.2951
-12.2769
-11.3469
-10.4966
-9.71853
-9.0057
-8.35206
-7.7526
-39.9388
-34.7204
-31.5703
-28.9196
-26.5036
-24.3245
-22.3505
-20.5521
-18.9109
-17.4134
-16.0474
-14.8016
-13.6654
-12.6288
-11.6825
-10.8177
-10.0266
-9.30195
-8.63712
-8.02792
-40.7295
-35.4762
-32.2841
-29.5904
-27.1299
-24.9071
-22.8919
-21.0557
-19.3804
-17.8526
-16.4598
-15.1904
-14.0335
-12.9786
-12.0161
-11.1369
-10.3328
-9.59636
-8.92037
-8.30162
-6.78038
-4.67442
-3.31423
-2.26872
-1.5342
-0.994723
-0.607219
-0.332107
-0.141068
-0.0123635
0.0706325
0.12055
0.146972
0.157056
0.156113
0.148016
0.135578
0.1208
0.105091
0.0894186
0.0744269
0.0605268
0.0479546
0.0368298
0.0271738
0.0189666
0.0121145
0.00655296
0.00211252
-0.001236
-0.00375525
-0.00533773
-0.00643137
-0.00662597
-0.00675676
-0.00582769
-0.00541725
-0.00349692
-0.00295138
3.74578e-05
-7.03607
-4.85681
-3.46049
-2.38389
-1.62525
-1.06836
-0.667287
-0.381729
-0.182448
-0.04712
0.0412976
0.0957153
0.125918
0.139204
0.140991
0.135229
0.12479
0.111726
0.0974829
0.0830664
0.0691438
0.0561527
0.044354
0.0338818
0.024773
0.0170238
0.0105517