/*--------------------------------*- C++ -*----------------------------------*\
| =========                 |                                                 |
| \\      /  F ield         | OpenFOAM: The Open Source CFD Toolbox           |
|  \\    /   O peration     | Version:  v1912                                 |
|   \\  /    A nd           | Website:  www.openfoam.com                      |
|    \\/     M anipulation  |                                                 |
\*---------------------------------------------------------------------------*/
FoamFile
{
    version     2.0;
    format      ascii;
    class       volScalarField;
    location    "64.5";
    object      p;
}
// * * * * * * * * * * * * * * * * * * * * * * * * * * * * * * * * * * * * * //

dimensions      [0 2 -2 0 0 0 0];


internalField   nonuniform List<scalar> 
9600
(
-41.4878
-36.2231
-32.9964
-30.2592
-27.7539
-25.4872
-23.4306
-21.5564
-19.8471
-18.2891
-16.8696
-15.5768
-14.3992
-13.3262
-12.3476
-11.4541
-10.6371
-9.88881
-9.20165
-8.57346
-42.2479
-36.9656
-33.7029
-30.9229
-28.3724
-26.0615
-23.9636
-22.0516
-20.3084
-18.7203
-17.2745
-15.9585
-14.7607
-13.6697
-12.6752
-11.7675
-10.9378
-10.1777
-9.47941
-8.84194
-43.0096
-37.7041
-34.404
-31.5809
-28.9851
-26.6299
-24.4906
-22.5409
-20.7641
-19.1462
-17.6742
-16.3354
-15.1175
-14.009
-12.9988
-12.0771
-11.2347
-10.4629
-9.75359
-9.10703
-43.7697
-38.4381
-35.0992
-32.2324
-29.5909
-27.1913
-25.0106
-23.0234
-21.2131
-19.5659
-18.0682
-16.7068
-15.4692
-14.3433
-13.3178
-12.3822
-11.5274
-10.7441
-10.0238
-9.3684
-44.5253
-39.1662
-35.7876
-32.8763
-30.1888
-27.7447
-25.5227
-23.4982
-21.6549
-19.9786
-18.4555
-17.0721
-15.8151
-14.6722
-13.6315
-12.6825
-11.8154
-11.0207
-10.2896
-9.62576
-45.2742
-39.8869
-36.4679
-33.5116
-30.7778
-28.2891
-26.0259
-23.9645
-22.0884
-20.3835
-18.8355
-17.4304
-16.1545
-14.9949
-13.9395
-12.9773
-12.0982
-11.2924
-10.5507
-9.87885
-46.0148
-40.5987
-37.1388
-34.137
-31.3567
-28.8235
-26.5194
-24.4212
-22.5129
-20.7799
-19.2074
-17.7811
-16.4868
-15.311
-14.2412
-13.2662
-12.3755
-11.5588
-10.8069
-10.1274
-46.7455
-41.3002
-37.7991
-34.7515
-31.9245
-29.3469
-27.0021
-24.8677
-22.9275
-21.1669
-19.5706
-18.1236
-16.8112
-15.6197
-14.536
-13.5485
-12.6466
-11.8195
-11.0576
-10.3711
-47.4649
-41.9902
-38.4476
-35.3538
-32.4802
-29.8583
-27.4732
-25.3029
-23.3315
-21.5437
-19.9241
-18.4569
-17.1271
-15.9203
-14.8232
-13.8238
-12.9111
-12.0739
-11.3025
-10.6096
-48.1718
-42.6674
-39.0831
-35.943
-33.0228
-30.3568
-27.9316
-25.726
-23.7239
-21.9096
-20.2672
-18.7805
-17.4337
-16.2122
-15.1022
-14.0913
-13.1683
-12.3214
-11.5411
-10.8424
-48.865
-43.3308
-39.7046
-36.5181
-33.5512
-30.8414
-28.3767
-26.1362
-24.1039
-22.2637
-20.5991
-19.0934
-17.7302
-16.4945
-15.372
-14.3502
-13.4175
-12.5615
-11.7727
-11.0691
-49.5437
-43.9793
-40.3111
-37.0779
-34.0646
-31.3112
-28.8073
-26.5326
-24.4706
-22.6052
-20.919
-19.3947
-18.0157
-16.7662
-15.6319
-14.5996
-13.6577
-12.7932
-11.9966
-11.2887
-50.207
-44.612
-40.9016
-37.6218
-34.562
-31.7655
-29.2229
-26.9144
-24.8234
-22.9331
-21.2258
-19.6836
-18.2892
-17.0265
-15.8807
-14.8386
-13.888
-13.0157
-12.2118
-11.5006
-50.8545
-45.2282
-41.4754
-38.1488
-35.0428
-32.2033
-29.6226
-27.2808
-25.1613
-23.2468
-21.5189
-19.9591
-18.5497
-17.2741
-16.1173
-15.0657
-14.1071
-13.2275
-12.4173
-11.7041
-51.4855
-45.827
-42.0316
-38.6582
-35.5061
-32.6242
-30.0057
-27.6312
-25.4838
-23.5455
-21.7973
-20.2203
-18.7961
-17.5078
-16.3401
-15.2793
-14.3128
-13.4264
-12.6108
-11.8972
-52.0996
-46.4076
-42.5695
-39.1493
-35.9514
-33.0274
-30.3717
-27.9651
-25.7902
-23.8286
-22.0605
-20.4664
-19.0275
-17.7266
-16.5479
-15.4778
-14.5035
-13.6104
-12.7896
-12.0747
-52.6981
-46.97
-43.0884
-39.6216
-36.378
-33.4124
-30.7201
-28.282
-26.0801
-24.0954
-22.3077
-20.6966
-19.243
-17.9294
-16.7398
-15.6604
-14.6786
-13.7794
-12.9526
-12.233
-53.2853
-47.5153
-43.5876
-40.0737
-36.785
-33.7784
-31.0503
-28.5813
-26.3531
-24.3458
-22.5385
-20.9102
-19.4415
-18.1145
-16.9133
-15.8245
-14.8356
-13.9306
-13.0989
-12.3838
-53.8633
-48.0429
-44.0654
-40.5047
-37.172
-34.1256
-31.3627
-28.8637
-26.6098
-24.5803
-22.7533
-21.1075
-19.6226
-18.2804
-17.065
-15.9633
-14.9624
-14.0466
-13.2135
-12.531
-54.4103
-48.5453
-44.521
-40.9153
-37.5403
-34.4555
-31.6589
-29.1309
-26.852
-24.8007
-22.9544
-21.2908
-19.7889
-18.4298
-17.1968
-16.0755
-15.0507
-14.1092
-13.2652
-12.5889
-59.867
-59.8355
-59.7662
-59.6738
-59.5574
-59.4147
-59.245
-59.0489
-58.827
-58.5798
-58.3078
-58.0116
-57.692
-57.3495
-56.9849
-56.5991
-56.1932
-55.7689
-55.329
-54.8767
-53.518
-53.5154
-53.4797
-53.4163
-53.3262
-53.2086
-53.064
-52.893
-52.6962
-52.4744
-52.2282
-51.958
-51.6646
-51.3487
-51.0107
-50.6515
-50.2716
-49.8715
-49.4519
-49.0105
-48.8736
-48.8954
-48.8879
-48.8515
-48.7877
-48.6972
-48.5807
-48.4389
-48.2723
-48.0815
-47.8671
-47.6297
-47.3699
-47.0881
-46.7849
-46.4608
-46.1159
-45.7504
-45.3639
-44.9546
-44.6428
-44.6823
-44.6952
-44.6809
-44.6405
-44.5748
-44.4846
-44.3705
-44.2329
-44.0725
-43.8897
-43.6851
-43.4592
-43.2124
-42.9452
-42.6578
-42.3504
-42.0229
-41.6751
-41.306
-40.7307
-40.7801
-40.8055
-40.8063
-40.7827
-40.7358
-40.666
-40.5739
-40.46
-40.3249
-40.1689
-39.9926
-39.7965
-39.581
-39.3464
-39.0929
-38.8207
-38.5297
-38.2197
-37.8902
-37.2172
-37.2707
-37.3026
-37.312
-37.2991
-37.2645
-37.2089
-37.1328
-37.0365
-36.9206
-36.7856
-36.632
-36.4601
-36.2705
-36.0633
-35.839
-35.5975
-35.3387
-35.0626
-34.7685
-34.0933
-34.1468
-34.1805
-34.1937
-34.1863
-34.159
-34.1123
-34.0467
-33.9627
-33.8607
-33.7412
-33.6047
-33.4517
-33.2826
-33.0976
-32.8971
-32.6813
-32.4499
-32.2028
-31.9395
-31.3222
-31.3729
-31.4053
-31.4187
-31.4133
-31.3895
-31.3478
-31.2888
-31.2128
-31.1203
-31.0119
-30.888
-30.7491
-30.5957
-30.4282
-30.2469
-30.052
-29.8433
-29.6207
-29.3836
-28.8641
-28.9103
-28.9395
-28.9511
-28.9453
-28.9226
-28.8833
-28.8279
-28.7569
-28.6707
-28.57
-28.4551
-28.3268
-28.1854
-28.0315
-27.8654
-27.6875
-27.4976
-27.2956
-27.0808
-26.6791
-26.7202
-26.7453
-26.7541
-26.7466
-26.7233
-26.6847
-26.6311
-26.5631
-26.4811
-26.3856
-26.2772
-26.1566
-26.0244
-25.8811
-25.7272
-25.5631
-25.3889
-25.2044
-25.0088
-24.7302
-24.7659
-24.7867
-24.7922
-24.7824
-24.7579
-24.7189
-24.6661
-24.5997
-24.5203
-24.4285
-24.3249
-24.2101
-24.0848
-23.9498
-23.8057
-23.6531
-23.4921
-23.3227
-23.144
-22.9844
-23.015
-23.0316
-23.0336
-23.0214
-22.9953
-22.9556
-22.9028
-22.8373
-22.7597
-22.6705
-22.5703
-22.4599
-22.3401
-22.2116
-22.0755
-21.9324
-21.7828
-21.6267
-21.4634
-21.4134
-21.4394
-21.452
-21.4508
-21.4362
-21.4084
-21.3678
-21.3148
-21.2499
-21.1734
-21.0861
-20.9885
-20.8815
-20.7659
-20.6427
-20.513
-20.378
-20.2382
-20.0943
-19.9452
-19.9934
-20.0153
-20.0243
-20.0203
-20.0034
-19.9741
-19.9326
-19.8793
-19.8147
-19.7391
-19.6532
-19.5577
-19.4533
-19.341
-19.2219
-19.0974
-18.969
-18.8379
-18.7052
-18.5698
-18.7046
-18.7228
-18.7287
-18.7221
-18.7033
-18.6726
-18.6303
-18.5768
-18.5124
-18.4375
-18.3528
-18.2589
-18.1565
-18.0467
-17.9309
-17.8104
-17.6874
-17.5635
-17.4413
-17.3194
-17.5306
-17.5454
-17.5484
-17.5396
-17.5191
-17.4873
-17.4443
-17.3905
-17.3264
-17.2522
-17.1684
-17.0758
-16.975
-16.8671
-16.7535
-16.6358
-16.5168
-16.3987
-16.2861
-16.1774
-16.4574
-16.4692
-16.4698
-16.459
-16.437
-16.4041
-16.3606
-16.3066
-16.2426
-16.1689
-16.086
-15.9943
-15.8946
-15.7878
-15.6755
-15.5592
-15.4426
-15.3282
-15.2237
-15.1268
-15.4732
-15.4826
-15.4812
-15.4689
-15.4459
-15.4123
-15.3684
-15.3145
-15.2508
-15.1776
-15.0954
-15.0045
-14.9056
-14.7995
-14.6874
-14.5713
-14.4549
-14.3421
-14.2446
-14.1568
-14.5668
-14.5748
-14.5724
-14.5596
-14.5365
-14.5033
-14.4602
-14.4073
-14.345
-14.2735
-14.193
-14.1041
-14.007
-13.9026
-13.7916
-13.6757
-13.5586
-13.4454
-13.3548
-13.2812
-13.733
-13.7378
-13.7328
-13.7182
-13.6941
-13.6605
-13.6176
-13.5657
-13.5048
-13.4353
-13.3572
-13.271
-13.1769
-13.0752
-12.9664
-12.8517
-12.7327
-12.6147
-12.5177
-12.4684
-53.5735
-54.149
-54.6874
-55.2108
-55.7162
-56.1977
-56.6524
-57.0793
-57.4774
-57.8459
-58.184
-58.4913
-58.7674
-59.0121
-59.2245
-59.4049
-59.5541
-59.6732
-59.7643
-59.8293
-47.0903
-47.6712
-48.224
-48.7545
-49.2621
-49.7445
-50.2002
-50.6285
-51.0287
-51.4003
-51.7425
-52.0554
-52.339
-52.594
-52.8181
-53.0111
-53.1733
-53.3053
-53.4075
-53.4787
-42.4458
-43.0145
-43.5594
-44.081
-44.5791
-45.053
-45.502
-45.9253
-46.3223
-46.6923
-47.0344
-47.3484
-47.6339
-47.8897
-48.1171
-48.3162
-48.4869
-48.6286
-48.7413
-48.8234
-38.3216
-38.865
-39.3887
-39.8907
-40.3706
-40.828
-41.2623
-41.6729
-42.0591
-42.4204
-42.7553
-43.0636
-43.346
-43.602
-43.8319
-44.0354
-44.2119
-44.3613
-44.4832
-44.5771
-34.6437
-35.157
-35.6532
-36.1298
-36.5858
-37.0207
-37.4342
-37.8254
-38.1937
-38.5385
-38.8605
-39.1592
-39.4331
-39.6825
-39.9075
-40.1077
-40.283
-40.4331
-40.5579
-40.6572
-31.4449
-31.9267
-32.3932
-32.8417
-33.271
-33.6807
-34.0703
-34.4394
-34.7872
-35.1137
-35.4185
-35.7012
-35.9611
-36.1983
-36.4132
-36.6055
-36.7745
-36.9202
-37.0426
-37.1418
-28.6729
-29.1239
-29.5607
-29.9808
-30.383
-30.7669
-31.132
-31.4777
-31.8037
-32.1096
-32.3952
-32.6601
-32.904
-33.1268
-33.3279
-33.5095
-33.6696
-33.8079
-33.9245
-34.0198
-26.2608
-26.6829
-27.0916
-27.4847
-27.861
-28.2198
-28.5609
-28.8836
-29.1878
-29.473
-29.7391
-29.9858
-30.2132
-30.4209
-30.6091
-30.7762
-30.9257
-31.0549
-31.164
-31.2532
-24.15
-24.5457
-24.9286
-25.2967
-25.6488
-25.9843
-26.3027
-26.6037
-26.887
-27.1524
-27.3997
-27.6289
-27.8398
-28.0324
-28.2067
-28.3626
-28.4988
-28.618
-28.7187
-28.8008
-22.2902
-22.6621
-23.0218
-23.3673
-23.6973
-24.0113
-24.3089
-24.5897
-24.8537
-25.1006
-25.3304
-25.543
-25.7384
-25.9165
-26.0773
-26.2208
-26.3467
-26.4554
-26.5474
-26.622
-20.64
-20.9906
-21.3296
-21.6548
-21.9649
-22.2594
-22.5379
-22.8003
-23.0465
-23.2764
-23.49
-23.6873
-23.8684
-24.0331
-24.1814
-24.3134
-24.4291
-24.5283
-24.6119
-24.6793
-19.1655
-19.4973
-19.8181
-20.1253
-20.4175
-20.6942
-20.9554
-21.201
-21.4309
-21.6452
-21.8441
-22.0274
-22.1953
-22.3478
-22.4848
-22.6063
-22.7125
-22.8034
-22.8787
-22.9393
-17.8398
-18.1551
-18.46
-18.7512
-19.0273
-19.2879
-19.5333
-19.7634
-19.9785
-20.1786
-20.364
-20.5346
-20.6906
-20.8319
-20.9586
-21.0707
-21.1682
-21.251
-21.319
-21.3737
-16.6414
-16.9423
-17.2335
-17.5106
-17.772
-18.0179
-18.2487
-18.4646
-18.666
-18.8532
-19.0262
-19.1852
-19.3304
-19.4616
-19.579
-19.6825
-19.7722
-19.8482
-19.9107
-19.9586
-15.5531
-15.8417
-16.1215
-16.3859
-16.6337
-16.8659
-17.0831
-17.2859
-17.4747
-17.6498
-17.8115
-17.96
-18.0953
-18.2174
-18.3264
-18.4222
-18.5049
-18.5745
-18.6309
-18.6742
-14.5602
-14.8403
-15.1109
-15.3633
-15.5982
-15.8175
-16.0219
-16.2123
-16.3892
-16.5531
-16.7044
-16.8432
-16.9695
-17.0833
-17.1847
-17.2735
-17.3499
-17.4137
-17.4651
-17.5039
-13.645
-13.9241
-14.1895
-14.4305
-14.6527
-14.8595
-15.0517
-15.2303
-15.3962
-15.5498
-15.6916
-15.8215
-15.9396
-16.046
-16.1405
-16.2231
-16.2938
-16.3525
-16.3993
-16.4342
-12.787
-13.0702
-13.3369
-13.5686
-13.7788
-13.9739
-14.155
-14.323
-14.4791
-14.6237
-14.7573
-14.8797
-14.991
-15.091
-15.1798
-15.2573
-15.3233
-15.3779
-15.4211
-15.4529
-11.9996
-12.2733
-12.5407
-12.7675
-12.9676
-13.1513
-13.3219
-13.4804
-13.6277
-13.7645
-13.8908
-14.0068
-14.1122
-14.207
-14.2911
-14.3644
-14.4267
-14.4781
-14.5186
-14.5482
-11.4088
-11.6597
-11.8875
-12.1043
-12.2927
-12.4586
-12.6126
-12.7569
-12.8909
-13.0151
-13.1299
-13.2351
-13.3307
-13.4163
-13.492
-13.5575
-13.613
-13.6582
-13.6931
-13.7176
-6.00703
-6.49839
-7.03683
-7.61929
-8.25221
-8.94299
-9.69928
-10.5305
-11.4489
-12.4702
-13.6147
-14.9094
-16.3896
-18.1016
-20.1057
-22.4812
-25.3094
-28.6125
-32.6099
-38.6059
-6.27767
-6.78257
-7.33153
-7.92606
-8.57277
-9.27873
-10.0517
-10.9015
-11.8405
-12.8846
-14.0547
-15.378
-16.8903
-18.6383
-20.6826
-23.1022
-25.9775
-29.3274
-33.3634
-39.3804
-6.54974
-7.06818
-7.62778
-8.23462
-8.89536
-9.61676
-10.4068
-11.2753
-12.2351
-13.3025
-14.4984
-15.8507
-17.3955
-19.1799
-21.2645
-23.7283
-26.6502
-30.0458
-34.1185
-40.152
-6.82275
-7.35467
-7.925
-8.54435
-9.21934
-9.95639
-10.7636
-11.6511
-12.632
-13.7228
-14.9449
-16.3264
-17.9039
-19.7248
-21.8499
-24.3578
-27.326
-30.7672
-34.8777
-40.9325
-7.09626
-7.64158
-8.2227
-8.85478
-9.54423
-10.2971
-11.1217
-12.0284
-13.0305
-14.1449
-15.3933
-16.8042
-18.4146
-20.2721
-22.4378
-24.9898
-28.0043
-31.491
-35.64
-41.7192
-7.36989
-7.92848
-8.52048
-9.16548
-9.86957
-10.6384
-11.4805
-12.4066
-13.4301
-14.5683
-15.8431
-17.2836
-18.9269
-20.8212
-23.0275
-25.6235
-28.6842
-32.2163
-36.4035
-42.508
-7.64333
-8.21504
-8.81795
-9.47606
-10.195
-10.98
-11.8397
-12.7852
-13.8303
-14.9923
-16.2937
-17.7638
-19.4402
-21.3712
-23.6182
-26.2582
-29.3648
-32.9418
-37.1665
-43.2967
-7.91633
-8.50095
-9.11478
-9.78617
-10.52
-11.3213
-12.1987
-13.1638
-14.2304
-15.4164
-16.7444
-18.2442
-19.9537
-21.9215
-24.209
-26.8928
-30.0451
-33.6666
-37.928
-44.0836
-8.18874
-8.786
-9.41074
-10.0955
-10.8444
-11.662
-12.5573
-13.5419
-14.6301
-15.84
-17.1947
-18.724
-20.4666
-22.4712
-24.7991
-27.5265
-30.724
-34.3893
-38.6866
-44.8673
-8.46052
-9.07011
-9.70567
-10.404
-11.168
-12.0018
-12.9148
-13.919
-15.0287
-16.2625
-17.6437
-19.2027
-20.9782
-23.0194
-25.3875
-28.1581
-31.4004
-35.109
-39.4411
-45.6465
-8.73176
-9.35328
-9.99952
-10.7113
-11.4904
-12.3405
-13.2711
-14.2947
-15.4259
-16.6834
-18.091
-19.6794
-21.4877
-23.5653
-25.9732
-28.7866
-32.0731
-35.8242
-40.1901
-46.4194
-9.00278
-9.6357
-10.2923
-11.0176
-11.8116
-12.6777
-13.6258
-14.6685
-15.821
-17.102
-18.5358
-20.1534
-21.9943
-24.1079
-26.5553
-29.411
-32.7411
-36.5339
-40.9324
-47.1849
-9.27405
-9.91766
-10.5842
-11.3226
-12.1313
-13.0132
-13.9784
-15.0401
-16.2135
-17.5178
-18.9775
-20.624
-22.4971
-24.6464
-27.1328
-30.0302
-33.4031
-37.2367
-41.6665
-47.9414
-9.5463
-10.1996
-10.8754
-11.6265
-12.4494
-13.3466
-14.3286
-15.4088
-16.6027
-17.9299
-19.4152
-21.0903
-22.9951
-25.1797
-27.7047
-30.6431
-34.0579
-37.9315
-42.3912
-48.6877
-9.82028
-10.4818
-11.1657
-11.9289
-12.7655
-13.6774
-14.6758
-15.774
-16.9881
-18.3378
-19.8482
-21.5513
-23.4875
-25.7068
-28.2697
-31.2484
-34.7043
-38.6169
-43.1053
-49.4226
-10.097
-10.7645
-11.4551
-12.2294
-13.0789
-14.005
-15.0191
-16.135
-17.3687
-18.7404
-20.2755
-22.0062
-23.9733
-26.2266
-28.8267
-31.8448
-35.3409
-39.2917
-43.8077
-50.1452
-10.3761
-11.0466
-11.742
-12.5265
-13.3884
-14.3283
-15.3576
-16.4907
-17.7436
-19.1369
-20.6961
-22.454
-24.4512
-26.738
-29.3745
-32.4312
-35.9664
-39.9545
-44.4973
-50.8548
-10.6571
-11.3256
-12.0239
-12.8184
-13.6927
-14.646
-15.6903
-16.8401
-18.1119
-19.5262
-21.1091
-22.8934
-24.9202
-27.2397
-29.9117
-33.006
-36.5793
-40.6036
-45.1729
-51.5514
-10.9325
-11.5932
-12.2947
-13.1018
-13.9897
-14.9566
-16.0157
-17.182
-18.4722
-19.9072
-21.5132
-23.3234
-25.379
-27.7304
-30.437
-33.5676
-37.1777
-41.2374
-45.8333
-52.2365
-11.1839
-11.8293
-12.5499
-13.3777
-14.2799
-15.2598
-16.3333
-17.5157
-18.8239
-20.2789
-21.9074
-23.7428
-25.8266
-28.2089
-30.9489
-34.1145
-37.7595
-41.8525
-46.4739
-52.9116
-1.58521
-1.83915
-2.18703
-2.57596
-2.99452
-3.44807
-3.94292
-4.48499
-5.08178
-5.74356
-6.48426
-7.32291
-8.28565
-9.40853
-10.7424
-12.3617
-14.356
-16.7865
-19.9617
-25.3564
-1.73839
-2.00877
-2.37512
-2.76999
-3.19198
-3.65087
-4.15263
-4.70279
-5.309
-5.98177
-6.73531
-7.58899
-8.56937
-9.71302
-11.0714
-12.7194
-14.7466
-17.2126
-20.42
-25.8286
-1.88592
-2.18038
-2.5599
-2.96291
-3.39264
-3.85993
-4.37063
-4.93047
-5.54747
-6.23247
-7.00004
-7.8699
-8.86909
-10.0347
-11.4188
-13.0964
-15.1573
-17.6587
-20.8976
-26.3148
-2.05574
-2.36104
-2.74876
-3.1605
-3.59943
-4.07626
-4.597
-5.16766
-5.79656
-6.49489
-7.27753
-8.16463
-9.18369
-10.3723
-11.7831
-13.4915
-15.5869
-18.1251
-21.3989
-26.8338
-2.23688
-2.54927
-2.94484
-3.36555
-3.81398
-4.3008
-4.83222
-5.41449
-6.05618
-6.76876
-7.56744
-8.47275
-9.51267
-10.7254
-12.1639
-13.9042
-16.0353
-18.6118
-21.923
-27.382
-2.4235
-2.74451
-3.14842
-3.57826
-4.03648
-4.53374
-5.07644
-5.67102
-6.32627
-7.05392
-7.86951
-8.79398
-9.85577
-11.0936
-12.561
-14.3343
-16.5025
-19.1184
-22.4684
-27.9545
-2.61713
-2.94766
-3.35982
-3.79881
-4.26709
-4.77523
-5.32974
-5.93723
-6.60672
-7.35019
-8.18352
-9.12803
-10.2126
-11.4766
-12.9739
-14.7815
-16.9878
-19.6442
-23.0338
-28.5487
-2.81916
-3.15917
-3.57938
-4.02751
-4.50605
-5.0254
-5.59214
-6.21306
-6.89739
-7.65738
-8.5092
-9.47458
-10.5829
-11.8739
-13.4023
-15.2451
-17.4907
-20.1888
-23.6187
-29.1635
-3.02936
-3.37891
-3.80714
-4.26445
-4.75342
-5.28425
-5.86359
-6.49841
-7.19812
-7.97523
-8.84625
-9.83328
-10.9662
-12.2852
-13.8456
-15.7247
-18.0107
-20.7513
-24.2223
-29.7981
-3.24713
-3.60655
-4.04288
-4.50949
-5.00907
-5.55165
-6.14394
-6.79307
-7.50867
-8.3035
-9.19437
-10.2038
-11.3621
-12.71
-14.3034
-16.2198
-18.547
-21.3312
-24.8439
-30.4512
-3.47205
-3.84173
-4.28631
-4.76233
-5.27273
-5.82733
-6.43291
-7.09677
-7.82874
-8.64183
-9.55317
-10.5857
-11.7701
-13.1478
-14.775
-16.7296
-19.0991
-21.9276
-25.4826
-31.1217
-3.70372
-4.08404
-4.53704
-5.02264
-5.54409
-6.11099
-6.73018
-7.40916
-8.15796
-8.98984
-9.92225
-10.9785
-12.1898
-13.5981
-15.26
-17.2537
-19.6662
-22.5398
-26.1374
-31.8087
-3.94169
-4.33303
-4.79462
-5.29
-5.82273
-6.40221
-7.03536
-7.72984
-8.49591
-9.34708
-10.3011
-11.3817
-12.6207
-14.0602
-15.7576
-17.7912
-20.2476
-23.167
-26.8076
-32.5112
-4.18542
-4.58815
-5.05856
-5.56393
-6.1082
-6.70055
-7.34798
-8.05834
-8.84212
-9.71306
-10.6893
-11.7949
-13.0621
-14.5336
-16.2673
-18.3416
-20.8426
-23.8083
-27.4923
-33.2282
-4.43437
-4.84887
-5.32831
-5.8439
-6.39999
-7.00551
-7.66755
-8.39417
-9.19605
-10.0872
-11.0862
-12.2173
-13.5134
-15.0177
-16.7883
-18.904
-21.4503
-24.4629
-28.1906
-33.959
-4.68799
-5.1146
-5.60331
-6.12938
-6.69756
-7.31656
-7.99353
-8.73676
-9.55717
-10.4691
-11.4912
-12.6484
-13.974
-15.5116
-17.3198
-19.4776
-22.0698
-25.13
-28.9017
-34.7026
-4.94573
-5.38477
-5.88299
-6.4198
-7.00035
-7.63313
-8.32536
-9.08555
-9.92487
-10.8579
-11.9037
-13.0875
-14.4431
-16.0147
-17.8612
-20.0617
-22.7003
-25.8085
-29.6248
-35.4586
-5.20704
-5.6588
-6.16675
-6.71457
-7.3078
-7.95465
-8.66246
-9.43995
-10.2985
-11.2531
-12.323
-13.534
-14.9201
-16.5261
-18.4114
-20.6552
-23.3408
-26.4975
-30.3589
-36.2265
-5.47136
-5.93611
-6.45402
-7.01312
-7.61931
-8.28052
-9.00421
-9.79934
-10.6776
-11.654
-12.7484
-13.9869
-15.404
-17.0451
-18.9697
-21.2571
-23.9902
-27.1957
-31.1032
-37.0071
-5.7382
-6.21617
-6.74425
-7.31491
-7.93433
-8.6102
-9.35006
-10.1631
-11.0613
-12.06
-13.1793
-14.4458
-15.8943
-17.5707
-19.535
-21.8665
-24.6471
-27.9014
-31.8547
-37.801
-1.33742
-1.1307
-0.976917
-0.840183
-0.72011
-0.614158
-0.521212
-0.440479
-0.371457
-0.313787
-0.267204
-0.231497
-0.206494
-0.192059
-0.188056
-0.194271
-0.210487
-0.236835
-0.273501
-0.320256
-1.66723
-1.48379
-1.32603
-1.18407
-1.05916
-0.948744
-0.85183
-0.767622
-0.695608
-0.635409
-0.586744
-0.549391
-0.523167
-0.507921
-0.503509
-0.509757
-0.526509
-0.553778
-0.591661
-0.639817
-1.99971
-1.82415
-1.6664
-1.5233
-1.39626
-1.28366
-1.18479
-1.09896
-1.02571
-0.964676
-0.915579
-0.878199
-0.852351
-0.837877
-0.834629
-0.842455
-0.861235
-0.890918
-0.931358
-0.982818
-2.38338
-2.20615
-2.04537
-1.8993
-1.76869
-1.65258
-1.55049
-1.46188
-1.38632
-1.32349
-1.2731
-1.23494
-1.20881
-1.19454
-1.192
-1.20101
-1.22148
-1.25332
-1.2964
-1.35077
-2.80204
-2.62235
-2.4576
-2.30758
-2.17275
-2.05259
-1.94676
-1.85485
-1.7765
-1.71142
-1.65933
-1.62003
-1.59332
-1.57901
-1.57697
-1.58703
-1.60908
-1.643
-1.68868
-1.74609
-3.25323
-3.07031
-2.90138
-2.74703
-2.60774
-2.48331
-2.37354
-2.27813
-2.1968
-2.12929
-2.07536
-2.03478
-2.00738
-1.99298
-1.99142
-2.00254
-2.02622
-2.06232
-2.11071
-2.17135
-3.74312
-3.55547
-3.38162
-3.22235
-3.07815
-2.94906
-2.835
-2.73576
-2.65114
-2.58091
-2.52487
-2.48281
-2.45455
-2.43992
-2.43874
-2.45088
-2.47619
-2.51452
-2.56574
-2.6298
-4.2785
-4.08464
-3.90479
-3.73971
-3.58991
-3.45555
-3.33663
-3.23306
-3.14468
-3.07132
-3.01278
-2.96889
-2.93948
-2.92436
-2.92339
-2.93641
-2.96326
-3.0038
-3.05787
-3.12543
-4.86707
-4.66554
-4.47845
-4.3065
-4.15018
-4.00974
-3.88524
-3.77666
-3.6839
-3.60682
-3.54527
-3.49909
-3.4681
-3.45216
-3.45109
-3.46474
-3.49297
-3.53559
-3.59246
-3.66356
-5.51896
-5.3082
-5.11245
-4.93235
-4.76837
-4.62081
-4.48978
-4.37532
-4.27736
-4.19582
-4.13057
-4.08146
-4.04834
-4.03106
-4.02946
-4.04338
-4.07267
-4.11714
-4.17665
-4.25119
-6.24791
-6.02612
-5.82004
-5.63023
-5.45718
-5.30118
-5.1624
-5.04092
-4.93672
-4.84973
-4.77986
-4.72698
-4.69096
-4.67164
-4.66888
-4.68251
-4.71238
-4.7583
-4.8201
-4.89783
-7.07265
-6.8377
-6.61928
-6.41787
-6.23396
-6.06787
-5.91979
-5.78983
-5.67801
-5.58428
-5.50859
-5.45081
-5.41083
-5.3885
-5.38369
-5.39623
-5.42596
-5.47267
-5.5362
-5.61663
-8.01891
-7.76826
-7.53505
-7.31971
-7.12274
-6.94446
-6.7851
-6.64478
-6.52355
-6.4214
-6.33828
-6.2741
-6.22875
-6.20209
-6.19399
-6.20429
-6.23281
-6.27934
-6.34371
-6.42606
-9.12223
-8.85281
-8.60183
-8.36968
-8.15689
-7.96379
-7.79062
-7.63754
-7.50462
-7.39186
-7.29924
-7.22667
-7.17406
-7.14128
-7.1282
-7.13466
-7.16049
-7.20544
-7.26933
-7.35236
-10.4329
-10.141
-9.8686
-9.61612
-9.38412
-9.17293
-8.98282
-8.81396
-8.66644
-8.54028
-8.43546
-8.35192
-8.28957
-8.24829
-8.22796
-8.22842
-8.24949
-8.29088
-8.3524
-8.43431
-12.0246
-11.7058
-11.4077
-11.1307
-10.8754
-10.6422
-10.4313
-10.243
-10.0773
-9.93424
-9.81387
-9.7161
-9.64085
-9.58802
-9.55747
-9.54906
-9.5626
-9.59778
-9.65438
-9.73267
-13.9865
-13.636
-13.3075
-13.0014
-12.7185
-12.459
-12.2232
-12.0114
-11.8236
-11.6598
-11.5201
-11.4045
-11.3128
-11.2449
-11.2008
-11.1803
-11.1832
-11.2092
-11.2581
-11.3298
-16.3802
-15.9942
-15.6311
-15.292
-14.9775
-14.6881
-14.4239
-14.1851
-13.9719
-13.7841
-13.6218
-13.4851
-13.3738
-13.2879
-13.2273
-13.1918
-13.1814
-13.1958
-13.2348
-13.2974
-19.5167
-19.0909
-18.6889
-18.3132
-17.9642
-17.642
-17.3465
-17.0778
-16.8357
-16.6203
-16.4317
-16.2697
-16.1344
-16.0258
-15.9436
-15.8878
-15.8583
-15.8555
-15.879
-15.9269
-24.8534
-24.3825
-23.9461
-23.541
-23.1651
-22.8175
-22.4977
-22.2056
-21.9412
-21.7044
-21.4954
-21.3141
-21.1606
-21.0351
-20.9376
-20.8682
-20.8276
-20.818
-20.8409
-20.886
-0.377017
-0.443461
-0.519549
-0.605199
-0.700328
-0.80483
-0.918573
-1.0414
-1.17309
-1.31337
-1.46187
-1.61807
-1.78117
-1.94994
-2.12272
-2.29725
-2.46905
-2.62831
-2.75965
-2.88949
-0.698455
-0.767178
-0.845908
-0.934532
-1.03295
-1.14103
-1.25862
-1.38554
-1.52155
-1.66633
-1.81949
-1.98047
-2.14849
-2.32239
-2.50056
-2.68134
-2.86296
-3.0377
-3.19035
-3.36268
-1.04496
-1.11753
-1.20048
-1.29368
-1.397
-1.5103
-1.63341
-1.76612
-1.90817
-2.05924
-2.21888
-2.38655
-2.5615
-2.74269
-2.92877
-3.11856
-3.31107
-3.50193
-3.68543
-3.8915
-1.41634
-1.49277
-1.57999
-1.67786
-1.78623
-1.90495
-2.03382
-2.17262
-2.32106
-2.4788
-2.64539
-2.82029
-3.00279
-3.19198
-3.38679
-3.58635
-3.78985
-3.99498
-4.20224
-4.43202
-1.81518
-1.89563
-1.98732
-2.0901
-2.20382
-2.3283
-2.46332
-2.60865
-2.76398
-2.92896
-3.10315
-3.28602
-3.47692
-3.67506
-3.87964
-4.09003
-4.30563
-4.5254
-4.75198
-4.99852
-2.24428
-2.32901
-2.42551
-2.53359
-2.65309
-2.78381
-2.92553
-3.07799
-3.24089
-3.41387
-3.59649
-3.78826
-3.98859
-4.19684
-4.41238
-4.63479
-4.86369
-5.09885
-5.34304
-5.6041
-2.70677
-2.79603
-2.89764
-3.0114
-3.13712
-3.27459
-3.42357
-3.58381
-3.75499
-3.93676
-4.12871
-4.33038
-4.54124
-4.76075
-4.98845
-5.22404
-5.46732
-5.71847
-5.97974
-6.25555
-3.20644
-3.30059
-3.40763
-3.52742
-3.65977
-3.80447
-3.96128
-4.12994
-4.31014
-4.50152
-4.70371
-4.91628
-5.13877
-5.37072
-5.61178
-5.8617
-6.1204
-6.3882
-6.66669
-6.95832
-3.74887
-3.84792
-3.9606
-4.0867
-4.22605
-4.37844
-4.54362
-4.72132
-4.91124
-5.11305
-5.32638
-5.55085
-5.78604
-6.03158
-6.28715
-6.55256
-6.82777
-7.11305
-7.40941
-7.71822
-4.34077
-4.44477
-4.56328
-4.69588
-4.84252
-5.00297
-5.17698
-5.36428
-5.56458
-5.77756
-6.00289
-6.24019
-6.48912
-6.74932
-7.02053
-7.30256
-7.59536
-7.89909
-8.21432
-8.54182
-4.99151
-5.10041
-5.22454
-5.36386
-5.51795
-5.68671
-5.86989
-6.06723
-6.27845
-6.50324
-6.74129
-6.99226
-7.25583
-7.53168
-7.81955
-8.11927
-8.43073
-8.75396
-9.0892
-9.43693
-5.71403
-5.82752
-5.95718
-6.10284
-6.26441
-6.44152
-6.63402
-6.84165
-7.06414
-7.30118
-7.5525
-7.8178
-8.09675
-8.38906
-8.69448
-9.01282
-9.34392
-9.68765
-10.0441
-10.4135
-6.52646
-6.6439
-6.77857
-6.93019
-7.09869
-7.28414
-7.48587
-7.70366
-7.93742
-8.18689
-8.45177
-8.73176
-9.02656
-9.33589
-9.6595
-9.99717
-10.3487
-10.7138
-11.0924
-11.4847
-7.45464
-7.57495
-7.71366
-7.87047
-8.04517
-8.23775
-8.44899
-8.67614
-8.92084
-9.18242
-9.46067
-9.75531
-10.066
-10.3926
-10.7347
-11.0921
-11.4645
-11.8515
-12.253
-12.6692
-8.53676
-8.65826
-8.79938
-8.95991
-9.13968
-9.33822
-9.55505
-9.79243
-10.0478
-10.3205
-10.6113
-10.9201
-11.2464
-11.5899
-11.9503
-12.3273
-12.7206
-13.1297
-13.5543
-13.9946
-9.83276
-9.9529
-10.094
-10.2559
-10.4386
-10.6416
-10.8645
-11.1073
-11.3703
-11.6538
-11.9565
-12.2786
-12.6197
-12.9791
-13.3565
-13.7519
-14.1652
-14.5957
-15.0428
-15.5069
-11.4242
-11.5398
-11.678
-11.8387
-12.0216
-12.2263
-12.4527
-12.7005
-12.9696
-13.2603
-13.5731
-13.9069
-14.2599
-14.6314
-15.0226
-15.4341
-15.8653
-16.3155
-16.7836
-17.2696
-13.3819
-13.4899
-13.6222
-13.7783
-13.957
-14.1587
-14.3836
-14.6316
-14.9023
-15.1953
-15.5098
-15.8462
-16.2062
-16.5902
-16.9965
-17.4239
-17.8718
-18.34
-18.8275
-19.3333
-15.9971
-16.0891
-16.2051
-16.3465
-16.5148
-16.7092
-16.9289
-17.1734
-17.4424
-17.7356
-18.0523
-18.3922
-18.7557
-19.1432
-19.5545
-19.9891
-20.4468
-20.9283
-21.4335
-21.9574
-20.9277
-21.0001
-21.1034
-21.2353
-21.3946
-21.5807
-21.7932
-22.0315
-22.2953
-22.5844
-22.8985
-23.2375
-23.6017
-23.9912
-24.4063
-24.8468
-25.3139
-25.8114
-26.342
-26.8877
-27.4045
-22.492
-19.8569
-17.7736
-15.9878
-14.4507
-13.1
-11.8908
-10.7958
-9.79707
-8.88153
-8.03945
-7.26323
-6.54663
-5.88447
-5.27223
-4.70464
-4.17614
-3.69519
-3.29079
-27.9492
-23.0428
-20.3962
-18.2926
-16.483
-14.9203
-13.5435
-12.3087
-11.1895
-10.1681
-9.23176
-8.37098
-7.57826
-6.84754
-6.17377
-5.55254
-4.97912
-4.45112
-3.98167
-3.57918
-28.5225
-23.6125
-20.9527
-18.8278
-16.993
-15.4034
-13.9995
-12.7383
-11.594
-10.5493
-9.59159
-8.71161
-7.9019
-7.15641
-6.47008
-5.83841
-5.25676
-4.72286
-4.24628
-3.82428
-29.1202
-24.2018
-21.5264
-19.3787
-17.5172
-15.8994
-14.4673
-13.1788
-12.0085
-10.9396
-9.95992
-9.06001
-8.23245
-7.4711
-6.77067
-6.1264
-5.5334
-4.98874
-4.49915
-4.05842
-29.7392
-24.81
-22.1167
-19.9448
-18.055
-16.4077
-14.9462
-13.6293
-12.4322
-11.3384
-10.3359
-9.4153
-8.56911
-7.79098
-7.0754
-6.41728
-5.81145
-5.25439
-4.75101
-4.29413
-30.3779
-25.4376
-22.7217
-20.5251
-18.6057
-16.9274
-15.4354
-14.0891
-12.8643
-11.7448
-10.7188
-9.77683
-8.9113
-8.11568
-7.38421
-6.71153
-6.09222
-5.52243
-5.00577
-4.5348
-31.0353
-26.0831
-23.3411
-21.1185
-19.1683
-17.4579
-15.9342
-14.5575
-13.3041
-12.1583
-11.108
-10.1441
-9.2587
-8.44512
-7.69735
-7.00981
-6.37693
-5.7946
-5.26536
-4.78171
-31.7099
-26.7445
-23.9745
-21.7244
-19.7421
-17.9983
-16.4418
-15.0337
-13.751
-12.578
-11.503
-10.5167
-9.611
-8.77915
-8.01489
-7.31241
-6.66602
-6.07144
-5.53019
-5.03476
-32.4006
-27.4203
-24.6213
-22.3419
-20.3261
-18.5476
-16.9573
-15.517
-14.2042
-13.0035
-11.9033
-10.8941
-9.96787
-9.11756
-8.33671
-7.61931
-6.95954
-6.35294
-5.80009
-5.29348
-33.1059
-28.1094
-25.2803
-22.9699
-20.9193
-19.1052
-17.48
-16.0066
-14.663
-13.434
-12.3081
-11.2758
-10.3289
-9.46
-8.66253
-7.93025
-7.25721
-6.63875
-6.07455
-5.55712
-33.8248
-28.8107
-25.9505
-23.6076
-21.5209
-19.6699
-18.0089
-16.5017
-15.1266
-13.8689
-12.717
-11.6614
-10.6935
-9.80602
-8.99191
-8.24479
-7.55857
-6.92833
-6.35292
-5.8249
-34.556
-29.523
-26.6308
-24.2539
-22.1299
-20.2409
-18.5433
-17.0015
-15.5944
-14.3075
-13.1293
-12.0501
-11.0613
-10.1551
-9.32434
-8.56241
-7.86303
-7.22105
-6.6345
-6.09603
-35.2984
-30.2452
-27.32
-24.9078
-22.7451
-20.8172
-19.082
-17.505
-16.0654
-14.749
-13.5443
-12.4414
-11.4315
-10.5066
-9.6592
-8.88249
-8.16997
-7.51625
-6.91857
-6.36974
-36.0511
-30.9762
-28.0169
-25.5679
-23.3655
-21.3977
-19.6242
-18.0113
-16.5389
-15.1927
-13.9613
-12.8345
-11.8035
-10.8599
-9.99587
-9.20439
-8.47873
-7.81324
-7.20441
-6.64529
-36.8127
-31.7146
-28.7202
-26.2332
-23.99
-21.9814
-20.1689
-18.5197
-17.0139
-15.6377
-14.3794
-13.2288
-12.1766
-11.2143
-10.3337
-9.52744
-8.78865
-8.11136
-7.49135
-6.92202
-37.5822
-32.4593
-29.4287
-26.9026
-24.6174
-22.5672
-20.7151
-19.029
-17.4896
-16.0832
-14.7979
-13.6235
-12.5501
-11.5691
-10.672
-9.851
-9.09908
-8.40995
-7.77874
-7.19925
-38.359
-33.2089
-30.141
-27.5745
-25.2465
-23.1539
-21.2616
-19.5383
-17.9651
-16.5283
-15.2161
-14.0177
-12.9233
-11.9237
-11.01
-10.1744
-9.40937
-8.70838
-8.06595
-7.4764
-39.1446
-33.9632
-30.8556
-28.2476
-25.8758
-23.7402
-21.8072
-20.0464
-18.4393
-16.9721
-15.6329
-14.4108
-13.2954
-12.2773
-11.3472
-10.497
-9.71887
-9.00602
-8.35237
-7.7529
-39.9391
-34.7207
-31.5707
-28.9199
-26.504
-24.3249
-22.3509
-20.5525
-18.9113
-17.4138
-16.0478
-14.8019
-13.6657
-12.6292
-11.6828
-10.8181
-10.027
-9.30228
-8.63744
-8.02823
-40.7299
-35.4766
-32.2845
-29.5907
-27.1304
-24.9075
-22.8924
-21.0561
-19.3809
-17.853
-16.4602
-15.1908
-14.0339
-12.979
-12.0165
-11.1373
-10.3332
-9.59671
-8.9207
-8.30194
-6.78068
-4.67464
-3.3144
-2.26884
-1.53428
-0.994767
-0.607236
-0.332103
-0.14105
-0.0123344
0.0706682
0.120589
0.147013
0.157097
0.156154
0.148056
0.135617
0.120838
0.105128
0.0894536
0.0744603
0.0605589
0.0479857
0.0368606
0.0272046
0.0189976
0.0121455
0.00658381
0.00214273
-0.00120698
-0.00372802
-0.00531295
-0.00640929
-0.00660686
-0.00674008
-0.00581384
-0.00540565
-0.00348912
-0.00294592
3.82769e-05
-7.03637
-4.85703
-3.46066
-2.38401
-1.62533
-1.06841
-0.667306
-0.381727
-0.18243
-0.0470917
0.0413324
0.095754
0.125959
0.139245
0.141032
0.135268
0.124829
0.111763
0.09752
0.0831002
0.0691772
0.0561861
0.0443848
0.0339116
0.0248032