/*--------------------------------*- C++ -*----------------------------------*\
  =========                 |
  \\      /  F ield         | OpenFOAM: The Open Source CFD Toolbox
   \\    /   O peration     | Website:  https://openfoam.org
    \\  /    A nd           | Version:  6.0
     \\/     M anipulation  |
\*---------------------------------------------------------------------------*/
FoamFile
{
    version     2.0;
    format      ascii;
    class       surfaceScalarField;
    location    "8";
    object      phi;
}
// * * * * * * * * * * * * * * * * * * * * * * * * * * * * * * * * * * * * * //

dimensions      [0 3 -1 0 0 0 0];

internalField   nonuniform List<scalar> 
18940
(
0.000109392
-0.115406
0.115296
0.000518215
-0.10166
0.101252
0.00121743
-0.0915792
0.09088
0.00217896
-0.0841535
0.0831919
0.0033673
-0.0786384
0.07745
0.00474449
-0.0744812
0.073104
0.00627357
-0.0712827
0.0697537
0.00792045
-0.0687573
0.0671105
0.00965466
-0.0667014
0.0649672
0.0114496
-0.0649702
0.0631752
0.0132827
-0.0634612
0.0616281
0.0151349
-0.0621022
0.06025
0.0169906
-0.0608425
0.0589868
0.0188373
-0.0596466
0.0577999
0.0206653
-0.0584892
0.0566612
0.0224672
-0.0573521
0.0555502
0.0242372
-0.0562207
0.0544507
0.0259708
-0.0550825
0.0533489
0.027664
-0.0539244
0.0522312
-0.0527302
0.0510821
0.029312
0.000129712
-0.115536
0.000567334
-0.102098
0.00130376
-0.0923156
0.00230718
-0.0851569
0.00353824
-0.0798694
0.00495607
-0.0758991
0.00652161
-0.0728483
0.00819927
-0.070435
0.00995759
-0.0684597
0.0117694
-0.066782
0.013612
-0.0653037
0.0154663
-0.0639565
0.0173171
-0.0626933
0.0191524
-0.061482
0.0209633
-0.0603001
0.022743
-0.0591318
0.0244868
-0.0579645
0.0261913
-0.056787
0.0278536
-0.0555867
-0.0543469
0.0294703
0.00014534
-0.115681
0.000612254
-0.102565
0.00138554
-0.0930889
0.00242917
-0.0862005
0.00370016
-0.0811404
0.0051549
-0.0773538
0.00675235
-0.0744457
0.00845557
-0.0721382
0.0102322
-0.0702364
0.0120549
-0.0686047
0.0139005
-0.0671493
0.0157504
-0.0658064
0.0175899
-0.0645328
0.0194075
-0.0632996
0.021195
-0.0620876
0.0229467
-0.0608835
0.0246589
-0.0596766
0.0263291
-0.0584573
0.0279559
-0.0572134
-0.0559283
0.0295372
0.000159198
-0.11584
0.000654395
-0.10306
0.00146316
-0.0938977
0.0025447
-0.087282
0.0038524
-0.0824481
0.00534002
-0.0788414
0.00696462
-0.0760703
0.00868802
-0.0738616
0.0104772
-0.0720256
0.0123045
-0.0704319
0.0141469
-0.0689917
0.0159861
-0.0676457
0.017808
-0.0663547
0.0196019
-0.0650935
0.0213604
-0.0638461
0.0230788
-0.0626018
0.0247543
-0.0613521
0.0263858
-0.0600888
0.027973
-0.0588006
-0.0574708
0.0295155
0.0001721
-0.116012
0.000694256
-0.103582
0.00153663
-0.0947401
0.00265341
-0.0883988
0.00399435
-0.0837891
0.00551057
-0.0803576
0.00715738
-0.0777172
0.00889552
-0.0755997
0.0106914
-0.0738215
0.0125172
-0.0722577
0.0143503
-0.0708248
0.0161727
-0.0694681
0.0179711
-0.068153
0.0197356
-0.066858
0.0214598
-0.0655703
0.0231399
-0.0642819
0.0247744
-0.0629866
0.0263633
-0.0616778
0.0279076
-0.0603449
-0.0589714
0.0294083
0.000184324
-0.116197
0.000732022
-0.10413
0.00160589
-0.0956139
0.002755
-0.0895479
0.00412544
-0.0851595
0.00566583
-0.081898
0.00732981
-0.0793811
0.00907717
-0.0773471
0.010874
-0.0756183
0.0126923
-0.0740761
0.01451
-0.0726424
0.0163098
-0.0712679
0.0180791
-0.0699222
0.0198089
-0.0685879
0.0214939
-0.0672553
0.0231314
-0.0659194
0.0247209
-0.0645762
0.0262639
-0.0632207
0.0277624
-0.0618435
-0.060428
0.029219
0.000195955
-0.116392
0.000767718
-0.104702
0.00167081
-0.096517
0.00284914
-0.0907263
0.00424523
-0.0865556
0.00580524
-0.083458
0.00748129
-0.0810572
0.00923237
-0.0790982
0.0110243
-0.0774103
0.0128294
-0.0758812
0.014626
-0.074439
0.0163977
-0.0730396
0.0181325
-0.0716571
0.0198228
-0.0702781
0.0214641
-0.0688966
0.023055
-0.0675102
0.0245962
-0.0661174
0.0260902
-0.0647148
0.0275406
-0.0632939
-0.0618385
0.0289511
0.000207006
-0.116599
0.00080131
-0.105296
0.00173123
-0.0974469
0.0029356
-0.0919306
0.00435338
-0.0879734
0.0059284
-0.085033
0.00761142
-0.0827402
0.00936077
-0.0808475
0.0111422
-0.0791917
0.0129285
-0.0776675
0.0146985
-0.0762091
0.0164367
-0.0747778
0.0181323
-0.0733526
0.0197785
-0.0719243
0.0213721
-0.0704902
0.0229128
-0.0690509
0.0244025
-0.0676072
0.0258451
-0.0661574
0.0272453
-0.064694
-0.0632014
0.0286082
0.000217459
-0.116817
0.000832742
-0.105911
0.00178707
-0.0984013
0.0030142
-0.0931578
0.00444967
-0.0894089
0.00603508
-0.0866185
0.00772
-0.0844251
0.00946229
-0.0825898
0.0112279
-0.0809573
0.0129899
-0.0794295
0.0147282
-0.0779473
0.016428
-0.0764776
0.0180797
-0.0750044
0.0196777
-0.0735223
0.0212199
-0.0720324
0.0227071
-0.0705381
0.0241426
-0.0690427
0.0255313
-0.0675461
0.0268795
-0.0660422
-0.0645154
0.0281935
0.000227285
-0.117044
0.000861974
-0.106546
0.00183825
-0.0993775
0.00308487
-0.0944044
0.004534
-0.090858
0.00612523
-0.0882097
0.00780708
-0.086107
0.00953714
-0.0843199
0.0112816
-0.0827017
0.0130143
-0.0811622
0.0147159
-0.0796489
0.0163729
-0.0781346
0.0179766
-0.0766081
0.0195226
-0.0750683
0.02101
-0.0735198
0.0224407
-0.0719688
0.0238193
-0.0704212
0.0251519
-0.0688788
0.0264462
-0.0673365
-0.0657791
0.02771
0.000236467
-0.117281
0.000888999
-0.107199
0.00188479
-0.100373
0.00314763
-0.0956672
0.00460644
-0.0923168
0.00619898
-0.0898022
0.00787292
-0.0877809
0.00958579
-0.0860328
0.0113042
-0.0844201
0.0130028
-0.0828608
0.0146633
-0.0813094
0.0162732
-0.0797445
0.0178251
-0.07816
0.0193157
-0.0765589
0.0207451
-0.0749492
0.0221165
-0.0733402
0.0234355
-0.0717403
0.0247099
-0.0701531
0.0259484
-0.068575
-0.0669911
0.0271604
0.000244995
-0.117526
0.000913866
-0.107868
0.00192679
-0.101386
0.0032026
-0.096943
0.00466718
-0.0937814
0.00625662
-0.0913917
0.00791801
-0.0894423
0.00960896
-0.0877237
0.0112967
-0.0861079
0.0129568
-0.084521
0.0145721
-0.0829247
0.0161312
-0.0813037
0.0176279
-0.0796567
0.01906
-0.0779909
0.0204285
-0.0763177
0.0217379
-0.0746496
0.0229948
-0.0729972
0.0242082
-0.0713666
0.0253887
-0.0697554
-0.0681494
0.0265469
0.000252897
-0.117779
0.000936704
-0.108551
0.00196444
-0.102414
0.00325005
-0.0982287
0.00471655
-0.0952479
0.00629864
-0.0929738
0.00794302
-0.0910867
0.00960764
-0.0893883
0.0112604
-0.0877607
0.0128781
-0.0861386
0.0144445
-0.0844911
0.0159496
-0.0828087
0.0173881
-0.0810952
0.0187589
-0.0793617
0.0200641
-0.0776229
0.0213088
-0.0758943
0.0225008
-0.0741892
0.0236505
-0.0725163
0.0247699
-0.0708749
-0.0692512
0.0258718
0.000260266
-0.118039
0.000957761
-0.109249
0.00199809
-0.103454
0.00329034
-0.0995209
0.00475498
-0.0967125
0.00632562
-0.0945444
0.00794883
-0.0927099
0.00958303
-0.0910225
0.0111971
-0.0893747
0.0127687
-0.0877103
0.0142831
-0.0860055
0.0157314
-0.084257
0.0171094
-0.0824732
0.0184167
-0.0806691
0.0196563
-0.0788625
0.020834
-0.0770719
0.0219583
-0.0753135
0.0230408
-0.0735988
0.0240955
-0.0719296
-0.0702929
0.0251371
0.000267325
-0.118306
0.00097747
-0.109959
0.00202819
-0.104505
0.00332394
-0.100817
0.00478302
-0.0981716
0.00633829
-0.0960997
0.00793642
-0.094308
0.00953651
-0.0926226
0.0111084
-0.0909467
0.0126311
-0.089233
0.014091
-0.0874654
0.0154803
-0.0856463
0.016796
-0.0837888
0.0180383
-0.0819114
0.0192107
-0.080035
0.0203193
-0.0781804
0.021373
-0.0763672
0.0223844
-0.0746101
0.0233692
-0.0729144
-0.0712688
0.0243452
0.000274532
-0.118581
0.000996499
-0.110681
0.00205534
-0.105564
0.00335137
-0.102113
0.00480123
-0.0996215
0.00633739
-0.0976358
0.00790686
-0.0958775
0.00946953
-0.0941853
0.0109964
-0.0924736
0.0124678
-0.0907044
0.0138713
-0.0888689
0.0152004
-0.0869754
0.0164528
-0.0850412
0.0176295
-0.0830881
0.0187341
-0.0811395
0.0197724
-0.0792187
0.0207531
-0.0773479
0.021689
-0.075546
0.0225977
-0.0738231
-0.0721717
0.0235006
0.000282674
-0.118863
0.00101574
-0.111414
0.00208019
-0.106628
0.00337314
-0.103406
0.00481018
-0.101058
0.00632368
-0.0991493
0.00786118
-0.097415
0.00938357
-0.0957077
0.0108631
-0.0939531
0.0122814
-0.0921227
0.0136275
-0.090215
0.0148959
-0.0882438
0.0160852
-0.0862305
0.0171968
-0.0841998
0.0182343
-0.082177
0.0192029
-0.0801872
0.02011
-0.078255
0.0209672
-0.0764032
0.0217929
-0.0746488
-0.0729921
0.0226133
0.000293072
-0.119156
0.00103651
-0.112157
0.00210359
-0.107695
0.0033898
-0.104692
0.00481035
-0.102479
0.00629779
-0.100637
0.00780034
-0.0989175
0.00927997
-0.0971873
0.0107103
-0.0953835
0.0120744
-0.0934868
0.0133627
-0.0915032
0.0145708
-0.0894519
0.0156982
-0.087358
0.0167469
-0.0852485
0.01772
-0.0831501
0.0186217
-0.0810889
0.0194574
-0.0790907
0.0202354
-0.0771813
0.0209719
-0.0753853
-0.0737177
0.0216975
0.00030924
-0.119466
0.00106176
-0.11291
0.00212686
-0.108761
0.00340185
-0.105967
0.00480207
-0.103879
0.00626017
-0.102095
0.00772502
-0.100382
0.00915976
-0.098622
0.0105395
-0.0967632
0.0118488
-0.0947961
0.0130796
-0.092734
0.014229
-0.0906012
0.0152973
-0.0884263
0.016287
-0.0862382
0.0172011
-0.0840642
0.0180424
-0.0819302
0.018813
-0.0798613
0.0195138
-0.0778821
0.0201526
-0.076024
-0.0743428
0.0207777
0.000342476
-0.119808
0.00109562
-0.113663
0.00215044
-0.109815
0.00340889
-0.107225
0.00478504
-0.105255
0.0062108
-0.103521
0.00763551
-0.101807
0.00902353
-0.10001
0.0103515
-0.0980912
0.0116058
-0.0960504
0.01278
-0.0939082
0.0138726
-0.0916939
0.0148857
-0.0894394
0.0158228
-0.0871753
0.0166881
-0.0849295
0.0174844
-0.0827266
0.0182113
-0.0805882
0.018859
-0.0785299
0.0194081
-0.0765731
-0.074815
0.0198804
0.125272
0.000270992
-0.125543
0.12501
0.000261852
0.124748
0.000262716
0.124481
0.000266843
0.124209
0.000272106
0.123931
0.000277691
0.123648
0.0002831
0.12336
0.000288036
0.123067
0.000292343
0.122772
0.000295954
0.122473
0.000298834
0.122172
0.000300972
0.121869
0.000302356
0.121566
0.000302964
0.121264
0.000302749
0.120962
0.000301592
0.120663
0.000299237
0.120368
0.000295081
0.12008
0.000287578
0.000272002
0.126245
0.000761188
-0.126736
0.125727
0.000780685
0.125185
0.000804666
0.124621
0.0008306
0.124036
0.00085666
0.123432
0.000882041
0.122809
0.000906199
0.122168
0.000928706
0.121511
0.000949275
0.120839
0.000967722
0.120154
0.000983929
0.119458
0.000997817
0.118751
0.00100932
0.118035
0.00101837
0.117313
0.00102486
0.116586
0.00102859
0.115856
0.00102925
0.115125
0.00102619
0.114394
0.00101824
0.00100318
0.126525
0.00132551
-0.127089
0.125914
0.00139208
0.125261
0.00145792
0.124568
0.00152266
0.12384
0.00158536
0.123076
0.00164545
0.12228
0.00170249
0.121453
0.00175611
0.120596
0.00180597
0.119712
0.00185182
0.118802
0.00189346
0.117869
0.00193075
0.116915
0.00196355
0.115942
0.00199174
0.114951
0.00201517
0.113946
0.00203365
0.112929
0.00204693
0.1119
0.00205461
0.110863
0.00205606
0.00205035
0.125861
0.00187353
-0.126409
0.125256
0.00199715
0.124597
0.00211703
0.123887
0.00223324
0.123127
0.00234525
0.122319
0.00245263
0.121467
0.00255498
0.120571
0.00265192
0.119634
0.00274309
0.118658
0.00282819
0.117644
0.00290696
0.116596
0.00297916
0.115515
0.00304461
0.114403
0.00310312
0.113264
0.00315451
0.112099
0.0031986
0.110911
0.00323523
0.109701
0.00326414
0.108472
0.00328497
0.00329734
0.124289
0.00235229
-0.124767
0.123747
0.00253922
0.123143
0.00272076
0.122479
0.00289685
0.121757
0.00306705
0.120979
0.00323091
0.120146
0.00338797
0.11926
0.00353781
0.118323
0.00368001
0.117337
0.00381418
0.116304
0.00393997
0.115226
0.0040571
0.114106
0.00416527
0.112945
0.00426423
0.111745
0.00435377
0.11051
0.00443371
0.109242
0.00450393
0.107942
0.00456419
0.106612
0.0046143
0.00465415
0.121956
0.0027371
-0.122341
0.121504
0.00299084
0.120987
0.00323831
0.120404
0.00347919
0.119758
0.00371301
0.11905
0.00393921
0.118281
0.00415725
0.117452
0.00436659
0.116565
0.00456673
0.115622
0.00475718
0.114625
0.00493751
0.113575
0.00510731
0.112474
0.00526621
0.111324
0.00541387
0.110128
0.00555002
0.108887
0.0056745
0.107604
0.00578712
0.10628
0.00588767
0.104919
0.00597602
0.00605216
0.119057
0.00302234
-0.119342
0.118703
0.00334411
0.118282
0.00365919
0.117795
0.00396706
0.117241
0.00426712
0.116621
0.00455871
0.115937
0.00484117
0.11519
0.00511387
0.11438
0.00537619
0.11351
0.00562753
0.11258
0.00586736
0.111592
0.00609516
0.110548
0.00631044
0.109449
0.0065128
0.108297
0.00670193
0.107094
0.00687759
0.105842
0.00703953
0.104542
0.00718754
0.103196
0.00732151
0.00744146
0.115784
0.00321404
-0.115975
0.115524
0.00360332
0.115198
0.00398581
0.114804
0.0043608
0.114344
0.00472759
0.113817
0.00508541
0.113225
0.0054335
0.112567
0.00577111
0.111846
0.00609753
0.111062
0.00641205
0.110215
0.00671403
0.109307
0.00700286
0.10834
0.00727794
0.107314
0.00753879
0.106231
0.00778505
0.105092
0.0080164
0.103899
0.0082325
0.102653
0.00843315
0.101356
0.00861825
0.00878782
0.112306
0.00332448
-0.112416
0.112129
0.00377957
0.111887
0.00422795
0.111579
0.00466879
0.111205
0.00510127
0.110766
0.00552455
0.110262
0.00593776
0.109693
0.00634008
0.10906
0.00673069
0.108363
0.00710881
0.107604
0.00747368
0.106782
0.0078246
0.105899
0.00816089
0.104956
0.00848202
0.103953
0.00878756
0.102892
0.00907706
0.101775
0.00935017
0.100601
0.00960668
0.099373
0.00984647
0.0100696
0.108758
0.00336855
-0.108802
0.10865
0.00388705
0.108479
0.004399
0.108244
0.00490351
0.107946
0.00539965
0.107584
0.00588652
0.107159
0.00636318
0.10667
0.00682873
0.106118
0.00728228
0.105504
0.00772298
0.104828
0.00815
0.10409
0.00856252
0.103291
0.00895984
0.102432
0.00934137
0.101513
0.00970659
0.100535
0.010055
0.0994987
0.0103861
0.0984055
0.0106999
0.0972558
0.0109961
0.011275
0.105241
0.0033614
-0.105234
0.105187
0.00394056
0.105073
0.00451338
0.104898
0.00507887
0.104661
0.00563608
0.104364
0.00618401
0.104005
0.0067217
0.103586
0.00724817
0.103106
0.0077625
0.102565
0.00826378
0.101964
0.0087511
0.101303
0.0092236
0.100582
0.00968055
0.0998019
0.0101213
0.0989632
0.0105452
0.0980664
0.0109518
0.097112
0.0113406
0.0961004
0.0117114
0.0950324
0.0120642
0.0123993
0.101826
0.00331711
-0.101782
0.101813
0.00395413
0.101741
0.00458496
0.101611
0.00520857
0.101424
0.00582396
0.101177
0.0064301
0.100873
0.00702599
0.100511
0.00761062
0.10009
0.00818301
0.0996118
0.00874223
0.0990756
0.00928732
0.0984818
0.0098174
0.0978306
0.0103317
0.0971223
0.0108296
0.0963573
0.0113102
0.0955359
0.0117732
0.0946586
0.012218
0.0937255
0.0126444
0.0927373
0.0130524
0.0134427
0.0985591
0.00324791
-0.0984899
0.0985731
0.00394008
0.0985319
0.00462614
0.0984355
0.00530502
0.0982838
0.00597569
0.0980768
0.0066371
0.0978145
0.00728821
0.0974971
0.007928
0.0971247
0.00855548
0.0966972
0.00916968
0.096215
0.0097696
0.095678
0.0103544
0.0950865
0.0109232
0.0944406
0.0114754
0.0937406
0.0120102
0.0929869
0.012527
0.0921796
0.0130253
0.091319
0.013505
0.0904057
0.0139657
0.014409
0.0954646
0.00316396
-0.0953806
0.0954959
0.00390878
0.0954746
0.00464744
0.0954007
0.00537888
0.0952743
0.00610204
0.0950956
0.00681584
0.0948646
0.00751923
0.0945814
0.00821118
0.0942462
0.0088907
0.0938591
0.00955677
0.0934203
0.0102084
0.0929299
0.0108448
0.092388
0.0114651
0.091795
0.0120685
0.0911509
0.0126543
0.0904561
0.0132218
0.0897108
0.0137706
0.0889152
0.0143005
0.0880702
0.0148108
0.0153039
0.0925532
0.00307329
-0.0924625
0.0925935
0.00386847
0.0925835
0.00465736
0.0925236
0.00543886
0.0924137
0.00621189
0.0922542
0.00697537
0.0920452
0.00772823
0.0917869
0.00846944
0.0914796
0.009198
0.0911235
0.00991289
0.0907188
0.0106131
0.0902656
0.0112979
0.0897643
0.0119664
0.0892151
0.0126177
0.0886181
0.0132512
0.0879737
0.0138662
0.0872822
0.0144621
0.0865439
0.0150388
0.0857598
0.0155948
0.0161342
0.0898247
0.00298193
-0.0897333
0.0898677
0.00382546
0.0898627
0.00466241
0.0898098
0.00549169
0.0897095
0.00631219
0.0895621
0.00712283
0.0893678
0.00792253
0.089127
0.00871026
0.0888399
0.00948501
0.0885071
0.0102458
0.0881287
0.0109915
0.087705
0.0117216
0.0872364
0.012435
0.0867232
0.013131
0.0861656
0.0138088
0.085564
0.0144679
0.0849187
0.0151074
0.08423
0.0157275
0.0834998
0.016325
0.0169075
0.0872721
0.00289414
-0.0871843
0.0873134
0.00378417
0.0873086
0.00466723
0.0872581
0.00554221
0.0871623
0.00640799
0.0870217
0.00726346
0.0868367
0.00810754
0.0866077
0.00893921
0.0863353
0.00975744
0.0860198
0.0105612
0.0856617
0.0113496
0.0852615
0.0121218
0.0848195
0.012877
0.0843361
0.0136143
0.0838117
0.0143331
0.0832468
0.0150328
0.0826415
0.0157127
0.0819961
0.0163729
0.0813123
0.0170087
0.0176316
0.0848844
0.00281254
-0.0848028
0.0849212
0.00374737
0.0849137
0.00467472
0.0848625
0.00559347
0.084768
0.00650246
0.0846309
0.00740057
0.0844517
0.00828671
0.0842311
0.00915986
0.0839696
0.010019
0.0836677
0.0108631
0.0833261
0.0116912
0.0829453
0.0125026
0.0825258
0.0132965
0.0820683
0.0140719
0.0815731
0.0148283
0.0810408
0.0155651
0.0804715
0.016282
0.0798649
0.0169795
0.0792196
0.017654
0.0183214
0.0826478
0.00273823
-0.0825735
0.0826789
0.0037162
0.0826676
0.00468607
0.0826144
0.00564669
0.08252
0.00659687
0.0823851
0.00753546
0.0822104
0.00846138
0.0819967
0.00937357
0.0817446
0.010271
0.081455
0.0111527
0.0811284
0.0120178
0.0807656
0.0128654
0.0803673
0.0136948
0.0799341
0.0145051
0.0794667
0.0152957
0.0789657
0.0160661
0.0784315
0.0168162
0.077864
0.017547
0.0772549
0.0182631
0.0190032
0.0805465
-0.0804794
0.00267109
0.0805722
0.00369049
0.0805573
0.00470102
0.0805024
0.00570153
0.0804085
0.00669079
0.0802764
0.00766761
0.0801069
0.0086309
0.0799008
0.00957961
0.0796591
0.0105127
0.0793827
0.0114292
0.0790722
0.0123283
0.0787286
0.013209
0.0783527
0.0140707
0.0779453
0.0149125
0.0775073
0.0157337
0.0770395
0.0165339
0.0765425
0.0173132
0.0760186
0.0180709
0.0754569
0.0188247
0.0196451
0.127601
1.57274e-05
-0.127616
0.127601
-4.94473e-07
0.1276
1.55382e-06
0.127589
1.04474e-05
0.127567
2.25651e-05
0.12753
3.64951e-05
0.127479
5.13513e-05
0.127412
6.6574e-05
0.12733
8.18408e-05
0.127233
9.69679e-05
0.127122
0.000111835
0.126995
0.000126358
0.126855
0.000140461
0.126701
0.00015407
0.126534
0.000167096
0.126354
0.00017941
0.126163
0.000190796
0.125963
0.000200809
0.125754
0.000208413
0.000210984
0.12955
-0.000168341
-0.129366
0.129699
-0.000148994
0.129818
-0.000117671
0.129907
-7.8694e-05
0.129965
-3.52193e-05
0.12999
1.13335e-05
0.129981
5.99591e-05
0.129938
0.000109825
0.12986
0.000160304
0.129746
0.000210934
0.129596
0.000261355
0.129411
0.000311265
0.129191
0.000360396
0.128937
0.00040849
0.128649
0.000455285
0.128328
0.00050047
0.127975
0.000543649
0.127591
0.000584237
0.127178
0.000621328
0.000653839
0.128756
-0.000555666
-0.128368
0.129092
-0.000485119
0.129382
-0.000407689
0.129627
-0.000323911
0.129827
-0.000235397
0.129982
-0.000143158
0.13009
-4.80029e-05
0.13015
4.92691e-05
0.130163
0.000147923
0.130126
0.000247321
0.130041
0.000346894
0.129906
0.000446132
0.129722
0.000544555
0.129488
0.000641706
0.129207
0.000737132
0.128877
0.000830359
0.1285
0.000920873
0.128076
0.00100809
0.127606
0.00109131
0.00117002
0.126039
-0.00112264
-0.125472
0.126552
-0.000998796
0.127014
-0.000869287
0.127424
-0.000733792
0.127781
-0.000593035
0.128086
-0.000447747
0.128337
-0.000298629
0.128532
-0.000146437
0.128672
8.05502e-06
0.128755
0.000164096
0.128781
0.000320973
0.128749
0.000478001
0.12866
0.000634524
0.128511
0.000789906
0.128305
0.000943522
0.128041
0.00109475
0.127718
0.00124296
0.127339
0.00138752
0.126903
0.00152776
0.00166325
0.122104
-0.00183983
-0.121387
0.122769
-0.00166381
0.123381
-0.00148135
0.12394
-0.00129214
0.124443
-0.00109659
0.124891
-0.000895317
0.125281
-0.00068903
0.125613
-0.0004785
0.125886
-0.000264561
0.126098
-4.80532e-05
0.126249
0.000170183
0.126337
0.000389325
0.126363
0.000608565
0.126326
0.000827117
0.126225
0.00104421
0.126061
0.00125908
0.125833
0.00147099
0.125541
0.00167921
0.125186
0.00188304
0.00208198
0.117491
-0.00267573
-0.116655
0.118277
-0.00244961
0.119011
-0.00221542
0.119692
-0.00197306
0.120318
-0.00172286
0.120888
-0.00146544
0.121401
-0.00120155
0.121854
-0.000932041
0.122248
-0.000657821
0.12258
-0.000379838
0.122849
-9.90496e-05
0.123054
0.000183599
0.123196
0.000467171
0.123272
0.000750751
0.123283
0.00103344
0.123228
0.00131436
0.123106
0.00159265
0.122918
0.00186751
0.122663
0.00213813
0.00240391
0.112595
-0.0036005
-0.111671
0.113472
-0.00332662
0.1143
-0.00304279
0.115076
-0.002749
0.115798
-0.00244563
0.116466
-0.00213332
0.117078
-0.00181293
0.117631
-0.00148539
0.118125
-0.00115172
0.118558
-0.000812988
0.118929
-0.000470259
0.119238
-0.000124598
0.119482
0.000222949
0.119661
0.00057135
0.119775
0.0009196
0.119823
0.00126672
0.119804
0.00161175
0.119717
0.00195378
0.119563
0.00229194
0.00262548
0.107692
-0.00458818
-0.106704
0.108634
-0.0042689
0.109529
-0.00393769
0.110375
-0.00359459
0.111169
-0.00323999
0.11191
-0.00287465
0.112597
-0.0024995
0.113227
-0.00211563
0.1138
-0.00172418
0.114313
-0.00132632
0.114766
-0.000923247
0.115157
-0.000516124
0.115486
-0.000106107
0.115752
0.000305678
0.115954
0.000718131
0.11609
0.00113018
0.116161
0.00154079
0.116166
0.00194897
0.116104
0.00235373
0.00275424
0.102959
-0.00561742
-0.10193
0.103945
-0.00525496
0.104886
-0.00487859
0.10578
-0.00448824
0.106624
-0.00408441
0.107417
-0.00366795
0.108158
-0.00323995
0.108844
-0.00280164
0.109474
-0.00235431
0.110047
-0.00189926
0.110562
-0.00143781
0.111017
-0.000971237
0.111411
-0.000500782
0.111745
-2.76602e-05
0.112016
0.000446948
0.112224
0.000921896
0.112369
0.00139607
0.112449
0.00186841
0.112465
0.00233786
0.00280347
0.0985026
-0.00667139
-0.0974487
0.0995155
-0.00626786
0.100485
-0.00584838
0.10141
-0.00541269
0.102287
-0.00496138
0.103114
-0.00449552
0.103891
-0.00401636
0.104614
-0.00352534
0.105284
-0.00302392
0.105898
-0.00251357
0.106456
-0.00199572
0.106957
-0.00147175
0.107399
-0.000942997
0.107782
-0.00041076
0.108105
0.000123715
0.108368
0.000659217
0.108569
0.00119457
0.108709
0.00172865
0.108787
0.00226035
0.00278863
0.0943751
-0.00773726
-0.0933093
0.0954022
-0.00729487
0.096388
-0.00683421
0.0973301
-0.00635477
0.0982261
-0.00585744
0.0990741
-0.0053435
0.0998722
-0.0048145
0.100619
-0.00427214
0.101313
-0.0037181
0.101954
-0.00315403
0.102539
-0.0025815
0.10307
-0.00200199
0.103544
-0.00141695
0.103961
-0.000827718
0.10432
-0.000235619
0.104621
0.000358084
0.104863
0.000952173
0.105047
0.00154546
0.10517
0.00213681
0.0027251
0.0905932
-0.00880568
-0.0895248
0.0916253
-0.00832701
0.0926181
-0.00782701
0.0935685
-0.00730512
0.0944738
-0.00676272
0.0953318
-0.00620152
0.0961408
-0.00562347
0.0968993
-0.00503064
0.0976062
-0.004425
0.0982605
-0.0038084
0.0988616
-0.00318256
0.0994087
-0.00254908
0.0999012
-0.00190946
0.100339
-0.00126513
0.10072
-0.000617457
0.101046
3.22637e-05
0.101316
0.000682767
0.101528
0.00133283
0.101684
0.00198128
0.00262695
0.08715
-0.00987018
-0.0860855
0.0881816
-0.00935863
0.0891757
-0.00882106
0.0901281
-0.00825753
0.0910358
-0.00767041
0.0918963
-0.00706208
0.092708
-0.00643512
0.0934695
-0.00579212
0.0941799
-0.00513542
0.0948386
-0.00446707
0.095445
-0.00378894
0.0959986
-0.00310271
0.0964991
-0.00240996
0.0969461
-0.00171215
0.0973393
-0.00101069
0.0976785
-0.000306898
0.0979633
0.000397923
0.0981936
0.00110253
0.0983692
0.00180572
0.00250628
0.084025
-0.0109269
-0.0829683
0.0850536
-0.0103873
0.0860461
-0.00981356
0.0869969
-0.00920833
0.0879024
-0.00857587
0.08876
-0.00791966
0.0895681
-0.00724324
0.0903258
-0.00654986
0.0910326
-0.00584221
0.0916881
-0.00512256
0.092292
-0.00439287
0.0928442
-0.00365487
0.0933444
-0.00291018
0.0937925
-0.00216027
0.0941884
-0.00140656
0.0945319
-0.000650413
0.094823
0.000106875
0.0950615
0.000864032
0.0952474
0.00161983
0.00237303
0.0811909
-0.0119747
-0.0801431
0.082217
-0.0114134
0.0832074
-0.0108039
0.0841545
-0.0101554
0.0850543
-0.00947567
0.0859045
-0.00876984
0.086704
-0.00804277
0.0874525
-0.00729842
0.0881501
-0.00653974
0.0887966
-0.00576908
0.0893921
-0.00498842
0.0899368
-0.0041995
0.0904305
-0.00340388
0.0908733
-0.00260307
0.0912652
-0.00179847
0.0916062
-0.000991441
0.0918964
-0.00018331
0.0921358
0.000624641
0.0923244
0.00143116
0.00223499
0.0786191
-0.0130158
-0.077578
0.0796458
-0.0124401
0.0806345
-0.0117926
0.0815761
-0.0110971
0.0824669
-0.0103664
0.0833054
-0.00960839
0.0840919
-0.00882922
0.0848267
-0.00803327
0.0855105
-0.00722352
0.0861437
-0.00640221
0.0867264
-0.00557121
0.0872591
-0.00473215
0.0877418
-0.00388657
0.0881746
-0.00303592
0.0885578
-0.00218162
0.0888914
-0.00132503
0.0891756
-0.000467482
0.0894105
0.000389721
0.0895963
0.00124531
0.00209799
0.0762818
-0.0140594
-0.0752382
0.0773147
-0.0134729
0.078302
-0.0127799
0.0792351
-0.0120303
0.0801124
-0.0112437
0.0809348
-0.0104308
0.081704
-0.0095984
0.0824214
-0.00875068
0.0830881
-0.00789018
0.0837047
-0.00701882
0.0842717
-0.00613821
0.0847894
-0.00524986
0.0852581
-0.00435522
0.0856779
-0.00345574
0.0860491
-0.00255282
0.0863719
-0.00164783
0.0866465
-0.000742126
0.0868733
0.000162959
0.0870524
0.00106614
0.00196608
0.0741553
-0.015131
-0.0730838
0.0752005
-0.0145181
0.0761832
-0.0137626
0.0771023
-0.0129494
0.0779605
-0.0121019
0.0787621
-0.0112324
0.0795105
-0.0103468
0.0802078
-0.00944797
0.0808552
-0.00853757
0.0814534
-0.00761703
0.0820029
-0.00668767
0.0825039
-0.00575089
0.0829568
-0.00480808
0.0833617
-0.00386069
0.083719
-0.00291014
0.084029
-0.00195782
0.084292
-0.00100512
0.0845084
-5.34047e-05
0.0846785
0.000896014
0.00184177
0.0722311
-0.0162627
-0.0710994
0.0732805
-0.0155674
0.0742477
-0.0147298
0.075144
-0.0138457
0.0759774
-0.0129354
0.0767548
-0.0120098
0.0774805
-0.0110725
0.0781564
-0.0101239
0.0787837
-0.00916485
0.0793628
-0.00819613
0.0798941
-0.00721893
0.0803777
-0.00623454
0.0808141
-0.00524441
0.0812034
-0.00425
0.081546
-0.00325276
0.0818423
-0.00225414
0.0820927
-0.00125556
0.0822977
-0.000258407
0.0824578
0.000735954
0.00172611
0.0705025
-0.0693907
-0.0173744
0.0715176
-0.0165825
0.072456
-0.0156683
0.0733221
-0.0147118
0.0741285
-0.0137417
0.0748818
-0.0127632
0.0755853
-0.0117759
0.0762404
-0.0107791
0.076848
-0.00977241
0.0774082
-0.00875637
0.0779213
-0.00773204
0.0783876
-0.0067008
0.0788073
-0.00566411
0.0791808
-0.00462351
0.0795086
-0.00358053
0.0797911
-0.00253664
0.0800288
-0.00149331
0.0802224
-0.000451974
0.0803724
0.00058598
0.00161909
0.0237101
0.045472
-0.044071
-0.0251112
0.0222975
0.0470597
-0.0456471
0.0208739
0.0487923
-0.0473687
0.0194402
0.0506988
-0.049265
0.0179976
0.0528132
-0.0513706
0.0165478
0.0551741
-0.0537244
0.0150932
0.0578253
-0.0563707
0.0136367
0.0608156
-0.0593591
0.0121818
0.0641975
-0.0627426
0.0107331
0.0680237
-0.0665751
0.00929644
0.0723439
-0.0709072
0.00787947
0.0771973
-0.0757803
0.00649252
0.0826047
-0.0812177
0.00515
0.0885547
-0.0872121
0.00387236
0.0949863
-0.0937087
0.0026887
0.101764
-0.10058
0.00164017
0.108643
-0.107594
0.000784494
0.115219
-0.114363
0.000202986
0.120847
-0.120266
0.124582
-0.124379
0.0236832
0.0468666
-0.0250778
0.0222765
0.0484665
0.0208582
0.0502105
0.0194293
0.0521277
0.0179907
0.0542518
0.0165441
0.0566207
0.0150916
0.0592777
0.0136361
0.0622711
0.0121813
0.0656523
0.0107317
0.0694733
0.00929341
0.0737822
0.00787427
0.0786164
0.00648511
0.0839938
0.00514098
0.0898988
0.00386309
0.0962642
0.00268151
0.102946
0.00163842
0.109686
0.000791673
0.116065
0.000217068
0.121422
0.124799
0.0236191
0.0482533
-0.0250057
0.02222
0.0498656
0.0208089
0.0516216
0.0193864
0.0535502
0.0179535
0.0556847
0.0165118
0.0580624
0.0150634
0.0607261
0.0136111
0.0637235
0.0121584
0.067105
0.0107101
0.0709216
0.00927228
0.07522
0.00785326
0.0800355
0.00646422
0.0853829
0.00512076
0.0912423
0.00384478
0.0975402
0.00266699
0.104123
0.00162986
0.110723
0.000790257
0.116905
0.000219874
0.121992
0.125019
0.0235186
0.0496303
-0.0248957
0.0221286
0.0512556
0.0207261
0.0530241
0.0193117
0.0549646
0.0178863
0.0571101
0.0164513
0.0594974
0.0150088
0.0621687
0.0135614
0.0651708
0.0121129
0.0685535
0.0106679
0.0723666
0.00923283
0.076655
0.00781615
0.0814522
0.00642949
0.0867695
0.00508894
0.0925828
0.00381696
0.0988122
0.0026447
0.105296
0.00161466
0.111753
0.000782749
0.117737
0.000218198
0.122557
0.125237
0.0233824
0.0509966
-0.0247486
0.0220028
0.0526352
0.0206104
0.0544165
0.0192056
0.0563694
0.0177892
0.0585265
0.0163625
0.060924
0.0149276
0.0636036
0.0134871
0.0666113
0.0120447
0.069996
0.0106051
0.0738062
0.00917486
0.0780853
0.00776273
0.0828643
0.00638069
0.0881516
0.0050453
0.0939182
0.00377949
0.100078
0.00261477
0.10646
0.00159356
0.112774
0.000770907
0.11856
0.000214142
0.123114
0.125451
0.0232113
0.0523508
-0.0245656
0.0218434
0.0540031
0.0204623
0.0557976
0.0190684
0.0577633
0.0176624
0.0599324
0.0162457
0.0623407
0.0148201
0.0650292
0.0133882
0.0680431
0.0119537
0.0714305
0.0105215
0.0752384
0.00909825
0.0795086
0.00769285
0.0842697
0.00631768
0.0895267
0.00498973
0.0952461
0.00373235
0.101335
0.00257733
0.107615
0.00156697
0.113785
0.000755474
0.119371
0.00020848
0.123661
0.125659
0.0230063
0.0536923
-0.0243478
0.021651
0.0553584
0.0202822
0.0571664
0.0189004
0.0591452
0.0175062
0.0613266
0.0161008
0.0637461
0.0146861
0.0664439
0.0132646
0.0694646
0.01184
0.0728551
0.0104171
0.0766612
0.00900287
0.0809228
0.0076064
0.0856662
0.00624038
0.0908927
0.00492218
0.0965643
0.00367556
0.102582
0.00253251
0.108758
0.00153518
0.114782
0.000736934
0.120169
0.000201679
0.124196
0.125861
0.0227681
0.0550205
-0.0240963
0.0214261
0.0567005
0.0200706
0.0585219
0.0187019
0.0605138
0.0173207
0.0627079
0.015928
0.0651388
0.0145256
0.0678463
0.0131162
0.0708741
0.0117032
0.0742681
0.0102917
0.0780727
0.00888861
0.082326
0.00750328
0.0870515
0.00614871
0.0922473
0.00484264
0.0978704
0.00360916
0.103815
0.00248045
0.109887
0.00149846
0.115764
0.000715664
0.120952
0.000194021
0.124718
0.126055
0.0224975
0.0563351
-0.0238121
0.0211692
0.0580289
0.0198275
0.0598635
0.0184728
0.0618685
0.0171056
0.0640751
0.015727
0.0665175
0.0143385
0.0692347
0.0129428
0.0722698
0.0115434
0.0756675
0.0101452
0.0794708
0.00875535
0.0837158
0.00738341
0.0884234
0.00604264
0.0935881
0.00475112
0.0991619
0.00353323
0.105033
0.00242131
0.110999
0.00145704
0.116728
0.00069192
0.121717
0.000185653
0.125224
0.126241
0.0221947
0.0576363
-0.0234959
0.0208802
0.0593434
0.0195529
0.0611908
0.018213
0.0632084
0.0168608
0.0654272
0.0154975
0.0678808
0.0141245
0.0706077
0.0127442
0.0736501
0.0113602
0.0770515
0.00997739
0.0808536
0.00860297
0.0850903
0.00724672
0.0897797
0.00592214
0.0949127
0.00464764
0.100436
0.00344786
0.106233
0.00235524