/*--------------------------------*- C++ -*----------------------------------*\
  =========                 |
  \\      /  F ield         | OpenFOAM: The Open Source CFD Toolbox
   \\    /   O peration     | Website:  https://openfoam.org
    \\  /    A nd           | Version:  6.0
     \\/     M anipulation  |
\*---------------------------------------------------------------------------*/
FoamFile
{
    version     2.0;
    format      ascii;
    class       volVectorField;
    location    "9.499";
    object      U;
}
// * * * * * * * * * * * * * * * * * * * * * * * * * * * * * * * * * * * * * //

dimensions      [0 1 -1 0 0 0 0];

internalField   nonuniform List<vector> 
19200
(
(0.0983778 -4.73977 -6.60601e-21)
(0.0603845 -4.31849 3.33755e-21)
(0.0661289 -3.97344 1.553e-21)
(0.0809017 -3.69127 1.37417e-21)
(0.0985668 -3.46028 1.54347e-21)
(0.120605 -3.27055 1.11848e-22)
(0.146427 -3.11397 2.20731e-21)
(0.175101 -2.98395 -1.4955e-22)
(0.205917 -2.87519 1.95941e-21)
(0.23827 -2.7834 8.30614e-22)
(0.271625 -2.70514 8.04161e-24)
(0.305525 -2.63765 1.32983e-21)
(0.339584 -2.57873 2.20275e-21)
(0.37348 -2.5266 -1.5041e-21)
(0.406947 -2.47985 1.96162e-21)
(0.439769 -2.43733 1.71515e-21)
(0.471775 -2.39815 -1.61376e-21)
(0.502832 -2.36158 2.79584e-21)
(0.532837 -2.32704 -1.78066e-21)
(0.561718 -2.29406 9.08571e-22)
(0.589425 -2.26228 1.28518e-21)
(0.615928 -2.23139 -4.11187e-22)
(0.641215 -2.20113 5.59589e-22)
(0.665285 -2.1713 -6.59351e-22)
(0.688147 -2.14169 1.85237e-24)
(0.70982 -2.11215 3.61227e-22)
(0.730321 -2.0825 -2.29628e-22)
(0.749673 -2.05257 1.49278e-22)
(0.767906 -2.0222 3.37417e-22)
(0.785024 -1.99116 1.41599e-21)
(0.222727 -4.7372 -1.54801e-21)
(0.174384 -4.3222 1.03965e-20)
(0.171825 -3.98245 -5.48419e-21)
(0.180066 -3.70519 -7.50469e-21)
(0.192627 -3.47873 -3.39121e-21)
(0.210663 -3.29302 -2.46325e-21)
(0.233329 -3.13993 -5.34317e-21)
(0.25949 -3.01288 6.68187e-22)
(0.288274 -2.90657 -1.15969e-21)
(0.31895 -2.81676 -4.06438e-21)
(0.350886 -2.74004 -1.03028e-20)
(0.383547 -2.67369 5.08392e-21)
(0.416488 -2.61555 -1.8825e-21)
(0.449342 -2.56388 7.18105e-22)
(0.481808 -2.5173 -4.51811e-21)
(0.513646 -2.47472 -1.68999e-21)
(0.544667 -2.43526 1.91627e-22)
(0.574723 -2.39822 5.84218e-21)
(0.603704 -2.36306 -3.06662e-21)
(0.631534 -2.32934 -1.72028e-21)
(0.658159 -2.29671 -6.82552e-21)
(0.68355 -2.26489 1.76542e-21)
(0.707693 -2.23363 -1.13911e-21)
(0.730592 -2.20275 2.01909e-21)
(0.752257 -2.17207 -9.28867e-22)
(0.772709 -2.14141 -1.45941e-21)
(0.791968 -2.11063 4.80941e-22)
(0.810062 -2.07955 7.37105e-22)
(0.827042 -2.04799 -1.33487e-21)
(0.84288 -2.01573 7.16006e-22)
(0.346754 -4.73177 -7.69289e-22)
(0.288349 -4.32336 2.41491e-21)
(0.277884 -3.98921 3.46935e-21)
(0.279933 -3.71711 2.66685e-20)
(0.287661 -3.49537 -1.55098e-20)
(0.301917 -3.31381 1.43202e-20)
(0.321606 -3.16428 8.83776e-21)
(0.345395 -3.04022 6.9177e-21)
(0.372254 -2.93637 -6.77217e-21)
(0.40133 -2.84852 -8.19444e-22)
(0.431895 -2.7733 1.73627e-20)
(0.463342 -2.70804 2.95853e-21)
(0.495168 -2.65062 -8.07528e-21)
(0.526963 -2.59935 6.45858e-21)
(0.558397 -2.55288 -8.9358e-23)
(0.589206 -2.51016 2.81161e-21)
(0.619184 -2.47036 2.11996e-21)
(0.648173 -2.4328 7.04308e-21)
(0.676059 -2.39697 -3.14151e-21)
(0.702759 -2.36245 -1.04302e-21)
(0.728221 -2.32893 -2.80918e-21)
(0.752414 -2.29614 1.24169e-20)
(0.77533 -2.26386 -1.04036e-20)
(0.796972 -2.23191 3.46418e-21)
(0.817356 -2.20014 1.60353e-21)
(0.836505 -2.16837 -6.44144e-21)
(0.85444 -2.13646 8.70251e-21)
(0.871198 -2.10425 -9.72311e-22)
(0.886848 -2.07153 -1.00233e-21)
(0.901326 -2.03808 -7.21521e-21)
(0.470619 -4.72338 -2.50897e-20)
(0.402437 -4.32199 -2.29413e-20)
(0.384371 -3.99374 -2.83163e-20)
(0.380518 -3.72703 1.0314e-21)
(0.383667 -3.51016 1.65969e-21)
(0.394358 -3.33285 -3.25516e-20)
(0.411245 -3.18695 1.42885e-21)
(0.432797 -3.06591 4.2204e-21)
(0.457834 -2.9645 -7.15821e-22)
(0.485381 -2.87858 7.51301e-21)
(0.514618 -2.80481 -3.03145e-20)
(0.544868 -2.74059 -1.92995e-20)
(0.575574 -2.68382 7.1665e-21)
(0.606289 -2.63288 1.46125e-20)
(0.636652 -2.58646 -1.71396e-20)
(0.66638 -2.54354 -2.77049e-21)
(0.695253 -2.50333 -1.03279e-20)
(0.723106 -2.46519 -4.99846e-21)
(0.749818 -2.42863 8.37261e-21)
(0.775307 -2.39328 -1.08786e-20)
(0.799521 -2.35882 9.46324e-21)
(0.822432 -2.32503 -1.13268e-20)
(0.844034 -2.29171 -9.08927e-21)
(0.864334 -2.25869 -6.48947e-21)
(0.883354 -2.22581 -1.94142e-21)
(0.901118 -2.19294 -1.36629e-20)
(0.917652 -2.15992 1.39862e-21)
(0.932998 -2.12659 2.50118e-21)
(0.947246 -2.09276 -7.31711e-21)
(0.960288 -2.05817 1.53787e-21)
(0.594289 -4.71194 -1.5307e-20)
(0.516658 -4.31804 2.16002e-21)
(0.491291 -3.99601 1.98959e-20)
(0.481818 -3.7349 2.12005e-20)
(0.480639 -3.52305 1.52101e-20)
(0.487974 -3.35009 6.26168e-21)
(0.502227 -3.20784 9.87469e-21)
(0.521675 -3.08982 4.62343e-20)
(0.544985 -2.99085 -2.78654e-20)
(0.571067 -2.90681 7.45033e-22)
(0.599012 -2.83445 6.79103e-21)
(0.628075 -2.7712 3.00773e-20)
(0.657652 -2.71503 -2.08129e-20)
(0.687256 -2.66435 1.51691e-20)
(0.716504 -2.61791 -1.71737e-20)
(0.745093 -2.57472 2.94977e-20)
(0.772793 -2.53404 -8.87645e-21)
(0.799434 -2.49527 2.81415e-22)
(0.824892 -2.45794 1.46499e-20)
(0.849086 -2.42171 1.03061e-20)
(0.871965 -2.3863 -1.06143e-20)
(0.893507 -2.35148 1.45025e-20)
(0.913709 -2.3171 -6.76056e-21)
(0.932584 -2.28299 7.75418e-21)
(0.950158 -2.24902 1.04056e-20)
(0.966459 -2.21505 3.85408e-21)
(0.981516 -2.18095 1.18335e-20)
(0.995379 -2.14654 -4.11317e-21)
(1.00816 -2.11163 -1.46117e-21)
(1.0197 -2.07597 -7.15508e-21)
(0.717701 -4.69745 -1.13177e-20)
(0.630981 -4.31148 -7.62738e-21)
(0.59863 -3.99597 -2.30754e-20)
(0.583821 -3.74067 -6.0192e-20)
(0.57856 -3.53398 2.04057e-20)
(0.582745 -3.36543 1.30953e-21)
(0.59453 -3.22687 -1.41859e-20)
(0.611999 -3.11187 3.10006e-21)
(0.633672 -3.0153 -1.93437e-21)
(0.658346 -2.9331 -3.7752e-20)
(0.685028 -2.86209 1.6044e-20)
(0.712908 -2.79975 2.80086e-20)
(0.741336 -2.7441 1.64061e-22)
(0.769794 -2.69362 1.06972e-20)
(0.797875 -2.64709 2.67126e-20)
(0.825262 -2.60359 -1.84794e-20)
(0.851718 -2.56239 3.30362e-20)
(0.877067 -2.52293 -1.58293e-20)
(0.901187 -2.48479 2.87653e-20)
(0.923999 -2.44765 -2.15827e-20)
(0.945456 -2.41125 9.82914e-21)
(0.965541 -2.3754 2.61213e-20)
(0.984257 -2.33995 1.62692e-21)
(1.00162 -2.30476 -2.43572e-20)
(1.01767 -2.2697 1.39269e-20)
(1.03244 -2.23466 1.71388e-21)
(1.04594 -2.1995 -4.47105e-21)
(1.05826 -2.16405 1.75088e-20)
(1.06951 -2.12811 6.18842e-21)
(1.07948 -2.09143 -6.2358e-21)
(0.840788 -4.67989 3.15785e-20)
(0.745365 -4.30228 -1.29262e-21)
(0.706359 -3.99359 -4.7769e-20)
(0.686502 -3.7443 9.51692e-21)
(0.677409 -3.54287 -1.3682e-20)
(0.678646 -3.37879 9.94241e-21)
(0.688123 -3.24395 2.27226e-20)
(0.703734 -3.13195 4.17925e-20)
(0.723854 -3.03774 -4.5757e-20)
(0.74717 -2.95734 1.12966e-20)
(0.772609 -2.88761 -8.13025e-21)
(0.799302 -2.82611 6.09884e-21)
(0.826557 -2.77093 -2.67338e-20)
(0.853826 -2.72058 -1.62375e-21)
(0.880682 -2.6739 4.48361e-20)
(0.906799 -2.63002 -3.09023e-20)
(0.931933 -2.58825 -1.97036e-20)
(0.955908 -2.54806 -1.46414e-20)
(0.978604 -2.50908 2.71448e-20)
(0.999945 -2.471 5.98742e-21)
(1.01989 -2.4336 -2.70536e-20)
(1.03843 -2.3967 3.67837e-20)
(1.05558 -2.36018 -3.32334e-20)
(1.07136 -2.32392 2.24873e-20)
(1.0858 -2.2878 -1.26536e-20)
(1.09895 -2.25171 8.50814e-21)
(1.11085 -2.21553 6.43967e-21)
(1.12155 -2.17909 -2.85085e-20)
(1.13121 -2.14216 1.24725e-20)
(1.13956 -2.10454 3.02634e-22)
(0.963478 -4.65927 -3.15664e-20)
(0.859761 -4.29043 2.65003e-20)
(0.814442 -3.98883 -4.97642e-20)
(0.789833 -3.74571 9.55922e-20)
(0.777155 -3.54965 -2.70668e-20)
(0.775647 -3.39009 3.91285e-20)
(0.782972 -3.25896 1.64829e-22)
(0.796838 -3.14995 -5.22417e-21)
(0.81548 -3.05806 -8.33599e-21)
(0.837482 -2.9794 -1.94247e-22)
(0.861692 -2.91089 -3.29076e-20)
(0.887187 -2.85017 1.70105e-20)
(0.913236 -2.79538 -2.1195e-20)
(0.939267 -2.7451 -1.64771e-21)
(0.964837 -2.69822 -6.0849e-20)
(0.989611 -2.6539 1.98772e-20)
(1.01334 -2.61152 1.19819e-20)
(1.03586 -2.57057 -1.33304e-20)
(1.05704 -2.53071 -1.52938e-21)
(1.07682 -2.49168 -2.13646e-20)
(1.09517 -2.45326 -7.79046e-21)
(1.11208 -2.41532 8.0096e-22)
(1.12757 -2.37774 -1.92747e-20)
(1.14168 -2.34042 -2.88758e-20)
(1.15445 -2.30326 1.15874e-21)
(1.16592 -2.26617 -3.14787e-21)
(1.17614 -2.229 9.39982e-21)
(1.18518 -2.19162 -2.34397e-20)
(1.1932 -2.15378 2.01191e-20)
(1.19988 -2.11528 -4.09992e-20)
(1.0857 -4.63558 -8.00372e-20)
(0.974117 -4.2759 9.95397e-20)
(0.922839 -3.98165 -1.0652e-19)
(0.893778 -3.74486 -2.86976e-20)
(0.877764 -3.55425 -1.90322e-20)
(0.87371 -3.39924 -2.05613e-20)
(0.879034 -3.27182 -1.90191e-20)
(0.891263 -3.16576 -4.05446e-21)
(0.908497 -3.07615 -1.95218e-20)
(0.929219 -2.99916 -4.95082e-21)
(0.952206 -2.93182 3.45018e-20)
(0.976485 -2.87181 -1.97554e-20)
(1.00129 -2.81735 -2.4358e-20)
(1.02603 -2.76707 -4.16208e-20)
(1.05024 -2.71993 8.81369e-20)
(1.0736 -2.67514 -3.45363e-20)
(1.09584 -2.63209 1.29623e-20)
(1.11681 -2.59036 -4.90524e-20)
(1.13639 -2.54961 1.86828e-20)
(1.15452 -2.5096 -8.04356e-21)
(1.17118 -2.47017 9.8482e-21)
(1.18637 -2.4312 -3.81573e-21)
(1.20013 -2.39257 3.27257e-20)
(1.21249 -2.35422 -1.17818e-20)
(1.22352 -2.31606 3.2521e-20)
(1.23325 -2.27799 -6.36204e-21)
(1.24173 -2.2399 4.31011e-20)
(1.24905 -2.20163 1.20831e-20)
(1.25539 -2.16295 2.30345e-20)
(1.26037 -2.12365 -7.4577e-20)
(1.20738 -4.60885 1.27019e-19)
(1.08838 -4.25867 -2.51722e-20)
(1.03151 -3.97199 4.51811e-20)
(0.998295 -3.74168 -1.34603e-20)
(0.979195 -3.55659 4.70315e-20)
(0.97279 -3.40615 4.53022e-20)
(0.976259 -3.28243 5.23645e-20)
(0.986953 -3.17928 -4.54783e-21)
(1.00284 -3.09189 -5.15089e-20)
(1.02231 -3.01652 7.6156e-20)
(1.04407 -2.95026 -6.31047e-21)
(1.06711 -2.8909 5.57869e-20)
(1.09063 -2.8367 2.04815e-20)
(1.11401 -2.78638 7.41986e-21)
(1.1368 -2.73893 1.28507e-20)
(1.15865 -2.69362 1.70913e-20)
(1.17933 -2.64989 2.92099e-20)
(1.19866 -2.60734 -8.5531e-21)
(1.21654 -2.56568 4.39487e-20)
(1.23293 -2.5247 2.07429e-20)
(1.24782 -2.48427 -4.36315e-20)
(1.26121 -2.44427 7.79336e-20)
(1.27315 -2.40462 -1.04123e-19)
(1.2837 -2.36527 9.99245e-20)
(1.29291 -2.32614 -3.33637e-20)
(1.30084 -2.28715 6.2975e-21)
(1.30754 -2.24819 -4.50917e-20)
(1.3131 -2.20911 2.52196e-20)
(1.31772 -2.16965 9.31089e-21)
(1.32095 -2.12965 -1.18231e-20)
(1.32844 -4.57906 -7.39469e-20)
(1.20248 -4.23872 7.48524e-20)
(1.14039 -3.95983 -2.05665e-20)
(1.10334 -3.7361 6.00574e-20)
(1.0814 -3.55659 5.67697e-21)
(1.07284 -3.41074 1.36826e-20)
(1.07459 -3.29069 -1.06498e-19)
(1.08385 -3.1904 -1.86865e-20)
(1.09844 -3.10517 7.06666e-20)
(1.11668 -3.03135 5.55534e-20)
(1.13721 -2.96612 -9.49119e-20)
(1.15898 -2.90734 5.6296e-20)
(1.18116 -2.85335 -5.69101e-20)
(1.20312 -2.80292 4.04473e-20)
(1.22441 -2.75512 -6.74009e-20)
(1.24467 -2.70925 -5.1347e-20)
(1.26368 -2.66481 3.04025e-21)
(1.28128 -2.62143 -2.43839e-20)
(1.29738 -2.57886 4.35685e-20)
(1.31194 -2.53692 1.7316e-20)
(1.32497 -2.49549 -1.15108e-20)
(1.33648 -2.45449 -3.56524e-21)
(1.34654 -2.41386 1.41393e-20)
(1.35519 -2.37354 -4.69808e-20)
(1.36253 -2.3335 8.01043e-20)
(1.3686 -2.29364 -1.93973e-20)
(1.37347 -2.25388 -1.69987e-21)
(1.37723 -2.21404 7.20549e-20)
(1.3801 -2.17389 1.002e-20)
(1.38157 -2.13326 -1.03951e-20)
(1.44881 -4.54623 1.85447e-21)
(1.31638 -4.21603 -4.15521e-20)
(1.24944 -3.94511 -3.95079e-20)
(1.20886 -3.72808 -6.45909e-20)
(1.18434 -3.55419 1.63241e-21)
(1.1738 -3.41291 -4.81303e-20)
(1.17398 -3.2965 5.73525e-20)
(1.18188 -3.19903 -4.9279e-21)
(1.19523 -3.1159 4.91368e-20)
(1.21225 -3.04356 -3.98873e-20)
(1.23154 -2.97928 -2.13892e-20)
(1.25199 -2.92101 1.17424e-20)
(1.27277 -2.86718 6.41527e-21)
(1.29324 -2.8166 -6.76501e-20)
(1.31295 -2.7684 4.05118e-20)
(1.33154 -2.72195 -2.09582e-20)
(1.3488 -2.67678 5.88001e-20)
(1.36458 -2.63256 -1.97643e-20)
(1.3788 -2.58908 2.11289e-20)
(1.39145 -2.54619 5.09872e-21)
(1.40252 -2.50378 3.6454e-20)
(1.41208 -2.46181 -7.46652e-21)
(1.42017 -2.42024 6.12142e-20)
(1.42688 -2.37901 -6.81886e-20)
(1.43228 -2.3381 -2.32435e-20)
(1.43645 -2.29744 1.94051e-20)
(1.43944 -2.25694 -1.52853e-21)
(1.44137 -2.21644 -3.46173e-20)
(1.44246 -2.17566 2.84515e-20)
(1.44215 -2.13451 -3.45977e-20)
(1.56841 -4.51038 1.27548e-19)
(1.43 -4.19059 3.66571e-20)
(1.35861 -3.92781 4.30069e-20)
(1.31481 -3.71756 6.01706e-20)
(1.28794 -3.54931 9.04637e-20)
(1.27562 -3.41259 -2.13061e-21)
(1.27434 -3.29977 1.30233e-20)
(1.28097 -3.20505 1.06936e-19)
(1.29312 -3.12395 -2.17571e-20)
(1.30893 -3.05302 -4.00913e-20)
(1.32694 -2.98964 7.27579e-20)
(1.34604 -2.93183 1.28177e-20)
(1.36536 -2.87809 1.00956e-21)
(1.38427 -2.82732 1.78732e-20)
(1.40231 -2.77869 3.32297e-20)
(1.41914 -2.73164 -6.94163e-20)
(1.43456 -2.68572 5.96841e-20)
(1.44843 -2.64067 1.05312e-20)
(1.46068 -2.59629 6.00807e-20)
(1.47132 -2.55246 -3.23471e-20)
(1.48037 -2.50912 5.51094e-20)
(1.48789 -2.46622 -5.87966e-20)
(1.49395 -2.42374 5.78245e-20)
(1.49864 -2.38166 8.3137e-21)
(1.50206 -2.33995 -3.91633e-20)
(1.50427 -2.29855 -1.31516e-20)
(1.50536 -2.25739 7.75652e-20)
(1.50543 -2.21629 5.69002e-20)
(1.50473 -2.17499 1.54453e-20)
(1.50262 -2.1334 -1.10895e-20)
(1.68718 -4.4715 1.37551e-20)
(1.54328 -4.16236 3.23493e-20)
(1.46783 -3.90787 1.30035e-19)
(1.42112 -3.70446 -2.13421e-19)
(1.39215 -3.54187 -2.14336e-20)
(1.37822 -3.40968 -2.29446e-20)
(1.37561 -3.30041 1.07116e-20)
(1.38104 -3.20838 1.55649e-20)
(1.39202 -3.12924 2.50901e-20)
(1.40662 -3.05966 -6.70357e-20)
(1.42334 -2.9971 -1.37183e-20)
(1.44103 -2.93968 3.9476e-20)
(1.45883 -2.88599 4.34747e-20)
(1.4761 -2.83499 -4.28749e-20)
(1.49238 -2.78591 -4.33719e-20)
(1.50736 -2.73824 7.0806e-20)
(1.52084 -2.69158 4.75377e-20)
(1.5327 -2.6457 -1.1514e-20)
(1.54291 -2.60044 -3.06028e-20)
(1.55146 -2.5557 6.1446e-21)
(1.5584 -2.51145 -7.32254e-20)
(1.5638 -2.46767 8.97083e-20)
(1.56777 -2.42434 -6.17092e-20)
(1.57039 -2.38147 -2.7399e-21)
(1.57177 -2.33902 4.1942e-20)
(1.572 -2.29697 -1.2989e-20)
(1.57114 -2.25522 -3.98879e-20)
(1.56933 -2.21362 4.95512e-20)
(1.56684 -2.17188 -1.23519e-21)
(1.56293 -2.12996 9.12416e-21)
(1.80503 -4.42962 -9.32301e-21)
(1.65615 -4.13135 -3.27065e-20)
(1.57704 -3.88526 -1.51328e-19)
(1.52774 -3.68875 5.4934e-20)
(1.4969 -3.5318 -1.70453e-20)
(1.48154 -3.40411 5.75184e-20)
(1.47772 -3.29832 4.61971e-21)
(1.48201 -3.20892 -6.75411e-20)
(1.49184 -3.13167 1.04728e-19)
(1.50522 -3.06335 -9.51974e-20)
(1.5206 -3.00156 -4.13423e-21)
(1.53683 -2.94449 2.42463e-20)
(1.55304 -2.8908 -4.14642e-20)
(1.56859 -2.83953 4.89815e-20)
(1.58303 -2.78999 -9.34889e-20)
(1.59607 -2.74168 -2.17287e-20)
(1.60752 -2.69429 5.81625e-20)
(1.61729 -2.64759 1.7507e-22)
(1.62535 -2.60147 -3.78739e-20)
(1.63173 -2.55587 1.04241e-19)
(1.63649 -2.51076 -5.6227e-20)
(1.63972 -2.46614 -7.6329e-20)
(1.64152 -2.42203 2.56205e-20)
(1.64202 -2.37843 -7.58535e-20)
(1.64132 -2.33533 -1.8611e-20)
(1.63952 -2.29269 -2.42982e-21)
(1.6367 -2.25045 -5.12476e-20)
(1.633 -2.20843 6.14221e-20)
(1.6287 -2.16634 -3.44976e-20)
(1.62299 -2.12419 4.07226e-20)
(1.9219 -4.38474 -4.75767e-20)
(1.76856 -4.09754 -1.35535e-19)
(1.68617 -3.85994 6.65956e-20)
(1.63459 -3.67035 -6.5043e-20)
(1.60213 -3.51903 -4.76548e-20)
(1.58549 -3.39579 -2.8216e-20)
(1.58056 -3.29342 -1.05748e-19)
(1.58379 -3.20656 7.2842e-20)
(1.59249 -3.13113 -1.82661e-19)
(1.60463 -3.06402 -6.80293e-20)
(1.61864 -3.00293 2.41978e-20)
(1.63335 -2.94615 4.1458e-20)
(1.64789 -2.89244 -5.25276e-22)
(1.66163 -2.84088 -8.12166e-20)
(1.67414 -2.79085 1.93028e-20)
(1.68515 -2.74192 -7.64982e-20)
(1.69448 -2.6938 -5.56173e-20)
(1.70207 -2.64631 -3.40612e-20)
(1.7079 -2.59937 -7.00442e-21)
(1.71203 -2.55294 5.86767e-20)
(1.71453 -2.50702 8.48565e-20)
(1.71552 -2.46163 -2.57629e-20)
(1.7151 -2.4168 -2.55351e-20)
(1.71343 -2.37254 4.93817e-20)
(1.71061 -2.32886 2.75186e-20)
(1.70675 -2.28573 -2.20862e-20)
(1.70194 -2.24308 -2.509e-20)
(1.69634 -2.20074 2.84238e-21)
(1.69023 -2.1584 2.6327e-20)
(1.68274 -2.11613 3.63475e-20)
(2.0377 -4.33689 -9.00365e-21)
(1.88042 -4.06091 1.74356e-19)
(1.79517 -3.83189 1.36346e-19)
(1.74161 -3.64923 1.0662e-19)
(1.70775 -3.5035 -7.01979e-20)
(1.69 -3.38465 -1.40549e-20)
(1.68407 -3.28562 1.23549e-20)
(1.68627 -3.20124 9.3912e-20)
(1.69385 -3.12755 3.56153e-20)
(1.70473 -3.06158 8.75451e-20)
(1.71732 -3.00113 -1.24468e-19)
(1.73045 -2.9446 1.2419e-20)
(1.74324 -2.89082 5.16641e-20)
(1.75509 -2.83896 3.26335e-20)
(1.76559 -2.78845 6.86744e-20)
(1.77447 -2.73889 -4.6983e-20)
(1.78159 -2.69006 -4.41801e-20)
(1.78691 -2.64182 8.16156e-21)
(1.79044 -2.5941 9.68554e-20)
(1.79224 -2.54689 -1.57078e-19)
(1.79241 -2.50021 5.5055e-20)
(1.79109 -2.45412 -3.69378e-22)
(1.78841 -2.40863 1.06724e-19)
(1.78451 -2.3638 -4.61475e-20)
(1.77953 -2.31962 -2.4667e-21)
(1.77359 -2.27608 -3.02374e-20)
(1.76679 -2.23312 2.8876e-20)
(1.75927 -2.19057 7.10667e-21)
(1.75137 -2.14809 -3.2703e-20)
(1.74211 -2.1058 1.11343e-19)
(2.15236 -4.28609 -1.7756e-19)
(1.99167 -4.02145 -1.06631e-19)
(1.90395 -3.80106 -2.75532e-19)
(1.84872 -3.62532 -1.27386e-19)
(1.81368 -3.48515 1.19974e-19)
(1.79498 -3.37061 -7.17433e-20)
(1.78814 -3.27485 -1.8531e-20)
(1.78935 -3.19286 -4.87317e-20)
(1.79582 -3.12083 8.41474e-20)
(1.80542 -3.05594 -2.00121e-20)
(1.81654 -2.99609 -3.13989e-20)
(1.82801 -2.93977 -3.85215e-21)
(1.83898 -2.8859 -1.30333e-19)
(1.84885 -2.83372 -5.9674e-21)
(1.85724 -2.78272 3.48303e-20)
(1.86391 -2.73256 -4.41378e-21)
(1.86874 -2.68305 -1.40274e-19)
(1.8717 -2.63408 1.37726e-19)
(1.87284 -2.58563 -1.36875e-19)
(1.87224 -2.5377 5.3936e-20)
(1.87003 -2.49033 7.72452e-21)
(1.86634 -2.44359 2.97289e-21)
(1.86133 -2.39754 -5.85769e-20)
(1.85517 -2.35221 2.01413e-20)
(1.848 -2.30762 -3.16348e-23)
(1.83996 -2.26377 6.78295e-21)
(1.83113 -2.2206 -1.51589e-19)
(1.82171 -2.17794 4.09836e-20)
(1.81202 -2.13542 4.4517e-20)
(1.80102 -2.09322 5.03806e-20)
(2.2658 -4.23235 3.48967e-19)
(2.10224 -3.97916 1.23629e-19)
(2.01245 -3.76742 7.35207e-20)
(1.95585 -3.59859 1.17102e-19)
(1.91986 -3.4639 -1.45657e-20)
(1.90035 -3.3536 9.09301e-20)
(1.89267 -3.26103 2.04235e-19)
(1.89294 -3.18135 -2.5698e-20)
(1.89828 -3.11091 1.26759e-20)
(1.90656 -3.04702 2.50538e-19)
(1.91615 -2.98772 -3.3161e-20)
(1.9259 -2.93158 3.61418e-20)
(1.93496 -2.8776 -1.3622e-20)
(1.94277 -2.8251 -1.90121e-21)
(1.94897 -2.77362 1.91372e-19)
(1.95333 -2.72289 7.34252e-21)
(1.95578 -2.67273 2.08154e-19)
(1.95631 -2.62308 -2.58443e-20)
(1.95499 -2.57395 -4.60961e-20)
(1.95192 -2.52536 1.08304e-19)
(1.94726 -2.47737 -9.97909e-20)
(1.94115 -2.43007 1.10347e-19)
(1.93377 -2.38351 6.01025e-20)
(1.92531 -2.33777 -4.90839e-20)
(1.91592 -2.29287 7.52928e-20)
(1.90575 -2.2488 9.06109e-21)
(1.8949 -2.20552 -3.22593e-20)
(1.88357 -2.16285 1.71243e-20)
(1.8721 -2.1204 1.15829e-19)
(1.85939 -2.07842 1.80582e-20)
(2.37795 -4.17569 -6.0127e-20)
(2.21204 -3.93403 -1.25522e-19)
(2.12059 -3.73096 5.29013e-20)
(2.06292 -3.56898 -2.11742e-19)
(2.02619 -3.43971 1.02237e-19)
(2.00599 -3.33356 -1.88862e-19)
(1.99756 -3.24408 -1.26061e-19)
(1.99691 -3.16663 3.56205e-20)
(2.00112 -3.09771 3.62486e-20)
(2.00804 -3.03477 -1.7406e-19)
(2.01605 -2.97597 -7.63348e-20)
(2.024 -2.91997 3.59543e-20)
(2.03107 -2.86588 -9.88876e-20)
(2.03673 -2.81306 -3.98528e-20)
(2.04064 -2.76113 -2.70709e-20)
(2.04262 -2.70984 -2.72715e-20)
(2.04261 -2.65907 -1.16512e-19)
(2.04063 -2.6088 -7.37438e-20)
(2.03678 -2.55905 1.30629e-20)
(2.03118 -2.50986 2.44154e-20)
(2.024 -2.46132 2.65708e-20)
(2.01542 -2.41353 -9.16928e-20)
(2.00563 -2.36656 3.49062e-20)
(1.99483 -2.32049 -7.21894e-20)
(1.98319 -2.27536 6.88391e-20)
(1.97087 -2.23117 -9.05719e-20)
(1.95798 -2.18789 2.89008e-20)
(1.94475 -2.14533 -4.49771e-20)
(1.93153 -2.10307 -6.46133e-20)
(1.91714 -2.06143 -6.59802e-21)
(2.48873 -4.11615 -1.28788e-19)
(2.32102 -3.88605 -1.14849e-19)
(2.2283 -3.69163 -1.13225e-19)
(2.16986 -3.53645 -8.54221e-20)
(2.13257 -3.41252 2.6389e-19)
(2.11183 -3.31042 3.7777e-20)
(2.1027 -3.22394 1.15596e-19)
(2.10114 -3.14863 1.78848e-19)
(2.10421 -3.08116 8.72017e-20)
(2.10972 -3.01912 -1.1656e-19)
(2.11608 -2.96078 1.9078e-19)
(2.12216 -2.90491 -1.86583e-19)
(2.12717 -2.85069 1.78495e-19)
(2.13059 -2.79757 2.15594e-20)
(2.13214 -2.7452 4.64338e-20)
(2.13165 -2.69339 1.5437e-20)
(2.1291 -2.64208 1.91104e-19)
(2.12454 -2.59124 -2.85492e-20)
(2.11808 -2.54092 2.60956e-20)
(2.10989 -2.49121 8.81342e-20)
(2.10015 -2.4422 -9.89018e-20)
(2.08905 -2.39399 7.9572e-20)
(2.07681 -2.34669 3.29117e-21)
(2.06363 -2.30037 3.66155e-20)
(2.04971 -2.2551 6.74746e-20)
(2.03523 -2.21089 -1.14555e-20)
(2.0203 -2.16772 6.74779e-20)
(2.00516 -2.12537 9.85757e-20)
(1.9902 -2.08342 -1.07097e-19)
(1.97417 -2.04224 -6.63762e-20)
(2.59806 -4.05374 3.80136e-19)
(2.42909 -3.83523 -4.30939e-20)
(2.3355 -3.64943 8.87414e-20)
(2.27657 -3.50097 1.63811e-19)
(2.23893 -3.38226 -4.77148e-19)
(2.21775 -3.28412 5.26186e-20)
(2.20798 -3.20055 -1.85461e-19)
(2.20553 -3.12729 1.88589e-19)
(2.20742 -3.0612 -1.51e-19)
(2.21148 -3.00001 8.23941e-20)
(2.21613 -2.9421 -3.01579e-19)
(2.22026 -2.88635 8.30207e-21)
(2.22311 -2.832 -1.0221e-19)
(2.22422 -2.77859 1.55847e-19)
(2.22332 -2.72582 -1.66618e-19)
(2.22028 -2.67355 -8.71823e-21)
(2.21512 -2.62172 -1.3763e-19)
(2.20791 -2.57038 -1.18437e-20)
(2.1988 -2.51957 1.19121e-20)
(2.18796 -2.46941 3.13787e-20)
(2.17561 -2.42 -1.77675e-19)
(2.16195 -2.37146 -5.53663e-21)
(2.14722 -2.3239 -1.00668e-19)
(2.13163 -2.27743 -2.35031e-20)
(2.11541 -2.2321 -6.24749e-20)
(2.09873 -2.18796 -6.87915e-20)
(2.08175 -2.14499 -7.23553e-20)
(2.0647 -2.10298 1.19834e-19)
(2.04802 -2.06146 3.24892e-20)
(2.03039 -2.02088 -6.45861e-20)
(2.70588 -3.9885 -2.53761e-19)
(2.53618 -3.78158 9.52031e-20)
(2.44213 -3.60434 -1.64156e-19)
(2.38298 -3.4625 2.43138e-20)
(2.34517 -3.34891 2.73069e-19)
(2.32364 -3.25461 -1.39491e-19)
(2.31328 -3.17383 -1.49924e-19)
(2.30993 -3.10255 -1.27767e-19)
(2.31062 -3.03778 5.76355e-21)
(2.31317 -2.97739 8.35794e-20)
(2.31604 -2.91989 -6.15552e-20)
(2.31815 -2.86424 2.1861e-21)
(2.31878 -2.80979 1.95244e-19)
(2.31749 -2.75611 -9.95867e-20)
(2.31406 -2.70298 2.66666e-20)
(2.3084 -2.65028 -8.22456e-20)
(2.30056 -2.59802 3.16298e-20)
(2.29064 -2.54623 6.8749e-20)
(2.27882 -2.49502 7.93442e-20)
(2.26529 -2.44448 -8.71416e-20)
(2.25029 -2.39474 1.23289e-20)
(2.23404 -2.34595 7.58879e-20)
(2.21678 -2.29821 1.32438e-19)
(2.19875 -2.25165 3.57972e-20)
(2.1802 -2.20635 -1.38566e-19)
(2.16131 -2.16237 1.62298e-19)
(2.14224 -2.11969 -8.15718e-20)
(2.12328 -2.07813 -9.82663e-20)
(2.10489 -2.03717 -6.0573e-20)
(2.08569 -1.99732 -8.37598e-20)
(2.8121 -3.92045 1.36378e-19)
(2.64223 -3.72509 -1.10122e-19)
(2.54811 -3.55633 4.22391e-20)
(2.48901 -3.421 2.27252e-19)
(2.45118 -3.31239 6.27966e-20)
(2.4294 -3.22182 -5.39858e-20)
(2.41848 -3.14375 1.31799e-19)
(2.41423 -3.07437 3.05148e-20)
(2.41368 -3.01086 1.2822e-19)
(2.41467 -2.95123 7.1107e-20)
(2.41569 -2.89412 3.38816e-21)
(2.4157 -2.83858 4.58051e-20)
(2.41402 -2.78403 -1.45442e-20)
(2.41026 -2.73012 2.56064e-20)
(2.40422 -2.67667 7.2547e-20)
(2.39588 -2.62361 -4.01274e-20)
(2.3853 -2.57097 1.00444e-19)
(2.37263 -2.51882 1.02786e-19)
(2.35805 -2.46726 -1.17869e-19)
(2.34179 -2.41643 1.21831e-19)
(2.3241 -2.36645 2.61263e-19)
(2.30522 -2.31747 -1.69828e-19)
(2.28541 -2.26963 1.72384e-19)
(2.26492 -2.22306 -1.20992e-19)
(2.244 -2.17785 -1.74498e-20)
(2.22287 -2.13409 1.32359e-19)
(2.2017 -2.09179 -2.67571e-20)
(2.18081 -2.05078 1.00557e-19)
(2.16071 -2.01051 1.00701e-19)
(2.13999 -1.97154 -2.02189e-19)
(2.91667 -3.84964 -1.31862e-19)
(2.74719 -3.66579 6.31503e-20)
(2.65338 -3.50539 2.60043e-20)
(2.59456 -3.37642 -2.67663e-19)
(2.55686 -3.27268 -1.40422e-19)
(2.53491 -3.18571 1.06816e-19)
(2.52344 -3.11025 -3.00472e-19)
(2.51828 -3.04269 3.6712e-19)
(2.51645 -2.98039 -2.07898e-19)
(2.51583 -2.9215 2.49072e-20)
(2.51493 -2.86476 -3.93792e-20)
(2.51277 -2.80934 -1.22829e-19)
(2.5087 -2.75472 2.566e-19)
(2.50239 -2.70062 9.83915e-20)
(2.49369 -2.6469 -1.01806e-19)
(2.4826 -2.59355 3.0305e-21)
(2.46923 -2.5406 5.82851e-20)
(2.45375 -2.48816 -1.26685e-19)
(2.43638 -2.43634 2.71184e-20)
(2.41736 -2.38529 8.93088e-20)
(2.39696 -2.33515 -3.69398e-20)
(2.37544 -2.28606 6.2472e-20)
(2.35306 -2.23818 -1.23389e-19)
(2.33008 -2.19165 1.80251e-19)
(2.30677 -2.14658 4.28112e-20)
(2.28336 -2.10309 -1.15325e-19)
(2.26005 -2.06124 -1.00767e-19)
(2.23719 -2.02086 1.03077e-22)
(2.21538 -1.98139 1.40583e-19)
(2.19314 -1.94346 -3.41643e-20)
(3.01952 -3.77608 -3.61572e-20)
(2.851 -3.60367 -2.65903e-19)
(2.75787 -3.45149 3.19198e-19)
(2.69956 -3.32873 2.18595e-19)
(2.66211 -3.22971 2.21148e-19)
(2.64004 -3.14623 6.30845e-20)
(2.62804 -3.07329 9.48016e-20)
(2.62194 -3.00748 4.9273e-20)
(2.61879 -2.94634 -1.95603e-19)
(2.6165 -2.88816 3.61483e-19)
(2.61362 -2.8318 -2.95623e-19)
(2.60921 -2.77651 -1.98007e-20)
(2.60269 -2.72186 4.4058e-20)
(2.59376 -2.66761 -1.97222e-19)
(2.58233 -2.61369 1.73752e-19)
(2.56844 -2.56011 -5.20938e-20)
(2.55224 -2.50693 -1.35418e-19)
(2.53391 -2.45428 5.30165e-20)
(2.51372 -2.40229 -1.02002e-19)
(2.49193 -2.3511 -9.07346e-20)
(2.46881 -2.30087 -9.80391e-20)
(2.44463 -2.25175 2.236e-20)
(2.41967 -2.20389 1.33553e-20)
(2.3942 -2.15744 -2.44962e-19)
(2.36848 -2.11255 -9.40797e-20)
(2.34276 -2.06935 6.06113e-20)
(2.31726 -2.02797 7.59857e-20)
(2.29237 -1.98827 -1.05149e-19)
(2.26879 -1.94969 -4.03777e-20)
(2.24505 -1.91294 4.08521e-21)
(3.12064 -3.6998 -3.1442e-20)
(2.95365 -3.53874 1.72084e-19)
(2.86154 -3.3946 -4.90502e-20)
(2.80391 -3.27789 -6.05766e-20)
(2.7668 -3.18343 -3.44991e-19)
(2.74465 -3.10334 -7.66958e-20)
(2.73213 -3.03283 1.47788e-19)
(2.72508 -2.96871 -9.8332e-20)
(2.72056 -2.9087 -1.05974e-20)
(2.71653 -2.85122 -1.95979e-20)
(2.7116 -2.79523 1.1198e-19)
(2.70488 -2.74009 -1.7852e-19)
(2.69584 -2.68545 -1.2072e-19)
(2.68423 -2.63112 1.4289e-19)
(2.67002 -2.57706 -8.22573e-20)
(2.65329 -2.52333 -9.98832e-20)
(2.63421 -2.47 2.1495e-19)
(2.61302 -2.41723 -3.3868e-20)
(2.58999 -2.36515 1.28878e-19)
(2.56542 -2.31392 -1.18606e-19)
(2.53957 -2.26368 -9.67172e-20)
(2.51275 -2.21459 8.45102e-20)
(2.48522 -2.1668 -9.42533e-21)
(2.45726 -2.12048 -6.41079e-20)
(2.42913 -2.07577 5.67307e-20)
(2.40108 -2.03285 -1.78186e-19)
(2.37335 -1.9919 1.08935e-19)
(2.34636 -1.95287 -1.69813e-21)
(2.32094 -1.91522 -1.15268e-19)
(2.29568 -1.87971 1.75441e-19)
(3.22011 -3.62087 1.31232e-19)
(3.05517 -3.47101 -3.40745e-19)
(2.96432 -3.33469 -2.87793e-20)
(2.9075 -3.22382 1.62736e-19)
(2.8708 -3.13381 -4.27004e-20)
(2.8486 -3.057 -1.21164e-19)
(2.83556 -2.98884 5.75448e-20)
(2.82753 -2.92636 6.7072e-20)
(2.82161 -2.86745 5.84295e-21)
(2.81579 -2.81065 8.38915e-20)
(2.80874 -2.75505 2.70318e-19)
(2.79963 -2.70011 -9.55541e-20)
(2.78801 -2.64552 2.51217e-20)
(2.77367 -2.59116 -6.56891e-20)
(2.75663 -2.53705 2.5327e-19)
(2.73701 -2.48324 -4.58081e-20)
(2.71503 -2.42986 1.5289e-19)
(2.69096 -2.37706 -5.97345e-20)
(2.6651 -2.32499 6.47893e-20)
(2.63775 -2.27379 9.85255e-20)
(2.6092 -2.22363 1.70273e-20)
(2.57976 -2.17465 6.71119e-20)
(2.54969 -2.127 -5.59095e-20)
(2.51927 -2.08083 1.56408e-19)
(2.48875 -2.03629 -6.4275e-20)
(2.45838 -1.99359 2.36929e-19)
(2.42838 -1.95297 -6.85899e-20)
(2.39921 -1.91448 4.76385e-20)
(2.37185 -1.87763 -9.02724e-20)
(2.34508 -1.84338 1.71379e-19)
(3.31831 -3.5394 -2.89842e-19)
(3.15567 -3.40041 1.07267e-20)
(3.06612 -3.27163 -1.78077e-19)
(3.01017 -3.16646 3.28172e-20)
(2.97393 -3.08079 9.1543e-21)
(2.95173 -3.00717 -1.62124e-19)
(2.93818 -2.9413 -3.07092e-19)
(2.92915 -2.88042 1.54812e-19)
(2.92177 -2.82258 -2.21183e-19)
(2.9141 -2.76647 -1.17904e-19)
(2.90488 -2.71128 -6.78727e-20)
(2.89333 -2.65657 -5.53049e-20)
(2.87906 -2.60209 1.67993e-21)
(2.86194 -2.54778 -1.99077e-19)
(2.84203 -2.49368 1.32442e-19)
(2.81949 -2.4399 -2.17854e-19)
(2.7946 -2.38656 -5.55369e-20)
(2.76764 -2.33384 6.08652e-20)
(2.73895 -2.28187 7.7074e-20)
(2.70884 -2.23082 7.75133e-20)
(2.67763 -2.18083 5.97065e-20)
(2.64561 -2.13204 -1.50329e-19)
(2.61307 -2.08458 1.52549e-19)
(2.58026 -2.03859 -1.62621e-20)
(2.54743 -1.99422 -4.13449e-20)
(2.51478 -1.95164 -1.64764e-19)
(2.48251 -1.91113 -8.79732e-20)
(2.45104 -1.87277 1.63475e-19)
(2.42143 -1.83621 -5.35436e-20)
(2.39286 -1.80329 -5.59402e-20)
(3.41568 -3.45508 1.25989e-19)
(3.25518 -3.32651 1.16147e-20)
(3.16676 -3.20521 -3.52555e-20)
(3.11172 -3.10574 -7.7854e-21)
(3.07604 -3.02436 -6.48188e-20)
(3.05388 -2.95387 2.19074e-19)
(3.03984 -2.89023 -1.04187e-19)
(3.02978 -2.83091 6.84584e-20)
(3.02091 -2.77411 2.86422e-20)
(3.01134 -2.71869 1.04817e-19)
(2.99988 -2.66395 -4.11464e-20)
(2.98583 -2.60951 2.33058e-19)
(2.96887 -2.5552 -2.03021e-20)
(2.94892 -2.50102 1.54021e-19)
(2.92609 -2.44703 -2.60526e-19)
(2.90062 -2.39337 -2.02839e-20)
(2.8728 -2.34018 1.70889e-19)
(2.84296 -2.28763 -1.06777e-19)
(2.81145 -2.23588 -7.55405e-20)
(2.77861 -2.18508 -1.30798e-19)
(2.74478 -2.13537 -1.15755e-19)
(2.71026 -2.08688 1.24465e-19)
(2.67534 -2.03971 -1.17979e-19)
(2.64028 -1.99399 2.58119e-20)
(2.60531 -1.94981 9.6189e-20)
(2.57063 -1.9073 6.69937e-20)
(2.53639 -1.86661 6.39692e-20)
(2.50282 -1.82769 4.7341e-20)
(2.47049 -1.79064 -1.28045e-19)
(2.43901 -1.75861 -5.51515e-20)
(5.01322 -0.0291744 1.88438e-21)
(5.00549 -0.161024 1.86993e-20)
(4.99465 -0.291897 6.48946e-20)
(4.98065 -0.422075 3.54794e-20)
(4.96329 -0.551615 -7.49621e-20)
(4.94251 -0.680483 2.27061e-20)
(4.91832 -0.808612 -2.37862e-20)
(4.89073 -0.935922 -6.00375e-20)
(4.85978 -1.06233 1.52744e-19)
(4.82549 -1.18774 -3.64133e-20)
(4.78791 -1.31207 -3.67632e-20)
(4.74707 -1.43524 -7.75617e-20)
(4.70301 -1.55715 -2.21919e-19)
(4.65578 -1.67773 2.05708e-20)
(4.60542 -1.79688 -1.00657e-20)
(4.55198 -1.91455 -6.90024e-20)
(4.49551 -2.03063 1.4807e-19)
(4.43606 -2.14507 8.01292e-20)
(4.37368 -2.25778 1.53193e-19)
(4.30844 -2.36869 7.47143e-20)
(4.24038 -2.47773 -1.6691e-19)
(4.16956 -2.58484 6.71457e-21)
(4.09605 -2.68995 -3.14217e-19)
(4.01991 -2.79299 4.76541e-19)
(3.9412 -2.89391 -1.56158e-19)
(3.85998 -2.99266 -2.00756e-19)
(3.77633 -3.08918 -2.80279e-20)
(3.69032 -3.18347 -1.53104e-21)
(3.60206 -3.27558 -1.50051e-19)
(3.51149 -3.36591 2.67184e-19)
(5.04272 -0.0580185 7.83801e-21)
(5.029 -0.190051 1.1588e-20)
(5.01157 -0.320957 2.89423e-21)