/*--------------------------------*- C++ -*----------------------------------*\
| =========                 |                                                 |
| \\      /  F ield         | OpenFOAM: The Open Source CFD Toolbox           |
|  \\    /   O peration     | Version:  v1912                                 |
|   \\  /    A nd           | Website:  www.openfoam.com                      |
|    \\/     M anipulation  |                                                 |
\*---------------------------------------------------------------------------*/
FoamFile
{
    version     2.0;
    format      ascii;
    class       volScalarField;
    location    "17";
    object      p;
}
// * * * * * * * * * * * * * * * * * * * * * * * * * * * * * * * * * * * * * //

dimensions      [0 2 -2 0 0 0 0];


internalField   nonuniform List<scalar> 
9600
(
-40.9469
-35.649
-32.3896
-29.6204
-27.0925
-24.8121
-22.7497
-20.8765
-19.1739
-17.6269
-16.2221
-14.9466
-13.7883
-12.7361
-11.7792
-10.9081
-10.1141
-9.38896
-8.72503
-8.12029
-41.6396
-36.3266
-33.0345
-30.2262
-27.6571
-25.3365
-23.2365
-21.329
-19.5957
-18.0217
-16.5931
-15.2968
-14.1204
-13.0522
-12.0812
-11.1974
-10.392
-9.65642
-8.98257
-8.36967
-42.3346
-37.001
-33.6748
-30.8272
-28.2166
-25.8556
-23.718
-21.7764
-20.0127
-18.4118
-16.9598
-15.643
-14.4487
-13.3647
-12.3797
-11.4836
-10.6669
-9.92092
-9.23718
-8.61632
-43.0288
-37.6717
-34.31
-31.4225
-28.7702
-26.3687
-24.1935
-22.2179
-20.424
-18.7967
-17.3215
-15.9846
-14.7726
-13.6731
-12.6744
-11.766
-10.9383
-10.182
-9.48849
-8.8599
-43.7195
-38.3374
-34.9392
-32.0112
-29.3169
-26.8749
-24.6621
-22.6527
-20.8289
-19.1755
-17.6775
-16.3208
-15.0915
-13.9768
-12.9647
-12.0443
-11.2057
-10.4393
-9.73617
-9.10018
-44.4047
-38.9968
-35.5615
-32.5923
-29.8558
-27.3732
-25.123
-23.0801
-21.2267
-19.5475
-18.0272
-16.651
-15.4048
-14.2753
-13.2501
-12.318
-11.4688
-10.6924
-9.97989
-9.33688
-45.0827
-39.6484
-36.1756
-33.1648
-30.3859
-27.8627
-25.5753
-23.4992
-21.6167
-19.912
-18.3698
-16.9746
-15.7119
-14.568
-13.53
-12.5865
-11.727
-10.941
-10.2193
-9.56974
-45.7521
-40.2912
-36.7805
-33.7277
-30.9062
-28.3425
-26.0182
-23.9091
-21.9979
-20.2684
-18.7046
-17.2909
-16.0122
-14.8542
-13.8039
-12.8494
-11.9799
-11.1846
-10.4541
-9.79847
-46.4116
-40.9238
-37.375
-34.28
-31.4158
-28.8117
-26.4507
-24.3092
-22.3696
-20.6157
-19.031
-17.5993
-16.3049
-15.1334
-14.0711
-13.106
-12.227
-11.4228
-10.6839
-10.0227
-47.0602
-41.5452
-37.958
-34.8206
-31.9137
-29.2694
-26.872
-24.6985
-22.7311
-20.9534
-19.3482
-17.8989
-16.5894
-15.4047
-14.331
-13.3558
-12.4677
-11.655
-10.9081
-10.2421
-47.6968
-42.1544
-38.5287
-35.3486
-32.3991
-29.7148
-27.2814
-25.0762
-23.0816
-21.2804
-19.6553
-18.189
-16.8649
-15.6675
-14.5828
-13.5979
-12.7012
-11.8805
-11.1261
-10.4559
-48.3206
-42.7503
-39.086
-35.8632
-32.8711
-30.147
-27.678
-25.4417
-23.4202
-21.5962
-19.9516
-18.4687
-17.1304
-15.9209
-14.8256
-13.8315
-12.9268
-12.0985
-11.3373
-10.6635
-48.9308
-43.3324
-39.6291
-36.3634
-33.3288
-30.5653
-28.061
-25.794
-23.7462
-21.8998
-20.2363
-18.7372
-17.3852
-16.1639
-15.0584
-14.0556
-13.1433
-12.3082
-11.5406
-10.8641
-49.5271
-43.8997
-40.1573
-36.8486
-33.7716
-30.9688
-28.4297
-26.1325
-24.0589
-22.1906
-20.5084
-18.9936
-17.6281
-16.3953
-15.2801
-14.269
-13.3496
-12.5081
-11.7349
-11.057
-50.1088
-44.4515
-40.6697
-37.318
-34.1987
-31.3571
-28.7836
-26.4566
-24.3576
-22.4678
-20.7674
-19.237
-17.8583
-16.6142
-15.4893
-14.47
-13.5437
-12.6962
-11.9183
-11.2403
-50.6756
-44.9871
-41.1657
-37.771
-34.6096
-31.7294
-29.122
-26.7657
-24.6418
-22.7308
-21.0124
-19.4667
-18.0748
-16.8193
-15.6847
-14.6571
-13.7239
-12.8706
-12.0881
-11.4091
-51.2287
-45.5064
-41.6447
-38.207
-35.0036
-32.0853
-29.4443
-27.0594
-24.911
-22.9791
-21.2429
-19.6819
-18.2767
-17.0099
-15.8654
-14.8296
-13.8898
-13.031
-12.2432
-11.5601
-51.7725
-46.0105
-42.1059
-38.6247
-35.3798
-32.4239
-29.7502
-27.3372
-25.1648
-23.2124
-21.4585
-19.8819
-18.4632
-17.1842
-16.0294
-14.9851
-14.0389
-13.1749
-12.3825
-11.7036
-52.3092
-46.499
-42.5476
-39.0232
-35.7378
-32.7455
-30.0399
-27.5995
-25.4038
-23.4312
-21.6595
-20.0671
-18.6337
-17.3411
-16.1735
-15.1175
-14.1604
-13.2864
-12.4924
-11.8432
-52.8168
-46.9642
-42.9689
-39.403
-36.0789
-33.0514
-30.315
-27.8481
-25.6296
-23.6373
-21.8481
-20.2396
-18.7909
-17.483
-16.2995
-15.2258
-14.2471
-13.3496
-12.5459
-11.902
-57.8792
-57.8499
-57.7848
-57.6985
-57.5901
-57.4572
-57.2991
-57.1165
-56.9098
-56.6796
-56.4265
-56.1509
-55.8536
-55.5352
-55.1966
-54.8385
-54.4623
-54.0694
-53.6629
-53.246
-51.5774
-51.5756
-51.5426
-51.484
-51.4003
-51.291
-51.1565
-50.9973
-50.8141
-50.6076
-50.3784
-50.1271
-49.8543
-49.5606
-49.2467
-48.9133
-48.561
-48.1904
-47.8021
-47.394
-47.0091
-47.0302
-47.0237
-46.9903
-46.931
-46.8469
-46.7384
-46.6063
-46.4511
-46.2733
-46.0737
-45.8527
-45.611
-45.3489
-45.0672
-44.7662
-44.4463
-44.1075
-43.7495
-43.3706
-42.8659
-42.9034
-42.916
-42.9031
-42.8655
-42.8044
-42.7203
-42.6138
-42.4855
-42.3359
-42.1654
-41.9748
-41.7643
-41.5346
-41.286
-41.0189
-40.7334
-40.4295
-40.1069
-39.765
-39.0474
-39.094
-39.1181
-39.119
-39.0972
-39.0533
-38.9881
-38.902
-38.7955
-38.6692
-38.5235
-38.3589
-38.176
-37.975
-37.7564
-37.5204
-37.2673
-36.9968
-36.709
-36.4033
-35.6263
-35.6766
-35.7066
-35.7156
-35.7036
-35.6711
-35.6189
-35.5475
-35.4573
-35.3487
-35.2223
-35.0785
-34.9178
-34.7406
-34.5473
-34.338
-34.1129
-33.8721
-33.6152
-33.342
-32.5903
-32.6406
-32.6722
-32.6846
-32.6776
-32.6519
-32.6079
-32.5463
-32.4673
-32.3715
-32.2593
-32.1312
-31.9878
-31.8294
-31.6563
-31.4689
-31.2673
-31.0514
-30.8211
-30.576
-29.9016
-29.9493
-29.9797
-29.9923
-29.9871
-29.9645
-29.9251
-29.8694
-29.7978
-29.7107
-29.6086
-29.4921
-29.3616
-29.2175
-29.0604
-28.8905
-28.708
-28.5128
-28.3049
-28.0837
-27.5206
-27.5641
-27.5915
-27.6024
-27.5968
-27.5751
-27.5378
-27.4854
-27.4183
-27.337
-27.2419
-27.1336
-27.0126
-26.8795
-26.7347
-26.5786
-26.4116
-26.2335
-26.0443
-25.8434
-25.4082
-25.4468
-25.4704
-25.4785
-25.4713
-25.4491
-25.4123
-25.3615
-25.297
-25.2193
-25.129
-25.0265
-24.9126
-24.7877
-24.6525
-24.5074
-24.3529
-24.1891
-24.0157
-23.8322
-23.5277
-23.5614
-23.5809
-23.5858
-23.5764
-23.5529
-23.5158
-23.4655
-23.4024
-23.327
-23.2399
-23.1417
-23.0329
-22.9143
-22.7866
-22.6503
-22.5061
-22.3542
-22.1945
-22.0263
-21.8471
-21.876
-21.8914
-21.8932
-21.8813
-21.8562
-21.8183
-21.7679
-21.7056
-21.6317
-21.5468
-21.4516
-21.3467
-21.2329
-21.111
-20.9819
-20.8462
-20.7045
-20.5568
-20.4024
-20.3385
-20.363
-20.3747
-20.3733
-20.3591
-20.3324
-20.2935
-20.2428
-20.1808
-20.1078
-20.0246
-19.9316
-19.8296
-19.7195
-19.6023
-19.4788
-19.3503
-19.2174
-19.0806
-18.939
-18.9785
-18.999
-19.0073
-19.0032
-18.9868
-18.9586
-18.9187
-18.8676
-18.8057
-18.7334
-18.6513
-18.56
-18.4603
-18.3531
-18.2394
-18.1205
-17.9979
-17.8726
-17.7458
-17.6165
-17.7475
-17.7645
-17.7698
-17.7632
-17.7449
-17.7152
-17.6745
-17.6231
-17.5612
-17.4895
-17.4083
-17.3183
-17.2203
-17.1152
-17.0043
-16.8889
-16.7709
-16.6521
-16.5346
-16.4173
-16.6292
-16.643
-16.6455
-16.6367
-16.6168
-16.586
-16.5445
-16.4927
-16.431
-16.3596
-16.2792
-16.1903
-16.0936
-15.99
-15.8809
-15.7679
-15.6534
-15.5396
-15.4305
-15.3251
-15.6097
-15.6207
-15.6209
-15.6102
-15.5887
-15.5568
-15.5147
-15.4626
-15.4009
-15.3299
-15.25
-15.1619
-15.066
-14.9634
-14.8552
-14.7434
-14.6308
-14.5201
-14.4181
-14.3231
-14.6773
-14.6861
-14.6844
-14.6722
-14.6497
-14.617
-14.5745
-14.5223
-14.4608
-14.3902
-14.3108
-14.2232
-14.1279
-14.0257
-13.9178
-13.8058
-13.6933
-13.5838
-13.4876
-13.4005
-13.821
-13.8284
-13.8258
-13.8131
-13.7904
-13.758
-13.7161
-13.6649
-13.6045
-13.5353
-13.4576
-13.3716
-13.278
-13.1772
-13.0702
-12.9584
-12.8452
-12.7353
-12.6451
-12.5703
-13.0353
-13.0396
-13.0344
-13.02
-12.9962
-12.9634
-12.9216
-12.871
-12.8119
-12.7444
-12.6688
-12.5853
-12.4943
-12.396
-12.2909
-12.1802
-12.0652
-11.9512
-11.8551
-11.8025
-51.9644
-52.502
-53.0044
-53.4938
-53.9671
-54.4184
-54.8449
-55.2456
-55.6195
-55.9658
-56.2838
-56.5729
-56.8329
-57.0635
-57.2646
-57.4356
-57.5773
-57.6908
-57.7781
-57.8413
-45.54
-46.0834
-46.6005
-47.097
-47.5726
-48.0247
-48.452
-48.8539
-49.2297
-49.5787
-49.9004
-50.1943
-50.4606
-50.6996
-50.9113
-51.0941
-51.2478
-51.3731
-51.4704
-51.5388
-40.9749
-41.5071
-42.0173
-42.5057
-42.9724
-43.4165
-43.8374
-44.2343
-44.6069
-44.9545
-45.276
-45.5711
-45.84
-46.0817
-46.2955
-46.4827
-46.6435
-46.7773
-46.8838
-46.9615
-36.9333
-37.442
-37.9325
-38.4029
-38.8526
-39.2813
-39.6886
-40.0738
-40.4363
-40.7753
-41.0902
-41.3798
-41.6453
-41.8862
-42.1021
-42.2933
-42.4595
-42.6002
-42.7151
-42.8038
-33.3335
-33.8142
-34.2792
-34.7259
-35.1534
-35.5613
-35.9492
-36.3164
-36.6622
-36.986
-37.2882
-37.5691
-37.8266
-38.0611
-38.2726
-38.4609
-38.6258
-38.767
-38.8845
-38.9782
-30.2047
-30.6562
-31.0935
-31.5142
-31.917
-32.3016
-32.6674
-33.014
-33.3408
-33.6475
-33.9341
-34.1999
-34.4443
-34.6674
-34.8696
-35.0506
-35.2096
-35.3467
-35.462
-35.5554
-27.4948
-27.9177
-28.3276
-28.722
-29.0998
-29.4604
-29.8035
-30.1285
-30.4351
-30.7228
-30.9916
-31.2409
-31.4706
-31.6803
-31.8695
-32.0406
-32.1914
-32.3216
-32.4314
-32.5212
-25.1386
-25.5348
-25.9187
-26.2881
-26.6418
-26.9793
-27.3002
-27.604
-27.8903
-28.1589
-28.4096
-28.6422
-28.8564
-29.0523
-29.2297
-29.387
-29.5279
-29.6498
-29.7526
-29.8366
-23.0792
-23.4509
-23.811
-24.1573
-24.4887
-24.8046
-25.1046
-25.3882
-25.6553
-25.9056
-26.1389
-26.3551
-26.5542
-26.736
-26.9005
-27.0475
-27.1761
-27.2886
-27.3836
-27.461
-21.2678
-21.6175
-21.9561
-22.2816
-22.5926
-22.8887
-23.1693
-23.4344
-23.6836
-23.9168
-24.1338
-24.3347
-24.5194
-24.6877
-24.8397
-24.9753
-25.0944
-25.197
-25.2838
-25.3543
-19.6638
-19.994
-20.3135
-20.6202
-20.9129
-21.1909
-21.4541
-21.7021
-21.9348
-22.1523
-22.3544
-22.5411
-22.7124
-22.8683
-23.0087
-23.1337
-23.2431
-23.337
-23.416
-23.4797
-18.2343
-18.5472
-18.8499
-19.14
-19.4162
-19.6779
-19.925
-20.1575
-20.3752
-20.5783
-20.7667
-20.9404
-21.0996
-21.2441
-21.374
-21.4892
-21.5898
-21.6759
-21.7472
-21.8045
-16.9527
-17.2503
-17.5384
-17.8139
-18.0752
-18.322
-18.5546
-18.7728
-18.9768
-19.1668
-19.3427
-19.5047
-19.6528
-19.787
-19.9073
-20.0137
-20.1062
-20.1848
-20.2494
-20.301
-15.7974
-16.0817
-16.3574
-16.62
-16.8678
-17.1011
-17.3202
-17.5254
-17.7168
-17.8947
-18.0592
-18.2105
-18.3485
-18.4734
-18.585
-18.6834
-18.7687
-18.8408
-18.9
-18.9456
-14.7514
-15.0244
-15.2897
-15.5407
-15.776
-15.9968
-16.2035
-16.3965
-16.5763
-16.7431
-16.8972
-17.0387
-17.1676
-17.284
-17.3878
-17.4791
-17.5578
-17.624
-17.6776
-17.7187
-13.7999
-14.0652
-14.3222
-14.5623
-14.7859
-14.9948
-15.1897
-15.3713
-15.5402
-15.6967
-15.8412
-15.9737
-16.0944
-16.203
-16.2998
-16.3846
-16.4574
-16.5182
-16.567
-16.6039
-12.9256
-13.1901
-13.4427
-13.6725
-13.8845
-14.082
-14.2657
-14.4365
-14.5952
-14.7423
-14.878
-15.0023
-15.1154
-15.2172
-15.3075
-15.3865
-15.454
-15.51
-15.5546
-15.5877
-12.1077
-12.3769
-12.6314
-12.8527
-13.0538
-13.2407
-13.4142
-13.5753
-13.7251
-13.8639
-13.992
-14.1095
-14.2162
-14.3122
-14.3973
-14.4714
-14.5346
-14.5868
-14.628
-14.6583
-11.3568
-11.6192
-11.8756
-12.0927
-12.2847
-12.4612
-12.6253
-12.7778
-12.9196
-13.0511
-13.1727
-13.2842
-13.3856
-13.4767
-13.5574
-13.6277
-13.6875
-13.7367
-13.7753
-13.8035
-10.7926
-11.0364
-11.258
-11.466
-11.647
-11.8073
-11.9561
-12.0954
-12.2248
-12.3448
-12.4556
-12.5571
-12.6492
-12.7317
-12.8045
-12.8676
-12.9208
-12.9642
-12.9976
-13.021
-5.66064
-6.1345
-6.65599
-7.2225
-7.84068
-8.51811
-9.26268
-10.0841
-10.9947
-12.0103
-13.1512
-14.4441
-15.9236
-17.6347
-19.6358
-22.0036
-24.8165
-28.0952
-32.0567
-38.0222
-5.91686
-6.40293
-6.93372
-7.51096
-8.14143
-8.83244
-9.59202
-10.4301
-11.3593
-12.3956
-13.5598
-14.8788
-16.3877
-18.1319
-20.17
-22.5784
-25.4348
-28.7567
-32.7538
-38.7382
-6.17473
-6.67302
-7.21322
-7.80143
-8.44445
-9.14929
-9.92412
-10.7791
-11.7272
-12.7845
-13.9723
-15.3178
-16.8565
-18.6341
-20.7093
-23.1585
-26.0579
-29.422
-33.4528
-39.4518
-6.43375
-6.94424
-7.49394
-8.09332
-8.74911
-9.46799
-10.2583
-11.1304
-12.0975
-13.1762
-14.3878
-15.76
-17.3286
-19.1398
-21.2523
-23.7422
-26.6843
-30.0905
-34.1562
-40.1744
-6.69352
-7.21613
-7.77542
-8.38617
-9.05493
-9.78803
-10.594
-11.4834
-12.4698
-13.5699
-14.8055
-16.2045
-17.8033
-19.6482
-21.7981
-24.3286
-27.3134
-30.7617
-34.863
-40.9037
-6.95365
-7.48829
-8.05725
-8.67958
-9.36149
-10.109
-10.9307
-11.8377
-12.8434
-13.9651
-15.2248
-16.6509
-18.28
-20.1586
-22.3459
-24.917
-27.9445
-31.4348
-35.5714
-41.6357
-7.21386
-7.7604
-8.33908
-8.97317
-9.66842
-10.4304
-11.2681
-12.1926
-13.2179
-14.3614
-15.6453
-17.0985
-18.7579
-20.6704
-22.8951
-25.5068
-28.5768
-32.1086
-36.28
-42.3681
-7.4739
-8.03215
-8.62059
-9.26662
-9.97533
-10.752
-11.6057
-12.5479
-13.5928
-14.758
-16.0663
-17.5467
-19.2364
-21.1827
-23.4448
-26.097
-29.2092
-32.7822
-36.9876
-43.0994
-7.73362
-8.30336
-8.90154
-9.55964
-10.2819
-11.0733
-11.9431
-12.903
-13.9675
-15.1545
-16.4871
-17.9947
-19.7148
-21.6949
-23.9943
-26.6866
-29.8407
-33.4544
-37.693
-43.8284
-7.99298
-8.57392
-9.18177
-9.85204
-10.588
-11.3941
-12.2799
-13.2575
-14.3416
-15.5504
-16.9072
-18.4419
-20.1923
-22.2061
-24.5425
-27.2748
-30.4703
-34.1241
-38.3951
-44.5536
-8.25208
-8.84384
-9.46123
-10.1437
-10.8932
-11.714
-12.6158
-13.611
-14.7145
-15.945
-17.326
-18.8876
-20.6682
-22.7155
-25.0887
-27.8605
-31.0969
-34.7902
-39.0925
-45.2736
-8.51118
-9.11327
-9.73993
-10.4345
-11.1975
-12.0327
-12.9504
-13.963
-15.0858
-16.3378
-17.7427
-19.3312
-21.1416
-23.2221
-25.6318
-28.4427
-31.7194
-35.4516
-39.7841
-45.987
-8.77074
-9.38246
-10.0179
-10.7243
-11.5006
-12.3501
-13.2832
-14.313
-15.455
-16.7281
-18.1568
-19.7717
-21.6118
-23.7252
-26.1709
-29.0204
-32.3368
-36.1069
-40.4685
-46.6926
-9.0314
-9.65176
-10.2954
-11.0132
-11.8023
-12.6656
-13.6139
-14.6606
-15.8212
-17.1153
-18.5674
-20.2085
-22.0778
-24.2237
-26.705
-29.5925
-32.9478
-36.7551
-41.1446
-47.3891
-9.29382
-9.92138
-10.5721
-11.3007
-12.1021
-12.9788
-13.9418
-15.0049
-16.1839
-17.4986
-18.9737
-20.6406
-22.5388
-24.7167
-27.233
-30.1578
-33.5512
-37.395
-41.8112
-48.0755
-9.55876
-10.1914
-10.8478
-11.5863
-12.3993
-13.2888
-14.2662
-15.3453
-16.5423
-17.8771
-19.3748
-21.0671
-22.9937
-25.2031
-27.7538
-30.7151
-34.1459
-38.0254
-42.4673
-48.7508
-9.82578
-10.4604
-11.1208
-11.8684
-12.6927
-13.5946
-14.5859
-15.6807
-16.8953
-18.2498
-19.7698
-21.4871
-23.4415
-25.6818
-28.2662
-31.2633
-34.7305
-38.6448
-43.1118
-49.4145
-10.0937
-10.7257
-11.3884
-12.1452
-12.9808
-13.8951
-14.9
-16.0102
-17.242
-18.6159
-20.1577
-21.8994
-23.8811
-26.1517
-28.769
-31.8008
-35.3034
-39.2518
-43.7438
-50.0666
-10.3544
-10.9785
-11.6446
-12.4133
-13.2615
-14.1884
-15.2071
-16.3325
-17.5813
-18.9743
-20.5373
-22.3029
-24.3114
-26.6114
-29.2607
-32.3263
-35.863
-39.8446
-44.362
-50.7087
-10.5882
-11.1995
-11.8851
-12.6737
-13.5355
-14.4746
-15.5067
-16.6471
-17.9126
-19.3241
-20.9079
-22.6968
-24.7312
-27.0598
-29.7401
-32.8381
-36.4073
-40.42
-44.9621
-51.3424
-1.53252
-1.79116
-2.1448
-2.54128
-2.97012
-3.43714
-3.94899
-4.51194
-5.13386
-5.82534
-6.60056
-7.47862
-8.48551
-9.65674
-11.042
-12.7137
-14.7582
-17.2327
-20.4355
-25.8481
-1.676
-1.94981
-2.3199
-2.72086
-3.15201
-3.62327
-4.14087
-4.71069
-5.34074
-6.04186
-6.82846
-7.71997
-8.74278
-9.93287
-11.3405
-13.0384
-15.1131
-17.6201
-20.8523
-26.2763
-1.81162
-2.10841
-2.4904
-2.89844
-3.33632
-3.8149
-4.34028
-4.91856
-5.55809
-6.27004
-7.06915
-7.97521
-9.01504
-10.2251
-11.6562
-13.3813
-15.4868
-18.0261
-21.2871
-26.7172
-1.96772
-2.27462
-2.66397
-3.07982
-3.52593
-4.013
-4.54728
-5.13514
-5.78526
-6.50909
-7.32173
-8.24333
-9.30118
-10.5322
-11.9877
-13.741
-15.8782
-18.4511
-21.7439
-27.1893
-2.13444
-2.44778
-2.84412
-3.268
-3.7226
-4.21859
-4.76239
-5.36061
-6.02217
-6.75878
-7.58586
-8.52394
-9.60076
-10.8538
-12.3347
-14.1172
-16.2872
-18.8951
-22.2224
-27.6894
-2.30635
-2.62753
-3.0313
-3.46332
-3.92666
-4.43198
-4.98587
-5.59511
-6.26883
-7.019
-7.86135
-8.81681
-9.91353
-11.1895
-12.6969
-14.5097
-16.7137
-19.3579
-22.7208
-28.2124
-2.485
-2.81479
-3.22589
-3.66604
-4.13835
-4.65339
-5.21785
-5.83866
-6.52518
-7.28962
-8.14802
-9.12168
-10.2392
-11.5391
-13.0739
-14.9182
-17.1573
-19.8387
-23.238
-28.756
-2.67179
-3.01013
-3.42831
-3.87655
-4.35799
-4.88302
-5.45842
-6.09129
-6.79116
-7.5705
-8.44566
-9.4383
-10.5775
-11.9021
-13.4655
-15.3422
-17.6174
-20.3371
-23.7736
-29.3191
-2.86658
-3.21347
-3.63867
-4.09502
-4.58571
-5.12096
-5.70762
-6.35294
-7.06665
-7.86147
-8.75403
-9.76638
-10.928
-12.2784
-13.8711
-15.7812
-18.0936
-20.8525
-24.3269
-29.9008
-3.06884
-3.42455
-3.85683
-4.32134
-4.82143
-5.36712
-5.96533
-6.62349
-7.3515
-8.16233
-9.07289
-10.1056
-11.2904
-12.6673
-14.2903
-16.2348
-18.5852
-21.3842
-24.8971
-30.5
-3.27819
-3.64305
-4.08252
-4.5553
-5.06495
-5.62132
-6.23138
-6.90272
-7.64546
-8.47278
-9.40193
-10.4557
-11.6644
-13.0686
-14.7227
-16.7024
-19.0917
-21.9316
-25.4834
-31.1158
-3.49427
-3.86863
-4.31542
-4.7966
-5.316
-5.88327
-6.50547
-7.19035
-7.94823
-8.79253
-9.74079
-10.8162
-12.0495
-13.4817
-15.1677
-17.1834
-19.6125
-22.4939
-26.0852
-31.7472
-3.71665
-4.10083
-4.5551
-5.04485
-5.57421
-6.15265
-6.78727
-7.48603
-8.25943
-9.12116
-10.0891
-11.1867
-12.4452
-13.9061
-15.6249
-17.6773
-20.1468
-23.0705
-26.7015
-32.3933
-3.94482
-4.33918
-4.80111
-5.29963
-5.83918
-6.42902
-7.07637
-7.78934
-8.57867
-9.45827
-10.4463
-11.5667
-12.8511
-14.3414
-16.0935
-18.1834
-20.6941
-23.6606
-27.3317
-33.0534
-4.17828
-4.58315
-5.05295
-5.56044
-6.11042
-6.71195
-7.37231
-8.09984
-8.90546
-9.80336
-10.812
-11.9557
-13.2665
-14.7868
-16.5729
-18.7011
-21.2535
-24.2634
-27.9749
-33.7266
-4.4165
-4.8322
-5.31008
-5.82677
-6.38745
-7.00094
-7.67462
-8.41702
-9.23931
-10.1559
-11.1856
-12.3531
-13.6909
-15.2419
-17.0626
-19.2296
-21.8244
-24.8781
-28.6304
-34.4123
-4.65894
-5.08578
-5.57196
-6.0981
-6.66974
-7.29547
-7.98276
-8.74037
-9.57967
-10.5154
-11.5666
-12.7583
-14.1236
-15.7058
-17.5617
-19.7681
-22.4058
-25.504
-29.2975
-35.1099
-4.90509
-5.34334
-5.83803
-6.37389
-6.95676
-7.59501
-8.29621
-9.06933
-9.926
-10.8812
-11.9543
-13.1708
-14.564
-16.1778
-18.0696
-20.3158
-22.9969
-26.14
-29.9754
-35.8193
-5.15441
-5.60432
-6.10775
-6.65358
-7.24795
-7.899
-8.61439
-9.40333
-10.2777
-11.2527
-12.3481
-13.5897
-15.0114
-16.6573
-18.5852
-20.8717
-23.5967
-26.7849
-30.6631
-36.5411
-5.40643
-5.86823
-6.38061
-6.93665
-7.54281
-8.20692
-8.93678
-9.74184
-10.6342
-11.6294
-12.7474
-14.0145
-15.465
-17.1434
-19.1078
-21.435
-24.2039
-27.4373
-31.3581
-37.2761
-1.29688
-1.10492
-0.964
-0.839652
-0.731412
-0.636732
-0.554527
-0.484022
-0.424727
-0.376289
-0.338439
-0.310959
-0.293684
-0.286501
-0.289183
-0.301125
-0.322102
-0.353887
-0.394618
-0.445073
-1.6303
-1.46068
-1.31596
-1.18684
-1.07422
-0.975538
-0.889816
-0.816257
-0.754352
-0.703724
-0.664088
-0.635211
-0.616906
-0.609029
-0.611382
-0.623585
-0.645467
-0.677534
-0.719488
-0.771239
-1.97023
-1.80836
-1.66389
-1.53387
-1.41941
-1.31886
-1.23148
-1.15659
-1.09371
-1.04247
-1.0026
-0.973844
-0.956022
-0.948962
-0.952465
-0.966272
-0.990294
-1.0247
-1.06929
-1.12394
-2.3629
-2.19989
-2.05289
-1.92031
-1.80267
-1.69901
-1.6088
-1.53147
-1.4666
-1.41384
-1.37291
-1.34358
-1.32563
-1.31888
-1.32313
-1.33818
-1.36394
-1.40043
-1.44745
-1.50489
-2.79284
-2.62809
-2.47781
-2.34184
-2.22053
-2.11331
-2.01982
-1.93963
-1.87237
-1.81772
-1.7754
-1.74518
-1.72685
-1.72021
-1.72508
-1.74126
-1.76865
-1.80716
-1.85662
-1.91696
-3.25849
-3.09133
-2.93763
-2.79802
-2.67287
-2.56197
-2.46508
-2.38189
-2.3121
-2.25542
-2.2116
-2.18041
-2.16164
-2.15511
-2.1606
-2.17795
-2.20703
-2.2477
-2.29979
-2.36323
-3.76644
-3.59548
-3.43772
-3.29395
-3.16461
-3.04971
-2.94914
-2.86268
-2.7901
-2.73116
-2.68564
-2.65331
-2.63398
-2.62744
-2.63352
-2.65202
-2.68281
-2.72572
-2.78056
-2.84729
-4.32384
-4.14769
-3.98488
-3.83617
-3.70203
-3.5826
-3.47787
-3.3877
-3.31194
-3.25038
-3.20282
-3.16906
-3.14892
-3.14219
-3.14869
-3.16824
-3.20069
-3.24584
-3.30351
-3.37367
-4.93874
-4.75605
-4.58706
-4.43243
-4.29268
-4.16799
-4.05844
-3.96396
-3.88446
-3.81977
-3.76972
-3.73413
-3.71281
-3.70559
-3.71227
-3.73268
-3.76665
-3.81398
-3.87448
-3.9481
-5.62163
-5.43093
-5.25442
-5.0927
-4.94628
-4.81539
-4.70016
-4.60058
-4.51661
-4.44811
-4.39495
-4.35696
-4.33398
-4.32582
-4.33231
-4.35326
-4.3885
-4.43781
-4.50102
-4.57808
-6.38649
-6.18607
-6.00047
-5.83022
-5.67581
-5.5375
-5.41547
-5.30976
-5.22034
-5.14714
-5.09004
-5.04889
-5.02354
-5.01382
-5.01955
-5.04055
-5.07664
-5.12759
-5.19322
-5.27353
-7.25215
-7.04001
-6.84343
-6.66287
-6.49881
-6.35154
-6.22127
-6.10806
-6.01193
-5.93283
-5.87067
-5.82533
-5.79665
-5.78448
-5.78865
-5.80898
-5.84527
-5.89729
-5.96483
-6.04798
-8.24421
-8.01797
-7.8081
-7.61503
-7.43925
-7.28107
-7.14069
-7.01824
-6.91375
-6.82719
-6.7585
-6.70757
-6.67426
-6.65842
-6.6599
-6.6785
-6.71404
-6.76624
-6.83492
-6.92019
-9.39772
-9.15446
-8.9285
-8.72022
-8.53014
-8.35857
-8.20575
-8.07181
-7.95682
-7.86078
-7.78362
-7.72526
-7.68558
-7.66443
-7.66166
-7.67708
-7.71048
-7.76159
-7.83019
-7.91647
-10.7618
-10.4981
-10.2526
-10.0258
-9.81824
-9.63023
-9.46203
-9.3138
-9.18561
-9.07748
-8.98936
-8.92119
-8.87284
-8.84418
-8.83506
-8.8453
-8.87468
-8.92287
-8.98967
-9.0753
-12.4082
-12.1198
-11.8508
-11.6015
-11.3727
-11.1645
-10.9774
-10.8115
-10.6668
-10.5433
-10.4411
-10.3601
-10.3002
-10.2612
-10.243
-10.2454
-10.2682
-10.311
-10.3736
-10.4563
-14.4229
-14.1055
-13.8085
-13.5326
-13.2783
-13.0461
-12.8362
-12.6488
-12.484
-12.3417
-12.222
-12.1248
-12.05
-11.9975
-11.9672
-11.9588
-11.9722
-12.0071
-12.0631
-12.1403
-16.8634
-16.5132
-16.1844
-15.8781
-15.595
-15.3354
-15.0996
-14.8876
-14.6996
-14.5355
-14.3954
-14.2792
-14.1869
-14.1182
-14.0732
-14.0517
-14.0535
-14.0784
-14.126
-14.1953
-20.0308
-19.6436
-19.2786
-18.9384
-18.6234
-18.3335
-18.0688
-17.8292
-17.6147
-17.4253
-17.2609
-17.1216
-17.0072
-16.9177
-16.853
-16.8128
-16.7971
-16.8061
-16.8394
-16.8951
-25.3874
-24.9574
-24.5603
-24.1929
-23.8532
-23.5401
-23.2532
-22.9925
-22.7577
-22.549
-22.3663
-22.2096
-22.0791
-21.9747
-21.8965
-21.8446
-21.8196
-21.8237
-21.8582
-21.9127
-0.50472
-0.573226
-0.650537
-0.736539
-0.831115
-0.934122
-1.0454
-1.16474
-1.29193
-1.42667
-1.56859
-1.71718
-1.87166
-2.03088
-2.19324
-2.35655
-2.51637
-2.66309
-2.78131
-2.89482
-0.832577
-0.903141
-0.982835
-1.07151
-1.16903
-1.27523
-1.38993
-1.51292
-1.64392
-1.78264
-1.92864
-2.0814
-2.24015
-2.40377
-2.5707
-2.73932
-2.90789
-3.0687
-3.20618
-3.36023
-1.18852
-1.26267
-1.34628
-1.4392
-1.54125
-1.65227
-1.77205
-1.90036
-2.0369
-2.18135
-2.33327
-2.49211
-2.65713
-2.82734
-3.0014
-3.17815
-3.35663
-3.53244
-3.69939
-3.88625
-1.57268
-1.65043
-1.73802
-1.83527
-1.942
-2.05801
-2.1831
-2.31699
-2.45939
-2.60995
-2.7682
-2.93361
-3.10548
-3.28291
-3.46486
-3.65045
-3.83888
-4.0278
-4.21731
-4.42721
-1.9881
-2.0696
-2.16137
-2.26319
-2.37487
-2.49621
-2.62696
-2.76686
-2.91558
-3.07276
-3.23795
-3.41061
-3.5901
-3.77564
-3.96644
-4.16188
-4.36132
-4.56367
-4.77133
-4.99723
-2.43797
-2.52353
-2.61981
-2.72658
-2.84365
-2.97078
-3.10773
-3.25422
-3.4099
-3.57442
-3.74733
-3.92812
-4.11622
-4.31097
-4.51176
-4.71816
-4.92978
-5.14632
-5.37042
-5.60989
-2.9259
-3.01578
-3.11689
-3.229
-3.35189
-3.48532
-3.62902
-3.78272
-3.94607
-4.1187
-4.30019
-4.49007
-4.68782
-4.89289
-5.10482
-5.3233
-5.54812
-5.77944
-6.01943
-6.27253
-3.45638
-3.55076
-3.65701
-3.77481
-3.90394
-4.04416
-4.19518
-4.35672
-4.52845
-4.70999
-4.90096
-5.1009
-5.30936
-5.52589
-5.7501
-5.98178
-6.22082
-6.46753
-6.72348
-6.99117
-4.03472
-4.13406
-4.24573
-4.36956
-4.50533
-4.65279
-4.81168
-4.98169
-5.1625
-5.35376
-5.55509
-5.76607
-5.9863
-6.21539
-6.45303
-6.69902
-6.95332
-7.2162
-7.48869
-7.77222
-4.66896
-4.77307
-4.89031
-5.02039
-5.16311
-5.31823
-5.48546
-5.66451
-5.85507
-6.05679
-6.26932
-6.49227
-6.72528
-6.968
-7.22016
-7.48157
-7.75219
-8.03218
-8.32214
-8.62291
-5.36851
-5.47739
-5.60025
-5.7367
-5.88656
-6.04959
-6.22554
-6.4141
-6.61496
-6.82779
-7.05227
-7.28803
-7.53473
-7.79206
-8.05976
-8.33764
-8.62562
-8.92372
-9.23224
-9.55173
-6.14674
-6.26016
-6.38832
-6.53121
-6.68818
-6.85921
-7.04404
-7.24239
-7.45394
-7.67838
-7.91538
-8.16462
-8.42577
-8.69853
-8.98265
-9.27794
-9.58424
-9.90146
-10.2297
-10.5693
-7.02209
-7.13954
-7.27265
-7.42114
-7.58523
-7.76408
-7.95772
-8.16587
-8.38823
-8.62449
-8.87433
-9.13746
-9.41356
-9.70233
-10.0035
-10.317
-10.6424
-10.9796
-11.3285
-11.6894
-8.02049
-8.14099
-8.27824
-8.43186
-8.60171
-8.78802
-8.99022
-9.20788
-9.44066
-9.68846
-9.95101
-10.228
-10.5192
-10.8243
-11.1429
-11.4748
-11.8199
-12.1776
-12.5479
-12.9311
-9.17985
-9.30183
-9.44171
-9.59919
-9.77401
-9.96595
-10.1753
-10.4026
-10.6444
-10.903
-11.1776
-11.4681
-11.7741
-12.0952
-12.4311
-12.7815
-13.1462
-13.5247
-13.9166
-14.3224
-10.5591
-10.6803
-10.8206
-10.9798
-11.1578
-11.3542
-11.5685
-11.8
-12.0514
-12.3208
-12.6066
-12.9098
-13.2298
-13.5659
-13.9179
-14.2857
-14.6693
-15.0679
-15.481
-15.9089
-12.2382
-12.3557
-12.4938
-12.6522
-12.8306
-13.0291
-13.2471
-13.4842
-13.7409
-14.0168
-14.3134
-14.6272
-14.9584
-15.3058
-15.6711
-16.0543
-16.4549
-16.8721
-17.3049
-17.7534
-14.2844
-14.3951
-14.5275
-14.6808
-14.8554
-15.0513
-15.2683
-15.5061
-15.7643
-16.0421
-16.3392
-16.6572
-16.9958
-17.3562
-17.7359
-18.134
-18.5504
-18.9846
-19.4358
-19.9028
-16.9712
-17.0668
-17.185
-17.3279
-17.4948
-17.6849
-17.8977
-18.133
-18.3903
-18.6692
-18.9689
-19.2897
-19.6316
-19.9951
-20.3799
-20.7852
-21.2111
-21.6583
-22.1265
-22.6109
-21.9614
-22.0384
-22.1444
-22.2773
-22.4357
-22.6185
-22.825
-23.055
-23.3078
-23.5834
-23.8813
-24.2017
-24.5446
-24.9103
-25.2988
-25.7101
-26.1453
-26.6084
-27.1018
-27.6077
-28.0814
-23.1033
-20.3853
-18.2176
-16.3517
-14.7419
-13.3271
-12.0623
-10.9202
-9.88216
-8.9345
-8.06682
-7.27084
-6.53963
-5.86737
-5.24888
-4.67828
-4.14946
-3.67049
-3.26839
-28.5805
-23.6095
-20.8812
-18.6948
-16.8068
-15.1731
-13.734
-12.4456
-11.281
-10.222
-9.25525
-8.37044
-7.5594
-6.81538
-6.13267
-5.50621
-4.93064
-4.40316
-3.9364
-3.5368
-29.1061
-24.1324
-21.3921
-19.1859
-17.2746
-15.6161
-14.1519
-12.839
-11.6512
-10.5707
-9.58436
-8.68199
-7.85548
-7.09807
-6.40403
-5.7682
-5.18537
-4.65286
-4.17977
-3.76181
-29.654
-24.6728
-21.9181
-19.6908
-17.7549
-16.0703
-14.5799
-13.2417
-12.03
-10.9274
-9.92083
-9.00025
-8.15749
-7.38567
-6.67885
-6.03163
-5.43855
-4.8963
-4.41121
-3.97558
-30.221
-25.2298
-22.4589
-20.209
-18.2471
-16.5352
-15.0177
-13.6532
-12.4169
-11.2914
-10.2639
-9.32448
-8.46474
-7.67767
-6.95709
-6.29729
-5.69255
-5.13899
-4.6411
-4.19036
-30.8053
-25.8028
-23.0137
-20.74
-18.7505
-17.0101
-15.4644
-14.0729
-12.811
-11.662
-10.6131
-9.65411
-8.77678
-7.97382
-7.2388
-6.56576
-5.94877
-5.3836
-4.87345
-4.40963
-31.406
-26.3923
-23.5805
-21.2827
-19.2646
-17.4944
-15.9195
-14.5
-13.2119
-12.0387
-10.9677
-9.98876
-9.09337
-8.27411
-7.52431
-6.83779
-6.20847
-5.63191
-5.1102
-4.6347
-32.0222
-26.9965
-24.1594
-21.8363
-19.7885
-17.9874
-16.3823
-14.934
-13.619
-12.421
-11.3274
-10.3281
-9.41432
-8.5785
-7.81376
-7.11371
-6.47218
-5.88452
-5.35184
-4.86559
-32.6527
-27.6139
-24.7499
-22.4
-20.3213
-18.4884
-16.8521
-15.3742
-14.0317
-12.8084
-11.6918
-10.6718
-9.73938
-8.88687
-8.10713
-7.39361
-6.74002
-6.14151
-5.59827
-5.10187
-33.2965
-28.2432
-25.3513
-22.9732
-20.8624
-18.9965
-17.3282
-15.82
-14.4493
-13.2002
-12.0604
-11.0194
-10.0682
-9.19895
-8.40423
-7.6773
-7.01177
-6.40259
-5.84906
-5.34288
-33.9525
-28.8834
-25.9628
-23.5548
-21.4108
-19.511
-17.8099
-16.2707
-14.8713
-13.5961
-12.4326
-11.3705
-10.4005
-9.5144
-8.7047
-7.96444
-7.28706
-6.66732
-6.10365
-5.58794
-34.6196
-29.5335
-26.5832
-24.1442
-21.9658
-20.0312
-18.2964
-16.7256
-15.297
-13.9953
-12.808
-11.7246
-10.7357
-9.83275
-9.00811
-8.25455
-7.56538
-6.93513
-6.36141
-5.83631
-35.2969
-30.1926
-27.2117
-24.7402
-22.5264
-20.556
-18.7868
-17.1839
-15.7257
-14.3973
-13.186
-12.0811
-11.0732
-10.1535
-9.31394
-8.54713
-7.84621
-7.20544
-6.6217
-6.08733
-35.9835
-30.8595
-27.8472
-25.3421
-23.0917
-21.0847
-19.2805
-17.6448
-16.1568
-14.8013
-13.5658
-12.4395
-11.4126
-10.4761
-9.62164
-8.84161
-8.12894
-7.47766
-6.88389
-6.34033
-36.6783
-31.5333
-28.4885
-25.9486
-23.6607
-21.6164
-19.7765
-18.1077
-16.5894
-15.2067
-13.947
-12.7992
-11.7533
-10.7999
-9.93064
-9.13742
-8.41302
-7.75119
-7.14738
-6.59472
-37.3805
-32.2128
-29.1346
-26.5588
-24.2325
-22.15
-20.2739
-18.5715
-17.0227
-15.6127
-14.3287
-13.1594
-12.0945
-11.1245
-10.2403
-9.43397
-8.69785
-8.02546
-7.41159
-6.8499
-38.0896
-32.897
-29.7842
-27.1714
-24.8058
-22.6845
-20.7717
-19.0355
-17.4561
-16.0186
-14.7102
-13.5195
-12.4357
-11.449
-10.5502
-9.73068
-8.98287
-8.2999
-7.67597
-7.10536
-38.8073
-33.5856
-30.4361
-27.7852
-25.3795
-23.2188
-21.2689
-19.4986
-17.8884
-16.4235
-15.0909
-13.8788
-12.7762
-11.773
-10.8594
-10.0269
-9.2675
-8.57395
-7.93997
-7.36057
-39.5339
-34.2775
-31.0884
-28.3984
-25.9522
-23.7518
-21.7646
-19.9601
-18.3191
-16.8268
-15.47
-14.2367
-13.1154
-12.0957
-11.1676
-10.3222
-9.55117
-8.84708
-8.20309
-7.61508
-40.2568
-34.9679
-31.7397
-29.0103
-26.5235
-24.2832
-22.2585
-20.4197
-18.7478
-17.2281
-15.8472
-14.5927
-13.4529
-12.4169
-11.4744
-10.6161
-9.83351
-9.11889
-8.46493
-7.86849
-6.40243
-4.42134
-3.16047
-2.20069
-1.53663
-1.05171
-0.706723
-0.463219
-0.295209
-0.182686
-0.110752
-0.0679824
-0.0459269
-0.0381915
-0.040088
-0.0481728
-0.0599558
-0.0736571
-0.0880326
-0.102209
-0.115626
-0.127884
-0.138792
-0.148144
-0.155922
-0.161916
-0.166142
-0.168264
-0.168187
-0.165503
-0.159845
-0.151158
-0.138523
-0.123252
-0.10365
-0.0833421
-0.0600213
-0.0386884
-0.019133
0.000313599
-6.64187
-4.5919
-3.29854
-2.30946
-1.62295
-1.12166
-0.763838
-0.510443
-0.334597
-0.215771
-0.138684
-0.091637
-0.0659951
-0.0552238
-0.0545339
-0.0604068
-0.070293
-0.0823666
-0.0953457
-0.108324
-0.120714
-0.132094
-0.142255
-0.150973
-0.158214
-0.163756
-0.167599