/*--------------------------------*- C++ -*----------------------------------*\
  =========                 |
  \\      /  F ield         | OpenFOAM: The Open Source CFD Toolbox
   \\    /   O peration     | Website:  https://openfoam.org
    \\  /    A nd           | Version:  6.0
     \\/     M anipulation  |
\*---------------------------------------------------------------------------*/
FoamFile
{
    version     2.0;
    format      ascii;
    class       volScalarField;
    location    "2.75";
    object      p;
}
// * * * * * * * * * * * * * * * * * * * * * * * * * * * * * * * * * * * * * //

dimensions      [0 2 -2 0 0 0 0];

internalField   nonuniform List<scalar> 
19200
(
-109.895
-95.2471
-84.4244
-75.4716
-67.3677
-60.1304
-53.7025
-47.9831
-42.8901
-38.3543
-34.3143
-30.7151
-27.508
-24.6497
-22.1017
-19.8296
-17.8032
-15.9952
-14.3816
-12.9409
-11.6541
-10.5043
-9.47637
-8.55697
-7.73424
-6.99773
-6.33811
-5.74623
-5.21393
-4.74394
-109.907
-95.2953
-84.4861
-75.5339
-67.4277
-60.1877
-53.7568
-48.0344
-42.9386
-38.4004
-34.3582
-30.7571
-27.5484
-24.6886
-22.1393
-19.8662
-17.8388
-16.0299
-14.4155
-12.9741
-11.6867
-10.5363
-9.50773
-8.58775
-7.76444
-7.02735
-6.36715
-5.77455
-5.24132
-4.77165
-109.94
-95.3439
-84.5451
-75.595
-67.4874
-60.2449
-53.8113
-48.0861
-42.9877
-38.4472
-34.4029
-30.8001
-27.5898
-24.7287
-22.1782
-19.904
-17.8757
-16.066
-14.4508
-13.0088
-11.7207
-10.5697
-9.5406
-8.62004
-7.79615
-7.0585
-6.39771
-5.80439
-5.27023
-4.8009
-109.989
-95.3986
-84.6051
-75.6564
-67.5473
-60.3024
-53.8661
-48.1383
-43.0374
-38.4947
-34.4485
-30.8439
-27.6321
-24.7697
-22.2181
-19.943
-17.9137
-16.1033
-14.4874
-13.0447
-11.7561
-10.6045
-9.57482
-8.65372
-7.82928
-7.09107
-6.42973
-5.83568
-5.30062
-4.83168
-110.047
-95.4588
-84.6674
-75.7188
-67.6081
-60.3607
-53.9217
-48.1912
-43.0879
-38.543
-34.495
-30.8888
-27.6756
-24.8119
-22.2592
-19.9831
-17.953
-16.1418
-14.5253
-13.082
-11.7928
-10.6407
-9.61049
-8.68886
-7.86389
-7.12513
-6.46323
-5.86847
-5.33252
-4.86402
-110.112
-95.5239
-84.7325
-75.7828
-67.6699
-60.4198
-53.978
-48.2449
-43.1392
-38.5922
-34.5423
-30.9345
-27.72
-24.8552
-22.3014
-20.0244
-17.9935
-16.1816
-14.5645
-13.1206
-11.8309
-10.6783
-9.64759
-8.72547
-7.89998
-7.16071
-6.49824
-5.90277
-5.36594
-4.89792
-110.182
-95.5929
-84.8002
-75.8485
-67.733
-60.4799
-54.0352
-48.2994
-43.1914
-38.6423
-34.5906
-30.9813
-27.7654
-24.8994
-22.3447
-20.0669
-18.0352
-16.2227
-14.6049
-13.1605
-11.8703
-10.7172
-9.68608
-8.76349
-7.93752
-7.19775
-6.53477
-5.93858
-5.40088
-4.9334
-110.256
-95.6651
-84.8704
-75.916
-67.7974
-60.5411
-54.0933
-48.3548
-43.2443
-38.6932
-34.6397
-31.0289
-27.8118
-24.9447
-22.3891
-20.1104
-18.0781
-16.2649
-14.6466
-13.2017
-11.911
-10.7575
-9.72592
-8.8029
-7.97648
-7.23624
-6.57276
-5.9759
-5.43736
-4.97046
-110.332
-95.7401
-84.9428
-75.9852
-67.8631
-60.6033
-54.1524
-48.411
-43.2981
-38.7449
-34.6897
-31.0774
-27.859
-24.991
-22.4344
-20.155
-18.122
-16.3082
-14.6894
-13.2441
-11.953
-10.799
-9.76712
-8.84371
-8.01688
-7.27621
-6.61222
-6.0147
-5.47537
-5.00909
-110.411
-95.8173
-85.0171
-76.0559
-67.93
-60.6666
-54.2123
-48.4681
-43.3527
-38.7974
-34.7405
-31.1268
-27.9072
-25.0381
-22.4807
-20.2005
-18.1669
-16.3526
-14.7334
-13.2876
-11.9961
-10.8419
-9.80963
-8.88589
-8.05868
-7.3176
-6.65317
-6.05499
-5.5149
-5.0493
-110.493
-95.8966
-85.0931
-76.128
-67.998
-60.7307
-54.273
-48.5258
-43.408
-38.8506
-34.792
-31.1769
-27.9561
-25.0861
-22.5279
-20.247
-18.2128
-16.398
-14.7784
-13.3322
-12.0405
-10.8859
-9.85339
-8.92935
-8.10183
-7.36039
-6.69555
-6.09674
-5.55592
-5.09107
-110.576
-95.9775
-85.1706
-76.2013
-68.067
-60.7958
-54.3345
-48.5843
-43.4639
-38.9044
-34.8441
-31.2276
-28.0057
-25.1347
-22.5758
-20.2943
-18.2596
-16.4443
-14.8243
-13.3779
-12.0859
-10.9311
-9.89833
-8.97407
-8.14629
-7.40456
-6.73934
-6.13996
-5.59841
-5.13438
-110.66
-96.06
-85.2494
-76.2757
-68.1369
-60.8615
-54.3966
-48.6432
-43.5203
-38.9588
-34.8967
-31.2789
-28.0559
-25.184
-22.6243
-20.3423
-18.3071
-16.4915
-14.8711
-13.4245
-12.1322
-10.9773
-9.94439
-9.01997
-8.19199
-7.45003
-6.78449
-6.18457
-5.64235
-5.17918
-110.747
-96.1439
-85.3293
-76.351
-68.2075
-60.9278
-54.4591
-48.7026
-43.5771
-39.0135
-34.9498
-31.3305
-28.1065
-25.2338
-22.6734
-20.3908
-18.3552
-16.5393
-14.9187
-13.4718
-12.1795
-11.0244
-9.99146
-9.06694
-8.23885
-7.49673
-6.83094
-6.23052
-5.6877
-5.22541
-110.834
-96.2289
-85.4102
-76.427
-68.2787
-60.9945
-54.522
-48.7623
-43.6341
-39.0684
-35.003
-31.3825
-28.1574
-25.2838
-22.7228
-20.4398
-18.4038
-16.5876
-14.9668
-13.5199
-12.2274
-11.0724
-10.0394
-9.1149
-8.28678
-7.54458
-6.87862
-6.27778
-5.7344
-5.27314
-110.923
-96.315
-85.492
-76.5036
-68.3503
-61.0615
-54.5851
-48.8221
-43.6913
-39.1234
-35.0563
-31.4345
-28.2084
-25.3341
-22.7725
-20.4889
-18.4526
-16.6362
-15.0154
-13.5684
-12.276
-11.121
-10.0881
-9.16372
-8.33567
-7.5935
-6.92749
-6.32634
-5.78251
-5.32238
-111.013
-96.4021
-85.5745
-76.5808
-68.4222
-61.1287
-54.6482
-48.8819
-43.7483
-39.1783
-35.1096
-31.4864
-28.2593
-25.3842
-22.8221
-20.5381
-18.5016
-16.685
-15.0641
-13.6172
-12.3249
-11.1701
-10.1374
-9.21323
-8.38538
-7.64337
-6.97743
-6.37611
-5.83197
-5.37306
-111.105
-96.4901
-85.6577
-76.6584
-68.4943
-61.1959
-54.7112
-48.9414
-43.8051
-39.2329
-35.1625
-31.538
-28.3099
-25.4341
-22.8714
-20.5871
-18.5504
-16.7337
-15.1128
-13.666
-12.374
-11.2194
-10.1871
-9.26321
-8.43569
-7.69399
-7.02826
-6.42689
-5.88257
-5.42502
-111.197
-96.5791
-85.7414
-76.7362
-68.5664
-61.2629
-54.7739
-49.0006
-43.8615
-39.2871
-35.2149
-31.5891
-28.36
-25.4835
-22.9203
-20.6357
-18.5988
-16.7821
-15.1613
-13.7147
-12.4229
-11.2687
-10.2368
-9.31342
-8.48638
-7.74514
-7.0798
-6.47855
-5.9342
-5.47819
-111.291
-96.669
-85.8258
-76.8143
-68.6384
-61.3296
-54.8362
-49.0592
-43.9172
-39.3405
-35.2666
-31.6395
-28.4094
-25.5322
-22.9685
-20.6835
-18.6465
-16.8298
-15.2091
-13.7627
-12.4713
-11.3177
-10.2863
-9.36354
-8.53716
-7.79656
-7.1318
-6.53089
-5.98673
-5.53246
-111.387
-96.76
-85.9107
-76.8924
-68.7101
-61.3958
-54.8977
-49.1171
-43.9721
-39.3931
-35.3174
-31.6889
-28.4578
-25.5798
-23.0156
-20.7304
-18.6931
-16.8765
-15.256
-13.8099
-12.519
-11.3659
-10.3352
-9.41319
-8.58764
-7.8479
-7.18396
-6.58363
-6.0399
-5.58762
-111.486
-96.8522
-85.9961
-76.9706
-68.7815
-61.4613
-54.9585
-49.1739
-44.0258
-39.4445
-35.367
-31.7371
-28.505
-25.6262
-23.0615
-20.7759
-18.7385
-16.9218
-15.3015
-13.8558
-12.5653
-11.4128
-10.383
-9.4619
-8.63736
-7.89871
-7.23584
-6.63639
-6.0934
-5.64337
-111.587
-96.9459
-86.0821
-77.0487
-68.8522
-61.5259
-55.0181
-49.2295
-44.0783
-39.4945
-35.4152
-31.7839
-28.5507
-25.6711
-23.1058
-20.8198
-18.7822
-16.9655
-15.3453
-13.8998
-12.6099
-11.4581
-10.4291
-9.50908
-8.68575
-7.94843
-7.28694
-6.68871
-6.14682
-5.69941
-111.693
-97.0411
-86.1685
-77.1264
-68.9222
-61.5894
-55.0764
-49.2837
-44.1294
-39.5431
-35.4618
-31.829
-28.5946
-25.7142
-23.1482
-20.8617
-18.8238
-17.007
-15.3868
-13.9416
-12.6521
-11.501
-10.4729
-9.554
-8.73204
-7.99629
-7.33652
-6.73993
-6.19966
-5.75554
-111.803
-97.1371
-86.2547
-77.2037
-68.9911
-61.6516
-55.1332
-49.3363
-44.1787
-39.5899
-35.5066
-31.8724
-28.6368
-25.7554
-23.1886
-20.9015
-18.8632
-17.0461
-15.4258
-13.9807
-12.6914
-11.5408
-10.5136
-9.59577
-8.77523
-8.04123
-7.38347
-6.789
-6.25106
-5.81109
-111.919
-97.234
-86.3406
-77.2802
-69.0588
-61.712
-55.1881
-49.387
-44.2261
-39.6348
-35.5496
-31.9137
-28.6769
-25.7944
-23.2268
-20.939
-18.9
-17.0824
-15.4618
-14.0165
-12.7272
-11.5769
-10.5502
-9.63335
-8.81413
-8.08186
-7.42626
-6.83431
-6.29935
-5.86355
-112.047
-97.3353
-86.4264
-77.3551
-69.1241
-61.7696
-55.2401
-49.4349
-44.2709
-39.6773
-35.5902
-31.9529
-28.7148
-25.8312
-23.2626
-20.9739
-18.9341
-17.1157
-15.4944
-14.0486
-12.759
-11.6086
-10.5821
-9.66574
-8.84754
-8.11689
-7.46356
-6.87441
-6.34254
-5.91052
-112.208
-97.4478
-86.5116
-77.426
-69.185
-61.8232
-55.2884
-49.4795
-44.3127
-39.7169
-35.6282
-31.9894
-28.7501
-25.8654
-23.2958
-21.006
-18.9652
-17.1458
-15.5235
-14.0767
-12.7863
-11.6351
-10.6081
-9.69165
-8.87399
-8.14478
-7.49389
-6.908
-6.3806
-5.95821
-112.402
-97.5694
-86.5927
-77.4909
-69.2414
-61.8734
-55.334
-49.5217
-44.3525
-39.7547
-35.6643
-32.0241
-28.7835
-25.8977
-23.3268
-21.0359
-18.9938
-17.173
-15.5493
-14.1009
-12.8088
-11.6559
-10.6271
-9.70911
-8.8903
-8.16074
-7.51034
-6.92678
-6.40942
-6.01364
-112.551
-97.6705
-86.6653
-77.5517
-69.2968
-61.9243
-55.3808
-49.5651
-44.3932
-39.7931
-35.7009
-32.059
-28.8169
-25.9296
-23.3572
-21.0648
-19.0211
-17.1986
-15.5729
-14.1224
-12.8278
-11.672
-10.6397
-9.71765
-8.89397
-8.1582
-7.49956
-6.90916
-6.39847
-6.01698
-113.045
-113.044
-113.01
-112.992
-112.988
-112.987
-112.984
-112.979
-112.971
-112.961
-112.949
-112.934
-112.915
-112.894
-112.869
-112.842
-112.812
-112.78
-112.746
-112.71
-112.673
-112.634
-112.596
-112.559
-112.523
-112.491
-112.466
-112.452
-112.459
-112.499
-98.1533
-98.1806
-98.1905
-98.2012
-98.2139
-98.2243
-98.2305
-98.2329
-98.2316
-98.2266
-98.2186
-98.2074
-98.1927
-98.1746
-98.1535
-98.1297
-98.1031
-98.0742
-98.0432
-98.0103
-97.9761
-97.9409
-97.9052
-97.8697
-97.8354
-97.8033
-97.7751
-97.7519
-97.7345
-97.7133
-87.0748
-87.1178
-87.1511
-87.1777
-87.1993
-87.2161
-87.2283
-87.2363
-87.24
-87.2397
-87.2363
-87.2294
-87.2189
-87.205
-87.1881
-87.1683
-87.1459
-87.1209
-87.0938
-87.0648
-87.0342
-87.0023
-86.9695
-86.9363
-86.9031
-86.8702
-86.8379
-86.8051
-86.7697
-86.7256
-77.8785
-77.926
-77.9668
-78
-78.0265
-78.0475
-78.064
-78.0761
-78.0837
-78.0875
-78.0879
-78.0847
-78.0778
-78.0676
-78.0544
-78.0383
-78.0195
-77.9982
-77.9747
-77.9491
-77.9218
-77.893
-77.8629
-77.8317
-77.7996
-77.7665
-77.7321
-77.6955
-77.655
-77.6088
-69.5604
-69.6077
-69.6502
-69.6864
-69.7159
-69.7397
-69.759
-69.7737
-69.7836
-69.7902
-69.7935
-69.7927
-69.7883
-69.7807
-69.7701
-69.7567
-69.7406
-69.722
-69.7012
-69.6783
-69.6536
-69.6272
-69.5992
-69.5698
-69.539
-69.5065
-69.4722
-69.4354
-69.3951
-69.3504
-62.1494
-62.1952
-62.2376
-62.2745
-62.3051
-62.33
-62.3505
-62.3662
-62.3774
-62.3855
-62.3899
-62.3903
-62.3873
-62.3812
-62.3722
-62.3604
-62.346
-62.3292
-62.3101
-62.2891
-62.2661
-62.2413
-62.215
-62.187
-62.1573
-62.1259
-62.0925
-62.0566
-62.0175
-61.9748
-55.5887
-55.6326
-55.6735
-55.7097
-55.7399
-55.7646
-55.785
-55.8006
-55.812
-55.8203
-55.825
-55.8258
-55.8232
-55.8177
-55.8093
-55.7982
-55.7846
-55.7687
-55.7506
-55.7305
-55.7085
-55.6848
-55.6595
-55.6325
-55.6038
-55.5734
-55.541
-55.5063
-55.4687
-55.428
-49.7719
-49.8135
-49.8524
-49.8868
-49.9156
-49.9394
-49.9588
-49.9737
-49.9846
-49.9923
-49.9965
-49.9969
-49.9942
-49.9885
-49.9801
-49.969
-49.9556
-49.9399
-49.9221
-49.9023
-49.8808
-49.8577
-49.8329
-49.8066
-49.7786
-49.749
-49.7175
-49.684
-49.6479
-49.6093
-44.6099
-44.649
-44.6855
-44.7177
-44.7447
-44.767
-44.7849
-44.7985
-44.8085
-44.8153
-44.8185
-44.8181
-44.8147
-44.8084
-44.7995
-44.788
-44.7742
-44.7582
-44.7403
-44.7205
-44.6991
-44.676
-44.6515
-44.6255
-44.5981
-44.5692
-44.5385
-44.5061
-44.4714
-44.4347
-40.0265
-40.0631
-40.0972
-40.1271
-40.1521
-40.1727
-40.1889
-40.2009
-40.2098
-40.2154
-40.2173
-40.2158
-40.2114
-40.2043
-40.1945
-40.1823
-40.1679
-40.1514
-40.133
-40.1129
-40.0912
-40.068
-40.0435
-40.0177
-39.9906
-39.9622
-39.9323
-39.9009
-39.8675
-39.8324
-35.9544
-35.9886
-36.0203
-36.0478
-36.0708
-36.0896
-36.1039
-36.1145
-36.1221
-36.1262
-36.1267
-36.124
-36.1186
-36.1104
-36.0996
-36.0865
-36.0713
-36.0541
-36.035
-36.0144
-35.9923
-35.9689
-35.9443
-35.9185
-35.8917
-35.8637
-35.8345
-35.804
-35.7718
-35.7382
-32.334
-32.366
-32.3953
-32.4207
-32.4416
-32.4586
-32.4712
-32.4803
-32.4865
-32.4891
-32.4882
-32.4843
-32.4777
-32.4684
-32.4566
-32.4425
-32.4263
-32.4083
-32.3885
-32.3673
-32.3447
-32.3209
-32.2961
-32.2703
-32.2436
-32.216
-32.1875
-32.1579
-32.1268
-32.0946
-29.1129
-29.1429
-29.1701
-29.1934
-29.2125
-29.2277
-29.2388
-29.2464
-29.2511
-29.2523
-29.2501
-29.245
-29.2371
-29.2267
-29.2139
-29.1988
-29.1817
-29.1628
-29.1423
-29.1203
-29.0972
-29.073
-29.0479
-29.0221
-28.9955
-28.9683
-28.9404
-28.9116
-28.8817
-28.8508
-26.2456
-26.2736
-26.2989
-26.3204
-26.3378
-26.3513
-26.3608
-26.3671
-26.3704
-26.3703
-26.3668
-26.3605
-26.3515
-26.34
-26.3261
-26.31
-26.292
-26.2722
-26.2509
-26.2283
-26.2045
-26.1799
-26.1545
-26.1286
-26.1022
-26.0753
-26.048
-26.0201
-25.9914
-25.9618
-23.6917
-23.7181
-23.7416
-23.7613
-23.7771
-23.7891
-23.7973
-23.8023
-23.8043
-23.8029
-23.7983
-23.7908
-23.7808
-23.7682
-23.7533
-23.7362
-23.7173
-23.6966
-23.6745
-23.6512
-23.6268
-23.6017
-23.5761
-23.55
-23.5237
-23.4973
-23.4706
-23.4436
-23.416
-23.3878
-21.416
-21.4409
-21.4628
-21.481
-21.4953
-21.5058
-21.5128
-21.5167
-21.5175
-21.5149
-21.5092
-21.5007
-21.4896
-21.476
-21.4601
-21.4422
-21.4223
-21.4008
-21.3779
-21.3538
-21.3288
-21.3032
-21.2772
-21.251
-21.2248
-21.1988
-21.1727
-21.1468
-21.1204
-21.0937
-19.3874
-19.4109
-19.4314
-19.4482
-19.4612
-19.4705
-19.4763
-19.4791
-19.4788
-19.475
-19.4683
-19.4589
-19.4468
-19.4323
-19.4155
-19.3966
-19.3759
-19.3535
-19.3298
-19.305
-19.2794
-19.2532
-19.2269
-19.2005
-19.1744
-19.1486
-19.1233
-19.0983
-19.0733
-19.0481
-17.5786
-17.6008
-17.6199
-17.6355
-17.6474
-17.6554
-17.6602
-17.6621
-17.6606
-17.6559
-17.6483
-17.6379
-17.625
-17.6095
-17.5919
-17.5721
-17.5505
-17.5273
-17.5028
-17.4772
-17.4509
-17.4242
-17.3974
-17.3708
-17.3446
-17.3192
-17.2946
-17.2707
-17.2472
-17.2237
-15.9652
-15.9863
-16.0043
-16.0187
-16.0294
-16.0364
-16.0404
-16.0413
-16.0388
-16.0332
-16.0247
-16.0135
-15.9997
-15.9834
-15.9649
-15.9443
-15.9218
-15.8978
-15.8725
-15.8461
-15.8191
-15.7917
-15.7643
-15.7374
-15.7112
-15.6861
-15.6621
-15.6394
-15.6174
-15.5959
-14.526
-14.546
-14.5628
-14.5762
-14.586
-14.592
-14.5951
-14.5951
-14.5917
-14.5853
-14.576
-14.5639
-14.5493
-14.5322
-14.5129
-14.4915
-14.4682
-14.4434
-14.4172
-14.39
-14.3622
-14.3341
-14.3061
-14.2787
-14.2524
-14.2274
-14.2041
-14.1825
-14.1623
-14.1429
-13.2417
-13.2608
-13.2766
-13.2891
-13.2979
-13.3031
-13.3053
-13.3044
-13.3003
-13.293
-13.283
-13.2702
-13.2548
-13.237
-13.2168
-13.1946
-13.1706
-13.1449
-13.1178
-13.0898
-13.0611
-13.0321
-13.0034
-12.9754
-12.9487
-12.9238
-12.9011
-12.8807
-12.8624
-12.8454
-12.0956
-12.1138
-12.1287
-12.1402
-12.1481
-12.1526
-12.154
-12.1524
-12.1474
-12.1394
-12.1287
-12.1151
-12.099
-12.0804
-12.0596
-12.0366
-12.0117
-11.9852
-11.9572
-11.9283
-11.8986
-11.8687
-11.8391
-11.8104
-11.7831
-11.758
-11.7357
-11.7165
-11.7003
-11.6862
-11.0726
-11.0899
-11.104
-11.1146
-11.1217
-11.1254
-11.1261
-11.1237
-11.118
-11.1093
-11.0979
-11.0837
-11.0668
-11.0475
-11.0259
-11.0022
-10.9765
-10.9491
-10.9203
-10.8903
-10.8596
-10.8287
-10.798
-10.7683
-10.7402
-10.7147
-10.6926
-10.6745
-10.6605
-10.6497
-10.1593
-10.1757
-10.189
-10.1988
-10.2051
-10.2081
-10.2081
-10.2049
-10.1986
-10.1892
-10.1771
-10.1622
-10.1447
-10.1247
-10.1024
-10.0779
-10.0513
-10.0231
-9.99332
-9.96235
-9.93057
-9.89844
-9.86652
-9.83554
-9.80638
-9.78009
-9.7578
-9.74059
-9.729
-9.72221
-9.34358
-9.35923
-9.37168
-9.38071
-9.38627
-9.38858
-9.38788
-9.38403
-9.377
-9.36702
-9.35423
-9.3387
-9.32053
-9.29984
-9.27679
-9.25151
-9.2242
-9.19505
-9.16432
-9.13229
-9.09932
-9.06587
-9.03252
-9.00003
-8.96938
-8.94184
-8.91891
-8.90224
-8.89313
-8.89113
-8.61485
-8.6297
-8.64137
-8.64962
-8.65442
-8.65608
-8.6547
-8.65013
-8.64243
-8.63181
-8.61837
-8.60218
-8.58333
-8.56196
-8.53818
-8.51213
-8.48399
-8.45394
-8.4222
-8.38904
-8.3548
-8.31989
-8.2849
-8.25058
-8.218
-8.18862
-8.16432
-8.14755
-8.14065
-8.14436
-7.96354
-7.97759
-7.98847
-7.99593
-7.99999
-8.00097
-7.99888
-7.99359
-7.9852
-7.97391
-7.95978
-7.94289
-7.92334
-7.90122
-7.87667
-7.8498
-7.82077
-7.78975
-7.75692
-7.72253
-7.68687
-7.65033
-7.61342
-7.57691
-7.54183
-7.50982
-7.48312
-7.46521
-7.45964
-7.46953
-7.38091
-7.39431
-7.40455
-7.41137
-7.41481
-7.41523
-7.41254
-7.40662
-7.39765
-7.38577
-7.37104
-7.35352
-7.33332
-7.31054
-7.28526
-7.25762
-7.22775
-7.19578
-7.16189
-7.12628
-7.08919
-7.05096
-7.01203
-6.97307
-6.93505
-6.89964
-6.86936
-6.8491
-6.84408
-6.86153
-6.85882
-6.87188
-6.88179
-6.8883
-6.8915
-6.89168
-6.88874
-6.88259
-6.87344
-6.86137
-6.84647
-6.82878
-6.8084
-6.78542
-6.75994
-6.73206
-6.7019
-6.66959
-6.63525
-6.59907
-6.56124
-6.52201
-6.48175
-6.44097
-6.40048
-6.36178
-6.32727
-6.30324
-6.29781
-6.33293
-6.39154
-6.40297
-6.41131
-6.4164
-6.41829
-6.41721
-6.41312
-6.40595
-6.39585
-6.38292
-6.36723
-6.34885
-6.32784
-6.3043
-6.2783
-6.24995
-6.21935
-6.18658
-6.15178
-6.11506
-6.07657
-6.03648
-5.99503
-5.95255
-5.90955
-5.86701
-5.82649
-5.79332
-5.77462
-5.83032
-108.891
-109.039
-109.139
-109.271
-109.432
-109.604
-109.779
-109.953
-110.128
-110.302
-110.474
-110.642
-110.807
-110.967
-111.123
-111.274
-111.419
-111.559
-111.694
-111.822
-111.946
-112.064
-112.177
-112.285
-112.389
-112.49
-112.589
-112.691
-112.799
-112.921
-93.9454
-94.1324
-94.2972
-94.4697
-94.6515
-94.8348
-95.016
-95.1948
-95.3713
-95.5453
-95.7163
-95.8835
-96.0468
-96.2056
-96.3597
-96.5088
-96.6529
-96.7917
-96.9252
-97.0533
-97.176
-97.2935
-97.4059
-97.5136
-97.6168
-97.7163
-97.8131
-97.9076
-98.0004
-98.0858
-82.9024
-83.1056
-83.2993
-83.4878
-83.6739
-83.8574
-84.0378
-84.2152
-84.3896
-84.561
-84.7289
-84.893
-85.053
-85.2087
-85.3598
-85.5061
-85.6475
-85.7839
-85.9151
-86.041
-86.1618
-86.2775
-86.388
-86.4937
-86.5946
-86.6908
-86.7826
-86.8692
-86.9492
-87.0193
-73.8127
-74.0138
-74.2101
-74.3995
-74.5834
-74.7633
-74.9402
-75.114
-75.2844
-75.4515
-75.6149
-75.7745
-75.93
-76.0812
-76.2279
-76.3699
-76.5072
-76.6396
-76.767
-76.8894
-77.0067
-77.119
-77.2262
-77.3283
-77.4254
-77.5174
-77.604
-77.6846
-77.7582
-77.8239
-65.6404
-65.8329
-66.0237
-66.2093
-66.3892
-66.5647
-66.7368
-66.9056
-67.0709
-67.2325
-67.3903
-67.5443
-67.6942
-67.8398
-67.981
-68.1177
-68.2498
-68.3772
-68.4997
-68.6174
-68.7301
-68.8378
-68.9406
-69.0383
-69.1308
-69.2181
-69.2999
-69.3758
-69.4451
-69.5077
-58.3932
-58.5771
-58.7609
-58.9408
-59.1154
-59.2854
-59.4517
-59.6146
-59.7738
-59.9293
-60.081
-60.2288
-60.3725
-60.512
-60.6473
-60.7781
-60.9044
-61.0262
-61.1432
-61.2556
-61.3631
-61.4657
-61.5635
-61.6562
-61.7439
-61.8264
-61.9034
-61.9749
-62.0401
-62.0992
-52.0006
-52.1766
-52.3531
-52.5264
-52.6948
-52.8587
-53.0189
-53.1756
-53.3286
-53.4779
-53.6233
-53.7648
-53.9023
-54.0357
-54.1649
-54.2898
-54.4102
-54.5262
-54.6377
-54.7445
-54.8467
-54.9441
-55.0367
-55.1244
-55.2071
-55.2848
-55.3573
-55.4243
-55.4856
-55.5411
-46.3472
-46.5161
-46.6855
-46.852
-47.0141
-47.1718
-47.326
-47.4766
-47.6236
-47.7669
-47.9063
-48.0418
-48.1733
-48.3008
-48.4242
-48.5433
-48.6581
-48.7685
-48.8744
-48.9759
-49.0728
-49.1651
-49.2527
-49.3355
-49.4135
-49.4866
-49.5546
-49.6175
-49.6749
-49.727
-41.3386
-41.501
-41.6638
-41.824
-41.9799
-42.1319
-42.2804
-42.4253
-42.5667
-42.7043
-42.8381
-42.968
-43.0939
-43.2159
-43.3337
-43.4474
-43.5569
-43.6621
-43.7629
-43.8593
-43.9513
-44.0387
-44.1216
-44.1998
-44.2733
-44.3421
-44.406
-44.465
-44.5188
-44.5676
-36.8962
-37.0529
-37.2098
-37.3641
-37.5145
-37.6611
-37.8043
-37.944
-38.0802
-38.2126
-38.3412
-38.4659
-38.5868
-38.7036
-38.8165
-38.9252
-39.0298
-39.1301
-39.2262
-39.318
-39.4054
-39.4884
-39.5669
-39.6409
-39.7103
-39.7751
-39.8353
-39.8906
-39.9411
-39.9869
-32.9519
-33.1036
-33.2551
-33.4042
-33.5496
-33.6914
-33.8298
-33.9647
-34.0961
-34.2237
-34.3476
-34.4677
-34.5839
-34.6961
-34.8044
-34.9086
-35.0088
-35.1047
-35.1965
-35.2841
-35.3674
-35.4463
-35.5209
-35.5911
-35.6568
-35.718
-35.7747
-35.8269
-35.8743
-35.9173
-29.4464
-29.5936
-29.7405
-29.8849
-30.0258
-30.1632
-30.2973
-30.4279
-30.555
-30.6784
-30.798
-30.9138
-31.0258
-31.1339
-31.2381
-31.3382
-31.4343
-31.5264
-31.6143
-31.6981
-31.7776
-31.853
-31.924
-31.9908
-32.0532
-32.1112
-32.1648
-32.214
-32.2587
-32.2991
-26.3284
-26.4718
-26.6146
-26.7549
-26.8917
-27.0252
-27.1554
-27.2821
-27.4053
-27.5248
-27.6406
-27.7526
-27.8608
-27.9651
-28.0656
-28.1621
-28.2546
-28.3431
-28.4275
-28.5079
-28.5841
-28.6562
-28.7241
-28.7878
-28.8472
-28.9024
-28.9533
-28.9999
-29.0421
-29.0801
-23.5533
-23.6933
-23.8325
-23.9691
-24.1025
-24.2325
-24.3591
-24.4824
-24.6021
-24.7181
-24.8304
-24.9389
-25.0437
-25.1446
-25.2417
-25.3349
-25.4241
-25.5095
-25.5908
-25.6681
-25.7414
-25.8106
-25.8756
-25.9366
-25.9934
-26.046
-26.0944
-26.1387
-26.1787
-26.2147
-21.0821
-21.2191
-21.3552
-21.4886
-21.6189
-21.7457
-21.8693
-21.9894
-22.1058
-22.2187
-22.3278
-22.4332
-22.5348
-22.6327
-22.7268
-22.817
-22.9033
-22.9858
-23.0643
-23.1389
-23.2095
-23.2761
-23.3386
-23.3972
-23.4516
-23.5019
-23.5482
-23.5903
-23.6284
-23.6625
-18.8807
-19.0152
-19.1485
-19.2792
-19.4066
-19.5307
-19.6514
-19.7686
-19.8822
-19.9922
-20.0984
-20.2009
-20.2997
-20.3948
-20.4861
-20.5736
-20.6573
-20.7372
-20.8132
-20.8853
-20.9535
-21.0178
-21.0781
-21.1344
-21.1867
-21.235
-21.2793
-21.3196
-21.3559
-21.3883
-16.9193
-17.0514
-17.1824
-17.3107
-17.4357
-17.5573
-17.6754
-17.79
-17.9009
-18.0082
-18.1117
-18.2116
-18.3078
-18.4003
-18.489
-18.5741
-18.6554
-18.7329
-18.8067
-18.8766
-18.9426
-19.0048
-19.0631
-19.1174
-19.1679
-19.2144
-19.2569
-19.2956
-19.3302
-19.3611
-15.1712
-15.3015
-15.4305
-15.5567
-15.6795
-15.7988
-15.9146
-16.0267
-16.1352
-16.2399
-16.341
-16.4384
-16.5322
-16.6223
-16.7088
-16.7916
-16.8707
-16.9461
-17.0177
-17.0856
-17.1497
-17.21
-17.2664
-17.319
-17.3678
-17.4126
-17.4536
-17.4908
-17.524
-17.5535
-13.6133
-13.742
-13.8693
-13.9937
-14.1146
-14.2319
-14.3454
-14.4553
-14.5614
-14.6638
-14.7625
-14.8576
-14.9492
-15.0371
-15.1214
-15.2021
-15.2792
-15.3527
-15.4224
-15.4885
-15.5508
-15.6094
-15.6642
-15.7152
-15.7624
-15.8057
-15.8453
-15.8811
-15.913
-15.9413
-12.2249
-12.3522
-12.4782
-12.6011
-12.7203
-12.8356
-12.947
-13.0547
-13.1586
-13.2587
-13.3553
-13.4482
-13.5376
-13.6235
-13.7059
-13.7847
-13.8599
-13.9316
-13.9996
-14.064
-14.1247
-14.1817
-14.235
-14.2845
-14.3303
-14.3723
-14.4106
-14.4452
-14.4759
-14.5031
-10.9874
-11.1138
-11.2387
-11.3604
-11.478
-11.5914
-11.7009
-11.8064
-11.9081
-12.0061
-12.1006
-12.1915
-12.2789
-12.3629
-12.4434
-12.5204
-12.594
-12.664
-12.7304
-12.7933
-12.8525
-12.9081
-12.96
-13.0082
-13.0527
-13.0935
-13.1306
-13.164
-13.1937
-13.2198
-9.88444
-10.0102
-10.1347
-10.2553
-10.3714
-10.483
-10.5904
-10.6939
-10.7935
-10.8894
-10.9818
-11.0708
-11.1564
-11.2386
-11.3174
-11.3928
-11.4648
-11.5333
-11.5982
-11.6597
-11.7175
-11.7718
-11.8224
-11.8694
-11.9128
-11.9524
-11.9884
-12.0208
-12.0494
-12.0746
-8.90107
-9.02686
-9.1514
-9.27123
-9.38576
-9.49553
-9.60095
-9.70229
-9.79982
-9.89378
-9.98431
-10.0715
-10.1554
-10.2359
-10.3131
-10.387
-10.4575
-10.5246
-10.5882
-10.6484
-10.705
-10.758
-10.8075
-10.8533
-10.8955
-10.9342
-10.9691
-11.0005
-11.0282
-11.0524
-8.02386
-8.15045
-8.27585
-8.39502
-8.50797
-8.61584
-8.71922
-8.81849
-8.91403
-9.0061
-9.09485
-9.18034
-9.2626
-9.34164
-9.41741
-9.4899
-9.55905
-9.62482
-9.68718
-9.74608
-9.80149
-9.85338
-9.90172
-9.9465
-9.98768
-10.0253
-10.0593
-10.0897
-10.1165
-10.1399
-7.2408
-7.36944
-7.49655
-7.61516
-7.72641
-7.83231
-7.93363
-8.03089
-8.12452
-8.2148
-8.30188
-8.3858
-8.46658
-8.54419
-8.6186
-8.68976
-8.75763
-8.82216
-8.88331
-8.94104
-8.99532
-9.0461
-9.09337
-9.13711
-9.17729
-9.21392
-9.24698
-9.2765
-9.30243
-9.32494
-6.54086
-6.67425
-6.80415
-6.92191
-7.03126
-7.13512
-7.23436
-7.32962
-7.42141
-7.50999
-7.59547
-7.6779
-7.75725
-7.83348
-7.90656
-7.97643
-8.04304
-8.10635
-8.16631
-8.22288
-8.27603
-8.32573
-8.37194
-8.41464
-8.45383
-8.48949
-8.52163
-8.55024
-8.57532
-8.59699
-5.9112
-6.05551
-6.18996
-6.30626
-6.41336
-6.51506
-6.61218
-6.70545
-6.79543
-6.88236
-6.9663
-7.04725
-7.12519
-7.20007
-7.27182
-7.34041
-7.40578
-7.46787
-7.52665
-7.58208
-7.63411
-7.68272
-7.72788
-7.76957
-7.80777
-7.84248
-7.87369
-7.90141
-7.92563
-7.94645
-5.33012
-5.49601
-5.63973
-5.75469
-5.85932
-5.95891
-6.05402
-6.14547
-6.23383
-6.3193
-6.4019
-6.48158
-6.55832
-6.63203
-6.70267
-6.77018
-6.83451
-6.8956
-6.95341
-7.00789
-7.05902
-7.10675
-7.15107
-7.19194
-7.22935
-7.26329
-7.29376
-7.32077
-7.3443
-7.36445
-4.78548
-4.98335
-5.14172
-5.25738
-5.35987
-5.4572
-5.55037
-5.64017
-5.72714
-5.81139
-5.89288
-5.97155
-6.04732
-6.12011
-6.18988
-6.25655
-6.32008
-6.38041
-6.43749
-6.49129
-6.54175
-6.58886
-6.63258
-6.67289
-6.70978
-6.74322
-6.77323
-6.7998
-6.82292
-6.84268
-4.39088
-4.61128
-4.76163
-4.87248
-4.96946
-5.06075
-5.14902
-5.23475
-5.31799
-5.39872
-5.47685
-5.55225
-5.62482
-5.69448
-5.76118
-5.82484
-5.88542
-5.94287
-5.99715
-6.04821
-6.09603
-6.14057
-6.1818
-6.21972
-6.2543
-6.28553
-6.31342
-6.33796
-6.35917
-6.3771
-1.27558
-1.67638
-2.13505
-2.65295
-3.23773
-3.89776
-4.64177
-5.47948
-6.42185
-7.48121
-8.67141
-10.008
-11.5087
-13.1931
-15.0836
-17.2055
-19.5874
-22.2617
-25.2653
-28.6404
-32.4354
-36.7063
-41.518
-46.9455
-53.0812
-60.0408
-67.9014
-76.668
-87.3917
-102.054
-1.35592
-1.75829
-2.21697
-2.73518
-3.32047
-3.98105
-4.72565
-5.56405
-6.50722
-7.56749
-8.75873
-10.0965
-11.5985
-13.2843
-15.1765
-17.3002
-19.6842
-22.3607
-25.3669
-28.745
-32.5434
-36.8183
-41.6345
-47.0673
-53.2093
-60.1764
-68.0451
-76.8172
-87.5359
-102.179
-1.43902
-1.84298
-2.30175
-2.82035
-3.40623
-4.06745
-4.81276
-5.65195
-6.59602
-7.65732
-8.84971
-10.1888
-11.6922
-13.3797
-15.2737
-17.3994
-19.7856
-22.4647
-25.4738
-28.8551
-32.6572
-36.9363
-41.7574
-47.1959
-53.344
-60.3179
-68.1934
-76.9684
-87.6752
-102.284
-1.52462
-1.93019
-2.38907
-2.90814
-3.49468
-4.1566
-4.90266
-5.74271
-6.68774
-7.75013
-8.94376
-10.2842
-11.7892
-13.4784
-15.3743
-17.5022
-19.8907
-22.5725
-25.5845
-28.9692
-32.7752
-37.0587
-41.8848
-47.3289
-53.4831
-60.4633
-68.345
-77.1243
-87.827
-102.416
-1.61259
-2.01979
-2.47884
-2.99844
-3.58571
-4.24837
-4.99525
-5.83619
-6.78224
-7.84576
-9.04066
-10.3826
-11.8891
-13.58
-15.4779
-17.608
-19.9989
-22.6834
-25.6985
-29.0866
-32.8965
-37.1844
-42.0156
-47.4653
-53.6257
-60.6122
-68.5004
-77.2862
-87.9919
-102.574
-1.70286
-2.1117
-2.57098
-3.09118
-3.67924
-4.34272
-5.09047
-5.93237
-6.87948
-7.9442
-9.14042
-10.4838
-11.9919
-13.6847
-15.5846
-17.7169
-20.1104
-22.7976
-25.8158
-29.2074
-33.0212
-37.3137
-42.1499
-47.6053
-53.772
-60.7654
-68.6607
-77.4539
-88.1654
-102.745
-1.7953
-2.2058
-2.66536
-3.18625
-3.77517
-4.43954
-5.18822
-6.03114
-6.97939
-8.04535
-9.24296
-10.5879
-12.0977
-13.7924
-15.6944
-17.829
-20.225
-22.9151
-25.9365
-29.3317
-33.1496
-37.4466
-42.2881
-47.7494
-53.9228
-60.9234
-68.8263
-77.6273
-88.3452
-102.926
-1.88981
-2.30198
-2.76186
-3.28352
-3.87338
-4.53871
-5.28838
-6.13239
-7.08183
-8.1491
-9.34817
-10.6947
-12.2063
-13.903
-15.8071
-17.9441
-20.3428
-23.0358
-26.0605
-29.4595
-33.2816
-37.5834
-42.4302
-47.8977
-54.078
-61.0862
-68.9971
-77.8063
-88.5313
-103.114
-1.98628
-2.40012
-2.86038
-3.38288
-3.97376
-4.64011
-5.39085
-6.23601
-7.18669
-8.25534
-9.45592
-10.8041
-12.3176
-14.0162
-15.9226
-18.062
-20.4635
-23.1596
-26.1877
-29.5904
-33.417
-37.7236
-42.5761
-48.05
-54.2375
-61.2537
-69.1731
-77.9908
-88.7236
-103.311
-2.08459
-2.50012
-2.9608
-3.48423
-4.07621
-4.74365
-5.49552
-6.34189
-7.29389
-8.36397
-9.56611
-10.916
-12.4314
-14.1321
-16.0408
-18.1828
-20.587
-23.2863
-26.3179
-29.7246
-33.5555
-37.8673
-42.7256
-48.2062
-54.4012
-61.4256
-69.3539
-78.1807
-88.9218
-103.514
-2.18466
-2.60187
-3.06304
-3.58748
-4.18064
-4.84924
-5.60231
-6.44994
-7.40331
-8.47488
-9.67864
-11.0303
-12.5476
-14.2505
-16.1616
-18.3062
-20.7133
-23.4158
-26.4511
-29.8619
-33.6974
-38.0145
-42.8788
-48.3661
-54.5688
-61.6019
-69.5394
-78.3756
-89.1255
-103.724
-2.28641
-2.7053
-3.167
-3.69255
-4.28695
-4.9568
-5.71112
-6.56009
-7.51488
-8.58799
-9.79342
-11.1469
-12.6663
-14.3714
-16.2848
-18.4321
-20.8423
-23.5481
-26.5871
-30.0021
-33.8424
-38.1649
-43.0353
-48.5297
-54.7404
-61.7823
-69.7293
-78.5753
-89.3343
-103.939
-2.38975
-2.81032
-3.27261
-3.79935
-4.39509
-5.06623
-5.82188
-6.67223
-7.6285
-8.7032
-9.91036
-11.2658
-12.7871
-14.4945
-16.4104
-18.5605
-20.9737
-23.6829
-26.7257
-30.145
-33.9901
-38.3182
-43.195
-48.6967
-54.9156
-61.9666
-69.9234
-78.7794
-89.5478
-104.159
-2.49463
-2.91688
-3.37981
-3.90783
-4.50498
-5.1775
-5.93452
-6.78631
-7.7441
-8.82043
-10.0294
-11.3867
-12.9101
-14.6198
-16.5383
-18.6911
-21.1074
-23.8202
-26.8668
-30.2905
-34.1407
-38.4745
-43.3578
-48.8669
-55.0942
-62.1546
-70.1215
-78.9877
-89.7655
-104.384
-2.60103
-3.02495
-3.48856
-4.01794
-4.61659
-5.29053
-6.04899
-6.90226
-7.86161
-8.9396
-10.1503
-11.5096
-13.0352
-14.7472
-16.6682
-18.8239
-21.2434
-23.9596
-27.0104
-30.4385
-34.2939
-38.6335
-43.5235
-49.0402
-55.2761
-62.3461
-70.3232
-79.1999
-89.9873
-104.612
-2.70895
-3.13451
-3.59885
-4.12968
-4.72987
-5.40529
-6.16522
-7.02001
-7.98095
-9.06063
-10.2732
-11.6344
-13.1621
-14.8765
-16.8001
-18.9588
-21.3814
-24.1013
-27.156
-30.5889
-34.4495
-38.7951
-43.6919
-49.2164
-55.4611
-62.5408
-70.5284
-79.4156
-90.2128
-104.845
-2.8184
-3.24559
-3.71068
-4.24302
-4.84482
-5.52176
-6.28319
-7.13951
-8.10205
-9.18342
-10.3978
-11.761
-13.2909
-15.0076
-16.9339
-19.0955
-21.5215
-24.245
-27.3038
-30.7414
-34.6072
-38.9589
-43.8627
-49.3952
-55.6489
-62.7385
-70.7367
-79.6347
-90.4417
-105.081
-2.92948
-3.35824
-3.8241
-4.358
-4.96144
-5.63992
-6.40285
-7.2607
-8.22484
-9.3079
-10.5241
-11.8892
-13.4213
-15.1404
-17.0694
-19.2339
-21.6631
-24.3904
-27.4534
-30.8957
-34.767
-39.1249
-44.0358
-49.5764
-55.8392
-62.9389
-70.948
-79.8569
-90.6737
-105.32
-3.04231
-3.47257
-3.93917
-4.47465
-5.07974
-5.75974
-6.52415
-7.38352
-8.34923
-9.43396
-10.6519
-12.019
-13.5533
-15.2748
-17.2063
-19.3737
-21.8063
-24.5372
-27.6045
-31.0517
-34.9285
-39.2927
-44.2109
-49.7597
-56.0319
-63.1419
-71.162
-80.0819
-90.9087
-105.562
-3.15707
-3.58871
-4.05597
-4.59301
-5.19972
-5.88119
-6.64705
-7.50788
-8.47511
-9.56146
-10.7812
-12.1502
-13.6866
-15.4104
-17.3446
-19.515
-21.9509
-24.6855
-27.7572
-31.2092
-35.0916
-39.4622
-44.3878
-49.945
-56.2266