/*--------------------------------*- C++ -*----------------------------------*\
| =========                 |                                                 |
| \\      /  F ield         | OpenFOAM: The Open Source CFD Toolbox           |
|  \\    /   O peration     | Version:  v1912                                 |
|   \\  /    A nd           | Website:  www.openfoam.com                      |
|    \\/     M anipulation  |                                                 |
\*---------------------------------------------------------------------------*/
FoamFile
{
    version     2.0;
    format      ascii;
    class       volVectorField;
    location    "10.5";
    object      U;
}
// * * * * * * * * * * * * * * * * * * * * * * * * * * * * * * * * * * * * * //

dimensions      [0 1 -1 0 0 0 0];


internalField   nonuniform List<vector> 
9600
(
(0.458546 -9.43582 -1.45405e-19)
(0.153542 -8.75586 0)
(0.219727 -8.27799 -8.35898e-20)
(0.277723 -7.92578 0)
(0.324588 -7.64458 0)
(0.37297 -7.39962 -2.84765e-20)
(0.419538 -7.17166 -3.68374e-22)
(0.461728 -6.95096 2.32578e-20)
(0.498991 -6.73322 0)
(0.53137 -6.51725 -3.90054e-20)
(0.559156 -6.30349 0)
(0.582812 -6.09306 -1.63659e-21)
(0.602886 -5.88725 -2.43315e-21)
(0.61994 -5.68726 -2.64966e-20)
(0.634516 -5.49398 2.19937e-20)
(0.647101 -5.30794 -2.16081e-20)
(0.6581 -5.12926 1.90063e-20)
(0.66795 -4.9576 0)
(0.677357 -4.79212 -1.48712e-20)
(0.685817 -4.63153 1.64241e-20)
(0.828989 -9.42076 -2.8915e-19)
(0.499963 -8.77274 1.19567e-20)
(0.548875 -8.30703 1.72451e-19)
(0.59407 -7.9621 -1.44361e-19)
(0.630303 -7.68461 1.4237e-19)
(0.669038 -7.44025 0)
(0.706284 -7.21079 5.3947e-20)
(0.739188 -6.98731 -5.35664e-20)
(0.767126 -6.76613 -9.19459e-20)
(0.790174 -6.54651 1.14474e-19)
(0.8087 -6.32915 -7.41838e-20)
(0.823257 -6.11538 -2.96197e-20)
(0.83447 -5.90661 6.01141e-20)
(0.842968 -5.70407 0)
(0.849335 -5.50869 0)
(0.854083 -5.321 8.1701e-20)
(0.857617 -5.1411 -1.38293e-19)
(0.860388 -4.96857 0)
(0.863172 -4.80248 0)
(0.865206 -4.64145 -6.28368e-20)
(1.19941 -9.39202 5.97028e-19)
(0.847799 -8.77664 0)
(0.880425 -8.32336 -3.45795e-19)
(0.913422 -7.98601 -3.10402e-19)
(0.939286 -7.71241 0)
(0.968383 -7.46879 4.8601e-19)
(0.996157 -7.23798 -4.56739e-19)
(1.01953 -7.01194 8.81977e-20)
(1.03785 -6.7876 -1.96767e-19)
(1.05126 -6.56463 -3.22364e-19)
(1.06024 -6.34404 4.36138e-19)
(1.06543 -6.12731 -2.67931e-19)
(1.06755 -5.91597 -1.18816e-19)
(1.0673 -5.71129 0)
(1.0653 -5.51421 4.82294e-21)
(1.06209 -5.32527 8.64112e-20)
(1.05808 -5.14452 3.67334e-20)
(1.05372 -4.97152 0)
(1.04985 -4.8052 6.62709e-20)
(1.04538 -4.64412 6.80087e-20)
(1.5687 -9.34926 -8.05409e-19)
(1.19645 -8.76734 -3.71423e-19)
(1.21384 -8.3269 3.61496e-19)
(1.23524 -7.99733 6.09329e-19)
(1.251 -7.72774 -2.94805e-19)
(1.27047 -7.48498 4.39121e-21)
(1.28861 -7.253 2.23931e-19)
(1.30219 -7.02463 2.01016e-19)
(1.31061 -6.79742 3.64486e-19)
(1.3141 -6.57145 0)
(1.31325 -6.34801 1.36848e-19)
(1.30884 -6.12875 -1.46413e-19)
(1.30166 -5.91526 9.5151e-21)
(1.29249 -5.70885 2.26588e-19)
(1.282 -5.51049 1.91331e-19)
(1.27074 -5.32068 -2.6935e-19)
(1.25911 -5.13949 8.86399e-20)
(1.24759 -4.96639 -1.42095e-19)
(1.23706 -4.80023 1.41399e-19)
(1.22605 -4.63952 -6.80255e-20)
(1.93653 -9.29246 4.05516e-19)
(1.54564 -8.74475 0)
(1.54873 -8.31748 3.51461e-19)
(1.55906 -7.99583 0)
(1.56495 -7.73035 0)
(1.57475 -7.48857 -2.67355e-19)
(1.58309 -7.2556 -4.7304e-19)
(1.58664 -7.02516 -3.95303e-19)
(1.58487 -6.7954 1.76511e-20)
(1.57815 -6.56681 -1.68494e-19)
(1.56722 -6.34094 0)
(1.55298 -6.11957 -1.36974e-19)
(1.53632 -5.90437 -2.45099e-19)
(1.51809 -5.69668 2.13246e-19)
(1.49899 -5.49745 -6.03957e-19)
(1.47961 -5.30719 9.77619e-20)
(1.46033 -5.12594 7.59819e-20)
(1.44165 -4.95314 -1.57146e-19)
(1.42449 -4.78751 -6.80479e-20)
(1.40694 -4.6276 2.02564e-19)
(2.30237 -9.22157 3.87354e-19)
(1.89489 -8.70874 3.77781e-19)
(1.88462 -8.29492 0)
(1.88437 -7.9813 0)
(1.88057 -7.72001 -5.5471e-19)
(1.88068 -7.47935 3.06764e-19)
(1.87903 -7.24558 7.22359e-19)
(1.8723 -7.01335 0)
(1.86007 -6.78139 1.87248e-19)
(1.84288 -6.55059 1.68494e-19)
(1.82164 -6.32272 -2.93993e-19)
(1.79736 -6.0997 4.25904e-19)
(1.77106 -5.88325 1.23784e-19)
(1.74364 -5.67472 0)
(1.71585 -5.47506 1.01599e-19)
(1.68829 -5.28476 4.51844e-19)
(1.66134 -5.10385 -2.69308e-19)
(1.63553 -4.93173 2.98769e-19)
(1.61179 -4.76702 -5.66679e-19)
(1.5877 -4.60835 6.55876e-19)
(2.66569 -9.13659 3.92795e-19)
(2.24371 -8.65916 -2.06954e-18)
(2.22099 -8.25905 0)
(2.21064 -7.95354 0)
(2.19732 -7.69651 0)
(2.18768 -7.45709 -5.33577e-19)
(2.17585 -7.22275 0)
(2.15858 -6.98903 -8.3982e-19)
(2.13563 -6.75525 7.7056e-19)
(2.10772 -6.52267 -7.10953e-19)
(2.07595 -6.29327 0)
(2.04146 -6.06908 0)
(2.00538 -5.85185 0)
(1.96867 -5.64294 -2.33163e-19)
(1.93212 -5.44329 0)
(1.89635 -5.25337 0)
(1.86175 -5.07321 -3.35063e-19)
(1.82884 -4.90217 3.2921e-19)
(1.79859 -4.73876 0)
(1.76803 -4.58178 0)
(3.02595 -9.03756 -1.28028e-18)
(2.59156 -8.59594 8.21641e-19)
(2.55733 -8.2097 0)
(2.53731 -7.91236 0)
(2.51462 -7.65966 0)
(2.49516 -7.42163 5.06059e-19)
(2.47295 -7.18696 -5.06428e-19)
(2.4449 -6.95209 -6.86573e-21)
(2.41097 -6.71689 -7.68099e-19)
(2.37212 -6.48298 7.17016e-19)
(2.32961 -6.25254 -3.20067e-19)
(2.28477 -6.02767 5.51082e-19)
(2.23879 -5.81016 -4.22499e-20)
(2.19271 -5.60135 -4.9495e-19)
(2.14737 -5.40215 -4.12032e-19)
(2.10338 -5.21303 4.0481e-19)
(2.06113 -5.03402 0)
(2.02119 -4.86444 0)
(1.98452 -4.70272 2.86687e-19)
(1.94757 -4.54788 -3.17254e-19)
(3.38261 -8.92454 8.55327e-19)
(2.93792 -8.519 8.00521e-19)
(2.89308 -8.14675 -1.51074e-18)
(2.86381 -7.85759 7.10237e-19)
(2.83187 -7.60929 0)
(2.8025 -7.37281 5.41849e-19)
(2.76972 -7.13808 -4.69459e-19)
(2.73065 -6.90241 1.32194e-18)
(2.68551 -6.66623 -2.16767e-20)
(2.6355 -6.43148 0)
(2.5821 -6.20049 6.45388e-19)
(2.52675 -5.97546 0)
(2.47079 -5.75817 0)
(2.41529 -5.54994 -2.24124e-19)
(2.36113 -5.35165 4.53611e-19)
(2.30892 -5.16377 0)
(2.25907 -4.9863 3.49788e-19)
(2.21216 -4.81857 1.43581e-19)
(2.16918 -4.65893 -3.14358e-19)
(2.12596 -4.50668 3.04371e-19)
(3.73511 -8.79764 -8.76721e-19)
(3.28223 -8.42829 8.11611e-19)
(3.22767 -8.07008 -2.30034e-18)
(3.18956 -7.78912 7.20338e-19)
(3.14846 -7.54527 0)
(3.10908 -7.31052 -1.08779e-18)
(3.06554 -7.07602 5.21776e-19)
(3.01523 -6.83993 0)
(2.95865 -6.60323 -4.05901e-19)
(2.8973 -6.36813 -6.96964e-19)
(2.83284 -6.13713 -6.00488e-19)
(2.76689 -5.91246 4.87804e-20)
(2.70087 -5.69591 5.60302e-19)
(2.63592 -5.48875 2.2397e-19)
(2.57293 -5.29183 -3.37837e-20)
(2.51254 -5.1056 -4.20539e-19)
(2.45512 -4.93009 -1.8658e-19)
(2.40133 -4.76459 -1.67334e-19)
(2.35216 -4.60741 4.43222e-19)
(2.30281 -4.45821 -6.6427e-19)
(4.08291 -8.65696 8.76723e-19)
(3.62394 -8.3238 -4.48397e-20)
(3.56052 -7.97963 7.34038e-19)
(3.51395 -7.70683 0)
(3.46377 -7.46749 -5.97964e-19)
(3.41428 -7.23466 1.14707e-18)
(3.35978 -7.0007 -9.66608e-19)
(3.298 -6.76462 9.5121e-19)
(3.22979 -6.52786 -3.78081e-19)
(3.15693 -6.29294 7.70859e-19)
(3.08129 -6.06246 3.30438e-19)
(3.00467 -5.8387 0)
(2.92854 -5.62341 0)
(2.85412 -5.41782 -2.32105e-19)
(2.78232 -5.22273 3.40715e-20)
(2.71376 -5.03858 8.25963e-19)
(2.64884 -4.86542 -2.04305e-19)
(2.58825 -4.70253 6.66756e-19)
(2.53303 -4.54819 1.13814e-19)
(2.47771 -4.40251 -6.78782e-19)
(4.42548 -8.50265 -2.6872e-18)
(3.96248 -8.20556 -8.89197e-19)
(3.89106 -7.87534 -2.35631e-18)
(3.83636 -7.61065 -1.42019e-18)
(3.77717 -7.3759 -6.69846e-19)
(3.71745 -7.14519 -6.53871e-19)
(3.65181 -6.9121 -2.10302e-18)
(3.57836 -6.67645 -4.4705e-20)
(3.49834 -6.44015 -1.66274e-18)
(3.41382 -6.20594 2.88244e-20)
(3.32692 -5.97654 -6.80405e-19)
(3.23955 -5.75424 -6.16056e-19)
(3.1533 -5.54073 5.58954e-19)
(3.06941 -5.3372 -5.08224e-19)
(2.98881 -5.14441 -4.63086e-19)
(2.91213 -4.96277 -4.22846e-19)
(2.83977 -4.79234 -1.12825e-18)
(2.77247 -4.63243 4.03313e-19)
(2.71132 -4.4813 9.67308e-19)
(2.65023 -4.3396 -1.03163e-18)
(4.76228 -8.33486 3.60985e-18)
(4.2973 -8.0736 4.37814e-18)
(4.2187 -7.75719 7.43635e-19)
(4.15618 -7.50054 3.54134e-18)
(4.08801 -7.27043 -6.89785e-19)
(4.01795 -7.04207 3.41066e-18)
(3.94098 -6.81021 9.86943e-19)
(3.85569 -6.57545 2.75936e-18)
(3.7637 -6.34012 -8.39373e-19)
(3.6674 -6.10717 2.30824e-18)
(3.56916 -5.87942 1.37006e-18)
(3.47102 -5.65912 1.24072e-18)
(3.37464 -5.44793 -1.6682e-18)
(3.28131 -5.24697 1.55679e-18)
(3.19195 -5.05693 9.33337e-19)
(3.10719 -4.87821 8.52501e-19)
(3.02744 -4.71091 7.8027e-19)
(2.95351 -4.55434 6.20166e-21)
(2.88656 -4.40678 6.56911e-19)
(2.81993 -4.26952 6.84282e-19)
(5.0928 -8.15378 -2.67256e-18)
(4.62787 -7.92801 9.77361e-19)
(4.54285 -7.62519 2.38493e-18)
(4.47279 -7.37648 -2.88824e-18)
(4.39566 -7.1511 6.66313e-19)
(4.31514 -6.92533 -2.27818e-18)
(4.22668 -6.69508 1.11293e-18)
(4.12936 -6.46167 -1.84383e-18)
(4.02527 -6.22785 4.46481e-20)
(3.91712 -5.99673 9.58496e-21)
(3.80749 -5.77118 -1.38815e-18)
(3.69857 -5.55343 -6.24661e-19)
(3.59208 -5.34509 1.1417e-18)
(3.48934 -5.14719 7.21958e-21)
(3.39126 -4.96036 -3.27091e-20)
(3.29847 -4.78497 -8.92107e-19)
(3.21137 -4.62117 -3.93383e-19)
(3.13087 -4.46829 -2.33062e-20)
(3.05825 -4.32467 -6.86272e-19)
(2.98632 -4.19235 -3.45655e-19)
(5.41657 -7.95963 0)
(4.95363 -7.76886 -1.79885e-18)
(4.86291 -7.47937 1.86595e-20)
(4.78555 -7.23848 2.87178e-18)
(4.69947 -7.01791 1.18539e-18)
(4.60837 -6.795 -1.23933e-18)
(4.50825 -6.56676 -1.0561e-18)
(4.39879 -6.33521 0)
(4.2825 -6.10343 -8.26035e-19)
(4.16243 -5.8747 7.85949e-19)
(4.04139 -5.65191 -3.5083e-20)
(3.92171 -5.43727 0)
(3.80515 -5.23228 -5.74696e-19)
(3.69303 -5.03792 4.92662e-19)
(3.58627 -4.85473 4.06852e-19)
(3.48547 -4.68307 -4.98388e-19)
(3.39104 -4.52311 -4.28919e-19)
(3.30399 -4.37426 7.38974e-19)
(3.22574 -4.23494 -6.79546e-19)
(3.14865 -4.10811 3.58134e-19)
(5.73314 -7.75258 2.74925e-18)
(5.27406 -7.59626 -1.85093e-18)
(5.17829 -7.31979 -1.55802e-18)
(5.09384 -7.08661 7.19153e-19)
(4.99879 -6.87095 -1.39573e-18)
(4.897 -6.65118 0)
(4.78509 -6.42537 0)
(4.66336 -6.19618 0)
(4.5348 -5.967 -4.01543e-20)
(4.4028 -5.74123 -1.57644e-18)
(4.27038 -5.52176 7.42104e-19)
(4.13997 -5.31074 6.2033e-19)
(4.0134 -5.10961 5.18858e-19)
(3.89198 -4.91923 -2.1374e-18)
(3.77658 -4.74011 1.01067e-18)
(3.66779 -4.57253 0)
(3.566 -4.41672 -2.62426e-20)
(3.47232 -4.27218 -1.14839e-18)
(3.38833 -4.13748 -4.93838e-21)
(3.30616 -4.01648 -3.58425e-19)
(6.04217 -7.53294 -1.8729e-18)
(5.58868 -7.41038 -9.75444e-19)
(5.48837 -7.14652 7.16885e-19)
(5.39701 -6.92093 -1.38862e-19)
(5.29297 -6.71029 -4.04787e-18)
(5.18038 -6.49398 3.63627e-18)
(5.05657 -6.27103 -4.66922e-20)
(4.92249 -6.04473 9.81786e-19)
(4.78163 -5.81871 8.75642e-19)
(4.63771 -5.59645 7.98672e-19)
(4.49396 -5.38085 7.22504e-19)
(4.35292 -5.17397 1.28237e-18)
(4.21643 -4.97716 -6.16415e-19)
(4.08579 -4.79122 1.58307e-18)
(3.96183 -4.61654 -1.02259e-18)
(3.84508 -4.45341 -4.18404e-19)
(3.73593 -4.30207 1.68284e-18)
(3.63555 -4.16211 1.11813e-18)
(3.54574 -4.03218 -2.38872e-20)
(3.45873 -3.91689 0)
(6.34366 -7.30121 -9.5037e-19)
(5.89711 -7.2114 1.85836e-18)
(5.79257 -6.95964 1.60607e-18)
(5.6944 -6.7415 -1.40408e-19)
(5.58134 -6.53604 -1.37244e-18)
(5.45784 -6.32352 6.56805e-20)
(5.32205 -6.10392 1.0608e-20)
(5.17559 -5.88104 9.51002e-21)
(5.02244 -5.65875 0)
(4.86668 -5.44057 7.78671e-19)
(4.71169 -5.22935 -1.48029e-18)
(4.56012 -5.02708 -6.27335e-19)
(4.41382 -4.83504 6.22815e-19)
(4.27404 -4.6539 -5.42259e-19)
(4.14157 -4.48403 5.00158e-19)
(4.01688 -4.3257 -4.53172e-19)
(3.90036 -4.1792 4.32718e-21)
(3.7933 -4.04405 -3.82164e-19)
(3.69787 -3.91889 -3.51891e-19)
(3.6067 -3.80991 -3.51974e-19)
(6.63796 -7.05787 0)
(6.19919 -6.99928 -9.0084e-19)
(6.09029 -6.75908 8.90506e-19)
(5.98532 -6.5484 1.53391e-18)
(5.86322 -6.34835 -1.37767e-18)
(5.72876 -6.14004 1.17827e-18)
(5.58094 -5.9243 -2.26194e-18)
(5.4221 -5.7054 -1.99167e-18)
(5.25675 -5.4874 -8.60966e-19)
(5.08925 -5.27383 4.00828e-20)
(4.92319 -5.06748 -7.04845e-19)
(4.76124 -4.87026 3.11459e-20)
(4.60526 -4.68332 0)
(4.4564 -4.50727 -1.06202e-18)
(4.31536 -4.34243 5.4326e-19)
(4.18251 -4.1891 0)
(4.05826 -4.04749 -4.20085e-19)
(3.94406 -3.91699 -7.51886e-19)
(3.84214 -3.79707 7.38803e-19)
(3.74594 -3.69814 3.63866e-19)
(6.92471 -6.80214 0)
(6.49432 -6.77329 0)
(6.38088 -6.54474 -1.63685e-18)
(6.26906 -6.34191 -1.39053e-18)
(6.13798 -6.14761 2.82998e-18)
(5.99256 -5.94393 0)
(5.83271 -5.73256 0)
(5.66157 -5.5182 1.00037e-18)
(5.48413 -5.30505 0)
(5.30509 -5.09662 0)
(5.12819 -4.89561 0)
(4.95613 -4.7038 0)
(4.79071 -4.52223 0)
(4.63299 -4.3514 0)
(4.48344 -4.19157 0)
(4.34222 -4.04293 0)
(4.20961 -3.90547 0)
(4.08656 -3.77872 0)
(3.97348 -3.66506 0)
(3.86529 -3.57904 0)
(9.97174 0.0872697 1.3194e-19)
(9.95369 -0.305375 2.56067e-19)
(9.92048 -0.695555 -2.63655e-19)
(9.87271 -1.08312 5.25739e-19)
(9.81009 -1.46774 -5.25738e-19)
(9.73245 -1.84893 -4.94341e-19)
(9.63988 -2.22616 -4.93047e-19)
(9.53259 -2.59887 1.5614e-18)
(9.4108 -2.96654 -1.04033e-18)
(9.27475 -3.32861 1.03228e-18)
(9.12471 -3.68454 -1.03228e-18)
(8.96097 -4.03381 1.02527e-18)
(8.78386 -4.37589 -2.0347e-18)
(8.5937 -4.7103 2.99148e-18)
(8.39085 -5.03655 0)
(8.17568 -5.3542 -2.94388e-18)
(7.94858 -5.66282 1.31816e-20)
(7.71006 -5.96207 2.97495e-18)
(7.46019 -6.25179 0)
(7.20064 -6.5313 0)
(9.92686 -0.211804 0)
(9.88986 -0.600714 -1.45521e-20)
(9.83651 -0.986175 0)
(9.76751 -1.36787 4.9586e-19)
(9.68308 -1.74539 5.18203e-19)
(9.58333 -2.1182 -1.49501e-18)
(9.46855 -2.48567 2.615e-18)
(9.33905 -2.84721 -1.0311e-18)
(9.19519 -3.20225 -9.79735e-19)
(9.03731 -3.55021 -9.75972e-19)
(8.8658 -3.89056 4.32117e-20)
(8.68107 -4.22276 1.00482e-18)
(8.48354 -4.5463 -4.99089e-18)
(8.27366 -4.86072 -1.05538e-18)
(8.05188 -5.16555 1.99715e-18)
(7.81869 -5.46039 1.99916e-18)
(7.57452 -5.74486 1.01918e-18)
(7.31991 -6.01863 -1.95772e-18)
(7.05492 -6.28149 9.24634e-19)
(6.78046 -6.53307 0)
(9.78775 -0.153389 1.16681e-19)
(9.75412 -0.534608 -2.39398e-19)
(9.70374 -0.912998 6.8929e-19)
(9.63701 -1.2879 -4.9065e-19)
(9.55433 -1.65871 -4.66071e-19)
(9.45599 -2.02478 4.88509e-19)
(9.34233 -2.38543 0)
(9.21372 -2.73999 0)
(9.07054 -3.08786 1.84951e-18)
(8.9132 -3.42842 2.75935e-18)
(8.74213 -3.76108 -8.68802e-19)
(8.55777 -4.0853 2.72918e-18)
(8.36061 -4.40053 -8.6533e-19)
(8.15113 -4.70629 -2.65761e-18)
(7.92983 -5.00208 1.11174e-20)
(7.69724 -5.28749 1.70189e-18)
(7.45383 -5.56208 -7.62108e-19)
(7.20015 -5.82549 -1.67769e-18)
(6.93648 -6.07736 -9.1403e-19)
(6.66345 -6.31716 1.65125e-18)
(9.56041 -0.119659 0)
(9.53249 -0.489508 1.99586e-19)
(9.48805 -0.857309 1.98568e-19)
(9.42732 -1.2222 -8.17701e-19)
(9.35062 -1.58341 0)
(9.25824 -1.94025 0)
(9.15051 -2.292 0)
(9.02777 -2.63798 0)
(8.8904 -2.97753 -8.69784e-19)
(8.73879 -3.30999 -8.66638e-19)
(8.57339 -3.63475 0)
(8.39465 -3.95123 1.63356e-18)
(8.20305 -4.25886 -4.03699e-18)
(7.99908 -4.55709 3.24953e-18)
(7.78327 -4.84543 -3.14576e-18)
(7.55614 -5.12339 -7.63319e-19)
(7.31821 -5.39052 1.48631e-19)
(7.07004 -5.64638 1.47394e-19)
(6.81208 -5.89056 -1.5608e-18)
(6.54496 -6.12255 -6.93934e-20)
(9.26886 -0.106923 0)
(9.24705 -0.46335 -1.96836e-19)
(9.20922 -0.818281 0)
(9.15549 -1.17086 3.93725e-19)
(9.08611 -1.52028 3.74089e-19)
(9.00128 -1.86585 3.40019e-19)
(8.90132 -2.20683 0)
(8.78653 -2.54254 0)
(8.65726 -2.87228 0)
(8.51386 -3.1954 0)
(8.35676 -3.51126 7.0462e-19)
(8.18639 -3.81925 7.63641e-19)
(8.0032 -4.11878 7.60247e-19)
(7.80769 -4.40929 -7.71338e-19)
(7.60035 -4.69024 -1.314e-18)
(7.38172 -4.96111 1.50877e-18)
(7.15231 -5.22141 2.92158e-18)
(6.91269 -5.47068 1.42043e-18)
(6.66339 -5.70845 0)
(6.40499 -5.93425 -1.33435e-18)
(8.93863 -0.0977821 4.00003e-20)
(8.92262 -0.439419 0)
(8.89124 -0.780031 -6.5618e-19)
(8.84455 -1.11882 4.65884e-23)
(8.78269 -1.455 1.48177e-20)
(8.70586 -1.78788 -6.30093e-20)
(8.61431 -2.11673 0)
(8.50831 -2.44086 2.84038e-20)
(8.38815 -2.75959 -6.66781e-19)
(8.25416 -3.07227 1.29744e-18)
(8.10672 -3.37826 -1.35695e-18)
(7.94623 -3.67693 7.45979e-19)
(7.77311 -3.96768 -3.8768e-18)
(7.58782 -4.24995 2.55604e-18)
(7.39084 -4.52318 1.36171e-18)
(7.18267 -4.78682 0)
(6.96382 -5.04038 -2.50293e-18)
(6.73485 -5.28334 -5.81332e-20)
(6.49628 -5.51525 -2.46673e-18)
(6.24868 -5.73559 2.57313e-18)
(8.59194 -0.0919186 3.57517e-20)
(8.58071 -0.418255 -7.51378e-20)
(8.55483 -0.743961 6.16826e-19)
(8.51432 -1.06829 -1.28225e-20)
(8.45928 -1.3905 6.16573e-19)
(8.38986 -1.7099 -9.31677e-19)
(8.30627 -2.02581 0)
(8.20873 -2.33754 6.28582e-19)
(8.0975 -2.64443 5.72354e-19)
(7.97288 -2.94585 -6.25046e-19)
(7.8352 -3.24116 1.13719e-18)
(7.68481 -3.52975 2.42102e-18)
(7.52211 -3.81103 -1.12039e-18)
(7.34752 -4.08443 -1.2226e-18)
(7.16148 -4.34938 1.16874e-18)
(6.96447 -4.60535 0)
(6.75699 -4.85181 5.96003e-20)
(6.53955 -5.08825 8.1148e-21)
(6.31267 -5.31418 2.3291e-18)
(6.07687 -5.52909 1.07819e-18)
(8.24535 -0.0892162 0)
(8.23765 -0.400427 5.64615e-21)
(8.21604 -0.711305 -1.24091e-19)
(8.18053 -1.02115 -5.54442e-19)
(8.13118 -1.32927 5.1912e-19)
(8.0681 -1.635 0)
(7.99147 -1.93768 1.0576e-18)
(7.90149 -2.23667 -1.21466e-21)
(7.79837 -2.53133 -1.61726e-18)
(7.68237 -2.82104 0)
(7.55378 -3.10521 -1.11909e-18)
(7.41294 -3.38323 4.18233e-20)
(7.26019 -3.65453 -3.13396e-18)
(7.09593 -3.91855 5.51373e-21)
(6.92057 -4.17473 1.05127e-18)
(6.73455 -4.42255 0)
(6.53835 -4.66149 -1.03208e-18)
(6.33245 -4.89101 7.26081e-21)
(6.11735 -5.11064 1.02483e-18)
(5.89354 -5.31984 -1.06102e-18)
(7.90975 -0.0885629 0)
(7.90443 -0.385246 1.27548e-19)
(7.88593 -0.681801 2.65084e-19)
(7.85424 -0.977577 -4.88433e-19)
(7.80941 -1.27192 -2.23537e-20)
(7.75152 -1.56421 -2.44056e-19)
(7.68073 -1.85381 -9.77068e-19)
(7.59719 -2.14012 4.85524e-19)
(7.50111 -2.42254 2.15595e-20)
(7.39271 -2.70048 4.82503e-19)
(7.27225 -2.97336 4.41963e-19)
(7.14003 -3.24062 1.92389e-18)
(6.99638 -3.5017 9.62572e-19)
(6.84165 -3.75607 1.89985e-18)
(6.67623 -4.00319 -9.47406e-19)
(6.50054 -4.24255 3.51051e-20)
(6.31503 -4.47363 -9.36165e-19)
(6.12015 -4.69592 0)
(5.91639 -4.90892 8.82653e-19)
(5.70421 -5.1121 0)
(7.59145 -0.0890335 5.51325e-20)
(7.58757 -0.372014 -1.6124e-19)
(7.5712 -0.654997 4.42913e-19)
(7.54232 -0.937377 -2.20853e-19)
(7.50097 -1.21854 1.69461e-20)
(7.44721 -1.49789 -2.2069e-19)
(7.38118 -1.77486 4.59833e-19)
(7.30302 -2.04885 -4.38886e-19)
(7.2129 -2.31932 4.38884e-19)
(7.11103 -2.58569 8.39728e-19)
(6.99765 -2.84743 -9.08995e-19)
(6.87302 -3.104 -4.05382e-20)
(6.73745 -3.35488 -2.62594e-18)
(6.59128 -3.59956 4.66673e-21)
(6.43486 -3.83753 3.5993e-20)
(6.2686 -4.0683 1.70062e-18)
(6.09292 -4.29137 -8.39681e-19)
(5.90826 -4.50624 -7.97739e-19)
(5.71511 -4.71242 -3.41546e-20)
(5.51388 -4.90935 0)
(7.29343 -0.0900059 0)
(7.29028 -0.360209 2.04435e-19)
(7.27528 -0.63049 -7.02146e-19)
(7.24841 -0.900281 -1.85486e-19)
(7.20968 -1.16901 4.17375e-19)
(7.15916 -1.43611 0)
(7.09697 -1.70105 0)
(7.02323 -1.96327 3.97777e-19)
(6.93811 -2.22225 -3.97775e-19)
(6.84179 -2.47747 3.31476e-19)
(6.73448 -2.7284 -3.95045e-19)
(6.61644 -2.97456 7.83057e-19)
(6.48795 -3.21545 -1.56206e-18)
(6.34933 -3.4506 1.55364e-18)
(6.20092 -3.67952 3.1105e-20)
(6.04311 -3.90176 -8.00786e-19)
(5.87631 -4.11683 -7.5981e-19)
(5.70097 -4.32426 1.54984e-18)
(5.51755 -4.52355 7.22659e-19)
(5.32645 -4.71415 0)
(7.01646 -0.0910686 1.64748e-21)
(7.01355 -0.349431 1.33392e-19)
(6.99936 -0.607907 2.80721e-19)
(6.97388 -0.865962 1.96969e-19)
(6.93712 -1.12306 1.81954e-19)
(6.88913 -1.37866 1.68626e-19)
(6.83003 -1.63227 0)
(6.75993 -1.88337 -6.97873e-19)
(6.67898 -2.13145 -3.60245e-19)
(6.58735 -2.37603 3.04475e-19)
(6.48524 -2.61663 0)
(6.37289 -2.85279 7.10924e-19)
(6.25056 -3.08404 -2.10099e-18)
(6.11856 -3.30995 7.07073e-19)
(5.97721 -3.53007 0)
(5.8269 -3.74397 -6.70413e-19)
(5.66804 -3.95121 -1.35487e-18)
(5.50107 -4.15133 6.66015e-19)
(5.32648 -4.34383 -2.61517e-20)
(5.14466 -4.52815 0)
(6.75996 -0.0919501 3.03548e-21)
(6.75695 -0.339376 -8.62848e-20)
(6.7432 -0.586918 1.66172e-19)
(6.71867 -0.834077 -1.14429e-20)
(6.68338 -1.08034 3.31955e-19)
(6.6374 -1.32522 -5.10368e-19)
(6.58081 -1.56823 0)
(6.51372 -1.80887 4.90907e-20)
(6.43628 -2.0467 0)
(6.34864 -2.28123 -6.80955e-19)
(6.25099 -2.51204 0)
(6.14356 -2.73867 -6.25752e-19)
(6.02659 -2.96072 1.93669e-18)
(5.90038 -3.17778 -1.28271e-18)
(5.76525 -3.38944 6.39383e-19)
(5.62156 -3.59531 -5.61693e-19)
(5.46976 -3.79499 6.54225e-19)
(5.31027 -3.98805 -6.4951e-19)
(5.14364 -4.17398 0)
(4.97027 -4.35224 0)
(6.52255 -0.0925267 3.93582e-20)
(6.51928 -0.329837 0)
(6.50571 -0.567257 0)
(6.48184 -0.804312 -3.15205e-19)
(6.44768 -1.04052 -2.93286e-19)
(6.4033 -1.27541 0)
(6.34879 -1.50852 0)
(6.28424 -1.7394 4.33211e-20)
(6.20978 -1.96761 5.80055e-19)
(6.12557 -2.1927 -2.79279e-19)
(6.03179 -2.41427 -2.98265e-19)
(5.92865 -2.63191 1.20508e-18)
(5.81638 -2.84524 -1.78831e-18)
(5.69526 -3.05388 1.15123e-18)
(5.5656 -3.25748 0)
(5.42777 -3.4557 2.31247e-18)
(5.28221 -3.64816 -1.67561e-18)
(5.12938 -3.83452 5.7056e-19)
(4.96992 -4.01422 1.08824e-18)
(4.80421 -4.18677 0)
(6.30261 -0.0927234 -3.36661e-20)
(6.29894 -0.320663 0)
(6.2854 -0.548703 -4.46305e-21)
(6.262 -0.776384 -2.69252e-19)
(6.22874 -1.00325 8.35163e-19)
(6.18569 -1.22885 -1.38888e-19)
(6.13294 -1.45274 0)
(6.07057 -1.67451 1.1057e-18)
(5.99871 -1.89372 -5.69898e-19)
(5.9175 -2.10998 3.83536e-20)
(5.82712 -2.32288 5.26316e-19)
(5.72777 -2.53206 5.39695e-19)
(5.61965 -2.73716 -1.07595e-18)
(5.50303 -2.93786 -1.05125e-18)
(5.37822 -3.13383 -1.0254e-18)
(5.24558 -3.32481 -1.09382e-18)
(5.10556 -3.51044 1.0857e-18)
(4.95863 -3.69054 -5.16795e-19)
(4.8056 -3.86445 -5.52387e-19)
(4.64682 -4.03182 0)
(6.09834 -0.0925057 3.30761e-20)
(6.09423 -0.311754 -1.23953e-19)
(6.08064 -0.531081 -1.28453e-19)
(6.05759 -0.750048 3.84433e-19)
(6.02508 -0.968219 -1.36766e-19)
(5.98318 -1.18517 -1.27531e-19)
(5.93197 -1.40048 0)
(5.87153 -1.61374 -5.24318e-19)
(5.80198 -1.82456 0)
(5.72347 -2.03255 5.19804e-19)
(5.63614 -2.23734 -1.00012e-18)
(5.54018 -2.43859 4.94544e-19)
(5.4358 -2.63597 -9.85744e-19)
(5.32324 -2.82919 1.0183e-18)
(5.20277 -3.01798 5.55564e-19)
(5.07475 -3.20215 0)
(4.93965 -3.38139 -4.76315e-19)
(4.79793 -3.55572 4.76315e-19)
(4.65067 -3.72431 0)
(4.49805 -3.88733 0)
(5.90801 -0.0919323 0)
(5.90346 -0.303078 1.21782e-19)
(5.88981 -0.514276 4.02752e-21)
(5.86705 -0.725109 -1.25599e-19)
(5.83522 -0.935164 -1.10457e-19)
(5.79436 -1.14403 -1.17355e-19)
(5.74456 -1.35132 4.53051e-19)
(5.6859 -1.55664 0)
(5.61849 -1.75961 0)
(5.54247 -1.95987 2.29956e-19)
(5.45797 -2.15707 2.44612e-19)
(5.36516 -2.35089 8.82629e-19)
(5.26424 -2.54103 -4.50832e-19)
(5.1554 -2.72724 4.50831e-19)
(5.03893 -2.90929 4.79315e-19)
(4.91511 -3.08708 2.86874e-20)
(4.78443 -3.26034 -8.76395e-19)
(4.64731 -3.42944 3.5753e-21)
(4.50525 -3.59319 4.32771e-19)
(4.35793 -3.7529 0)
(5.73004 -0.0910092 -2.71716e-20)
(5.72509 -0.294606 2.71713e-20)
(5.7114 -0.498235 0)
(5.68895 -0.701494 1.02243e-19)
(5.65777 -0.903987 3.32292e-19)
(5.61792 -1.10533 -4.1949e-19)
(5.56947 -1.30514 -4.45138e-19)
(5.51252 -1.50305 0)
(5.44717 -1.6987 0)
(5.37353 -1.89174 0)
(5.29174 -2.08186 -8.18932e-19)
(5.20196 -2.26875 -5.39305e-20)
(5.10434 -2.45213 -4.14626e-19)
(4.99907 -2.63179 2.52804e-20)
(4.88638 -2.80754 -8.18894e-19)
(4.76648 -2.97937 1.24784e-18)
(4.63988 -3.14708 -1.17941e-18)
(4.50682 -3.31152 4.00393e-19)
(4.36944 -3.47096 7.65428e-19)
(4.22629 -3.62862 0)
(5.563 -0.0894297 2.43985e-20)
(5.55774 -0.286167 0)
(5.54405 -0.482931 -1.00399e-19)
(5.52194 -0.67933 -2.06879e-19)
(5.49142 -0.874985 1.0024e-19)
(5.45256 -1.06953 8.0006e-19)
(5.40544 -1.2626 0)
(5.35013 -1.45384 -3.84806e-19)
(5.28673 -1.64293 -1.96661e-19)
(5.21537 -1.82952 -3.69151e-19)
(5.13615 -2.01333 -1.47136e-19)
(5.0492 -2.19405 -1.16458e-18)
(4.95469 -2.37145 -7.67802e-19)
(4.85272 -2.54531 7.89947e-19)
(4.7435 -2.7155 7.54603e-19)
(4.6271 -2.88205 -3.58755e-21)
(4.50404 -3.04491 2.50994e-20)
(4.37406 -3.20549 3.68394e-19)
(4.24041 -3.36184 -7.52109e-19)
(4.09903 -3.5202 0)
(5.40552 -0.0876383 -5.10228e-20)
(5.40006 -0.27785 2.51176e-20)
(5.3865 -0.468152 -1.00304e-19)
(5.36484 -0.658192 1.00263e-19)
(5.3351 -0.847612 -2.88268e-19)
(5.29731 -1.03606 -8.97186e-19)
(5.25156 -1.22321 0)
(5.19789 -1.4087 4.07353e-19)
(5.1364 -1.59223 -3.80529e-19)
(5.06718 -1.77349 8.05532e-19)
(4.99032 -1.95218 8.00165e-19)
(4.90592 -2.12803 1.17765e-18)
(4.81411 -2.3008 -7.63416e-19)
(4.71493 -2.47029 3.80091e-19)
(4.60855 -2.63636 -3.73029e-19)
(4.49479 -2.79904 3.73058e-19)
(4.37429 -2.9584 0)
(4.2455 -3.11613 3.36522e-19)
(4.1143 -3.27058 -3.28219e-19)
(3.97111 -3.43607 0)
(7.06977 7.19114 0)
(7.34716 6.90434 0)
(7.61191 6.60813 9.79725e-19)
(7.86472 6.30302 1.66131e-20)
(8.10502 5.98868 -1.04109e-18)
(8.33215 5.66516 0)
(8.54571 5.33283 1.07139e-18)
(8.74538 4.99222 -2.0131e-18)
(8.93083 4.64387 -1.01651e-18)
(9.10178 4.28839 -1.02528e-18)
(9.25794 3.92637 1.02527e-18)
(9.39909 3.55846 -1.0353e-18)
(9.52505 3.18529 5.16523e-19)
(9.63564 2.80754 4.90207e-19)
(9.73074 2.42587 4.91989e-19)
(9.81024 2.04096 -5.24632e-19)
(9.87403 1.65345 5.24632e-19)
(9.92219 1.26401 -2.63311e-19)
(9.95467 0.87302 -1.24424e-19)
(9.97197 0.481821 6.58757e-20)
(7.25622 6.91493 0)
(7.52968 6.63075 -8.8699e-19)
(7.78972 6.33551 -1.89981e-18)
(8.03672 6.02987 2.80615e-18)
(8.27048 5.71413 -1.94884e-18)
(8.49049 5.38865 1.95339e-18)
(8.69632 5.05401 1.06637e-18)
(8.88756 4.71082 -3.01382e-18)
(9.06387 4.35973 9.85186e-19)
(9.22487 4.00144 1.95313e-18)
(9.37022 3.63662 9.60142e-19)
(9.49969 3.26595 9.65829e-19)
(9.61307 2.8902 -1.02191e-18)
(9.71019 2.51012 1.50139e-18)
(9.79095 2.12646 -2.08998e-18)
(9.85524 1.73992 5.15013e-19)
(9.9029 1.35122 -4.93169e-19)
(9.93397 0.961143 0)
(9.94835 0.570234 1.46354e-20)
(9.94638 0.179433 0)
(7.06259 6.74581 -1.55306e-18)
(7.33598 6.47938 8.76841e-19)
(7.59718 6.20079 1.59195e-18)
(7.84584 5.91069 7.1423e-19)
(8.08161 5.60965 1.81235e-18)
(8.30399 5.2982 1.65003e-20)
(8.51251 4.97698 -9.07636e-19)
(8.7067 4.64663 -2.69717e-18)
(8.8862 4.30785 2.6588e-18)
(9.05064 3.96126 -2.73111e-18)
(9.19951 3.60755 -9.09066e-19)
(9.33258 3.24744 -1.81751e-18)
(9.44961 2.88176 0)
(9.55035 2.51125 0)
(9.63457 2.13668 0)
(9.70214 1.75876 -4.62451e-19)
(9.75301 1.3783 4.86127e-19)
(9.78713 0.996136 4.63844e-19)
(9.80435 0.612949 5.96911e-21)
(9.80461 0.229647 1.16461e-19)
(6.81008 6.47648 1.61619e-18)
(7.07827 6.22818 -1.45912e-18)
(7.33546 5.96754 -1.58841e-19)
(7.58103 5.69512 -1.59611e-19)
(7.81448 5.41151 3.78001e-18)
(8.03527 5.11724 -6.74245e-20)
(8.24293 4.81291 2.31839e-21)
(8.43698 4.49914 -2.38933e-18)
(8.6169 4.17654 1.5746e-18)
(8.78234 3.84571 0)
(8.93286 3.50738 8.46261e-19)
(9.06808 3.16238 8.51764e-19)
(9.18778 2.81142 0)
(9.29166 2.45521 0)
(9.37944 2.0945 0)
(9.45093 1.73012 0)
(9.50603 1.36284 -2.00587e-20)
(9.54463 0.993425 4.15034e-19)
(9.56661 0.622632 -1.98684e-19)
(9.57188 0.251325 0)
(6.5352 6.1595 1.35735e-18)
(6.79462 5.92822 0)
(7.0441 5.68487 -3.97634e-18)
(7.28292 5.4299 -1.35459e-18)
(7.5105 5.16381 -1.42675e-18)
(7.72632 4.88711 -1.51456e-18)
(7.92986 4.60034 7.14487e-19)
(8.12062 4.30407 -7.4879e-19)
(8.29811 3.99886 2.07205e-18)
(8.46187 3.68539 -6.76632e-19)
(8.61163 3.36432 0)
(8.74691 3.0364 0)
(8.86731 2.70222 0)
(8.97258 2.36247 0)
(9.06249 2.01793 -1.06768e-18)
(9.13678 1.66939 3.67744e-19)
(9.19527 1.31758 -3.89537e-19)
(9.23783 0.963262 0)
(9.26436 0.607189 1.95948e-19)
(9.2747 0.250183 0)
(6.25353 5.83594 1.14919e-18)
(6.50242 5.62015 -4.56307e-20)
(6.74223 5.39274 2.41827e-18)
(6.97228 5.15406 1.20584e-18)
(7.19195 4.90457 0)
(7.4007 4.64472 -1.2827e-18)
(7.59804 4.37501 6.24855e-20)
(7.78347 4.09597 -1.30001e-18)
(7.95651 3.80814 1.78788e-18)
(8.11671 3.51214 3.05599e-20)
(8.2637 3.20857 2.61279e-20)
(8.39711 2.89798 -6.45912e-19)
(8.5165 2.58103 1.26502e-18)
(8.62161 2.25845 0)
(8.71223 1.93086 6.30405e-20)
(8.78802 1.59906 6.45264e-19)
(8.84876 1.26377 1.34428e-21)
(8.89431 0.925689 -1.41235e-20)
(8.92455 0.585558 0)
(8.93932 0.244133 -3.99232e-20)
(5.98159 5.52313 0)
(6.21917 5.32098 -4.63498e-20)
(6.44839 5.10775 1.45453e-20)
(6.66859 4.88372 -2.17144e-18)
(6.87918 4.64929 0)
(7.07962 4.40488 1.09485e-18)
(7.26943 4.15095 1.16912e-18)
(7.44814 3.88798 -3.39443e-18)
(7.61528 3.61646 -6.22653e-20)
(7.77044 3.33693 -1.08508e-18)
(7.9132 3.04996 6.0069e-19)
(8.04321 2.75609 -5.516e-19)
(8.1601 2.45596 -6.09621e-19)
(8.26349 2.15019 0)
(8.3532 1.83945 3.22347e-19)
(8.42906 1.52428 -1.54093e-20)
(8.49069 1.20551 -2.97395e-19)
(8.53789 0.883806 -1.52872e-20)
(8.57059 0.559855 -7.48364e-20)
(8.58859 0.234359 1.50011e-19)
(5.72814 5.22993 0)
(5.95431 5.03962 9.32047e-19)
(6.17271 4.83878 1.34325e-20)
(6.3827 4.62766 -9.45454e-19)
(6.58371 4.40662 0)
(6.77524 4.17603 9.82421e-19)
(6.95684 3.93631 -9.35541e-19)
(7.12804 3.68789 -1.04045e-18)
(7.28841 3.43125 1.97116e-18)
(7.43754 3.16686 1.06782e-18)
(7.57506 2.89525 0)
(7.7006 2.61696 5.19414e-19)
(7.81382 2.33255 -3.65337e-21)
(7.91442 2.04262 2.00102e-20)
(8.00201 1.7478 0)
(8.0765 1.44866 -5.09284e-19)
(8.13775 1.14575 -2.67399e-19)
(8.18537 0.839848 3.90071e-19)
(8.21925 0.531612 2.63057e-19)
(8.23922 0.221687 -3.52932e-20)
(5.49607 4.96026 0)
(5.71119 4.78019 -7.97757e-19)
(5.919 4.59015 0)
(6.1189 4.39036 -8.62476e-19)
(6.31036 4.18112 1.69563e-18)
(6.49289 3.96279 -1.72862e-18)
(6.66608 3.73574 2.71083e-18)
(6.82948 3.50037 -2.7003e-18)
(6.9827 3.25711 -1.82419e-18)
(7.12534 3.00643 -1.34257e-18)
(7.25705 2.74881 4.61118e-19)
(7.37749 2.48475 -9.57097e-19)
(7.48633 2.21478 1.69825e-20)
(7.58327 1.93946 9.50116e-19)
(7.66806 1.65933 -2.38909e-19)
(7.74034 1.37508 9.79966e-19)
(7.80006 1.08713 -4.81263e-19)
(7.84707 0.796131 2.20531e-19)
(7.88111 0.502765 -1.26756e-19)
(7.90198 0.207647 0)
(5.28528 4.71455 0)
(5.48996 4.5434 1.5408e-18)
(5.68771 4.36281 7.4389e-19)
(5.87795 4.17299 -7.67867e-19)
(6.06018 3.9742 -1.57306e-18)
(6.23396 3.76674 2.39304e-18)
(6.39888 3.55096 9.47523e-21)
(6.55455 3.32725 -7.77297e-19)
(6.70059 3.09601 1.67613e-18)
(6.83663 2.85766 8.66707e-19)
(6.96235 2.61267 -8.05633e-19)
(7.0774 2.36151 4.23951e-19)
(7.1815 2.10468 2.02317e-20)
(7.27437 1.8427 -4.47202e-19)
(7.35573 1.57609 -2.16124e-19)
(7.42535 1.30541 4.33339e-19)
(7.483 1.03128 -2.17216e-19)
(7.52859 0.754143 -4.38398e-19)
(7.56199 0.474644 5.05639e-20)