/*--------------------------------*- C++ -*----------------------------------*\
  =========                 |
  \\      /  F ield         | OpenFOAM: The Open Source CFD Toolbox
   \\    /   O peration     | Website:  https://openfoam.org
    \\  /    A nd           | Version:  6.0
     \\/     M anipulation  |
\*---------------------------------------------------------------------------*/
FoamFile
{
    version     2.0;
    format      ascii;
    class       surfaceScalarField;
    location    "24.5";
    object      phi;
}
// * * * * * * * * * * * * * * * * * * * * * * * * * * * * * * * * * * * * * //

dimensions      [0 3 -1 0 0 0 0];

internalField   nonuniform List<scalar> 
4670
(
0.0102349
-0.696187
0.685952
0.028635
-0.702135
0.683735
0.0476579
-0.714588
0.695566
0.0649447
-0.707576
0.690289
0.0804629
-0.691606
0.676088
0.0948357
-0.673026
0.658653
0.108687
-0.655321
0.641469
0.122418
-0.639964
0.626233
0.136297
-0.627295
0.613415
-0.617829
0.60342
0.150706
0.0104513
-0.706638
0.0282815
-0.719966
0.0462857
-0.732593
0.0624167
-0.723707
0.0768134
-0.706003
0.090166
-0.686378
0.103078
-0.668233
0.115881
-0.652767
0.128788
-0.640202
-0.631153
0.142112
0.0103978
-0.717036
0.0274004
-0.736968
0.0441783
-0.749371
0.0589487
-0.738477
0.0720227
-0.719077
0.0841565
-0.698512
0.0959284
-0.680004
0.107591
-0.664429
0.119283
-0.651894
-0.643104
0.131234
0.0100638
-0.7271
0.0260234
-0.752928
0.0414136
-0.764761
0.0546847
-0.751748
0.0662836
-0.730676
0.0770187
-0.709247
0.0874789
-0.690465
0.0979214
-0.674872
0.108502
-0.662475
-0.65401
0.119408
0.00947631
-0.736576
0.0241839
-0.767635
0.0380622
-0.778639
0.0497562
-0.763442
0.0597941
-0.740714
0.068962
-0.718415
0.0778117
-0.699314
0.08667
-0.68373
0.0958976
-0.671703
-0.663989
0.105877
0.0086566
-0.745233
0.0219308
-0.780909
0.0341574
-0.790866
0.0441926
-0.773478
0.0526554
-0.749176
0.0602636
-0.726023
0.0674049
-0.706456
0.0743662
-0.690691
0.0818172
-0.679154
-0.672927
0.0907554
0.00769514
-0.752928
0.0194131
-0.792627
0.0298261
-0.801279
0.0379914
-0.781643
0.0446987
-0.755884
0.0507501
-0.732075
0.056429
-0.712135
0.0616929
-0.695955
0.0668637
-0.684325
-0.678548
0.0724848
0.00674351
-0.759671
0.0169487
-0.802833
0.0254922
-0.809822
0.0315358
-0.787686
0.0359774
-0.760325
0.0398684
-0.735966
0.0438924
-0.716159
0.0480229
-0.700086
0.051105
-0.687407
-0.676757
0.0493136
0.00597758
-0.765649
0.0148991
-0.811754
0.0217921
-0.816715
0.0258388
-0.791733
0.0277305
-0.762217
0.028262
-0.736497
0.0283144
-0.716211
0.0291179
-0.700889
0.0310757
-0.689365
-0.674846
0.0291651
0.00554814
-0.771197
0.0134628
-0.819669
0.0191451
-0.822397
0.0218806
-0.794469
0.0221083
-0.762445
0.0197974
-0.734186
0.0143177
-0.710731
0.00594471
-0.692516
0.000738226
-0.684158
-0.69966
0.0255517
0.821899
0.00677055
-0.82867
0.81513
0.00676918
0.808481
0.00664922
0.802089
0.00639187
0.796055
0.00603438
0.790444
0.00561041
0.785248
0.00519689
0.780397
0.00485026
0.775768
0.00462909
0.00457109
0.878304
0.011415
-0.882948
0.872842
0.0122312
0.866803
0.0126881
0.860387
0.0128076
0.85376
0.0126617
0.84706
0.0123105
0.840357
0.0118995
0.833655
0.0115525
0.826831
0.0114535
0.0117328
0.8573
0.0127435
-0.858629
0.855062
0.0144699
0.852086
0.0156636
0.848576
0.016318
0.844694
0.0165436
0.840583
0.0164212
0.836345
0.0161372
0.831986
0.0159114
0.827424
0.0160157
0.0167597
0.812086
0.0129638
-0.812307
0.811114
0.0154418
0.809507
0.0172714
0.807526
0.0182987
0.805296
0.0187731
0.803025
0.0186929
0.800795
0.0183671
0.798696
0.0180105
0.796699
0.0180125
0.01899
0.773825
0.0136159
-0.774477
0.772596
0.0166704
0.770802
0.0190656
0.768902
0.0201989
0.766872
0.0208026
0.765162
0.020403
0.763687
0.0198424
0.762784
0.0189133
0.762486
0.0183109
0.0190308
0.744915
0.0151612
-0.746461
0.742962
0.0186237
0.740351
0.0216769
0.737958
0.022592
0.735309
0.0234511
0.733538
0.0221741
0.731977
0.0214034
0.73173
0.0191602
0.732287
0.017754
0.0171314
0.721965
0.0175851
-0.724389
0.719358
0.0212307
0.71582
0.0252146
0.712962
0.0254506
0.709243
0.0271694
0.70728
0.0241369
0.704925
0.0237586
0.705836
0.0182492
0.706415
0.0171747
0.0128156
0.702189
0.0207954
-0.705399
0.699147
0.0242718
0.694765
0.0295972
0.691779
0.0284367
0.686713
0.0322353
0.684624
0.0262259
0.680169
0.0282137
0.683495
0.0149234
0.683931
0.0167383
0.0042304
0.684237
0.024837
-0.688279
0.680917
0.0275926
0.675823
0.0346901
0.67311
0.0311506
0.666829
0.0385155
0.664742
0.0283135
0.656729
0.0362262
0.661508
0.0101442
0.664129
0.0141172
-0.0157984
0.667961
-0.673155
0.0300309
0.66429
0.0312632
0.658619
0.0403614
0.656324
0.0334453
0.649453
0.0453868
0.647357
0.030409
0.636105
0.0474782
0.6361
0.0101495
0.638723
0.0114946
-0.0767355
0.853063
-0.00239499
-0.850668
0.854638
-0.00157469
0.855134
-0.000496351
0.854424
0.000710385
0.852478
0.00194566
0.849385
0.00309315
0.84527
0.00411539
0.840314
0.00495551
0.834701
0.00561343
0.00603069
0.864368
-0.0118475
-0.854916
0.872537
-0.0097433
0.879265
-0.00722507
0.884395
-0.00441927
0.887863
-0.00152221
0.889716
0.0012401
0.890034
0.00379773
0.888931
0.00605781
0.88652
0.00802437
0.00960294
0.811401
-0.0242619
-0.798986
0.822634
-0.0209766
0.832419
-0.0170107
0.840607
-0.0126065
0.847197
-0.00811264
0.852263
-0.00382595
0.855867
0.00019365
0.858071
0.0038541
0.858956
0.00713965
0.00992978
0.759901
-0.0371561
-0.747007
0.771627
-0.032703
0.781792
-0.0271757
0.790294
-0.021108
0.797258
-0.0150765
0.802818
-0.00938674
0.807013
-0.00400056
0.809929
0.000937826
0.811639
0.00542974
0.00926181
0.727786
-0.050005
-0.714937
0.739205
-0.0441226
0.748701
-0.0366714
0.756407
-0.0288137
0.762614
-0.0212831
0.76745
-0.014223
0.770911
-0.00746155
0.773165
-0.00131635
0.774273
0.00432166
0.0090582
0.707118
-0.0632839
-0.693839
0.718256
-0.0552606
0.726843
-0.0452582
0.733643
-0.0356144
0.739042
-0.0266817
0.743003
-0.0181845
0.745508
-0.00996655
0.746858
-0.00266639
0.747064
0.00411615
0.00966122
0.69127
-0.0776524
-0.676902
0.70222
-0.0662104
0.709805
-0.0528433
0.715917
-0.0417267
0.720736
-0.0315008
0.723939
-0.0213877
0.725626
-0.011653
0.726242
-0.0032827
0.725679
0.00467966
0.0109512
0.677485
-0.0925976
-0.662539
0.688093
-0.0768186
0.694814
-0.0595647
0.700468
-0.0473806
0.704707
-0.0357394
0.707179
-0.0238594
0.708236
-0.0127102
0.70835
-0.00339664
0.707201
0.00582864
0.012753
0.665379
-0.103408
-0.654568
0.674687
-0.0861269
0.682098
-0.0669756
0.687272
-0.0525545
0.690312
-0.0387802
0.691915
-0.0254622
0.692474
-0.0132687
0.692227
-0.00314994
0.690556
0.0074994
0.0150304
0.655677
-0.663982
-0.0951033
0.656885
-0.087335
0.673217
-0.0833078
0.677862
-0.057199
0.678101
-0.0390189
0.678613
-0.0259749
0.678888
-0.0135439
0.678357
-0.00261875
0.676148
0.00970833
0.0180242
0.100359
0.549276
-0.544253
-0.105381
0.09331
0.558594
-0.551545
0.0846037
0.566646
-0.557939
0.0744009
0.574395
-0.564192
0.0628003
0.583199
-0.571599
0.0498105
0.595971
-0.582981
0.0354187
0.619892
-0.6055
0.0200514
0.668809
-0.653442
0.0061908
0.743937
-0.730076
0.804351
-0.79816
0.10177
0.556183
-0.108677
0.0936292
0.566734
0.0842395
0.576035
0.0736838
0.58495
0.0619528
0.59493
0.0489754
0.608949
0.0346879
0.634179
0.0195269
0.68397
0.00600953
0.757454
0.81036
0.0978186
0.561726
-0.103362
0.0908449
0.573708
0.0823886
0.584491
0.0724281
0.594911
0.061022
0.606336
0.0482145
0.621756
0.0340523
0.648342
0.0190661
0.698956
0.00581732
0.770703
0.816178
0.102958
0.570564
-0.111796
0.0936226
0.583044
0.0835459
0.594568
0.0726347
0.605822
0.0607346
0.618236
0.0477203
0.63477
0.0335309
0.662531
0.0186611
0.713826
0.00564789
0.783716
0.821825
0.0980734
0.575724
-0.103234
0.0910184
0.590099
0.0823471
0.60324
0.0720229
0.616146
0.0602568
0.630003
0.047223
0.647804
0.0330281
0.676726
0.0182601
0.728594
0.00547772
0.796499
0.827303
0.105432
0.585505
-0.115213
0.0950342
0.600496
0.0840219
0.614252
0.0723829
0.627785
0.0599999
0.642386
0.0467264
0.661078
0.0324894
0.690963
0.0178408
0.743243
0.0053048
0.809035
0.832608
0.100055
0.588618
-0.103167
0.0927662
0.607784
0.0830937
0.623924
0.0718003
0.639079
0.0594104
0.654776
0.0460553
0.674433
0.031806
0.705212
0.0173019
0.757747
0.00506711
0.82127
0.837675
0.111582
0.601049
-0.124012
0.0974079
0.621958
0.0839111
0.637421
0.0712699
0.65172
0.058498
0.667547
0.0450353
0.687896
0.0308511
0.719397
0.0166115
0.771986
0.00476761
0.833113
0.842443
0.109376
0.612479
-0.120807
0.0947406
0.636594
0.0823715
0.64979
0.0701437
0.663948
0.0571446
0.680546
0.0435191
0.701521
0.0294744
0.733441
0.015636
0.785825
0.00435129
0.844398
0.846794
0.111504
-0.163006
0.0935299
0.0807806
0.0678269
0.0545344
0.0411185
0.0275533
0.0143917
0.00387422
0.150088
0.451892
-0.456403
-0.145576
0.131703
0.454684
-0.436299
0.111338
0.451078
-0.430713
0.0922415
0.448151
-0.429055
0.0746792
0.447189
-0.429627
0.0580914
0.450281
-0.433693
0.0419197
0.464341
-0.448169
0.025688
0.505316
-0.489085
0.00993471
0.59029
-0.574536
0.721492
-0.711558
0.138189
0.467675
-0.153972
0.123862
0.469012
0.108714
0.466225
0.0927042
0.464161
0.076297
0.463596
0.0597465
0.466831
0.0430976
0.48099
0.0262501
0.522164
0.01006
0.60648
0.731552
0.131816
0.48568
-0.149821
0.118522
0.482305
0.104988
0.479759
0.090683
0.478466
0.0755487
0.47873
0.0596807
0.482699
0.0431999
0.497471
0.0262062
0.539158
0.00987117
0.622815
0.741423
0.128163
0.497441
-0.139924
0.115911
0.494558
0.102732
0.492938
0.0888437
0.492355
0.0742433
0.493331
0.0588536
0.498089
0.0426467
0.513678
0.0257238
0.556081
0.00948577
0.639053
0.750909
0.124277
0.506081
-0.132917
0.113108
0.505727
0.100593
0.505453
0.0871453
0.505802
0.0728957
0.50758
0.057807
0.513178
0.0418143
0.52967
0.0250204
0.572875
0.00901085
0.655062
0.75992
0.120038
0.514384
-0.12834
0.10967
0.516095
0.0979805
0.517142
0.085203
0.51858
0.0714339
0.521349
0.0566731
0.527938
0.040891
0.545453
0.0242528
0.589513
0.00852542
0.67079
0.768446
0.115256
0.522627
-0.123499
0.105676
0.525674
0.0947914
0.528027
0.0827461
0.530625
0.0695884
0.534507
0.055295
0.542232
0.0398342
0.560913
0.0234317
0.605915
0.00804564
0.686176
0.776491
0.11208
0.530737
-0.12019
0.102799
0.534955
0.0922836
0.538543
0.0806303
0.542278
0.0678598
0.547278
0.0539221
0.556169
0.0387581
0.576077
0.0226215
0.622052
0.00759708
0.7012
0.784088
0.107282
0.537663
-0.114209
0.0989618
0.543275
0.089232
0.548273
0.0782193
0.553291
0.065979
0.559518
0.0524744
0.569674
0.0376528
0.590899
0.0218185
0.637886
0.0071896
0.715829
0.791278
0.105512
-0.112102
0.0972422
0.0875755
0.0766745
0.064594
0.0512865
0.0366853
0.0211296
0.00688207
-0.400625
0.151083
-0.206861
-0.388684
0.109698
-0.12164
-0.380928
0.100609
-0.108366
-0.379594
0.0639056
-0.0652389
-0.377796
0.051065
-0.0528628
-0.379018
0.026353
-0.0251312
-0.381255
0.0111506
-0.00891431
-0.386097
-0.00824917
0.0130912
-0.392518
-0.0232596
0.0296807
-0.0380646
-0.400744
0.0462904
-0.408963
0.123747
-0.39641
0.0971449
-0.384124
0.088324
-0.38137
0.061152
-0.378529
0.0482237
-0.37952
0.0273437
-0.381594
0.0132251
-0.3863
-0.00354378
-0.392546
-0.017013
-0.0301352
-0.400476
-0.409994
0.103028
-0.399237
0.0863885
-0.387013
0.0761
-0.382759
0.0568971
-0.379235
0.0446999
-0.379698
0.0278071
-0.38158
0.0151076
-0.386061
0.000936317
-0.392178
-0.0108953
-0.0223244
-0.399989
-0.411562
0.0855354
-0.40023
0.0750562
-0.389213
0.0650834
-0.383747
0.0514312
-0.37969
0.0406428
-0.379362
0.0274789
-0.380833
0.0165786
-0.384893
0.00499657
-0.39074
-0.00504898
-0.0146942
-0.39837
-0.413884
0.0697926
-0.401597
0.0627696
-0.391147
0.0546334
-0.384653
0.0449369
-0.380097
0.0360864
-0.378833
0.0262156
-0.379666
0.0174117
-0.383052
0.00838255
-0.388378
0.000276925
-0.0074786
-0.395594
-0.418729
0.054829
-0.405975
0.0500155
-0.395477
0.0441351
-0.388021
0.0374811
-0.382809
0.0308743
-0.380469
0.0238759
-0.380372
0.0173144
-0.382727
0.010738
-0.387118
0.00466775
-0.00113405
-0.393463
-0.433423
0.0400823
-0.420413
0.0370055
-0.409512
0.0332343
-0.401058
0.0290277
-0.394854
0.0246703
-0.39114
0.0201617
-0.389631
0.0158054
-0.39039
0.0114965
-0.393161
0.00743854
0.00356044
-0.397855
-0.474107
0.0251048
-0.460573
0.0234712
-0.448821
0.0214828
-0.439052
0.0192581
-0.431289
0.0169071
-0.42562
0.0144935
-0.421937
0.0121223
-0.420235
0.00979421
-0.420369
0.00757253
0.00544565
-0.422254
-0.559607
0.0101759
-0.545781
0.00964482
-0.533296
0.00899753
-0.522322
0.00828409
-0.512915
0.00750008
-0.505118
0.00669655
-0.49889
0.00589428
-0.494208
0.0051128
-0.490993
0.00435662
0.003597
-0.489144
-0.701382
-0.691737
-0.682739
-0.674455
-0.666955
-0.660259
-0.654364
-0.649252
-0.644895
-0.641298
-0.409765
-0.0498465
0.0588685
-0.419454
-0.0604622
0.0701512
-0.429677
-0.0694154
0.0796382
-0.440329
-0.0768117
0.0874639
-0.451322
-0.0824448
0.0934376
-0.462827
-0.0858264
0.0973316
-0.473698
-0.08746
0.0983307
-0.479775
-0.0880727
0.0941494
-0.48722
-0.0858519
0.093297
-0.0797795
-0.503213
0.0957726
-0.409381
-0.0409416
-0.419102
-0.0507408
-0.429434
-0.0590834
-0.440229
-0.0660165
-0.451288
-0.0713856
-0.462161
-0.0749537
-0.472284
-0.0773372
-0.481466
-0.0788907
-0.48965
-0.0776675
-0.0746206
-0.494809
-0.408967
-0.0319635
-0.418915
-0.0407927
-0.42961
-0.0483885
-0.440846
-0.0547808
-0.452346
-0.0598853
-0.463607
-0.0636926
-0.4744
-0.0665441
-0.484943
-0.0683476
-0.494013
-0.0685978
-0.0692424
-0.499391
-0.407354
-0.0229789
-0.41748
-0.0306671
-0.428501
-0.037368
-0.440167
-0.043114
-0.452176
-0.0478765
-0.464151
-0.0517182
-0.475954
-0.0547402
-0.487462
-0.0568398
-0.497682
-0.0583781
-0.0610018
-0.505923
-0.404343
-0.0142295
-0.414413
-0.0205972
-0.425544
-0.0262368
-0.437476
-0.0311828
-0.44992
-0.0354325
-0.462604
-0.0390341
-0.475347
-0.041997
-0.487821
-0.0443655
-0.499504
-0.0466952
-0.0499804
-0.510525
-0.401486
-0.00620672
-0.410988
-0.0110948
-0.421725
-0.0154996
-0.433459
-0.0194494
-0.445943
-0.0229487
-0.458956
-0.0260207
-0.472275
-0.028678
-0.485582
-0.0310586
-0.498672
-0.0336046
-0.0368179
-0.511835
-0.404295
0.000233013
-0.412301
-0.00308889
-0.421677
-0.00612343
-0.432237
-0.00888887
-0.443792
-0.0113935
-0.456162
-0.0136514
-0.469139
-0.0157004
-0.482509
-0.0176885
-0.496215
-0.0198987
-0.0225626
-0.510471
-0.425814
0.00379297
-0.430878
0.00197513
-0.437325
0.00032383
-0.44504
-0.00117476
-0.453895
-0.00253802
-0.463768
-0.00377805
-0.474525
-0.00494384
-0.486067
-0.00614621
-0.498408
-0.00755786
-0.00929262
-0.511678
-0.488585
0.00323415
-0.489241
0.00263066
-0.491024
0.00210743
-0.493876
0.00167718
-0.497716
0.00130145
-0.502479
0.000985711
-0.508118
0.000694756
-0.514643
0.000379135
-0.522145
-5.62388e-05
-0.000716456
-0.530721
-0.638064
-0.635433
-0.633326
-0.631649
-0.630347
-0.629361
-0.628667
-0.628288
-0.628344
-0.62906
0.000952093
-0.630012
0.0107402
-0.540509
0.0251815
-0.526119
0.0403201
-0.525609
0.0541592
-0.525674
0.0658013
-0.522168
0.0748281
-0.514949
0.0809747
-0.505538
0.0824411
-0.496276
-0.487792
0.06702
0.00186879
-0.631881
0.0130342
-0.551675
0.0286488
-0.541734
0.0447407
-0.541701
0.0594537
-0.540387
0.0722486
-0.534962
0.0833986
-0.526099
0.0934544
-0.515594
0.101832
-0.504653
-0.493843
0.107883
0.00291284
-0.634794
0.0155239
-0.564286
0.0323433
-0.558553
0.049427
-0.558785
0.0651095
-0.556069
0.0789902
-0.548843
0.091121
-0.53823
0.101404
-0.525877
0.109852
-0.513101
-0.501762
0.117771
0.00401403
-0.638808
0.0180823
-0.578354
0.036037
-0.576508
0.0540209
-0.576769
0.0705734
-0.572622
0.0854962
-0.563766
0.0991759
-0.55191
0.112353
-0.539054
0.126029
-0.526777
-0.516541
0.140809
0.00518751
-0.643996
0.0206119
-0.593778
0.0395424
-0.595438
0.0582332
-0.59546
0.0753948
-0.589783
0.0909267
-0.579298
0.105208
-0.566191
0.118724
-0.55257
0.131825
-0.539879
-0.529078
0.144362
0.00635859
-0.650354
0.0229819
-0.610402
0.0426664
-0.615123
0.0618315
-0.614625
0.0793986
-0.60735
0.095439
-0.595338
0.110471
-0.581223
0.125088
-0.567187
0.139722
-0.554513
-0.54385
0.154494
0.00749021
-0.657844
0.0250849
-0.627997
0.0452488
-0.635287
0.0646073
-0.633983
0.0822863
-0.625029
0.0984647
-0.611517
0.113645
-0.596404
0.128264
-0.581806
0.142505
-0.568754
-0.557587
0.156243
0.00852083
-0.666365
0.02682
-0.646296
0.0471639
-0.655631
0.0664291
-0.653249
0.0839737
-0.642574
0.100128
-0.627671
0.11548
-0.611756
0.130525
-0.596851
0.14555
-0.583779
-0.572841
0.160804
0.00941894
-0.675784
0.0281172
-0.664994
0.0483169
-0.67583
0.0671783
-0.67211
0.084281
-0.659677
0.100068
-0.643458
0.115151
-0.626839
0.129991
-0.611691
0.144836
-0.598624
-0.587893
0.159888
0.0101678
0.028909
0.0486442
0.066823
0.0832341
0.0984295
0.113059
0.127602
0.142393
0.15792
0.100872
-2.98913
3.03896
0.0782213
-2.70066
2.72331
0.0688306
-2.34677
2.35616
0.0531311
-2.09155
2.10725
0.0432242
-1.79057
1.80048
0.0386079
-1.38876
1.39337
0.0313769
-0.99418
1.00141
0.0258682
-0.673052
0.678561
0.0222377
-0.443822
0.447453
0.0200567
-0.289622
0.291803
0.0188901
-0.192567
0.193734
0.0185385
-0.135183
0.135535
0.018737
-0.102618
0.10242
0.0191383
-0.0820843
0.081683
0.0194874
-0.0670191
0.06667
0.0196342
-0.0520314
0.0518847
0.0193928
-0.0349638
0.0352052
0.0187192
-0.012528
0.0132015
0.0150709
0.03819
-0.0345416
0.0736657
-0.0702213
0.0865313
-2.93355
0.0548523
-2.66898
0.0436404
-2.33556
0.0325811
-2.08049
0.0264143
-1.78441
0.0259123
-1.38825
0.0228051
-0.991073
0.0199554
-0.670202
0.0181062
-0.441973
0.0170051
-0.288521
0.0164231
-0.191985
0.0163596
-0.13512
0.0166776
-0.102937
0.0171055
-0.0825122
0.0174319
-0.0673456
0.0175323
-0.0521318
0.0172581
-0.0346897
0.0165204
-0.0117903
0.012751
0.0419594
0.0771688
0.0696725
-2.87198
0.0319438
-2.63126
0.0191582
-2.32278
0.0123255
-2.07366
0.0103764
-1.78246
0.0136985
-1.39158
0.0144789
-0.991853
0.0142241
-0.669947
0.0141028
-0.441852
0.0140558
-0.288474
0.0140385
-0.191968
0.0142466
-0.135328
0.0146757
-0.103366
0.0151297
-0.0829661
0.0154396
-0.0676555
0.0155042
-0.0521965
0.0152124
-0.0343979
0.0144259
-0.0110038
0.0105891
0.0457962
0.0806776
0.0540307
-2.80661
0.01477
-2.59199
0.000416344
-2.30842
-0.00492748
-2.06831
-0.00418681
-1.7832
0.0020526
-1.39782
0.0063423
-0.996143
0.00863894
-0.672244
0.0102162
-0.443429
0.0112096
-0.289467
0.0117443
-0.192503
0.0122112
-0.135795
0.012744
-0.103899
0.0132238
-0.0834458
0.0135228
-0.0679545
0.0135611
-0.0522348
0.0132646
-0.0341014
0.0124431
-0.0101823
0.00860067
0.0496386
0.0841295
0.0410548
-2.74178
0.00522777
-2.55617
-0.0130493
-2.29015
-0.0204846
-2.06088
-0.0187336
-1.78495
-0.00983163
-1.40672
-0.00186985
-1.0041
0.00313107
-0.677245
0.00642905
-0.446727
0.00846437
-0.291502
0.00954642
-0.193585
0.0102629
-0.136511
0.0108938
-0.104529
0.0113994
-0.0839514
0.0116925
-0.0682476
0.0117126
-0.0522548
0.0114223
-0.0338111
0.0105783
-0.00933831
0.00679972
0.0534172
0.0874534
0.0324711
-2.6835
-0.00675137
-2.51694
-0.0327062
-2.26419
-0.0423283
-2.05125
-0.0379953
-1.78928
-0.0239225
-1.42079
-0.010672
-1.01736
-0.00240526
-0.685512
0.00271467
-0.451847
0.00581293
-0.294601
0.00744755
-0.195219
0.00840938
-0.137473
0.00913456
-0.105255
0.0096666
-0.0844835
0.00995841
-0.0685395
0.00996694
-0.0522633
0.00969153
-0.0335357
0.0088361
-0.00848288
0.0051981
0.0570552
0.0905722
-0.0001456
-2.61087
-0.0551409
-2.46195
-0.0788364
-2.24049
-0.0804693
-2.04962
-0.0659189
-1.80383
-0.0413884
-1.44532
-0.0203414
-1.0384
-0.00804271
-0.69781
-0.000959634
-0.45893
0.00324081
-0.298801
0.00544583
-0.197424
0.00665546
-0.138683
0.00747397
-0.106073
0.00803371
-0.0850432
0.00832825
-0.068834
0.00833075
-0.0522659
0.0080768
-0.0332817
0.00721939
-0.00762547
0.00380656
0.060468
0.0934039
-0.0786258
-2.48293
-0.131568
-2.40901
-0.137235
-2.23483
-0.123743
-2.06311
-0.0947253
-1.83285
-0.0585626
-1.48148
-0.0298794
-1.06709
-0.0136102
-0.714079
-0.00457999
-0.46796
0.000739874
-0.304121
0.00353809
-0.200223
0.0050039
-0.140148
0.00591764
-0.106987
0.00650717
-0.0856327
0.00680803
-0.0691349
0.00680871
-0.0522665
0.00658065
-0.0330536
0.00572899
-0.00677381
0.00263692
0.0635601
0.095856
-0.0940871
-2.35968
-0.130842
-2.37225
-0.140981
-2.22469
-0.130639
-2.07345
-0.102176
-1.86131
-0.0665384
-1.51712
-0.0367849
-1.09684
-0.0185079
-0.732356
-0.00797004
-0.478498
-0.00163708
-0.310454
0.00174293
-0.203603
0.00346468
-0.14187
0.00447299
-0.107995
0.00509333
-0.0862531
0.00540303
-0.0694446
0.00540458
-0.0522681
0.00520454
-0.0328536
0.004364
-0.00593326
0.00177547
0.0661486
0.0978906
0.264364
-2.59849
0.133049
-2.24094
0.0291274
-2.12077
-0.0242997
-2.02003
-0.052899
-1.83271
-0.0554394
-1.51458
-0.0388654
-1.11341
-0.0220462
-0.749176
-0.0108367
-0.489708
-0.00377013
-0.317521
0.000111812
-0.207485
0.00206157
-0.14382
0.00315239
-0.109086
0.00380129
-0.086902
0.00412009
-0.0697634
0.00412416
-0.0522721
0.00395027
-0.0326797
0.00312769
-0.00511069
0.000942831
0.0683335
0.0994792
0.757963
-2.0743
-1.28215
0.606069
-2.08904
0.653243
-2.16794
0.534606
-1.90139
0.360504
-1.65861
0.213974
-1.36805
0.125618
-1.02506
0.0752232
-0.698781
0.0450073
-0.459492
0.0289556
-0.301469
0.0203404
-0.198869
0.0154457
-0.138925
0.0125728
-0.106213
0.0105519
-0.0848811
0.00872742
-0.0679389
0.00686192
-0.0504066
0.00510687
-0.0309247
0.00239979
-0.00240361
-0.000919625
0.0716529
0.100563
1.09686
-1.73765
-1.43352
0.891027
-1.88321
0.63846
-1.91537
0.487544
-1.75047
0.347522
-1.51859
0.225845
-1.24637
0.137111
-0.936323
0.0837539
-0.645424
0.0515352
-0.427273
0.032832
-0.282766
0.0222502
-0.188287
0.0159055
-0.13258
0.0119111
-0.102219
0.00899593
-0.081966
0.0064001
-0.065343
0.00389708
-0.0479036
0.00169136
-0.028719
-0.00140329
0.000691043
-0.00378219
0.0740318
0.100144
1.3132
-1.38754
-1.66331
1.00386
-1.57386
0.765125
-1.67664
0.60931
-1.59466
0.450532
-1.35981
0.290165
-1.08601
0.167971
-0.814129
0.0982082
-0.575661
0.0595884
-0.388653
0.0368547
-0.260032
0.0238037
-0.175236
0.0157938
-0.124571
0.0104503
-0.0968752
0.00641383
-0.0779295
0.00286149
-0.0617907
-0.000392247
-0.0446499
-0.00308489
-0.0260263
-0.0064838
0.00408996
-0.00740727
0.0749553
0.0976569
1.42792
-1.04051
-1.77495
1.14346
-1.28941
0.875391
-1.40857
0.636961
-1.35623
0.45773
-1.18058
0.300367
-0.928643
0.178585
-0.692347
0.107061
-0.504137
0.067071
-0.348663
0.041102
-0.234063
0.0250609
-0.159195
0.0150032
-0.114513
0.00800297
-0.0898749
0.00258015
-0.0725067
-0.00212054
-0.05709
-0.00621004
-0.0405604
-0.00940097
-0.0228354
-0.0128735
0.00756251
-0.0117692
0.073851
0.0925691
1.56048
-0.800268
-1.80072
1.2665
-0.995431
0.960831
-1.10289
0.741897
-1.1373
0.557177
-0.995861
0.365009
-0.736475
0.212404
-0.539742
0.123756
-0.41549
0.0763192
-0.301226
0.0457295
-0.203473
0.0259791
-0.139445
0.0133944
-0.101928
0.00438827
-0.0808689
-0.00270227
-0.0654162
-0.00872141
-0.0510709
-0.0136835
-0.0355983
-0.0173323
-0.0191865
-0.020498
0.0107282
-0.0167826
0.0701356
0.0844516
1.62405
-0.586476
-1.83784
1.31141
-0.682786
1.03321
-0.824694
0.758111
-0.862201
0.477125
-0.714876
0.290783
-0.550133
0.193343
-0.442302
0.131739
-0.353886
0.0846866
-0.254174
0.0498001
-0.168587
0.026213
-0.115858
0.0107738
-0.0864889
-0.000547834
-0.0695473
-0.00955601
-0.056408
-0.0170058
-0.0436211
-0.0228104
-0.0297937
-0.0268035
-0.0151934
-0.0291277
0.0130524
-0.0222752
0.063283
0.0730757
1.53193
-0.376128
-1.74228
1.28672
-0.43758
1.01435
-0.552319
0.712992
-0.560846
0.499291
-0.501175
0.382587
-0.433429
0.277549
-0.337263
0.172499
-0.248836
0.0966152
-0.17829
0.0521075
-0.124079
0.0250928
-0.0888432
0.00692935
-0.0683254
-0.00688401
-0.0557339
-0.0179725
-0.0453195
-0.0268757
-0.0347179
-0.0334246
-0.0232448
-0.0375634
-0.0110546
-0.0383946
0.0138835
-0.028018
0.0529065
0.0584868
1.33929
-0.213929
-1.50149
1.15219
-0.250482
0.899885
-0.300012
0.658786
-0.319747
0.483772
-0.32616
0.335797
-0.285455
0.215716
-0.217182
0.131261
-0.164381
0.0796456
-0.126675
0.0469949
-0.0914284
0.0220262
-0.0638745
0.00185343
-0.0481526
-0.0145403
-0.0393401
-0.0277587
-0.0321011
-0.038044
-0.0244326
-0.0452005
-0.0160883
-0.0492186
-0.00703653
-0.047873
0.0125379
-0.0337959
0.0388293
0.0409986
1.13408
-0.0976177
-1.25039
0.990201
-0.106602
0.822662
-0.132473
0.663773
-0.160859
0.50828
-0.170666
0.367921
-0.145096
0.259744
-0.109004
0.173932
-0.078569
0.105154
-0.0578967
0.0552332
-0.0415079
0.0208112
-0.0294526
-0.00400919
-0.0233322
-0.0232414
-0.0201079
-0.0384786
-0.0168639
-0.0500241
-0.0128872
-0.0577008
-0.00841156
-0.0613341
-0.00340331
-0.0572403
0.00844414
-0.0395072
0.0210963
0.0210616
1.04331
-1.14093
0.93671
0.804237
0.643378
0.472711
0.327615
0.218611
0.140042
0.0821452
0.0406373
0.0111847
-0.0121475
-0.0322554
-0.0491193
-0.0620065
-0.0704181
-0.0738214
-0.0653772
-0.0442809
1.5034
0.00374487
-1.47711
1.52426
0.0104011
1.53497
0.0296534
1.54164
0.0267719
1.53591
0.0511158
1.52452
0.0418046
1.49258
0.0794161
1.44777
0.0549587
1.36721
0.0920493
0.00832613
1.60938
-0.0153485
-1.59029
1.62106
-0.00128012
1.62898
0.0217366
1.62519
0.0305644
1.61696
0.0593414
1.59059
0.0681755
1.5646
0.105405
1.5218
0.0977631
1.49918
0.114669
0.0739848
1.67844
-0.0204272
-1.67336
1.68048
-0.00332306
1.68174
0.0204772
1.67701
0.0353002
1.67455
0.061798
1.67065
0.0720769
1.67934
0.0967162
1.68554
0.0915611
1.69561
0.104595
0.106293
1.67304
-0.0201959
-1.67327
1.67487
-0.0051542
1.6827
0.0126531
1.69329
0.0247056
1.71349
0.0415961
1.73544
0.0501336
1.76184
0.0703167
1.77247
0.0809249
1.77392
0.103145
0.10526
1.69578
-0.0233008
-1.69267
1.70292
-0.0122986
1.71596
-0.000377967
1.73005
0.0106105
1.74572
0.0259283
1.75483
0.0410246
1.76345
0.0616954
1.76955
0.0748227
1.78544
0.0872539
0.0899838
1.71022
-0.0252374
-1.70828
1.71366
-0.0157369
1.71824
-0.0049632
1.72219
0.00665896
1.72836
0.0197568
1.73813
0.0312632
1.75762
0.0421969
1.78324
0.0492083
1.81289
0.0575989
0.065034
1.58987
-0.0218287
-1.59328
1.58895
-0.0148186
1.59168
-0.00769533
1.59927
-0.000922796
1.6135
0.00552636
1.63355
0.0112051
1.65844
0.017309
1.68444
0.0232154
1.71167
0.030365
0.0344286
1.4105
-0.0160935
-1.41624
1.40813
-0.0124427
1.4093
-0.0088693
1.41378
-0.00540124
1.42125
-0.00194498
1.43101
0.00145005
1.44344
0.0048735
1.45883
0.00782874
1.4785
0.0106958
0.0114379
1.22371
-0.00802749
-1.23178
1.21782
-0.00654711
1.21407
-0.00512034
1.21246
-0.00378677
1.21309
-0.00257985
1.21608
-0.00153543
1.22161
-0.00066153
1.22942
1.54025e-05
1.23952
0.000604945
0.000561428
1.15998
-1.16801
1.15343
1.14831
1.14452
1.14195
1.14041
1.13975
1.13976
1.14037
1.17476
0.339551
-1.60941
1.23761
-0.15018
1.30599
-0.151689
1.32384
-0.0750518
1.33824
-0.0534191
1.3619
-0.0496368
1.3891
-0.0407401
1.41744
-0.0309595
1.44641
-0.0192641
-0.0126769
1.38498
0.217073
-1.26251
1.4195
-0.184695
1.4462
-0.178393
1.47175
-0.100595
1.4837
-0.0653719
1.50009
-0.0660266
1.52245
-0.0631021
1.54596
-0.054471
1.56937
-0.0426744
-0.0335903
1.5485
0.214896
-1.54632
1.59476
-0.230955
1.60842
-0.192054
1.61656
-0.108732
1.62449
-0.0733005
1.63264
-0.074184
1.64391
-0.074369
1.65618
-0.0667438
1.66676
-0.0532518
-0.0401928
1.68584
0.206836
-1.67778
1.68384
-0.228959
1.68155
-0.18976
1.68042
-0.107603
1.6786
-0.0714786
1.6765
-0.07208
1.6762
-0.0740782
1.67638
-0.0669176
1.67577
-0.0526476
-0.0376911
1.79303
0.191308
-1.7775
1.75679
-0.192715
1.73251
-0.165479
1.72671
-0.101805
1.72173
-0.0664936
1.71288
-0.0632309
1.70434
-0.0655463
1.69798
-0.0605536
1.69426
-0.0489278
-0.0361054
1.85541
0.14384
-1.80794
1.80558
-0.142886
1.76613
-0.126026
1.75036
-0.0860321
1.7443
-0.0604334
1.7352
-0.054133
1.72384
-0.0541851
1.71456
-0.0512811
1.70958
-0.043944
-0.0348066
1.76373
0.0879724
-1.70786
1.71172
-0.090873
1.66953
-0.0838328
1.6489
-0.0654093
1.6401
-0.0516317
1.63131
-0.045342
1.61987
-0.0427473
1.60838
-0.0397902
1.59938
-0.0349379
-0.0287109
1.589
0.0338059
-1.53484
1.54786
-0.0497232
1.51288
-0.0488556
1.49078
-0.0433087
1.4764
-0.0372543
1.46369
-0.0326334
1.45026
-0.0293142
1.43687
-0.0263987
1.42518
-0.0232521
-0.0197687
1.3976
0.00119435
-1.36499
1.36919
-0.0213139
1.34199
-0.0216523
1.31908
-0.0204067
1.30007
-0.0182385
1.28343
-0.0159981
1.2682
-0.0140837
1.25428
-0.0124741
1.24202
-0.0109966
-0.00952629
1.3127
-1.3115
1.29138
1.26973
1.24932
1.23109
1.21509
1.201
1.18853
1.17753
0.135893
0.0911036
-0.096881
0.16074
0.268897
-0.293745
0.221298
0.509213
-0.56977
0.29468
0.822562
-0.895944
0.3696
1.09802
-1.17294
0.45323
1.34494
-1.42857
0.57385
1.57587
-1.69649
0.719155
1.8405
-1.98581
0.955291
1.91154
-2.14767
1.76862
-2.42274
0.159507
0.0833691
0.184017
0.244387
0.250804
0.442426
0.341451
0.731915
0.44028
0.999189
0.541492
1.24373
0.688149
1.42921
0.859223
1.66943
1.06879
1.70197
1.5749
0.18673
0.0723571
0.211969
0.219147
0.282696
0.371699
0.391842
0.622769
0.520128
0.870903
0.653165
1.11069
0.829278
1.2531
1.02779
1.47092
1.17623
1.55354
1.2048
0.216884
0.0584706
0.246067
0.189964
0.31283
0.304936
0.433374
0.502226
0.603394
0.700883
0.759685
0.954402
0.943794
1.06899
1.22501
1.1897
1.3377
1.44085
0.864719
0.250831
0.0432141
0.284564
0.156232
0.349875
0.239624
0.458605
0.393496
0.638225
0.521263
0.889111
0.703516
1.00373
0.954372
1.36026
0.833168
1.56763
1.23348
0.654845
0.290471
0.029369
0.331725
0.114978
0.377778
0.193571
0.509067
0.262207
0.58099
0.44934
0.912505
0.372001
1.05578
0.811097
1.36453
0.524419
1.84277
0.75524
0.689668
0.337827
0.0272106
0.386505
0.0663004
0.396689
0.183387
0.536266
0.12263
0.58793
0.397676
0.807438
0.152494
1.12559
0.492941
1.30718
0.342831
1.63852
0.423905
0.620322
0.402145
0.0302429
0.442911
0.0255339
0.489976
0.136323
0.57323
0.0393757
0.747599
0.223307
0.799847
0.100245
1.06692
0.225866
1.17659
0.233163
1.35941
0.241089
0.44489
0.472877
0.0172311
0.492158
0.00625284
0.574143
0.054338
0.594461
0.0190573
0.737844
0.0799239
0.766832
0.0712569
0.90468
0.0880182
1.02494
0.112907
1.16931
0.0967178
0.24921
0.533821
0.540074
0.594412
0.613469
0.693393
0.76465
0.852668
0.965575
1.06229
0.0754086
0.111447
-0.116946
0.0922538
0.370173
-0.387018
0.110497
0.676084
-0.694327
0.122847
0.939049
-0.951399
0.133173
1.15747
-1.1678
0.144451
1.40099
-1.41227
0.151902
1.67565
-1.6831
0.15661
1.93023
-1.93494
0.153379
2.2293
-2.22606
2.63253
-2.58454
0.0747867
0.106751
0.0901678
0.354792
0.10766
0.658592
0.118843
0.927865
0.12705
1.14927
0.136185
1.39186
0.141199
1.67064
0.143384
1.92805
0.14535
2.22733
2.66921
0.0742195
0.102873
0.0879609
0.341051
0.104458
0.642094
0.114345
0.917979
0.120178
1.14344
0.127072