/*--------------------------------*- C++ -*----------------------------------*\
| =========                 |                                                 |
| \\      /  F ield         | OpenFOAM: The Open Source CFD Toolbox           |
|  \\    /   O peration     | Version:  v1912                                 |
|   \\  /    A nd           | Website:  www.openfoam.com                      |
|    \\/     M anipulation  |                                                 |
\*---------------------------------------------------------------------------*/
FoamFile
{
    version     2.0;
    format      ascii;
    class       volScalarField;
    location    "62";
    object      p;
}
// * * * * * * * * * * * * * * * * * * * * * * * * * * * * * * * * * * * * * //

dimensions      [0 2 -2 0 0 0 0];


internalField   nonuniform List<scalar> 
9600
(
-41.4876
-36.2228
-32.9961
-30.259
-27.7536
-25.4869
-23.4303
-21.5561
-19.8468
-18.2888
-16.8693
-15.5765
-14.399
-13.326
-12.3474
-11.4538
-10.6369
-9.88858
-9.20142
-8.57324
-42.2476
-36.9653
-33.7026
-30.9226
-28.3721
-26.0612
-23.9633
-22.0513
-20.3081
-18.72
-17.2742
-15.9582
-14.7604
-13.6695
-12.675
-11.7672
-10.9375
-10.1775
-9.47918
-8.84171
-43.0093
-37.7038
-34.4037
-31.5806
-28.9847
-26.6296
-24.4902
-22.5406
-20.7637
-19.1459
-17.6739
-16.3351
-15.1172
-14.0087
-12.9985
-12.0768
-11.2344
-10.4627
-9.75335
-9.1068
-43.7693
-38.4378
-35.0989
-32.2321
-29.5905
-27.1909
-25.0102
-23.0231
-21.2128
-19.5656
-18.0678
-16.7065
-15.4689
-14.343
-13.3175
-12.382
-11.5271
-10.7438
-10.0235
-9.36816
-44.5249
-39.1659
-35.7872
-32.876
-30.1884
-27.7443
-25.5223
-23.4979
-21.6545
-19.9782
-18.4552
-17.0717
-15.8148
-14.6719
-13.6312
-12.6822
-11.8151
-11.0204
-10.2893
-9.62552
-45.2739
-39.8865
-36.4675
-33.5112
-30.7774
-28.2887
-26.0255
-23.9641
-22.088
-20.3831
-18.8352
-17.4301
-16.1542
-14.9946
-13.9392
-12.977
-12.098
-11.2922
-10.5505
-9.8786
-46.0144
-40.5983
-37.1384
-34.1366
-31.3563
-28.8231
-26.519
-24.4209
-22.5125
-20.7795
-19.2071
-17.7808
-16.4864
-15.3106
-14.2409
-13.2659
-12.3752
-11.5585
-10.8066
-10.1271
-46.7451
-41.2998
-37.7987
-34.751
-31.9241
-29.3465
-27.0017
-24.8673
-22.9271
-21.1665
-19.5702
-18.1232
-16.8109
-15.6193
-14.5357
-13.5482
-12.6463
-11.8192
-11.0573
-10.3708
-47.4645
-41.9898
-38.4471
-35.3534
-32.4798
-29.8579
-27.4727
-25.3025
-23.3311
-21.5433
-19.9237
-18.4566
-17.1268
-15.92
-14.8229
-13.8235
-12.9108
-12.0736
-11.3022
-10.6093
-48.1713
-42.667
-39.0827
-35.9426
-33.0223
-30.3563
-27.9312
-25.7256
-23.7234
-21.9092
-20.2668
-18.7801
-17.4334
-16.2119
-15.1018
-14.091
-13.168
-12.3211
-11.5408
-10.8422
-48.8645
-43.3303
-39.7041
-36.5176
-33.5507
-30.8409
-28.3762
-26.1358
-24.1034
-22.2633
-20.5987
-19.093
-17.7299
-16.4941
-15.3717
-14.3499
-13.4172
-12.5612
-11.7724
-11.0688
-49.5432
-43.9788
-40.3106
-37.0774
-34.0641
-31.3107
-28.8069
-26.5322
-24.4702
-22.6048
-20.9186
-19.3943
-18.0153
-16.7659
-15.6315
-14.5993
-13.6574
-12.7929
-11.9963
-11.2884
-50.2065
-44.6115
-40.9011
-37.6213
-34.5615
-31.765
-29.2224
-26.9139
-24.8229
-22.9327
-21.2254
-19.6832
-18.2888
-17.0261
-15.8804
-14.8383
-13.8877
-13.0154
-12.2115
-11.5003
-50.8539
-45.2276
-41.4749
-38.1483
-35.0423
-32.2028
-29.6221
-27.2803
-25.1609
-23.2464
-21.5185
-19.9587
-18.5493
-17.2737
-16.1169
-15.0654
-14.1068
-13.2272
-12.417
-11.7038
-51.4849
-45.8264
-42.031
-38.6576
-35.5056
-32.6237
-30.0052
-27.6308
-25.4833
-23.545
-21.7969
-20.2199
-18.7957
-17.5074
-16.3397
-15.2789
-14.3125
-13.4261
-12.6105
-11.8969
-52.099
-46.407
-42.5689
-39.1488
-35.9509
-33.0269
-30.3712
-27.9646
-25.7897
-23.8281
-22.06
-20.4659
-19.0271
-17.7262
-16.5476
-15.4774
-14.5031
-13.6101
-12.7893
-12.0744
-52.6975
-46.9695
-43.0878
-39.621
-36.3774
-33.4118
-30.7196
-28.2814
-26.0796
-24.095
-22.3072
-20.6962
-19.2426
-17.929
-16.7394
-15.6601
-14.6783
-13.7791
-12.9523
-12.2327
-53.2847
-47.5147
-43.587
-40.0731
-36.7844
-33.7778
-31.0498
-28.5808
-26.3526
-24.3454
-22.538
-20.9098
-19.4411
-18.1141
-16.9129
-15.8241
-14.8353
-13.9303
-13.0986
-12.3835
-53.8627
-48.0423
-44.0648
-40.5042
-37.1714
-34.125
-31.3621
-28.8632
-26.6093
-24.5798
-22.7529
-21.107
-19.6222
-18.28
-17.0646
-15.9629
-14.9621
-14.0462
-13.2132
-12.5307
-54.4096
-48.5447
-44.5203
-40.9147
-37.5397
-34.455
-31.6583
-29.1304
-26.8515
-24.8002
-22.954
-21.2904
-19.7885
-18.4294
-17.1964
-16.0751
-15.0504
-14.1088
-13.2649
-12.5886
-59.8662
-59.8347
-59.7655
-59.673
-59.5566
-59.4139
-59.2442
-59.0481
-58.8262
-58.579
-58.307
-58.0109
-57.6913
-57.3488
-56.9842
-56.5984
-56.1925
-55.7682
-55.3284
-54.8761
-53.5173
-53.5147
-53.4789
-53.4156
-53.3254
-53.2079
-53.0632
-52.8922
-52.6955
-52.4737
-52.2274
-51.9573
-51.6639
-51.3479
-51.01
-50.6508
-50.2709
-49.8709
-49.4512
-49.0098
-48.8729
-48.8947
-48.8871
-48.8508
-48.7869
-48.6965
-48.58
-48.4382
-48.2716
-48.0808
-47.8664
-47.629
-47.3692
-47.0874
-46.7843
-46.4601
-46.1153
-45.7497
-45.3633
-44.954
-44.6421
-44.6816
-44.6945
-44.6802
-44.6397
-44.5741
-44.4839
-44.3698
-44.2322
-44.0718
-43.889
-43.6844
-43.4585
-43.2117
-42.9445
-42.6571
-42.3497
-42.0222
-41.6744
-41.3054
-40.73
-40.7794
-40.8048
-40.8056
-40.7821
-40.7351
-40.6653
-40.5732
-40.4594
-40.3242
-40.1682
-39.992
-39.7959
-39.5804
-39.3458
-39.0923
-38.8201
-38.5291
-38.2191
-37.8896
-37.2166
-37.2701
-37.302
-37.3114
-37.2985
-37.2639
-37.2083
-37.1321
-37.0359
-36.92
-36.785
-36.6313
-36.4595
-36.2698
-36.0627
-35.8384
-35.5969
-35.3382
-35.062
-34.7679
-34.0927
-34.1462
-34.1799
-34.193
-34.1857
-34.1584
-34.1117
-34.0461
-33.9621
-33.8601
-33.7406
-33.6042
-33.4511
-33.282
-33.097
-32.8966
-32.6807
-32.4493
-32.2022
-31.9389
-31.3217
-31.3723
-31.4047
-31.4181
-31.4127
-31.3889
-31.3473
-31.2882
-31.2122
-31.1198
-31.0113
-30.8874
-30.7485
-30.5952
-30.4277
-30.2464
-30.0514
-29.8428
-29.6202
-29.3831
-28.8635
-28.9097
-28.9389
-28.9506
-28.9448
-28.922
-28.8827
-28.8273
-28.7563
-28.6702
-28.5694
-28.4546
-28.3262
-28.1848
-28.0309
-27.8649
-27.6869
-27.4971
-27.2951
-27.0803
-26.6786
-26.7196
-26.7448
-26.7535
-26.7461
-26.7228
-26.6842
-26.6306
-26.5626
-26.4805
-26.3851
-26.2767
-26.1561
-26.0239
-25.8805
-25.7267
-25.5626
-25.3884
-25.2039
-25.0083
-24.7297
-24.7654
-24.7862
-24.7917
-24.7819
-24.7574
-24.7185
-24.6656
-24.5992
-24.5198
-24.428
-24.3244
-24.2096
-24.0843
-23.9493
-23.8052
-23.6526
-23.4916
-23.3222
-23.1436
-22.9839
-23.0146
-23.0311
-23.0332
-23.0209
-22.9948
-22.9551
-22.9023
-22.8369
-22.7592
-22.67
-22.5698
-22.4594
-22.3396
-22.2112
-22.075
-21.9319
-21.7823
-21.6263
-21.463
-21.4129
-21.439
-21.4515
-21.4504
-21.4358
-21.408
-21.3674
-21.3144
-21.2494
-21.173
-21.0857
-20.9881
-20.8811
-20.7655
-20.6423
-20.5126
-20.3775
-20.2378
-20.0939
-19.9448
-19.993
-20.0149
-20.0239
-20.0199
-20.003
-19.9737
-19.9322
-19.8789
-19.8142
-19.7387
-19.6528
-19.5573
-19.4529
-19.3405
-19.2215
-19.097
-18.9686
-18.8375
-18.7048
-18.5694
-18.7042
-18.7224
-18.7283
-18.7217
-18.7029
-18.6722
-18.6299
-18.5764
-18.512
-18.4371
-18.3524
-18.2585
-18.1561
-18.0463
-17.9305
-17.81
-17.687
-17.5631
-17.4409
-17.319
-17.5302
-17.545
-17.548
-17.5392
-17.5187
-17.4869
-17.4439
-17.3902
-17.326
-17.2518
-17.1681
-17.0754
-16.9746
-16.8667
-16.7531
-16.6354
-16.5165
-16.3983
-16.2857
-16.177
-16.457
-16.4689
-16.4694
-16.4586
-16.4366
-16.4037
-16.3602
-16.3063
-16.2423
-16.1686
-16.0856
-15.9939
-15.8942
-15.7875
-15.6751
-15.5589
-15.4422
-15.3279
-15.2234
-15.1265
-15.4728
-15.4823
-15.4809
-15.4686
-15.4455
-15.4119
-15.3681
-15.3142
-15.2505
-15.1773
-15.095
-15.0042
-14.9053
-14.7992
-14.6871
-14.571
-14.4546
-14.3417
-14.2442
-14.1565
-14.5665
-14.5745
-14.5721
-14.5593
-14.5362
-14.503
-14.4599
-14.407
-14.3447
-14.2732
-14.1927
-14.1038
-14.0067
-13.9022
-13.7913
-13.6754
-13.5583
-13.4451
-13.3545
-13.2809
-13.7327
-13.7375
-13.7325
-13.7179
-13.6938
-13.6602
-13.6173
-13.5654
-13.5045
-13.435
-13.3569
-13.2707
-13.1766
-13.0749
-12.9661
-12.8514
-12.7324
-12.6144
-12.5174
-12.4682
-53.5729
-54.1484
-54.6868
-55.2101
-55.7155
-56.197
-56.6517
-57.0786
-57.4767
-57.8451
-58.1832
-58.4905
-58.7667
-59.0113
-59.2237
-59.4041
-59.5533
-59.6724
-59.7635
-59.8285
-47.0897
-47.6706
-48.2234
-48.7539
-49.2615
-49.7438
-50.1995
-50.6278
-51.028
-51.3995
-51.7418
-52.0546
-52.3382
-52.5932
-52.8174
-53.0103
-53.1726
-53.3045
-53.4067
-53.4779
-42.4453
-43.0139
-43.5588
-44.0804
-44.5785
-45.0524
-45.5013
-45.9246
-46.3216
-46.6916
-47.0337
-47.3477
-47.6332
-47.889
-48.1163
-48.3155
-48.4861
-48.6279
-48.7406
-48.8226
-38.3211
-38.8644
-39.3881
-39.8901
-40.37
-40.8274
-41.2617
-41.6723
-42.0585
-42.4197
-42.7547
-43.0629
-43.3453
-43.6014
-43.8312
-44.0347
-44.2113
-44.3606
-44.4825
-44.5764
-34.6431
-35.1564
-35.6527
-36.1292
-36.5852
-37.0201
-37.4336
-37.8248
-38.193
-38.5379
-38.8599
-39.1585
-39.4325
-39.6818
-39.9068
-40.1071
-40.2823
-40.4324
-40.5572
-40.6566
-31.4444
-31.9262
-32.3927
-32.8411
-33.2704
-33.6801
-34.0698
-34.4388
-34.7866
-35.1131
-35.4179
-35.7006
-35.9605
-36.1977
-36.4126
-36.6049
-36.7739
-36.9195
-37.042
-37.1412
-28.6724
-29.1234
-29.5602
-29.9803
-30.3825
-30.7664
-31.1314
-31.4771
-31.8031
-32.1091
-32.3946
-32.6595
-32.9034
-33.1262
-33.3274
-33.5089
-33.669
-33.8073
-33.9239
-34.0192
-26.2604
-26.6825
-27.0911
-27.4842
-27.8605
-28.2193
-28.5604
-28.8831
-29.1872
-29.4724
-29.7385
-29.9853
-30.2126
-30.4204
-30.6085
-30.7756
-30.9251
-31.0543
-31.1634
-31.2526
-24.1496
-24.5452
-24.9281
-25.2962
-25.6483
-25.9838
-26.3022
-26.6032
-26.8865
-27.1519
-27.3992
-27.6284
-27.8393
-28.0319
-28.2062
-28.3621
-28.4983
-28.6175
-28.7181
-28.8002
-22.2898
-22.6617
-23.0214
-23.3668
-23.6969
-24.0109
-24.3084
-24.5893
-24.8532
-25.1001
-25.3299
-25.5425
-25.7379
-25.916
-26.0768
-26.2203
-26.3462
-26.4549
-26.5469
-26.6215
-20.6396
-20.9902
-21.3292
-21.6544
-21.9645
-22.2589
-22.5375
-22.7999
-23.046
-23.2759
-23.4895
-23.6869
-23.8679
-24.0326
-24.181
-24.313
-24.4286
-24.5278
-24.6114
-24.6788
-19.1651
-19.4969
-19.8177
-20.1248
-20.417
-20.6938
-20.955
-21.2005
-21.4304
-21.6448
-21.8436
-22.027
-22.1949
-22.3473
-22.4843
-22.6059
-22.712
-22.8029
-22.8782
-22.9389
-17.8394
-18.1548
-18.4596
-18.7508
-19.0268
-19.2875
-19.5328
-19.763
-19.9781
-20.1782
-20.3635
-20.5342
-20.6901
-20.8314
-20.9581
-21.0702
-21.1677
-21.2506
-21.3186
-21.3732
-16.641
-16.9419
-17.2332
-17.5103
-17.7716
-18.0175
-18.2483
-18.4642
-18.6656
-18.8528
-19.0258
-19.1848
-19.3299
-19.4612
-19.5786
-19.6821
-19.7718
-19.8478
-19.9102
-19.9582
-15.5527
-15.8413
-16.1211
-16.3855
-16.6333
-16.8655
-17.0827
-17.2855
-17.4743
-17.6494
-17.8111
-17.9596
-18.0949
-18.217
-18.326
-18.4218
-18.5045
-18.5741
-18.6306
-18.6738
-14.5599
-14.84
-15.1105
-15.363
-15.5979
-15.8171
-16.0216
-16.2119
-16.3888
-16.5528
-16.7041
-16.8428
-16.9691
-17.0829
-17.1843
-17.2732
-17.3495
-17.4134
-17.4647
-17.5036
-13.6447
-13.9237
-14.1891
-14.4301
-14.6524
-14.8592
-15.0514
-15.23
-15.3958
-15.5495
-15.6912
-15.8211
-15.9393
-16.0456
-16.1401
-16.2227
-16.2934
-16.3521
-16.399
-16.4339
-12.7867
-13.0699
-13.3366
-13.5682
-13.7785
-13.9736
-14.1546
-14.3227
-14.4787
-14.6234
-14.7569
-14.8793
-14.9906
-15.0907
-15.1795
-15.2569
-15.323
-15.3775
-15.4207
-15.4526
-11.9993
-12.273
-12.5404
-12.7672
-12.9673
-13.151
-13.3216
-13.4801
-13.6274
-13.7641
-13.8905
-14.0064
-14.1119
-14.2067
-14.2908
-14.3641
-14.4264
-14.4778
-14.5182
-14.5478
-11.4086
-11.6594
-11.8872
-12.104
-12.2924
-12.4583
-12.6123
-12.7566
-12.8906
-13.0148
-13.1296
-13.2348
-13.3304
-13.416
-13.4917
-13.5572
-13.6127
-13.6579
-13.6928
-13.7173
-6.00684
-6.49819
-7.03663
-7.61909
-8.25201
-8.94278
-9.69907
-10.5303
-11.4487
-12.47
-13.6145
-14.9091
-16.3894
-18.1014
-20.1055
-22.481
-25.3092
-28.6123
-32.6097
-38.6057
-6.27748
-6.78237
-7.33133
-7.92586
-8.57256
-9.27851
-10.0515
-10.9013
-11.8403
-12.8844
-14.0544
-15.3777
-16.8901
-18.6381
-20.6824
-23.102
-25.9772
-29.3271
-33.3631
-39.3801
-6.54955
-7.06798
-7.62758
-8.23441
-8.89514
-9.61654
-10.4065
-11.2751
-12.2349
-13.3022
-14.4982
-15.8505
-17.3953
-19.1796
-21.2643
-23.7281
-26.6499
-30.0455
-34.1182
-40.1517
-6.82255
-7.35446
-7.92479
-8.54413
-9.21912
-9.95616
-10.7633
-11.6509
-12.6318
-13.7225
-14.9446
-16.3261
-17.9036
-19.7245
-21.8497
-24.3575
-27.3258
-30.7669
-34.8774
-40.9322
-7.09605
-7.64136
-8.22249
-8.85456
-9.54399
-10.2969
-11.1214
-12.0282
-13.0303
-14.1447
-15.3931
-16.8039
-18.4143
-20.2718
-22.4375
-24.9895
-28.004
-31.4907
-35.6397
-41.7188
-7.36968
-7.92827
-8.52026
-9.16525
-9.86933
-10.6382
-11.4803
-12.4063
-13.4299
-14.568
-15.8429
-17.2833
-18.9266
-20.8209
-23.0272
-25.6232
-28.6839
-32.2159
-36.4031
-42.5077
-7.64312
-8.21482
-8.81771
-9.47582
-10.1947
-10.9797
-11.8394
-12.785
-13.83
-14.992
-16.2934
-17.7635
-19.4399
-21.3709
-23.6178
-26.2579
-29.3645
-32.9415
-37.1661
-43.2963
-7.91612
-8.50072
-9.11454
-9.78593
-10.5198
-11.321
-12.1985
-13.1635
-14.2302
-15.4161
-16.7441
-18.2439
-19.9534
-21.9212
-24.2087
-26.8925
-30.0448
-33.6662
-37.9276
-44.0832
-8.18852
-8.78577
-9.4105
-10.0953
-10.8442
-11.6617
-12.557
-13.5416
-14.6298
-15.8397
-17.1943
-18.7237
-20.4663
-22.4709
-24.7987
-27.5261
-30.7237
-34.3889
-38.6862
-44.8669
-8.46029
-9.06987
-9.70543
-10.4037
-11.1677
-12.0015
-12.9145
-13.9187
-15.0284
-16.2622
-17.6434
-19.2024
-20.9779
-23.0191
-25.3871
-28.1577
-31.4
-35.1086
-39.4407
-45.646
-8.73153
-9.35304
-9.99927
-10.7111
-11.4901
-12.3402
-13.2708
-14.2944
-15.4255
-16.6831
-18.0907
-19.6791
-21.4874
-23.5649
-25.9728
-28.7862
-32.0727
-35.8238
-40.1897
-46.419
-9.00255
-9.63546
-10.2921
-11.0173
-11.8113
-12.6774
-13.6255
-14.6682
-15.8206
-17.1017
-18.5355
-20.1531
-21.9939
-24.1075
-26.555
-29.4106
-32.7407
-36.5335
-40.9319
-47.1844
-9.27381
-9.91741
-10.584
-11.3224
-12.131
-13.0129
-13.9781
-15.0398
-16.2131
-17.5174
-18.9772
-20.6236
-22.4967
-24.646
-27.1324
-30.0298
-33.4026
-37.2363
-41.666
-47.9409
-9.54605
-10.1993
-10.8751
-11.6262
-12.4491
-13.3463
-14.3283
-15.4085
-16.6024
-17.9296
-19.4149
-21.0899
-22.9948
-25.1793
-27.7042
-30.6427
-34.0574
-37.931
-42.3907
-48.6872
-9.82003
-10.4815
-11.1655
-11.9286
-12.7652
-13.6771
-14.6754
-15.7737
-16.9878
-18.3374
-19.8478
-21.551
-23.4872
-25.7064
-28.2692
-31.2479
-34.7038
-38.6164
-43.1048
-49.4221
-10.0967
-10.7642
-11.4548
-12.2291
-13.0786
-14.0047
-15.0188
-16.1346
-17.3684
-18.7401
-20.2751
-22.0059
-23.9729
-26.2262
-28.8262
-31.8444
-35.3404
-39.2912
-43.8071
-50.1446
-10.3759
-11.0463
-11.7417
-12.5262
-13.3881
-14.3279
-15.3573
-16.4903
-17.7433
-19.1365
-20.6958
-22.4536
-24.4508
-26.7375
-29.374
-32.4307
-35.9659
-39.954
-44.4967
-50.8542
-10.6568
-11.3253
-12.0236
-12.8181
-13.6924
-14.6457
-15.69
-16.8397
-18.1115
-19.5258
-21.1087
-22.893
-24.9198
-27.2393
-29.9113
-33.0055
-36.5787
-40.6031
-45.1723
-51.5508
-10.9323
-11.5929
-12.2944
-13.1015
-13.9894
-14.9563
-16.0154
-17.1816
-18.4719
-19.9068
-21.5128
-23.323
-25.3786
-27.73
-30.4365
-33.5671
-37.1772
-41.2368
-45.8327
-52.2359
-11.1836
-11.829
-12.5496
-13.3774
-14.2795
-15.2594
-16.3329
-17.5154
-18.8235
-20.2785
-21.907
-23.7424
-25.8261
-28.2084
-30.9484
-34.1139
-37.7589
-41.8519
-46.4733
-52.911
-1.58513
-1.83907
-2.18696
-2.57589
-2.99446
-3.44801
-3.94287
-4.48495
-5.08175
-5.74354
-6.48426
-7.32292
-8.28568
-9.40857
-10.7425
-12.3618
-14.3561
-16.7866
-19.9618
-25.3566
-1.7383
-2.00869
-2.37504
-2.76992
-3.19191
-3.65081
-4.15258
-4.70275
-5.30896
-5.98174
-6.7353
-7.58899
-8.56939
-9.71306
-11.0715
-12.7194
-14.7467
-17.2127
-20.4201
-25.8287
-1.88583
-2.1803
-2.55981
-2.96283
-3.39257
-3.85986
-4.37057
-4.93042
-5.54742
-6.23244
-7.00001
-7.86989
-8.8691
-10.0347
-11.4188
-13.0965
-15.1574
-17.6588
-20.8978
-26.315
-2.05565
-2.36094
-2.74867
-3.16041
-3.59935
-4.07619
-4.59693
-5.16759
-5.79651
-6.49485
-7.2775
-8.16461
-9.18368
-10.3723
-11.7831
-13.4916
-15.587
-18.1252
-21.3989
-26.8338
-2.23679
-2.54918
-2.94474
-3.36546
-3.81389
-4.30071
-4.83214
-5.41441
-6.05612
-6.76871
-7.56739
-8.47272
-9.51266
-10.7254
-12.1639
-13.9042
-16.0354
-18.6118
-21.9231
-27.3821
-2.4234
-2.74441
-3.14832
-3.57816
-4.03638
-4.53365
-5.07636
-5.67094
-6.3262
-7.05386
-7.86946
-8.79394
-9.85574
-11.0936
-12.561
-14.3343
-16.5025
-19.1184
-22.4684
-27.9545
-2.61702
-2.94755
-3.35971
-3.7987
-4.26698
-4.77513
-5.32964
-5.93714
-6.60664
-7.35012
-8.18346
-9.12798
-10.2126
-11.4765
-12.9739
-14.7815
-16.9878
-19.6443
-23.0338
-28.5487
-2.81904
-3.15906
-3.57927
-4.0274
-4.50594
-5.02529
-5.59204
-6.21296
-6.8973
-7.65729
-8.50912
-9.47452
-10.5829
-11.8739
-13.4023
-15.2451
-17.4907
-20.1888
-23.6187
-29.1636
-3.02923
-3.37879
-3.80701
-4.26433
-4.7533
-5.28414
-5.86348
-6.4983
-7.19802
-7.97514
-8.84617
-9.83321
-10.9661
-12.2852
-13.8456
-15.7247
-18.0107
-20.7513
-24.2223
-29.7981
-3.247
-3.60642
-4.04275
-4.50936
-5.00894
-5.55152
-6.14381
-6.79295
-7.50856
-8.30339
-9.19427
-10.2037
-11.362
-12.71
-14.3033
-16.2197
-18.547
-21.3312
-24.8439
-30.4511
-3.47191
-3.84159
-4.28617
-4.7622
-5.2726
-5.8272
-6.43278
-7.09664
-7.82862
-8.64172
-9.55307
-10.5856
-11.77
-13.1478
-14.7749
-16.7296
-19.0991
-21.9276
-25.4825
-31.1217
-3.70358
-4.0839
-4.5369
-5.0225
-5.54394
-6.11084
-6.73004
-7.40902
-8.15783
-8.98971
-9.92213
-10.9784
-12.1897
-13.598
-15.2599
-17.2536
-19.6662
-22.5398
-26.1374
-31.8086
-3.94154
-4.33288
-4.79447
-5.28985
-5.82258
-6.40206
-7.03521
-7.72969
-8.49577
-9.34695
-10.301
-11.3816
-12.6206
-14.0601
-15.7575
-17.7911
-20.2476
-23.1669
-26.8076
-32.5111
-4.18526
-4.588
-5.0584
-5.56377
-6.10804
-6.70039
-7.34782
-8.05819
-8.84197
-9.71292
-10.6892
-11.7948
-13.0619
-14.5335
-16.2672
-18.3415
-20.8425
-23.8082
-27.4922
-33.2281
-4.43421
-4.84871
-5.32815
-5.84374
-6.39982
-7.00535
-7.66739
-8.394
-9.1959
-10.0871
-11.086
-12.2172
-13.5132
-15.0175
-16.7881
-18.9039
-21.4502
-24.4628
-28.1905
-33.9588
-4.68783
-5.11443
-5.60314
-6.12921
-6.69739
-7.31639
-7.99336
-8.73659
-9.557
-10.4689
-11.491
-12.6483
-13.9738
-15.5115
-17.3197
-19.4775
-22.0697
-25.1299
-28.9016
-34.7025
-4.94556
-5.3846
-5.88281
-6.41962
-7.00017
-7.63295
-8.32518
-9.08538
-9.92469
-10.8577
-11.9035
-13.0874
-14.4429
-16.0145
-17.861
-20.0615
-22.7002
-25.8084
-29.6246
-35.4584
-5.20686
-5.65863
-6.16657
-6.71439
-7.30761
-7.95446
-8.66227
-9.43977
-10.2984
-11.2529
-12.3228
-13.5338
-14.9199
-16.526
-18.4113
-20.655
-23.3407
-26.4974
-30.3588
-36.2264
-5.47118
-5.93593
-6.45383
-7.01293
-7.61911
-8.28033
-9.00402
-9.79915
-10.6774
-11.6538
-12.7482
-13.9867
-15.4039
-17.0449
-18.9695
-21.257
-23.99
-27.1955
-31.103
-37.0069
-5.73802
-6.21598
-6.74406
-7.31471
-7.93413
-8.61
-9.34986
-10.1629
-11.0611
-12.0598
-13.1791
-14.4456
-15.8941
-17.5705
-19.5348
-21.8663
-24.6469
-27.9012
-31.8545
-37.8007
-1.33734
-1.13063
-0.976849
-0.84012
-0.720051
-0.614103
-0.52116
-0.440429
-0.37141
-0.313743
-0.267163
-0.231457
-0.206457
-0.192025
-0.188023
-0.194241
-0.21046
-0.23681
-0.273477
-0.320234
-1.66716
-1.48372
-1.32597
-1.18401
-1.05911
-0.948691
-0.85178
-0.767575
-0.695563
-0.635367
-0.586705
-0.549355
-0.523133
-0.50789
-0.50348
-0.50973
-0.526484
-0.553756
-0.591639
-0.639798
-1.99964
-1.82408
-1.66634
-1.52324
-1.39621
-1.28361
-1.18474
-1.09892
-1.02567
-0.964638
-0.915544
-0.878166
-0.85232
-0.837849
-0.834604
-0.842432
-0.861214
-0.890899
-0.931342
-0.982803
-2.38331
-2.20609
-2.04531
-1.89925
-1.76864
-1.65254
-1.55045
-1.46184
-1.38629
-1.32346
-1.27307
-1.23491
-1.20878
-1.19452
-1.19198
-1.20099
-1.22146
-1.2533
-1.29639
-1.35076
-2.80198
-2.6223
-2.45755
-2.30754
-2.17271
-2.05255
-1.94672
-1.85482
-1.77647
-1.71139
-1.65931
-1.62001
-1.5933
-1.579
-1.57696
-1.58702
-1.60907
-1.64299
-1.68867
-1.74609
-3.25317
-3.07026
-2.90134
-2.747
-2.60771
-2.48328
-2.37351
-2.27811
-2.19678
-2.12927
-2.07534
-2.03477
-2.00737
-1.99298
-1.99141
-2.00254
-2.02622
-2.06232
-2.11072
-2.17135
-3.74307
-3.55543
-3.38159
-3.22232
-3.07813
-2.94904
-2.83498
-2.73575
-2.65113
-2.58091
-2.52487
-2.48281
-2.45455
-2.43992
-2.43875
-2.45089
-2.4762
-2.51454
-2.56575
-2.62982
-4.27847
-4.08461
-3.90476
-3.73969
-3.5899
-3.45554
-3.33663
-3.23306
-3.14468
-3.07132
-3.01279
-2.9689
-2.93949
-2.92438
-2.92341
-2.93643
-2.96329
-3.00383
-3.0579
-3.12546
-4.86704
-4.66552
-4.47844
-4.30649
-4.15018
-4.00974
-3.88525
-3.77667
-3.68391
-3.60684
-3.54529
-3.49911
-3.46813
-3.45219
-3.45112
-3.46478
-3.49301
-3.53563
-3.5925
-3.6636
-5.51895
-5.30819
-5.11246
-4.93236
-4.76839
-4.62083
-4.4898
-4.37534
-4.27739
-4.19586
-4.13061
-4.0815
-4.04839
-4.03111
-4.02951
-4.04344
-4.07273
-4.11721
-4.17671
-4.25125
-6.24791
-6.02613
-5.82006
-5.63026
-5.45721
-5.30121
-5.16244
-5.04097
-4.93677
-4.84979
-4.77992
-4.72705
-4.69103
-4.67171
-4.66895
-4.68259
-4.71246
-4.75838
-4.82018
-4.89791
-7.07267
-6.83772
-6.61931
-6.41791
-6.23401
-6.06793
-5.91985
-5.7899
-5.67808
-5.58436
-5.50866
-5.45089
-5.41092
-5.3886
-5.38378
-5.39633
-5.42606
-5.47277
-5.5363
-5.61674
-8.01895
-7.76831
-7.53511
-7.31978
-7.12281
-6.94454
-6.78518
-6.64486
-6.52364
-6.4215
-6.33839
-6.27421
-6.22886
-6.20221
-6.19411
-6.20441
-6.23294
-6.27947
-6.34385
-6.42619
-9.12229
-8.85287
-8.6019
-8.36976
-8.15698
-7.96389
-7.79073
-7.63765
-7.50474
-7.39199
-7.29937
-7.22681
-7.1742
-7.14142
-7.12835
-7.13481
-7.16064
-7.20559
-7.26949
-7.35252
-10.433
-10.1411
-9.8687
-9.61623
-9.38423
-9.17305
-8.98295
-8.8141
-8.66658
-8.54043
-8.43561
-8.35208
-8.28974
-8.24847
-8.22814
-8.22861
-8.24967
-8.29107
-8.35259
-8.4345
-12.0247
-11.7059
-11.4078
-11.1308
-10.8755
-10.6423
-10.4315
-10.2431
-10.0774
-9.93442
-9.81406
-9.71629
-9.64105
-9.58822
-9.55768
-9.54928
-9.56282
-9.598
-9.6546
-9.73289
-13.9866
-13.6362
-13.3077
-13.0016
-12.7186
-12.4591
-12.2234
-12.0116
-11.8238
-11.66
-11.5204
-11.4047
-11.313
-11.2452
-11.201
-11.1805
-11.1834
-11.2095
-11.2583
-11.3301
-16.3803
-15.9944
-15.6313
-15.2922
-14.9777
-14.6883
-14.4241
-14.1854
-13.9721
-13.7843
-13.6221
-13.4853
-13.374
-13.2881
-13.2275
-13.1921
-13.1817
-13.1961
-13.235
-13.2977
-19.5168
-19.091
-18.689
-18.3134
-17.9644
-17.6422
-17.3468
-17.078
-16.8359
-16.6206
-16.4319
-16.27
-16.1347
-16.0261
-15.9439
-15.8881
-15.8587
-15.8558
-15.8793
-15.9272
-24.8535
-24.3827
-23.9462
-23.5412
-23.1653
-22.8177
-22.4979
-22.2058
-21.9414
-21.7047
-21.4957
-21.3144
-21.1609
-21.0354
-20.9379
-20.8685
-20.8279
-20.8183
-20.8412
-20.8863
-0.376996
-0.443441
-0.51953
-0.605181
-0.70031
-0.804812
-0.918555
-1.04138
-1.17307
-1.31335
-1.46184
-1.61804
-1.78113
-1.9499
-2.12269
-2.29721
-2.469
-2.62826
-2.7596
-2.88944
-0.698438
-0.767161
-0.845892
-0.934517
-1.03293
-1.14101
-1.2586
-1.38552
-1.52153
-1.66631
-1.81947
-1.98044
-2.14846
-2.32236
-2.50052
-2.6813
-2.86292
-3.03765
-3.1903
-3.36262
-1.04495
-1.11752
-1.20047
-1.29367
-1.39699
-1.51029
-1.6334
-1.76611
-1.90816
-2.05922
-2.21886
-2.38653
-2.56147
-2.74266
-2.92874
-3.11852
-3.31103
-3.50188
-3.68538
-3.89144
-1.41633
-1.49276
-1.57998
-1.67785
-1.78622
-1.90494
-2.03381
-2.17261
-2.32105
-2.47878
-2.64538
-2.82027
-3.00277
-3.19195
-3.38676
-3.58631
-3.78981
-3.99493
-4.20219
-4.43197
-1.81518
-1.89563
-1.98732
-2.0901
-2.20382
-2.3283
-2.46332
-2.60865
-2.76398
-2.92896
-3.10314
-3.28601
-3.4769
-3.67504
-3.87961
-4.09
-4.3056
-4.52536
-4.75193
-4.99847
-2.24428
-2.32902
-2.42552
-2.5336
-2.6531
-2.78382
-2.92554
-3.078
-3.2409
-3.41387
-3.59649
-3.78825
-3.98858
-4.19682
-4.41235
-4.63476
-4.86366
-5.09882
-5.34299
-5.60404
-2.70679
-2.79605
-2.89766
-3.01142
-3.13714
-3.27461
-3.42359
-3.58383
-3.75501
-3.93677
-4.12872
-4.33038
-4.54123
-4.76074
-4.98844
-5.22402
-5.46729
-5.71844
-5.9797
-6.2555
-3.20647
-3.30062
-3.40767
-3.52745
-3.6598
-3.8045
-3.96131
-4.12997
-4.31016
-4.50154
-4.70373
-4.91629
-5.13877
-5.37072
-5.61177
-5.86169
-6.12038
-6.38818
-6.66666
-6.95828
-3.74892
-3.84797
-3.96065
-4.08675
-4.2261
-4.37848
-4.54366
-4.72136
-4.91127
-5.11308
-5.32641
-5.55087
-5.78606
-6.03159
-6.28716
-6.55256
-6.82776
-7.11303
-7.40938
-7.71819
-4.34083
-4.44484
-4.56334
-4.69594
-4.84258
-5.00303
-5.17704
-5.36434
-5.56463
-5.77761
-6.00293
-6.24023
-6.48915
-6.74935
-7.02055
-7.30257
-7.59536
-7.89908
-8.2143
-8.54179
-4.9916
-5.10049
-5.22463
-5.36394
-5.51803
-5.68679
-5.86997
-6.06731
-6.27852
-6.50331
-6.74135
-6.99232
-7.25588
-7.53172
-7.81959
-8.1193
-8.43075
-8.75397
-9.08919
-9.43692
-5.71413
-5.82762
-5.95729
-6.10295
-6.26451
-6.44162
-6.63412
-6.84175
-7.06423
-7.30127
-7.55258
-7.81787
-8.09682
-8.38912
-8.69454
-9.01286
-9.34395
-9.68768
-10.0441
-10.4135
-6.52659
-6.64403
-6.7787
-6.93032
-7.09881
-7.28426
-7.48599
-7.70378
-7.93754
-8.187
-8.45187
-8.73186
-9.02665
-9.33597
-9.65957
-9.99723
-10.3487
-10.7138
-11.0924
-11.4848
-7.4548
-7.57511
-7.71382
-7.87063
-8.04533
-8.2379
-8.44914
-8.67629
-8.92098
-9.18256
-9.4608
-9.75543
-10.0662
-10.3927
-10.7348
-11.0922
-11.4645
-11.8516
-12.2531
-12.6692
-8.53695
-8.65845
-8.79957
-8.9601
-9.13986
-9.3384
-9.55523
-9.7926
-10.0479
-10.3207
-10.6115
-10.9202
-11.2465
-11.5901
-11.9505
-12.3274
-12.7207
-13.1298
-13.5543
-13.9947
-9.83298
-9.95312
-10.0942
-10.2562
-10.4388
-10.6418
-10.8647
-11.1075
-11.3705
-11.654
-11.9567
-12.2788
-12.6199
-12.9792
-13.3566
-13.7521
-14.1653
-14.5958
-15.0429
-15.507
-11.4245
-11.5401
-11.6783
-11.839
-12.0218
-12.2265
-12.4529
-12.7007
-12.9699
-13.2605
-13.5733
-13.9071
-14.2601
-14.6316
-15.0228
-15.4343
-15.8655
-16.3157
-16.7838
-17.2698
-13.3822
-13.4902
-13.6225
-13.7786
-13.9573
-14.159
-14.3839
-14.6319
-14.9026
-15.1955
-15.5101
-15.8465
-16.2064
-16.5904
-16.9968
-17.4241
-17.872
-18.3402
-18.8276
-19.3334
-15.9974
-16.0894
-16.2054
-16.3469
-16.5151
-16.7095
-16.9292
-17.1737
-17.4427
-17.7359
-18.0526
-18.3925
-18.756
-19.1434
-19.5548
-19.9894
-20.4471
-20.9286
-21.4337
-21.9576
-20.9281
-21.0004
-21.1037
-21.2356
-21.3949
-21.5811
-21.7935
-22.0318
-22.2956
-22.5847
-22.8988
-23.2378
-23.602
-23.9915
-24.4066
-24.8471
-25.3141
-25.8117
-26.3422
-26.888
-27.4047
-22.4922
-19.857
-17.7737
-15.9879
-14.4508
-13.1
-11.8908
-10.7958
-9.79705
-8.88149
-8.0394
-7.26317
-6.54657
-5.88441
-5.27216
-4.70458
-4.17607
-3.69513
-3.29073
-27.9494
-23.043
-20.3963
-18.2927
-16.4831
-14.9203
-13.5435
-12.3087
-11.1895
-10.168
-9.23171
-8.37092
-7.5782
-6.84747
-6.1737
-5.55247
-4.97905
-4.45104
-3.9816
-3.57911
-28.5227
-23.6127
-20.9528
-18.8278
-16.993
-15.4034
-13.9995
-12.7383
-11.594
-10.5492
-9.59153
-8.71154
-7.90182
-7.15633
-6.47
-5.83833
-5.25668
-4.72278
-4.2462
-3.8242
-29.1204
-24.2019
-21.5265
-19.3787
-17.5172
-15.8994
-14.4673
-13.1787
-12.0084
-10.9396
-9.95985
-9.05993
-8.23237
-7.47101
-6.77058
-6.12631
-5.53331
-4.98865
-4.49906
-4.05833
-29.7393
-24.8101
-22.1168
-19.9448
-18.055
-16.4077
-14.9462
-13.6292
-12.4321
-11.3383
-10.3358
-9.41521
-8.56901
-7.79088
-7.0753
-6.41718
-5.81135
-5.25429
-4.75091
-4.29403
-30.378
-25.4377
-22.7218
-20.5251
-18.6057
-16.9274
-15.4354
-14.089
-12.8642
-11.7448
-10.7187
-9.77673
-8.91119
-8.11557
-7.3841
-6.71142
-6.09211
-5.52232
-5.00566
-4.5347
-31.0354
-26.0832
-23.3411
-21.1186
-19.1683
-17.4579
-15.9342
-14.5574
-13.304
-12.1582
-11.1079
-10.144
-9.25858
-8.445
-7.69724
-7.00969
-6.37681
-5.79449
-5.26525
-4.7816
-31.71
-26.7445
-23.9745
-21.7244
-19.7421
-17.9982
-16.4417
-15.0336
-13.7509
-12.5779
-11.5029
-10.5165
-9.61087
-8.77903
-8.01476
-7.31228
-6.66589
-6.07131
-5.53007
-5.03465
-32.4006
-27.4203
-24.6213
-22.3418
-20.326
-18.5476
-16.9572
-15.5169
-14.2041
-13.0033
-11.9031
-10.8939
-9.96773
-9.11743
-8.33657
-7.61917
-6.95941
-6.35281
-5.79996
-5.29335
-33.106
-28.1094
-25.2803
-22.9699
-20.9193
-19.1051
-17.4799
-16.0065
-14.6628
-13.4339
-12.308
-11.2757
-10.3287
-9.45986
-8.66238
-7.9301
-7.25707
-6.63861
-6.07441
-5.55699
-33.8248
-28.8107
-25.9505
-23.6076
-21.5208
-19.6698
-18.0088
-16.5016
-15.1265
-13.8688
-12.7169
-11.6612
-10.6934
-9.80586
-8.99176
-8.24464
-7.55841
-6.92818
-6.35278
-5.82476
-34.556
-29.5229
-26.6307
-24.2539
-22.1298
-20.2408
-18.5431
-17.0013
-15.5942
-14.3074
-13.1292
-12.0499
-11.0611
-10.1549
-9.32417
-8.56225
-7.86287
-7.22089
-6.63435
-6.09588
-35.2984
-30.2451
-27.3199
-24.9076
-22.7449
-20.817
-19.0819
-17.5048
-16.0652
-14.7489
-13.5442
-12.4412
-11.4313
-10.5064
-9.65903
-8.88232
-8.1698
-7.51608
-6.91841
-6.36958
-36.051
-30.9761
-28.0167
-25.5678
-23.3653
-21.3975
-19.6241
-18.0112
-16.5387
-15.1925
-13.9611
-12.8343
-11.8033
-10.8597
-9.99569
-9.2042
-8.47855
-7.81306
-7.20424
-6.64513
-36.8126
-31.7145
-28.72
-26.2331
-23.9898
-21.9812
-20.1687
-18.5195
-17.0137
-15.6375
-14.3792
-13.2286
-12.1764
-11.2141
-10.3335
-9.52725
-8.78846
-8.11117
-7.49118
-6.92184
-37.582
-32.4591
-29.4285
-26.9024
-24.6172
-22.567
-20.7149
-19.0288
-17.4894
-16.083
-14.7977
-13.6232
-12.5499
-11.5689
-10.6718
-9.8508
-9.09888
-8.40975
-7.77855
-7.19907
-38.3589
-33.2088
-30.1408
-27.5743
-25.2463
-23.1537
-21.2614
-19.538
-17.9649
-16.5281
-15.2158
-14.0175
-12.9231
-11.9235
-11.0098
-10.1742
-9.40916
-8.70818
-8.06575
-7.47621
-39.1444
-33.963
-30.8554
-28.2473
-25.8756
-23.7399
-21.8069
-20.0462
-18.439
-16.9719
-15.6327
-14.4105
-13.2952
-12.277
-11.347
-10.4967
-9.71865
-9.00581
-8.35216
-7.7527
-39.9389
-34.7205
-31.5704
-28.9197
-26.5037
-24.3246
-22.3507
-20.5522
-18.9111
-17.4136
-16.0475
-14.8017
-13.6655
-12.6289
-11.6826
-10.8178
-10.0267
-9.30206
-8.63723
-8.02803
-40.7296
-35.4763
-32.2842
-29.5905
-27.1301
-24.9073
-22.8921
-21.0558
-19.3806
-17.8527
-16.4599
-15.1905
-14.0336
-12.9787
-12.0162
-11.137
-10.333
-9.59648
-8.92048
-8.30173
-6.78048
-4.6745
-3.31429
-2.26876
-1.53423
-0.994735
-0.60722
-0.332098
-0.141054
-0.0123448
0.0706528
0.12057
0.146991
0.157073
0.156128
0.14803
0.135591
0.120812
0.105101
0.0894273
0.0744344
0.0605333
0.0479606
0.0368357
0.0271799
0.0189729
0.0121208
0.00655925
0.00211857
-0.00123021
-0.0037501
-0.00533339
-0.0064281
-0.00662366
-0.006755
-0.00582678
-0.00541662
-0.00349731
-0.00295156
3.69191e-05
-7.03617
-4.85688
-3.46055
-2.38393
-1.62528
-1.06837
-0.667288
-0.381722
-0.182434
-0.0471017
0.0413173
0.095735
0.125937
0.139221
0.141007
0.135242
0.124803
0.111737
0.0974938
0.083074
0.0691512
0.0561607
0.0443597
0.0338867
0.0247786