/*--------------------------------*- C++ -*----------------------------------*\
| =========                 |                                                 |
| \\      /  F ield         | OpenFOAM: The Open Source CFD Toolbox           |
|  \\    /   O peration     | Version:  v1912                                 |
|   \\  /    A nd           | Website:  www.openfoam.com                      |
|    \\/     M anipulation  |                                                 |
\*---------------------------------------------------------------------------*/
FoamFile
{
    version     2.0;
    format      ascii;
    class       volScalarField;
    location    "1";
    object      p;
}
// * * * * * * * * * * * * * * * * * * * * * * * * * * * * * * * * * * * * * //

dimensions      [0 2 -2 0 0 0 0];


internalField   nonuniform List<scalar> 
9600
(
-21.5732
-16.2162
-13.0913
-10.6325
-8.60216
-6.97699
-5.67647
-4.63256
-3.7942
-3.12035
-2.57786
-2.14021
-1.78627
-1.49924
-1.26578
-1.07534
-0.919508
-0.791282
-0.68504
-0.599726
-21.5968
-16.2483
-13.1245
-10.6649
-8.63294
-7.00592
-5.70399
-4.65897
-3.81968
-3.145
-2.60172
-2.16324
-1.8084
-1.52037
-1.28582
-1.09419
-0.937114
-0.80754
-0.69984
-0.61356
-21.629
-16.2833
-13.1607
-10.699
-8.66595
-7.03719
-5.73384
-4.68776
-3.84759
-3.17215
-2.62813
-2.18889
-1.8332
-1.54423
-1.30863
-1.11587
-0.957579
-0.826687
-0.71756
-0.63034
-21.6677
-16.3222
-13.1998
-10.7351
-8.70093
-7.07052
-5.76581
-4.71871
-3.87774
-3.20162
-2.65695
-2.21702
-1.86057
-1.57072
-1.33414
-1.1403
-0.980834
-0.848662
-0.738149
-0.650024
-21.7111
-16.3647
-13.2415
-10.7737
-8.73797
-7.10589
-5.79983
-4.75175
-3.91004
-3.23331
-2.68807
-2.24753
-1.89039
-1.59974
-1.36224
-1.16737
-1.00679
-0.87338
-0.76152
-0.67253
-21.7585
-16.4105
-13.2857
-10.8146
-8.77696
-7.14314
-5.83573
-4.7867
-3.94431
-3.26705
-2.72132
-2.28026
-1.92251
-1.63114
-1.39279
-1.19696
-1.03531
-0.900704
-0.787542
-0.697735
-21.809
-16.459
-13.332
-10.8575
-8.81775
-7.18208
-5.87331
-4.82337
-3.98037
-3.30264
-2.7565
-2.315
-1.95672
-1.66471
-1.42559
-1.22886
-1.06621
-0.930456
-0.816039
-0.72547
-21.8623
-16.5099
-13.3802
-10.9022
-8.86009
-7.22249
-5.91235
-4.86153
-4.01796
-3.33985
-2.79338
-2.35152
-1.9928
-1.70023
-1.46041
-1.26285
-1.09926
-0.962413
-0.846791
-0.755526
-21.9179
-16.5629
-13.4301
-10.9484
-8.90373
-7.26411
-5.95259
-4.9009
-4.05682
-3.37839
-2.83167
-2.38954
-2.03046
-1.73741
-1.49697
-1.29866
-1.13419
-0.99631
-0.879538
-0.787649
-21.9754
-16.6175
-13.4813
-10.9958
-8.94836
-7.30665
-5.99373
-4.94121
-4.09666
-3.41797
-2.87107
-2.42874
-2.06938
-1.77592
-1.53494
-1.33596
-1.17068
-1.03184
-0.913973
-0.821543
-22.0346
-16.6734
-13.5335
-11.044
-8.99366
-7.34979
-6.03546
-4.98213
-4.13716
-3.45826
-2.91124
-2.46877
-2.1092
-1.81542
-1.57398
-1.37439
-1.20838
-1.06863
-0.949744
-0.856863
-22.0953
-16.7305
-13.5865
-11.0928
-9.03931
-7.3932
-6.07746
-5.02333
-4.17797
-3.49891
-2.95181
-2.50927
-2.14955
-1.8555
-1.61366
-1.41355
-1.24687
-1.1063
-0.98644
-0.893205
-22.1574
-16.7883
-13.6399
-11.1417
-9.08496
-7.43655
-6.11937
-5.06446
-4.21874
-3.53956
-2.99243
-2.54984
-2.19001
-1.89574
-1.65356
-1.45297
-1.2857
-1.14436
-1.02359
-0.930099
-22.2207
-16.8466
-13.6933
-11.1904
-9.13026
-7.47949
-6.16087
-5.1052
-4.25914
-3.57985
-3.03271
-2.5901
-2.23017
-1.93571
-1.6932
-1.49218
-1.32436
-1.1823
-1.06064
-0.967
-22.2853
-16.905
-13.7464
-11.2386
-9.17487
-7.5217
-6.20164
-5.14522
-4.29885
-3.61947
-3.07231
-2.62967
-2.26964
-1.97496
-1.73212
-1.53065
-1.36227
-1.21948
-1.09693
-1.0032
-22.3509
-16.9631
-13.7989
-11.2859
-9.2185
-7.56287
-6.24138
-5.18424
-4.33758
-3.65812
-3.11094
-2.66824
-2.30806
-2.0131
-1.76986
-1.56785
-1.39883
-1.25524
-1.13167
-1.03769
-22.419
-17.0209
-13.8504
-11.3319
-9.26071
-7.60261
-6.27975
-5.22196
-4.37507
-3.69556
-3.14836
-2.70556
-2.34515
-2.04982
-1.80604
-1.60337
-1.43359
-1.28904
-1.16407
-1.0693
-22.4938
-17.0795
-13.9003
-11.3759
-9.30084
-7.6404
-6.31633
-5.25806
-4.41105
-3.73157
-3.18438
-2.74146
-2.38074
-2.08489
-1.84037
-1.63678
-1.46594
-1.32001
-1.19282
-1.09698
-22.5775
-17.1385
-13.9475
-11.417
-9.33836
-7.67594
-6.35093
-5.29237
-4.44542
-3.76608
-3.21896
-2.77594
-2.41486
-2.11834
-1.87281
-1.66781
-1.49502
-1.34616
-1.21492
-1.11804
-22.6506
-17.1923
-13.9909
-11.4555
-9.37401
-7.70993
-6.38415
-5.32541
-4.47859
-3.79948
-3.25251
-2.80946
-2.44809
-2.15098
-1.90449
-1.69795
-1.52253
-1.36973
-1.23426
-1.13186
-22.5737
-22.6321
-22.6764
-22.7184
-22.7569
-22.7892
-22.8147
-22.8333
-22.8452
-22.8507
-22.8499
-22.8433
-22.8312
-22.8141
-22.7927
-22.7677
-22.7403
-22.7122
-22.6862
-22.6661
-17.0733
-17.1416
-17.1994
-17.2502
-17.2942
-17.3311
-17.3604
-17.3827
-17.3982
-17.4072
-17.41
-17.407
-17.3985
-17.3852
-17.3674
-17.3457
-17.321
-17.2937
-17.2645
-17.2317
-13.8218
-13.8935
-13.9562
-14.0104
-14.0569
-14.096
-14.1278
-14.1527
-14.171
-14.1829
-14.1888
-14.1891
-14.1839
-14.1739
-14.1594
-14.1407
-14.1183
-14.0924
-14.0631
-14.0299
-11.2708
-11.3394
-11.4005
-11.4539
-11.5
-11.5388
-11.5706
-11.5958
-11.6147
-11.6276
-11.6348
-11.6365
-11.6331
-11.6249
-11.6123
-11.5956
-11.5752
-11.5511
-11.5235
-11.4923
-9.19585
-9.25995
-9.31721
-9.36825
-9.41313
-9.45091
-9.48192
-9.50628
-9.52444
-9.53683
-9.54377
-9.54554
-9.54242
-9.53474
-9.52281
-9.50692
-9.48735
-9.46431
-9.43784
-9.40825
-7.56546
-7.62577
-7.67986
-7.72596
-7.76438
-7.79794
-7.82669
-7.84906
-7.86525
-7.87578
-7.88109
-7.88152
-7.87735
-7.86887
-7.85639
-7.84018
-7.82051
-7.79761
-7.77156
-7.74276
-6.28706
-6.3418
-6.39047
-6.43269
-6.46886
-6.49826
-6.52076
-6.53973
-6.55334
-6.56148
-6.56447
-6.56274
-6.55666
-6.54656
-6.53272
-6.5154
-6.49488
-6.4714
-6.4451
-6.41637
-5.28248
-5.33175
-5.37525
-5.41273
-5.44428
-5.47
-5.49035
-5.50414
-5.51351
-5.51887
-5.51935
-5.51514
-5.50674
-5.49457
-5.4789
-5.46003
-5.4382
-5.4137
-5.38668
-5.35754
-4.49122
-4.53537
-4.57397
-4.6068
-4.6339
-4.65548
-4.67181
-4.68297
-4.68904
-4.69015
-4.68786
-4.6812
-4.67042
-4.65603
-4.63837
-4.61775
-4.59443
-4.5687
-4.54074
-4.51095
-3.86499
-3.90442
-3.93847
-3.96699
-3.99002
-4.00776
-4.02042
-4.02823
-4.03139
-4.03002
-4.02408
-4.01489
-4.00187
-3.98534
-3.96574
-3.94338
-3.91857
-3.89158
-3.86266
-3.83215
-3.36574
-3.40092
-3.43088
-3.45552
-3.47489
-3.4892
-3.49862
-3.50336
-3.50362
-3.49961
-3.49132
-3.47963
-3.46449
-3.44603
-3.42465
-3.4007
-3.37452
-3.34639
-3.31658
-3.28545
-2.96405
-2.99548
-3.02184
-3.04306
-3.05923
-3.07053
-3.07713
-3.07922
-3.07699
-3.07068
-3.06059
-3.04655
-3.0295
-3.00935
-2.98644
-2.96112
-2.93375
-2.90466
-2.87412
-2.84251
-2.63738
-2.66555
-2.6888
-2.70708
-2.72049
-2.72921
-2.73341
-2.73326
-2.72895
-2.72068
-2.70869
-2.69311
-2.67448
-2.65291
-2.62872
-2.60228
-2.57394
-2.54406
-2.51297
-2.48109
-2.3686
-2.39396
-2.41454
-2.43032
-2.4414
-2.44796
-2.45016
-2.44816
-2.44214
-2.43228
-2.41881
-2.40199
-2.38202
-2.35931
-2.33412
-2.30678
-2.27768
-2.24721
-2.21573
-2.18377
-2.1447
-2.16767
-2.18599
-2.19967
-2.20881
-2.21357
-2.21413
-2.21065
-2.20327
-2.19215
-2.17753
-2.15967
-2.13872
-2.11514
-2.08917
-2.06115
-2.03146
-2.00055
-1.96882
-1.93695
-1.95587
-1.9768
-1.99322
-2.00513
-2.01265
-2.01595
-2.01519
-2.01052
-2.00209
-1.99001
-1.97449
-1.95581
-1.93416
-1.90993
-1.88338
-1.85484
-1.82469
-1.79344
-1.7615
-1.72994
-1.7947
-1.8139
-1.82871
-1.83914
-1.84533
-1.84742
-1.84559
-1.83998
-1.83073
-1.8179
-1.8017
-1.7824
-1.76023
-1.73552
-1.70852
-1.67955
-1.649
-1.61741
-1.58512
-1.55399
-1.6555
-1.67332
-1.68686
-1.69614
-1.70129
-1.70249
-1.69989
-1.69364
-1.68375
-1.67021
-1.65369
-1.63402
-1.61154
-1.58653
-1.55923
-1.52997
-1.49909
-1.46714
-1.43427
-1.4033
-1.5338
-1.55063
-1.56329
-1.5718
-1.57631
-1.577
-1.57411
-1.56778
-1.55783
-1.54365
-1.52728
-1.50769
-1.48536
-1.4605
-1.43338
-1.4043
-1.37356
-1.34165
-1.30844
-1.27801
-1.42668
-1.44193
-1.45317
-1.46044
-1.46383
-1.46353
-1.45984
-1.45326
-1.44404
-1.43168
-1.41316
-1.39316
-1.37092
-1.34628
-1.31947
-1.29074
-1.26039
-1.22871
-1.19535
-1.16896
-19.5325
-19.7186
-19.8938
-20.0762
-20.2629
-20.4491
-20.6323
-20.8116
-20.9862
-21.1555
-21.3186
-21.4751
-21.6245
-21.7665
-21.9011
-22.0281
-22.1478
-22.261
-22.3689
-22.4736
-14.0772
-14.2712
-14.4602
-14.6479
-14.8345
-15.0185
-15.1984
-15.3739
-15.5445
-15.7097
-15.869
-16.022
-16.1682
-16.3073
-16.4393
-16.564
-16.6815
-16.7918
-16.8949
-16.9896
-10.9324
-11.1224
-11.3091
-11.4919
-11.6719
-11.8488
-12.0219
-12.1907
-12.3548
-12.5136
-12.6668
-12.814
-12.9548
-13.0888
-13.2159
-13.3357
-13.4481
-13.5532
-13.651
-13.741
-8.51629
-8.69659
-8.8747
-9.04939
-9.2211
-9.38972
-9.55467
-9.71552
-9.87186
-10.0233
-10.1694
-10.3098
-10.4443
-10.5725
-10.6943
-10.8093
-10.9175
-11.0184
-11.1113
-11.1959
-6.60139
-6.77129
-6.93973
-7.10535
-7.26805
-7.42759
-7.58355
-7.73552
-7.88311
-8.02593
-8.16363
-8.29587
-8.42236
-8.54281
-8.65698
-8.76463
-8.86553
-8.95943
-9.04596
-9.12514
-5.12997
-5.29019
-5.44921
-5.60576
-5.75945
-5.90998
-6.057
-6.20012
-6.33897
-6.47319
-6.60243
-6.7264
-6.84479
-6.95736
-7.06388
-7.16413
-7.25793
-7.34513
-7.42552
-7.49925
-4.00716
-4.15853
-4.3087
-4.45656
-4.60163
-4.74358
-4.88208
-5.01674
-5.14721
-5.27313
-5.3942
-5.51013
-5.62064
-5.72551
-5.82452
-5.91751
-6.00432
-6.08482
-6.15886
-6.22656
-3.15011
-3.29336
-3.43535
-3.57512
-3.71215
-3.8461
-3.97663
-4.10337
-4.22596
-4.34408
-4.45743
-4.56573
-4.66876
-4.76629
-4.85815
-4.94416
-5.02421
-5.09818
-5.16596
-5.22764
-2.49575
-2.63156
-2.76604
-2.89835
-3.02797
-3.15453
-3.2777
-3.3971
-3.5124
-3.62328
-3.72947
-3.8307
-3.92677
-4.01748
-4.10266
-4.18217
-4.2559
-4.32376
-4.38565
-4.44168
-1.99502
-2.12398
-2.25159
-2.37707
-2.49988
-2.61967
-2.73609
-2.84876
-2.95737
-3.0616
-3.16122
-3.25597
-3.34566
-3.43012
-3.50919
-3.58275
-3.6507
-3.71296
-3.76947
-3.82032
-1.60984
-1.73251
-1.85384
-1.97307
-2.08967
-2.20328
-2.31352
-2.42005
-2.52254
-2.62072
-2.71435
-2.80321
-2.88712
-2.96592
-3.03947
-3.10765
-3.17038
-3.22761
-3.27927
-3.32546
-1.31116
-1.42802
-1.54363
-1.65719
-1.76814
-1.87611
-1.98074
-2.08167
-2.1786
-2.27128
-2.35949
-2.44303
-2.52173
-2.59543
-2.66402
-2.7274
-2.78548
-2.83823
-2.88559
-2.92765
-1.07703
-1.18857
-1.29902
-1.40744
-1.51326
-1.61611
-1.71562
-1.81146
-1.90335
-1.99105
-2.07437
-2.15312
-2.22714
-2.2963
-2.36047
-2.41958
-2.47355
-2.52235
-2.56593
-2.60437
-0.89105
-0.99774
-1.10359
-1.20738
-1.30855
-1.40674
-1.50159
-1.5928
-1.68012
-1.76333
-1.84224
-1.91669
-1.98653
-2.05163
-2.11189
-2.16723
-2.21759
-2.26292
-2.30321
-2.33851
-0.741036
-0.843374
-0.945187
-1.04482
-1.14177
-1.23572
-1.32633
-1.41334
-1.49651
-1.57565
-1.6506
-1.72119
-1.78729
-1.84878
-1.90558
-1.9576
-2.00478
-2.0471
-2.08454
-2.11713
-0.61796
-0.716694
-0.815089
-0.910965
-1.00406
-1.09413
-1.18086
-1.26401
-1.34341
-1.41886
-1.49022
-1.55733
-1.62008
-1.67836
-1.73208
-1.78117
-1.82557
-1.86525
-1.9002
-1.93045
-0.514601
-0.610956
-0.706689
-0.79914
-0.888667
-0.975156
-1.05831
-1.13793
-1.21387
-1.28597
-1.35408
-1.41807
-1.47783
-1.53324
-1.58424
-1.63074
-1.6727
-1.71009
-1.74289
-1.77113
-0.423344
-0.518544
-0.612694
-0.702192
-0.788541
-0.871844
-0.951824
-1.02834
-1.10126
-1.17044
-1.23575
-1.29707
-1.35427
-1.40726
-1.45596
-1.50031
-1.54025
-1.57575
-1.60679
-1.6334
-0.338553
-0.433618
-0.527518
-0.614922
-0.69875
-0.779421
-0.856758
-0.930679
-1.00108
-1.06784
-1.13082
-1.1899
-1.24499
-1.29599
-1.34282
-1.38542
-1.42374
-1.45774
-1.48742
-1.5128
-0.281804
-0.380261
-0.472406
-0.55679
-0.637388
-0.71464
-0.788495
-0.858955
-0.92594
-0.989336
-1.04903
-1.10493
-1.15694
-1.20498
-1.249
-1.28894
-1.32477
-1.35646
-1.38401
-1.40743
1.30744
1.3009
1.28723
1.2656
1.23257
1.18334
1.11141
1.00783
0.860413
0.652788
0.363383
-0.0358511
-0.580863
-1.31716
-2.30288
-3.61541
-5.34648
-7.55765
-10.4881
-15.7516
1.24797
1.23874
1.22308
1.1992
1.16369
1.11185
1.03724
0.930935
0.780804
0.570534
0.278561
-0.123206
-0.670852
-1.41013
-2.39953
-3.71687
-5.45423
-7.67294
-10.6091
-15.8714
1.18509
1.17299
1.15522
1.12896
1.09082
1.03622
0.958725
0.849482
0.696388
0.483175
0.188294
-0.216389
-0.767088
-1.50978
-2.50328
-3.82575
-5.56949
-7.79565
-10.737
-15.9952
1.11901
1.10386
1.08388
1.05512
1.01422
0.956692
0.876167
0.763799
0.607528
0.391124
0.0930479
-0.314874
-0.868972
-1.61544
-2.61337
-3.94122
-5.69148
-7.92532
-10.8739
-16.1333
1.0499
1.03153
1.00924
0.977875
0.934072
0.873489
0.789776
0.674108
0.514461
0.294637
-0.00689619
-0.418353
-0.976178
-1.72677
-2.72952
-4.06317
-5.82039
-8.06246
-11.0196
-16.2838
0.977927
0.956204
0.931511
0.897414
0.850583
0.786802
0.699746
0.580604
0.417383
0.193911
-0.111338
-0.526619
-1.08849
-1.84357
-2.85153
-4.19144
-5.95615
-8.20696
-11.1733
-16.444
0.903267
0.878057
0.850876
0.813942
0.763958
0.696845
0.606298
0.483515
0.316524
0.0891774
-0.220047
-0.639447
-1.2057
-1.96561
-2.97915
-4.32572
-6.09834
-8.35829
-11.3343
-16.6122
0.826077
0.79728
0.767538
0.727664
0.674413
0.603845
0.50967
0.383088
0.212145
-0.0192901
-0.33274
-0.756545
-1.32749
-2.09258
-3.11207
-4.46567
-6.2466
-8.51605
-11.502
-16.7878
0.746505
0.714048
0.681689
0.638785
0.582164
0.508032
0.410105
0.279581
0.104518
-0.131204
-0.449111
-0.877593
-1.45354
-2.22415
-3.24995
-4.61095
-6.40055
-8.67985
-11.6761
-16.9702
0.664688
0.628531
0.593518
0.547509
0.487433
0.409642
0.307857
0.173264
-0.0060726
-0.246263
-0.568847
-1.00226
-1.5835
-2.35995
-3.3924
-4.76116
-6.5598
-8.84926
-11.856
-17.1588
0.580752
0.540898
0.50322
0.45405
0.390452
0.308928
0.203195
0.0644232
-0.119322
-0.364149
-0.691612
-1.13019
-1.717
-2.4996
-3.53904
-4.9159
-6.7239
-9.0238
-12.0413
-17.3529
0.494819
0.451323
0.411
0.35864
0.291476
0.206166
0.0964156
-0.0466282
-0.234901
-0.484516
-0.817043
-1.26102
-1.85366
-2.6427
-3.68943
-5.0747
-6.89238
-9.20299
-12.2314
-17.5519
0.40702
0.360004
0.317097
0.261544
0.190797
0.10167
-0.0121515
-0.159543
-0.352449
-0.606986
-0.944751
-1.39433
-1.99305
-2.78881
-3.84314
-5.23712
-7.06477
-9.38633
-12.4259
-17.7553
0.317522
0.267188
0.2218
0.163084
0.0887609
-0.00419774
-0.122127
-0.273932
-0.471564
-0.731152
-1.07432
-1.52971
-2.13474
-2.93748
-3.99968
-5.40268
-7.24057
-9.57333
-12.6241
-17.9625
0.226568
0.173221
0.125497
0.0636697
-0.0142085
-0.111002
-0.233073
-0.389354
-0.591805
-0.85657
-1.2053
-1.66669
-2.27825
-3.08823
-4.15857
-5.57085
-7.41927
-9.7635
-12.8258
-18.1733
0.134547
0.0786187
0.0287254
-0.0361631
-0.117584
-0.21823
-0.344491
-0.505324
-0.7127
-0.982775
-1.33723
-1.80481
-2.42312
-3.24057
-4.3193
-5.74112
-7.60034
-9.95634
-13.0305
-18.3874
0.0421142
-0.0158324
-0.0677523
-0.135715
-0.220724
-0.325291
-0.455833
-0.62133
-0.83376
-1.10929
-1.46963
-1.94358
-2.56885
-3.39397
-4.48133
-5.91292
-7.78319
-10.1513
-13.2379
-18.6048
-0.0494456
-0.108807
-0.162825
-0.234096
-0.322893
-0.431554
-0.566546
-0.736872
-0.954517
-1.23567
-1.60206
-2.08255
-2.71496
-3.54796
-4.64413
-6.08569
-7.96719
-10.3477
-13.4478
-18.8263
-0.138046
-0.198095
-0.254926
-0.330244
-0.423299
-0.536396
-0.676118
-0.851499
-1.07454
-1.36147
-1.73405
-2.22124
-2.86091
-3.70191
-4.80701
-6.25865
-8.1515
-10.5447
-13.6596
-19.0538
-0.221567
-0.281376
-0.343886
-0.424436
-0.521984
-0.639739
-0.784433
-0.965061
-1.19365
-1.48649
-1.86542
-2.35942
-3.00651
-3.85561
-4.96969
-6.4314
-8.33542
-10.7406
-13.8708
-19.2901
1.51667
1.5434
1.56721
1.57691
1.57138
1.54678
1.49533
1.40626
1.2657
1.05619
0.756146
0.339008
-0.227884
-0.984804
-1.98254
-3.29061
-4.99765
-7.14047
-9.99376
-15.1893
1.56751
1.58311
1.59781
1.6042
1.59766
1.57292
1.52205
1.43432
1.29587
1.08924
0.792774
0.379812
-0.182502
-0.934736
-1.92788
-3.23099
-4.93486
-7.076
-9.9239
-15.1057
1.60762
1.61825
1.6282
1.63207
1.62411
1.59857
1.54754
1.46037
1.32325
1.11873
0.825119
0.415634
-0.142766
-0.890983
-1.88031
-3.17809
-4.87939
-7.01954
-9.86056
-15.0238
1.63779
1.64699
1.65458
1.65671
1.64757
1.62126
1.56996
1.48312
1.34699
1.14419
0.852988
0.446527
-0.108427
-0.853055
-1.83846
-3.13264
-4.83087
-6.97113
-9.80837
-14.9621
1.6619
1.67047
1.67636
1.67702
1.66679
1.63974
1.58813
1.5015
1.3662
1.16487
0.875806
0.472055
-0.0798522
-0.821436
-1.80161
-3.09585
-4.79049
-6.93071
-9.76704
-14.9175
1.67954
1.68796
1.69262
1.69208
1.68089
1.65315
1.60121
1.51472
1.38011
1.18011
0.892963
0.491639
-0.0573953
-0.795136
-1.77382
-3.06631
-4.75823
-6.89877
-9.7356
-14.8857
1.69117
1.69951
1.70308
1.70149
1.68941
1.66099
1.60869
1.52225
1.38824
1.18939
0.903951
0.504726
-0.0416828
-0.775999
-1.75379
-3.04413
-4.73435
-6.8758
-9.714
-14.8653
1.69696
1.70508
1.70767
1.70503
1.69215
1.66302
1.6103
1.52382
1.39025
1.19239
0.90837
0.51088
-0.0318436
-0.765608
-1.74115
-3.02979
-4.7192
-6.86214
-9.7025
-14.8562
1.69493
1.70408
1.70608
1.70265
1.68891
1.65901
1.60598
1.51927
1.38597
1.18886
0.906192
0.511362
-0.0310231
-0.762557
-1.73606
-3.02368
-4.71303
-6.858
-9.70127
-14.8582
1.68919
1.69788
1.69907
1.69468
1.68003
1.64937
1.59549
1.5085
1.37537
1.179
0.897469
0.503511
-0.0371741
-0.76673
-1.73887
-3.02606
-4.71594
-6.86349
-9.71035
-14.8713
1.67805
1.6863
1.68661
1.68117
1.66547
1.63387
1.57921
1.49175
1.35846
1.16234
0.881586
0.488755
-0.050401
-0.778558
-1.74985
-3.03706
-4.72803
-6.87868
-9.72975
-14.8952
1.66171
1.66943
1.66879
1.66219
1.64534
1.61264
1.55703
1.46888
1.33523
1.13916
0.858928
0.467017
-0.0710467
-0.798251
-1.7691
-3.05676
-4.74935
-6.90363
-9.75949
-14.9298
1.64039
1.64739
1.64569
1.63786
1.61973
1.58578
1.52905
1.43999
1.30577
1.10952
0.82951
0.438164
-0.0991893
-0.825817
-1.79661
-3.08517
-4.77993
-6.93837
-9.79959
-14.9753
1.61421
1.62028
1.61745
1.60827
1.58874
1.5534
1.49537
1.40521
1.27017
1.07346
0.793369
0.402241
-0.134764
-0.8612
-1.83236
-3.12229
-4.81976
-6.98291
-9.85004
-15.0315
1.5833
1.58823
1.58417
1.57355
1.55249
1.51562
1.45611
1.36464
1.22854
1.03109
0.750606
0.359353
-0.177676
-0.904323
-1.87629
-3.16807
-4.86879
-7.03721
-9.91087
-15.0985
1.54782
1.55139
1.546
1.53382
1.5111
1.47254
1.4114
1.31841
1.18101
0.982547
0.701344
0.309617
-0.227816
-0.955083
-1.92829
-3.22241
-4.92694
-7.10124
-9.98209
-15.1764
1.50791
1.5099
1.50307
1.48923
1.46472
1.42433
1.36136
1.26665
1.12771
0.927956
0.645722
0.253168
-0.285048
-1.01335
-1.98825
-3.28518
-4.99408
-7.17488
-10.0638
-15.2655
1.46375
1.46394
1.45556
1.43994
1.4135
1.37112
1.30616
1.20953
1.06881
0.867473
0.583891
0.190162
-0.349219
-1.07896
-2.05599
-3.35622
-5.07003
-7.25797
-10.1559
-15.3664
1.41549
1.41365
1.40362
1.3861
1.35759
1.31307
1.24596
1.14719
1.00445
0.801273
0.516037
0.120794
-0.420118
-1.15169
-2.13126
-3.43525
-5.15447
-7.35013
-10.2584
-15.4804
1.36331
1.35921
1.3474
1.32787
1.29716
1.25034
1.18087
1.07977
0.93477
0.729462
0.442251
0.0451358
-0.497693
-1.23149
-2.21401
-3.52216
-5.24715
-7.45064
-10.37
-15.6092
1.54707
1.56067
1.53354
1.49378
1.44583
1.39058
1.32883
1.26118
1.18821
1.11056
1.0289
0.943918
0.856277
0.766628
0.675594
0.583756
0.491645
0.39974
0.308466
0.21817
1.54599
1.55294
1.53286
1.49854
1.4543
1.40153
1.34134
1.27457
1.202
1.12439
1.04248
0.957003
0.868652
0.778114
0.686034
0.593012
0.499598
0.40628
0.313501
0.22162
1.55919
1.55309
1.53217
1.49975
1.45728
1.40574
1.34622
1.2797
1.20707
1.12917
1.04679
0.960686
0.871584
0.780172
0.687098
0.592964
0.498313
0.403631
0.309361
0.215852
1.56188
1.54824
1.52582
1.49388
1.45224
1.4014
1.34228
1.27582
1.20295
1.12455
1.04145
0.954414
0.8642
0.771504
0.676981
0.581235
0.484813
0.388203
0.291853
0.196104
1.55155
1.53299
1.50855
1.47592
1.43417
1.38337
1.32416
1.25737
1.18392
1.10466
1.02045
0.932075
0.840297
0.745826
0.64933
0.551418
0.452644
0.353506
0.254464
0.155853
1.52351
1.50083
1.47358
1.43917
1.39627
1.34462
1.2846
1.21688
1.14229
1.06166
0.975834
0.885606
0.791741
0.694962
0.595944
0.495307
0.393613
0.291374
0.189062
0.0870076
1.46911
1.44255
1.41187
1.37471
1.32965
1.2762
1.21451
1.14511
1.0687
0.986072
0.898027
0.805357
0.708824
0.609159
0.507045
0.40311
0.297926
0.19202
0.0858809
-0.0201715
1.377
1.34649
1.31185
1.27111
1.22293
1.16671
1.10245
1.03054
0.951557
0.866225
0.775302
0.679557
0.579748
0.476605
0.370815
0.263015
0.153787
0.0436741
-0.0668184
-0.177386
1.233
1.19825
1.1591
1.11402
1.06184
1.00194
0.934226
0.858952
0.776616
0.687853
0.593373
0.493915
0.390223
0.28302
0.172995
0.0607897
-0.0530053
-0.167828
-0.283159
-0.398715
1.01953
0.980108
0.935928
0.885851
0.828886
0.764472
0.692458
0.61302
0.526567
0.433663
0.334962
0.231169
0.123005
0.0111853
-0.103606
-0.220728
-0.339579
-0.459579
-0.580196
-0.701172
0.71496
0.670432
0.620751
0.565113
0.502711
0.433064
0.356012
0.27168
0.180408
0.0826965
-0.0208529
-0.129574
-0.242769
-0.35974
-0.479809
-0.602337
-0.726715
-0.852339
-0.978665
-1.10547
0.292822
0.242807
0.187249
0.125617
0.0572675
-0.0181866
-0.100889
-0.190742
-0.287455
-0.39058
-0.499562
-0.613772
-0.732539
-0.855182
-0.981035
-1.10946
-1.23984
-1.37154
-1.504
-1.63705
-0.279404
-0.335146
-0.396811
-0.464706
-0.539342
-0.621016
-0.709841
-0.805727
-0.908412
-1.01749
-1.13245
-1.25268
-1.37755
-1.5064
-1.63855
-1.7734
-1.91028
-2.04854
-2.18761
-2.32736
-1.04178
-1.10328
-1.17106
-1.24529
-1.32637
-1.41451
-1.50979
-1.6121
-1.72119
-1.8367
-1.95813
-2.08491
-2.21642
-2.35201
-2.49104
-2.63286
-2.77682
-2.92221
-3.06842
-3.2154
-2.04492
-2.11191
-2.18559
-2.26604
-2.35358
-2.44829
-2.55019
-2.65917
-2.775
-2.89732
-3.02567
-3.15949
-3.29818
-3.44109
-3.58759
-3.73704
-3.88874
-4.04192
-4.19593
-4.35075
-3.35793
-3.42994
-3.50916
-3.59554
-3.68921
-3.79012
-3.89839
-4.01395
-4.13658
-4.26592
-4.40148
-4.54274
-4.68907
-4.83985
-4.99443
-5.15216
-5.31233
-5.47409
-5.63666
-5.80001
-5.06791
-5.1439
-5.22723
-5.31803
-5.41611
-5.52162
-5.63519
-5.75666
-5.88569
-6.02182
-6.16455
-6.31333
-6.46752
-6.6265
-6.7896
-6.95616
-7.12546
-7.29657
-7.46849
-7.641
-7.21284
-7.29003
-7.37492
-7.46817
-7.57078
-7.68274
-7.80308
-7.93139
-8.06738
-8.2107
-8.36089
-8.51744
-8.67978
-8.84727
-9.01927
-9.19507
-9.37399
-9.55519
-9.73755
-9.92011
-10.0623
-10.136
-10.2183
-10.3109
-10.4138
-10.5268
-10.6493
-10.7809
-10.921
-11.0692
-11.2248
-11.3874
-11.5563
-11.731
-11.9108
-12.0949
-12.2829
-12.4747
-12.6698
-12.8645
-15.2296
-15.2866
-15.362
-15.4523
-15.5551
-15.669
-15.7933
-15.9271
-16.0701
-16.2217
-16.3814
-16.5485
-16.7227
-16.9034
-17.0901
-17.2823
-17.4802
-17.6856
-17.8995
-18.1103
0.128998
0.0414616
-0.0444792
-0.128772
-0.211442
-0.292619
-0.372483
-0.4513
-0.529395
-0.607121
-0.684781
-0.762547
-0.840319
-0.91753
-0.992891
-1.06378
-1.12552
-1.1728
-1.19382
-1.12144
0.130753
0.0414996
-0.0462245
-0.132348
-0.216895
-0.299978
-0.381772
-0.462525
-0.542534
-0.622097
-0.70143
-0.780577
-0.85925
-0.936615
-1.01099
-1.07933
-1.13667
-1.17649
-1.18379
-1.11653
0.123192
0.0320386
-0.0577317
-0.146039
-0.2329
-0.318412
-0.402732
-0.486077
-0.568691
-0.650786
-0.732466
-0.81362
-0.893763
-0.971826
-1.04589
-1.11272
-1.16761
-1.20458
-1.21157
-1.16297
0.101029
0.00734199
-0.085111
-0.176234
-0.266031
-0.354575
-0.441999
-0.528482
-0.614205
-0.699294
-0.783743
-0.867308
-0.94934
-1.0286
-1.10303
-1.16941
-1.22329
-1.25912
-1.26751
-1.23341
0.0577322
-0.0391169
-0.134876
-0.229426
-0.32275
-0.414897
-0.505965
-0.596087
-0.685374
-0.77386
-0.861435
-0.947723
-1.03193
-1.1127
-1.18788
-1.25434
-1.30793
-1.34361
-1.35413
-1.33124
-0.0147388
-0.115326
-0.214958
-0.313487
-0.410872
-0.507129
-0.60232
-0.696519
-0.789758
-0.881978
-0.97296
-1.0622
-1.14878
-1.23124
-1.3074
-1.37427
-1.4281
-1.46448
-1.47804
-1.46461
-0.126093
-0.230952
-0.334976
-0.437979
-0.539894
-0.6407
-0.740411
-0.839034
-0.936521
-1.03271
-1.12728
-1.2196
-1.30865
-1.39289
-1.47019
-1.53775
-1.59225
-1.63002
-1.64725
-1.64215
-0.287989
-0.397606
-0.506481
-0.614389
-0.721231
-0.826943
-0.931484
-1.03479
-1.13672
-1.23702
-1.33526
-1.43069
-1.52223
-1.60832
-1.68689
-1.7554
-1.811
-1.85073
-1.87199
-1.87434
-0.514456
-0.629259
-0.743385
-0.856562
-0.968657
-1.07956
-1.18916
-1.29732
-1.40381
-1.50829
-1.61021
-1.70876
-1.8028
-1.89079
-1.97079
-2.04055
-2.09767
-2.13981
-2.1653
-2.17444
-0.822465
-0.942835
-1.06256
-1.18132
-1.29893
-1.41524
-1.53007
-1.6432
-1.75433
-1.86301
-1.96862
-2.07029
-2.16686
-2.25686
-2.33851
-2.40985
-2.46888
-2.51384
-2.54365
-2.55905
-1.23271
-1.359
-1.48464
-1.60925
-1.73263
-1.85454
-1.97474
-2.09294
-2.20876
-2.32168
-2.43101
-2.53585
-2.63505
-2.72724
-2.81081
-2.88409
-2.94544
-2.99352
-3.02771
-3.04895
-1.77063
-1.90319
-2.03506
-2.16581
-2.29519
-2.4229
-2.54864
-2.67204
-2.79265
-2.90989
-3.02305
-3.13118
-3.23321
-3.32784
-3.41368
-3.48928
-3.55335
-3.60484
-3.64343
-3.67019
-2.46772
-2.60694
-2.7454
-2.8826
-3.01825
-3.15201
-3.28351
-3.41232
-3.53791
-3.65967
-3.77685
-3.88853
-3.99368
-4.09112
-4.17962
-4.25799
-4.32516
-4.38032
-4.42334
-4.45541
-3.36304
-3.50938
-3.65485
-3.7989
-3.9412
-4.08137
-4.21896
-4.35348
-4.48437
-4.61097
-4.73252
-4.84813
-4.95682
-5.05753
-5.14919
-5.23081
-5.30151
-5.36062
-5.40812
-5.44534
-4.50626
-4.66026
-4.81324
-4.96464
-5.11409
-5.26114
-5.40529
-5.54601
-5.68267
-5.8146
-5.94102
-6.06108
-6.17386
-6.2784
-6.37379
-6.45919
-6.53389
-6.59727
-6.64933
-6.69152
-5.96401
-6.12623
-6.28731
-6.44663
-6.60382
-6.75835
-6.9097
-7.05724
-7.20032
-7.33823
-7.4702
-7.5954
-7.71298
-7.82206
-7.92186
-8.01169
-8.09096
-8.15906
-8.21583
-8.26277
-7.81402
-7.98496
-8.15459
-8.32238
-8.4879
-8.65058
-8.80983
-8.96496
-9.11527
-9.26001
-9.39839
-9.52963
-9.65291
-9.76746
-9.8726
-9.96777
-10.0525
-10.1262
-10.1885
-10.2407
-10.1021
-10.2818
-10.4601
-10.6365
-10.8107
-10.9821
-11.1498
-11.3132
-11.4715
-11.6238
-11.7693
-11.9074
-12.0371
-12.1579
-12.269
-12.37
-12.4606
-12.5405
-12.6092
-12.6664
-13.0533
-13.2394
-13.4245
-13.6086
-13.7911
-13.971
-14.1474
-14.3194
-14.486
-14.6463
-14.7996
-14.9451
-15.082
-15.2097
-15.3276
-15.4351
-15.5325
-15.6212
-15.7014
-15.7685
-18.29
-18.4739
-18.6622
-18.8522
-19.0416
-19.2287
-19.4125
-19.5917
-19.7654
-19.9326
-20.0925
-20.2443
-20.3874
-20.5214
-20.646
-20.7609
-20.8677
-20.971
-21.0737
-21.1574
-21.1766
-15.8143
-12.7114
-10.2853
-8.30163
-6.72543
-5.47397
-4.47837
-3.68721
-3.05963
-2.56288
-2.17071
-1.86209
-1.61999
-1.43053
-1.28196
-1.16374
-1.06658
-0.983367
-0.89504
-21.194
-15.8474
-12.7452
-10.3189
-8.33057
-6.74973
-5.49319
-4.49209
-3.69505
-3.06119
-2.55766
-2.15813
-1.84147
-1.59058
-1.39156
-1.23276
-1.10421
-0.998554
-0.911863
-0.826954
-21.2126
-15.8725
-12.7712
-10.3451
-8.35262
-6.76741
-5.50594
-4.49954
-3.69692
-3.05716
-2.5474
-2.14131
-1.81777
-1.55974
-1.35346
-1.18759
-1.05272
-0.942342
-0.854021
-0.775265
-21.2303
-15.8928
-12.7919
-10.3646
-8.36872
-6.7798
-5.51376
-4.50246
-3.69479
-3.04982
-2.53472
-2.12323
-1.79429
-1.53101
-1.3198
-1.14963
-1.01151
-0.899282
-0.810435
-0.733854
-21.2458
-15.9094
-12.8083
-10.3794
-8.38006
-6.78829
-5.51825
-4.5026
-3.69054
-3.04113
-2.52162
-2.10586
-1.77286
-1.50583
-1.29135
-1.1186
-0.978837
-0.865989
-0.777159
-0.701908
-21.2589
-15.9231
-12.8214
-10.3906
-8.38822
-6.79358
-5.52025
-4.50111
-3.68558
-3.03254
-2.50949
-2.09039
-1.75432
-1.48463
-1.26796
-1.0936
-0.952933
-0.83983
-0.750964
-0.676556
-21.2702
-15.9349
-12.8324
-10.3997
-8.39476
-6.79743
-5.52126
-4.49907
-3.68039
-3.02435
-2.49863
-2.07739
-1.73891
-1.46724
-1.24903
-1.07359
-0.932321
-0.818998
-0.729898
-0.655858
-21.2802
-15.9453
-12.8421
-10.4078
-8.40077
-6.80093
-5.52217
-4.4973
-3.67597
-3.01732
-2.4896
-2.06668
-1.72644
-1.45329
-1.23393
-1.05764
-0.915833
-0.802189
-0.71264
-0.638586
-21.2897
-15.9552
-12.8514
-10.4156
-8.40677
-6.80453
-5.52345
-4.49627
-3.67271
-3.01217
-2.48302
-2.05827
-1.71671
-1.44241
-1.22207
-1.04499
-0.902608
-0.788488
-0.698281
-0.623923
-21.2995
-15.9653
-12.8609
-10.4237
-8.41313
-6.80872
-5.52554
-4.49634
-3.67091
-3.00929
-2.47874
-2.05224
-1.70957
-1.43426
-1.21299
-1.03511
-0.892047
-0.77728
-0.686227
-0.611347
-21.3101
-15.9762
-12.8711
-10.4326
-8.42015
-6.81385
-5.52876
-4.498
-3.6714
-3.00862
-2.4763
-2.04859
-1.70488
-1.42857
-1.20638
-1.02763
-0.883759
-0.768186
-0.676124
-0.600557
-21.3223
-15.9884
-12.8827
-10.4427
-8.42827
-6.82041
-5.53379
-4.50164
-3.67414
-3.00964
-2.47601
-2.04722
-1.70249
-1.42519
-1.20202
-1.02232
-0.877527
-0.761002
-0.667791
-0.591418
-21.3367
-16.0026
-12.896
-10.4543
-8.43815
-6.82879
-5.541
-4.5076
-3.67835
-3.01264
-2.4779
-2.04808
-1.70233
-1.42401
-1.19982
-1.01908
-0.873258
-0.755657
-0.661184
-0.583917
-21.3539
-16.0191
-12.9114
-10.468
-8.45012
-6.83959
-5.55025
-4.51523
-3.68464
-3.0178
-2.48201
-2.05117
-1.70439
-1.42502
-1.19974
-1.0179
-0.870954
-0.752177
-0.656352
-0.578132
-21.3745
-16.0382
-12.9293
-10.4841
-8.46473
-6.85245
-5.56133
-4.52495
-3.69313
-3.02519
-2.48837
-2.05651
-1.7087
-1.42825
-1.20184
-1.01882
-0.87069
-0.750658
-0.653414
-0.574202
-21.3988
-16.0603
-12.9498
-10.5027
-8.48196
-6.86725
-5.57458
-4.5369
-3.70389
-3.03489
-2.49706
-2.06419
-1.71533
-1.43377
-1.20619
-1.02196
-0.872587
-0.751242
-0.65253
-0.572305
-21.4281
-16.0856
-12.973
-10.524
-8.50146
-6.88432
-5.59007
-4.55112
-3.71698
-3.04695
-2.50814
-2.07426
-1.72435
-1.44168
-1.21291
-1.02744
-0.876793
-0.754093
-0.653883
-0.572631
-21.4655
-16.1152
-12.9992
-10.5477
-8.52311
-6.90361
-5.60775
-4.56757
-3.73237
-3.06136
-2.52161
-2.08677
-1.73583
-1.45205
-1.22211
-1.03539
-0.883444
-0.759369
-0.657645
-0.575364
-21.5124
-16.1494
-13.0282
-10.5733
-8.54676
-6.92514
-5.6277
-4.58632
-3.7501
-3.07816
-2.53751
-2.10175
-1.74981
-1.46495
-1.23384
-1.04588
-0.89265
-0.767197
-0.663966
-0.580667
-21.5573
-16.1847
-13.0596
-10.6008
-8.57286
-6.94947
-5.65049
-4.60788
-3.7706
-3.09772
-2.55616
-2.11946
-1.76653
-1.48058
-1.2483
-1.05911
-0.904583
-0.777751
-0.673019
-0.588719
-0.395461
-0.252731
-0.185659
-0.132609
-0.0947208
-0.0650743
-0.0451934
-0.0321503
-0.023976
-0.0186865
-0.0150875
-0.0124619
-0.0104386
-0.00881013
-0.00745583
-0.00629471
-0.00527722
-0.00439439
-0.00364271
-0.00302098
-0.00251123
-0.00209363
-0.00174925
-0.00146381
-0.00122477
-0.00101728
-0.000838078
-0.000676983
-0.000535575
-0.000415937
-0.000311171
-0.000229494
-0.000164703
-0.000111762
-7.53383e-05
-4.66342e-05
-2.25095e-05
-9.89119e-06
-7.08884e-06
-1.15519e-06
-0.410611
-0.25278
-0.185788
-0.129898
-0.0930709
-0.0639306
-0.0447906
-0.0321963