/*--------------------------------*- C++ -*----------------------------------*\
  =========                 |
  \\      /  F ield         | OpenFOAM: The Open Source CFD Toolbox
   \\    /   O peration     | Website:  https://openfoam.org
    \\  /    A nd           | Version:  6.0
     \\/     M anipulation  |
\*---------------------------------------------------------------------------*/
FoamFile
{
    version     2.0;
    format      ascii;
    class       surfaceScalarField;
    location    "5.25";
    object      phi;
}
// * * * * * * * * * * * * * * * * * * * * * * * * * * * * * * * * * * * * * //

dimensions      [0 3 -1 0 0 0 0];

internalField   nonuniform List<scalar> 
38030
(
2.56323e-05
-0.0797372
0.0797115
0.000134039
-0.0739449
0.0738365
0.000319166
-0.0692178
0.0690326
0.000574861
-0.0653526
0.0650969
0.000894924
-0.0621792
0.0618592
0.00127247
-0.0595564
0.0591788
0.00170032
-0.0573691
0.0569413
0.00217135
-0.055525
0.055054
0.00267868
-0.05395
0.0534427
0.00321585
-0.0525851
0.0520479
0.00377688
-0.0513835
0.0508225
0.00435631
-0.0503082
0.0497288
0.00494926
-0.0493303
0.0487373
0.00555138
-0.0484268
0.0478247
0.00615887
-0.0475802
0.0469727
0.00676845
-0.0467768
0.0461672
0.00737732
-0.0460059
0.0453971
0.0079831
-0.0452597
0.0446539
0.00858387
-0.0445318
0.0439311
0.00917804
-0.0438179
0.0432237
0.00976437
-0.0431142
0.0425279
0.0103419
-0.0424183
0.0418408
0.0109099
-0.041728
0.04116
0.0114679
-0.0410416
0.0404836
0.0120155
-0.0403576
0.03981
0.0125525
-0.0396746
0.0391376
0.0130787
-0.0389914
0.0384652
0.0135938
-0.0383067
0.0377916
0.0140976
-0.0376192
0.0371155
-0.0369269
0.036435
0.0145895
3.35283e-05
-0.0797707
0.000145477
-0.0740569
0.000334825
-0.0694071
0.000596126
-0.0656139
0.000922689
-0.0625058
0.00130717
-0.0599409
0.00174201
-0.057804
0.00221979
-0.0560028
0.00273339
-0.0544636
0.00327616
-0.0531279
0.003842
-0.0519493
0.00442537
-0.0508916
0.00502132
-0.0499262
0.00562548
-0.049031
0.00623406
-0.0481888
0.00684379
-0.0473865
0.0074519
-0.046614
0.00805609
-0.0458638
0.00865446
-0.0451302
0.00924553
-0.0444089
0.00982812
-0.0436968
0.0104014
-0.0429916
0.0109647
-0.0422913
0.0115176
-0.0415945
0.0120598
-0.0408999
0.0125913
-0.0402061
0.0131119
-0.039512
0.0136215
-0.0388163
0.0141199
-0.0381176
-0.0374138
0.0146068
3.70262e-05
-0.0798077
0.000153691
-0.0741735
0.000348458
-0.0696019
0.000615974
-0.0658814
0.000949271
-0.0628391
0.00134068
-0.0603323
0.00178234
-0.0582457
0.00226658
-0.056487
0.00278608
-0.0549831
0.00333403
-0.0536758
0.0039042
-0.0525195
0.00449099
-0.0514784
0.00508939
-0.0505246
0.00569503
-0.0496366
0.00630412
-0.0487979
0.00691341
-0.0479958
0.00752018
-0.0472208
0.00812219
-0.0464658
0.00871761
-0.0457256
0.00930503
-0.0449963
0.00988336
-0.0442752
0.0104518
-0.04356
0.0110099
-0.0428494
0.0115573
-0.0421419
0.0120938
-0.0414364
0.0126194
-0.0407317
0.0131341
-0.0400267
0.0136379
-0.0393201
0.0141306
-0.0386104
-0.0378953
0.0146122
3.94186e-05
-0.0798471
0.000160566
-0.0742947
0.00036092
-0.0698022
0.000634769
-0.0661552
0.000974798
-0.0631791
0.00137301
-0.0607305
0.00182128
-0.0586939
0.00231167
-0.0569774
0.00283669
-0.0555081
0.00338937
-0.0542285
0.00396339
-0.0530935
0.00455307
-0.0520681
0.00515338
-0.0511249
0.00575993
-0.0502432
0.00636894
-0.0494069
0.0069772
-0.0486041
0.00758205
-0.0478257
0.0081813
-0.0470651
0.00877322
-0.0463175
0.00935645
-0.0455796
0.00993
-0.0448487
0.0104932
-0.0441232
0.0110456
-0.0434018
0.011587
-0.0426833
0.0121173
-0.0419667
0.0126367
-0.0412511
0.0131452
-0.0405352
0.0136429
-0.0398178
0.0141298
-0.0390973
-0.0383713
0.0146057
4.13951e-05
-0.0798885
0.000166755
-0.07442
0.000372615
-0.0700081
0.000652726
-0.0664353
0.000999366
-0.0635258
0.00140419
-0.0611353
0.00185879
-0.0591485
0.002355
-0.0574736
0.00288513
-0.0560383
0.00344209
-0.0547855
0.00401946
-0.0536709
0.0046115
-0.0526601
0.00521315
-0.0517266
0.00582003
-0.0508501
0.00642838
-0.0500153
0.00703503
-0.0492107
0.00763738
-0.048428
0.00823332
-0.047661
0.00882117
-0.0469054
0.00939969
-0.0461581
0.00996798
-0.045417
0.0105254
-0.0446807
0.0110717
-0.0439481
0.0116067
-0.0432183
0.0121306
-0.0424906
0.0126433
-0.0417638
0.0131453
-0.0410371
0.0136366
-0.0403091
0.0141174
-0.039578
-0.0388415
0.0145876
4.31697e-05
-0.0799317
0.000172532
-0.0745494
0.000383748
-0.0702193
0.000669971
-0.0667216
0.00102303
-0.0638788
0.00143423
-0.0615465
0.00189485
-0.0596091
0.0023965
-0.0579753
0.00293132
-0.0565731
0.00349209
-0.0553462
0.0040723
-0.0542511
0.00466615
-0.053254
0.00526858
-0.052329
0.00587521
-0.0514567
0.00648231
-0.0506224
0.00708678
-0.0498152
0.00768605
-0.0490273
0.00827811
-0.0482531
0.00886136
-0.0474887
0.00943465
-0.0467314
0.00999718
-0.0459795
0.0105484
-0.045232
0.0110882
-0.0444879
0.0116165
-0.0437466
0.0121334
-0.0430075
0.0126393
-0.0422697
0.0131344
-0.0415322
0.0136191
-0.0407938
0.0140936
-0.0400525
-0.0393059
0.0145579
4.48323e-05
-0.0799765
0.00017803
-0.0746826
0.00039443
-0.0704357
0.000686578
-0.0670137
0.00104583
-0.0642381
0.00146311
-0.0619638
0.00192942
-0.0600754
0.00243613
-0.058482
0.0029752
-0.0571121
0.00353929
-0.0559103
0.00412181
-0.0548336
0.00471692
-0.0538491
0.00531956
-0.0529316
0.00592536
-0.0520625
0.00653063
-0.0512276
0.00713232
-0.0504169
0.00772795
-0.0496229
0.00831556
-0.0488407
0.00889367
-0.0480668
0.00946122
-0.0472989
0.0100175
-0.0465358
0.0105621
-0.0457766
0.0110949
-0.0450207
0.0116161
-0.0442677
0.0121258
-0.0435172
0.0126245
-0.0427684
0.0131126
-0.0420203
0.0135904
-0.0412716
0.0140584
-0.0405205
-0.0397642
0.0145167
4.64202e-05
-0.0800229
0.000183314
-0.0748195
0.000404725
-0.0706571
0.000702588
-0.0673116
0.00106778
-0.0646033
0.00149085
-0.0623869
0.00196248
-0.0605471
0.00247383
-0.0589933
0.00301669
-0.057655
0.0035836
-0.0564772
0.0041679
-0.0554179
0.00476372
-0.0544449
0.00536599
-0.0535339
0.00597037
-0.0526669
0.00657322
-0.0518305
0.00717156
-0.0510152
0.00776297
-0.0502143
0.0083456
-0.0494233
0.00891804
-0.0486392
0.00947934
-0.0478602
0.0100289
-0.0470854
0.0105664
-0.0463141
0.0110919
-0.0455462
0.0116055
-0.0447814
0.0121077
-0.0440194
0.012599
-0.0432596
0.0130797
-0.0425011
0.0135505
-0.0417425
0.0140119
-0.0409818
-0.0402164
0.014464
4.79538e-05
-0.0800709
0.000188415
-0.07496
0.000414663
-0.0708834
0.000718022
-0.0676149
0.00108888
-0.0649741
0.00151741
-0.0628154
0.001994
-0.0610237
0.00250957
-0.0595089
0.00305574
-0.0582012
0.00362496
-0.0570465
0.00421049
-0.0560034
0.00480645
-0.0550409
0.00540777
-0.0541352
0.00601014
-0.0532692
0.00660999
-0.0524303
0.0072044
-0.0516096
0.00779104
-0.050801
0.00836814
-0.0500004
0.0089344
-0.0492055
0.00948897
-0.0484148
0.0100313
-0.0476277
0.0105614
-0.0468441
0.0110791
-0.0460639
0.0115849
-0.0452872
0.0120792
-0.0445137
0.0125627
-0.043743
0.0130359
-0.0429743
0.0134995
-0.042206
0.013954
-0.0414363
-0.0406623
0.0143999
4.94399e-05
-0.0801203
0.000193353
-0.0751039
0.000424263
-0.0711143
0.00073289
-0.0679236
0.00110914
-0.0653504
0.0015428
-0.063249
0.00202395
-0.0615048
0.00254329
-0.0600283
0.0030923
-0.0587502
0.0036633
-0.0576175
0.00424951
-0.0565897
0.00484504
-0.0556364
0.00544482
-0.054735
0.0060446
-0.053869
0.00664087
-0.0530266
0.00723077
-0.0521995
0.00781208
-0.0513823
0.00838312
-0.0505715
0.00894269
-0.049765
0.00949005
-0.0489621
0.0100248
-0.0481625
0.0105469
-0.0473662
0.0110565
-0.0465736
0.0115541
-0.0457848
0.0120403
-0.0449999
0.0125157
-0.0442184
0.0129811
-0.0434397
0.0134372
-0.0426622
0.0138848
-0.0418839
-0.0411018
0.0143243
5.08834e-05
-0.0801712
0.000198134
-0.0752511
0.000433531
-0.0713497
0.000747196
-0.0682372
0.00112855
-0.0657317
0.00156699
-0.0636875
0.0020523
-0.0619901
0.00257497
-0.0605509
0.00312632
-0.0593015
0.00369857
-0.0581897
0.00428491
-0.057176
0.00487942
-0.0562309
0.00547708
-0.0553327
0.00607368
-0.0544656
0.00666578
-0.0536187
0.00725061
-0.0527843
0.00782604
-0.0519577
0.00839049
-0.0511359
0.00894287
-0.0503174
0.00948253
-0.0495018
0.0100092
-0.0486892
0.0105229
-0.0478799
0.0110241
-0.0470747
0.0115131
-0.0462738
0.0119908
-0.0454775
0.0124579
-0.0446855
0.0129153
-0.0438971
0.0133638
-0.0431108
0.0138043
-0.0423244
-0.0415348
0.0142374
5.22865e-05
-0.0802235
0.000202761
-0.0754016
0.000442471
-0.0715894
0.000760939
-0.0685557
0.0011471
-0.0661179
0.00158997
-0.0641304
0.00207905
-0.0624792
0.00260458
-0.0610765
0.00315776
-0.0598547
0.00373073
-0.0587627
0.00431662
-0.0577619
0.00490954
-0.0568238
0.00550449
-0.0559276
0.00609733
-0.0550585
0.00668469
-0.054206
0.00726388
-0.0533635
0.00783289
-0.0525267
0.00839022
-0.0516932
0.00893491
-0.0508621
0.00946641
-0.0500333
0.00998456
-0.0492073
0.0104895
-0.0483849
0.0109818
-0.0475669
0.0114619
-0.046754
0.0119308
-0.0459464
0.0123893
-0.0451441
0.0128384
-0.0443462
0.0132792
-0.0435515
0.0137124
-0.0427576
-0.0419612
0.0141389
5.36477e-05
-0.0802772
0.000207236
-0.0755552
0.000451082
-0.0718332
0.000774118
-0.0688787
0.0011648
-0.0665086
0.00161174
-0.0645773
0.00210416
-0.0629716
0.0026321
-0.0616044
0.0031866
-0.0604092
0.00375974
-0.0593358
0.00434463
-0.0583468
0.00493538
-0.0574146
0.00552703
-0.0565193
0.00611552
-0.055647
0.00669756
-0.0547881
0.00727056
-0.0539366
0.0078326
-0.0530888
0.00838231
-0.0522429
0.00891881
-0.0513986
0.00944167
-0.0505562
0.00995086
-0.0497165
0.0104466
-0.0488807
0.0109296
-0.0480498
0.0114004
-0.0472248
0.0118602
-0.0464061
0.0123098
-0.0455937
0.0127505
-0.0447869
0.0131832
-0.0439843
0.0136091
-0.0431835
-0.0423809
0.0140287
5.49671e-05
-0.0803321
0.000211555
-0.0757118
0.000459365
-0.072081
0.000786733
-0.0692061
0.00118163
-0.0669035
0.00163229
-0.065028
0.00212763
-0.063467
0.0026575
-0.0621343
0.00321282
-0.0609645
0.00378559
-0.0599086
0.0043689
-0.0589301
0.00495689
-0.0580025
0.00554467
-0.0571071
0.00612824
-0.0562305
0.00670439
-0.0553642
0.00727065
-0.0545028
0.00782519
-0.0536433
0.00836676
-0.0527845
0.00889459
-0.0519264
0.00940836
-0.0510699
0.00990814
-0.0502163
0.0103943
-0.0493669
0.0108676
-0.0485231
0.0113288
-0.0476861
0.0117791
-0.0468564
0.0122195
-0.0460342
0.0126514
-0.0452188
0.0130759
-0.0444088
0.0134941
-0.0436017
-0.0427938
0.013907
5.6243e-05
-0.0803884
0.000215719
-0.0758713
0.000467319
-0.0723326
0.000798785
-0.0695376
0.0011976
-0.0673023
0.00165161
-0.065482
0.00214946
-0.0639648
0.00268079
-0.0626656
0.00323641
-0.0615201
0.00380826
-0.0604804
0.00438943
-0.0595113
0.00497409
-0.0585872
0.00555742
-0.0576904
0.00613548
-0.0568086
0.00670519
-0.0559339
0.00726417
-0.0550618
0.00781069
-0.0541898
0.00834362
-0.0533174
0.0088623
-0.0524451
0.00936651
-0.0515742
0.00985644
-0.0507062
0.0103326
-0.049843
0.0107958
-0.0489863
0.0112469
-0.0481372
0.0116874
-0.0472968
0.0121183
-0.0464651
0.0125411
-0.0456416
0.0129572
-0.0448248
0.0133677
-0.0440122
-0.0431998
0.0137737
5.74742e-05
-0.0804458
0.000219727
-0.0760335
0.000474949
-0.0725879
0.000810284
-0.0698729
0.00121272
-0.0677047
0.00166973
-0.065939
0.00216965
-0.0644647
0.00270197
-0.0631979
0.00325737
-0.0620755
0.00382775
-0.0610508
0.00440622
-0.0600897
0.00498698
-0.059168
0.00556528
-0.0582687
0.00613729
-0.0573806
0.0067
-0.0564967
0.00725117
-0.055613
0.00778917
-0.0547278
0.00831296
-0.0538412
0.00882202
-0.0529542
0.00931622
-0.0520684
0.00979586
-0.0511858
0.0102615
-0.0503087
0.0107142
-0.0494389
0.0111549
-0.048578
0.0115851
-0.047727
0.0120062
-0.0468862
0.0124197
-0.0460551
0.012827
-0.0452322
0.0132295
-0.0444147
-0.0435986
0.0136283
5.86581e-05
-0.0805045
0.00022358
-0.0761984
0.000482261
-0.0728465
0.000821243
-0.0702119
0.00122701
-0.0681105
0.00168664
-0.0663986
0.00218822
-0.0649663
0.00272105
-0.0637308
0.00327571
-0.0626302
0.00384408
-0.0616192
0.00441929
-0.0606649
0.00499559
-0.0597443
0.00556831
-0.0588414
0.00613371
-0.057946
0.0066889
-0.0570518
0.00723173
-0.0561558
0.00776071
-0.0552568
0.0082749
-0.0543554
0.00877386
-0.0534531
0.00925761
-0.0525521
0.00972651
-0.0516547
0.0101813
-0.0507635
0.010623
-0.0498806
0.0110528
-0.0490078
0.0114723
-0.0481465
0.011883
-0.047297
0.0122866
-0.0464587
0.0126848
-0.0456303
0.013079
-0.0448088
-0.04399
0.0134703
5.97922e-05
-0.0805643
0.000227279
-0.0763659
0.000489269
-0.0731085
0.000831683
-0.0705543
0.00124049
-0.0685193
0.00170239
-0.0668605
0.0022052
-0.0654691
0.00273805
-0.0642636
0.00329145
-0.0631836
0.00385728
-0.062185
0.00442867
-0.0612363
0.00499996
-0.0603156
0.00556655
-0.059408
0.00612481
-0.0585042
0.00667196
-0.057599
0.00720597
-0.0566898
0.00772545
-0.0557763
0.00822957
-0.0548595
0.008718
-0.0539416
0.00919084
-0.0530249
0.00964856
-0.0521124
0.010092
-0.0512069
0.0105222
-0.0503108
0.0109406
-0.0494262
0.0113488
-0.0485547
0.0117486
-0.0476968
0.0121418
-0.046852
0.0125303
-0.0460188
0.0129156
-0.0451941
-0.0443736
0.0132992
6.08753e-05
-0.0806252
0.000230834
-0.0765359
0.000495995
-0.0733737
0.000841639
-0.0708999
0.00125321
-0.0689309
0.00171701
-0.0673243
0.00222061
-0.0659727
0.002753
-0.064796
0.00330464
-0.0637352
0.00386738
-0.0627478
0.00443442
-0.0618034
0.00500015
-0.0608813
0.00556009
-0.0599679
0.0061107
-0.0590549
0.00664932
-0.0581376
0.00717404
-0.0572145
0.00768356
-0.0562858
0.00817718
-0.0553532
0.00865466
-0.0544191
0.00911617
-0.0534865
0.00956227
-0.0525585
0.00999386
-0.0516385
0.0104121
-0.0507291
0.0108186
-0.0498327
0.011215
-0.0489511
0.0116032
-0.048085
0.0119854
-0.0472341
0.0123635
-0.0463969
0.0127394
-0.0455701
-0.0447489
0.0131147
6.19034e-05
-0.0806871
0.000234256
-0.0767082
0.000502474
-0.0736419
0.000851157
-0.0712486
0.0012652
-0.0693449
0.00173054
-0.0677896
0.0022345
-0.0664767
0.00276595
-0.0653275
0.0033153
-0.0642846
0.00387443
-0.0633069
0.00443659
-0.0623655
0.00499625
-0.061441
0.00554903
-0.0605207
0.00609151
-0.0595973
0.00662114
-0.0586672
0.00713611
-0.0577295
0.00763527
-0.056785
0.00811799
-0.0558359
0.00858412
-0.0548852
0.00903392
-0.0539363
0.009468
-0.0529926
0.00988732
-0.0520578
0.0102931
-0.0511349
0.0106871
-0.0502266
0.011071
-0.049335
0.011447
-0.048461
0.0118173
-0.0476045
0.0121843
-0.0467638
0.01255
-0.0459358
-0.0451152
0.0129164
6.28757e-05
-0.0807499
0.000237571
-0.0768829
0.000508759
-0.0739131
0.000860306
-0.0716002
0.00127654
-0.0697612
0.00174304
-0.0682561
0.00224691
-0.0669805
0.00277692
-0.0658575
0.00332348
-0.0648311
0.00387849
-0.0638619
0.00443525
-0.0629223
0.00498834
-0.0619941
0.00553348
-0.0610658
0.00606737
-0.0601312
0.00658758
-0.0591875
0.00709242
-0.0582343
0.00758083
-0.0572734
0.0080523
-0.0563074
0.00850674
-0.0553396
0.00894448
-0.054374
0.00936618
-0.0534143
0.00977283
-0.0524644
0.0101658
-0.0515278
0.0105466
-0.0506075
0.0109173
-0.0497057
0.0112802
-0.0488239
0.0116378
-0.0479621
0.0119927
-0.0471187
0.0123474
-0.0462905
-0.0454717
0.0127039
6.37951e-05
-0.0808137
0.000240823
-0.0770599
0.000514932
-0.0741872
0.000869175
-0.0719544
0.00128731
-0.0701793
0.00175457
-0.0687234
0.00225789
-0.0674839
0.00278598
-0.0663856
0.00332923
-0.0653744
0.0038796
-0.0644123
0.00443047
-0.0634731
0.00497652
-0.0625401
0.00551357
-0.0616029
0.00603845
-0.0606561
0.00654885
-0.0596979
0.0070432
-0.0587287
0.00752055
-0.0577507
0.00798046
-0.0567673
0.00842294
-0.0557821
0.00884835
-0.0547994
0.00925737
-0.0538234
0.00965102
-0.0528581
0.0100306
-0.0519074
0.0103978
-0.0509747
0.0107547
-0.0500626
0.0111036
-0.0491728
0.0114474
-0.0483058
0.011789
-0.0474603
0.0121313
-0.0466328
-0.0458171
0.0124768
6.46786e-05
-0.0808784
0.000244093
-0.0772394
0.000521114
-0.0744642
0.000877887
-0.0723112
0.00129761
-0.070599
0.00176521
-0.069191
0.0022675
-0.0679862
0.00279316
-0.0669112
0.0033326
-0.0659138
0.00387784
-0.0649575
0.00442234
-0.0640176
0.00496089
-0.0630787
0.00548943
-0.0621314
0.00600492
-0.0611716
0.00650517
-0.0601981
0.00698873
-0.0592122
0.00745475
-0.0582168
0.00790289
-0.0572154
0.00833321
-0.0562124
0.0087461
-0.0552123
0.00914226
-0.0542195
0.00952267
-0.0532385
0.0098886
-0.0522733
0.0102417
-0.0513278
0.010584
-0.0504049
0.010918
-0.0495068
0.0112467
-0.0486346
0.0115735
-0.0477872
0.0119019
-0.0469612
-0.04615
0.0122347
6.55691e-05
-0.080944
0.000247521
-0.0774213
0.000527483
-0.0747442
0.000886597
-0.0726703
0.00130754
-0.07102
0.00177502
-0.0696585
0.00227578
-0.0684869
0.0027985
-0.0674339
0.00333363
-0.066449
0.00387324
-0.0654971
0.00441092
-0.0645553
0.00494154
-0.0636093
0.00546119
-0.0626511
0.00596695
-0.0616773
0.00645675
-0.0606879
0.00692928
-0.0596848
0.00738379
-0.0586713
0.00782002
-0.0576516
0.00823807
-0.0566305
0.00863839
-0.0556126
0.00902163
-0.0546028
0.00938873
-0.0536056
0.00974086
-0.0526255
0.0100795
-0.0516664
0.0104067
-0.050732
0.0107248
-0.049825
0.0110371
-0.0489469
0.0113474
-0.0480974
0.0116597
-0.0472735
-0.046468
0.0119777
6.65833e-05
-0.0810106
0.000251355
-0.0776061
0.0005343
-0.0750271
0.000895501
-0.0730315
0.00131723
-0.0714417
0.00178408
-0.0701253
0.00228278
-0.0689856
0.00280203
-0.0679532
0.00333233
-0.0669793
0.00386585
-0.0660306
0.00439626
-0.0650857
0.00491856
-0.0641316
0.00542897
-0.0631615
0.00592469
-0.0621731
0.00640381
-0.061167
0.00686513
-0.0601461
0.00730801
-0.0591141
0.00773227
-0.0580759
0.0081381
-0.0570363
0.00852592
-0.0560004
0.00889638
-0.0549732
0.00925032
-0.0539595
0.00958876
-0.0529639
0.009913
-0.0519907
0.0102247
-0.0510438
0.0105263
-0.0501266
0.0108209
-0.0492414
0.0111125
-0.0483891
0.0114062
-0.0475672
-0.0467685
0.0117067
6.79789e-05
-0.0810786
0.000256014
-0.0777941
0.000541919
-0.075313
0.000904821
-0.0733944
0.00132679
-0.0718637
0.00179242
-0.0705909
0.00228849
-0.0694817
0.00280373
-0.0684684
0.00332872
-0.0675043
0.00385568
-0.0665576
0.0043784
-0.0656084
0.00489201
-0.0646452
0.00539285
-0.0636623
0.00587828
-0.0626585
0.00634652
-0.0616353
0.00679651
-0.0605961
0.00722772
-0.0595454
0.00764007
-0.0584882
0.00803381
-0.05743
0.00840938
-0.056376
0.00876742
-0.0553313
0.00910865
-0.0543007
0.0094339
-0.0532891
0.00974417
-0.0523009
0.0100408
-0.0513404
0.0103256
-0.0504114
0.0106014
-0.0495173
0.0108725
-0.0486601
0.0111445
-0.0478392
-0.0470479
0.0114239
7.02571e-05
-0.0811488
0.000262119
-0.077986
0.000550771
-0.0756017
0.000914774
-0.0737584
0.00133629
-0.0722852
0.00180004
-0.0710547
0.00229289
-0.0699745
0.00280359
-0.0689792
0.00332277
-0.0680234
0.00384273
-0.0670776
0.00435735
-0.0661231
0.00486191
-0.0651498
0.00535289
-0.0641533
0.0058278
-0.0631334
0.00628501
-0.0620925
0.00672359
-0.0610346
0.00714316
-0.0599649
0.00754373
-0.0588888
0.00792564
-0.0578119
0.00828937
-0.0567397
0.00863556
-0.0556775
0.00896485
-0.05463
0.00927788
-0.0536022
0.00957532
-0.0525984
0.00985793
-0.051623
0.0101268
-0.0506803
0.010384
-0.0497745
0.0106331
-0.0489092
0.0108803
-0.0480864
-0.0473018
0.0111343
7.43497e-05
-0.0812232
0.000270638
-0.0781823
0.000561405
-0.0758925
0.00092556
-0.0741226
0.00134575
-0.0727054
0.00180691
-0.0715159
0.00229591
-0.0704635
0.00280154
-0.0694848
0.00331442
-0.0685363
0.00382694
-0.0675901
0.00433309
-0.0666292
0.00482827
-0.0656449
0.00530911
-0.0646341
0.00577329
-0.0635976
0.00621933
-0.0625385
0.00664647
-0.0614618
0.00705445
-0.0603729
0.00744344
-0.0592778
0.00781384
-0.0581823
0.00816627
-0.0570922
0.00850137
-0.0560126
0.00881978
-0.0549484
0.00912203
-0.0539044
0.00940849
-0.0528848
0.00967937
-0.0518938
0.00993485
-0.0509358
0.0101754
-0.050015
0.0104028
-0.0491366
0.0106222
-0.0483059
-0.0475256
0.010846
8.27105e-05
-0.0813059
0.000283562
-0.0783831
0.000574619
-0.0761835
0.000937312
-0.0744853
0.00135507
-0.0731231
0.00181285
-0.0719736
0.00229742
-0.0709481
0.00279746
-0.0699848
0.00330359
-0.0690424
0.00380826
-0.0680947
0.00430556
-0.0671265
0.00479103
-0.0661304
0.00526146
-0.0651046
0.00571471
-0.0640508
0.00614947
-0.0629733
0.00656512
-0.0618774
0.00696159
-0.0607694
0.00733917
-0.0596554
0.00769843
-0.0585416
0.00804012
-0.0574338
0.00836499
-0.0563374
0.0086738
-0.0552573
0.00896713
-0.0541977
0.00924527
-0.053163
0.00950809
-0.0521567
0.00975495
-0.0511826
0.00998441
-0.0502445
0.0101942
-0.0493464
0.0103849
-0.0484966
-0.0477153
0.0105746
0.000103118
-0.081409
0.000303855
-0.0785839
0.000590681
-0.0764703
0.000949616
-0.0748442
0.00136381
-0.0735373
0.00181754
-0.0724274
0.00229717
-0.0714277
0.00279118
-0.0704788
0.00329016
-0.0695414
0.00378658
-0.0685912
0.00427467
-0.0676146
0.00475012
-0.0666059
0.00520989
-0.0655643
0.00565199
-0.0644929
0.00607531
-0.0633966
0.00647941
-0.0622815
0.00686437
-0.0611543
0.00723067
-0.0600217
0.00757905
-0.05889
0.00791044
-0.0577652
0.00822582
-0.0566528
0.00852623
-0.0555577
0.00881262
-0.0544841
0.00908577
-0.0534361
0.00934616
-0.0524171
0.00959362
-0.0514301
0.00982632
-0.0504772
0.0100372
-0.0495573
0.0102111
-0.0486704
-0.0478507
0.0103464
0.0834521
8.07707e-05
-0.0835329
0.0833819
7.01656e-05
0.0833152
6.67598e-05
0.0832493
6.59265e-05
0.0831831
6.61794e-05
0.0831161
6.69339e-05
0.0830483
6.78787e-05
0.0829794
6.88554e-05
0.0829096
6.97949e-05
0.0828389
7.06678e-05
0.0827675
7.14564e-05
0.0826953
7.21451e-05
0.0826226
7.27304e-05
0.0825494
7.32204e-05
0.0824758
7.36189e-05
0.0824018
7.39273e-05
0.0823277
7.4148e-05
0.0822534
7.42824e-05
0.0821791
7.43293e-05
0.0821048
7.42898e-05
0.0820306
7.41614e-05
0.0819567
7.39393e-05
0.0818831
7.36116e-05
0.0818099
7.31623e-05
0.0817374
7.25541e-05
0.0816657
7.17141e-05
0.0815952
7.04819e-05
0.0815267
6.84847e-05
0.0814621
6.45535e-05
5.31487e-05
0.0837468
0.000226047
-0.083892
0.0835962
0.000220748
0.0834432
0.000219717
0.0832879
0.000221197
0.0831301
0.000223976
0.0829696
0.000227458
0.0828062
0.000231266
0.0826399
0.000235148
0.0824708
0.00023897
0.0822988
0.000242637
0.0821242
0.000246077
0.0819471
0.000249244
0.0817677
0.00025211
0.0815862
0.000254677
0.0814029
0.000256944
0.0812179
0.000258909
0.0810315
0.000260572
0.0808439
0.000261934
0.0806552
0.000262993
0.0804657
0.000263748
0.0802757
0.000264191
0.0800853
0.000264313
0.0798949
0.000264091
0.0797045
0.000263486
0.0795147
0.000262431
0.0793256
0.000260799
0.0791377
0.000258354
0.0789516
0.000254619
0.0787676
0.000248506
0.000236896
0.0838721
0.000409105
-0.0840552
0.0836784
0.000414472
0.0834768
0.000421249
0.0832688
0.000429272
0.0830547
0.000438031
0.082835
0.000447173
0.0826098
0.000456441
0.0823794
0.000465625
0.0821437
0.000474594
0.0819031
0.000483242
0.0816578
0.000491437
0.0814079
0.000499113
0.0811538
0.000506231
0.0808957
0.000512773
0.0806339
0.000518726
0.0803687
0.000524082
0.0801005
0.000528834
0.0798294
0.000532981
0.0795559
0.000536516
0.0792802
0.000539435
0.0790027
0.000541731
0.0787236
0.000543385
0.0784433
0.000544371
0.0781621
0.000544646
0.0778804
0.000544134
0.0775985
0.00054271
0.0773167
0.000540166
0.0770352
0.000536145
0.0767537
0.000529985
0.000520274
0.0837513
0.000609281
-0.0839515
0.0835386
0.000627189
0.0833149
0.000645002
0.0830812
0.000662947
0.0828383
0.000680896
0.0825868
0.000698686
0.0823271
0.000716177
0.0820595
0.000733244
0.0817843
0.000749783
0.0815018
0.000765712
0.0812123
0.000780897
0.0809162
0.000795228
0.0806138
0.000808686
0.0803053
0.000821232
0.0799912
0.000832844
0.0796718
0.000843502
0.0793474
0.000853197
0.0790185
0.000861917
0.0786853
0.000869657
0.0783484
0.000876407
0.0780079
0.000882156
0.0776644
0.000886889
0.0773182
0.000890578
0.0769697
0.000893184
0.0766192
0.000894643
0.076267
0.000894858
0.0759135
0.00089368
0.0755588
0.000890883
0.0752026
0.000886108
0.000878731
0.0833572
0.0008097
-0.0835576
0.0831429
0.000841549
0.0829153
0.00087253
0.0826754
0.000902872
0.0824237
0.00093257
0.0821609
0.000961552
0.0818873
0.000989752
0.0816034
0.00101709
0.0813097
0.00104351
0.0810065
0.00106894
0.0806941
0.00109326
0.080373
0.00111636
0.0800435
0.00113821
0.0797059
0.00115877
0.0793608
0.00117801
0.0790084
0.00119591
0.0786491
0.00121243
0.0782835
0.00122758
0.0779118
0.00124134
0.0775345
0.0012537
0.077152
0.00126464
0.0767647
0.00127415
0.0763731
0.00128221
0.0759775
0.00128879
0.0755783
0.00129385
0.0751758
0.0012973
0.0747704
0.00129908
0.0743623
0.00129904
0.0739514
0.00129703
0.00129277
0.0826921
0.000998276
-0.0828807
0.0824883
0.00104531
0.0822699
0.00109102
0.0820372
0.00113557
0.0817908
0.00117895
0.0815312
0.00122113
0.0812589
0.00126207
0.0809743
0.00130171
0.0806778
0.00134001
0.0803698
0.00137691
0.0800507
0.00141231
0.079721
0.0014461
0.079381
0.00147823
0.0790311
0.00150868
0.0786717
0.00153739
0.0783032
0.00156435
0.0779261
0.00158952
0.0775408
0.00161289
0.0771478
0.00163443
0.0767473
0.00165415
0.0763399
0.00167201
0.0759261
0.00168802
0.0755061
0.00170215
0.0750805
0.00171438
0.0746497
0.00172468
0.074214
0.00173303
0.0737737
0.00173937
0.0733291
0.00174364
0.0728803
0.00174579
0.00174572
0.0817783
0.00116711
-0.0819471
0.0815933
0.00123034
0.0813923
0.00129196
0.0811759
0.00135202
0.0809443
0.00141052
0.080698
0.00146741
0.0804375
0.00152265
0.080163
0.00157621
0.0798749
0.00162804
0.0795738
0.00167804
0.07926
0.00172615
0.0789338
0.00177225
0.0785958
0.00181631
0.0782462
0.00185828
0.0778854
0.00189811
0.077514
0.00193576
0.0771323
0.00197121
0.0767408
0.00200443
0.0763398
0.0020354
0.0759299
0.00206409
0.0755114
0.00209051
0.0750848
0.00211463
0.0746505
0.00213644
0.0742089
0.00215593
0.0737605
0.00217309
0.0733057
0.0021879
0.0728447
0.00220036
0.0723779
0.00221045
0.0719055
0.00221816
0.00222348
0.0806495
0.00131161
-0.080794
0.080488
0.0013918
0.0803098
0.00147015
0.0801152
0.00154666
0.0799044
0.00162129
0.0796778
0.00169398
0.0794358
0.00176467
0.0791787
0.00183336
0.0789068
0.00189996
0.0786204
0.00196434
0.0783201
0.00202645
0.0780062
0.0020862
0.077679
0.00214353
0.0773389
0.00219838
0.0769863
0.0022507
0.0766216
0.00230045
0.0762452
0.00234758
0.0758576
0.00239207
0.0754591
0.00243388
0.0750502
0.00247301
0.0746313
0.00250942
0.0742028
0.00254311
0.0737652
0.00257406
0.0733188
0.00260228
0.0728642
0.00262776
0.0724016
0.0026505
0.0719314
0.00267052
0.071454
0.00268782
0.0709698
0.00270245
0.0027144
0.0793442
0.00142972
-0.0794623
0.0792086
0.00152736
0.0790558
0.00162297
0.0788859
0.00171654
0.0786993
0.00180798
0.078496
0.00189721
0.0782765
0.00198417
0.0780411
0.00206879
0.07779
0.00215103
0.0775236
0.00223075
0.0772422
0.00230783
0.0769462
0.00238224
0.0766358
0.00245388
0.0763115
0.00252268
0.0759736
0.00258859
0.0756225
0.00265155
0.0752586
0.00271152
0.0748822
0.00276844
0.0744938
0.0028223
0.0740938
0.00287306
0.0736825
0.0029207
0.0732604
0.00296521
0.0728278
0.00300658
0.0723853
0.00304481
0.0719332
0.0030799
0.0714718
0.00311186
0.0710016
0.00314072
0.0705229
0.00316652
0.0700361
0.00318929
0.00320907
0.0779019
0.00152125
-0.0779935
0.0777927
0.00163657
0.0776659
0.00174974
0.0775218
0.00186069
0.0773604
0.00196934
0.0771821
0.00207556
0.076987
0.00217924
0.0767755
0.00228036
0.0765477
0.00237882
0.076304
0.00247447
0.0760446
0.00256722
0.0757698
0.002657
0.07548
0.0027437
0.0751754
0.00282724
0.0748565
0.00290756
0.0745234
0.00298458
0.0741767
0.00305825
0.0738166
0.00312853
0.0734435
0.00319538
0.0730579
0.00325875
0.0726599
0.00331862
0.0722502
0.00337497
0.071829
0.0034278
0.0713967
0.0034771
0.0709537
0.00352288
0.0705004
0.00356516
0.0700371
0.00360398
0.0695643
0.00363937
0.0690822
0.00367139
0.00370007
0.0763601
0.0015873
-0.0764262
0.0762763
0.00172034
0.0761749
0.00185113
0.0760561
0.00197957
0.0759198
0.00210557
0.0757664
0.00222897
0.075596
0.00234965
0.0754088
0.00246751
0.0752052
0.0025825
0.0749851
0.00269449
0.074749
0.00280332
0.0744971
0.00290891
0.0742297
0.00301115
0.073947
0.00310995
0.0736493
0.00320522
0.073337
0.00329691
0.0730103
0.00338492
0.0726696
0.00346922
0.0723152
0.00354974
0.0719475
0.00362645
0.0715668
0.00369931
0.0711735
0.00376831
0.0707679
0.00383342
0.0703504
0.00389464
0.0699213
0.00395198
0.0694809
0.00400547
0.0690298
0.00405514
0.0685681
0.00410104
0.0680963
0.00414323
0.00418175
0.0747527
0.00162984
-0.0747952
0.0746925
0.00178048
0.0746149
0.00192879
0.0745198
0.00207465
0.0744074
0.00221795
0.0742779
0.00235854
0.0741313
0.00249623
0.0739679
0.00263093
0.0737878
0.00276259
0.0735912
0.00289105
0.0733784
0.00301614
0.0731496
0.00313775
0.0729049
0.00325578
0.0726448
0.00337012
0.0723693
0.00348068
0.0720788
0.00358738
0.0717736
0.00369014
0.0714539
0.00378888
0.0711201
0.00388355
0.0707725
0.0039741
0.0704113
0.00406049
0.0700369
0.00414269
0.0696496
0.00422068
0.0692498
0.00429446
0.0688378
0.00436402
0.0684139
0.00442939
0.0679784
0.00449062
0.0675317
0.00454775
0.0670741
0.00460084
0.00464996
0.0731093
0.00165137
-0.0731308
0.0730704
0.00181936
0.0730142
0.00198495
0.0729409
0.00214804
0.0728504
0.00230845
0.0727429
0.00246605
0.0726184
0.00262067
0.0724772
0.00277213
0.0723194
0.00292038
0.0721452
0.00306526
0.0719547
0.0032066
0.0717482
0.00334426
0.0715259
0.00347814
0.0712879
0.00360812
0.0710345
0.0037341
0.0707659
0.00385597
0.0704824
0.00397366
0.0701842
0.00408707
0.0698716
0.00419616
0.0695448
0.00430085
0.0692042
0.00440109
0.0688501
0.00449686
0.0684826
0.00458812
0.0681022
0.00467486
0.0677091
0.0047571
0.0673037
0.00483483
0.0668862
0.00490812
0.0664569
0.004977
0.0660162
0.00504156
0.00510184
0.071455
0.00165464
-0.0714582
0.0714347
0.00183965
0.0713974
0.00202222
0.0713432
0.00220221
0.0712722
0.00237946
0.0711845
0.0025538
0.0710801
0.0027251
0.0709591
0.00289312
0.0708217
0.00305774
0.0706681
0.00321886
0.0704984
0.00337628
0.0703128
0.00352988
0.0701114
0.00367951
0.0698945
0.00382506
0.0696622
0.00396641
0.0694147
0.00410345
0.0691523
0.00423608
0.0688751
0.00436422
0.0685835
0.0044878
0.0682776
0.00460673
0.0679577
0.00472098
0.0676241
0.00483049
0.067277
0.00493523
0.0669167
0.00503518
0.0665434
0.00513034
0.0661575
0.00522074
0.0657592
0.00530639
0.0653489
0.00538737
0.0649267
0.00546374
0.00553559
0.0698102
0.00164248
-0.069798
0.0698057
0.00184413
0.0697846
0.0020433
0.069747
0.00223984
0.0696929
0.00243356
0.0696224
0.0026243
0.0695356
0.00281192
0.0694325
0.00299618
0.0693134
0.00317688
0.0691783
0.00335393
0.0690274
0.00352719
0.0688608
0.00369647
0.0686787
0.00386164
0.0684812
0.00402255
0.0682685
0.0041791
0.0680408
0.00433115
0.0677983
0.00447861
0.0675411
0.00462138
0.0672696
0.00475937
0.0669838
0.00489252
0.066684
0.00502074
0.0663705
0.00514401
0.0660434
0.00526227
0.0657031
0.0053755
0.0653498
0.00548369
0.0649837
0.00558685
0.064605
0.00568502
0.0642142
0.00577825
0.0638113
0.00586663