/*--------------------------------*- C++ -*----------------------------------*\
  =========                 |
  \\      /  F ield         | OpenFOAM: The Open Source CFD Toolbox
   \\    /   O peration     | Website:  https://openfoam.org
    \\  /    A nd           | Version:  6.0
     \\/     M anipulation  |
\*---------------------------------------------------------------------------*/
FoamFile
{
    version     2.0;
    format      ascii;
    class       volVectorField;
    location    "5.25";
    object      U;
}
// * * * * * * * * * * * * * * * * * * * * * * * * * * * * * * * * * * * * * //

dimensions      [0 1 -1 0 0 0 0];

internalField   nonuniform List<vector> 
19200
(
(0.0992489 -4.78296 -7.87795e-21)
(0.0622626 -4.43337 4.0228e-21)
(0.0682619 -4.14727 1.89574e-21)
(0.0822424 -3.91299 1.70158e-21)
(0.0979863 -3.72041 1.92562e-21)
(0.116984 -3.56103 1.28443e-22)
(0.138702 -3.42798 2.78713e-21)
(0.162294 -3.31572 -2.05273e-22)
(0.187146 -3.2198 2.49595e-21)
(0.212753 -3.13667 1.05602e-21)
(0.238684 -3.06352 -4.85092e-24)
(0.264578 -2.99812 1.70822e-21)
(0.290143 -2.9387 2.86671e-21)
(0.315148 -2.8839 -1.97097e-21)
(0.33941 -2.83263 2.55552e-21)
(0.362793 -2.78406 2.24351e-21)
(0.385198 -2.73754 -2.1249e-21)
(0.406557 -2.69258 3.68024e-21)
(0.426832 -2.6488 -2.36144e-21)
(0.446002 -2.60591 1.1943e-21)
(0.46407 -2.5637 1.70034e-21)
(0.481048 -2.52198 -5.5606e-22)
(0.496962 -2.48064 7.54422e-22)
(0.511844 -2.43956 -8.91362e-22)
(0.525734 -2.39864 -1.86731e-24)
(0.53867 -2.35781 4.82204e-22)
(0.550694 -2.31697 -3.1675e-22)
(0.561844 -2.27607 1.95023e-22)
(0.572184 -2.23501 4.60119e-22)
(0.581714 -2.19369 1.94582e-21)
(0.224705 -4.78046 -1.8276e-21)
(0.179091 -4.43674 1.2475e-20)
(0.178038 -4.15522 -6.64762e-21)
(0.186375 -3.92493 -9.20854e-21)
(0.197612 -3.73588 -4.21616e-21)
(0.212973 -3.57951 -3.06549e-21)
(0.231717 -3.44894 -6.71192e-21)
(0.252831 -3.33867 8.439e-22)
(0.275574 -3.24428 -1.42588e-21)
(0.29934 -3.16227 -5.12704e-21)
(0.32362 -3.08986 -1.31002e-20)
(0.347997 -3.02487 6.47387e-21)
(0.372133 -2.96559 -2.43227e-21)
(0.395764 -2.91067 9.27417e-22)
(0.418685 -2.85908 -5.80043e-21)
(0.440741 -2.81001 -2.17211e-21)
(0.461824 -2.76286 2.44483e-22)
(0.481858 -2.71715 7.53094e-21)
(0.5008 -2.67253 -3.96318e-21)
(0.518631 -2.62875 -2.22051e-21)
(0.535351 -2.58559 -8.86094e-21)
(0.550976 -2.54291 2.29369e-21)
(0.565531 -2.50059 -1.46823e-21)
(0.579052 -2.45853 2.61836e-21)
(0.591582 -2.41665 -1.21877e-21)
(0.603162 -2.37485 -1.91599e-21)
(0.61383 -2.33308 6.2706e-22)
(0.623636 -2.29125 9.81869e-22)
(0.632664 -2.24927 -1.75193e-21)
(0.640872 -2.20702 9.35738e-22)
(0.34984 -4.77501 -8.90323e-22)
(0.295859 -4.43733 2.71553e-21)
(0.288113 -4.16057 4.10422e-21)
(0.2911 -3.93445 3.2392e-20)
(0.298056 -3.74907 -1.90061e-20)
(0.30996 -3.5958 1.75259e-20)
(0.325869 -3.46777 1.09017e-20)
(0.344612 -3.35952 8.64606e-21)
(0.365323 -3.26668 -8.40965e-21)
(0.3873 -3.18578 -1.00333e-21)
(0.409962 -3.11411 2.17243e-20)
(0.432833 -3.04952 3.71915e-21)
(0.455536 -2.99035 -1.02594e-20)
(0.477776 -2.93529 8.15263e-21)
(0.499326 -2.88335 -7.63652e-23)
(0.520018 -2.83377 3.56882e-21)
(0.539734 -2.78596 2.63448e-21)
(0.558393 -2.7395 8.92756e-21)
(0.575951 -2.69404 -3.9544e-21)
(0.592386 -2.64936 -1.30601e-21)
(0.607703 -2.60527 -3.54408e-21)
(0.621916 -2.56164 1.58167e-20)
(0.635058 -2.51836 -1.32959e-20)
(0.647164 -2.47535 4.36908e-21)
(0.658281 -2.43252 2.07197e-21)
(0.668454 -2.38981 -8.31091e-21)
(0.67772 -2.34713 1.11944e-20)
(0.686136 -2.30442 -1.22031e-21)
(0.693809 -2.26156 -1.28501e-21)
(0.700646 -2.21844 -9.39637e-21)
(0.474805 -4.76649 -2.9278e-20)
(0.412708 -4.43514 -2.72815e-20)
(0.398529 -4.16333 -3.39193e-20)
(0.396409 -3.94155 1.07111e-21)
(0.399293 -3.75996 2.04385e-21)
(0.40791 -3.60987 -3.96879e-20)
(0.421119 -3.48443 1.75713e-21)
(0.437594 -3.37823 5.25256e-21)
(0.456348 -3.28694 -8.82014e-22)
(0.476587 -3.20715 9.35149e-21)
(0.497656 -3.1362 -3.75065e-20)
(0.51903 -3.07199 -2.38978e-20)
(0.540292 -3.0129 8.87517e-21)
(0.561119 -2.95768 1.81578e-20)
(0.581266 -2.90538 -2.12487e-20)
(0.600554 -2.85526 -3.4071e-21)
(0.618855 -2.80679 -1.28835e-20)
(0.636088 -2.75956 -6.19072e-21)
(0.652206 -2.71326 1.04733e-20)
(0.66719 -2.66769 -1.35571e-20)
(0.681045 -2.62267 1.18975e-20)
(0.693792 -2.5781 -1.41947e-20)
(0.705464 -2.53389 -1.13495e-20)
(0.716101 -2.48995 -8.19214e-21)
(0.725757 -2.44622 -2.39628e-21)
(0.73447 -2.40263 -1.71833e-20)
(0.74229 -2.35909 1.77989e-21)
(0.749274 -2.31555 3.14695e-21)
(0.755551 -2.27187 -9.22413e-21)
(0.760975 -2.22795 1.97597e-21)
(0.599563 -4.75484 -1.76131e-20)
(0.529633 -4.43013 2.5938e-21)
(0.509273 -4.16351 2.36006e-20)
(0.502278 -3.94621 2.51929e-20)
(0.501291 -3.76851 1.82949e-20)
(0.506786 -3.62167 7.61874e-21)
(0.517427 -3.49886 1.19594e-20)
(0.531734 -3.39472 5.60937e-20)
(0.548602 -3.30498 -3.38961e-20)
(0.567146 -3.22629 9.16455e-22)
(0.586646 -3.15604 8.31205e-21)
(0.606527 -3.09218 3.68644e-20)
(0.626335 -3.03316 -2.54285e-20)
(0.645725 -2.97776 1.85517e-20)
(0.664434 -2.92507 -2.0972e-20)
(0.682273 -2.87441 3.622e-20)
(0.69911 -2.82527 -1.08163e-20)
(0.714863 -2.77727 3.72616e-22)
(0.729484 -2.73013 1.79179e-20)
(0.742959 -2.68367 1.26907e-20)
(0.755296 -2.63775 -1.30219e-20)
(0.766519 -2.59226 1.77961e-20)
(0.776668 -2.54714 -8.24613e-21)
(0.785786 -2.50231 9.52118e-21)
(0.793925 -2.45771 1.28453e-20)
(0.801138 -2.41327 4.76337e-21)
(0.807463 -2.36894 1.46012e-20)
(0.812977 -2.32462 -5.12665e-21)
(0.817821 -2.28018 -1.73194e-21)
(0.821794 -2.23552 -8.94447e-21)
(0.724045 -4.74003 -1.29266e-20)
(0.646591 -4.42229 -8.80534e-21)
(0.620311 -4.16106 -2.70612e-20)
(0.60867 -3.94839 -7.13537e-20)
(0.60401 -3.77468 2.41638e-20)
(0.606547 -3.63114 1.58907e-21)
(0.614747 -3.511 -1.69401e-20)
(0.626982 -3.40893 3.60989e-21)
(0.64203 -3.32074 -2.35828e-21)
(0.658921 -3.24313 -4.54364e-20)
(0.676871 -3.17356 1.92379e-20)
(0.695257 -3.11004 3.37271e-20)
(0.713596 -3.05105 1.20813e-22)
(0.731519 -2.99545 1.28475e-20)
(0.748751 -2.94237 3.22343e-20)
(0.765095 -2.89115 -2.23948e-20)
(0.780416 -2.84133 3.99026e-20)
(0.794632 -2.79255 -1.92256e-20)
(0.807699 -2.74459 3.46644e-20)
(0.819606 -2.69726 -2.61521e-20)
(0.830367 -2.65044 1.18153e-20)
(0.840011 -2.60406 3.14556e-20)
(0.848581 -2.55806 1.95023e-21)
(0.856129 -2.51237 -2.9496e-20)
(0.862708 -2.46694 1.67802e-20)
(0.868374 -2.42172 2.00897e-21)
(0.873168 -2.37664 -5.45217e-21)
(0.877171 -2.33159 2.10793e-20)
(0.880551 -2.28646 7.50303e-21)
(0.883038 -2.24113 -7.69513e-21)
(0.848177 -4.72207 3.62787e-20)
(0.763527 -4.41159 -9.9019e-22)
(0.731596 -4.15596 -5.55027e-20)
(0.715543 -3.94807 1.12763e-20)
(0.707407 -3.77843 -1.6171e-20)
(0.707147 -3.63825 1.17655e-20)
(0.713032 -3.52079 2.67349e-20)
(0.723286 -3.42079 4.94702e-20)
(0.736576 -3.33414 -5.43062e-20)
(0.75185 -3.2576 1.34032e-20)
(0.768264 -3.18868 -9.70196e-21)
(0.785151 -3.12547 7.22455e-21)
(0.802001 -3.0665 -3.19733e-20)
(0.818424 -3.01068 -2.08182e-21)
(0.834136 -2.95718 5.33107e-20)
(0.848935 -2.9054 -3.68637e-20)
(0.862686 -2.8549 -2.36224e-20)
(0.875308 -2.80536 -1.75217e-20)
(0.886761 -2.75657 3.21789e-20)
(0.897041 -2.70838 7.07611e-21)
(0.906167 -2.6607 -3.22609e-20)
(0.914175 -2.61346 4.36305e-20)
(0.921115 -2.56661 -3.95761e-20)
(0.927042 -2.5201 2.66057e-20)
(0.932017 -2.4739 -1.51005e-20)
(0.936094 -2.42794 1.00069e-20)
(0.939321 -2.38216 7.60278e-21)
(0.941782 -2.33646 -3.39095e-20)
(0.943667 -2.2907 1.47286e-20)
(0.944639 -2.24478 3.07907e-22)
(0.971882 -4.70096 -3.59484e-20)
(0.880381 -4.39803 3.03052e-20)
(0.843076 -4.14819 -5.75351e-20)
(0.822849 -3.94519 1.10938e-19)
(0.811436 -3.77971 -3.15051e-20)
(0.808536 -3.64292 4.57231e-20)
(0.812227 -3.52816 -6.39166e-23)
(0.820588 -3.43024 -6.25847e-21)
(0.832179 -3.3451 -9.7345e-21)
(0.845868 -3.26961 -2.01126e-22)
(0.860754 -3.20132 -3.85844e-20)
(0.876134 -3.1384 2.0114e-20)
(0.891469 -3.07943 -2.49139e-20)
(0.906357 -3.02338 -1.94553e-21)
(0.920504 -2.96946 -7.16082e-20)
(0.933706 -2.9171 2.34921e-20)
(0.94583 -2.86592 1.40141e-20)
(0.956798 -2.81562 -1.5782e-20)
(0.966579 -2.76602 -1.83465e-21)
(0.975173 -2.717 -2.50174e-20)
(0.982606 -2.66848 -9.08168e-21)
(0.988923 -2.62041 8.9565e-22)
(0.994179 -2.57276 -2.25289e-20)
(0.998439 -2.52548 -3.38229e-20)
(1.00176 -2.47855 1.39029e-21)
(1.00422 -2.43191 -3.83032e-21)
(1.00584 -2.3855 1.09797e-20)
(1.00673 -2.33921 -2.73505e-20)
(1.0071 -2.29288 2.34793e-20)
(1.00653 -2.24644 -4.8128e-20)
(1.09508 -4.6767 -9.00046e-20)
(0.997087 -4.38158 1.13144e-19)
(0.954697 -4.13772 -1.21665e-19)
(0.930535 -3.93973 -3.32073e-20)
(0.916044 -3.77847 -2.18861e-20)
(0.910662 -3.64511 -2.39516e-20)
(0.912277 -3.53305 -2.21362e-20)
(0.918829 -3.4372 -4.69685e-21)
(0.928774 -3.35357 -2.29023e-20)
(0.940904 -3.27909 -5.36806e-21)
(0.954268 -3.21142 4.03527e-20)
(0.968126 -3.14876 -2.29829e-20)
(0.981919 -3.08977 -2.81059e-20)
(0.995231 -3.03347 -4.82162e-20)
(1.00777 -2.97912 1.02269e-19)
(1.01932 -2.92619 -3.99069e-20)
(1.02975 -2.87433 1.50345e-20)
(1.03901 -2.82329 -5.69142e-20)
(1.04706 -2.7729 2.18641e-20)
(1.05391 -2.72308 -9.26076e-21)
(1.05959 -2.67375 1.15158e-20)
(1.06416 -2.62489 -4.2289e-21)
(1.06769 -2.57647 3.76581e-20)
(1.07023 -2.52848 -1.34933e-20)
(1.07187 -2.48088 3.7556e-20)
(1.07266 -2.43361 -7.46707e-21)
(1.07265 -2.38663 4.9656e-20)
(1.07194 -2.33982 1.39261e-20)
(1.07077 -2.293 2.63972e-20)
(1.06864 -2.24612 -8.61084e-20)
(1.2177 -4.6493 1.42489e-19)
(1.11358 -4.36223 -2.84973e-20)
(1.0664 -4.12452 5.20208e-20)
(1.03855 -3.93165 -1.52781e-20)
(1.02117 -3.77467 5.38725e-20)
(1.01347 -3.64477 5.1999e-20)
(1.01312 -3.53541 6.0004e-20)
(1.01794 -3.44161 -5.13765e-21)
(1.02629 -3.35946 -5.94565e-20)
(1.03688 -3.28598 8.79538e-20)
(1.04873 -3.21889 -7.24533e-21)
(1.06104 -3.15648 6.41639e-20)
(1.07326 -3.09746 2.36215e-20)
(1.08496 -3.04089 8.60928e-21)
(1.09583 -2.9861 1.43626e-20)
(1.10567 -2.93261 1.96852e-20)
(1.11436 -2.88008 3.34566e-20)
(1.12185 -2.82831 -9.8019e-21)
(1.1281 -2.77716 5.04078e-20)
(1.13314 -2.72656 2.36696e-20)
(1.13702 -2.67646 -4.97358e-20)
(1.1398 -2.62685 8.90108e-20)
(1.14154 -2.57773 -1.18745e-19)
(1.14233 -2.52907 1.13584e-19)
(1.14224 -2.48085 -3.79107e-20)
(1.14133 -2.43303 7.22444e-21)
(1.13966 -2.38554 -5.10659e-20)
(1.13733 -2.33828 2.86358e-20)
(1.1346 -2.29105 1.04723e-20)
(1.1309 -2.24381 -1.33922e-20)
(1.33966 -4.61877 -8.21031e-20)
(1.22979 -4.33999 8.39373e-20)
(1.17812 -4.10857 -2.31218e-20)
(1.14682 -3.92091 6.76411e-20)
(1.12677 -3.76825 6.5905e-21)
(1.11689 -3.64182 1.53948e-20)
(1.11469 -3.53517 -1.21286e-19)
(1.11786 -3.4434 -2.16081e-20)
(1.12466 -3.36272 8.0611e-20)
(1.13373 -3.29021 6.29823e-20)
(1.14405 -3.22368 -1.0807e-19)
(1.1548 -3.16149 6.40346e-20)
(1.16541 -3.10241 -6.47061e-20)
(1.17544 -3.04558 4.5686e-20)
(1.18459 -2.99035 -7.67394e-20)
(1.19267 -2.93629 -5.81572e-20)
(1.19956 -2.88312 3.42953e-21)
(1.2052 -2.83064 -2.74938e-20)
(1.2096 -2.77876 4.90516e-20)
(1.21278 -2.72741 1.96639e-20)
(1.2148 -2.67659 -1.30056e-20)
(1.21573 -2.62628 -3.90441e-21)
(1.21564 -2.5765 1.59028e-20)
(1.21463 -2.52723 -5.30814e-20)
(1.21278 -2.47846 8.96467e-20)
(1.21015 -2.43015 -2.18202e-20)
(1.20679 -2.38223 -1.86947e-21)
(1.20283 -2.3346 8.03818e-20)
(1.19852 -2.28703 1.10956e-20)
(1.19324 -2.23951 -1.18311e-20)
(1.46088 -4.58513 2.66288e-21)
(1.34565 -4.31484 -4.65135e-20)
(1.2898 -4.08985 -4.39596e-20)
(1.25531 -3.90748 -7.30455e-20)
(1.23277 -3.75919 2.21256e-21)
(1.22086 -3.63623 -5.46045e-20)
(1.21693 -3.53227 6.51707e-20)
(1.21851 -3.44252 -6.03217e-21)
(1.22379 -3.36327 5.54407e-20)
(1.23136 -3.2917 -4.54394e-20)
(1.24014 -3.22571 -2.40929e-20)
(1.24931 -3.16372 1.33098e-20)
(1.25827 -3.10458 7.29594e-21)
(1.26658 -3.04747 -7.62417e-20)
(1.27396 -2.99181 4.54736e-20)
(1.28021 -2.93721 -2.326e-20)
(1.28524 -2.8834 6.58069e-20)
(1.28898 -2.83024 -2.20438e-20)
(1.29147 -2.77766 2.33588e-20)
(1.29273 -2.72561 5.7661e-21)
(1.29283 -2.6741 4.05335e-20)
(1.29186 -2.62315 -8.28407e-21)
(1.2899 -2.57276 6.79731e-20)
(1.28705 -2.52295 -7.59265e-20)
(1.2834 -2.47369 -2.59549e-20)
(1.27902 -2.42496 2.15137e-20)
(1.27396 -2.37669 -1.7838e-21)
(1.26835 -2.32876 -3.82548e-20)
(1.26246 -2.28093 3.12584e-20)
(1.25559 -2.23323 -3.84625e-20)
(1.58129 -4.54839 1.40249e-19)
(1.4611 -4.28678 4.00254e-20)
(1.40137 -4.06834 4.79777e-20)
(1.36393 -3.89132 6.66268e-20)
(1.33911 -3.74742 1.01026e-19)
(1.32532 -3.62795 -2.7431e-21)
(1.31975 -3.52666 1.4765e-20)
(1.31982 -3.4389 1.19263e-19)
(1.32362 -3.36105 -2.44781e-20)
(1.32969 -3.2904 -4.50952e-20)
(1.33692 -3.22492 8.11684e-20)
(1.34447 -3.16312 1.41896e-20)
(1.35174 -3.10391 8.91157e-22)
(1.35829 -3.04652 2.0014e-20)
(1.36384 -2.99043 3.68221e-20)
(1.3682 -2.93529 -7.68598e-20)
(1.37129 -2.88088 6.60363e-20)
(1.37308 -2.82707 1.14427e-20)
(1.37359 -2.77382 6.62316e-20)
(1.37287 -2.72112 -3.59254e-20)
(1.37101 -2.66898 6.0553e-20)
(1.36809 -2.61743 -6.47973e-20)
(1.36422 -2.56651 6.34203e-20)
(1.3595 -2.51621 9.08127e-21)
(1.35402 -2.46654 -4.30917e-20)
(1.34786 -2.41746 -1.43724e-20)
(1.34108 -2.36892 8.45838e-20)
(1.3338 -2.32077 6.20345e-20)
(1.32634 -2.27276 1.67092e-20)
(1.31788 -2.22497 -1.21783e-20)
(1.7008 -4.50857 1.46856e-20)
(1.57605 -4.25581 3.51793e-20)
(1.51276 -4.04402 1.43662e-19)
(1.47262 -3.87241 -2.36695e-19)
(1.44571 -3.73291 -2.3867e-20)
(1.4302 -3.61691 -2.5896e-20)
(1.42309 -3.51828 1.18504e-20)
(1.4217 -3.43247 1.67301e-20)
(1.42405 -3.356 2.76841e-20)
(1.42862 -3.28624 -7.46403e-20)
(1.43428 -3.22125 -1.51458e-20)
(1.44019 -3.15962 4.33356e-20)
(1.44571 -3.10033 4.77172e-20)
(1.45045 -3.04267 -4.75013e-20)
(1.45411 -2.98617 -4.79779e-20)
(1.45652 -2.93051 7.81631e-20)
(1.45762 -2.87552 5.21111e-20)
(1.45739 -2.8211 -1.30367e-20)
(1.45587 -2.76723 -3.37436e-20)
(1.45312 -2.71392 6.47193e-21)
(1.44923 -2.6612 -8.00817e-20)
(1.44432 -2.60912 9.76401e-20)
(1.4385 -2.55772 -6.72205e-20)
(1.43186 -2.50701 -2.95179e-21)
(1.42453 -2.457 4.52831e-20)
(1.41658 -2.40765 -1.41356e-20)
(1.40806 -2.35891 -4.3242e-20)
(1.39912 -2.31063 5.36767e-20)
(1.39007 -2.26254 -1.46471e-21)
(1.38003 -2.21473 9.72732e-21)
(1.81933 -4.46568 -1.03787e-20)
(1.69044 -4.22192 -3.60997e-20)
(1.62391 -4.01687 -1.6637e-19)
(1.58133 -3.85071 6.04738e-20)
(1.55252 -3.71562 -1.88224e-20)
(1.53542 -3.60308 6.29474e-20)
(1.52686 -3.50708 4.8632e-21)
(1.52408 -3.42319 -7.4642e-20)
(1.52499 -3.34806 1.15024e-19)
(1.52807 -3.27916 -1.04879e-19)
(1.53214 -3.21464 -4.46285e-21)
(1.53636 -3.15317 2.64289e-20)
(1.5401 -3.0938 -4.56785e-20)
(1.54296 -3.03588 5.33482e-20)
(1.54467 -2.97897 -1.02343e-19)
(1.54507 -2.92283 -2.36966e-20)
(1.54412 -2.86729 6.32963e-20)
(1.54181 -2.81229 -2.03311e-23)
(1.53819 -2.75785 -4.11783e-20)
(1.53335 -2.70398 1.12824e-19)
(1.5274 -2.65075 -6.08154e-20)
(1.52045 -2.5982 -8.24906e-20)
(1.51263 -2.54639 2.76988e-20)
(1.50406 -2.49534 -8.16184e-20)
(1.49485 -2.44507 -1.9951e-20)
(1.48508 -2.39553 -2.61544e-21)
(1.47482 -2.34668 -5.47276e-20)
(1.46421 -2.29835 6.56447e-20)
(1.45358 -2.25025 -3.68417e-20)
(1.44198 -2.20253 4.35318e-20)
(1.93682 -4.41974 -5.10473e-20)
(1.8042 -4.18511 -1.47149e-19)
(1.73474 -3.98688 7.25413e-20)
(1.68997 -3.82619 -7.05162e-20)
(1.65945 -3.69552 -5.2442e-20)
(1.64089 -3.5864 -3.10106e-20)
(1.63099 -3.493 -1.15508e-19)
(1.62685 -3.411 7.95195e-20)
(1.62636 -3.33718 -1.99265e-19)
(1.62793 -3.26911 -7.39523e-20)
(1.63039 -3.20505 2.64535e-20)
(1.63288 -3.14372 4.51251e-20)
(1.63478 -3.08427 -5.76399e-22)
(1.63571 -3.02609 -8.83528e-20)
(1.63541 -2.96881 2.08939e-20)
(1.63374 -2.9122 -8.2587e-20)
(1.63067 -2.85615 -6.00537e-20)
(1.62622 -2.80064 -3.66503e-20)
(1.62046 -2.74567 -7.55464e-21)
(1.61348 -2.6913 6.29982e-20)
(1.60541 -2.63761 9.10359e-20)
(1.59638 -2.58466 -2.7574e-20)
(1.58653 -2.53251 -2.70266e-20)
(1.57599 -2.4812 5.25194e-20)
(1.56488 -2.43074 2.93509e-20)
(1.55329 -2.3811 -2.34466e-20)
(1.54127 -2.33222 -2.64854e-20)
(1.529 -2.28393 2.98718e-21)
(1.51681 -2.23592 2.78841e-20)
(1.50365 -2.18839 3.86479e-20)
(2.05318 -4.37078 -9.87455e-21)
(1.91725 -4.14539 1.87714e-19)
(1.84519 -3.95403 1.4719e-19)
(1.79847 -3.79883 1.15778e-19)
(1.76644 -3.67256 -7.61605e-20)
(1.74656 -3.56685 -1.53679e-20)
(1.73538 -3.47599 1.37936e-20)
(1.72994 -3.39585 1.01716e-19)
(1.72805 -3.3233 3.87094e-20)
(1.72811 -3.25604 9.50375e-20)
(1.72893 -3.19241 -1.344e-19)
(1.72964 -3.13123 1.35701e-20)
(1.72966 -3.0717 5.57792e-20)
(1.72859 -3.01328 3.48772e-20)
(1.72622 -2.95565 7.35334e-20)
(1.72242 -2.89861 -5.02717e-20)
(1.71718 -2.8421 -4.72989e-20)
(1.71052 -2.7861 8.87687e-21)
(1.70255 -2.73067 1.03055e-19)
(1.69338 -2.67586 -1.67287e-19)
(1.68315 -2.62178 5.86113e-20)
(1.67201 -2.5685 -4.21802e-22)
(1.66009 -2.51608 1.12964e-19)
(1.64755 -2.46459 -4.89682e-20)
(1.63452 -2.41402 -2.59277e-21)
(1.62108 -2.36436 -3.17822e-20)
(1.60732 -2.31555 3.03247e-20)
(1.59338 -2.2674 7.4745e-21)
(1.57964 -2.21957 -3.41561e-20)
(1.56495 -2.17232 1.17134e-19)
(2.16833 -4.31883 -1.89776e-19)
(2.02952 -4.10276 -1.145e-19)
(1.95518 -3.91832 -2.96846e-19)
(1.90676 -3.76861 -1.37162e-19)
(1.87339 -3.64671 1.29261e-19)
(1.85232 -3.54436 -7.7425e-20)
(1.83996 -3.45602 -1.95069e-20)
(1.83325 -3.37769 -5.26063e-20)
(1.82997 -3.30638 9.02197e-20)
(1.8285 -3.2399 -2.11258e-20)
(1.82764 -3.17669 -3.33559e-20)
(1.82653 -3.11565 -4.19259e-21)
(1.82461 -3.05605 -1.39061e-19)
(1.8215 -2.99742 -6.26241e-21)
(1.81699 -2.93946 3.72455e-20)
(1.811 -2.88203 -4.47497e-21)
(1.80351 -2.8251 -1.4871e-19)
(1.79461 -2.76868 1.45858e-19)
(1.78438 -2.71283 -1.44596e-19)
(1.77297 -2.65766 5.68619e-20)
(1.76053 -2.60325 8.10114e-21)
(1.74723 -2.5497 3.21216e-21)
(1.73321 -2.4971 -6.13915e-20)
(1.71865 -2.44549 2.09325e-20)
(1.70367 -2.39491 1.35215e-23)
(1.68838 -2.34532 6.99041e-21)
(1.67286 -2.29666 -1.57839e-19)
(1.65726 -2.24875 4.27267e-20)
(1.64198 -2.20121 4.63612e-20)
(1.62578 -2.15433 5.27197e-20)
(2.2822 -4.2639 3.71357e-19)
(2.14093 -4.05723 1.32454e-19)
(2.06463 -3.87973 7.85239e-20)
(2.01477 -3.73551 1.25513e-19)
(1.98025 -3.61794 -1.58663e-20)
(1.9581 -3.5189 9.7191e-20)
(1.94462 -3.43303 2.18654e-19)
(1.93668 -3.35647 -2.77968e-20)
(1.93202 -3.28636 1.31195e-20)
(1.929 -3.22064 2.67161e-19)
(1.92642 -3.15784 -3.53425e-20)
(1.92345 -3.09695 3.80672e-20)
(1.91953 -3.03729 -1.43222e-20)
(1.91431 -2.97846 -1.88891e-21)
(1.90761 -2.92021 2.02356e-19)
(1.89936 -2.86244 7.81457e-21)
(1.88958 -2.80514 2.19287e-19)
(1.87836 -2.74835 -2.7552e-20)
(1.86583 -2.69216 -4.83033e-20)
(1.85213 -2.63668 1.1338e-19)
(1.83744 -2.58201 -1.04495e-19)
(1.82194 -2.52828 1.15332e-19)
(1.8058 -2.47556 6.26532e-20)
(1.78918 -2.42392 -5.11582e-20)
(1.77224 -2.3734 7.81298e-20)
(1.75509 -2.32397 9.30212e-21)
(1.7378 -2.27557 -3.32378e-20)
(1.72055 -2.22799 1.76899e-20)
(1.70375 -2.18083 1.19529e-19)
(1.68608 -2.13445 1.87127e-20)
(2.39471 -4.20602 -6.39324e-20)
(2.25141 -4.0088 -1.33552e-19)
(2.17348 -3.83825 5.59547e-20)
(2.12242 -3.69949 -2.25593e-19)
(2.08691 -3.58622 1.08749e-19)
(2.06381 -3.49045 -2.01181e-19)
(2.04927 -3.40698 -1.34133e-19)
(2.04012 -3.33215 3.77071e-20)
(2.03408 -3.26321 3.81729e-20)
(2.02949 -3.19823 -1.84774e-19)
(2.02516 -3.13583 -8.08726e-20)
(2.02027 -3.07508 3.76725e-20)
(2.01429 -3.01539 -1.04422e-19)
(2.00691 -2.95639 -4.19921e-20)
(1.99795 -2.89789 -2.85059e-20)
(1.98739 -2.83983 -2.8764e-20)
(1.97526 -2.78221 -1.21811e-19)
(1.96168 -2.72512 -7.70092e-20)
(1.94679 -2.66865 1.36586e-20)
(1.93077 -2.61292 2.53814e-20)
(1.91379 -2.55807 2.73755e-20)
(1.89605 -2.50422 -9.50408e-20)
(1.87775 -2.45146 3.59619e-20)
(1.85906 -2.39988 -7.46135e-20)
(1.84013 -2.34949 7.07682e-20)
(1.8211 -2.30031 -9.33166e-20)
(1.80205 -2.25225 2.95603e-20)
(1.78316 -2.20512 -4.62789e-20)
(1.76486 -2.15845 -6.61585e-20)
(1.74574 -2.11267 -6.8797e-21)
(2.50579 -4.14524 -1.35455e-19)
(2.36089 -3.95749 -1.20898e-19)
(2.28166 -3.7939 -1.19908e-19)
(2.22963 -3.66056 -9.00984e-20)
(2.19331 -3.55152 2.78851e-19)
(2.16935 -3.45895 3.97285e-20)
(2.15382 -3.37784 1.2193e-19)
(2.14349 -3.30469 1.88519e-19)
(2.13605 -3.2369 9.18786e-20)
(2.12986 -3.17263 -1.22731e-19)
(2.12373 -3.11063 2.00071e-19)
(2.11688 -3.05004 -1.95825e-19)
(2.1088 -2.99033 1.86663e-19)
(2.09919 -2.9312 2.21947e-20)
(2.08792 -2.87249 4.83114e-20)
(2.07499 -2.81418 1.58802e-20)
(2.06046 -2.75631 1.98483e-19)
(2.04446 -2.69897 -2.96919e-20)
(2.02717 -2.64229 2.68609e-20)
(2.00877 -2.5864 9.1092e-20)
(1.98947 -2.53143 -1.02069e-19)
(1.96947 -2.47754 8.18324e-20)
(1.94898 -2.42481 3.1671e-21)
(1.92818 -2.37335 3.74653e-20)
(1.90726 -2.32319 6.88883e-20)
(1.88634 -2.27433 -1.18224e-20)
(1.86551 -2.22672 6.88619e-20)
(1.84499 -2.18013 1.00223e-19)
(1.8252 -2.13406 -1.08958e-19)
(1.80468 -2.089 -6.78039e-20)
(2.61535 -4.08157 3.98038e-19)
(2.4693 -3.90332 -4.48022e-20)
(2.38909 -3.74665 9.31356e-20)
(2.33633 -3.61868 1.72883e-19)
(2.29936 -3.51381 -5.02034e-19)
(2.27464 -3.42439 5.48713e-20)
(2.25817 -3.34558 -1.95133e-19)
(2.24666 -3.27405 1.97e-19)
(2.23782 -3.20737 -1.57884e-19)
(2.23 -3.14382 8.61776e-20)
(2.22203 -3.08221 -3.15348e-19)
(2.21317 -3.02179 8.93988e-21)
(2.20292 -2.9621 -1.06275e-19)
(2.19102 -2.90287 1.61483e-19)
(2.17739 -2.844 -1.72811e-19)
(2.16203 -2.7855 -9.34515e-21)
(2.14505 -2.72744 -1.42191e-19)
(2.1266 -2.66992 -1.18851e-20)
(2.10687 -2.61309 1.19104e-20)
(2.08607 -2.5571 3.21996e-20)
(2.06441 -2.5021 -1.81843e-19)
(2.04211 -2.44823 -5.61027e-21)
(2.0194 -2.3956 -1.02726e-19)
(1.99647 -2.34433 -2.41323e-20)
(1.97352 -2.29447 -6.36445e-20)
(1.95069 -2.24602 -6.99006e-20)
(1.92809 -2.19895 -7.32579e-20)
(1.90593 -2.15301 1.21275e-19)
(1.88468 -2.10766 3.27297e-20)
(1.86281 -2.06345 -6.55306e-20)
(2.72332 -4.01505 -2.65387e-19)
(2.57656 -3.8463 9.94975e-20)
(2.4957 -3.69652 -1.71952e-19)
(2.44244 -3.57386 2.58497e-20)
(2.40497 -3.47308 2.86251e-19)
(2.37958 -3.38672 -1.46331e-19)
(2.3622 -3.31015 -1.5601e-19)
(2.34954 -3.24022 -1.33719e-19)
(2.33928 -3.17462 6.28231e-21)
(2.32978 -3.11176 8.73504e-20)
(2.31994 -3.05055 -6.43202e-20)
(2.309 -2.99032 2.55609e-21)
(2.29653 -2.93067 2.01817e-19)
(2.28231 -2.87139 -1.02812e-19)
(2.26625 -2.81242 2.73027e-20)
(2.24842 -2.75379 -8.46803e-20)
(2.22895 -2.6956 3.24155e-20)
(2.208 -2.63797 7.09043e-20)
(2.18579 -2.58107 8.08237e-20)
(2.16255 -2.52506 -8.89375e-20)
(2.1385 -2.47008 1.30402e-20)
(2.11388 -2.4163 7.71276e-20)
(2.08893 -2.36385 1.34532e-19)
(2.06385 -2.31283 3.58826e-20)
(2.03885 -2.26333 -1.40052e-19)
(2.01409 -2.21537 1.63834e-19)
(1.98968 -2.16891 -8.23047e-20)
(1.96588 -2.12372 -9.88604e-20)
(1.94319 -2.07921 -6.09482e-20)
(1.91999 -2.03597 -8.4597e-20)
(2.82963 -3.94572 1.41451e-19)
(2.68262 -3.78645 -1.14758e-19)
(2.60144 -3.6435 4.41734e-20)
(2.5479 -3.52606 2.36784e-19)
(2.51006 -3.42928 6.51475e-20)
(2.48407 -3.34592 -5.64052e-20)
(2.46582 -3.27154 1.37439e-19)
(2.452 -3.20315 3.19513e-20)
(2.44029 -3.13861 1.32601e-19)
(2.4291 -3.07644 7.36564e-20)
(2.41733 -3.01564 3.1803e-21)
(2.40427 -2.95563 4.72414e-20)
(2.38953 -2.89605 -1.50775e-20)
(2.37291 -2.83677 2.64364e-20)
(2.35439 -2.77775 7.40169e-20)
(2.33405 -2.71905 -4.10763e-20)
(2.31204 -2.6608 1.02197e-19)
(2.28856 -2.60315 1.04552e-19)
(2.26384 -2.54625 -1.19913e-19)
(2.23813 -2.49028 1.23597e-19)
(2.21167 -2.4354 2.64565e-19)
(2.18472 -2.38177 -1.71786e-19)
(2.15749 -2.32954 1.73777e-19)
(2.13024 -2.27884 -1.22212e-19)
(2.10316 -2.22975 -1.74642e-20)
(2.07644 -2.18233 1.32776e-19)
(2.05021 -2.13657 -2.69105e-20)
(2.02475 -2.09222 1.00685e-19)
(2.00061 -2.04866 1.00591e-19)
(1.97612 -2.00654 -2.03087e-19)
(2.93423 -3.87361 -1.36739e-19)
(2.78742 -3.72379 6.51464e-20)
(2.70624 -3.5876 2.72572e-20)
(2.65262 -3.47527 -2.7752e-19)
(2.61453 -3.38241 -1.45594e-19)
(2.58801 -3.30196 1.10426e-19)
(2.56891 -3.2297 -3.10458e-19)
(2.55392 -3.16283 3.78545e-19)
(2.54075 -3.09933 -2.14587e-19)
(2.52782 -3.03784 2.57928e-20)
(2.51408 -2.97747 -4.09135e-20)
(2.49885 -2.9177 -1.26068e-19)
(2.48179 -2.85825 2.62341e-19)
(2.46274 -2.79901 1.00206e-19)
(2.4417 -2.74 -1.04169e-19)
(2.4188 -2.68131 2.86532e-21)
(2.39422 -2.62308 5.88867e-20)
(2.36818 -2.56546 -1.28569e-19)
(2.34093 -2.50864 2.72866e-20)
(2.31274 -2.45278 8.99226e-20)
(2.28386 -2.39807 -3.76267e-20)
(2.25455 -2.34466 6.28204e-20)
(2.22504 -2.29271 -1.24238e-19)
(2.19559 -2.24236 1.80609e-19)
(2.16641 -2.19372 4.25868e-20)
(2.1377 -2.14687 -1.15441e-19)
(2.1096 -2.10184 -1.00602e-19)
(2.08245 -2.05841 6.31235e-23)
(2.05684 -2.01591 1.39748e-19)
(2.03108 -1.97507 -3.43389e-20)
(3.03704 -3.79877 -3.77033e-20)
(2.89092 -3.65835 -2.73961e-19)
(2.81005 -3.5288 3.29433e-19)
(2.75652 -3.42148 2.25432e-19)
(2.71828 -3.33243 2.27837e-19)
(2.69128 -3.25482 6.45311e-20)
(2.67135 -3.18463 9.73728e-20)
(2.65519 -3.11924 5.01433e-20)
(2.64053 -3.05677 -2.00895e-19)
(2.62583 -2.99597 3.70223e-19)
(2.61006 -2.93605 -3.01644e-19)
(2.59262 -2.87655 -2.04029e-20)
(2.57319 -2.81727 4.45431e-20)
(2.55165 -2.75814 -1.99823e-19)
(2.52806 -2.69921 1.75809e-19)
(2.50257 -2.64059 -5.31119e-20)
(2.47539 -2.58245 -1.36674e-19)
(2.44678 -2.52495 5.31923e-20)
(2.41699 -2.46828 -1.02758e-19)
(2.3863 -2.41261 -9.13379e-20)
(2.35499 -2.35813 -9.82919e-20)
(2.32332 -2.305 2.24427e-20)
(2.29153 -2.25337 1.30571e-20)
(2.25987 -2.2034 -2.44471e-19)
(2.22857 -2.15522 -9.36215e-20)
(2.19783 -2.10894 6.0354e-20)
(2.16782 -2.06466 7.54506e-20)
(2.1389 -2.02218 -1.04495e-19)
(2.11178 -1.98083 -4.00891e-20)
(2.08476 -1.94139 4.03252e-21)
(3.13806 -3.72121 -3.25264e-20)
(2.99311 -3.59014 1.77344e-19)
(2.91283 -3.46709 -5.08001e-20)
(2.85953 -3.36464 -6.2756e-20)
(2.82121 -3.27931 -3.53969e-19)
(2.79377 -3.20447 -7.88803e-20)
(2.77302 -3.13631 1.5068e-19)
(2.75568 -3.07237 -1.00747e-19)
(2.7395 -3.01091 -1.1006e-20)
(2.72298 -2.95081 -2.03012e-20)
(2.70515 -2.89136 1.14302e-19)
(2.68545 -2.83219 -1.81396e-19)
(2.6636 -2.77313 -1.22348e-19)
(2.63954 -2.71416 1.44625e-19)
(2.61337 -2.65538 -8.30498e-20)
(2.58526 -2.59692 -1.00819e-19)
(2.55546 -2.53895 2.16415e-19)
(2.52425 -2.48165 -3.43346e-20)
(2.49192 -2.42521 1.29116e-19)
(2.45875 -2.36982 -1.18616e-19)
(2.42502 -2.31563 -9.64107e-20)
(2.391 -2.26283 8.4428e-20)
(2.35693 -2.21156 -9.47363e-21)
(2.32307 -2.16199 -6.36236e-20)
(2.28964 -2.11425 5.63736e-20)
(2.25685 -2.06852 -1.7642e-19)
(2.22488 -2.02492 1.07926e-19)
(2.19412 -1.98338 -1.72395e-21)
(2.1654 -1.9432 -1.13739e-19)
(2.1371 -1.90523 1.73798e-19)
(3.23738 -3.64102 1.33943e-19)
(3.09402 -3.51918 -3.48469e-19)
(3.01451 -3.40245 -2.96227e-20)
(2.96154 -3.30473 1.66053e-19)
(2.9232 -3.22302 -4.31877e-20)
(2.89534 -3.15089 -1.23649e-19)
(2.87378 -3.08471 5.79665e-20)
(2.85525 -3.0222 6.78865e-20)
(2.83753 -2.96177 5.73269e-21)
(2.81916 -2.90239 8.47832e-20)
(2.79923 -2.84344 2.73415e-19)
(2.77722 -2.78463 -9.64965e-20)
(2.75291 -2.72585 2.51199e-20)
(2.7263 -2.66713 -6.62135e-20)
(2.6975 -2.60857 2.54294e-19)
(2.66676 -2.55034 -4.61274e-20)
(2.63433 -2.49263 1.52827e-19)
(2.60053 -2.43562 -5.98048e-20)
(2.56565 -2.3795 6.45456e-20)
(2.53 -2.32445 9.81382e-20)
(2.49387 -2.27064 1.6904e-20)
(2.45753 -2.21822 6.66067e-20)
(2.42123 -2.16736 -5.53445e-20)
(2.3852 -2.11819 1.54708e-19)
(2.34967 -2.07088 -6.34853e-20)
(2.31483 -2.0256 2.33607e-19)
(2.28085 -1.98257 -6.76603e-20)
(2.24816 -1.9418 4.68756e-20)
(2.21775 -1.90265 -8.88512e-20)
(2.18817 -1.86617 1.68957e-19)
(3.33537 -3.55831 -2.94853e-19)
(3.19379 -3.44541 1.119e-20)
(3.11502 -3.33476 -1.81404e-19)
(3.06242 -3.24168 3.31887e-20)
(3.02409 -3.16353 9.50038e-21)
(2.99586 -3.09407 -1.64256e-19)
(2.9735 -3.02985 -3.11754e-19)
(2.95377 -2.96876 1.56758e-19)
(2.93448 -2.90935 -2.23935e-19)
(2.91423 -2.8507 -1.19136e-19)
(2.89215 -2.79229 -6.84781e-20)
(2.86779 -2.7339 -5.51001e-20)
(2.84099 -2.67547 1.40349e-21)
(2.81179 -2.61705 -1.99559e-19)
(2.78035 -2.55881 1.31766e-19)
(2.74695 -2.5009 -2.17531e-19)
(2.71189 -2.44354 -5.55255e-20)
(2.67549 -2.38691 6.03334e-20)
(2.63809 -2.3312 7.63585e-20)
(2.6 -2.27658 7.65975e-20)
(2.56151 -2.22323 5.9047e-20)
(2.5229 -2.17127 -1.48621e-19)
(2.48442 -2.12086 1.50375e-19)
(2.44629 -2.07212 -1.61142e-20)
(2.40872 -2.02519 -4.06641e-20)
(2.37188 -1.98025 -1.61955e-19)
(2.3359 -1.93753 -8.63296e-20)
(2.30115 -1.89708 1.60228e-19)
(2.26872 -1.85845 -5.27034e-20)
(2.23757 -1.82354 -5.49184e-20)
(3.43248 -3.47277 1.28172e-19)
(3.29242 -3.36841 1.20887e-20)
(3.2142 -3.26384 -3.54609e-20)
(3.16196 -3.17543 -7.96775e-21)
(3.12374 -3.10085 -6.53076e-20)
(3.09518 -3.03402 2.22112e-19)
(3.07205 -2.97174 -1.05369e-19)
(3.05111 -2.91206 6.9391e-20)
(3.03023 -2.85367 2.88778e-20)
(3.00806 -2.79578 1.05348e-19)
(2.9838 -2.73796 -4.11509e-20)
(2.95706 -2.68004 2.33568e-19)
(2.92773 -2.62202 -2.02343e-20)
(2.8959 -2.564 1.53488e-19)
(2.86181 -2.50615 -2.59496e-19)
(2.82575 -2.44866 -1.99356e-20)
(2.78805 -2.39174 1.69447e-19)
(2.74907 -2.33559 -1.05925e-19)
(2.70916 -2.28039 -7.47934e-20)
(2.66865 -2.22631 -1.29335e-19)
(2.62785 -2.17351 -1.14127e-19)
(2.58704 -2.1221 1.22726e-19)
(2.54648 -2.07223 -1.16064e-19)
(2.50639 -2.02397 2.53303e-20)
(2.46697 -1.97745 9.44614e-20)
(2.42836 -1.93277 6.57335e-20)
(2.39067 -1.89004 6.24698e-20)
(2.35407 -1.8492 4.62062e-20)
(2.31911 -1.81023 -1.25065e-19)
(2.28529 -1.77643 -5.40716e-20)
(5.01012 -0.0293785 1.81322e-21)
(5.00302 -0.161178 1.7955e-20)
(4.99282 -0.292035 6.2362e-20)
(4.97949 -0.422233 3.4122e-20)
(4.96282 -0.55183 -7.21793e-20)
(4.94274 -0.680795 2.18581e-20)
(4.91927 -0.809061 -2.29206e-20)
(4.89241 -0.936551 -5.7901e-20)
(4.86221 -1.06318 1.4773e-19)
(4.82868 -1.18886 -3.52139e-20)
(4.79186 -1.3135 -3.55191e-20)
(4.75178 -1.43703 -7.52019e-20)
(4.7085 -1.55934 -2.15798e-19)
(4.66204 -1.68038 1.98997e-20)
(4.61245 -1.80004 -9.73099e-21)
(4.55978 -1.91826 -6.75569e-20)
(4.50407 -2.03495 1.44755e-19)
(4.44538 -2.15003 7.85766e-20)
(4.38374 -2.26345 1.50572e-19)
(4.31922 -2.37511 7.36554e-20)
(4.25187 -2.48496 -1.64769e-19)
(4.18174 -2.59292 6.55207e-21)
(4.10888 -2.69893 -3.11865e-19)
(4.03337 -2.80291 4.73374e-19)
(3.95526 -2.90483 -1.55391e-19)
(3.8746 -3.00461 -2.00726e-19)
(3.79148 -3.10221 -2.86853e-20)
(3.70596 -3.19761 -2.22224e-21)
(3.61813 -3.29088 -1.52003e-19)
(3.52796 -3.38239 2.69624e-19)
(5.02939 -0.0592693 7.50771e-21)
(5.01713 -0.191062 1.1092e-20)