/*--------------------------------*- C++ -*----------------------------------*\
| =========                 |                                                 |
| \\      /  F ield         | OpenFOAM: The Open Source CFD Toolbox           |
|  \\    /   O peration     | Version:  v1912                                 |
|   \\  /    A nd           | Website:  www.openfoam.com                      |
|    \\/     M anipulation  |                                                 |
\*---------------------------------------------------------------------------*/
FoamFile
{
    version     2.0;
    format      ascii;
    class       surfaceScalarField;
    location    "36.5";
    object      phi;
}
// * * * * * * * * * * * * * * * * * * * * * * * * * * * * * * * * * * * * * //

dimensions      [0 3 -1 0 0 0 0];
oriented        oriented;


internalField   nonuniform List<scalar> 
18940
(
0.000356575
-0.234392
0.234036
0.00137297
-0.216374
0.215357
0.00287059
-0.204839
0.203342
0.00467956
-0.197047
0.195238
0.00666957
-0.191277
0.189287
0.00873934
-0.186466
0.184397
0.0108154
-0.182028
0.179952
0.0128484
-0.177668
0.175635
0.0148085
-0.173262
0.171302
0.0166803
-0.168783
0.166911
0.0184591
-0.16425
0.162472
0.0201473
-0.159707
0.158019
0.021752
-0.155201
0.153596
0.023283
-0.150775
0.149244
0.0247514
-0.146465
0.144997
0.0261689
-0.142296
0.140879
0.0275469
-0.13828
0.136902
0.0288959
-0.134415
0.133066
0.0302243
-0.13068
0.129352
-0.127037
0.125724
0.0315374
0.000379966
-0.234772
0.00141623
-0.21741
0.00292457
-0.206347
0.00473791
-0.19886
0.00672252
-0.193262
0.00877715
-0.188521
0.0108296
-0.18408
0.0128321
-0.179671
0.0147566
-0.175187
0.0165897
-0.170616
0.018328
-0.165989
0.0199754
-0.161355
0.02154
-0.156765
0.0230322
-0.152267
0.0244635
-0.147896
0.025846
-0.143679
0.0271912
-0.139626
0.0285101
-0.135734
0.0298116
-0.131982
-0.128327
0.0311015
0.000401364
-0.235174
0.00145384
-0.218463
0.00297092
-0.207865
0.0047849
-0.200674
0.00676048
-0.195237
0.00879633
-0.190557
0.0108215
-0.186106
0.0127901
-0.181639
0.0146759
-0.177073
0.0164673
-0.172407
0.0181628
-0.167684
0.0197674
-0.162959
0.02129
-0.158288
0.0227417
-0.153719
0.0241346
-0.149289
0.0254807
-0.145025
0.0267919
-0.140937
0.0280795
-0.137021
0.0293526
-0.133255
-0.129592
0.0306182
0.000415215
-0.235589
0.00148273
-0.21953
0.00300772
-0.20939
0.0048198
-0.202486
0.00678298
-0.1972
0.00879652
-0.19257
0.0107909
-0.1881
0.0127223
-0.183571
0.0145665
-0.178917
0.0163138
-0.174155
0.0179642
-0.169335
0.019524
-0.164519
0.021003
-0.159767
0.022413
-0.155129
0.0237661
-0.150642
0.0250747
-0.146334
0.0263508
-0.142213
0.0276059
-0.138277
0.0288499
-0.134499
-0.130833
0.0300904
0.000426467
-0.236015
0.00150625
-0.22061
0.00303632
-0.21092
0.00484324
-0.204293
0.00679051
-0.199148
0.00877818
-0.194558
0.0107384
-0.19006
0.0126295
-0.185462
0.0144293
-0.180717
0.0161299
-0.175855
0.0177332
-0.170938
0.0192464
-0.166032
0.0206804
-0.161201
0.0220473
-0.156495
0.0233595
-0.151955
0.0246295
-0.147604
0.0258696
-0.143453
0.0270914
-0.139498
0.0283053
-0.135713
-0.132047
0.0295199
0.000435546
-0.236451
0.00152481
-0.221699
0.00305697
-0.212452
0.00485547
-0.206092
0.00678335
-0.201075
0.00874168
-0.196516
0.0106645
-0.191983
0.0125122
-0.187309
0.0142649
-0.182469
0.0159167
-0.177507
0.0174708
-0.172492
0.0189359
-0.167497
0.0203234
-0.162588
0.0216459
-0.157818
0.0229161
-0.153225
0.0241466
-0.148834
0.0253496
-0.144656
0.026537
-0.140686
0.02772
-0.136896
-0.133235
0.028908
0.00044302
-0.236894
0.00153908
-0.222795
0.00307024
-0.213983
0.00485697
-0.207878
0.006762
-0.20298
0.00868762
-0.198442
0.0105698
-0.193865
0.0123713
-0.189111
0.0140744
-0.184173
0.0156751
-0.179108
0.0171781
-0.173995
0.0185934
-0.168912
0.019933
-0.163928
0.0212099
-0.159095
0.0224371
-0.154452
0.0236269
-0.150024
0.0247917
-0.145821
0.0259437
-0.141838
0.0270947
-0.138047
-0.134396
0.0282553
0.000449043
-0.237343
0.00154939
-0.223896
0.00307653
-0.21551
0.00484821
-0.20965
0.00672703
-0.204859
0.00861666
-0.200332
0.0104552
-0.195704
0.0122078
-0.190863
0.0138588
-0.185824
0.0154062
-0.180655
0.0168563
-0.175445
0.0182201
-0.170276
0.0195104
-0.165218
0.0207404
-0.160325
0.0219232
-0.155635
0.0230711
-0.151172
0.0241964
-0.146946
0.0253118
-0.142953
0.0264296
-0.139165
-0.135528
0.0275616
0.000453721
-0.237797
0.00155602
-0.224998
0.00307627
-0.21703
0.00482975
-0.211404
0.00667912
-0.206709
0.00852963
-0.202182
0.0103216
-0.197496
0.0120225
-0.192564
0.0136191
-0.18742
0.0151112
-0.182147
0.0165066
-0.17684
0.0178172
-0.171587
0.0190566
-0.166458
0.0202383
-0.161507
0.0213752
-0.156772
0.0224797
-0.152276
0.0235641
-0.148031
0.0246411
-0.14403
0.025724
-0.140248
-0.13663
0.026826
0.000457127
-0.238254
0.00155926
-0.2261
0.00306996
-0.218541
0.00480223
-0.213136
0.00661907
-0.208525
0.00842747
-0.20399
0.0101702
-0.199239
0.0118169
-0.194211
0.0133568
-0.18896
0.0147915
-0.183582
0.0161303
-0.178179
0.017386
-0.172843
0.0185727
-0.167644
0.0197043
-0.162638
0.0207937
-0.157861
0.021853
-0.153335
0.0228944
-0.149072
0.0239309
-0.145067
0.0249767
-0.141293
-0.1377
0.0260467
0.000459368
-0.238713
0.00155945
-0.2272
0.00305816
-0.22004
0.00476641
-0.214844
0.00654782
-0.210307
0.00831134
-0.205754
0.0100021
-0.200929
0.0115924
-0.195801
0.0130734
-0.190441
0.0144487
-0.184957
0.0157289
-0.179459
0.0169278
-0.174041
0.01806
-0.168777
0.0191396
-0.163718
0.0201793
-0.158901
0.021191
-0.154347
0.0221869
-0.150068
0.0231801
-0.14606
0.0241859
-0.142299
-0.138735
0.025221
0.000460598
-0.239174
0.00155704
-0.228296
0.00304154
-0.221524
0.00472317
-0.216526
0.00646648
-0.21205
0.00818253
-0.20747
0.00981896
-0.202566
0.0113505
-0.197333
0.0127707
-0.191861
0.0140847
-0.186271
0.0153044
-0.180679
0.0164444
-0.175181
0.01752
-0.169852
0.0185452
-0.164743
0.0195327
-0.159888
0.0204942
-0.155309
0.0214414
-0.151015
0.0223876
-0.147006
0.0233494
-0.143261
-0.139731
0.0243457
0.000461096
-0.239635
0.00155265
-0.229388
0.00302097
-0.222993
0.0046736
-0.218178
0.00637635
-0.213753
0.00804258
-0.209136
0.00962254
-0.204146
0.0110934
-0.198804
0.0124508
-0.193219
0.0137016
-0.187522
0.0148589
-0.181836
0.015938
-0.176261
0.0169546
-0.170869
0.0179227
-0.165711
0.0188551
-0.16082
0.0197628
-0.156216
0.0206573
-0.15191
0.0215522
-0.147901
0.0224649
-0.144174
-0.140684
0.0234171
0.000461341
-0.240096
0.00154712
-0.230474
0.00299749
-0.224443
0.00461893
-0.2198
0.00627889
-0.215413
0.00789323
-0.210751
0.00941483
-0.205667
0.0108233
-0.200212
0.0121163
-0.194512
0.0133023
-0.188708
0.0143952
-0.182929
0.0154113
-0.177277
0.0163662
-0.171824
0.0172743
-0.166619
0.0181477
-0.161694
0.0189974
-0.157066
0.0198342
-0.152747
0.0206717
-0.148739
0.0215283
-0.14503
-0.141584
0.0224288
0.000462133
-0.240558
0.00154163
-0.231553
0.00297231
-0.225874
0.0045605
-0.221388
0.0061757
-0.217028
0.00773639
-0.212311
0.00919811
-0.207129
0.0105429
-0.201557
0.0117702
-0.195739
0.01289
-0.189828
0.0139171
-0.183956
0.0148681
-0.178228
0.0157588
-0.172714
0.0166033
-0.167464
0.0174134
-0.162504
0.0181995
-0.157852
0.0189718
-0.153519
0.0197433
-0.14951
0.0205335
-0.14582
-0.142423
0.0213724
0.00046462
-0.241023
0.00153748
-0.232626
0.00294665
-0.227283
0.0044997
-0.222941
0.00606847
-0.218597
0.00757412
-0.213817
0.00897482
-0.20853
0.010255
-0.202837
0.0114159
-0.1969
0.0124687
-0.190881
0.013429
-0.184917
0.0143135
-0.179112
0.0151378
-0.173539
0.0159156
-0.168241
0.016658
-0.163246
0.0173745
-0.158569
0.0180742
-0.154219
0.0187689
-0.150205
0.0194794
-0.146531
-0.143188
0.0202446
0.000470191
-0.241493
0.00153597
-0.233692
0.00292181
-0.228669
0.00443806
-0.224457
0.00595905
-0.220118
0.0074086
-0.215266
0.00874761
-0.209869
0.00996278
-0.204052
0.0110572
-0.197994
0.0120429
-0.191866
0.012936
-0.18581
0.0137532
-0.179929
0.0145096
-0.174295
0.0152183
-0.16895
0.0158896
-0.163918
0.0165317
-0.159211
0.0171521
-0.154839
0.0177609
-0.150814
0.0183788
-0.147149
-0.143855
0.0190456
0.000481175
-0.241974
0.00153974
-0.234751
0.00290027
-0.230029
0.00437771
-0.225935
0.00584939
-0.22159
0.00724195
-0.216659
0.008519
-0.211146
0.0096695
-0.205203
0.010698
-0.199023
0.0116176
-0.192786
0.0124442
-0.186637
0.0131942
-0.180679
0.0138817
-0.174983
0.0145186
-0.169587
0.0151141
-0.164513
0.0156755
-0.159772
0.0162092
-0.155373
0.0167217
-0.151326
0.0172259
-0.147653
-0.144375
0.0177459
0.000505154
-0.242479
0.001556
-0.235801
0.00288607
-0.231359
0.00432054
-0.227369
0.00574072
-0.22301
0.00707556
-0.217994
0.00829101
-0.212361
0.00937807
-0.20629
0.0103427
-0.199988
0.0111986
-0.193642
0.0119616
-0.1874
0.0126469
-0.181365
0.013267
-0.175603
0.0138308
-0.170151
0.0143443
-0.165027
0.014811
-0.160239
0.0152328
-0.155795
0.0156086
-0.151702
0.0159429
-0.147987
-0.14473
0.0162977
0.000562244
-0.243042
0.00159307
-0.236832
0.00287898
-0.232645
0.00426536
-0.228756
0.00563256
-0.224377
0.00690986
-0.219271
0.00806494
-0.213516
0.00909077
-0.207316
0.00999488
-0.200892
0.0107917
-0.194439
0.0114971
-0.188105
0.0121256
-0.181993
0.0126877
-0.176165
0.013189
-0.170652
0.0136292
-0.165467
0.0140011
-0.160611
0.0142876
-0.156081
0.0144629
-0.151877
0.0145216
-0.148046
-0.144901
0.0146923
0.250702
0.000414104
-0.251116
0.250314
0.00038772
0.249933
0.000380428
0.249553
0.000380539
0.249169
0.000383465
0.248782
0.000387857
0.248389
0.000392989
0.24799
0.000398275
0.247587
0.00040332
0.247179
0.000407921
0.246767
0.00041198
0.246352
0.00041547
0.245933
0.000418375
0.245513
0.000420669
0.24509
0.000422229
0.244667
0.000422849
0.244246
0.00042148
0.243828
0.000417574
0.243426
0.000401931
0.000384806
0.252627
0.00102098
-0.253234
0.251985
0.00103007
0.251314
0.00105107
0.250617
0.00107796
0.249894
0.00110623
0.249147
0.00113451
0.248378
0.00116234
0.247587
0.00118921
0.246775
0.0012147
0.245945
0.00123856
0.245096
0.00126068
0.244231
0.00128102
0.243349
0.00129959
0.242454
0.00131637
0.241545
0.00133122
0.240624
0.00134395
0.239692
0.00135344
0.23875
0.00135942
0.237796
0.00135563
0.0013487
0.251375
0.00159136
-0.251945
0.25074
0.00166505
0.250052
0.00173897
0.249316
0.00181399
0.248534
0.00188777
0.24771
0.00195909
0.246845
0.00202762
0.245941
0.00209314
0.245
0.00215539
0.244024
0.00221422
0.243015
0.00226958
0.241975
0.00232152
0.240904
0.0023701
0.239805
0.00241545
0.238679
0.00245758
0.237526
0.00249653
0.236348
0.00253176
0.235144
0.00256353
0.23391
0.00258945
0.00261369
0.247247
0.00203365
-0.247689
0.246735
0.00217685
0.246159
0.00231543
0.245522
0.00245084
0.244827
0.00258241
0.244077
0.00270936
0.243273
0.00283135
0.242418
0.0029482
0.241514
0.00305979
0.240562
0.00316604
0.239565
0.00326695
0.238524
0.00336267
0.23744
0.00345339
0.236316
0.00353939
0.235153
0.00362095
0.233951
0.00369842
0.232711
0.00377191
0.231432
0.00384203
0.230114
0.00390807
0.00397202
0.240985
0.00231209
-0.241264
0.240636
0.00252643
0.240217
0.002734
0.239732
0.00293564
0.239184
0.00313133
0.238572
0.00332059
0.237901
0.00350309
0.23717
0.00367863
0.236383
0.00384711
0.23554
0.00400848
0.234645
0.0041628
0.233697
0.00431028
0.232699
0.00445125
0.231652
0.00458615
0.230558
0.00471554
0.229416
0.0048401
0.228228
0.00496042
0.226992
0.00507747
0.225709
0.0051914
0.00530388
0.23338
0.00243529
-0.233503
0.233186
0.00272006
0.232923
0.00299691
0.232593
0.00326614
0.232196
0.00352778
0.231735
0.00378153
0.231211
0.00402705
0.230626
0.00426411
0.229981
0.00449257
0.229277
0.00471241
0.228516
0.00492371
0.227699
0.00512673
0.226829
0.0053219
0.225905
0.00550985
0.224929
0.00569138
0.223902
0.00586751
0.222823
0.00603931
0.221692
0.00620815
0.220509
0.00637487
0.00654134
0.225132
0.00243365
-0.22513
0.225065
0.00278632
0.224932
0.00313032
0.224733
0.00346557
0.224468
0.00379201
0.22414
0.00410935
0.22375
0.00441727
0.223299
0.00471546
0.222788
0.00500377
0.222218
0.00528214
0.221591
0.00555066
0.220908
0.00580962
0.22017
0.00605954
0.219379
0.0063012
0.218535
0.00653567
0.217638
0.00676431
0.216689
0.00698868
0.215686
0.00721067
0.214629
0.00743181
0.00765426
0.216766
0.00234325
-0.216676
0.216792
0.00276027
0.216755
0.00316803
0.216654
0.00356622
0.216491
0.00395463
0.216268
0.00433295
0.215984
0.00470079
0.215642
0.00505781
0.215242
0.0054038
0.214785
0.00573864
0.214274
0.00606241
0.213708
0.00637541
0.213089
0.0066782
0.212419
0.00697173
0.211697
0.00725728
0.210925
0.00753662
0.210102
0.00781183
0.209227
0.00808544
0.208299
0.00835979
0.00863758
0.20863
0.00219727
-0.208485
0.208716
0.00267489
0.208741
0.00314266
0.208707
0.00360016
0.208615
0.00404706
0.208465
0.00448296
0.208258
0.00490742
0.207996
0.00532004
0.207679
0.0057205
0.207309
0.00610865
0.206887
0.00648449
0.206414
0.00684829
0.205892
0.00720065
0.205321
0.00754258
0.204703
0.00787564
0.204037
0.00820193
0.203325
0.00852422
0.202565
0.00884576
0.201754
0.00916998
0.00950042
0.200923
0.00202263
-0.200749
0.201041
0.00255727
0.201102
0.00308149
0.201108
0.00359476
0.201058
0.00409664
0.200954
0.00458665
0.200797
0.00506427
0.200589
0.00552901
0.200329
0.00598048
0.200019
0.00641838
0.199661
0.00684266
0.199255
0.00725347
0.198805
0.0076514
0.19831
0.00803748
0.197772
0.00841347
0.197192
0.00878181
0.19657
0.00914602
0.195906
0.00951023
0.195196
0.00987939
0.0102583
0.193738
0.00183914
-0.193555
0.193868
0.00242769
0.193944
0.00300525
0.193968
0.00357116
0.19394
0.00412488
0.19386
0.00466584
0.193731
0.00519343
0.193553
0.00570704
0.193328
0.00620618
0.193055
0.00669043
0.192739
0.00715956
0.192378
0.0076136
0.191977
0.00805301
0.191536
0.00847873
0.191056
0.00889268
0.190541
0.0092975
0.189989
0.00969762
0.189401
0.0100981
0.188775
0.010506
0.0109279
0.187098
0.00166017
-0.186919
0.187226
0.00230013
0.187302
0.00292851
0.187329
0.00354448
0.187307
0.00414741
0.187236
0.00473664
0.187118
0.00531146
0.186954
0.00587116
0.186745
0.00641508
0.186493
0.00694264
0.186199
0.00745344
0.185865
0.00794725
0.185494
0.00842433
0.185087
0.00888537
0.184647
0.00933232
0.184177
0.00976777
0.183678
0.0101973
0.183149
0.0106264
0.182589
0.0110659
0.0115241
0.180983
0.00149404
-0.180817
0.1811
0.00218359
0.181168
0.00286079
0.181187
0.00352476
0.18116
0.00417479
0.181086
0.00481015
0.180968
0.00542999
0.180806
0.00603348
0.180601
0.00661981
0.180355
0.00718821
0.180071
0.00773801
0.179749
0.00826867
0.179393
0.00878012
0.179006
0.00927258
0.178591
0.00974788
0.17815
0.0102081
0.177688
0.0106601
0.177205
0.0111093
0.176699
0.0115721
0.0120579
0.175351
0.00134561
-0.175203
0.175452
0.00208321
0.175505
0.00280769
0.175512
0.00351808
0.175473
0.0042136
0.17539
0.00489339
0.175263
0.00555651
0.175094
0.00620201
0.174885
0.0068289
0.174637
0.00743618
0.174353
0.0080229
0.174033
0.00858809
0.173682
0.00913125
0.173303
0.00965184
0.172899
0.0101514
0.172477
0.0106305
0.172039
0.0110981
0.171591
0.0115571
0.171129
0.0120338
0.0125351
0.170151
0.00121714
-0.170022
0.170232
0.0020017
0.170268
0.00277221
0.170258
0.00352775
0.170204
0.00426744
0.170107
0.00499031
0.169968
0.00569534
0.169789
0.00638145
0.16957
0.00704747
0.169314
0.00769215
0.169023
0.00831422
0.168699
0.00891224
0.168345
0.00948512
0.167966
0.0100313
0.167565
0.0105516
0.167152
0.0110444
0.166729
0.0115206
0.166309
0.0119768
0.165886
0.0124569
0.0129544
0.165326
0.00110942
-0.165219
0.165388
0.00193987
0.165405
0.00275535
0.165378
0.00355494
0.165308
0.00433768
0.165196
0.00510251
0.165043
0.00584831
0.16485
0.00657389
0.16462
0.00727789
0.164353
0.00795885
0.164052
0.00861512
0.16372
0.00924478
0.163359
0.00984603
0.162974
0.010416
0.162571
0.0109547
0.162159
0.0114564
0.161745
0.0119349
0.161348
0.0123734
0.16096
0.0128447
0.0133038
0.160827
0.00102196
-0.160739
0.160869
0.00189725
0.160868
0.0027567
0.160824
0.00359929
0.160737
0.00442401
0.16061
0.00522972
0.160443
0.00601523
0.160238
0.00677921
0.159995
0.00752018
0.159718
0.00823643
0.159407
0.00892601
0.159065
0.00958649
0.158696
0.0102153
0.158304
0.0108082
0.157895
0.0113637
0.15748
0.011871
0.157069
0.0123461
0.156693
0.0127496
0.156335
0.0132024
0.0135576
0.156604
0.000952929
-0.156535
0.156629
0.00187229
0.156611
0.00277454
0.156552
0.00365899
0.156451
0.00452449
0.156311
0.00536986
0.156132
0.00619385
0.155917
0.00699504
0.155665
0.00777183
0.155379
0.00852231
0.155061
0.00924429
0.154712
0.00993488
0.154337
0.0105909
0.153938
0.0112066
0.153523
0.0117788
0.153104
0.01229
0.152693
0.0127575
0.152338
0.0131047
0.152004
0.0135358
0.0136849
0.152616
0.00090038
-0.152564
0.152626
0.00186214
0.152595
0.00280568
0.152524
0.00373044
0.152413
0.00463511
0.152265
0.00551848
0.152079
0.0063793
0.151858
0.00721608
0.151603
0.0080271
0.151315
0.00881034
0.150996
0.00956342
0.150647
0.0102831
0.150273
0.0109658
0.149875
0.0116045
0.149459
0.0121949
0.149037
0.0127117
0.148622
0.0131726
0.148287
0.0134389
0.147995
0.0138282
0.013634
0.148824
-0.148786
0.000862745
0.148823
0.00186287
0.148783
0.00284575
0.148705
0.00380859
0.14859
0.00475003
0.14844
0.00566899
0.148255
0.00656419
0.148037
0.0074341
0.147787
0.00827695
0.147507
0.00909063
0.147197
0.00987271
0.146861
0.0106198
0.146498
0.0113281
0.146113
0.0119897
0.145708
0.0126003
0.145291
0.0131283
0.144869
0.0135951
0.144518
0.0137892
0.144261
0.0140856
0.0129943
0.254328
7.40388e-05
-0.254402
0.254291
3.62879e-05
0.254259
3.23881e-05
0.254218
4.12583e-05
0.254162
5.563e-05
0.254089
7.34233e-05
0.253995
9.33361e-05
0.253881
0.000114245
0.253746
0.000135336
0.25359
0.000156103
0.253414
0.000176109
0.253218
0.000195067
0.253005
0.000213459
0.252773
0.000232327
0.252523
0.000249591
0.252258
0.000264747
0.251981
0.000277383
0.251694
0.000287413
0.251405
0.00028898
0.000288963
0.256143
-0.000240791
-0.255828
0.256396
-0.000217063
0.256605
-0.000176346
0.256769
-0.000122748
0.256888
-6.27842e-05
0.25696
9.40643e-07
0.256986
6.72843e-05
0.256965
0.000135155
0.256897
0.000203634
0.256781
0.000271792
0.256619
0.000338382
0.256412
0.000402174
0.256163
0.00046195
0.255867
0.000528933
0.255526
0.000590596
0.255143
0.000647633
0.25472
0.000699961
0.25426
0.000747524
0.253764
0.000785665
0.000818601
0.251554
-0.000895887
-0.250899
0.252137
-0.000799364
0.252653
-0.000692995
0.253108
-0.00057694
0.253499
-0.000454711
0.253829
-0.000328551
0.254096
-0.000199605
0.2543
-6.92909e-05
0.254442
6.24068e-05
0.254518
0.000194956
0.254532
0.000324477
0.254484
0.000450589
0.25437
0.000575581
0.254199
0.000700263
0.253969
0.00082087
0.25368
0.000936479
0.253333
0.0010466
0.25293
0.00115113
0.252467
0.00124812
0.00134039
0.243226
-0.0018291
-0.242293
0.244087
-0.00166
0.244877
-0.00148364
0.2456
-0.00129927
0.246254
-0.00110857
0.246838
-0.000913343
0.247354
-0.000714931
0.247799
-0.000514598
0.248174
-0.000313031
0.248477
-0.000107488
0.248707
9.39565e-05
0.24887
0.000288146
0.248961
0.000484288
0.248984
0.000677411
0.248938
0.000866471
0.248824
0.00105056
0.248642
0.00122892
0.248392
0.00140118
0.248074
0.00156628
0.00172477
0.233141
-0.00296059
-0.23201
0.234205
-0.00272346
0.2352
-0.00247883
0.236127
-0.00222625
0.236985
-0.00196666
0.237773
-0.00170153
0.238491
-0.0014323
0.239136
-0.00116017
0.239709
-0.000886109
0.240213
-0.000610897
0.240644
-0.000337737
0.241001
-6.80839e-05
0.241285
0.00020016
0.241497
0.000465076
0.241637
0.000726282
0.241706
0.00098234
0.241702
0.00123251
0.241627
0.0014762
0.241481
0.00171258
0.00194159
0.222586
-0.00421822
-0.221328
0.22378
-0.00391793
0.22491
-0.00360858
0.225974
-0.00329029
0.226971
-0.00296389
0.2279
-0.0026308
0.228761
-0.00229258
0.229551
-0.00195069
0.230272
-0.00160658
0.230922
-0.00126159
0.231502
-0.000917286
0.232009
-0.000574949
0.232444
-0.000235444
0.23281
9.96786e-05
0.233104
0.000431925
0.233326
0.000760182
0.233477
0.00108175
0.233557
0.00139657
0.233565
0.00170401
0.00200382
0.212341
-0.00554458
-0.211014
0.213608
-0.00518532
0.214815
-0.00481488
0.215958
-0.0044339
0.217038
-0.00404343
0.218052
-0.00364506
0.219
-0.00324061
0.219881
-0.00283181
0.220695
-0.00242031
0.221441
-0.00200757
0.222118
-0.00159497
0.222727
-0.00118395
0.223267
-0.000775286
0.223737
-0.000369723
0.224144
2.50248e-05
0.224478
0.00042537
0.224744
0.000816056
0.224941
0.00119944
0.22507
0.00157544
0.00194365
0.202817
-0.00689802
-0.201463
0.204114
-0.00648311
0.205354
-0.00605463
0.206534
-0.00561358
0.207652
-0.00516146
0.208707
-0.00470027
0.209698
-0.00423213
0.210626
-0.00375906
0.211488
-0.00328289
0.212286
-0.00280524
0.213019
-0.00232758
0.213686
-0.00185129
0.214288
-0.00137743
0.214825
-0.000906962
0.215292
-0.000441262
0.215703
1.35833e-05
0.216044
0.000475941
0.216319
0.00092356
0.21653
0.00136464
0.00179783
0.194171
-0.00825082
-0.192818
0.195471
-0.0077828
0.196715
-0.00729851
0.1979
-0.00679928
0.199026
-0.00628726
0.200091
-0.00576505
0.201094
-0.00523519
0.202035
-0.00470002
0.202914
-0.00416159
0.20373
-0.00362167
0.204484
-0.0030818
0.205176
-0.00254333
0.205806
-0.00200742
0.206374
-0.00147501
0.206881
-0.000947496
0.20732
-0.00042619
0.207706
9.04073e-05
0.208027
0.000602837
0.208286
0.00110513
0.00159958
0.186413
-0.00958627
-0.185077
0.187697
-0.0090671
0.188927
-0.00852849
0.1901
-0.00797212
0.191214
-0.00740115
0.192268
-0.00681901
0.193261
-0.00622876
0.194194
-0.00563308
0.195067
-0.00503426
0.195879
-0.00443421
0.196632
-0.00383449
0.197325
-0.00323641
0.197959
-0.00264113
0.198533
-0.00204961
0.199049
-0.00146284
0.199504
-0.000881753
0.199902
-0.000307071
0.200243
0.000261625
0.200525
0.000823354
0.00137561
0.179469
-0.0108957
-0.17816
0.180729
-0.0103271
0.181936
-0.00973495
0.183085
-0.00912166
0.184176
-0.00849196
0.185207
-0.00785031
0.186179
-0.00720038
0.187091
-0.00654523
0.187944
-0.0058874
0.188739
-0.00522885
0.189475
-0.00457113
0.190155
-0.0039155
0.190776
-0.00326304
0.191341
-0.00261467
0.19185
-0.00197123
0.192302
-0.00133361
0.192697
-0.000702322
0.193039
-8.02966e-05
0.193324
0.000537804
0.00114517
0.173237
-0.0121761
-0.171957
0.17447
-0.0115599
0.175649
-0.0109143
0.176771
-0.0102435
0.177833
-0.00955455
0.178836
-0.00885323
0.17978
-0.00814382
0.180664
-0.0074298
0.181491
-0.00671389
0.18226
-0.00599805
0.182973
-0.00528375
0.183629
-0.00457215
0.18423
-0.00386421
0.184777
-0.0031608
0.185268
-0.00246268
0.185705
-0.0017707
0.186088
-0.00108559
0.186417
-0.000408937
0.186695
0.000259439
0.000921328
0.167607
-0.0134283
-0.166355
0.168814
-0.0127667
0.169966
-0.012067
0.17106
-0.0113372
0.172094
-0.010588
0.173067
-0.00982625
0.17398
-0.00905707
0.174834
-0.00828435
0.175631
-0.00751091
0.176372
-0.0067386
0.177057
-0.00596874
0.177687
-0.00520233
0.178263
-0.0044402
0.178785
-0.00368311
0.179255
-0.00293177
0.179671
-0.00218701
0.180035
-0.00144929
0.180345
-0.000719355
0.180608
-3.97204e-06
0.000712442
0.162479
-0.0146561
-0.161251
0.163665
-0.0139525
0.164795
-0.0131967
0.165863
-0.0124053
0.166869
-0.0115939
0.167813
-0.0107704
0.168696
-0.00994054
0.169521
-0.00910885
0.170288
-0.00827802
0.170999
-0.0074497
0.171655
-0.00662496
0.172257
-0.00580457
0.172806
-0.00498918
0.173303
-0.00417943
0.173747
-0.00337596
0.174139
-0.00257953
0.174481
-0.00179077
0.174773
-0.00101101
0.175011
-0.000242048
0.000520137
0.157772
-0.0158661
-0.156562
0.158944
-0.0151248
0.160056
-0.0143089
0.161103
-0.0134521
0.162084
-0.0125754
0.163001
-0.0116874
0.163856
-0.0107953
0.164651
-0.00990382
0.165389
-0.00901539
0.16607
-0.00813126
0.166697
-0.00725212
0.167271
-0.00637843
0.167793
-0.00551057
0.168262
-0.00464902
0.16868
-0.00379434
0.169048
-0.00294722
0.169366
-0.00210842
0.169634
-0.00127888
0.169851
-0.000459737
0.000349261
0.153421
-0.017071
-0.152216
0.15459
-0.0162939
0.155692
-0.0154105
0.156722
-0.0144824
0.157681
-0.0135347
0.158572
-0.012578
0.159398
-0.0116212
0.160162
-0.0106687
0.160869
-0.00972237
0.161521
-0.00878271
0.162119
-0.00784982
0.162664
-0.00692363
0.163157
-0.00600419
0.1636
-0.00509176
0.163993
-0.0041868
0.164335
-0.00328991
0.164629
-0.00240184
0.164873
-0.00152342
0.165069
-0.000655858
0.000199876
0.149382
-0.0182996
-0.148153
0.150563
-0.017475
0.15166
-0.0165078
0.152676
-0.0154985
0.153612
-0.0144705
0.154473
-0.013439
0.155267
-0.0124149
0.155999
-0.0114008
0.156673
-0.0103969
0.157293
-0.00940268
0.157861
-0.00841726
0.158377
-0.00743985
0.158843
-0.00647007
0.159259
-0.00550792
0.159626
-0.00455374
0.159944
-0.00360807
0.160214
-0.00267168
0.160436
-0.00174543
0.160611
-0.000830313
7.13094e-05
0.145625
-0.0196166
-0.144308
0.14684
-0.0186899
0.147933
-0.0176014
0.14893
-0.0164952
0.149834
-0.0153745
0.150657
-0.0142623
0.151412
-0.0131699
0.152107
-0.0120956
0.152746
-0.0110363
0.153333
-0.00998982
0.15387
-0.00895404
0.154358
-0.00792732
0.154796
-0.00690882
0.155187
-0.00589836
0.155529
-0.00489619
0.155824
-0.00390286
0.156072
-0.00291916
0.156272
-0.00194613
0.156427
-0.000984781
-3.70441e-05
0.142165
-0.0210916
-0.14069
0.143411
-0.0199357
0.144483
-0.018673
0.145437
-0.0174499
0.146293
-0.0162301
0.147068
-0.015037
0.147777
-0.0138797
0.148431
-0.0127496
0.149034
-0.0116393
0.149589
-0.0105442
0.150096
-0.00946099
0.150556
-0.00838726
0.150969
-0.00732188
0.151335
-0.00626462
0.151655
-0.00521578
0.151928
-0.00417598
0.152155
-0.00314607
0.152336
-0.00212725
0.152472
-0.00112099
-0.00012886
0.139072
-0.137657
-0.0225063
0.140231
-0.0210948
0.141263
-0.0197046
0.142138
-0.0183253
0.142926
-0.0170181
0.143649
-0.0157596
0.144313
-0.0145439
0.144927
-0.0133636
0.145495
-0.0122076
0.146019
-0.011068
0.146498
-0.00994008
0.146932
-0.00882136
0.147321
-0.00771072
0.147665
-0.00660805
0.147963
-0.00551383
0.148216
-0.00442886
0.148424
-0.0033541
0.148587
-0.00229058
0.148706
-0.00123988
-0.000209428
0.0307231
0.111917
-0.110438
-0.0322021
0.0292169
0.114928
-0.113422
0.027681
0.118072
-0.116536
0.0261117
0.121373
-0.119804
0.0245057
0.124863
-0.123257
0.0228603
0.128584
-0.126938
0.0211732
0.132593
-0.130906
0.0194432
0.136971
-0.135241
0.0176695
0.14182
-0.140046
0.0158524
0.147271
-0.145454
0.0139938
0.153485
-0.151627
0.0120977
0.160649
-0.158753
0.0101731
0.168961
-0.167037
0.00823655
0.178611
-0.176674
0.00631792
0.18972
-0.187801
0.0044672
0.202253
-0.200402
0.00276392
0.215873
-0.21417
0.00132825
0.22973
-0.228294
0.000329043
0.242046
-0.241047
0.249699
-0.24937
0.030537
0.113388
-0.0320087
0.0290383
0.116427
0.0275099
0.119601
0.0259485
0.122935
0.0243506
0.126461
0.0227133
0.130221
0.0210344
0.134272
0.0193124
0.138693
0.0175464
0.143586
0.0157368
0.149081
0.0138855
0.155337
0.0119969
0.162537
0.0100805
0.170878
0.00815381
0.180538
0.0062477
0.191626
0.0044137
0.204087
0.00273283
0.217554
0.00132472
0.231138
0.000352857
0.243018
0.250052
0.0303091
0.11485
-0.0317713
0.02882
0.117916
0.0273015
0.121119
0.02575
0.124486
0.0241623
0.128049
0.0225354
0.131848
0.0208668
0.135941
0.0191551
0.140404
0.0173992
0.145341
0.0155994
0.150881
0.0137578
0.157178
0.0118792
0.164416
0.00997354
0.172783
0.00805901
0.182452
0.00616756
0.193517
0.00435171
0.205902
0.00269302
0.219213
0.00130945
0.232522
0.000355985
0.243971
0.250408
0.030041
0.116301
-0.0314915
0.0285636
0.119393
0.027057
0.122626
0.0255177
0.126025
0.0239422
0.129624
0.0223276
0.133462
0.0206715
0.137597
0.0189721
0.142104
0.0172284
0.147085
0.0154407
0.152668
0.0136111
0.159008
0.0117448
0.166282
0.00985205
0.174676
0.00795187
0.184352
0.00607697
0.195392
0.0042806
0.207699
0.00264447
0.220849
0.00128488
0.233881
0.000350977
0.244905
0.250759
0.0297348
0.117738
-0.0311718
0.0282712
0.120857
0.0267784
0.124118
0.025253
0.127551
0.0236916
0.131186
0.0220911
0.135063
0.0204493
0.139238
0.0187641
0.143789
0.0170346
0.148815
0.0152611
0.154442
0.0134456
0.160823
0.0115937
0.168134
0.00971606
0.176554
0.00783234
0.186236
0.005976
0.197249
0.00420096
0.209474
0.00258893
0.222461
0.0012546
0.235215
0.000342117
0.245818
0.251101
0.0293933
0.11916
-0.0308151
0.0279448
0.122305
0.0264674
0.125596
0.0249575
0.129061
0.0234117
0.132731
0.0218271
0.136647
0.0202012
0.140864
0.018532
0.145458
0.0168185
0.150528
0.015061
0.156199
0.0132617
0.162623
0.0114262
0.16997
0.00956579
0.178414
0.00770068
0.188101
0.00586504
0.199084
0.0041134
0.211225
0.00252741
0.224047
0.00121998
0.236523
0.00033057
0.246707
0.251432
0.029019
0.120565
-0.0304247
0.0275869
0.123737
0.0261261
0.127057
0.024633
0.130554
0.0231042
0.13426
0.0215367
0.138215
0.0199282
0.142473
0.0182766
0.14711
0.0165808
0.152224
0.014841
0.157939
0.0130597
0.164404
0.0112427
0.171787
0.00940154
0.180255
0.00755716
0.189946
0.00574439
0.200897
0.00401829
0.212952
0.00246032
0.225605
0.00118156
0.237802
0.000317045
0.247572
0.251749
0.028615
0.121954
-0.0300038
0.0271999
0.125152
0.0257565
0.1285
0.024281
0.132029
0.0227702
0.135771
0.0212211
0.139764
0.0196312
0.144063
0.0179985
0.148743
0.0163219
0.153901
0.0146016
0.159659
0.01284
0.166166
0.0110434
0.173583
0.00922359
0.182075
0.00740207
0.191767
0.00561433
0.202685
0.00391592
0.21465
0.00238803
0.227133
0.00113987
0.23905
0.000302144
0.248409
0.252051
0.028184
0.123326
-0.029556
0.0267862
0.12655
0.0253605
0.129926
0.0239032
0.133487
0.022411
0.137263
0.0208811
0.141294
0.0193109
0.145633
0.0176983
0.150355
0.0160423
0.155557
0.014343
0.161359
0.012603
0.167906
0.0108286
0.175358
0.00903218
0.183872
0.00723563
0.193564
0.00547512
0.204445
0.0038066
0.216318
0.00231092
0.228629
0.00109539
0.240265
0.000286282
0.249219
0.252337
0.0277288
0.124682
-0.0290847
0.0263478
0.127931
0.0249396
0.131334
0.0235007
0.134926
0.0220276
0.138736
0.0205175
0.142804
0.0189678
0.147183
0.0173765
0.151946
0.0157424
0.157191
0.0140657
0.163035
0.0123489
0.169622
0.0105986
0.177108
0.00882752
0.185643
0.00705808
0.195333
0.00532701
0.206176
0.00369061
0.217955
0.00222933
0.23009
0.00104848
0.241446
0.000269705
0.249997
0.252607
0.0272519
0.126023
-0.0285932
0.0258865
0.129297
0.0244952
0.132725
0.0230742
0.136347
0.0216203
0.14019
0.0201305
0.144294
0.0186022
0.148711
0.0170332
0.153515
0.0154223
0.158802
0.0137696
0.164688
0.0120778
0.171314
0.0103534
0.178832
0.00860975
0.187386
0.00686959
0.197073
0.00517022
0.207876
0.00356822
0.219557
0.00214355
0.231515
0.000999418
0.24259
0.000252573
0.250744
0.252859
0.0267547
0.127353
-0.028084
0.025403
0.130648
0.0240274
0.134101
0.0226239
0.13775
0.0211891
0.141625
0.01972
0.145763
0.0182138
0.150217
0.0166682
0.155061
0.0150818
0.160388
0.0134547
0.166315
0.0117896
0.172979
0.0100932
0.180529
0.00837897
0.189101
0.00667032
0.198782