/*--------------------------------*- C++ -*----------------------------------*\
  =========                 |
  \\      /  F ield         | OpenFOAM: The Open Source CFD Toolbox
   \\    /   O peration     | Website:  https://openfoam.org
    \\  /    A nd           | Version:  6.0
     \\/     M anipulation  |
\*---------------------------------------------------------------------------*/
FoamFile
{
    version     2.0;
    format      ascii;
    class       volScalarField;
    location    "6.5";
    object      p;
}
// * * * * * * * * * * * * * * * * * * * * * * * * * * * * * * * * * * * * * //

dimensions      [0 2 -2 0 0 0 0];

internalField   nonuniform List<scalar> 
19200
(
-137.661
-122.971
-111.994
-102.747
-94.2132
-86.4286
-79.3574
-72.92
-67.0537
-61.706
-56.8294
-52.3801
-48.3185
-44.6085
-41.2172
-38.1149
-35.2747
-32.6722
-30.2855
-28.0949
-26.0824
-24.232
-22.5293
-20.9611
-19.5158
-18.183
-16.9531
-15.8171
-14.7661
-13.8028
-137.948
-123.288
-112.314
-103.056
-94.5081
-86.7087
-79.623
-73.172
-67.2932
-61.9343
-57.0475
-52.5892
-48.5195
-44.8023
-41.4044
-38.2962
-35.4505
-32.8431
-30.4518
-28.2569
-26.2404
-24.3864
-22.6802
-21.1087
-19.6602
-18.3243
-17.0915
-15.9523
-14.8981
-13.9333
-138.254
-123.602
-112.629
-103.362
-94.8001
-86.9863
-79.8866
-73.4222
-67.5311
-62.1612
-57.2645
-52.7973
-48.7197
-44.9953
-41.5911
-38.477
-35.626
-33.0136
-30.6178
-28.4187
-26.3984
-24.5407
-22.831
-21.2562
-19.8046
-18.4656
-17.2299
-16.0877
-15.0301
-14.064
-138.573
-123.92
-112.943
-103.665
-95.09
-87.2618
-80.1481
-73.6706
-67.7675
-62.3866
-57.4802
-53.0043
-48.919
-45.1876
-41.777
-38.6572
-35.8009
-33.1837
-30.7835
-28.5803
-26.5561
-24.6948
-22.9817
-21.4036
-19.9489
-18.6069
-17.3683
-16.2229
-15.1621
-14.1947
-138.899
-124.242
-113.256
-103.967
-95.3781
-87.5355
-80.4077
-73.9172
-68.0022
-62.6106
-57.6946
-53.2102
-49.1172
-45.3789
-41.9621
-38.8367
-35.9753
-33.3534
-30.9488
-28.7415
-26.7135
-24.8486
-23.1322
-21.5509
-20.0931
-18.7482
-17.5066
-16.3582
-15.2941
-14.3257
-139.229
-124.565
-113.57
-104.268
-95.6645
-87.8073
-80.6656
-74.1621
-68.2353
-62.8331
-57.9077
-53.4148
-49.3143
-45.5693
-42.1464
-39.0154
-36.149
-33.5224
-31.1135
-28.9022
-26.8706
-25.0022
-23.2824
-21.6981
-20.2372
-18.8894
-17.6449
-16.4935
-15.4261
-14.4568
-139.56
-124.889
-113.883
-104.567
-95.9493
-88.0774
-80.9216
-74.4051
-68.4666
-63.054
-58.1192
-53.6181
-49.5102
-45.7585
-42.3297
-39.1933
-36.3219
-33.6908
-31.2777
-29.0625
-27.0272
-25.1554
-23.4324
-21.845
-20.3812
-19.0305
-17.7832
-16.6287
-15.5582
-14.5881
-139.893
-125.213
-114.195
-104.865
-96.2324
-88.3456
-81.1757
-74.6463
-68.6961
-63.2731
-58.3291
-53.8199
-49.7047
-45.9465
-42.5118
-39.3701
-36.4939
-33.8583
-31.4411
-29.2222
-27.1833
-25.3082
-23.5821
-21.9916
-20.5249
-19.1714
-17.9214
-16.764
-15.6903
-14.7196
-140.225
-125.537
-114.507
-105.162
-96.5137
-88.6118
-81.4277
-74.8854
-68.9236
-63.4904
-58.5373
-54.02
-49.8977
-46.1332
-42.6928
-39.5459
-36.6649
-34.025
-31.6038
-29.3811
-27.3388
-25.4605
-23.7313
-22.138
-20.6685
-19.3122
-18.0595
-16.8992
-15.8225
-14.8513
-140.556
-125.86
-114.817
-105.457
-96.793
-88.8758
-81.6775
-75.1223
-69.1491
-63.7056
-58.7436
-54.2184
-50.089
-46.3183
-42.8723
-39.7203
-36.8348
-34.1907
-31.7656
-29.5393
-27.4937
-25.6122
-23.8801
-22.2839
-20.8117
-19.4529
-18.1976
-17.0343
-15.9547
-14.9833
-140.886
-126.182
-115.125
-105.75
-97.0701
-89.1375
-81.9249
-75.3568
-69.3722
-63.9187
-58.9478
-54.4148
-50.2786
-46.5018
-43.0503
-39.8934
-37.0034
-34.3552
-31.9264
-29.6966
-27.6477
-25.7632
-24.0283
-22.4294
-20.9547
-19.5933
-18.3355
-17.1695
-16.0871
-15.1155
-141.214
-126.501
-115.431
-106.041
-97.3446
-89.3965
-82.1697
-75.5888
-69.5928
-64.1293
-59.1498
-54.6091
-50.4661
-46.6833
-43.2265
-40.0649
-37.1705
-34.5184
-32.0859
-29.8528
-27.8008
-25.9134
-24.1758
-22.5744
-21.0972
-19.7335
-18.4733
-17.3046
-16.2195
-15.248
-141.541
-126.818
-115.735
-106.329
-97.6163
-89.6528
-82.4117
-75.818
-69.8107
-64.3374
-59.3492
-54.801
-50.6515
-46.8628
-43.4008
-40.2345
-37.336
-34.68
-32.2441
-30.0078
-27.9529
-26.0628
-24.3226
-22.7188
-21.2393
-19.8734
-18.6109
-17.4397
-16.352
-15.3809
-141.864
-127.133
-116.036
-106.614
-97.8851
-89.906
-82.6507
-76.0442
-70.0257
-64.5426
-59.546
-54.9904
-50.8343
-47.04
-43.573
-40.4022
-37.4996
-34.8399
-32.4007
-30.1614
-28.1036
-26.211
-24.4684
-22.8624
-21.3808
-20.0128
-18.7483
-17.5747
-16.4846
-15.514
-142.185
-127.445
-116.333
-106.895
-98.1506
-90.1559
-82.8863
-76.2672
-70.2376
-64.7448
-59.7397
-55.1769
-51.0145
-47.2146
-43.7427
-40.5675
-37.661
-34.9979
-32.5554
-30.3133
-28.2529
-26.3579
-24.6131
-23.0051
-21.5215
-20.1518
-18.8854
-17.7096
-16.6173
-15.6475
-142.503
-127.753
-116.628
-107.174
-98.4126
-90.4022
-83.1184
-76.4867
-70.446
-64.9436
-59.9303
-55.3603
-51.1917
-47.3864
-43.9097
-40.7303
-37.82
-35.1536
-32.7081
-30.4632
-28.4005
-26.5032
-24.7565
-23.1466
-21.6614
-20.2901
-19.0221
-17.8443
-16.7501
-15.7815
-142.818
-128.059
-116.919
-107.449
-98.6708
-90.6448
-83.3467
-76.7024
-70.6507
-65.1389
-60.1174
-55.5403
-51.3656
-47.555
-44.0736
-40.8902
-37.9763
-35.3066
-32.8583
-30.6109
-28.5459
-26.6467
-24.8982
-23.2868
-21.8002
-20.4275
-19.1582
-17.9787
-16.8829
-15.9158
-143.13
-128.361
-117.207
-107.72
-98.9251
-90.8834
-83.571
-76.9141
-70.8515
-65.3302
-60.3007
-55.7166
-51.536
-47.7201
-44.2342
-41.0468
-38.1294
-35.4567
-33.0058
-30.756
-28.689
-26.788
-25.038
-23.4252
-21.9375
-20.5638
-19.2934
-18.1127
-17.0155
-16.0503
-143.438
-128.66
-117.491
-107.987
-99.1753
-91.1177
-83.791
-77.1215
-71.0481
-65.5174
-60.4798
-55.8889
-51.7023
-47.8814
-44.3911
-41.1998
-38.2791
-35.6034
-33.1499
-30.898
-28.8291
-26.9266
-25.1753
-23.5615
-22.0729
-20.6986
-19.4276
-18.2459
-17.1478
-16.185
-143.744
-128.955
-117.771
-108.25
-99.4211
-91.3475
-84.0065
-77.3244
-71.2401
-65.7002
-60.6546
-56.0569
-51.8645
-48.0385
-44.5438
-41.3487
-38.4247
-35.7462
-33.2903
-31.0364
-28.9658
-27.0619
-25.3096
-23.6951
-22.2061
-20.8314
-19.5603
-18.378
-17.2796
-16.3197
-144.047
-129.246
-118.047
-108.509
-99.6624
-91.5726
-84.2172
-77.5225
-71.4274
-65.8782
-60.8247
-56.2202
-52.0219
-48.1909
-44.6919
-41.4931
-38.5659
-35.8846
-33.4264
-31.1705
-29.0984
-27.1934
-25.4403
-23.8254
-22.3362
-20.9617
-19.6908
-18.5086
-17.4104
-16.454
-144.348
-129.535
-118.32
-108.763
-99.8989
-91.7927
-84.4228
-77.7155
-71.6095
-66.0511
-60.9897
-56.3785
-52.1744
-48.3384
-44.8351
-41.6325
-38.702
-36.0181
-33.5575
-31.2998
-29.2263
-27.3202
-25.5666
-23.9515
-22.4625
-21.0886
-19.8185
-18.6369
-17.5396
-16.5873
-144.648
-129.82
-118.588
-109.013
-100.13
-92.0077
-84.6232
-77.9032
-71.7864
-66.2187
-61.1495
-56.5315
-52.3217
-48.4806
-44.9729
-41.7665
-38.8327
-36.1459
-33.683
-31.4234
-29.3484
-27.4415
-25.6873
-24.0723
-22.5839
-21.2111
-19.9424
-18.7622
-17.6666
-16.7192
-144.947
-130.102
-118.852
-109.257
-100.357
-92.2171
-84.8179
-78.0853
-71.9577
-66.3808
-61.3037
-56.679
-52.4633
-48.6172
-45.1049
-41.8946
-38.9574
-36.2676
-33.8022
-31.5405
-29.464
-27.556
-25.8014
-24.1866
-22.699
-21.3277
-20.0611
-18.8832
-17.7904
-16.85
-145.246
-130.381
-119.111
-109.497
-100.577
-92.4209
-85.007
-78.2617
-72.1233
-66.5373
-61.4523
-56.8208
-52.5992
-48.7478
-45.231
-42.0166
-39.0757
-36.3827
-33.9144
-31.6504
-29.572
-27.6627
-25.9074
-24.2925
-22.8058
-21.4361
-20.172
-18.9973
-17.909
-16.9777
-145.545
-130.655
-119.366
-109.732
-100.793
-92.6186
-85.1898
-78.4319
-72.2828
-66.6877
-61.595
-56.9568
-52.7292
-48.8725
-45.3509
-42.1321
-39.1873
-36.4906
-34.0191
-31.7522
-29.6715
-27.7603
-26.0038
-24.3885
-22.9022
-21.5339
-20.2723
-19.1011
-18.0183
-17.0952
-145.853
-130.93
-119.615
-109.96
-101.001
-92.809
-85.3653
-78.5951
-72.4356
-66.8317
-61.7314
-57.0865
-52.853
-48.991
-45.4644
-42.241
-39.2918
-36.5911
-34.1158
-31.8454
-29.7616
-27.8478
-26.0894
-24.473
-22.9866
-21.6197
-20.3609
-19.1938
-18.116
-17.1989
-146.189
-131.211
-119.86
-110.18
-101.2
-92.9908
-85.5328
-78.7507
-72.5813
-66.9689
-61.8612
-57.2099
-52.9705
-49.1031
-45.5714
-42.3431
-39.3893
-36.684
-34.2042
-31.9294
-29.8413
-27.9236
-26.1618
-24.5429
-23.0556
-21.69
-20.4352
-19.274
-18.2053
-17.309
-146.553
-131.497
-120.096
-110.389
-101.39
-93.165
-85.6936
-78.9002
-72.7212
-67.1006
-61.9857
-57.3279
-53.0827
-49.2098
-45.6729
-42.4394
-39.4805
-36.7699
-34.2848
-32.0044
-29.9105
-27.9868
-26.2187
-24.5936
-23.101
-21.7317
-20.4753
-19.3175
-18.2707
-17.4365
-146.866
-131.756
-120.318
-110.589
-101.575
-93.336
-85.8519
-79.0475
-72.859
-67.2301
-62.1079
-57.4435
-53.1922
-49.3135
-45.771
-42.5321
-39.5675
-36.8513
-34.3601
-32.0732
-29.972
-28.04
-26.2623
-24.6258
-23.1192
-21.7323
-20.4528
-19.2733
-18.2312
-17.4249
-150.183
-150.159
-150.094
-150.039
-149.993
-149.945
-149.89
-149.828
-149.759
-149.683
-149.599
-149.507
-149.408
-149.302
-149.187
-149.066
-148.938
-148.803
-148.662
-148.516
-148.364
-148.206
-148.045
-147.881
-147.714
-147.547
-147.382
-147.225
-147.084
-146.971
-134.907
-134.915
-134.899
-134.878
-134.854
-134.822
-134.782
-134.732
-134.674
-134.607
-134.533
-134.45
-134.36
-134.262
-134.156
-134.044
-133.924
-133.798
-133.666
-133.527
-133.384
-133.235
-133.081
-132.924
-132.764
-132.602
-132.44
-132.279
-132.119
-131.951
-123.181
-123.21
-123.224
-123.225
-123.216
-123.197
-123.169
-123.131
-123.085
-123.03
-122.966
-122.895
-122.816
-122.729
-122.635
-122.533
-122.425
-122.31
-122.189
-122.062
-121.93
-121.792
-121.649
-121.502
-121.351
-121.197
-121.038
-120.876
-120.706
-120.522
-113.145
-113.183
-113.21
-113.223
-113.225
-113.217
-113.199
-113.171
-113.135
-113.091
-113.038
-112.978
-112.909
-112.833
-112.75
-112.66
-112.563
-112.46
-112.35
-112.235
-112.114
-111.988
-111.856
-111.72
-111.579
-111.433
-111.281
-111.123
-110.957
-110.781
-103.857
-103.899
-103.932
-103.953
-103.963
-103.962
-103.952
-103.933
-103.905
-103.869
-103.826
-103.774
-103.714
-103.648
-103.574
-103.493
-103.407
-103.313
-103.214
-103.109
-102.999
-102.883
-102.762
-102.635
-102.504
-102.367
-102.225
-102.076
-101.919
-101.754
-95.398
-95.4413
-95.4769
-95.5023
-95.5167
-95.5209
-95.5161
-95.5025
-95.4803
-95.4504
-95.4128
-95.3675
-95.3149
-95.2552
-95.1889
-95.1161
-95.0371
-94.952
-94.8612
-94.7649
-94.6632
-94.5563
-94.4442
-94.3271
-94.2048
-94.0771
-93.9437
-93.8041
-93.6574
-93.5026
-87.7453
-87.7882
-87.8243
-87.8511
-87.8676
-87.8743
-87.8724
-87.862
-87.8433
-87.8173
-87.7838
-87.7429
-87.695
-87.6404
-87.5795
-87.5124
-87.4393
-87.3605
-87.2763
-87.1868
-87.0921
-86.9925
-86.888
-86.7787
-86.6643
-86.5448
-86.4198
-86.2889
-86.1515
-86.0069
-80.8169
-80.8583
-80.8933
-80.9196
-80.9363
-80.9438
-80.943
-80.9339
-80.9172
-80.8933
-80.8622
-80.824
-80.7792
-80.728
-80.6707
-80.6076
-80.5388
-80.4647
-80.3853
-80.301
-80.2119
-80.1182
-80.0198
-79.9168
-79.8092
-79.6967
-79.5792
-79.4563
-79.3273
-79.192
-74.5398
-74.5788
-74.6117
-74.6364
-74.652
-74.6591
-74.6581
-74.6493
-74.6332
-74.6102
-74.5803
-74.5436
-74.5005
-74.4514
-74.3965
-74.336
-74.2702
-74.1993
-74.1236
-74.0432
-73.9583
-73.8691
-73.7757
-73.678
-73.576
-73.4696
-73.3586
-73.2427
-73.1213
-72.9942
-68.8484
-68.8846
-68.9149
-68.9373
-68.9513
-68.9571
-68.9552
-68.9457
-68.9295
-68.9065
-68.8768
-68.8407
-68.7985
-68.7505
-68.697
-68.6382
-68.5744
-68.5058
-68.4326
-68.3551
-68.2735
-68.1878
-68.0983
-68.005
-67.9078
-67.8066
-67.7013
-67.5916
-67.4769
-67.3572
-63.6822
-63.7154
-63.7428
-63.7627
-63.7745
-63.7787
-63.7753
-63.7648
-63.7479
-63.7244
-63.6944
-63.6582
-63.6163
-63.5688
-63.516
-63.4582
-63.3956
-63.3285
-63.2571
-63.1818
-63.1026
-63.0198
-62.9335
-62.8438
-62.7507
-62.654
-62.5537
-62.4495
-62.3409
-62.2278
-58.986
-59.0163
-59.0408
-59.0581
-59.0677
-59.0699
-59.0649
-59.0532
-59.0352
-59.0108
-58.9801
-58.9436
-58.9014
-58.854
-58.8015
-58.7441
-58.6823
-58.6162
-58.5461
-58.4723
-58.395
-58.3145
-58.2309
-58.1442
-58.0546
-57.962
-57.8662
-57.767
-57.664
-57.5568
-54.7109
-54.7382
-54.76
-54.7747
-54.7821
-54.7824
-54.7757
-54.7625
-54.7433
-54.7178
-54.6863
-54.6492
-54.6066
-54.559
-54.5064
-54.4492
-54.3878
-54.3223
-54.2531
-54.1805
-54.1047
-54.026
-53.9446
-53.8606
-53.7741
-53.6851
-53.5934
-53.4989
-53.401
-53.2994
-50.8132
-50.8378
-50.8569
-50.8693
-50.8745
-50.8728
-50.8645
-50.8499
-50.8294
-50.8028
-50.7704
-50.7325
-50.6894
-50.6413
-50.5886
-50.5314
-50.47
-50.4049
-50.3363
-50.2646
-50.1899
-50.1127
-50.0332
-49.9515
-49.8679
-49.7822
-49.6944
-49.6042
-49.5112
-49.4149
-47.2544
-47.2766
-47.2932
-47.3033
-47.3065
-47.303
-47.2931
-47.2771
-47.2553
-47.2277
-47.1943
-47.1557
-47.1119
-47.0634
-47.0102
-46.9529
-46.8915
-46.8266
-46.7584
-46.6872
-46.6135
-46.5375
-46.4596
-46.38
-46.2988
-46.2163
-46.1321
-46.0462
-45.9579
-45.8668
-44.0006
-44.0205
-44.0349
-44.0429
-44.0442
-44.039
-44.0276
-44.0103
-43.9873
-43.9586
-43.9244
-43.8849
-43.8405
-43.7914
-43.7379
-43.6803
-43.6188
-43.5539
-43.4859
-43.4151
-43.3421
-43.2671
-43.1905
-43.1127
-43.0339
-42.9542
-42.8736
-42.7918
-42.7082
-42.6223
-41.0217
-41.0396
-41.0519
-41.058
-41.0576
-41.0509
-41.0381
-41.0196
-40.9955
-40.9657
-40.9306
-40.8904
-40.8454
-40.7958
-40.7418
-40.6838
-40.6221
-40.5571
-40.4891
-40.4186
-40.3461
-40.2718
-40.1964
-40.1202
-40.0435
-39.9665
-39.8892
-39.8115
-39.7327
-39.652
-38.2913
-38.3072
-38.3177
-38.3221
-38.3201
-38.3119
-38.2979
-38.2784
-38.2532
-38.2225
-38.1866
-38.1457
-38.1
-38.0498
-37.9954
-37.937
-37.875
-37.8098
-37.7418
-37.6714
-37.5991
-37.5254
-37.4508
-37.3759
-37.3011
-37.2266
-37.1527
-37.079
-37.005
-36.9299
-35.7857
-35.7999
-35.8087
-35.8115
-35.8082
-35.7987
-35.7836
-35.763
-35.7369
-35.7053
-35.6687
-35.6271
-35.5808
-35.5301
-35.4752
-35.4164
-35.3541
-35.2886
-35.2203
-35.1499
-35.0776
-35.0043
-34.9303
-34.8565
-34.7833
-34.7111
-34.6403
-34.5708
-34.5018
-34.4324
-33.4841
-33.4968
-33.5041
-33.5054
-33.5008
-33.4902
-33.4741
-33.4525
-33.4255
-33.3932
-33.3559
-33.3137
-33.2669
-33.2156
-33.1602
-33.101
-33.0383
-32.9724
-32.9039
-32.8332
-32.7608
-32.6875
-32.614
-32.5408
-32.4689
-32.3988
-32.3311
-32.2656
-32.2019
-32.1387
-31.3679
-31.3791
-31.3851
-31.3852
-31.3794
-31.3678
-31.3507
-31.3283
-31.3006
-31.2676
-31.2296
-31.1868
-31.1395
-31.0877
-31.0319
-30.9722
-30.909
-30.8427
-30.7738
-30.7027
-30.63
-30.5565
-30.483
-30.4102
-30.3393
-30.2709
-30.2059
-30.1445
-30.0864
-30.0299
-29.4204
-29.4304
-29.4351
-29.4341
-29.4272
-29.4147
-29.3968
-29.3737
-29.3452
-29.3116
-29.2731
-29.2298
-29.1819
-29.1297
-29.0734
-29.0133
-28.9496
-28.8828
-28.8133
-28.7417
-28.6685
-28.5946
-28.5207
-28.4479
-28.3774
-28.3103
-28.2478
-28.1904
-28.1381
-28.0891
-27.6268
-27.6356
-27.6392
-27.6372
-27.6294
-27.6161
-27.5974
-27.5736
-27.5445
-27.5104
-27.4713
-27.4276
-27.3793
-27.3266
-27.2699
-27.2092
-27.1451
-27.0777
-27.0076
-26.9353
-26.8614
-26.7867
-26.7121
-26.6388
-26.5682
-26.5018
-26.4413
-26.3877
-26.3417
-26.301
-25.9738
-25.9815
-25.9841
-25.9811
-25.9725
-25.9584
-25.9392
-25.9147
-25.8851
-25.8505
-25.811
-25.7668
-25.7181
-25.665
-25.6078
-25.5467
-25.482
-25.4141
-25.3433
-25.2701
-25.1953
-25.1195
-25.0438
-24.9695
-24.8981
-24.8316
-24.7724
-24.7221
-24.6828
-24.6515
-24.4492
-24.456
-24.4577
-24.4538
-24.4445
-24.4298
-24.4099
-24.385
-24.3548
-24.3197
-24.2798
-24.2353
-24.1862
-24.1327
-24.0751
-24.0135
-23.9483
-23.8797
-23.8082
-23.7341
-23.6581
-23.581
-23.5037
-23.4277
-23.3548
-23.2873
-23.2284
-23.1805
-23.1481
-23.1277
-23.0423
-23.0482
-23.049
-23.0445
-23.0344
-23.0191
-22.9987
-22.9732
-22.9426
-22.9071
-22.8668
-22.8219
-22.7724
-22.7186
-22.6606
-22.5985
-22.5327
-22.4634
-22.391
-22.3159
-22.2386
-22.1598
-22.0806
-22.0023
-21.9269
-21.857
-21.7969
-21.75
-21.7243
-21.7157
-21.7434
-21.7484
-21.7485
-21.7431
-21.7324
-21.7165
-21.6956
-21.6696
-21.6385
-21.6026
-21.5619
-21.5165
-21.4666
-21.4123
-21.3538
-21.2911
-21.2247
-21.1546
-21.0811
-21.0047
-20.9258
-20.845
-20.7633
-20.6819
-20.6028
-20.5289
-20.4655
-20.4175
-20.3972
-20.3998
-20.5432
-20.5477
-20.5472
-20.5414
-20.5302
-20.5139
-20.4927
-20.4663
-20.4349
-20.3986
-20.3576
-20.3119
-20.2617
-20.207
-20.148
-20.0848
-20.0176
-19.9467
-19.8722
-19.7944
-19.7138
-19.6308
-19.5462
-19.461
-19.3771
-19.2975
-19.2278
-19.1757
-19.16
-19.1746
-19.4328
-19.4373
-19.4368
-19.4311
-19.4201
-19.4041
-19.3831
-19.357
-19.3261
-19.2902
-19.2497
-19.2044
-19.1546
-19.1004
-19.0418
-18.979
-18.9121
-18.8414
-18.7669
-18.6888
-18.6076
-18.5235
-18.4371
-18.3491
-18.261
-18.1752
-18.0968
-18.0363
-18.0225
-18.0665
-18.4067
-18.4093
-18.4071
-18.4
-18.3878
-18.3708
-18.3491
-18.3225
-18.2911
-18.2551
-18.2146
-18.1696
-18.1201
-18.0664
-18.0084
-17.9463
-17.8802
-17.8102
-17.7364
-17.659
-17.5782
-17.4941
-17.4071
-17.3175
-17.2261
-17.1344
-17.0444
-16.9659
-16.9235
-17.0029
-143.872
-144.181
-144.435
-144.714
-145.018
-145.326
-145.631
-145.93
-146.224
-146.51
-146.788
-147.056
-147.315
-147.563
-147.8
-148.026
-148.24
-148.442
-148.633
-148.811
-148.978
-149.134
-149.278
-149.411
-149.535
-149.649
-149.756
-149.859
-149.963
-150.075
-128.477
-128.825
-129.144
-129.465
-129.79
-130.11
-130.423
-130.727
-131.024
-131.311
-131.59
-131.859
-132.117
-132.366
-132.603
-132.829
-133.044
-133.248
-133.44
-133.621
-133.79
-133.948
-134.095
-134.231
-134.357
-134.473
-134.581
-134.681
-134.773
-134.852
-116.728
-117.091
-117.439
-117.775
-118.104
-118.424
-118.736
-119.039
-119.334
-119.619
-119.895
-120.162
-120.419
-120.665
-120.901
-121.127
-121.341
-121.545
-121.737
-121.918
-122.089
-122.248
-122.397
-122.534
-122.662
-122.779
-122.886
-122.982
-123.066
-123.134
-106.777
-107.134
-107.482
-107.817
-108.141
-108.456
-108.762
-109.06
-109.349
-109.629
-109.9
-110.162
-110.414
-110.656
-110.888
-111.109
-111.321
-111.521
-111.712
-111.891
-112.06
-112.218
-112.366
-112.503
-112.63
-112.746
-112.851
-112.945
-113.026
-113.093
-97.6561
-97.9999
-98.3375
-98.6646
-98.9808
-99.2875
-99.5857
-99.8754
-100.156
-100.429
-100.692
-100.946
-101.19
-101.425
-101.651
-101.866
-102.072
-102.267
-102.453
-102.628
-102.793
-102.947
-103.092
-103.226
-103.35
-103.463
-103.566
-103.657
-103.737
-103.805
-89.4164
-89.7454
-90.0702
-90.3864
-90.6924
-90.9889
-91.2769
-91.5565
-91.8276
-92.0899
-92.3435
-92.5882
-92.8238
-93.0501
-93.2672
-93.4748
-93.6728
-93.8612
-94.0399
-94.2088
-94.3679
-94.5172
-94.6566
-94.786
-94.9054
-95.0147
-95.1137
-95.2022
-95.2796
-95.3456
-82.0124
-82.327
-82.6383
-82.942
-83.2362
-83.5213
-83.798
-84.0665
-84.3268
-84.5785
-84.8217
-85.0562
-85.2819
-85.4987
-85.7066
-85.9053
-86.0948
-86.2751
-86.4461
-86.6077
-86.7599
-86.9027
-87.0359
-87.1596
-87.2737
-87.378
-87.4724
-87.5568
-87.6308
-87.6943
-75.3434
-75.6442
-75.942
-76.2329
-76.5149
-76.7882
-77.0535
-77.3108
-77.5601
-77.801
-78.0336
-78.2578
-78.4735
-78.6805
-78.8788
-79.0684
-79.2491
-79.4209
-79.5837
-79.7376
-79.8824
-80.018
-80.1446
-80.2619
-80.37
-80.4688
-80.5582
-80.638
-80.708
-80.7682
-69.3231
-69.611
-69.896
-70.1745
-70.4446
-70.7066
-70.9607
-71.2071
-71.4456
-71.6761
-71.8984
-72.1125
-72.3183
-72.5157
-72.7047
-72.8852
-73.0572
-73.2205
-73.3752
-73.5212
-73.6585
-73.787
-73.9067
-74.0176
-74.1196
-74.2127
-74.2967
-74.3717
-74.4374
-74.494
-63.8781
-64.1541
-64.4272
-64.694
-64.953
-65.2041
-65.4478
-65.6838
-65.9122
-66.1326
-66.3452
-66.5497
-66.7461
-66.9343
-67.1144
-67.2862
-67.4497
-67.6049
-67.7517
-67.8901
-68.0201
-68.1417
-68.2548
-68.3593
-68.4553
-68.5428
-68.6216
-68.6917
-68.7531
-68.8058
-58.9429
-59.2082
-59.4704
-59.7265
-59.9752
-60.2163
-60.4502
-60.6766
-60.8955
-61.1066
-61.31
-61.5055
-61.6931
-61.8728
-62.0444
-62.2081
-62.3636
-62.5111
-62.6505
-62.7818
-62.9049
-63.0199
-63.1266
-63.2252
-63.3155
-63.3976
-63.4713
-63.5368
-63.5939
-63.6428
-54.4608
-54.7164
-54.9687
-55.2151
-55.4543
-55.6863
-55.9111
-56.1286
-56.3387
-56.5413
-56.7362
-56.9233
-57.1028
-57.2745
-57.4384
-57.5944
-57.7426
-57.883
-58.0155
-58.1401
-58.2568
-58.3656
-58.4665
-58.5594
-58.6444
-58.7214
-58.7905
-58.8516
-58.9046
-58.9498
-50.3822
-50.629
-50.8725
-51.1101
-51.3407
-51.5643
-51.7809
-51.9903
-52.1923
-52.3869
-52.574
-52.7535
-52.9255
-53.0898
-53.2465
-53.3955
-53.537
-53.6707
-53.7969
-53.9153
-54.0262
-54.1293
-54.2247
-54.3125
-54.3926
-54.465
-54.5297
-54.5867
-54.636
-54.6777
-46.6643
-46.9032
-47.1387
-47.3684
-47.5913
-47.8073
-48.0163
-48.2182
-48.4129
-48.6002
-48.7801
-48.9526
-49.1176
-49.2751
-49.4252
-49.5678
-49.703
-49.8307
-49.951
-50.0639
-50.1693
-50.2672
-50.3577
-50.4407
-50.5163
-50.5845
-50.6452
-50.6984
-50.7443
-50.7828
-43.2696
-43.5015
-43.7298
-43.9524
-44.1683
-44.3774
-44.5796
-44.7747
-44.9626
-45.1432
-45.3165
-45.4824
-45.641
-45.7923
-45.9363
-46.073
-46.2025
-46.3247
-46.4396
-46.5473
-46.6478
-46.741
-46.8269
-46.9057
-46.9772
-47.0414
-47.0985
-47.1484
-47.191
-47.2266
-40.1655
-40.3912
-40.6131
-40.8293
-41.039
-41.2418
-41.4377
-41.6266
-41.8082
-41.9826
-42.1498
-42.3097
-42.4624
-42.608
-42.7464
-42.8776
-43.0018
-43.1189
-43.229
-43.332
-43.4279
-43.5168
-43.5986
-43.6734
-43.7412
-43.802
-43.8557
-43.9025
-43.9423
-43.9752
-37.3236
-37.5436
-37.7599
-37.9704
-38.1744
-38.3716
-38.5617
-38.7448
-38.9207
-39.0894
-39.2508
-39.4052
-39.5524
-39.6926
-39.8259
-39.9521
-40.0715
-40.1839
-40.2894
-40.3881
-40.4799
-40.5648
-40.6429
-40.7142
-40.7785
-40.8361
-40.8868
-40.9308
-40.968
-40.9985
-34.7186
-34.9336
-35.1448
-35.3504
-35.5493
-35.7413
-35.9262
-36.1039
-36.2744
-36.4377
-36.5939
-36.743
-36.8852
-37.0204
-37.1488
-37.2705
-37.3853
-37.4934
-37.5948
-37.6895
-37.7776
-37.8589
-37.9335
-38.0015
-38.0628
-38.1175
-38.1655
-38.2069
-38.2417
-38.27
-32.3282
-32.5388
-32.7457
-32.9468
-33.1412
-33.3284
-33.5084
-33.6812
-33.8466
-34.0049
-34.1561
-34.3003
-34.4377
-34.5684
-34.6923
-34.8096
-34.9203
-35.0244
-35.122
-35.213
-35.2976
-35.3756
-35.4471
-35.5121
-35.5706
-35.6226
-35.6681
-35.7072
-35.7399
-35.7662
-30.1326
-30.3395
-30.5426
-30.7399
-30.9302
-31.1131
-31.2885
-31.4565
-31.6172
-31.7707
-31.9172
-32.0568
-32.1897
-32.316
-32.4357
-32.549
-32.6558
-32.7562
-32.8503
-32.938
-33.0193
-33.0943
-33.1629
-33.2252
-33.2811
-33.3307
-33.374
-33.411
-33.4417
-33.4662
-28.1142
-28.3178
-28.5179
-28.712
-28.8986
-29.0774
-29.2485
-29.412
-29.5681
-29.717
-29.859
-29.9942
-30.1229
-30.2451
-30.3609
-30.4704
-30.5736
-30.6706
-30.7614
-30.846
-30.9244
-30.9966
-31.0625
-31.1223
-31.1759
-31.2233
-31.2646
-31.2997
-31.3286
-31.3515
-26.257
-26.4579
-26.6558
-26.8473
-27.0306
-27.2055
-27.3724
-27.5316
-27.6832
-27.8277
-27.9654
-28.0964
-28.2211
-28.3394
-28.4515
-28.5575
-28.6573
-28.7512
-28.8389
-28.9206
-28.9963
-29.0659
-29.1295
-29.187
-29.2385
-29.2839
-29.3233
-29.3566
-29.3839
-29.4053
-24.5463
-24.7454
-24.9422
-25.1318
-25.3119
-25.4831
-25.6458
-25.8007
-25.948
-26.0882
-26.2217
-26.3487
-26.4695
-26.5842
-26.6929
-26.7956
-26.8923
-26.9832
-27.0682
-27.1472
-27.2204
-27.2877
-27.349
-27.4045
-27.454
-27.4976
-27.5353
-27.567
-27.5929
-27.613
-22.969
-23.1672
-23.3643
-23.5525
-23.7296
-23.897
-24.0557
-24.2062
-24.3492
-24.4852
-24.6147
-24.738
-24.8552
-24.9664
-25.0719
-25.1715
-25.2654
-25.3535
-25.4359
-25.5126
-25.5835
-25.6486
-25.7079
-25.7614
-25.8092
-25.8511
-25.8872
-25.9176
-25.9421
-25.961
-21.5132
-21.7119
-21.9108
-22.0981
-22.2722
-22.4357
-22.5902
-22.7364
-22.8752
-23.0072
-23.1329
-23.2525
-23.3663
-23.4744
-23.5768
-23.6736
-23.7648
-23.8505
-23.9305
-24.0049
-24.0737
-24.1368
-24.1942
-24.246
-24.2921
-24.3326
-24.3673
-24.3963
-24.4196
-24.4374
-20.1673
-20.3704
-20.5732
-20.7594
-20.9301
-21.0896
-21.2397
-21.3816
-21.5161
-21.6442
-21.7661
-21.8823
-21.9929
-22.098
-22.1976
-22.2918
-22.3805
-22.4637
-22.5415
-22.6138
-22.6806
-22.7419
-22.7976
-22.8477
-22.8923
-22.9313
-22.9647
-22.9925
-23.0147
-23.0314
-18.9141
-19.1313
-19.3424
-19.5268
-19.6933
-19.8484
-19.9941
-20.1315
-20.2619
-20.3862
-20.5047
-20.6176
-20.7252
-20.8275
-20.9245
-21.0162
-21.1025
-21.1836
-21.2593
-21.3296
-21.3946
-21.4541
-21.5082
-21.5568
-21.6
-21.6377
-21.6698
-21.6965
-21.7176
-21.7334
-17.7246
-17.9692
-18.1979
-18.3818
-18.5438
-18.6946
-18.836
-18.9694
-19.0962
-19.2172
-19.3328
-19.4431
-19.5483
-19.6483
-19.7432
-19.8329
-19.9175
-19.9969
-20.071
-20.1399
-20.2034
-20.2617
-20.3146
-20.3622
-20.4043
-20.4411
-20.4724
-20.4983
-20.5187
-20.5338
-16.6038
-16.8729
-17.1257
-17.315
-17.4736
-17.6197
-17.7572
-17.8869
-18.0104
-18.1285
-18.2416
-18.3497
-18.4529
-18.5511
-18.6443
-18.7325
-18.8157
-18.8937
-18.9667
-19.0345
-19.0972
-19.1546
-19.2068
-19.2537
-19.2953
-19.3316
-19.3626
-19.3882
-19.4084
-19.4234
-15.7436
-16.0101
-16.2409
-16.4317
-16.5836
-16.7177
-16.8453
-16.967
-17.0827
-17.1936
-17.3001
-17.4019
-17.4989
-17.5913
-17.6789
-17.7616
-17.8396
-17.9126
-17.9808
-18.044
-18.1023
-18.1556
-18.2039
-18.2471
-18.2852
-18.3183
-18.3462
-18.369
-18.3867
-18.3994
-10.1455
-11.0343
-12.0043
-13.0551
-14.1948
-15.432
-16.7752
-18.2338
-19.8182
-21.5403
-23.4129
-25.4506
-27.6694
-30.0875
-32.725
-35.6048
-38.7526
-42.1977
-45.9739
-50.12
-54.6813
-59.7109
-65.2712
-71.4351
-78.2923
-85.9542
-94.4884
-103.879
-115.133
-130.148
-10.3221
-11.2151
-12.1867
-13.2398
-14.3823
-15.6225
-16.969
-18.4312
-20.0195
-21.7458
-23.6229
-25.6656
-27.8898
-30.3137
-32.9576
-35.8444
-38.9998
-42.4534
-46.239
-50.3956
-54.9686
-60.0113
-65.5862
-71.7663
-78.6413
-86.3227
-94.8771
-104.284
-115.542
-130.543
-10.5009
-11.3981
-12.3714
-13.4268
-14.5723
-15.8157
-17.1655
-18.6314
-20.2237
-21.9543
-23.8362
-25.8839
-28.1137
-30.5436
-33.1941
-36.0881
-39.2514
-42.7138
-46.509
-50.6763
-55.2613
-60.3174
-65.9072
-72.1037
-78.9964
-86.6964
-95.2692
-104.69
-115.944
-130.915
-10.6817
-11.5829
-12.5579
-13.6158
-14.7642
-16.0108
-17.3641
-18.8337
-20.4301
-22.1651
-24.0518
-26.1047
-28.3401
-30.7762
-33.4334
-36.3346
-39.506
-42.9772
-46.7822
-50.9604
-55.5576
-60.6271
-66.2318
-72.4446
-79.3548
-87.0728
-95.6632
-105.098
-116.356
-131.312
-10.864
-11.7693
-12.7459
-13.8064
-14.9578
-16.2077
-17.5646
-19.0379
-20.6385
-22.3779
-24.2694
-26.3276
-28.5687
-31.0109
-33.6749
-36.5835
-39.7629
-43.2431
-47.0579
-51.2471
-55.8563
-60.9393
-66.5588
-72.7879
-79.7155
-87.4514
-96.0596
-105.512
-116.78
-131.734
-11.0479
-11.957
-12.9354
-13.9984
-15.1531
-16.4063
-17.7667
-19.2439
-20.8486
-22.5926
-24.489
-26.5525
-28.7993
-31.2478
-33.9186
-36.8346
-40.0222
-43.5113
-47.3361
-51.5362
-56.1576
-61.2541
-66.8884
-73.1338
-80.0789
-87.8331
-96.4596
-105.929
-117.211
-132.167
-11.233
-12.1459
-13.126
-14.1918
-15.3497
-16.6063
-17.9703
-19.4515
-21.0605
-22.809
-24.7104
-26.7793
-29.0319
-31.4868
-34.1644
-37.0879
-40.2838
-43.7819
-47.6167
-51.8278
-56.4614
-61.5715
-67.2209
-73.4826
-80.4455
-88.2182
-96.8634
-106.351
-117.647
-132.608
-11.4192
-12.3358
-13.3177
-14.3863
-15.5475
-16.8076
-18.1753
-19.6605
-21.2738
-23.027
-24.9334
-27.0077
-29.2663
-31.7275
-34.4121
-37.3432
-40.5474
-44.0546
-47.8995
-52.1218
-56.7678
-61.8915
-67.556
-73.8343
-80.8151
-88.6066
-97.2707
-106.776
-118.087
-133.055
-11.6063
-12.5265
-13.5102
-14.5818
-15.7463
-17.01
-18.3815
-19.8707
-21.4884
-23.2464
-25.1579
-27.2377
-29.5022
-31.9699
-34.6615
-37.6003
-40.8129
-44.3293
-48.1844
-52.4179
-57.0764
-62.2139
-67.8936
-74.1887
-81.1875
-88.9981
-97.6813
-107.205
-118.531
-133.507
-11.7941
-12.7178
-13.7034
-14.778
-15.946
-17.2133
-18.5886
-20.082
-21.7041
-23.4669
-25.3836
-27.469
-29.7395
-32.2137
-34.9124
-37.859
-41.08
-44.6058
-48.471
-52.7159
-57.3869
-62.5384
-68.2335
-74.5454
-81.5624
-89.3922
-98.0949
-107.637
-118.978
-133.964
-11.9825
-12.9096
-13.897
-14.9748
-16.1464
-17.4174
-18.7966
-20.2942
-21.9208
-23.6885
-25.6104
-27.7014
-29.978
-32.4589
-35.1647
-38.119
-41.3486
-44.8838
-48.7594
-53.0157
-57.6993
-62.8648
-68.5754
-74.9043
-81.9397
-89.7889
-98.5112
-108.071
-119.429
-134.425
-12.1714
-13.1017
-14.0911
-15.1721
-16.3473
-17.6221
-19.0054
-20.5072
-22.1384
-23.9109
-25.8381
-27.9348
-30.2176
-32.7051
-35.4181
-38.3803
-41.6185
-45.1631
-49.0491
-53.317
-58.0134
-63.193
-68.9192
-75.2652
-82.319
-90.1877
-98.9298
-108.509
-119.882
-134.888
-12.3606
-13.294
-14.2854
-15.3697
-16.5488
-17.8274
-19.2147
-20.7208
-22.3567
-24.1342
-26.0667
-28.1691
-30.4581
-32.9522
-35.6725
-38.6427
-41.8895
-45.4436
-49.34
-53.6195
-58.3287
-63.5225
-69.2644
-75.6276
-82.7001
-90.5884
-99.3503
-108.948
-120.337
-135.354
-12.5501
-13.4864
-14.4798
-15.5677
-16.7505
-18.0331
-19.4245
-20.9351
-22.5755
-24.358
-26.2959
-28.4041
-30.6993
-33.2001
-35.9277
-38.9058
-42.1613
-45.725
-49.632
-53.923
-58.6451
-63.8533
-69.6109
-75.9914
-83.0826
-90.9906
-99.7723
-109.389
-120.794
-135.821
-12.7398
-13.679
-14.6744
-15.7658
-16.9526
-18.2392
-19.6348
-21.1497
-22.7949
-24.5824
-26.5257
-28.6396
-30.941
-33.4487
-36.1836
-39.1696
-42.4338
-46.0071
-49.9247
-54.2273
-58.9625
-64.185
-69.9584
-76.3563
-83.4662
-91.3939
-100.196
-109.831
-121.252
-136.289
-12.9297
-13.8715
-14.8691
-15.9642
-17.155
-18.4456
-19.8454
-21.3648
-23.0147
-24.8073
-26.7559
-28.8756
-31.1833
-33.6976
-36.4399
-39.4339
-42.7068
-46.2897
-50.2178
-54.5323
-59.2804
-64.5173
-70.3066
-76.7219
-83.8505
-91.798
-100.62
-110.274
-121.71
-136.758
-13.1198
-14.0642
-15.0639
-16.1627
-17.3577
-18.6524
-20.0564
-21.5802
-23.2349
-25.0324
-26.9864
-29.1119
-31.4258
-33.9469
-36.6964
-39.6984
-42.9801
-46.5726
-50.5113
-54.8375
-59.5986
-64.8499
-70.6552
-77.0879
-84.2353
-92.2025
-101.044
-110.717
-122.169
-137.227
-13.3103
-14.2571
-15.2588
-16.3616
-17.5606
-18.8594
-20.2677
-21.796
-23.4553
-25.2578
-27.2171
-29.3484
-31.6684
-34.1962
-36.953
-39.963
-43.2534
-46.8554
-50.8048
-55.1427
-59.9169
-65.1826
-71.0038
-77.4539
-84.6202
-92.607
-101.468
-111.16
-122.627
-137.695
-13.5013
-14.4503
-15.4541
-16.5608
-17.764
-19.0669
-20.4793
-22.0119
-23.6759
-25.4834
-27.448
-29.5849
-31.911
-34.4454
-37.2095
-40.2273
-43.5264
-47.1379
-51.0979
-55.4476
-60.2348
-65.5149
-71.3522
-77.8197
-85.0047
-93.0113
-101.892
-111.602
-123.085
-138.163
-13.6932
-14.6442
-15.6499
-16.7605
-17.9678
-19.2747
-20.6912
-22.2282
-23.8966
-25.7089
-27.6787
-29.8212
-32.1534
-34.6944
-37.4656
-40.4913
-43.7989
-47.42
-51.3906
-55.7519
-60.5521
-65.8467
-71.6998
-78.1849
-85.3887