/*--------------------------------*- C++ -*----------------------------------*\
  =========                 |
  \\      /  F ield         | OpenFOAM: The Open Source CFD Toolbox
   \\    /   O peration     | Website:  https://openfoam.org
    \\  /    A nd           | Version:  6.0
     \\/     M anipulation  |
\*---------------------------------------------------------------------------*/
FoamFile
{
    version     2.0;
    format      ascii;
    class       volVectorField;
    location    "6.5";
    object      U;
}
// * * * * * * * * * * * * * * * * * * * * * * * * * * * * * * * * * * * * * //

dimensions      [0 1 -1 0 0 0 0];

internalField   nonuniform List<vector> 
19200
(
(0.815066 -19.4487 -9.17549e-20)
(0.225729 -18.6559 4.45173e-20)
(0.221895 -17.9615 2.05229e-20)
(0.266607 -17.3343 1.81043e-20)
(0.27568 -16.7557 1.9792e-20)
(0.284009 -16.2086 1.20198e-21)
(0.294445 -15.6831 2.74433e-20)
(0.304031 -15.1746 -1.9246e-21)
(0.312323 -14.6808 2.33111e-20)
(0.319425 -14.2009 9.55863e-21)
(0.325401 -13.7352 1.72358e-22)
(0.330349 -13.2839 1.47686e-20)
(0.334404 -12.8474 2.36266e-20)
(0.337705 -12.4257 -1.58324e-20)
(0.340382 -12.019 1.98502e-20)
(0.342548 -11.6271 1.66723e-20)
(0.344301 -11.2498 -1.56121e-20)
(0.345722 -10.8868 2.60513e-20)
(0.346877 -10.5376 -1.64718e-20)
(0.347823 -10.2017 8.14526e-21)
(0.34861 -9.87872 1.11452e-20)
(0.349285 -9.56809 -3.56804e-21)
(0.349894 -9.26925 4.791e-21)
(0.350485 -8.98158 -5.43641e-21)
(0.351102 -8.70438 -1.46271e-22)
(0.351773 -8.43686 2.69971e-21)
(0.352496 -8.17814 -1.83664e-21)
(0.353406 -7.9273 1.09562e-21)
(0.354942 -7.68337 2.52521e-21)
(0.355955 -7.44545 9.53492e-21)
(1.32277 -19.4215 -2.0224e-20)
(0.715263 -18.6513 1.35183e-19)
(0.69364 -17.9621 -7.16149e-20)
(0.721857 -17.337 -9.60878e-20)
(0.715747 -16.7601 -4.25794e-20)
(0.709716 -16.2137 -2.9982e-20)
(0.706321 -15.6884 -6.44186e-20)
(0.702486 -15.1794 8.39189e-21)
(0.697726 -14.685 -1.34062e-20)
(0.692139 -14.2045 -4.63081e-20)
(0.685797 -13.7381 -1.11831e-19)
(0.678812 -13.2861 5.34933e-20)
(0.67133 -12.849 -1.98569e-20)
(0.663497 -12.4268 7.49655e-21)
(0.655445 -12.0197 -4.37078e-20)
(0.647284 -11.6276 -1.56054e-20)
(0.639104 -11.25 1.86939e-21)
(0.630974 -10.8868 5.15617e-20)
(0.62295 -10.5374 -2.74068e-20)
(0.615074 -10.2015 -1.5002e-20)
(0.607382 -9.87845 -5.65756e-20)
(0.599906 -9.56783 1.44095e-20)
(0.592676 -9.26905 -8.77807e-21)
(0.585724 -8.98149 1.53016e-20)
(0.579078 -8.70446 -6.90119e-21)
(0.572745 -8.43717 -1.06221e-20)
(0.566698 -8.17874 3.52225e-21)
(0.561084 -7.92819 5.21068e-21)
(0.556404 -7.68449 -9.29972e-21)
(0.551247 -7.4467 4.26508e-21)
(1.83095 -19.3823 -9.42504e-21)
(1.20444 -18.634 2.75041e-20)
(1.16527 -17.9503 4.46116e-20)
(1.17726 -17.3276 3.32125e-19)
(1.15609 -16.7528 -1.88909e-19)
(1.13576 -16.2076 1.7248e-19)
(1.11856 -15.6826 1.04873e-19)
(1.10129 -15.1736 7.97578e-20)
(1.08345 -14.6789 -7.38809e-20)
(1.06514 -14.198 -6.40166e-21)
(1.04645 -13.7312 1.81052e-19)
(1.0275 -13.279 2.91201e-20)
(1.00845 -12.8416 -8.11503e-20)
(0.989454 -12.4193 6.32849e-20)
(0.970652 -12.0121 3.82612e-22)
(0.952146 -11.6199 2.59585e-20)
(0.93402 -11.2424 1.82961e-20)
(0.916331 -10.8792 6.00472e-20)
(0.89912 -10.53 -2.66853e-20)
(0.882418 -10.1942 -8.75694e-21)
(0.866244 -9.87132 -2.18232e-20)
(0.850616 -9.56092 9.5343e-20)
(0.83555 -9.26241 -7.89042e-20)
(0.821061 -8.97517 2.54753e-20)
(0.807162 -8.69851 1.11441e-20)
(0.793838 -8.43165 -4.5738e-20)
(0.781036 -8.1737 6.03258e-20)
(0.768914 -7.92364 -6.5407e-21)
(0.758031 -7.68037 -6.66963e-21)
(0.746681 -7.44295 -4.3709e-20)
(2.33726 -19.3301 -3.25317e-19)
(1.69252 -18.6041 -2.87763e-19)
(1.63629 -17.9261 -3.47114e-19)
(1.6324 -17.3064 1.18861e-20)
(1.59639 -16.734 2.15909e-20)
(1.56184 -16.1902 -3.77161e-19)
(1.53085 -15.6659 1.81691e-20)
(1.50015 -15.1572 4.75525e-20)
(1.46922 -14.6626 -8.73512e-21)
(1.43816 -14.1817 7.79463e-20)
(1.40709 -13.7149 -3.06643e-19)
(1.37614 -13.2626 -1.85296e-19)
(1.34551 -12.8253 7.01125e-20)
(1.31534 -12.4031 1.32905e-19)
(1.28577 -11.9961 -1.54112e-19)
(1.25691 -11.6041 -2.36257e-20)
(1.22884 -11.2269 -8.79959e-20)
(1.20159 -10.8641 -4.05645e-20)
(1.17519 -10.5152 6.69279e-20)
(1.14966 -10.1798 -8.47209e-20)
(1.12501 -9.85739 7.22549e-20)
(1.10124 -9.54743 -8.54289e-20)
(1.07835 -9.24939 -6.55362e-20)
(1.05633 -8.96266 -4.60467e-20)
(1.0352 -8.68658 -1.37136e-20)
(1.0149 -8.42033 -9.23887e-20)
(0.995363 -8.16306 9.56945e-21)
(0.976759 -7.91369 1.59668e-20)
(0.959693 -7.67105 -4.55638e-20)
(0.942137 -7.43421 1.0014e-20)
(2.84224 -19.2652 -1.92047e-19)
(2.17979 -18.5618 2.76745e-20)
(2.10667 -17.8898 2.41408e-19)
(2.08707 -17.2732 2.47609e-19)
(2.03634 -16.7036 1.75715e-19)
(1.98765 -16.1616 7.18451e-20)
(1.9429 -15.6384 1.09295e-19)
(1.89878 -15.1303 4.88403e-19)
(1.85475 -14.636 -2.92168e-19)
(1.81093 -14.1554 9.00598e-21)
(1.76745 -13.6889 6.89956e-20)
(1.7245 -13.2369 2.84908e-19)
(1.68226 -12.8 -1.91454e-19)
(1.64091 -12.3782 1.34858e-19)
(1.60058 -11.9717 -1.46328e-19)
(1.56137 -11.5803 2.48242e-19)
(1.52334 -11.2037 -7.26452e-20)
(1.48653 -10.8415 2.72788e-21)
(1.45096 -10.4932 1.11669e-19)
(1.41662 -10.1584 7.63092e-20)
(1.3835 -9.83663 -7.78083e-20)
(1.35159 -9.52733 1.03036e-19)
(1.32089 -9.22997 -4.56767e-20)
(1.29137 -8.94396 5.26682e-20)
(1.26301 -8.66863 6.87022e-20)
(1.23576 -8.40321 2.40831e-20)
(1.20952 -8.14679 7.30991e-20)
(1.18447 -7.89831 -2.75518e-20)
(1.16125 -7.6565 -9.37353e-21)
(1.13749 -7.42047 -4.09559e-20)
(3.34535 -19.1873 -1.38272e-19)
(2.66586 -18.507 -9.03311e-20)
(2.5761 -17.8414 -2.70048e-19)
(2.54098 -17.2283 -6.90556e-19)
(2.47567 -16.6617 2.33399e-19)
(2.41291 -16.1218 1.45293e-20)
(2.35444 -15.5999 -1.51372e-19)
(2.2969 -15.0928 2.72349e-20)
(2.23975 -14.5992 -2.30047e-20)
(2.18316 -14.1193 -3.6428e-19)
(2.12727 -13.6533 1.53494e-19)
(2.07231 -13.202 2.56154e-19)
(2.01846 -12.7657 1.10963e-21)
(1.96593 -12.3447 9.15782e-20)
(1.91483 -11.939 2.20903e-19)
(1.86528 -11.5484 -1.50251e-19)
(1.81731 -11.1727 2.59554e-19)
(1.77096 -10.8113 -1.21891e-19)
(1.72622 -10.4639 2.11711e-19)
(1.68308 -10.13 -1.57549e-19)
(1.64152 -9.80907 6.90742e-20)
(1.6015 -9.50064 1.75704e-19)
(1.563 -9.20416 7.60865e-21)
(1.52599 -8.91907 -1.59569e-19)
(1.49044 -8.6447 8.83695e-20)
(1.45627 -8.38028 9.7587e-21)
(1.42337 -8.12492 -2.70761e-20)
(1.39191 -7.87751 1.01843e-19)
(1.36257 -7.63673 3.4568e-20)
(1.33261 -7.40174 -3.48395e-20)
(3.84637 -19.0965 3.85475e-19)
(3.15054 -18.4397 -1.30436e-20)
(3.04437 -17.7808 -5.44738e-19)
(2.99386 -17.1715 1.11722e-19)
(2.91408 -16.6084 -1.48087e-19)
(2.83733 -16.0709 1.12679e-19)
(2.76516 -15.5506 2.35793e-19)
(2.69422 -15.0447 4.17171e-19)
(2.62396 -14.5522 -4.42554e-19)
(2.55459 -14.0732 1.089e-19)
(2.4863 -13.6082 -7.15356e-20)
(2.41931 -13.1579 5.18629e-20)
(2.35387 -12.7226 -2.32025e-19)
(2.29016 -12.3026 -1.35898e-20)
(2.22831 -11.898 3.56791e-19)
(2.16843 -11.5085 -2.46121e-19)
(2.11054 -11.1339 -1.51648e-19)
(2.05467 -10.7736 -1.06336e-19)
(2.00079 -10.4274 1.93766e-19)
(1.94887 -10.0945 4.01103e-20)
(1.89888 -9.77471 -1.83997e-19)
(1.85077 -9.46736 2.40004e-19)
(1.8045 -9.17198 -2.1527e-19)
(1.76004 -8.88799 1.38867e-19)
(1.71733 -8.61477 -7.86807e-20)
(1.67628 -8.35154 4.92439e-20)
(1.63674 -8.09743 3.56924e-20)
(1.59892 -7.85129 -1.61887e-19)
(1.56351 -7.61174 6.86987e-20)
(1.52737 -7.37801 9.21924e-22)
(4.34493 -18.9927 -3.74951e-19)
(3.63349 -18.3599 3.05545e-19)
(3.51117 -17.7081 -5.47637e-19)
(3.44542 -17.103 1.04347e-18)
(3.3513 -16.5435 -2.88908e-19)
(3.26061 -16.0087 3.98772e-19)
(3.17479 -15.4904 -9.78685e-21)
(3.09045 -14.9861 -5.79339e-20)
(3.0071 -14.495 -7.59759e-20)
(2.92495 -14.0173 8.55839e-22)
(2.84425 -13.5535 -2.85548e-19)
(2.76526 -13.1045 1.50073e-19)
(2.68823 -12.6705 -1.73735e-19)
(2.61336 -12.2519 -1.44323e-20)
(2.54079 -11.8486 -4.72307e-19)
(2.47059 -11.4606 1.55344e-19)
(2.40281 -11.0873 8.54031e-20)
(2.33744 -10.7285 -9.78613e-20)
(2.27444 -10.3835 -1.17232e-20)
(2.21378 -10.0521 -1.44013e-19)
(2.15539 -9.73356 -5.04855e-20)
(2.09923 -9.42752 3.34715e-21)
(2.04523 -9.13343 -1.19971e-19)
(1.99334 -8.85076 -1.74018e-19)
(1.9435 -8.57887 8.06796e-21)
(1.89561 -8.31703 -1.97169e-20)
(1.84948 -8.06434 5.22729e-20)
(1.80535 -7.81967 -1.27014e-19)
(1.76393 -7.58154 1.06616e-19)
(1.72163 -7.3493 -2.00401e-19)
(4.84071 -18.876 -9.24297e-19)
(4.11444 -18.2677 1.0981e-18)
(3.97622 -17.6233 -1.14185e-18)
(3.89539 -17.0226 -3.02436e-19)
(3.78703 -16.4671 -1.87363e-19)
(3.68248 -15.9354 -2.02914e-19)
(3.58304 -15.4194 -1.85194e-19)
(3.48533 -14.917 -4.22268e-20)
(3.38888 -14.4276 -1.84763e-19)
(3.29398 -13.9514 -3.54599e-20)
(3.20088 -13.4893 2.91707e-19)
(3.1099 -13.0418 -1.71549e-19)
(3.0213 -12.6095 -1.93928e-19)
(2.93529 -12.1926 -3.17688e-19)
(2.85202 -11.791 6.62602e-19)
(2.77155 -11.4046 -2.50244e-19)
(2.69391 -11.033 9.22132e-20)
(2.61907 -10.6758 -3.36197e-19)
(2.547 -10.3325 1.29983e-19)
(2.47762 -10.0026 -5.05943e-20)
(2.41087 -9.68566 6.5631e-20)
(2.34668 -9.38113 -2.08141e-20)
(2.28499 -9.08854 1.93425e-19)
(2.22572 -8.80738 -6.75955e-20)
(2.1688 -8.53702 1.83891e-19)
(2.1141 -8.27674 -3.2911e-20)
(2.06145 -8.02568 2.34175e-19)
(2.01106 -7.78265 6.16541e-20)
(1.96368 -7.54614 1.13967e-19)
(1.91528 -7.31562 -3.51171e-19)
(5.33338 -18.7465 1.45914e-18)
(4.59304 -18.163 -2.82917e-19)
(4.43922 -17.5264 4.88192e-19)
(4.34345 -16.9305 -1.35247e-19)
(4.22098 -16.3794 4.76618e-19)
(4.10264 -15.8509 4.40645e-19)
(3.98962 -15.3375 4.89293e-19)
(3.87856 -14.8374 -3.72265e-20)
(3.76905 -14.35 -4.54076e-19)
(3.66139 -13.8758 6.64875e-19)
(3.55593 -13.4156 -4.51074e-20)
(3.45298 -12.97 4.52593e-19)
(3.35284 -12.5396 1.61002e-19)
(3.25573 -12.1247 6.0242e-20)
(3.16178 -11.7251 9.003e-20)
(3.07108 -11.3406 1.25127e-19)
(2.98361 -10.971 2.018e-19)
(2.89935 -10.6157 -5.5954e-20)
(2.81824 -10.2743 2.87935e-19)
(2.7402 -9.94622 1.28315e-19)
(2.66513 -9.63103 -2.66135e-19)
(2.59296 -9.32823 4.64536e-19)
(2.52361 -9.03734 -6.04304e-19)
(2.45699 -8.75787 5.6233e-19)
(2.39304 -8.48923 -1.84052e-19)
(2.33159 -8.23071 3.63857e-20)
(2.27247 -7.98145 -2.33508e-19)
(2.2159 -7.74025 1.30558e-19)
(2.16262 -7.50556 4.518e-20)
(2.10816 -7.27699 -5.37352e-20)
(5.8226 -18.6042 -8.2633e-19)
(5.069 -18.0458 7.84008e-19)
(4.89985 -17.4174 -2.12337e-19)
(4.78933 -16.8267 6.01069e-19)
(4.65286 -16.2801 5.98456e-20)
(4.52079 -15.7553 1.17277e-19)
(4.39424 -15.2449 -9.89878e-19)
(4.26987 -14.7473 -1.72103e-19)
(4.14731 -14.2622 6.14515e-19)
(4.02693 -13.7903 4.50953e-19)
(3.90912 -13.3323 -7.64491e-19)
(3.79423 -12.8891 4.37592e-19)
(3.68259 -12.4609 -4.32836e-19)
(3.57442 -12.0482 2.88364e-19)
(3.46985 -11.6509 -4.80488e-19)
(3.36895 -11.2687 -3.47103e-19)
(3.27171 -10.9013 2.52125e-20)
(3.17808 -10.5482 -1.51626e-19)
(3.08798 -10.2089 2.73624e-19)
(3.00131 -9.88289 1.06799e-19)
(2.91797 -9.56969 -7.00797e-20)
(2.83786 -9.26884 -1.9904e-20)
(2.7609 -8.97986 7.70575e-20)
(2.687 -8.70228 -2.60357e-19)
(2.61606 -8.43554 4.22631e-19)
(2.54792 -8.17896 -1.04181e-19)
(2.48238 -7.93169 -6.40621e-21)
(2.4197 -7.69252 3.51768e-19)
(2.3606 -7.45982 4.39706e-20)
(2.30015 -7.23343 -4.92111e-20)
(6.30805 -18.4493 3.32916e-20)
(5.54198 -17.9163 -4.48901e-19)
(5.35782 -17.2965 -3.99719e-19)
(5.2327 -16.7112 -6.53885e-19)
(5.08236 -16.1695 2.34759e-20)
(4.93666 -15.6487 -4.48163e-19)
(4.79662 -15.1415 5.32718e-19)
(4.65896 -14.6467 -5.41382e-20)
(4.52339 -14.1644 4.03729e-19)
(4.39032 -13.6951 -3.42503e-19)
(4.2602 -13.2397 -1.69825e-19)
(4.13342 -12.799 9.15046e-20)
(4.01031 -12.3734 4.85986e-20)
(3.89112 -11.9633 -4.79228e-19)
(3.77598 -11.5685 2.80702e-19)
(3.66494 -11.1889 -1.32753e-19)
(3.55798 -10.824 3.80257e-19)
(3.45503 -10.4733 -1.22402e-19)
(3.356 -10.1364 1.26355e-19)
(3.26076 -9.81267 3.06469e-20)
(3.1692 -9.5017 2.07174e-19)
(3.08121 -9.20301 -4.29753e-20)
(2.9967 -8.91615 3.30168e-19)
(2.91555 -8.64065 -3.66617e-19)
(2.83768 -8.37599 -1.21261e-19)
(2.76291 -8.12152 9.73733e-20)
(2.69102 -7.87642 -1.0126e-20)
(2.62231 -7.63947 -1.64293e-19)
(2.55747 -7.40895 1.31044e-19)
(2.4911 -7.18497 -1.50253e-19)
(6.7894 -18.2817 1.3814e-18)
(6.01166 -17.7746 3.65092e-19)
(5.8128 -17.1635 4.33646e-19)
(5.67327 -16.584 5.68266e-19)
(5.50918 -16.0476 8.44266e-19)
(5.34993 -15.531 -2.62797e-20)
(5.19646 -15.0273 1.24203e-19)
(5.04557 -14.5358 8.94549e-19)
(4.89702 -14.0565 -1.86691e-19)
(4.7513 -13.5901 -3.19863e-19)
(4.60891 -13.1376 5.52725e-19)
(4.47028 -12.6998 8.8342e-20)
(4.33577 -12.2772 4.89528e-21)
(4.20561 -11.8699 1.28908e-19)
(4.07996 -11.478 2.21079e-19)
(3.95884 -11.1012 -4.44711e-19)
(3.84222 -10.739 3.76088e-19)
(3.73001 -10.3911 6.12559e-20)
(3.6221 -10.0568 3.51205e-19)
(3.51835 -9.73561 -1.91093e-19)
(3.41863 -9.4271 3.0502e-19)
(3.32282 -9.13078 -3.20755e-19)
(3.2308 -8.84623 3.0493e-19)
(3.14248 -8.573 3.89786e-20)
(3.05774 -8.31061 -2.00687e-19)
(2.9764 -8.05843 -6.20684e-20)
(2.89824 -7.81569 3.67261e-19)
(2.82356 -7.58112 2.65026e-19)
(2.75309 -7.35299 6.89171e-20)
(2.68087 -7.13164 -4.4817e-20)
(7.2663 -18.1016 1.36722e-19)
(6.47773 -17.6205 3.08582e-19)
(6.26449 -17.0187 1.24489e-18)
(6.11074 -16.4453 -2.02596e-18)
(5.93304 -15.9143 -1.92714e-19)
(5.76032 -15.4023 -2.13298e-19)
(5.59348 -14.9025 9.49842e-20)
(5.4294 -14.4145 1.18474e-19)
(5.26792 -13.9386 1.94467e-19)
(5.1096 -13.4755 -5.19682e-19)
(4.95499 -13.0262 -9.2518e-20)
(4.80457 -12.5916 2.81601e-19)
(4.6587 -12.1722 2.92544e-19)
(4.51765 -11.7682 -2.95435e-19)
(4.38154 -11.3794 -2.79214e-19)
(4.25041 -11.0057 4.60497e-19)
(4.12419 -10.6466 2.89728e-19)
(4.0028 -10.3016 -7.8753e-20)
(3.88607 -9.97013 -1.81533e-19)
(3.77388 -9.65175 3.05147e-20)
(3.66607 -9.34592 -3.9959e-19)
(3.56249 -9.0522 4.74668e-19)
(3.46304 -8.77016 -3.20516e-19)
(3.36759 -8.4994 -1.13956e-20)
(3.27605 -8.23945 2.04145e-19)
(3.18821 -7.98975 -6.26325e-20)
(3.10385 -7.74953 -1.84373e-19)
(3.0233 -7.51752 2.27119e-19)
(2.94728 -7.29197 -6.81096e-21)
(2.86932 -7.07348 3.48131e-20)
(7.73845 -17.9091 -1.07132e-19)
(6.93987 -17.4543 -3.29804e-19)
(6.71258 -16.8621 -1.43027e-18)
(6.5448 -16.295 5.1682e-19)
(6.35362 -15.7699 -1.49585e-19)
(6.16753 -15.2626 4.95997e-19)
(5.98739 -14.7671 3.59214e-20)
(5.81018 -14.283 -5.42361e-19)
(5.63582 -13.8107 8.09534e-19)
(5.46496 -13.3512 -7.22977e-19)
(5.29819 -12.9055 -2.39821e-20)
(5.13603 -12.4745 1.67547e-19)
(4.97888 -12.0586 -2.87013e-19)
(4.827 -11.658 3.16444e-19)
(4.68051 -11.2727 -6.00405e-19)
(4.53943 -10.9024 -1.28123e-19)
(4.4037 -10.5466 3.54687e-19)
(4.27318 -10.2048 2.05065e-21)
(4.14772 -9.87651 -2.09475e-19)
(4.02716 -9.56114 5.69124e-19)
(3.91132 -9.25823 -3.05693e-19)
(3.80005 -8.96731 -3.97493e-19)
(3.69322 -8.688 1.29786e-19)
(3.59072 -8.41989 -3.70336e-19)
(3.49243 -8.16257 -8.54544e-20)
(3.39817 -7.91551 -9.18184e-21)
(3.30769 -7.67799 -2.26389e-19)
(3.22137 -7.44873 2.7228e-19)
(3.13989 -7.22592 -1.47604e-19)
(3.05632 -7.01056 1.59175e-19)
(8.2055 -17.7044 -4.87043e-19)
(7.39776 -17.2761 -1.30847e-18)
(7.15676 -16.6937 6.12512e-19)
(6.97514 -16.1333 -5.74064e-19)
(6.77063 -15.6142 -4.15694e-19)
(6.57126 -15.1121 -2.31592e-19)
(6.3779 -14.6211 -8.50306e-19)
(6.18762 -14.1412 5.7227e-19)
(6.00044 -13.6729 -1.38201e-18)
(5.8171 -13.2174 -4.8227e-19)
(5.63823 -12.7756 1.82852e-19)
(5.46441 -12.3484 2.87878e-19)
(5.29605 -11.9364 -9.0056e-21)
(5.13342 -11.5396 -5.28614e-19)
(4.97663 -11.1581 1.22336e-19)
(4.82569 -10.7914 -4.57253e-19)
(4.68052 -10.4392 -3.20599e-19)
(4.54096 -10.1009 -1.85302e-19)
(4.40684 -9.77595 -3.13024e-20)
(4.27797 -9.46385 3.19826e-19)
(4.15418 -9.16407 4.43697e-19)
(4.03528 -8.87618 -1.30591e-19)
(3.92115 -8.59979 -1.20883e-19)
(3.81167 -8.33454 2.3538e-19)
(3.70671 -8.08002 1.28e-19)
(3.60609 -7.83577 -1.01169e-19)
(3.50958 -7.60112 -1.09094e-19)
(3.41758 -7.37478 1.34614e-20)
(3.33076 -7.15492 1.09883e-19)
(3.24168 -6.94289 1.39968e-19)
(8.66715 -17.4875 -8.50473e-20)
(7.8511 -17.0859 1.63329e-18)
(7.59673 -16.5136 1.2265e-18)
(7.40147 -15.9602 9.36307e-19)
(7.18378 -15.4475 -6.05009e-19)
(6.97124 -14.9508 -1.19682e-19)
(6.76473 -14.4646 1.12883e-19)
(6.56145 -13.9892 7.19077e-19)
(6.36152 -13.5254 2.64747e-19)
(6.16576 -13.0741 6.30285e-19)
(5.97487 -12.6365 -8.59649e-19)
(5.78947 -12.2136 9.13644e-20)
(5.60998 -11.8057 3.39082e-19)
(5.43667 -11.413 1.9981e-19)
(5.26967 -11.0355 4.04987e-19)
(5.10896 -10.6727 -2.80904e-19)
(4.95443 -10.3244 -2.49716e-19)
(4.80591 -9.98983 5.20026e-20)
(4.66322 -9.66852 5.14998e-19)
(4.52613 -9.35992 -8.20828e-19)
(4.39446 -9.06351 2.84785e-19)
(4.26801 -8.77887 -1.09847e-21)
(4.14665 -8.50561 5.09622e-19)
(4.03025 -8.2434 -2.21361e-19)
(3.91869 -7.99187 -1.34686e-20)
(3.8118 -7.75061 -1.33184e-19)
(3.70933 -7.51899 1.25514e-19)
(3.61175 -7.29574 3.03545e-20)
(3.5197 -7.079 -1.30297e-19)
(3.42524 -6.87054 4.16752e-19)
(9.12308 -17.2586 -1.74116e-18)
(8.29956 -16.8839 -9.86861e-19)
(8.0322 -16.322 -2.47188e-18)
(7.8235 -15.7758 -1.0874e-18)
(7.59276 -15.2697 1.00709e-18)
(7.36715 -14.7788 -5.73001e-19)
(7.14758 -14.2978 -1.26341e-19)
(6.93138 -13.8272 -3.6194e-19)
(6.71878 -13.368 6.09968e-19)
(6.51068 -12.9214 -1.34419e-19)
(6.30786 -12.4884 -2.10494e-19)
(6.11095 -12.0699 -2.57916e-20)
(5.92042 -11.6665 -8.09549e-19)
(5.73654 -11.2782 -2.14253e-20)
(5.55941 -10.905 2.16997e-19)
(5.38901 -10.5465 -2.16308e-20)
(5.22522 -10.2023 -7.76837e-19)
(5.06783 -9.87171 7.45254e-19)
(4.91665 -9.55428 -7.15415e-19)
(4.77143 -9.24941 2.76033e-19)
(4.63195 -8.9566 3.83565e-20)
(4.49804 -8.67542 1.5415e-20)
(4.36952 -8.40551 -2.74746e-19)
(4.24627 -8.14653 8.8729e-20)
(4.12819 -7.89818 -5.39349e-22)
(4.01509 -7.66008 2.73145e-20)
(3.90676 -7.43167 -6.32947e-19)
(3.80369 -7.21167 1.75387e-19)
(3.70653 -6.99823 1.8182e-19)
(3.60685 -6.79359 1.83047e-19)
(9.57297 -17.0178 3.36497e-18)
(8.74286 -16.6702 1.10271e-18)
(8.46286 -16.1189 6.32254e-19)
(8.24092 -15.5802 9.98078e-19)
(7.99729 -15.081 -1.20531e-19)
(7.75873 -14.5961 7.12497e-19)
(7.52618 -14.1206 1.55054e-18)
(7.29714 -13.6552 -2.02609e-19)
(7.07196 -13.201 8.06544e-20)
(6.85161 -12.7593 1.70418e-18)
(6.63693 -12.3312 -2.2993e-19)
(6.42862 -11.9176 2.24948e-19)
(6.22715 -11.5189 -7.6559e-20)
(6.03278 -11.1353 3.61288e-21)
(5.84563 -10.7667 1.1143e-18)
(5.66564 -10.4128 4.32047e-20)
(5.49267 -10.0729 1.13379e-18)
(5.32651 -9.7466 -1.48701e-19)
(5.16692 -9.43328 -2.34607e-19)
(5.01365 -9.13239 5.41894e-19)
(4.86647 -8.84341 -4.83769e-19)
(4.72515 -8.56592 5.26159e-19)
(4.58955 -8.29955 2.76767e-19)
(4.45954 -8.04401 -2.17784e-19)
(4.33501 -7.79901 3.29517e-19)
(4.21578 -7.56425 3.82829e-20)
(4.10167 -7.33921 -1.27375e-19)
(3.99322 -7.12264 7.51958e-20)
(3.89107 -6.91269 4.57225e-19)
(3.78632 -6.71209 6.54674e-20)
(10.0165 -16.7653 -5.79361e-19)
(9.1807 -16.4449 -1.11479e-18)
(8.88843 -15.9045 4.39363e-19)
(8.65345 -15.3735 -1.77108e-18)
(8.39707 -14.8814 8.15313e-19)
(8.14567 -14.4029 -1.46876e-18)
(7.90026 -13.9332 -9.31622e-19)
(7.65847 -13.4733 2.58067e-19)
(7.42078 -13.0245 2.3074e-19)
(7.18827 -12.588 -1.18869e-18)
(6.96185 -12.1651 -4.97781e-19)
(6.74223 -11.7566 2.15799e-19)
(6.52992 -11.3631 -6.08788e-19)
(6.32518 -10.9845 -2.3496e-19)
(6.1281 -10.6208 -1.53538e-19)
(5.93862 -10.2715 -1.5296e-19)
(5.75658 -9.93633 -6.18852e-19)
(5.58175 -9.61455 -3.75338e-19)
(5.41385 -9.3056 7.31426e-20)
(5.25261 -9.00892 1.20579e-19)
(5.09779 -8.724 1.2041e-19)
(4.94917 -8.45041 -4.25777e-19)
(4.80656 -8.1878 1.54593e-19)
(4.66985 -7.93589 -3.17845e-19)
(4.53893 -7.69444 2.88463e-19)
(4.41365 -7.46319 -3.80737e-19)
(4.29385 -7.2417 1.12292e-19)
(4.18011 -7.02872 -1.83335e-19)
(4.0731 -6.82245 -2.50106e-19)
(3.96345 -6.62614 -2.41136e-20)
(10.4535 -16.5012 -1.20527e-18)
(9.6128 -16.2082 -9.95601e-19)
(9.30862 -15.6788 -9.49833e-19)
(9.06079 -15.1558 -6.69184e-19)
(8.79182 -14.6712 2.07007e-18)
(8.5277 -14.1993 2.74604e-19)
(8.26952 -13.7356 8.44052e-19)
(8.01508 -13.2816 1.2574e-18)
(7.76499 -12.8385 5.83095e-19)
(7.52043 -12.4076 -7.77978e-19)
(7.28236 -11.9902 1.19303e-18)
(7.05155 -11.5872 -1.15312e-18)
(6.8285 -11.199 1.05728e-18)
(6.6135 -10.8257 1.16066e-19)
(6.40661 -10.4671 2.57848e-19)
(6.20775 -10.123 8.45877e-20)
(6.01674 -9.79266 1.00076e-18)
(5.83332 -9.47563 -1.48728e-19)
(5.6572 -9.17128 1.2702e-19)
(5.4881 -8.87905 4.20816e-19)
(5.32573 -8.59842 -4.64867e-19)
(5.16987 -8.32896 3.58801e-19)
(5.02033 -8.07032 1.0134e-20)
(4.87699 -7.82225 1.55923e-19)
(4.73976 -7.58453 2.78435e-19)
(4.6085 -7.35697 -4.85125e-20)
(4.48308 -7.1392 2.6738e-19)
(4.36415 -6.92999 3.74481e-19)
(4.25238 -6.72758 -4.08002e-19)
(4.138 -6.5358 -2.27141e-19)
(10.8835 -16.2257 3.47565e-18)
(10.0389 -15.9602 -3.67764e-19)
(9.72316 -15.4421 7.34662e-19)
(9.46268 -14.9272 1.31469e-18)
(9.18126 -14.4503 -3.68912e-18)
(8.90454 -13.9853 3.86546e-19)
(8.6337 -13.528 -1.33516e-18)
(8.36671 -13.0801 1.28535e-18)
(8.10433 -12.643 -1.01372e-18)
(7.84782 -12.2181 5.1652e-19)
(7.59822 -11.8066 -1.88629e-18)
(7.35633 -11.4093 7.27537e-20)
(7.12267 -11.0268 -5.79262e-19)
(6.89752 -10.6591 8.75912e-19)
(6.68093 -10.306 -9.15322e-19)
(6.47281 -9.96709 -5.04381e-20)
(6.27294 -9.64193 -7.05295e-19)
(6.08104 -9.3299 -5.1649e-20)
(5.8968 -9.0304 5.03114e-20)
(5.71991 -8.74285 1.42656e-19)
(5.55008 -8.46673 -8.10844e-19)
(5.38706 -8.20161 -2.20567e-20)
(5.23066 -7.94716 -4.35402e-19)
(5.08075 -7.70313 -1.01208e-19)
(4.93727 -7.46935 -2.56189e-19)
(4.80009 -7.24567 -2.7312e-19)
(4.66912 -7.03179 -2.75356e-19)
(4.54509 -6.82653 4.59346e-19)
(4.42868 -6.62815 1.19842e-19)
(4.30975 -6.44114 -2.16505e-19)
(11.3064 -15.9391 -2.3124e-18)
(10.4587 -15.7011 8.08431e-19)
(10.1318 -15.1944 -1.3366e-18)
(9.85883 -14.6878 1.99592e-19)
(9.56511 -14.2189 2.06915e-18)
(9.27591 -13.7611 -1.03722e-18)
(8.99252 -13.3105 -1.03759e-18)
(8.7131 -12.8691 -8.81153e-19)
(8.43854 -12.4384 4.81848e-20)
(8.1702 -12.0197 5.46731e-19)
(7.90919 -11.6143 -3.80405e-19)
(7.65635 -11.2232 2.797e-20)
(7.41221 -10.8466 1.11513e-18)
(7.17703 -10.4847 -5.58456e-19)
(6.95087 -10.1373 1.34949e-19)
(6.73359 -9.80398 -4.29135e-19)
(6.52497 -9.48423 1.62366e-19)
(6.3247 -9.17743 3.46134e-19)
(6.13244 -8.883 3.70221e-19)
(5.94785 -8.60035 -4.0484e-19)
(5.77064 -8.32897 6.3227e-20)
(5.60053 -8.06842 3.31154e-19)
(5.43733 -7.81837 5.61777e-19)
(5.28092 -7.57859 1.386e-19)
(5.13124 -7.34895 -5.58896e-19)
(4.98819 -7.12934 6.36521e-19)
(4.85172 -6.91954 -3.17036e-19)
(4.72266 -6.71841 -3.67897e-19)
(4.60173 -6.52428 -2.22126e-19)
(4.47846 -6.34228 -2.76634e-19)
(11.722 -15.6413 1.20411e-18)
(10.8721 -15.431 -9.16495e-19)
(10.5342 -14.9359 3.59931e-19)
(10.249 -14.4378 1.76934e-18)
(9.94308 -13.977 4.66261e-19)
(9.64154 -13.5268 -3.9023e-19)
(9.34571 -13.0832 9.34795e-19)
(9.05398 -12.6486 2.3115e-19)
(8.76736 -12.2245 8.31426e-19)
(8.48732 -11.8124 4.48448e-19)
(8.21504 -11.4136 2.08844e-20)
(7.95138 -11.0288 2.68854e-19)
(7.69689 -10.6584 -8.39127e-20)
(7.45183 -10.3027 1.42122e-19)
(7.21622 -9.96125 3.78713e-19)
(6.98991 -9.63374 -2.0487e-19)
(6.77266 -9.31962 4.92774e-19)
(6.56412 -9.01829 4.89644e-19)
(6.36393 -8.72915 -5.48311e-19)
(6.17174 -8.45162 5.5763e-19)
(5.98721 -8.18518 1.15069e-18)
(5.81008 -7.92941 -7.32831e-19)
(5.64013 -7.68397 7.16862e-19)
(5.47725 -7.44866 -5.00538e-19)
(5.3214 -7.22336 -6.75899e-20)
(5.17251 -7.00804 5.09694e-19)
(5.0306 -6.80253 -1.05417e-19)
(4.89657 -6.60574 3.69438e-19)
(4.77121 -6.41605 3.59182e-19)
(4.64379 -6.2394 -6.68374e-19)
(12.13 -15.3327 -1.15584e-18)
(11.2787 -15.1501 5.28526e-19)
(10.9302 -14.6666 2.06486e-19)
(10.6328 -14.1773 -2.04622e-18)
(10.3149 -13.7249 -1.02681e-18)
(10.0011 -13.2824 7.50649e-19)
(9.69301 -12.8463 -2.03671e-18)
(9.38908 -12.4188 2.40031e-18)
(9.09054 -12.0017 -1.32606e-18)
(8.79894 -11.5965 1.55764e-19)
(8.51553 -11.2044 -2.5289e-19)
(8.2412 -10.8263 -6.98495e-19)
(7.97651 -10.4625 1.42215e-18)
(7.7217 -10.1131 5.15604e-19)
(7.47678 -9.77791 -5.40696e-19)
(7.24158 -9.45644 1.36923e-20)
(7.01581 -9.14818 2.81586e-19)
(6.79911 -8.85253 -6.01302e-19)
(6.5911 -8.56888 1.26681e-19)
(6.39138 -8.29668 3.97157e-19)
(6.19961 -8.03539 -1.68303e-19)
(6.01551 -7.78459 2.60715e-19)
(5.83884 -7.54396 -5.12483e-19)
(5.66951 -7.31332 7.21506e-19)
(5.50749 -7.09257 1.58354e-19)
(5.35275 -6.88175 -4.4551e-19)
(5.20539 -6.68075 -3.72237e-19)
(5.0664 -6.48851 6.36569e-21)
(4.93662 -6.30358 5.0056e-19)
(4.80514 -6.13268 -1.11283e-19)
(12.5304 -15.0134 -3.14619e-19)
(11.6784 -14.8585 -2.10242e-18)
(11.3195 -14.3867 2.48618e-18)
(11.0101 -13.9063 1.63816e-18)
(10.6803 -13.4626 1.58508e-18)
(10.3544 -13.0283 4.15761e-19)
(10.0341 -12.5998 6.30695e-19)
(9.71815 -12.1797 3.09036e-19)
(9.40782 -11.77 -1.21587e-18)
(9.10482 -11.372 2.19039e-18)
(8.81044 -10.987 -1.69968e-18)
(8.5256 -10.6158 -1.01635e-19)
(8.25086 -10.2589 2.44537e-19)
(7.98646 -9.91613 -1.0192e-18)
(7.73238 -9.58737 8.8319e-19)
(7.48842 -9.27217 -2.66877e-19)
(7.25427 -8.96998 -6.49935e-19)
(7.02953 -8.68021 2.39592e-19)
(6.81378 -8.40226 -4.6678e-19)
(6.60663 -8.13556 -4.03016e-19)
(6.40769 -7.8796 -4.17382e-19)
(6.21666 -7.63395 9.38862e-20)
(6.0333 -7.39833 4.60531e-20)
(5.85751 -7.17253 -9.69352e-19)
(5.68928 -6.95652 -3.55155e-19)
(5.52862 -6.75039 2.33964e-19)
(5.37571 -6.55412 2.78346e-19)
(5.23166 -6.36669 -3.80872e-19)
(5.09732 -6.1868 -1.41168e-19)
(4.96174 -6.02187 1.03422e-20)
(12.9234 -14.6836 -2.91379e-19)
(12.0711 -14.5564 1.36264e-18)
(11.7018 -14.0963 -3.86533e-19)
(11.3805 -13.625 -4.69463e-19)
(11.039 -13.1903 -2.44124e-18)
(10.7012 -12.7643 -5.11792e-19)
(10.3688 -12.3438 9.68217e-19)
(10.0409 -11.9316 -6.23791e-19)
(9.71895 -11.5295 -6.23124e-20)
(9.4047 -11.139 -1.24031e-19)
(9.09952 -10.7614 6.40208e-19)
(8.80434 -10.3975 -9.96373e-19)
(8.51973 -10.0476 -6.47247e-19)
(8.24591 -9.71181 7.43131e-19)
(7.98283 -9.38975 -4.12801e-19)
(7.73027 -9.08103 -4.85184e-19)
(7.48787 -8.78511 1.02339e-18)
(7.25521 -8.50141 -1.62316e-19)
(7.03185 -8.22932 5.71625e-19)
(6.81735 -7.96829 -5.20283e-19)
(6.6113 -7.71781 -4.0582e-19)
(6.41338 -7.47749 3.50861e-19)
(6.22335 -7.24702 -4.23651e-20)
(6.04109 -7.02624 -2.50223e-19)
(5.86659 -6.81515 2.1748e-19)
(5.69993 -6.61392 -6.57039e-19)
(5.54136 -6.42263 4.00828e-19)
(5.39211 -6.2403 -6.5396e-21)
(5.25308 -6.06567 -3.98056e-19)
(5.11354 -5.90655 5.63375e-19)
(13.3095 -14.3442 1.08333e-18)
(12.4569 -14.244 -2.67351e-18)
(12.0768 -13.7955 -2.10661e-19)
(11.7438 -13.3335 1.17651e-18)
(11.3907 -12.9079 -2.90247e-19)
(11.041 -12.4907 -8.08311e-19)
(10.6967 -12.0785 3.65313e-19)
(10.357 -11.6744 4.10911e-19)
(10.0236 -11.2803 3.09295e-20)
(9.69834 -10.8977 4.83598e-19)
(9.38254 -10.5279 1.50925e-18)
(9.07722 -10.1715 -5.30974e-19)
(8.78293 -9.82898 1.24755e-19)
(8.49986 -9.50029 -3.28705e-19)
(8.22796 -9.18515 1.25799e-18)
(7.96696 -8.88312 -2.21007e-19)
(7.71647 -8.59366 7.10818e-19)
(7.47604 -8.31619 -2.70323e-19)
(7.24517 -8.05011 2.83886e-19)
(7.02341 -7.79488 4.20523e-19)
(6.81032 -7.55001 6.8548e-20)
(6.60554 -7.31511 2.70357e-19)
(6.40881 -7.08992 -2.17461e-19)
(6.22002 -6.87429 6.01569e-19)
(6.03917 -6.66831 -2.41213e-19)
(5.86638 -6.47225 8.63483e-19)
(5.70207 -6.2863 -2.49348e-19)
(5.54763 -6.10947 1.65997e-19)
(5.40408 -5.94055 -3.10055e-19)
(5.26112 -5.7884 5.43742e-19)
(13.6899 -13.9954 -2.40653e-18)
(12.8362 -13.9209 9.38641e-20)
(12.4445 -13.4839 -1.30206e-18)
(12.0996 -13.0316 2.29909e-19)
(11.735 -12.6157 6.34182e-20)
(11.3736 -12.2076 -1.05996e-18)
(11.0176 -11.8042 -1.95181e-18)
(10.6663 -11.4086 9.51981e-19)
(10.3217 -11.0228 -1.33156e-18)
(9.98552 -10.6484 -6.77744e-19)
(9.65931 -10.2865 -3.74701e-19)
(9.34405 -9.93797 -2.84595e-19)
(9.04027 -9.60306 5.01073e-22)
(8.74817 -9.28174 -1.00745e-18)
(8.46764 -8.97373 6.26751e-19)
(8.19838 -8.67858 -1.0334e-18)
(7.93997 -8.39575 -2.54801e-19)
(7.69191 -8.12465 2.69881e-19)
(7.45369 -7.8647 3.3289e-19)
(7.22478 -7.61535 3.22479e-19)
(7.00471 -7.37615 2.41982e-19)
(6.79308 -7.14671 -6.00012e-19)
(6.58957 -6.92679 5.91664e-19)
(6.39403 -6.71631 -6.42136e-20)
(6.20643 -6.51544 -1.53714e-19)
(6.02697 -6.32464 -5.94878e-19)
(5.85631 -6.14421 -3.08122e-19)
(5.69616 -5.97327 5.64997e-19)
(5.54745 -5.81183 -1.87568e-19)
(5.40055 -5.67185 -1.77281e-19)
(14.0637 -13.6353 1.06156e-18)
(13.2084 -13.5857 1.09066e-19)
(12.8045 -13.1613 -2.54196e-19)
(12.4475 -12.7197 -4.58211e-20)
(12.0716 -12.314 -4.21822e-19)
(11.6988 -11.9154 1.43384e-18)
(11.3313 -11.5211 -6.58096e-19)
(10.9687 -11.1343 4.33242e-19)
(10.613 -10.7572 1.79055e-19)
(10.2662 -10.3913 6.00124e-19)
(9.92975 -10.0377 -2.1696e-19)
(9.60475 -9.69722 1.23707e-18)
(9.29169 -9.37015 -1.03293e-19)
(8.99075 -9.05642 7.59541e-19)
(8.70179 -8.75574 -1.24617e-18)
(8.42447 -8.46764 -8.17699e-20)
(8.15834 -8.19158 7.7584e-19)
(7.90285 -7.92698 -4.70434e-19)
(7.65744 -7.67325 -3.24659e-19)
(7.42155 -7.42985 -5.46233e-19)
(7.19465 -7.1963 -4.609e-19)
(6.97626 -6.97224 5.00068e-19)
(6.76598 -6.75741 -4.49564e-19)
(6.56351 -6.55177 1.00696e-19)
(6.36866 -6.35554 3.55367e-19)
(6.18144 -6.16926 2.4016e-19)
(6.00252 -5.99332 2.19462e-19)
(5.83335 -5.8277 1.59012e-19)
(5.67363 -5.67604 -4.30978e-19)
(5.51687 -5.5523 -1.71322e-19)
(19.7019 0.303225 1.30994e-20)
(19.6954 -0.215986 1.25095e-19)
(19.6757 -0.733069 4.34737e-19)
(19.6442 -1.24836 2.35731e-19)
(19.6002 -1.762 -5.08412e-19)
(19.5432 -2.27385 1.52938e-19)
(19.473 -2.78369 -1.57524e-19)
(19.3896 -3.29125 -4.02275e-19)
(19.293 -3.79626 1.05012e-18)
(19.1833 -4.29842 -2.50761e-19)
(19.0606 -4.7974 -2.4525e-19)
(18.9249 -5.29287 -5.3344e-19)
(18.7763 -5.78453 -1.54503e-18)
(18.615 -6.27203 1.4298e-19)
(18.441 -6.75506 -5.31827e-20)
(18.2545 -7.23328 -5.07638e-19)
(18.0556 -7.70639 1.04838e-18)
(17.8445 -8.17406 5.82836e-19)
(17.6214 -8.63598 1.09784e-18)
(17.3863 -9.09185 5.33813e-19)
(17.1395 -9.54137 -1.24064e-18)
(16.8811 -9.98425 5.25047e-20)
(16.6114 -10.4202 -2.3683e-18)
(16.3305 -10.8489 3.60676e-18)
(16.0386 -11.2702 -1.17778e-18)
(15.736 -11.6838 -1.5669e-18)
(15.4229 -12.0896 -2.34105e-19)
(15.0999 -12.4873 -3.21954e-20)
(14.7661 -12.8775 -1.22955e-18)
(14.4251 -13.2588 2.15076e-18)
(19.1977 -0.269714 4.87278e-20)
(19.1759 -0.774277 6.97094e-20)
(19.1402 -1.27648 1.47219e-20)
(19.0917 -1.7765 -6.25496e-19)
(19.0305 -2.2745 -5.59965e-19)
(18.9564 -2.77033 4.92801e-19)
(18.8693 -3.2637 6.11122e-19)
(18.7693 -3.7543 3.28292e-19)