/*--------------------------------*- C++ -*----------------------------------*\
| =========                 |                                                 |
| \\      /  F ield         | OpenFOAM: The Open Source CFD Toolbox           |
|  \\    /   O peration     | Version:  v1912                                 |
|   \\  /    A nd           | Website:  www.openfoam.com                      |
|    \\/     M anipulation  |                                                 |
\*---------------------------------------------------------------------------*/
FoamFile
{
    version     2.0;
    format      ascii;
    class       volScalarField;
    location    "60.5";
    object      p;
}
// * * * * * * * * * * * * * * * * * * * * * * * * * * * * * * * * * * * * * //

dimensions      [0 2 -2 0 0 0 0];


internalField   nonuniform List<scalar> 
9600
(
-41.4874
-36.2226
-32.9958
-30.2587
-27.7534
-25.4866
-23.43
-21.5559
-19.8466
-18.2885
-16.869
-15.5762
-14.3987
-13.3257
-12.3471
-11.4536
-10.6367
-9.88837
-9.20122
-8.57304
-42.2474
-36.965
-33.7023
-30.9223
-28.3718
-26.0609
-23.963
-22.051
-20.3079
-18.7198
-17.2739
-15.9579
-14.7601
-13.6692
-12.6747
-11.767
-10.9373
-10.1772
-9.47897
-8.84151
-43.009
-37.7035
-34.4034
-31.5803
-28.9845
-26.6293
-24.4899
-22.5403
-20.7634
-19.1456
-17.6737
-16.3349
-15.117
-14.0084
-12.9983
-12.0766
-11.2342
-10.4625
-9.75314
-9.10659
-43.769
-38.4375
-35.0986
-32.2318
-29.5902
-27.1906
-25.0099
-23.0228
-21.2125
-19.5653
-18.0676
-16.7063
-15.4687
-14.3428
-13.3172
-12.3817
-11.5269
-10.7436
-10.0233
-9.36795
-44.5246
-39.1655
-35.7869
-32.8757
-30.1881
-27.744
-25.522
-23.4975
-21.6542
-19.9779
-18.4549
-17.0714
-15.8145
-14.6716
-13.631
-12.6819
-11.8149
-11.0202
-10.2891
-9.6253
-45.2735
-39.8862
-36.4672
-33.5109
-30.777
-28.2884
-26.0252
-23.9638
-22.0877
-20.3828
-18.8349
-17.4298
-16.1539
-14.9943
-13.9389
-12.9767
-12.0977
-11.2919
-10.5502
-9.87837
-46.0141
-40.598
-37.138
-34.1362
-31.3559
-28.8227
-26.5186
-24.4205
-22.5122
-20.7792
-19.2068
-17.7805
-16.4861
-15.3104
-14.2406
-13.2656
-12.3749
-11.5583
-10.8064
-10.1269
-46.7447
-41.2995
-37.7983
-34.7507
-31.9237
-29.3461
-27.0013
-24.8669
-22.9268
-21.1662
-19.5699
-18.1229
-16.8106
-15.619
-14.5354
-13.5479
-12.6461
-11.8189
-11.0571
-10.3706
-47.4641
-41.9894
-38.4467
-35.353
-32.4794
-29.8575
-27.4724
-25.3021
-23.3307
-21.543
-19.9234
-18.4563
-17.1265
-15.9197
-14.8226
-13.8232
-12.9106
-12.0733
-11.3019
-10.6091
-48.1709
-42.6666
-39.0822
-35.9422
-33.0219
-30.3559
-27.9308
-25.7252
-23.7231
-21.9089
-20.2665
-18.7798
-17.4331
-16.2115
-15.1015
-14.0907
-13.1677
-12.3209
-11.5405
-10.8419
-48.8641
-43.3299
-39.7037
-36.5172
-33.5503
-30.8405
-28.3758
-26.1354
-24.1031
-22.263
-20.5984
-19.0926
-17.7295
-16.4938
-15.3714
-14.3496
-13.4169
-12.5609
-11.7721
-11.0686
-49.5427
-43.9783
-40.3102
-37.077
-34.0637
-31.3103
-28.8065
-26.5318
-24.4698
-22.6044
-20.9182
-19.394
-18.015
-16.7656
-15.6312
-14.599
-13.6571
-12.7926
-11.996
-11.2882
-50.206
-44.611
-40.9007
-37.6208
-34.5611
-31.7645
-29.222
-26.9135
-24.8226
-22.9323
-21.2251
-19.6829
-18.2885
-17.0258
-15.88
-14.838
-13.8874
-13.0151
-12.2113
-11.5001
-50.8535
-45.2272
-41.4744
-38.1478
-35.0418
-32.2024
-29.6217
-27.2799
-25.1605
-23.246
-21.5181
-19.9583
-18.549
-17.2734
-16.1166
-15.0651
-14.1065
-13.2269
-12.4167
-11.7036
-51.4844
-45.8259
-42.0306
-38.6572
-35.5051
-32.6232
-30.0048
-27.6303
-25.4829
-23.5447
-21.7965
-20.2195
-18.7953
-17.5071
-16.3394
-15.2786
-14.3122
-13.4258
-12.6102
-11.8967
-52.0985
-46.4065
-42.5684
-39.1483
-35.9504
-33.0264
-30.3708
-27.9642
-25.7893
-23.8277
-22.0597
-20.4656
-19.0268
-17.7259
-16.5473
-15.4771
-14.5028
-13.6098
-12.789
-12.0741
-52.697
-46.9689
-43.0873
-39.6205
-36.377
-33.4114
-30.7191
-28.281
-26.0792
-24.0946
-22.3069
-20.6958
-19.2423
-17.9287
-16.7391
-15.6598
-14.678
-13.7788
-12.952
-12.2325
-53.2842
-47.5142
-43.5865
-40.0726
-36.7839
-33.7774
-31.0493
-28.5804
-26.3522
-24.345
-22.5376
-20.9094
-19.4407
-18.1137
-16.9126
-15.8238
-14.835
-13.93
-13.0983
-12.3832
-53.8621
-48.0418
-44.0643
-40.5036
-37.1709
-34.1246
-31.3617
-28.8628
-26.6089
-24.5794
-22.7525
-21.1067
-19.6218
-18.2796
-17.0643
-15.9626
-14.9618
-14.0459
-13.2129
-12.5304
-54.4091
-48.5441
-44.5198
-40.9142
-37.5392
-34.4545
-31.6578
-29.1299
-26.851
-24.7998
-22.9536
-21.29
-19.7881
-18.429
-17.1961
-16.0748
-15.0501
-14.1086
-13.2646
-12.5884
-59.8656
-59.8341
-59.7648
-59.6724
-59.556
-59.4132
-59.2436
-59.0475
-58.8256
-58.5784
-58.3064
-58.0103
-57.6906
-57.3482
-56.9836
-56.5978
-56.1919
-55.7676
-55.3278
-54.8755
-53.5166
-53.514
-53.4783
-53.4149
-53.3248
-53.2072
-53.0626
-52.8916
-52.6949
-52.4731
-52.2268
-51.9567
-51.6633
-51.3473
-51.0094
-50.6502
-50.2703
-49.8703
-49.4506
-49.0093
-48.8723
-48.8941
-48.8865
-48.8501
-48.7863
-48.6959
-48.5794
-48.4376
-48.271
-48.0802
-47.8658
-47.6284
-47.3686
-47.0868
-46.7837
-46.4595
-46.1147
-45.7492
-45.3627
-44.9535
-44.6415
-44.681
-44.6939
-44.6796
-44.6392
-44.5735
-44.4833
-44.3692
-44.2317
-44.0712
-43.8884
-43.6839
-43.4579
-43.2112
-42.944
-42.6566
-42.3492
-42.0217
-41.6739
-41.3049
-40.7295
-40.7788
-40.8043
-40.805
-40.7815
-40.7345
-40.6647
-40.5727
-40.4588
-40.3236
-40.1677
-39.9914
-39.7953
-39.5798
-39.3452
-39.0918
-38.8196
-38.5286
-38.2186
-37.8891
-37.2161
-37.2696
-37.3014
-37.3108
-37.2979
-37.2634
-37.2078
-37.1316
-37.0353
-36.9194
-36.7844
-36.6308
-36.459
-36.2693
-36.0622
-35.8379
-35.5964
-35.3376
-35.0615
-34.7674
-34.0922
-34.1457
-34.1794
-34.1925
-34.1852
-34.1579
-34.1112
-34.0456
-33.9616
-33.8596
-33.7401
-33.6036
-33.4506
-33.2815
-33.0965
-32.8961
-32.6802
-32.4488
-32.2018
-31.9384
-31.3212
-31.3718
-31.4042
-31.4176
-31.4122
-31.3884
-31.3468
-31.2877
-31.2117
-31.1193
-31.0108
-30.8869
-30.7481
-30.5947
-30.4272
-30.2459
-30.051
-29.8423
-29.6197
-29.3826
-28.8631
-28.9093
-28.9385
-28.9501
-28.9443
-28.9215
-28.8822
-28.8269
-28.7559
-28.6697
-28.569
-28.4541
-28.3258
-28.1844
-28.0305
-27.8644
-27.6865
-27.4967
-27.2946
-27.0799
-26.6782
-26.7192
-26.7443
-26.7531
-26.7456
-26.7224
-26.6837
-26.6302
-26.5621
-26.4801
-26.3846
-26.2763
-26.1557
-26.0234
-25.8801
-25.7262
-25.5622
-25.388
-25.2034
-25.0079
-24.7293
-24.765
-24.7858
-24.7912
-24.7815
-24.7569
-24.718
-24.6652
-24.5988
-24.5194
-24.4276
-24.324
-24.2092
-24.0839
-23.9489
-23.8048
-23.6522
-23.4912
-23.3218
-23.1432
-22.9835
-23.0142
-23.0307
-23.0327
-23.0205
-22.9944
-22.9547
-22.9019
-22.8365
-22.7588
-22.6696
-22.5694
-22.459
-22.3392
-22.2108
-22.0746
-21.9315
-21.782
-21.6259
-21.4626
-21.4125
-21.4386
-21.4511
-21.45
-21.4354
-21.4076
-21.367
-21.314
-21.249
-21.1726
-21.0853
-20.9877
-20.8807
-20.7651
-20.6419
-20.5122
-20.3772
-20.2374
-20.0935
-19.9444
-19.9926
-20.0145
-20.0235
-20.0195
-20.0026
-19.9733
-19.9318
-19.8785
-19.8139
-19.7383
-19.6524
-19.5569
-19.4525
-19.3402
-19.2211
-19.0967
-18.9683
-18.8371
-18.7044
-18.569
-18.7039
-18.7221
-18.7279
-18.7213
-18.7025
-18.6718
-18.6296
-18.576
-18.5116
-18.4368
-18.3521
-18.2581
-18.1558
-18.046
-17.9301
-17.8096
-17.6867
-17.5628
-17.4406
-17.3186
-17.5299
-17.5447
-17.5477
-17.5389
-17.5184
-17.4865
-17.4436
-17.3898
-17.3256
-17.2514
-17.1677
-17.0751
-16.9743
-16.8664
-16.7528
-16.6351
-16.5162
-16.398
-16.2854
-16.1767
-16.4567
-16.4686
-16.4691
-16.4583
-16.4363
-16.4034
-16.3599
-16.3059
-16.2419
-16.1682
-16.0853
-15.9936
-15.8939
-15.7872
-15.6748
-15.5586
-15.4419
-15.3276
-15.2231
-15.1262
-15.4725
-15.482
-15.4806
-15.4683
-15.4452
-15.4116
-15.3678
-15.3139
-15.2502
-15.177
-15.0947
-15.0039
-14.905
-14.7989
-14.6868
-14.5707
-14.4543
-14.3415
-14.2439
-14.1562
-14.5662
-14.5742
-14.5718
-14.559
-14.5359
-14.5027
-14.4596
-14.4067
-14.3444
-14.2729
-14.1924
-14.1035
-14.0064
-13.902
-13.791
-13.6751
-13.558
-13.4448
-13.3542
-13.2806
-13.7324
-13.7372
-13.7323
-13.7177
-13.6935
-13.6599
-13.617
-13.5651
-13.5042
-13.4347
-13.3567
-13.2704
-13.1763
-13.0746
-12.9659
-12.8511
-12.7321
-12.6142
-12.5171
-12.4679
-53.5723
-54.1478
-54.6862
-55.2095
-55.7149
-56.1964
-56.6511
-57.078
-57.476
-57.8445
-58.1826
-58.4899
-58.766
-59.0106
-59.2231
-59.4034
-59.5526
-59.6718
-59.7629
-59.8278
-47.0892
-47.6701
-48.2229
-48.7533
-49.2609
-49.7433
-50.1989
-50.6272
-51.0274
-51.3989
-51.7412
-52.054
-52.3376
-52.5926
-52.8168
-53.0097
-53.1719
-53.3039
-53.4061
-53.4772
-42.4448
-43.0134
-43.5583
-44.0799
-44.5779
-45.0518
-45.5008
-45.924
-46.321
-46.691
-47.0331
-47.3471
-47.6326
-47.8884
-48.1157
-48.3149
-48.4855
-48.6273
-48.74
-48.822
-38.3206
-38.8639
-39.3876
-39.8896
-40.3695
-40.8269
-41.2612
-41.6717
-42.0579
-42.4192
-42.7541
-43.0623
-43.3447
-43.6008
-43.8307
-44.0341
-44.2107
-44.36
-44.4819
-44.5758
-34.6427
-35.156
-35.6522
-36.1288
-36.5847
-37.0196
-37.4331
-37.8243
-38.1925
-38.5374
-38.8593
-39.158
-39.4319
-39.6813
-39.9063
-40.1065
-40.2818
-40.4318
-40.5566
-40.656
-31.444
-31.9258
-32.3922
-32.8407
-33.27
-33.6797
-34.0693
-34.4383
-34.7862
-35.1126
-35.4174
-35.7001
-35.96
-36.1971
-36.412
-36.6043
-36.7733
-36.919
-37.0415
-37.1407
-28.672
-29.123
-29.5597
-29.9798
-30.3821
-30.7659
-31.131
-31.4767
-31.8027
-32.1086
-32.3941
-32.659
-32.903
-33.1257
-33.3269
-33.5084
-33.6685
-33.8068
-33.9234
-34.0187
-26.26
-26.6821
-27.0907
-27.4838
-27.86
-28.2189
-28.5599
-28.8827
-29.1868
-29.472
-29.7381
-29.9848
-30.2121
-30.4199
-30.6081
-30.7751
-30.9246
-31.0539
-31.1629
-31.2521
-24.1492
-24.5448
-24.9277
-25.2958
-25.6479
-25.9834
-26.3018
-26.6028
-26.8861
-27.1514
-27.3988
-27.6279
-27.8389
-28.0315
-28.2057
-28.3616
-28.4979
-28.617
-28.7177
-28.7998
-22.2895
-22.6613
-23.021
-23.3665
-23.6965
-24.0105
-24.308
-24.5889
-24.8528
-25.0997
-25.3295
-25.5421
-25.7375
-25.9156
-26.0764
-26.2198
-26.3458
-26.4545
-26.5464
-26.6211
-20.6392
-20.9898
-21.3288
-21.654
-21.9641
-22.2586
-22.5371
-22.7995
-23.0456
-23.2755
-23.4891
-23.6865
-23.8675
-24.0322
-24.1805
-24.3125
-24.4282
-24.5274
-24.611
-24.6784
-19.1647
-19.4966
-19.8173
-20.1245
-20.4167
-20.6934
-20.9546
-21.2001
-21.4301
-21.6444
-21.8432
-22.0266
-22.1945
-22.3469
-22.4839
-22.6055
-22.7116
-22.8025
-22.8778
-22.9385
-17.8391
-18.1544
-18.4593
-18.7505
-19.0265
-19.2871
-19.5325
-19.7626
-19.9777
-20.1778
-20.3632
-20.5338
-20.6897
-20.8311
-20.9578
-21.0699
-21.1673
-21.2502
-21.3182
-21.3728
-16.6407
-16.9416
-17.2328
-17.5099
-17.7713
-18.0171
-18.2479
-18.4639
-18.6653
-18.8524
-19.0254
-19.1845
-19.3296
-19.4608
-19.5782
-19.6818
-19.7715
-19.8474
-19.9099
-19.9579
-15.5524
-15.841
-16.1208
-16.3852
-16.633
-16.8652
-17.0824
-17.2852
-17.4739
-17.6491
-17.8108
-17.9592
-18.0945
-18.2166
-18.3256
-18.4214
-18.5041
-18.5737
-18.6302
-18.6734
-14.5596
-14.8397
-15.1102
-15.3627
-15.5976
-15.8168
-16.0213
-16.2116
-16.3885
-16.5524
-16.7037
-16.8425
-16.9688
-17.0826
-17.184
-17.2728
-17.3492
-17.413
-17.4643
-17.5032
-13.6445
-13.9235
-14.1888
-14.4299
-14.6521
-14.8589
-15.0511
-15.2297
-15.3955
-15.5492
-15.6909
-15.8208
-15.939
-16.0453
-16.1398
-16.2224
-16.2931
-16.3518
-16.3986
-16.4335
-12.7864
-13.0697
-13.3363
-13.568
-13.7782
-13.9733
-14.1544
-14.3224
-14.4784
-14.6231
-14.7566
-14.879
-14.9903
-15.0904
-15.1792
-15.2566
-15.3226
-15.3772
-15.4204
-15.4523
-11.999
-12.2728
-12.5401
-12.7669
-12.967
-13.1508
-13.3213
-13.4798
-13.6271
-13.7639
-13.8902
-14.0062
-14.1116
-14.2064
-14.2905
-14.3638
-14.4261
-14.4775
-14.518
-14.5475
-11.4083
-11.6591
-11.8869
-12.1037
-12.2921
-12.4581
-12.6121
-12.7563
-12.8903
-13.0145
-13.1293
-13.2346
-13.3301
-13.4157
-13.4914
-13.557
-13.6124
-13.6576
-13.6925
-13.717
-6.00669
-6.49804
-7.03647
-7.61892
-8.25184
-8.9426
-9.69889
-10.5302
-11.4486
-12.4698
-13.6143
-14.909
-16.3892
-18.1012
-20.1053
-22.4808
-25.309
-28.6121
-32.6095
-38.6055
-6.27733
-6.78221
-7.33116
-7.92568
-8.57238
-9.27833
-10.0513
-10.9011
-11.8401
-12.8842
-14.0542
-15.3775
-16.8899
-18.6379
-20.6822
-23.1018
-25.9771
-29.3269
-33.3629
-39.3799
-6.54939
-7.06781
-7.6274
-8.23423
-8.89496
-9.61635
-10.4063
-11.2749
-12.2347
-13.302
-14.498
-15.8503
-17.3951
-19.1794
-21.2641
-23.7279
-26.6497
-30.0453
-34.118
-40.1515
-6.82239
-7.35429
-7.92461
-8.54395
-9.21893
-9.95597
-10.7631
-11.6507
-12.6316
-13.7223
-14.9444
-16.3259
-17.9034
-19.7243
-21.8494
-24.3573
-27.3255
-30.7667
-34.8772
-40.9319
-7.09589
-7.64119
-8.2223
-8.85437
-9.5438
-10.2967
-11.1212
-12.0279
-13.0301
-14.1444
-15.3928
-16.8037
-18.4141
-20.2716
-22.4373
-24.9892
-28.0038
-31.4905
-35.6394
-41.7186
-7.36951
-7.92809
-8.52007
-9.16506
-9.86913
-10.638
-11.4801
-12.4061
-13.4296
-14.5678
-15.8426
-17.283
-18.9264
-20.8206
-23.0269
-25.6229
-28.6836
-32.2157
-36.4028
-42.5074
-7.64294
-8.21463
-8.81752
-9.47562
-10.1945
-10.9795
-11.8392
-12.7847
-13.8298
-14.9918
-16.2932
-17.7632
-19.4396
-21.3707
-23.6176
-26.2576
-29.3642
-32.9412
-37.1659
-43.296
-7.91593
-8.50053
-9.11435
-9.78572
-10.5196
-11.3208
-12.1983
-13.1633
-14.2299
-15.4159
-16.7439
-18.2436
-19.9531
-21.921
-24.2084
-26.8922
-30.0445
-33.6659
-37.9273
-44.0828
-8.18833
-8.78558
-9.4103
-10.0951
-10.844
-11.6615
-12.5567
-13.5413
-14.6296
-15.8394
-17.1941
-18.7235
-20.466
-22.4706
-24.7985
-27.5258
-30.7234
-34.3886
-38.6859
-44.8666
-8.4601
-9.06967
-9.70522
-10.4035
-11.1675
-12.0013
-12.9143
-13.9184
-15.0282
-16.2619
-17.6431
-19.2021
-20.9776
-23.0188
-25.3868
-28.1574
-31.3997
-35.1082
-39.4403
-45.6457
-8.73134
-9.35284
-9.99906
-10.7109
-11.4899
-12.3399
-13.2706
-14.2941
-15.4253
-16.6828
-18.0904
-19.6788
-21.4871
-23.5646
-25.9725
-28.7859
-32.0724
-35.8235
-40.1893
-46.4186
-9.00235
-9.63525
-10.2919
-11.0171
-11.8111
-12.6771
-13.6252
-14.6679
-15.8204
-17.1014
-18.5352
-20.1528
-21.9936
-24.1072
-26.5546
-29.4103
-32.7403
-36.5331
-40.9315
-47.184
-9.27361
-9.91719
-10.5837
-11.3221
-12.1308
-13.0126
-13.9779
-15.0395
-16.2128
-17.5171
-18.9769
-20.6233
-22.4964
-24.6457
-27.1321
-30.0295
-33.4023
-37.2359
-41.6656
-47.9405
-9.54584
-10.1991
-10.8749
-11.626
-12.4489
-13.346
-14.328
-15.4082
-16.6021
-17.9293
-19.4146
-21.0896
-22.9944
-25.1789
-27.7039
-30.6423
-34.057
-37.9306
-42.3903
-48.6867
-9.81982
-10.4813
-11.1652
-11.9284
-12.7649
-13.6769
-14.6752
-15.7734
-16.9875
-18.3371
-19.8475
-21.5506
-23.4868
-25.706
-28.2689
-31.2475
-34.7034
-38.616
-43.1044
-49.4216
-10.0965
-10.764
-11.4546
-12.2288
-13.0783
-14.0044
-15.0185
-16.1343
-17.3681
-18.7397
-20.2748
-22.0055
-23.9725
-26.2258
-28.8259
-31.844
-35.34
-39.2907
-43.8067
-50.1442
-10.3757
-11.0461
-11.7415
-12.5259
-13.3878
-14.3277
-15.357
-16.49
-17.743
-19.1362
-20.6954
-22.4532
-24.4504
-26.7372
-29.3736
-32.4303
-35.9655
-39.9535
-44.4962
-50.8537
-10.6566
-11.3251
-12.0234
-12.8179
-13.6922
-14.6454
-15.6897
-16.8394
-18.1112
-19.5255
-21.1083
-22.8926
-24.9194
-27.2389
-29.9109
-33.0051
-36.5783
-40.6027
-45.1718
-51.5503
-10.932
-11.5926
-12.2942
-13.1012
-13.9891
-14.956
-16.0151
-17.1813
-18.4715
-19.9065
-21.5124
-23.3226
-25.3782
-27.7296
-30.4361
-33.5667
-37.1767
-41.2363
-45.8322
-52.2353
-11.1834
-11.8288
-12.5494
-13.3771
-14.2793
-15.2591
-16.3326
-17.515
-18.8232
-20.2782
-21.9067
-23.742
-25.8257
-28.208
-30.948
-34.1135
-37.7585
-41.8514
-46.4728
-52.9105
-1.58507
-1.83902
-2.18691
-2.57584
-2.99441
-3.44797
-3.94283
-4.48492
-5.08173
-5.74353
-6.48426
-7.32294
-8.28571
-9.40862
-10.7426
-12.3619
-14.3562
-16.7868
-19.9619
-25.3567
-1.73825
-2.00863
-2.37499
-2.76987
-3.19186
-3.65076
-4.15254
-4.70271
-5.30893
-5.98172
-6.73529
-7.589
-8.56941
-9.7131
-11.0715
-12.7195
-14.7468
-17.2128
-20.4202
-25.8288
-1.88577
-2.18024
-2.55975
-2.96277
-3.39251
-3.8598
-4.37052
-4.93038
-5.54739
-6.23241
-7
-7.86989
-8.86911
-10.0348
-11.4188
-13.0966
-15.1574
-17.6589
-20.8979
-26.3151
-2.05558
-2.36088
-2.7486
-3.16035
-3.59929
-4.07613
-4.59688
-5.16755
-5.79647
-6.49482
-7.27748
-8.16461
-9.18369
-10.3724
-11.7831
-13.4916
-15.587
-18.1253
-21.399
-26.8339
-2.23672
-2.54911
-2.94467
-3.36539
-3.81383
-4.30065
-4.83208
-5.41436
-6.05607
-6.76867
-7.56737
-8.4727
-9.51266
-10.7254
-12.1639
-13.9043
-16.0355
-18.6119
-21.9232
-27.3822
-2.42333
-2.74434
-3.14824
-3.57809
-4.03631
-4.53358
-5.07629
-5.67088
-6.32615
-7.05381
-7.86943
-8.79392
-9.85573
-11.0936
-12.561
-14.3344
-16.5025
-19.1185
-22.4685
-27.9546
-2.61694
-2.94747
-3.35963
-3.79862
-4.26691
-4.77506
-5.32957
-5.93707
-6.60658
-7.35007
-8.18342
-9.12795
-10.2126
-11.4765
-12.9739
-14.7815
-16.9878
-19.6443
-23.0339
-28.5487
-2.81896
-3.15897
-3.57918
-4.02731
-4.50586
-5.02521
-5.59196
-6.21289
-6.89723
-7.65723
-8.50907
-9.47447
-10.5828
-11.8739
-13.4023
-15.2451
-17.4907
-20.1888
-23.6187
-29.1636
-3.02915
-3.3787
-3.80693
-4.26424
-4.75322
-5.28405
-5.8634
-6.49822
-7.19795
-7.97507
-8.84611
-9.83316
-10.9661
-12.2852
-13.8456
-15.7247
-18.0107
-20.7513
-24.2223
-29.7981
-3.24691
-3.60633
-4.04266
-4.50926
-5.00885
-5.55143
-6.14372
-6.79286
-7.50848
-8.30332
-9.1942
-10.2036
-11.3619
-12.7099
-14.3033
-16.2197
-18.547
-21.3312
-24.8439
-30.4511
-3.47181
-3.84149
-4.28608
-4.7621
-5.2725
-5.8271
-6.43268
-7.09655
-7.82853
-8.64163
-9.55299
-10.5855
-11.77
-13.1477
-14.7749
-16.7295
-19.099
-21.9276
-25.4825
-31.1216
-3.70348
-4.0838
-4.53679
-5.02239
-5.54384
-6.11074
-6.72994
-7.40892
-8.15773
-8.98962
-9.92204
-10.9783
-12.1896
-13.5979
-15.2598
-17.2535
-19.6661
-22.5397
-26.1373
-31.8086
-3.94143
-4.33277
-4.79436
-5.28974
-5.82247
-6.40195
-7.0351
-7.72958
-8.49566
-9.34684
-10.3009
-11.3815
-12.6205
-14.06
-15.7574
-17.7911
-20.2475
-23.1669
-26.8075
-32.511
-4.18515
-4.58788
-5.05829
-5.56365
-6.10792
-6.70027
-7.3477
-8.05807
-8.84185
-9.7128
-10.689
-11.7947
-13.0618
-14.5334
-16.2671
-18.3414
-20.8424
-23.8081
-27.4921
-33.228
-4.4341
-4.84859
-5.32803
-5.84361
-6.3997
-7.00522
-7.66726
-8.39388
-9.19577
-10.087
-11.0859
-12.2171
-13.5131
-15.0174
-16.788
-18.9038
-21.4501
-24.4627
-28.1904
-33.9587
-4.68771
-5.11431
-5.60302
-6.12908
-6.69725
-7.31625
-7.99323
-8.73645
-9.55687
-10.4688
-11.4909
-12.6482
-13.9737
-15.5113
-17.3196
-19.4774
-22.0696
-25.1298
-28.9015
-34.7023
-4.94544
-5.38447
-5.88268
-6.41948
-7.00003
-7.6328
-8.32504
-9.08523
-9.92455
-10.8576
-11.9034
-13.0872
-14.4428
-16.0144
-17.8609
-20.0614
-22.7001
-25.8083
-29.6245
-35.4583
-5.20673
-5.65849
-6.16643
-6.71424
-7.30746
-7.95431
-8.66212
-9.43961
-10.2982
-11.2527
-12.3226
-13.5336
-14.9197
-16.5258
-18.4111
-20.6549
-23.3405
-26.4972
-30.3586
-36.2262
-5.47105
-5.93579
-6.45369
-7.01278
-7.61896
-8.28017
-9.00386
-9.79898
-10.6772
-11.6536
-12.7481
-13.9866
-15.4037
-17.0447
-18.9693
-21.2568
-23.9898
-27.1954
-31.1028
-37.0067
-5.73787
-6.21583
-6.7439
-7.31455
-7.93397
-8.60983
-9.34969
-10.1628
-11.0609
-12.0596
-13.1789
-14.4454
-15.894
-17.5704
-19.5347
-21.8661
-24.6467
-27.901
-31.8543
-37.8005
-1.33729
-1.13058
-0.976808
-0.840083
-0.720019
-0.614074
-0.521135
-0.440409
-0.371393
-0.31373
-0.267153
-0.23145
-0.206452
-0.192022
-0.188022
-0.19424
-0.210461
-0.236812
-0.273479
-0.320237
-1.66711
-1.48368
-1.32593
-1.18397
-1.05908
-0.948664
-0.851757
-0.767557
-0.695549
-0.635357
-0.586698
-0.549351
-0.523131
-0.50789
-0.503481
-0.509733
-0.526488
-0.553761
-0.591641
-0.639804
-1.99959
-1.82404
-1.66631
-1.52321
-1.39618
-1.28359
-1.18472
-1.0989
-1.02566
-0.964632
-0.915541
-0.878166
-0.852323
-0.837854
-0.83461
-0.842439
-0.861223
-0.890908
-0.931356
-0.982814
-2.38327
-2.20605
-2.04528
-1.89922
-1.76862
-1.65252
-1.55044
-1.46183
-1.38628
-1.32345
-1.27307
-1.23491
-1.20879
-1.19453
-1.19199
-1.20101
-1.22148
-1.25332
-1.2964
-1.35078
-2.80194
-2.62226
-2.45752
-2.30751
-2.17269
-2.05253
-1.94671
-1.85481
-1.77647
-1.7114
-1.65932
-1.62002
-1.59331
-1.57902
-1.57697
-1.58704
-1.60909
-1.64301
-1.68869
-1.74611
-3.25314
-3.07023
-2.90131
-2.74697
-2.60769
-2.48327
-2.37351
-2.27811
-2.19679
-2.12929
-2.07536
-2.03479
-2.0074
-1.993
-1.99144
-2.00257
-2.02625
-2.06235
-2.11075
-2.17138
-3.74304
-3.55541
-3.38157
-3.2223
-3.07812
-2.94904
-2.83498
-2.73576
-2.65114
-2.58093
-2.52489
-2.48284
-2.45458
-2.43995
-2.43878
-2.45093
-2.47624
-2.51458
-2.56579
-2.62985
-4.27844
-4.08459
-3.90475
-3.73968
-3.5899
-3.45554
-3.33664
-3.23308
-3.14471
-3.07135
-3.01282
-2.96894
-2.93953
-2.92442
-2.92345
-2.93647
-2.96333
-3.00387
-3.05794
-3.12551
-4.86703
-4.66551
-4.47844
-4.3065
-4.15019
-4.00976
-3.88527
-3.7767
-3.68395
-3.60688
-3.54534
-3.49916
-3.46818
-3.45224
-3.45118
-3.46484
-3.49306
-3.53569
-3.59256
-3.66366
-5.51894
-5.3082
-5.11247
-4.93237
-4.76841
-4.62085
-4.48984
-4.37538
-4.27744
-4.19591
-4.13066
-4.08156
-4.04845
-4.03118
-4.02958
-4.04351
-4.0728
-4.11728
-4.17678
-4.25132
-6.24792
-6.02614
-5.82008
-5.63028
-5.45724
-5.30125
-5.16249
-5.04102
-4.93683
-4.84985
-4.77999
-4.72712
-4.6911
-4.67179
-4.66903
-4.68267
-4.71255
-4.75847
-4.82027
-4.898
-7.07269
-6.83775
-6.61935
-6.41795
-6.23406
-6.06798
-5.91992
-5.78997
-5.67815
-5.58444
-5.50875
-5.45098
-5.41101
-5.38869
-5.38388
-5.39643
-5.42616
-5.47287
-5.53641
-5.61684
-8.01898
-7.76835
-7.53516
-7.31984
-7.12288
-6.94461
-6.78526
-6.64495
-6.52373
-6.4216
-6.33849
-6.27432
-6.22897
-6.20232
-6.19422
-6.20453
-6.23306
-6.27959
-6.34397
-6.42631
-9.12234
-8.85294
-8.60197
-8.36984
-8.15707
-7.96398
-7.79083
-7.63776
-7.50485
-7.3921
-7.29949
-7.22693
-7.17433
-7.14156
-7.12848
-7.13495
-7.16078
-7.20574
-7.26963
-7.35266
-10.4331
-10.1412
-9.86879
-9.61633
-9.38434
-9.17316
-8.98307
-8.81422
-8.66671
-8.54056
-8.43576
-8.35223
-8.28989
-8.24862
-8.2283
-8.22876
-8.24983
-8.29123
-8.35275
-8.43467
-12.0248
-11.706
-11.4079
-11.1309
-10.8756
-10.6424
-10.4316
-10.2433
-10.0776
-9.93458
-9.81422
-9.71646
-9.64122
-9.5884
-9.55786
-9.54946
-9.563
-9.59819
-9.65479
-9.73308
-13.9867
-13.6363
-13.3078
-13.0017
-12.7188
-12.4593
-12.2235
-12.0117
-11.8239
-11.6602
-11.5205
-11.4049
-11.3132
-11.2454
-11.2012
-11.1807
-11.1836
-11.2097
-11.2586
-11.3303
-16.3805
-15.9945
-15.6314
-15.2923
-14.9779
-14.6885
-14.4243
-14.1856
-13.9723
-13.7845
-13.6223
-13.4855
-13.3743
-13.2884
-13.2278
-13.1923
-13.1819
-13.1963
-13.2353
-13.2979
-19.517
-19.0912
-18.6892
-18.3136
-17.9646
-17.6424
-17.347
-17.0782
-16.8361
-16.6208
-16.4322
-16.2702
-16.135
-16.0263
-15.9442
-15.8884
-15.8589
-15.8561
-15.8796
-15.9275
-24.8537
-24.3829
-23.9464
-23.5413
-23.1655
-22.8179
-22.4981
-22.2061
-21.9417
-21.7049
-21.4959
-21.3146
-21.1612
-21.0357
-20.9382
-20.8688
-20.8282
-20.8186
-20.8415
-20.8866
-0.377
-0.443445
-0.519534
-0.605185
-0.700313
-0.804813
-0.918555
-1.04137
-1.17306
-1.31334
-1.46184
-1.61803
-1.78112
-1.94988
-2.12266
-2.29718
-2.46897
-2.62822
-2.75955
-2.88939
-0.698445
-0.767168
-0.845899
-0.934523
-1.03294
-1.14102
-1.25861
-1.38552
-1.52152
-1.66631
-1.81946
-1.98043
-2.14845
-2.32234
-2.5005
-2.68127
-2.86289
-3.03762
-3.19026
-3.36257
-1.04496
-1.11753
-1.20048
-1.29368
-1.397
-1.51029
-1.6334
-1.76611
-1.90816
-2.05921
-2.21885
-2.38652
-2.56146
-2.74264
-2.92872
-3.11849
-3.31099
-3.50185
-3.68533
-3.89139
-1.41634
-1.49278
-1.58
-1.67786
-1.78624
-1.90495
-2.03382
-2.17261
-2.32105
-2.47878
-2.64537
-2.82027
-3.00276
-3.19194
-3.38674
-3.58628
-3.78977
-3.9949
-4.20215
-4.43191
-1.81521
-1.89565
-1.98734
-2.09012
-2.20384
-2.32831
-2.46334
-2.60866
-2.76399
-2.92896
-3.10314
-3.28601
-3.47689
-3.67503
-3.87959
-4.08998
-4.30557
-4.52533
-4.75189
-4.99842
-2.24431
-2.32905
-2.42555
-2.53363
-2.65312
-2.78384
-2.92556
-3.07802
-3.24091
-3.41388
-3.59649
-3.78825
-3.98858
-4.19681
-4.41234
-4.63474
-4.86363
-5.09878
-5.34296
-5.604
-2.70682
-2.79608
-2.8977
-3.01146
-3.13717
-3.27464
-3.42362
-3.58385
-3.75503
-3.93679
-4.12873
-4.33039
-4.54124
-4.76074
-4.98843
-5.22401
-5.46727
-5.71841
-5.97967
-6.25546
-3.20652
-3.30067
-3.40771
-3.5275
-3.65985
-3.80454
-3.96135
-4.13
-4.31019
-4.50157
-4.70375
-4.91631
-5.13879
-5.37073
-5.61177
-5.86168
-6.12036
-6.38816
-6.66663
-6.95824
-3.74898
-3.84803
-3.9607
-4.0868
-4.22615
-4.37854
-4.54371
-4.7214
-4.91131
-5.11312
-5.32644
-5.5509
-5.78608
-6.03161
-6.28716
-6.55256
-6.82775
-7.11302
-7.40936
-7.71816
-4.3409
-4.44491
-4.56341
-4.69601
-4.84265
-5.0031
-5.1771
-5.36439
-5.56469
-5.77766
-6.00297
-6.24027
-6.48918
-6.74937
-7.02057
-7.30258
-7.59537
-7.89908
-8.21429
-8.54178
-4.99168
-5.10058
-5.22471
-5.36402
-5.51811
-5.68687
-5.87005
-6.06738
-6.27859
-6.50337
-6.74141
-6.99237
-7.25592
-7.53176
-7.81962
-8.11932
-8.43077
-8.75398
-9.0892
-9.43691
-5.71424
-5.82773
-5.95739
-6.10305
-6.26461
-6.44172
-6.63421
-6.84184
-7.06431
-7.30135
-7.55266
-7.81794
-8.09688
-8.38918
-8.69458
-9.0129
-9.34398
-9.6877
-10.0441
-10.4135
-6.52671
-6.64415
-6.77882
-6.93044
-7.09893
-7.28438
-7.48611
-7.70389
-7.93764
-8.1871
-8.45196
-8.73194
-9.02673
-9.33604
-9.65964
-9.99729
-10.3488
-10.7139
-11.0925
-11.4848
-7.45494
-7.57526
-7.71396
-7.87077
-8.04547
-8.23804
-8.44928
-8.67642
-8.9211
-9.18268
-9.46092
-9.75554
-10.0663
-10.3928
-10.7349
-11.0922
-11.4646
-11.8517
-12.2531
-12.6693
-8.53712
-8.65862
-8.79974
-8.96027
-9.14003
-9.33856
-9.55539
-9.79276
-10.0481
-10.3208
-10.6116
-10.9203
-11.2467
-11.5902
-11.9506
-12.3275
-12.7208
-13.1298
-13.5544
-13.9948
-9.83318
-9.95332
-10.0944
-10.2564
-10.439
-10.642
-10.8649
-11.1077
-11.3706
-11.6542
-11.9569
-12.279
-12.62
-12.9794
-13.3568
-13.7522
-14.1654
-14.5959
-15.043
-15.5071
-11.4247
-11.5403
-11.6785
-11.8392
-12.022
-12.2267
-12.4531
-12.7009
-12.9701
-13.2607
-13.5735
-13.9073
-14.2603
-14.6318
-15.023
-15.4344
-15.8656
-16.3158
-16.7839
-17.2699
-13.3825
-13.4905
-13.6227
-13.7788
-13.9575
-14.1592
-14.3841
-14.6321
-14.9028
-15.1958
-15.5103
-15.8467
-16.2066
-16.5906
-16.9969
-17.4242
-17.8722
-18.3403
-18.8278
-19.3336
-15.9977
-16.0896
-16.2057
-16.3471
-16.5154
-16.7098
-16.9294
-17.1739
-17.443
-17.7361
-18.0528
-18.3928
-18.7562
-19.1436
-19.555
-19.9896
-20.4473
-20.9287
-21.4339
-21.9578
-20.9283
-21.0007
-21.104
-21.2359
-21.3952
-21.5814
-21.7938
-22.0321
-22.2959
-22.585
-22.8991
-23.2381
-23.6022
-23.9918
-24.4068
-24.8473
-25.3144
-25.8119
-26.3424
-26.8881
-27.4049
-22.4923
-19.8572
-17.7738
-15.988
-14.4508
-13.1001
-11.8908
-10.7958
-9.79703
-8.88147
-8.03937
-7.26313
-6.54652
-5.88436
-5.27211
-4.70452
-4.17601
-3.69507
-3.29067
-27.9496
-23.0431
-20.3964
-18.2928
-16.4831
-14.9203
-13.5435
-12.3087
-11.1895
-10.168
-9.23168
-8.37088
-7.57815
-6.84741
-6.17364
-5.55241
-4.97898
-4.45098
-3.98153
-3.57905
-28.5228
-23.6128
-20.9529
-18.8279
-16.9931
-15.4034
-13.9995
-12.7383
-11.5939
-10.5492
-9.59149
-8.71149
-7.90177
-7.15627
-6.46994
-5.83826
-5.25661
-4.72271
-4.24613
-3.82413
-29.1205
-24.202
-21.5266
-19.3788
-17.5172
-15.8994
-14.4673
-13.1787
-12.0084
-10.9395
-9.9598
-9.05987
-8.2323
-7.47094
-6.77051
-6.12623
-5.53323
-4.98857
-4.49899
-4.05826
-29.7394
-24.8102
-22.1169
-19.9449
-18.055
-16.4077
-14.9462
-13.6292
-12.4321
-11.3383
-10.3358
-9.41514
-8.56893
-7.7908
-7.07521
-6.41709
-5.81126
-5.2542
-4.75082
-4.29395
-30.3781
-25.4377
-22.7218
-20.5251
-18.6057
-16.9274
-15.4353
-14.089
-12.8641
-11.7447
-10.7186
-9.77665
-8.9111
-8.11548
-7.384
-6.71132
-6.09202
-5.52223
-5.00557
-4.53461
-31.0354
-26.0832
-23.3411
-21.1186
-19.1683
-17.4578
-15.9341
-14.5574
-13.304
-12.1581
-11.1078
-10.1439
-9.25848
-8.4449
-7.69713
-7.00959
-6.37671
-5.79439
-5.26515
-4.7815
-31.7101
-26.7445
-23.9745
-21.7244
-19.742
-17.9982
-16.4416
-15.0336
-13.7508
-12.5778
-11.5028
-10.5164
-9.61076
-8.77891
-8.01465
-7.31217
-6.66578
-6.0712
-5.52996
-5.03454
-32.4007
-27.4203
-24.6212
-22.3418
-20.326
-18.5475
-16.9572
-15.5168
-14.204
-13.0032
-11.903
-10.8938
-9.96761
-9.1173
-8.33645
-7.61905
-6.95929
-6.35269
-5.79984
-5.29324
-33.1059
-28.1094
-25.2802
-22.9698
-20.9192
-19.105
-17.4798
-16.0064
-14.6627
-13.4337
-12.3079
-11.2755
-10.3286
-9.45972
-8.66225
-7.92997
-7.25694
-6.63848
-6.07429
-5.55687
-33.8247
-28.8106
-25.9504
-23.6075
-21.5208
-19.6697
-18.0087
-16.5015
-15.1264
-13.8686
-12.7167
-11.6611
-10.6932
-9.80571
-8.99161
-8.2445
-7.55827
-6.92804
-6.35264
-5.82463
-34.5559
-29.5229
-26.6307
-24.2538
-22.1296
-20.2406
-18.543
-17.0012
-15.5941
-14.3072
-13.129
-12.0498
-11.061
-10.1547
-9.32402
-8.56209
-7.86272
-7.22075
-6.63421
-6.09575
-35.2983
-30.2451
-27.3198
-24.9075
-22.7448
-20.8169
-19.0817
-17.5046
-16.0651
-14.7487
-13.544
-12.4411
-11.4311
-10.5062
-9.65886
-8.88215
-8.16964
-7.51593
-6.91826
-6.36944
-36.0509
-30.976
-28.0166
-25.5677
-23.3652
-21.3974
-19.6239
-18.011
-16.5385
-15.1923
-13.9609
-12.8342
-11.8031
-10.8595
-9.99551
-9.20403
-8.47838
-7.8129
-7.20409
-6.64498
-36.8125
-31.7144
-28.7199
-26.233
-23.9897
-21.9811
-20.1686
-18.5193
-17.0135
-15.6373
-14.379
-13.2284
-12.1762
-11.2139
-10.3333
-9.52707
-8.78829
-8.111
-7.49101
-6.92169
-37.5819
-32.459
-29.4284
-26.9022
-24.6171
-22.5668
-20.7147
-19.0286
-17.4892
-16.0828
-14.7975
-13.623
-12.5497
-11.5687
-10.6716
-9.85061
-9.0987
-8.40958
-7.77838
-7.19891
-38.3587
-33.2086
-30.1406
-27.5742
-25.2461
-23.1535
-21.2611
-19.5378
-17.9647
-16.5279
-15.2156
-14.0173
-12.9229
-11.9232
-11.0096
-10.174
-9.40897
-8.70799
-8.06557
-7.47604
-39.1442
-33.9628
-30.8552
-28.2472
-25.8754
-23.7397
-21.8067
-20.0459
-18.4388
-16.9716
-15.6325
-14.4103
-13.295
-12.2768
-11.3468
-10.4965
-9.71845
-9.00562
-8.35198
-7.75253
-39.9387
-34.7203
-31.5702
-28.9195
-26.5035
-24.3244
-22.3504
-20.552
-18.9108
-17.4133
-16.0473
-14.8015
-13.6653
-12.6287
-11.6824
-10.8176
-10.0265
-9.30187
-8.63704
-8.02785
-40.7294
-35.4761
-32.284
-29.5903
-27.1298
-24.907
-22.8918
-21.0556
-19.3803
-17.8525
-16.4597
-15.1903
-14.0334
-12.9785
-12.016
-11.1368
-10.3328
-9.59628
-8.92029
-8.30154
-6.78031
-4.67437
-3.31419
-2.26869
-1.53418
-0.994703
-0.607202
-0.332092
-0.141055
-0.0123514
0.070643
0.120559
0.146979
0.15706
0.156116
0.148017
0.135578
0.120799
0.105089
0.0894158
0.0744235
0.0605231
0.047951
0.0368269
0.0271721
0.0189662
0.0121156
0.00655525
0.00211572
-0.00123215
-0.00375118
-0.00533381
-0.00642795
-0.00662302
-0.00675424
-0.00582549
-0.00541566
-0.00349597
-0.00295118
3.76391e-05
-7.03599
-4.85675
-3.46044
-2.38385
-1.62523
-1.06834
-0.66727
-0.381714
-0.182434
-0.0471078
0.041308
0.0957239
0.125925
0.139209
0.140994
0.13523
0.12479
0.111724
0.0974818
0.0830623
0.0691402