/*--------------------------------*- C++ -*----------------------------------*\
| =========                 |                                                 |
| \\      /  F ield         | OpenFOAM: The Open Source CFD Toolbox           |
|  \\    /   O peration     | Version:  v1912                                 |
|   \\  /    A nd           | Website:  www.openfoam.com                      |
|    \\/     M anipulation  |                                                 |
\*---------------------------------------------------------------------------*/
FoamFile
{
    version     2.0;
    format      ascii;
    class       volScalarField;
    location    "19";
    object      p;
}
// * * * * * * * * * * * * * * * * * * * * * * * * * * * * * * * * * * * * * //

dimensions      [0 2 -2 0 0 0 0];


internalField   nonuniform List<scalar> 
9600
(
-41.0988
-35.8099
-32.5591
-29.7983
-27.276
-24.9987
-22.9372
-21.0631
-19.3578
-17.807
-16.3974
-15.1164
-13.9522
-12.8936
-11.9302
-11.0523
-10.2515
-9.51944
-8.84865
-8.23703
-41.81
-36.5054
-33.221
-30.42
-27.8555
-25.5369
-23.4367
-21.5273
-19.7905
-18.2119
-16.7778
-15.4754
-14.2924
-13.2173
-12.2392
-11.3484
-10.5357
-9.79289
-9.11185
-8.49178
-42.5234
-37.1974
-33.878
-31.0367
-28.4296
-26.0696
-23.9308
-21.9862
-20.2181
-18.6119
-17.1537
-15.8301
-14.6287
-13.5373
-12.5448
-11.641
-10.8168
-10.0632
-9.37195
-8.7436
-43.2358
-37.8855
-34.5297
-31.6474
-28.9976
-26.596
-24.4185
-22.439
-20.6399
-19.0063
-17.5243
-16.1799
-14.9603
-13.8529
-12.8462
-11.9298
-11.0941
-10.3299
-9.62855
-8.99218
-43.9443
-38.5684
-35.1752
-32.2513
-29.5584
-27.1151
-24.8991
-22.8849
-21.055
-19.3945
-17.8889
-16.5241
-15.2866
-14.1636
-13.143
-12.2142
-11.3672
-10.5926
-9.88131
-9.23725
-44.647
-39.2446
-35.8134
-32.8474
-30.111
-27.6261
-25.3717
-23.3229
-21.4626
-19.7756
-18.247
-16.8621
-15.6072
-14.4688
-13.4347
-12.4937
-11.6358
-10.8509
-10.1299
-9.47854
-45.3423
-39.9129
-36.4432
-33.4344
-30.6545
-28.1279
-25.8353
-23.7524
-21.8621
-20.1489
-18.5977
-17.1933
-15.9212
-14.7679
-13.7206
-12.7679
-11.8993
-11.1045
-10.374
-9.7158
-46.0285
-40.5718
-37.0633
-34.0115
-31.1879
-28.6197
-26.2891
-24.1724
-22.2525
-20.5137
-18.9403
-17.5168
-16.2282
-15.0604
-14.0003
-13.0362
-12.1573
-11.3528
-10.6133
-9.94872
-46.7045
-41.2202
-37.6726
-34.5776
-31.7102
-29.1006
-26.7322
-24.5821
-22.6331
-20.8692
-19.2742
-17.8321
-16.5273
-15.3455
-14.2731
-13.298
-12.4093
-11.5955
-10.8472
-10.177
-47.3691
-41.8569
-38.2701
-35.1315
-32.2204
-29.5695
-27.1638
-24.9808
-23.0031
-21.2146
-19.5985
-18.1383
-16.8179
-15.6225
-14.5383
-13.5527
-12.6546
-11.832
-11.0755
-10.4001
-48.0213
-42.481
-38.8548
-35.6725
-32.7176
-30.0257
-27.583
-25.3674
-23.3617
-21.5491
-19.9125
-18.4347
-17.0992
-15.8907
-14.7951
-13.7995
-12.8924
-12.0616
-11.2973
-10.6176
-48.6602
-43.0914
-39.4256
-36.1995
-33.201
-30.4683
-27.989
-25.7414
-23.7081
-21.872
-20.2153
-18.7204
-17.3703
-16.1492
-15.0426
-14.0375
-13.1221
-12.2834
-11.512
-10.8285
-49.285
-43.6873
-39.9817
-36.7117
-33.6696
-30.8964
-28.3809
-26.1018
-24.0415
-22.1823
-20.5061
-18.9945
-17.6302
-16.397
-15.2799
-14.2658
-13.3425
-12.4966
-11.7187
-11.0323
-49.8954
-44.2681
-40.5224
-37.2084
-34.1228
-31.3094
-28.7581
-26.448
-24.3611
-22.4794
-20.784
-19.2562
-17.878
-16.6329
-15.5057
-14.4829
-13.5523
-12.6999
-11.9161
-11.2282
-50.4906
-44.8328
-41.0469
-37.6888
-34.5599
-31.7066
-29.12
-26.7793
-24.6663
-22.7625
-21.0483
-19.5045
-18.1126
-16.8558
-15.7186
-14.6874
-13.7496
-12.891
-12.1024
-11.4142
-51.0704
-45.3808
-41.5544
-38.1523
-34.9803
-32.0874
-29.466
-27.0953
-24.9567
-23.031
-21.2983
-19.7387
-18.3333
-17.0648
-15.9175
-14.8777
-13.9327
-13.0681
-12.2747
-11.5855
-51.636
-45.9119
-42.0444
-38.5982
-35.3832
-32.4513
-29.7956
-27.3953
-25.2315
-23.2845
-21.5334
-19.958
-18.539
-17.2587
-16.1013
-15.0531
-14.1013
-13.2309
-12.432
-11.7386
-52.1917
-46.4274
-42.516
-39.0254
-35.7679
-32.7975
-30.1082
-27.679
-25.4906
-23.5225
-21.7532
-20.1618
-18.7287
-17.436
-16.2679
-15.2109
-14.2525
-13.3769
-12.5733
-11.8842
-52.7397
-46.9266
-42.9676
-39.4328
-36.1339
-33.1261
-30.4041
-27.9469
-25.7345
-23.7456
-21.9581
-20.3503
-18.9022
-17.5954
-16.4141
-15.3451
-14.3755
-13.4896
-12.6845
-12.0259
-53.2582
-47.402
-43.3984
-39.8211
-36.4824
-33.4386
-30.685
-28.2006
-25.9648
-23.9556
-22.1501
-20.5258
-19.0619
-17.7394
-16.5418
-15.4545
-14.4627
-13.5527
-12.7375
-12.0844
-58.4294
-58.3994
-58.3331
-58.2451
-58.1345
-57.9988
-57.8375
-57.6512
-57.4403
-57.2054
-56.947
-56.6658
-56.3623
-56.0373
-55.6915
-55.3258
-54.9414
-54.5399
-54.1242
-53.6976
-52.1145
-52.1124
-52.0786
-52.0186
-51.9331
-51.8216
-51.6842
-51.5217
-51.3348
-51.1241
-50.8901
-50.6336
-50.3551
-50.0553
-49.7348
-49.3942
-49.0344
-48.6557
-48.2588
-47.8415
-47.525
-47.5462
-47.5393
-47.505
-47.4445
-47.3586
-47.2479
-47.113
-46.9546
-46.7733
-46.5696
-46.3441
-46.0973
-45.8299
-45.5422
-45.2348
-44.9081
-44.5619
-44.1961
-43.8088
-43.3572
-43.3952
-43.4078
-43.3945
-43.3561
-43.2936
-43.2079
-43.0993
-42.9684
-42.8157
-42.6419
-42.4474
-42.2326
-41.9982
-41.7445
-41.4718
-41.1802
-40.8698
-40.5403
-40.1909
-39.5124
-39.5597
-39.5841
-39.585
-39.5626
-39.5178
-39.4513
-39.3636
-39.255
-39.1263
-38.9777
-38.8099
-38.6233
-38.4183
-38.1953
-37.9545
-37.6961
-37.42
-37.1261
-36.8138
-36.0652
-36.1164
-36.1469
-36.1559
-36.1436
-36.1105
-36.0574
-35.9846
-35.8927
-35.7821
-35.6533
-35.5068
-35.343
-35.1624
-34.9652
-34.7518
-34.5222
-34.2765
-34.0143
-33.7353
-33.0043
-33.0554
-33.0876
-33.1002
-33.0931
-33.0669
-33.0222
-32.9594
-32.879
-32.7815
-32.6673
-32.5369
-32.3908
-32.2294
-32.0531
-31.8621
-31.6565
-31.4364
-31.2015
-30.9513
-30.2923
-30.3407
-30.3716
-30.3844
-30.3791
-30.3562
-30.3162
-30.2596
-30.1867
-30.0981
-29.9943
-29.8757
-29.7429
-29.5963
-29.4363
-29.2632
-29.0773
-28.8784
-28.6665
-28.4409
-27.8893
-27.9335
-27.9614
-27.9725
-27.9668
-27.9448
-27.907
-27.8537
-27.7855
-27.7028
-27.6062
-27.4961
-27.3731
-27.2377
-27.0904
-26.9316
-26.7615
-26.5802
-26.3875
-26.1827
-25.7562
-25.7955
-25.8195
-25.8278
-25.8204
-25.7979
-25.7607
-25.7091
-25.6436
-25.5647
-25.4729
-25.3689
-25.2531
-25.1262
-24.9887
-24.8412
-24.6841
-24.5174
-24.341
-24.1542
-23.8563
-23.8905
-23.9103
-23.9154
-23.9058
-23.882
-23.8444
-23.7934
-23.7294
-23.653
-23.5645
-23.4648
-23.3544
-23.2339
-23.1042
-22.9658
-22.8192
-22.6648
-22.5025
-22.3314
-22.1571
-22.1864
-22.2022
-22.204
-22.192
-22.1666
-22.1282
-22.0772
-22.014
-21.939
-21.853
-21.7564
-21.65
-21.5345
-21.4108
-21.2797
-21.142
-20.9981
-20.8482
-20.6913
-20.6307
-20.6556
-20.6675
-20.6663
-20.6519
-20.6249
-20.5855
-20.5342
-20.4714
-20.3975
-20.313
-20.2188
-20.1154
-20.0038
-19.8849
-19.7598
-19.6294
-19.4947
-19.3559
-19.2123
-19.2537
-19.2746
-19.2831
-19.279
-19.2625
-19.2339
-19.1936
-19.1419
-19.0792
-19.006
-18.9229
-18.8304
-18.7294
-18.6207
-18.5056
-18.3852
-18.2609
-18.134
-18.0056
-17.8746
-18.0063
-18.0236
-18.029
-18.0225
-18.004
-17.9741
-17.9329
-17.8809
-17.8183
-17.7457
-17.6636
-17.5725
-17.4733
-17.3669
-17.2546
-17.1378
-17.0185
-16.8982
-16.7794
-16.6608
-16.8722
-16.8863
-16.889
-16.8802
-16.8601
-16.8289
-16.787
-16.7347
-16.6723
-16.6002
-16.5188
-16.4289
-16.331
-16.2263
-16.1159
-16.0016
-15.8859
-15.7708
-15.6608
-15.5545
-15.8376
-15.8488
-15.8491
-15.8383
-15.8167
-15.7845
-15.742
-15.6894
-15.6271
-15.5553
-15.4746
-15.3854
-15.2885
-15.1847
-15.0754
-14.9623
-14.8486
-14.7369
-14.6342
-14.5387
-14.8906
-14.8995
-14.8979
-14.8856
-14.863
-14.8301
-14.7872
-14.7345
-14.6723
-14.601
-14.5208
-14.4323
-14.336
-14.2327
-14.1237
-14.0105
-13.8969
-13.7865
-13.6899
-13.6027
-14.0201
-14.0277
-14.0251
-14.0124
-13.9896
-13.957
-13.9147
-13.863
-13.8021
-13.7322
-13.6537
-13.567
-13.4724
-13.3706
-13.2624
-13.1495
-13.0352
-12.9244
-12.834
-12.7596
-13.2209
-13.2253
-13.2202
-13.2057
-13.1818
-13.1487
-13.1066
-13.0557
-12.9961
-12.928
-12.8517
-12.7675
-12.6756
-12.5763
-12.4702
-12.3583
-12.2423
-12.1272
-12.0308
-11.9791
-52.4128
-52.9606
-53.4728
-53.9713
-54.4533
-54.9128
-55.3469
-55.7547
-56.1351
-56.4874
-56.8108
-57.1048
-57.3691
-57.6035
-57.8076
-57.9811
-58.1248
-58.2397
-58.328
-58.3916
-45.9719
-46.5255
-47.0523
-47.558
-48.0422
-48.5025
-48.9375
-49.3465
-49.7289
-50.084
-50.4112
-50.7103
-50.9813
-51.2246
-51.4396
-51.6251
-51.781
-51.9081
-52.0067
-52.0757
-41.3846
-41.9266
-42.4462
-42.9437
-43.4188
-43.871
-44.2995
-44.7036
-45.0827
-45.4364
-45.7634
-46.0637
-46.337
-46.5825
-46.7999
-46.9904
-47.1538
-47.2897
-47.3978
-47.4766
-37.3196
-37.8377
-38.3372
-38.8162
-39.2741
-39.7106
-40.1252
-40.5173
-40.8861
-41.2312
-41.5515
-41.8461
-42.1162
-42.3612
-42.5809
-42.7753
-42.9443
-43.0873
-43.2041
-43.2941
-33.6975
-34.1871
-34.6605
-35.1153
-35.5506
-35.9658
-36.3606
-36.7343
-37.0862
-37.4157
-37.7233
-38.009
-38.271
-38.5094
-38.7246
-38.9161
-39.0838
-39.2274
-39.3469
-39.442
-30.5486
-31.0083
-31.4535
-31.8818
-32.2918
-32.6832
-33.0555
-33.4081
-33.7407
-34.0527
-34.3443
-34.6147
-34.8633
-35.0901
-35.2958
-35.4798
-35.6416
-35.781
-35.8981
-35.9931
-27.8206
-28.2512
-28.6684
-29.0698
-29.4542
-29.8212
-30.1702
-30.5009
-30.8127
-31.1054
-31.3787
-31.6323
-31.8658
-32.079
-32.2715
-32.4454
-32.5988
-32.7311
-32.8428
-32.934
-25.4482
-25.8514
-26.242
-26.6179
-26.9778
-27.3211
-27.6474
-27.9564
-28.2476
-28.5207
-28.7755
-29.012
-29.2298
-29.4289
-29.6092
-29.7691
-29.9124
-30.0363
-30.1407
-30.2262
-23.3737
-23.752
-24.1183
-24.4705
-24.8076
-25.1288
-25.4338
-25.7222
-25.9936
-26.248
-26.4852
-26.7049
-26.9072
-27.092
-27.2591
-27.4085
-27.5392
-27.6535
-27.75
-27.8287
-21.5482
-21.904
-22.2483
-22.5792
-22.8954
-23.1964
-23.4817
-23.751
-24.0042
-24.2411
-24.4617
-24.6657
-24.8533
-25.0243
-25.1787
-25.3164
-25.4374
-25.5416
-25.6299
-25.7015
-19.9307
-20.2665
-20.5913
-20.9031
-21.2005
-21.483
-21.7503
-22.0023
-22.2387
-22.4595
-22.6647
-22.8544
-23.0283
-23.1866
-23.3292
-23.4561
-23.5672
-23.6625
-23.7428
-23.8075
-18.4881
-18.8062
-19.1138
-19.4086
-19.6891
-19.9549
-20.2059
-20.4419
-20.663
-20.8691
-21.0604
-21.2368
-21.3983
-21.545
-21.6768
-21.7937
-21.8958
-21.9832
-22.0556
-22.1138
-17.1937
-17.4962
-17.7889
-18.0686
-18.334
-18.5846
-18.8206
-19.0421
-19.2491
-19.4419
-19.6204
-19.7847
-19.9349
-20.0711
-20.1931
-20.3011
-20.3949
-20.4747
-20.5402
-20.5926
-16.026
-16.3148
-16.5948
-16.8613
-17.1128
-17.3495
-17.5719
-17.78
-17.9741
-18.1545
-18.3214
-18.4748
-18.6148
-18.7413
-18.8545
-18.9544
-19.0408
-19.114
-19.1741
-19.2203
-14.9678
-15.2451
-15.5143
-15.7689
-16.0077
-16.2316
-16.4412
-16.6369
-16.8191
-16.9882
-17.1444
-17.2878
-17.4184
-17.5364
-17.6416
-17.7341
-17.8139
-17.881
-17.9354
-17.9771
-14.0044
-14.2737
-14.5344
-14.778
-15.0047
-15.2164
-15.4139
-15.5979
-15.7689
-15.9275
-16.0739
-16.2081
-16.3303
-16.4403
-16.5383
-16.6242
-16.698
-16.7596
-16.8092
-16.8466
-13.1183
-13.3868
-13.643
-13.8758
-14.0906
-14.2907
-14.4767
-14.6497
-14.8103
-14.9592
-15.0965
-15.2224
-15.3369
-15.4399
-15.5314
-15.6113
-15.6797
-15.7365
-15.7817
-15.8153
-12.289
-12.562
-12.8199
-13.044
-13.2476
-13.4368
-13.6124
-13.7754
-13.9269
-14.0673
-14.1969
-14.3157
-14.4237
-14.5208
-14.6069
-14.6819
-14.7459
-14.7987
-14.8405
-14.8712
-11.5275
-11.7931
-12.0525
-12.2723
-12.4666
-12.6451
-12.8109
-12.9651
-13.1084
-13.2414
-13.3642
-13.477
-13.5795
-13.6716
-13.7533
-13.8244
-13.8848
-13.9346
-13.9737
-14.0023
-10.9557
-11.2015
-11.4248
-11.6352
-11.8183
-11.9801
-12.1304
-12.271
-12.4017
-12.5229
-12.6348
-12.7373
-12.8304
-12.9137
-12.9873
-13.0511
-13.1049
-13.1488
-13.1826
-13.2063
-5.7496
-6.2288
-6.75551
-7.32701
-7.94988
-8.63166
-9.38018
-10.2051
-11.1186
-12.1366
-13.2795
-14.5738
-16.0546
-17.767
-19.7701
-22.1411
-24.9593
-28.2457
-32.2179
-38.1923
-6.00978
-6.50154
-7.03788
-7.62046
-8.25603
-8.95183
-9.71581
-10.5579
-11.4906
-12.5299
-13.6966
-15.0178
-16.5287
-18.275
-20.3159
-22.7286
-25.5912
-28.9218
-32.9304
-38.9243
-6.27155
-6.77588
-7.32196
-7.91587
-8.56439
-9.27445
-10.0542
-10.9136
-11.8657
-12.9267
-14.1176
-15.466
-17.0074
-18.7879
-20.8669
-23.3212
-26.2278
-29.6016
-33.6447
-39.6536
-6.53441
-7.05128
-7.60719
-8.21263
-8.87431
-9.59885
-10.3945
-11.2716
-12.2433
-13.3262
-14.5415
-15.9173
-17.4894
-19.3043
-21.4214
-23.9173
-26.8677
-30.2845
-34.3632
-40.3919
-6.79794
-7.32728
-7.89311
-8.51028
-9.18533
-9.92452
-10.7363
-11.6312
-12.6227
-13.7276
-14.9676
-16.3709
-17.9739
-19.8233
-21.9786
-24.5161
-27.5102
-30.97
-35.0852
-41.1369
-7.06178
-7.60349
-8.1793
-8.80842
-9.49702
-10.251
-11.079
-11.992
-13.0034
-14.1305
-15.3953
-16.8262
-18.4602
-20.3442
-22.5378
-25.1169
-28.1546
-31.6573
-35.8085
-41.8843
-7.32562
-7.87955
-8.4654
-9.10665
-9.80898
-10.578
-11.4224
-12.3534
-13.3849
-14.5343
-15.8239
-17.2827
-18.9478
-20.8664
-23.0983
-25.7189
-28.8
-32.3452
-36.5319
-42.6319
-7.58922
-8.15519
-8.7511
-9.40465
-10.1209
-10.9049
-11.7658
-12.715
-13.7666
-14.9384
-16.253
-17.7396
-19.4358
-21.3891
-23.6592
-26.3212
-29.4454
-33.0326
-37.2541
-43.3784
-7.85243
-8.43019
-9.03616
-9.70214
-10.4323
-11.2315
-12.1089
-13.0764
-14.1481
-15.3423
-16.6818
-18.1963
-19.9236
-21.9115
-24.2197
-26.9228
-30.0898
-33.7186
-37.974
-44.1222
-8.1152
-8.70447
-9.32042
-9.99892
-10.7431
-11.5575
-12.4514
-13.437
-14.5289
-15.7454
-17.1098
-18.6521
-20.4104
-22.4327
-24.7789
-27.5228
-30.7321
-34.4019
-38.6903
-44.862
-8.37764
-8.97802
-9.60382
-10.2949
-11.0531
-11.8825
-12.7929
-13.7966
-14.9084
-16.1471
-17.5363
-19.1062
-20.8954
-22.952
-25.3358
-28.1201
-31.3713
-35.0813
-39.4018
-45.5964
-8.64003
-9.25102
-9.88638
-10.5899
-11.362
-12.2063
-13.1329
-14.1545
-15.2862
-16.547
-17.9607
-19.5581
-21.3778
-23.4685
-25.8895
-28.7138
-32.0061
-35.7558
-40.1071
-46.3239
-8.90281
-9.52371
-10.1682
-10.8839
-11.6696
-12.5286
-13.4712
-14.5104
-15.6617
-16.9442
-18.3823
-20.0068
-21.8569
-23.9812
-26.4391
-29.3028
-32.6356
-36.424
-40.805
-47.0433
-9.16666
-9.79648
-10.4494
-11.1769
-11.9758
-12.849
-13.8072
-14.8637
-16.0342
-17.3382
-18.8002
-20.4516
-22.3316
-24.4891
-26.9835
-29.8859
-33.2585
-37.0849
-41.4942
-47.7533
-9.43228
-10.0696
-10.7299
-11.4685
-12.28
-13.167
-14.1404
-15.2138
-16.4031
-17.7282
-19.2138
-20.8916
-22.8012
-24.9914
-27.5215
-30.4621
-33.8736
-37.7371
-42.1737
-48.4529
-9.70046
-10.3431
-11.0093
-11.7581
-12.5817
-13.4818
-14.4699
-15.5598
-16.7675
-18.1132
-19.6221
-21.3258
-23.2645
-25.4869
-28.0522
-31.0301
-34.4797
-38.3795
-42.8423
-49.141
-9.97084
-10.6157
-11.2861
-12.0443
-12.8795
-13.7924
-14.7948
-15.9007
-17.1265
-18.4925
-20.024
-21.7533
-23.7205
-25.9745
-28.5742
-31.5886
-35.0754
-39.0108
-43.4991
-49.8171
-10.2423
-10.8847
-11.5577
-12.3253
-13.172
-14.0976
-15.1139
-16.2356
-17.4791
-18.8649
-20.4187
-22.173
-24.1681
-26.453
-29.0863
-32.1363
-35.6592
-39.6292
-44.1429
-50.4813
-10.5071
-11.1416
-11.8178
-12.5975
-13.4572
-14.3956
-15.426
-16.5633
-17.8242
-19.2294
-20.805
-22.5838
-24.6061
-26.9212
-29.5872
-32.6716
-36.2293
-40.2331
-44.7725
-51.135
-10.7457
-11.3668
-12.0624
-12.8622
-13.7356
-14.6864
-15.7305
-16.8831
-18.161
-19.5852
-21.1821
-22.9846
-25.0334
-27.3778
-30.0754
-33.1929
-36.7838
-40.8193
-45.3837
-51.78
-1.54037
-1.79819
-2.15087
-2.54596
-2.9727
-3.43678
-3.94474
-4.50277
-5.11862
-5.80279
-6.56939
-7.43751
-8.43318
-9.59204
-10.9642
-12.6223
-14.654
-17.1174
-20.3135
-25.7217
-1.68665
-1.96001
-2.3297
-2.72966
-3.15901
-3.62762
-4.14164
-4.70687
-5.33121
-6.02539
-6.80379
-7.6858
-8.69786
-9.87613
-11.2712
-12.9563
-15.019
-17.5156
-20.7419
-26.1622
-1.82558
-2.12227
-2.50423
-2.91156
-3.34792
-3.82413
-4.34627
-4.92029
-5.55446
-6.25987
-7.0512
-7.94821
-8.9778
-10.1766
-11.5957
-13.3088
-15.403
-17.9329
-21.1887
-26.6158
-1.98551
-2.29253
-2.68207
-3.09747
-3.54232
-4.02733
-4.55867
-5.14261
-5.78774
-6.50544
-7.31072
-8.22376
-9.27189
-10.4923
-11.9364
-13.6784
-15.8051
-18.3694
-21.6579
-27.101
-2.15625
-2.46989
-2.86666
-3.29035
-3.74397
-4.23819
-4.77937
-5.37403
-6.03097
-6.76185
-7.58202
-8.51202
-9.57965
-10.8226
-12.2928
-14.0648
-16.2251
-18.8254
-22.1491
-27.6146
-2.33224
-2.65394
-3.0584
-3.4905
-3.95315
-4.457
-5.00861
-5.61463
-6.28413
-7.02899
-7.86489
-8.81276
-9.90085
-11.1673
-12.6647
-14.4678
-16.6629
-19.3003
-22.6606
-28.1513
-2.51504
-2.8456
-3.25764
-3.69815
-4.17007
-4.68397
-5.24648
-5.86445
-6.54714
-7.30671
-8.15913
-9.12572
-10.2352
-11.5261
-13.0518
-14.887
-17.1181
-19.7937
-23.1912
-28.709
-2.70604
-3.04542
-3.4648
-3.91369
-4.39505
-4.91927
-5.49307
-6.12348
-6.81993
-7.59485
-8.46451
-9.45061
-10.5823
-11.8987
-13.4535
-15.322
-17.5901
-20.3049
-23.7405
-29.2864
-2.90509
-3.25329
-3.67996
-4.13725
-4.62818
-5.16297
-5.7484
-6.39165
-7.10238
-7.89322
-8.78079
-9.78713
-10.9419
-12.2846
-13.8696
-15.7722
-18.0784
-20.8333
-24.3077
-29.8827
-3.11163
-3.46893
-3.90297
-4.36872
-4.86938
-5.41496
-6.01233
-6.66883
-7.39429
-8.20161
-9.10769
-10.135
-11.3135
-12.6835
-14.2994
-16.2373
-18.5824
-21.3784
-24.8921
-30.4968
-3.32526
-3.69203
-4.13354
-4.60788
-5.11844
-5.67506
-6.28467
-6.95478
-7.69542
-8.51972
-9.44491
-10.4938
-11.6969
-13.0948
-14.7426
-16.7165
-19.1015
-21.9393
-25.4929
-31.1277
-3.54564
-3.92221
-4.37133
-4.85439
-5.37505
-5.94296
-6.56512
-7.2492
-8.00543
-8.84722
-9.79206
-10.8632
-12.0915
-13.5181
-15.1986
-17.2094
-19.635
-22.5154
-26.1093
-31.7744
-3.7723
-4.15902
-4.61593
-5.10788
-5.63887
-6.21832
-6.85331
-7.55172
-8.32396
-9.18369
-10.1487
-11.2426
-12.4968
-13.9529
-15.6669
-17.7153
-20.1823
-23.1059
-26.7404
-32.436
-4.00475
-4.40198
-4.86686
-5.3679
-5.90944
-6.50071
-7.14885
-7.86192
-8.65057
-9.52869
-10.5144
-11.6317
-12.9124
-14.3987
-16.1468
-18.2336
-20.7427
-23.71
-27.3855
-33.1118
-4.24247
-4.65054
-5.1236
-5.63396
-6.18631
-6.78966
-7.45125
-8.17934
-8.98478
-9.88173
-10.8886
-12.0299
-13.3377
-14.8547
-16.6376
-18.7635
-21.3154
-24.327
-28.0439
-33.8008
-4.48491
-4.90417
-5.38563
-5.90554
-6.46896
-7.08468
-7.76002
-8.50346
-9.32608
-10.2423
-11.2708
-12.4365
-13.772
-15.3203
-17.1388
-19.3044
-21.8996
-24.9561
-28.7146
-34.5023
-4.73155
-5.1623
-5.65238
-6.18209
-6.75685
-7.38523
-8.07463
-8.83375
-9.6739
-10.6098
-11.6604
-12.851
-14.2147
-15.795
-17.6495
-19.8553
-22.4945
-25.5964
-29.397
-35.2159
-4.98186
-5.42437
-5.9233
-6.46307
-7.04945
-7.69077
-8.39453
-9.16965
-10.0277
-10.9836
-12.0567
-13.2727
-14.665
-16.2778
-18.1689
-20.4156
-23.0991
-26.2469
-30.0903
-35.9413
-5.2353
-5.68983
-6.19782
-6.74791
-7.34619
-8.00073
-8.71914
-9.51057
-10.3868
-11.3631
-12.4592
-13.7009
-15.1224
-16.768
-18.6961
-20.9841
-23.7124
-26.9064
-30.7935
-36.6791
-5.49139
-5.95816
-6.47543
-7.0361
-7.64655
-8.31458
-9.04793
-9.85597
-10.7507
-11.7478
-12.8671
-14.135
-15.586
-17.2649
-19.2304
-21.5599
-24.3332
-27.5733
-31.5039
-37.4302
-1.30099
-1.10477
-0.960152
-0.83225
-0.720617
-0.622698
-0.537399
-0.463939
-0.401825
-0.350701
-0.310299
-0.280402
-0.26083
-0.251454
-0.252088
-0.262303
-0.282071
-0.313113
-0.351958
-0.401131
-1.63404
-1.46045
-1.31198
-1.17918
-1.06304
-0.960991
-0.872052
-0.795423
-0.730594
-0.677188
-0.634919
-0.603556
-0.582909
-0.572828
-0.573135
-0.583524
-0.603933
-0.634952
-0.675531
-0.726136
-1.97259
-1.80679
-1.65851
-1.52475
-1.40669
-1.30268
-1.212
-1.13396
-1.06809
-1.01401
-0.971445
-0.940167
-0.919979
-0.910717
-0.912205
-0.924223
-0.946716
-0.979846
-1.02322
-1.07684
-2.3635
-2.19643
-2.04548
-1.90905
-1.7877
-1.68047
-1.58685
-1.50627
-1.43832
-1.38264
-1.33896
-1.30704
-1.28669
-1.27772
-1.27995
-1.29321
-1.31743
-1.3526
-1.39842
-1.4549
-2.79109
-2.62208
-2.46767
-2.3277
-2.20252
-2.09159
-1.99457
-1.91101
-1.84055
-1.78288
-1.73772
-1.70485
-1.68406
-1.67517
-1.67799
-1.69236
-1.71819
-1.75537
-1.80368
-1.8631
-3.25353
-3.0819
-2.92386
-2.78005
-2.65087
-2.5361
-2.43552
-2.34882
-2.27571
-2.2159
-2.16914
-2.13522
-2.11393
-2.10508
-2.10849
-2.12401
-2.1515
-2.19082
-2.24179
-2.30437
-3.75731
-3.58162
-3.4193
-3.27111
-3.13754
-3.01859
-2.91416
-2.82404
-2.74799
-2.6858
-2.63723
-2.60207
-2.58013
-2.57122
-2.57516
-2.59179
-2.62096
-2.66251
-2.71625
-2.78212
-4.30948
-4.12832
-3.96068
-3.80732
-3.66873
-3.54504
-3.43625
-3.34225
-3.26286
-3.19789
-3.14716
-3.11046
-3.08761
-3.07843
-3.08274
-3.10037
-3.13116
-3.17493
-3.2315
-3.30083
-4.91798
-4.72997
-4.55585
-4.39632
-4.25185
-4.12268
-4.00886
-3.91034
-3.82703
-3.75878
-3.7054
-3.66674
-3.64261
-3.63284
-3.63725
-3.65567
-3.68793
-3.73385
-3.79323
-3.86605
-5.5932
-5.39684
-5.21489
-5.04797
-4.89656
-4.76092
-4.64118
-4.53735
-4.44936
-4.37711
-4.32046
-4.27925
-4.25332
-4.2425
-4.24662
-4.2655
-4.29897
-4.34683
-4.40889
-4.48515
-6.34906
-6.14262
-5.95123
-5.77545
-5.61574
-5.4724
-5.34559
-5.23537
-5.14171
-5.06454
-5.00375
-4.95921
-4.93076
-4.91824
-4.92148
-4.94031
-4.97455
-5.02399
-5.08844
-5.16792
-7.20435
-6.98579
-6.78304
-6.59658
-6.42688
-6.27426
-6.1389
-6.0209
-5.92027
-5.83697
-5.7709
-5.72196
-5.69
-5.67487
-5.6764
-5.69444
-5.72878
-5.7792
-5.84551
-5.92779
-8.18472
-7.9516
-7.73514
-7.53576
-7.35397
-7.19006
-7.04427
-6.9167
-6.80741
-6.71637
-6.64351
-6.58874
-6.55194
-6.53295
-6.53161
-6.54777
-6.58122
-6.63172
-6.69907
-6.78341
-9.32534
-9.07471
-8.84168
-8.62663
-8.4301
-8.2524
-8.09377
-7.95435
-7.83422
-7.73336
-7.65174
-7.58927
-7.54583
-7.52129
-7.51549
-7.52827
-7.55942
-7.60868
-7.67584
-7.76108
-10.6757
-10.404
-10.1509
-9.91683
-9.70231
-9.5077
-9.33324
-9.1791
-9.04536
-8.93204
-8.8391
-8.76647
-8.71406
-8.68172
-8.66931
-8.67666
-8.70357
-8.74972
-8.8149
-8.89936
-12.308
-12.011
-11.7337
-11.4766
-11.2402
-11.0249
-10.831
-10.6587
-10.5079
-10.3789
-10.2714
-10.1855
-10.1212
-10.0781
-10.0563
-10.0555
-10.0756
-10.1161
-10.1769
-10.2582
-14.3091
-13.9823
-13.6764
-13.3919
-13.1295
-12.8895
-12.6723
-12.4779
-12.3064
-12.158
-12.0325
-11.9299
-11.8502
-11.7933
-11.7589
-11.7469
-11.7572
-11.7894
-11.8433
-11.9188
-16.7376
-16.3773
-16.0388
-15.7232
-15.4312
-15.1631
-14.9191
-14.6995
-14.5042
-14.3333
-14.1868
-14.0647
-13.9668
-13.8931
-13.8436
-13.818
-13.8161
-13.8379
-13.8829
-13.9502
-19.8973
-19.4992
-19.1238
-18.7736
-18.4489
-18.1498
-17.8763
-17.6284
-17.4059
-17.2091
-17.0377
-16.8918
-16.7714
-16.6763
-16.6065
-16.5618
-16.542
-16.5475
-16.5779
-16.6313
-25.2491
-24.8075
-24.3993
-24.0212
-23.6712
-23.3483
-23.052
-22.7823
-22.5391
-22.3223
-22.132
-21.9682
-21.831
-21.7205
-21.6367
-21.5797
-21.5501
-21.5502
-21.5813
-21.633
-0.459817
-0.527632
-0.604501
-0.690316
-0.784966
-0.888317
-1.00021
-1.12047
-1.24887
-1.38511
-1.52882
-1.6795
-1.83635
-1.99821
-2.16345
-2.32986
-2.49299
-2.64314
-2.76495
-2.88296
-0.786569
-0.856498
-0.935817
-1.02438
-1.12207
-1.22872
-1.34415
-1.46817
-1.60052
-1.74087
-1.88882
-2.04383
-2.20513
-2.37158
-2.5416
-2.71358
-2.88575
-3.05038
-3.19201
-3.35108
-1.1406
-1.21419
-1.29752
-1.39041
-1.49273
-1.60431
-1.72494
-1.85441
-1.99243
-2.13867
-2.29269
-2.45394
-2.62168
-2.79491
-2.97228
-3.15261
-3.33495
-3.5149
-3.68639
-3.87855
-1.52196
-1.59923
-1.68661
-1.78393
-1.89103
-2.00772
-2.13378
-2.26897
-2.41299
-2.56548
-2.72601
-2.894
-3.06878
-3.24944
-3.43492
-3.62435
-3.81693
-4.0103
-4.20469
-4.42009
-1.93355
-2.01465
-2.10629
-2.20828
-2.32044
-2.44257
-2.57444
-2.71577
-2.86627
-3.02556
-3.19319
-3.36863
-3.55124
-3.74024
-3.93482
-4.13437
-4.33825
-4.54539
-4.75826
-4.98986
-2.37847
-2.46369
-2.55993
-2.66697
-2.78462
-2.91267
-3.05087
-3.19894
-3.35657
-3.52337
-3.69892
-3.88271
-4.07415
-4.2726
-4.47743
-4.68823
-4.9046
-5.12626
-5.3559
-5.60132
-2.86014
-2.94977
-3.05093
-3.1634
-3.28699
-3.42145
-3.56655
-3.72199
-3.88744
-4.06255
-4.24689
-4.43998
-4.64132
-4.85035
-5.0666
-5.28978
-5.51967
-5.75645
-6.0023
-6.26167
-3.38291
-3.47717
-3.58354
-3.70181
-3.83174
-3.97312
-4.12568
-4.28912
-4.46313
-4.64734
-4.84136
-5.04475
-5.25705
-5.47781
-5.70665
-5.94333
-6.18778
-6.4403
-6.70245
-6.97675
-3.95229
-4.05139
-4.16323
-4.28759
-4.42426
-4.57301
-4.73357
-4.90564
-5.08891
-5.28304
-5.48764
-5.70231
-5.92664
-6.16024
-6.4028
-6.65413
-6.91418
-7.18323
-7.4623
-7.75281
-4.57559
-4.67955
-4.79703
-4.92773
-5.07146
-5.22797
-5.39701
-5.57828
-5.77148
-5.97626
-6.19228
-6.41917
-6.65654
-6.90406
-7.16145
-7.42854
-7.70526
-7.9918
-8.28872
-8.59687
-5.26245
-5.37123
-5.49435
-5.63149
-5.78244
-5.94699
-6.12487
-6.31579
-6.51946
-6.73556
-6.96374
-7.20368
-7.45501
-7.71743
-7.99068
-8.27457
-8.56902
-8.87406
-9.18995
-9.51723
-6.02606
-6.1394
-6.26791
-6.41143
-6.5696
-6.74224
-6.92913
-7.12999
-7.34451
-7.57239
-7.81331
-8.06696
-8.333
-8.61115
-8.90113
-9.20277
-9.51592
-9.84045
-10.1764
-10.5243
-6.88478
-7.00212
-7.13558
-7.28488
-7.45005
-7.63064
-7.82649
-8.03724
-8.26269
-8.50256
-8.75652
-9.02429
-9.30553
-9.59997
-9.90735
-10.2275
-10.5601
-10.905
-11.2621
-11.6317
-7.8645
-7.98483
-8.12237
-8.27681
-8.44795
-8.63592
-8.84056
-9.0607
-9.29671
-9.5483
-9.81517
-10.097
-10.3936
-10.7046
-11.0297
-11.3687
-11.7213
-12.0871
-12.466
-12.8583
-9.0032
-9.12492
-9.26502
-9.42324
-9.59937
-9.79308
-10.0043
-10.2342
-10.4798
-10.7423
-11.0214
-11.3169
-11.6285
-11.9559
-12.2985
-12.6563
-13.0289
-13.4158
-13.8167
-14.2321
-10.3601
-10.4808
-10.6212
-10.7811
-10.9603
-11.1584
-11.375
-11.6098
-11.8643
-12.1376
-12.4279
-12.7362
-13.0621
-13.4045
-13.7636
-14.1391
-14.5308
-14.9383
-15.3608
-15.7987
-12.0155
-12.1323
-12.2704
-12.4293
-12.6088
-12.8089
-13.0291
-13.2692
-13.5293
-13.809
-14.1101
-14.4295
-14.7667
-15.1207
-15.4932
-15.8842
-16.2933
-16.7196
-17.1623
-17.6211
-14.0378
-14.1476
-14.2801
-14.4339
-14.6094
-14.8068
-15.0259
-15.2665
-15.5281
-15.81
-16.1119
-16.4349
-16.7794
-17.1463
-17.5333
-17.9395
-18.3646
-18.8083
-19.2695
-19.7473
-16.7056
-16.7999
-16.917
-17.0594
-17.2266
-17.4178
-17.6325
-17.8702
-18.1307
-18.4134
-18.7178
-19.0438
-19.3917
-19.7618
-20.1539
-20.5673
-21.002
-21.4587
-21.9371
-22.4325
-21.6796
-21.7551
-21.8601
-21.9925
-22.1509
-22.3345
-22.5426
-22.7748
-23.0306
-23.3098
-23.6122
-23.9376
-24.2864
-24.6587
-25.0545
-25.4739
-25.9179
-26.3905
-26.8942
-27.4111
-27.8967
-22.9365
-20.2411
-18.0964
-16.2521
-14.6618
-13.264
-12.0138
-10.8839
-9.85587
-8.91622
-8.05476
-7.26339
-6.5354
-5.86514
-5.24763
-4.67714
-4.14773
-3.66759
-3.26431
-28.4085
-23.4551
-20.749
-18.5851
-16.7182
-15.1036
-13.681
-12.4067
-11.2538
-10.2043
-9.24512
-8.36609
-7.55928
-6.81811
-6.13709
-5.51133
-4.93565
-4.40736
-3.93925
-3.53831
-28.9473
-23.991
-21.2726
-19.0884
-17.1978
-15.5577
-14.1094
-12.81
-11.6335
-10.562
-9.58271
-8.68568
-7.86298
-7.10805
-6.41537
-5.77995
-5.19675
-4.6632
-4.18856
-3.76894
-29.509
-24.5449
-21.8118
-19.606
-17.6902
-16.0234
-14.5485
-13.2232
-12.0221
-10.928
-9.928
-9.01228
-8.17289
-7.40315
-6.69734
-6.0502
-5.45646
-4.9129
-4.42597
-3.98839
-30.0904
-25.116
-22.3663
-20.1375
-18.195
-16.5003
-14.9976
-13.6455
-12.4191
-11.3016
-10.2802
-9.3451
-8.48828
-7.70288
-6.98292
-6.32287
-5.71715
-5.16199
-4.662
-4.20902
-30.6897
-25.7039
-22.9352
-20.6822
-18.7115
-16.9877
-15.4561
-14.0762
-12.8238
-11.6821
-10.6386
-9.68355
-8.80867
-8.00695
-7.27216
-6.59851
-5.98021
-5.41314
-4.90061
-4.43429
-31.3061
-26.3091
-23.5164
-21.239
-19.239
-17.4847
-15.9232
-14.5148
-13.2355
-12.069
-11.0029
-10.0272
-9.13379
-8.31532
-7.56534
-6.87784
-6.24688
-5.66811
-5.14375
-4.66548
-31.9384
-26.9292
-24.1103
-21.807
-19.7767
-17.9908
-16.3984
-14.9604
-13.6535
-12.4616
-11.3723
-10.3758
-9.46343
-8.62794
-7.8626
-7.16119
-6.51767
-5.92748
-5.39188
-4.90258
-32.5856
-27.5628
-24.7164
-22.3856
-20.3237
-18.5051
-16.8808
-15.4126
-14.0774
-12.8595
-11.7466
-10.7288
-9.7973
-8.94464
-8.16388
-7.4486
-6.79266
-6.19132
-5.64488
-5.14515
-33.2464
-28.2087
-25.3338
-22.9739
-20.8792
-19.0269
-17.3698
-15.8705
-14.5064
-13.2621
-12.1252
-11.0858
-10.1351
-9.26515
-8.46895
-7.73988
-7.07164
-6.45932
-5.9023
-5.39252
-33.9198
-28.8657
-25.9614
-23.571
-21.4423
-19.5553
-17.8645
-16.3334
-14.9399
-13.6687
-12.5076
-11.4465
-10.4763
-9.58908
-8.77746
-8.03465
-7.3542
-6.73099
-6.16355
-5.64395
-34.6046
-29.533
-26.5984
-24.1761
-22.0122
-20.0895
-18.3642
-16.8006
-15.3772
-14.0788
-12.8932
-11.8102
-10.8205
-9.91595
-9.08894
-8.33242
-7.63983
-7.00577
-6.42798
-5.89871
-35.3
-30.2096
-27.2437
-24.7881
-22.5878
-20.6285
-18.868
-17.2714
-15.8176
-14.4917
-13.2814
-12.1763
-11.1671
-10.2452
-9.40284
-8.63266
-7.92794
-7.28304
-6.69494
-6.1561
-36.0048
-30.8942
-27.8961
-25.4061
-23.1684
-21.1715
-19.3751
-17.7449
-16.2604
-14.9066
-13.6715
-12.5443
-11.5156
-10.5763
-9.7186
-8.93478
-8.21794
-7.56219
-6.96376
-6.41544
-36.7181
-31.5859
-28.5545
-26.0288
-23.7527
-21.7175
-19.8845
-18.2203
-16.7047
-15.323
-14.0629
-12.9136
-11.8652
-10.9087
-10.0356
-9.23818
-8.50923
-7.8426
-7.23382
-6.6761
-37.4388
-32.2833
-29.2178
-26.6553
-24.3398
-22.2655
-20.3953
-18.6967
-17.1497
-15.7399
-14.4548
-13.2833
-12.2154
-11.2416
-10.3533
-9.54225
-8.80121
-8.12367
-7.50453
-6.93748
-38.1666
-32.9856
-29.8848
-27.2843
-24.9285
-22.8145
-20.9066
-19.1732
-17.5947
-16.1566
-14.8464
-13.6529
-12.5655
-11.5745
-10.6709
-9.8464
-9.09329
-8.40482
-7.77531
-7.19903
-38.903
-33.6923
-30.554
-27.9144
-25.5175
-23.3631
-21.4171
-19.6487
-18.0386
-16.5723
-15.2371
-14.0215
-12.9147
-11.9067
-10.988
-10.15
-9.38485
-8.68547
-8.04559
-7.46022
-39.6484
-34.4023
-31.2236
-28.5439
-26.1055
-23.9103
-21.9261
-20.1225
-18.4807
-16.9862
-15.6261
-14.3886
-13.2625
-12.2375
-11.3038
-10.4524
-9.67534
-8.96507
-8.31487
-7.72058
-40.39
-35.1108
-31.8921
-29.1721
-26.692
-24.4558
-22.433
-20.5942
-18.9206
-17.3979
-16.013
-14.7537
-13.6085
-12.5666
-11.618
-10.7534
-9.96435
-9.24321
-8.58271
-7.97969
-6.49732
-4.48053
-3.19157
-2.2077
-1.52403
-1.02401
-0.667291
-0.415107
-0.240791
-0.123859
-0.0489271
-0.00422897
0.0189966
0.0273342
0.0256738
0.0175479
0.00555271
-0.00848757
-0.0232793
-0.0379461
-0.051903
-0.0647943
-0.0764068
-0.0866699
-0.0955307
-0.103079
-0.109243
-0.114222
-0.117717
-0.120055
-0.120456
-0.119495
-0.115709
-0.110083
-0.100635
-0.0886351
-0.0729162
-0.0534377
-0.0343272
-0.00709329
-6.74137
-4.65449
-3.33204
-2.31837
-1.61177
-1.09508
-0.725307
-0.463068
-0.280795
-0.157464
-0.0773007
-0.028258
-0.00138593
0.0100352
0.0110051
0.00512552
-0.00494331
-0.0173311
-0.0307069
-0.0441599
-0.0570776
-0.0690829