/*--------------------------------*- C++ -*----------------------------------*\
| =========                 |                                                 |
| \\      /  F ield         | OpenFOAM: The Open Source CFD Toolbox           |
|  \\    /   O peration     | Version:  v1912                                 |
|   \\  /    A nd           | Website:  www.openfoam.com                      |
|    \\/     M anipulation  |                                                 |
\*---------------------------------------------------------------------------*/
FoamFile
{
    version     2.0;
    format      ascii;
    class       volScalarField;
    location    "73.5";
    object      p;
}
// * * * * * * * * * * * * * * * * * * * * * * * * * * * * * * * * * * * * * //

dimensions      [0 2 -2 0 0 0 0];


internalField   nonuniform List<scalar> 
9600
(
-41.4883
-36.2235
-32.9968
-30.2597
-27.7544
-25.4877
-23.4311
-21.5569
-19.8476
-18.2896
-16.8701
-15.5772
-14.3997
-13.3267
-12.3481
-11.4545
-10.6375
-9.88922
-9.20204
-8.57384
-42.2483
-36.9661
-33.7033
-30.9234
-28.3729
-26.0621
-23.9641
-22.0522
-20.309
-18.7209
-17.275
-15.959
-14.7611
-13.6702
-12.6757
-11.768
-10.9382
-10.1781
-9.47982
-8.84233
-43.0101
-37.7046
-34.4045
-31.5815
-28.9856
-26.6305
-24.4911
-22.5415
-20.7646
-19.1468
-17.6748
-16.3359
-15.1181
-14.0095
-12.9993
-12.0775
-11.2351
-10.4634
-9.75401
-9.10743
-43.7702
-38.4387
-35.0998
-32.233
-29.5915
-27.1919
-25.0112
-23.024
-21.2137
-19.5664
-18.0687
-16.7074
-15.4698
-14.3438
-13.3182
-12.3827
-11.5278
-10.7445
-10.0242
-9.36881
-44.5258
-39.1668
-35.7882
-32.877
-30.1894
-27.7453
-25.5233
-23.4988
-21.6555
-19.9792
-18.4561
-17.0726
-15.8157
-14.6727
-13.632
-12.683
-11.8159
-11.0212
-10.29
-9.62618
-45.2749
-39.8875
-36.4685
-33.5122
-30.7784
-28.2897
-26.0266
-23.9651
-22.089
-20.3841
-18.8361
-17.431
-16.1551
-14.9955
-13.94
-12.9778
-12.0987
-11.2929
-10.5512
-9.87928
-46.0155
-40.5994
-37.1395
-34.1377
-31.3574
-28.8242
-26.52
-24.4219
-22.5135
-20.7805
-19.2081
-17.7817
-16.4873
-15.3115
-14.2417
-13.2667
-12.376
-11.5593
-10.8073
-10.1278
-46.7462
-41.3009
-37.7998
-34.7522
-31.9253
-29.3476
-27.0028
-24.8684
-22.9282
-21.1675
-19.5712
-18.1242
-16.8118
-15.6202
-14.5365
-13.5491
-12.6471
-11.8199
-11.058
-10.3715
-47.4656
-41.991
-38.4483
-35.3546
-32.481
-29.859
-27.4739
-25.3036
-23.3322
-21.5444
-19.9247
-18.4576
-17.1277
-15.9209
-14.8238
-13.8243
-12.9116
-12.0744
-11.3029
-10.61
-48.1725
-42.6682
-39.0839
-35.9438
-33.0236
-30.3575
-27.9324
-25.7268
-23.7246
-21.9103
-20.2679
-18.7811
-17.4344
-16.2128
-15.1027
-14.0918
-13.1689
-12.3219
-11.5415
-10.8429
-48.8658
-43.3316
-39.7054
-36.5189
-33.552
-30.8422
-28.3774
-26.137
-24.1046
-22.2644
-20.5998
-19.094
-17.7309
-16.4951
-15.3726
-14.3508
-13.418
-12.562
-11.7732
-11.0696
-49.5445
-43.9801
-40.3119
-37.0788
-34.0654
-31.312
-28.8081
-26.5334
-24.4714
-22.6059
-20.9197
-19.3954
-18.0164
-16.7669
-15.6325
-14.6002
-13.6583
-12.7937
-11.9971
-11.2892
-50.2079
-44.6129
-40.9025
-37.6227
-34.5629
-31.7663
-29.2237
-26.9152
-24.8241
-22.9339
-21.2265
-19.6843
-18.2899
-17.0271
-15.8813
-14.8392
-13.8886
-13.0162
-12.2123
-11.5011
-50.8554
-45.2291
-41.4763
-38.1497
-35.0436
-32.2042
-29.6234
-27.2816
-25.1621
-23.2476
-21.5196
-19.9598
-18.5503
-17.2747
-16.1179
-15.0663
-14.1076
-13.228
-12.4178
-11.7046
-51.4864
-45.8279
-42.0325
-38.6591
-35.507
-32.625
-30.0065
-27.6321
-25.4846
-23.5462
-21.7981
-20.221
-18.7968
-17.5085
-16.3407
-15.2799
-14.3134
-13.427
-12.6113
-11.8977
-52.1006
-46.4086
-42.5704
-39.1503
-35.9523
-33.0283
-30.3726
-27.966
-25.791
-23.8293
-22.0612
-20.4671
-19.0282
-17.7272
-16.5486
-15.4784
-14.504
-13.611
-12.7901
-12.0752
-52.6991
-46.971
-43.0894
-39.6225
-36.3789
-33.4133
-30.721
-28.2828
-26.0809
-24.0962
-22.3084
-20.6973
-19.2437
-17.93
-16.7404
-15.661
-14.6792
-13.78
-12.9531
-12.2336
-53.2863
-47.5163
-43.5886
-40.0747
-36.7859
-33.7793
-31.0512
-28.5822
-26.3539
-24.3466
-22.5392
-20.911
-19.4422
-18.1151
-16.9139
-15.8251
-14.8362
-13.9312
-13.0994
-12.3843
-53.8643
-48.044
-44.0664
-40.5057
-37.173
-34.1265
-31.3636
-28.8646
-26.6106
-24.5811
-22.7541
-21.1082
-19.6233
-18.281
-17.0657
-15.9639
-14.963
-14.0471
-13.2141
-12.5315
-54.4113
-48.5464
-44.522
-40.9163
-37.5413
-34.4565
-31.6598
-29.1318
-26.8528
-24.8015
-22.9552
-21.2915
-19.7896
-18.4304
-17.1975
-16.0761
-15.0513
-14.1097
-13.2658
-12.5894
-59.8683
-59.8368
-59.7675
-59.6751
-59.5587
-59.4159
-59.2463
-59.0502
-58.8282
-58.581
-58.309
-58.0129
-57.6932
-57.3507
-56.9861
-56.6003
-56.1944
-55.77
-55.3301
-54.8778
-53.5193
-53.5167
-53.4809
-53.4176
-53.3274
-53.2099
-53.0653
-52.8942
-52.6975
-52.4757
-52.2294
-51.9592
-51.6658
-51.3498
-51.0119
-50.6526
-50.2727
-49.8726
-49.453
-49.0116
-48.8749
-48.8967
-48.8891
-48.8527
-48.7889
-48.6984
-48.582
-48.4401
-48.2735
-48.0827
-47.8683
-47.6309
-47.3711
-47.0893
-46.7861
-46.4619
-46.117
-45.7515
-45.365
-44.9557
-44.644
-44.6835
-44.6964
-44.6821
-44.6416
-44.576
-44.4858
-44.3717
-44.2341
-44.0737
-43.8909
-43.6862
-43.4603
-43.2135
-42.9463
-42.6589
-42.3515
-42.0239
-41.6761
-41.3071
-40.7318
-40.7812
-40.8066
-40.8074
-40.7839
-40.7369
-40.6671
-40.575
-40.4611
-40.326
-40.17
-39.9937
-39.7976
-39.5821
-39.3475
-39.094
-38.8218
-38.5308
-38.2208
-37.8912
-37.2183
-37.2718
-37.3037
-37.3131
-37.3002
-37.2656
-37.21
-37.1338
-37.0375
-36.9217
-36.7866
-36.633
-36.4611
-36.2715
-36.0644
-35.84
-35.5985
-35.3397
-35.0636
-34.7695
-34.0943
-34.1478
-34.1815
-34.1947
-34.1873
-34.16
-34.1133
-34.0477
-33.9637
-33.8617
-33.7422
-33.6057
-33.4527
-33.2835
-33.0986
-32.8981
-32.6822
-32.4508
-32.2037
-31.9404
-31.3232
-31.3739
-31.4062
-31.4197
-31.4142
-31.3904
-31.3488
-31.2897
-31.2137
-31.1213
-31.0128
-30.8889
-30.7501
-30.5967
-30.4292
-30.2479
-30.0529
-29.8443
-29.6216
-29.3845
-28.865
-28.9112
-28.9404
-28.9521
-28.9463
-28.9235
-28.8842
-28.8288
-28.7578
-28.6716
-28.5709
-28.456
-28.3277
-28.1863
-28.0324
-27.8663
-27.6883
-27.4985
-27.2965
-27.0817
-26.68
-26.721
-26.7462
-26.7549
-26.7475
-26.7242
-26.6856
-26.632
-26.5639
-26.4819
-26.3864
-26.2781
-26.1575
-26.0252
-25.8819
-25.728
-25.5639
-25.3897
-25.2052
-25.0096
-24.731
-24.7668
-24.7875
-24.793
-24.7832
-24.7587
-24.7198
-24.6669
-24.6005
-24.5211
-24.4293
-24.3257
-24.2109
-24.0856
-23.9506
-23.8065
-23.6538
-23.4929
-23.3235
-23.1448
-22.9852
-23.0158
-23.0323
-23.0344
-23.0222
-22.996
-22.9564
-22.9036
-22.8381
-22.7605
-22.6713
-22.5711
-22.4607
-22.3408
-22.2124
-22.0762
-21.9331
-21.7835
-21.6275
-21.4641
-21.4141
-21.4402
-21.4527
-21.4516
-21.437
-21.4092
-21.3686
-21.3156
-21.2506
-21.1742
-21.0869
-20.9893
-20.8822
-20.7666
-20.6435
-20.5138
-20.3787
-20.239
-20.095
-19.9459
-19.9941
-20.016
-20.025
-20.021
-20.0041
-19.9748
-19.9333
-19.88
-19.8154
-19.7398
-19.6539
-19.5584
-19.454
-19.3417
-19.2226
-19.0981
-18.9697
-18.8386
-18.7059
-18.5705
-18.7053
-18.7235
-18.7293
-18.7228
-18.704
-18.6733
-18.631
-18.5774
-18.513
-18.4382
-18.3535
-18.2596
-18.1572
-18.0474
-17.9315
-17.811
-17.6881
-17.5642
-17.442
-17.32
-17.5312
-17.546
-17.5491
-17.5402
-17.5198
-17.4879
-17.4449
-17.3912
-17.327
-17.2528
-17.1691
-17.0764
-16.9757
-16.8677
-16.7541
-16.6364
-16.5175
-16.3993
-16.2867
-16.178
-16.458
-16.4698
-16.4704
-16.4596
-16.4376
-16.4047
-16.3612
-16.3072
-16.2432
-16.1695
-16.0866
-15.9949
-15.8952
-15.7885
-15.6761
-15.5598
-15.4432
-15.3288
-15.2243
-15.1274
-15.4737
-15.4832
-15.4818
-15.4695
-15.4464
-15.4129
-15.369
-15.3151
-15.2514
-15.1782
-15.096
-15.0051
-14.9062
-14.8001
-14.688
-14.5719
-14.4555
-14.3426
-14.2451
-14.1574
-14.5673
-14.5754
-14.573
-14.5602
-14.5371
-14.5039
-14.4607
-14.4079
-14.3456
-14.274
-14.1936
-14.1046
-14.0076
-13.9031
-13.7921
-13.6763
-13.5592
-13.4459
-13.3553
-13.2817
-13.7335
-13.7383
-13.7334
-13.7188
-13.6946
-13.661
-13.6181
-13.5662
-13.5053
-13.4358
-13.3578
-13.2715
-13.1774
-13.0757
-12.9669
-12.8522
-12.7332
-12.6152
-12.5182
-12.469
-53.5745
-54.1501
-54.6885
-55.2119
-55.7173
-56.1988
-56.6536
-57.0805
-57.4786
-57.8471
-58.1852
-58.4925
-58.7687
-59.0133
-59.2258
-59.4062
-59.5554
-59.6745
-59.7656
-59.8306
-47.0913
-47.6723
-48.2251
-48.7556
-49.2632
-49.7456
-50.2013
-50.6296
-51.0299
-51.4014
-51.7437
-52.0566
-52.3402
-52.5952
-52.8194
-53.0123
-53.1746
-53.3065
-53.4087
-53.4799
-42.4468
-43.0155
-43.5604
-44.082
-44.5801
-45.0541
-45.5031
-45.9264
-46.3234
-46.6934
-47.0356
-47.3496
-47.6351
-47.8909
-48.1183
-48.3174
-48.4881
-48.6299
-48.7425
-48.8246
-38.3225
-38.8659
-39.3896
-39.8917
-40.3716
-40.829
-41.2634
-41.674
-42.0602
-42.4215
-42.7564
-43.0647
-43.3471
-43.6032
-43.8331
-44.0365
-44.2131
-44.3625
-44.4844
-44.5783
-34.6445
-35.1578
-35.6541
-36.1307
-36.5867
-37.0217
-37.4351
-37.8264
-38.1947
-38.5395
-38.8615
-39.1602
-39.4342
-39.6835
-39.9085
-40.1088
-40.2841
-40.4342
-40.559
-40.6584
-31.4458
-31.9276
-32.394
-32.8425
-33.2719
-33.6816
-34.0713
-34.4403
-34.7882
-35.1146
-35.4195
-35.7022
-35.9621
-36.1993
-36.4142
-36.6065
-36.7755
-36.9212
-37.0437
-37.1429
-28.6737
-29.1247
-29.5615
-29.9816
-30.3839
-30.7678
-31.1329
-31.4786
-31.8046
-32.1105
-32.3961
-32.661
-32.905
-33.1277
-33.3289
-33.5105
-33.6706
-33.8089
-33.9255
-34.0208
-26.2616
-26.6837
-27.0924
-27.4855
-27.8618
-28.2207
-28.5617
-28.8845
-29.1886
-29.4739
-29.74
-29.9867
-30.2141
-30.4218
-30.61
-30.7771
-30.9266
-31.0559
-31.1649
-31.2541
-24.1507
-24.5464
-24.9293
-25.2975
-25.6496
-25.9851
-26.3035
-26.6045
-26.8878
-27.1532
-27.4006
-27.6298
-27.8407
-28.0333
-28.2076
-28.3635
-28.4997
-28.6189
-28.7196
-28.8017
-22.291
-22.6628
-23.0225
-23.368
-23.6981
-24.0121
-24.3097
-24.5905
-24.8545
-25.1014
-25.3312
-25.5438
-25.7392
-25.9174
-26.0782
-26.2216
-26.3476
-26.4563
-26.5482
-26.6229
-20.6406
-20.9913
-21.3303
-21.6555
-21.9657
-22.2601
-22.5387
-22.8011
-23.0473
-23.2772
-23.4908
-23.6881
-23.8692
-24.0339
-24.1822
-24.3143
-24.4299
-24.5292
-24.6127
-24.6801
-19.1661
-19.498
-19.8187
-20.1259
-20.4182
-20.6949
-20.9561
-21.2017
-21.4316
-21.646
-21.8448
-22.0282
-22.1961
-22.3485
-22.4855
-22.6071
-22.7133
-22.8041
-22.8795
-22.9401
-17.8404
-18.1558
-18.4606
-18.7519
-19.0279
-19.2886
-19.5339
-19.7641
-19.9792
-20.1793
-20.3647
-20.5353
-20.6913
-20.8326
-20.9593
-21.0714
-21.1689
-21.2518
-21.3198
-21.3744
-16.642
-16.9429
-17.2342
-17.5113
-17.7726
-18.0185
-18.2493
-18.4653
-18.6667
-18.8538
-19.0269
-19.1859
-19.3311
-19.4623
-19.5797
-19.6832
-19.7729
-19.8489
-19.9114
-19.9594
-15.5537
-15.8423
-16.1221
-16.3865
-16.6343
-16.8665
-17.0838
-17.2865
-17.4753
-17.6504
-17.8121
-17.9606
-18.0959
-18.2181
-18.327
-18.4229
-18.5056
-18.5752
-18.6316
-18.6749
-14.5608
-14.8409
-15.1114
-15.3639
-15.5988
-15.8181
-16.0225
-16.2129
-16.3898
-16.5537
-16.705
-16.8438
-16.9701
-17.084
-17.1853
-17.2742
-17.3505
-17.4144
-17.4657
-17.5046
-13.6456
-13.9246
-14.19
-14.431
-14.6533
-14.8601
-15.0523
-15.2309
-15.3967
-15.5504
-15.6921
-15.8221
-15.9402
-16.0466
-16.1411
-16.2237
-16.2944
-16.3531
-16.3999
-16.4348
-12.7875
-13.0707
-13.3374
-13.5691
-13.7793
-13.9745
-14.1555
-14.3235
-14.4796
-14.6243
-14.7578
-14.8802
-14.9915
-15.0916
-15.1804
-15.2578
-15.3239
-15.3785
-15.4216
-15.4535
-12
-12.2738
-12.5412
-12.768
-12.9681
-13.1519
-13.3224
-13.4809
-13.6283
-13.765
-13.8913
-14.0073
-14.1128
-14.2076
-14.2917
-14.3649
-14.4273
-14.4787
-14.5191
-14.5487
-11.4093
-11.6601
-11.888
-12.1048
-12.2932
-12.4591
-12.6131
-12.7574
-12.8914
-13.0156
-13.1304
-13.2356
-13.3312
-13.4168
-13.4925
-13.5581
-13.6135
-13.6587
-13.6936
-13.7181
-6.00732
-6.4987
-7.03714
-7.61962
-8.25255
-8.94333
-9.69962
-10.5309
-11.4493
-12.4705
-13.615
-14.9097
-16.3899
-18.1019
-20.1061
-22.4816
-25.3098
-28.6129
-32.6103
-38.6063
-6.27798
-6.78288
-7.33186
-7.9264
-8.57311
-9.27908
-10.0521
-10.9019
-11.8408
-12.885
-14.055
-15.3783
-16.8907
-18.6387
-20.6829
-23.1026
-25.9779
-29.3278
-33.3638
-39.3808
-6.55006
-7.06851
-7.62812
-8.23497
-8.89572
-9.61713
-10.4071
-11.2757
-12.2355
-13.3028
-14.4988
-15.8511
-17.3959
-19.1803
-21.2649
-23.7287
-26.6506
-30.0462
-34.1189
-40.1525
-6.82308
-7.35501
-7.92535
-8.54471
-9.21971
-9.95677
-10.764
-11.6515
-12.6324
-13.7232
-14.9453
-16.3268
-17.9043
-19.7252
-21.8503
-24.3582
-27.3265
-30.7677
-34.8782
-40.933
-7.09659
-7.64192
-8.22306
-8.85515
-9.54461
-10.2975
-11.1221
-12.0288
-13.031
-14.1453
-15.3938
-16.8046
-18.415
-20.2725
-22.4382
-24.9902
-28.0048
-31.4915
-35.6405
-41.7197
-7.37023
-7.92884
-8.52085
-9.16586
-9.86996
-10.6388
-11.4809
-12.407
-13.4306
-14.5687
-15.8436
-17.284
-18.9274
-20.8216
-23.0279
-25.624
-28.6847
-32.2168
-36.404
-42.5086
-7.64368
-8.2154
-8.81832
-9.47645
-10.1954
-10.9804
-11.8401
-12.7857
-13.8307
-14.9928
-16.2942
-17.7642
-19.4407
-21.3717
-23.6187
-26.2587
-29.3654
-32.9424
-37.1671
-43.2973
-7.91669
-8.50132
-9.11517
-9.78658
-10.5204
-11.3217
-12.1992
-13.1643
-14.2309
-15.4169
-16.7449
-18.2447
-19.9542
-21.9221
-24.2095
-26.8934
-30.0457
-33.6671
-37.9286
-44.0842
-8.18911
-8.78639
-9.41114
-10.096
-10.8449
-11.6624
-12.5577
-13.5423
-14.6306
-15.8405
-17.1952
-18.7246
-20.4672
-22.4718
-24.7996
-27.527
-30.7246
-34.39
-38.6873
-44.868
-8.46089
-9.0705
-9.70608
-10.4044
-11.1684
-12.0023
-12.9153
-13.9194
-15.0292
-16.263
-17.6443
-19.2032
-20.9788
-23.02
-25.388
-28.1587
-31.401
-35.1096
-39.4418
-45.6472
-8.73215
-9.35368
-9.99994
-10.7118
-11.4909
-12.3409
-13.2716
-14.2952
-15.4264
-16.6839
-18.0916
-19.68
-21.4883
-23.5659
-25.9738
-28.7872
-32.0738
-35.8249
-40.1909
-46.4202
-9.00317
-9.63611
-10.2928
-11.018
-11.812
-12.6782
-13.6263
-14.669
-15.8215
-17.1026
-18.5364
-20.154
-21.9949
-24.1085
-26.556
-29.4117
-32.7418
-36.5346
-40.9331
-47.1856
-9.27445
-9.91807
-10.5847
-11.3231
-12.1318
-13.0136
-13.979
-15.0406
-16.214
-17.5183
-18.9781
-20.6246
-22.4977
-24.647
-27.1335
-30.0309
-33.4038
-37.2375
-41.6673
-47.9422
-9.5467
-10.2
-10.8758
-11.627
-12.4499
-13.3471
-14.3292
-15.4094
-16.6033
-17.9305
-19.4158
-21.0909
-22.9958
-25.1803
-27.7053
-30.6438
-34.0586
-37.9322
-42.392
-48.6885
-9.82069
-10.4822
-11.1662
-11.9294
-12.766
-13.6779
-14.6763
-15.7746
-16.9887
-18.3384
-19.8488
-21.552
-23.4882
-25.7075
-28.2704
-31.2491
-34.705
-38.6177
-43.1062
-49.4235
-10.0974
-10.7649
-11.4556
-12.2298
-13.0794
-14.0055
-15.0197
-16.1355
-17.3693
-18.741
-20.2761
-22.0069
-23.9739
-26.2273
-28.8274
-31.8456
-35.3417
-39.2925
-43.8086
-50.1461
-10.3766
-11.047
-11.7425
-12.527
-13.3889
-14.3288
-15.3582
-16.4912
-17.7442
-19.1375
-20.6968
-22.4546
-24.4519
-26.7387
-29.3752
-32.432
-35.9673
-39.9554
-44.4982
-50.8557
-10.6575
-11.326
-12.0244
-12.8189
-13.6933
-14.6466
-15.6909
-16.8407
-18.1125
-19.5268
-21.1098
-22.8941
-24.9209
-27.2404
-29.9125
-33.0068
-36.5801
-40.6045
-45.1738
-51.5524
-10.933
-11.5936
-12.2952
-13.1023
-13.9902
-14.9572
-16.0163
-17.1826
-18.4729
-19.9078
-21.5139
-23.3241
-25.3798
-27.7312
-30.4378
-33.5685
-37.1785
-41.2383
-45.8343
-52.2375
-11.1844
-11.8298
-12.5504
-13.3782
-14.2804
-15.2604
-16.3339
-17.5163
-18.8246
-20.2796
-21.9081
-23.7436
-25.8273
-28.2097
-30.9497
-34.1153
-37.7604
-41.8534
-46.4749
-52.9126
-1.58533
-1.83927
-2.18714
-2.57607
-2.99462
-3.44815
-3.94299
-4.48505
-5.08182
-5.74358
-6.48425
-7.32288
-8.28559
-9.40843
-10.7423
-12.3615
-14.3558
-16.7863
-19.9614
-25.3562
-1.73851
-2.00889
-2.37524
-2.77011
-3.19209
-3.65097
-4.15272
-4.70286
-5.30905
-5.9818
-6.73532
-7.58897
-8.56932
-9.71294
-11.0713
-12.7192
-14.7464
-17.2124
-20.4198
-25.8283
-1.88605
-2.18051
-2.56002
-2.96303
-3.39276
-3.86003
-4.37073
-4.93055
-5.54753
-6.23252
-7.00006
-7.86989
-8.86906
-10.0346
-11.4187
-13.0963
-15.1571
-17.6585
-20.8974
-26.3146
-2.05588
-2.36117
-2.74889
-3.16063
-3.59956
-4.07638
-4.59711
-5.16775
-5.79664
-6.49495
-7.27757
-8.16464
-9.18367
-10.3723
-11.783
-13.4914
-15.5868
-18.1249
-21.3987
-26.8336
-2.23703
-2.54942
-2.94498
-3.36569
-3.81412
-4.30092
-4.83233
-5.41459
-6.05627
-6.76883
-7.56749
-8.47278
-9.51268
-10.7253
-12.1638
-13.9041
-16.0352
-18.6116
-21.9229
-27.3819
-2.42366
-2.74467
-3.14857
-3.57841
-4.03662
-4.53388
-5.07657
-5.67114
-6.32638
-7.05401
-7.86958
-8.79403
-9.85579
-11.0936
-12.5609
-14.3342
-16.5024
-19.1182
-22.4682
-27.9543
-2.6173
-2.94782
-3.35998
-3.79897
-4.26725
-4.77538
-5.32988
-5.93736
-6.60684
-7.3503
-8.18361
-9.12809
-10.2127
-11.4766
-12.9739
-14.7814
-16.9877
-19.6441
-23.0337
-28.5486
-2.81933
-3.15935
-3.57955
-4.02768
-4.50622
-5.02556
-5.5923
-6.21321
-6.89753
-7.65749
-8.5093
-9.47466
-10.583
-11.874
-13.4023
-15.2451
-17.4907
-20.1887
-23.6186
-29.1635
-3.02954
-3.3791
-3.80732
-4.26464
-4.7536
-5.28443
-5.86376
-6.49857
-7.19827
-7.97537
-8.84637
-9.83338
-10.9663
-12.2853
-13.8457
-15.7247
-18.0107
-20.7513
-24.2223
-29.798
-3.24732
-3.60675
-4.04308
-4.50968
-5.00926
-5.55184
-6.14412
-6.79324
-7.50884
-8.30365
-9.1945
-10.2039
-11.3622
-12.7101
-14.3034
-16.2198
-18.547
-21.3312
-24.8439
-30.4511
-3.47225
-3.84193
-4.28652
-4.76254
-5.27294
-5.82754
-6.43311
-7.09696
-7.82892
-8.642
-9.55333
-10.5858
-11.7702
-13.1479
-14.7751
-16.7297
-19.0991
-21.9276
-25.4826
-31.1217
-3.70393
-4.08426
-4.53726
-5.02286
-5.54431
-6.1112
-6.73039
-7.40937
-8.15816
-8.99002
-9.92242
-10.9786
-12.19
-13.5982
-15.2601
-17.2537
-19.6663
-22.5399
-26.1375
-31.8087
-3.94191
-4.33325
-4.79485
-5.29023
-5.82296
-6.40244
-7.03558
-7.73006
-8.49613
-9.34728
-10.3013
-11.3819
-12.6208
-14.0604
-15.7577
-17.7913
-20.2477
-23.1671
-26.8077
-32.5113
-4.18565
-4.58839
-5.0588
-5.56417
-6.10844
-6.7008
-7.34822
-8.05858
-8.84235
-9.71329
-10.6895
-11.7951
-13.0622
-14.5338
-16.2674
-18.3417
-20.8427
-23.8084
-27.4924
-33.2283
-4.43461
-4.84912
-5.32856
-5.84416
-6.40024
-7.00577
-7.66781
-8.39442
-9.1963
-10.0875
-11.0864
-12.2175
-13.5136
-15.0179
-16.7884
-18.9042
-21.4504
-24.4631
-28.1908
-33.9591
-4.68825
-5.11486
-5.60358
-6.12965
-6.69783
-7.31683
-7.99381
-8.73703
-9.55744
-10.4693
-11.4914
-12.6487
-13.9742
-15.5118
-17.32
-19.4778
-22.07
-25.1302
-28.9019
-34.7028
-4.94599
-5.38504
-5.88326
-6.42008
-7.00064
-7.63341
-8.32565
-9.08584
-9.92515
-10.8582
-11.9039
-13.0878
-14.4434
-16.0149
-17.8614
-20.0619
-22.7006
-25.8088
-29.625
-35.4588
-5.20731
-5.65908
-6.16703
-6.71486
-7.30809
-7.95495
-8.66276
-9.44026
-10.2988
-11.2534
-12.3233
-13.5342
-14.9203
-16.5264
-18.4117
-20.6554
-23.3411
-26.4978
-30.3592
-36.2268
-5.47164
-5.9364
-6.45431
-7.01343
-7.61961
-8.28083
-9.00453
-9.79966
-10.6779
-11.6543
-12.7487
-13.9872
-15.4043
-17.0454
-18.97
-21.2574
-23.9905
-27.196
-31.1035
-37.0074
-5.73849
-6.21646
-6.74456
-7.31522
-7.93465
-8.61053
-9.35039
-10.1635
-11.0616
-12.0603
-13.1797
-14.4461
-15.8946
-17.571
-19.5353
-21.8668
-24.6474
-27.9017
-31.855
-37.8013
-1.33753
-1.13081
-0.977015
-0.840274
-0.720195
-0.614237
-0.521285
-0.440546
-0.371519
-0.313844
-0.267257
-0.231545
-0.206537
-0.192099
-0.188093
-0.194305
-0.210518
-0.236863
-0.273527
-0.32028
-1.66734
-1.48389
-1.32613
-1.18416
-1.05925
-0.948818
-0.851898
-0.767685
-0.695665
-0.635461
-0.586791
-0.549434
-0.523206
-0.507956
-0.50354
-0.509785
-0.526534
-0.553801
-0.591681
-0.639836
-1.99981
-1.82424
-1.66649
-1.52338
-1.39634
-1.28373
-1.18485
-1.09902
-1.02576
-0.96472
-0.915619
-0.878234
-0.852381
-0.837903
-0.834652
-0.842475
-0.861252
-0.890932
-0.93137
-0.982829
-2.38347
-2.20624
-2.04545
-1.89938
-1.76876
-1.65264
-1.55055
-1.46193
-1.38636
-1.32352
-1.27313
-1.23496
-1.20883
-1.19456
-1.19201
-1.20102
-1.22149
-1.25332
-1.2964
-1.35077
-2.80212
-2.62243
-2.45767
-2.30765
-2.17281
-2.05263
-1.9468
-1.85488
-1.77653
-1.71144
-1.65935
-1.62004
-1.59332
-1.57902
-1.57697
-1.58703
-1.60907
-1.64299
-1.68867
-1.74608
-3.2533
-3.07038
-2.90144
-2.74708
-2.60779
-2.48334
-2.37357
-2.27815
-2.19682
-2.1293
-2.07536
-2.03478
-2.00738
-1.99297
-1.9914
-2.00252
-2.0262
-2.0623
-2.11069
-2.17132
-3.74318
-3.55552
-3.38167
-3.22238
-3.07818
-2.94908
-2.83501
-2.73576
-2.65114
-2.58091
-2.52486
-2.48279
-2.45453
-2.43989
-2.43871
-2.45085
-2.47615
-2.51448
-2.56569
-2.62976
-4.27855
-4.08467
-3.90481
-3.73972
-3.58992
-3.45555
-3.33662
-3.23305
-3.14466
-3.07129
-3.01274
-2.96885
-2.93943
-2.92431
-2.92334
-2.93635
-2.9632
-3.00374
-3.0578
-3.12537
-4.86709
-4.66556
-4.47846
-4.30649
-4.15017
-4.00971
-3.88521
-3.77662
-3.68385
-3.60677
-3.54521
-3.49902
-3.46803
-3.45208
-3.45101
-3.46466
-3.49288
-3.5355
-3.59237
-3.66347
-5.51896
-5.30819
-5.11244
-4.93232
-4.76834
-4.62076
-4.48972
-4.37525
-4.27729
-4.19574
-4.13048
-4.08137
-4.04825
-4.03096
-4.02935
-4.04327
-4.07256
-4.11703
-4.17653
-4.25107
-6.24789
-6.02608
-5.82
-5.63018
-5.45711
-5.3011
-5.16232
-5.04083
-4.93661
-4.84962
-4.77974
-4.72686
-4.69083
-4.67151
-4.66874
-4.68237
-4.71224
-4.75815
-4.81995
-4.89768
-7.0726
-6.83764
-6.6192
-6.41778
-6.23387
-6.06776
-5.91968
-5.7897
-5.67787
-5.58414
-5.50843
-5.45065
-5.41066
-5.38833
-5.38351
-5.39605
-5.42577
-5.47248
-5.53601
-5.61645
-8.01883
-7.76817
-7.53495
-7.3196
-7.12261
-6.94432
-6.78495
-6.64461
-6.52337
-6.42122
-6.33809
-6.27391
-6.22855
-6.20188
-6.19377
-6.20407
-6.23259
-6.27912
-6.34349
-6.42583
-9.12212
-8.85268
-8.60169
-8.36952
-8.15672
-7.96361
-7.79043
-7.63734
-7.50441
-7.39164
-7.29901
-7.22643
-7.17381
-7.14103
-7.12794
-7.1344
-7.16022
-7.20517
-7.26906
-7.35208
-10.4328
-10.1408
-9.86842
-9.61593
-9.38391
-9.1727
-8.98258
-8.81371
-8.66618
-8.54001
-8.43518
-8.35163
-8.28928
-8.24799
-8.22765
-8.22811
-8.24917
-8.29056
-8.35208
-8.43399
-12.0244
-11.7056
-11.4074
-11.1304
-10.8751
-10.6419
-10.431
-10.2427
-10.077
-9.93393
-9.81354
-9.71576
-9.64051
-9.58767
-9.55711
-9.5487
-9.56223
-9.59741
-9.65401
-9.7323
-13.9862
-13.6358
-13.3073
-13.0012
-12.7182
-12.4586
-12.2229
-12.011
-11.8232
-11.6595
-11.5198
-11.4041
-11.3124
-11.2445
-11.2004
-11.1799
-11.1828
-11.2088
-11.2577
-11.3294
-16.3799
-15.9939
-15.6308
-15.2917
-14.9772
-14.6877
-14.4235
-14.1848
-13.9715
-13.7837
-13.6214
-13.4846
-13.3733
-13.2874
-13.2268
-13.1913
-13.1809
-13.1953
-13.2343
-13.2969
-19.5164
-19.0906
-18.6885
-18.3129
-17.9639
-17.6417
-17.3461
-17.0773
-16.8353
-16.6199
-16.4312
-16.2692
-16.134
-16.0253
-15.9431
-15.8873
-15.8578
-15.855
-15.8785
-15.9264
-24.8531
-24.3822
-23.9457
-23.5406
-23.1647
-22.8171
-22.4973
-22.2052
-21.9407
-21.704
-21.4949
-21.3136
-21.1601
-21.0346
-20.9371
-20.8676
-20.827
-20.8174
-20.8403
-20.8854
-0.37704
-0.443484
-0.519571
-0.605222
-0.700352
-0.804854
-0.9186
-1.04142
-1.17312
-1.3134
-1.46191
-1.61811
-1.78121
-1.94999
-2.12279
-2.29732
-2.46912
-2.62839
-2.75974
-2.8896
-0.698473
-0.767196
-0.845925
-0.93455
-1.03297
-1.14105
-1.25864
-1.38556
-1.52157
-1.66636
-1.81953
-1.98051
-2.14854
-2.32245
-2.50062
-2.68141
-2.86304
-3.03779
-3.19045
-3.36279
-1.04497
-1.11754
-1.20049
-1.29369
-1.39701
-1.51031
-1.63342
-1.76614
-1.90819
-2.05926
-2.21891
-2.38659
-2.56154
-2.74274
-2.92883
-3.11862
-3.31114
-3.50202
-3.68552
-3.8916
-1.41634
-1.49277
-1.57999
-1.67786
-1.78623
-1.90495
-2.03383
-2.17263
-2.32107
-2.47882
-2.64542
-2.82032
-3.00283
-3.19203
-3.38684
-3.58641
-3.78992
-3.99506
-4.20233
-4.43213
-1.81517
-1.89561
-1.98731
-2.09009
-2.20381
-2.32829
-2.46332
-2.60865
-2.76399
-2.92897
-3.10317
-3.28604
-3.47695
-3.6751
-3.87968
-4.09009
-4.3057
-4.52548
-4.75207
-4.99862
-2.24425
-2.32899
-2.42548
-2.53357
-2.65307
-2.78379
-2.92552
-3.07798
-3.24088
-3.41386
-3.59649
-3.78827
-3.98861
-4.19686
-4.41241
-4.63483
-4.86375
-5.09892
-5.34312
-5.60419
-2.70673
-2.79598
-2.8976
-3.01136
-3.13708
-3.27455
-3.42354
-3.58378
-3.75497
-3.93675
-4.1287
-4.33037
-4.54124
-4.76077
-4.98848
-5.22408
-5.46736
-5.71853
-5.97981
-6.25564
-3.20638
-3.30052
-3.40757
-3.52736
-3.65971
-3.80442
-3.96123
-4.12989
-4.31009
-4.50149
-4.70368
-4.91626
-5.13876
-5.37072
-5.61178
-5.86172
-6.12043
-6.38825
-6.66675
-6.9584
-3.74878
-3.84783
-3.96051
-4.08661
-4.22597
-4.37836
-4.54354
-4.72125
-4.91117
-5.11299
-5.32633
-5.55081
-5.78601
-6.03156
-6.28714
-6.55256
-6.82778
-7.11308
-7.40945
-7.71828
-4.34065
-4.44465
-4.56316
-4.69577
-4.84241
-5.00286
-5.17688
-5.36418
-5.56449
-5.77748
-6.00281
-6.24013
-6.48906
-6.74927
-7.02049
-7.30254
-7.59535
-7.8991
-8.21434
-8.54186
-4.99136
-5.10026
-5.22439
-5.36371
-5.51781
-5.68657
-5.86976
-6.06711
-6.27833
-6.50313
-6.74118
-6.99217
-7.25574
-7.53161
-7.81949
-8.11922
-8.4307
-8.75394
-9.0892
-9.43695
-5.71384
-5.82733
-5.957
-6.10266
-6.26423
-6.44135
-6.63385
-6.84149
-7.06398
-7.30103
-7.55236
-7.81767
-8.09663
-8.38896
-8.69439
-9.01274
-9.34385
-9.68761
-10.044
-10.4135
-6.52623
-6.64367
-6.77834
-6.92997
-7.09847
-7.28392
-7.48566
-7.70345
-7.93723
-8.1867
-8.45159
-8.73159
-9.0264
-9.33575
-9.65937
-9.99705
-10.3486
-10.7137
-11.0923
-11.4847
-7.45436
-7.57468
-7.71339
-7.87021
-8.04491
-8.23749
-8.44874
-8.6759
-8.9206
-9.18219
-9.46045
-9.7551
-10.0658
-10.3924
-10.7345
-11.0919
-11.4643
-11.8514
-12.2529
-12.6691
-8.53643
-8.65794
-8.79906
-8.95959
-9.13937
-9.33791
-9.55475
-9.79213
-10.0475
-10.3202
-10.611
-10.9198
-11.2462
-11.5897
-11.9501
-12.3271
-12.7204
-13.1295
-13.5541
-13.9945
-9.83239
-9.95252
-10.0936
-10.2556
-10.4382
-10.6413
-10.8642
-11.107
-11.3699
-11.6535
-11.9562
-12.2783
-12.6194
-12.9788
-13.3562
-13.7517
-14.1649
-14.5955
-15.0426
-15.5067
-11.4238
-11.5394
-11.6776
-11.8383
-12.0211
-12.2259
-12.4522
-12.7001
-12.9692
-13.2599
-13.5727
-13.9065
-14.2595
-14.6311
-15.0223
-15.4338
-15.865
-16.3152
-16.7834
-17.2694
-13.3814
-13.4894
-13.6217
-13.7778
-13.9565
-14.1582
-14.3832
-14.6311
-14.9018
-15.1948
-15.5094
-15.8458
-16.2057
-16.5898
-16.9962
-17.4235
-17.8715
-18.3397
-18.8272
-19.333
-15.9966
-16.0885
-16.2045
-16.346
-16.5143
-16.7087
-16.9283
-17.1728
-17.4419
-17.7351
-18.0518
-18.3918
-18.7552
-19.1427
-19.5541
-19.9887
-20.4465
-20.928
-21.4332
-21.9571
-20.9271
-20.9995
-21.1028
-21.2347
-21.394
-21.5802
-21.7926
-22.0309
-22.2948
-22.5838
-22.8979
-23.237
-23.6012
-23.9908
-24.4058
-24.8463
-25.3134
-25.811
-26.3416
-26.8874
-27.4042
-22.4917
-19.8566
-17.7734
-15.9877
-14.4506
-13.0999
-11.8907
-10.7958
-9.79711
-8.88159
-8.03953
-7.26332
-6.54673
-5.88458
-5.27234
-4.70476
-4.17626
-3.69531
-3.29091
-27.9489
-23.0426
-20.396
-18.2925
-16.4829
-14.9202
-13.5435
-12.3088
-11.1895
-10.1681
-9.23184
-8.37107
-7.57837
-6.84765
-6.1739
-5.55267
-4.97926
-4.45125
-3.9818
-3.57932
-28.5222
-23.6123
-20.9525
-18.8276
-16.9929
-15.4033
-13.9995
-12.7384
-11.5941
-10.5493
-9.59169
-8.71172
-7.90202
-7.15654
-6.47022
-5.83855
-5.25691
-4.72301
-4.24643
-3.82443
-29.12
-24.2016
-21.5263
-19.3785
-17.5171
-15.8994
-14.4673
-13.1788
-12.0086
-10.9397
-9.96004
-9.06014
-8.23259
-7.47125
-6.77083
-6.12656
-5.53356
-4.9889
-4.49931
-4.05858
-29.7389
-24.8098
-22.1166
-19.9447
-18.055
-16.4077
-14.9462
-13.6293
-12.4323
-11.3385
-10.336
-9.41545
-8.56927
-7.79114
-7.07557
-6.41746
-5.81162
-5.25456
-4.75118
-4.2943
-30.3777
-25.4374
-22.7216
-20.525
-18.6057
-16.9275
-15.4355
-14.0892
-12.8644
-11.745
-10.719
-9.777
-8.91148
-8.11586
-7.3844
-6.71172
-6.09241
-5.52262
-5.00595
-4.53499
-31.0351
-26.083
-23.341
-21.1185
-19.1684
-17.458
-15.9343
-14.5576
-13.3043
-12.1584
-11.1082
-10.1443
-9.2589
-8.44532
-7.69756
-7.01002
-6.37713
-5.79481
-5.26556
-4.7819
-31.7098
-26.7444
-23.9745
-21.7244
-19.7422
-17.9984
-16.4419
-15.0339
-13.7512
-12.5782
-11.5032
-10.5169
-9.61122
-8.77937
-8.01511
-7.31263
-6.66624
-6.07166
-5.5304
-5.03497
-32.4005
-27.4203
-24.6213
-22.3419
-20.3262
-18.5478
-16.9575
-15.5172
-14.2044
-13.0037
-11.9035
-10.8943
-9.9681
-9.1178
-8.33695
-7.61955
-6.95978
-6.35317
-5.80032
-5.2937
-33.1059
-28.1094
-25.2803
-22.97
-20.9195
-19.1053
-17.4802
-16.0068
-14.6632
-13.4342
-12.3084
-11.2761
-10.3291
-9.46026
-8.66279
-7.9305
-7.25746
-6.639
-6.07479
-5.55736
-33.8248
-28.8107
-25.9506
-23.6078
-21.5211
-19.6701
-18.0091
-16.5019
-15.1269
-13.8692
-12.7173
-11.6616
-10.6938
-9.8063
-8.99219
-8.24507
-7.55883
-6.92859
-6.35318
-5.82515
-34.556
-29.5231
-26.6309
-24.2541
-22.13
-20.2411
-18.5435
-17.0017
-15.5947
-14.3078
-13.1296
-12.0504
-11.0616
-10.1554
-9.32463
-8.5627
-7.86331
-7.22133
-6.63477
-6.0963
-35.2985
-30.2453
-27.3201
-24.9079
-22.7453
-20.8174
-19.0823
-17.5052
-16.0657
-14.7494
-13.5446
-12.4417
-11.4318
-10.5069
-9.65951
-8.88279
-8.17027
-7.51654
-6.91885
-6.37002
-36.0512
-30.9763
-28.017
-25.5681
-23.3657
-21.398
-19.6245
-18.0117
-16.5392
-15.193
-13.9616
-12.8349
-11.8038
-10.8602
-9.9962
-9.20471
-8.47904
-7.81355
-7.20471
-6.64559
-36.8129
-31.7148
-28.7204
-26.2335
-23.9903
-21.9817
-20.1693
-18.52
-17.0143
-15.6381
-14.3798
-13.2292
-12.177
-11.2146
-10.334
-9.52778
-8.78898
-8.11168
-7.49167
-6.92232
-37.5824
-32.4595
-29.4289
-26.9029
-24.6177
-22.5675
-20.7155
-19.0294
-17.49
-16.0836
-14.7983
-13.6238
-12.5505
-11.5695
-10.6723
-9.85136
-9.09943
-8.41028
-7.77907
-7.19957
-38.3592
-33.2092
-30.1413
-27.5749
-25.2469
-23.1543
-21.262
-19.5387
-17.9655
-16.5287
-15.2165
-14.0181
-12.9237
-11.9241
-11.0104
-10.1748
-9.40973
-8.70873
-8.06629
-7.47673
-39.1449
-33.9635
-30.856
-28.2479
-25.8762
-23.7406
-21.8076
-20.0468
-18.4397
-16.9725
-15.6334
-14.4112
-13.2958
-12.2777
-11.3476
-10.4974
-9.71924
-9.00639
-8.35272
-7.75324
-39.9394
-34.7211
-31.571
-28.9203
-26.5044
-24.3253
-22.3514
-20.5529
-18.9118
-17.4143
-16.0482
-14.8024
-13.6662
-12.6296
-11.6832
-10.8185
-10.0274
-9.30266
-8.63781
-8.02859
-40.7302
-35.477
-32.2849
-29.5912
-27.1308
-24.908
-22.8929
-21.0566
-19.3813
-17.8535
-16.4607
-15.1913
-14.0343
-12.9794
-12.0169
-11.1377
-10.3336
-9.5971
-8.92109
-8.30231
-6.78101
-4.67491
-3.3146
-2.26899
-1.53438
-0.994839
-0.607282
-0.332129
-0.141062
-0.0123363
0.0706732
0.120599
0.147025
0.157111
0.156168
0.148071
0.135632
0.120853
0.105141
0.0894664
0.0744723
0.06057
0.047996
0.0368698
0.0272128
0.0190047
0.0121516
0.00658896
0.00214711
-0.00120317
-0.0037246
-0.0053099
-0.00640643
-0.00660444
-0.00673784
-0.00581254
-0.00540441
-0.0034891
-0.00294522
3.72268e-05
-7.03671
-4.8573
-3.46086
-2.38416
-1.62544
-1.06848
-0.667353
-0.381755
-0.182443
-0.0470946
0.0413366
0.0957627
0.12597
0.139258
0.141046
0.135283
0.124844
0.111777
0.0975335
0.0831129
0.0691891
0.0561973
0.044395