/*--------------------------------*- C++ -*----------------------------------*\
  =========                 |
  \\      /  F ield         | OpenFOAM: The Open Source CFD Toolbox
   \\    /   O peration     | Website:  https://openfoam.org
    \\  /    A nd           | Version:  6.0
     \\/     M anipulation  |
\*---------------------------------------------------------------------------*/
FoamFile
{
    version     2.0;
    format      ascii;
    class       volScalarField;
    location    "21.5";
    object      p;
}
// * * * * * * * * * * * * * * * * * * * * * * * * * * * * * * * * * * * * * //

dimensions      [0 2 -2 0 0 0 0];

internalField   nonuniform List<scalar> 
19200
(
-41.3344
-37.7705
-35.1968
-33.071
-31.1038
-29.289
-27.6109
-26.0479
-24.5856
-23.2146
-21.9278
-20.7194
-19.5844
-18.5185
-17.5177
-16.5782
-15.6964
-14.8687
-14.0918
-13.3625
-12.6775
-12.034
-11.4291
-10.8602
-10.3249
-9.8209
-9.3461
-8.89857
-8.47643
-8.07902
-41.8051
-38.2424
-35.6599
-33.5197
-31.5355
-29.7024
-28.0056
-26.4239
-24.9434
-23.555
-22.2518
-21.028
-19.8787
-18.7996
-17.7866
-16.836
-15.9439
-15.1069
-14.3214
-13.5842
-12.892
-12.2418
-11.6307
-11.0561
-10.5154
-10.0063
-9.52677
-9.07467
-8.64805
-8.24707
-42.2811
-38.7138
-36.1214
-33.9666
-31.9653
-30.1139
-28.3983
-26.7978
-25.2991
-23.8933
-22.5736
-21.3344
-20.1709
-19.0786
-18.0536
-17.0919
-16.1897
-15.3434
-14.5494
-13.8043
-13.1049
-12.4481
-11.8309
-11.2505
-10.7045
-10.1904
-9.70613
-9.24949
-8.81838
-8.4139
-42.7593
-39.1852
-36.5816
-34.4118
-32.3932
-30.5232
-28.7886
-27.1693
-25.6524
-24.2292
-22.8931
-21.6386
-20.4608
-19.3555
-18.3184
-17.3457
-16.4335
-15.5779
-14.7755
-14.0227
-13.3162
-12.6528
-12.0295
-11.4434
-10.8921
-10.373
-9.88404
-9.42286
-8.98728
-8.57939
-43.2378
-39.6558
-37.0401
-34.855
-32.8188
-30.9301
-29.1765
-27.5383
-26.003
-24.5624
-23.2099
-21.9401
-20.7482
-19.6299
-18.5809
-17.5973
-16.6751
-15.8104
-14.9996
-14.2392
-13.5256
-12.8557
-12.2263
-11.6347
-11.078
-10.554
-10.0604
-9.59467
-9.15464
-8.74342
-43.7153
-40.1252
-37.4969
-35.2959
-33.2419
-31.3343
-29.5615
-27.9044
-26.3508
-24.8928
-23.5239
-22.2389
-21.0329
-19.9017
-18.8409
-17.8464
-16.9143
-16.0406
-15.2216
-14.4535
-13.733
-13.0566
-12.4213
-11.8241
-11.2622
-10.7333
-10.235
-9.76481
-9.32035
-8.90589
-44.1912
-40.5926
-37.9514
-35.7343
-33.6622
-31.7356
-29.9435
-28.2674
-26.6954
-25.22
-23.8348
-22.5346
-21.3147
-20.1706
-19.098
-18.0929
-17.151
-16.2684
-15.4412
-14.6656
-13.9382
-13.2555
-12.6142
-12.0115
-11.4445
-10.9107
-10.4079
-9.93317
-9.48431
-9.06671
-44.6649
-41.0577
-38.4032
-36.1699
-34.0795
-32.1337
-30.3222
-28.6269
-27.0367
-25.5438
-24.1424
-22.8271
-21.5933
-20.4364
-19.3523
-18.3365
-17.3849
-16.4935
-15.6582
-14.8753
-14.1411
-13.4521
-12.805
-12.1968
-11.6248
-11.0862
-10.5788
-10.0996
-9.64642
-9.22578
-45.1358
-41.5199
-38.8521
-36.6022
-34.4934
-32.5283
-30.6972
-28.9829
-27.3743
-25.8641
-24.4464
-23.1161
-21.8685
-20.699
-19.6033
-18.5771
-17.616
-16.7158
-15.8726
-15.0824
-14.3415
-13.6463
-12.9935
-12.38
-11.8029
-11.2596
-10.7476
-10.2641
-9.80657
-9.38302
-45.6036
-41.9789
-39.2976
-37.0309
-34.9036
-32.919
-31.0684
-29.3349
-27.708
-26.1804
-24.7466
-23.4014
-22.1401
-20.9582
-19.8511
-18.8145
-17.8439
-16.9352
-16.0841
-15.2868
-14.5392
-13.8379
-13.1795
-12.5607
-11.9787
-11.4307
-10.9144
-10.4265
-9.96468
-9.53833
-46.0678
-42.4343
-39.7393
-37.4558
-35.3098
-33.3057
-31.4354
-29.6828
-28.0375
-26.4927
-25.0428
-23.6828
-22.4079
-21.2136
-20.0953
-19.0484
-18.0686
-17.1514
-16.2926
-15.4882
-14.7342
-14.0269
-13.3629
-12.7389
-12.152
-11.5995
-11.0788
-10.5867
-10.1207
-9.69163
-46.5281
-42.8857
-40.1769
-37.8765
-35.7116
-33.6879
-31.798
-30.0262
-28.3626
-26.8006
-25.3348
-23.9601
-22.6718
-21.4652
-20.3358
-19.2788
-18.2898
-17.3643
-16.4979
-15.6865
-14.9261
-14.213
-13.5436
-12.9145
-12.3229
-11.7659
-11.2409
-10.7445
-10.2744
-9.84284
-46.9841
-43.3328
-40.6101
-38.2926
-36.1089
-34.0655
-32.1559
-30.3649
-28.6831
-27.104
-25.6223
-24.233
-22.9314
-21.7127
-20.5723
-19.5054
-18.5074
-17.5737
-16.6999
-15.8817
-15.115
-14.3961
-13.7213
-13.0873
-12.491
-11.9296
-11.4005
-10.9
-10.4258
-9.99185
-47.4355
-43.7752
-41.0386
-38.704
-36.5012
-34.438
-32.5087
-30.6986
-28.9986
-27.4025
-25.905
-24.5013
-23.1865
-21.9559
-20.8047
-19.728
-18.7212
-17.7794
-16.8982
-16.0733
-15.3006
-14.576
-13.896
-13.2571
-12.6563
-12.0906
-11.5574
-11.0529
-10.5747
-10.1386
-47.8819
-44.2127
-41.462
-39.1101
-36.8883
-34.8054
-32.8564
-31.0272
-29.309
-27.696
-26.1829
-24.7649
-23.4371
-22.1947
-21.0328
-19.9465
-18.9309
-17.9812
-17.0929
-16.2614
-15.4826
-14.7525
-14.0674
-13.4239
-12.8186
-12.2487
-11.7116
-11.2031
-10.7211
-10.2829
-48.3231
-44.6449
-41.8801
-39.5109
-37.2699
-35.1672
-33.1985
-31.3502
-29.614
-27.9842
-26.4556
-25.0234
-23.6828
-22.4287
-21.2563
-20.1605
-19.1364
-18.1789
-17.2835
-16.4457
-15.661
-14.9255
-14.2355
-13.5873
-12.9777
-12.4038
-11.8628
-11.3506
-10.8648
-10.4247
-48.7588
-45.0716
-42.2926
-39.9059
-37.6458
-35.5232
-33.5348
-31.6676
-29.9134
-28.2669
-26.7229
-25.2768
-23.9234
-22.6579
-21.4752
-20.37
-19.3374
-18.3724
-17.4701
-16.6259
-15.8355
-15.0948
-14.3999
-13.7472
-13.1334
-12.5556
-12.011
-11.495
-11.0056
-10.5639
-49.1887
-45.4925
-42.6993
-40.2951
-38.0157
-35.8733
-33.8652
-31.979
-30.207
-28.5439
-26.9847
-25.5247
-24.1588
-22.882
-21.6891
-20.5748
-19.5339
-18.5614
-17.6523
-16.802
-16.0059
-15.2601
-14.5604
-13.9033
-13.2855
-12.704
-12.1558
-11.6363
-11.1434
-10.7001
-49.6127
-45.9074
-43.0998
-40.678
-38.3793
-36.217
-34.1893
-32.2843
-30.4945
-28.815
-27.2407
-25.767
-24.3888
-23.1008
-21.8979
-20.7746
-19.7256
-18.7457
-17.83
-16.9736
-16.172
-15.4211
-14.7169
-14.0556
-13.4338
-12.8487
-12.297
-11.7741
-11.2779
-10.8334
-50.0306
-46.3161
-43.4941
-41.0546
-38.7365
-36.5543
-34.507
-32.5832
-30.7758
-29.0799
-27.4908
-26.0036
-24.6131
-23.3142
-22.1014
-20.9692
-19.9122
-18.9251
-18.0029
-17.1405
-16.3336
-15.5778
-14.869
-14.2035
-13.578
-12.9893
-12.4344
-11.9083
-11.4089
-10.9633
-50.4422
-46.7184
-43.8818
-41.4245
-39.087
-36.8849
-34.818
-32.8755
-31.0506
-29.3386
-27.7347
-26.2341
-24.8317
-23.522
-22.2994
-21.1585
-20.0937
-19.0995
-18.1708
-17.3026
-16.4904
-15.7297
-15.0165
-14.347
-13.7177
-13.1257
-12.5677
-12.0384
-11.5359
-11.0895
-50.8476
-47.1142
-44.2629
-41.7876
-39.4305
-37.2085
-35.1221
-33.161
-31.3188
-29.5907
-27.9723
-26.4586
-25.0443
-23.7239
-22.4919
-21.3423
-20.2698
-19.2686
-18.3336
-17.4596
-16.6422
-15.8767
-15.1591
-14.4856
-13.8527
-13.2574
-12.6963
-12.1641
-11.6587
-11.2116
-51.2467
-47.5035
-44.6371
-42.1436
-39.7669
-37.525
-35.4192
-33.4396
-31.5801
-29.8363
-28.2035
-26.6768
-25.2508
-23.92
-22.6785
-21.5205
-20.4403
-19.4323
-18.491
-17.6113
-16.7886
-16.0184
-15.2965
-14.6191
-13.9826
-13.384
-12.82
-12.2849
-11.7767
-11.329
-51.6399
-47.886
-45.0042
-42.4924
-40.096
-37.8341
-35.7089
-33.7109
-31.8344
-30.0749
-28.428
-26.8885
-25.4511
-24.11
-22.8592
-21.693
-20.6052
-19.5903
-18.6428
-17.7576
-16.9297
-16.1547
-15.4284
-14.747
-14.1069
-13.5051
-12.9382
-12.4004
-11.8894
-11.4415
-52.0271
-48.2618
-45.3641
-42.8336
-40.4173
-38.1356
-35.9911
-33.9749
-32.0815
-30.3067
-28.6458
-27.0938
-25.6451
-24.2938
-23.034
-21.8596
-20.7644
-19.7428
-18.7891
-17.8981
-17.065
-16.2852
-15.5545
-14.869
-14.2252
-13.6201
-13.0503
-12.5097
-11.9961
-11.5482
-52.4088
-48.6304
-45.7163
-43.167
-40.7308
-38.4292
-36.2656
-34.2314
-32.3214
-30.5314
-28.8568
-27.2924
-25.8327
-24.4715
-23.2028
-22.0203
-20.9178
-19.8895
-18.9296
-18.033
-17.1946
-16.4099
-15.6746
-14.9849
-14.3372
-13.7285
-13.1556
-12.612
-12.0957
-11.6472
-52.7859
-48.992
-46.0607
-43.4923
-41.0361
-38.7146
-36.532
-34.4801
-32.5537
-30.7488
-29.0608
-27.4844
-26.0138
-24.643
-23.3656
-22.1751
-21.0654
-20.0305
-19.0645
-18.1621
-17.3184
-16.5286
-15.7885
-15.0944
-14.4425
-13.8301
-13.2538
-12.7072
-12.1875
-11.7364
-53.1631
-49.3478
-46.3967
-43.8087
-41.3324
-38.9912
-36.79
-34.7206
-32.7782
-30.9588
-29.2577
-27.6696
-26.1885
-24.8082
-23.5223
-22.3241
-21.2073
-20.1658
-19.1937
-18.2856
-17.4364
-16.6413
-15.8963
-15.1973
-14.541
-13.9244
-13.3446
-12.7946
-12.271
-11.8204
-53.5435
-49.6974
-46.7228
-44.1149
-41.6191
-39.2588
-37.0393
-34.953
-32.995
-31.1614
-29.4476
-27.848
-26.3567
-24.9673
-23.673
-22.4673
-21.3436
-20.2957
-19.3176
-18.4036
-17.5488
-16.7483
-15.9979
-15.2935
-14.6318
-14.0101
-13.4249
-12.8691
-12.343
-11.9051
-53.9035
-50.0314
-47.0364
-44.4105
-41.8967
-39.5182
-37.281
-35.1781
-33.2049
-31.3575
-29.6312
-28.0205
-26.5193
-25.1209
-23.8186
-22.6055
-21.4751
-20.4208
-19.4367
-18.517
-17.6566
-16.8505
-16.0942
-15.3838
-14.7156
-14.0864
-13.4916
-12.9252
-12.3972
-11.9632
-59.0447
-59.0308
-58.9958
-58.9546
-58.9056
-58.8459
-58.7749
-58.6925
-58.5986
-58.4931
-58.3761
-58.2476
-58.1076
-57.9563
-57.7937
-57.6202
-57.4357
-57.2405
-57.0348
-56.8189
-56.5928
-56.3568
-56.1113
-55.8565
-55.5928
-55.3208
-55.0413
-54.7558
-54.4674
-54.1805
-54.9747
-54.9765
-54.9604
-54.9327
-54.8937
-54.8428
-54.7797
-54.7048
-54.6182
-54.5199
-54.41
-54.2887
-54.156
-54.012
-53.8569
-53.6909
-53.5141
-53.3266
-53.1288
-52.9207
-52.7026
-52.4747
-52.2372
-51.9904
-51.7347
-51.4704
-51.1981
-50.9182
-50.6314
-50.3362
-51.6483
-51.6619
-51.6602
-51.6448
-51.6168
-51.5765
-51.5241
-51.4598
-51.3838
-51.2962
-51.1971
-51.0867
-50.9651
-50.8324
-50.6887
-50.5343
-50.3693
-50.1938
-50.008
-49.8121
-49.6063
-49.3908
-49.1657
-48.9313
-48.6879
-48.4355
-48.1744
-47.9046
-47.6259
-47.3368
-48.6326
-48.6552
-48.6641
-48.6597
-48.6426
-48.6134
-48.5723
-48.5195
-48.4552
-48.3795
-48.2926
-48.1946
-48.0857
-47.9659
-47.8354
-47.6944
-47.543
-47.3814
-47.2097
-47.0281
-46.8368
-46.6358
-46.4254
-46.2058
-45.977
-45.7392
-45.4924
-45.2365
-44.9713
-44.6962
-45.7216
-45.7514
-45.769
-45.774
-45.7668
-45.7478
-45.7172
-45.6754
-45.6223
-45.5582
-45.4832
-45.3975
-45.3011
-45.1943
-45.0771
-44.9497
-44.8123
-44.6649
-44.5077
-44.3409
-44.1645
-43.9788
-43.7839
-43.5799
-43.3668
-43.1447
-42.9137
-42.6736
-42.4244
-42.1655
-42.9677
-43.0032
-43.0275
-43.04
-43.0409
-43.0304
-43.0089
-42.9765
-42.9334
-42.8796
-42.8154
-42.7409
-42.6561
-42.5613
-42.4565
-42.3419
-42.2176
-42.0838
-41.9405
-41.7879
-41.6262
-41.4554
-41.2756
-41.0869
-40.8895
-40.6832
-40.4682
-40.2444
-40.0116
-39.7697
-40.3925
-40.432
-40.4611
-40.4792
-40.4862
-40.4824
-40.4682
-40.4435
-40.4086
-40.3636
-40.3086
-40.2437
-40.169
-40.0848
-39.991
-39.8878
-39.7754
-39.6539
-39.5233
-39.3838
-39.2355
-39.0785
-38.9129
-38.7388
-38.5562
-38.3651
-38.1655
-37.9575
-37.7408
-37.5155
-37.996
-38.0378
-38.0699
-38.0917
-38.103
-38.1042
-38.0954
-38.0767
-38.0483
-38.0103
-37.9628
-37.9058
-37.8397
-37.7643
-37.6799
-37.5867
-37.4846
-37.3738
-37.2544
-37.1265
-36.9903
-36.8458
-36.693
-36.5321
-36.3631
-36.186
-36.0009
-35.8076
-35.6061
-35.3964
-35.7742
-35.817
-35.8507
-35.8746
-35.8887
-35.8932
-35.8882
-35.8739
-35.8504
-35.8177
-35.7761
-35.7255
-35.6662
-35.5981
-35.5216
-35.4365
-35.3431
-35.2415
-35.1318
-35.014
-34.8883
-34.7547
-34.6133
-34.4643
-34.3075
-34.143
-33.9709
-33.7911
-33.6036
-33.4083
-33.7204
-33.763
-33.797
-33.8218
-33.8374
-33.8438
-33.8414
-33.8301
-33.81
-33.7814
-33.7441
-33.6985
-33.6445
-33.5824
-33.5121
-33.4338
-33.3477
-33.2537
-33.1521
-33.0429
-32.9262
-32.8021
-32.6707
-32.5319
-32.3859
-32.2327
-32.0723
-31.9047
-31.7297
-31.5474
-31.8249
-31.8665
-31.8999
-31.9247
-31.9406
-31.948
-31.947
-31.9376
-31.9199
-31.894
-31.86
-31.8181
-31.7683
-31.7107
-31.6454
-31.5726
-31.4923
-31.4047
-31.3099
-31.2079
-31.0989
-30.9829
-30.86
-30.7302
-30.5937
-30.4504
-30.3003
-30.1434
-29.9796
-29.8091
-30.0764
-30.1164
-30.1486
-30.1726
-30.1883
-30.1958
-30.1953
-30.1869
-30.1707
-30.1467
-30.115
-30.0757
-30.029
-29.975
-29.9137
-29.8452
-29.7697
-29.6873
-29.5981
-29.5021
-29.3995
-29.2904
-29.1748
-29.0529
-28.9245
-28.7898
-28.6488
-28.5015
-28.3477
-28.1876
-28.4632
-28.5012
-28.5317
-28.5545
-28.5693
-28.5764
-28.5759
-28.5679
-28.5524
-28.5296
-28.4994
-28.4621
-28.4177
-28.3663
-28.3081
-28.2431
-28.1715
-28.0933
-28.0087
-27.9178
-27.8206
-27.7173
-27.608
-27.4927
-27.3715
-27.2444
-27.1114
-26.9724
-26.8275
-26.6766
-26.9735
-27.0092
-27.0379
-27.059
-27.0727
-27.079
-27.0781
-27.07
-27.0548
-27.0325
-27.0034
-26.9674
-26.9247
-26.8754
-26.8195
-26.7573
-26.6888
-26.6141
-26.5333
-26.4466
-26.354
-26.2557
-26.1517
-26.0422
-25.9272
-25.8066
-25.6807
-25.5492
-25.4122
-25.2696
-25.596
-25.6294
-25.656
-25.6754
-25.6877
-25.693
-25.6913
-25.6828
-25.6676
-25.6456
-25.617
-25.5819
-25.5405
-25.4927
-25.4387
-25.3787
-25.3127
-25.2408
-25.1632
-25.08
-24.9913
-24.8973
-24.7979
-24.6934
-24.5838
-24.4691
-24.3494
-24.2246
-24.0946
-23.9594
-24.3201
-24.3512
-24.3757
-24.3933
-24.4042
-24.4083
-24.4057
-24.3967
-24.3811
-24.3591
-24.3309
-24.2964
-24.2558
-24.2092
-24.1567
-24.0984
-24.0345
-23.965
-23.8901
-23.8099
-23.7245
-23.6341
-23.5388
-23.4386
-23.3338
-23.2242
-23.1101
-22.9912
-22.8677
-22.7393
-23.1363
-23.165
-23.1875
-23.2034
-23.2127
-23.2156
-23.2121
-23.2023
-23.1863
-23.1642
-23.1361
-23.102
-23.0621
-23.0164
-22.9651
-22.9082
-22.846
-22.7785
-22.7059
-22.6282
-22.5457
-22.4585
-22.3667
-22.2704
-22.1697
-22.0648
-21.9556
-21.8422
-21.7245
-21.6023
-22.0357
-22.0622
-22.0827
-22.0968
-22.1047
-22.1063
-22.1019
-22.0914
-22.0749
-22.0526
-22.0244
-21.9906
-21.9511
-21.9062
-21.8558
-21.8002
-21.7395
-21.6737
-21.603
-21.5276
-21.4476
-21.3631
-21.2744
-21.1815
-21.0846
-20.9838
-20.8792
-20.7707
-20.6583
-20.5419
-21.0105
-21.0349
-21.0535
-21.066
-21.0724
-21.0729
-21.0674
-21.0562
-21.0393
-21.0166
-20.9884
-20.9547
-20.9157
-20.8713
-20.8218
-20.7672
-20.7077
-20.6434
-20.5745
-20.501
-20.4232
-20.3412
-20.2551
-20.1653
-20.0718
-19.9747
-19.8742
-19.7704
-19.663
-19.552
-20.0536
-20.0761
-20.0929
-20.1038
-20.1089
-20.1082
-20.1019
-20.09
-20.0725
-20.0496
-20.0213
-19.9877
-19.949
-19.9051
-19.8563
-19.8027
-19.7443
-19.6813
-19.6138
-19.5421
-19.4662
-19.3864
-19.3028
-19.2157
-19.1252
-19.0315
-18.9349
-18.8352
-18.7326
-18.6267
-19.1588
-19.1794
-19.1946
-19.2041
-19.2079
-19.2062
-19.199
-19.1864
-19.1685
-19.1453
-19.1169
-19.0834
-19.045
-19.0016
-18.9534
-18.9006
-18.8432
-18.7814
-18.7153
-18.6451
-18.571
-18.4931
-18.4117
-18.327
-18.2392
-18.1486
-18.0555
-17.9598
-17.8617
-17.7608
-18.3205
-18.3395
-18.3531
-18.3612
-18.3639
-18.3613
-18.3533
-18.3401
-18.3217
-18.2983
-18.2698
-18.2364
-18.1982
-18.1553
-18.1077
-18.0556
-17.9991
-17.9384
-17.8735
-17.8047
-17.7322
-17.656
-17.5765
-17.494
-17.4087
-17.3209
-17.231
-17.139
-17.0452
-16.9493
-17.5339
-17.5513
-17.5635
-17.5704
-17.572
-17.5685
-17.5598
-17.5461
-17.5273
-17.5036
-17.4751
-17.4418
-17.4039
-17.3613
-17.3143
-17.2629
-17.2073
-17.1476
-17.0838
-17.0163
-16.9451
-16.8705
-16.7928
-16.7122
-16.629
-16.5437
-16.4567
-16.3682
-16.2785
-16.1875
-16.7945
-16.8105
-16.8214
-16.8272
-16.8279
-16.8235
-16.8142
-16.8
-16.7809
-16.757
-16.7285
-16.6953
-16.6576
-16.6154
-16.569
-16.5182
-16.4634
-16.4045
-16.3419
-16.2755
-16.2056
-16.1324
-16.0561
-15.9772
-15.8959
-15.8128
-15.7283
-15.643
-15.5573
-15.4712
-16.0986
-16.1132
-16.123
-16.1277
-16.1275
-16.1224
-16.1125
-16.0979
-16.0785
-16.0545
-16.0259
-15.9929
-15.9554
-15.9137
-15.8677
-15.8176
-15.7635
-15.7055
-15.6438
-15.5785
-15.5097
-15.4377
-15.3628
-15.2853
-15.2056
-15.1243
-15.042
-14.9596
-14.8777
-14.7965
-15.4426
-15.456
-15.4647
-15.4685
-15.4674
-15.4617
-15.4513
-15.4362
-15.4166
-15.3925
-15.3639
-15.331
-15.2938
-15.2524
-15.2069
-15.1574
-15.104
-15.0468
-14.986
-14.9216
-14.8539
-14.783
-14.7092
-14.6329
-14.5544
-14.4745
-14.394
-14.3138
-14.2354
-14.1593
-14.8236
-14.8359
-14.8435
-14.8464
-14.8446
-14.8382
-14.8273
-14.8118
-14.792
-14.7677
-14.7391
-14.7063
-14.6693
-14.6283
-14.5832
-14.5342
-14.4814
-14.4249
-14.3648
-14.3012
-14.2343
-14.1643
-14.0914
-14.016
-13.9384
-13.8594
-13.7799
-13.7014
-13.6256
-13.5543
-14.2387
-14.2501
-14.2569
-14.2591
-14.2567
-14.2499
-14.2386
-14.2229
-14.2029
-14.1786
-14.1501
-14.1174
-14.0807
-14.04
-13.9954
-13.9469
-13.8947
-13.8388
-13.7794
-13.7166
-13.6505
-13.5812
-13.509
-13.4342
-13.3571
-13.2785
-13.1994
-13.1218
-13.0477
-12.9799
-13.6851
-13.696
-13.7024
-13.7043
-13.7019
-13.695
-13.6838
-13.6684
-13.6487
-13.6248
-13.5969
-13.5649
-13.5289
-13.489
-13.4454
-13.398
-13.3469
-13.2923
-13.2342
-13.1727
-13.1079
-13.0401
-12.9692
-12.8956
-12.8196
-12.7418
-12.6631
-12.5863
-12.5143
-12.4529
-13.1612
-13.1703
-13.1751
-13.1757
-13.1721
-13.1644
-13.1525
-13.1366
-13.1166
-13.0927
-13.0649
-13.0333
-12.9979
-12.9588
-12.916
-12.8697
-12.8199
-12.7668
-12.7102
-12.6505
-12.5875
-12.5215
-12.4526
-12.3808
-12.3064
-12.2297
-12.1513
-12.0738
-11.9991
-11.9526
-52.8863
-53.2455
-53.5812
-53.9185
-54.254
-54.5826
-54.9025
-55.213
-55.5136
-55.8036
-56.0824
-56.3497
-56.605
-56.8481
-57.0787
-57.2966
-57.5018
-57.6939
-57.8729
-58.0388
-58.1915
-58.331
-58.4572
-58.5704
-58.6706
-58.7581
-58.8333
-58.8972
-58.9515
-58.999
-48.7516
-49.1252
-49.481
-49.8291
-50.1696
-50.5007
-50.8219
-51.133
-51.4337
-51.7236
-52.0024
-52.2698
-52.5254
-52.769
-53.0004
-53.2195
-53.4259
-53.6197
-53.8006
-53.9687
-54.1238
-54.2659
-54.3951
-54.5114
-54.6149
-54.7057
-54.7841
-54.8504
-54.9049
-54.9465
-45.3674
-45.7427
-46.1043
-46.4547
-46.7951
-47.1256
-47.4459
-47.7561
-48.0559
-48.3451
-48.6235
-48.8906
-49.1464
-49.3906
-49.6229
-49.8433
-50.0515
-50.2474
-50.4309
-50.6019
-50.7604
-50.9062
-51.0395
-51.1602
-51.2682
-51.3638
-51.4468
-51.5172
-51.5749
-51.6186
-42.3403
-42.709
-43.0668
-43.4136
-43.7501
-44.0769
-44.3938
-44.7008
-44.9977
-45.2843
-45.5603
-45.8257
-46.08
-46.3232
-46.5551
-46.7754
-46.9841
-47.181
-47.366
-47.539
-47.7
-47.8488
-47.9854
-48.1099
-48.2221
-48.3221
-48.4097
-48.4849
-48.5474
-48.5967
-39.4766
-39.835
-40.1845
-40.524
-40.8537
-41.174
-41.4849
-41.7862
-42.0777
-42.3594
-42.631
-42.8923
-43.1431
-43.3833
-43.6127
-43.8311
-44.0384
-44.2344
-44.4191
-44.5924
-44.7541
-44.9043
-45.0428
-45.1695
-45.2845
-45.3877
-45.479
-45.5583
-45.6253
-45.6799
-36.8264
-37.1727
-37.5114
-37.8411
-38.1616
-38.4731
-38.7756
-39.069
-39.3531
-39.6278
-39.8929
-40.1482
-40.3935
-40.6288
-40.8537
-41.0683
-41.2723
-41.4656
-41.6481
-41.8198
-41.9805
-42.1301
-42.2687
-42.396
-42.5122
-42.617
-42.7105
-42.7924
-42.8628
-42.9213
-34.4024
-34.7355
-35.0619
-35.38
-35.6896
-35.9907
-36.2832
-36.5672
-36.8423
-37.1085
-37.3655
-37.6133
-37.8516
-38.0803
-38.2992
-38.5083
-38.7073
-38.8963
-39.075
-39.2433
-39.4013
-39.5488
-39.6857
-39.8121
-39.9277
-40.0326
-40.1266
-40.2098
-40.282
-40.343
-32.1926
-32.5121
-32.8254
-33.1311
-33.4287
-33.7184
-34.0001
-34.2736
-34.5387
-34.7953
-35.0432
-35.2823
-35.5125
-35.7335
-35.9452
-36.1476
-36.3405
-36.5237
-36.6973
-36.8611
-37.015
-37.1589
-37.2929
-37.4167
-37.5304
-37.6339
-37.7272
-37.8101
-37.8827
-37.9447
-30.1815
-30.4873
-30.7873
-31.0802
-31.3656
-31.6435
-31.9138
-32.1763
-32.4309
-32.6774
-32.9156
-33.1454
-33.3667
-33.5793
-33.7831
-33.978
-34.1638
-34.3405
-34.508
-34.6662
-34.815
-34.9544
-35.0843
-35.2046
-35.3153
-35.4163
-35.5075
-35.5891
-35.6607
-35.7226
-28.3518
-28.6442
-28.9311
-29.2113
-29.4844
-29.7505
-30.0094
-30.2608
-30.5047
-30.7409
-30.9691
-31.1894
-31.4015
-31.6054
-31.8008
-31.9877
-32.1661
-32.3357
-32.4966
-32.6486
-32.7917
-32.9258
-33.0509
-33.1668
-33.2737
-33.3713
-33.4598
-33.539
-33.6089
-33.6695
-26.6853
-26.9647
-27.239
-27.5069
-27.7681
-28.0226
-28.2702
-28.5108
-28.7441
-28.9701
-29.1885
-29.3992
-29.6022
-29.7972
-29.9841
-30.163
-30.3336
-30.496
-30.6499
-30.7955
-30.9325
-31.0609
-31.1807
-31.2919
-31.3944
-31.4882
-31.5732
-31.6494
-31.7168
-31.7754
-25.1644
-25.4316
-25.6937
-25.9499
-26.1997
-26.4431
-26.6799
-26.9099
-27.1331
-27.3491
-27.5579
-27.7593
-27.9532
-28.1396
-28.3182
-28.489
-28.652
-28.807
-28.954
-29.093
-29.2238
-29.3464
-29.4608
-29.5669
-29.6648
-29.7543
-29.8355
-29.9084
-29.9728
-30.029
-23.7728
-24.0284
-24.2792
-24.5242
-24.7632
-24.996
-25.2226
-25.4426
-25.656
-25.8625
-26.062
-26.2545
-26.4398
-26.6177
-26.7882
-26.9513
-27.1068
-27.2547
-27.3948
-27.5273
-27.6519
-27.7687
-27.8777
-27.9787
-28.0718
-28.157
-28.2342
-28.3035
-28.3648
-28.4181
-22.4958
-22.7406
-22.9807
-23.2152
-23.4441
-23.667
-23.8838
-24.0944
-24.2985
-24.4961
-24.6868
-24.8708
-25.0478
-25.2177
-25.3805
-25.5361
-25.6844
-25.8254
-25.9589
-26.0851
-26.2037
-26.3149
-26.4185
-26.5145
-26.6029
-26.6837
-26.757
-26.8226
-26.8805
-26.931
-21.3204
-21.5551
-21.7852
-22.01
-22.2293
-22.443
-22.6507
-22.8524
-23.0479
-23.2369
-23.4195
-23.5954
-23.7645
-23.9269
-24.0823
-24.2308
-24.3723
-24.5067
-24.6339
-24.754
-24.8669
-24.9726
-25.071
-25.1622
-25.2461
-25.3227
-25.3919
-25.4539
-25.5086
-25.5561
-20.2352
-20.4604
-20.6813
-20.897
-21.1075
-21.3125
-21.5118
-21.7052
-21.8925
-22.0736
-22.2484
-22.4168
-22.5786
-22.7338
-22.8823
-23.0241
-23.1591
-23.2873
-23.4085
-23.5229
-23.6304
-23.7309
-23.8244
-23.9109
-23.9904
-24.0629
-24.1283
-24.1868
-24.2383
-24.2828
-19.2304
-19.4468
-19.659
-19.8664
-20.0686
-20.2656
-20.457
-20.6426
-20.8224
-20.9961
-21.1636
-21.3249
-21.4798
-21.6283
-21.7703
-21.9058
-22.0347
-22.157
-22.2727
-22.3817
-22.484
-22.5795
-22.6684
-22.7505
-22.8258
-22.8944
-22.9563
-23.0114
-23.0598
-23.1015
-18.2973
-18.5055
-18.7097
-18.9093
-19.104
-19.2935
-19.4776
-19.656
-19.8287
-19.9954
-20.1562
-20.3108
-20.4592
-20.6014
-20.7374
-20.8669
-20.9901
-21.1069
-21.2173
-21.3212
-21.4187
-21.5097
-21.5941
-21.6721
-21.7435
-21.8084
-21.8669
-21.9188
-21.9643
-22.0033
-17.4286
-17.6292
-17.826
-18.0184
-18.2061
-18.3886
-18.5659
-18.7376
-18.9037
-19.064
-19.2183
-19.3668
-19.5091
-19.6454
-19.7756
-19.8997
-20.0175
-20.1292
-20.2346
-20.3338
-20.4267
-20.5133
-20.5936
-20.6677
-20.7355
-20.797
-20.8522
-20.9011
-20.9438
-20.9803
-16.6179
-16.8113
-17.0013
-17.1871
-17.3683
-17.5445
-17.7154
-17.8809
-18.0408
-18.195
-18.3434
-18.4859
-18.6226
-18.7534
-18.8782
-18.997
-19.1099
-19.2167
-19.3175
-19.4122
-19.5008
-19.5834
-19.6599
-19.7303
-19.7947
-19.853
-19.9052
-19.9513
-19.9914
-20.0256
-15.8596
-16.0463
-16.23
-16.4098
-16.585
-16.7553
-16.9203
-17.08
-17.2341
-17.3825
-17.5253
-17.6624
-17.7937
-17.9193
-18.039
-18.153
-18.2611
-18.3634
-18.4598
-18.5504
-18.635
-18.7138
-18.7867
-18.8538
-18.9149
-18.9702
-19.0196
-19.0631
-19.1008
-19.1328
-15.1487
-15.3291
-15.5072
-15.6816
-15.8513
-16.0161
-16.1756
-16.3298
-16.4784
-16.6215
-16.759
-16.8908
-17.0171
-17.1378
-17.2528
-17.3621
-17.4658
-17.5638
-17.6562
-17.7428
-17.8238
-17.899
-17.9686
-18.0325
-18.0906
-18.1431
-18.1899
-18.231
-18.2665
-18.2963
-14.4807
-14.6554
-14.8286
-14.9981
-15.1628
-15.3225
-15.4769
-15.6258
-15.7693
-15.9072
-16.0397
-16.1667
-16.2882
-16.4042
-16.5148
-16.6198
-16.7193
-16.8133
-16.9019
-16.9849
-17.0623
-17.1343
-17.2007
-17.2616
-17.3169
-17.3668
-17.4112
-17.45
-17.4834
-17.5114
-13.8518
-14.0211
-14.1903
-14.3555
-14.5157
-14.6706
-14.8201
-14.9641
-15.1027
-15.2358
-15.3635
-15.4859
-15.6028
-15.7145
-15.8208
-15.9218
-16.0174
-16.1076
-16.1926
-16.2721
-16.3463
-16.4152
-16.4787
-16.5368
-16.5896
-16.637
-16.6791
-16.7159
-16.7474
-16.7737
-13.2581
-13.4228
-13.589
-13.7507
-13.9066
-14.057
-14.2019
-14.3413
-14.4751
-14.6036
-14.7268
-14.8447
-14.9575
-15.065
-15.1673
-15.2644
-15.3563
-15.4431
-15.5246
-15.601
-15.6721
-15.7381
-15.7989
-15.8544
-15.9048
-15.95
-15.99
-16.0248
-16.0545
-16.0792
-12.6963
-12.858
-13.0228
-13.1813
-13.3333
-13.4794
-13.6199
-13.7546
-13.884
-14.008
-14.1268
-14.2406
-14.3492
-14.4528
-14.5513
-14.6448
-14.7332
-14.8166
-14.895
-14.9683
-15.0366
-15.0998
-15.158
-15.2111
-15.2592
-15.3023
-15.3404
-15.3734
-15.4014
-15.4245
-12.1596
-12.3229
-12.4888
-12.6445
-12.7926
-12.9346
-13.0707
-13.2011
-13.326
-13.4458
-13.5605
-13.6702
-13.775
-13.8748
-13.9698
-14.0598
-14.145
-14.2252
-14.3006
-14.3711
-14.4367
-14.4973
-14.5531
-14.604
-14.65
-14.6911
-14.7273
-14.7586
-14.7851
-14.8068
-11.6345
-11.805
-11.9769
-12.1309
-12.2755
-12.4138
-12.5459
-12.6722
-12.7932
-12.9092
-13.0203
-13.1265
-13.2279
-13.3245
-13.4163
-13.5034
-13.5858
-13.6634
-13.7362
-13.8042
-13.8675
-13.9261
-13.9798
-14.0288
-14.073
-14.1125
-14.1472
-14.1772
-14.2024
-14.2229
-11.1208
-11.2986
-11.481
-11.6363
-11.7782
-11.9131
-12.0417
-12.1646
-12.2822
-12.3948
-12.5028
-12.606
-12.7045
-12.7983
-12.8876
-12.9722
-13.0521
-13.1274
-13.1981
-13.2642
-13.3256
-13.3824
-13.4345
-13.4821
-13.5249
-13.5632
-13.5968
-13.6258
-13.6501
-13.6699
-10.7161
-10.8992
-11.0767
-11.2314
-11.3687
-11.4967
-11.6189
-11.7357
-11.8473
-11.9542
-12.0564
-12.1541
-12.2473
-12.3359
-12.42
-12.4997
-12.5749
-12.6456
-12.7119
-12.7737
-12.831
-12.884
-12.9324
-12.9765
-13.0161
-13.0513
-13.082
-13.1084
-13.1304
-13.148
-5.66308
-5.97531
-6.30615
-6.65553
-7.02521
-7.41694
-7.83238
-8.27343
-8.74228
-9.24141
-9.77372
-10.3426
-10.9519
-11.6064
-12.3116
-13.0742
-13.9021
-14.8047
-15.7936
-16.8822
-18.0868
-19.4263
-20.9224
-22.5993
-24.4842
-26.6059
-28.976
-31.5745
-34.6218
-38.5248
-5.8398
-6.15775
-6.49252
-6.8464
-7.22111
-7.61818
-8.03929
-8.4864
-8.96172
-9.46779
-10.0075
-10.5844
-11.2023
-11.866
-12.5812
-13.3545
-14.194
-15.1092
-16.1116
-17.2149
-18.4354
-19.7918
-21.3061
-23.0023
-24.9071
-27.0491
-29.4389
-32.0545
-35.1122
-39.0142
-6.01717
-6.34084
-6.67959
-7.03803
-7.41784
-7.82033
-8.24718
-8.70042
-9.18229
-9.69538
-10.2426
-10.8276
-11.4542
-12.1272
-12.8525
-13.6366
-14.4878
-15.4156
-16.4318
-17.5499
-18.7863
-20.1599
-21.6924
-23.4078
-25.3325
-27.4944
-29.903
-32.5344
-35.6004
-39.4981
-6.19499
-6.52437
-6.86714
-7.23022
-7.61518
-8.02314
-8.45581
-8.91523
-9.40372
-9.92388
-10.4787
-11.0718
-11.7071
-12.3896
-13.1249
-13.92
-14.783
-15.7236
-16.7534
-17.8864
-19.1388
-20.5295
-22.0803
-23.8148
-25.7592
-27.9407
-30.3678
-33.0151
-36.0914
-39.9905
-6.37313
-6.70822
-7.05504
-7.42281
-7.813
-8.22649
-8.66502
-9.13069
-9.62585
-10.1531
-10.7156
-11.3169
-11.961
-12.6529
-13.3985
-14.2045
-15.0793
-16.0327
-17.0764
-18.2242
-19.4926
-20.9005
-22.4695
-24.2232
-26.1872
-28.3881
-30.8336
-33.497
-36.5852
-40.4891
-6.55149
-6.89225
-7.24315
-7.61568
-8.01115
-8.43024
-8.87468
-9.34665
-9.84853
-10.383
-10.9532
-11.5627
-12.2157
-12.9171
-13.6729
-14.49
-15.3767
-16.3429
-17.4004
-18.5632
-19.8476
-21.2727
-22.8599
-24.6327
-26.6162
-28.8366
-31.3005
-33.98
-37.0805
-40.9906
-6.72993
-7.07633
-7.43133
-7.80868
-8.2095
-8.63422
-9.08463
-9.56296
-10.0716
-10.6133
-11.1913
-11.809
-12.4709
-13.1819
-13.948
-14.7762
-15.6748
-16.6539
-17.7254
-18.9031
-20.2036
-21.6459
-23.2513
-25.0431
-27.0462
-29.286
-31.7683
-34.4639
-37.5768
-41.4938
-6.90833
-7.26034
-7.61946
-8.00169
-8.4079
-8.83831
-9.29473
-9.77946
-10.2949
-10.8439
-11.4297
-12.0558
-12.7266
-13.4472
-14.2236
-15.0629
-15.9736
-16.9656
-18.0509
-19.2437
-20.5603
-22.0198
-23.6434
-25.4543
-27.4768
-29.736
-32.2365
-34.9483
-38.0736
-41.9981
-7.08659
-7.44414
-7.80741
-8.19457
-8.60622
-9.04237
-9.50485
-9.99601
-10.5183
-11.0747
-11.6682
-12.3027
-12.9825
-13.7128
-14.4995
-15.35
-16.2727
-17.2776
-18.377
-19.5847
-20.9175
-22.3942
-24.036
-25.8658
-27.9079
-30.1863
-32.7051
-35.4328
-38.5707
-42.5029
-7.26461
-7.62763
-7.99506
-8.3872
-8.80434
-9.24626
-9.71484
-10.2125
-10.7417
-11.3054
-11.9068
-12.5497
-13.2385
-13.9784
-14.7756
-15.6372
-16.5719
-17.5899
-18.7032
-19.926
-21.2749
-22.7688
-24.4288
-26.2776
-28.339
-30.6366
-33.1735
-35.9172
-39.0676
-43.0076
-7.44229
-7.81071
-8.18229
-8.57947
-9.00214
-9.44987
-9.92458
-10.4287
-10.9649
-11.5359
-12.1452
-12.7965
-13.4943
-14.2439
-15.0515
-15.9243
-16.8711
-17.9021
-19.0294
-20.2673
-21.6323
-23.1433
-24.8215
-26.6892
-28.7698
-31.0865
-33.6415
-36.401
-39.5637
-43.5115
-7.61954
-7.99328
-8.36902
-8.77127
-9.19952
-9.65309
-10.1339
-10.6446
-11.1877
-11.7661
-12.3833
-13.043
-13.7499
-14.5092
-15.3272
-16.2112
-17.1701
-18.214
-19.3553
-20.6082
-21.9893
-23.5175
-25.2138
-27.1003
-29.2002
-31.5359
-34.1087
-36.8838
-40.0587
-44.0143
-7.7963
-8.17525
-8.55515
-8.96252
-9.39638
-9.85581
-10.3428
-10.86
-11.4101
-11.9959
-12.6209
-13.2891
-14.005
-14.774
-15.6024
-16.4977
-17.4686
-18.5255
-19.6808
-20.9487
-22.3459
-23.8912
-25.6055
-27.5108
-29.6297
-31.9842
-34.5746
-37.3652
-40.5522
-44.5153
-7.97252
-8.35657
-8.74061
-9.15315
-9.59263
-10.0579
-10.5511
-11.0749
-11.6319
-12.2251
-12.858
-13.5346
-14.2595
-15.0382
-15.877
-16.7835
-17.7664
-18.8363
-20.0055
-21.2884
-22.7017
-24.264
-25.9963
-27.9202
-30.058
-32.4311
-35.0391
-37.8449
-41.0436
-45.0142
-8.14815
-8.5372
-8.92535
-9.34307
-9.7882
-10.2594
-10.7588
-11.289
-11.8529
-12.4535
-13.0943
-13.7793
-14.5133
-15.3016
-16.1508
-17.0684
-18.0633
-19.1462
-20.3293
-21.6272
-23.0564
-24.6357
-26.3858
-28.3282
-30.4849
-32.8764
-35.5016
-38.3224
-41.5326
-45.5105
-8.3232
-8.7171
-9.10933
-9.53226
-9.98304
-10.4601
-10.9656
-11.5024
-12.0732
-12.6812
-13.3298
-14.0232
-14.766
-15.564
-16.4235
-17.3522
-18.3591
-19.4549
-20.6519
-21.9646
-23.4097
-25.006
-26.7738
-28.7346
-30.9099
-33.3196
-35.9618
-38.7973
-42.0189
-46.0038
-8.49769
-8.89629
-9.29255
-9.72067
-10.1771
-10.66
-11.1716
-11.7149
-12.2925
-12.9078
-13.5642
-14.2659
-15.0177
-15.8252
-16.695
-17.6348
-18.6536
-19.7622
-20.973
-22.3006
-23.7615
-25.3745
-27.16
-29.139
-31.3327
-33.7604
-36.4194
-39.2693
-42.5018
-46.4937
-8.67169
-9.07481
-9.47501
-9.90831
-10.3703
-10.859
-11.3767
-11.9263
-12.5108
-13.1333
-13.7974
-14.5074
-15.268
-16.0851
-16.9651
-17.9159
-18.9466
-20.0679
-21.2924
-22.6347
-24.1114
-25.7411
-27.5441
-29.5412
-31.753
-34.1985
-36.8739
-39.7379
-42.9813
-46.9798
-8.8453
-9.25272
-9.65675
-10.0952
-10.5627
-11.0571
-11.5807
-12.1367
-12.7279
-13.3575
-14.0293
-14.7474
-15.5169
-16.3433
-17.2335
-18.1952
-19.2377
-20.3717
-21.6099
-22.9668
-24.4591
-26.1054
-27.9257
-29.9407
-32.1705
-34.6335
-37.3251
-40.2029
-43.4567
-47.4618
-9.01868
-9.43014
-9.83783
-10.2813
-10.7542
-11.2541
-11.7837
-12.3459
-12.9437
-13.5804
-14.2597
-14.9859
-15.764
-16.5998
-17.5
-18.4726
-19.5268
-20.6734
-21.9251
-23.2966
-24.8044
-26.4671
-28.3046
-30.3372
-32.5848
-35.0651
-37.7726
-40.6639
-43.9278