/*--------------------------------*- C++ -*----------------------------------*\
  =========                 |
  \\      /  F ield         | OpenFOAM: The Open Source CFD Toolbox
   \\    /   O peration     | Website:  https://openfoam.org
    \\  /    A nd           | Version:  6.0
     \\/     M anipulation  |
\*---------------------------------------------------------------------------*/
FoamFile
{
    version     2.0;
    format      ascii;
    class       surfaceScalarField;
    location    "22";
    object      phi;
}
// * * * * * * * * * * * * * * * * * * * * * * * * * * * * * * * * * * * * * //

dimensions      [0 3 -1 0 0 0 0];

internalField   nonuniform List<scalar> 
18940
(
0.000110954
-0.115528
0.115417
0.000521723
-0.101944
0.101533
0.00122112
-0.0919531
0.0912537
0.00217964
-0.0845594
0.0836009
0.00336108
-0.0790307
0.0778492
0.00472728
-0.0748252
0.073459
0.00624152
-0.0715532
0.070039
0.00787021
-0.0689369
0.0673083
0.00958355
-0.0667791
0.0650658
0.0113558
-0.06494
0.0631678
0.0131651
-0.063321
0.0615118
0.0149932
-0.0618531
0.0600249
0.0168254
-0.0604876
0.0586554
0.01865
-0.0591908
0.0573662
0.0204578
-0.0579386
0.0561308
0.0222419
-0.0567136
0.0549295
0.023997
-0.0555019
0.0537468
0.025719
-0.0542913
0.0525693
0.027404
-0.0530693
0.0513842
-0.0518204
0.0501769
0.0290475
0.000131429
-0.115659
0.000570992
-0.102384
0.00130725
-0.0926893
0.00230694
-0.0855591
0.00353001
-0.0802537
0.0049355
-0.0762307
0.00648462
-0.0731023
0.00814236
-0.0705947
0.00987801
-0.0685148
0.0116653
-0.0667273
0.0134823
-0.065138
0.0153108
-0.0636816
0.0171365
-0.0623133
0.0189482
-0.0610024
0.0207373
-0.0597277
0.0224977
-0.058474
0.0242252
-0.0572293
0.0259166
-0.0559827
0.0275692
-0.0547219
-0.0534312
0.02918
0.000147144
-0.115807
0.000615837
-0.102852
0.00138839
-0.0934619
0.00242732
-0.086598
0.00368898
-0.0815154
0.00512973
-0.0776714
0.00670891
-0.0746815
0.00839022
-0.072276
0.0101422
-0.0702667
0.0119382
-0.0685233
0.0137562
-0.066956
0.0155785
-0.0655038
0.017391
-0.0641258
0.0191831
-0.0627946
0.0209472
-0.0614918
0.022678
-0.0602048
0.0243722
-0.0589235
0.0260277
-0.0576382
0.0276431
-0.0563373
-0.0550047
0.0292166
0.000161018
-0.115968
0.000657676
-0.103349
0.00146493
-0.0942691
0.00254055
-0.0876737
0.00383734
-0.0828122
0.00530907
-0.0791432
0.0069133
-0.0762857
0.0086126
-0.0739753
0.0103749
-0.072029
0.0121733
-0.0703217
0.0139859
-0.0687686
0.0157953
-0.0673133
0.0175882
-0.0659187
0.0193547
-0.064561
0.0210879
-0.0632251
0.0227836
-0.0619005
0.0244394
-0.0605793
0.0260544
-0.0592532
0.0276283
-0.0579113
-0.0565373
0.0291609
0.000173866
-0.116141
0.000697009
-0.103872
0.00153691
-0.095109
0.00264633
-0.0887831
0.00397451
-0.0841404
0.00547274
-0.0806414
0.00709689
-0.0779099
0.00880852
-0.0756869
0.0105751
-0.0737956
0.0123696
-0.0721163
0.0141706
-0.0705696
0.0159611
-0.0691038
0.0177284
-0.067686
0.0194634
-0.0662961
0.0211604
-0.064922
0.022816
-0.063556
0.0244289
-0.0621922
0.0259994
-0.0608237
0.0275285
-0.0594404
-0.058026
0.0290172
0.000185966
-0.116327
0.000734027
-0.10442
0.00160426
-0.0959793
0.00274435
-0.0899232
0.00410001
-0.085496
0.00562011
-0.0821615
0.00725897
-0.0795488
0.00897729
-0.0774052
0.0107422
-0.0755605
0.0125269
-0.073901
0.0143102
-0.0723529
0.0160758
-0.0708694
0.0178118
-0.069422
0.0195102
-0.0679945
0.021166
-0.0665778
0.022777
-0.0651671
0.0243432
-0.0637583
0.0258658
-0.0623463
0.0273471
-0.0609217
-0.0594684
0.0287896
0.000197406
-0.116525
0.000768763
-0.104991
0.00166686
-0.0968774
0.00283435
-0.0910907
0.00421346
-0.0868752
0.00575072
-0.0836987
0.00739906
-0.0811971
0.00911849
-0.0791247
0.010876
-0.0773179
0.0126449
-0.0756699
0.0144047
-0.0741127
0.0161399
-0.0726045
0.0178395
-0.0711216
0.0194963
-0.0696513
0.0211066
-0.0681881
0.0226692
-0.0667297
0.0241851
-0.0652743
0.025657
-0.0638182
0.0270883
-0.062353
-0.0608628
0.0284826
0.000208199
-0.116733
0.000801196
-0.105584
0.00172462
-0.0978008
0.00291614
-0.0922822
0.00431459
-0.0882736
0.00586429
-0.0852484
0.00751693
-0.0828497
0.00923197
-0.0808397
0.0109764
-0.0790623
0.012724
-0.0774176
0.0144549
-0.0758436
0.0161545
-0.0743041
0.0178128
-0.0727798
0.0194237
-0.0712622
0.0209844
-0.0697489
0.0224951
-0.0682404
0.0239579
-0.066737
0.0253765
-0.0652368
0.0267557
-0.0637322
-0.0622075
0.0281005
0.000218332
-0.116951
0.000831282
-0.106197
0.00177746
-0.098747
0.00298961
-0.0934943
0.00440327
-0.0896873
0.00596072
-0.0868059
0.00761255
-0.0845016
0.00931787
-0.082545
0.0110438
-0.0807883
0.0127648
-0.0791386
0.0144618
-0.0775405
0.016121
-0.0759633
0.0177335
-0.0743924
0.0192944
-0.0728231
0.0208021
-0.0712566
0.0222577
-0.069696
0.0236646
-0.068144
0.0250278
-0.0666
0.0263533
-0.0650576
-0.0635014
0.0276472
0.000227779
-0.117179
0.000858996
-0.106829
0.00182535
-0.0997133
0.00305474
-0.0947237
0.00447952
-0.091112
0.00604009
-0.0883665
0.00768614
-0.0861476
0.00937661
-0.0842355
0.011079
-0.0824906
0.0127684
-0.080828
0.0144266
-0.0791987
0.016041
-0.0775777
0.0176038
-0.0759552
0.0191111
-0.0743305
0.0205624
-0.072708
0.0219601
-0.0710937
0.0233087
-0.0694925
0.0246144
-0.0679058
0.0258845
-0.0663277
-0.0647434
0.0271265
0.000236527
-0.117416
0.000884351
-0.107476
0.00186834
-0.100697
0.00311161
-0.095967
0.00454348
-0.0925439
0.00610266
-0.0899256
0.00773814
-0.0877831
0.00940885
-0.0859062
0.0110828
-0.0841646
0.012736
-0.0824812
0.0143511
-0.0808139
0.0159167
-0.0791433
0.0174262
-0.0774646
0.0188766
-0.0757809
0.0202687
-0.0741001
0.0216059
-0.0724308
0.0228937
-0.0707804
0.0241398
-0.0691519
0.0253528
-0.0675407
-0.0659321
0.0265415
0.000244572
-0.11766
0.000907414
-0.108139
0.00190657
-0.101696
0.00316044
-0.0972209
0.00459546
-0.0939789
0.00614887
-0.0914791
0.00776919
-0.0894034
0.00941555
-0.0875526
0.0110566
-0.0858057
0.0126693
-0.0840938
0.0142374
-0.082382
0.0157508
-0.0806567
0.0172036
-0.0789174
0.0185944
-0.0771717
0.0199246
-0.0754303
0.0211986
-0.0737048
0.0224233
-0.0720051
0.0236075
-0.0703361
0.0247613
-0.0686945
-0.0670658
0.025895
0.000251949
-0.117912
0.000928333
-0.108816
0.00194029
-0.102708
0.00320153
-0.0984821
0.00463586
-0.0954133
0.00617931
-0.0930225
0.00778014
-0.0910043
0.00939786
-0.0891703
0.0110019
-0.0874098
0.0125704
-0.0856622
0.0140881
-0.0838998
0.015546
-0.0821146
0.0169396
-0.080311
0.0182681
-0.0785002
0.019534
-0.0766962
0.0207426
-0.0749134
0.0219017
-0.0731642
0.0230213
-0.0714558
0.0241133
-0.0697865
-0.0681421
0.0251896
0.000258753
-0.118171
0.000947378
-0.109504
0.00196986
-0.103731
0.00323533
-0.0997476
0.00466524
-0.0968432
0.00619471
-0.094552
0.00777199
-0.0925815
0.00935717
-0.0907555
0.0109206
-0.0889732
0.0124415
-0.0871831
0.0139059
-0.0853642
0.0153059
-0.0835146
0.016638
-0.0816431
0.0179023
-0.0797645
0.019102
-0.0778958
0.0202429
-0.0760543
0.0213336
-0.0742549
0.0223856
-0.0725077
0.0234122
-0.0708131
-0.0691575
0.0244276
0.000265216
-0.118436
0.000965003
-0.110204
0.00199579
-0.104762
0.00326236
-0.101014
0.00468422
-0.098265
0.00619591
-0.0960637
0.00774589
-0.0941315
0.009295
-0.0923046
0.0108147
-0.0904929
0.0122852
-0.0886536
0.013694
-0.0867731
0.0150343
-0.0848548
0.0163033
-0.0829122
0.0175021
-0.0809632
0.018634
-0.0790277
0.0197054
-0.0771257
0.0207252
-0.0752747
0.0217056
-0.0734882
0.0226621
-0.0717696
-0.0701067
0.0236114
0.000271804
-0.118708
0.000981897
-0.110914
0.00201873
-0.105799
0.00328322
-0.102279
0.00469346
-0.0996753
0.00618376
-0.097554
0.00770302
-0.0956508
0.00921296
-0.0938145
0.0106862
-0.0919661
0.0121043
-0.0900717
0.0134559
-0.0881247
0.0147352
-0.0861342
0.0159405
-0.0841175
0.0170732
-0.0820959
0.018137
-0.0800915
0.0191378
-0.0781265
0.0200844
-0.0762214
0.0209893
-0.0743931
0.0218696
-0.0726499
-0.0709829
0.0227458
0.000279308
-0.118987
0.000998972
-0.111634
0.00203936
-0.106839
0.00329848
-0.103538
0.0046936
-0.10107
0.0061591
-0.0990195
0.00764454
-0.0971362
0.00911265
-0.0952826
0.0105373
-0.0933908
0.0119014
-0.0914358
0.0131948
-0.0894182
0.014413
-0.0873523
0.0155549
-0.0852595
0.0166224
-0.0831633
0.017619
-0.0810881
0.0185499
-0.0790574
0.0194228
-0.0770942
0.020249
-0.0752193
0.0210465
-0.0734475
-0.0717768
0.0218405
0.000289056
-0.119276
0.00101757
-0.112362
0.00205856
-0.10788
0.00330874
-0.104788
0.00468522
-0.102447
0.0061227
-0.100457
0.00757151
-0.098585
0.00899551
-0.0967066
0.0103699
-0.0947652
0.0116791
-0.0927449
0.0129143
-0.0906534
0.0140719
-0.08851
0.0151519
-0.0863394
0.0161563
-0.0841677
0.0170884
-0.0820202
0.0179525
-0.0799215
0.0187538
-0.0778956
0.0195009
-0.0759664
0.0202095
-0.074156
-0.0724767
0.0209093
0.000304571
-0.119581
0.00104065
-0.113098
0.00207772
-0.108917
0.00331457
-0.106025
0.0046687
-0.103801
0.00607506
-0.101863
0.0074847
-0.0999946
0.00886269
-0.0980846
0.0101857
-0.0960882
0.0114396
-0.0939988
0.0126171
-0.0918308
0.0137158
-0.0896087
0.0147366
-0.0873603
0.0156821
-0.0851132
0.0165552
-0.0828933
0.0173589
-0.0807251
0.0180951
-0.0786318
0.0187651
-0.0766363
0.0193764
-0.0747673
-0.0730766
0.0199763
0.000337163
-0.119918
0.0010724
-0.113834
0.00209727
-0.109942
0.00331561
-0.107243
0.0046438
-0.105129
0.00601624
-0.103236
0.00738449
-0.101363
0.00871485
-0.099415
0.00998556
-0.0973589
0.0111841
-0.0951973
0.0123048
-0.0929516
0.0133469
-0.0906508
0.0143126
-0.0883259
0.0152056
-0.0860061
0.0160298
-0.0837176
0.0167884
-0.0814837
0.0174807
-0.0793241
0.0180972
-0.0772528
0.0186191
-0.0752893
-0.073526
0.0190685
0.125182
0.000257808
-0.12544
0.124933
0.0002487
0.124684
0.000249632
0.12443
0.000253866
0.124171
0.000259277
0.123905
0.000265048
0.123635
0.000270683
0.123359
0.000275886
0.123078
0.000280503
0.122794
0.000284466
0.122506
0.000287739
0.122216
0.00029031
0.121924
0.000292163
0.12163
0.000293278
0.121337
0.000293602
0.121044
0.000293019
0.120753
0.00029127
0.120465
0.000287737
0.120184
0.000280865
0.000265928
0.125895
0.000717777
-0.126355
0.125406
0.000736991
0.124895
0.000760818
0.124362
0.000786732
0.123809
0.000812911
0.123235
0.000838549
0.122643
0.000863106
0.122033
0.000886156
0.121406
0.000907413
0.120763
0.000926695
0.120107
0.000943884
0.119439
0.000958897
0.118759
0.000971668
0.11807
0.00098212
0.117374
0.000990145
0.116671
0.000995553
0.115964
0.000997993
0.115255
0.000996809
0.114545
0.000990802
0.000977751
0.125894
0.00124198
-0.126418
0.125323
0.00130751
0.124712
0.00137254
0.124062
0.00143672
0.123375
0.00149913
0.122655
0.00155919
0.121901
0.00161648
0.121117
0.00167063
0.120303
0.00172132
0.119461
0.00176828
0.118594
0.00181133
0.117703
0.00185033
0.116789
0.00188513
0.115856
0.00191561
0.114904
0.00194162
0.113937
0.00196297
0.112955
0.00197936
0.111962
0.00199035
0.110957
0.00199529
0.00199327
0.124965
0.00174534
-0.125468
0.124405
0.0018667
0.123793
0.00198468
0.123131
0.00209936
0.12242
0.00221023
0.121662
0.00231688
0.120859
0.00241891
0.120014
0.00251598
0.119128
0.00260772
0.118202
0.00269385
0.117239
0.00277411
0.116241
0.00284829
0.11521
0.00291619
0.114148
0.00297762
0.113058
0.00303242
0.11194
0.00308039
0.110798
0.00312129
0.109634
0.00315484
0.108448
0.00318068
0.00319841
0.123159
0.00217852
-0.123592
0.122664
0.00236165
0.122109
0.00253984
0.121496
0.00271305
0.120825
0.00288088
0.120099
0.0030429
0.119319
0.00319869
0.118487
0.00334783
0.117605
0.00348994
0.116674
0.00362465
0.115697
0.00375162
0.114674
0.00387059
0.113609
0.00398126
0.112503
0.00408343
0.111359
0.00417686
0.110178
0.00426134
0.108963
0.00433668
0.107715
0.00440266
0.106437
0.00445906
0.00450575
0.120633
0.00251915
-0.120974
0.120227
0.00276732
0.119757
0.00300973
0.119224
0.00324612
0.118629
0.00347605
0.117973
0.00369899
0.117257
0.00391446
0.116483
0.00412194
0.115652
0.00432097
0.114766
0.00451109
0.113825
0.0046919
0.112833
0.00486301
0.11179
0.00502409
0.110699
0.00517483
0.109561
0.00531496
0.108378
0.00544425
0.107152
0.00556247
0.105885
0.00566946
0.104579
0.00576505
0.00584919
0.117579
0.00276288
-0.117823
0.117269
0.00307718
0.116893
0.00338536
0.116452
0.00368696
0.115947
0.00398142
0.115378
0.00426813
0.114746
0.00454649
0.114052
0.00481591
0.113297
0.00507582
0.112483
0.00532567
0.11161
0.00556495
0.110679
0.00579321
0.109693
0.00601001
0.108653
0.00621497
0.10756
0.00640777
0.106417
0.00658812
0.105223
0.00675578
0.103982
0.00691058
0.102695
0.00705236
0.00718111
0.114186
0.00291629
-0.11434
0.113967
0.00329618
0.113683
0.00366988
0.113333
0.00403675
0.112918
0.00439614
0.112439
0.00474735
0.111896
0.00508967
0.111289
0.00542243
0.11062
0.00574495
0.109889
0.00605661
0.109098
0.0063568
0.108246
0.00664498
0.107335
0.00692064
0.106367
0.00718331
0.105342
0.00743261
0.104262
0.00766821
0.103128
0.00788982
0.101941
0.00809727
0.100703
0.00829041
0.00846923
0.110619
0.00299171
-0.110695
0.11048
0.00343554
0.110276
0.00387328
0.110009
0.00430417
0.109678
0.00472745
0.109283
0.00514236
0.108824
0.00554809
0.108303
0.0059439
0.107719
0.00632904
0.107072
0.00670279
0.106365
0.00706449
0.105596
0.0074135
0.104768
0.00774924
0.10388
0.00807118
0.102934
0.00837889
0.10193
0.00867196
0.100869
0.0089501
0.0997536
0.00921312
0.0985831
0.00946089
0.00969346
0.107007
0.00300384
-0.107019
0.106933
0.00350931
0.106798
0.00400885
0.1066
0.00450164
0.106341
0.00498685
0.10602
0.00546362
0.105637
0.00593111
0.105192
0.00638849
0.104686
0.00683497
0.104119
0.00726977
0.103491
0.00769215
0.102803
0.00810142
0.102056
0.00849693
0.101249
0.00887813
0.100383
0.00924449
0.0994596
0.0095956
0.0984786
0.00993113
0.0974408
0.0102509
0.0963469
0.0105548
0.010843
0.103446
0.0029675
-0.10341
0.103424
0.00353198
0.103342
0.00409073
0.103201
0.00464285
0.103
0.00518746
0.10274
0.00572365
0.102421
0.00625053
0.102042
0.00676724
0.101604
0.00727293
0.101107
0.00776679
0.100551
0.00824802
0.0999366
0.0087159
0.0992638
0.00916974
0.098533
0.00960892
0.0977445
0.0100329
0.0968989
0.0104413
0.0959964
0.0108336
0.0950375
0.0112098
0.0940225
0.0115698
0.0119139
0.100004
0.00289638
-0.0999328
0.100019
0.0035172
0.099977
0.00413243
0.0998788
0.00474113
0.0997238
0.00534238
0.0995122
0.00593524
0.099244
0.00651878
0.0989191
0.00709213
0.0985377
0.00765439
0.0980997
0.00820472
0.0976054
0.00874232
0.0970549
0.00926642
0.0964483
0.00977632
0.0957859
0.0102714
0.0950678
0.010751
0.0942943
0.0112147
0.0934657
0.0116622
0.0925821
0.0120934
0.0916439
0.012508
0.012907
0.0967213
0.00280235
-0.0966272
0.0967615
0.00347693
0.096748
0.00414598
0.0966806
0.00480853
0.0965593
0.00546363
0.0963842
0.00611033
0.0961553
0.00674768
0.0958727
0.00737476
0.0955364
0.0079907
0.0951465
0.00859463
0.0947031
0.00918574
0.0942062
0.00976324
0.0936561
0.0103264
0.0930529
0.0108746
0.0923966
0.0114072
0.0916876
0.0119238
0.0909258
0.012424
0.0901115
0.0129076
0.089245
0.0133745
0.0138261
0.0936209
0.00269523
-0.0935138
0.0936767
0.00342118
0.0936811
0.00414155
0.0936343
0.00485536
0.0935363
0.00556163
0.0933872
0.0062594
0.0931872
0.00694771
0.0929363
0.00762564
0.0926347
0.00829231
0.0922825
0.00894685
0.0918798
0.00958843
0.0914267
0.0102163
0.0909234
0.0108297
0.0903701
0.011428
0.0897667
0.0120106
0.0891135
0.012577
0.0884107
0.0131268
0.0876583
0.01366
0.086857
0.0141759
0.0146769
0.0907111
0.00258277
-0.0905987
0.0907744
0.00335791
0.0907887
0.00412732
0.090754
0.00488998
0.0906707
0.00564492
0.090539
0.00639115
0.090359
0.00712772
0.0901309
0.0078537
0.089855
0.00856821
0.0895315
0.00927038
0.0891605
0.00995941
0.0887423
0.0106345
0.088277
0.011295
0.0877647
0.0119402
0.0872058
0.0125696
0.0866003
0.0131826
0.0859484
0.0137787
0.0852503
0.0143581
0.084507
0.0149192
0.0154664
0.0879901
0.00247075
-0.0878781
0.0880548
0.00329314
0.0880726
0.00410951
0.0880438
0.00491885
0.0879686
0.00572015
0.0878473
0.00651242
0.0876803
0.0072947
0.0874679
0.00806608
0.0872105
0.00882567
0.0869082
0.00957262
0.0865615
0.0103061
0.0861706
0.0110254
0.0857358
0.0117299
0.0852572
0.0124187
0.0847353
0.0130915
0.0841701
0.0137478
0.0835619
0.0143869
0.082911
0.015009
0.0822188
0.0156113
0.0162015
0.0854495
0.00236324
-0.0853419
0.0855115
0.00323112
0.0855284
0.00409258
0.0855007
0.00494658
0.0854287
0.00579211
0.085313
0.00662817
0.0851539
0.00745379
0.0849519
0.00826807
0.0847074
0.00907012
0.084421
0.0098591
0.0840929
0.0106342
0.0837235
0.0113948
0.0833134
0.01214
0.0828627
0.0128694
0.0823719
0.0135823
0.0818412
0.0142785
0.0812709
0.0149572
0.0806609
0.015619
0.0800128
0.0162593
0.0168902
0.0830773
0.00226271
-0.0829768
0.083134
0.00317444
0.0831473
0.00407923
0.0831179
0.00497602
0.0830462
0.00586378
0.0829329
0.00674151
0.0827784
0.00760822
0.0825835
0.00846301
0.0823486
0.009305
0.0820744
0.0101334
0.0817612
0.0109473
0.0814098
0.0117462
0.0810206
0.0125293
0.080594
0.013296
0.0801306
0.0140458
0.0796306
0.0147784
0.0790943
0.0154935
0.0785212
0.0161922
0.0779097
0.0168708
0.017547
0.0808592
0.00217016
-0.0807666
0.0809095
0.00312414
0.0809182
0.00407052
0.0808859
0.00500828
0.0808134
0.00593631
0.0807013
0.0068536
0.0805503
0.00775917
0.0803612
0.00865211
0.0801347
0.00953155
0.0798714
0.0103967
0.079572
0.0112467
0.0792372
0.012081
0.0788676
0.0128989
0.0784639
0.0136997
0.0780266
0.014483
0.0775564
0.0152486
0.0770534
0.0159966
0.0765175
0.016728
0.0759405
0.0174479
0.0181982
0.078779
-0.0786942
0.0020854
0.0788232
0.00307995
0.0788276
0.00406615
0.0787929
0.00504293
0.07872
0.00600918
0.0786098
0.00696385
0.078463
0.00790595
0.0782805
0.00883457
0.0780632
0.00974885
0.0778119
0.010648
0.0775274
0.0115312
0.0772105
0.0123979
0.076862
0.0132474
0.0764826
0.0140791
0.0760731
0.0148925
0.0756344
0.0156873
0.0751671
0.0164639
0.074673
0.0172221
0.074141
0.0179799
0.0188133
0.127296
9.21699e-06
-0.127305
0.127304
-7.46896e-06
0.127309
-5.89098e-06
0.127307
2.52924e-06
0.127293
1.41756e-05
0.127265
2.76387e-05
0.127223
4.20372e-05
0.127166
5.6816e-05
0.127095
7.16573e-05
0.127008
8.63803e-05
0.126907
0.000100868
0.126792
0.000115039
0.126664
0.000128817
0.126521
0.000142132
0.126367
0.000154896
0.1262
0.000166982
0.126021
0.000178175
0.125833
0.000188032
0.125638
0.000195519
0.000198007
0.128753
-0.000185315
-0.128558
0.128913
-0.00016777
0.129045
-0.000138238
0.129149
-0.00010103
0.129222
-5.92929e-05
0.129264
-1.44458e-05
0.129274
3.25108e-05
0.12925
8.07519e-05
0.129192
0.000129658
0.1291
0.000178776
0.128973
0.000227752
0.128811
0.000276291
0.128616
0.00032413
0.128387
0.000371019
0.128125
0.0004167
0.127831
0.000460868
0.127507
0.000503132
0.127152
0.000542914
0.126768
0.00057931
0.000611236
0.127577
-0.000582571
-0.127179
0.127925
-0.000515687
0.128228
-0.000441899
0.128489
-0.000361725
0.128706
-0.000276759
0.12888
-0.000188008
0.129009
-9.62746e-05
0.129092
-2.34658e-06
0.129128
9.30523e-05
0.129118
0.000189294
0.12906
0.000285823
0.128954
0.000382139
0.1288
0.000477774
0.128599
0.000572281
0.128351
0.000665217
0.128055
0.000756121
0.127714
0.000844487
0.127327
0.000929743
0.126895
0.0010112
0.00108835
0.124575
-0.001157
-0.124001
0.125099
-0.00103894
0.125572
-0.000915198
0.125996
-0.000785423
0.126369
-0.000650321
0.126692
-0.000510611
0.126962
-0.000366984
0.12718
-0.000220182
0.127344
-7.09628e-05
0.127454
7.99368e-05
0.127508
0.000231818
0.127506
0.000384014
0.127448
0.000535882
0.127333
0.000686802
0.127162
0.000836165
0.126935
0.000983366
0.126652
0.00112779
0.126313
0.00126883
0.125918
0.00140582
0.00153835
0.120435
-0.00187872
-0.119713
0.121107
-0.0017107
0.121728
-0.0015362
0.122297
-0.00135493
0.122814
-0.00116724
0.123277
-0.000973763
0.123686
-0.000775167
0.124038
-0.000572215
0.124332
-0.000365721
0.124569
-0.000156507
0.124746
5.46053e-05
0.124863
0.000266811
0.12492
0.000479325
0.124915
0.000691378
0.124849
0.000902218
0.124721
0.00111111
0.124532
0.00131733
0.124281
0.00152019
0.123967
0.00171898
0.00191324
0.115676
-0.00271656
-0.114838
0.116466
-0.0025006
0.117206
-0.00227657
0.117896
-0.00204433
0.118533
-0.0018042
0.119116
-0.00155677
0.119643
-0.00130276
0.120114
-0.00104302
0.120527
-0.000778437
0.12088
-0.000509928
0.121173
-0.00023843
0.121405
3.51297e-05
0.121574
0.000309838
0.121681
0.000584802
0.121724
0.000859145
0.121703
0.00113202
0.121618
0.00140259
0.121468
0.00167008
0.121253
0.00193372
0.00219292
0.110678
-0.00364135
-0.109753
0.111557
-0.00337972
0.112389
-0.00310812
0.113171
-0.00282655
0.113902
-0.00253534
0.11458
-0.00223512
0.115204
-0.00192673
0.115772
-0.00161107
0.116283
-0.00128914
0.116735
-0.000961994
0.117127
-0.000630662
0.117459
-0.00029619
0.117728
4.03968e-05
0.117935
0.000378094
0.118078
0.000715921
0.118157
0.00105292
0.118172
0.00138818
0.118121
0.00172082
0.118005
0.00204998
0.00237498
0.105704
-0.00462789
-0.104718
0.106647
-0.00432278
0.107545
-0.00400576
0.108395
-0.00367683
0.109196
-0.00333636
0.109946
-0.00298507
0.110643
-0.0026239
0.111286
-0.00225389
0.111873
-0.00187616
0.112403
-0.00149186
0.112874
-0.00110216
0.113286
-0.000708206
0.113638
-0.000311133
0.113928
8.79615e-05
0.114156
0.000488004
0.114321
0.000887953
0.114422
0.00128681
0.11446
0.0016836
0.114432
0.0020774
0.0024674
0.100924
-0.00565548
-0.0998964
0.10191
-0.00530897
0.102853
-0.00494858
0.10375
-0.00457421
0.1046
-0.00418631
0.105401
-0.00378573
0.106151
-0.00337351
0.106848
-0.00295087
0.10749
-0.00251907
0.108078
-0.00207941
0.108609
-0.00163316
0.109082
-0.00118158
0.109497
-0.0007259
0.109852
-0.000267311
0.110147
0.000193036
0.110381
0.000654024
0.110554
0.00111458
0.110664
0.00157366
0.110711
0.00203027
0.0024835
0.0964369
-0.00670777
-0.0953846
0.0974497
-0.00632183
0.0984211
-0.00591997
0.0993488
-0.00550191
0.100231
-0.0050682
0.101065
-0.00461987
0.101849
-0.00415815
0.102583
-0.00368445
0.103264
-0.00320021
0.103892
-0.00270689
0.104464
-0.00220588
0.104981
-0.00169856
0.105442
-0.00118626
0.105845
-0.000670232
0.106189
-0.000151711
0.106475
0.000368123
0.106702
0.000888133
0.106868
0.00140722
0.106974
0.00192434
0.00243848
0.0922913
-0.0077723
-0.0912267
0.0933184
-0.00734898
0.0943059
-0.00690744
0.0952511
-0.00644715
0.0961519
-0.00596893
0.097006
-0.00547403
0.0978118
-0.00496396
0.0985678
-0.0044404
0.0992726
-0.00390503
0.0999252
-0.00335946
0.100525
-0.00280526
0.10107
-0.0022439
0.10156
-0.0016768
0.101996
-0.0011053
0.102374
-0.000530693
0.102697
4.57927e-05
0.102962
0.000622966
0.10317
0.00119968
0.103319
0.00177484
0.00234737
0.088501
-0.00883989
-0.0874334
0.0895337
-0.00838164
0.0905284
-0.00790214
0.091482
-0.00740078
0.092392
-0.00687888
0.093256
-0.00633807
0.0940723
-0.0057803
0.0948395
-0.00520761
0.0955565
-0.00462196
0.0962222
-0.00402519
0.096836
-0.00341901
0.0973971
-0.00280502
0.097905
-0.00218471
0.0983592
-0.00155948
0.0987591
-0.000930672
0.0991045
-0.000299573
0.0993949
0.000332591
0.0996299
0.000964641
0.0998093
0.00159544
0.00222386
0.0850574
-0.00990416
-0.0839931
0.08609
-0.00941425
0.0870863
-0.00889844
0.0880422
-0.0083567
0.0889547
-0.00779132
0.0898212
-0.00720462
0.0906401
-0.00659915
0.09141
-0.0059775
0.09213
-0.00534199
0.0927995
-0.00469467
0.0934179
-0.0040374
0.0939847
-0.00337188
0.0944997
-0.00269965
0.0949624
-0.00202218
0.0953725
-0.00134084
0.0957299
-0.000656943
0.0960343
2.82484e-05
0.0962854
0.000713528
0.0964831
0.00139773
0.0020797
0.0819384
-0.0109613
-0.0808813
0.0829685
-0.0104443
0.0839636
-0.00989351
0.0849181
-0.00931124
0.0858284
-0.00870165
0.086692
-0.00806818
0.0875072
-0.00741437
0.0882731
-0.00674344
0.0889892
-0.00605808
0.0896551
-0.00536055
0.0902705
-0.00465282
0.0908353
-0.00393663
0.0913492
-0.00321357
0.0918122
-0.00248513
0.092224
-0.00175269
0.0925847
-0.00101759
0.092894
-0.000281105
0.093152
0.000455526
0.0933586
0.00119112
0.0019245
0.0791158
-0.0120099
-0.0780671
0.0801437
-0.0114722
0.0811368
-0.0108866
0.0820877
-0.0102622
0.0829925
-0.00960637
0.0838486
-0.00892433
0.0846552
-0.00822092
0.0854118
-0.00750004
0.0861183
-0.00676466
0.0867749
-0.00601714
0.0873816
-0.00525946
0.0879383
-0.00449335
0.0884451
-0.00372039
0.088902
-0.00294207
0.0893091
-0.00215978
0.0896664
-0.00137487
0.0899739
-0.000588621
0.0902317
0.000197705
0.09044
0.000982907
0.00176578
0.0765597
-0.0130522
-0.0755174
0.0775883
-0.0125008
0.0785799
-0.0118782
0.0795254
-0.0112077
0.080421
-0.010502
0.0812655
-0.00976882
0.0820589
-0.00901431
0.0828017
-0.00824283
0.0834943
-0.00745734
0.0841373
-0.00666011
0.0847309
-0.00585302
0.0852752
-0.0050377
0.0857706
-0.00421572
0.086217
-0.00338851
0.0866147
-0.00255749
0.0869638
-0.00172399
0.0872645
-0.000889323
0.087517
-5.47611e-05
0.0877214
0.000778471
0.00160914
0.0742416
-0.0140969
-0.0731969
0.0752762
-0.0135353
0.0762662
-0.0128682
0.0772031
-0.0121446
0.0780853
-0.0113842
0.0789136
-0.0105972
0.0796898
-0.00979046
0.0804151
-0.00896814
0.0810906
-0.00813281
0.0817168
-0.00728639
0.0822944
-0.00643055
0.0828235
-0.0055668
0.0833044
-0.00469662
0.0837373
-0.00382145
0.0841225
-0.0029427
0.0844602
-0.00206171
0.0847508
-0.00117983
0.0849943
-0.000298333
0.0851913
0.000581522
0.00145847
0.0721366
-0.0151685
-0.0710651
0.0731829
-0.0145816
0.0741681
-0.0138533
0.075091
-0.0130675
0.0759542
-0.0122474
0.076762
-0.0114049
0.0775175
-0.010546
0.0782227
-0.0096734
0.0788789
-0.00878897
0.0794867
-0.00789416
0.0800465
-0.00699035
0.0805586
-0.00607895
0.0810234
-0.0051614
0.0814411
-0.00423914
0.081812
-0.00331359
0.0821364
-0.00238613
0.0824147
-0.00145812
0.0826472
-0.000530884
0.0828344
0.000394302
0.00131613
0.070235
-0.0162984
-0.069105
0.0712848
-0.0156315
0.0722546
-0.0148231
0.073155
-0.0139679
0.0739938
-0.0130863
0.0747778
-0.0121888
0.0755107
-0.011279
0.0761948
-0.0103574
0.0768309
-0.00942503
0.0774194
-0.00848274
0.0779609
-0.00753177
0.0784554
-0.00657349
0.0789034
-0.00560935
0.079305
-0.00464083
0.0796608
-0.00366937
0.0799711
-0.00269642
0.0802363
-0.00172335
0.080457
-0.000751531
0.0806336
0.000217733
0.00118309
0.068528
-0.0674171
-0.0174094
0.0695445
-0.016648
0.0704861
-0.0157647
0.0713573
-0.014839
0.0721697
-0.0138987
0.0729299
-0.012949
0.0736409
-0.01199
0.0743043
-0.0110208
0.0749206
-0.0100414
0.0754902
-0.00905235
0.0760133
-0.0080549
0.0764903
-0.00705041
0.0769213
-0.00604041
0.0773069
-0.00502642
0.0776475
-0.00400996
0.0779436
-0.0029925
0.0781957
-0.00197547
0.0784044
-0.000960262
0.0785704
5.17756e-05
0.00105924
0.0232108
0.0435757
-0.042186
-0.0246005
0.021811
0.0451516
-0.0437518
0.0204019
0.0468771
-0.045468
0.0189846
0.048782
-0.0473647
0.0175606
0.0509012
-0.0494772
0.0161319
0.0532741
-0.0518454
0.014701
0.055945
-0.0545141
0.013271
0.0589631
-0.0575331
0.0118455
0.0623807
-0.0609552
0.0104292
0.0662501
-0.0648338
0.00902764
0.07062
-0.0692184
0.00764796
0.0755291
-0.0741495
0.00629986
0.080998
-0.0796499
0.00499676
0.0870167
-0.0857136
0.00375779
0.0935283
-0.0922893
0.00261039
0.100406
-0.0992585
0.00159367
0.10742
-0.106403
0.000763091
0.11419
-0.113359
0.000197665
0.120106
-0.11954
0.124267
-0.12407
0.0232115
0.0449598
-0.0245956
0.0218166
0.0465465
0.0204119
0.0482818
0.0189982
0.0501956
0.017577
0.0523224
0.0161501
0.054701
0.0147199
0.0573751
0.0132895
0.0603936
0.0118625
0.0638076
0.0104436
0.067669
0.00903851
0.072025
0.00765483
0.0769128
0.00630266
0.0823502
0.00499609
0.0883232
0.00375504
0.0947693
0.00260793
0.101553
0.00159497
0.108433
0.000771849
0.115013
0.000212212
0.120666
0.124479
0.0231752
0.0463369
-0.0245522
0.021787
0.0479347
0.0203883
0.0496805
0.01898
0.0516039
0.0175633
0.0537391
0.0161401
0.0561242
0.0147125
0.0588027
0.0132837
0.0618224
0.0118572
0.0652341
0.0104379
0.0690884
0.00903157
0.0734313
0.00764617
0.0782982
0.00629225
0.0837041
0.00498446
0.089631
0.00374344
0.0960104
0.00259829
0.102698
0.00158958
0.109441
0.000772072
0.11583
0.000215508
0.121222
0.124695
0.0231026
0.0477053
-0.024471
0.0217225
0.0493148
0.0203314
0.0510716
0.0189301
0.0530052
0.0175197
0.0551495
0.0161019
0.0575421
0.0146788
0.0602257
0.0132535
0.0632477
0.0118296
0.066658
0.0104119
0.0705061
0.00900656
0.0748367
0.00762166
0.0796831
0.00626822
0.0850575
0.00496144
0.0909378
0.00372251
0.0972493
0.00258103
0.10384
0.00157763
0.110445
0.000766251
0.116642
0.000214341
0.121774
0.124909
0.0229944
0.0490637
-0.0243528
0.0216238
0.0506854
0.0202418
0.0524536
0.018849
0.0543981
0.0174464
0.0565521
0.0160356
0.0589528
0.0146188
0.0616425
0.0131989
0.0646677
0.0117795
0.0680774
0.0103655
0.0719201
0.00896324
0.076239
0.00758104
0.0810653
0.00623034
0.0864082
0.00492678
0.0922413
0.00369209
0.098484
0.00255624
0.104975
0.00155987
0.111441
0.000756143
0.117445
0.000210813
0.122319
0.12512
0.0228513
0.0504111
-0.0241987
0.0214915
0.0520452
0.0201198
0.0538253
0.0187368
0.055781
0.0173435
0.0579454
0.0159414
0.0603549
0.0145325
0.0630513
0.0131198
0.0660804
0.0117068
0.0694903
0.0102986
0.0733283
0.00890145
0.0776361
0.00752416
0.0824426
0.00617843
0.087754
0.00488037
0.0935394
0.00365214
0.0997122
0.00252406
0.106104
0.00153669
0.112429
0.000742489
0.11824
0.000205697
0.122856
0.125326
0.0226742
0.0517465
-0.0240096
0.0213261
0.0533934
0.0199658
0.0551856
0.0185938
0.057153
0.0172112
0.059328
0.0158192
0.0617469
0.0144199
0.0644506
0.0130161
0.0674843
0.0116114
0.070895
0.0102109
0.0747289
0.00882106
0.0790259
0.00745088
0.0838128
0.00611239
0.0890924
0.00482214
0.0948297
0.00360268
0.100932
0.0024846
0.107222
0.00150839
0.113405
0.000725771
0.119022
0.000199458
0.123382
0.125525
0.0224639
0.0530694
-0.0237868
0.0211281
0.0547291
0.0197801
0.0565336
0.0184203
0.0585128
0.0170495
0.0606989
0.015669
0.0631274
0.0142808
0.0658388
0.0128876
0.0688774
0.0114931
0.0722895
0.0101023
0.0761197
0.00872193
0.0804063
0.00736107
0.0851737
0.00603214
0.0904214
0.00475205
0.0961098
0.00354374
0.10214
0.002438
0.108327
0.00147522
0.114368
0.00070636
0.119791
0.000192375
0.123896
0.125718
0.0222209
0.0543796
-0.0235311
0.020898
0.056052
0.019563
0.0578687
0.0182162
0.0598596
0.0168583
0.0620567
0.0154907
0.064495
0.0141151
0.0672144
0.0127343
0.0702583
0.0113518
0.0736719
0.00997276
0.0774987
0.00860392
0.0817751
0.00725464
0.0865229
0.00593762
0.0917384
0.00467009
0.0973773
0.00347536
0.103335
0.00238441
0.109418
0.00143741
0.115315
0.000684505
0.120544
0.00018459
0.124396
0.125902
0.0219456
0.0556771
-0.0232431
0.0206357
0.0573619
0.0193141
0.0591903
0.0179811
0.0611926
0.0166373
0.0634005
0.0152838
0.0658485
0.0139225
0.0685757
0.0125557
0.071625
0.0111872
0.0750404
0.00982196
0.078864
0.00846688
0.0831302
0.00713149
0.0878583
0.00582877
0.0930411
0.00457629