/*--------------------------------*- C++ -*----------------------------------*\
  =========                 |
  \\      /  F ield         | OpenFOAM: The Open Source CFD Toolbox
   \\    /   O peration     | Website:  https://openfoam.org
    \\  /    A nd           | Version:  6.0
     \\/     M anipulation  |
\*---------------------------------------------------------------------------*/
FoamFile
{
    version     2.0;
    format      ascii;
    class       surfaceScalarField;
    location    "25";
    object      phi;
}
// * * * * * * * * * * * * * * * * * * * * * * * * * * * * * * * * * * * * * //

dimensions      [0 3 -1 0 0 0 0];

internalField   nonuniform List<scalar> 
38030
(
0.000110922
-0.282048
0.281937
0.000497996
-0.269681
0.269294
0.00107791
-0.26067
0.260091
0.00178306
-0.253634
0.252928
0.00256408
-0.247736
0.246955
0.00338304
-0.242412
0.241593
0.00421213
-0.237326
0.236497
0.0050324
-0.232309
0.231488
0.00583187
-0.227283
0.226484
0.00660392
-0.222234
0.221462
0.00734579
-0.217176
0.216434
0.00805737
-0.212137
0.211425
0.00874029
-0.20715
0.206467
0.00939718
-0.202246
0.201589
0.0100311
-0.197452
0.196818
0.0106452
-0.192787
0.192173
0.0112425
-0.188266
0.187669
0.0118258
-0.183898
0.183315
0.0123974
-0.179687
0.179115
0.0129593
-0.175634
0.175073
0.0135134
-0.171739
0.171185
0.0140612
-0.167997
0.16745
0.014604
-0.164404
0.163861
0.0151433
-0.160953
0.160413
0.0156803
-0.157634
0.157097
0.0162166
-0.154437
0.1539
0.0167532
-0.151347
0.150811
0.0172911
-0.148348
0.14781
0.0178305
-0.145417
0.144878
-0.142528
0.141988
0.0183704
0.000128599
-0.282177
0.000518406
-0.270071
0.00109803
-0.26125
0.00180142
-0.254337
0.00257864
-0.248514
0.00339203
-0.243225
0.00421413
-0.238149
0.0050262
-0.233121
0.00581657
-0.228074
0.00657889
-0.222997
0.00731065
-0.217907
0.008012
-0.212838
0.00868473
-0.207822
0.00933159
-0.202893
0.00995574
-0.198076
0.0105604
-0.193392
0.0111486
-0.188854
0.011723
-0.184472
0.0122861
-0.18025
0.0128397
-0.176188
0.0133857
-0.172285
0.0139255
-0.168537
0.0144604
-0.164939
0.0149919
-0.161484
0.0155212
-0.158163
0.0160497
-0.154965
0.0165789
-0.151876
0.0171096
-0.148879
0.0176424
-0.14595
-0.143062
0.0181766
0.000144524
-0.282321
0.000537304
-0.270464
0.0011156
-0.261828
0.00181664
-0.255038
0.00258992
-0.249287
0.00339757
-0.244033
0.00421233
-0.238963
0.0050158
-0.233924
0.00579662
-0.228855
0.00654876
-0.223749
0.00726998
-0.218629
0.00796067
-0.213529
0.00862281
-0.208485
0.00925927
-0.203529
0.0098733
-0.19869
0.0104682
-0.193987
0.0110469
-0.189433
0.0116122
-0.185038
0.0121664
-0.180804
0.0127115
-0.176733
0.0132491
-0.172823
0.0137807
-0.169069
0.0143075
-0.165466
0.0148309
-0.162007
0.0153521
-0.158684
0.0158727
-0.155486
0.0163941
-0.152398
0.0169174
-0.149402
0.0174433
-0.146476
-0.14359
0.0179714
0.000150862
-0.282472
0.000549051
-0.270862
0.00112857
-0.262408
0.00182805
-0.255737
0.00259751
-0.250056
0.00339926
-0.244834
0.00420638
-0.23977
0.00500087
-0.234719
0.00577174
-0.229626
0.00651329
-0.22449
0.00722359
-0.219339
0.00790325
-0.214208
0.00855444
-0.209136
0.00918018
-0.204155
0.00978379
-0.199294
0.0103686
-0.194571
0.0109376
-0.190002
0.0114935
-0.185593
0.0120386
-0.181349
0.0125749
-0.177269
0.0131039
-0.173352
0.013627
-0.169592
0.0141454
-0.165984
0.0146605
-0.162522
0.0151735
-0.159197
0.0156859
-0.155998
0.0161992
-0.152911
0.0167148
-0.149918
0.0172335
-0.146994
-0.144112
0.0177553
0.000155656
-0.282628
0.000558037
-0.271264
0.00113865
-0.262989
0.00183641
-0.256435
0.00260177
-0.250822
0.00339729
-0.24563
0.00419642
-0.24057
0.00498154
-0.235504
0.00574206
-0.230386
0.00647263
-0.225221
0.00717162
-0.220038
0.0078399
-0.214877
0.00847981
-0.209776
0.0090945
-0.20477
0.00968738
-0.199887
0.0102618
-0.195146
0.0108208
-0.190561
0.0113671
-0.18614
0.0119029
-0.181885
0.0124301
-0.177797
0.0129502
-0.173872
0.0134646
-0.170106
0.0139745
-0.166494
0.014481
-0.163029
0.0149855
-0.159702
0.0154895
-0.156502
0.0159946
-0.153416
0.0165022
-0.150425
0.0170136
-0.147506
-0.144627
0.0175289
0.000158785
-0.282787
0.000564364
-0.27167
0.00114586
-0.26357
0.00184177
-0.257131
0.00260275
-0.251583
0.00339172
-0.246419
0.00418248
-0.24136
0.00495783
-0.236279
0.0057076
-0.231136
0.0064268
-0.22594
0.00711412
-0.220725
0.00777067
-0.215533
0.00839897
-0.210404
0.0090023
-0.205373
0.00958415
-0.200468
0.0101479
-0.19571
0.0106967
-0.19111
0.011233
-0.186676
0.0117593
-0.182411
0.0122772
-0.178315
0.0127883
-0.174383
0.0132938
-0.170612
0.0137949
-0.166995
0.0142927
-0.163527
0.0147886
-0.160198
0.015284
-0.156998
0.0157806
-0.153913
0.0162801
-0.150925
0.0167839
-0.14801
-0.145136
0.0172926
0.000161245
-0.282948
0.000569136
-0.272078
0.00115092
-0.264152
0.00184453
-0.257825
0.00260073
-0.252339
0.00338271
-0.247201
0.00416467
-0.242142
0.00492984
-0.237044
0.00566846
-0.231874
0.00637592
-0.226648
0.0070512
-0.221401
0.00769567
-0.216178
0.00831204
-0.21102
0.00890372
-0.205965
0.00947427
-0.201039
0.0100271
-0.196262
0.0105653
-0.191648
0.0110916
-0.187202
0.011608
-0.182928
0.0121165
-0.178823
0.0126183
-0.174885
0.0131148
-0.171108
0.0136069
-0.167487
0.0140959
-0.164016
0.0145829
-0.160685
0.0150695
-0.157484
0.0155575
-0.154401
0.0160488
-0.151416
0.0165449
-0.148506
-0.145638
0.0170468
0.000163139
-0.283111
0.000572615
-0.272487
0.00115407
-0.264733
0.00184491
-0.258516
0.00259586
-0.25309
0.0033704
-0.247975
0.00414312
-0.242915
0.00489769
-0.237799
0.00562475
-0.232601
0.00632007
-0.227343
0.00698296
-0.222064
0.00761501
-0.21681
0.00821913
-0.211624
0.00879885
-0.206545
0.00935782
-0.201598
0.00989948
-0.196804
0.0104269
-0.192175
0.0109428
-0.187718
0.0114493
-0.183434
0.011948
-0.179322
0.0124404
-0.175377
0.0129277
-0.171595
0.0134107
-0.167971
0.0138906
-0.164496
0.0143686
-0.161163
0.0148463
-0.157962
0.0153256
-0.15488
0.0158084
-0.151899
0.0162967
-0.148994
-0.146133
0.0167917
0.000164642
-0.283276
0.000575084
-0.272897
0.00115562
-0.265314
0.00184314
-0.259203
0.00258834
-0.253835
0.00335495
-0.248742
0.00411797
-0.243678
0.00486149
-0.238542
0.00557658
-0.233317
0.00625938
-0.228026
0.00690951
-0.222714
0.00752881
-0.217429
0.00812037
-0.212216
0.00868784
-0.207112
0.00923493
-0.202145
0.00976515
-0.197334
0.0102816
-0.192692
0.0107868
-0.188224
0.0112831
-0.18393
0.0117719
-0.179811
0.0122547
-0.17586
0.0127325
-0.172073
0.0132063
-0.168444
0.013677
-0.164966
0.0141459
-0.161632
0.0146146
-0.158431
0.015085
-0.15535
0.0155593
-0.152373
0.0160396
-0.149474
-0.146621
0.0165276
0.000165805
-0.283441
0.000576679
-0.273308
0.00115573
-0.265893
0.00183938
-0.259887
0.00257832
-0.254574
0.00333652
-0.2495
0.00408936
-0.244431
0.00482139
-0.239274
0.00552409
-0.234019
0.00619398
-0.228696
0.00683099
-0.223351
0.0074372
-0.218035
0.00801588
-0.212795
0.00857078
-0.207667
0.00910572
-0.20268
0.00962421
-0.197853
0.0101294
-0.193197
0.0106238
-0.188718
0.0111095
-0.184416
0.0115883
-0.180289
0.0120613
-0.176333
0.0125295
-0.172541
0.0129938
-0.168909
0.0134552
-0.165428
0.0139149
-0.162091
0.0143744
-0.15889
0.0148358
-0.155812
0.0153014
-0.152839
0.0157736
-0.149946
-0.147102
0.0162546
0.000166675
-0.283608
0.000577496
-0.273719
0.00115454
-0.26647
0.00183381
-0.260566
0.00256596
-0.255306
0.00331524
-0.25025
0.00405744
-0.245173
0.00477753
-0.239994
0.00546743
-0.234709
0.00612403
-0.229352
0.00674755
-0.223974
0.00734032
-0.218628
0.00790578
-0.21336
0.00844782
-0.208209
0.0089703
-0.203202
0.00947678
-0.198359
0.00997037
-0.193691
0.0104537
-0.189201
0.0109287
-0.184891
0.0113971
-0.180758
0.01186
-0.176796
0.0123185
-0.173
0.0127732
-0.169363
0.0132252
-0.16588
0.0136754
-0.162542
0.0141257
-0.15934
0.0145779
-0.156264
0.0150348
-0.153296
0.0154989
-0.150411
-0.147576
0.0159728
0.000167275
-0.283775
0.000577601
-0.274129
0.00115216
-0.267044
0.00182654
-0.26124
0.00255141
-0.256031
0.00329129
-0.250989
0.00402237
-0.245904
0.00473008
-0.240702
0.00540676
-0.235386
0.00604966
-0.229995
0.00665933
-0.224584
0.00723831
-0.219207
0.00779023
-0.213912
0.00831907
-0.208738
0.00882878
-0.203712
0.00932294
-0.198854
0.00980468
-0.194172
0.0102766
-0.189673
0.0107406
-0.185355
0.0111984
-0.181216
0.0116511
-0.177249
0.0120996
-0.173448
0.0125445
-0.169808
0.0129868
-0.166322
0.0134276
-0.162982
0.0138684
-0.159781
0.0143114
-0.156707
0.0147594
-0.153744
0.0152153
-0.150866
-0.148043
0.015682
0.000167617
-0.283943
0.000577056
-0.274539
0.00114868
-0.267616
0.00181771
-0.261909
0.00253481
-0.256748
0.0032648
-0.251719
0.0039843
-0.246624
0.0046792
-0.241397
0.00534225
-0.236049
0.00597107
-0.230624
0.00656651
-0.225179
0.00713134
-0.219772
0.00766937
-0.21445
0.00818468
-0.209253
0.00868128
-0.204209
0.0091628
-0.199335
0.00963236
-0.194642
0.0100925
-0.190133
0.0105453
-0.185808
0.0109922
-0.181662
0.0114343
-0.177691
0.0118726
-0.173887
0.0123076
-0.170243
0.0127401
-0.166754
0.0131711
-0.163413
0.0136024
-0.160212
0.014036
-0.157141
0.0144749
-0.154183
0.0149225
-0.151314
-0.148502
0.015382
0.000167711
-0.284111
0.000575905
-0.274947
0.00114421
-0.268184
0.00180744
-0.262573
0.0025163
-0.257457
0.00323594
-0.252439
0.00394342
-0.247331
0.00462507
-0.242079
0.00527407
-0.236698
0.00588843
-0.231238
0.00646926
-0.22576
0.00701959
-0.220322
0.00754336
-0.214974
0.00804478
-0.209755
0.00852793
-0.204692
0.00899645
-0.199804
0.00945347
-0.195099
0.00990155
-0.190581
0.0103427
-0.186249
0.0107784
-0.182098
0.0112097
-0.178122
0.0116374
-0.174314
0.0120621
-0.170668
0.0124846
-0.167177
0.0129058
-0.163835
0.0133273
-0.160634
0.0137513
-0.157565
0.014181
-0.154612
0.0146201
-0.151753
-0.148955
0.0150725
0.000167565
-0.284278
0.000574204
-0.275354
0.00113883
-0.268749
0.00179586
-0.26323
0.00249606
-0.258157
0.0032049
-0.253148
0.00389991
-0.248026
0.0045679
-0.242747
0.00520246
-0.237332
0.00580195
-0.231838
0.0063678
-0.226326
0.00690325
-0.220857
0.00741239
-0.215483
0.00789956
-0.210242
0.00836886
-0.205161
0.00882399
-0.200259
0.00926809
-0.195543
0.00970369
-0.191017
0.0101328
-0.186678
0.0105569
-0.182522
0.010977
-0.178542
0.0113938
-0.174731
0.011808
-0.171082
0.0122202
-0.167589
0.0126312
-0.164246
0.0130427
-0.161045
0.0134569
-0.157979
0.0138772
-0.155033
0.0143077
-0.152184
-0.1494
0.0147526
0.000167188
-0.284445
0.000572015
-0.275759
0.00113267
-0.26931
0.00178313
-0.26388
0.00247424
-0.258848
0.00317186
-0.253845
0.00385399
-0.248708
0.00450791
-0.243401
0.00512763
-0.237952
0.00571188
-0.232422
0.00626237
-0.226876
0.00678256
-0.221378
0.00727669
-0.215977
0.0077492
-0.210714
0.00820426
-0.205616
0.00864557
-0.2007
0.00907629
-0.195974
0.00949896
-0.19144
0.00991556
-0.187095
0.0103276
-0.182934
0.010736
-0.178951
0.0111415
-0.175137
0.0115448
-0.171485
0.0119462
-0.167991
0.0123468
-0.164646
0.012748
-0.161446
0.0131521
-0.158383
0.0135627
-0.155443
0.0139843
-0.152605
-0.149837
0.0144217
0.00016659
-0.284612
0.00056941
-0.276161
0.00112585
-0.269866
0.0017694
-0.264524
0.00245104
-0.25953
0.00313704
-0.254531
0.00380589
-0.249377
0.00444535
-0.24404
0.00504986
-0.238557
0.00561849
-0.232991
0.00615324
-0.227411
0.00665778
-0.221882
0.00713651
-0.216456
0.00759394
-0.211172
0.00803431
-0.206057
0.00846134
-0.201127
0.0088782
-0.196391
0.00928742
-0.191849
0.00969098
-0.187498
0.0100903
-0.183334
0.0104866
-0.179347
0.0108803
-0.17553
0.011272
-0.171877
0.0116623
-0.168381
0.012052
-0.165036
0.0124424
-0.161837
0.012836
-0.158777
0.0132366
-0.155844
0.0136488
-0.153017
-0.150267
0.0140785
0.000165794
-0.284778
0.000566486
-0.276562
0.00111853
-0.270418
0.00175488
-0.26516
0.00242668
-0.260202
0.00310068
-0.255205
0.00375589
-0.250032
0.00438051
-0.244665
0.00496944
-0.239146
0.00552207
-0.233543
0.00604071
-0.22793
0.00652922
-0.222371
0.00699214
-0.216919
0.00743407
-0.211614
0.00785928
-0.206482
0.00827153
-0.201539
0.00867397
-0.196793
0.00906915
-0.192244
0.00945905
-0.187888
0.00984514
-0.18372
0.0102285
-0.17973
0.0106097
-0.175912
0.0109893
-0.172257
0.0113678
-0.168759
0.011746
-0.165414
0.0121251
-0.162216
0.0125077
-0.159159
0.0128976
-0.156234
0.0133001
-0.15342
-0.150688
0.0137216
0.000164841
-0.284943
0.000563377
-0.276961
0.00111089
-0.270966
0.00173977
-0.265789
0.00240141
-0.260863
0.00306306
-0.255867
0.00370426
-0.250674
0.00431371
-0.245274
0.00488669
-0.239719
0.00542299
-0.23408
0.00592515
-0.228432
0.00639725
-0.222843
0.00684395
-0.217366
0.00726993
-0.21204
0.00767949
-0.206891
0.0080764
-0.201936
0.00846383
-0.19718
0.00884431
-0.192624
0.00921983
-0.188264
0.00959187
-0.184092
0.00996149
-0.1801
0.0103294
-0.17628
0.0106961
-0.172624
0.011062
-0.169125
0.0114278
-0.16578
0.0117949
-0.162583
0.0121658
-0.15953
0.0125443
-0.156612
0.0129363
-0.153812
-0.151101
0.0133491
0.000163789
-0.285106
0.000560252
-0.277357
0.00110317
-0.271509
0.00172435
-0.26641
0.00237551
-0.261515
0.00302448
-0.256516
0.00365135
-0.2513
0.00424528
-0.245868
0.004802
-0.240275
0.00532162
-0.234599
0.00580697
-0.228917
0.00626228
-0.223298
0.00669237
-0.217796
0.00710194
-0.212449
0.00749535
-0.207285
0.00787636
-0.202317
0.00824812
-0.197552
0.00861317
-0.19299
0.00897349
-0.188624
0.00933058
-0.184449
0.00968553
-0.180455
0.0100391
-0.176633
0.0103917
-0.172976
0.010744
-0.169478
0.0110965
-0.166132
0.0114505
-0.162937
0.0118086
-0.159888
0.0121747
-0.156978
0.0125552
-0.154192
-0.151504
0.0129584
0.000162746
-0.285269
0.000557344
-0.277752
0.00109565
-0.272047
0.00170891
-0.267023
0.0023493
-0.262155
0.00298529
-0.257152
0.00359751
-0.251913
0.00417563
-0.246446
0.00471578
-0.240816
0.00521842
-0.235102
0.00568663
-0.229386
0.00612482
-0.223736
0.00653791
-0.218209
0.00693065
-0.212842
0.0073074
-0.207662
0.00767192
-0.202682
0.00802732
-0.197908
0.00837612
-0.193338
0.00872033
-0.188968
0.00906144
-0.18479
0.00940057
-0.180794
0.00973851
-0.176971
0.0100758
-0.173314
0.010413
-0.169815
0.0107508
-0.16647
0.0110904
-0.163277
0.0114342
-0.160232
0.0117866
-0.157331
0.0121541
-0.15456
-0.151896
0.0125463
0.000161886
-0.285431
0.000554957
-0.278145
0.00108867
-0.272581
0.00169379
-0.267628
0.00232314
-0.262784
0.00294586
-0.257775
0.00354315
-0.25251
0.00410517
-0.247008
0.00462848
-0.241339
0.00511386
-0.235587
0.00556465
-0.229836
0.00598543
-0.224157
0.00638117
-0.218604
0.00675668
-0.213217
0.00711629
-0.208021
0.00746373
-0.203029
0.00780207
-0.198246
0.0081338
-0.19367
0.00846089
-0.189296
0.00878485
-0.185114
0.00910683
-0.181116
0.00942767
-0.177292
0.00974803
-0.173634
0.0100685
-0.170135
0.0103897
-0.166791
0.010713
-0.1636
0.0110408
-0.16056
0.0113775
-0.157667
0.0117302
-0.154913
-0.152276
0.0121095
0.000161506
-0.285593
0.000553543
-0.278537
0.00108268
-0.27311
0.00167945
-0.268225
0.00229745
-0.263402
0.0029066
-0.258384
0.00348868
-0.253092
0.00403435
-0.247554
0.00454057
-0.241845
0.00500848
-0.236055
0.00544162
-0.230269
0.00584473
-0.22456
0.00622285
-0.218983
0.00658079
-0.213575
0.00692285
-0.208363
0.00725266
-0.203359
0.00757326
-0.198567
0.00788706
-0.193984
0.00819597
-0.189604
0.0085015
-0.185419
0.0088048
-0.181419
0.00910678
-0.177594
0.00940815
-0.173935
0.00970961
-0.170437
0.010012
-0.167094
0.0103166
-0.163905
0.010626
-0.160869
0.0109446
-0.157986
0.0112801
-0.155248
-0.15264
0.0116438
0.000162086
-0.285755
0.000553759
-0.278928
0.00107825
-0.273634
0.00166635
-0.268813
0.00227267
-0.264009
0.00286794
-0.258979
0.00343453
-0.253659
0.00396361
-0.248083
0.00445255
-0.242334
0.00490281
-0.236505
0.00531815
-0.230685
0.00570344
-0.224946
0.00606376
-0.219343
0.00640389
-0.213916
0.00672805
-0.208687
0.00703981
-0.203671
0.00734207
-0.198869
0.00763713
-0.194279
0.00792682
-0.189894
0.00821257
-0.185705
0.0084955
-0.181702
0.00877653
-0.177875
0.00905645
-0.174215
0.00933604
-0.170716
0.00961633
-0.167374
0.00989887
-0.164187
0.0101863
-0.161157
0.0104833
-0.158283
0.0107977
-0.155563
-0.152984
0.0111422
0.00016442
-0.285919
0.00055648
-0.279321
0.00107601
-0.274154
0.00165496
-0.269392
0.00224921
-0.264603
0.00283028
-0.25956
0.00338113
-0.254209
0.00389341
-0.248595
0.00436492
-0.242805
0.00479743
-0.236938
0.00519491
-0.231082
0.00556232
-0.225313
0.00590477
-0.219685
0.00622699
-0.214238
0.00653309
-0.208994
0.00682651
-0.203964
0.00710999
-0.199152
0.00738568
-0.194555
0.00765523
-0.190164
0.00791993
-0.18597
0.00818078
-0.181963
0.00843862
-0.178133
0.00869421
-0.174471
0.00894837
-0.17097
0.00920226
-0.167628
0.00945769
-0.164443
0.00971765
-0.161417
0.0099869
-0.158552
0.0102737
-0.155849
-0.153305
0.0105948
0.000169575
-0.286089
0.000562579
-0.279714
0.00107645
-0.274668
0.00164571
-0.269961
0.0022275
-0.265185
0.00279403
-0.260127
0.00332888
-0.254744
0.00382419
-0.249091
0.00427818
-0.243259
0.00469291
-0.237353
0.00507256
-0.231462
0.00542217
-0.225663
0.00574684
-0.22001
0.00605122
-0.214542
0.00633931
-0.209282
0.00661434
-0.204239
0.00687887
-0.199417
0.0071348
-0.194811
0.00738357
-0.190412
0.00762621
-0.186213
0.00786351
-0.1822
0.00809609
-0.178365
0.00832452
-0.174699
0.00854948
-0.171195
0.00877204
-0.16785
0.00899409
-0.164665
0.00921893
-0.161642
0.00945196
-0.158785
0.00970292
-0.1561
-0.153596
0.00999403
0.000178706
-0.286267
0.000572831
-0.280108
0.00108026
-0.275175
0.00163923
-0.27052
0.00220809
-0.265754
0.00275966
-0.260678
0.00327817
-0.255263
0.00375632
-0.249569
0.00419272
-0.243696
0.00458974
-0.23775
0.00495172
-0.231824
0.00528376
-0.225995
0.00559094
-0.220317
0.0058778
-0.214829
0.00614817
-0.209552
0.00640509
-0.204496
0.00665083
-0.199663
0.00688702
-0.195047
0.00711475
-0.19064
0.0073347
-0.186432
0.00754729
-0.182413
0.0077528
-0.178571
0.00795148
-0.174898
0.00814368
-0.171388
0.0083302
-0.168037
0.0085128
-0.164847
0.00869495
-0.161824
0.00888282
-0.158973
0.00908821
-0.156306
-0.153837
0.00932936
0.00019356
-0.286461
0.000589595
-0.280504
0.00108959
-0.275675
0.0016369
-0.271068
0.00219168
-0.266308
0.0027275
-0.261214
0.00322921
-0.255764
0.00368998
-0.250029
0.00410881
-0.244115
0.00448828
-0.238129
0.00483288
-0.232169
0.00514776
-0.226309
0.00543794
-0.220607
0.00570787
-0.215099
0.00596119
-0.209805
0.0062007
-0.204736
0.00642836
-0.19989
0.00664542
-0.195264
0.00685251
-0.190847
0.00704977
-0.18663
0.00723696
-0.1826
0.00741367
-0.178748
0.00757941
-0.175064
0.0077339
-0.171542
0.00787753
-0.168181
0.00801214
-0.164982
0.00814172
-0.161953
0.00827178
-0.159103
0.0084103
-0.156444
-0.153982
0.008555
0.00022143
-0.286682
0.000620265
-0.280903
0.00110822
-0.276163
0.00163989
-0.271599
0.00217833
-0.266847
0.00269734
-0.261733
0.0031818
-0.256249
0.00362511
-0.250473
0.00402649
-0.244516
0.00438872
-0.238491
0.0047164
-0.232496
0.0050147
-0.226608
0.00528862
-0.220881
0.00554249
-0.215353
0.0057798
-0.210043
0.00600311
-0.204959
0.0062141
-0.200101
0.00641362
-0.195463
0.00660175
-0.191035
0.00677791
-0.186806
0.00694086
-0.182763
0.00708874
-0.178895
0.00721918
-0.175194
0.00732956
-0.171652
0.00741771
-0.168269
0.00748324
-0.165047
0.00752876
-0.161999
0.00755966
-0.159134
0.0075851
-0.15647
-0.154008
0.00761054
0.000286232
-0.286969
0.000671369
-0.281288
0.0011351
-0.276627
0.00164625
-0.272111
0.00216664
-0.267367
0.00266836
-0.262235
0.00313556
-0.256716
0.0035616
-0.250899
0.00394586
-0.2449
0.0042913
-0.238837
0.00460263
-0.232808
0.00488509
-0.22689
0.00514365
-0.22114
0.00538257
-0.215592
0.00560523
-0.210265
0.00581403
-0.205168
0.00601045
-0.200298
0.00619506
-0.195648
0.00636759
-0.191208
0.0065269
-0.186965
0.00667085
-0.182907
0.00679614
-0.179021
0.00689785
-0.175296
0.00696906
-0.171724
0.00700034
-0.1683
0.00697922
-0.165026
0.0068905
-0.16191
0.00672293
-0.158967
0.00650335
-0.15625
-0.154029
0.00652462
0.290787
0.000197537
-0.290985
0.290627
0.000160005
0.290483
0.000144337
0.290346
0.000136318
0.290215
0.000131615
0.290086
0.000129205
0.289957
0.000128412
0.289829
0.000128613
0.289699
0.000129346
0.289569
0.000130335
0.289437
0.000131413
0.289305
0.000132482
0.289171
0.000133495
0.289037
0.000134419
0.288902
0.000135245
0.288766
0.000135966
0.288629
0.000136584
0.288492
0.000137101
0.288355
0.000137511
0.288217
0.000137813
0.288079
0.000137986
0.287941
0.000138001
0.287803
0.000137779
0.287666
0.000137237
0.28753
0.000136072
0.287396
0.000134127
0.287266
0.000129633
0.287143
0.000122943
0.287043
0.000100024
7.44063e-05
0.289726
0.00043289
-0.289961
0.289477
0.000408468
0.289226
0.000395759
0.288971
0.000390955
0.288713
0.000389615
0.288452
0.00039035
0.288188
0.000392743
0.28792
0.000396327
0.287649
0.000400627
0.287374
0.000405277
0.287095
0.000410059
0.286813
0.000414825
0.286527
0.000419472
0.286237
0.000423939
0.285944
0.000428182
0.285648
0.000432175
0.285349
0.000435906
0.285046
0.000439366
0.284741
0.000442539
0.284434
0.00044541
0.284124
0.000447937
0.283812
0.000450065
0.283498
0.00045165
0.283183
0.00045252
0.282866
0.000452195
0.28255
0.000450282
0.282235
0.000444812
0.281922
0.000435768
0.281607
0.000415372
0.000393649
0.287132
0.000658238
-0.287357
0.286884
0.000656342
0.286621
0.000658408
0.286347
0.000665218
0.286062
0.000674526
0.285767
0.000685057
0.285464
0.000696468
0.285152
0.000708527
0.284831
0.000720942
0.284503
0.000733441
0.284167
0.000745823
0.283824
0.000757957
0.283474
0.000769746
0.283117
0.000781122
0.282753
0.000792042
0.282383
0.000802475
0.282006
0.000812403
0.281624
0.000821822
0.281235
0.000830713
0.280842
0.000839062
0.280443
0.000846829
0.280039
0.000853945
0.27963
0.000860269
0.279217
0.000865614
0.2788
0.000869545
0.278378
0.000871708
0.277952
0.000870869
0.277521
0.000867154
0.277079
0.000857546
0.000845777
0.282955
0.000844711
-0.283141
0.282746
0.000864973
0.282519
0.000885829
0.282275
0.000908578
0.282017
0.000932586
0.281745
0.000957079
0.28146
0.000981734
0.281162
0.0010064
0.280852
0.00103091
0.28053
0.00105506
0.280198
0.0010787
0.279854
0.00110171
0.279499
0.00112403
0.279135
0.00114558
0.278761
0.00116636
0.278377
0.00118632
0.277984
0.00120547
0.277582
0.00122381
0.277171
0.00124134
0.276752
0.00125807
0.276325
0.00127397
0.27589
0.001289
0.275447
0.00130306
0.274997
0.00131604
0.274539
0.00132763
0.274073
0.00133765
0.273598
0.00134546
0.273114
0.00135114
0.272618
0.00135341
0.0013535
0.277526
0.000974799
-0.277656
0.277375
0.00101644
0.277203
0.00105724
0.277014
0.00109816
0.276807
0.00113923
0.276584
0.00118013
0.276345
0.0012206
0.276091
0.00126052
0.275822
0.00129975
0.275539
0.00133818
0.275242
0.00137566
0.274932
0.00141212
0.274608
0.00144749
0.274272
0.00148172
0.273923
0.00151481
0.273563
0.00154674
0.273191
0.00157753
0.272808
0.00160719
0.272413
0.00163576
0.272008
0.00166325
0.271592
0.0016897
0.271166
0.0017151
0.27073
0.00173943
0.270283
0.00176265
0.269826
0.00178462
0.269359
0.00180528
0.26888
0.00182434
0.268389
0.00184186
0.267885
0.00185732
0.00187145
0.2712
0.00104479
-0.27127
0.271109
0.00110725
0.270998
0.00116823
0.270868
0.00122829
0.27072
0.00128765
0.270554
0.00134622
0.27037
0.00140385
0.27017
0.00146043
0.269954
0.00151587
0.269722
0.00157006
0.269475
0.0016229
0.269213
0.00167434
0.268936
0.00172431
0.268645
0.00177279
0.26834
0.00181977
0.268022
0.00186526
0.26769
0.00190928
0.267345
0.00195188
0.266988
0.00199312
0.266618
0.00203304
0.266236
0.00207173
0.265842
0.00210923
0.265436
0.0021456
0.265017
0.00218089
0.264587
0.0022151
0.264144
0.00224826
0.263688
0.00228032
0.263218
0.00231141
0.262734
0.00234139
0.0023709
0.264329
0.00106045
-0.264345
0.264293
0.00114316
0.264237
0.00122403
0.264162
0.00130335
0.264069
0.00138133
0.263957
0.001458
0.263827
0.00153328
0.263681
0.00160707
0.263517
0.00167929
0.263337
0.00174988
0.263142
0.00181876
0.26293
0.00188588
0.262703
0.00195118
0.262461
0.00201466
0.262205
0.00207631
0.261934
0.00213616
0.261649
0.00219425
0.26135
0.00225064
0.261038
0.00230541
0.260712
0.00235867
0.260373
0.00241053
0.260022
0.00246111
0.259657
0.00251054
0.259279
0.00255895
0.258887
0.00260645
0.258482
0.0026532
0.258063
0.00269929
0.25763
0.00274495
0.257181
0.00279022
0.00283567
0.257216
0.00103215
-0.257188
0.257225
0.00113438
0.257215
0.00123451
0.257185
0.00133267
0.257138
0.00142902
0.257072
0.00152362
0.256989
0.00161643
0.256889
0.00170738
0.256771
0.0017964
0.256638
0.00188343
0.256488
0.00196842
0.256323
0.0020513
0.256142
0.00213206
0.255946
0.00221068
0.255735
0.00228717
0.25551
0.00236156
0.25527
0.00243392
0.255016
0.00250432
0.254749
0.00257288
0.254468
0.00263975
0.254173
0.00270508
0.253865
0.00276905
0.253544
0.00283187
0.253209
0.00289376
0.252861
0.00295495
0.252498
0.00301568
0.252121
0.00307617
0.25173
0.00313674
0.251322
0.00319754
0.00325908
0.250095
0.000971442
-0.250034
0.250137
0.00109231
0.25016
0.00121088
0.250166
0.00132717
0.250154
0.0014413
0.250124
0.00155332
0.250077
0.0016632
0.250014
0.00177089
0.249934
0.00187633
0.249838
0.00197945
0.249726
0.00208021
0.249599
0.00217857
0.249456
0.00227449
0.249299
0.00236797
0.249127
0.00245904
0.248941
0.00254772
0.248741
0.00263411
0.248527
0.0027183
0.248299
0.00280043
0.248058
0.00288068
0.247804
0.00295927
0.247537
0.00303644
0.247256
0.00311248
0.246962
0.00318769
0.246655
0.00326239
0.246333
0.00333695
0.245998
0.00341169
0.245648
0.00348702
0.245282
0.00356316
0.00364062
0.243125
0.000889059
-0.243043
0.24319
0.00102767
0.243237
0.00116378
0.243267
0.00129739
0.243279
0.00142855
0.243275
0.00155729
0.243255
0.0016836
0.243219
0.00180742
0.243166
0.00192868
0.243098
0.00204733
0.243015
0.00216331
0.242917
0.00227659
0.242805
0.00238715
0.242678
0.00249497
0.242536
0.00260009
0.242382
0.00270255
0.242213
0.00280243
0.242032
0.00289988
0.241837
0.00299504
0.24163
0.00308814
0.241409
0.00317945
0.241177
0.00326926
0.240931
0.00335795
0.240673
0.00344591
0.240402
0.00353358
0.240117
0.00362142
0.239819
0.00370987
0.239507
0.00379943
0.239179
0.00389043
0.00398336
0.23641
0.000794047
-0.236314
0.236488
0.000949519
0.236549
0.00110234
0.236594
0.00125243
0.236623
0.00139984
0.236635
0.00154457
0.236633
0.00168659
0.236614
0.00182583
0.236581
0.00196224
0.236532
0.00209575
0.236469
0.00222631
0.236392
0.00235387
0.236301
0.00247841
0.236196
0.00259992
0.236077
0.00271843
0.235946
0.00283399
0.235802
0.0029467
0.235645
0.0030567
0.235476
0.00316417
0.235294
0.00326938
0.235101
0.00337263
0.234896
0.0034743
0.234679
0.00357483
0.23445
0.00367472
0.23421
0.00377451
0.233956
0.00387479
0.23369
0.00397615
0.23341
0.00407916
0.233116
0.00418431
0.00429207
0.230003
0.000693461
-0.229902
0.230087
0.000865012
0.230156
0.00103374
0.230209
0.00119957
0.230246
0.00136248
0.230268
0.00152248
0.230275
0.00167951
0.230268
0.00183349
0.230245
0.00198437
0.230209
0.00213207
0.230159
0.00227653
0.230095
0.0024177
0.230018
0.00255555
0.229928
0.00269007
0.229825
0.00282127
0.22971
0.00294922
0.229582
0.003074
0.229443
0.00319578
0.229293
0.00331477
0.229131
0.00343124
0.228958
0.00354555
0.228774
0.00365815
0.228579
0.00376955
0.228374
0.00388036
0.228157
0.00399126
0.227929
0.00410298
0.227689
0.00421623
0.227436
0.00433177
0.22717
0.00445019
0.00457203
0.223926
0.000592437
-0.223825
0.224012
0.000779384
0.224082
0.000963355
0.224138
0.00114423
0.224178
0.00132199
0.224204
0.0014966
0.224216
0.001668
0.224213
0.0018361
0.224197
0.00200083
0.224167
0.00216209
0.224123
0.00231983
0.224067
0.00247398
0.223998
0.00262449
0.223917
0.00277135
0.223823
0.00291457
0.223718
0.00305419
0.223602
0.00319032
0.223475
0.0033231
0.223337
0.00345277
0.223188
0.00357963
0.22303
0.00370407
0.222861
0.0038266
0.222683
0.00394783
0.222495
0.00406847
0.222297
0.00418934
0.222089
0.00431134
0.221869
0.00443537
0.221639
0.00456236
0.221396
0.0046931
0.0048282
0.21818
0.000494462
-0.218082
0.218263
0.000696234
0.218332
0.000894866
0.218386
0.00109022
0.218425
0.00128226
0.218451
0.00147093
0.218463
0.00165615
0.218461
0.00183781
0.218446
0.00201583
0.218418
0.00219011
0.218377
0.00236057
0.218324
0.00252712
0.218259
0.00268972
0.218182
0.00284833
0.218094
0.00300294
0.217994
0.00315359
0.217884
0.00330037
0.217764
0.00344343
0.217634
0.00358298
0.217494
0.00371936
0.217345
0.00385301
0.217187
0.00398446
0.217021
0.00411443
0.216845
0.00424374
0.216661
0.00437338
0.216468
0.00450442
0.216266
0.00463801
0.216053
0.0047753
0.215828
0.00491731
0.00506484
0.212749
0.000401702
-0.212657
0.212828
0.000617825
0.212892
0.000830643
0.212942
0.00104001
0.212979
0.00124585
0.213001
0.00144811
0.213011
0.00164668
0.213007
0.00184145
0.212991
0.0020323
0.212962
0.00221913
0.21292
0.00240183
0.212867
0.00258032
0.212802
0.00275451
0.212726
0.00292435
0.21264
0.00308981
0.212542
0.00325092
0.212435
0.00340772
0.212318
0.00356038
0.212192
0.00370909
0.212057
0.00385419
0.211914
0.00399613
0.211763
0.00413552
0.211604
0.00427313
0.211438
0.00440993
0.211264
0.00454705
0.211083
0.00468581
0.210893
0.00482764
0.210695
0.00497398
0.210486
0.00512619
0.00528528
0.207613
0.000315317
-0.207527
0.207685
0.000545407
0.207744
0.000772026
0.207789
0.000995012
0.207821
0.00121429
0.207839
0.00142975
0.207844
0.0016413
0.207837
0.00184878
0.207817
0.00205209
0.207785
0.00225109
0.207741
0.00244565
0.207686
0.00263567
0.207619
0.00282105
0.207542
0.00300169
0.207454
0.00317756
0.207357
0.00334863
0.207249
0.00351494
0.207133
0.0036766
0.207008
0.00383381
0.206876
0.00398689
0.206736
0.00413629
0.206588
0.00428265
0.206435
0.00442681
0.206275
0.00456987
0.206109
0.00471314
0.205936
0.00485822
0.205757
0.00500685
0.20557
0.0051609
0.205374
0.00532211
0.00549189
0.202746
0.000235756
-0.202667
0.202812
0.000479507
0.202865
0.000719619
0.202904
0.00095592
0.20293
0.00118831
0.202943
0.00141669
0.202943
0.0016409
0.202931
0.00186081
0.202907
0.00207628
0.202871
0.00228714
0.202823
0.00249326
0.202765
0.00269451
0.202695
0.00289074
0.202615
0.00308185
0.202525
0.00326775
0.202425
0.00344839
0.202316
0.00362376
0.202199
0.00379394
0.202073
0.00395908
0.201941
0.00411947
0.201801
0.00427555
0.201656
0.00442796
0.201505
0.0045776
0.20135
0.00472567
0.201189
0.00487371
0.201024
0.00502356
0.200853
0.00517744
0.200676
0.00533766
0.200492
0.00550657
0.00568608
0.198125
0.000163004
-0.198053
0.198185
0.000420168
0.198231
0.000673529
0.198264
0.000922903
0.198284
0.00116817
0.198291
0.00140921
0.198286
0.00164587
0.198269
0.00187797
0.19824
0.00210536
0.198199
0.00232786
0.198147
0.00254531
0.198084
0.00275753
0.198011
0.00296438
0.197927
0.0031657
0.197833
0.00336135
0.19773