/*--------------------------------*- C++ -*----------------------------------*\
| =========                 |                                                 |
| \\      /  F ield         | OpenFOAM: The Open Source CFD Toolbox           |
|  \\    /   O peration     | Version:  v1912                                 |
|   \\  /    A nd           | Website:  www.openfoam.com                      |
|    \\/     M anipulation  |                                                 |
\*---------------------------------------------------------------------------*/
FoamFile
{
    version     2.0;
    format      ascii;
    class       volScalarField;
    location    "38";
    object      p;
}
// * * * * * * * * * * * * * * * * * * * * * * * * * * * * * * * * * * * * * //

dimensions      [0 2 -2 0 0 0 0];


internalField   nonuniform List<scalar> 
9600
(
-41.46
-36.194
-32.966
-30.2276
-27.7214
-25.454
-23.3972
-21.5231
-19.814
-18.2564
-16.8374
-15.5453
-14.3685
-13.2963
-12.3186
-11.4259
-10.6098
-9.86242
-9.17617
-8.5489
-42.2174
-36.9339
-33.67
-30.8889
-28.3377
-26.0264
-23.9284
-22.0166
-20.2738
-18.6862
-17.241
-15.9258
-14.7288
-13.6388
-12.6452
-11.7384
-10.9096
-10.1505
-9.45316
-8.81665
-42.9764
-37.6698
-34.3687
-31.5447
-28.9483
-26.5929
-24.4536
-22.5042
-20.7279
-19.1107
-17.6395
-16.3015
-15.0846
-13.9769
-12.9678
-12.047
-11.2056
-10.4349
-9.72658
-9.08104
-43.7339
-38.4014
-35.0616
-32.194
-29.552
-27.1523
-24.9718
-22.9851
-21.1755
-19.529
-18.0321
-16.6718
-15.4352
-14.3103
-13.2858
-12.3513
-11.4975
-10.7153
-9.99604
-9.34172
-44.4869
-39.127
-35.7476
-32.8357
-30.1479
-27.7038
-25.4822
-23.4583
-21.6157
-19.9403
-18.4182
-17.0358
-15.78
-14.6381
-13.5986
-12.6507
-11.7847
-10.9912
-10.2612
-9.59843
-45.2334
-39.8452
-36.4256
-33.4688
-30.7349
-28.2464
-25.9838
-23.923
-22.0479
-20.3439
-18.797
-17.3931
-16.1184
-14.9599
-13.9057
-12.9447
-12.0668
-11.2622
-10.5216
-9.85089
-45.9715
-40.5547
-37.0942
-34.0921
-31.3119
-28.779
-26.4756
-24.3783
-22.471
-20.7391
-19.1678
-17.7427
-16.4496
-15.2751
-14.2066
-13.2328
-12.3433
-11.5279
-10.7771
-10.0988
-46.6997
-41.2539
-37.7523
-34.7045
-31.8778
-29.3007
-26.9567
-24.8233
-22.8843
-21.1249
-19.5298
-18.0841
-16.7731
-15.5829
-14.5005
-13.5144
-12.6138
-11.7879
-11.0272
-10.3419
-47.4167
-41.9416
-38.3987
-35.3049
-32.4317
-29.8105
-27.4263
-25.2572
-23.287
-21.5006
-19.8823
-18.4165
-17.0881
-15.8827
-14.787
-13.7889
-12.8776
-12.0416
-11.2715
-10.5799
-48.1213
-42.6166
-39.0321
-35.8922
-32.9725
-30.3073
-27.8833
-25.679
-23.6781
-21.8653
-20.2244
-18.7391
-17.3939
-16.1738
-15.0652
-14.0557
-13.1341
-12.2886
-11.5096
-10.8122
-48.8123
-43.2778
-39.6516
-36.4653
-33.4992
-30.7904
-28.3269
-26.0879
-24.057
-22.2184
-20.5553
-19.0511
-17.6895
-16.4553
-15.3343
-14.314
-13.3827
-12.5281
-11.7407
-11.0384
-49.4888
-43.9241
-40.2561
-37.0234
-34.0109
-31.2587
-28.7562
-26.483
-24.4227
-22.5588
-20.8743
-19.3516
-17.9742
-16.7264
-15.5935
-14.5628
-13.6224
-12.7593
-11.964
-11.2576
-50.15
-44.5549
-40.8448
-37.5655
-34.5068
-31.7115
-29.1705
-26.8636
-24.7743
-22.8858
-21.1803
-19.6397
-18.247
-16.9859
-15.8417
-14.8012
-13.8522
-12.9813
-12.1788
-11.469
-50.7954
-45.1691
-41.4168
-38.0909
-34.986
-32.1481
-29.5689
-27.229
-25.1113
-23.1986
-21.4725
-19.9145
-18.5068
-17.2329
-16.0777
-15.0278
-14.0707
-13.1926
-12.3839
-11.6721
-51.4245
-45.766
-41.9712
-38.5987
-35.4479
-32.5676
-29.9509
-27.5784
-25.4328
-23.4964
-21.7502
-20.175
-18.7526
-17.466
-16.3
-15.2408
-14.276
-13.3911
-12.577
-11.8649
-52.0368
-46.3449
-42.5074
-39.0883
-35.8919
-32.9696
-30.3159
-27.9113
-25.7384
-23.7787
-22.0126
-20.4204
-18.9834
-17.6843
-16.5074
-15.4389
-14.4662
-13.5748
-12.7555
-12.0419
-52.6334
-46.9056
-43.0248
-39.5591
-36.3172
-33.3534
-30.6632
-28.2272
-26.0274
-24.0449
-22.2591
-20.65
-19.1984
-17.8866
-16.6988
-15.6212
-14.641
-13.7434
-12.9182
-12.2001
-53.2189
-47.4493
-43.5225
-40.0099
-36.7229
-33.7184
-30.9924
-28.5257
-26.2997
-24.2946
-22.4893
-20.8631
-19.3964
-18.0713
-16.8719
-15.7849
-14.7977
-13.8944
-13.0642
-12.3505
-53.7953
-47.9754
-43.9989
-40.4397
-37.1088
-34.0646
-31.3039
-28.8073
-26.5557
-24.5284
-22.7037
-21.0599
-19.5771
-18.2368
-17.0234
-15.9235
-14.9243
-14.0101
-13.1787
-12.4974
-54.3407
-48.4763
-44.4531
-40.849
-37.4761
-34.3936
-31.5993
-29.0737
-26.7972
-24.7483
-22.9043
-21.2428
-19.743
-18.3859
-17.1549
-16.0355
-15.0126
-14.0728
-13.2304
-12.5554
-59.7821
-59.7507
-59.6816
-59.5893
-59.4733
-59.3309
-59.1616
-58.9661
-58.7447
-58.4982
-58.2269
-57.9316
-57.6128
-57.2713
-56.9077
-56.523
-56.1182
-55.6951
-55.2566
-54.8057
-53.4351
-53.4325
-53.3968
-53.3336
-53.2437
-53.1265
-52.9822
-52.8116
-52.6154
-52.3942
-52.1486
-51.8792
-51.5866
-51.2715
-50.9345
-50.5762
-50.1974
-49.7985
-49.3801
-48.94
-48.7937
-48.8155
-48.8079
-48.7716
-48.7079
-48.6177
-48.5016
-48.3601
-48.1939
-48.0036
-47.7898
-47.5531
-47.2939
-47.0129
-46.7106
-46.3873
-46.0434
-45.6789
-45.2936
-44.8855
-44.5663
-44.6058
-44.6186
-44.6044
-44.564
-44.4985
-44.4086
-44.2947
-44.1575
-43.9975
-43.8152
-43.6111
-43.3858
-43.1397
-42.8731
-42.5865
-42.28
-41.9534
-41.6066
-41.2386
-40.658
-40.7072
-40.7326
-40.7333
-40.7098
-40.663
-40.5933
-40.5015
-40.3879
-40.2531
-40.0975
-39.9217
-39.7261
-39.5111
-39.2771
-39.0243
-38.7529
-38.4627
-38.1536
-37.825
-37.1481
-37.2015
-37.2333
-37.2427
-37.2298
-37.1953
-37.1398
-37.0638
-36.9677
-36.8521
-36.7175
-36.5642
-36.3928
-36.2036
-35.997
-35.7732
-35.5324
-35.2743
-34.9989
-34.7057
-34.0277
-34.0811
-34.1147
-34.1277
-34.1204
-34.0931
-34.0465
-33.9811
-33.8973
-33.7955
-33.6763
-33.5401
-33.3875
-33.2187
-33.0343
-32.8343
-32.619
-32.3882
-32.1418
-31.8791
-31.2599
-31.3104
-31.3427
-31.3561
-31.3506
-31.3269
-31.2853
-31.2264
-31.1505
-31.0583
-30.9501
-30.8265
-30.6879
-30.5349
-30.3678
-30.1869
-29.9925
-29.7843
-29.5623
-29.3258
-28.8047
-28.8508
-28.8799
-28.8915
-28.8857
-28.863
-28.8238
-28.7685
-28.6976
-28.6117
-28.5111
-28.3965
-28.2685
-28.1274
-27.9738
-27.8082
-27.6306
-27.4413
-27.2397
-27.0255
-26.6226
-26.6635
-26.6886
-26.6973
-26.6899
-26.6666
-26.6281
-26.5746
-26.5067
-26.4248
-26.3296
-26.2214
-26.1011
-25.9691
-25.8261
-25.6726
-25.5088
-25.3351
-25.151
-24.9559
-24.6764
-24.712
-24.7327
-24.7382
-24.7284
-24.7039
-24.665
-24.6123
-24.546
-24.4668
-24.3752
-24.2717
-24.1572
-24.0322
-23.8974
-23.7537
-23.6013
-23.4407
-23.2717
-23.0934
-22.9331
-22.9637
-22.9802
-22.9822
-22.97
-22.9439
-22.9043
-22.8516
-22.7862
-22.7088
-22.6197
-22.5197
-22.4095
-22.2899
-22.1618
-22.0259
-21.8831
-21.7338
-21.5781
-21.4151
-21.3646
-21.3905
-21.4031
-21.4019
-21.3873
-21.3595
-21.319
-21.2661
-21.2013
-21.125
-21.0378
-20.9404
-20.8336
-20.7182
-20.5952
-20.4658
-20.331
-20.1915
-20.0478
-19.8991
-19.947
-19.9688
-19.9778
-19.9737
-19.9569
-19.9276
-19.8862
-19.833
-19.7684
-19.693
-19.6073
-19.5119
-19.4077
-19.2956
-19.1767
-19.0524
-18.9243
-18.7934
-18.6609
-18.5257
-18.6605
-18.6786
-18.6844
-18.6778
-18.6591
-18.6284
-18.5862
-18.5327
-18.4684
-18.3937
-18.3091
-18.2154
-18.1132
-18.0036
-17.8879
-17.7676
-17.6448
-17.5211
-17.3991
-17.2773
-17.4886
-17.5034
-17.5064
-17.4976
-17.4771
-17.4453
-17.4024
-17.3487
-17.2846
-17.2106
-17.127
-17.0345
-16.9338
-16.8261
-16.7126
-16.5952
-16.4764
-16.3584
-16.2459
-16.1373
-16.4176
-16.4294
-16.4299
-16.4191
-16.3972
-16.3643
-16.3208
-16.267
-16.203
-16.1294
-16.0466
-15.955
-15.8555
-15.7489
-15.6367
-15.5207
-15.4042
-15.2899
-15.1855
-15.0887
-15.4354
-15.4448
-15.4434
-15.4311
-15.4081
-15.3746
-15.3307
-15.2769
-15.2133
-15.1402
-15.0581
-14.9673
-14.8685
-14.7626
-14.6507
-14.5347
-14.4185
-14.3058
-14.2083
-14.1206
-14.531
-14.539
-14.5366
-14.5238
-14.5008
-14.4676
-14.4245
-14.3717
-14.3095
-14.238
-14.1577
-14.0688
-13.9719
-13.8676
-13.7568
-13.6411
-13.5241
-13.411
-13.3204
-13.2468
-13.6991
-13.7039
-13.699
-13.6844
-13.6602
-13.6266
-13.5838
-13.5319
-13.4712
-13.4017
-13.3238
-13.2376
-13.1436
-13.0421
-12.9334
-12.8188
-12.7
-12.5822
-12.4852
-12.4358
-53.5046
-54.0786
-54.6155
-55.1375
-55.6415
-56.1218
-56.5753
-57.0011
-57.3982
-57.7657
-58.103
-58.4095
-58.685
-58.929
-59.141
-59.3209
-59.4698
-59.5887
-59.6796
-59.7445
-47.0238
-47.6032
-48.1545
-48.6836
-49.1898
-49.671
-50.1254
-50.5526
-50.9519
-51.3225
-51.6639
-51.9759
-52.2588
-52.5131
-52.7367
-52.9292
-53.0911
-53.2228
-53.3247
-53.3958
-42.3824
-42.9496
-43.4931
-44.0133
-44.5101
-44.9828
-45.4306
-45.8527
-46.2487
-46.6178
-46.9591
-47.2723
-47.5571
-47.8122
-48.039
-48.2377
-48.4079
-48.5493
-48.6617
-48.7436
-38.2614
-38.8034
-39.3257
-39.8264
-40.3051
-40.7613
-41.1945
-41.604
-41.9892
-42.3496
-42.6837
-42.9911
-43.2728
-43.5283
-43.7575
-43.9605
-44.1366
-44.2856
-44.4072
-44.5008
-34.5865
-35.0984
-35.5934
-36.0687
-36.5235
-36.9574
-37.3698
-37.76
-38.1273
-38.4713
-38.7925
-39.0904
-39.3637
-39.6124
-39.8368
-40.0366
-40.2114
-40.3611
-40.4856
-40.5847
-31.3904
-31.871
-32.3362
-32.7835
-33.2118
-33.6204
-34.0091
-34.3772
-34.7242
-35.0498
-35.3539
-35.6359
-35.8951
-36.1317
-36.3461
-36.5379
-36.7065
-36.8518
-36.974
-37.073
-28.6207
-29.0706
-29.5062
-29.9253
-30.3265
-30.7095
-31.0736
-31.4185
-31.7437
-32.0488
-32.3337
-32.598
-32.8413
-33.0635
-33.2642
-33.4453
-33.6051
-33.743
-33.8593
-33.9544
-26.2108
-26.6318
-27.0395
-27.4316
-27.8069
-28.1649
-28.5051
-28.8271
-29.1305
-29.415
-29.6805
-29.9267
-30.1534
-30.3607
-30.5484
-30.7151
-30.8643
-30.9932
-31.102
-31.191
-24.1019
-24.4965
-24.8785
-25.2457
-25.597
-25.9317
-26.2493
-26.5496
-26.8323
-27.097
-27.3438
-27.5724
-27.7829
-27.975
-28.1489
-28.3044
-28.4404
-28.5593
-28.6597
-28.7416
-22.2439
-22.6149
-22.9737
-23.3184
-23.6476
-23.9609
-24.2578
-24.538
-24.8013
-25.0477
-25.2769
-25.4891
-25.684
-25.8618
-26.0222
-26.1653
-26.291
-26.3994
-26.4912
-26.5657
-20.5954
-20.9452
-21.2834
-21.6079
-21.9173
-22.2111
-22.489
-22.7508
-22.9964
-23.2258
-23.4389
-23.6358
-23.8165
-23.9808
-24.1288
-24.2606
-24.3759
-24.475
-24.5584
-24.6256
-19.1226
-19.4537
-19.7737
-20.0802
-20.3718
-20.6479
-20.9085
-21.1535
-21.383
-21.5969
-21.7953
-21.9782
-22.1458
-22.2979
-22.4346
-22.5559
-22.6618
-22.7525
-22.8277
-22.8882
-17.7987
-18.1133
-18.4175
-18.708
-18.9835
-19.2436
-19.4884
-19.7181
-19.9327
-20.1324
-20.3174
-20.4876
-20.6433
-20.7843
-20.9108
-21.0226
-21.1199
-21.2026
-21.2704
-21.325
-16.6019
-16.9021
-17.1928
-17.4693
-17.7301
-17.9754
-18.2058
-18.4213
-18.6223
-18.809
-18.9817
-19.1404
-19.2853
-19.4163
-19.5334
-19.6368
-19.7263
-19.8021
-19.8644
-19.9123
-15.5153
-15.8032
-16.0824
-16.3463
-16.5936
-16.8253
-17.0421
-17.2445
-17.4329
-17.6077
-17.7691
-17.9173
-18.0523
-18.1742
-18.283
-18.3786
-18.4612
-18.5306
-18.587
-18.6301
-14.524
-14.8035
-15.0735
-15.3255
-15.5599
-15.7787
-15.9828
-16.1728
-16.3494
-16.513
-16.664
-16.8026
-16.9286
-17.0422
-17.1434
-17.2321
-17.3083
-17.372
-17.4233
-17.4621
-13.6104
-13.8888
-14.1537
-14.3943
-14.6161
-14.8226
-15.0144
-15.1927
-15.3582
-15.5116
-15.6531
-15.7828
-15.9008
-16.0069
-16.1013
-16.1837
-16.2543
-16.3129
-16.3596
-16.3945
-12.7539
-13.0366
-13.3028
-13.534
-13.7439
-13.9387
-14.1194
-14.2872
-14.443
-14.5874
-14.7207
-14.843
-14.9541
-15.054
-15.1426
-15.2199
-15.2858
-15.3403
-15.3834
-15.4152
-11.9679
-12.2412
-12.5081
-12.7346
-12.9344
-13.1178
-13.2881
-13.4464
-13.5935
-13.73
-13.8562
-13.9719
-14.0772
-14.1719
-14.2559
-14.329
-14.3912
-14.4425
-14.4829
-14.5124
-11.3782
-11.6288
-11.8563
-12.0728
-12.2609
-12.4266
-12.5804
-12.7244
-12.8583
-12.9823
-13.0969
-13.2021
-13.2975
-13.383
-13.4585
-13.524
-13.5793
-13.6245
-13.6593
-13.6838
-5.98724
-6.47795
-7.01578
-7.59767
-8.23007
-8.92039
-9.6763
-10.5073
-11.4255
-12.4466
-13.5911
-14.8858
-16.3662
-18.0784
-20.0826
-22.458
-25.2858
-28.5881
-32.5843
-38.5792
-6.25731
-6.7615
-7.3098
-7.9037
-8.54983
-9.25527
-10.0278
-10.8772
-11.8159
-12.8598
-14.0298
-15.3531
-16.8655
-18.6135
-20.6577
-23.0771
-25.9519
-29.3009
-33.3354
-39.3513
-6.52881
-7.04649
-7.60538
-8.21153
-8.87163
-9.59244
-10.3819
-11.25
-12.2095
-13.2765
-14.4723
-15.8245
-17.3692
-19.1535
-21.238
-23.7014
-26.6226
-30.0171
-34.0883
-40.1205
-6.80126
-7.33237
-7.90193
-8.52055
-9.19484
-9.93123
-10.7378
-11.6249
-12.6053
-13.6957
-14.9175
-16.2988
-17.8761
-19.6968
-21.8216
-24.329
-27.2964
-30.7364
-34.8452
-40.8986
-7.07422
-7.61868
-8.19899
-8.83027
-9.51895
-10.2711
-11.095
-12.0011
-13.0027
-14.1167
-15.3647
-16.7752
-18.3853
-20.2425
-22.4078
-24.9591
-27.9727
-31.458
-35.6053
-41.683
-7.34731
-7.90499
-8.49612
-9.14027
-9.84354
-10.6116
-11.453
-12.3784
-13.4013
-14.5389
-15.8133
-17.2533
-18.8962
-20.79
-22.9957
-25.591
-28.6506
-32.1811
-36.3665
-42.4695
-7.62022
-8.19097
-8.79296
-9.45017
-10.1682
-10.9523
-11.8113
-12.756
-13.8004
-14.9618
-16.2626
-17.7321
-19.408
-21.3385
-23.5848
-26.2239
-29.3292
-32.9046
-37.1273
-43.2558
-7.89271
-8.47631
-9.08918
-9.75961
-10.4925
-11.2928
-12.1694
-13.1337
-14.1995
-15.3848
-16.7121
-18.2112
-19.9201
-21.8873
-24.1739
-26.8567
-30.0076
-33.6272
-37.8865
-44.0405
-8.16461
-8.76081
-9.38453
-10.0683
-10.8162
-11.6328
-12.5271
-13.5108
-14.5982
-15.8072
-17.1612
-18.6898
-20.4317
-22.4354
-24.7623
-27.4885
-30.6845
-34.348
-38.643
-44.822
-8.43589
-9.04437
-9.67888
-10.3761
-11.139
-11.9718
-12.8838
-13.887
-14.9958
-16.2287
-17.6091
-19.1672
-20.9419
-22.9821
-25.3491
-28.1184
-31.359
-35.0655
-39.3954
-45.5989
-8.70665
-9.32702
-9.97215
-10.6828
-11.4608
-12.3097
-13.2393
-14.2618
-15.392
-16.6485
-18.0552
-19.6426
-21.45
-23.5265
-25.9332
-28.7452
-32.0299
-35.7788
-40.1423
-46.3697
-8.97719
-9.60892
-10.2644
-10.9884
-11.7813
-12.6462
-13.5932
-14.6348
-15.7861
-17.0661
-18.4989
-20.1154
-21.9552
-24.0677
-26.5138
-29.3679
-32.6959
-36.4865
-40.8824
-47.133
-9.24799
-9.89036
-10.5557
-11.2929
-12.1003
-12.9809
-13.945
-15.0054
-16.1776
-17.4808
-18.9394
-20.5848
-22.4567
-24.6047
-27.0897
-29.9854
-33.3561
-37.1874
-41.6145
-47.8874
-9.51977
-10.1718
-10.8463
-11.5962
-12.4178
-13.3136
-14.2944
-15.3733
-16.566
-17.892
-19.376
-21.0498
-22.9534
-25.1366
-27.66
-30.5965
-34.0091
-37.8802
-42.3372
-48.6317
-9.79329
-10.4535
-11.1361
-11.898
-12.7332
-13.6438
-14.6408
-15.7377
-16.9504
-18.2988
-19.8079
-21.5097
-23.4446
-25.6623
-28.2235
-31.2002
-34.6537
-38.5638
-43.0494
-49.3646
-10.0695
-10.7357
-11.4249
-12.1978
-13.0459
-13.9707
-14.9833
-16.0978
-17.3301
-18.7005
-20.2342
-21.9635
-23.929
-26.1807
-28.779
-31.7951
-35.2887
-39.2367
-43.7498
-50.0852
-10.3482
-11.0172
-11.7113
-12.4943
-13.3548
-14.2932
-15.3211
-16.4526
-17.7042
-19.096
-20.6537
-22.41
-24.4057
-26.6908
-29.3253
-32.3798
-35.9125
-39.8977
-44.4376
-50.7929
-10.6286
-11.2957
-11.9926
-12.7857
-13.6585
-14.6103
-15.653
-16.8013
-18.0715
-19.4843
-21.0657
-22.8484
-24.8735
-27.1912
-29.8612
-32.9531
-36.5237
-40.5452
-45.1114
-51.4877
-10.9035
-11.5627
-12.2628
-13.0684
-13.9548
-14.9201
-15.9777
-17.1424
-18.431
-19.8644
-21.4688
-23.2773
-25.3312
-27.6806
-30.3851
-33.5133
-37.1205
-41.1772
-45.77
-52.171
-11.1541
-11.7982
-12.5175
-13.3437
-14.2443
-15.2226
-16.2945
-17.4753
-18.7819
-20.2353
-21.8621
-23.6957
-25.7776
-28.1579
-30.8957
-34.0586
-37.7008
-41.7907
-46.409
-52.8444
-1.57698
-1.83116
-2.17934
-2.56865
-2.9877
-3.44188
-3.93751
-4.48053
-5.07844
-5.74152
-6.48374
-7.3241
-8.28875
-9.41372
-10.7499
-12.3714
-14.3679
-16.8004
-19.9768
-25.3724
-1.7298
-2.00036
-2.36694
-2.76213
-3.18457
-3.64405
-4.14654
-4.6976
-5.30487
-5.9789
-6.7339
-7.58923
-8.57146
-9.71713
-11.0777
-12.7278
-14.7571
-17.2249
-20.4335
-25.8429
-1.87687
-2.17148
-2.55116
-2.95446
-3.3846
-3.85243
-4.36382
-4.92451
-5.54252
-6.22873
-6.99769
-7.86914
-8.87011
-10.0377
-11.4238
-13.1035
-15.1664
-17.6695
-20.9095
-26.3274
-2.04616
-2.35157
-2.73943
-3.15142
-3.59073
-4.06806
-4.58944
-5.16089
-5.79076
-6.49024
-7.27422
-8.16284
-9.1836
-10.3741
-11.7868
-13.4972
-15.5945
-18.1343
-21.409
-26.8445
-2.22674
-2.53923
-2.93489
-3.35582
-3.80458
-4.29185
-4.82387
-5.40689
-6.0495
-6.76316
-7.56311
-8.46988
-9.51144
-10.7259
-12.1663
-13.9085
-16.0414
-18.6193
-21.9314
-27.3909
-2.41279
-2.73387
-3.13784
-3.56785
-4.02636
-4.52404
-5.06729
-5.66256
-6.31867
-7.04735
-7.86415
-8.79
-9.85335
-11.0928
-12.5621
-14.3372
-16.507
-19.1242
-22.4749
-27.9614
-2.60583
-2.93639
-3.34858
-3.7877
-4.25622
-4.76474
-5.31974
-5.92788
-6.59817
-7.34261
-8.17708
-9.12291
-10.209
-11.4745
-12.9736
-14.7828
-16.9907
-19.6483
-23.0385
-28.5536
-2.80726
-3.14727
-3.56747
-4.01568
-4.49442
-5.0141
-5.58128
-6.20279
-6.88787
-7.64875
-8.50165
-9.46827
-10.578
-11.8705
-13.4005
-15.2449
-17.4919
-20.191
-23.6214
-29.1664
-3.01685
-3.36637
-3.79454
-4.2519
-4.74102
-5.27212
-5.85186
-6.4872
-7.18759
-7.96555
-8.83757
-9.82576
-10.96
-12.2805
-13.8424
-15.7229
-18.0101
-20.7517
-24.2231
-29.7989
-3.23402
-3.59335
-4.0296
-4.49619
-4.99588
-5.53867
-6.1313
-6.7809
-7.49712
-8.29272
-9.18452
-10.195
-11.3545
-12.7038
-14.2986
-16.2163
-18.5447
-21.3297
-24.8426
-30.4498
-3.45832
-3.82787
-4.27232
-4.74829
-5.25875
-5.81351
-6.41936
-7.08363
-7.81615
-8.62994
-9.54214
-10.5756
-11.7612
-13.1402
-14.7686
-16.7245
-19.095
-21.9242
-25.4792
-31.1182
-3.68938
-4.06952
-4.52234
-5.00785
-5.52929
-6.09629
-6.71571
-7.39503
-8.14432
-8.97682
-9.91001
-10.9672
-12.1796
-13.589
-15.252
-17.2468
-19.6602
-22.5344
-26.1319
-31.803
-3.92673
-4.31784
-4.77922
-5.27444
-5.80712
-6.38665
-7.01995
-7.71471
-8.4812
-9.33292
-10.2877
-11.3691
-12.609
-14.0496
-15.748
-17.7826
-20.2398
-23.1595
-26.8
-32.5032
-4.16984
-4.57231
-5.04244
-5.54761
-6.09177
-6.68411
-7.33164
-8.04221
-8.82632
-9.69775
-10.6746
-11.7809
-13.049
-14.5215
-16.2561
-18.3312
-20.8328
-23.7988
-27.4825
-33.218
-4.41818
-4.83236
-5.31148
-5.82682
-6.38274
-6.98819
-7.65026
-8.37702
-9.17917
-10.0708
-11.0702
-12.202
-13.4988
-15.004
-16.7754
-18.8918
-21.4386
-24.4514
-28.1786
-33.9464
-4.67119
-5.09743
-5.58577
-6.11154
-6.67949
-7.29836
-7.97529
-8.71859
-9.53919
-10.4514
-11.474
-12.6318
-13.958
-15.4963
-17.3053
-19.4637
-22.0562
-25.1163
-28.8875
-34.6877
-4.92832
-5.36694
-5.86473
-6.40119
-6.98146
-7.61404
-8.30617
-9.06636
-9.90579
-10.839
-11.8852
-13.0695
-14.4257
-15.9978
-17.8449
-20.0459
-22.6848
-25.7928
-29.6083
-35.4413
-5.18903
-5.64031
-6.14779
-6.6952
-7.28809
-7.93468
-8.64231
-9.41974
-10.2784
-11.2331
-12.3032
-13.5146
-14.9011
-16.5077
-18.3935
-20.6376
-23.3233
-26.4796
-30.3402
-36.2069
-5.45275
-5.91696
-6.43435
-6.99299
-7.59878
-8.25967
-8.98312
-9.7781
-10.6563
-11.6328
-12.7274
-13.9662
-15.3836
-17.0251
-18.95
-21.2376
-23.9706
-27.1756
-31.0821
-36.9851
-5.719
-6.19637
-6.72389
-7.29403
-7.913
-8.58847
-9.32803
-10.1409
-11.0389
-12.0376
-13.157
-14.4236
-15.8724
-17.5491
-19.5136
-21.8451
-24.6255
-27.8792
-31.8313
-37.7766
-1.3296
-1.12343
-0.970124
-0.833851
-0.714217
-0.608681
-0.516129
-0.435769
-0.367099
-0.309762
-0.26349
-0.228074
-0.203342
-0.189151
-0.18536
-0.191767
-0.208176
-0.234722
-0.271488
-0.318369
-1.65963
-1.4767
-1.31942
-1.17794
-1.05349
-0.943506
-0.847004
-0.763187
-0.69154
-0.631686
-0.583344
-0.546292
-0.520346
-0.505352
-0.501163
-0.507612
-0.524552
-0.551984
-0.589912
-0.638252
-1.99248
-1.81743
-1.66018
-1.51756
-1.39099
-1.27883
-1.18039
-1.09496
-1.02209
-0.961407
-0.91264
-0.875566
-0.849999
-0.83578
-0.83276
-0.840789
-0.859748
-0.889594
-0.930255
-0.981735
-2.37659
-2.1999
-2.03963
-1.89407
-1.76394
-1.64829
-1.54664
-1.45844
-1.38327
-1.3208
-1.27075
-1.2329
-1.20706
-1.19306
-1.19074
-1.19996
-1.2206
-1.25259
-1.29582
-1.35029
-2.79579
-2.61667
-2.45246
-2.30297
-2.16864
-2.04896
-1.94358
-1.8521
-1.77416
-1.70945
-1.65772
-1.61874
-1.59232
-1.57828
-1.57647
-1.58674
-1.60897
-1.64303
-1.68884
-1.74637
-3.24765
-3.06533
-2.89698
-2.74318
-2.60442
-2.48049
-2.3712
-2.27624
-2.19533
-2.12821
-2.07464
-2.0344
-2.0073
-1.99318
-1.99185
-2.00319
-2.02704
-2.0633
-2.1118
-2.17248
-3.73837
-3.55136
-3.37811
-3.21942
-3.07578
-2.94722
-2.83365
-2.73489
-2.65071
-2.58089
-2.52523
-2.48352
-2.45557
-2.44122
-2.44029
-2.45265
-2.47814
-2.51662
-2.56795
-2.63207
-4.27474
-4.08155
-3.90234
-3.73788
-3.58867
-3.45487
-3.33648
-3.2334
-3.14548
-3.07255
-3.01441
-2.97088
-2.94179
-2.92697
-2.92625
-2.93949
-2.96653
-3.00721
-3.06139
-3.12902
-4.86447
-4.66366
-4.47726
-4.30596
-4.15027
-4.01041
-3.88647
-3.77841
-3.68613
-3.60951
-3.54837
-3.50257
-3.47192
-3.45628
-3.45548
-3.46936
-3.49777
-3.54055
-3.59752
-3.66868
-5.51772
-5.30773
-5.11272
-4.9333
-4.76999
-4.62305
-4.49261
-4.37869
-4.28125
-4.20019
-4.13537
-4.08666
-4.0539
-4.03693
-4.03561
-4.04977
-4.07925
-4.12388
-4.18349
-4.25808
-6.24824
-6.02726
-5.82196
-5.63289
-5.46054
-5.3052
-5.16705
-5.04615
-4.94249
-4.856
-4.7866
-4.73414
-4.69849
-4.67951
-4.67703
-4.69092
-4.72099
-4.76706
-4.82897
-4.90676
-7.07475
-6.84067
-6.62308
-6.42246
-6.2393
-6.07391
-5.9265
-5.79715
-5.6859
-5.59271
-5.5175
-5.46017
-5.42059
-5.39862
-5.39411
-5.40691
-5.43685
-5.48373
-5.54737
-5.62787
-8.02299
-7.77327
-7.54095
-7.32645
-7.13028
-6.95275
-6.79409
-6.65442
-6.53381
-6.43223
-6.34963
-6.28592
-6.24099
-6.21471
-6.20694
-6.21751
-6.24627
-6.29297
-6.35747
-6.43988
-9.12847
-8.86005
-8.61001
-8.37877
-8.16683
-7.97453
-7.80212
-7.64975
-7.51748
-7.40533
-7.31326
-7.2412
-7.18904
-7.15667
-7.14394
-7.1507
-7.17678
-7.22192
-7.28594
-7.36905
-10.4414
-10.1506
-9.87924
-9.62773
-9.39664
-9.18631
-8.99701
-8.82891
-8.6821
-8.55659
-8.45237
-8.36938
-8.30753
-8.26669
-8.24674
-8.24753
-8.26886
-8.31047
-8.37214
-8.45415
-12.0355
-11.7179
-11.4208
-11.1449
-10.8906
-10.6583
-10.4483
-10.2608
-10.0959
-9.95356
-9.83384
-9.73666
-9.66196
-9.6096
-9.57948
-9.57144
-9.58528
-9.6207
-9.67748
-9.75588
-13.9997
-13.6505
-13.3232
-13.0182
-12.7363
-12.4778
-12.243
-12.0321
-11.8452
-11.6822
-11.5432
-11.4282
-11.3371
-11.2698
-11.2261
-11.206
-11.2093
-11.2356
-11.2847
-11.3566
-16.3955
-16.0108
-15.6491
-15.3112
-14.9979
-14.7095
-14.4464
-14.2086
-13.9963
-13.8094
-13.6479
-13.5119
-13.4013
-13.316
-13.2559
-13.2209
-13.2109
-13.2257
-13.2649
-13.3277
-19.5334
-19.109
-18.7084
-18.3341
-17.9864
-17.6654
-17.3711
-17.1034
-16.8623
-16.6479
-16.4601
-16.299
-16.1644
-16.0565
-15.9749
-15.9197
-15.8906
-15.8882
-15.912
-15.9602
-24.871
-24.4017
-23.9667
-23.5631
-23.1885
-22.8422
-22.5236
-22.2327
-21.9694
-21.7337
-21.5256
-21.3452
-21.1925
-21.0678
-20.971
-20.9021
-20.862
-20.8529
-20.8762
-20.9216
-0.375213
-0.441708
-0.517815
-0.603452
-0.698533
-0.802952
-0.916577
-1.03924
-1.17074
-1.31079
-1.45902
-1.6149
-1.77765
-1.94604
-2.11841
-2.29249
-2.46382
-2.62258
-2.7534
-2.8826
-0.696973
-0.765738
-0.844475
-0.933074
-1.03143
-1.13941
-1.25686
-1.38361
-1.5194
-1.66393
-1.81679
-1.97743
-2.14508
-2.31856
-2.49628
-2.67658
-2.85768
-3.03187
-3.18392
-3.35552
-1.04393
-1.11653
-1.19948
-1.29263
-1.39587
-1.50906
-1.63201
-1.76453
-1.90634
-2.05713
-2.21645
-2.38376
-2.5583
-2.73905
-2.92465
-3.11391
-3.30587
-3.49613
-3.67897
-3.88428
-1.4159
-1.49234
-1.57954
-1.67736
-1.78564
-1.90422
-2.03292
-2.1715
-2.31968
-2.47712
-2.64337
-2.81788
-2.99994
-3.18866
-3.38295
-3.58194
-3.78484
-3.98933
-4.19589
-4.42488
-1.81548
-1.89593
-1.98759
-2.09031
-2.20392
-2.32824
-2.46307
-2.60816
-2.76321
-2.92786
-3.10168
-3.28413
-3.47456
-3.67219
-3.87621
-4.08601
-4.30096
-4.52003
-4.74586
-4.99158
-2.24547
-2.33021
-2.42667
-2.53467
-2.65404
-2.78459
-2.9261
-3.0783
-3.24089
-3.41351
-3.59573
-3.78705
-3.98688
-4.19457
-4.40952
-4.63129
-4.85949
-5.09392
-5.3373
-5.5975
-2.70904
-2.79831
-2.89988
-3.01355
-3.13912
-3.2764
-3.42515
-3.5851
-3.75595
-3.93734
-4.12885
-4.33003
-4.54035
-4.75928
-4.98635
-5.22125
-5.46378
-5.71414
-5.97456
-6.24947
-3.21008
-3.30419
-3.41116
-3.53084
-3.66303
-3.80752
-3.96408
-4.13243
-4.31226
-4.50324
-4.70496
-4.91701
-5.13892
-5.37025
-5.61062
-5.8598
-6.11771
-6.38468
-6.66226
-6.95294
-3.75402
-3.85304
-3.96564
-4.09162
-4.23079
-4.38296
-4.54786
-4.72522
-4.91476
-5.11612
-5.32896
-5.55287
-5.78746
-6.03232
-6.28717
-6.5518
-6.82616
-7.11054
-7.40595
-7.71376
-4.34768
-4.45165
-4.57007
-4.70254
-4.84899
-5.0092
-5.18291
-5.36986
-5.56974
-5.78225
-6.00705
-6.24376
-6.49204
-6.75153
-7.02196
-7.30316
-7.59507
-7.89785
-8.21206
-8.5385
-5.00046
-5.10932
-5.23337
-5.37252
-5.52642
-5.69491
-5.87778
-6.07475
-6.28553
-6.50981
-6.7473
-6.99765
-7.26052
-7.53562
-7.82268
-8.12151
-8.43203
-8.75425
-9.08842
-9.43502
-5.72528
-5.83872
-5.96829
-6.1138
-6.27515
-6.45198
-6.64415
-6.85139
-7.07341
-7.30992
-7.56065
-7.82528
-8.10351
-8.39502
-8.69958
-9.01699
-9.34709
-9.68976
-10.045
-10.4133
-6.5403
-6.65769
-6.79226
-6.94372
-7.11199
-7.29713
-7.49855
-7.71592
-7.94919
-8.1981
-8.46235
-8.74165
-9.03569
-9.34418
-9.66688
-10.0036
-10.354
-10.718
-11.0954
-11.4865
-7.47135
-7.59163
-7.73023
-7.88688
-8.06134
-8.25365
-8.46459
-8.69124
-8.93541
-9.19641
-9.47401
-9.76792
-10.0779
-10.4035
-10.7447
-11.101
-11.4723
-11.8582
-12.2584
-12.6733
-8.55662
-8.67809
-8.81912
-8.97948
-9.15902
-9.35725
-9.57363
-9.81062
-10.0654
-10.3376
-10.6277
-10.9357
-11.2612
-11.6039
-11.9633
-12.3392
-12.7313
-13.1391
-13.5624
-14.0014
-9.85602
-9.97614
-10.1172
-10.279
-10.4614
-10.6641
-10.8866
-11.1289
-11.3914
-11.6743
-11.9763
-12.2976
-12.6379
-12.9963
-13.3726
-13.767
-14.179
-14.6082
-15.054
-15.5166
-11.451
-11.5666
-11.7048
-11.8654
-12.048
-12.2524
-12.4784
-12.7257
-12.9943
-13.2843
-13.5965
-13.9295
-14.2816
-14.6521
-15.0423
-15.4526
-15.8826
-16.3315
-16.7982
-17.2826
-13.4124
-13.5204
-13.6526
-13.8086
-13.987
-14.1885
-14.413
-14.6605
-14.9307
-15.223
-15.5368
-15.8725
-16.2315
-16.6145
-17.0198
-17.446
-17.8926
-18.3595
-18.8455
-19.3497
-16.0305
-16.1225
-16.2385
-16.3799
-16.5481
-16.7423
-16.9616
-17.2057
-17.4742
-17.7668
-18.0828
-18.4219
-18.7845
-19.171
-19.5812
-20.0147
-20.4711
-20.9512
-21.4549
-21.9772
-20.9635
-21.036
-21.1393
-21.2712
-21.4304
-21.6164
-21.8285
-22.0664
-22.3297
-22.6182
-22.9316
-23.2699
-23.6332
-24.0218
-24.4357
-24.875
-25.3408
-25.837
-26.366
-26.9102
-27.4253
-22.5101
-19.8717
-17.785
-15.996
-14.456
-13.1027
-11.8912
-10.7943
-9.79398
-8.87709
-8.03392
-7.25684
-6.5396
-5.87697
-5.26442
-4.69666
-4.16809
-3.68718
-3.28282
-27.9681
-23.0591
-20.4092
-18.3024
-16.4896
-14.924
-13.5448
-12.3078
-11.1867
-10.1637
-9.22615
-8.36434
-7.57083
-6.83951
-6.16533
-5.54383
-4.97027
-4.44224
-3.97285
-3.57044
-28.5395
-23.627
-20.9639
-18.8358
-16.9979
-15.4056
-13.9992
-12.736
-11.5899
-10.5436
-9.58476
-8.70382
-7.89338
-7.14735
-6.46066
-5.82876
-5.24702
-4.71312
-4.23664
-3.81477
-29.1352
-24.2143
-21.5358
-19.3848
-17.5204
-15.8999
-14.4655
-13.1749
-12.0029
-10.9327
-9.95183
-9.05102
-8.2228
-7.46097
-6.76023
-6.11579
-5.52274
-4.97812
-4.48868
-4.04811
-29.7521
-24.8204
-22.1241
-19.949
-18.0564
-16.4065
-14.9427
-13.6238
-12.4251
-11.3301
-10.3265
-9.40509
-8.55829
-7.77975
-7.06391
-6.40568
-5.79984
-5.24288
-4.73968
-4.28301
-30.3887
-25.4458
-22.7271
-20.5274
-18.6052
-16.9244
-15.4303
-14.0821
-12.8557
-11.7351
-10.7081
-9.76535
-8.89929
-8.10333
-7.37166
-6.69892
-6.07966
-5.51001
-4.99357
-4.52286
-31.0438
-26.0891
-23.3443
-21.1188
-19.1659
-17.4531
-15.9273
-14.5488
-13.294
-12.147
-11.0959
-10.1313
-9.24548
-8.43162
-7.68372
-6.99618
-6.36339
-5.78126
-5.25228
-4.76892
-31.7161
-26.7482
-23.9756
-21.7226
-19.7377
-17.9915
-16.4331
-15.0234
-13.7393
-12.5653
-11.4895
-10.5026
-9.59655
-8.76449
-8.00016
-7.29773
-6.65149
-6.05715
-5.51621
-5.02112
-32.4043
-27.4217
-24.6201
-22.3379
-20.3196
-18.539
-16.9468
-15.505
-14.1909
-12.9892
-11.8883
-10.8786
-9.95216
-9.10172
-8.32087
-7.60357
-6.94402
-6.3377
-5.7852
-5.27897
-33.1072
-28.1085
-25.2768
-22.9638
-20.9108
-19.0945
-17.4676
-15.9928
-14.6481
-13.4182
-12.2918
-11.2591
-10.3119
-9.44297
-8.64556
-7.91345
-7.24068
-6.62255
-6.05874
-5.54174
-33.8236
-28.8073
-25.9447
-23.5993
-21.5103
-19.6573
-17.9947
-16.4862
-15.1101
-13.8516
-12.6992
-11.6433
-10.6753
-9.78778
-8.97381
-8.22693
-7.54102
-6.91117
-6.3362
-5.80865
-34.5522
-29.5171
-26.6226
-24.2433
-22.1171
-20.2263
-18.5271
-16.9841
-15.5762
-14.2887
-13.1101
-12.0306
-11.0418
-10.1356
-9.3051
-8.54347
-7.84446
-7.20293
-6.61686
-6.0789
-35.2921
-30.2368
-27.3094
-24.8948
-22.7301
-20.8005
-19.064
-17.4858
-16.0455
-14.7286
-13.5236
-12.4206
-11.4107
-10.4859
-9.63883
-8.86248
-8.15039
-7.49716
-6.90001
-6.35174
-36.0421
-30.9653
-28.0038
-25.5527
-23.3483
-21.379
-19.6042
-17.9904
-16.5173
-15.1707
-13.9391
-12.8123
-11.7814
-10.838
-9.97437
-9.18331
-8.45814
-7.79319
-7.18494
-6.62643
-36.8011
-31.7012
-28.7047
-26.2157
-23.9706
-21.9606
-20.147
-18.4969
-16.9907
-15.6141
-14.3557
-13.2052
-12.1533
-11.1912
-10.3111
-9.50531
-8.76706
-8.09036
-7.47098
-6.90229
-37.5678
-32.4432
-29.4107
-26.8826
-24.5958
-22.5443
-20.6912
-19.0045
-17.4647
-16.0581
-14.7728
-13.5985
-12.5255
-11.5449
-10.6482
-9.82782
-9.0765
-8.38801
-7.75748
-7.17868
-38.342
-33.1903
-30.1205
-27.5522
-25.2227
-23.129
-21.2358
-19.512
-17.9385
-16.5016
-15.1895
-13.9914
-12.8975
-11.8983
-10.9852
-10.1502
-9.38581
-8.68551
-8.0438
-7.455
-39.1249
-33.9419
-30.8327
-28.2229
-25.8498
-23.7132
-21.7795
-20.0183
-18.411
-16.9439
-15.605
-14.3832
-13.2683
-12.2507
-11.3213
-10.4717
-9.69434
-8.98225
-8.32936
-7.73068
-39.9167
-34.6968
-31.5452
-28.8929
-26.4758
-24.2958
-22.3213
-20.5226
-18.8814
-17.3841
-16.0184
-14.773
-13.6374
-12.6015
-11.6558
-10.7918
-10.0015
-9.27762
-8.61359
-8.00521
-40.7048
-35.4501
-32.2565
-29.5614
-27.1
-24.8764
-22.8609
-21.0245
-19.3494
-17.8218
-16.4294
-15.1606
-14.0043
-12.9502
-11.9884
-11.11
-10.3068
-9.57117
-8.89603
-8.27815
-6.75907
-4.65798
-3.30169
-2.25956
-1.52783
-0.990523
-0.604713
-0.330863
-0.140747
-0.0126927
0.0698539
0.119482
0.145721
0.155704
0.154716
0.146612
0.134194
0.119453
0.103792
0.0881749
0.0732428
0.0594053
0.0468974
0.0358386
0.0262491
0.0181096
0.011325
0.0058335
0.00146152
-0.00181252
-0.0042627
-0.00576279
-0.00678981
-0.00688941
-0.006967
-0.00592856
-0.00550662
-0.00346324
-0.00299388
0.000165468
-7.01414
-4.83993
-3.44766
-2.3745
-1.61872
-1.06404
-0.664682
-0.380406
-0.182062
-0.0473947
0.0405637
0.0946846
0.124697
0.137877
0.139614
0.133841
0.123419
0.110387
0.0961917
0.0818263
0.0679624
0.0550348
0.0432975
0.0328892