/*--------------------------------*- C++ -*----------------------------------*\
  =========                 |
  \\      /  F ield         | OpenFOAM: The Open Source CFD Toolbox
   \\    /   O peration     | Website:  https://openfoam.org
    \\  /    A nd           | Version:  6.0
     \\/     M anipulation  |
\*---------------------------------------------------------------------------*/
FoamFile
{
    version     2.0;
    format      ascii;
    class       volVectorField;
    location    "8.752";
    object      U;
}
// * * * * * * * * * * * * * * * * * * * * * * * * * * * * * * * * * * * * * //

dimensions      [0 1 -1 0 0 0 0];

internalField   nonuniform List<vector> 
19200
(
(0.00655723 -0.479957 -4.29408e-22)
(0.00478129 -0.443241 2.38073e-22)
(0.00262267 -0.409465 1.22216e-22)
(0.000105279 -0.378484 1.19434e-22)
(-0.00263387 -0.350119 1.46266e-22)
(-0.00545321 -0.324184 7.29136e-24)
(-0.00825432 -0.300494 2.34584e-22)
(-0.0109665 -0.278868 -2.45435e-23)
(-0.0135386 -0.25913 2.32829e-22)
(-0.0159356 -0.241116 1.01833e-22)
(-0.0181351 -0.224672 -1.079e-23)
(-0.0201249 -0.209653 1.81724e-22)
(-0.0219007 -0.195924 3.43787e-22)
(-0.023464 -0.183364 -2.5099e-22)
(-0.0248215 -0.17186 3.34163e-22)
(-0.0259831 -0.161308 3.17956e-22)
(-0.0269617 -0.151614 -3.12686e-22)
(-0.0277719 -0.142695 5.72159e-22)
(-0.02843 -0.134472 -3.84227e-22)
(-0.0289529 -0.126877 1.9465e-22)
(-0.0293582 -0.119847 3.01749e-22)
(-0.0296635 -0.113327 -1.09316e-22)
(-0.0298863 -0.107269 1.48891e-22)
(-0.0300435 -0.101631 -1.89026e-22)
(-0.0301513 -0.0963743 4.83287e-24)
(-0.0302262 -0.091465 1.12422e-22)
(-0.0302836 -0.0868719 -7.66522e-23)
(-0.0303279 -0.082567 4.18821e-23)
(-0.0303509 -0.0785256 1.17059e-22)
(-0.0304414 -0.0747244 5.7804e-22)
(0.0191497 -0.479113 -1.03232e-22)
(0.0163953 -0.441782 7.48097e-22)
(0.0133392 -0.407561 -4.18121e-22)
(0.0100187 -0.376272 -6.40244e-22)
(0.00657032 -0.347716 -3.24322e-22)
(0.00313024 -0.321686 -2.47102e-22)
(-0.000209302 -0.297978 -5.75344e-22)
(-0.00338389 -0.276395 6.92503e-23)
(-0.00634857 -0.25675 -1.12268e-22)
(-0.00907417 -0.238866 -4.80528e-22)
(-0.0115441 -0.222578 -1.37772e-21)
(-0.0137513 -0.207735 7.16644e-22)
(-0.0156965 -0.194194 -2.88296e-22)
(-0.0173859 -0.181828 1.10789e-22)
(-0.0188304 -0.170518 -7.55031e-22)
(-0.020044 -0.160157 -3.05157e-22)
(-0.0210432 -0.150648 2.95454e-23)
(-0.0218461 -0.141902 1.14951e-21)
(-0.0224722 -0.133839 -5.96728e-22)
(-0.0229413 -0.126389 -3.44298e-22)
(-0.0232738 -0.119487 -1.54167e-21)
(-0.02349 -0.113077 4.09743e-22)
(-0.0236097 -0.10711 -2.76864e-22)
(-0.0236521 -0.101541 5.22313e-22)
(-0.0236355 -0.0963347 -2.65369e-22)
(-0.0235786 -0.0914555 -4.31895e-22)
(-0.0234987 -0.0868727 1.34719e-22)
(-0.0234006 -0.0825595 2.4708e-22)
(-0.0232736 -0.0784907 -4.20269e-22)
(-0.0232194 -0.0746459 2.70251e-22)
(0.0316543 -0.477978 -4.91644e-23)
(0.0279005 -0.440044 1.29046e-22)
(0.0239535 -0.405404 2.2366e-22)
(0.0198434 -0.373843 2.21467e-21)
(0.0157039 -0.345133 -1.41039e-21)
(0.011667 -0.319044 1.30261e-21)
(0.00781862 -0.295353 8.62882e-22)
(0.0042163 -0.273848 7.672e-22)
(0.000898203 -0.254326 -7.80147e-22)
(-0.0021131 -0.236599 -1.30015e-22)
(-0.00480719 -0.220495 2.22901e-21)
(-0.00718296 -0.205852 4.26135e-22)
(-0.00924639 -0.192521 -1.20006e-21)
(-0.0110088 -0.18037 9.53164e-22)
(-0.0124856 -0.169273 -1.91472e-23)
(-0.0136951 -0.159121 4.69543e-22)
(-0.0146577 -0.14981 3.43447e-22)
(-0.0153952 -0.141251 1.32215e-21)
(-0.0159303 -0.133361 -5.6285e-22)
(-0.0162862 -0.126067 -1.82055e-22)
(-0.0164861 -0.119302 -5.93568e-22)
(-0.0165532 -0.113009 2.834e-21)
(-0.0165097 -0.107136 -2.46764e-21)
(-0.0163775 -0.101641 7.94093e-22)
(-0.0161772 -0.0964862 4.66626e-22)
(-0.0159297 -0.0916365 -1.79594e-21)
(-0.0156548 -0.0870619 2.47506e-21)
(-0.0153573 -0.0827361 -2.48787e-22)
(-0.0150231 -0.0786337 -2.97646e-22)
(-0.0147703 -0.0747375 -2.5971e-21)
(0.0441014 -0.476541 -1.55422e-21)
(0.0393192 -0.438042 -1.64144e-21)
(0.0344736 -0.403018 -2.20455e-21)
(0.029581 -0.371223 7.74241e-24)
(0.0247677 -0.342398 1.39113e-22)
(0.020159 -0.316288 -3.07554e-21)
(0.0158331 -0.29265 1.19343e-22)
(0.0118396 -0.271255 4.71538e-22)
(0.00820896 -0.251887 -6.28959e-23)
(0.00495655 -0.234348 9.44866e-22)
(0.0020859 -0.218454 -3.79789e-21)
(-0.000408202 -0.204035 -2.6287e-21)
(-0.00253757 -0.190938 9.41184e-22)
(-0.0043189 -0.179021 2.20397e-21)
(-0.00577247 -0.168157 -2.58287e-21)
(-0.00692107 -0.15823 -4.30616e-22)
(-0.00778927 -0.149134 -1.75826e-21)
(-0.00840272 -0.140776 -8.7934e-22)
(-0.00878771 -0.133071 1.60649e-21)
(-0.00897071 -0.125942 -2.12396e-21)
(-0.0089781 -0.119323 2.01635e-21)
(-0.00883585 -0.113153 -2.40506e-21)
(-0.00856922 -0.107381 -2.03591e-21)
(-0.00820256 -0.101962 -1.59595e-21)
(-0.00775917 -0.0968592 -4.11792e-22)
(-0.0072625 -0.0920374 -3.54918e-21)
(-0.00673492 -0.0874677 3.81207e-22)
(-0.00618132 -0.0831236 7.15254e-22)
(-0.00558341 -0.0789791 -2.20351e-21)
(-0.00507861 -0.0750216 4.36137e-22)
(0.0564937 -0.474793 -9.01762e-22)
(0.0506573 -0.435781 1.59231e-22)
(0.0449047 -0.400421 1.46708e-21)
(0.0392359 -0.368435 1.67835e-21)
(0.0337665 -0.339536 1.32551e-21)
(0.0286121 -0.313444 5.92144e-22)
(0.0238415 -0.289896 9.53081e-22)
(0.0194951 -0.268646 4.83699e-21)
(0.0155947 -0.249464 -2.98224e-21)
(0.0121474 -0.232142 6.25086e-23)
(0.00914928 -0.216484 7.84002e-22)
(0.00658833 -0.202315 3.92028e-21)
(0.00444643 -0.189473 -2.77352e-21)
(0.00270121 -0.177812 2.14267e-21)
(0.00132719 -0.167199 -2.5686e-21)
(0.000296843 -0.157514 4.64977e-21)
(-0.000418738 -0.148649 -1.38784e-21)
(-0.000849219 -0.140506 5.4372e-23)
(-0.0010246 -0.132997 2.63933e-21)
(-0.00097484 -0.126045 2.03435e-21)
(-0.000729588 -0.11958 -2.0753e-21)
(-0.000317873 -0.11354 2.9916e-21)
(0.00023201 -0.107873 -1.46255e-21)
(0.000892896 -0.102533 1.72872e-21)
(0.00163869 -0.0974819 2.51734e-21)
(0.00244305 -0.092686 1.02908e-21)
(0.00328065 -0.0881163 3.1877e-21)
(0.00414676 -0.0837469 -1.01108e-21)
(0.00506454 -0.07955 -2.60728e-22)
(0.00587398 -0.075519 -2.21709e-21)
(0.0688266 -0.472735 -6.62523e-22)
(0.0619149 -0.43327 -4.82657e-22)
(0.0552498 -0.397626 -1.66868e-21)
(0.0488132 -0.365498 -4.83219e-21)
(0.0427071 -0.33657 1.6175e-21)
(0.0370352 -0.310538 1.28491e-22)
(0.0318547 -0.287118 -1.32106e-21)
(0.0271956 -0.266048 3.27285e-22)
(0.0230698 -0.247085 -1.62642e-22)
(0.0194755 -0.230008 -4.28272e-21)
(0.0164006 -0.214614 1.7857e-21)
(0.0138256 -0.200718 3.44103e-21)
(0.0117257 -0.188154 -2.62009e-23)
(0.0100725 -0.176769 1.42733e-21)
(0.00883504 -0.166426 3.88533e-21)
(0.00798089 -0.157001 -2.83521e-21)
(0.00747661 -0.148381 5.2374e-21)
(0.00728835 -0.140466 -2.68679e-21)
(0.00738228 -0.133167 5.00046e-21)
(0.00772479 -0.126401 -3.93294e-21)
(0.00828284 -0.120099 1.81013e-21)
(0.00902413 -0.114196 5.25485e-21)
(0.00991718 -0.108639 5.06309e-22)
(0.0109319 -0.10338 -5.29683e-21)
(0.0120392 -0.0983805 3.09307e-21)
(0.0132095 -0.0936075 3.84246e-22)
(0.0144143 -0.0890325 -1.15927e-21)
(0.0156489 -0.084629 4.4821e-21)
(0.0169422 -0.0803678 1.76981e-21)
(0.0181081 -0.0762489 -1.85661e-21)
(0.081094 -0.470372 1.94447e-21)
(0.0730905 -0.430516 1.16544e-22)
(0.0655118 -0.394647 -3.38208e-21)
(0.058319 -0.362429 7.29324e-22)
(0.0515984 -0.333521 -1.17818e-21)
(0.0454394 -0.307593 7.8546e-22)
(0.0398863 -0.28434 2.00119e-21)
(0.034957 -0.263486 4.06712e-21)
(0.0306523 -0.244774 -4.74138e-21)
(0.0269606 -0.227971 1.16337e-21)
(0.0238611 -0.212868 -1.00522e-21)
(0.0213261 -0.19927 7.59793e-22)
(0.0193238 -0.187006 -3.40897e-21)
(0.0178194 -0.175917 -3.25284e-22)
(0.0167764 -0.165862 6.31679e-21)
(0.0161569 -0.156712 -4.41636e-21)
(0.015923 -0.148353 -3.08216e-21)
(0.0160364 -0.14068 -2.49523e-21)
(0.0164595 -0.133601 4.46136e-21)
(0.0171548 -0.127033 1.0772e-21)
(0.0180857 -0.120902 -5.01465e-21)
(0.0192166 -0.115144 7.06964e-21)
(0.0205127 -0.109701 -6.6227e-21)
(0.0219406 -0.104526 4.66696e-21)
(0.0234681 -0.0995783 -2.73618e-21)
(0.0250624 -0.0948249 1.89807e-21)
(0.0266911 -0.0902383 1.58551e-21)
(0.0283497 -0.0857912 -7.0467e-21)
(0.0300734 -0.0814517 3.09589e-21)
(0.0316467 -0.0772288 6.79667e-23)
(0.0932895 -0.467709 -1.91712e-21)
(0.0841825 -0.427531 1.642e-21)
(0.0756935 -0.391497 -3.62997e-21)
(0.0677603 -0.359247 7.19932e-21)
(0.0604508 -0.330409 -2.14585e-21)
(0.0538384 -0.304629 3.42142e-21)
(0.0479527 -0.281585 5.42272e-23)
(0.042798 -0.260983 -4.53925e-22)
(0.0383632 -0.242554 -8.56095e-22)
(0.0346258 -0.226056 -5.4268e-23)
(0.0315555 -0.211268 -3.71886e-21)
(0.029116 -0.197992 1.96392e-21)
(0.0272682 -0.186048 -2.65213e-21)
(0.0259704 -0.175275 -1.8335e-22)
(0.0251801 -0.165525 -8.35219e-21)
(0.0248543 -0.156667 2.75624e-21)
(0.02495 -0.148583 1.8183e-21)
(0.0254248 -0.141165 -2.07345e-21)
(0.0262368 -0.134319 -2.35343e-22)
(0.0273449 -0.127959 -3.56886e-21)
(0.0287087 -0.122009 -1.35095e-21)
(0.0302891 -0.116401 1.97719e-22)
(0.0320478 -0.111078 -3.64045e-21)
(0.0339481 -0.105989 -5.85639e-21)
(0.0359545 -0.101094 2.02557e-22)
(0.0380302 -0.0963573 -7.59192e-22)
(0.0401391 -0.0917524 2.14768e-21)
(0.0422765 -0.0872516 -5.55584e-21)
(0.0444847 -0.0828187 4.95912e-21)
(0.0465153 -0.0784737 -1.12855e-20)
(0.105407 -0.46475 -4.66207e-21)
(0.0951897 -0.424322 6.44282e-21)
(0.0857989 -0.388191 -7.46974e-21)
(0.0771455 -0.355967 -2.2534e-21)
(0.0692767 -0.327252 -1.5936e-21)
(0.0622482 -0.301667 -1.85478e-21)
(0.0560731 -0.278873 -1.73335e-21)
(0.0507407 -0.25856 -3.07322e-22)
(0.0462269 -0.240446 -1.94005e-21)
(0.0424977 -0.22428 -4.45933e-22)
(0.0395122 -0.209834 4.00252e-21)
(0.0372254 -0.196902 -2.09098e-21)
(0.0355899 -0.185299 -2.82702e-21)
(0.0345574 -0.174859 -5.31517e-21)
(0.0340789 -0.16543 1.1627e-20)
(0.0341061 -0.15688 -4.70371e-21)
(0.0345911 -0.149084 1.86334e-21)
(0.0354869 -0.141935 -7.52904e-21)
(0.0367476 -0.135333 2.94406e-21)
(0.0383281 -0.129191 -1.35858e-21)
(0.0401845 -0.123431 1.65249e-21)
(0.0422739 -0.117982 -6.32681e-22)
(0.0445546 -0.112784 6.11047e-21)
(0.0469862 -0.107786 -2.24206e-21)
(0.0495296 -0.102942 6.71251e-21)
(0.052144 -0.0982195 -1.67605e-21)
(0.0547887 -0.0935903 9.35991e-21)
(0.0574592 -0.0890247 2.93209e-21)
(0.0602053 -0.0844828 5.68176e-21)
(0.062742 -0.0799963 -1.96581e-20)
(0.117441 -0.4615 7.33921e-21)
(0.106112 -0.420901 -1.51561e-21)
(0.0958328 -0.384742 3.30514e-21)
(0.0864844 -0.352605 -1.00623e-21)
(0.0780905 -0.324067 3.65495e-21)
(0.0706871 -0.298726 3.79983e-21)
(0.0642692 -0.276223 4.60933e-21)
(0.05881 -0.256234 -4.4695e-22)
(0.0542712 -0.238468 -5.17082e-21)
(0.0506061 -0.222662 7.74654e-21)
(0.0477631 -0.208581 -8.30664e-22)
(0.0456875 -0.196014 6.17472e-21)
(0.0443237 -0.184771 2.422e-21)
(0.0436159 -0.17468 8.51446e-22)
(0.043509 -0.165589 1.47803e-21)
(0.0439489 -0.157359 2.22861e-21)
(0.0448828 -0.149866 4.0602e-21)
(0.0462593 -0.142997 -1.31278e-21)
(0.0480281 -0.136651 6.73242e-21)
(0.0501405 -0.130738 3.3955e-21)
(0.0525487 -0.125176 -7.24973e-21)
(0.0552062 -0.119894 1.36493e-20)
(0.0580677 -0.114828 -1.8896e-20)
(0.0610889 -0.109923 1.87046e-20)
(0.064227 -0.105134 -6.44353e-21)
(0.0674367 -0.100423 1.17715e-21)
(0.0706725 -0.095763 -9.50482e-21)
(0.0739298 -0.0911224 5.39633e-21)
(0.0772661 -0.0864545 2.09845e-21)
(0.0803566 -0.0818066 -2.90946e-21)
(0.129385 -0.457965 -4.18171e-21)
(0.116949 -0.417276 4.85825e-21)
(0.105802 -0.381161 -1.38197e-21)
(0.0957885 -0.349176 4.28752e-21)
(0.0869085 -0.32087 4.50073e-22)
(0.0791758 -0.295821 1.23038e-21)
(0.0725657 -0.273651 -9.08091e-21)
(0.0670339 -0.254023 -1.7781e-21)
(0.0625268 -0.236635 6.71539e-21)
(0.0589845 -0.221215 5.64681e-21)
(0.0563436 -0.207522 -1.00045e-20)
(0.0545395 -0.195339 6.22655e-21)
(0.0535078 -0.184471 -6.47519e-21)
(0.0531853 -0.174746 4.90029e-21)
(0.0535102 -0.166006 -8.58336e-21)
(0.0544229 -0.158109 -6.90284e-21)
(0.0558654 -0.15093 2.1744e-22)
(0.0577819 -0.144352 -3.65886e-21)
(0.060118 -0.138273 6.33372e-21)
(0.0628211 -0.132598 2.75674e-21)
(0.0658398 -0.127245 -1.80092e-21)
(0.0691238 -0.122138 -5.18647e-22)
(0.072624 -0.117211 2.61343e-21)
(0.0762925 -0.112405 -8.67372e-21)
(0.0800822 -0.107672 1.50989e-20)
(0.0839432 -0.102973 -3.64765e-21)
(0.0878247 -0.0982774 -4.66219e-22)
(0.0917217 -0.0935518 1.51812e-20)
(0.0956999 -0.0887415 2.41022e-21)
(0.0993907 -0.0839114 -2.43079e-21)
(0.141234 -0.454149 2.04166e-22)
(0.127704 -0.413457 -2.48946e-21)
(0.115713 -0.377461 -2.56348e-21)
(0.105071 -0.345694 -4.64417e-21)
(0.0957492 -0.317677 1.84871e-22)
(0.0877375 -0.292968 -4.02158e-21)
(0.0809897 -0.271172 4.82125e-21)
(0.0754432 -0.251939 -4.87113e-22)
(0.0710277 -0.234957 4.77364e-21)
(0.0676693 -0.219948 -3.79602e-21)
(0.0652924 -0.206663 -2.15293e-21)
(0.0638218 -0.194881 1.26421e-21)
(0.0631841 -0.184405 7.33359e-22)
(0.0633082 -0.175058 -8.16715e-21)
(0.0641259 -0.166679 4.92236e-21)
(0.0655715 -0.159127 -2.75045e-21)
(0.0675823 -0.152271 7.85003e-21)
(0.0700978 -0.145995 -2.77726e-21)
(0.0730597 -0.140192 2.95963e-21)
(0.0764116 -0.134766 8.243e-22)
(0.0800984 -0.12963 5.79666e-21)
(0.0840664 -0.124707 -1.13388e-21)
(0.0882624 -0.119927 1.05465e-20)
(0.0926348 -0.115227 -1.20063e-20)
(0.0971322 -0.110555 -4.40279e-21)
(0.1017 -0.105868 3.74462e-21)
(0.106281 -0.101134 -2.24708e-22)
(0.110869 -0.0963151 -7.18133e-21)
(0.11554 -0.0913469 5.96912e-21)
(0.119876 -0.086314 -8.08631e-21)
(0.152984 -0.450057 7.16925e-21)
(0.138377 -0.409452 2.16615e-21)
(0.125575 -0.373654 2.86311e-21)
(0.114347 -0.342171 4.25592e-21)
(0.104633 -0.314501 6.84831e-21)
(0.0963975 -0.29018 -2.32391e-22)
(0.0895713 -0.268798 1.02339e-21)
(0.0840716 -0.249994 9.42487e-21)
(0.079811 -0.233446 -1.92499e-21)
(0.0767005 -0.218869 -3.98804e-21)
(0.0746516 -0.20601 7.40323e-21)
(0.0735783 -0.194644 1.44404e-21)
(0.0733977 -0.184571 1.71117e-23)
(0.0740308 -0.175611 1.99552e-21)
(0.0754025 -0.167604 3.9775e-21)
(0.0774414 -0.160404 -8.79613e-21)
(0.0800797 -0.153879 7.71327e-21)
(0.0832526 -0.147912 1.37773e-21)
(0.086898 -0.142394 8.60354e-21)
(0.0909557 -0.137225 -4.7658e-21)
(0.0953672 -0.132317 8.45763e-21)
(0.100075 -0.127587 -9.43187e-21)
(0.105023 -0.122962 9.50836e-21)
(0.110155 -0.118376 1.62348e-21)
(0.115415 -0.113771 -6.90032e-21)
(0.120743 -0.1091 -2.55984e-21)
(0.126076 -0.104328 1.47419e-20)
(0.131407 -0.0994093 1.10883e-20)
(0.13682 -0.0942692 3.0668e-21)
(0.141846 -0.0890141 -2.7492e-21)
(0.164631 -0.445696 7.47412e-22)
(0.148973 -0.405271 2.03287e-21)
(0.1354 -0.36975 8.93737e-21)
(0.123634 -0.338619 -1.51229e-20)
(0.113583 -0.311353 -1.69488e-21)
(0.105184 -0.287468 -1.85319e-21)
(0.0983428 -0.266539 8.15554e-22)
(0.0929555 -0.248195 1.26441e-21)
(0.0889164 -0.232105 2.32654e-21)
(0.0861206 -0.21798 -6.54809e-21)
(0.0844663 -0.205562 -1.56893e-21)
(0.0838559 -0.194623 3.99628e-21)
(0.084197 -0.184962 4.83231e-21)
(0.0854023 -0.176397 -4.84184e-21)
(0.0873898 -0.168765 -5.43633e-21)
(0.0900822 -0.161922 8.54221e-21)
(0.0934069 -0.155735 6.12428e-21)
(0.0972948 -0.150083 -1.47267e-21)
(0.10168 -0.144855 -4.27035e-21)
(0.106499 -0.139952 8.50043e-22)
(0.11169 -0.135279 -1.11576e-20)
(0.117193 -0.130752 1.39301e-20)
(0.122946 -0.126292 -9.93574e-21)
(0.128891 -0.121829 -5.80076e-22)
(0.134967 -0.117301 7.0875e-21)
(0.141108 -0.112653 -2.35828e-21)
(0.147245 -0.107846 -7.59105e-21)
(0.15337 -0.102824 9.49247e-21)
(0.159573 -0.0975013 -3.11773e-22)
(0.16533 -0.0920075 2.0095e-21)
(0.176169 -0.441069 -4.95948e-22)
(0.159495 -0.400921 -2.03838e-21)
(0.145197 -0.365759 -1.03117e-20)
(0.13295 -0.335049 3.7665e-21)
(0.122624 -0.308244 -1.3338e-21)
(0.114127 -0.284841 4.34529e-21)
(0.107339 -0.264402 3.18383e-22)
(0.102134 -0.246547 -6.00865e-21)
(0.0983864 -0.230938 9.48445e-21)
(0.0959752 -0.217281 -8.991e-21)
(0.0947843 -0.205315 -5.04738e-22)
(0.0947045 -0.194812 2.47804e-21)
(0.0956332 -0.185567 -4.49889e-21)
(0.0974747 -0.177399 5.52713e-21)
(0.10014 -0.170145 -1.09689e-20)
(0.103546 -0.163661 -2.86859e-21)
(0.107615 -0.157812 7.10728e-21)
(0.112274 -0.152477 -1.9703e-22)
(0.117454 -0.147545 -5.44042e-21)
(0.123089 -0.142912 1.48082e-20)
(0.129112 -0.138482 -7.96204e-21)
(0.135461 -0.134167 -1.16009e-20)
(0.142072 -0.129884 4.09314e-21)
(0.148882 -0.125556 -1.24839e-20)
(0.155826 -0.121114 -3.31544e-21)
(0.162831 -0.1165 -5.84381e-22)
(0.169822 -0.111664 -9.48258e-21)
(0.176788 -0.106543 1.13275e-20)
(0.183828 -0.10103 -6.73157e-21)
(0.19036 -0.0952842 8.6995e-21)
(0.187596 -0.436182 -2.52682e-21)
(0.169949 -0.396411 -8.23961e-21)
(0.154981 -0.361691 4.49521e-21)
(0.142315 -0.331471 -4.53992e-21)
(0.131781 -0.305183 -3.68312e-21)
(0.123258 -0.282307 -2.36718e-21)
(0.116597 -0.262394 -8.79657e-21)
(0.111648 -0.245053 6.23093e-21)
(0.108266 -0.229945 -1.64275e-20)
(0.106312 -0.216768 -6.61032e-21)
(0.105656 -0.205263 2.16319e-21)
(0.106176 -0.195197 4.16057e-21)
(0.10776 -0.186369 9.77187e-23)
(0.110302 -0.178596 -8.97551e-21)
(0.113708 -0.171718 2.14799e-21)
(0.117887 -0.165588 -9.23448e-21)
(0.122758 -0.160075 -7.13411e-21)
(0.128244 -0.155056 -4.69922e-21)
(0.134272 -0.15042 -1.28274e-21)
(0.140772 -0.146061 7.8892e-21)
(0.147678 -0.14188 1.22e-20)
(0.154923 -0.137786 -3.83888e-21)
(0.16244 -0.133691 -3.95869e-21)
(0.170164 -0.129511 7.80216e-21)
(0.178024 -0.125171 4.62451e-21)
(0.185943 -0.120603 -3.67198e-21)
(0.193836 -0.115751 -4.38831e-21)
(0.201691 -0.110538 3.95728e-22)
(0.209614 -0.104834 5.06304e-21)
(0.216959 -0.0988289 7.6877e-21)
(0.198909 -0.43104 -6.44092e-22)
(0.180341 -0.391748 1.06598e-20)
(0.164767 -0.357555 9.06185e-21)
(0.15175 -0.327892 7.58523e-21)
(0.141085 -0.302176 -5.0825e-21)
(0.132612 -0.279871 -1.07944e-21)
(0.126156 -0.260516 9.35428e-22)
(0.121541 -0.243714 7.9862e-21)
(0.118602 -0.229121 3.21914e-21)
(0.117182 -0.216434 8.23595e-21)
(0.117134 -0.205392 -1.20619e-20)
(0.118326 -0.195764 1.14654e-21)
(0.120633 -0.187347 5.38309e-21)
(0.123942 -0.179964 3.57251e-21)
(0.12815 -0.173452 8.07099e-21)
(0.133162 -0.167669 -5.3371e-21)
(0.138891 -0.162483 -5.54112e-21)
(0.145257 -0.157774 8.89437e-22)
(0.152183 -0.153429 1.28694e-20)
(0.159598 -0.149343 -2.15724e-20)
(0.167432 -0.145416 7.64426e-21)
(0.175619 -0.14155 -1.22898e-22)
(0.184088 -0.137654 1.63021e-20)
(0.19277 -0.133637 -7.08723e-21)
(0.201592 -0.129416 -2.42989e-22)
(0.21047 -0.124914 -5.0229e-21)
(0.219311 -0.120065 4.86078e-21)
(0.228101 -0.114773 1.24458e-21)
(0.236952 -0.108885 -6.16072e-21)
(0.245149 -0.10262 2.28413e-20)
(0.210104 -0.42565 -1.01312e-20)
(0.190678 -0.38694 -6.57575e-21)
(0.174568 -0.353357 -1.81808e-20)
(0.16128 -0.324321 -9.04854e-21)
(0.150563 -0.29923 8.71823e-21)
(0.142224 -0.277536 -5.66053e-21)
(0.136056 -0.258769 -1.59661e-21)
(0.131859 -0.242526 -4.26393e-21)
(0.129443 -0.22846 7.3114e-21)
(0.128635 -0.216268 -1.7779e-21)
(0.129273 -0.205688 -2.88908e-21)
(0.131209 -0.196491 -4.13587e-22)
(0.13431 -0.188477 -1.38395e-20)
(0.138452 -0.181469 -1.03915e-21)
(0.143525 -0.17531 3.67834e-21)
(0.149429 -0.169858 -4.90073e-22)
(0.156071 -0.164985 -1.70791e-20)
(0.163367 -0.160573 1.7265e-20)
(0.171239 -0.156511 -1.78542e-20)
(0.179613 -0.152693 7.16964e-21)
(0.18842 -0.149018 1.03842e-21)
(0.197588 -0.145385 4.54568e-22)
(0.207049 -0.141699 -8.6103e-21)
(0.21673 -0.137862 3.10031e-21)
(0.226554 -0.133781 7.0865e-23)
(0.236433 -0.129369 1.13813e-21)
(0.246266 -0.124546 -2.57263e-20)
(0.256033 -0.1192 6.68859e-21)
(0.265853 -0.113143 7.81671e-21)
(0.27494 -0.106627 1.05552e-20)
(0.22118 -0.420015 2.00609e-20)
(0.200967 -0.381992 8.071e-21)
(0.184402 -0.349104 4.97364e-21)
(0.170929 -0.320761 8.12555e-21)
(0.160248 -0.296349 -1.14818e-21)
(0.152131 -0.275304 7.0082e-21)
(0.14634 -0.257151 1.65761e-20)
(0.142646 -0.241484 -2.06106e-21)
(0.140839 -0.227953 1.10043e-21)
(0.140725 -0.216257 2.32136e-20)
(0.142126 -0.206133 -2.94357e-21)
(0.144883 -0.197356 3.55416e-21)
(0.148848 -0.189729 -1.5505e-21)
(0.153891 -0.183078 -5.8259e-22)
(0.159892 -0.17725 2.12164e-20)
(0.166745 -0.172108 8.24156e-22)
(0.174354 -0.167527 2.50336e-20)
(0.182629 -0.163392 -3.0175e-21)
(0.191492 -0.159596 -5.96954e-21)
(0.200867 -0.156033 1.42865e-20)
(0.210682 -0.152604 -1.38723e-20)
(0.220868 -0.149206 1.55245e-20)
(0.231354 -0.145738 8.7876e-21)
(0.242067 -0.142097 -7.61483e-21)
(0.252929 -0.13818 1.15568e-20)
(0.263846 -0.133887 1.35982e-21)
(0.274707 -0.129124 -5.56454e-21)
(0.285492 -0.123755 2.46729e-21)
(0.296323 -0.117556 2.01332e-20)
(0.306337 -0.11081 3.43736e-21)
(0.232134 -0.414141 -3.44183e-21)
(0.211217 -0.376912 -7.92476e-21)
(0.194288 -0.344802 3.59814e-21)
(0.180721 -0.317218 -1.46702e-20)
(0.170171 -0.293532 7.52558e-21)
(0.162371 -0.273172 -1.44642e-20)
(0.157049 -0.255658 -1.03138e-20)
(0.153949 -0.24058 2.90725e-21)
(0.152838 -0.227589 3.46476e-21)
(0.153503 -0.216383 -1.56119e-20)
(0.15575 -0.206705 -7.24586e-21)
(0.159403 -0.198332 3.63811e-21)
(0.164306 -0.19107 -1.00001e-20)
(0.170317 -0.184751 -4.25523e-21)
(0.177309 -0.179227 -3.05531e-21)
(0.18517 -0.174365 -3.15484e-21)
(0.193797 -0.170046 -1.3932e-20)
(0.203099 -0.16616 -9.36591e-21)
(0.212994 -0.162604 1.38054e-21)
(0.223406 -0.159276 3.14545e-21)
(0.234262 -0.156079 3.71148e-21)
(0.245493 -0.152909 -1.2763e-20)
(0.257031 -0.149665 5.03241e-21)
(0.268802 -0.146235 -1.07058e-20)
(0.280728 -0.142507 1.06487e-20)
(0.292711 -0.138368 -1.41101e-20)
(0.304634 -0.133708 4.85151e-21)
(0.316472 -0.128361 -7.26876e-21)
(0.328352 -0.12206 -1.09467e-20)
(0.339329 -0.115121 -1.30782e-21)
(0.242964 -0.408034 -7.33867e-21)
(0.221437 -0.371704 -7.14353e-21)
(0.204242 -0.340455 -7.63017e-21)
(0.190683 -0.313693 -6.23607e-21)
(0.180366 -0.290781 1.9268e-20)
(0.172981 -0.271139 2.99708e-21)
(0.168226 -0.254283 9.20247e-21)
(0.165815 -0.239803 1.49375e-20)
(0.165492 -0.227351 7.80021e-21)
(0.167022 -0.216629 -1.03577e-20)
(0.170197 -0.207381 1.82725e-20)
(0.174826 -0.19939 -1.81992e-20)
(0.18074 -0.192467 1.81696e-20)
(0.187788 -0.186448 2.32094e-21)
(0.195835 -0.181193 5.04778e-21)
(0.20476 -0.176573 1.58491e-21)
(0.214457 -0.172478 2.24638e-20)
(0.224831 -0.168802 -3.3964e-21)
(0.235797 -0.16545 3.24838e-21)
(0.247276 -0.162326 1.158e-20)
(0.259199 -0.159336 -1.31617e-20)
(0.271497 -0.15638 1.10454e-20)
(0.284104 -0.153355 5.04459e-22)
(0.296949 -0.150148 5.35851e-21)
(0.309956 -0.146634 1.02028e-20)
(0.323025 -0.142689 -1.78508e-21)
(0.336034 -0.138182 1.08011e-20)
(0.348955 -0.132916 1.63711e-20)
(0.361918 -0.126572 -1.77571e-20)
(0.373894 -0.119492 -1.28012e-20)
(0.25367 -0.401698 2.21645e-20)
(0.231638 -0.366373 -2.57651e-21)
(0.214285 -0.336067 5.84201e-21)
(0.200843 -0.310187 1.15575e-20)
(0.190864 -0.288093 -3.48836e-20)
(0.184001 -0.269197 3.95261e-21)
(0.179913 -0.253016 -1.48982e-20)
(0.178289 -0.23914 1.5768e-20)
(0.178846 -0.227224 -1.28948e-20)
(0.181332 -0.216973 7.77867e-21)
(0.185519 -0.208136 -2.84267e-20)
(0.191204 -0.200501 3.70645e-22)
(0.198204 -0.193884 -1.07994e-20)
(0.206359 -0.188129 1.63099e-20)
(0.215524 -0.1831 -1.81079e-20)
(0.225572 -0.178677 -1.0457e-21)
(0.23639 -0.174756 -1.62427e-20)
(0.247879 -0.171242 -1.50289e-21)
(0.25995 -0.168046 1.54981e-21)
(0.272526 -0.16508 4.25999e-21)
(0.285536 -0.162259 -2.35495e-20)
(0.298914 -0.159489 -8.40673e-22)
(0.312597 -0.156669 -1.41696e-20)
(0.32652 -0.153685 -3.4553e-21)
(0.340611 -0.150408 -9.40035e-21)
(0.354773 -0.146697 -1.06751e-20)
(0.368883 -0.142405 -1.166e-20)
(0.382909 -0.137293 1.8998e-20)
(0.396986 -0.130982 5.25196e-21)
(0.409996 -0.12384 -1.22669e-20)
(0.26425 -0.395138 -1.47957e-20)
(0.241829 -0.360923 5.92805e-21)
(0.224436 -0.331637 -1.10108e-20)
(0.211227 -0.306698 1.70998e-21)
(0.2017 -0.285461 2.02253e-20)
(0.195467 -0.267338 -1.0591e-20)
(0.192152 -0.251844 -1.21037e-20)
(0.191414 -0.238575 -1.0589e-20)
(0.192948 -0.227187 4.00015e-22)
(0.19648 -0.217392 7.36493e-21)
(0.201765 -0.208944 -5.88802e-21)
(0.208586 -0.201634 -3.10301e-23)
(0.216749 -0.195288 1.97455e-20)
(0.226081 -0.189753 -1.02419e-20)
(0.236429 -0.184902 3.06301e-21)
(0.247658 -0.180623 -9.27792e-21)
(0.259648 -0.176819 3.54852e-21)
(0.272295 -0.173406 8.22537e-21)
(0.285507 -0.170303 9.94607e-21)
(0.299204 -0.167436 -1.10818e-20)
(0.313315 -0.164727 1.63644e-21)
(0.327779 -0.162095 1.03112e-20)
(0.342536 -0.159447 1.86732e-20)
(0.357529 -0.156673 5.30284e-21)
(0.372693 -0.153643 -2.03199e-20)
(0.387939 -0.150206 2.45562e-20)
(0.403147 -0.146194 -1.24398e-20)
(0.418289 -0.141326 -1.5485e-20)
(0.433505 -0.135151 -9.81611e-21)
(0.447584 -0.128052 -1.58093e-20)
(0.274704 -0.388357 8.11317e-21)
(0.25202 -0.355355 -7.00975e-21)
(0.234714 -0.327165 2.59452e-21)
(0.221862 -0.30322 1.58387e-20)
(0.212906 -0.282878 4.57768e-21)
(0.207415 -0.265549 -4.19279e-21)
(0.20498 -0.250753 1.03607e-20)
(0.205231 -0.238088 2.1525e-21)
(0.207838 -0.227219 1.09426e-20)
(0.212507 -0.217861 6.3293e-21)
(0.218978 -0.209775 1.63941e-22)
(0.227017 -0.202759 4.40633e-21)
(0.236419 -0.196643 -1.46615e-21)
(0.246999 -0.191282 2.67488e-21)
(0.258595 -0.186556 7.81469e-21)
(0.271064 -0.182361 -4.53847e-21)
(0.284279 -0.17861 1.16567e-20)
(0.298128 -0.175225 1.24223e-20)
(0.312516 -0.172141 -1.47402e-20)
(0.327358 -0.169293 1.53269e-20)
(0.342585 -0.16662 3.43866e-20)
(0.358135 -0.164055 -2.28347e-20)
(0.373955 -0.16152 2.39332e-20)
(0.389996 -0.158918 -1.70731e-20)
(0.406205 -0.156124 -2.55368e-21)
(0.422507 -0.152987 1.97587e-20)
(0.438792 -0.149321 -3.91671e-21)
(0.455043 -0.144801 1.57492e-20)
(0.471412 -0.138889 1.61896e-20)
(0.486593 -0.131972 -3.59132e-20)
(0.285031 -0.381361 -7.94349e-21)
(0.262225 -0.349671 3.7965e-21)
(0.245141 -0.322648 1.81248e-21)
(0.232774 -0.299747 -1.87882e-20)
(0.224512 -0.280332 -1.0445e-20)
(0.21988 -0.263815 8.25649e-21)
(0.218434 -0.249722 -2.42404e-20)
(0.219777 -0.237659 3.07316e-20)
(0.223554 -0.227295 -1.80211e-20)
(0.229452 -0.218354 2.25224e-21)
(0.237194 -0.210602 -3.4177e-21)
(0.246532 -0.203845 -1.21157e-20)
(0.257249 -0.197917 2.56946e-20)
(0.269148 -0.192683 1.04877e-20)
(0.282059 -0.188027 -1.08307e-20)
(0.295828 -0.183853 2.68878e-22)
(0.310322 -0.180082 6.67839e-21)
(0.325421 -0.176647 -1.521e-20)
(0.341023 -0.173492 3.17512e-21)
(0.35704 -0.170569 1.12756e-20)
(0.373398 -0.167831 -4.76183e-21)
(0.390036 -0.165232 8.53512e-21)
(0.406903 -0.162716 -1.70436e-20)
(0.42396 -0.160207 2.5468e-20)
(0.44117 -0.157602 6.42741e-21)
(0.458476 -0.15476 -1.69241e-20)
(0.475789 -0.151491 -1.54006e-20)
(0.49312 -0.14743 -3.23138e-22)
(0.510643 -0.141938 2.18028e-20)
(0.526957 -0.13538 -6.40486e-21)
(0.295231 -0.374152 -2.25341e-21)
(0.272454 -0.34387 -1.75927e-20)
(0.255738 -0.318081 2.1563e-20)
(0.243991 -0.296268 1.54755e-20)
(0.236548 -0.277807 1.65059e-20)
(0.232892 -0.262116 5.1011e-21)
(0.232546 -0.248729 7.6591e-21)
(0.235083 -0.23726 4.14241e-21)
(0.240126 -0.227388 -1.72112e-20)
(0.247344 -0.218841 3.24204e-20)
(0.256442 -0.211395 -2.80205e-20)
(0.267159 -0.204861 -2.2733e-21)
(0.279264 -0.199081 4.16529e-21)
(0.292553 -0.193925 -2.09391e-20)
(0.306844 -0.189284 1.87221e-20)
(0.321976 -0.185069 -5.72506e-21)
(0.337805 -0.181205 -1.56011e-20)
(0.354206 -0.177636 6.46692e-21)
(0.371068 -0.174315 -1.24202e-20)
(0.388296 -0.171206 -1.14639e-20)
(0.405811 -0.168281 -1.28683e-20)
(0.423546 -0.165514 2.99704e-21)
(0.441452 -0.162877 2.00453e-21)
(0.459495 -0.16033 -3.44332e-20)
(0.477652 -0.157803 -1.37953e-20)
(0.495889 -0.155191 8.65968e-21)
(0.514151 -0.152325 1.13569e-20)
(0.532494 -0.148816 -1.59768e-20)
(0.55115 -0.143918 -6.36028e-21)
(0.568624 -0.137944 1.13311e-21)
(0.305306 -0.366733 -1.66935e-21)
(0.282723 -0.33795 1.13717e-20)
(0.266525 -0.313454 -3.29503e-21)
(0.255538 -0.292768 -4.1425e-21)
(0.24904 -0.275283 -2.58242e-20)
(0.246479 -0.260428 -6.22655e-21)
(0.247342 -0.247747 1.18689e-20)
(0.251175 -0.236863 -8.3622e-21)
(0.25758 -0.227465 -1.04166e-21)
(0.266204 -0.21929 -1.72282e-21)
(0.276739 -0.212121 1.07151e-20)
(0.288911 -0.205776 -1.72697e-20)
(0.302477 -0.200106 -1.21978e-20)
(0.317223 -0.194984 1.49545e-20)
(0.332958 -0.190308 -8.94393e-21)
(0.349513 -0.185992 -1.13471e-20)
(0.366737 -0.181968 2.47749e-20)
(0.384497 -0.178185 -3.97096e-21)
(0.402674 -0.174601 1.60001e-20)
(0.421164 -0.171191 -1.4795e-20)
(0.439879 -0.16794 -1.26126e-20)
(0.458745 -0.164843 1.12556e-20)
(0.477705 -0.161901 -1.1493e-21)
(0.496725 -0.159112 -8.93992e-21)
(0.515787 -0.156462 8.11105e-21)
(0.534881 -0.153909 -2.61439e-20)
(0.55399 -0.151351 1.60518e-20)
(0.573243 -0.148427 -2.84721e-22)
(0.592983 -0.144304 -1.77014e-20)
(0.611652 -0.1392 2.88545e-20)
(0.315263 -0.359106 8.25339e-21)
(0.293049 -0.331905 -2.22147e-20)
(0.277525 -0.308753 -2.101e-21)
(0.267436 -0.289226 1.16942e-20)
(0.262012 -0.272736 -3.2202e-21)
(0.260662 -0.258724 -9.58345e-21)
(0.262843 -0.246745 4.62715e-21)
(0.268072 -0.236435 5.71668e-21)
(0.275929 -0.227492 5.32435e-22)
(0.286045 -0.219665 7.65373e-21)
(0.298094 -0.212745 2.57608e-20)
(0.311791 -0.206559 -9.05749e-21)
(0.326884 -0.200963 2.67173e-21)
(0.343148 -0.195837 -7.14415e-21)
(0.360386 -0.191082 2.72866e-20)
(0.378423 -0.186618 -5.19575e-21)
(0.397101 -0.182378 1.76777e-20)
(0.41628 -0.178312 -7.20522e-21)
(0.435835 -0.174383 7.98844e-21)
(0.455654 -0.170567 1.25523e-20)
(0.47564 -0.166856 2.30517e-21)
(0.495706 -0.163254 9.05236e-21)
(0.515784 -0.159785 -7.77072e-21)
(0.535825 -0.156482 2.19325e-20)
(0.555809 -0.153391 -9.19298e-21)
(0.575728 -0.150563 3.46484e-20)
(0.595593 -0.148026 -1.00542e-20)
(0.615622 -0.145555 7.11245e-21)
(0.63637 -0.142303 -1.3716e-20)
(0.656307 -0.138355 2.74549e-20)
(0.325134 -0.351279 -1.78674e-20)
(0.303463 -0.325724 6.1832e-22)
(0.28876 -0.303956 -1.26304e-20)
(0.279704 -0.285616 2.39881e-21)
(0.275481 -0.270136 7.2507e-22)
(0.275459 -0.25697 -1.28698e-20)
(0.279063 -0.245687 -2.53194e-20)
(0.285785 -0.235936 1.31655e-20)
(0.295182 -0.22743 -1.92315e-20)
(0.306868 -0.219927 -1.07936e-20)
(0.320502 -0.21323 -6.50643e-21)
(0.335788 -0.207174 -5.55586e-21)
(0.352464 -0.201623 2.95784e-22)
(0.3703 -0.196461 -2.08174e-20)
(0.389092 -0.191596 1.47508e-20)
(0.40866 -0.186948 -2.44496e-20)
(0.428844 -0.182455 -6.54769e-21)
(0.4495 -0.178063 7.26166e-21)
(0.4705 -0.173734 9.48944e-21)
(0.491728 -0.16944 9.92222e-21)
(0.51308 -0.165166 7.90712e-21)
(0.534462 -0.160913 -2.02276e-20)
(0.55579 -0.1567 2.10247e-20)
(0.576995 -0.152571 -2.22592e-21)
(0.598028 -0.148602 -5.92228e-21)