/*--------------------------------*- C++ -*----------------------------------*\
| =========                 |                                                 |
| \\      /  F ield         | OpenFOAM: The Open Source CFD Toolbox           |
|  \\    /   O peration     | Version:  v1912                                 |
|   \\  /    A nd           | Website:  www.openfoam.com                      |
|    \\/     M anipulation  |                                                 |
\*---------------------------------------------------------------------------*/
FoamFile
{
    version     2.0;
    format      ascii;
    class       volScalarField;
    location    "1";
    object      p;
}
// * * * * * * * * * * * * * * * * * * * * * * * * * * * * * * * * * * * * * //

dimensions      [0 2 -2 0 0 0 0];


internalField   nonuniform List<scalar> 
2400
(
-0.387651
-0.367094
-0.347762
-0.326607
-0.303183
-0.278365
-0.253039
-0.228085
-0.204402
-0.182278
-0.406208
-0.383955
-0.363455
-0.340992
-0.316204
-0.290012
-0.263307
-0.236947
-0.211847
-0.188857
-0.432613
-0.407441
-0.385525
-0.361519
-0.335245
-0.307618
-0.279475
-0.251594
-0.224898
-0.201036
-0.466617
-0.437361
-0.413507
-0.387835
-0.359944
-0.330777
-0.301101
-0.271567
-0.243077
-0.21829
-0.506886
-0.473633
-0.447117
-0.419444
-0.389739
-0.358872
-0.32751
-0.296136
-0.265593
-0.23973
-0.552912
-0.515503
-0.485731
-0.455697
-0.423923
-0.391124
-0.357848
-0.324375
-0.291424
-0.264156
-0.604297
-0.561976
-0.528592
-0.495852
-0.461686
-0.426648
-0.39116
-0.355275
-0.319447
-0.290151
-0.660099
-0.612244
-0.574904
-0.539088
-0.502135
-0.46444
-0.4263
-0.387494
-0.347969
-0.315518
-0.71923
-0.66541
-0.62381
-0.584578
-0.544449
-0.503638
-0.462208
-0.419382
-0.374158
-0.336149
-0.780268
-0.720369
-0.674363
-0.631534
-0.588139
-0.544328
-0.499938
-0.453584
-0.40327
-0.358098
-1.14578
-1.15455
-1.14877
-1.13006
-1.10002
-1.06035
-1.01286
-0.959335
-0.901482
-0.841085
-1.05098
-1.05976
-1.05507
-1.03833
-1.01107
-0.974949
-0.931678
-0.882959
-0.830434
-0.775702
-0.963748
-0.975188
-0.973841
-0.960932
-0.937862
-0.906169
-0.867469
-0.823386
-0.775503
-0.725336
-0.875876
-0.890931
-0.893901
-0.885772
-0.867743
-0.841164
-0.80749
-0.768215
-0.724829
-0.678796
-0.787809
-0.806161
-0.813302
-0.809977
-0.79714
-0.775905
-0.747492
-0.713179
-0.674287
-0.632187
-0.703825
-0.724605
-0.735171
-0.736058
-0.727996
-0.711846
-0.688552
-0.659095
-0.624505
-0.585994
-0.626457
-0.648662
-0.661669
-0.665873
-0.661826
-0.650176
-0.631591
-0.606686
-0.576049
-0.540632
-0.55668
-0.579479
-0.594035
-0.600661
-0.59981
-0.591995
-0.577664
-0.557035
-0.529953
-0.496619
-0.494504
-0.517376
-0.532885
-0.541317
-0.543108
-0.538755
-0.528646
-0.512728
-0.489728
-0.457144
-0.439873
-0.461614
-0.476899
-0.486018
-0.489447
-0.487794
-0.481667
-0.471352
-0.45543
-0.42892
-0.243917
-0.383515
-0.517744
-0.644361
-0.759271
-0.861642
-0.950038
-1.02311
-1.08004
-1.12069
-0.207523
-0.337348
-0.461953
-0.578971
-0.687194
-0.78363
-0.866724
-0.935432
-0.98907
-1.02744
-0.153076
-0.274422
-0.391853
-0.503052
-0.605929
-0.698385
-0.778719
-0.84597
-0.899361
-0.938541
-0.0964474
-0.208861
-0.318527
-0.423187
-0.520726
-0.609422
-0.68723
-0.753478
-0.807239
-0.848025
-0.0459461
-0.149102
-0.250528
-0.347999
-0.43949
-0.523189
-0.598113
-0.662614
-0.716
-0.757771
-0.00403178
-0.0983561
-0.191806
-0.282085
-0.367325
-0.445975
-0.51681
-0.578638
-0.630726
-0.672527
0.0296814
-0.0566657
-0.142862
-0.226335
-0.305416
-0.378778
-0.445253
-0.503851
-0.553906
-0.594861
0.0570565
-0.0218697
-0.101702
-0.179055
-0.252454
-0.320788
-0.383024
-0.438283
-0.485949
-0.525497
0.0798824
0.00800954
-0.0663653
-0.138411
-0.206805
-0.270598
-0.328863
-0.380898
-0.426238
-0.464147
0.0923936
0.024498
-0.0453528
-0.111849
-0.174666
-0.233186
-0.286489
-0.33374
-0.376268
-0.411516
0.55946
0.583434
0.609594
0.637094
0.665547
0.694432
0.72286
0.750122
0.781232
0.82969
0.542108
0.564287
0.588879
0.61454
0.640729
0.666836
0.691828
0.714865
0.741059
0.784877
0.517002
0.536375
0.55853
0.581365
0.60413
0.62615
0.646293
0.663706
0.683713
0.721676
0.48439
0.50003
0.518944
0.538021
0.556268
0.572969
0.586946
0.597442
0.610089
0.641045
0.444596
0.455713
0.47068
0.485152
0.497884
0.508153
0.514785
0.517228
0.52151
0.544463
0.398034
0.40402
0.414467
0.423596
0.429944
0.432822
0.431114
0.424573
0.419688
0.433814
0.345217
0.345681
0.351201
0.354384
0.353632
0.348346
0.337516
0.3213
0.306677
0.31134
0.286839
0.281648
0.282019
0.278775
0.270358
0.25633
0.235834
0.20951
0.18483
0.179601
0.223634
0.213284
0.208473
0.198334
0.181781
0.158609
0.128132
0.0915341
0.0567371
0.0414077
0.154724
0.14129
0.131399
0.114183
0.0894581
0.057075
0.0165909
-0.0301567
-0.0749083
-0.100474
0.318081
0.315612
0.318609
0.317958
0.314502
0.310379
0.308263
0.312625
0.329371
0.357383
0.374072
0.373898
0.380101
0.384411
0.386677
0.388585
0.392326
0.401772
0.423153
0.457653
0.422149
0.426342
0.436388
0.445749
0.453792
0.461725
0.47131
0.485815
0.511599
0.551906
0.46408
0.473026
0.487005
0.501063
0.514487
0.52811
0.543258
0.562563
0.592341
0.637639
0.499639
0.51306
0.530743
0.549054
0.567337
0.586126
0.606322
0.629924
0.66308
0.712438
0.528375
0.545748
0.566693
0.588669
0.611129
0.634353
0.658851
0.686006
0.721732
0.774091
0.549937
0.570544
0.594144
0.619053
0.644843
0.671582
0.699418
0.729162
0.766463
0.820663
0.564029
0.586998
0.612519
0.639515
0.667656
0.696824
0.726848
0.758027
0.79576
0.850559
0.570425
0.59477
0.621383
0.649535
0.678941
0.709327
0.740238
0.771544
0.808448
0.862565
0.568874
0.593601
0.620437
0.648767
0.678289
0.708595
0.73899
0.769008
0.803732
0.855818
0.269151
0.2137
0.15332
0.0939726
0.036202
-0.0192873
-0.0710265
-0.122535
-0.168479
-0.209783
0.266073
0.207509
0.144201
0.0806776
0.0185309
-0.0413167
-0.0979479
-0.151509
-0.200102
-0.243714
0.258615
0.193853
0.126134
0.0585027
-0.00747309
-0.0707764
-0.130427
-0.185804
-0.235952
-0.280479
0.249934
0.179082
0.106528
0.0344848
-0.0354652
-0.102145
-0.164442
-0.221622
-0.272855
-0.317647
0.239805
0.163068
0.0854942
0.00898697
-0.0647977
-0.134556
-0.19908
-0.25752
-0.309116
-0.3534
0.229267
0.146708
0.0641606
-0.0165534
-0.0937512
-0.165964
-0.232015
-0.290992
-0.342215
-0.385312
0.221182
0.133246
0.0461518
-0.038256
-0.118238
-0.192308
-0.259312
-0.318366
-0.368899
-0.410679
0.220445
0.127931
0.0369102
-0.0506994
-0.133054
-0.208813
-0.276817
-0.336259
-0.386677
-0.427981
0.232405
0.135307
0.0400488
-0.0512782
-0.137238
-0.216152
-0.286895
-0.348714
-0.401194
-0.444303
0.253644
0.149365
0.0468976
-0.0519245
-0.144976
-0.230761
-0.308061
-0.376005
-0.434099
-0.482231
-0.24675
-0.279327
-0.307524
-0.331472
-0.351411
-0.367622
-0.380299
-0.389144
-0.392597
-0.383599
-0.282327
-0.315768
-0.344011
-0.367137
-0.385288
-0.398578
-0.406919
-0.409657
-0.405203
-0.389306
-0.319224
-0.351997
-0.378806
-0.399762
-0.415032
-0.424765
-0.428976
-0.427382
-0.419517
-0.404193
-0.355837
-0.387253
-0.412007
-0.430318
-0.442481
-0.448815
-0.449587
-0.444946
-0.435047
-0.419618
-0.390283
-0.419648
-0.441772
-0.457048
-0.465963
-0.469053
-0.466843
-0.459803
-0.448364
-0.432587
-0.42034
-0.447268
-0.466586
-0.478889
-0.484857
-0.485221
-0.480702
-0.471956
-0.459532
-0.443685
-0.443953
-0.468779
-0.485857
-0.495953
-0.499885
-0.498507
-0.492636
-0.482991
-0.47015
-0.454471
-0.460585
-0.484584
-0.500828
-0.51017
-0.513483
-0.51165
-0.505489
-0.49571
-0.482873
-0.467402
-0.478486
-0.503854
-0.521277
-0.531609
-0.535723
-0.534472
-0.528644
-0.518915
-0.505844
-0.489901
-0.520561
-0.549475
-0.569648
-0.581934
-0.587228
-0.586399
-0.580232
-0.569418
-0.554579
-0.536197
-0.514487
-0.471641
-0.44983
-0.436326
-0.424452
-0.411677
-0.39587
-0.374241
-0.343636
-0.311978
-0.491289
-0.45178
-0.430702
-0.416589
-0.40367
-0.389798
-0.373261
-0.352085
-0.324656
-0.299443
-0.467377
-0.431263
-0.411018
-0.396302
-0.382379
-0.367633
-0.350855
-0.33089
-0.307448
-0.287151
-0.443946
-0.411032
-0.39169
-0.376347
-0.361322
-0.345519
-0.328129
-0.308505
-0.28698
-0.268563
-0.422295
-0.392109
-0.373703
-0.357723
-0.341545
-0.324568
-0.306364
-0.286697
-0.266189
-0.248301
-0.403145
-0.375919
-0.35814
-0.341462
-0.324115
-0.305902
-0.28674
-0.266734
-0.246639
-0.22856
-0.387547
-0.363711
-0.345969
-0.328546
-0.310032
-0.290534
-0.270279
-0.249663
-0.22947
-0.210791
-0.377457
-0.355917
-0.338092
-0.319905
-0.300208
-0.279397
-0.257952
-0.236471
-0.215811
-0.196329
-0.373797
-0.353435
-0.335385
-0.316328
-0.295428
-0.273291
-0.250596
-0.228097
-0.206649
-0.18627
-0.377148
-0.357009
-0.338462
-0.318426
-0.29629
-0.272819
-0.248829
-0.225165
-0.202705
-0.18144
-0.113409
-0.00762853
0.012147
0.0198973
0.0156138
0.0107681
0.00695388
0.00424054
0.00245889
0.00132517
0.000624698
0.00020788
-2.45028e-05
-0.000139325
-0.000185838
-0.000188707
-0.000166784
-0.00012891
-8.13678e-05
-2.73109e-05
-0.1214
-0.0101916
0.010012
0.0183974
0.0146097
0.0100428
0.00640302
0.00381704
0.00212965
0.00106928
0.000426748
5.63279e-05
-0.000138342
-0.000223558
-0.000246565
-0.000230846
-0.000195267
-0.000146888
-9.0713e-05
-3.01607e-05
-0.136384
-0.0159788
0.00617707
0.0160005
0.0131872
0.0091249
0.00577692
0.00335191
0.00177305
0.000802646
0.000223199
-9.82643e-05
-0.000253988
-0.000308809
-0.000307823
-0.000273333
-0.000223876
-0.000164888
-0.0001002
-3.30316e-05
-0.157689
-0.0251266
0.000677414
0.0126979
0.011338
0.00800603
0.00504414
0.00285127
0.0013879
0.000524168
1.39043e-05
-0.000255863
-0.000371352
-0.000394984
-0.000369534
-0.00031621
-0.000252575
-0.000182868
-0.000109943
-3.59244e-05
-0.184114
-0.0377022
-0.00641416
0.00849963
0.009053
0.00668139
0.00421383
0.0022972
0.00104398
0.000231056
-0.000201414
-0.000416513
-0.000490409
-0.000482054
-0.00043172
-0.00035942
-0.000281398
-0.000200897
-0.000119842
-3.88417e-05
-0.213947
-0.0535463
-0.0149317
0.00347363
0.00634928
0.00515735
0.0032898
0.001697
0.000616168
-7.60082e-05
-0.000422595
-0.000580046
-0.000610993
-0.000569922
-0.00049436
-0.000402882
-0.000310373
-0.000219025
-0.000129789
-4.17939e-05
-0.24531
-0.0725437
-0.0249078
-0.00240066
0.00320666
0.00342817
0.00227239
0.00105423
0.000176526
-0.00036091
-0.000648845
-0.000745974
-0.000732835
-0.000658445
-0.000557376
-0.000446559
-0.000339482
-0.000237243
-0.000139788
-4.47852e-05
-0.277341
-0.0960371
-0.0374354
-0.0097106
-0.000688905
0.001341
0.00109305
0.000339586
-0.000290508
-0.000690596
-0.000881578
-0.000915362
-0.000856693
-0.000748043
-0.000620993
-0.000490572
-0.00036879
-0.000255591
-0.000149862
-4.78233e-05
-0.307559
-0.124893
-0.0532546
-0.018997
-0.00572406
-0.00135673
-0.000395609
-0.000527825
-0.000833514
-0.00105487
-0.00112979
-0.00109414
-0.000985657
-0.000840268
-0.000685958
-0.000535269
-0.000398445
-0.000274127
-0.000160035
-5.09162e-05
-0.318094
-0.145728
-0.064967
-0.0265234
-0.0101905
-0.00391718
-0.00188307
-0.00142508
-0.00140407
-0.00143422
-0.00139269
-0.00128091
-0.00111711
-0.000933479
-0.00075117
-0.000579924
-0.000427979
-0.000292544
-0.000170126
-5.40087e-05
-0.293368
-0.144078
-0.0625807
-0.0256457
-0.0100477
-0.00410639
-0.00223073
-0.00181229
-0.00176877
-0.00174822
-0.00165243
-0.00148642
-0.00127619
-0.00105281
-0.000837746
-0.000640617
-0.000468669
-0.000318009
-0.000184014
-5.82512e-05
-0.264145
-0.145724
-0.0696189
-0.0333455
-0.016196
-0.00822188
-0.00484697
-0.00348806
-0.00287036
-0.00249114
-0.00216578
-0.00184626
-0.00153009
-0.00123123
-0.000961382
-0.000724667
-0.000523894
-0.000352185
-0.00020245
-6.38015e-05
-0.228295
-0.140136
-0.0736984
-0.0395428
-0.0219944
-0.0125504
-0.00778356
-0.00544307
-0.00418073
-0.0033792
-0.0027761
-0.00227008
-0.00182557
-0.00143653
-0.00110262
-0.000820047
-0.000586248
-0.000390662
-0.000223144
-7.00152e-05
-0.188082
-0.127807
-0.0741734
-0.0434521
-0.0265439
-0.0164539
-0.0106714
-0.00747629
-0.00559788
-0.00436461
-0.00346312
-0.0027503
-0.0021611
-0.00166961
-0.00126271
-0.000927966
-0.000656647
-0.000434033
-0.000246421
-7.69936e-05
-0.147848
-0.110778
-0.0712944
-0.0453582
-0.0298712
-0.0198532
-0.013466
-0.00956861
-0.00711415
-0.00544605
-0.0042277
-0.00328786
-0.00253714
-0.00193048
-0.0014414
-0.00104816
-0.000734815
-0.000482086
-0.00027215
-8.46831e-05
-0.111341
-0.0913223
-0.0651491
-0.0450649
-0.0317375
-0.0224547
-0.0159595
-0.011604
-0.00866649
-0.00658977
-0.00505178
-0.00387257
-0.0029473
-0.00221483
-0.00163565
-0.00117847
-0.000819364
-0.000533927
-0.000299834
-9.29271e-05
-0.0807654
-0.0718449
-0.056581
-0.0426365
-0.0320664
-0.0240407
-0.0179175
-0.0134152
-0.0101483
-0.00772932
-0.00589458
-0.00447913
-0.00337543
-0.00251205
-0.00183844
-0.00131422
-0.00090731
-0.000587702
-0.000328474
-0.000101422
-0.0568421
-0.0544888
-0.0471404
-0.0386879
-0.031091
-0.0246196
-0.0192077
-0.01485
-0.011436
-0.00877378
-0.00669243
-0.00506417
-0.00379221
-0.00280242
-0.00203663
-0.0014467
-0.000993042
-0.000640005
-0.000356254
-0.000109627
-0.0399076
-0.0410894
-0.0387354
-0.0343969
-0.0294066
-0.0244502
-0.0198532
-0.0158117
-0.0124054
-0.00961005
-0.00735489
-0.00556051
-0.00414994
-0.00305298
-0.00220795
-0.00156115
-0.001067
-0.000685118
-0.000380152
-0.000116652
-0.030577
-0.0333099
-0.0334074
-0.0313635
-0.0279956
-0.0240565
-0.0200516
-0.0162883
-0.012948
-0.0101062
-0.0077613
-0.00587123
-0.00437658
-0.00321278
-0.00231758
-0.00163449
-0.00111441
-0.000714036
-0.00039544
-0.000121115
-0.363243
-0.378753
-0.388916
-0.39397
-0.394359
-0.390841
-0.384619
-0.377595
-0.37278
-0.381187
-0.278198
-0.291426
-0.301371
-0.308378
-0.312862
-0.315347
-0.316425
-0.316683
-0.316086
-0.319928
-0.210146
-0.221123
-0.230164
-0.237391
-0.242916
-0.246813
-0.249129
-0.249961
-0.249289
-0.251081
-0.153844
-0.162711
-0.170235
-0.176461
-0.181445
-0.18526
-0.188014
-0.189865
-0.190886
-0.192809
-0.108719
-0.115939
-0.12228
-0.12778
-0.132479
-0.136416
-0.139627
-0.142137
-0.143935
-0.145718
-0.0731453
-0.0791118
-0.0844811
-0.0892731
-0.0935007
-0.0971766
-0.100318
-0.10294
-0.105064
-0.106985
-0.045764
-0.0507478
-0.0553213
-0.0594745
-0.0632109
-0.0665418
-0.0694802
-0.0720374
-0.0742289
-0.0761727
-0.0256296
-0.0298618
-0.033785
-0.0373915
-0.0406808
-0.0436565
-0.046325
-0.0486934
-0.050774
-0.0526133
-0.0118918
-0.0155935
-0.019046
-0.0222432
-0.0251825
-0.027864
-0.0302909
-0.0324682
-0.0344042
-0.0361151
-0.00456676
-0.00794556
-0.0111091
-0.0140523
-0.0167725
-0.0192689
-0.0215436
-0.0235996
-0.0254416
-0.0270747
0.0737123
0.0111644
-0.0525509
-0.107529
-0.157805
-0.204441
-0.246657
-0.283971
-0.315667
-0.342226
0.0469854
-0.000847608
-0.0487732
-0.0889974
-0.125021
-0.158717
-0.189555
-0.216929
-0.240621
-0.261319
0.0283615
-0.00911949
-0.0435963
-0.0724844
-0.0983355
-0.122474
-0.144689
-0.164631
-0.182245
-0.197185
0.0186902
-0.00933611
-0.0328459
-0.0527396
-0.0710619
-0.0883613
-0.10441
-0.118987
-0.132053
-0.14362
0.0170049
-0.00306639
-0.0190686
-0.0329226
-0.0461323
-0.0588071
-0.070678
-0.0816057
-0.0915764
-0.1006
0.0203603
0.00624667
-0.00496779
-0.0149817
-0.0247572
-0.0342537
-0.0432416
-0.0516258
-0.0594003
-0.0665707
0.0257434
0.015755
0.00755441
-7.92392e-06
-0.0074763
-0.0147849
-0.0217745
-0.0283772
-0.0345806
-0.0403775
0.0313394
0.0240403
0.0177002
0.0116867
0.00573081
-0.000115601
-0.0057562
-0.011144
-0.0162623
-0.0210994
0.0359446
0.0302414
0.024986
0.0199084
0.0148944
0.00997466
0.00520333
0.000613467
-0.00377618
-0.00795035
0.0386621
0.0336657
0.0288871
0.0242457
0.0196944
0.0152479
0.010937
0.00678494
0.00280811
-0.000980306
0.236744
0.238182
0.241088
0.245397
0.251085
0.256973
0.262758
0.260075
0.246688
0.162488
0.230416
0.231412
0.233368
0.236076
0.239158
0.241195
0.240839
0.229977
0.203741
0.124952
0.22274
0.223251
0.224129
0.225041
0.225335
0.223517
0.217623
0.201117
0.168938
0.101721
0.213579
0.213544
0.213247
0.212271
0.20979
0.204407
0.193876
0.173855
0.138982
0.0811041
0.20295
0.20235
0.200889
0.198108
0.193138
0.184804
0.170977
0.149213
0.114659
0.0655513
0.19109
0.189964
0.187464
0.183138
0.17621
0.165785
0.150204
0.128321
0.0967314
0.0563211
0.178558
0.176999
0.173693
0.168235
0.160031
0.14849
0.132568
0.111871
0.0845397
0.0519494
0.166333
0.164478
0.160662
0.154551
0.145764
0.133982
0.118692
0.0998672
0.0767857
0.0506077
0.15589
0.153881
0.149836
0.143495
0.13465
0.123172
0.108891
0.0919548
0.0722872
0.0507733
0.149278
0.147217
0.143124
0.136786
0.12809
0.117003
0.103521
0.0878601
0.0702104
0.051282
0.261601
0.26405
0.269461
0.278072
0.291124
0.30896
0.335348
0.370357
0.423631
0.495592
0.260087
0.26249
0.267781
0.276193
0.288937
0.306259
0.331847
0.365543
0.416566
0.484547
0.258357
0.260704
0.265855
0.274025
0.286383
0.303051
0.327628
0.359456
0.407277
0.469138
0.25642
0.258704
0.263694
0.271583
0.283483
0.299365
0.322726
0.352151
0.395944
0.449507
0.254285
0.256506
0.261312
0.268884
0.280253
0.295226
0.317166
0.343671
0.382703
0.42569
0.251966
0.254118
0.258725
0.265946
0.276713
0.290665
0.310974
0.334074
0.367693
0.397695
0.249476
0.251557
0.255955
0.262797
0.272896
0.285735
0.304211
0.323485
0.351116
0.365578
0.24683
0.24885
0.253043
0.259492
0.268884
0.280566
0.297049
0.312199
0.333368
0.329484
0.24404
0.24601
0.250002
0.25605
0.264698
0.275194
0.289506
0.300272
0.314372
0.288712
0.241099
0.242953
0.246644
0.252158
0.259845
0.268841
0.280329
0.286053
0.291261
0.240797
0.264386
0.266883
0.272197
0.280548
0.292598
0.308041
0.329159
0.349753
0.377667
0.365549
0.265076
0.267592
0.273107
0.281726
0.294327
0.310622
0.333604
0.357785
0.392716
0.401201
0.265556
0.268078
0.273635
0.28238
0.295279
0.31207
0.336194
0.363125
0.402847
0.428735
0.265835
0.268364
0.273939
0.282853
0.296026
0.313299
0.338439
0.367946
0.411927
0.451939
0.265905
0.268444
0.274081
0.283
0.29656
0.314201
0.340172
0.371966
0.419664
0.471106
0.265757
0.268301
0.273962
0.2829
0.296848
0.314684
0.341198
0.37484
0.425559
0.485981
0.265385
0.267927
0.273579
0.282527
0.295726
0.314699
0.341531
0.376517
0.429481
0.496558
0.264784
0.267316
0.27294
0.281872
0.295262
0.313617
0.341149
0.376965
0.431353
0.502892
0.263953
0.266466
0.272043
0.280916
0.294321
0.31264
0.339734
0.375831
0.430973
0.504954
0.262891
0.265377
0.270883
0.279649
0.292925
0.311104
0.337994
0.373766
0.428279
0.502057
0.211395
0.209826
0.206737
0.201908
0.195157
0.186332
0.175256
0.161916
0.146236
0.128637
0.216298
0.21487
0.212018
0.207483
0.200997
0.192313
0.181088
0.167217
0.150323
0.130904
0.223792
0.222647
0.220294
0.216434
0.210656
0.202539
0.19142
0.176989
0.158211
0.135647
0.232158
0.231436
0.229871
0.227132
0.222663
0.215826
0.205502
0.190993
0.170227
0.143598
0.240226
0.240035
0.239498
0.238294
0.235759
0.231064
0.222627
0.209041
0.186987
0.155792
0.247309
0.247697
0.248333
0.248943
0.248861
0.247107
0.241871
0.230607
0.209093
0.173374
0.253105
0.254062
0.255897
0.258428
0.261105
0.26288
0.262081
0.254646
0.236484
0.197038
0.257576
0.259041
0.262001
0.266389
0.271886
0.277486
0.28204
0.279885
0.267911
0.225277
0.260846
0.262727
0.26665
0.272687
0.280816
0.290207
0.300512
0.305138
0.301983
0.255652
0.263121
0.265338
0.270039
0.277428
0.28783
0.300678
0.316757
0.32962
0.340211
0.296448
0.116305
0.111306
0.10639
0.101532
0.0966925
0.0918811
0.0871239
0.0824449
0.077863
0.0733946
0.116832
0.11117
0.105685
0.100305
0.094939
0.0895866
0.0842864
0.0790731
0.0739711
0.0690012
0.11817
0.11102
0.104251
0.0977542
0.0913174
0.0849076
0.0785789
0.0723822
0.066348
0.0604988
0.121023
0.111421
0.102485
0.0941632
0.0860323
0.0779732
0.0700545
0.0623525
0.0549063
0.04774
0.126462
0.113216
0.100891
0.0897739
0.0791311
0.0686567
0.0584183
0.0485342
0.0390618
0.0300363
0.135995
0.11769
0.100265
0.0850052
0.0707721
0.0568828
0.0433576
0.0303757
0.0180169
0.00650246
0.151878
0.127081
0.102214
0.08092
0.061628
0.0429819
0.0249283
0.00779314
-0.00824206
-0.0235714
0.175944
0.143618
0.108638
0.0790548
0.0527015
0.0272787
0.00275005
-0.02038
-0.0415661
-0.0616197
0.20851
0.167732
0.120989
0.0816155
0.0461183
0.0116862
-0.0212631
-0.0518482
-0.080819
-0.107482
0.248869
0.196325
0.137163
0.0856575
0.0374974
-0.00900538
-0.0532103
-0.0932219
-0.130519
-0.164112
0.0690558
0.0648565
0.0608091
0.0569244
0.05321
0.0496716
0.0463128
0.0431358
0.0401416
0.0373286
0.0641818
0.0595299
0.0550611
0.0507877
0.0467191
0.0428623
0.0392217
0.0357998
0.0325965
0.0295967
0.0548518
0.049425
0.0442354
0.0392956
0.0346145
0.0301982
0.02605
0.0221723
0.0185644
0.0151794
0.0408613
0.034289
0.028041
0.0221285
0.0165581
0.0113333
0.00645518
0.00192511
-0.00225564
-0.00619821
0.0214224
0.0132434
0.00552375
-0.00172752
-0.00850814
-0.0148165
-0.0206525
-0.0260173
-0.0309103
-0.0356108
-0.00445969
-0.0148102
-0.0245004
-0.0335321
-0.0419249
-0.0496991
-0.0568687
-0.0634373
-0.0693605
-0.0753494
-0.0379022
-0.0512232
-0.0635583
-0.0749234
-0.0853414
-0.0948636
-0.103589
-0.111685
-0.119197
-0.128067
-0.0803227
-0.0976193
-0.113605
-0.128377
-0.141992
-0.154462
-0.165774
-0.175999
-0.185148
-0.198041
-0.131653
-0.153491
-0.173207
-0.191056
-0.207419
-0.222795
-0.237739
-0.252722
-0.267703
-0.287908
-0.193955
-0.220106
-0.242599
-0.261587
-0.277449
-0.290911
-0.303214
-0.316379
-0.334713
-0.368452
0.030854
0.0229335
0.017228
0.0134926
0.0111519
0.00960857
0.00845477
0.00745951
0.00649972
0.00553647
0.00458565
0.0036824
0.00286089
0.00214555
0.00154862
0.00107072
0.000702531
0.000426673
0.00022262
6.29288e-05
0.0223979
0.0152829
0.0114012
0.00956716
0.00867476
0.00811103
0.00759579
0.00697804
0.00621098
0.00533664
0.0044273
0.0035479
0.002746
0.00205032
0.00147328
0.0010143
0.000662719
0.000400745
0.000208461
5.88491e-05
0.00660448
0.00164239
0.00174892
0.00352224
0.00506546
0.00603925
0.00647648
0.0063768
0.00584578
0.00506784
0.00419988
0.00334626
0.00257009
0.00190339
0.00135679
0.00092689
0.000600944
0.000360569
0.000186509
5.24512e-05
-0.0167154
-0.0170098
-0.0100132
-0.00308778
0.00144211
0.00414766
0.00556126
0.0059082
0.00553531
0.00480351
0.00395153
0.00311474
0.00236462
0.00173119
0.00122043
0.000824821
0.000529029
0.000313915
0.000160989
4.49551e-05
-0.0482165
-0.0395387
-0.0222343
-0.00903752
-0.0014218
0.00291491
0.00509353
0.00567436
0.0053248
0.00457049
0.00370422
0.00287414
0.00214896
0.00155065
0.00107805
0.000718741
0.000454566
0.000265721
0.000134604
3.71619e-05
-0.088304
-0.0643164
-0.0334376
-0.01353
-0.00307086
0.00255842
0.00511843
0.00566592
0.00520484
0.00436812
0.00346465
0.00263504
0.00193453
0.00137215
0.000938192
0.000615106
0.000382094
0.000218953
0.000108984
2.95599e-05
-0.135263
-0.0891053
-0.0426012
-0.0162187
-0.00334446
0.00304198
0.00553203
0.00581053
0.00513972
0.0041836
0.00323264
0.00240272
0.001728
0.00120176
0.000805746
0.000517552
0.000314154
0.000175264
8.5029e-05
2.24247e-05
-0.184351
-0.110985
-0.0490747
-0.0169499
-0.00225981
0.00421463
0.00621661
0.00605332
0.0051098
0.00401464
0.00301316
0.00218375
0.0015352
0.00104393
0.000683872
0.000428215
0.000252138
0.000135509
6.31902e-05
1.59031e-05
-0.231
-0.127189
-0.0520129
-0.0151937
0.000363031
0.00609515
0.0071881
0.00641373
0.0051324
0.00387633
0.00281802
0.00198641
0.00136152
0.000901924
0.00057454
0.000348223
0.00019669
0.000100028
4.36492e-05
1.00616e-05
-0.271927
-0.135701
-0.0512921
-0.0115069
0.00367166
0.00801647
0.00802759
0.00664225
0.0050648
0.00368893
0.00260266
0.00178563
0.00119278
0.000767788
0.000473358
0.000275227
0.000146616
6.82366e-05
2.61691e-05
4.84113e-06
-0.289993
-0.13522
-0.0537764
-0.0140693
0.00155485
0.00641945
0.00688094
0.00582069
0.00446751
0.00324891
0.00227788
0.00154699
0.00101976
0.000643473
0.000385841
0.000215143
0.000106859
4.35729e-05
1.2704e-05
7.94251e-07
-0.283695
-0.117412
-0.0436206
-0.00814846
0.00456252
0.00774908
0.00735272
0.00589416
0.00437891
0.00310948
0.00213723
0.00142456
0.000921513
0.000567945
0.000330099
0.00017561
8.00911e-05
2.67125e-05
3.38674e-06
-2.02781e-06
-0.260493
-0.0929916
-0.0297359
-0.00032686
0.00834385
0.00936408
0.00792215
0.00599911
0.00430217
0.00297702
0.00200198
0.00130644
0.000826769
0.00049426
0.00027569
0.000136733
5.35991e-05
9.96104e-06
-5.88201e-06
-4.81782e-06
-0.233031
-0.0723315
-0.0187197
0.0056556
0.0110456
0.0104019
0.00820385
0.00596673
0.00416116
0.00281466
0.00185276
0.00118176
0.000729623
0.000419395
0.000220567
9.7486e-05
2.69041e-05
-6.9081e-06
-1.52089e-05
-7.60755e-06
-0.204772
-0.0549408
-0.00993086
0.010249
0.0129832
0.0110646
0.00831204
0.00585505
0.00398332
0.00263455
0.00169448
0.00105209
0.000630044
0.000342925
0.000164516
5.77155e-05
-7.70761e-08
-2.39272e-05
-2.46055e-05
-1.04016e-05
-0.177438
-0.0399932
-0.00245974
0.0140144
0.0144764
0.0115145
0.00832168
0.00569752
0.00378356
0.00244352
0.0015304
0.00091906
0.000514395
0.00026517
0.000107756
1.75175e-05
-2.7299e-05
-4.10731e-05
-3.40621e-05
-1.31987e-05
-0.153017
-0.0276859
0.00367216
0.0169702
0.0155536
0.0117651
0.00823702
0.00549531
0.00356216
0.00224174
0.00136068
0.000783055
0.00041064
0.000186423
5.03692e-05
-2.30684e-05
-5.474e-05
-5.8337e-05
-4.35787e-05
-1.59995e-05
-0.133274
-0.0182361
0.00827919
0.0190444
0.0161969
0.0118103
0.00805535
0.00524722
0.00331847
0.00202884
0.00118514
0.000643976
0.000305208
0.000106668
-7.63459e-06
-6.40374e-05
-8.2398e-05
-7.57172e-05
-5.3158e-05
-1.88094e-05
-0.119364
-0.01171
0.0112614
0.0202213
0.0164143
0.0116559
0.00777971
0.00495474
0.00305298
0.00180501
0.0010039
0.000501749
0.000197376
2.57707e-05
-6.63139e-05
-0.000105328
-0.000110297
-9.32569e-05
-6.26882e-05
-2.16345e-05
-0.112594
-0.00813548
0.0125617
0.020505
0.0162181
0.0113079
0.00741289
0.00461931
0.00276634
0.00157044
0.00081708
0.000356362
8.74253e-05
-5.62087e-05
-0.000125731
-0.000146877
-0.000138447
-0.000111007
-7.20581e-05
-2.44709e-05
)
;

boundaryField
{
    inlet
    {
        type            freestreamPressure;
        freestreamValue uniform 0;
        value           nonuniform List<scalar> 
40
(
0.236744
0.230416
0.22274
0.213579
0.20295
0.19109
0.178558
0.166333
0.15589
0.149278
0.261601
0.260087
0.258357
0.25642
0.254285
0.251966
0.249476
0.24683
0.24404
0.241099
0.264386
0.265076
0.265556
0.265835
0.265905
0.265757
0.265385
0.264784
0.263953
0.262891
0.211395
0.216298
0.223792
0.232158
0.240226
0.247309
0.253105
0.257576
0.260846
0.263121
)
;
    }
    outlet
    {
        type            freestreamPressure;
        freestreamValue uniform 0;
        value           nonuniform List<scalar> 
40
(
-2.50856e-14
-2.38359e-14
-2.16777e-14
-1.87447e-14
-1.51165e-14
-1.10832e-14
-7.10379e-15
-3.70532e-15
-1.32126e-15
-1.4256e-16
-1.93323e-14
-2.0567e-14
-2.16611e-14
-2.259e-14
-2.33615e-14
-2.39966e-14
-2.44957e-14
-2.48546e-14
-2.50582e-14
-2.51075e-14
7.30885e-16
-1.83441e-15
-4.27467e-15
-6.60994e-15
-8.83421e-15
-1.0935e-14
-1.29031e-14
-1.47351e-14
-1.64204e-14
-1.79531e-14
1.58111e-15
1.12131e-14
2.15928e-14
2.75797e-14
2.84233e-14
2.54844e-14
2.05145e-14
1.49046e-14
9.47876e-15
4.53555e-15
)
;
    }
    top
    {
        type            symmetryPlane;
    }
    bottom
    {
        type            symmetryPlane;
    }
    cylinder
    {
        type            zeroGradient;
    }
    frontandback
    {
        type            empty;
    }
}


// ************************************************************************* //
