/*--------------------------------*- C++ -*----------------------------------*\
| =========                 |                                                 |
| \\      /  F ield         | OpenFOAM: The Open Source CFD Toolbox           |
|  \\    /   O peration     | Version:  v1912                                 |
|   \\  /    A nd           | Website:  www.openfoam.com                      |
|    \\/     M anipulation  |                                                 |
\*---------------------------------------------------------------------------*/
FoamFile
{
    version     2.0;
    format      ascii;
    class       volVectorField;
    location    "18";
    object      U;
}
// * * * * * * * * * * * * * * * * * * * * * * * * * * * * * * * * * * * * * //

dimensions      [0 1 -1 0 0 0 0];


internalField   nonuniform List<vector> 
9600
(
(0.457234 -9.38548 -1.52431e-19)
(0.158073 -8.67421 0)
(0.235671 -8.2027 -8.90858e-20)
(0.308437 -7.87601 0)
(0.369713 -7.62897 0)
(0.432147 -7.42071 -3.11162e-20)
(0.491977 -7.22869 -4.96403e-22)
(0.546245 -7.0415 2.58656e-20)
(0.594258 -6.85417 0)
(0.636059 -6.66539 -4.37602e-20)
(0.672016 -6.47577 0)
(0.702709 -6.28676 -1.78062e-21)
(0.728821 -6.10003 -2.56931e-21)
(0.751051 -5.91715 -3.04048e-20)
(0.770068 -5.73937 2.55641e-20)
(0.786474 -5.56753 -2.51159e-20)
(0.800776 -5.40201 2.23088e-20)
(0.813489 -5.24264 0)
(0.825371 -5.08863 -1.77024e-20)
(0.836084 -4.93852 1.94484e-20)
(0.825987 -9.37376 -3.04439e-19)
(0.501912 -8.69905 1.18281e-20)
(0.562667 -8.24251 1.83556e-19)
(0.623617 -7.92462 -1.55788e-19)
(0.675461 -7.68187 1.53638e-19)
(0.729423 -7.4741 0)
(0.780983 -7.27999 5.92478e-20)
(0.826865 -7.08915 -5.90286e-20)
(0.866302 -6.89735 -1.02164e-19)
(0.899388 -6.70384 1.28783e-19)
(0.926594 -6.50957 -8.3575e-20)
(0.948613 -6.31624 -3.3957e-20)
(0.96623 -6.12565 6.86314e-20)
(0.980226 -5.93943 0)
(0.991328 -5.75884 0)
(1.00017 -5.58474 9.56355e-20)
(1.00727 -5.41747 -1.62095e-19)
(1.01316 -5.2568 0)
(1.01866 -5.10183 0)
(1.02319 -4.95098 -7.48045e-20)
(1.19498 -9.34845 6.28788e-19)
(0.847772 -8.71098 0)
(0.892878 -8.26963 -3.70439e-19)
(0.942706 -7.96069 -3.35007e-19)
(0.985404 -7.72226 0)
(1.03088 -7.51499 5.32893e-19)
(1.07396 -7.31885 -5.02573e-19)
(1.11114 -7.12449 9.82442e-20)
(1.14162 -6.92846 -2.18666e-19)
(1.16561 -6.7305 -3.62518e-19)
(1.1837 -6.53193 4.93906e-19)
(1.19672 -6.33467 -3.04959e-19)
(1.20556 -6.14062 -1.36369e-19)
(1.21108 -5.95148 0)
(1.21407 -5.76851 5.34228e-21)
(1.2152 -5.59256 1.0085e-19)
(1.21499 -5.42393 4.34509e-20)
(1.21397 -5.26235 0)
(1.21305 -5.10679 7.87146e-20)
(1.2113 -4.95562 8.07776e-20)
(1.5631 -9.30919 -8.49924e-19)
(1.19506 -8.70972 -3.96863e-19)
(1.22575 -8.28386 3.85348e-19)
(1.26515 -7.98393 6.59136e-19)
(1.29898 -7.74981 -3.19656e-19)
(1.33594 -7.54304 5.38304e-21)
(1.37032 -7.34495 2.47003e-19)
(1.39846 -7.14725 2.23277e-19)
(1.41963 -6.94722 4.07966e-19)
(1.43415 -6.74515 0)
(1.44279 -6.54268 1.56285e-19)
(1.44649 -6.3419 -1.66143e-19)
(1.44629 -6.14484 1.01539e-20)
(1.44312 -5.95321 2.60961e-19)
(1.43784 -5.7683 2.23042e-19)
(1.43113 -5.59091 -3.14741e-19)
(1.42351 -5.42133 1.03628e-19)
(1.41555 -5.25923 -1.6832e-19)
(1.4082 -5.10347 1.67494e-19)
(1.40011 -4.95241 -8.08132e-20)
(1.93004 -9.25594 4.2842e-19)
(1.54348 -8.69517 0)
(1.56089 -8.28497 3.77399e-19)
(1.59045 -7.99404 0)
(1.61564 -7.7642 0)
(1.64401 -7.55794 -2.9281e-19)
(1.66946 -7.35799 -5.22525e-19)
(1.68824 -7.15714 -4.41636e-19)
(1.69973 -6.95343 1.8286e-20)
(1.70443 -6.7476 -1.9025e-19)
(1.70328 -6.54164 0)
(1.6974 -6.3378 -1.56585e-19)
(1.68792 -6.13819 -2.81738e-19)
(1.67588 -5.94454 2.47248e-19)
(1.66218 -5.75812 -7.02214e-19)
(1.64753 -5.57972 1.13662e-19)
(1.63245 -5.40961 8.97846e-20)
(1.61753 -5.24739 -1.85201e-19)
(1.60375 -5.09182 -8.08184e-20)
(1.58929 -4.94129 2.41183e-19)
(2.29525 -9.18861 4.12304e-19)
(1.89256 -8.66709 4.07262e-19)
(1.89777 -8.27271 0)
(1.91806 -7.99074 0)
(1.93479 -7.76511 -6.08274e-19)
(1.9545 -7.55939 3.33387e-19)
(1.97076 -7.35771 7.98282e-19)
(1.97984 -7.15395 0)
(1.9813 -6.94687 2.10076e-19)
(1.97584 -6.73771 1.9025e-19)
(1.96461 -6.5287 -3.35193e-19)
(1.94889 -6.32228 4.86005e-19)
(1.92993 -6.12061 1.42352e-19)
(1.90886 -5.92541 0)
(1.88663 -5.73795 1.18181e-19)
(1.86396 -5.55897 5.29558e-19)
(1.84139 -5.38873 -3.15538e-19)
(1.8195 -5.22679 3.53833e-19)
(1.79933 -5.0718 -6.7259e-19)
(1.77852 -4.92226 7.78466e-19)
(2.65821 -9.10719 4.18943e-19)
(2.24177 -8.62532 -2.2159e-18)
(2.23587 -8.24683 0)
(2.2474 -7.97375 0)
(2.25584 -7.75228 0)
(2.26677 -7.54713 -5.88708e-19)
(2.27357 -7.34387 0)
(2.27263 -7.13748 -9.3984e-19)
(2.26372 -6.9274 8.65971e-19)
(2.24779 -6.71533 -8.03089e-19)
(2.22619 -6.50377 0)
(2.2004 -6.29527 0)
(2.17179 -6.09204 0)
(2.14156 -5.89579 -2.69995e-19)
(2.1107 -5.70775 0)
(2.07998 -5.52864 0)
(2.04989 -5.3587 -3.94855e-19)
(2.02106 -5.19743 3.87957e-19)
(1.99457 -5.04341 0)
(1.96744 -4.8953 0)
(3.01837 -9.01169 -1.36307e-18)
(2.59058 -8.56972 8.81528e-19)
(2.57463 -8.20711 0)
(2.57789 -7.94282 0)
(2.57815 -7.72546 0)
(2.58018 -7.52094 5.59661e-19)
(2.57725 -7.31629 -5.60927e-19)
(2.56596 -7.10757 -8.28374e-21)
(2.54635 -6.89489 -8.65955e-19)
(2.51964 -6.68038 8.10387e-19)
(2.48743 -6.46677 -3.64715e-19)
(2.45137 -6.25673 6.33003e-19)
(2.41296 -6.05246 -4.53783e-20)
(2.37346 -5.85566 -5.71767e-19)
(2.33392 -5.66753 -4.8085e-19)
(2.2951 -5.48874 4.72421e-19)
(2.25751 -5.3195 0)
(2.2218 -5.15931 0)
(2.18906 -5.00664 3.40682e-19)
(2.15567 -4.86042 -3.75545e-19)
(3.37518 -8.90215 9.10911e-19)
(2.93843 -8.50016 8.6409e-19)
(2.91346 -8.15337 -1.63616e-18)
(2.9089 -7.89775 7.72016e-19)
(2.90107 -7.68443 0)
(2.89404 -7.48062 5.9873e-19)
(2.88112 -7.2748 -5.24009e-19)
(2.85916 -7.06408 1.47978e-18)
(2.82854 -6.84925 -2.31627e-20)
(2.79078 -6.6328 0)
(2.74774 -6.41768 7.35685e-19)
(2.70124 -6.20663 0)
(2.6529 -6.00187 0)
(2.60406 -5.80505 -2.60998e-19)
(2.5558 -5.6173 5.26812e-19)
(2.50888 -5.43927 0)
(2.4638 -5.27117 4.11998e-19)
(2.42126 -5.11245 1.71125e-19)
(2.38237 -4.96152 -3.71848e-19)
(2.34283 -4.81765 3.61283e-19)
(3.72808 -8.77864 -9.36796e-19)
(3.28473 -8.41656 8.77503e-19)
(3.25175 -8.08545 -2.49626e-18)
(3.23978 -7.83834 7.84229e-19)
(3.22394 -7.62902 0)
(3.20768 -7.42601 -1.20654e-18)
(3.18449 -7.21928 5.79444e-19)
(3.15156 -7.00694 0)
(3.10964 -6.79041 -4.57944e-19)
(3.06059 -6.57255 -7.92688e-19)
(3.00652 -6.35648 -6.8913e-19)
(2.94944 -6.145 5.22801e-20)
(2.89107 -5.94029 6.44246e-19)
(2.83284 -5.74397 2.60795e-19)
(2.77583 -5.55709 -3.68751e-20)
(2.72082 -5.38029 -4.90796e-19)
(2.66829 -5.21374 -2.19195e-19)
(2.61899 -5.05688 -1.97493e-19)
(2.57407 -4.90807 5.26292e-19)
(2.5285 -4.76703 -7.8548e-19)
(4.07652 -8.64126 9.36799e-19)
(3.62891 -8.31885 -4.61637e-20)
(3.58888 -8.00322 8.00925e-19)
(3.56989 -7.76444 0)
(3.54606 -7.55908 -6.60635e-19)
(3.52041 -7.357 1.269e-18)
(3.48667 -7.14963 -1.08124e-18)
(3.44248 -6.93608 1.06401e-18)
(3.38899 -6.71835 -4.29309e-19)
(3.32843 -6.49963 8.724e-19)
(3.26316 -6.28319 3.77037e-19)
(3.19538 -6.07185 0)
(3.12694 -5.86777 0)
(3.05928 -5.67248 -2.70272e-19)
(2.99352 -5.48697 3.72526e-20)
(2.93043 -5.31183 9.65864e-19)
(2.8705 -5.14724 -2.38926e-19)
(2.81452 -4.99263 7.87722e-19)
(2.76368 -4.84633 1.37434e-19)
(2.71223 -4.70858 -8.0213e-19)
(4.41994 -8.49012 -2.87898e-18)
(3.97037 -8.20704 -9.63027e-19)
(3.92422 -7.9066 -2.56486e-18)
(3.89856 -7.67596 -1.55686e-18)
(3.86675 -7.47451 -7.37446e-19)
(3.83152 -7.27351 -7.20554e-19)
(3.78698 -7.06581 -2.34465e-18)
(3.73124 -6.85149 -4.78987e-20)
(3.66595 -6.63308 -1.87749e-18)
(3.59368 -6.41408 2.99503e-20)
(3.51708 -6.19786 -7.77081e-19)
(3.43852 -5.98725 -7.07197e-19)
(3.35994 -5.78435 6.44805e-19)
(3.28285 -5.59062 -5.89042e-19)
(3.20836 -5.40698 -5.39125e-19)
(3.13723 -5.23396 -4.94358e-19)
(3.06994 -5.07174 -1.32612e-18)
(3.00735 -4.91976 4.72099e-19)
(2.95071 -4.77633 1.14389e-18)
(2.89357 -4.64235 -1.21868e-18)
(4.75781 -8.32537 3.87085e-18)
(4.30852 -8.08111 4.74128e-18)
(4.25713 -7.79553 8.12483e-19)
(4.2251 -7.57281 3.88664e-18)
(4.1853 -7.37524 -7.60428e-19)
(4.14031 -7.1755 3.79197e-18)
(4.0847 -6.96781 1.10659e-18)
(4.01717 -6.75317 3.10386e-18)
(3.93985 -6.53464 -9.47844e-19)
(3.85571 -6.31593 2.62034e-18)
(3.76768 -6.10054 1.56499e-18)
(3.67828 -5.89125 1.42442e-18)
(3.58955 -5.69012 -1.92589e-18)
(3.50303 -5.49849 1.80282e-18)
(3.41983 -5.3172 1.08648e-18)
(3.3407 -5.14674 9.96492e-19)
(3.2661 -4.98731 9.1561e-19)
(3.19698 -4.83831 7.01296e-21)
(3.13466 -4.69812 7.76321e-19)
(3.07204 -4.56837 8.08668e-19)
(5.08959 -8.14718 -2.87216e-18)
(4.64279 -7.94113 1.05624e-18)
(4.58699 -7.66999 2.60534e-18)
(4.54884 -7.45494 -3.17004e-18)
(4.50101 -7.26125 7.32461e-19)
(4.44607 -7.06296 -2.53569e-18)
(4.37914 -6.85565 1.24162e-18)
(4.29959 -6.64119 -2.07593e-18)
(4.21006 -6.42309 4.78521e-20)
(4.11392 -6.20528 1.12177e-20)
(4.01437 -5.99131 -1.58612e-18)
(3.9141 -5.78394 -7.17223e-19)
(3.81523 -5.58513 1.31715e-18)
(3.7193 -5.39613 8.28464e-21)
(3.62743 -5.21769 -3.60091e-20)
(3.54032 -5.05024 -1.04043e-18)
(3.45846 -4.89398 -4.61496e-19)
(3.38287 -4.74835 -2.61173e-20)
(3.31497 -4.61176 -8.09294e-19)
(3.2471 -4.48676 -4.08364e-19)
(5.4148 -7.95573 0)
(4.9726 -7.78716 -1.95035e-18)
(4.91315 -7.52999 2.21776e-20)
(4.86909 -7.32237 3.16172e-18)
(4.81318 -7.13255 1.31936e-18)
(4.74808 -6.93593 -1.37458e-18)
(4.66962 -6.7294 -1.18141e-18)
(4.57785 -6.51563 0)
(4.47595 -6.29854 -9.368e-19)
(4.36772 -6.08224 8.93427e-19)
(4.25661 -5.8703 -3.79889e-20)
(4.14547 -5.66542 0)
(4.03646 -5.46948 -6.63013e-19)
(3.93116 -5.28362 5.73113e-19)
(3.83064 -5.10849 4.77915e-19)
(3.73558 -4.94447 -5.78367e-19)
(3.64646 -4.79176 -5.01085e-19)
(3.56438 -4.64984 8.69067e-19)
(3.49092 -4.51723 -8.01671e-19)
(3.41793 -4.39757 4.22327e-19)
(5.73297 -7.75122 2.96323e-18)
(5.29739 -7.61928 -2.00777e-18)
(5.23495 -7.37555 -1.70817e-18)
(5.18517 -7.17511 7.93541e-19)
(5.12109 -6.98919 -1.5399e-18)
(5.04566 -6.79451 0)
(4.95546 -6.58917 0)
(4.85128 -6.37662 0)
(4.7369 -6.16113 -4.32957e-20)
(4.61652 -5.94694 -1.79267e-18)
(4.49385 -5.73762 8.46084e-19)
(4.37186 -5.53581 7.13911e-19)
(4.25278 -5.34327 6.028e-19)
(4.13816 -5.16103 -2.47548e-18)
(4.02902 -4.98965 1.17303e-18)
(3.92601 -4.82945 0)
(3.82958 -4.68063 -2.93048e-20)
(3.74092 -4.54273 -1.34819e-18)
(3.66175 -4.41445 -5.46004e-21)
(3.58363 -4.30046 -4.22759e-19)
(6.04374 -7.53392 -2.01624e-18)
(5.61662 -7.43762 -1.05814e-18)
(5.55175 -7.20676 7.92805e-19)
(5.49638 -7.01325 -1.42696e-19)
(5.42405 -6.83126 -4.48297e-18)
(5.33809 -6.63879 4.05042e-18)
(5.23596 -6.43511 -4.83474e-20)
(5.11925 -6.22432 1.10588e-18)
(4.99232 -6.01102 9.91111e-19)
(4.85978 -5.79954 9.08671e-19)
(4.72558 -5.59342 8.25902e-19)
(4.59281 -5.39522 1.47406e-18)
(4.46373 -5.20659 -7.09334e-19)
(4.33985 -5.02844 1.83549e-18)
(4.22217 -4.86124 -1.18646e-18)
(4.11125 -4.70524 -4.89958e-19)
(4.0075 -4.56069 1.96828e-18)
(3.91216 -4.42712 1.314e-18)
(3.82716 -4.3033 -2.68571e-20)
(3.74414 -4.19478 0)
(6.34711 -7.30433 -1.02448e-18)
(5.92991 -7.24239 2.02081e-18)
(5.8629 -7.02367 1.76376e-18)
(5.80199 -6.83683 -1.44542e-19)
(5.72131 -6.65887 -1.5205e-18)
(5.62466 -6.46893 6.93089e-20)
(5.51046 -6.26738 1.23621e-20)
(5.38113 -6.05893 1.10304e-20)
(5.24163 -5.84842 0)
(5.09696 -5.64025 8.87989e-19)
(4.9513 -5.43789 -1.69002e-18)
(4.80784 -5.2438 -7.21905e-19)
(4.66884 -5.05951 7.16579e-19)
(4.53578 -4.88586 -6.27886e-19)
(4.40958 -4.72323 5.81049e-19)
(4.29074 -4.57186 -5.28596e-19)
(4.17966 -4.43198 4.70749e-21)
(4.0777 -4.30303 -4.48589e-19)
(3.98712 -4.18371 -4.1423e-19)
(3.89994 -4.08132 -4.14866e-19)
(6.64341 -7.06293 0)
(6.23703 -7.03351 -9.83756e-19)
(6.16777 -6.82621 9.72467e-19)
(6.10128 -6.64594 1.69153e-18)
(6.01216 -6.47218 -1.5281e-18)
(5.90469 -6.28517 1.31725e-18)
(5.7783 -6.08626 -2.53198e-18)
(5.63631 -5.88074 -2.2443e-18)
(5.48428 -5.67362 -9.77207e-19)
(5.32759 -5.46932 4.32325e-20)
(5.17061 -5.27123 -8.07341e-19)
(5.01661 -5.08169 3.38863e-20)
(4.86779 -4.90212 0)
(4.72557 -4.73324 -1.23113e-18)
(4.59072 -4.57539 6.28515e-19)
(4.46363 -4.42885 0)
(4.34477 -4.29376 -4.91252e-19)
(4.23567 -4.16935 -8.8269e-19)
(4.1386 -4.05521 8.67331e-19)
(4.04628 -3.96338 4.28321e-19)
(6.93226 -6.80892 0)
(6.53736 -6.81026 0)
(6.46566 -6.61431 -1.79988e-18)
(6.3935 -6.44086 -1.54344e-18)
(6.29592 -6.27159 3.13448e-18)
(6.17755 -6.08792 0)
(6.03894 -5.8922 0)
(5.88432 -5.69018 1.12738e-18)
(5.71986 -5.48705 0)
(5.55132 -5.28717 0)
(5.38326 -5.09384 0)
(5.21896 -4.90923 0)
(5.06058 -4.73461 0)
(4.90936 -4.57059 0)
(4.76585 -4.41743 0)
(4.63019 -4.27532 0)
(4.50263 -4.14417 0)
(4.38425 -4.02336 0)
(4.27523 -3.9158 0)
(4.16975 -3.83803 0)
(10.0232 0.0875726 1.43229e-19)
(10.0035 -0.307044 2.78514e-19)
(9.9685 -0.69905 -2.86222e-19)
(9.91884 -1.0883 5.70721e-19)
(9.85422 -1.47446 -5.7072e-19)
(9.7745 -1.85703 -5.38701e-19)
(9.67979 -2.23546 -5.37244e-19)
(9.57029 -2.60923 1.69433e-18)
(9.44624 -2.97777 -1.12887e-18)
(9.30789 -3.34053 1.11971e-18)
(9.15551 -3.69698 -1.11971e-18)
(8.9894 -4.04657 1.11171e-18)
(8.8099 -4.3888 -2.20523e-18)
(8.61735 -4.72315 3.24627e-18)
(8.41211 -5.04916 0)
(8.19457 -5.36635 -3.19131e-18)
(7.96512 -5.67432 1.53294e-20)
(7.72427 -5.97271 3.21862e-18)
(7.47213 -6.26136 0)
(7.21036 -6.53959 0)
(10.0657 -0.211202 0)
(10.0257 -0.605288 -1.49033e-20)
(9.96917 -0.995685 0)
(9.89662 -1.38206 5.44248e-19)
(9.80832 -1.76399 5.67264e-19)
(9.70446 -2.14089 -1.64063e-18)
(9.58532 -2.51214 2.85958e-18)
(9.45125 -2.87711 -1.12856e-18)
(9.30261 -3.23522 -1.07505e-18)
(9.13978 -3.58589 -1.07079e-18)
(8.96316 -3.92855 4.42324e-20)
(8.77319 -4.26266 1.09862e-18)
(8.57031 -4.5877 -5.46026e-18)
(8.35499 -4.90318 -1.1476e-18)
(8.12772 -5.20864 2.18283e-18)
(7.88901 -5.50366 2.18141e-18)
(7.6393 -5.78785 1.1094e-18)
(7.37916 -6.06087 -2.13719e-18)
(7.1087 -6.32248 1.01161e-18)
(6.82883 -6.57233 0)
(9.99192 -0.150756 1.28424e-19)
(9.95542 -0.539503 -2.63109e-19)
(9.90173 -0.925185 7.59315e-19)
(9.83124 -1.30712 -5.3852e-19)
(9.74433 -1.68466 -5.1304e-19)
(9.64135 -2.05713 5.36159e-19)
(9.52266 -2.42379 0)
(9.38864 -2.78399 0)
(9.23971 -3.13705 2.03474e-18)
(9.0763 -3.48235 3.03573e-18)
(8.89888 -3.81928 -9.59177e-19)
(8.70791 -4.14726 3.00239e-18)
(8.50392 -4.46572 -9.55246e-19)
(8.28742 -4.77416 -2.9247e-18)
(8.05895 -5.07207 1.27995e-20)
(7.81905 -5.35899 1.8765e-18)
(7.56826 -5.63449 -8.4557e-19)
(7.30714 -5.89818 -1.84744e-18)
(7.03602 -6.14968 -1e-18)
(6.75561 -6.38848 1.81667e-18)
(9.80901 -0.115028 0)
(9.77898 -0.493971 2.21266e-19)
(9.73189 -0.870662 2.20314e-19)
(9.66794 -1.24421 -9.05605e-19)
(9.58746 -1.61383 0)
(9.49078 -1.97877 0)
(9.37823 -2.33827 0)
(9.2502 -2.69162 0)
(9.10708 -3.0381 -9.59637e-19)
(8.9493 -3.37704 -9.56088e-19)
(8.77733 -3.70779 0)
(8.59165 -4.02973 1.80669e-18)
(8.39279 -4.34226 -4.4666e-18)
(8.18127 -4.6448 3.59263e-18)
(7.95765 -4.93683 -3.48165e-18)
(7.7225 -5.21782 -8.44976e-19)
(7.47637 -5.48731 1.54382e-19)
(7.21987 -5.74483 1.52897e-19)
(6.95348 -5.98992 -1.7229e-18)
(6.67792 -6.22211 -7.06027e-20)
(9.54579 -0.101857 0)
(9.52277 -0.468273 -2.18218e-19)
(9.48314 -0.833061 0)
(9.42699 -1.19533 4.3656e-19)
(9.35456 -1.55426 4.15872e-19)
(9.26611 -1.90907 3.79736e-19)
(9.16196 -2.25901 0)
(9.04242 -2.60333 0)
(8.90786 -2.94131 0)
(8.75869 -3.27224 0)
(8.59534 -3.59546 7.85143e-19)
(8.41828 -3.9103 8.47104e-19)
(8.22799 -4.21613 8.42643e-19)
(8.025 -4.51237 -8.55213e-19)
(7.80986 -4.79842 -1.46876e-18)
(7.58312 -5.07375 1.67175e-18)
(7.34536 -5.33783 3.24068e-18)
(7.09718 -5.59015 1.57632e-18)
(6.83913 -5.83021 0)
(6.5719 -6.05754 -1.48479e-18)
(9.23299 -0.0930256 4.4741e-20)
(9.21658 -0.445133 0)
(9.18419 -0.796154 -7.33375e-19)
(9.13585 -1.14525 1.64961e-23)
(9.07171 -1.49161 1.57943e-20)
(8.99199 -1.83447 -6.70066e-20)
(8.89695 -2.17307 0)
(8.78687 -2.50667 3.02532e-20)
(8.66207 -2.83456 -7.44785e-19)
(8.52291 -3.15602 1.45082e-18)
(8.36977 -3.47038 -1.51386e-18)
(8.20309 -3.77696 8.28287e-19)
(8.02333 -4.07513 -4.33363e-18)
(7.83097 -4.36428 2.85822e-18)
(7.62653 -4.6438 1.51692e-18)
(7.41055 -4.91313 0)
(7.18358 -5.1717 -2.79795e-18)
(6.94622 -5.41898 -6.06864e-20)
(6.69903 -5.65445 -2.75644e-18)
(6.44264 -5.87761 2.86741e-18)
(8.89731 -0.0879591 4.01841e-20)
(8.88627 -0.42502 -8.42381e-20)
(8.85999 -0.76144 6.90874e-19)
(8.81845 -1.09644 -1.37255e-20)
(8.76175 -1.42923 6.90734e-19)
(8.69006 -1.75908 -1.0434e-18)
(8.6036 -2.08524 0)
(8.5026 -2.40702 7.03568e-19)
(8.38734 -2.72369 6.43468e-19)
(8.25813 -3.03456 -6.99693e-19)
(8.11532 -3.33898 1.2787e-18)
(7.9593 -3.63627 2.71352e-18)
(7.79049 -3.92581 -1.26069e-18)
(7.60933 -4.20697 -1.36867e-18)
(7.41631 -4.47917 1.3116e-18)
(7.21194 -4.7418 0)
(6.99674 -4.9943 6.346e-20)
(6.77128 -5.23612 9.25135e-21)
(6.53612 -5.46674 2.60948e-18)
(6.29182 -5.68559 1.21221e-18)
(8.55859 -0.086376 0)
(8.55145 -0.408467 6.09162e-21)
(8.52983 -0.730247 -1.40243e-19)
(8.4937 -1.05098 -6.23637e-19)
(8.44311 -1.36994 5.85745e-19)
(8.3782 -1.68642 0)
(8.29916 -1.9997 1.19252e-18)
(8.20617 -2.30911 -1.29712e-21)
(8.09949 -2.61398 -1.82193e-18)
(7.97937 -2.91363 0)
(7.84614 -3.20742 -1.25835e-18)
(7.70014 -3.49471 4.4906e-20)
(7.54175 -3.77489 -3.5349e-18)
(7.37139 -4.04736 6.13907e-21)
(7.1895 -4.31151 1.18511e-18)
(6.99656 -4.56677 0)
(6.79308 -4.81257 -1.16356e-18)
(6.57957 -5.04835 8.22213e-21)
(6.35658 -5.27358 1.15534e-18)
(6.12465 -5.48768 -1.19291e-18)
(8.22983 -0.086989 0)
(8.22525 -0.394687 1.43866e-19)
(8.20692 -0.702299 2.98601e-19)
(8.17482 -1.00914 -5.52193e-19)
(8.12899 -1.31452 -2.40772e-20)
(8.06953 -1.61777 -2.75969e-19)
(7.99659 -1.91823 -1.10481e-18)
(7.91034 -2.21525 5.49247e-19)
(7.811 -2.50818 2.32143e-20)
(7.6988 -2.79641 5.45988e-19)
(7.57402 -3.0793 5.02143e-19)
(7.43698 -3.35626 2.17698e-18)
(7.28803 -3.6267 1.08902e-18)
(7.12755 -3.89002 2.15085e-18)
(6.95596 -4.14567 -1.07264e-18)
(6.77371 -4.39307 3.77523e-20)
(6.58128 -4.63168 -1.06013e-18)
(6.37917 -4.86092 0)
(6.16789 -5.08027 1.00181e-18)
(5.94794 -5.28914 0)
(7.91851 -0.0887344 6.25435e-20)
(7.91538 -0.382892 -1.83121e-19)
(7.89923 -0.677101 5.02429e-19)
(7.86999 -0.970722 -2.50634e-19)
(7.82771 -1.26311 1.84293e-20)
(7.77247 -1.55363 -2.50486e-19)
(7.70441 -1.84167 5.2101e-19)
(7.62367 -2.1266 -4.98388e-19)
(7.53043 -2.40784 4.98386e-19)
(7.42493 -2.68478 9.55487e-19)
(7.3074 -2.95684 -1.03059e-18)
(7.17815 -3.22345 -4.3841e-20)
(7.03749 -3.48405 -2.98229e-18)
(6.88579 -3.73809 5.12317e-21)
(6.72343 -3.98504 3.90942e-20)
(6.55085 -4.22434 1.9334e-18)
(6.36852 -4.45546 -9.55068e-19)
(6.1769 -4.67786 -9.09375e-19)
(5.97651 -4.89099 -3.6615e-20)
(5.76781 -5.09426 0)
(7.62807 -0.0909038 0)
(7.6256 -0.372487 2.32527e-19)
(7.61074 -0.654197 -7.99355e-19)
(7.58345 -0.935432 -2.11906e-19)
(7.54375 -1.21559 4.74481e-19)
(7.49173 -1.49407 0)
(7.4275 -1.77029 0)
(7.35119 -2.04368 4.53325e-19)
(7.26297 -2.31367 -4.53323e-19)
(7.16305 -2.5797 3.81121e-19)
(7.05165 -2.84123 -4.50408e-19)
(6.92905 -3.09771 8.93221e-19)
(6.79556 -3.34864 -1.78204e-18)
(6.6515 -3.59349 1.77287e-18)
(6.49726 -3.83176 3.37385e-20)
(6.33327 -4.06293 -9.1234e-19)
(6.15996 -4.2865 -8.67776e-19)
(5.97782 -4.50193 1.76821e-18)
(5.78735 -4.70869 8.27211e-19)
(5.58899 -4.90617 0)
(7.35933 -0.0930409 1.81527e-21)
(7.35695 -0.363028 1.5249e-19)
(7.34278 -0.633171 3.20304e-19)
(7.31676 -0.902904 2.24305e-19)
(7.27892 -1.17166 2.07915e-19)
(7.22933 -1.43887 1.93285e-19)
(7.1681 -1.70399 0)
(7.09535 -1.96649 -7.99006e-19)
(7.01124 -2.22582 -4.12015e-19)
(6.91595 -2.48146 3.50889e-19)
(6.80971 -2.7329 0)
(6.69277 -2.97965 8.13775e-19)
(6.56541 -3.22123 -2.40652e-18)
(6.42797 -3.45714 8.09613e-19)
(6.2808 -3.68693 0)
(6.12433 -3.91014 -7.69523e-19)
(5.959 -4.12626 -1.55455e-18)
(5.7853 -4.3348 7.64782e-19)
(5.60376 -4.53521 -2.84227e-20)
(5.4148 -4.72688 0)
(7.1115 -0.0948593 3.34679e-21)
(7.10888 -0.354182 -9.86784e-20)
(7.09498 -0.613658 1.90364e-19)
(7.06977 -0.872755 -1.26615e-20)
(7.03326 -1.13093 3.80387e-19)
(6.98553 -1.38767 -5.84328e-19)
(6.92667 -1.64243 0)
(6.8568 -1.89472 5.41354e-20)
(6.77608 -2.14404 0)
(6.68467 -2.38988 -7.8006e-19)
(6.58278 -2.63178 0)
(6.47066 -2.86927 -7.19432e-19)
(6.34857 -3.10191 2.22423e-18)
(6.21684 -3.32926 -1.47381e-18)
(6.07581 -3.5509 7.34782e-19)
(5.9259 -3.7664 -6.49373e-19)
(5.76759 -3.97531 7.51224e-19)
(5.60135 -4.17719 -7.46093e-19)
(5.4278 -4.37145 0)
(5.24735 -4.55748 0)
(6.88296 -0.0962271 4.51286e-20)
(6.87991 -0.345726 0)
(6.86603 -0.595364 0)
(6.84131 -0.844633 -3.61567e-19)
(6.80577 -1.09302 -3.37302e-19)
(6.75949 -1.34003 0)
(6.70255 -1.58516 0)
(6.63507 -1.82794 4.80636e-20)
(6.55718 -2.06788 6.67899e-19)
(6.46906 -2.30454 -3.22027e-19)
(6.3709 -2.53746 -3.43227e-19)
(6.26292 -2.76621 1.38664e-18)
(6.14539 -2.99039 -2.0589e-18)
(6.01861 -3.20961 1.32738e-18)
(5.88294 -3.42348 0)
(5.73876 -3.63165 2.66698e-18)
(5.58659 -3.83368 -1.93584e-18)
(5.42693 -4.02924 6.58674e-19)
(5.2605 -4.21766 1.25925e-18)
(5.08772 -4.3984 0)
(6.67174 -0.0970765 -3.87711e-20)
(6.66814 -0.337503 0)
(6.65413 -0.578049 -5.01463e-21)
(6.62972 -0.818226 -3.1026e-19)
(6.59493 -1.05755 9.61517e-19)
(6.54982 -1.29553 -1.59939e-19)
(6.49448 -1.53171 0)
(6.42903 -1.76563 1.27405e-18)
(6.35358 -1.99684 -6.56203e-19)
(6.26831 -2.2249 4.2803e-20)
(6.17339 -2.44941 6.07889e-19)
(6.06904 -2.66995 6.2314e-19)
(5.95551 -2.88617 -1.24262e-18)
(5.83307 -3.09771 -1.21532e-18)
(5.70208 -3.30422 -1.18687e-18)
(5.56293 -3.50546 -1.26346e-18)
(5.41615 -3.701 1.2548e-18)
(5.26225 -3.89069 -5.98787e-19)
(5.10219 -4.07371 -6.38411e-19)
(4.93628 -4.24973 0)
(6.47574 -0.0973893 3.80916e-20)
(6.47155 -0.329411 -1.43002e-19)
(6.45736 -0.561525 -1.48054e-19)
(6.43316 -0.793261 4.43291e-19)
(6.39897 -1.02416 -1.57452e-19)
(6.35487 -1.25375 -1.47138e-19)
(6.30093 -1.4816 0)
(6.23726 -1.70727 -6.04821e-19)
(6.16398 -1.93033 0)
(6.08124 -2.15038 6.00097e-19)
(5.98922 -2.36701 -1.15622e-18)
(5.88812 -2.57987 5.7228e-19)
(5.77816 -2.78861 -1.14101e-18)
(5.6596 -2.99294 1.17761e-18)
(5.53278 -3.19254 6.41132e-19)
(5.39806 -3.38727 0)
(5.25603 -3.57672 -5.52982e-19)
(5.10714 -3.76105 5.52982e-19)
(4.95276 -3.93915 0)
(4.7929 -4.11132 0)
(6.29296 -0.0972369 0)
(6.28821 -0.321423 1.40498e-19)
(6.27382 -0.545668 4.52767e-21)
(6.24979 -0.769525 -1.44866e-19)
(6.21616 -0.992552 -1.27742e-19)
(6.17298 -1.21431 -1.35606e-19)
(6.12033 -1.43438 5.24101e-19)
(6.05831 -1.65234 0)
(5.98704 -1.86779 0)
(5.90666 -2.08033 2.66294e-19)
(5.81733 -2.2896 2.82906e-19)
(5.71923 -2.49526 1.02371e-18)
(5.61258 -2.69699 -5.23014e-19)
(5.49759 -2.89454 5.23012e-19)
(5.37458 -3.08764 5.55291e-19)
(5.24386 -3.27627 3.24958e-20)
(5.10605 -3.46003 -1.01938e-18)
(4.96152 -3.63957 3.6896e-21)
(4.81224 -3.81318 5.04063e-19)
(4.65751 -3.9827 0)
(6.12158 -0.0966314 -3.14039e-20)
(6.11633 -0.31351 3.14035e-20)
(6.10179 -0.530421 0)
(6.07797 -0.746933 1.18304e-19)
(6.04488 -0.962622 3.84184e-19)
(6.00261 -1.17707 -4.85592e-19)
(5.95121 -1.38988 -5.14946e-19)
(5.8908 -1.60063 0)
(5.82148 -1.80897 0)
(5.74339 -2.0145 0)
(5.65666 -2.21689 -9.50453e-19)
(5.56147 -2.41582 -6.13011e-20)
(5.458 -2.61099 -4.81781e-19)
(5.34644 -2.80219 2.88272e-20)
(5.22706 -2.98919 -9.52631e-19)
(5.10007 -3.1721 1.45172e-18)
(4.96612 -3.35056 -1.37529e-18)
(4.82534 -3.52592 4.66822e-19)
(4.68066 -3.69556 8.94654e-19)
(4.52974 -3.86393 0)
(5.95999 -0.0952336 2.8224e-20)
(5.95434 -0.305479 0)
(5.93972 -0.51575 -1.16173e-19)
(5.91615 -0.725621 -2.3935e-19)
(5.88365 -0.934686 1.16023e-19)
(5.84229 -1.14255 9.26451e-19)
(5.79214 -1.34882 0)
(5.73329 -1.55312 -4.46194e-19)
(5.66585 -1.75509 -2.28156e-19)
(5.58993 -1.95437 -4.28715e-19)
(5.50569 -2.15064 -1.71654e-19)
(5.41324 -2.3436 -1.35297e-18)
(5.31276 -2.53298 -8.92911e-19)
(5.20438 -2.71857 9.18426e-19)
(5.08832 -2.9002 8.7901e-19)
(4.96462 -3.07804 -3.77202e-21)
(4.834 -3.25185 2.86006e-20)
(4.69585 -3.42384 4.3016e-19)
(4.55474 -3.59077 -8.79087e-19)
(4.40469 -3.76152 0)
(5.80665 -0.0935498 -5.90293e-20)
(5.80072 -0.297454 2.90622e-20)
(5.78618 -0.501451 -1.16104e-19)
(5.76301 -0.705158 1.16053e-19)
(5.73122 -0.908194 -3.33864e-19)
(5.69087 -1.11018 -1.03927e-18)
(5.64202 -1.31075 0)
(5.58474 -1.50953 4.7219e-19)
(5.51913 -1.70619 -4.41627e-19)
(5.44527 -1.90039 9.34798e-19)
(5.36328 -2.09181 9.29171e-19)
(5.27326 -2.28017 1.36886e-18)
(5.17534 -2.46519 -8.88231e-19)
(5.06956 -2.64668 4.4241e-19)
(4.95615 -2.82447 -4.34979e-19)
(4.83478 -2.99872 4.35004e-19)
(4.70641 -3.16926 0)
(4.56871 -3.33886 3.93838e-19)
(4.42976 -3.50409 -3.85216e-19)
(4.27601 -3.68495 0)
(7.11958 7.24135 0)
(7.39881 6.95243 0)
(7.6652 6.65397 1.059e-18)
(7.91949 6.34649 1.91541e-20)
(8.16107 6.02969 -1.12156e-18)
(8.38931 5.70363 0)
(8.60379 5.36869 1.15637e-18)
(8.80418 5.02542 -2.17966e-18)
(8.99017 4.67437 -1.10124e-18)
(9.16146 4.31615 -1.11129e-18)
(9.31778 3.9514 1.11128e-18)
(9.45891 3.58075 -1.12277e-18)
(9.58466 3.20487 5.60093e-19)
(9.69485 2.82446 5.33837e-19)
(9.78932 2.4402 5.35886e-19)
(9.86798 2.05275 -5.69365e-19)
(9.93079 1.66276 5.69365e-19)
(9.97783 1.27092 -2.85814e-19)
(10.0091 0.877624 -1.35597e-19)
(10.025 0.484224 7.15079e-20)
(7.37066 7.02554 0)
(7.64889 6.7376 -9.67909e-19)
(7.91344 6.43824 -2.06982e-18)
(8.16462 6.12815 3.06002e-18)
(8.40222 5.80762 -2.12252e-18)
(8.62572 5.47709 2.13143e-18)
(8.83465 5.13716 1.15973e-18)
(9.02861 4.78846 -3.28798e-18)
(9.20721 4.43169 1.07547e-18)
(9.37009 4.06754 2.1364e-18)
(9.51694 3.69673 1.05199e-18)
(9.64751 3.32 1.05851e-18)
(9.76161 2.93812 -1.11761e-18)
(9.85907 2.55187 1.6448e-18)
(9.93969 2.16196 -2.28378e-18)
(10.0033 1.76922 5.63485e-19)
(10.0498 1.37444 -5.41034e-19)
(10.0794 0.978462 0)
(10.092 0.581797 1.50075e-20)
(10.0878 0.185413 0)
(7.21387 6.88886 -1.70249e-18)
(7.49409 6.61835 9.56835e-19)
(7.76187 6.33519 1.74724e-18)
(8.01679 6.04004 7.89374e-19)
(8.25845 5.73348 1.98225e-18)
(8.48633 5.41609 1.8972e-20)
(8.69992 5.08853 -9.93337e-19)
(8.89874 4.75149 -2.95802e-18)
(9.08236 4.40566 2.91929e-18)
(9.25035 4.05176 -2.99694e-18)
(9.40231 3.6905 -9.98188e-19)
(9.53796 3.32265 -1.99673e-18)
(9.65701 2.94901 0)
(9.75919 2.57036 0)
(9.84435 2.1875 0)
(9.91239 1.80132 -5.08698e-19)
(9.96317 1.41267 5.33223e-19)
(9.99661 1.02239 5.10312e-19)
(10.0126 0.631181 6.1834e-21)
(10.0111 0.239991 1.28159e-19)
(6.9803 6.63294 1.7688e-18)
(7.25672 6.38086 -1.60428e-18)
(7.52189 6.1159 -1.66587e-19)
(7.77513 5.83859 -1.67489e-19)
(8.01587 5.54952 4.16571e-18)
(8.24359 5.24927 -7.02193e-20)
(8.45775 4.93845 3.34515e-21)
(8.65782 4.61772 -2.63342e-18)
(8.84333 4.28773 1.737e-18)
(9.01382 3.94915 0)
(9.16882 3.60274 9.31923e-19)
(9.30797 3.24934 9.38246e-19)
(9.43101 2.88969 0)
(9.53763 2.52457 0)
(9.62758 2.15484 0)
(9.7007 1.78129 0)
(9.75682 1.40471 -2.12468e-20)
(9.7958 1.02595 4.5885e-19)
(9.81753 0.645805 -2.20193e-19)
(9.82197 0.265194 0)
(6.71504 6.31863 1.49551e-18)
(6.98337 6.08412 0)
(7.24155 5.83692 -4.39728e-18)
(7.48881 5.57747 -1.49841e-18)
(7.72451 5.30629 -1.57531e-18)
(7.94809 5.02391 -1.67018e-18)
(8.15901 4.7309 7.88941e-19)
(8.35673 4.42786 -8.2831e-19)
(8.54073 4.1154 2.29852e-18)
(8.71055 3.7942 -7.52009e-19)
(8.86582 3.46499 0)
(9.00605 3.12852 0)
(9.13085 2.78544 0)
(9.23994 2.43653 0)
(9.33308 2.08258 -1.18709e-18)
(9.41 1.7244 4.08329e-19)
(9.47052 1.36277 -4.31578e-19)
(9.51447 0.998483 0)
(9.54173 0.632371 2.1716e-19)
(9.55219 0.265304 0)
(6.43892 5.99339 1.27648e-18)
(6.69697 5.77479 -4.74135e-20)
(6.94578 5.54393 2.68463e-18)
(7.18459 5.30115 1.34048e-18)
(7.41276 5.04691 0)
(7.6297 4.78171 -1.42379e-18)
(7.83489 4.50606 6.68309e-20)
(8.02778 4.22052 -1.44466e-18)
(8.20787 3.92565 1.99596e-18)
(8.37468 3.62211 3.21431e-20)
(8.52782 3.3105 2.75784e-20)
(8.66684 2.99145 -7.20031e-19)
(8.79132 2.66566 1.4117e-18)
(8.90098 2.33388 0)
(8.99555 1.9968 6.7033e-20)
(9.07474 1.65523 7.2052e-19)
(9.13827 1.30994 1.55679e-21)
(9.18598 0.961665 -1.50071e-20)
(9.21776 0.611201 0)
(9.23344 0.259359 -4.46493e-20)
(6.17185 5.67828 0)
(6.41861 5.47353 -4.82753e-20)
(6.65687 5.25706 1.66632e-20)
(6.8859 5.02913 -2.4232e-18)
(7.10507 4.79017 0)
(7.31383 4.54061 1.22441e-18)
(7.51165 4.28092 1.30472e-18)
(7.69802 4.01162 -3.79429e-18)
(7.87244 3.73323 -6.66052e-20)
(8.03446 3.4463 -1.21702e-18)
(8.18366 3.15144 6.70839e-19)
(8.31962 2.84923 -6.18868e-19)
(8.44195 2.54033 -6.81072e-19)
(8.55029 2.22542 0)
(8.64441 1.9052 3.59469e-19)
(8.72412 1.58026 -1.64932e-20)
(8.78901 1.25144 -3.33245e-19)
(8.83889 0.91947 -1.63602e-20)
(8.87366 0.58507 -8.38794e-20)
(8.89314 0.248994 1.68123e-19)
(5.92436 5.38412 0)
(6.15961 5.19121 1.04632e-18)
(6.38695 4.98712 1.53565e-20)
(6.60568 4.77212 -1.06164e-18)
(6.81522 4.54656 0)
(7.01503 4.31084 1.10386e-18)
(7.2046 4.0654 -1.05339e-18)
(7.38345 3.81068 -1.16708e-18)
(7.55112 3.54719 2.21792e-18)
(7.70716 3.27544 1.19767e-18)
(7.85117 2.99597 0)
(7.98276 2.70936 5.83781e-19)
(8.10156 2.41621 -4.17772e-21)
(8.20725 2.11716 2.13636e-20)
(8.29943 1.81286 0)
(8.37797 1.50391 -5.74069e-19)
(8.44272 1.19092 -3.00886e-19)
(8.49328 0.874694 4.39468e-19)
(8.52953 0.555933 2.96315e-19)
(8.5513 0.235329 -3.96381e-20)
(5.69992 5.11559 0)
(5.92399 4.93273 -9.02008e-19)
(6.14061 4.73926 0)
(6.34912 4.53541 -9.73316e-19)
(6.54897 4.32151 1.91563e-18)
(6.73965 4.0979 -1.95319e-18)
(6.92069 3.86499 3.05756e-18)
(7.09162 3.62319 -3.04791e-18)
(7.25203 3.37298 -2.05905e-18)
(7.40149 3.11482 -1.51788e-18)
(7.53962 2.84924 5.2067e-19)
(7.66604 2.57677 -1.07962e-18)
(7.78043 2.29797 1.81999e-20)
(7.88245 2.01343 1.07283e-18)
(7.97182 1.72373 -2.6986e-19)
(8.04818 1.42958 1.10577e-18)
(8.11145 1.13146 -5.43681e-19)
(8.16148 0.830043 2.5021e-19)
(8.19797 0.526053 -1.42924e-19)
(8.22075 0.220145 0)
(5.49836 4.87315 0)
(5.71188 4.69886 1.74435e-18)
(5.91831 4.51453 8.45118e-19)
(6.11703 4.32034 -8.7049e-19)
(6.3075 4.11658 -1.78293e-18)
(6.48926 3.90356 2.71262e-18)
(6.66187 3.68166 1.0753e-20)
(6.82491 3.45127 -8.8341e-19)
(6.97797 3.21281 1.8982e-18)
(7.12068 2.96675 9.80529e-19)
(7.25266 2.71358 -9.15066e-19)
(7.37357 2.4538 4.80676e-19)
(7.48308 2.18794 2.19046e-20)
(7.5809 1.91655 -5.06021e-19)
(7.66676 1.64019 -2.45063e-19)
(7.74036 1.35944 4.91376e-19)
(7.80149 1.07497 -2.46313e-19)
(7.85004 0.787257 -4.97061e-19)
(7.88585 0.496976 5.75441e-20)