/*--------------------------------*- C++ -*----------------------------------*\
| =========                 |                                                 |
| \\      /  F ield         | OpenFOAM: The Open Source CFD Toolbox           |
|  \\    /   O peration     | Version:  v1912                                 |
|   \\  /    A nd           | Website:  www.openfoam.com                      |
|    \\/     M anipulation  |                                                 |
\*---------------------------------------------------------------------------*/
FoamFile
{
    version     2.0;
    format      ascii;
    class       surfaceScalarField;
    location    "15";
    object      phi;
}
// * * * * * * * * * * * * * * * * * * * * * * * * * * * * * * * * * * * * * //

dimensions      [0 3 -1 0 0 0 0];
oriented        oriented;


internalField   nonuniform List<scalar> 
4670
(
-0.000189308
-0.0216762
0.0218655
-0.000518639
-0.0168123
0.0171416
-0.000864487
-0.0131833
0.0135291
-0.00115719
-0.010486
0.0107787
-0.00136193
-0.00847429
0.00867903
-0.00146772
-0.00695697
0.00706276
-0.00148024
-0.00578949
0.00580201
-0.00141725
-0.00486453
0.00480154
-0.00130532
-0.00410357
0.00399164
-0.00345056
0.0033217
-0.00117645
-0.000174791
-0.0215014
-0.000454218
-0.0165328
-0.000709186
-0.0129283
-0.000868929
-0.0103263
-0.000899232
-0.00844399
-0.000790036
-0.00706617
-0.000548208
-0.00603132
-0.000193599
-0.00521914
0.000242279
-0.00453944
-0.00392567
0.00071739
-0.000151936
-0.0213495
-0.000353685
-0.0163311
-0.000476385
-0.0128056
-0.000450375
-0.0103523
-0.00024269
-0.00865167
0.000156355
-0.00746521
0.000740159
-0.00661512
0.00148849
-0.00596748
0.00236787
-0.00541882
-0.00488982
0.00333201
-0.000119295
-0.0212302
-0.000215934
-0.0162344
-0.000166703
-0.0128549
9.47154e-05
-0.0106137
0.000597773
-0.00915473
0.00135136
-0.0082188
0.00235022
-0.00761397
0.00357611
-0.00719337
0.00499519
-0.0068379
-0.00644787
0.00655324
-7.44005e-05
-0.0211558
-4.0668e-05
-0.0162682
0.000222759
-0.0131183
0.000768158
-0.0111591
0.00161932
-0.0100059
0.00278265
-0.00938212
0.00425399
-0.00908531
0.00601922
-0.00895861
0.0080484
-0.00886707
-0.0086839
0.0102844
-1.04276e-05
-0.0211454
0.000183946
-0.0164626
0.000700374
-0.0136347
0.00157853
-0.0120372
0.00282908
-0.0112565
0.00445092
-0.011004
0.00643813
-0.0110725
0.00878116
-0.0113016
0.0114593
-0.0115452
-0.0116445
0.0144199
6.04585e-05
-0.0212058
0.000454753
-0.0168569
0.00127338
-0.0144533
0.00253771
-0.0133016
0.0042416
-0.0129603
0.0063698
-0.0131322
0.00890752
-0.0136102
0.0118452
-0.0142393
0.0151748
-0.0148747
-0.0153301
0.0188604
0.000146493
-0.0213523
0.000777651
-0.017488
0.00194751
-0.0156232
0.00365417
-0.0150082
0.00586949
-0.0151757
0.00855601
-0.0158187
0.0116784
-0.0167326
0.015214
-0.017775
0.0191625
-0.0188232
-0.019703
0.0235354
0.000253698
-0.021606
0.00115323
-0.0183875
0.00271888
-0.0171888
0.004922
-0.0172113
0.00770967
-0.0179633
0.0110169
-0.0191259
0.0147755
-0.0204912
0.0189257
-0.0219252
0.0234517
-0.0233491
-0.0247322
0.0284809
0.000378732
-0.0219848
0.00157132
-0.0195801
0.00356412
-0.0191816
0.00630413
-0.0199514
0.00972033
-0.0213795
0.0137327
-0.0231384
0.0182541
-0.0250125
0.0231817
-0.0268529
0.0283976
-0.028565
-0.0301893
0.0338546
0.0302141
0.00118792
-0.031402
0.0290217
0.00119238
0.0278518
0.00116983
0.0267301
0.00112172
0.0256787
0.00105146
0.0247155
0.00096315
0.0238547
0.000860831
0.0231069
0.000747776
0.0224809
0.000626058
0.000496088
0.0401807
0.00371198
-0.0427048
0.0375385
0.00383461
0.0348488
0.00385952
0.0321793
0.00379122
0.0295926
0.00363819
0.0271442
0.00341156
0.0248818
0.00312318
0.0228459
0.00278376
0.02107
0.00240193
0.00198595
0.0489706
0.00688788
-0.0521465
0.0455254
0.0072798
0.0419045
0.00748048
0.0382039
0.00749179
0.0345184
0.00732367
0.0309376
0.00699243
0.0275432
0.0065175
0.0244093
0.00591765
0.0216026
0.00520868
0.00440689
0.0562377
0.0102379
-0.0595877
0.0524657
0.0110517
0.0483699
0.0115763
0.0440587
0.0118029
0.0396465
0.0117359
0.0352477
0.0113912
0.0309734
0.0107919
0.0269297
0.00996131
0.0232208
0.00891754
0.00767637
0.061926
0.0134479
-0.065136
0.0581641
0.0148136
0.0539382
0.0158023
0.0493537
0.0163874
0.0445297
0.0165598
0.039593
0.0163279
0.0346729
0.015712
0.0299003
0.0147339
0.0254149
0.0134029
0.0117118
0.066151
0.0163364
-0.0690395
0.0626172
0.0183474
0.0585053
0.0199142
0.0539056
0.0209871
0.0489282
0.0215372
0.0436976
0.0215585
0.0383467
0.0210629
0.0330164
0.0200643
0.0278702
0.0185491
0.0164436
0.0691135
0.0188217
-0.0715988
0.0659291
0.0215318
0.0620885
0.0237548
0.0576588
0.0254168
0.052731
0.0264651
0.0474143
0.0268751
0.041829
0.0266482
0.0361035
0.0257897
0.030399
0.0242536
0.0218301
0.0710383
0.0208913
-0.0731079
0.068253
0.0243171
0.0647704
0.0272374
0.0606328
0.0295544
0.0559065
0.0311914
0.0506774
0.0321042
0.0450391
0.0322865
0.0390805
0.0317483
0.0329073
0.0304268
0.0278846
0.0721349
0.0225747
-0.0738183
0.0697486
0.0267033
0.0666582
0.0303278
0.0628834
0.0333293
0.0584667
0.035608
0.0534695
0.0371014
0.0479547
0.0378012
0.0419511
0.037752
0.0354212
0.0369567
0.0347407
0.0725722
-0.0739232
0.0239256
0.0705525
0.0287231
0.0678498
0.0330305
0.0644673
0.0367118
0.0604298
0.0396455
0.0557809
0.0417503
0.0505664
0.0430157
0.0447808
0.0435375
0.0382253
0.0435122
0.0427768
0.0367788
-0.000327817
-0.036451
0.0368983
-0.000119452
0.036804
9.42604e-05
0.0365164
0.00028761
0.0360346
0.000481756
0.0353727
0.000661939
0.034551
0.000821718
0.0335949
0.000956099
0.032534
0.00106091
0.00113199
0.0509171
-0.00149548
-0.0497494
0.0516638
-0.000866148
0.0519783
-0.000220248
0.0518414
0.000424496
0.0512655
0.00105764
0.0502646
0.00166291
0.0488647
0.00222159
0.047104
0.00271679
0.0450314
0.00313349
0.0034586
0.0589455
-0.00345956
-0.0569814
0.0603972
-0.00231789
0.0613098
-0.00113282
0.0616533
8.09469e-05
0.0614244
0.00128658
0.0606192
0.00246814
0.059252
0.00358874
0.0573519
0.00461687
0.0549636
0.00552183
0.00627568
0.0629359
-0.00606132
-0.0603341
0.0650173
-0.00439934
0.0665359
-0.00265143
0.0674562
-0.000839361
0.0677426
0.00100025
0.0673808
0.00282995
0.0663651
0.00460445
0.064706
0.00627594
0.0624315
0.00779633
0.0091195
0.0643972
-0.00912386
-0.0613347
0.0669768
-0.0069789
0.0690179
-0.00469255
0.0704691
-0.00229055
0.0712847
0.000184645
0.0714332
0.00268142
0.0708928
0.00514486
0.069655
0.00751375
0.0677275
0.00972384
0.011711
0.0643886
-0.0124966
-0.0610158
0.0673348
-0.00992519
0.0697822
-0.00713995
0.0716679
-0.00417624
0.0729417
-0.00108908
0.0735623
0.00206078
0.0734988
0.0052084
0.0727279
0.00828467
0.0712397
0.011212
0.0139112
0.0636112
-0.0160779
-0.0600299
0.0668223
-0.0131363
0.069566
-0.00988365
0.071775
-0.00638522
0.0734011
-0.00271523
0.0744051
0.0010568
0.0747538
0.00485973
0.074415
0.00862343
0.0733671
0.0122599
0.0156796
0.0625131
-0.0198322
-0.0587587
0.0659199
-0.0165432
0.068863
-0.0128267
0.0712847
-0.00880697
0.0731521
-0.00458258
0.0744344
-0.000225489
0.075104
0.00419008
0.0751233
0.00860415
0.0744654
0.0129178
0.0170371
0.0613986
-0.0237883
-0.0574426
0.0649311
-0.0200756
0.0679735
-0.0158691
0.0705008
-0.0113343
0.0725034
-0.00658515
0.073969
-0.0016911
0.074867
0.00329208
0.0751588
0.00831237
0.0748186
0.013258
0.0180373
0.0604681
-0.056358
-0.0278984
0.0640187
-0.0236262
0.0670422
-0.0188926
0.0695786
-0.0138707
0.0716299
-0.00863649
0.0731986
-0.00325975
0.0742507
0.00223989
0.0747324
0.00783074
0.074634
0.0133564
0.0187481
0.0423281
0.0134253
-0.00815038
-0.0476031
0.0369694
0.0141662
-0.00880752
0.0315272
0.0150446
-0.00960241
0.0260176
0.016108
-0.0105984
0.0204844
0.0174153
-0.011882
0.0150218
0.0190174
-0.0135549
0.00981021
0.0209209
-0.0157093
0.00516755
0.0230128
-0.0183701
0.0016203
0.024932
-0.0213848
0.0258519
-0.0242316
0.0420997
0.018675
-0.0473493
0.0367647
0.0195012
0.0313461
0.0204632
0.0258603
0.0215939
0.0203511
0.0229245
0.0149135
0.024455
0.00972901
0.0261054
0.00511657
0.0276252
0.00160062
0.028448
0.0274525
0.0414986
0.0238688
-0.0466924
0.0362192
0.0247806
0.0308578
0.0258245
0.0254324
0.0270193
0.0199883
0.0283685
0.0146221
0.0298212
0.00951626
0.0312112
0.00498796
0.0321535
0.00155206
0.0318839
0.0290045
0.0405271
0.0289789
-0.0456371
0.0353333
0.0299743
0.0300623
0.0310956
0.024734
0.0323476
0.0193963
0.0337062
0.0141482
0.0350693
0.00917292
0.0361865
0.00478321
0.0365433
0.00147645
0.0351906
0.030481
0.0391866
0.0339787
-0.0441865
0.0341077
0.0350532
0.0289596
0.0362436
0.0237653
0.037542
0.0185758
0.0388957
0.0134932
0.0401519
0.00870104
0.0409787
0.00450433
0.04074
0.00137503
0.0383199
0.031856
0.037476
0.0388434
-0.0423407
0.032541
0.0399883
0.0275493
0.0412354
0.0225269
0.0425644
0.0175288
0.0438938
0.0126601
0.0450206
0.00810384
0.0455349
0.00415415
0.0446897
0.00124925
0.0412248
0.0331053
0.0353883
0.043547
-0.0400919
0.030628
0.0447485
0.025829
0.0460344
0.0210194
0.0473739
0.0162579
0.0486553
0.011653
0.0496255
0.00738616
0.0498018
0.00373668
0.0483391
0.00110112
0.0438604
0.0342064
0.0329043
0.0480568
-0.0374141
0.0283576
0.0492952
0.0237951
0.0505969
0.0192445
0.0519246
0.0147683
0.0531315
0.0104789
0.0539149
0.00655512
0.0537256
0.00325765
0.0516366
0.00093348
0.0461845
0.0351399
0.0299775
0.0523312
-0.034252
0.0257101
0.0535627
0.0214461
0.0548608
0.0172085
0.0561622
0.0130699
0.0572701
0.0091491
0.0578357
0.00562128
0.0572534
0.00272519
0.0545327
0.000750825
0.0481589
0.0358907
0.0265704
-0.0305972
0.0226906
0.0187926
0.014925
0.0111792
0.00768027
0.00459953
0.00215082
0.000560285
0.0246743
-0.0358211
0.0400726
-0.0289257
0.0206919
-0.0356204
0.0396027
0.0168492
-0.0350916
0.0389344
0.0131718
-0.0340559
0.0377332
0.00973433
-0.0321874
0.0356249
0.00663463
-0.0290109
0.0321106
0.00398753
-0.0238756
0.0265227
0.00191496
-0.0159363
0.0180089
0.000539551
-0.00414671
0.00552212
0.0128025
-0.0122629
0.0281119
-0.0314916
-0.0324414
0.0238361
-0.0313446
0.0196445
-0.0309
0.0155787
-0.0299901
0.0117124
-0.0283211
0.00814829
-0.0254468
0.00501778
-0.0207451
0.00248005
-0.0133986
0.000725369
-0.00239203
0.0135278
0.0311331
-0.027005
-0.0356198
0.0266267
-0.0268381
0.0221519
-0.0264252
0.0177593
-0.0255975
0.0135225
-0.0240842
0.00954743
-0.0214718
0.00597984
-0.0171775
0.00301299
-0.0104318
0.000901498
-0.000280532
0.0144293
0.0337652
-0.0223475
-0.0384226
0.0290639
-0.0221369
0.0243568
-0.0217181
0.0196917
-0.0209324
0.0151397
-0.0195322
0.0108084
-0.0171405
0.00685486
-0.0132239
0.00350219
-0.00707908
0.00106493
0.00215673
0.0154943
0.0360482
-0.0175288
-0.0408669
0.0311731
-0.0172617
0.0262676
-0.0168126
0.0213724
-0.0160372
0.0165536
-0.0147135
0.0119179
-0.0125048
0.00763031
-0.00893631
0.00393912
-0.00338789
0.001212
0.00488385
0.0167062
0.037992
-0.0125628
-0.0429581
0.0329632
-0.012233
0.0278884
-0.0117378
0.0228001
-0.0109489
0.0177584
-0.00967185
0.0128674
-0.00761373
0.00829729
-0.00436621
0.00431696
0.000592443
0.00133986
0.00786094
0.0180461
0.0395831
-0.00746954
-0.0446763
0.034429
-0.0070788
0.0292159
-0.00652476
0.0239709
-0.00570386
0.0187487
-0.00444967
0.0136502
-0.00251519
0.00884907
0.000434933
0.00463054
0.00481097
0.0014462
0.0110453
0.0194923
0.0407846
-0.00233034
-0.0459239
0.0355501
-0.00184426
0.0302394
-0.00121402
0.0248784
-0.000342876
0.0195192
0.000909547
0.014261
0.00274301
0.0092805
0.00541541
0.00487589
0.00921558
0.0015292
0.014392
0.0210215
0.0416614
0.00288601
-0.0468778
0.0363577
0.00345944
0.0309719
0.00417175
0.0255262
0.00510287
0.0200689
0.00636687
0.0146968
0.00811509
0.00958811
0.0105241
0.00505034
0.0137534
0.00158776
0.0178546
0.0226093
0.0421836
-0.047448
0.0368356
0.0314049
0.0259094
0.0203942
0.0149545
0.00976929
0.0051525
0.00162229
0.0442357
0.021412
-0.0255751
0.0477472
0.0174932
-0.0210047
0.0506742
0.0130751
-0.0160021
0.0530563
0.00832967
-0.0107118
0.0548802
0.00341022
-0.00523409
0.0561827
-0.00156685
0.000264313
0.0568018
-0.00658773
0.00596864
0.0567673
-0.0114558
0.0114903
0.056035
-0.0160511
0.0167835
-0.0202462
0.054579
0.0217021
0.0434732
0.0175415
0.0468918
0.0140746
0.0497629
0.010204
0.0520474
0.00604521
0.0537276
0.00173
0.0547893
-0.00262849
0.055159
-0.00695749
0.0548187
-0.0111155
0.0537457
-0.0149782
-0.0184296
0.0519291
0.0425242
0.0139518
0.0457193
0.0108795
0.0483899
0.00753338
0.0504618
0.00397327
0.0518926
0.000299173
0.0526505
-0.00338635
0.0526899
-0.00699686
0.0519889
-0.0104144
0.0505398
-0.0135291
-0.0162417
0.0483519
0.0410502
0.0106348
0.0439408
0.00798893
0.0463005
0.00517364
0.0480496
0.0022242
0.049134
-0.000785278
0.0495174
-0.00376973
0.0491672
-0.00664664
0.0480729
-0.00932014
0.0462445
-0.0117007
-0.0137114
0.0437143
0.0386258
0.00763391
0.0411456
0.00546912
0.0431088
0.00321043
0.0444476
0.000885397
0.0451113
-0.001449
0.0450699
-0.00372828
0.0443065
-0.00588326
0.0428278
-0.00784145
0.0406642
-0.00953712
-0.0109173
0.0378701
0.0347191
0.00502538
0.0368008
0.00338743
0.0383026
0.0017087
0.0391777
1.02651e-05
0.0393878
-0.00165913
0.0389197
-0.00326012
0.0377757
-0.00473932
0.0359823
-0.00604801
0.0335892
-0.00714407
-0.00799679
0.0306687
0.0286523
0.00289575
0.030239
0.00180079
0.0312496
0.000698008
0.0316549
-0.000394971
0.0314451
-0.00144937
0.0306214
-0.00243637
0.0292071
-0.00332501
0.027246
-0.00408699
0.0248022
-0.00470019
-0.00515109
0.0219565
0.0195839
0.00132075
0.0206505
0.000734196
0.021192
0.000156511
0.0212034
-0.000406411
0.0206912
-0.000937166
0.0196759
-0.00142103
0.0181947
-0.00184385
0.016301
-0.00219327
0.0140618
-0.00246101
-0.00264411
0.0115548
0.00649453
0.000348348
0.0070669
0.000161824
0.00724156
-1.81478e-05
0.00702282
-0.00018767
0.00642997
-0.000344325
0.00549184
-0.000482895
0.00424754
-0.000599545
0.00274561
-0.000691342
0.00104153
-0.00075693
-0.000797616
-0.000804963
-0.0119146
-0.0117527
-0.0117709
-0.0119586
-0.0123029
-0.0127858
-0.0133853
-0.0140767
-0.0148336
-0.0156312
0.052392
-0.0239264
0.0261134
0.0494888
-0.0269336
0.0298368
0.0459182
-0.0291924
0.0327629
0.0417625
-0.0306537
0.0348095
0.0371292
-0.0313274
0.0359607
0.0321336
-0.0312833
0.0362789
0.0268669
-0.0306293
0.035896
0.0213429
-0.0294467
0.0349706
0.0154381
-0.0276003
0.0335052
-0.0241439
0.00867303
0.0309089
0.04938
-0.0213772
0.0461359
-0.0236895
0.0422678
-0.0253243
0.0378766
-0.0262625
0.0330817
-0.0265325
0.0280017
-0.0262033
0.0227258
-0.0253534
0.0172845
-0.0240054
0.0116788
-0.0219946
-0.0187171
0.00625202
0.0454593
-0.0184846
0.0419247
-0.0201549
0.0378407
-0.0212403
0.0333234
-0.0217452
0.0285003
-0.0217095
0.0234928
-0.0211959
0.0183991
-0.0202597
0.0132935
-0.0188997
0.00829064
-0.0169918
-0.0142311
0.00380467
0.0405396
-0.0153099
0.0368062
-0.0164215
0.0326231
-0.0170572
0.0281153
-0.0172374
0.0234117
-0.0170059
0.0186322
-0.0164163
0.0138803
-0.0155078
0.0092552
-0.0142746
0.00490519
-0.0126418
-0.0104793
0.00115331
0.0345225
-0.0119623
0.0307239
-0.0126229
0.0265913
-0.0129246
0.0222493
-0.0128953
0.0178197
-0.0125763
0.0134136
-0.0120102
0.00912977
-0.011224
0.00506869
-0.0102135
0.00136637
-0.00893944
-0.00735693
-0.00175595
0.0273094
-0.00860306
0.0236208
-0.00893427
0.019717
-0.00902088
0.0157123
-0.00889053
0.0117129
-0.00857697
0.00781348
-0.00811077
0.00409864
-0.00750919
0.000654615
-0.00676949
-0.00241208
-0.00587274
-0.00480822
-0.0049608
0.0187982
-0.00544478
0.015432
-0.00556812
0.0119583
-0.0055472
0.00847177
-0.00540395
0.00505651
-0.00516171
0.00178518
-0.00483944
-0.0012775
-0.00444651
-0.00406648
-0.00398051
-0.00650709
-0.00343213
-0.00280057
-0.00851474
0.00885706
-0.00274702
0.00605694
-0.002768
0.0032317
-0.00272196
0.000450228
-0.00262248
-0.00222918
-0.0024823
-0.0047579
-0.00231072
-0.00709298
-0.00211142
-0.00919143
-0.00188207
-0.0110058
-0.00161775
-0.00131921
-0.0124872
-0.0027397
-0.000812281
-0.00470165
-0.000806055
-0.00664228
-0.000781326
-0.00852103
-0.000743734
-0.0103058
-0.000697529
-0.0119711
-0.000645425
-0.0134945
-0.000588029
-0.0148527
-0.000523857
-0.0160196
-0.000450818
-0.000370185
-0.0169687
-0.0164435
-0.0172495
-0.0180309
-0.0187746
-0.0194721
-0.0201176
-0.0207056
-0.0212294
-0.0216803
-0.0220504
0.000269602
-0.02232
0.000986154
-0.0176852
0.00211006
-0.0136111
0.00363091
-0.0100356
0.00554609
-0.00687598
0.00784985
-0.0040597
0.0105271
-0.0015239
0.0135421
0.000789659
0.0168445
0.00294958
0.00503452
0.020483
0.000182369
-0.0225024
0.000674178
-0.018177
0.0014553
-0.0143922
0.00252231
-0.0111026
0.00387365
-0.00822732
0.00550482
-0.00569087
0.00740908
-0.00342816
0.00958439
-0.00138565
0.0120688
0.000465151
0.00208488
0.0150184
0.000101021
-0.0226034
0.000390294
-0.0184663
0.000870479
-0.0148724
0.00155209
-0.0117842
0.00244505
-0.00912028
0.00355952
-0.00680534
0.00490886
-0.0047775
0.00651592
-0.00299272
0.00841943
-0.00143835
-0.000154055
0.0106584
3.3355e-05
-0.0226368
0.000142884
-0.0185758
0.000368173
-0.0150977
0.000730636
-0.0121467
0.00125104
-0.00964068
0.00194967
-0.00750397
0.00284793
-0.00567577
0.00397004
-0.00411483
0.0053385
-0.00280682
-0.0017686
0.00695305
-2.98266e-05
-0.022607
-6.77936e-05
-0.0185379
-5.17489e-05
-0.0151137
5.12027e-05
-0.0122496
0.000269682
-0.00985916
0.000627971
-0.00786226
0.00114648
-0.00619427
0.00184142
-0.00480977
0.00272043
-0.00368582
-0.00281845
0.00377028
-8.78665e-05
-0.0225191
-0.000238329
-0.0183874
-0.000390065
-0.014962
-0.000493088
-0.0121466
-0.000513644
-0.0098386
-0.00042836
-0.00794754
-0.000221748
-0.00640088
0.000113783
-0.0051453
0.000573483
-0.00414552
-0.00338306
0.00113809
-0.000129261
-0.0223898
-0.000372544
-0.0181441
-0.000649629
-0.0146849
-0.000904389
-0.0118918
-0.00110099
-0.009642
-0.00121851
-0.00783002
-0.00124725
-0.00637214
-0.00118731
-0.00520525
-0.00104835
-0.00428448
-0.00357995
-0.000851456
-0.000159751
-0.0222301
-0.000467741
-0.0178361
-0.00082801
-0.0143246
-0.00117929
-0.0115406
-0.0014854
-0.00933588
-0.00172846
-0.00758696
-0.00190392
-0.00619668
-0.00201749
-0.00509168
-0.00208358
-0.00421839
-0.00353916
-0.00212437
-0.000179068
-0.022051
-0.000522773
-0.0174924
-0.000922616
-0.0139248
-0.0013131
-0.0111501
-0.00165829
-0.00899069
-0.00194317
-0.00730207
-0.00216758
-0.00597227
-0.00234203
-0.00491723
-0.00248515
-0.00407526
-0.00340172
-0.0026226
-0.000185474
-0.000536294
-0.00093193
-0.00130332
-0.00161498
-0.0018543
-0.00202456
-0.00214026
-0.00222388
-0.00230391
-0.000917335
-0.00849177
0.00823265
0.0018556
-0.00895131
0.00617837
0.00575274
-0.00828361
0.00438648
0.0102822
-0.00864993
0.00412044
0.015129
-0.0103797
0.00553285
0.0199258
-0.0138698
0.00907301
0.0244768
-0.0196664
0.0151154
0.0285663
-0.0270565
0.022967
0.0320879
-0.0341866
0.030665
0.035091
-0.0378515
0.0348483
0.0378151
-0.0336542
0.0309302
0.040481
-0.0182728
0.0156068
0.0432154
0.00742263
-0.0101571
0.0461108
0.0315667
-0.0344621
0.04951
0.0385434
-0.0419426
0.052905
0.0157364
-0.0191315
0.055924
-0.0244753
0.0214563
0.0575327
-0.0593172
0.0577085
0.0593568
-0.0778525
0.0760284
-0.0373049
0.035608
0.00152608
-0.00930046
0.00452619
-0.0119514
0.00851744
-0.0122749
0.0130216
-0.0131541
0.0177564
-0.0151145
0.0223777
-0.0184911
0.0266883
-0.0239769
0.0304819
-0.0308501
0.0336657
-0.0373704
0.0363146
-0.0405004
0.0387118
-0.0360514
0.0411427
-0.0207036
0.0437918
0.00477348
0.046743
0.0286156
0.0502456
0.0350408
0.0536808
0.0123013
0.0566245
-0.027419
0.0580895
-0.0607822
0.0596962
-0.0794591
-0.0388726
0.00476847
-0.0107369
0.007993
-0.0151759
0.0120141
-0.016296
0.0163879
-0.0175278
0.0208956
-0.0196222
0.0252366
-0.022832
0.0292199
-0.0279603
0.0326554
-0.0342856
0.0354637
-0.0401787
0.0377387
-0.0427754
0.0397946
-0.0381074
0.0419699
-0.0228789
0.0445026
0.0022408
0.0474684
0.0256498
0.051026
0.0314831
0.0544615
0.00886588
0.0573136
-0.0302711
0.0586477
-0.0621163
0.0600609
-0.0808723
-0.0403401
0.00874566
-0.0129293
0.0121066
-0.0185369
0.0160631
-0.0202525
0.0201983
-0.0216629
0.0243726
-0.0237965
0.0283419
-0.0268013
0.0319287
-0.031547
0.0349628
-0.0373197
0.0373778
-0.0425938
0.0392796
-0.0446772
0.041
-0.0398278
0.0429165
-0.0247953
0.0453124
-0.000155134
0.048256
0.0227062
0.051822
0.0279171
0.0552212
0.00546661
0.0579709
-0.0330207
0.0591922
-0.0633376
0.0604416
-0.0821217
-0.04174
0.013274
-0.0159189
0.016679
-0.0219419
0.0204514
-0.024025
0.0242405
-0.025452
0.0279886
-0.0275446
0.031514
-0.0303268
0.0346561
-0.0346892
0.0372665
-0.0399301
0.0392908
-0.0446181
0.0408399
-0.0462263
0.0422503
-0.0412383
0.043923
-0.0264679
0.0461748
-0.00240702
0.0490671
0.0198139
0.0526
0.0243842
0.0559325
0.00213411
0.0585756
-0.0356638
0.0597081
-0.0644701
0.0608286
-0.0832423
-0.0431079
0.0181581
-0.0196571
0.0214932
-0.025277
0.0249427
-0.0274745
0.0282841
-0.0287934
0.0315327
-0.0307933
0.0345657
-0.0333598
0.037239
-0.0373625
0.0394253
-0.0421163
0.0410805
-0.0462733
0.0423152
-0.0474609
0.0434588
-0.0423819
0.0449198
-0.027929
0.0470354
-0.00452264
0.0498575
0.0169918
0.0533243
0.0209175
0.0565676
-0.00110919
0.0591077
-0.0382039
0.0601809
-0.0655433
0.0612126
-0.084274
-0.044482
0.0231734
-0.0239701
0.0263018
-0.0284054
0.0292832
-0.0304559
0.0320906
-0.0316007
0.0347929
-0.0334956
0.0373128
-0.0358797
0.0395188
-0.0395685
0.0413021
-0.0438995
0.0426274
-0.0475986
0.0436008
-0.0484343
0.0445353
-0.0433164
0.0458324
-0.029226
0.0478346
-0.00652481
0.0505801
0.0142463
0.0539587
0.0175388
0.0571002
-0.00425066
0.0595489
-0.0406527
0.0605976
-0.066592
0.0615846
-0.0852609
-0.0459029
0.0280578
-0.0284925
0.0308149
-0.0311626
0.0332025
-0.0328435
0.0354196
-0.0338178
0.0375635
-0.0356395
0.0395816
-0.0378978
0.0413487
-0.0413356
0.0427709
-0.0453217
0.043821
-0.0486487
0.0445978
-0.0492111
0.0453919
-0.0441106
0.0465854
-0.0304195
0.0485109
-0.00845033
0.0511873
0.0115698
0.0544683
0.0142579
0.0575059
-0.0072883
0.0598828
-0.0430296
0.0609466
-0.0676557
0.0619363
-0.0862507
-0.0474129
0.0326097
-0.0326213
0.0347665
-0.0333194
0.036463
-0.03454
0.0380678
-0.0354226
0.0396755
-0.0372473
0.0412322
-0.0394544
0.042612
-0.0427154
0.0437327
-0.0464424
0.044574
-0.04949
0.0452264
-0.0498636
0.0459546
-0.0448387
0.047112
-0.0315769
0.0490073
-0.0103457
0.0516338
0.00894341
0.0548198
0.0110719
0.0577628
-0.0102312
0.0600955
-0.0453623
0.0612179
-0.0687782
0.0622605
-0.0872932
-0.049055
0.0369161
-0.0356828
0.0380827
-0.0344861
0.0389582
-0.0354154
0.0399451
-0.0364095
0.0410494
-0.0383515
0.0421957
-0.0406008
0.0432495
-0.0437692
0.0441363
-0.0473291
0.0448402
-0.0501939
0.0454423
-0.0504656
0.0461781
-0.0455745
0.0473661
-0.032765
0.0492788
-0.0122584
0.0518785
0.00634374
0.0549809
0.00796944
0.0578495
-0.0130998
0.0601737
-0.0476865
0.0614046
-0.0700091
0.0625493
-0.0884379
-0.0508745
0.117756
-0.0270581
-0.12638
0.113325
-0.0300557
0.111036
-0.0331261
0.110025
-0.0353983
0.109638
-0.0379651
0.109625
-0.0405878
0.109582
-0.0437262
0.109177
-0.0469239
0.108158
-0.049175
0.106492
-0.0487995
0.104531
-0.0436134
0.103076
-0.0313102
0.103336
-0.0125179
0.106015
0.00366463
0.110711
0.00327345
0.115177
-0.0175665
0.117787
-0.050296
0.117608
-0.0698298
0.116399
-0.0872298
-0.0511496
0.165153
-0.0163493
-0.175862
0.157117
-0.0220199
0.151652
-0.027661
0.148056
-0.0318023
0.145496
-0.0354051
0.143603
-0.038695
0.141904
-0.0420264
0.140023
-0.0450432
0.137691
-0.0468426
0.134863
-0.045972
0.131888
-0.0406387
0.129603
-0.0290252
0.129279
-0.0121938
0.131609
0.00133493
0.136006
-0.00112414
0.140011
-0.0215706
0.141877
-0.0521627
0.140816
-0.0687687
0.138435
-0.0848487
-0.0507627
0.216626
-0.00575078
-0.227224
0.207714
-0.0131079
0.200277
-0.0202245
0.194426
-0.0259509
0.189667
-0.0306465
0.185673
-0.0347013
0.182023
-0.0383757
0.178364
-0.0413842
0.174457
-0.0429354
0.170285
-0.0418003
0.166203
-0.0365571
0.163048
-0.0258698
0.162064
-0.0112095
0.163825
-0.000426477
0.167511
-0.0048098
0.17055
-0.02461
0.171169
-0.0527821
0.168849
-0.0664488
0.164928
-0.0809275
-0.0494461
0.268296
0.00265498
-0.276702
0.260632
-0.00544443
0.253193
-0.0127848
0.246392
-0.0191498
0.240261
-0.0245158
0.234648
-0.0290881
0.229289
-0.0330174
0.223957
-0.0360513
0.218523
-0.0375019
0.213065
-0.0363426
0.207985
-0.0314767
0.204102
-0.0219864
0.202528
-0.00963529
0.203576
-0.00147472
0.206128
-0.00736207
0.207644
-0.0261256
0.206447
-0.0515859
0.202469
-0.0624704
0.196641
-0.0750996
-0.0469188
0.318107
0.00770552
-0.323157
0.312598
6.40545e-05
0.306666
-0.00685232
0.300417
-0.0129008
0.294168
-0.0182675
0.287973
-0.0228925
0.281729
-0.0267737
0.27536
-0.0296822
0.268901
-0.0310431
0.262578
-0.030019
0.256885
-0.0257842
0.252638
-0.0177395
0.250736
-0.00773277
0.251104
-0.0018428
0.25225
-0.00850785
0.251789
-0.0256646
0.24828
-0.048077
0.242304
-0.056495
0.234299
-0.0670938
-0.042927
0.366794
0.00970836
-0.368797
0.363737
0.00312162
0.359627
-0.00274255
0.354745
-0.00801861
0.34929
-0.0128132
0.343437
-0.017039
0.33722
-0.0205564
0.330672
-0.0231342
0.323957
-0.0243283
0.317438
-0.0234997
0.311708
-0.0200549
0.307589
-0.0136205
0.30575
-0.00589311
0.305681
-0.00177439
0.305452
-0.00827901
0.302884
-0.0230965
0.296841
-0.0420344
0.288727
-0.0483809
0.278486
-0.0568527
-0.0373099
0.417674
0.00929982
-0.417266
0.416459
0.00433737
0.414026
-0.000309806
0.410548
-0.00454085
0.406161
-0.00842659
0.401044
-0.0119217
0.395332
-0.0148438
0.38915
-0.0169527
0.382744
-0.0179226
0.376557
-0.0173121
0.371234
-0.0147322
0.367587
-0.0099732
0.366091
-0.00439705
0.365894
-0.00157799
0.364632
-0.00701662
0.360272
-0.0187367
0.351918
-0.0336802
0.341838
-0.0383007
0.329608
-0.0446232
-0.0300619
0.474052
0.00724281
-0.471995
0.474373
0.00401596
0.473292
0.000771144
0.470977
-0.00222501
0.467552
-0.00500181
0.463157
-0.00752655
0.457977
-0.00966381
0.452229
-0.0112054
0.446229
-0.011922
0.440458
-0.0115416
0.43557
-0.00984358
0.432334
-0.00673728
0.431096
-0.00315916
0.430864
-0.00134638
0.428977
-0.0051289
0.423428
-0.0131886
0.413357
-0.0236085
0.401753
-0.0266973
0.388027
-0.0308964
-0.0213399
0.539808
0.00404808
-0.536613
0.541371
0.00245335
0.541378
0.00076363
0.53998
-0.000826612
0.537292
-0.00231402
0.53344
-0.00367422
0.528614
-0.00483771
0.523093
-0.00568475
0.517259
-0.00608858
0.511634
-0.00591647
0.506864
-0.00507308
0.503663
-0.00353653
0.502294
-0.00179045
0.501827
-0.000879315
0.499502
-0.00280341
0.493244
-0.00693098
0.482013
-0.0123779
0.469285
-0.0139684
0.454473
-0.0160853
-0.0113396
0.62018
-0.616132
0.622633
0.623397
0.62257
0.620256
0.616582
0.611744
0.606059
0.599971
0.594054
0.588981
0.585445
0.583654
0.582775
0.579972
0.573041
0.560663
0.546694
0.530609
0.167598
0.0229581
-0.16663
0.167786
0.0285346
0.167012
0.0338049
0.165088
0.0386356
0.161849
0.0428851
0.157181
0.0464183
0.15107
0.0491269
0.143649
0.0509584
0.135274
0.0518873
0.0516702
0.19185
0.0209817
-0.189873
0.193513
0.0268709
0.194717
0.0326013
0.195289
0.0380636
0.195041
0.0431327
0.193785
0.0476747
0.191351
0.051561
0.187617
0.0546919
0.182467
0.0570382
0.0582748
0.217574
0.0184472
-0.215039
0.220224
0.0242207
0.222895
0.0299306
0.225454
0.0355048
0.227727
0.0408593
0.229502
0.0458997
0.230541
0.0505226
0.230614
0.0546183
0.229546
0.0581061
0.0605969
0.246118
0.0157734
-0.243444
0.249184
0.0211543
0.252601
0.0265137
0.2563
0.0318051
0.260185
0.0369751
0.264124
0.0419608
0.267955
0.0466907
0.27149
0.0510839
0.274521
0.0550749
0.0584163
0.278513
0.0131029
-0.275843
0.281755
0.0179131
0.285557
0.0227108
0.2899
0.0274628
0.294742
0.0321329
0.300021
0.0366817
0.305646
0.0410661
0.311491
0.0452383
0.317415
0.0491513
0.0526738
0.315579
0.0104668
-0.312943
0.318918
0.0145734
0.322961
0.0186684
0.327698
0.0227257
0.333113
0.026718
0.339177
0.0306173
0.345849
0.0343942
0.35307
0.0380177
0.360765
0.0414557
0.0446422
0.358199
0.00787389
-0.355606
0.361617
0.0111551
0.36586
0.0144257
0.370921
0.0176646
0.376788
0.0208506
0.383444
0.0239618
0.390861
0.0269767
0.399006
0.0298735
0.407831
0.0326299
0.0352077
0.40779
0.00530759
-0.405223
0.411304
0.00764034
0.415765
0.00996528
0.421162
0.0122669
0.427483
0.0145297
0.434707
0.016738
0.442807
0.0188764
0.451751
0.0209297
0.461499
0.0228825
0.0247114
0.466491
0.00271725
-0.4639
0.470165
0.00396624
0.474919
0.00521163
0.480741
0.00644481
0.487613
0.0076571
0.495511
0.00883987
0.504403
0.00998459
0.51425
0.0110829
0.525006
0.0121266
0.0131039
0.537714
-0.534997
0.54168
0.546892
0.553337
0.560994
0.569834
0.579818
0.590901
0.603028
0.143329
-0.0305459
-0.140682
0.146222
-0.026519
0.14921
-0.0218802
0.152196
-0.0168568
0.155113
-0.0115538
0.157908
-0.00605515
0.160636
-0.000487713
0.163013
0.00545374
0.165053
0.0113163
0.0171708
0.170781
-0.0322416
-0.169085
0.172613
-0.0283509
0.174537
-0.0238046
0.17657
-0.0188899
0.178697
-0.0136812
0.180907
-0.00826487
0.183115
-0.00269531
0.185443
0.003125
0.187708
0.00905218
0.015005
0.20222
-0.0326511
-0.20181
0.202836
-0.0289674
0.203589
-0.0245568
0.204519
-0.0198205
0.205668
-0.0148302
0.207046
-0.00964306
0.208641
-0.00428952
0.21055
0.00121591
0.212686
0.00691564
0.0126518
0.237304
-0.0317083
-0.238247
0.236607
-0.0282708
0.236186
-0.0241354
0.236074
-0.0197087
0.236312
-0.0150676
0.23692
-0.010251
0.237909
-0.00527898
0.239351
-0.000226018
0.241186
0.00508048
0.0103942
0.276056
-0.0294618
-0.278302
0.274115
-0.0263303
0.272588
-0.022608
0.271515
-0.0186357
0.270926
-0.0144786
0.270841
-0.0101667
0.271278
-0.00571582
0.272208
-0.00115539
0.273745
0.0035433
0.00829611
0.319131
-0.0259536
-0.322639
0.316025
-0.0232246
0.313455
-0.0200378
0.311466
-0.0166471
0.310085
-0.0130974
0.30933
-0.00941196
0.30922
-0.00560612
0.309766
-0.00170107
0.311008
0.00230136
0.00636163
0.367587
-0.0212156
-0.372325
0.36337
-0.0190077
0.359802
-0.0164703
0.35693
-0.0137745
0.35478
-0.0109479
0.353376
-0.00800796
0.352739
-0.00496857
0.352884
-0.00184625
0.353837
0.00134799
0.00459318
0.422824
-0.0152911
-0.428748
0.417538
-0.0137223
0.413006
-0.011938
0.409273
-0.0100411
0.406372
-0.00804683
0.404331
-0.00596729
0.403176
-0.00381341
0.402927
-0.00159741
0.403606
0.000669231
0.00297555
0.486968
-0.00821369
-0.494046
0.480635
-0.00738859
0.475149
-0.00645244
0.470562
-0.00545414
0.466916
-0.00440056
0.464247
-0.00329813
0.462586
-0.00215313
0.461962
-0.000972479
0.462394
0.000236241
0.00146959
0.56341
-0.571624
0.556022
0.549569
0.544115
0.539715
0.536417
0.534263
0.533291
0.533527
0.12677
0.00230308
-0.00221184
0.126514
0.00700463
-0.00674854
0.126097
0.0121126
-0.0116955
0.125523