/*--------------------------------*- C++ -*----------------------------------*\
| =========                 |                                                 |
| \\      /  F ield         | OpenFOAM: The Open Source CFD Toolbox           |
|  \\    /   O peration     | Version:  v1912                                 |
|   \\  /    A nd           | Website:  www.openfoam.com                      |
|    \\/     M anipulation  |                                                 |
\*---------------------------------------------------------------------------*/
FoamFile
{
    version     2.0;
    format      ascii;
    class       volScalarField;
    location    "30";
    object      p;
}
// * * * * * * * * * * * * * * * * * * * * * * * * * * * * * * * * * * * * * //

dimensions      [0 2 -2 0 0 0 0];


internalField   nonuniform List<scalar> 
9600
(
-41.3979
-36.1289
-32.8979
-30.1566
-27.6483
-25.3797
-23.3224
-21.4482
-19.7397
-18.183
-16.7654
-15.4747
-14.2996
-13.2293
-12.2534
-11.3627
-10.5487
-9.80339
-9.11922
-8.49406
-42.1491
-36.8629
-33.5963
-30.8127
-28.2598
-25.9476
-23.8493
-21.9379
-20.1959
-18.6096
-17.1659
-15.8524
-14.6573
-13.5692
-12.5778
-11.6731
-10.8465
-10.0896
-9.39443
-8.76013
-42.9021
-37.593
-34.2895
-31.4633
-28.8655
-26.5096
-24.3704
-22.4217
-20.6465
-19.0308
-17.5614
-16.2254
-15.0105
-13.905
-12.8981
-11.9797
-11.1406
-10.3722
-9.66613
-9.02289
-43.6536
-38.3188
-34.9769
-32.1075
-29.4645
-27.0647
-24.8846
-22.8989
-21.0907
-19.446
-17.9511
-16.5929
-15.3586
-14.2361
-13.214
-12.2819
-11.4306
-10.6508
-9.93392
-9.28201
-44.4008
-39.0388
-35.6576
-32.7442
-30.0558
-27.6119
-25.3911
-23.3685
-21.5277
-19.8543
-18.3344
-16.9544
-15.701
-14.5617
-13.5247
-12.5794
-11.7159
-10.9249
-10.1975
-9.53722
-45.1414
-39.7515
-36.3303
-33.3724
-30.6382
-28.1503
-25.8888
-23.8297
-21.9566
-20.2549
-18.7105
-17.3091
-16.037
-14.8813
-13.8298
-12.8715
-11.9963
-11.1943
-10.4564
-9.78824
-45.8739
-40.4554
-36.9938
-33.9909
-31.2108
-28.6789
-26.3769
-24.2816
-22.3766
-20.6472
-19.0787
-17.6564
-16.3661
-15.1944
-14.1287
-13.1577
-12.2711
-11.4584
-10.7104
-10.0348
-46.5966
-41.1493
-37.6469
-34.5987
-31.7725
-29.1966
-26.8545
-24.7233
-22.7869
-21.0303
-19.4381
-17.9954
-16.6874
-15.5002
-14.4208
-13.4376
-12.5399
-11.7169
-10.9591
-10.2766
-47.3082
-41.8318
-38.2884
-35.1945
-32.3222
-29.7026
-27.3205
-25.154
-23.1867
-21.4033
-19.7882
-18.3256
-17.0003
-15.7981
-14.7055
-13.7105
-12.8022
-11.9692
-11.2021
-10.5133
-48.0074
-42.5018
-38.9171
-35.7774
-32.8589
-30.1957
-27.7742
-25.5728
-23.5751
-21.7656
-20.128
-18.646
-17.3041
-16.0873
-14.982
-13.9757
-13.0573
-12.2149
-11.4388
-10.7445
-48.6933
-43.1581
-39.532
-36.3463
-33.3818
-30.6753
-28.2146
-25.9787
-23.9513
-22.1162
-20.4567
-18.956
-17.5979
-16.3671
-15.2495
-14.2325
-13.3045
-12.4531
-11.6687
-10.9695
-49.3648
-43.7997
-40.1321
-36.9003
-33.8898
-31.1402
-28.6409
-26.3711
-24.3144
-22.4543
-20.7735
-19.2546
-17.8808
-16.6365
-15.5072
-14.4799
-13.5428
-12.6831
-11.891
-11.1876
-50.0213
-44.4259
-40.7165
-37.4385
-34.3821
-31.5898
-29.0522
-26.7491
-24.6637
-22.7791
-21.0775
-19.5408
-18.1519
-16.8946
-15.754
-14.717
-13.7714
-12.9039
-12.1048
-11.3981
-50.6621
-45.0357
-41.2843
-37.9601
-34.8579
-32.0232
-29.4479
-27.1119
-24.9984
-23.0899
-21.3679
-19.8139
-18.4102
-17.1401
-15.9887
-14.9424
-13.9888
-13.1142
-12.3088
-11.6002
-51.2867
-45.6284
-41.8348
-38.4643
-35.3165
-32.4399
-29.8272
-27.4589
-25.3178
-23.3858
-21.6438
-20.0728
-18.6545
-17.3719
-16.2097
-15.1543
-14.1931
-13.3118
-12.5011
-11.7921
-51.8947
-46.2032
-42.3673
-38.9505
-35.7574
-32.8391
-30.1897
-27.7896
-25.6213
-23.6662
-21.9046
-20.3168
-18.884
-17.589
-16.416
-15.3514
-14.3824
-13.4946
-12.6787
-11.9685
-52.4873
-46.76
-42.881
-39.4181
-36.1798
-33.2203
-30.5347
-28.1035
-25.9086
-23.9307
-22.1497
-20.5451
-19.0978
-17.7902
-16.6065
-15.5328
-14.5564
-13.6625
-12.8407
-12.1259
-53.0689
-47.3
-43.3753
-39.8658
-36.5828
-33.5828
-30.8618
-28.4001
-26.1791
-24.1789
-22.3785
-20.757
-19.2947
-17.9739
-16.7787
-15.6958
-14.7124
-13.8128
-12.9862
-12.2758
-53.6415
-47.8225
-43.8485
-40.2926
-36.966
-33.9267
-31.1712
-28.6799
-26.4335
-24.4114
-22.5916
-20.9527
-19.4745
-18.1387
-16.9295
-15.8338
-14.8386
-13.9282
-13.1002
-12.422
-54.1834
-48.3201
-44.2996
-40.6991
-37.3309
-34.2535
-31.4647
-28.9447
-26.6736
-24.63
-22.7911
-21.1346
-19.6396
-18.2872
-17.0606
-15.9455
-14.9268
-13.9909
-13.1522
-12.4801
-59.59
-59.5587
-59.4899
-59.3981
-59.2827
-59.1412
-58.9729
-58.7785
-58.5586
-58.3135
-58.0439
-57.7504
-57.4336
-57.0942
-56.7329
-56.3507
-55.9486
-55.5283
-55.0928
-54.645
-53.2473
-53.2447
-53.2092
-53.1464
-53.0569
-52.9404
-52.797
-52.6275
-52.4324
-52.2126
-51.9684
-51.7007
-51.4099
-51.0968
-50.7619
-50.406
-50.0297
-49.6334
-49.2178
-48.7807
-48.6128
-48.6344
-48.6269
-48.5908
-48.5275
-48.4378
-48.3223
-48.1817
-48.0165
-47.8273
-47.6148
-47.3795
-47.122
-46.8427
-46.5423
-46.221
-45.8794
-45.5173
-45.1345
-44.7291
-44.3934
-44.4326
-44.4453
-44.4312
-44.391
-44.3258
-44.2364
-44.1232
-43.9868
-43.8277
-43.6465
-43.4436
-43.2197
-42.975
-42.7102
-42.4254
-42.1208
-41.7963
-41.4517
-41.0862
-40.4935
-40.5424
-40.5676
-40.5683
-40.5449
-40.4983
-40.429
-40.3377
-40.2247
-40.0906
-39.936
-39.7612
-39.5667
-39.353
-39.1205
-38.8692
-38.5995
-38.3111
-38.0039
-37.6775
-36.9919
-37.045
-37.0765
-37.0858
-37.073
-37.0386
-36.9834
-36.9078
-36.8123
-36.6973
-36.5633
-36.4109
-36.2405
-36.0524
-35.847
-35.6246
-35.3852
-35.1287
-34.8551
-34.5636
-33.8794
-33.9324
-33.9658
-33.9788
-33.9714
-33.9442
-33.8979
-33.8328
-33.7493
-33.6481
-33.5295
-33.3941
-33.2423
-33.0745
-32.891
-32.6922
-32.4782
-32.2488
-32.0038
-31.7428
-31.1189
-31.1691
-31.2012
-31.2145
-31.209
-31.1853
-31.1439
-31.0853
-31.0098
-30.918
-30.8104
-30.6874
-30.5496
-30.3974
-30.2312
-30.0513
-29.858
-29.6511
-29.4303
-29.1952
-28.6707
-28.7165
-28.7454
-28.7569
-28.7511
-28.7284
-28.6893
-28.6343
-28.5638
-28.4783
-28.3782
-28.2642
-28.1367
-27.9964
-27.8436
-27.6789
-27.5023
-27.3139
-27.1136
-26.9005
-26.495
-26.5357
-26.5606
-26.5693
-26.5618
-26.5386
-26.5002
-26.447
-26.3794
-26.2979
-26.203
-26.0954
-25.9757
-25.8444
-25.7021
-25.5493
-25.3864
-25.2135
-25.0304
-24.8364
-24.5549
-24.5903
-24.6109
-24.6163
-24.6065
-24.5821
-24.5434
-24.4908
-24.4249
-24.346
-24.2548
-24.1518
-24.0378
-23.9134
-23.7793
-23.6362
-23.4846
-23.3248
-23.1566
-22.9793
-22.8175
-22.8479
-22.8642
-22.8662
-22.854
-22.828
-22.7886
-22.7361
-22.671
-22.5938
-22.5052
-22.4056
-22.2959
-22.1768
-22.0492
-21.914
-21.7718
-21.6232
-21.4682
-21.306
-21.2545
-21.2803
-21.2928
-21.2916
-21.277
-21.2493
-21.209
-21.1562
-21.0916
-21.0157
-20.9288
-20.8318
-20.7255
-20.6105
-20.4881
-20.3592
-20.225
-20.0861
-19.9431
-19.7949
-19.8423
-19.864
-19.8729
-19.8689
-19.8521
-19.8229
-19.7816
-19.7286
-19.6642
-19.5891
-19.5037
-19.4087
-19.3049
-19.1932
-19.0748
-18.951
-18.8234
-18.693
-18.561
-18.4264
-18.561
-18.5791
-18.5848
-18.5782
-18.5595
-18.5289
-18.4868
-18.4335
-18.3694
-18.295
-18.2107
-18.1173
-18.0155
-17.9063
-17.7911
-17.6712
-17.5489
-17.4256
-17.304
-17.1826
-17.3942
-17.4089
-17.4118
-17.403
-17.3826
-17.3509
-17.3081
-17.2546
-17.1907
-17.1169
-17.0336
-16.9414
-16.8411
-16.7338
-16.6207
-16.5036
-16.3852
-16.2676
-16.1554
-16.0471
-16.328
-16.3397
-16.3402
-16.3294
-16.3075
-16.2747
-16.2314
-16.1777
-16.114
-16.0406
-15.958
-15.8668
-15.7676
-15.6614
-15.5495
-15.4338
-15.3177
-15.2038
-15.0996
-15.0029
-15.3505
-15.3599
-15.3584
-15.3461
-15.3232
-15.2897
-15.246
-15.1923
-15.1289
-15.056
-14.9741
-14.8837
-14.7852
-14.6796
-14.5681
-14.4525
-14.3366
-14.2241
-14.1268
-14.0391
-14.4507
-14.4586
-14.4562
-14.4434
-14.4204
-14.3872
-14.3443
-14.2916
-14.2295
-14.1583
-14.0782
-13.9896
-13.893
-13.789
-13.6785
-13.5632
-13.4466
-13.3338
-13.2432
-13.1694
-13.6231
-13.6279
-13.6229
-13.6083
-13.5842
-13.5507
-13.5079
-13.4562
-13.3956
-13.3263
-13.2486
-13.1627
-13.0689
-12.9677
-12.8594
-12.7451
-12.6267
-12.5092
-12.4122
-12.3625
-53.3489
-53.9193
-54.4528
-54.9715
-55.4726
-55.95
-56.4008
-56.8241
-57.2189
-57.5843
-57.9197
-58.2244
-58.4983
-58.741
-58.9518
-59.1309
-59.2789
-59.3972
-59.4877
-59.5524
-46.8734
-47.4492
-47.9972
-48.523
-49.0263
-49.5045
-49.9563
-50.381
-50.7779
-51.1464
-51.4858
-51.796
-52.0773
-52.33
-52.5525
-52.7439
-52.9049
-53.0359
-53.1374
-53.2081
-42.2391
-42.8028
-43.3431
-43.8601
-44.354
-44.8239
-45.269
-45.6887
-46.0824
-46.4493
-46.7886
-47.1
-47.3832
-47.637
-47.8625
-48.06
-48.2292
-48.3698
-48.4816
-48.563
-38.1254
-38.6641
-39.1833
-39.6811
-40.1569
-40.6104
-41.041
-41.4482
-41.8311
-42.1894
-42.5216
-42.8273
-43.1073
-43.3613
-43.5893
-43.791
-43.9661
-44.1143
-44.2351
-44.3283
-34.4573
-34.9662
-35.4582
-35.9308
-36.3829
-36.8142
-37.2242
-37.6121
-37.9774
-38.3194
-38.6387
-38.9349
-39.2066
-39.4539
-39.6771
-39.8757
-40.0495
-40.1983
-40.3221
-40.4206
-31.2673
-31.745
-32.2076
-32.6523
-33.078
-33.4844
-33.8708
-34.2368
-34.5818
-34.9056
-35.2079
-35.4883
-35.7461
-35.9814
-36.1945
-36.3853
-36.5529
-36.6974
-36.8188
-36.9172
-28.503
-28.9502
-29.3834
-29.8
-30.199
-30.5797
-30.9418
-31.2847
-31.6081
-31.9116
-32.1949
-32.4577
-32.6997
-32.9206
-33.1202
-33.3003
-33.4592
-33.5963
-33.712
-33.8065
-26.0978
-26.5164
-26.9218
-27.3117
-27.6849
-28.0409
-28.3793
-28.6995
-29.0012
-29.2842
-29.5482
-29.793
-30.0186
-30.2247
-30.4114
-30.5772
-30.7255
-30.8537
-30.9619
-31.0504
-23.9933
-24.3858
-24.7657
-25.1308
-25.4802
-25.813
-26.1289
-26.4276
-26.7087
-26.9721
-27.2176
-27.445
-27.6543
-27.8455
-28.0184
-28.1731
-28.3083
-28.4266
-28.5264
-28.6078
-22.1396
-22.5085
-22.8653
-23.2082
-23.5357
-23.8472
-24.1425
-24.4213
-24.6832
-24.9283
-25.1564
-25.3674
-25.5614
-25.7382
-25.8978
-26.0402
-26.1652
-26.273
-26.3643
-26.4384
-20.4951
-20.843
-21.1794
-21.5021
-21.8099
-22.1022
-22.3786
-22.6391
-22.8835
-23.1117
-23.3238
-23.5197
-23.6994
-23.8629
-24.0102
-24.1413
-24.256
-24.3546
-24.4375
-24.5044
-19.0262
-19.3555
-19.6739
-19.9788
-20.2688
-20.5436
-20.8029
-21.0467
-21.275
-21.4878
-21.6853
-21.8673
-22.0341
-22.1854
-22.3215
-22.4422
-22.5476
-22.6378
-22.7126
-22.7728
-17.7061
-18.0191
-18.3217
-18.6108
-18.8849
-19.1437
-19.3873
-19.6159
-19.8295
-20.0283
-20.2124
-20.3818
-20.5367
-20.6771
-20.8029
-20.9143
-21.0111
-21.0934
-21.1609
-21.2151
-16.5131
-16.8118
-17.101
-17.3762
-17.6357
-17.8799
-18.1092
-18.3237
-18.5238
-18.7097
-18.8816
-19.0396
-19.1837
-19.3141
-19.4308
-19.5336
-19.6227
-19.6982
-19.7602
-19.8078
-15.4302
-15.7168
-15.9946
-16.2572
-16.5034
-16.734
-16.9499
-17.1514
-17.3389
-17.5129
-17.6737
-17.8212
-17.9556
-18.077
-18.1853
-18.2805
-18.3627
-18.4318
-18.4879
-18.5308
-14.4426
-14.7208
-14.9895
-15.2403
-15.4738
-15.6916
-15.8948
-16.084
-16.2598
-16.4228
-16.5732
-16.7111
-16.8367
-16.9498
-17.0505
-17.1389
-17.2147
-17.2782
-17.3292
-17.3678
-13.5327
-13.8098
-14.0735
-14.313
-14.5339
-14.7395
-14.9306
-15.1081
-15.273
-15.4258
-15.5667
-15.6959
-15.8134
-15.9191
-16.0131
-16.0952
-16.1654
-16.2238
-16.2704
-16.305
-12.6798
-12.9612
-13.2262
-13.4565
-13.6655
-13.8596
-14.0396
-14.2067
-14.362
-14.5059
-14.6387
-14.7605
-14.8711
-14.9707
-15.059
-15.136
-15.2016
-15.2559
-15.2988
-15.3304
-11.897
-12.1693
-12.4352
-12.6607
-12.8598
-13.0426
-13.2123
-13.37
-13.5166
-13.6526
-13.7783
-13.8937
-13.9986
-14.093
-14.1766
-14.2495
-14.3115
-14.3626
-14.4028
-14.4322
-11.3096
-11.5596
-11.7866
-12.0022
-12.1896
-12.3548
-12.5082
-12.6518
-12.7852
-12.9088
-13.0231
-13.1279
-13.2229
-13.3082
-13.3835
-13.4487
-13.5038
-13.5488
-13.5835
-13.6079
-5.94342
-6.43266
-6.96908
-7.54966
-8.18089
-8.87017
-9.62521
-10.4555
-11.3732
-12.3941
-13.5386
-14.8335
-16.3142
-18.0267
-20.0311
-22.4063
-25.2332
-28.5338
-32.527
-38.5193
-6.21217
-6.71477
-7.26154
-7.85402
-8.49882
-9.20308
-9.97461
-10.8232
-11.7612
-12.8047
-13.9744
-15.2976
-16.8101
-18.5582
-20.6023
-23.0212
-25.8947
-29.2415
-33.2729
-39.286
-6.48238
-6.99834
-7.55559
-8.16019
-8.81883
-9.5383
-10.3266
-11.1937
-12.1523
-13.2187
-14.414
-15.7659
-17.3105
-19.0945
-21.1786
-23.6412
-26.5608
-29.9529
-34.0205
-40.0499
-6.75355
-7.28282
-7.85063
-8.46756
-9.14025
-9.87516
-10.6804
-11.5662
-12.5457
-13.6352
-14.8564
-16.2371
-17.814
-19.6342
-21.7583
-24.2645
-27.23
-30.6672
-34.7723
-40.8226
-7.02525
-7.56775
-8.14619
-8.77566
-9.46261
-10.2131
-11.0355
-11.9403
-12.9407
-14.0536
-15.3007
-16.7105
-18.3199
-20.1763
-22.3406
-24.8904
-27.9017
-31.384
-35.5272
-41.6016
-7.29711
-7.85271
-8.44186
-9.08408
-9.78546
-10.5518
-11.3914
-12.3153
-13.3368
-14.4732
-15.7465
-17.1855
-18.8275
-20.7203
-22.9247
-25.5181
-28.5751
-32.1023
-36.2833
-42.3828
-7.56881
-8.13736
-8.73726
-9.39241
-10.1084
-10.8906
-11.7477
-12.6908
-13.7336
-14.8935
-16.193
-17.6613
-19.336
-21.2652
-23.5098
-26.1468
-29.2493
-32.8209
-37.039
-43.1639
-7.8401
-8.42141
-9.03207
-9.70032
-10.4311
-11.2293
-12.1039
-13.0662
-14.1303
-15.3139
-16.6398
-18.1374
-19.8449
-21.8105
-24.0952
-26.7755
-29.9232
-33.5388
-37.7933
-43.9433
-8.11084
-8.70464
-9.32605
-10.0075
-10.7531
-11.5675
-12.4596
-13.4412
-14.5267
-15.7339
-17.0861
-18.613
-20.3532
-22.3551
-24.6798
-27.4033
-30.5957
-34.2548
-38.5447
-44.7197
-8.38098
-8.98695
-9.61904
-10.3138
-11.0743
-11.9047
-12.8144
-13.8153
-14.922
-16.1529
-17.5313
-19.0875
-20.8602
-22.8984
-25.2629
-28.0291
-31.2658
-34.9677
-39.2922
-45.4916
-8.65064
-9.26838
-9.91099
-10.6191
-11.3945
-12.2409
-13.168
-14.1881
-15.3159
-16.5702
-17.9748
-19.5601
-21.3653
-23.4394
-25.8433
-28.6519
-31.9324
-35.6764
-40.0343
-46.2575
-8.92009
-9.54909
-10.2019
-10.9233
-11.7134
-12.5757
-13.52
-14.559
-15.7079
-16.9854
-18.4158
-20.03
-21.8674
-23.9772
-26.4202
-29.2706
-32.5942
-36.3796
-40.7697
-47.0159
-9.18982
-9.82936
-10.492
-11.2264
-12.0309
-12.9087
-13.87
-14.9277
-16.0972
-17.3978
-18.8538
-20.4966
-22.3658
-24.5109
-26.9926
-29.8843
-33.2502
-37.076
-41.4971
-47.7655
-9.46054
-10.1096
-10.7813
-11.5282
-12.3469
-13.2398
-14.2176
-15.2936
-16.4835
-17.8066
-19.2879
-20.9589
-22.8596
-25.0395
-27.5593
-30.4916
-33.8991
-37.7645
-42.2153
-48.5051
-9.733
-10.3902
-11.0699
-11.8287
-12.6608
-13.5683
-14.5622
-15.6561
-16.8658
-18.2112
-19.7173
-21.4161
-23.3478
-25.5621
-28.1194
-31.0915
-34.5398
-38.4438
-42.923
-49.2335
-10.0081
-10.6712
-11.3574
-12.1272
-12.972
-13.8935
-14.903
-16.0143
-17.2435
-18.6106
-20.1411
-21.8672
-23.8294
-26.0774
-28.6715
-31.6828
-35.1708
-39.1126
-43.6191
-49.9497
-10.2857
-10.9516
-11.6425
-12.4223
-13.2794
-14.2145
-15.239
-16.3673
-17.6154
-19.0039
-20.5583
-22.3112
-24.3033
-26.5844
-29.2146
-32.264
-35.7908
-39.7696
-44.3026
-50.6531
-10.565
-11.2288
-11.9225
-12.7122
-13.5816
-14.5299
-15.5693
-16.714
-17.9808
-19.3901
-20.9679
-22.747
-24.7683
-27.0819
-29.7472
-32.8338
-36.3982
-40.413
-44.9723
-51.3437
-10.8385
-11.4944
-12.1914
-12.9936
-13.8764
-14.8382
-15.8922
-17.0533
-18.3384
-19.7681
-21.3688
-23.1735
-25.2233
-27.5684
-30.268
-33.3905
-36.9914
-41.0412
-45.6271
-52.0229
-11.0875
-11.7285
-12.4446
-13.2674
-14.1644
-15.1391
-16.2074
-17.3845
-18.6873
-20.1369
-21.7598
-23.5895
-25.6672
-28.0429
-30.7755
-33.9327
-37.5682
-41.651
-46.2622
-52.6925
-1.55963
-1.81435
-2.16321
-2.55339
-2.97358
-3.4292
-3.92661
-4.47177
-5.07224
-5.73831
-6.48397
-7.32824
-8.29726
-9.427
-10.7682
-12.3949
-14.3964
-16.8334
-20.0128
-25.4103
-1.71162
-1.98262
-2.34969
-2.74562
-3.16909
-3.62991
-4.13408
-4.68717
-5.29688
-5.97377
-6.73208
-7.59118
-8.57762
-9.7279
-11.0933
-12.7484
-14.7825
-17.2545
-20.4658
-25.8768
-1.85763
-2.15259
-2.53266
-2.9366
-3.36768
-3.83675
-4.34971
-4.91233
-5.53266
-6.22161
-6.99375
-7.86882
-8.87385
-10.0458
-11.4366
-13.1212
-15.1885
-17.6956
-20.938
-26.3573
-2.0257
-2.3314
-2.71958
-3.13212
-3.57228
-4.05076
-4.57361
-5.14687
-5.77895
-6.48104
-7.26806
-8.16015
-9.18481
-10.3796
-11.7968
-13.5117
-15.6133
-18.1567
-21.4336
-26.8703
-2.205
-2.51772
-2.91362
-3.33501
-3.78454
-4.27286
-4.80624
-5.39096
-6.03565
-6.7518
-7.55465
-8.46474
-9.51002
-10.7286
-12.1733
-13.9197
-16.0567
-18.6379
-21.9519
-27.4124
-2.38973
-2.71097
-3.1151
-3.54549
-4.00466
-4.50329
-5.04779
-5.64465
-6.30272
-7.03374
-7.8533
-8.78232
-9.84921
-11.0926
-12.5659
-14.345
-16.5186
-19.1389
-22.4912
-27.9785
-2.58143
-2.91207
-3.32433
-3.76374
-4.23283
-4.74218
-5.29833
-5.90793
-6.58004
-7.32669
-8.16377
-9.11259
-10.202
-11.4713
-12.9742
-14.7872
-16.9985
-19.6589
-23.0504
-28.5661
-2.7815
-3.1215
-3.54168
-3.99008
-4.46929
-4.98969
-5.5579
-6.18075
-6.86751
-7.63046
-8.4858
-9.45526
-10.5682
-11.8642
-13.3978
-15.2457
-17.4959
-20.1975
-23.6289
-29.1743
-2.9897
-3.33912
-3.76718
-4.22463
-4.71411
-5.24582
-5.82645
-6.46301
-7.16495
-7.94482
-8.81912
-9.80998
-10.9472
-12.2709
-13.8362
-15.7201
-18.0102
-20.7539
-24.226
-29.802
-3.20547
-3.56461
-4.00065
-4.46723
-4.96716
-5.51045
-6.10385
-6.75452
-7.47215
-8.2695
-9.16342
-10.1764
-11.3387
-12.6911
-14.289
-16.2097
-18.5407
-21.3276
-24.8409
-30.448
-3.42837
-3.79762
-4.24177
-4.71762
-5.2282
-5.78333
-6.38982
-7.05502
-7.7888
-8.60418
-9.51833
-10.5541
-11.7423
-13.1241
-14.7555
-16.7141
-19.0869
-21.9176
-25.4727
-31.1114
-3.65802
-4.03776
-4.49018
-4.97545
-5.4969
-6.06414
-6.68406
-7.36417
-8.11455
-8.94849
-9.88345
-10.9427
-12.1575
-13.5695
-15.2352
-17.2325
-19.6479
-22.5233
-26.1207
-31.7911
-3.89395
-4.28456
-4.74542
-5.24031
-5.77286
-6.3525
-6.98617
-7.68157
-8.44899
-9.30197
-10.2583
-11.3417
-12.5837
-14.0267
-15.7275
-17.7643
-20.2232
-23.1438
-26.7838
-32.4862
-4.13566
-4.5375
-5.00702
-5.51173
-6.05565
-6.64796
-7.2957
-8.00676
-8.79165
-9.66415
-10.6424
-11.7505
-13.0204
-14.4951
-16.2318
-18.3089
-20.8119
-23.7784
-27.4613
-33.1958
-4.38259
-4.79602
-5.27442
-5.78919
-6.34474
-6.95003
-7.61216
-8.33925
-9.14201
-10.0345
-11.0352
-12.1685
-13.467
-14.9741
-16.7473
-18.8654
-21.4132
-24.4262
-28.1524
-33.9189
-4.6342
-5.05957
-5.54708
-6.07216
-6.63961
-7.25817
-7.93503
-8.67849
-9.49952
-10.4124
-11.436
-12.5951
-13.9228
-15.4629
-17.2734
-19.4331
-22.0264
-25.0864
-28.8561
-34.6549
-4.88994
-5.32757
-5.82442
-6.36006
-6.93971
-7.57183
-8.26373
-9.02392
-9.86361
-10.7974
-11.8444
-13.0298
-14.3872
-15.9608
-17.8092
-20.0111
-22.6504
-25.758
-29.5718
-35.4032
-5.14926
-5.59944
-6.10586
-6.65234
-7.24446
-7.89045
-8.5977
-9.37496
-10.2337
-11.1887
-12.2595
-13.4717
-14.8593
-16.467
-18.3538
-20.5986
-23.2844
-26.44
-30.2985
-36.1634
-5.41162
-5.87461
-6.39082
-6.94841
-7.55329
-8.21344
-8.93634
-9.73099
-10.6091
-11.5857
-12.6807
-13.9202
-15.3384
-16.9807
-18.9064
-21.1945
-23.9272
-27.1311
-31.0353
-36.9361
-5.67651
-6.15254
-6.67876
-7.24773
-7.86565
-8.54024
-9.27908
-10.0914
-10.9892
-11.9878
-13.1074
-14.3745
-15.8238
-17.5011
-19.4661
-21.7977
-24.5775
-27.8297
-31.7793
-37.7222
-1.31322
-1.10831
-0.956105
-0.820894
-0.702273
-0.597697
-0.506056
-0.426557
-0.358701
-0.30213
-0.256578
-0.221834
-0.197724
-0.184098
-0.180811
-0.187664
-0.204485
-0.231463
-0.268527
-0.315661
-1.64373
-1.46199
-1.30583
-1.16545
-1.04205
-0.933065
-0.837513
-0.754595
-0.683795
-0.624738
-0.577141
-0.540782
-0.515475
-0.501062
-0.497394
-0.504304
-0.521658
-0.54947
-0.587692
-0.636283
-1.97743
-1.80356
-1.64745
-1.50595
-1.38046
-1.26933
-1.17186
-1.08736
-1.01535
-0.955488
-0.907483
-0.871114
-0.846195
-0.832563
-0.83007
-0.838565
-0.857938
-0.888148
-0.929118
-0.980803
-2.36255
-2.18709
-2.028
-1.8836
-1.75458
-1.64
-1.53936
-1.45211
-1.37784
-1.31621
-1.26694
-1.22981
-1.20463
-1.19122
-1.18944
-1.19913
-1.22018
-1.25252
-1.29604
-1.35069
-2.78298
-2.60515
-2.44219
-2.29391
-2.16075
-2.04217
-1.93784
-1.84735
-1.77034
-1.7065
-1.65558
-1.61734
-1.5916
-1.57817
-1.57691
-1.58765
-1.61028
-1.6447
-1.69076
-1.74845
-3.23638
-3.05543
-2.88839
-2.73587
-2.59832
-2.47555
-2.36735
-2.27343
-2.19349
-2.12727
-2.07454
-2.03507
-2.00867
-1.99517
-1.9944
-2.00622
-2.03049
-2.06707
-2.11584
-2.17673
-3.72897
-3.54342
-3.37157
-3.21421
-3.07185
-2.94451
-2.83209
-2.73441
-2.65124
-2.58237
-2.52757
-2.48666
-2.45944
-2.44573
-2.44538
-2.45822
-2.48413
-2.52294
-2.57451
-2.63881
-4.2676
-4.07595
-3.89823
-3.73518
-3.58732
-3.4548
-3.33762
-3.23568
-3.14882
-3.07687
-3.01964
-2.97694
-2.9486
-2.93446
-2.93433
-2.94807
-2.97553
-3.01655
-3.07096
-3.13875
-4.85999
-4.66083
-4.476
-4.30621
-4.15194
-4.01343
-3.89077
-3.7839
-3.69274
-3.61715
-3.55697
-3.51203
-3.48217
-3.46723
-3.46704
-3.48144
-3.51028
-3.55339
-3.6106
-3.68191
-5.51635
-5.30811
-5.11477
-4.93695
-4.77515
-4.62964
-4.50055
-4.38789
-4.29163
-4.21165
-4.14784
-4.10004
-4.0681
-4.05187
-4.05118
-4.06588
-4.09581
-4.14078
-4.20063
-4.27537
-6.25043
-6.03132
-5.82781
-5.64044
-5.46969
-5.31587
-5.17915
-5.05958
-4.95717
-4.87183
-4.80348
-4.75199
-4.7172
-4.69899
-4.69718
-4.71163
-4.74217
-4.7886
-4.85076
-4.92869
-7.08098
-6.8489
-6.63321
-6.4344
-6.25295
-6.08918
-5.94328
-5.81535
-5.70542
-5.61345
-5.53936
-5.48305
-5.44439
-5.42323
-5.41942
-5.43282
-5.46325
-5.5105
-5.57441
-5.65505
-8.03373
-7.78614
-7.55585
-7.34329
-7.14894
-6.97313
-6.81609
-6.67794
-6.55873
-6.45845
-6.37704
-6.31442
-6.27047
-6.24505
-6.23803
-6.24924
-6.27852
-6.32562
-6.3904
-6.47297
-9.14414
-8.878
-8.63014
-8.40096
-8.19098
-8.00052
-7.82985
-7.67909
-7.54833
-7.43757
-7.34678
-7.27588
-7.22477
-7.19333
-7.18141
-7.18886
-7.2155
-7.26107
-7.32541
-7.40869
-10.4624
-10.174
-9.90495
-9.65566
-9.42667
-9.21833
-9.0309
-8.86454
-8.71934
-8.59534
-8.4925
-8.41077
-8.35004
-8.31022
-8.29115
-8.29269
-8.31464
-8.35673
-8.41875
-8.50097
-12.0618
-11.7468
-11.4523
-11.1787
-10.9267
-10.6966
-10.4886
-10.303
-10.1398
-9.99916
-9.88094
-9.78514
-9.71167
-9.66042
-9.63126
-9.62406
-9.63859
-9.67457
-9.73175
-9.81042
-14.0312
-13.6849
-13.3603
-13.058
-12.7786
-12.5224
-12.2898
-12.0809
-11.8959
-11.7347
-11.5974
-11.4839
-11.3942
-11.3281
-11.2856
-11.2664
-11.2704
-11.2974
-11.347
-11.4192
-16.4317
-16.0502
-15.6914
-15.3563
-15.0457
-14.76
-14.4992
-14.2637
-14.0535
-13.8686
-13.7089
-13.5746
-13.4655
-13.3816
-13.3228
-13.2889
-13.2798
-13.2954
-13.3352
-13.3985
-19.5728
-19.1518
-18.7545
-18.3832
-18.0385
-17.7202
-17.4285
-17.1633
-16.9246
-16.7123
-16.5266
-16.3673
-16.2345
-16.128
-16.0479
-15.9939
-15.9659
-15.9643
-15.9889
-16.0376
-24.9126
-24.4468
-24.0153
-23.6149
-23.2435
-22.9001
-22.5844
-22.2961
-22.0353
-21.8019
-21.596
-21.4177
-21.2669
-21.1439
-21.0486
-20.9812
-20.9423
-20.9343
-20.9584
-21.0045
-0.372688
-0.439297
-0.515447
-0.601054
-0.696028
-0.800258
-0.91361
-1.03592
-1.16696
-1.30648
-1.45408
-1.60925
-1.7712
-1.9387
-2.11011
-2.28317
-2.4534
-2.61101
-2.74064
-2.86835
-0.695173
-0.764031
-0.842787
-0.931326
-1.02954
-1.13729
-1.25444
-1.38078
-1.51607
-1.66001
-1.8122
-1.97206
-2.13884
-2.31138
-2.48806
-2.66724
-2.84715
-3.02006
-3.17072
-3.34067
-1.04314
-1.11581
-1.19875
-1.29181
-1.39488
-1.5078
-1.6304
-1.76247
-1.90374
-2.05388
-2.21247
-2.37894
-2.55256
-2.73229
-2.91678
-3.10484
-3.29551
-3.4844
-3.66572
-3.86929
-1.41643
-1.49293
-1.58009
-1.67778
-1.78585
-1.90413
-2.03243
-2.17051
-2.3181
-2.47484
-2.64029
-2.81391
-2.99498
-3.1826
-3.3757
-3.57341
-3.77493
-3.97793
-4.18286
-4.41005
-1.8177
-1.89817
-1.98977
-2.09233
-2.20569
-2.32967
-2.46405
-2.60859
-2.76299
-2.92689
-3.09985
-3.28133
-3.4707
-3.66715
-3.8699
-4.07831
-4.29178
-4.50926
-4.73335
-4.9772
-2.24977
-2.33451
-2.43087
-2.53868
-2.65777
-2.78793
-2.92894
-3.08054
-3.24243
-3.41423
-3.59552
-3.7858
-3.98449
-4.19092
-4.4045
-4.62479
-4.8514
-5.08412
-5.32566
-5.5839
-2.71583
-2.80509
-2.90654
-3.01998
-3.14523
-3.28208
-3.43028
-3.58958
-3.75967
-3.94017
-4.13069
-4.33075
-4.53985
-4.75743
-4.98303
-5.21634
-5.45717
-5.70572
-5.96419
-6.23703
-3.21989
-3.31393
-3.42075
-3.54017
-3.672
-3.81601
-3.97198
-4.13962
-4.31863
-4.50866
-4.70931
-4.92017
-5.14076
-5.37065
-5.60946
-5.85695
-6.11305
-6.37807
-6.6536
-6.94209
-3.7673
-3.86626
-3.97868
-4.10436
-4.24314
-4.39479
-4.55905
-4.73565
-4.9243
-5.12465
-5.33634
-5.55898
-5.79216
-6.03549
-6.28867
-6.5515
-6.82394
-7.10626
-7.39948
-7.70497
-4.365
-4.46888
-4.58709
-4.71926
-4.86528
-5.02493
-5.19796
-5.38409
-5.58303
-5.79446
-6.01803
-6.25339
-6.50017
-6.75803
-7.0267
-7.30599
-7.59585
-7.89644
-8.20834
-8.53233
-5.02241
-5.13117
-5.25502
-5.39383
-5.54725
-5.71515
-5.89729
-6.09339
-6.30316
-6.52631
-6.7625
-7.01141
-7.27271
-7.54607
-7.83126
-8.12807
-8.43642
-8.75633
-9.08804
-9.43206
-5.75248
-5.86583
-5.99517
-6.14033
-6.30117
-6.47737
-6.66877
-6.8751
-7.09605
-7.33136
-7.58073
-7.84384
-8.1204
-8.41009
-8.71267
-9.02794
-9.35575
-9.69598
-10.0487
-10.4142
-6.57341
-6.69071
-6.82504
-6.97612
-7.14388
-7.32833
-7.52897
-7.74538
-7.97754
-8.22518
-8.488
-8.7657
-9.05799
-9.36456
-9.68518
-10.0196
-10.3677
-10.7291
-11.1038
-11.492
-7.51103
-7.63122
-7.76958
-7.92584
-8.09978
-8.29145
-8.50157
-8.72718
-8.97016
-9.22984
-9.50594
-9.79819
-10.1063
-10.43
-10.7689
-11.1229
-11.4917
-11.8749
-12.2722
-12.6841
-8.60351
-8.72491
-8.8657
-9.02569
-9.20469
-9.40221
-9.61768
-9.8537
-10.1073
-10.378
-10.6667
-10.9729
-11.2965
-11.6371
-11.9942
-12.3676
-12.7571
-13.1621
-13.5824
-14.0182
-9.91066
-10.0307
-10.1716
-10.333
-10.5149
-10.7169
-10.9385
-11.1798
-11.441
-11.7226
-12.0229
-12.3425
-12.6807
-13.037
-13.411
-13.8028
-14.2121
-14.6383
-15.081
-15.5403
-11.5138
-11.6294
-11.7674
-11.9277
-12.1098
-12.3135
-12.5386
-12.7849
-13.0523
-13.3409
-13.6514
-13.9825
-14.3326
-14.7009
-15.0886
-15.4963
-15.9234
-16.3693
-16.8327
-17.3138
-13.4834
-13.5915
-13.7236
-13.8793
-14.0572
-14.2579
-14.4816
-14.728
-14.997
-15.2879
-15.6
-15.9339
-16.2909
-16.6717
-17.0744
-17.4979
-17.9416
-18.4053
-18.888
-19.3887
-16.1083
-16.2005
-16.3165
-16.4577
-16.6257
-16.8194
-17.038
-17.2811
-17.5484
-17.8396
-18.154
-18.4913
-18.8518
-19.236
-19.6437
-20.0744
-20.5279
-21.0048
-21.5051
-22.0238
-21.0469
-21.1197
-21.223
-21.3547
-21.5137
-21.6992
-21.9107
-22.1477
-22.4099
-22.6971
-23.0089
-23.3453
-23.7066
-24.0929
-24.5044
-24.9409
-25.4038
-25.8967
-26.4223
-26.9628
-27.4739
-22.5528
-19.9068
-17.8125
-16.0162
-14.4695
-13.1103
-11.8937
-10.7924
-9.7883
-8.86835
-8.02271
-7.24369
-6.52497
-5.86129
-5.24804
-4.67988
-4.15117
-3.67033
-3.2661
-28.0126
-23.0978
-20.4404
-18.326
-16.5061
-14.934
-13.549
-12.3071
-11.1817
-10.1552
-9.21472
-8.35059
-7.55527
-6.8226
-6.14747
-5.52537
-4.9515
-4.42341
-3.95417
-3.55194
-28.5796
-23.6613
-20.9909
-18.8554
-17.0106
-15.4119
-14
-12.7319
-11.5817
-10.5321
-9.57053
-8.68742
-7.87531
-7.12807
-6.44055
-5.80815
-5.22619
-4.69231
-4.21606
-3.79447
-29.1708
-24.2442
-21.5584
-19.4002
-17.529
-15.9024
-14.4626
-13.1674
-11.9916
-10.9181
-9.9347
-9.03189
-8.20215
-7.43923
-6.73779
-6.09297
-5.4998
-4.95531
-4.46618
-4.026
-29.7829
-24.8456
-22.1422
-19.9601
-18.0608
-16.405
-14.9361
-13.6128
-12.4104
-11.3123
-10.3064
-9.38313
-8.53498
-7.7555
-7.03909
-6.38059
-5.77475
-5.21801
-4.71522
-4.25903
-30.4145
-25.466
-22.7407
-20.5339
-18.6053
-16.9189
-15.4198
-14.0674
-12.8376
-11.7141
-10.6849
-9.74051
-8.87325
-8.0765
-7.34439
-6.67151
-6.05236
-5.48304
-4.96711
-4.49697
-31.0644
-26.1042
-23.3531
-21.1208
-19.1616
-17.4433
-15.9128
-14.5304
-13.2723
-12.1227
-11.0696
-10.1035
-9.21665
-8.40216
-7.65397
-6.96641
-6.33385
-5.75215
-5.22378
-4.7411
-31.7314
-26.7581
-23.9794
-21.7198
-19.7289
-17.9775
-16.4145
-15.0011
-13.714
-12.5376
-11.46
-10.4718
-9.56489
-8.73236
-7.96788
-7.26557
-6.61969
-6.02589
-5.48565
-4.99133
-32.4142
-27.4263
-24.6188
-22.3302
-20.3061
-18.5205
-16.9241
-15.4788
-14.1619
-12.9581
-11.8556
-10.8448
-9.91763
-9.06688
-8.28603
-7.569
-6.90991
-6.30425
-5.75255
-5.24719
-33.1115
-28.1076
-25.2703
-22.9511
-20.8926
-19.0716
-17.4407
-15.9627
-14.6153
-13.3836
-12.2557
-11.2221
-10.2745
-9.4054
-8.60814
-7.87643
-7.20426
-6.5869
-6.024
-5.50796
-33.8221
-28.8009
-25.9328
-23.5815
-21.4872
-19.6298
-17.9635
-16.452
-15.0736
-13.8134
-12.6599
-11.6032
-10.6349
-9.74747
-8.93381
-8.18746
-7.50227
-6.87331
-6.29934
-5.77285
-34.5449
-29.5051
-26.6053
-24.2203
-22.0891
-20.1941
-18.4915
-16.9458
-15.5358
-14.2469
-13.0674
-11.9875
-10.9985
-10.0926
-9.2625
-8.50155
-7.80339
-7.16285
-6.57789
-6.04109
-35.2789
-30.219
-27.2865
-24.8666
-22.6972
-20.7637
-19.024
-17.4435
-16.0014
-14.6833
-13.4776
-12.3742
-11.3645
-10.4401
-9.59363
-8.8181
-8.10699
-7.45488
-6.85894
-6.31193
-36.0229
-30.9416
-27.9754
-25.5191
-23.3104
-21.3374
-19.5599
-17.9439
-16.4693
-15.1218
-13.8897
-12.7629
-11.7323
-10.7894
-9.92657
-9.13648
-8.41243
-7.74871
-7.14178
-6.58463
-36.7758
-31.6717
-28.6706
-26.1768
-23.9277
-21.9144
-20.0982
-18.4463
-16.9388
-15.5616
-14.303
-13.1527
-12.1012
-11.1399
-10.2607
-9.45605
-8.71905
-8.0437
-7.42574
-6.85852
-37.5365
-32.4078
-29.371
-26.8384
-24.5478
-22.4934
-20.638
-18.9497
-17.409
-16.002
-14.7168
-13.5429
-12.4705
-11.4908
-10.5953
-9.77615
-9.02621
-8.33919
-7.71019
-7.13297
-38.3045
-33.1489
-30.0751
-27.5026
-25.1697
-23.0733
-21.1782
-19.4531
-17.879
-16.442
-15.1302
-13.9327
-12.8396
-11.8415
-10.9297
-10.0961
-9.33327
-8.63457
-7.9945
-7.40737
-39.0812
-33.8946
-30.7816
-28.1679
-25.7917
-23.6527
-21.7175
-19.9554
-18.3478
-16.8808
-15.5424
-14.3214
-13.2076
-12.1913
-11.2633
-10.4153
-9.6396
-8.92921
-8.27808
-7.68118
-39.8669
-34.6435
-31.4884
-28.8326
-26.4127
-24.2307
-22.255
-20.4557
-18.8145
-17.3175
-15.9526
-14.7083
-13.5739
-12.5395
-11.5954
-10.7331
-9.94458
-9.22254
-8.56037
-7.95388
-40.6488
-35.3909
-32.1941
-29.4957
-27.0318
-24.8067
-22.7902
-20.9536
-19.2787
-17.7518
-16.3604
-15.0929
-13.9381
-12.8856
-11.9256
-11.0491
-10.2478
-9.51409
-8.84092
-8.22503
-6.71093
-4.6211
-3.27383
-2.2395
-1.51423
-0.981928
-0.600031
-0.329095
-0.14111
-0.014555
0.0669573
0.115922
0.141739
0.151494
0.150402
0.142285
0.129914
0.115262
0.0997179
0.0842357
0.0694509
0.0557704
0.0434256
0.0325375
0.0231226
0.0151657
0.00856611
0.00326777
-0.000909918
-0.0039881
-0.0062435
-0.00757114
-0.00842466
-0.0084225
-0.00836424
-0.00733078
-0.00674694
-0.00478247
-0.00379966
-0.000740064
-6.96459
-4.80204
-3.41911
-2.35391
-1.60473
-1.05515
-0.65977
-0.378453
-0.182272
-0.049131
0.0377713
0.0912126
0.120787
0.133726
0.135347
0.12955
0.119167
0.106218
0.0921322
0.0778976
0.0641775
0.0514032
0.0398271