/*--------------------------------*- C++ -*----------------------------------*\
| =========                 |                                                 |
| \\      /  F ield         | OpenFOAM: The Open Source CFD Toolbox           |
|  \\    /   O peration     | Version:  v1912                                 |
|   \\  /    A nd           | Website:  www.openfoam.com                      |
|    \\/     M anipulation  |                                                 |
\*---------------------------------------------------------------------------*/
FoamFile
{
    version     2.0;
    format      ascii;
    class       surfaceScalarField;
    location    "41";
    object      phi;
}
// * * * * * * * * * * * * * * * * * * * * * * * * * * * * * * * * * * * * * //

dimensions      [0 3 -1 0 0 0 0];
oriented        oriented;


internalField   nonuniform List<scalar> 
18940
(
0.000357508
-0.234376
0.234018
0.0013763
-0.216345
0.215327
0.00287736
-0.20481
0.203309
0.00469048
-0.197024
0.195211
0.00668506
-0.191263
0.189268
0.00875959
-0.186462
0.184388
0.0108404
-0.182034
0.179953
0.0128781
-0.177684
0.175646
0.0148427
-0.173287
0.171322
0.0167188
-0.168815
0.166939
0.0185016
-0.16429
0.162507
0.0201937
-0.159753
0.158061
0.021802
-0.155252
0.153643
0.0233363
-0.150831
0.149297
0.0248079
-0.146526
0.145054
0.0262284
-0.142361
0.140941
0.0276093
-0.138349
0.136969
0.0289611
-0.134488
0.133136
0.0302921
-0.130757
0.129426
-0.127116
0.125801
0.0316078
0.000380918
-0.234757
0.00141959
-0.217384
0.00293138
-0.206322
0.00474884
-0.198841
0.00673794
-0.193252
0.00879724
-0.188522
0.0108543
-0.184091
0.0128614
-0.179691
0.0147902
-0.175216
0.0166274
-0.170652
0.0183696
-0.166032
0.0200206
-0.161404
0.0215886
-0.15682
0.023084
-0.152326
0.0245184
-0.14796
0.0259037
-0.143747
0.0272517
-0.139697
0.0285733
-0.135809
0.0298772
-0.132061
-0.128409
0.0311696
0.000402332
-0.235159
0.00145723
-0.218439
0.00297774
-0.207843
0.0047958
-0.20066
0.0067758
-0.195232
0.0088162
-0.190562
0.0108459
-0.186121
0.0128188
-0.181664
0.0147088
-0.177106
0.0165042
-0.172448
0.0182034
-0.167731
0.0198114
-0.163012
0.0213372
-0.158346
0.022792
-0.153781
0.0241877
-0.149356
0.0255366
-0.145096
0.0268504
-0.141011
0.0281405
-0.137099
0.0294161
-0.133336
-0.129677
0.030684
0.000416196
-0.235575
0.00148614
-0.219509
0.00301454
-0.209371
0.00483063
-0.202476
0.00679816
-0.1972
0.00881613
-0.19258
0.0108149
-0.18812
0.0127505
-0.183599
0.0145987
-0.178954
0.0163497
-0.174199
0.0180036
-0.169385
0.0195667
-0.164575
0.0210488
-0.159828
0.0224617
-0.155194
0.0238175
-0.150712
0.0251287
-0.146407
0.0264073
-0.14229
0.0276648
-0.138357
0.0289111
-0.134583
-0.130919
0.0301537
0.000427458
-0.236003
0.00150966
-0.220591
0.00304311
-0.210905
0.00485399
-0.204287
0.0068055
-0.199151
0.00879747
-0.194572
0.010762
-0.190084
0.012657
-0.185494
0.0144606
-0.180758
0.0161649
-0.175903
0.0177715
-0.170991
0.0192878
-0.166091
0.0207247
-0.161265
0.0220943
-0.156564
0.0234091
-0.152027
0.0246816
-0.147679
0.025924
-0.143532
0.0271481
-0.139581
0.0283641
-0.135799
-0.132136
0.0295808
0.000436545
-0.236439
0.00152821
-0.221683
0.00306372
-0.21244
0.00486611
-0.206089
0.00679811
-0.201083
0.00876063
-0.196535
0.0106875
-0.192011
0.0125391
-0.187346
0.0142955
-0.182514
0.0159506
-0.177558
0.0175079
-0.172549
0.0189759
-0.167559
0.0203662
-0.162655
0.0216913
-0.157889
0.0229639
-0.153299
0.0241967
-0.148912
0.0254019
-0.144738
0.0265915
-0.14077
0.0277765
-0.136984
-0.133326
0.0289665
0.000444023
-0.236883
0.00154248
-0.222781
0.00307693
-0.213974
0.00486747
-0.207879
0.00677652
-0.202992
0.00870617
-0.198464
0.0105923
-0.193897
0.0123975
-0.189151
0.0141041
-0.18422
0.0157079
-0.179162
0.017214
-0.174055
0.018632
-0.168977
0.0199742
-0.163997
0.0212536
-0.159168
0.022483
-0.154529
0.023675
-0.150104
0.0248419
-0.145905
0.0259959
-0.141924
0.0271488
-0.138136
-0.134488
0.0283113
0.000450047
-0.237333
0.00155276
-0.223884
0.00308314
-0.215505
0.00485854
-0.209655
0.00674127
-0.204875
0.00863479
-0.200358
0.0104771
-0.19574
0.0122332
-0.190907
0.0138875
-0.185875
0.0154379
-0.180712
0.0168909
-0.175508
0.0182573
-0.170344
0.01955
-0.16529
0.0207823
-0.1604
0.0219672
-0.155714
0.0231172
-0.151254
0.0242445
-0.147032
0.0253617
-0.143042
0.0264813
-0.139256
-0.135622
0.0276151
0.000454723
-0.237788
0.00155937
-0.224989
0.0030828
-0.217028
0.0048399
-0.211412
0.00669305
-0.206728
0.0085473
-0.202212
0.0103429
-0.197535
0.0120472
-0.192611
0.0136469
-0.187474
0.0151418
-0.182207
0.0165398
-0.176906
0.0178529
-0.171657
0.0190946
-0.166531
0.0202784
-0.161584
0.0214173
-0.156853
0.0225238
-0.15236
0.02361
-0.148118
0.0246888
-0.14412
0.0257734
-0.140341
-0.136726
0.026877
0.000458125
-0.238246
0.00156257
-0.226093
0.00307638
-0.218542
0.00481217
-0.213148
0.00663267
-0.208549
0.00844467
-0.204024
0.0101908
-0.199281
0.0118407
-0.194261
0.0133836
-0.189017
0.014821
-0.183645
0.0161622
-0.178247
0.0174202
-0.172915
0.018609
-0.16772
0.0197427
-0.162718
0.0208339
-0.157944
0.021895
-0.153422
0.0229381
-0.149161
0.0239763
-0.145159
0.0250237
-0.141388
-0.137797
0.0260952
0.000460359
-0.238706
0.00156272
-0.227195
0.00306446
-0.220044
0.00477612
-0.214859
0.00656106
-0.210334
0.00832802
-0.205791
0.010022
-0.200975
0.0116153
-0.195855
0.0130991
-0.190501
0.014477
-0.185023
0.0157594
-0.179529
0.0169605
-0.174116
0.0180947
-0.168855
0.0191761
-0.163799
0.0202176
-0.158985
0.021231
-0.154435
0.0222285
-0.150159
0.0232233
-0.146153
0.0242305
-0.142395
-0.138834
0.025267
0.000461579
-0.239168
0.00156026
-0.228294
0.00304772
-0.221531
0.00473266
-0.216544
0.00647935
-0.21208
0.00819868
-0.20751
0.00983821
-0.202615
0.0113726
-0.197389
0.0127954
-0.191924
0.0141117
-0.186339
0.0153335
-0.180751
0.0164756
-0.175258
0.017553
-0.169932
0.0185799
-0.164826
0.0195691
-0.159974
0.0205321
-0.155398
0.0214808
-0.151107
0.0224285
-0.147101
0.0233917
-0.143358
-0.139832
0.0243893
0.000462065
-0.23963
0.0015558
-0.229388
0.00302701
-0.223003
0.00468283
-0.2182
0.00638883
-0.213786
0.0080582
-0.20918
0.00964107
-0.204198
0.0111146
-0.198863
0.0124744
-0.193284
0.0137274
-0.187592
0.0148866
-0.18191
0.0159676
-0.176339
0.0169859
-0.17095
0.0179557
-0.165796
0.0188895
-0.160908
0.0197987
-0.156307
0.0206946
-0.152003
0.0215908
-0.147997
0.0225048
-0.144272
-0.140785
0.0234582
0.000462296
-0.240092
0.00155022
-0.230476
0.00300338
-0.224456
0.0046279
-0.219825
0.00629097
-0.215449
0.00790829
-0.210797
0.00943265
-0.205722
0.0108437
-0.200274
0.0121389
-0.194579
0.0133269
-0.18878
0.0144217
-0.183005
0.0154394
-0.177356
0.0163959
-0.171907
0.0173054
-0.166705
0.0181802
-0.161783
0.0190312
-0.157158
0.0198694
-0.152841
0.0207081
-0.148836
0.0215659
-0.14513
-0.141687
0.0224675
0.000463072
-0.240555
0.00154466
-0.231557
0.00297805
-0.225889
0.00456921
-0.221416
0.00618738
-0.217067
0.0077509
-0.212361
0.0092152
-0.207186
0.0105623
-0.201621
0.0117917
-0.195808
0.0129134
-0.189902
0.0139422
-0.184034
0.0148947
-0.178309
0.0157868
-0.172799
0.0166326
-0.167551
0.017444
-0.162595
0.0182313
-0.157946
0.0190048
-0.153615
0.0197775
-0.149609
0.0205687
-0.145921
-0.142527
0.0214087
0.000465542
-0.241021
0.00154043
-0.232632
0.00295223
-0.227301
0.00450813
-0.222972
0.00607974
-0.218639
0.00758806
-0.213869
0.00899119
-0.208589
0.0102735
-0.202903
0.0114364
-0.196971
0.0124909
-0.190956
0.0134527
-0.184996
0.0143386
-0.179195
0.0151642
-0.173624
0.0159431
-0.16833
0.0166867
-0.163338
0.0174043
-0.158663
0.018105
-0.154316
0.0188008
-0.150304
0.0195122
-0.146633
-0.143293
0.0202784
0.000471094
-0.241492
0.00153885
-0.2337
0.00292723
-0.228689
0.00444622
-0.224491
0.00596991
-0.220163
0.00742198
-0.215321
0.00876326
-0.209931
0.00998044
-0.20412
0.0110766
-0.198067
0.0120639
-0.191943
0.0129584
-0.18589
0.0137768
-0.180013
0.0145344
-0.174382
0.0152441
-0.16904
0.0159164
-0.16401
0.0165595
-0.159306
0.0171809
-0.154937
0.0177906
-0.150914
0.0184093
-0.147252
-0.14396
0.0190769
0.00048206
-0.241974
0.00154255
-0.23476
0.00290553
-0.230052
0.0043856
-0.225971
0.00585984
-0.221637
0.00725477
-0.216716
0.00853395
-0.21121
0.0096863
-0.205273
0.0107165
-0.199097
0.0116374
-0.192864
0.0124653
-0.186718
0.0132163
-0.180764
0.0139049
-0.175071
0.0145427
-0.169678
0.0151391
-0.164607
0.0157013
-0.159868
0.0162358
-0.155472
0.0167491
-0.151427
0.0172539
-0.147756
-0.144481
0.0177745
0.000506019
-0.24248
0.00155874
-0.235813
0.00289118
-0.231385
0.00432816
-0.227408
0.00575078
-0.22306
0.00708785
-0.218053
0.00830527
-0.212427
0.00939403
-0.206361
0.0103602
-0.200064
0.0112173
-0.193721
0.0119814
-0.187482
0.0126677
-0.18145
0.0132886
-0.175691
0.0138532
-0.170242
0.0143674
-0.165121
0.0148348
-0.160336
0.0152572
-0.155894
0.0156336
-0.151804
0.0159684
-0.148091
-0.144836
0.0163236
0.000563088
-0.243043
0.00159572
-0.236846
0.00288392
-0.232673
0.00427272
-0.228797
0.00564223
-0.224429
0.00692162
-0.219332
0.00807854
-0.213584
0.00910593
-0.207389
0.0100114
-0.200969
0.0108093
-0.194519
0.0115157
-0.188189
0.0121451
-0.18208
0.0127079
-0.176254
0.0132098
-0.170744
0.0136506
-0.165562
0.0140229
-0.160708
0.0143098
-0.156181
0.0144853
-0.151979
0.0145441
-0.14815
-0.145007
0.0147153
0.250716
0.000414648
-0.251131
0.250328
0.000388278
0.249947
0.000380999
0.249566
0.000381123
0.249182
0.000384061
0.248793
0.000388464
0.248399
0.000393609
0.248001
0.000398906
0.247597
0.000403964
0.247188
0.000408577
0.246775
0.000412649
0.246359
0.000416152
0.24594
0.00041907
0.245519
0.000421379
0.245096
0.000422954
0.244672
0.00042359
0.24425
0.000422239
0.243832
0.000418352
0.243429
0.000402729
0.000385625
0.252666
0.00102244
-0.253274
0.252023
0.0010316
0.251351
0.00105265
0.250653
0.0010796
0.249929
0.00110793
0.249181
0.00113627
0.248411
0.00116414
0.247618
0.00119107
0.246806
0.00121661
0.245974
0.00124052
0.245124
0.00126269
0.244257
0.00128309
0.243374
0.00130171
0.242477
0.00131854
0.241566
0.00133346
0.240644
0.00134625
0.23971
0.0013558
0.238767
0.00136185
0.237811
0.00135813
0.00135128
0.251432
0.00159371
-0.252004
0.250796
0.00166754
0.250107
0.00174158
0.24937
0.00181673
0.248588
0.00189063
0.247762
0.00196207
0.246895
0.00203073
0.24599
0.00209636
0.245048
0.00215873
0.244071
0.00221768
0.24306
0.00227315
0.242018
0.0023252
0.240946
0.00237391
0.239845
0.00241938
0.238717
0.00246164
0.237562
0.00250071
0.236382
0.00253608
0.235176
0.00256799
0.23394
0.00259406
0.00261845
0.247317
0.00203665
-0.247759
0.246804
0.00218006
0.246227
0.00231886
0.245589
0.00245448
0.244893
0.00258626
0.244142
0.00271342
0.243337
0.0028356
0.242481
0.00295266
0.241575
0.00306445
0.240622
0.00317089
0.239623
0.003272
0.23858
0.00336792
0.237495
0.00345884
0.23637
0.00354505
0.235205
0.00362682
0.234001
0.00370452
0.232759
0.00377823
0.231478
0.00384859
0.230157
0.00391487
0.00397907
0.241062
0.00231544
-0.241341
0.240712
0.00253008
0.240293
0.00273796
0.239807
0.00293991
0.239258
0.00313589
0.238646
0.00332545
0.237973
0.00350824
0.237242
0.00368408
0.236453
0.00385285
0.23561
0.0040145
0.234713
0.00416912
0.233764
0.00431689
0.232764
0.00445815
0.231716
0.00459336
0.23062
0.00472306
0.229476
0.00484794
0.228286
0.00496859
0.227049
0.00508598
0.225763
0.00520027
0.00531311
0.233461
0.00243872
-0.233584
0.233267
0.0027239
0.233004
0.00300115
0.232673
0.00327077
0.232276
0.0035328
0.231814
0.00378693
0.23129
0.00403283
0.230703
0.00427028
0.230057
0.00449912
0.229352
0.00471934
0.22859
0.00493103
0.227773
0.00513444
0.226901
0.00533
0.225976
0.00551836
0.224999
0.00570029
0.22397
0.00587685
0.222889
0.00604909
0.221757
0.00621838
0.220572
0.00638558
0.00655253
0.225215
0.00243698
-0.225213
0.225148
0.00279014
0.225015
0.00313462
0.224815
0.00347035
0.224551
0.00379726
0.224223
0.00411508
0.223832
0.00442346
0.22338
0.00472213
0.222868
0.00501091
0.222298
0.00528975
0.22167
0.00555874
0.220987
0.00581818
0.220248
0.00606859
0.219456
0.00631075
0.21861
0.00654572
0.217712
0.00677489
0.216761
0.0069998
0.215757
0.00722235
0.214699
0.00744408
0.00766715
0.216851
0.00234635
-0.21676
0.216877
0.00276395
0.21684
0.00317227
0.216739
0.00357102
0.216576
0.00395998
0.216352
0.00433885
0.216069
0.00470724
0.215726
0.00506481
0.215325
0.00541135
0.214868
0.00574674
0.214356
0.00607107
0.21379
0.00638463
0.21317
0.006688
0.212499
0.0069821
0.211776
0.00726825
0.211003
0.00754821
0.210179
0.00782406
0.209303
0.00809834
0.208374
0.00837339
0.00865191
0.208717
0.00220011
-0.20857
0.208802
0.00267836
0.208828
0.00314677
0.208794
0.0036049
0.208701
0.00405242
0.208551
0.00448894
0.208344
0.00491402
0.208082
0.00532726
0.207765
0.00572835
0.207395
0.00611712
0.206972
0.00649359
0.206499
0.00685802
0.205976
0.00721103
0.205404
0.00755362
0.204785
0.00788735
0.204119
0.00821434
0.203406
0.00853735
0.202644
0.00885965
0.201833
0.00918468
0.00951596
0.201011
0.0020252
-0.200836
0.201129
0.00256053
0.20119
0.00308545
0.201196
0.00359941
0.201146
0.00410198
0.201043
0.00459267
0.200886
0.00507098
0.200677
0.0055364
0.200416
0.00598855
0.200106
0.00642714
0.199748
0.00685211
0.199342
0.00726362
0.198891
0.00766226
0.198395
0.00804906
0.197857
0.00842579
0.197276
0.00879491
0.196654
0.00915991
0.195989
0.00952497
0.195278
0.00989501
0.0102748
0.193828
0.00184146
-0.193645
0.193958
0.00243077
0.194034
0.00300908
0.194058
0.00357574
0.19403
0.0041302
0.193951
0.0046719
0.193821
0.00520022
0.193643
0.00571458
0.193417
0.00621446
0.193145
0.00669944
0.192828
0.00716932
0.192467
0.00762412
0.192065
0.00806429
0.191624
0.00849079
0.191144
0.00890554
0.190628
0.00931119
0.190075
0.00971216
0.189487
0.0101135
0.188859
0.0105224
0.0109453
0.187191
0.00166228
-0.187011
0.187318
0.00230306
0.187395
0.00293224
0.187422
0.00354901
0.187399
0.00415273
0.187328
0.00474276
0.18721
0.00531836
0.187046
0.00587885
0.186837
0.00642356
0.186584
0.00695191
0.18629
0.0074635
0.185956
0.00795811
0.185585
0.008436
0.185177
0.00889787
0.184737
0.00934566
0.184267
0.00978198
0.183766
0.0102124
0.183237
0.0106425
0.182677
0.011083
0.0115423
0.181078
0.001496
-0.180912
0.181195
0.0021864
0.181263
0.00286447
0.181282
0.00352928
0.181255
0.00418016
0.181181
0.00481634
0.181063
0.00543702
0.1809
0.00604134
0.180695
0.00662851
0.180449
0.00719774
0.180165
0.00774838
0.179843
0.00827988
0.179487
0.00879218
0.179099
0.0092855
0.178683
0.00976168
0.178242
0.0102228
0.177779
0.0106757
0.177296
0.0111259
0.176789
0.0115898
0.0120768
0.175449
0.00134745
-0.175301
0.17555
0.00208596
0.175603
0.00281134
0.175609
0.00352263
0.17557
0.00421904
0.175487
0.0048997
0.17536
0.0055637
0.175192
0.00621007
0.174982
0.00683784
0.174734
0.00744599
0.174449
0.00803358
0.174129
0.00859965
0.173778
0.0091437
0.173398
0.00966517
0.172994
0.0101656
0.172571
0.0106457
0.172133
0.0111142
0.171684
0.0115742
0.171222
0.0120521
0.0125545
0.170251
0.0012189
-0.170122
0.170333
0.00200443
0.170368
0.00277588
0.170358
0.00353236
0.170304
0.00427297
0.170207
0.00499676
0.170068
0.00570272
0.169889
0.00638974
0.16967
0.00705666
0.169414
0.00770226
0.169122
0.00832524
0.168797
0.00892417
0.168443
0.00949796
0.168063
0.010045
0.167663
0.0105663
0.167248
0.01106
0.166825
0.0115372
0.166405
0.0119944
0.165982
0.0124756
0.0129743
0.165429
0.00111115
-0.165322
0.165491
0.0019426
0.165508
0.00275907
0.165481
0.00355964
0.16541
0.00434334
0.165298
0.00510913
0.165145
0.00585589
0.164952
0.00658241
0.164721
0.00728737
0.164454
0.00796927
0.164153
0.00862649
0.16382
0.00925709
0.163459
0.00985928
0.163074
0.0104302
0.16267
0.0109698
0.162258
0.0114725
0.161843
0.0119519
0.161446
0.0123913
0.161058
0.0128638
0.0133241
0.160932
0.00102368
-0.160844
0.160974
0.00190001
0.160973
0.00276049
0.160929
0.0036041
0.160842
0.00442982
0.160715
0.00523653
0.160548
0.00602303
0.160342
0.006788
0.160099
0.00752995
0.159821
0.00824717
0.15951
0.00893773
0.159168
0.00959918
0.158798
0.010229
0.158406
0.0108228
0.157996
0.0113793
0.157581
0.0118875
0.15717
0.0123635
0.156793
0.0127679
0.156435
0.0132219
0.0135781
0.156711
0.000954674
-0.156642
0.156736
0.00187511
0.156718
0.00277843
0.156659
0.00366393
0.156558
0.00453047
0.156418
0.00537687
0.156239
0.00620188
0.156023
0.0070041
0.155771
0.0077819
0.155484
0.0085334
0.155166
0.00925638
0.154817
0.00994797
0.154441
0.010605
0.154042
0.0112216
0.153627
0.0117948
0.153207
0.0123069
0.152795
0.0127754
0.15244
0.0131233
0.152106
0.0135555
0.0137052
0.152725
0.000902173
-0.152673
0.152735
0.00186504
0.152704
0.00280968
0.152633
0.00373552
0.152522
0.00464126
0.152373
0.0055257
0.152187
0.00638758
0.151966
0.00722541
0.15171
0.00803747
0.151422
0.00882176
0.151103
0.00957588
0.150754
0.0102966
0.150379
0.0109803
0.14998
0.01162
0.149564
0.0122114
0.149141
0.0127291
0.148726
0.013191
0.148391
0.0134577
0.148099
0.0138483
0.0136538
0.148934
-0.148897
0.000864614
0.148934
0.00186587
0.148893
0.00284987
0.148815
0.00381383
0.1487
0.00475637
0.148549
0.00567641
0.148364
0.0065727
0.148146
0.00744369
0.147896
0.00828762
0.147615
0.00910238
0.147305
0.00988552
0.146968
0.0106336
0.146606
0.011343
0.14622
0.0120056
0.145814
0.0126173
0.145397
0.0131462
0.144974
0.013614
0.144623
0.0138084
0.144366
0.0141059
0.0130123
0.254349
7.40619e-05
-0.254423
0.254312
3.63441e-05
0.25428
3.24796e-05
0.254238
4.13832e-05
0.254183
5.5787e-05
0.254109
7.36119e-05
0.254016
9.35553e-05
0.253901
0.000114493
0.253765
0.000135613
0.253609
0.000156406
0.253433
0.000176434
0.253237
0.000195415
0.253023
0.000213838
0.252791
0.000232755
0.252541
0.000250033
0.252275
0.000265199
0.251997
0.00027785
0.25171
0.000287897
0.25142
0.00028948
0.000289477
0.256189
-0.00024118
-0.255874
0.256443
-0.000217322
0.256652
-0.000176491
0.256816
-0.000122783
0.256935
-6.27108e-05
0.257007
1.12121e-06
0.257033
6.75701e-05
0.257012
0.000135545
0.256944
0.000204123
0.256828
0.000272372
0.256665
0.000339047
0.256457
0.000402911
0.256209
0.000462732
0.255911
0.000529972
0.25557
0.000591652
0.255186
0.000648749
0.254763
0.000701144
0.254302
0.000748773
0.253804
0.000786983
0.000819992
0.251613
-0.000897146
-0.250957
0.252196
-0.000800418
0.252714
-0.000693842
0.253169
-0.000577581
0.253561
-0.000455147
0.253891
-0.000328785
0.254158
-0.00019964
0.254363
-6.91222e-05
0.254504
6.27783e-05
0.254581
0.000195505
0.254595
0.0003252
0.254546
0.000451488
0.254432
0.000576662
0.254261
0.000701558
0.25403
0.00082232
0.253741
0.000938076
0.253394
0.00104835
0.252989
0.00115302
0.252526
0.00125017
0.00134257
0.24329
-0.0018317
-0.242355
0.244152
-0.0016623
0.244944
-0.00148563
0.245667
-0.00130095
0.246322
-0.00110994
0.246907
-0.000914403
0.247424
-0.000715685
0.247869
-0.000515049
0.248245
-0.000313184
0.248548
-0.000107329
0.248779
9.43671e-05
0.248942
0.000288852
0.249033
0.000485271
0.249056
0.000678672
0.24901
0.000867997
0.248896
0.00105234
0.248713
0.00123094
0.248463
0.00140344
0.248144
0.00156878
0.0017275
0.233206
-0.00296486
-0.232073
0.234271
-0.00272733
0.235268
-0.00248228
0.236196
-0.00222929
0.237056
-0.00196928
0.237845
-0.00170374
0.238563
-0.0014341
0.23921
-0.00116156
0.239784
-0.000887097
0.240288
-0.000611485
0.24072
-0.000337945
0.241077
-6.79051e-05
0.241362
0.000200716
0.241574
0.000466005
0.241715
0.000727575
0.241783
0.000983983
0.241779
0.0012345
0.241704
0.00147852
0.241558
0.00171523
0.00194457
0.22265
-0.00422437
-0.22139
0.223846
-0.00392357
0.224978
-0.0036137
0.226043
-0.0032949
0.227042
-0.00296798
0.227972
-0.00263437
0.228834
-0.00229564
0.229626
-0.00195324
0.230347
-0.00160863
0.230999
-0.00126315
0.231579
-0.000918349
0.232087
-0.000575531
0.232523
-0.000235554
0.232889
0.000100042
0.233184
0.000432747
0.233406
0.000761444
0.233558
0.00108345
0.233637
0.0013987
0.233646
0.00170656
0.00200679
0.212405
-0.00555269
-0.211076
0.213674
-0.00519283
0.214882
-0.00482178
0.216027
-0.00444018
0.217108
-0.00404909
0.218124
-0.00365011
0.219073
-0.00324504
0.219956
-0.00283564
0.220771
-0.00242354
0.221518
-0.0020102
0.222196
-0.00159702
0.222806
-0.00118543
0.223347
-0.000776201
0.223817
-0.000370085
0.224225
2.5237e-05
0.22456
0.000426087
0.224826
0.000817306
0.225024
0.00120121
0.225152
0.00157772
0.00194643
0.202881
-0.00690811
-0.201525
0.20418
-0.0064925
0.205422
-0.00606331
0.206603
-0.00562155
0.207723
-0.00516871
0.20878
-0.00470681
0.209773
-0.00423796
0.210701
-0.00376419
0.211565
-0.00328733
0.212364
-0.002809
0.213097
-0.00233067
0.213766
-0.00185371
0.214369
-0.0013792
0.214907
-0.000908096
0.215374
-0.000441761
0.215786
1.36883e-05
0.216127
0.000476658
0.216403
0.000924874
0.216614
0.00136654
0.00180031
0.194237
-0.00826286
-0.192882
0.195539
-0.00779404
0.196784
-0.00730894
0.197972
-0.0068089
0.199099
-0.00629607
0.200165
-0.00577305
0.20117
-0.00524239
0.202112
-0.00470643
0.202992
-0.00416721
0.203809
-0.00362652
0.204565
-0.00308591
0.205258
-0.00254669
0.205888
-0.00201005
0.206457
-0.00147692
0.206964
-0.000948705
0.207405
-0.00042671
0.207791
9.05698e-05
0.208112
0.000603669
0.208372
0.00110663
0.00160173
0.186481
-0.0096002
-0.185144
0.187767
-0.00908014
0.188999
-0.00854061
0.190173
-0.00798333
0.191289
-0.00741146
0.192344
-0.00682841
0.193339
-0.00623726
0.194273
-0.0056407
0.195147
-0.00504102
0.195961
-0.00444011
0.196714
-0.00383955
0.197408
-0.00324066
0.198043
-0.00264457
0.198618
-0.00205226
0.199134
-0.00146472
0.19959
-0.000882872
0.199988
-0.000307442
0.20033
0.000261991
0.200612
0.000824446
0.00137742
0.179541
-0.0109114
-0.17823
0.180803
-0.0103419
0.182011
-0.0097487
0.183162
-0.00913439
0.184254
-0.00850368
0.185287
-0.00786103
0.186259
-0.0072101
0.187173
-0.00655399
0.188027
-0.00589521
0.188823
-0.00523572
0.18956
-0.00457709
0.19024
-0.00392057
0.190863
-0.00326723
0.191428
-0.002618
0.191937
-0.00197373
0.19239
-0.00133528
0.192786
-0.000703179
0.193128
-8.03556e-05
0.193414
0.000538533
0.00114667
0.173313
-0.0121936
-0.17203
0.174547
-0.0115762
0.175728
-0.0109296
0.176851
-0.0102576
0.177915
-0.00956759
0.178919
-0.00886518
0.179864
-0.00815468
0.180749
-0.00743961
0.181577
-0.00672266
0.182347
-0.00600581
0.18306
-0.00529053
0.183718
-0.00457796
0.18432
-0.00386908
0.184866
-0.00316475
0.185358
-0.00246573
0.185796
-0.00177286
0.18618
-0.00108688
0.186509
-0.000409366
0.186787
0.000259853
0.000922575
0.167686
-0.0134475
-0.166433
0.168895
-0.0127847
0.170049
-0.0120837
0.171144
-0.0113527
0.172179
-0.0106022
0.173153
-0.00983934
0.174067
-0.00906898
0.174923
-0.00829513
0.175721
-0.00752057
0.176462
-0.00674718
0.177148
-0.00597626
0.177779
-0.00520882
0.178355
-0.00444568
0.178878
-0.0036876
0.179348
-0.00293531
0.179764
-0.00218959
0.180128
-0.00145095
0.180439
-0.0007201
0.180703
-3.82074e-06
0.00071348
0.162563
-0.0146768
-0.161334
0.16375
-0.0139719
0.164881
-0.0132147
0.165951
-0.012422
0.166958
-0.0116093
0.167903
-0.0107845
0.168787
-0.00995343
0.169613
-0.00912051
0.170381
-0.0082885
0.171092
-0.00745902
0.171749
-0.00663315
0.172352
-0.00581167
0.172902
-0.00499521
0.173399
-0.00418441
0.173843
-0.00337993
0.174236
-0.00258249
0.174578
-0.00179274
0.17487
-0.00101202
0.175108
-0.000242109
0.000521012
0.157859
-0.0158884
-0.156648
0.159033
-0.0151456
0.160146
-0.0143282
0.161194
-0.0134701
0.162177
-0.0125919
0.163095
-0.0117026
0.163951
-0.0108091
0.164746
-0.00991632
0.165484
-0.00902662
0.166167
-0.00814127
0.166795
-0.00726094
0.167369
-0.00638608
0.167891
-0.00551709
0.168361
-0.00465444
0.16878
-0.00379868
0.169148
-0.0029505
0.169466
-0.00211066
0.169734
-0.00128011
0.169952
-0.000459966
0.000350017
0.153512
-0.0170947
-0.152306
0.154682
-0.016316
0.155785
-0.0154311
0.156817
-0.0145015
0.157777
-0.0135522
0.158669
-0.0125941
0.159495
-0.0116358
0.160261
-0.010682
0.160969
-0.0097343
0.161621
-0.00879335
0.162219
-0.00785919
0.162765
-0.00693178
0.163259
-0.00601115
0.163702
-0.00509756
0.164095
-0.00419146
0.164438
-0.00329346
0.164731
-0.00240431
0.164976
-0.00152482
0.165172
-0.000656214
0.000200553
0.149476
-0.0183248
-0.148246
0.150659
-0.0174985
0.151757
-0.0165296
0.152774
-0.0155187
0.153711
-0.014489
0.154573
-0.013456
0.155368
-0.0124303
0.1561
-0.0114148
0.156776
-0.0104095
0.157396
-0.00941389
0.157964
-0.00842714
0.158481
-0.00744844
0.158947
-0.00647741
0.159363
-0.00551404
0.159731
-0.00455868
0.160049
-0.00361185
0.160319
-0.00267432
0.160541
-0.00174696
0.160716
-0.000830757
7.19436e-05
0.145722
-0.0196433
-0.144404
0.146938
-0.0187147
0.148033
-0.0176244
0.149031
-0.0165164
0.149936
-0.015394
0.15076
-0.0142801
0.151516
-0.0131861
0.152211
-0.0121102
0.152851
-0.0110494
0.153439
-0.0100015
0.153976
-0.00896434
0.154464
-0.00793628
0.154903
-0.00691648
0.155294
-0.00590475
0.155636
-0.00490135
0.155931
-0.00390682
0.156179
-0.00292194
0.15638
-0.00194776
0.156534
-0.000985276
-3.64264e-05
0.142265
-0.02112
-0.140789
0.143513
-0.019962
0.144586
-0.0186972
0.145541
-0.0174722
0.146398
-0.0162505
0.147173
-0.0150556
0.147884
-0.0138965
0.148538
-0.0127648
0.149142
-0.0116529
0.149696
-0.0105563
0.150204
-0.00947162
0.150664
-0.0083965
0.151077
-0.00732978
0.151444
-0.00627122
0.151763
-0.00522111
0.152037
-0.00418006
0.152264
-0.00314895
0.152445
-0.00212893
0.152581
-0.00112151
-0.00012823
0.139175
-0.137759
-0.0225366
0.140336
-0.0211227
0.141369
-0.01973
0.142245
-0.0183484
0.143034
-0.0170391
0.143757
-0.0157787
0.144422
-0.0145611
0.145036
-0.0133791
0.145604
-0.0122215
0.146129
-0.0110804
0.146608
-0.00995096
0.147042
-0.00883082
0.147431
-0.0077188
0.147775
-0.0066148
0.148073
-0.00551928
0.148326
-0.00443303
0.148534
-0.00335703
0.148697
-0.00229229
0.148816
-0.00124038
-0.000208782
0.0307828
0.111984
-0.110502
-0.0322645
0.0292738
0.114991
-0.113482
0.0277348
0.11813
-0.116591
0.0261624
0.121426
-0.119854
0.0245532
0.12491
-0.123301
0.0229044
0.128625
-0.126976
0.0212139
0.132629
-0.130938
0.0194803
0.137
-0.135267
0.0177029
0.141844
-0.140066
0.0158822
0.14729
-0.145469
0.0140198
0.153499
-0.151637
0.01212
0.160659
-0.158759
0.0101916
0.168969
-0.167041
0.00825147
0.178619
-0.176678
0.00632928
0.18973
-0.187807
0.00447517
0.202267
-0.200412
0.00276884
0.215893
-0.214187
0.00133063
0.229754
-0.228316
0.000329688
0.242071
-0.24107
0.249714
-0.249384
0.0305951
0.113458
-0.0320694
0.0290936
0.116492
0.0275624
0.119662
0.0259979
0.122991
0.0243968
0.126512
0.0227563
0.130266
0.021074
0.134311
0.0193486
0.138726
0.0175791
0.143613
0.0157659
0.149103
0.0139109
0.155354
0.0120187
0.162551
0.0100987
0.170889
0.00816839
0.180549
0.00625877
0.191639
0.00442146
0.204104
0.00273761
0.217577
0.00132703
0.231165
0.000353475
0.243045
0.250067
0.0303654
0.114923
-0.0318301
0.0288737
0.117984
0.0273524
0.121183
0.0257981
0.124545
0.0242073
0.128102
0.0225772
0.131896
0.0209055
0.135983
0.0191903
0.140441
0.017431
0.145372
0.0156278
0.150906
0.0137827
0.157199
0.0119005
0.164433
0.00999127
0.172798
0.00807323
0.182467
0.00617835
0.193534
0.00435926
0.205923
0.00269764
0.219238
0.00131167
0.232551
0.000356574
0.244
0.250424
0.0300955
0.116376
-0.0315484
0.0286157
0.119464
0.0271065
0.122692
0.0255644
0.126087
0.023986
0.129681
0.0223683
0.133514
0.0207091
0.137642
0.0190064
0.142144
0.0172594
0.147119
0.0154684
0.152697
0.0136354
0.159032
0.0117656
0.166303
0.00986933
0.174695
0.00796571
0.184371
0.00608745
0.195412
0.00428792
0.207722
0.00264893
0.220877
0.00128701
0.233913
0.000351536
0.244935
0.250775
0.0297876
0.117815
-0.0312268
0.0283216
0.12093
0.0268263
0.124187
0.0252982
0.127615
0.023734
0.131245
0.0221307
0.135117
0.0204858
0.139287
0.0187975
0.143832
0.0170648
0.148852
0.015288
0.154474
0.0134692
0.160851
0.0116139
0.168158
0.00973287
0.176576
0.00784579
0.186258
0.00598617
0.197272
0.00420803
0.209501
0.00259323
0.222492
0.00125664
0.235249
0.000342643
0.245849
0.251118
0.0294443
0.119239
-0.0308682
0.0279936
0.122381
0.0265138
0.125667
0.0250013
0.129128
0.0234529
0.132793
0.0218655
0.136704
0.0202367
0.140916
0.0185645
0.145504
0.0168479
0.150569
0.0150872
0.156235
0.0132846
0.162654
0.0114458
0.169997
0.00958212
0.178439
0.00771372
0.188126
0.00587488
0.199111
0.00412023
0.211255
0.00253154
0.224081
0.00122192
0.236559
0.000331065
0.24674
0.251449
0.0290683
0.120647
-0.0304759
0.027634
0.123815
0.0261709
0.12713
0.0246754
0.130623
0.023144
0.134325
0.0215739
0.138274
0.0199626
0.142527
0.018308
0.147159
0.0166092
0.152267
0.0148664
0.157978
0.0130819
0.164438
0.0112617
0.171817
0.00941737
0.180284
0.00756979
0.189974
0.0057539
0.200927
0.00402487
0.212984
0.00246428
0.225641
0.0011834
0.23784
0.000317507
0.247606
0.251767
0.0286624
0.122037
-0.0300532
0.0272454
0.125232
0.0257998
0.128576
0.024322
0.132101
0.0228087
0.135838
0.021257
0.139826
0.0196644
0.14412
0.018029
0.148794
0.0163494
0.153947
0.0146262
0.159701
0.0128616
0.166203
0.0110618
0.173617
0.00923891
0.182107
0.00741428
0.191798
0.00562351
0.202717
0.00392224
0.214686
0.00239181
0.227172
0.00114162
0.23909
0.000302573
0.248445
0.252069
0.0282297
0.123411
-0.0296035
0.02683
0.126632
0.0254022
0.130004
0.0239427
0.13356
0.0224482
0.137333
0.0209159
0.141358
0.0193431
0.145693
0.0177278
0.150409
0.016069
0.155606
0.0143668
0.161403
0.0126239
0.167946
0.0108465
0.175394
0.00904699
0.183906
0.00724741
0.193598
0.00548395
0.204481
0.00381265
0.216357
0.00231452
0.22867
0.00109704
0.240307
0.000286678
0.249255
0.252356
0.0277728
0.124769
-0.0291304
0.0263899
0.128015
0.0249798
0.131414
0.0235388
0.135001
0.0220635
0.138808
0.020551
0.142871
0.0189989
0.147245
0.017405
0.152003
0.0157682
0.157243
0.0140887
0.163082
0.0123691
0.169665
0.0106158
0.177148
0.0088418
0.18568
0.00706942
0.19537
0.00533549
0.206215
0.0036964
0.217996
0.00223274
0.230134
0.00105003
0.24149
0.000270068
0.250035
0.252626
0.0272942
0.126112
-0.0286371
0.025927
0.129382
0.0245339
0.132807
0.023111
0.136424
0.0216549
0.140264
0.0201629
0.144363
0.0186322
0.148775
0.0170607
0.153575
0.0154472
0.158856
0.0137918
0.164738
0.0120972
0.17136
0.0103701
0.178875
0.00862351
0.187427
0.0068805
0.197113
0.00517834
0.207917
0.00357374
0.219601
0.00214679
0.231561
0.00100086
0.242636
0.000252902
0.250783
0.252879
0.0267953
0.127442
-0.0281261
0.025442
0.130735
0.0240646
0.134184
0.0226593
0.13783
0.0212224
0.141701
0.0197512
0.145834
0.0182427
0.150284
0.0166947
0.155123
0.0151058
0.160445
0.0134761
0.166368
0.0118083
0.173028
0.0101092
0.180574
0.0083922
0.189144
0.00668078