/*--------------------------------*- C++ -*----------------------------------*\
  =========                 |
  \\      /  F ield         | OpenFOAM: The Open Source CFD Toolbox
   \\    /   O peration     | Website:  https://openfoam.org
    \\  /    A nd           | Version:  6.0
     \\/     M anipulation  |
\*---------------------------------------------------------------------------*/
FoamFile
{
    version     2.0;
    format      ascii;
    class       volVectorField;
    location    "1.75";
    object      U;
}
// * * * * * * * * * * * * * * * * * * * * * * * * * * * * * * * * * * * * * //

dimensions      [0 1 -1 0 0 0 0];

internalField   nonuniform List<vector> 
2400
(
(3.98529 -16.0461 -5.2794e-19)
(0.213227 -14.6375 1.72383e-19)
(0.277326 -12.8563 -9.43884e-20)
(0.430148 -11.032 -4.1494e-20)
(0.382535 -9.40598 -4.54929e-20)
(0.332264 -7.97953 5.89497e-20)
(0.29917 -6.74733 1.56511e-20)
(0.273661 -5.70363 6.48532e-21)
(0.258316 -4.83542 -1.43137e-20)
(0.232251 -4.12699 -5.38421e-22)
(5.23491 -15.6905 6.31159e-19)
(1.36619 -14.5928 3.80176e-21)
(1.28961 -12.813 1.02326e-19)
(1.29841 -10.9797 4.24372e-19)
(1.12305 -9.35986 -2.33316e-19)
(0.961006 -7.94029 -1.23894e-20)
(0.831582 -6.71411 -1.68159e-21)
(0.724757 -5.67653 -1.46683e-20)
(0.641997 -4.81459 -1.44937e-20)
(0.560992 -4.1138 1.23622e-21)
(6.45466 -15.2395 1.06789e-18)
(2.51172 -14.4579 5.85115e-19)
(2.29571 -12.6895 -1.18976e-18)
(2.16006 -10.8584 2.77721e-19)
(1.85761 -9.25511 2.61752e-19)
(1.58449 -7.85147 -1.42208e-19)
(1.35947 -6.63912 -7.58969e-20)
(1.17218 -5.61427 3.78152e-20)
(1.02285 -4.76427 -6.77381e-20)
(0.887632 -4.07632 5.88114e-20)
(7.6358 -14.6947 -3.6389e-18)
(3.64434 -14.2341 8.56784e-19)
(3.28933 -12.4876 -7.59114e-19)
(3.00955 -10.67 2.36167e-19)
(2.58147 -9.09328 -1.81468e-19)
(2.1987 -7.71438 1.86075e-19)
(1.87939 -6.5234 1.65073e-20)
(1.61298 -5.5176 -1.91563e-19)
(1.39835 -4.68503 -1.06395e-19)
(1.21009 -4.01513 9.96949e-20)
(8.77221 -14.0594 2.54089e-19)
(4.75649 -13.9219 -3.45829e-19)
(4.26424 -12.2077 -1.3801e-19)
(3.84146 -10.4148 -1.37055e-19)
(3.28998 -8.87473 -4.52265e-19)
(2.79961 -7.52937 5.14065e-20)
(2.38777 -6.36727 -2.6055e-20)
(2.04389 -5.38672 1.70655e-19)
(1.7655 -4.57693 -1.09327e-19)
(1.52573 -3.93022 -4.21274e-20)
(9.85632 -13.3368 3.06387e-18)
(5.84162 -13.5231 -1.77167e-19)
(5.21418 -11.8516 1.79397e-18)
(4.65037 -10.0949 -2.4847e-19)
(3.97861 -8.60123 4.90822e-19)
(3.38348 -7.29807 -6.73692e-20)
(2.88147 -6.1722 1.12509e-20)
(2.46205 -5.22283 1.56035e-19)
(2.12152 -4.44076 -7.59002e-20)
(1.83194 -3.82183 6.30503e-20)
(10.8821 -12.5314 -1.27831e-18)
(6.89284 -13.0395 7.33355e-20)
(6.13292 -11.4209 -5.17786e-19)
(5.43072 -9.71127 -2.46158e-19)
(4.64252 -8.27389 8.47744e-20)
(3.94633 -7.02165 6.30976e-19)
(3.3574 -5.93957 -2.03731e-19)
(2.86512 -5.02752 1.9317e-20)
(2.46451 -4.27808 -1.81422e-19)
(2.12717 -3.69147 -4.7839e-20)
(11.8436 -11.6481 4.78729e-18)
(7.90421 -12.4738 -7.1636e-19)
(7.01472 -10.9178 -2.59396e-18)
(6.17706 -9.2662 1.12496e-19)
(5.27649 -7.89432 2.60312e-19)
(4.48319 -6.70127 -2.92839e-19)
(3.81115 -5.67036 -2.64049e-19)
(3.24972 -4.80201 3.44655e-19)
(2.79231 -4.09095 -3.25605e-20)
(2.41039 -3.54344 -1.69448e-19)
(12.7352 -10.6915 -3.98417e-18)
(8.86993 -11.8287 1.52415e-18)
(7.85452 -10.345 1.64511e-18)
(6.88488 -8.7619 2.7625e-19)
(5.87607 -7.46414 -7.64861e-19)
(4.98898 -6.33754 3.77928e-19)
(4.23625 -5.36404 1.37039e-19)
(3.60782 -4.54508 2.39772e-19)
(3.09598 -3.87922 -1.66604e-19)
(2.67301 -3.38127 -1.51985e-19)
(13.5497 -9.66553 1.27781e-18)
(9.78336 -11.1071 -3.7944e-19)
(8.64763 -9.70562 -1.65314e-19)
(7.55091 -8.20146 1.93734e-19)
(6.43917 -6.98575 1.18951e-19)
(5.46215 -5.93174 -1.07313e-19)
(4.62969 -5.02022 -1.10478e-19)
(3.93105 -4.25449 1.72383e-19)
(3.35746 -3.63852 -1.10899e-19)
(2.88814 -3.19286 9.3313e-20)
(16.518 2.77693 6.3356e-20)
(16.6745 1.47086 2.18424e-19)
(16.7263 0.15737 -6.33673e-19)
(16.6753 -1.15526 5.93439e-19)
(16.5219 -2.4592 2.63198e-19)
(16.2673 -3.74639 3.11123e-18)
(15.9126 -5.0092 -1.29745e-18)
(15.4611 -6.23955 -1.76822e-18)
(14.9142 -7.43088 2.09895e-18)
(14.2779 -8.57494 -3.66127e-18)
(14.8454 -0.953719 1.18839e-19)
(14.7246 -2.11269 -8.1197e-20)
(14.5112 -3.25798 -3.66885e-19)
(14.2072 -4.3822 1.04725e-18)
(13.815 -5.47851 -3.52996e-19)
(13.3369 -6.54029 2.81734e-18)
(12.7765 -7.56077 -2.03345e-18)
(12.1365 -8.53386 2.74717e-18)
(11.4223 -9.45315 -1.99431e-18)
(10.636 -10.3137 -9.58816e-19)
(12.9888 -0.783918 -2.00731e-19)
(12.8951 -1.79572 -2.59146e-20)
(12.7206 -2.79719 -8.17372e-19)
(12.4661 -3.78193 6.10481e-19)
(12.1336 -4.74396 -7.03061e-19)
(11.7247 -5.677 -1.45424e-18)
(11.2426 -6.57534 -5.29488e-19)
(10.69 -7.43287 -1.69158e-19)
(10.0712 -8.24461 1.65497e-18)
(9.38835 -9.00339 1.10604e-18)
(11.1167 -0.5038 6.36962e-20)
(11.0532 -1.36783 -1.07395e-19)
(10.9207 -2.22507 -1.42217e-19)
(10.7194 -3.0701 -6.50926e-19)
(10.4508 -3.89763 5.17129e-19)
(10.1161 -4.70207 1.23719e-18)
(9.71839 -5.47871 4.40397e-19)
(9.25932 -6.22188 1.14363e-19)
(8.7429 -6.92698 2.79272e-19)
(8.17165 -7.58802 1.4198e-19)
(9.46025 -0.43571 -4.97776e-20)
(9.40711 -1.16862 -1.96704e-19)
(9.29532 -1.89627 -1.1954e-21)
(9.1249 -2.61406 4.35544e-19)
(8.8974 -3.31737 5.02652e-19)
(8.61337 -4.0017 -3.39742e-19)
(8.27602 -4.66277 -5.4071e-19)
(7.88625 -5.29605 -3.00628e-19)
(7.44856 -5.89736 2.7344e-19)
(6.96442 -6.46184 5.62158e-19)
(8.0212 -0.38391 1.7571e-20)
(7.97601 -1.00293 1.46472e-19)
(7.88125 -1.61776 -3.4204e-19)
(7.73647 -2.22448 3.92002e-19)
(7.54352 -2.81918 2.45139e-19)
(7.30221 -3.39836 4.917e-19)
(7.01628 -3.9581 -1.00071e-19)
(6.68494 -4.4953 -2.98457e-19)
(6.31481 -5.00568 6.72942e-19)
(5.90477 -5.48607 -6.40977e-19)
(6.78511 -0.329393 1.80917e-20)
(6.7479 -0.850404 -1.13534e-19)
(6.66882 -1.36817 -8.40962e-20)
(6.54691 -1.87933 -1.95478e-19)
(6.38457 -2.38072 -2.75042e-20)
(6.18013 -2.86955 -2.47926e-19)
(5.93902 -3.34233 -1.78304e-19)
(5.65738 -3.79782 -1.43848e-20)
(5.34622 -4.23061 -3.65679e-19)
(4.99864 -4.64063 4.68578e-19)
(5.74111 -0.28293 -1.10483e-20)
(5.71137 -0.721138 8.99425e-20)
(5.64608 -1.15689 -4.24843e-20)
(5.54382 -1.58729 8.39759e-20)
(5.4076 -2.00971 1.95794e-19)
(5.23404 -2.422 3.47816e-19)
(5.03102 -2.82115 -7.79088e-20)
(4.78966 -3.20832 -3.07585e-19)
(4.52943 -3.57619 1.0453e-19)
(4.23089 -3.93067 -6.2386e-19)
(4.87657 -0.244628 1.38774e-20)
(4.85377 -0.614745 -1.85549e-20)
(4.80032 -0.98311 -1.57824e-19)
(4.71456 -1.34722 4.75193e-20)
(4.59997 -1.70477 -1.27268e-19)
(4.4516 -2.05419 -5.99729e-20)
(4.27974 -2.39271 -2.41698e-20)
(4.06927 -2.72478 1.60523e-19)
(3.85129 -3.04064 1.23257e-19)
(3.58357 -3.36198 1.31169e-19)
(4.17629 -0.223684 -2.66284e-20)
(4.15881 -0.537771 4.63725e-20)
(4.11454 -0.851328 2.75407e-20)
(4.04182 -1.16225 6.32913e-20)
(3.94414 -1.46839 -5.51781e-21)
(3.81546 -1.76871 -5.75931e-21)
(3.6673 -2.06012 -1.4592e-19)
(3.47838 -2.35015 2.15866e-19)
(3.29059 -2.62443 -1.42365e-19)
(3.03363 -2.94155 5.31315e-20)
(9.71877 13.6163 -2.10413e-18)
(10.7622 12.8193 2.17483e-18)
(11.738 11.9411 -1.76825e-19)
(12.6416 10.9888 -3.43475e-18)
(13.4676 9.96808 2.52858e-18)
(14.2102 8.8849 -1.74499e-18)
(14.864 7.74551 -3.77158e-19)
(15.4252 6.55774 -3.7128e-19)
(15.8897 5.32822 5.5745e-19)
(16.2555 4.06618 4.22543e-20)
(11.0852 9.6725 1.645e-18)
(11.8297 8.79137 2.3615e-19)
(12.5016 7.85325 -1.61477e-18)
(13.097 6.86451 -1.6253e-18)
(13.6122 5.83079 1.51541e-18)
(14.0432 4.75775 -1.12861e-18)
(14.387 3.6522 1.22035e-18)
(14.6408 2.52075 -3.72731e-19)
(14.803 1.37144 -9.92634e-19)
(14.8716 0.210128 -5.7889e-20)
(9.62084 8.43141 -4.4996e-19)
(10.2753 7.67251 -3.50613e-19)
(10.868 6.86391 9.04425e-19)
(11.3949 6.01013 6.91211e-19)
(11.8526 5.11579 1.46408e-18)
(12.2374 4.18596 4.29019e-19)
(12.547 3.22642 -2.94398e-19)
(12.7784 2.24324 -7.00166e-19)
(12.9305 1.24279 5.74201e-19)
(13.0004 0.231496 4.69206e-20)
(8.10801 7.29797 1.60307e-19)
(8.67616 6.66144 -6.1409e-19)
(9.19295 5.98175 -2.48183e-19)
(9.65459 5.26239 -1.02255e-18)
(10.0579 4.50717 -5.71951e-19)
(10.3997 3.7205 8.68925e-19)
(10.678 2.90736 6.24592e-19)
(10.8901 2.07291 -5.238e-19)
(11.0351 1.22251 2.00486e-20)
(11.1104 0.361679 -2.26738e-20)
(6.90435 6.1758 -7.92126e-19)
(7.38643 5.63624 8.28173e-19)
(7.82519 5.06058 -2.0193e-19)
(8.21715 4.45126 4.09993e-19)
(8.5595 3.81133 -2.36931e-19)
(8.84966 3.14465 -5.13704e-19)
(9.086 2.45555 1.7249e-19)
(9.26629 1.74839 -2.06712e-19)
(9.38977 1.02768 -2.1683e-19)
(9.45417 0.298023 8.79071e-20)
(5.85817 5.18923 -6.34703e-20)
(6.26659 4.73496 1.08095e-19)
(6.63814 4.2509 -1.43371e-19)
(6.9699 3.73819 -6.32686e-19)
(7.25946 3.19906 3.56671e-19)
(7.50484 2.63707 5.4371e-20)
(7.70471 2.05598 -2.90699e-19)
(7.85721 1.4595 -8.46229e-20)
(7.96165 0.851408 9.53386e-20)
(8.01609 0.235584 -3.40954e-20)
(4.94536 4.33829 -2.15499e-19)
(5.2933 3.9603 2.25555e-20)
(5.60901 3.55795 9.39389e-20)
(5.89015 3.13021 2.89547e-19)
(6.13533 2.6792 4.85654e-20)
(6.34336 2.20837 1.42078e-19)
(6.51314 1.72103 2.93403e-19)
(6.64306 1.22031 -1.10941e-19)
(6.73244 0.709438 9.00285e-20)
(6.7796 0.191726 -3.87638e-20)
(4.17001 3.61437 -1.11008e-19)
(4.46772 3.30381 7.12469e-20)
(4.73621 2.97172 3.99282e-20)
(4.97373 2.61591 -1.21363e-19)
(5.18102 2.23959 -6.58779e-20)
(5.35774 1.84607 -1.23429e-19)
(5.50281 1.43813 1.08629e-20)
(5.61462 1.01844 -2.40699e-20)
(5.69233 0.58981 -1.79275e-19)
(5.73439 0.155042 2.31696e-20)
(3.52608 3.01857 -4.76295e-20)
(3.7731 2.7654 -8.21256e-20)
(3.99968 2.48876 -7.05269e-20)
(4.20142 2.19069 9.53772e-21)
(4.37896 1.87579 -2.43634e-21)
(4.53205 1.54634 1.04916e-19)
(4.65914 1.20424 3.98448e-20)
(4.75828 0.851694 5.54626e-20)
(4.82833 0.4911 7.11911e-20)
(4.86773 0.12482 -2.87776e-20)
(3.01052 2.5075 -5.72845e-20)
(3.19919 2.29415 9.46741e-20)
(3.39004 2.06116 -1.56455e-19)
(3.56735 1.81312 -1.3877e-20)
(3.72492 1.55274 1.32848e-19)
(3.86124 1.27973 5.35974e-21)
(3.97508 0.994929 6.24309e-20)
(4.06468 0.700116 -1.34358e-19)
(4.12878 0.39737 -1.31679e-21)
(4.16599 0.0887183 1.22739e-20)
(0.268638 3.43976 -2.07295e-22)
(0.280168 4.2448 -6.80227e-22)
(0.324008 5.20316 -2.25073e-21)
(0.373152 6.31278 1.76468e-20)
(0.428142 7.57635 -2.53828e-21)
(0.479222 9.00504 -5.72549e-20)
(0.544558 10.6239 9.73039e-20)
(0.822528 12.4592 4.55613e-20)
(1.00378 14.358 1.02766e-19)
(-2.6974 16.2995 4.79499e-19)
(0.560236 3.44172 -2.46172e-21)
(0.631337 4.2325 -1.08982e-20)
(0.74681 5.17782 1.93433e-20)
(0.880667 6.27747 8.60657e-21)
(1.033 7.53294 -3.16722e-20)
(1.19459 8.95496 2.70557e-20)
(1.38538 10.5665 2.42655e-19)
(1.80521 12.3783 -3.56279e-19)
(2.13233 14.2608 3.65695e-20)
(-1.41256 16.4807 -5.78597e-19)
(0.853809 3.42392 6.46058e-21)
(0.982029 4.19575 -1.68301e-20)
(1.16707 5.1221 -2.40005e-20)
(1.38425 6.20476 -8.12184e-21)
(1.63301 7.4443 -6.83737e-20)
(1.90442 8.85102 -5.32101e-20)
(2.21988 10.4457 8.52317e-20)
(2.77943 12.2231 2.45623e-19)
(3.25087 14.0773 2.51829e-19)
(-0.116733 16.5609 -9.82596e-19)
(1.14858 3.38599 1.27673e-20)
(1.33106 4.13457 -1.49182e-20)
(1.58311 5.0362 -6.22448e-20)
(1.88155 6.09486 -4.81555e-21)
(2.22501 7.31061 3.00542e-19)
(2.60479 8.69334 -1.71808e-19)
(3.04343 10.2615 1.93942e-19)
(3.73974 11.9939 -8.96683e-19)
(4.35295 13.8087 -1.10956e-18)
(1.18233 16.5406 1.87497e-18)
(1.44279 3.32719 4.22758e-21)
(1.67603 4.04859 -2.25772e-20)
(1.99199 4.92024 5.13676e-20)
(2.36924 5.94829 -8.17706e-20)
(2.80534 7.13258 8.61976e-20)
(3.29163 8.48274 9.50261e-20)
(3.85144 10.0148 1.14304e-19)
(4.681 11.6918 1.00324e-19)
(5.43253 13.4562 7.48899e-19)
(2.47723 16.4193 8.57438e-19)
(1.73614 3.24839 -2.52716e-20)
(2.01654 3.93903 -2.47041e-20)
(2.39275 4.77522 1.1878e-19)
(2.84533 5.76578 -1.73057e-19)
(3.37089 6.91088 -1.41604e-19)
(3.96082 8.21991 -4.50282e-19)
(4.63903 9.70631 -3.15918e-20)
(5.59749 11.3172 -7.7183e-19)
(6.48335 13.0202 -1.55274e-19)
(3.75995 16.1973 -2.50451e-18)
(2.02325 3.14711 5.87969e-20)
(2.3466 3.80392 -1.85802e-19)
(2.78004 4.60064 1.08648e-19)
(3.3055 5.54798 7.27236e-20)
(3.91784 6.64676 -3.08684e-20)
(4.60847 7.90639 6.37481e-19)
(5.40173 9.33768 -3.8832e-19)
(6.48429 10.8727 -1.57022e-18)
(7.49902 12.5033 -3.68475e-19)
(5.02282 15.8745 2.21773e-18)
(2.30875 3.03008 -1.29394e-20)
(2.67064 3.64835 7.94701e-20)
(3.15565 4.39883 -4.86179e-20)
(3.74866 5.29592 1.01026e-19)
(4.44319 6.34109 1.21965e-19)
(5.23034 7.54319 -2.66448e-19)
(6.13438 8.91018 2.66933e-19)
(7.33521 10.3591 -8.55837e-19)
(8.47344 11.907 2.1859e-18)
(6.25759 15.4534 -1.19249e-18)
(2.56719 2.88152 -5.06707e-20)
(2.96922 3.46222 -5.897e-20)
(3.50952 4.1666 1.54794e-19)
(4.17009 5.00975 -3.68489e-19)
(4.9437 5.99533 4.70724e-19)
(5.82297 7.13241 -3.1248e-19)
(6.83316 8.42649 -6.42322e-19)
(8.14563 9.77953 3.49002e-19)
(9.39997 11.2352 -4.04607e-18)
(7.45728 14.9346 4.05481e-18)
(2.8415 2.74334 1.20193e-19)
(3.26565 3.2612 -1.3375e-19)
(3.84847 3.9079 1.98243e-19)
(4.56897 4.69099 1.39807e-21)
(5.41582 5.61076 -3.6219e-19)
(6.38177 6.67551 -2.37576e-19)
(7.49197 7.88747 2.89637e-19)
(8.90882 9.13535 1.13263e-18)
(10.2734 10.4885 1.91813e-18)
(8.61319 14.323 2.98554e-21)
(-2.3811 2.50587 2.70775e-20)
(-2.94829 3.11046 -7.17341e-21)
(-3.59116 3.82997 -2.71213e-20)
(-4.32595 4.65388 6.26406e-20)
(-5.16052 5.5855 1.49259e-19)
(-6.11266 6.62918 3.39317e-19)
(-7.18413 7.81818 7.78572e-19)
(-8.24484 9.30637 6.01809e-19)
(-9.40056 10.7596 1.07817e-18)
(-13.3343 9.53209 -8.91532e-19)
(-2.15906 2.65628 -9.64478e-21)
(-2.6818 3.31894 3.59843e-20)
(-3.26404 4.09446 -1.7812e-20)
(-3.93095 4.97542 -3.01864e-20)
(-4.68985 5.97031 -2.01295e-19)
(-5.55775 7.08572 5.58734e-19)
(-6.53374 8.35498 -4.17803e-19)
(-7.476 9.9221 -1.32923e-18)
(-8.51694 11.4637 -1.28704e-18)
(-12.5417 10.5523 2.23743e-18)
(-1.91399 2.79428 2.3215e-20)
(-2.38811 3.5051 8.44033e-21)
(-2.91095 4.33026 -6.64303e-20)
(-3.50979 5.26362 8.09457e-20)
(-4.19057 6.3166 1.47614e-19)
(-4.97013 7.49778 -1.62496e-19)
(-5.8454 8.83997 -1.71383e-20)
(-6.66442 10.4769 2.07306e-18)
(-7.58428 12.0977 6.53044e-19)
(-11.6737 11.5077 -1.68582e-18)
(-1.66028 2.92586 6.81183e-20)
(-2.0801 3.67273 8.03187e-21)
(-2.53935 4.53906 3.23358e-20)
(-3.06634 5.51855 9.57146e-20)
(-3.66535 6.62336 -3.2376e-19)
(-4.35229 7.86326 -9.10992e-20)
(-5.12244 9.27081 4.5763e-20)
(-5.81412 10.9678 -2.1016e-21)
(-6.60826 12.6589 -3.91185e-20)
(-10.7369 12.3946 2.10379e-18)
(-1.40052 3.04725 -5.98866e-20)
(-1.76236 3.82133 1.17167e-20)
(-2.15438 4.7212 -3.12655e-20)
(-2.60542 5.74007 -1.28155e-20)
(-3.1184 6.88968 4.56134e-20)
(-3.70839 8.18077 -2.96113e-19)
(-4.36881 9.64546 1.99567e-19)
(-4.9295 11.3931 -1.33947e-19)
(-5.5937 13.145 6.67241e-21)
(-9.73587 13.2083 -2.5725e-18)
(-1.1347 3.15464 3.68534e-21)
(-1.43605 3.94905 2.56257e-21)
(-1.7582 4.87554 -2.12813e-20)
(-2.13013 5.92707 1.07056e-20)
(-2.55353 7.11433 -2.77872e-20)
(-3.04266 8.44876 2.9624e-19)
(-3.58893 9.96173 1.09213e-19)
(-4.01522 11.7503 1.13893e-19)
(-4.54533 13.5533 5.36676e-19)
(-8.67583 13.9436 4.97208e-19)
(-0.863199 3.24628 1.59716e-20)
(-1.10232 4.0547 -1.47118e-20)
(-1.3526 5.00103 -1.08723e-21)
(-1.64294 6.07847 1.28984e-19)
(-1.97395 7.2962 -9.45867e-20)
(-2.35895 8.66608 1.19047e-19)
(-2.78753 10.2187 -1.75601e-19)
(-3.07622 12.0377 6.19441e-19)
(-3.46884 13.8816 6.30218e-19)
(-7.56196 14.5958 1.00035e-18)
(-0.586587 3.32127 7.09559e-21)
(-0.762536 4.1375 -6.6814e-21)
(-0.939562 5.09682 -2.90737e-21)
(-1.14633 6.19311 -1.16022e-20)
(-1.38272 7.43385 8.99748e-20)
(-1.66101 8.83103 -1.6736e-19)
(-1.9689 10.4143 -2.11307e-19)
(-2.11776 12.2534 9.61162e-19)
(-2.3697 14.1279 -2.22601e-19)
(-6.40106 15.161 -1.17206e-18)
(-0.305414 3.37904 1.37929e-20)
(-0.418056 4.19715 3.22289e-21)
(-0.521158 5.16275 6.58319e-21)
(-0.643037 6.27077 5.98243e-22)
(-0.783107 7.52697 -5.70979e-20)
(-0.952698 8.94323 2.36985e-19)
(-1.13757 10.5479 -3.27244e-19)
(-1.14496 12.3967 -9.02911e-20)
(-1.25434 14.2907 -7.45068e-21)
(-5.19851 15.6355 -8.67342e-19)
(-0.0201114 3.41861 -2.40376e-21)
(-0.0700346 4.23285 1.7676e-21)
(-0.0992767 5.19802 -5.14308e-22)
(-0.135615 6.31042 -8.59444e-21)
(-0.178335 7.5742 -3.89391e-20)
(-0.237899 9.00093 3.08788e-20)
(-0.298131 10.6175 3.13481e-20)
(-0.16305 12.4651 7.68387e-20)
(-0.127146 14.3676 -1.53151e-19)
(-3.96257 16.0165 1.87835e-19)
(-2.55046 2.32038 4.10625e-20)
(-2.77116 2.06856 -4.35721e-21)
(-2.96603 1.83365 -1.5068e-20)
(-3.15185 1.59258 1.76055e-20)
(-3.31657 1.34526 1.00902e-20)
(-3.46428 1.09101 2.41684e-21)
(-3.59116 0.830108 -7.5375e-21)
(-3.69676 0.563587 -1.1406e-20)
(-3.77861 0.292432 -6.41787e-21)
(-3.83511 0.0177796 3.85083e-21)
(-3.18395 2.873 -4.03373e-20)
(-3.4411 2.59494 4.06704e-21)
(-3.67114 2.31389 -5.51084e-20)
(-3.88837 2.02027 -1.25808e-20)
(-4.08064 1.71646 2.37095e-20)
(-4.25081 1.40242 4.07735e-20)
(-4.39451 1.07899 -1.2779e-20)
(-4.51128 0.747774 5.21846e-20)
(-4.59864 0.410254 9.84001e-21)
(-4.65541 0.0681663 -6.77697e-21)
(-3.89618 3.53615 1.18053e-19)
(-4.19596 3.21408 -1.29438e-20)
(-4.46857 2.87555 4.18269e-20)
(-4.72109 2.51907 1.21348e-20)
(-4.94412 2.14792 -1.19418e-19)
(-5.13902 1.76332 -7.00063e-20)
(-5.30159 1.36699 -4.01105e-20)
(-5.4312 0.961207 2.10924e-20)
(-5.52557 0.548088 -5.22173e-20)
(-5.58378 0.13001 6.23747e-21)
(-4.69778 4.29987 1.43845e-20)
(-5.04969 3.91689 1.64413e-19)
(-5.37117 3.51007 -6.16437e-21)
(-5.66448 3.08099 8.43346e-20)
(-5.92301 2.63294 1.10731e-19)
(-6.14668 2.16822 1.43507e-20)
(-6.33182 1.68935 1.1813e-19)
(-6.47746 1.19917 5.00825e-20)
(-6.58149 0.700461 6.6187e-20)
(-6.64308 0.196165 -1.29949e-20)
(-5.60298 5.16375 3.51798e-19)
(-6.01604 4.70882 -4.16742e-19)
(-6.39342 4.22403 -4.56161e-20)
(-6.73473 3.71261 6.14094e-20)
(-7.03507 3.17784 -5.99709e-20)
(-7.29329 2.6229 -1.56872e-19)
(-7.5061 2.05094 -2.59272e-19)
(-7.67217 1.46545 2.42387e-19)
(-7.78951 0.869824 -2.19527e-20)
(-7.85724 0.267632 -1.58139e-20)
(-6.63316 6.13024 -9.09835e-19)
(-7.11641 5.59265 5.0383e-19)
(-7.5573 5.01922 2.03008e-19)
(-7.95416 4.41437 2.38467e-20)
(-8.30277 3.78146 2.53218e-19)
(-8.60128 3.12454 -3.86792e-19)
(-8.84658 2.44732 -3.395e-19)
(-9.037 1.75397 3.31894e-21)
(-9.17058 1.04856 5.86144e-20)
(-9.2464 0.335298 3.94841e-20)
(-7.79341 7.23209 -4.17052e-19)
(-8.3578 6.60116 -2.05962e-19)
(-8.87189 5.92794 -9.00062e-20)
(-9.33356 5.21787 2.90361e-19)
(-9.73861 4.47449 -9.66478e-19)
(-10.0848 3.7027 -4.34308e-19)
(-10.3689 2.90672 5.2098e-19)
(-10.589 2.09148 1.1158e-19)
(-10.743 1.26162 8.92541e-20)
(-10.8298 0.422095 -5.4167e-20)
(-8.96588 8.63249 -1.38047e-18)
(-9.63392 7.90579 -1.36035e-18)
(-10.2434 7.12915 2.13816e-18)
(-10.7922 6.30855 4.28579e-19)
(-11.2757 5.44785 1.74133e-18)
(-11.6912 4.55256 2.62302e-20)
(-12.0352 3.62743 -5.15153e-19)
(-12.3052 2.67804 6.92914e-19)
(-12.499 1.70964 2.82437e-20)
(-12.615 0.728049 1.76963e-19)
(-10.2273 9.98906 7.81823e-21)
(-10.9926 9.15645 2.23137e-18)
(-11.6907 8.26876 -2.30326e-18)
(-12.3198 7.33004 1.75391e-18)
(-12.8749 6.34573 -2.39742e-18)
(-13.3527 5.32113 3.01656e-19)
(-13.7494 4.26203 -9.17661e-19)
(-14.0623 3.17439 3.14212e-19)
(-14.2887 2.06427 7.18676e-20)
(-14.4259 0.938489 -1.05806e-19)
(-14.043 8.45135 8.20892e-19)
(-14.663 7.32114 -2.29672e-18)
(-15.1966 6.1466 1.04056e-18)
(-15.6384 4.93557 -9.18363e-19)
(-15.9869 3.6939 4.27729e-19)
(-16.2388 2.42914 2.06716e-18)
(-16.3928 1.14827 2.58702e-19)
(-16.4472 -0.141043 5.818e-19)
(-16.4013 -1.4315 -2.99872e-19)
(-16.253 -2.71512 -6.79962e-20)
(-3.86434 -0.259353 1.57076e-21)
(-3.86524 -0.537999 -1.09708e-20)
(-3.83671 -0.817222 6.72561e-20)
(-3.77932 -1.09617 -4.03244e-20)
(-3.69416 -1.37392 2.12323e-21)
(-3.58318 -1.64975 -3.51378e-20)
(-3.44787 -1.92335 1.4319e-19)
(-3.28893 -2.19456 2.49223e-20)
(-3.11047 -2.46007 -4.75226e-20)
(-2.92983 -2.71979 7.89929e-20)
(-4.68006 -0.276925 1.49591e-20)
(-4.67205 -0.623364 -4.07832e-20)
(-4.63052 -0.969507 -3.04701e-20)
(-4.55637 -1.31378 -2.49812e-20)
(-4.4506 -1.65453 -7.32983e-20)
(-4.31511 -1.99012 -1.61375e-20)
(-4.15135 -2.31871 4.33143e-24)
(-3.95893 -2.63719 9.11512e-20)
(-3.73657 -2.94122 1.06468e-19)
(-3.48981 -3.23436 2.57265e-20)
(-5.60459 -0.29087 -1.40196e-20)
(-5.58777 -0.712206 1.18874e-19)
(-5.53246 -1.1317 1.54713e-20)
(-5.43968 -1.54713 -5.50951e-21)
(-5.3101 -1.95625 8.69581e-20)
(-5.14518 -2.35672 5.04721e-20)
(-4.94597 -2.74566 9.78247e-20)
(-4.71266 -3.11927 -1.84477e-20)
(-4.44545 -3.47544 -1.35269e-19)
(-4.14779 -3.81923 -3.26566e-19)
(-6.66108 -0.310973 2.78636e-20)
(-6.63542 -0.81793 -6.12355e-20)
(-6.56518 -1.32176 8.33819e-20)
(-6.45156 -1.81966 -2.32276e-19)
(-6.29509 -2.3088 -1.1337e-19)
(-6.09722 -2.78624 -3.42712e-20)
(-5.85909 -3.24866 -2.45591e-19)
(-5.58205 -3.69253 -7.85842e-20)
(-5.26834 -4.11662 -2.26745e-20)
(-4.9216 -4.52251 1.25968e-19)
(-7.87427 -0.337781 2.87199e-20)
(-7.84066 -0.942715 1.45642e-20)
(-7.7554 -1.54355 6.55786e-20)
(-7.61999 -2.13687 2.43082e-19)
(-7.43488 -2.71913 -4.60498e-20)
(-7.20176 -3.2868 -3.72607e-19)
(-6.92193 -3.8362 5.66317e-19)
(-6.59746 -4.36392 -1.60458e-19)
(-6.23123 -4.86802 -1.79174e-19)
(-5.82674 -5.34685 -7.11233e-20)
(-9.26335 -0.38182 -7.2042e-20)
(-9.22156 -1.09833 8.71882e-20)
(-9.11994 -1.80984 1.7775e-19)
(-8.96017 -2.51211 -1.44225e-19)
(-8.74289 -3.20098 4.68779e-19)
(-8.46975 -3.87207 -5.42122e-20)
(-8.14233 -4.52125 4.41042e-20)
(-7.76332 -5.14492 1.95176e-19)
(-7.33546 -5.73987 7.59468e-20)
(-6.86225 -6.30276 1.04188e-19)
(-10.8483 -0.422268 1.95895e-20)
(-10.7985 -1.26586 -1.7299e-20)
(-10.6793 -2.1034 4.72577e-19)
(-10.4925 -2.92972 -5.63721e-19)
(-10.2389 -3.73988 -7.92663e-19)
(-9.92055 -4.52871 5.32168e-19)
(-9.53924 -5.29148 -2.09013e-19)
(-9.09797 -6.02403 2.42351e-19)
(-8.59955 -6.72223 6.0911e-19)
(-8.04757 -7.38191 -4.88971e-19)
(-12.6514 -0.260582 -4.21599e-20)
(-12.6079 -1.24901 -5.22429e-19)
(-12.4837 -2.23108 6.44499e-19)
(-12.281 -3.20071 2.75786e-19)
(-12.0004 -4.15197 -9.93254e-19)
(-11.6446 -5.07919 -7.85367e-19)
(-11.2154 -5.97651 -1.64765e-19)
(-10.716 -6.83924 -1.38799e-19)
(-10.1497 -7.66291 3.57972e-19)
(-9.51966 -8.44232 -7.14145e-20)
(-14.4713 -0.194707 5.15949e-20)
(-14.4245 -1.32832 9.12978e-19)
(-14.2862 -2.45352 3.53636e-19)
(-14.058 -3.56475 -1.14049e-18)
(-13.7412 -4.65455 1.06951e-18)
(-13.3385 -5.7167 -1.45611e-18)
(-12.8526 -6.74502 1.56085e-18)
(-12.2868 -7.73373 -1.63025e-18)
(-11.6444 -8.67771 -8.64694e-19)
(-10.929 -9.57082 -2.48854e-18)
(-16.0004 -3.98286 -2.95955e-20)
(-15.6461 -5.22446 -4.20326e-19)
(-15.1944 -6.43503 3.43231e-19)
(-14.6473 -7.6055 3.42648e-19)
(-14.0086 -8.72963 -7.30378e-19)
(-13.2822 -9.7999 6.66912e-19)
(-12.4736 -10.8106 -9.61215e-19)
(-11.5883 -11.756 7.2303e-19)
(-10.6317 -12.6309 -1.66452e-18)
(-9.60798 -13.4285 1.83316e-18)
(-8.52197 -14.1397 2.58501e-18)
(-10.1448 -10.4044 -1.09716e-18)
(-8.82956 -9.17169 -6.37826e-19)
(-7.4451 -7.99824 8.01537e-19)
(-6.34662 -6.82859 1.65762e-20)
(-5.38705 -5.79493 3.72047e-19)
(-4.54599 -4.90533 -6.69533e-21)
(-3.82617 -4.15107 -1.47628e-19)
(-3.22781 -3.53115 1.55391e-19)
(-2.77695 -3.03726 -3.46392e-20)
(-7.38508 -14.7598 -2.73957e-18)
(-9.29681 -11.1739 4.15624e-18)
(-8.08502 -9.84552 -3.58865e-19)
(-6.79663 -8.56693 -6.13439e-19)
(-5.79217 -7.31335 3.26956e-19)
(-4.91565 -6.20641 -5.02561e-19)
(-4.14671 -5.25264 4.00441e-19)
(-3.48896 -4.44189 -1.71124e-19)
(-2.93986 -3.76564 6.83364e-20)
(-2.52031 -3.20177 7.12923e-20)
(-6.2031 -15.2913 1.75081e-18)
(-8.39262 -11.8736 -2.27949e-18)
(-7.2893 -10.4584 8.81413e-19)
(-6.10463 -9.0828 -2.45284e-19)
(-5.20063 -7.75308 2.88583e-19)
(-4.41288 -6.57984 -1.42117e-19)
(-3.72148 -5.56843 -1.08657e-19)
(-3.13239 -4.70912 6.21456e-20)
(-2.64341 -3.99439 -1.02969e-19)
(-2.27041 -3.40121 9.77776e-20)
(-4.98414 -15.7285 -3.35682e-18)
(-7.4366 -12.502 3.81953e-19)
(-6.44859 -11.0083 6.69145e-19)
(-5.37458 -9.54378 4.39858e-19)
(-4.57654 -8.14555 -7.14906e-19)
(-3.8824 -6.91236 3.31253e-20)
(-3.2718 -5.8481 -1.00701e-19)
(-2.75074 -4.94244 -1.47492e-19)
(-2.31556 -4.18644 2.63972e-19)
(-1.98311 -3.5596 2.86179e-20)
(-3.73451 -16.0709 2.46678e-18)
(-6.43469 -13.0547 3.34581e-19)
(-5.56694 -11.4912 8.41131e-19)
(-4.60998 -9.94648 3.02237e-20)
(-3.9229 -8.48828 5.19244e-19)
(-3.32686 -7.20288 1.75515e-19)
(-2.80141 -6.09306 2.31149e-19)
(-2.35311 -5.149 -1.73591e-19)
(-1.97714 -4.36117 3.2126e-21)
(-1.68948 -3.70919 -5.09746e-20)
(-2.46198 -16.3154 1.58983e-18)
(-5.39233 -13.529 -1.09651e-18)
(-4.65006 -11.905 -1.08218e-19)
(-3.81591 -10.289 -1.36589e-19)
(-3.24397 -8.77936 -1.152e-19)
(-2.74952 -7.44939 -1.06822e-19)
(-2.31172 -6.30053 1.1958e-19)
(-1.93765 -5.32328 -9.17967e-20)
(-1.62233 -4.50752 7.6871e-20)
(-1.38233 -3.83416 1.76591e-21)
(-1.17371 -16.4614 -2.8363e-18)
(-4.31552 -13.9219 -6.47786e-19)
(-3.70284 -12.2466 1.01368e-18)
(-2.99675 -10.5687 -2.29673e-19)
(-2.54373 -9.01687 2.14169e-19)
(-2.15426 -7.65058 -4.14617e-19)
(-1.80734 -6.4702 2.49644e-19)
(-1.51054 -5.46683 -5.68135e-20)
(-1.25872 -4.62953 5.38802e-20)
(-1.06886 -3.93968 -5.55623e-20)
(0.122647 -16.5082 1.28976e-18)
(-3.21021 -14.2314 -2.83051e-19)
(-2.73095 -12.5142 -2.8497e-19)
(-2.1576 -10.7842 -1.0089e-19)
(-1.82654 -9.1993 6.30298e-20)
(-1.54452 -7.80501 8.73174e-20)
(-1.29053 -6.60033 -9.06039e-20)
(-1.07267 -5.57702 4.80743e-20)
(-0.886162 -4.72347 7.55349e-20)
(-0.748642 -4.02175 -5.47857e-20)
(1.4199 -16.4556 9.55261e-19)
(-2.08233 -14.4553 -3.73367e-20)
(-1.73968 -12.7059 4.24833e-19)
(-1.30332 -10.9338 -2.95927e-19)
(-1.09683 -9.32543 6.4835e-20)
(-0.924405 -7.91173 -5.64434e-20)
(-0.765204 -6.69034 -1.52796e-20)
(-0.627821 -5.65376 -5.64813e-20)
(-0.507986 -4.78973 4.94033e-20)
(-0.424217 -4.08089 2.41449e-20)
(2.71036 -16.3021 -2.03958e-19)
(-0.938516 -14.5915 -1.13257e-19)
(-0.734856 -12.8205 -5.30813e-20)
(-0.439046 -11.0168 -1.21887e-19)
(-0.359009 -9.39457 8.04513e-20)
(-0.29752 -7.97008 8.9721e-21)
(-0.234172 -6.73946 -3.28085e-20)
(-0.178072 -5.69605 3.206e-21)
(-0.125703 -4.82711 -6.15719e-21)
(-0.0966624 -4.11601 1.14759e-21)
(-0.0948156 -2.35222 -3.9219e-22)
(0.160952 -1.10569 -7.19943e-23)
(0.249867 -0.439546 1.55805e-22)
(0.42426 -0.115394 -6.49718e-23)
(0.58335 0.0501655 5.30991e-25)
(0.719334 0.106707 -7.83362e-24)
(0.81644 0.110535 3.0361e-25)
(0.882267 0.0953297 8.5504e-25)
(0.925343 0.0768091 -6.83563e-25)
(0.95323 0.0602635 9.2575e-26)
(0.971176 0.0466558 1.16282e-25)
(0.982611 0.0357029 1.87872e-25)
(0.989776 0.0269446 -3.45491e-26)
(0.994162 0.0199903 -3.16068e-25)
(0.996772 0.0145291 4.03006e-26)
(0.998275 0.0103016 -1.08965e-25)
(0.99911 0.00708723 2.76385e-26)
(0.999559 0.00464759 3.31112e-26)
(0.999784 0.00293661 -3.84026e-26)
(0.999913 0.0011857 -3.17095e-26)
(0.0999976 -2.3786 3.86604e-21)
(0.209137 -1.12778 3.87623e-22)
(0.277961 -0.482235 -2.92899e-22)
(0.427636 -0.156814 6.54985e-23)
(0.578293 0.015814 -8.67934e-23)
(0.711872 0.0824435 -1.11139e-23)
(0.809959 0.0949549 -3.52875e-24)
(0.877415 0.0858088 -5.80884e-25)
(0.921878 0.0711088 1.24474e-25)
(0.95076 0.056877 -3.76253e-25)
(0.969395 0.0446574 -1.85437e-25)
(0.981313 0.0345379 2.08066e-24)
(0.988828 0.0262782 -2.38362e-24)
(0.993473 0.0196184 -1.03343e-24)
(0.996276 0.0143274 4.21843e-25)
(0.997924 0.0101955 1.98372e-25)
(0.998865 0.00703304 -5.41449e-25)
(0.999389 0.0046208 6.5536e-25)
(0.999665 0.00292327 1.07549e-25)
(0.999832 0.00118099 9.56361e-26)
(0.299424 -2.39467 -3.75898e-21)
(0.266127 -1.15336 1.49451e-21)
(0.313269 -0.526979 1.41876e-21)
(0.438241 -0.198673 -4.1599e-22)
(0.578071 -0.0187608 2.23272e-23)
(0.707194 0.057946 -7.00198e-23)
(0.804902 0.0791957 -6.01541e-24)
(0.873248 0.0761897 -7.39756e-24)
(0.918743 0.0653697 -2.69525e-24)
(0.948458 0.053482 -2.08725e-24)
(0.967704 0.0426621 -5.13099e-25)
(0.980067 0.0333782 5.06057e-25)
(0.98791 0.0256157 3.59181e-24)
(0.992802 0.019248 -2.06711e-24)
(0.995791 0.0141254 -1.34808e-24)
(0.997578 0.0100879 1.23463e-24)
(0.998623 0.00697681 -3.80888e-25)
(0.999222 0.00459195 -2.47174e-25)
(0.999547 0.00290811 -5.9452e-25)
(0.999751 0.00117544 2.66746e-25)
(0.503169 -2.401 -1.64033e-21)
(0.333761 -1.1824 2.74549e-21)
(0.355384 -0.573285 -1.05021e-21)
(0.45567 -0.24069 -2.25325e-22)
(0.582439 -0.0532667 1.40726e-22)
(0.705248 0.0334021 -6.34863e-24)
(0.801288 0.0633476 2.35815e-23)
(0.869796 0.0665074 -4.81812e-24)
(0.915963 0.0596034 1.0805e-23)
(0.94634 0.0500823 6.93192e-24)
(0.966114 0.0406713 -1.58193e-23)
(0.978878 0.0322246 2.27356e-24)
(0.987025 0.0249577 -1.7526e-25)
(0.992149 0.0188799 3.74875e-24)
(0.995316 0.0139235 3.20718e-25)
(0.997239 0.00997904 -9.89714e-25)
(0.998384 0.00691867 -9.65125e-25)
(0.999056 0.0045611 -1.37791e-24)
(0.999429 0.00289113 1.09915e-24)
(0.99967 0.00116905 -5.74007e-25)
(0.710552 -2.39633 2.51799e-21)
(0.413518 -1.21275 4.76726e-22)
(0.403583 -0.619845 6.83248e-23)
(0.479181 -0.282488 5.12247e-22)
(0.591 -0.0874577 2.11044e-22)
(0.705902 0.00896377 1.4118e-22)
(0.799111 0.0474866 -5.65202e-23)
(0.867091 0.0567935 1.63711e-23)
(0.913569 0.0538217 5.81044e-24)
(0.944427 0.0466824 1.2317e-23)
(0.964638 0.0386873 -4.20925e-24)
(0.977754 0.0310787 -1.46114e-23)
(0.986178 0.0243053 -1.06518e-25)
(0.991518 0.0185147 8.2389e-24)
(0.994854 0.0137222 4.34015e-24)
(0.996906 0.00986919 -1.87554e-24)
(0.998149 0.0068588 3.97447e-24)
(0.998893 0.00452838 2.92976e-25)
(0.999313 0.00287244 5.74926e-25)
(0.99959 0.00116187 -1.12869e-25)
(0.920773 -2.37673 -2.17712e-20)
(0.505975 -1.24033 -1.71971e-21)
(0.456585 -0.664766 9.33514e-22)
(0.507627 -0.323556 -1.47658e-21)
(0.603203 -0.121066 -5.93697e-22)
(0.708957 -0.0152119 -4.77079e-22)
(0.798338 0.0316938 7.65553e-23)
(0.865157 0.0470848 1.99585e-23)
(0.911591 0.0480404 -3.65483e-23)
(0.942741 0.0432897 -1.13046e-23)
(0.963289 0.0367141 -4.99122e-24)
(0.976702 0.0299428 2.0121e-23)
(0.985372 0.02366 -6.37597e-24)
(0.990911 0.0181533 -5.53478e-24)
(0.994405 0.0135221 -3.43295e-24)
(0.996582 0.00975872 4.18628e-24)
(0.997918 0.00679739 5.74989e-25)
(0.998732 0.00449386 1.06679e-24)
(0.999199 0.00285208 -8.81218e-25)
(0.99951 0.0011539 2.64153e-25)
(1.13292 -2.34328 2.40592e-20)
(0.610216 -1.26777 4.2221e-21)
(0.512699 -0.7095 -1.80372e-22)
(0.539566 -0.364389 2.00304e-21)
(0.618373 -0.154078 -6.05419e-22)
(0.714145 -0.0390084 5.29778e-23)
(0.798912 0.0160625 2.59858e-22)