/*--------------------------------*- C++ -*----------------------------------*\
| =========                 |                                                 |
| \\      /  F ield         | OpenFOAM: The Open Source CFD Toolbox           |
|  \\    /   O peration     | Version:  v1912                                 |
|   \\  /    A nd           | Website:  www.openfoam.com                      |
|    \\/     M anipulation  |                                                 |
\*---------------------------------------------------------------------------*/
FoamFile
{
    version     2.0;
    format      ascii;
    class       volScalarField;
    location    "19.5";
    object      p;
}
// * * * * * * * * * * * * * * * * * * * * * * * * * * * * * * * * * * * * * //

dimensions      [0 2 -2 0 0 0 0];


internalField   nonuniform List<scalar> 
9600
(
-41.1244
-35.8373
-32.5883
-29.8293
-27.3082
-25.0317
-22.9704
-21.0961
-19.3904
-17.839
-16.4285
-15.1465
-13.9811
-12.9213
-11.9565
-11.0774
-10.2752
-9.54178
-8.86965
-8.25666
-41.8394
-36.5364
-33.2536
-30.4542
-27.8907
-25.5726
-23.4725
-21.5628
-19.8254
-18.2459
-16.8108
-15.5072
-14.323
-13.2465
-12.2671
-11.3748
-10.5607
-9.81645
-9.13399
-8.51249
-42.5565
-37.232
-33.914
-31.0741
-28.4678
-26.1081
-23.9691
-22.024
-20.2552
-18.6479
-17.1885
-15.8636
-14.6608
-13.5679
-12.574
-11.6687
-10.843
-10.0879
-9.3952
-8.76536
-43.2725
-37.9237
-34.5691
-31.688
-29.0387
-26.6372
-24.4594
-22.4791
-20.679
-19.0443
-17.5609
-16.2151
-14.9939
-13.885
-12.8768
-11.9588
-11.1215
-10.3557
-9.65286
-9.01495
-43.9847
-38.6101
-35.218
-32.295
-29.6024
-27.159
-24.9424
-22.9272
-21.0962
-19.4343
-17.9273
-16.561
-15.3218
-14.1971
-13.1749
-12.2444
-11.3958
-10.6195
-9.90665
-9.26099
-44.691
-39.2898
-35.8595
-32.8941
-30.1579
-27.6725
-25.4173
-23.3675
-21.5058
-19.8173
-18.287
-16.9006
-15.6438
-14.5037
-13.4679
-12.5251
-11.6655
-10.8789
-10.1562
-9.50322
-45.3897
-39.9613
-36.4924
-33.4841
-30.7041
-28.1769
-25.8833
-23.7991
-21.9072
-20.1924
-18.6394
-17.2332
-15.9593
-14.8042
-13.755
-12.8005
-11.9301
-11.1335
-10.4013
-9.74137
-46.0794
-40.6236
-37.1156
-34.0641
-31.2402
-28.6711
-26.3393
-24.2211
-22.2995
-20.5589
-18.9837
-17.5582
-16.2676
-15.0979
-14.0359
-13.0699
-12.1892
-11.3828
-10.6414
-9.97514
-46.7588
-41.2752
-37.728
-34.6329
-31.765
-29.1543
-26.7846
-24.6328
-22.682
-20.9161
-19.3191
-17.8749
-16.5681
-15.3842
-14.3098
-13.3328
-12.4421
-11.6264
-10.8763
-10.2042
-47.4267
-41.9151
-38.3284
-35.1896
-32.2777
-29.6256
-27.2183
-25.0334
-23.0537
-21.2631
-19.6449
-18.1824
-16.86
-15.6624
-14.5761
-13.5885
-12.6883
-11.8638
-11.1053
-10.4281
-48.082
-42.5421
-38.9159
-35.7332
-32.7774
-30.084
-27.6395
-25.4219
-23.414
-21.5991
-19.9602
-18.4801
-17.1424
-15.9317
-14.8339
-13.8362
-12.9271
-12.0942
-11.328
-10.6463
-48.724
-43.1555
-39.4895
-36.2628
-33.2631
-30.5286
-28.0473
-25.7975
-23.7619
-21.9234
-20.2643
-18.767
-17.4146
-16.1912
-15.0824
-14.0751
-13.1575
-12.3168
-11.5434
-10.858
-49.3518
-43.7543
-40.0483
-36.7775
-33.7339
-30.9588
-28.4411
-26.1596
-24.0968
-22.2351
-20.5564
-19.0423
-17.6756
-16.44
-15.3206
-14.3042
-13.3787
-12.5308
-11.7507
-11.0624
-49.965
-44.3378
-40.5916
-37.2765
-34.1893
-31.3737
-28.8201
-26.5074
-24.4179
-22.5335
-20.8355
-19.3051
-17.9244
-16.6768
-15.5472
-14.5222
-13.5893
-12.7347
-11.9488
-11.2588
-50.563
-44.9052
-41.1185
-37.7591
-34.6284
-31.7728
-29.1836
-26.8402
-24.7244
-22.8178
-21.1009
-19.5544
-18.1599
-16.9006
-15.7609
-14.7273
-13.7873
-12.9265
-12.1356
-11.4455
-51.1455
-45.4557
-41.6284
-38.2248
-35.0507
-32.1554
-29.5312
-27.1576
-25.016
-23.0875
-21.3519
-19.7895
-18.3814
-17.1103
-15.9605
-14.9183
-13.971
-13.1041
-12.3085
-11.6172
-51.7136
-45.9893
-42.1206
-38.6727
-35.4555
-32.5208
-29.8622
-27.4589
-25.292
-23.342
-21.588
-20.0097
-18.5879
-17.3049
-16.145
-15.0942
-14.14
-13.2674
-12.4662
-11.7708
-52.2718
-46.507
-42.5943
-39.1019
-35.8419
-32.8686
-30.1762
-27.7438
-25.5522
-23.5809
-21.8086
-20.2143
-18.7783
-17.4829
-16.3121
-15.2526
-14.2917
-13.4138
-12.6079
-11.9167
-52.8222
-47.0085
-43.048
-39.5111
-36.2095
-33.1986
-30.4734
-28.0129
-25.7971
-23.8049
-22.0143
-20.4035
-18.9524
-17.6427
-16.4588
-15.3871
-14.415
-13.5267
-12.7194
-12.0589
-53.3428
-47.486
-43.4807
-39.9011
-36.5596
-33.5125
-30.7555
-28.2676
-26.0284
-24.0158
-22.207
-20.5796
-19.1126
-17.7872
-16.5867
-15.4967
-14.5023
-13.5898
-12.7723
-12.1174
-58.5365
-58.5064
-58.4399
-58.3515
-58.2404
-58.1041
-57.9422
-57.7551
-57.5433
-57.3074
-57.048
-56.7656
-56.4608
-56.1344
-55.7872
-55.4199
-55.0338
-54.6305
-54.213
-53.7843
-52.219
-52.2169
-52.1828
-52.1226
-52.0367
-51.9246
-51.7867
-51.6235
-51.4358
-51.2242
-50.9893
-50.7317
-50.4521
-50.151
-49.8291
-49.4871
-49.1257
-48.7453
-48.3466
-47.9275
-47.6251
-47.6464
-47.6395
-47.605
-47.5442
-47.4579
-47.3467
-47.2113
-47.0522
-46.8702
-46.6656
-46.4391
-46.1914
-45.9228
-45.6339
-45.3252
-44.997
-44.6494
-44.282
-43.8929
-43.4524
-43.4905
-43.5031
-43.4897
-43.4511
-43.3884
-43.3023
-43.1932
-43.0618
-42.9085
-42.734
-42.5387
-42.3231
-42.0877
-41.8329
-41.559
-41.2662
-40.9545
-40.6236
-40.2726
-39.6023
-39.6497
-39.6742
-39.6751
-39.6526
-39.6076
-39.5409
-39.4527
-39.3438
-39.2145
-39.0654
-38.8969
-38.7095
-38.5037
-38.2798
-38.038
-37.7785
-37.5012
-37.2061
-36.8925
-36.1499
-36.2012
-36.2318
-36.2409
-36.2285
-36.1953
-36.1419
-36.0689
-35.9766
-35.8656
-35.7363
-35.5892
-35.4248
-35.2435
-35.0455
-34.8312
-34.6007
-34.3539
-34.0907
-33.8105
-33.084
-33.1353
-33.1676
-33.1802
-33.173
-33.1467
-33.1018
-33.0388
-32.9581
-32.8602
-32.7456
-32.6148
-32.4681
-32.3061
-32.1291
-31.9373
-31.731
-31.51
-31.2741
-31.0229
-30.3672
-30.4158
-30.4468
-30.4597
-30.4544
-30.4314
-30.3912
-30.3344
-30.2613
-30.1724
-30.0682
-29.9492
-29.8159
-29.6687
-29.5081
-29.3344
-29.1478
-28.9482
-28.7353
-28.5089
-27.9599
-28.0042
-28.0322
-28.0433
-28.0376
-28.0155
-27.9776
-27.9241
-27.8557
-27.7728
-27.6758
-27.5653
-27.4418
-27.306
-27.1582
-26.9988
-26.8281
-26.6461
-26.4527
-26.2471
-25.8226
-25.862
-25.8861
-25.8944
-25.8871
-25.8645
-25.8271
-25.7753
-25.7096
-25.6305
-25.5384
-25.434
-25.3179
-25.1905
-25.0526
-24.9046
-24.7469
-24.5796
-24.4026
-24.2151
-23.9188
-23.9531
-23.973
-23.9781
-23.9685
-23.9446
-23.9069
-23.8557
-23.7916
-23.7149
-23.6262
-23.5261
-23.4153
-23.2945
-23.1644
-23.0255
-22.8785
-22.7236
-22.5606
-22.389
-22.2158
-22.2453
-22.2611
-22.2629
-22.2509
-22.2255
-22.1869
-22.1358
-22.0724
-21.9972
-21.9109
-21.814
-21.7073
-21.5915
-21.4674
-21.3359
-21.1978
-21.0534
-20.903
-20.7456
-20.6859
-20.7109
-20.7229
-20.7216
-20.7072
-20.6801
-20.6407
-20.5892
-20.5262
-20.4521
-20.3674
-20.2729
-20.1693
-20.0573
-19.9381
-19.8126
-19.6819
-19.5467
-19.4075
-19.2635
-19.3055
-19.3265
-19.335
-19.3309
-19.3143
-19.2857
-19.2453
-19.1934
-19.1306
-19.0572
-18.9739
-18.8811
-18.7799
-18.6709
-18.5554
-18.4347
-18.3101
-18.1829
-18.0541
-17.9228
-18.0548
-18.0722
-18.0776
-18.071
-18.0526
-18.0226
-17.9813
-17.9291
-17.8664
-17.7936
-17.7113
-17.62
-17.5205
-17.4139
-17.3012
-17.1841
-17.0645
-16.944
-16.8249
-16.7061
-16.9175
-16.9317
-16.9344
-16.9255
-16.9054
-16.8742
-16.8322
-16.7798
-16.7172
-16.6449
-16.5634
-16.4732
-16.3751
-16.2701
-16.1595
-16.0449
-15.9289
-15.8136
-15.7034
-15.5969
-15.8798
-15.8911
-15.8914
-15.8806
-15.859
-15.8267
-15.7841
-15.7314
-15.6689
-15.597
-15.5161
-15.4267
-15.3296
-15.2256
-15.116
-15.0027
-14.8887
-14.7768
-14.6739
-14.5783
-14.9299
-14.9388
-14.9372
-14.925
-14.9023
-14.8693
-14.8263
-14.7736
-14.7113
-14.6398
-14.5594
-14.4707
-14.3742
-14.2707
-14.1614
-14.048
-13.9342
-13.8235
-13.7269
-13.6396
-14.0566
-14.0642
-14.0616
-14.0489
-14.0261
-13.9934
-13.9511
-13.8992
-13.8382
-13.7682
-13.6896
-13.6026
-13.5078
-13.4058
-13.2974
-13.1843
-13.0697
-12.9587
-12.8683
-12.7939
-13.2546
-13.259
-13.254
-13.2394
-13.2155
-13.1824
-13.1403
-13.0892
-13.0295
-12.9613
-12.8849
-12.8005
-12.7084
-12.6089
-12.5026
-12.3905
-12.2742
-12.1589
-12.0624
-12.0109
-52.4991
-53.0491
-53.5632
-54.0637
-54.5474
-55.0086
-55.4443
-55.8535
-56.2352
-56.5887
-56.9132
-57.2082
-57.4734
-57.7086
-57.9133
-58.0873
-58.2314
-58.3466
-58.4351
-58.4988
-46.055
-46.6107
-47.1394
-47.647
-48.133
-48.595
-49.0315
-49.442
-49.8257
-50.1821
-50.5104
-50.8105
-51.0824
-51.3266
-51.5423
-51.7283
-51.8848
-52.0121
-52.111
-52.1802
-41.4631
-42.0072
-42.5287
-43.028
-43.5049
-43.9588
-44.3888
-44.7943
-45.1748
-45.5297
-45.8579
-46.1591
-46.4334
-46.6796
-46.8978
-47.0889
-47.2528
-47.3892
-47.4977
-47.5767
-37.3934
-37.9135
-38.4148
-38.8955
-39.3551
-39.7932
-40.2093
-40.6028
-40.973
-41.3192
-41.6406
-41.9363
-42.2073
-42.4531
-42.6736
-42.8687
-43.0382
-43.1817
-43.2989
-43.3892
-33.7668
-34.2582
-34.7334
-35.1899
-35.6267
-36.0435
-36.4397
-36.8147
-37.1678
-37.4985
-37.8072
-38.0938
-38.3567
-38.596
-38.8119
-39.0041
-39.1723
-39.3164
-39.4363
-39.5317
-30.6139
-31.0753
-31.5222
-31.9519
-32.3634
-32.7562
-33.1298
-33.4837
-33.8174
-34.1306
-34.4231
-34.6945
-34.9439
-35.1715
-35.3779
-35.5626
-35.7249
-35.8647
-35.9823
-36.0775
-27.8824
-28.3145
-28.7332
-29.136
-29.5218
-29.89
-30.2403
-30.5721
-30.885
-31.1787
-31.4529
-31.7074
-31.9417
-32.1556
-32.3487
-32.5233
-32.6771
-32.8099
-32.9219
-33.0135
-25.5066
-25.9113
-26.3033
-26.6805
-27.0416
-27.3861
-27.7136
-28.0236
-28.3158
-28.5898
-28.8455
-29.0827
-29.3012
-29.501
-29.682
-29.8424
-29.9861
-30.1104
-30.2152
-30.3009
-23.4292
-23.8088
-24.1764
-24.5298
-24.868
-25.1903
-25.4963
-25.7857
-26.0581
-26.3133
-26.5512
-26.7717
-26.9746
-27.16
-27.3276
-27.4776
-27.6086
-27.7233
-27.8201
-27.899
-21.6009
-21.9579
-22.3034
-22.6354
-22.9527
-23.2546
-23.5408
-23.8111
-24.0651
-24.3028
-24.524
-24.7287
-24.9169
-25.0885
-25.2433
-25.3815
-25.5028
-25.6074
-25.6959
-25.7677
-19.9807
-20.3176
-20.6435
-20.9563
-21.2547
-21.5381
-21.8063
-22.059
-22.2962
-22.5177
-22.7236
-22.9138
-23.0883
-23.2471
-23.3901
-23.5173
-23.6288
-23.7244
-23.8049
-23.8698
-18.5355
-18.8546
-19.1632
-19.459
-19.7404
-20.007
-20.2588
-20.4955
-20.7173
-20.924
-21.1159
-21.2928
-21.4548
-21.6019
-21.7341
-21.8514
-21.9538
-22.0415
-22.1141
-22.1725
-17.2385
-17.542
-17.8356
-18.1163
-18.3824
-18.6338
-18.8705
-19.0927
-19.3003
-19.4936
-19.6726
-19.8375
-19.9881
-20.1246
-20.247
-20.3553
-20.4494
-20.5294
-20.5951
-20.6477
-16.0683
-16.3581
-16.6389
-16.9062
-17.1585
-17.3959
-17.6189
-17.8276
-18.0223
-18.2032
-18.3705
-18.5244
-18.6647
-18.7917
-18.9052
-19.0053
-19.092
-19.1654
-19.2257
-19.272
-15.0076
-15.2858
-15.5558
-15.8113
-16.0507
-16.2752
-16.4854
-16.6816
-16.8644
-17.0339
-17.1905
-17.3343
-17.4653
-17.5836
-17.6891
-17.7818
-17.8619
-17.9291
-17.9837
-18.0255
-14.0419
-14.312
-14.5735
-14.8177
-15.0451
-15.2574
-15.4554
-15.6399
-15.8114
-15.9704
-16.1171
-16.2517
-16.3741
-16.4845
-16.5828
-16.6689
-16.7428
-16.8047
-16.8543
-16.8919
-13.1535
-13.4228
-13.6796
-13.9131
-14.1285
-14.3291
-14.5156
-14.689
-14.85
-14.9993
-15.1369
-15.2631
-15.3779
-15.4811
-15.5728
-15.653
-15.7215
-15.7785
-15.8238
-15.8575
-12.3218
-12.5957
-12.8542
-13.0789
-13.283
-13.4726
-13.6486
-13.8121
-13.9639
-14.1046
-14.2345
-14.3536
-14.4619
-14.5592
-14.6455
-14.7207
-14.7848
-14.8378
-14.8796
-14.9104
-11.5583
-11.8245
-12.0845
-12.3049
-12.4996
-12.6785
-12.8447
-12.9992
-13.1428
-13.2761
-13.3992
-13.5122
-13.6149
-13.7072
-13.7891
-13.8603
-13.921
-13.9709
-14.0101
-14.0387
-10.9849
-11.2311
-11.4548
-11.6657
-11.8492
-12.0113
-12.1619
-12.3028
-12.4338
-12.5551
-12.6672
-12.77
-12.8632
-12.9468
-13.0205
-13.0844
-13.1383
-13.1823
-13.2162
-13.24
-5.76373
-6.24397
-6.7717
-7.34417
-7.96794
-8.65055
-9.39982
-10.2254
-11.1395
-12.1579
-13.3011
-14.5956
-16.0765
-17.7892
-19.7925
-22.1642
-24.9834
-28.2713
-32.2456
-38.2218
-6.02471
-6.51759
-7.05501
-7.63864
-8.2752
-8.97191
-9.73674
-10.5796
-11.5129
-12.5528
-13.7199
-15.0415
-16.5527
-18.2993
-20.3407
-22.7542
-25.6181
-28.9504
-32.9612
-38.9569
-6.28727
-6.7928
-7.34003
-7.93506
-8.58464
-9.29571
-10.0764
-10.9367
-11.8895
-12.9512
-14.1427
-15.4915
-17.0334
-18.8145
-20.8941
-23.3494
-26.2574
-29.633
-33.6786
-39.6895
-6.55091
-7.06905
-7.62618
-8.23281
-8.89565
-9.62128
-10.4179
-11.296
-12.2686
-13.3522
-14.5683
-15.9447
-17.5174
-19.333
-21.451
-23.9481
-26.9001
-30.3189
-34.4003
-40.4311
-6.81521
-7.34589
-7.913
-8.53144
-9.20773
-9.9481
-10.761
-11.657
-12.6495
-13.7552
-14.9961
-16.4001
-18.0039
-19.8542
-22.0105
-24.5494
-27.5453
-31.0074
-35.1253
-41.1792
-7.07981
-7.62292
-8.20008
-8.83054
-9.52046
-10.2758
-11.105
-12.0191
-13.0316
-14.1597
-15.4254
-16.8573
-18.4923
-20.3772
-22.5721
-25.1527
-28.1924
-31.6975
-35.8517
-41.9298
-7.34439
-7.89979
-8.48706
-9.12972
-9.83345
-10.6038
-11.4495
-12.3818
-13.4145
-14.565
-15.8558
-17.3156
-18.9818
-20.9016
-23.1349
-25.7572
-28.8405
-32.3883
-36.5781
-42.6805
-7.60871
-8.17621
-8.77361
-9.42864
-10.1463
-10.9318
-11.7942
-12.7447
-13.7977
-14.9707
-16.2865
-17.7743
-19.4718
-21.4264
-23.6981
-26.362
-29.4886
-33.0786
-37.3033
-43.4301
-7.87263
-8.45199
-9.05951
-9.72704
-10.4588
-11.2595
-12.1385
-13.1074
-14.1806
-15.3761
-16.717
-18.2328
-19.9615
-21.9509
-24.2608
-26.966
-30.1356
-33.7674
-38.0261
-44.1769
-8.1361
-8.72702
-9.34459
-10.0247
-10.7706
-11.5865
-12.4821
-13.4693
-14.5627
-15.7807
-17.1466
-18.6903
-20.4501
-22.4742
-24.8222
-27.5684
-30.7805
-34.4534
-38.7454
-44.9198
-8.39922
-9.00132
-9.62879
-10.3215
-11.0815
-11.9126
-12.8247
-13.83
-14.9436
-16.1839
-17.5747
-19.1462
-20.937
-22.9955
-25.3814
-28.1681
-31.4222
-35.1356
-39.4597
-45.6571
-8.66227
-9.27504
-9.91214
-10.6174
-11.3913
-12.2374
-13.1658
-14.1892
-15.3227
-16.5851
-18.0006
-19.5997
-21.4213
-23.5139
-25.9373
-28.7642
-32.0596
-35.8128
-40.1678
-46.3875
-8.92571
-9.54845
-10.1947
-10.9123
-11.6999
-12.5607
-13.5052
-14.5463
-15.6995
-16.9838
-18.4237
-20.0501
-21.9022
-24.0286
-26.489
-29.3555
-32.6916
-36.4837
-40.8685
-47.1097
-9.19021
-9.82192
-10.4767
-11.2061
-12.007
-12.8821
-13.8423
-14.9008
-16.0733
-17.3792
-18.8432
-20.4966
-22.3787
-24.5385
-27.0354
-29.9409
-33.3169
-37.1471
-41.5604
-47.8225
-9.45647
-10.0957
-10.7579
-11.4985
-12.3121
-13.2011
-14.1765
-15.252
-16.4434
-17.7705
-19.2582
-20.9382
-22.85
-25.0427
-27.5755
-30.5193
-33.9344
-37.8019
-42.2426
-48.5247
-9.72531
-10.3699
-11.0381
-11.789
-12.6147
-13.5169
-14.5071
-15.5991
-16.8091
-18.1569
-19.6679
-21.374
-23.315
-25.54
-28.1082
-31.0894
-34.5428
-38.4467
-42.9137
-49.2154
-9.99637
-10.6433
-11.3157
-12.0761
-12.9134
-13.8285
-14.833
-15.9412
-17.1693
-18.5375
-20.0713
-21.803
-23.7727
-26.0294
-28.6322
-31.6501
-35.1408
-39.0804
-43.573
-49.8941
-10.2686
-10.9131
-11.5881
-12.3579
-13.2068
-14.1346
-15.1533
-16.2772
-17.5231
-18.9112
-20.4674
-22.2242
-24.2219
-26.5097
-29.1462
-32.1998
-35.7267
-39.7011
-44.2192
-50.5608
-10.5342
-11.1708
-11.849
-12.631
-13.4929
-14.4336
-15.4663
-16.606
-17.8693
-19.277
-20.8551
-22.6364
-24.6615
-26.9796
-29.649
-32.7371
-36.2991
-40.3073
-44.8512
-51.2169
-10.7738
-11.3968
-12.0944
-12.8965
-13.7722
-14.7254
-15.7719
-16.9269
-18.2072
-19.634
-21.2335
-23.0387
-25.0904
-27.4379
-30.139
-33.2603
-36.8556
-40.8957
-45.4646
-51.8641
-1.53804
-1.79565
-2.14807
-2.54283
-2.96908
-3.43249
-3.9396
-4.49655
-5.1111
-5.79372
-6.5585
-7.42452
-8.41783
-9.5741
-10.9435
-12.5988
-14.6278
-17.0888
-20.2835
-25.6908
-1.68487
-1.9581
-2.32765
-2.72736
-3.15627
-3.62428
-4.13751
-4.70174
-5.32485
-6.01755
-6.7942
-7.67421
-8.68402
-9.8598
-11.2522
-12.9347
-14.9948
-17.4893
-20.7143
-26.1339
-1.82447
-2.1211
-2.50299
-2.91013
-3.34611
-3.82179
-4.34319
-4.91628
-5.5493
-6.2533
-7.04297
-7.93808
-8.96551
-10.162
-11.5786
-13.2891
-15.381
-17.9088
-21.1635
-26.59
-1.98517
-2.29217
-2.6817
-3.09695
-3.54149
-4.02601
-4.55669
-5.13977
-5.78382
-6.50019
-7.30391
-8.21513
-9.2612
-10.4793
-11.9211
-13.6607
-15.7852
-18.3477
-21.6352
-27.0778
-2.15672
-2.47038
-2.86719
-3.29078
-3.74414
-4.23794
-4.77853
-5.37239
-6.02832
-6.75797
-7.57666
-8.50494
-9.57063
-10.8114
-12.2794
-14.0491
-16.2074
-18.8061
-22.1291
-27.5941
-2.33355
-2.6553
-3.05985
-3.49191
-3.95436
-4.45786
-5.00893
-5.61423
-6.2828
-7.02651
-7.86103
-8.80728
-9.89353
-11.158
-12.6533
-14.4542
-16.6476
-19.2835
-22.6432
-28.1337
-2.51718
-2.84786
-3.26004
-3.70056
-4.17235
-4.68595
-5.24799
-5.86533
-6.54717
-7.30567
-8.1568
-9.12188
-10.2296
-11.5187
-13.0424
-14.8757
-17.1051
-19.7794
-23.1765
-28.6941
-2.70904
-3.04858
-3.46816
-3.91712
-4.3984
-4.9224
-5.49581
-6.12565
-6.82134
-7.59528
-8.46375
-9.44845
-10.5785
-11.8932
-13.4462
-15.3129
-17.5795
-20.2932
-23.7285
-29.2745
-2.90895
-3.25737
-3.68429
-4.14172
-4.63264
-5.16727
-5.75239
-6.39516
-7.1052
-7.89517
-8.78164
-9.78669
-10.9399
-12.2811
-13.8643
-15.7654
-18.0703
-20.8243
-24.2986
-29.8738
-3.11636
-3.47394
-3.90828
-4.37424
-4.87495
-5.42046
-6.01759
-6.67368
-7.39856
-8.20509
-9.11019
-10.1363
-11.3135
-12.6819
-14.2964
-16.2328
-18.5768
-21.372
-24.8859
-30.4909
-3.33087
-3.69797
-4.13984
-4.61445
-5.12514
-5.68175
-6.29121
-6.961
-7.70114
-8.52476
-9.44907
-10.4969
-11.6987
-13.0953
-14.7418
-16.7144
-19.0984
-21.9357
-25.4896
-31.1249
-3.55211
-3.92909
-4.37864
-4.86202
-5.38289
-5.95087
-6.57295
-7.2568
-8.01264
-8.85384
-9.79791
-10.8681
-12.0953
-13.5207
-15.2
-17.2097
-19.6345
-22.5146
-26.109
-31.7747
-3.77965
-4.16684
-4.62423
-5.11658
-5.64784
-6.22745
-6.86245
-7.56072
-8.33266
-9.19191
-10.1563
-11.2494
-12.5026
-13.9576
-15.6705
-17.718
-20.1845
-23.1079
-26.7431
-32.4395
-4.01297
-4.41074
-4.87616
-5.37767
-5.91956
-6.51106
-7.1593
-7.87232
-8.66077
-9.53852
-10.5237
-11.6403
-12.9202
-14.4055
-16.1527
-18.2388
-20.7475
-23.7149
-27.3913
-33.1184
-4.25155
-4.66024
-5.13391
-5.6448
-6.19758
-6.80124
-7.46302
-8.19115
-8.9965
-9.89318
-10.8997
-12.0403
-13.3474
-14.8637
-16.6459
-18.7712
-21.3229
-24.3349
-28.0527
-33.8106
-4.49486
-4.91479
-5.39693
-5.91745
-6.48137
-7.09749
-7.77311
-8.51669
-9.33931
-10.2554
-11.2836
-12.4488
-13.7837
-15.3315
-17.1494
-19.3146
-21.9098
-24.9669
-28.7266
-34.5154
-4.74235
-5.17385
-5.66468
-6.19506
-6.7704
-7.39927
-8.08904
-8.8484
-9.68866
-10.6245
-11.6749
-12.8652
-14.2285
-15.8083
-17.6624
-19.8681
-22.5075
-25.6101
-29.4121
-35.2322
-4.9935
-5.43684
-5.93658
-6.4771
-7.06414
-7.70603
-8.41025
-9.18572
-10.044
-10.9999
-12.073
-13.2888
-14.6809
-16.2933
-18.1842
-20.4309
-23.1148
-26.2635
-30.1085
-35.9609
-5.24778
-5.70321
-6.21208
-6.76299
-7.36201
-8.01721
-8.73618
-9.52805
-10.4046
-11.3811
-12.4772
-13.7189
-15.1402
-16.7858
-18.7139
-21.002
-23.7309
-26.926
-30.8149
-36.702
-5.50469
-5.97244
-6.49066
-7.05222
-7.6635
-8.33228
-9.06627
-9.87486
-10.7701
-11.7674
-12.8869
-14.1549
-15.6059
-17.2848
-19.2505
-21.5804
-24.3545
-27.5959
-31.5284
-37.4563
-1.29793
-1.10085
-0.955494
-0.826879
-0.714566
-0.615998
-0.53008
-0.456029
-0.393351
-0.34169
-0.300781
-0.270405
-0.250386
-0.240588
-0.240832
-0.250747
-0.270248
-0.300554
-0.33947
-0.388474
-1.63084
-1.45646
-1.30724
-1.1737
-1.05686
-0.954132
-0.864549
-0.787305
-0.721891
-0.66793
-0.625137
-0.593282
-0.572177
-0.561668
-0.561584
-0.571657
-0.591789
-0.622374
-0.662755
-0.71317
-1.96905
-1.80247
-1.65343
-1.51891
-1.40013
-1.29543
-1.20409
-1.12542
-1.05895
-1.0043
-0.961204
-0.929425
-0.908772
-0.89908
-0.900178
-0.911866
-0.934064
-0.966868
-1.01
-1.06341
-2.35955
-2.19166
-2.03993
-1.90272
-1.78062
-1.67268
-1.57837
-1.49715
-1.42858
-1.37232
-1.32809
-1.29566
-1.27483
-1.26542
-1.26726
-1.28018
-1.30409
-1.33895
-1.38455
-1.44084
-2.78659
-2.61674
-2.46149
-2.32071
-2.19476
-2.08309
-1.98536
-1.90112
-1.83002
-1.77175
-1.72603
-1.69263
-1.67136
-1.66202
-1.66444
-1.67846
-1.70397
-1.74086
-1.78894
-1.84818
-3.24832
-3.07579
-2.91688
-2.77223
-2.64223
-2.52669
-2.42537
-2.33797
-2.26419
-2.20375
-2.15641
-2.12195
-2.10015
-2.09085
-2.09385
-2.10901
-2.13617
-2.17522
-2.22596
-2.28836
-3.75119
-3.57455
-3.4113
-3.26223
-3.12781
-3.00805
-2.90284
-2.81198
-2.73524
-2.6724
-2.62322
-2.5875
-2.56504
-2.55566
-2.55918
-2.57543
-2.60428
-2.64555
-2.69907
-2.76478
-4.30222
-4.12005
-3.95144
-3.79715
-3.65766
-3.53311
-3.42351
-3.32874
-3.24862
-3.18297
-3.13161
-3.09432
-3.07094
-3.06127
-3.06514
-3.08238
-3.11284
-3.15633
-3.21268
-3.28185
-4.90935
-4.72027
-4.54512
-4.3846
-4.23918
-4.1091
-3.99443
-3.8951
-3.81103
-3.74206
-3.68802
-3.64875
-3.62406
-3.61378
-3.61773
-3.63576
-3.66768
-3.71331
-3.77247
-3.84513
-5.58294
-5.38544
-5.2024
-5.03442
-4.88201
-4.74542
-4.62477
-4.52008
-4.43129
-4.35829
-4.30094
-4.25909
-4.23257
-4.22122
-4.22486
-4.24333
-4.27644
-4.32401
-4.38584
-4.46194
-6.3369
-6.12924
-5.93669
-5.75979
-5.59901
-5.45466
-5.32689
-5.21576
-5.12125
-5.04329
-4.98177
-4.93654
-4.90747
-4.89439
-4.89713
-4.91553
-4.94941
-4.99854
-5.06275
-5.14207
-7.19001
-6.97015
-6.76616
-6.5785
-6.40767
-6.25397
-6.1176
-5.99863
-5.8971
-5.81295
-5.7461
-5.69644
-5.66382
-5.6481
-5.64911
-5.66668
-5.70063
-5.75074
-5.8168
-5.89891
-8.16793
-7.93342
-7.71563
-7.51498
-7.33198
-7.16692
-7.02004
-6.89144
-6.78119
-6.68924
-6.61555
-6.56002
-6.52251
-6.50289
-6.501
-6.51666
-6.5497
-6.59985
-6.66694
-6.7511
-9.30586
-9.05374
-8.81928
-8.60287
-8.40504
-8.2261
-8.06631
-7.92579
-7.80462
-7.7028
-7.62028
-7.55699
-7.5128
-7.48758
-7.48118
-7.49343
-7.52413
-7.57302
-7.63989
-7.72493
-10.6533
-10.38
-10.1254
-9.88987
-9.67396
-9.47801
-9.3023
-9.14697
-9.01212
-8.89775
-8.80385
-8.73033
-8.6771
-8.64402
-8.63096
-8.63774
-8.66415
-8.70989
-8.77475
-8.85898
-12.2827
-11.984
-11.705
-11.4463
-11.2084
-10.9917
-10.7965
-10.6228
-10.4709
-10.3406
-10.2321
-10.1453
-10.08
-10.0362
-10.0136
-10.0122
-10.0317
-10.0718
-10.1322
-10.2133
-14.281
-13.9523
-13.6446
-13.3584
-13.0943
-12.8528
-12.634
-12.4382
-12.2655
-12.1158
-11.9891
-11.8855
-11.8048
-11.747
-11.7118
-11.6991
-11.7088
-11.7405
-11.7939
-11.8691
-16.707
-16.3446
-16.0042
-15.6867
-15.3929
-15.1231
-14.8775
-14.6563
-14.4596
-14.2873
-14.1395
-14.0162
-13.9172
-13.8426
-13.7921
-13.7657
-13.7631
-13.7843
-13.8287
-13.8956
-19.8651
-19.4648
-19.0872
-18.735
-18.4084
-18.1074
-17.8322
-17.5825
-17.3585
-17.1602
-16.9874
-16.8402
-16.7186
-16.6224
-16.5516
-16.5059
-16.4853
-16.4901
-16.52
-16.5728
-25.2158
-24.7719
-24.3614
-23.9812
-23.6291
-23.3042
-23.0061
-22.7346
-22.4896
-22.2712
-22.0794
-21.9142
-21.7757
-21.664
-21.5791
-21.521
-21.4905
-21.4898
-21.5202
-21.5713
-0.446991
-0.514673
-0.591457
-0.677237
-0.771903
-0.875324
-0.987348
-1.10779
-1.23642
-1.37296
-1.51704
-1.66813
-1.82547
-1.98785
-2.15367
-2.3207
-2.48449
-2.63534
-2.75787
-2.87678
-0.773451
-0.843264
-0.922513
-1.01106
-1.10878
-1.21552
-1.33111
-1.45533
-1.58795
-1.72863
-1.87698
-2.03243
-2.19424
-2.36126
-2.53191
-2.70456
-2.87745
-3.04285
-3.18532
-3.34541
-1.12703
-1.20052
-1.28379
-1.37669
-1.47907
-1.59076
-1.71156
-1.84126
-1.97958
-2.12618
-2.28062
-2.44236
-2.61065
-2.78448
-2.96252
-3.14357
-3.32669
-3.50747
-3.67988
-3.8731
-1.50776
-1.58493
-1.67228
-1.76962
-1.8768
-1.99362
-2.11989
-2.25534
-2.39968
-2.55257
-2.71355
-2.88207
-3.05743
-3.23874
-3.42493
-3.61513
-3.80855
-4.00282
-4.1982
-4.4147
-1.91851
-1.99953
-2.09115
-2.19318
-2.30544
-2.42773
-2.55982
-2.70145
-2.85231
-3.01202
-3.18014
-3.35615
-3.53939
-3.72908
-3.92442
-4.1248
-4.32958
-4.53768
-4.7516
-4.98435
-2.36235
-2.44751
-2.54374
-2.65084
-2.76862
-2.89685
-3.0353
-3.1837
-3.34171
-3.50898
-3.68506
-3.86945
-4.06157
-4.26076
-4.46641
-4.6781
-4.89542
-5.11812
-5.34887
-5.5955
-2.84268
-2.93226
-3.03343
-3.14599
-3.26971
-3.40439
-3.54977
-3.70556
-3.87144
-4.04705
-4.23196
-4.4257
-4.62776
-4.83759
-5.05472
-5.27884
-5.50976
-5.74764
-5.99467
-6.25531
-3.36382
-3.45805
-3.56445
-3.68281
-3.81291
-3.95453
-4.10739
-4.27122
-4.44569
-4.63044
-4.82508
-5.02917
-5.24224
-5.46385
-5.69362
-5.93132
-6.17685
-6.43054
-6.69395
-6.96958
-3.93127
-4.03035
-4.14222
-4.26669
-4.40356
-4.55257
-4.71346
-4.88595
-5.06972
-5.26442
-5.46968
-5.6851
-5.91025
-6.14476
-6.38832
-6.64073
-6.90194
-7.17223
-7.45263
-7.74454
-4.5523
-4.65623
-4.77377
-4.90459
-5.04852
-5.20532
-5.37472
-5.55644
-5.75017
-5.95558
-6.1723
-6.39998
-6.63823
-6.88672
-7.14517
-7.4134
-7.69136
-7.97921
-8.27754
-8.58718
-5.23651
-5.34528
-5.46845
-5.60573
-5.75691
-5.92175
-6.10003
-6.29143
-6.49567
-6.71242
-6.94135
-7.18213
-7.43439
-7.69784
-7.97221
-8.25731
-8.55307
-8.8595
-9.17688
-9.50574
-5.99708
-6.11042
-6.23898
-6.38264
-6.54105
-6.71402
-6.90132
-7.10269
-7.31781
-7.54638
-7.78809
-8.04263
-8.30966
-8.58889
-8.88006
-9.18298
-9.4975
-9.82351
-10.1611
-10.5106
-6.85236
-6.96968
-7.10321
-7.25267
-7.41806
-7.59901
-7.7953
-8.00657
-8.23265
-8.47324
-8.72804
-8.99673
-9.27902
-9.57459
-9.88322
-10.2047
-10.5388
-10.8852
-11.244
-11.6153
-7.82822
-7.94852
-8.08613
-8.24072
-8.41212
-8.60043
-8.80558
-9.02621
-9.26287
-9.51521
-9.78296
-10.0658
-10.3635
-10.6756
-11.002
-11.3424
-11.6965
-12.064
-12.4447
-12.8388
-8.96267
-9.08434
-9.2245
-9.38287
-9.55925
-9.75332
-9.96494
-10.1953
-10.4417
-10.705
-10.985
-11.2815
-11.5943
-11.9228
-12.2669
-12.6261
-13.0003
-13.3889
-13.7917
-14.209
-10.315
-10.4356
-10.576
-10.736
-10.9155
-11.114
-11.331
-11.5664
-11.8215
-12.0956
-12.3868
-12.6962
-13.0232
-13.367
-13.7274
-14.1045
-14.4979
-14.9071
-15.3315
-15.7715
-11.9656
-12.0822
-12.2203
-12.3793
-12.559
-12.7594
-12.9801
-13.2208
-13.4815
-13.762
-14.064
-14.3846
-14.723
-15.0783
-15.4522
-15.8448
-16.2556
-16.6838
-17.1284
-17.5893
-13.9829
-14.0926
-14.225
-14.379
-14.5547
-14.7524
-14.9719
-15.213
-15.4753
-15.7581
-16.0609
-16.3849
-16.7306
-17.0988
-17.4873
-17.8951
-18.322
-18.7675
-19.2307
-19.7107
-16.6468
-16.7409
-16.8578
-17.0001
-17.1674
-17.3588
-17.5738
-17.812
-18.0731
-18.3566
-18.662
-18.989
-19.3381
-19.7095
-20.1031
-20.5181
-20.9546
-21.4132
-21.8937
-22.3912
-21.6175
-21.6927
-21.7975
-21.9298
-22.0883
-22.2721
-22.4805
-22.713
-22.9694
-23.2494
-23.5526
-23.8791
-24.2291
-24.6027
-25
-25.4209
-25.8667
-26.3413
-26.847
-27.3661
-27.8542
-22.8977
-20.2068
-18.0668
-16.227
-14.6407
-13.2464
-11.9993
-10.8719
-9.84603
-8.90809
-8.04798
-7.25763
-6.53037
-5.86059
-5.24335
-4.67295
-4.14348
-3.66317
-3.25969
-28.3685
-23.4187
-20.7172
-18.5579
-16.6954
-15.0846
-13.6655
-12.3941
-11.2437
-10.1962
-9.23863
-8.36086
-7.55499
-6.81448
-6.13388
-5.50833
-4.93269
-4.4043
-3.93598
-3.53482
-28.91
-23.9572
-21.2433
-19.0637
-17.1772
-15.541
-14.096
-12.7995
-11.6252
-10.5557
-9.57794
-8.68208
-7.86023
-7.10588
-6.41355
-5.77829
-5.19508
-4.66138
-4.18647
-3.76657
-29.4745
-24.5139
-21.7852
-19.5838
-17.6721
-16.0091
-14.5373
-13.2147
-12.0159
-10.9236
-9.925
-9.01036
-8.17173
-7.4025
-6.69696
-6.04991
-5.45609
-4.91233
-4.42509
-3.98716
-30.0588
-25.0879
-22.3425
-20.118
-18.1794
-16.4884
-14.9887
-13.6392
-12.415
-11.2991
-10.279
-9.34491
-8.48876
-7.70379
-6.98403
-6.32399
-5.71813
-5.1627
-4.66234
-4.20896
-30.6611
-25.6788
-22.9142
-20.6654
-18.6986
-16.9782
-15.4496
-14.0722
-12.8218
-11.6816
-10.6394
-9.68515
-8.81083
-8.00944
-7.27477
-6.60107
-5.98257
-5.41517
-4.90221
-4.43543
-31.2806
-26.2871
-23.4983
-21.225
-19.2289
-17.4779
-15.9192
-14.513
-13.2356
-12.0705
-11.0055
-10.0306
-9.13768
-8.31945
-7.56951
-6.88187
-6.25064
-5.67147
-5.14663
-4.66785
-31.9163
-26.9104
-24.0952
-21.796
-19.7693
-17.9866
-16.3968
-14.9611
-13.6559
-12.4653
-11.377
-10.381
-9.46907
-8.63372
-7.86833
-7.16671
-6.52285
-5.93221
-5.39606
-4.90619
-32.5668
-27.5473
-24.7044
-22.3776
-20.3192
-18.5036
-16.8818
-15.4156
-14.082
-12.8653
-11.7533
-10.7359
-9.80472
-8.95211
-8.1712
-7.45564
-6.79928
-6.19742
-5.65038
-5.15002
-33.2311
-28.1965
-25.325
-22.9689
-20.8776
-19.0282
-17.3734
-15.8759
-14.5133
-13.27
-12.1339
-11.0949
-10.1443
-9.27431
-8.47789
-7.74844
-7.07972
-6.46681
-5.90913
-5.39866
-33.9079
-28.857
-25.956
-23.5692
-21.4437
-19.5594
-17.8708
-16.3414
-14.9491
-13.6788
-12.5183
-11.4575
-10.4873
-9.59995
-8.78802
-8.04475
-7.36374
-6.73988
-6.17172
-5.65138
-34.5964
-29.5277
-26.5964
-24.1775
-22.0165
-20.0964
-18.3731
-16.8111
-15.3888
-14.0911
-12.906
-11.8231
-10.8334
-9.92855
-9.10112
-8.34407
-7.65083
-7.01606
-6.4375
-5.90742
-35.2953
-30.2078
-27.245
-24.7928
-22.5953
-20.6383
-18.8796
-17.2844
-15.8316
-14.5062
-13.2963
-12.1912
-11.1818
-10.2596
-9.41666
-8.64585
-7.94041
-7.29473
-6.70579
-6.16609
-36.0039
-30.896
-27.9009
-25.4139
-23.1789
-21.1842
-19.3894
-17.7605
-16.2767
-14.9234
-13.6884
-12.5612
-11.5321
-10.5924
-9.73404
-8.94951
-8.23188
-7.57527
-6.97594
-6.4267
-36.7209
-31.5913
-28.5628
-26.04
-23.7663
-21.7331
-19.9016
-18.2384
-16.7234
-15.342
-14.0819
-12.9323
-11.8835
-10.9264
-10.0527
-9.25444
-8.52462
-7.85706
-7.24733
-6.68862
-37.4454
-32.2924
-29.2296
-26.6698
-24.3565
-22.284
-20.4151
-18.7173
-17.1708
-15.7611
-14.4758
-13.304
-12.2355
-11.2611
-10.3719
-9.56003
-8.81804
-8.13951
-7.51934
-6.95124
-38.177
-32.9983
-29.9
-27.3021
-24.9484
-22.8359
-20.9291
-19.1964
-17.6181
-16.18
-14.8696
-13.6755
-12.5874
-11.5956
-10.6912
-9.86568
-9.11154
-8.42201
-7.79141
-7.21402
-38.9172
-33.7087
-30.5727
-27.9355
-25.5405
-23.3874
-21.4423
-19.6744
-18.0644
-16.5979
-15.2623
-14.046
-12.9384
-11.9295
-11.0098
-10.1708
-9.40451
-8.70399
-8.06296
-7.47641
-39.6663
-34.4224
-31.2458
-28.5683
-26.1316
-23.9375
-21.954
-20.1507
-18.5088
-17.0139
-15.6532
-14.415
-13.288
-12.262
-11.3272
-10.4747
-9.69638
-8.9849
-8.33347
-7.73795
-40.4117
-35.1345
-31.9178
-29.1998
-26.7211
-24.4859
-22.4636
-20.6248
-18.951
-17.4278
-16.0422
-14.7819
-13.6357
-12.5927
-11.6429
-10.777
-9.98673
-9.26431
-8.60252
-7.99821
-6.51263
-4.4887
-3.19409
-2.20537
-1.51774
-1.01465
-0.655546
-0.401591
-0.225987
-0.108152
-0.0326017
0.0124955
0.0359712
0.0444387
0.0428402
0.0347196
0.0227003
0.0086141
-0.00623168
-0.0209585
-0.0349725
-0.0479233
-0.0595885
-0.0699162
-0.0788419
-0.0864962
-0.0927974
-0.0980163
-0.101852
-0.104734
-0.105897
-0.106011
-0.103652
-0.0998075
-0.0925186
-0.0829115
-0.0696088
-0.0524661
-0.0344955
-0.00899353
-6.7576
-4.66333
-3.33503
-2.31641
-1.60575
-1.08594
-0.713739
-0.449696
-0.26611
-0.141858
-0.0610615
-0.0116058
0.0155271
0.0270893
0.0281277
0.0222617
0.0121747
-0.000255717
-0.0136801
-0.0271896
-0.0401639
-0.0522271
-0.0631365