/*--------------------------------*- C++ -*----------------------------------*\
| =========                 |                                                 |
| \\      /  F ield         | OpenFOAM: The Open Source CFD Toolbox           |
|  \\    /   O peration     | Version:  v1912                                 |
|   \\  /    A nd           | Website:  www.openfoam.com                      |
|    \\/     M anipulation  |                                                 |
\*---------------------------------------------------------------------------*/
FoamFile
{
    version     2.0;
    format      ascii;
    class       surfaceScalarField;
    location    "19.5";
    object      phi;
}
// * * * * * * * * * * * * * * * * * * * * * * * * * * * * * * * * * * * * * //

dimensions      [0 3 -1 0 0 0 0];
oriented        oriented;


internalField   nonuniform List<scalar> 
18940
(
0.000333099
-0.234816
0.234483
0.00128905
-0.217108
0.216152
0.00270008
-0.205585
0.204174
0.00440442
-0.197646
0.195942
0.00627918
-0.191653
0.189778
0.00822881
-0.186591
0.184641
0.0101841
-0.1819
0.179945
0.0120988
-0.1773
0.175386
0.0139448
-0.172675
0.170829
0.015708
-0.167997
0.166234
0.017384
-0.163287
0.161611
0.0189753
-0.158585
0.156994
0.0204886
-0.153937
0.152423
0.0219332
-0.149383
0.147938
0.0233198
-0.144956
0.14357
0.0246595
-0.14068
0.13934
0.0259632
-0.136563
0.13526
0.0272408
-0.132603
0.131326
0.0285003
-0.128779
0.127519
-0.125052
0.123805
0.0297464
0.000355989
-0.235172
0.00133152
-0.218084
0.00275309
-0.207007
0.00446259
-0.199356
0.00633355
-0.193524
0.00827043
-0.188528
0.0102051
-0.183835
0.0120929
-0.179188
0.0139074
-0.174489
0.015636
-0.169726
0.0172759
-0.164927
0.0188307
-0.16014
0.0203081
-0.155414
0.021718
-0.150792
0.0230714
-0.14631
0.0243798
-0.141988
0.0256543
-0.137838
0.0269053
-0.133854
0.0281412
-0.130015
-0.126278
0.0293673
0.000376992
-0.235549
0.00136848
-0.219075
0.00279901
-0.208437
0.00451017
-0.201067
0.00637398
-0.195388
0.00829472
-0.190449
0.0102055
-0.185746
0.0120631
-0.181046
0.013843
-0.176269
0.0155343
-0.171417
0.0171357
-0.166528
0.018652
-0.161656
0.0200917
-0.156854
0.0214652
-0.152166
0.0227839
-0.147628
0.0240596
-0.143264
0.0253036
-0.139082
0.0265266
-0.135077
0.0277375
-0.131226
-0.127483
0.0289425
0.000390498
-0.235939
0.0013969
-0.220082
0.00283585
-0.209876
0.00454641
-0.202777
0.00639996
-0.197241
0.00830125
-0.19235
0.0101847
-0.187629
0.0120091
-0.18287
0.0137516
-0.178012
0.0154032
-0.173068
0.0169639
-0.168089
0.0184397
-0.163132
0.01984
-0.158254
0.0211757
-0.153502
0.0224585
-0.148911
0.0237003
-0.144506
0.0249127
-0.140294
0.0261066
-0.136271
0.0272915
-0.132411
-0.128666
0.0284745
0.000401479
-0.236341
0.00142019
-0.2211
0.00286496
-0.211321
0.00457192
-0.204484
0.0064119
-0.199081
0.00829041
-0.194228
0.0101434
-0.189482
0.0119315
-0.184658
0.0136339
-0.179714
0.0152433
-0.174678
0.0167613
-0.169607
0.0181949
-0.164566
0.0195542
-0.159613
0.0208508
-0.154798
0.0220964
-0.150157
0.0233032
-0.145712
0.0244828
-0.141474
0.0256466
-0.137435
0.0268046
-0.133569
-0.129826
0.0279649
0.000410361
-0.236751
0.00143876
-0.222129
0.00288657
-0.212769
0.00458689
-0.206185
0.00641005
-0.200905
0.00826248
-0.196081
0.0100818
-0.191301
0.0118307
-0.186407
0.0134905
-0.181374
0.0150554
-0.176243
0.0165287
-0.17108
0.0179183
-0.165955
0.0192353
-0.16093
0.0204913
-0.156054
0.0216987
-0.151364
0.0228693
-0.146883
0.0240152
-0.14262
0.0251478
-0.138568
0.0262779
-0.134699
-0.130963
0.0274146
0.000417713
-0.237169
0.00145328
-0.223164
0.00290124
-0.214217
0.00459177
-0.207875
0.00639484
-0.202708
0.00821797
-0.197904
0.0100007
-0.193084
0.0117076
-0.188114
0.0133221
-0.182988
0.0148404
-0.177761
0.016267
-0.172507
0.017611
-0.167299
0.0188841
-0.162203
0.0200984
-0.157269
0.0212661
-0.152532
0.0223995
-0.148016
0.0235103
-0.143731
0.0246107
-0.139668
0.0257119
-0.1358
-0.132075
0.0268241
0.000423691
-0.237593
0.00146408
-0.224205
0.00290935
-0.215662
0.00458699
-0.209553
0.00636678
-0.204487
0.00815746
-0.199695
0.00990051
-0.194827
0.0115628
-0.189776
0.0131296
-0.184555
0.0145991
-0.179231
0.0159771
-0.173885
0.0172739
-0.168596
0.0185015
-0.163431
0.0196726
-0.15844
0.0207995
-0.153659
0.0218942
-0.149111
0.0229687
-0.144805
0.0240354
-0.140735
0.0251063
-0.136871
-0.133161
0.0261928
0.000428401
-0.238021
0.00147141
-0.225248
0.0029113
-0.217102
0.00457306
-0.211215
0.00632646
-0.206241
0.00808169
-0.20145
0.00978225
-0.196528
0.0113972
-0.191391
0.0129141
-0.186072
0.0143327
-0.180649
0.0156602
-0.175212
0.0169079
-0.169844
0.0180885
-0.164611
0.0192148
-0.159566
0.0202992
-0.154743
0.0213537
-0.150166
0.0223903
-0.145842
0.0234215
-0.141766
0.0244605
-0.13791
-0.134221
0.0255198
0.000431912
-0.238453
0.00147557
-0.226291
0.00290755
-0.218534
0.00455057
-0.212858
0.00627463
-0.207965
0.0079915
-0.203167
0.00964686
-0.198183
0.0112121
-0.192957
0.0126767
-0.187537
0.0140422
-0.182015
0.0153173
-0.176487
0.0165141
-0.171041
0.0176458
-0.165743
0.0187256
-0.160646
0.0197658
-0.155784
0.0207782
-0.151178
0.0217748
-0.146838
0.0227684
-0.142759
0.023773
-0.138914
-0.135251
0.0248031
0.000434328
-0.238887
0.00147687
-0.227334
0.00289864
-0.219956
0.00452023
-0.214479
0.00621214
-0.209657
0.00788794
-0.204843
0.00949554
-0.199791
0.0110086
-0.19447
0.0124188
-0.188947
0.0137292
-0.183325
0.0149499
-0.177708
0.0160938
-0.172184
0.0171747
-0.166824
0.018206
-0.161677
0.0191998
-0.156777
0.0201677
-0.152146
0.0211216
-0.147792
0.0220746
-0.143713
0.023042
-0.139882
-0.136249
0.0240399
0.000435798
-0.239323
0.00147574
-0.228374
0.00288521
-0.221365
0.00448287
-0.216077
0.00614003
-0.211314
0.00777221
-0.206475
0.00932968
-0.201348
0.0107884
-0.195928
0.012142
-0.190301
0.0133954
-0.184579
0.0145597
-0.178872
0.0156486
-0.173273
0.0166766
-0.167852
0.0176568
-0.162657
0.0186016
-0.157722
0.0195222
-0.153066
0.0204302
-0.1487
0.0213391
-0.144621
0.0222651
-0.140808
-0.137211
0.0232269
0.000436596
-0.23976
0.00147278
-0.22941
0.00286807
-0.222761
0.0044395
-0.217648
0.00605951
-0.212934
0.00764576
-0.208061
0.00915093
-0.202853
0.0105533
-0.197331
0.0118484
-0.191596
0.0130428
-0.185773
0.0141486
-0.179978
0.0151805
-0.174305
0.016153
-0.168825
0.0170797
-0.163584
0.0179724
-0.158615
0.0188422
-0.153936
0.0197004
-0.149558
0.0205605
-0.145481
0.0214401
-0.141687
-0.138131
0.0223604
0.000437193
-0.240197
0.00146883
-0.230442
0.00284822
-0.22414
0.00439129
-0.219191
0.00597196
-0.214515
0.0075102
-0.209599
0.00896116
-0.204304
0.0103054
-0.198675
0.0115404
-0.192831
0.012674
-0.186907
0.0137195
-0.181024
0.0146921
-0.175278
0.0156065
-0.169739
0.0164764
-0.164454
0.0173134
-0.159452
0.0181281
-0.154751
0.0189314
-0.150362
0.0197367
-0.146287
0.0205628
-0.142513
-0.139002
0.021434
0.000438382
-0.240635
0.00146501
-0.231468
0.00282685
-0.225502
0.00433953
-0.220704
0.00587888
-0.216054
0.00736734
-0.211088
0.00876251
-0.205699
0.0100472
-0.19996
0.0112207
-0.194004
0.0122922
-0.187978
0.0132758
-0.182007
0.014187
-0.176189
0.0150408
-0.170593
0.0158504
-0.165263
0.0166273
-0.160229
0.0173815
-0.155505
0.0181231
-0.151103
0.0188652
-0.147029
0.0196274
-0.143276
-0.139814
0.0204397
0.000441301
-0.241076
0.00146262
-0.23249
0.00280511
-0.226844
0.00428551
-0.222184
0.00578187
-0.21755
0.0072191
-0.212525
0.00855731
-0.207038
0.00978147
-0.201184
0.0108926
-0.195115
0.0119012
-0.188987
0.0128217
-0.182928
0.0136701
-0.177037
0.0144609
-0.171384
0.0152073
-0.16601
0.0159198
-0.160941
0.0166076
-0.156193
0.0172796
-0.151775
0.0179478
-0.147697
0.0186333
-0.143961
-0.140556
0.0193744
0.000447329
-0.241524
0.00146294
-0.233505
0.00278425
-0.228166
0.00423072
-0.223631
0.00568269
-0.219002
0.00706758
-0.21391
0.00834804
-0.208318
0.00951122
-0.202347
0.0105598
-0.196164
0.0115051
-0.189932
0.0123622
-0.183785
0.0131468
-0.177822
0.0138734
-0.17211
0.0145541
-0.166691
0.0151988
-0.161586
0.0158154
-0.15681
0.0164114
-0.152371
0.0169968
-0.148283
0.0175927
-0.144557
-0.141202
0.018239
0.000458791
-0.241983
0.00146857
-0.234515
0.00276672
-0.229464
0.0041772
-0.225041
0.00558318
-0.220408
0.00691474
-0.215241
0.00813709
-0.20954
0.00923946
-0.203449
0.010226
-0.197151
0.0111088
-0.190815
0.0119031
-0.184579
0.012624
-0.178543
0.0132852
-0.172771
0.0138977
-0.167303
0.0144702
-0.162159
0.0150097
-0.157349
0.0155223
-0.152884
0.0160146
-0.148775
0.0165002
-0.145043
-0.141707
0.0170053
0.000483275
-0.242466
0.00148673
-0.235518
0.00275653
-0.230734
0.00412677
-0.226412
0.00548451
-0.221766
0.0067619
-0.216519
0.00792633
-0.210705
0.00896896
-0.204492
0.00989526
-0.198077
0.0107179
-0.191638
0.011452
-0.185313
0.0121117
-0.179203
0.0127089
-0.173368
0.013252
-0.167846
0.0137466
-0.162653
0.0141959
-0.157798
0.0146014
-0.153289
0.0149619
-0.149135
0.0152822
-0.145363
-0.14205
0.0156255
0.000540867
-0.243007
0.00152586
-0.236503
0.00275336
-0.231961
0.00407816
-0.227736
0.00538606
-0.223074
0.00660934
-0.217742
0.00771692
-0.211812
0.00870182
-0.205477
0.00957093
-0.198946
0.0103377
-0.192404
0.0110173
-0.185993
0.0116232
-0.179808
0.0121655
-0.173911
0.0126495
-0.16833
0.0130748
-0.163078
0.0134345
-0.158158
0.0137119
-0.153567
0.0138815
-0.149305
0.0139359
-0.145417
-0.142207
0.014093
0.250341
0.000400358
-0.250742
0.249968
0.000373625
0.249602
0.000365913
0.249236
0.000365686
0.248868
0.000368352
0.248495
0.000372458
0.248118
0.000377294
0.247736
0.000382276
0.247349
0.000387014
0.246957
0.000391302
0.246562
0.000395039
0.246164
0.000398193
0.245763
0.000400748
0.245361
0.000402678
0.244957
0.000403852
0.244553
0.000404059
0.24415
0.000402248
0.243753
0.000397866
0.243371
0.000381717
0.000364085
0.251645
0.000983818
-0.252228
0.251027
0.000991172
0.250382
0.00101057
0.249712
0.001036
0.249018
0.00106295
0.2483
0.0010899
0.247561
0.00111641
0.246801
0.00114197
0.246022
0.00116617
0.245225
0.00118872
0.24441
0.00120951
0.24358
0.00122851
0.242735
0.0012457
0.241877
0.00126107
0.241006
0.00127446
0.240124
0.00128566
0.239233
0.00129355
0.238333
0.00129785
0.237423
0.00129223
0.00128323
0.24993
0.00153081
-0.250477
0.24932
0.00160125
0.248659
0.00167185
0.247951
0.00174365
0.2472
0.0018144
0.246407
0.00188273
0.245575
0.0019483
0.244706
0.00201087
0.243802
0.0020702
0.242865
0.00212611
0.241896
0.00217853
0.240897
0.0022275
0.23987
0.00227308
0.238815
0.00231535
0.237735
0.00235432
0.236631
0.00238999
0.235503
0.00242183
0.234351
0.00245006
0.233171
0.0024723
0.00249271
0.245496
0.00195573
-0.245921
0.245004
0.00209357
0.244449
0.00222673
0.243836
0.00235679
0.243167
0.00248321
0.242445
0.00260507
0.241671
0.002722
0.240848
0.00283385
0.239978
0.00294045
0.239062
0.00304171
0.238103
0.00313763
0.237102
0.0032283
0.236061
0.00331391
0.234982
0.0033947
0.233865
0.00347092
0.232713
0.0035429
0.231524
0.00361071
0.230299
0.00367495
0.229036
0.00373489
0.00379249
0.239048
0.00222411
-0.239316
0.23871
0.00243077
0.238307
0.00263063
0.237839
0.00282464
0.237309
0.00301287
0.236719
0.00319474
0.236072
0.00336991
0.235367
0.00353817
0.234608
0.00369937
0.233797
0.00385346
0.232934
0.00400048
0.232021
0.00414059
0.231061
0.00427408
0.230055
0.00440137
0.229002
0.00452296
0.227906
0.00463951
0.226765
0.00475156
0.22558
0.00486004
0.22435
0.00496507
0.00506828
0.231335
0.00234378
-0.231455
0.231147
0.00261858
0.230893
0.00288545
0.230573
0.00314476
0.230189
0.00339665
0.229743
0.00364072
0.229236
0.00387661
0.22867
0.00410408
0.228047
0.00432296
0.227367
0.00453318
0.226632
0.00473482
0.225845
0.00492808
0.225006
0.00511335
0.224116
0.00529121
0.223176
0.0054624
0.222188
0.00562791
0.221151
0.00578871
0.220065
0.00594614
0.218929
0.00610101
0.0062551
0.223025
0.00234348
-0.223025
0.22296
0.00268402
0.222829
0.00301588
0.222635
0.00333908
0.222378
0.0036536
0.22206
0.0039591
0.221681
0.00425521
0.221244
0.00454162
0.220748
0.00481813
0.220197
0.00508465
0.219591
0.00534124
0.21893
0.00558814
0.218218
0.00582582
0.217454
0.006055
0.21664
0.00627667
0.215776
0.00649212
0.214862
0.00670284
0.213897
0.00691062
0.212881
0.00711695
0.00732391
0.214618
0.00225744
-0.214532
0.214642
0.00266036
0.214603
0.00305403
0.214504
0.0034382
0.214345
0.00381273
0.214127
0.00417721
0.213851
0.00453125
0.213518
0.00487448
0.21313
0.00520664
0.212687
0.00552759
0.212191
0.00583736
0.211643
0.00613619
0.211044
0.00642459
0.210395
0.00670343
0.209698
0.00697391
0.208953
0.00723769
0.208159
0.00749677
0.207316
0.00775354
0.206422
0.00801028
0.00826955
0.206444
0.00211727
-0.206303
0.206525
0.00257898
0.206548
0.00303091
0.206514
0.00347263
0.206423
0.00390387
0.206276
0.00432416
0.206074
0.00473304
0.205818
0.00513006
0.20551
0.0055149
0.20515
0.00588733
0.20474
0.00624732
0.204281
0.00659508
0.203775
0.00693113
0.203222
0.00725642
0.202623
0.0075724
0.20198
0.00788104
0.201292
0.00818497
0.200558
0.00848731
0.199777
0.00879134
0.00910046
0.198693
0.00194868
-0.198525
0.198807
0.00246581
0.198865
0.00297259
0.198869
0.0034685
0.19882
0.00395314
0.198718
0.00442596
0.198565
0.00488641
0.198361
0.00533398
0.198107
0.00576821
0.197806
0.00618879
0.197458
0.0065956
0.197064
0.00698874
0.196626
0.00736872
0.196146
0.00773648
0.195625
0.00809366
0.195064
0.00844257
0.194462
0.00878652
0.19382
0.00912948
0.193135
0.00947617
0.00983118
0.191458
0.00177073
-0.19128
0.191583
0.00234032
0.191657
0.00289899
0.191679
0.00344612
0.191651
0.00398118
0.191574
0.00450353
0.191447
0.00501253
0.191274
0.00550756
0.191054
0.00598805
0.190789
0.00645356
0.190481
0.00690382
0.190131
0.00733879
0.189741
0.00775885
0.189312
0.00816485
0.188848
0.00855855
0.188348
0.00894246
0.187813
0.00932076
0.187245
0.00969825
0.186639
0.0100818
0.0104775
0.184759
0.00159642
-0.184585
0.184884
0.00221607
0.184958
0.00282424
0.184984
0.00342012
0.184962
0.00400308
0.184894
0.00457241
0.184779
0.00512737
0.184619
0.00566721
0.184416
0.00619123
0.184171
0.00669882
0.183885
0.00718951
0.183561
0.00766303
0.1832
0.00811957
0.182805
0.00855972
0.182378
0.00898526
0.181922
0.00939865
0.181438
0.00980508
0.180926
0.01021
0.180384
0.0106235
0.0110536
0.178581
0.00143392
-0.178418
0.178695
0.00210188
0.178762
0.00275763
0.178782
0.00340028
0.178755
0.00402914
0.178684
0.00464341
0.17857
0.00524221
0.178412
0.00582469
0.178213
0.00638999
0.177975
0.00693729
0.177698
0.0074659
0.177386
0.00797522
0.177041
0.00846511
0.176665
0.00893572
0.176261
0.00938869
0.175834
0.00982596
0.175385
0.010254
0.174917
0.0106781
0.174427
0.0111136
0.0115697
0.172882
0.00128807
-0.172737
0.172981
0.00200288
0.173034
0.00270472
0.173042
0.00339265
0.173005
0.00406586
0.172925
0.00472345
0.172803
0.00536444
0.17264
0.00598785
0.172437
0.00659266
0.172197
0.00717783
0.17192
0.00774236
0.17161
0.00828528
0.171269
0.00880599
0.170901
0.00930394
0.170509
0.00978041
0.170099
0.0102361
0.169674
0.0106791
0.16924
0.0111125
0.168792
0.0115612
0.0120316
0.167615
0.00116123
-0.167488
0.167696
0.00192183
0.167732
0.00266857
0.167724
0.00340055
0.167673
0.00411686
0.16758
0.00481648
0.167446
0.00549836
0.167273
0.00616137
0.167061
0.00680432
0.166813
0.00742594
0.166531
0.00802491
0.166216
0.0085998
0.165873
0.00914945
0.165504
0.00967231
0.165116
0.010169
0.164714
0.0106381
0.164303
0.0110894
0.163895
0.0115203
0.163485
0.0119717
0.0124381
0.162726
0.00105426
-0.162619
0.162788
0.00185962
0.162807
0.00265026
0.162782
0.00342526
0.162715
0.0041836
0.162608
0.00492419
0.16246
0.00564587
0.162274
0.00634739
0.162051
0.0070274
0.161793
0.00768438
0.161501
0.0083167
0.161178
0.00892242
0.160828
0.00949971
0.160454
0.0100458
0.160063
0.0105604
0.159663
0.0110384
0.15926
0.0114919
0.158874
0.0119061
0.158498
0.0123485
0.0127778
0.158166
0.000966797
-0.158079
0.15821
0.00181586
0.158211
0.00264948
0.15817
0.00346652
0.158087
0.00426589
0.157965
0.00504643
0.157804
0.00580689
0.157606
0.00654591
0.157371
0.00726199
0.157102
0.0079534
0.156801
0.00861818
0.156469
0.00925395
0.156111
0.00985812
0.15573
0.0104266
0.155333
0.0109576
0.15493
0.0114413
0.15453
0.0118915
0.154163
0.012273
0.153815
0.0126964
0.0130263
0.15389
0.000896877
-0.15382
0.153917
0.00178913
0.153902
0.00266464
0.153846
0.00352263
0.15375
0.00436192
0.153615
0.00518125
0.153443
0.00597932
0.153234
0.00675469
0.15299
0.00750573
0.152713
0.00823054
0.152404
0.00892689
0.152066
0.00959199
0.151702
0.0102226
0.151315
0.0108133
0.150912
0.0113606
0.150505
0.0118485
0.150105
0.0122911
0.149758
0.0126201
0.149433
0.0130209
0.0131549
0.149857
0.000842923
-0.149803
0.149869
0.00177671
0.149841
0.00269268
0.149774
0.00359017
0.149668
0.00446783
0.149525
0.00532436
0.149346
0.00615845
0.149132
0.00696859
0.148884
0.00775305
0.148605
0.00850981
0.148295
0.00923646
0.147958
0.0099299
0.147594
0.0105865
0.147207
0.0111995
0.146804
0.0117643
0.146394
0.0122581
0.145991
0.0126939
0.145664
0.0129475
0.145379
0.0133058
0.0131167
0.146028
-0.145988
0.000803058
0.14603
0.0017748
0.145993
0.00272937
0.145919
0.00366422
0.145809
0.00457795
0.145664
0.00546934
0.145485
0.00633707
0.145274
0.0071796
0.145032
0.00799513
0.144761
0.00878156
0.144461
0.00953644
0.144134
0.0102565
0.143783
0.0109379
0.143409
0.0115731
0.143016
0.0121574
0.142612
0.0126621
0.142203
0.0131029
0.141861
0.0132893
0.141611
0.0135556
0.0125206
0.253798
7.30516e-05
-0.253871
0.253764
3.45121e-05
0.253734
2.96914e-05
0.253696
3.77191e-05
0.253645
5.13465e-05
0.253577
6.83848e-05
0.253489
8.75489e-05
0.253381
0.000107733
0.253253
0.000128138
0.253105
0.000148284
0.252937
0.00016774
0.252751
0.000186151
0.252547
0.000203753
0.252326
0.000221337
0.252088
0.000238306
0.251834
0.000253231
0.251569
0.000265504
0.251294
0.000275118
0.251017
0.000276278
0.000275902
0.25497
-0.000232632
-0.254664
0.255217
-0.000212016
0.25542
-0.000174122
0.255581
-0.00012327
0.255699
-6.59401e-05
0.255772
-4.8248e-06
0.2558
5.89415e-05
0.255784
0.000124265
0.255722
0.000190286
0.255614
0.000256234
0.255461
0.000320766
0.255264
0.000382847
0.255026
0.000441602
0.254746
0.000501833
0.254421
0.000563234
0.254055
0.000618826
0.253651
0.000669521
0.253211
0.000715452
0.252735
0.000751898
0.000783012
0.250047
-0.000867481
-0.249412
0.250611
-0.000775934
0.251112
-0.00067468
0.251552
-0.000563738
0.251933
-0.000446522
0.252253
-0.000325322
0.252513
-0.000201272
0.252714
-7.58958e-05
0.252853
5.05841e-05
0.252931
0.000178956
0.252947
0.000304281
0.252904
0.000426017
0.252799
0.000546482
0.252635
0.000665787
0.252416
0.000782592
0.25214
0.000894585
0.251808
0.00100102
0.251422
0.00110188
0.250979
0.0011953
0.00128408
0.241585
-0.0017689
-0.240683
0.242416
-0.00160722
0.24318
-0.00143846
0.243878
-0.00126177
0.24451
-0.00107868
0.245076
-0.000891031
0.245574
-0.00070015
0.246006
-0.000507281
0.246369
-0.000313121
0.246664
-0.000115423
0.246888
8.02851e-05
0.247047
0.000266917
0.247137
0.000456193
0.247161
0.000642453
0.247118
0.000824975
0.24701
0.00100289
0.246836
0.0011752
0.246596
0.00134151
0.246291
0.00150079
0.00165356
0.23147
-0.00286026
-0.230379
0.232496
-0.00263312
0.233456
-0.00239863
0.234351
-0.00215631
0.235179
-0.00190696
0.23594
-0.00165205
0.236633
-0.00139298
0.237256
-0.00113092
0.23781
-0.000866859
0.238296
-0.000601529
0.238714
-0.000337675
0.239059
-7.76052e-05
0.239334
0.000181278
0.239539
0.000436928
0.239675
0.000689165
0.239741
0.000936554
0.239738
0.00117825
0.239666
0.0014136
0.239525
0.0016418
0.00186273
0.220924
-0.00407266
-0.219711
0.222075
-0.00378488
0.223165
-0.00348819
0.224191
-0.00318269
0.225154
-0.00286909
0.22605
-0.00254877
0.226881
-0.00222326
0.227644
-0.00189398
0.228339
-0.00156232
0.228967
-0.00122963
0.229527
-0.000897353
0.230016
-0.00056689
0.230436
-0.000239049
0.230789
8.4165e-05
0.231073
0.000405169
0.231287
0.000722521
0.231432
0.00103324
0.231508
0.00133737
0.231516
0.00163431
0.00192374
0.210688
-0.00535132
-0.209409
0.21191
-0.00500701
0.213074
-0.0046517
0.214177
-0.00428598
0.215219
-0.00391079
0.216197
-0.00352767
0.217113
-0.00313838
0.217963
-0.00274461
0.218749
-0.00234795
0.219469
-0.00194986
0.220123
-0.00155167
0.220711
-0.00115483
0.221232
-0.000760122
0.221685
-0.000368254
0.222078
1.21019e-05
0.2224
0.000400091
0.222656
0.000777504
0.222845
0.00114804
0.222968
0.00151138
0.00186706
0.201153
-0.00665646
-0.199848
0.202405
-0.00625891
0.203601
-0.00584798
0.20474
-0.00542462
0.205819
-0.00499022
0.206838
-0.00454669
0.207796
-0.00409609
0.208692
-0.00364038
0.209525
-0.00318135
0.210296
-0.0027206
0.211004
-0.00225957
0.211648
-0.00179964
0.21223
-0.00134187
0.212749
-0.000887309
0.213199
-0.000437391
0.213596
2.48378e-06
0.213924
0.000449547
0.21419
0.000882425
0.214392
0.00130886
0.00172754
0.192471
-0.0079616
-0.191166
0.193725
-0.00751333
0.194926
-0.00704901
0.196072
-0.00656991
0.197159
-0.00607802
0.198189
-0.00557585
0.199158
-0.00506586
0.200068
-0.00455032
0.200918
-0.00403125
0.201708
-0.00351038
0.202438
-0.00298924
0.203107
-0.00246917
0.203717
-0.00195136
0.204266
-0.00143675
0.204755
-0.000926738
0.20518
-0.000422488
0.205553
7.68357e-05
0.205863
0.000572914
0.206113
0.0010587
0.00153686
0.184651
-0.00925073
-0.183362
0.185892
-0.00875373
0.18708
-0.00823755
0.188214
-0.00770377
0.189292
-0.00715536
0.190311
-0.00659563
0.191273
-0.00602755
0.192176
-0.00545373
0.193022
-0.00487642
0.193809
-0.00429749
0.194538
-0.00371849
0.19521
-0.00314076
0.195824
-0.00256544
0.19638
-0.00199351
0.19688
-0.00142603
0.197321
-0.000863863
0.197706
-0.000307826
0.198036
0.000242588
0.198309
0.000786207
0.00132053
0.177629
-0.0105155
-0.176364
0.178847
-0.00997158
0.180013
-0.00940439
0.181126
-0.00881619
0.182182
-0.0082115
0.183181
-0.00759464
0.184123
-0.00696917
0.185007
-0.00633808
0.185834
-0.00570384
0.186605
-0.00506841
0.18732
-0.00443334
0.187979
-0.00379989
0.188583
-0.00316916
0.189132
-0.0025421
0.189625
-0.00191961
0.190064
-0.00130255
0.190448
-0.0006915
0.190779
-8.91164e-05
0.191056
0.000509141
0.00109712
0.171305
-0.0117531
-0.170068
0.172498
-0.0111641
0.17364
-0.0105461
0.174726
-0.00990291
0.175756
-0.00924151
0.176729
-0.00856737
0.177645
-0.00788468
0.178503
-0.00719686
0.179306
-0.00650657
0.180053
-0.00581578
0.180746
-0.00512596
0.181384
-0.00443829
0.181969
-0.00375378
0.1825
-0.0030733
0.182978
-0.0023977
0.183404
-0.00172781
0.183777
-0.00106442
0.184096
-0.000409013
0.184367
0.000238405
0.000879258
0.165578
-0.0129643
-0.164367
0.166747
-0.0123326
0.167864
-0.0116632
0.168925
-0.0109636
0.169928
-0.0102444
0.170873
-0.00951227
0.17176
-0.00877203
0.172591
-0.00802759
0.173366
-0.00728172
0.174086
-0.00653631
0.174753
-0.00579269
0.175367
-0.0050519
0.175928
-0.00431481
0.176437
-0.00358222
0.176894
-0.0028549
0.1773
-0.00213369
0.177654
-0.00141916
0.177958
-0.000712103
0.178214
-1.8249e-05
0.000675066
0.160353
-0.0141528
-0.159165
0.161502
-0.013482
0.162598
-0.0127592
0.163636
-0.0120008
0.164613
-0.0112218
0.165531
-0.0104302
0.16639
-0.00963143
0.167193
-0.00883002
0.16794
-0.00802866
0.168632
-0.00722902
0.169272
-0.00643223
0.169859
-0.00563909
0.170395
-0.0048503
0.170879
-0.00406657
0.171313
-0.00328857
0.171696
-0.00251711
0.17203
-0.00175289
0.172315
-0.000997187
0.172548
-0.000251698
0.000486732
0.155551
-0.0153252
-0.154378
0.156688
-0.0146196
0.157769
-0.0138396
0.158786
-0.0130184
0.159741
-0.0121764
0.160633
-0.0113226
0.161466
-0.0104637
0.16224
-0.00960441
0.162959
-0.00874731
0.163623
-0.00789363
0.164235
-0.00704412
0.164795
-0.00619928
0.165305
-0.00535957
0.165763
-0.00452551
0.166173
-0.00369772
0.166532
-0.00287695
0.166844
-0.00206398
0.167106
-0.00125981
0.16732
-0.000465586
0.00031864
0.151111
-0.0164938
-0.149942
0.152247
-0.0157557
0.153318
-0.0149109
0.15432
-0.0140206
0.155254
-0.01311
0.156121
-0.0121897
0.156925
-0.0112682
0.157671
-0.01035
0.158361
-0.00943691
0.158997
-0.00852951
0.15958
-0.00762793
0.160113
-0.00673218
0.160596
-0.0058424
0.161029
-0.00495891
0.161414
-0.00408221
0.16175
-0.00321298
0.162038
-0.00235203
0.162278
-0.00150021
0.162472
-0.000658795
0.000170962
0.146989
-0.0176866
-0.145797
0.148138
-0.0169045
0.149206
-0.0159782
0.150194
-0.015009
0.151105
-0.0140207
0.151943
-0.0130282
0.152717
-0.0120418
0.153431
-0.0110642
0.15409
-0.0100956
0.154696
-0.00913548
0.155251
-0.00818305
0.155756
-0.00723764
0.156213
-0.00629895
0.156621
-0.0053671
0.156981
-0.00444248
0.157294
-0.00352573
0.15756
-0.00261763
0.157779
-0.00171912
0.157951
-0.000831204
4.31038e-05
0.143157
-0.0189655
-0.141878
0.144338
-0.0180854
0.145401
-0.0170412
0.14637
-0.0159779
0.147249
-0.0149005
0.148052
-0.0138305
0.148789
-0.0127787
0.149468
-0.0117432
0.150093
-0.0107212
0.150668
-0.00971063
0.151195
-0.0087094
0.151673
-0.00771609
0.152104
-0.00673
0.152488
-0.00575106
0.152825
-0.00477962
0.153116
-0.0038163
0.15336
-0.00286198
0.153559
-0.00191773
0.153712
-0.000984694
-6.49094e-05
0.139625
-0.0203968
-0.138194
0.140832
-0.019293
0.141873
-0.0180813
0.142801
-0.0169064
0.143635
-0.0157343
0.144392
-0.0145873
0.145086
-0.0134734
0.145727
-0.0123844
0.146319
-0.0113132
0.146864
-0.0102555
0.147363
-0.00920812
0.147816
-0.00816896
0.148223
-0.00713706
0.148584
-0.00611234
0.1489
-0.00509521
0.14917
-0.00408638
0.149395
-0.0030868
0.149575
-0.00209769
0.149711
-0.00112057
-0.000157192
0.13645
-0.135082
-0.0217647
0.13757
-0.0204133
0.138572
-0.019083
0.139428
-0.0177619
0.1402
-0.0165066
0.140909
-0.0152968
0.141563
-0.0141269
0.142168
-0.0129894
0.142728
-0.0118738
0.143245
-0.0107724
0.143718
-0.00968124
0.144147
-0.00859791
0.144532
-0.00752155
0.144872
-0.00645221
0.145167
-0.00539049
0.145418
-0.00433729
0.145625
-0.00329364
0.145788
-0.00226069
0.145907
-0.00124008
-0.000238198
0.0292523
0.110187
-0.108775
-0.0306639
0.0278171
0.113311
-0.111876
0.0263556
0.116578
-0.115116
0.0248639
0.120008
-0.118516
0.0233385
0.123634
-0.122108
0.0217763
0.127495
-0.125933
0.0201749
0.131649
-0.130048
0.0185326
0.136171
-0.134529
0.0168482
0.141161
-0.139477
0.0151217
0.146743
-0.145017
0.0133545
0.15307
-0.151303
0.0115502
0.160319
-0.158515
0.00971708
0.16868
-0.166847
0.00787093
0.17833
-0.176484
0.00604014
0.189386
-0.187556
0.00427252
0.201816
-0.200049
0.00264427
0.215306
-0.213678
0.00127067
0.229055
-0.227681
0.000313574
0.24138
-0.240423
0.249313
-0.249
0.0291084
0.111594
-0.0305158
0.0276777
0.114742
0.0262207
0.118035
0.0247339
0.121495
0.0232136
0.125154
0.0216567
0.129052
0.0200607
0.133245
0.0184237
0.137808
0.0167445
0.14284
0.0150232
0.148464
0.013261
0.154832
0.0114621
0.162118
0.00963527
0.170507
0.00779709
0.180168
0.00597706
0.191206
0.00422446
0.203569
0.00261691
0.216914
0.0012691
0.230402
0.000338076
0.242311
0.249651
0.0289235
0.112995
-0.0303243
0.0274993
0.116166
0.0260492
0.119485
0.0245695
0.122975
0.0230564
0.126667
0.021507
0.130602
0.0199186
0.134834
0.0182891
0.139438
0.0166174
0.144512
0.0149034
0.150178
0.0131487
0.156587
0.0113576
0.163909
0.00953944
0.172325
0.00771153
0.181996
0.00590434
0.193014
0.0041681
0.205305
0.00258093
0.218501
0.00125596
0.231727
0.000341931
0.243225
0.249993
0.0286989
0.114387
-0.030091
0.0272836
0.117582
0.0258424
0.120926
0.0243718
0.124445
0.0228681
0.128171
0.0213281
0.132142
0.0197493
0.136413
0.0181294
0.141058
0.0164673
0.146174
0.0147629
0.151883
0.0130179
0.158332
0.0112368
0.16569
0.00942952
0.174132
0.007614
0.183812
0.00582146
0.194806
0.00410285
0.207024
0.00253641
0.220068
0.00123364
0.23303
0.000337685
0.244121
0.250331
0.0284367
0.115768
-0.0298182
0.0270321
0.118986
0.0256018
0.122356
0.0241422
0.125905
0.0226497
0.129663
0.0211211
0.13367
0.0195537
0.13798
0.0179454
0.142666
0.0162948
0.147824
0.014602
0.153576
0.0128687
0.160065
0.0110998
0.167459
0.00930551
0.175927
0.00750442
0.185613
0.00572848
0.196582
0.00402928
0.208723
0.00248504
0.221612
0.00120568
0.23431
0.000329597
0.244998
0.250661
0.0281393
0.117137
-0.0295085
0.026747
0.120379
0.0253292
0.123774
0.0238822
0.127352
0.0224025
0.131143
0.0208868
0.135186
0.0193326
0.139534
0.0177375
0.144261
0.0161004
0.149462
0.0144211
0.155255
0.0127015
0.161785
0.0109468
0.169214
0.00916752
0.177706
0.00738296
0.187398
0.00562572
0.198339
0.00394795
0.210401
0.00242778
0.223132
0.00117343
0.235564
0.000318842
0.245852
0.250979
0.0278092
0.118493
-0.029165
0.0264304
0.121757
0.0250263
0.125178
0.0235933
0.128785
0.0221277
0.132609
0.0206264
0.136687
0.0190868
0.141074
0.0175066
0.145841
0.0158846
0.151084
0.0142205
0.156919
0.0125165
0.163489
0.010778
0.170952
0.00901581
0.179468
0.00724988
0.189163
0.00551346
0.200076
0.0038592
0.212055
0.00236505
0.224626
0.00113743
0.236792
0.00030612
0.246683
0.251285
0.027449
0.119835
-0.0287909
0.0260845
0.123122
0.0246951
0.126567
0.0232769
0.130203
0.0218265
0.134059
0.0203409
0.138173
0.0188172
0.142598
0.0172533
0.147405
0.0156478
0.152689
0.0140007
0.158566
0.0123141
0.165176
0.0105936
0.172673
0.00885063
0.181211
0.00710543
0.190909
0.00539196
0.201789
0.00376331
0.213684
0.00229717
0.226092
0.00109819
0.237991
0.000292031
0.24749
0.251578
0.0270616
0.121163
-0.0283893
0.0257116
0.124472
0.0243372
0.127942
0.0229345
0.131606
0.0215001
0.135493
0.0200309
0.139642
0.0185243
0.144104
0.016978
0.148952
0.0153906
0.154276
0.013762
0.160195
0.0120946
0.166843
0.010394
0.174373
0.00867217
0.182933
0.00694979
0.192631
0.00526143
0.203478
0.00366056
0.215285
0.00222453
0.227528
0.00105618
0.239159
0.000276987
0.248269
0.251854
0.0266494
0.122477
-0.0279636
0.0253136
0.125808
0.0239541
0.129301
0.0225671
0.132993
0.0211491
0.136911
0.0196972
0.141094
0.0182086
0.145593
0.016681
0.150479
0.015113
0.155844
0.0135046
0.161803
0.011858
0.16849
0.0101793
0.176052
0.0084806
0.184632
0.00678318
0.194328
0.00512212
0.205139
0.00355123
0.216856
0.00214747
0.228932
0.00101177
0.240295
0.00026123
0.249019
0.252116
0.0262145
0.123779
-0.0275167
0.0248918
0.12713
0.0235467
0.130646
0.0221753
0.134364
0.020774
0.138313
0.0193399
0.142528
0.0178702
0.147063
0.0163624
0.151987
0.0148152
0.157392
0.0132285
0.16339
0.0116045
0.170114
0.00994958
0.177707
0.00827604
0.186305
0.00660575
0.195999
0.00497423
0.20677
0.00343558
0.218394
0.00206626
0.230301
0.00096522
0.241396
0.000244918
0.24974
0.252361
0.0257583
0.125072
-0.0270508
0.0244471
0.128442
0.0231152
0.131978
0.0217589
0.13572
0.0203744
0.139697
0.0189587
0.143944
0.0175087
0.148513
0.016022
0.153474
0.014497
0.158917
0.0129336
0.164953
0.0113341
0.171713