/*--------------------------------*- C++ -*----------------------------------*\
  =========                 |
  \\      /  F ield         | OpenFOAM: The Open Source CFD Toolbox
   \\    /   O peration     | Website:  https://openfoam.org
    \\  /    A nd           | Version:  6.0
     \\/     M anipulation  |
\*---------------------------------------------------------------------------*/
FoamFile
{
    version     2.0;
    format      ascii;
    class       volScalarField;
    location    "22";
    object      p;
}
// * * * * * * * * * * * * * * * * * * * * * * * * * * * * * * * * * * * * * //

dimensions      [0 2 -2 0 0 0 0];

internalField   nonuniform List<scalar> 
9600
(
-0.387651
-0.38028
-0.375219
-0.371205
-0.367527
-0.364099
-0.360847
-0.357698
-0.354614
-0.351574
-0.34857
-0.345601
-0.342671
-0.339786
-0.336951
-0.334178
-0.331466
-0.328771
-0.326088
-0.323948
-0.393354
-0.385812
-0.380634
-0.376478
-0.37262
-0.368981
-0.365493
-0.362093
-0.358747
-0.355441
-0.352173
-0.348945
-0.345764
-0.342639
-0.339579
-0.336597
-0.333696
-0.330816
-0.32794
-0.325766
-0.40012
-0.392289
-0.386901
-0.382535
-0.378436
-0.37453
-0.370756
-0.367056
-0.363403
-0.359789
-0.356216
-0.352689
-0.349221
-0.345822
-0.342504
-0.339286
-0.336172
-0.333082
-0.329984
-0.3278
-0.407855
-0.399705
-0.394053
-0.389414
-0.385014
-0.380784
-0.37667
-0.37262
-0.368613
-0.364645
-0.360722
-0.356856
-0.353061
-0.349351
-0.345741
-0.342256
-0.338901
-0.335574
-0.332224
-0.330054
-0.41662
-0.408094
-0.402116
-0.397144
-0.392381
-0.38777
-0.383261
-0.37881
-0.374399
-0.37003
-0.365713
-0.361464
-0.3573
-0.353239
-0.3493
-0.345514
-0.34189
-0.338295
-0.334657
-0.332525
-0.426467
-0.417492
-0.411121
-0.405753
-0.400568
-0.395516
-0.390557
-0.385651
-0.380786
-0.375967
-0.37121
-0.366532
-0.361955
-0.357501
-0.353192
-0.349067
-0.345139
-0.341243
-0.33728
-0.335209
-0.437436
-0.427934
-0.421102
-0.415272
-0.409601
-0.404049
-0.398583
-0.393169
-0.387797
-0.38248
-0.377233
-0.37208
-0.367044
-0.362151
-0.357428
-0.352922
-0.348653
-0.344416
-0.340086
-0.338096
-0.449564
-0.439451
-0.432087
-0.42573
-0.419509
-0.413395
-0.407365
-0.401387
-0.395458
-0.389592
-0.383807
-0.37813
-0.372587
-0.367207
-0.362023
-0.357091
-0.352436
-0.347813
-0.343067
-0.341176
-0.462891
-0.452078
-0.444106
-0.437153
-0.430315
-0.423579
-0.416926
-0.410331
-0.403794
-0.397329
-0.390959
-0.384709
-0.378611
-0.372693
-0.366996
-0.361586
-0.356496
-0.351435
-0.346215
-0.344435
-0.477449
-0.465844
-0.457187
-0.449567
-0.442046
-0.434624
-0.427292
-0.420028
-0.412832
-0.405721
-0.398718
-0.391849
-0.385145
-0.378639
-0.372374
-0.366429
-0.360845
-0.355285
-0.349523
-0.347856
-0.493273
-0.480776
-0.471352
-0.462994
-0.454723
-0.446555
-0.438489
-0.430504
-0.422603
-0.414801
-0.407121
-0.399587
-0.392229
-0.385082
-0.378191
-0.371647
-0.365504
-0.359369
-0.352982
-0.351417
-0.510391
-0.496897
-0.486624
-0.477454
-0.468367
-0.459394
-0.450541
-0.441788
-0.433138
-0.424605
-0.416207
-0.407966
-0.399909
-0.392067
-0.38449
-0.377279
-0.370497
-0.363697
-0.356581
-0.355083
-0.528824
-0.514225
-0.503016
-0.492963
-0.482996
-0.473161
-0.463471
-0.453908
-0.444471
-0.435172
-0.426021
-0.417036
-0.408238
-0.399653
-0.391327
-0.383371
-0.375858
-0.36828
-0.360299
-0.358801
-0.548586
-0.532769
-0.520538
-0.509531
-0.498621
-0.487871
-0.4773
-0.46689
-0.456635
-0.446541
-0.436612
-0.426855
-0.417281
-0.407907
-0.39877
-0.389985
-0.381632
-0.373133
-0.364106
-0.362483
-0.56968
-0.552527
-0.539189
-0.527159
-0.515249
-0.503536
-0.492047
-0.480758
-0.469662
-0.458754
-0.44803
-0.437484
-0.427113
-0.416913
-0.406907
-0.397205
-0.387881
-0.378275
-0.367945
-0.365979
-0.592095
-0.573486
-0.558956
-0.54584
-0.532876
-0.52016
-0.507721
-0.495533
-0.48358
-0.471853
-0.460332
-0.448997
-0.437822
-0.42678
-0.415863
-0.405157
-0.394713
-0.383757
-0.371753
-0.369063
-0.615805
-0.595616
-0.579813
-0.565554
-0.551492
-0.537738
-0.524326
-0.511225
-0.498415
-0.485875
-0.473574
-0.461474
-0.449524
-0.437661
-0.425833
-0.414079
-0.402397
-0.389845
-0.375675
-0.371613
-0.640794
-0.618873
-0.601717
-0.586265
-0.571069
-0.556252
-0.541853
-0.527838
-0.514179
-0.500849
-0.487808
-0.474998
-0.462342
-0.449735
-0.43706
-0.424284
-0.411319
-0.396929
-0.379771
-0.372917
-0.667044
-0.643191
-0.624599
-0.60792
-0.591565
-0.575671
-0.56028
-0.545356
-0.53087
-0.516793
-0.503078
-0.489655
-0.476422
-0.463225
-0.449854
-0.436126
-0.421701
-0.404605
-0.381938
-0.368411
-0.694177
-0.668383
-0.648363
-0.630447
-0.612924
-0.595944
-0.57956
-0.563739
-0.548457
-0.53369
-0.519401
-0.505536
-0.492007
-0.478667
-0.465284
-0.451558
-0.436761
-0.417904
-0.390017
-0.367114
-1.1688
-1.16332
-1.15409
-1.14165
-1.12624
-1.10812
-1.08755
-1.06485
-1.04028
-1.01414
-0.986701
-0.958232
-0.928988
-0.899211
-0.869125
-0.838941
-0.808851
-0.779014
-0.749563
-0.720892
-1.11828
-1.11287
-1.10398
-1.092
-1.07718
-1.05981
-1.04014
-1.01847
-0.995077
-0.970227
-0.944188
-0.917214
-0.889549
-0.861423
-0.833052
-0.804637
-0.776366
-0.748411
-0.720935
-0.69417
-1.07614
-1.07107
-1.0627
-1.05133
-1.03722
-1.02064
-1.00187
-0.981189
-0.958856
-0.935142
-0.910305
-0.884594
-0.858245
-0.83148
-0.804509
-0.777527
-0.750714
-0.724239
-0.69826
-0.672937
-1.03621
-1.03178
-1.02414
-1.01359
-1.00036
-0.984722
-0.966946
-0.947302
-0.926055
-0.903468
-0.879794
-0.855278
-0.830152
-0.804635
-0.778931
-0.753232
-0.727712
-0.702534
-0.677846
-0.653788
-0.995683
-0.992131
-0.985452
-0.975907
-0.963737
-0.949195
-0.932545
-0.914051
-0.893976
-0.872577
-0.850106
-0.826802
-0.802896
-0.778605
-0.754131
-0.729662
-0.705371
-0.681416
-0.657941
-0.635076
-0.95511
-0.952624
-0.947074
-0.9387
-0.927733
-0.914415
-0.899003
-0.881754
-0.862923
-0.842765
-0.821527
-0.799446
-0.776751
-0.753657
-0.730365
-0.707064
-0.683926
-0.661109
-0.638755
-0.616994
-0.914869
-0.913571
-0.909267
-0.902178
-0.892521
-0.880527
-0.866441
-0.850511
-0.832986
-0.814115
-0.794138
-0.773292
-0.751799
-0.729875
-0.707721
-0.685526
-0.663463
-0.641694
-0.620365
-0.599609
-0.875175
-0.875125
-0.872132
-0.866395
-0.858115
-0.847512
-0.834816
-0.820264
-0.804096
-0.786552
-0.767866
-0.748268
-0.727978
-0.707207
-0.686156
-0.665013
-0.643955
-0.623149
-0.602746
-0.582892
-0.836255
-0.837463
-0.835797
-0.831436
-0.824565
-0.815387
-0.804119
-0.790984
-0.77621
-0.760026
-0.742658
-0.724326
-0.705245
-0.685619
-0.665645
-0.64551
-0.625394
-0.605467
-0.585893
-0.566829
-0.798331
-0.800762
-0.800399
-0.7974
-0.791934
-0.784187
-0.774359
-0.762659
-0.749301
-0.734502
-0.718474
-0.701428
-0.683567
-0.665088
-0.646178
-0.627018
-0.607787
-0.58866
-0.569809
-0.551413
-0.761587
-0.765175
-0.766059
-0.764378
-0.760283
-0.753945
-0.745546
-0.73528
-0.723346
-0.709945
-0.695276
-0.679537
-0.662915
-0.645593
-0.627746
-0.609542
-0.591151
-0.572745
-0.554509
-0.536638
-0.726169
-0.730825
-0.732876
-0.732444
-0.729664
-0.724689
-0.717688
-0.708836
-0.698318
-0.686319
-0.673023
-0.65861
-0.643252
-0.627112
-0.610343
-0.593094
-0.575512
-0.557759
-0.540019
-0.522502
-0.692186
-0.697805
-0.700928
-0.701658
-0.700117
-0.696444
-0.690789
-0.683315
-0.67419
-0.663586
-0.65167
-0.638604
-0.624541
-0.60962
-0.593966
-0.577694
-0.560916
-0.543758
-0.526391
-0.509013
-0.659707
-0.666181
-0.67027
-0.672065
-0.671674
-0.669223
-0.664849
-0.658702
-0.650936
-0.641708
-0.631171
-0.619472
-0.60674
-0.59309
-0.57861
-0.563371
-0.547427
-0.530837
-0.513722
-0.496206
-0.628773
-0.63599
-0.640935
-0.643689
-0.644351
-0.643034
-0.639864
-0.634979
-0.628524
-0.620643
-0.611477
-0.601158
-0.589798
-0.577484
-0.564268
-0.550163
-0.535139
-0.519141
-0.502185
-0.484187
-0.599395
-0.607242
-0.612932
-0.616536
-0.618145
-0.617862
-0.615807
-0.612107
-0.606899
-0.60032
-0.592502
-0.583569
-0.573617
-0.562713
-0.550874
-0.538052
-0.524111
-0.508824
-0.492027
-0.47319
-0.571568
-0.579938
-0.586262
-0.590605
-0.59305
-0.593695
-0.592652
-0.590045
-0.586002
-0.580659
-0.574145
-0.566578
-0.558052
-0.548622
-0.538282
-0.526933
-0.51432
-0.499983
-0.483497
-0.463481
-0.545264
-0.55409
-0.560975
-0.565979
-0.569181
-0.570673
-0.570565
-0.568976
-0.566035
-0.561876
-0.556631
-0.550421
-0.543347
-0.535469
-0.526777
-0.517151
-0.506239
-0.493294
-0.477429
-0.455311
-0.5204
-0.529659
-0.53708
-0.542723
-0.546662
-0.548991
-0.549817
-0.549261
-0.547454
-0.544535
-0.540645
-0.535917
-0.530467
-0.524377
-0.51767
-0.510259
-0.501802
-0.491355
-0.477365
-0.451797
-0.49687
-0.506186
-0.51378
-0.519711
-0.524053
-0.526899
-0.528358
-0.528556
-0.527632
-0.525736
-0.523026
-0.519663
-0.5158
-0.511575
-0.507099
-0.502444
-0.497504
-0.491683
-0.484475
-0.464165
-0.40832
-0.479002
-0.547404
-0.613711
-0.677516
-0.738438
-0.796153
-0.850369
-0.900822
-0.947284
-0.989563
-1.0275
-1.06099
-1.08994
-1.11433
-1.13416
-1.14946
-1.1603
-1.16679
-1.16927
-0.393404
-0.461428
-0.527362
-0.591127
-0.652374
-0.710769
-0.766017
-0.817846
-0.866013
-0.910303
-0.950539
-0.986581
-1.01832
-1.0457
-1.06869
-1.08731
-1.1016
-1.11166
-1.11759
-1.11964
-0.37128
-0.437243
-0.501303
-0.563245
-0.622737
-0.679465
-0.733143
-0.783508
-0.830322
-0.873378
-0.912504
-0.947561
-0.97845
-1.00511
-1.02751
-1.04568
-1.05966
-1.06953
-1.07542
-1.07751
-0.343197
-0.407279
-0.469634
-0.529993
-0.588031
-0.643439
-0.695934
-0.745255
-0.791167
-0.833463
-0.87197
-0.906547
-0.937091
-0.963537
-0.985856
-1.00406
-1.01819
-1.02832
-1.03457
-1.03709
-0.311313
-0.37345
-0.434042
-0.492794
-0.549387
-0.603518
-0.654906
-0.703291
-0.748438
-0.790138
-0.828214
-0.862524
-0.892956
-0.919439
-0.941935
-0.960443
-0.974999
-0.985672
-0.992555
-0.995794
-0.277732
-0.337856
-0.396614
-0.453705
-0.508818
-0.561656
-0.611942
-0.659416
-0.703845
-0.745016
-0.782751
-0.8169
-0.847346
-0.874008
-0.896837
-0.915823
-0.930986
-0.942383
-0.950095
-0.954248
-0.244058
-0.302109
-0.358966
-0.414334
-0.467911
-0.519409
-0.568554
-0.615091
-0.658784
-0.699423
-0.736825
-0.770836
-0.801331
-0.828222
-0.851449
-0.870988
-0.886848
-0.89907
-0.907721
-0.912909
-0.211422
-0.267355
-0.322257
-0.375843
-0.427824
-0.477921
-0.525865
-0.571404
-0.614305
-0.654358
-0.691378
-0.725209
-0.755722
-0.782818
-0.806431
-0.826523
-0.843092
-0.856163
-0.865788
-0.872057
-0.180556
-0.234351
-0.287268
-0.339034
-0.389373
-0.438014
-0.484696
-0.529169
-0.571205
-0.610596
-0.647158
-0.680732
-0.711187
-0.73842
-0.762355
-0.782947
-0.800179
-0.814065
-0.824641
-0.83198
-0.15188
-0.203542
-0.25447
-0.304403
-0.353078
-0.400229
-0.4456
-0.488948
-0.530048
-0.568696
-0.604712
-0.637938
-0.668242
-0.695517
-0.719682
-0.740686
-0.758499
-0.773125
-0.784587
-0.792941
-0.125582
-0.175139
-0.224099
-0.272214
-0.319225
-0.364872
-0.408904
-0.451082
-0.491187
-0.529021
-0.564408
-0.597193
-0.627246
-0.65446
-0.678751
-0.700059
-0.718351
-0.733618
-0.745873
-0.755156
-0.10169
-0.149181
-0.196219
-0.242554
-0.287926
-0.332079
-0.374762
-0.415743
-0.45481
-0.491771
-0.526457
-0.558718
-0.588427
-0.615478
-0.639787
-0.66129
-0.679949
-0.695745
-0.708684
-0.718794
-0.0801206
-0.125594
-0.170775
-0.21539
-0.259169
-0.301855
-0.3432
-0.382976
-0.420978
-0.457024
-0.490951
-0.522618
-0.551901
-0.578698
-0.602924
-0.624515
-0.643428
-0.659641
-0.673149
-0.683972
-0.0607275
-0.104226
-0.147633
-0.190605
-0.232854
-0.27412
-0.314152
-0.35273
-0.389657
-0.424762
-0.45789
-0.488908
-0.517698
-0.544161
-0.568216
-0.589798
-0.608861
-0.62538
-0.639345
-0.650768
-0.0433196
-0.0848847
-0.126624
-0.168046
-0.208843
-0.248746
-0.287504
-0.324903
-0.36076
-0.394912
-0.427215
-0.457544
-0.485789
-0.511854
-0.535662
-0.557149
-0.576268
-0.592992
-0.607307
-0.619219
-0.0276739
-0.0674026
-0.107621
-0.147601
-0.187027
-0.22563
-0.263157
-0.299404
-0.3342
-0.367396
-0.398858
-0.428469
-0.456126
-0.48174
-0.505236
-0.526552
-0.545642
-0.562477
-0.577041
-0.589335
-0.0134977
-0.0515323
-0.0904327
-0.129085
-0.167224
-0.204591
-0.240933
-0.27606
-0.309815
-0.342063
-0.37268
-0.401558
-0.428602
-0.453726
-0.47686
-0.497945
-0.516936
-0.533801
-0.548525
-0.561105
-0.000170876
-0.0362771
-0.0740731
-0.111568
-0.148557
-0.184802
-0.220057
-0.254148
-0.286936
-0.318299
-0.348125
-0.376314
-0.402775
-0.427429
-0.450209
-0.471058
-0.489931
-0.506797
-0.52164
-0.534456
0.0133541
-0.0203431
-0.0573803
-0.0940678
-0.130203
-0.165555
-0.199902
-0.233109
-0.265063
-0.295655
-0.324785
-0.352363
-0.378305
-0.402539
-0.425
-0.445635
-0.464403
-0.481273
-0.496229
-0.509266
0.0241178
-0.0102139
-0.0474192
-0.0834393
-0.118719
-0.15308
-0.186329
-0.218402
-0.249229
-0.278723
-0.306804
-0.333394
-0.358424
-0.381831
-0.40356
-0.423566
-0.441813
-0.458274
-0.472936
-0.485797
0.545664
0.556178
0.567062
0.578219
0.589627
0.601257
0.613063
0.624978
0.636927
0.648822
0.660568
0.672074
0.683271
0.694147
0.704801
0.715525
0.726762
0.739183
0.756099
0.783104
0.534247
0.544162
0.554622
0.565304
0.576175
0.587222
0.598394
0.609618
0.620812
0.631877
0.642713
0.653221
0.663328
0.67302
0.682405
0.691797
0.701684
0.712814
0.728632
0.754946
0.520918
0.530087
0.540032
0.550145
0.560369
0.570715
0.581128
0.591529
0.601823
0.611908
0.621674
0.631017
0.639861
0.648195
0.656139
0.664034
0.672422
0.682138
0.696753
0.72224
0.505705
0.513988
0.523331
0.532779
0.54225
0.55178
0.561312
0.570757
0.580014
0.588971
0.597511
0.605527
0.612942
0.619749
0.626086
0.632326
0.639067
0.647233
0.660493
0.684911
0.488646
0.495907
0.504565
0.513256
0.52187
0.53047
0.539003
0.547366
0.55545
0.563135
0.570301
0.576833
0.582657
0.587776
0.592346
0.596778
0.60173
0.608217
0.619985
0.643133
0.469784
0.475896
0.483788
0.491634
0.499289
0.506854
0.514273
0.521432
0.528213
0.534491
0.540137
0.545037
0.549118
0.552395
0.555048
0.557528
0.560556
0.565245
0.575394
0.597097
0.449164
0.454013
0.461065
0.46798
0.47458
0.481007
0.487203
0.493044
0.4984
0.50314
0.507132
0.510259
0.512454
0.513746
0.514343
0.514738
0.515721
0.5185
0.526916
0.547013
0.426841
0.43032
0.436464
0.442369
0.447825
0.453018
0.45789
0.462303
0.46612
0.469203
0.471414
0.472639
0.472817
0.471994
0.470408
0.468598
0.467426
0.468198
0.474774
0.493112
0.402866
0.404886
0.410062
0.414883
0.419111
0.422982
0.426438
0.429325
0.431498
0.432813
0.433131
0.432336
0.430378
0.427323
0.423442
0.419323
0.415901
0.414578
0.419221
0.435658
0.377298
0.377782
0.381941
0.385612
0.388538
0.391009
0.392964
0.394237
0.394672
0.394122
0.392443
0.389525
0.385328
0.379939
0.373666
0.367149
0.361397
0.357908
0.360535
0.374936
0.350192
0.349085
0.352187
0.354651
0.35621
0.357213
0.357596
0.357177
0.355794
0.353292
0.349529
0.344399
0.337874
0.330068
0.321325
0.312339
0.304193
0.29848
0.299018
0.31126
0.321605
0.318872
0.320892
0.322102
0.322244
0.321723
0.320473
0.318299
0.315029
0.310505
0.304584
0.297168
0.288246
0.277955
0.266681
0.255172
0.244586
0.236606
0.234996
0.244963
0.291596
0.287226
0.288154
0.288079
0.286763
0.284677
0.28175
0.277769
0.272557
0.265954
0.257819
0.248061
0.236686
0.223862
0.210016
0.19595
0.182895
0.17262
0.168814
0.176402
0.260224
0.254237
0.25408
0.252704
0.249908
0.246231
0.241593
0.23577
0.228576
0.219852
0.20946
0.197319
0.183456
0.16807
0.151629
0.13499
0.119455
0.106873
0.100837
0.105953
0.227559
0.220008
0.218794
0.216119
0.211838
0.206558
0.200192
0.192502
0.183299
0.172425
0.159749
0.145203
0.128833
0.110872
0.091833
0.0726254
0.0546171
0.0397305
0.031442
0.0340078
0.193665
0.184651
0.182442
0.178492
0.172738
0.165857
0.157755
0.148185
0.136958
0.123918
0.108944
0.0919827
0.0731054
0.0525775
0.030956
0.00920118
-0.0112568
-0.0284305
-0.0389799
-0.0390276
0.158625
0.148305
0.145204
0.140031
0.132831
0.124359
0.114521
0.103063
0.0898007
0.0745879
0.0573141
0.0379441
0.0165741
-0.00649553
-0.0306654
-0.0549276
-0.0777957
-0.0972266
-0.110034
-0.112737
0.1226
0.111244
0.107414
0.101056
0.0924133
0.0823468
0.0707601
0.0573999
0.0420932
0.0247051
0.0051392
-0.0166207
-0.0404521
-0.0660206
-0.092686
-0.119397
-0.14462
-0.166265
-0.181312
-0.186678
0.0850037
0.0735401
0.0694344
0.0619456
0.0518317
0.0401337
0.0267611
0.0114703
-0.00589542
-0.0254574
-0.0472982
-0.0714146
-0.0976584
-0.125662
-0.154749
-0.183831
-0.211334
-0.235136
-0.252389
-0.260386
0.0441423
0.0347054
0.0309607
0.0226359
0.0112421
-0.00204713
-0.0172321
-0.0344799
-0.0539134
-0.0756386
-0.0997235
-0.126147
-0.154736
-0.185093
-0.216511
-0.247873
-0.27758
-0.303501
-0.323024
-0.333854
0.375639
0.3778
0.386468
0.392518
0.396693
0.400204
0.403323
0.406117
0.408693
0.411183
0.413746
0.416582
0.419943
0.42413
0.429465
0.436236
0.444579
0.454275
0.464292
0.471879
0.405612
0.40557
0.412269
0.41798
0.422573
0.426824
0.430861
0.434677
0.438331
0.441925
0.445596
0.449529
0.453962
0.459183
0.465514
0.473259
0.482578
0.493302
0.504715
0.514707
0.430199
0.43021
0.436396
0.442358
0.447592
0.452632
0.457566
0.462368
0.467067
0.471743
0.476512
0.481538
0.487041
0.493296
0.50062
0.509323
0.519591
0.531302
0.544059
0.556359
0.451729
0.452681
0.459109
0.465571
0.471511
0.477357
0.483181
0.488948
0.494672
0.500411
0.506264
0.512374
0.518942
0.526227
0.534534
0.544181
0.555371
0.568025
0.58203
0.59643
0.471386
0.473462
0.480361
0.48742
0.494102
0.500768
0.507479
0.514197
0.520925
0.527707
0.534623
0.541797
0.549412
0.557706
0.566974
0.577532
0.589599
0.603135
0.618299
0.634655
0.489296
0.492535
0.500003
0.507719
0.515173
0.522669
0.530262
0.537915
0.545624
0.553421
0.561371
0.56958
0.57821
0.58748
0.59767
0.609094
0.621981
0.636327
0.652556
0.670747
0.505524
0.509919
0.517987
0.526375
0.5346
0.542915
0.55137
0.55993
0.568586
0.57736
0.586302
0.595504
0.605105
0.615304
0.626365
0.638596
0.652234
0.667309
0.684503
0.704404
0.520089
0.525602
0.534267
0.543308
0.552279
0.561383
0.570663
0.580088
0.589644
0.599343
0.609225
0.619361
0.629874
0.640941
0.652807
0.665773
0.680082
0.695797
0.713849
0.735329
0.532977
0.539552
0.548788
0.558446
0.568118
0.577964
0.588018
0.59825
0.608645
0.619205
0.629957
0.640958
0.652309
0.664167
0.676758
0.690373
0.70526
0.721516
0.740314
0.763234
0.544161
0.551725
0.561494
0.571716
0.582032
0.592558
0.60332
0.614291
0.625449
0.636792
0.648332
0.660111
0.672212
0.68477
0.69799
0.712156
0.727519
0.744207
0.76363
0.787846
0.553611
0.562075
0.572326
0.583051
0.59394
0.605073
0.616466
0.628092
0.639928
0.651961
0.664194
0.676652
0.6894
0.702551
0.716293
0.730899
0.746623
0.763627
0.783549
0.808905
0.561289
0.570554
0.581227
0.592385
0.603768
0.615423
0.62736
0.639549
0.651964
0.664584
0.677401
0.690426
0.703704
0.717329
0.73147
0.746392
0.762353
0.77955
0.799837
0.826176
0.567159
0.577111
0.588139
0.599654
0.611445
0.623532
0.635915
0.648565
0.661451
0.674544
0.687825
0.701291
0.714971
0.728938
0.743344
0.758447
0.77451
0.791768
0.812285
0.83944
0.571184
0.581702
0.593012
0.604801
0.616908
0.629328
0.642054
0.655054
0.668292
0.681735
0.69535
0.709123
0.723063
0.737229
0.751756
0.766894
0.782917
0.800099
0.820703
0.848507
0.573333
0.584286
0.595797
0.607776
0.620101
0.63275
0.645707
0.658939
0.672407
0.686066
0.699878
0.713811
0.727863
0.742073
0.756565
0.771584
0.787417
0.80438
0.824928
0.853209
0.573577
0.584826
0.596457
0.608534
0.620975
0.633744
0.646818
0.660159
0.673725
0.687462
0.701323
0.715264
0.729268
0.743361
0.757654
0.772392
0.787877
0.804475
0.82482
0.853407
0.571893
0.583295
0.594958
0.607042
0.619494
0.63227
0.64534
0.658663
0.672189
0.685861
0.699618
0.713408
0.727198
0.741003
0.754927
0.769215
0.784191
0.800272
0.820268
0.848992
0.568265
0.579671
0.591277
0.603273
0.615629
0.628296
0.641239
0.654412
0.667759
0.681216
0.694712
0.708184
0.72159
0.734932
0.74831
0.761975
0.776275
0.791687
0.811187
0.839892
0.562682
0.573943
0.5854
0.597213
0.609363
0.621803
0.634493
0.647382
0.660407
0.673496
0.68657
0.699556
0.712402
0.725102
0.737752
0.750616
0.764069
0.778656
0.79752
0.826077
0.555145
0.566107
0.577324
0.588857
0.60069
0.612785
0.625095
0.637564
0.650122
0.66269
0.67518
0.687509
0.699617
0.711494
0.723235
0.735117
0.74755
0.761144
0.779188
0.807368
0.362912
0.344659
0.320378
0.295003
0.2691
0.24301
0.216989
0.191131
0.165514
0.140221
0.11533
0.0909112
0.0670307
0.0437479
0.0211158
-0.000820078
-0.022022
-0.0424611
-0.0621172
-0.0809786
0.362848
0.34417
0.320494
0.295081
0.268966
0.24253
0.216024
0.189606
0.163398
0.137503
0.112014
0.0870135
0.062578
0.0387746
0.0156631
-0.00670544
-0.0282887
-0.0490541
-0.0689782
-0.0880456
0.366157
0.3442
0.319408
0.293377
0.266718
0.239715
0.212616
0.185605
0.158822
0.132385
0.106397
0.0809499
0.0561246
0.031994
0.0086217
-0.0139383
-0.0356418
-0.0564546
-0.0763526
-0.0953199
0.36921
0.34501
0.319118
0.292279
0.264878
0.237166
0.209378
0.181704
0.154294
0.127276
0.100761
0.0748484
0.0496244
0.0251656
0.00153802
-0.0212029
-0.0430125
-0.0638573
-0.0837144
-0.10257
0.371591
0.345841
0.318918
0.291204
0.262997
0.23453
0.206025
0.177672
0.149627
0.122026
0.0949881
0.0686186
0.0430087
0.0182385
-0.00562428
-0.0285232
-0.0504142
-0.0712652
-0.0910554
-0.109774
0.37364
0.346507
0.318506
0.289856
0.260798
0.231548
0.202313
0.17328
0.144609
0.116444
0.0889094
0.0621147
0.0361559
0.0111153
-0.0129379
-0.0359476
-0.0578711
-0.0786791
-0.098354
-0.11689
0.375432
0.346999
0.31789
0.288264
0.258323
0.228266
0.198291
0.16858
0.139298
0.110592
0.0825898
0.0554063
0.0291396
0.00387343
-0.0203231
-0.0433953
-0.0653032
-0.0860215
-0.105537
-0.12385
0.376987
0.347324
0.317113
0.286493
0.25565
0.224774
0.194056
0.163677
0.133802
0.10458
0.0761433
0.0486085
0.0220749
-0.00337371
-0.0276698
-0.0507614
-0.0726128
-0.093204
-0.112527
-0.130591
0.37837
0.347532
0.316232
0.284615
0.252866
0.221171
0.189717
0.158685
0.12824
0.0985319
0.0696954
0.0418467
0.0150854
-0.0105065
-0.0348642
-0.0579402
-0.0797042
-0.100143
-0.119254
-0.137057
0.379695
0.34772
0.31535
0.282747
0.250099
0.217594
0.18542
0.153755
0.122765
0.0926012
0.0633967
0.0352676
0.00831131
-0.0173932
-0.0417855
-0.0648236
-0.0864839
-0.10676
-0.125659
-0.143207
0.381115
0.348036
0.314624
0.281055
0.247525
0.214228
0.181352
0.149076
0.117566
0.0869706
0.0574233
0.0290371
0.00190629
-0.0238949
-0.0483115
-0.0713084
-0.0928694
-0.112996
-0.131703
-0.149027
0.382832
0.348687
0.314265
0.279756
0.245366
0.211297
0.177739
0.14487
0.112855
0.0818438
0.0519648
0.0233282
-0.00397652
-0.0298804
-0.0543352
-0.0773128
-0.098805
-0.118822
-0.137384
-0.15454
0.385104
0.34993
0.314534
0.279112
0.243887
0.209062
0.174832
0.141377
0.10886
0.0774271
0.047205
0.018299
-0.00920648
-0.0352487
-0.0597862
-0.0827981
-0.104284
-0.12426
-0.142755
-0.159827
0.388231
0.352066
0.315727
0.279416
0.243366
0.20779
0.172884
0.138827
0.105783
0.0738958
0.0432873
0.0140589
-0.0137105
-0.0399638
-0.0646659
-0.0878023
-0.109379
-0.129419
-0.147955
-0.165053
0.392531
0.3554
0.318135
0.280938
0.244055
0.207705
0.172087
0.137381
0.103749
0.0713329
0.0402524
0.0106046
-0.0175359
-0.0441167
-0.0691076
-0.0924991
-0.114302
-0.134543
-0.153257
-0.17052
0.39827
0.360175
0.321968
0.283854
0.24609
0.208902
0.17249
0.137038
0.102707
0.0696371
0.0379472
0.0077321
-0.0209361
-0.0480078
-0.0734554
-0.097272
-0.119471
-0.140081
-0.159135
-0.176716
0.405556
0.36646
0.327254
0.288146
0.249407
0.211267
0.173932
0.137586
0.102393
0.068494
0.0360088
0.00503257
-0.0243623
-0.0521261
-0.0782311
-0.102671
-0.125457
-0.146619
-0.166184
-0.184242
0.414137
0.373947
0.333626
0.293394
0.253531
0.214275
0.175835
0.1384
0.102138
0.0671948
0.033693
0.00173188
-0.0286125
-0.057287
-0.084261
-0.109525
-0.133089
-0.154976
-0.175212
-0.193882
0.422841
0.381166
0.33932
0.297568
0.256188
0.215418
0.175473
0.136551
0.0988268
0.0624546
0.0275656
-0.00573247
-0.0373556
-0.0672438
-0.0953601
-0.12169
-0.146241
-0.169036
-0.190109
-0.209511
0.42881
0.384688
0.340389
0.296281
0.252588
0.209536
0.167347
0.12623
0.0863734
0.0479461
0.0110937
-0.0240622
-0.0574249
-0.0889234
-0.118513
-0.146174
-0.171914
-0.195776
-0.217839
-0.238078
-0.0990626
-0.116353
-0.132881
-0.148678
-0.163782
-0.178241
-0.192107
-0.205436
-0.218288
-0.23072
-0.24279
-0.254555
-0.266071
-0.277396
-0.288598
-0.299761
-0.310798
-0.321293
-0.331235
-0.326961
-0.106277
-0.123644
-0.14018
-0.155912
-0.170876
-0.185112
-0.198668
-0.211595
-0.223944
-0.235765
-0.247106
-0.258012
-0.26852
-0.278656
-0.288419
-0.297745
-0.306325
-0.313351
-0.317451
-0.309016
-0.113383
-0.130504
-0.146722
-0.162067
-0.176575
-0.190288
-0.203257
-0.215534
-0.227173
-0.238226
-0.248742
-0.258763
-0.268317
-0.277409
-0.285999
-0.293949
-0.300889
-0.306083
-0.308562
-0.303654
-0.120458
-0.137335
-0.153248
-0.168232
-0.182324
-0.195575
-0.208035
-0.219763
-0.230814
-0.241244
-0.251102
-0.260428
-0.269246
-0.277551
-0.285289
-0.292317
-0.29831
-0.302718
-0.304879
-0.302399
-0.127467
-0.144081
-0.159675
-0.17429
-0.187968
-0.200762
-0.212732
-0.223936
-0.234437
-0.244293
-0.253555
-0.262263
-0.270443
-0.278088
-0.28515
-0.291507
-0.29691
-0.300968
-0.303207
-0.302344
-0.134344
-0.150657
-0.165899
-0.180117
-0.19336
-0.205689
-0.217165
-0.227856
-0.237827
-0.24714
-0.255852
-0.264007
-0.271632
-0.27873
-0.285264
-0.291141
-0.296183
-0.300126
-0.30265
-0.303102
-0.141032
-0.157015
-0.171884
-0.185694
-0.1985
-0.210368
-0.221369
-0.231574
-0.241054
-0.249877
-0.258103
-0.265782
-0.272948
-0.279611
-0.28575
-0.291302
-0.296142
-0.300096
-0.302958
-0.304413
-0.147482
-0.163124
-0.177615
-0.191022
-0.203406
-0.21484
-0.2254
-0.235163
-0.244205
-0.252601
-0.260414
-0.267699
-0.274496
-0.280824
-0.286677
-0.292012
-0.296745
-0.30076
-0.303922
-0.306082
-0.153654
-0.168959
-0.183088
-0.196116
-0.208109
-0.219149
-0.229315
-0.238693
-0.247361
-0.255398
-0.262872
-0.269841
-0.276351
-0.282427
-0.288071
-0.293259
-0.297934
-0.302013
-0.305406
-0.30804
-0.159529
-0.174522
-0.188321
-0.201009
-0.212661
-0.223361
-0.233197
-0.242254
-0.250618
-0.258368
-0.265575
-0.272301
-0.278593
-0.284481
-0.289974
-0.295057
-0.29969
-0.303813
-0.307361
-0.310297
-0.165112
-0.179839
-0.193361
-0.205771
-0.217147
-0.227578
-0.237154
-0.245966
-0.254099
-0.261634
-0.268645
-0.275192
-0.281324
-0.287072
-0.29245
-0.297449
-0.302038
-0.306173
-0.309804
-0.312908
-0.170452
-0.184982
-0.198303
-0.210512
-0.221693
-0.231936
-0.241335
-0.24998
-0.257959
-0.265351
-0.272229
-0.278653
-0.284671
-0.290315
-0.295599
-0.300517
-0.305048
-0.309155
-0.3128
-0.315969
-0.175657
-0.190083
-0.203295
-0.2154
-0.226479
-0.236627
-0.245935
-0.254496
-0.262395
-0.26971
-0.276513
-0.28286
-0.2888
-0.294361
-0.299558
-0.304388
-0.308836
-0.312872
-0.316466
-0.319611
-0.180916
-0.195351
-0.208567
-0.220675
-0.231757
-0.241905
-0.251213
-0.25977
-0.267659
-0.274957
-0.281732
-0.288038
-0.293921
-0.299408
-0.304515
-0.30924
-0.313572
-0.31749
-0.320969
-0.32401
-0.186551
-0.201124
-0.214466
-0.226692
-0.237882
-0.248128
-0.257519
-0.266145
-0.274086
-0.281415
-0.288197
-0.294485
-0.30032
-0.305731
-0.310731
-0.315322
-0.319499
-0.323246
-0.326543
-0.329402
-0.193063
-0.207909
-0.221503
-0.23396
-0.245359
-0.255787
-0.265334
-0.274087
-0.282123
-0.289514
-0.296321
-0.302595
-0.308376
-0.313691
-0.318555
-0.322974
-0.326945
-0.330459
-0.333504
-0.336095
-0.201044
-0.216292
-0.230252
-0.243038
-0.254724
-0.265399
-0.275152
-0.284066
-0.292218
-0.299678
-0.306507
-0.312752
-0.318453
-0.323638
-0.328323
-0.332516
-0.336222
-0.339436
-0.34215
-0.344381
-0.211244
-0.226991
-0.241398
-0.254573
-0.26659
-0.277537
-0.287504
-0.296575
-0.304829
-0.312333
-0.319149
-0.325324
-0.330897
-0.335898
-0.340344
-0.344248
-0.347619
-0.350458
-0.352762
-0.354536
-0.227396
-0.243682
-0.258552
-0.27209
-0.28438
-0.29552
-0.305604
-0.314722
-0.322954
-0.330373
-0.33704
-0.343005
-0.348307
-0.352976
-0.357033
-0.360495
-0.363374
-0.365689
-0.367456
-0.368612
-0.256089
-0.272869
-0.288101
-0.301814
-0.314142
-0.325207
-0.335119
-0.34398
-0.351881
-0.3589
-0.365104
-0.370544
-0.375261
-0.379282
-0.382631
-0.385329
-0.3874
-0.388904
-0.389928
-0.390248
-0.388763
-0.369065
-0.355897
-0.346252
-0.338341
-0.331917
-0.3267
-0.32239
-0.318749
-0.315587
-0.312744
-0.310074
-0.307426
-0.304612
-0.301377
-0.2974
-0.291979
-0.28244
-0.264252
-0.24838
-0.38797
-0.369252
-0.35677
-0.347616
-0.340085
-0.333942
-0.328914
-0.324709
-0.32109
-0.317866
-0.314867
-0.311935
-0.308906
-0.305586
-0.301746
-0.29718
-0.291539
-0.283115
-0.269405
-0.261558
-0.38694
-0.369137
-0.357299
-0.348621
-0.341468
-0.335607
-0.330775
-0.32669
-0.323124
-0.31989
-0.316826
-0.313783
-0.310619
-0.307183
-0.303325
-0.298963
-0.293965
-0.287309
-0.27797
-0.275657
-0.385526
-0.368709
-0.357527
-0.349321
-0.342542
-0.336965
-0.332338
-0.328391
-0.324909
-0.321714
-0.318659
-0.315613
-0.312459
-0.309087
-0.305405
-0.301399
-0.297022
-0.291544
-0.284454
-0.284092
-0.383852
-0.368029
-0.357498
-0.349761
-0.343354
-0.338063
-0.333649
-0.329857
-0.326486
-0.323374
-0.320388
-0.317419
-0.314376
-0.311181
-0.307787
-0.304223
-0.300493
-0.296036
-0.290496
-0.290887
-0.382023
-0.367169
-0.357275
-0.349995
-0.343955
-0.33895
-0.334756
-0.331133
-0.327896
-0.324898
-0.322023
-0.319181
-0.3163
-0.313331
-0.310253
-0.307112
-0.303938
-0.300272
-0.295829
-0.296474
-0.380124
-0.3662
-0.35692
-0.350086
-0.344404
-0.339682
-0.335709
-0.332263
-0.329173
-0.326308
-0.323566
-0.320872
-0.318172
-0.315432
-0.312646
-0.309864
-0.307118
-0.304025
-0.300339
-0.300955
-0.378237
-0.365193
-0.356501
-0.350094
-0.344759
-0.340313
-0.336557
-0.333289
-0.33035
-0.327623
-0.325019
-0.322476
-0.319952
-0.317421
-0.314883
-0.312386
-0.309956
-0.30727
-0.304116
-0.304551
-0.376439
-0.364221
-0.356085
-0.350084
-0.345078
-0.340894
-0.337348
-0.33425
-0.331457
-0.328864
-0.326393
-0.323989
-0.321619
-0.319264
-0.316926
-0.314643
-0.312437
-0.310034
-0.307258
-0.307437
-0.374803
-0.363356
-0.355739
-0.350119
-0.34542
-0.341481
-0.33813
-0.335189
-0.33253
-0.330057
-0.327702
-0.325417
-0.323174
-0.320957
-0.318767
-0.316637
-0.31458
-0.312368
-0.309859
-0.309752
-0.373403
-0.362666
-0.35553
-0.350261
-0.345845
-0.342129
-0.338951
-0.33615
-0.333606
-0.331233
-0.328971
-0.326779
-0.32463
-0.322513
-0.320426
-0.318395
-0.316427
-0.314337
-0.312013
-0.311615
-0.372314
-0.362224
-0.355526
-0.350575
-0.346412
-0.342892
-0.339863
-0.337178
-0.334725
-0.332428
-0.330233
-0.328104
-0.326017
-0.323961
-0.321936
-0.319958
-0.318034
-0.316013
-0.313812
-0.313131
-0.371607
-0.362099
-0.355793
-0.351124
-0.347181
-0.343826
-0.340919