/*--------------------------------*- C++ -*----------------------------------*\
  =========                 |
  \\      /  F ield         | OpenFOAM: The Open Source CFD Toolbox
   \\    /   O peration     | Website:  https://openfoam.org
    \\  /    A nd           | Version:  6.0
     \\/     M anipulation  |
\*---------------------------------------------------------------------------*/
FoamFile
{
    version     2.0;
    format      ascii;
    class       surfaceScalarField;
    location    "7.752";
    object      phi;
}
// * * * * * * * * * * * * * * * * * * * * * * * * * * * * * * * * * * * * * //

dimensions      [0 3 -1 0 0 0 0];

internalField   nonuniform List<scalar> 
38030
(
-8.81978e-06
-0.00799008
0.0079989
-2.83759e-05
-0.00736245
0.007382
-5.6455e-05
-0.00678453
0.00681261
-9.10051e-05
-0.00625386
0.00628841
-0.000130137
-0.00576746
0.00580659
-0.000172243
-0.00532219
0.00536429
-0.000215984
-0.00491488
0.00495862
-0.000260254
-0.00454245
0.00458672
-0.000304152
-0.00420194
0.00424584
-0.000346954
-0.00389054
0.00393334
-0.000388091
-0.00360561
0.00364675
-0.00042713
-0.00334472
0.00338375
-0.000463755
-0.00310558
0.0031422
-0.000497751
-0.00288612
0.00292011
-0.000528996
-0.00268441
0.00271566
-0.000557446
-0.00249872
0.00252717
-0.000583125
-0.00232745
0.00235313
-0.00060612
-0.00216917
0.00219216
-0.000626568
-0.00202256
0.00204301
-0.000644651
-0.00188647
0.00190455
-0.000660592
-0.00175983
0.00177578
-0.000674642
-0.00164173
0.00165578
-0.000687077
-0.00153136
0.00154379
-0.000698195
-0.00142804
0.00143915
-0.000708301
-0.00133118
0.00134128
-0.000717708
-0.00124019
0.0012496
-0.000726724
-0.00115451
0.00116353
-0.000735648
-0.00107366
0.00108258
-0.000744774
-0.000997204
0.00100633
-0.000924745
0.000934366
-0.000754395
-7.84963e-06
-0.00798223
-2.71952e-05
-0.0073431
-5.50093e-05
-0.00675671
-8.89692e-05
-0.0062199
-0.000127133
-0.0057293
-0.000167871
-0.00528145
-0.000209831
-0.00487292
-0.000251898
-0.00450038
-0.000293164
-0.00416067
-0.000332904
-0.0038508
-0.000370547
-0.00356797
-0.000405662
-0.0033096
-0.000437934
-0.00307331
-0.000467156
-0.00285689
-0.00049321
-0.00265836
-0.000516058
-0.00247587
-0.000535736
-0.00230777
-0.00055234
-0.00215256
-0.00056602
-0.00200888
-0.000576974
-0.00187551
-0.000585439
-0.00175137
-0.000591688
-0.00163548
-0.000596021
-0.00152702
-0.000598757
-0.0014253
-0.000600231
-0.0013297
-0.000600775
-0.00123964
-0.000600725
-0.00115456
-0.000600407
-0.00107397
-0.000600143
-0.000997468
-0.000924632
-0.000600255
-7.49656e-06
-0.00797473
-2.63279e-05
-0.00732427
-5.34467e-05
-0.00672959
-8.63902e-05
-0.00618695
-0.000123139
-0.00569255
-0.000162022
-0.00524257
-0.000201663
-0.00483328
-0.000240932
-0.00446112
-0.000278915
-0.00412269
-0.00031488
-0.00381483
-0.000348259
-0.00353459
-0.000378617
-0.00327924
-0.000405643
-0.00304628
-0.000429133
-0.00283341
-0.000448972
-0.00263852
-0.000465131
-0.00245971
-0.000477651
-0.00229525
-0.000486638
-0.00214358
-0.000492254
-0.00200327
-0.000494711
-0.00187306
-0.000494263
-0.00175182
-0.000491203
-0.00163854
-0.000485855
-0.00153237
-0.000478569
-0.00143259
-0.000469705
-0.00133857
-0.00045963
-0.00124972
-0.000448705
-0.00116549
-0.000437289
-0.00108539
-0.00042574
-0.00100902
-0.000935952
-0.00041442
-7.27966e-06
-0.00796745
-2.55131e-05
-0.00730604
-5.16748e-05
-0.00670343
-8.32509e-05
-0.00615538
-0.000118171
-0.00565763
-0.000154728
-0.00520601
-0.000191522
-0.00479649
-0.00022741
-0.00442523
-0.000261469
-0.00408863
-0.000292964
-0.00378333
-0.000321323
-0.00350623
-0.000346112
-0.00325445
-0.000367021
-0.00302537
-0.000383845
-0.00281658
-0.000396476
-0.00262589
-0.000404887
-0.0024513
-0.000409125
-0.00229102
-0.000409304
-0.0021434
-0.000405596
-0.00200697
-0.000398226
-0.00188043
-0.000387465
-0.00176258
-0.000373624
-0.00165238
-0.000357052
-0.00154894
-0.000338134
-0.00145151
-0.000317265
-0.00135944
-0.000294842
-0.00127214
-0.000271266
-0.00118906
-0.000246929
-0.00110973
-0.000222234
-0.00103371
-0.000960598
-0.000197588
-7.07268e-06
-0.00796038
-2.46223e-05
-0.00728849
-4.96171e-05
-0.00667844
-7.95185e-05
-0.00612547
-0.000112224
-0.00562492
-0.000146004
-0.00517223
-0.00017944
-0.00476305
-0.000211378
-0.00439329
-0.000240889
-0.00405912
-0.000267234
-0.00375699
-0.000289839
-0.00348363
-0.000308269
-0.00323602
-0.000322215
-0.00301143
-0.000331472
-0.00280732
-0.000335932
-0.00262143
-0.000335572
-0.00245166
-0.000330442
-0.00229615
-0.000320663
-0.00215318
-0.000306414
-0.00202122
-0.000287932
-0.00189891
-0.000265501
-0.00178501
-0.000239451
-0.00167843
-0.000210161
-0.00157823
-0.000178039
-0.00148363
-0.000143531
-0.00139395
-0.000107068
-0.0013086
-6.9095e-05
-0.00122704
-3.00507e-05
-0.00114877
9.61664e-06
-0.00107338
-0.00100043
4.94439e-05
-6.83796e-06
-0.00795354
-2.35999e-05
-0.00727173
-4.72287e-05
-0.00665481
-7.51667e-05
-0.00609754
-0.000105293
-0.0055948
-0.000135861
-0.00514166
-0.000165442
-0.00473347
-0.000192877
-0.00436585
-0.000217232
-0.00403476
-0.000237767
-0.00373646
-0.000253905
-0.00346749
-0.000265212
-0.00322472
-0.000271378
-0.00300526
-0.000272197
-0.0028065
-0.000267561
-0.00262606
-0.000257446
-0.00246178
-0.000241905
-0.00231169
-0.000221062
-0.00217402
-0.000195102
-0.00204718
-0.000164271
-0.00192974
-0.000128869
-0.00182041
-8.92396e-05
-0.00171806
-4.5786e-05
-0.00162169
1.04972e-06
-0.00153046
5.079e-05
-0.00144369
0.000102941
-0.00136076
0.00015702
-0.00128111
0.000212528
-0.00120428
0.000268959
-0.00112981
-0.00105726
0.000325789
-6.56188e-06
-0.00794698
-2.242e-05
-0.00725587
-4.44839e-05
-0.00663274
-7.01782e-05
-0.00607184
-9.73696e-05
-0.0055676
-0.000124304
-0.00511473
-0.000149548
-0.00470822
-0.000171941
-0.00434346
-0.000190549
-0.00401616
-0.000204632
-0.00372237
-0.000213614
-0.00345851
-0.000217061
-0.00322127
-0.00021466
-0.00300766
-0.000206206
-0.00281496
-0.000191587
-0.00264068
-0.000170777
-0.00248259
-0.000143829
-0.00233863
-0.000110866
-0.00220698
-7.20774e-05
-0.00208597
-2.77153e-05
-0.0019741
2.19095e-05
-0.00187004
7.64316e-05
-0.00177258
0.000135435
-0.00168069
0.000198439
-0.00159347
0.000264933
-0.00151018
0.000334374
-0.0014302
0.000406214
-0.00135295
0.000479897
-0.00127796
0.000554848
-0.00120476
-0.00113287
0.000630467
-6.24043e-06
-0.00794074
-2.10713e-05
-0.00724104
-4.13687e-05
-0.00661245
-6.45414e-05
-0.00604867
-8.84492e-05
-0.0055437
-0.000111336
-0.00509184
-0.000131772
-0.00468779
-0.000148596
-0.00432664
-0.000160881
-0.00400387
-0.00016789
-0.00371536
-0.000169048
-0.00345735
-0.000163924
-0.00322639
-0.000152202
-0.00301938
-0.000133676
-0.00283349
-0.000108229
-0.00266613
-7.58319e-05
-0.00251498
-3.65323e-05
-0.00237793
9.54975e-06
-0.00225306
6.22252e-05
-0.00213865
0.000121239
-0.00203312
0.000186273
-0.00193507
0.000256948
-0.00184326
0.000332822
-0.00175656
0.000413398
-0.00167404
0.000498112
-0.0015949
0.000586377
-0.00151846
0.000677581
-0.00144416
0.000771096
-0.00137148
0.000866275
-0.00129994
-0.00122903
0.00096243
-5.87243e-06
-0.00793487
-1.95489e-05
-0.00722736
-3.78749e-05
-0.00659412
-5.82478e-05
-0.0060283
-7.85256e-05
-0.00552342
-9.69569e-05
-0.00507341
-0.000112118
-0.00467263
-0.000122859
-0.0043159
-0.000128258
-0.00399847
-0.000127586
-0.00371604
-0.000120276
-0.00346466
-0.000105895
-0.00324077
-8.41292e-05
-0.00304115
-5.47683e-05
-0.00286285
-1.76921e-05
-0.00270321
2.71365e-05
-0.00255981
7.9677e-05
-0.00243047
0.000139816
-0.0023132
0.00020737
-0.0022062
0.000282085
-0.00210783
0.000363641
-0.00201663
0.00045165
-0.00193126
0.000545655
-0.00185057
0.000645127
-0.00177351
0.000749474
-0.00169924
0.000858039
-0.00162703
0.000970152
-0.00155627
0.00108511
-0.00148643
0.00120217
-0.001417
-0.00134742
0.00132056
-5.45785e-06
-0.00792941
-1.78494e-05
-0.00721497
-3.39962e-05
-0.00657797
-5.12889e-05
-0.006011
-6.759e-05
-0.00550712
-8.11586e-05
-0.00505984
-9.05846e-05
-0.0046632
-9.47323e-05
-0.00431175
-9.26939e-05
-0.00400051
-8.37511e-05
-0.00372498
-6.73437e-05
-0.00348107
-4.30453e-05
-0.00326507
-1.05427e-05
-0.00307365
3.03777e-05
-0.00290377
7.98421e-05
-0.00275267
0.000137896
-0.00261787
0.000204509
-0.00249709
0.00027958
-0.00238827
0.000362933
-0.00228955
0.000454324
-0.00219922
0.000553435
-0.00211574
0.000659874
-0.0020377
0.000773177
-0.00196387
0.000892793
-0.00189313
0.00101809
-0.00182454
0.00114837
-0.00175731
0.00128288
-0.00169077
0.00142082
-0.00162438
0.00156138
-0.00155756
-0.0014897
0.00170366
-4.99608e-06
-0.00792441
-1.59698e-05
-0.007204
-2.97253e-05
-0.00656422
-4.36538e-05
-0.00599708
-5.56288e-05
-0.00549514
-6.3927e-05
-0.00505154
-6.71584e-05
-0.00465997
-6.42078e-05
-0.0043147
-5.41863e-05
-0.00401053
-3.63917e-05
-0.00374277
-1.02762e-05
-0.00350718
2.45792e-05
-0.00329993
6.84844e-05
-0.00311756
0.000121655
-0.00295694
0.000184223
-0.00281524
0.000256245
-0.00268989
0.000337705
-0.00257855
0.000428514
-0.00247908
0.000528515
-0.00238955
0.000637475
-0.00230818
0.000755088
-0.00223335
0.000880965
-0.00216358
0.00101464
-0.00209754
0.00115555
-0.00203404
0.00130303
-0.00197202
0.00145634
-0.00191062
0.00161464
-0.00184907
0.00177706
-0.0017868
0.00194266
-0.00172316
-0.00165747
0.00211043
-4.48612e-06
-0.00791993
-1.39056e-05
-0.00719458
-2.50532e-05
-0.00655307
-3.53282e-05
-0.0059868
-4.26229e-05
-0.00548785
-4.52391e-05
-0.00504892
-4.18141e-05
-0.0046634
-3.12601e-05
-0.00432525
-1.27135e-05
-0.00402908
1.45062e-05
-0.00376999
5.09297e-05
-0.00354361
9.6964e-05
-0.00334596
0.000152913
-0.00317351
0.000218992
-0.00302302
0.00029534
-0.00289159
0.000382024
-0.00277657
0.000479042
-0.00267557
0.000586328
-0.00258637
0.000703744
-0.00250697
0.00083108
-0.00243552
0.000968046
-0.00237032
0.00111427
-0.0023098
0.00126928
-0.00225255
0.00143252
-0.00219728
0.00160331
-0.00214281
0.00178085
-0.00208816
0.00196426
-0.00203248
0.00215256
-0.0019751
0.00234469
-0.00191529
-0.00185228
0.0025395
-3.92662e-06
-0.007916
-1.16513e-05
-0.00718685
-1.99684e-05
-0.00654475
-2.62936e-05
-0.00598048
-2.85469e-05
-0.00548559
-2.5063e-05
-0.00505241
-1.45147e-05
-0.00467394
4.15109e-06
-0.00434392
3.17656e-05
-0.00405669
6.89811e-05
-0.00380721
0.000116305
-0.00359093
0.000174127
-0.00340379
0.000242742
-0.00324212
0.000322361
-0.00310264
0.000413126
-0.00298235
0.000515116
-0.00287856
0.000628349
-0.0027888
0.000752779
-0.0027108
0.000888296
-0.00264249
0.00103472
-0.00258194
0.00119179
-0.00252738
0.00135915
-0.00247716
0.00153635
-0.00242976
0.00172284
-0.00238377
0.00191793
-0.00233791
0.00212081
-0.00229104
0.00233052
-0.00224219
0.00254598
-0.00219056
0.00276603
-0.00213533
-0.00207561
0.00298936
-3.31552e-06
-0.00791269
-9.20005e-06
-0.00718097
-1.44567e-05
-0.0065395
-1.65277e-05
-0.0059784
-1.33694e-05
-0.00548875
-3.35855e-06
-0.00506242
1.47883e-05
-0.00469209
4.20812e-05
-0.00437121
7.93112e-05
-0.00409392
0.000127095
-0.00385499
0.00018591
-0.00364974
0.000256122
-0.003474
0.000338009
-0.00332401
0.000431776
-0.0031964
0.000537565
-0.00308814
0.000655463
-0.00299646
0.000785507
-0.00291884
0.000927678
-0.00285297
0.0010819
-0.00279671
0.00124802
-0.00274806
0.00142582
-0.00270519
0.00161499
-0.00266633
0.00181511
-0.00262987
0.00202563
-0.00259429
0.00224589
-0.00255816
0.00247504
-0.00252019
0.0027121
-0.00247926
0.00295591
-0.00243437
0.00320515
-0.00238458
-0.00232883
0.00345838
-2.65051e-06
-0.00791003
-6.54365e-06
-0.00717707
-8.50215e-06
-0.00653754
-6.00469e-06
-0.0059809
2.94589e-06
-0.0054977
1.99215e-05
-0.0050794
4.61528e-05
-0.00471832
8.25982e-05
-0.00440766
0.00013
-0.00414133
0.000188931
-0.00391392
0.000259831
-0.00372064
0.000343033
-0.0035572
0.000438793
-0.00341977
0.0005473
-0.00330491
0.000668692
-0.00320953
0.000803063
-0.00313083
0.000950464
-0.00306624
0.0011109
-0.00301341
0.00128434
-0.00297014
0.00147067
-0.00293439
0.00166972
-0.00290424
0.00188123
-0.00287784
0.00210483
-0.00285347
0.00234001
-0.00282947
0.00258612
-0.00280428
0.00284234
-0.00277641
0.00310765
-0.00274456
0.00338081
-0.00270753
0.0036604
-0.00266416
-0.00261321
0.00394478
-1.92884e-06
-0.00790811
-3.67322e-06
-0.00717533
-2.08709e-06
-0.00653912
5.30338e-06
-0.00598829
2.04384e-05
-0.00551284
4.48289e-05
-0.00510379
7.96434e-05
-0.00475314
0.000125779
-0.00445379
0.000183922
-0.00419947
0.000254591
-0.00398459
0.000338177
-0.00380423
0.000434976
-0.003654
0.000545208
-0.00353
0.000669041
-0.00342874
0.0008066
-0.00334709
0.000957977
-0.00328221
0.00112324
-0.0032315
0.00130241
-0.00319258
0.00149549
-0.00316322
0.00170243
-0.00314134
0.00192312
-0.00312493
0.00215736
-0.00311208
0.00240484
-0.00310095
0.00266512
-0.00308975
0.00293759
-0.00307675
0.00322146
-0.00306029
0.00351571
-0.0030388
0.00381906
-0.00301088
0.00412997
-0.00297507
-0.00292987
0.00444662
-1.14781e-06
-0.00790696
-5.79698e-07
-0.0071759
4.80644e-06
-0.00654451
1.74249e-05
-0.00600091
3.91485e-05
-0.00553456
7.14169e-05
-0.00513605
0.000115327
-0.00479705
0.000171706
-0.00451017
0.000241173
-0.00426893
0.000324184
-0.0040676
0.000421074
-0.00390112
0.000532086
-0.00376501
0.000657399
-0.00365531
0.000797145
-0.00356849
0.000951427
-0.00350137
0.00112032
-0.00345111
0.00130391
-0.00341508
0.00150222
-0.0033909
0.00171531
-0.00337631
0.00194317
-0.00336919
0.00218575
-0.00336751
0.00244294
-0.00336927
0.00271452
-0.00337253
0.00300013
-0.00337537
0.00329926
-0.00337587
0.00361114
-0.00337218
0.0039348
-0.00336246
0.00426893
-0.00334501
0.00461192
-0.00331806
-0.00327975
0.0049618
-3.04724e-07
-0.00790665
2.74568e-06
-0.00717895
1.21954e-05
-0.00655396
3.0387e-05
-0.0060191
5.91143e-05
-0.00556329
9.97358e-05
-0.00517668
0.000153267
-0.00485058
0.000220457
-0.00457736
0.000301848
-0.00435033
0.000397824
-0.00416358
0.000508652
-0.00401195
0.000634514
-0.00389087
0.000775532
-0.00379633
0.000931791
-0.00372475
0.00110336
-0.00367294
0.00129029
-0.00363804
0.00149264
-0.00361743
0.00171047
-0.00360873
0.00194385
-0.00360969
0.00219283
-0.00361817
0.00245743
-0.00363211
0.00273764
-0.00364948
0.00303334
-0.00366823
0.0033443
-0.00368633
0.00367011
-0.00370168
0.00401013
-0.00371219
0.0043634
-0.00371574
0.00472868
-0.00371028
0.00510426
-0.00369365
-0.00366353
0.00548805
6.02953e-07
-0.00790726
6.31078e-06
-0.00718466
2.00949e-05
-0.00656774
4.42129e-05
-0.00604322
8.03683e-05
-0.00559944
0.000129828
-0.00522614
0.000193518
-0.00491427
0.0002721
-0.00465594
0.00036603
-0.00444426
0.000475611
-0.00427316
0.000601033
-0.00413737
0.000742403
-0.00403224
0.000899774
-0.0039537
0.00107317
-0.00389814
0.0012626
-0.00386237
0.00146808
-0.00384352
0.00168965
-0.003839
0.00192735
-0.00384643
0.00218126
-0.0038636
0.00245149
-0.0038884
0.00273813
-0.00391875
0.00304125
-0.0039526
0.00336089
-0.00398787
0.00369696
-0.0040224
0.00404921
-0.00405393
0.00441713
-0.00408011
0.00479992
-0.00409853
0.00519636
-0.00410673
0.00560477
-0.00410206
-0.00408167
0.00602291
1.57692e-06
-0.00790883
1.01215e-05
-0.0071932
2.85162e-05
-0.00658614
5.89196e-05
-0.00607362
0.000102933
-0.00564346
0.000161724
-0.00528493
0.000236118
-0.00498866
0.00032668
-0.00474651
0.000433777
-0.00455135
0.000557621
-0.004397
0.000698312
-0.00427806
0.000855874
-0.0041898
0.00103028
-0.0041281
0.00122147
-0.00408933
0.00142938
-0.00407028
0.00165397
-0.00406811
0.00189522
-0.00408025
0.00215315
-0.00410436
0.00242782
-0.00413828
0.00271937
-0.00417995
0.00302796
-0.00422733
0.00335376
-0.0042784
0.00369694
-0.00433105
0.0040576
-0.00438306
0.00443569
-0.00443202
0.00483094
-0.00447536
0.00524273
-0.00451031
0.00566998
-0.00453398
0.00611105
-0.00454314
-0.00453426
0.00656364
2.61829e-06
-0.00791145
1.41814e-05
-0.00720476
3.74655e-05
-0.00660942
7.45158e-05
-0.00611067
0.00012682
-0.00569576
0.000195433
-0.00535354
0.000281077
-0.00507431
0.000384214
-0.00484964
0.000505111
-0.00467225
0.000643884
-0.00453578
0.000800539
-0.00443471
0.000975001
-0.00436427
0.00116715
-0.00432025
0.00137683
-0.00429901
0.00160389
-0.00429734
0.00184819
-0.00431241
0.00210964
-0.0043417
0.0023882
-0.00438292
0.0026839
-0.00443398
0.00299685
-0.00449289
0.00332724
-0.00455772
0.00367535
-0.00462651
0.00404148
-0.00469719
0.00442595
-0.00476753
0.00482897
-0.00483504
0.00525054
-0.00489693
0.00569034
-0.00495012
0.00614756
-0.00499119
0.00662068
-0.00501626
-0.00502097
0.00710739
3.72709e-06
-0.00791518
1.84913e-05
-0.00721953
4.69439e-05
-0.00663788
9.1e-05
-0.00615473
0.000152021
-0.00575678
0.000230944
-0.00543246
0.000328376
-0.00517174
0.000444674
-0.00496594
0.000580001
-0.00480758
0.000734372
-0.00469015
0.000907689
-0.00460803
0.00109978
-0.00455636
0.00131041
-0.00453088
0.00153932
-0.00452792
0.00178625
-0.00454427
0.00205095
-0.00457711
0.00233321
-0.00462396
0.0026329
-0.0046826
0.00294995
-0.00475103
0.00328442
-0.00482737
0.00363651
-0.00490981
0.00400652
-0.00499652
0.00439489
-0.00508556
0.00480215
-0.00517478
0.0052288
-0.00526169
0.00567524
-0.00534337
0.00614155
-0.00541643
0.0066273
-0.00547694
0.00713127
-0.00552024
-0.00554093
0.00765123
4.90253e-06
-0.00792008
2.30496e-05
-0.00723767
5.69462e-05
-0.00667177
0.000108359
-0.00620614
0.000178512
-0.00582694
0.000268213
-0.00552216
0.000377953
-0.00528148
0.000507978
-0.00509597
0.000658347
-0.00495794
0.000828969
-0.00486077
0.00101965
-0.00479871
0.00123009
-0.0047668
0.00145997
-0.00476075
0.00170889
-0.00477685
0.00197648
-0.00481186
0.00226234
-0.00486298
0.00256613
-0.00492775
0.00288757
-0.00500404
0.00322646
-0.00508992
0.00358275
-0.00518365
0.00395653
-0.00528359
0.00434811
-0.0053881
0.00475798
-0.00549544
0.00518686
-0.00560366
0.00563556
-0.00571039
0.00610494
-0.00581275
0.00659564
-0.00590713
0.00710781
-0.00598911
0.00764075
-0.00605317
-0.0060926
0.00819242
6.14293e-06
-0.00792622
2.78534e-05
-0.00725938
6.74629e-05
-0.00671138
0.00012657
-0.00626525
0.000206245
-0.00590661
0.000307165
-0.00562308
0.000429699
-0.00540401
0.000573983
-0.00524025
0.000739968
-0.00512393
0.000927462
-0.00504826
0.00113616
-0.00500741
0.00136568
-0.00499632
0.00161556
-0.00501063
0.0018853
-0.00504659
0.00217437
-0.00510094
0.00248226
-0.00517086
0.00280843
-0.00525393
0.00315243
-0.00534804
0.00351387
-0.00545137
0.00389251
-0.00556229
0.00428827
-0.00567935
0.00470133
-0.00580115
0.00513214
-0.00592625
0.00558149
-0.00605301
0.0060505
-0.0061794
0.00654049
-0.00630275
0.00705283
-0.00641947
0.00758853
-0.0065248
0.00814767
-0.00661231
-0.00667366
0.00872872
7.44825e-06
-0.00793367
3.29019e-05
-0.00728484
7.84832e-05
-0.00675696
0.000145597
-0.00633236
0.000235154
-0.00599617
0.000347691
-0.00573562
0.000483455
-0.00553978
0.000642472
-0.00539927
0.00082459
-0.00530605
0.00102952
-0.00525319
0.00125685
-0.00523474
0.0015061
-0.00524557
0.0017767
-0.00528124
0.00206805
-0.00533793
0.00237947
-0.00541236
0.00271029
-0.00550168
0.00305983
-0.00560346
0.00342741
-0.00571562
0.00381241
-0.00583637
0.00421433
-0.0059642
0.0046328
-0.00609783
0.00506774
-0.00623609
0.00551938
-0.0063779
0.00598844
-0.00652207
0.00647614
-0.0066671
0.00698424
-0.00681085
0.00751492
-0.00695015
0.00807035
-0.00708023
0.00865192
-0.00719387
-0.00728074
0.009259
8.82479e-06
-0.0079425
3.82051e-05
-0.00731422
9.00015e-05
-0.00680876
0.000165403
-0.00640777
0.000265151
-0.00609592
0.000389643
-0.00586011
0.000539007
-0.00568914
0.000713157
-0.00557342
0.000911839
-0.00550473
0.00113467
-0.00547602
0.00138115
-0.00548122
0.0016507
-0.00551512
0.00194267
-0.0055732
0.00225633
-0.0056516
0.00259092
-0.00574695
0.00294563
-0.00585639
0.00331959
-0.00597743
0.00371195
-0.00610797
0.00412183
-0.00624625
0.00454841
-0.00639079
0.00499098
-0.0065404
0.00544902
-0.00669413
0.00592234
-0.00685121
0.00641125
-0.00701098
0.00691678
-0.00717263
0.00744085
-0.00733493
0.00798636
-0.00749566
0.00855694
-0.00765081
0.009156
-0.00779293
-0.00790918
0.00978444
1.02968e-05
-0.00795279
4.37962e-05
-0.00734772
0.000102025
-0.00686699
0.000185942
-0.00649168
0.000296126
-0.0062061
0.000432838
-0.00599682
0.000596084
-0.00585239
0.00078567
-0.005763
0.00100124
-0.0057203
0.00124232
-0.0057171
0.00150833
-0.00574723
0.00179862
-0.0058054
0.00211243
-0.00588702
0.00244899
-0.00598816
0.00280744
-0.0061054
0.00318687
-0.00623581
0.00358631
-0.00637686
0.00400473
-0.00652639
0.00444105
-0.00668258
0.00489418
-0.00684391
0.005363
-0.00700921
0.00584647
-0.0071776
0.00634377
-0.00734851
0.00685447
-0.00752167
0.00737886
-0.00769703
0.0079184
-0.00787446
0.00847611
-0.00805337
0.00905697
-0.00823167
0.00966724
-0.0084032
-0.0085525
0.0103106
1.19326e-05
-0.00796473
4.97568e-05
-0.00738554
0.000114583
-0.00693181
0.00020717
-0.00658427
0.000327951
-0.00632688
0.000477055
-0.00614593
0.000654366
-0.0060297
0.000859576
-0.00596821
0.00109223
-0.00595296
0.00135176
-0.00597663
0.00163751
-0.00603298
0.00194875
-0.00611664
0.00228469
-0.00622296
0.00264448
-0.00634795
0.00302723
-0.00648815
0.00343199
-0.00664057
0.00385773
-0.00680261
0.00430338
-0.00697204
0.00476775
-0.00714695
0.00524957
-0.00732573
0.00574745
-0.0075071
0.00625991
-0.00769006
0.00678543
-0.00787403
0.0073226
-0.00805884
0.00787038
-0.00824481
0.0084287
-0.00843279
0.00899931
-0.00862398
0.0095871
-0.00881946
0.0102013
-0.00901739
-0.00920491
0.0108537
1.39551e-05
-0.00797868
5.62854e-05
-0.00742787
0.000127743
-0.00700327
0.00022903
-0.00668556
0.000360463
-0.00645832
0.000522031
-0.0063075
0.000713481
-0.00622115
0.000934379
-0.00618911
0.00118416
-0.00620274
0.00146216
-0.00625463
0.00176765
-0.00633847
0.00209983
-0.00644882
0.00245786
-0.006581
0.00284088
-0.00673097
0.00324799
-0.00689526
0.00367825
-0.00707082
0.00413067
-0.00725504
0.00460424
-0.00744561
0.00509785
-0.00764056
0.00561029
-0.00783817
0.0061402
-0.008037
0.006686
-0.00823587
0.00724585
-0.00843389
0.00781759
-0.00863057
0.00839875
-0.00882597
0.00898689
-0.00902093
0.00958036
-0.00921745
0.0101803
-0.00941939
0.010796
-0.00963315
-0.00987143
0.0114626
1.71755e-05
-0.00799586
6.37673e-05
-0.00747446
0.000141562
-0.00708107
0.000251413
-0.00679541
0.000393447
-0.00660035
0.000567456
-0.0064815
0.000773012
-0.0064267
0.00100953
-0.00642563
0.00127633
-0.00646953
0.00157263
-0.00655094
0.00189762
-0.00666346
0.00225043
-0.00680163
0.00263019
-0.00696076
0.00303602
-0.0071368
0.00346702
-0.00732626
0.00392232
-0.00752612
0.00440104
-0.00773376
0.00490234
-0.0079469
0.00542535
-0.00816357
0.00596925
-0.00838206
0.00653315
-0.00860091
0.00711613
-0.00881885
0.00771712
-0.00903488
0.00833476
-0.00924821
0.00896722
-0.00945843
0.00961204
-0.00966574
0.0102658
-0.00987122
0.0109232
-0.0100768
0.0115795
-0.0102895
-0.0105322
0.0122403
0.00899131
4.6158e-05
-0.00903747
0.0089461
4.52115e-05
0.00890118
4.4918e-05
0.00885642
4.47636e-05
0.00881183
4.45889e-05
0.00876749
4.43379e-05
0.0087235
4.39883e-05
0.00867997
4.35336e-05
0.008637
4.29741e-05
0.00859468
4.23142e-05
0.00855312
4.15592e-05
0.00851241
4.07144e-05
0.00847262
3.97858e-05
0.00843384
3.87792e-05
0.00839614
3.77007e-05
0.00835959
3.65561e-05
0.00832424
3.53513e-05
0.00829014
3.40918e-05
0.00825736
3.27826e-05
0.00822593
3.1429e-05
0.0081959
3.00355e-05
0.00816729
2.86068e-05
0.00814014
2.7147e-05
0.00811448
2.56602e-05
0.00809033
2.41486e-05
0.00806773
2.26087e-05
0.0080467
2.10214e-05
0.00802738
1.93274e-05
0.00801006
1.73193e-05
1.41999e-05
0.0102811
0.000164939
-0.0103999
0.0101612
0.000165158
0.0100406
0.000165489
0.00991972
0.00016568
0.00979872
0.000165584
0.00967793
0.000165131
0.00955763
0.000164289
0.00943812
0.000163045
0.00931969
0.000161403
0.00920262
0.000159376
0.00908721
0.000156978
0.00897369
0.000154228
0.00886233
0.000151145
0.00875336
0.000147749
0.008647
0.00014406
0.00854346
0.000140099
0.00844292
0.000135888
0.00834557
0.000131444
0.00825157
0.000126788
0.00816106
0.000121938
0.00807418
0.000116909
0.00799107
0.000111719
0.00791184
0.000106382
0.00783659
0.00010091
0.00776542
9.53096e-05
0.00769846
8.9578e-05
0.00763579
8.36873e-05
0.00757756
7.75609e-05
0.00752387
7.10036e-05
6.36071e-05
0.0115368
0.000344321
-0.0117162
0.0113546
0.000347318
0.0111705
0.000349637
0.010985
0.000351214
0.0107986
0.000351977
0.0106118
0.000351879
0.0104252
0.0003509
0.0102392
0.000349033
0.0100543
0.000346293
0.00987099
0.000342704
0.00968968
0.000338294
0.0095108
0.000333101
0.00933479
0.00032716
0.00916202
0.000320514
0.00899288
0.000313203
0.00882771
0.000305269
0.00866684
0.000296755
0.00851059
0.000287701
0.00835923
0.000278147
0.00821304
0.00026813
0.00807226
0.000257686
0.00793713
0.000246849
0.00780786
0.000235649
0.00768466
0.000224114
0.0075677
0.000212266
0.00745716
0.000200115
0.0073532
0.000187655
0.00725591
0.000174847
0.0071653
0.00016161
0.000147845
0.0127485
0.000573549
-0.0129777
0.0125149
0.000580922
0.0122778
0.000586764
0.0120379
0.000591081
0.011796
0.000593855
0.0115528
0.000595072
0.011309
0.000594725
0.0110652
0.000592827
0.0108221
0.000589405
0.0105803
0.000584497
0.0103405
0.000578153
0.0101031
0.000570428
0.00986891
0.000561382
0.00963834
0.000551079
0.00941196
0.000539587
0.00919025
0.000526974
0.0089737
0.000513307
0.00876275
0.000498655
0.00855781
0.000483083
0.00835929
0.000466653
0.00816755
0.000449425
0.00798294
0.000431456
0.00780579
0.0004128
0.0076364
0.000393507
0.00747504
0.000373624
0.00732197
0.000353191
0.00717738
0.000332242
0.00704142
0.000310801
0.00691414
0.000288892
0.000266579
0.0139082
0.000842857
-0.0141775
0.0136328
0.000856364
0.0133521
0.000867422
0.0130672
0.000876053
0.0127787
0.000882263
0.0124878
0.000886056
0.012195
0.000887445
0.0119014
0.000886455
0.0116077
0.000883128
0.0113147
0.000877522
0.0110231
0.000869703
0.0107338
0.000859749
0.0104474
0.000847744
0.0101647
0.000833777
0.00988638
0.000817945
0.009613
0.000800345
0.00934524
0.000781074
0.00908366
0.00076023
0.00882884
0.000737908
0.00858129
0.000714199
0.00834153
0.000689191
0.00811001
0.00066297
0.00788719
0.000635618
0.00767349
0.000607214
0.00746927
0.000577839
0.00727489
0.000547573
0.00709063
0.0005165
0.00691672
0.000484714
0.00675328
0.000452329
0.000419512
0.0150096
0.0011435
-0.0153103
0.014701
0.00116503
0.0143853
0.00118313
0.0140635
0.00119781
0.0137367
0.00120908
0.0134058
0.00121694
0.0130718
0.00122143
0.0127357
0.00122257
0.0123984
0.00122041
0.0120609
0.00121504
0.0117241
0.00120654
0.0113888
0.00119499
0.0110561
0.00118052
0.0107266
0.00116323
0.0104013
0.00114325
0.0100809
0.00112072
0.00976626
0.00109574
0.00945802
0.00106847
0.00915691
0.00103902
0.0088636
0.00100751
0.00857872
0.000974069
0.00830288
0.00093881
0.00803666
0.000901845
0.00778058
0.000863289
0.00753516
0.000823261
0.00730085
0.000781886
0.00707804
0.000739307
0.00686706
0.000695688
0.00666817
0.000651226
0.000606176
0.0160481
0.00146769
-0.0163723
0.0157139
0.0014992
0.0153708
0.00152626
0.0150198
0.00154883
0.0146619
0.00156692
0.0142984
0.00158053
0.0139301
0.00158967
0.0135583
0.00159438
0.013184
0.00159472
0.0128083
0.00159077
0.0124322
0.00158264
0.0120567
0.00157043
0.011683
0.00155428
0.0113119
0.00153432
0.0109444
0.00151071
0.0105815
0.0014836
0.0102241
0.00145315
0.00987307
0.00141953
0.00952921
0.00138289
0.00919333
0.00134338
0.00886623
0.00130117
0.00854865
0.00125639
0.00824129
0.0012092
0.00794484
0.00115974
0.00765993
0.00110817
0.00738715
0.00105467
0.00712702
0.000999432
0.00688001
0.000942702
0.00664647
0.000884759
0.000825949
0.0170205
0.0018085
-0.0173613
0.0166677
0.00185199
0.016304
0.00188995
0.0159305
0.00192234
0.0155483
0.0019491
0.0151586
0.00197023
0.0147625
0.00198573
0.0143613
0.00199562
0.013956
0.00199997
0.013548
0.00199886
0.0131382
0.00199238
0.012728
0.00198068
0.0123184
0.00196389
0.0119105
0.00194217
0.0115055
0.0019157
0.0111045
0.00188467
0.0107083
0.00184926
0.0103182
0.00180966
0.00993502
0.00176607
0.00955973
0.00171867
0.00919326
0.00166764
0.0088365
0.00161316
0.0084903
0.0015554
0.00815549
0.00149455
0.00783286
0.00143081
0.00752313
0.0013644
0.00722698
0.00129557
0.00694503
0.00122466
0.00667778
0.00115201
0.00107809
0.0179249
0.00215984
-0.0182763
0.0175597
0.00221727
0.0171815
0.0022681
0.0167916
0.00231222
0.0163912
0.00234956
0.0159813
0.00238007
0.0155633
0.00240373
0.0151384
0.00242053
0.0147078
0.00243054
0.0142729
0.00243382
0.0138348
0.00243048
0.0133948
0.00242064
0.0129542
0.00240447
0.0125143
0.00238214
0.0120761
0.00235384
0.011641
0.00231978
0.0112101
0.00228017
0.0107845
0.00223524
0.0103654
0.00218521
0.0099538
0.00213027
0.00955079
0.00207065
0.0091574
0.00200654
0.00877464
0.00193816
0.0084035
0.0018657
0.00804491
0.0017894
0.00769978
0.00170952
0.00736896
0.00162639
0.00705322
0.0015404
0.00675323
0.00145201
0.00136178
0.0187608
0.0025164
-0.0191174
0.0183884
0.00258966
0.0180013
0.00265526
0.0176004
0.00271304
0.0171872
0.00276286
0.0167626
0.00280463
0.016328
0.00283829
0.0158848
0.00286381
0.0154341
0.00288122
0.0149773
0.00289058
0.0145158
0.00289197
0.0140509
0.00288553
0.013584
0.00287141
0.0131163
0.00284979
0.0126493
0.00282089
0.0121841
0.00278492
0.0117222
0.00274212
0.0112647
0.00269273
0.0108129
0.002637
0.010368
0.00257516
0.00993124
0.00250743
0.00950374
0.00243404
0.0090867
0.0023552
0.00868123
0.00227116
0.00828848
0.00218215
0.00790951
0.00208849
0.00754537
0.00199054
0.00719701
0.00188876
0.00686529
0.00178373
0.00167614
0.0195285
0.00287356
-0.0198856
0.0191537
0.00296445
0.0187623
0.00304666
0.0183553
0.00311995
0.0179341
0.00318411
0.0174997
0.00323902
0.0170534
0.00328454
0.0165966
0.00332062
0.0161306
0.00334724
0.0156568
0.00336443
0.0151765
0.00337227
0.0146911
0.00337086
0.0142022
0.00336035
0.0137111
0.00334094
0.0132191
0.00331282
0.0127278
0.00327624
0.0122385
0.00323145
0.0117525
0.0031787
0.0112712
0.00311825
0.0107961
0.00305035
0.0103282
0.00297523
0.00986915
0.00289314
0.00942005
0.0028043
0.00898228
0.00270893
0.00855713
0.00260731
0.00814588
0.00249974
0.00774977
0.00238664
0.00736998
0.00226855
0.00700757
0.00214613
0.00202025
0.020229
0.00322739
-0.0205828
0.0198558
0.0033376
0.0194644
0.00343814
0.0190556
0.0035287
0.0186307
0.00360902
0.0181909
0.00367887
0.0177373
0.00373809
0.0172714
0.00378656
0.0167944
0.00382421
0.0163078
0.00385104
0.015813
0.00386708
0.0153114
0.00387243
0.0148046
0.00386721
0.0142939
0.0038516
0.0137809
0.00382581
0.0132671
0.00379007
0.0127539
0.00374465
0.0122428
0.00368981
0.0117352
0.00362581
0.0112326
0.00355292
0.0107365
0.00347137
0.0102482