/*--------------------------------*- C++ -*----------------------------------*\
  =========                 |
  \\      /  F ield         | OpenFOAM: The Open Source CFD Toolbox
   \\    /   O peration     | Website:  https://openfoam.org
    \\  /    A nd           | Version:  6.0
     \\/     M anipulation  |
\*---------------------------------------------------------------------------*/
FoamFile
{
    version     2.0;
    format      ascii;
    class       volVectorField;
    location    "14.25";
    object      U;
}
// * * * * * * * * * * * * * * * * * * * * * * * * * * * * * * * * * * * * * //

dimensions      [0 1 -1 0 0 0 0];

internalField   nonuniform List<vector> 
19200
(
(0.653654 -16.9523 -5.09091e-20)
(0.210212 -16.225 2.38436e-20)
(0.222623 -15.6605 1.11167e-20)
(0.279325 -15.1976 9.90736e-21)
(0.31065 -14.7972 1.0994e-20)
(0.34174 -14.4307 6.50642e-22)
(0.373932 -14.0812 1.80163e-21)
(0.404249 -13.7399 -1.16459e-21)
(0.431936 -13.4027 1.33363e-20)
(0.456909 -13.0685 5.50932e-21)
(0.479203 -12.7375 -2.08718e-23)
(0.49897 -12.4109 8.65432e-21)
(0.516451 -12.09 1.42405e-20)
(0.531915 -11.7762 -9.65969e-21)
(0.545633 -11.4706 1.22202e-20)
(0.557859 -11.1738 1.04988e-20)
(0.568822 -10.8866 -9.88182e-21)
(0.578717 -10.6092 1.67698e-20)
(0.587714 -10.3417 -1.06932e-20)
(0.595955 -10.084 5.30365e-21)
(0.603559 -9.83617 7.43829e-21)
(0.610629 -9.59777 -2.43666e-21)
(0.617254 -9.36851 3.27178e-21)
(0.623516 -9.14792 -3.80236e-21)
(0.629491 -8.93547 8.24299e-21)
(0.63524 -8.73047 1.96714e-21)
(0.640802 -8.53209 -1.3274e-21)
(0.646287 -8.33935 7.80202e-22)
(0.651914 -8.15109 1.86659e-21)
(0.656922 -7.96603 6.87499e-21)
(1.09656 -16.9344 -1.14656e-20)
(0.636506 -16.2316 7.30318e-20)
(0.634683 -15.6762 -3.86683e-20)
(0.679322 -15.218 -5.27934e-20)
(0.700138 -14.8206 -2.38304e-20)
(0.721499 -14.4552 -1.69207e-20)
(0.7443 -14.1055 -3.42524e-20)
(0.765356 -13.7632 4.64865e-21)
(0.78384 -13.4244 -7.4555e-21)
(0.799659 -13.0884 -2.65763e-20)
(0.812877 -12.7555 -6.6044e-20)
(0.823691 -12.4271 3.19597e-20)
(0.832387 -12.1046 -1.19743e-20)
(0.839275 -11.7894 4.51253e-21)
(0.844658 -11.4824 -2.7125e-20)
(0.848813 -11.1845 -9.91265e-21)
(0.85198 -10.8963 1.13023e-21)
(0.854364 -10.6181 3.34163e-20)
(0.856133 -10.3499 -1.75796e-20)
(0.857426 -10.0917 -9.70546e-21)
(0.858356 -9.84335 -3.79269e-20)
(0.859014 -9.60457 9.71997e-21)
(0.859479 -9.37501 -6.05887e-21)
(0.859819 -9.15422 1.07215e-20)
(0.860097 -8.94164 -1.34313e-20)
(0.860353 -8.73659 -7.71051e-21)
(0.860603 -8.53824 2.5126e-21)
(0.860958 -8.34558 3.89961e-21)
(0.861703 -8.15739 -6.87116e-21)
(0.861829 -7.97235 3.13208e-21)
(1.53997 -16.9061 -5.38703e-21)
(1.06304 -16.2273 1.45406e-20)
(1.04743 -15.6809 2.34471e-20)
(1.08038 -15.2277 1.82821e-19)
(1.09087 -14.8335 -1.0546e-19)
(1.10258 -14.4694 9.57238e-20)
(1.11599 -14.1198 -8.5662e-20)
(1.12774 -13.7766 4.57322e-20)
(1.13694 -13.4365 -4.2935e-20)
(1.14351 -13.0989 -4.40624e-21)
(1.14756 -12.7644 1.07161e-19)
(1.14932 -12.4344 1.77835e-20)
(1.14915 -12.1105 -4.92661e-20)
(1.14738 -11.794 3.83939e-20)
(1.14436 -11.486 1.40409e-24)
(1.14039 -11.1872 1.62209e-20)
(1.13571 -10.8983 1.15133e-20)
(1.13054 -10.6194 3.88941e-20)
(1.12505 -10.3508 -1.70621e-20)
(1.11937 -10.0922 -5.56937e-21)
(1.1136 -9.84359 -1.46859e-20)
(1.10783 -9.60461 6.52182e-20)
(1.10212 -9.37492 -5.44123e-20)
(1.09653 -9.15408 1.7534e-20)
(1.0911 -8.94154 4.05298e-20)
(1.08586 -8.73661 -3.29857e-20)
(1.0808 -8.53844 4.38709e-20)
(1.07603 -8.34602 -4.67886e-21)
(1.0719 -8.15806 -4.92823e-21)
(1.06711 -7.97323 -3.16047e-20)
(1.98214 -16.8665 -1.82006e-19)
(1.48921 -16.2119 -1.56769e-19)
(1.46045 -15.675 -1.91356e-19)
(1.48213 -15.2269 5.36152e-21)
(1.48253 -14.8359 1.1672e-20)
(1.48467 -14.4734 -2.12913e-19)
(1.4887 -14.1239 -1.04954e-19)
(1.4911 -13.7801 2.74673e-20)
(1.49094 -13.4389 -4.72741e-21)
(1.48818 -13.0999 4.63388e-20)
(1.48297 -12.764 -1.82005e-19)
(1.4756 -12.4328 -1.12577e-19)
(1.46648 -12.1077 4.18244e-20)
(1.45599 -11.7902 8.25659e-20)
(1.44451 -11.4813 -9.54548e-20)
(1.43235 -11.1819 -1.48566e-20)
(1.41979 -10.8925 -5.61176e-20)
(1.40704 -10.6133 -2.62681e-20)
(1.39426 -10.3443 4.41372e-20)
(1.38158 -10.0856 -5.62368e-20)
(1.36909 -9.8369 4.89586e-20)
(1.35688 -9.5979 -5.78074e-20)
(1.34499 -9.36826 -4.52828e-20)
(1.33346 -9.14754 -3.25238e-20)
(1.32233 -8.93518 3.75834e-20)
(1.3116 -8.73051 -6.65313e-20)
(1.30124 -8.53269 6.91904e-21)
(1.29136 -8.34066 1.18781e-20)
(1.28237 -8.1531 -3.44396e-20)
(1.27264 -7.96866 6.80807e-21)
(2.42337 -16.8157 -1.07246e-19)
(1.91521 -16.1858 1.51062e-20)
(1.87368 -15.6582 1.31956e-19)
(1.88438 -15.2154 1.37193e-19)
(1.87487 -14.828 9.85777e-20)
(1.86752 -14.4671 4.06816e-20)
(1.86216 -14.118 2.47644e-20)
(1.85516 -13.7737 2.82964e-19)
(1.84558 -13.4315 -1.69021e-19)
(1.83341 -13.0915 4.85091e-21)
(1.81884 -12.7545 4.02783e-20)
(1.80227 -12.4222 1.7212e-19)
(1.78412 -12.0962 -1.16302e-19)
(1.76485 -11.7779 8.31319e-20)
(1.74486 -11.4684 -9.17696e-20)
(1.72448 -11.1686 1.57074e-19)
(1.704 -10.8789 -4.5995e-20)
(1.68364 -10.5995 1.72235e-21)
(1.66355 -10.3306 7.36022e-20)
(1.64386 -10.0719 5.15205e-20)
(1.62465 -9.82325 -5.23251e-20)
(1.60599 -9.58441 7.04684e-20)
(1.58791 -9.35499 -3.19115e-20)
(1.57045 -9.13455 3.68493e-20)
(1.55362 -8.92254 4.0842e-20)
(1.5374 -8.71829 1.78834e-20)
(1.52175 -8.52097 5.43534e-20)
(1.50679 -8.32949 -1.95636e-20)
(1.49295 -8.14248 -6.38472e-21)
(1.47826 -7.95863 -2.91613e-20)
(2.86326 -16.7537 -7.75752e-20)
(2.34075 -16.1487 -4.86964e-20)
(2.28687 -15.6307 -1.48311e-19)
(2.28686 -15.1933 -3.85365e-19)
(2.2676 -14.8095 1.28771e-19)
(2.25082 -14.4505 8.34549e-21)
(2.23608 -14.1018 1.8735e-21)
(2.21964 -13.7573 1.65765e-20)
(2.20057 -13.4144 -1.24508e-20)
(2.1789 -13.0735 -2.15946e-19)
(2.15492 -12.7356 9.02344e-20)
(2.12906 -12.4025 1.54252e-19)
(2.10183 -12.0758 3.25806e-22)
(2.07373 -11.757 5.63322e-20)
(2.04518 -11.4473 1.38809e-19)
(2.01655 -11.1473 -9.53891e-20)
(1.98812 -10.8575 1.66608e-19)
(1.96013 -10.5782 -7.94473e-20)
(1.93272 -10.3094 1.39791e-19)
(1.90601 -10.051 -1.04884e-19)
(1.88007 -9.80264 4.63926e-20)
(1.85496 -9.56415 1.21389e-19)
(1.83069 -9.33511 6.79741e-21)
(1.8073 -9.11511 -1.12186e-19)
(1.78478 -8.9036 6.14499e-20)
(1.7631 -8.69993 1.86341e-20)
(1.74217 -8.50326 -2.0072e-20)
(1.72215 -8.31249 7.5932e-20)
(1.7035 -8.1262 2.66879e-20)
(1.68385 -7.94312 -2.47892e-20)
(3.30159 -16.6803 2.18422e-19)
(2.76562 -16.1006 -3.43027e-21)
(2.69981 -15.5924 -2.99643e-19)
(2.68932 -15.1606 6.14176e-20)
(2.66046 -14.7805 -8.41701e-20)
(2.63432 -14.4234 6.18152e-20)
(2.61018 -14.0755 -2.90733e-20)
(2.58426 -13.7308 2.41421e-19)
(2.55563 -13.3876 -2.59333e-19)
(2.5244 -13.0459 6.33574e-20)
(2.49093 -12.7074 -4.3877e-20)
(2.45572 -12.3737 3.18826e-20)
(2.41936 -12.0467 -1.41729e-19)
(2.38237 -11.7276 -9.29362e-21)
(2.34523 -11.4178 2.24891e-19)
(2.30831 -11.1179 -1.54749e-19)
(2.27193 -10.8283 -9.75954e-20)
(2.23629 -10.5493 -7.0529e-20)
(2.20155 -10.2809 1.27429e-19)
(2.16782 -10.0229 2.72833e-20)
(2.13516 -9.77507 -1.24899e-19)
(2.1036 -9.53709 1.65531e-19)
(2.07316 -9.30862 -1.49422e-19)
(2.04385 -9.08922 9.8277e-20)
(2.01565 -8.87837 -5.58962e-20)
(1.98851 -8.67543 1.6651e-20)
(1.96234 -8.47956 2.68548e-20)
(1.9373 -8.28966 -1.20585e-19)
(1.91387 -8.10424 5.15359e-20)
(1.88925 -7.92214 7.23711e-22)
(3.73804 -16.5956 -2.13105e-19)
(3.18955 -16.0415 1.64969e-19)
(3.11221 -15.5433 -3.05615e-19)
(3.09149 -15.1172 5.81307e-19)
(3.05318 -14.741 -1.61979e-19)
(3.01772 -14.386 2.28519e-19)
(2.98418 -14.0389 1.77762e-19)
(2.94873 -13.6944 -3.21059e-20)
(2.91049 -13.3508 -4.50447e-20)
(2.86963 -13.0088 -2.26856e-22)
(2.8266 -12.6699 -1.72296e-19)
(2.78199 -12.3359 9.00134e-20)
(2.73643 -12.0087 -1.07219e-19)
(2.69052 -11.6897 -8.53881e-21)
(2.64476 -11.38 -2.97928e-19)
(2.59955 -11.0804 9.75146e-20)
(2.55519 -10.7913 5.57307e-20)
(2.51191 -10.5129 -6.33857e-20)
(2.46984 -10.245 -7.47301e-21)
(2.42909 -9.98768 -9.61317e-20)
(2.38971 -9.74052 -3.42199e-20)
(2.35172 -9.50326 2.91577e-21)
(2.31511 -9.27552 -8.32086e-20)
(2.2799 -9.05689 -1.23378e-19)
(2.24604 -8.84685 5.3302e-21)
(2.21348 -8.64478 1.71208e-20)
(2.18209 -8.44987 3.85941e-20)
(2.15206 -8.26099 -9.50077e-20)
(2.12389 -8.07661 8.07203e-20)
(2.09432 -7.89568 -1.45301e-19)
(4.17235 -16.4996 -5.23846e-19)
(3.61226 -15.9713 6.03626e-19)
(3.52383 -15.4834 -6.35443e-19)
(3.49311 -15.063 -1.71401e-19)
(3.44547 -14.6908 -1.08259e-19)
(3.40075 -14.3381 -1.17983e-19)
(3.3578 -13.992 -2.69718e-19)
(3.31277 -13.6478 -2.31773e-20)
(3.26486 -13.3043 -1.0788e-19)
(3.2143 -12.9621 -2.14968e-20)
(3.16165 -12.623 1.78141e-19)
(3.10759 -12.2891 -1.01497e-19)
(3.05281 -11.962 -1.18587e-19)
(2.99795 -11.6432 -1.99222e-19)
(2.94355 -11.334 4.17706e-19)
(2.89003 -11.035 -1.59508e-19)
(2.83769 -10.7465 5.94715e-20)
(2.78676 -10.4688 -2.21177e-19)
(2.73738 -10.2018 8.52705e-20)
(2.68962 -9.9453 -3.45208e-20)
(2.64353 -9.69902 4.38165e-20)
(2.59912 -9.46265 -1.46114e-20)
(2.55637 -9.23582 1.35805e-19)
(2.51527 -9.01811 -4.78935e-20)
(2.47578 -8.80905 1.32876e-19)
(2.43782 -8.60801 -2.70186e-19)
(2.40125 -8.4142 1.7204e-19)
(2.36626 -8.22649 4.72516e-20)
(2.3334 -8.04331 8.81058e-20)
(2.29892 -7.86374 -2.54844e-19)
(4.6042 -16.3923 8.26403e-19)
(4.03346 -15.8901 -1.52759e-19)
(3.93436 -15.4125 2.73802e-19)
(3.89389 -14.9981 -7.65683e-20)
(3.83705 -14.6301 2.69092e-19)
(3.78311 -14.2797 2.52862e-19)
(3.73074 -13.9348 1.18408e-19)
(3.6761 -13.5912 -4.32596e-20)
(3.61845 -13.2478 -2.70074e-19)
(3.55815 -12.9058 3.94514e-19)
(3.49583 -12.5668 -2.97412e-20)
(3.43226 -12.2331 2.74374e-19)
(3.36822 -11.9064 9.91577e-20)
(3.30439 -11.5882 3.64048e-20)
(3.24134 -11.2797 5.60298e-20)
(3.1795 -10.9814 7.87984e-20)
(3.11919 -10.6939 1.3014e-19)
(3.06063 -10.4172 -3.72792e-20)
(3.00394 -10.1512 1.90743e-19)
(2.9492 -9.89579 8.73142e-20)
(2.89642 -9.65058 -1.81629e-19)
(2.84561 -9.41529 3.21759e-19)
(2.79673 -9.18953 -4.23623e-19)
(2.74977 -8.97292 3.99104e-19)
(2.70468 -8.76497 -1.31866e-19)
(2.66135 -8.56511 -5.42702e-20)
(2.61963 -8.37256 -1.37362e-20)
(2.57975 -8.18617 9.6646e-20)
(2.54225 -8.00434 3.43655e-20)
(2.50288 -7.82635 -3.88206e-20)
(5.03331 -16.2737 -4.68201e-19)
(4.45287 -15.7978 4.35613e-19)
(4.34354 -15.3307 -1.17941e-19)
(4.29353 -14.9224 3.37138e-19)
(4.22763 -14.5586 3.36138e-20)
(4.16451 -14.2109 7.04213e-20)
(4.10271 -13.8674 -5.70737e-19)
(4.03842 -13.5245 2.65039e-19)
(3.97099 -13.1815 3.62202e-19)
(3.90088 -12.8398 2.71944e-19)
(3.82885 -12.5013 -4.62283e-19)
(3.75575 -12.1681 2.67863e-19)
(3.68242 -11.842 -2.6634e-19)
(3.60961 -11.5247 1.81716e-19)
(3.5379 -11.2171 -3.04522e-19)
(3.46775 -10.9199 -2.2456e-19)
(3.39948 -10.6336 1.40498e-20)
(3.3333 -10.3581 -1.01921e-19)
(3.26932 -10.0933 1.8109e-19)
(3.20761 -9.83916 7.22438e-20)
(3.14817 -9.59522 -4.71796e-20)
(3.09098 -9.36118 -1.34524e-20)
(3.03602 -9.13668 5.52789e-20)
(2.98323 -8.92132 -1.84993e-19)
(2.93256 -8.71465 3.04979e-19)
(2.88389 -8.51611 -7.45263e-20)
(2.83708 -8.32497 -1.26528e-19)
(2.79235 -8.14006 2.63943e-19)
(2.75027 -7.95973 3.50543e-20)
(2.70606 -7.7835 -3.48766e-20)
(5.45938 -16.1441 2.00698e-20)
(4.8702 -15.6945 -2.43903e-19)
(4.75106 -15.2381 -2.21136e-19)
(4.69176 -14.836 -3.66515e-19)
(4.61691 -14.4766 1.34706e-20)
(4.54466 -14.1315 -2.59338e-19)
(4.47342 -13.7896 3.06254e-19)
(4.39944 -13.4476 -1.5093e-19)
(4.32218 -13.1054 2.42129e-19)
(4.24223 -12.7643 -2.01172e-19)
(4.16044 -12.4264 -1.01933e-19)
(4.07778 -12.094 5.56325e-20)
(3.99515 -11.7689 2.99809e-20)
(3.91334 -11.4526 -3.02196e-19)
(3.83298 -11.1462 1.77193e-19)
(3.75453 -10.8504 -8.68261e-20)
(3.67831 -10.5654 2.47059e-19)
(3.60453 -10.2914 -8.10111e-20)
(3.5333 -10.0281 8.39425e-20)
(3.46465 -9.77544 2.09751e-20)
(3.39858 -9.53296 1.42691e-19)
(3.33505 -9.30037 -2.90569e-20)
(3.27402 -9.07729 2.33422e-19)
(3.21543 -8.86335 -2.59796e-19)
(3.15923 -8.65811 -8.79068e-20)
(3.10527 -8.46105 7.14348e-20)
(3.0534 -8.27145 -7.54627e-21)
(3.00389 -8.08816 -1.9503e-19)
(2.9573 -7.90949 9.95674e-20)
(2.90829 -7.73524 -1.08853e-19)
(5.88212 -16.0033 7.855e-19)
(5.28515 -15.5803 2.00307e-19)
(5.15664 -15.1346 2.41426e-19)
(5.08827 -14.7388 3.21435e-19)
(5.00461 -14.3839 4.81757e-19)
(4.92327 -14.0416 -1.5294e-20)
(4.84257 -13.7015 7.00988e-20)
(4.75887 -13.3607 8.01011e-19)
(4.67174 -13.0194 2.29445e-19)
(4.5819 -12.6791 -1.9263e-19)
(4.49033 -12.3422 3.35806e-19)
(4.39808 -12.0108 5.59032e-20)
(4.30614 -11.687 2.46373e-21)
(4.21534 -11.372 7.95008e-20)
(4.12633 -11.0671 1.40396e-19)
(4.0396 -10.7729 -2.87455e-19)
(3.95547 -10.4896 2.4401e-19)
(3.87412 -10.2172 4.04911e-20)
(3.79566 -9.95567 2.36004e-19)
(3.72011 -9.70465 -1.28365e-19)
(3.64744 -9.46384 2.0976e-19)
(3.57761 -9.23287 -2.22982e-19)
(3.51055 -9.0114 2.14462e-19)
(3.4462 -8.79903 2.9599e-20)
(3.3845 -8.59538 -1.43673e-19)
(3.32529 -8.39994 -4.64694e-20)
(3.26842 -8.21203 2.72072e-19)
(3.21418 -8.03051 -4.12111e-20)
(3.16315 -7.85366 5.2184e-20)
(3.10942 -7.68158 -3.32131e-20)
(6.30123 -15.8514 7.80279e-20)
(5.69743 -15.455 1.72773e-19)
(5.55997 -15.0202 7.04537e-19)
(5.48277 -14.6308 -1.14519e-18)
(5.39041 -14.2805 -1.11995e-19)
(5.30002 -13.9412 -1.22587e-19)
(5.20987 -13.603 5.39237e-20)
(5.11642 -13.2637 6.96288e-20)
(5.01938 -12.9235 1.76598e-19)
(4.91962 -12.5844 -3.13557e-19)
(4.81824 -12.2487 -5.95842e-20)
(4.71639 -11.9187 1.72043e-19)
(4.61514 -11.5963 1.84094e-19)
(4.51535 -11.283 -1.84523e-19)
(4.41772 -10.9799 -1.8083e-19)
(4.32274 -10.6875 2.93031e-19)
(4.23071 -10.406 1.89372e-19)
(4.14184 -10.1356 -4.98016e-20)
(4.05619 -9.87595 -1.20734e-19)
(3.97377 -9.62684 2.11355e-20)
(3.89455 -9.38789 -2.75362e-19)
(3.81845 -9.15874 3.30059e-19)
(3.7454 -8.93904 -2.2519e-19)
(3.67534 -8.72842 -9.25327e-21)
(3.60817 -8.5265 1.46768e-19)
(3.54377 -8.33282 -4.5806e-20)
(3.48195 -8.14676 -1.37592e-19)
(3.42306 -7.96714 2.13543e-20)
(3.36766 -7.79226 -5.87413e-21)
(3.30928 -7.62256 2.56123e-20)
(6.71644 -15.6887 -5.98949e-20)
(6.10674 -15.3188 -1.82812e-19)
(5.96078 -14.895 -8.09389e-19)
(5.87497 -14.5121 2.90217e-19)
(5.77402 -14.1665 -8.69591e-20)
(5.67462 -13.8304 2.84306e-19)
(5.57501 -13.4943 2.03618e-20)
(5.47179 -13.1566 -3.22578e-19)
(5.36482 -12.8179 2.58397e-20)
(5.25511 -12.4802 -4.34484e-19)
(5.14391 -12.146 -1.64136e-20)
(5.03245 -11.8176 1.03253e-19)
(4.92189 -11.497 -1.78397e-19)
(4.81314 -11.1856 2.00476e-19)
(4.70691 -10.8845 -3.82529e-19)
(4.6037 -10.5941 -8.552e-20)
(4.50382 -10.3148 2.28721e-19)
(4.40745 -10.0465 -5.04168e-22)
(4.31466 -9.78904 -1.43014e-19)
(4.22542 -9.54204 3.8677e-19)
(4.13969 -9.30515 -2.06962e-19)
(4.05737 -9.07801 -2.76069e-19)
(3.97838 -8.86025 9.16341e-20)
(3.90264 -8.65154 -2.65191e-19)
(3.83007 -8.45151 -6.33589e-20)
(3.76051 -8.25975 -7.93052e-21)
(3.6938 -8.07567 -1.69997e-19)
(3.63032 -7.89811 2.03391e-19)
(3.57064 -7.72534 -7.19992e-20)
(3.50771 -7.55823 1.15971e-19)
(7.12743 -15.515 -2.75247e-19)
(6.51279 -15.1718 -7.25143e-19)
(6.35875 -14.7589 3.47189e-19)
(6.26455 -14.3826 -3.26988e-19)
(6.15515 -14.0419 -2.4138e-19)
(6.04678 -13.7091 -1.37628e-19)
(5.93771 -13.3753 -5.01209e-19)
(5.82469 -13.0395 3.38329e-19)
(5.70776 -12.7025 -5.99791e-19)
(5.58809 -12.3665 -8.29218e-19)
(5.46705 -12.034 1.07924e-19)
(5.34599 -11.7076 1.76418e-19)
(5.22613 -11.389 -3.3576e-21)
(5.10843 -11.0798 -3.32534e-19)
(4.99364 -10.7809 7.7113e-20)
(4.88224 -10.493 -2.96773e-19)
(4.77456 -10.216 -2.1224e-19)
(4.67075 -9.95011 -1.26378e-19)
(4.57085 -9.69498 -2.47838e-20)
(4.47485 -9.45029 2.1433e-19)
(4.38265 -9.21566 3.04614e-19)
(4.29416 -8.99072 -9.0886e-20)
(4.20928 -8.7751 -8.62845e-20)
(4.12791 -8.56846 1.67882e-19)
(4.04998 -8.37048 9.30766e-20)
(3.97532 -8.18077 -7.34344e-20)
(3.90377 -7.99881 -8.11037e-20)
(3.83578 -7.82344 9.2824e-21)
(3.7719 -7.65295 7.21296e-20)
(3.70451 -7.48863 -1.03235e-19)
(7.53393 -15.3306 -5.25776e-20)
(6.91529 -15.0139 9.094e-19)
(6.7536 -14.6122 6.9432e-19)
(6.65123 -14.2425 5.36434e-19)
(6.53348 -13.9067 -3.45976e-19)
(6.41619 -13.5774 -6.90078e-20)
(6.29765 -13.2462 6.38325e-20)
(6.17482 -12.9124 4.26346e-19)
(6.04792 -12.5773 1.59171e-19)
(5.91827 -12.2433 2.40364e-19)
(5.78739 -11.9129 -5.25915e-19)
(5.65674 -11.5887 5.43064e-20)
(5.52761 -11.2724 2.10916e-19)
(5.401 -10.9657 1.26991e-19)
(5.27767 -10.6694 2.63218e-19)
(5.15814 -10.384 -1.7932e-19)
(5.0427 -10.1097 -1.6506e-19)
(4.93149 -9.84636 3.22236e-20)
(4.82455 -9.59381 3.47618e-19)
(4.72183 -9.35165 -5.59046e-19)
(4.62322 -9.11949 1.94214e-19)
(4.52861 -8.89693 -1.34425e-21)
(4.43789 -8.68362 3.61398e-19)
(4.35094 -8.47923 -1.56436e-19)
(4.2677 -8.28344 -8.46142e-21)
(4.18799 -8.09594 -9.76613e-20)
(4.11167 -7.91624 -8.59632e-20)
(4.03923 -7.74321 1.81113e-20)
(3.97126 -7.57514 -2.08994e-19)
(3.89952 -7.41382 3.03913e-19)
(7.93565 -15.1356 -1.00432e-18)
(7.31395 -14.8454 -5.51327e-19)
(7.14504 -14.4547 -1.39691e-18)
(7.03472 -14.0918 -6.25075e-19)
(6.90873 -13.761 5.78506e-19)
(6.78255 -13.4353 -3.36201e-19)
(6.65456 -13.1068 -7.74175e-20)
(6.5219 -12.7754 -2.17398e-19)
(6.38501 -12.4425 3.64254e-19)
(6.24538 -12.1107 -3.34277e-19)
(6.10467 -11.7827 4.06536e-20)
(5.96445 -11.4609 -1.6207e-20)
(5.82607 -11.1473 -5.11719e-19)
(5.69059 -10.8433 -1.94898e-20)
(5.55878 -10.5498 1.35378e-19)
(5.43115 -10.2672 -1.43214e-20)
(5.308 -9.99579 -5.1153e-19)
(5.18946 -9.73533 4.95027e-19)
(5.07554 -9.48558 -4.82341e-19)
(4.96615 -9.24617 1.87221e-19)
(4.86119 -9.01667 2.61931e-20)
(4.76052 -8.79669 1.07405e-20)
(4.664 -8.58587 -1.9368e-19)
(4.57153 -8.38389 1.93398e-19)
(4.48302 -8.19047 -8.23147e-20)
(4.39832 -8.00532 8.89044e-20)
(4.31729 -7.82802 -4.72232e-19)
(4.24048 -7.65747 1.28247e-19)
(4.16849 -7.49196 1.36861e-19)
(4.09253 -7.33386 1.34596e-19)
(8.33231 -14.93 1.94679e-18)
(7.70848 -14.6662 6.28065e-19)
(7.53278 -14.2866 3.61442e-19)
(7.41472 -13.9305 5.69937e-19)
(7.28059 -13.6049 -7.11054e-20)
(7.14556 -13.2828 4.16292e-19)
(7.00812 -12.9573 9.15941e-19)
(6.86564 -12.6285 -1.17809e-19)
(6.71875 -12.2981 4.91172e-20)
(6.56914 -11.9688 1.03947e-18)
(6.41862 -11.6435 9.64615e-19)
(6.26885 -11.3244 1.39812e-19)
(6.12126 -11.0137 -5.04791e-20)
(5.97695 -10.7127 -3.49209e-21)
(5.83671 -10.4223 7.13829e-19)
(5.70105 -10.1428 2.75922e-20)
(5.57026 -9.87446 7.46533e-19)
(5.44444 -9.61708 -9.55814e-20)
(5.32359 -9.37036 -1.58809e-19)
(5.2076 -9.13389 3.68666e-19)
(5.09634 -8.90726 -3.35449e-19)
(4.98965 -8.69006 -3.59965e-19)
(4.8874 -8.48191 -3.24223e-20)
(4.78945 -8.28252 -1.57633e-19)
(4.69573 -8.09162 2.37741e-19)
(4.60608 -7.90897 2.76329e-20)
(4.5204 -7.73422 -9.703e-20)
(4.4393 -7.56628 5.2968e-20)
(4.3634 -7.40349 3.4669e-19)
(4.28334 -7.24882 4.77209e-20)
(8.72363 -14.714 -3.34856e-19)
(8.09862 -14.4765 -6.2889e-19)
(7.91655 -14.108 2.52303e-19)
(7.79093 -13.7587 -1.01261e-18)
(7.64877 -13.4383 4.72843e-19)
(7.50493 -13.1201 -8.57208e-19)
(7.35805 -12.7978 -5.53651e-19)
(7.20574 -12.4717 1.52377e-19)
(7.04886 -12.1441 1.44884e-19)
(6.88929 -11.8177 -7.17696e-19)
(6.72897 -11.4952 1.08379e-19)
(6.56968 -11.1793 1.16047e-19)
(6.41293 -10.8717 -3.79891e-19)
(6.25985 -10.574 -1.49303e-19)
(6.11124 -10.2869 -9.94157e-20)
(5.96761 -10.0108 -9.94676e-20)
(5.82923 -9.74575 -4.0889e-19)
(5.6962 -9.49166 -2.53845e-19)
(5.56848 -9.24818 -5.38942e-20)
(5.44595 -9.01487 2.05001e-19)
(5.32845 -8.79131 2.74921e-19)
(5.21581 -8.57708 -2.97222e-19)
(5.10786 -8.3718 1.09942e-19)
(5.00449 -8.17517 -2.27477e-19)
(4.9056 -7.98695 2.11011e-19)
(4.81107 -7.80696 -2.77871e-19)
(4.72079 -7.6349 8.52831e-20)
(4.63546 -7.46971 -1.3541e-19)
(4.55573 -7.30981 -1.89396e-19)
(4.47172 -7.15879 -1.76495e-20)
(9.10935 -14.4876 -6.95964e-19)
(8.48409 -14.2764 -5.59568e-19)
(8.29606 -13.919 -5.43308e-19)
(8.16308 -13.5764 -3.91409e-19)
(8.01297 -13.2613 1.19915e-18)
(7.86037 -12.9473 1.63348e-19)
(7.70406 -12.6282 4.97954e-19)
(7.54193 -12.3053 7.50544e-19)
(7.37506 -11.9807 3.55324e-19)
(7.20554 -11.6573 -4.69814e-19)
(7.03545 -11.3381 7.39373e-19)
(6.8667 -11.0255 2.15027e-19)
(6.70084 -10.7214 6.65131e-19)
(6.53904 -10.4272 7.51163e-20)
(6.38212 -10.1436 1.65557e-19)
(6.23059 -9.87113 5.31991e-20)
(6.0847 -9.60969 -3.23388e-21)
(5.94452 -9.35913 -1.95259e-20)
(5.81 -9.1191 8.57048e-20)
(5.68098 -8.88917 2.88997e-19)
(5.5573 -8.66888 -3.20295e-19)
(5.43876 -8.45781 2.52004e-19)
(5.32517 -8.25557 8.19752e-21)
(5.21642 -8.06189 1.12082e-19)
(5.11242 -7.87653 2.03098e-19)
(5.01303 -7.69936 -3.53274e-20)
(4.9182 -7.53014 1.99148e-19)
(4.82871 -7.36785 2.8451e-19)
(4.74523 -7.21097 -3.08521e-19)
(4.65742 -7.06383 -1.66451e-19)
(9.48923 -14.2512 2.02034e-18)
(8.86465 -14.0659 -2.04014e-19)
(8.67105 -13.7196 4.17086e-19)
(8.53088 -13.3838 7.5845e-19)
(8.37291 -13.0741 -2.14006e-18)
(8.21158 -12.7643 2.2519e-19)
(8.04585 -12.4488 -7.91035e-19)
(7.87391 -12.1292 7.69807e-19)
(7.69707 -11.8079 -6.07995e-19)
(7.51763 -11.4879 3.20787e-19)
(7.33782 -11.1721 -1.16272e-18)
(7.15965 -10.8632 4.52481e-20)
(6.98474 -10.5628 -1.24265e-18)
(6.81429 -10.2724 5.57149e-19)
(6.64914 -9.99269 2.85918e-19)
(6.48977 -9.72401 4.30033e-19)
(6.33644 -9.46637 -4.67138e-19)
(6.18918 -9.21955 -3.60702e-20)
(6.04792 -8.98318 3.55269e-20)
(5.91249 -8.75682 1.00214e-19)
(5.78268 -8.54 -5.6142e-19)
(5.65828 -8.33228 -1.65224e-20)
(5.5391 -8.1333 -3.08967e-19)
(5.42502 -7.94274 -7.26706e-20)
(5.31593 -7.76042 -1.86895e-19)
(5.21173 -7.58622 -2.02162e-19)
(5.11239 -7.42 -2.07898e-19)
(5.01879 -7.26075 3.43196e-19)
(4.93164 -7.10707 9.09662e-20)
(4.84016 -6.96401 -1.58707e-19)
(9.86302 -14.0047 -1.34404e-18)
(9.24005 -13.8453 4.54355e-19)
(9.04127 -13.5099 -7.63994e-19)
(8.89405 -13.181 1.15003e-19)
(8.7283 -12.8767 1.20726e-18)
(8.55827 -12.5712 -6.06035e-19)
(8.38315 -12.2596 -6.17664e-19)
(8.2014 -11.9435 -5.2565e-19)
(8.01462 -11.6258 2.70475e-20)
(7.82529 -11.3094 3.30009e-19)
(7.63581 -10.9975 -2.3607e-19)
(7.44828 -10.6924 1.3094e-20)
(7.26439 -10.3961 5.15461e-19)
(7.08538 -10.1097 3.20609e-19)
(6.91207 -9.83409 8.97042e-20)
(6.74495 -9.56947 -2.80294e-19)
(6.58425 -9.31585 1.05559e-19)
(6.42999 -9.07297 2.29996e-19)
(6.28205 -8.84047 2.52284e-19)
(6.14026 -8.61788 -2.76334e-19)
(6.00437 -8.40472 4.29027e-20)
(5.87416 -8.20055 2.3251e-19)
(5.74943 -8.005 4.00667e-19)
(5.63003 -7.81776 1.02466e-19)
(5.51589 -7.63865 -4.05869e-19)
(5.4069 -7.46762 4.68814e-19)
(5.30308 -7.30456 -2.33862e-19)
(5.20541 -7.14852 -2.76221e-19)
(5.11466 -6.99817 -1.68858e-19)
(5.0197 -6.85943 -2.02717e-19)
(10.2306 -13.7484 7.03183e-19)
(9.61008 -13.6147 -5.18833e-19)
(9.40644 -13.29 1.99578e-19)
(9.25232 -12.9679 1.01688e-18)
(9.07884 -12.6692 2.70465e-19)
(8.90016 -12.3683 -2.30309e-19)
(8.71566 -12.0606 5.50325e-19)
(8.52413 -11.7483 1.3044e-19)
(8.32744 -11.4345 4.99645e-19)
(8.12826 -11.1221 2.72518e-19)
(7.92917 -10.8142 1.05188e-20)
(7.73236 -10.5133 1.66999e-19)
(7.53957 -10.2212 -5.2833e-20)
(7.35208 -9.93922 -4.60027e-19)
(7.1707 -9.6679 -6.72979e-20)
(6.99591 -9.40757 -1.34343e-19)
(6.82792 -9.15818 3.2638e-19)
(6.66673 -8.91946 3.29323e-19)
(6.51218 -8.69101 -3.73451e-19)
(6.36408 -8.47237 3.79895e-19)
(6.22216 -8.26306 7.99881e-19)
(6.08617 -8.06262 -5.13524e-19)
(5.95591 -7.87069 5.10344e-19)
(5.83122 -7.68696 -3.57629e-19)
(5.71202 -7.51127 -4.95216e-20)
(5.59825 -7.34359 3.75393e-19)
(5.48997 -7.18388 -7.64316e-20)
(5.38825 -7.03122 2.78441e-19)
(5.29396 -6.88441 2.74286e-19)
(5.19567 -6.75029 -4.86164e-19)
(10.5916 -13.4824 -6.77828e-19)
(9.97452 -13.3741 2.92691e-19)
(9.76631 -13.0601 1.19948e-19)
(9.6054 -12.7447 -1.17878e-18)
(9.42427 -12.4517 -6.00479e-19)
(9.23695 -12.1555 4.42304e-19)
(9.0431 -11.852 -1.21253e-18)
(8.84182 -11.5438 1.44103e-18)
(8.63526 -11.2341 -8.02324e-19)
(8.4263 -10.9259 9.52181e-20)
(8.21766 -10.6224 -1.51387e-19)
(8.01165 -10.326 -4.39197e-19)
(7.81006 -10.0385 8.95825e-19)
(7.61417 -9.761 3.32784e-19)
(7.42482 -9.49424 4.26292e-19)
(7.24246 -9.23841 8.14877e-21)
(7.06727 -8.99344 1.85725e-19)
(6.89922 -8.75906 -4.03505e-19)
(6.73813 -8.53485 8.38451e-20)
(6.58377 -8.32033 2.71945e-19)
(6.43585 -8.11504 -1.15487e-19)
(6.29411 -7.91851 1.84992e-19)
(6.15832 -7.73036 -3.64208e-19)
(6.02832 -7.55032 5.19153e-19)
(5.90404 -7.37823 1.18545e-19)
(5.78544 -7.2141 -3.25736e-19)
(5.67264 -7.05794 -2.78729e-19)
(5.56683 -6.90885 1.00903e-21)
(5.46896 -6.76584 3.78786e-19)
(5.36737 -6.63677 -8.13208e-20)
(10.9462 -13.2068 -1.87301e-19)
(10.3332 -13.1237 -1.20368e-18)
(10.1206 -12.8201 1.42197e-18)
(9.95302 -12.5115 9.46041e-19)
(9.76428 -12.2242 9.2761e-19)
(9.56836 -11.9329 2.49877e-19)
(9.36518 -11.6339 3.7572e-19)
(9.15419 -11.3301 1.85802e-19)
(8.9378 -11.0247 -7.40852e-19)
(8.71913 -10.7211 1.33707e-18)
(8.50103 -10.4222 -1.05698e-18)
(8.28592 -10.1306 -6.92527e-20)
(8.07563 -9.84784 1.50307e-19)
(7.87146 -9.57517 -6.57083e-19)
(7.67424 -9.31318 1.02989e-18)
(7.48441 -9.06206 1.92825e-19)
(7.30211 -8.82171 -4.29762e-19)
(7.12729 -8.59184 1.62623e-19)
(6.95973 -8.37203 -3.14798e-19)
(6.79916 -8.16179 -2.76069e-19)
(6.64529 -7.96066 -2.91062e-19)
(6.49781 -7.76818 6.60145e-20)
(6.35648 -7.58398 3.52602e-20)
(6.22113 -7.40779 -6.97059e-19)
(6.09171 -7.23947 -2.61892e-19)
(5.96817 -7.07907 1.69053e-19)
(5.85073 -6.92663 2.0715e-19)
(5.74066 -6.78134 -2.85305e-19)
(5.63896 -6.64238 -1.08053e-19)
(5.5339 -6.51856 7.8524e-21)
(11.2943 -12.9218 -1.64337e-19)
(10.6859 -12.8637 7.79894e-19)
(10.4691 -12.5703 -2.2094e-19)
(10.2949 -12.2684 -2.67872e-19)
(10.0986 -11.9869 -1.42911e-18)
(9.89409 -11.7007 -3.0831e-19)
(9.68161 -11.4064 5.74415e-19)
(9.46095 -11.1072 -3.77123e-19)
(9.23481 -10.8066 -4.01813e-20)
(9.0065 -10.5078 -7.52088e-20)
(8.77905 -10.2138 3.99968e-19)
(8.55494 -9.92716 -6.21666e-19)
(8.33607 -9.64948 -4.0975e-19)
(8.12374 -9.38185 4.75785e-19)
(7.91878 -9.12484 -2.67841e-19)
(7.72159 -8.87862 1.26473e-19)
(7.53229 -8.64306 2.55769e-20)
(7.35078 -8.41786 -1.07882e-19)
(7.17683 -8.20258 3.89863e-19)
(7.01012 -7.99676 -3.54241e-19)
(6.85032 -7.79992 -2.82234e-19)
(6.69711 -7.61162 2.46081e-19)
(6.55023 -7.4315 -2.81907e-20)
(6.4095 -7.2593 -1.79369e-19)
(6.27486 -7.09491 1.57888e-19)
(6.14631 -6.93844 -4.85083e-19)
(6.02409 -6.78999 2.95612e-19)
(5.9096 -6.64875 -4.8651e-21)
(5.80386 -6.514 -3.03138e-19)
(5.69541 -6.39513 4.07464e-19)
(11.6366 -12.628 6.40171e-19)
(11.0329 -12.5941 -1.51635e-18)
(10.8115 -12.3106 -1.24544e-19)
(10.6307 -12.0154 6.81002e-19)
(10.4269 -11.7399 -1.69535e-19)
(10.2138 -11.459 -4.8013e-19)
(9.99206 -11.1696 2.15973e-19)
(9.7618 -10.8754 2.48076e-19)
(9.52597 -10.5797 1.9041e-20)
(9.28814 -10.286 2.97055e-19)
(9.05145 -9.99728 9.40387e-19)
(8.81848 -9.7159 -3.2799e-19)
(8.59116 -9.44351 8.09721e-20)
(8.37081 -9.18115 -2.14562e-19)
(8.15824 -8.92933 8.12178e-19)
(7.95383 -8.68819 -1.45798e-19)
(7.75765 -8.45758 2.13144e-19)
(7.56956 -8.23718 -3.58137e-19)
(7.3893 -8.02656 1.92768e-19)
(7.2165 -7.82525 2.89631e-19)
(7.05081 -7.63278 4.87455e-20)
(6.89186 -7.44874 1.90932e-19)
(6.73936 -7.27278 -1.56037e-19)
(6.59315 -7.10468 4.32391e-19)
(6.45317 -6.94441 -1.75298e-19)
(6.31945 -6.79215 6.36381e-19)
(6.19238 -6.64808 -1.83606e-19)
(6.07351 -6.5113 1.25213e-19)
(5.96395 -6.38114 -2.35871e-19)
(5.85274 -6.26831 3.93152e-19)
(11.9741 -12.3259 -1.40774e-18)
(11.3744 -12.3147 5.17349e-20)
(11.1477 -12.0408 -7.55655e-19)
(10.96 -11.7524 1.3336e-19)
(10.7488 -11.4831 3.8413e-20)
(10.5272 -11.2078 -6.28848e-19)
(10.2963 -10.9237 -1.1701e-18)
(10.0565 -10.6347 5.7391e-19)
(9.81107 -10.3443 -8.05506e-19)
(9.56382 -10.056 -4.16934e-19)
(9.31802 -9.77281 -2.34031e-19)
(9.07634 -9.49698 -1.8009e-19)
(8.84073 -9.23013 2.01712e-21)
(8.61252 -8.97325 -6.43941e-19)
(8.39249 -8.72681 4.10664e-19)
(8.181 -8.49091 -6.76937e-19)
(7.97808 -8.2654 -1.70586e-19)
(7.78355 -8.04991 1.91298e-19)
(7.59708 -7.84403 -7.71042e-20)
(7.41829 -7.64728 2.21977e-19)
(7.24672 -7.45919 1.69409e-19)
(7.082 -7.27938 -4.2246e-19)
(6.92376 -7.10754 4.20442e-19)
(6.77179 -6.94349 -4.54276e-20)
(6.62598 -6.7873 -1.11111e-19)
(6.48643 -6.63933 -4.37623e-19)
(6.35378 -6.49982 -2.30443e-19)
(6.2299 -6.36788 4.24402e-19)
(6.11576 -6.24411 -1.40549e-19)
(6.0011 -6.14286 -1.27737e-19)
(12.3062 -12.0137 6.15395e-19)
(11.7098 -12.0242 5.69519e-20)
(11.4772 -11.7605 -1.45217e-19)
(11.2826 -11.4797 -3.03295e-20)
(11.064 -11.2171 -2.51154e-19)
(10.8341 -10.9476 8.51238e-19)
(10.5941 -10.6691 -3.93218e-19)
(10.3448 -10.3856 2.57039e-19)
(10.09 -10.1008 1.04875e-19)
(9.83344 -9.81818 3.66123e-19)
(9.57868 -9.54071 -1.37252e-19)
(9.32842 -9.27067 7.76024e-19)
(9.08467 -9.00958 -6.54101e-20)
(8.84877 -8.75839 4.88091e-19)
(8.62145 -8.51751 -8.12172e-19)
(8.40305 -8.28702 -5.83657e-20)
(8.19356 -8.06672 5.13051e-19)
(7.99274 -7.85625 -3.16671e-19)
(7.80023 -7.65516 1.29518e-19)
(7.61557 -7.46298 2.19409e-19)
(7.43827 -7.27923 -3.16604e-19)
(7.26785 -7.10352 3.47737e-19)
(7.10385 -6.93554 -3.22045e-19)
(6.94591 -6.77514 6.98991e-20)
(6.7937 -6.62246 2.57016e-19)
(6.64713 -6.47793 1.76686e-19)
(6.50676 -6.34181 1.63649e-19)
(6.37412 -6.214 1.2081e-19)
(6.24874 -6.09889 -3.2565e-19)
(6.12329 -6.01339 -1.24418e-19)
(17.3952 0.207202 7.67265e-21)
(17.3851 -0.251189 7.47272e-20)
(17.3636 -0.707415 2.59745e-19)
(17.3316 -1.16185 1.41677e-19)
(17.2885 -1.61464 -3.02387e-19)
(17.2339 -2.06567 9.13013e-20)
(17.1676 -2.51474 -9.51539e-20)
(17.0896 -2.96162 -2.41611e-19)
(17.0001 -3.40607 1.28439e-19)
(16.899 -3.84781 -1.48824e-19)
(16.7863 -4.28655 -1.48164e-19)
(16.6623 -4.72202 -3.18401e-19)
(16.5269 -5.15391 -9.20583e-19)
(16.3803 -5.58194 8.43687e-20)
(16.2227 -6.00583 -3.74833e-20)
(16.054 -6.42529 -2.96377e-19)
(15.8745 -6.84003 6.24982e-19)
(15.6843 -7.24977 3.43847e-19)
(15.4835 -7.65425 6.56964e-19)
(15.2723 -8.0532 3.22097e-19)
(15.0508 -8.44635 -7.3225e-19)
(14.8192 -8.83344 2.93134e-20)
(14.5777 -9.21423 -1.40144e-18)
(14.3265 -9.58847 2.13249e-18)
(14.0658 -9.95595 -7.00432e-19)
(13.7957 -10.3164 -9.2104e-19)
(13.5164 -10.6698 -1.3816e-19)
(13.2286 -11.016 -1.79498e-20)
(12.9314 -11.3553 -7.19703e-19)
(12.628 -11.6866 1.26351e-18)
(17.215 -0.229643 2.81167e-20)
(17.1905 -0.681789 4.09543e-20)
(17.1536 -1.13155 9.56754e-21)
(17.1051 -1.5791 -3.61924e-19)
(17.045 -2.02458 -3.24895e-19)
(16.9733 -2.4678 2.86832e-19)
(16.8899 -2.90851 3.55332e-19)
(16.795 -3.34643 1.87648e-19)