/*--------------------------------*- C++ -*----------------------------------*\
| =========                 |                                                 |
| \\      /  F ield         | OpenFOAM: The Open Source CFD Toolbox           |
|  \\    /   O peration     | Version:  v1912                                 |
|   \\  /    A nd           | Website:  www.openfoam.com                      |
|    \\/     M anipulation  |                                                 |
\*---------------------------------------------------------------------------*/
FoamFile
{
    version     2.0;
    format      ascii;
    class       surfaceScalarField;
    location    "71";
    object      phi;
}
// * * * * * * * * * * * * * * * * * * * * * * * * * * * * * * * * * * * * * //

dimensions      [0 3 -1 0 0 0 0];
oriented        oriented;


internalField   nonuniform List<scalar> 
18940
(
0.000358497
-0.234358
0.234
0.00137983
-0.216315
0.215294
0.00288454
-0.20478
0.203275
0.00470206
-0.197
0.195182
0.00670149
-0.191248
0.189249
0.00878106
-0.186458
0.184379
0.0108669
-0.182041
0.179955
0.0129096
-0.1777
0.175658
0.014879
-0.173313
0.171343
0.0167596
-0.168849
0.166969
0.0185467
-0.164331
0.162544
0.0202427
-0.159801
0.158105
0.0218548
-0.155306
0.153694
0.0233928
-0.150891
0.149353
0.0248677
-0.14659
0.145115
0.0262914
-0.14243
0.141007
0.0276754
-0.138423
0.137039
0.0290301
-0.134565
0.13321
0.030364
-0.130838
0.129504
-0.127201
0.125882
0.0316824
0.000381928
-0.23474
0.00142316
-0.217356
0.00293859
-0.206295
0.00476042
-0.198822
0.0067543
-0.193242
0.00881853
-0.188523
0.0108805
-0.184103
0.0128924
-0.179712
0.0148259
-0.175246
0.0166673
-0.170691
0.0184136
-0.166078
0.0200685
-0.161456
0.0216401
-0.156878
0.0231389
-0.152389
0.0245765
-0.148028
0.0259649
-0.143819
0.0273158
-0.139774
0.0286401
-0.135889
0.0299468
-0.132144
-0.128496
0.0312417
0.000403358
-0.235143
0.00146082
-0.218414
0.00298497
-0.20782
0.00480734
-0.200644
0.00679203
-0.195227
0.00883726
-0.190568
0.0108717
-0.186137
0.0128493
-0.18169
0.0147437
-0.177141
0.0165433
-0.17249
0.0182463
-0.167781
0.019858
-0.163067
0.0213873
-0.158407
0.0228453
-0.153847
0.0242441
-0.149427
0.0255958
-0.145171
0.0269124
-0.14109
0.0282051
-0.137182
0.0294832
-0.133422
-0.129766
0.0307536
0.000417236
-0.235561
0.00148974
-0.219486
0.00302176
-0.209352
0.00484211
-0.202465
0.00681424
-0.197199
0.00883691
-0.192591
0.0108403
-0.188141
0.0127804
-0.18363
0.0146328
-0.178993
0.0163878
-0.174245
0.0180454
-0.169438
0.019612
-0.164634
0.0210974
-0.159892
0.0225132
-0.155263
0.023872
-0.150786
0.0251859
-0.146484
0.0264671
-0.142371
0.0277271
-0.138442
0.0289758
-0.134671
-0.131011
0.0302208
0.000428509
-0.235989
0.00151328
-0.220571
0.00305031
-0.210889
0.00486538
-0.20428
0.00682138
-0.199155
0.00881792
-0.194587
0.0107869
-0.19011
0.0126863
-0.185529
0.0144939
-0.180801
0.0162019
-0.175953
0.017812
-0.171048
0.0193317
-0.166154
0.0207717
-0.161332
0.0221442
-0.156636
0.0234617
-0.152103
0.0247368
-0.14776
0.0259817
-0.143616
0.0272081
-0.139668
0.0284264
-0.135889
-0.13223
0.0296453
0.000437604
-0.236427
0.00153183
-0.221665
0.00307087
-0.212428
0.00487737
-0.206086
0.00681376
-0.201092
0.0087807
-0.196554
0.0107119
-0.192041
0.0125676
-0.187385
0.0143278
-0.182561
0.0159866
-0.177612
0.0175472
-0.172609
0.0190183
-0.167625
0.0204115
-0.162725
0.0217393
-0.157964
0.0230145
-0.153378
0.0242498
-0.148995
0.0254573
-0.144824
0.0266491
-0.14086
0.0278363
-0.137076
-0.133422
0.0290284
0.000445086
-0.236872
0.00154608
-0.222766
0.00308402
-0.213966
0.00487859
-0.207881
0.0067919
-0.203005
0.00872583
-0.198488
0.0106161
-0.193931
0.0124252
-0.189194
0.0141355
-0.184271
0.0157428
-0.179219
0.0172519
-0.174118
0.0186729
-0.169046
0.0200178
-0.16407
0.0212998
-0.159246
0.0225316
-0.15461
0.0237259
-0.150189
0.024895
-0.145993
0.0260512
-0.142016
0.0272061
-0.138231
-0.134586
0.0283705
0.000451112
-0.237323
0.00155634
-0.223872
0.00309015
-0.215499
0.00486949
-0.20966
0.00675635
-0.204892
0.008654
-0.200386
0.0105003
-0.195777
0.0122601
-0.190954
0.0139179
-0.185929
0.0154716
-0.180773
0.0169275
-0.175574
0.0182966
-0.170415
0.0195919
-0.165366
0.0208267
-0.16048
0.0220138
-0.155797
0.023166
-0.151341
0.0242954
-0.147122
0.0254146
-0.143135
0.0265361
-0.139353
-0.135722
0.0276717
0.000455786
-0.237779
0.00156291
-0.224979
0.00308971
-0.217026
0.00485065
-0.211421
0.0067078
-0.206749
0.00856602
-0.202244
0.0103654
-0.197577
0.0120732
-0.192662
0.0136762
-0.187532
0.0151742
-0.182271
0.016575
-0.176975
0.0178907
-0.171731
0.0191347
-0.16661
0.0203208
-0.161666
0.0214619
-0.156938
0.0225704
-0.15245
0.0236586
-0.148211
0.0247392
-0.144216
0.0258256
-0.140439
-0.136827
0.026931
0.000459183
-0.238238
0.00156608
-0.226086
0.00308319
-0.218543
0.0048227
-0.21316
0.00664707
-0.208573
0.00846287
-0.20406
0.0102126
-0.199327
0.0118659
-0.194315
0.0134119
-0.189078
0.0148521
-0.183711
0.0161959
-0.178319
0.0174563
-0.172991
0.0186475
-0.167801
0.0197832
-0.162802
0.0208765
-0.158032
0.0219395
-0.153513
0.0229844
-0.149256
0.0240244
-0.145256
0.0250735
-0.141488
-0.1379
0.0261466
0.000461409
-0.238699
0.00156618
-0.22719
0.00307114
-0.220048
0.00478642
-0.214876
0.00657509
-0.210362
0.00834569
-0.20583
0.0100431
-0.201024
0.0116396
-0.195912
0.0131263
-0.190565
0.0145069
-0.185092
0.0157918
-0.179604
0.016995
-0.174194
0.0181313
-0.168937
0.0192147
-0.163885
0.0202581
-0.159075
0.0212733
-0.154528
0.0222725
-0.150255
0.0232689
-0.146252
0.0242778
-0.142497
-0.138938
0.0253158
0.000462619
-0.239162
0.00156366
-0.228291
0.00305426
-0.221539
0.0047427
-0.216564
0.00649298
-0.212112
0.00821579
-0.207553
0.00985858
-0.202667
0.011396
-0.197449
0.0128215
-0.19199
0.0141403
-0.186411
0.0153644
-0.180828
0.0165085
-0.175338
0.0175879
-0.170017
0.0186167
-0.164914
0.0196076
-0.160066
0.0205723
-0.155493
0.0215225
-0.151205
0.0224718
-0.147202
0.0234364
-0.143462
-0.139938
0.0244355
0.000463092
-0.239625
0.00155915
-0.229387
0.0030334
-0.223013
0.00469261
-0.218223
0.00640205
-0.213822
0.00807473
-0.209226
0.0096607
-0.204253
0.0111371
-0.198925
0.0124994
-0.193352
0.0137547
-0.187666
0.0149161
-0.181989
0.015999
-0.176421
0.017019
-0.171037
0.0179905
-0.165886
0.0189259
-0.161001
0.0198367
-0.156403
0.0207341
-0.152102
0.0216317
-0.148099
0.022547
-0.144377
-0.140892
0.0235018
0.000463307
-0.240088
0.00155349
-0.230478
0.00300962
-0.224469
0.0046374
-0.219851
0.00630377
-0.215488
0.00792424
-0.210846
0.00945151
-0.20578
0.0108652
-0.200339
0.0121628
-0.19465
0.0133529
-0.188856
0.0144496
-0.183086
0.0154691
-0.177441
0.0164273
-0.171995
0.0173383
-0.166797
0.0182146
-0.161878
0.019067
-0.157256
0.0199066
-0.152942
0.0207466
-0.148939
0.0216056
-0.145236
-0.141795
0.0225084
0.000464067
-0.240552
0.00154786
-0.231561
0.00298413
-0.225906
0.00457843
-0.221445
0.00619975
-0.217109
0.00776625
-0.212413
0.00923329
-0.207247
0.0105829
-0.201689
0.0118145
-0.195882
0.0129381
-0.18998
0.0139687
-0.184116
0.0149228
-0.178395
0.0158164
-0.172888
0.0166636
-0.167644
0.0174763
-0.16269
0.018265
-0.158044
0.0190397
-0.153717
0.0198136
-0.149713
0.0206059
-0.146029
-0.142636
0.021447
0.000466519
-0.241019
0.00154356
-0.232638
0.00295814
-0.22732
0.00451706
-0.223004
0.00609167
-0.218684
0.00760281
-0.213924
0.00900852
-0.208653
0.0102931
-0.202973
0.011458
-0.197047
0.0125143
-0.191036
0.0134778
-0.18508
0.0143651
-0.179282
0.015192
-0.173715
0.0159723
-0.168424
0.016717
-0.163435
0.0174358
-0.158763
0.0181377
-0.154419
0.0188345
-0.15041
0.019547
-0.146741
-0.143403
0.0203141
0.000472051
-0.241491
0.00154191
-0.233708
0.00293298
-0.228711
0.00445487
-0.224526
0.00598141
-0.22021
0.00743614
-0.215379
0.00877983
-0.209996
0.00999913
-0.204192
0.0110971
-0.198145
0.0120861
-0.192025
0.012982
-0.185976
0.0138017
-0.180102
0.0145605
-0.174474
0.0152714
-0.169135
0.0159448
-0.164109
0.0165889
-0.159407
0.0172112
-0.155041
0.0178219
-0.151021
0.0184415
-0.147361
-0.144072
0.0191099
0.000482995
-0.241974
0.00154552
-0.234771
0.0029111
-0.230077
0.00439395
-0.226009
0.00587091
-0.221687
0.00726835
-0.216776
0.00854976
-0.211278
0.00970408
-0.205347
0.0107359
-0.199176
0.0116584
-0.192947
0.0124876
-0.186805
0.0132397
-0.180854
0.0139293
-0.175164
0.0145682
-0.169774
0.0151655
-0.164706
0.0157285
-0.15997
0.0162639
-0.155576
0.016778
-0.151535
0.0172836
-0.147866
-0.144593
0.0178048
0.000506934
-0.242481
0.00156163
-0.235826
0.00289658
-0.231412
0.00433623
-0.227449
0.00576143
-0.223113
0.00710086
-0.218115
0.00832036
-0.212497
0.00941092
-0.206437
0.0103786
-0.200144
0.0112371
-0.193806
0.0120024
-0.18757
0.0126897
-0.181541
0.0133115
-0.175785
0.0138769
-0.170339
0.0143918
-0.165221
0.0148599
-0.160438
0.015283
-0.155999
0.01566
-0.151912
0.0159953
-0.148201
-0.144949
0.016351
0.000563984
-0.243045
0.00159853
-0.23686
0.00288916
-0.232702
0.0042805
-0.22884
0.00565246
-0.224485
0.00693407
-0.219397
0.00809292
-0.213656
0.00912197
-0.207466
0.0100288
-0.201051
0.0108279
-0.194605
0.0115354
-0.188278
0.0121656
-0.182172
0.0127292
-0.176349
0.0132319
-0.170842
0.0136732
-0.165662
0.014046
-0.160811
0.0143333
-0.156287
0.0145089
-0.152087
0.0145679
-0.14826
-0.14512
0.0147397
0.250731
0.000415224
-0.251147
0.250342
0.000388869
0.249961
0.000381604
0.249579
0.000381741
0.249194
0.000384692
0.248805
0.000389108
0.248411
0.000394264
0.248011
0.000399575
0.247607
0.000404647
0.247198
0.000409271
0.246784
0.000413356
0.246367
0.000416875
0.245947
0.000419808
0.245525
0.00042213
0.245102
0.000423721
0.244677
0.000424377
0.244254
0.000423043
0.243835
0.000419174
0.243431
0.000403573
0.000386492
0.252708
0.00102398
-0.253316
0.252063
0.00103322
0.251391
0.00105433
0.250691
0.00108135
0.249966
0.00110973
0.249217
0.00113812
0.248445
0.00116605
0.247652
0.00119303
0.246838
0.00121863
0.246004
0.0012426
0.245153
0.00126482
0.244285
0.00128528
0.2434
0.00130395
0.242502
0.00132084
0.24159
0.00133583
0.240665
0.00134868
0.23973
0.00135829
0.238785
0.00136441
0.237828
0.00136077
0.00135401
0.251493
0.0015962
-0.252065
0.250856
0.00167016
0.250166
0.00174434
0.249428
0.00181963
0.248644
0.00189366
0.247817
0.00196523
0.246949
0.00203401
0.246042
0.00209977
0.245099
0.00216226
0.24412
0.00222133
0.243108
0.00227694
0.242064
0.00232911
0.24099
0.00237794
0.239887
0.00242354
0.238757
0.00246594
0.237601
0.00250514
0.236418
0.00254065
0.23521
0.00257272
0.233972
0.00259894
0.00262349
0.24739
0.00203981
-0.247834
0.246877
0.00218346
0.246299
0.00232249
0.24566
0.00245833
0.244963
0.00259033
0.244211
0.0027177
0.243405
0.00284011
0.242547
0.00295737
0.24164
0.00306937
0.240685
0.00317603
0.239685
0.00327736
0.23864
0.00337348
0.237554
0.00346461
0.236426
0.00355105
0.235259
0.00363305
0.234053
0.00371096
0.232809
0.00378491
0.231526
0.00385553
0.230203
0.00392206
0.00398653
0.241143
0.00231896
-0.241422
0.240793
0.00253394
0.240373
0.00274215
0.239887
0.00294442
0.239336
0.00314071
0.238724
0.00333059
0.23805
0.00351369
0.237318
0.00368983
0.236528
0.00385891
0.235683
0.00402088
0.234785
0.0041758
0.233834
0.00432388
0.232833
0.00446546
0.231784
0.004601
0.230686
0.00473101
0.22954
0.00485622
0.228348
0.00497724
0.227108
0.005095
0.225821
0.00520964
0.00532288
0.233546
0.00244233
-0.233669
0.233352
0.00272794
0.233088
0.00300561
0.232757
0.00327565
0.23236
0.0035381
0.231898
0.00379264
0.231372
0.00403895
0.230786
0.0042768
0.230138
0.00450605
0.229433
0.00472668
0.22867
0.00493877
0.227851
0.00514259
0.226978
0.00533858
0.226051
0.00552735
0.225073
0.00570972
0.224042
0.00588673
0.22296
0.00605943
0.221826
0.0062292
0.220639
0.00639689
0.00656437
0.225302
0.00244048
-0.225301
0.225236
0.00279416
0.225103
0.00313915
0.224903
0.00347539
0.224638
0.00380281
0.22431
0.00412113
0.223919
0.00443001
0.223466
0.00472918
0.222954
0.00501846
0.222383
0.00529779
0.221754
0.00556729
0.22107
0.00582724
0.22033
0.00607816
0.219536
0.00632084
0.21869
0.00655635
0.21779
0.00678608
0.216838
0.00701157
0.215833
0.00723471
0.214773
0.00745706
0.00768079
0.21694
0.00234962
-0.21685
0.216967
0.00276782
0.216929
0.00317673
0.216829
0.00357607
0.216666
0.00396563
0.216442
0.00434507
0.216158
0.00471404
0.215815
0.00507221
0.215414
0.00541932
0.214956
0.0057553
0.214443
0.00608022
0.213876
0.00639437
0.213256
0.00669835
0.212584
0.00699306
0.21186
0.00727985
0.211086
0.00756046
0.210261
0.00783699
0.209383
0.00811197
0.208453
0.00838777
0.00866707
0.208808
0.00220309
-0.208661
0.208893
0.00268201
0.208919
0.00315109
0.208885
0.00360989
0.208793
0.00405807
0.208643
0.00449525
0.208436
0.00492099
0.208173
0.00533488
0.207856
0.00573663
0.207485
0.00612606
0.207062
0.0065032
0.206588
0.00686831
0.206064
0.00722199
0.205492
0.00756528
0.204872
0.00789973
0.204205
0.00822746
0.203491
0.00855124
0.202729
0.00887435
0.201916
0.00920022
0.0095324
0.201104
0.00202788
-0.200929
0.201222
0.00256396
0.201284
0.00308962
0.201289
0.00360431
0.20124
0.0041076
0.201136
0.00459902
0.200979
0.00507805
0.20077
0.0055442
0.200509
0.00599707
0.200199
0.00643639
0.19984
0.00686209
0.199434
0.00727434
0.198982
0.00767373
0.198486
0.0080613
0.197947
0.00843882
0.197366
0.00880874
0.196742
0.0091746
0.196076
0.00954054
0.195365
0.00991153
0.0102924
0.193924
0.00184388
-0.19374
0.194053
0.00243399
0.19413
0.0030131
0.194154
0.00358055
0.194126
0.0041358
0.194046
0.00467829
0.193917
0.00520739
0.193739
0.00572253
0.193513
0.00622319
0.19324
0.00670896
0.192922
0.00717963
0.192562
0.00763522
0.192159
0.00807621
0.191717
0.00850353
0.191237
0.00891913
0.19072
0.00932564
0.190167
0.00972753
0.189577
0.0101298
0.188949
0.0105398
0.0109638
0.187288
0.00166448
-0.187109
0.187416
0.00230612
0.187493
0.00293616
0.18752
0.00355378
0.187497
0.00415834
0.187426
0.0047492
0.187308
0.00532564
0.187144
0.00588696
0.186934
0.0064325
0.186682
0.0069617
0.186387
0.00747413
0.186053
0.00796958
0.185681
0.00844833
0.185273
0.00891107
0.184833
0.00935975
0.184361
0.00979699
0.18386
0.0102283
0.183331
0.0106595
0.182769
0.0111011
0.0115616
0.181179
0.00149803
-0.181012
0.181296
0.00218935
0.181363
0.00286832
0.181383
0.00353403
0.181356
0.0041858
0.181282
0.00482288
0.181163
0.00544443
0.181001
0.00604964
0.180795
0.00663769
0.180549
0.0072078
0.180264
0.00775932
0.179942
0.00829171
0.179585
0.00880491
0.179197
0.00929914
0.178781
0.00977625
0.178339
0.0102383
0.177876
0.0106922
0.177392
0.0111435
0.176884
0.0116085
0.0120967
0.175552
0.00134936
-0.175404
0.175653
0.00208884
0.175706
0.00281517
0.175713
0.00352741
0.175674
0.00422475
0.17559
0.00490635
0.175463
0.00557128
0.175294
0.00621858
0.175085
0.00684727
0.174836
0.00745635
0.174551
0.00804486
0.174231
0.00861186
0.173879
0.00915684
0.173499
0.00967925
0.173094
0.0101806
0.172671
0.0106617
0.172232
0.0111312
0.171783
0.0115923
0.17132
0.0120713
0.012575
0.170357
0.00122074
-0.170229
0.170439
0.00200727
0.170474
0.00277973
0.170464
0.0035372
0.17041
0.00427879
0.170313
0.00500356
0.170174
0.00571049
0.169994
0.00639847
0.169775
0.00706637
0.169518
0.00771293
0.169226
0.00833687
0.168902
0.00893676
0.168547
0.00951151
0.168167
0.0100595
0.167765
0.0105818
0.167351
0.0110765
0.166927
0.0115547
0.166506
0.0120129
0.166082
0.0124953
0.0129954
0.165538
0.00111294
-0.16543
0.1656
0.00194545
0.165617
0.00276297
0.165589
0.00356457
0.165519
0.0043493
0.165406
0.00511611
0.165253
0.00586388
0.16506
0.00659141
0.164829
0.00729737
0.164562
0.00798027
0.16426
0.00863848
0.163927
0.00927008
0.163565
0.00987326
0.163179
0.0104452
0.162776
0.0109857
0.162363
0.0114894
0.161947
0.0119699
0.16155
0.0124103
0.161161
0.012884
0.0133455
0.161043
0.00102547
-0.160956
0.161086
0.0019029
0.161084
0.00276446
0.16104
0.00360915
0.160953
0.00443594
0.160826
0.00524371
0.160658
0.00603125
0.160452
0.00679727
0.160209
0.00754026
0.159931
0.00825852
0.15962
0.00895011
0.159277
0.00961258
0.158907
0.0102434
0.158514
0.0108383
0.158104
0.0113957
0.157688
0.0119049
0.157276
0.012382
0.156899
0.0127873
0.156541
0.0132424
0.0135997
0.156825
0.000956483
-0.156756
0.15685
0.00187806
0.156832
0.00278251
0.156772
0.00366912
0.156671
0.00453676
0.156531
0.00538426
0.156351
0.00621036
0.156135
0.00701365
0.155883
0.00779253
0.155596
0.0085451
0.155277
0.00926914
0.154928
0.00996179
0.154552
0.0106198
0.154152
0.0112375
0.153736
0.0118118
0.153316
0.0123248
0.152904
0.0127943
0.152548
0.0131429
0.152214
0.0135764
0.0137267
0.152841
0.000904029
-0.152788
0.152851
0.00186808
0.152819
0.00281388
0.152748
0.00374087
0.152637
0.00464774
0.152488
0.00553331
0.152302
0.0063963
0.15208
0.00723525
0.151824
0.00804842
0.151536
0.00883382
0.151216
0.00958903
0.150867
0.0103109
0.150491
0.0109957
0.150092
0.0116364
0.149675
0.0122288
0.149252
0.0127475
0.148836
0.0132104
0.148501
0.0134776
0.148208
0.0138694
0.0136747
0.149051
-0.149014
0.000866551
0.14905
0.00186901
0.14901
0.0028542
0.148932
0.00381933
0.148816
0.00476304
0.148665
0.00568424
0.14848
0.00658168
0.148261
0.00745382
0.148011
0.00829888
0.14773
0.00911478
0.14742
0.00989905
0.147083
0.0106483
0.146719
0.0113588
0.146333
0.0120225
0.145927
0.0126352
0.145509
0.013165
0.145086
0.0136339
0.144735
0.0138286
0.144477
0.0141273
0.0130313
0.254371
7.40849e-05
-0.254445
0.254335
3.64024e-05
0.254302
3.25754e-05
0.25426
4.15145e-05
0.254204
5.59525e-05
0.254131
7.38109e-05
0.254037
9.3787e-05
0.253922
0.000114757
0.253786
0.000135905
0.253629
0.000156726
0.253453
0.000176778
0.253257
0.000195783
0.253043
0.000214239
0.252809
0.000233209
0.252559
0.0002505
0.252293
0.000265678
0.252015
0.000278345
0.251727
0.000288409
0.251437
0.000290009
0.000290022
0.256238
-0.000241597
-0.255923
0.256492
-0.000217601
0.256701
-0.000176651
0.256866
-0.000122825
0.256984
-6.26367e-05
0.257057
1.30906e-06
0.257083
6.78697e-05
0.257062
0.000135955
0.256993
0.000204638
0.256877
0.000272983
0.256714
0.000339749
0.256506
0.000403689
0.256256
0.000463558
0.255959
0.000531068
0.255616
0.000592768
0.255232
0.00064993
0.254808
0.000702395
0.254346
0.000750094
0.253848
0.000788377
0.000821464
0.251676
-0.00089849
-0.251019
0.25226
-0.000801545
0.252778
-0.000694748
0.253233
-0.000578268
0.253626
-0.000455617
0.253957
-0.00032904
0.254224
-0.000199683
0.254429
-6.89504e-05
0.254571
6.31646e-05
0.254647
0.000196079
0.254661
0.000325959
0.254612
0.000452434
0.254498
0.000577801
0.254326
0.000702923
0.254095
0.000823851
0.253805
0.000939764
0.253458
0.00105019
0.253053
0.00115503
0.252589
0.00125232
0.00134488
0.243358
-0.00183447
-0.242422
0.244221
-0.00166475
0.245014
-0.00148775
0.245738
-0.00130274
0.246394
-0.0011114
0.24698
-0.000915539
0.247497
-0.000716497
0.247944
-0.00051554
0.24832
-0.000313358
0.248624
-0.000107173
0.248855
9.4792e-05
0.249018
0.000289588
0.249109
0.000486302
0.249132
0.000679997
0.249086
0.000869603
0.248972
0.00105421
0.248789
0.00123307
0.248538
0.00140582
0.248219
0.00157141
0.00173038
0.233275
-0.00296941
-0.23214
0.234341
-0.00273145
0.235339
-0.00248596
0.236269
-0.00223253
0.23713
-0.00197208
0.237921
-0.00170611
0.23864
-0.00143602
0.239288
-0.00116306
0.239862
-0.000888162
0.240367
-0.000612126
0.2408
-0.000338181
0.241158
-6.77321e-05
0.241443
0.000201289
0.241656
0.000466974
0.241796
0.000728928
0.241865
0.000985708
0.241861
0.00123658
0.241786
0.00148097
0.24164
0.00171803
0.00194771
0.222718
-0.00423091
-0.221456
0.223916
-0.00392957
0.225049
-0.00361916
0.226116
-0.00329981
0.227116
-0.00297234
0.228049
-0.00263819
0.228911
-0.0022989
0.229704
-0.00195597
0.230427
-0.00161082
0.23108
-0.00126481
0.231661
-0.000919497
0.232169
-0.00057617
0.232606
-0.000235692
0.232973
0.000100406
0.233268
0.000433595
0.233491
0.000762761
0.233643
0.00108523
0.233723
0.00140094
0.233731
0.00170925
0.00200991
0.212472
-0.00556132
-0.211141
0.213743
-0.00520081
0.214953
-0.00482911
0.2161
-0.00444686
0.217183
-0.00405512
0.2182
-0.00365548
0.219151
-0.00324977
0.220035
-0.00283972
0.220851
-0.00242698
0.221599
-0.00201301
0.222279
-0.00159922
0.22289
-0.00118702
0.223431
-0.000777194
0.223902
-0.000370491
0.22431
2.54317e-05
0.224646
0.000426824
0.224913
0.000818607
0.225111
0.00120306
0.22524
0.0015801
0.00194935
0.202949
-0.00691884
-0.201591
0.20425
-0.00650249
0.205494
-0.00607254
0.206677
-0.00563003
0.207798
-0.00517643
0.208857
-0.00471377
0.209851
-0.00424417
0.210781
-0.00376966
0.211646
-0.00329206
0.212446
-0.002813
0.213181
-0.00233396
0.21385
-0.00185631
0.214454
-0.00138111
0.214993
-0.000909326
0.215461
-0.000442319
0.215874
1.37718e-05
0.216215
0.00047739
0.216492
0.000926238
0.216703
0.00136853
0.00180291
0.194307
-0.00827567
-0.19295
0.19561
-0.007806
0.196858
-0.00732004
0.198047
-0.00681914
0.199176
-0.00630544
0.200244
-0.00578156
0.20125
-0.00525006
0.202193
-0.00471325
0.203074
-0.00417321
0.203893
-0.00363171
0.204649
-0.00309029
0.205343
-0.00255028
0.205975
-0.00201287
0.206545
-0.00147898
0.207052
-0.000950018
0.207493
-0.000427292
0.20788
9.07103e-05
0.208202
0.000604519
0.208462
0.00110818
0.00160397
0.186553
-0.00961501
-0.185214
0.187841
-0.009094
0.189075
-0.00855351
0.190251
-0.00799526
0.191368
-0.00742242
0.192425
-0.00683841
0.193421
-0.00624632
0.194357
-0.00564882
0.195232
-0.00504821
0.196046
-0.00444641
0.196801
-0.00384496
0.197496
-0.00324519
0.198131
-0.00264826
0.198707
-0.00205511
0.199224
-0.00146675
0.199681
-0.000884092
0.20008
-0.000307868
0.200422
0.000262346
0.200704
0.000825571
0.0013793
0.179617
-0.0109282
-0.178304
0.18088
-0.0103575
0.18209
-0.00976331
0.183243
-0.00914793
0.184337
-0.00851614
0.185371
-0.00787243
0.186345
-0.00722046
0.187259
-0.00656332
0.188115
-0.00590352
0.188911
-0.00524305
0.18965
-0.00458345
0.190331
-0.00392598
0.190954
-0.00327171
0.19152
-0.00262157
0.19203
-0.00197641
0.192483
-0.00133709
0.192879
-0.000704122
0.193222
-8.04518e-05
0.193508
0.000539271
0.00114823
0.173393
-0.0122122
-0.172109
0.174629
-0.0115937
0.175811
-0.0109458
0.176936
-0.0102727
0.178001
-0.00958146
0.179007
-0.00887788
0.179953
-0.00816624
0.180839
-0.00745005
0.181668
-0.006732
0.182439
-0.00601408
0.183153
-0.00529775
0.183811
-0.00458416
0.184414
-0.00387429
0.184961
-0.00316897
0.185454
-0.00246899
0.185892
-0.00177518
0.186276
-0.00108828
0.186605
-0.000409857
0.186884
0.000260257
0.000923861
0.167771
-0.0134678
-0.166515
0.168981
-0.0128037
0.170137
-0.0121015
0.171233
-0.0113691
0.172269
-0.0106174
0.173244
-0.00985325
0.17416
-0.00908166
0.175016
-0.00830659
0.175815
-0.00753085
0.176557
-0.00675631
0.177244
-0.00598427
0.177876
-0.00521574
0.178453
-0.00445153
0.178976
-0.00369241
0.179446
-0.00293909
0.179863
-0.00219237
0.180228
-0.00145275
0.180539
-0.000720928
0.180803
-3.69813e-06
0.000714542
0.162651
-0.0146989
-0.16142
0.16384
-0.0139926
0.164973
-0.0132339
0.166043
-0.0124398
0.167052
-0.0116257
0.167998
-0.0107995
0.168884
-0.00996714
0.16971
-0.00913293
0.170479
-0.00829965
0.171191
-0.00746894
0.171849
-0.00664188
0.172452
-0.00581924
0.173003
-0.00500164
0.1735
-0.00418974
0.173945
-0.00338416
0.174338
-0.00258566
0.17468
-0.00179488
0.174973
-0.00101313
0.175211
-0.000242213
0.000521901
0.157952
-0.015912
-0.156739
0.159127
-0.0151677
0.160242
-0.0143488
0.161291
-0.0134891
0.162275
-0.0126094
0.163194
-0.0117187
0.16405
-0.0108238
0.164847
-0.00992961
0.165586
-0.00903858
0.166269
-0.00815192
0.166898
-0.00727033
0.167473
-0.00639424
0.167995
-0.00552405
0.168465
-0.00466023
0.168885
-0.00380332
0.169253
-0.00295402
0.169571
-0.00211308
0.169839
-0.00128145
0.170057
-0.000460248
0.000350778
0.153608
-0.0171199
-0.152401
0.15478
-0.0163395
0.155884
-0.015453
0.156917
-0.0145217
0.157878
-0.0135709
0.158771
-0.0126112
0.159599
-0.0116514
0.160365
-0.0106961
0.161074
-0.009747
0.161726
-0.00880467
0.162325
-0.00786918
0.162871
-0.00694046
0.163366
-0.00601857
0.163809
-0.00510375
0.164203
-0.00419645
0.164546
-0.00329727
0.16484
-0.00240696
0.165085
-0.00152635
0.165281
-0.000656632
0.000201229
0.149576
-0.0183516
-0.148344
0.15076
-0.0175234
0.15186
-0.0165527
0.152878
-0.0155401
0.153816
-0.0145087
0.154679
-0.0134741
0.155474
-0.0124468
0.156208
-0.0114297
0.156884
-0.0104229
0.157505
-0.00942581
0.158073
-0.00843765
0.15859
-0.00745759
0.159057
-0.00648523
0.159474
-0.00552058
0.159841
-0.00456395
0.16016
-0.0036159
0.16043
-0.00267717
0.160653
-0.00174863
0.160827
-0.00083127
7.25736e-05
0.145825
-0.0196717
-0.144505
0.147043
-0.018741
0.148139
-0.0176489
0.149138
-0.0165391
0.150044
-0.0154147
0.150869
-0.014299
0.151625
-0.0132033
0.152321
-0.0121258
0.152962
-0.0110634
0.15355
-0.0100139
0.154088
-0.00897531
0.154576
-0.00794582
0.155015
-0.00692464
0.155406
-0.00591157
0.155749
-0.00490686
0.156044
-0.00391105
0.156292
-0.00292493
0.156493
-0.00194953
0.156648
-0.000985843
-3.58143e-05
0.142371
-0.0211502
-0.140893
0.14362
-0.01999
0.144695
-0.018723
0.145651
-0.017496
0.146509
-0.0162722
0.147285
-0.0150753
0.147996
-0.0139143
0.148651
-0.0127809
0.149255
-0.0116673
0.14981
-0.0105691
0.150318
-0.00948294
0.150778
-0.00840635
0.151192
-0.0073382
0.151559
-0.00627826
0.151879
-0.0052268
0.152152
-0.00418444
0.152379
-0.00315203
0.15256
-0.00213076
0.152697
-0.0011221
-0.000127605
0.139285
-0.137866
-0.0225687
0.140447
-0.0211523
0.141481
-0.0197571
0.142358
-0.018373
0.143148
-0.0170615
0.143871
-0.015799
0.144536
-0.0145795
0.145151
-0.0133956
0.14572
-0.0122363
0.146244
-0.0110935
0.146724
-0.00996254
0.147159
-0.00884089
0.147548
-0.00772742
0.147892
-0.00662199
0.14819
-0.00552509
0.148443
-0.0044375
0.148651
-0.00336018
0.148814
-0.00229414
0.148933
-0.00124096
-0.000208139
0.0308462
0.112056
-0.110571
-0.0323308
0.0293342
0.115057
-0.113545
0.027792
0.118192
-0.11665
0.0262163
0.121482
-0.119906
0.0246036
0.124961
-0.123348
0.0229512
0.128669
-0.127017
0.021257
0.132667
-0.130972
0.0195196
0.137032
-0.135294
0.0177384
0.141869
-0.140088
0.0159138
0.147309
-0.145484
0.0140474
0.153513
-0.151647
0.0121437
0.160669
-0.158765
0.0102114
0.168977
-0.167045
0.00826732
0.178626
-0.176682
0.00634134
0.18974
-0.187814
0.00448365
0.202281
-0.200423
0.00277406
0.215913
-0.214204
0.00133316
0.22978
-0.228339
0.000330374
0.242097
-0.241094
0.249729
-0.249399
0.0306567
0.113533
-0.0321337
0.0291523
0.116562
0.027618
0.119726
0.0260504
0.12305
0.024446
0.126565
0.022802
0.130313
0.0211161
0.134352
0.019387
0.138761
0.0176138
0.143642
0.0157968
0.149126
0.013938
0.155372
0.0120419
0.162565
0.010118
0.170901
0.00818387
0.180561
0.00627054
0.191653
0.00442971
0.204122
0.00274268
0.2176
0.00132947
0.231193
0.000354132
0.243073
0.250084
0.0304252
0.115
-0.0318925
0.0289307
0.118056
0.0274065
0.12125
0.0258491
0.124607
0.0242551
0.128159
0.0226217
0.131947
0.0209465
0.136028
0.0192278
0.14048
0.0174649
0.145405
0.015658
0.150933
0.0138091
0.157221
0.0119232
0.164451
0.0100101
0.172814
0.00808833
0.182482
0.00618981
0.193551
0.00436727
0.205944
0.00270255
0.219265
0.00131403
0.232582
0.000357201
0.244029
0.250441
0.0301535
0.116455
-0.0316088
0.028671
0.119539
0.027159
0.122762
0.0256139
0.126152
0.0240324
0.12974
0.0224116
0.133567
0.020749
0.13769
0.0190429
0.142186
0.0172924
0.147155
0.0154978
0.152728
0.0136611
0.159058
0.0117876
0.166324
0.00988768
0.174714
0.00798041
0.18439
0.00609859
0.195433
0.00429569
0.207747
0.00265367
0.220907
0.00128928
0.233946
0.00035213
0.244966
0.250793
0.0298437
0.117897
-0.0312852
0.0283751
0.121007
0.0268772
0.12426
0.0253463
0.127683
0.0237791
0.131308
0.0221727
0.135174
0.0205246
0.139338
0.018833
0.143877
0.0170969
0.148891
0.0153166
0.154508
0.0134943
0.16088
0.0116354
0.168183
0.00975073
0.176599
0.00786008
0.18628
0.00599698
0.197296
0.00421555
0.209529
0.0025978
0.222525
0.0012588
0.235285
0.000343204
0.245882
0.251136
0.0294985
0.119323
-0.0309246
0.0280453
0.122461
0.026563
0.125743
0.0250479
0.129198
0.0234966
0.132859
0.0219062
0.136764
0.0202743
0.14097
0.0185989
0.145553
0.0168791
0.150611
0.0151149
0.156272
0.0133089
0.162686
0.0114667
0.170026
0.00959946
0.178466
0.00772758
0.188152
0.00588535
0.199139
0.00412749
0.211287
0.00253593
0.224116
0.00122398
0.236597
0.000331591
0.246774
0.251468
0.0291206
0.120733
-0.0305303
0.027684
0.123897
0.0262185
0.127208
0.0247204
0.130696
0.0231863
0.134393
0.0216134
0.138337
0.0199991
0.142584
0.0183414
0.14721
0.0166395
0.152313
0.0148934
0.158018
0.0131056
0.164474
0.0112819
0.171849
0.00943419
0.180314
0.00758321
0.190003
0.00576402
0.200958
0.00403186
0.213019
0.00246849
0.22568
0.00118536
0.23788
0.000317999
0.247642
0.251786
0.0287129
0.122125
-0.0301056
0.0272936
0.125316
0.0258457
0.128656
0.0243655
0.132177
0.0228496
0.135909
0.0212952
0.139892
0.0196998
0.14418
0.0180613
0.148849
0.0163787
0.153996
0.0146523
0.159744
0.0128845
0.166242
0.0110814
0.173652
0.0092552
0.18214
0.00742725
0.191831
0.00563326
0.202752
0.00392896
0.214723
0.00239583
0.227213
0.00114347
0.239132
0.00030303
0.248482
0.252089
0.0282783
0.123501
-0.0296539
0.0268765
0.126718
0.0254465
0.130086
0.0239847
0.133638
0.0224877
0.137406
0.0209528
0.141427
0.0193772
0.145755
0.0177591
0.150467
0.0160974
0.155658
0.0143921
0.16145
0.0126461
0.167988
0.0108654
0.175433
0.00906273
0.183943
0.00725994
0.193634
0.00549334
0.204518
0.00381909
0.216397
0.00231835
0.228714
0.00109879
0.240352
0.0002871
0.249294
0.252376
0.0278195
0.12486
-0.0291789
0.0264347
0.128103
0.0250225
0.131498
0.0235793
0.135082
0.0221016
0.138883
0.0205866
0.142942
0.0190319
0.14731
0.0174353
0.152063
0.0157956
0.157297
0.0141131
0.163132
0.0123905
0.16971
0.0106342
0.177189
0.00885699
0.18572
0.00708148
0.195409
0.0053445
0.206255
0.00370256
0.218039
0.00223638
0.23018
0.00105167
0.241537
0.000270454
0.250075
0.252646
0.0273391
0.126205
-0.0286837
0.0259701
0.129472
0.024575
0.132893
0.02315
0.136507
0.0216917
0.140342
0.0201972
0.144436
0.018664
0.148843
0.0170899
0.153638
0.0154737
0.158914
0.0138154
0.16479
0.0121179
0.171408
0.0103877
0.178919
0.00863813
0.187469
0.00689208
0.197155
0.00518698
0.20796
0.00357962
0.219647
0.00215023
0.231609
0.0010024
0.242685
0.000253253
0.250824
0.2529
0.0268385
0.127537
-0.0281708
0.0254835
0.130827
0.0241042
0.134273
0.0226968
0.137914
0.0212578
0.141781
0.0197843
0.14591
0.0182734
0.150354
0.0167229
0.155188
0.0151313
0.160505
0.0134989
0.166423
0.0118282
0.173079
0.0101262
0.180621
0.00840626
0.189189
0.00669189
0.19887
0.00502098