/*--------------------------------*- C++ -*----------------------------------*\
| =========                 |                                                 |
| \\      /  F ield         | OpenFOAM: The Open Source CFD Toolbox           |
|  \\    /   O peration     | Version:  v1912                                 |
|   \\  /    A nd           | Website:  www.openfoam.com                      |
|    \\/     M anipulation  |                                                 |
\*---------------------------------------------------------------------------*/
FoamFile
{
    version     2.0;
    format      ascii;
    class       volScalarField;
    location    "7";
    object      p;
}
// * * * * * * * * * * * * * * * * * * * * * * * * * * * * * * * * * * * * * //

dimensions      [0 2 -2 0 0 0 0];


internalField   nonuniform List<scalar> 
9600
(
-36.882
-31.4692
-28.1258
-25.2766
-22.7201
-20.4542
-18.4414
-16.6465
-15.0443
-13.6141
-12.3373
-11.1973
-10.1788
-9.26817
-8.45319
-7.72293
-7.06776
-6.47878
-5.94779
-5.47337
-37.3041
-31.8867
-28.5243
-25.6514
-23.0693
-20.7787
-18.743
-16.9273
-15.3067
-13.8605
-12.5697
-11.4176
-10.3886
-9.46878
-8.64571
-7.90824
-7.24659
-6.65157
-6.11476
-5.63601
-37.7318
-32.3044
-28.921
-26.0247
-23.417
-21.1015
-19.0428
-17.2065
-15.5677
-14.1055
-12.801
-11.637
-10.5976
-9.66882
-8.8378
-8.09325
-7.42521
-6.82422
-6.28165
-5.79869
-38.1626
-32.7222
-29.3163
-26.396
-23.7626
-21.4222
-19.3405
-17.4836
-15.8267
-14.3489
-13.0308
-11.8551
-10.8056
-9.86794
-9.02913
-8.27766
-7.60335
-6.99646
-6.44821
-5.96121
-38.5941
-33.1393
-29.7101
-26.765
-24.1057
-21.7402
-19.6356
-17.7582
-16.0835
-14.5902
-13.2588
-12.0715
-11.0121
-10.0658
-9.21942
-8.46119
-7.78076
-7.16809
-6.61426
-6.12343
-39.025
-33.5548
-30.1018
-27.1314
-24.4458
-22.0552
-19.9276
-18.03
-16.3375
-14.8289
-13.4844
-12.2859
-11.2168
-10.2621
-9.40833
-8.64353
-7.95716
-7.33886
-6.77961
-6.2852
-39.454
-33.9679
-30.4906
-27.4943
-24.7823
-22.3665
-20.2161
-18.2982
-16.5883
-15.0646
-13.7073
-12.4978
-11.4193
-10.4564
-9.5955
-8.82437
-8.13226
-7.50851
-6.94402
-6.44633
-39.8802
-34.3777
-30.8759
-27.8534
-25.1146
-22.6735
-20.5004
-18.5625
-16.8353
-15.2969
-13.927
-12.7068
-11.6191
-10.6483
-9.78052
-9.00331
-8.30571
-7.67673
-7.10723
-6.60659
-40.3028
-34.7836
-31.2569
-28.2078
-25.4421
-22.9758
-20.78
-18.8223
-17.0781
-15.5252
-14.1429
-12.9123
-11.8157
-10.8374
-9.96293
-9.17992
-8.47711
-7.84316
-7.26891
-6.76571
-40.7211
-35.1848
-31.633
-28.5569
-25.7642
-23.2727
-21.0543
-19.0771
-17.316
-15.7489
-14.3546
-13.1138
-12.0087
-11.0229
-10.1422
-9.35369
-8.64596
-8.00735
-7.42865
-6.9233
-41.1345
-35.5807
-32.0035
-28.9002
-26.0804
-23.5636
-21.3228
-19.3261
-17.5485
-15.9674
-14.5614
-13.3108
-12.1973
-11.2045
-10.3177
-9.524
-8.81168
-8.16871
-7.58591
-7.07885
-41.5423
-35.9706
-32.3678
-29.237
-26.3899
-23.8479
-21.5848
-19.5689
-17.775
-16.1802
-14.7628
-13.5025
-12.3809
-11.3813
-10.4888
-9.69015
-8.97355
-8.32658
-7.74001
-7.23168
-41.9443
-36.354
-32.7253
-29.5667
-26.6922
-24.1251
-21.8398
-19.8049
-17.9949
-16.3867
-14.9579
-13.6883
-12.5588
-11.5527
-10.6546
-9.85132
-9.13077
-8.48015
-7.89018
-7.38107
-42.34
-36.7304
-33.0753
-29.8887
-26.9866
-24.3945
-22.0872
-20.0335
-18.2077
-16.5861
-15.1463
-13.8674
-12.7303
-11.7177
-10.8142
-10.0065
-9.28226
-8.62832
-8.03538
-7.52624
-42.7293
-37.0991
-33.4173
-30.2024
-27.2728
-24.6556
-22.3266
-20.2542
-18.4127
-16.7781
-15.3273
-14.0393
-12.8945
-11.8754
-10.9666
-10.1545
-9.42663
-8.76958
-8.17407
-7.66557
-43.1117
-37.4597
-33.7508
-30.5075
-27.5502
-24.908
-22.5573
-20.4666
-18.6096
-16.962
-15.5004
-14.2032
-13.0507
-12.0252
-11.1109
-10.2941
-9.56256
-8.90241
-8.3043
-7.79566
-43.4887
-37.8121
-34.0751
-30.8031
-27.8181
-25.1511
-22.779
-20.6701
-18.7979
-17.1375
-15.6651
-14.3588
-13.1984
-12.1661
-11.2461
-10.4247
-9.68943
-9.02622
-8.42484
-7.91409
-43.8647
-38.1574
-34.3893
-31.0882
-28.0757
-25.3842
-22.9911
-20.8645
-18.9773
-17.3043
-15.8211
-14.5054
-13.3369
-12.2974
-11.3712
-10.5446
-9.80547
-9.1389
-8.53402
-8.02581
-44.2419
-38.4955
-34.6919
-31.3615
-28.3224
-25.6072
-23.1937
-21.0498
-19.148
-17.4626
-15.9686
-14.6433
-13.4661
-12.4184
-11.4845
-10.6508
-9.90465
-9.23087
-8.62311
-8.1322
-44.5986
-38.8182
-34.9821
-31.6238
-28.5594
-25.8214
-23.388
-21.2273
-19.3113
-17.6137
-16.1091
-14.7741
-13.5877
-12.5311
-11.5878
-10.7436
-9.98419
-9.29562
-8.68172
-8.19199
-48.2071
-48.1826
-48.1298
-48.0633
-47.9819
-47.8828
-47.7655
-47.6306
-47.4786
-47.3101
-47.1254
-46.9254
-46.7106
-46.4818
-46.2399
-45.9859
-45.721
-45.4471
-45.1673
-44.8851
-42.1109
-42.109
-42.0828
-42.0384
-41.9761
-41.8948
-41.795
-41.6774
-41.5427
-41.3914
-41.2241
-41.0414
-40.8442
-40.6329
-40.4085
-40.1716
-39.923
-39.6635
-39.3937
-39.1125
-37.8807
-37.8957
-37.89
-37.8641
-37.819
-37.7554
-37.674
-37.5755
-37.4604
-37.3293
-37.1828
-37.0215
-36.8459
-36.6569
-36.4548
-36.2403
-36.0139
-35.7757
-35.5256
-35.2619
-34.1278
-34.1545
-34.1623
-34.1511
-34.1214
-34.0739
-34.0097
-33.9291
-33.8328
-33.7212
-33.5948
-33.4544
-33.3003
-33.1332
-32.9535
-32.7617
-32.558
-32.3427
-32.1155
-31.876
-30.7324
-30.7648
-30.7803
-30.7786
-30.7596
-30.7241
-30.6727
-30.6061
-30.5247
-30.429
-30.3195
-30.1966
-30.0611
-29.9132
-29.7535
-29.5823
-29.4
-29.2066
-29.0022
-28.7867
-27.735
-27.7695
-27.7889
-27.7925
-27.7802
-27.7524
-27.7098
-27.6531
-27.5826
-27.4988
-27.4021
-27.2932
-27.1724
-27.0402
-26.8971
-26.7434
-26.5795
-26.4053
-26.2211
-26.0267
-25.1076
-25.1419
-25.1622
-25.168
-25.1589
-25.1355
-25.0984
-25.0482
-24.9851
-24.9097
-24.8224
-24.7238
-24.6142
-24.4943
-24.3643
-24.2248
-24.0759
-23.9178
-23.7507
-23.5743
-22.8067
-22.839
-22.8582
-22.864
-22.8559
-22.8345
-22.8003
-22.7539
-22.6955
-22.6257
-22.5449
-22.4536
-22.3524
-22.2416
-22.1218
-21.9934
-21.8566
-21.7117
-21.5586
-21.3975
-20.7915
-20.8207
-20.8377
-20.842
-20.8334
-20.8123
-20.7793
-20.7348
-20.6792
-20.613
-20.5365
-20.4504
-20.3551
-20.2511
-20.139
-20.0192
-19.892
-19.7577
-19.6163
-19.4679
-19.0238
-19.0495
-19.0637
-19.0658
-19.0558
-19.0341
-19.0012
-18.9574
-18.9032
-18.8391
-18.7654
-18.6828
-18.5917
-18.4927
-18.3863
-18.2732
-18.1536
-18.028
-17.8963
-17.7585
-17.4692
-17.4914
-17.5024
-17.5021
-17.4903
-17.4674
-17.4339
-17.3901
-17.3365
-17.2735
-17.2016
-17.1213
-17.0331
-16.9378
-16.8358
-16.7278
-16.6143
-16.4958
-16.3723
-16.2437
-16.0976
-16.1162
-16.1243
-16.1214
-16.1076
-16.0833
-16.0489
-16.0048
-15.9513
-15.8888
-15.8179
-15.7392
-15.6531
-15.5603
-15.4616
-15.3576
-15.249
-15.1364
-15.02
-14.8996
-14.8831
-14.8984
-14.9036
-14.8983
-14.8826
-14.8569
-14.8215
-14.7767
-14.723
-14.6608
-14.5905
-14.5127
-14.428
-14.3372
-14.2409
-14.14
-14.0354
-13.9277
-13.8174
-13.7045
-13.8036
-13.816
-13.8186
-13.8111
-13.7936
-13.7665
-13.73
-13.6846
-13.6306
-13.5684
-13.4984
-13.4213
-13.3376
-13.2481
-13.1536
-13.055
-12.9535
-12.8499
-12.7453
-12.6393
-12.8407
-12.8505
-12.8507
-12.8412
-12.8221
-12.7937
-12.7563
-12.7103
-12.6559
-12.5937
-12.5239
-12.4472
-12.3642
-12.2755
-12.1822
-12.0853
-11.9861
-11.8859
-11.7863
-11.687
-11.9788
-11.9862
-11.9843
-11.973
-11.9525
-11.9229
-11.8847
-11.8381
-11.7834
-11.721
-11.6514
-11.5749
-11.4923
-11.4042
-11.3116
-11.2157
-11.118
-11.0203
-10.9249
-10.8323
-11.2047
-11.2099
-11.2062
-11.1933
-11.1714
-11.1409
-11.1019
-11.0547
-10.9997
-10.9372
-10.8675
-10.7911
-10.7086
-10.6207
-10.5282
-10.4325
-10.3354
-10.239
-10.1468
-10.0597
-10.5069
-10.5104
-10.5052
-10.4911
-10.4682
-10.4369
-10.3974
-10.3499
-10.2946
-10.232
-10.1623
-10.086
-10.0035
-9.91546
-9.82275
-9.72661
-9.62902
-9.53274
-9.44267
-9.35903
-9.87506
-9.87759
-9.8716
-9.85699
-9.83389
-9.80257
-9.76326
-9.71617
-9.66155
-9.59967
-9.53085
-9.45543
-9.37382
-9.28656
-9.19432
-9.09826
-9.00022
-8.90383
-8.81639
-8.73854
-9.30325
-9.30332
-9.29526
-9.27905
-9.25483
-9.22283
-9.18327
-9.13633
-9.08223
-9.0212
-8.9535
-8.87942
-8.79928
-8.71345
-8.6224
-8.52694
-8.42816
-8.3298
-8.23917
-8.17503
-43.7672
-44.1613
-44.5277
-44.8882
-45.2396
-45.5759
-45.8946
-46.1948
-46.4758
-46.7366
-46.9764
-47.1947
-47.3912
-47.5657
-47.7183
-47.8491
-47.9587
-48.0479
-48.1184
-48.172
-37.5941
-37.9957
-38.3771
-38.7452
-39.0988
-39.4356
-39.7544
-40.0548
-40.3364
-40.5986
-40.8405
-41.0614
-41.2615
-41.4406
-41.5987
-41.7357
-41.8518
-41.9474
-42.0234
-42.0782
-33.3785
-33.7724
-34.1504
-34.5128
-34.8595
-35.1897
-35.5029
-35.7986
-36.0762
-36.3368
-36.5784
-36.7997
-37.0015
-37.1836
-37.3458
-37.4877
-37.6093
-37.7102
-37.7898
-37.8472
-29.7138
-30.0906
-30.4544
-30.8037
-31.1379
-31.4568
-31.7602
-32.0476
-32.3185
-32.5712
-32.8064
-33.0225
-33.221
-33.4016
-33.5633
-33.706
-33.8296
-33.9337
-34.0182
-34.083
-26.4832
-26.8394
-27.1846
-27.5169
-27.835
-28.1388
-28.4279
-28.7019
-28.96
-29.2016
-29.4266
-29.6366
-29.8292
-30.0045
-30.1623
-30.3022
-30.4243
-30.5284
-30.6145
-30.6827
-23.6976
-24.0328
-24.3583
-24.6719
-24.9725
-25.2595
-25.5329
-25.792
-26.0364
-26.2659
-26.4802
-26.6793
-26.8622
-27.0284
-27.1793
-27.3138
-27.4315
-27.5325
-27.6168
-27.6846
-21.3022
-21.6173
-21.9233
-22.2184
-22.5013
-22.7715
-23.0288
-23.2727
-23.5029
-23.719
-23.9208
-24.108
-24.2804
-24.4377
-24.579
-24.7058
-24.8175
-24.9135
-24.9938
-25.0587
-19.2352
-19.5316
-19.8195
-20.0971
-20.3632
-20.6172
-20.859
-21.0881
-21.3042
-21.5069
-21.696
-21.8713
-22.0326
-22.1798
-22.3125
-22.4306
-22.5349
-22.625
-22.7002
-22.7609
-17.4447
-17.7242
-17.9955
-18.257
-18.5076
-18.7467
-18.974
-19.1891
-19.3918
-19.5817
-19.7587
-19.9226
-20.0732
-20.2105
-20.3342
-20.4443
-20.5403
-20.624
-20.6936
-20.7496
-15.8865
-16.1508
-16.4073
-16.6544
-16.891
-17.1164
-17.3304
-17.5327
-17.7229
-17.901
-18.0667
-18.2199
-18.3605
-18.4884
-18.6035
-18.7058
-18.7954
-18.8712
-18.935
-18.9861
-14.5237
-14.7744
-15.0179
-15.2522
-15.4762
-15.6893
-15.8912
-16.0818
-16.2608
-16.428
-16.5833
-16.7266
-16.858
-16.9771
-17.0842
-17.1789
-17.2614
-17.3315
-17.3895
-17.4357
-13.3257
-13.5646
-13.7966
-14.0197
-14.2324
-14.4344
-14.6254
-14.8054
-14.974
-15.1313
-15.2772
-15.4116
-15.5344
-15.6457
-15.7452
-15.8331
-15.9093
-15.9738
-16.0265
-16.068
-12.2675
-12.4959
-12.7182
-12.9314
-13.1341
-13.326
-13.5072
-13.6774
-13.8367
-13.985
-14.1222
-14.2485
-14.3636
-14.4677
-14.5606
-14.6422
-14.7127
-14.772
-14.82
-14.8572
-11.3284
-11.5478
-11.7619
-11.9665
-12.1602
-12.343
-12.5151
-12.6764
-12.8271
-12.9672
-13.0967
-13.2155
-13.3237
-13.4213
-13.5081
-13.5842
-13.6495
-13.7041
-13.7479
-13.7811
-10.4914
-10.7033
-10.9108
-11.1078
-11.2932
-11.4676
-11.6314
-11.7846
-11.9274
-12.0599
-12.1823
-12.2944
-12.3963
-12.488
-12.5694
-12.6404
-12.7011
-12.7514
-12.7915
-12.8212
-9.74215
-9.94898
-10.1516
-10.3417
-10.5193
-10.6858
-10.8417
-10.9873
-11.1228
-11.2484
-11.3642
-11.4702
-11.5665
-11.6528
-11.7292
-11.7957
-11.8522
-11.8987
-11.9353
-11.962
-9.06471
-9.27183
-9.47248
-9.65594
-9.82591
-9.98495
-10.1335
-10.2719
-10.4006
-10.5198
-10.6297
-10.7302
-10.8212
-10.9027
-10.9747
-11.0371
-11.0898
-11.1329
-11.1664
-11.1904
-8.43941
-8.65231
-8.85585
-9.03401
-9.19693
-9.34914
-9.49105
-9.62313
-9.74593
-9.85972
-9.96453
-10.0603
-10.147
-10.2246
-10.2929
-10.3519
-10.4015
-10.4419
-10.4729
-10.4947
-7.86548
-8.08044
-8.28909
-8.46509
-8.62241
-8.76833
-8.90429
-9.03087
-9.14857
-9.25765
-9.35817
-9.45003
-9.53313
-9.60738
-9.6727
-9.72903
-9.77632
-9.81454
-9.84371
-9.86392
-7.43507
-7.64673
-7.83731
-8.00679
-8.15622
-8.29132
-8.41705
-8.53447
-8.64356
-8.7445
-8.83735
-8.92202
-8.99838
-9.06633
-9.12581
-9.17677
-9.21916
-9.25296
-9.27816
-9.29481
-3.38872
-3.75668
-4.17142
-4.63207
-5.14591
-5.72116
-6.36655
-7.09259
-7.9122
-8.84141
-9.90025
-11.114
-12.5149
-14.1433
-16.0512
-18.3069
-20.9816
-24.0956
-27.8594
-33.6738
-3.58672
-3.96228
-4.38217
-4.84894
-5.36992
-5.9531
-6.60737
-7.3434
-8.17433
-9.1164
-10.1899
-11.4204
-12.8404
-14.4906
-16.4232
-18.7064
-21.4108
-24.5547
-28.3432
-34.169
-3.78715
-4.17042
-4.5956
-5.06871
-5.59706
-6.18843
-6.8518
-7.59807
-8.44058
-9.39579
-10.4842
-11.7318
-13.1712
-14.8436
-16.8011
-19.1118
-21.8455
-25.0185
-28.8304
-34.6636
-3.98957
-4.38059
-4.81118
-5.29084
-5.82676
-6.42651
-7.09919
-7.85591
-8.7102
-9.67876
-10.7824
-12.0472
-13.5063
-15.2009
-17.1835
-19.5219
-22.285
-25.4871
-29.3236
-35.169
-4.1936
-4.5924
-5.02851
-5.5149
-6.0586
-6.6669
-7.34907
-8.11641
-8.98266
-9.96474
-11.0837
-12.366
-13.8448
-15.5619
-17.5697
-19.9358
-22.7284
-25.96
-29.8217
-35.683
-4.39895
-4.80551
-5.24725
-5.74058
-6.29224
-6.90928
-7.60109
-8.3792
-9.25757
-10.2533
-11.3878
-12.6876
-14.1864
-15.9261
-17.9592
-20.3531
-23.1752
-26.4363
-30.3233
-36.2017
-4.60533
-5.01963
-5.4671
-5.96755
-6.52734
-7.15326
-7.85487
-8.64391
-9.53452
-10.5441
-11.6941
-13.0117
-14.5306
-16.2929
-18.3514
-20.7731
-23.6248
-26.9154
-30.8273
-36.7233
-4.81254
-5.2345
-5.68776
-6.19549
-6.76357
-7.39851
-8.11002
-8.91009
-9.81306
-10.8365
-12.0023
-13.3377
-14.8768
-16.6619
-18.7457
-21.1953
-24.0765
-27.3963
-31.3327
-37.2467
-5.02041
-5.44992
-5.90899
-6.42415
-7.00063
-7.64467
-8.36617
-9.17733
-10.0927
-11.1302
-12.3117
-13.665
-15.2243
-17.0322
-19.1415
-21.6188
-24.5293
-27.8784
-31.8387
-37.7707
-5.22889
-5.66576
-6.13063
-6.65329
-7.23824
-7.89142
-8.62293
-9.44521
-10.373
-11.4245
-12.6218
-13.993
-15.5725
-17.4032
-19.5378
-22.0429
-24.9826
-28.3605
-32.3443
-38.2941
-5.43801
-5.88198
-6.35254
-6.88273
-7.47615
-8.13845
-8.87995
-9.71332
-10.6536
-11.7189
-12.9321
-14.321
-15.9208
-17.7742
-19.9341
-22.4667
-25.4353
-28.8419
-32.8484
-38.8158
-5.64793
-6.09859
-6.57463
-7.11229
-7.71409
-8.38541
-9.1368
-9.98118
-10.9337
-12.013
-13.2419
-14.6486
-16.2684
-18.1444
-20.3295
-22.8894
-25.8866
-29.3214
-33.35
-39.3347
-5.85889
-6.31566
-6.79682
-7.34174
-7.95175
-8.63191
-9.39303
-10.2483
-11.213
-12.3061
-13.5505
-14.9749
-16.6147
-18.5132
-20.7232
-23.3101
-26.3356
-29.7983
-33.8482
-39.8497
-6.07121
-6.53324
-7.01895
-7.57079
-8.1887
-8.87743
-9.64807
-10.514
-11.4908
-12.5975
-13.8573
-15.2993
-16.9589
-18.8796
-21.1143
-23.7278
-26.7812
-30.2714
-34.3418
-40.3599
-6.28515
-6.75118
-7.24059
-7.79885
-8.42429
-9.12129
-9.9012
-10.7776
-11.7663
-12.8864
-14.1616
-15.6208
-17.3001
-19.2428
-21.5019
-24.1418
-27.2226
-30.7399
-34.8301
-40.8643
-6.50068
-6.96886
-7.46087
-8.02497
-8.65756
-9.36258
-10.1516
-11.0383
-12.0387
-13.1721
-14.4624
-15.9388
-17.6374
-19.602
-21.8851
-24.5508
-27.6586
-31.2027
-35.3123
-41.3624
-6.71673
-7.18447
-7.67792
-8.24749
-8.88713
-9.60009
-10.3981
-11.2951
-12.3071
-13.4538
-14.759
-16.2524
-17.9701
-19.9561
-22.2628
-24.9539
-28.0882
-31.6586
-35.7877
-41.8538
-6.9303
-7.39412
-7.88854
-8.46422
-9.11144
-9.83263
-10.6398
-11.5471
-12.5708
-13.7305
-15.0505
-16.5606
-18.2972
-20.3042
-22.6341
-25.3501
-28.51
-32.1062
-36.2555
-42.3388
-7.13208
-7.58932
-8.08739
-8.67223
-9.3286
-10.0588
-10.8755
-11.7934
-12.8288
-14.0015
-15.3361
-16.8626
-18.6177
-20.6453
-22.9978
-25.7379
-28.9226
-32.5437
-36.7152
-42.819
-7.3003
-7.75329
-8.27112
-8.87234
-9.53926
-10.2787
-11.1053
-12.0338
-13.0807
-14.2663
-15.6152
-17.1579
-18.931
-20.9786
-23.3531
-26.1165
-29.3247
-32.9686
-37.1631
-43.2963
-0.478
-0.717577
-1.04545
-1.41804
-1.83083
-2.29158
-2.80827
-3.38888
-4.04309
-4.78309
-5.62433
-6.58658
-7.69553
-8.98481
-10.4999
-12.3052
-14.4773
-17.061
-20.3094
-25.7565
-0.573316
-0.821654
-1.158
-1.53054
-1.9424
-2.40391
-2.92246
-3.50569
-4.16337
-4.90784
-5.75471
-6.72396
-7.84157
-9.14149
-10.6695
-12.4905
-14.6806
-17.2838
-20.5505
-25.999
-0.657607
-0.921867
-1.26471
-1.64042
-2.05536
-2.52029
-3.04244
-3.62963
-4.29188
-5.04178
-5.89516
-6.87228
-7.9994
-9.31083
-10.8527
-12.6899
-14.8985
-17.5207
-20.805
-26.2495
-0.754507
-1.02531
-1.37217
-1.75226
-2.17176
-2.64124
-3.16804
-3.7602
-4.42797
-5.18416
-6.04487
-7.03063
-8.16802
-9.49171
-11.0481
-12.9024
-15.1303
-17.7727
-21.0771
-26.5268
-0.859306
-1.13389
-1.48459
-1.86921
-2.29348
-2.76789
-3.29989
-3.89767
-4.57166
-5.33487
-6.20363
-7.19876
-8.34718
-9.68387
-11.2556
-13.1279
-15.376
-18.0399
-21.3666
-26.8279
-0.968991
-1.24818
-1.60294
-1.99208
-2.42124
-2.90085
-3.43846
-4.04237
-4.72315
-5.49399
-6.37145
-7.37665
-8.5368
-9.88728
-11.4752
-13.3663
-15.6357
-18.3222
-21.6722
-27.1482
-1.08499
-1.36919
-1.72782
-2.12141
-2.55554
-3.04058
-3.58411
-4.19454
-4.88257
-5.66157
-6.54833
-7.56423
-8.73683
-10.1018
-11.7068
-13.6175
-15.9091
-18.6192
-21.9932
-27.4857
-1.20853
-1.49757
-1.85984
-2.25775
-2.69689
-3.18747
-3.73713
-4.35438
-5.05004
-5.83766
-6.73424
-7.76144
-8.94714
-10.3274
-11.9501
-13.8813
-16.196
-18.9306
-22.3294
-27.8396
-1.33967
-1.6335
-1.99927
-2.40145
-2.84559
-3.34179
-3.89774
-4.52206
-5.22567
-6.02231
-6.92918
-7.96821
-9.16761
-10.5638
-12.205
-14.1575
-16.4961
-19.2562
-22.6803
-28.2092
-1.47817
-1.7769
-2.14615
-2.55256
-3.00173
-3.50363
-4.06603
-4.69762
-5.40948
-6.21548
-7.13307
-8.18444
-9.39811
-10.8109
-12.4712
-14.4458
-16.8092
-19.5954
-23.0455
-28.5939
-1.62379
-1.92761
-2.30036
-2.71101
-3.16527
-3.67299
-4.24196
-4.88103
-5.6014
-6.41711
-7.34582
-8.40999
-9.63847
-11.0684
-12.7486
-14.746
-17.1348
-19.948
-23.4246
-28.9928
-1.77625
-2.08538
-2.46169
-2.87664
-3.33608
-3.84971
-4.42543
-5.07218
-5.80131
-6.62705
-7.56726
-8.64468
-9.88847
-11.3361
-13.0368
-15.0577
-17.4726
-20.3134
-23.817
-29.4055
-1.93521
-2.24989
-2.62983
-3.04917
-3.51391
-4.03361
-4.61623
-5.27088
-6.00903
-6.8451
-7.79718
-8.88827
-10.1479
-11.6138
-13.3356
-15.3805
-17.8222
-20.6913
-24.2222
-29.8313
-2.10026
-2.42073
-2.80443
-3.22829
-3.69847
-4.2244
-4.81412
-5.47687
-6.22431
-7.07101
-8.0353
-9.14047
-10.4163
-11.9011
-13.6445
-15.7141
-18.1832
-21.0812
-24.6397
-30.2696
-2.27096
-2.59748
-2.98509
-3.41362
-3.88941
-4.42175
-5.01876
-5.68984
-6.44682
-7.30446
-8.28132
-9.40097
-10.6935
-12.1976
-13.9633
-16.0581
-18.5552
-21.4825
-25.0692
-30.7201
-2.44686
-2.7797
-3.17138
-3.60476
-4.08635
-4.62529
-5.22981
-5.90946
-6.67624
-7.54511
-8.53487
-9.66938
-10.9791
-12.5029
-14.2913
-16.4119
-18.9375
-21.8947
-25.5101
-31.1823
-2.62752
-2.96692
-3.36286
-3.80127
-4.28887
-4.83463
-5.44687
-6.13532
-6.91217
-7.79256
-8.79555
-9.94528
-11.2725
-12.8166
-14.6281
-16.775
-19.3297
-22.3174
-25.962
-31.656
-2.81248
-3.1587
-3.55906
-4.00271
-4.49654
-5.04933
-5.66952
-6.36703
-7.15419
-8.0464
-9.06294
-10.2282
-11.5734
-13.1381
-14.9733
-17.1469
-19.7311
-22.7498
-26.4243
-32.1413
-3.00128
-3.35454
-3.75953
-4.20863
-4.70891
-5.26896
-5.89733
-6.60412
-7.40187
-8.30616
-9.33653
-10.5177
-11.8812
-13.4668
-15.326
-17.5268
-20.141
-23.1911
-26.8964
-32.639
-3.19353
-3.55406
-3.96384
-4.41862
-4.92557
-5.49312
-6.1299
-6.84621
-7.65479
-8.57144
-9.61594
-10.8133
-12.1954
-13.8023
-15.6858
-17.9141
-20.5585
-23.6402
-27.3759
-33.1504
-0.316297
-0.196118
-0.116774
-0.0512297
0.00120994
0.0425623
0.0737493
0.0953932
0.108042
0.112902
0.11066
0.0986885
0.0762428
0.0481804
0.0125369
-0.0306511
-0.0807013
-0.137211
-0.199887
-0.268505
-0.616811
-0.513068
-0.430741
-0.362058
-0.306948
-0.263301
-0.230211
-0.206998
-0.193126
-0.187682
-0.189986
-0.200974
-0.2213
-0.249661
-0.285737
-0.329147
-0.379582
-0.436707
-0.500207
-0.569843
-0.935029
-0.837499
-0.755751
-0.686827
-0.630884
-0.586436
-0.552714
-0.529063
-0.514952
-0.509724
-0.512981
-0.525103
-0.546152
-0.575496
-0.6129
-0.657769
-0.709833
-0.76878
-0.834297
-0.906153
-1.30736
-1.2104
-1.12763
-1.05748
-0.999853
-0.953785
-0.918656
-0.893873
-0.878929
-0.873299
-0.876702
-0.889249
-0.910768
-0.940757
-0.978986
-1.02499
-1.07847
-1.1391
-1.20653
-1.28055
-1.72354
-1.62711
-1.54324
-1.47164
-1.41228
-1.36452
-1.32789
-1.30188
-1.28604
-1.27991
-1.28323
-1.29595
-1.31782
-1.34845
-1.3876
-1.43474
-1.48969
-1.55205
-1.6215
-1.6978
-2.18561
-2.08936
-2.00458
-1.93166
-1.87072
-1.82142
-1.78341
-1.75627
-1.73961
-1.73304
-1.73631
-1.74924
-1.77157
-1.80296
-1.84303
-1.89166
-1.94826
-2.01257
-2.08424
-2.16307
-2.70176
-2.60479
-2.51886
-2.44451
-2.38197
-2.33112
-2.29171
-2.26343
-2.24595
-2.23892
-2.2421
-2.25525
-2.2781
-2.31034
-2.35161
-2.40173
-2.46007
-2.5265
-2.60061
-2.68221
-3.2807
-3.18216
-3.09455
-3.01842
-2.95408
-2.9015
-2.86056
-2.83101
-2.81258
-2.80498
-2.80797
-2.82128
-2.84464
-2.87773
-2.92021
-2.97171
-3.03213
-3.10086
-3.17759
-3.26217
-3.93227
-3.8313
-3.74136
-3.66296
-3.59642
-3.5418
-3.49905
-3.468
-3.44842
-3.44006
-3.44268
-3.45602
-3.4798
-3.51371
-3.55742
-3.61056
-3.67294
-3.74407
-3.82355
-3.9113
-4.66858
-4.56425
-4.47119
-4.38984
-4.32055
-4.26342
-4.21845
-4.18551
-4.16445
-4.15503
-4.15702
-4.17017
-4.1942
-4.2288
-4.27365
-4.32839
-4.39269
-4.46645
-4.5487
-4.63975
-5.50496
-5.39616
-5.299
-5.21384
-5.14103
-5.08071
-5.03291
-4.99755
-4.97451
-4.96358
-4.96454
-4.97716
-5.00115
-5.0362
-5.08201
-5.13824
-5.20445
-5.28019
-5.36567
-5.46015
-6.461
-6.34641
-6.24392
-6.15384
-6.07651
-6.01208
-5.96061
-5.92207
-5.89634
-5.88327
-5.88263
-5.89419
-5.91769
-5.9528
-5.99923
-6.05664
-6.12462
-6.20266
-6.29059
-6.3886
-7.56211
-7.44014
-7.33082
-7.2344
-7.15123
-7.08148
-7.02523
-6.98247
-6.9531
-6.93699
-6.93394
-6.94371
-6.96603
-7.0006
-7.04711
-7.10522
-7.17453
-7.25455
-7.34488
-7.44578
-8.8416
-8.71031
-8.59227
-8.48774
-8.39707
-8.32044
-8.25795
-8.2096
-8.17532
-8.15497
-8.14839
-8.15533
-8.17552
-8.20867
-8.25445
-8.31252
-8.38248
-8.46386
-8.55623
-8.65954
-10.3445
-10.2015
-10.0725
-9.95762
-9.85734
-9.77184
-9.70124
-9.64553
-9.60465
-9.5785
-9.56688
-9.56959
-9.58633
-9.61683
-9.66074
-9.71771
-9.78733
-9.86908
-9.96258
-10.0678
-12.135
-11.9774
-11.8344
-11.7065
-11.5941
-11.4973
-11.4162
-11.3509
-11.3013
-11.2673
-11.2488
-11.2455
-11.2572
-11.2834
-11.324
-11.3784
-11.4464
-11.5273
-11.6206
-11.7265
-14.2886
-14.1132
-13.9533
-13.8094
-13.6821
-13.5714
-13.4775
-13.4004
-13.3399
-13.296
-13.2687
-13.2577
-13.2624
-13.2827
-13.3182
-13.3685
-13.4334
-13.512
-13.6039
-13.7089
-16.85
-16.654
-16.4747
-16.3127
-16.1684
-16.042
-15.9335
-15.843
-15.7702
-15.715
-15.6774
-15.6569
-15.6526
-15.6645
-15.6925
-15.7365
-15.7959
-15.8701
-15.9584
-16.0599
-20.0772
-19.8568
-19.6528
-19.468
-19.3026
-19.1565
-19.0295
-18.9212
-18.8316
-18.7604
-18.7071
-18.6719
-18.6555
-18.6573
-18.6766
-18.7128
-18.7658
-18.8357
-18.9223
-19.0222
-25.4771
-25.2235
-24.9973
-24.7953
-24.6151
-24.4556
-24.3161
-24.1964
-24.096
-24.0148
-23.9524
-23.9086
-23.8836
-23.8774
-23.8898
-23.9206
-23.9702
-24.0408
-24.1337
-24.2373
-0.342839
-0.422426
-0.507091
-0.596548
-0.690522
-0.788726
-0.890862
-0.996629
-1.10571
-1.21778
-1.33247
-1.44936
-1.56787
-1.68716
-1.80608
-1.92288
-2.03404
-2.13173
-2.19979
-2.24867
-0.645417
-0.726401
-0.812611
-0.903737
-0.999497
-1.09959
-1.20371
-1.31154
-1.42275
-1.53698
-1.65385
-1.77289
-1.89351
-2.01486
-2.1357
-2.25471
-2.37052
-2.4764
-2.55611
-2.63766
-0.984167
-1.06777
-1.15679
-1.2509
-1.3498
-1.4532
-1.56076
-1.67216
-1.78707
-1.90509
-2.02583
-2.14881
-2.27343
-2.3989
-2.52413
-2.64813
-2.77016
-2.8862
-2.98854
-3.09844
-1.36098
-1.44722
-1.53909
-1.63624
-1.73838
-1.84518
-1.95632
-2.07146
-2.19023
-2.31225
-2.4371
-2.56428
-2.69321
-2.82317
-2.95324
-3.08266
-3.21076
-3.33515
-3.45428
-3.58368
-1.78079
-1.86982
-1.96471
-2.0651
-2.17068
-2.28113
-2.3961
-2.51524
-2.63817
-2.76451
-2.89381
-3.02559
-3.1593
-3.29426
-3.42977
-3.56525
-3.70011
-3.83306
-3.96514
-4.10718
-2.24889
-2.34099
-2.43921
-2.54317
-2.65256
-2.76703
-2.88623
-3.00981
-3.13737
-3.26853
-3.40283
-3.53982
-3.67896
-3.81967
-3.96141
-4.10375
-4.24627
-4.38844
-4.53199
-4.68381
-2.77112
-2.8666
-2.96847
-3.07636
-3.18993
-3.30884
-3.43273
-3.56123
-3.69395
-3.83049
-3.97042
-4.11328
-4.2586
-4.40588
-4.55467
-4.70467
-4.85564
-5.00751
-5.16192
-5.32303
-3.35444
-3.45357
-3.55942
-3.67159
-3.78974
-3.91353
-4.04257
-4.17651
-4.31496
-4.4575
-4.60372
-4.7532
-4.90548
-5.06015
-5.21685
-5.37535
-5.53553
-5.69753
-5.86268
-6.03345
-4.00715
-4.11022
-4.22036
-4.33717
-4.46031
-4.58941
-4.72411
-4.86404
-5.00879
-5.15799
-5.31122
-5.46807
-5.62814
-5.79107
-5.95655
-6.12441
-6.29458
-6.46726
-6.6434
-6.82456
-4.73939
-4.84664
-4.96135
-5.08314
-5.21164
-5.3465
-5.48734
-5.63379
-5.78546
-5.94197
-6.10292
-6.26793
-6.43662
-6.60866
-6.78381
-6.96189
-7.14287
-7.3269
-7.51461
-7.70705
-5.56372
-5.67531
-5.79483
-5.92185
-6.05604
-6.19704
-6.34446
-6.49794
-6.65709
-6.82154
-6.9909
-7.16481
-7.34291
-7.52491
-7.71057
-7.89974
-8.09236
-8.28849
-8.48852
-8.69325
-6.49617
-6.6121
-6.73648
-6.8689
-7.009
-7.15641
-7.31076
-7.47168
-7.63879
-7.81172
-7.99009
-8.17356
-8.36179
-8.5545
-8.75147
-8.95253
-9.15759
-9.3666
-9.57978
-9.79782
-7.55752
-7.67749
-7.80663
-7.94441
-8.09048
-8.24441
-8.40586
-8.57445
-8.74983
-8.93162
-9.11945
-9.31299
-9.51192
-9.71596
-9.92489
-10.1385
-10.3568
-10.5794
-10.8065
-11.0388
-8.77358
-8.89821
-9.03208
-9.17505
-9.32677
-9.48698
-9.65538
-9.83161
-10.0153
-10.2061
-10.4036
-10.6075
-10.8175
-11.0332
-11.2546
-11.4813
-11.7132
-11.95
-12.1917
-12.439
-10.1845
-10.3111
-10.4488
-10.5972
-10.7536
-10.9194
-11.0943
-11.2779
-11.4697
-11.6694
-11.8765
-12.0907
-12.3117
-12.5392
-12.7731
-13.0131
-13.2589
-13.5102
-13.7668
-14.0295
-11.8447
-11.9732
-12.1124
-12.2617
-12.4233
-12.5951
-12.7762
-12.9666
-13.166
-13.3739
-13.5899
-13.8136
-14.045
-14.2838
-14.5297
-14.7826
-15.0422
-15.3078
-15.5793
-15.8572
-13.8266
-13.9556
-14.0963
-14.2483
-14.4122
-14.5875
-14.7733
-14.9687
-15.1738
-15.3881
-15.6105
-15.8419
-16.0821
-16.3308
-16.5877
-16.8524
-17.1247
-17.404
-17.6895
-17.9816
-16.1749
-16.3011
-16.4395
-16.5901
-16.7525
-16.9263
-17.1121
-17.3095
-17.5178
-17.7368
-17.9669
-18.2069
-18.456
-18.7142
-18.9811
-19.2567
-19.5407
-19.8327
-20.1318
-20.4371
-19.1302
-19.2502
-19.3837
-19.5312
-19.6922
-19.8659
-20.0519
-20.2498
-20.4591
-20.6796
-20.9113
-21.1538
-21.4067
-21.6698
-21.9428
-22.2253
-22.5176
-22.8207
-23.1345
-23.4538
-24.3244
-24.4304
-24.5559
-24.6983
-24.8559
-25.0272
-25.2116
-25.4086
-25.6176
-25.8383
-26.0707
-26.3144
-26.5694
-26.8356
-27.1131
-27.402
-27.7035
-28.022
-28.3601
-28.6989
-28.9929
-23.7699
-20.7479
-18.2807
-16.1418
-14.2985
-12.6921
-11.2765
-10.021
-8.90293
-7.90451
-7.01112
-6.21056
-5.49236
-4.84748
-4.26782
-3.7449
-3.27066
-2.84999
-2.50085
-29.3025
-24.0904
-21.0634
-18.5842
-16.4307
-14.5716
-12.9492
-11.518
-10.2478
-9.1162
-8.10554
-7.20131
-6.39137
-5.66536
-5.01435
-4.43036
-3.90553
-3.43512
-3.02811
-2.6833
-29.6292
-24.4183
-21.3851
-18.8934
-16.725
-14.8496
-13.2107
-11.7635
-10.4783
-9.33297
-8.30989
-7.39463
-6.57509
-5.84089
-5.18308
-4.59361
-4.06482
-3.59221
-3.18185
-2.82381
-29.9695
-24.7553
-21.7138
-19.2087
-17.0246
-15.1322
-13.4764
-12.0128
-10.7123
-9.55283
-8.51698
-7.59032
-6.76066
-6.01755
-5.35186
-4.75539
-4.22036
-3.74176
-3.32324
-2.95202
-30.3207
-25.1009
-22.0494
-19.53
-17.3294
-15.4195
-13.7461
-12.2657
-10.9494
-9.77551
-8.72654
-7.78807
-6.94784
-6.19523
-5.52094
-4.91655
-4.37411
-3.88817
-3.46071
-3.07849
-30.6813
-25.4548
-22.392
-19.8573
-17.6392
-15.7112
-14.0197
-12.522
-11.1896
-10.0008
-8.9384
-7.98778
-7.13659
-6.37407
-5.69074
-5.07799
-4.52775
-4.03427
-3.59836
-3.20696
-31.0505
-25.8163
-22.7412
-20.1903
-17.9541
-16.0071
-14.297
-12.7816
-11.4326
-10.2287
-9.15251
-8.18948
-7.3271
-6.55445
-5.86189
-5.24067
-4.68265
-4.18188
-3.73818
-3.3389
-31.4277
-26.1852
-23.0968
-20.5287
-18.2736
-16.3071
-14.5779
-13.0443
-11.6784
-10.4591
-9.36888
-8.39325
-7.51953
-6.73667
-6.03486
-5.40523
-4.83961
-4.33187
-3.88095
-3.47468
-31.8123
-26.5609
-23.4584
-20.8725
-18.5977
-16.6111
-14.8622
-13.31
-11.9269
-10.6918
-9.5875
-8.59915
-7.71405
-6.92097
-6.20997
-5.57206
-4.99904
-4.48461
-4.02688
-3.61421
-32.204
-26.9431
-23.8258
-21.2212
-18.9261
-16.9187
-15.1496
-13.5784
-12.1779
-10.927
-9.80834
-8.80722
-7.91071
-7.10745
-6.38735
-5.7413
-5.16105
-4.64015
-4.17589
-3.75723
-32.6024
-27.3314
-24.1986
-21.5746
-19.2584
-17.2297
-15.44
-13.8496
-12.4313
-11.1643
-10.0313
-9.01741
-8.10951
-7.29613
-6.56702
-5.91295
-5.32561
-4.79836
-4.32777
-3.9034
-33.0073
-27.7256
-24.5764
-21.9324
-19.5945
-17.5439
-15.7332
-14.1231
-12.6869
-11.4038
-10.2564
-9.22962
-8.31037
-7.48694
-6.7489
-6.08692
-5.49258
-4.95907
-4.48226
-4.05235
-33.4182
-28.125
-24.9591
-22.2943
-19.9339
-17.861
-16.0289
-14.3989
-12.9446
-11.6452
-10.4833
-9.44372
-8.51316
-7.67973
-6.93285
-6.26303
-5.66176
-5.12203
-4.63907
-4.20377
-33.835
-28.5297
-25.3462
-22.66
-20.2765
-18.1806
-16.3268
-14.6766
-13.204
-11.8883
-10.7119
-9.65951
-8.71769
-7.87434
-7.11868
-6.44108
-5.83294
-5.28701
-4.79794
-4.35735
-34.2575
-28.9398
-25.7365
-23.0289
-20.6217
-18.5024
-16.6265
-14.956
-13.4649
-12.1328
-10.9419
-9.8768
-8.92377
-8.07055
-7.30619
-6.62087
-6.00588
-5.45375
-4.9586
-4.51284
-34.6857
-29.3546
-26.1299
-23.4005
-20.9692
-18.826
-16.9277
-15.2366
-13.7271
-12.3785
-11.1731
-10.0953
-9.13115
-8.26814
-7.49514
-6.80215
-6.18035
-5.62204
-5.12082
-4.66998
-35.12
-29.7736
-26.5262
-23.7742
-21.3183
-19.1509
-17.2299
-15.5182
-13.9901
-12.6251
-11.4053
-10.3148
-9.33958
-8.46687
-7.68529
-6.98471
-6.35613
-5.79164
-5.28438
-4.82855
-35.5629
-30.1971
-26.9246
-24.1493
-21.6683
-19.4764
-17.5325
-15.8001
-14.2535
-12.8721
-11.6379
-10.5349
-9.54874
-8.66642
-7.87637
-7.16826
-6.53296
-5.9623
-5.44904
-4.98835
-36.0153
-30.6248
-27.324
-24.5245
-22.0185
-19.802
-17.8352
-16.082
-14.5169
-13.1192
-11.8708
-10.7554
-9.75833
-8.86651
-8.06808
-7.35252
-6.71056
-6.13378
-5.61457
-5.14918
-36.4647
-31.0518
-27.7238
-24.9001
-22.3692
-20.1281
-18.1383
-16.3642
-14.7806
-13.3666
-12.104
-10.9762
-9.96837
-9.06711
-8.26037
-7.53744
-6.88886
-6.30598
-5.78086
-5.31091
-4.15834
-2.77942
-1.96807
-1.38245
-1.00907
-0.744928
-0.568068
-0.447823
-0.369273
-0.319902
-0.291663
-0.278451
-0.276143
-0.281736
-0.293254
-0.309396
-0.329419
-0.352894
-0.37937
-0.407796
-0.435777
-0.459004
-0.471505
-0.467554
-0.44384
-0.401666
-0.34621
-0.285094
-0.225323
-0.171856
-0.127108
-0.0915274
-0.0643114
-0.0441101
-0.029491
-0.019025
-0.0118367
-0.00651733
-0.00347357
-1.74463e-05
-4.32014
-2.89047
-2.06111
-1.45404
-1.06607
-0.790509
-0.604865
-0.477779
-0.393805
-0.340064
-0.308241
-0.292028
-0.287156
-0.290503
-0.300003
-0.314275
-0.332503