/*--------------------------------*- C++ -*----------------------------------*\
  =========                 |
  \\      /  F ield         | OpenFOAM: The Open Source CFD Toolbox
   \\    /   O peration     | Website:  https://openfoam.org
    \\  /    A nd           | Version:  6.0
     \\/     M anipulation  |
\*---------------------------------------------------------------------------*/
FoamFile
{
    version     2.0;
    format      ascii;
    class       volScalarField;
    location    "2.5";
    object      p;
}
// * * * * * * * * * * * * * * * * * * * * * * * * * * * * * * * * * * * * * //

dimensions      [0 2 -2 0 0 0 0];

internalField   nonuniform List<scalar> 
19200
(
-106.745
-92.1223
-81.346
-72.4585
-64.4352
-57.2906
-50.9648
-45.3541
-40.3742
-35.9544
-32.0313
-28.549
-25.4576
-22.7129
-20.2757
-18.1114
-16.1889
-14.4808
-12.9629
-11.6134
-10.4134
-9.34571
-8.39539
-7.54912
-6.79509
-6.12298
-5.52356
-4.98787
-4.50796
-4.08637
-106.75
-92.1637
-81.4011
-72.5144
-64.4893
-57.3424
-51.0139
-45.4005
-40.4182
-35.9961
-32.0711
-28.5871
-25.4942
-22.7483
-20.3101
-18.1448
-16.2215
-14.5127
-12.9941
-11.6441
-10.4435
-9.37531
-8.42449
-7.57772
-6.8232
-6.15059
-5.55067
-5.01434
-4.5336
-4.11231
-106.777
-92.2055
-81.4536
-72.5694
-64.5431
-57.3942
-51.0632
-45.4474
-40.4628
-36.0387
-32.1119
-28.6263
-25.5321
-22.785
-20.3457
-18.1795
-16.2554
-14.546
-13.0267
-11.6762
-10.4751
-9.40639
-8.45509
-7.60784
-6.85283
-6.17973
-5.5793
-5.04233
-4.56076
-4.1398
-106.819
-92.2535
-81.5073
-72.6247
-64.5973
-57.4463
-51.113
-45.4949
-40.5081
-36.082
-32.1535
-28.6664
-25.5709
-22.8226
-20.3824
-18.2154
-16.2906
-14.5804
-13.0607
-11.7096
-10.508
-9.43882
-8.48706
-7.63934
-6.88386
-6.21029
-5.60938
-5.07177
-4.58938
-4.16881
-106.87
-92.3071
-81.5632
-72.6811
-64.6524
-57.4992
-51.1635
-45.5431
-40.5542
-36.1262
-32.196
-28.7075
-25.6107
-22.8615
-20.4203
-18.2525
-16.327
-14.6162
-13.0959
-11.7443
-10.5422
-9.47266
-8.52047
-7.67231
-6.91638
-6.24233
-5.64094
-5.10271
-4.61951
-4.19936
-106.928
-92.3657
-81.622
-72.7391
-64.7086
-57.553
-51.2149
-45.5921
-40.6011
-36.1713
-32.2395
-28.7496
-25.6517
-22.9014
-20.4594
-18.2908
-16.3646
-14.6532
-13.1324
-11.7804
-10.5779
-9.5079
-8.55532
-7.70675
-6.95038
-6.27589
-5.67401
-5.13514
-4.65116
-4.23146
-106.991
-92.4282
-81.6835
-72.7989
-64.7661
-57.6079
-51.2673
-45.6421
-40.6489
-36.2172
-32.2839
-28.7927
-25.6936
-22.9423
-20.4995
-18.3302
-16.4034
-14.6915
-13.1702
-11.8177
-10.6148
-9.5445
-8.59155
-7.7426
-6.98582
-6.3109
-5.70857
-5.16907
-4.68431
-4.26512
-107.058
-92.494
-81.7475
-72.8606
-64.825
-57.664
-51.3206
-45.6929
-40.6977
-36.2641
-32.3293
-28.8367
-25.7365
-22.9843
-20.5407
-18.3707
-16.4433
-14.7309
-13.2092
-11.8563
-10.6531
-9.58242
-8.62913
-7.77982
-7.02266
-6.34735
-5.74458
-5.20449
-4.71898
-4.30032
-107.128
-92.5625
-81.8138
-72.924
-64.8853
-57.7211
-51.3749
-45.7447
-40.7472
-36.3119
-32.3755
-28.8817
-25.7804
-23.0273
-20.5829
-18.4123
-16.4843
-14.7715
-13.2494
-11.8962
-10.6926
-9.62163
-8.66804
-7.81842
-7.06092
-6.38524
-5.78204
-5.24138
-4.75514
-4.33707
-107.201
-92.6334
-81.882
-72.989
-64.9468
-57.7793
-51.4301
-45.7973
-40.7977
-36.3605
-32.4225
-28.9275
-25.8252
-23.0712
-20.6261
-18.4549
-16.5264
-14.8132
-13.2907
-11.9372
-10.7333
-9.6621
-8.70825
-7.85837
-7.10056
-6.42453
-5.82096
-5.2797
-4.79279
-4.37535
-107.276
-92.7063
-81.952
-73.0554
-65.0095
-57.8385
-51.4862
-45.8507
-40.8488
-36.4098
-32.4703
-28.974
-25.8707
-23.1159
-20.6702
-18.4984
-16.5695
-14.8559
-13.333
-11.9792
-10.7752
-9.70374
-8.7497
-7.89958
-7.14152
-6.46519
-5.86127
-5.31946
-4.83189
-4.41514
-107.352
-92.781
-82.0235
-73.1231
-65.0733
-57.8986
-51.543
-45.9048
-40.9007
-36.4598
-32.5188
-29.0213
-25.917
-23.1614
-20.715
-18.5427
-16.6134
-14.8994
-13.3763
-12.0223
-10.8181
-9.74651
-8.79231
-7.94202
-7.18376
-6.50719
-5.90294
-5.36064
-4.87241
-4.45642
-107.431
-92.8573
-82.0964
-73.1919
-65.1379
-57.9595
-51.6005
-45.9595
-40.9531
-36.5103
-32.5678
-29.0691
-25.9639
-23.2075
-20.7605
-18.5878
-16.6581
-14.9438
-13.4205
-12.0664
-10.862
-9.7903
-8.836
-7.98561
-7.22721
-6.55045
-5.94593
-5.40316
-4.91433
-4.49912
-107.511
-92.935
-82.1704
-73.2616
-65.2034
-58.021
-51.6586
-46.0147
-41.0059
-36.5612
-32.6173
-29.1174
-26.0112
-23.2541
-20.8066
-18.6334
-16.7034
-14.9889
-13.4654
-12.1112
-10.9067
-9.83501
-8.88069
-8.03025
-7.27177
-6.5949
-5.99018
-5.44696
-4.95759
-4.54318
-107.592
-93.0139
-82.2455
-73.3322
-65.2695
-58.083
-51.717
-46.0702
-41.059
-36.6124
-32.667
-29.1659
-26.0589
-23.3011
-20.853
-18.6794
-16.7491
-15.0345
-13.5109
-12.1566
-10.9522
-9.88051
-8.92624
-8.07585
-7.31737
-6.64045
-6.03559
-5.49201
-5.00213
-4.58865
-107.675
-93.094
-82.3216
-73.4035
-65.3361
-58.1453
-51.7758
-46.1259
-41.1123
-36.6638
-32.7168
-29.2146
-26.1067
-23.3482
-20.8997
-18.7257
-16.7952
-15.0804
-13.5568
-12.2026
-10.9982
-9.92666
-8.97253
-8.12227
-7.36389
-6.68703
-6.08214
-5.53828
-5.04798
-4.63554
-107.758
-93.1752
-82.3984
-73.4754
-65.403
-58.2079
-51.8346
-46.1817
-41.1656
-36.7151
-32.7666
-29.2633
-26.1544
-23.3954
-20.9463
-18.7721
-16.8414
-15.1265
-13.603
-12.2488
-11.0446
-9.97328
-9.01938
-8.16935
-7.4112
-6.73451
-6.1297
-5.5857
-5.09511
-4.68376
-107.844
-93.2573
-82.476
-73.5477
-65.4702
-58.2705
-51.8933
-46.2373
-41.2186
-36.7662
-32.8162
-29.3117
-26.202
-23.4423
-20.9928
-18.8183
-16.8875
-15.1726
-13.6491
-12.2951
-11.0912
-10.0201
-9.06658
-8.2169
-7.45908
-6.78268
-6.17809
-5.63406
-5.1433
-4.73317
-107.93
-93.3405
-82.5543
-73.6203
-65.5375
-58.333
-51.9519
-46.2926
-41.2713
-36.8169
-32.8654
-29.3596
-26.2491
-23.4888
-21.0389
-18.8641
-16.9332
-15.2183
-13.695
-12.3412
-11.1376
-10.067
-9.11387
-8.26467
-7.50731
-6.83136
-6.22713
-5.68322
-5.19242
-4.78368
-108.018
-93.4246
-82.6332
-73.6933
-65.6048
-58.3953
-52.0101
-46.3474
-41.3235
-36.867
-32.9138
-29.4069
-26.2955
-23.5346
-21.0843
-18.9093
-16.9783
-15.2635
-13.7403
-12.3868
-11.1837
-10.1135
-9.16095
-8.31235
-7.55562
-6.88029
-6.2766
-5.733
-5.24235
-4.83517
-108.108
-93.5099
-82.7127
-73.7664
-65.6719
-58.4573
-52.0677
-46.4015
-41.3748
-36.9162
-32.9615
-29.4534
-26.341
-23.5795
-21.1288
-18.9535
-17.0224
-15.3077
-13.7847
-12.4316
-11.2289
-10.1593
-9.20745
-8.3596
-7.60366
-6.92912
-6.32619
-5.78311
-5.29284
-4.88743
-108.201
-93.5965
-82.7929
-73.8397
-65.7387
-58.5186
-52.1245
-46.4547
-41.4252
-36.9644
-33.008
-29.4987
-26.3854
-23.6232
-21.172
-18.9965
-17.0653
-15.3507
-13.8279
-12.4752
-11.273
-10.204
-9.25293
-8.40596
-7.65098
-6.97745
-6.3755
-5.83322
-5.3436
-4.94019
-108.297
-93.6847
-82.8736
-73.9129
-65.8049
-58.5791
-52.1803
-46.5068
-41.4744
-37.0114
-33.0533
-29.5426
-26.4284
-23.6655
-21.2138
-19.038
-17.1067
-15.3921
-13.8695
-12.5171
-11.3154
-10.2471
-9.29687
-8.4509
-7.69705
-7.02475
-6.42406
-5.88289
-5.39422
-4.99316
-108.397
-93.7744
-82.9549
-73.9859
-65.8705
-58.6385
-52.2349
-46.5576
-41.5222
-37.0569
-33.0971
-29.5851
-26.4699
-23.7062
-21.2539
-19.0777
-17.1462
-15.4315
-13.909
-12.5568
-11.3556
-10.288
-9.33864
-8.49375
-7.74117
-7.07031
-6.47119
-5.9315
-5.44424
-5.0461
-108.502
-93.8651
-83.036
-74.0585
-65.9352
-58.6967
-52.2881
-46.6069
-41.5685
-37.1009
-33.1392
-29.6259
-26.5096
-23.745
-21.2921
-19.1154
-17.1835
-15.4686
-13.9461
-12.5941
-11.3931
-10.3261
-9.37751
-8.53368
-7.78243
-7.11318
-6.51589
-5.9781
-5.49289
-5.09842
-108.611
-93.9567
-83.117
-74.1305
-65.9987
-58.7533
-52.3395
-46.6543
-41.6129
-37.143
-33.1796
-29.6648
-26.5474
-23.7819
-21.3283
-19.1509
-17.2185
-15.5032
-13.9804
-12.6283
-11.4274
-10.3607
-9.41268
-8.56974
-7.81972
-7.15208
-6.55676
-6.02125
-5.53868
-5.14792
-108.735
-94.0528
-83.1979
-74.2009
-66.0599
-58.8073
-52.3881
-46.6991
-41.6549
-37.1828
-33.2177
-29.7016
-26.583
-23.8166
-21.3621
-19.184
-17.2509
-15.5349
-14.0116
-12.6591
-11.458
-10.3912
-9.44338
-8.60099
-7.85195
-7.1858
-6.59255
-6.05957
-5.57975
-5.19237
-108.89
-94.1601
-83.2783
-74.2675
-66.1169
-58.8573
-52.4332
-46.7407
-41.6939
-37.2199
-33.2533
-29.736
-26.6164
-23.849
-21.3935
-19.2145
-17.2805
-15.5637
-14.0395
-12.6861
-11.4843
-10.4169
-9.46871
-8.62629
-7.87777
-7.21293
-6.62186
-6.09177
-5.61586
-5.23701
-109.079
-94.2766
-83.3548
-74.3281
-66.1695
-58.9041
-52.4757
-46.7801
-41.731
-37.2552
-33.2871
-29.7685
-26.6478
-23.8794
-21.4229
-19.2428
-17.3077
-15.5897
-14.0642
-12.7095
-11.5063
-10.4374
-9.48769
-8.6439
-7.89443
-7.22933
-6.63873
-6.1107
-5.64363
-5.28842
-109.222
-94.3729
-83.423
-74.3849
-66.2211
-58.9515
-52.5193
-46.8206
-41.7691
-37.2912
-33.3215
-29.8014
-26.6792
-23.9095
-21.4517
-19.2703
-17.3337
-15.6142
-14.087
-12.7304
-11.5249
-10.4534
-9.50075
-8.65337
-7.89962
-7.22911
-6.63129
-6.09735
-5.63671
-5.2944
-109.628
-109.627
-109.593
-109.576
-109.572
-109.572
-109.571
-109.568
-109.562
-109.555
-109.545
-109.532
-109.517
-109.498
-109.477
-109.453
-109.426
-109.398
-109.367
-109.335
-109.301
-109.267
-109.233
-109.2
-109.168
-109.14
-109.119
-109.11
-109.122
-109.166
-94.7734
-94.8004
-94.8105
-94.8216
-94.8351
-94.8465
-94.854
-94.8579
-94.8583
-94.8552
-94.8494
-94.8407
-94.8285
-94.8132
-94.795
-94.7742
-94.7509
-94.7253
-94.6977
-94.6684
-94.6378
-94.6063
-94.5744
-94.5429
-94.5125
-94.4844
-94.4603
-94.4412
-94.428
-94.4112
-83.759
-83.8015
-83.8346
-83.8613
-83.8834
-83.9009
-83.9141
-83.9233
-83.9284
-83.9298
-83.9283
-83.9235
-83.9153
-83.9038
-83.8895
-83.8724
-83.8529
-83.831
-83.807
-83.7812
-83.7539
-83.7254
-83.6962
-83.6665
-83.637
-83.6078
-83.5793
-83.5504
-83.519
-83.479
-74.647
-74.6938
-74.7342
-74.7673
-74.794
-74.8155
-74.8326
-74.8457
-74.8545
-74.8596
-74.8617
-74.8603
-74.8554
-74.8473
-74.8364
-74.8227
-74.8065
-74.7879
-74.7671
-74.7445
-74.7202
-74.6944
-74.6675
-74.6396
-74.6108
-74.5811
-74.5502
-74.5172
-74.4804
-74.438
-66.4277
-66.4741
-66.5161
-66.5521
-66.5816
-66.6056
-66.6255
-66.6409
-66.6518
-66.6595
-66.6642
-66.665
-66.6623
-66.6566
-66.648
-66.6368
-66.623
-66.6068
-66.5885
-66.5683
-66.5462
-66.5226
-66.4975
-66.4711
-66.4432
-66.4139
-66.3827
-66.3492
-66.3122
-66.2711
-59.1256
-59.1705
-59.2122
-59.2488
-59.2793
-59.3044
-59.3253
-59.3416
-59.3536
-59.3627
-59.3684
-59.3702
-59.3688
-59.3643
-59.3572
-59.3473
-59.335
-59.3204
-59.3036
-59.2849
-59.2644
-59.2422
-59.2184
-59.1931
-59.1662
-59.1377
-59.1071
-59.0743
-59.0382
-58.9987
-52.6805
-52.7235
-52.7639
-52.7997
-52.8297
-52.8546
-52.8753
-52.8915
-52.9036
-52.9128
-52.9187
-52.9207
-52.9196
-52.9156
-52.9089
-52.8997
-52.888
-52.8741
-52.8581
-52.8402
-52.8205
-52.7992
-52.7762
-52.7517
-52.7256
-52.6977
-52.668
-52.6361
-52.6012
-52.5635
-46.9836
-47.0244
-47.0627
-47.0968
-47.1255
-47.1494
-47.1691
-47.1845
-47.1961
-47.2048
-47.2101
-47.2117
-47.2103
-47.2061
-47.1993
-47.19
-47.1784
-47.1646
-47.1488
-47.1311
-47.1118
-47.0908
-47.0683
-47.0442
-47.0186
-46.9914
-46.9624
-46.9314
-46.8979
-46.862
-41.9438
-41.9822
-42.0182
-42.0501
-42.0771
-42.0995
-42.1178
-42.132
-42.1427
-42.1505
-42.1547
-42.1555
-42.1534
-42.1486
-42.1412
-42.1315
-42.1194
-42.1053
-42.0893
-42.0715
-42.0521
-42.0311
-42.0087
-41.9849
-41.9597
-41.933
-41.9046
-41.8746
-41.8423
-41.808
-37.4837
-37.5197
-37.5533
-37.583
-37.608
-37.6288
-37.6454
-37.658
-37.6677
-37.6743
-37.6772
-37.677
-37.6739
-37.6682
-37.66
-37.6495
-37.6368
-37.6221
-37.6056
-37.5874
-37.5677
-37.5465
-37.5241
-37.5003
-37.4753
-37.449
-37.4213
-37.3921
-37.3609
-37.3281
-33.5345
-33.5682
-33.5995
-33.627
-33.6501
-33.6691
-33.6839
-33.6951
-33.7036
-33.7088
-33.7103
-33.7089
-33.7048
-33.6981
-33.6889
-33.6775
-33.664
-33.6485
-33.6314
-33.6126
-33.5925
-33.571
-33.5483
-33.5246
-33.4997
-33.4737
-33.4465
-33.4181
-33.388
-33.3566
-30.0358
-30.0674
-30.0966
-30.1219
-30.1431
-30.1604
-30.1736
-30.1834
-30.1905
-30.1942
-30.1944
-30.1918
-30.1866
-30.1788
-30.1686
-30.1562
-30.1418
-30.1256
-30.1077
-30.0883
-30.0676
-30.0457
-30.0228
-29.9989
-29.9741
-29.9485
-29.9218
-29.8941
-29.865
-29.8348
-26.9347
-26.9644
-26.9915
-27.0149
-27.0343
-27.05
-27.0616
-27.07
-27.0757
-27.078
-27.0771
-27.0733
-27.0669
-27.058
-27.0468
-27.0334
-27.0181
-27.001
-26.9823
-26.9623
-26.941
-26.9187
-26.8955
-26.8715
-26.8468
-26.8214
-26.7953
-26.7683
-26.7402
-26.7112
-24.1848
-24.2127
-24.238
-24.2596
-24.2774
-24.2914
-24.3017
-24.3088
-24.3131
-24.3142
-24.312
-24.3071
-24.2996
-24.2897
-24.2775
-24.2631
-24.2469
-24.2289
-24.2095
-24.1887
-24.1668
-24.1441
-24.1205
-24.0964
-24.0718
-24.0467
-24.021
-23.9949
-23.9678
-23.9399
-21.7454
-21.7717
-21.7953
-21.8153
-21.8315
-21.8441
-21.8531
-21.859
-21.8621
-21.8619
-21.8586
-21.8527
-21.8442
-21.8332
-21.82
-21.8047
-21.7876
-21.7688
-21.7486
-21.7271
-21.7046
-21.6813
-21.6575
-21.6332
-21.6086
-21.5838
-21.5587
-21.5333
-21.5073
-21.4807
-19.5807
-19.6056
-19.6277
-19.6463
-19.6611
-19.6723
-19.6801
-19.685
-19.6869
-19.6856
-19.6813
-19.6743
-19.6648
-19.6529
-19.6387
-19.6226
-19.6045
-19.5849
-19.5639
-19.5417
-19.5186
-19.4948
-19.4706
-19.4461
-19.4216
-19.397
-19.3725
-19.348
-19.3231
-19.2977
-17.6595
-17.683
-17.7037
-17.721
-17.7346
-17.7446
-17.7513
-17.7552
-17.756
-17.7536
-17.7483
-17.7404
-17.73
-17.7172
-17.7021
-17.6851
-17.6662
-17.6458
-17.624
-17.601
-17.5773
-17.5529
-17.5283
-17.5036
-17.4791
-17.4548
-17.4309
-17.4073
-17.3835
-17.3596
-15.9539
-15.9763
-15.9957
-16.0118
-16.0243
-16.0331
-16.0389
-16.0419
-16.0416
-16.0382
-16.0321
-16.0233
-16.012
-15.9983
-15.9824
-15.9645
-15.9448
-15.9235
-15.9009
-15.8772
-15.8528
-15.8279
-15.8028
-15.7778
-15.7532
-15.7292
-15.7059
-15.6832
-15.6607
-15.6383
-14.4396
-14.4609
-14.4792
-14.4942
-14.5056
-14.5134
-14.5183
-14.5204
-14.5191
-14.5149
-14.5079
-14.4983
-14.4861
-14.4716
-14.4549
-14.4362
-14.4157
-14.3936
-14.3702
-14.3457
-14.3205
-14.295
-14.2693
-14.244
-14.2193
-14.1955
-14.1727
-14.151
-14.1299
-14.1092
-13.095
-13.1153
-13.1325
-13.1465
-13.1569
-13.1638
-13.1678
-13.169
-13.1669
-13.1618
-13.1541
-13.1436
-13.1307
-13.1154
-13.0979
-13.0784
-13.0571
-13.0342
-13.0099
-12.9847
-12.9587
-12.9324
-12.9061
-12.8803
-12.8554
-12.8316
-12.8094
-12.7887
-12.7691
-12.7503
-11.9009
-11.9202
-11.9365
-11.9494
-11.9589
-11.965
-11.9683
-11.9686
-11.9657
-11.9598
-11.9513
-11.9401
-11.9265
-11.9104
-11.8921
-11.8718
-11.8497
-11.826
-11.8009
-11.7748
-11.7479
-11.7208
-11.6938
-11.6673
-11.642
-11.6183
-11.5965
-11.5768
-11.5589
-11.5423
-10.8402
-10.8586
-10.874
-10.8861
-10.8947
-10.9
-10.9025
-10.902
-10.8983
-10.8917
-10.8825
-10.8706
-10.8562
-10.8394
-10.8204
-10.7993
-10.7764
-10.7518
-10.7259
-10.6988
-10.6711
-10.643
-10.6151
-10.5879
-10.562
-10.538
-10.5165
-10.4979
-10.4818
-10.4678
-9.898
-9.91554
-9.93002
-9.94124
-9.94905
-9.95359
-9.95531
-9.95406
-9.94966
-9.94239
-9.93243
-9.91985
-9.90474
-9.88723
-9.86747
-9.84564
-9.8219
-9.79648
-9.76964
-9.74166
-9.7129
-9.68379
-9.65484
-9.62666
-9.59996
-9.57553
-9.55413
-9.53637
-9.52234
-9.51127
-9.06071
-9.07741
-9.09106
-9.10144
-9.10846
-9.11229
-9.11329
-9.1113
-9.1062
-9.09825
-9.08762
-9.07435
-9.05855
-9.04034
-9.01986
-8.99727
-8.97273
-8.94646
-8.91869
-8.88972
-8.85988
-8.82962
-8.79946
-8.77007
-8.74228
-8.71705
-8.69544
-8.67844
-8.66653
-8.65902
-8.31642
-8.3323
-8.34514
-8.3547
-8.36095
-8.36411
-8.36441
-8.36168
-8.3559
-8.3473
-8.336
-8.32207
-8.30559
-8.28669
-8.2655
-8.24215
-8.21681
-8.18968
-8.16097
-8.13095
-8.09997
-8.06844
-8.0369
-8.00606
-7.97683
-7.95039
-7.9281
-7.91154
-7.9018
-7.89866
-7.65447
-7.66954
-7.68157
-7.69034
-7.69581
-7.6983
-7.6979
-7.69443
-7.68797
-7.67871
-7.66675
-7.65215
-7.63499
-7.6154
-7.59348
-7.56937
-7.54322
-7.51519
-7.48551
-7.4544
-7.42218
-7.38926
-7.35615
-7.32358
-7.29251
-7.26431
-7.24069
-7.22397
-7.21616
-7.21828
-7.06543
-7.07968
-7.0909
-7.09885
-7.10357
-7.10536
-7.10423
-7.10002
-7.09286
-7.08292
-7.07027
-7.05496
-7.03709
-7.01676
-6.99408
-6.96916
-6.94213
-6.91316
-6.88243
-6.85014
-6.81657
-6.78209
-6.74718
-6.71252
-6.67911
-6.64843
-6.62255
-6.60472
-6.59801
-6.60594
-6.54069
-6.55427
-6.56482
-6.5721
-6.57617
-6.57739
-6.57563
-6.57077
-6.56302
-6.55248
-6.53921
-6.52328
-6.50477
-6.48377
-6.46037
-6.43469
-6.40685
-6.37697
-6.34521
-6.31176
-6.27685
-6.24077
-6.20396
-6.16701
-6.13085
-6.09702
-6.06781
-6.04778
-6.0414
-6.0566
-6.07233
-6.08551
-6.09568
-6.10261
-6.1064
-6.10733
-6.10528
-6.10016
-6.09218
-6.08142
-6.06794
-6.0518
-6.03308
-6.01186
-5.98824
-5.9623
-5.93416
-5.90393
-5.87173
-5.83773
-5.8021
-5.76508
-5.72701
-5.68838
-5.64993
-5.61305
-5.57997
-5.55649
-5.54958
-5.58151
-5.6547
-5.66627
-5.6749
-5.68042
-5.6829
-5.68258
-5.67937
-5.67322
-5.66427
-5.65263
-5.63835
-5.62148
-5.6021
-5.58028
-5.55611
-5.52966
-5.50104
-5.47033
-5.43763
-5.40306
-5.36676
-5.32889
-5.28966
-5.24939
-5.20856
-5.16809
-5.12948
-5.09754
-5.07847
-5.12967
-105.645
-105.782
-105.872
-105.994
-106.146
-106.309
-106.474
-106.64
-106.806
-106.972
-107.136
-107.297
-107.455
-107.609
-107.758
-107.903
-108.042
-108.177
-108.307
-108.431
-108.55
-108.665
-108.774
-108.879
-108.981
-109.079
-109.177
-109.276
-109.383
-109.504
-90.7387
-90.915
-91.0697
-91.2324
-91.4045
-91.5786
-91.7508
-91.9208
-92.089
-92.2549
-92.4181
-92.578
-92.7342
-92.8862
-93.034
-93.1771
-93.3155
-93.449
-93.5775
-93.701
-93.8195
-93.9331
-94.0419
-94.1464
-94.2468
-94.3438
-94.4384
-94.5311
-94.6224
-94.7067
-79.7601
-79.9529
-80.1365
-80.3153
-80.4919
-80.6662
-80.8377
-81.0066
-81.1727
-81.3361
-81.4963
-81.6531
-81.8061
-81.955
-82.0998
-82.2401
-82.3758
-82.5067
-82.6329
-82.7542
-82.8707
-82.9823
-83.0892
-83.1916
-83.2895
-83.3831
-83.4726
-83.5572
-83.6356
-83.7044
-70.7525
-70.9435
-71.1299
-71.3099
-71.4845
-71.6555
-71.8237
-71.9891
-72.1515
-72.3107
-72.4666
-72.619
-72.7676
-72.9122
-73.0526
-73.1887
-73.3204
-73.4475
-73.5699
-73.6876
-73.8006
-73.9089
-74.0124
-74.1112
-74.2052
-74.2945
-74.3787
-74.4572
-74.5291
-74.5935
-62.6744
-62.8572
-63.0386
-63.215
-63.386
-63.5528
-63.7166
-63.8772
-64.0347
-64.1887
-64.3393
-64.4863
-64.6295
-64.7687
-64.9039
-65.0348
-65.1614
-65.2836
-65.4012
-65.5143
-65.6228
-65.7266
-65.8257
-65.9201
-66.0096
-66.0942
-66.1735
-66.2474
-66.315
-66.3761
-55.5298
-55.7044
-55.8791
-56.0503
-56.2163
-56.378
-56.5363
-56.6914
-56.8431
-56.9914
-57.1361
-57.2772
-57.4145
-57.5479
-57.6773
-57.8025
-57.9236
-58.0403
-58.1527
-58.2606
-58.364
-58.4629
-58.5571
-58.6466
-58.7314
-58.8112
-58.8859
-58.9553
-59.0189
-59.0765
-49.2455
-49.4127
-49.5806
-49.7455
-49.9057
-50.0617
-50.2142
-50.3635
-50.5093
-50.6517
-50.7905
-50.9256
-51.057
-51.1845
-51.3081
-51.4277
-51.5431
-51.6543
-51.7613
-51.8639
-51.9621
-52.0559
-52.1451
-52.2298
-52.3098
-52.3849
-52.4551
-52.5203
-52.5798
-52.634
-43.7042
-43.8647
-44.0259
-44.1844
-44.3387
-44.4889
-44.6358
-44.7794
-44.9196
-45.0562
-45.1893
-45.3187
-45.4445
-45.5664
-45.6844
-45.7985
-45.9085
-46.0144
-46.1161
-46.2136
-46.3068
-46.3956
-46.48
-46.56
-46.6353
-46.706
-46.772
-46.833
-46.8888
-46.9397
-38.8099
-38.9644
-39.1194
-39.2719
-39.4205
-39.5653
-39.7068
-39.8451
-39.9799
-40.1113
-40.239
-40.3632
-40.4836
-40.6003
-40.7131
-40.8221
-40.927
-41.028
-41.1248
-41.2175
-41.3059
-41.3901
-41.47
-41.5455
-41.6166
-41.6832
-41.7451
-41.8024
-41.8548
-41.9025
-34.4829
-34.6321
-34.7815
-34.9285
-35.0719
-35.2117
-35.3483
-35.4817
-35.6116
-35.7381
-35.861
-35.9803
-36.0959
-36.2078
-36.3159
-36.4201
-36.5205
-36.6168
-36.7091
-36.7974
-36.8815
-36.9615
-37.0373
-37.1088
-37.1759
-37.2387
-37.297
-37.3509
-37.4001
-37.4449
-30.6541
-30.7985
-30.943
-31.0852
-31.2238
-31.3591
-31.4912
-31.6201
-31.7456
-31.8677
-31.9862
-32.1011
-32.2123
-32.3199
-32.4237
-32.5237
-32.6198
-32.712
-32.8003
-32.8846
-32.9648
-33.0409
-33.113
-33.1808
-33.2444
-33.3038
-33.3589
-33.4097
-33.4559
-33.498
-27.2633
-27.4036
-27.5437
-27.6816
-27.8161
-27.9473
-28.0754
-28.2003
-28.3218
-28.4398
-28.5543
-28.6652
-28.7726
-28.8762
-28.9761
-29.0723
-29.1647
-29.2532
-29.3378
-29.4185
-29.4952
-29.568
-29.6366
-29.7012
-29.7617
-29.8181
-29.8702
-29.9182
-29.9619
-30.0015
-24.2585
-24.3953
-24.5316
-24.6657
-24.7964
-24.924
-25.0485
-25.1698
-25.2877
-25.4021
-25.513
-25.6204
-25.7242
-25.8243
-25.9207
-26.0135
-26.1025
-26.1877
-26.269
-26.3465
-26.4201
-26.4898
-26.5555
-26.6172
-26.6749
-26.7285
-26.7781
-26.8236
-26.8649
-26.9024
-21.5946
-21.7283
-21.8613
-21.992
-22.1195
-22.2439
-22.3651
-22.4831
-22.5978
-22.7089
-22.8166
-22.9208
-23.0213
-23.1183
-23.2116
-23.3013
-23.3872
-23.4695
-23.5479
-23.6225
-23.6934
-23.7603
-23.8233
-23.8825
-23.9377
-23.9889
-24.0362
-24.0795
-24.1187
-24.1542
-19.2322
-19.3632
-19.4933
-19.621
-19.7457
-19.8672
-19.9855
-20.1006
-20.2123
-20.3205
-20.4252
-20.5265
-20.6241
-20.7182
-20.8087
-20.8956
-20.9788
-21.0584
-21.1342
-21.2063
-21.2746
-21.3391
-21.3998
-21.4567
-21.5096
-21.5587
-21.6039
-21.6453
-21.6827
-21.7164
-17.1366
-17.2653
-17.393
-17.5182
-17.6402
-17.7592
-17.8749
-17.9873
-18.0963
-18.2019
-18.3039
-18.4024
-18.4975
-18.589
-18.6769
-18.7613
-18.842
-18.9191
-18.9926
-19.0624
-19.1285
-19.1908
-19.2494
-19.3042
-19.3552
-19.4024
-19.4458
-19.4853
-19.5211
-19.5532
-15.2778
-15.4044
-15.5299
-15.6529
-15.7728
-15.8894
-16.0028
-16.1127
-16.2192
-16.3223
-16.4219
-16.5179
-16.6105
-16.6996
-16.7852
-16.8673
-16.9458
-17.0208
-17.0921
-17.1598
-17.2239
-17.2842
-17.3409
-17.3939
-17.4431
-17.4886
-17.5303
-17.5683
-17.6025
-17.6332
-13.6289
-13.7538
-13.8775
-13.9986
-14.1165
-14.231
-14.3422
-14.4499
-14.5541
-14.6548
-14.7521
-14.8459
-14.9362
-15.0231
-15.1066
-15.1865
-15.263
-15.3359
-15.4053
-15.4712
-15.5334
-15.592
-15.6469
-15.6982
-15.7458
-15.7898
-15.83
-15.8666
-15.8995
-15.9289
-12.1664
-12.2899
-12.4121
-12.5316
-12.6477
-12.7603
-12.8694
-12.9749
-13.077
-13.1755
-13.2706
-13.3623
-13.4505
-13.5354
-13.6168
-13.6948
-13.7694
-13.8405
-13.9081
-13.9722
-14.0328
-14.0898
-14.1432
-14.193
-14.2391
-14.2817
-14.3206
-14.3558
-14.3875
-14.4157
-10.8695
-10.9919
-11.1129
-11.2309
-11.3454
-11.4562
-11.5634
-11.6669
-11.7668
-11.8633
-11.9563
-12.0459
-12.1322
-12.2151
-12.2947
-12.3709
-12.4438
-12.5132
-12.5792
-12.6417
-12.7007
-12.7562
-12.8082
-12.8566
-12.9014
-12.9427
-12.9803
-13.0144
-13.0449
-13.072
-9.71964
-9.84113
-9.96125
-10.0782
-10.1911
-10.3002
-10.4054
-10.5069
-10.6048
-10.6992
-10.7903
-10.878
-10.9624
-11.0436
-11.1214
-11.196
-11.2672
-11.3351
-11.3995
-11.4606
-11.5182
-11.5724
-11.623
-11.6701
-11.7137
-11.7538
-11.7903
-11.8233
-11.8527
-11.8788
-8.70011
-8.82119
-8.94085
-9.05677
-9.16828
-9.27558
-9.3789
-9.47842
-9.57433
-9.6668
-9.75595
-9.84184
-9.92452
-10.004
-10.0802
-10.1532
-10.223
-10.2894
-10.3525
-10.4122
-10.4685
-10.5213
-10.5708
-10.6167
-10.6591
-10.6981
-10.7335
-10.7655
-10.794
-10.8191
-7.7961
-7.91728
-8.03701
-8.15211
-8.26214
-8.36766
-8.46904
-8.56657
-8.66052
-8.75111
-8.83846
-8.92264
-9.00368
-9.08159
-9.15633
-9.22789
-9.29622
-9.36129
-9.42306
-9.48149
-9.53656
-9.58824
-9.63649
-9.6813
-9.72265
-9.76055
-9.79498
-9.82597
-9.85347
-9.87766
-6.99412
-7.11617
-7.23668
-7.35106
-7.45953
-7.5632
-7.66262
-7.75817
-7.85022
-7.93901
-8.02466
-8.10724
-8.18675
-8.26319
-8.33653
-8.40673
-8.47374
-8.53754
-8.59807
-8.65529
-8.70919
-8.75972
-8.80686
-8.8506
-8.89091
-8.92779
-8.96124
-8.99128
-9.01788
-9.04118
-6.28217
-6.4063
-6.52833
-6.64206
-6.74885
-6.8506
-6.94802
-7.04164
-7.13186
-7.21894
-7.30299
-7.38405
-7.46213
-7.53718
-7.60918
-7.67808
-7.74384
-7.8064
-7.86573
-7.92179
-7.97455
-8.02397
-8.07004
-8.11272
-8.15202
-8.18792
-8.22041
-8.24953
-8.27524
-8.29768
-5.64935
-5.77811
-5.90259
-6.01537
-6.12028
-6.22002
-6.31543
-6.40712
-6.49556
-6.581
-6.66351
-6.74311
-6.81978
-6.89348
-6.96416
-7.03177
-7.09627
-7.15761
-7.21575
-7.27064
-7.32226
-7.37058
-7.41556
-7.4572
-7.49548
-7.5304
-7.56194
-7.59014
-7.61496
-7.63654
-5.08323
-5.22237
-5.35083
-5.46204
-5.56473
-5.66235
-5.75569
-5.84545
-5.93213
-6.01595
-6.09694
-6.17508
-6.25035
-6.32269
-6.39205
-6.45837
-6.52161
-6.58172
-6.63866
-6.69238
-6.74286
-6.79007
-6.83399
-6.87458
-6.91185
-6.94578
-6.97638
-7.00365
-7.02759
-7.0483
-4.56311
-4.72275
-4.85938
-4.96905
-5.06928
-5.16481
-5.25614
-5.34409
-5.42918
-5.51153
-5.59116
-5.66802
-5.74206
-5.81321
-5.88142
-5.94663
-6.00879
-6.06786
-6.12379
-6.17653
-6.22607
-6.27236
-6.31538
-6.35512
-6.39155
-6.42468
-6.4545
-6.48102
-6.50422
-6.52422
-4.07622
-4.26705
-4.41685
-4.52666
-4.62465
-4.71789
-4.80728
-4.89359
-4.97726
-5.05838
-5.13688
-5.21269
-5.28572
-5.35592
-5.42321
-5.48754
-5.54885
-5.60711
-5.66226
-5.71426
-5.76308
-5.80869
-5.85107
-5.89019
-5.92604
-5.95861
-5.98791
-6.01393
-6.03668
-6.05624
-3.72825
-3.94164
-4.08365
-4.18816
-4.28065
-4.36816
-4.45292
-4.53537
-4.61552
-4.69331
-4.76862
-4.84132
-4.91131
-4.97852
-5.04287
-5.10432
-5.16282
-5.21831
-5.27077
-5.32014
-5.36641
-5.40954
-5.44951
-5.48631
-5.51993
-5.55035
-5.57758
-5.60164
-5.62251
-5.64027
-0.762479
-1.11269
-1.51726
-1.97765
-2.50143
-3.09692
-3.77284
-4.5389
-5.40606
-6.38666
-7.49457
-8.74544
-10.1569
-11.749
-13.5443
-15.5682
-17.8498
-20.422
-23.3223
-26.5936
-30.2852
-34.4538
-39.1655
-44.4965
-50.5403
-57.4143
-65.1974
-73.8972
-84.5687
-99.1995
-0.838116
-1.18981
-1.59441
-2.05507
-2.57928
-3.17522
-3.85162
-4.61823
-5.48603
-6.46736
-7.57612
-8.82796
-10.2406
-11.8339
-13.6305
-15.656
-17.9394
-20.5136
-23.4162
-26.6901
-30.3846
-34.5568
-39.2725
-44.6083
-50.6578
-57.5387
-65.3293
-74.0339
-84.6999
-99.3112
-0.916413
-1.26963
-1.67432
-2.13534
-2.66007
-3.25655
-3.93353
-4.70079
-5.56933
-6.55152
-7.66124
-8.91419
-10.328
-11.9228
-13.721
-15.7482
-18.0336
-20.6101
-23.5152
-26.792
-30.4898
-34.6658
-39.3859
-44.7267
-50.7819
-57.6689
-65.4657
-74.1727
-84.8264
-99.403
-0.997139
-1.35191
-1.75673
-2.21818
-2.74349
-3.34057
-4.01819
-4.78616
-5.65551
-6.6386
-7.74937
-9.00348
-10.4187
-12.0149
-13.8148
-15.8439
-18.1314
-20.7102
-23.618
-26.8978
-30.5991
-34.7791
-39.5037
-44.8496
-50.9103
-57.803
-65.6053
-74.3161
-84.9652
-99.5221
-1.08019
-1.43653
-1.84154
-2.30348
-2.82944
-3.42717
-4.10548
-4.87421
-5.7444
-6.72845
-7.8403
-9.09563
-10.5122
-12.1099
-13.9115
-15.9426
-18.2322
-20.8134
-23.724
-27.0069
-30.7117
-34.8956
-39.6248
-44.9758
-51.042
-57.9405
-65.7487
-74.4654
-85.1171
-99.6662
-1.16548
-1.52342
-1.92867
-2.39117
-2.91785
-3.51631
-4.19536
-4.96491
-5.83601
-6.82107
-7.93404
-9.19065
-10.6086
-12.2079
-14.0113
-16.0444
-18.3362
-20.9199
-23.8332
-27.1192
-30.8276
-35.0155
-39.7493
-45.1055
-51.1775
-58.0822
-65.897
-74.6205
-85.2775
-99.8243
-1.25292
-1.61247
-2.01801
-2.48116
-3.00863
-3.60788
-4.28774
-5.05817
-5.93024
-6.91637
-8.03054
-9.28848
-10.7079
-12.3089
-14.1141
-16.1492
-18.4433
-21.0296
-23.9457
-27.235
-30.947
-35.1392
-39.8777
-45.2393
-51.3173
-58.2287
-66.0504
-74.7812
-85.4442
-99.9914
-1.34237
-1.70357
-2.10945
-2.57332
-3.10166
-3.70176
-4.38251
-5.15387
-6.02697
-7.01424
-8.12966
-9.38899
-10.81
-12.4127
-14.2198
-16.2571
-18.5535
-21.1424
-24.0616
-27.3543
-31.0701
-35.2665
-40.0099
-45.3771
-51.4616
-58.3799
-66.2091
-74.9474
-85.6171
-100.167
-1.43376
-1.79661
-2.20288
-2.66756
-3.19683
-3.79786
-4.47955
-5.25192
-6.1261
-7.11456
-8.2313
-9.49209
-10.9147
-12.5192
-14.3283
-16.3677
-18.6667
-21.2583
-24.1805
-27.4766
-31.1965
-35.3973
-40.1459
-45.519
-51.61
-58.5357
-66.3728
-75.1192
-85.7961
-100.349
-1.52696
-1.89148
-2.29821
-2.76376
-3.29405
-3.89607
-4.57877
-5.35221
-6.22754
-7.21725
-8.33536
-9.59766
-11.0219
-12.6283
-14.4394
-16.4811
-18.7826
-21.3771
-24.3025
-27.6021
-31.3259
-35.5315
-40.2855
-45.6646
-51.7626
-58.696
-66.5413
-75.2962
-85.9811
-100.539
-1.62191
-1.98811
-2.39533
-2.86185
-3.39323
-3.99632
-4.6801
-5.45466
-6.3312
-7.32221
-8.44175
-9.70561
-11.1316
-12.7399
-14.5531
-16.5972
-18.9013
-21.4987
-24.4274
-27.7308
-31.4588
-35.6693
-40.4286
-45.814
-51.9191
-58.8606
-66.7145
-75.4783
-86.1715
-100.735
-1.7185
-2.08639
-2.49417
-2.96174
-3.49429
-4.09851
-4.78343
-5.55918
-6.43698
-7.42935
-8.55036
-9.81584
-11.2436
-12.8538
-14.6693
-16.7158
-19.0225
-21.623
-24.5551
-27.8623
-31.5947
-35.8101
-40.5751
-45.967
-52.0795
-59.0292
-66.8921
-75.6652
-86.367
-100.937
-1.81667
-2.18625
-2.59464
-3.06335
-3.59715
-4.20258
-4.8887
-5.6657
-6.54481
-7.53859
-8.66112
-9.92826
-11.3579
-12.9701
-14.7878
-16.8367
-19.1463
-21.7498
-24.6853
-27.9965
-31.7333
-35.9538
-40.7247
-46.1234
-52.2436
-59.2018
-67.0739
-75.8564
-86.5672
-101.143
-1.91636
-2.28765
-2.6967
-3.16662
-3.70176
-4.30846
-4.99584
-5.77414
-6.65461
-7.64984
-8.77393
-10.0428
-11.4743
-13.0885
-14.9085
-16.96
-19.2723
-21.879
-24.8181
-28.1332
-31.8747
-36.1005
-40.8775
-46.283
-52.411
-59.378
-67.2597
-76.0518
-86.7716
-101.355
-2.01755
-2.39053
-2.80029
-3.27152
-3.80806
-4.41609
-5.10478
-5.88443
-6.76631
-7.76302
-8.88871
-10.1593
-11.5927
-13.2091
-15.0313
-17.0854
-19.4006
-22.0105
-24.9533
-28.2725
-32.0188
-36.2499
-41.0331
-46.4457
-52.5818
-59.5577
-67.4491
-76.2511
-86.9801
-101.57
-2.12022
-2.49489
-2.9054
-3.37801
-3.91602
-4.52544
-5.21549
-5.99651
-6.87982
-7.87805
-9.00536
-10.2777
-11.713
-13.3315
-15.1561
-17.2128
-19.5309
-22.1441
-25.0906
-28.4141
-32.1652
-36.4019
-41.1914
-46.6113
-52.7556
-59.7407
-67.6419
-76.4541
-87.1923
-101.789
-2.2244
-2.60074
-3.01203
-3.48609
-4.02562
-4.63646
-5.3279
-6.11033
-6.99509
-7.99485
-9.12379
-10.3979
-11.8351
-13.4558
-15.2828
-17.3421
-19.6633
-22.2798
-25.23
-28.5579
-32.3139
-36.5562
-41.3522
-46.7795
-52.9322
-59.9267
-67.8379
-76.6603
-87.408
-102.011
-2.33015
-2.70813
-3.12021
-3.59576
-4.13687
-4.74915
-5.44199
-6.22583
-7.11205
-8.11332
-9.2439
-10.5198
-11.959
-13.5818
-15.4111
-17.4732
-19.7973
-22.4173
-25.3713
-28.7035
-32.4645
-36.7126
-41.5152
-46.9501
-53.1114
-60.1155
-68.037
-76.8697
-87.6269
-102.237
-2.43759
-2.81714
-3.22999
-3.70707
-4.24974
-4.86347
-5.5577
-6.34294
-7.23059
-8.23337
-9.36556
-10.6432
-12.0843
-13.7092
-15.541
-17.6056
-19.9328
-22.5561
-25.5141
-28.8509
-32.6169
-36.8709
-41.6803
-47.123
-53.293
-60.3068
-68.2387
-77.082
-87.8488
-102.466
-2.54687
-2.92788
-3.34144
-3.82003
-4.36425
-4.97939
-5.67497
-6.46157
-7.35062
-8.35487
-9.48865
-10.768
-12.211
-13.8381
-15.6723
-17.7396
-20.0698
-22.6965
-25.6586
-28.9998
-32.771
-37.031
-41.8473
-47.2978