/*--------------------------------*- C++ -*----------------------------------*\
| =========                 |                                                 |
| \\      /  F ield         | OpenFOAM: The Open Source CFD Toolbox           |
|  \\    /   O peration     | Version:  v1912                                 |
|   \\  /    A nd           | Website:  www.openfoam.com                      |
|    \\/     M anipulation  |                                                 |
\*---------------------------------------------------------------------------*/
FoamFile
{
    version     2.0;
    format      ascii;
    class       surfaceScalarField;
    location    "21.5";
    object      phi;
}
// * * * * * * * * * * * * * * * * * * * * * * * * * * * * * * * * * * * * * //

dimensions      [0 3 -1 0 0 0 0];
oriented        oriented;


internalField   nonuniform List<scalar> 
18940
(
0.000340046
-0.234691
0.234351
0.00131389
-0.216892
0.215919
0.00275054
-0.205368
0.203931
0.00448585
-0.197474
0.195739
0.00639471
-0.191549
0.18964
0.00837988
-0.186563
0.184578
0.0103709
-0.181949
0.179958
0.0123206
-0.177422
0.175472
0.0142004
-0.172863
0.170983
0.0159957
-0.168245
0.166449
0.0177021
-0.163588
0.161882
0.0193221
-0.158934
0.157314
0.0208625
-0.154328
0.152788
0.0223327
-0.149813
0.148343
0.0237436
-0.145421
0.144011
0.0251063
-0.141177
0.139815
0.026432
-0.137091
0.135765
0.0277308
-0.133159
0.13186
0.0290107
-0.129361
0.128081
-0.125658
0.124392
0.0302766
0.000363085
-0.235054
0.0013566
-0.217886
0.00280386
-0.206815
0.0045441
-0.199214
0.0064487
-0.193454
0.00842043
-0.188535
0.01039
-0.183919
0.0123117
-0.179344
0.0141588
-0.17471
0.0159183
-0.170004
0.0175874
-0.165257
0.0191697
-0.160516
0.0206729
-0.155832
0.0221072
-0.151247
0.0234837
-0.146798
0.024814
-0.142508
0.0261095
-0.138386
0.0273807
-0.13443
0.028636
-0.130616
-0.126903
0.0298811
0.000384207
-0.235438
0.00139375
-0.218896
0.00284991
-0.208271
0.00459153
-0.200956
0.00648843
-0.195351
0.00844326
-0.19049
0.0103879
-0.185863
0.0122784
-0.181234
0.0140897
-0.176521
0.0158107
-0.171725
0.01744
-0.166887
0.0189824
-0.162059
0.0204467
-0.157296
0.0218434
-0.152644
0.0231842
-0.148139
0.0244808
-0.143804
0.0257447
-0.13965
0.0269869
-0.135672
0.0282163
-0.131846
-0.128126
0.0294392
0.000397817
-0.235836
0.00142232
-0.21992
0.00288676
-0.209736
0.00462739
-0.202697
0.00651342
-0.197237
0.00844797
-0.192425
0.0103643
-0.18778
0.0122204
-0.18309
0.0139931
-0.178294
0.015673
-0.173405
0.0172604
-0.168474
0.0187611
-0.16356
0.0201848
-0.15872
0.0215425
-0.154002
0.0228462
-0.149442
0.0241078
-0.145066
0.0253392
-0.140882
0.0265512
-0.136884
0.0277537
-0.133048
-0.129326
0.0289537
0.00040888
-0.236245
0.00144569
-0.220957
0.00291573
-0.211206
0.00465231
-0.204433
0.00652409
-0.199108
0.00843496
-0.194335
0.0103198
-0.189664
0.0121384
-0.184909
0.0138697
-0.180025
0.0155062
-0.175042
0.0170495
-0.170017
0.0185068
-0.165017
0.0198883
-0.160101
0.0212057
-0.155319
0.0224712
-0.150708
0.0236967
-0.146291
0.0248943
-0.142079
0.0260753
-0.138065
0.0272499
-0.134223
-0.130503
0.0284263
0.000417821
-0.236663
0.00146425
-0.222003
0.00293707
-0.212679
0.00466649
-0.206163
0.0065207
-0.200963
0.00840454
-0.196219
0.0102546
-0.191514
0.0120328
-0.186687
0.0137202
-0.181713
0.0153109
-0.176633
0.0168082
-0.171515
0.0182203
-0.166429
0.0195582
-0.161439
0.0208341
-0.156595
0.0220601
-0.151934
0.0232485
-0.14748
0.0244114
-0.143242
0.0255603
-0.139214
0.0267061
-0.135369
-0.131655
0.0278581
0.000425211
-0.237088
0.00147871
-0.223057
0.00295134
-0.214151
0.0046704
-0.207882
0.00650371
-0.202796
0.00835726
-0.198073
0.0101695
-0.193327
0.0119045
-0.188422
0.0135453
-0.183353
0.0150881
-0.178175
0.0165375
-0.172964
0.0179027
-0.167794
0.0191956
-0.162732
0.0204285
-0.157828
0.0216139
-0.153119
0.0227641
-0.14863
0.023891
-0.144369
0.0250067
-0.14033
0.0261227
-0.136485
-0.132781
0.0272493
0.000431204
-0.237519
0.00148936
-0.224115
0.00295892
-0.215621
0.00466446
-0.209587
0.00647364
-0.204605
0.00829371
-0.199893
0.0100651
-0.195098
0.0117542
-0.190111
0.0133461
-0.184945
0.0148388
-0.179668
0.0162383
-0.174363
0.017555
-0.169111
0.0188013
-0.163978
0.0199899
-0.159016
0.0211334
-0.154263
0.022244
-0.14974
0.0233336
-0.145459
0.0244148
-0.141411
0.0254996
-0.137569
-0.133881
0.0265997
0.000435905
-0.237955
0.0014965
-0.225176
0.00296023
-0.217084
0.00464921
-0.211276
0.00643111
-0.206387
0.00821464
-0.201676
0.00994239
-0.196826
0.0115829
-0.191752
0.0131235
-0.186486
0.014564
-0.181108
0.0159117
-0.175711
0.0171782
-0.170377
0.0183763
-0.165176
0.0195191
-0.160159
0.0206192
-0.155363
0.0216886
-0.15081
0.0227394
-0.146509
0.0237843
-0.142456
0.0248363
-0.138621
-0.134954
0.0259083
0.000439387
-0.238394
0.00150039
-0.226237
0.00295574
-0.21854
0.00462525
-0.212946
0.00637688
-0.208139
0.00812096
-0.20342
0.0098023
-0.198507
0.0113918
-0.193341
0.0128788
-0.187973
0.014265
-0.182495
0.0155591
-0.177005
0.0167734
-0.171592
0.0179216
-0.166324
0.0190168
-0.161255
0.0200717
-0.156418
0.021098
-0.151836
0.0221079
-0.147519
0.0231143
-0.143462
0.0241312
-0.139638
-0.135995
0.0251732
0.000441752
-0.238836
0.00150136
-0.227296
0.00294598
-0.219984
0.00459331
-0.214593
0.00631183
-0.209857
0.00801371
-0.205122
0.00964607
-0.200139
0.0111821
-0.194877
0.0126134
-0.189404
0.0139432
-0.183824
0.0151817
-0.178244
0.016342
-0.172752
0.0174382
-0.167421
0.0184839
-0.1623
0.0194914
-0.157425
0.0204724
-0.152817
0.0214388
-0.148486
0.0224038
-0.144427
0.0233826
-0.140617
-0.137004
0.0243915
0.000443153
-0.239279
0.00149987
-0.228353
0.00293161
-0.221416
0.00455423
-0.216216
0.00623701
-0.21154
0.00789415
-0.206779
0.00947515
-0.20172
0.0109556
-0.196358
0.0123291
-0.190778
0.0136005
-0.185096
0.0147813
-0.179424
0.0158856
-0.173856
0.0169277
-0.168463
0.0179215
-0.163294
0.018879
-0.158383
0.0198118
-0.15375
0.0207315
-0.149405
0.0216515
-0.145347
0.0225881
-0.141554
-0.137977
0.0235602
0.000443864
-0.239723
0.00149649
-0.229405
0.00291347
-0.222833
0.00450904
-0.217811
0.00615367
-0.213185
0.00776374
-0.20839
0.0092912
-0.203248
0.010714
-0.19778
0.0120277
-0.192091
0.013239
-0.186307
0.0143602
-0.180546
0.0154062
-0.174902
0.0163919
-0.169448
0.0173309
-0.164233
0.0182355
-0.159287
0.0191166
-0.154631
0.0199856
-0.150274
0.0208561
-0.146218
0.0217455
-0.142443
-0.138906
0.0226753
0.000444358
-0.240167
0.00149207
-0.230453
0.00289256
-0.224234
0.00445894
-0.219378
0.00606321
-0.214789
0.00762413
-0.20995
0.00909617
-0.20472
0.0104596
-0.199144
0.0117119
-0.193344
0.0128612
-0.187456
0.0139209
-0.181605
0.0149065
-0.175888
0.0158331
-0.170375
0.0167143
-0.165114
0.0175622
-0.160135
0.0183874
-0.155456
0.0192006
-0.151088
0.0200155
-0.147033
0.0208507
-0.143278
-0.139786
0.0217307
0.000445431
-0.240613
0.00148777
-0.231496
0.00287007
-0.225616
0.00440522
-0.220913
0.00596716
-0.216351
0.00747716
-0.21146
0.0088922
-0.206135
0.0101948
-0.200447
0.0113844
-0.194533
0.0124704
-0.188542
0.0134671
-0.182602
0.0143902
-0.176811
0.015255
-0.17124
0.0160751
-0.165934
0.0168619
-0.160922
0.0176256
-0.15622
0.0183764
-0.151839
0.0191272
-0.147783
0.0198978
-0.144049
-0.140607
0.020718
0.000448223
-0.241061
0.00148486
-0.232532
0.00284718
-0.226978
0.00434921
-0.222415
0.00586715
-0.217869
0.0073248
-0.212918
0.00868168
-0.207492
0.00992258
-0.201687
0.0110487
-0.195659
0.0120705
-0.189564
0.0130029
-0.183534
0.0138621
-0.17767
0.014663
-0.172041
0.0154188
-0.16669
0.0161402
-0.161644
0.0168366
-0.156916
0.0175168
-0.152519
0.018193
-0.14846
0.0188859
-0.144742
-0.141355
0.0196342
0.000454117
-0.241515
0.00148464
-0.233563
0.00282515
-0.228319
0.00429241
-0.223882
0.00576496
-0.219341
0.00716916
-0.214322
0.00846713
-0.20879
0.00964587
-0.202866
0.0107082
-0.196722
0.0116656
-0.190522
0.0125335
-0.184402
0.0133279
-0.178465
0.0140634
-0.172776
0.0147525
-0.167379
0.0154052
-0.162296
0.0160294
-0.157541
0.0166327
-0.153122
0.0172251
-0.149052
0.0178275
-0.145344
-0.142007
0.0184799
0.000465439
-0.241981
0.00148972
-0.234587
0.00280644
-0.229636
0.00423688
-0.225312
0.00566247
-0.220767
0.00701226
-0.215672
0.00825097
-0.210029
0.00936778
-0.203983
0.0103669
-0.197721
0.0112608
-0.191416
0.0120648
-0.185206
0.0127944
-0.179194
0.0134635
-0.173445
0.0140833
-0.167999
0.0146627
-0.162876
0.0152087
-0.158087
0.0157276
-0.153641
0.016226
-0.14955
0.0167171
-0.145835
-0.142517
0.0172267
0.000489774
-0.24247
0.00150732
-0.235605
0.00279508
-0.230923
0.00418447
-0.226702
0.00556085
-0.222143
0.00685543
-0.216967
0.00803514
-0.211208
0.0090911
-0.205039
0.0100289
-0.198659
0.0108616
-0.192248
0.0116044
-0.185949
0.0122718
-0.179862
0.0128758
-0.174049
0.0134252
-0.168548
0.0139254
-0.163376
0.0143799
-0.158541
0.0147903
-0.154051
0.0151554
-0.149915
0.0154798
-0.14616
-0.142864
0.0158265
0.000547219
-0.243018
0.00154585
-0.236603
0.00279075
-0.232168
0.00413393
-0.228045
0.00545955
-0.223469
0.00669899
-0.218206
0.00782082
-0.21233
0.00881801
-0.206036
0.00969766
-0.199538
0.0104735
-0.193024
0.0111609
-0.186636
0.0117736
-0.180474
0.0123218
-0.174598
0.012811
-0.169038
0.0132408
-0.163806
0.0136041
-0.158904
0.0138843
-0.154331
0.0140555
-0.150087
0.0141112
-0.146216
-0.143025
0.0142723
0.250449
0.000404462
-0.250853
0.250071
0.000377832
0.249701
0.000370245
0.249331
0.000370117
0.248958
0.000372862
0.248581
0.000377053
0.248199
0.000381975
0.247812
0.000387048
0.24742
0.000391877
0.247024
0.000396256
0.246624
0.000400086
0.24622
0.000403342
0.245814
0.000406
0.245406
0.000408035
0.244997
0.000409321
0.244587
0.00040965
0.244179
0.00040797
0.243776
0.000403729
0.243388
0.000387727
0.000370243
0.251939
0.000994941
-0.25253
0.251315
0.00100281
0.250662
0.00102269
0.249984
0.00104855
0.249281
0.00107589
0.248554
0.00110324
0.247806
0.00113014
0.247037
0.00115609
0.246248
0.00118066
0.245441
0.0012036
0.244616
0.00122478
0.243776
0.00124418
0.24292
0.00126177
0.24205
0.00127755
0.241168
0.00129138
0.240275
0.00130303
0.239371
0.00131139
0.238459
0.00131618
0.237536
0.0013111
0.00130271
0.250365
0.001549
-0.250919
0.249748
0.0016204
0.249078
0.00169198
0.248362
0.00176474
0.247602
0.00183639
0.246799
0.0019056
0.245957
0.00197205
0.245078
0.00203549
0.244163
0.00209568
0.243214
0.00215245
0.242233
0.00220575
0.241222
0.00225559
0.240181
0.00230205
0.239114
0.00234523
0.23802
0.00238513
0.236901
0.00242176
0.235758
0.00245461
0.23459
0.00248388
0.233394
0.00250719
0.00252873
0.246025
0.00197922
-0.246455
0.245526
0.00211865
0.244965
0.00225342
0.244345
0.00238506
0.243668
0.00251301
0.242937
0.00263638
0.242154
0.00275481
0.241322
0.00286814
0.240441
0.00297621
0.239515
0.00307894
0.238544
0.00317634
0.237531
0.0032685
0.236478
0.00335561
0.235385
0.00343794
0.234254
0.00351574
0.233087
0.00358934
0.231883
0.00365882
0.230642
0.00372478
0.229362
0.00378652
0.00384599
0.239634
0.00225076
-0.239906
0.239293
0.0024597
0.238885
0.00266184
0.238411
0.00285811
0.237876
0.00304855
0.23728
0.00323261
0.236625
0.00340995
0.235912
0.00358037
0.235145
0.00374372
0.234324
0.00389996
0.233451
0.00404914
0.232528
0.00419143
0.231557
0.00432712
0.230538
0.00445666
0.229473
0.00458055
0.228363
0.00469946
0.227208
0.00481395
0.226008
0.00492495
0.224761
0.00503261
0.00513854
0.231955
0.00237165
-0.232076
0.231766
0.00264941
0.231508
0.00291924
0.231185
0.00318149
0.230797
0.00343627
0.230347
0.00368321
0.229835
0.00392195
0.229263
0.00415226
0.228633
0.00437397
0.227945
0.00458704
0.227203
0.00479154
0.226407
0.00498768
0.225558
0.00517587
0.224658
0.00535671
0.223708
0.00553096
0.222707
0.0056996
0.221658
0.00586364
0.220558
0.00602444
0.219408
0.0061828
0.00634054
0.223666
0.00237112
-0.223665
0.2236
0.00271526
0.223468
0.00305072
0.223272
0.00337749
0.223013
0.00369555
0.222692
0.00400456
0.222309
0.00430417
0.221868
0.00459407
0.221368
0.00487408
0.22081
0.00514411
0.220198
0.00540423
0.219531
0.00565469
0.218811
0.00589599
0.218039
0.00612886
0.217215
0.0063543
0.216341
0.00657365
0.215416
0.00678839
0.21444
0.00700036
0.213412
0.00721106
0.00742259
0.215272
0.00228393
-0.215185
0.215296
0.00269104
0.215258
0.00308889
0.215159
0.00347723
0.214998
0.00385587
0.214778
0.00422445
0.2145
0.00458259
0.214164
0.00492991
0.213772
0.00526617
0.213325
0.00559123
0.212824
0.00590515
0.21227
0.00620817
0.211666
0.00650083
0.21101
0.00678401
0.210306
0.00705894
0.209552
0.00732732
0.208749
0.00759115
0.207897
0.0078529
0.206993
0.00811483
0.00837957
0.20711
0.00214217
-0.206969
0.207193
0.00260861
0.207216
0.00306524
0.207182
0.00351165
0.20709
0.00394753
0.206942
0.00437246
0.206739
0.00478596
0.206481
0.00518761
0.20617
0.00557708
0.205807
0.00595417
0.205394
0.00631886
0.204931
0.00667136
0.204419
0.00701225
0.203861
0.00734246
0.203256
0.00766348
0.202606
0.00797734
0.201911
0.00828669
0.201169
0.0085947
0.200379
0.00890469
0.0092201
0.199374
0.00197191
-0.199204
0.199488
0.00249423
0.199547
0.00300619
0.199552
0.00350726
0.199502
0.00399702
0.1994
0.00447495
0.199245
0.0049405
0.19904
0.00539316
0.198784
0.0058325
0.19848
0.00625822
0.198129
0.00667021
0.197731
0.00706859
0.19729
0.00745388
0.196805
0.00782706
0.196279
0.0081898
0.195712
0.00854445
0.195104
0.00889439
0.194455
0.00924362
0.193763
0.00959694
0.00995901
0.192154
0.00179242
-0.191974
0.19228
0.00236763
0.192355
0.00293192
0.192377
0.00348463
0.192349
0.00402523
0.192271
0.0045531
0.192144
0.00506763
0.191969
0.00556817
0.191747
0.0060542
0.19148
0.00652527
0.191169
0.00698113
0.190816
0.00742175
0.190422
0.00784754
0.18999
0.00825937
0.189521
0.00865907
0.189016
0.00904916
0.188476
0.0094339
0.187902
0.00981817
0.18729
0.0102089
0.0106124
0.185473
0.00161682
-0.185297
0.185598
0.00224249
0.185673
0.00285667
0.185699
0.00345851
0.185677
0.0040474
0.185608
0.00462265
0.185492
0.00518351
0.185331
0.00572924
0.185126
0.00625917
0.184878
0.00677269
0.18459
0.00726935
0.184263
0.00774889
0.183899
0.00821151
0.183501
0.00865785
0.18307
0.00908973
0.182609
0.00950963
0.18212
0.00992288
0.181604
0.010335
0.181056
0.0107561
0.0111945
0.179313
0.00145332
-0.17915
0.179428
0.00212768
0.179495
0.0027898
0.179515
0.00343879
0.179488
0.00407394
0.179417
0.00469447
0.179301
0.00529953
0.179142
0.00588825
0.178941
0.00645979
0.1787
0.00701336
0.178421
0.00754825
0.178106
0.00806391
0.177758
0.00856019
0.177378
0.00903727
0.176971
0.00949685
0.17654
0.00994089
0.176087
0.010376
0.175614
0.0108075
0.175119
0.0112511
0.011716
0.173635
0.00130677
-0.173488
0.173734
0.00202834
0.173787
0.0027369
0.173794
0.00343151
0.173757
0.00411135
0.173676
0.00477553
0.173552
0.0054231
0.173388
0.00605307
0.173183
0.00666444
0.17294
0.00725618
0.172661
0.00782729
0.172348
0.00837682
0.172004
0.00890419
0.171633
0.00940885
0.171237
0.00989214
0.170823
0.0103548
0.170394
0.010805
0.169956
0.011246
0.169504
0.0117029
0.0121825
0.168387
0.00117949
-0.16826
0.168468
0.00194721
0.168504
0.002701
0.168496
0.00343999
0.168444
0.00416324
0.16835
0.00486978
0.168214
0.00555854
0.168039
0.00622841
0.167825
0.00687822
0.167575
0.00750669
0.167289
0.00811252
0.166972
0.00869428
0.166625
0.00925081
0.166254
0.00978057
0.165861
0.0102843
0.165456
0.0107604
0.165042
0.011219
0.16463
0.0116574
0.164216
0.0121172
0.0125929
0.163518
0.00107234
-0.16341
0.16358
0.00188516
0.163597
0.00268318
0.163572
0.00346548
0.163504
0.00423108
0.163395
0.00497887
0.163246
0.00570772
0.163058
0.00641639
0.162832
0.00710353
0.162572
0.00776764
0.162277
0.00840707
0.161951
0.0090199
0.161598
0.00960429
0.161221
0.0101575
0.160826
0.0106792
0.160422
0.0111642
0.160016
0.0116251
0.159627
0.0120465
0.159247
0.0124974
0.0129355
0.158975
0.000984911
-0.158888
0.159019
0.00184178
0.159019
0.00268307
0.158977
0.00350771
0.158893
0.00431462
0.158769
0.00510264
0.158606
0.00587054
0.158406
0.00661698
0.158169
0.00734046
0.157897
0.00803925
0.157593
0.0087114
0.157258
0.0093545
0.156897
0.00996599
0.156512
0.0105417
0.156112
0.01108
0.155705
0.0115706
0.155302
0.0120282
0.154932
0.0124161
0.154582
0.0128483
0.0131855
0.154715
0.000915315
-0.154645
0.154741
0.00181562
0.154725
0.00269908
0.154668
0.00356493
0.15457
0.00441201
0.154434
0.00523908
0.15426
0.00604485
0.154049
0.0068279
0.153803
0.0075866
0.153523
0.00831903
0.153211
0.009023
0.15287
0.00969567
0.152502
0.0103338
0.152112
0.0109319
0.151705
0.0114866
0.151295
0.0119814
0.150891
0.0124314
0.150542
0.0127657
0.150215
0.0131754
0.0133137
0.150695
0.000861827
-0.150641
0.150706
0.00180392
0.150677
0.00272808
0.150609
0.00363368
0.150501
0.00451936
0.150356
0.00538386
0.150175
0.0062259
0.149959
0.00704396
0.14971
0.00783632
0.149428
0.00860095
0.149115
0.00933546
0.148774
0.0100367
0.148407
0.010701
0.148017
0.0113217
0.14761
0.011894
0.147197
0.0123946
0.14679
0.0128379
0.146461
0.0130951
0.146173
0.0134626
0.0132717
0.146876
-0.146837
0.000822673
0.146877
0.00180284
0.14684
0.00276581
0.146764
0.00370898
0.146653
0.00463094
0.146506
0.00553052
0.146326
0.00640642
0.146112
0.00725709
0.145868
0.00808074
0.145594
0.00887527
0.145291
0.00963824
0.144961
0.0103663
0.144607
0.0110557
0.14423
0.0116988
0.143833
0.0122909
0.143425
0.0128024
0.143012
0.0132509
0.142667
0.0134395
0.142415
0.0137146
0.0126624
0.253957
7.3383e-05
-0.25403
0.253922
3.50762e-05
0.253891
3.05237e-05
0.253852
3.87993e-05
0.2538
5.26477e-05
0.25373
6.991e-05
0.253641
8.92946e-05
0.253531
0.000109693
0.253401
0.000130302
0.25325
0.00015063
0.25308
0.000170246
0.252891
0.00018882
0.252684
0.000206659
0.25246
0.000224632
0.252218
0.000241684
0.251961
0.000256675
0.251692
0.000269056
0.251413
0.000278794
0.251133
0.000280074
0.000279804
0.255323
-0.000234901
-0.255015
0.255572
-0.000213374
0.255777
-0.000174645
0.255939
-0.000122985
0.256056
-6.48801e-05
0.256129
-2.99238e-06
0.256157
6.1536e-05
0.256139
0.000127612
0.256075
0.000194363
0.255964
0.000260959
0.255809
0.000326096
0.255609
0.000388676
0.255368
0.000447718
0.255082
0.000510013
0.254752
0.000571464
0.254382
0.000627479
0.253972
0.000678657
0.253526
0.000725071
0.253044
0.000762019
0.000793677
0.250503
-0.000875599
-0.249862
0.251072
-0.000782584
0.251577
-0.000679828
0.252022
-0.000567378
0.252406
-0.000448679
0.252729
-0.000326016
0.252991
-0.000200525
0.253192
-7.36979e-05
0.253332
5.43728e-05
0.253409
0.000183941
0.253425
0.000310499
0.25338
0.000433534
0.253272
0.000555341
0.253106
0.000676255
0.252883
0.00079418
0.252603
0.000907239
0.252267
0.00101477
0.251876
0.00111672
0.251427
0.00121119
0.001301
0.242084
-0.00178626
-0.241173
0.242924
-0.0016224
0.243695
-0.00145139
0.2444
-0.00127244
0.245039
-0.00108711
0.24561
-0.000897217
0.246113
-0.000704112
0.246549
-0.000509033
0.246916
-0.00031267
0.247212
-0.000112646
0.247438
8.47051e-05
0.247598
0.00027361
0.247688
0.000464915
0.247711
0.000653212
0.247668
0.000837665
0.247558
0.00101741
0.247381
0.00119152
0.247138
0.00135959
0.246829
0.00152059
0.00167506
0.231981
-0.00288933
-0.230878
0.233018
-0.00265924
0.233988
-0.00242176
0.234892
-0.00217642
0.235729
-0.00192404
0.236498
-0.00166611
0.237198
-0.00140403
0.237828
-0.001139
0.238387
-0.000871978
0.238878
-0.000603725
0.2393
-0.00033713
0.239648
-7.42173e-05
0.239925
0.00018744
0.240133
0.000445835
0.24027
0.000700713
0.240336
0.000950678
0.240333
0.0011949
0.24026
0.00143272
0.240117
0.00166334
0.00188666
0.221434
-0.00411495
-0.220208
0.222598
-0.00382349
0.223699
-0.00352305
0.224737
-0.00321378
0.225709
-0.00289641
0.226615
-0.00257231
0.227454
-0.00224304
0.228225
-0.00191003
0.228928
-0.00157469
0.229563
-0.00123836
0.230128
-0.000902522
0.230622
-0.000568541
0.231047
-0.000237247
0.231403
8.95113e-05
0.23169
0.000413758
0.231907
0.000734418
0.232053
0.00104836
0.23213
0.00135565
0.232138
0.0016557
0.00194821
0.211197
-0.00540758
-0.209904
0.212432
-0.00505886
0.213608
-0.00469909
0.214724
-0.00432886
0.215776
-0.00394916
0.216765
-0.00356154
0.21769
-0.00316776
0.21855
-0.00276954
0.219344
-0.00236849
0.220071
-0.00196607
0.220732
-0.00156361
0.221326
-0.00116257
0.221853
-0.000763705
0.22231
-0.000367732
0.222707
1.65891e-05
0.223033
0.00040854
0.223292
0.00078983
0.223483
0.00116416
0.223608
0.00153126
0.00189066
0.201666
-0.00672688
-0.200347
0.202932
-0.00632421
0.204141
-0.0059081
0.205291
-0.00547952
0.206382
-0.00503989
0.207412
-0.00459114
0.208379
-0.00413535
0.209284
-0.00367451
0.210126
-0.00321041
0.210905
-0.00274465
0.21162
-0.0022787
0.212271
-0.00181391
0.212859
-0.00135138
0.213383
-0.000892112
0.213837
-0.000437584
0.214239
6.81157e-06
0.21457
0.000458418
0.214839
0.000895648
0.215044
0.00132642
0.00174941
0.192996
-0.008046
-0.191677
0.194264
-0.00759191
0.195477
-0.0071217
0.196634
-0.00663666
0.197733
-0.00613882
0.198773
-0.00563073
0.199752
-0.00511487
0.200671
-0.00459352
0.20153
-0.00406872
0.202327
-0.00354221
0.203064
-0.00301552
0.20374
-0.00249
0.204356
-0.00196683
0.20491
-0.00144695
0.205405
-0.000931765
0.205834
-0.000422455
0.20621
8.20473e-05
0.206523
0.000582929
0.206776
0.00107362
0.00155661
0.185195
-0.00934873
-0.183892
0.186448
-0.0088452
0.187649
-0.0083224
0.188794
-0.00778195
0.189882
-0.00722688
0.190912
-0.00666053
0.191883
-0.0060859
0.192795
-0.00550561
0.193648
-0.00492193
0.194443
-0.00433675
0.195179
-0.00375162
0.195857
-0.00316785
0.196477
-0.00258662
0.197039
-0.00200889
0.197543
-0.00143569
0.197988
-0.000867916
0.198376
-0.000306339
0.19871
0.000249492
0.198985
0.000798467
0.00133813
0.178196
-0.0106266
-0.176918
0.179426
-0.0100754
0.180605
-0.00950087
0.181728
-0.00890527
0.182794
-0.00829319
0.183803
-0.00766901
0.184753
-0.00703631
0.185646
-0.0063981
0.186481
-0.00575688
0.187259
-0.00511461
0.18798
-0.00447283
0.188645
-0.00383281
0.189254
-0.00319564
0.189807
-0.00256227
0.190305
-0.00193357
0.190748
-0.00131041
0.191135
-0.00069335
0.191469
-8.51713e-05
0.191749
0.000518962
0.00111272
0.1719
-0.0118768
-0.17065
0.173104
-0.0112797
0.174257
-0.0106536
0.175354
-0.0100023
0.176394
-0.00933276
0.177375
-0.00865059
0.178299
-0.00796
0.179165
-0.00726443
0.179975
-0.00656656
0.180729
-0.00586836
0.181427
-0.00517129
0.182071
-0.00447654
0.18266
-0.00378508
0.183196
-0.00309781
0.183678
-0.00241553
0.184106
-0.00173908
0.184482
-0.00106924
0.184805
-0.000407561
0.185078
0.000245937
0.000893209
0.166202
-0.0131
-0.164978
0.167382
-0.0124595
0.168509
-0.0117812
0.16958
-0.0110727
0.170591
-0.0103446
0.171545
-0.00960373
0.172439
-0.00885493
0.173277
-0.00810213
0.174059
-0.00734811
0.174785
-0.00659475
0.175457
-0.00584336
0.176076
-0.00509498
0.176641
-0.00435047
0.177154
-0.00361062
0.177614
-0.00287618
0.178023
-0.00214798
0.178381
-0.00142654
0.178686
-0.000712601
0.178945
-1.29724e-05
0.000687835
0.161005
-0.0143001
-0.159805
0.162166
-0.0136196
0.163271
-0.0128871
0.164318
-0.0121189
0.165303
-0.0113304
0.166229
-0.0105293
0.167095
-0.00972138
0.167904
-0.00891102
0.168657
-0.00810095
0.169355
-0.00729283
0.17
-0.00648776
0.170591
-0.00568655
0.171131
-0.00488989
0.171618
-0.00409845
0.172055
-0.0033129
0.172441
-0.00253403
0.172777
-0.00176252
0.173064
-0.000999704
0.173299
-0.000247419
0.000498263
0.156231
-0.0154835
-0.155048
0.157379
-0.0147674
0.158469
-0.0139768
0.159495
-0.0131451
0.160457
-0.0122928
0.161357
-0.0114289
0.162196
-0.0105602
0.162976
-0.00969143
0.1637
-0.00882506
0.16437
-0.00796238
0.164986
-0.00710411
0.16555
-0.00625073
0.166063
-0.00540268
0.166525
-0.00456048
0.166937
-0.00372473
0.167299
-0.00289614
0.167612
-0.00207552
0.167876
-0.00126384
0.168091
-0.000462263
0.000329372
0.151818
-0.0166627
-0.150638
0.152963
-0.0159131
0.154043
-0.0150569
0.155054
-0.0141555
0.155995
-0.0132339
0.156869
-0.0123029
0.15768
-0.011371
0.158431
-0.0104427
0.159126
-0.00951974
0.159766
-0.00860279
0.160354
-0.00769195
0.16089
-0.0067872
0.161376
-0.00588864
0.161812
-0.00499658
0.162199
-0.00411151
0.162537
-0.00323409
0.162827
-0.0023651
0.163068
-0.0015054
0.163262
-0.000656255
0.000181255
0.14772
-0.017866
-0.146517
0.148879
-0.0170714
0.149955
-0.0161331
0.150951
-0.0151521
0.15187
-0.014152
0.152715
-0.013148
0.153494
-0.0121504
0.154214
-0.0111621
0.154877
-0.010183
0.155487
-0.00921283
0.156046
-0.00825064
0.156554
-0.00729577
0.157013
-0.00634788
0.157424
-0.00540707
0.157786
-0.0044737
0.1581
-0.00354838
0.158367
-0.0026319
0.158587
-0.00172517
0.15876
-0.000829222
5.32774e-05
0.14391
-0.0191562
-0.14262
0.145101
-0.0182624
0.146173
-0.0172051
0.14715
-0.0161291
0.148037
-0.0150389
0.148845
-0.0139564
0.149587
-0.0128926
0.150271
-0.0118457
0.150901
-0.0108127
0.151479
-0.00979144
0.152009
-0.00878
0.15249
-0.00777682
0.152923
-0.00678114
0.153309
-0.00579288
0.153647
-0.00481234
0.153939
-0.00384015
0.154184
-0.00287713
0.154383
-0.00192435
0.154537
-0.000982927
-5.48258e-05
0.140399
-0.0206004
-0.138955
0.141618
-0.0194812
0.142667
-0.0182544
0.143604
-0.0170652
0.144444
-0.0158791
0.145206
-0.0147184
0.145905
-0.0135916
0.14655
-0.0124906
0.147145
-0.0114078
0.147692
-0.010339
0.148193
-0.00928108
0.148648
-0.0082317
0.149057
-0.00718991
0.14942
-0.00615557
0.149737
-0.00512906
0.150007
-0.00411107
0.150233
-0.00310251
0.150413
-0.0021046
0.150549
-0.00111885
-0.000146941
0.137248
-0.135867
-0.0219822
0.13838
-0.0206129
0.13939
-0.0192648
0.140252
-0.0179266
0.141029
-0.0166558
0.141742
-0.0154317
0.142398
-0.0142482
0.143006
-0.0130981
0.143569
-0.0119706
0.144087
-0.0108579
0.144562
-0.00975588
0.144993
-0.00866211
0.145378
-0.00757563
0.145719
-0.00649644
0.146015
-0.00542511
0.146267
-0.00436251
0.146474
-0.00330966
0.146637
-0.00226765
0.146756
-0.00123813
-0.000227794
0.0296818
0.110726
-0.109295
-0.0311129
0.0282261
0.113817
-0.112361
0.0267429
0.117048
-0.115564
0.0252287
0.12044
-0.118925
0.0236799
0.124025
-0.122476
0.0220934
0.127845
-0.126259
0.0204671
0.131956
-0.13033
0.0187992
0.136435
-0.134767
0.0170887
0.141383
-0.139673
0.0153358
0.146926
-0.145173
0.0135418
0.153219
-0.151425
0.0117106
0.160442
-0.158611
0.00985068
0.168788
-0.166928
0.00797803
0.178437
-0.176565
0.00612145
0.189507
-0.187651
0.00432945
0.201966
-0.200174
0.00267921
0.215492
-0.213841
0.00128744
0.229268
-0.227876
0.000318061
0.241586
-0.240617
0.24943
-0.249112
0.0295257
0.112152
-0.0309516
0.0280752
0.115268
0.0265975
0.118525
0.025089
0.121948
0.0235461
0.125568
0.0219658
0.129425
0.0203457
0.133576
0.0186838
0.138097
0.0169793
0.143087
0.0152322
0.148673
0.0134439
0.155008
0.0116188
0.162268
0.00976569
0.170641
0.00790154
0.180301
0.00605625
0.191353
0.00427978
0.203742
0.00265074
0.217121
0.00128529
0.230633
0.000342363
0.242529
0.249773
0.0293282
0.11357
-0.0307467
0.0278852
0.116711
0.0264152
0.119995
0.0249146
0.123449
0.0233799
0.127103
0.0218078
0.130997
0.020196
0.135188
0.0185426
0.139751
0.0168463
0.144784
0.0151072
0.150412
0.0133271
0.156788
0.0115104
0.164084
0.00966655
0.172485
0.00781324
0.182155
0.00598133
0.193185
0.00422175
0.205502
0.00261363
0.218729
0.00127153
0.231976
0.000346004
0.243455
0.250119
0.0290909
0.114979
-0.0304999
0.0276576
0.118144
0.0261974
0.121455
0.0247068
0.124939
0.0231822
0.128627
0.0216205
0.132559
0.0200191
0.136789
0.018376
0.141394
0.0166901
0.14647
0.0149614
0.152141
0.0131916
0.158558
0.0113856
0.16589
0.00955321
0.174317
0.00771286
0.183995
0.00589617
0.195001
0.00415477
0.207243
0.00256792
0.220316
0.00124855
0.233295
0.000341535
0.244362
0.25046
0.0288159
0.116377
-0.0302134
0.0273941
0.119566
0.0259457
0.122904
0.024467
0.126418
0.0229544
0.13014
0.0214049
0.134109
0.0198157
0.138379
0.018185
0.143024
0.0165114
0.148143
0.0147949
0.153857
0.0130376
0.160315
0.0112444
0.167683
0.00942566
0.176136
0.00760034
0.18582
0.00580084
0.196801
0.0040794
0.208965
0.00251532
0.22188
0.00121991
0.23459
0.000333221
0.245248
0.250794
0.0285056
0.117761
-0.02989
0.027097
0.120974
0.0256619
0.124339
0.0241966
0.127883
0.0226976
0.131639
0.0211619
0.135644
0.0195867
0.139954
0.01797
0.144641
0.0163106
0.149803
0.0146084
0.15556
0.0128654
0.162058
0.0110871
0.169462
0.00928405
0.177939
0.00747588
0.187628
0.00569565
0.198581
0.00399624
0.210664
0.00245681
0.223419
0.00118696
0.23586
0.000322237
0.246113
0.251116
0.0281626
0.119131
-0.0295329
0.0267684
0.122369
0.0253478
0.125759
0.0238973
0.129334
0.0224133
0.133123
0.0208927
0.137165
0.019333
0.141513
0.017732
0.146242
0.0160883
0.151446
0.0144021
0.157246
0.0126755
0.163785
0.0109139
0.171223
0.00912865
0.179724
0.00733972
0.189417
0.00558092
0.20034
0.00390562
0.212339
0.0023928
0.224932
0.00115025
0.237103
0.000309283
0.246954
0.251425
0.0277897
0.120487
-0.0291451
0.0264105
0.123748
0.0250054
0.127164
0.0235706
0.130769
0.0221026
0.134591
0.0205984
0.138669
0.0190554
0.143057
0.0174714
0.147826
0.0158451
0.153073
0.0141766
0.158914
0.012468
0.165493
0.0107252
0.172966
0.00895971
0.18149
0.00719213
0.191185
0.0054569
0.202075
0.00380782
0.213988
0.00232363
0.226416
0.0011103
0.238316
0.000294956
0.247769
0.25172
0.0273896
0.121827
-0.0287301
0.0260257
0.125112
0.0246364
0.128554
0.0232178
0.132187
0.0217666
0.136042
0.0202797
0.140156
0.0187545
0.144582
0.0171888
0.149392
0.0155813
0.15468
0.0139321
0.160564
0.0122434
0.167182
0.0105212
0.174688
0.00877744
0.183234
0.00703333
0.192929
0.00532382
0.203785
0.00370315
0.215609
0.00224968
0.22787
0.00106756
0.239498
0.000279671
0.248557
0.252
0.0269648
0.123154
-0.0282911
0.0256159
0.126461
0.0242423
0.129927
0.0228401
0.133589
0.0214061
0.137476
0.0199372
0.141625
0.0184308
0.146088
0.0168846
0.150938
0.0152972
0.156267
0.0136688
0.162192
0.0120016
0.168849
0.010302
0.176388
0.00858202
0.184954
0.0068635
0.194648
0.00518193
0.205466
0.00359186
0.217199
0.00217129
0.22929
0.00102242
0.240647
0.000263673
0.249316
0.252263
0.0265177
0.124467
-0.0278312
0.0251826
0.127796
0.0238241
0.131286
0.0224382
0.134975
0.0210216
0.138893
0.0195713
0.143075
0.0180844
0.147575
0.0165587
0.152464
0.0149929
0.157833
0.0133868
0.163798
0.011743
0.170493
0.0100677
0.178063
0.00837359
0.186648
0.00668282
0.196338
0.00503143
0.207117
0.00347424
0.218756
0.00208874
0.230676
0.000975133
0.241761
0.000247123
0.250044
0.252511
0.0260496
0.12577
-0.0273527
0.0247266
0.129119
0.023382
0.132631
0.0220119
0.136345
0.0206128
0.140292
0.0191815
0.144507
0.017715
0.149041
0.0162111
0.153968
0.0146682
0.159376
0.0130861
0.16538
0.0114673
0.172112
0.00981839
0.179712
0.00815222
0.188314