/*--------------------------------*- C++ -*----------------------------------*\
  =========                 |
  \\      /  F ield         | OpenFOAM: The Open Source CFD Toolbox
   \\    /   O peration     | Website:  https://openfoam.org
    \\  /    A nd           | Version:  6.0
     \\/     M anipulation  |
\*---------------------------------------------------------------------------*/
FoamFile
{
    version     2.0;
    format      ascii;
    class       volVectorField;
    location    "3.5";
    object      U;
}
// * * * * * * * * * * * * * * * * * * * * * * * * * * * * * * * * * * * * * //

dimensions      [0 1 -1 0 0 0 0];

internalField   nonuniform List<vector> 
2400
(
(1.41114 -8.80251 -6.36663e-19)
(0.262311 -7.99049 2.41186e-19)
(0.272385 -7.25781 -1.6915e-19)
(0.351175 -6.55987 -8.74915e-20)
(0.353405 -5.92039 -1.13883e-19)
(0.345008 -5.33617 1.53925e-19)
(0.338242 -4.80804 4.82674e-20)
(0.331886 -4.33716 2.90849e-20)
(0.329703 -3.92134 -6.517e-20)
(0.322406 -3.55668 -3.64047e-21)
(2.10039 -8.67823 7.47385e-19)
(0.895004 -7.97779 -1.31145e-20)
(0.848505 -7.25299 1.47036e-19)
(0.871872 -6.54988 8.58436e-19)
(0.823126 -5.90836 -5.41124e-19)
(0.768197 -5.32263 -2.86441e-20)
(0.71958 -4.7937 -5.23849e-21)
(0.676345 -4.32329 -4.89744e-20)
(0.642245 -3.909 -5.91138e-20)
(0.606955 -3.54743 -2.04914e-21)
(2.77997 -8.50141 1.28813e-18)
(1.5271 -7.91606 9.04296e-19)
(1.42497 -7.20268 -2.10566e-18)
(1.39233 -6.49833 5.64413e-19)
(1.29208 -5.85872 6.71863e-19)
(1.19018 -5.27531 -3.76126e-19)
(1.09947 -4.74917 -2.4773e-19)
(1.01938 -4.28253 1.6339e-19)
(0.953495 -3.87284 -3.22944e-19)
(0.890269 -3.51753 3.10553e-19)
(3.4449 -8.27241 -4.41479e-18)
(2.15496 -7.80528 1.39188e-18)
(1.99819 -7.10693 -1.29368e-18)
(1.90908 -6.4053 4.90019e-19)
(1.75698 -5.77158 -4.47573e-19)
(1.6079 -5.19435 5.54579e-19)
(1.47508 -4.67461 1.44998e-19)
(1.35834 -4.21497 -7.07958e-19)
(1.26104 -3.81291 -5.05656e-19)
(1.1702 -3.46717 5.29216e-19)
(4.09169 -7.99215 2.83494e-19)
(2.77467 -7.6452 -5.53838e-19)
(2.56429 -6.96541 -2.26192e-19)
(2.41842 -6.27061 -2.55816e-19)
(2.21441 -5.64686 -1.11124e-18)
(2.01819 -5.07977 1.48889e-19)
(1.84343 -4.57003 -8.38009e-20)
(1.69044 -4.12056 6.90069e-19)
(1.56218 -3.72909 -4.63307e-19)
(1.44425 -3.39615 -2.37968e-19)
(4.71616 -7.66186 3.79345e-18)
(3.38219 -7.43618 -2.69384e-19)
(3.11939 -6.77847 3.31803e-18)
(2.91676 -6.09469 -4.54981e-19)
(2.66108 -5.4851 1.29288e-18)
(2.41809 -4.93214 -1.63715e-19)
(2.20184 -4.43599 1.77982e-20)
(2.01306 -3.99975 5.98238e-19)
(1.85433 -3.62154 -3.1344e-19)
(1.71002 -3.30414 3.76742e-19)
(5.31467 -7.2832 -1.54096e-18)
(3.97363 -7.17886 2.07876e-19)
(3.65959 -6.54655 -9.26361e-19)
(3.40038 -5.87803 -6.50257e-19)
(3.09362 -5.28688 8.30909e-20)
(2.80467 -4.75219 1.85859e-18)
(2.54785 -4.27341 -6.38387e-19)
(2.32419 -3.85351 1.52905e-19)
(2.13583 -3.49104 -7.64218e-19)
(1.9663 -3.19159 -2.99626e-19)
(5.8838 -6.85828 6.04769e-18)
(4.54524 -6.87417 -8.95067e-19)
(4.18104 -6.27036 -4.62237e-18)
(3.8655 -5.62129 2.26964e-19)
(3.50834 -5.05278 6.73051e-19)
(3.17438 -4.5405 -8.72253e-19)
(2.87824 -4.08295 -9.39719e-19)
(2.62129 -3.68267 1.32906e-18)
(2.40504 -3.33885 -1.2492e-19)
(2.21237 -3.0617 -8.83811e-19)
(6.42053 -6.38934 -4.99161e-18)
(5.09373 -6.5232 2.34211e-18)
(4.68034 -5.95091 2.90466e-18)
(4.30875 -5.3254 6.078e-19)
(3.90181 -4.78344 -1.94431e-18)
(3.52336 -4.29715 1.09839e-18)
(3.18831 -3.86393 5.22415e-19)
(2.89854 -3.48605 9.91163e-19)
(2.65489 -3.16499 -6.51414e-19)
(2.44032 -2.9189 -7.62507e-19)
(6.92104 -5.87793 1.6057e-18)
(5.61543 -6.12717 -5.9007e-19)
(5.1544 -5.58975 -2.13873e-19)
(4.72777 -4.99209 5.23582e-19)
(4.27233 -4.4802 3.65901e-19)
(3.85024 -4.02254 -2.94065e-19)
(3.47572 -3.6153 -4.27213e-19)
(3.14984 -3.26124 6.58588e-19)
(2.87139 -2.96662 -4.95978e-19)
(2.62761 -2.75533 4.46912e-19)
(9.25791 0.772573 8.40267e-20)
(9.26835 0.0414185 2.76998e-19)
(9.22169 -0.685647 -8.37882e-19)
(9.1177 -1.40476 7.77561e-19)
(8.95697 -2.11218 3.25131e-19)
(8.7422 -2.80316 4.04165e-18)
(8.47469 -3.47379 -1.63924e-18)
(8.15686 -4.12001 -2.30238e-18)
(7.79028 -4.73854 2.68328e-18)
(7.37955 -5.32509 -4.66741e-18)
(8.57541 -0.372919 2.08887e-19)
(8.50156 -1.04105 -1.19042e-19)
(8.37457 -1.69833 -6.36205e-19)
(8.19458 -2.34101 1.74284e-18)
(7.9612 -2.96651 -6.02834e-19)
(7.6785 -3.56984 4.74149e-18)
(7.34871 -4.14713 -3.24733e-18)
(6.97483 -4.69463 4.58641e-18)
(6.55916 -5.20918 -3.33381e-18)
(6.10532 -5.68791 -1.68607e-18)
(7.79843 -0.354595 -3.80716e-19)
(7.74193 -0.95668 -3.51651e-21)
(7.63592 -1.55145 -1.62429e-18)
(7.48008 -2.13487 1.22605e-18)
(7.2747 -2.70382 -1.38639e-18)
(7.02292 -3.25376 -2.78576e-18)
(6.72712 -3.78072 -9.96606e-19)
(6.38906 -4.28099 -5.58835e-19)
(6.01211 -4.75154 2.97905e-18)
(5.59986 -5.18896 1.85598e-18)
(6.99252 -0.258269 1.42939e-19)
(6.95591 -0.793726 -2.4654e-19)
(6.87412 -1.32525 -3.39731e-19)
(6.74692 -1.84881 -1.44751e-18)
(6.57538 -2.36107 1.02667e-18)
(6.3609 -2.85808 2.70004e-18)
(6.10538 -3.33607 1.04561e-18)
(5.81195 -3.79194 2.40455e-19)
(5.48294 -4.22235 6.31432e-19)
(5.12016 -4.62341 1.58833e-19)
(6.25478 -0.236392 -1.37743e-19)
(6.22671 -0.711022 -5.45808e-19)
(6.15816 -1.1834 3.14599e-20)
(6.04895 -1.64993 1.08725e-18)
(5.90022 -2.10731 1.21097e-18)
(5.71311 -2.55223 -8.29155e-19)
(5.48934 -2.98159 -1.42489e-18)
(5.23055 -3.3926 -7.7186e-19)
(4.93987 -3.78144 7.9266e-19)
(4.61921 -4.1451 1.38063e-18)
(5.60733 -0.223128 3.85381e-20)
(5.58329 -0.644347 4.35846e-19)
(5.52318 -1.06413 -1.02523e-18)
(5.4269 -1.47942 1.23255e-18)
(5.29525 -1.88713 7.58287e-19)
(5.12903 -2.28472 1.47846e-18)
(4.93065 -2.66928 -3.11616e-19)
(4.70025 -3.03872 -9.12481e-19)
(4.44216 -3.38896 2.11565e-18)
(4.15695 -3.71842 -1.90528e-18)
(5.0484 -0.207435 6.10337e-20)
(5.02643 -0.582328 -4.31985e-19)
(4.97222 -0.956214 -2.91053e-19)
(4.88559 -1.32643 -6.48477e-19)
(4.7674 -1.69023 -9.22907e-20)
(4.61802 -2.04588 -9.05232e-19)
(4.44006 -2.39026 -6.12004e-19)
(4.23247 -2.72279 -8.54422e-20)
(4.00214 -3.03837 -1.22886e-18)
(3.74608 -3.33826 1.66979e-18)
(4.5699 -0.192278 -4.66177e-20)
(4.54898 -0.527452 3.53103e-19)
(4.49905 -0.86177 -1.60565e-19)
(4.41981 -1.19289 3.40419e-19)
(4.31234 -1.5184 8.1693e-19)
(4.1761 -1.83713 1.39897e-18)
(4.01468 -2.14587 -3.56722e-19)
(3.82504 -2.44653 -1.32986e-18)
(3.61822 -2.73167 4.14217e-19)
(3.38428 -3.00833 -2.46194e-18)
(4.16236 -0.176691 6.42736e-20)
(4.14218 -0.478559 -7.88531e-20)
(4.09558 -0.779656 -7.40723e-19)
(4.02209 -1.07788 2.23905e-19)
(3.92328 -1.37107 -5.5346e-19)
(3.79743 -1.65847 -2.47255e-19)
(3.64928 -1.93684 -1.42281e-19)
(3.47255 -2.21128 6.33007e-19)
(3.28475 -2.4716 5.74906e-19)
(3.06256 -2.73782 5.04017e-19)
(3.81679 -0.165666 -1.42373e-19)
(3.79687 -0.438806 2.4812e-19)
(3.75283 -0.711897 1.27707e-19)
(3.68388 -0.983099 3.39961e-19)
(3.59184 -1.25034 -3.4108e-20)
(3.47374 -1.51313 -2.8765e-20)
(3.33569 -1.76803 -8.19205e-19)
(3.16593 -2.02264 1.12517e-18)
(2.99104 -2.26296 -7.24607e-19)
(2.76803 -2.53847 2.28012e-19)
(6.03439 7.11938 -2.59519e-18)
(6.58038 6.62948 2.69362e-18)
(7.08456 6.09773 -1.83104e-19)
(7.54318 5.52729 -4.41058e-18)
(7.9529 4.91998 3.22084e-18)
(8.31115 4.28107 -2.23087e-18)
(8.6152 3.61475 -4.92321e-19)
(8.86337 2.92612 -4.74948e-19)
(9.05337 2.21934 7.35099e-19)
(9.18593 1.50111 5.40869e-20)
(6.27684 5.65504 2.66374e-18)
(6.72614 5.17248 4.51421e-19)
(7.1345 4.65336 -2.64024e-18)
(7.49797 4.10096 -2.70968e-18)
(7.81309 3.51739 2.36348e-18)
(8.07746 2.90733 -1.82471e-18)
(8.28882 2.27534 2.00773e-18)
(8.44551 1.62639 -5.85181e-19)
(8.54486 0.964844 -1.66091e-18)
(8.58914 0.297284 -1.07207e-19)
(5.64565 4.98168 -5.90947e-19)
(6.05383 4.5646 -4.57273e-19)
(6.42692 4.11258 1.51151e-18)
(6.76078 3.62851 1.28465e-18)
(7.05259 3.11525 2.75573e-18)
(7.29967 2.57628 8.48677e-19)
(7.49996 2.01572 -5.94323e-19)
(7.65124 1.43778 -1.31822e-18)
(7.75135 0.846527 1.06668e-18)
(7.80121 0.247875 8.12191e-20)
(4.98516 4.40523 4.86313e-19)
(5.35233 4.04765 -1.30733e-18)
(5.68952 3.65803 -5.17984e-19)
(5.9932 3.23899 -2.21371e-18)
(6.26087 2.79314 -1.19373e-18)
(6.48993 2.32328 2.07165e-18)
(6.67848 1.83291 1.37936e-18)
(6.82427 1.32556 -1.16046e-18)
(6.92563 0.804912 4.79685e-20)
(6.98224 0.275804 -4.97736e-20)
(4.45589 3.86342 -1.90205e-18)
(4.78136 3.5514 2.09067e-18)
(5.08039 3.2111 -5.22383e-19)
(5.35023 2.84423 1.06846e-18)
(5.5887 2.45328 -6.8073e-19)
(5.79348 2.04072 -1.23132e-18)
(5.96287 1.60954 5.24681e-19)
(6.09486 1.16277 -5.80065e-19)
(6.18813 0.703708 -5.72589e-19)
(6.24177 0.236247 2.39104e-19)
(4.0101 3.39887 -2.21438e-19)
(4.29896 3.1242 3.55001e-19)
(4.56408 2.82511 -4.26682e-19)
(4.80326 2.50211 -1.94674e-18)
(5.01455 2.15715 1.0625e-18)
(5.19612 1.79281 1.68406e-19)
(5.34641 1.41171 -9.22622e-19)
(5.46374 1.01653 -3.02253e-19)
(5.547 0.610233 2.90998e-19)
(5.59508 0.19604 -9.01027e-20)
(3.62938 3.00552 -8.25615e-19)
(3.88848 2.76355 2.31413e-20)
(4.12483 2.49979 3.83443e-19)
(4.33712 2.21394 1.04093e-18)
(4.52434 1.90811 2.02879e-19)
(4.68522 1.58478 5.14919e-19)
(4.81831 1.24628 1.01874e-18)
(4.92216 0.895103 -4.17866e-19)
(4.99576 0.533932 3.50389e-19)
(5.038 0.165536 -1.36398e-19)
(3.30511 2.67299 -3.34107e-19)
(3.53883 2.4604 3.19857e-19)
(3.75064 2.22638 2.77378e-19)
(3.93951 1.9716 -4.79011e-19)
(4.1059 1.69885 -2.61615e-19)
(4.24894 1.4101 -5.45862e-19)
(4.36729 1.10752 5.08814e-20)
(4.45955 0.793534 -1.17673e-19)
(4.5247 0.470614 -7.33704e-19)
(4.56163 0.141208 9.75598e-20)
(3.03 2.39471 -1.33531e-19)
(3.23495 2.21062 -4.87804e-19)
(3.42507 2.00039 -2.38859e-19)
(3.5953 1.77103 8.39356e-20)
(3.74516 1.52604 -4.53527e-20)
(3.87418 1.2664 4.79418e-19)
(3.98108 0.993969 1.88436e-19)
(4.06442 0.711169 2.75624e-19)
(4.12303 0.420335 3.30986e-19)
(4.15582 0.123656 -1.3508e-19)
(2.82043 2.13936 -3.37764e-19)
(2.98662 1.97821 5.8177e-19)
(3.15206 1.78795 -9.50154e-19)
(3.30709 1.58216 -3.31687e-20)
(3.44334 1.36373 7.84948e-19)
(3.55966 1.13191 3.63319e-20)
(3.65591 0.887975 3.49473e-19)
(3.73092 0.634172 -7.30762e-19)
(3.78339 0.372677 -6.52982e-21)
(3.81216 0.10544 6.53882e-20)
(0.434768 2.83394 7.68961e-21)
(0.42663 3.19775 -3.65716e-21)
(0.429918 3.61358 -5.79489e-21)
(0.430876 4.08637 4.88806e-20)
(0.430054 4.62594 -1.66021e-20)
(0.424059 5.25008 -1.10541e-19)
(0.420972 5.98708 1.56763e-19)
(0.48548 6.86953 6.35511e-20)
(0.46513 7.88927 1.20727e-19)
(-0.725057 9.03877 5.08829e-19)
(0.681191 2.84606 1.54788e-20)
(0.699474 3.20568 -8.5399e-20)
(0.732218 3.61814 1.00233e-19)
(0.76794 4.08965 2.8018e-20)
(0.807518 4.62979 -7.37856e-20)
(0.848623 5.25602 7.35254e-20)
(0.901339 5.99498 3.93557e-19)
(1.03262 6.87176 -5.34799e-19)
(1.08863 7.88467 3.70519e-20)
(-0.0139592 9.09825 -6.13701e-19)
(0.930057 2.84107 1.16442e-19)
(0.974076 3.19478 -1.67433e-19)
(1.03584 3.60164 -9.16551e-20)
(1.1063 4.06901 -1.55697e-20)
(1.18657 4.60639 -1.45071e-19)
(1.27532 5.23091 -8.48422e-20)
(1.38439 5.96736 1.35108e-19)
(1.58195 6.83304 3.82228e-19)
(1.71319 7.83207 3.33871e-19)
(0.700971 9.10211 -1.08034e-18)
(1.18056 2.81817 1.34821e-19)
(1.24933 3.16439 -1.51346e-19)
(1.33946 3.5635 -2.17505e-19)
(1.44435 4.02387 7.67084e-20)
(1.56523 4.55506 7.87116e-19)
(1.70173 5.17383 -3.62607e-19)
(1.86728 5.903 3.34083e-19)
(2.13034 6.75216 -1.30613e-18)
(2.33511 7.73072 -1.52591e-18)
(1.41557 9.04987 2.05733e-18)
(1.43158 2.77687 9.65594e-20)
(1.5238 3.11414 -9.40122e-20)
(1.64138 3.50342 2.56232e-19)
(1.78017 3.9539 -2.69555e-19)
(1.94135 4.47544 2.35966e-19)
(2.12545 5.08439 2.22698e-19)
(2.34721 5.80133 2.33035e-19)
(2.6748 6.6282 1.93807e-19)
(2.95093 7.58018 1.00857e-18)
(2.12614 8.94071 9.60292e-19)
(1.68217 2.71663 -3.42932e-19)
(1.79629 3.04376 -1.14959e-19)
(1.94021 3.42118 5.17564e-19)
(2.11205 3.85887 -6.22151e-19)
(2.31284 4.36724 -3.47401e-19)
(2.54395 4.96226 -9.5481e-19)
(2.8212 5.66211 4.73872e-21)
(3.21154 6.46069 -1.22784e-18)
(3.55661 7.37975 -1.88498e-19)
(2.82754 8.77482 -2.86943e-18)
(1.92977 2.63795 5.75423e-19)
(2.06384 2.95339 -1.05438e-18)
(2.23298 3.31677 5.93275e-19)
(2.4372 3.73874 3.18329e-19)
(2.677 4.23042 -9.32965e-20)
(2.95439 4.80726 1.33889e-18)
(3.28616 5.4851 -8.31964e-19)
(3.73691 6.24929 -2.53922e-18)
(4.14749 7.13023 -4.57623e-19)
(3.51527 8.55247 2.58676e-18)
(2.1748 2.54031 -2.67222e-20)
(2.32663 2.84318 5.03326e-19)
(2.5191 3.19016 -2.51505e-19)
(2.75416 3.59335 3.23721e-19)
(3.03159 4.06482 3.35583e-19)
(3.354 4.61948 -6.1976e-19)
(3.7386 5.27007 5.04022e-19)
(4.24706 5.99521 -1.31878e-18)
(4.71938 6.83246 3.40186e-18)
(4.18438 8.27477 -1.38247e-18)
(2.40549 2.4258 -3.32637e-19)
(2.57488 2.71311 -2.0263e-19)
(2.79234 3.0415 7.64103e-19)
(3.05913 3.42307 -1.26045e-18)
(3.37355 3.87086 1.34515e-18)
(3.73962 4.39921 -7.50495e-19)
(4.17507 5.01768 -1.35462e-18)
(4.73815 5.69865 4.51485e-19)
(5.2677 6.4855 -6.09664e-18)
(4.83036 7.94145 4.86234e-18)
(2.63829 2.29945 8.59827e-19)
(2.81542 2.56305 -7.61047e-19)
(3.05465 2.86951 8.55814e-19)
(3.35107 3.22728 -5.19955e-20)
(3.70034 3.64865 -1.0432e-18)
(4.10764 4.14655 -5.80646e-19)
(4.59164 4.72895 6.73855e-19)
(5.2057 5.36021 2.05831e-18)
(5.78871 6.09311 2.91195e-18)
(5.4481 7.55793 1.34514e-20)
(-1.74398 2.01054 1.13727e-19)
(-1.98894 2.26011 -5.45608e-20)
(-2.25527 2.55337 -3.41822e-20)
(-2.55648 2.88528 8.78065e-20)
(-2.89917 3.2597 2.03698e-19)
(-3.29623 3.68556 4.45375e-19)
(-3.76051 4.18976 9.30442e-19)
(-4.27542 4.84854 6.59275e-19)
(-4.97062 5.58176 1.12309e-18)
(-6.68866 5.70326 -8.15975e-19)
(-1.5731 2.13231 -3.81056e-20)
(-1.79915 2.41556 5.60977e-20)
(-2.03911 2.73723 -4.54579e-21)
(-2.31279 3.09375 -5.24207e-20)
(-2.62624 3.4945 -2.88391e-19)
(-2.9917 3.95128 7.5274e-19)
(-3.4201 4.49231 -5.01454e-19)
(-3.88833 5.19205 -1.4685e-18)
(-4.53 5.97842 -1.34184e-18)
(-6.23316 6.22549 2.05446e-18)
(-1.3783 2.24549 6.57099e-20)
(-1.58589 2.55558 2.09871e-20)
(-1.80321 2.90169 -1.14355e-19)
(-2.05134 3.28189 1.31198e-19)
(-2.33576 3.70824 2.30717e-19)
(-2.66838 4.19463 -2.25511e-19)
(-3.05853 4.77043 -1.72333e-20)
(-3.47718 5.50786 2.3569e-18)
(-4.06117 6.34272 6.42362e-19)
(-5.73908 6.71219 -1.56251e-18)
(-1.17259 2.35531 1.69122e-19)
(-1.35947 2.68397 1.89865e-20)
(-1.55304 3.04979 5.29928e-20)
(-1.77463 3.45129 1.65864e-19)
(-2.02891 3.90126 -5.10929e-19)
(-2.32711 4.41509 -9.39236e-20)
(-2.67674 5.02305 8.50513e-20)
(-3.04311 5.79458 -3.31443e-21)
(-3.56588 6.67319 -6.37191e-20)
(-5.20923 7.16139 1.97511e-18)
(-0.959678 2.45833 -1.30771e-19)
(-1.12385 2.80053 2.18529e-20)
(-1.29204 3.18237 -7.16407e-20)
(-1.48547 3.60244 -1.73507e-20)
(-1.70788 4.07352 6.14889e-20)
(-1.96967 4.61217 -4.5374e-19)
(-2.27632 5.24937 2.38825e-19)
(-2.58757 6.05086 -1.81239e-19)
(-3.04582 6.96815 -5.64175e-21)
(-4.64573 7.57027 -2.43683e-18)
(-0.740147 2.55163 1.02307e-20)
(-0.880116 2.90408 3.71522e-20)
(-1.02162 3.29879 -7.27972e-20)
(-1.18545 3.73474 1.79861e-20)
(-1.37438 4.22436 -5.48881e-20)
(-1.59776 4.78507 4.46284e-19)
(-1.85893 5.44825 1.37644e-19)
(-2.1125 6.27546 1.19946e-19)
(-2.50305 7.22572 6.09154e-19)
(-4.05115 7.93604 4.7829e-19)
(-0.514578 2.63397 3.27384e-21)
(-0.62922 2.99377 1.0638e-20)
(-0.742975 3.3983 3.91622e-22)
(-0.875878 3.84739 2.70119e-19)
(-1.02979 4.35291 -1.81715e-19)
(-1.21287 4.93281 1.91359e-19)
(-1.42625 5.61856 -2.40863e-19)
(-1.61974 6.46695 7.41635e-19)
(-1.93968 7.44395 7.4135e-19)
(-3.42841 8.25622 9.88499e-19)
(-0.28371 2.70448 -1.32567e-20)
(-0.372213 3.06885 2.43353e-20)
(-0.457359 3.48024 -2.52971e-20)
(-0.558102 3.9396 -3.48003e-20)
(-0.675509 4.4582 1.63382e-19)
(-0.816524 5.05421 -2.92218e-19)
(-0.97995 5.75884 -2.98864e-19)
(-1.11127 6.62356 1.22713e-18)
(-1.3584 7.62102 -2.65144e-19)
(-2.7812 8.52871 -1.15148e-18)
(-0.0481959 2.76212 -6.4322e-21)
(-0.110037 3.12852 1.46863e-20)
(-0.165958 3.54398 1.59636e-20)
(-0.233499 4.01072 2.25029e-22)
(-0.313065 4.53944 -1.05846e-19)
(-0.410366 5.1483 4.02418e-19)
(-0.521862 5.86789 -4.83535e-19)
(-0.58922 6.74392 -1.03993e-19)
(-0.761906 7.75533 -1.67184e-21)
(-2.1123 8.75116 -8.77883e-19)
(0.191472 2.80561 9.17748e-21)
(0.156523 3.17173 5.42446e-21)
(0.130173 3.58861 -6.19827e-21)
(0.0966245 4.05981 -2.1159e-20)
(0.0560076 4.59555 -7.50748e-20)
(0.00380422 5.21384 5.83923e-20)
(-0.0541481 5.94429 4.76989e-20)
(-0.056124 6.82638 1.04996e-19)
(-0.153229 7.84567 -1.80126e-19)
(-1.42671 8.92227 1.86472e-19)
(-1.87427 1.85947 1.80398e-19)
(-2.047 1.6483 -4.97059e-20)
(-2.19921 1.44827 -2.75395e-20)
(-2.34363 1.24327 1.40619e-19)
(-2.47243 1.03311 8.83683e-20)
(-2.58729 0.817356 1.29212e-20)
(-2.68659 0.596155 1.67164e-20)
(-2.76977 0.36996 -2.04892e-20)
(-2.83589 0.139263 -4.50525e-21)
(-2.88426 -0.0953259 5.0919e-21)
(-2.15405 2.08158 -4.59599e-20)
(-2.33775 1.86712 6.01542e-20)
(-2.50475 1.65192 -5.49537e-20)
(-2.66186 1.42784 -4.45283e-20)
(-2.80342 1.19669 1.76457e-20)
(-2.92967 0.958111 2.90828e-20)
(-3.0388 0.712464 -2.15916e-21)
(-3.12997 0.460366 2.77135e-20)
(-3.20204 0.202541 1.32244e-20)
(-3.25418 -0.0601132 -8.44123e-21)
(-2.45542 2.34746 1.04607e-19)
(-2.65526 2.12085 -2.61025e-21)
(-2.8396 1.88605 -1.90678e-20)
(-3.01143 1.63931 -6.99331e-21)
(-3.16664 1.38316 -1.12287e-19)
(-3.30463 1.1177 -6.22768e-20)
(-3.42359 0.843712 -4.95053e-20)
(-3.52246 0.562075 2.7261e-20)
(-3.60001 0.273807 -7.45716e-20)
(-3.65535 -0.0198978 9.08677e-21)
(-2.78578 2.65582 9.60351e-21)
(-3.00587 2.40843 2.18449e-19)
(-3.20952 2.14843 -1.51085e-20)
(-3.39771 1.87473 1.04384e-19)
(-3.56738 1.58956 1.33834e-19)
(-3.71758 1.29349 1.71479e-20)
(-3.84659 0.987624 1.59095e-19)
(-3.95322 0.673082 6.95045e-20)
(-4.03621 0.351135 9.42412e-20)
(-4.09461 0.0232138 -2.01655e-20)
(-3.15639 3.00416 4.7539e-19)
(-3.39907 2.73008 -5.52998e-19)
(-3.62336 2.44029 -6.09228e-20)
(-3.82919 2.13542 8.51984e-20)
(-4.01421 1.81728 -7.95752e-20)
(-4.17729 1.48686 -2.10145e-19)
(-4.31682 1.14549 -3.54461e-19)
(-4.43151 0.794472 3.37511e-19)
(-4.5201 0.435315 -3.19914e-20)
(-4.58157 0.0696552 -2.22192e-20)
(-3.58245 3.39831 -1.16255e-18)
(-3.85002 3.09137 6.42368e-19)
(-4.09656 2.7665 2.57226e-19)
(-4.32146 2.42517 2.80487e-20)
(-4.52282 2.069 3.16272e-19)
(-4.69944 1.69931 -4.81822e-19)
(-4.84979 1.31761 -4.38129e-19)
(-4.97255 0.925414 -3.26344e-21)
(-5.06642 0.524421 8.01075e-20)
(-5.13036 0.116481 5.64342e-20)
(-4.07938 3.8641 -4.7406e-19)
(-4.37573 3.51722 -2.42582e-19)
(-4.64762 3.15051 -1.03061e-19)
(-4.89427 2.76593 3.51601e-19)
(-5.11407 2.36504 -1.13087e-18)
(-5.3058 1.94948 -5.00508e-19)
(-5.46801 1.52091 6.21476e-19)
(-5.59935 1.08108 1.39477e-19)
(-5.69853 0.631871 1.13144e-19)
(-5.76446 0.175322 -6.92007e-20)
(-4.63713 4.47892 -1.48767e-18)
(-4.97188 4.08576 -1.46332e-18)
(-5.27795 3.6705 2.3137e-18)
(-5.55452 3.23546 4.66266e-19)
(-5.80027 2.78229 1.91352e-18)
(-6.01388 2.31293 3.22776e-20)
(-6.194 1.82924 -5.9058e-19)
(-6.33925 1.33323 7.92151e-19)
(-6.44838 0.826948 2.24688e-20)
(-6.52019 0.312589 2.04754e-19)
(-5.38004 5.15453 2.85173e-20)
(-5.75598 4.70059 2.30245e-18)
(-6.09781 4.22207 -2.3686e-18)
(-6.40439 3.7216 1.78049e-18)
(-6.67475 3.20112 -2.46713e-18)
(-6.90738 2.66302 3.12031e-19)
(-7.10108 2.10957 -9.5457e-19)
(-7.25459 1.54318 3.26844e-19)
(-7.36682 0.966176 6.92136e-20)
(-7.43637 0.381081 -1.16209e-19)
(-7.10087 5.14686 7.35e-19)
(-7.46548 4.56421 -2.06614e-18)
(-7.78637 3.9565 9.36593e-19)
(-8.06029 3.32813 -8.25362e-19)
(-8.28689 2.68179 3.79903e-19)
(-8.46464 2.02105 1.85569e-18)
(-8.59286 1.34924 2.32536e-19)
(-8.67093 0.669854 5.30448e-19)
(-8.69852 -0.0137235 -2.70951e-19)
(-8.67463 -0.698073 -6.27855e-20)
(-2.91426 -0.33309 -7.56467e-22)
(-2.92553 -0.573154 -1.30241e-20)
(-2.91775 -0.81438 1.28241e-19)
(-2.89101 -1.05533 -8.60226e-20)
(-2.84535 -1.29414 6.83492e-21)
(-2.78065 -1.52871 -1.18543e-19)
(-2.69575 -1.75743 5.13931e-19)
(-2.58809 -1.97949 7.83995e-20)
(-2.45677 -2.1902 -2.00712e-19)
(-2.30739 -2.38276 3.90241e-19)
(-3.28565 -0.326582 2.18391e-20)
(-3.29597 -0.595645 -7.01711e-20)
(-3.28461 -0.865824 -5.38431e-20)
(-3.25148 -1.13541 -5.41742e-20)
(-3.19644 -1.40237 -1.78789e-19)
(-3.11943 -1.66449 -3.25748e-20)
(-3.02 -1.9197 -7.97183e-21)
(-2.89592 -2.16563 2.57621e-19)
(-2.74354 -2.39846 4.23273e-19)
(-2.56553 -2.62077 1.98071e-20)
(-3.68768 -0.317742 -2.27856e-20)
(-3.6964 -0.618197 2.12371e-19)
(-3.68088 -0.919513 3.72632e-20)
(-3.64093 -1.21973 -6.68589e-21)
(-3.57628 -1.51669 2.05663e-19)
(-3.48687 -1.80813 1.09744e-19)
(-3.37242 -2.0917 2.383e-19)
(-3.23167 -2.36447 -1.02068e-19)
(-3.06287 -2.62442 -4.28507e-19)
(-2.86743 -2.87648 -1.07058e-18)
(-4.12756 -0.30915 4.57557e-20)
(-4.13437 -0.644183 -1.06231e-19)
(-4.11431 -0.979921 1.62969e-19)
(-4.06715 -1.31424 -4.38304e-19)
(-3.99257 -1.64488 -2.34358e-19)
(-3.89051 -1.96953 -7.9839e-20)
(-3.76071 -2.28571 -5.71743e-19)
(-3.60268 -2.59064 -2.18945e-19)
(-3.41642 -2.88308 -2.05769e-20)
(-3.20376 -3.16538 3.78408e-19)
(-4.61502 -0.300765 4.29865e-20)
(-4.61967 -0.673959 1.79839e-20)
(-4.59471 -1.04777 1.26459e-19)
(-4.53991 -1.41994 4.51061e-19)
(-4.45494 -1.78805 -8.49875e-20)
(-4.33975 -2.14968 -7.36292e-19)
(-4.19415 -2.50223 1.17353e-18)
(-4.01813 -2.84319 -3.50529e-19)
(-3.81239 -3.17116 -3.69803e-19)
(-3.57881 -3.4859 -1.59296e-19)
(-5.16341 -0.296453 -1.05989e-19)
(-5.16478 -0.71218 1.28848e-19)
(-5.13356 -1.12835 2.96459e-19)
(-5.06954 -1.5425 -2.54666e-19)
(-4.97241 -1.95208 7.38605e-19)
(-4.84212 -2.35444 -8.12676e-20)
(-4.67866 -2.74694 7.30001e-20)
(-4.48229 -3.12706 3.83788e-19)
(-4.25388 -3.49291 2.18893e-19)
(-3.9951 -3.84274 1.68704e-19)
(-5.79615 -0.286367 2.49813e-20)
(-5.79282 -0.750659 -2.40286e-20)
(-5.75349 -1.215 6.64227e-19)
(-5.67802 -1.67668 -7.89344e-19)
(-5.56612 -2.13296 -1.24507e-18)
(-5.41781 -2.58094 7.55468e-19)
(-5.23328 -3.01784 -3.32032e-19)
(-5.01299 -3.44099 3.90425e-19)
(-4.75788 -3.84803 1.03551e-18)
(-4.46941 -4.23644 -9.42927e-19)
(-6.55353 -0.207231 -4.6725e-20)
(-6.54766 -0.729308 -6.28041e-19)
(-6.50165 -1.25091 8.03935e-19)
(-6.41548 -1.76903 3.84259e-19)
(-6.28892 -2.28075 -1.31943e-18)
(-6.12214 -2.78291 -1.0494e-18)
(-5.9154 -3.27235 -1.75293e-19)
(-5.66949 -3.74625 -7.35981e-20)
(-5.38537 -4.202 4.38427e-19)
(-5.0642 -4.63667 -2.56354e-19)
(-7.46159 -0.208665 5.90743e-20)
(-7.442 -0.798974 1.02452e-18)
(-7.37749 -1.38708 4.05575e-19)
(-7.26804 -1.96957 -1.30931e-18)
(-7.11374 -2.54337 1.25524e-18)
(-6.91484 -3.10492 -1.72025e-18)
(-6.67219 -3.651 1.94004e-18)
(-6.3867 -4.1783 -2.14548e-18)
(-6.05942 -4.68404 -1.14043e-18)
(-5.69161 -5.16518 -3.29902e-18)
(-8.5973 -1.37909 -2.76459e-20)
(-8.4675 -2.04998 -4.02117e-19)
(-8.2871 -2.71012 3.23651e-19)
(-8.05645 -3.35447 3.33785e-19)
(-7.77662 -3.97988 -7.2119e-19)
(-7.44875 -4.58231 6.85056e-19)
(-7.07475 -5.15852 -9.46252e-19)
(-6.65686 -5.70507 7.37223e-19)
(-6.19729 -6.21891 -1.75193e-18)
(-5.69771 -6.69678 1.91292e-18)
(-5.15927 -7.13295 2.77326e-18)
(-5.28496 -5.61686 -1.46875e-18)
(-4.70766 -5.0468 -1.04338e-18)
(-4.1492 -4.60304 1.34397e-18)
(-3.70776 -4.17319 -1.21253e-20)
(-3.31974 -3.78414 8.82592e-19)
(-2.96849 -3.43586 1.25243e-20)
(-2.65203 -3.12537 -4.939e-19)
(-2.37261 -2.85413 6.72415e-19)
(-2.15155 -2.62137 -1.39806e-19)
(-4.58961 -7.52182 -2.98005e-18)
(-4.84293 -6.03493 5.62445e-18)
(-4.31823 -5.42883 -4.37835e-19)
(-3.79898 -4.94467 -1.10017e-18)
(-3.39329 -4.4806 6.77715e-19)
(-3.03697 -4.06 -1.23052e-18)
(-2.71445 -3.68236 1.14812e-18)
(-2.42542 -3.34434 -6.65336e-19)
(-2.17302 -3.0443 2.03998e-19)
(-1.97296 -2.77485 3.74542e-19)
(-3.99016 -7.8667 1.86726e-18)
(-4.3681 -6.418 -3.25152e-18)
(-3.8976 -5.78019 1.22967e-18)
(-3.42008 -5.25876 -4.34197e-19)
(-3.05242 -4.76311 6.10178e-19)
(-2.72986 -4.31327 -3.64251e-19)
(-2.4379 -3.90849 -2.9482e-19)
(-2.17749 -3.54563 2.53266e-19)
(-1.95109 -3.22351 -4.88405e-19)
(-1.77047 -2.93479 5.72546e-19)
(-3.3654 -8.16353 -3.75762e-18)
(-3.86335 -6.76363 4.62396e-19)
(-3.44846 -6.09873 1.03668e-18)
(-3.01488 -5.5432 9.20423e-19)
(-2.68738 -5.01849 -1.46713e-18)
(-2.40071 -4.54141 8.60919e-20)
(-2.14112 -4.11101 -3.7033e-19)
(-1.90976 -3.72427 -6.25509e-19)
(-1.70748 -3.37991 1.15369e-18)
(-1.54416 -3.07201 2.38969e-19)
(-2.7184 -8.41139 2.74702e-18)
(-3.3312 -7.07011 4.65377e-19)
(-2.97302 -6.38248 1.34102e-18)
(-2.58537 -5.79607 -5.34829e-21)
(-2.29985 -5.2452 1.10891e-18)
(-2.0509 -4.74356 4.38965e-19)
(-1.82535 -4.29025 7.4918e-19)
(-1.62458 -3.88274 -6.43881e-19)
(-1.44815 -3.51996 -1.74695e-20)
(-1.30466 -3.19654 -3.61323e-19)
(-2.05315 -8.60838 1.82551e-18)
(-2.77473 -7.33529 -1.53663e-18)
(-2.47404 -6.62946 -1.9514e-19)
(-2.13412 -6.01555 -2.94035e-19)
(-1.89228 -5.44152 -2.7493e-19)
(-1.68269 -4.91808 -2.84213e-19)
(-1.4926 -4.44449 3.8079e-19)
(-1.32353 -4.01875 -3.70742e-19)
(-1.17405 -3.63986 3.23053e-19)
(-1.05218 -3.30308 1.75577e-20)
(-1.37345 -8.75358 -3.24453e-18)
(-2.19696 -7.55761 -9.92303e-19)
(-1.95424 -6.83796 1.63247e-18)
(-1.66369 -6.20002 -4.42773e-19)
(-1.4671 -5.60603 4.91876e-19)
(-1.29849 -5.06382 -1.14609e-18)
(-1.14541 -4.57296 7.68491e-19)
(-1.00949 -4.13206 -2.16206e-19)
(-0.888464 -3.74001 2.75436e-19)
(-0.790005 -3.39232 -3.08287e-19)
(-0.683305 -8.84648 1.48453e-18)
(-1.60112 -7.73571 -4.2194e-19)
(-1.41661 -7.00644 -4.98322e-19)
(-1.17693 -6.34796 -1.8542e-19)
(-1.02703 -5.73729 1.20273e-19)
(-0.900835 -5.17946 2.08257e-19)
(-0.786102 -4.67436 -3.06641e-19)
(-0.684465 -4.22126 1.75305e-19)
(-0.593045 -3.81883 3.68521e-19)
(-0.519497 -3.46271 -3.07859e-19)
(0.0130733 -8.88601 1.11839e-18)
(-0.990776 -7.86772 -3.71386e-20)
(-0.864329 -7.13321 7.59541e-19)
(-0.676865 -6.45791 -5.74303e-19)
(-0.574968 -5.83406 1.43895e-19)
(-0.492516 -5.26396 -1.41392e-19)
(-0.417338 -4.74786 -5.10213e-20)
(-0.350996 -4.28568 -2.32109e-19)
(-0.290139 -3.87581 2.24486e-19)
(-0.2427 -3.51396 1.56289e-19)
(0.71267 -8.87179 -2.28613e-19)
(-0.368266 -7.95312 -1.5153e-19)
(-0.300182 -7.21733 -8.80169e-20)
(-0.166414 -6.52884 -2.4468e-19)
(-0.113799 -5.89536 1.96249e-19)
(-0.0762799 -5.31642 3.90869e-20)
(-0.0416709 -4.79262 -1.05296e-19)
(-0.0113969 -4.32449 9.27298e-21)
(0.0181786 -3.91014 -3.37472e-20)
(0.0385754 -3.54542 2.67331e-21)
(0.169655 -2.56073 -3.54347e-21)
(0.151557 -1.66009 -1.11451e-21)
(0.216432 -1.13355 2.77872e-21)
(0.238646 -0.787633 -1.46699e-21)
(0.273436 -0.523337 -2.98892e-22)
(0.334525 -0.28779 -6.34899e-22)
(0.441085 -0.0786019 1.94548e-22)
(0.574806 0.0738977 -1.87785e-22)
(0.702506 0.15488 6.85263e-23)
(0.805137 0.176655 -4.6857e-24)
(0.878607 0.163176 -4.37987e-23)
(0.927268 0.135205 3.28176e-24)
(0.957831 0.105265 -4.36427e-24)
(0.976324 0.0788502 -5.52277e-24)
(0.987187 0.0574423 7.93303e-25)
(0.993387 0.0407704 -8.4839e-25)
(0.996789 0.0282319 2.32134e-25)
(0.998615 0.0186064 2.10082e-25)
(0.999487 0.0123541 -2.3314e-25)
(0.999995 0.00558817 -1.07666e-25)
(0.372449 -2.57172 2.65834e-20)
(0.252853 -1.6696 5.82665e-21)
(0.282268 -1.14878 -4.68695e-21)
(0.287738 -0.799991 1.63837e-21)
(0.310544 -0.536911 -2.76911e-21)
(0.35838 -0.306711 -2.03636e-22)
(0.449621 -0.102422 -2.33018e-22)
(0.571905 0.0502554 -2.65317e-22)
(0.694465 0.135736 2.16135e-22)
(0.796417 0.163234 5.70468e-23)
(0.871228 0.154652 1.61035e-23)
(0.921675 0.130145 5.88142e-23)
(0.953795 0.102395 -4.57581e-23)
(0.973467 0.0772754 -8.23278e-24)
(0.985181 0.0566011 4.45375e-24)
(0.99199 0.0403341 1.6573e-24)
(0.995824 0.0280117 -4.02265e-24)
(0.997961 0.0184995 4.45547e-24)
(0.999031 0.0123019 6.83814e-25)
(0.999711 0.00556923 4.0085e-25)
(0.577353 -2.5727 -4.4366e-20)
(0.360452 -1.6803 1.67984e-20)
(0.35019 -1.16574 2.21993e-20)
(0.33871 -0.814544 -8.15975e-21)
(0.349125 -0.551663 -3.48069e-22)
(0.384736 -0.325676 -2.54834e-21)
(0.461579 -0.125717 -1.1163e-22)
(0.572106 0.026999 -6.89549e-22)
(0.688582 0.116694 -2.04308e-22)
(0.788986 0.14978 -1.11931e-22)
(0.86456 0.146082 -3.05387e-24)
(0.916462 0.125057 1.31833e-23)
(0.949962 0.0995158 4.95777e-23)
(0.970718 0.0756972 -2.40114e-23)
(0.983231 0.0557563 -1.08044e-23)
(0.99062 0.0398916 1.03265e-23)
(0.994871 0.0277835 -2.87524e-24)
(0.997313 0.0183845 -1.50468e-24)
(0.998576 0.0122417 -4.05833e-24)
(0.999426 0.00554617 1.417e-24)
(0.783304 -2.56418 -1.4191e-20)
(0.474873 -1.69165 3.53731e-20)
(0.4206 -1.18394 -1.44473e-20)
(0.391459 -0.831043 -4.38514e-21)
(0.388928 -0.567579 3.09669e-21)
(0.413026 -0.344747 -3.58074e-22)
(0.47649 -0.148461 9.73473e-22)
(0.575246 0.00425199 -1.26004e-22)
(0.684878 0.0978784 5.82095e-22)
(0.782916 0.136376 1.56491e-22)
(0.858665 0.137506 -3.39868e-22)
(0.911668 0.119964 4.25082e-23)
(0.946352 0.0966372 1.06666e-24)
(0.968087 0.074121 4.0418e-23)
(0.981342 0.0549105 3.26048e-24)
(0.98928 0.0394445 -8.04073e-24)
(0.993933 0.0275484 -7.49256e-24)
(0.99667 0.018262 -9.88397e-24)
(0.998123 0.012174 7.67397e-24)
(0.99914 0.00551915 -3.05472e-24)
(0.989096 -2.54493 8.49162e-21)
(0.59659 -1.70067 3.28054e-21)
(0.4939 -1.20146 -5.91827e-22)
(0.445825 -0.848613 8.08132e-21)
(0.429736 -0.584418 4.99344e-21)
(0.442711 -0.363929 3.67576e-21)
(0.493813 -0.170666 -1.78982e-21)
(0.581052 -0.0179109 4.68096e-22)
(0.683299 0.0793903 2.14009e-22)
(0.778241 0.123096 1.77652e-22)
(0.853588 0.12897 -8.88836e-23)
(0.907325 0.114889 -1.91297e-22)
(0.942983 0.0937709 1.54335e-23)
(0.965582 0.0725531 8.46279e-23)
(0.979518 0.0540675 3.70711e-23)
(0.987973 0.0389948 -1.5516e-23)
(0.993011 0.0273072 3.07052e-23)
(0.996034 0.0181322 2.01827e-24)
(0.997672 0.0120986 4.20375e-24)
(0.998854 0.00548815 -6.57075e-25)
(1.19374 -2.51078 -1.35506e-19)
(0.725588 -1.70282 -1.52296e-20)
(0.57005 -1.21605 1.55924e-20)
(0.501381 -0.866217 -2.14717e-20)
(0.471281 -0.60177 -1.23733e-20)
(0.473291 -0.383102 -1.07612e-20)
(0.512972 -0.192305 1.99586e-21)
(0.589173 -0.039423 4.28448e-22)
(0.683728 0.0613229 -8.00043e-22)
(0.774959 0.110016 -1.62059e-22)
(0.849358 0.12052 -3.02423e-23)
(0.903458 0.109855 2.61603e-22)
(0.93987 0.0909306 -6.54896e-23)
(0.963212 0.0710004 -4.69912e-23)
(0.977763 0.0532306 -2.92716e-23)
(0.986701 0.038544 3.35343e-23)
(0.992105 0.0270607 4.39329e-24)
(0.995405 0.0179957 7.79235e-24)
(0.997224 0.0120161 -6.29074e-24)
(0.998567 0.00545334 1.4877e-24)
(1.39634 -2.46235 1.40767e-19)
(0.860719 -1.70263 3.74851e-20)
(0.648599 -1.23152 -4.74277e-21)
(0.557605 -0.885478 2.93521e-20)
(0.513283 -0.620165 -9.34501e-21)
(0.504331 -0.402443 7.62964e-22)