/*--------------------------------*- C++ -*----------------------------------*\
| =========                 |                                                 |
| \\      /  F ield         | OpenFOAM: The Open Source CFD Toolbox           |
|  \\    /   O peration     | Version:  v1912                                 |
|   \\  /    A nd           | Website:  www.openfoam.com                      |
|    \\/     M anipulation  |                                                 |
\*---------------------------------------------------------------------------*/
FoamFile
{
    version     2.0;
    format      ascii;
    class       surfaceScalarField;
    location    "35";
    object      phi;
}
// * * * * * * * * * * * * * * * * * * * * * * * * * * * * * * * * * * * * * //

dimensions      [0 3 -1 0 0 0 0];
oriented        oriented;


internalField   nonuniform List<scalar> 
18940
(
0.000356099
-0.234401
0.234045
0.00137127
-0.216388
0.215373
0.00286714
-0.204854
0.203358
0.00467399
-0.197058
0.195252
0.00666167
-0.191284
0.189296
0.00872901
-0.186468
0.184401
0.0108026
-0.182025
0.179951
0.0128333
-0.17766
0.175629
0.0147911
-0.17325
0.171292
0.0166607
-0.168766
0.166897
0.0184374
-0.16423
0.162454
0.0201237
-0.159684
0.157998
0.0217266
-0.155174
0.153572
0.0232559
-0.150746
0.149217
0.0247227
-0.146434
0.144967
0.0261386
-0.142263
0.140847
0.0275151
-0.138245
0.136869
0.0288627
-0.134378
0.13303
0.0301897
-0.130642
0.129314
-0.126996
0.125685
0.0315015
0.000379481
-0.23478
0.00141452
-0.217423
0.0029211
-0.20636
0.00473234
-0.19887
0.00671465
-0.193266
0.00876691
-0.18852
0.0108169
-0.184075
0.0128172
-0.17966
0.0147395
-0.175172
0.0165704
-0.170597
0.0183068
-0.165967
0.0199524
-0.161329
0.0215152
-0.156737
0.0230058
-0.152237
0.0244355
-0.147864
0.0258165
-0.143644
0.0271604
-0.139589
0.028478
-0.135695
0.0297781
-0.131942
-0.128285
0.0310668
0.000400871
-0.235181
0.00145211
-0.218475
0.00296744
-0.207876
0.00477935
-0.200682
0.00675267
-0.19524
0.0087862
-0.190554
0.010809
-0.186098
0.0127754
-0.181627
0.0146591
-0.177056
0.0164486
-0.172387
0.0181422
-0.16766
0.019745
-0.162932
0.0212659
-0.158258
0.0227161
-0.153687
0.0241075
-0.149255
0.0254522
-0.144989
0.0267621
-0.140899
0.0280484
-0.136982
0.0293203
-0.133214
-0.129549
0.0305847
0.000414715
-0.235596
0.001481
-0.219541
0.00300425
-0.209399
0.00481427
-0.202492
0.00677525
-0.197201
0.00878652
-0.192565
0.0107787
-0.18809
0.0127079
-0.183556
0.0145501
-0.178898
0.0162955
-0.174132
0.0179441
-0.169309
0.0195022
-0.16449
0.0209797
-0.159736
0.0223881
-0.155095
0.0237398
-0.150607
0.0250471
-0.146296
0.026322
-0.142174
0.0275759
-0.138236
0.0288188
-0.134456
-0.130789
0.0300581
0.000425962
-0.236022
0.00150451
-0.220619
0.00303286
-0.210927
0.00483776
-0.204296
0.00678287
-0.199146
0.00876834
-0.194551
0.0107264
-0.190048
0.0126154
-0.185445
0.0144132
-0.180696
0.0161121
-0.175831
0.0177136
-0.17091
0.0192253
-0.166002
0.0206578
-0.161168
0.0220233
-0.156461
0.0233342
-0.151918
0.024603
-0.147565
0.0258419
-0.143413
0.0270625
-0.139456
0.0282753
-0.135669
-0.132002
0.0294888
0.000435037
-0.236457
0.00152307
-0.221708
0.00305353
-0.212458
0.00485005
-0.206093
0.00677582
-0.201071
0.00873202
-0.196507
0.0106528
-0.191969
0.0124985
-0.18729
0.0142493
-0.182447
0.0158994
-0.177481
0.0174519
-0.172463
0.0189154
-0.167466
0.0203016
-0.162554
0.0216228
-0.157782
0.0228918
-0.153187
0.0241211
-0.148794
0.0253229
-0.144615
0.0265093
-0.140643
0.0276912
-0.136851
-0.133189
0.0288782
0.000442509
-0.236899
0.00153734
-0.222802
0.00306682
-0.213987
0.00485162
-0.207878
0.0067546
-0.202974
0.00867816
-0.198431
0.0105584
-0.193849
0.012358
-0.18909
0.0140593
-0.184148
0.0156583
-0.17908
0.0171599
-0.173964
0.0185737
-0.168879
0.019912
-0.163893
0.0211877
-0.159058
0.0224137
-0.154413
0.0236023
-0.149983
0.0247661
-0.145778
0.0259171
-0.141794
0.0270671
-0.138001
-0.134349
0.0282268
0.000448531
-0.237348
0.00154766
-0.223901
0.00307315
-0.215513
0.00484294
-0.209648
0.00671977
-0.204851
0.00860742
-0.200318
0.0104441
-0.195686
0.0121948
-0.190841
0.0138441
-0.185797
0.01539
-0.180626
0.0168387
-0.175413
0.0182012
-0.170242
0.0194902
-0.165182
0.0207191
-0.160287
0.0219007
-0.155594
0.0230476
-0.15113
0.0241719
-0.146903
0.0252863
-0.142908
0.0264032
-0.139118
-0.13548
0.0275343
0.000453209
-0.237801
0.00155431
-0.225003
0.00307295
-0.217031
0.00482458
-0.211399
0.00667202
-0.206699
0.00852062
-0.202167
0.0103108
-0.197476
0.01201
-0.19254
0.013605
-0.187392
0.0150956
-0.182117
0.0164897
-0.176807
0.017799
-0.171551
0.0190372
-0.16642
0.0202178
-0.161467
0.0213537
-0.15673
0.0224572
-0.152233
0.0235407
-0.147986
0.0246168
-0.143984
0.0256988
-0.1402
-0.136581
0.0268
0.000456617
-0.238258
0.00155757
-0.226104
0.00306669
-0.218541
0.00479716
-0.21313
0.00661214
-0.208514
0.00841871
-0.203973
0.0101596
-0.199217
0.0118048
-0.194185
0.0133432
-0.188931
0.0147765
-0.18355
0.016114
-0.178145
0.0173685
-0.172806
0.0185542
-0.167606
0.0196848
-0.162598
0.0207732
-0.157819
0.0218315
-0.153292
0.0228721
-0.149027
0.0239077
-0.14502
0.0249528
-0.141245
-0.13765
0.026022
0.000458862
-0.238716
0.00155778
-0.227202
0.00305494
-0.220038
0.00476145
-0.214836
0.00654107
-0.210293
0.00830283
-0.205735
0.00999193
-0.200906
0.0115807
-0.195774
0.0130603
-0.190411
0.0144343
-0.184924
0.0157133
-0.179424
0.0169111
-0.174004
0.0180424
-0.168737
0.019121
-0.163676
0.0201598
-0.158857
0.0211707
-0.154302
0.0221657
-0.150022
0.0231581
-0.146012
0.0241632
-0.14225
-0.138685
0.0251975
0.000460097
-0.239177
0.0015554
-0.228298
0.00303839
-0.221521
0.00471834
-0.216516
0.00645992
-0.212035
0.00817429
-0.207449
0.00980915
-0.202541
0.0113393
-0.197304
0.0127581
-0.191829
0.0140709
-0.186237
0.0152895
-0.180642
0.0164286
-0.175143
0.0175032
-0.169812
0.0185275
-0.164701
0.0195142
-0.159844
0.0204749
-0.155263
0.0214212
-0.150968
0.0223668
-0.146958
0.0233279
-0.143211
-0.13968
0.0243235
0.000460602
-0.239637
0.00155104
-0.229388
0.00301789
-0.222988
0.00466889
-0.218167
0.00636999
-0.213736
0.00803462
-0.209114
0.00961309
-0.204119
0.0110826
-0.198774
0.0124388
-0.193186
0.0136885
-0.187486
0.0148447
-0.181798
0.0159229
-0.176221
0.0169386
-0.170827
0.017906
-0.165668
0.0188375
-0.160776
0.0197445
-0.15617
0.0206383
-0.151862
0.0215325
-0.147852
0.0224446
-0.144123
-0.140632
0.0233961
0.000460854
-0.240098
0.00154555
-0.230473
0.00299448
-0.224436
0.00461435
-0.219787
0.00627273
-0.215394
0.00788555
-0.210727
0.00940575
-0.205639
0.010813
-0.200181
0.0121048
-0.194477
0.0132897
-0.188671
0.0143818
-0.18289
0.015397
-0.177236
0.0163511
-0.171781
0.0172584
-0.166575
0.0181311
-0.161648
0.0189801
-0.157019
0.0198163
-0.152698
0.0206531
-0.148689
0.0215092
-0.144979
-0.141532
0.0224091
0.000461655
-0.24056
0.00154009
-0.231551
0.00296939
-0.225866
0.00455606
-0.221374
0.00616975
-0.217008
0.007729
-0.212286
0.00918939
-0.2071
0.010533
-0.201524
0.0117593
-0.195704
0.0128781
-0.18979
0.0139044
-0.183917
0.0148546
-0.178186
0.0157446
-0.172671
0.0165883
-0.167419
0.0173978
-0.162458
0.0181832
-0.157805
0.018955
-0.15347
0.0197259
-0.14946
0.0205155
-0.145769
-0.14237
0.021354
0.00046415
-0.241024
0.00153597
-0.232623
0.00294381
-0.227274
0.0044954
-0.222925
0.00606273
-0.218575
0.00756701
-0.21379
0.00896648
-0.208499
0.0102455
-0.202803
0.0114055
-0.196864
0.0124574
-0.190842
0.013417
-0.184876
0.0143007
-0.17907
0.0151244
-0.173495
0.0159015
-0.168196
0.0166434
-0.1632
0.0173593
-0.158521
0.0180584
-0.154169
0.0187526
-0.150154
0.0194627
-0.146479
-0.143135
0.0202274
0.00046973
-0.241494
0.0015345
-0.233688
0.00291905
-0.228658
0.0044339
-0.22444
0.00595351
-0.220095
0.00740178
-0.215239
0.00873963
-0.209837
0.00995378
-0.204018
0.0110473
-0.197957
0.0120322
-0.191827
0.0129246
-0.185769
0.0137412
-0.179887
0.014497
-0.174251
0.0152052
-0.168904
0.0158759
-0.16387
0.0165175
-0.159162
0.0171375
-0.154789
0.0177458
-0.150762
0.0183633
-0.147096
-0.143801
0.0190297
0.000480725
-0.241974
0.00153831
-0.234745
0.00289759
-0.230017
0.00437369
-0.225916
0.00584406
-0.221565
0.00723541
-0.21663
0.00851138
-0.211113
0.00966093
-0.205167
0.0106887
-0.198985
0.0116075
-0.192746
0.0124335
-0.186595
0.0131829
-0.180636
0.0138699
-0.174938
0.0145063
-0.169541
0.0151014
-0.164465
0.0156623
-0.159723
0.0161956
-0.155322
0.0167078
-0.151274
0.0172116
-0.1476
-0.144321
0.0177313
0.000504714
-0.242479
0.00155461
-0.235795
0.00288348
-0.231346
0.00431666
-0.227349
0.0057356
-0.222984
0.0070693
-0.217964
0.00828374
-0.212327
0.00936992
-0.206253
0.0103339
-0.199949
0.0111891
-0.193601
0.0119515
-0.187357
0.0126363
-0.181321
0.0132559
-0.175557
0.0138194
-0.170104
0.0143325
-0.164979
0.0147988
-0.160189
0.0152204
-0.155744
0.0155959
-0.15165
0.0159299
-0.147934
-0.144676
0.0162845
0.000561814
-0.243041
0.00159172
-0.236825
0.00287646
-0.232631
0.00426161
-0.228735
0.00562763
-0.22435
0.00690386
-0.21924
0.00805801
-0.213482
0.00908303
-0.207278
0.00998646
-0.200852
0.0107827
-0.194397
0.0114876
-0.188062
0.0121157
-0.181949
0.0126774
-0.176119
0.0131783
-0.170605
0.0136183
-0.165419
0.0139899
-0.160561
0.0142763
-0.15603
0.0144515
-0.151825
0.0145101
-0.147993
-0.144846
0.0146806
0.250694
0.000413827
-0.251108
0.250307
0.000387436
0.249927
0.000380137
0.249546
0.000380241
0.249163
0.000383161
0.248776
0.000387547
0.248383
0.000392673
0.247985
0.000397953
0.247582
0.000402992
0.247174
0.000407586
0.246763
0.000411639
0.246348
0.000415122
0.24593
0.00041802
0.245509
0.000420307
0.245087
0.000421859
0.244665
0.000422471
0.244244
0.000421094
0.243827
0.000417179
0.243425
0.000401525
0.000384391
0.252607
0.00102024
-0.253213
0.251965
0.00102929
0.251295
0.00105026
0.250598
0.00107712
0.249876
0.00110536
0.24913
0.00113362
0.248361
0.00116142
0.247571
0.00118826
0.24676
0.00121373
0.24593
0.00123756
0.245082
0.00125965
0.244217
0.00127997
0.243337
0.0012985
0.242442
0.00131526
0.241534
0.00133008
0.240613
0.00134278
0.239682
0.00135224
0.238741
0.00135819
0.237788
0.00135436
0.00134739
0.251346
0.00159016
-0.251916
0.250711
0.00166378
0.250024
0.00173763
0.249288
0.00181259
0.248507
0.0018863
0.247683
0.00195757
0.246819
0.00202604
0.245916
0.00209149
0.244976
0.00215369
0.244001
0.00221246
0.242993
0.00226776
0.241953
0.00231963
0.240883
0.00236816
0.239785
0.00241345
0.23866
0.00245552
0.237508
0.00249439
0.236331
0.00252956
0.235128
0.00256126
0.233895
0.0025871
0.00261127
0.247212
0.00203212
-0.247654
0.2467
0.00217521
0.246124
0.00231368
0.245488
0.00244898
0.244794
0.00258045
0.244044
0.00270729
0.243241
0.00282918
0.242386
0.00294593
0.241483
0.00305742
0.240532
0.00316356
0.239535
0.00326437
0.238495
0.00335999
0.237412
0.0034506
0.236289
0.0035365
0.235127
0.00361795
0.233926
0.00369532
0.232687
0.00376869
0.231409
0.00383869
0.230092
0.0039046
0.00396843
0.240946
0.00231038
-0.241225
0.240597
0.00252456
0.240179
0.00273197
0.239694
0.00293346
0.239146
0.003129
0.238535
0.00331811
0.237864
0.00350045
0.237134
0.00367585
0.236347
0.00384418
0.235505
0.0040054
0.23461
0.00415958
0.233663
0.00430691
0.232666
0.00444772
0.23162
0.00458247
0.230526
0.0047117
0.229385
0.0048361
0.228198
0.00495626
0.226963
0.00507314
0.225681
0.00518688
0.00529917
0.233339
0.00243353
-0.233462
0.233145
0.0027181
0.232882
0.00299475
0.232552
0.00326378
0.232156
0.00352522
0.231695
0.00377877
0.231172
0.00402409
0.230586
0.00426096
0.229941
0.00448923
0.229238
0.00470887
0.228478
0.00491997
0.227662
0.00512279
0.226792
0.00531776
0.225869
0.00550551
0.224893
0.00568683
0.223867
0.00586275
0.222789
0.00603433
0.221659
0.00620293
0.220476
0.00636942
0.00653563
0.225089
0.00243195
-0.225088
0.225023
0.00278437
0.22489
0.00312812
0.22469
0.00346313
0.224426
0.00378932
0.224099
0.00410643
0.223709
0.0044141
0.223257
0.00471206
0.222747
0.00500013
0.222177
0.00527825
0.221551
0.00554653
0.220868
0.00580525
0.220131
0.00605492
0.21934
0.00629633
0.218496
0.00653054
0.2176
0.00675891
0.216652
0.00698301
0.21565
0.00720471
0.214594
0.00742555
0.00764769
0.216723
0.00234166
-0.216633
0.216749
0.00275839
0.216711
0.00316587
0.216611
0.00356377
0.216448
0.0039519
0.216225
0.00432993
0.215941
0.00469749
0.215599
0.00505424
0.215199
0.00539994
0.214743
0.00573451
0.214232
0.00605799
0.213666
0.0063707
0.213048
0.00667321
0.212378
0.00696643
0.211657
0.00725168
0.210885
0.0075307
0.210062
0.00780559
0.209188
0.00807886
0.208261
0.00835286
0.00863027
0.208587
0.00219582
-0.208441
0.208672
0.00267311
0.208697
0.00314056
0.208663
0.00359774
0.208571
0.00404432
0.208421
0.0044799
0.208214
0.00490405
0.207952
0.00531635
0.207636
0.0057165
0.207266
0.00610433
0.206844
0.00647985
0.206371
0.00684332
0.205849
0.00719535
0.205279
0.00753695
0.204661
0.00786966
0.203996
0.0081956
0.203284
0.00851751
0.202524
0.00883866
0.201714
0.00916248
0.00949248
0.200879
0.00202132
-0.200704
0.200996
0.00255559
0.201057
0.00307946
0.201063
0.00359238
0.201013
0.00409391
0.200909
0.00458357
0.200753
0.00506085
0.200544
0.00552524
0.200284
0.00597635
0.199974
0.00641391
0.199616
0.00683783
0.199211
0.00724829
0.198761
0.00764586
0.198266
0.00803157
0.197729
0.00840718
0.197149
0.00877513
0.196528
0.00913893
0.195864
0.00950271
0.195155
0.00987141
0.0102498
0.193693
0.00183794
-0.193509
0.193822
0.00242611
0.193898
0.00300328
0.193922
0.00356881
0.193893
0.00412216
0.193814
0.00466274
0.193685
0.00518995
0.193507
0.00570319
0.193282
0.00620195
0.19301
0.00668582
0.192693
0.00715457
0.192333
0.00760823
0.191932
0.00804725
0.191491
0.00847258
0.191012
0.00888612
0.190496
0.00929052
0.189945
0.0096902
0.189358
0.0100902
0.188731
0.0104976
0.010919
0.187051
0.00165908
-0.186872
0.187179
0.00229863
0.187255
0.0029266
0.187282
0.00354216
0.187259
0.00414468
0.187189
0.00473351
0.187071
0.00530793
0.186907
0.00586723
0.186698
0.00641074
0.186446
0.00693791
0.186152
0.0074483
0.185819
0.0079417
0.185447
0.00841837
0.185041
0.00887899
0.184602
0.00932551
0.184132
0.00976052
0.183632
0.0101895
0.183104
0.0106182
0.182545
0.0110572
0.0115148
0.180935
0.00149303
-0.180769
0.181051
0.00218214
0.181119
0.00285891
0.181139
0.00352244
0.181111
0.00417205
0.181038
0.00480697
0.18092
0.00542639
0.180757
0.00602946
0.180553
0.00661537
0.180307
0.00718334
0.180023
0.00773272
0.179702
0.00826295
0.179346
0.00877397
0.178959
0.00926599
0.178544
0.00974084
0.178104
0.0102006
0.177641
0.0106521
0.177158
0.0111008
0.176653
0.0115631
0.0120483
0.175302
0.00134466
-0.175153
0.175402
0.00208179
0.175455
0.00280581
0.175462
0.00351576
0.175423
0.00421082
0.17534
0.00489016
0.175213
0.00555283
0.175045
0.00619789
0.174836
0.00682433
0.174588
0.00743117
0.174303
0.00801744
0.173984
0.00858219
0.173633
0.0091249
0.173254
0.00964503
0.172851
0.0101441
0.172429
0.0106228
0.171991
0.0110898
0.171543
0.0115483
0.171082
0.0120245
0.0125252
0.1701
0.00121622
-0.169971
0.170181
0.0020003
0.170217
0.00277032
0.170207
0.00352539
0.170153
0.0042646
0.170056
0.004987
0.169918
0.00569157
0.169738
0.00637721
0.16952
0.00704277
0.169264
0.00768699
0.168973
0.00830859
0.168649
0.00890615
0.168295
0.00947856
0.167916
0.0100242
0.167516
0.0105441
0.167102
0.0110364
0.16668
0.0115121
0.16626
0.0119679
0.165838
0.0124473
0.0129442
0.165274
0.00110853
-0.165166
0.165336
0.00193847
0.165353
0.00275344
0.165326
0.00355254
0.165255
0.00433478
0.165143
0.00509912
0.16499
0.00584444
0.164798
0.00656952
0.164568
0.00727305
0.164301
0.00795352
0.164001
0.00860932
0.163668
0.0092385
0.163308
0.00983927
0.162923
0.0104088
0.16252
0.0109469
0.162108
0.0114482
0.161694
0.0119262
0.161298
0.0123642
0.16091
0.012835
0.0132935
0.160773
0.00102107
-0.160685
0.160816
0.00189582
0.160814
0.00275475
0.16077
0.00359683
0.160684
0.00442104
0.160557
0.00522624
0.16039
0.00601124
0.160185
0.00677472
0.159942
0.00751518
0.159665
0.00823093
0.159354
0.00892001
0.159013
0.00958
0.158644
0.0102084
0.158252
0.0108008
0.157843
0.0113558
0.157429
0.0118626
0.157018
0.0123372
0.156642
0.0127403
0.156284
0.0131925
0.0135472
0.156549
0.000952022
-0.15648
0.156574
0.00187083
0.156557
0.00277254
0.156497
0.00365645
0.156397
0.00452143
0.156257
0.00536627
0.156078
0.00618974
0.155862
0.00699041
0.155611
0.00776668
0.155325
0.00851665
0.155007
0.00923811
0.154659
0.00992819
0.154284
0.0105837
0.153885
0.0111989
0.153471
0.0117706
0.153052
0.0122814
0.152641
0.0127483
0.152286
0.0130952
0.151952
0.0135257
0.0136745
0.152561
0.000899449
-0.152508
0.152571
0.00186064
0.15254
0.00280363
0.152468
0.00372783
0.152358
0.00463195
0.152209
0.00551479
0.152024
0.00637506
0.151803
0.00721131
0.151548
0.00802179
0.15126
0.00880451
0.150941
0.00955705
0.150593
0.0102762
0.150218
0.0109584
0.149821
0.0115966
0.149405
0.0121864
0.148983
0.0127028
0.148569
0.0131632
0.148234
0.0134293
0.147942
0.013818
0.0136239
0.148768
-0.14873
0.000861774
0.148767
0.00186132
0.148727
0.00284363
0.148649
0.0038059
0.148534
0.00474678
0.148384
0.00566518
0.148199
0.00655983
0.147981
0.00742919
0.147731
0.00827149
0.147451
0.00908463
0.147142
0.00986616
0.146806
0.0106127
0.146444
0.0113205
0.146059
0.0119815
0.145653
0.0125916
0.145237
0.0131192
0.144815
0.0135855
0.144465
0.0137795
0.144207
0.0140752
0.0129851
0.254317
7.40264e-05
-0.254391
0.254281
3.62587e-05
0.254248
3.23409e-05
0.254207
4.1194e-05
0.254152
5.5549e-05
0.254078
7.33262e-05
0.253985
9.32232e-05
0.253871
0.000114117
0.253736
0.000135193
0.25358
0.000155948
0.253404
0.000175942
0.253209
0.000194889
0.252996
0.000213265
0.252764
0.000232108
0.252514
0.000249365
0.25225
0.000264516
0.251973
0.000277145
0.251685
0.000287166
0.251397
0.000288725
0.0002887
0.25612
-0.000240594
-0.255805
0.256373
-0.000216932
0.256581
-0.000176273
0.256745
-0.000122732
0.256864
-6.28241e-05
0.256936
8.45896e-07
0.256962
6.71357e-05
0.256941
0.000134954
0.256873
0.000203382
0.256758
0.000271494
0.256596
0.00033804
0.256389
0.000401796
0.25614
0.00046155
0.255844
0.000528402
0.255503
0.000590056
0.255121
0.000647063
0.254699
0.000699357
0.254239
0.000746887
0.253743
0.000784994
0.000817892
0.251524
-0.000895249
-0.25087
0.252106
-0.000798831
0.252622
-0.000692568
0.253076
-0.000576619
0.253468
-0.000454494
0.253797
-0.000328438
0.254064
-0.000199594
0.254268
-6.93824e-05
0.25441
6.22119e-05
0.254486
0.000194671
0.2545
0.000324104
0.254452
0.000450127
0.254338
0.000575026
0.254167
0.0006996
0.253937
0.000820128
0.253649
0.000935662
0.253302
0.00104571
0.252899
0.00115016
0.252437
0.00124708
0.00133928
0.243194
-0.00182778
-0.242261
0.244054
-0.00165884
0.244844
-0.00148263
0.245565
-0.00129843
0.246219
-0.00110788
0.246803
-0.00091281
0.247318
-0.000714554
0.247763
-0.000514375
0.248138
-0.00031296
0.248441
-0.000107576
0.248671
9.37409e-05
0.248833
0.000287781
0.248925
0.000483781
0.248947
0.000676763
0.248902
0.000865689
0.248788
0.00104965
0.248606
0.00122789
0.248356
0.00140002
0.248038
0.001565
0.00172338
0.233108
-0.00295842
-0.231978
0.234171
-0.0027215
0.235166
-0.00247707
0.236092
-0.00222471
0.236949
-0.00196533
0.237737
-0.00170041
0.238454
-0.00143139
0.239099
-0.00115947
0.239671
-0.000885614
0.240174
-0.000610606
0.240606
-0.00033764
0.240962
-6.81831e-05
0.241246
0.00019987
0.241458
0.000464596
0.241598
0.000725617
0.241666
0.000981497
0.241663
0.00123149
0.241588
0.00147501
0.241441
0.00171122
0.00194007
0.222553
-0.0042151
-0.221296
0.223746
-0.00391507
0.224875
-0.00360598
0.225939
-0.00328795
0.226935
-0.00296182
0.227864
-0.00262899
0.228723
-0.00229103
0.229513
-0.0019494
0.230233
-0.00160555
0.230883
-0.00126082
0.231463
-0.000916755
0.231969
-0.000574661
0.232404
-0.000235397
0.232769
9.94848e-05
0.233063
0.000431498
0.233285
0.000759531
0.233436
0.00108088
0.233516
0.00139548
0.233524
0.0017027
0.0020023
0.212308
-0.00554046
-0.210983
0.213575
-0.00518151
0.21478
-0.00481138
0.215923
-0.00443072
0.217002
-0.00404056
0.218015
-0.00364251
0.218962
-0.00323837
0.219843
-0.00282988
0.220656
-0.00241868
0.221401
-0.00200624
0.222079
-0.00159394
0.222687
-0.00118321
0.223227
-0.000774831
0.223696
-0.000369548
0.224102
2.49063e-05
0.224437
0.000424996
0.224702
0.00081541
0.224899
0.00119853
0.225028
0.00157427
0.00194223
0.202784
-0.00689289
-0.201431
0.204081
-0.00647834
0.205319
-0.00605021
0.206498
-0.00560953
0.207615
-0.00515778
0.20867
-0.00469695
0.209661
-0.00422918
0.210587
-0.00375646
0.211449
-0.00328064
0.212246
-0.00280334
0.212978
-0.00232602
0.213645
-0.00185007
0.214247
-0.00137654
0.214784
-0.000906396
0.21525
-0.000441018
0.215661
1.35196e-05
0.216001
0.000475565
0.216277
0.000922881
0.216487
0.00136366
0.00179655
0.194138
-0.00824469
-0.192786
0.195436
-0.00777708
0.196679
-0.0072932
0.197864
-0.00679439
0.198989
-0.00628278
0.200053
-0.00576098
0.201056
-0.00523154
0.201996
-0.00469677
0.202874
-0.00415873
0.20369
-0.00361921
0.204443
-0.00307973
0.205135
-0.00254163
0.205765
-0.00200609
0.206332
-0.00147404
0.206838
-0.000946892
0.207278
-0.000425937
0.207663
9.03129e-05
0.207983
0.000602402
0.208243
0.00110436
0.00159848
0.186378
-0.00957918
-0.185043
0.187661
-0.00906047
0.18889
-0.00852232
0.190062
-0.00796642
0.191175
-0.00739592
0.192228
-0.00681423
0.193221
-0.00622444
0.194154
-0.00562921
0.195026
-0.00503084
0.195838
-0.00443122
0.19659
-0.00383192
0.197283
-0.00323426
0.197916
-0.00263939
0.19849
-0.00204827
0.199005
-0.0014619
0.199461
-0.000881195
0.199858
-0.000306894
0.200199
0.000261427
0.20048
0.000822785
0.00137468
0.179432
-0.0108877
-0.178124
0.180692
-0.0103196
0.181897
-0.00972797
0.183046
-0.00911519
0.184136
-0.008486
0.185167
-0.00784486
0.186138
-0.00719543
0.187049
-0.00654079
0.187902
-0.00588344
0.188696
-0.00522536
0.189432
-0.00456811
0.190111
-0.00391293
0.190732
-0.00326091
0.191297
-0.00261298
0.191805
-0.00196998
0.192257
-0.00133278
0.192652
-0.000701899
0.192993
-8.02793e-05
0.193279
0.000537419
0.00114439
0.173198
-0.0121672
-0.171919
0.17443
-0.0115515
0.175609
-0.0109065
0.17673
-0.0102363
0.177792
-0.00954792
0.178794
-0.00884716
0.179737
-0.0081383
0.180621
-0.00742482
0.181447
-0.00670943
0.182216
-0.00599411
0.182928
-0.00528031
0.183584
-0.0045692
0.184185
-0.00386174
0.184731
-0.0031588
0.185222
-0.00246115
0.185659
-0.00176961
0.186042
-0.00108495
0.18637
-0.000408731
0.186649
0.000259215
0.00092068
0.167566
-0.0134186
-0.166315
0.168772
-0.0127576
0.169924
-0.0120585
0.171017
-0.0113293
0.17205
-0.0105807
0.173022
-0.0098196
0.173935
-0.00905101
0.174789
-0.00827888
0.175586
-0.007506
0.176326
-0.00673424
0.177011
-0.00596492
0.17764
-0.00519904
0.178216
-0.00443742
0.178738
-0.00368083
0.179207
-0.00292999
0.179623
-0.0021857
0.179987
-0.00144846
0.180297
-0.000718988
0.18056
-4.06185e-06
0.0007119
0.162437
-0.0146455
-0.16121
0.163622
-0.0139426
0.164751
-0.0131875
0.165818
-0.0123968
0.166823
-0.011586
0.167767
-0.0107632
0.16865
-0.00993399
0.169474
-0.00910292
0.170241
-0.00827269
0.170951
-0.00744496
0.171607
-0.0066208
0.172209
-0.00580097
0.172758
-0.00498612
0.173254
-0.00417691
0.173698
-0.00337396
0.17409
-0.00257803
0.174432
-0.00178978
0.174723
-0.0010105
0.174961
-0.00024203
0.000519677
0.157727
-0.0158548
-0.156518
0.158898
-0.0151142
0.16001
-0.014299
0.161056
-0.013443
0.162037
-0.012567
0.162954
-0.0116797
0.163808
-0.0107883
0.164603
-0.00989747
0.16534
-0.00900968
0.166021
-0.00812618
0.166648
-0.00724765
0.167221
-0.00637455
0.167742
-0.00550726
0.168212
-0.00464628
0.16863
-0.00379215
0.168997
-0.00294556
0.169315
-0.00210729
0.169583
-0.00127827
0.1698
-0.000459633
0.000348861
0.153374
-0.0170589
-0.15217
0.154543
-0.0162826
0.155644
-0.0154
0.156673
-0.0144727
0.157632
-0.0135257
0.158522
-0.0125698
0.159348
-0.0116137
0.160112
-0.010662
0.160819
-0.0097163
0.16147
-0.00877731
0.162067
-0.00784506
0.162612
-0.00691949
0.163106
-0.00600066
0.163548
-0.00508882
0.163941
-0.00418444
0.164283
-0.00328811
0.164576
-0.0024006
0.164821
-0.00152272
0.165017
-0.000655691
0.000199516
0.149334
-0.0182868
-0.148106
0.150514
-0.0174631
0.151611
-0.0164967
0.152626
-0.0154883
0.153562
-0.014461
0.154422
-0.0134304
0.155215
-0.012407
0.155947
-0.0113937
0.156621
-0.0103905
0.157241
-0.00939699
0.157808
-0.00841225
0.158324
-0.00743549
0.15879
-0.00646634
0.159206
-0.00550482
0.159573
-0.00455124
0.159891
-0.00360617
0.160161
-0.00267035
0.160383
-0.00174466
0.160557
-0.000830102
7.097e-05
0.145575
-0.019603
-0.144259
0.146789
-0.0186773
0.147882
-0.0175897
0.148878
-0.0164843
0.149782
-0.0153645
0.150604
-0.0142532
0.151359
-0.0131617
0.152054
-0.0120882
0.152693
-0.0110296
0.15328
-0.00998388
0.153816
-0.00894881
0.154304
-0.00792278
0.154742
-0.00690494
0.155132
-0.00589512
0.155475
-0.00489358
0.155769
-0.00390086
0.156017
-0.00291776
0.156218
-0.00194532
0.156372
-0.000984546
-3.7376e-05
0.142114
-0.0210771
-0.14064
0.143359
-0.0199223
0.14443
-0.0186606
0.145384
-0.0174386
0.146239
-0.0162197
0.147014
-0.0150276
0.147723
-0.0138711
0.148377
-0.0127419
0.14898
-0.0116324
0.149534
-0.0105381
0.150041
-0.00945559
0.150501
-0.00838256
0.150913
-0.00731787
0.15128
-0.00626128
0.151599
-0.00521309
0.151872
-0.00417391
0.152099
-0.00314463
0.15228
-0.00212641
0.152416
-0.00112074
-0.000129199
0.139019
-0.137606
-0.0224909
0.140178
-0.0210806
0.141209
-0.0196916
0.142084
-0.0183136
0.142871
-0.0170074
0.143594
-0.0157499
0.144258
-0.0145351
0.144871
-0.0133557
0.14544
-0.0122006
0.145963
-0.0110617
0.146442
-0.00993455
0.146876
-0.00881656
0.147265
-0.00770662
0.147608
-0.00660463
0.147906
-0.00551108
0.148159
-0.00442675
0.148367
-0.00335263
0.148531
-0.00228973
0.148649
-0.00123964
-0.000209776
0.0306926
0.111882
-0.110404
-0.0321703
0.0291879
0.114896
-0.113391
0.0276535
0.118043
-0.116508
0.0260858
0.121346
-0.119778
0.0244815
0.124839
-0.123234
0.0228378
0.128562
-0.126918
0.0211525
0.132575
-0.130889
0.0194243
0.136955
-0.135227
0.0176525
0.141807
-0.140036
0.0158373
0.147262
-0.145447
0.0139805
0.153478
-0.151622
0.0120863
0.160643
-0.158749
0.0101636
0.168957
-0.167034
0.00822895
0.178607
-0.176672
0.00631214
0.189715
-0.187798
0.00446313
0.202245
-0.200396
0.00276141
0.215863
-0.214162
0.00132704
0.229717
-0.228283
0.000328714
0.242033
-0.241035
0.249691
-0.249363
0.0305075
0.113352
-0.0319778
0.0290101
0.116393
0.0274832
0.119569
0.0259233
0.122906
0.024327
0.126435
0.0226914
0.130198
0.0210142
0.134252
0.0192939
0.138676
0.0175298
0.143571
0.015722
0.149069
0.0138725
0.155328
0.0119858
0.16253
0.0100713
0.170872
0.00814638
0.180532
0.00624205
0.191619
0.00440974
0.204078
0.0027304
0.217543
0.00132355
0.231124
0.000352544
0.243004
0.250044
0.0302804
0.114813
-0.0317413
0.0287926
0.117881
0.0272755
0.121087
0.0257256
0.124456
0.0241394
0.128021
0.022514
0.131823
0.0208471
0.135919
0.0191371
0.140386
0.0173829
0.145326
0.015585
0.150867
0.0137452
0.157168
0.0118684
0.164407
0.0099645
0.172776
0.00805177
0.182445
0.00616207
0.193509
0.00434787
0.205892
0.00269066
0.2192
0.00130832
0.232507
0.000355686
0.243957
0.2504
0.0300132
0.116263
-0.0314625
0.0285371
0.119357
0.0270319
0.122592
0.0254939
0.125994
0.0239199
0.129595
0.0223069
0.133436
0.0206523
0.137573
0.0189545
0.142084
0.0172126
0.147068
0.0154266
0.152653
0.0135988
0.158996
0.0117342
0.166272
0.00984324
0.174667
0.00794482
0.184343
0.00607163
0.195382
0.00427688
0.207687
0.00264219
0.220835
0.0012838
0.233865
0.000350694
0.24489
0.25075
0.029708
0.117698
-0.0311437
0.0282455
0.120819
0.026754
0.124083
0.0252299
0.127518
0.0236699
0.131155
0.022071
0.135035
0.0204307
0.139214
0.0187471
0.143767
0.0170192
0.148795
0.0152474
0.154425
0.0134336
0.160809
0.0115834
0.168122
0.0097075
0.176543
0.00782549
0.186225
0.00597082
0.197237
0.00419735
0.20946
0.00258674
0.222445
0.00125357
0.235198
0.000341849
0.245802
0.251092
0.0293673
0.119119
-0.030788
0.02792
0.122267
0.0264438
0.125559
0.0249352
0.129027
0.0233908
0.1327
0.0218076
0.136618
0.0201831
0.140838
0.0185155
0.145435
0.0168036
0.150507
0.0150477
0.156181
0.01325
0.162607
0.0114162
0.169956
0.00955748
0.178401
0.00769403
0.188088
0.00586002
0.199071
0.00410992
0.21121
0.00252531
0.22403
0.00121899
0.236504
0.000330319
0.24669
0.251423
0.028994
0.120524
-0.0303986
0.0275629
0.123698
0.0261033
0.127019
0.0246114
0.130519
0.0230839
0.134227
0.0215178
0.138184
0.0199107
0.142445
0.0182605
0.147085
0.0165663
0.152202
0.0148281
0.157919
0.0130484
0.164387
0.011233
0.171771
0.00939348
0.180241
0.00755073
0.189931
0.00573954
0.200882
0.00401494
0.212935
0.00245831
0.225587
0.00118062
0.237782
0.00031681
0.247554
0.251739
0.0285908
0.121912
-0.0299787
0.0271768
0.125112
0.0257345
0.128461
0.0242602
0.131993
0.0227506
0.135737
0.0212028
0.139732
0.0196142
0.144034
0.017983
0.148716
0.0163078
0.153877
0.014589
0.159638
0.0128291
0.166147
0.011034
0.173566
0.00921579
0.182059
0.00739585
0.191751
0.00560966
0.202668
0.00391271
0.214632
0.00238611
0.227113
0.00113898
0.239029
0.000301926
0.248391
0.252041
0.0281607
0.123283
-0.0295318
0.0267639
0.126509
0.0253392
0.129886
0.0238831
0.133449
0.0223921
0.137228
0.0208634
0.141261
0.0192945
0.145603
0.0176833
0.150327
0.0160287
0.155531
0.0143309
0.161336
0.0125924
0.167885
0.0108195
0.175339
0.00902464
0.183854
0.00722964
0.193546
0.00547063
0.204427
0.00380352
0.216299
0.00230909
0.228608
0.00109455
0.240244
0.00028608
0.2492
0.252327
0.0277064
0.124638
-0.0290615
0.0263263
0.127889
0.0249192
0.131293
0.0234813
0.134887
0.0220093
0.1387
0.0205004
0.14277
0.018952
0.147151
0.017362
0.151917
0.0157293
0.157164
0.014054
0.163011
0.0123386
0.1696
0.0105898
0.177088
0.00882024
0.185623
0.0070523
0.195314
0.00532269
0.206157
0.00368766
0.217934
0.00222759
0.230068
0.0010477
0.241424
0.000269521
0.249978
0.252597
0.0272303
0.125978
-0.0285709
0.0258658
0.129253
0.0244755
0.132684
0.0230556
0.136307
0.0216027
0.140153
0.0201141
0.144258
0.018587
0.148678
0.0170192
0.153485
0.0154096
0.158774
0.0137583
0.164663
0.0120679
0.171291
0.010345
0.178811
0.00860274
0.187366
0.00686404
0.197053
0.00516609
0.207855
0.00356542
0.219535
0.00214191
0.231491
0.000998684
0.242567
0.000252406
0.250724
0.252849
0.026734
0.127307
-0.0280626
0.0253832
0.130604
0.0240084
0.134058
0.0226059
0.137709
0.0211722
0.141586
0.0197042
0.145726
0.0181991
0.150183
0.0166547
0.155029
0.0150696
0.160359
0.0134438
0.166288
0.01178
0.172955
0.010085
0.180506
0.00837224
0.189078