/*--------------------------------*- C++ -*----------------------------------*\
  =========                 |
  \\      /  F ield         | OpenFOAM: The Open Source CFD Toolbox
   \\    /   O peration     | Website:  https://openfoam.org
    \\  /    A nd           | Version:  6.0
     \\/     M anipulation  |
\*---------------------------------------------------------------------------*/
FoamFile
{
    version     2.0;
    format      ascii;
    class       surfaceScalarField;
    location    "18";
    object      phi;
}
// * * * * * * * * * * * * * * * * * * * * * * * * * * * * * * * * * * * * * //

dimensions      [0 3 -1 0 0 0 0];

internalField   nonuniform List<scalar> 
38030
(
9.18746e-05
-0.282381
0.282289
0.000431396
-0.270156
0.269817
0.000943675
-0.26099
0.260477
0.00156808
-0.253641
0.253017
0.00226075
-0.247367
0.246675
0.00298787
-0.241653
0.240926
0.00372463
-0.236195
0.235458
0.0044541
-0.230836
0.230107
0.00516559
-0.225506
0.224795
0.00585315
-0.220189
0.219501
0.00651427
-0.214894
0.214233
0.0071488
-0.209646
0.209011
0.00775811
-0.204473
0.203864
0.00834448
-0.199401
0.198815
0.00891057
-0.194453
0.193887
0.00945914
-0.189644
0.189095
0.00999281
-0.184987
0.184453
0.010514
-0.180488
0.179967
0.0110248
-0.176151
0.17564
0.011527
-0.171976
0.171474
0.0120222
-0.167961
0.167465
0.012512
-0.164102
0.163612
0.0129976
-0.160393
0.159907
0.0134803
-0.156828
0.156345
0.0139616
-0.153397
0.152916
0.0144427
-0.150089
0.149608
0.0149248
-0.146891
0.146409
0.0154088
-0.143784
0.1433
0.0158947
-0.140749
0.140264
-0.137762
0.137275
0.0163815
0.000109466
-0.28249
0.000451704
-0.270498
0.000963921
-0.261502
0.00158709
-0.254264
0.00227678
-0.248057
0.00299942
-0.242375
0.00373049
-0.236926
0.00445326
-0.231559
0.00515726
-0.22621
0.00583678
-0.220868
0.00648954
-0.215546
0.00711557
-0.210272
0.00771643
-0.205074
0.00829447
-0.199979
0.00885245
-0.195011
0.00939317
-0.190185
0.00991927
-0.185513
0.0104331
-0.181002
0.0109369
-0.176655
0.0114323
-0.172471
0.0119208
-0.168449
0.012404
-0.164585
0.0128831
-0.160872
0.0133595
-0.157304
0.0138344
-0.153872
0.0143092
-0.150564
0.0147854
-0.147367
0.0152637
-0.144263
0.0157446
-0.14123
-0.138244
0.0162271
0.000125319
-0.282615
0.00047056
-0.270844
0.000981727
-0.262013
0.00160314
-0.254886
0.00228978
-0.248744
0.00300784
-0.243094
0.00373295
-0.237651
0.00444866
-0.232275
0.00514478
-0.226907
0.00581586
-0.221539
0.00645986
-0.21619
0.00707702
-0.210889
0.00766904
-0.205666
0.00823841
-0.200549
0.00878796
-0.19556
0.00932052
-0.190717
0.00983876
-0.186031
0.0103451
-0.181508
0.0108415
-0.177151
0.0113297
-0.17296
0.0118114
-0.168931
0.0122878
-0.165061
0.0127602
-0.161344
0.0132298
-0.157774
0.0136981
-0.15434
0.0141665
-0.151032
0.0146363
-0.147837
0.0151087
-0.144735
0.0155842
-0.141706
-0.138722
0.0160622
0.000131586
-0.282747
0.000482321
-0.271194
0.000995068
-0.262526
0.00161559
-0.255506
0.00229937
-0.249427
0.00301274
-0.243807
0.00373166
-0.23837
0.00443999
-0.232983
0.00512787
-0.227594
0.00579015
-0.222201
0.00642503
-0.216825
0.00703298
-0.211497
0.00761585
-0.206249
0.00817625
-0.201109
0.00871707
-0.196101
0.0092412
-0.191241
0.00975131
-0.186541
0.0102498
-0.182007
0.0107386
-0.17764
0.0112196
-0.17344
0.0116941
-0.169405
0.0121634
-0.16553
0.0126289
-0.16181
0.0130916
-0.158236
0.0135531
-0.154801
0.0140147
-0.151494
0.014478
-0.1483
0.0149442
-0.145201
0.015414
-0.142176
-0.139195
0.0158873
0.000136332
-0.282883
0.000491386
-0.271549
0.00100564
-0.26304
0.00162517
-0.256126
0.00230587
-0.250108
0.00301432
-0.244515
0.00372674
-0.239083
0.00442736
-0.233684
0.00510664
-0.228274
0.00575976
-0.222855
0.00638518
-0.217451
0.00698358
-0.212095
0.00755698
-0.206822
0.00810809
-0.20166
0.0086399
-0.196633
0.00915532
-0.191757
0.00965704
-0.187043
0.0101474
-0.182497
0.0106285
-0.178121
0.0111019
-0.173914
0.011569
-0.169873
0.0120311
-0.165993
0.0124894
-0.162268
0.0129451
-0.158692
0.0133995
-0.155256
0.0138542
-0.151949
0.0143107
-0.148756
0.0147704
-0.145661
0.0152344
-0.14264
-0.139664
0.0157028
0.000139428
-0.283023
0.000497853
-0.271908
0.00101347
-0.263556
0.00163194
-0.256744
0.00230937
-0.250785
0.0030126
-0.245219
0.00371819
-0.239788
0.00441074
-0.234376
0.00508108
-0.228944
0.00572469
-0.223498
0.00634031
-0.218066
0.00692883
-0.212684
0.00749244
-0.207386
0.00803399
-0.202202
0.0085565
-0.197155
0.00906295
-0.192263
0.00955604
-0.187536
0.0100381
-0.182979
0.0105111
-0.178594
0.0109768
-0.174379
0.0114363
-0.170332
0.011891
-0.166447
0.012342
-0.162719
0.0127904
-0.15914
0.0132376
-0.155703
0.0136851
-0.152396
0.0141346
-0.149206
0.0145878
-0.146114
0.0150458
-0.143098
-0.140127
0.015509
0.000141876
-0.283165
0.000502828
-0.272269
0.00101926
-0.264072
0.0016363
-0.257361
0.00231008
-0.251459
0.00300773
-0.245916
0.00370613
-0.240487
0.00439024
-0.23506
0.00505126
-0.229605
0.00568501
-0.224132
0.00629049
-0.218672
0.00686881
-0.213262
0.00742234
-0.207939
0.00795402
-0.202733
0.00846697
-0.197668
0.00896419
-0.19276
0.00944839
-0.18802
0.00992192
-0.183453
0.0103867
-0.179059
0.0108444
-0.174837
0.0112962
-0.170784
0.0117432
-0.166894
0.0121867
-0.163162
0.0126277
-0.159581
0.0130674
-0.156143
0.0135077
-0.152836
0.0139501
-0.149648
0.0143964
-0.146561
0.0148482
-0.143549
-0.140585
0.0153063
0.000143777
-0.283308
0.000506574
-0.272632
0.00102327
-0.264589
0.00163844
-0.257977
0.00230819
-0.252129
0.00299984
-0.246608
0.00369065
-0.241177
0.00436593
-0.235736
0.00501727
-0.230256
0.00564079
-0.224755
0.00623579
-0.219267
0.0068036
-0.21383
0.00734674
-0.208482
0.00786826
-0.203255
0.00837137
-0.198171
0.0088591
-0.193248
0.00933418
-0.188495
0.00979892
-0.183917
0.0102553
-0.179515
0.0107047
-0.175287
0.0111486
-0.171228
0.0115879
-0.167334
0.0120237
-0.163598
0.012457
-0.160015
0.0128893
-0.156575
0.013322
-0.153269
0.0137571
-0.150083
0.0141966
-0.147
0.014642
-0.143995
-0.141038
0.0150947
0.000145308
-0.283454
0.000509372
-0.272996
0.00102579
-0.265105
0.0016386
-0.258589
0.00230385
-0.252794
0.00298909
-0.247293
0.00367187
-0.24186
0.00433793
-0.236402
0.00497919
-0.230898
0.00559213
-0.225368
0.00617631
-0.219851
0.00673328
-0.214387
0.00726571
-0.209015
0.0077768
-0.203766
0.00826979
-0.198664
0.00874777
-0.193726
0.00921347
-0.188961
0.00966919
-0.184373
0.0101168
-0.179963
0.0105579
-0.175728
0.0109936
-0.171664
0.011425
-0.167765
0.0118529
-0.164026
0.0122786
-0.16044
0.0127031
-0.157
0.0131282
-0.153694
0.0135559
-0.150511
0.0139883
-0.147432
0.0144273
-0.144434
-0.141485
0.0148745
0.000146519
-0.2836
0.000511358
-0.273361
0.00102697
-0.265621
0.00163694
-0.259199
0.00229724
-0.253455
0.00297559
-0.247971
0.00364993
-0.242535
0.00430635
-0.237058
0.00493715
-0.231529
0.00553914
-0.22597
0.00611214
-0.220424
0.00665794
-0.214933
0.00717937
-0.209536
0.00767971
-0.204266
0.0081623
-0.199147
0.00863026
-0.194194
0.00908631
-0.189417
0.00953277
-0.18482
0.00997151
-0.180402
0.010404
-0.17616
0.0108314
-0.172091
0.0112546
-0.168188
0.0116746
-0.164446
0.0120923
-0.160858
0.012509
-0.157416
0.0129263
-0.154112
0.0133464
-0.150931
0.0137716
-0.147858
0.0142041
-0.144866
-0.141927
0.0146457
0.000147457
-0.283748
0.000512625
-0.273726
0.00102697
-0.266135
0.00163361
-0.259806
0.00228848
-0.254109
0.0029595
-0.248642
0.00362496
-0.2432
0.00427131
-0.237704
0.00489126
-0.232148
0.00548192
-0.226561
0.00604341
-0.220985
0.0065777
-0.215467
0.00708779
-0.210046
0.00757709
-0.204756
0.00804898
-0.199619
0.00850662
-0.194652
0.00895276
-0.189863
0.0093897
-0.185256
0.00981928
-0.180831
0.0102429
-0.176584
0.0106618
-0.17251
0.0110767
-0.168603
0.0114885
-0.164858
0.0118981
-0.161268
0.0123068
-0.157825
0.0127163
-0.154521
0.0131287
-0.151344
0.0135465
-0.148275
0.0139723
-0.145292
-0.142363
0.0144083
0.000148145
-0.283896
0.000513238
-0.274091
0.00102587
-0.266648
0.00162874
-0.260409
0.00227772
-0.254758
0.00294095
-0.249306
0.00359708
-0.243856
0.00423296
-0.23834
0.00484166
-0.232757
0.00542061
-0.22714
0.00597022
-0.221535
0.00649266
-0.21599
0.0069911
-0.210545
0.00746902
-0.205234
0.00792991
-0.20008
0.00837694
-0.195099
0.00881286
-0.190299
0.00923999
-0.185684
0.00966013
-0.181251
0.0100747
-0.176998
0.0104847
-0.17292
0.0108911
-0.16901
0.0112946
-0.165261
0.011696
-0.161669
0.0120966
-0.158226
0.012498
-0.154923
0.0129025
-0.151748
0.0133128
-0.148686
0.0137318
-0.145711
-0.142793
0.0141621
0.000148594
-0.284044
0.000513258
-0.274455
0.00102378
-0.267158
0.00162244
-0.261008
0.00226508
-0.255401
0.00292008
-0.249961
0.00356644
-0.244503
0.00419143
-0.238965
0.00478848
-0.233354
0.00535536
-0.227707
0.00589272
-0.222072
0.00640297
-0.2165
0.0068894
-0.211031
0.00735562
-0.2057
0.00780516
-0.200529
0.00824125
-0.195535
0.00866665
-0.190724
0.00908365
-0.186101
0.00949405
-0.181662
0.00989925
-0.177404
0.0103002
-0.173321
0.0106978
-0.169407
0.0110927
-0.165656
0.0114857
-0.162062
0.011878
-0.158618
0.0122712
-0.155316
0.0126677
-0.152145
0.0130703
-0.149088
0.0134824
-0.146123
-0.143217
0.0139069
0.000148815
-0.284193
0.000512725
-0.274819
0.00102078
-0.267666
0.00161484
-0.261602
0.0022507
-0.256037
0.00289703
-0.250607
0.00353321
-0.245139
0.0041469
-0.239579
0.0047319
-0.233939
0.00528632
-0.228261
0.00581107
-0.222597
0.00630876
-0.216997
0.00678283
-0.211505
0.00723699
-0.206154
0.00767484
-0.200967
0.00809964
-0.19596
0.00851415
-0.191139
0.00892067
-0.186507
0.009321
-0.182062
0.00971649
-0.177799
0.0101081
-0.173712
0.0104966
-0.169796
0.0108827
-0.166042
0.011267
-0.162446
0.0116508
-0.159002
0.0120355
-0.155701
0.0124238
-0.152533
0.0128186
-0.149483
0.0132235
-0.146528
-0.143636
0.0136421
0.000148813
-0.284342
0.000511691
-0.275182
0.00101697
-0.268172
0.00160604
-0.262191
0.00223473
-0.256666
0.00287197
-0.251244
0.00349754
-0.245764
0.00409953
-0.240181
0.0046721
-0.234512
0.00521368
-0.228803
0.00572545
-0.223109
0.0062102
-0.217482
0.00667154
-0.211967
0.00711328
-0.206596
0.00753906
-0.201393
0.00795217
-0.196373
0.00835541
-0.191542
0.00875106
-0.186903
0.00914091
-0.182452
0.0095263
-0.178184
0.00990821
-0.174094
0.0102873
-0.170175
0.0106642
-0.166419
0.0110396
-0.162822
0.0114145
-0.159377
0.0117906
-0.156077
0.0121704
-0.152913
0.0125571
-0.14987
0.0129547
-0.146926
-0.144049
0.0133673
0.000148598
-0.284491
0.000510217
-0.275544
0.00101244
-0.268674
0.0015962
-0.262775
0.00221731
-0.257287
0.00284507
-0.251872
0.00345964
-0.246379
0.00404953
-0.240771
0.00460929
-0.235072
0.00513765
-0.229331
0.00563605
-0.223607
0.0061075
-0.217954
0.00655573
-0.212415
0.00698464
-0.207025
0.00739794
-0.201806
0.00779895
-0.196774
0.00819047
-0.191934
0.0085748
-0.187287
0.00895373
-0.182831
0.00932858
-0.178559
0.0097003
-0.174466
0.0100696
-0.170544
0.0104369
-0.166787
0.010803
-0.163188
0.0111688
-0.159742
0.0115358
-0.156444
0.0119067
-0.153283
0.012285
-0.150248
0.012675
-0.147316
-0.144455
0.0130814
0.000148179
-0.284639
0.00050837
-0.275904
0.00100733
-0.269173
0.00158546
-0.263353
0.00219865
-0.2579
0.00281652
-0.25249
0.00341971
-0.246982
0.00399712
-0.241348
0.00454369
-0.235618
0.00505846
-0.229846
0.00554312
-0.224092
0.00600088
-0.218411
0.0064356
-0.21285
0.00685128
-0.20744
0.00725167
-0.202207
0.00764012
-0.197162
0.00801944
-0.192313
0.00839194
-0.18766
0.00875941
-0.183198
0.00912318
-0.178923
0.00948419
-0.174827
0.0098431
-0.170903
0.0102004
-0.167144
0.0105567
-0.163544
0.0109128
-0.160098
0.0112705
-0.156801
0.0116321
-0.153645
0.0120015
-0.150618
0.0123835
-0.147698
-0.144855
0.0127834
0.000147577
-0.284786
0.000506243
-0.276263
0.00100178
-0.269668
0.00157401
-0.263925
0.00217892
-0.258505
0.00278656
-0.253098
0.003378
-0.247573
0.00394257
-0.241913
0.00447558
-0.236151
0.00497638
-0.230347
0.00544694
-0.224563
0.00589063
-0.218855
0.00631144
-0.21327
0.00671345
-0.207842
0.00710046
-0.202594
0.00747585
-0.197538
0.00784244
-0.19268
0.00820254
-0.18802
0.00855795
-0.183554
0.00891
-0.179275
0.00925965
-0.175177
0.00960754
-0.171251
0.00995416
-0.167491
0.0103
-0.16389
0.010646
-0.160444
0.0109936
-0.157149
0.0113455
-0.153997
0.0117055
-0.150978
0.0120789
-0.148071
-0.145248
0.0124718
0.000146831
-0.284933
0.000503966
-0.27662
0.00099598
-0.27016
0.00156205
-0.264491
0.00215837
-0.259101
0.00275543
-0.253695
0.00333477
-0.248153
0.00388615
-0.242464
0.00440525
-0.23667
0.00489175
-0.230833
0.00534783
-0.225019
0.00577706
-0.219284
0.00618355
-0.213677
0.00657145
-0.20823
0.00694461
-0.202967
0.0073064
-0.197899
0.00765967
-0.193033
0.00800672
-0.188367
0.00834937
-0.183896
0.00868897
-0.179615
0.00902647
-0.175514
0.00936255
-0.171587
0.00969769
-0.167826
0.0100324
-0.164225
0.0103674
-0.160779
0.0107042
-0.157486
0.0110455
-0.154338
0.0113954
-0.151328
0.0117595
-0.148435
-0.145633
0.0121449
0.000145998
-0.285079
0.000501701
-0.276976
0.000990139
-0.270649
0.00154983
-0.265051
0.00213726
-0.259688
0.00272341
-0.254281
0.00329033
-0.24872
0.00382819
-0.243002
0.00433305
-0.237175
0.0048049
-0.231305
0.00524615
-0.22546
0.00566056
-0.219699
0.00605233
-0.214069
0.00642568
-0.208604
0.00678448
-0.203326
0.00713211
-0.198247
0.00747142
-0.193372
0.00780473
-0.1887
0.00813383
-0.184225
0.0084601
-0.179941
0.00878454
-0.175839
0.00910782
-0.17191
0.00943046
-0.168148
0.00975293
-0.164547
0.010076
-0.161103
0.0104011
-0.157811
0.0107308
-0.154668
0.0110695
-0.151666
0.0114233
-0.148789
-0.14601
0.0118001
0.000145184
-0.285224
0.000499676
-0.27733
0.000984528
-0.271134
0.00153764
-0.265604
0.00211588
-0.260267
0.00269083
-0.254856
0.00324501
-0.249274
0.00376905
-0.243526
0.00425936
-0.237665
0.00471624
-0.231762
0.00514235
-0.225886
0.00554157
-0.220098
0.00591824
-0.214445
0.0062766
-0.208962
0.00662055
-0.20367
0.00695345
-0.19858
0.00727814
-0.193697
0.00759692
-0.189019
0.0079116
-0.18454
0.00822356
-0.180253
0.00853383
-0.176149
0.00884314
-0.17222
0.00915202
-0.168457
0.00946097
-0.164856
0.00977074
-0.161412
0.0100827
-0.158123
0.0103995
-0.154985
0.0107256
-0.151992
0.0110676
-0.149131
-0.146377
0.0114346
0.00014456
-0.285369
0.00049819
-0.277684
0.000979485
-0.271615
0.00152581
-0.26615
0.00209459
-0.260835
0.00265804
-0.255419
0.00319919
-0.249815
0.00370911
-0.244036
0.00418458
-0.238141
0.00462621
-0.232204
0.00503688
-0.226297
0.00542062
-0.220482
0.00578184
-0.214807
0.00612481
-0.209305
0.00645343
-0.203998
0.00677103
-0.198898
0.00708042
-0.194006
0.00738386
-0.189322
0.00768316
-0.184839
0.0079797
-0.18055
0.00827455
-0.176444
0.00856846
-0.172513
0.00886204
-0.168751
0.00915583
-0.16515
0.0094506
-0.161707
0.00974774
-0.15842
0.0100498
-0.155287
0.0103614
-0.152304
0.0106898
-0.149459
-0.146732
0.0110452
0.000144419
-0.285513
0.000497687
-0.278037
0.000975445
-0.272093
0.00151475
-0.266689
0.00207378
-0.261395
0.00262542
-0.255971
0.00315325
-0.250343
0.00364878
-0.244532
0.00410916
-0.238601
0.00453529
-0.23263
0.00493028
-0.226692
0.00529828
-0.22085
0.00564376
-0.215152
0.005971
-0.209632
0.00628387
-0.204311
0.00658565
-0.199199
0.00687907
-0.1943
0.00716636
-0.18961
0.00744927
-0.185122
0.00772918
-0.180829
0.00800716
-0.176722
0.00828401
-0.17279
0.0085604
-0.169027
0.00883695
-0.165427
0.00911451
-0.161985
0.00939452
-0.1587
0.00967962
-0.155572
0.00997447
-0.152599
0.0102868
-0.149772
-0.147073
0.0106279
0.000145241
-0.285659
0.000498817
-0.278391
0.000972971
-0.272567
0.00150494
-0.267221
0.00205386
-0.261943
0.00259337
-0.25651
0.00310759
-0.250857
0.00358847
-0.245012
0.00403354
-0.239046
0.00444399
-0.23304
0.00482312
-0.227071
0.0051752
-0.221202
0.00550473
-0.215482
0.005816
-0.209943
0.00611278
-0.204608
0.0063983
-0.199485
0.00667519
-0.194577
0.00694556
-0.18988
0.00721109
-0.185388
0.00747309
-0.181091
0.0077326
-0.176981
0.00799044
-0.173048
0.00824733
-0.169284
0.00850397
-0.165683
0.00876132
-0.162242
0.009021
-0.15896
0.00928577
-0.155837
0.00956042
-0.152873
0.00985302
-0.150064
-0.147397
0.0101762
0.000147813
-0.285806
0.000502448
-0.278745
0.000972672
-0.273037
0.00149684
-0.267746
0.00203524
-0.262482
0.00256228
-0.257037
0.0030626
-0.251357
0.0035286
-0.245478
0.00395819
-0.239476
0.00435283
-0.233435
0.004716
-0.227434
0.00505208
-0.221538
0.00536558
-0.215795
0.00566074
-0.210239
0.00594126
-0.204888
0.00621023
-0.199754
0.00647015
-0.194837
0.00672299
-0.190133
0.00697027
-0.185635
0.00721317
-0.181334
0.00745261
-0.177221
0.00768934
-0.173285
0.00792404
-0.169519
0.00815743
-0.165917
0.00839058
-0.162475
0.00862527
-0.159194
0.00886453
-0.156076
0.00911328
-0.153122
0.00937997
-0.150331
-0.147698
0.00968091
0.000153201
-0.28596
0.000509449
-0.279101
0.000975047
-0.273503
0.00149082
-0.268261
0.0020183
-0.263009
0.00253253
-0.257552
0.00301867
-0.251844
0.00346959
-0.245929
0.00388356
-0.23989
0.00426233
-0.233814
0.00460954
-0.227781
0.00492965
-0.221858
0.00522717
-0.216093
0.00550628
-0.210518
0.00577054
-0.205153
0.0060229
-0.200006
0.00626567
-0.195079
0.0065006
-0.190368
0.00672901
-0.185863
0.00695186
-0.181557
0.00716985
-0.177439
0.00738353
-0.173499
0.00759339
-0.169729
0.00780002
-0.166123
0.00800436
-0.162679
0.00820824
-0.159398
0.00841492
-0.156283
0.00862986
-0.153337
0.00886288
-0.150564
-0.14797
0.0091354
0.000162554
-0.286122
0.000520589
-0.279459
0.000980761
-0.273963
0.00148754
-0.268768
0.0020036
-0.263525
0.00250455
-0.258053
0.00297615
-0.252315
0.00341176
-0.246365
0.00381002
-0.240288
0.00417293
-0.234177
0.00450429
-0.228113
0.00480861
-0.222162
0.00509039
-0.216374
0.0053537
-0.210781
0.00560198
-0.205401
0.00583796
-0.200242
0.00606371
-0.195305
0.00628074
-0.190585
0.00649004
-0.186073
0.00669225
-0.181759
0.00688773
-0.177634
0.0070767
-0.173688
0.00725931
-0.169911
0.00743584
-0.1663
0.00760695
-0.162851
0.00777428
-0.159566
0.00794124
-0.15645
0.00811396
-0.15351
0.0083042
-0.150754
-0.148196
0.00853043
0.000177617
-0.2863
0.00053822
-0.27982
0.000991949
-0.274417
0.00148833
-0.269264
0.0019918
-0.264029
0.00247866
-0.258539
0.00293522
-0.252772
0.00335527
-0.246785
0.00373778
-0.240671
0.00408494
-0.234524
0.0044007
-0.228428
0.00468958
-0.222451
0.00495605
-0.216641
0.00520409
-0.211029
0.00543696
-0.205634
0.00565719
-0.200462
0.00586657
-0.195514
0.00606626
-0.190784
0.00625682
-0.186263
0.0064384
-0.181941
0.00661076
-0.177807
0.00677346
-0.17385
0.00692598
-0.170064
0.00706794
-0.166442
0.00719957
-0.162982
0.00732249
-0.159688
0.00744043
-0.156568
0.00755886
-0.153628
0.0076863
-0.150882
-0.148334
0.00782358
0.000205687
-0.286506
0.000569728
-0.280184
0.00101238
-0.274859
0.00149436
-0.269746
0.00198296
-0.264517
0.00245463
-0.259011
0.00289567
-0.253213
0.00330003
-0.247189
0.00366687
-0.241037
0.00399854
-0.234855
0.00429907
-0.228729
0.00457302
-0.222725
0.00482484
-0.216893
0.00505838
-0.211263
0.00527679
-0.205852
0.00548238
-0.200668
0.00567668
-0.195709
0.00586046
-0.190968
0.00603383
-0.186437
0.00619624
-0.182103
0.00634654
-0.177957
0.00648299
-0.173987
0.00660332
-0.170184
0.006705
-0.166543
0.00678584
-0.163063
0.00684529
-0.159748
0.00688556
-0.156608
0.00691149
-0.153654
0.00693217
-0.150902
-0.148357
0.00695558
0.00027069
-0.286776
0.000621646
-0.280535
0.001041
-0.275279
0.00150368
-0.270209
0.00197566
-0.264989
0.00243162
-0.259467
0.00285709
-0.253638
0.00324591
-0.247578
0.00359734
-0.241389
0.00391391
-0.235172
0.00419972
-0.229015
0.0044594
-0.222985
0.00469737
-0.217131
0.00491743
-0.211483
0.00512262
-0.206057
0.0053151
-0.20086
0.00549623
-0.19589
0.00566654
-0.191138
0.0058258
-0.186596
0.00597295
-0.182251
0.00610601
-0.17809
0.0062219
-0.174103
0.00631601
-0.170278
0.00638187
-0.166609
0.00641062
-0.163092
0.00639064
-0.159728
0.00630773
-0.156525
0.00615083
-0.153497
0.00594243
-0.150694
-0.148365
0.00595055
0.290236
0.000186924
-0.290423
0.290087
0.000149298
0.289953
0.000133541
0.289828
0.000125431
0.289707
0.000120632
0.289589
0.000118122
0.289472
0.000117224
0.289354
0.00011732
0.289237
0.000117944
0.289118
0.000118822
0.288998
0.000119789
0.288877
0.000120745
0.288756
0.000121645
0.288633
0.000122454
0.28851
0.000123162
0.288386
0.000123763
0.288262
0.000124258
0.288137
0.000124647
0.288012
0.000124923
0.287887
0.000125084
0.287762
0.000125108
0.287637
0.000124965
0.287513
0.000124575
0.287389
0.000123855
0.287266
0.000122499
0.287146
0.000120351
0.28703
0.000115644
0.286922
0.000108723
0.286836
8.55736e-05
5.97101e-05
0.288213
0.000403003
-0.288429
0.287984
0.000377941
0.287753
0.000364611
0.28752
0.000359192
0.287283
0.000357251
0.287044
0.0003574
0.286802
0.000359222
0.286557
0.000362245
0.286309
0.000365993
0.286057
0.000370101
0.285803
0.000374347
0.285545
0.000378585
0.285284
0.000382707
0.28502
0.000386653
0.284753
0.000390376
0.284483
0.000393846
0.28421
0.000397049
0.283934
0.000399973
0.283657
0.000402598
0.283377
0.000404906
0.283095
0.000406853
0.282812
0.000408378
0.282527
0.000409337
0.282241
0.000409552
0.281955
0.000408542
0.28167
0.00040591
0.281386
0.000399691
0.281104
0.000389858
0.280821
0.000368651
0.000346054
0.284855
0.000608189
-0.28506
0.284628
0.000604717
0.284387
0.000605255
0.284136
0.000610562
0.283875
0.000618399
0.283605
0.000627496
0.283326
0.000637509
0.28304
0.000648203
0.282747
0.000659282
0.282447
0.000670472
0.282139
0.00068157
0.281826
0.000692439
0.281505
0.000702982
0.281179
0.000713125
0.280846
0.000722819
0.280508
0.000732032
0.280164
0.000740737
0.279816
0.000748925
0.279462
0.000756573
0.279103
0.000763657
0.278739
0.000770135
0.278372
0.000775928
0.278
0.00078089
0.277625
0.000784828
0.277246
0.000787303
0.276864
0.000787952
0.276478
0.000785546
0.276088
0.000780194
0.275688
0.000768895
0.000755334
0.280111
0.000778056
-0.280281
0.279921
0.000795521
0.279712
0.000813657
0.279489
0.000833739
0.279252
0.000855136
0.279003
0.000877074
0.278741
0.000899234
0.278468
0.000921463
0.278184
0.000943577
0.277889
0.000965381
0.277583
0.000986716
0.277268
0.00100746
0.276944
0.00102754
0.27661
0.00104689
0.276267
0.00106548
0.275916
0.00108326
0.275557
0.00110024
0.275189
0.0011164
0.274814
0.00113175
0.274431
0.00114626
0.274042
0.00115991
0.273645
0.00117266
0.273241
0.00118438
0.272831
0.00119496
0.272415
0.00120408
0.271991
0.00121155
0.27156
0.00121673
0.27112
0.00121968
0.27067
0.00121913
0.00121626
0.274288
0.000897039
-0.274407
0.274149
0.000934494
0.273991
0.000971212
0.273817
0.00100812
0.273626
0.00104527
0.273421
0.00108232
0.273201
0.00111902
0.272968
0.00115524
0.27272
0.00119085
0.27246
0.00122571
0.272187
0.00125969
0.271902
0.00129269
0.271605
0.00132465
0.271296
0.00135552
0.270976
0.00138527
0.270646
0.00141388
0.270305
0.00144136
0.269953
0.00146771
0.269592
0.00149296
0.269221
0.00151711
0.268841
0.00154017
0.268452
0.00156213
0.268053
0.00158295
0.267645
0.00160258
0.267229
0.00162088
0.266802
0.00163776
0.266366
0.00165293
0.265919
0.00166642
0.265461
0.00167775
0.00168759
0.267697
0.000961708
-0.267762
0.267613
0.00101853
0.26751
0.00107399
0.26739
0.00112862
0.267253
0.00118266
0.267099
0.001236
0.266929
0.00128851
0.266745
0.00134005
0.266545
0.00139052
0.266331
0.00143983
0.266103
0.00148787
0.265861
0.00153456
0.265606
0.00157985
0.265337
0.0016237
0.265057
0.00166608
0.264763
0.001707
0.264458
0.00174647
0.264142
0.00178452
0.263813
0.00182118
0.263474
0.00185651
0.263124
0.00189055
0.262762
0.00192334
0.26239
0.00195493
0.262008
0.00198533
0.261614
0.00201453
0.261209
0.00204256
0.260793
0.00206934
0.260364
0.00209499
0.259923
0.00211938
0.00214309
0.260653
0.000977163
-0.260669
0.260619
0.00105278
0.260566
0.00112668
0.260496
0.00119916
0.260408
0.00127041
0.260303
0.00134046
0.260183
0.00140922
0.260046
0.0014766
0.259894
0.00154252
0.259727
0.00160689
0.259545
0.00166963
0.259349
0.00173069
0.259139
0.00179
0.258915
0.00184754
0.258678
0.00190331
0.258428
0.00195729
0.258165
0.00200954
0.257889
0.00206009
0.257601
0.00210901
0.257301
0.00215638
0.25699
0.00220229
0.256666
0.00224684
0.256331
0.00229015
0.255984
0.00233231
0.255625
0.00237342
0.255254
0.00241362
0.25487
0.00245298
0.254474
0.00249171
0.254063
0.00252985
0.00256794
0.253425
0.000952659
-0.2534
0.253431
0.00104639
0.25342
0.00113815
0.253391
0.00122808
0.253345
0.00131633
0.253283
0.00140295
0.253204
0.00148791
0.253109
0.00157111
0.252999
0.0016525
0.252874
0.001732
0.252734
0.00180954
0.25258
0.00188507
0.252411
0.00195855
0.252229
0.00202995
0.252033
0.00209927
0.251824
0.00216654
0.251602
0.00223178
0.251367
0.00229507
0.251119
0.0023565
0.250859
0.0024162
0.250587
0.00247428
0.250303
0.00253092
0.250007
0.00258628
0.249699
0.00264058
0.249378
0.00269399
0.249045
0.00274675
0.248699
0.00279905
0.24834
0.00285119
0.247966
0.00290331
0.00295589
0.246219
0.00089853
-0.246165
0.246256
0.00100956
0.246276
0.00111843
0.246279
0.00122518
0.246265
0.0013299
0.246235
0.00143265
0.24619
0.0015334
0.246129
0.00163207
0.246053
0.00172861
0.245962
0.00182295
0.245856
0.00191502
0.245737
0.00200478
0.245603
0.00209219
0.245456
0.00217724
0.245295
0.00225991
0.245121
0.00234025
0.244935
0.0024183
0.244736
0.00249416
0.244524
0.00256794
0.244301
0.00263979
0.244065
0.0027099
0.243817
0.00277848
0.243558
0.00284578
0.243286
0.00291209
0.243003
0.00297768
0.242707
0.00304289
0.242398
0.00310802
0.242075
0.00317344
0.241739
0.00323939
0.0033063
0.239179
0.00082443
-0.239105
0.239236
0.000951938
0.239278
0.00107712
0.239303
0.00119994
0.239312
0.00132046
0.239306
0.00143872
0.239285
0.00155468
0.239249
0.00166828
0.239198
0.00177946
0.239133
0.00188813
0.239054
0.00199426
0.238961
0.00209779
0.238854
0.00219868
0.238734
0.00229691
0.238602
0.00239249
0.238457
0.00248546
0.238299
0.00257588
0.238129
0.00266385
0.237948
0.00274952
0.237755
0.00283307
0.23755
0.00291473
0.237333
0.00299478
0.237106
0.00307354
0.236866
0.00315137
0.236615
0.00322867
0.236352
0.00330586
0.236077
0.00338335
0.235789
0.00346159
0.235487
0.00354092
0.00362177
0.232394
0.000738514
-0.232308
0.232465
0.000881705
0.232519
0.00102241
0.232559
0.00116056
0.232583
0.00129618
0.232592
0.00142928
0.232587
0.00155982
0.232568
0.00168773
0.232534
0.00181294
0.232487
0.00193538
0.232426
0.00205499
0.232352
0.00217171
0.232266
0.00228551
0.232166
0.00239636
0.232054
0.00250428
0.231931
0.00260929
0.231795
0.00271148
0.231648
0.00281096
0.231489
0.00290789
0.23132
0.00300249
0.23114
0.00309503
0.230949
0.00318586
0.230747
0.00327536
0.230534
0.00336399
0.230311
0.00345225
0.230076
0.00354068
0.229829
0.00362981
0.229571
0.0037202
0.229299
0.00381227
0.00390649
0.225914
0.000647181
-0.225823
0.225991
0.000805335
0.226052
0.000960851
0.226099
0.00111363
0.226132
0.00126368
0.22615
0.00141098
0.226154
0.00155547
0.226145
0.00169708
0.226122
0.00183572
0.226086
0.00197133
0.226037
0.00210382
0.225976
0.00223315
0.225902
0.00235926
0.225816
0.00248213
0.225719
0.00260176
0.22561
0.00271819
0.22549
0.00283149
0.225359
0.0029418
0.225218
0.00304927
0.225066
0.00315418
0.224904
0.00325682
0.224733
0.0033576
0.224551
0.00345698
0.224359
0.00355552
0.224158
0.00365384
0.223946
0.0037526
0.223723
0.00385247
0.223489
0.00395415
0.223243
0.0040582
0.00416512
0.219758
0.000555126
-0.219666
0.219835
0.000727618
0.219899
0.000897326
0.219948
0.00106413
0.219984
0.001228
0.220006
0.00138891
0.220015
0.00154677
0.220011
0.00170151
0.219993
0.00185303
0.219963
0.00200124
0.219921
0.00214606
0.219867
0.00228743
0.219801
0.00242528
0.219723
0.00255958
0.219635
0.00269033
0.219535
0.00281755
0.219426
0.00294131
0.219306
0.00306175
0.219176
0.00317904
0.219037
0.00329347
0.218888
0.00340538
0.21873
0.00351522
0.218564
0.00362355
0.218388
0.00373101
0.218204
0.00383836
0.21801
0.00394641
0.217806
0.00405602
0.217593
0.00416803
0.217368
0.00428318
0.00440206
0.213924
0.000465572
-0.213834
0.213999
0.000651877
0.214061
0.000835248
0.21411
0.00101555
0.214145
0.00119273
0.214167
0.00136673
0.214177
0.00153747
0.214173
0.00170484
0.214158
0.00186874
0.21413
0.00202906
0.21409
0.00218572
0.214039
0.00233862
0.213977
0.0024877
0.213903
0.0026329
0.213819
0.00277421
0.213725
0.00291164
0.213621
0.00304525
0.213508
0.00317516
0.213385
0.00330156
0.213254
0.00342475
0.213115
0.00354509
0.212967
0.00366309
0.212811
0.00377937
0.212647
0.00389471
0.212475
0.00400999
0.212296
0.00412621
0.212107
0.00424444
0.21191
0.00436573
0.211702
0.00449104
0.00462112
0.208399
0.000380555
-0.208314
0.20847
0.000580238
0.208529
0.000776838
0.208574
0.0009702
0.208607
0.00116026
0.208626
0.00134694
0.208634
0.00153013
0.208629
0.00170972
0.208612
0.00188557
0.208584
0.00205759
0.208544
0.00222565
0.208493
0.00238966
0.208431
0.00254952
0.208359
0.00270516
0.208276
0.00285655
0.208184
0.00300367
0.208083
0.00314658
0.207973
0.00328536
0.207854
0.00342022
0.207727
0.00355143
0.207593
0.00367939
0.207451
0.00380465
0.207303
0.00392791
0.207148
0.00405003
0.206985
0.00417208
0.206816
0.00429527
0.20664
0.0044209
0.206455
0.00455034
0.206262
0.00468482
0.00482531
0.203163
0.000301207
-0.203084
0.20323
0.000513917
0.203283
0.000723391
0.203324
0.000929465
0.203352
0.00113206
0.203368
0.00133106
0.203372
0.00152636
0.203364
0.00171782
0.203344
0.0019053
0.203313
0.00208866
0.203271
0.00226779
0.203218
0.00244254
0.203155
0.00261282
0.203081
0.00277853
0.202998
0.00293959
0.202906
0.00309597
0.202805
0.00324769
0.202695
0.00339483
0.202578
0.00353755
0.202453
0.00367611
0.202322
0.00381093
0.202184
0.00394257
0.20204
0.0040718
0.20189
0.00419961
0.201735
0.00432721
0.201574
0.00445606
0.201408
0.00458779
0.201234
0.00472412
0.201052
0.00486668
0.00501677
0.198195
0.000228012
-0.198122
0.198255
0.000453467
0.198303
0.000675534
0.198339
0.000894039
0.198362
0.00110888
0.198373
0.00131994
0.198372
0.00152708
0.19836
0.00173014
0.198336
0.00192896
0.198301
0.00212341
0.198256
0.00231332
0.1982
0.00249855
0.198134
0.00267895
0.198058
0.00285441
0.197973
0.00302482
0.197878
0.0031901
0.197776
0.00335025
0.197665
0.00350529
0.197548
0.00365535
0.197423
0.00380067
0.197292
0.00394164
0.197156
0.00407883
0.197015
0.00421306
0.196869
0.0043454
0.196719
0.00447728
0.196565
0.00461039
0.196406
0.00474677
0.196241
0.00488857
0.19607
0.005038
0.00519682
0.19347
0.000161026
-0.193403
0.193524
0.000399
0.193567
0.000633438
0.193596
0.000864154
0.193614
0.00109103
0.19362
0.00131392
0.193615
0.00153268
0.193598
0.00174713
0.19357
0.00195711
0.193531
0.00216242
0.193481
0.00236291
0.193421
0.0025584