/*--------------------------------*- C++ -*----------------------------------*\
  =========                 |
  \\      /  F ield         | OpenFOAM: The Open Source CFD Toolbox
   \\    /   O peration     | Website:  https://openfoam.org
    \\  /    A nd           | Version:  6.0
     \\/     M anipulation  |
\*---------------------------------------------------------------------------*/
FoamFile
{
    version     2.0;
    format      ascii;
    class       volVectorField;
    location    "17";
    object      U;
}
// * * * * * * * * * * * * * * * * * * * * * * * * * * * * * * * * * * * * * //

dimensions      [0 1 -1 0 0 0 0];

internalField   nonuniform List<vector> 
2400
(
(0.435836 -4.20094 -1.88741e-19)
(0.162956 -3.45262 7.39339e-20)
(0.237431 -3.02905 -5.815e-20)
(0.352218 -2.77114 -3.44778e-20)
(0.449615 -2.59873 -4.36455e-20)
(0.539141 -2.4679 6.3646e-20)
(0.620367 -2.35685 1.98205e-20)
(0.690947 -2.25514 1.47234e-20)
(0.751455 -2.15706 -3.27751e-20)
(0.802185 -2.05755 -2.99889e-21)
(0.769723 -4.17759 2.31003e-19)
(0.450139 -3.5005 -5.81768e-21)
(0.500797 -3.1069 4.92224e-20)
(0.601238 -2.86206 3.29566e-19)
(0.687442 -2.69362 -2.30578e-19)
(0.766052 -2.56001 -6.12385e-21)
(0.835762 -2.44212 -4.91456e-21)
(0.894219 -2.33174 -2.74475e-20)
(0.942453 -2.22468 -3.03069e-20)
(0.980865 -2.1169 -1.46516e-21)
(1.10371 -4.1314 4.46885e-19)
(0.746222 -3.52998 3.33035e-19)
(0.77689 -3.16677 -8.32312e-19)
(0.86396 -2.93391 2.40317e-19)
(0.938252 -2.768 3.1867e-19)
(1.00424 -2.63047 -1.78262e-19)
(1.0603 -2.5051 -1.44201e-19)
(1.1045 -2.38604 9.66894e-20)
(1.13858 -2.27058 -1.98116e-19)
(1.16299 -2.15593 2.02007e-19)
(1.43611 -4.06172 -1.53817e-18)
(1.05007 -3.53904 5.64501e-19)
(1.06425 -3.20592 -5.56328e-19)
(1.13841 -2.98366 2.30815e-19)
(1.19961 -2.81896 -2.23138e-19)
(1.25097 -2.67672 3.07383e-19)
(1.29113 -2.54375 9.80184e-20)
(1.319 -2.41651 -4.42029e-19)
(1.33725 -2.29372 -3.44993e-19)
(1.34632 -2.17406 3.77242e-19)
(1.76545 -3.96804 7.26281e-20)
(1.36027 -3.52564 -2.35107e-19)
(1.36101 -3.22163 -1.19194e-19)
(1.42217 -3.00851 -1.17483e-19)
(1.46873 -2.84395 -6.11212e-19)
(1.50327 -2.69667 7.4066e-20)
(1.52529 -2.55652 -5.73016e-20)
(1.5349 -2.4221 4.79507e-19)
(1.53585 -2.29347 -3.27849e-19)
(1.52855 -2.17098 -1.83444e-19)
(2.09001 -3.8499 1.48948e-18)
(1.67499 -3.48783 -1.32906e-19)
(1.6648 -3.21144 1.62312e-18)
(1.71243 -3.00604 -2.2591e-19)
(1.74252 -2.84094 7.7884e-19)
(1.75802 -2.68882 -1.05746e-19)
(1.75979 -2.5424 1.44143e-20)
(1.74942 -2.40224 4.31785e-19)
(1.73187 -2.26954 -2.37106e-19)
(1.70749 -2.14644 3.20557e-19)
(2.40797 -3.70696 -5.93882e-19)
(1.992 -3.42387 1.13896e-19)
(1.97288 -3.17321 -4.26143e-19)
(2.00603 -2.9743 -4.18435e-19)
(2.01771 -2.80843 1.7615e-20)
(2.01206 -2.65222 1.25832e-18)
(1.99178 -2.50102 -4.33792e-19)
(1.96011 -2.35696 1.33317e-19)
(1.92324 -2.22208 -6.07752e-19)
(1.88163 -2.1004 -2.80114e-19)
(2.71752 -3.53917 2.60822e-18)
(2.30885 -3.33232 -3.80367e-19)
(2.28215 -3.10521 -2.40106e-18)
(2.29954 -2.91179 1.22776e-19)
(2.29079 -2.7454 4.49396e-19)
(2.26207 -2.58638 -6.04926e-19)
(2.21827 -2.43237 -7.39144e-19)
(2.16449 -2.28657 1.06259e-18)
(2.10811 -2.15147 -9.41703e-20)
(2.04972 -2.03383 -7.96729e-19)
(3.01697 -3.34669 -2.19125e-18)
(2.62301 -3.21201 1.14058e-18)
(2.58938 -3.00612 1.5916e-18)
(2.58945 -2.81756 3.67798e-19)
(2.55828 -2.6513 -1.31097e-18)
(2.50466 -2.49108 7.99451e-19)
(2.43598 -2.33633 4.25127e-19)
(2.35923 -2.1908 8.62416e-19)
(2.28268 -2.05776 -5.53413e-19)
(2.20696 -1.94909 -7.01061e-19)
(3.30435 -3.12937 7.27479e-19)
(2.93162 -3.06191 -2.78006e-19)
(2.89125 -2.87521 -6.56668e-20)
(2.87243 -2.69136 3.73103e-19)
(2.81719 -2.52631 2.88383e-19)
(2.73736 -2.36659 -2.17155e-19)
(2.64271 -2.21281 -3.60943e-19)
(2.54151 -2.06903 5.74016e-19)
(2.44118 -1.94065 -4.59505e-19)
(2.34245 -1.84504 4.20851e-19)
(4.97364 0.139701 4.74053e-20)
(4.93217 -0.249411 1.47467e-19)
(4.85835 -0.630655 -4.66405e-19)
(4.7538 -1.00147 4.23558e-19)
(4.61992 -1.35943 1.68494e-19)
(4.4584 -1.70229 2.11676e-18)
(4.27115 -2.02802 -8.36212e-19)
(4.06027 -2.33489 -1.1586e-18)
(3.82773 -2.62148 1.28488e-18)
(3.57623 -2.88634 -2.22824e-18)
(4.97356 -0.135462 1.41835e-19)
(4.89861 -0.514418 -6.5857e-20)
(4.78811 -0.881716 -4.12539e-19)
(4.64422 -1.23395 1.10851e-18)
(4.46929 -1.568 -3.81089e-19)
(4.266 -1.88106 2.93367e-18)
(4.03732 -2.17072 -1.91483e-18)
(3.78646 -2.43498 2.72321e-18)
(3.51649 -2.67232 -1.91827e-18)
(3.23094 -2.88155 -9.68081e-19)
(4.83607 -0.104078 -2.70129e-19)
(4.77516 -0.463574 1.81224e-20)
(4.67827 -0.813581 -1.16765e-18)
(4.54703 -1.15024 8.87884e-19)
(4.38357 -1.46995 -9.62028e-19)
(4.19044 -1.76943 -1.87406e-18)
(3.97058 -2.04575 -6.4288e-19)
(3.72726 -2.29638 -4.51821e-19)
(3.46388 -2.51922 1.83631e-18)
(3.18416 -2.71257 1.0499e-18)
(4.59481 -0.0593385 1.11485e-19)
(4.55405 -0.392812 -1.93601e-19)
(4.47908 -0.719829 -2.66787e-19)
(4.37095 -1.03654 -1.09279e-18)
(4.23123 -1.3393 7.16325e-19)
(4.062 -1.62467 1.96134e-18)
(3.86573 -1.8895 7.98304e-19)
(3.64533 -2.13096 1.69614e-19)
(3.40398 -2.34648 4.5418e-19)
(3.14522 -2.53388 5.49878e-20)
(4.31326 -0.0464274 -1.18793e-19)
(4.28766 -0.351981 -4.67746e-19)
(4.23076 -0.653477 4.29265e-20)
(4.14316 -0.947382 8.77153e-19)
(4.02594 -1.23025 9.46204e-19)
(3.88066 -1.49885 -6.40202e-19)
(3.70932 -1.75005 -1.13738e-18)
(3.51432 -1.98103 -5.85934e-19)
(3.29854 -2.18899 6.38349e-19)
(3.06503 -2.37155 9.89092e-19)
(4.03222 -0.0430574 2.9196e-20)
(4.01654 -0.321813 3.85804e-19)
(3.97274 -0.598154 -9.05292e-19)
(3.90112 -0.868962 1.10831e-18)
(3.80247 -1.13114 6.69986e-19)
(3.67792 -1.38182 1.26828e-18)
(3.52909 -1.61804 -2.70207e-19)
(3.3579 -1.83735 -7.54231e-19)
(3.16705 -2.0368 1.76165e-18)
(2.95896 -2.21424 -1.51052e-18)
(3.77247 -0.0422113 5.72334e-20)
(3.76234 -0.296645 -4.22072e-19)
(3.72708 -0.549657 -2.71815e-19)
(3.66688 -0.798541 -5.93692e-19)
(3.58229 -1.04058 -8.39861e-20)
(3.4742 -1.27334 -8.47271e-19)
(3.34395 -1.49414 -5.50387e-19)
(3.19302 -1.70114 -9.12317e-20)
(3.02422 -1.89118 -1.05241e-18)
(2.83909 -2.06312 1.44717e-18)
(3.54162 -0.0424232 -4.75799e-20)
(3.53393 -0.275559 3.50561e-19)
(3.5037 -0.507751 -1.55156e-19)
(3.45111 -0.736652 3.39946e-19)
(3.37662 -0.959904 8.18219e-19)
(3.28092 -1.17553 1.36507e-18)
(3.16521 -1.38113 -3.65953e-19)
(3.03052 -1.57587 -1.30184e-18)
(2.88013 -1.75597 3.84321e-19)
(2.71411 -1.92254 -2.22525e-18)
(3.33967 -0.0416517 6.79624e-20)
(3.3326 -0.256841 -8.07787e-20)
(3.30515 -0.471289 -7.84141e-19)
(3.25749 -0.682928 2.36491e-19)
(3.1901 -0.889696 -5.64328e-19)
(3.10343 -1.09003 -2.42912e-19)
(2.99867 -1.28176 -1.56993e-19)
(2.87622 -1.46541 5.96766e-19)
(2.7402 -1.63637 5.79034e-19)
(2.5882 -1.79992 4.51886e-19)
(3.16289 -0.0412186 -1.59577e-19)
(3.15549 -0.240757 2.77824e-19)
(3.12955 -0.440151 1.35015e-19)
(3.08515 -0.637563 3.79024e-19)
(3.02271 -0.83114 -3.97224e-20)
(2.94229 -1.01958 -3.31655e-20)
(2.84519 -1.20077 -9.12559e-19)
(2.73037 -1.37643 1.19784e-18)
(2.60407 -1.54064 -7.49682e-19)
(2.46055 -1.70867 2.09939e-19)
(3.52704 3.71312 -1.37442e-18)
(3.81054 3.42854 1.43553e-18)
(4.06735 3.12031 -7.69457e-20)
(4.29571 2.791 -2.45382e-18)
(4.49352 2.44309 1.779e-18)
(4.65906 2.07947 -1.23755e-18)
(4.79108 1.70333 -2.78518e-19)
(4.88882 1.31805 -2.62482e-19)
(4.95185 0.926911 4.18381e-19)
(4.98042 0.533657 2.98226e-20)
(3.69854 3.38098 1.69221e-18)
(3.97363 3.10821 3.20588e-19)
(4.22164 2.80934 -1.70774e-18)
(4.43994 2.48704 -1.78913e-18)
(4.62596 2.14423 1.48395e-18)
(4.77746 1.78429 -1.18099e-18)
(4.89267 1.41094 1.3167e-18)
(4.9704 1.02823 -3.70827e-19)
(5.00985 0.64016 -1.10012e-18)
(5.01104 0.251068 -7.57795e-20)
(3.50558 3.10848 -3.05546e-19)
(3.77358 2.87257 -2.29459e-19)
(4.01831 2.60995 9.91104e-19)
(4.23664 2.32282 9.05051e-19)
(4.42576 2.01381 1.96099e-18)
(4.58314 1.68603 6.24106e-19)
(4.70667 1.34294 -4.41323e-19)
(4.7947 0.988353 -9.42185e-19)
(4.84597 0.626192 7.54051e-19)
(4.85989 0.260695 5.41154e-20)
(3.24439 2.80738 4.09764e-19)
(3.49712 2.60665 -9.6447e-19)
(3.73054 2.38031 -3.82187e-19)
(3.94148 2.13007 -1.68457e-18)
(4.12715 1.85811 -9.01406e-19)
(4.28507 1.56707 1.66277e-18)
(4.41303 1.25997 1.07445e-18)
(4.50922 0.940126 -9.0455e-19)
(4.57218 0.611076 3.88858e-20)
(4.6009 0.276632 -3.85448e-20)
(3.00863 2.50682 -1.47141e-18)
(3.24125 2.33372 1.67477e-18)
(3.45756 2.13699 -4.22629e-19)
(3.6546 1.91783 8.84187e-19)
(3.82981 1.67805 -5.85735e-19)
(3.9809 1.41993 -9.92609e-19)
(4.10583 1.14605 4.66657e-19)
(4.20281 0.859263 -5.01967e-19)
(4.2704 0.562688 -4.84275e-19)
(4.30744 0.259636 2.04849e-19)
(2.80777 2.24316 -1.99111e-19)
(3.02019 2.09129 3.13112e-19)
(3.21815 1.91797 -3.63379e-19)
(3.39916 1.72387 -1.72109e-18)
(3.56101 1.51057 9.30447e-19)
(3.7017 1.28008 1.50921e-19)
(3.81941 1.03466 -8.38185e-19)
(3.91252 0.776832 -2.85726e-19)
(3.9797 0.509319 2.61545e-19)
(4.01983 0.235008 -7.60349e-20)
(2.64221 2.02261 -7.69757e-19)
(2.83668 1.88701 4.5935e-21)
(3.01735 1.73204 3.71897e-19)
(3.18237 1.55782 9.77971e-19)
(3.3302 1.36585 2.02972e-19)
(3.45916 1.15795 4.90938e-19)
(3.56768 0.93614 9.60915e-19)
(3.65434 0.702724 -4.05467e-19)
(3.71798 0.460144 3.45686e-19)
(3.75756 0.210941 -1.29853e-19)
(2.5064 1.84102 -2.77421e-19)
(2.68541 1.71903 3.2146e-19)
(2.85104 1.57844 3.13099e-19)
(3.0014 1.41985 -4.66655e-19)
(3.13584 1.24488 -2.59163e-19)
(3.25321 1.05507 -5.58506e-19)
(3.35214 0.852388 5.37438e-20)
(3.4314 0.639018 -1.2414e-19)
(3.48994 0.417225 -7.38463e-19)
(3.52686 0.189287 9.9317e-20)
(2.39581 1.69267 -1.00803e-19)
(2.55794 1.58454 -5.30084e-19)
(2.71016 1.45497 -2.10475e-19)
(2.848 1.30844 1.02517e-19)
(2.97059 1.147 -5.90592e-20)
(3.07741 0.971688 4.96623e-19)
(3.16747 0.784376 1.98506e-19)
(3.23961 0.587271 2.97194e-19)
(3.29283 0.382506 3.49023e-19)
(3.32634 0.172159 -1.43212e-19)
(2.32557 1.55766 -3.70394e-19)
(2.46373 1.46089 6.54426e-19)
(2.59791 1.34014 -1.07804e-18)
(2.72303 1.20421 -1.84101e-20)
(2.8337 1.05546 8.9375e-19)
(2.92939 0.894068 4.33347e-20)
(3.01002 0.721481 3.95196e-19)
(3.07462 0.539751 -8.20456e-19)
(3.12213 0.35084 -7.35963e-21)
(3.1517 0.156578 7.32903e-20)
(0.67447 1.72871 8.95707e-21)
(0.635583 1.86501 -2.30317e-21)
(0.594342 2.03269 -3.19235e-21)
(0.54738 2.24466 2.76439e-20)
(0.495341 2.51669 -1.20973e-20)
(0.437973 2.86507 -5.24323e-20)
(0.378298 3.30132 7.05847e-20)
(0.334191 3.82037 2.81382e-20)
(0.259583 4.37714 4.78104e-20)
(-0.111292 4.86604 1.9769e-19)
(0.820225 1.77932 2.37262e-20)
(0.793489 1.92012 -7.63589e-20)
(0.765629 2.09195 8.05948e-20)
(0.735591 2.3076 1.95813e-20)
(0.704977 2.5824 -4.43797e-20)
(0.674508 2.93206 4.50524e-20)
(0.647979 3.36664 1.9012e-19)
(0.642695 3.87718 -2.48809e-19)
(0.608818 4.41709 1.36237e-20)
(0.272437 4.89368 -2.44832e-19)
(0.974454 1.81659 1.34075e-19)
(0.960335 1.96108 -1.70257e-19)
(0.946346 2.13622 -6.82382e-20)
(0.933764 2.35444 -6.98223e-21)
(0.925023 2.63058 -8.55076e-20)
(0.921696 2.97961 -3.87766e-20)
(0.92812 3.40996 6.71937e-20)
(0.960464 3.90875 1.95849e-19)
(0.964632 4.42837 1.52317e-19)
(0.659121 4.89027 -4.67405e-19)
(1.13603 1.83942 1.51539e-19)
(1.13476 1.98671 -1.62886e-19)
(1.13501 2.16421 -1.66693e-19)
(1.14032 2.38374 8.93108e-20)
(1.15378 2.65964 5.32549e-19)
(1.17769 3.006 -2.22325e-19)
(1.21667 3.42952 1.81182e-19)
(1.28524 3.91344 -6.47337e-19)
(1.32461 4.4097 -7.51912e-19)
(1.04631 4.85526 8.8004e-19)
(1.30369 1.84695 1.26179e-19)
(1.31522 1.99613 -7.91564e-20)
(1.32993 2.17489 2.37498e-19)
(1.35344 2.39432 -2.09086e-19)
(1.38931 2.66823 1.75592e-19)
(1.44036 3.00977 1.49918e-19)
(1.5113 3.42379 1.44237e-19)
(1.61446 3.88977 1.28995e-19)
(1.686 4.35988 5.07357e-19)
(1.43128 4.788 4.34521e-19)
(1.4759 1.83855 -4.39905e-19)
(1.49992 1.98865 -1.03296e-19)
(1.52913 2.16745 4.70109e-19)
(1.57104 2.38519 -5.24058e-19)
(1.62937 2.65522 -2.39587e-19)
(1.70733 2.98968 -6.27238e-19)
(1.80939 3.39149 2.60871e-20)
(1.94522 3.83657 -7.02811e-19)
(2.0457 4.27801 -8.13443e-20)
(1.81112 4.68818 -1.34612e-18)
(1.65093 1.81422 7.14924e-19)
(1.68683 1.96411 -1.07488e-18)
(1.73045 2.14146 5.96146e-19)
(1.79085 2.35565 2.88409e-19)
(1.87157 2.61975 -7.52916e-20)
(1.97598 2.94475 8.96136e-19)
(2.10807 3.3316 -5.60586e-19)
(2.27438 3.75293 -1.50018e-18)
(2.40042 4.16352 -2.17758e-19)
(2.18279 4.55585 1.24131e-18)
(1.82638 1.77334 -4.91078e-21)
(1.87331 1.92201 5.37404e-19)
(1.93123 2.09635 -2.48174e-19)
(2.01022 2.3051 2.73549e-19)
(2.11319 2.56114 2.56686e-19)
(2.24343 2.87427 -4.51499e-19)
(2.40421 3.24343 3.31023e-19)
(2.59857 3.63832 -7.78578e-19)
(2.74667 4.0163 2.02861e-18)
(2.54321 4.39151 -6.76309e-19)
(1.9991 1.71872 -3.79978e-19)
(2.05626 1.86322 -1.68936e-19)
(2.12884 2.03212 7.62742e-19)
(2.22677 2.23318 -1.09827e-18)
(2.35165 2.47896 1.09223e-18)
(2.50679 2.7778 -5.68929e-19)
(2.69461 3.12659 -9.59233e-19)
(2.91431 3.49246 2.24349e-19)
(3.08091 3.83638 -3.58262e-18)
(2.88937 4.19572 2.46161e-18)
(2.16546 1.6485 1.01936e-18)
(2.22998 1.78573 -8.08075e-19)
(2.31944 1.94754 8.28018e-19)
(2.43742 2.13946 -6.92043e-20)
(2.58386 2.37307 -8.61378e-19)
(2.76279 2.65523 -4.45143e-19)
(2.97575 2.98106 5.00449e-19)
(3.21786 3.31566 1.37165e-18)
(3.39947 3.62467 1.73923e-18)
(3.21806 3.97033 1.63387e-20)
(-0.180194 0.806646 2.82037e-19)
(-0.297913 0.874524 -1.92426e-19)
(-0.446015 0.979054 6.37649e-20)
(-0.631164 1.1229 -1.3531e-19)
(-0.862644 1.31438 -7.54189e-20)
(-1.15333 1.56413 -7.94757e-20)
(-1.51413 1.88668 8.33149e-21)
(-1.94303 2.30541 7.55328e-20)
(-2.47316 2.78957 1.72075e-19)
(-3.28347 3.13547 -1.81632e-19)
(-0.148023 0.911218 -1.38093e-19)
(-0.259477 0.985225 -1.12188e-19)
(-0.396893 1.0954 2.05171e-19)
(-0.570389 1.24669 7.89802e-20)
(-0.78747 1.4499 8.40343e-20)
(-1.0593 1.7167 -8.36947e-20)
(-1.39514 2.06155 -1.77142e-20)
(-1.78991 2.50587 -1.77687e-19)
(-2.27627 3.01823 -2.54937e-19)
(-3.04341 3.40402 4.62117e-19)
(-0.103932 1.01658 5.66072e-20)
(-0.209613 1.09824 -1.0698e-20)
(-0.337176 1.2147 1.89937e-19)
(-0.498479 1.37329 -1.20941e-19)
(-0.700074 1.58701 -4.70167e-20)
(-0.951677 1.86886 2.16565e-20)
(-1.26089 2.23337 -1.27854e-20)
(-1.61987 2.69971 3.58039e-19)
(-2.06113 3.23544 1.6999e-19)
(-2.78329 3.65531 -3.41033e-19)
(-0.0477422 1.12159 2.78811e-19)
(-0.147871 1.21099 -1.11287e-19)
(-0.265966 1.33435 3.87732e-20)
(-0.414657 1.50053 -2.50519e-20)
(-0.599845 1.72404 7.70908e-20)
(-0.829984 2.01922 -2.80662e-20)
(-1.11108 2.40083 -2.4002e-20)
(-1.43284 2.88567 4.57026e-20)
(-1.82798 3.44009 2.63268e-21)
(-2.50399 3.88816 5.18101e-19)
(0.020574 1.22476 -1.91387e-19)
(-0.0735795 1.32183 -4.39485e-21)
(-0.182216 1.45239 4.79509e-20)
(-0.317956 1.62632 1.3949e-21)
(-0.48603 1.85907 -2.81815e-21)
(-0.693692 2.1661 -1.73611e-20)
(-0.945419 2.56241 4.32466e-20)
(-1.22879 3.06228 -5.31328e-20)
(-1.5771 3.63066 -6.81739e-21)
(-2.20632 4.10089 -6.42589e-19)
(0.100836 1.3249 8.96842e-21)
(0.0134847 1.42947 -6.02068e-20)
(-0.0853742 1.5672 3.95583e-20)
(-0.207746 1.74877 -4.34943e-21)
(-0.358062 1.99016 -1.57685e-20)
(-0.54238 2.30768 6.11577e-20)
(-0.763713 2.71636 3.16435e-20)
(-1.00782 3.22783 1.57236e-20)
(-1.30896 3.80545 1.52869e-19)
(-1.8914 4.29183 1.29524e-19)
(0.192966 1.42065 3.59129e-20)
(0.113381 1.53248 -2.33354e-20)
(0.0247946 1.67713 -2.35933e-21)
(-0.0837055 1.86598 3.3351e-20)
(-0.215631 2.11534 -3.31793e-20)
(-0.375832 2.44199 4.45115e-20)
(-0.565921 2.86077 -5.61238e-20)
(-0.770173 3.38044 1.92755e-19)
(-1.02424 3.96265 2.15723e-19)
(-1.5606 4.4594 3.15643e-19)
(0.296806 1.51049 2.96563e-21)
(0.225989 1.62921 7.4562e-21)
(0.148267 1.78041 -7.30932e-21)
(0.0542088 1.97608 -9.42559e-21)
(-0.0586892 2.2326 4.9188e-20)
(-0.19407 2.56697 -8.35315e-20)
(-0.352226 2.99361 -8.77838e-20)
(-0.516313 3.51812 3.73324e-19)
(-0.723844 4.1004 -8.64208e-20)
(-1.21549 4.6021 -3.55121e-19)
(0.412029 1.59283 -1.31172e-20)
(0.350966 1.718 7.45162e-21)
(0.284752 1.87528 3.4965e-21)
(0.205755 2.07715 -1.72378e-21)
(0.112526 2.33992 -3.29402e-20)
(0.00260623 2.68056 1.35383e-19)
(-0.123064 3.11276 -1.69675e-19)
(-0.246905 3.63878 -3.52021e-20)
(-0.408802 4.21674 -7.44195e-22)
(-0.857724 4.71843 -3.00339e-19)
(0.538146 1.66607 1.06512e-20)
(0.487766 1.79713 2.01178e-21)
(0.433725 1.95993 -3.95961e-21)
(0.370433 2.16726 -1.02748e-20)
(0.297506 2.43523 -2.96207e-20)
(0.21362 2.78056 2.48104e-20)
(0.120823 3.21596 1.62863e-20)
(0.0370253 3.74018 3.88076e-20)
(-0.0805816 4.30972 -6.79359e-20)
(-0.489564 4.80717 6.41096e-20)
(-0.186243 0.689159 3.60304e-19)
(-0.211211 0.599539 -1.61985e-19)
(-0.229946 0.510356 4.84199e-20)
(-0.246697 0.427995 2.86123e-19)
(-0.261314 0.353821 1.82853e-19)
(-0.27472 0.28785 1.60352e-20)
(-0.288167 0.229406 9.16718e-20)
(-0.302587 0.177236 1.80059e-20)
(-0.318483 0.129651 3.02586e-20)
(-0.335918 0.084654 -1.23707e-20)
(-0.321435 0.767796 1.57281e-19)
(-0.347817 0.672952 1.79651e-19)
(-0.36942 0.577691 1.94404e-19)
(-0.388974 0.489139 -6.06314e-20)
(-0.406243 0.408588 -9.27688e-20)
(-0.421974 0.335892 -1.51538e-19)
(-0.437096 0.270238 6.87675e-20)
(-0.452294 0.210322 -2.2386e-19)
(-0.467921 0.15451 -1.96358e-20)
(-0.483977 0.100959 1.81194e-20)
(-0.483919 0.868164 -4.64597e-19)
(-0.515584 0.764845 7.76021e-20)
(-0.542341 0.662726 -3.61432e-19)
(-0.56604 0.566681 -1.061e-19)
(-0.586742 0.477743 3.43153e-19)
(-0.605094 0.395786 2.11873e-19)
(-0.621758 0.320044 8.14665e-20)
(-0.63721 0.249344 -3.43062e-20)
(-0.651678 0.182268 7.82135e-20)
(-0.665143 0.117269 -1.13919e-20)
(-0.680842 1.00336 -1.07922e-19)
(-0.721757 0.888226 -1.97314e-19)
(-0.756525 0.775446 -3.06562e-20)
(-0.786467 0.668001 -1.12861e-19)
(-0.811953 0.56658 -1.86594e-19)
(-0.833565 0.471101 -1.71355e-20)
(-0.851807 0.380965 -1.11542e-19)
(-0.867034 0.295255 -5.31362e-20)
(-0.879429 0.212877 -9.17552e-20)
(-0.889024 0.132647 1.01846e-20)
(-0.926041 1.18134 -2.16567e-19)
(-0.979441 1.05072 2.771e-19)
(-1.02476 0.922472 2.82859e-20)
(-1.06302 0.798473 -4.45677e-20)
(-1.09474 0.679258 7.01445e-20)
(-1.12042 0.564865 1.14128e-19)
(-1.14048 0.45496 1.92112e-19)
(-1.15521 0.348975 -1.41206e-19)
(-1.16481 0.246215 1.81091e-20)
(-1.1694 0.145917 6.83416e-22)
(-1.23434 1.41201 2.25785e-19)
(-1.30372 1.26081 -1.49936e-19)
(-1.36259 1.1111 -6.16757e-20)
(-1.41177 0.964193 -1.18132e-20)
(-1.45177 0.820645 -6.06866e-20)
(-1.483 0.68071 8.85761e-20)
(-1.50578 0.544393 9.19007e-20)
(-1.52039 0.411542 1.40305e-20)
(-1.52704 0.281912 -2.19441e-20)
(-1.52597 0.155212 -1.57515e-20)
(-1.61833 1.70983 -2.51407e-20)
(-1.70871 1.53205 3.21102e-20)
(-1.78576 1.35405 7.73992e-21)
(-1.85011 1.17698 -5.67917e-20)
(-1.90213 1.00154 1.20926e-19)
(-1.94211 0.828259 1.37861e-20)
(-1.97027 0.657531 -8.02607e-20)
(-1.98683 0.489657 -2.5689e-20)
(-1.99198 0.324877 -1.60966e-20)
(-1.986 0.163405 8.28527e-21)
(-2.0793 2.09955 -1.36317e-19)
(-2.19905 1.89 -7.30629e-20)
(-2.30245 1.67751 8.13666e-20)
(-2.38983 1.46332 4.60416e-21)
(-2.46139 1.24833 -4.30454e-20)
(-2.5172 1.03339 -9.04255e-21)
(-2.55731 0.819287 3.86547e-20)
(-2.58177 0.606787 -4.57668e-20)
(-2.59069 0.396623 1.69377e-20)
(-2.58424 0.189497 -4.6089e-21)
(-2.65092 2.55053 -4.24492e-20)
(-2.80864 2.3038 2.15334e-19)
(-2.94695 2.05028 -1.83793e-19)
(-3.06569 1.79138 1.72887e-19)
(-3.16479 1.52823 -1.38659e-19)
(-3.24398 1.26201 1.22664e-20)
(-3.30305 0.993954 -4.93363e-20)
(-3.34182 0.725286 7.98304e-21)
(-3.36022 0.457224 9.81129e-21)
(-3.35817 0.190928 -7.9108e-22)
(-3.50139 2.84996 1.25682e-19)
(-3.69387 2.55227 -3.76419e-19)
(-3.86338 2.24288 1.54177e-19)
(-4.00878 1.92365 -1.13802e-19)
(-4.12956 1.59618 6.96608e-20)
(-4.2251 1.26218 2.67292e-19)
(-4.29491 0.923415 3.4123e-20)
(-4.33865 0.581697 6.75261e-20)
(-4.35619 0.238838 -3.97882e-20)
(-4.3473 -0.103422 -7.64496e-21)
(-0.35457 0.0400738 -1.36686e-20)
(-0.373749 -0.0063404 5.09146e-20)
(-0.392482 -0.0567381 -2.14254e-19)
(-0.409715 -0.113121 1.40238e-19)
(-0.424322 -0.177225 -1.38909e-20)
(-0.435108 -0.250427 9.11338e-20)
(-0.440773 -0.333802 -4.74077e-19)
(-0.439582 -0.428316 -1.17509e-20)
(-0.427 -0.533186 1.00943e-19)
(-0.394422 -0.646487 -2.09055e-19)
(-0.500182 0.0477254 -3.76247e-20)
(-0.515962 -0.00716418 8.8155e-20)
(-0.530509 -0.0655564 8.0822e-20)
(-0.542971 -0.12917 4.85518e-20)
(-0.552386 -0.199511 1.14619e-19)
(-0.557652 -0.277816 2.18298e-21)
(-0.557481 -0.365107 3.71398e-20)
(-0.54993 -0.462168 -5.67546e-20)
(-0.530314 -0.568428 -1.98701e-19)
(-0.492128 -0.685655 5.52293e-20)
(-0.67741 0.0527321 2.29957e-20)
(-0.68807 -0.0129695 -1.60847e-19)
(-0.696498 -0.0813447 -3.04814e-20)
(-0.702066 -0.153825 1.36883e-20)
(-0.703997 -0.2317 -1.24918e-19)
(-0.701321 -0.316101 -5.27537e-20)
(-0.692806 -0.408042 -8.44639e-20)
(-0.676619 -0.508317 9.13507e-20)
(-0.649368 -0.617123 1.35588e-19)
(-0.607513 -0.737628 2.59599e-19)
(-0.895765 0.0533285 -2.39701e-20)
(-0.899452 -0.0263448 7.19675e-20)
(-0.899665 -0.107547 -7.69313e-20)
(-0.896028 -0.191441 1.63044e-19)
(-0.888003 -0.279131 8.59166e-20)
(-0.874854 -0.371669 4.15652e-20)
(-0.855594 -0.470092 1.57174e-19)
(-0.828797 -0.575325 6.63719e-20)
(-0.79238 -0.688181 -8.98502e-21)
(-0.744906 -0.81145 -7.30508e-20)
(-1.16911 0.0472595 -7.94749e-21)
(-1.16399 -0.0506386 1.26432e-21)
(-1.15382 -0.148607 -4.99242e-20)
(-1.13855 -0.247536 -1.24145e-19)
(-1.11794 -0.348339 2.06328e-20)
(-1.09161 -0.451964 1.33329e-19)
(-1.05896 -0.559422 -2.13354e-19)
(-1.01913 -0.67171 5.67158e-20)
(-0.971034 -0.789914 1.06923e-20)
(-0.914169 -0.916122 -3.24932e-21)
(-1.51747 0.0310874 2.53901e-20)
(-1.50186 -0.090916 -1.59331e-20)
(-1.47916 -0.211248 -6.13792e-20)
(-1.44964 -0.330481 6.49435e-20)
(-1.41343 -0.44928 -7.33901e-20)
(-1.37057 -0.568423 1.1132e-20)
(-1.32093 -0.688797 -7.67458e-21)
(-1.26422 -0.81136 -2.66098e-20)
(-1.20001 -0.937209 -1.49035e-20)
(-1.12819 -1.06786 1.51486e-20)
(-1.9693 0.00541534 -2.58268e-21)
(-1.94247 -0.149001 3.59095e-21)
(-1.90571 -0.299855 -5.62799e-20)
(-1.85964 -0.447297 6.65086e-20)
(-1.80476 -0.591642 1.29224e-19)
(-1.74153 -0.733363 -3.48744e-20)
(-1.67032 -0.873094 2.79678e-20)
(-1.59135 -1.0116 -4.72631e-21)
(-1.50472 -1.14981 -5.64161e-21)
(-1.41055 -1.28878 2.36679e-20)
(-2.56274 -0.013809 -1.94057e-21)
(-2.52696 -0.212367 4.7199e-21)
(-2.47725 -0.405702 -1.17902e-20)
(-2.41447 -0.593387 -1.50055e-20)
(-2.33944 -0.775219 2.73783e-20)
(-2.25302 -0.95117 -7.2447e-22)
(-2.15602 -1.12142 -1.54498e-20)
(-2.04916 -1.28633 -4.98275e-20)
(-1.93304 -1.44649 7.61396e-20)
(-1.80806 -1.60259 4.70914e-20)
(-3.3355 -0.0721241 -1.69843e-21)
(-3.29289 -0.329668 3.81064e-20)
(-3.23098 -0.580905 2.88706e-20)
(-3.15067 -0.824641 -5.9527e-20)
(-3.05295 -1.05996 6.92132e-20)
(-2.93891 -1.28608 -1.2591e-19)
(-2.80972 -1.50245 7.45768e-20)
(-2.66658 -1.70883 -7.74941e-20)
(-2.51062 -1.90527 -5.38322e-20)
(-2.34258 -2.092 -2.42765e-19)
(-4.31102 -0.443152 -3.83771e-21)
(-4.24788 -0.775912 -4.54163e-20)
(-4.15909 -1.10153 4.3011e-20)
(-4.04526 -1.41778 3.85725e-20)
(-3.9073 -1.72289 -7.89384e-20)
(-3.74632 -2.01515 7.93804e-20)
(-3.56361 -2.29307 -1.29014e-19)
(-3.36069 -2.55547 1.08609e-19)
(-3.13919 -2.80158 -2.42002e-19)
(-2.90034 -3.03071 2.54573e-19)
(-2.64444 -3.24108 3.98777e-19)
(-2.163 -2.26854 -1.5535e-19)
(-1.67459 -1.75498 -5.9549e-20)
(-1.30902 -1.42917 6.41417e-20)
(-1.04909 -1.20425 7.71895e-21)
(-0.849599 -1.05219 -3.66339e-20)
(-0.688553 -0.949549 -2.58078e-20)
(-0.554529 -0.880429 7.63214e-20)
(-0.441238 -0.836725 -1.95772e-19)
(-0.352211 -0.815007 1.99478e-20)
(-2.37618 -3.42945 -4.56333e-19)
(-1.97397 -2.43414 6.16374e-19)
(-1.53314 -1.90369 -8.01623e-20)
(-1.19983 -1.57068 -5.06043e-20)
(-0.962419 -1.34486 8.70661e-21)
(-0.778092 -1.19415 1.13234e-20)
(-0.627116 -1.09357 -4.61091e-20)
(-0.500242 -1.02645 9.08439e-20)
(-0.39392 -0.983076 7.11154e-21)
(-0.31244 -0.956983 -9.77819e-20)
(-2.09567 -3.59835 3.09631e-19)
(-1.77534 -2.58956 -3.41738e-19)
(-1.3828 -2.04877 1.41447e-19)
(-1.08136 -1.71293 -3.30233e-20)
(-0.865698 -1.48882 3.26984e-20)
(-0.69588 -1.34049 -2.58541e-20)
(-0.554575 -1.24145 7.59051e-21)
(-0.434352 -1.17417 -1.44227e-20)
(-0.33264 -1.12795 6.07211e-20)
(-0.252484 -1.09523 -1.16438e-19)
(-1.80446 -3.74697 -6.57896e-19)
(-1.56739 -2.73497 9.31237e-20)
(-1.22293 -2.1904 1.02259e-19)
(-0.952217 -1.85578 9.85311e-20)
(-0.756886 -1.63561 -1.64341e-19)
(-0.600302 -1.49051 -1.4279e-22)
(-0.467587 -1.39284 -1.48873e-20)
(-0.352898 -1.32456 3.08461e-20)
(-0.254105 -1.27458 -4.41911e-20)
(-0.173342 -1.23514 -4.78925e-20)
(-1.50377 -3.87509 5.06987e-19)
(-1.35006 -2.87051 9.15167e-20)
(-1.0526 -2.32849 1.97793e-19)
(-0.8109 -1.99874 1.12854e-20)
(-0.63415 -1.78429 1.49925e-19)
(-0.489345 -1.64297 6.72878e-20)
(-0.364125 -1.54642 5.99801e-20)
(-0.254186 -1.47654 -4.33883e-20)
(-0.157778 -1.42221 8.26608e-21)
(-0.076436 -1.37577 2.61836e-20)
(-1.19482 -3.98244 3.84359e-19)
(-1.12319 -2.99608 -2.84789e-19)
(-0.870836 -2.46261 -1.26718e-20)
(-0.656047 -2.14084 -5.0164e-20)
(-0.496005 -1.93342 -4.09507e-20)
(-0.36162 -1.79598 -3.22525e-20)
(-0.243078 -1.70002 6.31927e-20)
(-0.1376 -1.62775 -4.42971e-20)
(-0.0438428 -1.56837 3.7308e-20)
(0.0371189 -1.51433 -4.36292e-21)
(-0.878786 -4.06883 -7.04605e-19)
(-0.886554 -3.11136 -2.08536e-19)
(-0.676703 -2.59194 3.59855e-19)
(-0.486463 -2.28066 -9.64199e-20)
(-0.341327 -2.08097 9.94271e-20)
(-0.216279 -1.94707 -2.38681e-19)
(-0.104014 -1.85078 1.7637e-19)
(-0.00322281 -1.77508 -4.26189e-20)
(0.0870424 -1.70972 4.23086e-20)
(0.166091 -1.64735 -5.92739e-20)
(-0.556757 -4.13417 3.26443e-19)
(-0.639872 -3.21577 -1.01441e-19)
(-0.469347 -2.71519 -1.07685e-19)
(-0.301212 -2.41622 -4.58628e-20)
(-0.169397 -2.2244 3.33714e-20)
(-0.0530063 -2.09323 4.84125e-20)
(0.0528927 -1.99539 -7.16601e-20)
(0.148279 -1.915 5.01955e-20)
(0.233765 -1.84264 9.0068e-20)
(0.308989 -1.77127 -8.37855e-20)
(-0.229723 -4.17839 2.80395e-19)
(-0.382836 -3.30845 -1.05697e-20)
(-0.248076 -2.83063 2.00836e-19)
(-0.0996967 -2.54508 -1.55809e-19)
(0.0200282 -2.3607 4.67128e-20)
(0.127958 -2.23108 -4.85809e-20)
(0.226886 -2.13027 -1.42375e-20)
(0.315687 -2.04389 -7.51645e-20)
(0.394762 -1.96357 7.54074e-20)
(0.464023 -1.88275 5.19234e-20)
(0.101478 -4.20112 -5.78683e-20)
(-0.115155 -3.38805 -4.31831e-20)
(-0.0124624 -2.93609 -2.36669e-20)
(0.118237 -2.6644 -7.45358e-20)
(0.226652 -2.48661 6.65615e-20)
(0.325796 -2.35713 1.36141e-20)
(0.416648 -2.25187 -3.91936e-20)
(0.497283 -2.1583 2.82132e-21)
(0.568074 -2.06929 -1.35726e-20)
(0.629153 -1.97893 2.04733e-21)
(0.908695 -1.7178 -2.14221e-21)
(0.915874 -1.34047 -3.30346e-22)
(0.951674 -1.06231 9.23771e-22)
(0.960927 -0.845901 -2.26198e-22)
(0.965007 -0.678807 8.60123e-23)
(0.965518 -0.544991 1.46414e-22)
(0.963557 -0.435226 -6.81732e-23)
(0.95983 -0.344993 6.09892e-23)
(0.955841 -0.269326 -1.92022e-23)
(0.952085 -0.208096 2.60067e-23)
(0.948265 -0.155418 -3.2368e-23)
(0.948541 -0.114961 4.07128e-23)
(0.944979 -0.0787017 -2.8667e-23)
(0.950363 -0.0484965 -1.05359e-22)
(0.946877 -0.027731 1.81163e-23)
(0.955603 0.00569461 -4.8323e-23)
(0.951305 0.010857 1.82071e-23)
(0.912172 0.0749075 2.06641e-23)
(0.939198 0.0533968 1.75045e-23)
(0.911212 -0.00894136 2.7073e-23)
(1.04097 -1.7561 1.82797e-20)
(0.979478 -1.3543 3.6173e-21)
(0.984717 -1.06914 -2.63656e-21)
(0.978963 -0.850339 3.89195e-22)
(0.972809 -0.681092 -5.04568e-22)
(0.966444 -0.546041 -6.62423e-23)
(0.959537 -0.43554 3.34066e-24)
(0.952195 -0.344903 2.01684e-23)
(0.94546 -0.269114 -4.90371e-23)
(0.939666 -0.207824 -2.65207e-23)
(0.934259 -0.155351 -1.46723e-23)
(0.93337 -0.11492 2.43167e-22)
(0.928712 -0.0788515 -3.74174e-22)
(0.933585 -0.0487379 -1.20326e-22)
(0.929506 -0.0279842 9.22621e-23)
(0.938022 0.00540735 7.3596e-23)
(0.9326 0.0125767 -1.6224e-22)
(0.895633 0.0754457 2.31648e-22)
(0.924703 0.0532472 -3.77347e-23)
(0.896664 -0.00791825 -6.17117e-23)
(1.17293 -1.78253 -3.83224e-20)
(1.04538 -1.36588 1.65898e-20)
(1.01895 -1.07608 1.6076e-20)
(0.998145 -0.855585 -4.85804e-21)
(0.981585 -0.684211 2.04345e-22)
(0.968058 -0.547765 -7.50521e-22)
(0.956039 -0.436392 -7.70074e-23)
(0.944988 -0.345235 -6.7292e-23)
(0.935454 -0.269217 -3.29192e-23)
(0.92759 -0.207787 -7.09585e-23)
(0.920588 -0.155447 -5.61943e-23)
(0.91851 -0.114981 1.14692e-23)
(0.912789 -0.0790836 4.32907e-22)
(0.917152 -0.0490281 -2.32868e-22)
(0.912477 -0.0282866 -2.60523e-22)
(0.920763 0.00512294 2.36703e-22)
(0.914291 0.0141834 -6.77149e-23)
(0.879662 0.0757754 -1.34519e-22)
(0.910503 0.053079 8.57698e-23)
(0.882491 -0.00686263 -9.21332e-23)
(1.30384 -1.79772 -1.25488e-20)
(1.11442 -1.37545 3.30352e-20)
(1.05518 -1.08333 -1.32599e-20)
(1.01881 -0.861642 -3.23589e-21)
(0.99154 -0.688168 2.05634e-21)
(0.970507 -0.550174 -9.46561e-23)
(0.95318 -0.437793 3.76535e-22)
(0.938314 -0.345995 -1.62761e-22)
(0.925923 -0.269641 2.39117e-22)
(0.91595 -0.207987 2.95411e-22)
(0.907335 -0.155706 -6.72139e-22)
(0.904036 -0.115146 9.34504e-23)
(0.897275 -0.0793976 -6.29789e-23)
(0.901116 -0.0493655 3.63933e-22)
(0.895833 -0.028634 1.16163e-22)
(0.903874 0.00483602 -1.71634e-22)
(0.896422 0.0156693 -1.62488e-22)
(0.864282 0.0759125 -3.10162e-22)
(0.896628 0.0528783 -9.23591e-23)
(0.868708 -0.00579558 1.96158e-22)
(1.43296 -1.80166 4.99905e-21)
(1.18734 -1.3819 3.62782e-21)
(1.09406 -1.09002 1.96334e-22)
(1.04122 -0.868007 7.62525e-21)
(1.00283 -0.692756 3.84889e-21)
(0.973919 -0.5532 2.65616e-21)
(0.951071 -0.439721 -1.14993e-21)
(0.932271 -0.34718 3.76013e-22)
(0.916958 -0.270387 1.83831e-22)
(0.904828 -0.208424 4.40718e-22)
(0.894575 -0.156128 -8.78846e-23)
(0.890016 -0.115414 -8.06824e-22)
(0.88223 -0.0797949 -1.58386e-22)
(0.885524 -0.0497493 6.39009e-22)
(0.879619 -0.0290282 5.3756e-22)
(0.887398 0.00453755 -2.57383e-22)
(0.879046 0.0170153 6.45639e-22)
(0.849518 0.0758568 9.6292e-23)
(0.883104 0.052664 -3.61093e-23)
(0.855345 -0.00471503 1.5885e-23)
(1.55976 -1.79262 -1.28022e-19)
(1.26463 -1.38263 -1.72753e-20)
(1.13594 -1.09458 1.57448e-20)
(1.0654 -0.873868 -2.29061e-20)
(1.0155 -0.697596 -1.12471e-20)
(0.978383 -0.556662 -9.53536e-21)
(0.949801 -0.442088 1.5837e-21)
(0.926948 -0.348744 4.88518e-22)
(0.90864 -0.27143 -8.93294e-22)
(0.894302 -0.209084 -3.98257e-22)
(0.882376 -0.156703 -2.93975e-22)
(0.876514 -0.115782 8.00664e-22)
(0.867711 -0.0802709 -3.73157e-22)
(0.870424 -0.0501754 -4.33894e-22)
(0.863877 -0.0294662 -3.76788e-22)