/*--------------------------------*- C++ -*----------------------------------*\
| =========                 |                                                 |
| \\      /  F ield         | OpenFOAM: The Open Source CFD Toolbox           |
|  \\    /   O peration     | Version:  v1912                                 |
|   \\  /    A nd           | Website:  www.openfoam.com                      |
|    \\/     M anipulation  |                                                 |
\*---------------------------------------------------------------------------*/
FoamFile
{
    version     2.0;
    format      ascii;
    class       volVectorField;
    location    "72";
    object      U;
}
// * * * * * * * * * * * * * * * * * * * * * * * * * * * * * * * * * * * * * //

dimensions      [0 1 -1 0 0 0 0];


internalField   nonuniform List<vector> 
9600
(
(0.456544 -9.36161 -1.54174e-19)
(0.15977 -8.63233 0)
(0.242039 -8.15953 -9.05391e-20)
(0.320875 -7.84047 0)
(0.388272 -7.60546 0)
(0.456755 -7.41092 -3.18598e-20)
(0.52234 -7.23281 -5.5064e-22)
(0.581887 -7.05886 2.66347e-20)
(0.634622 -6.88375 0)
(0.680576 -6.70603 -4.51629e-20)
(0.72014 -6.52633 0)
(0.753938 -6.34618 -1.8309e-21)
(0.782711 -6.16741 -2.60775e-21)
(0.807214 -5.9917 -3.15621e-20)
(0.828173 -5.82044 2.66203e-20)
(0.846242 -5.65461 -2.61536e-20)
(0.861974 -5.49469 2.32874e-20)
(0.875914 -5.3406 0)
(0.888845 -5.19157 -1.85257e-20)
(0.900496 -5.04608 2.0307e-20)
(0.824478 -9.35123 -3.08449e-19)
(0.502231 -8.66046 1.17572e-20)
(0.567702 -8.20388 1.86499e-19)
(0.635041 -7.89435 -1.58972e-19)
(0.693435 -7.66394 1.56777e-19)
(0.753884 -7.46989 0)
(0.811599 -7.28947 6.07695e-20)
(0.863105 -7.11152 -6.06312e-20)
(0.907552 -6.93151 -1.05171e-19)
(0.945029 -6.74859 1.33032e-19)
(0.976037 -6.56377 -8.63732e-20)
(1.00133 -6.37887 -3.52665e-20)
(1.02175 -6.19583 7.11839e-20)
(1.03815 -6.01641 0)
(1.05131 -5.84204 0)
(1.06193 -5.67367 9.97946e-20)
(1.07058 -5.51176 -1.69199e-19)
(1.0778 -5.35616 0)
(1.08447 -5.20599 0)
(1.09005 -5.05963 -7.82152e-20)
(1.19275 -9.32732 6.373e-19)
(0.846964 -8.67573 0)
(0.896924 -8.23557 -3.77378e-19)
(0.953504 -7.93564 -3.42067e-19)
(1.0032 -7.70981 0)
(1.05559 -7.51622 5.46703e-19)
(1.10521 -7.3335 -5.16143e-19)
(1.14832 -7.15165 1.01182e-19)
(1.18407 -6.96695 -2.25249e-19)
(1.21266 -6.7791 -3.74626e-19)
(1.23471 -6.58952 5.11424e-19)
(1.25114 -6.40024 -3.16216e-19)
(1.2629 -6.21335 -1.41726e-19)
(1.27093 -6.03066 0)
(1.27609 -5.8536 5.52975e-21)
(1.2791 -5.68311 1.05189e-19)
(1.28053 -5.51961 4.54749e-20)
(1.28095 -5.3629 0)
(1.2813 -5.21198 8.24378e-20)
(1.28072 -5.06516 8.449e-20)
(1.56027 -9.2895 -8.62193e-19)
(1.19338 -8.67786 -4.04055e-19)
(1.22915 -8.25437 3.91906e-19)
(1.2757 -7.96405 6.73563e-19)
(1.31698 -7.74272 -3.26921e-19)
(1.36128 -7.54953 5.80692e-21)
(1.40255 -7.36456 2.53883e-19)
(1.43692 -7.17894 2.29968e-19)
(1.46357 -6.98978 4.21203e-19)
(1.48286 -6.79733 0)
(1.49559 -6.60337 1.62284e-19)
(1.50282 -6.41015 -1.72221e-19)
(1.50563 -6.21986 1.03543e-20)
(1.50507 -6.03435 2.71504e-19)
(1.50204 -5.85504 2.32777e-19)
(1.4973 -5.68286 -3.28606e-19)
(1.49142 -5.51818 1.08219e-19)
(1.48499 -5.36075 -1.76226e-19)
(1.479 -5.20947 1.75394e-19)
(1.47218 -5.06262 -8.45339e-20)
(1.92671 -9.23771 4.34829e-19)
(1.54119 -8.6667 0)
(1.56397 -8.26001 3.8489e-19)
(1.60113 -7.97924 0)
(1.63423 -7.76231 0)
(1.67035 -7.56948 -3.00491e-19)
(1.70301 -7.38231 -5.37657e-19)
(1.72826 -7.19311 -4.55896e-19)
(1.74543 -6.99976 1.84515e-20)
(1.75503 -6.80307 -1.97017e-19)
(1.75809 -6.60516 0)
(1.75581 -6.40846 -1.62696e-19)
(1.74943 -6.21524 -2.93093e-19)
(1.74007 -6.02738 2.57761e-19)
(1.72869 -5.84628 -7.32553e-19)
(1.71609 -5.67284 1.18552e-19)
(1.70283 -5.50741 9.39749e-20)
(1.68953 -5.34968 -1.93778e-19)
(1.67721 -5.19842 -8.46727e-20)
(1.66411 -5.05198 2.52493e-19)
(2.29154 -9.17187 4.19607e-19)
(1.8899 -8.64201 4.16165e-19)
(1.90087 -8.2522 0)
(1.92923 -7.98087 0)
(1.95434 -7.76824 -6.2468e-19)
(1.98218 -7.57575 3.41398e-19)
(2.00595 -7.38647 8.2168e-19)
(2.02172 -7.1939 0)
(2.02901 -6.99668 2.17159e-19)
(2.02856 -6.79616 1.97018e-19)
(2.02161 -6.59475 -3.48093e-19)
(2.00955 -6.39506 5.04794e-19)
(1.99375 -6.19941 1.48135e-19)
(1.97542 -6.0097 0)
(1.95558 -5.82728 1.23324e-19)
(1.93503 -5.65303 5.53617e-19)
(1.91435 -5.48727 -3.29884e-19)
(1.89416 -5.32963 3.70705e-19)
(1.87555 -5.1788 -7.04933e-19)
(1.85618 -5.03321 8.14928e-19)
(2.65423 -9.09194 4.26761e-19)
(2.23899 -8.60359 -2.25982e-18)
(2.23931 -8.23069 0)
(2.25941 -7.96866 0)
(2.27668 -7.76021 0)
(2.29611 -7.56804 -6.06008e-19)
(2.31069 -7.37679 0)
(2.31663 -7.1811 -9.71416e-19)
(2.31366 -6.98038 8.96059e-19)
(2.30281 -6.77646 -8.32252e-19)
(2.28555 -6.57205 0)
(2.26347 -6.36988 0)
(2.23805 -6.17233 0)
(2.2106 -5.98126 -2.81637e-19)
(2.1822 -5.79802 0)
(2.15365 -5.62341 0)
(2.12552 -5.45775 -4.1342e-19)
(2.09847 -5.30061 4.06198e-19)
(2.07362 -5.15059 0)
(2.048 -5.00631 0)
(3.01424 -8.99794 -1.38834e-18)
(2.58792 -8.55128 8.99688e-19)
(2.5787 -8.19521 0)
(2.59106 -7.94232 0)
(2.6006 -7.73794 0)
(2.61147 -7.54612 5.76411e-19)
(2.61656 -7.35305 -5.78167e-19)
(2.6123 -7.15453 -8.90003e-21)
(2.59872 -6.95071 -8.97208e-19)
(2.57714 -6.74388 8.40084e-19)
(2.54931 -6.53698 -3.79009e-19)
(2.51698 -6.33288 6.5908e-19)
(2.48178 -6.13396 -4.64233e-20)
(2.44511 -5.94207 -5.96256e-19)
(2.40806 -5.75849 -5.02574e-19)
(2.37147 -5.58398 4.93764e-19)
(2.33589 -5.41884 0)
(2.30203 -5.26261 0)
(2.27101 -5.11378 3.57342e-19)
(2.23921 -4.97128 -3.93238e-19)
(3.37099 -8.88988 9.27926e-19)
(2.93613 -8.48494 8.83935e-19)
(2.91846 -8.14556 -1.67547e-18)
(2.92354 -7.90162 7.91455e-19)
(2.92544 -7.7012 0)
(2.92757 -7.50976 6.16792e-19)
(2.92287 -7.31508 -5.41504e-19)
(2.90805 -7.11406 1.53037e-18)
(2.88352 -6.90758 -2.37012e-20)
(2.85092 -6.69833 0)
(2.81225 -6.4895 7.64707e-19)
(2.76949 -6.28403 0)
(2.72439 -6.08431 0)
(2.67839 -5.89213 -2.72783e-19)
(2.63266 -5.7087 5.50165e-19)
(2.58801 -5.53477 0)
(2.54501 -5.37057 4.31574e-19)
(2.50438 -5.21564 1.79679e-19)
(2.46729 -5.06841 -3.89828e-19)
(2.42939 -4.92815 3.78534e-19)
(3.72395 -8.76783 -9.55767e-19)
(3.28301 -8.40446 8.98363e-19)
(3.25796 -8.08155 -2.55862e-18)
(3.25618 -7.84634 8.04591e-19)
(3.25049 -7.64979 0)
(3.24369 -7.45881 -1.24496e-18)
(3.22889 -7.26273 5.98073e-19)
(3.20319 -7.05959 0)
(3.16738 -6.85091 -4.74881e-19)
(3.12348 -6.6398 -8.23702e-19)
(3.07377 -6.42961 -7.17798e-19)
(3.02042 -6.22336 5.34645e-20)
(2.9653 -6.0234 6.71359e-19)
(2.90993 -5.83147 2.72559e-19)
(2.85548 -5.6487 -3.79587e-20)
(2.80279 -5.4758 -5.13267e-19)
(2.75238 -5.31298 -2.2958e-19)
(2.70506 -5.15975 -2.06984e-19)
(2.662 -5.01449 5.52175e-19)
(2.61813 -4.87695 -8.22786e-19)
(4.07255 -8.63188 9.5577e-19)
(3.62798 -8.30977 -4.66564e-20)
(3.59655 -8.00305 8.22498e-19)
(3.58832 -7.77633 0)
(3.57505 -7.58354 -6.81014e-19)
(3.55913 -7.39311 1.30859e-18)
(3.53392 -7.19592 -1.11866e-18)
(3.497 -6.99105 1.10084e-18)
(3.44962 -6.78069 -4.46099e-19)
(3.39419 -6.56827 9.05562e-19)
(3.33325 -6.35732 3.92181e-19)
(3.26918 -6.15088 0)
(3.20397 -5.95127 0)
(3.13918 -5.76013 -2.82618e-19)
(3.07601 -5.57854 3.83773e-20)
(3.01529 -5.40712 1.01077e-18)
(2.95753 -5.24611 -2.50069e-19)
(2.90357 -5.09497 8.25989e-19)
(2.85465 -4.95207 1.44584e-19)
(2.80496 -4.81771 -8.40336e-19)
(4.41622 -8.48212 -2.94098e-18)
(3.97043 -8.20082 -9.87296e-19)
(3.9336 -7.90994 -2.63278e-18)
(3.91925 -7.69145 -1.60171e-18)
(3.89841 -7.50235 -7.5977e-19)
(3.87314 -7.31258 -7.42579e-19)
(3.83723 -7.11457 -2.42426e-18)
(3.78879 -6.90842 -4.90883e-20)
(3.72957 -6.6969 -1.94814e-18)
(3.66238 -6.48377 3.02298e-20)
(3.59006 -6.27267 -8.08907e-19)
(3.51518 -6.06665 -7.37132e-19)
(3.43982 -5.86797 6.72924e-19)
(3.36561 -5.67818 -6.15422e-19)
(3.29373 -5.49827 -5.63845e-19)
(3.225 -5.3288 -5.17497e-19)
(3.15993 -5.17001 -1.38957e-18)
(3.09942 -5.02134 4.94357e-19)
(3.04476 -4.88117 1.19979e-18)
(2.98941 -4.75047 -1.27693e-18)
(4.75443 -8.31871 3.95586e-18)
(4.30976 -8.07764 4.86007e-18)
(4.26845 -7.80216 8.3492e-19)
(4.24829 -7.59161 4.00052e-18)
(4.21983 -7.40612 -7.84118e-19)
(4.185 -7.21718 3.91826e-18)
(4.1381 -7.01868 1.14626e-18)
(4.07785 -6.81171 3.21802e-18)
(4.00655 -6.5996 -9.83647e-19)
(3.92742 -6.38635 2.72359e-18)
(3.84361 -6.17572 1.62935e-18)
(3.75784 -5.97073 1.48493e-18)
(3.67231 -5.77357 -2.01047e-18)
(3.58868 -5.58568 1.88339e-18)
(3.50811 -5.40796 1.13639e-18)
(3.43141 -5.24091 1.0432e-18)
(3.35907 -5.08475 9.59272e-19)
(3.29207 -4.93894 7.36919e-21)
(3.23179 -4.80186 8.14339e-19)
(3.171 -4.67528 8.47481e-19)
(5.08665 -8.1418 -2.93767e-18)
(4.64539 -7.94023 1.08272e-18)
(4.60044 -7.67966 2.67865e-18)
(4.57472 -7.47675 -3.26354e-18)
(4.53859 -7.29483 7.54133e-19)
(4.49397 -7.10688 -2.62145e-18)
(4.4358 -6.90826 1.28484e-18)
(4.36349 -6.70098 -2.1532e-18)
(4.2799 -6.48884 4.90512e-20)
(4.18868 -6.2761 1.19571e-20)
(4.09328 -6.06657 -1.65185e-18)
(3.99659 -5.86322 -7.47795e-19)
(3.90089 -5.66816 1.37507e-18)
(3.80784 -5.48271 8.76547e-21)
(3.71862 -5.30768 -3.72052e-20)
(3.63398 -5.1435 -1.08879e-18)
(3.55442 -4.99038 -4.83523e-19)
(3.48098 -4.8478 -2.71589e-20)
(3.41517 -4.71418 -8.48702e-19)
(3.34916 -4.59226 -4.27991e-19)
(5.41238 -7.95158 0)
(4.97671 -7.78866 -2.00061e-18)
(4.92892 -7.54244 2.37625e-20)
(4.89784 -7.34687 3.25912e-18)
(4.85395 -7.16848 1.36421e-18)
(4.79932 -6.98174 -1.42e-18)
(4.72962 -6.78339 -1.22336e-18)
(4.64502 -6.5763 0)
(4.54897 -6.36474 -9.73888e-19)
(4.44555 -6.15313 9.2947e-19)
(4.3385 -5.94531 -3.90848e-20)
(4.23088 -5.74421 0)
(4.12502 -5.5518 -6.92241e-19)
(4.02259 -5.36933 5.99647e-19)
(3.92473 -5.19747 5.00996e-19)
(3.83217 -5.03659 -6.04754e-19)
(3.74537 -4.88691 -5.24666e-19)
(3.66549 -4.7479 9.11143e-19)
(3.59416 -4.61813 -8.40891e-19)
(3.52304 -4.50147 4.42605e-19)
(5.73114 -7.74822 3.03519e-18)
(5.30316 -7.62299 -2.06048e-18)
(5.25321 -7.39052 -1.75863e-18)
(5.21694 -7.20199 8.18836e-19)
(5.16518 -7.02712 -1.58861e-18)
(5.10032 -6.84182 0)
(5.01886 -6.64416 0)
(4.92176 -6.43782 0)
(4.81311 -6.22744 -4.44891e-20)
(4.69743 -6.01758 -1.86536e-18)
(4.57872 -5.81209 8.81e-19)
(4.46019 -5.61381 7.45148e-19)
(4.34421 -5.42461 6.30603e-19)
(4.23245 -5.24561 -2.58768e-18)
(4.12599 -5.07737 1.2268e-18)
(4.02549 -4.9202 0)
(3.93142 -4.7743 -3.04427e-20)
(3.84498 -4.63919 -1.41318e-18)
(3.76795 -4.51362 -5.69947e-21)
(3.6917 -4.40256 -4.43095e-19)
(6.04258 -7.532 -2.06448e-18)
(5.62419 -7.44337 -1.08632e-18)
(5.57263 -7.22397 8.18643e-19)
(5.5313 -7.04217 -1.43943e-19)
(5.47155 -6.87083 -4.63108e-18)
(5.39625 -6.68725 4.19137e-18)
(5.30281 -6.49073 -4.88157e-20)
(5.19306 -6.28569 1.14808e-18)
(5.07172 -6.0771 1.03011e-18)
(4.94375 -5.86961 9.45908e-19)
(4.81341 -5.66705 8.60806e-19)
(4.68402 -5.47216 1.53844e-18)
(4.558 -5.28669 -7.40481e-19)
(4.43697 -5.11163 1.91952e-18)
(4.32197 -4.94745 -1.24094e-18)
(4.21358 -4.79439 -5.13384e-19)
(4.1122 -4.65266 2.06204e-18)
(4.01911 -4.52178 1.37771e-18)
(3.93626 -4.40055 -2.79735e-20)
(3.85508 -4.29485 0)
(6.34667 -7.30341 -1.04971e-18)
(5.93938 -7.24997 2.07604e-18)
(5.88654 -7.04285 1.81767e-18)
(5.84017 -6.86747 -1.45922e-19)
(5.77231 -6.69971 -1.57128e-18)
(5.68636 -6.51816 7.06932e-20)
(5.58077 -6.32328 1.31838e-20)
(5.45826 -6.12012 1.17466e-20)
(5.3242 -5.91393 0)
(5.18396 -5.70943 9.25181e-19)
(5.04205 -5.51037 -1.76095e-18)
(4.90189 -5.31937 -7.53603e-19)
(4.7659 -5.13809 7.48132e-19)
(4.63566 -4.9674 -6.5647e-19)
(4.51214 -4.80768 6.08012e-19)
(4.39584 -4.65916 -5.53521e-19)
(4.28716 -4.52205 4.90133e-21)
(4.18749 -4.39571 -4.70267e-19)
(4.09908 -4.27886 -4.34427e-19)
(4.01374 -4.1792 -4.34725e-19)
(6.64375 -7.06292 0)
(6.24851 -7.04273 -1.01225e-18)
(6.19426 -6.84708 1.00063e-18)
(6.14279 -6.67797 1.74591e-18)
(6.06672 -6.51394 -1.57997e-18)
(5.96995 -6.33481 1.36498e-18)
(5.85208 -6.14208 -2.62456e-18)
(5.71675 -5.94141 -2.3308e-18)
(5.56999 -5.73824 -1.01686e-18)
(5.41758 -5.53731 4.44368e-20)
(5.26423 -5.34227 -8.42086e-19)
(5.11343 -5.15562 3.4936e-20)
(4.96757 -4.97888 0)
(4.82813 -4.81282 -1.28773e-18)
(4.69593 -4.65779 6.57161e-19)
(4.57136 -4.51403 0)
(4.45489 -4.38165 -5.147e-19)
(4.34809 -4.2598 -9.25403e-19)
(4.25321 -4.1481 9.09301e-19)
(4.16269 -4.05918 4.4887e-19)
(6.93343 -6.80975 0)
(6.55093 -6.82092 0)
(6.4951 -6.63659 -1.85627e-18)
(6.43843 -6.47394 -1.59618e-18)
(6.35406 -6.31391 3.23963e-18)
(6.24639 -6.13761 0)
(6.11616 -5.94758 0)
(5.96803 -5.75 1.17096e-18)
(5.80866 -5.55046 0)
(5.64425 -5.35366 0)
(5.47969 -5.16313 0)
(5.31852 -4.98122 0)
(5.16303 -4.80927 0)
(5.01455 -4.64792 0)
(4.87363 -4.49745 0)
(4.74041 -4.35801 0)
(4.61513 -4.22947 0)
(4.49887 -4.11116 0)
(4.39177 -4.00616 0)
(4.28766 -3.93176 0)
(10.0435 0.0877411 1.47378e-19)
(10.023 -0.307649 2.8675e-19)
(9.98721 -0.700361 -2.94508e-19)
(9.93668 -1.09025 5.87189e-19)
(9.87115 -1.47698 -5.87188e-19)
(9.7905 -1.86005 -5.54888e-19)
(9.69482 -2.23892 -5.53339e-19)
(9.58434 -2.61303 1.74263e-18)
(9.45928 -2.98184 -1.16103e-18)
(9.3199 -3.3448 1.15129e-18)
(9.16649 -3.70136 -1.1513e-18)
(8.99936 -4.05098 1.14279e-18)
(8.81882 -4.39315 -2.26624e-18)
(8.62524 -4.72737 3.33736e-18)
(8.41898 -5.05315 0)
(8.20043 -5.37004 -3.27882e-18)
(7.96999 -5.67761 1.63557e-20)
(7.72818 -5.97552 3.30426e-18)
(7.47509 -6.26359 0)
(7.21242 -6.54116 0)
(10.1207 -0.210716 0)
(10.0794 -0.606835 -1.50435e-20)
(10.0213 -0.999153 0)
(9.94717 -1.38733 5.61923e-19)
(9.85713 -1.77094 5.85169e-19)
(9.75142 -2.14938 -1.69367e-18)
(9.63034 -2.52202 2.9486e-18)
(9.49424 -2.88822 -1.16399e-18)
(9.34349 -3.24741 -1.10956e-18)
(9.17848 -3.59898 -1.10503e-18)
(8.99963 -3.94237 4.45766e-20)
(8.80738 -4.27703 1.13216e-18)
(8.60219 -4.60245 -5.62837e-18)
(8.38454 -4.91811 -1.18028e-18)
(8.15493 -5.22357 2.24899e-18)
(7.91387 -5.51838 2.24596e-18)
(7.66184 -5.80216 1.14108e-18)
(7.3994 -6.07458 -2.20035e-18)
(7.12666 -6.33538 1.042e-18)
(6.84457 -6.58422 0)
(10.0726 -0.149213 1.32718e-19)
(10.0348 -0.540902 -2.71784e-19)
(9.97955 -0.929414 7.8486e-19)
(9.90735 -1.31406 -5.56026e-19)
(9.81854 -1.69417 -5.3016e-19)
(9.71349 -2.06905 5.53511e-19)
(9.59257 -2.43797 0)
(9.45617 -2.80024 0)
(9.30472 -3.15518 2.10172e-18)
(9.13867 -3.50215 3.13538e-18)
(8.9585 -3.84054 -9.91667e-19)
(8.76469 -4.16976 3.10038e-18)
(8.55777 -4.48924 -9.87493e-19)
(8.33828 -4.79843 -3.01981e-18)
(8.10676 -5.09686 1.36264e-20)
(7.86379 -5.38404 1.93841e-18)
(7.60991 -5.65954 -8.74965e-19)
(7.34569 -5.92295 -1.90702e-18)
(7.07149 -6.1739 -1.03004e-18)
(6.78805 -6.41189 1.87419e-18)
(9.90658 -0.112489 0)
(9.87556 -0.49495 2.29143e-19)
(9.82725 -0.875064 2.28202e-19)
(9.76186 -1.25193 -9.37531e-19)
(9.6797 -1.62475 0)
(9.58111 -1.99275 0)
(9.46646 -2.35516 0)
(9.33613 -2.71124 0)
(9.19052 -3.06026 -9.92085e-19)
(9.03008 -3.40154 -9.88317e-19)
(8.8553 -3.73441 0)
(8.66667 -4.05824 1.8686e-18)
(8.46473 -4.3724 -4.61995e-18)
(8.25002 -4.67633 3.71485e-18)
(8.02312 -4.96947 -3.60067e-18)
(7.78462 -5.2513 -8.73704e-19)
(7.53509 -5.52132 1.56488e-19)
(7.27515 -5.77907 1.54891e-19)
(7.0053 -6.0241 -1.77939e-18)
(6.7263 -6.2559 -7.0892e-20)
(9.6536 -0.0990061 0)
(9.63 -0.46924 -2.25987e-19)
(9.58954 -0.837783 0)
(9.53232 -1.20373 4.52098e-19)
(9.45855 -1.56625 4.30972e-19)
(9.36852 -1.92454 3.94015e-19)
(9.26256 -2.27783 0)
(9.14099 -2.62534 0)
(9.00419 -2.96635 0)
(8.85257 -3.30012 0)
(8.68658 -3.62597 8.13915e-19)
(8.50671 -3.94322 8.76872e-19)
(8.31346 -4.25124 8.71868e-19)
(8.10736 -4.5494 -8.85204e-19)
(7.88899 -4.83712 -1.52349e-18)
(7.65891 -5.11383 1.72932e-18)
(7.41772 -5.379 3.35282e-18)
(7.16604 -5.63209 1.63081e-18)
(6.90445 -5.87262 0)
(6.63365 -6.10009 -1.53701e-18)
(9.34663 -0.0902051 4.645e-20)
(9.33 -0.446265 0)
(9.29715 -0.801206 -7.61196e-19)
(9.24808 -1.15417 1.82633e-23)
(9.18296 -1.50435 1.6179e-20)
(9.10201 -1.85093 -6.85547e-20)
(9.00549 -2.19316 0)
(8.89371 -2.53026 3.09426e-20)
(8.76697 -2.8615 -7.72743e-19)
(8.62565 -3.18616 1.50557e-18)
(8.47016 -3.50353 -1.56991e-18)
(8.30093 -3.81293 8.57648e-19)
(8.11844 -4.11371 -4.49571e-18)
(7.92319 -4.40523 2.9652e-18)
(7.71571 -4.68687 1.57179e-18)
(7.49656 -4.95805 0)
(7.26631 -5.2182 -2.90128e-18)
(7.02557 -5.46675 -6.15437e-20)
(6.77493 -5.7032 -2.85715e-18)
(6.51504 -5.927 2.96961e-18)
(9.01431 -0.0853963 4.17743e-20)
(9.00332 -0.426458 -8.7511e-20)
(8.97685 -0.76687 7.17507e-19)
(8.93486 -1.10583 -1.40787e-20)
(8.87746 -1.44255 7.1736e-19)
(8.80483 -1.77627 -1.0835e-18)
(8.71719 -2.10622 0)
(8.61477 -2.43168 7.30418e-19)
(8.49786 -2.75192 6.68794e-19)
(8.36679 -3.06624 -7.26327e-19)
(8.2219 -3.37393 1.32891e-18)
(8.06361 -3.67433 2.81729e-18)
(7.89233 -3.96679 -1.31023e-18)
(7.70853 -4.25067 -1.42017e-18)
(7.51272 -4.52534 1.36195e-18)
(7.30541 -4.79021 0)
(7.08715 -5.0447 6.49634e-20)
(6.85852 -5.28823 9.81707e-21)
(6.62008 -5.52025 2.70703e-18)
(6.37245 -5.74021 1.25854e-18)
(8.6779 -0.084218 0)
(8.67097 -0.410327 6.26025e-21)
(8.64933 -0.736132 -1.46009e-19)
(8.61293 -1.06088 -6.48419e-19)
(8.56184 -1.38383 6.09511e-19)
(8.49619 -1.70425 0)
(8.41617 -2.02143 1.24057e-18)
(8.32199 -2.33465 -1.36323e-21)
(8.21388 -2.64322 -1.8947e-18)
(8.09212 -2.94647 0)
(7.95704 -3.24372 -1.30776e-18)
(7.809 -3.53433 4.60241e-20)
(7.64837 -3.81766 -3.67618e-18)
(7.4756 -4.09309 6.47883e-21)
(7.29115 -4.36 1.23212e-18)
(7.0955 -4.6178 0)
(6.88917 -4.8659 -1.20934e-18)
(6.6727 -5.10373 8.70731e-21)
(6.44665 -5.33074 1.20064e-18)
(6.21158 -5.54633 -1.23849e-18)
(8.35128 -0.0853023 0)
(8.34697 -0.39704 1.497e-19)
(8.32871 -0.708705 3.10593e-19)
(8.29643 -1.0196 -5.74914e-19)
(8.2502 -1.32902 -2.47377e-20)
(8.19011 -1.63627 -2.87325e-19)
(8.11632 -1.94069 -1.15019e-18)
(8.02901 -2.2416 5.71831e-19)
(7.92838 -2.53834 2.38276e-20)
(7.81469 -2.83028 5.68409e-19)
(7.68822 -3.11677 5.23273e-19)
(7.5493 -3.39719 2.2661e-18)
(7.39829 -3.67094 1.1335e-18)
(7.23558 -3.93742 2.23881e-18)
(7.0616 -4.19604 -1.11647e-18)
(6.87682 -4.44622 3.8687e-20)
(6.68173 -4.68738 -1.10329e-18)
(6.47684 -4.91895 0)
(6.26268 -5.14037 1.0429e-18)
(6.03978 -5.35104 0)
(8.04237 -0.0875231 6.51785e-20)
(8.03952 -0.385761 -1.9089e-19)
(8.02343 -0.684068 5.23574e-19)
(7.99404 -0.981788 -2.61201e-19)
(7.95139 -1.27826 1.89951e-20)
(7.89557 -1.57285 -2.61047e-19)
(7.82671 -1.8649 5.42698e-19)
(7.74496 -2.1538 -5.19394e-19)
(7.65052 -2.43893 5.19391e-19)
(7.5436 -2.71967 9.96169e-19)
(7.42448 -2.99543 -1.07341e-18)
(7.29344 -3.26562 -4.51289e-20)
(7.15082 -3.52967 -3.10709e-18)
(6.99699 -3.78702 5.3815e-21)
(6.83236 -4.0371 4.03019e-20)
(6.65738 -4.27936 2.01426e-18)
(6.47251 -4.51324 -9.94979e-19)
(6.27825 -4.73819 -9.47739e-19)
(6.07513 -4.95363 -3.74682e-20)
(5.86362 -5.15896 0)
(7.75477 -0.0901348 0)
(7.75253 -0.375865 2.42482e-19)
(7.73771 -0.661738 -8.33749e-19)
(7.71024 -0.947139 -2.21202e-19)
(7.67015 -1.23145 4.94693e-19)
(7.61754 -1.51406 0)
(7.55251 -1.79437 0)
(7.4752 -2.0718 4.72855e-19)
(7.38578 -2.34576 -4.72852e-19)
(7.28447 -2.61567 3.98347e-19)
(7.1715 -2.88099 -4.69805e-19)
(7.04715 -3.14116 9.31663e-19)
(6.91174 -3.39565 -1.85871e-18)
(6.76561 -3.64393 1.8491e-18)
(6.60916 -3.88547 3.46855e-20)
(6.44282 -4.11976 -9.51016e-19)
(6.26706 -4.34626 -9.04978e-19)
(6.08236 -4.56443 1.84348e-18)
(5.88926 -4.7737 8.63006e-19)
(5.6882 -4.97345 0)
(7.48927 -0.0926635 1.87898e-21)
(7.48707 -0.366887 1.5921e-19)
(7.47288 -0.641279 3.34264e-19)
(7.44663 -0.915262 2.33966e-19)
(7.40835 -1.18825 2.17038e-19)
(7.35812 -1.45968 2.01899e-19)
(7.29606 -1.72897 0)
(7.22227 -1.99559 -8.34349e-19)
(7.13694 -2.25897 -4.30106e-19)
(7.04024 -2.51858 3.66941e-19)
(6.93241 -2.77391 0)
(6.81371 -3.02445 8.49505e-19)
(6.68443 -3.26969 -2.51246e-18)
(6.54492 -3.50914 8.45157e-19)
(6.39556 -3.74234 0)
(6.23676 -3.96879 -8.03589e-19)
(6.069 -4.18799 -1.62303e-18)
(5.89278 -4.39943 7.98647e-19)
(5.70865 -4.60253 -2.92217e-20)
(5.51706 -4.79666 0)
(7.24499 -0.0948106 3.46681e-21)
(7.24248 -0.358479 -1.03037e-19)
(7.22849 -0.622308 1.98843e-19)
(7.20298 -0.885755 -1.31307e-20)
(7.16597 -1.14827 3.97335e-19)
(7.11754 -1.40931 -6.10229e-19)
(7.05779 -1.66834 0)
(6.98683 -1.92484 5.60677e-20)
(6.90483 -2.1783 0)
(6.81197 -2.42821 -8.14579e-19)
(6.70845 -2.67409 0)
(6.59453 -2.91547 -7.51767e-19)
(6.47049 -3.15188 2.32349e-18)
(6.33665 -3.38288 -1.53966e-18)
(6.1934 -3.60803 7.67613e-19)
(6.04115 -3.82692 -6.79188e-19)
(5.88039 -4.03905 7.84477e-19)
(5.71164 -4.24398 -7.79113e-19)
(5.53551 -4.44109 0)
(5.35245 -4.62976 0)
(7.02014 -0.0964545 4.71489e-20)
(7.01713 -0.350417 0)
(7.0031 -0.604521 0)
(6.97801 -0.858251 -3.77765e-19)
(6.94191 -1.11108 -3.52577e-19)
(6.89486 -1.3625 0)
(6.83697 -1.612 0)
(6.76833 -1.85909 4.98877e-20)
(6.68911 -2.10328 6.98217e-19)
(6.59947 -2.34411 -3.36723e-19)
(6.49962 -2.58111 -3.58748e-19)
(6.38979 -2.81384 1.44919e-18)
(6.27025 -3.0419 -2.15193e-18)
(6.14132 -3.26488 1.38769e-18)
(6.00336 -3.48238 0)
(5.85679 -3.69405 2.78787e-18)
(5.70214 -3.89944 -2.02415e-18)
(5.53992 -4.0982 6.88609e-19)
(5.37092 -4.28964 1.31696e-18)
(5.19552 -4.47319 0)
(6.81262 -0.0975307 -4.0537e-20)
(6.809 -0.342539 0)
(6.79477 -0.58767 -5.22588e-21)
(6.76993 -0.832422 -3.24409e-19)
(6.73451 -1.0763 1.00523e-18)
(6.68858 -1.3188 -1.67218e-19)
(6.63222 -1.55946 0)
(6.56554 -1.79779 1.33206e-18)
(6.4887 -2.03335 -6.8599e-19)
(6.40184 -2.26569 4.45175e-20)
(6.30517 -2.49438 6.35759e-19)
(6.1989 -2.71901 6.51656e-19)
(6.08329 -2.9392 -1.29951e-18)
(5.95864 -3.15461 -1.27107e-18)
(5.8253 -3.36488 -1.24155e-18)
(5.68369 -3.56975 -1.32115e-18)
(5.53437 -3.76878 1.31215e-18)
(5.37786 -3.96182 -6.26407e-19)
(5.21518 -4.14802 -6.67488e-19)
(5.04664 -4.32703 0)
(6.62018 -0.0980187 3.98266e-20)
(6.61592 -0.334742 -1.49541e-19)
(6.60145 -0.571557 -1.54806e-19)
(6.57677 -0.807984 4.63534e-19)
(6.54189 -1.04354 -1.64613e-19)
(6.4969 -1.27777 -1.53872e-19)
(6.44188 -1.51021 0)
(6.37693 -1.7404 -6.32471e-19)
(6.30219 -1.96791 0)
(6.21782 -2.19233 6.27581e-19)
(6.12398 -2.41325 -1.20937e-18)
(6.02089 -2.6303 5.98662e-19)
(5.90879 -2.84313 -1.19365e-18)
(5.78794 -3.05143 1.23175e-18)
(5.6587 -3.25489 6.70419e-19)
(5.52144 -3.45338 0)
(5.37679 -3.64645 -5.78696e-19)
(5.22521 -3.83431 5.78696e-19)
(5.06818 -4.01574 0)
(4.90565 -4.19111 0)
(6.44071 -0.0980066 0)
(6.43584 -0.327002 1.46922e-19)
(6.42112 -0.556058 4.72656e-21)
(6.39656 -0.784713 -1.51491e-19)
(6.36219 -1.01251 -1.3359e-19)
(6.31807 -1.23901 -1.41827e-19)
(6.26429 -1.46376 5.48168e-19)
(6.20094 -1.68635 0)
(6.12816 -1.90635 0)
(6.04608 -2.12336 2.78581e-19)
(5.95488 -2.33702 2.95931e-19)
(5.85474 -2.54696 1.07107e-18)
(5.74588 -2.75288 -5.47267e-19)
(5.62854 -2.9545 5.47265e-19)
(5.50303 -3.15157 5.80959e-19)
(5.36969 -3.34408 3.39682e-20)
(5.22919 -3.53158 -1.06702e-18)
(5.08186 -3.71483 3.78012e-21)
(4.92989 -3.89193 5.27736e-19)
(4.77241 -4.0649 0)
(6.27229 -0.0974972 -3.28392e-20)
(6.26687 -0.319288 3.28388e-20)
(6.25197 -0.541112 0)
(6.22756 -0.762521 1.23691e-19)
(6.1937 -0.983079 4.01784e-19)
(6.15045 -1.20236 -5.07812e-19)
(6.09789 -1.41994 -5.38593e-19)
(6.03611 -1.63542 0)
(5.96523 -1.84839 0)
(5.8854 -2.05849 0)
(5.79676 -2.26535 -9.94297e-19)
(5.69947 -2.46866 -6.41769e-20)
(5.59375 -2.6681 -5.04148e-19)
(5.47977 -2.86347 3.02103e-20)
(5.35782 -3.05452 -9.97014e-19)
(5.22813 -3.24142 1.51945e-18)
(5.09141 -3.42372 -1.43974e-18)
(4.9477 -3.603 4.88734e-19)
(4.8003 -3.77628 9.36949e-19)
(4.64648 -3.94846 0)
(6.11321 -0.0961402 2.95029e-20)
(6.10735 -0.311399 0)
(6.09234 -0.526678 -1.21464e-19)
(6.06816 -0.741542 -2.50285e-19)
(6.03485 -0.955571 1.21312e-19)
(5.99248 -1.16836 9.68729e-19)
(5.94112 -1.3795 0)
(5.88088 -1.5886 -4.66564e-19)
(5.81185 -1.7953 -2.38633e-19)
(5.73416 -1.99924 -4.48306e-19)
(5.64796 -2.20007 -1.79378e-19)
(5.55338 -2.39749 -1.41536e-18)
(5.4506 -2.59122 -9.34227e-19)
(5.33974 -2.78107 9.61018e-19)
(5.22107 -2.96684 9.19893e-19)
(5.09458 -3.14876 -3.88497e-21)
(4.96109 -3.32649 2.99609e-20)
(4.81984 -3.50262 4.50329e-19)
(4.67595 -3.67334 -9.20646e-19)
(4.52266 -3.84856 0)
(5.96186 -0.0944683 -6.16963e-20)
(5.9557 -0.303472 3.03721e-20)
(5.94073 -0.512563 -1.21342e-19)
(5.91692 -0.721351 1.21285e-19)
(5.88431 -0.929444 -3.48834e-19)
(5.84293 -1.13645 -1.08622e-18)
(5.79285 -1.34199 0)
(5.73415 -1.54568 4.93661e-19)
(5.66691 -1.74718 -4.61591e-19)
(5.59125 -1.94615 9.77443e-19)
(5.50726 -2.14224 9.7164e-19)
(5.41506 -2.33518 1.43153e-18)
(5.31478 -2.52468 -9.28905e-19)
(5.20646 -2.71054 4.62692e-19)
(5.09034 -2.8926 -4.55034e-19)
(4.96605 -3.07105 4.55058e-19)
(4.8347 -3.24562 0)
(4.69358 -3.41956 4.12005e-19)
(4.55175 -3.58865 -4.03188e-19)
(4.39403 -3.77514 0)
(7.14019 7.26218 0)
(7.42016 6.97237 0)
(7.68723 6.67298 1.08765e-18)
(7.94211 6.36451 2.02673e-20)
(8.18421 6.04667 -1.1507e-18)
(8.41289 5.71954 0)
(8.62772 5.38352 1.18748e-18)
(8.82838 5.03912 -2.24045e-18)
(9.01454 4.68694 -1.13227e-18)
(9.18593 4.32759 -1.14285e-18)
(9.34227 3.96168 1.14285e-18)
(9.48333 3.58989 -1.15495e-18)
(9.60894 3.2129 5.76114e-19)
(9.71888 2.8314 5.49887e-19)
(9.813 2.44607 5.52036e-19)
(9.89125 2.05756 -5.85846e-19)
(9.95359 1.66655 5.85847e-19)
(10.0001 1.27373 -2.94102e-19)
(10.0308 0.879508 -1.39704e-19)
(10.046 0.485226 7.3582e-20)
(7.41715 7.07049 0)
(7.69734 6.78106 -9.96702e-19)
(7.96374 6.48007 -2.13088e-18)
(8.21664 6.16818 3.15116e-18)
(8.4558 5.84572 -2.18521e-18)
(8.68071 5.51315 2.19599e-18)
(8.89089 5.17106 1.19386e-18)
(9.08592 4.82012 -3.38784e-18)
(9.26542 4.46103 1.1083e-18)
(9.42902 4.09449 2.20327e-18)
(9.57642 3.72123 1.08552e-18)
(9.70737 3.34202 1.0924e-18)
(9.8217 2.95765 -1.15275e-18)
(9.91919 2.56883 1.69745e-18)
(9.99957 2.17638 -2.35501e-18)
(10.0628 1.78115 5.81296e-19)
(10.1087 1.38395 -5.58592e-19)
(10.1376 0.985599 0)
(10.1492 0.586633 1.51573e-20)
(10.144 0.188028 0)
(7.27424 6.94579 -1.75506e-18)
(7.55726 6.67377 9.85299e-19)
(7.82773 6.38888 1.8024e-18)
(8.08521 6.0918 8.15988e-19)
(8.32927 5.7831 2.0435e-18)
(8.55938 5.46339 2.00462e-20)
(8.77502 5.13335 -1.02428e-18)
(8.97569 4.79366 -3.05261e-18)
(9.16095 4.44504 3.01377e-18)
(9.33037 4.08823 -3.09367e-18)
(9.48354 3.72396 -1.03068e-18)
(9.62017 3.353 -2.0621e-18)
(9.73994 2.97616 0)
(9.84265 2.59422 0)
(9.92815 2.20808 0)
(9.99627 1.81864 -5.25628e-19)
(10.0469 1.42674 5.50497e-19)
(10.0799 1.03324 5.27324e-19)
(10.0952 0.638863 6.2707e-21)
(10.0929 0.244563 1.32441e-19)
(7.047 6.69377 1.82274e-18)
(7.32676 6.4404 -1.65531e-18)
(7.59517 6.17392 -1.69642e-19)
(7.85151 5.89485 -1.70603e-19)
(8.09522 5.60377 4.30336e-18)
(8.32574 5.30128 -7.12688e-20)
(8.54253 4.98802 3.77794e-21)
(8.74504 4.66463 -2.72137e-18)
(8.93279 4.33181 1.79555e-18)
(9.1053 3.99023 0)
(9.26208 3.64068 9.63043e-19)
(9.40278 3.284 9.69709e-19)
(9.52713 2.92096 0)
(9.63481 2.5524 0)
(9.7256 2.17913 0)
(9.7993 1.80198 0)
(9.85573 1.42177 -2.17164e-20)
(9.89476 1.03935 4.74821e-19)
(9.91628 0.655553 -2.28016e-19)
(9.92027 0.271319 0)
(6.78436 6.37901 1.54382e-18)
(7.05626 6.14351 0)
(7.31793 5.89507 -4.54561e-18)
(7.56856 5.63412 -1.54939e-18)
(7.80752 5.36116 -1.62817e-18)
(8.03423 5.07675 -1.72594e-18)
(8.24813 4.78149 8.15453e-19)
(8.44864 4.47596 -8.57005e-19)
(8.63525 4.16081 2.3797e-18)
(8.80751 3.83671 -7.79068e-19)
(8.96499 3.50443 0)
(9.10719 3.16472 0)
(9.23373 2.81827 0)
(9.34433 2.46586 0)
(9.43873 2.10831 -1.2303e-18)
(9.51668 1.74643 4.23039e-19)
(9.57795 1.38101 -4.46866e-19)
(9.62239 1.0129 0)
(9.64987 0.642933 2.24876e-19)
(9.66031 0.272006 0)
(6.50942 6.05177 1.32078e-18)
(6.77109 5.83242 -4.79984e-20)
(7.02347 5.60054 2.7782e-18)
(7.26576 5.35647 1.38799e-18)
(7.4973 5.10067 0)
(7.71751 4.83365 -1.47391e-18)
(7.92582 4.55593 6.85331e-20)
(8.12169 4.26808 -1.49631e-18)
(8.30459 3.97069 2.07011e-18)
(8.47405 3.6644 3.27472e-20)
(8.62963 3.34985 2.81232e-20)
(8.77089 3.02767 -7.4669e-19)
(8.8974 2.69859 1.46443e-18)
(9.00886 2.36338 0)
(9.105 2.02273 6.85902e-20)
(9.18551 1.67748 7.47661e-19)
(9.25013 1.32841 1.63942e-21)
(9.29868 0.976284 -1.53508e-20)
(9.33103 0.621915 0)
(9.34703 0.266135 -4.63534e-20)
(6.24357 5.73472 0)
(6.4939 5.52935 -4.89252e-20)
(6.73569 5.31199 1.75851e-20)
(6.96819 5.0829 -2.51148e-18)
(7.19074 4.8425 0)
(7.40278 4.59125 1.27023e-18)
(7.60375 4.32963 1.35297e-18)
(7.79315 4.05814 -3.93639e-18)
(7.97045 3.77733 -6.83045e-20)
(8.13519 3.48778 -1.26401e-18)
(8.28693 3.19008 6.95963e-19)
(8.42525 2.88484 -6.42907e-19)
(8.54975 2.57275 -7.06739e-19)
(8.66005 2.25448 0)
(8.75591 1.93076 3.72856e-19)
(8.83712 1.6022 -1.69146e-20)
(8.90331 1.26965 -3.46142e-19)
(8.95424 0.933857 -1.67765e-20)
(8.9898 0.595562 -8.71334e-20)
(9.00984 0.25554 1.7464e-19)
(5.99802 5.43948 0)
(6.23677 5.24596 1.08603e-18)
(6.46756 5.04101 1.61926e-20)
(6.6897 4.82488 -1.10219e-18)
(6.90255 4.59792 0)
(7.10558 4.36055 1.14667e-18)
(7.29827 4.11321 -1.09481e-18)
(7.48011 3.85636 -1.21196e-18)
(7.65063 3.5905 2.30535e-18)
(7.80939 3.31617 1.24391e-18)
(7.95594 3.03392 0)
(8.08991 2.74433 6.06732e-19)
(8.2109 2.44803 -4.39287e-21)
(8.31859 2.14567 2.18738e-20)
(8.41257 1.83791 0)
(8.49271 1.52538 -5.97231e-19)
(8.55883 1.20869 -3.12887e-19)
(8.61054 0.888663 4.5715e-19)
(8.64771 0.566022 3.08226e-19)
(8.67017 0.241476 -4.11986e-20)
(5.77645 5.17099 0)
(6.00394 4.98745 -9.38028e-19)
(6.22393 4.79305 0)
(6.43575 4.58802 -1.01203e-18)
(6.63883 4.37267 1.99249e-18)
(6.83265 4.14736 -2.03201e-18)
(7.01672 3.91252 3.17967e-18)
(7.19057 3.66856 -3.17053e-18)
(7.35376 3.41595 -2.14212e-18)
(7.50587 3.15519 -1.57996e-18)
(7.64649 2.8868 5.4179e-19)
(7.77524 2.61134 -1.12323e-18)
(7.89178 2.32938 1.86552e-20)
(7.99578 2.04153 1.11656e-18)
(8.08694 1.74837 -2.80901e-19)
(8.16489 1.45063 1.15071e-18)
(8.22954 1.14879 -5.65964e-19)
(8.28073 0.843571 2.60765e-19)
(8.31818 0.535696 -1.48709e-19)
(8.3417 0.225836 0)
(5.5786 4.92964 0)
(5.79546 4.75455 1.81471e-18)
(6.00518 4.56916 8.80284e-19)
(6.20713 4.37366 -9.06115e-19)
(6.40074 4.16834 -1.85617e-18)
(6.58555 3.95352 2.82453e-18)
(6.76111 3.72958 1.12978e-20)
(6.92697 3.49692 -9.20672e-19)
(7.08274 3.25598 1.97651e-18)
(7.228 3.00724 1.0208e-18)
(7.36239 2.75119 -9.53715e-19)
(7.48555 2.48835 5.00785e-19)
(7.59715 2.21926 2.25471e-20)
(7.69688 1.94449 -5.26943e-19)
(7.78446 1.66462 -2.55349e-19)
(7.8596 1.38022 5.12009e-19)
(7.92207 1.09199 -2.5666e-19)
(7.97176 0.800431 -5.17933e-19)
(8.0085 0.506224 6.00181e-20)
(8.03204 0.210016 6.48986e-20)