/*--------------------------------*- C++ -*----------------------------------*\
  =========                 |
  \\      /  F ield         | OpenFOAM: The Open Source CFD Toolbox
   \\    /   O peration     | Website:  https://openfoam.org
    \\  /    A nd           | Version:  6.0
     \\/     M anipulation  |
\*---------------------------------------------------------------------------*/
FoamFile
{
    version     2.0;
    format      ascii;
    class       volVectorField;
    location    "1.75";
    object      U;
}
// * * * * * * * * * * * * * * * * * * * * * * * * * * * * * * * * * * * * * //

dimensions      [0 1 -1 0 0 0 0];

internalField   nonuniform List<vector> 
19200
(
(0.100023 -4.85367 -7.10007e-21)
(0.0609184 -4.59975 3.58711e-21)
(0.0605232 -4.3736 1.65351e-21)
(0.0648426 -4.17117 1.45781e-21)
(0.0682977 -3.98856 1.59865e-21)
(0.0728779 -3.82235 1.02261e-22)
(0.078526 -3.66972 2.23626e-21)
(0.0848247 -3.52839 -1.52521e-22)
(0.0915363 -3.39654 1.91967e-21)
(0.0984837 -3.27272 7.93562e-22)
(0.105516 -3.15578 1.73969e-23)
(0.112516 -3.04481 1.23749e-21)
(0.119393 -2.93909 1.9871e-21)
(0.126085 -2.83808 -1.33739e-21)
(0.132549 -2.74131 1.69265e-21)
(0.13876 -2.64843 1.43187e-21)
(0.144708 -2.55915 -1.34492e-21)
(0.15039 -2.47321 2.26247e-21)
(0.155813 -2.3904 -1.43518e-21)
(0.160989 -2.31055 7.15797e-22)
(0.165932 -2.23349 9.86601e-22)
(0.170657 -2.15908 -3.16382e-22)
(0.175179 -2.0872 4.27118e-22)
(0.179512 -2.01777 -4.89589e-22)
(0.18367 -1.95072 -1.01787e-23)
(0.187662 -1.88596 2.49691e-22)
(0.191493 -1.82335 -1.68175e-22)
(0.195182 -1.76279 1.01769e-22)
(0.198775 -1.70418 2.35874e-22)
(0.202192 -1.64743 9.78837e-22)
(0.227238 -4.84954 -1.57226e-21)
(0.181778 -4.59841 1.09139e-20)
(0.175588 -4.374 -5.79395e-21)
(0.17476 -4.17301 -7.77407e-21)
(0.173635 -3.99171 -3.44535e-21)
(0.174085 -3.82659 -2.44344e-21)
(0.175962 -3.67484 -5.26636e-21)
(0.178777 -3.5342 6.88201e-22)
(0.182238 -3.40287 -1.12019e-21)
(0.186127 -3.2794 -3.85818e-21)
(0.19026 -3.16269 -9.37154e-21)
(0.194496 -3.05184 4.51404e-21)
(0.198727 -2.94616 -1.67598e-21)
(0.202878 -2.84512 6.36353e-22)
(0.206897 -2.74827 -3.75746e-21)
(0.210751 -2.65528 -1.35303e-21)
(0.214425 -2.56586 1.62028e-22)
(0.217913 -2.47978 4.52557e-21)
(0.221218 -2.39683 -2.40873e-21)
(0.224351 -2.31683 -1.32703e-21)
(0.227323 -2.23964 -5.05346e-21)
(0.230149 -2.1651 1.29395e-21)
(0.232841 -2.0931 -7.9896e-22)
(0.235412 -2.02356 1.4008e-21)
(0.237874 -1.95641 -6.36412e-22)
(0.240233 -1.89154 -9.86955e-22)
(0.242494 -1.82884 3.27089e-22)
(0.244678 -1.76819 4.91152e-22)
(0.246849 -1.70947 -8.79297e-22)
(0.248875 -1.65261 4.49881e-22)
(0.354047 -4.84239 -7.41804e-22)
(0.302328 -4.59407 2.31474e-21)
(0.290556 -4.3715 3.66396e-21)
(0.284747 -4.1721 2.70215e-20)
(0.279159 -3.99224 -1.54102e-20)
(0.275565 -3.82833 1.41795e-20)
(0.273735 -3.67756 8.6494e-21)
(0.273115 -3.5377 6.58922e-21)
(0.273361 -3.40696 -6.17543e-21)
(0.274215 -3.28392 -5.56174e-22)
(0.275465 -3.1675 1.53025e-20)
(0.276944 -3.05683 2.48084e-21)
(0.278532 -2.95125 -6.91179e-21)
(0.28014 -2.85022 5.4377e-21)
(0.281708 -2.75335 1.61965e-23)
(0.283198 -2.6603 2.2582e-21)
(0.284589 -2.57079 1.61829e-21)
(0.285873 -2.48462 5.31208e-21)
(0.287051 -2.40158 -2.37319e-21)
(0.288131 -2.3215 -7.8289e-22)
(0.289124 -2.24422 -1.97688e-21)
(0.290043 -2.16961 8.66809e-21)
(0.290899 -2.09755 -7.2075e-21)
(0.291702 -2.02795 2.34809e-21)
(0.292463 -1.96075 1.04267e-21)
(0.293186 -1.89584 -4.26903e-21)
(0.293871 -1.83309 5.67581e-21)
(0.294547 -1.7724 -6.19578e-22)
(0.295292 -1.71363 -6.36528e-22)
(0.295922 -1.65671 -4.57708e-21)
(0.480593 -4.83207 -2.5488e-20)
(0.422696 -4.58674 -2.33404e-20)
(0.405452 -4.36615 -2.82423e-20)
(0.394775 -4.16848 1.05945e-21)
(0.384822 -3.99017 1.75774e-21)
(0.377264 -3.82758 -3.10936e-20)
(0.37179 -3.6779 1.49811e-21)
(0.367783 -3.53889 3.93984e-21)
(0.36485 -3.40881 -7.28107e-22)
(0.362693 -3.28627 6.56702e-21)
(0.361073 -3.1702 -2.60835e-20)
(0.359805 -3.05977 -1.59019e-20)
(0.358751 -2.95433 6.03687e-21)
(0.357814 -2.85338 1.15549e-20)
(0.356926 -2.75653 -1.3482e-20)
(0.356044 -2.66347 -2.09156e-21)
(0.355143 -2.57393 -7.7882e-21)
(0.354214 -2.48772 -3.6311e-21)
(0.353256 -2.40463 6.00878e-21)
(0.352274 -2.32452 -7.66554e-21)
(0.35128 -2.24722 6.56689e-21)
(0.350283 -2.1726 -7.80663e-21)
(0.349297 -2.10053 -6.05607e-21)
(0.34833 -2.03093 -4.27618e-21)
(0.347388 -1.96372 -1.27841e-21)
(0.346472 -1.89881 -8.71664e-21)
(0.345581 -1.83608 9.02467e-22)
(0.344744 -1.7754 1.53593e-21)
(0.344062 -1.71664 -4.42488e-21)
(0.343292 -1.65971 1.01134e-21)
(0.606835 -4.81853 -1.51801e-20)
(0.542866 -4.5764 2.2308e-21)
(0.520249 -4.35795 1.97636e-20)
(0.504804 -4.16215 2.04003e-20)
(0.490576 -3.98552 1.44861e-20)
(0.479131 -3.82436 5.92907e-21)
(0.470074 -3.67583 9.11522e-21)
(0.462727 -3.53777 4.10532e-20)
(0.456647 -3.40842 -2.46895e-20)
(0.451503 -3.28643 7.55191e-22)
(0.447028 -3.17077 5.89167e-21)
(0.443019 -3.06063 2.45707e-20)
(0.439326 -2.95538 -1.6652e-20)
(0.435841 -2.85456 1.18145e-20)
(0.432491 -2.75778 -1.29342e-20)
(0.42923 -2.66476 2.20203e-20)
(0.426029 -2.57525 -6.50425e-21)
(0.422878 -2.48905 2.35419e-22)
(0.419774 -2.40598 1.01463e-20)
(0.416723 -2.32588 6.9736e-21)
(0.413733 -2.24861 -7.15019e-21)
(0.410816 -2.17403 9.54473e-21)
(0.407983 -2.10202 -4.28649e-21)
(0.405241 -2.03246 4.94599e-21)
(0.402593 -1.96531 6.50477e-21)
(0.400039 -1.90046 2.31672e-21)
(0.39757 -1.83779 7.07059e-21)
(0.395226 -1.77718 -2.61464e-21)
(0.393115 -1.71848 -8.93871e-22)
(0.390942 -1.66161 -4.32206e-21)
(0.7327 -4.80175 -1.09794e-20)
(0.662786 -4.56305 -7.46523e-21)
(0.634899 -4.34691 -2.22597e-20)
(0.614784 -4.15312 -5.69775e-20)
(0.59637 -3.97828 1.94184e-20)
(0.581111 -3.81864 1.20328e-21)
(0.568531 -3.67136 -1.27316e-20)
(0.557889 -3.5343 2.36424e-21)
(0.548696 -3.40575 -1.92947e-21)
(0.540587 -3.28438 -3.12725e-20)
(0.533271 -3.16919 1.32764e-20)
(0.526528 -3.05939 2.23091e-20)
(0.520196 -2.95439 1.19455e-22)
(0.51416 -2.85374 8.10578e-21)
(0.508343 -2.75709 1.96681e-20)
(0.502695 -2.66416 -1.34359e-20)
(0.497186 -2.57472 2.3416e-20)
(0.491805 -2.48858 -1.1044e-20)
(0.486548 -2.40558 1.94091e-20)
(0.481421 -2.32556 -1.44856e-20)
(0.47643 -2.24837 6.42027e-21)
(0.471588 -2.17389 1.64941e-20)
(0.466902 -2.10199 7.77066e-22)
(0.46238 -2.03255 -1.51228e-20)
(0.458025 -1.9655 8.45834e-21)
(0.453831 -1.90076 9.63519e-22)
(0.44979 -1.83822 -2.63187e-21)
(0.445939 -1.77773 1.00301e-20)
(0.442404 -1.71914 3.45519e-21)
(0.438831 -1.66238 -3.69231e-21)
(0.85811 -4.78175 3.04795e-20)
(0.782392 -4.54668 -1.37046e-21)
(0.749346 -4.33303 -4.51686e-20)
(0.72466 -4.14138 9.22562e-21)
(0.702149 -3.96845 -1.23464e-20)
(0.683151 -3.81042 9.44076e-21)
(0.667106 -3.66448 2.00041e-20)
(0.653214 -3.52849 3.55867e-20)
(0.64094 -3.4008 -3.80065e-20)
(0.629888 -3.28011 9.40784e-21)
(0.619743 -3.16543 -6.24109e-21)
(0.610272 -3.05603 4.5768e-21)
(0.601301 -2.95133 -2.04535e-20)
(0.592711 -2.85091 -1.17223e-21)
(0.58442 -2.75444 3.20718e-20)
(0.576377 -2.66165 -2.21844e-20)
(0.568552 -2.57233 -1.37487e-20)
(0.560933 -2.48631 -9.75136e-21)
(0.553515 -2.40342 1.79304e-20)
(0.546305 -2.32353 3.76263e-21)
(0.53931 -2.24649 -1.72291e-20)
(0.532538 -2.17216 2.27319e-20)
(0.525997 -2.10043 -2.04546e-20)
(0.519694 -2.03116 1.33748e-20)
(0.51363 -1.96428 -7.57439e-21)
(0.5078 -1.89971 4.84237e-21)
(0.502189 -1.83734 3.55765e-21)
(0.496836 -1.77703 -1.60547e-20)
(0.491882 -1.71861 6.88553e-21)
(0.486911 -1.66201 1.25974e-22)
(0.982985 -4.75853 -2.98138e-20)
(0.901616 -4.52731 2.54062e-20)
(0.863528 -4.31631 -4.5533e-20)
(0.834375 -4.12693 8.72534e-20)
(0.807857 -3.95603 -2.43014e-20)
(0.785193 -3.79969 3.37587e-20)
(0.765743 -3.65516 -6.85696e-22)
(0.748644 -3.52032 -4.88809e-21)
(0.733321 -3.39355 -6.60385e-21)
(0.719345 -3.27359 4.90978e-23)
(0.706384 -3.15948 -2.51403e-20)
(0.694189 -3.05052 1.32117e-20)
(0.682579 -2.94618 -1.55077e-20)
(0.67143 -2.84604 -1.28377e-21)
(0.660659 -2.74979 -4.27429e-20)
(0.650214 -2.6572 1.40818e-20)
(0.640064 -2.56806 7.88667e-21)
(0.630198 -2.48221 -8.99602e-21)
(0.620613 -2.39949 -1.07057e-21)
(0.611313 -2.31978 -1.35361e-20)
(0.602307 -2.24294 -4.79661e-21)
(0.593603 -2.16883 3.55984e-22)
(0.585207 -2.09731 -1.15372e-20)
(0.577125 -2.02828 -1.68817e-20)
(0.569358 -1.96164 7.57245e-22)
(0.561896 -1.8973 -1.89348e-21)
(0.554719 -1.83515 5.2101e-21)
(0.547871 -1.77508 -1.27774e-20)
(0.541502 -1.71688 1.08216e-20)
(0.53514 -1.6605 -2.21889e-20)
(1.10724 -4.7321 -7.41292e-20)
(1.02039 -4.50493 9.16142e-20)
(0.977383 -4.29675 -9.57183e-20)
(0.94387 -4.10978 -2.53374e-20)
(0.913436 -3.94099 -1.59131e-20)
(0.887182 -3.78645 -1.72279e-20)
(0.864383 -3.6434 -1.58523e-20)
(0.844121 -3.50978 -3.62963e-21)
(0.825779 -3.38398 -1.59796e-20)
(0.8089 -3.2648 -3.29513e-21)
(0.793132 -3.15132 2.57663e-20)
(0.778216 -3.04286 -1.52342e-20)
(0.763966 -2.93892 -1.75044e-20)
(0.750255 -2.8391 -2.88727e-20)
(0.736997 -2.74314 6.05316e-20)
(0.72414 -2.65079 -2.309e-20)
(0.711658 -2.56188 8.54634e-21)
(0.699537 -2.47625 -3.14183e-20)
(0.687777 -2.39377 1.2125e-20)
(0.676383 -2.31429 -4.83615e-21)
(0.665362 -2.2377 6.20093e-21)
(0.654724 -2.16386 -2.08324e-21)
(0.644474 -2.09264 1.88739e-20)
(0.634618 -2.02391 -6.66322e-21)
(0.625152 -1.95755 1.81985e-20)
(0.616064 -1.8935 -3.33273e-21)
(0.607331 -1.83165 2.35284e-20)
(0.598993 -1.77185 6.31629e-21)
(0.59122 -1.71393 1.18341e-20)
(0.583475 -1.65783 -3.93861e-20)
(1.23081 -4.70248 1.17222e-19)
(1.13863 -4.47955 -2.36766e-20)
(1.09084 -4.27436 4.06889e-20)
(1.05308 -4.08992 -1.1487e-20)
(1.01883 -3.92336 4.05361e-20)
(0.989057 -3.77069 3.77583e-20)
(0.962968 -3.62919 4.23396e-20)
(0.939585 -3.49684 -3.30037e-21)
(0.918253 -3.37208 -3.97877e-20)
(0.898488 -3.25373 5.86186e-20)
(0.879924 -3.14093 -4.08348e-21)
(0.862291 -3.03302 4.06528e-20)
(0.845399 -2.92953 1.4554e-20)
(0.829119 -2.83009 5.43895e-21)
(0.813366 -2.73446 8.43504e-21)
(0.798091 -2.64241 1.15488e-20)
(0.783267 -2.55378 1.8872e-20)
(0.768885 -2.46843 -5.28915e-21)
(0.754944 -2.38623 2.72979e-20)
(0.741451 -2.30705 1.23402e-20)
(0.728414 -2.23077 -2.57463e-20)
(0.715842 -2.15726 4.52314e-20)
(0.70374 -2.08639 -5.93452e-20)
(0.69211 -2.01801 5.57892e-20)
(0.680952 -1.95203 -1.83902e-20)
(0.670246 -1.88832 3.59303e-21)
(0.659964 -1.82681 -2.38442e-20)
(0.650151 -1.76735 1.33534e-20)
(0.640986 -1.70975 4.7314e-21)
(0.63187 -1.65399 -6.09757e-21)
(1.35359 -4.66969 -6.68641e-20)
(1.25628 -4.45119 6.60107e-20)
(1.20385 -4.24913 -1.79984e-20)
(1.16195 -4.06735 5.12981e-20)
(1.12397 -3.90311 5.05018e-21)
(1.09076 -3.75239 1.02406e-20)
(1.06144 -3.61252 -8.59773e-20)
(1.03498 -3.4815 -1.49313e-20)
(1.01068 -3.35783 5.42349e-20)
(0.988049 -3.24037 4.03817e-20)
(0.966696 -3.12829 -6.87136e-20)
(0.946348 -3.02098 3.96802e-20)
(0.926811 -2.91799 -3.95276e-20)
(0.907956 -2.81899 2.67197e-20)
(0.889702 -2.72374 -4.45381e-20)
(0.872 -2.63204 -3.25901e-20)
(0.854827 -2.54375 2.32306e-21)
(0.838176 -2.45874 -1.4541e-20)
(0.822049 -2.37687 2.63101e-20)
(0.806454 -2.29805 1.02952e-20)
(0.7914 -2.22213 -6.80427e-21)
(0.776894 -2.14901 -1.99336e-21)
(0.762942 -2.07854 7.7045e-21)
(0.749545 -2.01059 -2.59651e-20)
(0.7367 -1.94503 4.28739e-20)
(0.724383 -1.88174 -1.05266e-20)
(0.712564 -1.82063 -7.28576e-22)
(0.701292 -1.76157 3.67241e-20)
(0.690747 -1.70435 4.77818e-21)
(0.680278 -1.64898 -5.4771e-21)
(1.47552 -4.63374 2.34221e-21)
(1.37326 -4.41986 -3.78577e-20)
(1.31632 -4.22107 -3.41309e-20)
(1.27041 -4.04206 -5.56472e-20)
(1.2288 -3.88024 1.82135e-21)
(1.19223 -3.73156 -3.87499e-20)
(1.15973 -3.59337 4.63328e-20)
(1.13023 -3.46374 -4.52447e-21)
(1.103 -3.34121 3.60056e-20)
(1.07752 -3.22469 -3.04514e-20)
(1.05338 -3.11339 -1.53711e-20)
(1.03032 -3.00673 8.31086e-21)
(1.00814 -2.90429 4.43918e-21)
(0.9867 -2.80578 -4.4486e-20)
(0.965936 -2.71096 2.62884e-20)
(0.945799 -2.61967 -1.26979e-20)
(0.92627 -2.53177 3.62569e-20)
(0.907343 -2.44715 -1.18057e-20)
(0.889025 -2.36568 1.23464e-20)
(0.871325 -2.28726 2.97155e-21)
(0.854253 -2.21177 2.05045e-20)
(0.837817 -2.13909 -4.25773e-21)
(0.822021 -2.06909 3.324e-20)
(0.806864 -2.00163 -3.69925e-20)
(0.792338 -1.93656 -1.23438e-20)
(0.778423 -1.87377 1.00602e-20)
(0.765081 -1.81313 -9.63237e-22)
(0.75236 -1.75452 -1.73388e-20)
(0.740455 -1.69773 1.40105e-20)
(0.728648 -1.6428 -1.73251e-20)
(1.59651 -4.59465 1.12564e-19)
(1.4895 -4.38557 3.13556e-20)
(1.4282 -4.1902 3.69608e-20)
(1.3784 -4.01407 4.91375e-20)
(1.33326 -3.85475 7.31721e-20)
(1.2934 -3.70818 -2.106e-21)
(1.25779 -3.57173 1.0799e-20)
(1.22529 -3.44355 7.97101e-20)
(1.19515 -3.32221 -1.66179e-20)
(1.16683 -3.20669 -2.88075e-20)
(1.13992 -3.09621 5.04983e-20)
(1.11414 -2.99025 8.22844e-21)
(1.0893 -2.88842 5.53257e-22)
(1.06528 -2.79044 1.19838e-20)
(1.042 -2.69611 2.09456e-20)
(1.01942 -2.60529 -4.25246e-20)
(0.997526 -2.51784 3.61946e-20)
(0.976319 -2.43366 6.04432e-21)
(0.955805 -2.35264 3.44989e-20)
(0.935998 -2.27469 -1.87313e-20)
(0.916909 -2.19968 3.05023e-20)
(0.898545 -2.12751 -3.22215e-20)
(0.88091 -2.05803 3.10056e-20)
(0.864001 -1.99111 4.09996e-21)
(0.847808 -1.9266 -2.06204e-20)
(0.832307 -1.86437 -6.55524e-21)
(0.817455 -1.80427 3.88598e-20)
(0.803304 -1.74618 2.82414e-20)
(0.790058 -1.68988 7.47211e-21)
(0.776932 -1.63545 -5.41242e-21)
(1.71648 -4.55246 1.14009e-20)
(1.60493 -4.34833 2.65974e-20)
(1.53942 -4.15651 1.06924e-19)
(1.48585 -3.98338 -1.74978e-19)
(1.43728 -3.82664 -1.67572e-20)
(1.39422 -3.68224 -1.85013e-20)
(1.35554 -3.5476 8.41408e-21)
(1.32008 -3.42091 1.08837e-20)
(1.28706 -3.30082 1.76542e-20)
(1.25591 -3.18634 -4.71907e-20)
(1.22623 -3.07674 -8.60633e-21)
(1.19774 -2.97153 2.62574e-20)
(1.17025 -2.87035 2.75855e-20)
(1.14363 -2.77296 -2.77613e-20)
(1.11782 -2.67918 -2.65856e-20)
(1.09279 -2.58887 4.40171e-20)
(1.06853 -2.50193 2.81548e-20)
(1.04503 -2.41825 -7.43513e-21)
(1.02232 -2.33775 -1.77853e-20)
(1.00041 -2.26032 3.17656e-21)
(0.9793 -2.18586 -4.01597e-20)
(0.959013 -2.11424 4.82592e-20)
(0.939547 -2.04535 -3.27985e-20)
(0.920897 -1.97904 -1.24745e-21)
(0.903051 -1.91515 2.14153e-20)
(0.885978 -1.85354 -6.58222e-21)
(0.869635 -1.79407 -1.96898e-20)
(0.854072 -1.73656 2.43709e-20)
(0.839502 -1.68081 -6.72957e-22)
(0.825082 -1.62694 4.2942e-21)
(1.83536 -4.50718 -8.6545e-21)
(1.71946 -4.30816 -2.80962e-20)
(1.64991 -4.12002 -1.23319e-19)
(1.5927 -3.94998 4.48854e-20)
(1.54081 -3.79591 -1.31073e-20)
(1.49461 -3.65375 4.40461e-20)
(1.45292 -3.52097 3.31605e-21)
(1.41454 -3.39583 -4.8749e-20)
(1.37866 -3.27703 7.37114e-20)
(1.3447 -3.16363 -6.61819e-20)
(1.31226 -3.05496 -2.30454e-21)
(1.28105 -2.95055 1.57422e-20)
(1.25089 -2.85008 -2.69212e-20)
(1.22168 -2.75334 3.02539e-20)
(1.19334 -2.66016 -5.75195e-20)
(1.16585 -2.57042 -1.24976e-20)
(1.1392 -2.48404 3.45979e-20)
(1.11342 -2.40093 2.44457e-22)
(1.0885 -2.32099 -2.0924e-20)
(1.06448 -2.24414 5.73078e-20)
(1.04136 -2.17028 -3.09048e-20)
(1.01915 -2.0993 -4.06886e-20)
(0.997865 -2.03105 1.34045e-20)
(0.977486 -1.9654 -3.87856e-20)
(0.958001 -1.90219 -9.14149e-21)
(0.939376 -1.84127 -1.04779e-21)
(0.921561 -1.78249 -2.46623e-20)
(0.904606 -1.72565 2.96738e-20)
(0.888737 -1.67052 -1.63122e-20)
(0.873053 -1.61726 1.93266e-20)
(1.95306 -4.45884 -4.04374e-20)
(1.83304 -4.26509 -1.12898e-19)
(1.75961 -4.08074 5.3207e-20)
(1.69888 -3.91389 -5.05174e-20)
(1.64377 -3.76256 -3.64996e-20)
(1.59451 -3.62269 -2.05781e-20)
(1.54988 -3.49182 -7.6493e-20)
(1.50861 -3.36828 5.19216e-20)
(1.46989 -3.25082 -1.26606e-19)
(1.43313 -3.13856 -4.48076e-20)
(1.39792 -3.03086 1.69125e-20)
(1.364 -2.9273 2.70579e-20)
(1.33117 -2.8276 -7.92663e-22)
(1.29935 -2.73156 -5.05281e-20)
(1.26847 -2.63903 1.18166e-20)
(1.23851 -2.54993 -4.47715e-20)
(1.20949 -2.46417 -3.16859e-20)
(1.1814 -2.38167 -1.86027e-20)
(1.15428 -2.30237 -3.28021e-21)
(1.12815 -2.22616 3.23456e-20)
(1.10302 -2.15297 4.54139e-20)
(1.0789 -2.08266 -1.35139e-20)
(1.0558 -2.01511 -1.28304e-20)
(1.03371 -1.95019 2.49414e-20)
(1.0126 -1.88773 1.36708e-20)
(0.992443 -1.82756 -1.08989e-20)
(0.973178 -1.76953 -1.20014e-20)
(0.954862 -1.71344 1.44726e-21)
(0.93772 -1.65899 1.22982e-20)
(0.920791 -1.60642 1.71648e-20)
(2.06951 -4.40748 -6.94424e-21)
(1.94559 -4.21912 1.41903e-19)
(1.86844 -4.03869 1.07336e-19)
(1.80433 -3.8751 8.23123e-20)
(1.7461 -3.72658 -5.36674e-20)
(1.69387 -3.58906 -1.06452e-20)
(1.64633 -3.46016 9.93085e-21)
(1.60221 -3.33826 6.57155e-20)
(1.56067 -3.22219 2.43492e-20)
(1.52112 -3.1111 5.85161e-20)
(1.48315 -3.00443 -8.08452e-20)
(1.44651 -2.90178 8.51813e-21)
(1.41101 -2.8029 3.23834e-20)
(1.37657 -2.70761 1.94581e-20)
(1.34315 -2.6158 3.9768e-20)
(1.31072 -2.52739 -2.7648e-20)
(1.2793 -2.44231 -2.48827e-20)
(1.24892 -2.36049 5.05423e-21)
(1.21959 -2.28187 5.24405e-20)
(1.19135 -2.20637 -8.41021e-20)
(1.16421 -2.13389 2.9332e-20)
(1.13819 -2.06433 -1.26654e-22)
(1.11329 -1.99755 5.39706e-20)
(1.08949 -1.93341 -2.34377e-20)
(1.06678 -1.87175 -1.38321e-21)
(1.04511 -1.81241 -1.45912e-20)
(1.02443 -1.75521 1.3843e-20)
(1.00477 -1.69992 3.37127e-21)
(0.986386 -1.64624 -1.49319e-20)
(0.968237 -1.59442 5.1827e-20)
(2.18463 -4.35312 -1.45113e-19)
(2.05703 -4.17028 -8.59259e-20)
(1.97633 -3.99387 -2.16677e-19)
(1.90899 -3.83363 -9.63166e-20)
(1.84774 -3.68798 8.99139e-20)
(1.7926 -3.55287 -5.16413e-20)
(1.74222 -3.42597 -1.18374e-20)
(1.69528 -3.30576 -3.32407e-20)
(1.65094 -3.19112 5.67307e-20)
(1.6086 -3.08127 -1.28021e-20)
(1.56788 -2.97567 -2.00698e-20)
(1.52852 -2.87398 -2.43377e-21)
(1.49034 -2.77597 -7.84221e-20)
(1.45328 -2.6815 -2.32394e-21)
(1.4173 -2.59046 2.1161e-20)
(1.38239 -2.5028 -2.28007e-21)
(1.34858 -2.41845 -7.81291e-20)
(1.3159 -2.33738 7.5579e-20)
(1.28436 -2.2595 -7.33995e-20)
(1.25401 -2.18476 2.85686e-20)
(1.22487 -2.11307 4.01963e-21)
(1.19695 -2.04431 1.57858e-21)
(1.17025 -1.97835 -2.93854e-20)
(1.14477 -1.91507 9.73099e-21)
(1.12047 -1.85427 -5.57325e-23)
(1.09732 -1.79581 3.11493e-21)
(1.07524 -1.73949 -7.1058e-20)
(1.05427 -1.68509 1.95583e-20)
(1.03466 -1.63223 2.06393e-20)
(1.01533 -1.58123 2.32304e-20)
(2.29834 -4.2958 2.81514e-19)
(2.1673 -4.1186 9.62763e-20)
(2.08323 -3.94631 5.58767e-20)
(2.01278 -3.7895 8.87039e-20)
(1.94862 -3.64676 -1.06854e-20)
(1.89065 -3.5141 6.47346e-20)
(1.83747 -3.38925 1.42021e-19)
(1.78774 -3.27078 -1.84862e-20)
(1.74062 -3.15761 7.79856e-21)
(1.69551 -3.04904 1.61001e-19)
(1.65203 -2.94457 -2.17978e-20)
(1.60994 -2.84389 2.18708e-20)
(1.56908 -2.74681 -7.59427e-21)
(1.5294 -2.65321 1.0392e-22)
(1.49085 -2.56301 1.10493e-19)
(1.45347 -2.47615 4.27426e-21)
(1.41726 -2.39261 1.14805e-19)
(1.38226 -2.31233 -1.48509e-20)
(1.34852 -2.23526 -2.43228e-20)
(1.31607 -2.16134 5.65962e-20)
(1.28493 -2.09048 -5.10527e-20)
(1.25511 -2.02258 5.59669e-20)
(1.22663 -1.95752 2.9839e-20)
(1.19947 -1.89514 -2.38001e-20)
(1.1736 -1.83529 3.63263e-20)
(1.14898 -1.77777 4.30126e-21)
(1.12553 -1.72241 -1.46672e-20)
(1.10328 -1.66894 8.3549e-21)
(1.08248 -1.61699 5.27784e-20)
(1.062 -1.56688 8.21064e-21)
(2.41058 -4.23554 -4.85013e-20)
(2.27633 -4.06411 -9.78914e-20)
(2.18906 -3.89602 3.9202e-20)
(2.11564 -3.74269 -1.58285e-19)
(2.04867 -3.60294 7.3722e-20)
(1.98795 -3.47276 -1.33846e-19)
(1.93202 -3.35001 -8.59023e-20)
(1.87953 -3.2333 2.40716e-20)
(1.82964 -3.12166 2.20338e-20)
(1.78176 -3.01441 -1.12594e-19)
(1.73553 -2.91112 -4.7703e-20)
(1.69071 -2.81151 2.11575e-20)
(1.64717 -2.71542 -5.94451e-20)
(1.60485 -2.62275 -2.32135e-20)
(1.56374 -2.53344 -1.53266e-20)
(1.52386 -2.44745 -1.53409e-20)
(1.48526 -2.36477 -6.32561e-20)
(1.44796 -2.28534 -3.88616e-20)
(1.41201 -2.20913 7.43803e-21)
(1.37745 -2.13609 1.26832e-20)
(1.34431 -2.06613 1.3057e-20)
(1.31261 -1.99915 -4.58257e-20)
(1.28235 -1.93504 1.69695e-20)
(1.25352 -1.87363 -3.49709e-20)
(1.2261 -1.81478 3.24236e-20)
(1.20003 -1.75828 -4.27816e-20)
(1.17523 -1.70394 1.3062e-20)
(1.15172 -1.6515 -2.09283e-20)
(1.12977 -1.60051 -2.92072e-20)
(1.10818 -1.55137 -3.01814e-21)
(2.52125 -4.1724 -1.01864e-19)
(2.38404 -4.00682 -8.8255e-20)
(2.29377 -3.84302 -8.46094e-20)
(2.21752 -3.69324 -6.05205e-20)
(2.14784 -3.5565 1.88312e-19)
(2.08443 -3.42886 2.54051e-20)
(2.02579 -3.30823 7.83921e-20)
(1.97057 -3.19333 1.17993e-19)
(1.91792 -3.08326 5.53424e-20)
(1.86728 -2.97739 -7.42903e-20)
(1.8183 -2.87533 1.15714e-19)
(1.77074 -2.77685 -1.12494e-19)
(1.72451 -2.6818 1.04464e-19)
(1.67956 -2.59012 1.18157e-20)
(1.63588 -2.50176 2.60335e-20)
(1.59352 -2.41671 8.65306e-21)
(1.55251 -2.33494 1.03003e-19)
(1.51291 -2.25643 -1.53608e-20)
(1.47475 -2.18114 1.34453e-20)
(1.4381 -2.10903 4.47877e-20)
(1.40296 -2.04001 -4.98592e-20)
(1.36938 -1.97401 3.91163e-20)
(1.33735 -1.9109 1.32193e-21)
(1.30686 -1.85053 1.7437e-20)
(1.2779 -1.79273 3.15817e-20)
(1.2504 -1.73731 -5.43218e-21)
(1.22426 -1.68408 3.09127e-20)
(1.19954 -1.63273 4.41491e-20)
(1.17647 -1.58279 -4.81131e-20)
(1.15381 -1.53469 -2.98263e-20)
(2.63029 -4.1064 2.9506e-19)
(2.49037 -3.94677 -3.29579e-20)
(2.39728 -3.78733 6.595e-20)
(2.31835 -3.64115 1.18647e-19)
(2.24606 -3.50746 -3.37044e-19)
(2.18002 -3.38238 3.59493e-20)
(2.11871 -3.26391 -1.24398e-19)
(2.06078 -3.15087 1.21794e-19)
(2.00539 -3.04241 -9.66953e-20)
(1.95199 -2.93797 4.99187e-20)
(1.90026 -2.8372 -1.83328e-19)
(1.84997 -2.7399 6.74314e-21)
(1.80105 -2.64596 -5.78298e-20)
(1.75346 -2.55533 8.81617e-20)
(1.70722 -2.46799 -9.27823e-20)
(1.66237 -2.38392 -4.9781e-21)
(1.61896 -2.30313 -7.31594e-20)
(1.57705 -2.22559 -5.69245e-21)
(1.5367 -2.15127 5.63351e-21)
(1.49794 -2.08014 1.5449e-20)
(1.46082 -2.01213 -8.8109e-20)
(1.42536 -1.94715 -2.52201e-21)
(1.39157 -1.88509 -4.84093e-20)
(1.35943 -1.8258 -1.12542e-20)
(1.32893 -1.76912 -2.91588e-20)
(1.30001 -1.71486 -3.15671e-20)
(1.27257 -1.6628 -3.24792e-20)
(1.24665 -1.61263 5.41292e-20)
(1.22249 -1.56383 1.43793e-20)
(1.19882 -1.51684 -2.882e-20)
(2.73762 -4.03758 -1.96529e-19)
(2.59525 -3.884 7.21495e-20)
(2.49955 -3.72898 -1.20286e-19)
(2.41806 -3.58644 1.78871e-20)
(2.34326 -3.45583 1.89877e-19)
(2.27465 -3.33333 -9.59375e-20)
(2.2107 -3.21706 -9.78443e-20)
(2.15008 -3.10592 -8.32735e-20)
(2.09196 -2.99911 4.38408e-21)
(2.03582 -2.89615 5.26056e-20)
(1.98133 -2.79672 -3.70445e-20)
(1.92832 -2.70067 2.44627e-21)
(1.8767 -2.6079 1.11672e-19)
(1.82648 -2.51839 -5.63689e-20)
(1.77767 -2.43212 1.40086e-20)
(1.73034 -2.34911 -4.42946e-20)
(1.68453 -2.26935 1.69223e-20)
(1.64033 -2.19284 3.61967e-20)
(1.59778 -2.11955 3.98747e-20)
(1.55694 -2.04945 -4.37288e-20)
(1.51784 -1.98248 6.52816e-21)
(1.4805 -1.91856 3.67146e-20)
(1.44495 -1.8576 6.30269e-20)
(1.41117 -1.79944 1.62229e-20)
(1.37914 -1.74393 -6.42763e-20)
(1.34881 -1.69088 7.4179e-20)
(1.32008 -1.64007 -3.71531e-20)
(1.29297 -1.59115 -4.39071e-20)
(1.26777 -1.54358 -2.67496e-20)
(1.24311 -1.49781 -3.72549e-20)
(2.84318 -3.96599 1.03181e-19)
(2.69864 -3.81854 -8.20713e-20)
(2.60051 -3.66799 3.23473e-20)
(2.51661 -3.52911 1.61606e-19)
(2.43937 -3.4016 4.32011e-20)
(2.36824 -3.28172 -3.62956e-20)
(2.30169 -3.16768 8.77916e-20)
(2.2384 -3.05847 2.16385e-20)
(2.17757 -2.95337 8.02623e-20)
(2.11868 -2.85194 4.36142e-20)
(2.06144 -2.75392 2.18811e-21)
(2.0057 -2.65917 2.6739e-20)
(1.95139 -2.56763 -8.3713e-21)
(1.89854 -2.4793 1.43666e-20)
(1.84717 -2.39418 3.91867e-20)
(1.79736 -2.31228 -2.13235e-20)
(1.74917 -2.23362 5.21287e-20)
(1.70268 -2.15819 5.23413e-20)
(1.65795 -2.08598 -5.91544e-20)
(1.61503 -2.01695 6.07045e-20)
(1.57396 -1.95107 1.27173e-19)
(1.53476 -1.88825 -8.17701e-20)
(1.49745 -1.82841 8.13356e-20)
(1.46203 -1.77142 -5.6946e-20)
(1.42848 -1.71712 -7.93868e-21)
(1.39674 -1.66533 6.00339e-20)
(1.36671 -1.61583 -1.23067e-20)
(1.33844 -1.56826 4.45441e-20)
(1.3122 -1.522 4.39761e-20)
(1.2866 -1.47756 -8.94155e-20)
(2.9469 -3.89168 -9.90972e-20)
(2.80048 -3.75042 4.77107e-20)
(2.70014 -3.60438 1.86074e-20)
(2.61394 -3.46917 -1.87887e-19)
(2.53433 -3.34478 -9.53135e-20)
(2.46073 -3.22754 7.05762e-20)
(2.39161 -3.11577 -1.93509e-19)
(2.32566 -3.00853 2.30701e-19)
(2.26211 -2.9052 -1.28447e-19)
(2.20049 -2.80536 1.51705e-20)
(2.1405 -2.7088 -2.46139e-20)
(2.08204 -2.61542 -7.00407e-20)
(2.02505 -2.52518 1.44227e-19)
(1.96957 -2.43809 5.31701e-20)
(1.91565 -2.35418 -5.56517e-20)
(1.86337 -2.27346 1.54719e-21)
(1.81281 -2.19595 3.00386e-20)
(1.76405 -2.12166 -6.44355e-20)
(1.71715 -2.05058 1.37466e-20)
(1.67217 -1.98267 4.38102e-20)
(1.62914 -1.91791 -1.83388e-20)
(1.58809 -1.85622 2.95225e-20)
(1.54904 -1.79753 -5.82117e-20)
(1.51198 -1.74172 8.34706e-20)
(1.4769 -1.68864 1.90083e-20)
(1.44375 -1.63814 -5.24684e-20)
(1.41242 -1.59001 -4.47834e-20)
(1.38298 -1.54386 5.0844e-22)
(1.35572 -1.49902 6.14445e-20)
(1.32921 -1.45601 -1.51858e-20)
(3.04873 -3.81467 -2.68547e-20)
(2.90075 -3.67969 -1.90626e-19)
(2.79837 -3.53816 2.27113e-19)
(2.70998 -3.40663 1.51302e-19)
(2.62806 -3.28536 1.48143e-19)
(2.55202 -3.17079 3.96806e-20)
(2.48035 -3.06132 6.03161e-20)
(2.41177 -2.95612 3.01519e-20)
(2.34552 -2.85459 -1.18585e-19)
(2.28116 -2.7564 2.15928e-19)
(2.21844 -2.66137 -1.70093e-19)
(2.15726 -2.56943 -1.03198e-20)
(2.09759 -2.48056 2.49971e-20)
(2.03949 -2.39479 -1.05775e-19)
(1.98304 -2.31215 9.24154e-20)
(1.92831 -2.23267 -2.78279e-20)
(1.8754 -2.15638 -6.94908e-20)
(1.82439 -2.08329 2.62135e-20)
(1.77534 -2.01338 -5.09048e-20)
(1.72832 -1.94663 -4.44777e-20)
(1.68335 -1.88302 -4.69275e-20)
(1.64048 -1.82248 1.06216e-20)
(1.59969 -1.76494 5.72528e-21)
(1.561 -1.71031 -1.12909e-19)
(1.52439 -1.65846 -4.22824e-20)
(1.48981 -1.60926 2.76489e-20)
(1.45717 -1.5625 3.37039e-20)
(1.42654 -1.51783 -4.63794e-20)
(1.39825 -1.4745 -1.74697e-20)
(1.37083 -1.43303 1.90612e-21)
(3.14866 -3.73501 -2.49614e-20)
(2.99943 -3.60636 1.23505e-19)
(2.89519 -3.46934 -3.51761e-20)
(2.80467 -3.34147 -4.30913e-20)
(2.72048 -3.22335 -2.29178e-19)
(2.64204 -3.11148 -4.85668e-20)
(2.56783 -3.00436 9.32872e-20)
(2.49663 -2.90124 -6.04594e-20)
(2.4277 -2.80158 -6.06322e-21)
(2.36062 -2.70511 -1.20571e-20)
(2.29517 -2.61167 6.41023e-20)
(2.23128 -2.52123 -1.00949e-19)
(2.16895 -2.4338 -6.64308e-20)
(2.10825 -2.34941 7.70876e-20)
(2.04927 -2.26812 -4.33746e-20)
(1.99211 -2.18995 -5.15524e-20)
(1.93687 -2.11494 1.09827e-19)
(1.88363 -2.0431 -1.73565e-20)
(1.83247 -1.97441 6.31463e-20)
(1.78344 -1.90887 -5.78913e-20)
(1.73657 -1.84643 -4.60315e-20)
(1.69189 -1.78705 3.99701e-20)
(1.64941 -1.73067 -4.68687e-21)
(1.60911 -1.6772 -2.94105e-20)
(1.57097 -1.62654 2.57617e-20)
(1.53496 -1.57859 -7.93714e-20)
(1.50098 -1.53319 4.85256e-20)
(1.46912 -1.49 -7.78482e-22)
(1.43977 -1.44825 -4.97028e-20)
(1.41146 -1.40841 7.63832e-20)
(3.24678 -3.65277 9.44901e-20)
(3.09658 -3.53047 -2.4409e-19)
(2.99056 -3.3979 -1.93762e-20)
(2.89794 -3.27369 1.09946e-19)
(2.8115 -3.15874 -2.76741e-20)
(2.73067 -3.04961 -7.71819e-20)
(2.65396 -2.94489 3.56627e-20)
(2.58016 -2.8439 4.03793e-20)
(2.50856 -2.74618 3.20055e-21)
(2.43877 -2.65149 4.84925e-20)
(2.37061 -2.55971 1.52721e-19)
(2.30402 -2.47085 -5.40814e-20)
(2.23904 -2.38492 1.31171e-20)
(2.17575 -2.302 -3.44696e-20)
(2.11427 -2.22212 1.33013e-19)
(2.05471 -2.14533 -2.35583e-20)
(1.99717 -2.07167 7.71382e-20)
(1.94174 -2.00113 -2.96129e-20)
(1.8885 -1.93373 3.16016e-20)
(1.8375 -1.86943 4.73379e-20)
(1.78877 -1.8082 7.91227e-21)
(1.74234 -1.75 3.12832e-20)
(1.69819 -1.69476 -2.55947e-20)
(1.65632 -1.64241 7.12988e-20)
(1.6167 -1.59289 -2.89439e-20)
(1.57926 -1.54609 1.05139e-19)
(1.54393 -1.50193 -3.04255e-20)
(1.51078 -1.46014 2.06333e-20)
(1.48031 -1.41992 -3.88246e-20)
(1.45113 -1.38179 7.40648e-20)
(3.34346 -3.56809 -2.10466e-19)
(3.19232 -3.45199 8.37586e-21)
(3.0844 -3.32376 -1.20808e-19)
(2.98965 -3.20322 2.17095e-20)
(2.90099 -3.0915 5.90792e-21)
(2.81781 -2.98518 -1.02011e-19)
(2.73863 -2.88293 -1.89357e-19)
(2.66225 -2.78414 9.34752e-20)
(2.58801 -2.68841 -1.31845e-19)
(2.51553 -2.59556 -6.79964e-20)
(2.44466 -2.50552 -3.80554e-20)
(2.37539 -2.41831 -2.96759e-20)
(2.30777 -2.33397 3.3196e-22)
(2.24193 -2.25258 -1.0582e-19)
(2.17797 -2.17419 6.74643e-20)
(2.11603 -2.09886 -1.11288e-19)
(2.05623 -2.02661 -2.77447e-20)
(1.99865 -1.95745 2.99525e-20)
(1.94337 -1.89138 3.7378e-20)
(1.89046 -1.82837 3.68375e-20)
(1.83993 -1.76839 2.7955e-20)
(1.7918 -1.71138 -6.98843e-20)
(1.74606 -1.65729 6.99977e-20)
(1.70269 -1.60604 -7.52322e-21)
(1.66165 -1.55754 -1.86035e-20)
(1.62284 -1.51175 -7.29573e-20)
(1.58615 -1.46859 -3.83009e-20)
(1.55163 -1.42783 7.06549e-20)
(1.51985 -1.38877 -2.33004e-20)
(1.48965 -1.35242 -2.39255e-20)
(3.43917 -3.48063 9.27332e-20)
(3.28669 -3.37049 9.80533e-21)
(3.17658 -3.24674 -2.38642e-20)
(3.07966 -3.13005 -4.3595e-21)
(2.98883 -3.02167 -4.05245e-20)
(2.90335 -2.91824 1.37901e-19)
(2.82175 -2.81851 -6.40811e-20)
(2.74283 -2.72198 4.23512e-20)
(2.66596 -2.62832 1.76948e-20)
(2.5908 -2.53739 6.04884e-20)
(2.51725 -2.44915 -2.23533e-20)
(2.44532 -2.36366 1.27704e-19)
(2.37509 -2.28098 -1.08388e-20)
(2.3067 -2.2012 8.05644e-20)
(2.2403 -2.12438 -1.33684e-19)
(2.17602 -2.05058 -9.32745e-21)
(2.11399 -1.97982 8.52345e-20)
(2.0543 -1.91211 -5.22881e-20)
(1.99704 -1.84744 -3.65271e-20)
(1.94227 -1.78579 -6.22854e-20)
(1.89 -1.72711 -5.37434e-20)
(1.84026 -1.67134 5.82265e-20)
(1.79304 -1.61841 -5.36687e-20)
(1.74831 -1.56824 1.19785e-20)
(1.70601 -1.52074 4.31833e-20)
(1.66605 -1.47579 2.96018e-20)
(1.62828 -1.43327 2.78102e-20)
(1.59257 -1.39285 2.01271e-20)
(1.55915 -1.35416 -5.47363e-20)
(1.5273 -1.31911 -2.3571e-20)
(4.95155 -0.029457 1.18244e-21)
(4.94663 -0.1598 1.13299e-20)
(4.93865 -0.289317 3.9453e-20)
(4.92758 -0.418292 2.14808e-20)
(4.9132 -0.546787 -4.62291e-20)
(4.89545 -0.674769 1.39225e-20)
(4.87434 -0.802174 -1.44144e-20)
(4.84987 -0.928925 -3.67765e-20)
(4.82206 -1.05494 9.58891e-20)
(4.79095 -1.18012 -2.28938e-20)
(4.75655 -1.30439 -2.24914e-20)
(4.71891 -1.42767 -4.87964e-20)
(4.67804 -1.54986 -1.4121e-19)
(4.63399 -1.67089 1.30722e-20)
(4.58681 -1.79067 -5.04667e-21)
(4.53652 -1.90913 -4.60697e-20)
(4.48317 -2.02618 9.55715e-20)
(4.4268 -2.14176 5.29221e-20)
(4.36745 -2.25577 9.97067e-20)
(4.30518 -2.36815 4.8408e-20)
(4.24004 -2.47883 -1.11994e-19)
(4.17206 -2.58773 4.75565e-21)
(4.10131 -2.69478 -2.12698e-19)
(4.02784 -2.79993 3.23598e-19)
(3.9517 -2.9031 -1.05556e-19)
(3.87295 -3.00425 -1.39498e-19)
(3.79166 -3.10331 -2.03439e-20)