/*--------------------------------*- C++ -*----------------------------------*\
| =========                 |                                                 |
| \\      /  F ield         | OpenFOAM: The Open Source CFD Toolbox           |
|  \\    /   O peration     | Version:  v1912                                 |
|   \\  /    A nd           | Website:  www.openfoam.com                      |
|    \\/     M anipulation  |                                                 |
\*---------------------------------------------------------------------------*/
FoamFile
{
    version     2.0;
    format      ascii;
    class       surfaceScalarField;
    location    "25";
    object      phi;
}
// * * * * * * * * * * * * * * * * * * * * * * * * * * * * * * * * * * * * * //

dimensions      [0 3 -1 0 0 0 0];
oriented        oriented;


internalField   nonuniform List<scalar> 
38030
(
0.000114262
-0.323054
0.322939
0.000515462
-0.309856
0.309455
0.00111903
-0.299827
0.299224
0.00183001
-0.29196
0.291249
0.00260928
-0.285137
0.284358
0.00341587
-0.278777
0.277971
0.00422252
-0.272583
0.271777
0.00501259
-0.266415
0.265625
0.00577669
-0.260231
0.259466
0.00651067
-0.254042
0.253308
0.00721391
-0.247884
0.247181
0.00788805
-0.2418
0.241126
0.00853599
-0.235829
0.235181
0.00916115
-0.230006
0.229381
0.00976703
-0.224353
0.223748
0.0103569
-0.218889
0.218299
0.0109337
-0.21362
0.213043
0.0114998
-0.208551
0.207985
0.0120573
-0.203681
0.203124
0.0126077
-0.199005
0.198455
0.0131525
-0.194518
0.193973
0.0136928
-0.190211
0.189671
0.0142297
-0.186077
0.18554
0.0147644
-0.182105
0.18157
0.0152981
-0.178285
0.177751
0.0158321
-0.174603
0.174069
0.016368
-0.171042
0.170506
0.0169067
-0.167581
0.167042
0.0174486
-0.164194
0.163653
-0.160851
0.160306
0.0179934
0.000131153
-0.323185
0.000539726
-0.310265
0.00113776
-0.300425
0.00184857
-0.29267
0.00262243
-0.285911
0.00342199
-0.279577
0.00422063
-0.273382
0.00500174
-0.267196
0.00575621
-0.260985
0.00648018
-0.254766
0.00717328
-0.248577
0.00783733
-0.242464
0.00847536
-0.236467
0.00909088
-0.230621
0.00968743
-0.22495
0.0102683
-0.219469
0.0108364
-0.214188
0.0113941
-0.209109
0.0119434
-0.20423
0.0124858
-0.199548
0.0130227
-0.195055
0.0135551
-0.190743
0.0140841
-0.186606
0.0146108
-0.182632
0.0151364
-0.178811
0.0156624
-0.175129
0.0161902
-0.17157
0.016721
-0.168112
0.0172554
-0.164729
-0.161388
0.0177929
0.000150969
-0.323336
0.000561133
-0.310675
0.00115489
-0.301019
0.0018628
-0.293378
0.00263185
-0.28668
0.00342447
-0.28037
0.00421476
-0.274172
0.00498652
-0.267968
0.00573095
-0.26173
0.00644448
-0.255479
0.00712699
-0.249259
0.00778052
-0.243117
0.00840822
-0.237095
0.0090137
-0.231227
0.00960053
-0.225537
0.010172
-0.220041
0.010731
-0.214747
0.0112799
-0.209658
0.0118206
-0.204771
0.0123546
-0.200082
0.0128831
-0.195583
0.0134072
-0.191268
0.0139279
-0.187126
0.0144461
-0.18315
0.0149632
-0.179328
0.0154805
-0.175646
0.0159996
-0.172089
0.0165218
-0.168634
0.0170477
-0.165255
-0.161918
0.0175771
0.000158391
-0.323494
0.0005734
-0.31109
0.00116733
-0.301613
0.00187284
-0.294084
0.00263715
-0.287444
0.00342281
-0.281155
0.00420452
-0.274954
0.00496658
-0.26873
0.00570058
-0.262464
0.00640328
-0.256182
0.00707483
-0.249931
0.00771747
-0.24376
0.00833449
-0.237712
0.00892956
-0.231822
0.00950633
-0.226114
0.0100681
-0.220603
0.0106176
-0.215297
0.0111574
-0.210198
0.0116891
-0.205303
0.0122144
-0.200607
0.0127342
-0.196103
0.0132496
-0.191783
0.0137615
-0.187638
0.0142709
-0.183659
0.014779
-0.179836
0.0152872
-0.176154
0.0157971
-0.172599
0.0163101
-0.169147
0.0168272
-0.165772
-0.162439
0.0173481
0.000164415
-0.323659
0.000583012
-0.311509
0.00117693
-0.302207
0.00187964
-0.294786
0.00263883
-0.288203
0.00341727
-0.281934
0.00419009
-0.275727
0.0049421
-0.269482
0.00566529
-0.263187
0.00635678
-0.256873
0.007017
-0.250591
0.00764837
-0.244391
0.00825434
-0.238318
0.00883867
-0.232406
0.00940503
-0.22668
0.00995671
-0.221154
0.0104965
-0.215837
0.0110268
-0.210728
0.0115493
-0.205825
0.0120655
-0.201123
0.0125763
-0.196614
0.0130828
-0.192289
0.0135856
-0.188141
0.0140858
-0.18416
0.0145846
-0.180334
0.0150834
-0.176653
0.0155838
-0.173099
0.0160874
-0.169651
0.0165953
-0.16628
-0.162951
0.0171076
0.0001679
-0.323826
0.000589359
-0.31193
0.00118336
-0.302801
0.00188321
-0.295486
0.00263699
-0.288957
0.00340787
-0.282705
0.00417147
-0.27649
0.00491305
-0.270223
0.00562507
-0.263899
0.00630498
-0.257553
0.0069535
-0.25124
0.00757327
-0.245011
0.00816786
-0.238913
0.00874112
-0.232979
0.00929675
-0.227236
0.00983806
-0.221696
0.0103678
-0.216366
0.0108883
-0.211248
0.0114013
-0.206338
0.0119081
-0.20163
0.0124098
-0.197115
0.012907
-0.192787
0.0134006
-0.188635
0.0138914
-0.18465
0.0143807
-0.180824
0.0148698
-0.177142
0.0153605
-0.17359
0.0158546
-0.170145
0.0163534
-0.166778
-0.163455
0.0168572
0.000170619
-0.323997
0.000594033
-0.312354
0.00118749
-0.303394
0.00188401
-0.296183
0.00263194
-0.289705
0.00339485
-0.283468
0.00414882
-0.277244
0.00487959
-0.270954
0.00558005
-0.264599
0.00624802
-0.258221
0.0068845
-0.251876
0.00749232
-0.245619
0.0080752
-0.239496
0.00863708
-0.233541
0.00918168
-0.22778
0.00971233
-0.222226
0.0102318
-0.216886
0.0107423
-0.211759
0.0112455
-0.206842
0.0117427
-0.202127
0.0122349
-0.197608
0.0127227
-0.193274
0.0132068
-0.189119
0.0136882
-0.185132
0.0141678
-0.181303
0.0146472
-0.177622
0.0151282
-0.174071
0.0156128
-0.170629
0.0161025
-0.167268
-0.16395
0.0165981
0.000172558
-0.32417
0.000597157
-0.312778
0.00118951
-0.303987
0.00188223
-0.296876
0.00262386
-0.290447
0.00337836
-0.284222
0.00412228
-0.277988
0.00484184
-0.271674
0.00553036
-0.265288
0.00618602
-0.258877
0.00681009
-0.2525
0.00740563
-0.246214
0.00797649
-0.240066
0.00852667
-0.234091
0.00905996
-0.228313
0.00957966
-0.222746
0.0100885
-0.217395
0.0105887
-0.212259
0.011082
-0.207335
0.0115694
-0.202615
0.0120519
-0.19809
0.0125302
-0.193753
0.0130048
-0.189593
0.0134765
-0.185603
0.0139465
-0.181773
0.0144161
-0.178091
0.0148874
-0.174542
0.0153625
-0.171104
0.0158434
-0.167749
-0.164438
0.0163311
0.000174042
-0.324344
0.000599146
-0.313203
0.00118976
-0.304577
0.00187815
-0.297564
0.00261297
-0.291182
0.00335859
-0.284968
0.00409201
-0.278722
0.00479995
-0.272382
0.00547613
-0.265964
0.00611911
-0.25952
0.00673043
-0.253112
0.00731336
-0.246797
0.00787187
-0.240625
0.00841007
-0.23463
0.00893174
-0.228835
0.00944022
-0.223254
0.00993823
-0.217893
0.0104279
-0.212749
0.0109109
-0.207818
0.0113884
-0.203092
0.0118611
-0.198563
0.0123297
-0.194221
0.0127946
-0.190058
0.0132567
-0.186066
0.0137169
-0.182233
0.0141769
-0.178551
0.0146385
-0.175004
0.0151043
-0.17157
0.0155764
-0.168221
-0.164918
0.0160564
0.00017511
-0.324519
0.000600132
-0.313628
0.00118843
-0.305166
0.00187194
-0.298247
0.00259946
-0.291909
0.00333571
-0.285704
0.00405819
-0.279444
0.00475407
-0.273078
0.00541752
-0.266627
0.00604744
-0.26015
0.00664567
-0.25371
0.00721565
-0.247367
0.0077615
-0.241171
0.0082874
-0.235156
0.00879717
-0.229345
0.00929415
-0.223751
0.00978105
-0.21838
0.01026
-0.213228
0.0107325
-0.20829
0.0111998
-0.203559
0.0116626
-0.199026
0.0121214
-0.19468
0.0125766
-0.190514
0.013029
-0.186518
0.0134795
-0.182684
0.0139297
-0.179001
0.0143817
-0.175456
0.0148382
-0.172027
0.0153018
-0.168685
-0.165391
0.0157744
0.000175836
-0.324695
0.000600251
-0.314053
0.00118569
-0.305751
0.00186379
-0.298926
0.00258349
-0.292629
0.0033099
-0.28643
0.00402098
-0.280155
0.00470438
-0.273761
0.0053547
-0.267278
0.0059712
-0.260766
0.00655597
-0.254295
0.00711266
-0.247924
0.00764553
-0.241704
0.00815881
-0.235669
0.00865639
-0.229842
0.00914158
-0.224237
0.0096171
-0.218855
0.010085
-0.213696
0.0105469
-0.208752
0.0110038
-0.204016
0.0114565
-0.199478
0.0119053
-0.195129
0.0123508
-0.190959
0.0127934
-0.186961
0.0132342
-0.183125
0.0136747
-0.179442
0.0141172
-0.175898
0.0145645
-0.172474
0.0150195
-0.16914
-0.165856
0.0154849
0.000176249
-0.324871
0.000599581
-0.314476
0.00118167
-0.306333
0.00185386
-0.299598
0.00256524
-0.29334
0.00328133
-0.287146
0.00398055
-0.280854
0.00465106
-0.274432
0.00528786
-0.267914
0.00589054
-0.261369
0.0064615
-0.254866
0.00700456
-0.248467
0.0075241
-0.242223
0.00802445
-0.236169
0.00850951
-0.230328
0.00898262
-0.22471
0.00944645
-0.219319
0.0099031
-0.214152
0.0103541
-0.209203
0.0108004
-0.204463
0.0112427
-0.199921
0.0116815
-0.195568
0.0121171
-0.191395
0.01255
-0.187393
0.0129811
-0.183556
0.0134119
-0.179873
0.0138448
-0.176331
0.014283
-0.172912
0.0147297
-0.169586
-0.166314
0.0151879
0.000176364
-0.325047
0.000598205
-0.314898
0.00117648
-0.306911
0.00184228
-0.300264
0.00254488
-0.294043
0.00325018
-0.287852
0.00393711
-0.281541
0.0045943
-0.275089
0.00521717
-0.268537
0.00580567
-0.261957
0.00636244
-0.255422
0.00689152
-0.248996
0.0073974
-0.242729
0.00788447
-0.236656
0.00835667
-0.2308
0.00881735
-0.22517
0.00926919
-0.219771
0.00971424
-0.214597
0.010154
-0.209643
0.0105895
-0.204898
0.0110213
-0.200352
0.0114499
-0.195996
0.0118755
-0.19182
0.0122985
-0.187816
0.0127198
-0.183977
0.013141
-0.180294
0.0135644
-0.176755
0.0139935
-0.173341
0.0144319
-0.170025
-0.166765
0.0148832
0.000176198
-0.325223
0.000596177
-0.315318
0.00117024
-0.307485
0.00182922
-0.300923
0.00252257
-0.294736
0.00321663
-0.288546
0.00389085
-0.282216
0.00453431
-0.275732
0.00514286
-0.269146
0.00571679
-0.262531
0.00625901
-0.255965
0.00677374
-0.249511
0.00726558
-0.243221
0.00773901
-0.23713
0.008198
-0.231259
0.00864589
-0.225618
0.00908536
-0.22021
0.00951847
-0.215031
0.00994669
-0.210071
0.010371
-0.205322
0.0107921
-0.200773
0.0112102
-0.196414
0.0116256
-0.192236
0.0120387
-0.18823
0.0124502
-0.184389
0.0128617
-0.180705
0.0132757
-0.177169
0.0136957
-0.173761
0.014126
-0.170455
-0.16721
0.0145706
0.000175759
-0.325399
0.000593569
-0.315736
0.00116306
-0.308055
0.00181482
-0.301574
0.0024985
-0.29542
0.00318091
-0.289228
0.00384198
-0.282877
0.00447131
-0.276361
0.00506516
-0.26974
0.00562415
-0.26309
0.00615144
-0.256492
0.00665143
-0.250011
0.00712886
-0.243698
0.00758825
-0.237589
0.00803362
-0.231704
0.00846831
-0.226053
0.00889501
-0.220637
0.00931576
-0.215451
0.00973204
-0.210487
0.0101448
-0.205735
0.0105547
-0.201183
0.0109621
-0.196822
0.0113671
-0.192641
0.0117701
-0.188633
0.0121717
-0.18479
0.0125735
-0.181107
0.012978
-0.177573
0.013389
-0.174172
0.0138113
-0.170877
-0.167648
0.0142495
0.000175061
-0.325574
0.000590456
-0.316151
0.00115508
-0.30862
0.00179925
-0.302218
0.00247287
-0.296094
0.00314321
-0.289898
0.00379076
-0.283524
0.00440557
-0.276976
0.00498432
-0.270318
0.00552798
-0.263634
0.00603996
-0.257004
0.00652483
-0.250496
0.00698745
-0.244161
0.00743239
-0.238034
0.0078637
-0.232135
0.00828474
-0.226474
0.00869819
-0.22105
0.0091061
-0.215859
0.00950994
-0.210891
0.00991072
-0.206136
0.010309
-0.201582
0.0107052
-0.197218
0.0110995
-0.193035
0.0114921
-0.189025
0.0118836
-0.185182
0.0122755
-0.181499
0.0126704
-0.177968
0.0130725
-0.174574
0.0134868
-0.171292
-0.168081
0.013919
0.000174116
-0.325748
0.000586928
-0.316564
0.00114646
-0.309179
0.0017827
-0.302855
0.00244588
-0.296757
0.00310379
-0.290556
0.00373743
-0.284158
0.00433735
-0.277576
0.00490065
-0.270882
0.00542861
-0.264162
0.00592489
-0.2575
0.00639424
-0.250965
0.00684162
-0.244608
0.00727166
-0.238464
0.00768843
-0.232552
0.0080953
-0.226881
0.00849496
-0.22145
0.00888945
-0.216254
0.00928028
-0.211282
0.00966845
-0.206524
0.0100546
-0.201968
0.0104391
-0.197602
0.0108221
-0.193418
0.0112038
-0.189407
0.0115848
-0.185563
0.0119666
-0.181881
0.0123517
-0.178353
0.0127446
-0.174967
0.013151
-0.171698
-0.168507
0.0135773
0.000172949
-0.325921
0.000583098
-0.316974
0.00113735
-0.309733
0.00176539
-0.303483
0.00241781
-0.297409
0.00306293
-0.291202
0.00368231
-0.284777
0.00426699
-0.278161
0.00481446
-0.271429
0.00532635
-0.264674
0.00580656
-0.25798
0.00625999
-0.251419
0.00669168
-0.24504
0.00710635
-0.238879
0.00750806
-0.232954
0.0079002
-0.227273
0.00828545
-0.221835
0.00866586
-0.216634
0.00904296
-0.211659
0.00941779
-0.206899
0.00979104
-0.202341
0.0101631
-0.197974
0.0105341
-0.193789
0.0109043
-0.189777
0.0112742
-0.185933
0.0116453
-0.182252
0.0120202
-0.178728
0.0124034
-0.17535
0.0128014
-0.172096
-0.168927
0.0132217
0.000171609
-0.326093
0.00057912
-0.317382
0.00112799
-0.310282
0.00174757
-0.304102
0.00238892
-0.29805
0.00302093
-0.291834
0.00362573
-0.285382
0.00419483
-0.27873
0.00472614
-0.271961
0.00522161
-0.265169
0.00568536
-0.258444
0.00612246
-0.251856
0.00653803
-0.245456
0.00693683
-0.239277
0.00732292
-0.23334
0.0076997
-0.22765
0.00806985
-0.222205
0.00843542
-0.217
0.00879796
-0.212022
0.00915856
-0.20726
0.00951794
-0.202701
0.00987655
-0.198333
0.0102346
-0.194147
0.0105924
-0.190135
0.0109504
-0.186291
0.01131
-0.182611
0.0116738
-0.179092
0.0120466
-0.175723
0.0124356
-0.172485
-0.169341
0.0128492
0.000170163
-0.326263
0.000575179
-0.317787
0.00111863
-0.310826
0.00172954
-0.304713
0.00235953
-0.29868
0.00297814
-0.292452
0.00356805
-0.285972
0.00412126
-0.279283
0.0046361
-0.272475
0.00511481
-0.265648
0.00556175
-0.258891
0.00598213
-0.252276
0.00638114
-0.245855
0.00676356
-0.23966
0.00713346
-0.23371
0.00749422
-0.228011
0.00784849
-0.22256
0.00819836
-0.21735
0.00854536
-0.212369
0.00889065
-0.207605
0.00923502
-0.203045
0.00957898
-0.198677
0.00992287
-0.194491
0.010267
-0.190479
0.0106118
-0.186636
0.0109587
-0.182958
0.0113103
-0.179443
0.0116715
-0.176085
0.0120503
-0.172864
-0.169747
0.0124564
0.000168728
-0.326432
0.000571525
-0.318189
0.00110956
-0.311364
0.00171161
-0.305315
0.00233
-0.299299
0.00293495
-0.293057
0.00350969
-0.286547
0.00404673
-0.27982
0.0045448
-0.272973
0.00500645
-0.26611
0.00543626
-0.259321
0.00583954
-0.252679
0.00622157
-0.246237
0.00658712
-0.240025
0.00694025
-0.234063
0.00728428
-0.228355
0.00762187
-0.222897
0.00795507
-0.217683
0.00828544
-0.212699
0.00861417
-0.207934
0.00894212
-0.203373
0.00926991
-0.199005
0.00959797
-0.194819
0.00992669
-0.190808
0.0102567
-0.186966
0.0105892
-0.183291
0.0109269
-0.179781
0.011275
-0.176433
0.0116419
-0.173231
-0.170144
0.012039
0.000167495
-0.326599
0.000568477
-0.31859
0.00110118
-0.311896
0.00169421
-0.305908
0.00230076
-0.299905
0.00289179
-0.293648
0.00345111
-0.287106
0.00397172
-0.280341
0.00445276
-0.273455
0.00489708
-0.266554
0.00530947
-0.259733
0.00569534
-0.253065
0.00606001
-0.246601
0.00640823
-0.240374
0.00674402
-0.234399
0.00707065
-0.228681
0.00739071
-0.223217
0.00770621
-0.217998
0.00801873
-0.213012
0.00832946
-0.208244
0.00863933
-0.203683
0.00894907
-0.199314
0.00925925
-0.195129
0.00957039
-0.191119
0.0098832
-0.187278
0.010199
-0.183607
0.0105205
-0.180103
0.0108531
-0.176765
0.0112058
-0.173584
-0.17053
0.0115918
0.000166812
-0.326766
0.000566516
-0.31899
0.00109399
-0.312424
0.00167781
-0.306492
0.00227226
-0.3005
0.00284912
-0.294225
0.00339277
-0.28765
0.00389672
-0.280845
0.00436051
-0.273918
0.0047873
-0.266981
0.00518204
-0.260128
0.00555026
-0.253433
0.00589726
-0.246948
0.00622777
-0.240704
0.00654572
-0.234717
0.0068543
-0.22899
0.00715601
-0.223519
0.00745279
-0.218295
0.00774616
-0.213305
0.00803729
-0.208535
0.00832718
-0.203973
0.00861662
-0.199604
0.00890632
-0.195419
0.009197
-0.191409
0.00948951
-0.187571
0.00978534
-0.183902
0.0100873
-0.180405
0.0104008
-0.177079
0.0107357
-0.173918
-0.170901
0.0111071
0.000167291
-0.326933
0.000566338
-0.319389
0.00108858
-0.312946
0.00166296
-0.307066
0.00224501
-0.301082
0.00280741
-0.294787
0.00333516
-0.288177
0.00382225
-0.281332
0.00426863
-0.274365
0.00467773
-0.26739
0.00505469
-0.260505
0.00540509
-0.253784
0.00573424
-0.247277
0.00604677
-0.241017
0.00634651
-0.235016
0.00663653
-0.22928
0.00691918
-0.223802
0.00719628
-0.218572
0.00746921
-0.213578
0.00773911
-0.208805
0.00800691
-0.20424
0.00827344
-0.19987
0.00853951
-0.195685
0.00880598
-0.191676
0.00907396
-0.187839
0.00934516
-0.184174
0.0096226
-0.180682
0.0099118
-0.177368
0.0102229
-0.17423
-0.171252
0.0105734
0.000169889
-0.327103
0.000568797
-0.319788
0.00108553
-0.313463
0.00165015
-0.307631
0.00221946
-0.301651
0.00276713
-0.295335
0.00327877
-0.288689
0.00374884
-0.281802
0.00417769
-0.274794
0.00456905
-0.267781
0.00492819
-0.260864
0.00526075
-0.254116
0.00557198
-0.247589
0.00586643
-0.241311
0.00614778
-0.235298
0.00641891
-0.229551
0.006682
-0.224065
0.00693864
-0.218829
0.00719006
-0.213829
0.00743721
-0.209052
0.00768087
-0.204484
0.00792178
-0.200111
0.00816072
-0.195924
0.00839859
-0.191914
0.00863664
-0.188077
0.00887686
-0.184414
0.00912262
-0.180928
0.00937965
-0.177625
0.00965837
-0.174508
-0.171573
0.00998012
0.000175645
-0.327279
0.000574651
-0.320187
0.00108526
-0.313973
0.00163981
-0.308186
0.00219612
-0.302208
0.00272877
-0.295868
0.00322408
-0.289184
0.003677
-0.282255
0.00408827
-0.275205
0.0044619
-0.268155
0.00480331
-0.261205
0.00511814
-0.254431
0.0054116
-0.247882
0.0056881
-0.241588
0.00595112
-0.235561
0.00620332
-0.229803
0.00644664
-0.224308
0.00668239
-0.219064
0.00691153
-0.214059
0.00713471
-0.209276
0.00735246
-0.204702
0.00756528
-0.200324
0.00777373
-0.196132
0.00797855
-0.192119
0.00818092
-0.188279
0.00838287
-0.184616
0.00858806
-0.181133
0.00880264
-0.177839
0.0090382
-0.174744
-0.171855
0.0093199
0.000185552
-0.327465
0.000584664
-0.320586
0.00108854
-0.314477
0.00163282
-0.30873
0.00217573
-0.30275
0.00269291
-0.296385
0.00317154
-0.289663
0.00360714
-0.28269
0.00400083
-0.275599
0.00435686
-0.268511
0.00468075
-0.261529
0.00497818
-0.254729
0.00525423
-0.248158
0.00551317
-0.241847
0.00575827
-0.235806
0.00599191
-0.230037
0.0062157
-0.224532
0.00643061
-0.219279
0.00663717
-0.214265
0.00683559
-0.209474
0.00702597
-0.204892
0.00720834
-0.200507
0.00738288
-0.196307
0.00755002
-0.192286
0.00771067
-0.18844
0.0078668
-0.184772
0.00802221
-0.181288
0.00818363
-0.178001
0.00836468
-0.174925
-0.172076
0.00858553
0.000202869
-0.327667
0.000601427
-0.320985
0.00109789
-0.314974
0.00163076
-0.309263
0.00215913
-0.303279
0.00265996
-0.296886
0.0031214
-0.290124
0.00353948
-0.283109
0.00391564
-0.275975
0.0042543
-0.26885
0.00456108
-0.261836
0.0048416
-0.255009
0.00510089
-0.248417
0.00534301
-0.242089
0.00557103
-0.236034
0.00578701
-0.230253
0.00599221
-0.224737
0.00618714
-0.219474
0.00637175
-0.21445
0.00654559
-0.209648
0.00670786
-0.205054
0.00685765
-0.200656
0.00699409
-0.196443
0.0071166
-0.192408
0.00722536
-0.188549
0.00732222
-0.184869
0.00741156
-0.181378
0.00749998
-0.178089
0.00759854
-0.175023
-0.172195
0.00771747
0.000240496
-0.327908
0.000631925
-0.321376
0.00111743
-0.315459
0.00163449
-0.30978
0.00214628
-0.303791
0.00262975
-0.297369
0.0030735
-0.290568
0.00347398
-0.283509
0.00383279
-0.276333
0.00415447
-0.269171
0.00444469
-0.262126
0.00470904
-0.255273
0.00495245
-0.248661
0.00517883
-0.242315
0.00539104
-0.236246
0.0055909
-0.230453
0.00577931
-0.224926
0.00595635
-0.219651
0.00612136
-0.214615
0.00627303
-0.2098
0.00640934
-0.205191
0.00652761
-0.200775
0.00662447
-0.19654
0.00669606
-0.19248
0.00673861
-0.188591
0.00674995
-0.18488
0.00673114
-0.181359
0.00668632
-0.178044
0.00662165
-0.174959
-0.172141
0.00656734
0.000323952
-0.328232
0.000716366
-0.321768
0.00114572
-0.315889
0.00164171
-0.310276
0.00213562
-0.304284
0.00260137
-0.297835
0.00302744
-0.290994
0.00341052
-0.283892
0.00375238
-0.276675
0.00405765
-0.269477
0.00433202
-0.262401
0.00458109
-0.255523
0.0048097
-0.248889
0.00502168
-0.242527
0.00521973
-0.236444
0.0054055
-0.230638
0.00557969
-0.2251
0.0057421
-0.219814
0.00589174
-0.214764
0.00602674
-0.209935
0.00614424
-0.205308
0.00624006
-0.20087
0.00630818
-0.196608
0.00634005
-0.192512
0.00632373
-0.188575
0.006243
-0.184799
0.00607685
-0.181193
0.00580228
-0.17777
0.00541392
-0.17457
-0.171854
0.0051275
0.332103
0.000221117
-0.332324
0.331929
0.000173531
0.331777
0.000152119
0.331635
0.00014229
0.331498
0.000136797
0.331364
0.000133729
0.331232
0.000132459
0.3311
0.000132377
0.330967
0.000132924
0.330833
0.000133759
0.330698
0.000134688
0.330563
0.000135605
0.330426
0.000136463
0.330289
0.000137227
0.330151
0.000137888
0.330013
0.000138438
0.329874
0.00013888
0.329735
0.000139217
0.329595
0.00013944
0.329456
0.000139547
0.329316
0.00013951
0.329177
0.0001393
0.329038
0.000138791
0.3289
0.000137929
0.328764
0.000136154
0.32863
0.000133529
0.328503
0.000126924
0.328385
0.00011842
0.328296
8.8874e-05
6.42684e-05
0.330207
0.000448517
-0.330434
0.32996
0.000420294
0.329707
0.000405396
0.329449
0.000399674
0.329188
0.000397935
0.328924
0.000398194
0.328656
0.000399994
0.328386
0.000402985
0.328112
0.000406731
0.327835
0.000410854
0.327554
0.000415118
0.32727
0.000419377
0.326983
0.000423524
0.326693
0.0004275
0.3264
0.000431257
0.326103
0.000434767
0.325804
0.000438016
0.325502
0.000440992
0.325198
0.000443675
0.324892
0.000446047
0.324583
0.000448053
0.324273
0.000449635
0.323961
0.000450595
0.323648
0.000450792
0.323335
0.000449531
0.323022
0.000446701
0.322709
0.000439547
0.322398
0.000429334
0.322082
0.000405102
0.00037767
0.326169
0.000655785
-0.326376
0.325931
0.000658085
0.325676
0.000660826
0.325408
0.000667168
0.32513
0.00067607
0.324842
0.000686226
0.324545
0.000697127
0.324239
0.000708575
0.323926
0.000720353
0.323604
0.000732214
0.323275
0.00074395
0.322939
0.000755421
0.322596
0.000766532
0.322247
0.000777213
0.321891
0.000787424
0.321528
0.000797135
0.32116
0.000806328
0.320786
0.000814998
0.320406
0.000823125
0.320022
0.000830694
0.319632
0.000837657
0.319238
0.000843944
0.318839
0.000849379
0.318436
0.00085381
0.318029
0.000856709
0.317618
0.000857905
0.317201
0.000855973
0.316779
0.000851591
0.316342
0.000841724
0.000831335
0.320613
0.000833364
-0.32079
0.320418
0.000852892
0.320205
0.000873764
0.319976
0.000895819
0.319734
0.000918992
0.319477
0.000942764
0.319207
0.000966729
0.318925
0.00099068
0.318631
0.00101444
0.318326
0.00103783
0.318009
0.00106068
0.317681
0.00108288
0.317344
0.00110433
0.316996
0.00112499
0.316638
0.00114482
0.316272
0.00116382
0.315896
0.00118198
0.315512
0.0011993
0.315119
0.00121579
0.314718
0.00123146
0.31431
0.00124629
0.313893
0.00126024
0.31347
0.00127321
0.313038
0.00128509
0.312599
0.00129557
0.312153
0.00130454
0.311697
0.00131129
0.311233
0.00131594
0.310758
0.00131682
0.00131351
0.313709
0.000943057
-0.313819
0.313579
0.00098319
0.31343
0.00102314
0.313262
0.00106321
0.313078
0.00110335
0.312877
0.00114335
0.312661
0.00118293
0.31243
0.00122194
0.312184
0.00126021
0.311924
0.00129762
0.311651
0.00133404
0.311364
0.00136938
0.311065
0.00140357
0.310753
0.00143659
0.31043
0.0014684
0.310095
0.00149902
0.309748
0.00152845
0.309391
0.00155674
0.309023
0.0015839
0.308644
0.00160999
0.308255
0.00163502
0.307857
0.00165902
0.307448
0.00168196
0.307029
0.00170382
0.3066
0.00172446
0.306161
0.00174384
0.305711
0.00176158
0.305249
0.00177768
0.304774
0.00179138
0.00180341
0.30593
0.000989046
-0.305976
0.305864
0.00104999
0.305777
0.00110971
0.305672
0.00116864
0.305548
0.00122682
0.305407
0.00128416
0.30525
0.00134051
0.305076
0.00139575
0.304886
0.00144978
0.304681
0.00150249
0.304462
0.00155379
0.304227
0.0016036
0.303979
0.00165189
0.303717
0.00169862
0.303442
0.0017438
0.303153
0.00178744
0.302852
0.00182957
0.302539
0.00187025
0.302213
0.00190955
0.301875
0.00194754
0.301526
0.0019843
0.301165
0.00201991
0.300793
0.00205444
0.300409
0.00208794
0.300013
0.00212044
0.299605
0.00215197
0.299184
0.00218244
0.298749
0.00221201
0.2983
0.00224051
0.00226874
0.297695
0.000982158
-0.297688
0.297682
0.0010632
0.297649
0.00114244
0.297598
0.00122014
0.297528
0.00129642
0.297441
0.00137129
0.297337
0.00144467
0.297216
0.00151648
0.297079
0.00158665
0.296927
0.00165508
0.296759
0.00172172
0.296576
0.00178651
0.296378
0.00184941
0.296167
0.00191041
0.295941
0.00196952
0.295702
0.00202676
0.295449
0.00208221
0.295183
0.00213593
0.294905
0.00218803
0.294614
0.00223862
0.29431
0.00228784
0.293994
0.00233583
0.293666
0.00238274
0.293325
0.00242875
0.292972
0.00247397
0.292605
0.0025186
0.292225
0.00256273
0.29183
0.00260666
0.29142
0.00265043
0.00269466
0.289333
0.000935286
-0.289286
0.289361
0.00103544
0.28937
0.00113339
0.289361
0.00122928
0.289334
0.00132322
0.28929
0.00141529
0.289229
0.00150545
0.289152
0.00159363
0.289059
0.00167977
0.28895
0.0017638
0.288826
0.00184568
0.288687
0.00192536
0.288534
0.00200282
0.288366
0.00207804
0.288185
0.00215106
0.28799
0.00222192
0.287781
0.00229069
0.28756
0.00235749
0.287325
0.00242243
0.287078
0.00248569
0.286819
0.00254745
0.286547
0.00260793
0.286262
0.00266737
0.285965
0.00272603
0.285654
0.00278417
0.285331
0.0028421
0.284994
0.00290005
0.284642
0.00295841
0.284275
0.00301736
0.00307745
0.281082
0.000861037
-0.281008
0.281138
0.000979253
0.281177
0.00109498
0.281198
0.00120824
0.281202
0.00131918
0.281189
0.00142783
0.281161
0.0015342
0.281116
0.00163823
0.281056
0.00173985
0.280981
0.00183903
0.280891
0.0019357
0.280786
0.00202984
0.280668
0.00212144
0.280535
0.00221049
0.280389
0.00229702
0.28023
0.0023811
0.280058
0.00246281
0.279873
0.00254229
0.279676
0.00261969
0.279466
0.00269524
0.279244
0.00276917
0.279011
0.00284177
0.278765
0.00291337
0.278506
0.00298434
0.278235
0.00305504
0.277952
0.00312591
0.277654
0.00319731
0.277343
0.00326973
0.277017
0.00334347
0.00341905
0.273096
0.000770342
-0.273006
0.27317
0.000905653
0.273227
0.00103821
0.273267
0.001168
0.273291
0.00129513
0.273299
0.00141964
0.273292
0.00154152
0.273269
0.00166072
0.273232
0.00177719
0.27318
0.00189087
0.273114
0.00200173
0.273034
0.00210973
0.272941
0.00221485
0.272834
0.00231712
0.272715
0.00241656
0.272582
0.00251325
0.272438
0.00260728
0.272281
0.00269881
0.272113
0.00278803
0.271933
0.00287521
0.271742
0.00296063
0.271539
0.00304466
0.271324
0.00312772
0.271098
0.00321027
0.270861
0.00329282
0.270611
0.00337591
0.270348
0.00346005
0.270072
0.00354583
0.269782
0.00363368
0.00372411
0.265462
0.00067181
-0.265363
0.265544
0.000823355
0.26561
0.000971904
0.265661
0.00111741
0.265696
0.00125996
0.265716
0.00139958
0.265721
0.00153625
0.265712
0.00166993
0.265689
0.00180055
0.265652
0.00192806
0.265601
0.00205243
0.265537
0.00217362
0.26546
0.00229161
0.265371
0.00240642
0.265269
0.00251807
0.265156
0.00262666
0.265031
0.00273228
0.264895
0.00283511
0.264747
0.00293537
0.264589
0.00303336
0.26442
0.00312943
0.264241
0.00322401
0.264051
0.0033176
0.263851
0.0034108
0.263639
0.00350423
0.263417
0.00359858
0.263182
0.00369451
0.262935
0.00379275
0.262675
0.00389385
0.00399836
0.258216
0.00057183
-0.258116
0.2583
0.000738797
0.25837
0.000902593
0.258424
0.0010631
0.258464
0.00122035
0.258489
0.0013744
0.2585
0.00152519
0.258497
0.00167268
0.258481
0.00181681
0.258451
0.00195752
0.258409
0.00209475
0.258354
0.00222848
0.258287
0.00235867
0.258208
0.00248534
0.258118
0.00260852
0.258016
0.00272829
0.257904
0.00284475
0.257781
0.0029581
0.257647
0.00306857
0.257504
0.00317649
0.257351
0.00328227
0.257189
0.00338642
0.257017
0.00348953
0.256836
0.0035923
0.256644
0.0036955
0.256443
0.00379999
0.256231
0.00390662
0.256007
0.00401625
0.255772
0.00412963
0.00424737
0.251364
0.000474697
-0.251266
0.251446
0.00065642
0.251514
0.000834805
0.251567
0.00100968
0.251606
0.00118105
0.251632
0.00134891
0.251644
0.00151324
0.251643
0.00167396
0.251628
0.00183102
0.251602
0.00198433
0.251563
0.00213385
0.251511
0.00227952
0.251449
0.00242132
0.251375
0.00255923
0.25129
0.00269329
0.251195
0.00282356
0.251089
0.00295015
0.250974
0.00307326
0.25085
0.00319313
0.250716
0.00331011
0.250574
0.00342466
0.250423
0.00353735
0.250263
0.00364888
0.250096
0.00376007
0.249919
0.00387185
0.249734
0.00398526
0.249539
0.00410137
0.249334
0.00422125
0.249118
0.00434587
0.00447597
0.24489
0.000383111
-0.244798
0.244967
0.000578926
0.245031
0.000771371
0.24508
0.00096012
0.245116
0.00114509
0.245139
0.00132627
0.245149
0.00150363
0.245145
0.0016771
0.24513
0.00184659
0.245102
0.00201202
0.245063
0.00217332
0.245012
0.00233044
0.24495
0.00248331
0.244877
0.00263193
0.244794
0.0027763
0.244701
0.00291647
0.244599
0.00305255
0.244487
0.00318471
0.244367
0.00331321
0.244239
0.00343842
0.244103
0.00356082
0.243959
0.00368104
0.243808
0.00379988
0.24365
0.00391829
0.243484
0.00403738
0.243311
0.00415841
0.24313
0.0042827
0.24294
0.00441161
0.242739
0.00454637
0.00468793
0.238769
0.000297924
-0.238684
0.23884
0.0005078
0.238898
0.000713935
0.238942
0.000916112
0.238973
0.00111426
0.23899
0.00130836
0.238996
0.00149835
0.238989
0.00168416
0.23897
0.00186568
0.238939
0.00204282
0.238897
0.0022155
0.238843
0.00238363
0.23878
0.00254715
0.238706
0.00270602
0.238622
0.00286022
0.238528
0.00300978
0.238426
0.00315478
0.238315
0.00329538
0.238197
0.00343182
0.238071
0.00356447
0.237938
0.00369384
0.237798
0.00382061
0.237652
0.00394565
0.237501
0.00407005
0.237343
0.00419513
0.237179
0.00432238
0.237008
0.00445346
0.23683
0.00459007
0.236642
0.00473382
0.00488594
0.232971
0.000219654
-0.232893
0.233035
0.00044367
0.233086
0.000663192
0.233124
0.000878438
0.233149
0.00108942
0.233161
0.00129611
0.233161
0.00149841
0.233149
0.00169623
0.233125
0.00188946
0.23309
0.00207798
0.233044
0.00226171
0.232987
0.00244053
0.23292
0.00261435
0.232842
0.00278311
0.232756
0.00294675
0.23266
0.00310527
0.232556
0.00325873
0.232445
0.00340723
0.232325
0.003551
0.2322
0.00369039
0.232067
0.00382592
0.23193
0.00395827
0.231787
0.00408841
0.23164
0.00421755
0.231487
0.00434722
0.231331
0.00447921
0.231168
0.00461556
0.231
0.00475841
0.230824
0.00490987
0.00507162
0.227466
0.000148926
-0.227395
0.227523
0.000386625
0.227567
0.000619253
0.227598
0.000847289
0.227617
0.00107084
0.227623
0.00128983
0.227617
0.00150418
0.2276
0.00171375
0.227571
0.00191843
0.227531
0.0021181
0.22748
0.00231262
0.227418
0.00250187
0.227347
0.00268573
0.227266
0.00286409
0.227176
0.00303687
0.227077
0.00320402
0.22697
0.00336555
0.226856
0.00352152
0.226735
0.00367211
0.226608
0.00381761
0.226475
0.00395853
0.226338
0.00409557
0.226197
0.00422972
0.226052
0.00436232
0.225904
0.00449511
0.225753
0.0046302
0.225598
0.00477012
0.225439
0.00491756
0.225274
0.0050753
0.00524563
0.222225
8.5186e-05
-0.222161
0.222275
0.000336432
0.222312
0.000581845
0.222337
0.000822445
0.22235
0.00105834
0.22235