/*--------------------------------*- C++ -*----------------------------------*\
| =========                 |                                                 |
| \\      /  F ield         | OpenFOAM: The Open Source CFD Toolbox           |
|  \\    /   O peration     | Version:  v1912                                 |
|   \\  /    A nd           | Website:  www.openfoam.com                      |
|    \\/     M anipulation  |                                                 |
\*---------------------------------------------------------------------------*/
FoamFile
{
    version     2.0;
    format      ascii;
    class       volVectorField;
    location    "25";
    object      U;
}
// * * * * * * * * * * * * * * * * * * * * * * * * * * * * * * * * * * * * * //

dimensions      [0 1 -1 0 0 0 0];


internalField   nonuniform List<vector> 
19200
(
(0.635981 -19.3743 -8.02436e-20)
(0.141263 -18.5807 0)
(0.335676 -17.9704 0)
(0.333708 -17.495 0)
(0.373279 -17.0831 0)
(0.418425 -16.7001 0)
(0.459028 -16.3278 -1.58455e-20)
(0.496237 -15.9577 1.554e-20)
(0.530018 -15.5869 0)
(0.560157 -15.216 0)
(0.586823 -14.847 -2.28331e-20)
(0.610369 -14.4824 1.31932e-21)
(0.631187 -14.1247 2.0705e-20)
(0.649673 -13.7756 0)
(0.666191 -13.4368 1.67346e-20)
(0.681065 -13.1091 -9.12081e-22)
(0.694568 -12.7931 -1.5256e-20)
(0.706926 -12.4891 0)
(0.718323 -12.1969 0)
(0.728905 -11.9164 0)
(0.73879 -11.6471 0)
(0.748076 -11.3887 0)
(0.756845 -11.1406 9.45389e-21)
(0.765176 -10.9022 -9.30293e-21)
(0.773143 -10.6729 0)
(0.780809 -10.4518 0)
(0.788213 -10.2379 -1.45116e-20)
(0.795495 -10.0301 1.42914e-20)
(0.80299 -9.82664 0)
(0.809736 -9.62581 0)
(1.1424 -19.3585 -1.05127e-19)
(0.629774 -18.5948 5.30269e-20)
(0.808474 -17.9913 0)
(0.794048 -17.5229 0)
(0.822704 -17.1139 0)
(0.857501 -16.7315 0)
(0.887879 -16.3583 -1.298e-19)
(0.914837 -15.9863 6.25505e-20)
(0.938317 -15.6132 -1.86111e-21)
(0.958142 -15.2398 -3.20276e-21)
(0.974559 -14.8684 -9.48507e-20)
(0.987998 -14.5017 8.75839e-20)
(0.998926 -14.1419 -4.1689e-20)
(1.00779 -13.7912 0)
(1.015 -13.4509 0)
(1.0209 -13.122 0)
(1.02577 -12.805 0)
(1.02984 -12.5001 0)
(1.03329 -12.2073 0)
(1.03626 -11.9262 0)
(1.03884 -11.6564 -2.25289e-20)
(1.04112 -11.3976 0)
(1.04316 -11.1491 -3.81463e-20)
(1.04503 -10.9104 3.75371e-20)
(1.04678 -10.6809 -3.33839e-20)
(1.04846 -10.4598 3.28642e-20)
(1.05005 -10.2459 0)
(1.05172 -10.0381 2.74859e-20)
(1.05388 -9.83477 -2.70739e-20)
(1.05523 -9.63401 2.54656e-20)
(1.64965 -19.3307 -2.16595e-19)
(1.11883 -18.5964 -9.82126e-20)
(1.28235 -17.9995 5.92109e-21)
(1.25585 -17.5384 8.85473e-20)
(1.27374 -17.1326 0)
(1.29823 -16.7508 -1.39607e-19)
(1.31836 -16.3769 7.4564e-20)
(1.33498 -16.0033 1.25872e-19)
(1.34804 -15.6281 -5.65946e-20)
(1.35743 -15.2526 -1.00266e-19)
(1.36347 -14.8791 9.83893e-20)
(1.36669 -14.5104 0)
(1.36762 -14.149 -7.90802e-20)
(1.36678 -13.7968 7.76493e-20)
(1.3646 -13.4553 -7.0064e-20)
(1.36146 -13.1255 0)
(1.35765 -12.8078 0)
(1.35339 -12.5023 0)
(1.34886 -12.209 0)
(1.34417 -11.9275 9.45183e-20)
(1.33942 -11.6575 -7.04214e-20)
(1.33467 -11.3984 8.23339e-20)
(1.32997 -11.1498 -8.10022e-20)
(1.32535 -10.911 -7.197e-20)
(1.32087 -10.6815 1.38205e-19)
(1.31654 -10.4604 -1.29433e-19)
(1.31232 -10.2467 6.21421e-20)
(1.30837 -10.0391 0)
(1.30517 -9.83601 2.68029e-20)
(1.30106 -9.6355 0)
(2.15544 -19.29 -4.2432e-19)
(1.60759 -18.5853 2.14357e-19)
(1.7567 -17.9951 -1.81714e-19)
(1.71871 -17.5416 1.15707e-20)
(1.72602 -17.1391 1.63257e-19)
(1.74026 -16.7582 0)
(1.75011 -16.3838 0)
(1.75631 -16.0087 0)
(1.75884 -15.6318 3.35107e-19)
(1.75767 -15.2543 -6.46835e-21)
(1.75322 -14.879 -9.90063e-20)
(1.74612 -14.5086 -1.72097e-19)
(1.73697 -14.1458 1.68947e-19)
(1.72634 -13.7925 1.47451e-19)
(1.71472 -13.4501 -7.47509e-20)
(1.70248 -13.1196 0)
(1.68994 -12.8014 0)
(1.67732 -12.4956 0)
(1.66478 -12.2021 0)
(1.65241 -11.9204 0)
(1.64031 -11.6503 8.88781e-20)
(1.62851 -11.3912 -8.74222e-20)
(1.61704 -11.1426 0)
(1.60594 -10.9039 -7.2588e-20)
(1.59522 -10.6746 1.39407e-19)
(1.58486 -10.4537 -1.30587e-19)
(1.57483 -10.2403 6.27033e-20)
(1.56526 -10.0331 5.60326e-20)
(1.55672 -9.83036 -1.34619e-19)
(1.54711 -9.63026 -4.95157e-20)
(2.66034 -19.2366 2.17415e-19)
(2.09639 -18.5616 4.09963e-19)
(2.23148 -17.9783 3.78849e-19)
(2.18235 -17.5325 1.67499e-19)
(2.17926 -17.1334 3.07935e-19)
(2.18327 -16.7535 4.4795e-22)
(2.1828 -16.3787 2.77461e-19)
(2.17851 -16.0025 3.74687e-19)
(2.1704 -15.624 1.1453e-19)
(2.15856 -15.2448 2.0988e-19)
(2.14352 -14.868 6.24593e-21)
(2.12599 -14.4963 1.83941e-19)
(2.10668 -14.1324 5.20638e-21)
(2.08619 -13.7782 4.58952e-19)
(2.06507 -13.4353 -4.25425e-19)
(2.0437 -13.1043 2.67009e-19)
(2.0224 -12.7859 0)
(2.00139 -12.48 0)
(1.98081 -12.1864 1.0606e-19)
(1.96075 -11.9049 0)
(1.94128 -11.6349 9.22355e-20)
(1.92242 -11.3759 8.36688e-20)
(1.90419 -11.1275 -8.23156e-20)
(1.88659 -10.8891 7.5325e-20)
(1.86962 -10.66 0)
(1.85325 -10.4395 0)
(1.83741 -10.2266 6.19743e-20)
(1.82225 -10.02 5.81577e-20)
(1.80837 -9.81777 5.16316e-20)
(1.79324 -9.61828 -1.09969e-19)
(3.16384 -19.1702 -2.19047e-19)
(2.58486 -18.5253 -4.09962e-19)
(2.70634 -17.9489 -5.62603e-19)
(2.64643 -17.5109 -1.56778e-19)
(2.6331 -17.1154 -2.97394e-19)
(2.62693 -16.7367 1.07484e-20)
(2.6161 -16.3617 -2.68828e-19)
(2.60122 -15.9846 -2.47302e-19)
(2.58238 -15.6047 -2.27709e-19)
(2.55976 -15.2242 -4.14132e-19)
(2.53403 -14.8461 1.30351e-20)
(2.506 -14.4734 3.65048e-19)
(2.47644 -14.1087 -1.60225e-19)
(2.44605 -13.754 1.59307e-19)
(2.41537 -13.4107 4.23489e-19)
(2.38484 -13.0796 -1.35236e-19)
(2.35475 -12.7612 0)
(2.32533 -12.4554 1.14692e-19)
(2.29671 -12.1621 2.08125e-19)
(2.26896 -11.8808 -2.97693e-19)
(2.24212 -11.6112 9.79361e-20)
(2.21619 -11.3526 2.55437e-19)
(2.19119 -11.1046 7.29286e-20)
(2.16709 -10.8666 -3.02172e-19)
(2.14389 -10.638 2.1637e-19)
(2.12152 -10.418 0)
(2.09988 -10.2057 5.32117e-22)
(2.07914 -9.99972 1.14626e-19)
(2.05996 -9.79824 -2.69379e-21)
(2.03931 -9.59954 1.06023e-19)
(3.66571 -19.0909 4.19152e-19)
(3.0728 -18.4763 -4.35398e-19)
(3.18104 -17.907 0)
(3.11066 -17.4769 -3.50837e-19)
(3.08724 -17.0851 -3.10999e-19)
(3.07089 -16.7077 -2.76624e-19)
(3.04966 -16.3327 2.80214e-19)
(3.02412 -15.9548 0)
(2.99445 -15.574 -2.30349e-19)
(2.96096 -15.1924 0)
(2.92445 -14.8133 -3.90781e-19)
(2.88583 -14.4398 -3.61038e-19)
(2.84598 -14.0746 -1.66471e-19)
(2.80563 -13.7197 -1.54159e-19)
(2.76536 -13.3763 1.35978e-19)
(2.72563 -13.0454 -4.06645e-19)
(2.68675 -12.7273 0)
(2.64891 -12.4219 -1.14692e-19)
(2.61223 -12.1291 7.40322e-22)
(2.57678 -11.8483 -9.95759e-20)
(2.54258 -11.5792 0)
(2.5096 -11.3211 8.31341e-20)
(2.47783 -11.0737 -2.48323e-19)
(2.44725 -10.8363 5.92458e-22)
(2.41782 -10.6083 6.82713e-20)
(2.38946 -10.389 -6.53064e-21)
(2.36205 -10.1775 -6.85656e-20)
(2.33579 -9.97239 -2.94529e-19)
(2.31134 -9.77178 5.82882e-20)
(2.28518 -9.57408 0)
(4.16559 -18.9985 -1.05611e-21)
(3.55988 -18.4145 0)
(3.65525 -17.8525 -3.71499e-19)
(3.57472 -17.4305 1.06769e-18)
(3.54134 -17.0423 -1.09765e-20)
(3.51484 -16.6664 2.86551e-19)
(3.48315 -16.2917 5.37622e-19)
(3.44687 -15.9133 -1.59462e-20)
(3.40627 -15.5317 -8.20651e-21)
(3.36182 -15.1493 2.0664e-19)
(3.31445 -14.7696 -3.884e-19)
(3.26518 -14.3957 5.55582e-19)
(3.21498 -14.0303 -3.26477e-19)
(3.16463 -13.6753 3.2057e-19)
(3.11475 -13.3323 -2.80669e-19)
(3.06581 -13.0018 1.50185e-20)
(3.01812 -12.6842 2.56144e-19)
(2.97186 -12.3795 0)
(2.92714 -12.0873 1.02739e-19)
(2.884 -11.8073 -2.06758e-19)
(2.84243 -11.5389 1.83168e-19)
(2.80241 -11.2816 -8.97627e-21)
(2.76389 -11.0349 -1.68423e-19)
(2.72684 -10.7983 -7.65196e-20)
(2.6912 -10.5711 0)
(2.65689 -10.3527 6.77221e-20)
(2.62374 -10.1421 0)
(2.59199 -9.93797 0)
(2.56233 -9.7384 0)
(2.53069 -9.54189 0)
(4.66317 -18.8932 -8.9214e-19)
(4.04579 -18.3399 8.37178e-19)
(4.12866 -17.7854 -7.73935e-19)
(4.03827 -17.3715 -3.52717e-19)
(3.99505 -16.9872 9.29442e-21)
(3.95841 -16.6129 1.08566e-20)
(3.91622 -16.2386 -2.7338e-19)
(3.86912 -15.86 0)
(3.81752 -15.4778 0)
(3.76202 -15.0949 -1.38422e-20)
(3.70371 -14.7149 -4.07829e-19)
(3.64374 -14.3408 7.21098e-19)
(3.58314 -13.9756 -1.98924e-20)
(3.52276 -13.621 -3.2247e-19)
(3.46326 -13.2785 2.91189e-19)
(3.40511 -12.9487 -2.62339e-19)
(3.3486 -12.632 5.0174e-19)
(3.29393 -12.3281 -2.39774e-19)
(3.24118 -12.0369 0)
(3.19036 -11.7578 5.79539e-21)
(3.14146 -11.4904 9.78059e-21)
(3.09441 -11.2341 4.04779e-21)
(3.04916 -10.9883 0)
(3.00566 -10.7526 0)
(2.96384 -10.5264 0)
(2.9236 -10.3089 -6.77221e-20)
(2.88475 -10.0994 0)
(2.84755 -9.89648 2.34116e-19)
(2.81275 -9.69811 -1.04978e-20)
(2.77566 -9.50303 -4.45838e-19)
(5.1581 -18.775 1.33767e-18)
(4.53019 -18.2526 -4.2938e-19)
(4.60093 -17.7057 -4.0361e-19)
(4.50098 -17.2999 0)
(4.44805 -16.9196 0)
(4.40127 -16.5471 0)
(4.34854 -16.1734 0)
(4.29054 -15.7948 -1.00015e-18)
(4.22785 -15.4124 4.82313e-19)
(4.16124 -15.0293 4.2945e-19)
(4.09192 -14.6492 0)
(4.02119 -14.2754 -3.66299e-19)
(3.95016 -13.9105 -3.30312e-19)
(3.87974 -13.5566 1.81824e-20)
(3.81061 -13.215 9.49039e-21)
(3.74324 -12.8862 -2.63955e-19)
(3.67794 -12.5705 2.59349e-19)
(3.61487 -12.2678 -2.28618e-19)
(3.55411 -11.9778 2.24727e-19)
(3.49564 -11.6999 -2.0332e-19)
(3.43941 -11.4336 -1.91106e-19)
(3.38536 -11.1784 5.24704e-19)
(3.33341 -10.9338 -5.08797e-19)
(3.28349 -10.6992 3.04382e-19)
(3.23552 -10.4741 -2.99583e-19)
(3.18938 -10.2578 0)
(3.14488 -10.0496 0)
(3.10229 -9.84795 -1.21244e-19)
(3.0624 -9.65094 0)
(3.01992 -9.4575 -3.32558e-19)
(5.65005 -18.6439 -4.71884e-19)
(5.01274 -18.1524 -3.41639e-20)
(5.07174 -17.6133 3.76183e-19)
(4.96251 -17.2157 -3.45968e-19)
(4.89997 -16.8395 -3.18353e-19)
(4.84307 -16.4689 6.04106e-19)
(4.77974 -16.0961 -1.84349e-20)
(4.71079 -15.7177 -5.12465e-19)
(4.63693 -15.3354 4.84843e-19)
(4.55912 -14.9525 4.20135e-19)
(4.47876 -14.5726 -8.12948e-19)
(4.39723 -14.1993 3.7033e-19)
(4.31575 -13.8352 -3.42707e-19)
(4.23527 -13.4823 0)
(4.1565 -13.1417 0)
(4.07993 -12.8142 -5.39158e-19)
(4.00585 -12.4999 2.68326e-19)
(3.93442 -12.1986 -2.24167e-19)
(3.86566 -11.91 1.16593e-20)
(3.79957 -11.6335 4.90278e-21)
(3.73605 -11.3686 3.83468e-19)
(3.67504 -11.1148 1.69878e-19)
(3.61641 -10.8715 -1.76939e-19)
(3.5601 -10.6381 0)
(3.50602 -10.4143 2.87418e-19)
(3.45402 -10.1994 -1.44398e-19)
(3.40391 -9.99252 0)
(3.356 -9.7924 1.21244e-19)
(3.31108 -9.59693 3.38565e-19)
(3.26328 -9.40534 -1.18956e-19)
(6.13866 -18.4999 4.25403e-19)
(5.49311 -18.0395 -3.42388e-20)
(5.54073 -17.5082 -2.44917e-20)
(5.4225 -17.1189 -3.7163e-19)
(5.35047 -16.7469 6.575e-19)
(5.28345 -16.3784 -1.19094e-18)
(5.20949 -16.0066 1.13083e-18)
(5.12951 -15.6288 4.96813e-19)
(5.04441 -15.2469 -2.952e-20)
(4.95536 -14.8643 -2.68126e-20)
(4.8639 -14.4851 -1.37483e-20)
(4.77154 -14.1126 -9.60725e-21)
(4.67959 -13.7496 -3.45412e-19)
(4.58906 -13.398 1.83165e-20)
(4.50067 -13.0588 1.66951e-20)
(4.41491 -12.7329 5.5595e-19)
(4.33208 -12.4202 -2.54443e-19)
(4.2523 -12.1205 2.3688e-19)
(4.1756 -11.8336 4.31646e-19)
(4.10191 -11.5587 -2.18419e-19)
(4.03115 -11.2955 -1.92362e-19)
(3.9632 -11.0432 1.79824e-19)
(3.89794 -10.8013 0)
(3.83528 -10.5695 -3.08738e-19)
(3.77512 -10.3471 1.43829e-20)
(3.71731 -10.1336 1.46435e-19)
(3.66165 -9.92834 2.55095e-19)
(3.60846 -9.72987 -2.51223e-19)
(3.55861 -9.53611 1.10647e-19)
(3.50556 -9.3466 -1.00518e-20)
(6.62361 -18.3431 2.26328e-18)
(5.97093 -17.9138 4.39722e-19)
(6.00755 -17.3904 -3.56394e-19)
(5.8806 -17.0095 7.46856e-19)
(5.79919 -16.6418 1.30562e-18)
(5.72206 -16.2756 -1.90365e-20)
(5.63743 -15.9051 0)
(5.54636 -15.5281 0)
(5.44997 -15.1468 0)
(5.34962 -14.765 4.38437e-19)
(5.24702 -14.3867 0)
(5.14381 -14.0154 0)
(5.04139 -13.6538 3.46344e-19)
(4.9408 -13.3037 -3.11327e-19)
(4.84281 -12.9663 5.94769e-19)
(4.7479 -12.6421 -5.60608e-19)
(4.65635 -12.3313 7.5727e-19)
(4.56827 -12.0336 -2.51603e-19)
(4.48365 -11.7486 2.23437e-19)
(4.40242 -11.4756 -4.05411e-19)
(4.32445 -11.2141 9.72324e-19)
(4.24961 -10.9636 -3.72636e-19)
(4.17776 -10.7235 5.02239e-19)
(4.10879 -10.4932 -1.75313e-19)
(4.0426 -10.2725 -1.56202e-19)
(3.97903 -10.0607 1.4052e-19)
(3.91786 -9.85707 3.88927e-19)
(3.85949 -9.6604 -2.53067e-19)
(3.80477 -9.46851 1.16585e-19)
(3.74658 -9.2813 -1.09843e-19)
(7.10455 -18.1737 3.88602e-21)
(6.44587 -17.7753 3.91385e-21)
(6.47185 -17.2599 7.92924e-19)
(6.33647 -16.8875 -7.0212e-19)
(6.24577 -16.5242 2.43169e-20)
(6.15855 -16.1605 -6.10062e-19)
(6.0632 -15.7915 -5.4499e-19)
(5.96099 -15.4155 1.05309e-18)
(5.85325 -15.0351 0)
(5.74156 -14.6544 -4.38438e-19)
(5.62779 -14.2774 -3.94053e-19)
(5.51373 -13.9076 3.86757e-19)
(5.40084 -13.5477 -3.46345e-19)
(5.29022 -13.1995 0)
(5.18266 -12.8641 -2.81734e-19)
(5.07863 -12.5421 8.47582e-19)
(4.9784 -12.2335 -2.57379e-19)
(4.88206 -11.9379 4.6972e-19)
(4.78957 -11.655 -1.12068e-18)
(4.70084 -11.3841 8.37373e-19)
(4.61571 -11.1247 -9.77093e-19)
(4.53402 -10.8761 3.74949e-19)
(4.45563 -10.6379 -1.70492e-19)
(4.3804 -10.4095 -1.5321e-19)
(4.30823 -10.1905 1.54807e-20)
(4.23895 -9.98048 4.23938e-19)
(4.17235 -9.77876 -5.29167e-19)
(4.10885 -9.58406 2.54879e-19)
(4.04937 -9.3942 -1.16586e-19)
(3.98615 -9.2095 1.11612e-19)
(7.58115 -17.9916 -4.07414e-20)
(6.91758 -17.6242 -1.76161e-18)
(6.9333 -17.1169 -1.56202e-18)
(6.78975 -16.7529 2.37541e-20)
(6.68987 -16.3942 -6.47745e-19)
(6.59254 -16.033 6.35053e-19)
(6.48645 -15.6658 0)
(6.37306 -15.2911 -5.18613e-19)
(6.25393 -14.912 0)
(6.13085 -14.5327 0)
(6.00591 -14.1573 -3.95971e-19)
(5.88099 -13.7893 7.54908e-19)
(5.75764 -13.4314 -3.59563e-19)
(5.63702 -13.0854 6.29166e-19)
(5.51991 -12.7524 -1.50151e-18)
(5.40681 -12.4328 5.7387e-19)
(5.29795 -12.1266 0)
(5.1934 -11.8335 -7.12025e-19)
(5.0931 -11.5529 4.62984e-19)
(4.99692 -11.2844 0)
(4.90468 -11.0272 -1.97124e-19)
(4.8162 -10.7808 0)
(4.73132 -10.5447 1.63391e-19)
(4.64988 -10.3183 -6.45616e-19)
(4.57178 -10.1012 7.51833e-21)
(4.49685 -9.89317 -2.77396e-19)
(4.42487 -9.69349 -2.54152e-19)
(4.35634 -9.5009 2.56658e-19)
(4.29219 -9.31324 -2.30603e-19)
(4.22408 -9.13127 2.3895e-19)
(8.05306 -17.797 0)
(7.38571 -17.4604 0)
(7.39153 -16.9613 7.72549e-19)
(7.24007 -16.6057 -2.71415e-20)
(7.1311 -16.2516 -6.50683e-19)
(7.0237 -15.8933 6.37934e-19)
(6.90684 -15.528 -5.50037e-19)
(6.78221 -15.155 1.06278e-18)
(6.65165 -14.7775 -4.82119e-19)
(6.51718 -14.3999 -4.30624e-19)
(6.38104 -14.0264 2.4724e-20)
(6.24527 -13.6606 7.58499e-19)
(6.11149 -13.3051 3.20478e-19)
(5.9809 -12.9616 -3.43611e-19)
(5.85429 -12.6312 -5.87156e-19)
(5.73216 -12.3143 5.76785e-19)
(5.61472 -12.0108 2.61518e-19)
(5.50202 -11.7203 0)
(5.39396 -11.4424 0)
(5.29039 -11.1765 2.12121e-19)
(5.1911 -10.9218 5.82858e-19)
(5.09589 -10.6777 -7.40373e-19)
(5.00457 -10.4438 1.89665e-19)
(4.91698 -10.2197 8.124e-19)
(4.83301 -10.0048 -1.60223e-19)
(4.75249 -9.79882 0)
(4.67521 -9.60131 2.68466e-19)
(4.60171 -9.411 0)
(4.53301 -9.22571 2.32257e-19)
(4.46015 -9.04669 -3.58793e-19)
(8.51995 -17.59 -8.75997e-19)
(7.84993 -17.2841 1.78058e-18)
(7.8462 -16.7931 8.03489e-19)
(7.68709 -16.4461 0)
(7.56913 -16.0967 -6.76076e-19)
(7.45165 -15.7414 0)
(7.32399 -15.3783 -5.71172e-19)
(7.1881 -15.0072 -1.47298e-20)
(7.04608 -14.6316 -1.67856e-20)
(6.90019 -14.256 -4.46611e-19)
(6.75287 -13.8848 -4.12429e-19)
(6.60627 -13.5215 -3.81357e-19)
(6.46209 -13.1686 0)
(6.32157 -12.828 3.09518e-19)
(6.18552 -12.5005 -3.39404e-20)
(6.05441 -12.1866 -5.79617e-19)
(5.92846 -11.886 -7.72284e-19)
(5.80766 -11.5986 2.571e-19)
(5.69191 -11.3235 4.44178e-19)
(5.58101 -11.0604 -1.06372e-18)
(5.47473 -10.8084 2.08668e-19)
(5.37284 -10.5669 0)
(5.27514 -10.3355 0)
(5.18146 -10.1137 1.56121e-19)
(5.09167 -9.90115 -4.67474e-19)
(5.00562 -9.6975 0)
(4.9231 -9.50233 -1.34677e-19)
(4.84474 -9.31446 0)
(4.77158 -9.13171 0)
(4.69416 -8.95585 4.63812e-19)
(8.98149 -17.3707 -1.84843e-18)
(8.30988 -17.0953 -8.68744e-19)
(8.29697 -16.6125 -8.03494e-19)
(8.13045 -16.274 0)
(8.00359 -15.9294 1.35501e-18)
(7.87605 -15.5773 -6.03229e-19)
(7.73758 -15.2167 6.07843e-19)
(7.5904 -14.8478 5.44133e-19)
(7.43689 -14.4744 4.86277e-19)
(7.27958 -14.1012 8.81066e-19)
(7.12108 -13.7326 -1.38892e-20)
(6.96367 -13.3721 2.16066e-20)
(6.80913 -13.0222 7.29178e-19)
(6.65874 -12.6848 -6.38287e-19)
(6.5133 -12.3605 6.26876e-19)
(6.37329 -12.0498 5.513e-19)
(6.23887 -11.7525 -1.05497e-18)
(6.11005 -11.4682 9.95378e-19)
(5.98666 -11.1963 -4.46483e-19)
(5.86849 -10.9362 4.38981e-19)
(5.75529 -10.6871 9.68576e-21)
(5.64679 -10.4485 7.48737e-19)
(5.54276 -10.2198 -3.59187e-19)
(5.44305 -10.0006 4.85452e-19)
(5.34751 -9.79048 -1.62105e-19)
(5.25598 -9.58929 0)
(5.16831 -9.39663 0)
(5.08515 -9.21136 -3.71781e-19)
(5.00766 -9.03133 4.92565e-19)
(4.92584 -8.85887 1.18967e-19)
(9.43735 -17.1392 1.85381e-18)
(8.76524 -16.8941 0)
(8.74351 -16.4195 7.82479e-19)
(8.56981 -16.0895 -7.66969e-19)
(8.43413 -15.7499 2.77709e-21)
(8.29655 -15.4011 6.05729e-19)
(8.14724 -15.0432 -5.9395e-19)
(7.98875 -14.6768 0)
(7.82375 -14.3059 -4.8628e-19)
(7.65502 -13.9354 8.72561e-19)
(7.48536 -13.5698 -8.56229e-19)
(7.31719 -13.2124 3.62957e-19)
(7.15234 -12.8659 -1.42345e-18)
(6.99212 -12.5319 3.7479e-20)
(6.83736 -12.2112 1.22521e-18)
(6.6885 -11.904 -5.85016e-19)
(6.54571 -11.6102 5.15735e-19)
(6.40892 -11.3293 -7.52916e-19)
(6.27797 -11.0608 -4.48712e-19)
(6.15259 -10.8039 4.41173e-19)
(6.03252 -10.558 -5.92474e-19)
(5.91746 -10.3224 3.85663e-19)
(5.80718 -10.0967 0)
(5.70148 -9.88022 -1.64675e-19)
(5.60024 -9.67283 0)
(5.50331 -9.47429 0)
(5.41054 -9.28431 -5.35023e-19)
(5.32268 -9.1018 3.98623e-19)
(5.24095 -8.92467 4.74155e-19)
(5.15496 -8.75583 -9.63002e-19)
(9.88721 -16.8958 -8.88321e-19)
(9.21567 -16.6807 9.22756e-19)
(9.18547 -16.2142 7.85635e-19)
(9.00482 -15.8928 -7.70063e-19)
(8.8604 -15.5581 -6.81716e-19)
(8.71278 -15.2129 -6.08159e-19)
(8.55263 -14.8579 3.69739e-20)
(8.38281 -14.4943 1.06356e-18)
(8.20632 -14.1263 -5.05145e-19)
(8.02619 -13.7589 0)
(7.84541 -13.3965 0)
(7.6665 -13.0426 7.49077e-19)
(7.4914 -12.6998 -7.35365e-19)
(7.32143 -12.3695 0)
(7.15742 -12.0526 0)
(6.9998 -11.7492 0)
(6.84868 -11.4592 0)
(6.704 -11.182 0)
(6.56555 -10.9171 -4.50859e-19)
(6.43304 -10.6637 4.43283e-19)
(6.30616 -10.4212 3.94063e-19)
(6.1846 -10.1889 -3.87608e-19)
(6.06811 -9.96622 0)
(5.95649 -9.75279 0)
(5.8496 -9.5483 0)
(5.74732 -9.35258 0)
(5.64951 -9.16546 0)
(5.55701 -8.98589 0)
(5.47117 -8.81184 0)
(5.38121 -8.64685 0)
(10.3307 -16.6404 0)
(9.66086 -16.4551 0)
(9.62253 -15.9968 0)
(9.43514 -15.6838 0)
(9.28205 -15.3543 1.3741e-18)
(9.12441 -15.0127 1.26249e-18)
(8.95341 -14.661 5.99227e-19)
(8.77226 -14.3004 1.61887e-18)
(8.58428 -13.9356 0)
(8.39277 -13.5716 0)
(8.2009 -13.2128 1.65112e-18)
(8.01133 -12.8628 -1.54976e-18)
(7.82605 -12.5239 2.15319e-18)
(7.6464 -12.1977 -1.83478e-20)
(7.47321 -11.8849 6.1832e-19)
(7.30689 -11.5856 1.61811e-20)
(7.14754 -11.2995 1.08414e-18)
(6.99504 -11.0263 4.85184e-19)
(6.84915 -10.7653 -1.14705e-20)
(6.70956 -10.5156 4.23257e-19)
(6.57593 -10.2767 -4.16235e-19)
(6.44793 -10.0479 0)
(6.32528 -9.82855 3.56733e-19)
(6.20778 -9.61834 3.34617e-19)
(6.0953 -9.41695 3.14162e-19)
(5.9877 -9.22427 2.95221e-19)
(5.88491 -9.04017 5.41469e-19)
(5.78785 -8.86373 -2.36612e-20)
(5.69799 -8.69294 -9.82279e-19)
(5.60429 -8.53203 2.00763e-20)
(10.7677 -16.3733 2.77431e-18)
(10.1005 -16.2175 -9.2965e-19)
(10.0544 -15.7672 8.47447e-19)
(9.86043 -15.4626 -7.26586e-19)
(9.69874 -15.1383 -3.42013e-18)
(9.5311 -14.8007 6.58391e-19)
(9.34924 -14.4525 -1.72437e-18)
(9.15676 -14.0953 5.56626e-19)
(8.95731 -13.734 -3.11112e-20)
(8.75445 -13.3737 -9.38464e-19)
(8.55155 -13.0189 -8.12742e-19)
(8.35138 -12.673 8.00709e-19)
(8.15599 -12.3384 -7.18063e-19)
(7.96675 -12.0165 6.51592e-19)
(7.78447 -11.7081 -1.25579e-18)
(7.60954 -11.4131 2.24806e-21)
(7.44202 -11.1313 -1.05768e-18)
(7.28177 -10.8623 4.99889e-19)
(7.12851 -10.6053 -2.21398e-20)
(6.9819 -10.3596 -2.20979e-20)
(6.84157 -10.1245 -1.22426e-18)
(6.70717 -9.89942 3.91248e-19)
(6.57841 -9.68368 -7.15119e-19)
(6.45507 -9.47692 1.59883e-21)
(6.33702 -9.27886 -9.29861e-19)
(6.22415 -9.08942 3.10888e-19)
(6.11642 -8.90857 -5.44545e-19)
(6.01484 -8.73544 5.3628e-19)
(5.92105 -8.56812 2.47499e-19)
(5.82386 -8.41152 0)
(11.1978 -16.0947 6.48423e-21)
(10.5343 -15.9682 1.77853e-18)
(10.4807 -15.5257 -1.63918e-18)
(10.2804 -15.2295 -5.43229e-21)
(10.1101 -14.9105 2.76338e-18)
(9.9325 -14.577 4.49156e-21)
(9.73979 -14.2325 -1.1691e-18)
(9.53599 -13.879 -1.07208e-18)
(9.32508 -13.5215 9.87676e-19)
(9.11092 -13.1653 -9.14217e-19)
(8.89705 -12.8148 -8.41457e-19)
(8.68637 -12.4734 0)
(8.48095 -12.1434 7.02107e-19)
(8.28221 -11.8261 -2.02865e-18)
(8.09093 -11.5223 0)
(7.90747 -11.2319 -5.7715e-19)
(7.73187 -10.9546 0)
(7.56395 -10.69 -1.91473e-21)
(7.40338 -10.4373 -1.06657e-20)
(7.2498 -10.1958 -4.49056e-19)
(7.10281 -9.96478 8.94669e-21)
(6.96204 -9.74358 7.67106e-19)
(6.82719 -9.53165 -9.74396e-21)
(6.69802 -9.32857 3.22379e-19)
(6.57443 -9.13407 -9.65407e-19)
(6.45631 -8.94812 0)
(6.34365 -8.77074 0)
(6.23758 -8.60115 -2.64192e-19)
(6.13994 -8.43752 -2.47501e-19)
(6.03952 -8.2855 -4.8454e-19)
(11.6207 -15.8047 -1.88587e-18)
(10.9621 -15.7071 -2.64449e-18)
(10.9012 -15.2723 -8.02227e-19)
(10.6946 -14.9844 1.50807e-18)
(10.5159 -14.6708 -1.38417e-18)
(10.3283 -14.3417 -1.27166e-18)
(10.1247 -14.0011 1.16911e-18)
(9.90961 -13.6517 1.07943e-18)
(9.68729 -13.2983 0)
(9.46189 -12.9465 9.14225e-19)
(9.23713 -12.6006 0)
(9.01601 -12.264 0)
(8.80067 -11.9389 0)
(8.59252 -11.6265 6.70832e-19)
(8.39234 -11.3276 0)
(8.20046 -11.042 0)
(8.01686 -10.7695 5.26476e-19)
(7.84133 -10.5095 4.89927e-19)
(7.67352 -10.2613 0)
(7.51301 -10.0242 0)
(7.35939 -9.79742 4.11624e-19)
(7.21227 -9.58035 -3.85468e-19)
(7.07132 -9.37245 3.61357e-19)
(6.93633 -9.17327 0)
(6.80716 -8.98258 3.17194e-19)
(6.68375 -8.80036 0)
(6.56615 -8.62671 0)
(6.45558 -8.46091 5.29708e-19)
(6.3541 -8.30122 0)
(6.25063 -8.1541 0)
(12.0364 -15.5034 0)
(11.3834 -15.4344 0)
(11.3156 -15.0072 1.65096e-18)
(11.1029 -14.7276 0)
(10.9156 -14.4195 -6.73854e-19)
(10.7181 -14.0948 6.60652e-19)
(10.5037 -13.7586 -1.13889e-18)
(10.2773 -13.4134 2.16886e-18)
(10.0436 -13.0646 -3.08456e-20)
(9.80705 -12.7175 -9.20188e-19)
(9.57149 -12.3765 1.67419e-18)
(9.34004 -12.045 -2.28832e-20)
(9.1149 -11.7251 7.28103e-19)
(8.89746 -11.4179 0)
(8.68848 -11.1241 1.23669e-18)
(8.48827 -10.8436 -1.16587e-18)
(8.29677 -10.5761 1.10025e-18)
(8.11371 -10.3209 -9.97292e-19)
(7.9387 -10.0774 9.56848e-19)
(7.77131 -9.8448 4.41528e-19)
(7.61109 -9.62246 1.41448e-21)
(7.45762 -9.40972 3.85472e-19)
(7.31056 -9.20603 -3.6136e-19)
(7.16967 -9.01097 3.40351e-19)
(7.03485 -8.82432 3.19755e-19)
(6.90606 -8.64607 0)
(6.7834 -8.47639 -2.69727e-19)
(6.6682 -8.31461 2.4742e-20)
(6.56274 -8.15915 1.25619e-18)
(6.45626 -8.01732 -2.59779e-19)
(12.4446 -15.1911 9.97285e-19)
(11.7981 -15.1503 -1.72628e-18)
(11.7236 -14.7304 5.16321e-20)
(11.5048 -14.459 1.57409e-18)
(11.3091 -14.1565 1.39788e-18)
(11.1016 -13.8366 6.21421e-19)
(10.8764 -13.5049 1.1805e-18)
(10.6388 -13.1644 1.05505e-18)
(10.3938 -12.8204 -2.99866e-18)
(10.1461 -12.4784 1.87126e-18)
(9.89987 -12.1427 -1.70243e-18)
(9.65821 -11.8166 2.37108e-21)
(9.42338 -11.5021 -7.2811e-19)
(9.19677 -11.2004 -6.77352e-19)
(8.97913 -10.912 -6.27167e-19)
(8.7707 -10.6367 1.15391e-18)
(8.57138 -10.3743 -1.64673e-18)
(8.38088 -10.1241 0)
(8.19875 -9.88549 -4.72514e-19)
(8.02452 -9.65763 -4.41533e-19)
(7.85771 -9.4399 -8.16896e-19)
(7.69788 -9.23164 3.97234e-19)
(7.54466 -9.03234 7.09789e-19)
(7.39783 -8.8416 -1.03881e-18)
(7.25726 -8.65919 -3.19758e-19)
(7.12295 -8.48515 -5.89394e-19)
(6.99505 -8.31968 2.97241e-19)
(6.87498 -8.1622 -7.89876e-19)
(6.76518 -8.01129 2.63869e-19)
(6.65541 -7.87497 -2.50561e-19)
(12.8454 -14.868 -3.72653e-20)
(12.206 -14.8549 8.51306e-19)
(12.1248 -14.4422 1.66746e-18)
(11.9002 -14.1789 -7.84754e-19)
(11.6959 -13.8821 -1.40228e-18)
(11.4784 -13.5672 -1.24245e-18)
(11.2425 -13.2403 -5.69551e-19)
(10.9937 -12.9047 -1.08622e-18)
(10.7374 -12.5659 1.00351e-18)
(10.4788 -12.2293 0)
(10.222 -11.8993 8.52505e-19)
(9.97023 -11.5788 -7.88503e-19)
(9.72586 -11.2701 -7.324e-19)
(9.49023 -10.9741 6.7736e-19)
(9.26406 -10.6913 -6.30874e-19)
(9.04754 -10.4215 -5.8501e-19)
(8.84053 -10.1644 5.30001e-19)
(8.64267 -9.91937 -5.22382e-19)
(8.45348 -9.6857 0)
(8.27245 -9.4627 0)
(8.09905 -9.24967 0)
(7.93283 -9.04603 7.5896e-19)
(7.77341 -8.85127 -7.46686e-19)
(7.62055 -8.66502 0)
(7.47414 -8.48708 0)
(7.33419 -8.31756 0)
(7.20094 -8.15672 0)
(7.07588 -8.004 -2.68676e-19)
(6.96155 -7.85806 -4.962e-19)
(6.84844 -7.72733 2.62228e-19)
(13.2398 -14.5349 9.19845e-19)
(12.607 -14.5485 -9.48773e-19)
(12.5189 -14.1426 -2.47553e-18)
(12.2886 -13.8871 2.32488e-18)
(12.0757 -13.5963 -6.80156e-19)
(11.8483 -13.2866 6.6683e-19)
(11.6016 -12.9649 3.81098e-20)
(11.3416 -12.6346 3.27727e-18)
(11.0743 -12.3013 -2.04117e-18)
(10.8048 -11.9705 9.28136e-19)
(10.5375 -11.6463 8.5725e-19)
(10.2759 -11.3319 7.69559e-19)
(10.0221 -11.0292 7.11309e-19)
(9.77763 -10.7391 -6.6181e-19)
(9.54308 -10.4621 1.29846e-18)
(9.31862 -10.198 6.04095e-19)
(9.10404 -9.94638 5.46258e-19)
(8.89894 -9.70662 -4.97085e-19)
(8.70278 -9.47804 9.52771e-19)
(8.51498 -9.25995 -4.56346e-19)
(8.33499 -9.05169 0)
(8.1623 -8.8527 0)
(7.99651 -8.66253 0)
(7.83738 -8.48086 6.69989e-19)
(7.68481 -8.3076 -6.59426e-19)
(7.53889 -8.14296 0)
(7.40003 -7.98735 0)
(7.26991 -7.84019 2.68679e-19)
(7.15128 -7.70009 -4.98268e-19)
(7.03582 -7.57628 7.70626e-19)
(13.6291 -14.1923 -4.0688e-20)
(13.0017 -14.2304 -9.51932e-19)
(12.9055 -13.8311 -1.67737e-18)
(12.6696 -13.5839 -7.89759e-19)
(12.4483 -13.2992 6.81972e-19)
(12.2108 -12.9951 -1.2953e-18)
(11.9533 -12.6789 -1.18731e-18)
(11.6824 -12.3543 -1.0924e-18)
(11.404 -12.0269 0)
(11.1238 -11.7021 -1.83032e-18)
(10.8463 -11.3842 8.87499e-19)
(10.5749 -11.0761 -7.71579e-19)
(10.3119 -10.7796 7.59328e-19)
(10.0588 -10.4957 0)
(9.81604 -10.2247 -6.32568e-19)
(9.58381 -9.96645 5.89693e-19)
(9.36183 -9.72042 5.49022e-19)
(9.14963 -9.48603 0)
(8.94661 -9.26259 0)
(8.75213 -9.04942 0)
(8.56557 -8.84588 4.1726e-19)
(8.38634 -8.65143 -3.71593e-19)
(8.21396 -8.46568 7.499e-19)
(8.0481 -8.28837 3.43415e-19)
(7.88859 -8.11956 0)
(7.73549 -7.95971 0)
(7.58948 -7.80935 -2.73718e-19)
(7.45263 -7.66798 8.19359e-19)
(7.32769 -7.53526 0)
(7.20837 -7.42359 0)
(14.0126 -13.8378 -1.88261e-18)
(13.3899 -13.8991 9.54857e-19)
(13.2839 -13.5074 8.64701e-19)
(13.0426 -13.2694 5.14189e-20)
(12.8132 -12.9912 -6.79972e-19)
(12.5657 -12.693 1.29532e-18)
(12.2977 -12.3827 0)
(12.0157 -12.0641 0)
(11.7265 -11.7429 0)
(11.4357 -11.4246 -9.04473e-19)
(11.1481 -11.1132 2.80667e-20)
(10.8672 -10.8117 0)
(10.5952 -10.5217 -7.36265e-19)
(10.3336 -10.2442 0)
(10.0829 -9.97941 0)
(9.84307 -9.72709 -1.16468e-18)
(9.61388 -9.48678 1.59179e-20)
(9.39477 -9.25784 0)
(9.18508 -9.03957 0)
(8.98411 -8.83129 4.35701e-19)
(8.79115 -8.63235 -8.45738e-19)
(8.60552 -8.44221 -1.154e-18)
(8.4266 -8.26047 7.51018e-19)
(8.25386 -8.08688 -3.43419e-19)
(8.08681 -7.92158 0)
(7.92515 -7.7651 0)
(7.76928 -7.61792 -2.85322e-19)
(7.62077 -7.48007 -2.68811e-19)
(7.48003 -7.35527 4.97085e-19)
(7.34327 -7.26053 -5.16759e-19)
(19.9385 0.12239 9.35572e-20)
(19.9231 -0.402964 1.2189e-19)
(19.8945 -0.925532 3.68405e-19)
(19.8541 -1.44588 4.87334e-19)
(19.8013 -1.96427 -2.49278e-19)
(19.7352 -2.48059 2.49151e-19)
(19.6557 -2.99459 2.22132e-20)
(19.5629 -3.506 -4.98103e-19)
(19.4568 -4.01453 9.94544e-19)
(19.3375 -4.51985 -1.49187e-18)
(19.205 -5.02166 9.93153e-19)
(19.0595 -5.51961 -1.46729e-18)
(18.9011 -6.01337 -1.48717e-18)
(18.7298 -6.50261 1.06457e-21)
(18.5458 -6.98701 4.48612e-20)
(18.3494 -7.46622 0)
(18.1405 -7.93994 9.43673e-19)
(17.9194 -8.40784 1.97172e-18)
(17.6862 -8.86962 -1.96964e-18)
(17.4412 -9.32495 9.38897e-19)
(17.1844 -9.77355 0)
(16.9161 -10.2151 -2.89367e-18)
(16.6366 -10.6494 3.46931e-21)
(16.3459 -11.076 1.95443e-18)
(16.0443 -11.4949 0)
(15.7322 -11.9056 -1.01456e-18)
(15.4096 -12.3082 4.76049e-20)
(15.0772 -12.7024 -9.21289e-19)
(14.734 -13.0889 9.68864e-19)
(14.3837 -13.4662 1.88647e-18)
(19.818 -0.370135 0)
(19.787 -0.890694 -6.18521e-20)
(19.7415 -1.40817 -9.29504e-21)
(19.6824 -1.9229 -2.47323e-19)
(19.6098 -2.43517 -4.70947e-19)
(19.5238 -2.9448 4.70946e-19)
(19.4245 -3.45146 4.9418e-19)
(19.3118 -3.95484 0)
(19.1859 -4.4546 -9.40174e-19)
(19.047 -4.95043 4.83597e-19)
(18.895 -5.44199 -4.56253e-19)
(18.7303 -5.92893 9.74563e-19)
(18.5528 -6.41093 -4.82459e-19)
(18.3627 -6.88766 -9.35998e-19)
(18.1603 -7.35878 1.918e-18)
(17.9456 -7.82397 0)
(17.7189 -8.28291 -1.91203e-18)
(17.4803 -8.7353 9.32482e-19)
(17.2301 -9.18083 0)
(16.9684 -9.61921 -9.75293e-19)
(16.6955 -10.0501 -1.85337e-18)
(16.4116 -10.4733 2.82546e-18)
(16.1169 -10.8886 -1.84671e-18)
(15.8116 -11.2955 1.84672e-18)
(15.496 -11.694 0)
(15.1703 -12.0838 1.76397e-18)
(14.8346 -12.4649 -8.72864e-19)
(14.4894 -12.8369 9.60933e-19)
(14.1336 -13.2001 0)
(13.7686 -13.554 -9.56968e-19)
(19.5774 -0.186493 0)
(19.5521 -0.698248 0)
(19.5124 -1.20845 -6.97427e-21)
(19.4584 -1.71666 2.10313e-19)
(19.3905 -2.22262 -4.35027e-19)
(19.309 -2.72602 6.45323e-19)
(19.2138 -3.2265 0)
(19.1053 -3.72371 4.20379e-19)
(18.9834 -4.2173 8.68786e-19)
(18.8484 -4.70693 4.46957e-19)
(18.7003 -5.19226 -4.21069e-19)
(18.5393 -5.67295 2.73995e-20)
(18.3656 -6.14865 3.91729e-19)
(18.1794 -6.61904 -1.70261e-18)
(17.9807 -7.08378 1.70176e-18)
(17.7699 -7.54255 -8.35584e-19)
(17.547 -7.99501 -8.62143e-19)
(17.3124 -8.44087 8.62147e-19)
(17.0661 -8.87981 -8.32332e-19)
(16.8085 -9.31153 -8.311e-19)
(16.5396 -9.73574 0)
(16.2599 -10.1522 -8.82529e-19)
(15.9694 -10.5605 1.71096e-18)
(15.6685 -10.9605 1.70463e-18)
(15.3574 -11.352 -1.70465e-18)
(15.0362 -11.7347 -5.3067e-20)
(14.7051 -12.1084 -1.69414e-18)
(14.3645 -12.4728 2.51287e-18)
(14.0139 -12.8278 1.68629e-18)
(13.6538 -13.1725 -8.71478e-19)
(19.2428 -0.209872 0)
(19.2194 -0.71141 0)
(19.1819 -1.2119 -1.03057e-19)
(19.1305 -1.71074 -2.06144e-19)
(19.0652 -2.2075 -1.92531e-19)
(18.9863 -2.70183 1.7894e-19)
(18.8938 -3.19337 3.97897e-19)
(18.7879 -3.68177 -1.20772e-18)
(18.6686 -4.16664 3.97774e-19)
(18.5362 -4.64765 0)
(18.3907 -5.12443 3.84453e-19)
(18.2324 -5.59664 4.11104e-19)
(18.0614 -6.06391 -8.21531e-19)
(17.8779 -6.52592 1.58796e-18)
(17.682 -6.98231 -2.84192e-20)