/*--------------------------------*- C++ -*----------------------------------*\
| =========                 |                                                 |
| \\      /  F ield         | OpenFOAM: The Open Source CFD Toolbox           |
|  \\    /   O peration     | Version:  v1912                                 |
|   \\  /    A nd           | Website:  www.openfoam.com                      |
|    \\/     M anipulation  |                                                 |
\*---------------------------------------------------------------------------*/
FoamFile
{
    version     2.0;
    format      ascii;
    class       volVectorField;
    location    "39.5";
    object      U;
}
// * * * * * * * * * * * * * * * * * * * * * * * * * * * * * * * * * * * * * //

dimensions      [0 1 -1 0 0 0 0];


internalField   nonuniform List<vector> 
9600
(
(0.45657 -9.36251 -1.54088e-19)
(0.159704 -8.6339 0)
(0.241794 -8.16114 -9.04695e-20)
(0.320398 -7.84179 0)
(0.387561 -7.60632 0)
(0.455813 -7.41126 -3.18247e-20)
(0.521178 -7.23262 -5.48591e-22)
(0.580525 -7.05817 2.65988e-20)
(0.633081 -6.8826 0)
(0.678877 -6.70446 -4.50968e-20)
(0.718304 -6.52438 0)
(0.751986 -6.3439 -1.82901e-21)
(0.780658 -6.16482 -2.60629e-21)
(0.805077 -5.98884 -3.15061e-20)
(0.825963 -5.81734 2.65684e-20)
(0.84397 -5.65128 -2.61026e-20)
(0.859649 -5.49115 2.32389e-20)
(0.873545 -5.33686 0)
(0.886437 -5.18764 -1.84834e-20)
(0.898054 -5.04198 2.02624e-20)
(0.824535 -9.35208 -3.08258e-19)
(0.502216 -8.66191 1.17599e-20)
(0.567506 -8.20532 1.86358e-19)
(0.634601 -7.89546 -1.58823e-19)
(0.692746 -7.66458 1.5663e-19)
(0.752947 -7.47002 0)
(0.810428 -7.28907 6.06982e-20)
(0.86172 -7.11064 -6.05571e-20)
(0.905977 -6.93019 -1.05031e-19)
(0.943288 -6.74686 1.32832e-19)
(0.974152 -6.56169 -8.62417e-20)
(0.999319 -6.37647 -3.52044e-20)
(1.01963 -6.19314 7.10626e-20)
(1.03594 -6.01347 0)
(1.04903 -5.83886 0)
(1.05959 -5.67028 9.95905e-20)
(1.06817 -5.50816 -1.6885e-19)
(1.07535 -5.35237 0)
(1.08197 -5.20202 0)
(1.08752 -5.05549 -7.80379e-20)
(1.19284 -9.32811 6.36897e-19)
(0.846991 -8.67705 0)
(0.896765 -8.23684 -3.77057e-19)
(0.953088 -7.93656 -3.41742e-19)
(1.00251 -7.71025 0)
(1.05464 -7.51614 5.46069e-19)
(1.10401 -7.33291 -5.1552e-19)
(1.1469 -7.15059 1.01044e-19)
(1.18245 -6.96545 -2.24947e-19)
(1.21086 -6.77723 -3.74063e-19)
(1.23277 -6.58731 5.10607e-19)
(1.24907 -6.39773 -3.1569e-19)
(1.26072 -6.21057 -1.41474e-19)
(1.26865 -6.02764 0)
(1.27373 -5.85035 5.52269e-21)
(1.27667 -5.67965 1.04978e-19)
(1.27804 -5.51596 4.53755e-20)
(1.27841 -5.35906 0)
(1.27872 -5.20797 8.22529e-20)
(1.27809 -5.06099 8.43015e-20)
(1.56037 -9.29024 -8.61622e-19)
(1.19344 -8.67905 -4.03724e-19)
(1.22901 -8.25546 3.91599e-19)
(1.27529 -7.96477 6.72901e-19)
(1.31629 -7.74296 -3.26589e-19)
(1.36031 -7.54925 5.79089e-21)
(1.40132 -7.36378 2.53568e-19)
(1.43545 -7.17771 2.29661e-19)
(1.4619 -6.98813 4.20597e-19)
(1.481 -6.79532 0)
(1.49358 -6.60104 1.62006e-19)
(1.50068 -6.40754 -1.71941e-19)
(1.50338 -6.21699 1.03466e-20)
(1.50272 -6.03125 2.71008e-19)
(1.4996 -5.85173 2.32314e-19)
(1.49479 -5.67935 -3.27942e-19)
(1.48884 -5.51448 1.08e-19)
(1.48236 -5.35688 -1.75838e-19)
(1.47632 -5.20543 1.75007e-19)
(1.46945 -5.05843 -8.43451e-20)
(1.92684 -9.2384 4.34532e-19)
(1.54127 -8.66776 0)
(1.56385 -8.26093 3.84547e-19)
(1.60072 -7.97977 0)
(1.63352 -7.76235 0)
(1.66934 -7.56901 -3.00145e-19)
(1.70173 -7.38135 -5.36975e-19)
(1.72674 -7.19171 -4.55249e-19)
(1.74369 -6.99797 1.84452e-20)
(1.75311 -6.80094 -1.96709e-19)
(1.756 -6.60272 0)
(1.75359 -6.40575 -1.62415e-19)
(1.74709 -6.21229 -2.92565e-19)
(1.73763 -6.02422 2.57267e-19)
(1.72617 -5.84292 -7.31121e-19)
(1.71349 -5.66929 1.1832e-19)
(1.70017 -5.50368 9.37708e-20)
(1.6868 -5.34578 -1.93364e-19)
(1.67443 -5.19436 -8.4483e-20)
(1.66128 -5.04777 2.51921e-19)
(2.29168 -9.1725 4.19277e-19)
(1.88999 -8.64294 4.15768e-19)
(1.90074 -8.25295 0)
(1.92879 -7.98121 0)
(1.95359 -7.76808 -6.23946e-19)
(1.98112 -7.57509 3.41039e-19)
(2.0046 -7.38535 8.2063e-19)
(2.02012 -7.19235 0)
(2.02719 -6.99477 2.16838e-19)
(2.02655 -6.79392 1.9671e-19)
(2.01944 -6.59222 -3.47503e-19)
(2.00725 -6.39227 5.03933e-19)
(1.99133 -6.1964 1.47867e-19)
(1.97289 -6.00648 0)
(1.95296 -5.82388 1.23082e-19)
(1.93234 -5.64945 5.52475e-19)
(1.91158 -5.48352 -3.29205e-19)
(1.89133 -5.32572 3.69888e-19)
(1.87267 -5.17473 -7.03359e-19)
(1.85324 -5.029 8.13119e-19)
(2.65438 -9.09251 4.26412e-19)
(2.23909 -8.60439 -2.25786e-18)
(2.23917 -8.23127 0)
(2.25894 -7.96882 0)
(2.27588 -7.75987 0)
(2.29498 -7.56721 -6.05242e-19)
(2.30927 -7.37551 0)
(2.31495 -7.17941 -9.70006e-19)
(2.31175 -6.97834 8.94709e-19)
(2.30072 -6.77412 -8.30942e-19)
(2.2833 -6.56944 0)
(2.26108 -6.36703 0)
(2.23554 -6.16926 0)
(2.20799 -5.97801 -2.811e-19)
(2.17949 -5.79458 0)
(2.15086 -5.6198 0)
(2.12265 -5.45397 -4.12537e-19)
(2.09554 -5.29668 4.0533e-19)
(2.07063 -5.14651 0)
(2.04496 -5.00209 0)
(3.01439 -8.99845 -1.38723e-18)
(2.58802 -8.55196 8.98882e-19)
(2.57854 -8.19563 0)
(2.59055 -7.9423 0)
(2.59974 -7.73743 0)
(2.61027 -7.54513 5.75666e-19)
(2.61506 -7.35163 -5.77406e-19)
(2.61053 -7.15272 -8.87681e-21)
(2.59672 -6.94857 -8.95815e-19)
(2.57496 -6.74144 8.38753e-19)
(2.54696 -6.5343 -3.78366e-19)
(2.51449 -6.32997 6.57894e-19)
(2.47917 -6.13085 -4.63835e-20)
(2.44239 -5.93878 -5.95138e-19)
(2.40525 -5.75502 -5.01564e-19)
(2.36858 -5.58036 4.92771e-19)
(2.33293 -5.41506 0)
(2.29899 -5.25867 0)
(2.26791 -5.10971 3.56538e-19)
(2.23605 -4.96707 -3.92378e-19)
(3.37115 -8.89034 9.27175e-19)
(2.9362 -8.48549 8.83065e-19)
(2.91826 -8.14582 -1.67375e-18)
(2.92297 -7.90143 7.90603e-19)
(2.9245 -7.70053 0)
(2.92628 -7.50862 6.15997e-19)
(2.92127 -7.31352 -5.40733e-19)
(2.90619 -7.11214 1.52813e-18)
(2.88142 -6.90534 -2.36808e-20)
(2.84863 -6.69582 0)
(2.8098 -6.48676 7.63407e-19)
(2.7669 -6.28108 0)
(2.72168 -6.08117 0)
(2.67558 -5.88881 -2.72242e-19)
(2.62975 -5.70522 5.49093e-19)
(2.58502 -5.53113 0)
(2.54194 -5.36679 4.30653e-19)
(2.50124 -5.21172 1.79267e-19)
(2.46408 -5.06435 -3.88974e-19)
(2.42612 -4.92395 3.77691e-19)
(3.7241 -8.76823 -9.54942e-19)
(3.28306 -8.4049 8.97454e-19)
(3.25771 -8.08167 -2.55591e-18)
(3.25554 -7.846 8.03705e-19)
(3.24947 -7.64896 0)
(3.24231 -7.45753 -1.24329e-18)
(3.2272 -7.26105 5.97258e-19)
(3.20122 -7.05756 0)
(3.16518 -6.8486 -4.74135e-19)
(3.12109 -6.63723 -8.22322e-19)
(3.07122 -6.42682 -7.16511e-19)
(3.01773 -6.22037 5.34193e-20)
(2.96249 -6.02024 6.70138e-19)
(2.90701 -5.82813 2.72018e-19)
(2.85247 -5.64522 -3.79174e-20)
(2.79969 -5.47216 -5.12233e-19)
(2.74921 -5.30921 -2.29097e-19)
(2.7018 -5.15584 -2.06537e-19)
(2.65868 -5.01045 5.50937e-19)
(2.61475 -4.87277 -8.20995e-19)
(4.07269 -8.63222 9.54944e-19)
(3.628 -8.31009 -4.66376e-20)
(3.59625 -8.00302 8.21564e-19)
(3.5876 -7.77584 0)
(3.57394 -7.58258 -6.8013e-19)
(3.55764 -7.39171 1.30687e-18)
(3.53212 -7.19413 -1.11703e-18)
(3.49493 -6.98894 1.09923e-18)
(3.44732 -6.7783 -4.45359e-19)
(3.39169 -6.56565 9.04101e-19)
(3.33059 -6.35449 3.91507e-19)
(3.26639 -6.14787 0)
(3.20105 -5.94809 0)
(3.13616 -5.75679 -2.82055e-19)
(3.07289 -5.57505 3.83343e-20)
(3.01208 -5.4035 1.0087e-18)
(2.95424 -5.24235 -2.49557e-19)
(2.90021 -5.09108 8.24189e-19)
(2.85122 -4.94805 1.44228e-19)
(2.80146 -4.81357 -8.38511e-19)
(4.41636 -8.48242 -2.93831e-18)
(3.97042 -8.20104 -9.86258e-19)
(3.93323 -7.90978 -2.62986e-18)
(3.91845 -7.69083 -1.59978e-18)
(3.89719 -7.50126 -7.58812e-19)
(3.87155 -7.31107 -7.41634e-19)
(3.83531 -7.11269 -2.42082e-18)
(3.7866 -6.90624 -4.90432e-20)
(3.72716 -6.69446 -1.94505e-18)
(3.65977 -6.48111 3.02188e-20)
(3.5873 -6.26982 -8.07501e-19)
(3.51228 -6.06362 -7.35802e-19)
(3.4368 -5.86478 6.71666e-19)
(3.36248 -5.67485 -6.14234e-19)
(3.2905 -5.49479 -5.62723e-19)
(3.22168 -5.3252 -5.16439e-19)
(3.15653 -5.16627 -1.38663e-18)
(3.09594 -5.01748 4.93338e-19)
(3.04121 -4.87719 1.19716e-18)
(2.98579 -4.74637 -1.27416e-18)
(4.75456 -8.31895 3.95221e-18)
(4.3097 -8.07775 4.85498e-18)
(4.268 -7.80187 8.33954e-19)
(4.24739 -7.59086 3.99564e-18)
(4.2185 -7.40492 -7.83109e-19)
(4.18329 -7.21557 3.91281e-18)
(4.13606 -7.01672 1.14454e-18)
(4.07554 -6.80947 3.21306e-18)
(4.00402 -6.59712 -9.82083e-19)
(3.9247 -6.38367 2.71907e-18)
(3.84073 -6.17286 1.62651e-18)
(3.75483 -5.96771 1.48224e-18)
(3.66918 -5.7704 -2.00669e-18)
(3.58544 -5.58237 1.87977e-18)
(3.50478 -5.40451 1.13413e-18)
(3.42798 -5.23733 1.04107e-18)
(3.35556 -5.08104 9.57262e-19)
(3.28848 -4.93511 7.35603e-21)
(3.22812 -4.79792 8.12556e-19)
(3.16726 -4.67123 8.45634e-19)
(5.08676 -8.142 -2.93487e-18)
(4.64527 -7.94024 1.08159e-18)
(4.59991 -7.67926 2.67553e-18)
(4.57372 -7.4759 -3.25954e-18)
(4.53714 -7.29353 7.53199e-19)
(4.49213 -7.10519 -2.61776e-18)
(4.43364 -6.90624 1.28298e-18)
(4.36106 -6.69869 -2.14985e-18)
(4.27725 -6.48633 4.90056e-20)
(4.18585 -6.2734 1.19294e-20)
(4.09029 -6.0637 -1.64896e-18)
(3.99347 -5.8602 -7.4644e-19)
(3.89765 -5.665 1.37249e-18)
(3.8045 -5.47942 8.74758e-21)
(3.71518 -5.30426 -3.71596e-20)
(3.63044 -5.13995 -1.0866e-18)
(3.55079 -4.98672 -4.8251e-19)
(3.47728 -4.84402 -2.7119e-20)
(3.41139 -4.71029 -8.46867e-19)
(3.34531 -4.58826 -4.27059e-19)
(5.41247 -7.95172 0)
(4.97654 -7.78858 -1.99847e-18)
(4.9283 -7.54194 2.37028e-20)
(4.89673 -7.34591 3.25497e-18)
(4.85238 -7.16709 1.36229e-18)
(4.79736 -6.97998 -1.41806e-18)
(4.72734 -6.78131 -1.22156e-18)
(4.64246 -6.57398 0)
(4.5462 -6.36222 -9.72276e-19)
(4.4426 -6.15043 9.27902e-19)
(4.3354 -5.94246 -3.90432e-20)
(4.22765 -5.74121 0)
(4.12167 -5.54867 -6.90941e-19)
(4.01913 -5.36607 5.98454e-19)
(3.92118 -5.19408 4.99938e-19)
(3.82852 -5.03309 -6.03573e-19)
(3.74164 -4.88329 -5.23594e-19)
(3.66168 -4.74417 9.09201e-19)
(3.59026 -4.6143 -8.39064e-19)
(3.51908 -4.49752 4.41649e-19)
(5.7312 -7.74832 3.03215e-18)
(5.30293 -7.62283 -2.05825e-18)
(5.25249 -7.38992 -1.75648e-18)
(5.21572 -7.20094 8.17764e-19)
(5.16349 -7.02565 -1.58654e-18)
(5.09823 -6.84 0)
(5.01645 -6.64206 0)
(4.91909 -6.43548 0)
(4.81022 -6.22491 -4.44439e-20)
(4.69437 -6.01489 -1.8622e-18)
(4.57551 -5.80926 8.79478e-19)
(4.45685 -5.61084 7.43769e-19)
(4.34076 -5.42152 6.29359e-19)
(4.22889 -5.2424 -2.58267e-18)
(4.12233 -5.07404 1.22439e-18)
(4.02174 -4.91675 0)
(3.92757 -4.77074 -3.03992e-20)
(3.84105 -4.63552 -1.41019e-18)
(3.76394 -4.50986 -5.69069e-21)
(3.68762 -4.39868 -4.42137e-19)
(6.04262 -7.53206 -2.06244e-18)
(5.62388 -7.44313 -1.08513e-18)
(5.57182 -7.22329 8.1755e-19)
(5.52995 -7.04105 -1.43895e-19)
(5.46973 -6.8693 -4.6248e-18)
(5.39403 -6.68539 4.18538e-18)
(5.30027 -6.4886 -4.87973e-20)
(5.19026 -6.28335 1.14627e-18)
(5.06872 -6.07458 1.02843e-18)
(4.94058 -5.86695 9.44295e-19)
(4.81009 -5.66425 8.59285e-19)
(4.68057 -5.46923 1.53561e-18)
(4.55444 -5.28364 -7.3911e-19)
(4.4333 -5.10847 1.91577e-18)
(4.3182 -4.94417 -1.23851e-18)
(4.20971 -4.791 -5.12317e-19)
(4.10825 -4.64916 2.05778e-18)
(4.01508 -4.51818 1.37477e-18)
(3.93214 -4.39686 -2.79308e-20)
(3.85089 -4.29105 0)
(6.34668 -7.30344 -1.04865e-18)
(5.93901 -7.24967 2.07371e-18)
(5.88562 -7.0421 1.8154e-18)
(5.8387 -6.86628 -1.45869e-19)
(5.77036 -6.69814 -1.56913e-18)
(5.68401 -6.51627 7.06404e-20)
(5.5781 -6.32114 1.3153e-20)
(5.45534 -6.11779 1.17198e-20)
(5.32107 -5.91144 0)
(5.18067 -5.7068 9.2357e-19)
(5.03862 -5.50761 -1.75786e-18)
(4.89834 -5.3165 -7.52208e-19)
(4.76224 -5.13511 7.46746e-19)
(4.63189 -4.9643 -6.552e-19)
(4.50827 -4.80447 6.06807e-19)
(4.39187 -4.65585 -5.52397e-19)
(4.2831 -4.51862 4.89433e-21)
(4.18335 -4.39219 -4.69273e-19)
(4.09485 -4.27525 -4.33492e-19)
(4.00945 -4.17548 -4.33785e-19)
(6.64373 -7.06291 0)
(6.24805 -7.04236 -1.01105e-18)
(6.19323 -6.84626 9.99447e-19)
(6.1412 -6.67673 1.74362e-18)
(6.06463 -6.51234 -1.57779e-18)
(5.96746 -6.3329 1.36295e-18)
(5.84928 -6.13995 -2.62063e-18)
(5.7137 -5.9391 -2.3271e-18)
(5.56675 -5.73578 -1.01515e-18)
(5.41418 -5.53472 4.43912e-20)
(5.26069 -5.33957 -8.40572e-19)
(5.10978 -5.15281 3.48962e-20)
(4.96381 -4.97597 0)
(4.82426 -4.8098 -1.28522e-18)
(4.69196 -4.65466 6.55892e-19)
(4.5673 -4.51079 0)
(4.45073 -4.37831 -5.13636e-19)
(4.34385 -4.25636 -9.2344e-19)
(4.24889 -4.14457 9.07372e-19)
(4.1583 -4.05555 4.47903e-19)
(6.93338 -6.80971 0)
(6.5504 -6.82049 0)
(6.49396 -6.63572 -1.8539e-18)
(6.4367 -6.47266 -1.59396e-18)
(6.35184 -6.31229 3.2352e-18)
(6.24377 -6.1357 0)
(6.11323 -5.94546 0)
(5.96486 -5.74772 1.1691e-18)
(5.8053 -5.54805 0)
(5.64074 -5.35114 0)
(5.47605 -5.1605 0)
(5.31476 -4.97849 0)
(5.15917 -4.80643 0)
(5.01058 -4.64498 0)
(4.86957 -4.49441 0)
(4.73625 -4.35487 0)
(4.61088 -4.22623 0)
(4.49455 -4.10782 0)
(4.38737 -4.00272 0)
(4.28321 -3.9282 0)
(10.0428 0.0877345 1.47209e-19)
(10.0223 -0.307626 2.86413e-19)
(9.98649 -0.700311 -2.94169e-19)
(9.93599 -1.09018 5.86515e-19)
(9.8705 -1.47689 -5.86514e-19)
(9.78988 -1.85993 -5.54225e-19)
(9.69424 -2.23878 -5.52679e-19)
(9.58379 -2.61288 1.74065e-18)
(9.45877 -2.98168 -1.15971e-18)
(9.31944 -3.34463 1.15e-18)
(9.16607 -3.70118 -1.15e-18)
(8.99897 -4.05081 1.14151e-18)
(8.81847 -4.39298 -2.26372e-18)
(8.62493 -4.7272 3.3336e-18)
(8.41871 -5.05299 0)
(8.2002 -5.36989 -3.27519e-18)
(7.9698 -5.67748 1.63172e-20)
(7.72802 -5.9754 3.3007e-18)
(7.47497 -6.2635 0)
(7.21233 -6.5411 0)
(10.1186 -0.210735 0)
(10.0774 -0.606776 -1.50382e-20)
(10.0193 -0.99902 0)
(9.94524 -1.38713 5.61198e-19)
(9.85526 -1.77068 5.84435e-19)
(9.74962 -2.14906 -1.6915e-18)
(9.62861 -2.52164 2.94494e-18)
(9.49259 -2.8878 -1.16253e-18)
(9.34192 -3.24694 -1.10814e-18)
(9.17699 -3.59848 -1.10361e-18)
(8.99822 -3.94184 4.45631e-20)
(8.80606 -4.27648 1.13078e-18)
(8.60096 -4.60188 -5.62143e-18)
(8.3834 -4.91753 -1.17892e-18)
(8.15388 -5.22299 2.24625e-18)
(7.91291 -5.51781 2.24329e-18)
(7.66096 -5.80161 1.13976e-18)
(7.39861 -6.07405 -2.19772e-18)
(7.12596 -6.33487 1.04073e-18)
(6.84395 -6.58375 0)
(10.0695 -0.14927 1.32542e-19)
(10.0317 -0.540847 -2.71428e-19)
(9.97659 -0.929251 7.83811e-19)
(9.90445 -1.31379 -5.55308e-19)
(9.81571 -1.69381 -5.29457e-19)
(9.71074 -2.0686 5.52799e-19)
(9.5899 -2.43743 0)
(9.45359 -2.79961 0)
(9.30224 -3.15448 2.09896e-18)
(9.13629 -3.50139 3.13127e-18)
(8.95621 -3.83973 -9.90324e-19)
(8.76251 -4.1689 3.09633e-18)
(8.5557 -4.48833 -9.86159e-19)
(8.33632 -4.7975 -3.01587e-18)
(8.10492 -5.0959 1.35958e-20)
(7.86207 -5.38307 1.93584e-18)
(7.6083 -5.65857 -8.73738e-19)
(7.34421 -5.922 -1.90454e-18)
(7.07012 -6.17296 -1.02879e-18)
(6.78679 -6.41098 1.87178e-18)
(9.90288 -0.112582 0)
(9.87189 -0.49491 2.28818e-19)
(9.82364 -0.874894 2.27877e-19)
(9.75829 -1.25164 -9.36214e-19)
(9.67619 -1.62434 0)
(9.57768 -1.99222 0)
(9.46311 -2.35452 0)
(9.33286 -2.71049 0)
(9.18734 -3.05941 -9.90746e-19)
(9.02701 -3.4006 -9.86986e-19)
(8.85233 -3.73339 0)
(8.66381 -4.05714 1.86603e-18)
(8.46198 -4.37125 -4.61359e-18)
(8.2474 -4.67512 3.70977e-18)
(8.02062 -4.96821 -3.59571e-18)
(7.78225 -5.25001 -8.72504e-19)
(7.53284 -5.52001 1.56407e-19)
(7.27303 -5.77776 1.54814e-19)
(7.00331 -6.02278 -1.77703e-18)
(6.72444 -6.2546 -7.08802e-20)
(9.64953 -0.0991076 0)
(9.62595 -0.469198 -2.25666e-19)
(9.58552 -0.837599 0)
(9.52833 -1.20341 4.51456e-19)
(9.45461 -1.56579 4.30346e-19)
(9.36464 -1.92395 3.93421e-19)
(9.25874 -2.27711 0)
(9.13725 -2.6245 0)
(9.00053 -2.96539 0)
(8.84901 -3.29906 0)
(8.68312 -3.6248 8.12717e-19)
(8.50335 -3.94197 8.75636e-19)
(8.31021 -4.2499 8.70651e-19)
(8.10423 -4.54799 -8.83959e-19)
(7.88598 -4.83564 -1.5212e-18)
(7.65602 -5.1123 1.72692e-18)
(7.41496 -5.37742 3.34813e-18)
(7.16341 -5.63048 1.62852e-18)
(6.90196 -5.87099 0)
(6.63129 -6.09845 -1.53481e-18)
(9.34236 -0.0903027 4.63788e-20)
(9.32573 -0.446214 0)
(9.29289 -0.801008 -7.60038e-19)
(9.24385 -1.15383 1.83589e-23)
(9.17876 -1.50386 1.61646e-20)
(9.09786 -1.8503 -6.8496e-20)
(9.0014 -2.19239 0)
(8.88967 -2.52936 3.09163e-20)
(8.763 -2.86048 -7.71578e-19)
(8.62176 -3.18501 1.50328e-18)
(8.46636 -3.50226 -1.56757e-18)
(8.29722 -3.81156 8.56428e-19)
(8.11483 -4.11224 -4.48893e-18)
(7.91969 -4.40367 2.96072e-18)
(7.71232 -4.68523 1.5695e-18)
(7.49329 -4.95634 0)
(7.26317 -5.21642 -2.89693e-18)
(7.02256 -5.46493 -6.15105e-20)
(6.77204 -5.70133 -2.85291e-18)
(6.51228 -5.92511 2.9653e-18)
(9.00992 -0.0854815 4.17077e-20)
(8.99893 -0.426394 -8.73743e-20)
(8.97246 -0.766656 7.16396e-19)
(8.93049 -1.10547 -1.40654e-20)
(8.87311 -1.44204 7.16248e-19)
(8.80051 -1.77561 -1.08183e-18)
(8.71291 -2.10542 0)
(8.61054 -2.43075 7.29297e-19)
(8.49369 -2.75085 6.67731e-19)
(8.36269 -3.06503 -7.25214e-19)
(8.21788 -3.3726 1.3268e-18)
(8.05966 -3.67289 2.81294e-18)
(7.88848 -3.96523 -1.30815e-18)
(7.70478 -4.24901 -1.41801e-18)
(7.50907 -4.52359 1.35983e-18)
(7.30187 -4.78837 0)
(7.08372 -5.04278 6.49063e-20)
(6.85521 -5.28624 9.79603e-21)
(6.61689 -5.51821 2.70291e-18)
(6.36939 -5.73812 1.25657e-18)
(8.67343 -0.0842854 0)
(8.66649 -0.410245 6.25387e-21)
(8.64485 -0.735899 -1.45766e-19)
(8.60845 -1.0605 -6.47379e-19)
(8.55738 -1.3833 6.08509e-19)
(8.49176 -1.70357 0)
(8.41177 -2.0206 1.23854e-18)
(8.31763 -2.33368 -1.36094e-21)
(8.20957 -2.64211 -1.89164e-18)
(8.08787 -2.94522 0)
(7.95286 -3.24234 -1.30568e-18)
(7.80489 -3.53283 4.59815e-20)
(7.64435 -3.81604 -3.67021e-18)
(7.47167 -4.09135 6.46633e-21)
(7.28731 -4.35816 1.23013e-18)
(7.09176 -4.61586 0)
(6.88553 -4.86388 -1.20739e-18)
(6.66918 -5.10163 8.68932e-21)
(6.44324 -5.32856 1.19871e-18)
(6.20829 -5.5441 -1.23656e-18)
(8.34673 -0.0853499 0)
(8.34241 -0.396937 1.49454e-19)
(8.32414 -0.708451 3.10089e-19)
(8.29187 -1.01919 -5.73953e-19)
(8.24564 -1.32846 -2.47127e-20)
(8.18558 -1.63557 -2.86845e-19)
(8.11182 -1.93983 -1.14827e-18)
(8.02455 -2.2406 5.70875e-19)
(7.92397 -2.5372 2.38043e-20)
(7.81033 -2.82899 5.67459e-19)
(7.68393 -3.11535 5.22372e-19)
(7.54507 -3.39564 2.26232e-18)
(7.39414 -3.66926 1.13161e-18)
(7.23151 -3.93562 2.23507e-18)
(7.05762 -4.19413 -1.11461e-18)
(6.87293 -4.4442 3.86513e-20)
(6.67793 -4.68526 -1.10145e-18)
(6.47315 -4.91674 0)
(6.2591 -5.13809 1.04114e-18)
(6.03631 -5.34869 0)
(8.03772 -0.0875513 6.50665e-20)
(8.03486 -0.385637 -1.90559e-19)
(8.01877 -0.683791 5.22675e-19)
(7.98939 -0.981358 -2.60752e-19)
(7.94674 -1.27768 1.89737e-20)
(7.89094 -1.57211 -2.60597e-19)
(7.82211 -1.86402 5.41778e-19)
(7.7404 -2.15277 -5.18499e-19)
(7.646 -2.43775 5.18496e-19)
(7.53914 -2.71834 9.94429e-19)
(7.42007 -2.99396 -1.07159e-18)
(7.2891 -3.26402 -4.50802e-20)
(7.14655 -3.52794 -3.10176e-18)
(6.9928 -3.78516 5.37202e-21)
(6.82826 -4.03512 4.02561e-20)
(6.65336 -4.27727 2.0108e-18)
(6.46859 -4.51105 -9.93266e-19)
(6.27443 -4.7359 -9.46085e-19)
(6.07141 -4.95125 -3.74355e-20)
(5.86001 -5.1565 0)
(7.75001 -0.0901452 0)
(7.74777 -0.375721 2.42057e-19)
(7.73294 -0.661438 -8.32277e-19)
(7.70548 -0.946682 -2.20801e-19)
(7.66541 -1.23084 4.93831e-19)
(7.61281 -1.51329 0)
(7.54781 -1.79345 0)
(7.47053 -2.07073 4.72018e-19)
(7.38116 -2.34453 -4.72015e-19)
(7.2799 -2.61431 3.97597e-19)
(7.16699 -2.87948 -4.68973e-19)
(7.04271 -3.13951 9.30011e-19)
(6.90736 -3.39387 -1.85542e-18)
(6.76131 -3.64202 1.84582e-18)
(6.60495 -3.88343 3.46494e-20)
(6.43869 -4.1176 -9.49355e-19)
(6.26302 -4.34399 -9.03372e-19)
(6.07842 -4.56205 1.84023e-18)
(5.88541 -4.77123 8.61453e-19)
(5.68445 -4.97089 0)
(7.48438 -0.0926584 1.87657e-21)
(7.48218 -0.366723 1.5892e-19)
(7.46799 -0.640956 3.33664e-19)
(7.44174 -0.914779 2.33553e-19)
(7.40348 -1.18761 2.16645e-19)
(7.35328 -1.45888 2.01525e-19)
(7.29124 -1.72802 0)
(7.2175 -1.99448 -8.3282e-19)
(7.13221 -2.2577 -4.29325e-19)
(7.03556 -2.51717 3.66237e-19)
(6.92779 -2.77235 0)
(6.80916 -3.02275 8.4796e-19)
(6.67995 -3.26784 -2.50787e-18)
(6.54052 -3.50717 8.43618e-19)
(6.39123 -3.74023 0)
(6.23252 -3.96656 -8.02106e-19)
(6.06486 -4.18564 -1.62005e-18)
(5.88873 -4.39697 7.97172e-19)
(5.7047 -4.59997 -2.91911e-20)
(5.5132 -4.79401 0)
(7.23997 -0.0947924 3.46226e-21)
(7.23745 -0.358298 -1.02849e-19)
(7.22347 -0.621964 1.98475e-19)
(7.19796 -0.885248 -1.31129e-20)
(7.16097 -1.1476 3.96599e-19)
(7.11257 -1.40848 -6.09108e-19)
(7.05285 -1.66735 0)
(6.98194 -1.92369 5.59943e-20)
(6.89999 -2.17699 0)
(6.80717 -2.42675 -8.13083e-19)
(6.70372 -2.67248 0)
(6.58986 -2.91371 -7.50354e-19)
(6.46589 -3.14998 2.31916e-18)
(6.33214 -3.38084 -1.53678e-18)
(6.18897 -3.60586 7.66181e-19)
(6.0368 -3.82462 -6.7787e-19)
(5.87614 -4.03663 7.83028e-19)
(5.70748 -4.24144 -7.77672e-19)
(5.53145 -4.43844 0)
(5.34848 -4.62701 0)
(7.01497 -0.0964257 4.7061e-20)
(7.01196 -0.35022 0)
(6.99793 -0.604158 0)
(6.97286 -0.85772 -3.7706e-19)
(6.93678 -1.11038 -3.51907e-19)
(6.88976 -1.36164 0)
(6.8319 -1.61098 0)
(6.76331 -1.8579 4.98183e-20)
(6.68414 -2.10193 6.96884e-19)
(6.59456 -2.3426 -3.36075e-19)
(6.49477 -2.57944 -3.58068e-19)
(6.38501 -2.81203 1.44645e-18)
(6.26554 -3.03994 -2.14785e-18)
(6.13669 -3.26278 1.38503e-18)
(5.99882 -3.48014 0)
(5.85234 -3.69168 2.78255e-18)
(5.69779 -3.89694 -2.02024e-18)
(5.53566 -4.09558 6.87289e-19)
(5.36675 -4.28691 1.3144e-18)
(5.19146 -4.47035 0)
(6.80731 -0.0974933 -4.04589e-20)
(6.80369 -0.34233 0)
(6.78947 -0.587288 -5.21782e-21)
(6.76465 -0.831868 -3.23783e-19)
(6.72925 -1.07557 1.0033e-18)
(6.68335 -1.31791 -1.66897e-19)
(6.62702 -1.55839 0)
(6.5604 -1.79656 1.3295e-18)
(6.4836 -2.03196 -6.84681e-19)
(6.39681 -2.26413 4.44522e-20)
(6.3002 -2.49266 6.34523e-19)
(6.194 -2.71714 6.50395e-19)
(6.07847 -2.93719 -1.29699e-18)
(5.9539 -3.15245 -1.2686e-18)
(5.82066 -3.36257 -1.23911e-18)
(5.67914 -3.56731 -1.3186e-18)
(5.52991 -3.7662 1.30961e-18)
(5.3735 -3.95912 -6.25179e-19)
(5.21092 -4.1452 -6.66203e-19)
(5.04248 -4.32409 0)
(6.61474 -0.0979748 3.97498e-20)
(6.61048 -0.334521 -1.49249e-19)
(6.59602 -0.57116 -1.54506e-19)
(6.57135 -0.80741 4.62635e-19)
(6.5365 -1.0428 -1.64297e-19)
(6.49155 -1.27685 -1.53572e-19)
(6.43656 -1.50911 0)
(6.37167 -1.73913 -6.31246e-19)
(6.29698 -1.96648 0)
(6.21266 -2.19073 6.26363e-19)
(6.1189 -2.41149 -1.207e-18)
(6.01588 -2.62838 5.97485e-19)
(5.90386 -2.84105 -1.1913e-18)
(5.7831 -3.04921 1.22935e-18)
(5.65395 -3.25252 6.69131e-19)
(5.51679 -3.45087 0)
(5.37224 -3.6438 -5.77544e-19)
(5.22076 -3.83152 5.77544e-19)
(5.06383 -4.01283 0)
(4.9014 -4.18808 0)
(6.43514 -0.0979576 0)
(6.43027 -0.326772 1.46635e-19)
(6.41557 -0.555647 4.719e-21)
(6.39103 -0.784122 -1.51197e-19)
(6.35669 -1.01174 -1.33325e-19)
(6.3126 -1.23806 -1.41548e-19)
(6.25886 -1.46264 5.47083e-19)
(6.19557 -1.68505 0)
(6.12284 -1.90487 0)
(6.04083 -2.12172 2.78029e-19)
(5.94969 -2.33521 2.95351e-19)
(5.84963 -2.545 1.06893e-18)
(5.74085 -2.75075 -5.46174e-19)
(5.6236 -2.95222 5.46172e-19)
(5.49819 -3.14914 5.79812e-19)
(5.36495 -3.34151 3.39119e-20)
(5.22454 -3.52886 -1.06487e-18)
(5.07732 -3.71197 3.77696e-21)
(4.92546 -3.88894 5.26664e-19)
(4.76808 -4.06177 0)
(6.2666 -0.0974447 -3.27742e-20)
(6.26119 -0.319051 3.27738e-20)
(6.2463 -0.54069 0)
(6.22192 -0.761915 1.23445e-19)
(6.18809 -0.98229 4.0099e-19)
(6.14487 -1.20139 -5.068e-19)
(6.09235 -1.41879 -5.37527e-19)
(6.03063 -1.63409 0)
(5.95981 -1.84689 0)
(5.88004 -2.05681 0)
(5.79147 -2.26351 -9.92296e-19)
(5.69427 -2.46665 -6.40671e-20)
(5.58863 -2.66593 -5.03131e-19)
(5.47474 -2.86114 3.01575e-20)
(5.35289 -3.05204 -9.94991e-19)
(5.2233 -3.23879 1.51637e-18)
(5.08668 -3.42094 -1.43679e-18)
(4.94309 -3.60007 4.87733e-19)
(4.79579 -3.77321 9.35004e-19)
(4.64208 -3.94525 0)
(6.10743 -0.0960862 2.9444e-20)
(6.10158 -0.311156 0)
(6.08658 -0.526248 -1.21222e-19)
(6.06243 -0.740924 -2.49787e-19)
(6.02915 -0.954766 1.2107e-19)
(5.98682 -1.16737 9.66794e-19)
(5.93551 -1.37832 0)
(5.87531 -1.58725 -4.65626e-19)
(5.80634 -1.79377 -2.38152e-19)
(5.72872 -1.99753 -4.47397e-19)
(5.64259 -2.19819 -1.79003e-19)
(5.5481 -2.39544 -1.41249e-18)
(5.4454 -2.58901 -9.32328e-19)
(5.33464 -2.7787 9.5907e-19)
(5.21607 -2.96431 9.1801e-19)
(5.08968 -3.14608 -3.88081e-21)
(4.9563 -3.32366 2.99088e-20)
(4.81516 -3.49963 4.49398e-19)
(4.67138 -3.67021 -9.18735e-19)
(4.51821 -3.84525 0)
(5.95601 -0.094414 -6.15732e-20)
(5.94986 -0.303226 3.03114e-20)
(5.93491 -0.512126 -1.21099e-19)
(5.91112 -0.720723 1.21043e-19)
(5.87854 -0.928625 -3.48135e-19)
(5.8372 -1.13544 -1.08405e-18)
(5.78717 -1.34079 0)
(5.72852 -1.5443 4.92671e-19)
(5.66135 -1.74562 -4.60659e-19)
(5.58575 -1.9444 9.75476e-19)
(5.50184 -2.14033 9.69679e-19)
(5.40972 -2.33309 1.42863e-18)
(5.30953 -2.52242 -9.27012e-19)
(5.2013 -2.70812 4.61748e-19)
(5.08529 -2.89001 -4.54099e-19)
(4.96111 -3.0683 4.54122e-19)
(4.82987 -3.24272 0)
(4.68888 -3.41649 4.11142e-19)
(4.54716 -3.58544 -4.02331e-19)
(4.38959 -3.77171 0)
(7.1394 7.26139 0)
(7.41935 6.97161 0)
(7.6864 6.67225 1.08648e-18)
(7.94125 6.36382 2.02232e-20)
(8.18333 6.04603 -1.14951e-18)
(8.41199 5.71893 0)
(8.62681 5.38295 1.18621e-18)
(8.82745 5.0386 -2.23797e-18)
(9.01361 4.68646 -1.131e-18)
(9.18499 4.32715 -1.14156e-18)
(9.34133 3.96129 1.14156e-18)
(9.4824 3.58954 -1.15364e-18)
(9.60801 3.21259 5.75461e-19)
(9.71796 2.83114 5.49231e-19)
(9.81209 2.44584 5.51377e-19)
(9.89035 2.05738 -5.85174e-19)
(9.95271 1.66641 5.85174e-19)
(9.99925 1.27362 -2.93764e-19)
(10.0299 0.879435 -1.39536e-19)
(10.0452 0.485188 7.34973e-20)
(7.4154 7.0688 0)
(7.69551 6.77943 -9.95516e-19)
(7.96184 6.47849 -2.12837e-18)
(8.21468 6.16667 3.14742e-18)
(8.45378 5.84428 -2.18264e-18)
(8.67863 5.51179 2.19335e-18)
(8.88876 5.16978 1.19247e-18)
(9.08374 4.81892 -3.38376e-18)
(9.26321 4.45991 1.10696e-18)
(9.42678 4.09346 2.20053e-18)
(9.57416 3.7203 1.08415e-18)
(9.70509 3.34118 1.09102e-18)
(9.81941 2.9569 -1.15131e-18)
(9.9169 2.56819 1.6953e-18)
(9.99729 2.17583 -2.3521e-18)
(10.0605 1.78069 5.80568e-19)
(10.1065 1.38359 -5.57873e-19)
(10.1354 0.985326 0)
(10.147 0.586448 1.51516e-20)
(10.1419 0.187928 0)
(7.27198 6.94367 -1.75288e-18)
(7.55489 6.6717 9.84127e-19)
(7.82526 6.38688 1.80012e-18)
(8.08264 6.08987 8.14884e-19)
(8.3266 5.78124 2.04099e-18)
(8.55663 5.46162 2.00038e-20)
(8.77219 5.13166 -1.02301e-18)
(8.97279 4.79207 -3.04873e-18)
(9.15799 4.44356 3.00989e-18)
(9.32734 4.08686 -3.08971e-18)
(9.48046 3.7227 -1.02935e-18)
(9.61706 3.35185 -2.05941e-18)
(9.7368 2.97514 0)
(9.83948 2.59332 0)
(9.92497 2.2073 0)
(9.99309 1.81798 -5.24933e-19)
(10.0437 1.42621 5.4979e-19)
(10.0767 1.03283 5.26626e-19)
(10.0921 0.638572 6.26741e-21)
(10.0898 0.244391 1.32266e-19)
(7.04452 6.69152 1.82052e-18)
(7.32415 6.4382 -1.65319e-18)
(7.59244 6.17177 -1.69528e-19)
(7.84866 5.89277 -1.70487e-19)
(8.09226 5.60175 4.29766e-18)
(8.32267 5.29935 -7.12308e-20)
(8.53935 4.98617 3.76097e-21)
(8.74177 4.66288 -2.71774e-18)
(8.92944 4.33016 1.79313e-18)
(9.10187 3.9887 0)
(9.25857 3.63926 9.61764e-19)
(9.39921 3.28271 9.68416e-19)
(9.52351 2.91979 0)
(9.63114 2.55136 0)
(9.7219 2.17822 0)
(9.79558 1.80121 0)
(9.85199 1.42113 -2.16985e-20)
(9.89102 1.03885 4.74164e-19)
(9.91254 0.655188 -2.27694e-19)
(9.91655 0.271092 0)
(6.78179 6.37681 1.54181e-18)
(7.05356 6.14134 0)
(7.31509 5.89294 -4.53943e-18)
(7.5656 5.63203 -1.54727e-18)
(7.80444 5.35914 -1.62598e-18)
(8.03103 5.0748 -1.72364e-18)
(8.2448 4.77962 8.14353e-19)
(8.44521 4.47418 -8.5582e-19)
(8.63172 4.15912 2.37633e-18)
(8.80388 3.83513 -7.77943e-19)
(8.96127 3.50297 0)
(9.1034 3.16338 0)
(9.22987 2.81705 0)
(9.34041 2.46477 0)
(9.43476 2.10736 -1.22851e-18)
(9.51267 1.74561 4.22431e-19)
(9.57391 1.38033 -4.46236e-19)
(9.61833 1.01236 0)
(9.6458 0.642542 2.24558e-19)
(9.65624 0.27176 0)
(6.50682 6.04965 1.31891e-18)
(6.76835 5.83033 -4.79784e-20)
(7.0206 5.59848 2.77427e-18)
(7.26275 5.35445 1.386e-18)
(7.49416 5.09871 0)
(7.71425 4.83175 -1.47182e-18)
(7.92244 4.5541 6.84692e-20)
(8.11819 4.26633 -1.49416e-18)
(8.30099 3.96903 2.06701e-18)
(8.47034 3.66284 3.2725e-20)
(8.62583 3.3484 2.81032e-20)
(8.767 3.02633 -7.4558e-19)
(8.89344 2.69738 1.46223e-18)
(9.00483 2.36229 0)
(9.1009 2.02177 6.85317e-20)
(9.18136 1.67666 7.46532e-19)
(9.24594 1.32772 1.63609e-21)
(9.29445 0.975745 -1.53379e-20)
(9.32677 0.621522 0)
(9.34276 0.265889 -4.62824e-20)
(6.24092 5.73269 0)
(6.49112 5.52734 -4.89027e-20)
(6.73278 5.31 1.75491e-20)
(6.96514 5.08095 -2.50775e-18)
(7.18756 4.8406 0)
(7.39948 4.5894 1.2683e-18)
(7.60034 4.32785 1.35095e-18)
(7.78961 4.05644 -3.93043e-18)
(7.9668 3.77572 -6.82407e-20)
(8.13144 3.48626 -1.26204e-18)
(8.28308 3.18866 6.94913e-19)
(8.42131 2.88353 -6.41897e-19)
(8.54572 2.57156 -7.05668e-19)
(8.65595 2.25341 0)
(8.75174 1.92982 3.72299e-19)
(8.8329 1.60139 -1.68987e-20)
(8.89903 1.26898 -3.45603e-19)
(8.94991 0.933331 -1.67608e-20)
(8.98545 0.595181 -8.69974e-20)
(9.00546 0.255306 1.74368e-19)
(5.9953 5.43749 0)
(6.23391 5.24399 1.08434e-18)
(6.46458 5.03906 1.61599e-20)
(6.68658 4.82297 -1.10046e-18)
(6.89931 4.59606 0)
(7.10222 4.35874 1.14486e-18)
(7.29479 4.11147 -1.09305e-18)
(7.47652 3.85469 -1.21007e-18)
(7.64693 3.58892 2.30165e-18)
(7.80558 3.31468 1.24197e-18)
(7.95204 3.03253 0)
(8.08591 2.74305 6.05765e-19)
(8.20682 2.44687 -4.38439e-21)
(8.31443 2.14463 2.18549e-20)
(8.40834 1.83699 0)
(8.48842 1.52459 -5.96254e-19)
(8.55449 1.20804 -3.12382e-19)
(8.60615 0.888156 4.56406e-19)
(8.64328 0.565659 3.07725e-19)
(8.66571 0.24126 -4.11332e-20)
(5.77361 5.169 0)
(6.00097 4.98548 -9.36476e-19)
(6.22083 4.79111 0)
(6.43253 4.58611 -1.01038e-18)
(6.63549 4.37081 1.9892e-18)
(6.82919 4.14557 -2.02865e-18)
(7.01314 3.91079 3.17447e-18)
(7.18689 3.6669 -3.16531e-18)
(7.34997 3.41438 -2.13858e-18)
(7.50198 3.15371 -1.57731e-18)
(7.6425 2.88543 5.40894e-19)
(7.77117 2.61008 -1.12138e-18)
(7.88763 2.32824 1.86384e-20)
(7.99154 2.0405 1.11471e-18)
(8.08264 1.74747 -2.80434e-19)
(8.16053 1.44986 1.14881e-18)
(8.22513 1.14816 -5.65021e-19)
(8.27627 0.843083 2.60316e-19)
(8.31368 0.535352 -1.48465e-19)
(8.33717 0.225639 0)
(5.57561 4.92759 0)
(5.79235 4.75253 1.81168e-18)
(6.00195 4.56717 8.78763e-19)
(6.20377 4.37172 -9.04578e-19)
(6.39726 4.16646 -1.85302e-18)
(6.58196 3.9517 2.81972e-18)
(6.7574 3.72783 1.12766e-20)
(6.92316 3.49525 -9.1907e-19)
(7.07882 3.25441 1.97316e-18)
(7.22399 3.00576 1.01908e-18)
(7.35829 2.74981 -9.52059e-19)
(7.48137 2.48708 4.99927e-19)
(7.59289 2.21812 2.25229e-20)
(7.69254 1.94347 -5.26054e-19)
(7.78005 1.66373 -2.54911e-19)
(7.85513 1.37946 5.11131e-19)
(7.91755 1.09137 -2.5622e-19)
(7.9672 0.799957 -5.17045e-19)
(8.0039 0.505896 5.99122e-20)
(8.02741 0.209837 6.47871e-20)
(5.39906 4.71123 0)