/*--------------------------------*- C++ -*----------------------------------*\
  =========                 |
  \\      /  F ield         | OpenFOAM: The Open Source CFD Toolbox
   \\    /   O peration     | Website:  https://openfoam.org
    \\  /    A nd           | Version:  6.0
     \\/     M anipulation  |
\*---------------------------------------------------------------------------*/
FoamFile
{
    version     2.0;
    format      ascii;
    class       volScalarField;
    location    "3.2515";
    object      p;
}
// * * * * * * * * * * * * * * * * * * * * * * * * * * * * * * * * * * * * * //

dimensions      [0 2 -2 0 0 0 0];

internalField   nonuniform List<scalar> 
2400
(
-99.2051
-69.2399
-50.8504
-38.1033
-28.5102
-21.4058
-16.187
-12.3261
-9.44247
-7.34774
-99.6021
-69.5831
-51.1453
-38.3637
-28.7488
-21.6312
-16.4036
-12.5353
-9.64588
-7.55036
-99.9967
-69.9151
-51.4307
-38.6194
-28.9871
-21.86
-16.6272
-12.755
-9.8634
-7.77033
-100.382
-70.2353
-51.7052
-38.868
-29.2217
-22.0877
-16.8519
-12.9789
-10.0899
-8.00536
-100.749
-70.5359
-51.9639
-39.1058
-29.45
-22.3116
-17.0738
-13.2007
-10.3177
-8.24685
-101.088
-70.8079
-52.1959
-39.3228
-29.6654
-22.53
-17.2948
-13.4229
-10.5454
-8.48691
-101.401
-71.0441
-52.3873
-39.5003
-29.848
-22.7275
-17.5091
-13.6504
-10.7855
-8.74125
-101.692
-71.2437
-52.5284
-39.618
-29.9653
-22.8601
-17.669
-13.847
-11.0313
-9.04962
-101.958
-71.4094
-52.6239
-39.674
-29.9987
-22.8802
-17.6879
-13.8947
-11.1713
-9.35587
-102.162
-71.5388
-52.6887
-39.6904
-29.9722
-22.803
-17.5492
-13.7049
-10.9907
-9.25763
-102.476
-102.567
-102.589
-102.578
-102.547
-102.5
-102.442
-102.379
-102.317
-102.253
-71.4385
-71.5497
-71.6181
-71.659
-71.6798
-71.6845
-71.6781
-71.6663
-71.6494
-71.6156
-52.4886
-52.5893
-52.6588
-52.7033
-52.727
-52.7359
-52.7379
-52.7388
-52.7366
-52.7262
-39.5536
-39.6297
-39.6768
-39.6986
-39.7006
-39.6907
-39.6793
-39.6725
-39.6763
-39.6878
-29.9256
-29.9756
-29.9961
-29.9912
-29.9679
-29.9346
-29.9051
-29.8878
-29.8971
-29.9299
-22.828
-22.8563
-22.8542
-22.8262
-22.7804
-22.7242
-22.6765
-22.6462
-22.6609
-22.7127
-17.6197
-17.6321
-17.613
-17.5671
-17.5014
-17.4225
-17.3548
-17.3069
-17.3283
-17.3933
-13.7738
-13.7764
-13.7461
-13.6883
-13.6063
-13.506
-13.4133
-13.3387
-13.3707
-13.4518
-10.9164
-10.9147
-10.8796
-10.8177
-10.7267
-10.6114
-10.4905
-10.3766
-10.4053
-10.5413
-8.82493
-8.81229
-8.76857
-8.70119
-8.60262
-8.47746
-8.32616
-8.15957
-8.10194
-8.28722
-97.6222
-98.3696
-99.0406
-99.6704
-100.26
-100.794
-101.263
-101.664
-101.999
-102.272
-67.0426
-67.6981
-68.314
-68.8941
-69.431
-69.915
-70.3406
-70.7069
-71.0145
-71.2614
-48.6756
-49.256
-49.8093
-50.3259
-50.7948
-51.211
-51.5735
-51.8832
-52.1396
-52.3428
-36.257
-36.7827
-37.2809
-37.7389
-38.1469
-38.5031
-38.8091
-39.0667
-39.2762
-39.4388
-27.0371
-27.5227
-27.9771
-28.3872
-28.7466
-29.0561
-29.3184
-29.5357
-29.7086
-29.8387
-20.2449
-20.7068
-21.1301
-21.5021
-21.8228
-22.0966
-22.326
-22.5131
-22.6585
-22.7638
-15.2495
-15.707
-16.1138
-16.4556
-16.7448
-16.9906
-17.1948
-17.3593
-17.4847
-17.5721
-11.5356
-11.9935
-12.3961
-12.7191
-12.9862
-13.211
-13.397
-13.5466
-13.6597
-13.7364
-8.80953
-9.21988
-9.60418
-9.92415
-10.182
-10.3913
-10.5637
-10.7048
-10.8121
-10.8839
-7.09485
-7.37315
-7.64472
-7.95426
-8.20404
-8.38603
-8.53144
-8.65299
-8.74572
-8.80474
-3.04833
-4.8827
-7.48363
-11.0003
-15.7681
-22.2637
-31.0505
-42.8092
-60.2073
-89.6285
-3.31448
-5.16434
-7.77541
-11.3055
-16.092
-22.613
-31.4357
-43.247
-60.7218
-90.2408
-3.61395
-5.48138
-8.10416
-11.65
-16.4575
-23.0067
-31.8694
-43.738
-61.2896
-90.8936
-3.94625
-5.83204
-8.46689
-12.0297
-16.86
-23.4397
-32.3458
-44.2773
-61.9134
-91.6083
-4.30938
-6.21533
-8.86266
-12.4429
-17.296
-23.9068
-32.8581
-44.8567
-62.5859
-92.3836
-4.70338
-6.62722
-9.28534
-12.8828
-17.7594
-24.4021
-33.4001
-45.4698
-63.2982
-93.2069
-5.13524
-7.07543
-9.73891
-13.3493
-18.247
-24.9208
-33.9659
-46.1083
-64.0405
-94.0658
-5.59378
-7.53736
-10.2013
-13.826
-18.7476
-25.4538
-34.5465
-46.7621
-64.8023
-94.9493
-6.10924
-8.03132
-10.6769
-14.3112
-19.2556
-25.9926
-35.1304
-47.4189
-65.5717
-95.8488
-6.57845
-8.4491
-11.1097
-14.7835
-19.759
-26.526
-35.7059
-48.0644
-66.3296
-96.7509
-2.59361
-4.06328
-6.40863
-9.77343
-14.4052
-20.7382
-29.3034
-40.7219
-57.5736
-86.2356
-2.71691
-4.26173
-6.62878
-9.96364
-14.553
-20.8509
-29.39
-40.7917
-57.646
-86.3482
-2.53233
-4.21161
-6.66908
-10.0441
-14.6474
-20.9488
-29.4885
-40.8917
-57.7547
-86.4817
-2.38256
-4.11938
-6.62954
-10.0476
-14.6876
-21.019
-29.5836
-41.0107
-57.9033
-86.6711
-2.32422
-4.08085
-6.613
-10.0541
-14.7218
-21.0838
-29.6813
-41.1474
-58.0904
-86.9205
-2.32816
-4.10022
-6.64764
-10.1026
-14.7881
-21.1735
-29.8018
-41.3117
-58.3173
-87.2241
-2.37877
-4.16617
-6.72823
-10.1966
-14.8978
-21.3037
-29.9613
-41.5163
-58.5904
-87.5812
-2.47732
-4.2774
-6.85164
-10.3332
-15.051
-21.478
-30.166
-41.7688
-58.9161
-87.9966
-2.62484
-4.4354
-7.01904
-10.5125
-15.2469
-21.6963
-30.4164
-42.0702
-59.2971
-88.4769
-2.81755
-4.63891
-7.23089
-10.7356
-15.4866
-21.9588
-30.7122
-42.4193
-59.7317
-89.0246
-1.73064
-1.50922
-1.51356
-1.63125
-1.78718
-1.96346
-2.1643
-2.38338
-2.62899
-2.89911
-3.62513
-3.45555
-3.4006
-3.488
-3.62885
-3.80711
-4.01437
-4.24437
-4.50185
-4.7841
-6.1323
-6.01891
-5.97216
-6.04388
-6.17457
-6.35472
-6.56925
-6.81227
-7.08433
-7.38258
-9.58081
-9.48927
-9.46253
-9.52892
-9.6547
-9.83518
-10.0551
-10.3091
-10.5944
-10.9082
-14.2707
-14.1988
-14.1912
-14.2606
-14.3894
-14.5741
-14.8022
-15.0687
-15.3693
-15.7012
-20.6471
-20.6008
-20.6136
-20.6932
-20.8323
-21.0275
-21.2695
-21.5532
-21.8743
-22.23
-29.2452
-29.2248
-29.258
-29.3519
-29.5059
-29.7169
-29.9786
-30.286
-30.6354
-31.0241
-40.6844
-40.678
-40.723
-40.8281
-40.9964
-41.2258
-41.5122
-41.8515
-42.2403
-42.6743
-57.5213
-57.4985
-57.534
-57.6397
-57.8174
-58.066
-58.383
-58.766
-59.2091
-59.6992
-86.0952
-86.0124
-86.0144
-86.1058
-86.2843
-86.5479
-86.8958
-87.3268
-87.8294
-88.3702
-3.19504
-3.51283
-3.85273
-4.21138
-4.58136
-4.93844
-5.23683
-5.45245
-5.64558
-5.84846
-5.09221
-5.42163
-5.77115
-6.13511
-6.50461
-6.86105
-7.17535
-7.41342
-7.56886
-7.73294
-7.7065
-8.05088
-8.41357
-8.78778
-9.16386
-9.52569
-9.85303
-10.1213
-10.3203
-10.5056
-11.2479
-11.6071
-11.9828
-12.3678
-12.752
-13.1202
-13.4562
-13.7464
-13.9922
-14.2214
-16.0593
-16.4365
-16.8287
-17.2286
-17.626
-18.0066
-18.3569
-18.6702
-18.9536
-19.2214
-22.6133
-23.0153
-23.4314
-23.8539
-24.2731
-24.6764
-25.0519
-25.3963
-25.7168
-26.0215
-31.4426
-31.8789
-32.3286
-32.7839
-33.236
-33.6738
-34.088
-34.476
-34.8433
-35.1957
-43.1392
-43.619
-44.1122
-44.6119
-45.1098
-45.5968
-46.0663
-46.5162
-46.9502
-47.3708
-60.2122
-60.739
-61.2829
-61.8382
-62.3954
-62.9468
-63.4896
-64.0245
-64.5495
-65.053
-88.905
-89.4689
-90.063
-90.6764
-91.2969
-91.9177
-92.5394
-93.1661
-93.7873
-94.3592
-94.8228
-65.5078
-47.7651
-35.5264
-26.3051
-19.4717
-14.451
-10.7437
-8.0299
-6.12415
-95.2569
-65.9146
-48.1198
-35.8263
-26.5602
-19.6941
-14.6555
-10.9509
-8.24596
-6.30108
-95.6851
-66.2973
-48.4484
-36.1028
-26.7941
-19.8967
-14.8366
-11.1126
-8.36865
-6.36286
-96.1122
-66.6675
-48.7587
-36.3614
-27.0114
-20.0825
-14.9984
-11.2522
-8.47964
-6.44655
-96.5389
-67.0298
-49.058
-36.6089
-27.2183
-20.2577
-15.1472
-11.3759
-8.57533
-6.52292
-96.9693
-67.3889
-49.3507
-36.8502
-27.4206
-20.43
-15.2958
-11.5043
-8.68355
-6.61779
-97.4101
-67.7498
-49.6413
-37.0897
-27.6231
-20.6044
-15.4481
-11.6379
-8.799
-6.72271
-97.8684
-68.118
-49.934
-37.3313
-27.8302
-20.7866
-15.6117
-11.786
-8.93227
-6.84746
-98.3402
-68.4957
-50.2336
-37.5797
-28.0459
-20.9798
-15.7883
-11.9491
-9.0833
-6.99325
-98.7987
-68.8761
-50.5423
-37.8389
-28.2737
-21.187
-15.9808
-12.1299
-9.25428
-7.16128
-2.82745
-1.09297
-0.660406
-0.380587
-0.251399
-0.16752
-0.107227
-0.0638878
-0.0345935
-0.0177367
-0.00892063
-0.00458197
-0.0024073
-0.00126259
-0.00063001
-0.00027439
-8.51438e-05
8.41509e-06
3.41987e-05
4.79809e-05
-3.04951
-1.14696
-0.680794
-0.387398
-0.249426
-0.1641
-0.105232
-0.0640063
-0.0362253
-0.01997
-0.0111636
-0.00655052
-0.00400833
-0.00249948
-0.00154592
-0.000926932
-0.000528035
-0.00027164
-0.000117759
8.60884e-06
-3.29717
-1.22455
-0.70904
-0.400753
-0.25143
-0.163279
-0.104823
-0.0650162
-0.0383468
-0.0224656
-0.0135424
-0.00858579
-0.00564129
-0.00375102
-0.00246904
-0.00158255
-0.000972771
-0.000552213
-0.00027101
-3.09009e-05
-3.57696
-1.32386
-0.743244
-0.419921
-0.257512
-0.165099
-0.10603
-0.0669246
-0.0409495
-0.0252142
-0.0160506
-0.0106843
-0.00730407
-0.00501622
-0.00339834
-0.00224095
-0.00141881
-0.000833553
-0.000424638
-7.09954e-05
-3.87394
-1.43045
-0.777421
-0.442947
-0.267413
-0.169478
-0.108833
-0.0697257
-0.0440231
-0.0282067
-0.0186825
-0.0128431
-0.00899518
-0.0062943
-0.0043333
-0.00290176
-0.00186592
-0.00111548
-0.000578613
-0.000111784
-4.15611
-1.53777
-0.812972
-0.46996
-0.281135
-0.176293
-0.113147
-0.0733772
-0.0475406
-0.0314258
-0.0214281
-0.0150572
-0.0107122
-0.00758399
-0.00527323
-0.00356454
-0.00231384
-0.00139781
-0.000732918
-0.000153374
-4.46565
-1.70769
-0.879078
-0.509369
-0.300994
-0.186177
-0.119126
-0.0779101
-0.0514925
-0.0348524
-0.0242705
-0.0173143
-0.012447
-0.00888026
-0.00621508
-0.00422758
-0.00276168
-0.00168014
-0.000887437
-0.000195849
-5.02231
-2.05944
-1.01559
-0.573287
-0.331731
-0.201328
-0.127778
-0.0837899
-0.0560811
-0.0385603
-0.0272266
-0.0196108
-0.014191
-0.0101752
-0.00715323
-0.00488731
-0.00320743
-0.00196153
-0.00104181
-0.000239203
-5.85836
-2.51839
-1.17945
-0.645857
-0.369854
-0.221512
-0.139479
-0.0914694
-0.0616667
-0.0427845
-0.0304343
-0.0220236
-0.0159865
-0.0114921
-0.00810009
-0.00555018
-0.00365421
-0.0022433
-0.00119656
-0.000283722
-5.88578
-2.60782
-1.19424
-0.658285
-0.386964
-0.233453
-0.147715
-0.0978968
-0.066994
-0.047146
-0.0338862
-0.0246639
-0.0179547
-0.0129262
-0.00912076
-0.00625611
-0.00412433
-0.00253611
-0.00135599
-0.000330957
-4.53053
-2.31713
-1.05043
-0.593474
-0.366709
-0.224222
-0.142867
-0.0968025
-0.068853
-0.0506647
-0.0378465
-0.0282812
-0.0209042
-0.0151668
-0.0107388
-0.00737339
-0.00486032
-0.00298546
-0.00159564
-0.00040291
-3.40131
-2.05536
-1.02034
-0.584322
-0.375822
-0.237646
-0.154111
-0.106298
-0.0770696
-0.0576504
-0.04361
-0.0328603
-0.0244145
-0.0177721
-0.012614
-0.00867913
-0.00573267
-0.00352884
-0.00188974
-0.000488243
-2.59724
-1.76762
-0.974976
-0.570095
-0.37977
-0.252316
-0.168505
-0.118511
-0.0872915
-0.0659745
-0.0502261
-0.0379935
-0.0283006
-0.0206406
-0.0146761
-0.0101169
-0.00669581
-0.00413142
-0.00221648
-0.00058313
-1.9981
-1.50285
-0.939513
-0.576471
-0.388864
-0.268389
-0.185129
-0.132669
-0.0990981
-0.0756252
-0.0579101
-0.0439506
-0.0327983
-0.0239483
-0.0170442
-0.0117613
-0.00779339
-0.00481604
-0.00258609
-0.000691253
-1.58623
-1.26489
-0.870566
-0.570281
-0.395037
-0.283724
-0.203689
-0.14926
-0.112873
-0.0867899
-0.0667289
-0.0507368
-0.0378901
-0.0276735
-0.0196993
-0.0135984
-0.00901579
-0.00557686
-0.0029953
-0.000811491
-1.26986
-1.06118
-0.795441
-0.56363
-0.405537
-0.300473
-0.223607
-0.167809
-0.128376
-0.0992832
-0.0765294
-0.0582261
-0.0434758
-0.0317405
-0.0225871
-0.0155905
-0.0103381
-0.00639861
-0.00343585
-0.000941356
-1.03248
-0.897307
-0.7192
-0.547145
-0.412559
-0.31554
-0.242604
-0.186705
-0.144666
-0.112499
-0.0869017
-0.0661378
-0.0493579
-0.0360093
-0.0256089
-0.0176695
-0.0117151
-0.00725294
-0.00389241
-0.00107633
-0.859764
-0.770597
-0.651169
-0.526145
-0.416066
-0.328401
-0.259366
-0.204161
-0.160304
-0.125394
-0.0970858
-0.0739282
-0.0551505
-0.0402068
-0.0285743
-0.0197056
-0.0130609
-0.00808662
-0.00433653
-0.00120799
-0.742587
-0.681038
-0.598294
-0.505649
-0.415839
-0.337453
-0.272203
-0.218111
-0.173319
-0.136377
-0.105853
-0.0806759
-0.0601832
-0.043856
-0.0311507
-0.0214726
-0.0142274
-0.00880828
-0.00471965
-0.00132193
-0.679745
-0.631565
-0.567385
-0.49214
-0.414409
-0.34228
-0.279665
-0.226456
-0.181337
-0.143284
-0.111425
-0.0849922
-0.0634165
-0.0462058
-0.0328112
-0.0226119
-0.0149792
-0.00927333
-0.00496513
-0.00139516
-6.39393
-6.32293
-6.22691
-6.1142
-5.97005
-5.80412
-5.57785
-5.32609
-4.98996
-4.89531
-4.37014
-4.28163
-4.17581
-4.05861
-3.92313
-3.78002
-3.61955
-3.49165
-3.38853
-3.43836
-3.16137
-3.10625
-3.04419
-2.98053
-2.91738
-2.86177
-2.8125
-2.77553
-2.72938
-2.69929
-2.3771
-2.35006
-2.31947
-2.28692
-2.25215
-2.21421
-2.16955
-2.11877
-2.0634
-2.02967
-1.81593
-1.8014
-1.78314
-1.76152
-1.73697
-1.71036
-1.68293
-1.65716
-1.63377
-1.6192
-1.40846
-1.40364
-1.39625
-1.3867
-1.37546
-1.36294
-1.34927
-1.33452
-1.31834
-1.30431
-1.11607
-1.11709
-1.11576
-1.11225
-1.10674
-1.09945
-1.09059
-1.08049
-1.06942
-1.05905
-0.911057
-0.915055
-0.916915
-0.916754
-0.91472
-0.910979
-0.905701
-0.899062
-0.891204
-0.882709
-0.777471
-0.782797
-0.786154
-0.78762
-0.78729
-0.785278
-0.781704
-0.776704
-0.770412
-0.763067
-0.708226
-0.713964
-0.717857
-0.719955
-0.720329
-0.719055
-0.71622
-0.711925
-0.706271
-0.699371
-5.95419
-6.11189
-5.90323
-6.05587
-6.24167
-6.32859
-6.37396
-6.41232
-6.4364
-6.43365
-4.64269
-4.7452
-4.36049
-4.30378
-4.42904
-4.49878
-4.50282
-4.49078
-4.47222
-4.4351
-3.3682
-3.44132
-3.14593
-3.05277
-3.14691
-3.23678
-3.26148
-3.25232
-3.23326
-3.20445
-2.36365
-2.46639
-2.31868
-2.25866
-2.31948
-2.39515
-2.42803
-2.42764
-2.41546
-2.39889
-1.70699
-1.81976
-1.77098
-1.73958
-1.76734
-1.81097
-1.83564
-1.83994
-1.83494
-1.82682
-1.27596
-1.3602
-1.35281
-1.34196
-1.35592
-1.38028
-1.39865
-1.40756
-1.41059
-1.4107
-0.965948
-1.01815
-1.0277
-1.03414
-1.04967
-1.06911
-1.08598
-1.09829
-1.10685
-1.11267
-0.748659
-0.784074
-0.802296
-0.818605
-0.837021
-0.85553
-0.871918
-0.885472
-0.896357
-0.904843
-0.614949
-0.643534
-0.664739
-0.683849
-0.702467
-0.719996
-0.735691
-0.749272
-0.760736
-0.770127
-0.549353
-0.575123
-0.596835
-0.616283
-0.63444
-0.651244
-0.666386
-0.679688
-0.691098
-0.700609
0.904501
0.897249
0.876607
0.836531
0.765243
0.63709
0.421723
0.00866635
-0.74655
-3.16499
0.827477
0.817036
0.790891
0.74156
0.65739
0.508187
0.271437
-0.209913
-0.994561
-3.01214
0.741289
0.72839
0.697679
0.641171
0.548044
0.3864
0.141307
-0.345249
-1.04564
-2.26972
0.646659
0.63168
0.597006
0.535366
0.435702
0.272917
0.0278155
-0.37549
-0.948051
-1.59792
0.545662
0.529268
0.491795
0.428116
0.325521
0.175571
-0.0542966
-0.335061
-0.773184
-1.17757
0.441972
0.425093
0.386809
0.324773
0.226021
0.0978712
-0.0984993
-0.293706
-0.61901
-0.937612
0.341043
0.324624
0.287969
0.230576
0.142354
0.0347791
-0.123199
-0.28083
-0.520174
-0.768115
0.24995
0.234706
0.201499
0.150126
0.0745949
-0.0177996
-0.143599
-0.278424
-0.451175
-0.629365
0.177169
0.163364
0.13398
0.0883877
0.0237756
-0.056728
-0.158346
-0.27102
-0.399287
-0.530654
0.133204
0.120491
0.0938088
0.052243
-0.00543159
-0.0777908
-0.165295
-0.263283
-0.37012
-0.479596
1.33494
1.3419
1.35549
1.3742
1.39663
1.40891
1.41642
1.33984
1.23621
0.546139
1.29402
1.29973
1.30982
1.32296
1.33636
1.33657
1.32182
1.22505
1.04961
0.368288
1.2526
1.25705
1.26364
1.2712
1.27541
1.26345
1.22557
1.10803
0.857873
0.172203
1.21084
1.21405
1.21719
1.21916
1.2141
1.18982
1.12835
0.988883
0.661768
-0.0437923
1.1689
1.1709
1.17066
1.16705
1.15277
1.11588
1.03083
0.8676
0.46332
-0.276208
1.12695
1.12777
1.12426
1.11509
1.09169
1.04183
0.933643
0.743997
0.264012
-0.533572
1.08514
1.08482
1.0782
1.0635
1.03115
0.967834
0.837369
0.617674
0.0696505
-0.816187
1.04361
1.04225
1.03269
1.01253
0.971409
0.89408
0.742461
0.487934
-0.118905
-1.16811
1.00247
1.00016
0.987877
0.962307
0.912567
0.820629
0.648951
0.353761
-0.285319
-1.59495
0.961635
0.958096
0.943025
0.912015
0.853793
0.747079
0.556435
0.212782
-0.459545
-2.26274
1.68318
1.70111
1.74268
1.80933
1.90396
2.02641
2.1745
2.33231
2.20172
0.214052
1.65498
1.67201
1.7118
1.775
1.86415
1.97687
2.10786
2.23643
2.18034
0.19162
1.62517
1.64127
1.67873
1.73753
1.8199
1.92223
2.04337
2.15475
2.23553
0.682861
1.59372
1.60885
1.64391
1.69831
1.77425
1.86695
1.98084
2.07335
2.23963
0.971837
1.56068
1.57479
1.60729
1.6572
1.72672
1.80935
1.91439
1.98047
2.16261
1.04847
1.52614
1.53915
1.5689
1.61408
1.67678
1.74849
1.84222
1.87913
2.04172
1.05292
1.4902
1.50206
1.52886
1.56906
1.62449
1.68466
1.76501
1.77494
1.90368
1.02638
1.45296
1.46363
1.48732
1.52233
1.57007
1.61841
1.68345
1.6695
1.7533
0.959667
1.41457
1.42402
1.44445
1.47412
1.51378
1.55015
1.59787
1.56213
1.59034
0.850212
1.37518
1.38339
1.40044
1.42466
1.45587
1.48021
1.50867
1.45225
1.41697
0.707947
1.97705
1.97716
1.9769
1.97546
1.97095
1.96067
1.94081
1.90711
1.85359
1.77518
1.97629
1.97832
1.98185
1.98591
1.98843
1.98603
1.97454
1.94803
1.9002
1.82289
1.97052
1.97559
1.9853
1.99849
2.01294
2.02426
2.0279
2.01457
1.97829
1.90346
1.95613
1.96484
1.982
2.00647
2.03601
2.06526
2.08913
2.09456
2.07581
2.00725
1.93182
1.94422
1.96907
2.00557
2.05149
2.10104
2.14755
2.17576
2.17702
2.12565
1.89839
1.91404
1.94584
1.99372
2.05577
2.12618
2.19564
2.24723
2.26238
2.2361
1.85798
1.87606
1.91336
1.97075
2.04731
2.13783
2.2306
2.30182
2.31314
2.28559
1.81325
1.8328
1.87376
1.93796
2.02603
2.13486
2.25307
2.33806
2.31033
2.17432
1.76679
1.78687
1.82969
1.8976
1.99281
2.11586
2.26309
2.36934
2.23271
1.7724
1.72059
1.74012
1.78303
1.85145
1.94841
2.07656
2.24772
2.43916
2.27932
1.11991
1.70679
1.67602
1.64212
1.60605
1.56793
1.52761
1.48508
1.44041
1.39374
1.34523
1.75325
1.72029
1.68257
1.64268
1.60072
1.55617
1.50884
1.45885
1.40638
1.35159
1.83526
1.79831
1.75267
1.705
1.65573
1.60355
1.5479
1.48888
1.42678
1.36177
1.94776
1.90535
1.84693
1.7874
1.72797
1.66575
1.59948
1.52944
1.45612
1.37977
2.09647
2.04682
1.96876
1.89319
1.82149
1.74813
1.6716
1.59281
1.51261
1.43138
2.28468
2.22991
2.13611
2.04964
1.96852
1.88675
1.80444
1.72299
1.64272
1.56296
2.46151
2.40633
2.31037
2.21515
2.11769
2.01693
1.91408
1.81026
1.70567
1.59975
2.40572
2.36071
2.29043
2.20964
2.11139
2.00058
1.87847
1.7484
1.61049
1.46375
2.10859
2.14372
2.07188
1.96615
1.81953
1.66008
1.48362
1.29611
1.09233
0.870133
1.05936
1.04112
0.828437
0.648604
0.447311
0.251267
0.0356318
-0.193041
-0.446337
-0.724209
1.29503
1.24333
1.19034
1.13626
1.08132
1.02576
0.969826
0.913748
0.857766
0.802108
1.29468
1.23586
1.17534
1.11339
1.05024
0.986144
0.921349
0.856082
0.790641
0.725082
1.29402
1.2237
1.151
1.07617
0.999425
0.92101
0.841123
0.759872
0.677662
0.59392
1.30051
1.21846
1.13374
1.04648
0.956837
0.86512
0.771859
0.677805
0.583714
0.48832
1.34946
1.26725
1.18502
1.10261
1.01913
0.932807
0.841502
0.74295
0.631844
0.492988
1.48232
1.39893
1.31043
1.21434
1.1087
0.992563
0.863711
0.712465
0.518837
0.281593
1.49107
1.37699
1.25305
1.11458
0.961135
0.795302
0.603195
0.337181
-0.030044
-0.359128
1.30543
1.13102
0.932461
0.70239
0.446218
0.18276
-0.107877
-0.533411
-1.12361
-1.48505
0.626807
0.359438
0.0592768
-0.282697
-0.659537
-1.03076
-1.38376
-1.87012
-2.59326
-2.89694
-1.02636
-1.35122
-1.7045
-2.09015
-2.50452
-2.90936
-3.23862
-3.56754
-4.15535
-4.38721
0.667025
0.455149
0.259962
0.116885
0.0461201
0.0327992
0.0451657
0.060262
0.0696581
0.0719322
0.067786
0.059295
0.0489071
0.0384351
0.028927
0.0208545
0.0143095
0.00910039
0.00497392
0.00141494
0.565147
0.303527
0.0911219
-0.0276247
-0.0579294
-0.0362341
0.000855584
0.0327841
0.0532971
0.062172
0.0616262
0.0551774
0.0460488
0.0364048
0.027481
0.0198429
0.0136276
0.00867181
0.00474573
0.00135006
0.398117
-0.016672
-0.254991
-0.295471
-0.236843
-0.150251
-0.0697404
-0.00902145
0.0293296
0.0480422
0.0526656
0.0491216
0.0417787
0.0333276
0.0252679
0.0182851
0.0125735
0.00800796
0.00438969
0.00124948
0.251573
-0.456658
-0.671092
-0.606863
-0.452798
-0.287798
-0.150596
-0.0539995
0.00443902
0.033366
0.0431981
0.0425651
0.0370324
0.02984
0.0227308
0.0164882
0.0113535
0.00723816
0.00397501
0.00113271
0.06731
-0.870005
-0.907479
-0.810569
-0.620807
-0.402983
-0.21943
-0.0922126
-0.0169792
0.0203389
0.0344782
0.0362838
0.0323337
0.0263168
0.0201401
0.0146432
0.0100973
0.00644457
0.00354596
0.0010121
-0.300813
-1.08646
-0.913358
-0.871977
-0.686416
-0.457487
-0.257834
-0.116502
-0.0322793
0.010073
0.0270562
0.0306178
0.0279396
0.0229594
0.0176484
0.0128612
0.00888174
0.00567606
0.0031291
0.000895058
-0.825173
-1.14215
-0.871757
-0.847441
-0.667576
-0.458926
-0.268221
-0.127641
-0.0416866
0.00252679
0.0209536
0.0256417
0.0239499
0.0198634
0.0153344
0.0112016
0.00774845
0.00495949
0.00273927
0.000785715
-1.58867
-1.20381
-0.864632
-0.789086
-0.61622
-0.434594
-0.261826
-0.129892
-0.0467452
-0.00286173
0.0160009
0.0213558
0.0204206
0.0170906
0.0132496
0.00970221
0.00672297
0.00431058
0.00238508
0.00068656
-2.45264
-1.33737
-0.867839
-0.737621
-0.567901
-0.40516
-0.249
-0.127647
-0.049095
-0.00662188
0.0121067
0.0178089
0.0174208
0.0146963
0.011432
0.00838699
0.00581963
0.00373724
0.00207071
0.000598969
-2.81621
-1.4032
-0.808225
-0.675597
-0.512919
-0.370036
-0.231806
-0.122421
-0.0496009
-0.00935519
0.00877028
0.0145882
0.0146408
0.0124682
0.00974577
0.00717422
0.0049922
0.00321585
0.00178586
0.000519368
-2.25489
-1.30108
-0.68419
-0.583056
-0.435306
-0.318788
-0.204848
-0.112409
-0.0488061
-0.0125505
0.00455134
0.010695
0.0115168
0.0101392
0.00809084
0.00604611
0.00425615
0.00277019
0.00154906
0.000450558
-1.93423
-1.26684
-0.663861
-0.547672
-0.402996
-0.293239
-0.187722
-0.103103
-0.0450586
-0.0120666
0.00353985
0.00922462
0.0100902
0.00894935
0.0071784
0.00538773
0.00380676
0.00248655
0.00139344
0.000405667
-1.85775
-1.22658
-0.654377
-0.517112
-0.378721
-0.273972
-0.173884
-0.0945887
-0.0409073
-0.0108758
0.00315522
0.00820538
0.00895652
0.00793791
0.00636932
0.00478583
0.0033862
0.00221571
0.001243
0.000363442
-1.8731
-1.17378
-0.646269
-0.48668
-0.354874
-0.25538
-0.161632
-0.0877233
-0.0379563
-0.0103947
0.00239728
0.00700304
0.0077374
0.00688819
0.00554361
0.0041769
0.00296284
0.00194393
0.00109256
0.000322218
-1.93958
-1.12681
-0.639905
-0.458393
-0.332163
-0.237177
-0.150086
-0.0817994
-0.0358433
-0.0104873
0.00129856
0.00561322
0.00641937
0.00578749
0.0046921
0.0035553
0.00253363
0.00166981
0.000941568
0.00028169
-2.02621
-1.08665
-0.635144
-0.433457
-0.311666
-0.220385
-0.139532
-0.0766282
-0.0342763
-0.0109233
5.29455e-06
0.00412018
0.00504855
0.00466033
0.00382752
0.00292743
0.00210164
0.00139464
0.000790482
0.000241864
-2.13473
-1.05845
-0.632854
-0.412603
-0.293701
-0.205452
-0.130249
-0.0722976
-0.0332438
-0.0116664
-0.00145184
0.00254436
0.00363728
0.00351381
0.00295383
0.00229541
0.00166791
0.00111887
0.000639434
0.000202649
-2.26656
-1.04261
-0.633581
-0.396439
-0.27846
-0.192553
-0.122329
-0.0688584
-0.0327708
-0.012728
-0.00307786
0.000883612
0.00218469
0.00234763
0.00207094
0.00165923
0.00123243
0.000842472
0.000488374
0.000163892
-2.4291
-1.04223
-0.637962
-0.385466
-0.266168
-0.181842
-0.115818
-0.0663127
-0.0328502
-0.0141029
-0.00487016
-0.000860732
0.000691427
0.00116207
0.00117891
0.00101883
0.000795073
0.000565345
0.000337159
0.000125418
-2.61962
-1.05871
-0.646604
-0.380069
-0.257066
-0.17346
-0.110767
-0.0646561
-0.0334633
-0.0157771
-0.0068205
-0.00268416
-0.000840119
-4.16665e-05
0.000278255
0.000374399
0.000355781
0.000287406
0.000185639
8.70428e-05
)
;

boundaryField
{
    inlet
    {
        type            freestreamPressure;
        freestreamValue uniform 0;
        supersonic      false;
        value           nonuniform List<scalar> 
40
(
0.904501
0.827477
0.741289
0.646659
0.545662
0.441972
0.341043
0.24995
0.177169
0.133204
1.33494
1.29402
1.2526
1.21084
1.1689
1.12695
1.08514
1.04361
1.00247
0.961635
1.68318
1.65498
1.62517
1.59372
1.56068
1.52614
1.4902
1.45296
1.41457
1.37518
1.97705
1.97629
1.97052
1.95613
1.93182
1.89839
1.85798
1.81325
1.76679
1.72059
)
;
    }
    outlet
    {
        type            freestreamPressure;
        freestreamValue uniform 0;
        supersonic      false;
        value           nonuniform List<scalar> 
40
(
-1.95326e-09
-2.22884e-09
-2.45272e-09
-2.60222e-09
-2.61855e-09
-2.44093e-09
-2.02733e-09
-1.3891e-09
-6.47276e-10
-8.51848e-11
2.68886e-10
4.79134e-11
-1.70553e-10
-3.88043e-10
-6.04173e-10
-8.18524e-10
-1.03056e-09
-1.23933e-09
-1.44542e-09
-1.65481e-09
2.4883e-09
2.25989e-09
2.03825e-09
1.81651e-09
1.59395e-09
1.37159e-09
1.14995e-09
9.29217e-10
7.09394e-10
4.90422e-10
1.24829e-10
9.33524e-10
1.9646e-09
2.81657e-09
3.34614e-09
3.56461e-09
3.54489e-09
3.37248e-09
3.12235e-09
2.82029e-09
)
;
    }
    top
    {
        type            symmetryPlane;
    }
    bottom
    {
        type            symmetryPlane;
    }
    cylinder
    {
        type            zeroGradient;
    }
    frontandback
    {
        type            empty;
    }
}


// ************************************************************************* //
