/*--------------------------------*- C++ -*----------------------------------*\
| =========                 |                                                 |
| \\      /  F ield         | OpenFOAM: The Open Source CFD Toolbox           |
|  \\    /   O peration     | Version:  v1912                                 |
|   \\  /    A nd           | Website:  www.openfoam.com                      |
|    \\/     M anipulation  |                                                 |
\*---------------------------------------------------------------------------*/
FoamFile
{
    version     2.0;
    format      ascii;
    class       volVectorField;
    location    "9.75";
    object      U;
}
// * * * * * * * * * * * * * * * * * * * * * * * * * * * * * * * * * * * * * //

dimensions      [0 1 -1 0 0 0 0];


internalField   nonuniform List<vector> 
19200
(
(0.637065 -19.4431 -6.99279e-20)
(0.132271 -18.6567 0)
(0.306727 -17.9849 0)
(0.283035 -17.4146 0)
(0.303602 -16.897 0)
(0.326864 -16.4101 0)
(0.346831 -15.9419 -1.27351e-20)
(0.365236 -15.4858 1.24896e-20)
(0.381941 -15.0393 0)
(0.396705 -14.602 0)
(0.409603 -14.1746 -1.75133e-20)
(0.420822 -13.758 1.20011e-21)
(0.430571 -13.3532 1.56963e-20)
(0.439063 -12.9609 0)
(0.4465 -12.5816 1.22463e-20)
(0.453059 -12.2155 -8.01049e-22)
(0.458892 -11.8627 -1.1033e-20)
(0.464126 -11.523 0)
(0.468864 -11.1961 0)
(0.473193 -10.8816 0)
(0.477186 -10.5791 0)
(0.480906 -10.2881 0)
(0.484416 -10.0081 6.29475e-21)
(0.487775 -9.73844 -6.19424e-21)
(0.491043 -9.47843 0)
(0.494267 -9.22724 0)
(0.497466 -8.98389 -9.22729e-21)
(0.500767 -8.74731 9.08724e-21)
(0.504486 -8.5163 0)
(0.507593 -8.28962 0)
(1.14507 -19.4225 -9.10139e-20)
(0.622254 -18.6597 4.57842e-20)
(0.779235 -17.9906 0)
(0.74075 -17.4251 0)
(0.747786 -16.9097 0)
(0.75825 -16.4236 0)
(0.765793 -15.9551 -1.04392e-19)
(0.772048 -15.4983 5.01846e-20)
(0.776837 -15.0507 -1.66837e-21)
(0.779916 -14.6122 -2.96159e-21)
(0.781389 -14.1836 -7.30748e-20)
(0.781477 -13.7659 6.6695e-20)
(0.780421 -13.36 -3.15555e-20)
(0.778455 -12.9669 0)
(0.775795 -12.5868 0)
(0.772623 -12.2202 0)
(0.769092 -11.8669 0)
(0.76532 -11.5268 0)
(0.761403 -11.1995 0)
(0.757413 -10.8848 0)
(0.75341 -10.5821 -1.5421e-20)
(0.749444 -10.291 0)
(0.74556 -10.0109 -2.53783e-20)
(0.741801 -9.74129 2.49731e-20)
(0.738211 -9.48138 -2.17048e-20)
(0.734812 -9.23035 2.13669e-20)
(0.731596 -8.98723 0)
(0.728697 -8.75092 1.72766e-20)
(0.726506 -8.52014 -1.70177e-20)
(0.723695 -8.29365 1.5709e-20)
(1.65364 -19.3899 -1.87922e-19)
(1.11218 -18.6501 -8.34602e-20)
(1.25206 -17.9836 5.90619e-21)
(1.19905 -17.4237 7.43898e-20)
(1.19265 -16.9107 0)
(1.19038 -16.4256 -1.13135e-19)
(1.18552 -15.9572 6.13562e-20)
(1.17959 -15.4998 1.00817e-19)
(1.17241 -15.0514 -4.44311e-20)
(1.16374 -14.612 -7.75613e-20)
(1.15372 -14.1825 7.61096e-20)
(1.14262 -13.764 0)
(1.1307 -13.3574 -5.90778e-20)
(1.11823 -12.9637 5.80089e-20)
(1.10543 -12.5832 -5.13893e-20)
(1.0925 -12.2162 0)
(1.07957 -11.8627 0)
(1.06677 -11.5224 0)
(1.05418 -11.1951 0)
(1.04185 -10.8804 6.50568e-20)
(1.02984 -10.5777 -4.85566e-20)
(1.01818 -10.2867 5.53697e-20)
(1.00689 -10.0068 -5.44742e-20)
(0.996009 -9.73736 -4.73013e-20)
(0.985558 -9.47771 9.03337e-20)
(0.975536 -9.22703 -8.36492e-20)
(0.965908 -8.98434 3.99293e-20)
(0.956814 -8.74847 0)
(0.94871 -8.51812 1.67498e-20)
(0.939948 -8.29199 0)
(2.16048 -19.3443 -3.6623e-19)
(1.60126 -18.6278 1.8441e-19)
(1.72465 -17.9644 -1.52386e-19)
(1.65754 -17.4102 1.14107e-20)
(1.63786 -16.9 1.35235e-19)
(1.62293 -16.4161 0)
(1.60568 -15.9481 0)
(1.58755 -15.4905 0)
(1.56835 -15.0416 2.62821e-19)
(1.54788 -14.6016 -5.9583e-21)
(1.52632 -14.1714 -7.64721e-20)
(1.50397 -13.7524 -1.2989e-19)
(1.48115 -13.3454 1.27512e-19)
(1.45813 -12.9514 1.08733e-19)
(1.43517 -12.5708 -5.54003e-20)
(1.41244 -12.2037 0)
(1.3901 -11.8503 0)
(1.36826 -11.5101 0)
(1.34698 -11.183 0)
(1.32631 -10.8684 0)
(1.30628 -10.566 6.0416e-20)
(1.28692 -10.2753 -5.94263e-20)
(1.26823 -9.99571 0)
(1.25022 -9.72667 -4.76814e-20)
(1.23291 -9.46748 9.10739e-20)
(1.21627 -9.21733 -8.4363e-20)
(1.20024 -8.97522 4.02771e-20)
(1.18497 -8.73999 3.5212e-20)
(1.17097 -8.51023 -8.4153e-20)
(1.15623 -8.28468 -3.02156e-20)
(2.66618 -19.286 1.88392e-19)
(2.08982 -18.593 3.48579e-19)
(2.19693 -17.9329 3.18808e-19)
(2.11597 -17.3847 1.38513e-19)
(2.08316 -16.8775 2.51319e-19)
(2.05561 -16.3951 6.5237e-23)
(2.02598 -15.9277 2.23843e-19)
(1.99563 -15.4702 2.97815e-19)
(1.96437 -15.0211 8.9655e-20)
(1.93205 -14.5808 1.62661e-19)
(1.8989 -14.1503 5.48174e-21)
(1.86526 -13.7311 1.40249e-19)
(1.8315 -13.324 4.48962e-21)
(1.79791 -12.93 3.39931e-19)
(1.76475 -12.5495 -3.11471e-19)
(1.73222 -12.1827 1.93758e-19)
(1.70046 -11.8295 0)
(1.66956 -11.4897 0)
(1.63959 -11.163 7.40942e-20)
(1.61058 -10.8489 0)
(1.58253 -10.547 6.29745e-20)
(1.55547 -10.2567 5.61873e-20)
(1.52938 -9.97766 -5.52786e-20)
(1.50426 -9.70919 4.97138e-20)
(1.4801 -9.45063 0)
(1.45686 -9.20118 0)
(1.43445 -8.95986 3.95742e-20)
(1.41302 -8.72544 3.67396e-20)
(1.39313 -8.49646 3.1935e-20)
(1.37243 -8.27169 -6.85547e-20)
(3.17022 -19.2148 -1.89334e-19)
(2.57748 -18.5457 -3.48578e-19)
(2.66855 -17.8891 -4.72381e-19)
(2.57403 -17.3473 -1.27604e-19)
(2.52823 -16.8433 -2.41135e-19)
(2.48812 -16.3626 1.00319e-20)
(2.44613 -15.8962 -2.15658e-19)
(2.40353 -15.439 -1.96112e-19)
(2.36017 -14.99 -1.78513e-19)
(2.31596 -14.5496 -3.1998e-19)
(2.27118 -14.1192 1.1492e-20)
(2.22622 -13.7 2.77069e-19)
(2.18149 -13.2932 -1.19381e-19)
(2.1373 -12.8995 1.18411e-19)
(2.09394 -12.5194 3.09116e-19)
(2.05159 -12.1531 -9.84478e-20)
(2.0104 -11.8004 0)
(1.97045 -11.4613 8.09784e-20)
(1.93179 -11.1352 1.44468e-19)
(1.89444 -10.8218 -2.05635e-19)
(1.85839 -10.5205 6.75855e-20)
(1.82363 -10.231 1.71737e-19)
(1.79015 -9.95263 4.74368e-20)
(1.75793 -9.68492 -1.99478e-19)
(1.72694 -9.42718 1.41736e-19)
(1.69712 -9.17861 0)
(1.66836 -8.93823 3.37926e-22)
(1.64081 -8.70481 7.20474e-20)
(1.61507 -8.4768 -2.06614e-21)
(1.58839 -8.25301 6.54725e-20)
(3.67238 -19.1306 3.58783e-19)
(3.06407 -18.4858 -3.7269e-19)
(3.13928 -17.8331 0)
(3.03144 -17.2979 -2.90603e-19)
(2.97279 -16.7973 -2.53358e-19)
(2.92016 -16.3187 -2.2103e-19)
(2.86581 -15.8534 2.25641e-19)
(2.81095 -15.3968 0)
(2.75547 -14.9482 -1.80082e-19)
(2.69932 -14.5081 0)
(2.64288 -14.078 -2.98823e-19)
(2.58658 -13.6592 -2.72946e-19)
(2.53085 -13.2529 -1.24495e-19)
(2.47606 -12.8598 -1.1397e-19)
(2.42248 -12.4804 9.81427e-20)
(2.37032 -12.1149 -2.94871e-19)
(2.31971 -11.7631 0)
(2.27072 -11.4248 -8.09783e-20)
(2.22338 -11.0996 4.57088e-22)
(2.1777 -10.787 -6.8715e-20)
(2.13366 -10.4867 0)
(2.09122 -10.1981 5.54335e-20)
(2.05037 -9.92063 -1.66274e-19)
(2.01107 -9.65387 3.74269e-22)
(1.97327 -9.39711 4.40593e-20)
(1.9369 -9.1496 -5.14658e-21)
(1.90181 -8.91035 -4.46352e-20)
(1.86817 -8.6781 -1.86133e-19)
(1.83663 -8.45124 3.6831e-20)
(1.80401 -8.22864 0)
(4.17232 -19.0334 -6.2368e-22)
(3.54926 -18.4133 0)
(3.60883 -17.7649 -3.09493e-19)
(3.4879 -17.2364 8.85679e-19)
(3.41653 -16.7396 -1.02092e-20)
(3.35144 -16.2632 2.30191e-19)
(3.28472 -15.7993 4.28404e-19)
(3.21759 -15.3437 -1.48676e-20)
(3.14995 -14.8957 -7.39611e-21)
(3.08186 -14.4563 1.58749e-19)
(3.01372 -14.0268 -2.95865e-19)
(2.94606 -13.6087 4.21272e-19)
(2.87933 -13.2032 -2.42395e-19)
(2.81393 -12.811 2.38009e-19)
(2.75014 -12.4326 -2.03678e-19)
(2.68817 -12.0681 1.30476e-20)
(2.62815 -11.7174 1.83769e-19)
(2.57013 -11.3802 0)
(2.51413 -11.0561 7.08001e-20)
(2.46014 -10.7447 -1.43362e-19)
(2.40812 -10.4455 1.24184e-19)
(2.35804 -10.158 -7.36804e-21)
(2.30984 -9.88168 -1.12926e-19)
(2.26348 -9.61604 -5.04653e-20)
(2.21891 -9.36045 0)
(2.17601 -9.11417 4.37047e-20)
(2.13464 -8.87622 0)
(2.09497 -8.64532 0)
(2.05767 -8.41979 0)
(2.01914 -8.19859 0)
(4.6697 -18.9233 -7.66712e-19)
(4.03274 -18.3282 7.07298e-19)
(4.0769 -17.6844 -6.47172e-19)
(3.94311 -17.163 -2.91717e-19)
(3.85915 -16.6701 9.20726e-21)
(3.78164 -16.1962 1.01002e-20)
(3.70257 -15.734 -2.18357e-19)
(3.62315 -15.2796 0)
(3.54334 -14.8326 0)
(3.46327 -14.3941 -1.22253e-20)
(3.38343 -13.9655 -3.12935e-19)
(3.30439 -13.5485 5.42283e-19)
(3.22666 -13.144 -1.77023e-20)
(3.15064 -12.753 -2.39169e-19)
(3.07666 -12.3759 2.12179e-19)
(3.0049 -12.0128 -1.88049e-19)
(2.93548 -11.6634 3.57684e-19)
(2.86846 -11.3276 -1.69936e-19)
(2.80382 -11.0049 0)
(2.74155 -10.6949 4.68598e-21)
(2.68159 -10.397 8.09778e-21)
(2.62388 -10.1108 3.44864e-21)
(2.56837 -9.83579 0)
(2.51498 -9.57146 0)
(2.46367 -9.31721 0)
(2.4143 -9.07232 -4.37047e-20)
(2.36669 -8.83585 0)
(2.32105 -8.60648 1.47253e-19)
(2.27805 -8.38246 -7.97064e-21)
(2.23366 -8.16288 -2.77033e-19)
(5.1642 -18.8003 1.14975e-18)
(4.5142 -18.2306 -3.64723e-19)
(4.54317 -17.5917 -3.38106e-19)
(4.39677 -17.0775 0)
(4.30034 -16.5888 0)
(4.21045 -16.1176 0)
(4.11905 -15.6574 0)
(4.02733 -15.2046 -7.85947e-19)
(3.93533 -14.7588 3.78087e-19)
(3.84327 -14.3215 3.3113e-19)
(3.75171 -13.8943 0)
(3.66129 -13.4785 -2.76133e-19)
(3.57256 -13.0755 -2.44742e-19)
(3.48596 -12.686 1.60229e-20)
(3.40179 -12.3104 8.10198e-21)
(3.32026 -11.9489 -1.89053e-19)
(3.24148 -11.6012 1.85755e-19)
(3.16548 -11.267 -1.601e-19)
(3.09225 -10.946 1.57376e-19)
(3.02173 -10.6375 -1.40034e-19)
(2.95386 -10.3412 -1.30113e-19)
(2.88856 -10.0565 3.52211e-19)
(2.82576 -9.78298 -3.40268e-19)
(2.76539 -9.52014 1.99607e-19)
(2.70737 -9.26741 -1.9646e-19)
(2.65157 -9.02409 0)
(2.59779 -8.78926 0)
(2.54623 -8.5616 -7.66778e-20)
(2.49761 -8.33929 0)
(2.44744 -8.12154 -2.0612e-19)
(5.65548 -18.6645 -4.07317e-19)
(4.99331 -18.1205 -3.39918e-20)
(5.00733 -17.4867 3.12563e-19)
(4.84857 -16.9801 -2.8353e-19)
(4.73979 -16.4958 -2.57297e-19)
(4.63758 -16.0276 4.86164e-19)
(4.53386 -15.5697 -1.67242e-20)
(4.42983 -15.1186 -4.03525e-19)
(4.32564 -14.6745 3.79622e-19)
(4.22157 -14.2387 3.21661e-19)
(4.1183 -13.813 -6.20474e-19)
(4.0165 -13.3989 2.78609e-19)
(3.91679 -12.9976 -2.54953e-19)
(3.81961 -12.6099 0)
(3.72528 -12.2362 0)
(3.63402 -11.8765 -3.86864e-19)
(3.54591 -11.5307 1.92896e-19)
(3.46097 -11.1985 -1.55827e-19)
(3.37918 -10.8793 9.81579e-21)
(3.30045 -10.5726 4.23478e-21)
(3.22471 -10.2781 2.61033e-19)
(3.15186 -9.99511 1.13178e-19)
(3.08183 -9.72329 -1.1913e-19)
(3.01451 -9.46213 0)
(2.94984 -9.21109 1.86519e-19)
(2.88766 -8.96951 -9.41754e-20)
(2.82776 -8.7365 0)
(2.77036 -8.51072 7.66779e-20)
(2.71619 -8.29028 2.11426e-19)
(2.66032 -8.07459 -7.46771e-20)
(6.14321 -18.5159 3.62466e-19)
(5.46974 -17.9978 -3.40355e-20)
(5.46907 -17.3696 -2.40687e-20)
(5.29818 -16.8706 -3.07841e-19)
(5.17718 -16.391 5.35237e-19)
(5.0627 -15.9261 -9.5557e-19)
(4.94668 -15.4707 9.02208e-19)
(4.83035 -15.0217 3.88558e-19)
(4.71395 -14.5795 -2.70657e-20)
(4.59789 -14.1455 -2.43627e-20)
(4.4829 -13.7217 -1.21315e-20)
(4.36975 -13.3096 -8.81455e-21)
(4.25907 -12.9103 -2.56929e-19)
(4.15134 -12.5248 1.60967e-20)
(4.04689 -12.1532 1.45494e-20)
(3.94593 -11.7957 4.0101e-19)
(3.84854 -11.4521 -1.8099e-19)
(3.75471 -11.122 1.66631e-19)
(3.66439 -10.8049 2.98624e-19)
(3.57751 -10.5003 -1.51882e-19)
(3.49394 -10.2077 -1.3092e-19)
(3.4136 -9.92669 1.2107e-19)
(3.33636 -9.65676 0)
(3.26216 -9.39746 -2.02461e-19)
(3.19089 -9.14828 1.13801e-20)
(3.12238 -8.90861 9.55239e-20)
(3.05643 -8.67759 1.62261e-19)
(2.99326 -8.45386 -1.59798e-19)
(2.93364 -8.23549 6.8727e-20)
(2.87216 -8.02208 -7.47005e-21)
(6.62705 -18.3547 1.93657e-18)
(5.94317 -17.8627 3.70943e-19)
(5.92806 -17.2402 -2.91054e-19)
(5.7453 -16.7492 6.17862e-19)
(5.6122 -16.2745 1.05769e-18)
(5.48551 -15.8131 -1.85753e-20)
(5.3572 -15.3605 0)
(5.22858 -14.9139 0)
(5.09999 -14.4739 0)
(4.97193 -14.0421 3.3664e-19)
(4.84524 -13.6205 0)
(4.72075 -13.2107 0)
(4.59913 -12.8138 2.57224e-19)
(4.48089 -12.4306 -2.27521e-19)
(4.36637 -12.0615 4.32326e-19)
(4.25576 -11.7065 -4.03957e-19)
(4.14912 -11.3653 5.3622e-19)
(4.04645 -11.0375 -1.78856e-19)
(3.94768 -10.7228 1.55301e-19)
(3.85268 -10.4205 -2.77335e-19)
(3.76135 -10.1302 6.61631e-19)
(3.67355 -9.85128 -2.52193e-19)
(3.58918 -9.58343 3.33378e-19)
(3.50813 -9.32618 -1.1773e-19)
(3.43031 -9.07904 -1.0295e-19)
(3.35555 -8.84144 9.07627e-20)
(3.28361 -8.61257 2.4792e-19)
(3.21476 -8.39108 -1.61043e-19)
(3.14979 -8.17496 7.31306e-20)
(3.08282 -7.96406 -6.78391e-20)
(7.10666 -18.1809 2.36829e-21)
(6.41327 -17.7151 2.38815e-21)
(6.38398 -17.0988 6.58641e-19)
(6.18959 -16.6159 -5.73247e-19)
(6.04453 -16.1463 2.27799e-20)
(5.90568 -15.6887 -4.89794e-19)
(5.76512 -15.2391 -4.30106e-19)
(5.62422 -14.7953 8.28538e-19)
(5.48344 -14.3578 0)
(5.3434 -13.9285 -3.36641e-19)
(5.20504 -13.5095 -2.97502e-19)
(5.06924 -13.1022 2.91995e-19)
(4.93672 -12.708 -2.57225e-19)
(4.80802 -12.3275 0)
(4.68347 -11.9611 -2.02394e-19)
(4.56325 -11.6088 6.11092e-19)
(4.44744 -11.2703 -1.82858e-19)
(4.33598 -10.9453 3.28187e-19)
(4.2288 -10.6331 -7.79036e-19)
(4.12575 -10.3333 5.75857e-19)
(4.02671 -10.0454 -6.64757e-19)
(3.93152 -9.76892 2.53714e-19)
(3.84006 -9.50336 -1.13547e-19)
(3.75223 -9.24834 -9.99807e-20)
(3.66792 -9.00342 1.21043e-20)
(3.58697 -8.76806 2.73999e-19)
(3.50912 -8.54152 -3.38566e-19)
(3.43468 -8.32243 1.62279e-19)
(3.36446 -8.10874 -7.31308e-20)
(3.29212 -7.90057 6.90665e-20)
(7.58173 -17.9945 -4.13732e-20)
(6.87971 -17.5553 -1.48491e-18)
(6.83652 -16.9453 -1.29336e-18)
(6.63075 -16.4707 2.37765e-20)
(6.47384 -16.0064 -5.22256e-19)
(6.32291 -15.5529 5.12024e-19)
(6.17012 -15.1067 0)
(6.01697 -14.6658 -4.06726e-19)
(5.86402 -14.2312 0)
(5.71203 -13.8048 0)
(5.56201 -13.3886 -2.98707e-19)
(5.41494 -12.9842 5.66447e-19)
(5.27157 -12.593 -2.68268e-19)
(5.13245 -12.2155 4.59175e-19)
(4.99793 -11.8521 -1.08999e-18)
(4.86818 -11.5028 4.14234e-19)
(4.74324 -11.1673 0)
(4.62307 -10.8452 -4.98316e-19)
(4.50754 -10.5359 3.23426e-19)
(4.39651 -10.2389 0)
(4.28981 -9.95362 -1.34042e-19)
(4.18728 -9.67967 0)
(4.0888 -9.41659 1.07711e-19)
(3.99425 -9.16399 -4.25763e-19)
(3.90352 -8.92147 5.95283e-21)
(3.81644 -8.68853 -1.78427e-19)
(3.73276 -8.46448 -1.61019e-19)
(3.65282 -8.24797 1.63505e-19)
(3.57746 -8.03691 -1.44197e-19)
(3.49991 -7.83168 1.49684e-19)
(8.05191 -17.7958 0)
(7.34216 -17.3831 0)
(7.28535 -16.7798 6.36849e-19)
(7.06845 -16.3138 -2.58651e-20)
(6.89983 -15.855 -5.24074e-19)
(6.73687 -15.4057 5.13807e-19)
(6.57191 -14.9632 -4.33237e-19)
(6.40652 -14.5256 8.34563e-19)
(6.24143 -14.0942 -3.73287e-19)
(6.07751 -13.6709 -3.28181e-19)
(5.91589 -13.2579 2.21506e-20)
(5.75759 -12.8568 5.6872e-19)
(5.60342 -12.4688 2.33386e-19)
(5.45394 -12.0947 -2.54817e-19)
(5.30951 -11.7346 -4.23594e-19)
(5.17028 -11.3886 4.16113e-19)
(5.0363 -11.0563 1.85538e-19)
(4.90747 -10.7373 0)
(4.78367 -10.4311 0)
(4.66471 -10.1371 1.45743e-19)
(4.55043 -9.85475 3.95003e-19)
(4.44064 -9.58359 -4.9838e-19)
(4.3352 -9.3232 1.28674e-19)
(4.23398 -9.07322 5.35833e-19)
(4.13689 -8.83326 -1.05663e-19)
(4.04376 -8.6029 0)
(3.95433 -8.38151 1.71922e-19)
(3.86898 -8.16776 0)
(3.7886 -7.95951 1.45362e-19)
(3.70599 -7.75747 -2.24652e-19)
(8.51689 -17.5848 -7.40246e-19)
(7.80031 -17.1989 1.49661e-18)
(7.73016 -16.6023 6.65169e-19)
(7.50239 -16.145 0)
(7.32218 -15.692 -5.46655e-19)
(7.14727 -15.2473 0)
(6.97016 -14.8087 -4.51661e-19)
(6.79257 -14.3747 -1.37932e-20)
(6.61537 -13.9468 -1.50362e-20)
(6.43956 -13.527 -3.41771e-19)
(6.26638 -13.1175 -3.12194e-19)
(6.09691 -12.7199 -2.85545e-19)
(5.932 -12.3356 0)
(5.77223 -11.965 2.24307e-19)
(5.61796 -11.6086 -2.93991e-20)
(5.46934 -11.2661 -4.17949e-19)
(5.32637 -10.9373 -5.4596e-19)
(5.18896 -10.6218 1.82403e-19)
(5.05695 -10.3189 3.06826e-19)
(4.93015 -10.0281 -7.31013e-19)
(4.80835 -9.7489 1.4337e-19)
(4.69137 -9.48074 0)
(4.57903 -9.22325 0)
(4.47122 -8.97607 1.01983e-19)
(4.36784 -8.73886 -3.06367e-19)
(4.26871 -8.51126 0)
(4.17362 -8.29269 -8.62711e-20)
(4.08296 -8.08188 0)
(3.99768 -7.87663 0)
(3.91018 -7.678 2.88748e-19)
(8.97633 -17.3617 -1.5725e-18)
(8.25384 -17.0025 -7.26503e-19)
(8.17064 -16.4131 -6.65172e-19)
(7.93223 -15.9646 0)
(7.74057 -15.5176 1.0951e-18)
(7.55377 -15.0777 -4.79548e-19)
(7.36458 -14.6433 4.85642e-19)
(7.17483 -14.2133 4.27834e-19)
(6.98556 -13.7891 3.75917e-19)
(6.79791 -13.3731 6.72383e-19)
(6.61321 -12.9674 -1.22265e-20)
(6.43264 -12.5738 1.90855e-20)
(6.25706 -12.1933 5.42952e-19)
(6.08707 -11.8267 -4.65058e-19)
(5.92304 -11.4741 4.56743e-19)
(5.76509 -11.1355 3.93093e-19)
(5.61322 -10.8105 -7.48326e-19)
(5.46731 -10.4986 7.0027e-19)
(5.32718 -10.1993 -3.0837e-19)
(5.1926 -9.91199 3.03188e-19)
(5.06336 -9.63612 7.89439e-21)
(4.93924 -9.37119 5.04057e-19)
(4.82007 -9.11679 -2.40555e-19)
(4.70574 -8.87261 3.1929e-19)
(4.59612 -8.63834 -1.06965e-19)
(4.49109 -8.41367 0)
(4.3904 -8.1981 0)
(4.29453 -7.99039 -2.34781e-19)
(4.20447 -7.78833 3.11576e-19)
(4.11229 -7.59334 7.43611e-20)
(9.42992 -17.1266 1.57586e-18)
(8.70243 -16.7943 0)
(8.60648 -16.2121 6.43043e-19)
(8.35768 -15.7726 -6.30298e-19)
(8.15469 -15.3318 1.75038e-21)
(7.95609 -14.8969 4.81126e-19)
(7.75486 -14.467 -4.71771e-19)
(7.55299 -14.0412 0)
(7.3517 -13.6212 -3.75919e-19)
(7.15227 -13.2093 6.63561e-19)
(6.95612 -12.8078 -6.51141e-19)
(6.76451 -12.4183 2.68531e-19)
(6.57833 -12.0421 -1.05377e-18)
(6.39821 -11.6797 3.26623e-20)
(6.2245 -11.3312 8.87636e-19)
(6.05731 -10.9967 -4.21485e-19)
(5.89662 -10.6758 3.63717e-19)
(5.74229 -10.3678 -5.30059e-19)
(5.5941 -10.0724 -3.09873e-19)
(5.45183 -9.78877 3.04666e-19)
(5.31521 -9.51647 -4.01515e-19)
(5.18403 -9.25498 2.60929e-19)
(5.05811 -9.0039 0)
(4.93731 -8.76292 -1.08658e-19)
(4.82153 -8.53177 0)
(4.71064 -8.31021 0)
(4.60445 -8.09781 -3.41788e-19)
(4.50345 -7.89338 2.55065e-19)
(4.40875 -7.69471 2.97639e-19)
(4.3121 -7.50359 -6.03276e-19)
(9.87735 -16.8796 -7.47957e-19)
(9.14578 -16.5742 7.76952e-19)
(9.03738 -15.9994 6.45036e-19)
(8.77842 -15.5692 -6.32251e-19)
(8.56423 -15.1347 -5.50202e-19)
(8.3539 -14.7051 -4.82668e-19)
(8.14069 -14.28 3.41638e-20)
(7.92677 -13.8587 8.30578e-19)
(7.71351 -13.4431 -3.92286e-19)
(7.50235 -13.0357 0)
(7.29484 -12.6387 0)
(7.09226 -12.2538 5.57161e-19)
(6.89557 -11.882 -5.46962e-19)
(6.7054 -11.5241 0)
(6.52209 -11.1801 0)
(6.34575 -10.85 0)
(6.17633 -10.5333 0)
(6.01366 -10.2296 0)
(5.85751 -9.93817 -3.11331e-19)
(5.70761 -9.6585 3.061e-19)
(5.56369 -9.39 2.66637e-19)
(5.42552 -9.13218 -2.62269e-19)
(5.2929 -8.88464 0)
(5.1657 -8.64706 0)
(5.04381 -8.41923 0)
(4.92714 -8.20095 0)
(4.8155 -7.99189 0)
(4.70946 -7.79094 0)
(4.61024 -7.59585 0)
(4.50933 -7.40887 0)
(10.3183 -16.6209 0)
(9.5836 -16.3424 0)
(9.46305 -15.7753 0)
(9.19415 -15.3543 0)
(8.96888 -14.9264 1.10718e-18)
(8.74691 -14.5023 1.00612e-18)
(8.52178 -14.0823 4.74512e-19)
(8.29586 -13.6659 1.26502e-18)
(8.0707 -13.2551 0)
(7.84789 -12.8524 0)
(7.62908 -12.4602 1.24385e-18)
(7.41563 -12.0801 -1.15855e-18)
(7.20852 -11.7132 1.59218e-18)
(7.0084 -11.36 -1.62892e-20)
(6.81559 -11.0208 4.47401e-19)
(6.63019 -10.6953 1.35708e-20)
(6.45213 -10.3832 7.70231e-19)
(6.28121 -10.0838 3.38486e-19)
(6.11716 -9.79675 -9.74006e-21)
(5.95972 -9.52125 2.89305e-19)
(5.80857 -9.25679 -2.84506e-19)
(5.66348 -9.00285 0)
(5.52422 -8.75905 2.37886e-19)
(5.39067 -8.52509 2.21029e-19)
(5.26273 -8.30077 2.05599e-19)
(5.14031 -8.08596 1.91457e-19)
(5.02328 -7.88043 3.46456e-19)
(4.91227 -7.68311 -1.79633e-20)
(4.80862 -7.49181 -6.20553e-19)
(4.70363 -7.30922 1.46842e-20)
(10.7525 -16.3507 2.34428e-18)
(10.0156 -16.0992 -7.81343e-19)
(9.8832 -15.5397 7.01792e-19)
(9.60458 -15.1281 -5.87377e-19)
(9.36834 -14.707 -2.75191e-18)
(9.13481 -14.2887 5.26768e-19)
(8.89784 -13.8741 -1.35687e-18)
(8.65998 -13.4628 4.35838e-19)
(8.42299 -13.0571 -2.75688e-20)
(8.18862 -12.6595 -7.20106e-19)
(7.9586 -12.2724 -6.10743e-19)
(7.73437 -11.8974 6.01409e-19)
(7.51695 -11.5356 -5.30771e-19)
(7.30697 -11.1875 4.73843e-19)
(7.10476 -10.8533 -9.11127e-19)
(6.9104 -10.5327 1.51507e-21)
(6.72379 -10.2254 -7.47432e-19)
(6.5447 -9.93074 3.50711e-19)
(6.37285 -9.64817 -1.86879e-20)
(6.20793 -9.37707 -1.82017e-20)
(6.04963 -9.11686 -8.32764e-19)
(5.89767 -8.86703 2.64806e-19)
(5.75183 -8.62719 -4.76946e-19)
(5.61197 -8.39706 1.1445e-21)
(5.47803 -8.17645 -6.06872e-19)
(5.34991 -7.9653 2.03566e-19)
(5.22753 -7.76346 -3.48702e-19)
(5.1116 -7.56997 3.4341e-19)
(5.00359 -7.38266 1.56524e-19)
(4.89472 -7.20467 0)
(11.1797 -16.0692 4.19861e-21)
(10.4415 -15.8445 1.47905e-18)
(10.2976 -15.2928 -1.35071e-18)
(10.0094 -14.8907 -3.50224e-21)
(9.76231 -14.4766 2.22413e-18)
(9.5173 -14.0643 2.9018e-21)
(9.26856 -13.6554 -9.20408e-19)
(9.01885 -13.2496 -8.3553e-19)
(8.77011 -12.8492 7.61564e-19)
(8.52425 -12.4571 -6.971e-19)
(8.28313 -12.0755 -6.35127e-19)
(8.04822 -11.7059 0)
(7.82059 -11.3495 5.1603e-19)
(7.60088 -11.0068 -1.48563e-18)
(7.38938 -10.6778 0)
(7.18616 -10.3624 -4.13116e-19)
(6.9911 -10.06 0)
(6.80393 -9.77029 -1.31804e-21)
(6.62436 -9.49248 -8.94569e-21)
(6.45204 -9.226 -3.10076e-19)
(6.28664 -8.97025 7.34659e-21)
(6.12787 -8.72475 5.16853e-19)
(5.97549 -8.48909 -7.74869e-21)
(5.82937 -8.263 2.11191e-19)
(5.68944 -8.04631 -6.34326e-19)
(5.55565 -7.83902 0)
(5.42794 -7.64107 0)
(5.30713 -7.45159 -1.68644e-19)
(5.19485 -7.26846 -1.56526e-19)
(5.08232 -7.0953 -3.03854e-19)
(11.5997 -15.7764 -1.59632e-18)
(10.8611 -15.5787 -2.19547e-18)
(10.7059 -15.0348 -6.56174e-19)
(10.4084 -14.6422 1.22695e-18)
(10.1505 -14.2353 -1.11367e-18)
(9.89409 -13.8293 -1.01203e-18)
(9.63366 -13.4263 9.20416e-19)
(9.37217 -13.0263 8.4032e-19)
(9.11177 -12.6317 0)
(8.85453 -12.2453 6.97106e-19)
(8.60241 -11.8694 0)
(8.35695 -11.5056 0)
(8.11923 -11.1549 0)
(7.88989 -10.8178 4.90276e-19)
(7.66922 -10.4943 0)
(7.45726 -10.1843 0)
(7.25384 -9.88722 3.71004e-19)
(7.0587 -9.60258 3.41501e-19)
(6.87148 -9.32974 0)
(6.69183 -9.06807 0)
(6.51939 -8.817 2.80035e-19)
(6.35385 -8.57603 -2.59728e-19)
(6.19497 -8.34476 2.41197e-19)
(6.0426 -8.12291 0)
(5.89669 -7.91036 2.07792e-19)
(5.75721 -7.70713 0)
(5.62419 -7.51328 0)
(5.4985 -7.32801 3.38272e-19)
(5.38199 -7.14929 0)
(5.26604 -6.98121 0)
(12.0123 -15.4726 0)
(11.2742 -15.3017 0)
(11.1078 -14.7657 1.35834e-18)
(10.8011 -14.3828 0)
(10.5326 -13.9832 -5.38812e-19)
(10.2649 -13.5838 5.28256e-19)
(9.99286 -13.187 -8.91291e-19)
(9.71967 -12.7931 1.68824e-18)
(9.44771 -12.4046 -2.82853e-20)
(9.17921 -12.0243 -7.01046e-19)
(8.91621 -11.6544 1.25908e-18)
(8.66032 -11.2966 -2.04709e-20)
(8.41264 -10.9519 5.37471e-19)
(8.17381 -10.6207 0)
(7.94409 -10.303 8.91835e-19)
(7.7235 -9.99856 -8.34452e-19)
(7.51184 -9.70698 7.8123e-19)
(7.3088 -9.42766 -6.97376e-19)
(7.11403 -9.15998 6.65739e-19)
(6.92711 -8.90332 3.03376e-19)
(6.74768 -8.65712 1.01521e-21)
(6.57541 -8.42086 2.59731e-19)
(6.41003 -8.19417 -2.41199e-19)
(6.2514 -7.97677 2.25185e-19)
(6.09948 -7.76856 2.09682e-19)
(5.95428 -7.5696 0)
(5.81586 -7.38003 -1.7233e-19)
(5.68523 -7.19919 1.87544e-20)
(5.56443 -7.02511 7.96636e-19)
(5.44518 -6.86244 -1.64785e-19)
(12.4173 -15.1579 8.48463e-19)
(11.6804 -15.0139 -1.42165e-18)
(11.5032 -14.4856 4.979e-20)
(11.1874 -14.1125 1.28524e-18)
(10.9083 -13.7205 1.12343e-18)
(10.6294 -13.3279 4.90569e-19)
(10.3458 -12.9377 9.27877e-19)
(10.0611 -12.5502 8.16213e-19)
(9.77766 -12.168 -2.30899e-18)
(9.49801 -11.7941 1.42944e-18)
(9.22427 -11.4306 -1.2832e-18)
(8.9581 -11.0791 1.5975e-21)
(8.7006 -10.7407 -5.37476e-19)
(8.45241 -10.4156 -4.94697e-19)
(8.21378 -10.1039 -4.5338e-19)
(7.98469 -9.80531 8.23483e-19)
(7.7649 -9.51941 -1.16817e-18)
(7.55409 -9.24559 0)
(7.35184 -8.98326 -3.27898e-19)
(7.15773 -8.73178 -3.03379e-19)
(6.97136 -8.4906 -5.54614e-19)
(6.79238 -8.25923 2.69078e-19)
(6.62051 -8.03729 4.71917e-19)
(6.4556 -7.82452 -6.89569e-19)
(6.29761 -7.62083 -2.09684e-19)
(6.14657 -7.42633 -3.8172e-19)
(6.00264 -7.24125 1.93356e-19)
(5.86689 -7.06504 -5.03848e-19)
(5.74159 -6.89585 1.6885e-19)
(5.61892 -6.73882 -1.57894e-19)
(12.8148 -14.8327 -3.88347e-20)
(12.0796 -14.7152 6.9929e-19)
(11.8916 -14.1948 1.36918e-18)
(11.567 -13.8315 -6.40536e-19)
(11.2773 -13.4472 -1.12632e-18)
(10.9873 -13.0618 -9.81563e-19)
(10.6923 -12.6784 -4.4512e-19)
(10.396 -12.2976 -8.44797e-19)
(10.1013 -11.9221 7.72006e-19)
(9.81066 -11.5549 0)
(9.52633 -11.1981 6.42463e-19)
(9.25003 -10.8533 -5.88035e-19)
(8.98288 -10.5213 -5.40394e-19)
(8.7255 -10.2026 4.94702e-19)
(8.47811 -9.89714 -4.55937e-19)
(8.24065 -9.60462 -4.18501e-19)
(8.01287 -9.32458 3.73458e-19)
(7.79439 -9.05645 -3.6809e-19)
(7.58476 -8.79961 0)
(7.38353 -8.55346 0)
(7.19028 -8.31745 0)
(7.00461 -8.0911 5.09441e-19)
(6.82624 -7.87405 -5.01201e-19)
(6.655 -7.66607 0)
(6.49087 -7.46709 0)
(6.33392 -7.27729 0)
(6.18435 -7.09698 0)
(6.04335 -6.92572 -1.72029e-19)
(5.91337 -6.76177 -3.13962e-19)
(5.78731 -6.61047 1.66612e-19)
(13.2058 -14.4977 7.68949e-19)
(12.472 -14.406 -7.93983e-19)
(12.2728 -13.8931 -2.02877e-18)
(11.9395 -13.5397 1.8897e-18)
(11.6393 -13.1635 -5.42954e-19)
(11.3382 -12.7854 5.32317e-19)
(11.0319 -12.4092 3.42855e-20)
(10.7243 -12.0355 2.54776e-18)
(10.4184 -11.6671 -1.57448e-18)
(10.1169 -11.3069 7.0637e-19)
(9.82216 -10.9571 6.45668e-19)
(9.5359 -10.6191 5.7082e-19)
(9.25927 -10.294 5.21779e-19)
(8.99286 -9.98189 -4.80827e-19)
(8.73688 -9.68287 9.4307e-19)
(8.49123 -9.3966 4.34407e-19)
(8.2556 -9.1226 3.86798e-19)
(8.02958 -8.86029 -3.46799e-19)
(7.81268 -8.60907 6.61547e-19)
(7.60441 -8.36835 -3.15262e-19)
(7.4043 -8.1376 0)
(7.21194 -7.91635 0)
(7.027 -7.70428 0)
(6.84932 -7.50119 4.41867e-19)
(6.67886 -7.30708 -4.349e-19)
(6.51576 -7.12224 0)
(6.36035 -6.94712 0)
(6.21396 -6.78136 1.72031e-19)
(6.07932 -6.62325 -3.15484e-19)
(5.95051 -6.47866 4.87679e-19)
(13.5915 -14.1534 -4.11974e-20)
(12.8577 -14.0854 -7.9619e-19)
(12.6465 -13.5803 -1.37578e-18)
(12.3047 -13.2374 -6.43843e-19)
(11.9941 -12.8694 5.43352e-19)
(11.6819 -12.4991 -1.02757e-18)
(11.3644 -12.1304 -9.32391e-19)
(11.0456 -11.7641 -8.48903e-19)
(10.7287 -11.4031 0)
(10.4165 -11.0502 -1.38947e-18)
(10.1115 -10.7077 6.71811e-19)
(9.81551 -10.377 -5.72207e-19)
(9.52959 -10.0588 5.63031e-19)
(9.25435 -9.75362 0)
(8.98996 -9.46125 -4.5712e-19)
(8.73629 -9.18141 4.21801e-19)
(8.49298 -8.9136 3.88776e-19)
(8.25957 -8.65724 0)
(8.03555 -8.41174 0)
(7.82035 -8.17651 0)
(7.61345 -7.95103 2.84195e-19)
(7.41439 -7.73485 -2.48389e-19)
(7.22278 -7.52768 5.03706e-19)
(7.03838 -7.32936 2.27606e-19)
(6.8611 -7.14 0)
(6.69106 -6.96007 0)
(6.52876 -6.79016 -1.75379e-19)
(6.37577 -6.63002 5.2665e-19)
(6.23486 -6.47871 0)
(6.10203 -6.3445 0)
(13.9714 -13.7973 -1.58055e-18)
(13.2366 -13.7519 7.98183e-19)
(13.012 -13.2563 7.13131e-19)
(12.6618 -12.9248 4.87826e-20)
(12.3414 -12.5653 -5.42017e-19)
(12.0182 -12.2032 1.02758e-18)
(11.6897 -11.8424 0)
(11.3598 -11.4839 0)
(11.0321 -11.1305 0)
(10.7094 -10.7853 -6.84661e-19)
(10.3944 -10.4504 2.46548e-20)
(10.0888 -10.1271 0)
(9.79376 -9.81622 -5.43061e-19)
(9.50988 -9.51807 0)
(9.23728 -9.23255 0)
(8.97578 -8.9593 -8.31091e-19)
(8.72499 -8.69782 1.33634e-20)
(8.48439 -8.44753 0)
(8.25342 -8.20782 0)
(8.03147 -7.9781 2.98246e-19)
(7.81796 -7.75785 -5.77496e-19)
(7.61235 -7.54662 -7.76539e-19)
(7.41414 -7.34409 5.04643e-19)
(7.22294 -7.15013 -2.27609e-19)
(7.03843 -6.96487 0)
(6.86047 -6.78886 0)
(6.68941 -6.62264 -1.84395e-19)
(6.52645 -6.4663 -1.72342e-19)
(6.37242 -6.32195 3.15167e-19)
(6.22531 -6.20186 -3.27828e-19)
(19.7962 0.122344 7.83625e-20)
(19.7833 -0.399327 1.01671e-19)
(19.7574 -0.918336 3.07679e-19)
(19.7198 -1.43526 4.06429e-19)
(19.6697 -1.95038 -2.08719e-19)
(19.6065 -2.46358 2.08602e-19)
(19.5301 -2.97461 2.18263e-20)
(19.4404 -3.48319 -4.17032e-19)
(19.3374 -3.98905 8.32763e-19)
(19.2214 -4.49187 -1.24919e-18)
(19.0922 -4.99133 8.31725e-19)
(18.9501 -5.48709 -1.22558e-18)
(18.795 -5.97883 -1.24572e-18)
(18.6273 -6.46621 7.64785e-22)
(18.4468 -6.94891 4.39969e-20)
(18.2539 -7.42661 0)
(18.0486 -7.89897 7.84402e-19)
(17.8311 -8.3657 1.65305e-18)
(17.6016 -8.82647 -1.65161e-18)
(17.3602 -9.28098 7.81083e-19)
(17.1072 -9.72893 0)
(16.8426 -10.17 -2.42255e-18)
(16.5667 -10.604 2.32533e-21)
(16.2797 -11.0306 1.64127e-18)
(15.9818 -11.4495 0)
(15.6733 -11.8605 -8.59704e-19)
(15.3543 -12.2636 4.56924e-20)
(15.0255 -12.6584 -7.69635e-19)
(14.6859 -13.0458 8.15246e-19)
(14.3391 -13.4241 1.58277e-18)
(19.4309 -0.369952 0)
(19.4045 -0.880668 -5.13831e-20)
(19.3639 -1.3885 -8.98659e-21)
(19.31 -1.89385 -2.05416e-19)
(19.243 -2.397 -3.87578e-19)
(19.1629 -2.89779 3.87577e-19)
(19.0697 -3.39593 4.10402e-19)
(18.9636 -3.89108 0)
(18.8445 -4.38295 -7.73734e-19)
(18.7125 -4.87121 3.9963e-19)
(18.5679 -5.35554 -3.73856e-19)
(18.4106 -5.83562 8.07595e-19)
(18.2409 -6.31111 -3.98776e-19)
(18.0588 -6.78169 -7.70645e-19)
(17.8644 -7.24705 1.5867e-18)
(17.6581 -7.70686 0)
(17.4398 -8.16082 -1.58247e-18)
(17.2098 -8.60863 7.68151e-19)
(16.9682 -9.04998 0)
(16.7154 -9.48459 -8.11362e-19)
(16.4513 -9.91218 -1.5283e-18)
(16.1764 -10.3325 2.33748e-18)
(15.8907 -10.7452 -1.5238e-18)
(15.5945 -11.1501 1.52382e-18)
(15.288 -11.547 0)
(14.9715 -11.9357 1.44644e-18)
(14.6449 -12.316 -7.13479e-19)
(14.3088 -12.6877 8.01872e-19)
(13.9621 -13.0511 0)
(13.606 -13.4055 -7.99457e-19)
(18.9985 -0.191373 0)
(18.9778 -0.688334 0)
(18.9433 -1.18405 -6.55933e-21)
(18.895 -1.67808 1.70659e-19)
(18.8333 -2.17015 -3.54798e-19)
(18.7585 -2.65998 5.25414e-19)
(18.6706 -3.14724 0)
(18.5697 -3.63158 3.41023e-19)
(18.456 -4.11269 7.08481e-19)
(18.3296 -4.59023 3.66239e-19)
(18.1906 -5.06389 -3.41637e-19)
(18.0391 -5.53335 2.58935e-20)
(17.8753 -5.99828 3.14139e-19)
(17.6992 -6.45836 -1.38523e-18)
(17.5112 -6.91329 1.3846e-18)
(17.3112 -7.36274 -6.78113e-19)
(17.0995 -7.8064 -7.03591e-19)
(16.8763 -8.24399 7.03594e-19)
(16.6417 -8.6752 -6.75802e-19)
(16.396 -9.09975 -6.74941e-19)
(16.1393 -9.51736 0)
(15.8719 -9.92776 -7.24861e-19)
(15.5939 -10.3307 1.39796e-18)
(15.3056 -10.7259 1.39371e-18)
(15.0072 -11.1132 -1.39372e-18)
(14.6989 -11.4922 -5.06966e-20)
(14.3808 -11.863 -1.3868e-18)
(14.0531 -12.2251 2.05342e-18)
(13.7156 -12.5784 1.3817e-18)
(13.3687 -12.9221 -7.17637e-19)
(18.5233 -0.21748 0)
(18.5034 -0.700836 0)
(18.4701 -1.18338 -8.3636e-20)
(18.4237 -1.66452 -1.67277e-19)
(18.3641 -2.14384 -1.54589e-19)
(18.2915 -2.62101 1.41919e-19)
(18.2061 -3.09571 3.2096e-19)
(18.1078 -3.56761 -9.76071e-19)
(17.9968 -4.03636 3.20847e-19)
(17.8733 -4.50164 0)
(17.7373 -4.96312 3.08588e-19)
(17.589 -5.42047 3.33511e-19)
(17.4285 -5.87337 -6.66511e-19)
(17.2561 -6.32149 1.2818e-18)