/*--------------------------------*- C++ -*----------------------------------*\
  =========                 |
  \\      /  F ield         | OpenFOAM: The Open Source CFD Toolbox
   \\    /   O peration     | Website:  https://openfoam.org
    \\  /    A nd           | Version:  6.0
     \\/     M anipulation  |
\*---------------------------------------------------------------------------*/
FoamFile
{
    version     2.0;
    format      ascii;
    class       volScalarField;
    location    "3.2515";
    object      p;
}
// * * * * * * * * * * * * * * * * * * * * * * * * * * * * * * * * * * * * * //

dimensions      [0 2 -2 0 0 0 0];

internalField   nonuniform List<scalar> 
19200
(
-8.97152
-8.06282
-7.40387
-6.86323
-6.37153
-5.92748
-5.52616
-5.16073
-4.82619
-4.51876
-4.23538
-3.97351
-3.73105
-3.5062
-3.29744
-3.10341
-2.92293
-2.75494
-2.59849
-2.45272
-2.31683
-2.19011
-2.07192
-1.96165
-1.85876
-1.76271
-1.67305
-1.58927
-1.51086
-1.4381
-9.06439
-8.15647
-7.49671
-6.95412
-6.45989
-6.01296
-5.60854
-5.2399
-4.9021
-4.59144
-4.30489
-4.03995
-3.79453
-3.56686
-3.35541
-3.15883
-2.97594
-2.80568
-2.64709
-2.4993
-2.36151
-2.23302
-2.11315
-2.0013
-1.89692
-1.79947
-1.70849
-1.62343
-1.54371
-1.47013
-9.15964
-8.25092
-7.58981
-7.04515
-6.54832
-6.09846
-5.69091
-5.31902
-4.97794
-4.66403
-4.3743
-4.10627
-3.85789
-3.62738
-3.41324
-3.21411
-3.02882
-2.8563
-2.69558
-2.54579
-2.40613
-2.27587
-2.15434
-2.04093
-1.93508
-1.83625
-1.74397
-1.65763
-1.57662
-1.50225
-9.25573
-8.34591
-7.6832
-7.13633
-6.63683
-6.18398
-5.77324
-5.39806
-5.05368
-4.7365
-4.44356
-4.17244
-3.92108
-3.68774
-3.47091
-3.26924
-3.08156
-2.90679
-2.74396
-2.59219
-2.45067
-2.31867
-2.1955
-2.08055
-1.97324
-1.87305
-1.77949
-1.69189
-1.60961
-1.53448
-9.35239
-8.44133
-7.77684
-7.22765
-6.72539
-6.26949
-5.85552
-5.47703
-5.12931
-4.80882
-4.51267
-4.23843
-3.9841
-3.74793
-3.52841
-3.32422
-3.13415
-2.95715
-2.79222
-2.63849
-2.49514
-2.36141
-2.23662
-2.12014
-2.01141
-1.90988
-1.81505
-1.72623
-1.64269
-1.56683
-9.44946
-8.53708
-7.87071
-7.31909
-6.814
-6.35499
-5.93774
-5.55588
-5.2048
-4.88099
-4.5816
-4.30425
-4.04693
-3.80793
-3.58573
-3.37902
-3.18659
-3.00737
-2.84037
-2.6847
-2.53953
-2.4041
-2.27772
-2.15975
-2.0496
-1.94675
-1.85068
-1.76064
-1.67587
-1.59931
-9.54683
-8.63308
-7.96474
-7.41063
-6.90264
-6.44045
-6.01987
-5.63461
-5.28013
-4.95297
-4.65033
-4.36985
-4.10955
-3.86772
-3.64286
-3.43363
-3.23885
-3.05744
-2.88839
-2.7308
-2.58384
-2.44674
-2.3188
-2.19935
-2.08782
-1.98367
-1.88638
-1.79514
-1.70916
-1.63193
-9.64441
-8.72927
-8.05889
-7.50222
-6.99126
-6.52585
-6.10189
-5.7132
-5.35528
-5.02475
-4.71884
-4.43523
-4.17194
-3.92728
-3.69976
-3.48804
-3.29093
-3.10734
-2.93626
-2.77678
-2.62806
-2.48932
-2.35983
-2.23894
-2.12605
-2.02063
-1.92215
-1.82974
-1.74256
-1.6647
-9.74214
-8.82558
-8.15312
-7.59382
-7.07984
-6.61115
-6.18376
-5.79159
-5.43021
-5.09629
-4.7871
-4.50035
-4.23407
-3.98659
-3.75642
-3.54222
-3.3428
-3.15705
-2.98397
-2.82263
-2.67217
-2.53181
-2.40081
-2.2785
-2.16428
-2.05762
-1.95798
-1.86441
-1.77608
-1.69762
-9.83998
-8.92195
-8.24737
-7.68539
-7.16833
-6.69631
-6.26546
-5.86977
-5.50489
-5.16756
-4.85508
-4.56517
-4.29591
-4.04562
-3.81281
-3.59615
-3.39443
-3.20655
-3.0315
-2.86832
-2.71616
-2.57421
-2.44173
-2.31804
-2.20252
-2.09464
-1.99386
-1.89916
-1.8097
-1.73068
-9.93785
-9.01835
-8.34159
-7.77688
-7.25669
-6.78129
-6.34692
-5.94768
-5.57929
-5.23853
-4.92273
-4.62967
-4.35743
-4.10433
-3.86889
-3.64979
-3.4458
-3.25582
-3.07881
-2.91383
-2.75999
-2.61649
-2.48257
-2.35753
-2.24074
-2.13167
-2.02977
-1.93398
-1.8434
-1.76386
-10.0357
-9.1147
-8.43573
-7.86824
-7.34487
-6.86604
-6.42812
-6.02529
-5.65335
-5.30914
-4.99003
-4.6938
-4.41858
-4.16268
-3.92464
-3.70311
-3.49688
-3.30481
-3.12588
-2.95912
-2.80365
-2.65863
-2.5233
-2.39694
-2.27892
-2.16869
-2.06571
-1.96885
-1.87718
-1.79716
-10.1335
-9.21097
-8.52974
-7.95942
-7.43282
-6.95052
-6.509
-6.10255
-5.72704
-5.37935
-5.05691
-4.75753
-4.47932
-4.22064
-3.98001
-3.75607
-3.54761
-3.3535
-3.17267
-3.00417
-2.84709
-2.70058
-2.56387
-2.43624
-2.31702
-2.20567
-2.10163
-2.00373
-1.911
-1.83052
-10.2312
-9.30708
-8.62356
-8.05037
-7.52049
-7.03466
-6.58951
-6.1794
-5.80029
-5.44912
-5.12334
-4.8208
-4.53962
-4.27816
-4.03495
-3.80863
-3.59797
-3.40183
-3.21915
-3.04893
-2.89027
-2.74231
-2.60426
-2.47538
-2.355
-2.24257
-2.13752
-2.0386
-1.94483
-1.86393
-10.3287
-9.403
-8.71713
-8.14102
-7.60782
-7.11842
-6.66959
-6.2558
-5.87307
-5.51839
-5.18926
-4.88356
-4.59942
-4.3352
-4.08942
-3.86074
-3.64791
-3.44977
-3.26525
-3.09336
-2.93315
-2.78378
-2.64442
-2.51433
-2.39283
-2.27935
-2.17331
-2.0734
-1.97862
-1.89733
-10.426
-9.49865
-8.81041
-8.23133
-7.69475
-7.20174
-6.74919
-6.33168
-5.9453
-5.5871
-5.25463
-4.94576
-4.65866
-4.39169
-4.14337
-3.91235
-3.69736
-3.49725
-3.31094
-3.13739
-2.97568
-2.82492
-2.68429
-2.55303
-2.43044
-2.31595
-2.20896
-2.1081
-2.01233
-1.9307
-10.5229
-9.59399
-8.90333
-8.32123
-7.78121
-7.28455
-6.82824
-6.40698
-6.01693
-5.65521
-5.31937
-5.00735
-4.71729
-4.44759
-4.19674
-3.9634
-3.74629
-3.54424
-3.35615
-3.18099
-3.0178
-2.86569
-2.72382
-2.59142
-2.46778
-2.35233
-2.24444
-2.14268
-2.04596
-1.96401
-10.6196
-9.68896
-8.99584
-8.41066
-7.86716
-7.36678
-6.90668
-6.48164
-6.08791
-5.72264
-5.38345
-5.06826
-4.77527
-4.50284
-4.24948
-4.01384
-3.79463
-3.59066
-3.40082
-3.22407
-3.05943
-2.906
-2.76293
-2.62943
-2.50478
-2.38839
-2.27964
-2.17701
-2.07939
-1.99717
-10.7158
-9.78351
-9.08787
-8.49956
-7.95252
-7.44839
-6.98445
-6.5556
-6.15816
-5.78934
-5.44678
-5.12845
-4.83252
-4.55738
-4.30154
-4.06361
-3.84232
-3.63645
-3.44489
-3.26657
-3.10052
-2.9458
-2.80155
-2.66697
-2.54133
-2.42404
-2.31446
-2.211
-2.1125
-2.03005
-10.8116
-9.87757
-9.17936
-8.58786
-8.03723
-7.52929
-7.06148
-6.62879
-6.22762
-5.85524
-5.50933
-5.18784
-4.889
-4.61117
-4.35285
-4.11266
-3.88931
-3.68157
-3.4883
-3.30844
-3.14098
-2.98499
-2.83958
-2.70395
-2.57735
-2.45918
-2.34879
-2.24453
-2.14519
-2.06254
-10.9069
-9.97111
-9.27027
-8.6755
-8.1212
-7.60941
-7.13769
-6.70114
-6.29623
-5.92029
-5.57101
-5.24639
-4.94464
-4.66413
-4.40336
-4.16093
-3.93553
-3.72594
-3.53099
-3.3496
-3.18075
-3.02349
-2.87695
-2.74027
-2.61272
-2.49369
-2.38252
-2.27747
-2.17729
-2.09446
-11.0017
-10.0641
-9.36051
-8.7624
-8.20438
-7.68867
-7.213
-6.77257
-6.36392
-5.9844
-5.63177
-5.30403
-4.99939
-4.71623
-4.45302
-4.20837
-3.98095
-3.76951
-3.57289
-3.38998
-3.21975
-3.06124
-2.91355
-2.77584
-2.64733
-2.52744
-2.41548
-2.30966
-2.20862
-2.12561
-11.0961
-10.1564
-9.45004
-8.84849
-8.28667
-7.767
-7.28735
-6.84301
-6.4306
-6.04753
-5.69156
-5.36071
-5.0532
-4.7674
-4.50179
-4.25494
-4.02551
-3.81225
-3.61397
-3.42954
-3.25793
-3.09816
-2.94932
-2.81055
-2.68107
-2.56029
-2.44753
-2.34091
-2.23897
-2.15576
-11.1899
-10.2481
-9.53879
-8.93369
-8.36798
-7.8443
-7.36064
-6.91239
-6.49622
-6.1096
-5.7503
-5.41636
-5.10601
-4.8176
-4.54961
-4.30058
-4.06918
-3.85411
-3.65417
-3.46824
-3.29525
-3.1342
-2.98418
-2.84432
-2.71383
-2.59212
-2.4785
-2.37101
-2.26809
-2.1846
-11.2834
-10.3392
-9.62666
-9.01788
-8.44822
-7.92047
-7.43278
-6.98061
-6.5607
-6.17053
-5.80794
-5.47095
-5.15778
-4.8668
-4.59645
-4.34528
-4.11192
-3.89507
-3.6935
-3.50606
-3.33168
-3.16934
-3.0181
-2.8771
-2.74553
-2.62279
-2.50821
-2.39974
-2.29567
-2.21177
-11.3766
-10.4294
-9.71352
-9.10095
-8.52725
-7.99541
-7.50368
-7.04759
-6.62395
-6.23028
-5.86441
-5.5244
-5.20847
-4.91495
-4.64229
-4.38902
-4.15373
-3.93512
-3.73194
-3.543
-3.36723
-3.20358
-3.0511
-2.90889
-2.77616
-2.65227
-2.53658
-2.42693
-2.32145
-2.23675
-11.4697
-10.5188
-9.79923
-9.18275
-8.60494
-8.06898
-7.57321
-7.11324
-6.6859
-6.28876
-5.91967
-5.57669
-5.25803
-4.96203
-4.68711
-4.43177
-4.19461
-3.97428
-3.76952
-3.57912
-3.40196
-3.237
-3.08325
-2.93979
-2.80579
-2.68064
-2.56367
-2.45263
-2.34524
-2.25896
-11.5641
-10.6075
-9.88357
-9.26301
-8.68106
-8.141
-7.64124
-7.17742
-6.74643
-6.34587
-5.97362
-5.62772
-5.3064
-5.00798
-4.73086
-4.47353
-4.23455
-4.01256
-3.80627
-3.61445
-3.43595
-3.2697
-3.11468
-2.96994
-2.83461
-2.70806
-2.5896
-2.47675
-2.36658
-2.27804
-11.6609
-10.6954
-9.96599
-9.3413
-8.75534
-8.21129
-7.70761
-7.24002
-6.80545
-6.40154
-6.02618
-5.67744
-5.35353
-5.05276
-4.77351
-4.51426
-4.27354
-4.04997
-3.84223
-3.64907
-3.46932
-3.30186
-3.14565
-2.99967
-2.86299
-2.73487
-2.61442
-2.49864
-2.3843
-2.29347
-11.7525
-10.7793
-10.0455
-9.41735
-8.82777
-8.27993
-7.77245
-7.30116
-6.86308
-6.45587
-6.07747
-5.72594
-5.3995
-5.09644
-4.81514
-4.55404
-4.31166
-4.08659
-3.87749
-3.68311
-3.50224
-3.33375
-3.17658
-3.02968
-2.8921
-2.76289
-2.64067
-2.52243
-2.40621
-2.31164
-12.9908
-13.0006
-13.0031
-13.0034
-13.0006
-12.9941
-12.9836
-12.9692
-12.9508
-12.9285
-12.9024
-12.8723
-12.8386
-12.8011
-12.7602
-12.7158
-12.668
-12.6171
-12.5631
-12.5062
-12.4464
-12.384
-12.319
-12.2517
-12.1821
-12.1106
-12.0373
-11.9627
-11.8873
-11.8138
-11.9808
-11.9948
-12.0025
-12.006
-12.0053
-12.0005
-11.9915
-11.9785
-11.9615
-11.9405
-11.9157
-11.8871
-11.8548
-11.8189
-11.7794
-11.7366
-11.6905
-11.6412
-11.5889
-11.5336
-11.4756
-11.4149
-11.3517
-11.2862
-11.2185
-11.1487
-11.0771
-11.004
-10.9296
-10.8543
-11.1798
-11.1962
-11.2071
-11.2133
-11.215
-11.2125
-11.2057
-11.1949
-11.18
-11.1613
-11.1388
-11.1124
-11.0824
-11.0489
-11.0119
-10.9715
-10.9279
-10.8812
-10.8314
-10.7788
-10.7234
-10.6653
-10.6048
-10.5418
-10.4767
-10.4094
-10.3402
-10.2692
-10.1965
-10.122
-10.4688
-10.4869
-10.5001
-10.5087
-10.5129
-10.5127
-10.5085
-10.5002
-10.4879
-10.4718
-10.4519
-10.4283
-10.4011
-10.3704
-10.3363
-10.2989
-10.2583
-10.2146
-10.1679
-10.1184
-10.0661
-10.0112
-9.95384
-9.89406
-9.83201
-9.76783
-9.70161
-9.63345
-9.5634
-9.49148
-9.79123
-9.81086
-9.82603
-9.83675
-9.84315
-9.84538
-9.84354
-9.83776
-9.82813
-9.81473
-9.7976
-9.77682
-9.75252
-9.7248
-9.69375
-9.65946
-9.62203
-9.58158
-9.53819
-9.492
-9.44309
-9.3916
-9.33761
-9.28126
-9.22264
-9.16185
-9.099
-9.03414
-8.96735
-8.89866
-9.15663
-9.17752
-9.19426
-9.20677
-9.21512
-9.21943
-9.2198
-9.21633
-9.20914
-9.19826
-9.18375
-9.16569
-9.14421
-9.11939
-9.09133
-9.06011
-9.02583
-8.98859
-8.94849
-8.90563
-8.86012
-8.81206
-8.76155
-8.70869
-8.65359
-8.59633
-8.53699
-8.47566
-8.41238
-8.34721
-8.5676
-8.58945
-8.60739
-8.6213
-8.63123
-8.63726
-8.6395
-8.63805
-8.63299
-8.62437
-8.61221
-8.59663
-8.57774
-8.55561
-8.53033
-8.50199
-8.47068
-8.43649
-8.39952
-8.35986
-8.31761
-8.27287
-8.22573
-8.1763
-8.12465
-8.07088
-8.01506
-7.95727
-7.89756
-7.83602
-8.0224
-8.04487
-8.06364
-8.07856
-8.08967
-8.09706
-8.1008
-8.101
-8.09775
-8.09104
-8.08092
-8.0675
-8.05089
-8.03115
-8.00837
-7.98263
-7.95402
-7.92262
-7.88853
-7.85184
-7.81263
-7.771
-7.72704
-7.68085
-7.63249
-7.58207
-7.52964
-7.47529
-7.41908
-7.36109
-7.51922
-7.54199
-7.56123
-7.5768
-7.58874
-7.5971
-7.60198
-7.60349
-7.60167
-7.59651
-7.58808
-7.57648
-7.56181
-7.54413
-7.52353
-7.50007
-7.47385
-7.44494
-7.41343
-7.37941
-7.34297
-7.30419
-7.26315
-7.21994
-7.17465
-7.12735
-7.07812
-7.02703
-6.97413
-6.91954
-7.05607
-7.07883
-7.09823
-7.11413
-7.12655
-7.13556
-7.14124
-7.1437
-7.14297
-7.13902
-7.13193
-7.12181
-7.10875
-7.0928
-7.07403
-7.05253
-7.02837
-7.00163
-6.97239
-6.94074
-6.90676
-6.87052
-6.83211
-6.79162
-6.74912
-6.70469
-6.6584
-6.61032
-6.56052
-6.50908
-6.63061
-6.65311
-6.67239
-6.68833
-6.70095
-6.7103
-6.71648
-6.71959
-6.71962
-6.71655
-6.7105
-6.70155
-6.68977
-6.67522
-6.65798
-6.63811
-6.6157
-6.59081
-6.56353
-6.53393
-6.5021
-6.46811
-6.43204
-6.39397
-6.35397
-6.31213
-6.26851
-6.22318
-6.17621
-6.12769
-6.24027
-6.2623
-6.28124
-6.29699
-6.30955
-6.319
-6.32542
-6.3289
-6.32941
-6.32697
-6.32166
-6.31359
-6.30281
-6.28938
-6.27336
-6.25484
-6.23387
-6.21054
-6.18492
-6.15708
-6.1271
-6.09506
-6.06103
-6.0251
-5.98733
-5.94779
-5.90657
-5.86372
-5.81931
-5.77343
-5.88242
-5.90381
-5.92224
-5.93761
-5.94992
-5.95925
-5.9657
-5.96932
-5.97009
-5.96803
-5.96324
-5.9558
-5.94576
-5.93318
-5.91813
-5.90068
-5.8809
-5.85885
-5.83462
-5.80826
-5.77987
-5.74951
-5.71725
-5.68317
-5.64735
-5.60986
-5.57076
-5.53012
-5.48801
-5.44452
-5.55443
-5.57506
-5.59284
-5.60768
-5.61959
-5.62865
-5.63495
-5.63853
-5.63937
-5.6375
-5.63302
-5.62599
-5.61648
-5.60454
-5.59023
-5.57362
-5.55479
-5.53379
-5.5107
-5.48559
-5.45853
-5.42959
-5.39886
-5.36639
-5.33227
-5.29656
-5.25933
-5.22065
-5.18059
-5.13923
-5.25374
-5.27352
-5.29056
-5.30477
-5.31616
-5.32481
-5.33083
-5.33425
-5.335
-5.33316
-5.32882
-5.32204
-5.31287
-5.30138
-5.28763
-5.27167
-5.25358
-5.23342
-5.21126
-5.18718
-5.16124
-5.13351
-5.10407
-5.07299
-5.04033
-5.00617
-4.97058
-4.93363
-4.89539
-4.85593
-4.9779
-4.99678
-5.01301
-5.02652
-5.03731
-5.04547
-5.05112
-5.05424
-5.0548
-5.05287
-5.04853
-5.04186
-5.0329
-5.02171
-5.00835
-4.99288
-4.97536
-4.95587
-4.93447
-4.91123
-4.88622
-4.85951
-4.83117
-4.80126
-4.76987
-4.73706
-4.7029
-4.66746
-4.63081
-4.59304
-4.72461
-4.74256
-4.75795
-4.77071
-4.78085
-4.78847
-4.79367
-4.79642
-4.79669
-4.79457
-4.79016
-4.78349
-4.77462
-4.7636
-4.75051
-4.73539
-4.71831
-4.69934
-4.67855
-4.656
-4.63176
-4.60589
-4.57848
-4.54958
-4.51927
-4.48762
-4.4547
-4.42059
-4.38535
-4.34907
-4.49172
-4.50874
-4.52328
-4.53527
-4.54473
-4.55177
-4.55648
-4.5588
-4.55872
-4.55636
-4.55178
-4.54504
-4.53617
-4.52524
-4.51231
-4.49744
-4.48069
-4.46213
-4.44181
-4.41982
-4.39621
-4.37106
-4.34443
-4.31638
-4.287
-4.25635
-4.22451
-4.19155
-4.15754
-4.12258
-4.27729
-4.29339
-4.30707
-4.31829
-4.32707
-4.33351
-4.33768
-4.33954
-4.3391
-4.33645
-4.33166
-4.32477
-4.31584
-4.30493
-4.29209
-4.27738
-4.26086
-4.24261
-4.22268
-4.20114
-4.17806
-4.15349
-4.12752
-4.1002
-4.07161
-4.04183
-4.01091
-3.97895
-3.94602
-3.91222
-4.07952
-4.09471
-4.10756
-4.11802
-4.12612
-4.13195
-4.13559
-4.13698
-4.13614
-4.13317
-4.12813
-4.12107
-4.11203
-4.10108
-4.08827
-4.07366
-4.05732
-4.0393
-4.01967
-3.99849
-3.97584
-3.95177
-3.92636
-3.89966
-3.87175
-3.8427
-3.81259
-3.78149
-3.74949
-3.71672
-3.89679
-3.91112
-3.92316
-3.93288
-3.9403
-3.94554
-3.94865
-3.94956
-3.94832
-3.94502
-3.93971
-3.93245
-3.92327
-3.91224
-3.89942
-3.88487
-3.86863
-3.85079
-3.8314
-3.81052
-3.78823
-3.76457
-3.73963
-3.71346
-3.68614
-3.65773
-3.6283
-3.59794
-3.56675
-3.53486
-3.72765
-3.74114
-3.75241
-3.76141
-3.7682
-3.77286
-3.77544
-3.77588
-3.77425
-3.77061
-3.76503
-3.75754
-3.74821
-3.73708
-3.72422
-3.70968
-3.69352
-3.67581
-3.6566
-3.63597
-3.61397
-3.59067
-3.56613
-3.54042
-3.5136
-3.48573
-3.45689
-3.42717
-3.39666
-3.36554
-3.57078
-3.58348
-3.59401
-3.60234
-3.6085
-3.61261
-3.61469
-3.61468
-3.61265
-3.60868
-3.60282
-3.59512
-3.58561
-3.57437
-3.56145
-3.5469
-3.53079
-3.51317
-3.49411
-3.47368
-3.45193
-3.42893
-3.40474
-3.37942
-3.35303
-3.32564
-3.2973
-3.26812
-3.23816
-3.20769
-3.425
-3.43696
-3.4468
-3.45448
-3.46006
-3.46365
-3.46524
-3.46481
-3.4624
-3.45811
-3.45198
-3.44405
-3.43437
-3.42301
-3.41001
-3.39544
-3.37935
-3.3618
-3.34287
-3.3226
-3.30106
-3.27832
-3.25443
-3.22945
-3.20344
-3.17646
-3.14856
-3.11982
-3.09031
-3.06036
-3.28929
-3.30054
-3.30972
-3.3168
-3.32184
-3.32494
-3.32607
-3.32522
-3.32246
-3.31786
-3.31146
-3.30332
-3.29347
-3.28198
-3.2689
-3.25429
-3.23821
-3.22072
-3.20188
-3.18175
-3.1604
-3.13788
-3.11426
-3.08958
-3.06391
-3.03729
-3.00976
-2.98139
-2.9522
-2.92272
-3.16269
-3.17329
-3.18185
-3.18835
-3.19287
-3.19551
-3.1962
-3.19496
-3.19185
-3.18695
-3.1803
-3.17194
-3.16193
-3.1503
-3.13714
-3.12248
-3.10639
-3.08893
-3.07017
-3.05015
-3.02895
-3.00662
-2.98323
-2.95882
-2.93344
-2.90714
-2.87993
-2.85188
-2.82289
-2.79388
-3.0444
-3.05437
-3.06235
-3.06831
-3.07234
-3.07453
-3.0748
-3.07318
-3.06974
-3.06455
-3.05764
-3.04906
-3.03887
-3.0271
-3.01383
-2.9991
-2.98298
-2.96553
-2.9468
-2.92685
-2.90576
-2.88358
-2.86036
-2.83617
-2.81104
-2.78499
-2.75805
-2.73021
-2.70123
-2.67283
-2.93367
-2.94312
-2.95061
-2.95613
-2.95976
-2.96157
-2.9615
-2.95957
-2.95587
-2.95044
-2.94334
-2.93459
-2.92426
-2.9124
-2.89906
-2.88429
-2.86816
-2.85073
-2.83206
-2.8122
-2.79122
-2.76919
-2.74616
-2.72218
-2.6973
-2.67153
-2.64486
-2.61721
-2.58805
-2.56017
-2.82973
-2.83882
-2.846
-2.85124
-2.85464
-2.85625
-2.856
-2.85395
-2.85016
-2.84469
-2.83757
-2.82885
-2.81858
-2.80681
-2.79361
-2.77902
-2.7631
-2.74592
-2.72754
-2.70801
-2.68741
-2.66579
-2.64322
-2.61976
-2.59545
-2.57031
-2.54428
-2.51721
-2.4883
-2.46175
-2.73195
-2.74013
-2.74645
-2.75092
-2.75361
-2.75454
-2.7537
-2.75112
-2.74686
-2.74099
-2.73352
-2.72452
-2.71403
-2.7021
-2.6888
-2.67416
-2.65826
-2.64116
-2.62291
-2.60358
-2.58323
-2.56193
-2.53975
-2.51676
-2.49301
-2.46854
-2.44336
-2.41715
-2.38937
-2.3695
-10.489
-10.6195
-10.7434
-10.8685
-10.9935
-11.1166
-11.2375
-11.3558
-11.4712
-11.5834
-11.6922
-11.7973
-11.8987
-11.9962
-12.0896
-12.1788
-12.2637
-12.3443
-12.4205
-12.4921
-12.5591
-12.6216
-12.6793
-12.7325
-12.7809
-12.8248
-12.8641
-12.8991
-12.9301
-12.9585
-9.48781
-9.62255
-9.75207
-9.87959
-10.005
-10.128
-10.2482
-10.3656
-10.4799
-10.5911
-10.6988
-10.803
-10.9035
-11.0001
-11.0927
-11.1813
-11.2656
-11.3457
-11.4214
-11.4927
-11.5595
-11.6218
-11.6795
-11.7327
-11.7812
-11.8252
-11.8648
-11.8999
-11.9307
-11.9574
-8.69518
-8.82948
-8.95993
-9.08736
-9.2121
-9.3341
-9.4533
-9.5696
-9.68287
-9.79295
-9.8997
-10.003
-10.1026
-10.1985
-10.2906
-10.3786
-10.4626
-10.5425
-10.618
-10.6893
-10.7562
-10.8187
-10.8768
-10.9304
-10.9795
-11.0241
-11.0642
-11.0999
-11.1311
-11.1578
-8.00024
-8.132
-8.2608
-8.38667
-8.5098
-8.63022
-8.74787
-8.86265
-8.97445
-9.08314
-9.18859
-9.29066
-9.38924
-9.48419
-9.57542
-9.66281
-9.74627
-9.82571
-9.90106
-9.97224
-10.0392
-10.1019
-10.1602
-10.2142
-10.2639
-10.3091
-10.35
-10.3865
-10.4184
-10.4459
-7.34972
-7.47818
-7.60428
-7.72773
-7.84856
-7.96677
-8.08229
-8.19503
-8.30488
-8.41172
-8.51543
-8.6159
-8.713
-8.80662
-8.89666
-8.98302
-9.0656
-9.14432
-9.2191
-9.28987
-9.35657
-9.41916
-9.47757
-9.53179
-9.58178
-9.62751
-9.66896
-9.7061
-9.73891
-9.76734
-6.75307
-6.87788
-7.00071
-7.12113
-7.23908
-7.35454
-7.46745
-7.57768
-7.68515
-7.78973
-7.8913
-7.98977
-8.08501
-8.17693
-8.26541
-8.35036
-8.43169
-8.50933
-8.58319
-8.65321
-8.71932
-8.78147
-8.83962
-8.89373
-8.94376
-8.98968
-9.03148
-9.06911
-9.10255
-9.13178
-6.21188
-6.33282
-6.452
-6.56899
-6.68368
-6.79602
-6.90593
-7.01331
-7.11804
-7.22002
-7.31913
-7.41526
-7.50831
-7.59818
-7.68476
-7.76798
-7.84773
-7.92394
-7.99654
-8.06546
-8.13064
-8.19202
-8.24956
-8.30323
-8.35298
-8.39878
-8.44061
-8.47844
-8.51225
-8.54203
-5.72275
-5.8397
-5.95505
-6.06837
-6.17955
-6.28852
-6.3952
-6.49947
-6.60122
-6.70034
-6.79672
-6.89027
-6.98086
-7.06842
-7.15283
-7.23402
-7.3119
-7.38639
-7.45743
-7.52495
-7.58888
-7.64918
-7.7058
-7.7587
-7.80785
-7.85322
-7.89478
-7.9325
-7.96638
-7.9964
-5.28196
-5.3949
-5.50634
-5.6159
-5.72345
-5.82892
-5.93222
-6.03323
-6.13184
-6.22794
-6.32143
-6.4122
-6.50015
-6.58519
-6.66723
-6.74618
-6.82196
-6.8945
-6.96374
-7.02959
-7.09202
-7.15097
-7.2064
-7.25826
-7.30653
-7.35117
-7.39217
-7.4295
-7.46314
-7.49311
-4.88562
-4.99458
-5.10213
-5.20791
-5.31181
-5.41374
-5.5136
-5.61129
-5.70668
-5.79967
-5.89017
-5.97806
-6.06325
-6.14566
-6.22518
-6.30174
-6.37526
-6.44568
-6.51292
-6.57693
-6.63766
-6.69504
-6.74905
-6.79965
-6.8468
-6.89048
-6.93066
-6.96734
-7.00049
-7.03013
-4.52965
-4.63472
-4.73846
-4.84052
-4.94079
-5.0392
-5.13564
-5.23
-5.32217
-5.41204
-5.49951
-5.58448
-5.66686
-5.74656
-5.82349
-5.89757
-5.96874
-6.03692
-6.10205
-6.16408
-6.22295
-6.27862
-6.33105
-6.38021
-6.42605
-6.46857
-6.50774
-6.54355
-6.57599
-6.60507
-4.21001
-4.31132
-4.41136
-4.5098
-4.60654
-4.70151
-4.79459
-4.88568
-4.97466
-5.06144
-5.1459
-5.22796
-5.30752
-5.3845
-5.45881
-5.53039
-5.59915
-5.66504
-5.72799
-5.78795
-5.84488
-5.89873
-5.94946
-5.99705
-6.04146
-6.08267
-6.12068
-6.15545
-6.187
-6.21533
-3.92287
-4.02057
-4.11703
-4.21198
-4.30532
-4.39695
-4.48677
-4.57468
-4.66056
-4.74431
-4.82583
-4.90502
-4.98181
-5.05609
-5.12781
-5.19687
-5.26322
-5.3268
-5.38755
-5.44541
-5.50035
-5.55232
-5.60129
-5.64723
-5.69011
-5.72993
-5.76665
-5.80027
-5.8308
-5.85824
-3.66463
-3.75888
-3.85194
-3.94355
-4.03361
-4.12204
-4.20873
-4.29357
-4.37645
-4.45727
-4.53593
-4.61234
-4.68642
-4.75807
-4.82723
-4.89383
-4.9578
-5.01908
-5.07763
-5.13339
-5.18633
-5.2364
-5.28358
-5.32783
-5.36914
-5.40749
-5.44286
-5.47526
-5.50467
-5.53112
-3.43202
-3.52299
-3.6128
-3.70123
-3.78818
-3.87355
-3.95725
-4.03916
-4.11916
-4.19717
-4.27308
-4.3468
-4.41825
-4.48735
-4.55403
-4.61822
-4.67986
-4.7389
-4.79529
-4.84898
-4.89993
-4.94812
-4.9935
-5.03606
-5.07577
-5.11263
-5.14662
-5.17774
-5.20597
-5.23137
-3.22208
-3.30992
-3.39666
-3.48207
-3.56606
-3.64854
-3.72939
-3.8085
-3.88577
-3.96108
-4.03436
-4.1055
-4.17443
-4.24107
-4.30536
-4.36722
-4.42661
-4.48347
-4.53775
-4.58942
-4.63843
-4.68476
-4.72838
-4.76926
-4.80739
-4.84276
-4.87535
-4.90517
-4.93221
-4.95651
-3.03214
-3.11702
-3.20084
-3.2834
-3.3646
-3.44434
-3.5225
-3.59896
-3.67362
-3.74638
-3.81715
-3.88583
-3.95235
-4.01664
-4.07862
-4.13825
-4.19547
-4.25023
-4.30248
-4.35218
-4.39931
-4.44384
-4.48573
-4.52497
-4.56155
-4.59544
-4.62666
-4.65519
-4.68103
-4.70422
-2.85984
-2.94192
-3.02299
-3.10286
-3.18143
-3.25858
-3.3342
-3.40816
-3.48036
-3.5507
-3.61907
-3.68541
-3.74964
-3.81168
-3.87147
-3.92897
-3.9841
-4.03684
-4.08714
-4.13496
-4.18028
-4.22306
-4.26329
-4.30094
-4.336
-4.36847
-4.39833
-4.42559
-4.45025
-4.47234
-2.70311
-2.78252
-2.86099
-2.93834
-3.01443
-3.08916
-3.16239
-3.23399
-3.30386
-3.3719
-3.43802
-3.50214
-3.56418
-3.62409
-3.68179
-3.73725
-3.7904
-3.84121
-3.88965
-3.93567
-3.97925
-4.02036
-4.05898
-4.0951
-4.12871
-4.15979
-4.18835
-4.21438
-4.23788
-4.2589
-2.56011
-2.63697
-2.713
-2.78798
-2.86176
-2.93421
-3.0052
-3.07458
-3.14226
-3.20813
-3.27211
-3.33412
-3.39409
-3.45197
-3.50769
-3.5612
-3.61248
-3.66146
-3.70812
-3.75242
-3.79434
-3.83386
-3.87095
-3.90561
-3.93782
-3.96758
-3.99488
-4.01972
-4.04212
-4.06209
-2.4292
-2.50364
-2.57738
-2.65016
-2.72178
-2.79211
-2.86099
-2.92828
-2.99389
-3.05771
-3.11966
-3.17968
-3.23769
-3.29364
-3.34748
-3.39917
-3.44865
-3.49589
-3.54086
-3.58354
-3.62389
-3.66189
-3.69753
-3.7308
-3.76168
-3.79017
-3.81627
-3.83999
-3.86131
-3.88028
-2.30893
-2.38108
-2.45271
-2.52345
-2.59307
-2.66141
-2.72832
-2.79365
-2.8573
-2.91919
-2.97922
-3.03735
-3.09351
-3.14764
-3.1997
-3.24964
-3.29743
-3.34302
-3.3864
-3.42753
-3.46639
-3.50296
-3.53723
-3.56918
-3.5988
-3.62609
-3.65106
-3.67369
-3.694
-3.71202
-2.19803
-2.26802
-2.33773
-2.40659
-2.47437
-2.54087
-2.60592
-2.66941
-2.73122
-2.79127
-2.8495
-2.90584
-2.96024
-3.01264
-3.06302
-3.11131
-3.1575
-3.20154
-3.24341
-3.28308
-3.32053
-3.35575
-3.38872
-3.41942
-3.44785
-3.47401
-3.4979
-3.51952
-3.53887
-3.55598
-2.09531
-2.16328
-2.23132
-2.29849
-2.36457
-2.42936
-2.49269
-2.55443
-2.6145
-2.67282
-2.72933
-2.78398
-2.83672
-2.8875
-2.93628
-2.98302
-3.02769
-3.07026
-3.11071
-3.14901
-3.18514
-3.21908
-3.25082
-3.28035
-3.30766
-3.33276
-3.35563
-3.37629
-3.39473
-3.411
-1.99972
-2.06588
-2.13253
-2.19823
-2.26275
-2.32596
-2.38767
-2.44777
-2.50619
-2.56287
-2.61776
-2.67081
-2.72197
-2.77121
-2.81848
-2.86375
-2.907
-2.94818
-2.98729
-3.02429
-3.05917
-3.09191
-3.1225
-3.15093
-3.17719
-3.20128
-3.2232
-3.24296
-3.26056
-3.27602
-1.91027
-1.97512
-2.04081
-2.10521
-2.16832
-2.23005
-2.29022
-2.34876
-2.40561
-2.46072
-2.51406
-2.56558
-2.61524
-2.66301
-2.70885
-2.75273
-2.79462
-2.83449
-2.87232
-2.9081
-2.9418
-2.9734
-3.0029
-3.03028
-3.05555
-3.0787
-3.09972
-3.11862
-3.13542
-3.15013
-1.82545
-1.89012
-1.95546
-2.01872
-2.08053
-2.14086
-2.19956
-2.25659
-2.31193
-2.36555
-2.41741
-2.46747
-2.51571
-2.56208
-2.60656
-2.64912
-2.68972
-2.72835
-2.76499
-2.7996
-2.83218
-2.86272
-2.89119
-2.9176
-2.94193
-2.96418
-2.98436
-3.00246
-3.0185
-3.0325
-1.74129
-1.8072
-1.87333
-1.93577
-1.99646
-2.05556
-2.11293
-2.16861
-2.22259
-2.27487
-2.32541
-2.37418
-2.42115
-2.4663
-2.50958
-2.55098
-2.59046
-2.62801
-2.6636
-2.69721
-2.72883
-2.75844
-2.78603
-2.8116
-2.83513
-2.85663
-2.87609
-2.89352
-2.90892
-2.92232
-1.65417
-1.72289
-1.79139
-1.85376
-1.91374
-1.97191
-2.02824
-2.08285
-2.13575
-2.18695
-2.23643
-2.28415
-2.3301
-2.37423
-2.41654
-2.45699
-2.49555
-2.53221
-2.56695
-2.59975
-2.63059
-2.65945
-2.68634
-2.71124
-2.73414
-2.75505
-2.77396
-2.79087
-2.8058
-2.81877
-1.58909
-1.66516
-1.73446
-1.79601
-1.85474
-1.91134
-1.96602
-2.01894
-2.07015
-2.11963
-2.16739
-2.21339
-2.25761
-2.30004
-2.34065
-2.37942
-2.41633
-2.45137
-2.48452
-2.51577
-2.54509
-2.5725
-2.59796
-2.62149
-2.64307
-2.66271
-2.68041
-2.69618
-2.71002
-2.72196
0.248878
0.22375
0.196048
0.165604
0.131971
0.0946935
0.0532771
0.00714492
-0.0443778
-0.102075
-0.16686
-0.239793
-0.322109
-0.415243
-0.520867
-0.64092
-0.777652
-0.933669
-1.11198
-1.31605
-1.54983
-1.81782
-2.12507
-2.47711
-2.88015
-3.34116
-3.86355
-4.44432
-5.14228
-6.07113
0.19343
0.166692
0.137995
0.106409
0.0715009
0.0328833
-0.00993779
-0.0575521
-0.110643
-0.170003
-0.236555
-0.311369
-0.395695
-0.490983
-0.598918
-0.721459
-0.860874
-1.01979
-1.20123
-1.40867
-1.64609
-1.91799
-2.22939
-2.5858
-2.99336
-3.45895
-3.98579
-4.57048
-5.27072
-6.19816
0.137048
0.108653
0.0789306
0.0461688
0.00994732
-0.0300504
-0.0743179
-0.123458
-0.178164
-0.239235
-0.307604
-0.384355
-0.470747
-0.568247
-0.678557
-0.803651
-0.945817
-1.1077
-1.29234
-1.50324
-1.74436
-2.02023
-2.33584
-2.69666
-3.10875
-3.57883
-4.10991
-4.69814
-5.39999
-6.32528
0.0797843
0.0496872
0.0189136
-0.0150559
-0.0526267
-0.0940417
-0.139794
-0.190501
-0.246863
-0.309689
-0.379921
-0.458655
-0.547163
-0.646927
-0.759662
-0.887363
-1.03233
-1.19724
-1.38514
-1.59954
-1.84442
-2.1243
-2.44416
-2.80941
-3.22602
-3.70058
-4.23585
-4.82766
-5.53177
-6.45693
0.0216791
-0.0101624
-0.0420138
-0.0772236
-0.11618
-0.159049
-0.206325
-0.258637
-0.316696
-0.38132
-0.453461
-0.534224
-0.624897
-0.726973
-0.842186
-0.972546
-1.12038
-1.28836
-1.47956
-1.69752
-1.94621
-2.23015
-2.55428
-2.924
-3.34516
-3.82421
-4.36371
-4.9592
-5.66598
-6.59214
-0.0372271
-0.0708517
-0.103806
-0.140289
-0.180666
-0.225026
-0.273862
-0.327819
-0.387617
-0.454081
-0.528174
-0.611012
-0.703897
-0.808335
-0.926077
-1.05915
-1.20989
-1.381
-1.57557
-1.79712
-2.04968
-2.33771
-2.66618
-3.04038
-3.46613
-3.94971
-4.49348
-5.09272
-5.80237
-6.73002
-0.0968907
-0.132333
-0.166415
-0.204202
-0.246034
-0.29192
-0.342354
-0.397994
-0.459569
-0.527915
-0.604001
-0.68896
-0.784102
-0.890949
-1.01127
-1.1471
-1.3008
-1.47509
-1.67307
-1.89829
-2.15475
-2.44693
-2.77976
-3.15851
-3.58887
-4.07702
-4.6251
-5.22816
-5.94081
-6.87025
-0.157268
-0.194558
-0.229788
-0.268911
-0.312233
-0.359679
-0.411745
-0.469105
-0.532496
-0.602761
-0.680883
-0.768004
-0.865447
-0.974749
-1.09769
-1.23633
-1.39305
-1.57056
-1.772
-2.00092
-2.26133
-2.55772
-2.89496
-3.27828
-3.7133
-4.20604
-4.75849
-5.36543
-6.08117
-7.01259
-0.218315
-0.257478
-0.293879
-0.334367
-0.379211
-0.428251
-0.481983
-0.541096
-0.606339
-0.678562
-0.758758
-0.84808
-0.947866
-1.05967
-1.18528
-1.32677
-1.48654
-1.66733
-1.87228
-2.10495
-2.36937
-2.66999
-3.01168
-3.3996
-3.83931
-4.33669
-4.89355
-5.50442
-6.22332
-7.15683
-0.27999
-0.321048
-0.358636
-0.400519
-0.446916
-0.497581
-0.553011
-0.613911
-0.681039
-0.755256
-0.837562
-0.929124
-1.03129
-1.14563
-1.27395
-1.41834
-1.58122
-1.76533
-1.97383
-2.2103
-2.47876
-2.78365
-3.12982
-3.52238
-3.9668
-4.46886
-5.03015
-5.64498
-6.36709
-7.30275
-0.342251
-0.38522
-0.424011
-0.467317
-0.515297
-0.567616
-0.624774
-0.687492
-0.756537
-0.83278
-0.917231
-1.01107
-1.11565
-1.23257
-1.36364
-1.51097
-1.67698
-1.86445
-2.07655
-2.31686
-2.58939
-2.8986
-3.24927
-3.64651
-4.09568
-4.60242
-5.16817
-5.78699
-6.51233
-7.45017
-0.405059
-0.449949
-0.489957
-0.534712
-0.584303
-0.638302
-0.697215
-0.76178
-0.832772
-0.91107
-0.997697
-1.09384
-1.20088
-1.32041
-1.45426
-1.60456
-1.77375
-1.96461
-2.18034
-2.42452
-2.70117
-3.01471
-3.36994
-3.77188
-4.22581
-4.73726
-5.30748
-5.93029
-6.65887
-7.59891
-0.468376
-0.515193
-0.556428
-0.602656
-0.653883
-0.709588
-0.77028
-0.836716
-0.90968
-0.990061
-1.07889
-1.17737
-1.28689
-1.40906
-1.54573
-1.69904
-1.87143
-2.06573
-2.28512
-2.53321
-2.814
-3.13192
-3.49172
-3.89837
-4.35709
-4.87325
-5.44795
-6.07475
-6.80656
-7.74882
-0.532171
-0.580912
-0.62338
-0.671103
-0.723988
-0.781419
-0.843912
-0.91224
-0.987199
-1.06969
-1.16075
-1.26159
-1.37362
-1.49846
-1.63797
-1.79431
-1.96996
-2.16771
-2.3908
-2.64283
-2.92779
-3.25011
-3.61449
-4.02588
-4.48938
-5.01026
-5.58943
-6.22021
-6.95524
-7.89972
-0.596415
-0.64707
-0.690773
-0.740009
-0.79457
-0.853743
-0.918053
-0.988291
-1.06526
-1.14988
-1.24319
-1.34641
-1.46098
-1.58851
-1.73089
-1.8903
-2.06921
-2.27046
-2.49728
-2.75326
-3.04242
-3.36914
-3.73813
-4.15426
-4.62255
-5.14815
-5.73177
-6.36652
-7.10476
-8.05145
-0.661083
-0.713635
-0.758568
-0.80933
-0.86558
-0.926507
-0.992646
-1.06481
-1.14381
-1.23056
-1.32613
-1.43176
-1.54888
-1.67913
-1.82441
-1.9869
-2.1691
-2.37387
-2.60443
-2.8644
-3.15776
-3.48891
-3.86252
-4.2834
-4.75648
-5.28678
-5.87484
-6.51352
-7.25494
-8.20385
-0.72616
-0.780577
-0.82673
-0.879024
-0.93697
-0.999657
-1.06763
-1.14172
-1.22276
-1.31166
-1.40951
-1.51756
-1.63724
-1.77022
-1.9184
-2.084
-2.26952
-2.47782
-2.71215
-2.97611
-3.27369
-3.60929
-3.98753
-4.41315
-4.89101
-5.426
-6.01848
-6.66107
-7.40564
-8.35676
-0.791633
-0.847874
-0.895224
-0.94905
-1.00869
-1.07313
-1.14294
-1.21896
-1.30204
-1.3931
-1.49323
-1.6037
-1.72596
-1.86168
-2.01279
-2.1815
-2.37035
-2.58221
-2.82032
-3.08829
-3.39011
-3.73016
-4.11303
-4.54339
-5.02602
-5.56567
-6.16253
-6.80899
-7.55669
-8.51
-0.8575
-0.915504
-0.964017
-1.01936
-1.08069
-1.14688
-1.21851
-1.29646
-1.38156
-1.47478
-1.5772
-1.6901
-1.81495
-1.95342
-2.10747
-2.27931
-2.47152
-2.68694
-2.92884
-3.20082
-3.50689
-3.85139
-4.23889
-4.67398
-5.16135
-5.70563
-6.30684
-6.95714
-7.70793
-8.66342
-0.92376
-0.983443
-1.03307
-1.08991