/*--------------------------------*- C++ -*----------------------------------*\
| =========                 |                                                 |
| \\      /  F ield         | OpenFOAM: The Open Source CFD Toolbox           |
|  \\    /   O peration     | Version:  v1912                                 |
|   \\  /    A nd           | Website:  www.openfoam.com                      |
|    \\/     M anipulation  |                                                 |
\*---------------------------------------------------------------------------*/
FoamFile
{
    version     2.0;
    format      ascii;
    class       volScalarField;
    location    "30.5";
    object      p;
}
// * * * * * * * * * * * * * * * * * * * * * * * * * * * * * * * * * * * * * //

dimensions      [0 2 -2 0 0 0 0];


internalField   nonuniform List<scalar> 
9600
(
-41.4041
-36.1354
-32.9047
-30.1637
-27.6556
-25.3872
-23.3299
-21.4558
-19.7472
-18.1904
-16.7726
-15.4818
-14.3065
-13.236
-12.26
-11.3691
-10.5548
-9.8093
-9.12492
-8.49954
-42.156
-36.87
-33.6037
-30.8204
-28.2676
-25.9555
-23.8573
-21.9458
-20.2037
-18.6173
-17.1734
-15.8598
-14.6645
-13.5762
-12.5845
-11.6796
-10.8528
-10.0957
-9.4003
-8.76578
-42.9096
-37.6007
-34.2975
-31.4715
-28.8739
-26.5179
-24.3788
-22.43
-20.6547
-19.0389
-17.5692
-16.233
-15.0179
-13.9123
-12.9051
-11.9864
-11.1471
-10.3785
-9.67218
-9.02871
-43.6617
-38.3271
-34.9855
-32.1162
-29.4734
-27.0735
-24.8934
-22.9076
-21.0992
-19.4543
-17.9593
-16.6009
-15.3663
-14.2435
-13.2212
-12.2889
-11.4373
-10.6572
-9.94014
-9.28799
-44.4095
-39.0477
-35.6667
-32.7534
-30.0651
-27.6212
-25.4003
-23.3776
-21.5365
-19.863
-18.3429
-16.9626
-15.709
-14.5694
-13.5321
-12.5865
-11.7229
-10.9316
-10.2038
-9.54336
-45.1507
-39.7609
-36.3399
-33.3821
-30.648
-28.16
-25.8984
-23.8391
-21.9658
-20.2639
-18.7192
-17.3176
-16.0452
-14.8892
-13.8375
-12.8788
-12.0034
-11.2011
-10.4629
-9.79452
-45.8837
-40.4655
-37.004
-34.0012
-31.221
-28.689
-26.3869
-24.2914
-22.3861
-20.6565
-19.0877
-17.6651
-16.3745
-15.2025
-14.1366
-13.1653
-12.2784
-11.4654
-10.7171
-10.0412
-46.607
-41.1599
-37.6576
-34.6094
-31.7831
-29.2071
-26.8648
-24.7334
-22.7967
-21.0398
-19.4474
-18.0044
-16.6961
-15.5085
-14.4289
-13.4454
-12.5474
-11.724
-10.9659
-10.2832
-47.3192
-41.8429
-38.2996
-35.2057
-32.3333
-29.7135
-27.3312
-25.1644
-23.1968
-21.4131
-19.7977
-18.3348
-17.0092
-15.8066
-14.7137
-13.7184
-12.8098
-11.9765
-11.2091
-10.52
-48.019
-42.5134
-38.9288
-35.789
-32.8704
-30.207
-27.7852
-25.5835
-23.5855
-21.7756
-20.1377
-18.6554
-17.3132
-16.0961
-14.9904
-13.9838
-13.0651
-12.2223
-11.446
-10.7513
-48.7054
-43.1702
-39.5441
-36.3584
-33.3937
-30.6869
-28.226
-25.9898
-23.962
-22.1265
-20.4666
-18.9656
-17.6072
-16.376
-15.2581
-14.2407
-13.3124
-12.4606
-11.676
-10.9764
-49.3774
-43.8123
-40.1447
-36.9128
-33.902
-31.1522
-28.6526
-26.3824
-24.3254
-22.4649
-20.7837
-19.2644
-17.8903
-16.6456
-15.5159
-14.4883
-13.5509
-12.6907
-11.8984
-11.1947
-50.0343
-44.439
-40.7295
-37.4514
-34.3947
-31.6021
-29.0642
-26.7607
-24.6749
-22.7899
-21.0879
-19.5508
-18.1615
-16.9038
-15.7629
-14.7255
-13.7796
-12.9117
-12.1122
-11.4052
-50.6756
-45.0492
-41.2978
-37.9733
-34.8709
-32.0359
-29.4601
-27.1238
-25.0098
-23.1009
-21.3784
-19.824
-18.4199
-17.1495
-15.9977
-14.951
-13.9971
-13.1221
-12.3164
-11.6075
-51.3007
-45.6424
-41.8487
-38.4779
-35.3298
-32.4528
-29.8398
-27.471
-25.3294
-23.397
-21.6545
-20.0831
-18.6644
-17.3814
-16.2189
-15.1631
-14.2014
-13.3198
-12.5087
-11.7994
-51.9091
-46.2176
-42.3815
-38.9645
-35.771
-32.8523
-30.2025
-27.802
-25.6332
-23.6776
-21.9155
-20.3272
-18.894
-17.5986
-16.4253
-15.3602
-14.3909
-13.5026
-12.6865
-11.9759
-52.5021
-46.7748
-42.8956
-39.4324
-36.1937
-33.2338
-30.5477
-28.116
-25.9206
-23.9423
-22.1607
-20.5557
-19.108
-17.7999
-16.6158
-15.5417
-14.565
-13.6706
-12.8485
-12.1334
-53.0841
-47.3151
-43.3902
-39.8804
-36.597
-33.5965
-30.875
-28.4128
-26.1913
-24.1907
-22.3897
-20.7677
-19.305
-17.9837
-16.7881
-15.7047
-14.721
-13.821
-12.994
-12.2833
-53.6571
-47.8381
-43.8637
-40.3075
-36.9805
-33.9407
-31.1847
-28.6928
-26.4459
-24.4232
-22.6029
-20.9635
-19.4848
-18.1486
-16.939
-15.8428
-14.8472
-13.9364
-13.1081
-12.4296
-54.1994
-48.336
-44.3152
-40.7144
-37.3456
-34.2677
-31.4784
-28.9578
-26.6861
-24.642
-22.8026
-21.1456
-19.6501
-18.2971
-17.0702
-15.9546
-14.9354
-13.9992
-13.1601
-12.4877
-59.6095
-59.5782
-59.5093
-59.4175
-59.3021
-59.1604
-58.9921
-58.7976
-58.5775
-58.3322
-58.0625
-57.7688
-57.4518
-57.1121
-56.7507
-56.3682
-55.9658
-55.5453
-55.1094
-54.6613
-53.2663
-53.2637
-53.2282
-53.1654
-53.0759
-52.9593
-52.8158
-52.6462
-52.451
-52.231
-51.9867
-51.7188
-51.4279
-51.1145
-50.7795
-50.4233
-50.0467
-49.6502
-49.2343
-48.7969
-48.6312
-48.6528
-48.6453
-48.6092
-48.5458
-48.4561
-48.3405
-48.1998
-48.0345
-47.8452
-47.6326
-47.3971
-47.1394
-46.86
-46.5593
-46.2379
-45.896
-45.5337
-45.1507
-44.745
-44.4109
-44.4501
-44.4629
-44.4487
-44.4085
-44.3434
-44.2539
-44.1406
-44.0041
-43.8449
-43.6636
-43.4606
-43.2365
-42.9917
-42.7267
-42.4417
-42.1369
-41.8122
-41.4674
-41.1017
-40.5101
-40.5591
-40.5843
-40.585
-40.5616
-40.515
-40.4457
-40.3543
-40.2413
-40.1071
-39.9523
-39.7774
-39.5829
-39.3691
-39.1363
-38.885
-38.615
-38.3265
-38.0191
-37.6924
-37.0078
-37.0608
-37.0924
-37.1017
-37.0888
-37.0545
-36.9992
-36.9236
-36.828
-36.713
-36.579
-36.4265
-36.2559
-36.0677
-35.8622
-35.6397
-35.4001
-35.1435
-34.8697
-34.578
-33.8944
-33.9474
-33.9809
-33.9938
-33.9865
-33.9593
-33.9129
-33.8478
-33.7643
-33.663
-33.5444
-33.4089
-33.257
-33.0891
-32.9055
-32.7066
-32.4924
-32.2629
-32.0178
-31.7566
-31.1332
-31.1834
-31.2155
-31.2288
-31.2233
-31.1997
-31.1583
-31.0996
-31.0241
-30.9322
-30.8245
-30.7015
-30.5636
-30.4113
-30.245
-30.0651
-29.8716
-29.6646
-29.4437
-29.2085
-28.6842
-28.7301
-28.759
-28.7705
-28.7647
-28.742
-28.7029
-28.6479
-28.5773
-28.4918
-28.3917
-28.2776
-28.1501
-28.0097
-27.8568
-27.6919
-27.5153
-27.3268
-27.1263
-26.9132
-26.5079
-26.5486
-26.5735
-26.5822
-26.5747
-26.5516
-26.5131
-26.4599
-26.3922
-26.3107
-26.2158
-26.1082
-25.9884
-25.857
-25.7146
-25.5618
-25.3988
-25.2258
-25.0426
-24.8485
-24.5672
-24.6026
-24.6232
-24.6286
-24.6189
-24.5944
-24.5557
-24.5031
-24.4371
-24.3582
-24.267
-24.1639
-24.0499
-23.9254
-23.7912
-23.648
-23.4964
-23.3365
-23.1682
-22.9908
-22.8292
-22.8596
-22.876
-22.878
-22.8658
-22.8397
-22.8003
-22.7477
-22.6826
-22.6054
-22.5167
-22.4171
-22.3074
-22.1882
-22.0606
-21.9253
-21.783
-21.6344
-21.4793
-21.317
-21.2656
-21.2915
-21.3039
-21.3027
-21.2881
-21.2605
-21.2201
-21.1673
-21.1027
-21.0267
-20.9398
-20.8428
-20.7364
-20.6214
-20.4989
-20.37
-20.2357
-20.0968
-19.9537
-19.8055
-19.8529
-19.8746
-19.8835
-19.8795
-19.8627
-19.8334
-19.7921
-19.7391
-19.6748
-19.5996
-19.5142
-19.4191
-19.3153
-19.2035
-19.0851
-18.9613
-18.8336
-18.7031
-18.5711
-18.4364
-18.5711
-18.5891
-18.5949
-18.5883
-18.5695
-18.539
-18.4968
-18.4435
-18.3794
-18.305
-18.2207
-18.1272
-18.0254
-17.9161
-17.8008
-17.6809
-17.5586
-17.4353
-17.3136
-17.1922
-17.4037
-17.4184
-17.4214
-17.4125
-17.3921
-17.3604
-17.3176
-17.2641
-17.2002
-17.1263
-17.043
-16.9508
-16.8505
-16.7431
-16.63
-16.5129
-16.3944
-16.2768
-16.1645
-16.0562
-16.337
-16.3488
-16.3492
-16.3384
-16.3165
-16.2838
-16.2404
-16.1867
-16.1229
-16.0495
-15.9669
-15.8757
-15.7764
-15.6702
-15.5583
-15.4426
-15.3264
-15.2125
-15.1082
-15.0115
-15.3591
-15.3684
-15.367
-15.3547
-15.3317
-15.2982
-15.2545
-15.2008
-15.1374
-15.0645
-14.9826
-14.8921
-14.7936
-14.688
-14.5764
-14.4608
-14.3448
-14.2324
-14.135
-14.0473
-14.4587
-14.4667
-14.4643
-14.4515
-14.4284
-14.3953
-14.3523
-14.2997
-14.2376
-14.1663
-14.0862
-13.9976
-13.901
-13.7969
-13.6864
-13.571
-13.4544
-13.3415
-13.2509
-13.1772
-13.6308
-13.6355
-13.6305
-13.6159
-13.5918
-13.5583
-13.5156
-13.4638
-13.4032
-13.3338
-13.2561
-13.1702
-13.0764
-12.9752
-12.8668
-12.7525
-12.634
-12.5166
-12.4196
-12.3699
-53.3647
-53.9354
-54.4693
-54.9883
-55.4897
-55.9673
-56.4185
-56.842
-57.2371
-57.6027
-57.9382
-58.2432
-58.5173
-58.7601
-58.971
-59.1501
-59.2983
-59.4167
-59.5072
-59.5718
-46.8886
-47.4648
-48.0131
-48.5393
-49.0428
-49.5214
-49.9735
-50.3984
-50.7955
-51.1642
-51.5038
-51.8143
-52.0956
-52.3486
-52.5711
-52.7627
-52.9238
-53.0549
-53.1564
-53.2271
-42.2536
-42.8176
-43.3582
-43.8756
-44.3697
-44.8399
-45.2853
-45.7053
-46.0992
-46.4663
-46.8058
-47.1174
-47.4008
-47.6547
-47.8804
-48.078
-48.2473
-48.388
-48.4998
-48.5813
-38.1391
-38.6782
-39.1977
-39.6957
-40.1718
-40.6256
-41.0565
-41.4639
-41.8471
-42.2056
-42.538
-42.8438
-43.1241
-43.3782
-43.6063
-43.8081
-43.9834
-44.1316
-44.2526
-44.3457
-34.4703
-34.9796
-35.4719
-35.9447
-36.3971
-36.8287
-37.2389
-37.6271
-37.9925
-38.3348
-38.6542
-38.9506
-39.2225
-39.47
-39.6932
-39.892
-40.0659
-40.2148
-40.3387
-40.4373
-31.2797
-31.7577
-32.2205
-32.6655
-33.0915
-33.4981
-33.8848
-34.2509
-34.5962
-34.9201
-35.2227
-35.5033
-35.7612
-35.9966
-36.2099
-36.4007
-36.5684
-36.713
-36.8345
-36.933
-28.5149
-28.9623
-29.3957
-29.8127
-30.2119
-30.5928
-30.9551
-31.2983
-31.6218
-31.9255
-32.2089
-32.4719
-32.714
-32.9351
-33.1347
-33.315
-33.4739
-33.6111
-33.7269
-33.8215
-26.1092
-26.5281
-26.9337
-27.3238
-27.6972
-28.0534
-28.392
-28.7123
-29.0143
-29.2974
-29.5615
-29.8065
-30.0322
-30.2385
-30.4253
-30.5911
-30.7395
-30.8678
-30.9761
-31.0646
-24.0043
-24.397
-24.777
-25.1424
-25.4919
-25.825
-26.1411
-26.4399
-26.7212
-26.9847
-27.2303
-27.4579
-27.6673
-27.8586
-28.0316
-28.1864
-28.3216
-28.44
-28.5399
-28.6214
-22.1501
-22.5192
-22.8763
-23.2193
-23.5469
-23.8587
-24.1542
-24.4331
-24.6952
-24.9403
-25.1685
-25.3797
-25.5737
-25.7507
-25.9104
-26.0528
-26.1779
-26.2858
-26.3771
-26.4512
-20.5052
-20.8533
-21.1898
-21.5128
-21.8207
-22.1131
-22.3898
-22.6504
-22.8949
-23.1232
-23.3354
-23.5314
-23.7112
-23.8748
-24.0222
-24.1533
-24.2682
-24.3667
-24.4497
-24.5166
-19.0359
-19.3654
-19.6839
-19.989
-20.2792
-20.5541
-20.8135
-21.0575
-21.2859
-21.4988
-21.6964
-21.8785
-22.0453
-22.1968
-22.3329
-22.4537
-22.5591
-22.6494
-22.7242
-22.7844
-17.7154
-18.0286
-18.3313
-18.6206
-18.8948
-19.1538
-19.3975
-19.6262
-19.8399
-20.0388
-20.2229
-20.3925
-20.5475
-20.6879
-20.8138
-20.9252
-21.0221
-21.1044
-21.1719
-21.2262
-16.5221
-16.8209
-17.1102
-17.3856
-17.6452
-17.8895
-18.1189
-18.3335
-18.5337
-18.7197
-18.8917
-19.0497
-19.194
-19.3244
-19.4411
-19.544
-19.6332
-19.7086
-19.7707
-19.8184
-15.4388
-15.7255
-16.0034
-16.2662
-16.5125
-16.7432
-16.9592
-17.1608
-17.3484
-17.5225
-17.6833
-17.8309
-17.9654
-18.0868
-18.1951
-18.2904
-18.3726
-18.4418
-18.4979
-18.5408
-14.4508
-14.7291
-14.9979
-15.2489
-15.4824
-15.7004
-15.9037
-16.0929
-16.2688
-16.4319
-16.5823
-16.7203
-16.8459
-16.9591
-17.0599
-17.1482
-17.2242
-17.2876
-17.3386
-17.3773
-13.5405
-13.8177
-14.0815
-14.3212
-14.5422
-14.7478
-14.939
-15.1166
-15.2816
-15.4344
-15.5754
-15.7047
-15.8222
-15.928
-16.022
-16.1041
-16.1744
-16.2328
-16.2793
-16.314
-12.6872
-12.9687
-13.2339
-13.4643
-13.6734
-13.8675
-14.0477
-14.2148
-14.3701
-14.5141
-14.6469
-14.7688
-14.8795
-14.979
-15.0674
-15.1444
-15.2101
-15.2644
-15.3073
-15.339
-11.9041
-12.1765
-12.4425
-12.6681
-12.8673
-13.0501
-13.2199
-13.3777
-13.5243
-13.6604
-13.7862
-13.9016
-14.0065
-14.1009
-14.1846
-14.2575
-14.3195
-14.3706
-14.4108
-14.4403
-11.3165
-11.5665
-11.7936
-12.0093
-12.1968
-12.362
-12.5154
-12.659
-12.7925
-12.9162
-13.0305
-13.1353
-13.2304
-13.3157
-13.391
-13.4563
-13.5114
-13.5564
-13.5911
-13.6155
-5.94775
-6.43714
-6.9737
-7.55442
-8.18576
-8.87514
-9.63027
-10.4606
-11.3784
-12.3993
-13.5438
-14.8387
-16.3194
-18.0318
-20.0362
-22.4114
-25.2384
-28.5391
-32.5326
-38.5252
-6.21664
-6.7194
-7.26633
-7.85894
-8.50388
-9.20825
-9.97989
-10.8285
-11.7666
-12.8101
-13.9799
-15.3031
-16.8156
-18.5637
-20.6078
-23.0267
-25.9003
-29.2474
-33.2791
-39.2924
-6.48698
-7.00312
-7.56053
-8.16528
-8.82407
-9.54368
-10.3321
-11.1993
-12.158
-13.2244
-14.4198
-15.7717
-17.3163
-19.1004
-21.1845
-23.6471
-26.5669
-29.9592
-34.0272
-40.0569
-6.75828
-7.28774
-7.85572
-8.47282
-9.14568
-9.88073
-10.6861
-11.5721
-12.5516
-13.6412
-14.8624
-16.2432
-17.8202
-19.6404
-21.7646
-24.2709
-27.2366
-30.6741
-34.7795
-40.8301
-7.03011
-7.57281
-8.15144
-8.7811
-9.46821
-10.2189
-11.0414
-11.9463
-12.9469
-14.0598
-15.3071
-16.7169
-18.3264
-20.1829
-22.3473
-24.8972
-27.9088
-31.3914
-35.535
-41.6097
-7.30209
-7.85791
-8.44726
-9.08967
-9.79125
-10.5577
-11.3976
-12.3216
-13.3432
-14.4797
-15.7531
-17.1922
-18.8343
-20.7272
-22.9318
-25.5254
-28.5826
-32.1101
-36.2916
-42.3915
-7.57392
-8.1427
-8.74281
-9.39816
-10.1144
-10.8968
-11.7541
-12.6973
-13.7402
-14.9003
-16.2
-17.6684
-19.3432
-21.2725
-23.5173
-26.1545
-29.2572
-32.8292
-37.0478
-43.1731
-7.84534
-8.42687
-9.03776
-9.70623
-10.4372
-11.2357
-12.1105
-13.073
-14.1373
-15.321
-16.647
-18.1448
-19.8524
-21.8181
-24.1031
-26.7836
-29.9316
-33.5476
-37.8026
-43.9531
-8.1162
-8.71024
-9.33188
-10.0136
-10.7594
-11.574
-12.4663
-13.4482
-14.5338
-15.7412
-17.0936
-18.6207
-20.361
-22.3631
-24.6881
-27.4118
-30.6046
-34.2641
-38.5546
-44.73
-8.38646
-8.99268
-9.62501
-10.3201
-11.0808
-11.9115
-12.8214
-13.8225
-14.9294
-16.1605
-17.5391
-19.0955
-20.8684
-22.9068
-25.2715
-28.038
-31.2751
-34.9775
-39.3025
-45.5024
-8.65622
-9.27424
-9.91709
-10.6255
-11.4011
-12.2478
-13.1751
-14.1955
-15.3236
-16.5781
-17.9828
-19.5683
-21.3737
-23.4481
-25.8523
-28.6612
-31.9421
-35.6867
-40.0451
-46.2687
-8.92578
-9.55507
-10.2082
-10.9298
-11.7202
-12.5827
-13.5273
-14.5666
-15.7157
-16.9935
-18.4242
-20.0386
-21.8762
-23.9862
-26.4296
-29.2804
-32.6044
-36.3903
-40.781
-47.0276
-9.19562
-9.83546
-10.4984
-11.233
-12.0379
-12.916
-13.8775
-14.9355
-16.1053
-17.4061
-18.8624
-20.5054
-22.3749
-24.5203
-27.0023
-29.8944
-33.2608
-37.0872
-41.5089
-47.7778
-9.46645
-10.1158
-10.7878
-11.535
-12.354
-13.2472
-14.2253
-15.3016
-16.4917
-17.8152
-19.2968
-20.968
-22.869
-25.0493
-27.5694
-30.5022
-33.9102
-37.7761
-42.2276
-48.5179
-9.73903
-10.3965
-11.0765
-11.8356
-12.668
-13.5758
-14.5701
-15.6643
-16.8743
-18.22
-19.7264
-21.4255
-23.3575
-25.5721
-28.1298
-31.1025
-34.5512
-38.4558
-42.9357
-49.2467
-10.0143
-10.6776
-11.3642
-12.1342
-12.9794
-13.9013
-14.9111
-16.0227
-17.2522
-18.6196
-20.1505
-21.8769
-23.8394
-26.0878
-28.6823
-31.6941
-35.1826
-39.1251
-43.6323
-49.9633
-10.292
-10.9581
-11.6494
-12.4295
-13.287
-14.2224
-15.2473
-16.3758
-17.6244
-19.0132
-20.5679
-22.3211
-24.3136
-26.5951
-29.2257
-32.2756
-35.803
-39.7825
-44.3162
-50.6672
-10.5713
-11.2355
-11.9295
-12.7196
-13.5893
-14.538
-15.5777
-16.7228
-17.9899
-19.3996
-20.9778
-22.7572
-24.7789
-27.0929
-29.7587
-32.8458
-36.4109
-40.4263
-44.9863
-51.3582
-10.845
-11.5012
-12.1985
-13.0011
-13.8843
-14.8464
-15.9008
-17.0623
-18.3477
-19.7778
-21.3788
-23.1839
-25.2342
-27.5797
-30.2798
-33.4029
-37.0044
-41.0549
-45.6415
-52.0379
-11.0942
-11.7355
-12.4519
-13.275
-14.1724
-15.1475
-16.2161
-17.3936
-18.6968
-20.1468
-21.7701
-23.6002
-25.6783
-28.0544
-30.7876
-33.9453
-37.5815
-41.6651
-46.277
-52.7078
-1.56123
-1.81589
-2.16468
-2.55477
-2.97484
-3.43031
-3.92753
-4.47247
-5.07267
-5.73844
-6.48373
-7.3276
-8.29616
-9.42541
-10.7661
-12.3923
-14.3933
-16.8297
-20.0088
-25.4061
-1.7133
-1.98426
-2.35128
-2.74713
-3.17049
-3.63117
-4.13516
-4.68804
-5.2975
-5.97409
-6.73206
-7.59077
-8.57677
-9.72657
-11.0915
-12.7461
-14.7797
-17.2512
-20.4622
-25.8731
-1.85943
-2.15435
-2.53438
-2.93825
-3.36923
-3.83817
-4.35097
-4.91338
-5.53347
-6.22213
-6.99394
-7.86864
-8.87324
-10.0448
-11.4351
-13.1191
-15.186
-17.6926
-20.9348
-26.354
-2.02762
-2.33329
-2.72143
-3.13392
-3.57398
-4.05234
-4.57504
-5.14812
-5.77996
-6.48178
-7.26848
-8.16022
-9.18447
-10.3788
-11.7955
-13.51
-15.6111
-18.1541
-21.4308
-26.8674
-2.20705
-2.51974
-2.91562
-3.33696
-3.78641
-4.27462
-4.80786
-5.3924
-6.03687
-6.75276
-7.55531
-8.46505
-9.50995
-10.7281
-12.1723
-13.9184
-16.0549
-18.6358
-21.9495
-27.4099
-2.39192
-2.71314
-3.11725
-3.5476
-4.0067
-4.50523
-5.0496
-5.64629
-6.30415
-7.03493
-7.8542
-8.78289
-9.84942
-11.0924
-12.5652
-14.344
-16.5171
-19.1371
-22.4893
-27.9764
-2.58376
-2.91439
-3.32664
-3.76601
-4.23504
-4.74431
-5.30033
-5.90978
-6.5817
-7.32812
-8.16492
-9.11344
-10.2025
-11.4714
-12.9739
-14.7865
-16.9975
-19.6576
-23.0489
-28.5646
-2.78397
-3.12396
-3.54415
-3.99253
-4.47168
-4.99201
-5.56011
-6.18282
-6.8694
-7.63213
-8.48722
-9.45638
-10.569
-11.8646
-13.3979
-15.2454
-17.4953
-20.1966
-23.6279
-29.1732
-2.99232
-3.34174
-3.76981
-4.22725
-4.71668
-5.24833
-5.82887
-6.4653
-7.16708
-7.94674
-8.82081
-9.81139
-10.9483
-12.2717
-13.8366
-15.7201
-18.0099
-20.7535
-24.2255
-29.8014
-3.20823
-3.56739
-4.00344
-4.47002
-4.96992
-5.51316
-6.10647
-6.75704
-7.47451
-8.27168
-9.16538
-10.1781
-11.3401
-12.6922
-14.2897
-16.2102
-18.5409
-21.3275
-24.8408
-30.448
-3.43127
-3.80055
-4.24473
-4.72059
-5.23115
-5.78624
-6.39266
-7.05776
-7.79141
-8.60663
-9.52057
-10.5561
-11.744
-13.1255
-14.7566
-16.7149
-19.0875
-21.918
-25.4732
-31.1119
-3.66106
-4.04085
-4.4933
-4.97859
-5.50004
-6.06726
-6.68712
-7.36714
-8.11741
-8.95119
-9.88597
-10.945
-12.1595
-13.5713
-15.2367
-17.2337
-19.649
-22.5242
-26.1216
-31.7921
-3.89715
-4.2878
-4.74872
-5.24363
-5.7762
-6.35582
-6.98945
-7.68478
-8.4521
-9.30495
-10.2611
-11.3443
-12.5861
-14.0288
-15.7294
-17.766
-20.2246
-23.1452
-26.7852
-32.4877
-4.139
-4.5409
-5.01048
-5.51523
-6.05917
-6.65149
-7.2992
-8.01021
-8.79501
-9.6674
-10.6455
-11.7534
-13.0232
-14.4976
-16.2341
-18.3109
-20.8138
-23.7803
-27.4632
-33.1978
-4.38608
-4.79958
-5.27805
-5.79288
-6.34846
-6.95376
-7.61589
-8.34293
-9.14563
-10.038
-11.0386
-12.1717
-13.4701
-14.9769
-16.75
-18.8679
-21.4156
-24.4286
-28.1548
-33.9215
-4.63783
-5.06329
-5.55088
-6.07602
-6.64352
-7.26211
-7.93897
-8.68242
-9.5034
-10.4162
-11.4397
-12.5987
-13.9262
-15.4661
-17.2764
-19.436
-22.0292
-25.0892
-28.8591
-34.658
-4.89371
-5.33144
-5.82839
-6.36411
-6.94381
-7.57598
-8.2679
-9.02809
-9.86775
-10.8015
-11.8483
-13.0336
-14.3909
-15.9643
-17.8126
-20.0145
-22.6537
-25.7613
-29.5753
-35.4068
-5.15318
-5.60347
-6.10999
-6.65657
-7.24876
-7.89481
-8.60209
-9.37937
-10.2381
-11.1931
-12.2638
-13.4759
-14.8634
-16.471
-18.3577
-20.6024
-23.2881
-26.4438
-30.3026
-36.1676
-5.41567
-5.87879
-6.39512
-6.95281
-7.55778
-8.218
-8.94095
-9.73563
-10.6137
-11.5904
-12.6853
-13.9247
-15.3429
-16.985
-18.9107
-21.1987
-23.9314
-27.1354
-31.0398
-36.9409
-5.68071
-6.15687
-6.68323
-7.25231
-7.87033
-8.54501
-9.28392
-10.0963
-10.9941
-11.9927
-13.1123
-14.3793
-15.8286
-17.5058
-19.4707
-21.8023
-24.5822
-27.8345
-31.7844
-37.7275
-1.31472
-1.10968
-0.95736
-0.822039
-0.703313
-0.598637
-0.506902
-0.427314
-0.359374
-0.302723
-0.257096
-0.222283
-0.198109
-0.184425
-0.181085
-0.187888
-0.204666
-0.231599
-0.268632
-0.31574
-1.64518
-1.46331
-1.30704
-1.16654
-1.04304
-0.933948
-0.838298
-0.755286
-0.684399
-0.625259
-0.577585
-0.541155
-0.515782
-0.501309
-0.497585
-0.504446
-0.521756
-0.549528
-0.587719
-0.636285
-1.97879
-1.80479
-1.64856
-1.50695
-1.38135
-1.27012
-1.17254
-1.08795
-1.01585
-0.955902
-0.907818
-0.871376
-0.84639
-0.832698
-0.830149
-0.838595
-0.857924
-0.888096
-0.929035
-0.980698
-2.36381
-2.18821
-2.02901
-1.88448
-1.75535
-1.64065
-1.53991
-1.45256
-1.3782
-1.31648
-1.26713
-1.22993
-1.20468
-1.19121
-1.18937
-1.19901
-1.22003
-1.25233
-1.29582
-1.35045
-2.78411
-2.60614
-2.44305
-2.29465
-2.16136
-2.04267
-1.93824
-1.84764
-1.77054
-1.70661
-1.6556
-1.61729
-1.59147
-1.57799
-1.57666
-1.58736
-1.60995
-1.64432
-1.69036
-1.74803
-3.23735
-3.05625
-2.88908
-2.73642
-2.59875
-2.47586
-2.36755
-2.27352
-2.19348
-2.12717
-2.07435
-2.0348
-2.00833
-1.99476
-1.99394
-2.00571
-2.02993
-2.06648
-2.11522
-2.17609
-3.72974
-3.54403
-3.37204
-3.21455
-3.07206
-2.94459
-2.83205
-2.73426
-2.65099
-2.58201
-2.52713
-2.48613
-2.45884
-2.44506
-2.44465
-2.45745
-2.48331
-2.52209
-2.57363
-2.63791
-4.26813
-4.07633
-3.89845
-3.73526
-3.58726
-3.4546
-3.3373
-3.23524
-3.14827
-3.07622
-3.0189
-2.97611
-2.9477
-2.93348
-2.93329
-2.94698
-2.9744
-3.01538
-3.06977
-3.13754
-4.86025
-4.66092
-4.47593
-4.30598
-4.15156
-4.01292
-3.89012
-3.78313
-3.69186
-3.61616
-3.55588
-3.51085
-3.48091
-3.4659
-3.46564
-3.47999
-3.50879
-3.55186
-3.60905
-3.68034
-5.51628
-5.30786
-5.11435
-4.93637
-4.77441
-4.62875
-4.49952
-4.38674
-4.29035
-4.21027
-4.14635
-4.09846
-4.06643
-4.05012
-4.04937
-4.06402
-4.0939
-4.13883
-4.19866
-4.27338
-6.25
-6.0307
-5.827
-5.63945
-5.46854
-5.31456
-5.17769
-5.05799
-4.95545
-4.86999
-4.80153
-4.74994
-4.71507
-4.69677
-4.6949
-4.70929
-4.73978
-4.78617
-4.84831
-4.92622
-7.08013
-6.84784
-6.63196
-6.43296
-6.25133
-6.08739
-5.94134
-5.81327
-5.7032
-5.6111
-5.5369
-5.48048
-5.44172
-5.42048
-5.41661
-5.42994
-5.46032
-5.50754
-5.57142
-5.65204
-8.0324
-7.7846
-7.5541
-7.34134
-7.1468
-6.97082
-6.81361
-6.6753
-6.55595
-6.45553
-6.37401
-6.31127
-6.26722
-6.24171
-6.23461
-6.24576
-6.27498
-6.32205
-6.38679
-6.46935
-9.1423
-8.87593
-8.62785
-8.39846
-8.18827
-7.99763
-7.82677
-7.67585
-7.54493
-7.43403
-7.34311
-7.2721
-7.22088
-7.18934
-7.17733
-7.18471
-7.21129
-7.25683
-7.32113
-7.4044
-10.46
-10.1714
-9.90208
-9.65256
-9.42336
-9.21481
-9.02719
-8.86065
-8.71529
-8.59113
-8.48815
-8.40629
-8.34545
-8.30552
-8.28636
-8.28782
-8.30971
-8.35175
-8.41374
-8.49593
-12.0588
-11.7436
-11.4488
-11.175
-10.9228
-10.6924
-10.4843
-10.2984
-10.1351
-9.99424
-9.87587
-9.77992
-9.70633
-9.65497
-9.62571
-9.61842
-9.63288
-9.6688
-9.72595
-9.80458
-14.0277
-13.6812
-13.3563
-13.0537
-12.774
-12.5176
-12.2848
-12.0757
-11.8905
-11.7291
-11.5916
-11.478
-11.3881
-11.3219
-11.2792
-11.2599
-11.2639
-11.2908
-11.3403
-11.4125
-16.4277
-16.0459
-15.6868
-15.3515
-15.0406
-14.7545
-14.4936
-14.2578
-14.0474
-13.8622
-13.7024
-13.5679
-13.4587
-13.3746
-13.3157
-13.2817
-13.2725
-13.288
-13.3277
-13.391
-19.5685
-19.1472
-18.7495
-18.3779
-18.0329
-17.7144
-17.4224
-17.1569
-16.9179
-16.7054
-16.5195
-16.36
-16.227
-16.1204
-16.0402
-15.986
-15.9579
-15.9563
-15.9808
-16.0294
-24.908
-24.442
-24.01
-23.6093
-23.2376
-22.8939
-22.5779
-22.2894
-22.0283
-21.7947
-21.5885
-21.41
-21.259
-21.1358
-21.0404
-20.9728
-20.9338
-20.9257
-20.9497
-20.9957
-0.372748
-0.439346
-0.515492
-0.601102
-0.696088
-0.800338
-0.913718
-1.03606
-1.16716
-1.30672
-1.45439
-1.60964
-1.77167
-1.93926
-2.11078
-2.28394
-2.45428
-2.61201
-2.74176
-2.86963
-0.695158
-0.764007
-0.842762
-0.931307
-1.02953
-1.13731
-1.25449
-1.38087
-1.51622
-1.66022
-1.81247
-1.97242
-2.13929
-2.31193
-2.48871
-2.66801
-2.84805
-3.02109
-3.17189
-3.34201
-1.04302
-1.11569
-1.19862
-1.2917
-1.39478
-1.50773
-1.63037
-1.76248
-1.90381
-2.05402
-2.21268
-2.37924
-2.55296
-2.73279
-2.9174
-3.10558
-3.29638
-3.48541
-3.6669
-3.87065
-1.41618
-1.49266
-1.57983
-1.67754
-1.78563
-1.90394
-2.03228
-2.17042
-2.31807
-2.47488
-2.64041
-2.81412
-2.9953
-3.18303
-3.37625
-3.5741
-3.77575
-3.97891
-4.18401
-4.41139
-1.81727
-1.89774
-1.98934
-2.09192
-2.2053
-2.32932
-2.46375
-2.60835
-2.76282
-2.92679
-3.09984
-3.28142
-3.4709
-3.66748
-3.87035
-4.07891
-4.29253
-4.51017
-4.73445
-4.97849
-2.24912
-2.33386
-2.43023
-2.53806
-2.65718
-2.78738
-2.92845
-3.08011
-3.24207
-3.41395
-3.59534
-3.78573
-3.98454
-4.1911
-4.40482
-4.62526
-4.85204
-5.08493
-5.32667
-5.58511
-2.71493
-2.80419
-2.90565
-3.01912
-3.1444
-3.28129
-3.42955
-3.58892
-3.75908
-3.93968
-4.1303
-4.33048
-4.5397
-4.75742
-4.98317
-5.21665
-5.45766
-5.70639
-5.96506
-6.23811
-3.21867
-3.31272
-3.41956
-3.53901
-3.67087
-3.81494
-3.97096
-4.13868
-4.31777
-4.5079
-4.70866
-4.91964
-5.14037
-5.37041
-5.60938
-5.85705
-6.11333
-6.37856
-6.65429
-6.94301
-3.76573
-3.8647
-3.97713
-4.10285
-4.24167
-4.39336
-4.55769
-4.73438
-4.92312
-5.12357
-5.33538
-5.55816
-5.79148
-6.03497
-6.28832
-6.55134
-6.82397
-7.10651
-7.39995
-7.70568
-4.36301
-4.4669
-4.58513
-4.71733
-4.8634
-5.02311
-5.19621
-5.38242
-5.58146
-5.793
-6.0167
-6.2522
-6.49914
-6.75717
-7.02601
-7.3055
-7.59557
-7.89639
-8.20853
-8.53277
-5.01994
-5.12872
-5.25259
-5.39143
-5.5449
-5.71287
-5.89508
-6.09127
-6.30115
-6.52441
-6.76073
-7.00979
-7.27125
-7.5448
-7.83018
-8.1272
-8.43577
-8.75592
-9.08789
-9.43217
-5.74947
-5.86283
-5.9922
-6.13739
-6.29828
-6.47455
-6.66603
-6.87245
-7.09352
-7.32895
-7.57846
-7.84173
-8.11846
-8.40834
-8.71113
-9.02662
-9.35466
-9.69515
-10.0481
-10.4139
-6.56979
-6.6871
-6.82145
-6.97258
-7.14039
-7.32491
-7.52563
-7.74214
-7.97442
-8.22219
-8.48515
-8.76303
-9.05549
-9.36226
-9.6831
-10.0178
-10.3661
-10.7278
-11.1027
-11.4912
-7.50674
-7.62693
-7.76532
-7.92162
-8.09561
-8.28735
-8.49756
-8.72327
-8.96638
-9.22619
-9.50245
-9.79487
-10.1032
-10.427
-10.7662
-11.1205
-11.4895
-11.873
-12.2706
-12.6828
-8.59847
-8.71987
-8.8607
-9.02072
-9.19978
-9.39737
-9.61293
-9.84906
-10.1027
-10.3737
-10.6625
-10.9689
-11.2927
-11.6335
-11.9908
-12.3645
-12.7542
-13.1596
-13.5802
-14.0163
-9.90482
-10.0249
-10.1657
-10.3272
-10.5092
-10.7113
-10.9329
-11.1743
-11.4357
-11.7174
-12.0179
-12.3377
-12.6761
-13.0326
-13.4068
-13.7989
-14.2085
-14.635
-15.078
-15.5377
-11.5071
-11.6228
-11.7608
-11.9211
-12.1032
-12.307
-12.5322
-12.7786
-13.0461
-13.3348
-13.6455
-13.9769
-14.3271
-14.6956
-15.0836
-15.4916
-15.919
-16.3652
-16.829
-17.3104
-13.4758
-13.5839
-13.7161
-13.8718
-14.0497
-14.2505
-14.4743
-14.7209
-14.99
-15.281
-15.5933
-15.9273
-16.2846
-16.6656
-17.0686
-17.4923
-17.9364
-18.4004
-18.8834
-19.3845
-16.1001
-16.1923
-16.3082
-16.4495
-16.6175
-16.8112
-17.0299
-17.2731
-17.5406
-17.8319
-18.1464
-18.4839
-18.8446
-19.2291
-19.6371
-20.0681
-20.5219
-20.9991
-21.4998
-22.0188
-21.0381
-21.1108
-21.2142
-21.3459
-21.5049
-21.6904
-21.902
-22.1391
-22.4014
-22.6887
-23.0007
-23.3374
-23.6988
-24.0854
-24.4971
-24.934
-25.3971
-25.8904
-26.4163
-26.9572
-27.4687
-22.5483
-19.903
-17.8095
-16.0139
-14.4679
-13.1093
-11.8932
-10.7924
-9.78869
-8.86906
-8.02367
-7.24485
-6.52629
-5.86272
-5.24954
-4.68142
-4.15272
-3.67188
-3.26764
-28.0079
-23.0936
-20.437
-18.3234
-16.5042
-14.9328
-13.5484
-12.307
-11.1821
-10.1559
-9.21571
-8.35181
-7.55668
-6.82415
-6.14912
-5.52709
-4.95325
-4.42516
-3.95591
-3.55366
-28.5753
-23.6576
-20.988
-18.8532
-17.0091
-15.411
-13.9997
-12.7322
-11.5824
-10.5331
-9.57181
-8.68892
-7.87698
-7.12986
-6.44243
-5.81009
-5.22814
-4.69427
-4.21799
-3.79637
-29.1669
-24.2409
-21.5559
-19.3985
-17.5279
-15.902
-14.4627
-13.168
-11.9925
-10.9194
-9.93628
-9.03367
-8.20408
-7.44128
-6.73992
-6.09513
-5.50198
-4.95747
-4.46831
-4.02809
-29.7796
-24.8428
-22.1402
-19.9588
-18.0602
-16.405
-14.9366
-13.6138
-12.4117
-11.314
-10.3083
-9.38521
-8.53719
-7.7578
-7.04146
-6.38299
-5.77715
-5.22038
-4.71755
-4.26132
-30.4117
-25.4638
-22.7391
-20.5331
-18.6051
-16.9193
-15.4207
-14.0687
-12.8393
-11.7161
-10.6871
-9.74288
-8.87574
-8.07907
-7.34702
-6.67414
-6.05499
-5.48564
-4.96965
-4.49946
-31.0621
-26.1025
-23.352
-21.1204
-19.1619
-17.4441
-15.9141
-14.5321
-13.2744
-12.125
-11.0721
-10.1062
-9.21943
-8.40501
-7.65685
-6.96929
-6.33671
-5.75497
-5.22654
-4.74378
-31.7297
-26.7569
-23.9788
-21.7199
-19.7296
-17.9787
-16.4163
-15.0032
-13.7164
-12.5403
-11.4629
-10.4748
-9.56796
-8.73548
-7.97102
-7.2687
-6.62278
-6.02892
-5.48862
-4.99422
-32.413
-27.4257
-24.6187
-22.3308
-20.3074
-18.5222
-16.9263
-15.4813
-14.1647
-12.9611
-11.8588
-10.8481
-9.921
-9.07028
-8.28943
-7.57237
-6.91324
-6.30752
-5.75574
-5.25028
-33.1109
-28.1075
-25.2708
-22.9522
-20.8943
-19.0738
-17.4433
-15.9656
-14.6185
-13.387
-12.2592
-11.2257
-10.2781
-9.40908
-8.61181
-7.88006
-7.20783
-6.59039
-6.0274
-5.51126
-33.8221
-28.8014
-25.9339
-23.5831
-21.4894
-19.6324
-17.9665
-16.4553
-15.0771
-13.8172
-12.6637
-11.6071
-10.6389
-9.75144
-8.93774
-8.19134
-7.50608
-6.87703
-6.30296
-5.77636
-34.5455
-29.5061
-26.6069
-24.2225
-22.0918
-20.1973
-18.495
-16.9496
-15.5398
-14.251
-13.0716
-11.9917
-11.0027
-10.0968
-9.2667
-8.50568
-7.80744
-7.1668
-6.58173
-6.04481
-35.2801
-30.2207
-27.2887
-24.8693
-22.7004
-20.7673
-19.0279
-17.4476
-16.0057
-14.6878
-13.4821
-12.3788
-11.369
-10.4446
-9.5981
-8.82249
-8.11128
-7.45905
-6.86299
-6.31585
-36.0247
-30.9439
-27.9781
-25.5224
-23.3141
-21.3415
-19.5643
-17.9485
-16.4741
-15.1266
-13.8946
-12.7678
-11.7371
-10.7942
-9.93131
-9.14112
-8.41696
-7.75312
-7.14605
-6.58876
-36.7782
-31.6745
-28.674
-26.1806
-23.9319
-21.9189
-20.1031
-18.4514
-16.944
-15.5669
-14.3083
-13.1579
-12.1064
-11.145
-10.2657
-9.46094
-8.72382
-8.04833
-7.43023
-6.86285
-37.5395
-32.4112
-29.3749
-26.8428
-24.5526
-22.4984
-20.6433
-18.9552
-17.4146
-16.0076
-14.7224
-13.5484
-12.476
-11.4962
-10.6006
-9.78129
-9.03121
-8.34404
-7.71488
-7.1375
-38.3082
-33.153
-30.0796
-27.5075
-25.175
-23.0788
-21.1839
-19.459
-17.885
-16.448
-15.1361
-13.9386
-12.8454
-11.8472
-10.9353
-10.1015
-9.33851
-8.63964
-7.9994
-7.41211
-39.0855
-33.8993
-30.7866
-28.1734
-25.7975
-23.6588
-21.7237
-19.9617
-18.3541
-16.8871
-15.5486
-14.3276
-13.2137
-12.1972
-11.2691
-10.421
-9.64506
-8.9345
-8.28319
-7.68611
-39.8718
-34.6489
-31.4941
-28.8386
-26.419
-24.2373
-22.2616
-20.4624
-18.8212
-17.3242
-15.9592
-14.7148
-13.5803
-12.5457
-11.6015
-10.739
-9.95027
-9.22803
-8.56568
-7.959
-40.6544
-35.3968
-32.2003
-29.5023
-27.0387
-24.8137
-22.7973
-20.9607
-19.2858
-17.7588
-16.3674
-15.0997
-13.9447
-12.8921
-11.9319
-11.0552
-10.2537
-9.51979
-8.84642
-8.23033
-6.71572
-4.62474
-3.27655
-2.24141
-1.51548
-0.982671
-0.600373
-0.329139
-0.140936
-0.0142275
0.0673904
0.116423
0.142283
0.15206
0.150978
0.142862
0.130486
0.115824
0.100266
0.0847686
0.0699667
0.0562677
0.0439035
0.0329952
0.0235598
0.0155824
0.00896289
0.00364532
-0.000550512
-0.00364436
-0.00591493
-0.00725148
-0.00811737
-0.008114
-0.00807076
-0.0070266
-0.00647995
-0.00450327
-0.00363626
-0.000556398
-6.96953
-4.80578
-3.4219
-2.35588
-1.60603
-1.05592
-0.660136
-0.378516
-0.182114
-0.0488164
0.0381934
0.091704
0.121323
0.134286
0.135918
0.130123
0.119735
0.106777
0.0926788
0.0784293
0.0646926