/*--------------------------------*- C++ -*----------------------------------*\
  =========                 |
  \\      /  F ield         | OpenFOAM: The Open Source CFD Toolbox
   \\    /   O peration     | Website:  https://openfoam.org
    \\  /    A nd           | Version:  6.0
     \\/     M anipulation  |
\*---------------------------------------------------------------------------*/
FoamFile
{
    version     2.0;
    format      ascii;
    class       volScalarField;
    location    "11.4999";
    object      p;
}
// * * * * * * * * * * * * * * * * * * * * * * * * * * * * * * * * * * * * * //

dimensions      [0 2 -2 0 0 0 0];

internalField   nonuniform List<scalar> 
19200
(
-88.5636
-80.398
-74.2999
-69.1652
-64.3839
-59.9672
-55.8981
-52.137
-48.6561
-45.4339
-42.4511
-39.6903
-37.1348
-34.7692
-32.579
-30.5502
-28.6701
-26.9266
-25.3085
-23.8056
-22.4085
-21.1083
-19.8973
-18.7683
-17.7145
-16.7303
-15.8104
-14.9496
-14.1438
-13.3922
-89.0453
-80.8908
-74.7852
-69.6328
-64.8306
-60.3923
-56.3015
-52.5198
-49.0194
-45.7792
-42.7802
-40.0045
-37.4357
-35.058
-32.8569
-30.8182
-28.9291
-27.1774
-25.5519
-24.0421
-22.6385
-21.3324
-20.1158
-18.9814
-17.9227
-16.9338
-16.0093
-15.1441
-14.3336
-13.5788
-89.5374
-81.3814
-75.2663
-70.0967
-65.274
-60.814
-56.7018
-52.8994
-49.3798
-46.1219
-43.1067
-40.3164
-37.7343
-35.3448
-33.1328
-31.0844
-29.1864
-27.4266
-25.7936
-24.277
-22.8671
-21.555
-20.3329
-19.1933
-18.1297
-17.136
-16.207
-15.3373
-14.5223
-13.7644
-90.0351
-81.8723
-75.7448
-70.5574
-65.7139
-61.2323
-57.0987
-53.2759
-49.7372
-46.4617
-43.4304
-40.6256
-38.0305
-35.6291
-33.4065
-31.3485
-29.4418
-27.6739
-26.0336
-24.5102
-23.094
-21.7761
-20.5485
-19.4037
-18.3352
-17.3368
-16.4033
-15.5292
-14.7096
-13.9488
-90.5345
-82.3628
-76.2209
-71.0151
-66.1506
-61.6472
-57.4922
-53.649
-50.0913
-46.7983
-43.7512
-40.932
-38.3239
-35.911
-33.6779
-31.6103
-29.6949
-27.9192
-26.2716
-24.7415
-23.3191
-21.9955
-20.7625
-19.6126
-18.5392
-17.5362
-16.5982
-15.7196
-14.8955
-14.1319
-91.0338
-82.852
-76.6946
-71.4695
-66.5838
-62.0586
-57.8822
-54.0186
-50.4419
-47.1316
-44.0688
-41.2354
-38.6146
-36.1901
-33.9466
-31.8697
-29.9458
-28.1623
-26.5076
-24.9709
-23.5424
-22.213
-20.9746
-19.8197
-18.7415
-17.7339
-16.7915
-15.9085
-15.0799
-14.3136
-91.5314
-83.339
-77.1654
-71.9207
-67.0134
-62.4662
-58.2683
-54.3845
-50.789
-47.4614
-44.383
-41.5356
-38.9021
-36.4663
-34.2126
-32.1265
-30.1941
-28.403
-26.7412
-25.198
-23.7635
-22.4285
-21.1849
-20.025
-18.942
-17.9299
-16.9832
-16.0957
-15.2628
-14.494
-92.0265
-83.8234
-77.6331
-72.3682
-67.4391
-62.8698
-58.6504
-54.7463
-51.1321
-47.7875
-44.6936
-41.8324
-39.1864
-36.7394
-34.4757
-32.3804
-30.4398
-28.6411
-26.9724
-25.4229
-23.9824
-22.6419
-21.3931
-20.2282
-19.1406
-18.1241
-17.1731
-16.2813
-15.444
-14.6728
-92.5185
-84.3043
-78.097
-72.8117
-67.8607
-63.2692
-59.0283
-55.104
-51.4712
-48.1096
-45.0005
-42.1255
-39.4673
-37.0092
-34.7355
-32.6313
-30.6826
-28.8765
-27.201
-25.6452
-24.1989
-22.853
-21.5991
-20.4295
-19.3373
-18.3164
-17.3611
-16.465
-15.6234
-14.8501
-93.0067
-84.7813
-78.5568
-73.251
-68.2778
-63.664
-59.4017
-55.4572
-51.8059
-48.4275
-45.3033
-42.4147
-39.7444
-37.2755
-34.9921
-32.879
-30.9224
-29.109
-27.4268
-25.8648
-24.4129
-23.0616
-21.8027
-20.6284
-19.5318
-18.5066
-17.5473
-16.6469
-15.8011
-15.0257
-93.4906
-85.2541
-79.0122
-73.6855
-68.6901
-64.054
-59.7703
-55.8058
-52.136
-48.741
-45.6018
-42.6999
-40.0176
-37.538
-35.245
-33.1233
-31.1588
-29.3383
-27.6497
-26.0817
-24.6241
-23.2677
-22.0039
-20.825
-19.724
-18.6947
-17.7313
-16.8269
-15.9769
-15.1997
-93.9699
-85.722
-79.4627
-74.1151
-69.0974
-64.439
-60.1338
-56.1494
-52.4613
-49.0499
-45.8958
-42.9807
-40.2867
-37.7966
-35.4942
-33.364
-31.3919
-29.5644
-27.8693
-26.2954
-24.8325
-23.471
-22.2025
-21.0192
-19.9139
-18.8806
-17.9133
-17.0048
-16.1508
-15.372
-94.4442
-86.1849
-79.9079
-74.5393
-69.4992
-64.8185
-60.492
-56.4877
-52.7816
-49.3538
-46.1851
-43.257
-40.5514
-38.051
-35.7393
-33.6009
-31.6212
-29.7869
-28.0856
-26.506
-25.0377
-23.6714
-22.3983
-21.2106
-20.1013
-19.0641
-18.093
-17.1806
-16.3227
-15.5425
-94.913
-86.6423
-80.3476
-74.9579
-69.8954
-65.1924
-60.8447
-56.8206
-53.0965
-49.6525
-46.4694
-43.5285
-40.8115
-38.3009
-35.9802
-33.8336
-31.8466
-30.0056
-28.2983
-26.7131
-25.2397
-23.8686
-22.591
-21.3992
-20.286
-19.245
-18.2703
-17.3542
-16.4926
-15.7112
-95.3761
-87.0939
-80.7814
-75.3706
-70.2856
-65.5604
-61.1914
-57.1477
-53.4058
-49.9458
-46.7485
-43.7949
-41.0667
-38.5462
-36.2165
-34.062
-32.0678
-30.2204
-28.5071
-26.9165
-25.4382
-24.0624
-22.7806
-21.5848
-20.4678
-19.4233
-18.4452
-17.5254
-16.6603
-15.878
-95.8331
-87.5395
-81.2091
-75.777
-70.6696
-65.9221
-61.532
-57.4689
-53.7092
-50.2334
-47.0221
-44.056
-41.3168
-38.7865
-36.4481
-34.2858
-32.2846
-30.4309
-28.7118
-27.116
-25.6328
-24.2527
-22.9668
-21.7672
-20.6466
-19.5987
-18.6173
-17.6942
-16.8257
-16.0428
-96.2839
-87.9787
-81.6304
-76.177
-71.0471
-66.2774
-61.8663
-57.7837
-54.0066
-50.5151
-47.2899
-44.3116
-41.5615
-39.0216
-36.6747
-34.5047
-32.4967
-30.6368
-28.9122
-27.3113
-25.8234
-24.439
-23.1492
-21.946
-20.8221
-19.7711
-18.7866
-17.8603
-16.9887
-16.2054
-96.7283
-88.4114
-82.045
-76.5702
-71.4178
-66.6259
-62.1939
-58.0921
-54.2976
-50.7906
-47.5517
-44.5613
-41.8005
-39.2511
-36.8959
-34.7185
-32.7038
-30.8379
-29.1078
-27.502
-26.0097
-24.6212
-23.3276
-22.121
-20.9939
-19.94
-18.9528
-18.0235
-17.1491
-16.3659
-97.1661
-88.8375
-82.4528
-76.9565
-71.7815
-66.9675
-62.5146
-58.3936
-54.5819
-51.0597
-47.8072
-44.8048
-42.0336
-39.475
-37.1115
-34.9268
-32.9056
-31.0337
-29.2984
-27.6878
-26.1911
-24.7987
-23.5017
-22.2918
-21.1619
-20.1053
-19.1156
-18.1837
-17.3067
-16.5238
-97.5974
-89.2567
-82.8537
-77.3356
-72.138
-67.3019
-62.8281
-58.6882
-54.8594
-51.322
-48.0561
-45.0421
-42.2605
-39.6927
-37.3212
-35.1293
-33.1016
-31.224
-29.4835
-27.8683
-26.3675
-24.9713
-23.6709
-22.4581
-21.3254
-20.2665
-19.2746
-18.3403
-17.4611
-16.6791
-98.0221
-89.6691
-83.2474
-77.7075
-72.4871
-67.6288
-63.1344
-58.9755
-55.1298
-51.5774
-48.2984
-45.2727
-42.4809
-39.9041
-37.5246
-35.3257
-33.2917
-31.4085
-29.6629
-28.0431
-26.5382
-25.1384
-23.8348
-22.6192
-21.4841
-20.423
-19.4292
-18.493
-17.612
-16.8313
-98.4406
-90.0745
-83.6338
-78.0718
-72.8286
-67.9481
-63.433
-59.2554
-55.3929
-51.8257
-48.5336
-45.4965
-42.6946
-40.109
-37.7216
-35.5156
-33.4754
-31.5866
-29.836
-28.2117
-26.7028
-25.2996
-23.9929
-22.7746
-21.6372
-20.5743
-19.579
-18.6412
-17.7588
-16.9797
-98.8531
-90.4732
-84.0129
-78.4285
-73.1622
-68.2595
-63.7238
-59.5275
-55.6484
-52.0665
-48.7616
-45.7132
-42.9013
-40.307
-37.9118
-35.6989
-33.6525
-31.758
-30.0024
-28.3737
-26.8608
-25.4541
-24.1444
-22.9236
-21.7842
-20.7197
-19.7232
-18.7843
-17.9009
-17.124
-99.2604
-90.865
-84.3845
-78.7772
-73.4876
-68.5627
-64.0065
-59.7917
-55.8962
-52.2998
-48.9822
-45.9226
-43.101
-40.4979
-38.095
-35.8752
-33.8225
-31.9225
-30.1618
-28.5285
-27.0116
-25.6013
-24.2885
-23.0652
-21.9239
-20.8581
-19.8607
-18.9212
-18.0376
-17.2641
-99.6625
-91.2496
-84.7482
-79.1178
-73.8048
-68.8576
-64.281
-60.0479
-56.1361
-52.5255
-49.1953
-46.1247
-43.2934
-40.6817
-38.2711
-36.0443
-33.9853
-32.0796
-30.3137
-28.6756
-27.1545
-25.7405
-24.4245
-23.1986
-22.0552
-20.988
-19.99
-19.0502
-18.1672
-17.3984
-100.06
-91.6268
-85.1037
-79.45
-74.1133
-69.1439
-64.547
-60.2957
-56.3679
-52.7432
-49.4007
-46.3194
-43.4785
-40.8582
-38.4399
-36.2062
-34.1408
-32.2291
-30.4579
-28.8148
-27.2892
-25.871
-24.5515
-23.3225
-22.1768
-21.108
-20.1091
-19.1691
-18.2872
-17.5223
-100.456
-91.9979
-85.4509
-79.7732
-74.4126
-69.4208
-64.8038
-60.5348
-56.5913
-52.9529
-49.5984
-46.5064
-43.6561
-41.0274
-38.6015
-36.3607
-34.2888
-32.3711
-30.5941
-28.9457
-27.4151
-25.9924
-24.6688
-23.4363
-22.2878
-21.2172
-20.2175
-19.2776
-18.3963
-17.6331
-100.862
-92.3663
-85.7893
-80.086
-74.7013
-69.6875
-65.0508
-60.7645
-56.8058
-53.1541
-49.7879
-46.6857
-43.8262
-41.1892
-38.7557
-36.5079
-34.4294
-32.5053
-30.7223
-29.0681
-27.5318
-26.1038
-24.7752
-23.5383
-22.3863
-21.3136
-20.3136
-19.3748
-18.4961
-17.7442
-101.282
-92.7313
-86.1162
-80.3864
-74.9789
-69.9441
-65.2885
-60.9854
-57.0121
-53.3475
-49.97
-46.8577
-43.9892
-41.3441
-38.9031
-36.6482
-34.563
-32.6324
-30.8429
-29.1823
-27.6396
-26.2049
-24.8696
-23.626
-22.4677
-21.3897
-20.3853
-19.4445
-18.5754
-17.8628
-101.666
-93.074
-86.4278
-80.6751
-75.2472
-70.193
-65.5194
-61.2001
-57.2123
-53.5351
-50.1465
-47.0243
-44.1469
-41.4937
-39.0451
-36.7832
-34.6911
-32.7539
-30.9577
-29.2902
-27.7402
-26.2977
-24.9538
-23.7003
-22.5307
-21.4385
-20.4159
-19.4565
-18.5866
-17.8897
-106.582
-106.568
-106.523
-106.478
-106.429
-106.372
-106.304
-106.225
-106.135
-106.033
-105.92
-105.795
-105.659
-105.512
-105.354
-105.185
-105.005
-104.814
-104.614
-104.403
-104.183
-103.954
-103.716
-103.47
-103.216
-102.955
-102.69
-102.423
-102.16
-101.909
-97.7522
-97.7632
-97.752
-97.7301
-97.6985
-97.655
-97.5991
-97.5309
-97.4509
-97.3592
-97.2558
-97.1409
-97.0145
-96.877
-96.7284
-96.569
-96.399
-96.2186
-96.0281
-95.8277
-95.6177
-95.3985
-95.1704
-94.9339
-94.6894
-94.4378
-94.1798
-93.9163
-93.6481
-93.3698
-90.7175
-90.7464
-90.7578
-90.7541
-90.7371
-90.7073
-90.6649
-90.6101
-90.5433
-90.4648
-90.3747
-90.2731
-90.1603
-90.0364
-89.9017
-89.7563
-89.6004
-89.4343
-89.2582
-89.0724
-88.877
-88.6724
-88.4589
-88.2366
-88.006
-87.7673
-87.5205
-87.2652
-87.0004
-86.7223
-84.5346
-84.5739
-84.5985
-84.608
-84.6036
-84.5863
-84.5567
-84.5151
-84.4615
-84.3965
-84.32
-84.2323
-84.1337
-84.0242
-83.9042
-83.7738
-83.6331
-83.4825
-83.3222
-83.1522
-82.9729
-82.7845
-82.5871
-82.3809
-82.1661
-81.9425
-81.7101
-81.4684
-81.2164
-80.9527
-78.6985
-78.7442
-78.7773
-78.7965
-78.8023
-78.7955
-78.7768
-78.7463
-78.7043
-78.651
-78.5868
-78.5117
-78.426
-78.3298
-78.2235
-78.1071
-77.9809
-77.845
-77.6998
-77.5452
-77.3816
-77.209
-77.0276
-76.8375
-76.6387
-76.4312
-76.2147
-75.9888
-75.7531
-75.5066
-73.2862
-73.3359
-73.3744
-73.4002
-73.4132
-73.4141
-73.4035
-73.3816
-73.3487
-73.305
-73.2507
-73.186
-73.1111
-73.0263
-72.9317
-72.8275
-72.7139
-72.5911
-72.4592
-72.3185
-72.169
-72.011
-71.8444
-71.6693
-71.4858
-71.2937
-71.0929
-70.883
-70.6637
-70.4342
-68.3142
-68.3657
-68.407
-68.4365
-68.4539
-68.4599
-68.4548
-68.4391
-68.4128
-68.3762
-68.3295
-68.2729
-68.2067
-68.1309
-68.0458
-67.9516
-67.8485
-67.7367
-67.6162
-67.4873
-67.3501
-67.2046
-67.0511
-66.8895
-66.7197
-66.5418
-66.3555
-66.1606
-65.9567
-65.7435
-63.7549
-63.8064
-63.8484
-63.8793
-63.899
-63.9078
-63.9062
-63.8944
-63.8725
-63.8409
-63.7997
-63.7491
-63.6893
-63.6204
-63.5428
-63.4565
-63.3618
-63.2588
-63.1477
-63.0285
-62.9016
-62.7669
-62.6245
-62.4745
-62.3168
-62.1514
-61.9781
-61.7967
-61.6069
-61.4085
-59.5789
-59.629
-59.6702
-59.701
-59.7212
-59.7312
-59.7313
-59.7216
-59.7025
-59.6741
-59.6366
-59.5901
-59.535
-59.4712
-59.3992
-59.319
-59.2308
-59.1347
-59.0311
-58.9199
-58.8014
-58.6756
-58.5427
-58.4025
-58.2552
-58.1007
-57.9388
-57.7693
-57.5921
-57.4069
-55.756
-55.8039
-55.8433
-55.8729
-55.8924
-55.9023
-55.9028
-55.8941
-55.8763
-55.8498
-55.8145
-55.7708
-55.7188
-55.6588
-55.5908
-55.5151
-55.4319
-55.3413
-55.2436
-55.1388
-55.0271
-54.9087
-54.7835
-54.6517
-54.5132
-54.3681
-54.2161
-54.0571
-53.8909
-53.7173
-52.2554
-52.3004
-52.3374
-52.365
-52.3831
-52.3921
-52.3921
-52.3834
-52.3661
-52.3403
-52.3064
-52.2643
-52.2144
-52.1569
-52.0918
-52.0194
-51.94
-51.8536
-51.7605
-51.6608
-51.5546
-51.4422
-51.3236
-51.1988
-51.0679
-50.9308
-50.7874
-50.6376
-50.4811
-50.3178
-49.0466
-49.0886
-49.1227
-49.148
-49.1642
-49.1717
-49.1707
-49.1614
-49.1438
-49.1182
-49.0848
-49.0437
-48.9951
-48.9392
-48.8762
-48.8062
-48.7296
-48.6464
-48.5569
-48.4613
-48.3597
-48.2522
-48.139
-48.0201
-47.8957
-47.7656
-47.6297
-47.488
-47.3401
-47.1859
-46.1014
-46.1401
-46.1713
-46.194
-46.2082
-46.2139
-46.2116
-46.2012
-46.183
-46.1572
-46.1238
-46.083
-46.0352
-45.9803
-45.9187
-45.8506
-45.776
-45.6954
-45.6087
-45.5163
-45.4184
-45.315
-45.2064
-45.0926
-44.9738
-44.8498
-44.7206
-44.586
-44.4459
-44.2999
-43.3936
-43.4292
-43.4574
-43.4776
-43.4895
-43.4934
-43.4895
-43.478
-43.4589
-43.4325
-43.3988
-43.3581
-43.3106
-43.2564
-43.1958
-43.1289
-43.056
-42.9772
-42.8929
-42.8031
-42.7082
-42.6083
-42.5036
-42.3942
-42.2802
-42.1617
-42.0384
-41.9104
-41.7772
-41.6387
-40.8997
-40.9322
-40.9577
-40.9753
-40.985
-40.9871
-40.9816
-40.9688
-40.9487
-40.9216
-40.8875
-40.8467
-40.7992
-40.7454
-40.6855
-40.6195
-40.5478
-40.4706
-40.3881
-40.3005
-40.2081
-40.1112
-40.0098
-39.9043
-39.7946
-39.6809
-39.5631
-39.441
-39.3144
-39.1828
-38.5986
-38.6284
-38.6511
-38.6664
-38.674
-38.6742
-38.6672
-38.6531
-38.632
-38.6041
-38.5695
-38.5284
-38.4809
-38.4273
-38.3678
-38.3025
-38.2318
-38.1558
-38.0748
-37.989
-37.8988
-37.8044
-37.706
-37.6038
-37.498
-37.3887
-37.2759
-37.1594
-37.0388
-36.9138
-36.4717
-36.4988
-36.5191
-36.5321
-36.5377
-36.5363
-36.5278
-36.5124
-36.4903
-36.4616
-36.4265
-36.385
-36.3374
-36.2839
-36.2247
-36.16
-36.09
-36.015
-35.9353
-35.851
-35.7627
-35.6704
-35.5745
-35.4754
-35.3731
-35.2678
-35.1597
-35.0484
-34.9336
-34.815
-34.5024
-34.527
-34.545
-34.5559
-34.5598
-34.5567
-34.5468
-34.5303
-34.5073
-34.4778
-34.4421
-34.4003
-34.3526
-34.2991
-34.2401
-34.1758
-34.1064
-34.0323
-33.9535
-33.8706
-33.7838
-33.6934
-33.5998
-33.5032
-33.4041
-33.3026
-33.1988
-33.0926
-32.9835
-32.8711
-32.676
-32.6983
-32.7142
-32.7232
-32.7254
-32.7208
-32.7097
-32.6921
-32.6682
-32.638
-32.6018
-32.5597
-32.5118
-32.4583
-32.3995
-32.3355
-32.2666
-32.1931
-32.1153
-32.0334
-31.9479
-31.8591
-31.7674
-31.6733
-31.577
-31.4789
-31.3792
-31.2778
-31.1744
-31.0682
-30.9795
-30.9997
-31.0137
-31.021
-31.0216
-31.0157
-31.0034
-30.9848
-30.9601
-30.9293
-30.8926
-30.8501
-30.8021
-30.7486
-30.6899
-30.6262
-30.5578
-30.4848
-30.4077
-30.3267
-30.2423
-30.1548
-30.0648
-29.9726
-29.8789
-29.784
-29.6881
-29.5915
-29.4936
-29.3937
-29.4013
-29.4197
-29.4319
-29.4376
-29.4368
-29.4296
-29.4163
-29.3968
-29.3714
-29.34
-29.3029
-29.2601
-29.2119
-29.1584
-29.0999
-29.0364
-28.9683
-28.8958
-28.8193
-28.7391
-28.6555
-28.5691
-28.4804
-28.39
-28.2984
-28.2063
-28.114
-28.0219
-27.9297
-27.8365
-27.9313
-27.9479
-27.9585
-27.9627
-27.9607
-27.9524
-27.9382
-27.9179
-27.8918
-27.8599
-27.8224
-27.7794
-27.7311
-27.6776
-27.6191
-27.5558
-27.488
-27.4159
-27.3398
-27.2602
-27.1773
-27.0918
-27.0041
-26.915
-26.8252
-26.7355
-26.6465
-26.5588
-26.4724
-26.386
-26.5604
-26.5754
-26.5844
-26.5874
-26.5841
-26.5749
-26.5597
-26.5388
-26.5121
-26.4797
-26.4419
-26.3987
-26.3502
-26.2967
-26.2383
-26.1752
-26.1077
-26.0359
-25.9602
-25.8809
-25.7986
-25.7136
-25.6266
-25.5385
-25.45
-25.3622
-25.2762
-25.1926
-25.1121
-25.0332
-25.2802
-25.2938
-25.3015
-25.3032
-25.2989
-25.2888
-25.2729
-25.2512
-25.224
-25.1913
-25.1532
-25.1098
-25.0613
-25.0078
-24.9494
-24.8865
-24.8191
-24.7476
-24.6721
-24.5932
-24.5111
-24.4264
-24.3399
-24.2522
-24.1646
-24.0781
-23.9944
-23.9147
-23.8401
-23.7692
-24.0837
-24.0958
-24.1023
-24.1029
-24.0977
-24.0867
-24.0701
-24.0479
-24.0203
-23.9872
-23.9488
-23.9053
-23.8567
-23.8032
-23.745
-23.6821
-23.6149
-23.5436
-23.4683
-23.3895
-23.3075
-23.223
-23.1364
-23.0488
-22.9614
-22.8756
-22.7935
-22.7169
-22.6484
-22.5864
-22.9641
-22.975
-22.9803
-22.9799
-22.9738
-22.9621
-22.9448
-22.9221
-22.894
-22.8606
-22.822
-22.7783
-22.7297
-22.6762
-22.618
-22.5553
-22.4882
-22.4169
-22.3418
-22.263
-22.181
-22.0962
-22.0094
-21.9214
-21.8335
-21.7474
-21.6658
-21.5913
-21.5286
-21.476
-21.9156
-21.9254
-21.9296
-21.9282
-21.9213
-21.9088
-21.8909
-21.8677
-21.8391
-21.8054
-21.7666
-21.7227
-21.6739
-21.6204
-21.5622
-21.4995
-21.4324
-21.3611
-21.2858
-21.2069
-21.1246
-21.0393
-20.9517
-20.8626
-20.7734
-20.6859
-20.6033
-20.5293
-20.4712
-20.4276
-20.9328
-20.9416
-20.945
-20.9429
-20.9353
-20.9223
-20.904
-20.8804
-20.8516
-20.8176
-20.7786
-20.7346
-20.6858
-20.6323
-20.574
-20.5113
-20.4442
-20.3729
-20.2975
-20.2183
-20.1355
-20.0495
-19.9609
-19.8702
-19.7788
-19.6886
-19.6031
-19.5275
-19.4731
-19.4378
-20.0103
-20.0187
-20.0218
-20.0196
-20.012
-19.999
-19.9808
-19.9575
-19.929
-19.8955
-19.857
-19.8136
-19.7655
-19.7126
-19.6552
-19.5932
-19.5269
-19.4563
-19.3817
-19.3031
-19.2208
-19.1351
-19.0462
-18.9549
-18.8618
-18.7689
-18.6791
-18.5995
-18.5475
-18.5304
-19.1448
-19.1512
-19.1526
-19.1488
-19.1399
-19.126
-19.107
-19.0832
-19.0544
-19.0208
-18.9825
-18.9395
-18.8919
-18.8399
-18.7834
-18.7225
-18.6574
-18.5882
-18.515
-18.4378
-18.3569
-18.2723
-18.1844
-18.0933
-17.9996
-17.9043
-17.8087
-17.7195
-17.6513
-17.6606
-99.3247
-99.7229
-100.082
-100.453
-100.831
-101.205
-101.57
-101.927
-102.273
-102.608
-102.932
-103.243
-103.541
-103.826
-104.097
-104.353
-104.596
-104.824
-105.038
-105.237
-105.422
-105.592
-105.748
-105.89
-106.018
-106.133
-106.237
-106.33
-106.417
-106.501
-90.3871
-90.8119
-91.2119
-91.6063
-91.9959
-92.3766
-92.7464
-93.1052
-93.4529
-93.789
-94.1131
-94.4247
-94.7234
-95.0089
-95.2809
-95.5392
-95.7836
-96.014
-96.2303
-96.4324
-96.6203
-96.7941
-96.9538
-97.0998
-97.2321
-97.3513
-97.458
-97.5525
-97.6354
-97.7034
-83.2977
-83.7291
-84.1438
-84.5453
-84.9359
-85.3157
-85.6844
-86.0419
-86.3881
-86.7228
-87.0455
-87.3561
-87.6541
-87.9394
-88.2116
-88.4706
-88.7162
-88.9483
-89.1668
-89.3716
-89.5627
-89.7402
-89.9039
-90.0542
-90.1909
-90.3144
-90.4246
-90.5213
-90.6038
-90.6698
-77.1513
-77.5744
-77.9852
-78.3825
-78.7676
-79.1418
-79.5052
-79.8577
-80.199
-80.5291
-80.8475
-81.1542
-81.4488
-81.7311
-82.001
-82.2582
-82.5025
-82.734
-82.9524
-83.1577
-83.3499
-83.5289
-83.6947
-83.8473
-83.9868
-84.1132
-84.2261
-84.3255
-84.4107
-84.4808
-71.4389
-71.8477
-72.2472
-72.6349
-73.0109
-73.376
-73.7307
-74.0747
-74.4079
-74.7302
-75.0414
-75.3411
-75.6294
-75.9059
-76.1705
-76.423
-76.6634
-76.8914
-77.107
-77.31
-77.5006
-77.6785
-77.8439
-77.9965
-78.1365
-78.2636
-78.3779
-78.4789
-78.5665
-78.6401
-66.2207
-66.6134
-66.9987
-67.3735
-67.7374
-68.0907
-68.434
-68.767
-69.0897
-69.4018
-69.7032
-69.9938
-70.2733
-70.5416
-70.7986
-71.0442
-71.2781
-71.5002
-71.7106
-71.9091
-72.0957
-72.2702
-72.4327
-72.5831
-72.7213
-72.8472
-72.9608
-73.0619
-73.1501
-73.2253
-61.4921
-61.8682
-62.2378
-62.598
-62.9479
-63.2879
-63.6181
-63.9386
-64.2491
-64.5496
-64.8398
-65.1196
-65.3889
-65.6475
-65.8952
-66.1321
-66.3578
-66.5725
-66.7759
-66.968
-67.1487
-67.318
-67.4758
-67.622
-67.7567
-67.8797
-67.9909
-68.0902
-68.1775
-68.2525
-57.2059
-57.5654
-57.919
-58.2638
-58.5991
-58.9249
-59.2415
-59.5488
-59.8465
-60.1345
-60.4127
-60.681
-60.9391
-61.1871
-61.4247
-61.6518
-61.8685
-62.0745
-62.2697
-62.4542
-62.6279
-62.7907
-62.9425
-63.0834
-63.2132
-63.3319
-63.4394
-63.5356
-63.6205
-63.6939
-53.3164
-53.6597
-53.9975
-54.3271
-54.6478
-54.9595
-55.2624
-55.5564
-55.8411
-56.1166
-56.3826
-56.6391
-56.8859
-57.1228
-57.3499
-57.567
-57.7739
-57.9708
-58.1573
-58.3336
-58.4996
-58.6551
-58.8002
-58.9349
-59.059
-59.1725
-59.2754
-59.3676
-59.4491
-59.5198
-49.781
-50.1091
-50.4318
-50.7468
-51.0534
-51.3514
-51.641
-51.9219
-52.1941
-52.4573
-52.7113
-52.9562
-53.1917
-53.4177
-53.6343
-53.8412
-54.0385
-54.226
-54.4038
-54.5716
-54.7296
-54.8776
-55.0156
-55.1437
-55.2617
-55.3696
-55.4673
-55.555
-55.6324
-55.6997
-46.5604
-46.8743
-47.1828
-47.484
-47.7772
-48.0622
-48.3391
-48.6077
-48.8678
-49.1191
-49.3617
-49.5954
-49.82
-50.0355
-50.2419
-50.439
-50.6268
-50.8052
-50.9742
-51.1338
-51.2838
-51.4243
-51.5553
-51.6766
-51.7884
-51.8905
-51.9829
-52.0657
-52.1388
-52.2023
-43.6189
-43.9196
-44.215
-44.5034
-44.7841
-45.057
-45.322
-45.5789
-45.8276
-46.0678
-46.2995
-46.5226
-46.7369
-46.9424
-47.1391
-47.3268
-47.5055
-47.6752
-47.8358
-47.9873
-48.1297
-48.2629
-48.3869
-48.5018
-48.6074
-48.7038
-48.7909
-48.8688
-48.9375
-48.997
-40.9253
-41.2138
-41.4971
-41.7736
-42.0428
-42.3044
-42.5583
-42.8044
-43.0424
-43.2723
-43.4938
-43.7069
-43.9116
-44.1077
-44.2952
-44.474
-44.6442
-44.8057
-44.9583
-45.1022
-45.2373
-45.3636
-45.4811
-45.5896
-45.6894
-45.7802
-45.8622
-45.9354
-45.9997
-46.0552
-38.4521
-38.7294
-39.0017
-39.2674
-39.5259
-39.7771
-40.0208
-40.2568
-40.485
-40.7052
-40.9172
-41.1211
-41.3167
-41.5041
-41.683
-41.8536
-42.0158
-42.1695
-42.3148
-42.4515
-42.5798
-42.6995
-42.8108
-42.9135
-43.0076
-43.0933
-43.1704
-43.239
-43.2991
-43.3508
-36.1757
-36.4429
-36.705
-36.9608
-37.2095
-37.4512
-37.6855
-37.9122
-38.1313
-38.3425
-38.5458
-38.7411
-38.9283
-39.1075
-39.2785
-39.4414
-39.5961
-39.7426
-39.881
-40.0111
-40.133
-40.2467
-40.3521
-40.4493
-40.5383
-40.6191
-40.6916
-40.756
-40.8121
-40.8602
-34.0757
-34.3336
-34.5865
-34.8332
-35.0731
-35.3059
-35.5316
-35.7498
-35.9604
-36.1633
-36.3584
-36.5458
-36.7252
-36.8968
-37.0605
-37.2162
-37.364
-37.5039
-37.6358
-37.7598
-37.8758
-37.9838
-38.0839
-38.176
-38.2602
-38.3364
-38.4047
-38.465
-38.5175
-38.5622
-32.1343
-32.3838
-32.6283
-32.8667
-33.0985
-33.3233
-33.541
-33.7513
-33.9541
-34.1493
-34.3369
-34.5168
-34.6891
-34.8536
-35.0104
-35.1595
-35.301
-35.4347
-35.5606
-35.6789
-35.7895
-35.8923
-35.9874
-36.0748
-36.1545
-36.2265
-36.2908
-36.3476
-36.3966
-36.4381
-30.3363
-30.578
-30.8149
-31.0459
-31.2702
-31.4877
-31.698
-31.901
-32.0965
-32.2846
-32.4652
-32.6382
-32.8037
-32.9617
-33.1122
-33.2552
-33.3906
-33.5186
-33.6391
-33.7521
-33.8576
-33.9556
-34.0461
-34.1292
-34.2047
-34.2729
-34.3336
-34.3869
-34.4328
-34.4714
-28.6681
-28.9028
-29.1328
-29.357
-29.5746
-29.7853
-29.9888
-30.185
-30.3739
-30.5553
-30.7293
-30.8959
-31.0551
-31.207
-31.3515
-31.4888
-31.6187
-31.7414
-31.8567
-31.9648
-32.0656
-32.1592
-32.2455
-32.3245
-32.3963
-32.4609
-32.5183
-32.5685
-32.6115
-32.6474
-27.1181
-27.3464
-27.5702
-27.7884
-27.9998
-28.2042
-28.4015
-28.5913
-28.7738
-28.949
-29.1168
-29.2774
-29.4307
-29.5769
-29.7159
-29.8478
-29.9726
-30.0903
-30.2009
-30.3045
-30.401
-30.4904
-30.5728
-30.6481
-30.7164
-30.7777
-30.832
-30.8793
-30.9196
-30.9531
-25.6758
-25.8982
-26.1167
-26.3294
-26.5353
-26.7339
-26.9252
-27.1091
-27.2857
-27.4549
-27.6169
-27.7718
-27.9196
-28.0604
-28.1942
-28.3211
-28.4411
-28.5542
-28.6604
-28.7597
-28.8522
-28.9378
-29.0165
-29.0884
-29.1535
-29.2117
-29.2632
-29.3079
-29.3458
-29.377
-24.3319
-24.5491
-24.763
-24.9709
-25.1717
-25.365
-25.5507
-25.729
-25.8998
-26.0634
-26.2199
-26.3694
-26.512
-26.6477
-26.7767
-26.8989
-27.0144
-27.1231
-27.2252
-27.3206
-27.4093
-27.4914
-27.5667
-27.6355
-27.6976
-27.753
-27.8018
-27.8441
-27.8797
-27.9089
-23.0779
-23.2906
-23.5008
-23.7047
-23.9008
-24.089
-24.2694
-24.4422
-24.6077
-24.7659
-24.9171
-25.0615
-25.1991
-25.3301
-25.4545
-25.5722
-25.6835
-25.7882
-25.8865
-25.9782
-26.0634
-26.1422
-26.2144
-26.2802
-26.3395
-26.3924
-26.4388
-26.4788
-26.5124
-26.5396
-21.906
-22.1149
-22.3227
-22.5234
-22.7151
-22.8984
-23.0737
-23.2413
-23.4014
-23.5545
-23.7007
-23.8402
-23.9732
-24.0996
-24.2197
-24.3333
-24.4406
-24.5416
-24.6362
-24.7245
-24.8065
-24.8822
-24.9516
-25.0146
-25.0714
-25.1218
-25.166
-25.2039
-25.2356
-25.2611
-20.8093
-21.0157
-21.2225
-21.4204
-21.6079
-21.7865
-21.9568
-22.1193
-22.2743
-22.4224
-22.5638
-22.6987
-22.8272
-22.9494
-23.0654
-23.1752
-23.2787
-23.3762
-23.4674
-23.5525
-23.6315
-23.7043
-23.771
-23.8315
-23.8858
-23.9341
-23.9762
-24.0122
-24.0421
-24.066
-19.7811
-19.9878
-20.1955
-20.3908
-20.5742
-20.7481
-20.9134
-21.0707
-21.2208
-21.364
-21.5007
-21.6312
-21.7554
-21.8736
-21.9857
-22.0918
-22.1918
-22.2859
-22.374
-22.4561
-22.5322
-22.6023
-22.6664
-22.7245
-22.7766
-22.8228
-22.8629
-22.8971
-22.9254
-22.9478
-18.8095
-19.024
-19.2363
-19.429
-19.6078
-19.7769
-19.9371
-20.0894
-20.2345
-20.3731
-20.5054
-20.6316
-20.7519
-20.8662
-20.9746
-21.0772
-21.174
-21.2649
-21.35
-21.4293
-21.5027
-21.5702
-21.632
-21.6878
-21.7379
-21.7821
-21.8204
-21.8529
-21.8796
-21.9006
-17.8728
-18.1052
-18.3296
-18.5208
-18.695
-18.8594
-19.015
-19.1626
-19.3033
-19.4377
-19.5662
-19.6888
-19.8056
-19.9167
-20.0221
-20.1217
-20.2157
-20.3041
-20.3867
-20.4636
-20.5348
-20.6004
-20.6602
-20.7142
-20.7626
-20.8052
-20.8422
-20.8734
-20.8989
-20.9187
-16.9753
-17.2237
-17.4658
-17.6599
-17.8305
-17.9902
-18.1414
-18.2848
-18.4215
-18.5523
-18.6774
-18.7969
-18.9108
-19.0191
-19.1219
-19.2192
-19.3109
-19.3971
-19.4777
-19.5528
-19.6223
-19.6863
-19.7446
-19.7974
-19.8446
-19.8862
-19.9222
-19.9526
-19.9774
-19.9966
-16.2713
-16.5198
-16.7478
-16.9422
-17.1061
-17.2552
-17.3973
-17.5326
-17.6616
-17.785
-17.9031
-18.0159
-18.1233
-18.2253
-18.3221
-18.4135
-18.4995
-18.5803
-18.6557
-18.7258
-18.7906
-18.8501
-18.9042
-18.9529
-18.9964
-19.0344
-19.0672
-19.0946
-19.1166
-19.1334
-10.0753
-10.7386
-11.45
-12.2097
-13.0217
-13.8902
-14.8196
-15.8146
-16.8803
-18.0228
-19.2484
-20.5647
-21.9799
-23.5036
-25.1467
-26.9218
-28.8436
-30.9292
-33.199
-35.6771
-38.3921
-41.3782
-44.6758
-48.3318
-52.4025
-56.9539
-62.0208
-67.5852
-74.1981
-82.8039
-10.2866
-10.9554
-11.6702
-12.4338
-13.2503
-14.1237
-15.0583
-16.0589
-17.1307
-18.2797
-19.5124
-20.8363
-22.2598
-23.7925
-25.4454
-27.2312
-29.1646
-31.2631
-33.5469
-36.0404
-38.7724
-41.7772
-45.0951
-48.7733
-52.8675
-57.4435
-62.535
-68.1206
-74.7445
-83.3445
-10.499
-11.1734
-11.8915
-12.6592
-13.4803
-14.3587
-15.2985
-16.3048
-17.3828
-18.5384
-19.7783
-21.11
-22.5419
-24.0838
-25.7466
-27.5432
-29.4885
-31.5999
-33.898
-36.4071
-39.1563
-42.1799
-45.5184
-49.2186
-53.3362
-57.9361
-63.051
-68.6557
-75.2861
-83.8724
-10.7123
-11.3922
-12.1136
-12.8854
-13.7113
-14.5946
-15.5399
-16.5519
-17.6361
-18.7984
-20.0456
-21.3851
-22.8255
-24.3766
-26.0495
-27.857
-29.8142
-31.9387
-34.2511
-36.776
-39.5424
-42.5849
-45.9439
-49.6661
-53.8068
-58.4302
-63.5677
-69.1919
-75.8334
-84.4162
-10.9262
-11.6116
-12.3363
-13.1123
-13.943
-14.8314
-15.7821
-16.8
-17.8904
-19.0595
-20.314
-21.6614
-23.1104
-24.6708
-26.3537
-28.1723
-30.1415
-32.2791
-34.6059
-37.1466
-39.9303
-42.9916
-46.371
-50.1151
-54.2789
-58.9256
-64.0857
-69.7304
-76.3867
-84.9728
-11.1406
-11.8313
-12.5594
-13.3398
-14.1753
-15.0689
-16.0251
-17.0488
-18.1456
-19.3216
-20.5834
-21.9388
-23.3965
-24.9662
-26.6593
-28.4889
-30.4702
-32.621
-34.9622
-37.5187
-40.3197
-43.3998
-46.7997
-50.5657
-54.7525
-59.4227
-64.6056
-70.2709
-76.9431
-85.5357
-11.3553
-12.0513
-12.7828
-13.5676
-14.408
-15.3069
-16.2686
-17.2983
-18.4015
-19.5844
-20.8537
-22.2171
-23.6834
-25.2626
-26.9659
-28.8067
-30.8001
-32.9642
-35.3199
-37.8922
-40.7105
-43.8096
-47.2299
-51.0179
-55.2277
-59.9214
-65.1272
-70.8132
-77.5016
-86.1021
-11.5701
-12.2713
-13.0063
-13.7955
-14.641
-15.5451
-16.5125
-17.5483
-18.6579
-19.8477
-21.1245
-22.4961
-23.9712
-25.5598
-27.2734
-29.1254
-31.131
-33.3083
-35.6786
-38.2669
-41.1026
-44.2206
-47.6615
-51.4714
-55.7043
-60.4215
-65.6502
-71.3569
-78.0617
-86.6713
-11.7849
-12.4912
-13.2297
-14.0234
-14.874
-15.7836
-16.7566
-17.7984
-18.9147
-20.1115
-21.3958
-22.7755
-24.2594
-25.8576
-27.5815
-29.4447
-31.4626
-33.6533
-36.0382
-38.6425
-41.4956
-44.6326
-48.094
-51.9259
-56.1819
-60.9227
-66.1743
-71.9018
-78.6232
-87.2424
-11.9995
-12.7108
-13.4528
-14.2512
-15.107
-16.0219
-17.0007
-18.0487
-19.1715
-20.3754
-21.6674
-23.0553
-24.548
-26.1557
-27.8901
-29.7646
-31.7947
-33.9989
-36.3985
-39.0187
-41.8894
-45.0454
-48.5273
-52.3812
-56.6602
-61.4246
-66.6991
-72.4473
-79.1855
-87.8149
-12.2139
-12.93
-13.6756
-14.4787
-15.3397
-16.2602
-17.2448
-18.2989
-19.4284
-20.6394
-21.939
-23.3351
-24.8367
-26.4541
-28.1989
-30.0847
-32.1272
-34.3448
-36.759
-39.3953
-42.2835
-45.4586
-48.9611
-52.8369
-57.139
-61.9269
-67.2242
-72.9932
-79.748
-88.3877
-12.4278
-13.1486
-13.8978
-14.7057
-15.5721
-16.4981
-17.4885
-18.549
-19.6851
-20.9032
-22.2105
-23.6149
-25.1254
-26.7524
-28.5077
-30.4048
-32.4597
-34.6908
-37.1198
-39.7721
-42.6778
-45.8719
-49.395
-53.2928
-57.6179
-62.4292
-67.7493
-73.5389
-80.3102
-88.9602
-12.6412
-13.3666
-14.1194
-14.9322
-15.804
-16.7356
-17.7319
-18.7986
-19.9415
-21.1668
-22.4818
-23.8945
-25.414
-27.0506
-28.8163
-30.7249
-32.7921
-35.0367
-37.4804
-40.1488
-43.072
-46.2852
-49.8288
-53.7485
-58.0966
-62.9312
-68.2739
-74.0839
-80.8717
-89.5319
-12.854
-13.5839
-14.3402
-15.1581
-16.0353
-16.9726
-17.9749
-19.0479
-20.1974
-21.43
-22.7527
-24.1737
-25.7021
-27.3484
-29.1246
-31.0445
-33.1241
-35.3822
-37.8406
-40.5251
-43.4658
-46.698
-50.2622
-54.2037
-58.5746
-63.4324
-68.7976
-74.6279
-81.4318
-90.1021
-13.0662
-13.8004
-14.5603
-15.3833
-16.266
-17.2089
-18.2172
-19.2966
-20.4529
-21.6926
-23.023
-24.4523
-25.9897
-27.6456
-29.4323
-31.3635
-33.4555
-35.727
-38.2002
-40.9007
-43.8589
-47.1101
-50.6947
-54.6581
-59.0517
-63.9326
-69.3201
-75.1703
-81.9902
-90.6704
-13.2778
-14.0161
-14.7796
-15.6077
-16.496
-17.4447
-18.459
-19.5446
-20.7077
-21.9546
-23.2927
-24.7302
-26.2765
-27.9421
-29.7392
-31.6818
-33.7861
-36.0711
-38.5589
-41.2754
-44.2511
-47.5212
-51.1262
-55.1113
-59.5275
-64.4312
-69.8408
-75.7108
-82.5463
-91.2362
-13.4887
-14.231
-14.9982
-15.8314
-16.7253
-17.6797
-18.7
-19.792
-20.9617
-22.2158
-23.5616
-25.0073
-26.5625
-28.2377
-30.0451
-31.999
-34.1156
-36.414
-38.9164
-41.6489
-44.642
-47.931
-51.5563
-55.5629
-60.0016
-64.928
-70.3594
-76.2489
-83.0997
-91.7991
-13.6992
-14.4453
-15.216
-16.0545
-16.954
-17.9141
-18.9403
-20.0385
-21.215
-22.4761
-23.8295
-25.2834
-26.8474
-28.5321
-30.3499
-32.315
-34.4438
-36.7555
-39.2725
-42.0209
-45.0313
-48.3391
-51.9846
-56.0126
-60.4736
-65.4225
-70.8754
-76.7841
-83.65
-92.3586
-13.9094
-14.659
-15.4332
-16.2769
-17.182
-18.1477
-19.1798
-20.2842
-21.4672
-22.7354
-24.0963
-25.5583
-27.131
-28.8252
-30.6532
-32.6294
-34.7704
-37.0954
-39.6269
-42.3911
-45.4187
-48.7452
-52.4107
-56.4601
-60.9432
-65.9143
-71.3886
-77.3162
-84.1968
-92.9144
-14.1195
-14.8724
-15.6499
-16.4988
-17.4093
-18.3806
-19.4184
-20.529
-21.7185
-22.9936
-24.3619
-25.8319
-27.4132
-29.1167
-30.9549
-32.9421
-35.0952
-37.4333
-39.9792
-42.7592
-45.8039
-49.1489
-52.8344
-56.9049