/*--------------------------------*- C++ -*----------------------------------*\
  =========                 |
  \\      /  F ield         | OpenFOAM: The Open Source CFD Toolbox
   \\    /   O peration     | Website:  https://openfoam.org
    \\  /    A nd           | Version:  6.0
     \\/     M anipulation  |
\*---------------------------------------------------------------------------*/
FoamFile
{
    version     2.0;
    format      ascii;
    class       surfaceScalarField;
    location    "9.25";
    object      phi;
}
// * * * * * * * * * * * * * * * * * * * * * * * * * * * * * * * * * * * * * //

dimensions      [0 3 -1 0 0 0 0];

internalField   nonuniform List<scalar> 
38030
(
2.90905e-05
-0.323839
0.32381
0.000229696
-0.310599
0.310398
0.000544627
-0.299631
0.299316
0.000929283
-0.290036
0.289651
0.00135452
-0.281329
0.280904
0.00179828
-0.273142
0.272698
0.00224486
-0.265263
0.264816
0.00268416
-0.257591
0.257152
0.00311037
-0.250088
0.249661
0.00352075
-0.242746
0.242335
0.00391465
-0.235575
0.235181
0.00429271
-0.228591
0.228213
0.00465631
-0.221808
0.221445
0.0050072
-0.215239
0.214888
0.00534718
-0.208889
0.208549
0.00567795
-0.202763
0.202432
0.00600105
-0.196859
0.196536
0.00631779
-0.191176
0.190859
0.0066293
-0.185708
0.185396
0.00693656
-0.180448
0.180141
0.00724048
-0.175389
0.175085
0.00754194
-0.170524
0.170223
0.00784196
-0.165843
0.165543
0.00814159
-0.161337
0.161038
0.00844203
-0.156994
0.156694
0.00874452
-0.152802
0.152499
0.00905013
-0.148743
0.148438
0.00935945
-0.144801
0.144492
0.0096721
-0.140956
0.140643
-0.137185
0.136871
0.00998652
4.92371e-05
-0.323889
0.000252282
-0.310802
0.000567211
-0.299946
0.000951716
-0.290421
0.00137582
-0.281753
0.00181769
-0.273584
0.00226187
-0.265707
0.00269835
-0.258028
0.00312146
-0.250511
0.00352856
-0.243153
0.00391912
-0.235966
0.00429386
-0.228966
0.00465427
-0.222169
0.00500212
-0.215586
0.00533924
-0.209226
0.00566737
-0.203091
0.00598802
-0.19718
0.00630251
-0.191491
0.00661193
-0.186017
0.00691722
-0.180753
0.00721925
-0.175691
0.00751891
-0.170824
0.00781715
-0.166141
0.00811505
-0.161635
0.00841381
-0.157293
0.00871476
-0.153103
0.00901911
-0.149048
0.00932764
-0.14511
0.00964021
-0.141268
-0.137501
0.00995552
6.81416e-05
-0.323957
0.000273908
-0.311008
0.000587685
-0.30026
0.000971552
-0.290804
0.0013947
-0.282177
0.00183483
-0.274024
0.00227658
-0.266149
0.00271014
-0.258461
0.00312995
-0.250931
0.00353356
-0.243556
0.00392054
-0.236353
0.00429175
-0.229337
0.00464873
-0.222526
0.00499331
-0.215931
0.00532738
-0.20956
0.00565266
-0.203416
0.00597068
-0.197498
0.00628272
-0.191803
0.00658987
-0.186324
0.00689303
-0.181056
0.00719302
-0.175991
0.0074907
-0.171121
0.007787
-0.166438
0.00808298
-0.161931
0.00837994
-0.15759
0.00867915
-0.153402
0.00898203
-0.149351
0.00928954
-0.145417
0.00960178
-0.14158
-0.137817
0.00991777
7.47277e-05
-0.324032
0.000287087
-0.31122
0.000603501
-0.300576
0.000988088
-0.291189
0.00141076
-0.282599
0.00184935
-0.274462
0.00228868
-0.266588
0.00271918
-0.258892
0.00313554
-0.251347
0.00353546
-0.243956
0.00391866
-0.236736
0.00428613
-0.229704
0.00463948
-0.222879
0.00498061
-0.216272
0.00531143
-0.209891
0.00563367
-0.203738
0.00594887
-0.197813
0.00625831
-0.192112
0.00656302
-0.186629
0.00686389
-0.181357
0.0071617
-0.176289
0.00745725
-0.171417
0.00775146
-0.166732
0.0080454
-0.162225
0.00834033
-0.157885
0.00863769
-0.153699
0.00893892
-0.149652
0.00924521
-0.145724
0.00955695
-0.141892
-0.138133
0.00987345
8.01838e-05
-0.324112
0.000297666
-0.311438
0.000616744
-0.300895
0.00100215
-0.291574
0.00142436
-0.283021
0.00186136
-0.274899
0.00229818
-0.267025
0.0027255
-0.259319
0.00313822
-0.25176
0.00353425
-0.244352
0.00391347
-0.237115
0.00427699
-0.230068
0.0046265
-0.223229
0.00496396
-0.21661
0.00529132
-0.210218
0.00561034
-0.204057
0.00592254
-0.198126
0.00622919
-0.192419
0.00653131
-0.186931
0.00682974
-0.181656
0.00712522
-0.176585
0.00741852
-0.17171
0.0077105
-0.167024
0.00800223
-0.162517
0.00829497
-0.158178
0.00859031
-0.153995
0.00888974
-0.149951
0.00919466
-0.146028
0.00950572
-0.142203
-0.13845
0.00982256
8.34924e-05
-0.324195
0.000305231
-0.311659
0.000627178
-0.301217
0.00101369
-0.291961
0.00143548
-0.283443
0.00187084
-0.275335
0.00230503
-0.267459
0.00272899
-0.259743
0.00313789
-0.252169
0.00352982
-0.244744
0.00390485
-0.23749
0.00426419
-0.230427
0.00460966
-0.223574
0.00494325
-0.216943
0.00526695
-0.210542
0.00558255
-0.204373
0.00589157
-0.198435
0.00619526
-0.192722
0.00649462
-0.187231
0.00679045
-0.181951
0.00708347
-0.176878
0.00737437
-0.172001
0.00766399
-0.167314
0.00795337
-0.162806
0.00824384
-0.158468
0.00853695
-0.154288
0.00883445
-0.150249
0.00913784
-0.146332
0.00944809
-0.142513
-0.138767
0.00976515
8.62439e-05
-0.324282
0.000311399
-0.311885
0.000635757
-0.301542
0.00102317
-0.292348
0.00144439
-0.283864
0.00187792
-0.275768
0.00230929
-0.26789
0.00272969
-0.260163
0.00313454
-0.252573
0.00352215
-0.245132
0.00389276
-0.237861
0.00424771
-0.230782
0.0045889
-0.223915
0.00491841
-0.217273
0.00523825
-0.210862
0.00555022
-0.204685
0.00585586
-0.19874
0.00615641
-0.193023
0.00645284
-0.187527
0.00674592
-0.182245
0.00703631
-0.177168
0.00732467
-0.172289
0.0076118
-0.167601
0.00789873
-0.163093
0.00818679
-0.158756
0.00847762
-0.154578
0.00877299
-0.150544
0.00907471
-0.146634
0.009384
-0.142823
-0.139084
0.00970115
8.83756e-05
-0.32437
0.000316322
-0.312113
0.000642695
-0.301868
0.00103076
-0.292736
0.00145121
-0.284285
0.00188269
-0.2762
0.002311
-0.268319
0.0027276
-0.26058
0.00312816
-0.252974
0.00351121
-0.245515
0.00387716
-0.238227
0.00422748
-0.231133
0.00456416
-0.224252
0.00488936
-0.217598
0.00520511
-0.211178
0.00551325
-0.204993
0.00581531
-0.199042
0.00611252
-0.19332
0.00640584
-0.18782
0.00669601
-0.182535
0.00698363
-0.177456
0.00726932
-0.172575
0.00755384
-0.167885
0.00783819
-0.163377
0.00812371
-0.159042
0.00841209
-0.154867
0.00870526
-0.150837
0.00900515
-0.146933
0.00931334
-0.143131
-0.139401
0.00963047
9.01693e-05
-0.32446
0.000320404
-0.312343
0.00064836
-0.302196
0.00103674
-0.293125
0.00145611
-0.284704
0.00188526
-0.276629
0.00231023
-0.268744
0.00272276
-0.260993
0.00311877
-0.25337
0.003497
-0.245893
0.00385803
-0.238588
0.00420346
-0.231478
0.00453539
-0.224584
0.00485603
-0.217919
0.00516746
-0.211489
0.00547154
-0.205297
0.0057698
-0.199341
0.00606347
-0.193614
0.00635349
-0.18811
0.00664057
-0.182822
0.00692527
-0.17774
0.00720816
-0.172858
0.00748994
-0.168167
0.00777157
-0.163659
0.0080544
-0.159325
0.00834015
-0.155153
0.00863102
-0.151128
0.00892897
-0.147231
0.00923593
-0.143438
-0.139718
0.00955294
9.16509e-05
-0.324552
0.000323761
-0.312575
0.000652902
-0.302525
0.00104125
-0.293513
0.00145922
-0.285122
0.00188573
-0.277055
0.00230706
-0.269165
0.00271522
-0.261401
0.00310638
-0.253761
0.00347951
-0.246266
0.00383534
-0.238944
0.00417562
-0.231818
0.00450254
-0.224911
0.00481835
-0.218234
0.00512521
-0.211796
0.00542498
-0.205597
0.00571921
-0.199635
0.00600912
-0.193904
0.00629562
-0.188397
0.00657942
-0.183106
0.00686102
-0.178022
0.00714096
-0.173138
0.00741985
-0.168446
0.00769862
-0.163938
0.00797862
-0.159605
0.00826168
-0.155436
0.00854999
-0.151416
0.00884593
-0.147527
0.00915155
-0.143743
-0.140035
0.00946834
9.28874e-05
-0.324645
0.000326515
-0.312809
0.000656482
-0.302855
0.00104444
-0.293901
0.00146066
-0.285538
0.00188419
-0.277479
0.00230155
-0.269582
0.00270504
-0.261804
0.00309105
-0.254147
0.00345877
-0.246634
0.00380911
-0.239294
0.00414394
-0.232153
0.00446555
-0.225232
0.00477628
-0.218545
0.00507829
-0.212098
0.00537348
-0.205892
0.00566341
-0.199925
0.0059493
-0.19419
0.00623206
-0.18868
0.00651235
-0.183386
0.00679066
-0.1783
0.00706746
-0.173415
0.00734331
-0.168722
0.00761909
-0.164214
0.00789614
-0.159882
0.00817632
-0.155716
0.00846194
-0.151702
0.0087557
-0.147821
0.00905986
-0.144048
-0.140352
0.00937634
9.39009e-05
-0.324739
0.000328726
-0.313043
0.000659195
-0.303186
0.00104642
-0.294288
0.00146054
-0.285953
0.00188074
-0.277899
0.0022938
-0.269995
0.00269227
-0.262203
0.0030728
-0.254528
0.0034348
-0.246996
0.00377934
-0.239638
0.00410842
-0.232482
0.00442442
-0.225548
0.00472974
-0.21885
0.0050266
-0.212395
0.00531692
-0.206182
0.00560225
-0.20021
0.00588384
-0.194471
0.00616259
-0.188958
0.00643913
-0.183662
0.00671392
-0.178575
0.00698738
-0.173688
0.00726001
-0.168994
0.00753265
-0.164486
0.00780657
-0.160156
0.00808369
-0.155993
0.00836651
-0.151985
0.00865784
-0.148112
0.00896046
-0.14435
-0.140668
0.00927653
9.4703e-05
-0.324833
0.000330461
-0.313279
0.00066113
-0.303516
0.00104729
-0.294675
0.00145896
-0.286364
0.00187549
-0.278316
0.00228389
-0.270404
0.002677
-0.262596
0.00305172
-0.254902
0.00340766
-0.247352
0.00374607
-0.239977
0.00406906
-0.232805
0.00437913
-0.225858
0.00467871
-0.21915
0.00497009
-0.212686
0.00525519
-0.206468
0.00553562
-0.20049
0.00581259
-0.194748
0.00608701
-0.189233
0.00635951
-0.183935
0.00663051
-0.178846
0.00690038
-0.173958
0.00716958
-0.169264
0.00743886
-0.164755
0.00770949
-0.160426
0.00798339
-0.156267
0.00826318
-0.152265
0.00855189
-0.148401
0.00885279
-0.144651
-0.140983
0.00916838
9.53057e-05
-0.324929
0.000331758
-0.313516
0.000662371
-0.303847
0.00104716
-0.295059
0.00145604
-0.286773
0.00186853
-0.278728
0.00227192
-0.270807
0.00265932
-0.262983
0.00302788
-0.255271
0.00337741
-0.247702
0.00370933
-0.240309
0.0040259
-0.233122
0.00432966
-0.226162
0.00462316
-0.219444
0.00490868
-0.212972
0.00518821
-0.206747
0.00546335
-0.200766
0.00573534
-0.19502
0.00600508
-0.189502
0.00627319
-0.184203
0.00654009
-0.179113
0.00680608
-0.174224
0.00707158
-0.169529
0.00733728
-0.165021
0.00760439
-0.160693
0.00787484
-0.156537
0.00815134
-0.152541
0.00843728
-0.148687
0.00873614
-0.14495
-0.141298
0.00905123
9.57146e-05
-0.325024
0.00033267
-0.313753
0.000663
-0.304177
0.00104612
-0.295442
0.00145188
-0.287179
0.00185998
-0.279136
0.002258
-0.271205
0.00263934
-0.263365
0.00300138
-0.255633
0.00334414
-0.248044
0.00366922
-0.240634
0.00397897
-0.233432
0.00427606
-0.226459
0.00456307
-0.219731
0.00484235
-0.213251
0.0051159
-0.207021
0.00538534
-0.201035
0.00565192
-0.195287
0.00591656
-0.189767
0.00617988
-0.184466
0.00644228
-0.179375
0.00670404
-0.174486
0.00696551
-0.169791
0.00722733
-0.165283
0.00749064
-0.160957
0.00775737
-0.156804
0.00803037
-0.152814
0.00831323
-0.14897
0.00860991
-0.145247
-0.141613
0.00892423
9.59409e-05
-0.32512
0.000333255
-0.31399
0.000663114
-0.304507
0.0010443
-0.295824
0.0014466
-0.287581
0.00184997
-0.279539
0.00224228
-0.271597
0.00261719
-0.263739
0.00297234
-0.255988
0.00330797
-0.24838
0.00362581
-0.240952
0.00392837
-0.233734
0.00421838
-0.226749
0.00449849
-0.220011
0.00477108
-0.213524
0.00503818
-0.207288
0.00530145
-0.201298
0.00556215
-0.195548
0.00582121
-0.190026
0.00607926
-0.184724
0.00633669
-0.179633
0.00659377
-0.174743
0.0068508
-0.170048
0.00710835
-0.165541
0.00736752
-0.161216
0.00763022
-0.157067
0.00789936
-0.153083
0.00817879
-0.149249
0.00847296
-0.145541
-0.141926
0.00878615
9.59961e-05
-0.325216
0.000333584
-0.314227
0.00066283
-0.304836
0.00104182
-0.296203
0.00144036
-0.28798
0.00183866
-0.279938
0.0022249
-0.271984
0.00259302
-0.264108
0.00294092
-0.256336
0.00326903
-0.248708
0.00357925
-0.241262
0.00387421
-0.234029
0.0041567
-0.227032
0.00442946
-0.220283
0.00469489
-0.213789
0.00495505
-0.207548
0.00521161
-0.201555
0.00546588
-0.195802
0.00571879
-0.190279
0.005971
-0.184977
0.0062229
-0.179885
0.00647474
-0.174995
0.0067268
-0.1703
0.00697958
-0.165793
0.00723413
-0.16147
0.00749233
-0.157325
0.00775716
-0.153348
0.00803271
-0.149525
0.00832388
-0.145832
-0.142238
0.00863574
9.59064e-05
-0.325312
0.000333751
-0.314465
0.000662281
-0.305165
0.00103886
-0.296579
0.00143333
-0.288374
0.00182623
-0.280331
0.00220605
-0.272364
0.00256703
-0.264469
0.00290731
-0.256676
0.00322752
-0.249028
0.00352972
-0.241564
0.00381664
-0.234316
0.00409118
-0.227306
0.0043561
-0.220548
0.00461386
-0.214047
0.00486652
-0.207801
0.0051158
-0.201804
0.005363
-0.196049
0.00560911
-0.190525
0.0058548
-0.185222
0.00610047
-0.18013
0.0063464
-0.175241
0.00659282
-0.170546
0.0068402
-0.166041
0.0070895
-0.16172
0.0073426
-0.157578
0.00760251
-0.153608
0.0078736
-0.149796
0.00816128
-0.14612
-0.142548
0.00847136
9.57225e-05
-0.325408
0.000333895
-0.314703
0.00066165
-0.305493
0.00103559
-0.296953
0.00142571
-0.288764
0.00181288
-0.280718
0.00218595
-0.272737
0.00253944
-0.264822
0.00287173
-0.257009
0.00318366
-0.24934
0.00347743
-0.241858
0.0037559
-0.234594
0.00402202
-0.227573
0.0042786
-0.220805
0.00452813
-0.214296
0.0047727
-0.208045
0.00501404
-0.202045
0.00525348
-0.196288
0.00549203
-0.190764
0.00573039
-0.185461
0.00596902
-0.180369
0.00620819
-0.17548
0.00644813
-0.170786
0.00668928
-0.166282
0.00693255
-0.161963
0.00717976
-0.157825
0.00743399
-0.153862
0.00769984
-0.150062
0.00798327
-0.146403
-0.142855
0.00829093
9.55168e-05
-0.325503
0.000334186
-0.314942
0.000661146
-0.305819
0.00103224
-0.297324
0.00141773
-0.28915
0.00179887
-0.281099
0.00216486
-0.273103
0.00251051
-0.265168
0.00283445
-0.257333
0.00313772
-0.249643
0.00342267
-0.242143
0.00369224
-0.234864
0.00394948
-0.22783
0.00419721
-0.221053
0.00443795
-0.214537
0.00467379
-0.208281
0.00490648
-0.202278
0.00513737
-0.196519
0.0053675
-0.190994
0.00559761
-0.185691
0.0058282
-0.1806
0.00605957
-0.175711
0.00629198
-0.171018
0.00652583
-0.166516
0.00676201
-0.162199
0.0070023
-0.158066
0.00724981
-0.15411
0.00750936
-0.150321
0.00778746
-0.146681
-0.14316
0.00809179
9.54188e-05
-0.325599
0.000334864
-0.315182
0.000661032
-0.306146
0.0010291
-0.297692
0.00140967
-0.28953
0.00178448
-0.281474
0.00214306
-0.273461
0.00248054
-0.265505
0.00279578
-0.257648
0.00309001
-0.249938
0.00336575
-0.242419
0.00362603
-0.235124
0.00387392
-0.228078
0.00411229
-0.221291
0.00434365
-0.214768
0.0045701
-0.208507
0.00479339
-0.202501
0.00501487
-0.196741
0.00523562
-0.191215
0.00545642
-0.185912
0.0056778
-0.180821
0.00590013
-0.175934
0.00612368
-0.171242
0.00634888
-0.166741
0.00657659
-0.162427
0.00680856
-0.158298
0.00704795
-0.154349
0.00729976
-0.150573
0.0075711
-0.146953
-0.14346
0.00787081
9.56339e-05
-0.325694
0.000336246
-0.315422
0.000661649
-0.306471
0.00102648
-0.298057
0.00140186
-0.289906
0.00177003
-0.281842
0.00212089
-0.273812
0.00244985
-0.265834
0.00275605
-0.257954
0.00304091
-0.250223
0.00330708
-0.242685
0.00355766
-0.235375
0.00379577
-0.228316
0.00402429
-0.22152
0.0042457
-0.21499
0.0044621
-0.208724
0.00467521
-0.202715
0.00488638
-0.196952
0.0050967
-0.191425
0.00530698
-0.186122
0.0055178
-0.181032
0.00572958
-0.176145
0.00594266
-0.171455
0.0061575
-0.166956
0.00637496
-0.162644
0.0065968
-0.158519
0.00682623
-0.154579
0.00706845
-0.150815
0.00733117
-0.147215
-0.143753
0.00762446
9.65096e-05
-0.325791
0.00033882
-0.315664
0.000663453
-0.306796
0.00102482
-0.298418
0.0013947
-0.290276
0.00175588
-0.282203
0.00209867
-0.274155
0.0024188
-0.266154
0.00271565
-0.258251
0.00299082
-0.250498
0.00324709
-0.242941
0.00348763
-0.235615
0.00371559
-0.228544
0.0039338
-0.221738
0.00414474
-0.215201
0.00435046
-0.20893
0.00455261
-0.202917
0.00475255
-0.197152
0.00495132
-0.191624
0.00514975
-0.18632
0.00534846
-0.181231
0.00554793
-0.176345
0.00574856
-0.171656
0.00595085
-0.167158
0.00615576
-0.162849
0.00636509
-0.158729
0.00658216
-0.154796
0.0068124
-0.151046
0.00706407
-0.147467
-0.144037
0.00734825
9.86004e-05
-0.325889
0.000343298
-0.315909
0.000667033
-0.307119
0.00102458
-0.298776
0.00138857
-0.29064
0.0017424
-0.282557
0.00207678
-0.274489
0.00238776
-0.266465
0.00267496
-0.258538
0.00294018
-0.250763
0.00318628
-0.243187
0.00341651
-0.235846
0.00363399
-0.228761
0.00384154
-0.221945
0.00404157
-0.215401
0.00423604
-0.209124
0.00442655
-0.203107
0.00461435
-0.19734
0.00480046
-0.19181
0.00498564
-0.186505
0.00517053
-0.181415
0.00535561
-0.17653
0.00554134
-0.171841
0.00572831
-0.167345
0.00591755
-0.163039
0.00611105
-0.158922
0.0063123
-0.154997
0.00652699
-0.15126
0.00676384
-0.147704
-0.144308
0.0070353
0.000102781
-0.325992
0.000350587
-0.316157
0.000672985
-0.307442
0.00102618
-0.299129
0.00138385
-0.290997
0.00172994
-0.282903
0.00205558
-0.274815
0.00235711
-0.266767
0.0026344
-0.258815
0.00288944
-0.251018
0.00312518
-0.243423
0.0033449
-0.236065
0.00355171
-0.228968
0.00374836
-0.222142
0.00393716
-0.21559
0.00411998
-0.209307
0.00429828
-0.203286
0.0044732
-0.197515
0.00464561
-0.191982
0.00481621
-0.186676
0.00498551
-0.181585
0.00515395
-0.176698
0.00532195
-0.172009
0.00549011
-0.167513
0.00565952
-0.163208
0.00583235
-0.159095
0.00601243
-0.155177
0.00620579
-0.151454
0.00642176
-0.14792
-0.144563
0.00667644
0.000110144
-0.326102
0.000361483
-0.316408
0.000681747
-0.307762
0.00103001
-0.299477
0.00138094
-0.291348
0.0017189
-0.283241
0.00203543
-0.275131
0.00232721
-0.267059
0.00259438
-0.259082
0.00283907
-0.251263
0.00306434
-0.243648
0.00327347
-0.236275
0.00346954
-0.229164
0.00365521
-0.222328
0.00383267
-0.215767
0.00400362
-0.209478
0.00416939
-0.203451
0.0043309
-0.197676
0.00448886
-0.19214
0.00464375
-0.186831
0.00479591
-0.181737
0.00494558
-0.176848
0.005093
-0.172157
0.00523859
-0.167659
0.0053833
-0.163353
0.00552931
-0.159241
0.00568077
-0.155328
0.00584458
-0.151618
0.00603188
-0.148107
-0.144795
0.00626411
0.000121744
-0.326224
0.000376687
-0.316663
0.000694079
-0.308079
0.00103683
-0.29982
0.00138046
-0.291692
0.00170974
-0.28357
0.00201668
-0.275438
0.00229837
-0.26734
0.0025552
-0.259339
0.00278945
-0.251497
0.00300425
-0.243863
0.00320286
-0.236473
0.0033883
-0.22935
0.00356311
-0.222502
0.00372935
-0.215933
0.00388854
-0.209637
0.00404176
-0.203605
0.00418971
-0.197824
0.00433281
-0.192283
0.00447124
-0.186969
0.00460501
-0.181871
0.00473405
-0.176977
0.00485828
-0.172281
0.00497775
-0.167778
0.00509302
-0.163468
0.00520599
-0.159354
0.00532098
-0.155443
0.00544588
-0.151742
0.00559446
-0.148256
-0.144987
0.00578578
0.00013936
-0.326364
0.000399033
-0.316923
0.000712657
-0.308393
0.00104828
-0.300156
0.00138316
-0.292027
0.00170272
-0.28389
0.00199942
-0.275735
0.00227065
-0.267611
0.00251699
-0.259586
0.00274082
-0.251721
0.00294527
-0.244067
0.00313358
-0.236661
0.0033087
-0.229525
0.00347306
-0.222667
0.00362853
-0.216089
0.00377643
-0.209785
0.00391759
-0.203746
0.00405238
-0.197959
0.00418081
-0.192412
0.00430259
-0.187091
0.00441717
-0.181985
0.00452385
-0.177084
0.00462187
-0.172379
0.00471061
-0.167867
0.00479009
-0.163547
0.00486198
-0.159426
0.0049307
-0.155512
0.00500349
-0.151815
0.00509174
-0.148344
-0.145092
0.0051973
0.000171444
-0.326535
0.00043727
-0.317189
0.000741869
-0.308698
0.0010656
-0.30048
0.001389
-0.29235
0.00169751
-0.284198
0.00198336
-0.276021
0.00224389
-0.267872
0.00247974
-0.259822
0.00269327
-0.251934
0.00288765
-0.244262
0.00306607
-0.23684
0.0032314
-0.22969
0.00338595
-0.222821
0.00353145
-0.216234
0.00366903
-0.209922
0.00379925
-0.203876
0.00392216
-0.198082
0.00403728
-0.192527
0.00414368
-0.187198
0.00423989
-0.182081
0.00432395
-0.177168
0.00439338
-0.172449
0.00444542
-0.167919
0.00447768
-0.16358
0.00448952
-0.159438
0.00448352
-0.155506
0.00446617
-0.151798
0.00445077
-0.148329
-0.145089
0.00444803
0.000245161
-0.32678
0.000498143
-0.317442
0.000779969
-0.30898
0.00108636
-0.300786
0.00139633
-0.29266
0.00169318
-0.284495
0.00196804
-0.276296
0.00221796
-0.268122
0.00244348
-0.260047
0.00264702
-0.252138
0.00283173
-0.244446
0.00300079
-0.237009
0.003157
-0.229846
0.00330261
-0.222967
0.00343925
-0.216371
0.0035679
-0.210051
0.00368896
-0.203997
0.00380225
-0.198195
0.00390698
-0.192632
0.00400172
-0.187292
0.00408419
-0.182164
0.00415104
-0.177235
0.00419747
-0.172495
0.0042167
-0.167938
0.0041996
-0.163563
0.00413426
-0.159372
0.00400662
-0.155378
0.0038073
-0.151599
0.003565
-0.148086
-0.145096
0.00357164
0.329217
0.000170097
-0.329388
0.32909
0.000127317
0.328981
0.000109118
0.328882
9.94822e-05
0.328788
9.33965e-05
0.328698
8.97191e-05
0.328611
8.78408e-05
0.328523
8.71703e-05
0.328436
8.71454e-05
0.328349
8.73563e-05
0.328261
8.77675e-05
0.328173
8.83022e-05
0.328084
8.87575e-05
0.327995
8.91032e-05
0.327906
8.93354e-05
0.327816
8.94433e-05
0.327727
8.94236e-05
0.327638
8.92741e-05
0.327549
8.8979e-05
0.32746
8.85316e-05
0.327372
8.79021e-05
0.327285
8.70604e-05
0.327199
8.5888e-05
0.327115
8.43364e-05
0.327033
8.19216e-05
0.326954
7.87635e-05
0.326882
7.21139e-05
0.326818
6.37873e-05
0.326784
3.46478e-05
3.47962e-06
0.322878
0.000331698
-0.32304
0.322705
0.000300862
0.322531
0.000283029
0.322356
0.000274369
0.32218
0.000269688
0.322002
0.0002672
0.321824
0.000266523
0.321644
0.000267217
0.321462
0.000268785
0.321278
0.000270744
0.321093
0.00027294
0.320906
0.000275292
0.320718
0.000277525
0.320527
0.000279576
0.320335
0.00028139
0.320142
0.000282933
0.319947
0.000284176
0.319751
0.000285094
0.319554
0.000285653
0.319357
0.000285823
0.319159
0.000285538
0.318962
0.000284726
0.318764
0.000283182
0.318568
0.000280747
0.318373
0.000276725
0.318181
0.000270897
0.317993
0.000260451
0.31781
0.000246173
0.317627
0.000217981
0.000188755
0.315667
0.000470838
-0.315807
0.315508
0.000460279
0.315337
0.000454173
0.315157
0.000453756
0.314971
0.000456492
0.314777
0.000460705
0.314578
0.000466002
0.314373
0.000472006
0.314163
0.000478554
0.313948
0.000485432
0.313729
0.000492238
0.313506
0.000498923
0.313278
0.000505311
0.313046
0.000511307
0.312811
0.000516848
0.312572
0.000521885
0.312329
0.000526374
0.312084
0.000530287
0.311836
0.000533577
0.311586
0.000536202
0.311333
0.000538086
0.311079
0.000539129
0.310823
0.000539119
0.310566
0.000537854
0.310308
0.000534724
0.310049
0.000529432
0.309789
0.000520317
0.309528
0.000507864
0.309257
0.000488464
0.000466543
0.307584
0.000579092
-0.307693
0.307458
0.000586856
0.307316
0.000595516
0.307163
0.000606663
0.307
0.000619668
0.306827
0.000633511
0.306646
0.000647883
0.306455
0.000662343
0.306257
0.000676662
0.306051
0.000691149
0.305838
0.000705337
0.305618
0.000718833
0.305392
0.00073175
0.305159
0.000743969
0.304921
0.000755432
0.304677
0.000766079
0.304427
0.000775878
0.304173
0.00078479
0.303913
0.000792788
0.30365
0.000799828
0.303382
0.000805846
0.30311
0.000810762
0.302835
0.000814407
0.302556
0.000816617
0.302274
0.000816993
0.301988
0.000815334
0.301698
0.00081083
0.301402
0.000803677
0.301098
0.000792447
0.000778317
0.298941
0.00064924
-0.299011
0.298855
0.000673419
0.298753
0.000697051
0.298639
0.000721217
0.298512
0.000746076
0.298374
0.000771183
0.298226
0.000796199
0.298068
0.000820905
0.297899
0.000845207
0.297721
0.00086898
0.297534
0.000892052
0.297339
0.000914202
0.297135
0.000935391
0.296924
0.000955533
0.296705
0.000974579
0.296478
0.000992485
0.296245
0.00100921
0.296005
0.00102475
0.295759
0.00103906
0.295506
0.00105214
0.295248
0.00106395
0.294985
0.00107444
0.294716
0.00108353
0.294441
0.00109112
0.294161
0.001097
0.293875
0.00110107
0.293583
0.00110297
0.293284
0.00110275
0.292977
0.00109988
0.00109492
0.289984
0.000681263
-0.290016
0.289937
0.000720649
0.289875
0.000758878
0.2898
0.000796568
0.289712
0.000834069
0.289612
0.000871216
0.2895
0.000907778
0.289378
0.000943701
0.289244
0.000978764
0.2891
0.0010128
0.288946
0.00104581
0.288783
0.00107758
0.28861
0.00110804
0.288429
0.00113712
0.288239
0.00116477
0.28804
0.00119095
0.287834
0.00121565
0.28762
0.00123885
0.287398
0.00126056
0.28717
0.00128078
0.286934
0.00129951
0.286692
0.00131676
0.286443
0.00133251
0.286187
0.00134676
0.285925
0.00135944
0.285655
0.00137054
0.285378
0.00137995
0.285093
0.00138777
0.284799
0.0013939
0.0013988
0.280941
0.0006805
-0.28094
0.280927
0.000734256
0.2809
0.000786549
0.280858
0.000837679
0.280804
0.000887979
0.280738
0.00093741
0.28066
0.000985791
0.280571
0.00103318
0.28047
0.00107936
0.280359
0.00112411
0.280237
0.00116747
0.280106
0.00120927
0.279964
0.00124944
0.279813
0.00128791
0.279653
0.00132464
0.279485
0.0013596
0.279308
0.00139279
0.279122
0.00142419
0.278929
0.00145384
0.278728
0.00148177
0.27852
0.00150802
0.278304
0.00153267
0.27808
0.00155576
0.27785
0.00157736
0.277612
0.00159753
0.277366
0.00161636
0.277112
0.0016339
0.276849
0.00165034
0.276578
0.00166577
0.00168061
0.271996
0.000654533
-0.27197
0.272008
0.000721923
0.272007
0.000787644
0.271993
0.0008518
0.271966
0.000914664
0.271927
0.00097627
0.271877
0.00103635
0.271815
0.00109507
0.271742
0.00115241
0.271658
0.00120792
0.271564
0.00126164
0.27146
0.00131352
0.271346
0.00136346
0.271222
0.00141141
0.271089
0.00145731
0.270948
0.00150115
0.270798
0.00154293
0.270639
0.00158266
0.270473
0.00162039
0.270298
0.00165619
0.270116
0.00169014
0.269926
0.00172237
0.269729
0.00175299
0.269524
0.00178217
0.269312
0.00181004
0.269091
0.00183682
0.268863
0.00186265
0.268625
0.00188783
0.268378
0.00191253
0.00193713
0.26328
0.000611028
-0.263237
0.263311
0.000691345
0.263329
0.000769827
0.263334
0.000846454
0.263327
0.000921435
0.263309
0.000994869
0.263279
0.00106645
0.263238
0.00113615
0.263186
0.00120433
0.263123
0.00127048
0.26305
0.00133436
0.262968
0.00139612
0.262876
0.00145566
0.262774
0.00151291
0.262664
0.00156783
0.262544
0.00162039
0.262417
0.00167061
0.262281
0.00171852
0.262137
0.00176418
0.261986
0.0018077
0.261826
0.00184921
0.26166
0.00188888
0.261486
0.00192689
0.261305
0.00196349
0.261116
0.00199893
0.260919
0.00203348
0.260714
0.00206744
0.260501
0.00210113
0.260279
0.00213484
0.00216891
0.254877
0.000556666
-0.254822
0.254919
0.000649251
0.254949
0.00073985
0.254967
0.000828388
0.254973
0.000915015
0.254968
0.000999709
0.254953
0.00108234
0.254926
0.001163
0.254889
0.00124156
0.254841
0.00131779
0.254784
0.0013916
0.254717
0.00146296
0.254641
0.0015318
0.254556
0.00159806
0.254462
0.00166169
0.25436
0.00172267
0.254249
0.00178101
0.254131
0.00183678
0.254005
0.00189004
0.253872
0.00194094
0.253731
0.00198964
0.253584
0.00203637
0.253429
0.00208139
0.253268
0.00212503
0.253099
0.00216761
0.252923
0.00220953
0.252739
0.00225117
0.252548
0.00229297
0.252347
0.00233525
0.00237839
0.246828
0.00049677
-0.246768
0.246876
0.000601038
0.246913
0.000703178
0.246938
0.000803085
0.246952
0.000900836
0.246956
0.00099639
0.246948
0.00108974
0.246931
0.00118077
0.246903
0.00126933
0.246865
0.00135537
0.246818
0.00143872
0.246762
0.00151933
0.246696
0.00159712
0.246623
0.00167202
0.24654
0.00174399
0.24645
0.001813
0.246352
0.00187908
0.246246
0.00194228
0.246134
0.00200271
0.246014
0.00206053
0.245888
0.00211593
0.245755
0.00216922
0.245616
0.0022207
0.24547
0.00227079
0.245318
0.00231994
0.245158
0.00236863
0.244992
0.00241737
0.244819
0.00246669
0.244637
0.00251701
0.00256873
0.23915
0.0004353
-0.239089
0.2392
0.000550746
0.23924
0.000663932
0.239268
0.000774728
0.239286
0.000883163
0.239293
0.000989181
0.23929
0.00109278
0.239277
0.00119379
0.239254
0.00129205
0.239222
0.00138753
0.239181
0.00148006
0.23913
0.00156955
0.239072
0.00165592
0.239005
0.0017391
0.238929
0.00181903
0.238847
0.00189568
0.238757
0.00196908
0.23866
0.00203927
0.238556
0.00210639
0.238446
0.0021706
0.23833
0.00223216
0.238208
0.00229138
0.23808
0.00234869
0.237946
0.00240457
0.237806
0.00245957
0.237661
0.00251431
0.237509
0.00256944
0.23735
0.0026256
0.237183
0.00268335
0.00274312
0.23184
0.000375003
-0.23178
0.231889
0.000501208
0.231928
0.000625029
0.231957
0.000746313
0.231975
0.000865053
0.231983
0.000981157
0.231981
0.00109463
0.231969
0.00120529
0.231949
0.00131295
0.231919
0.00141755
0.23188
0.00151892
0.231832
0.00161697
0.231777
0.0017116
0.231713
0.00180271
0.231642
0.00189024
0.231563
0.00197415
0.231478
0.00205446
0.231386
0.0021312
0.231288
0.00220452
0.231184
0.0022746
0.231074
0.00234172
0.230959
0.00240625
0.230839
0.00246868
0.230714
0.00252959
0.230584
0.00258965
0.230449
0.00264964
0.230308
0.00271034
0.230161
0.00277258
0.230007
0.00283708
0.00290437
0.224883
0.000317651
-0.224826
0.22493
0.000454281
0.224967
0.000588394
0.224993
0.000719842
0.22501
0.000848585
0.225016
0.000974445
0.225013
0.0010975
0.225001
0.00121756
0.22498
0.00133433
0.224949
0.00144777
0.224911
0.00155771
0.224864
0.00166404
0.224809
0.00176664
0.224746
0.00186539
0.224676
0.00196021
0.224599
0.00205104
0.224516
0.00213788
0.224426
0.00222077
0.224331
0.00229983
0.22423
0.00237525
0.224125
0.00244735
0.224014
0.00251653
0.2239
0.00258334
0.223781
0.00264847
0.223658
0.00271273
0.22353
0.00277707
0.223398
0.00284247
0.223261
0.00290996
0.223117
0.00298048
0.00305471
0.218259
0.000264276
-0.218206
0.218302
0.000411062
0.218336
0.0005552
0.218359
0.000696554
0.218372
0.000835068
0.218376
0.000970428
0.218371
0.00110278
0.218357
0.00123205
0.218333
0.00135774
0.218301
0.00147978
0.218261
0.00159807
0.218212
0.00171246
0.218156
0.0018228
0.218093
0.00192894
0.218022
0.00203078
0.217945
0.00212825
0.217861
0.0022213
0.217772
0.00230997
0.217678
0.00239434
0.217578
0.00247463
0.217475
0.00255113
0.217367
0.0026243
0.217255
0.00269474
0.217141
0.00276325
0.217023
0.00283078
0.216901
0.00289849
0.216776
0.0029676
0.216647
0.00303942
0.216512
0.00311517
0.00319575
0.211945
0.000215378
-0.211896
0.211984
0.000372111
0.212013
0.000526073
0.212033
0.000677116
0.212043
0.000825194
0.212043
0.000969956
0.212035
0.00111141
0.212017
0.00124964
0.211991
0.00138411
0.211956
0.00151458
0.211913
0.00164106
0.211862
0.00176334
0.211803
0.00188124
0.211738
0.00199459
0.211665
0.00210326
0.211586
0.00220712
0.211502
0.00230613
0.211411
0.00240025
0.211316
0.00248958
0.211216
0.00257427
0.211113
0.00265464
0.211006
0.00273115
0.210896
0.00280446
0.210784
0.00287545
0.21067
0.00294527
0.210553
0.00301526
0.210434
0.00308699
0.210311
0.00316209
0.210184
0.00324218
0.00332849
0.205918
0.000171101
-0.205874
0.205953
0.000337622
0.205978
0.000501261
0.205993
0.000661862
0.205999
0.000819287
0.205995
0.000973279
0.205983
0.0011239
0.205962
0.0012709
0.205932
0.00141389
0.205894
0.00155275
0.205847
0.0016873
0.205793
0.00181736
0.205732
0.0019427
0.205663
0.00206313
0.205588
0.00217847
0.205507
0.00228857
0.20542
0.00239332
0.205327
0.00249265
0.20523
0.00258661
0.205129
0.00267532
0.205025
0.00275905
0.204918
0.00283827
0.204808
0.00291368
0.204698
0.00298624
0.204586
0.00305725
0.204472