/*--------------------------------*- C++ -*----------------------------------*\
  =========                 |
  \\      /  F ield         | OpenFOAM: The Open Source CFD Toolbox
   \\    /   O peration     | Website:  https://openfoam.org
    \\  /    A nd           | Version:  6.0
     \\/     M anipulation  |
\*---------------------------------------------------------------------------*/
FoamFile
{
    version     2.0;
    format      ascii;
    class       volScalarField;
    location    "25";
    object      p;
}
// * * * * * * * * * * * * * * * * * * * * * * * * * * * * * * * * * * * * * //

dimensions      [0 2 -2 0 0 0 0];

internalField   nonuniform List<scalar> 
2400
(
-0.389704
-0.376538
-0.3683
-0.361658
-0.355121
-0.348692
-0.342448
-0.336352
-0.33049
-0.325965
-0.402868
-0.388852
-0.379654
-0.371884
-0.36412
-0.356458
-0.349037
-0.341827
-0.334914
-0.329845
-0.420027
-0.404544
-0.393899
-0.38459
-0.375221
-0.365977
-0.357053
-0.348408
-0.340123
-0.334416
-0.441444
-0.423868
-0.411268
-0.399985
-0.388614
-0.377418
-0.36664
-0.356201
-0.346171
-0.339681
-0.467429
-0.44707
-0.43197
-0.418266
-0.404491
-0.390969
-0.377969
-0.365341
-0.353117
-0.345611
-0.498266
-0.474365
-0.456202
-0.439634
-0.42307
-0.406867
-0.391289
-0.37605
-0.361093
-0.352187
-0.534174
-0.505924
-0.484133
-0.464289
-0.444598
-0.425419
-0.406967
-0.388748
-0.370453
-0.359501
-0.575262
-0.541832
-0.515877
-0.492397
-0.469297
-0.446892
-0.425314
-0.403738
-0.38125
-0.36699
-0.621446
-0.582043
-0.551478
-0.524111
-0.497427
-0.471616
-0.446558
-0.420715
-0.391822
-0.371105
-0.672172
-0.626265
-0.590859
-0.55962
-0.529628
-0.501017
-0.473371
-0.44431
-0.409917
-0.380847
-1.14138
-1.12483
-1.09575
-1.0565
-1.00932
-0.956409
-0.899847
-0.84152
-0.783073
-0.726047
-1.04476
-1.02994
-1.00375
-0.968334
-0.925824
-0.878291
-0.827685
-0.775758
-0.724029
-0.673816
-0.962035
-0.950963
-0.92899
-0.898109
-0.860356
-0.817743
-0.772167
-0.725336
-0.67873
-0.633572
-0.88433
-0.878158
-0.861341
-0.835668
-0.803037
-0.765371
-0.724512
-0.68215
-0.639775
-0.598608
-0.808419
-0.8074
-0.796091
-0.776016
-0.748866
-0.716395
-0.680325
-0.642269
-0.603712
-0.565871
-0.736551
-0.74033
-0.734347
-0.719851
-0.698275
-0.671141
-0.639956
-0.60614
-0.571079
-0.535907
-0.670172
-0.678043
-0.676844
-0.667576
-0.651423
-0.629644
-0.603457
-0.57394
-0.542191
-0.509064
-0.609716
-0.620914
-0.623828
-0.619281
-0.608268
-0.591829
-0.570881
-0.546007
-0.517618
-0.485514
-0.554988
-0.568877
-0.575331
-0.575086
-0.569052
-0.558178
-0.54322
-0.524302
-0.500611
-0.468452
-0.505959
-0.521172
-0.529924
-0.532926
-0.531103
-0.525501
-0.517088
-0.506259
-0.492214
-0.468423
-0.428308
-0.562767
-0.687681
-0.800822
-0.899925
-0.983196
-1.04942
-1.09799
-1.12889
-1.14282
-0.379202
-0.50449
-0.621085
-0.726694
-0.819189
-0.896897
-0.958693
-1.00403
-1.03296
-1.04609
-0.313246
-0.431193
-0.541791
-0.642714
-0.73187
-0.807578
-0.868655
-0.914454
-0.944876
-0.960374
-0.244663
-0.35519
-0.45987
-0.556409
-0.642744
-0.717194
-0.778506
-0.825899
-0.859088
-0.878294
-0.181983
-0.284641
-0.382875
-0.474419
-0.557275
-0.629821
-0.690798
-0.739346
-0.775038
-0.797883
-0.128494
-0.223426
-0.315155
-0.40137
-0.480187
-0.550112
-0.609947
-0.658819
-0.696227
-0.722034
-0.0842259
-0.172017
-0.257653
-0.338574
-0.413092
-0.479914
-0.53794
-0.58634
-0.624593
-0.652486
-0.0474722
-0.128375
-0.208566
-0.284597
-0.354963
-0.418601
-0.474523
-0.52196
-0.560416
-0.589648
-0.0171433
-0.090938
-0.166246
-0.237906
-0.304459
-0.36503
-0.418746
-0.464934
-0.50315
-0.533162
-0.000646765
-0.0696552
-0.140168
-0.206608
-0.268242
-0.324489
-0.374604
-0.41806
-0.454526
-0.483821
0.542764
0.563805
0.586269
0.609293
0.632405
0.654946
0.675945
0.694808
0.716896
0.755984
0.516232
0.534508
0.554487
0.574616
0.594222
0.612581
0.628641
0.64184
0.657886
0.69173
0.482224
0.496758
0.513433
0.529749
0.544778
0.557754
0.567595
0.573871
0.582713
0.610113
0.44104
0.450968
0.463607
0.475265
0.484731
0.491228
0.493694
0.491928
0.492531
0.512362
0.393072
0.397685
0.405676
0.411936
0.414976
0.414047
0.408157
0.397428
0.388963
0.400276
0.338789
0.337584
0.340479
0.340736
0.336645
0.327533
0.312528
0.292161
0.274039
0.276077
0.278747
0.271469
0.269018
0.262838
0.251095
0.233262
0.208642
0.178243
0.150143
0.142354
0.213678
0.200348
0.192524
0.179631
0.159905
0.133056
0.0985978
0.0580721
0.0199543
0.00201082
0.144378
0.125746
0.112735
0.0928563
0.064927
0.0289722
-0.0152784
-0.0657241
-0.113617
-0.141815
0.0692774
0.0483041
0.030592
0.00374772
-0.0321253
-0.0768863
-0.130554
-0.190399
-0.24759
-0.286059
0.395738
0.398989
0.409432
0.417685
0.424133
0.430516
0.43844
0.45028
0.46891
0.491443
0.444394
0.448957
0.460637
0.471971
0.482316
0.492864
0.504876
0.520403
0.542938
0.571828
0.483463
0.491803
0.506016
0.520797
0.535194
0.549948
0.566017
0.585114
0.611199
0.645725
0.515705
0.528132
0.545208
0.563279
0.581445
0.600132
0.61998
0.642321
0.671434
0.71071
0.541359
0.557501
0.577283
0.598284
0.619759
0.641887
0.664997
0.690025
0.721454
0.76448
0.560151
0.579401
0.601465
0.624857
0.648996
0.673861
0.699486
0.726419
0.759275
0.80493
0.57181
0.593389
0.61713
0.642211
0.6682
0.694904
0.722086
0.749937
0.783171
0.830232
0.576071
0.599066
0.623752
0.649707
0.676597
0.704083
0.73169
0.7593
0.791729
0.838903
0.572716
0.596122
0.620938
0.646869
0.673614
0.700709
0.727475
0.753554
0.783903
0.829858
0.561619
0.584377
0.608458
0.633417
0.65891
0.684365
0.708938
0.732111
0.759035
0.802379
0.350394
0.30549
0.254218
0.202444
0.15114
0.101064
0.0530538
0.00762958
-0.0348882
-0.0742972
0.354999
0.3073
0.254258
0.19967
0.14555
0.092956
0.0427283
-0.00450161
-0.0483021
-0.0884099
0.358586
0.305175
0.248545
0.191141
0.134684
0.0802267
0.0286486
-0.0193596
-0.0633309
-0.103004
0.361235
0.302772
0.242504
0.182191
0.123355
0.0671124
0.0143841
-0.0341316
-0.0779883
-0.11698
0.36304
0.300168
0.236353
0.173145
0.112024
0.0541705
0.000515288
-0.048275
-0.0918171
-0.130003
0.364971
0.297922
0.230635
0.164655
0.101447
0.0422025
-0.0121795
-0.0611043
-0.104287
-0.141744
0.368688
0.297762
0.227205
0.158612
0.0934404
0.0328505
-0.0223224
-0.0715773
-0.114737
-0.151942
0.376734
0.30228
0.228605
0.157363
0.0900063
0.0276616
-0.0288955
-0.0792367
-0.123259
-0.161179
0.391201
0.312554
0.234795
0.159658
0.0886341
0.0228753
-0.0368241
-0.0900228
-0.13661
-0.176794
0.407117
0.321336
0.236374
0.154127
0.0762121
0.00393412
-0.0617563
-0.120287
-0.171462
-0.215411
-0.11056
-0.143734
-0.174059
-0.201873
-0.22757
-0.251557
-0.274127
-0.295281
-0.315535
-0.325797
-0.124775
-0.157426
-0.186608
-0.212658
-0.235956
-0.25686
-0.275562
-0.291883
-0.30547
-0.309652
-0.138374
-0.1695
-0.196707
-0.220414
-0.241085
-0.259168
-0.274969
-0.288551
-0.299869
-0.30562
-0.151202
-0.180788
-0.206189
-0.22794
-0.246614
-0.262766
-0.276837
-0.289078
-0.299532
-0.306346
-0.163063
-0.191223
-0.215076
-0.235269
-0.25247
-0.26731
-0.280304
-0.29177
-0.301708
-0.308969
-0.173857
-0.200931
-0.223683
-0.242843
-0.259126
-0.273189
-0.285552
-0.296521
-0.306063
-0.313476
-0.183703
-0.210359
-0.232714
-0.251526
-0.267507
-0.281287
-0.293346
-0.303946
-0.313049
-0.320251
-0.193583
-0.22079
-0.24363
-0.262845
-0.27911
-0.293003
-0.304949
-0.315173
-0.323667
-0.330237
-0.211123
-0.239937
-0.264039
-0.28415
-0.30093
-0.314929
-0.32654
-0.335981
-0.343302
-0.348455
-0.252422
-0.283231
-0.308509
-0.329047
-0.345595
-0.358758
-0.368947
-0.376394
-0.381224
-0.383448
-0.382871
-0.351529
-0.334891
-0.325349
-0.318175
-0.312095
-0.305965
-0.297253
-0.282121
-0.2688
-0.38109
-0.353037
-0.337991
-0.329114
-0.322142
-0.315953
-0.309717
-0.301734
-0.289888
-0.282268
-0.378371
-0.353458
-0.340005
-0.331924
-0.325457
-0.319683
-0.31402
-0.307438
-0.299119
-0.295305
-0.375264
-0.353263
-0.341327
-0.334045
-0.328124
-0.322809
-0.317659
-0.311984
-0.305463
-0.302747
-0.372376
-0.352962
-0.342395
-0.335847
-0.330439
-0.325561
-0.320885
-0.315941
-0.31059
-0.308107
-0.370273
-0.353063
-0.343659
-0.337711
-0.332699
-0.328135
-0.323778
-0.319304
-0.314657
-0.312072
-0.369501
-0.354069
-0.345568
-0.340028
-0.335227
-0.330785
-0.32653
-0.32224
-0.317909
-0.315054
-0.370606
-0.356472
-0.348569
-0.343197
-0.33838
-0.333834
-0.329451
-0.325083
-0.320761
-0.317551
-0.374118
-0.360746
-0.35309
-0.347612
-0.34252
-0.337625
-0.332877
-0.328185
-0.323605
-0.319996
-0.380444
-0.367309
-0.359535
-0.353645
-0.347992
-0.342479
-0.33712
-0.331857
-0.326766
-0.322722
-0.31735
-0.264265
-0.232365
-0.189644
-0.156511
-0.125977
-0.101646
-0.0816724
-0.0658284
-0.0531799
-0.0429068
-0.0343541
-0.0273748
-0.0211722
-0.0167747
-0.0125219
-0.0101667
-0.00709346
-0.00424968
0.000660032
-0.322883
-0.265742
-0.233619
-0.190459
-0.157097
-0.126517
-0.102172
-0.0822402
-0.0664125
-0.0537434
-0.0433662
-0.034619
-0.0274277
-0.0209663
-0.0165294
-0.0123755
-0.0103188
-0.007672
-0.00454779
0.000645146
-0.330386
-0.267971
-0.23553
-0.191886
-0.158168
-0.12747
-0.103013
-0.0830436
-0.067163
-0.0544224
-0.0439089
-0.0349527
-0.027543
-0.0208251
-0.016338
-0.0122679
-0.0104816
-0.00822795
-0.00482949
0.000620768
-0.339715
-0.270984
-0.238039
-0.193914
-0.159725
-0.128838
-0.104173
-0.0840831
-0.0680792
-0.0552156
-0.0445343
-0.035357
-0.027725
-0.0207554
-0.0162062
-0.012202
-0.0106536
-0.00875509
-0.00509257
0.000587143
-0.350615
-0.274842
-0.241069
-0.196516
-0.161756
-0.130613
-0.105648
-0.0853559
-0.0691589
-0.0561211
-0.0452423
-0.0358333
-0.0279761
-0.0207612
-0.0161367
-0.0121788
-0.0108326
-0.00924967
-0.0053367
0.000544852
-0.362688
-0.279627
-0.244534
-0.199631
-0.164225
-0.132768
-0.107421
-0.0868491
-0.0703936
-0.0571336
-0.04603
-0.0363804
-0.0282968
-0.0208439
-0.0161303
-0.0121981
-0.0110164
-0.00970854
-0.0055615
0.000494618
-0.375526
-0.285647
-0.248498
-0.20327
-0.167145
-0.135309
-0.109498
-0.0885672
-0.0717871
-0.0582565
-0.0469012
-0.0370025
-0.0286915
-0.0210078
-0.0161896
-0.0122603
-0.0112028
-0.0101287
-0.0057672
0.000437082
-0.388879
-0.29385
-0.253531
-0.207788
-0.170786
-0.138433
-0.112028
-0.0906162
-0.0734147
-0.059543
-0.0478953
-0.0377294
-0.0291842
-0.0212716
-0.0163264
-0.0123701
-0.0113899
-0.0105064
-0.00595445
0.000372467
-0.400231
-0.304397
-0.25998
-0.213424
-0.175321
-0.142279
-0.115122
-0.0930844
-0.0753432
-0.0610414
-0.049044
-0.0385785
-0.0297812
-0.0216334
-0.0165377
-0.0125258
-0.0115795
-0.0108474
-0.00612652
0.000302521
-0.398334
-0.311235
-0.264519
-0.217648
-0.178788
-0.145355
-0.117691
-0.095202
-0.0770395
-0.06238
-0.0500683
-0.0393238
-0.0302843
-0.0219171
-0.0166983
-0.0126639
-0.0117736
-0.0111946
-0.00629134
0.000236687
-0.372632
-0.309098
-0.264231
-0.218333
-0.179544
-0.146427
-0.118853
-0.0963882
-0.0781577
-0.063379
-0.0508752
-0.0398976
-0.0306009
-0.0219853
-0.0166741
-0.0127273
-0.0120339
-0.0117448
-0.00652778
0.000155935
-0.356114
-0.30368
-0.25976
-0.216353
-0.179103
-0.147239
-0.120302
-0.0980832
-0.0798293
-0.0648672
-0.0521133
-0.0408861
-0.0313409
-0.022569
-0.0171229
-0.0131614
-0.0124394
-0.0121781
-0.00668888
2.34317e-07
-0.33682
-0.292092
-0.250237
-0.211061
-0.176877
-0.147089
-0.121328
-0.0996559
-0.0815426
-0.0664673
-0.0535027
-0.0420639
-0.0323055
-0.0234435
-0.017838
-0.0138024
-0.0128956
-0.0124778
-0.00678783
-0.00020513
-0.307083
-0.273259
-0.236426
-0.202901
-0.173061
-0.146136
-0.122057
-0.101223
-0.0834123
-0.0682997
-0.05516
-0.043529
-0.0335635
-0.0246314
-0.0188081
-0.0146318
-0.0133871
-0.0126569
-0.00684921
-0.000462448
-0.268272
-0.247707
-0.219041
-0.192061
-0.167385
-0.144087
-0.122273
-0.102655
-0.0853741
-0.070352
-0.0571067
-0.0453221
-0.0351643
-0.0261742
-0.0200621
-0.0156547
-0.0138968
-0.0126912
-0.00687844
-0.00076941
-0.226828
-0.218169
-0.199213
-0.17922
-0.159929
-0.140715
-0.121689
-0.103705
-0.0872417
-0.0724986
-0.0592626
-0.0473931
-0.0370736
-0.0280311
-0.0215668
-0.0168318
-0.0144037
-0.0125869
-0.00689196
-0.00111194
-0.188823
-0.188463
-0.178611
-0.165494
-0.151343
-0.136193
-0.120196
-0.104172
-0.0888018
-0.0745464
-0.0614586
-0.0495928
-0.0391548
-0.030059
-0.0232098
-0.0180761
-0.014896
-0.0123975
-0.00691482
-0.00146178
-0.157659
-0.162113
-0.1593
-0.152219
-0.142635
-0.131116
-0.117999
-0.104017
-0.0898961
-0.0762842
-0.0634624
-0.051682
-0.0411742
-0.0320239
-0.0248078
-0.019262
-0.0153664
-0.012207
-0.00696641
-0.00177914
-0.135059
-0.141876
-0.143629
-0.141062
-0.135085
-0.126429
-0.11565
-0.103445
-0.0905002
-0.0775498
-0.0650371
-0.0533822
-0.0428457
-0.0336433
-0.0261336
-0.020234
-0.0157819
-0.0120866
-0.00704677
-0.00202258
-0.122388
-0.130126
-0.134165
-0.13413
-0.130303
-0.123364
-0.113994
-0.102903
-0.090739
-0.0782506
-0.0659684
-0.0544105
-0.0438696
-0.0346266
-0.0269434
-0.02082
-0.0160534
-0.0120438
-0.00712357
-0.00216151
-0.436695
-0.449334
-0.456623
-0.459085
-0.457583
-0.45342
-0.44847
-0.445349
-0.449102
-0.471584
-0.357358
-0.370752
-0.381182
-0.389155
-0.395359
-0.400629
-0.405853
-0.411748
-0.418447
-0.431456
-0.292408
-0.30543
-0.316906
-0.327026
-0.335941
-0.343733
-0.350432
-0.356178
-0.361015
-0.370644
-0.237314
-0.248874
-0.259377
-0.268867
-0.277403
-0.28508
-0.292074
-0.298695
-0.304992
-0.313436
-0.191439
-0.201459
-0.210794
-0.219482
-0.227575
-0.235128
-0.242194
-0.248824
-0.254947
-0.261295
-0.154234
-0.162821
-0.170933
-0.178576
-0.185757
-0.192488
-0.198777
-0.204646
-0.210108
-0.215268
-0.124787
-0.13208
-0.139015
-0.145584
-0.151788
-0.157628
-0.163109
-0.168238
-0.173018
-0.177407
-0.102548
-0.108791
-0.114749
-0.12041
-0.125767
-0.130816
-0.135554
-0.139983
-0.144102
-0.147886
-0.0870914
-0.092558
-0.097785
-0.10276
-0.107472
-0.111917
-0.116089
-0.119987
-0.123611
-0.126959
-0.0787036
-0.0836803
-0.0884445
-0.0929864
-0.0972989
-0.101377
-0.105217
-0.108818
-0.112181
-0.115307
-0.0120054
-0.0761128
-0.138891
-0.193605
-0.243425
-0.288966
-0.329549
-0.364765
-0.394432
-0.418426
-0.0297901
-0.0794147
-0.127089
-0.167589
-0.2042
-0.238251
-0.269217
-0.296646
-0.320448
-0.340658
-0.0408136
-0.0805033
-0.115671
-0.14545
-0.172502
-0.197816
-0.22112
-0.242152
-0.260943
-0.277642
-0.0457325
-0.0765501
-0.101428
-0.122599
-0.142492
-0.161492
-0.179287
-0.195711
-0.210801
-0.224644
-0.0451409
-0.0679865
-0.0855229
-0.100729
-0.115584
-0.130127
-0.143983
-0.157013
-0.16924
-0.180707
-0.0404394
-0.0569163
-0.0696953
-0.0811688
-0.092645
-0.104054
-0.115078
-0.125598
-0.135622
-0.145167
-0.034179
-0.0461346
-0.0559038
-0.0650016
-0.0741641
-0.0833151
-0.0922443
-0.100865
-0.109166
-0.117144
-0.0281779
-0.0371562
-0.0450048
-0.0525273
-0.0600899
-0.0676391
-0.0750524
-0.0822689
-0.0892681
-0.0960342
-0.0234301
-0.0306116
-0.0372892
-0.0438027
-0.0503152
-0.0567973
-0.0631817
-0.0694258
-0.0755057
-0.0814011
-0.0206346
-0.0270132
-0.0331797
-0.0392206
-0.0452058
-0.0511254
-0.0569433
-0.0626295
-0.068163
-0.0735264
0.219954
0.220906
0.223332
0.226638
0.231152
0.234497
0.237044
0.227292
0.203677
0.0989142
0.21166
0.212173
0.213542
0.215117
0.216804
0.216097
0.212206
0.194191
0.157595
0.0592603
0.201766
0.201818
0.202051
0.201766
0.200551
0.195943
0.186475
0.163267
0.121851
0.0403149
0.190146
0.189692
0.18871
0.1865
0.182398
0.174269
0.160211
0.134383
0.0918817
0.0236729
0.176855
0.175889
0.173719
0.169695
0.163021
0.152081
0.134859
0.108215
0.0671765
0.00973037
0.162204
0.160774
0.157564
0.152019
0.143359
0.130517
0.11172
0.0856272
0.0482965
0.000788288
0.146878
0.145077
0.141083
0.134448
0.124544
0.110757
0.0918215
0.0673664
0.0349938
-0.00360113
0.132037
0.129992
0.125525
0.118291
0.107875
0.0939826
0.0759109
0.0537048
0.0262522
-0.00508531
0.119414
0.117253
0.112599
0.105188
0.0947938
0.0813251
0.0645005
0.0444975
0.020972
-0.00514057
0.111442
0.109249
0.104573
0.0972
0.0870118
0.0740168
0.0581512
0.0396181
0.01841
-0.00479554
0.255508
0.257558
0.263173
0.271906
0.285572
0.303709
0.33086
0.365837
0.418454
0.485784
0.253001
0.254979
0.260405
0.268814
0.281988
0.29932
0.325262
0.358151
0.407174
0.468425
0.250262
0.252164
0.257382
0.265428
0.278043
0.294432
0.318951
0.349217
0.393772
0.446792
0.247304
0.249127
0.254118
0.261768
0.27376
0.289079
0.311973
0.33909
0.378388
0.420994
0.244139
0.245883
0.250633
0.257856
0.269163
0.283296
0.304372
0.327833
0.36119
0.391135
0.240784
0.24245
0.246945
0.253717
0.264279
0.277123
0.296193
0.315523
0.342355
0.357287
0.237254
0.238849
0.243083
0.249388
0.259157
0.270634
0.287517
0.302301
0.322112
0.319538
0.23357
0.23511
0.239094
0.244938
0.253897
0.263981
0.278539
0.288449
0.300773
0.277898
0.229745
0.231243
0.234981
0.240368
0.248491
0.25716
0.269223
0.273961
0.278126
0.231237
0.225766
0.227152
0.230517
0.235271
0.242257
0.249163
0.258069
0.257184
0.251747
0.1778
0.266855
0.269266
0.275379
0.285057
0.29959
0.31847
0.344857
0.373441
0.41125
0.421104
0.266817
0.269239
0.275473
0.285314
0.300234
0.319753
0.347627
0.379118
0.422956
0.449253
0.266547
0.268943
0.275187
0.285018
0.300013
0.319721
0.34826
0.381637
0.429515
0.469388
0.266044
0.268416
0.274658
0.284471
0.299521
0.3194
0.348495
0.383567
0.434915
0.485694
0.2653
0.267646
0.273875
0.283656
0.29873
0.31874
0.34826
0.384754
0.438945
0.498342
0.264306
0.26662
0.272813
0.282527
0.297556
0.317589
0.347311
0.3848
0.441028
0.50694
0.263058
0.265333
0.271463
0.281067
0.295974
0.315903
0.345585
0.383591
0.44099
0.511364
0.261552
0.263782
0.269821
0.279273
0.293982
0.313675
0.343078
0.381108
0.438762
0.511532
0.25979
0.261967
0.26789
0.277145
0.291581
0.310898
0.339787
0.377327
0.43428
0.507355
0.257773
0.25989
0.265671
0.274687
0.288774
0.307574
0.33571
0.372235
0.427508
0.498775
0.221103
0.219696
0.216683
0.211869
0.205046
0.195996
0.184419
0.170129
0.152794
0.13256
0.226106
0.224892
0.222258
0.217967
0.211721
0.203189
0.191899
0.177507
0.159411
0.137665
0.233598
0.232729
0.2308
0.22752
0.222474
0.215125
0.204727
0.190573
0.17157
0.147465
0.241695
0.241296
0.240364
0.238567
0.235403
0.230076
0.221546
0.208469
0.18909
0.162306
0.249185
0.249332
0.249602
0.249659
0.248989
0.246547
0.241105
0.230364
0.211909
0.182684
0.255417
0.256127
0.257685
0.259792
0.262035
0.263186
0.262062
0.255158
0.239704
0.208958
0.260162
0.261398
0.264214
0.268376
0.273689
0.278869
0.283075
0.281508
0.271595
0.240875
0.263463
0.265154
0.26911
0.275174
0.283457
0.292782
0.302935
0.308062
0.306138
0.276781
0.265514
0.267565
0.272486
0.280179
0.291111
0.304352
0.320532
0.333472
0.341874
0.314938
0.266572
0.26887
0.274533
0.283477
0.296568
0.313155
0.334997
0.356378
0.378795
0.361682
0.11796
0.111802
0.105485
0.0991264
0.0927061
0.0862115
0.0796584
0.0730726
0.066478
0.0598961
0.121503
0.114636
0.107581
0.100547
0.0934561
0.0862576
0.0789665
0.0716207
0.0642537
0.0568934
0.128635
0.120255
0.111544
0.103063
0.0946376
0.0861051
0.0774611
0.0687604
0.0600498
0.0513598
0.13995
0.129234
0.117844
0.107098
0.0966619
0.0861502
0.0755085
0.0648202
0.0541522
0.0435352
0.156245
0.142304
0.127
0.113027
0.0998228
0.0866118
0.0732495
0.0598697
0.0465708
0.0333772
0.178441
0.160353
0.139645
0.121299
0.104451
0.0877091
0.0708018
0.0539522
0.0373002
0.020851
0.20744
0.184424
0.156624
0.132583
0.111036
0.0897161
0.068261
0.0470454
0.0262418
0.00581376
0.243258
0.214665
0.178172
0.147248
0.119794
0.0926027
0.0654569
0.0389277
0.013166
-0.011926
0.285789
0.250586
0.204751
0.16631
0.13145
0.0967885
0.0626612
0.0297512
-0.00179849
-0.0320089
0.333586
0.289796
0.23609
0.188895
0.144019
0.0999718
0.0576
0.017432
-0.0203268
-0.0555013
0.053347
0.0468499
0.040423
0.0340832
0.0278458
0.0217249
0.0157328
0.00988077
0.00417858
-0.0013646
0.0495655
0.0422954
0.0351078
0.0280256
0.0210698
0.0142595
0.00761129
0.00113976
-0.00514267
-0.0112022
0.0427164
0.034145
0.025671
0.0173179
0.00910699
0.0010572
-0.00681482
-0.014495
-0.0219729
-0.0291622
0.0329888
0.0225337
0.0121918
0.00198322
-0.00807494
-0.0179683
-0.0276847
-0.0372143
-0.0465568
-0.0555819
0.0202926
0.00732506
-0.0055125
-0.0182084
-0.0307541
-0.0431437
-0.0553768
-0.0674582
-0.0794221
-0.0913134
0.00458007
-0.0115252
-0.0274727
-0.0432768
-0.0589604
-0.0745499
-0.09007
-0.105529
-0.120991
-0.137158
-0.0142969
-0.0341195
-0.0536733
-0.0729863
-0.0921084
-0.111125
-0.130166
-0.149348
-0.169047
-0.190884
-0.036453
-0.0604949
-0.0841255
-0.107403
-0.130359
-0.153008
-0.175394
-0.197611
-0.22093
-0.24753
-0.0609133
-0.0885953
-0.115241
-0.141132
-0.166622
-0.192096
-0.217902
-0.244372
-0.273724
-0.305066
-0.0879687
-0.117709
-0.144901
-0.169957
-0.193556
-0.216643
-0.240326
-0.266092
-0.299573
-0.34276
-0.01449
-0.0332319
-0.049531
-0.0622592
-0.0707223
-0.0747856
-0.0748054
-0.0714975
-0.0657853
-0.0586641
-0.0509827
-0.0434976
-0.0363798
-0.0298878
-0.0233718
-0.016878
-0.0103082
-0.00417368
-0.00108523
-0.000797449
-0.0258879
-0.0453629
-0.0610337
-0.0723018
-0.0788782
-0.0808938
-0.0789417
-0.0739275
-0.0668955
-0.058881
-0.050702
-0.0430624
-0.0359862
-0.0296764
-0.0232392
-0.0167008
-0.00993586
-0.00338621
-0.000734503
-0.000891406
-0.0466393
-0.066904
-0.0809601
-0.0893128
-0.0923566
-0.0907134
-0.0853875
-0.0775501
-0.0683959
-0.0589856
-0.0500678
-0.0422421
-0.0352997
-0.0293441
-0.0230893
-0.0165105
-0.00945158
-0.00218723
-0.000217448
-0.000969383
-0.0761546
-0.0963349
-0.107377
-0.11113
-0.108954
-0.102298
-0.0926376
-0.0813402
-0.0696986
-0.0587282
-0.0490499
-0.0411066
-0.0344128
-0.028952
-0.0229747
-0.0164029
-0.00904578
-0.000946132
0.000281342
-0.000950698
-0.112963
-0.131435
-0.138106
-0.13543
-0.126478
-0.113918
-0.0994958
-0.0845999
-0.0705173
-0.0581029
-0.0477866
-0.0398158
-0.033435
-0.0285126
-0.0228703
-0.0163739
-0.00882783
2.07512e-05
0.000623297
-0.000817984
-0.153172
-0.168509
-0.169964
-0.159199
-0.142638
-0.124085
-0.105113
-0.0869817
-0.0708454
-0.0572837
-0.046504
-0.038555
-0.0324649
-0.0280124
-0.0227153
-0.0163613
-0.00881074
0.000544882
0.000743495
-0.000608567
-0.190684
-0.203159
-0.198951
-0.179322
-0.155647
-0.131866
-0.109114
-0.0884706
-0.0708418
-0.0564846
-0.0454005
-0.0374694
-0.031582
-0.0274548
-0.0224691
-0.0163008
-0.00893635
0.000611862
0.000641289
-0.000374177
-0.221224
-0.232275
-0.221932
-0.194199
-0.165
-0.137183
-0.111667
-0.0893085
-0.0707192
-0.0558653
-0.0445874
-0.0366369
-0.0308432
-0.0268757
-0.0221375
-0.0161669
-0.00912864
0.00031287
0.000363954
-0.000152284
-0.247177
-0.255005
-0.238007
-0.20417
-0.17122
-0.140501
-0.113156
-0.0897322
-0.0705809
-0.0554462
-0.0440487
-0.0360435
-0.0302547
-0.0263089
-0.0217482
-0.0159664
-0.00932941
-0.000220241
-2.05879e-05
4.0671e-05
-0.275861
-0.270794
-0.246924
-0.209286
-0.174217
-0.141731
-0.113462
-0.0895787
-0.0702586
-0.0550822
-0.043673
-0.0356061
-0.0297533
-0.0256944
-0.0212422
-0.0156474
-0.00948531
-0.000911401
-0.000488285
0.000206444
-0.304407
-0.274987
-0.24743
-0.20887
-0.173673
-0.140915
-0.112722
-0.0890157
-0.0699243
-0.0549433
-0.0436127
-0.0354357
-0.0294063
-0.025031
-0.0205842
-0.0151659
-0.00954267
-0.00168635
-0.00100559
0.000331249
-0.318127
-0.275542
-0.246004
-0.206322
-0.171104
-0.138421
-0.110654
-0.0874188
-0.0687851
-0.0541797
-0.0431006
-0.0350228
-0.0290143
-0.0245464
-0.0201467
-0.0148461
-0.00953669
-0.00213757
-0.00132394
0.000400961
-0.321707
-0.273741
-0.243363
-0.202756
-0.167773
-0.135417
-0.108268
-0.0856328
-0.0675442
-0.0533682
-0.0425788
-0.0346296
-0.0286615
-0.0241177
-0.019752
-0.0145511
-0.00952208
-0.00256433
-0.00162449
0.000458747
-0.321003
-0.271434
-0.240793
-0.19963
-0.164988
-0.132972
-0.106383
-0.0842667
-0.0666399
-0.0528156
-0.0422427
-0.0343539
-0.0283701
-0.023705
-0.0193591
-0.0142625
-0.00953445
-0.00303953
-0.00193944
0.000510631
-0.31894
-0.269217
-0.238385
-0.19689
-0.162636
-0.130948
-0.104865
-0.083208
-0.0659828
-0.0524541
-0.0420416
-0.0341587
-0.0281133
-0.023289
-0.0189556
-0.0139737
-0.00957116
-0.00356174
-0.00226808
0.000556473
-0.316384
-0.267183
-0.236152
-0.194458
-0.160594
-0.129224
-0.103607
-0.082371
-0.0655071
-0.0522355
-0.0419432
-0.034027
-0.0278866
-0.0228758
-0.0185492
-0.0136891
-0.00962727
-0.00411697
-0.00260384
0.000595078
-0.313997
-0.265453
-0.234237
-0.192417
-0.158904
-0.127821
-0.10262
-0.0817583
-0.0652112
-0.0521563
-0.041945
-0.0339599
-0.0276954
-0.0224752
-0.0181491
-0.0134145
-0.00970155
-0.00469603
-0.00294219
0.000625711
-0.312447
-0.264186
-0.232801
-0.190863
-0.157622
-0.126779
-0.101923
-0.0813815
-0.0650991
-0.0522167
-0.0420464
-0.0339592
-0.0275444
-0.0220957
-0.0177631
-0.0131552
-0.00979363
-0.00529153
-0.0032796
0.00064791
-0.31227
-0.263515
-0.231965
-0.18986
-0.156784
-0.126116
-0.101525
-0.0812423
-0.0651679
-0.0524116
-0.0422436
-0.0340248
-0.0274378
-0.021746
-0.0173997
-0.0129166
-0.00990261
-0.00589512
-0.00361232
0.000661208
-0.313834
-0.263528
-0.23181
-0.189447
-0.156409
-0.125846
-0.101432
-0.0813396
-0.0654124
-0.0527345
-0.0425316
-0.0341563
-0.0273797
-0.021435
-0.0170674
-0.0127038
-0.0100276
-0.00649853
-0.00393671
0.000665362
)
;

boundaryField
{
    inlet
    {
        type            freestreamPressure;
        freestreamValue uniform 0;
        supersonic      false;
        value           nonuniform List<scalar> 
40
(
0.219954
0.21166
0.201766
0.190146
0.176855
0.162204
0.146878
0.132037
0.119414
0.111442
0.255508
0.253001
0.250262
0.247304
0.244139
0.240784
0.237254
0.23357
0.229745
0.225766
0.266855
0.266817
0.266547
0.266044
0.2653
0.264306
0.263058
0.261552
0.25979
0.257773
0.221103
0.226106
0.233598
0.241695
0.249185
0.255417
0.260162
0.263463
0.265514
0.266572
)
;
    }
    outlet
    {
        type            freestreamPressure;
        freestreamValue uniform 0;
        supersonic      false;
        value           nonuniform List<scalar> 
40
(
3.83581e-08
5.13391e-11
-3.80359e-08
-6.79204e-08
-8.21632e-08
-7.72343e-08
-5.695e-08
-3.15379e-08
-1.14013e-08
-1.22682e-09
1.58275e-07
1.64677e-07
1.66102e-07
1.62335e-07
1.5358e-07
1.40371e-07
1.23447e-07
1.03578e-07
8.20213e-08
6.19762e-08
1.48308e-08
2.3497e-08
3.42884e-08
4.75281e-08
6.30352e-08
8.02512e-08
9.83694e-08
1.16385e-07
1.33139e-07
1.47473e-07
-4.75132e-12
-1.27193e-10
-6.94432e-10
-1.40207e-09
-1.12494e-09
-2.00076e-10
-1.11718e-10
-6.30693e-10
5.58594e-10
5.99553e-09
)
;
    }
    top
    {
        type            symmetryPlane;
    }
    bottom
    {
        type            symmetryPlane;
    }
    cylinder
    {
        type            zeroGradient;
    }
    frontandback
    {
        type            empty;
    }
}


// ************************************************************************* //
