/*--------------------------------*- C++ -*----------------------------------*\
| =========                 |                                                 |
| \\      /  F ield         | OpenFOAM: The Open Source CFD Toolbox           |
|  \\    /   O peration     | Version:  v1912                                 |
|   \\  /    A nd           | Website:  www.openfoam.com                      |
|    \\/     M anipulation  |                                                 |
\*---------------------------------------------------------------------------*/
FoamFile
{
    version     2.0;
    format      ascii;
    class       volVectorField;
    location    "25";
    object      U;
}
// * * * * * * * * * * * * * * * * * * * * * * * * * * * * * * * * * * * * * //

dimensions      [0 1 -1 0 0 0 0];


internalField   nonuniform List<vector> 
2400
(
(0.0178394 -0.434957 -8.89674e-21)
(0.0055113 -0.339084 8.57588e-23)
(-0.00388353 -0.26692 2.83283e-21)
(-0.0109436 -0.212855 -5.34221e-21)
(-0.0155588 -0.172238 0)
(-0.0178154 -0.141437 4.70334e-21)
(-0.0181607 -0.117712 0)
(-0.0171047 -0.0990319 4.08201e-21)
(-0.0150989 -0.0839172 -7.76923e-21)
(-0.0130869 -0.0713126 8.08747e-21)
(0.0514882 -0.428581 5.99788e-21)
(0.0320269 -0.331429 3.89602e-22)
(0.0184392 -0.260094 2.54711e-22)
(0.00932215 -0.207941 2.70122e-20)
(0.00422364 -0.169625 -1.02598e-20)
(0.00261935 -0.141068 -4.70325e-21)
(0.00372554 -0.119247 1.76545e-20)
(0.0067852 -0.101941 -1.6919e-20)
(0.0111888 -0.0875143 0)
(0.0157267 -0.0748695 -1.62718e-20)
(0.0843469 -0.420002 2.60883e-20)
(0.0580331 -0.322947 2.63795e-20)
(0.0411946 -0.253459 -1.21487e-20)
(0.0312507 -0.203986 2.28606e-20)
(0.0270429 -0.168542 2.12963e-20)
(0.0275277 -0.142654 1.98375e-20)
(0.0315438 -0.123059 0)
(0.0380826 -0.107346 1.72573e-20)
(0.0463718 -0.09369 1.61222e-20)
(0.054761 -0.0809425 1.66478e-20)
(0.116382 -0.409464 -5.36266e-20)
(0.0838221 -0.314121 2.30287e-22)
(0.0649283 -0.24754 -5.01152e-20)
(0.0555597 -0.201472 4.76106e-20)
(0.0537276 -0.169383 -4.32876e-20)
(0.0577875 -0.146507 -1.9837e-20)
(0.0661634 -0.129407 3.69522e-20)
(0.077587 -0.1155 -5.26693e-20)
(0.0911329 -0.102729 -4.83426e-20)
(0.104631 -0.089854 1.72071e-20)
(0.14762 -0.397226 -7.9687e-22)
(0.109831 -0.305312 0)
(0.0904228 -0.242706 -1.14886e-21)
(0.0832495 -0.200634 -2.56696e-20)
(0.0854085 -0.172206 -6.89721e-20)
(0.0945804 -0.15251 -2.12935e-20)
(0.108746 -0.138039 0)
(0.126383 -0.126084 0)
(0.146443 -0.114307 0)
(0.166154 -0.101325 0)
(0.178239 -0.383555 6.26417e-20)
(0.136679 -0.296789 -9.1723e-20)
(0.118633 -0.239106 1.67178e-19)
(0.115574 -0.201403 -7.99181e-20)
(0.12348 -0.176679 7.147e-20)
(0.139343 -0.160049 -2.31352e-20)
(0.160686 -0.14809 4.0807e-20)
(0.185744 -0.138069 -3.74725e-20)
(0.213406 -0.127362 0)
(0.24024 -0.11441 3.46138e-20)
(0.208489 -0.368584 -6.26423e-20)
(0.165246 -0.288729 6.21783e-20)
(0.150718 -0.236705 3.63464e-21)
(0.153922 -0.203451 -3.02505e-22)
(0.169483 -0.182113 2.31566e-21)
(0.193652 -0.168033 9.09936e-20)
(0.223484 -0.158071 -1.16308e-22)
(0.256992 -0.149664 3.40656e-20)
(0.293105 -0.139997 -3.60456e-20)
(0.327752 -0.127344 3.48288e-20)
(0.238556 -0.352407 1.41293e-19)
(0.196416 -0.281205 -1.06852e-19)
(0.187967 -0.235296 4.10245e-21)
(0.199756 -0.206209 0)
(0.224949 -0.18752 5.39212e-20)
(0.259005 -0.174978 -4.65652e-20)
(0.298481 -0.165936 -4.45713e-20)
(0.341175 -0.15828 1.56185e-19)
(0.386237 -0.149252 -3.88277e-20)
(0.429221 -0.137133 -1.45582e-19)
(0.268729 -0.335187 -1.88669e-19)
(0.231067 -0.274083 1.48048e-19)
(0.231604 -0.234416 4.5671e-21)
(0.254404 -0.208899 0)
(0.291192 -0.19176 3.36609e-21)
(0.336598 -0.179234 -5.19215e-20)
(0.386598 -0.169243 9.15964e-20)
(0.438653 -0.160284 3.92657e-20)
(0.492284 -0.149955 -7.64106e-20)
(0.543594 -0.137442 0)
(0.299411 -0.316945 7.84275e-20)
(0.270034 -0.266957 6.33951e-22)
(0.2826 -0.233391 -7.35831e-20)
(0.318837 -0.210698 -3.567e-21)
(0.369186 -0.193941 -1.18061e-19)
(0.42756 -0.179814 5.192e-20)
(0.489425 -0.166579 -1.4088e-19)
(0.551697 -0.152973 1.73666e-19)
(0.613462 -0.137074 -8.03071e-20)
(0.671748 -0.120926 0)
(0.617328 -0.00975243 2.54473e-20)
(0.590839 -0.0556489 -1.71671e-20)
(0.561234 -0.0977047 -6.5221e-20)
(0.529464 -0.135879 9.72375e-20)
(0.496366 -0.170281 6.11755e-20)
(0.462659 -0.201153 0)
(0.428916 -0.228843 0)
(0.395549 -0.253775 -1.47483e-19)
(0.36283 -0.276431 2.37427e-19)
(0.330866 -0.297335 -9.14824e-20)
(0.832459 0.017007 -7.16877e-22)
(0.779705 -0.0415046 -8.09279e-22)
(0.721343 -0.0925575 -6.10394e-20)
(0.659538 -0.135805 3.30107e-21)
(0.596344 -0.171315 0)
(0.533625 -0.199543 1.62225e-19)
(0.472961 -0.221281 -1.0833e-19)
(0.415589 -0.237594 1.4666e-19)
(0.36238 -0.249748 -1.83995e-19)
(0.313826 -0.259118 5.67349e-21)
(1.01791 0.0669225 -7.6382e-21)
(0.954483 -0.000737546 -2.29901e-21)
(0.882141 -0.0600773 2.94242e-20)
(0.803558 -0.110166 1.09641e-19)
(0.721482 -0.150615 -5.06681e-20)
(0.638581 -0.181585 -2.44897e-19)
(0.557281 -0.203771 5.62742e-21)
(0.479641 -0.218351 5.69065e-21)
(0.407269 -0.226911 5.58921e-21)
(0.341324 -0.231314 8.4457e-20)
(1.16784 0.116925 1.28409e-20)
(1.1037 0.0441982 -6.40772e-20)
(1.0275 -0.0208866 -4.94549e-20)
(0.94186 -0.0768354 -9.58362e-20)
(0.849726 -0.122686 5.14674e-20)
(0.754179 -0.158079 1.33439e-19)
(0.658221 -0.183308 -4.92669e-21)
(0.564579 -0.199333 0)
(0.47556 -0.207764 -7.21879e-20)
(0.393066 -0.210766 7.61355e-20)
(1.28242 0.15952 0)
(1.22382 0.0854075 2.35117e-20)
(1.1507 0.0174767 -4.38358e-20)
(1.06523 -0.0423692 8.87948e-20)
(0.97014 -0.092647 1.27439e-19)
(0.868509 -0.132421 -1.18751e-19)
(0.763573 -0.161429 -4.82451e-22)
(0.658453 -0.180204 -6.94912e-20)
(0.555941 -0.190167 1.35041e-19)
(0.458547 -0.193707 6.4973e-20)
(1.36523 0.192923 -9.85394e-21)
(1.31564 0.120281 9.85352e-21)
(1.25 0.0520801 -3.88074e-20)
(1.16982 -0.00956607 3.88068e-20)
(1.07727 -0.0627906 3.65453e-20)
(0.975094 -0.10613 3.34342e-20)
(0.866385 -0.138711 -1.36494e-19)
(0.754318 -0.16049 3.67642e-21)
(0.641786 -0.172523 5.92051e-20)
(0.531458 -0.177429 -5.90956e-20)
(1.42135 0.217056 0)
(1.38213 0.147827 -3.32126e-20)
(1.32633 0.081344 -3.43577e-20)
(1.25468 0.0197441 3.43569e-20)
(1.16863 -0.0348915 0)
(1.07033 -0.0806793 -6.30296e-20)
(0.96243 -0.116137 2.98305e-21)
(0.847814 -0.140522 5.70567e-20)
(0.728953 -0.154318 -1.10802e-19)
(0.607705 -0.160393 1.55479e-19)
(1.45606 0.232899 -7.13663e-21)
(1.42715 0.16817 3.18287e-20)
(1.38199 0.104728 -3.04461e-20)
(1.32058 0.0445773 3.04451e-20)
(1.24361 -0.0101562 0)
(1.1525 -0.0573075 5.69589e-20)
(1.04931 -0.0948228 -5.38903e-20)
(0.936386 -0.1211 -2.11738e-19)
(0.815263 -0.135639 -4.76932e-20)
(0.685301 -0.141317 -1.91014e-19)
(1.47411 0.242035 6.84561e-21)
(1.45459 0.182123 0)
(1.41977 0.122326 -2.70297e-20)
(1.36907 0.0644011 7.91199e-20)
(1.30251 0.0103604 2.64851e-20)
(1.22079 -0.0375126 -2.64848e-20)
(1.12537 -0.0766797 5.45631e-20)
(1.01808 -0.104491 5.38704e-20)
(0.899487 -0.118563 9.57326e-20)
(0.764463 -0.119979 8.97054e-20)
(1.47923 0.246002 -5.71788e-21)
(1.46771 0.191007 2.35083e-20)
(1.44229 0.135121 -2.49942e-20)
(1.40195 0.0797553 -2.70988e-20)
(1.34614 0.0266608 0)
(1.27495 -0.0219649 -4.54247e-20)
(1.18932 -0.0633325 -4.89723e-20)
(1.09096 -0.0938866 1.88293e-19)
(0.980588 -0.108805 0)
(0.847334 -0.103286 0)
(0.537652 0.499457 -6.00716e-20)
(0.577607 0.459917 1.01786e-19)
(0.611072 0.414881 5.53622e-21)
(0.637437 0.36553 0)
(0.656356 0.312872 0)
(0.667547 0.258011 -5.95647e-20)
(0.671022 0.20215 3.32625e-20)
(0.66709 0.146471 -6.50515e-20)
(0.656324 0.0920498 -1.72067e-20)
(0.6395 0.0397733 8.91649e-21)
(0.751974 0.673401 1.00141e-19)
(0.812375 0.6309 -1.27508e-19)
(0.863458 0.578355 2.97886e-20)
(0.903542 0.517363 -9.8128e-20)
(0.931403 0.449575 4.88331e-20)
(0.946298 0.377028 0)
(0.947904 0.301879 1.20383e-19)
(0.936401 0.226317 5.09872e-22)
(0.912497 0.152446 -6.37635e-20)
(0.877379 0.0821501 7.28855e-22)
(0.885779 0.753853 3.71334e-20)
(0.957961 0.717525 1.39149e-20)
(1.02077 0.668903 1.28949e-20)
(1.07206 0.609386 1.15811e-20)
(1.10996 0.540831 4.73014e-20)
(1.13317 0.465328 4.64544e-20)
(1.14081 0.38518 -1.05823e-19)
(1.13253 0.302841 -2.92087e-20)
(1.10862 0.220798 2.6346e-21)
(1.06997 0.141436 7.63705e-21)
(0.967308 0.77357 2.72993e-20)
(1.04536 0.745524 -3.49571e-20)
(1.11522 0.704667 0)
(1.17454 0.652143 -1.30014e-19)
(1.22113 0.58948 -4.99293e-20)
(1.25323 0.518451 1.17325e-19)
(1.26952 0.441155 9.40498e-20)
(1.26914 0.359903 -4.67548e-20)
(1.25177 0.277139 3.74679e-20)
(1.21773 0.195345 1.26578e-20)
(1.01545 0.7572 -2.38314e-20)
(1.09526 0.736897 3.72205e-20)
(1.16848 0.704354 -3.7218e-20)
(1.23264 0.660347 1.15073e-19)
(1.2855 0.605943 -9.06377e-20)
(1.32513 0.542594 -4.2081e-20)
(1.34992 0.47202 -1.11913e-21)
(1.35861 0.396196 -3.98806e-20)
(1.35037 0.31729 -2.27983e-20)
(1.32491 0.237614 0)
(1.04323 0.721656 -1.87694e-20)
(1.12225 0.707621 4.75045e-20)
(1.19614 0.682507 9.50617e-21)
(1.26241 0.646655 -8.5292e-20)
(1.31897 0.600773 1.95518e-20)
(1.36391 0.545952 2.74973e-20)
(1.39559 0.483535 3.38674e-20)
(1.41254 0.415137 -3.38655e-20)
(1.41359 0.342549 9.46405e-21)
(1.39796 0.267768 -9.46365e-21)
(1.05926 0.677621 -3.70066e-22)
(1.13636 0.668312 -3.50267e-20)
(1.20919 0.649348 2.19484e-20)
(1.27542 0.620557 7.03098e-20)
(1.33329 0.58237 -3.84216e-20)
(1.3812 0.535598 0)
(1.41762 0.481304 8.0553e-20)
(1.44106 0.420786 -2.87421e-20)
(1.45018 0.355448 3.0315e-20)
(1.4439 0.286932 0)
(1.06911 0.631467 1.91406e-20)
(1.14398 0.625972 3.79987e-20)
(1.21462 0.612041 -3.90554e-21)
(1.27913 0.58901 1.35136e-20)
(1.33637 0.557206 3.13437e-20)
(1.38517 0.517315 0)
(1.42423 0.470287 -2.52257e-20)
(1.45214 0.417173 -2.44245e-20)
(1.46754 0.358993 -2.90525e-20)
(1.46923 0.297068 6.88179e-21)
(1.07687 0.587514 -5.99776e-21)
(1.14891 0.585653 -2.06176e-20)
(1.21617 0.575781 1.2421e-20)
(1.27755 0.557127 -6.81578e-20)
(1.33267 0.530216 -1.57381e-20)
(1.38081 0.495779 1.57369e-20)
(1.42087 0.454737 -1.65097e-20)
(1.45147 0.408019 -2.07882e-20)
(1.47133 0.356264 0)
(1.4793 0.300533 -1.25819e-20)
(1.08823 0.547834 0)
(1.15565 0.54765 0)
(1.21749 0.540304 -5.57151e-20)
(1.2741 0.524731 -2.2575e-20)
(1.32568 0.501634 7.2037e-20)
(1.37171 0.471801 0)
(1.41133 0.435877 5.6535e-20)
(1.44306 0.394714 -1.87929e-20)
(1.46562 0.348801 -2.06686e-20)
(1.47809 0.298934 1.14934e-20)
(0.596344 0.192206 -2.5458e-22)
(0.555674 0.207796 1.32619e-20)
(0.509073 0.226363 -7.04528e-21)
(0.455747 0.249067 0)
(0.394784 0.277405 8.18313e-21)
(0.325679 0.312929 0)
(0.24886 0.356624 -9.50063e-21)
(0.166585 0.407533 -5.37004e-21)
(0.0869737 0.4602 -2.44683e-22)
(0.0322251 0.500243 -5.37958e-21)
(0.618834 0.249824 -2.58677e-20)
(0.58001 0.27021 0)
(0.535316 0.294032 2.76606e-20)
(0.484264 0.322183 -2.88617e-20)
(0.425989 0.355678 -8.18305e-21)
(0.35997 0.3951 1.73028e-20)
(0.286525 0.439676 -2.70856e-20)
(0.207548 0.485524 -4.4234e-22)
(0.130238 0.522425 4.03225e-20)
(0.0747446 0.52832 1.09519e-20)
(0.64881 0.304634 2.34718e-20)
(0.612549 0.3296 2.22677e-20)
(0.570456 0.35844 2.39302e-20)
(0.522429 0.391738 2.56814e-20)
(0.4676 0.430029 2.74684e-20)
(0.405301 0.472932 2.9239e-20)
(0.335512 0.517944 3.09102e-20)
(0.259363 0.558346 1.75929e-20)
(0.182411 0.579407 -3.92236e-21)
(0.121392 0.552006 3.39597e-20)
(0.685897 0.355664 -6.87875e-20)
(0.652826 0.384863 1.96413e-20)
(0.613967 0.418353 2.20618e-20)
(0.569654 0.456332 -7.36697e-20)
(0.518951 0.498858 -2.7468e-20)
(0.46092 0.544611 -1.78671e-21)
(0.394981 0.589425 -6.20347e-20)
(0.321129 0.623925 5.99266e-20)
(0.242624 0.629301 -6.53702e-20)
(0.171578 0.570334 -4.946e-20)
(0.729561 0.402021 0)
(0.700192 0.435002 -1.72707e-20)
(0.665114 0.47264 0)
(0.625112 0.51467 0)
(0.579106 0.56068 -2.00505e-20)
(0.525761 0.608451 2.51567e-20)
(0.463734 0.652262 -7.16802e-20)
(0.391556 0.680345 -2.45004e-20)
(0.309638 0.670415 0)
(0.22449 0.582441 -2.42162e-20)
(0.779106 0.442938 3.80548e-20)
(0.753818 0.479154 1.72704e-20)
(0.722961 0.520309 -2.9853e-20)
(0.68775 0.565597 3.08395e-20)
(0.646866 0.61416 -1.13042e-20)
(0.598459 0.662934 5.19198e-20)
(0.540239 0.704791 2.58328e-20)
(0.468999 0.725914 -2.53657e-20)
(0.381889 0.701294 -8.9443e-21)
(0.279143 0.587631 0)
(0.833648 0.477805 3.12153e-20)
(0.812668 0.516618 7.29458e-20)
(0.786355 0.56052 -1.96517e-20)
(0.756285 0.608113 -5.80139e-20)
(0.720783 0.658133 5.32774e-20)
(0.677371 0.706746 -5.58595e-20)
(0.622658 0.745593 5.60601e-20)
(0.551503 0.759223 -1.42454e-20)
(0.457543 0.720771 2.68996e-20)
(0.334418 0.585396 0)
(0.892049 0.506277 -3.69419e-21)
(0.875454 0.54688 -2.40603e-20)
(0.853903 0.592583 -9.12356e-22)
(0.829208 0.641371 -1.39251e-20)
(0.799183 0.691624 -9.93088e-21)
(0.760613 0.738803 9.02454e-21)
(0.7089 0.773533 0)
(0.636861 0.779195 -1.48456e-20)
(0.534558 0.728017 6.66169e-21)
(0.389105 0.575444 -9.11452e-21)
(0.95285 0.52848 0)
(0.940622 0.56983 2.24328e-20)
(0.924077 0.616109 -3.83495e-20)
(0.904916 0.664769 1.88676e-20)
(0.88026 0.713885 -1.37424e-20)
(0.846135 0.758285 -9.02439e-21)
(0.79669 0.787794 -8.50687e-21)
(0.722692 0.78512 -1.51191e-20)
(0.610775 0.722577 -2.8957e-20)
(0.441989 0.557732 4.29606e-20)
(1.01251 0.541976 0)
(1.00459 0.583219 7.4644e-21)
(0.99418 0.629479 -1.11531e-20)
(0.981163 0.67722 -1.42474e-21)
(0.961839 0.724125 1.75028e-21)
(0.931662 0.764553 -1.16069e-20)
(0.883599 0.787872 1.88108e-21)
(0.806515 0.776677 8.47186e-21)
(0.684017 0.704348 5.08617e-20)
(0.491926 0.532415 -2.5905e-20)
(0.769731 -0.318274 0)
(0.740517 -0.339687 -7.59756e-20)
(0.70352 -0.359067 1.60244e-19)
(0.657947 -0.371457 -1.30031e-19)
(0.599043 -0.372157 4.83825e-20)
(0.520784 -0.353617 -4.84712e-20)
(0.415575 -0.304906 -5.61392e-20)
(0.273867 -0.211634 -6.09648e-20)
(0.0843223 -0.0555784 -5.86327e-21)
(-0.167395 0.186133 6.43977e-20)
(0.727344 -0.284938 0)
(0.696929 -0.304905 -8.54813e-20)
(0.658022 -0.32344 4.17632e-20)
(0.610748 -0.336094 9.62142e-20)
(0.551339 -0.33805 -5.06339e-20)
(0.474502 -0.321726 -1.12549e-19)
(0.373625 -0.27605 5.49821e-20)
(0.240572 -0.186144 -8.20596e-21)
(0.0663593 -0.0326398 1.37606e-19)
(-0.158695 0.209721 -1.03503e-19)
(0.687477 -0.245214 -1.3839e-21)
(0.655145 -0.26317 -5.00845e-20)
(0.614592 -0.280156 1.96598e-19)
(0.565743 -0.292115 -5.0743e-20)
(0.50555 -0.294273 -5.29024e-21)
(0.42957 -0.279235 5.81588e-20)
(0.332315 -0.236119 0)
(0.207268 -0.150091 -7.41917e-21)
(0.0481602 -0.00147449 -1.13269e-19)
(-0.149438 0.235965 7.26982e-20)
(0.652543 -0.20113 5.34672e-20)
(0.617892 -0.216316 -5.29579e-20)
(0.575465 -0.230682 5.43406e-20)
(0.524889 -0.240682 -2.70562e-21)
(0.463631 -0.241775 1.23719e-19)
(0.388053 -0.226911 -1.20598e-21)
(0.29381 -0.185681 3.7664e-21)
(0.176093 -0.103799 -6.38309e-21)
(0.0315198 0.0378278 8.84744e-20)
(-0.138797 0.264866 0)
(0.623358 -0.152629 -1.61741e-19)
(0.586369 -0.16448 2.67073e-20)
(0.542035 -0.175442 -5.49847e-20)
(0.48973 -0.182481 5.93732e-20)
(0.427315 -0.181398 -3.02559e-20)
(0.351885 -0.165649 1.05955e-19)
(0.260202 -0.125581 -1.14116e-19)
(0.149147 -0.0479707 2.06603e-19)
(0.0182176 0.0847878 -1.33319e-19)
(-0.125964 0.2962 0)
(0.600555 -0.100021 0)
(0.561479 -0.108115 -2.67078e-20)
(0.515429 -0.115084 0)
(0.461586 -0.118355 0)
(0.398128 -0.114149 -3.3862e-20)
(0.322806 -0.0965625 -1.13296e-19)
(0.233403 -0.0569628 -4.26874e-20)
(0.128379 0.0163285 4.34134e-20)
(0.00993627 0.138562 0)
(-0.110175 0.329543 4.8738e-20)
(0.58452 -0.0438491 3.00591e-20)
(0.543843 -0.0479428 -8.28271e-20)
(0.496506 -0.0504789 -3.0401e-20)
(0.441519 -0.0493434 -3.30221e-20)
(0.377343 -0.04123 -3.58916e-20)
(0.302302 -0.0209919 -7.85281e-20)
(0.215076 0.0187544 8.32616e-20)
(0.115514 0.0877109 -9.14868e-20)
(0.00817657 0.197986 -1.30527e-21)
(-0.0907484 0.364288 -2.53933e-20)
(0.575301 0.0140142 2.91974e-20)
(0.533815 0.0146246 2.80316e-20)
(0.485874 0.0170976 3.04015e-20)
(0.430342 0.0232432 3.30227e-20)
(0.36597 0.0359353 3.58922e-20)
(0.291579 0.0595018 3.90087e-20)
(0.206592 0.0999014 4.23586e-20)
(0.111986 0.164505 -2.36067e-20)
(0.0141961 0.261619 4.96282e-20)
(-0.0671275 0.399669 5.05264e-20)
(0.574485 0.0729786 2.85998e-20)
(0.532515 0.0787119 0)
(0.484335 0.0865364 -3.10666e-20)
(0.428804 0.0980954 3.24155e-20)
(0.364826 0.115837 -8.89055e-21)
(0.291569 0.143212 -1.99143e-20)
(0.209002 0.184615 5.28504e-20)
(0.1189 0.244809 8.56451e-22)
(0.0289627 0.327788 5.97573e-22)
(-0.0389063 0.434801 1.23502e-20)
(0.58154 0.132844 -7.01727e-21)
(0.539811 0.143539 -7.01056e-21)
(0.492046 0.156742 7.30839e-21)
(0.437229 0.173865 0)
(0.374369 0.196885 8.89068e-21)
(0.302853 0.228318 0)
(0.222991 0.270886 -1.04621e-20)
(0.136991 0.326547 5.67286e-21)
(0.053125 0.394646 2.80892e-22)
(-0.00583394 0.468708 -1.82583e-20)
(0.829307 -0.351694 0)
(0.879179 -0.374026 0)
(0.924998 -0.390865 1.04259e-21)
(0.966901 -0.400439 -1.69579e-20)
(1.00492 -0.40284 4.54646e-20)
(1.03876 -0.398647 0)
(1.06655 -0.38812 -3.08852e-21)
(1.08625 -0.371203 -1.42844e-21)
(1.09675 -0.348294 1.44872e-21)
(1.09643 -0.319931 1.51285e-22)
(0.793082 -0.369126 6.70763e-20)
(0.845036 -0.390856 5.75648e-20)
(0.893699 -0.406101 2.07098e-20)
(0.937759 -0.413611 1.53924e-20)
(0.976534 -0.413275 0)
(1.00935 -0.405446 0)
(1.03438 -0.391055 5.35828e-21)
(1.04997 -0.369888 -8.81206e-22)
(1.05478 -0.342642 0)
(1.04733 -0.310302 -2.08273e-21)
(0.754452 -0.38617 -1.40459e-19)
(0.80632 -0.405482 -3.28837e-20)
(0.855412 -0.417548 -9.79266e-20)
(0.899468 -0.421599 -1.44204e-20)
(0.937109 -0.417463 1.59591e-20)
(0.96714 -0.405459 0)
(0.987886 -0.386406 2.30996e-21)
(0.997783 -0.3607 -2.18889e-22)
(0.995509 -0.329326 -3.46622e-21)
(0.979926 -0.293623 1.17324e-21)
(0.708022 -0.39709 1.07543e-19)
(0.758408 -0.413778 -6.18241e-20)
(0.805859 -0.422081 2.78775e-20)
(0.847795 -0.421786 -3.4574e-21)
(0.882318 -0.412966 -1.5624e-20)
(0.907833 -0.396125 0)
(0.92272 -0.372161 -2.18192e-21)
(0.925554 -0.342016 0)
(0.915266 -0.307033 3.61689e-21)
(0.891197 -0.268887 0)
(0.647811 -0.395764 -3.5407e-20)
(0.695597 -0.409336 3.54044e-20)
(0.739649 -0.413458 2.18676e-20)
(0.77741 -0.408408 -3.7097e-20)
(0.806774 -0.394649 1.07901e-20)
(0.825995 -0.373027 4.43952e-21)
(0.833586 -0.344734 -1.2723e-21)
(0.828412 -0.311162 1.27224e-21)
(0.809831 -0.274014 -1.47894e-21)
(0.777763 -0.235248 1.4789e-21)
(0.566755 -0.374372 7.79007e-20)
(0.610342 -0.384361 -7.4878e-21)
(0.649101 -0.384266 -2.94841e-20)
(0.680665 -0.374787 -3.17901e-21)
(0.702992 -0.356855 -1.88631e-20)
(0.714469 -0.331682 8.19984e-21)
(0.713912 -0.300822 -2.99957e-21)
(0.700622 -0.266045 2.03888e-21)
(0.674493 -0.22933 -3.05258e-21)
(0.636056 -0.19278 0)
(0.456105 -0.322431 3.95393e-20)
(0.493081 -0.329094 -3.88466e-20)
(0.524311 -0.325769 0)
(0.547699 -0.31351 4.14969e-21)
(0.561527 -0.293658 2.17084e-20)
(0.564554 -0.267791 1.38656e-21)
(0.556016 -0.237739 -5.50963e-22)
(0.53574 -0.205498 2.73093e-21)
(0.504176 -0.17314 8.59695e-21)
(0.462386 -0.142705 -1.94129e-21)
(0.305032 -0.226578 4.27277e-20)
(0.332071 -0.231603 -9.01986e-21)
(0.353133 -0.227792 -8.82244e-21)
(0.36657 -0.216436 -8.43285e-21)
(0.371132 -0.199098 -3.52906e-20)
(0.366034 -0.177559 1.74234e-21)
(0.351031 -0.153724 -3.53987e-21)
(0.326445 -0.129542 -2.56819e-21)
(0.293157 -0.106905 3.26442e-22)
(0.252545 -0.0875357 1.28391e-21)
(0.100263 -0.070536 -4.08547e-21)
(0.112716 -0.0781249 -7.95347e-20)
(0.120383 -0.0794755 4.9786e-20)
(0.12218 -0.0758559 -1.58207e-20)
(0.117387 -0.0686943 2.15105e-20)
(0.10574 -0.0595596 0)
(0.0874171 -0.0500379 -1.92625e-21)
(0.0630335 -0.0416498 3.09573e-21)
(0.0335982 -0.0357641 -5.36927e-22)
(0.000430499 -0.0335252 2.18956e-22)
(-0.176372 0.164914 -4.41206e-20)
(-0.185896 0.146034 5.84341e-20)
(-0.196558 0.128844 -4.80506e-20)
(-0.208692 0.112689 1.39449e-20)
(-0.222412 0.0969241 -1.39447e-20)
(-0.237634 0.0808913 1.52596e-21)
(-0.254071 0.0639618 -5.40703e-21)
(-0.271254 0.045584 5.52323e-21)
(-0.288577 0.0253201 2.93319e-21)
(-0.305349 0.00285565 -4.41879e-21)
(1.08362 -0.286933 1.2213e-21)
(1.05702 -0.250519 -6.38843e-21)
(1.01593 -0.212344 8.84124e-21)
(0.960458 -0.174545 -2.83217e-20)
(0.891804 -0.139685 0)
(0.812164 -0.110588 2.04879e-20)
(0.724431 -0.0900478 2.47577e-20)
(0.631339 -0.0804091 1.48617e-21)
(0.531498 -0.0835982 0)
(0.413062 -0.0961973 0)
(1.0263 -0.274119 1.54588e-21)
(0.99092 -0.235745 0)
(0.941145 -0.197192 9.37548e-21)
(0.877848 -0.160792 1.01069e-20)
(0.802872 -0.129056 0)
(0.718849 -0.104436 0)
(0.62868 -0.0889975 7.83826e-20)
(0.534515 -0.0839172 -2.73497e-20)
(0.435147 -0.0890055 5.68898e-20)
(0.324698 -0.097777 5.78602e-20)
(0.950232 -0.255209 -1.61162e-21)
(0.906313 -0.216058 8.57627e-21)
(0.848861 -0.178374 1.02095e-20)
(0.779443 -0.144482 -1.02094e-20)
(0.70044 -0.116632 0)
(0.614757 -0.096729 -2.61537e-20)
(0.52527 -0.0859782 -2.83443e-20)
(0.434008 -0.084401 -4.4135e-22)
(0.340874 -0.0902404 -8.81336e-20)
(0.244482 -0.0970132 -1.20291e-19)
(0.85317 -0.229499 0)
(0.801789 -0.191039 -8.94928e-21)
(0.738455 -0.155732 0)
(0.665323 -0.125715 0)
(0.585144 -0.102823 0)
(0.500938 -0.088325 2.75686e-20)
(0.41551 -0.0826332 -5.5766e-20)
(0.330899 -0.0849469 -3.00799e-20)
(0.247944 -0.0928973 6.10481e-20)
(0.167486 -0.101294 3.16086e-20)
(0.732697 -0.196965 2.36202e-21)
(0.675917 -0.161362 -2.36196e-21)
(0.609415 -0.130498 1.201e-20)
(0.535739 -0.10615 -1.201e-20)
(0.457793 -0.0896226 -1.38632e-20)
(0.378519 -0.0815477 -1.53502e-20)
(0.300523 -0.081677 5.97362e-20)
(0.225753 -0.0887033 -3.05228e-20)
(0.155441 -0.100141 -6.50195e-20)
(0.0910211 -0.111998 3.2589e-20)
(0.58641 -0.158497 0)
(0.527371 -0.128497 5.73182e-21)
(0.461305 -0.10449 1.29995e-20)
(0.390893 -0.0877661 7.7974e-22)
(0.31894 -0.0790587 1.45238e-20)
(0.248109 -0.0784206 4.59778e-20)
(0.18066 -0.0851203 -6.34194e-20)
(0.118289 -0.0975916 3.35927e-20)
(0.0621908 -0.113463 3.48344e-20)
(0.013611 -0.12964 7.96021e-22)
(0.411908 -0.116073 -2.8691e-21)
(0.354842 -0.0948764 -9.40069e-21)
(0.293633 -0.0803338 1.41036e-20)
(0.230812 -0.0731881 -2.8371e-20)
(0.168839 -0.0736374 -4.58621e-20)
(0.109921 -0.0812834 1.59691e-20)
(0.0558541 -0.0951085 6.72098e-20)
(0.00796161 -0.113497 0)
(-0.0328214 -0.134327 3.69015e-20)
(-0.0656691 -0.155169 -3.59283e-20)
(0.206303 -0.072879 -1.53781e-21)
(0.156485 -0.0640057 -4.43045e-22)
(0.105297 -0.0615807 7.71809e-21)
(0.0548355 -0.0658302 3.22885e-20)
(0.00701501 -0.0765291 -3.40438e-20)
(-0.0365415 -0.0930094 3.45301e-22)
(-0.0745691 -0.114181 1.35049e-21)
(-0.106165 -0.138572 1.14003e-21)
(-0.130721 -0.164418 9.16785e-22)
(-0.147796 -0.189835 -3.81196e-20)
(-0.0349932 -0.0357861 -2.3752e-22)
(-0.0710455 -0.0429357 1.52937e-20)
(-0.106113 -0.0551437 1.33214e-21)
(-0.138768 -0.0722515 -3.47314e-20)
(-0.1678 -0.0938023 0)
(-0.192246 -0.119085 -2.13715e-20)
(-0.211395 -0.147167 4.06687e-20)
(-0.224765 -0.176915 -2.04224e-20)
(-0.232056 -0.207051 8.69333e-20)
(-0.233093 -0.236248 -8.69494e-20)
(-0.320819 -0.0220245 -2.30508e-21)
(-0.334264 -0.0489745 4.06086e-21)
(-0.345066 -0.0779125 1.93329e-20)
(-0.352699 -0.108552 -3.97901e-20)
(-0.356776 -0.140493 -5.01655e-22)
(-0.357042 -0.173265 4.41313e-20)
(-0.353344 -0.206346 -4.41318e-20)
(-0.345606 -0.23916 4.71857e-20)
(-0.333811 -0.271096 -1.15428e-19)
(-0.31796 -0.301538 4.63686e-20)
(-0.297972 -0.329859 4.63244e-20)
(-0.227858 -0.2633 -8.82336e-20)
(-0.157104 -0.21323 -3.93982e-20)
(-0.0896365 -0.173994 9.74358e-22)
(-0.0253657 -0.143343 1.87713e-22)
(0.0362859 -0.119925 3.35023e-20)
(0.095482 -0.102415 3.01677e-20)
(0.152438 -0.0898735 -1.15712e-19)
(0.208511 -0.0823811 5.43539e-20)
(0.263349 -0.0770646 0)
(-0.27451 -0.355173 -6.92789e-20)
(-0.216866 -0.287224 8.94277e-20)
(-0.158808 -0.233733 -3.09874e-22)
(-0.104164 -0.190324 0)
(-0.0527028 -0.15506 3.5168e-20)
(-0.00373472 -0.126543 -6.75459e-20)
(0.043126 -0.10336 6.33044e-20)
(0.0884878 -0.0844814 -8.77701e-20)
(0.133881 -0.0701182 5.55843e-20)
(0.177893 -0.0598924 0)
(-0.247984 -0.377394 2.39058e-20)
(-0.200846 -0.307578 -2.15129e-20)
(-0.153779 -0.250905 -2.02057e-22)
(-0.110269 -0.204004 0)
(-0.069776 -0.165248 3.60957e-20)
(-0.031473 -0.133328 -3.4267e-20)
(0.00517272 -0.107027 -3.18582e-20)
(0.0408222 -0.0855984 7.56843e-22)
(0.0764927 -0.0692973 -2.71865e-20)
(0.110363 -0.058108 1.17362e-19)
(-0.218862 -0.396381 -4.53818e-20)
(-0.180678 -0.32406 4.47104e-20)
(-0.143247 -0.264441 -1.44162e-22)
(-0.10948 -0.214746 7.75994e-20)
(-0.0785106 -0.173559 -7.36121e-20)
(-0.0494474 -0.139622 6.88461e-20)
(-0.0217373 -0.111831 -6.47656e-20)
(0.00517485 -0.0895356 -2.92032e-20)
(0.0319307 -0.072809 8.6347e-20)
(0.0569794 -0.0614156 3.0051e-20)
(-0.187574 -0.412011 4.53814e-20)
(-0.157289 -0.336559 -2.26598e-20)
(-0.128516 -0.274167 7.11381e-23)
(-0.103308 -0.222291 2.01049e-20)
(-0.0806329 -0.179504 5.51782e-20)
(-0.059577 -0.144489 -1.71479e-20)
(-0.0396191 -0.116098 3.26092e-20)
(-0.0203338 -0.0935706 -3.07306e-20)
(-0.00131105 -0.0766747 0)
(0.0162777 -0.0649576 -9.12913e-20)
(-0.154619 -0.424116 4.48489e-20)
(-0.131664 -0.345158 0)
(-0.110768 -0.280115 -4.16048e-20)
(-0.0930971 -0.226569 -5.85593e-20)
(-0.0776236 -0.182833 1.88883e-20)
(-0.0634386 -0.147395 -1.74313e-20)
(-0.0500788 -0.118946 0)
(-0.0372504 -0.0965228 0)
(-0.0246899 -0.0795744 0)
(-0.0132382 -0.0675043 0)
(-0.120614 -0.432671 -3.36268e-20)
(-0.104687 -0.349996 -4.47409e-20)
(-0.0909555 -0.282522 4.21348e-20)
(-0.0799459 -0.227764 -3.97911e-20)
(-0.0706437 -0.183618 4.76425e-23)
(-0.0621977 -0.148254 -1.77244e-20)
(-0.054232 -0.120125 0)
(-0.0465638 -0.098044 -1.58427e-20)
(-0.0390725 -0.0811831 1.47097e-20)
(-0.0324359 -0.0688231 -4.69661e-20)
(-0.0860395 -0.437834 2.24066e-20)
(-0.0770325 -0.351327 -2.94881e-23)
(-0.0698761 -0.281793 1.07217e-20)
(-0.0646946 -0.22631 1.98968e-20)
(-0.0605299 -0.182253 1.87701e-20)
(-0.0566492 -0.147391 1.77245e-20)
(-0.0528038 -0.119897 0)
(-0.0489399 -0.0983615 1.58429e-20)
(-0.0450796 -0.0817471 1.49902e-20)
(-0.0418537 -0.0692163 1.56627e-20)
(-0.0512693 -0.439796 5.70964e-21)
(-0.0492302 -0.349597 2.27085e-20)
(-0.0481222 -0.278492 -1.9649e-22)
(-0.0479262 -0.222831 -1.51485e-20)
(-0.0478306 -0.179369 9.61726e-21)
(-0.0472915 -0.145426 -4.53533e-21)
(-0.0462365 -0.118873 -1.68868e-20)
(-0.0447692 -0.0980817 1.61834e-20)
(-0.0430527 -0.0818491 0)
(-0.041743 -0.0692424 1.58134e-20)
(-0.0165864 -0.438784 -2.88101e-21)
(-0.0216443 -0.345335 -8.38998e-23)
(-0.0260678 -0.273293 -2.76407e-21)
(-0.0299763 -0.218076 -5.10609e-21)
(-0.03283 -0.175749 0)
(-0.0343544 -0.143154 4.53535e-21)
(-0.0347085 -0.117853 0)
(-0.0341832 -0.0980117 -4.03128e-21)
(-0.0330835 -0.0822838 3.86688e-21)
(-0.0321726 -0.0696642 -3.98488e-21)
(-0.0127058 -0.0379806 -1.7119e-21)
(-0.00441959 -0.0390007 7.58529e-22)
(0.0495879 -0.0375214 0)
(0.0960994 -0.0372056 -1.77935e-22)
(0.157522 -0.0355043 3.65652e-22)
(0.216127 -0.0319135 -2.24233e-22)
(0.276004 -0.0278576 2.09128e-22)
(0.333018 -0.024159 0)
(0.387766 -0.0225209 0)
(0.438668 -0.0227746 0)
(0.485662 -0.0264113 0)
(0.527747 -0.0300148 4.06747e-23)
(0.563707 -0.0322128 -3.79703e-23)
(0.596924 -0.0294044 -1.07878e-23)
(0.622238 -0.0121661 1.0076e-23)
(0.655137 0.00376748 -2.41361e-23)
(0.676319 0.0299352 0)
(0.721504 0.0166661 -1.32586e-24)
(0.74176 -0.0366792 1.24016e-24)
(0.767792 -0.0287027 0)
(0.0220315 -0.0401101 3.66825e-21)
(0.032017 -0.0492987 0)
(0.0886046 -0.0503208 0)
(0.134941 -0.0507372 9.33296e-22)
(0.194469 -0.0487761 -2.67851e-21)
(0.250653 -0.0441629 1.12292e-21)
(0.307762 -0.0389287 4.91391e-22)
(0.362054 -0.0339314 -3.51077e-22)
(0.414297 -0.0310257 2.13554e-22)
(0.462752 -0.0300294 -3.08355e-22)
(0.507506 -0.0324807 1.36535e-22)
(0.546994 -0.0349095 0)
(0.580312 -0.0361926 -5.9782e-23)
(0.610443 -0.0325391 1.31342e-23)
(0.632594 -0.0150478 3.98411e-23)
(0.663666 0.0012101 2.41671e-23)
(0.683633 0.027082 8.48307e-24)
(0.730265 0.0140137 5.08965e-23)
(0.751015 -0.0382886 0)
(0.773511 -0.0295718 0)
(0.0697948 -0.0443922 0)
(0.0820461 -0.0603177 -5.31089e-21)
(0.141074 -0.0631192 9.75485e-21)
(0.186528 -0.063826 -3.93751e-21)
(0.242901 -0.0614106 0)
(0.295426 -0.0557561 0)
(0.348531 -0.0493756 4.97206e-22)
(0.398969 -0.0431528 -9.28255e-22)
(0.44767 -0.0390404 -3.90217e-23)
(0.492758 -0.0368431 -3.86131e-23)
(0.534467 -0.038137 0)
(0.570697 -0.0394161 0)
(0.600862 -0.0398115 0)
(0.627495 -0.0353586 -8.481e-23)
(0.646197 -0.0177158 -5.6721e-23)
(0.675032 -0.00124044 0)
(0.69348 0.0242267 0)
(0.740937 0.0113466 -5.88857e-23)
(0.76183 -0.0397609 -3.77026e-23)
(0.780588 -0.0303205 9.57745e-25)
(0.130711 -0.0512205 9.90219e-22)
(0.145335 -0.0719588 4.71979e-21)
(0.205963 -0.0757333 -5.6657e-21)
(0.249538 -0.0761909 4.46224e-22)
(0.301434 -0.0731252 0)
(0.349108 -0.0664437 0)
(0.397082 -0.0589869 -1.02482e-21)
(0.442663 -0.0516427 1.3154e-21)
(0.486911 -0.0464155 -2.26158e-22)
(0.527835 -0.0430956 -1.66844e-22)
(0.565808 -0.0432879 -4.60337e-22)
(0.598234 -0.0434683 2.58554e-22)
(0.624838 -0.0430228 3.70438e-23)
(0.647668 -0.03783 1.98178e-22)
(0.662734 -0.0201364 5.75284e-23)
(0.688996 -0.00355278 0)
(0.705671 0.0214129 0)
(0.75334 0.00870489 0)
(0.774033 -0.0410786 3.66867e-23)
(0.788917 -0.0309435 0)
(0.204887 -0.060927 -1.00894e-21)
(0.221464 -0.0839267 -5.63571e-21)
(0.281948 -0.0878338 5.23721e-21)
(0.32231 -0.0875274 -2.45617e-21)
(0.368368 -0.0836568 3.87146e-21)
(0.410079 -0.0760104 0)
(0.451954 -0.0675876 -4.03999e-22)
(0.49184 -0.0592549 6.07588e-22)
(0.530892 -0.0530302 -7.52775e-24)
(0.567008 -0.0486902 0)
(0.60069 -0.0478611 0)
(0.628892 -0.0470169 1.96398e-22)
(0.65164 -0.0457944 -2.86078e-22)
(0.670478 -0.039933 8.51706e-23)
(0.681823 -0.0222856 -2.05669e-23)
(0.705262 -0.00569811 -9.8128e-23)
(0.719967 0.0186817 1.17358e-22)
(0.767266 0.00612891 -1.42344e-22)
(0.787434 -0.0422263 8.24323e-23)
(0.798379 -0.0314374 0)
(0.292352 -0.073443 -1.79837e-20)
(0.309809 -0.0957901 1.2474e-20)
(0.367404 -0.098958 -1.63053e-21)
(0.402871 -0.0974889 -9.57107e-21)
(0.441745 -0.092747 -6.07502e-21)
(0.476513 -0.0842616 4.96955e-21)
(0.511521 -0.0750283 -7.32992e-24)
(0.545079 -0.065871 -1.24893e-21)
(0.578384 -0.0587902 -3.92296e-22)
(0.609222 -0.0535537 7.99144e-22)
(0.638212 -0.0518043 -2.15182e-22)
(0.661908 -0.0500291 2.55021e-22)
(0.680621 -0.0481076 3.67131e-23)
(0.695388 -0.041658 2.34791e-22)
(0.703029 -0.0241473 0)
(0.723489 -0.00764836 0)