/*--------------------------------*- C++ -*----------------------------------*\
| =========                 |                                                 |
| \\      /  F ield         | OpenFOAM: The Open Source CFD Toolbox           |
|  \\    /   O peration     | Version:  v1912                                 |
|   \\  /    A nd           | Website:  www.openfoam.com                      |
|    \\/     M anipulation  |                                                 |
\*---------------------------------------------------------------------------*/
FoamFile
{
    version     2.0;
    format      ascii;
    class       volScalarField;
    location    "51";
    object      p;
}
// * * * * * * * * * * * * * * * * * * * * * * * * * * * * * * * * * * * * * //

dimensions      [0 2 -2 0 0 0 0];


internalField   nonuniform List<scalar> 
9600
(
-41.4842
-36.2193
-32.9924
-30.2551
-27.7497
-25.4828
-23.4263
-21.5521
-19.8428
-18.2848
-16.8654
-15.5727
-14.3952
-13.3224
-12.3439
-11.4504
-10.6336
-9.88538
-9.19834
-8.57027
-42.2439
-36.9615
-33.6986
-30.9185
-28.3679
-26.057
-23.959
-22.0471
-20.3039
-18.7159
-17.2701
-15.9542
-14.7565
-13.6657
-12.6713
-11.7637
-10.9341
-10.1742
-9.476
-8.83866
-43.0052
-37.6996
-34.3994
-31.5762
-28.9803
-26.6251
-24.4857
-22.5361
-20.7593
-19.1416
-17.6697
-16.331
-15.1132
-14.0048
-12.9948
-12.0732
-11.2309
-10.4593
-9.75008
-9.10366
-43.765
-38.4333
-35.0943
-32.2274
-29.5858
-27.1862
-25.0055
-23.0184
-21.2082
-19.5611
-18.0635
-16.7023
-15.4648
-14.339
-13.3136
-12.3782
-11.5235
-10.7403
-10.0202
-9.36493
-44.5203
-39.1611
-35.7824
-32.871
-30.1835
-27.7394
-25.5174
-23.493
-21.6498
-19.9736
-18.4506
-17.0673
-15.8105
-14.6677
-13.6272
-12.6783
-11.8114
-11.0169
-10.2859
-9.62221
-45.2689
-39.8815
-36.4624
-33.506
-30.7722
-28.2835
-26.0204
-23.9591
-22.0831
-20.3783
-18.8305
-17.4255
-16.1498
-14.9904
-13.9351
-12.973
-12.0942
-11.2885
-10.547
-9.87521
-46.0092
-40.593
-37.133
-34.1311
-31.3508
-28.8177
-26.5137
-24.4156
-22.5074
-20.7745
-19.2023
-17.7761
-16.4819
-15.3063
-14.2367
-13.2618
-12.3713
-11.5548
-10.803
-10.1237
-46.7395
-41.2942
-37.793
-34.7453
-31.9184
-29.3409
-26.9962
-24.8619
-22.9219
-21.1614
-19.5653
-18.1184
-16.8063
-15.6149
-14.5314
-13.5441
-12.6424
-11.8153
-11.0536
-10.3673
-47.4586
-41.9839
-38.4412
-35.3474
-32.4739
-29.8521
-27.467
-25.2969
-23.3257
-21.5381
-19.9186
-18.4517
-17.122
-15.9154
-14.8185
-13.8193
-12.9068
-12.0697
-11.2984
-10.6057
-48.1652
-42.6608
-39.0765
-35.9364
-33.0162
-30.3503
-27.9253
-25.7199
-23.7179
-21.9039
-20.2616
-18.7751
-17.4285
-16.2072
-15.0973
-14.0866
-13.1639
-12.3172
-11.537
-10.8385
-48.8581
-43.3239
-39.6977
-36.5112
-33.5444
-30.8347
-28.3702
-26.1299
-24.0977
-22.2578
-20.5934
-19.0879
-17.7249
-16.4894
-15.3671
-14.3455
-13.4129
-12.5571
-11.7685
-11.0651
-49.5365
-43.9721
-40.3039
-37.0708
-34.0576
-31.3044
-28.8007
-26.5261
-24.4644
-22.5991
-20.9131
-19.3891
-18.0103
-16.761
-15.6269
-14.5948
-13.6531
-12.7888
-11.9923
-11.2847
-50.1996
-44.6045
-40.8942
-37.6144
-34.5548
-31.7584
-29.2161
-26.9078
-24.817
-22.927
-21.2199
-19.6779
-18.2837
-17.0212
-15.8756
-14.8337
-13.8834
-13.0112
-12.2075
-11.4965
-50.8468
-45.2205
-41.4677
-38.1412
-35.0354
-32.1961
-29.6156
-27.274
-25.1548
-23.2405
-21.5128
-19.9533
-18.5441
-17.2687
-16.1121
-15.0608
-14.1023
-13.2229
-12.4129
-11.6999
-51.4775
-45.819
-42.0237
-38.6504
-35.4985
-32.6168
-29.9985
-27.6243
-25.4771
-23.5391
-21.7912
-20.2144
-18.7904
-17.5024
-16.3349
-15.2743
-14.308
-13.4218
-12.6064
-11.893
-52.0914
-46.3994
-42.5613
-39.1414
-35.9436
-33.0199
-30.3644
-27.9581
-25.7834
-23.822
-22.0542
-20.4604
-19.0218
-17.7211
-16.5427
-15.4727
-14.4986
-13.6058
-12.7852
-12.0704
-52.6896
-46.9616
-43.0801
-39.6134
-36.37
-33.4047
-30.7127
-28.2748
-26.0732
-24.0888
-22.3013
-20.6905
-19.2372
-17.9238
-16.7344
-15.6553
-14.6737
-13.7747
-12.9481
-12.2288
-53.2766
-47.5067
-43.5791
-40.0654
-36.7769
-33.7705
-31.0427
-28.5741
-26.3461
-24.3391
-22.5321
-20.9041
-19.4356
-18.1088
-16.9079
-15.8193
-14.8307
-13.9259
-13.0944
-12.3794
-53.8544
-48.0341
-44.0567
-40.4962
-37.1637
-34.1176
-31.355
-28.8564
-26.6027
-24.5735
-22.7468
-21.1013
-19.6166
-18.2747
-17.0596
-15.9581
-14.9575
-14.0418
-13.209
-12.5266
-54.4012
-48.5363
-44.5121
-40.9066
-37.5319
-34.4474
-31.6511
-29.1234
-26.8448
-24.7939
-22.9479
-21.2845
-19.7829
-18.424
-17.1914
-16.0703
-15.0458
-14.1044
-13.2607
-12.5846
-59.8559
-59.8244
-59.7552
-59.6627
-59.5464
-59.4037
-59.2341
-59.0381
-58.8162
-58.5691
-58.2972
-58.0012
-57.6816
-57.3393
-56.9748
-56.5891
-56.1834
-55.7592
-55.3195
-54.8674
-53.5072
-53.5046
-53.4688
-53.4055
-53.3154
-53.1979
-53.0533
-52.8823
-52.6857
-52.4639
-52.2177
-51.9477
-51.6544
-51.3386
-51.0007
-50.6416
-50.2619
-49.862
-49.4425
-49.0013
-48.8632
-48.885
-48.8774
-48.841
-48.7772
-48.6868
-48.5704
-48.4286
-48.262
-48.0713
-47.857
-47.6197
-47.36
-47.0783
-46.7752
-46.4511
-46.1064
-45.741
-45.3547
-44.9456
-44.6328
-44.6723
-44.6852
-44.6709
-44.6304
-44.5648
-44.4747
-44.3606
-44.2231
-44.0627
-43.88
-43.6754
-43.4496
-43.2029
-42.9358
-42.6485
-42.3412
-42.0138
-41.6661
-41.2972
-40.7212
-40.7705
-40.796
-40.7967
-40.7732
-40.7262
-40.6565
-40.5644
-40.4506
-40.3155
-40.1596
-39.9834
-39.7873
-39.5719
-39.3373
-39.084
-38.8119
-38.521
-38.2111
-37.8817
-37.2082
-37.2617
-37.2935
-37.3029
-37.29
-37.2555
-37.1999
-37.1237
-37.0275
-36.9117
-36.7767
-36.6231
-36.4513
-36.2617
-36.0547
-35.8304
-35.589
-35.3303
-35.0543
-34.7603
-34.0848
-34.1382
-34.1719
-34.185
-34.1777
-34.1504
-34.1037
-34.0382
-33.9542
-33.8522
-33.7328
-33.5963
-33.4433
-33.2742
-33.0893
-32.8889
-32.6731
-32.4418
-32.1948
-31.9316
-31.3141
-31.3647
-31.3971
-31.4105
-31.4051
-31.3813
-31.3397
-31.2806
-31.2047
-31.1122
-31.0038
-30.8799
-30.7411
-30.5878
-30.4203
-30.2391
-30.0442
-29.8356
-29.6131
-29.3761
-28.8563
-28.9025
-28.9317
-28.9434
-28.9376
-28.9148
-28.8755
-28.8201
-28.7491
-28.663
-28.5623
-28.4475
-28.3191
-28.1778
-28.0239
-27.8579
-27.68
-27.4903
-27.2883
-27.0736
-26.6717
-26.7128
-26.7379
-26.7467
-26.7392
-26.7159
-26.6773
-26.6237
-26.5557
-26.4737
-26.3783
-26.27
-26.1494
-26.0172
-25.8739
-25.72
-25.556
-25.3819
-25.1974
-25.0019
-24.7232
-24.7589
-24.7797
-24.7851
-24.7754
-24.7508
-24.7119
-24.659
-24.5927
-24.5133
-24.4215
-24.3179
-24.2032
-24.0779
-23.943
-23.7989
-23.6463
-23.4854
-23.316
-23.1374
-22.9777
-23.0083
-23.0248
-23.0269
-23.0147
-22.9885
-22.9489
-22.8961
-22.8307
-22.7531
-22.6639
-22.5637
-22.4533
-22.3335
-22.2051
-22.069
-21.926
-21.7764
-21.6204
-21.4571
-21.407
-21.433
-21.4456
-21.4445
-21.4298
-21.402
-21.3615
-21.3085
-21.2435
-21.1671
-21.0798
-20.9823
-20.8753
-20.7597
-20.6365
-20.5069
-20.3718
-20.2321
-20.0883
-19.9392
-19.9873
-20.0092
-20.0182
-20.0142
-19.9974
-19.968
-19.9266
-19.8733
-19.8086
-19.7331
-19.6472
-19.5517
-19.4473
-19.3351
-19.216
-19.0916
-18.9632
-18.8321
-18.6994
-18.564
-18.6989
-18.7171
-18.7229
-18.7163
-18.6975
-18.6668
-18.6246
-18.571
-18.5066
-18.4318
-18.3471
-18.2532
-18.1509
-18.0411
-17.9253
-17.8048
-17.6819
-17.558
-17.4358
-17.3139
-17.5251
-17.5399
-17.5429
-17.5341
-17.5136
-17.4818
-17.4388
-17.3851
-17.3209
-17.2467
-17.163
-17.0704
-16.9697
-16.8618
-16.7482
-16.6305
-16.5116
-16.3935
-16.2809
-16.1722
-16.4522
-16.464
-16.4646
-16.4538
-16.4318
-16.3989
-16.3554
-16.3015
-16.2375
-16.1638
-16.0808
-15.9892
-15.8895
-15.7828
-15.6704
-15.5542
-15.4376
-15.3232
-15.2188
-15.1219
-15.4682
-15.4777
-15.4763
-15.464
-15.4409
-15.4074
-15.3635
-15.3096
-15.2459
-15.1728
-15.0905
-14.9997
-14.9008
-14.7947
-14.6827
-14.5666
-14.4502
-14.3374
-14.2398
-14.1521
-14.5621
-14.5702
-14.5678
-14.555
-14.5319
-14.4987
-14.4555
-14.4027
-14.3404
-14.2689
-14.1885
-14.0995
-14.0025
-13.898
-13.7871
-13.6712
-13.5541
-13.4409
-13.3503
-13.2767
-13.7286
-13.7334
-13.7284
-13.7138
-13.6897
-13.6561
-13.6132
-13.5613
-13.5004
-13.4309
-13.3529
-13.2667
-13.1725
-13.0709
-12.9621
-12.8474
-12.7284
-12.6105
-12.5135
-12.4642
-53.5645
-54.1398
-54.678
-55.2012
-55.7064
-56.1878
-56.6423
-57.069
-57.467
-57.8354
-58.1734
-58.4806
-58.7566
-59.0012
-59.2135
-59.3939
-59.543
-59.6621
-59.7532
-59.8182
-47.0816
-47.6623
-48.2149
-48.7452
-49.2527
-49.7349
-50.1904
-50.6185
-51.0186
-51.3901
-51.7322
-52.045
-52.3285
-52.5834
-52.8075
-53.0004
-53.1626
-53.2945
-53.3966
-53.4678
-42.4375
-43.006
-43.5508
-44.0721
-44.5701
-45.0438
-45.4926
-45.9158
-46.3126
-46.6825
-47.0245
-47.3384
-47.6239
-47.8796
-48.1068
-48.3059
-48.4765
-48.6183
-48.7309
-48.8129
-38.3138
-38.8569
-39.3804
-39.8823
-40.362
-40.8193
-41.2534
-41.6639
-42.05
-42.4111
-42.746
-43.0541
-43.3364
-43.5924
-43.8222
-44.0256
-44.2021
-44.3514
-44.4732
-44.5671
-34.6362
-35.1493
-35.6454
-36.1218
-36.5776
-37.0124
-37.4257
-37.8168
-38.185
-38.5297
-38.8516
-39.1502
-39.424
-39.6733
-39.8982
-40.0984
-40.2736
-40.4236
-40.5484
-40.6478
-31.4378
-31.9194
-32.3857
-32.8341
-33.2632
-33.6728
-34.0623
-34.4312
-34.779
-35.1053
-35.4101
-35.6927
-35.9524
-36.1896
-36.4044
-36.5966
-36.7656
-36.9112
-37.0337
-37.1328
-28.6661
-29.1169
-29.5535
-29.9735
-30.3757
-30.7594
-31.1243
-31.4699
-31.7958
-32.1017
-32.3872
-32.652
-32.8958
-33.1185
-33.3196
-33.5011
-33.6612
-33.7994
-33.916
-34.0113
-26.2543
-26.6762
-27.0848
-27.4778
-27.8539
-28.2127
-28.5536
-28.8762
-29.1803
-29.4654
-29.7314
-29.9781
-30.2054
-30.4131
-30.6012
-30.7682
-30.9176
-31.0468
-31.1559
-31.245
-24.1437
-24.5392
-24.922
-25.29
-25.642
-25.9774
-26.2957
-26.5966
-26.8798
-27.1451
-27.3924
-27.6215
-27.8324
-28.0249
-28.1991
-28.355
-28.4912
-28.6103
-28.711
-28.793
-22.2842
-22.6559
-23.0155
-23.3609
-23.6908
-24.0047
-24.3022
-24.583
-24.8468
-25.0937
-25.3234
-25.536
-25.7313
-25.9094
-26.0701
-26.2135
-26.3394
-26.4481
-26.54
-26.6147
-20.6341
-20.9847
-21.3235
-21.6487
-21.9587
-22.2531
-22.5315
-22.7939
-23.04
-23.2698
-23.4833
-23.6806
-23.8616
-24.0262
-24.1746
-24.3065
-24.4221
-24.5214
-24.6049
-24.6723
-19.1599
-19.4916
-19.8123
-20.1194
-20.4115
-20.6882
-20.9493
-21.1948
-21.4246
-21.6389
-21.8377
-22.021
-22.1888
-22.3413
-22.4782
-22.5998
-22.7059
-22.7967
-22.872
-22.9326
-17.8344
-18.1497
-18.4544
-18.7456
-19.0215
-19.2821
-19.5274
-19.7575
-19.9725
-20.1726
-20.3579
-20.5285
-20.6844
-20.8257
-20.9523
-21.0644
-21.1619
-21.2447
-21.3127
-21.3673
-16.6362
-16.937
-17.2282
-17.5052
-17.7665
-18.0123
-18.2431
-18.459
-18.6603
-18.8474
-19.0204
-19.1794
-19.3245
-19.4557
-19.5731
-19.6766
-19.7662
-19.8422
-19.9046
-19.9526
-15.5482
-15.8367
-16.1164
-16.3807
-16.6284
-16.8606
-17.0778
-17.2805
-17.4692
-17.6443
-17.806
-17.9544
-18.0897
-18.2118
-18.3207
-18.4165
-18.4992
-18.5688
-18.6252
-18.6684
-14.5555
-14.8355
-15.106
-15.3584
-15.5932
-15.8124
-16.0168
-16.2071
-16.384
-16.5479
-16.6992
-16.8379
-16.9642
-17.078
-17.1793
-17.2681
-17.3445
-17.4083
-17.4596
-17.4985
-13.6405
-13.9195
-14.1848
-14.4258
-14.648
-14.8547
-15.0469
-15.2254
-15.3912
-15.5448
-15.6866
-15.8165
-15.9346
-16.0409
-16.1354
-16.218
-16.2886
-16.3474
-16.3942
-16.4291
-12.7827
-13.0659
-13.3325
-13.5641
-13.7743
-13.9693
-14.1503
-14.3183
-14.4744
-14.619
-14.7525
-14.8749
-14.9862
-15.0862
-15.175
-15.2524
-15.3184
-15.373
-15.4162
-15.448
-11.9954
-12.2691
-12.5364
-12.7632
-12.9633
-13.147
-13.3175
-13.476
-13.6233
-13.76
-13.8863
-14.0022
-14.1077
-14.2025
-14.2865
-14.3598
-14.4221
-14.4735
-14.5139
-14.5435
-11.4049
-11.6557
-11.8834
-12.1002
-12.2885
-12.4544
-12.6084
-12.7526
-12.8867
-13.0108
-13.1256
-13.2308
-13.3263
-13.412
-13.4876
-13.5532
-13.6086
-13.6538
-13.6887
-13.7132
-6.00446
-6.49574
-7.0341
-7.61649
-8.24934
-8.94006
-9.6963
-10.5275
-11.4459
-12.4671
-13.6116
-14.9063
-16.3866
-18.0986
-20.1027
-22.4782
-25.3064
-28.6094
-32.6066
-38.6025
-6.27503
-6.77984
-7.32871
-7.92316
-8.56979
-9.27569
-10.0486
-10.8984
-11.8373
-12.8814
-14.0514
-15.3747
-16.8871
-18.6351
-20.6794
-23.099
-25.9742
-29.324
-33.3597
-39.3766
-6.54703
-7.06537
-7.62488
-8.23163
-8.89228
-9.61361
-10.4035
-11.272
-12.2318
-13.2991
-14.495
-15.8473
-17.3921
-19.1765
-21.2611
-23.7248
-26.6466
-30.0421
-34.1146
-40.1479
-6.81996
-7.35178
-7.92201
-8.54126
-9.21616
-9.95313
-10.7602
-11.6477
-12.6286
-13.7193
-14.9413
-16.3228
-17.9003
-19.7211
-21.8462
-24.3541
-27.3222
-30.7632
-34.8735
-40.9281
-7.0934
-7.6386
-8.21963
-8.8516
-9.54094
-10.2937
-11.1182
-12.0249
-13.0269
-14.1412
-15.3896
-16.8004
-18.4108
-20.2683
-22.4339
-24.9858
-28.0002
-31.4867
-35.6355
-41.7145
-7.36696
-7.92544
-8.51732
-9.16221
-9.86619
-10.635
-11.4769
-12.4029
-13.4264
-14.5645
-15.8393
-17.2796
-18.9229
-20.8171
-23.0233
-25.6193
-28.6798
-32.2117
-36.3987
-42.503
-7.64033
-8.21191
-8.8147
-9.4727
-10.1915
-10.9764
-11.836
-12.7814
-13.8264
-14.9883
-16.2897
-17.7597
-19.436
-21.367
-23.6138
-26.2537
-29.3602
-32.937
-37.1614
-43.2913
-7.91327
-8.49775
-9.11146
-9.78272
-10.5164
-11.3176
-12.1949
-13.1599
-14.2264
-15.4123
-16.7402
-18.2399
-19.9493
-21.9171
-24.2044
-26.8881
-30.0402
-33.6614
-37.9226
-44.0779
-8.18561
-8.78273
-9.40734
-10.092
-10.8408
-11.6582
-12.5533
-13.5378
-14.6259
-15.8357
-17.1903
-18.7196
-20.4621
-22.4666
-24.7943
-27.5215
-30.7189
-34.3839
-38.6809
-44.8614
-8.45732
-9.06677
-9.70219
-10.4004
-11.1642
-11.9979
-12.9108
-13.9148
-15.0245
-16.2581
-17.6392
-19.1981
-20.9735
-23.0146
-25.3825
-28.1529
-31.395
-35.1033
-39.4351
-45.6403
-8.7285
-9.34987
-9.99597
-10.7076
-11.4866
-12.3365
-13.267
-14.2904
-15.4214
-16.6788
-18.0863
-19.6746
-21.4828
-23.5602
-25.968
-28.7812
-32.0675
-35.8183
-40.1839
-46.4129
-8.99946
-9.63222
-10.2887
-11.0138
-11.8076
-12.6736
-13.6215
-14.6641
-15.8164
-17.0973
-18.531
-20.1485
-21.9892
-24.1027
-26.5499
-29.4054
-32.7352
-36.5277
-40.9259
-47.1781
-9.27067
-9.91411
-10.5805
-11.3188
-12.1273
-13.009
-13.9741
-15.0356
-16.2088
-17.5129
-18.9725
-20.6189
-22.4918
-24.6409
-27.1272
-30.0244
-33.3969
-37.2303
-41.6597
-47.9343
-9.54285
-10.196
-10.8716
-11.6226
-12.4453
-13.3423
-14.3242
-15.4042
-16.598
-17.925
-19.4101
-21.085
-22.9897
-25.174
-27.6988
-30.637
-34.0515
-37.9248
-42.3842
-48.6804
-9.81677
-10.4781
-11.1619
-11.9249
-12.7613
-13.673
-14.6712
-15.7693
-16.9832
-18.3327
-19.843
-21.5459
-23.4819
-25.701
-28.2636
-31.2421
-34.6977
-38.61
-43.098
-49.415
-10.0934
-10.7607
-11.4512
-12.2253
-13.0746
-14.0005
-15.0144
-16.1301
-17.3637
-18.7352
-20.2701
-22.0007
-23.9675
-26.2206
-28.8204
-31.8383
-35.3341
-39.2845
-43.8001
-50.1374
-10.3725
-11.0428
-11.738
-12.5223
-13.384
-14.3237
-15.3529
-16.4857
-17.7385
-19.1316
-20.6906
-22.4482
-24.4453
-26.7318
-29.368
-32.4245
-35.9594
-39.9471
-44.4895
-50.8467
-10.6534
-11.3217
-12.0198
-12.8142
-13.6883
-14.6414
-15.6855
-16.835
-18.1066
-19.5207
-21.1034
-22.8875
-24.9141
-27.2334
-29.9051
-32.9991
-36.572
-40.596
-45.1648
-51.5431
-10.9288
-11.5892
-12.2906
-13.0975
-13.9851
-14.9519
-16.0108
-17.1768
-18.4669
-19.9016
-21.5074
-23.3174
-25.3728
-27.7239
-30.4302
-33.5605
-37.1702
-41.2295
-45.825
-52.2279
-11.18
-11.8253
-12.5457
-13.3732
-14.2752
-15.2549
-16.3282
-17.5105
-18.8184
-20.2732
-21.9015
-23.7367
-25.8202
-28.2022
-30.942
-34.1072
-37.7518
-41.8444
-46.4654
-52.9028
-1.58415
-1.83813
-2.18605
-2.57503
-2.99365
-3.44729
-3.94224
-4.48444
-5.08138
-5.74333
-6.48423
-7.32311
-8.2861
-9.40926
-10.7435
-12.363
-14.3576
-16.7884
-19.9637
-25.3586
-1.73729
-2.00769
-2.37407
-2.76899
-3.19104
-3.65001
-4.15187
-4.70215
-5.30849
-5.98143
-6.73517
-7.58907
-8.56969
-9.71361
-11.0723
-12.7205
-14.748
-17.2142
-20.4218
-25.8305
-1.88476
-2.17924
-2.55878
-2.96183
-3.39162
-3.85898
-4.36977
-4.92973
-5.54686
-6.23202
-6.99977
-7.86984
-8.86927
-10.0351
-11.4195
-13.0974
-15.1585
-17.6602
-20.8993
-26.3166
-2.05451
-2.35982
-2.74756
-3.15934
-3.59832
-4.07522
-4.59604
-5.1668
-5.79584
-6.49432
-7.27714
-8.16444
-9.18372
-10.3726
-11.7836
-13.4923
-15.588
-18.1264
-21.4003
-26.8352
-2.23558
-2.54798
-2.94356
-3.3643
-3.81278
-4.29965
-4.83116
-5.41352
-6.05534
-6.76807
-7.56691
-8.47242
-9.51256
-10.7255
-12.1643
-13.9048
-16.0362
-18.6128
-21.9242
-27.3833
-2.42212
-2.74314
-3.14706
-3.57693
-4.03518
-4.5325
-5.07528
-5.66995
-6.32531
-7.0531
-7.86885
-8.7935
-9.8555
-11.0935
-12.5612
-14.3347
-16.5031
-19.1192
-22.4693
-27.9554
-2.61568
-2.9462
-3.35837
-3.79738
-4.26569
-4.77389
-5.32846
-5.93604
-6.60564
-7.34924
-8.18272
-9.1274
-10.2122
-11.4763
-12.9739
-14.7817
-16.9882
-19.6448
-23.0345
-28.5494
-2.81762
-3.15764
-3.57785
-4.02599
-4.50456
-5.02395
-5.59075
-6.21175
-6.89618
-7.65628
-8.50825
-9.47379
-10.5823
-11.8735
-13.4021
-15.2451
-17.4909
-20.1891
-23.6191
-29.164
-3.02774
-3.3773
-3.80551
-4.26284
-4.75183
-5.2827
-5.86209
-6.49697
-7.19678
-7.974
-8.84515
-9.83234
-10.9654
-12.2847
-13.8452
-15.7245
-18.0106
-20.7514
-24.2225
-29.7982
-3.24544
-3.60485
-4.04117
-4.50777
-5.00737
-5.54998
-6.14231
-6.79151
-7.5072
-8.30212
-9.19312
-10.2027
-11.3611
-12.7093
-14.3028
-16.2194
-18.5468
-21.3311
-24.8438
-30.451
-3.47027
-3.83994
-4.28451
-4.76052
-5.27093
-5.82555
-6.43117
-7.09508
-7.82713
-8.64031
-9.55177
-10.5844
-11.769
-13.1469
-14.7742
-16.729
-19.0986
-21.9272
-25.4822
-31.1213
-3.70187
-4.08217
-4.53514
-5.02073
-5.54218
-6.10909
-6.72832
-7.40734
-8.15621
-8.98817
-9.92069
-10.9771
-12.1885
-13.5969
-15.259
-17.2528
-19.6655
-22.5392
-26.1368
-31.808
-3.93975
-4.33106
-4.79263
-5.28799
-5.82071
-6.4002
-7.03337
-7.72789
-8.49402
-9.34526
-10.2994
-11.3801
-12.6192
-14.0589
-15.7564
-17.7901
-20.2466
-23.1661
-26.8067
-32.5102
-4.18341
-4.5861
-5.05648
-5.56182
-6.10608
-6.69843
-7.34587
-8.05627
-8.84008
-9.71109
-10.6874
-11.7931
-13.0604
-14.5321
-16.2658
-18.3403
-20.8413
-23.8071
-27.4911
-33.2269
-4.43228
-4.84673
-5.32614
-5.8417
-6.39776
-7.00328
-7.66532
-8.39195
-9.19388
-10.0851
-11.0841
-12.2154
-13.5115
-15.0159
-16.7866
-18.9024
-21.4488
-24.4615
-28.1891
-33.9574
-4.68582
-5.11238
-5.60104
-6.12708
-6.69522
-7.31421
-7.99118
-8.73442
-9.55485
-10.4668
-11.489
-12.6463
-13.9719
-15.5096
-17.318
-19.4759
-22.0681
-25.1283
-28.8999
-34.7007
-4.94348
-5.38247
-5.88062
-6.41739
-6.99791
-7.63066
-8.32288
-9.08307
-9.92241
-10.8554
-11.9013
-13.0852
-14.4409
-16.0125
-17.8591
-20.0597
-22.6984
-25.8065
-29.6227
-35.4563
-5.20471
-5.65641
-6.1643
-6.71206
-7.30525
-7.95206
-8.65985
-9.43734
-10.2959
-11.2505
-12.3204
-13.5315
-14.9176
-16.5238
-18.4091
-20.6529
-23.3386
-26.4952
-30.3565
-36.224
-5.46895
-5.93363
-6.45147
-7.01052
-7.61665
-8.27782
-9.00148
-9.79659
-10.6748
-11.6513
-12.7457
-13.9842
-15.4014
-17.0425
-18.9671
-21.2546
-23.9877
-27.1931
-31.1005
-37.0042
-5.73571
-6.2136
-6.74161
-7.3122
-7.93157
-8.60739
-9.34721
-10.1602
-11.0584
-12.0571
-13.1764
-14.4429
-15.8915
-17.5679
-19.5323
-21.8637
-24.6443
-27.8985
-31.8517
-37.7978
-1.33642
-1.12977
-0.976049
-0.839375
-0.71936
-0.613462
-0.520568
-0.439883
-0.370907
-0.313281
-0.266739
-0.231069
-0.206102
-0.191699
-0.187723
-0.193963
-0.210208
-0.236583
-0.273252
-0.320028
-1.66626
-1.48289
-1.32519
-1.18329
-1.05844
-0.94808
-0.85122
-0.767064
-0.695097
-0.634943
-0.586321
-0.549007
-0.52282
-0.507607
-0.503223
-0.509498
-0.526276
-0.553566
-0.591427
-0.639631
-1.99878
-1.82329
-1.66561
-1.52257
-1.3956
-1.28305
-1.18424
-1.09846
-1.02526
-0.964271
-0.915218
-0.877878
-0.852066
-0.837625
-0.834407
-0.84226
-0.861063
-0.890769
-0.931267
-0.982705
-2.38252
-2.20536
-2.04464
-1.89864
-1.76809
-1.65204
-1.55001
-1.46145
-1.38595
-1.32316
-1.27282
-1.23469
-1.2086
-1.19437
-1.19185
-1.2009
-1.22139
-1.25324
-1.29636
-1.35074
-2.80125
-2.62163
-2.45695
-2.30701
-2.17224
-2.05214
-1.94637
-1.85451
-1.77622
-1.71119
-1.65915
-1.61989
-1.59321
-1.57895
-1.57693
-1.58702
-1.60909
-1.64303
-1.68872
-1.74615
-3.25253
-3.06969
-2.90083
-2.74656
-2.60734
-2.48297
-2.37326
-2.27791
-2.19664
-2.12918
-2.07529
-2.03476
-2.0074
-1.99304
-1.9915
-2.00265
-2.02635
-2.06248
-2.11088
-2.17153
-3.74253
-3.55496
-3.38119
-3.22199
-3.07787
-2.94885
-2.83485
-2.73568
-2.65111
-2.58094
-2.52495
-2.48294
-2.45472
-2.44012
-2.43898
-2.45114
-2.47648
-2.51483
-2.56606
-2.63013
-4.27804
-4.08427
-3.9045
-3.7395
-3.58978
-3.45549
-3.33665
-3.23314
-3.14482
-3.07151
-3.01303
-2.96918
-2.93981
-2.92474
-2.9238
-2.93684
-2.96372
-3.00428
-3.05836
-3.12593
-4.86676
-4.66533
-4.47833
-4.30646
-4.15023
-4.00986
-3.88544
-3.77692
-3.68423
-3.60721
-3.54571
-3.49958
-3.46864
-3.45273
-3.4517
-3.46538
-3.49363
-3.53627
-3.59316
-3.66426
-5.51884
-5.30818
-5.11253
-4.93251
-4.76863
-4.62114
-4.49019
-4.3758
-4.27791
-4.19643
-4.13124
-4.08218
-4.04911
-4.03187
-4.0303
-4.04426
-4.07357
-4.11806
-4.17758
-4.25213
-6.24799
-6.02631
-5.82033
-5.63062
-5.45766
-5.30175
-5.16305
-5.04165
-4.93751
-4.85059
-4.78078
-4.72796
-4.69199
-4.67271
-4.66999
-4.68365
-4.71355
-4.75949
-4.8213
-4.89904
-7.07297
-6.83813
-6.61982
-6.41852
-6.23471
-6.06871
-5.92072
-5.79083
-5.67908
-5.58543
-5.5098
-5.45208
-5.41215
-5.38987
-5.3851
-5.39767
-5.42743
-5.47416
-5.5377
-5.61815
-8.01949
-7.76896
-7.53587
-7.32064
-7.12378
-6.9456
-6.78632
-6.64609
-6.52494
-6.42287
-6.33982
-6.2757
-6.2304
-6.20379
-6.19573
-6.20607
-6.23462
-6.28117
-6.34556
-6.42792
-9.1231
-8.85381
-8.60295
-8.37092
-8.15824
-7.96525
-7.79218
-7.63919
-7.50635
-7.39368
-7.30112
-7.22862
-7.17607
-7.14335
-7.13031
-7.13681
-7.16267
-7.20764
-7.27155
-7.35459
-10.4341
-10.1423
-9.87005
-9.6177
-9.38581
-9.17473
-8.98473
-8.81597
-8.66854
-8.54247
-8.43773
-8.35426
-8.29197
-8.25076
-8.23047
-8.23098
-8.25208
-8.2935
-8.35504
-8.43696
-12.0261
-11.7074
-11.4094
-11.1326
-10.8774
-10.6443
-10.4336
-10.2454
-10.0798
-9.93683
-9.81654
-9.71885
-9.64367
-9.5909
-9.56041
-9.55205
-9.56563
-9.60084
-9.65746
-9.73577
-13.9882
-13.638
-13.3096
-13.0037
-12.7209
-12.4615
-12.2259
-12.0142
-11.8265
-11.6628
-11.5232
-11.4077
-11.316
-11.2482
-11.2042
-11.1837
-11.1867
-11.2127
-11.2616
-11.3334
-16.3823
-15.9964
-15.6335
-15.2946
-14.9802
-14.691
-14.4269
-14.1883
-13.9751
-13.7875
-13.6253
-13.4886
-13.3774
-13.2916
-13.2311
-13.1957
-13.1853
-13.1998
-13.2388
-13.3014
-19.5189
-19.0933
-18.6915
-18.316
-17.9672
-17.6452
-17.3498
-17.0812
-16.8392
-16.624
-16.4355
-16.2736
-16.1384
-16.0299
-15.9478
-15.8921
-15.8626
-15.8598
-15.8834
-15.9313
-24.8558
-24.3851
-23.9488
-23.5439
-23.1682
-22.8208
-22.5011
-22.2092
-21.9449
-21.7083
-21.4994
-21.3182
-21.1649
-21.0395
-20.942
-20.8727
-20.8321
-20.8226
-20.8456
-20.8907
-0.376802
-0.443253
-0.519344
-0.604992
-0.700115
-0.804606
-0.918333
-1.04114
-1.1728
-1.31305
-1.46152
-1.61768
-1.78073
-1.94945
-2.12218
-2.29665
-2.46838
-2.62758
-2.75885
-2.88861
-0.698284
-0.767013
-0.845743
-0.934364
-1.03277
-1.14084
-1.25841
-1.38531
-1.52129
-1.66604
-1.81916
-1.98009
-2.14806
-2.32191
-2.50002
-2.68074
-2.8623
-3.03696
-3.18953
-3.36177
-1.04485
-1.11743
-1.20038
-1.29357
-1.39687
-1.51016
-1.63325
-1.76593
-1.90796
-2.05898
-2.21859
-2.38621
-2.5611
-2.74224
-2.92826
-3.11797
-3.31041
-3.5012
-3.68461
-3.89058
-1.41631
-1.49274
-1.57996
-1.67782
-1.78618
-1.90488
-2.03373
-2.17249
-2.3209
-2.4786
-2.64515
-2.82
-3.00244
-3.19157
-3.38631
-3.58579
-3.78922
-3.99426
-4.20143
-4.43111
-1.81525
-1.89569
-1.98738
-2.09016
-2.20386
-2.32832
-2.46332
-2.60861
-2.76391
-2.92884
-3.10299
-3.2858
-3.47663
-3.67471
-3.87921
-4.08953
-4.30505
-4.52473
-4.7512
-4.99764
-2.24446
-2.3292
-2.42569
-2.53376
-2.65324
-2.78394
-2.92563
-3.07806
-3.24092
-3.41385
-3.59642
-3.78813
-3.98839
-4.19657
-4.41203
-4.63436
-4.86317
-5.09823
-5.34231
-5.60326
-2.70709
-2.79636
-2.89797
-3.01172
-3.13741
-3.27486
-3.42381
-3.58401
-3.75515
-3.93687
-4.12876
-4.33036
-4.54115
-4.76059
-4.98821
-5.2237
-5.46688
-5.71793
-5.97909
-6.25478
-3.20696
-3.30109
-3.40813
-3.5279
-3.66023
-3.8049
-3.96168
-4.1303
-4.31045
-4.50178
-4.70391
-4.91641
-5.13882
-5.37069
-5.61165
-5.86148
-6.12007
-6.38777
-6.66614
-6.95764
-3.74958
-3.84863
-3.96129
-4.08738
-4.22671
-4.37906
-4.54421
-4.72186
-4.91173
-5.11348
-5.32675
-5.55115
-5.78626
-6.03171
-6.28718
-6.55249
-6.82759
-7.11275
-7.40899
-7.71767
-4.34171
-4.44571
-4.5642
-4.69679
-4.8434
-5.00382
-5.1778
-5.36505
-5.56529
-5.77821
-6.00347
-6.24069
-6.48953
-6.74964
-7.02075
-7.30267
-7.59535
-7.89896
-8.21405
-8.54142
-4.99273
-5.10162
-5.22574
-5.36503
-5.5191
-5.68782
-5.87097
-6.06826
-6.27942
-6.50414
-6.74211
-6.993
-7.25648
-7.53223
-7.82
-8.1196
-8.43094
-8.75403
-9.08913
-9.43672
-5.71554
-5.82903
-5.95868
-6.10432
-6.26586
-6.44293
-6.63539
-6.84297
-7.06539
-7.30236
-7.55361
-7.81882
-8.09767
-8.38988
-8.69519
-9.0134
-9.34437
-9.68796
-10.0442
-10.4135
-6.52832
-6.64575
-6.78041
-6.93201
-7.10047
-7.28588
-7.48758
-7.70531
-7.93901
-8.1884
-8.45319
-8.73309
-9.0278
-9.33701
-9.6605
-9.99804
-10.3494
-10.7144
-11.0928
-11.485
-7.45687
-7.57719
-7.71588
-7.87267
-8.04734
-8.23988
-8.45108
-8.67817
-8.92279
-9.1843
-9.46246
-9.757
-10.0676
-10.3941
-10.736
-11.0933
-11.4655
-11.8524
-12.2538
-12.6698
-8.53941
-8.66091
-8.80202
-8.96253
-9.14227
-9.34076
-9.55754
-9.79486
-10.0501
-10.3228
-10.6135
-10.9222
-11.2484
-11.5918
-11.9521
-12.3289
-12.722
-13.131
-13.5554
-13.9956
-9.83586
-9.956
-10.0971
-10.259
-10.4417
-10.6446
-10.8675
-11.1102
-11.3731
-11.6566
-11.9591
-12.2812
-12.6221
-12.9814
-13.3586
-13.7539
-14.167
-14.5974
-15.0443
-15.5082
-11.4278
-11.5434
-11.6816
-11.8423
-12.0251
-12.2298
-12.4561
-12.7038
-12.9729
-13.2635
-13.5762
-13.9099
-14.2628
-14.6342
-15.0252
-15.4365
-15.8676
-16.3176
-16.7856
-17.2714
-13.386
-13.494
-13.6262
-13.7823
-13.961
-14.1627
-14.3875
-14.6354
-14.9061
-15.199
-15.5134
-15.8497
-16.2095
-16.5934
-16.9996
-17.4268
-17.8746
-18.3426
-18.8299
-19.3355
-16.0016
-16.0935
-16.2095
-16.351
-16.5193
-16.7136
-16.9332
-17.1777
-17.4466
-17.7397
-18.0564
-18.3962
-18.7595
-19.1469
-19.558
-19.9925
-20.4501
-20.9314
-21.4364
-21.9601
-20.9325
-21.0049
-21.1081
-21.24
-21.3994
-21.5855
-21.7979
-22.0361
-22.2999
-22.5889
-22.9029
-23.2418
-23.6059
-23.9953
-24.4102
-24.8505
-25.3175
-25.8148
-26.3452
-26.8907
-27.4073
-22.4944
-19.8589
-17.7752
-15.9889
-14.4515
-13.1004
-11.8909
-10.7957
-9.7967
-8.88098
-8.03876
-7.26242
-6.54573
-5.88352
-5.27123
-4.70362
-4.17511
-3.69417
-3.28977
-27.9518
-23.045
-20.3979
-18.294
-16.4839
-14.9208
-13.5437
-12.3087
-11.1892
-10.1675
-9.23106
-8.37014
-7.57732
-6.84651
-6.17269
-5.55143
-4.97799
-4.44998
-3.98054
-3.57806
-28.5248
-23.6145
-20.9542
-18.8289
-16.9937
-15.4037
-13.9995
-12.7381
-11.5935
-10.5485
-9.59073
-8.71062
-7.90081
-7.15525
-6.46888
-5.83717
-5.25551
-4.72161
-4.24504
-3.82306
-29.1222
-24.2035
-21.5277
-19.3795
-17.5176
-15.8995
-14.4671
-13.1783
-12.0078
-10.9388
-9.95889
-9.05886
-8.23121
-7.4698
-6.76933
-6.12504
-5.53203
-4.98737
-4.49781
-4.05709
-29.7409
-24.8114
-22.1178
-19.9454
-18.0552
-16.4076
-14.9458
-13.6286
-12.4313
-11.3374
-10.3347
-9.41399
-8.56772
-7.78953
-7.07392
-6.41579
-5.80995
-5.25291
-4.74955
-4.2927
-30.3794
-25.4387
-22.7225
-20.5254
-18.6057
-16.9271
-15.4348
-14.0882
-12.8632
-11.7436
-10.7174
-9.77536
-8.90975
-8.11409
-7.38259
-6.7099
-6.0906
-5.52083
-5.0042
-4.53326
-31.0364
-26.0839
-23.3415
-21.1186
-19.1681
-17.4573
-15.9333
-14.5564
-13.3028
-12.1568
-11.1065
-10.1425
-9.25699
-8.44338
-7.69559
-7.00805
-6.37518
-5.79288
-5.26367
-4.78006
-31.7108
-26.745
-23.9747
-21.7242
-19.7416
-17.9974
-16.4407
-15.0324
-13.7495
-12.5764
-11.5013
-10.5148
-9.60913
-8.77726
-8.01299
-7.31051
-6.66414
-6.06959
-5.52838
-5.033
-32.4011
-27.4205
-24.6211
-22.3414
-20.3253
-18.5465
-16.956
-15.5155
-14.2025
-13.0016
-11.9013
-10.8921
-9.96583
-9.11551
-8.33466
-7.61727
-6.95753
-6.35097
-5.79816
-5.2916
-33.1061
-28.1093
-25.2799
-22.9692
-20.9183
-19.1038
-17.4784
-16.0049
-14.661
-13.432
-12.306
-11.2736
-10.3267
-9.4578
-8.66033
-7.92807
-7.25507
-6.63665
-6.0725
-5.55513
-33.8247
-28.8103
-25.9498
-23.6066
-21.5196
-19.6683
-18.0071
-16.4997
-15.1245
-13.8667
-12.7147
-11.659
-10.6912
-9.80366
-8.98957
-8.24248
-7.55629
-6.92611
-6.35076
-5.8228
-34.5555
-29.5223
-26.6298
-24.2526
-22.1282
-20.239
-18.5412
-16.9992
-15.592
-14.3051
-13.1268
-12.0476
-11.0587
-10.1526
-9.32184
-8.55996
-7.86062
-7.2187
-6.63222
-6.09381
-35.2976
-30.2441
-27.3186
-24.9061
-22.7431
-20.815
-19.0797
-17.5025
-16.0628
-14.7464
-13.5416
-12.4387
-11.4288
-10.5039
-9.65656
-8.87989
-8.16743
-7.51377
-6.91616
-6.36741
-36.0499
-30.9748
-28.0152
-25.5659
-23.3633
-21.3953
-19.6216
-18.0086
-16.5361
-15.1899
-13.9584
-12.8317
-11.8006
-10.857
-9.99308
-9.20165
-8.47606
-7.81064
-7.20189
-6.64285
-36.8112
-31.7129
-28.7182
-26.231
-23.9875
-21.9787
-20.1661
-18.5167
-17.0109
-15.6346
-14.3763
-13.2257
-12.1736
-11.2113
-10.3307
-9.52457
-8.78585
-8.10863
-7.48871
-6.91946
-37.5803
-32.4572
-29.4263
-26.9
-24.6146
-22.5642
-20.712
-19.0258
-17.4864
-16.0799
-14.7947
-13.6202
-12.5469
-11.5659
-10.6689
-9.84799
-9.09615
-8.4071
-7.77598
-7.19659
-38.3568
-33.2065
-30.1383
-27.5716
-25.2434
-23.1507
-21.2582
-19.5349
-17.9616
-16.5248
-15.2126
-14.0143
-12.92
-11.9204
-11.0068
-10.1713
-9.40631
-8.70541
-8.06307
-7.47363
-39.142
-33.9604
-30.8527
-28.2444
-25.8725
-23.7367
-21.8036
-20.0428
-18.4356
-16.9684
-15.6293
-14.4072
-13.2919
-12.2738
-11.3438
-10.4937
-9.71568
-9.00293
-8.34938
-7.75002
-39.9362
-34.7176
-31.5674
-28.9164
-26.5003
-24.3211
-22.3471
-20.5486
-18.9075
-17.41
-16.0439
-14.7982
-13.6621
-12.6256
-11.6793
-10.8147
-10.0236
-9.29908
-8.63434
-8.02524
-40.7266
-35.4731
-32.2809
-29.5869
-27.1264
-24.9035
-22.8883
-21.052
-19.3768
-17.849
-16.4562
-15.1869
-14.03
-12.9752
-12.0128
-11.1337
-10.3298
-9.59339
-8.9175
-8.29885
-6.77788
-4.6725
-3.31277
-2.26766
-1.53348
-0.994257
-0.606953
-0.33199
-0.141061
-0.0124327
0.0705096
0.120392
0.146791
0.156862
0.155913
0.147815
0.135379
0.120605
0.104901
0.0892349
0.07425
0.0603572
0.0477929
0.0366766
0.0270295
0.0188313
0.0119883
0.00643578
0.0020041
-0.00133549
-0.00384661
-0.00542023
-0.00650646
-0.00669097
-0.00681466
-0.00587267
-0.00545658
-0.00351911
-0.0029721
4.29028e-05
-7.03349
-4.85483
-3.45899
-2.3828
-1.62451
-1.06788
-0.66701
-0.381603
-0.182433
-0.047183
0.0411796
0.0955616
0.125741
0.139013
0.140794
0.135029
0.124592
0.111531
0.0972945
0.0828821
0.0689671
0.0559847