/*--------------------------------*- C++ -*----------------------------------*\
  =========                 |
  \\      /  F ield         | OpenFOAM: The Open Source CFD Toolbox
   \\    /   O peration     | Website:  https://openfoam.org
    \\  /    A nd           | Version:  6.0
     \\/     M anipulation  |
\*---------------------------------------------------------------------------*/
FoamFile
{
    version     2.0;
    format      ascii;
    class       surfaceScalarField;
    location    "1";
    object      phi;
}
// * * * * * * * * * * * * * * * * * * * * * * * * * * * * * * * * * * * * * //

dimensions      [0 3 -1 0 0 0 0];

internalField   nonuniform List<scalar> 
4670
(
-6.01857e-05
-0.435115
0.435175
0.000212308
-0.369865
0.369592
0.000537359
-0.312021
0.311696
0.000808714
-0.260763
0.260491
0.00106642
-0.217412
0.217154
0.00140176
-0.181328
0.180993
0.00191767
-0.151553
0.151037
0.00270398
-0.127071
0.126285
0.00382377
-0.1069
0.10578
-0.0901973
0.0887101
0.00531092
2.11101e-05
-0.435136
0.000351886
-0.370196
0.000742857
-0.312412
0.00107785
-0.261098
0.00139188
-0.217726
0.00178509
-0.181722
0.00236986
-0.152138
0.00324347
-0.127945
0.00447364
-0.10813
-0.0918175
0.00609393
0.000140195
-0.435277
0.000536189
-0.370592
0.000970982
-0.312847
0.00134667
-0.261473
0.00170247
-0.218082
0.00214378
-0.182163
0.00279007
-0.152784
0.0037464
-0.128901
0.0050873
-0.109471
-0.0935794
0.00684913
0.000190847
-0.435467
0.000673325
-0.371074
0.00116915
-0.313342
0.00158354
-0.261888
0.00197011
-0.218468
0.00244476
-0.182638
0.00313516
-0.153475
0.00415488
-0.129921
0.00558713
-0.110903
-0.0954661
0.00747389
0.000255781
-0.435723
0.000806736
-0.371625
0.00134351
-0.313879
0.00177809
-0.262322
0.00217562
-0.218866
0.00266077
-0.183123
0.00336761
-0.154182
0.00441715
-0.13097
0.00590212
-0.112388
-0.0974369
0.0078729
0.000317325
-0.43604
0.000924486
-0.372232
0.001485
-0.31444
0.00191979
-0.262757
0.00230538
-0.219251
0.00277377
-0.183591
0.00346265
-0.15487
0.00449794
-0.132006
0.0059827
-0.113873
-0.0994343
0.00798009
0.000377289
-0.436418
0.00102668
-0.372882
0.00159098
-0.315004
0.00200395
-0.26317
0.00235337
-0.219601
0.00277667
-0.184014
0.00341163
-0.155505
0.00438466
-0.132979
0.00580965
-0.115298
-0.101394
0.0077698
0.000437575
-0.436855
0.00111718
-0.373561
0.00166474
-0.315551
0.00203179
-0.263537
0.00231973
-0.219889
0.00267009
-0.184365
0.00321671
-0.156052
0.00407911
-0.133841
0.00537588
-0.116595
-0.103232
0.00721394
0.000512607
-0.437368
0.00121038
-0.374259
0.00171578
-0.316057
0.0020112
-0.263832
0.00221362
-0.220091
0.00246542
-0.184617
0.00288923
-0.156476
0.00358326
-0.134535
0.00465354
-0.117665
-0.104837
0.00625755
0.000650796
-0.438019
0.00132047
-0.374929
0.0017518
-0.316488
0.001956
-0.264037
0.00206066
-0.220196
0.0022062
-0.184762
0.00249574
-0.156765
0.00298509
-0.135024
0.00372868
-0.118409
-0.10611
0.00500267
0.442314
0.000406598
-0.442721
0.441913
0.00040122
0.441462
0.000451065
0.44097
0.000491408
0.440451
0.000519235
0.439918
0.000533396
0.439392
0.000526238
0.438866
0.000525657
0.438405
0.000460654
0.000386458
0.378391
0.000174297
-0.378159
0.378454
0.000338563
0.378344
0.000561285
0.378093
0.000741779
0.377735
0.000878025
0.377285
0.000982799
0.376764
0.00104785
0.376195
0.0010944
0.375578
0.00107805
0.00103536
0.316325
-0.000678294
-0.315472
0.316945
-0.000280902
0.31738
0.000126013
0.317645
0.000476208
0.317751
0.000772676
0.317715
0.00101846
0.317553
0.00120953
0.317291
0.00135647
0.316932
0.0014375
0.00147906
0.260943
-0.00191321
-0.259708
0.261954
-0.00129141
0.262773
-0.00069359
0.263405
-0.000155572
0.26386
0.00031803
0.264149
0.000729402
0.264289
0.00106899
0.264315
0.00133102
0.264224
0.00152869
0.00166601
0.215954
-0.0033085
-0.214559
0.217126
-0.00246267
0.218091
-0.00165931
0.218858
-0.000921885
0.219436
-0.00026033
0.219846
0.000319388
0.220109
0.000806191
0.220241
0.00119928
0.220263
0.0015063
0.00173332
0.181106
-0.00466933
-0.179746
0.182231
-0.00358716
0.183134
-0.00256235
0.183827
-0.00161522
0.184327
-0.000760436
0.184657
-1.04809e-05
0.18484
0.0006237
0.184901
0.00113823
0.184866
0.0015415
0.00183672
0.15495
-0.00585227
-0.153767
0.15588
-0.00451695
0.156573
-0.00325533
0.157046
-0.00208847
0.157321
-0.00103561
0.157425
-0.000113948
0.157385
0.000662943
0.157237
0.00128711
0.157013
0.00176479
0.00208457
0.13571
-0.0067784
-0.134784
0.136366
-0.00517334
0.136772
-0.00366113
0.136949
-0.00226539
0.136923
-0.00100944
0.136723
8.53236e-05
0.136388
0.000998655
0.135958
0.0017168
0.135479
0.00224367
0.00253922
0.121671
-0.00742906
-0.12102
0.122038
-0.0055407
0.122145
-0.00376743
0.122015
-0.00213606
0.121679
-0.000673394
0.121171
0.000593962
0.120531
0.00163814
0.119819
0.00242879
0.1191
0.00296274
0.00323064
0.111394
-0.110994
-0.00782846
0.111502
-0.00564943
0.111346
-0.00361097
0.110953
-0.00174299
0.110355
-7.52618e-05
0.109587
0.00136118
0.108693
0.00253258
0.107741
0.00338117
0.106824
0.00387926
0.00394422
0.440772
-0.000510378
-0.440262
0.441395
-0.000622945
0.441946
-0.000550373
0.442346
-0.000400317
0.442648
-0.000301934
0.442849
-0.000200849
0.442946
-9.69209e-05
0.442942
3.21747e-06
0.442876
6.67778e-05
0.000155014
0.368611
-0.00231558
-0.366805
0.370257
-0.00226919
0.37178
-0.00207344
0.373191
-0.00181151
0.374447
-0.00155783
0.375539
-0.00129236
0.37646
-0.00101828
0.377215
-0.000752082
0.377777
-0.000495214
-0.000226884
0.299974
-0.00474695
-0.297543
0.302264
-0.00455925
0.304453
-0.00426203
0.306539
-0.00389782
0.308479
-0.00349709
0.310253
-0.00306637
0.31185
-0.00261536
0.313257
-0.00215917
0.314456
-0.00169473
-0.00124299
0.240268
-0.00757033
-0.237445
0.243006
-0.00729659
0.245651
-0.00690772
0.248182
-0.00642829
0.250566
-0.0058813
0.252783
-0.00528325
0.254816
-0.00464883
0.256651
-0.00399325
0.25828
-0.0033247
-0.00267081
0.192699
-0.0107621
-0.189507
0.19581
-0.0104077
0.198803
-0.00990021
0.201647
-0.00927229
0.204318
-0.00855274
0.206797
-0.00776241
0.209069
-0.00692087
0.211123
-0.00604683
0.212955
-0.00515663
-0.00427528
0.156796
-0.0142881
-0.15327
0.160206
-0.0138172
0.163443
-0.0131371
0.166479
-0.0123088
0.169297
-0.0113702
0.171881
-0.0103466
0.174222
-0.00926199
0.176314
-0.00813911
0.178156
-0.00699861
-0.0058647
0.130896
-0.0180708
-0.127114
0.134501
-0.017422
0.137864
-0.0165003
0.140968
-0.015412
0.1438
-0.0142026
0.146355
-0.0129014
0.148629
-0.0115358
0.150621
-0.0101309
0.152332
-0.00871031
-0.00729942
0.112853
-0.0220375
-0.108886
0.116543
-0.0211115
0.119918
-0.0198757
0.12298
-0.0184738
0.125726
-0.0169493
0.128158
-0.0153331
0.130276
-0.0136538
0.132083
-0.0119376
0.133583
-0.0102104
-0.00850006
0.100539
-0.0261186
-0.0964581
0.104188
-0.0247606
0.107482
-0.0231699
0.110431
-0.0214225
0.113035
-0.0195537
0.115299
-0.0175963
0.117223
-0.0155786
0.118814
-0.013528
0.120076
-0.0114728
-0.00944418
0.0920626
-0.0883563
-0.0298249
0.0956048
-0.0283027
0.0987798
-0.026345
0.101593
-0.0242358
0.104045
-0.0220056
0.106137
-0.0196877
0.10787
-0.0173124
0.109252
-0.0149093
0.110289
-0.01251
-0.0101495
0.0211702
0.0451678
-0.0402378
-0.0261002
0.0166244
0.0548877
-0.0503419
0.0126855
0.0698909
-0.065952
0.00951646
0.0920523
-0.0888833
0.00713815
0.123085
-0.120707
0.00537949
0.16415
-0.162391
0.00391755
0.215779
-0.214317
0.0024335
0.27818
-0.276696
0.000930917
0.350154
-0.348651
0.431225
-0.430294
0.0230558
0.0501857
-0.0280737
0.0183628
0.0595807
0.0142079
0.0740458
0.0107609
0.0954992
0.00807047
0.125776
0.0060074
0.166213
0.00428858
0.217498
0.00262358
0.279845
0.000985513
0.351792
0.43221
0.0246677
0.0552501
-0.0297321
0.0198733
0.064375
0.0155505
0.0783686
0.0118715
0.0991783
0.00890744
0.12874
0.00656849
0.168552
0.00461204
0.219454
0.00277945
0.281678
0.00103799
0.353533
0.433248
0.0259915
0.0603248
-0.0310663
0.0211382
0.0692284
0.0166944
0.0828124
0.0128299
0.103043
0.00963283
0.131937
0.00704761
0.171137
0.00487156
0.22163
0.00287631
0.283673
0.00106432
0.355345
0.434313
0.0270107
0.0653782
-0.0320641
0.022139
0.0741001
0.0176211
0.0873303
0.0136198
0.107044
0.0102343
0.135322
0.00743934
0.173932
0.00507089
0.223999
0.0029327
0.285811
0.00105752
0.35722
0.43537
0.0277012
0.0703794
-0.0327023
0.0228537
0.0789477
0.0183116
0.0918724
0.0142254
0.11113
0.0107001
0.138848
0.00773747
0.176895
0.00521344
0.226523
0.00296245
0.288062
0.00104019
0.359142
0.436411
0.0280249
0.0752891
-0.0329347
0.0232544
0.0837182
0.0187466
0.0963802
0.0146331
0.115244
0.0110205
0.14246
0.00793295
0.179982
0.00528609
0.22917
0.00295456
0.290394
0.00100787
0.361089
0.437418
0.0279257
0.0800334
-0.03267
0.0233098
0.0883342
0.0189108
0.100779
0.0148351
0.119319
0.0111922
0.146103
0.00803065
0.183144
0.005301
0.231899
0.00291772
0.292777
0.000968191
0.363039
0.438387
0.0273435
0.0844604
-0.0317705
0.023007
0.0926707
0.018812
0.104974
0.0148386
0.123293
0.0112181
0.149724
0.00802972
0.186332
0.00526597
0.234663
0.00288523
0.295158
0.00098163
0.364942
0.439368
0.0261658
-0.0300618
0.0223785
0.0184662
0.0146454
0.0110989
0.00792386
0.00514194
0.00275686
0.000893749
-0.0059312
0.00653219
-0.00338771
0.00278673
-0.00702336
0.023261
-0.0221689
-0.00667243
0.047425
-0.0477759
-0.0053836
0.079049
-0.0803378
-0.00365711
0.117741
-0.119467
-0.00195838
0.162949
-0.164648
-0.000635883
0.21464
-0.215963
0.000105979
0.273925
-0.274667
0.000216137
0.342101
-0.342212
0.423638
-0.423422
-0.00337274
0.00927394
0.000630989
-0.00483348
0.0247218
-0.00499945
0.0475909
-0.00415587
0.0782054
-0.00275957
0.116345
-0.00129948
0.161489
-0.000164482
0.213505
0.000412955
0.273348
0.000380141
0.342134
0.424018
-0.000508718
0.0120722
-0.00228955
-0.00236674
0.0265798
-0.00306664
0.0482908
-0.00273307
0.0778718
-0.00174494
0.115356
-0.000585336
0.16033
0.000320358
0.2126
0.00070073
0.272967
0.000492042
0.342343
0.42451
0.00245219
0.0151589
-0.00553888
0.000181171
0.0288508
-0.00102629
0.0494983
-0.00120408
0.0780496
-0.000653579
0.114806
0.000167054
0.159509
0.00080964
0.211957
0.000973637
0.272803
0.000587703
0.342729
0.425098
0.00544566
0.0185906
-0.00887739
0.00275922
0.0315373
0.00106515
0.0511924
0.000385682
0.0787291
0.000485622
0.114706
0.000942449
0.159052
0.00130254
0.211597
0.00123955
0.272866
0.000676449
0.343292
0.425774
0.008415
0.0223669
-0.0121913
0.00532523
0.034627
0.00316739
0.0533502
0.00200266
0.0798938
0.0016516
0.115057
0.00173093
0.158973
0.00179407
0.211534
0.00149796
0.273162
0.000756434
0.344033
0.426531
0.0113053
0.0264626
-0.015401
0.00783874
0.0380936
0.00524557
0.0559434
0.00361747
0.0815219
0.00282388
0.115851
0.00252323
0.159274
0.00227909
0.211778
0.00174218
0.273699
0.000828215
0.344947
0.427359
0.0140673
0.0308383
-0.0184429
0.0102618
0.041899
0.00726869
0.0589365
0.00520469
0.0835859
0.00398333
0.117072
0.00330571
0.159951
0.00275696
0.212327
0.00198061
0.274476
0.000895181
0.346033
0.428254
0.0166579
0.0354468
-0.0212664
0.0125587
0.0459982
0.00920709
0.0622881
0.00674047
0.0860525
0.00511276
0.1187
0.00406868
0.160995
0.0032196
0.213176
0.00221984
0.275475
0.000976902
0.347276
0.429231
0.019042
-0.023833
0.0146983
0.0110344
0.00820364
0.00619626
0.00480036
0.00365919
0.0024382
0.00106304
-0.000172296
-0.00758048
0.00436506
0.00120089
-0.010174
0.00880082
0.00134813
-0.0138139
0.0136667
0.000499694
-0.0174917
0.0183401
-0.00125056
-0.020713
0.0224632
-0.00381568
-0.0233326
0.0258978
-0.00709816
-0.0253171
0.0285996
-0.0109867
-0.0266885
0.0305771
-0.0153626
-0.0275054
0.0318812
-0.0278492
-0.020107
0.0325936
-0.0212663
-0.00848308
-0.0210807
-0.0103595
-0.0219161
-0.0129785
-0.0237362
-0.0156716
-0.0264058
-0.0180433
-0.0297846
-0.0199538
-0.0337325
-0.0213693
-0.0381113
-0.0223097
-0.0427914
-0.0228253
-0.0229836
-0.047657
-0.04838
-0.007879
-0.0494177
-0.00932178
-0.0512147
-0.0111816
-0.0538013
-0.013085
-0.0570635
-0.0147811
-0.0608582
-0.0161591
-0.0650427
-0.0171847
-0.0694854
-0.0178671
-0.0740712
-0.0182395
-0.018349
-0.0787057
-0.0818896
-0.00632721
-0.083767
-0.00744432
-0.0861784
-0.00877022
-0.0891468
-0.0101166
-0.0925866
-0.0113414
-0.0963808
-0.0123649
-0.100412
-0.0131539
-0.104573
-0.0137059
-0.108775
-0.0140369
-0.0141741
-0.11295
-0.121437
-0.0043572
-0.123656
-0.00522596
-0.126231
-0.00619448
-0.129173
-0.00717544
-0.132422
-0.00809228
-0.135897
-0.00888928
-0.139514
-0.00953686
-0.143195
-0.010025
-0.146875
-0.0103574
-0.0105465
-0.150502
-0.166573
-0.0024324
-0.168694
-0.00310516
-0.171061
-0.00382772
-0.173676
-0.00456017
-0.176506
-0.00526259
-0.179498
-0.00589649
-0.182596
-0.00643891
-0.185743
-0.00687784
-0.188889
-0.00721164
-0.00744326
-0.191992
-0.217517
-0.000878737
-0.219247
-0.00137504
-0.221175
-0.00189918
-0.223306
-0.00242938
-0.22562
-0.00294903
-0.228084
-0.00343188
-0.230659
-0.003864
-0.233302
-0.00423548
-0.235967
-0.00454567
-0.00479282
-0.238618
-0.275654
0.000108371
-0.276817
-0.000212222
-0.278169
-0.000547393
-0.279721
-0.000877319
-0.281461
-0.00120875
-0.283369
-0.00152368
-0.285415
-0.00181844
-0.287564
-0.00208616
-0.289778
-0.00233161
-0.00255691
-0.292014
-0.342484
0.000380687
-0.342934
0.000237928
-0.34357
8.8606e-05
-0.34441
-3.74128e-05
-0.345446
-0.00017295
-0.346665
-0.000304112
-0.348049
-0.000434643
-0.349576
-0.000559799
-0.35122
-0.000687342
-0.000839542
-0.352937
-0.423041
-0.422803
-0.422715
-0.422752
-0.422925
-0.423229
-0.423664
-0.424224
-0.424911
-0.42575
-0.0251175
-0.0278055
0.032816
-0.0302903
-0.0275122
0.032685
-0.0355573
-0.0270672
0.0323342
-0.0408898
-0.0265673
0.0318997
-0.046305
-0.0260569
0.031472
-0.0518624
-0.0254683
0.0310257
-0.0576334
-0.0245351
0.030306
-0.0635876
-0.0227135
0.0286677
-0.0695348
-0.0191112
0.0250584
-0.012644
-0.0759336
0.0190428
-0.0526243
-0.0228382
-0.0576114
-0.0225251
-0.0625843
-0.0220942
-0.0675506
-0.0216009
-0.0725622
-0.0210453
-0.0777004
-0.02033
-0.0830228
-0.0192127
-0.0884442
-0.0172921
-0.0935366
-0.0140189
-0.00904251
-0.097138
-0.0833354
-0.0182085
-0.087902
-0.0179585
-0.0923956
-0.0176007
-0.0968397
-0.0171568
-0.101283
-0.0166023
-0.105768
-0.0158451
-0.110273
-0.0147074
-0.114622
-0.0129434
-0.118354
-0.0102865
-0.00677256
-0.120624
-0.117071
-0.0140874
-0.121094
-0.0139357
-0.125017
-0.0136773
-0.128861
-0.0133134
-0.132647
-0.0128162
-0.136374
-0.012118
-0.139976
-0.0111054
-0.143274
-0.00964571
-0.145926
-0.00763411
-0.00521795
-0.147481
-0.15407
-0.0105194
-0.157536
-0.0104702
-0.160896
-0.0103171
-0.164155
-0.0100541
-0.167312
-0.0096601
-0.170341
-0.0090885
-0.173172
-0.00827407
-0.175666
-0.00715185
-0.177605
-0.00569525
-0.00405258
-0.17877
-0.195057
-0.00745493
-0.198033
-0.00749368
-0.20091
-0.00744025
-0.203679
-0.00728569
-0.206324
-0.00701446
-0.208815
-0.00659757
-0.211087
-0.00600202
-0.213044
-0.00519537
-0.21455
-0.00418935
-0.00310077
-0.215501
-0.241267
-0.00480617
-0.243853
-0.00490716
-0.246357
-0.00493655
-0.24876
-0.00488272
-0.251039
-0.00473533
-0.253159
-0.00447771
-0.255067
-0.00409391
-0.256693
-0.003569
-0.257952
-0.00293097
-0.00226367
-0.258789
-0.294293
-0.0025268
-0.296546
-0.00265477
-0.298744
-0.00273788
-0.300868
-0.00275873
-0.302883
-0.0027206
-0.304756
-0.00260509
-0.306432
-0.00241796
-0.307865
-0.00213535
-0.308994
-0.00180221
-0.00148381
-0.309774
-0.354702
-0.000762102
-0.356498
-0.000858288
-0.358297
-0.00093895
-0.360075
-0.000980861
-0.361794
-0.00100149
-0.36341
-0.000989611
-0.364878
-0.000950072
-0.366159
-0.000854049
-0.367199
-0.000762482
-0.000719229
-0.367963
-0.426513
-0.427371
-0.42831
-0.429291
-0.430292
-0.431282
-0.432232
-0.433086
-0.433848
-0.434568
0.000283636
-0.434851
0.000808851
-0.368488
0.00138364
-0.310349
0.00193876
-0.259344
0.00247843
-0.216041
0.00300683
-0.179299
0.00350628
-0.14798
0.00398944
-0.121107
0.00464018
-0.0977888
-0.0769087
0.00561529
0.000189426
-0.435041
0.00052448
-0.368824
0.000882945
-0.310707
0.00120954
-0.259671
0.00151179
-0.216343
0.00182489
-0.179612
0.00218597
-0.148341
0.00262788
-0.121549
0.00321392
-0.0983748
-0.0780382
0.00434342
0.000116863
-0.435157
0.000305786
-0.369012
0.000507246
-0.310909
0.00067632
-0.25984
0.000825045
-0.216492
0.00100867
-0.179796
0.00130343
-0.148636
0.0017919
-0.122037
0.0025764
-0.0991593
-0.0793092
0.00384737
3.23287e-05
-0.43519
0.000133829
-0.369114
0.000249393
-0.311024
0.000337195
-0.259927
0.000418299
-0.216573
0.000561319
-0.179939
0.000858527
-0.148933
0.00140809
-0.122587
0.00230919
-0.10006
-0.0806712
0.00367123
-2.17021e-05
-0.435168
2.71351e-05
-0.369163
9.91634e-05
-0.311096
0.000149182
-0.259977
0.000201812
-0.216626
0.000332357
-0.180069
0.000639046
-0.14924
0.00122182
-0.12317
0.00216855
-0.101007
-0.0820547
0.003552
-5.8956e-05
-0.435109
-2.86644e-05
-0.369193
3.73901e-05
-0.311162
8.44382e-05
-0.260024
0.000136368
-0.216678
0.000270437
-0.180203
0.000584566
-0.149554
0.00117475
-0.12376
0.00211987
-0.101952
-0.0834116
0.00347681
-7.24552e-05
-0.435037
-3.2619e-05
-0.369233
5.29649e-05
-0.311248
0.000119619
-0.260091
0.000188468
-0.216747
0.000336953
-0.180352
0.00066135
-0.149878
0.00125264
-0.124351
0.00218267
-0.102882
-0.0847295
0.00350055
-6.70566e-05
-0.43497
8.47786e-06
-0.369308
0.000134281
-0.311374
0.000237244
-0.260194
0.000336879
-0.216846
0.000511418
-0.180526
0.000856525
-0.150224
0.00145956
-0.124954
0.00238703
-0.10381
-0.0860253
0.00368284
4.57018e-05
-0.435015
0.000152847
-0.369416
0.000296644
-0.311518
0.000429812
-0.260327
0.000564549
-0.216981
0.000775403
-0.180737
0.00115654
-0.150605
0.00179294
-0.125591
0.00274724
-0.104764
-0.0873367
0.00405865
0.000160072
0.000336806
0.000514997
0.000678955
0.000851993
0.00110797
0.00154069
0.00223471
0.00325089
0.00462429
0.0158937
-0.24263
0.232047
0.0314198
-0.0828497
0.0673236
0.0459532
-0.00128538
-0.013248
0.0567642
0.0273387
-0.0381497
0.0639455
0.0332526
-0.0404339
0.0684933
0.0313396
-0.0358873
0.0713169
0.0275661
-0.0303898
0.0730347
0.0237863
-0.0255041
0.0740317
0.0203826
-0.0213796
0.0745464
0.0173573
-0.017872
0.0747309
0.0146591
-0.0148436
0.0746843
0.012247
-0.0122004
0.0744733
0.0100985
-0.00988745
0.0741427
0.00820433
-0.00787369
0.073722
0.00656087
-0.00614015
0.0732308
0.00515544
-0.00466424
0.0726806
0.00397774
-0.00342759
0.0720758
0.0029976
-0.00239274
0.0714203
0.00220655
-0.00155106
0.00132072
-0.000613152
0.0155794
-0.252115
0.0307184
-0.0979888
0.0453012
-0.0158681
0.056225
0.0164149
0.0635096
0.0259681
0.0681234
0.0267258
0.0709822
0.0247073
0.0727184
0.0220501
0.0737271
0.0193739
0.0742526
0.0168318
0.0744497
0.0144619
0.0744192
0.0122775
0.074228
0.0102896
0.0739212
0.0085112
0.0735281
0.00695388
0.0730683
0.00561536
0.072553
0.00449304
0.0719862
0.00356438
0.0713721
0.00282064
0.00198372
0.0151859
-0.260452
0.0297917
-0.112595
0.0443093
-0.0303857
0.0552819
0.00544231
0.0626521
0.0185978
0.0673405
0.0220374
0.0702536
0.0217942
0.0720301
0.0202736
0.0730732
0.0183308
0.0736327
0.0162724
0.0738665
0.0142281
0.0738771
0.0122669
0.0737324
0.0104343
0.0734779
0.00876571
0.0731431
0.00728868
0.0727474
0.00601101
0.0723023
0.0049382
0.0718117
0.00405492
0.0712799
0.00335244
0.00255821
0.014616
-0.267594
0.0285976
-0.126576
0.0429653
-0.0447534
0.0539386
-0.00553101
0.0613816
0.0111549
0.0661533
0.0172657
0.0691387
0.0188088
0.0709766
0.0184356
0.0720759
0.0172315
0.0726917
0.0156566
0.0729854
0.0139343
0.0730617
0.0121906
0.0729898
0.0105062
0.0728156
0.00893984
0.0725692
0.00753509
0.0722702
0.00631003
0.0719301
0.00527827
0.0715534
0.00443171
0.0711443
0.00376153
0.00300068
0.0137989
-0.27352
0.0271086
-0.139886
0.0412622
-0.0589071
0.0522036
-0.0164723
0.0597106
0.00364785
0.0645742
0.012402
0.0676486
0.0157345
0.0695673
0.0165169
0.0707433
0.0160555
0.0714367
0.0149632
0.0718128
0.0135582
0.0719787
0.0120248
0.0720049
0.01048
0.0719386
0.00900617
0.0718101
0.00766357
0.0716396
0.00648061
0.0714388
0.00547903
0.0712126
0.00465787
0.0709659
0.00400823
0.00326846
0.0126954
-0.278236
0.0252984
-0.152489
0.0391917
-0.0728004
0.0500871
-0.0273678
0.0576558
-0.00392079
0.0626198
0.007438
0.0657978
0.0125565
0.0678147
0.0145
0.0690861
0.0147841
0.069877
0.0141724
0.0703568
0.0130784
0.070635
0.0117465
0.0707842
0.0103308
0.0708523
0.00893806
0.0708705
0.00764539
0.0708593
0.00649178
0.0708312
0.0055071
0.0707916
0.00469746
0.070746
0.0040539
0.00331998
0.0111171
-0.281583
0.0230411
-0.164413
0.0367046
-0.0864639
0.047586
-0.0382491
0.0552309
-0.0115657
0.0603075
0.00236141
0.063603
0.00926094
0.0657337
0.0123693
0.0671173
0.0134005
0.0680239
0.0132657
0.0686272
0.0124751
0.0690396
0.0113341
0.0693353
0.0100352
0.0695634
0.0087099
0.069756
0.00745278
0.0699342
0.00631357
0.0701112
0.00533018
0.0702929
0.00451567
0.0704857
0.00386111
0.003115
0.00865148
-0.283021
0.0201402
-0.175902
0.0337063
-0.10003
0.0446668
-0.0492096
0.0524347
-0.0193335
0.0576487
-0.00285262
0.0610793
0.00583039
0.0633391
0.0101095
0.0648507
0.0118888
0.0658902
0.0122262
0.0666357
0.0117296
0.0672027
0.0107671
0.0676673
0.00957055
0.06808
0.00829718
0.0684737
0.00705915
0.06887
0.00591722
0.0692829
0.00491727
0.0697195
0.00407908
0.0701867
0.00339389
0.00261487
0.00606141
-0.282824
0.0170519
-0.186892
0.0303353
-0.113313
0.0413639
-0.0602382
0.0492834
-0.0272531
0.054659
-0.00822827
0.0582423
0.00224711
0.0606464
0.0077054
0.0623011
0.0102342
0.0634893
0.011038
0.0643946
0.0108244
0.0651356
0.0100261
0.0657905
0.00891562
0.0664111
0.00767656
0.0670312
0.00643913
0.0676731
0.00527529
0.0683516
0.00423876
0.0690749
0.00335579
0.0698508
0.00261797
0.00178276
0.00635106
-0.284173
0.0151786
-0.19572
0.0272352
-0.12537
0.0379647
-0.0709676
0.0459141
-0.0352025
0.0514087
-0.0137228
0.0551318
-0.00147593
0.0576809
0.00515622
0.0594866
0.00842852
0.0608361
0.0096885
0.0619166
0.0097439
0.0628497
0.00909299
0.0637152
0.00805009
0.064566
0.00682576
0.0654367
0.00556846
0.0663504
0.00436162
0.0673226
0.00326652
0.0683628
0.00231557
0.0694799
0.0015009
0.000583843
0.126153
-0.232405
-0.177921
0.103266
-0.172832
0.0967774
-0.118882
0.0998433
-0.0740334
0.105656
-0.0410151
0.111263
-0.0193301
0.115791
-0.0060041
0.119172
0.00177554
0.121597
0.00600365
0.123297
0.00798834
0.124471
0.00856936
0.125273
0.00829132
0.125815
0.00750827
0.126177
0.00646327
0.126418
0.00532814
0.126576
0.00420387
0.126678
0.0031641
0.126742
0.00225155
0.126781
0.0014616
0.000567735
0.151057
-0.187029
-0.196433
0.129328
-0.151103
0.12106
-0.110613
0.121694
-0.0746676
0.126151
-0.0454725
0.131256
-0.0244353
0.135741
-0.010489
0.139272
-0.00175505
0.141897
0.00337879
0.143785
0.00609987
0.145117
0.00723774
0.146043
0.00736536
0.146681
0.00687045
0.147116
0.00602795
0.147411
0.00503285
0.147609
0.00400583
0.14774
0.00303316
0.147824
0.00216746
0.147876
0.00140995
0.00054721
0.18414
-0.146844
-0.224324
0.16172
-0.128684
0.151361
-0.100254
0.149181
-0.072488
0.151598
-0.0478891
0.15561
-0.0284474
0.159643
-0.0145221
0.163077
-0.0051891
0.165768
0.000688212
0.167778
0.00408942
0.169239
0.00577718
0.170281
0.00632273
0.171018
0.0061342
0.171533
0.00551286
0.171891
0.00467452
0.172137
0.00375985
0.172303
0.00286733
0.172412
0.00205838
0.172479
0.0013427
0.000521095
0.223479
-0.112041
-0.258283
0.20057
-0.105774
0.188106
-0.0877895
0.183018
-0.0674
0.18289
-0.0477613
0.185234
-0.0307918
0.188343
-0.0176311
0.191349
-0.00819528
0.1939
-0.00186207
0.195916
0.00207295
0.197447
0.00424628
0.198582
0.005188
0.19941
0.00530552
0.200009
0.00491451
0.200437
0.00424592
0.200739
0.00345777
0.200948
0.0026592
0.201087
0.0019186
0.201174
0.00125579
0.000487789
0.268114
-0.0825932
-0.297562
0.245499
-0.0831588
0.231261
-0.0735514
0.223542
-0.0596815
0.220716
-0.044935
0.220975
-0.0310509
0.222718
-0.0193737
0.224931
-0.0104089
0.227084
-0.00401411
0.228944
0.000212287
0.230454
0.00273601
0.231637
0.00400566
0.232541
0.00440098
0.233222
0.00423401
0.233727
0.00374109
0.234093
0.00309097
0.234353
0.00240015
0.23453
0.00174136
0.234641
0.00114428
0.000445179
0.317311
-0.0584244
-0.34148
0.296194
-0.0620412
0.280915
-0.0582726
0.271079
-0.0498458
0.265718
-0.0395742
0.263685
-0.0290172
0.263702
-0.0193914
0.264765
-0.0114714
0.266229
-0.00547842
0.267732
-0.00129059
0.269097
0.00137096
0.27026
0.00284323
0.27121
0.00345049
0.271965
0.00347906
0.27255
0.0031563
0.27299
0.00265088
0.273309
0.0020806
0.273532
0.0015188
0.273674
0.00100227
0.000390744
0.371513
-0.0391187
-0.390818
0.352772
-0.0433004
0.337373
-0.0428733
0.326052
-0.0385252
0.318524
-0.0320463
0.314208
-0.0247007
0.31227
-0.0174539
0.311873
-0.0110737
0.312359
-0.00596496
0.313279
-0.00221035
0.314347
0.00030273
0.3154
0.00178989
0.316353
0.00249799
0.317167
0.00266504
0.317832
0.00249096
0.318354
0.00212965
0.318744
0.00169058
0.31902
0.00124217
0.319199
0.000823237
0.000321665
0.432097
-0.0238397
-0.447376
0.415987
-0.0271904
0.401196
-0.0280827
0.388997
-0.0263262
0.37973
-0.0227793
0.373307
-0.018278
0.369346
-0.013493
0.367285
-0.00901278
0.366559
-0.00523821
0.366689
-0.00234018
0.367308
-0.000316776
0.368157
0.000941348
0.369061
0.00159404
0.369914
0.00181185
0.370658
0.00174683
0.371267
0.00152026
0.371738
0.00122024
0.372077
0.000902325
0.3723
0.000600323
0.000235005
0.501312
-0.011371
-0.51378
0.487331
-0.0132096
0.473294
-0.0140453
0.460548
-0.0135803
0.449866
-0.0120975
0.441576
-0.00998807
0.435682
-0.00759961
0.431923
-0.00525335
0.429883
-0.00319812
0.42911
-0.00156759
0.429188
-0.000393954
0.429768
0.00036056
0.43059
0.000772376
0.43147
0.000931512
0.432295
0.000922521
0.433
0.000814883
0.43356
0.00065998
0.433972
0.000490583
0.434245
0.000327207
0.000128131
0.582174
-0.593545
0.568964
0.554919
0.541339
0.529241
0.519253
0.511653
0.5064
0.503202
0.501634
0.50124
0.501601
0.502373
0.503305
0.504227
0.505042
0.505702
0.506193
0.50652
0.224705
-0.00774013
-0.224794
0.223678
-0.00462206
0.221668
-0.00160113
0.218639
0.00128647
0.214559
0.00400491
0.209402
0.006518
0.203141
0.00879332
0.195744
0.0107786
0.187162
0.0124606
0.0131852
0.234814
-0.00676899
-0.235785
0.233222
-0.00302995
0.230989
0.000632239
0.228099
0.00417578
0.224547
0.00755761
0.22033
0.0107346
0.215456
0.0136676
0.209925
0.01631
0.203721
0.0186637
0.0204733
0.252105
-0.00540071
-0.253474
0.250451
-0.00137603
0.248499
0.00258441
0.246233
0.00644175
0.243633
0.0101575
0.240672
0.0136954
0.237316
0.0170238
0.233515
0.0201114
0.229226
0.0229529
0.0253747
0.274568
-0.00396586
-0.276003
0.27311
8.16462e-05
0.271616
0.0040786
0.270067
0.00799076
0.268441
0.0117837
0.266712
0.0154236
0.264859
0.0188777
0.262855
0.0221148
0.260692
0.0251157
0.0277842
0.30152
-0.0026889
-0.302797
0.300457
0.00114467
0.299599
0.00493647
0.298933
0.00865655
0.298441
0.0122755
0.2981
0.0157647
0.297881
0.0190969
0.297749
0.0222471
0.29767
0.0251948
0.0278922
0.333699
-0.00166209
-0.334725
0.333092
0.00175084
0.332899
0.0051294
0.333107
0.00844853
0.333699
0.0116837
0.334653
0.014811
0.335942
0.0178079
0.337536
0.0206534
0.339402
0.0233286
0.0258139
0.372377
-0.000903059
-0.373136
0.372219
0.00190883
0.372655
0.00469309
0.373675
0.00742929
0.375261
0.0100974
0.377394
0.0126781
0.380048
0.0151534
0.383195
0.0175068
0.3868
0.0197233
0.0217958
0.419243
-0.000400636
-0.419746
0.419509
0.00164313
0.420536
0.00366627
0.422312
0.00565355
0.424819
0.00759016
0.428035
0.00946199
0.431932
0.0112558
0.43648
0.0129594
0.441641
0.0145622
0.016061
0.476575
-0.000125763
-0.476849
0.477234
0.000984122
0.478818
0.00208208
0.481312
0.00315936
0.484694
0.00420747
0.488938
0.0052184
0.494009
0.00618473
0.499869
0.00709949
0.506474
0.00795688
0.00875512
0.547897
-0.548023
0.548881
0.550963
0.554123
0.55833
0.563549
0.569733
0.576833
0.58479
0.191225
-0.0338344
-0.187216
0.197547
-0.0346244
0.203313
-0.0321114
0.208412
-0.0293345
0.212909
-0.0265028
0.216771
-0.0235493
0.219938
-0.02048
0.222363
-0.0173339
0.223998
-0.014145
-0.0109453
0.220125
-0.0373503
-0.216609
0.223742
-0.0382417
0.227059
-0.0354285
0.229852
-0.0321276
0.232134
-0.028784
0.233928
-0.0253432
0.235213
-0.0217652
0.235964
-0.0180855
0.236162
-0.014343
-0.0105684
0.253679
-0.0390194
-0.25201
0.25476
-0.0393232
0.255586
-0.036254
0.25611
-0.0326517
0.256324
-0.0289982
0.256269
-0.0252877
0.255961
-0.0214572
0.255396
-0.017521
0.254569
-0.0135159
-0.00947271
0.288404
-0.0384884
-0.288935
0.28711
-0.0380297
0.285764
-0.0349079
0.28442
-0.0313076
0.283048
-0.0276263
0.281652
-0.0238921
0.280249
-0.0200535
0.278841
-0.0161131
0.277426
-0.0121016
-0.00804898
0.324152
-0.0359381
-0.326702
0.320937
-0.0348146
0.317874
-0.0318449
0.315069
-0.0285026
0.31249
-0.0250481
0.310118
-0.0215193
0.307957
-0.0178926
0.306015
-0.0141718
0.304296
-0.0103818
-0.00655026
0.362668
-0.031603
-0.367003
0.357988
-0.0301345
0.353629
-0.0274859
0.349698
-0.0245717
0.346183
-0.0215334
0.343067
-0.0184033
0.340355
-0.0151801
0.338056
-0.0118734
0.336179
-0.00850437
-0.00509671
0.406375
-0.0256979
-0.412281
0.400482
-0.0242413
0.395065
-0.0220689
0.390206
-0.0197127
0.385913
-0.0172405
0.382186
-0.0146759
0.379034
-0.0120278
0.376469
-0.00930883
0.374502
-0.00653681
-0.00373133
0.457715
-0.0184141
-0.464999
0.450738
-0.0172638
0.444373
-0.0157047
0.438684
-0.0140231
0.433692
-0.0122486
0.429413
-0.0103972
0.425865
-0.00847947
0.423063
-0.00650729
0.421021
-0.00449451
-0.00245604
0.519688
-0.00985549
-0.528246
0.511644
-0.0092204
0.50433
-0.00839048
0.497801
-0.00749457
0.492096
-0.00654356
0.487245
-0.00554612
0.483275
-0.00450942
0.480209
-0.00344097
0.478063
-0.00234897
-0.00124209
0.59676
-0.606615
0.587539
0.579149
0.571654
0.56511
0.559564
0.555055
0.551614
0.549265
0.126832
0.00788428
-0.00784972
0.12671
0.0239122
-0.0237897
0.126476
0.0387462
-0.0385127
0.126226
0.0513189
-0.0510683
0.126189
0.062774
-0.0627368
0.12689
0.075375
-0.0760766
0.129324
0.0913398
-0.0937733
0.13477
0.115882
-0.121329
0.151969
0.13702
-0.154219
0.192255
-0.227501
0.148087
0.00780912
0.148252
0.0237472
0.148486
0.0385128
0.148908
0.0508965
0.149846
0.061836
0.151964
0.0732574
0.156506
0.0867973
0.165579
0.106809
0.18617
0.116429
0.161816
0.172892
0.00758954
0.173477
0.0231618
0.174396
0.0375934
0.175767
0.0495258
0.177995
0.0596084
0.181804
0.0694477
0.188642
0.0799596
0.200582
0.0948691
0.219941
0.0970704
0.129747
0.201843
0.0071845
0.202984
0.0220206
0.204812
0.035766
0.207407
0.0469305
0.211187
0.0558286
0.216826
0.0638081
0.225626
0.0711604
0.239272
0.0812229
0.256873
0.0794694
0.0976854
0.235621