/*--------------------------------*- C++ -*----------------------------------*\
  =========                 |
  \\      /  F ield         | OpenFOAM: The Open Source CFD Toolbox
   \\    /   O peration     | Website:  https://openfoam.org
    \\  /    A nd           | Version:  6.0
     \\/     M anipulation  |
\*---------------------------------------------------------------------------*/
FoamFile
{
    version     2.0;
    format      ascii;
    class       volVectorField;
    location    "14";
    object      U;
}
// * * * * * * * * * * * * * * * * * * * * * * * * * * * * * * * * * * * * * //

dimensions      [0 1 -1 0 0 0 0];

internalField   nonuniform List<vector> 
2400
(
(0.435369 -4.19781 -1.84774e-19)
(0.162121 -3.44456 7.21743e-20)
(0.236401 -3.01754 -5.62499e-20)
(0.351246 -2.75736 -3.32891e-20)
(0.448965 -2.58358 -4.15545e-20)
(0.539022 -2.45203 6.08155e-20)
(0.620932 -2.34075 1.86685e-20)
(0.692296 -2.23914 1.36872e-20)
(0.753625 -2.14137 -3.03697e-20)
(0.805187 -2.04229 -2.84408e-21)
(0.769007 -4.1743 2.26707e-19)
(0.448798 -3.49237 -5.37679e-21)
(0.499173 -3.09554 4.83463e-20)
(0.599683 -2.8487 3.18309e-19)
(0.686266 -2.67912 -2.22257e-19)
(0.765485 -2.54501 -5.59957e-21)
(0.835956 -2.42705 -4.85361e-21)
(0.895258 -2.3169 -2.64135e-20)
(0.944348 -2.21023 -2.84037e-20)
(0.983611 -2.10291 -8.23263e-22)
(1.10273 -4.12803 4.39647e-19)
(0.744382 -3.52194 3.25409e-19)
(0.7747 -3.15576 -8.106e-19)
(0.861864 -2.92114 2.33221e-19)
(0.936599 -2.75431 3.07043e-19)
(1.00326 -2.61645 -1.71525e-19)
(1.06014 -2.49114 -1.38757e-19)
(1.10523 -2.37238 9.14219e-20)
(1.14017 -2.25734 -1.86184e-19)
(1.16543 -2.14316 1.90388e-19)
(1.43488 -4.05835 -1.513e-18)
(1.04776 -3.53123 5.52176e-19)
(1.06155 -3.1954 -5.44559e-19)
(1.13583 -2.97163 2.24731e-19)
(1.19754 -2.80619 -2.15968e-19)
(1.24963 -2.66376 2.96078e-19)
(1.29065 -2.53093 9.18016e-20)
(1.31942 -2.40402 -4.23924e-19)
(1.33851 -2.28166 -3.27274e-19)
(1.34839 -2.16243 3.57992e-19)
(1.76399 -3.96476 7.11072e-20)
(1.35755 -3.5182 -2.30639e-19)
(1.35786 -3.21175 -1.17712e-19)
(1.41919 -2.99732 -1.14992e-19)
(1.46631 -2.83218 -5.94756e-19)
(1.50161 -2.6848 7.0988e-20)
(1.52451 -2.54482 -5.55994e-20)
(1.53499 -2.41074 4.60431e-19)
(1.53677 -2.28253 -3.14391e-19)
(1.53022 -2.16043 -1.74279e-19)
(2.08834 -3.84676 1.46881e-18)
(1.67191 -3.48086 -1.31177e-19)
(1.6613 -3.20229 1.5906e-18)
(1.70912 -2.99576 -2.21946e-19)
(1.73981 -2.8302 7.58745e-19)
(1.75609 -2.67803 -1.03794e-19)
(1.75873 -2.5318 1.49409e-20)
(1.74921 -2.39196 4.16844e-19)
(1.73242 -2.25964 -2.28828e-19)
(1.70875 -2.13688 3.0549e-19)
(2.40613 -3.70402 -5.861e-19)
(1.98864 -3.41745 1.10923e-19)
(1.9691 -3.16485 -4.1717e-19)
(2.00248 -2.96497 -4.08915e-19)
(2.01477 -2.79872 1.89927e-20)
(2.00991 -2.64248 1.22646e-18)
(1.99046 -2.49147 -4.21997e-19)
(1.95958 -2.3477 1.26729e-19)
(1.92342 -2.21314 -5.87207e-19)
(1.88245 -2.09176 -2.67964e-19)
(2.71555 -3.53648 2.57656e-18)
(2.30531 -3.3265 -3.7791e-19)
(2.27818 -3.09768 -2.36148e-18)
(2.29582 -2.90341 1.20358e-19)
(2.28768 -2.7367 4.40113e-19)
(2.25972 -2.57766 -5.90055e-19)
(2.21671 -2.42381 -7.19928e-19)
(2.16366 -2.27825 1.03201e-18)
(2.10792 -2.14343 -9.14558e-20)
(2.05011 -2.02602 -7.6862e-19)
(3.01493 -3.34427 -2.16652e-18)
(2.61934 -3.20682 1.1257e-18)
(2.5853 -2.99942 1.56873e-18)
(2.58563 -2.81011 3.60775e-19)
(2.55505 -2.64357 -1.28494e-18)
(2.50216 -2.48333 7.8206e-19)
(2.43422 -2.3287 4.13858e-19)
(2.35814 -2.18336 8.3847e-19)
(2.28215 -2.05054 -5.39386e-19)
(2.20695 -1.942 -6.78792e-19)
(3.30227 -3.12724 7.198e-19)
(2.92791 -3.05735 -2.73972e-19)
(2.88714 -2.86933 -6.49254e-20)
(2.86856 -2.68482 3.66085e-19)
(2.81389 -2.51951 2.82694e-19)
(2.73475 -2.35976 -2.12992e-19)
(2.64079 -2.20606 -3.51661e-19)
(2.54022 -2.06243 5.60146e-19)
(2.44042 -1.93419 -4.46406e-19)
(2.34217 -1.8386 4.09364e-19)
(4.97236 0.13973 4.7072e-20)
(4.93081 -0.249267 1.46472e-19)
(4.8569 -0.630376 -4.63041e-19)
(4.75224 -1.00104 4.20424e-19)
(4.61825 -1.35883 1.67419e-19)
(4.45663 -1.70148 2.09968e-18)
(4.26928 -2.02699 -8.29796e-19)
(4.05832 -2.33362 -1.14795e-18)
(3.8257 -2.61993 1.2723e-18)
(3.57416 -2.88451 -2.2065e-18)
(4.97103 -0.135233 1.4058e-19)
(4.89594 -0.513938 -6.54289e-20)
(4.78531 -0.880948 -4.0866e-19)
(4.64128 -1.23286 1.09884e-18)
(4.4662 -1.56655 -3.77486e-19)
(4.26276 -1.87921 2.90482e-18)
(4.03393 -2.16841 -1.89682e-18)
(3.78294 -2.43218 2.69372e-18)
(3.51287 -2.66897 -1.89575e-18)
(3.22725 -2.8776 -9.54985e-19)
(4.83299 -0.103669 -2.67592e-19)
(4.77196 -0.462834 1.75966e-20)
(4.67495 -0.812471 -1.15572e-18)
(4.54359 -1.14872 8.78679e-19)
(4.37999 -1.46798 -9.51382e-19)
(4.18673 -1.76695 -1.85322e-18)
(3.96674 -2.0427 -6.3528e-19)
(3.72332 -2.2927 -4.44355e-19)
(3.45984 -2.51486 1.81511e-18)
(3.18006 -2.70748 1.03801e-18)
(4.59159 -0.0587884 1.10259e-19)
(4.55072 -0.391891 -1.91402e-19)
(4.47567 -0.718497 -2.63554e-19)
(4.36745 -1.03476 -1.08e-18)
(4.22765 -1.33701 7.09033e-19)
(4.05834 -1.62183 1.93716e-18)
(3.862 -1.88604 7.87881e-19)
(3.64153 -2.12682 1.67541e-19)
(3.40014 -2.3416 4.47834e-19)
(3.14135 -2.5282 5.59615e-20)
(4.31008 -0.0457859 -1.17221e-19)
(4.28442 -0.35095 -4.61519e-19)
(4.22748 -0.652018 4.20987e-20)
(4.13983 -0.945449 8.66263e-19)
(4.02258 -1.2278 9.34343e-19)
(3.87728 -1.49583 -6.31751e-19)
(3.70593 -1.74639 -1.12078e-18)
(3.51093 -1.97668 -5.76814e-19)
(3.29517 -2.18389 6.27489e-19)
(3.06169 -2.36563 9.72838e-19)
(4.02917 -0.0423661 2.89551e-20)
(4.01346 -0.320728 3.80411e-19)
(3.96965 -0.596636 -8.92361e-19)
(3.89805 -0.866967 1.09153e-18)
(3.79941 -1.12863 6.59709e-19)
(3.6749 -1.37873 1.24834e-18)
(3.52613 -1.61433 -2.65988e-19)
(3.35501 -1.83295 -7.40695e-19)
(3.16424 -2.03165 1.72897e-18)
(2.95624 -2.20828 -1.48217e-18)
(3.76957 -0.0414999 5.6357e-20)
(3.75945 -0.295541 -4.14839e-19)
(3.72422 -0.548124 -2.6743e-19)
(3.66406 -0.796537 -5.84206e-19)
(3.57955 -1.03807 -8.2522e-20)
(3.47154 -1.27027 -8.31733e-19)
(3.34142 -1.49045 -5.40264e-19)
(3.19063 -1.69678 -8.89417e-20)
(3.02198 -1.8861 -1.03168e-18)
(2.83702 -2.05723 1.41592e-18)
(3.53888 -0.0417133 -4.66989e-20)
(3.53121 -0.274463 3.44438e-19)
(3.50105 -0.506232 -1.52459e-19)
(3.44854 -0.734673 3.33724e-19)
(3.37416 -0.957425 8.02146e-19)
(3.2786 -1.17251 1.33804e-18)
(3.16306 -1.37751 -3.58024e-19)
(3.02858 -1.57159 -1.27209e-18)
(2.8784 -1.75099 3.75908e-19)
(2.71263 -1.91677 -2.17259e-18)
(3.33706 -0.0409623 6.65998e-20)
(3.33004 -0.25577 -7.92823e-20)
(3.30268 -0.469803 -7.67821e-19)
(3.25513 -0.680993 2.31487e-19)
(3.18788 -0.887275 -5.52969e-19)
(3.1014 -1.08708 -2.38101e-19)
(2.99686 -1.27823 -1.52521e-19)
(2.87468 -1.46123 5.84926e-19)
(2.73894 -1.6315 5.64379e-19)
(2.5873 -1.79422 4.42352e-19)
(3.16039 -0.0405574 -1.56059e-19)
(3.15306 -0.239724 2.71611e-19)
(3.12723 -0.438712 1.32493e-19)
(3.08297 -0.635685 3.70226e-19)
(3.0207 -0.828791 -3.85445e-20)
(2.94051 -1.01671 -3.24686e-20)
(2.84368 -1.19735 -8.88148e-19)
(2.72921 -1.37237 1.16657e-18)
(2.60323 -1.5359 -7.29669e-19)
(2.46023 -1.70299 2.05416e-19)
(3.52636 3.7124 -1.36446e-18)
(3.8098 3.42787 1.42529e-18)
(4.06656 3.11971 -7.65988e-20)
(4.29486 2.79046 -2.43676e-18)
(4.49263 2.44262 1.76702e-18)
(4.65811 2.07907 -1.2294e-18)
(4.79008 1.70301 -2.76643e-19)
(4.88776 1.31781 -2.60803e-19)
(4.95072 0.926747 4.15541e-19)
(4.97923 0.533585 2.96313e-20)
(3.69706 3.3796 1.67531e-18)
(3.97203 3.10692 3.16825e-19)
(4.21993 2.80817 -1.69184e-18)
(4.43813 2.48601 -1.77333e-18)
(4.62405 2.14335 1.47226e-18)
(4.77546 1.78355 -1.17136e-18)
(4.89057 1.41037 1.30602e-18)
(4.9682 1.02783 -3.67999e-19)
(5.00754 0.639957 -1.09106e-18)
(5.00863 0.251072 -7.50749e-20)
(3.50371 3.10678 -3.04081e-19)
(3.77155 2.871 -2.28107e-19)
(4.01615 2.60853 9.82634e-19)
(4.23436 2.32157 8.96044e-19)
(4.42335 2.01274 1.94158e-18)
(4.58062 1.68516 6.17823e-19)
(4.70404 1.34229 -4.36631e-19)
(4.79195 0.987936 -9.33442e-19)
(4.84312 0.626027 7.47218e-19)
(4.85693 0.260805 5.36648e-20)
(3.24232 2.80555 4.02746e-19)
(3.4949 2.60497 -9.51599e-19)
(3.72819 2.3788 -3.77484e-19)
(3.939 2.12874 -1.66471e-18)
(4.12454 1.85699 -8.91781e-19)
(4.28234 1.56618 1.6424e-18)
(4.4102 1.25932 1.06265e-18)
(4.50628 0.939738 -8.94624e-19)
(4.56914 0.610974 3.84238e-20)
(4.59776 0.276842 -3.81287e-20)
(3.00648 2.50494 -1.44851e-18)
(3.23897 2.332 1.64944e-18)
(3.45514 2.13545 -4.16181e-19)
(3.65205 1.91648 8.71846e-19)
(3.82714 1.67693 -5.77036e-19)
(3.97812 1.41905 -9.80659e-19)
(4.10296 1.14542 4.59977e-19)
(4.19985 0.858912 -4.95131e-19)
(4.26735 0.56264 -4.78153e-19)
(4.30432 0.259918 2.02194e-19)
(2.80561 2.24127 -1.95389e-19)
(3.0179 2.08956 3.07533e-19)
(3.21573 1.91644 -3.57018e-19)
(3.39662 1.72254 -1.69351e-18)
(3.55837 1.50946 9.16223e-19)
(3.69896 1.27921 1.48724e-19)
(3.81658 1.03406 -8.25377e-19)
(3.90962 0.776513 -2.81146e-19)
(3.97674 0.509309 2.57835e-19)
(4.01682 0.235335 -7.51218e-20)
(2.64007 2.02073 -7.52364e-19)
(2.8344 1.88529 5.37478e-21)
(3.01497 1.73051 3.64276e-19)
(3.17988 1.5565 9.60441e-19)
(3.32761 1.36476 1.99096e-19)
(3.45649 1.1571 4.82632e-19)
(3.56493 0.935555 9.45572e-19)
(3.65154 0.702425 -3.98587e-19)
(3.71512 0.460155 3.3973e-19)
(3.75468 0.211289 -1.27801e-19)
(2.50429 1.83915 -2.73142e-19)
(2.68319 1.71732 3.14402e-19)
(2.8487 1.57693 3.04846e-19)
(2.99896 1.41855 -4.58028e-19)
(3.13331 1.2438 -2.54402e-19)
(3.2506 1.05424 -5.47411e-19)
(3.34948 0.851813 5.27478e-20)
(3.42869 0.638728 -1.21568e-19)
(3.4872 0.417242 -7.25271e-19)
(3.52411 0.189638 9.74995e-20)
(2.39373 1.69081 -9.96432e-20)
(2.55576 1.58283 -5.15676e-19)
(2.70787 1.45345 -2.07471e-19)
(2.84562 1.30713 9.96396e-20)
(2.96813 1.14592 -5.71582e-20)
(3.07488 0.970845 4.8663e-19)
(3.16488 0.783795 1.94488e-19)
(3.23698 0.586973 2.90852e-19)
(3.29019 0.382513 3.42103e-19)
(3.32371 0.172495 -1.40337e-19)
(2.32347 1.55583 -3.60386e-19)
(2.46156 1.45919 6.37037e-19)
(2.59565 1.33863 -1.05029e-18)
(2.72068 1.20291 -1.92629e-20)
(2.83127 1.05438 8.72107e-19)
(2.9269 0.893227 4.21442e-20)
(3.00749 0.720898 3.86302e-19)
(3.07207 0.539446 -8.02486e-19)
(3.11958 0.350834 -7.18632e-21)
(3.14916 0.156895 7.16868e-20)
(0.674086 1.72597 7.91476e-21)
(0.635185 1.86224 -1.96611e-21)
(0.593922 2.02991 -3.07871e-21)
(0.546943 2.2419 2.5803e-20)
(0.4949 2.51402 -1.12223e-20)
(0.437552 2.86258 -5.00865e-20)
(0.377932 3.29908 6.84016e-20)
(0.333923 3.81845 2.75619e-20)
(0.25945 4.37563 4.71982e-20)
(-0.111284 4.86524 1.95291e-19)
(0.81965 1.77661 2.07339e-20)
(0.792899 1.91739 -7.0009e-20)
(0.765019 2.08921 7.47643e-20)
(0.734969 2.30486 1.85714e-20)
(0.704359 2.57974 -4.27062e-20)
(0.67392 2.92955 4.30998e-20)
(0.647459 3.36435 1.85026e-19)
(0.642288 3.87518 -2.42897e-19)
(0.60857 4.4155 1.36503e-20)
(0.272382 4.89284 -2.42224e-19)
(0.973693 1.81393 1.23554e-19)
(0.959559 1.95839 -1.5838e-19)
(0.945552 2.13352 -6.44159e-20)
(0.93296 2.35174 -6.83006e-21)
(0.924226 2.62794 -8.2924e-20)
(0.920936 2.97709 -3.79498e-20)
(0.927436 3.40764 6.56517e-20)
(0.959906 3.9067 1.91932e-19)
(0.964257 4.42673 1.4982e-19)
(0.658997 4.88941 -4.62872e-19)
(1.13509 1.83682 1.42046e-19)
(1.1338 1.98409 -1.53146e-19)
(1.13403 2.16157 -1.59451e-19)
(1.13933 2.3811 8.3948e-20)
(1.15281 2.65704 5.13831e-19)
(1.17675 3.00349 -2.16112e-19)
(1.21582 3.42718 1.77009e-19)
(1.28452 3.91135 -6.36161e-19)
(1.3241 4.40802 -7.40846e-19)
(1.04611 4.85438 8.71115e-19)
(1.30257 1.84443 1.184e-19)
(1.31409 1.99358 -7.57811e-20)
(1.32877 2.17232 2.27019e-19)
(1.35228 2.39174 -2.01303e-19)
(1.38815 2.66568 1.70727e-19)
(1.43925 3.0073 1.46116e-19)
(1.51027 3.42146 1.4078e-19)
(1.61357 3.88768 1.26922e-19)
(1.68534 4.35818 5.01399e-19)
(1.43101 4.78712 4.3069e-19)
(1.47461 1.83611 -4.16908e-19)
(1.49861 1.98619 -9.90611e-20)
(1.5278 2.16497 4.52893e-19)
(1.5697 2.38269 -5.07097e-19)
(1.62804 2.65275 -2.33051e-19)
(1.70604 2.98727 -6.13757e-19)
(1.80818 3.38919 2.48009e-20)
(1.94416 3.83449 -6.92554e-19)
(2.04491 4.27632 -8.04283e-20)
(1.81078 4.6873 -1.33435e-18)
(1.64947 1.81189 6.83463e-19)
(1.68535 1.96176 -1.03524e-18)
(1.72896 2.13908 5.7524e-19)
(1.78934 2.35326 2.78639e-19)
(1.87006 2.61736 -7.37925e-20)
(1.9745 2.94241 8.78659e-19)
(2.10668 3.32936 -5.49096e-19)
(2.27316 3.75089 -1.47965e-18)
(2.39948 4.16186 -2.16082e-19)
(2.18237 4.55499 1.23018e-18)
(1.82476 1.77114 -6.55524e-21)
(1.87166 1.91978 5.18126e-19)
(1.92957 2.09409 -2.40037e-19)
(2.00854 2.30281 2.67492e-19)
(2.1115 2.55885 2.50504e-19)
(2.24178 2.87201 -4.43069e-19)
(2.40264 3.24126 3.26015e-19)
(2.59717 3.63633 -7.70459e-19)
(2.7456 4.01469 2.00495e-18)
(2.54272 4.39067 -6.71499e-19)
(1.99731 1.71665 -3.68084e-19)
(2.05446 1.86111 -1.65355e-19)
(2.12702 2.02998 7.40031e-19)
(2.22493 2.23101 -1.07206e-18)
(2.34981 2.47679 1.06943e-18)
(2.50497 2.77565 -5.58864e-19)
(2.69287 3.12451 -9.44091e-19)
(2.91275 3.49055 2.22997e-19)
(3.0797 3.83482 -3.54519e-18)
(2.88882 4.19491 2.44206e-18)
(2.16349 1.64659 9.8756e-19)
(2.22802 1.78377 -7.84233e-19)
(2.31747 1.94554 8.07067e-19)
(2.43543 2.13744 -6.71505e-20)
(2.58185 2.37103 -8.44664e-19)
(2.7608 2.65321 -4.37344e-19)
(2.97385 2.9791 4.92098e-19)
(3.21614 3.31386 1.35418e-18)
(3.39812 3.62319 1.72208e-18)
(3.21744 3.96956 1.64325e-20)
(-0.177861 0.80384 3.04621e-19)
(-0.295669 0.871541 -2.07505e-19)
(-0.444018 0.976006 6.93304e-20)
(-0.629559 1.12001 -1.47592e-19)
(-0.861564 1.31193 -8.39118e-20)
(-1.15284 1.56233 -9.20875e-20)
(-1.51417 1.88562 -6.21928e-21)
(-1.94335 2.30498 6.92731e-20)
(-2.4734 2.78945 1.63507e-19)
(-3.28343 3.13536 -1.77918e-19)
(-0.146072 0.908441 -1.50245e-19)
(-0.257595 0.982292 -1.22735e-19)
(-0.395208 1.0924 2.23451e-19)
(-0.569011 1.24383 8.73599e-20)
(-0.786506 1.44743 9.64917e-20)
(-1.05881 1.71482 -1.04476e-19)
(-1.39506 2.06036 -1.02848e-20)
(-1.79005 2.50528 -1.63112e-19)
(-2.27635 3.01797 -2.45923e-19)
(-3.0433 3.40383 4.52671e-19)
(-0.102333 1.01382 6.20167e-20)
(-0.208067 1.09535 -1.26292e-20)
(-0.335784 1.21175 2.12562e-19)
(-0.497323 1.37046 -1.35078e-19)
(-0.699237 1.58451 -5.74784e-20)
(-0.951204 1.8669 2.80823e-20)
(-1.26073 2.23204 -1.30882e-20)
(-1.61988 2.69895 3.33149e-19)
(-2.06109 3.23502 1.68742e-19)
(-2.78313 3.65504 -3.32947e-19)
(-0.0464649 1.11883 3.1173e-19)
(-0.146633 1.20813 -1.2651e-19)
(-0.264848 1.33143 4.37861e-20)
(-0.413718 1.49771 -3.32837e-20)
(-0.599147 1.72151 9.93403e-20)
(-0.829558 2.01717 -2.92201e-20)
(-1.11089 2.39936 -2.82489e-20)
(-1.43277 2.88474 4.71357e-20)
(-1.82786 3.4395 4.51255e-21)
(-2.5038 3.88781 5.09315e-19)
(0.0215605 1.222 -2.18832e-19)
(-0.072623 1.31898 -4.7156e-21)
(-0.181353 1.4495 5.87152e-20)
(-0.317227 1.62352 9.94496e-22)
(-0.485478 1.85652 -4.13586e-21)
(-0.693337 2.16398 -3.82206e-21)
(-0.94523 2.56081 4.08166e-20)
(-1.22867 3.06118 -5.05609e-20)
(-1.57693 3.62992 -6.392e-21)
(-2.20612 4.10047 -6.31003e-19)
(0.101556 1.32214 1.00264e-20)
(0.0141813 1.42663 -7.56284e-20)
(-0.0847503 1.56433 5.32575e-20)
(-0.207221 1.74596 -5.54991e-21)
(-0.357663 1.98758 -1.37212e-20)
(-0.542117 2.30547 5.03197e-20)
(-0.763556 2.71463 3.01206e-20)
(-1.00769 3.22656 1.48242e-20)
(-1.30878 3.80455 1.47564e-19)
(-1.89121 4.29133 1.27062e-19)
(0.193439 1.41788 4.91033e-20)
(0.113836 1.52964 -3.62218e-20)
(0.0251922 1.67427 -2.97949e-21)
(-0.0833798 1.86318 1.91333e-20)
(-0.215391 2.11273 -2.55269e-20)
(-0.375678 2.4397 3.98236e-20)
(-0.565824 2.85892 -5.22669e-20)
(-0.770073 3.37901 1.85591e-19)
(-1.02408 3.9616 2.09077e-19)
(-1.56042 4.45883 3.11114e-19)
(0.297047 1.50771 1.11444e-20)
(0.226215 1.62639 -1.13527e-21)
(0.148448 1.77756 -3.57943e-21)
(0.0543396 1.97328 -6.87705e-21)
(-0.0586133 2.22996 4.47678e-20)
(-0.194041 2.56462 -7.59122e-20)
(-0.352215 2.99163 -8.33202e-20)
(-0.51627 3.51654 3.60012e-19)
(-0.723723 4.09921 -8.42162e-20)
(-1.21534 4.60146 -3.49663e-19)
(0.412051 1.59005 -4.07374e-21)
(0.350975 1.71519 6.12218e-21)
(0.284727 1.87245 2.80247e-21)
(0.205695 2.07436 -1.76517e-21)
(0.112433 2.33726 -2.99601e-20)
(0.00249568 2.67815 1.26612e-19)
(-0.123161 3.11068 -1.62572e-19)
(-0.246945 3.63707 -3.47162e-20)
(-0.408746 4.21543 -1.02637e-21)
(-0.857613 4.71773 -2.96226e-19)
(0.537961 1.6633 8.00392e-21)
(0.487568 1.79433 1.76867e-21)
(0.433499 1.95711 -3.22868e-21)
(0.370183 2.16448 -9.49835e-21)
(0.29724 2.43256 -2.77658e-20)
(0.213359 2.77809 2.34379e-20)
(0.120599 3.2138 1.55352e-20)
(0.0368812 3.73836 3.76285e-20)
(-0.0806127 4.30831 -6.68805e-20)
(-0.489501 4.80642 6.33932e-20)
(-0.183402 0.686287 3.86017e-19)
(-0.207836 0.59655 -1.72951e-19)
(-0.226035 0.507258 5.18863e-20)
(-0.242221 0.424818 3.03385e-19)
(-0.256256 0.350621 1.93718e-19)
(-0.269094 0.284712 1.6945e-20)
(-0.28202 0.226445 9.70909e-20)
(-0.296004 0.174598 1.91653e-20)
(-0.311583 0.127507 3.20925e-20)
(-0.328851 0.0831969 -1.31379e-20)
(-0.318754 0.764725 1.69463e-19)
(-0.344671 0.66977 1.91489e-19)
(-0.36581 0.574424 2.07616e-19)
(-0.384891 0.485826 -6.4321e-20)
(-0.401695 0.405295 -9.86057e-20)
(-0.416993 0.33271 -1.60831e-19)
(-0.431739 0.267279 7.29002e-20)
(-0.446648 0.207723 -2.3737e-19)
(-0.462093 0.152422 -2.08734e-20)
(-0.478091 0.0995463 1.92564e-20)
(-0.481565 0.865054 -5.00479e-19)
(-0.512867 0.761667 8.27043e-20)
(-0.539267 0.659507 -3.85316e-19)
(-0.562619 0.563461 -1.12587e-19)
(-0.583001 0.474589 3.65034e-19)
(-0.601073 0.392778 2.24989e-19)
(-0.617517 0.317282 8.65635e-20)
(-0.632822 0.24694 -3.64899e-20)
(-0.647226 0.180347 8.32557e-20)
(-0.660715 0.115962 -1.21246e-20)
(-0.678996 1.00046 -1.16536e-19)
(-0.719676 0.885307 -2.13195e-19)
(-0.754227 0.772535 -3.25294e-20)
(-0.783976 0.665132 -1.20825e-19)
(-0.809302 0.563806 -1.98928e-19)
(-0.830796 0.468484 -1.82975e-20)
(-0.848966 0.378579 -1.19124e-19)
(-0.864173 0.293184 -5.66694e-20)
(-0.876599 0.211212 -9.76922e-20)
(-0.886269 0.131488 1.09049e-20)
(-0.924855 1.17892 -2.37644e-19)
(-0.97817 1.04833 3.02003e-19)
(-1.02343 0.920133 3.05617e-20)
(-1.06166 0.796201 -4.78536e-20)
(-1.09338 0.677082 7.51e-20)
(-1.11911 0.562823 1.22257e-19)
(-1.13923 0.453094 2.05533e-19)
(-1.15405 0.347337 -1.51517e-19)
(-1.16375 0.244863 1.93496e-20)
(-1.16844 0.144921 8.64904e-22)
(-1.23388 1.41029 2.56175e-19)
(-1.30333 1.25916 -1.67843e-19)
(-1.3623 1.10952 -6.83789e-20)
(-1.41161 0.962688 -1.29733e-20)
(-1.45177 0.819213 -6.69856e-20)
(-1.48317 0.679357 9.75156e-20)
(-1.50614 0.543131 1.00286e-19)
(-1.52093 0.410389 1.47741e-20)
(-1.52774 0.280898 -2.37169e-20)
(-1.52679 0.154378 -1.70215e-20)
(-1.61852 1.70889 -2.02014e-20)
(-1.70909 1.53121 3.66996e-20)
(-1.78637 1.35329 9.22869e-21)
(-1.85099 1.17628 -6.31075e-20)
(-1.9033 1.00087 1.38526e-19)
(-1.94357 0.82761 1.8947e-20)
(-1.97202 0.656879 -8.98187e-20)
(-1.98884 0.488992 -2.81478e-20)
(-1.99421 0.324199 -1.77998e-20)
(-1.98839 0.16273 9.24088e-21)
(-2.07984 2.09925 -1.22691e-19)
(-2.19986 1.88982 -5.88598e-20)
(-2.30357 1.67741 5.73694e-20)
(-2.3913 1.46328 -6.27039e-22)
(-2.46322 1.2483 -6.44779e-20)
(-2.51941 1.03333 -9.923e-21)
(-2.55988 0.81916 4.5471e-20)
(-2.58469 0.606554 -5.45572e-20)
(-2.5939 0.39626 1.73922e-20)
(-2.58767 0.188991 -6.50516e-21)
(-2.65137 2.55054 -4.48476e-20)
(-2.80935 2.30393 1.96091e-19)
(-2.94794 2.0505 -1.64206e-19)
(-3.06702 1.79165 1.60994e-19)
(-3.16647 1.52851 -1.19145e-19)
(-3.24605 1.26226 9.82452e-21)
(-3.30551 0.99412 -4.26497e-20)
(-3.34465 0.725321 5.2989e-21)
(-3.36339 0.457085 9.58007e-21)
(-3.36163 0.190579 1.31472e-22)
(-3.50144 2.84991 1.22261e-19)
(-3.69402 2.55229 -3.66865e-19)
(-3.86368 2.24294 1.49518e-19)
(-4.00925 1.92375 -1.09738e-19)
(-4.13022 1.5963 6.80985e-20)
(-4.22597 1.26228 2.59154e-19)
(-4.29601 0.923473 3.31897e-20)
(-4.33999 0.58168 6.52532e-20)
(-4.35776 0.238714 -3.87728e-20)
(-4.3491 -0.103686 -7.38075e-21)
(-0.347501 0.0395092 -1.45102e-20)
(-0.366842 -0.00580089 5.41693e-20)
(-0.385883 -0.0548868 -2.28678e-19)
(-0.403529 -0.109763 1.49933e-19)
(-0.418614 -0.172183 -1.49363e-20)
(-0.429897 -0.243547 9.87444e-20)
(-0.436039 -0.324953 -5.13544e-19)
(-0.435314 -0.41741 -1.35129e-20)
(-0.423263 -0.520207 1.11853e-19)
(-0.391321 -0.631462 -2.33e-19)
(-0.494363 0.0471597 -4.00382e-20)
(-0.510326 -0.0067089 9.40162e-20)
(-0.525144 -0.0639079 8.62431e-20)
(-0.537935 -0.126164 5.20442e-20)
(-0.547702 -0.194994 1.2365e-19)
(-0.553321 -0.271644 2.49013e-21)
(-0.553483 -0.357151 3.96926e-20)
(-0.54627 -0.452328 -6.41886e-20)
(-0.527057 -0.556654 -2.20693e-19)
(-0.489318 -0.671838 5.9447e-20)
(-0.673084 0.0521764 2.45175e-20)
(-0.683909 -0.0126317 -1.71997e-19)
(-0.692543 -0.0799688 -3.27477e-20)
(-0.698327 -0.151265 1.44917e-20)
(-0.70047 -0.227814 -1.34815e-19)
(-0.697986 -0.310745 -5.7009e-20)
(-0.68964 -0.401076 -9.2455e-20)
(-0.673621 -0.499617 9.92275e-20)
(-0.646561 -0.606591 1.52079e-19)
(-0.604869 -0.725125 2.99193e-19)
(-0.893115 0.0527825 -2.56763e-20)
(-0.896922 -0.0261611 7.69796e-20)
(-0.897249 -0.106508 -8.28766e-20)
(-0.893701 -0.189413 1.76304e-19)
(-0.885729 -0.275975 9.32886e-20)
(-0.872597 -0.367238 4.49334e-20)
(-0.853319 -0.464232 1.73716e-19)
(-0.826487 -0.56789 7.38727e-20)
(-0.790028 -0.679043 -9.90716e-21)
(-0.74247 -0.800474 -8.54449e-20)
(-1.16824 0.046703 -8.68827e-21)
(-1.16317 -0.0506604 1.23954e-21)
(-1.15302 -0.147982 -5.38802e-20)
(-1.13771 -0.246139 -1.35387e-19)
(-1.11699 -0.346029 2.25594e-20)
(-1.09049 -0.448591 1.48985e-19)
(-1.05764 -0.554821 -2.3952e-19)
(-1.01758 -0.66572 6.46452e-20)
(-0.969224 -0.782387 1.68747e-20)
(-0.912087 -0.906927 -2.14894e-22)
(-1.51836 0.0304935 2.75572e-20)
(-1.50275 -0.0911917 -1.77787e-20)
(-1.47998 -0.211107 -6.72631e-20)
(-1.4503 -0.329801 7.07092e-20)
(-1.41385 -0.447926 -8.39055e-20)
(-1.37067 -0.56624 1.23954e-20)
(-1.32066 -0.685617 -8.69826e-21)
(-1.26354 -0.80701 -3.32406e-20)
(-1.19891 -0.931528 -2.0269e-20)
(-1.12666 -1.06071 1.33813e-20)
(-1.97177 0.00477753 -2.90846e-21)
(-1.94492 -0.149543 3.9678e-21)
(-1.90804 -0.30022 -6.4576e-20)
(-1.86174 -0.447376 7.63675e-20)
(-1.80653 -0.591305 1.47263e-19)
(-1.74289 -0.732462 -4.32567e-20)
(-1.67119 -0.871461 3.24781e-20)
(-1.59169 -1.00906 -9.48934e-21)
(-1.50451 -1.14619 -1.92858e-20)
(-1.40982 -1.28393 3.8703e-20)
(-2.56631 -0.0144506 -1.61603e-21)
(-2.53056 -0.213115 1.00513e-20)
(-2.48075 -0.4065 -1.88744e-20)
(-2.41776 -0.594151 -1.91406e-20)
(-2.34241 -0.775838 4.01154e-20)
(-2.25556 -0.951517 8.96773e-21)
(-2.15803 -1.12134 -1.49425e-20)
(-2.0506 -1.28565 -5.19651e-20)
(-1.93387 -1.44504 7.42198e-20)
(-1.80829 -1.60021 5.32407e-20)
(-3.33917 -0.0727046 -2.23387e-21)
(-3.29668 -0.330483 3.11885e-20)
(-3.23479 -0.581936 2.65551e-20)
(-3.15438 -0.825842 -5.10102e-20)
(-3.05645 -1.06126 6.11156e-20)
(-2.94208 -1.28738 -1.15547e-19)
(-2.81247 -1.50364 6.02235e-20)
(-2.66883 -1.70975 -5.96155e-20)
(-2.51232 -1.90579 -4.43916e-20)
(-2.34371 -2.09197 -2.16407e-19)
(-4.31302 -0.443584 -3.74031e-21)
(-4.25003 -0.776532 -4.37233e-20)
(-4.16135 -1.10235 4.18254e-20)
(-4.04756 -1.41879 3.7183e-20)
(-3.90958 -1.72408 -7.57869e-20)
(-3.74851 -2.01647 7.62075e-20)
(-3.56564 -2.29448 -1.25451e-19)
(-3.3625 -2.55689 1.05574e-19)
(-3.14073 -2.80294 -2.33619e-19)
(-2.90159 -3.03191 2.45609e-19)
(-2.64537 -3.24203 3.84551e-19)
(-2.16358 -2.2678 -1.43756e-19)
(-1.67426 -1.75155 -4.72259e-20)
(-1.30781 -1.423 4.79439e-20)
(-1.04718 -1.19557 9.26097e-21)
(-0.847223 -1.04128 -5.56802e-20)
(-0.685926 -0.936696 -2.78436e-20)
(-0.55186 -0.865867 9.37014e-20)
(-0.438716 -0.82063 -2.28545e-19)
(-0.349782 -0.797529 2.48649e-20)
(-2.37681 -3.43009 -4.40396e-19)
(-1.97406 -2.4326 5.70884e-19)
(-1.53235 -1.89912 -7.82279e-20)
(-1.19824 -1.56315 -3.55595e-20)
(-0.960213 -1.33468 -3.1493e-21)
(-0.775457 -1.18165 3.84473e-20)
(-0.624223 -1.07906 -7.73581e-20)
(-0.497254 -1.0102 1.17772e-19)
(-0.390978 -0.965329 2.62802e-21)
(-0.309482 -0.937995 -1.18361e-19)
(-2.09603 -3.59859 3.00523e-19)
(-1.77502 -2.58713 -3.12047e-19)
(-1.38166 -2.04302 1.31453e-19)
(-1.07953 -1.70405 -2.73451e-20)
(-0.863334 -1.47721 2.22395e-20)
(-0.693128 -1.32655 -1.78557e-20)
(-0.551556 -1.22554 1.47826e-20)
(-0.431176 -1.15661 -2.45012e-20)
(-0.329406 -1.10904 8.43794e-20)
(-0.249169 -1.07529 -1.50058e-19)
(-1.8046 -3.74676 -6.36103e-19)
(-1.56678 -2.7316 9.07211e-20)
(-1.22159 -2.18346 9.14189e-20)
(-0.950296 -1.84563 8.32851e-20)
(-0.75452 -1.62272 -1.4114e-19)
(-0.597589 -1.47535 -1.9255e-21)
(-0.4646 -1.37581 -2.22313e-21)
(-0.349696 -1.30604 5.7083e-20)
(-0.250745 -1.25489 -9.43436e-20)
(-0.16982 -1.21465 -6.56104e-20)
(-1.50375 -3.8744 4.91473e-19)
(-1.34929 -2.8662 8.77218e-20)
(-1.05121 -2.32043 1.83618e-19)
(-0.809055 -1.98743 1.28663e-20)
(-0.631939 -1.77031 1.31562e-19)
(-0.486819 -1.62683 5.82421e-20)
(-0.361312 -1.52859 3.76011e-20)
(-0.251097 -1.45741 -2.07139e-20)
(-0.154432 -1.40215 1.05605e-20)
(-0.072827 -1.35514 4.95149e-20)
(-1.19472 -3.98125 3.73242e-19)
(-1.12241 -2.99086 -2.71994e-19)
(-0.869569 -2.45352 -9.99244e-21)
(-0.654431 -2.12854 -4.52828e-20)
(-0.494088 -1.91857 -3.57102e-20)
(-0.359404 -1.77917 -2.56976e-20)
(-0.240546 -1.68173 5.24442e-20)
(-0.134725 -1.6084 -3.01619e-20)
(-0.0406068 -1.54833 2.45954e-20)
(0.0407339 -1.49395 -5.84225e-21)
(-0.878667 -4.06716 -6.85237e-19)
(-0.885887 -3.1053 -1.98713e-19)
(-0.675701 -2.58197 3.42894e-19)
(-0.485212 -2.26758 -9.02388e-20)
(-0.339818 -2.06552 9.04943e-20)
(-0.214465 -1.92988 -2.12082e-19)
(-0.101837 -1.83237 1.56197e-19)
(-0.000621857 -1.75588 -3.51936e-20)
(0.0901122 -1.69007 2.91037e-20)
(0.169661 -1.62759 -4.45105e-20)
(-0.5567 -4.13204 3.17426e-19)
(-0.639451 -3.20898 -9.75499e-20)
(-0.468738 -2.70452 -1.01791e-19)
(-0.300436 -2.40259 -4.35083e-20)
(-0.168381 -2.20862 3.20572e-20)
(-0.0516549 -2.07596 4.46237e-20)
(0.0546735 -1.97717 -6.26525e-20)
(0.150576 -1.89626 4.47463e-20)
(0.236637 -1.8237 7.36602e-20)
(0.312475 -1.75241 -6.92349e-20)
(-0.229788 -4.17586 2.73525e-19)
(-0.382762 -3.30107 -1.0587e-20)
(-0.247959 -2.81946 1.91662e-19)
(-0.099472 -2.53115 -1.47988e-19)
(0.0204987 -2.34488 4.43459e-20)
(0.128816 -2.21404 -4.59751e-20)
(0.228255 -2.11254 -1.27865e-20)
(0.317668 -2.02588 -6.68989e-20)
(0.397418 -1.94558 6.64796e-20)
(0.467392 -1.865 4.35326e-20)
(0.101235 -4.19825 -5.66571e-20)
(-0.115507 -3.38025 -4.21697e-20)
(-0.0129003 -2.92463 -2.27538e-20)
(0.11787 -2.65043 -7.1146e-20)
(0.226557 -2.471 6.30012e-20)
(0.326157 -2.34057 1.23538e-20)
(0.417607 -2.23487 -3.64901e-20)
(0.498945 -2.14122 2.64616e-21)
(0.570496 -2.0524 -1.1999e-20)
(0.632361 -1.9624 2.13896e-21)
(0.914771 -1.70388 -1.86071e-21)
(0.926173 -1.32926 -9.52737e-24)
(0.964373 -1.0528 1.80822e-22)
(0.975847 -0.837794 3.29046e-22)
(0.981716 -0.671903 3.42241e-22)
(0.983806 -0.539006 6.36305e-22)
(0.983168 -0.430039 -2.74889e-22)
(0.980191 -0.339875 3.93543e-22)
(0.976843 -0.264106 -2.36378e-22)
(0.971751 -0.201589 -6.53818e-23)
(0.96761 -0.146795 2.78558e-22)
(0.959998 -0.102284 -8.0235e-23)
(0.956749 -0.0603188 7.69492e-23)
(0.944259 -0.0298446 1.95054e-22)
(0.925301 0.0197813 -2.95952e-23)
(0.913756 0.0317147 1.2089e-22)
(0.903312 0.0178884 -4.52988e-23)
(0.912997 -0.0598194 -6.16257e-23)
(0.848648 -0.135345 6.43104e-23)
(0.754898 -0.0185968 -5.61553e-23)
(1.04687 -1.7433 1.69896e-20)
(0.989286 -1.34383 2.55416e-21)
(0.996755 -1.06015 -1.58701e-21)
(0.993081 -0.842635 -3.32043e-22)
(0.988653 -0.674521 1.05051e-21)
(0.983817 -0.540328 -9.57636e-23)
(0.978197 -0.430543 1.50986e-22)
(0.971584 -0.339902 5.65834e-22)
(0.965501 -0.263868 -3.4082e-22)
(0.958436 -0.201193 -1.28127e-22)
(0.952791 -0.146261 -5.68491e-23)
(0.944428 -0.101744 -5.69996e-22)
(0.940388 -0.0595954 6.99435e-22)
(0.927931 -0.0282991 1.56503e-22)
(0.909263 0.0211688 -1.41427e-22)
(0.899946 0.0326439 -1.71845e-22)
(0.889452 0.0181046 4.04547e-22)
(0.899189 -0.0576758 -8.52803e-22)
(0.832064 -0.129587 -1.53227e-22)
(0.741365 -0.0152503 1.22515e-22)
(1.17849 -1.77077 -3.39967e-20)
(1.05455 -1.35606 1.63342e-20)
(1.03024 -1.06755 1.11613e-20)
(1.01141 -0.848244 -2.06069e-21)
(0.99654 -0.677944 8.97462e-22)
(0.984505 -0.542303 8.47942e-22)
(0.973746 -0.431573 -2.43311e-22)
(0.96341 -0.34035 8.00584e-22)
(0.954545 -0.26396 2.70654e-22)
(0.945487 -0.201061 3.027e-22)
(0.938339 -0.145951 9.58415e-23)
(0.929221 -0.101389 -3.26565e-23)
(0.924399 -0.0590307 -6.87605e-22)
(0.912013 -0.026958 3.23346e-22)
(0.89374 0.0223163 3.66792e-22)
(0.886535 0.0334765 -4.66486e-22)
(0.875965 0.0184118 1.85624e-22)
(0.885773 -0.0553244 5.26769e-22)
(0.816201 -0.123842 5.72004e-22)
(0.728856 -0.0120497 1.70817e-22)
(1.30895 -1.78688 -1.13431e-20)
(1.12285 -1.36621 2.81448e-20)
(1.06566 -1.07521 -1.0927e-20)
(1.03121 -0.854635 -1.6225e-21)
(1.0056 -0.682183 7.01115e-22)
(0.986033 -0.544946 3.26617e-22)
(0.969945 -0.433145 -3.61548e-22)
(0.955786 -0.341229 5.03238e-22)
(0.944083 -0.264391 -8.97111e-22)
(0.933 -0.201201 -5.93904e-22)
(0.924338 -0.145871 1.26999e-21)
(0.914445 -0.101223 -1.7064e-22)
(0.90884 -0.0586344 8.64284e-23)
(0.896549 -0.0258353 -4.88691e-22)
(0.878755 0.0232238 -1.65959e-22)
(0.873547 0.0342176 3.40038e-22)
(0.862889 0.018802 3.72474e-22)
(0.872778 -0.0527962 1.12052e-21)
(0.801057 -0.118143 -9.01553e-22)
(0.717336 -0.00900626 -3.7842e-22)
(1.43752 -1.79167 5.45798e-21)
(1.19496 -1.37321 4.09824e-21)
(1.10371 -1.08231 1.20906e-21)
(1.05275 -0.861315 5.5985e-21)
(1.01601 -0.687035 1.02934e-21)
(0.988538 -0.548191 1.82402e-22)
(0.96691 -0.435237 5.30948e-22)
(0.948816 -0.342537 -3.48203e-22)
(0.934211 -0.265161 -5.31947e-22)
(0.921062 -0.201614 -5.69932e-22)
(0.910864 -0.146021 1.10341e-22)
(0.900165 -0.101248 1.01446e-21)
(0.893768 -0.0584133 1.60888e-22)
(0.881587 -0.0249407 -7.55147e-22)
(0.86434 0.0238929 -7.18332e-22)
(0.861007 0.0348718 4.60025e-22)
(0.850256 0.0192675 -1.41108e-21)
(0.860249 -0.0501178 -3.40184e-22)
(0.786678 -0.112524 -2.95373e-22)
(0.706805 -0.0061329 -5.83841e-23)
(1.5637 -1.78343 -1.2327e-19)
(1.27141 -1.37447 -1.68172e-20)
(1.14477 -1.08726 1.10129e-20)
(1.07607 -0.86748 -1.80791e-20)
(1.02781 -0.692122 -4.72339e-21)
(0.992115 -0.551859 -2.59199e-21)
(0.964739 -0.437762 4.60395e-23)
(0.942593 -0.344229 -3.52938e-22)
(0.925016 -0.26625 6.27123e-22)
(0.909754 -0.202289 5.08676e-22)
(0.897988 -0.146393 2.91817e-22)
(0.886441 -0.101457 -8.22819e-22)
(0.879235 -0.0583672 3.79802e-22)
(0.867167 -0.0242764 4.65586e-22)
(0.850519 0.0243303 4.26095e-22)