/*--------------------------------*- C++ -*----------------------------------*\
  =========                 |
  \\      /  F ield         | OpenFOAM: The Open Source CFD Toolbox
   \\    /   O peration     | Website:  https://openfoam.org
    \\  /    A nd           | Version:  6.0
     \\/     M anipulation  |
\*---------------------------------------------------------------------------*/
FoamFile
{
    version     2.0;
    format      ascii;
    class       volVectorField;
    location    "12";
    object      U;
}
// * * * * * * * * * * * * * * * * * * * * * * * * * * * * * * * * * * * * * //

dimensions      [0 1 -1 0 0 0 0];

internalField   nonuniform List<vector> 
19200
(
(0.269609 -9.62447 -1.63351e-20)
(0.125817 -9.0775 7.65315e-21)
(0.139351 -8.6598 3.57875e-21)
(0.173791 -8.33592 3.19607e-21)
(0.204262 -8.07845 3.5727e-21)
(0.237759 -7.86613 2.17749e-22)
(0.273577 -7.68368 6.04907e-22)
(0.309729 -7.52034 -3.83093e-22)
(0.345147 -7.36872 4.40755e-21)
(0.37916 -7.22387 1.83219e-21)
(0.4113 -7.08266 -1.22616e-23)
(0.44128 -6.9432 2.89688e-21)
(0.468962 -6.80451 4.795e-21)
(0.494319 -6.6662 -3.25986e-21)
(0.517399 -6.52825 4.14626e-21)
(0.53831 -6.39091 3.57831e-21)
(0.557191 -6.25451 -3.36609e-21)
(0.574204 -6.11948 5.73365e-21)
(0.589522 -5.98622 -3.65389e-21)
(0.60332 -5.85512 1.81927e-21)
(0.615769 -5.72651 2.55562e-21)
(0.627034 -5.60065 -8.34022e-22)
(0.63727 -5.47772 1.12128e-21)
(0.64662 -5.3578 -1.30575e-21)
(0.655216 -5.2409 2.84185e-21)
(0.663169 -5.12693 6.81323e-22)
(0.670576 -5.01569 -4.54945e-22)
(0.677528 -4.9069 2.71542e-22)
(0.684116 -4.80021 6.43602e-22)
(0.69018 -4.69514 2.37572e-21)
(0.521524 -9.61826 -3.73473e-21)
(0.364667 -9.08521 2.3587e-20)
(0.367868 -8.67576 -1.24705e-20)
(0.394281 -8.35785 -1.71317e-20)
(0.418402 -8.10487 -7.78314e-21)
(0.446622 -7.89557 -5.56358e-21)
(0.47782 -7.71486 -1.12938e-20)
(0.509733 -7.55223 1.51514e-21)
(0.541108 -7.4005 -2.4687e-21)
(0.571162 -7.25492 -8.85004e-21)
(0.59936 -7.11252 -2.22114e-20)
(0.625384 -6.97157 1.08019e-20)
(0.649087 -6.83119 -4.04269e-21)
(0.670445 -6.69108 1.52503e-21)
(0.689523 -6.55132 -9.26859e-21)
(0.706441 -6.41218 -3.40516e-21)
(0.721359 -6.27406 3.85822e-22)
(0.734457 -6.13741 1.1519e-20)
(0.745923 -6.00265 -6.04821e-21)
(0.755946 -5.87019 -3.34672e-21)
(0.764708 -5.74035 -1.31197e-20)
(0.772383 -5.6134 3.36513e-21)
(0.779131 -5.48952 -2.10935e-21)
(0.7851 -5.3688 3.73187e-21)
(0.790419 -5.25122 -4.66446e-21)
(0.7952 -5.13668 -2.6838e-21)
(0.799531 -5.02498 8.75215e-22)
(0.803508 -4.91581 1.35586e-21)
(0.807253 -4.80878 -2.39768e-21)
(0.810507 -4.70338 1.10209e-21)
(0.773333 -9.60607 -1.77946e-21)
(0.603718 -9.08699 4.81166e-21)
(0.597111 -8.68593 7.55174e-21)
(0.615896 -8.37413 5.96481e-20)
(0.633931 -8.12576 -3.46187e-20)
(0.657044 -7.91955 3.14481e-20)
(0.683719 -7.74062 -2.83307e-20)
(0.711428 -7.57874 1.52049e-20)
(0.738751 -7.42693 -1.44268e-20)
(0.764801 -7.28066 -1.58285e-21)
(0.788989 -7.13713 3.62915e-20)
(0.810973 -6.99473 6.08134e-21)
(0.830604 -6.85273 -1.67687e-20)
(0.847867 -6.71091 1.31141e-20)
(0.862843 -6.56942 -3.88599e-23)
(0.875675 -6.42859 5.57848e-21)
(0.886541 -6.28886 3.99935e-21)
(0.89564 -6.15069 1.3485e-20)
(0.903178 -6.01455 -5.92225e-21)
(0.909357 -5.88083 -1.93669e-21)
(0.914372 -5.74988 -5.1331e-21)
(0.918403 -5.62197 2.27681e-20)
(0.921618 -5.49726 -1.89964e-20)
(0.924166 -5.37585 6.15014e-21)
(0.926178 -5.2577 1.418e-20)
(0.927761 -5.14272 -1.15408e-20)
(0.928996 -5.03067 1.5381e-20)
(0.929982 -4.92124 -1.65192e-21)
(0.930872 -4.81398 -1.73336e-21)
(0.931289 -4.70837 -1.1116e-20)
(1.02477 -9.58761 -5.92728e-20)
(0.842917 -9.08279 -5.10416e-20)
(0.826967 -8.69031 -6.26531e-20)
(0.838498 -8.38478 1.72016e-21)
(0.850709 -8.1411 3.76633e-21)
(0.868882 -7.93803 -7.06261e-20)
(0.891124 -7.76092 -3.49701e-20)
(0.914661 -7.5998 9.17706e-21)
(0.937918 -7.44795 -1.54572e-21)
(0.959919 -7.30103 1.57228e-20)
(0.980028 -7.1564 -6.19699e-20)
(0.997888 -7.01263 -3.86585e-20)
(1.01335 -6.86908 1.43031e-20)
(1.02643 -6.72563 2.85358e-20)
(1.03721 -6.58251 -3.30255e-20)
(1.04586 -6.44009 -5.1768e-21)
(1.05259 -6.29885 -1.95104e-20)
(1.05761 -6.1593 -9.18479e-21)
(1.06115 -6.02189 1.54232e-20)
(1.06342 -5.88704 -1.97027e-20)
(1.06463 -5.7551 1.71471e-20)
(1.06497 -5.62634 -2.0273e-20)
(1.06461 -5.50092 -1.59426e-20)
(1.0637 -5.37893 -1.14352e-20)
(1.06238 -5.26034 1.32356e-20)
(1.06074 -5.14502 -2.34809e-20)
(1.05887 -5.03275 2.43345e-21)
(1.05685 -4.92316 4.20737e-21)
(1.05488 -4.81579 -1.22141e-20)
(1.05244 -4.7101 2.38804e-21)
(1.27577 -9.56281 -3.5152e-20)
(1.08224 -9.07261 4.89812e-21)
(1.05736 -8.6889 4.32363e-20)
(1.06198 -8.38975 4.53478e-20)
(1.06861 -8.15083 3.26981e-20)
(1.082 -7.95093 1.35249e-20)
(1.09989 -7.77566 8.29814e-21)
(1.11928 -7.61533 9.56587e-20)
(1.13845 -7.46346 -5.7172e-20)
(1.15636 -7.31592 1.5931e-21)
(1.17231 -7.17026 1.36982e-20)
(1.18596 -7.02518 5.92409e-20)
(1.19717 -6.88016 -4.01916e-20)
(1.20596 -6.73518 2.88559e-20)
(1.21245 -6.59052 -3.20212e-20)
(1.21684 -6.44663 5.48245e-20)
(1.21935 -6.30401 -1.61145e-20)
(1.22021 -6.16318 5.8694e-22)
(1.21969 -6.02463 2.59342e-20)
(1.21799 -5.88877 1.81689e-20)
(1.21535 -5.75597 -1.84755e-20)
(1.21195 -5.62648 2.4935e-20)
(1.20798 -5.50047 -1.1347e-20)
(1.20359 -5.37802 1.30749e-20)
(1.19891 -5.2591 1.45014e-20)
(1.19404 -5.14357 6.37154e-21)
(1.18904 -5.03118 1.93857e-20)
(1.18403 -4.92156 -6.91901e-21)
(1.17919 -4.8142 -2.28938e-21)
(1.17388 -4.70855 -1.03888e-20)
(1.52617 -9.53162 -2.5579e-20)
(1.32157 -9.05641 -1.60145e-20)
(1.2882 -8.68165 -4.89689e-20)
(1.28621 -8.38898 -1.27943e-19)
(1.28749 -8.15488 4.26882e-20)
(1.29624 -7.95818 2.79652e-21)
(1.30986 -7.78477 5.78384e-22)
(1.32513 -7.62525 5.82225e-21)
(1.3402 -7.47339 -4.09436e-21)
(1.35395 -7.32527 -7.42017e-20)
(1.36568 -7.17863 3.10231e-20)
(1.37504 -7.03231 5.34271e-20)
(1.3819 -6.8859 1.31822e-22)
(1.38631 -6.73949 1.96879e-20)
(1.38843 -6.59341 4.86847e-20)
(1.38846 -6.44816 -3.34851e-20)
(1.38667 -6.30428 5.87088e-20)
(1.38331 -6.16231 -2.80132e-20)
(1.37865 -6.02274 4.95519e-20)
(1.37294 -5.886 -3.71514e-20)
(1.36639 -5.75246 1.65078e-20)
(1.35922 -5.62236 4.33134e-20)
(1.35161 -5.49589 2.48957e-21)
(1.34371 -5.37311 -4.00377e-20)
(1.33566 -5.25397 2.20053e-20)
(1.32754 -5.13835 6.71084e-21)
(1.31942 -5.02596 -7.18896e-21)
(1.3114 -4.91642 2.73552e-20)
(1.3037 -4.80918 9.62671e-21)
(1.29552 -4.70371 -8.8723e-21)
(1.77582 -9.49401 7.21112e-20)
(1.5608 -9.03413 -1.06442e-21)
(1.51934 -8.66851 -9.94639e-20)
(1.51106 -8.38242 2.02611e-20)
(1.50722 -8.15318 -2.83117e-20)
(1.51147 -7.95971 2.0506e-20)
(1.52088 -7.78817 -9.80454e-21)
(1.53204 -7.62948 8.24494e-20)
(1.54298 -7.47765 -8.91002e-20)
(1.55253 -7.32901 2.17611e-20)
(1.55997 -7.18144 -1.53224e-20)
(1.56495 -7.03396 1.11809e-20)
(1.56737 -6.88626 -4.94814e-20)
(1.56731 -6.73852 -3.23835e-21)
(1.56496 -6.59114 7.93987e-20)
(1.56057 -6.44465 -5.45781e-20)
(1.5544 -6.29963 -3.45069e-20)
(1.54675 -6.15664 -2.50757e-20)
(1.53791 -6.01619 4.54451e-20)
(1.52812 -5.87871 9.78641e-21)
(1.51762 -5.74455 -4.4639e-20)
(1.50665 -5.61398 5.94113e-20)
(1.49537 -5.48717 -5.35948e-20)
(1.48394 -5.36417 3.54249e-20)
(1.4725 -5.24494 -2.00908e-20)
(1.46113 -5.12933 6.07572e-21)
(1.44988 -5.01707 9.75942e-21)
(1.43886 -4.90773 -4.36503e-20)
(1.42832 -4.80073 1.87299e-20)
(1.41726 -4.69556 2.9167e-22)
(2.02457 -9.45 -7.07704e-20)
(1.79978 -9.00575 5.45629e-20)
(1.75067 -8.64945 -1.02334e-19)
(1.7364 -8.37002 1.94797e-19)
(1.72765 -8.14568 -5.45289e-20)
(1.72753 -7.95544 7.77727e-20)
(1.7328 -7.78579 6.09728e-20)
(1.73986 -7.62794 -1.07142e-20)
(1.74664 -7.47619 -1.56531e-20)
(1.75192 -7.32706 -1.88857e-22)
(1.75499 -7.17864 -6.03134e-20)
(1.75551 -7.03007 3.13851e-20)
(1.75341 -6.88119 -3.78075e-20)
(1.7488 -6.73222 -2.98277e-21)
(1.7419 -6.58365 -1.05656e-19)
(1.73299 -6.43605 3.45169e-20)
(1.72239 -6.29003 1.99487e-20)
(1.71039 -6.14616 -2.25606e-20)
(1.6973 -6.00496 -2.64258e-21)
(1.68339 -5.86687 -3.45366e-20)
(1.66892 -5.73224 -1.23433e-20)
(1.6541 -5.60132 1.0999e-21)
(1.63913 -5.47428 -3.00734e-20)
(1.62416 -5.35119 -4.46672e-20)
(1.60933 -5.23199 1.89694e-21)
(1.5947 -5.11652 6.29707e-21)
(1.58033 -5.00449 1.40605e-20)
(1.56632 -4.89547 -3.46868e-20)
(1.55295 -4.78883 2.95183e-20)
(1.53901 -4.68409 -5.32129e-20)
(2.27226 -9.39958 -1.74922e-19)
(2.03837 -8.97124 2.01832e-19)
(1.98203 -8.62441 -2.1381e-19)
(1.96209 -8.35171 -5.79518e-20)
(1.94863 -8.1323 -3.71507e-20)
(1.94427 -7.94532 -4.04632e-20)
(1.94546 -7.77756 -9.24239e-20)
(1.94842 -7.62057 -7.82249e-21)
(1.95101 -7.46892 -3.72037e-20)
(1.95197 -7.31936 -7.83824e-21)
(1.95059 -7.17016 6.26475e-20)
(1.94656 -7.0206 -3.55097e-20)
(1.93985 -6.87062 -4.20658e-20)
(1.9306 -6.72055 -7.10022e-20)
(1.91907 -6.57092 1.49023e-19)
(1.90558 -6.42235 -5.71587e-20)
(1.89047 -6.27546 2.13275e-20)
(1.87406 -6.13085 -7.95643e-20)
(1.85668 -5.98904 3.05654e-20)
(1.83861 -5.85047 -1.25244e-20)
(1.82013 -5.7155 1.5758e-20)
(1.80145 -5.58436 -5.41623e-21)
(1.78276 -5.45724 4.94783e-20)
(1.76424 -5.33417 -1.7508e-20)
(1.74601 -5.21511 4.85107e-20)
(1.72813 -5.0999 -9.87837e-20)
(1.71065 -4.98823 6.30205e-20)
(1.69367 -4.87964 1.73928e-20)
(1.67748 -4.77348 3.25615e-20)
(1.66069 -4.66929 -9.40379e-20)
(2.51872 -9.34278 2.76234e-19)
(2.2764 -8.93059 -5.07814e-20)
(2.21327 -8.59335 9.20553e-20)
(2.18796 -8.32746 -2.61305e-20)
(2.17 -8.11299 9.15801e-20)
(2.16152 -7.92927 8.68385e-20)
(2.15867 -7.76341 4.13082e-20)
(2.15754 -7.6073 -1.51904e-20)
(2.1559 -7.4558 -9.44721e-20)
(2.15247 -7.30586 1.38102e-19)
(2.14657 -7.15595 -1.07657e-20)
(2.13792 -7.00549 9.71378e-20)
(2.12651 -6.85453 3.52449e-20)
(2.11254 -6.70348 1.28696e-20)
(2.09631 -6.55292 2.02906e-20)
(2.07817 -6.40351 2.82246e-20)
(2.05849 -6.2559 4.6929e-20)
(2.03762 -6.11069 -1.35049e-20)
(2.0159 -5.96842 6.90519e-20)
(1.99364 -5.82951 3.17933e-20)
(1.97112 -5.69432 -6.62093e-20)
(1.94855 -5.56311 1.17414e-19)
(1.92615 -5.43602 -1.54933e-19)
(1.90407 -5.3131 1.46417e-19)
(1.88243 -5.19431 -4.84475e-20)
(1.86131 -5.07946 -1.99838e-20)
(1.84072 -4.96827 -5.18852e-21)
(1.82079 -4.86024 3.56756e-20)
(1.80182 -4.75466 1.27892e-20)
(1.78219 -4.65117 -1.44441e-20)
(2.76378 -9.27961 -1.57408e-19)
(2.51372 -8.88378 1.47356e-19)
(2.44425 -8.55626 -3.99775e-20)
(2.41386 -8.2972 1.15016e-19)
(2.39161 -8.0877 1.13464e-20)
(2.37912 -7.90723 2.48898e-20)
(2.37229 -7.74328 -1.97673e-19)
(2.36705 -7.58808 9.23656e-20)
(2.36114 -7.43676 1.26989e-19)
(2.35327 -7.28651 9.65332e-20)
(2.34277 -7.13597 -1.64107e-19)
(2.3294 -6.98471 9.55624e-20)
(2.31322 -6.83289 -9.52652e-20)
(2.29445 -6.68098 6.55805e-20)
(2.27345 -6.52962 -1.09676e-19)
(2.25059 -6.37952 -8.13893e-20)
(2.22628 -6.23133 4.98761e-21)
(2.20091 -6.08567 -3.72388e-20)
(2.17482 -5.94308 6.61039e-20)
(2.14834 -5.80398 2.63452e-20)
(2.12175 -5.66872 -1.72413e-20)
(2.09528 -5.53755 -4.99385e-21)
(2.06915 -5.41062 2.03971e-20)
(2.0435 -5.28799 -6.80649e-20)
(2.01847 -5.16958 1.12938e-19)
(1.99411 -5.05522 -2.75091e-20)
(1.97044 -4.94461 -4.70262e-20)
(1.94759 -4.83725 9.84172e-20)
(1.92586 -4.73239 1.32244e-20)
(1.90342 -4.62972 -1.29061e-20)
(3.00728 -9.2101 6.28999e-21)
(2.75018 -8.8308 -8.1806e-20)
(2.67479 -8.51308 -7.52316e-20)
(2.63963 -8.26091 -1.24747e-19)
(2.61329 -8.05637 4.33843e-21)
(2.5969 -7.87916 -8.98883e-20)
(2.58611 -7.71712 1.06061e-19)
(2.57677 -7.56285 -5.23832e-20)
(2.56655 -7.41175 8.58612e-20)
(2.55417 -7.26126 -7.06573e-20)
(2.539 -7.11018 -3.62873e-20)
(2.52084 -6.95823 1.98425e-20)
(2.4998 -6.80566 1.07342e-20)
(2.47616 -6.65302 -1.09185e-19)
(2.45031 -6.50102 6.41986e-20)
(2.42268 -6.35036 -3.18251e-20)
(2.3937 -6.20175 9.01407e-20)
(2.36377 -6.05579 -2.969e-20)
(2.33328 -5.91302 3.09223e-20)
(2.30255 -5.77388 7.67367e-21)
(2.27187 -5.63869 5.26726e-20)
(2.2415 -5.5077 -1.07185e-20)
(2.21163 -5.38107 8.65213e-20)
(2.18242 -5.25882 -9.62198e-20)
(2.154 -5.14092 -3.26045e-20)
(2.12642 -5.02717 2.66329e-20)
(2.09969 -4.91727 -2.72109e-21)
(2.07394 -4.81069 -7.30749e-20)
(2.04948 -4.70666 3.74844e-20)
(2.02427 -4.60494 -4.08803e-20)
(3.24907 -9.13427 2.65909e-19)
(2.98561 -8.77165 6.83982e-20)
(2.90475 -8.46381 8.22454e-20)
(2.86512 -8.21854 1.11052e-19)
(2.83486 -8.01897 1.66839e-19)
(2.81467 -7.845 -5.0517e-21)
(2.79998 -7.68488 2.41248e-20)
(2.78652 -7.53156 2.82815e-19)
(2.77194 -7.38074 8.14495e-20)
(2.75499 -7.23007 -6.85977e-20)
(2.73507 -7.07854 1.20545e-19)
(2.71204 -6.92601 2.03784e-20)
(2.68607 -6.77282 1.01446e-21)
(2.65749 -6.6196 2.86933e-20)
(2.62673 -6.46709 5.12349e-20)
(2.59428 -6.31604 -1.05294e-19)
(2.56057 -6.16715 8.95029e-20)
(2.52606 -6.02105 1.50318e-20)
(2.49113 -5.87826 8.71791e-20)
(2.45613 -5.73921 -4.72614e-20)
(2.42136 -5.60423 7.78672e-20)
(2.38707 -5.47356 -8.2779e-20)
(2.35346 -5.34735 7.99345e-20)
(2.3207 -5.22563 1.11532e-20)
(2.2889 -5.10834 -5.35998e-20)
(2.25811 -4.99531 -1.7495e-20)
(2.22834 -4.88623 1.02443e-19)
(2.19972 -4.78056 -1.54575e-20)
(2.17259 -4.67747 1.97978e-20)
(2.14464 -4.57684 -1.26275e-20)
(3.48896 -9.05217 2.69155e-20)
(3.21985 -8.70633 5.96409e-20)
(3.13396 -8.40843 2.42963e-19)
(3.09014 -8.17007 -3.95211e-19)
(3.05617 -7.97544 -3.91434e-20)
(3.03228 -7.80471 -4.24803e-20)
(3.01371 -7.64651 1.88355e-20)
(2.99611 -7.49418 2.5104e-20)
(2.97712 -7.34368 6.31659e-20)
(2.95554 -7.19291 -1.12295e-19)
(2.9308 -7.04103 -2.18292e-20)
(2.90282 -6.88803 6.24312e-20)
(2.87185 -6.73436 6.73063e-20)
(2.83826 -6.5807 -6.70986e-20)
(2.80254 -6.42784 -6.62531e-20)
(2.7652 -6.27654 1.07249e-19)
(2.72674 -6.12754 6.98496e-20)
(2.68761 -5.98144 -1.80257e-20)
(2.64823 -5.83878 -4.45397e-20)
(2.60895 -5.69998 8.02938e-21)
(2.57007 -5.56536 -1.02484e-19)
(2.53185 -5.43514 1.23304e-19)
(2.49451 -5.30947 -8.42143e-20)
(2.45819 -5.1884 -3.5381e-21)
(2.42303 -5.07185 5.5322e-20)
(2.38906 -4.95966 -1.7233e-20)
(2.35628 -4.85152 -5.20179e-20)
(2.32483 -4.74686 8.08032e-21)
(2.29507 -4.64483 -2.14495e-21)
(2.26442 -4.54543 9.88233e-21)
(3.72681 -8.96383 -1.99989e-20)
(3.45274 -8.63485 -6.232e-20)
(3.36225 -8.34692 -2.79861e-19)
(3.31454 -8.11546 1.00276e-19)
(3.27702 -7.92576 -3.05357e-20)
(3.24953 -7.75825 9.99962e-20)
(3.2271 -7.60198 7.31349e-21)
(3.20535 -7.45066 -1.15047e-19)
(3.18191 -7.30054 9.9483e-21)
(3.15562 -7.14975 -1.56265e-19)
(3.12599 -6.99764 -6.17103e-21)
(3.093 -6.84429 3.76797e-20)
(3.05695 -6.69027 -6.49375e-20)
(3.01829 -6.53632 7.37219e-20)
(2.97756 -6.38325 -1.40527e-19)
(2.9353 -6.23188 -3.17038e-20)
(2.89205 -6.08291 8.45261e-20)
(2.84828 -5.93699 -1.30785e-22)
(2.80442 -5.79461 -5.32937e-20)
(2.76084 -5.65621 1.44438e-19)
(2.71785 -5.52208 -7.73076e-20)
(2.67571 -5.39245 -1.035e-19)
(2.63464 -5.26746 3.44232e-20)
(2.59479 -5.14715 -1.00066e-19)
(2.55627 -5.03146 -2.40629e-20)
(2.51914 -4.92023 -3.06019e-21)
(2.48338 -4.81314 -6.48571e-20)
(2.44914 -4.70961 7.75319e-20)
(2.41679 -4.60876 -2.75586e-20)
(2.38351 -4.51072 4.45646e-20)
(3.96244 -8.8693 -9.42524e-20)
(3.68411 -8.55723 -2.49456e-19)
(3.58946 -8.27928 1.20746e-19)
(3.53814 -8.0547 -1.14636e-19)
(3.49726 -7.86989 -8.48681e-20)
(3.46624 -7.70559 -4.90092e-20)
(3.43998 -7.55126 -1.78907e-19)
(3.41405 -7.40097 1.21182e-19)
(3.38612 -7.2513 -2.16455e-19)
(3.35506 -7.10059 -3.00452e-19)
(3.32046 -6.94833 3.88551e-20)
(3.28239 -6.79478 6.43549e-20)
(3.2412 -6.64054 -1.07362e-21)
(3.19742 -6.48645 -1.22208e-19)
(3.15162 -6.33334 2.84454e-20)
(3.1044 -6.18205 -1.10173e-19)
(3.05632 -6.03329 -7.90243e-20)
(3.00789 -5.88769 -4.73288e-20)
(2.95954 -5.74576 -9.42083e-21)
(2.91166 -5.6079 8.02499e-20)
(2.86457 -5.47442 1.14459e-19)
(2.81851 -5.34552 -3.42581e-20)
(2.77372 -5.22133 -3.28333e-20)
(2.73034 -5.10191 6.3724e-20)
(2.68849 -4.98719 3.53673e-20)
(2.64822 -4.87702 -2.79779e-20)
(2.60951 -4.77109 -3.11106e-20)
(2.57253 -4.66881 3.53266e-21)
(2.53764 -4.56926 2.7751e-20)
(2.50179 -4.47272 -3.97168e-20)
(4.1957 -8.76862 -1.84312e-20)
(3.91379 -8.47348 3.14971e-19)
(3.81542 -8.2055 2.42581e-19)
(3.76077 -7.98778 1.88347e-19)
(3.71669 -7.80783 -1.21808e-19)
(3.68223 -7.64671 -2.43415e-20)
(3.65215 -7.49431 2.21731e-20)
(3.62202 -7.3451 1.53527e-19)
(3.58954 -7.19595 5.75886e-20)
(3.55365 -7.04539 8.74365e-20)
(3.51402 -6.89312 -1.92371e-19)
(3.4708 -6.73948 1.96352e-20)
(3.42442 -6.58519 7.76063e-20)
(3.37545 -6.43111 4.71946e-20)
(3.32455 -6.27813 9.81206e-20)
(3.27234 -6.12707 -6.67311e-20)
(3.21941 -5.97869 -6.17228e-20)
(3.1663 -5.83358 1.18605e-20)
(3.11346 -5.69225 1.30855e-19)
(3.06128 -5.55509 -2.10631e-19)
(3.01007 -5.42239 7.3224e-20)
(2.96011 -5.29435 -5.14826e-22)
(2.9116 -5.1711 1.37411e-19)
(2.86471 -5.05268 -5.93867e-20)
(2.81956 -4.93905 -3.17648e-21)
(2.77617 -4.83005 -3.74775e-20)
(2.73454 -4.7254 -3.29994e-20)
(2.69485 -4.62448 6.96566e-21)
(2.65749 -4.52635 -8.0904e-20)
(2.61913 -4.43144 1.17973e-19)
(4.42642 -8.66185 -3.47674e-19)
(4.14163 -8.38363 -1.91483e-19)
(4.03997 -8.1256 -4.88261e-19)
(3.98225 -7.91469 -2.20837e-19)
(3.93513 -7.73954 2.04869e-19)
(3.8973 -7.58158 -1.20306e-19)
(3.86342 -7.43113 -2.86394e-20)
(3.82906 -7.28304 -7.87776e-20)
(3.79198 -7.13446 1.32477e-19)
(3.7512 -6.98416 -1.22258e-19)
(3.70648 -6.83199 1.46453e-20)
(3.65805 -6.67841 -5.93456e-21)
(3.60641 -6.52421 -1.9007e-19)
(3.55222 -6.3703 -7.68681e-21)
(3.49618 -6.21761 5.01897e-20)
(3.43895 -6.06697 -5.53476e-21)
(3.38116 -5.91912 -1.92221e-19)
(3.32336 -5.77467 1.86402e-19)
(3.26602 -5.6341 -1.82269e-19)
(3.20954 -5.49779 7.09043e-20)
(3.15423 -5.36601 9.96003e-21)
(3.10038 -5.23897 4.02969e-21)
(3.04817 -5.11678 -7.40082e-20)
(2.99778 -4.99949 7.41419e-20)
(2.94933 -4.88705 -3.15604e-20)
(2.90286 -4.77933 3.42929e-20)
(2.85833 -4.67607 -1.82747e-19)
(2.81599 -4.57663 4.94631e-20)
(2.7762 -4.48003 5.30547e-20)
(2.73542 -4.38691 5.25535e-20)
(4.65443 -8.54905 6.76543e-19)
(4.36746 -8.28771 2.20172e-19)
(4.26293 -8.03958 1.27586e-19)
(4.20243 -7.83542 2.01325e-19)
(4.15242 -7.66503 -2.53021e-20)
(4.11128 -7.51019 1.49541e-19)
(4.0736 -7.36169 3.30876e-19)
(4.03498 -7.21476 -4.21642e-20)
(3.99325 -7.06684 1.83595e-20)
(3.94752 -6.91691 3.82138e-19)
(3.89764 -6.76496 3.55277e-19)
(3.84394 -6.61158 5.21026e-20)
(3.787 -6.45763 -1.90369e-20)
(3.72755 -6.30406 -1.74771e-21)
(3.66633 -6.15182 2.67377e-19)
(3.60406 -6.00176 1.03035e-20)
(3.5414 -5.85462 2.81523e-19)
(3.4789 -5.71098 -3.57186e-20)
(3.41707 -5.57133 -6.03183e-20)
(3.3563 -5.43602 1.40236e-19)
(3.29691 -5.30532 -1.27911e-19)
(3.23916 -5.17941 -1.37488e-19)
(3.18327 -5.0584 -1.22976e-20)
(3.12941 -4.94235 -6.06547e-20)
(3.07768 -4.83122 9.17154e-20)
(3.02814 -4.72489 1.07357e-20)
(2.98076 -4.62312 -3.79152e-20)
(2.93579 -4.52527 2.04312e-20)
(2.89364 -4.43032 1.35323e-19)
(2.85051 -4.33913 1.86587e-20)
(4.87959 -8.43028 -1.1638e-19)
(4.59112 -8.18576 -2.20537e-19)
(4.48415 -7.94747 8.97708e-20)
(4.42111 -7.74998 -3.59166e-19)
(4.36835 -7.58428 1.69374e-19)
(4.32397 -7.43254 -3.08399e-19)
(4.28249 -7.286 -2.01157e-19)
(4.23957 -7.14027 5.55039e-20)
(4.19314 -6.99309 5.40281e-20)
(4.14241 -6.84363 -2.63804e-19)
(4.08732 -6.69204 3.99722e-20)
(4.0283 -6.539 4.35765e-20)
(3.96601 -6.38546 -1.41602e-19)
(3.90126 -6.2324 -5.5932e-20)
(3.83484 -6.08079 -3.73859e-20)
(3.76752 -5.93148 -3.74089e-20)
(3.69997 -5.7852 -1.54943e-19)
(3.63279 -5.64255 -9.65624e-20)
(3.56647 -5.50397 -2.07189e-20)
(3.50141 -5.36982 7.82012e-20)
(3.43795 -5.24033 1.05424e-19)
(3.37634 -5.11568 -1.14157e-19)
(3.31678 -4.99599 4.2499e-20)
(3.25945 -4.88129 -8.78525e-20)
(3.20447 -4.77157 8.20408e-20)
(3.15187 -4.66673 -1.0788e-19)
(3.10166 -4.56655 3.34734e-20)
(3.05411 -4.4704 -5.27386e-20)
(3.00966 -4.37724 -7.42956e-20)
(2.96426 -4.28812 -6.88356e-21)
(5.10172 -8.3056 -2.43418e-19)
(4.81245 -8.07782 -1.97226e-19)
(4.70347 -7.84929 -1.92829e-19)
(4.63814 -7.65837 -1.41005e-19)
(4.58276 -7.49729 4.31044e-19)
(4.53517 -7.34862 5.96706e-20)
(4.48989 -7.20405 1.81389e-19)
(4.44265 -7.05958 2.75172e-19)
(4.39148 -6.91322 1.31338e-19)
(4.33568 -6.76434 -1.7354e-19)
(4.27532 -6.61325 2.75841e-19)
(4.21093 -6.46071 7.98851e-20)
(4.14326 -6.30773 2.49701e-19)
(4.07318 -6.15535 2.86247e-20)
(4.00155 -6.00454 6.26244e-20)
(3.92916 -5.85615 2.02195e-20)
(3.85673 -5.71092 -7.78216e-22)
(3.78487 -5.56941 -7.3835e-21)
(3.71407 -5.43206 3.2892e-20)
(3.64475 -5.29921 1.109e-19)
(3.57723 -5.17107 -1.23113e-19)
(3.51176 -5.04782 9.73376e-20)
(3.44856 -4.92956 3.3845e-21)
(3.38778 -4.81632 4.35917e-20)
(3.32955 -4.70811 7.92912e-20)
(3.27393 -4.60486 -1.36976e-20)
(3.22091 -4.50637 7.80596e-20)
(3.17081 -4.41203 1.12164e-19)
(3.1241 -4.32077 -1.21527e-19)
(3.07652 -4.23389 -6.59846e-20)
(5.32068 -8.17508 7.10584e-19)
(5.03131 -7.96394 -7.21083e-20)
(4.92072 -7.74507 1.48388e-19)
(4.85334 -7.56061 2.7158e-19)
(4.79545 -7.40408 -7.71746e-19)
(4.7447 -7.25844 8.20162e-20)
(4.69562 -7.11585 -2.89018e-19)
(4.64402 -6.9727 2.84103e-19)
(4.58804 -6.82724 -2.24758e-19)
(4.52712 -6.67907 1.19822e-19)
(4.46145 -6.52861 -4.33993e-19)
(4.39165 -6.37673 1.61802e-20)
(4.31856 -6.22449 -4.67943e-19)
(4.24314 -6.07295 2.10851e-19)
(4.16628 -5.92311 1.08066e-19)
(4.08883 -5.77582 1.6358e-19)
(4.01152 -5.63179 -1.78337e-19)
(3.93499 -5.49159 -1.41316e-20)
(3.85973 -5.35563 1.3977e-20)
(3.78617 -5.22422 3.87323e-20)
(3.71461 -5.09758 -2.17071e-19)
(3.64532 -4.97586 -6.49425e-21)
(3.57849 -4.85913 -1.20139e-19)
(3.51427 -4.74747 -2.81953e-20)
(3.45281 -4.64087 -7.30733e-20)
(3.39416 -4.53929 -7.93719e-20)
(3.33834 -4.44258 -8.20995e-20)
(3.28571 -4.35015 1.354e-19)
(3.23679 -4.2609 3.60912e-20)
(3.18713 -4.17641 -6.32338e-20)
(5.53632 -8.03881 -4.73068e-19)
(5.24755 -7.84419 1.60878e-19)
(5.13577 -7.63483 -2.72916e-19)
(5.06654 -7.45672 4.09764e-20)
(5.00625 -7.30464 4.37383e-19)
(4.95236 -7.162 -2.20157e-19)
(4.89946 -7.02142 -2.27625e-19)
(4.84346 -6.87964 -1.93549e-19)
(4.78264 -6.73519 9.61567e-21)
(4.71656 -6.58785 1.22428e-19)
(4.64553 -6.43817 -8.82729e-20)
(4.57028 -6.28711 4.37303e-21)
(4.49175 -6.13577 1.95128e-19)
(4.41096 -5.98525 1.21419e-19)
(4.32887 -5.83655 3.44381e-20)
(4.24637 -5.69053 -1.07006e-19)
(4.1642 -5.54787 4.04138e-20)
(4.08302 -5.40913 8.79671e-20)
(4.00333 -5.27471 9.75928e-20)
(3.92554 -5.14489 -1.0682e-19)
(3.84997 -5.01988 1.6215e-20)
(3.77687 -4.8998 9.05036e-20)
(3.70643 -4.78474 1.56379e-19)
(3.6388 -4.67475 4.05767e-20)
(3.57411 -4.56984 -1.59454e-19)
(3.51244 -4.47002 1.84777e-19)
(3.45382 -4.37518 -9.22536e-20)
(3.39866 -4.28475 -1.09515e-19)
(3.34757 -4.19763 -6.70749e-20)
(3.29591 -4.11568 -8.10813e-20)
(5.74851 -7.89685 2.49328e-19)
(5.46105 -7.71862 -1.84612e-19)
(5.34847 -7.51861 7.04494e-20)
(5.27758 -7.3467 3.66483e-19)
(5.21496 -7.19898 9.84102e-20)
(5.15796 -7.05932 -8.42035e-20)
(5.10122 -6.92076 2.01761e-19)
(5.04079 -6.78043 4.71537e-20)
(4.97507 -6.6371 1.86077e-19)
(4.90379 -6.49072 1.01878e-19)
(4.82736 -6.34197 4.03196e-21)
(4.74663 -6.19188 6.30414e-20)
(4.66265 -6.04162 -1.99498e-20)
(4.57649 -5.8923 -1.75031e-19)
(4.48918 -5.74492 -2.53113e-20)
(4.40163 -5.60032 -5.15019e-20)
(4.31462 -5.4592 1.25833e-19)
(4.22881 -5.32208 1.27277e-19)
(4.14471 -5.18935 -1.44582e-19)
(4.06274 -5.06126 1.47415e-19)
(3.98319 -4.93801 3.11645e-19)
(3.90631 -4.8197 -2.00497e-19)
(3.83227 -4.7064 2.00212e-19)
(3.76123 -4.59818 -1.40211e-19)
(3.69332 -4.49505 -1.962e-20)
(3.62862 -4.39705 1.48629e-19)
(3.56719 -4.30413 -3.01419e-20)
(3.50949 -4.21578 1.10837e-19)
(3.45625 -4.1309 1.09611e-19)
(3.40269 -4.05167 -1.94535e-19)
(5.95715 -7.7493 -2.40786e-19)
(5.67171 -7.5873 1.03888e-19)
(5.55868 -7.39644 4.31272e-20)
(5.48628 -7.23056 -4.26608e-19)
(5.42139 -7.08713 -2.19281e-19)
(5.36129 -6.95042 1.62708e-19)
(5.30069 -6.81393 -4.48869e-19)
(5.23579 -6.67511 5.3665e-19)
(5.16515 -6.533 -2.99748e-19)
(5.08861 -6.38772 3.56094e-20)
(5.00675 -6.24005 -5.63722e-20)
(4.92053 -6.09111 -1.66663e-19)
(4.83108 -5.9421 3.41194e-19)
(4.73956 -5.79415 1.27619e-19)
(4.64703 -5.64826 1.63626e-19)
(4.55446 -5.50527 3.28109e-21)
(4.46264 -5.36585 7.19162e-20)
(4.37224 -5.2305 -1.56145e-19)
(4.28378 -5.09959 3.26004e-20)
(4.19765 -4.97336 1.06157e-19)
(4.11415 -4.85199 -4.47364e-20)
(4.03352 -4.73556 7.26505e-20)
(3.95591 -4.62413 -1.42971e-19)
(3.88147 -4.51776 2.04944e-19)
(3.81033 -4.41648 4.73268e-20)
(3.74258 -4.32036 -1.29042e-19)
(3.6783 -4.22942 -1.11049e-19)
(3.61803 -4.1432 2.39772e-22)
(3.5626 -4.06065 1.5169e-19)
(3.50718 -3.98434 -3.26568e-20)
(6.16214 -7.59621 -6.66997e-20)
(5.87942 -7.45026 -4.33508e-19)
(5.76625 -7.26832 5.13049e-19)
(5.69246 -7.10832 3.43955e-19)
(5.62535 -6.96909 3.40261e-19)
(5.56215 -6.83532 9.32659e-20)
(5.49767 -6.70093 1.3969e-19)
(5.42827 -6.56373 6.9835e-20)
(5.35266 -6.42295 -2.78226e-19)
(5.27084 -6.2789 5.04014e-19)
(5.18352 -6.13248 -4.01517e-19)
(5.09179 -5.98487 -2.65724e-20)
(4.99688 -5.83728 5.74483e-20)
(4.9 -5.69088 -2.5284e-19)
(4.80229 -5.54665 3.96494e-19)
(4.70473 -5.40543 7.47109e-20)
(4.60814 -5.26786 -1.66593e-19)
(4.51319 -5.13443 6.35341e-20)
(4.4204 -5.00548 -1.22573e-19)
(4.33016 -4.88125 -1.0779e-19)
(4.24276 -4.76186 -1.14281e-19)
(4.1584 -4.64741 2.59308e-20)
(4.07724 -4.53795 1.43119e-20)
(3.99942 -4.4335 -2.76021e-19)
(3.92505 -4.33413 -1.04322e-19)
(3.85422 -4.23993 6.71419e-20)
(3.78703 -4.15098 8.28107e-20)
(3.7241 -4.06691 -1.14109e-19)
(3.66639 -3.98676 -4.33711e-20)
(3.60907 -3.91347 3.39572e-21)
(6.36351 -7.43767 -5.75143e-20)
(6.08412 -7.30757 2.80779e-19)
(5.97103 -7.13428 -7.9504e-20)
(5.89594 -6.97998 -9.66168e-20)
(5.82664 -6.84487 -5.25739e-19)
(5.76033 -6.71405 -1.14733e-19)
(5.69196 -6.58182 2.14303e-19)
(5.61802 -6.44631 -1.41338e-19)
(5.5374 -6.30701 -1.52111e-20)
(5.45027 -6.16435 -2.81057e-20)
(5.35749 -6.01934 1.52033e-19)
(5.26025 -5.87321 -2.37177e-19)
(5.15987 -5.72723 -1.57117e-19)
(5.05767 -5.58255 1.8303e-19)
(4.9548 -5.44016 -1.03459e-19)
(4.8523 -5.30087 4.88667e-20)
(4.75098 -5.16531 9.92292e-21)
(4.65154 -5.03394 -4.17231e-20)
(4.55448 -4.90709 1.52636e-19)
(4.46017 -4.78496 -1.38902e-19)
(4.36891 -4.66768 -1.11286e-19)
(4.28088 -4.5553 9.69869e-20)
(4.19621 -4.44787 -1.0984e-20)
(4.11502 -4.34542 -7.13315e-20)
(4.03741 -4.24801 6.28393e-20)
(3.96347 -4.15574 -1.94147e-19)
(3.89332 -4.06878 1.18264e-19)
(3.82762 -3.98684 -1.92145e-21)
(3.76751 -3.90905 -1.22186e-19)
(3.70831 -3.8387 1.64297e-19)
(6.56155 -7.2739 2.3063e-19)
(6.28588 -7.15929 -5.46862e-19)
(6.17288 -6.9943 -4.56305e-20)
(6.09651 -6.84552 2.49638e-19)
(6.02502 -6.7145 -6.29427e-20)
(5.95561 -6.58664 -1.78704e-19)
(5.88331 -6.45664 8.11709e-20)
(5.80481 -6.32293 9.37239e-20)
(5.71917 -6.18523 7.42492e-21)
(5.62671 -6.04411 1.13169e-19)
(5.52845 -5.90068 3.59512e-19)
(5.4257 -5.75623 -1.2545e-19)
(5.3199 -5.61203 3.14784e-20)
(5.2124 -5.46925 -8.29995e-20)
(5.10442 -5.32887 3.14759e-19)
(4.99702 -5.19167 -5.65682e-20)
(4.89105 -5.05827 8.34403e-20)
(4.78717 -4.92911 -1.40032e-19)
(4.6859 -4.80448 7.57686e-20)
(4.5876 -4.68456 1.14101e-19)
(4.49254 -4.56947 1.93419e-20)
(4.40088 -4.45925 7.57466e-20)
(4.31273 -4.35393 -6.2189e-20)
(4.2282 -4.25353 1.72558e-19)
(4.14736 -4.1581 -7.01632e-20)
(4.07029 -4.06778 2.55647e-19)
(3.99712 -3.9828 -7.37214e-20)
(3.92855 -3.90291 5.05153e-20)
(3.86595 -3.82732 -9.52007e-20)
(3.80502 -3.76002 1.58941e-19)
(6.75701 -7.10519 -5.06259e-19)
(6.48487 -7.0053 1.8178e-20)
(6.37162 -6.84821 -2.76759e-19)
(6.2939 -6.70489 4.92383e-20)
(6.22025 -6.57796 1.42143e-20)
(6.14774 -6.45313 -2.35153e-19)
(6.07152 -6.32544 -4.39397e-19)
(5.98844 -6.19366 2.1663e-19)
(5.89775 -6.05769 -3.04916e-19)
(5.79996 -5.91828 -1.58915e-19)
(5.69622 -5.7766 -8.96739e-20)
(5.588 -5.63401 -6.98587e-20)
(5.47679 -5.49178 1.13481e-21)
(5.36404 -5.35108 -2.49365e-19)
(5.25101 -5.21287 1.60566e-19)
(5.13878 -5.07794 -2.64062e-19)
(5.02821 -4.94685 -6.66901e-20)
(4.91998 -4.82002 7.53053e-20)
(4.81458 -4.69773 -3.00854e-20)
(4.71237 -4.58013 8.80515e-20)
(4.61358 -4.46732 6.7329e-20)
(4.51835 -4.35932 -1.68139e-19)
(4.42678 -4.25614 1.68096e-19)
(4.33892 -4.1578 -1.8059e-20)
(4.25483 -4.06435 -4.46653e-20)
(4.17455 -3.97597 -1.76412e-19)
(4.09821 -3.89286 -9.31851e-20)
(4.02653 -3.81475 1.71835e-19)
(3.9609 -3.74125 -5.6614e-20)
(3.89769 -3.67832 -5.1691e-20)
(6.95025 -6.93072 2.20465e-19)
(6.68089 -6.84475 1.96381e-20)
(6.56692 -6.69573 -5.33314e-20)
(6.48782 -6.55809 -1.16582e-20)
(6.4121 -6.43539 -9.42067e-20)
(6.33655 -6.31366 3.18217e-19)
(6.25641 -6.18839 -1.47877e-19)
(6.16875 -6.05864 9.65176e-20)
(6.073 -5.92456 3.94858e-20)
(5.96988 -5.78701 1.39814e-19)
(5.86068 -5.64726 -5.30534e-20)
(5.74699 -5.5067 2.99257e-19)
(5.63042 -5.36662 -2.5387e-20)
(5.51247 -5.22817 1.89991e-19)
(5.39445 -5.09232 -3.17049e-19)
(5.27747 -4.95979 -2.33134e-20)
(5.16239 -4.83116 2.0158e-19)
(5.04989 -4.70679 -1.24717e-19)
(4.94046 -4.58695 5.11231e-20)
(4.83443 -4.47177 8.69001e-20)
(4.73201 -4.36131 -1.26316e-19)
(4.63331 -4.25558 1.38521e-19)
(4.5384 -4.15456 -1.29186e-19)
(4.44729 -4.05825 2.80121e-20)
(4.35996 -3.96671 1.035e-19)
(4.2764 -3.88008 7.1389e-20)
(4.19672 -3.79844 6.67457e-20)
(4.12135 -3.72152 4.92288e-20)
(4.05064 -3.65021 -1.32644e-19)
(3.98207 -3.59259 -5.04616e-20)
(10.0022 0.0129412 2.87515e-21)
(9.99174 -0.250515 2.82735e-20)
(9.97492 -0.512337 9.82562e-20)
(9.95203 -0.772936 5.37164e-20)
(9.92263 -1.03243 -1.14058e-19)
(9.88651 -1.29076 3.44992e-20)
(9.84364 -1.54782 -3.61178e-20)
(9.79404 -1.80348 -9.14435e-20)
(9.73775 -2.05757 4.80664e-20)
(9.67481 -2.30993 -5.5947e-20)
(9.60527 -2.56039 -5.61529e-20)
(9.52919 -2.80878 -1.19769e-19)
(9.44663 -3.05492 -3.45287e-19)
(9.35768 -3.29866 3.16454e-20)
(9.2624 -3.53982 -1.50253e-20)
(9.16088 -3.77825 -1.09648e-19)
(9.0532 -4.01378 2.33498e-19)
(8.93944 -4.24625 1.27602e-19)
(8.8197 -4.47551 2.44772e-19)
(8.69408 -4.70141 1.20121e-19)
(8.56267 -4.92381 -2.70349e-19)
(8.42557 -5.14255 1.06678e-20)
(8.2829 -5.3575 -5.1575e-19)
(8.13476 -5.56852 7.8399e-19)
(7.98128 -5.77549 -2.5777e-19)
(7.82259 -5.9783 -3.36087e-19)
(7.6588 -6.17686 -4.96429e-20)
(7.49009 -6.37114 -5.50905e-21)
(7.31656 -6.56119 -2.59617e-19)
(7.13885 -6.74712 4.57726e-19)
(10.0016 -0.124382 1.07052e-20)
(9.98279 -0.386804 1.57225e-20)
(9.95668 -0.647529 3.8274e-21)
(9.92378 -0.906731 -1.3788e-19)
(9.88408 -1.16444 -1.23841e-19)
(9.83756 -1.42056 1.09513e-19)
(9.78423 -1.67493 1.35501e-19)