/*--------------------------------*- C++ -*----------------------------------*\
| =========                 |                                                 |
| \\      /  F ield         | OpenFOAM: The Open Source CFD Toolbox           |
|  \\    /   O peration     | Version:  v1912                                 |
|   \\  /    A nd           | Website:  www.openfoam.com                      |
|    \\/     M anipulation  |                                                 |
\*---------------------------------------------------------------------------*/
FoamFile
{
    version     2.0;
    format      ascii;
    class       volScalarField;
    location    "69.5";
    object      p;
}
// * * * * * * * * * * * * * * * * * * * * * * * * * * * * * * * * * * * * * //

dimensions      [0 2 -2 0 0 0 0];


internalField   nonuniform List<scalar> 
9600
(
-41.4881
-36.2234
-32.9967
-30.2596
-27.7543
-25.4875
-23.431
-21.5568
-19.8475
-18.2894
-16.8699
-15.5771
-14.3996
-13.3266
-12.348
-11.4544
-10.6374
-9.8891
-9.20193
-8.57372
-42.2482
-36.9659
-33.7032
-30.9232
-28.3728
-26.0619
-23.964
-22.052
-20.3088
-18.7207
-17.2748
-15.9588
-14.761
-13.6701
-12.6756
-11.7678
-10.9381
-10.178
-9.4797
-8.84221
-43.0099
-37.7044
-34.4043
-31.5813
-28.9855
-26.6303
-24.491
-22.5413
-20.7644
-19.1466
-17.6746
-16.3358
-15.1179
-14.0093
-12.9992
-12.0774
-11.235
-10.4632
-9.75388
-9.10731
-43.77
-38.4385
-35.0996
-32.2328
-29.5913
-27.1917
-25.011
-23.0238
-21.2135
-19.5663
-18.0686
-16.7072
-15.4696
-14.3437
-13.3181
-12.3826
-11.5277
-10.7444
-10.0241
-9.36869
-44.5257
-39.1666
-35.788
-32.8768
-30.1892
-27.7451
-25.5231
-23.4986
-21.6553
-19.979
-18.4559
-17.0725
-15.8155
-14.6725
-13.6319
-12.6828
-11.8157
-11.021
-10.2899
-9.62606
-45.2747
-39.8873
-36.4683
-33.512
-30.7782
-28.2895
-26.0264
-23.9649
-22.0888
-20.3839
-18.8359
-17.4308
-16.1549
-14.9953
-13.9399
-12.9776
-12.0986
-11.2927
-10.5511
-9.87915
-46.0153
-40.5992
-37.1393
-34.1375
-31.3572
-28.824
-26.5198
-24.4217
-22.5134
-20.7803
-19.2079
-17.7815
-16.4872
-15.3114
-14.2416
-13.2665
-12.3758
-11.5591
-10.8072
-10.1277
-46.746
-41.3007
-37.7996
-34.752
-31.925
-29.3474
-27.0026
-24.8682
-22.928
-21.1673
-19.571
-18.124
-16.8116
-15.6201
-14.5364
-13.5489
-12.647
-11.8198
-11.0579
-10.3714
-47.4654
-41.9907
-38.4481
-35.3543
-32.4808
-29.8588
-27.4737
-25.3034
-23.332
-21.5442
-19.9245
-18.4574
-17.1276
-15.9207
-14.8236
-13.8242
-12.9115
-12.0742
-11.3028
-10.6099
-48.1723
-42.668
-39.0837
-35.9436
-33.0233
-30.3573
-27.9322
-25.7266
-23.7244
-21.9101
-20.2677
-18.7809
-17.4342
-16.2126
-15.1026
-14.0917
-13.1687
-12.3218
-11.5414
-10.8428
-48.8656
-43.3313
-39.7052
-36.5186
-33.5518
-30.8419
-28.3772
-26.1367
-24.1044
-22.2642
-20.5996
-19.0938
-17.7307
-16.4949
-15.3724
-14.3506
-13.4178
-12.5619
-11.773
-11.0694
-49.5442
-43.9798
-40.3117
-37.0785
-34.0652
-31.3118
-28.8079
-26.5331
-24.4712
-22.6057
-20.9194
-19.3952
-18.0162
-16.7667
-15.6323
-14.6
-13.6581
-12.7936
-11.9969
-11.2891
-50.2076
-44.6126
-40.9022
-37.6224
-34.5626
-31.766
-29.2235
-26.9149
-24.8239
-22.9337
-21.2263
-19.6841
-18.2897
-17.027
-15.8811
-14.839
-13.8884
-13.016
-12.2122
-11.5009
-50.8551
-45.2288
-41.476
-38.1494
-35.0434
-32.2039
-29.6231
-27.2814
-25.1619
-23.2473
-21.5194
-19.9596
-18.5502
-17.2746
-16.1177
-15.0661
-14.1075
-13.2279
-12.4176
-11.7044
-51.4861
-45.8276
-42.0322
-38.6588
-35.5067
-32.6248
-30.0063
-27.6318
-25.4843
-23.546
-21.7979
-20.2208
-18.7966
-17.5083
-16.3405
-15.2797
-14.3132
-13.4268
-12.6112
-11.8976
-52.1003
-46.4083
-42.5701
-39.15
-35.952
-33.028
-30.3723
-27.9657
-25.7908
-23.8291
-22.061
-20.4669
-19.028
-17.727
-16.5484
-15.4782
-14.5039
-13.6108
-12.79
-12.075
-52.6988
-46.9707
-43.0891
-39.6222
-36.3786
-33.413
-30.7207
-28.2825
-26.0807
-24.096
-22.3082
-20.6971
-19.2435
-17.9298
-16.7402
-15.6609
-14.6791
-13.7798
-12.953
-12.2334
-53.286
-47.516
-43.5883
-40.0744
-36.7856
-33.779
-31.0509
-28.5819
-26.3537
-24.3464
-22.539
-20.9107
-19.442
-18.1149
-16.9137
-15.8249
-14.836
-13.931
-13.0993
-12.3841
-53.864
-48.0437
-44.0661
-40.5054
-37.1727
-34.1262
-31.3633
-28.8643
-26.6104
-24.5808
-22.7539
-21.108
-19.6231
-18.2808
-17.0655
-15.9637
-14.9628
-14.047
-13.2139
-12.5314
-54.411
-48.546
-44.5217
-40.916
-37.541
-34.4562
-31.6595
-29.1315
-26.8526
-24.8013
-22.955
-21.2913
-19.7894
-18.4302
-17.1973
-16.0759
-15.0512
-14.1096
-13.2656
-12.5893
-59.8679
-59.8364
-59.7672
-59.6747
-59.5583
-59.4156
-59.2459
-59.0498
-58.8279
-58.5807
-58.3087
-58.0125
-57.6928
-57.3503
-56.9857
-56.5999
-56.194
-55.7697
-55.3298
-54.8775
-53.5189
-53.5163
-53.4806
-53.4172
-53.327
-53.2095
-53.0649
-52.8938
-52.6971
-52.4753
-52.229
-51.9589
-51.6655
-51.3495
-51.0115
-50.6523
-50.2724
-49.8723
-49.4526
-49.0112
-48.8745
-48.8963
-48.8887
-48.8524
-48.7885
-48.6981
-48.5816
-48.4398
-48.2731
-48.0824
-47.868
-47.6306
-47.3707
-47.0889
-46.7857
-46.4615
-46.1167
-45.7512
-45.3647
-44.9554
-44.6436
-44.6831
-44.696
-44.6818
-44.6413
-44.5756
-44.4855
-44.3713
-44.2338
-44.0733
-43.8905
-43.6859
-43.46
-43.2132
-42.946
-42.6585
-42.3511
-42.0236
-41.6758
-41.3068
-40.7315
-40.7809
-40.8063
-40.8071
-40.7835
-40.7365
-40.6668
-40.5747
-40.4608
-40.3256
-40.1697
-39.9934
-39.7973
-39.5818
-39.3471
-39.0937
-38.8215
-38.5305
-38.2205
-37.8909
-37.218
-37.2715
-37.3034
-37.3128
-37.2999
-37.2653
-37.2097
-37.1335
-37.0372
-36.9213
-36.7863
-36.6327
-36.4608
-36.2712
-36.0641
-35.8397
-35.5982
-35.3394
-35.0633
-34.7692
-34.094
-34.1475
-34.1812
-34.1944
-34.187
-34.1597
-34.113
-34.0474
-33.9634
-33.8614
-33.7419
-33.6054
-33.4524
-33.2832
-33.0983
-32.8978
-32.6819
-32.4506
-32.2035
-31.9401
-31.3229
-31.3736
-31.4059
-31.4194
-31.414
-31.3902
-31.3485
-31.2895
-31.2135
-31.121
-31.0126
-30.8887
-30.7498
-30.5964
-30.4289
-30.2476
-30.0526
-29.844
-29.6214
-29.3843
-28.8647
-28.9109
-28.9401
-28.9518
-28.946
-28.9232
-28.8839
-28.8285
-28.7575
-28.6714
-28.5706
-28.4558
-28.3274
-28.186
-28.0321
-27.866
-27.6881
-27.4982
-27.2962
-27.0814
-26.6797
-26.7208
-26.7459
-26.7547
-26.7472
-26.7239
-26.6853
-26.6317
-26.5637
-26.4817
-26.3862
-26.2778
-26.1572
-26.025
-25.8817
-25.7278
-25.5637
-25.3895
-25.2049
-25.0094
-24.7308
-24.7665
-24.7873
-24.7927
-24.783
-24.7584
-24.7195
-24.6667
-24.6003
-24.5209
-24.4291
-24.3254
-24.2106
-24.0854
-23.9504
-23.8063
-23.6536
-23.4927
-23.3232
-23.1446
-22.9849
-23.0156
-23.0321
-23.0342
-23.022
-22.9958
-22.9561
-22.9033
-22.8379
-22.7603
-22.671
-22.5708
-22.4604
-22.3406
-22.2122
-22.076
-21.9329
-21.7833
-21.6273
-21.4639
-21.4139
-21.4399
-21.4525
-21.4514
-21.4367
-21.4089
-21.3684
-21.3154
-21.2504
-21.174
-21.0866
-20.9891
-20.882
-20.7664
-20.6432
-20.5135
-20.3785
-20.2387
-20.0948
-19.9457
-19.9939
-20.0158
-20.0248
-20.0208
-20.0039
-19.9746
-19.9331
-19.8798
-19.8152
-19.7396
-19.6537
-19.5582
-19.4538
-19.3415
-19.2224
-19.0979
-18.9695
-18.8384
-18.7057
-18.5703
-18.7051
-18.7233
-18.7291
-18.7226
-18.7038
-18.6731
-18.6308
-18.5772
-18.5128
-18.438
-18.3533
-18.2594
-18.157
-18.0472
-17.9313
-17.8108
-17.6879
-17.564
-17.4418
-17.3198
-17.531
-17.5458
-17.5489
-17.54
-17.5196
-17.4877
-17.4447
-17.391
-17.3268
-17.2526
-17.1689
-17.0762
-16.9755
-16.8676
-16.7539
-16.6363
-16.5173
-16.3992
-16.2865
-16.1778
-16.4578
-16.4697
-16.4702
-16.4594
-16.4374
-16.4045
-16.361
-16.3071
-16.2431
-16.1693
-16.0864
-15.9947
-15.895
-15.7883
-15.6759
-15.5597
-15.443
-15.3286
-15.2241
-15.1273
-15.4736
-15.483
-15.4816
-15.4693
-15.4463
-15.4127
-15.3688
-15.3149
-15.2512
-15.178
-15.0958
-15.0049
-14.906
-14.7999
-14.6878
-14.5717
-14.4553
-14.3425
-14.245
-14.1572
-14.5672
-14.5752
-14.5728
-14.56
-14.5369
-14.5037
-14.4606
-14.4077
-14.3454
-14.2739
-14.1934
-14.1045
-14.0074
-13.9029
-13.792
-13.6761
-13.559
-13.4458
-13.3552
-13.2816
-13.7333
-13.7381
-13.7332
-13.7186
-13.6944
-13.6608
-13.618
-13.566
-13.5052
-13.4356
-13.3576
-13.2714
-13.1772
-13.0756
-12.9668
-12.852
-12.733
-12.6151
-12.518
-12.4688
-53.5742
-54.1498
-54.6882
-55.2116
-55.717
-56.1985
-56.6532
-57.0801
-57.4782
-57.8467
-58.1848
-58.4922
-58.7683
-59.013
-59.2254
-59.4058
-59.555
-59.6741
-59.7652
-59.8302
-47.091
-47.672
-48.2248
-48.7553
-49.2629
-49.7453
-50.201
-50.6293
-51.0295
-51.4011
-51.7434
-52.0562
-52.3398
-52.5948
-52.819
-53.012
-53.1742
-53.3062
-53.4084
-53.4795
-42.4465
-43.0152
-43.5601
-44.0817
-44.5798
-45.0538
-45.5028
-45.926
-46.3231
-46.6931
-47.0352
-47.3492
-47.6347
-47.8905
-48.1179
-48.3171
-48.4877
-48.6295
-48.7422
-48.8242
-38.3223
-38.8656
-39.3893
-39.8914
-40.3713
-40.8287
-41.263
-41.6736
-42.0599
-42.4211
-42.7561
-43.0644
-43.3468
-43.6028
-43.8327
-44.0362
-44.2128
-44.3621
-44.484
-44.5779
-34.6443
-35.1576
-35.6538
-36.1304
-36.5864
-37.0214
-37.4348
-37.8261
-38.1944
-38.5392
-38.8612
-39.1599
-39.4338
-39.6832
-39.9082
-40.1085
-40.2838
-40.4338
-40.5587
-40.658
-31.4455
-31.9273
-32.3938
-32.8423
-33.2716
-33.6813
-34.071
-34.44
-34.7879
-35.1143
-35.4192
-35.7019
-35.9618
-36.199
-36.4139
-36.6062
-36.7752
-36.9209
-37.0434
-37.1426
-28.6735
-29.1245
-29.5612
-29.9814
-30.3836
-30.7675
-31.1326
-31.4783
-31.8043
-32.1103
-32.3958
-32.6608
-32.9047
-33.1274
-33.3286
-33.5102
-33.6703
-33.8086
-33.9252
-34.0205
-26.2614
-26.6835
-27.0922
-27.4853
-27.8615
-28.2204
-28.5615
-28.8842
-29.1884
-29.4736
-29.7397
-29.9865
-30.2138
-30.4216
-30.6097
-30.7768
-30.9263
-31.0556
-31.1646
-31.2538
-24.1505
-24.5462
-24.9291
-25.2972
-25.6493
-25.9848
-26.3032
-26.6043
-26.8876
-27.153
-27.4003
-27.6295
-27.8404
-28.0331
-28.2073
-28.3632
-28.4995
-28.6187
-28.7193
-28.8014
-22.2907
-22.6626
-23.0223
-23.3678
-23.6979
-24.0119
-24.3094
-24.5903
-24.8542
-25.1012
-25.331
-25.5436
-25.739
-25.9171
-26.0779
-26.2214
-26.3473
-26.456
-26.548
-26.6226
-20.6404
-20.9911
-21.3301
-21.6553
-21.9654
-22.2599
-22.5384
-22.8009
-23.047
-23.2769
-23.4906
-23.6879
-23.8689
-24.0336
-24.182
-24.314
-24.4297
-24.5289
-24.6125
-24.6799
-19.1659
-19.4978
-19.8185
-20.1257
-20.4179
-20.6947
-20.9559
-21.2015
-21.4314
-21.6458
-21.8446
-22.0279
-22.1958
-22.3483
-22.4853
-22.6069
-22.713
-22.8039
-22.8792
-22.9399
-17.8403
-18.1556
-18.4605
-18.7517
-19.0277
-19.2884
-19.5337
-19.7639
-19.979
-20.1791
-20.3645
-20.5351
-20.6911
-20.8324
-20.9591
-21.0712
-21.1687
-21.2515
-21.3195
-21.3742
-16.6418
-16.9427
-17.234
-17.5111
-17.7724
-18.0183
-18.2491
-18.4651
-18.6665
-18.8536
-19.0267
-19.1857
-19.3308
-19.4621
-19.5795
-19.683
-19.7727
-19.8487
-19.9112
-19.9591
-15.5535
-15.8421
-16.1219
-16.3863
-16.6341
-16.8663
-17.0836
-17.2863
-17.4751
-17.6502
-17.812
-17.9604
-18.0957
-18.2179
-18.3268
-18.4227
-18.5054
-18.575
-18.6314
-18.6747
-14.5606
-14.8407
-15.1113
-15.3637
-15.5986
-15.8179
-16.0223
-16.2127
-16.3896
-16.5536
-16.7049
-16.8436
-16.9699
-17.0838
-17.1851
-17.274
-17.3503
-17.4142
-17.4655
-17.5044
-13.6454
-13.9244
-14.1898
-14.4309
-14.6531
-14.8599
-15.0521
-15.2307
-15.3966
-15.5502
-15.692
-15.8219
-15.9401
-16.0464
-16.1409
-16.2235
-16.2942
-16.3529
-16.3998
-16.4347
-12.7874
-13.0706
-13.3373
-13.5689
-13.7792
-13.9743
-14.1554
-14.3234
-14.4794
-14.6241
-14.7576
-14.8801
-14.9914
-15.0914
-15.1802
-15.2577
-15.3237
-15.3783
-15.4215
-15.4533
-11.9999
-12.2736
-12.541
-12.7678
-12.968
-13.1517
-13.3223
-13.4808
-13.6281
-13.7648
-13.8912
-14.0071
-14.1126
-14.2074
-14.2915
-14.3648
-14.4271
-14.4785
-14.519
-14.5485
-11.4092
-11.66
-11.8878
-12.1046
-12.293
-12.4589
-12.613
-12.7572
-12.8912
-13.0154
-13.1302
-13.2355
-13.331
-13.4167
-13.4923
-13.5579
-13.6133
-13.6585
-13.6934
-13.7179
-6.00723
-6.4986
-7.03704
-7.61951
-8.25244
-8.94322
-9.69951
-10.5308
-11.4492
-12.4704
-13.6149
-14.9096
-16.3898
-18.1018
-20.1059
-22.4815
-25.3097
-28.6128
-32.6102
-38.6062
-6.27788
-6.78278
-7.33175
-7.92629
-8.573
-9.27897
-10.052
-10.9018
-11.8407
-12.8848
-14.0549
-15.3782
-16.8906
-18.6386
-20.6828
-23.1025
-25.9777
-29.3277
-33.3636
-39.3807
-6.54996
-7.0684
-7.62802
-8.23486
-8.8956
-9.61701
-10.407
-11.2756
-12.2354
-13.3027
-14.4987
-15.851
-17.3958
-19.1801
-21.2648
-23.7286
-26.6505
-30.0461
-34.1188
-40.1524
-6.82297
-7.3549
-7.92524
-8.5446
-9.2196
-9.95665
-10.7638
-11.6514
-12.6323
-13.7231
-14.9452
-16.3267
-17.9042
-19.7251
-21.8502
-24.3581
-27.3263
-30.7675
-34.878
-40.9328
-7.09649
-7.64181
-8.22295
-8.85504
-9.54449
-10.2974
-11.1219
-12.0287
-13.0308
-14.1452
-15.3936
-16.8045
-18.4149
-20.2724
-22.4381
-24.9901
-28.0046
-31.4914
-35.6404
-41.7196
-7.37013
-7.92873
-8.52073
-9.16574
-9.86984
-10.6387
-11.4808
-12.4069
-13.4304
-14.5686
-15.8434
-17.2839
-18.9272
-20.8215
-23.0278
-25.6238
-28.6845
-32.2166
-36.4039
-42.5084
-7.64357
-8.21529
-8.81821
-9.47633
-10.1952
-10.9803
-11.84
-12.7855
-13.8306
-14.9926
-16.2941
-17.7641
-19.4405
-21.3716
-23.6185
-26.2585
-29.3652
-32.9422
-37.1669
-43.2971
-7.91658
-8.5012
-9.11505
-9.78645
-10.5203
-11.3216
-12.1991
-13.1641
-14.2308
-15.4167
-16.7448
-18.2445
-19.954
-21.9219
-24.2094
-26.8932
-30.0455
-33.667
-37.9284
-44.084
-8.18899
-8.78627
-9.41101
-10.0958
-10.8447
-11.6623
-12.5576
-13.5422
-14.6304
-15.8403
-17.195
-18.7244
-20.467
-22.4716
-24.7995
-27.5269
-30.7244
-34.3898
-38.6871
-44.8678
-8.46077
-9.07038
-9.70595
-10.4043
-11.1683
-12.0021
-12.9152
-13.9193
-15.0291
-16.2629
-17.6441
-19.2031
-20.9786
-23.0198
-25.3879
-28.1585
-31.4008
-35.1094
-39.4416
-45.647
-8.73203
-9.35356
-9.99981
-10.7116
-11.4907
-12.3408
-13.2715
-14.295
-15.4262
-16.6837
-18.0914
-19.6798
-21.4881
-23.5657
-25.9736
-28.7871
-32.0736
-35.8247
-40.1906
-46.42
-9.00305
-9.63599
-10.2926
-11.0179
-11.8119
-12.678
-13.6261
-14.6689
-15.8213
-17.1024
-18.5362
-20.1538
-21.9947
-24.1083
-26.5558
-29.4115
-32.7416
-36.5344
-40.9329
-47.1854
-9.27432
-9.91795
-10.5845
-11.3229
-12.1316
-13.0135
-13.9788
-15.0405
-16.2138
-17.5181
-18.9779
-20.6244
-22.4975
-24.6468
-27.1333
-30.0307
-33.4036
-37.2372
-41.667
-47.9419
-9.54658
-10.1999
-10.8757
-11.6268
-12.4497
-13.3469
-14.329
-15.4092
-16.6031
-17.9303
-19.4157
-21.0907
-22.9956
-25.1801
-27.7051
-30.6436
-34.0584
-37.932
-42.3918
-48.6883
-9.82056
-10.4821
-11.1661
-11.9292
-12.7658
-13.6778
-14.6761
-15.7744
-16.9885
-18.3382
-19.8486
-21.5518
-23.488
-25.7072
-28.2701
-31.2489
-34.7048
-38.6175
-43.1059
-49.4232
-10.0973
-10.7648
-11.4554
-12.2297
-13.0792
-14.0054
-15.0195
-16.1354
-17.3691
-18.7409
-20.2759
-22.0067
-23.9737
-26.2271
-28.8272
-31.8454
-35.3415
-39.2923
-43.8083
-50.1458
-10.3764
-11.0469
-11.7423
-12.5268
-13.3887
-14.3286
-15.358
-16.4911
-17.7441
-19.1373
-20.6966
-22.4544
-24.4517
-26.7385
-29.375
-32.4317
-35.967
-39.9551
-44.4979
-50.8554
-10.6574
-11.3259
-12.0242
-12.8188
-13.6931
-14.6464
-15.6907
-16.8405
-18.1123
-19.5266
-21.1095
-22.8939
-24.9207
-27.2402
-29.9123
-33.0065
-36.5798
-40.6043
-45.1735
-51.5521
-10.9329
-11.5935
-12.295
-13.1022
-13.9901
-14.957
-16.0161
-17.1824
-18.4727
-19.9076
-21.5137
-23.3239
-25.3795
-27.7309
-30.4376
-33.5682
-37.1783
-41.238
-45.834
-52.2372
-11.1842
-11.8297
-12.5503
-13.378
-14.2803
-15.2602
-16.3337
-17.5162
-18.8244
-20.2794
-21.9079
-23.7433
-25.8271
-28.2094
-30.9495
-34.115
-37.7601
-41.8531
-46.4746
-52.9123
-1.58528
-1.83923
-2.1871
-2.57603
-2.99458
-3.44812
-3.94296
-4.48502
-5.0818
-5.74356
-6.48424
-7.32287
-8.28559
-9.40845
-10.7423
-12.3616
-14.3558
-16.7863
-19.9615
-25.3562
-1.73847
-2.00885
-2.3752
-2.77006
-3.19205
-3.65093
-4.15268
-4.70283
-5.30902
-5.98178
-6.73531
-7.58896
-8.56932
-9.71295
-11.0713
-12.7192
-14.7464
-17.2124
-20.4198
-25.8284
-1.886
-2.18047
-2.55998
-2.96299
-3.39272
-3.85999
-4.37069
-4.93052
-5.5475
-6.23249
-7.00004
-7.86988
-8.86905
-10.0346
-11.4187
-13.0963
-15.1571
-17.6586
-20.8975
-26.3147
-2.05583
-2.36112
-2.74884
-3.16058
-3.59951
-4.07633
-4.59706
-5.16771
-5.7966
-6.49492
-7.27755
-8.16463
-9.18366
-10.3723
-11.783
-13.4914
-15.5868
-18.125
-21.3987
-26.8336
-2.23698
-2.54937
-2.94493
-3.36564
-3.81407
-4.30087
-4.83229
-5.41455
-6.05623
-6.7688
-7.56746
-8.47276
-9.51266
-10.7253
-12.1638
-13.9041
-16.0353
-18.6117
-21.9229
-27.3819
-2.42361
-2.74462
-3.14852
-3.57836
-4.03657
-4.53383
-5.07652
-5.67109
-6.32633
-7.05397
-7.86955
-8.794
-9.85577
-11.0935
-12.5609
-14.3342
-16.5024
-19.1183
-22.4683
-27.9544
-2.61724
-2.94776
-3.35993
-3.79891
-4.26719
-4.77533
-5.32983
-5.93731
-6.60679
-7.35026
-8.18357
-9.12806
-10.2126
-11.4766
-12.9739
-14.7814
-16.9877
-19.6442
-23.0337
-28.5486
-2.81927
-3.15929
-3.57949
-4.02762
-4.50616
-5.02551
-5.59224
-6.21315
-6.89748
-7.65745
-8.50926
-9.47462
-10.5829
-11.8739
-13.4023
-15.2451
-17.4907
-20.1887
-23.6186
-29.1635
-3.02948
-3.37904
-3.80726
-4.26457
-4.75354
-5.28437
-5.8637
-6.49851
-7.19822
-7.97532
-8.84632
-9.83334
-10.9662
-12.2853
-13.8456
-15.7247
-18.0106
-20.7513
-24.2223
-29.798
-3.24726
-3.60668
-4.04301
-4.50962
-5.0092
-5.55177
-6.14405
-6.79318
-7.50878
-8.30359
-9.19445
-10.2039
-11.3621
-12.7101
-14.3034
-16.2198
-18.547
-21.3312
-24.8439
-30.4511
-3.47218
-3.84186
-4.28645
-4.76247
-5.27287
-5.82747
-6.43304
-7.09689
-7.82886
-8.64194
-9.55327
-10.5858
-11.7702
-13.1479
-14.775
-16.7296
-19.0991
-21.9276
-25.4826
-31.1217
-3.70386
-4.08419
-4.53719
-5.02279
-5.54423
-6.11113
-6.73032
-7.40929
-8.15809
-8.98996
-9.92236
-10.9786
-12.1899
-13.5982
-15.26
-17.2537
-19.6662
-22.5398
-26.1374
-31.8087
-3.94183
-4.33318
-4.79478
-5.29015
-5.82288
-6.40236
-7.03551
-7.72999
-8.49605
-9.34721
-10.3013
-11.3819
-12.6208
-14.0603
-15.7577
-17.7913
-20.2477
-23.167
-26.8077
-32.5112
-4.18557
-4.58831
-5.05872
-5.56409
-6.10836
-6.70071
-7.34814
-8.0585
-8.84227
-9.71321
-10.6894
-11.795
-13.0622
-14.5337
-16.2674
-18.3417
-20.8427
-23.8084
-27.4924
-33.2283
-4.43453
-4.84903
-5.32848
-5.84407
-6.40016
-7.00569
-7.66772
-8.39434
-9.19622
-10.0874
-11.0863
-12.2175
-13.5135
-15.0178
-16.7884
-18.9041
-21.4504
-24.463
-28.1907
-33.9591
-4.68816
-5.11478
-5.60349
-6.12956
-6.69774
-7.31674
-7.99372
-8.73694
-9.55735
-10.4692
-11.4913
-12.6486
-13.9741
-15.5117
-17.32
-19.4778
-22.0699
-25.1301
-28.9018
-34.7027
-4.94591
-5.38495
-5.88317
-6.41999
-7.00054
-7.63332
-8.32555
-9.08575
-9.92506
-10.8581
-11.9038
-13.0877
-14.4433
-16.0148
-17.8613
-20.0618
-22.7005
-25.8087
-29.6249
-35.4587
-5.20722
-5.65899
-6.16694
-6.71477
-7.308
-7.95485
-8.66266
-9.44016
-10.2987
-11.2533
-12.3232
-13.5341
-14.9202
-16.5263
-18.4116
-20.6554
-23.341
-26.4977
-30.3591
-36.2267
-5.47155
-5.93631
-6.45422
-7.01333
-7.61952
-8.28073
-9.00443
-9.79955
-10.6778
-11.6542
-12.7486
-13.9871
-15.4042
-17.0453
-18.9699
-21.2573
-23.9904
-27.1959
-31.1034
-37.0073
-5.73839
-6.21637
-6.74446
-7.31512
-7.93455
-8.61042
-9.35029
-10.1634
-11.0615
-12.0602
-13.1795
-14.446
-15.8945
-17.5709
-19.5352
-21.8667
-24.6473
-27.9016
-31.8549
-37.8012
-1.33749
-1.13077
-0.976978
-0.84024
-0.720163
-0.614206
-0.521256
-0.440519
-0.371493
-0.313821
-0.267234
-0.231524
-0.206518
-0.192081
-0.188075
-0.194288
-0.210503
-0.236848
-0.273513
-0.320267
-1.6673
-1.48386
-1.32609
-1.18412
-1.05921
-0.948788
-0.85187
-0.767659
-0.69564
-0.635438
-0.58677
-0.549414
-0.523187
-0.507938
-0.503524
-0.50977
-0.526519
-0.553787
-0.591668
-0.639824
-1.99977
-1.82421
-1.66646
-1.52334
-1.39631
-1.2837
-1.18482
-1.09899
-1.02574
-0.964699
-0.915599
-0.878216
-0.852364
-0.837888
-0.834638
-0.842461
-0.861239
-0.89092
-0.931359
-0.982818
-2.38344
-2.20621
-2.04542
-1.89935
-1.76873
-1.65261
-1.55052
-1.4619
-1.38634
-1.3235
-1.27311
-1.23495
-1.20881
-1.19455
-1.192
-1.20101
-1.22148
-1.25331
-1.29639
-1.35077
-2.80209
-2.6224
-2.45764
-2.30762
-2.17278
-2.05261
-1.94678
-1.85486
-1.77651
-1.71142
-1.65934
-1.62003
-1.59331
-1.57901
-1.57696
-1.58702
-1.60906
-1.64298
-1.68866
-1.74607
-3.25327
-3.07035
-2.90141
-2.74706
-2.60776
-2.48332
-2.37355
-2.27814
-2.19681
-2.12929
-2.07535
-2.03477
-2.00737
-1.99297
-1.9914
-2.00252
-2.02619
-2.0623
-2.11068
-2.17132
-3.74315
-3.5555
-3.38164
-3.22236
-3.07816
-2.94906
-2.83499
-2.73575
-2.65113
-2.5809
-2.52485
-2.48279
-2.45452
-2.43989
-2.43871
-2.45085
-2.47615
-2.51449
-2.5657
-2.62976
-4.27852
-4.08465
-3.90479
-3.73971
-3.5899
-3.45554
-3.33662
-3.23304
-3.14466
-3.07129
-3.01274
-2.96885
-2.93943
-2.92432
-2.92334
-2.93636
-2.96321
-3.00374
-3.05781
-3.12538
-4.86707
-4.66554
-4.47844
-4.30648
-4.15016
-4.00971
-3.88521
-3.77662
-3.68386
-3.60677
-3.54522
-3.49903
-3.46804
-3.45209
-3.45102
-3.46467
-3.4929
-3.53552
-3.59239
-3.66349
-5.51895
-5.30818
-5.11243
-4.93232
-4.76834
-4.62076
-4.48973
-4.37526
-4.2773
-4.19575
-4.1305
-4.08138
-4.04826
-4.03098
-4.02937
-4.04329
-4.07258
-4.11705
-4.17655
-4.25109
-6.24788
-6.02608
-5.82
-5.63018
-5.45712
-5.30111
-5.16233
-5.04084
-4.93663
-4.84964
-4.77977
-4.72688
-4.69086
-4.67153
-4.66877
-4.6824
-4.71227
-4.75818
-4.81998
-4.89771
-7.0726
-6.83764
-6.61921
-6.4178
-6.23388
-6.06778
-5.9197
-5.78973
-5.6779
-5.58417
-5.50847
-5.45068
-5.4107
-5.38837
-5.38355
-5.39609
-5.42582
-5.47252
-5.53605
-5.61649
-8.01884
-7.76818
-7.53496
-7.31962
-7.12264
-6.94435
-6.78498
-6.64465
-6.52341
-6.42126
-6.33813
-6.27395
-6.22859
-6.20193
-6.19382
-6.20412
-6.23264
-6.27917
-6.34354
-6.42589
-9.12214
-8.8527
-8.60171
-8.36956
-8.15676
-7.96365
-7.79047
-7.63738
-7.50445
-7.39169
-7.29906
-7.22649
-7.17387
-7.14109
-7.128
-7.13446
-7.16029
-7.20523
-7.26912
-7.35215
-10.4328
-10.1409
-9.86846
-9.61597
-9.38395
-9.17275
-8.98264
-8.81377
-8.66624
-8.54007
-8.43524
-8.3517
-8.28935
-8.24807
-8.22773
-8.22819
-8.24925
-8.29064
-8.35216
-8.43407
-12.0244
-11.7056
-11.4075
-11.1305
-10.8752
-10.6419
-10.4311
-10.2427
-10.077
-9.93401
-9.81362
-9.71585
-9.64059
-9.58775
-9.5572
-9.54879
-9.56232
-9.5975
-9.6541
-9.73239
-13.9863
-13.6359
-13.3073
-13.0012
-12.7182
-12.4587
-12.223
-12.0111
-11.8233
-11.6596
-11.5199
-11.4042
-11.3125
-11.2446
-11.2005
-11.18
-11.1829
-11.2089
-11.2578
-11.3295
-16.38
-15.994
-15.6309
-15.2918
-14.9773
-14.6878
-14.4236
-14.1849
-13.9716
-13.7838
-13.6215
-13.4847
-13.3734
-13.2875
-13.2269
-13.1915
-13.181
-13.1955
-13.2344
-13.297
-19.5165
-19.0906
-18.6886
-18.3129
-17.964
-17.6417
-17.3462
-17.0775
-16.8354
-16.62
-16.4313
-16.2694
-16.1341
-16.0254
-15.9433
-15.8874
-15.858
-15.8551
-15.8786
-15.9265
-24.8532
-24.3823
-23.9458
-23.5407
-23.1648
-22.8172
-22.4974
-22.2053
-21.9408
-21.7041
-21.495
-21.3137
-21.1603
-21.0347
-20.9372
-20.8678
-20.8271
-20.8176
-20.8405
-20.8855
-0.377027
-0.44347
-0.519558
-0.605209
-0.700339
-0.804841
-0.918586
-1.04141
-1.1731
-1.31339
-1.46189
-1.61809
-1.78119
-1.94997
-2.12276
-2.2973
-2.4691
-2.62836
-2.75971
-2.88956
-0.698461
-0.767184
-0.845913
-0.934539
-1.03295
-1.14104
-1.25863
-1.38555
-1.52156
-1.66635
-1.81951
-1.98049
-2.14852
-2.32242
-2.50059
-2.68138
-2.86301
-3.03776
-3.19041
-3.36275
-1.04496
-1.11753
-1.20048
-1.29368
-1.397
-1.5103
-1.63341
-1.76613
-1.90818
-2.05925
-2.2189
-2.38657
-2.56152
-2.74272
-2.92881
-3.1186
-3.31111
-3.50198
-3.68549
-3.89157
-1.41633
-1.49276
-1.57998
-1.67785
-1.78622
-1.90494
-2.03382
-2.17262
-2.32106
-2.4788
-2.6454
-2.82031
-3.00281
-3.19201
-3.38682
-3.58638
-3.78989
-3.99503
-4.2023
-4.43209
-1.81517
-1.89561
-1.9873
-2.09009
-2.20381
-2.32829
-2.46331
-2.60864
-2.76398
-2.92896
-3.10316
-3.28603
-3.47693
-3.67508
-3.87966
-4.09007
-4.30567
-4.52545
-4.75204
-4.99859
-2.24425
-2.32899
-2.42548
-2.53357
-2.65307
-2.78379
-2.92551
-3.07798
-3.24088
-3.41386
-3.59648
-3.78826
-3.9886
-4.19685
-4.41239
-4.63481
-4.86372
-5.0989
-5.34309
-5.60416
-2.70673
-2.79599
-2.89761
-3.01137
-3.13709
-3.27455
-3.42354
-3.58378
-3.75497
-3.93674
-4.1287
-4.33037
-4.54123
-4.76075
-4.98846
-5.22406
-5.46734
-5.71851
-5.97978
-6.25561
-3.20639
-3.30053
-3.40758
-3.52737
-3.65972
-3.80442
-3.96124
-4.1299
-4.3101
-4.50149
-4.70368
-4.91626
-5.13875
-5.37071
-5.61177
-5.8617
-6.12041
-6.38823
-6.66673
-6.95837
-3.7488
-3.84785
-3.96053
-4.08663
-4.22598
-4.37837
-4.54355
-4.72126
-4.91118
-5.113
-5.32634
-5.55081
-5.78601
-6.03156
-6.28713
-6.55255
-6.82777
-7.11306
-7.40943
-7.71826
-4.34067
-4.44468
-4.56318
-4.69579
-4.84243
-5.00289
-5.1769
-5.3642
-5.56451
-5.77749
-6.00282
-6.24014
-6.48907
-6.74928
-7.02049
-7.30254
-7.59535
-7.89909
-8.21432
-8.54184
-4.9914
-5.10029
-5.22443
-5.36374
-5.51784
-5.6866
-5.86979
-6.06713
-6.27836
-6.50315
-6.7412
-6.99218
-7.25576
-7.53162
-7.8195
-8.11923
-8.4307
-8.75394
-9.08919
-9.43694
-5.71388
-5.82737
-5.95704
-6.1027
-6.26427
-6.44139
-6.63389
-6.84153
-7.06401
-7.30106
-7.55239
-7.81769
-8.09665
-8.38897
-8.69441
-9.01275
-9.34386
-9.68761
-10.044
-10.4135
-6.52629
-6.64373
-6.7784
-6.93002
-7.09852
-7.28397
-7.48571
-7.7035
-7.93727
-8.18674
-8.45163
-8.73163
-9.02644
-9.33578
-9.65939
-9.99707
-10.3486
-10.7137
-11.0923
-11.4847
-7.45443
-7.57475
-7.71345
-7.87027
-8.04497
-8.23756
-8.4488
-8.67596
-8.92065
-9.18225
-9.4605
-9.75514
-10.0659
-10.3924
-10.7345
-11.0919
-11.4644
-11.8514
-12.2529
-12.6691
-8.53651
-8.65802
-8.79914
-8.95967
-9.13945
-9.33799
-9.55482
-9.79221
-10.0476
-10.3203
-10.6111
-10.9199
-11.2462
-11.5898
-11.9502
-12.3272
-12.7204
-13.1295
-13.5541
-13.9945
-9.83248
-9.95262
-10.0937
-10.2557
-10.4383
-10.6414
-10.8642
-11.1071
-11.37
-11.6536
-11.9563
-12.2784
-12.6195
-12.9789
-13.3563
-13.7517
-14.165
-14.5955
-15.0427
-15.5068
-11.4239
-11.5395
-11.6777
-11.8384
-12.0212
-12.226
-12.4523
-12.7002
-12.9693
-13.26
-13.5728
-13.9066
-14.2596
-14.6312
-15.0224
-15.4338
-15.8651
-16.3153
-16.7835
-17.2695
-13.3816
-13.4896
-13.6218
-13.7779
-13.9566
-14.1584
-14.3833
-14.6312
-14.902
-15.1949
-15.5095
-15.8459
-16.2059
-16.5899
-16.9962
-17.4236
-17.8715
-18.3398
-18.8272
-19.3331
-15.9967
-16.0887
-16.2047
-16.3461
-16.5144
-16.7088
-16.9285
-17.173
-17.442
-17.7352
-18.0519
-18.3919
-18.7553
-19.1428
-19.5542
-19.9888
-20.4466
-20.9281
-21.4332
-21.9572
-20.9273
-20.9997
-21.1029
-21.2348
-21.3942
-21.5803
-21.7928
-22.0311
-22.2949
-22.584
-22.8981
-23.2371
-23.6013
-23.9909
-24.4059
-24.8464
-25.3136
-25.8111
-26.3417
-26.8875
-27.4043
-22.4918
-19.8567
-17.7735
-15.9877
-14.4506
-13.1
-11.8907
-10.7958
-9.79709
-8.88156
-8.0395
-7.26328
-6.54669
-5.88454
-5.2723
-4.70472
-4.17622
-3.69527
-3.29087
-27.949
-23.0426
-20.396
-18.2925
-16.4829
-14.9202
-13.5435
-12.3087
-11.1895
-10.1681
-9.23181
-8.37104
-7.57833
-6.84761
-6.17385
-5.55263
-4.97921
-4.45121
-3.98176
-3.57927
-28.5223
-23.6124
-20.9525
-18.8277
-16.9929
-15.4033
-13.9995
-12.7383
-11.594
-10.5493
-9.59165
-8.71168
-7.90198
-7.1565
-6.47018
-5.83851
-5.25686
-4.72296
-4.24638
-3.82438
-29.12
-24.2016
-21.5263
-19.3786
-17.5171
-15.8994
-14.4673
-13.1788
-12.0085
-10.9397
-9.96
-9.06009
-8.23255
-7.4712
-6.77078
-6.12651
-5.53351
-4.98885
-4.49926
-4.05853
-29.739
-24.8098
-22.1166
-19.9447
-18.055
-16.4077
-14.9462
-13.6293
-12.4322
-11.3385
-10.336
-9.4154
-8.56921
-7.79109
-7.07551
-6.4174
-5.81157
-5.25451
-4.75112
-4.29424
-30.3778
-25.4375
-22.7217
-20.525
-18.6057
-16.9275
-15.4355
-14.0891
-12.8644
-11.7449
-10.7189
-9.77694
-8.91142
-8.1158
-7.38434
-6.71165
-6.09235
-5.52256
-5.0059
-4.53493
-31.0352
-26.083
-23.341
-21.1185
-19.1683
-17.4579
-15.9343
-14.5576
-13.3042
-12.1584
-11.1082
-10.1442
-9.25883
-8.44526
-7.69749
-7.00995
-6.37707
-5.79474
-5.2655
-4.78184
-31.7099
-26.7444
-23.9745
-21.7244
-19.7421
-17.9983
-16.4419
-15.0338
-13.7511
-12.5781
-11.5032
-10.5168
-9.61115
-8.7793
-8.01504
-7.31256
-6.66617
-6.07159
-5.53034
-5.03491
-32.4005
-27.4203
-24.6212
-22.3419
-20.3261
-18.5477
-16.9574
-15.5172
-14.2043
-13.0036
-11.9034
-10.8942
-9.96803
-9.11773
-8.33688
-7.61947
-6.95971
-6.3531
-5.80025
-5.29363
-33.1059
-28.1094
-25.2803
-22.97
-20.9194
-19.1052
-17.4801
-16.0068
-14.6631
-13.4342
-12.3083
-11.276
-10.3291
-9.46018
-8.66271
-7.93042
-7.25739
-6.63892
-6.07472
-5.55729
-33.8248
-28.8107
-25.9506
-23.6077
-21.521
-19.67
-18.0091
-16.5019
-15.1268
-13.8691
-12.7172
-11.6616
-10.6937
-9.80621
-8.9921
-8.24498
-7.55875
-6.92851
-6.3531
-5.82508
-34.556
-29.523
-26.6309
-24.254
-22.13
-20.241
-18.5434
-17.0016
-15.5946
-14.3077
-13.1295
-12.0503
-11.0615
-10.1553
-9.32454
-8.56261
-7.86322
-7.22124
-6.63469
-6.09622
-35.2985
-30.2453
-27.3201
-24.9079
-22.7452
-20.8173
-19.0822
-17.5052
-16.0656
-14.7493
-13.5445
-12.4416
-11.4317
-10.5068
-9.65942
-8.8827
-8.17018
-7.51645
-6.91877
-6.36993
-36.0511
-30.9763
-28.017
-25.5681
-23.3657
-21.3979
-19.6244
-18.0116
-16.5391
-15.1929
-13.9615
-12.8348
-11.8037
-10.8601
-9.9961
-9.20461
-8.47895
-7.81345
-7.20462
-6.6455
-36.8128
-31.7148
-28.7203
-26.2334
-23.9902
-21.9816
-20.1692
-18.5199
-17.0142
-15.6379
-14.3796
-13.229
-12.1769
-11.2145
-10.3339
-9.52768
-8.78888
-8.11158
-7.49157
-6.92223
-37.5823
-32.4594
-29.4288
-26.9028
-24.6176
-22.5674
-20.7153
-19.0293
-17.4899
-16.0835
-14.7982
-13.6237
-12.5504
-11.5694
-10.6722
-9.85125
-9.09932
-8.41018
-7.77897
-7.19948
-38.3592
-33.2091
-30.1412
-27.5748
-25.2468
-23.1542
-21.2618
-19.5386
-17.9654
-16.5286
-15.2164
-14.018
-12.9236
-11.9239
-11.0103
-10.1747
-9.40962
-8.70862
-8.06618
-7.47663
-39.1448
-33.9634
-30.8559
-28.2478
-25.8761
-23.7405
-21.8075
-20.0467
-18.4396
-16.9724
-15.6332
-14.4111
-13.2957
-12.2775
-11.3475
-10.4972
-9.71913
-9.00628
-8.35262
-7.75314
-39.9393
-34.7209
-31.5709
-28.9202
-26.5043
-24.3252
-22.3513
-20.5528
-18.9117
-17.4141
-16.0481
-14.8023
-13.666
-12.6295
-11.6831
-10.8184
-10.0272
-9.30255
-8.6377
-8.02848
-40.7301
-35.4768
-32.2848
-29.5911
-27.1307
-24.9079
-22.8927
-21.0564
-19.3812
-17.8533
-16.4605
-15.1911
-14.0342
-12.9793
-12.0168
-11.1376
-10.3335
-9.59698
-8.92097
-8.3022
-6.78091
-4.67483
-3.31454
-2.26894
-1.53435
-0.994817
-0.607267
-0.332121
-0.141057
-0.012335
0.0706724
0.120596
0.147022
0.157107
0.156164
0.148067
0.135628
0.120848
0.105138
0.0894626
0.0744686
0.0605665
0.0479926
0.0368667
0.0272098
0.0190018
0.0121489
0.00658642
0.00214474
-0.00120537
-0.00372665
-0.00531175
-0.00640812
-0.00660588
-0.00673914
-0.0058135
-0.00540529
-0.00348953
-0.00294572
3.74267e-05
-7.03661
-4.85722
-3.4608
-2.38412
-1.62541
-1.06846
-0.667338
-0.381746
-0.182439
-0.047093
0.0413361
0.0957607
0.125967
0.139255
0.141042
0.135279
0.124839
0.111773
0.0975296
0.0831091
0.0691854
0.0561938
0.0443917
0.0339175
0.0248084