/*--------------------------------*- C++ -*----------------------------------*\
| =========                 |                                                 |
| \\      /  F ield         | OpenFOAM: The Open Source CFD Toolbox           |
|  \\    /   O peration     | Version:  v1912                                 |
|   \\  /    A nd           | Website:  www.openfoam.com                      |
|    \\/     M anipulation  |                                                 |
\*---------------------------------------------------------------------------*/
FoamFile
{
    version     2.0;
    format      ascii;
    class       volScalarField;
    location    "21";
    object      p;
}
// * * * * * * * * * * * * * * * * * * * * * * * * * * * * * * * * * * * * * //

dimensions      [0 2 -2 0 0 0 0];


internalField   nonuniform List<scalar> 
2400
(
-0.391607
-0.378138
-0.370109
-0.36353
-0.357023
-0.35063
-0.344428
-0.338377
-0.332497
-0.327928
-0.404901
-0.390521
-0.381547
-0.37383
-0.366087
-0.358458
-0.351082
-0.343933
-0.336984
-0.331779
-0.42222
-0.406253
-0.395888
-0.38662
-0.377262
-0.368048
-0.35917
-0.350591
-0.342329
-0.336549
-0.443866
-0.42554
-0.413379
-0.402112
-0.390731
-0.379563
-0.368832
-0.358468
-0.348492
-0.341924
-0.470251
-0.448514
-0.434263
-0.420508
-0.406686
-0.393188
-0.380237
-0.367693
-0.355546
-0.347927
-0.501628
-0.4757
-0.458485
-0.441959
-0.425345
-0.409162
-0.393633
-0.378489
-0.363629
-0.354561
-0.537624
-0.507401
-0.48647
-0.466697
-0.446959
-0.427796
-0.409393
-0.391278
-0.373104
-0.361929
-0.578588
-0.543546
-0.5183
-0.494887
-0.471746
-0.449358
-0.427829
-0.406373
-0.384037
-0.369445
-0.62475
-0.583927
-0.553988
-0.526688
-0.49997
-0.474175
-0.449166
-0.423455
-0.394712
-0.373394
-0.675549
-0.628282
-0.593472
-0.562301
-0.53228
-0.503686
-0.476087
-0.447125
-0.412705
-0.382645
-1.14616
-1.12954
-1.10037
-1.061
-1.01368
-0.960601
-0.903865
-0.845359
-0.786737
-0.729554
-1.04787
-1.03296
-1.00667
-0.971154
-0.92853
-0.880881
-0.83016
-0.778119
-0.726278
-0.675951
-0.965833
-0.954687
-0.932621
-0.90163
-0.863755
-0.821011
-0.775298
-0.72833
-0.681589
-0.636303
-0.888191
-0.881949
-0.865044
-0.839266
-0.806518
-0.768723
-0.727727
-0.685225
-0.642713
-0.601413
-0.8122
-0.811115
-0.799724
-0.779556
-0.752301
-0.719714
-0.683517
-0.645327
-0.606634
-0.56866
-0.740294
-0.74401
-0.737957
-0.723382
-0.701719
-0.674486
-0.643188
-0.609249
-0.574055
-0.538743
-0.673887
-0.6817
-0.680442
-0.671114
-0.654896
-0.633043
-0.606767
-0.577145
-0.545272
-0.512004
-0.613403
-0.624539
-0.627402
-0.622813
-0.61176
-0.595275
-0.574268
-0.549313
-0.520824
-0.488618
-0.558708
-0.572523
-0.578925
-0.578645
-0.572587
-0.561691
-0.546701
-0.52773
-0.503963
-0.471719
-0.509754
-0.524921
-0.533652
-0.536649
-0.534842
-0.529274
-0.520908
-0.510119
-0.496032
-0.471846
-0.432286
-0.567464
-0.692887
-0.805638
-0.904536
-0.987798
-1.05408
-1.10271
-1.13366
-1.14761
-0.382698
-0.507558
-0.623889
-0.729776
-0.822365
-0.900107
-0.961928
-1.00727
-1.03618
-1.04927
-0.316759
-0.434724
-0.545425
-0.646611
-0.735714
-0.811416
-0.872516
-0.918332
-0.948752
-0.964223
-0.248082
-0.358686
-0.463454
-0.560016
-0.646532
-0.721043
-0.782398
-0.829825
-0.863022
-0.882204
-0.185228
-0.287951
-0.386285
-0.477924
-0.56092
-0.633543
-0.694586
-0.743188
-0.778894
-0.801714
-0.131545
-0.226553
-0.318412
-0.404756
-0.483686
-0.553732
-0.613663
-0.662619
-0.700051
-0.725829
-0.0871048
-0.175011
-0.260805
-0.34187
-0.416526
-0.483488
-0.541621
-0.590134
-0.628411
-0.656261
-0.0502152
-0.131384
-0.211764
-0.287927
-0.358437
-0.422269
-0.478287
-0.525845
-0.564276
-0.593415
-0.0193029
-0.0937426
-0.169325
-0.241111
-0.307786
-0.368497
-0.422536
-0.469023
-0.507154
-0.536996
-0.000459361
-0.0707541
-0.141817
-0.208541
-0.270359
-0.326656
-0.377437
-0.421998
-0.458568
-0.487711
0.540584
0.561519
0.583852
0.606793
0.629834
0.652304
0.673233
0.691996
0.713864
0.753257
0.513838
0.532085
0.55196
0.572005
0.591536
0.609816
0.625796
0.638884
0.654708
0.688818
0.479625
0.494214
0.510811
0.527038
0.541987
0.554877
0.564627
0.570784
0.579404
0.607035
0.438212
0.448304
0.460896
0.472461
0.481842
0.488249
0.490617
0.488725
0.48911
0.50914
0.389995
0.394909
0.402888
0.409048
0.411999
0.410979
0.404986
0.394127
0.38545
0.396932
0.335468
0.334725
0.337634
0.33778
0.333596
0.324391
0.30928
0.288781
0.270453
0.272638
0.275214
0.268574
0.26615
0.259838
0.247994
0.230066
0.205336
0.174803
0.1465
0.138849
0.209982
0.197488
0.18968
0.176616
0.156778
0.129827
0.095253
0.0545927
0.0162686
-0.00153218
0.140643
0.123029
0.109966
0.0898626
0.0618033
0.0257317
-0.0186457
-0.0692264
-0.11733
-0.145379
0.066124
0.0458241
0.027857
0.000782049
-0.0352286
-0.0801304
-0.133941
-0.193911
-0.251272
-0.289711
0.392997
0.396984
0.40753
0.41581
0.422328
0.428783
0.436769
0.448649
0.467246
0.490002
0.441701
0.446884
0.458688
0.47005
0.480463
0.491085
0.503162
0.518723
0.541186
0.570375
0.480923
0.489667
0.504003
0.518832
0.533294
0.548116
0.564246
0.583367
0.609347
0.644235
0.513264
0.525952
0.543144
0.561269
0.579493
0.598237
0.618137
0.640491
0.669483
0.709154
0.538957
0.555264
0.575161
0.596224
0.617746
0.639917
0.663067
0.688092
0.719376
0.762824
0.557896
0.577163
0.599317
0.62276
0.646923
0.671808
0.697453
0.724366
0.757056
0.803143
0.57008
0.591402
0.615061
0.640105
0.66607
0.692759
0.719937
0.747749
0.780798
0.828287
0.574125
0.597157
0.621636
0.647505
0.674361
0.70182
0.729407
0.75696
0.789192
0.836776
0.570998
0.594237
0.618789
0.644599
0.671281
0.698326
0.725051
0.751056
0.781196
0.827535
0.559706
0.582285
0.606176
0.631036
0.65646
0.681853
0.706368
0.729454
0.756161
0.799853
0.349117
0.304422
0.253325
0.201481
0.150296
0.101063
0.0511371
0.00539724
-0.037039
-0.0764166
0.353193
0.305508
0.252488
0.197905
0.143778
0.0912664
0.0404643
-0.00677088
-0.0504546
-0.0905137
0.356757
0.303363
0.246753
0.189353
0.132841
0.078342
0.026576
-0.0214572
-0.0653968
-0.105063
0.35946
0.301048
0.240808
0.180493
0.121615
0.0653398
0.0124847
-0.0361037
-0.0799876
-0.119008
0.361311
0.298486
0.234694
0.171494
0.11032
0.0524303
-0.00131502
-0.05018
-0.0937716
-0.132005
0.363288
0.296272
0.229011
0.163096
0.0997741
0.0404775
-0.0139737
-0.0629682
-0.106212
-0.143731
0.36705
0.296141
0.225564
0.156878
0.0917623
0.0311382
-0.024102
-0.0734289
-0.116661
-0.153937
0.375135
0.300686
0.226964
0.155722
0.088377
0.0259975
-0.0306156
-0.0810208
-0.125111
-0.163102
0.389616
0.31106
0.233444
0.158309
0.0872808
0.0215212
-0.0381873
-0.0914048
-0.138018
-0.178235
0.405664
0.319846
0.234803
0.152493
0.0744845
0.0020902
-0.0637331
-0.122406
-0.173725
-0.217812
-0.112698
-0.145926
-0.176331
-0.204248
-0.230073
-0.254209
-0.276947
-0.298284
-0.318673
-0.329
-0.126871
-0.159542
-0.188767
-0.214879
-0.238256
-0.259255
-0.278062
-0.294486
-0.308188
-0.312612
-0.14045
-0.171611
-0.198871
-0.222647
-0.2434
-0.261576
-0.277473
-0.29114
-0.302537
-0.308406
-0.15327
-0.182909
-0.208375
-0.230201
-0.248959
-0.2652
-0.279358
-0.291673
-0.30218
-0.309021
-0.16512
-0.193342
-0.217264
-0.237532
-0.254811
-0.26973
-0.282799
-0.294323
-0.304297
-0.311548
-0.175908
-0.20305
-0.225872
-0.245104
-0.261458
-0.275589
-0.288013
-0.299026
-0.308589
-0.315979
-0.185771
-0.212501
-0.234927
-0.253807
-0.269851
-0.283689
-0.295795
-0.306425
-0.315534
-0.322704
-0.195577
-0.222852
-0.245758
-0.265035
-0.281354
-0.295293
-0.307272
-0.31751
-0.325993
-0.33252
-0.212605
-0.24146
-0.265603
-0.285756
-0.302573
-0.316601
-0.328228
-0.337661
-0.344941
-0.350012
-0.254948
-0.285872
-0.31125
-0.331874
-0.348489
-0.361695
-0.371898
-0.379325
-0.384096
-0.386226
-0.385543
-0.352959
-0.337099
-0.32772
-0.320569
-0.314499
-0.308322
-0.299494
-0.283879
-0.269009
-0.383703
-0.354288
-0.340109
-0.331391
-0.324436
-0.31827
-0.312041
-0.304114
-0.292221
-0.283832
-0.38106
-0.354444
-0.342025
-0.334094
-0.327626
-0.32187
-0.316201
-0.309616
-0.301217
-0.296843
-0.378114
-0.353921
-0.343256
-0.336105
-0.330168
-0.324867
-0.319712
-0.314021
-0.307395
-0.30424
-0.375008
-0.353624
-0.34422
-0.337793
-0.33238
-0.327511
-0.322838
-0.317894
-0.312421
-0.309581
-0.372345
-0.354084
-0.345378
-0.339552
-0.334552
-0.330005
-0.325672
-0.321255
-0.316347
-0.313413
-0.371293
-0.355275
-0.34723
-0.341802
-0.337031
-0.332613
-0.328377
-0.324098
-0.319659
-0.316588
-0.372315
-0.357791
-0.350221
-0.34495
-0.34017
-0.335658
-0.331303
-0.326948
-0.322578
-0.319306
-0.375846
-0.362161
-0.35477
-0.349379
-0.344326
-0.339469
-0.334756
-0.330087
-0.325481
-0.321867
-0.382249
-0.368817
-0.36127
-0.355455
-0.349838
-0.344363
-0.339044
-0.333814
-0.32871
-0.324673
-0.321384
-0.264993
-0.2366
-0.192716
-0.160496
-0.129249
-0.104247
-0.0831099
-0.0662188
-0.0530796
-0.0428525
-0.035458
-0.0297724
-0.0254379
-0.0215948
-0.0161037
-0.0117504
-0.00650993
-0.00580955
0.000477975
-0.327065
-0.266809
-0.238241
-0.194128
-0.161612
-0.130148
-0.104813
-0.0833322
-0.0661296
-0.052777
-0.042538
-0.0353814
-0.0300498
-0.0261323
-0.0224109
-0.0165868
-0.0116229
-0.00565055
-0.00521651
0.000490412
-0.334568
-0.269403
-0.240516
-0.196095
-0.163146
-0.131419
-0.105683
-0.0838235
-0.0662716
-0.0526762
-0.0423772
-0.0354136
-0.0303746
-0.0268217
-0.0231916
-0.0170469
-0.0115022
-0.00483677
-0.00465041
0.000487995
-0.343965
-0.272684
-0.243307
-0.198587
-0.16508
-0.133056
-0.106864
-0.0845948
-0.0666606
-0.052791
-0.0423844
-0.0355513
-0.0307661
-0.0274991
-0.0239284
-0.0174819
-0.011393
-0.00407996
-0.00411687
0.000470845
-0.354961
-0.27676
-0.246523
-0.201564
-0.1674
-0.13505
-0.108358
-0.0856529
-0.0673061
-0.0531295
-0.0425662
-0.0357982
-0.0311817
-0.0281522
-0.0246159
-0.0178911
-0.0112993
-0.00338913
-0.00361992
0.000439236
-0.367108
-0.281771
-0.250081
-0.204971
-0.170076
-0.137377
-0.110155
-0.086991
-0.0682054
-0.0536899
-0.0429208
-0.036151
-0.0316378
-0.0287784
-0.0252512
-0.0182753
-0.0112249
-0.00277128
-0.00316246
0.000393646
-0.379936
-0.287926
-0.253973
-0.208772
-0.173098
-0.140031
-0.112255
-0.0886122
-0.0693633
-0.0544757
-0.0434496
-0.0366069
-0.0321292
-0.0293718
-0.0258319
-0.0186365
-0.0111759
-0.00223433
-0.00274737
0.000334925
-0.393156
-0.29602
-0.258658
-0.213237
-0.176692
-0.143188
-0.114805
-0.0906323
-0.070868
-0.05555
-0.0441932
-0.0371853
-0.0326567
-0.0299278
-0.0263555
-0.0189795
-0.0111646
-0.00179185
-0.00237971
0.00026438
-0.404522
-0.30691
-0.264769
-0.218763
-0.18114
-0.147061
-0.117962
-0.0931625
-0.0727944
-0.0569608
-0.0451828
-0.0379093
-0.0332401
-0.0304666
-0.0268386
-0.0193134
-0.0111913
-0.00143934
-0.00205614
0.00018214
-0.402788
-0.315374
-0.269633
-0.223282
-0.184762
-0.150279
-0.120617
-0.0953082
-0.0744384
-0.0581776
-0.0460624
-0.0385995
-0.0338438
-0.0310541
-0.0273471
-0.0196359
-0.0111747
-0.00107022
-0.00172778
8.25592e-05
-0.375105
-0.313329
-0.269459
-0.224131
-0.185526
-0.151275
-0.121542
-0.096096
-0.0750173
-0.0585762
-0.0463824
-0.0390414
-0.0344985
-0.0319484
-0.0281834
-0.0200983
-0.0110022
-0.000370541
-0.00118155
-8.99265e-05
-0.359798
-0.307809
-0.264661
-0.221764
-0.184567
-0.151597
-0.122574
-0.0975384
-0.0766214
-0.060174
-0.0478828
-0.0403582
-0.0356049
-0.0327778
-0.0286677
-0.0203109
-0.0108169
-1.15004e-05
-0.000836659
-0.000326329
-0.340811
-0.29606
-0.254692
-0.215949
-0.181699
-0.150855
-0.123177
-0.0989873
-0.0785304
-0.0622368
-0.0498807
-0.0420474
-0.0368797
-0.0335242
-0.0289326
-0.0203893
-0.0106707
2.72954e-05
-0.000664428
-0.000591405
-0.311323
-0.27722
-0.240458
-0.20722
-0.177224
-0.149319
-0.123557
-0.100582
-0.0808141
-0.0647725
-0.0523401
-0.0440699
-0.0383185
-0.0342575
-0.0290927
-0.0204431
-0.0106353
-0.000286571
-0.000650953
-0.000872692
-0.271836
-0.251469
-0.222706
-0.195832
-0.170932
-0.146767
-0.123551
-0.102217
-0.0834079
-0.0677457
-0.0552404
-0.0464114
-0.0399055
-0.0349694
-0.0291574
-0.0205059
-0.0107858
-0.00102997
-0.000830312
-0.00113542
-0.230179
-0.221354
-0.202468
-0.182522
-0.162964
-0.143028
-0.1229
-0.103621
-0.0860466
-0.0709203
-0.0583911
-0.0489511
-0.0415821
-0.035668
-0.0291787
-0.0206276
-0.0111793
-0.0021988
-0.00119913
-0.00133077
-0.191927
-0.191528
-0.181544
-0.168368
-0.153969
-0.138266
-0.121465
-0.104521
-0.0883956
-0.0739479
-0.0614814
-0.0514832
-0.0432596
-0.0363858
-0.0292495
-0.0208633
-0.0118127
-0.00366201
-0.00170662
-0.00141519
-0.160542
-0.164961
-0.161957
-0.154745
-0.144948
-0.133032
-0.119368
-0.104772
-0.0901744
-0.0764958
-0.0641864
-0.0537656
-0.0448184
-0.0371294
-0.0294405
-0.0212209
-0.0125868
-0.00517257
-0.00227019
-0.00138506
-0.137853
-0.144607
-0.146129
-0.143347
-0.137161
-0.128222
-0.117084
-0.104487
-0.0912616
-0.0783223
-0.0662273
-0.0555558
-0.0460976
-0.037826
-0.0297302
-0.0216245
-0.013321
-0.00643549
-0.00278493
-0.00129506
-0.125211
-0.132865
-0.136608
-0.136272
-0.132222
-0.125064
-0.115441
-0.104081
-0.0917435
-0.0793092
-0.0673893
-0.0566075
-0.0468825
-0.0382918
-0.0299829
-0.0219235
-0.0138142
-0.0071879
-0.00312644
-0.00121365
-0.439993
-0.45255
-0.459831
-0.462332
-0.460906
-0.456859
-0.452081
-0.449182
-0.453146
-0.476699
-0.360577
-0.373988
-0.384506
-0.39263
-0.399025
-0.404495
-0.409899
-0.415957
-0.422778
-0.436564
-0.295514
-0.308596
-0.320155
-0.330375
-0.339388
-0.347273
-0.35407
-0.359951
-0.364901
-0.374978
-0.240226
-0.251835
-0.262389
-0.271939
-0.280538
-0.28829
-0.29537
-0.302097
-0.308489
-0.317124
-0.194214
-0.204289
-0.213664
-0.222389
-0.230518
-0.238104
-0.245197
-0.251847
-0.257978
-0.26433
-0.15694
-0.165564
-0.173701
-0.181363
-0.188562
-0.195308
-0.201609
-0.207488
-0.212955
-0.218108
-0.12752
-0.134823
-0.141764
-0.148339
-0.154547
-0.160391
-0.165874
-0.171005
-0.175784
-0.180161
-0.105275
-0.111518
-0.117475
-0.123134
-0.128488
-0.133534
-0.138267
-0.142691
-0.146802
-0.150571
-0.0898331
-0.0952968
-0.10052
-0.105491
-0.110199
-0.114638
-0.118804
-0.122696
-0.126312
-0.129647
-0.0814647
-0.0864388
-0.0912006
-0.09574
-0.10005
-0.104126
-0.107964
-0.111564
-0.114924
-0.118047
-0.0119581
-0.0773628
-0.141106
-0.196188
-0.2462
-0.291858
-0.332221
-0.368421
-0.398198
-0.42192
-0.0321608
-0.0824618
-0.130327
-0.170815
-0.207412
-0.241529
-0.272668
-0.299607
-0.323559
-0.343874
-0.0445164
-0.0844564
-0.119361
-0.14892
-0.175885
-0.20114
-0.224333
-0.24498
-0.263823
-0.280664
-0.0498953
-0.0803957
-0.104806
-0.125697
-0.145452
-0.164344
-0.182015
-0.198276
-0.213503
-0.227481
-0.0488187
-0.0711926
-0.0884265
-0.103556
-0.11842
-0.132983
-0.146867
-0.159943
-0.171974
-0.18342
-0.0435873
-0.0597338
-0.0723923
-0.0838794
-0.0953843
-0.106798
-0.117811
-0.128315
-0.138283
-0.147834
-0.0371179
-0.0489084
-0.058638
-0.0677531
-0.0769301
-0.0860805
-0.0950021
-0.103613
-0.111893
-0.119869
-0.0310517
-0.039952
-0.0477794
-0.0553034
-0.0628652
-0.0704075
-0.0778114
-0.0850182
-0.0920039
-0.0987628
-0.0262685
-0.03341
-0.0400721
-0.0465829
-0.0530925
-0.0595693
-0.0659472
-0.0721848
-0.0782569
-0.0841462
-0.0234854
-0.0298451
-0.0359938
-0.0420269
-0.0480075
-0.0539219
-0.0597336
-0.0654134
-0.0709398
-0.076293
0.217426
0.218423
0.22083
0.224119
0.228621
0.231936
0.234434
0.224399
0.200324
0.0928217
0.209138
0.20967
0.211022
0.212575
0.214243
0.21349
0.209549
0.191321
0.154911
0.0571542
0.199251
0.199299
0.199511
0.199202
0.197964
0.193314
0.183826
0.160621
0.119676
0.0386491
0.187636
0.187155
0.186141
0.183906
0.179778
0.171615
0.157539
0.13173
0.0892627
0.0211297
0.174346
0.173334
0.17112
0.16707
0.160369
0.149397
0.132116
0.105428
0.0641874
0.00692794
0.159692
0.158202
0.154939
0.149368
0.140681
0.127806
0.108938
0.0828134
0.0453631
-0.00187911
0.144361
0.142493
0.138439
0.131781
0.121855
0.10805
0.0890818
0.0646484
0.0322542
-0.00619028
0.129522
0.127407
0.122879
0.115624
0.105201
0.0913138
0.0732436
0.0510602
0.023586
-0.00773642
0.116914
0.114685
0.109972
0.102548
0.0921617
0.0787032
0.0618717
0.0418506
0.0182739
-0.00787169
0.108954
0.1067
0.101977
0.0946046
0.0844353
0.0714458
0.0555544
0.0369712
0.0156903
-0.00756799
0.253007
0.25517
0.26075
0.269466
0.283126
0.301247
0.328413
0.363414
0.416136
0.483601
0.250493
0.252582
0.257973
0.266366
0.279535
0.296851
0.322808
0.355718
0.404791
0.46615
0.247748
0.249758
0.254941
0.262973
0.275584
0.291959
0.316497
0.346786
0.391361
0.444548
0.244784
0.246712
0.25167
0.259307
0.271297
0.286605
0.309526
0.33667
0.375976
0.418809
0.241615
0.24346
0.248178
0.25539
0.266699
0.280824
0.301938
0.325423
0.358785
0.388968
0.238256
0.240019
0.244484
0.251246
0.261813
0.274653
0.29377
0.313112
0.339957
0.355076
0.234724
0.23641
0.240615
0.24691
0.256685
0.268158
0.285093
0.299865
0.319704
0.317234
0.231038
0.232663
0.236618
0.242451
0.251413
0.261491
0.276101
0.285977
0.298376
0.275529
0.227212
0.228787
0.232501
0.23788
0.24601
0.254679
0.266804
0.271509
0.275913
0.229062
0.223234
0.224689
0.228039
0.232795
0.239804
0.246729
0.255699
0.254751
0.2498
0.175964
0.264467
0.266997
0.273135
0.283007
0.297757
0.316782
0.343317
0.372038
0.409994
0.419527
0.264416
0.266954
0.273136
0.282833
0.297863
0.317861
0.34568
0.377112
0.421105
0.447425
0.264133
0.266646
0.27284
0.282606
0.297529
0.317242
0.34645
0.379621
0.427523
0.467501
0.263616
0.266106
0.272309
0.282099
0.297114
0.316877
0.346225
0.381919
0.433141
0.483898
0.262859
0.265323
0.271514
0.281272
0.296328
0.316275
0.345714
0.383365
0.437468
0.496526
0.261853
0.264285
0.270438
0.280126
0.295134
0.315119
0.344748
0.381624
0.439631
0.505591
0.260593
0.262987
0.269076
0.278654
0.29354
0.313419
0.343048
0.380837
0.437813
0.511606
0.259077
0.261424
0.267424
0.276852
0.291543
0.311194
0.340575
0.378568
0.43596
0.506781
0.257306
0.259598
0.265483
0.274718
0.28914
0.308428
0.337312
0.374842
0.431837
0.504481
0.25528
0.257512
0.263256
0.272254
0.286332
0.305113
0.333258
0.369798
0.42521
0.496634
0.219041
0.21762
0.214618
0.209846
0.203072
0.194073
0.182536
0.168271
0.150923
0.130627
0.224047
0.222811
0.220171
0.2159
0.209685
0.201181
0.189918
0.175555
0.157467
0.135724
0.231522
0.230629
0.228681
0.225405
0.220374
0.213039
0.202657
0.18854
0.169573
0.145528
0.239597
0.23918
0.238226
0.236421
0.233262
0.227944
0.219416
0.206356
0.187012
0.160326
0.247055
0.247201
0.247456
0.247499
0.246829
0.244391
0.238954
0.228195
0.209741
0.180579
0.253245
0.253976
0.255532
0.257626
0.259871
0.261026
0.259923
0.252994
0.237544
0.206695
0.257941
0.259224
0.262048
0.266203
0.271527
0.276715
0.280957
0.279386
0.26961
0.238656
0.261195
0.262959
0.266928
0.272986
0.281288
0.290629
0.300816
0.305927
0.30431
0.274898
0.263204
0.265357
0.270297
0.277987
0.288936
0.302192
0.318393
0.33124
0.339887
0.31301
0.264221
0.266646
0.272342
0.281341
0.294489
0.311095
0.332977
0.354263
0.376554
0.358191
0.115827
0.109663
0.103401
0.0970835
0.0906887
0.0842152
0.0776836
0.0711192
0.0645475
0.057984
0.119455
0.112604
0.105609
0.0986099
0.0915367
0.0843543
0.0770824
0.0697576
0.0624173
0.0550759
0.126612
0.118254
0.109639
0.101206
0.0927962
0.0842774
0.0756537
0.0669775
0.0583223
0.0496617
0.13787
0.127167
0.115952
0.105291
0.0948734
0.0843739
0.073757
0.0631052
0.0525097
0.041927
0.154023
0.140064
0.125067
0.111252
0.0980801
0.0848884
0.0715769
0.0582937
0.0450032
0.0318108
0.175961
0.157747
0.137533
0.119464
0.102673
0.08596
0.0691403
0.0524916
0.0358722
0.019384
0.20476
0.181328
0.154202
0.130547
0.109017
0.0876326
0.0661498
0.045451
0.0247627
0.00428643
0.240822
0.21143
0.175786
0.145325
0.117919
0.0908405
0.0641312
0.037441
0.0115365
-0.013584
0.283749
0.247358
0.202223
0.163935
0.12889
0.0942029
0.0608252
0.0278379
-0.00376216
-0.0338987
0.333033
0.288849
0.235506
0.188099
0.14298
0.0986094
0.0557629
0.0151669
-0.0225335
-0.0575336
0.0514479
0.0449609
0.038542
0.0322077
0.0259732
0.019852
0.0138568
0.00799852
0.00228718
-0.00326749
0.0477612
0.040503
0.033327
0.0262556
0.0193094
0.0125073
0.00586652
-0.000598373
-0.00687427
-0.0129253
0.0410313
0.0324731
0.024016
0.0156819
0.0074909
-0.000538085
-0.00838761
-0.0160432
-0.0234933
-0.0306471
0.0313959
0.0209579
0.0106385
0.000455431
-0.00957518
-0.0194384
-0.0291207
-0.0386111
-0.0479074
-0.0568735
0.0187406
0.00579874
-0.00700758
-0.0196688
-0.0321757
-0.0445218
-0.0567057
-0.0687318
-0.0806306
-0.0924475
0.00309006
-0.0130098
-0.0289395
-0.0447216
-0.0603773
-0.0759288
-0.0913978
-0.106792
-0.122173
-0.138299
-0.015849
-0.0356569
-0.0551825
-0.0744679
-0.0935675
-0.112569
-0.1316
-0.150768
-0.17041
-0.192361
-0.0381081
-0.0621479
-0.0857707
-0.109026
-0.131943
-0.154542
-0.176883
-0.19907
-0.222377
-0.249608
-0.0627408
-0.0904138
-0.117087
-0.143025
-0.168573
-0.194108
-0.219969
-0.246434
-0.275714
-0.308113
-0.0898795
-0.119555
-0.146711
-0.171753
-0.19536
-0.21849
-0.242258
-0.26813
-0.301916
-0.346477
-0.0164923
-0.0353037
-0.051534
-0.064255
-0.0728798
-0.0773084
-0.0778001
-0.074995
-0.0695666
-0.0622948
-0.0538263
-0.0447518
-0.0357702
-0.0274681
-0.0210461
-0.017235
-0.0159597
-0.015409
-0.0107048
-0.00354073
-0.0276836
-0.0472063
-0.0628423
-0.074175
-0.0810019
-0.0835005
-0.082168
-0.077793
-0.0711599
-0.0630369
-0.0539792
-0.0444282
-0.0350695
-0.0264058
-0.0199257
-0.016455
-0.0159105
-0.0161122
-0.0112238
-0.00335954
-0.0481799
-0.0684555
-0.0824736
-0.0909453
-0.0943369
-0.0933168
-0.0888678
-0.0819476
-0.0734574
-0.0640824
-0.0541783
-0.0439257
-0.0339785
-0.0246982
-0.0181031
-0.0151456
-0.0157708
-0.0171999
-0.0120748
-0.00305062
-0.0775069
-0.0976314
-0.108506
-0.112323
-0.110592
-0.104837
-0.0962672
-0.0862771
-0.0757456
-0.0650927
-0.0543529
-0.0433802
-0.0327859
-0.0227681
-0.0160195
-0.013594
-0.0154979
-0.0183042
-0.0129836
-0.00264765
-0.11411
-0.132446
-0.138714
-0.135953
-0.127566
-0.116011
-0.103014
-0.0899705
-0.0775568
-0.0658388
-0.0544535
-0.0429239
-0.0317914
-0.0210878
-0.0141591
-0.0120885
-0.0150597
-0.0190392
-0.0136962
-0.00220124
-0.154112
-0.169367
-0.170115
-0.159047
-0.142907
-0.12542
-0.108265
-0.0925503
-0.078635
-0.066175
-0.0544135
-0.0425831
-0.0311384
-0.0199572
-0.0128731
-0.0108997
-0.014513
-0.0192293
-0.014065
-0.00176115
-0.19139
-0.204112
-0.198719
-0.178297
-0.1549
-0.132351
-0.111744
-0.0939443
-0.0789654
-0.0660664
-0.0541769
-0.0423006
-0.0307999
-0.0194337
-0.0122856
-0.0102091
-0.013961
-0.0188982
-0.0140624
-0.00136062
-0.221655
-0.233498
-0.221148
-0.192277
-0.163478
-0.136958
-0.113743
-0.0944499
-0.0787639
-0.0656254
-0.0537634
-0.0420252
-0.0306766
-0.0194024
-0.0123047
-0.00999713
-0.013486
-0.0181832
-0.0137502
-0.00101616
-0.247025
-0.257129
-0.236949
-0.201902
-0.169311
-0.139793
-0.114753
-0.0944284
-0.0782691
-0.0649902
-0.0532223
-0.0417218
-0.0306581
-0.0196812
-0.0127308
-0.0101293
-0.0131153
-0.017253
-0.0132295
-0.000732045
-0.273271
-0.27333
-0.246416
-0.20738
-0.172428
-0.140934
-0.114816
-0.0938415
-0.0773763
-0.0640083
-0.052373
-0.041211
-0.0305943
-0.0201616
-0.0135003
-0.0105697
-0.0128555
-0.0161433
-0.0125345
-0.000497739
-0.308447
-0.276311
-0.246741
-0.207297
-0.172412
-0.14053
-0.114188
-0.0928965
-0.0761711
-0.0626505
-0.0511155
-0.0404003
-0.0304448
-0.0208985
-0.0147654
-0.011437
-0.0127656
-0.014915
-0.0117202
-0.00033343
-0.321226
-0.27604
-0.24533
-0.204678
-0.169865
-0.138035
-0.112056
-0.0910538
-0.0745942
-0.0612824
-0.0499962
-0.0396456
-0.0301078
-0.0210955
-0.0152899
-0.0118309
-0.0126908
-0.0141815
-0.011196
-0.000215068
-0.324352
-0.273612
-0.24299
-0.201381
-0.166903
-0.135347
-0.109875
-0.0892465
-0.0730994
-0.0600028
-0.0489493
-0.038924
-0.0297598
-0.0212332
-0.0157428
-0.0121847
-0.0126247
-0.0134805
-0.0106772
-9.77975e-05
-0.323902
-0.271106
-0.240873
-0.198639
-0.164605
-0.133292
-0.108202
-0.087794
-0.0718303
-0.0588513
-0.047991
-0.038288
-0.0295176
-0.0214973
-0.0163233
-0.0125953
-0.0125501
-0.0127204
-0.010126
1.21881e-05
-0.32212
-0.268811
-0.238954
-0.196293
-0.162756
-0.131652
-0.106873
-0.0866015
-0.0707231
-0.05775
-0.0470644
-0.0377013
-0.0293577
-0.0218726
-0.0170137
-0.0130537
-0.0124623
-0.0119005
-0.00954266
0.000113369
-0.319849
-0.266853
-0.237318
-0.194351
-0.161325
-0.130377
-0.105823
-0.0856577
-0.069787
-0.056722
-0.0461702
-0.0371585
-0.0292639
-0.0223283
-0.017414
-0.0135406
-0.0123626
-0.0110381
-0.00893629
0.000204825
-0.31749
-0.264407
-0.236137
-0.192929
-0.160369
-0.12943
-0.104695
-0.0843483
-0.0682709
-0.0557914
-0.0453309
-0.03667
-0.0292359
-0.0228555
-0.0182217
-0.0140475
-0.012253
-0.0101455
-0.00831418
0.000285375
-0.315808
-0.263633
-0.23525
-0.191809
-0.159403
-0.128494
-0.104185
-0.0838217
-0.0675986
-0.0548809
-0.0445636
-0.0362468
-0.0292747
-0.0234437
-0.0190566
-0.0145657
-0.0121347
-0.00923363
-0.00768302
0.000353844
-0.31569
-0.263591
-0.234862
-0.191366
-0.159374
-0.128453
-0.103964
-0.0834079
-0.0670048
-0.0541691
-0.0438821
-0.0358982
-0.0293789
-0.0240797
-0.0199033
-0.0150866
-0.0120098
-0.00831489
-0.00705016
0.000409252
-0.317503
-0.263927
-0.235576
-0.191808
-0.159769
-0.128704
-0.103973
-0.0831439
-0.0665201
-0.0535592
-0.0433037
-0.035633
-0.0295463
-0.0247493
-0.0207545
-0.0156018
-0.0118806
-0.00740241
-0.00642311
0.000450808
)
;

boundaryField
{
    inlet
    {
        type            freestreamPressure;
        freestreamValue uniform 0;
        value           nonuniform List<scalar> 
40
(
0.217426
0.209138
0.199251
0.187636
0.174346
0.159692
0.144361
0.129522
0.116914
0.108954
0.253007
0.250493
0.247748
0.244784
0.241615
0.238256
0.234724
0.231038
0.227212
0.223234
0.264467
0.264416
0.264133
0.263616
0.262859
0.261853
0.260593
0.259077
0.257306
0.25528
0.219041
0.224047
0.231522
0.239597
0.247055
0.253245
0.257941
0.261195
0.263204
0.264221
)
;
    }
    outlet
    {
        type            freestreamPressure;
        freestreamValue uniform 0;
        value           nonuniform List<scalar> 
40
(
-1.72773e-09
-2.50067e-09
-9.73362e-10
-3.31294e-12
-6.90035e-10
-1.85152e-09
-1.94474e-09
-1.1001e-09
-3.46117e-10
-3.25177e-11
1.38374e-07
1.21111e-07
1.00898e-07
7.99373e-08
6.0006e-08
4.23711e-08
2.77834e-08
1.65147e-08
8.36012e-09
2.71017e-09
-1.98094e-07
-1.26241e-07
-5.60815e-08
6.74707e-09
5.98162e-08
1.01614e-07
1.31218e-07
1.48532e-07
1.54358e-07
1.50262e-07
-1.47283e-08
-1.24853e-07
-3.06708e-07
-4.9873e-07
-6.36664e-07
-6.85337e-07
-6.469e-07
-5.48422e-07
-4.23773e-07
-2.96233e-07
)
;
    }
    top
    {
        type            symmetryPlane;
    }
    bottom
    {
        type            symmetryPlane;
    }
    cylinder
    {
        type            zeroGradient;
    }
    frontandback
    {
        type            empty;
    }
}


// ************************************************************************* //
