/*--------------------------------*- C++ -*----------------------------------*\
  =========                 |
  \\      /  F ield         | OpenFOAM: The Open Source CFD Toolbox
   \\    /   O peration     | Website:  https://openfoam.org
    \\  /    A nd           | Version:  6.0
     \\/     M anipulation  |
\*---------------------------------------------------------------------------*/
FoamFile
{
    version     2.0;
    format      ascii;
    class       surfaceScalarField;
    location    "21";
    object      phi;
}
// * * * * * * * * * * * * * * * * * * * * * * * * * * * * * * * * * * * * * //

dimensions      [0 3 -1 0 0 0 0];

internalField   nonuniform List<scalar> 
4670
(
-0.000185591
-0.0216376
0.0218232
-0.000507956
-0.0167334
0.0170558
-0.00084323
-0.0130885
0.0134238
-0.00112318
-0.0103894
0.0106694
-0.00131405
-0.00838568
0.00857655
-0.00140551
-0.00688342
0.00697487
-0.00140362
-0.00573622
0.00573434
-0.00132637
-0.00483546
0.00475821
-0.00120075
-0.00410116
0.00397555
-0.00347571
0.00333534
-0.00106038
-0.000169796
-0.0214679
-0.000439922
-0.0164633
-0.000681096
-0.0128473
-0.000824306
-0.0102462
-0.000836553
-0.00837343
-0.000708452
-0.00701152
-0.000447317
-0.00599736
-7.33155e-05
-0.00520946
0.000382425
-0.00455691
-0.00397275
0.000879457
-0.000145604
-0.0213222
-0.000336524
-0.0162724
-0.000443018
-0.0127408
-0.000397671
-0.0102915
-0.000168932
-0.00860217
0.000252098
-0.00743255
0.00085824
-0.0066035
0.00162885
-0.00598007
0.00252981
-0.00545787
-0.00495605
0.00351312
-0.000111603
-0.0212106
-0.000196908
-0.0161871
-0.000129663
-0.0128081
0.00015279
-0.010574
0.000678742
-0.00912812
0.00145619
-0.00821
0.00247911
-0.00762641
0.00372861
-0.00722957
0.00517016
-0.00689942
-0.00653497
0.00674908
-6.66706e-05
-0.021144
-1.86325e-05
-0.0162351
0.00026194
-0.0130886
0.000828757
-0.0111408
0.00170363
-0.010003
0.00289166
-0.00939803
0.00438778
-0.00912253
0.00617702
-0.00901882
0.00822859
-0.008951
-0.00879108
0.0104847
-9.0832e-06
-0.0211349
0.00020271
-0.0164469
0.000738735
-0.0136247
0.0016386
-0.0120407
0.00291284
-0.0112772
0.00455934
-0.0110445
0.00657118
-0.0111344
0.00893774
-0.0113854
0.0116372
-0.0116504
-0.0117696
0.0146157
6.33103e-05
-0.0211982
0.000472459
-0.0168561
0.00130958
-0.0144618
0.00259469
-0.0133258
0.00432123
-0.0130038
0.00647307
-0.0131964
0.00903439
-0.0136957
0.0119945
-0.0143455
0.0153437
-0.0149997
-0.0154707
0.0190448
0.000152392
-0.0213506
0.000794449
-0.0174981
0.00198029
-0.0156476
0.00370572
-0.0150512
0.00594156
-0.0152396
0.00864955
-0.0159044
0.0117935
-0.0168396
0.0153498
-0.0179018
0.0193165
-0.0189663
-0.0198567
0.0237024
0.000259031
-0.0216096
0.00116787
-0.018407
0.002747
-0.0172268
0.00496603
-0.0172703
0.00777093
-0.0180445
0.0110961
-0.0192296
0.0148729
-0.0206164
0.019041
-0.0220699
0.0235837
-0.023509
-0.0249007
0.0286277
0.000383051
-0.0219927
0.00158325
-0.0196072
0.00358674
-0.0192302
0.00633892
-0.0200224
0.0097676
-0.0214732
0.0137922
-0.0232542
0.0183254
-0.0251496
0.0232648
-0.0270094
0.0284947
-0.0287388
-0.030372
0.0339661
0.0302309
0.00118712
-0.031418
0.0290392
0.00119174
0.0278697
0.0011695
0.0267479
0.00112176
0.025696
0.00105188
0.024732
0.000963981
0.0238699
0.000862089
0.0231204
0.00074953
0.0224919
0.000628463
0.000499272
0.0402215
0.00370912
-0.0427435
0.0375811
0.00383222
0.0348926
0.00385797
0.0322236
0.00379074
0.0296366
0.00363892
0.027187
0.0034136
0.0249225
0.0031266
0.0228833
0.00278872
0.021103
0.00240876
0.00199509
0.0490268
0.00688108
-0.0521988
0.0455853
0.00727367
0.0419675
0.00747576
0.0382693
0.00748902
0.0345849
0.00732324
0.031004
0.00699459
0.0276081
0.00652249
0.0244709
0.00592584
0.0216589
0.00522076
0.00442379
0.0563015
0.0102252
-0.0596455
0.0525355
0.0110397
0.0484451
0.0115662
0.0441385
0.0117956
0.0397297
0.0117321
0.0353328
0.0113914
0.0310586
0.0107967
0.0270131
0.00997136
0.0232998
0.00893407
0.00770115
0.0619914
0.0134274
-0.0651936
0.0582376
0.0147935
0.0540193
0.0157844
0.0494419
0.0163731
0.0446238
0.0165501
0.0396917
0.0163236
0.0347744
0.015714
0.0300025
0.0147432
0.025515
0.0134216
0.011743
0.066214
0.0163065
-0.0690931
0.0626899
0.0183176
0.0585876
0.0198866
0.0539972
0.0209635
0.0490282
0.021519
0.043805
0.0215468
0.0384602
0.0210588
0.0331341
0.0200693
0.0279895
0.0185662
0.0164782
0.0691715
0.0187813
-0.0716463
0.0659982
0.021491
0.0621686
0.0237161
0.0577499
0.0253822
0.0528326
0.0264363
0.047526
0.0268535
0.0419499
0.0266349
0.0362329
0.0257864
0.0305348
0.0242642
0.0218634
0.0710905
0.0208395
-0.0731487
0.0683169
0.0242646
0.0648462
0.0271868
0.0607205
0.0295079
0.0560063
0.0311506
0.0507892
0.0320705
0.0451632
0.0322609
0.0392171
0.0317325
0.0330562
0.0304251
0.0279103
0.0721813
0.022511
-0.0738528
0.0698069
0.026639
0.0667284
0.0302652
0.0629658
0.0332705
0.0585618
0.0355546
0.0535778
0.0370545
0.0480774
0.0377613
0.0420902
0.0377198
0.0355795
0.0369358
0.034751
0.0726135
-0.0739527
0.0238501
0.070605
0.0286476
0.0679135
0.0329568
0.0645426
0.0366414
0.0605174
0.0395799
0.0558817
0.0416901
0.0506823
0.0429607
0.0449153
0.0434867
0.038388
0.0434631
0.042767
0.0367858
-0.000324367
-0.0364614
0.0369079
-0.000122113
0.0368231
8.48039e-05
0.0365343
0.000288759
0.0360508
0.000483494
0.0353877
0.000663119
0.0345655
0.000822193
0.0336095
0.000955955
0.0325492
0.00106035
0.00113119
0.050955
-0.00149728
-0.0497821
0.0517014
-0.000868519
0.0520095
-0.000223289
0.0518737
0.000424544
0.051298
0.0010592
0.0502973
0.00166382
0.0488982
0.00222131
0.0471388
0.00271534
0.0450681
0.0031311
0.0034557
0.0589857
-0.00346443
-0.0570186
0.0604379
-0.00232063
0.061348
-0.00113344
0.0616946
7.79568e-05
0.0614656
0.00128822
0.0606611
0.00246832
0.0592952
0.00358716
0.0573973
0.00461321
0.0550121
0.00551633
0.00626905
0.0629764
-0.00606871
-0.0603721
0.0650589
-0.00440312
0.0665783
-0.00265284
0.0674967
-0.000840389
0.0677845
0.00100039
0.0674237
0.0028291
0.0664099
0.00460102
0.0647539
0.00626914
0.0624839
0.00778635
0.00910742
0.0644381
-0.0091333
-0.0613735
0.0670178
-0.00698285
0.0690582
-0.00469331
0.0705079
-0.00228999
0.0713236
0.000184636
0.0714727
0.00268
0.070934
0.00513968
0.0696999
0.00750324
0.0677781
0.00970819
0.0116919
0.0644296
-0.0125068
-0.061056
0.0673742
-0.00992746
0.0698193
-0.0071384
0.0717029
-0.00417364
0.0729751
-0.00108759
0.0735956
0.00205948
0.0735333
0.00520208
0.0727664
0.00827013
0.0712849
0.0111896
0.0138837
0.0636522
-0.0160869
-0.0600721
0.0668591
-0.0131344
0.0695986
-0.00987788
0.0718042
-0.00637919
0.073428
-0.00271138
0.074431
0.00105642
0.0747797
0.00485339
0.0744452
0.00860463
0.073405
0.0122298
0.0156425
0.0625536
-0.0198368
-0.0588038
0.065953
-0.0165337
0.0688899
-0.0128148
0.0713073
-0.00879664
0.0731713
-0.00457539
0.0744523
-0.00022455
0.0751202
0.00418551
0.0751444
0.00858047
0.0744955
0.0128787
0.0169892
0.0614378
-0.0237776
-0.0574969
0.0649587
-0.0200547
0.0679932
-0.0158493
0.0705167
-0.0113201
0.0725174
-0.00657605
0.0739773
-0.00168451
0.0748716
0.00329128
0.0751702
0.00828182
0.0748411
0.0132078
0.0179775
0.0604946
-0.0564436
-0.0278287
0.0640394
-0.0235995
0.0670538
-0.0188636
0.0695885
-0.0138549
0.0716424
-0.00862993
0.0732014
-0.00324349
0.0742423
0.00225036
0.0747361
0.00778796
0.0746507
0.0132932
0.0186756
0.0423553
0.0134386
-0.0081582
-0.0476357
0.0369906
0.0141747
-0.00880998
0.0315427
0.0150499
-0.00960206
0.0260284
0.0161114
-0.010597
0.0204915
0.0174179
-0.011881
0.0150262
0.0190204
-0.0135552
0.0098128
0.020925
-0.0157116
0.00516888
0.0230183
-0.0183744
0.00162077
0.024938
-0.0213899
0.0258551
-0.0242343
0.0421253
0.0186916
-0.0473784
0.0367863
0.0195137
0.0313635
0.0204728
0.0258736
0.0216013
0.0203609
0.0229306
0.0149203
0.024461
0.00973337
0.026112
0.00511893
0.0276328
0.00160143
0.0284555
0.0274565
0.0415221
0.0238872
-0.0467177
0.0362403
0.0247955
0.030876
0.0258371
0.0254473
0.0270299
0.02
0.028378
0.0146307
0.0298303
0.00952199
0.0312207
0.00499112
0.0321637
0.00155314
0.0318935
0.0290097
0.0405492
0.0289972
-0.0456593
0.0353543
0.0299905
0.0300811
0.0311102
0.0247501
0.0323609
0.0194094
0.0337187
0.0141581
0.0350816
0.0091797
0.0361992
0.00478698
0.0365564
0.00147775
0.0352027
0.0304874
0.0392094
0.0339962
-0.0442084
0.0341298
0.0350701
0.0289799
0.0362602
0.0237829
0.0375579
0.0185904
0.0389112
0.0135044
0.0401676
0.00870866
0.0409949
0.00450857
0.0407565
0.0013765
0.0383348
0.0318639
0.0375023
0.0388603
-0.0423664
0.0325659
0.0400064
0.0275718
0.0412543
0.0225464
0.0425833
0.0175448
0.0439129
0.0126723
0.0450401
0.00811212
0.045555
0.00415871
0.0447099
0.00125082
0.0412427
0.0331147
0.0354207
0.0435652
-0.0401255
0.0306574
0.0447696
0.0258546
0.046057
0.0210411
0.0473968
0.0162753
0.0486786
0.011666
0.0496494
0.00739486
0.0498262
0.00374137
0.0483634
0.00110268
0.0438814
0.0342174
0.0329454
0.0480789
-0.0374591
0.0283923
0.0493227
0.023824
0.0506254
0.019268
0.0519529
0.0147866
0.05316
0.0104923
0.0539437
0.00656388
0.0537547
0.00326215
0.0516651
0.000934724
0.0462088
0.0351521
0.03003
0.0523651
-0.0343162
0.0257494
0.0536033
0.0214771
0.0548977
0.0172326
0.0561973
0.0130881
0.0573045
0.00916205
0.0578697
0.00562952
0.0572872
0.00272901
0.0545656
0.000750881
0.0481869
0.035903
0.0266213
-0.0306998
0.0227277
0.0188216
0.0149468
0.0111952
0.00769148
0.00460653
0.00215353
0.00055837
0.0246444
-0.0358121
0.0400838
-0.0289162
0.0206593
-0.0356138
0.039599
0.0168177
-0.0350808
0.0389223
0.0131432
-0.0340393
0.0377138
0.00971032
-0.0321644
0.0355973
0.00661637
-0.0289813
0.0320753
0.00397555
-0.023841
0.0264818
0.00190885
-0.0159007
0.0179674
0.000537612
-0.00411702
0.00548825
0.012818
-0.0122804
0.0280743
-0.0314868
-0.0323996
0.0238001
-0.0313397
0.0196119
-0.0308925
0.0155504
-0.0299778
0.011689
-0.0283031
0.00813067
-0.025423
0.00500614
-0.0207164
0.00247397
-0.0133685
0.000723404
-0.00236645
0.0135414
0.031086
-0.0270084
-0.0355644
0.026586
-0.0268397
0.0221171
-0.0264235
0.0177303
-0.025591
0.0134991
-0.024072
0.00953
-0.0214538
0.00596833
-0.0171548
0.00300686
-0.010407
0.000899504
-0.000259096
0.0144409
0.0337146
-0.0223612
-0.0383618
0.0290216
-0.0221468
0.0243216
-0.0217235
0.0196628
-0.0209322
0.0151168
-0.019526
0.0107914
-0.0171284
0.00684362
-0.013207
0.00349622
-0.00705963
0.00106288
0.00217425
0.0155038
0.0359991
-0.0175538
-0.0408065
0.0311329
-0.0172805
0.0262345
-0.016825
0.0213453
-0.0160431
0.0165322
-0.0147129
0.011902
-0.0124982
0.00761972
-0.00892468
0.00393342
-0.00337333
0.00121004
0.00489763
0.0167138
0.0379461
-0.0126021
-0.0428978
0.0329272
-0.0122617
0.0278592
-0.011757
0.0227763
-0.0109602
0.0177396
-0.00967621
0.0128533
-0.00761187
0.00828787
-0.00435922
0.00431184
0.000602705
0.0013381
0.00787138
0.0180519
0.03955
-0.00752763
-0.0446244
0.0344027
-0.00711447
0.0291944
-0.00654863
0.0239531
-0.00571891
0.0187343
-0.0044574
0.0136391
-0.00251676
0.00884154
0.000438382
0.00462638
0.00481787
0.00144474
0.011053
0.0194967
0.0408016
-0.00235629
-0.045973
0.0355536
-0.00186644
0.0302357
-0.00123078
0.0248715
-0.00035466
0.0195116
0.00090252
0.0142543
0.00274055
0.00927556
0.00541708
0.00487306
0.00922037
0.00152818
0.0143979
0.0210249
0.0416917
0.00288275
-0.0469307
0.0363729
0.00345231
0.0309781
0.00416403
0.0255272
0.0050963
0.0200672
0.00636246
0.0146943
0.00811348
0.0095859
0.0105255
0.00504897
0.0137573
0.00158724
0.0178596
0.0226121
0.0422125
-0.0474879
0.0368548
0.0314168
0.025916
0.0203975
0.0149558
0.00976965
0.00515254
0.00162224
0.0442268
0.0213585
-0.0255014
0.0477303
0.0174245
-0.020928
0.0506442
0.0129944
-0.0159082
0.0530182
0.00824149
-0.0106155
0.05484
0.0033108
-0.00513263
0.0560809
-0.00169703
0.000456186
0.056702
-0.00667998
0.00605886
0.0566618
-0.0115245
0.0115647
0.0559225
-0.0161055
0.0168449
-0.0202892
0.0544566
0.0217552
0.0434623
0.0174951
0.0468709
0.014016
0.0497306
0.0101346
0.0520042
0.00596794
0.0536699
0.00164513
0.0546984
-0.00272557
0.055055
-0.00703662
0.0547057
-0.0111751
0.0536235
-0.0150233
-0.018462
0.0517962
0.0425062
0.0139113
0.0456922
0.0108299
0.0483515
0.00747538
0.0504104
0.003909
0.0518253
0.000230208
0.05256
-0.00346028
0.0525829
-0.00705949
0.0518699
-0.0104621
0.05041
-0.0135634
-0.0162633
0.0482114
0.0410244
0.0106006
0.043906
0.00794836
0.0462543
0.00512712
0.0479898
0.00217343
0.0490587
-0.000838711
0.0494226
-0.00382413
0.0490561
-0.00669303
0.0479491
-0.00935507
0.0461098
-0.0117241
-0.0137235
0.0435699
0.0385914
0.00760655
0.0411022
0.00543758
0.0430542
0.00317509
0.0443795
0.000848183
0.0450286
-0.00148785
0.0449705
-0.00376601
0.0441924
-0.00591494
0.0427018
-0.00786445
0.0405285
-0.00955085
-0.0109218
0.0377268
0.0346766
0.00500523
0.0367494
0.00336478
0.0382411
0.00168343
0.0391026
-1.34039e-05
0.0393002
-0.00168538
0.0388182
-0.00328407
0.037662
-0.00475869
0.0358586
-0.00606111
0.0334581
-0.00715037
-0.00799629
0.0305327
0.0286041
0.00288291
0.0301821
0.00178673
0.0311829
0.000682661
0.0315793
-0.000409812
0.031358
-0.00146406
0.0305234
-0.00244943
0.0290997
-0.00333497
0.0271315
-0.00409293
0.0246829
-0.00470181
-0.00514846
0.0218351
0.0195358
0.00131446
0.0205948
0.000727731
0.0211294
0.0001481
0.0211332
-0.000413645
0.0206128
-0.000943602
0.0195898
-0.00142647
0.0181025
-0.00184763
0.0162045
-0.00219499
0.0139633
-0.00246056
-0.00264159
0.0114564
0.00645633
0.000346377
0.00702451
0.000159558
0.00719249
-1.9881e-05
0.00696864
-0.000189797
0.00637108
-0.000346047
0.00542879
-0.00048418
0.00418141
-0.000600251
0.0026778
-0.000691381
0.000973535
-0.000756295
-0.000796371
-0.000871684
-0.011934
-0.0117745
-0.0117943
-0.0119841
-0.0123302
-0.0128144
-0.0134146
-0.014106
-0.0148623
-0.0156587
0.0522565
-0.0239578
0.0261579
0.0493384
-0.0269509
0.0298689
0.0457527
-0.0291921
0.0327778
0.0415828
-0.0306321
0.034802
0.0369378
-0.0312805
0.0359255
0.0319344
-0.0312071
0.0362105
0.0266652
-0.0305196
0.0357888
0.0211478
-0.0292993
0.0348168
0.0152649
-0.0274151
0.033298
-0.0239412
0.00849853
0.0307075
0.0492349
-0.0213965
0.0459782
-0.0236942
0.0420984
-0.0253123
0.0376974
-0.0262312
0.0328962
-0.0264793
0.0278145
-0.0261254
0.022543
-0.0252481
0.0171145
-0.0238708
0.0115321
-0.0218327
-0.0185412
0.00613218
0.0453082
-0.0184933
0.0417639
-0.0201499
0.037672
-0.0212204
0.0331497
-0.0217089
0.0283256
-0.0216552
0.023322
-0.0211218
0.0182382
-0.0201643
0.0131498
-0.0187824
0.00817202
-0.0168549
-0.0140849
0.00371571
0.040387
-0.0153104
0.0366472
-0.0164102
0.0324604
-0.0170336
0.0279523
-0.0172007
0.0232525
-0.0169553
0.0184815
-0.0163509
0.0137437
-0.0154265
0.00913886
-0.0141775
0.004815
-0.0125311
-0.0103619
0.001092
0.0343739
-0.0119574
0.0305725
-0.0126088
0.0264401
-0.0129013
0.0221018
-0.0128624
0.0176799
-0.0125335
0.0132859
-0.0119568
0.00901885
-0.0111595
0.00497946
-0.0101381
0.00130325
-0.00885487
-0.00726776
-0.00179093
0.0271711
-0.00859588
0.023483
-0.00892071
0.0195828
-0.00900107
0.0155849
-0.00886445
0.0115958
-0.0085444
0.00771034
-0.00807132
0.00401332
-0.0074625
0.000590922
-0.00671569
-0.00245097
-0.00581298
-0.00474527
-0.00497346
0.0186772
-0.00543806
0.0153142
-0.00555763
0.0118462
-0.00553313
0.00836811
-0.00538633
0.00496411
-0.0051404
0.00170696
-0.00481416
-0.00133857
-0.00441698
-0.00410751
-0.00394674
-0.00652576
-0.00339474
-0.00276107
-0.00850995
0.00876092
-0.00274257
0.00596514
-0.00276185
0.00314625
-0.00271424
0.000373142
-0.00261322
-0.00229586
-0.0024714
-0.00481203
-0.00229799
-0.00713236
-0.00209664
-0.00921392
-0.00186519
-0.0110097
-0.00159901
-0.0012993
-0.0124714
-0.0028037
-0.000810557
-0.00476164
-0.000803913
-0.00669707
-0.000778818
-0.00856941
-0.00074088
-0.0103465
-0.000694284
-0.0120028
-0.000641711
-0.0135157
-0.00058377
-0.0148618
-0.000519021
-0.0160154
-0.000445454
-0.000364597
-0.0169501
-0.0164692
-0.0172731
-0.018052
-0.0187928
-0.0194871
-0.0201288
-0.0207126
-0.0212316
-0.0216771
-0.0220417
0.000264201
-0.0223059
0.000966096
-0.017652
0.00207054
-0.0135759
0.00356868
-0.0100081
0.00545953
-0.00686431
0.00773944
-0.00407084
0.0103953
-0.0015639
0.0133945
0.000716538
0.0166907
0.002836
0.0048831
0.0203061
0.00017733
-0.0224832
0.000654648
-0.0181293
0.00141702
-0.0143382
0.00246218
-0.0110532
0.00378984
-0.00819197
0.00539674
-0.00567774
0.00727696
-0.00344412
0.0094302
-0.0014367
0.0118933
0.000372908
0.0019461
0.0148303
9.55023e-05
-0.0225787
0.000371574
-0.0184054
0.000834801
-0.0148015
0.00149621
-0.0117147
0.00236705
-0.00906281
0.0034583
-0.00676899
0.00478376
-0.00476957
0.00636638
-0.00301933
0.00824428
-0.00150499
-0.000267289
0.0104577
2.3357e-05
-0.0226021
0.000125803
-0.0185078
0.000336586
-0.0150122
0.000681184
-0.0120593
0.00118197
-0.0095636
0.00185963
-0.00744665
0.00273563
-0.00564557
0.00383385
-0.00411754
0.00517606
-0.0028472
-0.00185105
0.00675982
-3.82331e-05
-0.0225638
-8.09946e-05
-0.0184651
-7.75317e-05
-0.0150157
1.03172e-05
-0.0121471
0.000212442
-0.00976572
0.000552999
-0.00778721
0.00105216
-0.00614474
0.00172584
-0.00479122
0.00258032
-0.00370168
-0.00287126
0.00360052
-8.93488e-05
-0.0224745
-0.000249349
-0.0183051
-0.00041021
-0.0148548
-0.000523861
-0.0120335
-0.000556459
-0.00973312
-0.00048457
-0.0078591
-0.000293021
-0.00633629
2.52351e-05
-0.00510947
0.000466204
-0.00414265
-0.00341527
0.00101022
-0.000129985
-0.0223445
-0.000379405
-0.0180556
-0.00066231
-0.0145719
-0.000923345
-0.0117724
-0.00112719
-0.00952928
-0.00125309
-0.00773319
-0.0012916
-0.00629778
-0.00124294
-0.00515813
-0.00111744
-0.00426815
-0.00359624
-0.000936468
-0.000159796
-0.0221847
-0.00047034
-0.0177451
-0.000832353
-0.0142099
-0.00118518
-0.0114196
-0.00149334
-0.00922113
-0.00173931
-0.00748722
-0.00191884
-0.00611825
-0.00203789
-0.00503908
-0.00211123
-0.00419481
-0.00354603
-0.00216144
-0.000178104
-0.0220066
-0.000520869
-0.0174023
-0.000918161
-0.0138126
-0.00130526
-0.0110325
-0.00164702
-0.00887936
-0.00192892
-0.00720532
-0.0021511
-0.00589608
-0.00232424
-0.00486595
-0.00246701
-0.00405203
-0.00340891
-0.00260412
-0.000183352
-0.000529894
-0.000918765
-0.00128189
-0.0015847
-0.00181515
-0.00197688
-0.00208462
-0.00216111
-0.00223468
-0.000835211
-0.00909933
0.00887415
0.00189767
-0.0112416
0.00850877
0.00563697
-0.0126687
0.00892934
0.00994959
-0.0150819
0.0107692
0.0144892
-0.0174703
0.0129307
0.0189493
-0.0192954
0.0148352
0.0232109
-0.0202454
0.0159839
0.0271965
-0.0196957
0.0157101
0.0309086
-0.0171093
0.0133973
0.0343661
-0.0122116
0.00875407
0.0376279
-0.00577797
0.0025162
0.0407044
0.000754668
-0.00383118
0.0436621
0.00224774
-0.00520545
0.0463001
-0.00178517
-0.000852857
0.0485024
-0.0195555
0.0173532
0.0498936
-0.0344993
0.0331081
0.0509649
-0.0436258
0.0425545
0.0516887
-0.02544
0.0247162
0.0531761
0.0265197
-0.028007
0.0211903
-0.0226402
0.00163813
-0.00985799
0.00456957
-0.0141731
0.00836743
-0.0164665
0.0125825
-0.0192969
0.0169335
-0.0218214
0.0211571
-0.023519
0.0251594
-0.0242477
0.0288889
-0.0234252
0.0323687
-0.0205891
0.0356376
-0.0154805
0.038764
-0.00890444
0.0417578
-0.00223913
0.0446529
-0.000647359
0.0472191
-0.00435137
0.0492896
-0.021626
0.0505044
-0.0357142
0.0513691
-0.0444905
0.0519264
-0.0259974
0.0534088
0.0250373
0.0196879
0.0049407
-0.0112856
0.0080461
-0.0172785
0.0118377
-0.0202581
0.0158637
-0.023323
0.0199296
-0.0258873
0.0238295
-0.0274189
0.0274975
-0.0279158
0.0309075
-0.0268352
0.0340998
-0.0237815
0.0371298
-0.0185104
0.0400731
-0.0118477
0.0429381
-0.00510414
0.0457287
-0.003438
0.0481914
-0.00681407
0.0501162
-0.0235508
0.0511612
-0.0367591
0.051835
-0.0451643
0.0522453
-0.0264076
0.0537306
0.0235519
0.0181189
0.00893756
-0.0134741
0.0121677
-0.0205087
0.0158668
-0.0239571
0.0196123
-0.0270684
0.0233071
-0.0295821
0.0268125
-0.0309243
0.0300903
-0.0311935
0.0331368
-0.0298817
0.036005
-0.0266497
0.0387622
-0.0212676
0.0414878
-0.0145733
0.0441885
-0.00780485
0.0468415
-0.00609101
0.0491764
-0.00914899
0.050949
-0.0253233
0.051838
-0.0376482
0.0523451
-0.0456714
0.0526353
-0.0266978
0.0541361
0.0220511
0.0164677
0.0134645
-0.0164539
0.0167419
-0.023786
0.0202392
-0.0274545
0.0236139
-0.0304431
0.0268664
-0.0328347
0.0299268
-0.0339847
0.0327806
-0.0340473
0.0354418
-0.0325429
0.03797
-0.0291779
0.040439
-0.0237366
0.0429284
-0.0170628
0.0454424
-0.0103188
0.0479358
-0.00858434
0.0501284
-0.0113416
0.0517514
-0.0269462
0.0525072
-0.038404
0.05288
-0.0460442
0.053084
-0.0269018
0.0546161
0.0205191
0.014717
0.018331
-0.0201691
0.0215474
-0.0270024
0.0247149
-0.030622
0.0276338
-0.033362
0.0303915
-0.0355924
0.0329795
-0.0365726
0.0353998
-0.0364676
0.0376768
-0.0348199
0.0398707
-0.0313718
0.0420559
-0.0259218
0.0443084
-0.0193153
0.0466284
-0.0126389
0.0489532
-0.0109091
0.0510002
-0.0133887
0.0524858
-0.0284319
0.0531391
-0.0390572
0.0534178
-0.0463229
0.0535764
-0.0270604
0.0551606
0.0189348
0.012847
0.0233129
-0.0244372
0.0263294
-0.0300189
0.0290338
-0.0333265
0.0314262
-0.0357544
0.0336613
-0.0378275
0.0357755
-0.0386868
0.0377778
-0.0384699
0.0396948
-0.0367369
0.0415813
-0.0332583
0.0435067
-0.0278472
0.0455392
-0.0213478
0.047674
-0.0147737
0.0498354
-0.0130705
0.0517453
-0.0152985
0.0531154
-0.029802
0.053704
-0.0396458
0.0539356
-0.0465545
0.0540957
-0.0272206
0.0557579
0.0172726
0.0108354
0.0281534
-0.0288882
0.0307961
-0.0326616
0.0329214
-0.0354517
0.0347438
-0.0375768
0.0364595
-0.0395432
0.0381274
-0.0403547
0.0397522
-0.0400948
0.0413556
-0.0383402
0.0429813
-0.0348841
0.044689
-0.0295548
0.0465358
-0.0231946
0.04851
-0.0167479
0.0505272
-0.0150877
0.0523201
-0.0170914
0.0536053
-0.0310873
0.0541735
-0.040214
0.0544105
-0.0467916
0.0546244
-0.0274344
0.056395
0.015502
0.00865675
0.032686
-0.0329465
0.0347065
-0.034682
0.036151
-0.0368962
0.0373882
-0.0388141
0.0386161
-0.0407711
0.0398878
-0.0416264
0.0411943
-0.0414013
0.0425455
-0.0396915
0.0439708
-0.0363093
0.0455157
-0.0310997
0.0472235
-0.0249025
0.0490743
-0.0185987
0.0509787
-0.016992
0.0526854
-0.0187981
0.0539248
-0.0323267
0.0545221
-0.0408113
0.0548214
-0.0470909
0.0551447
-0.0277577
0.0570585
0.0135882
0.00628311
0.0369827
-0.0359632
0.0379984
-0.0356977
0.0386259
-0.0375237
0.0392798
-0.0394679
0.0400592
-0.0415505
0.0409901
-0.0425572
0.0420396
-0.0424508
0.0432015
-0.0408534
0.0444879
-0.0375957
0.0459271
-0.032539
0.0475474
-0.0265228
0.0493176
-0.0203689
0.0511484
-0.0188229
0.0528077
-0.0204575
0.0540468
-0.0335657
0.0547286
-0.0414931
0.0551484
-0.0475107
0.0556423
-0.0282516
0.0577343
0.0114962
0.00368322
0.118172
-0.0274928
-0.126643
0.113732
-0.0312576
0.111148
-0.0349397
0.109532
-0.0378515
0.108297
-0.0403156
0.107337
-0.0415976
0.10653
-0.0416439
0.105862
-0.0401852
0.105393
-0.0371268
0.105271
-0.0324162
0.105682
-0.0269346
0.106769
-0.0214555
0.10836
-0.0204141
0.109998
-0.0220951
0.110725
-0.0342932
0.110012
-0.0407791
0.108179
-0.0456778
0.106323
-0.0263958
0.107915
0.00990399
0.00099369
0.165527
-0.0169823
-0.176038
0.157377
-0.0231073
0.151598
-0.029161
0.147385
-0.0336388
0.144
-0.03693
0.141221
-0.0388188
0.13886
-0.039283
0.136851
-0.0381764
0.135225
-0.0355005
0.134098
-0.031289
0.133644
-0.0264808
0.13397
-0.0217818
0.134863
-0.0213071
0.135831
-0.0230626
0.135794
-0.0342564
0.13432
-0.0393048
0.131588
-0.0429457
0.129063
-0.0238716
0.13041
0.0085572
-0.00164551
0.216774
-0.00643359
-0.227322
0.207758
-0.0140915
0.19999
-0.0213933
0.193552
-0.0272013
0.188051
-0.0314286
0.183313
-0.0340805
0.179192
-0.0351625
0.175623
-0.0346073
0.172626
-0.0325039
0.170291
-0.0289537
0.168758
-0.0249481
0.168084
-0.021107
0.167993
-0.0212164
0.167984
-0.0230533
0.166884
-0.0331565
0.164442
-0.0368633
0.160678
-0.0391815
0.157454
-0.0206482
0.158421
0.00759055
-0.00400886
0.268268
0.00201258
-0.276714
0.260451
-0.00627481
0.25266
-0.0136024
0.245345
-0.0198863
0.238612
-0.0246954
0.232471
-0.0279389
0.226917
-0.0296091
0.221969
-0.029659
0.217693
-0.0282283
0.214179
-0.0254398
0.211537
-0.0223059
0.209759
-0.0193285
0.208501
-0.0199582
0.207275
-0.0218274
0.204863
-0.0307452
0.201311
-0.0333105
0.196481
-0.0343522
0.192665
-0.0168324
0.193154
0.00710201
-0.00581814
0.317845
0.00728703
-0.32312
0.312219
-0.000648296
0.305953
-0.00733616
0.299293
-0.0132269
0.292626
-0.0180276
0.286161
-0.0214742
0.280036
-0.0234842
0.274376
-0.0239989
0.269328
-0.0231808
0.265017
-0.0211289
0.261534
-0.0188228
0.258816
-0.0166096
0.25644
-0.0175825
0.253966
-0.0193535
0.25018
-0.0269589
0.245521
-0.0286523
0.239774
-0.0286048
0.235645
-0.0127034
0.235691
0.00705573
-0.0067965
0.366542
0.00943624
-0.368691
0.363158
0.00273513
0.358853
-0.00303064
0.353683
-0.00805749
0.347998
-0.0123427
0.342131
-0.0156067
0.336318
-0.0176716
0.330756
-0.0184366
0.325645
-0.0180701
0.321148
-0.0166317
0.317336
-0.015011
0.314112
-0.013385
0.310963
-0.0144338
0.307525
-0.0159156
0.302609
-0.0220423
0.297087
-0.0231304
0.290793
-0.0223105
0.286796
-0.00870631
0.286664
0.00718748
-0.00677057
0.417375
0.00915711
-0.417096
0.415917
0.00419274
0.413315
-0.000428312
0.409687
-0.00442946
0.40524
-0.00789576
0.400307
-0.010674
0.395198
-0.0125624
0.390165
-0.0134033
0.385432
-0.0133374
0.38119
-0.0123891
0.377483
-0.0113042
0.374211
-0.0101135
0.370766
-0.0109884
0.366877
-0.0120267
0.361362
-0.0165274
0.35544
-0.0172085
0.349136
-0.0160063
0.345764
-0.00533439
0.345963
0.00698871
-0.00578318
0.473769
0.00718272
-0.471795
0.473943
0.00401893
0.472737
0.00077804
0.470386
-0.00207824
0.467043
-0.00455329
0.462972
-0.00660277
0.458501
-0.00809133
0.453945
-0.00884727
0.449559
-0.00895123
0.445572
-0.00840257
0.442018
-0.0077495
0.438845
-0.00694119
0.435375
-0.00751841
0.431451
-0.00810259
0.425883
-0.0109592
0.420032
-0.0113578
0.414203
-0.0101775
0.41176
-0.00289112
0.412871
0.00587776
-0.00411966
0.539549
0.00402962
-0.536395
0.541063
0.00250474
0.541031
0.000809806
0.539678
-0.000725709
0.53718
-0.00205493
0.533749
-0.00317147
0.529681
-0.00402305
0.525331
-0.00449777
0.521
-0.0046203
0.51698
-0.00438214
0.513311
-0.00408078
0.510036
-0.00366638
0.506458
-0.00394073
0.502542
-0.00418657
0.497121
-0.00553749
0.491497
-0.00573447
0.48628
-0.00496036
0.484668
-0.00127841
0.487021
0.00352464
-0.00214889
0.619906
-0.615877
0.622411
0.623221
0.622495
0.62044
0.617269
0.613246
0.608748
0.604128
0.599746
0.595665
0.591998
0.588058
0.583871
0.578334
0.572599
0.567639
0.56636
0.569885
0.167676
0.0228697
-0.166696
0.167879
0.0284451
0.167121
0.0337149
0.165216
0.0385463
0.161997
0.0427989
0.157349
0.0463378
0.151257
0.0490535
0.143854
0.0508897
0.135499
0.0518182
0.0516228
0.191937
0.0208966
-0.189964
0.193599
0.0267835
0.194802
0.0325121
0.195374
0.0379734
0.195131
0.0430424
0.193883
0.0475853
0.191464
0.0514731
0.187747
0.0546061
0.182613
0.0569526
0.058198
0.217664
0.0183733
-0.21514
0.220304
0.0241435
0.222966
0.0298497
0.225519
0.0354202
0.22779
0.0407713
0.229567
0.0458089
0.23061
0.05043
0.230691
0.0545253
0.229631
0.0580121
0.0605072
0.246184
0.0157092
-0.24352
0.249241
0.0210862
0.25265
0.0264413
0.256341
0.0317287
0.260218
0.0368948
0.264149
0.0418772
0.267975
0.0466042
0.271505
0.0509953
0.274533
0.0549846
0.0583256
0.278557
0.0130507
-0.275899
0.281787
0.0178569
0.285578
0.0226503
0.289909
0.0273979
0.29474
0.0320636
0.300009
0.0366082
0.305625
0.0409886
0.311463
0.0451571
0.31738
0.0490669
0.0525862
0.315583
0.0104269
-0.312959
0.31891
0.0145294
0.32294
0.0186203
0.327665
0.0226733
0.333067
0.0266614
0.339119
0.0305565
0.345778
0.0343293
0.352986
0.0379489
0.36067
0.0413831
0.0445653
0.358171
0.00784509
-0.355589
0.361577
0.0111231
0.365807
0.0143906
0.370854
0.0176263
0.376706
0.020809
0.383346
0.0239171
0.390746
0.0269287
0.398873
0.0298224
0.40768
0.0325756
0.0351498
0.407732
0.00528908
-0.405176
0.411235
0.00761979
0.415683
0.00994264
0.421067
0.0122422
0.427373
0.0145028
0.434582
0.016709
0.442665
0.0188453
0.451591
0.0208965
0.461319
0.0228473
0.024674
0.466401
0.00270817
-0.46382
0.470065
0.00395608
0.474807
0.00520036
0.480617
0.0064324
0.487476
0.00764354
0.49536
0.00882514
0.504237
0.00996871
0.514067
0.0110659
0.524806
0.0121085
0.0130846
0.537592
-0.534883
0.541548
0.546748
0.55318
0.560824
0.569649
0.579618
0.590684
0.602792
0.143469
-0.0301903
-0.141107
0.146321
-0.0264514
0.149284
-0.0218271
0.152262
-0.0168324
0.15518
-0.0115476
0.157994
-0.00605776
0.160644
-0.000399626
0.163048
0.00538409
0.165105
0.0112356
0.017085
0.170898
-0.0318609
-0.169228
0.172719
-0.0282715
0.174646
-0.0237551
0.176682
-0.018868
0.178806
-0.0136715
0.181004
-0.00825634
0.183262
-0.00265672
0.185544
0.00310115
0.187802
0.00897782
0.0149232
0.202225
-0.032317
-0.201769
0.202871
-0.0289172
0.20365
-0.0245344
0.2046
-0.0198174
0.205763
-0.0148348
0.207158
-0.00965086
0.208794
-0.00429298
0.210677
0.00121853
0.212799
0.00685538
0.0125817
0.237308
-0.0314688
-0.238156
0.236647
-0.028256
0.236252
-0.0241395
0.236156
-0.0197218
0.236406
-0.0150844
0.237026
-0.0102711
0.238034
-0.00530087
0.239445
-0.000192866
0.241272
0.00502832
0.0103341
0.276095
-0.0293131
-0.27825
0.274167
-0.0263281
0.272644
-0.0226172
0.271571
-0.0186484
0.270979
-0.0144924
0.27089
-0.0101822
0.271322
-0.00573285
0.272292
-0.00116234
0.273813
0.00350652
0.00824848
0.319178
-0.0258684
-0.322622
0.316073
-0.0232235
0.3135
-0.0200437
0.311507
-0.0166557
0.310122
-0.0131078
0.309365
-0.00942485
0.309254
-0.00562154
0.309806
-0.00171466
0.311037
0.0022754
0.00632646
0.367603
-0.0211708
-0.372301
0.363386
-0.0190069
0.359816
-0.0164735
0.356941
-0.0137801
0.354788
-0.0109555
0.353381
-0.00801783
0.352741
-0.00498075
0.352885
-0.00185917
0.353831
0.00132986
0.00456798
0.422807
-0.0152696
-0.428708
0.417523
-0.0137222
0.412989
-0.0119402
0.409254
-0.0100448
0.40635
-0.00805206
0.404307
-0.00597411
0.403148
-0.00382183
0.402895
-0.00160685
0.403567
0.00065809
0.00295936
0.486924
-0.00820395
-0.49399
0.48059
-0.00738807
0.475103
-0.00645291
0.470513
-0.00545547
0.466864
-0.00440273
0.464191
-0.00330115
0.462526
-0.00215701
0.461896
-0.000976953
0.462323
0.000231845
0.00146175
0.563324
-0.571528
0.555936
0.549483
0.544028
0.539625
0.536324
0.534167
0.53319
0.533422
0.126776
0.00232216
-0.00223063
0.126519
0.00703999
-0.00678306
0.126104
0.0121622
-0.011747
0.125533
0.0180684
-0.017497
0.124859
0.0251192
-0.0244455
0.12414
0.0343623
-0.0336434
0.123837
0.0456905
-0.0453875
0.124116
0.0634247
-0.0637038
0.128856
0.0813894
-0.086129
0.120868
-0.133119
0.147935