/*--------------------------------*- C++ -*----------------------------------*\
  =========                 |
  \\      /  F ield         | OpenFOAM: The Open Source CFD Toolbox
   \\    /   O peration     | Website:  https://openfoam.org
    \\  /    A nd           | Version:  6.0
     \\/     M anipulation  |
\*---------------------------------------------------------------------------*/
FoamFile
{
    version     2.0;
    format      ascii;
    class       volScalarField;
    location    "7.5005";
    object      p;
}
// * * * * * * * * * * * * * * * * * * * * * * * * * * * * * * * * * * * * * //

dimensions      [0 2 -2 0 0 0 0];

internalField   nonuniform List<scalar> 
19200
(
-7.63038
-6.76327
-6.17066
-5.70943
-5.30265
-4.94461
-4.62761
-4.34313
-4.08515
-3.84937
-3.63249
-3.43193
-3.24568
-3.0721
-2.90989
-2.75795
-2.61537
-2.48136
-2.35526
-2.23648
-2.1245
-2.01886
-1.91914
-1.82499
-1.73607
-1.65207
-1.57274
-1.49781
-1.42703
-1.36031
-7.8102
-6.94249
-6.34767
-5.88298
-5.47206
-5.10945
-4.78763
-4.49818
-4.23519
-3.99442
-3.77262
-3.56725
-3.37632
-3.19821
-3.03164
-2.8755
-2.72891
-2.59107
-2.46132
-2.33905
-2.22376
-2.11498
-2.01228
-1.9153
-1.8237
-1.73717
-1.65544
-1.57823
-1.50519
-1.43666
-7.99455
-7.12472
-6.52711
-6.05878
-5.64356
-5.27625
-4.94946
-4.65492
-4.38679
-4.14092
-3.91408
-3.70379
-3.50807
-3.32535
-3.15432
-2.99392
-2.84323
-2.70149
-2.56802
-2.44222
-2.32357
-2.2116
-2.10589
-2.00604
-1.91173
-1.82264
-1.73849
-1.65895
-1.58365
-1.51329
-8.18178
-7.30953
-6.70886
-6.23668
-5.81701
-5.44484
-5.11296
-4.81319
-4.53981
-4.2887
-4.05672
-3.8414
-3.6408
-3.45335
-3.27779
-3.11303
-2.95819
-2.81248
-2.67523
-2.54585
-2.4238
-2.3086
-2.19983
-2.09709
-2.00004
-1.90836
-1.82176
-1.73987
-1.66229
-1.59011
-8.37149
-7.49667
-6.89272
-6.41653
-5.99225
-5.61508
-5.27797
-4.97284
-4.69408
-4.43762
-4.20038
-3.97993
-3.77434
-3.58209
-3.4019
-3.23272
-3.07365
-2.92391
-2.78283
-2.64981
-2.52432
-2.40586
-2.294
-2.18834
-2.08852
-1.99423
-1.90516
-1.82091
-1.74101
-1.66701
-8.5634
-7.68592
-7.07853
-6.59816
-6.16913
-5.78681
-5.44433
-5.13372
-4.84945
-4.58753
-4.34491
-4.11922
-3.90856
-3.71141
-3.52651
-3.35283
-3.18947
-3.03564
-2.89069
-2.75399
-2.62501
-2.50325
-2.38827
-2.27967
-2.17706
-2.08014
-1.98859
-1.90196
-1.81974
-1.74393
-8.75724
-7.87704
-7.26608
-6.78141
-6.34747
-5.95988
-5.61189
-5.29567
-5.00576
-4.73826
-4.49016
-4.25913
-4.04329
-3.84116
-3.65148
-3.47323
-3.30551
-3.14754
-2.99866
-2.85824
-2.72574
-2.60066
-2.48254
-2.37097
-2.26556
-2.166
-2.07195
-1.98292
-1.89838
-1.82075
-8.95282
-8.06983
-7.4552
-6.96608
-6.52711
-6.1341
-5.78048
-5.45852
-5.16285
-4.88965
-4.63597
-4.39949
-4.17839
-3.97118
-3.77665
-3.59376
-3.42163
-3.25947
-3.10662
-2.96244
-2.8264
-2.69797
-2.57669
-2.46213
-2.35391
-2.25169
-2.15515
-2.06371
-1.97683
-1.89741
-9.1499
-8.26408
-7.64568
-7.152
-6.70786
-6.30931
-5.94992
-5.6221
-5.32056
-5.04154
-4.78216
-4.54014
-4.31368
-4.10133
-3.90187
-3.71429
-3.53768
-3.3713
-3.21443
-3.06647
-2.92685
-2.79505
-2.6706
-2.55305
-2.44201
-2.33713
-2.23808
-2.14424
-2.05502
-1.97382
-9.34828
-8.45959
-7.83733
-7.33897
-6.88955
-6.48533
-6.12005
-5.78623
-5.4787
-5.19376
-4.92857
-4.68092
-4.44902
-4.23145
-4.027
-3.83465
-3.65353
-3.48287
-3.32196
-3.17019
-3.02698
-2.8918
-2.76416
-2.64362
-2.52975
-2.42222
-2.32066
-2.22441
-2.13286
-2.0499
-9.54777
-8.65615
-8.02995
-7.52681
-7.07199
-6.66197
-6.29067
-5.95074
-5.6371
-5.34613
-5.07504
-4.82166
-4.58425
-4.36137
-4.15186
-3.95471
-3.76903
-3.59406
-3.42908
-3.27348
-3.12666
-2.98808
-2.85726
-2.73372
-2.61703
-2.50684
-2.40278
-2.30414
-2.21025
-2.12557
-9.74814
-8.85358
-8.22335
-7.71531
-7.25497
-6.83904
-6.46161
-6.11545
-5.79559
-5.49848
-5.2214
-4.9622
-4.71918
-4.49095
-4.27632
-4.07431
-3.88403
-3.70471
-3.53565
-3.37619
-3.22576
-3.08379
-2.94978
-2.82324
-2.70374
-2.59091
-2.48436
-2.38332
-2.28712
-2.20074
-9.94921
-9.05166
-8.41733
-7.9043
-7.43833
-7.01636
-6.63267
-6.28017
-5.95398
-5.65063
-5.36746
-5.10237
-4.85368
-4.62001
-4.40022
-4.1933
-3.99839
-3.8147
-3.64153
-3.47821
-3.32415
-3.17879
-3.0416
-2.91208
-2.78978
-2.67431
-2.5653
-2.46189
-2.36338
-2.27533
-10.1508
-9.25019
-8.61168
-8.09356
-7.62185
-7.19374
-6.80368
-6.44473
-6.1121
-5.80241
-5.51306
-5.24199
-4.98756
-4.74841
-4.5234
-4.31154
-4.11196
-3.92388
-3.74658
-3.5794
-3.42172
-3.27297
-3.1326
-3.00011
-2.87503
-2.75696
-2.64549
-2.53972
-2.43894
-2.34927
-10.3526
-9.44897
-8.80621
-8.28291
-7.80535
-7.37098
-6.97444
-6.60892
-6.26975
-5.95363
-5.65802
-5.3809
-5.12066
-4.87597
-4.6457
-4.42887
-4.2246
-4.03212
-3.85068
-3.67963
-3.51833
-3.36619
-3.22267
-3.08722
-2.95938
-2.83872
-2.72483
-2.61674
-2.51369
-2.42245
-10.5545
-9.6478
-9.00073
-8.47215
-7.98863
-7.54789
-7.14476
-6.77257
-6.42677
-6.10413
-5.80217
-5.51893
-5.25283
-5.00255
-4.76698
-4.54514
-4.33617
-4.13926
-3.95368
-3.77876
-3.61385
-3.45834
-3.31168
-3.1733
-3.04272
-2.91951
-2.80322
-2.69282
-2.58754
-2.49476
-10.7563
-9.84649
-9.19502
-8.66107
-8.1715
-7.72428
-7.31445
-6.9355
-6.58296
-6.25372
-5.94534
-5.65592
-5.3839
-5.12799
-4.88708
-4.66022
-4.44651
-4.24517
-4.05546
-3.87667
-3.70815
-3.54929
-3.3995
-3.25821
-3.12492
-2.99918
-2.88054
-2.76787
-2.66037
-2.5661
-10.9578
-10.0448
-9.38891
-8.84949
-8.35376
-7.89996
-7.48333
-7.09751
-6.73816
-6.40223
-6.08736
-5.7917
-5.51371
-5.25213
-5.00586
-4.77395
-4.5555
-4.34972
-4.15587
-3.97322
-3.80111
-3.63891
-3.48601
-3.34184
-3.20586
-3.07762
-2.95665
-2.84175
-2.73208
-2.63638
-11.1587
-10.2426
-9.58219
-9.03721
-8.53522
-8.07473
-7.65121
-7.25843
-6.89217
-6.54948
-6.22807
-5.9261
-5.6421
-5.37482
-5.12317
-4.88619
-4.66299
-4.45278
-4.25478
-4.06828
-3.89259
-3.72706
-3.57107
-3.42404
-3.2854
-3.15469
-3.03143
-2.91432
-2.80251
-2.70544
-11.359
-10.4397
-9.77467
-9.22405
-8.71568
-8.24841
-7.81789
-7.41807
-7.04483
-6.69531
-6.36729
-6.05898
-5.76894
-5.49593
-5.23887
-4.99681
-4.76887
-4.55421
-4.35207
-4.16172
-3.98246
-3.81362
-3.65456
-3.50467
-3.3634
-3.23025
-3.10471
-2.98544
-2.87151
-2.77311
-11.5584
-10.6359
-9.96618
-9.4098
-8.89497
-8.42081
-7.9832
-7.57624
-7.19595
-6.83955
-6.50487
-6.19019
-5.89407
-5.61531
-5.35284
-5.10569
-4.87299
-4.6539
-4.44763
-4.25344
-4.07061
-3.89846
-3.73633
-3.58361
-3.4397
-3.30413
-3.17634
-3.05493
-2.93888
-2.8392
-11.7568
-10.831
-10.1565
-9.59428
-9.07287
-8.59173
-8.14695
-7.73278
-7.34538
-6.98204
-6.64066
-6.31956
-6.01735
-5.73283
-5.46494
-5.21271
-4.97525
-4.75173
-4.54133
-4.34331
-4.15692
-3.98146
-3.81627
-3.66071
-3.51417
-3.37616
-3.24613
-3.12256
-3.0044
-2.90343
-11.9541
-11.0249
-10.3455
-9.77729
-9.2492
-8.76098
-8.30894
-7.88751
-7.49293
-7.12261
-6.7745
-6.44698
-6.13866
-5.84837
-5.57506
-5.31776
-5.07556
-4.84761
-4.6331
-4.43124
-4.24129
-4.06252
-3.89426
-3.73584
-3.58664
-3.44618
-3.31388
-3.18814
-3.0678
-2.96553
-12.1502
-11.2175
-10.533
-9.95865
-9.42376
-8.92837
-8.469
-8.04024
-7.63844
-7.2611
-6.90625
-6.57229
-6.25787
-5.96183
-5.68311
-5.42075
-5.17382
-4.94147
-4.72285
-4.51717
-4.32365
-4.14157
-3.97021
-3.8089
-3.657
-3.51403
-3.37939
-3.25141
-3.12878
-3.02514
-12.345
-11.4084
-10.7187
-10.1381
-9.59634
-9.09369
-8.62694
-8.19079
-7.78175
-7.39738
-7.03578
-6.69538
-6.37486
-6.07308
-5.78899
-5.52159
-5.26997
-5.03324
-4.81053
-4.60104
-4.40396
-4.21855
-4.04406
-3.87981
-3.72515
-3.57957
-3.44249
-3.31212
-3.18703
-3.08185
-12.5386
-11.5977
-10.9025
-10.3155
-9.76672
-9.25675
-8.78255
-8.339
-7.9227
-7.53129
-7.16294
-6.81612
-6.48954
-6.18206
-5.89262
-5.62024
-5.36396
-5.12288
-4.89613
-4.68285
-4.48223
-4.29347
-4.11584
-3.9486
-3.79108
-3.64276
-3.50307
-3.37011
-3.24223
-3.13509
-12.731
-11.785
-11.0841
-10.4906
-9.93466
-9.41731
-8.93565
-8.48468
-8.06111
-7.66268
-7.28761
-6.93441
-6.60181
-6.28867
-5.99394
-5.71663
-5.45575
-5.21039
-4.97964
-4.76262
-4.55848
-4.36641
-4.18561
-4.01534
-3.85489
-3.70372
-3.56124
-3.42544
-3.29425
-3.18422
-12.9235
-11.9706
-11.2632
-10.6629
-10.0999
-9.57512
-9.086
-8.62763
-8.19682
-7.79141
-7.40965
-7.05011
-6.71155
-6.39283
-6.09289
-5.81071
-5.54532
-5.29576
-5.06109
-4.8404
-4.63282
-4.43748
-4.25355
-4.08024
-3.91678
-3.76261
-3.61713
-3.47803
-3.34254
-3.22889
-13.1172
-12.154
-11.4391
-10.8321
-10.262
-9.72991
-9.23339
-8.76766
-8.32966
-7.91731
-7.52893
-7.16313
-6.81867
-6.49445
-6.18938
-5.90245
-5.63264
-5.37898
-5.14051
-4.91628
-4.70537
-4.50688
-4.31994
-4.14367
-3.97723
-3.81992
-3.67089
-3.52725
-3.3859
-3.26877
-13.3044
-12.3322
-11.6108
-10.9976
-10.4208
-9.88165
-9.37782
-8.9048
-8.45966
-8.04042
-7.64548
-7.27348
-6.92322
-6.59357
-6.28347
-5.99188
-5.71777
-5.46014
-5.21799
-4.99037
-4.77632
-4.57492
-4.38526
-4.20643
-4.03755
-3.87773
-3.72557
-3.57796
-3.43322
-3.31133
-16.5112
-16.4875
-16.4541
-16.4162
-16.373
-16.3237
-16.2681
-16.2064
-16.1384
-16.0642
-15.9838
-15.8973
-15.8048
-15.7065
-15.6024
-15.4926
-15.3773
-15.2567
-15.1308
-14.9999
-14.8641
-14.7236
-14.5785
-14.4291
-14.2756
-14.1183
-13.9573
-13.7933
-13.6267
-13.4603
-15.4703
-15.4516
-15.4242
-15.3903
-15.35
-15.3033
-15.2501
-15.1907
-15.1249
-15.053
-14.9749
-14.8908
-14.8007
-14.7049
-14.6033
-14.4961
-14.3835
-14.2656
-14.1425
-14.0144
-13.8815
-13.7439
-13.6018
-13.4554
-13.3049
-13.1505
-12.9926
-12.8313
-12.667
-12.5002
-14.6255
-14.6106
-14.588
-14.5584
-14.5221
-14.4792
-14.4299
-14.3743
-14.3124
-14.2444
-14.1704
-14.0903
-14.0044
-13.9128
-13.8155
-13.7127
-13.6045
-13.4911
-13.3725
-13.249
-13.1207
-12.9877
-12.8502
-12.7085
-12.5627
-12.4129
-12.2594
-12.1023
-11.9419
-11.7781
-13.8566
-13.8454
-13.827
-13.8018
-13.77
-13.7316
-13.687
-13.6361
-13.5791
-13.516
-13.4469
-13.3719
-13.2912
-13.2048
-13.1129
-13.0155
-12.9128
-12.805
-12.692
-12.5742
-12.4516
-12.3244
-12.1928
-12.0568
-11.9168
-11.7727
-11.6249
-11.4734
-11.3183
-11.1598
-13.1082
-13.1007
-13.0865
-13.0657
-13.0384
-13.0049
-12.9651
-12.9192
-12.8673
-12.8095
-12.7459
-12.6764
-12.6014
-12.5207
-12.4347
-12.3433
-12.2467
-12.1449
-12.0383
-11.9267
-11.8105
-11.6897
-11.5646
-11.4351
-11.3015
-11.164
-11.0226
-10.8775
-10.7288
-10.5766
-12.3926
-12.3885
-12.3782
-12.3615
-12.3387
-12.3097
-12.2748
-12.2339
-12.1871
-12.1346
-12.0764
-12.0126
-11.9432
-11.8685
-11.7885
-11.7032
-11.6129
-11.5175
-11.4173
-11.3124
-11.2028
-11.0887
-10.9703
-10.8477
-10.721
-10.5903
-10.4558
-10.3176
-10.1758
-10.0305
-11.7148
-11.7139
-11.707
-11.6941
-11.6753
-11.6506
-11.6201
-11.5839
-11.542
-11.4946
-11.4416
-11.3833
-11.3195
-11.2506
-11.1764
-11.0972
-11.0131
-10.924
-10.8303
-10.7319
-10.629
-10.5216
-10.4101
-10.2943
-10.1745
-10.0509
-9.9234
-9.79226
-9.65755
-9.5194
-11.0755
-11.0773
-11.0734
-11.0638
-11.0486
-11.0277
-11.0012
-10.9693
-10.9319
-10.8891
-10.841
-10.7877
-10.7293
-10.6658
-10.5972
-10.5238
-10.4456
-10.3627
-10.2751
-10.1831
-10.0866
-9.98588
-9.88097
-9.77199
-9.65907
-9.54231
-9.42182
-9.29772
-9.17012
-9.03913
-10.475
-10.4789
-10.4776
-10.4708
-10.4586
-10.441
-10.4181
-10.3899
-10.3565
-10.318
-10.2743
-10.2257
-10.1721
-10.1136
-10.0503
-9.98223
-9.90956
-9.83234
-9.75067
-9.66463
-9.57433
-9.47987
-9.38135
-9.27888
-9.17256
-9.06249
-8.94879
-8.83155
-8.71088
-8.5869
-9.91297
-9.9187
-9.91938
-9.91486
-9.90518
-9.89038
-9.8705
-9.8456
-9.81571
-9.7809
-9.7412
-9.69669
-9.64743
-9.59348
-9.53492
-9.47183
-9.40427
-9.33234
-9.25611
-9.17568
-9.09113
-9.00256
-8.91006
-8.81373
-8.71367
-8.60997
-8.50274
-8.39207
-8.27806
-8.16083
-9.38864
-9.39569
-9.39793
-9.39522
-9.3876
-9.3751
-9.35777
-9.33565
-9.30877
-9.27717
-9.24092
-9.20007
-9.15467
-9.10479
-9.05049
-8.99185
-8.92893
-8.86181
-8.79056
-8.71528
-8.63603
-8.55292
-8.46602
-8.37542
-8.28122
-8.1835
-8.08237
-7.97791
-7.87021
-7.7594
-8.90057
-8.90854
-8.91193
-8.91061
-8.90462
-8.89399
-8.87875
-8.85894
-8.8346
-8.80577
-8.77249
-8.73481
-8.6928
-8.64651
-8.59599
-8.54132
-8.48256
-8.41978
-8.35304
-8.28244
-8.20804
-8.12992
-8.04817
-7.96287
-7.87409
-7.78194
-7.68649
-7.58784
-7.48606
-7.38127
-8.44699
-8.45554
-8.45973
-8.45944
-8.4547
-8.44554
-8.43199
-8.41409
-8.39187
-8.36536
-8.33462
-8.29968
-8.26061
-8.21745
-8.17026
-8.1191
-8.06404
-8.00514
-7.94246
-7.87608
-7.80606
-7.73249
-7.65544
-7.57498
-7.4912
-7.40417
-7.31398
-7.22072
-7.12445
-7.02528
-8.02589
-8.03475
-8.03945
-8.03988
-8.03606
-8.02803
-8.01583
-7.99948
-7.979
-7.95444
-7.92584
-7.89325
-7.8567
-7.81627
-7.77199
-7.72392
-7.67213
-7.61667
-7.55761
-7.49502
-7.42895
-7.35949
-7.2867
-7.21065
-7.13143
-7.0491
-6.96374
-6.87544
-6.78426
-6.69031
-7.63514
-7.64409
-7.64905
-7.64995
-7.64679
-7.63962
-7.62846
-7.61335
-7.5943
-7.57135
-7.54456
-7.51395
-7.47958
-7.44149
-7.39974
-7.35439
-7.30547
-7.25306
-7.19722
-7.13801
-7.07548
-7.00972
-6.94077
-6.86873
-6.79364
-6.71559
-6.63466
-6.55091
-6.46442
-6.37528
-7.27258
-7.28143
-7.28648
-7.28764
-7.28492
-7.27837
-7.26801
-7.25388
-7.23599
-7.21437
-7.18908
-7.16016
-7.12765
-7.09159
-7.05204
-7.00904
-6.96266
-6.91294
-6.85996
-6.80375
-6.74439
-6.68194
-6.61647
-6.54803
-6.4767
-6.40254
-6.32563
-6.24605
-6.16385
-6.07914
-6.93606
-6.94469
-6.94967
-6.95093
-6.94848
-6.94236
-6.93261
-6.91924
-6.90228
-6.88176
-6.85773
-6.83023
-6.7993
-6.76499
-6.72734
-6.68641
-6.64225
-6.59491
-6.54445
-6.49092
-6.43439
-6.37491
-6.31255
-6.24737
-6.17943
-6.1088
-6.03555
-5.95976
-5.88149
-5.80084
-6.6235
-6.63182
-6.63662
-6.63786
-6.63554
-6.62971
-6.6204
-6.60762
-6.5914
-6.57179
-6.54881
-6.52251
-6.49294
-6.46013
-6.42414
-6.38501
-6.3428
-6.29756
-6.24934
-6.1982
-6.14419
-6.08738
-6.02782
-5.96556
-5.90069
-5.83325
-5.76333
-5.69098
-5.6163
-5.53936
-6.33295
-6.34088
-6.34543
-6.34655
-6.34426
-6.33861
-6.32961
-6.31729
-6.30166
-6.28278
-6.26069
-6.23541
-6.207
-6.17549
-6.14094
-6.1034
-6.0629
-6.01952
-5.97329
-5.92427
-5.87252
-5.81809
-5.76105
-5.70144
-5.63933
-5.57478
-5.50787
-5.43866
-5.36722
-5.29368
-6.06255
-6.07005
-6.07429
-6.07524
-6.07291
-6.06734
-6.05855
-6.04658
-6.03143
-6.01316
-5.9918
-5.9674
-5.93998
-5.90961
-5.87632
-5.84016
-5.80118
-5.75944
-5.71498
-5.66786
-5.61814
-5.56586
-5.51108
-5.45385
-5.39424
-5.33231
-5.26812
-5.20175
-5.13327
-5.06282
-5.81059
-5.81764
-5.82155
-5.82227
-5.81984
-5.81429
-5.80565
-5.79394
-5.77917
-5.76141
-5.74067
-5.71701
-5.69047
-5.66108
-5.62889
-5.59396
-5.55633
-5.51605
-5.47318
-5.42776
-5.37985
-5.3295
-5.27677
-5.2217
-5.16435
-5.10479
-5.04306
-4.97926
-4.91347
-4.84582
-5.57551
-5.58209
-5.58564
-5.58612
-5.58356
-5.57799
-5.56943
-5.55791
-5.54346
-5.52611
-5.50591
-5.4829
-5.4571
-5.42858
-5.39737
-5.36353
-5.3271
-5.28813
-5.24668
-5.20279
-5.15652
-5.10792
-5.05703
-5.00392
-4.94862
-4.8912
-4.83171
-4.77024
-4.70685
-4.64175
-5.35587
-5.36199
-5.36518
-5.36539
-5.36267
-5.35704
-5.34854
-5.33717
-5.32297
-5.30597
-5.28623
-5.26377
-5.23864
-5.21089
-5.18055
-5.14768
-5.11232
-5.07453
-5.03436
-4.99185
-4.94706
-4.90004
-4.85084
-4.7995
-4.74608
-4.6906
-4.63314
-4.57376
-4.51254
-4.44972
-5.15036
-5.15603
-5.15885
-5.15881
-5.15591
-5.15021
-5.14172
-5.13047
-5.11647
-5.09979
-5.08044
-5.05848
-5.03394
-5.00686
-4.9773
-4.9453
-4.91091
-4.87418
-4.83517
-4.79391
-4.75047
-4.70489
-4.65722
-4.60751
-4.55579
-4.5021
-4.44647
-4.38899
-4.32968
-4.26889
-4.95779
-4.96303
-4.9655
-4.96519
-4.96212
-4.95634
-4.94785
-4.93668
-4.92286
-4.90644
-4.88744
-4.86592
-4.8419
-4.81544
-4.78658
-4.75537
-4.72185
-4.68609
-4.64812
-4.60801
-4.5658
-4.52154
-4.47527
-4.42704
-4.37689
-4.32483
-4.27089
-4.21512
-4.15748
-4.0985
-4.77712
-4.78193
-4.78406
-4.78348
-4.78023
-4.77435
-4.76584
-4.75473
-4.74106
-4.72486
-4.70617
-4.68503
-4.66148
-4.63557
-4.60734
-4.57684
-4.54412
-4.50922
-4.47221
-4.43314
-4.39204
-4.34899
-4.30401
-4.25715
-4.20843
-4.15788
-4.10549
-4.05127
-3.99508
-3.93777
-4.60738
-4.61178
-4.61357
-4.61273
-4.6093
-4.6033
-4.59475
-4.58368
-4.57012
-4.5541
-4.53567
-4.51486
-4.49172
-4.46629
-4.43861
-4.40873
-4.37671
-4.34259
-4.30643
-4.26828
-4.22819
-4.18621
-4.14238
-4.09676
-4.04936
-4.00019
-3.9492
-3.89638
-3.84133
-3.78562
-4.44769
-4.45177
-4.45331
-4.45229
-4.44873
-4.44268
-4.43414
-4.42314
-4.40972
-4.39391
-4.37575
-4.35528
-4.33253
-4.30756
-4.28041
-4.25113
-4.21977
-4.18637
-4.151
-4.11371
-4.07454
-4.03356
-3.99081
-3.94633
-3.90016
-3.85229
-3.80265
-3.75114
-3.69694
-3.6424
-4.29713
-4.30107
-4.30253
-4.30149
-4.29799
-4.29206
-4.2837
-4.27295
-4.25984
-4.24442
-4.2267
-4.20674
-4.18457
-4.16025
-4.13381
-4.10531
-4.07479
-4.04231
-4.00793
-3.97169
-3.93366
-3.89389
-3.85243
-3.80934
-3.76465
-3.71837
-3.67042
-3.62063
-3.56765
-3.51451
-4.155
-4.15815
-4.15892
-4.15729
-4.1533
-4.14698
-4.13834
-4.12741
-4.11423
-4.09882
-4.08123
-4.0615
-4.03965
-4.01575
-3.98984
-3.96195
-3.93216
-3.9005
-3.86703
-3.83181
-3.7949
-3.75635
-3.71622
-3.67458
-3.63149
-3.58698
-3.54106
-3.49352
-3.44303
-3.39671
-14.0178
-14.1759
-14.3253
-14.4744
-14.6215
-14.7652
-14.9048
-15.0401
-15.1706
-15.2961
-15.4163
-15.5309
-15.6399
-15.743
-15.84
-15.9309
-16.0154
-16.0935
-16.165
-16.2299
-16.2882
-16.3396
-16.3843
-16.4221
-16.453
-16.4772
-16.4946
-16.5054
-16.5099
-16.5097
-12.9751
-13.1374
-13.2926
-13.4441
-13.5919
-13.7354
-13.8745
-14.009
-14.1387
-14.2633
-14.3827
-14.4966
-14.605
-14.7075
-14.8041
-14.8946
-14.9789
-15.0568
-15.1284
-15.1934
-15.2519
-15.3036
-15.3487
-15.3871
-15.4187
-15.4436
-15.4618
-15.4734
-15.4784
-15.4771
-12.1156
-12.2775
-12.4339
-12.5855
-12.7329
-12.8758
-13.0142
-13.148
-13.2771
-13.4011
-13.52
-13.6336
-13.7417
-13.8442
-13.9409
-14.0317
-14.1164
-14.1949
-14.2673
-14.3332
-14.3928
-14.4458
-14.4923
-14.5322
-14.5655
-14.5922
-14.6122
-14.6256
-14.6324
-14.6323
-11.334
-11.4935
-11.6483
-11.7986
-11.9446
-12.0863
-12.2235
-12.3562
-12.4843
-12.6075
-12.7257
-12.8388
-12.9466
-13.0489
-13.1456
-13.2366
-13.3218
-13.4011
-13.4743
-13.5413
-13.6021
-13.6567
-13.7048
-13.7466
-13.782
-13.8108
-13.8332
-13.849
-13.8582
-13.8607
-10.5836
-10.7395
-10.8916
-11.0396
-11.1834
-11.323
-11.4584
-11.5894
-11.7159
-11.8377
-11.9548
-12.0669
-12.1739
-12.2756
-12.3721
-12.463
-12.5483
-12.6279
-12.7017
-12.7696
-12.8315
-12.8873
-12.937
-12.9806
-13.0179
-13.0489
-13.0736
-13.0919
-13.1039
-13.1093
-9.87895
-10.0309
-10.1795
-10.3242
-10.4651
-10.602
-10.7349
-10.8635
-10.9879
-11.1078
-11.2232
-11.3338
-11.4395
-11.5403
-11.6359
-11.7262
-11.8113
-11.8908
-11.9648
-12.0331
-12.0957
-12.1525
-12.2034
-12.2484
-12.2873
-12.3203
-12.3471
-12.3678
-12.3823
-12.3906
-9.22595
-9.37351
-9.51802
-9.65899
-9.79632
-9.92994
-10.0597
-10.1855
-10.3073
-10.4248
-10.5379
-10.6465
-10.7505
-10.8497
-10.9441
-11.0334
-11.1176
-11.1966
-11.2704
-11.3387
-11.4015
-11.4588
-11.5104
-11.5564
-11.5966
-11.6311
-11.6597
-11.6824
-11.6992
-11.71
-8.62423
-8.76712
-8.9072
-9.044
-9.1774
-9.30731
-9.4336
-9.55615
-9.6748
-9.78944
-9.89993
-10.0061
-10.1079
-10.2052
-10.2978
-10.3857
-10.4687
-10.5467
-10.6197
-10.6875
-10.7501
-10.8075
-10.8594
-10.9059
-10.947
-10.9825
-11.0124
-11.0367
-11.0553
-11.0683
-8.0723
-8.21035
-8.3458
-8.47819
-8.6074
-8.73332
-8.85584
-8.9748
-9.09009
-9.20156
-9.30908
-9.41254
-9.51181
-9.60677
-9.6973
-9.78331
-9.86468
-9.94133
-10.0132
-10.0801
-10.142
-10.199
-10.2507
-10.2974
-10.3388
-10.3749
-10.4057
-10.4311
-10.4512
-10.4658
-7.56774
-7.70091
-7.83164
-7.95951
-8.08438
-8.20617
-8.32473
-8.43993
-8.55164
-8.65972
-8.76406
-8.86452
-8.96099
-9.05336
-9.14152
-9.22537
-9.3048
-9.37973
-9.45008
-9.51575
-9.57669
-9.63281
-9.68407
-9.73039
-9.77174
-9.80806
-9.83932
-9.86547
-9.88649
-9.90237
-7.10742
-7.23575
-7.36177
-7.48509
-7.6056
-7.72318
-7.83772
-7.94906
-8.05708
-8.16165
-8.26266
-8.35997
-8.45348
-8.54308
-8.62866
-8.71012
-8.78738
-8.86034
-8.92892
-8.99306
-9.05267
-9.10771
-9.15809
-9.20378
-9.24473
-9.28089
-9.31222
-9.3387
-9.36028
-9.37698
-6.68785
-6.81143
-6.93281
-7.05165
-7.16782
-7.28123
-7.39174
-7.49921
-7.60352
-7.70454
-7.80215
-7.89623
-7.98668
-8.07339
-8.15626
-8.23519
-8.31011
-8.38092
-8.44756
-8.50994
-8.56801
-8.6217
-8.67096
-8.71575
-8.756
-8.7917
-8.82279
-8.84925
-8.87106
-8.88822
-6.30544
-6.4244
-6.54127
-6.65573
-6.76767
-6.87698
-6.98353
-7.08718
-7.18781
-7.28529
-7.3795
-7.47034
-7.55769
-7.64147
-7.72156
-7.79789
-7.87036
-7.93891
-8.00347
-8.06395
-8.12031
-8.17249
-8.22043
-8.26409
-8.30344
-8.33842
-8.36902
-8.3952
-8.41695
-8.43426
-5.95665
-6.07117
-6.18369
-6.29393
-6.40177
-6.5071
-6.60979
-6.70971
-6.80674
-6.90074
-6.99161
-7.07924
-7.16352
-7.24435
-7.32166
-7.39535
-7.46534
-7.53157
-7.59397
-7.65246
-7.70701
-7.75755
-7.80403
-7.84642
-7.88468
-7.91878
-7.94868
-7.97437
-7.99582
-8.01304
-5.63814
-5.7484
-5.85675
-5.96293
-6.06683
-6.16834
-6.26732
-6.36364
-6.45717
-6.5478
-6.63541
-6.71989
-6.80115
-6.8791
-6.95364
-7.02471
-7.09222
-7.15611
-7.21632
-7.27278
-7.32545
-7.37428
-7.41923
-7.46024
-7.49731
-7.53038
-7.55944
-7.58447
-7.60545
-7.62239
-5.34678
-5.45297
-5.55734
-5.65966
-5.7598
-5.85766
-5.95308
-6.04595
-6.13613
-6.2235
-6.30795
-6.38939
-6.46772
-6.54284
-6.61469
-6.68317
-6.74824
-6.80981
-6.86784
-6.92227
-6.97304
-7.02013
-7.06348
-7.10307
-7.13886
-7.17082
-7.19894
-7.22319
-7.24356
-7.26008
-5.07972
-5.18203
-5.28263
-5.38127
-5.47785
-5.57223
-5.66428
-5.75385
-5.84082
-5.92508
-6.00651
-6.08501
-6.16051
-6.2329
-6.30212
-6.3681
-6.43077
-6.49007
-6.54595
-6.59837
-6.64726
-6.6926
-6.73435
-6.77248
-6.80696
-6.83776
-6.86487
-6.88827
-6.90795
-6.92392
-4.83436
-4.933
-5.03001
-5.12518
-5.21839
-5.30949
-5.39834
-5.48479
-5.56871
-5.64999
-5.72853
-5.80423
-5.877
-5.94677
-6.01346
-6.07701
-6.13736
-6.19446
-6.24825
-6.29869
-6.34574
-6.38936
-6.42952
-6.46619
-6.49934
-6.52896
-6.55503
-6.57753
-6.59645
-6.61182
-4.6084
-4.70353
-4.79716
-4.88907
-4.97911
-5.06712
-5.15295
-5.23644
-5.31747
-5.39593
-5.47171
-5.54473
-5.6149
-5.68215
-5.74642
-5.80764
-5.86576
-5.92073
-5.9725
-6.02103
-6.06628
-6.10822
-6.14682
-6.18205
-6.21389
-6.24233
-6.26734
-6.28892
-6.30706
-6.32177
-4.39976
-4.49155
-4.582
-4.67086
-4.75793
-4.84304
-4.92602
-5.00672
-5.08502
-5.16079
-5.23396
-5.30442
-5.37212
-5.43697
-5.49892
-5.55791
-5.61389
-5.66682
-5.71664
-5.76333
-5.80685
-5.84717
-5.88425
-5.91808
-5.94864
-5.97591
-5.99988
-6.02054
-6.03788
-6.05192
-4.20659
-4.2952
-4.38268
-4.46869
-4.553
-4.63539
-4.71571
-4.79378
-4.86949
-4.94273
-5.0134
-5.08145
-5.14678
-5.20935
-5.26909
-5.32595
-5.37989
-5.43086
-5.47883
-5.52376
-5.56561
-5.60436
-5.63999
-5.67247
-5.70179
-5.72792
-5.75087
-5.77061
-5.78716
-5.80052
-4.02722
-4.11282
-4.19756
-4.28094
-4.36268
-4.44255
-4.52036
-4.59596
-4.66922
-4.74005
-4.80838
-4.87411
-4.93721
-4.9976
-5.05524
-5.11008
-5.16207
-5.21119
-5.25738
-5.30063
-5.34089
-5.37815
-5.41238
-5.44357
-5.47169
-5.49673
-5.51868
-5.53754
-5.55331
-5.566
-3.86016
-3.9429
-4.02516
-4.10615
-4.18552
-4.26304
-4.33851
-4.41178
-4.48273
-4.55129
-4.61738
-4.68093
-4.7419
-4.80023
-4.85587
-4.90879
-4.95894
-5.00628
-5.0508
-5.09244
-5.1312
-5.16703
-5.19993
-5.22988
-5.25685
-5.28085
-5.30185
-5.31986
-5.33487
-5.3469
-3.704
-3.78407
-3.86419
-3.94304
-4.02024
-4.09559
-4.16887
-4.23994
-4.30871
-4.3751
-4.43907
-4.50055
-4.5595
-4.61587
-4.66963
-4.72072
-4.76912
-4.81479
-4.85771
-4.89784
-4.93517
-4.96966
-5.00129
-5.03006
-5.05595
-5.07895
-5.09904
-5.11624
-5.13052
-5.14192
-3.55745
-3.63515
-3.71354
-3.79051
-3.86575
-3.93909
-4.01031
-4.0793
-4.146
-4.21036
-4.27231
-4.33183
-4.38886
-4.44338
-4.49534
-4.5447
-4.59145
-4.63554
-4.67694
-4.71564
-4.75161
-4.78482
-4.81526
-4.84292
-4.86778
-4.88983
-4.90906
-4.92548
-4.93908
-4.94987
-3.41932
-3.49533
-3.57255
-3.6479
-3.72135
-3.79282
-3.86209
-3.9291
-3.99382
-4.05621
-4.11625
-4.17388
-4.22909
-4.28184
-4.33209
-4.37981
-4.42497
-4.46755
-4.50752
-4.54486
-4.57953
-4.61153
-4.64084
-4.66743
-4.69131
-4.71246
-4.73087
-4.74654
-4.75948
-4.76969
-3.28755
-3.36342
-3.44038
-3.51432
-3.58612
-3.65582
-3.72323
-3.78834
-3.85116
-3.91168
-3.96987
-4.02572
-4.07919
-4.13025
-4.17888
-4.22504
-4.26871
-4.30986
-4.34846
-4.38451
-4.41796
-4.44881
-4.47704
-4.50263
-4.52558
-4.54587
-4.5635
-4.57847
-4.59077
-4.60043
-3.1569
-3.2347
-3.31306
-3.38605
-3.45643
-3.52458
-3.59032
-3.65372
-3.71483
-3.77368
-3.83024
-3.8845
-3.93644
-3.98602
-4.03323
-4.07802
-4.12039
-4.1603
-4.19773
-4.23266
-4.26507
-4.29494
-4.32226
-4.347
-4.36917
-4.38875
-4.40573
-4.42012
-4.43191
-4.44112
-3.02357
-3.1052
-3.18711
-3.26019
-3.32966
-3.3966
-3.461
-3.52301
-3.58275
-3.64023
-3.69546
-3.74842
-3.7991
-3.84746
-3.8935
-3.93718
-3.97848
-4.01737
-4.05385
-4.08788
-4.11945
-4.14855
-4.17514
-4.19924
-4.22081
-4.23986
-4.25638
-4.27037
-4.28183
-4.29076
-2.92149
-3.01159
-3.0943
-3.1665
-3.23428
-3.29904
-3.36118
-3.42094
-3.47842
-3.53364
-3.58663
-3.63737
-3.68585
-3.73206
-3.77597
-3.81757
-3.85685
-3.89378
-3.92835
-3.96054
-3.99034
-4.01774
-4.04273
-4.06529
-4.08542
-4.10311
-4.11836
-4.13118
-4.14156
-4.14951
-0.68167
-0.727554
-0.776895
-0.829907
-0.887117
-0.949035
-1.01621
-1.08927
-1.16898
-1.2562
-1.35195
-1.45741
-1.57396
-1.70322
-1.84707
-2.00767
-2.18754
-2.3896
-2.61713
-2.87391
-3.16411
-3.49235
-3.86358
-4.28289
-4.75553
-5.28678
-5.87729
-6.51992
-7.26701
-8.22389
-0.753655
-0.802014
-0.853065
-0.907999
-0.967333
-1.03149
-1.10102
-1.17657
-1.2589
-1.34891
-1.44762
-1.55622
-1.67611
-1.80892
-1.95655
-2.12119
-2.30537
-2.51202
-2.74445
-3.00643
-3.30215
-3.63621
-4.01352
-4.43911
-4.91814
-5.45571
-6.05225
-6.70011
-7.45045
-8.40656
-0.826451
-0.877328
-0.930116
-0.987005
-1.0485
-1.11494
-1.18686
-1.26494
-1.34995
-1.44279
-1.54451
-1.6563
-1.77959
-1.91601
-2.06749
-2.23623
-2.42479
-2.6361
-2.87349
-3.14075
-3.44206
-3.782
-4.16544
-4.59735
-5.08275
-5.62655
-6.22886
-6.88152
-7.63438
-8.58895
-0.899999
-0.953431
-1.00798
-1.06686
-1.13055
-1.1993
-1.27365
-1.3543
-1.44203
-1.53775
-1.64251
-1.75755
-1.88428
-2.02437
-2.17974
-2.35264
-2.54562
-2.76165
-3.00406
-3.27665
-3.58359
-3.92946
-4.31907
-4.7573
-5.24906
-5.79903
-6.40705
-7.06454
-7.82058
-8.77562
-0.974248
-1.03027
-1.0866
-1.1475
-1.21342
-1.28452
-1.36134
-1.44459
-1.53508
-1.63372
-1.74158
-1.85989
-1.99011
-2.13391
-2.29323
-2.47033
-2.6678
-2.88859
-3.13608
-3.41405
-3.72667
-4.07849
-4.47429
-4.91888
-5.417
-5.97315
-6.5869
-7.24929
-8.00894
-8.96557
-1.04915
-1.10779
-1.16592
-1.22887
-1.29705
-1.37054
-1.44986
-1.53576
-1.62904
-1.73064
-1.84163
-1.96327
-2.09702
-2.24457
-2.40789
-2.58925
-2.79124
-3.01685
-3.26946
-3.55285
-3.8712
-4.22902
-4.63104
-5.082
-5.5865
-6.14885
-6.76835
-7.43571
-8.19913
-9.15786
-1.12465
-1.18593
-1.24589
-1.31091
-1.38139
-1.45729
-1.53915
-1.62772
-1.72383
-1.82842
-1.94259
-2.06759
-2.20491
-2.35626
-2.52362
-2.70928
-2.91585
-3.14632
-3.4041
-3.69295
-4.01707
-4.38092
-4.78921
-5.24655
-5.75745
-6.32603
-6.9513
-7.62368
-8.39098
-9.3521
-1.20069
-1.26463
-1.32643
-1.39355
-1.46636
-1.54471
-1.62913
-1.72041
-1.81938
-1.927
-2.04437
-2.17278
-2.31371
-2.4689
-2.64034
-2.83033
-3.04152
-3.2769
-3.53988
-3.83425
-4.16416
-4.53409
-4.94865
-5.41241
-5.92973
-6.50454
-7.13562
-7.81305
-8.58432
-9.54801
-1.27724
-1.34384
-1.40749
-1.47675
-1.55192
-1.63273
-1.71975
-1.81376
-1.91563
-2.02631
-2.14692
-2.27876
-2.42333
-2.5824
-2.75795
-2.95232
-3.16816
-3.40849
-3.67672
-3.97663
-4.31237
-4.68839
-5.10927
-5.57946
-6.10321
-6.68426
-7.32116
-8.00367
-8.77895
-9.74531
-1.35423
-1.42351
-1.48902
-1.56043
-1.63798
-1.72129
-1.81093
-1.90771
-2.01249
-2.12626
-2.25013
-2.38544
-2.53369
-2.69666
-2.87636
-3.07514
-3.29567
-3.54098
-3.81448
-4.11996
-4.46157
-4.84371
-5.27091
-5.74755
-6.27773
-6.86504
-7.50775
-8.19535
-8.97466
-9.94375
-1.43163
-1.50357
-1.57095
-1.64455
-1.7245
-1.81034
-1.90262
-2.00218
-2.1099
-2.22678
-2.35395
-2.49274
-2.6447
-2.81159
-2.99548
-3.1987
-3.42394
-3.67426
-3.95306
-4.26415
-4.61164
-4.99992
-5.43346
-5.91654
-6.45316
-7.04671
-7.69523
-8.38791
-9.17125
-10.1431
-1.50938
-1.58399
-1.65324
-1.72905
-1.81142
-1.8998
-1.99474
-2.0971
-2.20779
-2.32779
-2.45828
-2.60058
-2.75626
-2.92711
-3.1152
-3.32288
-3.55287
-3.80822
-4.09235
-4.40905
-4.76245
-5.15688
-5.59676
-6.08629
-6.62934
-7.22911
-7.88342
-8.58115
-9.3685
-10.3431
-1.58746
-1.66471
-1.73584
-1.81386
-1.89869
-1.98961
-2.08723
-2.19242
-2.30608
-2.42923
-2.56304
-2.70887
-2.8683
-3.04312
-3.23543
-3.4476
-3.68234
-3.94274
-4.23221
-4.55455
-4.91386
-5.31444
-5.76067
-6.25664
-6.8061
-7.41207
-8.07214
-8.77488
-9.56621
-10.5435
-1.66582
-1.7457
-1.8187
-1.89895
-1.98624
-2.07973
-2.18003
-2.28805
-2.4047
-2.531
-2.66816
-2.81753
-2.98071
-3.15952
-3.35606
-3.57272
-3.81225
-4.0777
-4.37253
-4.70052
-5.06574
-5.47248
-5.92504
-6.42744
-6.98327
-7.59541
-8.26119
-8.96889
-9.76416
-10.7442
-1.74444
-1.82692
-1.90177
-1.98427
-2.07402
-2.17008
-2.27307
-2.38393
-2.50357
-2.63304
-2.77353
-2.92645
-3.09339
-3.2762
-3.47698
-3.69815
-3.94246
-4.21299
-4.51318
-4.84681
-5.21795
-5.63083
-6.08971
-6.59851
-7.16069
-7.77895
-8.45039
-9.163
-9.96215
-10.9449
-1.82331
-1.90834
-1.98502
-2.06977
-2.16199
-2.26062
-2.3663
-2.47998
-2.60262
-2.73524
-2.87909
-3.03555
-3.20626
-3.39306
-3.59809
-3.82377
-4.07287
-4.34847
-4.65402
-4.99329
-5.37034
-5.78935
-6.25453
-6.76969
-7.33818
-7.9625
-8.63954
-9.35699
-10.16
-11.1454
-1.90241
-1.98993
-2.06842
-2.15542
-2.25009
-2.35128
-2.45964
-2.57615
-2.70176
-2.83754
-2.98473
-3.14473
-3.3192
-3.51
-3.71927
-3.94946
-4.20334
-4.48401
-4.79491
-5.13982
-5.52275
-5.94788
-6.41932
-6.94081
-7.51556
-8.14588
-8.82844
-9.55066
-10.3574
-11.3455
-1.98174
-2.07168
-2.15194
-2.24117
-2.33829
-2.44201
-2.55303
-2.67234
-2.80091
-2.93983
-3.09034
-3.25388
-3.4321
-3.62688
-3.84039
-4.07509
-4.33374
-4.61947
-4.93572
-5.28625
-5.67505
-6.10626
-6.58393
-7.1117
-7.69264
-8.3289
-9.01691
-9.74382
-10.5543
-11.545
-2.06132
-2.15359
-2.23556
-2.32698
-2.42651
-2.53274
-2.64638
-2.76847
-2.89998
-3.04202
-3.19584
-3.36289
-3.54484
-3.7436
-3.96134
-4.20052
-4.46394
-4.75472
-5.0763
-5.43242
-5.82707
-6.26433
-6.74818
-7.28217
-7.86924
-8.51136
-9.20473
-9.93624
-10.7503
-11.7437
-2.14117
-2.23564
-2.31924
-2.41281
-2.5147
-2.62339
-2.73962
-2.86444
-2.99886
-3.14399
-3.30109
-3.47164
-3.65731
-3.86002
-4.08197
-4.32563
-4.5938
-4.88961
-5.21649
-5.57818
-5.97864
-6.42191
-6.9119