/*--------------------------------*- C++ -*----------------------------------*\
  =========                 |
  \\      /  F ield         | OpenFOAM: The Open Source CFD Toolbox
   \\    /   O peration     | Website:  https://openfoam.org
    \\  /    A nd           | Version:  6.0
     \\/     M anipulation  |
\*---------------------------------------------------------------------------*/
FoamFile
{
    version     2.0;
    format      ascii;
    class       volVectorField;
    location    "7.5005";
    object      U;
}
// * * * * * * * * * * * * * * * * * * * * * * * * * * * * * * * * * * * * * //

dimensions      [0 1 -1 0 0 0 0];

internalField   nonuniform List<vector> 
19200
(
(0.0985496 -4.74719 -7.00103e-21)
(0.0608374 -4.33896 3.55148e-21)
(0.0668033 -4.00531 1.66153e-21)
(0.081644 -3.73306 1.47901e-21)
(0.0991895 -3.51067 1.66876e-21)
(0.120911 -3.32839 1.17726e-22)
(0.146221 -3.17824 2.40207e-21)
(0.174195 -3.05378 -1.6893e-22)
(0.204132 -2.94979 2.14531e-21)
(0.235441 -2.86206 9.10184e-22)
(0.267599 -2.78724 1.92594e-24)
(0.300161 -2.72263 1.46682e-21)
(0.332755 -2.66606 2.45068e-21)
(0.36507 -2.61581 -1.68094e-21)
(0.396853 -2.57051 2.19124e-21)
(0.427901 -2.52906 1.92508e-21)
(0.458054 -2.49059 -1.81766e-21)
(0.487189 -2.45442 3.15666e-21)
(0.515216 -2.41998 -2.01902e-21)
(0.542072 -2.38685 1.02748e-21)
(0.567719 -2.35468 1.46184e-21)
(0.592136 -2.32319 -4.73206e-22)
(0.61532 -2.29216 6.43405e-22)
(0.637277 -2.26138 -7.61296e-22)
(0.658029 -2.23067 1.81672e-24)
(0.677597 -2.19989 4.17003e-22)
(0.696012 -2.16888 -2.68556e-22)
(0.713299 -2.13751 1.70468e-22)
(0.7295 -2.10561 3.9384e-22)
(0.744624 -2.073 1.66083e-21)
(0.223088 -4.74468 -1.63905e-21)
(0.175332 -4.34271 1.10577e-20)
(0.173224 -4.01428 -5.85379e-21)
(0.181707 -3.74679 -8.05862e-21)
(0.194276 -3.52876 -3.66547e-21)
(0.212089 -3.35031 -2.66751e-21)
(0.234308 -3.20347 -5.81208e-21)
(0.259811 -3.08178 7.26401e-22)
(0.287742 -2.98006 -1.25106e-21)
(0.317385 -2.89413 -4.44006e-21)
(0.348123 -2.82067 -1.13305e-20)
(0.379437 -2.75703 5.60484e-21)
(0.410897 -2.70108 -2.0893e-21)
(0.442149 -2.65114 7.97101e-22)
(0.472908 -2.60587 -5.02582e-21)
(0.502946 -2.56422 -1.88674e-21)
(0.532086 -2.52534 2.1215e-22)
(0.560194 -2.48858 6.55035e-21)
(0.587173 -2.45342 -3.4386e-21)
(0.612956 -2.41945 -1.93067e-21)
(0.637501 -2.38635 -7.71137e-21)
(0.660788 -2.35386 1.99716e-21)
(0.682815 -2.32176 -1.28827e-21)
(0.703592 -2.28989 2.2932e-21)
(0.723141 -2.25806 -1.06294e-21)
(0.741488 -2.22613 -1.67263e-21)
(0.758663 -2.19397 5.48799e-22)
(0.7747 -2.16144 8.52807e-22)
(0.78966 -2.12836 -1.53329e-21)
(0.803517 -2.09454 8.23487e-22)
(0.347308 -4.73929 -8.10555e-22)
(0.289794 -4.34387 2.518e-21)
(0.280005 -4.02091 3.66801e-21)
(0.282462 -3.75842 2.85561e-20)
(0.290321 -3.54492 -1.66869e-20)
(0.304441 -3.37044 1.54015e-20)
(0.323743 -3.22697 9.54316e-21)
(0.346912 -3.10809 7.52532e-21)
(0.372939 -3.00864 -7.36767e-21)
(0.40099 -2.92449 -9.01921e-22)
(0.430355 -2.85236 1.89975e-20)
(0.460445 -2.78964 3.25575e-21)
(0.490773 -2.73425 -8.91765e-21)
(0.520947 -2.68456 7.11927e-21)
(0.550651 -2.63927 -9.29155e-23)
(0.579636 -2.59735 3.11892e-21)
(0.60771 -2.55801 2.33686e-21)
(0.63473 -2.52062 7.84771e-21)
(0.660593 -2.48469 -3.48752e-21)
(0.685228 -2.44984 -1.1553e-21)
(0.708595 -2.41578 -3.14085e-21)
(0.730675 -2.38225 1.39618e-20)
(0.751467 -2.34908 -1.1726e-20)
(0.770985 -2.3161 3.88479e-21)
(0.789254 -2.28315 1.82817e-21)
(0.806305 -2.2501 -7.32602e-21)
(0.822167 -2.2168 9.8957e-21)
(0.836882 -2.18313 -1.09327e-21)
(0.850533 -2.14891 -1.14033e-21)
(0.863051 -2.11393 -8.27478e-21)
(0.471365 -4.73092 -2.64499e-20)
(0.404376 -4.34243 -2.43557e-20)
(0.387204 -4.02523 -3.018e-20)
(0.383919 -3.76795 1.03934e-21)
(0.387316 -3.55914 1.78232e-21)
(0.397952 -3.38871 -3.50318e-20)
(0.414506 -3.24867 1.53381e-21)
(0.435473 -3.13262 4.58871e-21)
(0.459696 -3.03543 -7.70121e-22)
(0.486223 -2.95303 8.20574e-21)
(0.514257 -2.88219 -3.30572e-20)
(0.543139 -2.82034 -2.11182e-20)
(0.572333 -2.76546 7.8297e-21)
(0.601407 -2.71596 1.60647e-20)
(0.63002 -2.67059 -1.883e-20)
(0.657903 -2.62835 -3.04151e-21)
(0.684853 -2.5885 -1.14174e-20)
(0.710718 -2.55043 -5.52279e-21)
(0.735392 -2.5137 9.30561e-21)
(0.758804 -2.47793 -1.20864e-20)
(0.780915 -2.44287 1.05743e-20)
(0.801708 -2.4083 -1.26431e-20)
(0.821186 -2.37404 -1.01558e-20)
(0.839367 -2.33995 -7.29898e-21)
(0.856281 -2.30588 -2.15822e-21)
(0.87196 -2.27172 -1.53799e-20)
(0.886438 -2.23731 1.58269e-21)
(0.899764 -2.20254 2.82533e-21)
(0.91204 -2.16721 -8.28457e-21)
(0.923152 -2.13112 1.74436e-21)
(0.595227 -4.71947 -1.60722e-20)
(0.519083 -4.33837 2.29957e-21)
(0.494824 -4.02722 2.11292e-20)
(0.486072 -3.77535 2.25697e-20)
(0.485249 -3.57136 1.6281e-20)
(0.492604 -3.40507 6.73636e-21)
(0.506575 -3.2685 1.06198e-20)
(0.525468 -3.15527 4.98816e-20)
(0.547979 -3.06033 -3.01015e-20)
(0.573046 -2.97965 8.00512e-22)
(0.599783 -2.91005 7.36529e-21)
(0.627468 -2.84902 3.27792e-20)
(0.655517 -2.7946 -2.26834e-20)
(0.683465 -2.74523 1.6572e-20)
(0.710944 -2.69971 -1.87955e-20)
(0.737672 -2.65711 3.23885e-20)
(0.763433 -2.61669 -9.72462e-21)
(0.788073 -2.57791 3.17607e-22)
(0.811483 -2.54032 1.61488e-20)
(0.833593 -2.50362 1.14196e-20)
(0.854368 -2.46754 -1.1744e-20)
(0.873793 -2.43191 1.6078e-20)
(0.891879 -2.39656 -7.495e-21)
(0.908645 -2.36136 8.62128e-21)
(0.924128 -2.3262 1.16201e-20)
(0.938365 -2.29093 4.32044e-21)
(0.95139 -2.25545 1.32607e-20)
(0.963262 -2.21961 -4.60957e-21)
(0.974103 -2.18323 -1.60037e-21)
(0.983749 -2.14609 -8.0595e-21)
(0.71883 -4.70495 -1.18641e-20)
(0.633883 -4.33164 -8.0233e-21)
(0.602844 -4.02683 -2.44364e-20)
(0.588901 -3.78057 -6.40774e-20)
(0.584099 -3.58152 2.17068e-20)
(0.588374 -3.41944 1.41003e-21)
(0.599922 -3.28636 -1.51933e-20)
(0.616863 -3.17597 3.31764e-21)
(0.63775 -3.08325 -2.07416e-21)
(0.661412 -3.00425 -4.07736e-20)
(0.68688 -2.93584 1.73005e-20)
(0.713373 -2.87557 3.03368e-20)
(0.740261 -2.82154 1.47573e-22)
(0.767048 -2.77225 1.16129e-20)
(0.793346 -2.72653 2.91222e-20)
(0.818859 -2.68351 -2.02054e-20)
(0.843364 -2.64248 3.61339e-20)
(0.866704 -2.60294 -1.73802e-20)
(0.888771 -2.56448 3.15462e-20)
(0.909499 -2.52681 -2.37418e-20)
(0.928855 -2.48971 1.07933e-20)
(0.946833 -2.45301 2.87847e-20)
(0.963446 -2.41656 1.82368e-21)
(0.978724 -2.38027 -2.69514e-20)
(0.992704 -2.34402 1.53983e-20)
(1.00543 -2.30769 1.88043e-21)
(1.01694 -2.27117 -4.98586e-21)
(1.02729 -2.23432 1.94399e-20)
(1.03664 -2.19693 6.90943e-21)
(1.04477 -2.15882 -6.9877e-21)
(0.842103 -4.68735 3.31828e-20)
(0.748731 -4.32223 -1.1829e-21)
(0.711232 -4.02403 -5.04614e-20)
(0.692379 -3.78356 1.0116e-20)
(0.683839 -3.58956 -1.45879e-20)
(0.685232 -3.43175 1.05732e-20)
(0.694512 -3.30217 2.42164e-20)
(0.709619 -3.1946 4.47416e-20)
(0.728964 -3.10407 -4.91155e-20)
(0.75127 -3.0267 1.21214e-20)
(0.775491 -2.95943 -8.79206e-21)
(0.800788 -2.89987 6.58491e-21)
(0.826493 -2.84618 -2.89486e-20)
(0.852079 -2.7969 -1.82274e-21)
(0.877143 -2.75094 4.86521e-20)
(0.901376 -2.70745 -3.35732e-20)
(0.924554 -2.66577 -2.15011e-20)
(0.946517 -2.62544 -1.60189e-20)
(0.96716 -2.58608 2.95853e-20)
(0.986423 -2.54743 6.54056e-21)
(1.00428 -2.50929 -2.96507e-20)
(1.02073 -2.47152 4.03038e-20)
(1.03579 -2.434 -3.64952e-20)
(1.0495 -2.39663 2.46811e-20)
(1.06191 -2.35932 -1.39399e-20)
(1.07306 -2.32196 9.34224e-21)
(1.08299 -2.28444 7.09989e-21)
(1.09178 -2.24662 -3.15027e-20)
(1.09958 -2.20829 1.37535e-20)
(1.10613 -2.16927 3.16937e-22)
(0.964974 -4.66666 -3.30988e-20)
(0.863577 -4.31011 2.78083e-20)
(0.819949 -4.01878 -5.25598e-20)
(0.796472 -3.78426 1.01123e-19)
(0.784436 -3.59541 -2.86915e-20)
(0.783142 -3.4419 4.16359e-20)
(0.790308 -3.31585 1.41791e-22)
(0.803691 -3.21107 -5.58663e-21)
(0.821569 -3.1227 -8.91383e-21)
(0.842561 -3.04691 -2.14815e-22)
(0.86555 -2.98072 -3.53294e-20)
(0.889643 -2.92181 1.83088e-20)
(0.914134 -2.86839 -2.28449e-20)
(0.938474 -2.81908 -1.7712e-21)
(0.962245 -2.77282 -6.58046e-20)
(0.985131 -2.72882 2.15242e-20)
(1.00691 -2.68646 1.29813e-20)
(1.02741 -2.64531 -1.44971e-20)
(1.04655 -2.60504 -1.66869e-21)
(1.06426 -2.5654 -2.32232e-20)
(1.08053 -2.52622 -8.46819e-21)
(1.09537 -2.48739 8.72096e-22)
(1.10881 -2.44881 -2.10215e-20)
(1.12088 -2.41038 -3.15802e-20)
(1.13165 -2.37205 1.27081e-21)
(1.14116 -2.3337 -3.49984e-21)
(1.14945 -2.29523 1.0307e-20)
(1.15662 -2.2565 -2.57201e-20)
(1.16284 -2.21729 2.20996e-20)
(1.16778 -2.17744 -4.51151e-20)
(1.08737 -4.64289 -8.36174e-20)
(0.978364 -4.29527 1.04432e-19)
(0.928952 -4.01105 -1.12092e-19)
(0.901143 -3.78262 -3.03777e-20)
(0.885852 -3.599 -2.01581e-20)
(0.882065 -3.44984 -2.18873e-20)
(0.887264 -3.3273 -2.0246e-20)
(0.899029 -3.22529 -4.28774e-21)
(0.915507 -3.13903 -2.08724e-20)
(0.935222 -3.06477 -5.18802e-21)
(0.956986 -2.9996 3.70549e-20)
(0.979858 -2.94128 -2.11242e-20)
(1.0031 -2.88809 -2.60745e-20)
(1.02614 -2.83869 -4.47354e-20)
(1.04856 -2.79209 9.48643e-20)
(1.07002 -2.74753 -3.71719e-20)
(1.09032 -2.70447 1.39885e-20)
(1.10928 -2.66248 -5.30525e-20)
(1.12683 -2.62127 2.02668e-20)
(1.14291 -2.58064 -8.70778e-21)
(1.15752 -2.54044 1.07025e-20)
(1.17067 -2.50056 -4.0867e-21)
(1.1824 -2.46093 3.5526e-20)
(1.19276 -2.42149 -1.27794e-20)
(1.20182 -2.38217 3.544e-20)
(1.20963 -2.34288 -7.01934e-21)
(1.21624 -2.30352 4.70007e-20)
(1.22175 -2.26394 1.32188e-20)
(1.22634 -2.22393 2.51625e-20)
(1.22962 -2.18332 -8.15517e-20)
(1.20922 -4.61605 1.32607e-19)
(1.09303 -4.27769 -2.63401e-20)
(1.03819 -4.00079 4.7682e-20)
(1.00635 -3.77859 -1.41695e-20)
(0.988044 -3.60026 4.96564e-20)
(0.981954 -3.45546 4.79582e-20)
(0.985328 -3.33643 5.54927e-20)
(0.995575 -3.23716 -4.82172e-21)
(1.01072 -3.15296 -5.48972e-20)
(1.02918 -3.08017 8.12016e-20)
(1.04972 -3.01597 -6.78205e-21)
(1.07135 -2.95818 5.9584e-20)
(1.0933 -2.90515 2.19363e-20)
(1.11499 -2.85561 7.95039e-21)
(1.13598 -2.80863 1.3649e-20)
(1.15595 -2.7635 1.83555e-20)
(1.17468 -2.71969 3.13899e-20)
(1.19202 -2.67685 -9.22146e-21)
(1.20789 -2.63471 4.73868e-20)
(1.22226 -2.59309 2.2381e-20)
(1.23512 -2.55188 -4.70819e-20)
(1.2465 -2.51098 8.42703e-20)
(1.25646 -2.47034 -1.12656e-19)
(1.26505 -2.42991 1.08107e-19)
(1.27234 -2.38965 -3.61219e-20)
(1.2784 -2.34947 6.83165e-21)
(1.28327 -2.30928 -4.88849e-20)
(1.28707 -2.26893 2.73721e-20)
(1.29001 -2.22818 1.00892e-20)
(1.2916 -2.18691 -1.28327e-20)
(1.33044 -4.58614 -7.69905e-20)
(1.20753 -4.25735 7.83058e-20)
(1.14762 -3.98797 -2.15443e-20)
(1.11203 -3.77212 6.30317e-20)
(1.09096 -3.59914 6.01538e-21)
(1.08276 -3.45871 1.44553e-20)
(1.08444 -3.34315 -1.12595e-19)
(1.09327 -3.24658 -1.98904e-20)
(1.10712 -3.16439 7.49817e-20)
(1.12436 -3.09302 5.89884e-20)
(1.14367 -3.02972 -1.00987e-19)
(1.16403 -2.9724 5.99736e-20)
(1.18465 -2.91948 -6.06729e-20)
(1.20492 -2.86977 4.31391e-20)
(1.22441 -2.82237 -7.21323e-20)
(1.24281 -2.77662 -5.49734e-20)
(1.25989 -2.73207 3.20421e-21)
(1.27552 -2.68837 -2.61633e-20)
(1.28963 -2.6453 4.66784e-20)
(1.3022 -2.6027 1.86433e-20)
(1.31323 -2.56049 -1.23698e-20)
(1.32277 -2.5186 -3.79263e-21)
(1.33088 -2.47699 1.52482e-20)
(1.33763 -2.43563 -5.07222e-20)
(1.34309 -2.39447 8.62978e-20)
(1.34735 -2.35346 -2.09262e-20)
(1.35045 -2.31251 -1.84203e-21)
(1.3525 -2.27145 7.77684e-20)
(1.35375 -2.23005 1.08249e-20)
(1.35364 -2.1882 -1.12898e-20)
(1.45096 -4.55317 2.09615e-21)
(1.32179 -4.23423 -4.33718e-20)
(1.25718 -3.97255 -4.12552e-20)
(1.21815 -3.76314 -6.78641e-20)
(1.19455 -3.59555 1.81701e-21)
(1.18442 -3.45949 -5.08179e-20)
(1.18455 -3.34738 6.05804e-20)
(1.19204 -3.25346 -5.322e-21)
(1.20466 -3.17322 5.20479e-20)
(1.22069 -3.1032 -4.23102e-20)
(1.23875 -3.04074 -2.26681e-20)
(1.2578 -2.98385 1.24882e-20)
(1.27703 -2.931 6.84138e-21)
(1.29582 -2.88106 -7.21051e-20)
(1.31375 -2.83321 4.31429e-20)
(1.33049 -2.78684 -2.23097e-20)
(1.34584 -2.74152 6.27472e-20)
(1.35967 -2.69696 -2.11038e-20)
(1.37193 -2.65296 2.25069e-20)
(1.38261 -2.60941 5.48667e-21)
(1.39174 -2.56623 3.90277e-20)
(1.39936 -2.52339 -7.97835e-21)
(1.40555 -2.48085 6.56514e-20)
(1.4104 -2.43861 -7.32261e-20)
(1.41399 -2.39662 -2.50285e-20)
(1.4164 -2.35484 2.08612e-20)
(1.41768 -2.31319 -1.65854e-21)
(1.41797 -2.27151 -3.7245e-20)
(1.4175 -2.22955 3.05643e-20)
(1.41567 -2.18721 -3.73018e-20)
(1.57071 -4.51716 1.32494e-19)
(1.43575 -4.20832 3.80395e-20)
(1.36681 -3.9545 4.49638e-20)
(1.32465 -3.75161 6.2898e-20)
(1.29876 -3.58943 9.49128e-20)
(1.28687 -3.45772 -2.33903e-21)
(1.28558 -3.34903 1.37224e-20)
(1.29181 -3.25771 1.1264e-19)
(1.30324 -3.17936 -2.29635e-20)
(1.31806 -3.11063 -4.24638e-20)
(1.33487 -3.04896 7.69657e-20)
(1.35257 -2.99243 1.35785e-20)
(1.37034 -2.9396 9.89654e-22)
(1.38759 -2.88941 1.89749e-20)
(1.40386 -2.84108 3.52613e-20)
(1.41886 -2.79406 -7.37685e-20)
(1.43239 -2.74798 6.34475e-20)
(1.44435 -2.70256 1.11483e-20)
(1.45468 -2.65766 6.39941e-20)
(1.46339 -2.61318 -3.45462e-20)
(1.47053 -2.56907 5.87564e-20)
(1.47616 -2.52531 -6.281e-20)
(1.48038 -2.4819 6.17297e-20)
(1.48327 -2.43883 8.90643e-21)
(1.48492 -2.39608 -4.19171e-20)
(1.48544 -2.35361 -1.40836e-20)
(1.48488 -2.31134 8.29583e-20)
(1.48337 -2.26912 6.08867e-20)
(1.48118 -2.22667 1.64975e-20)
(1.47762 -2.18395 -1.19147e-20)
(1.68961 -4.47812 1.41835e-20)
(1.54934 -4.17961 3.35848e-20)
(1.47645 -3.93378 1.35769e-19)
(1.43146 -3.73747 -2.23183e-19)
(1.40352 -3.58071 -2.25021e-20)
(1.39006 -3.45334 -2.41743e-20)
(1.38746 -3.34802 1.12148e-20)
(1.3925 -3.25923 1.62205e-20)
(1.40277 -3.18271 2.64031e-20)
(1.41639 -3.1152 -7.07975e-20)
(1.43191 -3.05426 -1.4534e-20)
(1.44822 -2.99805 4.1593e-20)
(1.46449 -2.9452 4.59318e-20)
(1.48011 -2.89472 -4.54167e-20)
(1.49465 -2.8459 -4.60703e-20)
(1.50783 -2.79823 7.50796e-20)
(1.51945 -2.75138 5.04133e-20)
(1.52944 -2.70513 -1.23091e-20)
(1.53775 -2.65935 -3.25738e-20)
(1.54442 -2.61397 6.46213e-21)
(1.5495 -2.56897 -7.79592e-20)
(1.55308 -2.52435 9.54297e-20)
(1.55525 -2.48012 -6.5719e-20)
(1.55612 -2.43629 -2.93118e-21)
(1.5558 -2.39285 4.46098e-20)
(1.55439 -2.34975 -1.38697e-20)
(1.55195 -2.30695 -4.25911e-20)
(1.54863 -2.26427 5.29038e-20)
(1.54471 -2.22143 -1.36425e-21)
(1.53941 -2.17843 9.69716e-21)
(1.80758 -4.43605 -9.70241e-21)
(1.6625 -4.14808 -3.4064e-20)
(1.58605 -3.91035 -1.5779e-19)
(1.53853 -3.72068 5.73007e-20)
(1.50877 -3.56934 -1.78565e-20)
(1.4939 -3.44626 6.00635e-20)
(1.4901 -3.34426 4.77048e-21)
(1.49403 -3.25794 -7.10178e-20)
(1.50317 -3.18318 1.1001e-19)
(1.51558 -3.11684 -1.00189e-19)
(1.52978 -3.05657 -4.36772e-21)
(1.54464 -3.00063 2.55109e-20)
(1.55934 -2.94772 -4.3813e-20)
(1.57326 -2.89694 5.16719e-20)
(1.58599 -2.84761 -9.88529e-20)
(1.59725 -2.79929 -2.3034e-20)
(1.60689 -2.75169 6.14766e-20)
(1.61482 -2.70462 8.2935e-23)
(1.62104 -2.65799 -4.02018e-20)
(1.62558 -2.61175 1.10473e-19)
(1.62853 -2.56591 -5.95716e-20)
(1.62998 -2.52048 -8.09982e-20)
(1.63005 -2.4755 2.7224e-20)
(1.62886 -2.43098 -8.05544e-20)
(1.62652 -2.38691 -1.97824e-20)
(1.62315 -2.34328 -2.60652e-21)
(1.61881 -2.30003 -5.44525e-20)
(1.61366 -2.25698 6.52696e-20)
(1.608 -2.21384 -3.66943e-20)
(1.60097 -2.17065 4.33044e-20)
(1.92456 -4.39099 -4.90869e-20)
(1.77515 -4.11373 -1.40544e-19)
(1.69553 -3.8842 6.92752e-20)
(1.64579 -3.70118 -6.764e-20)
(1.61444 -3.55524 -4.9865e-20)
(1.59833 -3.43642 -2.95857e-20)
(1.59344 -3.33767 -1.10679e-19)
(1.59631 -3.25376 7.62845e-20)
(1.60433 -3.1807 -1.91534e-19)
(1.61552 -3.11546 -7.14389e-20)
(1.62837 -3.05581 2.53792e-20)
(1.64173 -3.00009 4.35819e-20)
(1.65478 -2.9471 -5.09199e-22)
(1.66693 -2.89598 -8.55996e-20)
(1.67776 -2.84614 2.03227e-20)
(1.68703 -2.79718 -8.06729e-20)
(1.69458 -2.74884 -5.87527e-20)
(1.70037 -2.70098 -3.60221e-20)
(1.70441 -2.65354 -7.47941e-21)
(1.70676 -2.60649 6.19646e-20)
(1.7075 -2.55986 8.97472e-20)
(1.70677 -2.51369 -2.72548e-20)
(1.70468 -2.46802 -2.69591e-20)
(1.70137 -2.42288 5.22245e-20)
(1.69698 -2.37828 2.91673e-20)
(1.69162 -2.3342 -2.3373e-20)
(1.68536 -2.29058 -2.65385e-20)
(1.67838 -2.24727 2.9893e-21)
(1.67098 -2.20393 2.79257e-20)
(1.66223 -2.16066 3.85779e-20)
(2.04045 -4.34294 -9.40123e-21)
(1.88724 -4.07654 1.80466e-19)
(1.80482 -3.85528 1.4148e-19)
(1.75316 -3.67893 1.10974e-19)
(1.72045 -3.53837 -7.3077e-20)
(1.70325 -3.42374 -1.46809e-20)
(1.69738 -3.32817 1.29623e-20)
(1.69924 -3.2466 9.81539e-20)
(1.70616 -3.17517 3.73197e-20)
(1.71611 -3.11097 9.18102e-20)
(1.72756 -3.05189 -1.30472e-19)
(1.73936 -2.99636 1.30363e-20)
(1.7507 -2.94326 5.4263e-20)
(1.76098 -2.8918 3.42374e-20)
(1.76983 -2.84145 7.22263e-20)
(1.77702 -2.79185 -4.9352e-20)
(1.78241 -2.7428 -4.65404e-20)
(1.78598 -2.69419 8.60114e-21)
(1.78776 -2.64597 1.02017e-19)
(1.78783 -2.59817 -1.65623e-19)
(1.78631 -2.55081 5.80584e-20)
(1.78333 -2.50396 -4.09894e-22)
(1.77903 -2.45768 1.12636e-19)
(1.77357 -2.412 -4.87412e-20)
(1.76709 -2.36695 -2.57831e-21)
(1.7597 -2.32251 -3.19096e-20)
(1.75151 -2.27863 3.04741e-20)
(1.74268 -2.23515 7.50931e-21)
(1.73355 -2.1917 -3.45338e-20)
(1.72311 -2.14847 1.1775e-19)
(2.1552 -4.29193 -1.83288e-19)
(1.99869 -4.03651 -1.10316e-19)
(1.91387 -3.82357 -2.85719e-19)
(1.86058 -3.65388 -1.3232e-19)
(1.82672 -3.51865 1.24705e-19)
(1.80859 -3.40816 -7.47703e-20)
(1.80182 -3.3157 -1.92513e-20)
(1.80272 -3.23639 -5.0938e-20)
(1.80855 -3.16652 8.77872e-20)
(1.81723 -3.10331 -2.0814e-20)
(1.82723 -3.04475 -3.27362e-20)
(1.83741 -2.98937 -4.05741e-21)
(1.84696 -2.93614 -1.36575e-19)
(1.8553 -2.88434 -6.3414e-21)
(1.86209 -2.83348 3.65086e-20)
(1.8671 -2.78327 -4.57297e-21)
(1.87025 -2.73354 -1.47282e-19)
(1.87152 -2.68421 1.44674e-19)
(1.87096 -2.63528 -1.43833e-19)
(1.86869 -2.58677 5.66728e-20)
(1.86484 -2.53875 8.10796e-21)
(1.85955 -2.4913 3.15469e-21)
(1.853 -2.44448 -6.16015e-20)
(1.84533 -2.39834 2.11562e-20)
(1.83673 -2.35292 -8.99091e-24)
(1.82731 -2.30822 7.12141e-21)
(1.81716 -2.26418 -1.5963e-19)
(1.80649 -2.22063 4.31349e-20)
(1.79564 -2.1772 4.69112e-20)
(1.78352 -2.1341 5.31982e-20)
(2.26871 -4.23797 3.59906e-19)
(2.10942 -3.99364 1.28003e-19)
(2.02259 -3.78904 7.61293e-20)
(1.96797 -3.626 1.21429e-19)
(1.93318 -3.49604 -1.52158e-20)
(1.91426 -3.38961 9.4487e-20)
(1.90668 -3.30019 2.12607e-19)
(1.90665 -3.22306 -2.68049e-20)
(1.91137 -3.15468 1.31146e-20)
(1.91877 -3.0924 2.61516e-19)
(1.92727 -3.03432 -3.45634e-20)
(1.93576 -2.97907 3.76725e-20)
(1.94343 -2.92569 -1.42532e-20)
(1.94976 -2.87354 -2.06497e-21)
(1.95439 -2.8222 2.00307e-19)
(1.95715 -2.7714 7.70092e-21)
(1.95797 -2.72103 2.18132e-19)
(1.95686 -2.67103 -2.7144e-20)
(1.95391 -2.62144 -4.83287e-20)
(1.94923 -2.57229 1.1357e-19)
(1.94298 -2.52368 -1.04785e-19)
(1.93534 -2.47569 1.15841e-19)
(1.92647 -2.42841 6.3108e-20)
(1.91657 -2.3819 -5.16059e-20)
(1.90581 -2.33621 7.90448e-20)
(1.89433 -2.29133 9.48086e-21)
(1.88223 -2.24724 -3.38854e-20)
(1.86971 -2.20373 1.79334e-20)
(1.85715 -2.16041 1.21729e-19)
(1.84337 -2.11757 1.90028e-20)
(2.38092 -4.18109 -6.19945e-20)
(2.21936 -3.94791 -1.29648e-19)
(2.13091 -3.75167 5.46601e-20)
(2.07525 -3.59523 -2.19243e-19)
(2.03974 -3.47048 1.05984e-19)
(2.02016 -3.36803 -1.96054e-19)
(2.01184 -3.28156 -1.31069e-19)
(2.01091 -3.20654 3.69829e-20)
(2.01453 -3.13958 3.77669e-20)
(2.02059 -3.07818 -1.81314e-19)
(2.02755 -3.02054 -7.96046e-20)
(2.03428 -2.96539 3.74604e-20)
(2.04 -2.91186 -1.03214e-19)
(2.04422 -2.85938 -4.16356e-20)
(2.04662 -2.80756 -2.83202e-20)
(2.04705 -2.75622 -2.85591e-20)
(2.04546 -2.70524 -1.21842e-19)
(2.0419 -2.65464 -7.7215e-20)
(2.03647 -2.60444 1.36208e-20)
(2.02932 -2.55472 2.55405e-20)
(2.02062 -2.50559 2.7786e-20)
(2.01057 -2.45714 -9.60223e-20)
(1.99936 -2.40948 3.65252e-20)
(1.98719 -2.36268 -7.56496e-20)
(1.97424 -2.3168 7.21012e-20)
(1.96067 -2.27186 -9.49317e-20)
(1.9466 -2.2278 3.02802e-20)
(1.93224 -2.18444 -4.71583e-20)
(1.91799 -2.14137 -6.77253e-20)
(1.9026 -2.09891 -6.95827e-21)
(2.49175 -4.12133 -1.32419e-19)
(2.32844 -3.89934 -1.18274e-19)
(2.23877 -3.71145 -1.16992e-19)
(2.18235 -3.56156 -8.83616e-20)
(2.14631 -3.44193 2.73064e-19)
(2.1262 -3.34336 3.9136e-20)
(2.11721 -3.25975 1.19838e-19)
(2.1154 -3.18677 1.85625e-19)
(2.1179 -3.12116 9.06743e-20)
(2.12259 -3.06059 -1.21145e-19)
(2.12793 -3.00335 1.98511e-19)
(2.13283 -2.9483 -1.94265e-19)
(2.13653 -2.89462 1.85893e-19)
(2.13856 -2.84181 2.23998e-20)
(2.13865 -2.78955 4.83792e-20)
(2.13666 -2.73769 1.60138e-20)
(2.13259 -2.68617 1.99418e-19)
(2.12651 -2.63501 -2.98098e-20)
(2.11854 -2.58427 2.72061e-20)
(2.10887 -2.53406 9.21036e-20)
(2.09767 -2.48448 -1.03344e-19)
(2.08516 -2.43565 8.31518e-20)
(2.07156 -2.38769 3.3893e-21)
(2.05708 -2.34069 3.82565e-20)
(2.04192 -2.29471 7.05069e-20)
(2.02625 -2.24978 -1.20118e-20)
(2.01019 -2.20587 7.05837e-20)
(1.99399 -2.16279 1.03092e-19)
(1.97807 -2.12006 -1.12014e-19)
(1.96109 -2.07812 -6.9518e-20)
(2.60113 -4.05869 3.90607e-19)
(2.43659 -3.84792 -4.4206e-20)
(2.34608 -3.66834 9.1434e-20)
(2.28919 -3.52493 1.69311e-19)
(2.25281 -3.41033 -4.93233e-19)
(2.23227 -3.31555 5.43104e-20)
(2.22267 -3.23472 -1.92201e-19)
(2.21999 -3.16368 1.95311e-19)
(2.22134 -3.09938 -1.56501e-19)
(2.22462 -3.03958 8.56513e-20)
(2.22829 -2.98273 -3.13426e-19)
(2.23128 -2.92775 8.56443e-21)
(2.23289 -2.87392 -1.0641e-19)
(2.23265 -2.82081 1.62046e-19)
(2.23034 -2.76815 -1.73458e-19)
(2.22587 -2.71582 -9.17871e-21)
(2.21924 -2.66381 -1.43438e-19)
(2.21058 -2.61216 -1.22751e-20)
(2.20002 -2.56095 1.23403e-20)
(2.18776 -2.51031 3.2759e-20)
(2.17402 -2.46036 -1.8523e-19)
(2.15901 -2.41123 -5.777e-21)
(2.14299 -2.36305 -1.05012e-19)
(2.12616 -2.31592 -2.45817e-20)
(2.10875 -2.26993 -6.52379e-20)
(2.09095 -2.22511 -7.18314e-20)
(2.0729 -2.18145 -7.55401e-20)
(2.05486 -2.13875 1.25045e-19)
(2.03727 -2.0965 3.388e-20)
(2.01875 -2.0552 -6.74949e-20)
(2.70897 -3.99322 -2.60672e-19)
(2.54374 -3.79366 9.78681e-20)
(2.45277 -3.62235 -1.69136e-19)
(2.39568 -3.48532 2.51753e-20)
(2.35914 -3.37564 2.82123e-19)
(2.33828 -3.28455 -1.4423e-19)
(2.3281 -3.20639 -1.54973e-19)
(2.32456 -3.13723 -1.32348e-19)
(2.32475 -3.07416 6.00514e-21)
(2.32656 -3.01511 8.66875e-20)
(2.32849 -2.95862 -6.39903e-20)
(2.32951 -2.90371 2.26667e-21)
(2.32893 -2.84976 2.02706e-19)
(2.32636 -2.79637 -1.03402e-19)
(2.32158 -2.74334 2.77137e-20)
(2.31454 -2.6906 -8.55428e-20)
(2.3053 -2.63816 3.2852e-20)
(2.29399 -2.58608 7.16409e-20)
(2.28079 -2.53448 8.25081e-20)
(2.2659 -2.48349 -9.06902e-20)
(2.24957 -2.43324 1.2968e-20)
(2.23203 -2.38389 7.90137e-20)
(2.21354 -2.33556 1.37993e-19)
(2.19434 -2.28839 3.72111e-20)
(2.17466 -2.24246 -1.44308e-19)
(2.15471 -2.19783 1.69082e-19)
(2.13464 -2.15451 -8.49826e-20)
(2.11474 -2.1123 -1.0237e-19)
(2.09551 -2.07066 -6.31455e-20)
(2.07548 -2.03013 -8.73995e-20)
(2.81521 -3.92495 1.39856e-19)
(2.64982 -3.73658 -1.13182e-19)
(2.55879 -3.57345 4.34061e-20)
(2.50175 -3.44269 2.3405e-19)
(2.46521 -3.33782 6.46795e-20)
(2.44412 -3.2503 -5.58021e-20)
(2.4334 -3.17473 1.36201e-19)
(2.42899 -3.10737 3.14726e-20)
(2.42797 -3.04549 1.32524e-19)
(2.42826 -2.98714 7.36108e-20)
(2.42839 -2.931 3.37828e-21)
(2.42736 -2.87617 4.7465e-20)
(2.42454 -2.8221 -1.51106e-20)
(2.41954 -2.76847 2.66e-20)
(2.41223 -2.71513 7.51877e-20)
(2.40257 -2.66203 -4.1676e-20)
(2.39065 -2.60922 1.04219e-19)
(2.37664 -2.5568 1.06749e-19)
(2.36075 -2.50488 -1.2252e-19)
(2.3432 -2.45361 1.26555e-19)
(2.32424 -2.40315 2.71558e-19)
(2.30415 -2.35364 -1.76554e-19)
(2.28317 -2.30524 1.79182e-19)
(2.26156 -2.25808 -1.25874e-19)
(2.23957 -2.21228 -1.81251e-20)
(2.21743 -2.16791 1.37625e-19)
(2.19532 -2.12502 -2.78267e-20)
(2.17354 -2.0834 1.04619e-19)
(2.15266 -2.04249 1.04757e-19)
(2.13116 -2.00289 -2.10578e-19)
(2.91978 -3.8539 -1.35256e-19)
(2.75478 -3.67669 6.46502e-20)
(2.66406 -3.52163 2.68294e-20)
(2.60731 -3.39701 -2.75378e-19)
(2.57091 -3.29681 -1.44696e-19)
(2.54966 -3.21276 1.10098e-19)
(2.53843 -3.13968 -3.10026e-19)
(2.53314 -3.07405 3.78978e-19)
(2.53088 -3.01331 -2.14872e-19)
(2.5296 -2.95565 2.57928e-20)
(2.52787 -2.89984 -4.07674e-20)
(2.52472 -2.8451 -1.27213e-19)
(2.51956 -2.79095 2.65583e-19)
(2.51208 -2.73712 1.01904e-19)
(2.50216 -2.68351 -1.05556e-19)
(2.48982 -2.63012 3.06525e-21)
(2.47518 -2.57702 6.0342e-20)
(2.45843 -2.52432 -1.31467e-19)
(2.4398 -2.47217 2.80578e-20)
(2.41956 -2.42071 9.25917e-20)
(2.39796 -2.3701 -3.84371e-20)
(2.37528 -2.32052 6.48697e-20)
(2.35179 -2.2721 -1.28199e-19)
(2.32775 -2.22502 1.87129e-19)
(2.30343 -2.17939 4.44268e-20)
(2.27907 -2.13533 -1.19798e-19)
(2.25487 -2.09291 -1.04705e-19)
(2.23118 -2.05197 3.42027e-23)
(2.20863 -2.0119 1.45976e-19)
(2.18567 -1.97338 -3.55874e-20)
(3.02263 -3.78011 -3.71734e-20)
(2.85858 -3.61399 -2.72734e-19)
(2.76853 -3.46687 3.27693e-19)
(2.71229 -3.34823 2.24636e-19)
(2.67614 -3.25258 2.27528e-19)
(2.65479 -3.17188 6.49366e-20)
(2.64306 -3.10121 9.76717e-20)
(2.63687 -3.03725 5.06991e-20)
(2.63333 -2.97761 -2.01999e-19)
(2.63043 -2.9206 3.73209e-19)
(2.62676 -2.86513 -3.05387e-19)
(2.62142 -2.8105 -2.06271e-20)
(2.61388 -2.7563 4.53951e-20)
(2.60384 -2.70232 -2.03961e-19)
(2.59126 -2.64851 1.79682e-19)
(2.57618 -2.5949 -5.40075e-20)
(2.55877 -2.54159 -1.40177e-19)
(2.53924 -2.4887 5.48703e-20)
(2.51787 -2.43638 -1.05673e-19)
(2.49491 -2.38481 -9.40659e-20)
(2.47065 -2.33414 -1.01619e-19)
(2.44538 -2.28454 2.31955e-20)
(2.41936 -2.23618 1.37969e-20)
(2.39289 -2.1892 -2.54001e-19)
(2.36621 -2.14378 -9.75815e-20)
(2.3396 -2.10004 6.28311e-20)
(2.31325 -2.05812 7.88067e-20)
(2.28759 -2.0179 -1.09118e-19)
(2.26332 -1.97876 -4.19306e-20)
(2.23891 -1.94147 4.22584e-21)
(3.12373 -3.70361 -3.21453e-20)
(2.96119 -3.54848 1.76509e-19)
(2.87214 -3.40914 -5.03942e-20)
(2.81658 -3.29633 -6.22653e-20)
(2.78079 -3.20508 -3.54591e-19)
(2.75938 -3.12763 -7.90687e-20)
(2.74715 -3.05929 1.51939e-19)
(2.74004 -2.99694 -1.01391e-19)
(2.73519 -2.93835 -1.10161e-20)
(2.7306 -2.882 -2.02837e-20)
(2.72494 -2.82687 1.15722e-19)
(2.71735 -2.77238 -1.84306e-19)
(2.70734 -2.71817 -1.24692e-19)
(2.69469 -2.6641 1.47672e-19)
(2.67939 -2.61016 -8.50362e-20)
(2.66153 -2.5564 -1.03365e-19)
(2.64131 -2.50295 2.22359e-19)
(2.61899 -2.44996 -3.51168e-20)
(2.59484 -2.39758 1.33381e-19)
(2.56916 -2.34598 -1.22696e-19)
(2.54225 -2.29532 -1.0007e-19)
(2.51439 -2.24578 8.75393e-20)
(2.48586 -2.19751 -9.7573e-21)
(2.45695 -2.15069 -6.6356e-20)
(2.42792 -2.10546 5.87791e-20)
(2.39902 -2.06203 -1.84567e-19)
(2.37049 -2.02057 1.12863e-19)
(2.34277 -1.98105 -1.77262e-21)
(2.3167 -1.94288 -1.19455e-19)
(2.29083 -1.90687 1.81936e-19)
(3.22319 -3.62446 1.34175e-19)
(3.06265 -3.48019 -3.4868e-19)
(2.97484 -3.3484 -2.95916e-20)
(2.92008 -3.24123 1.66833e-19)
(2.88471 -3.15427 -4.37304e-20)
(2.86327 -3.07996 -1.24553e-19)
(2.85056 -3.01388 5.8973e-20)
(2.84252 -2.95309 6.89401e-20)
(2.8363 -2.89554 5.96879e-21)
(2.82997 -2.83983 8.6353e-20)
(2.82225 -2.78507 2.78643e-19)
(2.81234 -2.73074 -9.84326e-20)
(2.79981 -2.67657 2.58932e-20)
(2.7845 -2.62247 -6.78849e-20)
(2.76643 -2.56847 2.61364e-19)
(2.74575 -2.51465 -4.73727e-20)
(2.7227 -2.46116 1.57857e-19)
(2.69756 -2.40815 -6.17673e-20)
(2.67064 -2.3558 6.69337e-20)
(2.64225 -2.30426 1.01862e-19)
(2.61269 -2.25371 1.76142e-20)
(2.58227 -2.20429 6.94072e-20)
(2.55127 -2.15618 -5.78236e-20)
(2.51995 -2.10952 1.61755e-19)
(2.48859 -2.0645 -6.64814e-20)
(2.45741 -2.0213 2.45099e-19)
(2.42666 -1.9802 -7.09682e-20)
(2.39679 -1.94123 4.93073e-20)
(2.36882 -1.90389 -9.34797e-20)
(2.34148 -1.86919 1.77481e-19)
(3.32136 -3.54278 -2.95928e-19)
(3.16308 -3.40904 1.10019e-20)
(3.07654 -3.28453 -1.82426e-19)
(3.02264 -3.18287 3.35788e-20)
(2.98774 -3.10009 9.45594e-21)
(2.96632 -3.02886 -1.66351e-19)
(2.95314 -2.96496 -3.15608e-19)
(2.94413 -2.9057 1.59127e-19)
(2.93651 -2.84917 -2.27474e-19)
(2.92839 -2.7941 -1.2137e-19)
(2.91855 -2.73972 -6.9928e-20)
(2.90626 -2.6856 -5.68562e-20)
(2.89115 -2.63153 1.68586e-21)
(2.87312 -2.57748 -2.05196e-19)
(2.85224 -2.5235 1.3645e-19)
(2.82872 -2.46971 -2.24701e-19)
(2.80282 -2.41627 -5.73746e-20)
(2.77486 -2.36335 6.27392e-20)
(2.74517 -2.31112 7.9493e-20)
(2.71408 -2.25974 7.99597e-20)
(2.68192 -2.20938 6.16563e-20)
(2.64899 -2.16018 -1.5528e-19)
(2.61556 -2.11228 1.5752e-19)
(2.58191 -2.06583 -1.68154e-20)
(2.54828 -2.02098 -4.27028e-20)
(2.51488 -1.97793 -1.70281e-19)
(2.4819 -1.93694 -9.09444e-20)
(2.44976 -1.89811 1.68985e-19)
(2.41958 -1.86108 -5.54128e-20)
(2.39047 -1.82775 -5.78664e-20)
(3.41869 -3.45825 1.28561e-19)
(3.26249 -3.33462 1.1862e-20)
(3.17706 -3.21734 -3.59758e-20)
(3.12406 -3.12118 -8.05116e-21)
(3.08973 -3.04253 -6.64057e-20)
(3.06838 -2.97432 2.24836e-19)
(3.05473 -2.91257 -1.06954e-19)
(3.04474 -2.85479 7.03078e-20)
(3.03568 -2.79925 2.9363e-20)
(3.02572 -2.74483 1.07699e-19)
(3.01371 -2.69086 -4.233e-20)
(2.99898 -2.637 2.39836e-19)
(2.98124 -2.5831 -2.08798e-20)
(2.96044 -2.52916 1.5856e-19)
(2.93672 -2.47529 -2.68419e-19)
(2.91033 -2.42163 -2.0915e-20)
(2.88156 -2.36835 1.76048e-19)
(2.85078 -2.31562 -1.10123e-19)
(2.81834 -2.26362 -7.79068e-20)
(2.78459 -2.21252 -1.34942e-19)
(2.74987 -2.16246 -1.1946e-19)
(2.71448 -2.11357 1.28402e-19)
(2.67874 -2.06599 -1.21794e-19)
(2.64289 -2.01982 2.65962e-20)
(2.60717 -1.97518 9.93073e-20)
(2.57178 -1.93221 6.92016e-20)
(2.53688 -1.89104 6.6027e-20)
(2.50268 -1.85165 4.89025e-20)
(2.46979 -1.81411 -1.32272e-19)
(2.43778 -1.78171 -5.70348e-20)
(5.01466 -0.0291996 1.90563e-21)
(5.00694 -0.161089 1.89238e-20)
(4.99611 -0.292004 6.56773e-20)
(4.98212 -0.422224 3.5918e-20)
(4.96479 -0.551808 -7.58615e-20)
(4.94403 -0.680721 2.29817e-20)
(4.91987 -0.808898 -2.40898e-20)
(4.89231 -0.936259 -6.07927e-20)
(4.8614 -1.06272 1.54635e-19)
(4.82716 -1.18819 -3.6861e-20)
(4.78962 -1.31258 -3.72425e-20)
(4.74883 -1.43582 -7.85621e-20)
(4.70482 -1.5578 -2.24851e-19)
(4.65765 -1.67845 2.08162e-20)
(4.60735 -1.7977 -1.02634e-20)
(4.55397 -1.91545 -6.99089e-20)
(4.49757 -2.03163 1.50152e-19)
(4.43819 -2.14617 8.12508e-20)
(4.37589 -2.25899 1.55522e-19)
(4.31072 -2.37002 7.59262e-20)
(4.24273 -2.47919 -1.6945e-19)
(4.17199 -2.58643 6.77949e-21)
(4.09855 -2.69168 -3.19376e-19)
(4.02248 -2.79488 4.84422e-19)
(3.94384 -2.89596 -1.5885e-19)
(3.8627 -2.99487 -2.04273e-19)
(3.77912 -3.09158 -2.86672e-20)
(3.69317 -3.18604 -1.69361e-21)
(3.60497 -3.27835 -1.53065e-19)
(3.51445 -3.36888 2.72388e-19)
(5.04685 -0.0580846 7.93517e-21)
(5.03313 -0.190237 1.17396e-20)