/*--------------------------------*- C++ -*----------------------------------*\
| =========                 |                                                 |
| \\      /  F ield         | OpenFOAM: The Open Source CFD Toolbox           |
|  \\    /   O peration     | Version:  v1912                                 |
|   \\  /    A nd           | Website:  www.openfoam.com                      |
|    \\/     M anipulation  |                                                 |
\*---------------------------------------------------------------------------*/
FoamFile
{
    version     2.0;
    format      ascii;
    class       volVectorField;
    location    "25.5";
    object      U;
}
// * * * * * * * * * * * * * * * * * * * * * * * * * * * * * * * * * * * * * //

dimensions      [0 1 -1 0 0 0 0];


internalField   nonuniform List<vector> 
9600
(
(0.45675 -9.36881 -1.53537e-19)
(0.159238 -8.64495 0)
(0.240075 -8.17251 -9.00191e-20)
(0.317058 -7.85116 0)
(0.382586 -7.61253 0)
(0.449224 -7.41388 -3.15962e-20)
(0.513058 -7.23161 -5.34273e-22)
(0.571001 -7.05371 2.63643e-20)
(0.622305 -6.87495 0)
(0.667003 -6.69394 -4.46648e-20)
(0.705478 -6.51128 0)
(0.738342 -6.32849 -1.81601e-21)
(0.766315 -6.14735 -2.59662e-21)
(0.790138 -5.96949 -3.11414e-20)
(0.810517 -5.79629 2.62305e-20)
(0.828091 -5.62866 -2.57707e-20)
(0.843398 -5.46706 2.2923e-20)
(0.856975 -5.31139 0)
(0.869596 -5.16087 -1.82097e-20)
(0.880972 -5.014 1.99743e-20)
(0.82493 -9.35802 -3.07016e-19)
(0.502113 -8.67207 1.17785e-20)
(0.566139 -8.21548 1.85448e-19)
(0.63153 -7.90342 -1.5785e-19)
(0.687929 -7.66931 1.55671e-19)
(0.746405 -7.47115 0)
(0.802253 -7.28664 6.0233e-20)
(0.852055 -7.10485 -6.00716e-20)
(0.894988 -6.92133 -1.04113e-19)
(0.931141 -6.73526 1.31525e-19)
(0.961006 -6.54763 -8.53812e-20)
(0.985314 -6.36022 -3.47977e-20)
(1.0049 -6.17493 7.02693e-20)
(1.02058 -5.99348 0)
(1.03313 -5.81726 0)
(1.04322 -5.64717 9.82593e-20)
(1.05141 -5.48365 -1.66573e-19)
(1.05823 -5.32654 0)
(1.06456 -5.17493 0)
(1.06983 -5.02724 -7.68908e-20)
(1.19342 -9.33368 6.34285e-19)
(0.847184 -8.68631 0)
(0.895657 -8.24577 -3.74958e-19)
(0.950182 -7.94312 -3.39614e-19)
(0.997748 -7.71351 0)
(1.04804 -7.51583 5.41908e-19)
(1.09568 -7.3291 -5.11429e-19)
(1.137 -7.14353 1.00142e-19)
(1.17117 -6.95545 -2.22962e-19)
(1.19837 -6.7646 -3.70374e-19)
(1.21924 -6.57235 5.0525e-19)
(1.23464 -6.3807 -3.12235e-19)
(1.24553 -6.19169 -1.3982e-19)
(1.25281 -6.00707 0)
(1.25733 -5.82825 5.47418e-21)
(1.25978 -5.65613 1.03601e-19)
(1.26072 -5.49109 4.47259e-20)
(1.26072 -5.33292 0)
(1.26069 -5.18062 8.10463e-20)
(1.25976 -5.0325 8.30762e-20)
(1.56112 -9.29542 -8.57895e-19)
(1.19386 -8.68741 -4.01554e-19)
(1.22807 -8.26317 3.896e-19)
(1.27245 -7.96996 6.68565e-19)
(1.31147 -7.74479 -3.24411e-19)
(1.35355 -7.54754 5.67892e-21)
(1.39274 -7.35865 2.51498e-19)
(1.42523 -7.16944 2.27643e-19)
(1.45024 -6.97705 4.16604e-19)
(1.4681 -6.78175 0)
(1.4796 -6.58527 1.60177e-19)
(1.48578 -6.38981 -1.70096e-19)
(1.48769 -6.19751 1.02955e-20)
(1.48636 -6.01018 2.67753e-19)
(1.48266 -5.8292 2.29275e-19)
(1.47733 -5.65545 -3.23587e-19)
(1.47094 -5.48931 1.0656e-19)
(1.46405 -5.33049 -1.73297e-19)
(1.45766 -5.17787 1.72477e-19)
(1.45047 -5.02977 -8.31173e-20)
(1.92771 -9.24319 4.32596e-19)
(1.54185 -8.67521 0)
(1.56299 -8.26743 3.82302e-19)
(1.59784 -7.9836 0)
(1.62854 -7.76279 0)
(1.66232 -7.56595 -2.9786e-19)
(1.69281 -7.37498 -5.32473e-19)
(1.71612 -7.18232 -4.5098e-19)
(1.73158 -6.9859 1.84029e-20)
(1.73972 -6.7865 -1.94676e-19)
(1.74152 -6.58621 0)
(1.73817 -6.38739 -1.60561e-19)
(1.73087 -6.19228 -2.8909e-19)
(1.72071 -6.0027 2.54017e-19)
(1.70865 -5.82002 -7.21709e-19)
(1.69544 -5.64509 1.16799e-19)
(1.68164 -5.47826 9.24347e-20)
(1.66786 -5.31919 -1.9065e-19)
(1.65511 -5.16664 -8.32424e-20)
(1.64161 -5.01899 2.48198e-19)
(2.29265 -9.17689 4.17105e-19)
(1.89066 -8.64948 4.13146e-19)
(1.89987 -8.25827 0)
(1.92578 -7.98373 0)
(1.94836 -7.7672 -6.19093e-19)
(1.97375 -7.57076 3.38668e-19)
(1.99526 -7.37779 8.13692e-19)
(2.00903 -7.1819 0)
(2.01457 -6.98177 2.14719e-19)
(2.01263 -6.7787 1.94677e-19)
(2.00441 -6.57504 -3.43609e-19)
(1.99127 -6.37336 4.98251e-19)
(1.97453 -6.17593 1.46102e-19)
(1.95538 -5.98458 0)
(1.93483 -5.80067 1.21491e-19)
(1.91366 -5.625 5.44967e-19)
(1.89241 -5.4579 -3.24736e-19)
(1.87172 -5.29898 3.64531e-19)
(1.85265 -5.1469 -6.93042e-19)
(1.83286 -5.00014 8.01293e-19)
(2.65542 -9.09651 4.24103e-19)
(2.23979 -8.61005 -2.2449e-18)
(2.23821 -8.23542 0)
(2.25571 -7.97006 0)
(2.27031 -7.75771 0)
(2.28719 -7.56167 -6.00161e-19)
(2.29943 -7.36686 0)
(2.30331 -7.168 -9.60666e-19)
(2.29857 -6.96452 8.85773e-19)
(2.28621 -6.75819 -8.22262e-19)
(2.26767 -6.55167 0)
(2.24449 -6.34763 0)
(2.21813 -6.1484 0)
(2.18985 -5.9558 -2.77556e-19)
(2.16072 -5.77112 0)
(2.13153 -5.59517 0)
(2.10281 -5.42822 -4.06723e-19)
(2.07524 -5.26985 3.99618e-19)
(2.04991 -5.11864 0)
(2.02384 -4.97323 0)
(3.01547 -9.00204 -1.37982e-18)
(2.58868 -8.55673 8.93543e-19)
(2.5774 -8.19866 0)
(2.587 -7.94233 0)
(2.59375 -7.73406 0)
(2.60196 -7.53846 5.70729e-19)
(2.60465 -7.34196 -5.72348e-19)
(2.59829 -7.14042 -8.71481e-21)
(2.58292 -6.93399 -8.86572e-19)
(2.55982 -6.7249 8.29934e-19)
(2.53069 -6.51603 -3.74108e-19)
(2.49726 -6.31017 6.50046e-19)
(2.46112 -6.10967 -4.61141e-20)
(2.42361 -5.91632 -5.87736e-19)
(2.38582 -5.73138 -4.94896e-19)
(2.34857 -5.5556 4.86221e-19)
(2.31239 -5.38923 0)
(2.27798 -5.23181 0)
(2.24645 -5.08185 3.51253e-19)
(2.21418 -4.93824 -3.86735e-19)
(3.37224 -8.89353 9.22193e-19)
(2.93676 -8.48941 8.77283e-19)
(2.91687 -8.14776 -1.6623e-18)
(2.91903 -7.9003 7.84943e-19)
(2.91801 -7.69602 0)
(2.91739 -7.50091 6.10716e-19)
(2.91023 -7.30293 -5.35607e-19)
(2.89329 -7.09905 1.51327e-18)
(2.86695 -6.89011 -2.35404e-20)
(2.83283 -6.67874 0)
(2.79287 -6.46807 7.54776e-19)
(2.74901 -6.26095 0)
(2.70295 -6.05974 0)
(2.65612 -5.86618 -2.68659e-19)
(2.60963 -5.68146 5.42003e-19)
(2.56431 -5.50631 0)
(2.52069 -5.34094 4.24577e-19)
(2.47949 -5.18488 1.76558e-19)
(2.44187 -5.03655 -3.83346e-19)
(2.40349 -4.89522 3.72162e-19)
(3.72517 -8.77104 -9.49444e-19)
(3.28347 -8.40798 8.91404e-19)
(3.256 -8.08257 -2.53784e-18)
(3.25114 -7.84377 7.97801e-19)
(3.2424 -7.6434 0)
(3.23277 -7.44885 -1.23212e-18)
(3.21547 -7.24962 5.91836e-19)
(3.18762 -7.04377 0)
(3.15 -6.83279 -4.6917e-19)
(3.10459 -6.6197 -8.13154e-19)
(3.0536 -6.40779 -7.07969e-19)
(2.99914 -6.19999 5.31132e-20)
(2.94307 -5.99863 6.62037e-19)
(2.88685 -5.80539 2.68441e-19)
(2.83165 -5.6214 -3.76369e-20)
(2.77826 -5.44733 -5.05388e-19)
(2.72723 -5.2834 -2.25904e-19)
(2.67932 -5.12908 -2.03584e-19)
(2.63571 -4.98277 5.42778e-19)
(2.59134 -4.84419 -8.09207e-19)
(4.07372 -8.63465 9.49447e-19)
(3.62819 -8.31238 -4.6507e-20)
(3.59414 -8.00294 8.15335e-19)
(3.58266 -7.77259 0)
(3.56623 -7.57604 -6.74231e-19)
(3.54739 -7.38215 1.29539e-18)
(3.51965 -7.18196 -1.10614e-18)
(3.48058 -6.97454 1.08851e-18)
(3.4314 -6.76202 -4.40431e-19)
(3.37445 -6.54775 8.94374e-19)
(3.31225 -6.3352 3.87026e-19)
(3.24709 -6.12731 0)
(3.18092 -5.92638 0)
(3.11529 -5.73401 -2.78326e-19)
(3.05135 -5.55125 3.8043e-20)
(2.98992 -5.37872 9.95022e-19)
(2.93152 -5.21663 -2.46168e-19)
(2.87696 -5.06445 8.12302e-19)
(2.82748 -4.92054 1.41893e-19)
(2.77727 -4.78518 -8.26488e-19)
(4.41731 -8.48448 -2.92048e-18)
(3.97033 -8.20256 -9.7931e-19)
(3.93067 -7.90877 -2.61032e-18)
(3.91291 -7.68662 -1.58689e-18)
(3.88878 -7.49383 -7.52402e-19)
(3.86054 -7.30074 -7.35312e-19)
(3.82207 -7.09987 -2.39779e-18)
(3.77147 -6.89132 -4.8733e-20)
(3.71047 -6.67779 -1.92443e-18)
(3.64178 -6.46294 3.0147e-20)
(3.56822 -6.25034 -7.98137e-19)
(3.49225 -6.04297 -7.26947e-19)
(3.41595 -5.84305 6.633e-19)
(3.34089 -5.65209 -6.06337e-19)
(3.26823 -5.47106 -5.55276e-19)
(3.19879 -5.30053 -5.0942e-19)
(3.13306 -5.14071 -1.36717e-18)
(3.07193 -4.99105 4.86583e-19)
(3.01668 -4.84991 1.17977e-18)
(2.96081 -4.71824 -1.25588e-18)
(4.75541 -8.32066 3.92782e-18)
(4.3093 -8.07855 4.82091e-18)
(4.26493 -7.79999 8.27498e-19)
(4.24119 -7.58578 3.96295e-18)
(4.20934 -7.39669 -7.76341e-19)
(4.17148 -7.20455 3.87642e-18)
(4.122 -7.00334 1.13306e-18)
(4.05961 -6.79413 3.17994e-18)
(3.98654 -6.58015 -9.71648e-19)
(3.90595 -6.36531 2.6889e-18)
(3.8209 -6.15329 1.60759e-18)
(3.73407 -5.94703 1.46437e-18)
(3.6476 -5.7487 -1.98154e-18)
(3.56311 -5.5597 1.85571e-18)
(3.48177 -5.38091 1.11911e-18)
(3.40434 -5.21283 1.02692e-18)
(3.33134 -5.05569 9.43939e-19)
(3.26371 -4.90892 7.26402e-21)
(3.20281 -4.77092 8.0077e-19)
(3.14149 -4.6434 8.33451e-19)
(5.0875 -8.14336 -2.91612e-18)
(4.64451 -7.94036 1.07407e-18)
(4.59627 -7.67658 2.65458e-18)
(4.56681 -7.47002 -3.23277e-18)
(4.52718 -7.28459 7.4696e-19)
(4.47949 -7.09358 -2.59309e-18)
(4.41873 -6.89241 1.27058e-18)
(4.3443 -6.68303 -2.12747e-18)
(4.25897 -6.46916 4.86931e-20)
(4.16632 -6.25494 1.17367e-20)
(4.0697 -6.04411 -1.62969e-18)
(3.97197 -5.83958 -7.37419e-19)
(3.87533 -5.64341 1.35532e-18)
(3.78144 -5.45691 8.62277e-21)
(3.69143 -5.28085 -3.6849e-20)
(3.60606 -5.11569 -1.07202e-18)
(3.52581 -4.96163 -4.75798e-19)
(3.45173 -4.81813 -2.68479e-20)
(3.3853 -4.68363 -8.34719e-19)
(3.31874 -4.5608 -4.20909e-19)
(5.41307 -7.95277 0)
(4.97537 -7.78807 -1.98413e-18)
(4.92404 -7.53852 2.32877e-20)
(4.88906 -7.33933 3.22718e-18)
(4.84158 -7.15754 1.34942e-18)
(4.78384 -6.96788 -1.40506e-18)
(4.71156 -6.76713 -1.20948e-18)
(4.62486 -6.55809 0)
(4.5271 -6.34493 -9.61506e-19)
(4.42229 -6.13195 9.17421e-19)
(4.31406 -5.92293 -3.87585e-20)
(4.20541 -5.72072 0)
(4.09862 -5.52727 -6.82288e-19)
(3.99535 -5.34378 5.90518e-19)
(3.8967 -5.17094 4.92916e-19)
(3.80339 -5.00912 -5.9571e-19)
(3.7159 -4.85852 -5.16479e-19)
(3.63537 -4.71864 8.96328e-19)
(3.5634 -4.58803 -8.26968e-19)
(3.49173 -4.47047 4.3533e-19)
(5.73164 -7.74906 3.0117e-18)
(5.30131 -7.62173 -2.04326e-18)
(5.24757 -7.38584 -1.74211e-18)
(5.20725 -7.19374 8.10569e-19)
(5.15181 -7.01558 -1.57266e-18)
(5.08382 -6.82751 0)
(4.99979 -6.62761 0)
(4.90063 -6.41946 0)
(4.79031 -6.2076 -4.41336e-20)
(4.67327 -5.99648 -1.84108e-18)
(4.55341 -5.78987 8.6931e-19)
(4.43387 -5.59055 7.34575e-19)
(4.31698 -5.40037 6.21075e-19)
(4.20437 -5.2204 -2.54936e-18)
(4.09712 -5.05122 1.20837e-18)
(3.99587 -4.89313 0)
(3.90109 -4.74635 -3.0103e-20)
(3.81399 -4.6104 -1.3904e-18)
(3.73632 -4.48402 -5.62954e-21)
(3.65953 -4.37209 -4.35801e-19)
(6.04288 -7.53252 -2.04874e-18)
(5.62179 -7.4415 -1.07716e-18)
(5.5662 -7.21862 8.10205e-19)
(5.52065 -7.03331 -1.43562e-19)
(5.45716 -6.8588 -4.58265e-18)
(5.37871 -6.67261 4.14515e-18)
(5.28272 -6.47399 -4.86732e-20)
(5.17095 -6.26729 1.13415e-18)
(5.04799 -6.05733 1.01716e-18)
(4.91869 -5.84869 9.33505e-19)
(4.78723 -5.64509 8.4912e-19)
(4.65686 -5.44922 1.51673e-18)
(4.52994 -5.26281 -7.29958e-19)
(4.40807 -5.08683 1.89082e-18)
(4.29227 -4.92174 -1.22231e-18)
(4.18313 -4.7678 -5.05225e-19)
(4.08104 -4.62521 2.02948e-18)
(3.98728 -4.49352 1.35532e-18)
(3.90378 -4.37152 -2.76399e-20)
(3.82206 -4.26498 0)
(6.34674 -7.30362 -1.04151e-18)
(5.93641 -7.24755 2.05806e-18)
(5.87927 -7.03691 1.80012e-18)
(5.82854 -6.8581 -1.45501e-19)
(5.75688 -6.68731 -1.55471e-18)
(5.66777 -6.50329 7.02773e-20)
(5.55966 -6.30646 1.29399e-20)
(5.43517 -6.10177 1.15342e-20)
(5.29953 -5.89434 0)
(5.15802 -5.68877 9.12793e-19)
(5.01502 -5.48875 -1.73725e-18)
(4.8739 -5.29684 -7.42894e-19)
(4.73703 -5.11467 7.37489e-19)
(4.60596 -4.94309 -6.46733e-19)
(4.48164 -4.78249 5.98781e-19)
(4.36458 -4.63311 -5.44917e-19)
(4.25518 -4.49516 4.84536e-21)
(4.15483 -4.36804 -4.62672e-19)
(4.06576 -4.25045 -4.27294e-19)
(3.97989 -4.14998 -4.27573e-19)
(6.64359 -7.06286 0)
(6.24492 -7.03981 -1.003e-18)
(6.18613 -6.84064 9.91489e-19)
(6.13017 -6.66818 1.72824e-18)
(6.05022 -6.50127 -1.56308e-18)
(5.9503 -6.31982 1.34936e-18)
(5.82994 -6.1253 -2.59422e-18)
(5.69269 -5.92322 -2.30232e-18)
(5.54441 -5.71892 -1.00372e-18)
(5.39076 -5.51701 4.40783e-20)
(5.23637 -5.32108 -8.3045e-19)
(5.08464 -5.13358 3.46241e-20)
(4.93791 -4.956 0)
(4.79765 -4.78909 -1.26843e-18)
(4.66465 -4.63321 6.4743e-19)
(4.53934 -4.4886 0)
(4.42214 -4.3554 -5.06559e-19)
(4.31465 -4.23278 -9.10411e-19)
(4.21912 -4.12035 8.9457e-19)
(4.12807 -4.03057 4.41511e-19)
(6.93301 -6.80944 0)
(6.54671 -6.81758 0)
(6.48608 -6.62973 -1.83798e-18)
(6.42478 -6.46384 -1.57901e-18)
(6.33649 -6.30108 3.20543e-18)
(6.22567 -6.12262 0)
(6.09301 -5.93093 0)
(5.943 -5.73207 1.15662e-18)
(5.78217 -5.53151 0)
(5.61658 -5.33382 0)
(5.45101 -5.14247 0)
(5.28893 -4.95976 0)
(5.13259 -4.78701 0)
(4.9833 -4.62486 0)
(4.84161 -4.47357 0)
(4.70765 -4.33333 0)
(4.58169 -4.20399 0)
(4.4648 -4.08493 0)
(4.35712 -3.97916 0)
(4.25261 -3.90375 0)
(10.0373 0.0876892 1.46063e-19)
(10.0171 -0.307465 2.84136e-19)
(9.9815 -0.69996 -2.91879e-19)
(9.93122 -1.08966 5.81958e-19)
(9.86597 -1.47621 -5.81957e-19)
(9.78559 -1.85912 -5.4974e-19)
(9.69021 -2.23786 -5.48216e-19)
(9.58002 -2.61186 1.72725e-18)
(9.45526 -2.98059 -1.15078e-18)
(9.3162 -3.34348 1.14121e-18)
(9.1631 -3.7 -1.14122e-18)
(8.99627 -4.04961 1.13285e-18)
(8.81605 -4.3918 -2.24671e-18)
(8.62278 -4.72605 3.30819e-18)
(8.41683 -5.0519 0)
(8.19859 -5.36887 -3.2507e-18)
(7.96845 -5.67657 1.60523e-20)
(7.72693 -5.97461 3.27669e-18)
(7.47413 -6.26286 0)
(7.21173 -6.54063 0)
(10.104 -0.21086 0)
(10.0632 -0.606363 -1.50011e-20)
(10.0055 -0.998096 0)
(9.93184 -1.38573 5.56301e-19)
(9.84232 -1.76883 5.79473e-19)
(9.73716 -2.1468 -1.67679e-18)
(9.61665 -2.51901 2.92025e-18)
(9.48116 -2.88484 -1.1527e-18)
(9.33104 -3.24369 -1.09854e-18)
(9.16668 -3.59498 -1.09409e-18)
(8.9885 -3.93814 4.44694e-20)
(8.79693 -4.27263 1.12142e-18)
(8.59244 -4.59792 -5.57454e-18)
(8.37549 -4.91353 -1.16978e-18)
(8.14659 -5.21898 2.22777e-18)
(7.90623 -5.51385 2.22522e-18)
(7.6549 -5.79774 1.13088e-18)
(7.39316 -6.07034 -2.18001e-18)
(7.12111 -6.33137 1.03219e-18)
(6.83969 -6.58051 0)
(10.0483 -0.14966 1.31353e-19)
(10.0109 -0.540464 -2.69027e-19)
(9.9561 -0.928122 7.76726e-19)
(9.8844 -1.31195 -5.5046e-19)
(9.79615 -1.69129 -5.24707e-19)
(9.69171 -2.06543 5.47985e-19)
(9.57144 -2.43367 0)
(9.43575 -2.7953 0)
(9.28505 -3.14967 2.08032e-18)
(9.11978 -3.49614 3.10351e-18)
(8.94042 -3.83408 -9.81262e-19)
(8.74746 -4.16291 3.06899e-18)
(8.54142 -4.48207 -9.77157e-19)
(8.32282 -4.79104 -2.98926e-18)
(8.09222 -5.08929 1.33844e-20)
(7.85017 -5.37639 1.91849e-18)
(7.59721 -5.65188 -8.65473e-19)
(7.33393 -5.91537 -1.88779e-18)
(7.06065 -6.16647 -1.02035e-18)
(6.77812 -6.4047 1.85557e-18)
(9.87737 -0.113213 0)
(9.84662 -0.494622 2.26627e-19)
(9.79867 -0.873709 2.25681e-19)
(9.73369 -1.24958 -9.27334e-19)
(9.65201 -1.62144 0)
(9.55397 -1.98852 0)
(9.43994 -2.35005 0)
(9.31028 -2.7053 0)
(9.1654 -3.05356 -9.81708e-19)
(9.00575 -3.39413 -9.78002e-19)
(8.83179 -3.72635 0)
(8.64404 -4.0496 1.84872e-18)
(8.44301 -4.36327 -4.57067e-18)
(8.22925 -4.66677 3.67555e-18)
(8.00333 -4.95956 -3.56232e-18)
(7.76582 -5.24113 -8.6442e-19)
(7.5173 -5.51099 1.55849e-19)
(7.25839 -5.76866 1.54285e-19)
(6.98958 -6.01369 -1.7611e-18)
(6.71161 -6.2456 -7.07989e-20)
(9.62148 -0.0997994 0)
(9.59803 -0.468899 -2.23505e-19)
(9.5578 -0.836322 0)
(9.50087 -1.20117 4.4713e-19)
(9.42748 -1.56262 4.26133e-19)
(9.3379 -1.91987 3.8942e-19)
(9.23245 -2.27215 0)
(9.11147 -2.61871 0)
(8.97532 -2.9588 0)
(8.82442 -3.29172 0)
(8.65921 -3.61677 8.04646e-19)
(8.48016 -3.93329 8.67298e-19)
(8.28778 -4.24065 8.6245e-19)
(8.0826 -4.53822 -8.75565e-19)
(7.86518 -4.82543 -1.50578e-18)
(7.63609 -5.10172 1.71074e-18)
(7.39592 -5.36655 3.31656e-18)
(7.14527 -5.6194 1.61315e-18)
(6.88474 -5.85978 0)
(6.615 -6.0872 -1.52002e-18)
(9.31292 -0.0909645 4.59e-20)
(9.29633 -0.445856 0)
(9.26359 -0.799635 -7.52246e-19)
(9.21472 -1.15145 1.95685e-23)
(9.14986 -1.50049 1.60653e-20)
(9.06925 -1.84596 -6.80924e-20)
(8.97315 -2.18711 0)
(8.86185 -2.52317 3.07353e-20)
(8.73567 -2.8534 -7.63736e-19)
(8.59497 -3.1771 1.48789e-18)
(8.44016 -3.49356 -1.55184e-18)
(8.27167 -3.80212 8.48207e-19)
(8.08998 -4.10211 -4.44329e-18)
(7.89557 -4.39291 2.93057e-18)
(7.68898 -4.67392 1.55405e-18)
(7.47077 -4.94453 0)
(7.24149 -5.2042 -2.8677e-18)
(7.00174 -5.45236 -6.12826e-20)
(6.75212 -5.68851 -2.82435e-18)
(6.49327 -5.9121 2.93635e-18)
(8.97973 -0.0860543 4.126e-20)
(8.96869 -0.425939 -8.64552e-20)
(8.94225 -0.765172 7.08921e-19)
(8.90037 -1.10296 -1.39747e-20)
(8.84315 -1.43852 7.0877e-19)
(8.77078 -1.77108 -1.07057e-18)
(8.68346 -2.09992 0)
(8.58144 -2.42428 7.21753e-19)
(8.465 -2.74345 6.60581e-19)
(8.33445 -3.05674 -7.17721e-19)
(8.19017 -3.36345 1.31261e-18)
(8.03252 -3.66293 2.78368e-18)
(7.86196 -3.95451 -1.29412e-18)
(7.67893 -4.23757 -1.40347e-18)
(7.48393 -4.5115 1.34559e-18)
(7.27748 -4.77569 0)
(7.06012 -5.02958 6.45141e-20)
(6.83241 -5.27259 9.6513e-21)
(6.59494 -5.50418 2.67522e-18)
(6.34829 -5.7238 1.24336e-18)
(8.64271 -0.0847325 0)
(8.6357 -0.409663 6.21007e-21)
(8.61404 -0.734283 -1.44131e-19)
(8.57769 -1.05785 -6.40392e-19)
(8.52672 -1.37962 6.01782e-19)
(8.46127 -1.69888 0)
(8.38152 -2.0149 1.22495e-18)
(8.28766 -2.32699 -1.34577e-21)
(8.17995 -2.63446 -1.87105e-18)
(8.05866 -2.93664 0)
(7.92411 -3.23286 -1.29172e-18)
(7.77665 -3.52248 4.56892e-20)
(7.61667 -3.80487 -3.6301e-18)
(7.44459 -4.07941 6.38105e-21)
(7.26088 -4.34549 1.21678e-18)
(7.06602 -4.60253 0)
(6.86052 -4.84994 -1.19435e-18)
(6.64492 -5.08716 8.56537e-21)
(6.41976 -5.31362 1.18579e-18)
(6.18561 -5.52876 -1.22356e-18)
(8.31551 -0.0856564 0)
(8.3111 -0.396211 1.47804e-19)
(8.29279 -0.706686 3.06704e-19)
(8.26055 -1.01639 -5.67507e-19)
(8.2144 -1.32462 -2.45419e-20)
(8.15448 -1.63069 -2.83622e-19)
(8.08092 -1.93394 -1.13538e-18)
(7.9939 -2.2337 5.64456e-19)
(7.89363 -2.52931 2.36444e-20)
(7.78036 -2.82015 5.6108e-19)
(7.65438 -3.10557 5.16326e-19)
(7.51599 -3.38496 2.23694e-18)
(7.36557 -3.65773 1.11894e-18)
(7.2035 -3.92326 2.20998e-18)
(7.03022 -4.181 -1.1021e-18)
(6.84617 -4.43034 3.84071e-20)
(6.65185 -4.67074 -1.08911e-18)
(6.44776 -4.90161 0)
(6.23445 -5.12241 1.02933e-18)
(6.0124 -5.33254 0)
(8.0059 -0.0877186 6.43154e-20)
(8.00295 -0.384762 -1.88341e-19)
(7.98682 -0.681867 5.16647e-19)
(7.95746 -0.978383 -2.57738e-19)
(7.91489 -1.27366 1.88276e-20)
(7.85923 -1.56704 -2.57584e-19)
(7.79058 -1.85791 5.35603e-19)
(7.70911 -2.14564 -5.12499e-19)
(7.61501 -2.42962 5.12496e-19)
(7.50849 -2.70923 9.82769e-19)
(7.38982 -2.9839 -1.05938e-18)
(7.25929 -3.25303 -4.47471e-20)
(7.11724 -3.51605 -3.06605e-18)
(6.96402 -3.77242 5.30721e-21)
(6.80005 -4.02156 3.99436e-20)
(6.62576 -4.26294 1.98758e-18)
(6.44162 -4.496 -9.8179e-19)
(6.24813 -4.72018 -9.35008e-19)
(6.04581 -4.93493 -3.72125e-20)
(5.83511 -5.13965 0)
(7.71745 -0.0901846 0)
(7.71512 -0.374701 2.39208e-19)
(7.70027 -0.659353 -8.22419e-19)
(7.67284 -0.943529 -2.18121e-19)
(7.63285 -1.22662 4.8805e-19)
(7.5804 -1.50801 0)
(7.51559 -1.78712 0)
(7.43856 -2.06336 4.66409e-19)
(7.34948 -2.33614 -4.66407e-19)
(7.24856 -2.60491 3.92583e-19)
(7.13604 -2.86911 -4.63397e-19)
(7.0122 -3.12819 9.18945e-19)
(6.87733 -3.38162 -1.83334e-18)
(6.7318 -3.62888 1.82385e-18)
(6.576 -3.86945 3.44024e-20)
(6.41033 -4.10281 -9.38221e-19)
(6.23528 -4.32844 -8.92619e-19)
(6.05132 -4.54579 1.8185e-18)
(5.85899 -4.75431 8.51063e-19)
(5.65871 -4.95338 0)
(7.45096 -0.092586 1.86004e-21)
(7.4487 -0.365567 1.56979e-19)
(7.43449 -0.638712 3.29647e-19)
(7.4083 -0.911445 2.30783e-19)
(7.37014 -1.18319 2.14013e-19)
(7.32009 -1.45337 1.99025e-19)
(7.25825 -1.72144 0)
(7.18476 -1.98684 -8.22585e-19)
(7.09977 -2.24902 -4.24097e-19)
(7.00348 -2.50747 3.61539e-19)
(6.89611 -2.76165 0)
(6.77791 -3.01106 8.37616e-19)
(6.64919 -3.25521 -2.47716e-18)
(6.51028 -3.49362 8.33321e-19)
(6.36155 -3.72581 0)
(6.20343 -3.95129 -7.92189e-19)
(6.03638 -4.16958 -1.60012e-18)
(5.86089 -4.38016 7.87305e-19)
(5.67751 -4.58246 -2.89826e-20)
(5.48669 -4.77586 0)
(7.20559 -0.0946254 3.43127e-21)
(7.20303 -0.357019 -1.01589e-19)
(7.18906 -0.619569 1.96016e-19)
(7.16362 -0.881736 -1.29914e-20)
(7.12675 -1.14297 3.91682e-19)
(7.07852 -1.40275 -6.01606e-19)
(7.01902 -1.66052 0)
(6.94838 -1.91578 5.54932e-20)
(6.86675 -2.16801 0)
(6.7743 -2.41672 -8.03077e-19)
(6.67126 -2.66143 0)
(6.55786 -2.90165 -7.40912e-19)
(6.43438 -3.13695 2.29024e-18)
(6.30116 -3.36687 -1.51759e-18)
(6.15856 -3.59098 7.56605e-19)
(6.00699 -3.80886 -6.69077e-19)
(5.84694 -4.02004 7.73339e-19)
(5.67892 -4.22406 -7.68042e-19)
(5.50354 -4.42032 0)
(5.32124 -4.60821 0)
(6.97959 -0.0961806 4.64734e-20)
(6.97656 -0.348831 0)
(6.96257 -0.601622 0)
(6.93758 -0.854038 -3.72347e-19)
(6.90164 -1.10556 -3.47432e-19)
(6.85482 -1.35568 0)
(6.79719 -1.60389 0)
(6.72889 -1.84971 4.93447e-20)
(6.65006 -2.09264 6.87989e-19)
(6.56086 -2.33224 -3.31747e-19)
(6.4615 -2.56803 -3.53525e-19)
(6.35221 -2.79959 1.42815e-18)
(6.23326 -3.0265 -2.12061e-18)
(6.10496 -3.24836 1.36731e-18)
(5.96766 -3.46478 0)
(5.82179 -3.67542 2.74702e-18)
(5.66787 -3.87981 -1.99421e-18)
(5.5064 -4.07763 6.7848e-19)
(5.33814 -4.26817 1.29734e-18)
(5.16351 -4.45088 0)
(6.77093 -0.0971854 -3.99383e-20)
(6.76731 -0.340845 0)
(6.75315 -0.584625 -5.16275e-21)
(6.72843 -0.828028 -3.1961e-19)
(6.69319 -1.07056 9.90456e-19)
(6.64749 -1.31173 -1.64757e-19)
(6.59143 -1.55106 0)
(6.52511 -1.7881 1.31243e-18)
(6.44867 -2.02237 -6.75941e-19)
(6.36228 -2.25344 4.40062e-20)
(6.26612 -2.48089 6.26279e-19)
(6.16041 -2.70432 6.41981e-19)
(6.04541 -2.92333 -1.2802e-18)
(5.92141 -3.1376 -1.2521e-18)
(5.78876 -3.34675 -1.22289e-18)
(5.64787 -3.55054 -1.30159e-18)
(5.4993 -3.74854 1.29269e-18)
(5.34355 -3.94059 -6.16988e-19)
(5.18164 -4.12584 -6.57632e-19)
(5.01387 -4.30396 0)
(6.5774 -0.0976177 3.92384e-20)
(6.57315 -0.332955 -1.47307e-19)
(6.55876 -0.568384 -1.52509e-19)
(6.53422 -0.803425 4.56644e-19)
(6.49954 -1.03761 -1.62193e-19)
(6.45481 -1.27047 -1.51578e-19)
(6.40011 -1.50155 0)
(6.33553 -1.7304 -6.23081e-19)
(6.26122 -1.9566 0)
(6.17732 -2.17973 6.18238e-19)
(6.08402 -2.39938 -1.19122e-18)
(5.98152 -2.61519 5.89644e-19)
(5.87004 -2.8268 -1.17565e-18)
(5.74987 -3.03393 1.2133e-18)
(5.62134 -3.23624 6.6053e-19)
(5.48483 -3.43362 0)
(5.34095 -3.62561 -5.69869e-19)
(5.19016 -3.81242 5.6987e-19)
(5.03391 -3.99287 0)
(4.87216 -4.16729 0)
(6.39691 -0.0975627 0)
(6.39207 -0.325138 1.44727e-19)
(6.37745 -0.552773 4.66745e-21)
(6.35305 -0.780011 -1.49236e-19)
(6.31889 -1.0064 -1.31566e-19)
(6.27505 -1.2315 -1.39692e-19)
(6.22159 -1.45486 5.39869e-19)
(6.15864 -1.67608 0)
(6.0863 -1.89473 0)
(6.00472 -2.11042 2.74354e-19)
(5.91407 -2.32278 2.91483e-19)
(5.81454 -2.53146 1.05469e-18)
(5.70633 -2.73613 -5.38904e-19)
(5.58968 -2.93655 5.38902e-19)
(5.46491 -3.13244 5.72171e-19)
(5.33234 -3.3238 3.35272e-20)
(5.19263 -3.51019 -1.05054e-18)
(5.04613 -3.69234 3.75524e-21)
(4.89495 -3.8684 5.19538e-19)
(4.73827 -4.04034 0)
(6.22758 -0.0970233 -3.23427e-20)
(6.22222 -0.317362 3.23423e-20)
(6.20742 -0.537734 0)
(6.18318 -0.757695 1.2181e-19)
(6.14955 -0.976814 3.95711e-19)
(6.10659 -1.19467 -5.00086e-19)
(6.05437 -1.41083 -5.30439e-19)
(5.99299 -1.62491 0)
(5.92258 -1.83651 0)
(5.84325 -2.04526 0)
(5.75518 -2.2508 -9.79012e-19)
(5.65852 -2.45281 -6.33161e-20)
(5.55346 -2.65098 -4.96369e-19)
(5.44019 -2.84511 2.97959e-20)
(5.319 -3.03497 -9.81557e-19)
(5.19011 -3.22068 1.49592e-18)
(5.05421 -3.40184 -1.41718e-18)
(4.91136 -3.57995 4.81085e-19)
(4.76476 -3.75215 9.22102e-19)
(4.61179 -3.9232 0)
(6.06774 -0.0956525 2.90543e-20)
(6.06195 -0.30943 0)
(6.04705 -0.523228 -1.19617e-19)
(6.02305 -0.736615 -2.46484e-19)
(5.98998 -0.949176 1.19465e-19)
(5.94791 -1.1605 9.53961e-19)
(5.89691 -1.3702 0)
(5.83707 -1.57789 -4.59408e-19)
(5.76851 -1.78319 -2.34966e-19)
(5.69135 -1.98574 -4.41381e-19)
(5.60573 -2.18523 -1.76535e-19)
(5.51178 -2.38132 -1.39349e-18)
(5.40968 -2.57377 -9.19732e-19)
(5.29955 -2.76235 9.46139e-19)
(5.18165 -2.94689 9.05522e-19)
(5.05599 -3.1276 -3.85266e-21)
(4.92335 -3.30417 2.95531e-20)
(4.78301 -3.47907 4.43221e-19)
(4.63994 -3.64866 -9.06057e-19)
(4.48761 -3.82254 0)
(5.9158 -0.0939763 -6.07582e-20)
(5.90971 -0.301473 2.99101e-20)
(5.89487 -0.509058 -1.19494e-19)
(5.87125 -0.716343 1.19439e-19)
(5.83887 -0.92294 -3.43513e-19)
(5.7978 -1.12846 -1.06965e-18)
(5.74808 -1.33253 0)
(5.68981 -1.53477 4.86113e-19)
(5.62305 -1.73484 -4.54493e-19)
(5.54792 -1.93239 9.62433e-19)
(5.46453 -2.1271 9.56681e-19)
(5.37297 -2.31868 1.4094e-18)
(5.27339 -2.50685 -9.1448e-19)
(5.16582 -2.69142 4.55496e-19)
(5.0505 -2.87221 -4.47903e-19)
(4.92708 -3.04941 4.47927e-19)
(4.79661 -3.22279 0)
(4.6565 -3.39543 4.05438e-19)
(4.51552 -3.56338 -3.96675e-19)
(4.35898 -3.74818 0)
(7.13399 7.25591 0)
(7.41374 6.96636 0)
(7.6806 6.66725 1.0786e-18)
(7.93529 6.35908 1.99183e-20)
(8.17723 6.04155 -1.1415e-18)
(8.40577 5.71474 0)
(8.62049 5.37904 1.17766e-18)
(8.82106 5.03498 -2.22124e-18)
(9.00717 4.68314 -1.12247e-18)
(9.17852 4.32413 -1.13288e-18)
(9.33485 3.95857 1.13288e-18)
(9.47593 3.58712 -1.14478e-18)
(9.60158 3.21046 5.71051e-19)
(9.71159 2.8293 5.4481e-19)
(9.80581 2.44429 5.46926e-19)
(9.88418 2.0561 -5.80632e-19)
(9.94666 1.6654 5.80632e-19)
(9.99333 1.27288 -2.91478e-19)
(10.0242 0.878934 -1.38401e-19)
(10.0396 0.484921 7.29251e-20)
(7.40329 7.05711 0)
(7.68288 6.76811 -9.87566e-19)
(7.94872 6.4676 -2.11155e-18)
(8.20109 6.15623 3.12229e-18)
(8.43977 5.83434 -2.16536e-18)
(8.66424 5.50236 2.17556e-18)
(8.87403 5.16091 1.18307e-18)
(9.06873 4.81064 -3.35625e-18)
(9.24795 4.45223 1.09792e-18)
(9.41132 4.0864 2.1821e-18)
(9.55854 3.71388 1.0749e-18)
(9.68937 3.3354 1.08167e-18)
(9.80362 2.95178 -1.14163e-18)
(9.90109 2.56373 1.68078e-18)
(9.98152 2.17203 -2.33246e-18)
(10.0448 1.77755 5.75656e-19)
(10.091 1.38108 -5.53023e-19)
(10.12 0.983447 0)
(10.1319 0.585175 1.5112e-20)
(10.127 0.187241 0)
(7.25638 6.92903 -1.7383e-18)
(7.53855 6.65742 9.76267e-19)
(7.8082 6.37302 1.78484e-18)
(8.0649 6.0765 8.07485e-19)
(8.30823 5.76841 2.02409e-18)
(8.53766 5.44937 1.97099e-20)
(8.75266 5.12005 -1.01448e-18)
(8.95276 4.78113 -3.02261e-18)
(9.13752 4.43333 2.98379e-18)
(9.30648 4.07738 -3.063e-18)
(9.45927 3.714 -1.02037e-18)
(9.59559 3.34395 -2.04135e-18)
(9.71513 2.96806 0)
(9.81766 2.5871 0)
(9.90304 2.20193 0)
(9.97112 1.81346 -5.20253e-19)
(10.0217 1.42254 5.4502e-19)
(10.0549 1.03 5.21921e-19)
(10.0704 0.636571 6.24473e-21)
(10.0683 0.243205 1.31081e-19)
(7.02742 6.67606 1.80559e-18)
(7.30617 6.42303 -1.63901e-18)
(7.57361 6.15696 -1.68746e-19)
(7.82901 5.87838 -1.69688e-19)
(8.07181 5.58786 4.25947e-18)
(8.30148 5.28601 -7.09702e-20)
(8.51746 4.97344 3.64363e-21)
(8.71922 4.65082 -2.69338e-18)
(8.90628 4.31881 1.77691e-18)
(9.07817 3.97811 0)
(9.23439 3.62948 9.53154e-19)
(9.3746 3.27376 9.59711e-19)
(9.49854 2.91171 0)
(9.60588 2.54417 0)
(9.69639 2.17194 0)
(9.7699 1.79586 0)
(9.82621 1.41672 -2.15751e-20)
(9.8652 1.03539 4.69735e-19)
(9.88676 0.652679 -2.2552e-19)
(9.89087 0.269526 0)
(6.76414 6.36163 1.52834e-18)
(7.03497 6.12638 0)
(7.29559 5.87826 -4.49805e-18)
(7.54521 5.6177 -1.53306e-18)
(7.78318 5.34523 -1.61128e-18)
(8.00894 5.06138 -1.70818e-18)
(8.22193 4.76675 8.06983e-19)
(8.42159 4.46193 -8.47853e-19)
(8.6074 4.14754 2.35371e-18)
(8.77892 3.82428 -7.70397e-19)
(8.93571 3.49289 0)
(9.0773 3.15411 0)
(9.20329 2.80864 0)
(9.31342 2.45726 0)
(9.40741 2.10076 -1.21648e-18)
(9.48503 1.73997 4.18339e-19)
(9.54605 1.37566 -4.4199e-19)
(9.59032 1.00868 0)
(9.61771 0.639853 2.22414e-19)
(9.62813 0.27007 0)
(6.48896 6.03515 1.30647e-18)
(6.74955 5.81596 -4.78436e-20)
(7.00086 5.58433 2.74807e-18)
(7.2421 5.34059 1.37269e-18)
(7.47263 5.08521 0)
(7.69185 4.81868 -1.45782e-18)
(7.89922 4.54153 6.80304e-20)
(8.09418 4.25432 -1.47975e-18)
(8.27623 3.95764 2.04622e-18)
(8.44488 3.65213 3.25729e-20)
(8.59971 3.33842 2.79672e-20)
(8.74027 3.01714 -7.38132e-19)
(8.86616 2.68902 1.44748e-18)
(8.97706 2.35479 0)
(9.07271 2.01518 6.81303e-20)
(9.15279 1.67101 7.38941e-19)
(9.21706 1.32304 1.61266e-21)
(9.26534 0.972048 -1.52503e-20)
(9.29748 0.618827 0)
(9.31337 0.264208 -4.5805e-20)
(6.2228 5.71879 0)
(6.47207 5.51354 -4.87502e-20)
(6.71281 5.29638 1.72997e-20)
(6.94427 5.06759 -2.4829e-18)
(7.16581 4.82756 0)
(7.37686 4.57676 1.25541e-18)
(7.57689 4.31566 1.33742e-18)
(7.76537 4.04478 -3.89051e-18)
(7.9418 3.76465 -6.78022e-20)
(8.10571 3.47584 -1.2488e-18)
(8.25668 3.17894 6.87875e-19)
(8.39427 2.87457 -6.3513e-19)
(8.5181 2.56339 -6.9848e-19)
(8.6278 2.24609 0)
(8.72312 1.92338 3.6856e-19)
(8.80386 1.59587 -1.67891e-20)
(8.86963 1.26441 -3.41983e-19)
(8.92022 0.929731 -1.66525e-20)
(8.95552 0.592576 -8.6084e-20)
(8.97537 0.253712 1.72538e-19)
(5.97668 5.42393 0)
(6.2144 5.23053 1.07306e-18)
(6.44417 5.02578 1.5934e-20)
(6.66529 4.80993 -1.08896e-18)
(6.87716 4.58333 0)
(7.07922 4.3464 1.13275e-18)
(7.27098 4.09957 -1.08129e-18)
(7.45192 3.84331 -1.19741e-18)
(7.62158 3.57811 2.27691e-18)
(7.77952 3.3045 1.22894e-18)
(7.9253 3.02304 0)
(8.05854 2.7343 5.99288e-19)
(8.17886 2.4389 -4.32516e-21)
(8.28594 2.13749 2.17267e-20)
(8.37936 1.83072 0)
(8.459 1.51923 -5.89706e-19)
(8.5247 1.20362 -3.08998e-19)
(8.57604 0.884695 4.51411e-19)
(8.61291 0.563186 3.04362e-19)
(8.63514 0.239793 -4.06941e-20)
(5.75424 5.15545 0)
(5.98072 4.97205 -9.26148e-19)
(6.19971 4.77787 0)
(6.41056 4.57314 -9.9934e-19)
(6.61267 4.35816 1.96726e-18)
(6.80556 4.13331 -2.00618e-18)
(6.98872 3.89899 3.13977e-18)
(7.1617 3.65563 -3.13045e-18)
(7.32406 3.40369 -2.11499e-18)
(7.47537 3.14366 -1.55965e-18)
(7.61523 2.87607 5.34897e-19)
(7.74328 2.60146 -1.10903e-18)
(7.85917 2.3204 1.85243e-20)
(7.96256 2.0335 1.10231e-18)
(8.05317 1.74134 -2.77304e-19)
(8.13063 1.44464 1.13609e-18)
(8.19486 1.14388 -5.58705e-19)
(8.24568 0.839759 2.57307e-19)
(8.28282 0.533016 -1.4683e-19)
(8.3061 0.224311 0)
(5.55523 4.91376 0)
(5.77111 4.73885 1.79148e-18)
(5.97986 4.55372 8.68642e-19)
(6.18085 4.35857 -8.94349e-19)
(6.37354 4.15366 -1.83203e-18)
(6.55744 3.93933 2.78768e-18)
(6.73212 3.71595 1.11292e-20)
(6.89715 3.48392 -9.08381e-19)
(7.0521 3.24367 1.95082e-18)
(7.1966 2.99569 1.00762e-18)
(7.33026 2.74045 -9.40996e-19)
(7.45275 2.47849 4.9419e-19)
(7.56372 2.21032 2.23575e-20)
(7.66287 1.93653 -5.20105e-19)
(7.74992 1.65767 -2.51979e-19)
(7.82459 1.37432 5.0525e-19)
(7.88664 1.08718 -2.53271e-19)
(7.93598 0.796742 -5.11097e-19)
(7.97243 0.50368 5.92033e-20)
(7.99574 0.208638 6.404e-20)
(5.37751 4.69687 0)