/*--------------------------------*- C++ -*----------------------------------*\
  =========                 |
  \\      /  F ield         | OpenFOAM: The Open Source CFD Toolbox
   \\    /   O peration     | Website:  https://openfoam.org
    \\  /    A nd           | Version:  6.0
     \\/     M anipulation  |
\*---------------------------------------------------------------------------*/
FoamFile
{
    version     2.0;
    format      ascii;
    class       volScalarField;
    location    "15";
    object      p;
}
// * * * * * * * * * * * * * * * * * * * * * * * * * * * * * * * * * * * * * //

dimensions      [0 2 -2 0 0 0 0];

internalField   nonuniform List<scalar> 
2400
(
-39.5862
-31.7165
-26.7093
-22.9069
-19.629
-16.858
-14.5522
-12.6275
-11.0044
-9.63869
-41.1736
-33.1326
-27.934
-23.9623
-20.5489
-17.6741
-15.2892
-13.3028
-11.6294
-10.2253
-42.727
-34.5094
-29.1181
-24.9788
-21.4334
-18.4588
-15.9991
-13.9545
-12.2339
-10.7953
-44.2311
-35.8351
-30.2513
-25.9466
-22.2727
-19.2025
-16.6718
-14.573
-12.8098
-11.3436
-45.6714
-37.0974
-31.323
-26.8568
-23.0591
-19.8973
-17.2987
-15.1479
-13.346
-11.8584
-47.0351
-38.2843
-32.3226
-27.7004
-23.7857
-20.5392
-17.8775
-15.6771
-13.8365
-12.3257
-48.314
-39.3855
-33.2381
-28.4644
-24.4402
-21.119
-18.4059
-16.1654
-14.29
-12.7535
-49.506
-40.3952
-34.0595
-29.1337
-25.001
-21.609
-18.8534
-16.5885
-14.7046
-13.1882
-50.6109
-41.3127
-34.7853
-29.7034
-25.4532
-21.974
-19.1547
-16.8545
-14.9957
-13.6083
-51.6175
-42.1394
-35.4248
-30.1874
-25.8125
-22.2234
-19.2954
-16.8961
-14.9965
-13.6562
-57.0088
-56.8849
-56.6362
-56.284
-55.8442
-55.3222
-54.7231
-54.0519
-53.3123
-52.5041
-46.1274
-46.1028
-45.9745
-45.7559
-45.4551
-45.0771
-44.6275
-44.1106
-43.528
-42.8743
-38.2756
-38.3015
-38.2435
-38.1103
-37.9056
-37.6351
-37.306
-36.9223
-36.4843
-35.9884
-32.3486
-32.3787
-32.3396
-32.2373
-32.0757
-31.8618
-31.6042
-31.3074
-30.9761
-30.6069
-27.5935
-27.6063
-27.5596
-27.4586
-27.3085
-27.1171
-26.8952
-26.6497
-26.3917
-26.1168
-23.7846
-23.7751
-23.7125
-23.6012
-23.4486
-23.2611
-23.0543
-22.8364
-22.629
-22.4254
-20.7077
-20.6779
-20.5992
-20.4756
-20.3148
-20.1213
-19.9172
-19.7104
-19.5414
-19.392
-18.1727
-18.1278
-18.037
-17.9036
-17.7342
-17.5297
-17.3179
-17.106
-16.972
-16.8694
-16.042
-15.9882
-15.892
-15.7561
-15.5839
-15.3709
-15.1451
-14.9088
-14.7979
-14.7697
-14.2473
-14.1801
-14.0762
-13.9392
-13.7669
-13.5511
-13.307
-13.0278
-12.8644
-12.917
-50.8895
-52.0885
-53.1603
-54.1113
-54.9354
-55.6235
-56.1713
-56.5807
-56.8554
-56.9947
-39.9833
-41.1041
-42.1241
-43.0379
-43.838
-44.5185
-45.0777
-45.5175
-45.8377
-46.0389
-32.5827
-33.5906
-34.5139
-35.3417
-36.0672
-36.6889
-37.2077
-37.6251
-37.939
-38.1548
-27.3578
-28.2509
-29.0656
-29.7897
-30.4205
-30.9598
-31.4103
-31.7726
-32.0462
-32.2379
-23.3236
-24.119
-24.8334
-25.4578
-25.9965
-26.4546
-26.8337
-27.1344
-27.3583
-27.5114
-20.1463
-20.8708
-21.5004
-22.0356
-22.4934
-22.8805
-23.196
-23.4409
-23.6185
-23.7332
-17.5775
-18.2582
-18.8218
-19.2816
-19.672
-19.9998
-20.2618
-20.4603
-20.5995
-20.6823
-15.4532
-16.0847
-16.5935
-16.9979
-17.3366
-17.6155
-17.8337
-17.9965
-18.1072
-18.1666
-13.7887
-14.2807
-14.6973
-15.0664
-15.3688
-15.6014
-15.7795
-15.9141
-16.0047
-16.0485
-12.7744
-13.0288
-13.2011
-13.5237
-13.7966
-13.9683
-14.0894
-14.1852
-14.2492
-14.2719
-6.52827
-7.54999
-8.78882
-10.2454
-11.9931
-14.1615
-16.9355
-20.6156
-26.2803
-35.6729
-7.04094
-8.12257
-9.41965
-10.9465
-12.7811
-15.0568
-17.9643
-21.8098
-27.6673
-37.2396
-7.5621
-8.70447
-10.0607
-11.6598
-13.5837
-15.9688
-19.012
-23.0244
-29.0728
-38.816
-8.09348
-9.29608
-10.7111
-12.3834
-14.3976
-16.8933
-20.073
-24.2529
-30.4916
-40.4029
-8.63159
-9.89516
-11.3695
-13.1161
-15.2211
-17.8272
-21.1429
-25.4892
-31.916
-41.9918
-9.18007
-10.5029
-12.0349
-13.8551
-16.0502
-18.7659
-22.2163
-26.7266
-33.3368
-43.5711
-9.74381
-11.1287
-12.7155
-14.6049
-16.8858
-19.707
-23.2882
-27.9575
-34.7445
-45.129
-10.3334
-11.7711
-13.4018
-15.3544
-17.7184
-20.6423
-24.3498
-29.1719
-36.128
-46.6542
-11.0051
-12.4752
-14.1145
-16.1121
-18.5495
-21.567
-25.3915
-30.3577
-37.4743
-48.1339
-11.7747
-13.1598
-14.7868
-16.8471
-19.3621
-22.4669
-26.4001
-31.5009
-38.7663
-49.5525
-2.41602
-2.85522
-3.53004
-4.39908
-5.45374
-6.76341
-8.44868
-10.7228
-14.6152
-22.1825
-2.7732
-3.27142
-4.00659
-4.91078
-5.99804
-7.35495
-9.10999
-11.4841
-15.515
-23.2394
-3.03503
-3.63449
-4.44549
-5.40772
-6.55313
-7.97868
-9.82029
-12.3088
-16.4891
-24.3737
-3.36713
-4.02843
-4.89477
-5.91486
-7.12704
-8.6323
-10.5722
-13.1876
-17.531
-25.5875
-3.75788
-4.46245
-5.37678
-6.453
-7.73321
-9.32196
-11.3668
-14.1179
-18.6347
-26.8724
-4.17308
-4.92353
-5.88852
-7.02305
-8.37376
-10.0495
-12.2045
-15.098
-19.7952
-28.2193
-4.60534
-5.40689
-6.42513
-7.62064
-9.04536
-10.8126
-13.0829
-16.1249
-21.0081
-29.6214
-5.05882
-5.91346
-6.98559
-8.24377
-9.74551
-11.6083
-13.9991
-17.195
-22.2688
-31.0734
-5.53361
-6.44206
-7.56847
-8.89084
-10.4721
-12.4339
-14.9492
-18.3038
-23.5727
-32.5703
-6.02543
-6.98929
-8.17107
-9.55943
-11.2227
-13.2864
-15.9297
-19.4462
-24.913
-34.107
-1.67185
-1.22148
-0.954408
-0.758192
-0.628305
-0.547558
-0.516515
-0.532273
-0.594916
-0.703578
-2.33609
-1.92699
-1.62205
-1.40056
-1.25259
-1.16166
-1.12627
-1.14251
-1.20967
-1.32628
-3.04074
-2.65692
-2.3434
-2.10948
-1.94896
-1.85158
-1.81465
-1.83417
-1.90871
-2.0364
-3.90743
-3.50864
-3.18013
-2.93046
-2.75481
-2.64777
-2.60641
-2.62711
-2.70787
-2.84653
-4.94838
-4.52125
-4.16816
-3.896
-3.70122
-3.5808
-3.53198
-3.55156
-3.63723
-3.78668
-6.22495
-5.76004
-5.37296
-5.06994
-4.84951
-4.70998
-4.64895
-4.66358
-4.75139
-4.91003
-7.85214
-7.33187
-6.89502
-6.54708
-6.2885
-6.11856
-6.0353
-6.03619
-6.11869
-6.28056
-10.0363
-9.43166
-8.91793
-8.50066
-8.18152
-7.96047
-7.83598
-7.80594
-7.86794
-8.01973
-13.794
-13.0624
-12.4321
-11.9094
-11.4961
-11.1924
-10.9972
-10.9091
-10.9262
-11.0444
-21.1895
-20.301
-19.5295
-18.8782
-18.3479
-17.9387
-17.6501
-17.4818
-17.4318
-17.4913
-0.856854
-1.0525
-1.28814
-1.56028
-1.8638
-2.18938
-2.51963
-2.83557
-3.13478
-3.44037
-1.4907
-1.70039
-1.95251
-2.24303
-2.56637
-2.91548
-3.27994
-3.63963
-3.97552
-4.34861
-2.21532
-2.44266
-2.71543
-3.02953
-3.37958
-3.75956
-4.16162
-4.57204
-4.9827
-5.43585
-3.04089
-3.28783
-3.58428
-3.92626
-4.30889
-4.72667
-5.17264
-5.63848
-6.12565
-6.65999
-3.99745
-4.26616
-4.58979
-4.96455
-5.38614
-5.84953
-6.34877
-6.87903
-7.44447
-8.05999
-5.13689
-5.42837
-5.78158
-6.19305
-6.6589
-7.17466
-7.73573
-8.33932
-8.98874
-9.69175
-6.51912
-6.83035
-7.21165
-7.65979
-8.17137
-8.7426
-9.36992
-10.0517
-10.7898
-11.5878
-8.25817
-8.57849
-8.97876
-9.45621
-10.0079
-10.6304
-11.3212
-12.0793
-12.9058
-13.802
-11.2576
-11.5632
-11.9608
-12.4481
-13.022
-13.6799
-14.4199
-15.2425
-16.1491
-17.1372
-17.6437
-17.9026
-18.2678
-18.7354
-19.3023
-19.9662
-20.7269
-21.5874
-22.5494
-23.6017
-24.719
-18.1984
-14.7655
-12.4449
-10.449
-8.73
-7.25892
-5.98774
-4.89996
-4.01164
-25.9253
-19.3308
-15.79
-13.3554
-11.2532
-9.44221
-7.89684
-6.57317
-5.45386
-4.52272
-27.2205
-20.5333
-16.8723
-14.315
-12.1002
-10.1932
-8.57078
-7.18705
-6.0128
-5.01642
-28.5964
-21.8009
-18.0067
-15.3177
-12.9838
-10.9758
-9.27165
-7.82218
-6.59092
-5.54378
-30.0437
-23.1261
-19.1866
-16.3569
-13.8978
-11.7848
-9.99553
-8.47742
-7.18774
-6.09051
-31.5525
-24.4998
-20.4037
-17.4254
-14.8359
-12.6145
-10.7381
-9.15044
-7.80307
-6.65771
-33.1124
-25.9122
-21.6491
-18.5152
-15.7911
-13.4592
-11.4948
-9.83727
-8.43198
-7.23836
-34.7133
-27.3532
-22.913
-19.6173
-16.7559
-14.3128
-12.2607
-10.534
-9.07185
-7.83157
-36.3421
-28.8114
-24.1851
-20.7228
-17.7225
-15.1685
-13.03
-11.2356
-9.7181
-8.43368
-37.9766
-30.2719
-25.4549
-21.8229
-18.6833
-16.0197
-13.7963
-11.9358
-10.3649
-9.03905
-6.13574
-2.86891
-1.45759
-0.715341
-0.30841
-0.134126
-0.0739601
-0.0724137
-0.0933706
-0.121861
-0.145403
-0.164063
-0.170067
-0.163563
-0.144014
-0.0973097
-0.0590296
-0.00489693
0.0173267
-0.00644668
-6.6633
-3.21377
-1.63611
-0.836185
-0.39242
-0.190568
-0.113584
-0.100523
-0.113287
-0.135776
-0.154993
-0.170485
-0.174314
-0.166257
-0.145552
-0.0984912
-0.0599506
-0.00639081
0.0154599
-0.00712135
-7.18981
-3.58087
-1.83207
-0.961566
-0.47811
-0.246931
-0.152149
-0.127449
-0.132174
-0.148895
-0.164013
-0.17653
-0.178342
-0.168847
-0.147086
-0.0997481
-0.0609667
-0.0079992
0.0136085
-0.00772734
-7.71973
-3.95978
-2.03392
-1.08534
-0.563021
-0.302806
-0.189752
-0.153332
-0.150147
-0.161297
-0.172518
-0.182234
-0.182173
-0.171346
-0.148626
-0.101082
-0.0620736
-0.00970743
0.0117749
-0.0082664
-8.23153
-4.31514
-2.21782
-1.19699
-0.6432
-0.357108
-0.226195
-0.178186
-0.167266
-0.173041
-0.180549
-0.187623
-0.185823
-0.173766
-0.150176
-0.102491
-0.0632656
-0.0115018
0.00995976
-0.00874064
-8.67731
-4.62649
-2.38671
-1.30336
-0.722042
-0.410934
-0.261782
-0.202113
-0.183594
-0.184171
-0.188138
-0.192718
-0.189301
-0.176113
-0.151736
-0.103971
-0.0645342
-0.0133672
0.00816467
-0.00915253
-9.09538
-5.00502
-2.63012
-1.45397
-0.820524
-0.471873
-0.299181
-0.226091
-0.19953
-0.19488
-0.195386
-0.197579
-0.192647
-0.178412
-0.153321
-0.105522
-0.065874
-0.0152891
0.0063917
-0.00950553
-9.75609
-5.68095
-3.07155
-1.70467
-0.961918
-0.550039
-0.342946
-0.25216
-0.216019
-0.205652
-0.202566
-0.202379
-0.195985
-0.180764
-0.155007
-0.10718
-0.0672987
-0.0172591
0.00464459
-0.00980448
-10.7315
-6.53693
-3.59803
-1.98279
-1.11316
-0.634725
-0.390143
-0.279505
-0.23287
-0.216467
-0.209699
-0.207143
-0.19934
-0.183191
-0.156818
-0.10897
-0.0688198
-0.0192801
0.00291855
-0.0100496
-10.7433
-6.65052
-3.6854
-2.02234
-1.15371
-0.674203
-0.41821
-0.297758
-0.24507
-0.224629
-0.215211
-0.210778
-0.201828
-0.184925
-0.158103
-0.11053
-0.0702478
-0.0213161
0.0011795
-0.01022
-9.17969
-5.99773
-3.34344
-1.83377
-1.0838
-0.664523
-0.423819
-0.304636
-0.251254
-0.229245
-0.21848
-0.212617
-0.202651
-0.18508
-0.158022
-0.111755
-0.0718347
-0.024186
-0.00134991
-0.0103301
-7.51828
-5.25231
-3.05305
-1.70821
-1.04703
-0.681701
-0.455514
-0.332127
-0.272443
-0.244495
-0.229017
-0.219251
-0.206612
-0.187194
-0.158889
-0.113285
-0.0735154
-0.027435
-0.00445857
-0.010479
-6.03962
-4.49562
-2.77419
-1.60332
-1.00565
-0.686427
-0.481656
-0.358451
-0.293695
-0.260414
-0.240356
-0.226512
-0.210945
-0.189447
-0.159687
-0.11469
-0.0751864
-0.0308431
-0.00781202
-0.0105607
-4.6612
-3.69573
-2.46047
-1.51243
-0.976284
-0.688051
-0.503607
-0.38336
-0.314023
-0.275584
-0.251198
-0.233391
-0.21491
-0.191352
-0.160247
-0.116137
-0.0770818
-0.0346047
-0.0114551
-0.0105142
-3.55608
-2.97038
-2.13345
-1.4044
-0.939656
-0.68044
-0.517247
-0.404516
-0.332774
-0.289768
-0.261376
-0.239813
-0.218486
-0.192929
-0.160648
-0.117657
-0.0792021
-0.0386246
-0.0152938
-0.0103356
-2.71307
-2.34411
-1.80014
-1.28231
-0.90925
-0.67776
-0.527802
-0.421664
-0.349209
-0.302515
-0.270538
-0.245574
-0.221578
-0.194155
-0.160912
-0.119179
-0.0814573
-0.0427229
-0.0191735
-0.0100566
-2.11695
-1.87465
-1.52762
-1.17099
-0.877885
-0.671249
-0.53157
-0.432752
-0.362188
-0.313313
-0.278327
-0.250411
-0.224039
-0.194975
-0.161032
-0.120618
-0.0837277
-0.0466932
-0.0228901
-0.00973493
-1.73708
-1.55973
-1.3241
-1.07147
-0.843477
-0.664687
-0.535157
-0.441404
-0.372394
-0.321995
-0.284502
-0.254132
-0.225784
-0.195391
-0.161024
-0.121885
-0.085849
-0.0502842
-0.0261873
-0.00944603
-1.51458
-1.36919
-1.19208
-1.00013
-0.815889
-0.658827
-0.53686
-0.446051
-0.378415
-0.327625
-0.288651
-0.25659
-0.226817
-0.195496
-0.160941
-0.122887
-0.0875913
-0.0531846
-0.0287535
-0.00926527
-1.40776
-1.2765
-1.12555
-0.961775
-0.799425
-0.654695
-0.537601
-0.448508
-0.381625
-0.330719
-0.290935
-0.257885
-0.227285
-0.195464
-0.16086
-0.12351
-0.0886447
-0.0549958
-0.0302166
-0.00922134
-11.81
-11.6798
-11.5211
-11.3426
-11.1287
-10.8809
-10.5654
-10.2161
-9.80861
-9.71281
-9.01177
-8.84488
-8.65859
-8.46454
-8.2509
-8.03148
-7.79343
-7.61447
-7.49486
-7.66141
-6.75894
-6.6257
-6.489
-6.36179
-6.24583
-6.15638
-6.08841
-6.06262
-6.04101
-6.11262
-5.07859
-5.00016
-4.92638
-4.86246
-4.80686
-4.75811
-4.70279
-4.64351
-4.5809
-4.59832
-3.84431
-3.79686
-3.7492
-3.7004
-3.64912
-3.59636
-3.54374
-3.50102
-3.47582
-3.49388
-2.9599
-2.92789
-2.89443
-2.85978
-2.82541
-2.79334
-2.76457
-2.73944
-2.71805
-2.70737
-2.36904
-2.34857
-2.32623
-2.30214
-2.27666
-2.25005
-2.22246
-2.19418
-2.16692
-2.14363
-1.99193
-1.97688
-1.95924
-1.93916
-1.91696
-1.89297
-1.8676
-1.84122
-1.81447
-1.7879
-1.76718
-1.75499
-1.7401
-1.7227
-1.703
-1.68124
-1.65765
-1.63247
-1.606
-1.57856
-1.6581
-1.64724
-1.63371
-1.61765
-1.59921
-1.57855
-1.55585
-1.53129
-1.50508
-1.47741
-11.8052
-12.128
-11.5979
-11.6993
-11.9216
-11.9817
-11.9708
-11.9619
-11.9463
-11.901
-10.288
-10.4592
-9.53727
-9.27415
-9.43015
-9.49394
-9.42271
-9.32894
-9.2446
-9.1466
-8.36532
-8.36266
-7.40232
-6.9956
-7.0998
-7.2221
-7.1922
-7.08903
-6.98289
-6.87822
-6.38156
-6.34864
-5.58217
-5.19929
-5.25376
-5.3889
-5.4087
-5.33657
-5.24377
-5.15878
-4.67773
-4.68455
-4.20272
-3.92169
-3.92789
-4.02076
-4.05353
-4.01604
-3.95343
-3.89495
-3.38372
-3.42016
-3.1879
-3.0301
-3.01455
-3.05616
-3.07708
-3.06142
-3.02764
-2.99243
-2.50923
-2.55015
-2.47166
-2.41075
-2.40134
-2.41617
-2.42559
-2.42061
-2.40608
-2.38813
-1.99006
-2.02692
-2.01706
-2.00638
-2.00819
-2.01584
-2.0208
-2.01991
-2.0139
-2.00432
-1.71924
-1.75111
-1.76252
-1.76858
-1.77533
-1.78178
-1.78571
-1.78608
-1.78292
-1.77654
-1.60095
-1.6299
-1.64564
-1.65524
-1.663
-1.66921
-1.67297
-1.67374
-1.67145
-1.6662
0.143251
0.114394
0.0471925
-0.0804104
-0.294451
-0.663424
-1.26879
-2.3316
-4.07731
-7.88466
0.0281664
-0.00332858
-0.0732248
-0.205591
-0.423752
-0.801358
-1.39942
-2.48289
-4.1057
-7.37909
-0.0956082
-0.128001
-0.196565
-0.326735
-0.532237
-0.894139
-1.41959
-2.40816
-3.71778
-6.13813
-0.225888
-0.258608
-0.323911
-0.448715
-0.631865
-0.96195
-1.38817
-2.18193
-3.18355
-4.82257
-0.359201
-0.391171
-0.45189
-0.567528
-0.727296
-1.00676
-1.35335
-1.91138
-2.65861
-3.68655
-0.490931
-0.519685
-0.575421
-0.675361
-0.816511
-1.02981
-1.31683
-1.67647
-2.19928
-2.81959
-0.614562
-0.63749
-0.68765
-0.768041
-0.89042
-1.04302
-1.26781
-1.50179
-1.84159
-2.2113
-0.721151
-0.738286
-0.780919
-0.844106
-0.942891
-1.05483
-1.21761
-1.38222
-1.59862
-1.82474
-0.801688
-0.815325
-0.849648
-0.900627
-0.976959
-1.06566
-1.18324
-1.30852
-1.45632
-1.61032
-0.848144
-0.860296
-0.8889
-0.932859
-0.995679
-1.07237
-1.16695
-1.27169
-1.38841
-1.51216
0.880181
0.867393
0.835113
0.76733
0.640131
0.406235
0.00495196
-0.704126
-1.87265
-4.04157
0.800975
0.786477
0.750047
0.675874
0.54026
0.293961
-0.124362
-0.85957
-2.0813
-4.35214
0.723273
0.707137
0.666752
0.586381
0.442479
0.183991
-0.251774
-1.01302
-2.28743
-4.66005
0.647236
0.629554
0.585441
0.499084
0.347017
0.0765242
-0.377041
-1.16459
-2.49329
-4.96919
0.573001
0.553883
0.506294
0.414178
0.254054
-0.0283461
-0.500102
-1.31429
-2.69858
-5.27248
0.500676
0.480252
0.429459
0.331813
0.163729
-0.130596
-0.62102
-1.46247
-2.90646
-5.57716
0.430354
0.408777
0.355061
0.252105
0.0761409
-0.23026
-0.739811
-1.60892
-3.11193
-5.8682
0.362117
0.339608
0.283269
0.175184
-0.00863431
-0.327448
-0.856857
-1.75689
-3.32575
-6.19707
0.295977
0.272796
0.214212
0.101218
-0.090492
-0.422305
-0.971772
-1.90591
-3.52413
-6.54526
0.231656
0.207518
0.146804
0.0291963
-0.170308
-0.516512
-1.09072
-2.0806
-3.78155
-7.16699
1.70705
1.71098
1.72261
1.72441
1.69073
1.57965
1.33781
0.915198
0.0865084
-1.4624
1.62485
1.62622
1.63206
1.62324
1.5729
1.43626
1.14835
0.664662
-0.207944
-1.84325
1.5422
1.54238
1.54423
1.52846
1.46915
1.32473
1.03066
0.54843
-0.258189
-1.82881
1.45899
1.45805
1.45628
1.43484
1.36902
1.22095
0.928861
0.446973
-0.335567
-1.94393
1.37539
1.37302
1.36726
1.33977
1.26638
1.11048
0.809937
0.299529
-0.525604
-2.20892
1.29166
1.28767
1.27759
1.24349
1.16116
0.993052
0.675207
0.121423
-0.765819
-2.50554
1.20807
1.20237
1.18782
1.14689
1.05515
0.873231
0.536641
-0.0572669
-1.00112
-2.79625
1.12488
1.11743
1.09837
1.05059
0.949603
0.754099
0.400698
-0.225818
-1.2238
-3.09363
1.04235
1.03311
1.00956
0.955005
0.845071
0.636521
0.267524
-0.387549
-1.44232
-3.40535
0.960709
0.949679
0.921705
0.860474
0.741825
0.520521
0.135721
-0.546682
-1.65945
-3.72516
3.36019
3.38332
3.42878
3.49306
3.56827
3.64498
3.71527
3.77418
3.8198
3.85215
3.27156
3.29709
3.34762
3.41962
3.5051
3.59456
3.67979
3.75518
3.81766
3.86629
3.12486
3.15321
3.20965
3.29061
3.38801
3.49212
3.59444
3.68884
3.77006
3.83767
2.94179
2.97186
3.03194
3.11844
3.22307
3.33568
3.4464
3.54643
3.62912
3.70198
2.73994
2.76994
2.82993
2.91595
3.01874
3.12693
3.22905
3.31401
3.37348
3.42989
2.53347
2.56159
2.61774
2.69724
2.78973
2.88269
2.96076
3.00074
2.99118
2.9963
2.33293
2.35771
2.40707
2.4749
2.54841
2.61255
2.64905
2.62118
2.50408
2.41513
2.14531
2.1658
2.20644
2.25935
2.309
2.33674
2.323
2.21168
1.92855
1.6543
1.97454
1.99039
2.02133
2.0567
2.07787
2.05997
1.98046
1.77635
1.30297
0.745794
1.8216
1.83243
1.85423
1.87259
1.86512
1.79842
1.63925
1.3288
0.648911
-0.398192
3.86489
3.86902
3.87217
3.8744
3.87562
3.87572
3.87457
3.87203
3.86794
3.86213
3.89295
3.90001
3.90432
3.90725
3.90883
3.90878
3.9069
3.90302
3.89694
3.88845
3.88683
3.90022
3.90917
3.91551
3.91944
3.92064
3.91887
3.91391
3.90551
3.89341
3.77316
3.79589
3.81341
3.82627
3.83486
3.83896
3.83828
3.83256
3.8215
3.80481
3.52289
3.55864
3.5874
3.60873
3.62327
3.63082
3.63108
3.62373
3.60843
3.58482
3.11428
3.17045
3.21503
3.24887
3.27241
3.28532
3.28721
3.27764
3.25618
3.22247
2.56189
2.64392
2.70539
2.75346
2.787
2.80553
2.8085
2.7954
2.76571
2.71905
1.81699
1.94227
2.02843
2.09688
2.14424
2.1716
2.17832
2.1637
2.12653
2.06574
0.898988
1.06787
1.17586
1.26898
1.33434
1.37376
1.38463
1.36568
1.31489
1.23092
-0.288432
-0.0159745
0.134679
0.26327
0.346632
0.393747
0.401644
0.370467
0.298715
0.185997
3.8544
3.84455
3.83237
3.81768
3.8003
3.78006
3.75685
3.73058
3.7012
3.66876
3.87732
3.8633
3.84619
3.82578
3.80188
3.77439
3.74323
3.70834
3.66962
3.62731
3.87734
3.85701
3.83214
3.80251
3.76797
3.72851
3.68402
3.63368
3.57653
3.51651
3.78216
3.75322
3.71761
3.67514
3.62609
3.57099
3.50851
3.43355
3.34469
3.26696
3.55252
3.51106
3.45983
3.39884
3.32994
3.25514
3.16866
3.05276
2.90728
2.81259
3.17628
3.11702
3.04364
2.95635
2.85971
2.7591
2.6415
2.46448
2.22491
2.09956
2.65528
2.57366
2.47214
2.35
2.21367
2.07387
1.91312
1.65774
1.28946
1.10547
1.98092
1.87119
1.73368
1.56572
1.37297
1.17189
0.95086
0.615704
0.125648
-0.114344
1.11398
0.964229
0.779748
0.557803
0.301593
0.0303568
-0.248138
-0.618364
-1.14754
-1.37556
0.0335182
-0.157363
-0.386128
-0.651882
-0.95148
-1.26973
-1.57941
-1.90795
-2.3446
-2.5103
3.58073
3.37017
3.12881
2.85641
2.54332
2.19045
1.8164
1.44214
1.08977
0.777512
0.514358
0.311014
0.158391
0.0614357
0.00572095
-0.0162992
-0.00270728
0.0081245
0.0344244
0.032994
3.51319
3.26578
3.03368
2.76488
2.44467
2.08688
1.71506
1.34808
1.00717
0.707671
0.458394
0.267479
0.125026
0.0377552
-0.0130314
-0.0271474
-0.0101246
0.00438811
0.0384898
0.0337473
3.372
3.0986
2.88527
2.61204
2.28462
1.92788
1.56476
1.21223
0.890579
0.611433
0.383362
0.210108
0.0827667
0.00802745
-0.0355179
-0.038921
-0.0192915
0.0022644
0.0448765
0.033344
3.13378
2.87296
2.66936
2.3954
2.07596
1.73377
1.38939
1.05976
0.763816
0.510026
0.306383
0.152399
0.0418375
-0.0207631
-0.0560728
-0.0493228
-0.0280988
0.00203857
0.0498418
0.0304595
2.75243
2.56187
2.36851
2.11945
1.83197
1.52125
1.2069
0.907395
0.640938
0.414369
0.235099
0.0999099
0.00537984
-0.0465161
-0.0735987
-0.0585978
-0.0357315
0.00245339
0.0519095
0.026018
2.15256
2.1169
1.98067
1.79565
1.56741
1.30542
1.0307
0.765686
0.529739
0.329699
0.1729
0.0547927
-0.0256147
-0.0683833
-0.0881519
-0.0667141
-0.0416931
0.00294293
0.0513467
0.021129
1.26732
1.48086
1.49999
1.43117
1.29119
1.0937
0.866169
0.638119
0.432276
0.256977
0.120194
0.0170922
-0.0513077
-0.0864419
-0.100041
-0.0734844
-0.0461129
0.00325097
0.0490004
0.0164842
0.141383
0.670742
0.953942
1.05005
1.01745
0.892726
0.71576
0.52501
0.347916
0.195187
0.0760017
-0.0141062
-0.0724407
-0.101219
-0.109666
-0.0789895
-0.0494131
0.00325356
0.0457757
0.0124108
-0.986294
-0.15142
0.440845
0.706334
0.772233
0.713562
0.582752
0.426123
0.275131
0.142533
0.0387678
-0.0400892
-0.0899328
-0.113349
-0.117466
-0.083452
-0.0519434
0.00295443
0.0423484
0.00899447
-1.71115
-0.722892
0.102828
0.472146
0.592212
0.575931
0.476903
0.345913
0.21567
0.0994545
0.00843137
-0.0610762
-0.10391
-0.122849
-0.123398
-0.0867824
-0.0537874
0.00243239
0.0390115
0.00615581
-1.79293
-0.875357
-0.000248015
0.395238
0.515807
0.512195
0.42464
0.304881
0.184691
0.076777
-0.00760136
-0.0720418
-0.111076
-0.127475
-0.126032
-0.0882501
-0.0546869
0.00170552
0.0361407
0.00415432
-1.90865
-0.949363
-0.122728
0.309631
0.431568
0.439946
0.36554
0.258643
0.150202
0.0520796
-0.0246418
-0.0833462
-0.118198
-0.131798
-0.128175
-0.0891429
-0.0549589
0.00160999
0.0342697
0.00278916
-2.23523
-1.0596
-0.27692
0.211904
0.34794
0.368879
0.307959
0.213115
0.115676
0.02695
-0.0422371
-0.0951344
-0.125662
-0.136298
-0.130279
-0.0899089
-0.05505
0.00161935
0.0324522
0.00148951
-2.63845
-1.18507
-0.432691
0.104062
0.264476
0.298937
0.252896
0.170555
0.0838826
0.00401698
-0.0582392
-0.105856
-0.132493
-0.140448
-0.132253
-0.0906999
-0.055232
0.00142266
0.0305972
0.000256192
-3.08587
-1.34016
-0.582667
-0.00995927
0.182359
0.231034
0.199996
0.130147
0.0539608
-0.0174047
-0.0731079
-0.115783
-0.138829
-0.144307
-0.13412
-0.0915226
-0.0555147
0.00101633
0.0287105
-0.000910965
-3.5521
-1.52182
-0.725187
-0.127514
0.100784
0.165328
0.149247
0.0917412
0.0256466
-0.037622
-0.087124
-0.125133
-0.144811
-0.147955
-0.135905
-0.0923712
-0.055877
0.00043418
0.0268102
-0.00201023
-4.03648
-1.73311
-0.863951
-0.246356
0.0193033
0.101838
0.10065
0.0553163
-0.00107402
-0.0566547
-0.100314
-0.133934
-0.150466
-0.151413
-0.137621
-0.0932531
-0.0563204
-0.000315207
0.024905
-0.00303984
-4.53913
-1.97343
-1.00237
-0.364744
-0.0622914
0.040426
0.0541543
0.0208016
-0.026249
-0.0745318
-0.112693
-0.142198
-0.1558
-0.154688
-0.139278
-0.0941793
-0.0568532
-0.00123015
0.0229999
-0.00399862
-5.06245
-2.24475
-1.14486
-0.481925
-0.14401
-0.0191421
0.00966321
-0.0119059
-0.049959
-0.0913122
-0.124303
-0.149952
-0.160831
-0.157794
-0.140888
-0.0951592
-0.0574809
-0.00230484
0.0210995
-0.00488599
-5.59969
-2.54499
-1.29527
-0.598192
-0.225897
-0.0771777
-0.0329713
-0.0429296
-0.0722981
-0.107064
-0.135189
-0.157229
-0.165579
-0.160746
-0.142463
-0.0962006
-0.0582061
-0.00353089
0.0192074
-0.00570183
)
;

boundaryField
{
    inlet
    {
        type            freestreamPressure;
        freestreamValue uniform 0;
        supersonic      false;
        value           nonuniform List<scalar> 
40
(
0.143251
0.0281664
-0.0956082
-0.225888
-0.359201
-0.490931
-0.614562
-0.721151
-0.801688
-0.848144
0.880181
0.800975
0.723273
0.647236
0.573001
0.500676
0.430354
0.362117
0.295977
0.231656
1.70705
1.62485
1.5422
1.45899
1.37539
1.29166
1.20807
1.12488
1.04235
0.960709
3.36019
3.27156
3.12486
2.94179
2.73994
2.53347
2.33293
2.14531
1.97454
1.8216
)
;
    }
    outlet
    {
        type            freestreamPressure;
        freestreamValue uniform 0;
        supersonic      false;
        value           nonuniform List<scalar> 
40
(
-7.39053e-06
-1.02724e-05
-1.36508e-05
-1.69325e-05
-1.92282e-05
-1.95115e-05
-1.70494e-05
-1.1974e-05
-5.65306e-06
-7.52882e-07
-6.98371e-10
-5.00752e-08
-2.01531e-07
-4.85867e-07
-9.272e-07
-1.54006e-06
-2.32733e-06
-3.27912e-06
-4.37148e-06
-5.56509e-06
6.40153e-07
4.04883e-07
1.96825e-07
2.95612e-08
-8.71364e-08
-1.48906e-07
-1.58488e-07
-1.26521e-07
-7.15537e-08
-1.92417e-08
2.77081e-08
1.94792e-07
1.2247e-07
1.04934e-08
4.57576e-07
1.23616e-06
1.73587e-06
1.75191e-06
1.43059e-06
9.89396e-07
)
;
    }
    top
    {
        type            symmetryPlane;
    }
    bottom
    {
        type            symmetryPlane;
    }
    cylinder
    {
        type            zeroGradient;
    }
    frontandback
    {
        type            empty;
    }
}


// ************************************************************************* //
