/*--------------------------------*- C++ -*----------------------------------*\
  =========                 |
  \\      /  F ield         | OpenFOAM: The Open Source CFD Toolbox
   \\    /   O peration     | Website:  https://openfoam.org
    \\  /    A nd           | Version:  6.0
     \\/     M anipulation  |
\*---------------------------------------------------------------------------*/
FoamFile
{
    version     2.0;
    format      ascii;
    class       volVectorField;
    location    "12.999";
    object      U;
}
// * * * * * * * * * * * * * * * * * * * * * * * * * * * * * * * * * * * * * //

dimensions      [0 1 -1 0 0 0 0];

internalField   nonuniform List<vector> 
19200
(
(0.098492 -4.74507 -6.4516e-21)
(0.0606616 -4.33242 3.25229e-21)
(0.0665231 -3.99424 1.50773e-21)
(0.0813123 -3.7174 1.32842e-21)
(0.0988701 -3.49038 1.48487e-21)
(0.120669 -3.30345 1.09031e-22)
(0.14612 -3.1487 2.10908e-21)
(0.174298 -3.01967 -1.38132e-22)
(0.2045 -2.9112 1.85734e-21)
(0.236133 -2.81912 7.85101e-22)
(0.268676 -2.74009 1.46852e-23)
(0.301684 -2.67143 1.24587e-21)
(0.334786 -2.61101 2.03731e-21)
(0.36767 -2.55712 -1.38139e-21)
(0.400085 -2.5084 1.79608e-21)
(0.431827 -2.46376 1.55386e-21)
(0.462735 -2.42233 -1.45447e-21)
(0.492686 -2.38343 2.49986e-21)
(0.521588 -2.34651 -1.58079e-21)
(0.549376 -2.31112 8.06927e-22)
(0.57601 -2.27692 1.125e-21)
(0.601465 -2.24362 -3.52565e-22)
(0.625734 -2.21098 4.79747e-22)
(0.648823 -2.17881 -5.5675e-22)
(0.670743 -2.14694 -1.59343e-24)
(0.691515 -2.11521 2.9902e-22)
(0.711161 -2.08345 -1.87588e-22)
(0.729706 -2.05153 1.26327e-22)
(0.747182 -2.01926 2.72623e-22)
(0.763594 -1.98646 1.1196e-21)
(0.22298 -4.74252 -1.50855e-21)
(0.175016 -4.33614 1.01215e-20)
(0.17273 -4.00322 -5.32979e-21)
(0.181095 -3.73119 -7.25578e-21)
(0.193612 -3.50859 -3.25889e-21)
(0.211438 -3.32558 -2.3596e-21)
(0.233732 -3.17419 -5.0965e-21)
(0.25937 -3.048 6.3991e-22)
(0.287496 -2.94187 -1.11319e-21)
(0.317394 -2.85166 -3.85086e-21)
(0.348448 -2.77406 -9.6586e-21)
(0.380139 -2.70645 4.74205e-21)
(0.412038 -2.64672 -1.74335e-21)
(0.443793 -2.59322 6.64627e-22)
(0.475118 -2.54462 -4.13942e-21)
(0.505787 -2.49986 -1.53332e-21)
(0.535622 -2.45812 1.77246e-22)
(0.564487 -2.41873 5.24143e-21)
(0.592284 -2.38117 -2.75765e-21)
(0.618944 -2.34504 -1.54076e-21)
(0.644422 -2.30999 -6.00154e-21)
(0.668696 -2.27578 1.54568e-21)
(0.691759 -2.24217 -9.8848e-22)
(0.713617 -2.20898 1.73324e-21)
(0.734287 -2.17606 -7.82376e-22)
(0.753791 -2.14326 -1.22014e-21)
(0.772152 -2.11042 4.06853e-22)
(0.7894 -2.0774 5.99063e-22)
(0.805591 -2.044 -1.10086e-21)
(0.820694 -2.01004 5.76049e-22)
(0.347147 -4.73712 -7.49824e-22)
(0.289336 -4.33731 2.36763e-21)
(0.279296 -4.00991 3.39226e-21)
(0.281569 -3.74294 2.57989e-20)
(0.28931 -3.52494 -1.4933e-20)
(0.303376 -3.34596 1.37896e-20)
(0.322684 -3.198 8.47682e-21)
(0.345918 -3.07469 6.57984e-21)
(0.372069 -2.9709 -6.41723e-21)
(0.400302 -2.88253 -7.49651e-22)
(0.42991 -2.80634 1.6312e-20)
(0.460303 -2.73972 2.74878e-21)
(0.490999 -2.68064 -7.48866e-21)
(0.521606 -2.62747 5.9915e-21)
(0.551809 -2.57892 -7.56296e-23)
(0.581358 -2.53399 2.57352e-21)
(0.610063 -2.49187 1.94358e-21)
(0.637778 -2.45194 6.34956e-21)
(0.664399 -2.4137 -2.8491e-21)
(0.689853 -2.37678 -9.48862e-22)
(0.714097 -2.34086 -2.48913e-21)
(0.737108 -2.30569 1.08781e-20)
(0.758883 -2.27109 -9.05936e-21)
(0.779431 -2.23687 3.03127e-21)
(0.79877 -2.2029 1.34263e-21)
(0.816926 -2.16904 -5.44603e-21)
(0.833925 -2.13513 7.32651e-21)
(0.849803 -2.10102 -8.34628e-22)
(0.864635 -2.06653 -8.36026e-22)
(0.878353 -2.03145 -5.87299e-21)
(0.471153 -4.72874 -2.45065e-20)
(0.403776 -4.33591 -2.23227e-20)
(0.386283 -4.01433 -2.74528e-20)
(0.382746 -3.75264 1.03881e-21)
(0.385959 -3.5394 1.6073e-21)
(0.396473 -3.36454 -3.12481e-20)
(0.412962 -3.22008 1.38469e-21)
(0.433921 -3.09966 4.0096e-21)
(0.458192 -2.9982 -6.9192e-22)
(0.484825 -2.91165 7.06583e-21)
(0.513024 -2.83681 -2.85107e-20)
(0.542134 -2.77114 -1.80077e-20)
(0.571621 -2.71265 6.71372e-21)
(0.601054 -2.65974 1.34978e-20)
(0.630094 -2.61119 -1.58347e-20)
(0.658473 -2.56602 -2.54897e-21)
(0.685986 -2.52347 -9.41441e-21)
(0.712481 -2.48295 -4.53473e-21)
(0.73785 -2.44399 7.51585e-21)
(0.76202 -2.40624 -9.73994e-21)
(0.784948 -2.3694 8.37063e-21)
(0.806614 -2.33327 -1.00246e-20)
(0.827019 -2.29765 -7.97361e-21)
(0.846175 -2.26241 -5.60796e-21)
(0.864105 -2.22739 -1.71712e-21)
(0.880837 -2.19246 -1.16876e-20)
(0.896399 -2.1575 1.18676e-21)
(0.910836 -2.12234 2.09885e-21)
(0.924241 -2.08679 -6.07283e-21)
(0.936505 -2.05064 1.31236e-21)
(0.594963 -4.71731 -1.49652e-20)
(0.518346 -4.33191 2.10105e-21)
(0.493694 -4.01645 1.9329e-20)
(0.484624 -3.76026 2.05234e-20)
(0.483549 -3.55191 1.46578e-20)
(0.490712 -3.38125 6.00933e-21)
(0.504544 -3.24033 9.46053e-21)
(0.523352 -3.1228 4.40421e-20)
(0.545833 -3.02365 -2.65104e-20)
(0.570925 -2.93889 7.22359e-22)
(0.597747 -2.86536 6.42738e-21)
(0.62558 -2.80058 2.81581e-20)
(0.653844 -2.74261 -1.94409e-20)
(0.682074 -2.68992 1.40894e-20)
(0.709905 -2.6413 -1.58537e-20)
(0.737055 -2.59584 2.70897e-20)
(0.76331 -2.55281 -8.1555e-21)
(0.788511 -2.51165 2.53914e-22)
(0.81255 -2.47192 1.3235e-20)
(0.835354 -2.43331 9.20046e-21)
(0.856883 -2.39554 -9.4885e-21)
(0.877122 -2.35842 1.28646e-20)
(0.896074 -2.32179 -5.95023e-21)
(0.913758 -2.2855 6.79797e-21)
(0.930202 -2.24944 9.00125e-21)
(0.945436 -2.21348 3.27279e-21)
(0.959492 -2.17749 1.00326e-20)
(0.972422 -2.14131 -3.55506e-21)
(0.984336 -2.10475 -1.31797e-21)
(0.995081 -2.06759 -6.00249e-21)
(0.718516 -4.70281 -1.1062e-20)
(0.633014 -4.32527 -7.44553e-21)
(0.601513 -4.01624 -2.24181e-20)
(0.587185 -3.76573 -5.82087e-20)
(0.582062 -3.56239 1.97509e-20)
(0.586072 -3.39602 1.25274e-21)
(0.597404 -3.25865 -1.36067e-20)
(0.614181 -3.14402 2.93878e-21)
(0.634955 -3.04716 -1.87287e-21)
(0.658558 -2.96414 -3.57116e-20)
(0.684027 -2.89186 1.52002e-20)
(0.710584 -2.82792 2.63223e-20)
(0.737604 -2.77041 1.81054e-22)
(0.764593 -2.71787 9.97602e-21)
(0.791165 -2.66914 2.47058e-20)
(0.817024 -2.62333 -1.70012e-20)
(0.841949 -2.57977 3.02761e-20)
(0.86578 -2.53792 -1.43977e-20)
(0.888407 -2.4974 2.6071e-20)
(0.909762 -2.4579 -1.94554e-20)
(0.929809 -2.41918 8.84313e-21)
(0.948537 -2.38106 2.32154e-20)
(0.965955 -2.34341 1.32736e-21)
(0.982088 -2.3061 -2.14113e-20)
(0.99697 -2.26901 1.2198e-20)
(1.01064 -2.23203 1.4953e-21)
(1.02312 -2.19505 -3.81519e-21)
(1.03448 -2.15789 1.49635e-20)
(1.04485 -2.12037 5.17596e-21)
(1.05402 -2.08226 -5.26563e-21)
(0.841743 -4.68523 3.08162e-20)
(0.747737 -4.31598 -1.35988e-21)
(0.709708 -4.01365 -4.6422e-20)
(0.690404 -3.76901 9.22681e-21)
(0.681473 -3.5708 -1.31729e-20)
(0.682524 -3.40876 9.62753e-21)
(0.69151 -3.27496 2.18485e-20)
(0.706368 -3.16322 3.99358e-20)
(0.725513 -3.06861 -4.35375e-20)
(0.747672 -2.98728 1.07566e-20)
(0.771806 -2.91621 -7.62703e-21)
(0.79708 -2.85304 5.71471e-21)
(0.82283 -2.79593 -2.50257e-20)
(0.848534 -2.74348 -1.4477e-21)
(0.87379 -2.69457 4.15498e-20)
(0.898291 -2.64837 -2.8611e-20)
(0.921812 -2.60424 -1.80724e-20)
(0.944192 -2.56168 -1.32903e-20)
(0.965325 -2.52033 2.47376e-20)
(0.985147 -2.47992 5.39331e-21)
(1.00363 -2.44024 -2.42989e-20)
(1.02076 -2.40112 3.28633e-20)
(1.03657 -2.36246 -2.95553e-20)
(1.05107 -2.32413 1.98696e-20)
(1.06432 -2.28603 -1.1121e-20)
(1.07635 -2.24808 7.43178e-21)
(1.0872 -2.21013 5.53221e-21)
(1.09693 -2.17205 -2.4498e-20)
(1.1057 -2.13362 1.07048e-20)
(1.11324 -2.09464 2.67208e-22)
(0.964571 -4.66459 -3.08039e-20)
(0.862464 -4.30401 2.58715e-20)
(0.818242 -4.00864 -4.82716e-20)
(0.794248 -3.77003 9.26136e-20)
(0.781748 -3.57704 -2.61601e-20)
(0.780035 -3.41938 3.7609e-20)
(0.786823 -3.28917 1.1119e-22)
(0.799869 -3.18028 -5.037e-21)
(0.817455 -3.08789 -7.92522e-21)
(0.838209 -3.0082 -1.58255e-22)
(0.861019 -2.93827 -3.10705e-20)
(0.884997 -2.87581 1.60479e-20)
(0.909443 -2.81906 -1.98441e-20)
(0.933814 -2.76663 -1.56004e-21)
(0.957692 -2.7175 -5.64884e-20)
(0.980764 -2.67086 1.84457e-20)
(1.0028 -2.62612 1.10026e-20)
(1.02365 -2.58281 -1.22235e-20)
(1.0432 -2.54062 -1.40635e-21)
(1.06141 -2.49929 -1.94142e-20)
(1.07823 -2.45864 -7.04483e-21)
(1.09369 -2.41853 6.82446e-22)
(1.10781 -2.37886 -1.72445e-20)
(1.12061 -2.33954 -2.55806e-20)
(1.13216 -2.30048 1.05029e-21)
(1.14249 -2.26157 -2.72127e-21)
(1.15164 -2.22272 8.17518e-21)
(1.1597 -2.18377 -2.02596e-20)
(1.16682 -2.14449 1.7276e-20)
(1.17269 -2.1047 -3.50509e-20)
(1.08693 -4.64088 -7.81709e-20)
(0.977143 -4.28934 9.69687e-20)
(0.927073 -4.00117 -1.03442e-19)
(0.898679 -3.76874 -2.77331e-20)
(0.882851 -3.58106 -1.83163e-20)
(0.878564 -3.4278 -1.97168e-20)
(0.883297 -3.30117 -1.82283e-20)
(0.894634 -3.19511 -3.93091e-21)
(0.910726 -3.10489 -1.86147e-20)
(0.930106 -3.02679 -4.72497e-21)
(0.951594 -2.95795 3.24935e-20)
(0.974256 -2.89614 -1.87462e-20)
(0.99736 -2.83967 -2.29251e-20)
(1.02034 -2.78723 -3.88522e-20)
(1.04278 -2.73782 8.20471e-20)
(1.06434 -2.6907 -3.20435e-20)
(1.08482 -2.64531 1.19658e-20)
(1.10405 -2.60124 -4.49656e-20)
(1.12194 -2.55819 1.70917e-20)
(1.13844 -2.51593 -7.2879e-21)
(1.15353 -2.47432 8.94535e-21)
(1.16723 -2.43323 -3.45576e-21)
(1.17958 -2.39258 2.92847e-20)
(1.19061 -2.3523 -1.05135e-20)
(1.20039 -2.31229 2.87049e-20)
(1.20896 -2.27249 -5.38908e-21)
(1.21637 -2.23278 3.7756e-20)
(1.22271 -2.19301 1.03863e-20)
(1.22814 -2.15296 1.97468e-20)
(1.23231 -2.11245 -6.41797e-20)
(1.20874 -4.6141 1.24078e-19)
(1.09171 -4.27193 -2.45907e-20)
(1.03615 -3.9912 4.38085e-20)
(1.00365 -3.76509 -1.30249e-20)
(0.984739 -3.58277 4.54528e-20)
(0.978065 -3.43394 4.35978e-20)
(0.980882 -3.31087 5.02433e-20)
(0.990604 -3.20761 -4.3257e-21)
(1.00526 -3.1195 -4.90115e-20)
(1.02329 -3.04293 7.24125e-20)
(1.04345 -2.97512 -5.86221e-21)
(1.06477 -2.9139 5.2693e-20)
(1.08649 -2.85766 1.92443e-20)
(1.10803 -2.80515 6.99548e-21)
(1.12895 -2.75543 1.20785e-20)
(1.14893 -2.7078 1.5923e-20)
(1.16776 -2.66174 2.70316e-20)
(1.18529 -2.61689 -7.83185e-21)
(1.20143 -2.57296 4.02671e-20)
(1.21613 -2.52979 1.88532e-20)
(1.22941 -2.48722 -3.95914e-20)
(1.24128 -2.44517 7.02766e-20)
(1.25178 -2.40357 -9.34654e-20)
(1.26097 -2.36236 8.93167e-20)
(1.26892 -2.32146 -2.9698e-20)
(1.27568 -2.28081 5.63683e-21)
(1.2813 -2.2403 -3.9628e-20)
(1.28587 -2.19979 2.21232e-20)
(1.28959 -2.15903 8.09729e-21)
(1.29202 -2.11787 -1.02744e-20)
(1.32993 -4.58426 -7.22543e-20)
(1.20612 -4.25179 7.28579e-20)
(1.14543 -3.97868 -1.99933e-20)
(1.10913 -3.759 5.82329e-20)
(1.08736 -3.58211 5.48349e-21)
(1.07849 -3.43771 1.30896e-20)
(1.07952 -3.31818 -1.02351e-19)
(1.08772 -3.21767 -1.78475e-20)
(1.10099 -3.13163 6.74535e-20)
(1.11769 -3.05653 5.27495e-20)
(1.13652 -2.98968 -8.9915e-20)
(1.15646 -2.929 5.31304e-20)
(1.17674 -2.87294 -5.35928e-20)
(1.19676 -2.82031 3.78673e-20)
(1.2161 -2.77023 -6.28614e-20)
(1.23442 -2.72206 -4.76257e-20)
(1.25152 -2.67532 2.95335e-21)
(1.26725 -2.62967 -2.23559e-20)
(1.28155 -2.58488 4.0092e-20)
(1.29439 -2.54079 1.57849e-20)
(1.30576 -2.49729 -1.0513e-20)
(1.31572 -2.4543 -3.27529e-21)
(1.32431 -2.41179 1.26452e-20)
(1.3316 -2.36969 -4.20518e-20)
(1.33766 -2.32795 7.14579e-20)
(1.34256 -2.28651 -1.73205e-20)
(1.34635 -2.24527 -1.4197e-21)
(1.34912 -2.20407 6.32618e-20)
(1.35109 -2.16269 8.6084e-21)
(1.35176 -2.12097 -9.09327e-21)
(1.45043 -4.55137 1.77412e-21)
(1.3203 -4.22888 -4.05698e-20)
(1.25485 -3.96358 -3.84479e-20)
(1.21504 -3.75043 -6.26198e-20)
(1.19067 -3.57899 1.55421e-21)
(1.17977 -3.43903 -4.62914e-20)
(1.17915 -3.32301 5.516e-20)
(1.1859 -3.2252 -4.7129e-21)
(1.19783 -3.14117 4.67897e-20)
(1.21321 -3.06747 -3.80755e-20)
(1.23069 -3.00152 -2.03202e-20)
(1.24922 -2.94132 1.11038e-20)
(1.26801 -2.88539 6.03924e-21)
(1.28645 -2.8326 -6.3345e-20)
(1.30412 -2.78214 3.79099e-20)
(1.32069 -2.7334 -1.94564e-20)
(1.33598 -2.68596 5.45415e-20)
(1.34984 -2.63952 -1.82357e-20)
(1.36221 -2.59387 1.94932e-20)
(1.37309 -2.54888 4.63767e-21)
(1.38249 -2.50447 3.31887e-20)
(1.39046 -2.46059 -6.83437e-21)
(1.39707 -2.4172 5.52037e-20)
(1.4024 -2.37427 -6.13497e-20)
(1.40652 -2.33175 -2.07163e-20)
(1.40951 -2.28958 1.72449e-20)
(1.41142 -2.24767 -1.41042e-21)
(1.41237 -2.20588 -3.04414e-20)
(1.41258 -2.16394 2.49737e-20)
(1.41147 -2.12177 -3.02456e-20)
(1.57015 -4.51544 1.24604e-19)
(1.43419 -4.20319 3.57691e-20)
(1.36436 -3.94585 4.18102e-20)
(1.32134 -3.73931 5.83166e-20)
(1.2946 -3.57336 8.7417e-20)
(1.28185 -3.43781 -2.02576e-21)
(1.2797 -3.32526 1.25756e-20)
(1.28509 -3.2301 1.02431e-19)
(1.29571 -3.14801 -2.08518e-20)
(1.30977 -3.07566 -3.8109e-20)
(1.32587 -3.01055 6.90202e-20)
(1.34295 -2.95078 1.20553e-20)
(1.36019 -2.89492 1.00663e-21)
(1.37698 -2.84195 1.68442e-20)
(1.3929 -2.79107 3.111e-20)
(1.40765 -2.74176 -6.46551e-20)
(1.42102 -2.69361 5.54954e-20)
(1.43292 -2.64638 9.77043e-21)
(1.44329 -2.59989 5.52901e-20)
(1.45212 -2.55403 -2.96986e-20)
(1.45947 -2.50875 5.03374e-20)
(1.46539 -2.46401 -5.34511e-20)
(1.46996 -2.41979 5.24035e-20)
(1.47326 -2.37608 7.36109e-21)
(1.4754 -2.33283 -3.5208e-20)
(1.47644 -2.29001 -1.16598e-20)
(1.47645 -2.24752 6.90062e-20)
(1.47554 -2.20521 5.04529e-20)
(1.47397 -2.16281 1.36496e-20)
(1.47108 -2.12026 -9.65695e-21)
(1.68904 -4.47648 1.34397e-20)
(1.54773 -4.17471 3.14856e-20)
(1.47389 -3.92546 1.26172e-19)
(1.42797 -3.72559 -2.06841e-19)
(1.39909 -3.56513 -2.06583e-20)
(1.38467 -3.43397 -2.21048e-20)
(1.3811 -3.32484 1.03478e-20)
(1.38519 -3.23228 1.49568e-20)
(1.39453 -3.15206 2.39394e-20)
(1.40727 -3.081 -6.37672e-20)
(1.42198 -3.01667 -1.28787e-20)
(1.43755 -2.95727 3.74349e-20)
(1.45317 -2.90146 4.09234e-20)
(1.46823 -2.84826 -4.03375e-20)
(1.48233 -2.79696 -4.0425e-20)
(1.49516 -2.74705 6.62423e-20)
(1.50654 -2.69821 4.41876e-20)
(1.51639 -2.6502 -1.0736e-20)
(1.52466 -2.60288 -2.8241e-20)
(1.53138 -2.55619 5.65934e-21)
(1.5366 -2.51007 -6.69171e-20)
(1.5404 -2.46452 8.17932e-20)
(1.54286 -2.41954 -5.60397e-20)
(1.54409 -2.37511 -2.39245e-21)
(1.5442 -2.33121 3.78544e-20)
(1.54325 -2.2878 -1.16238e-20)
(1.54133 -2.24481 -3.54626e-20)
(1.53856 -2.20206 4.40211e-20)
(1.53521 -2.15929 -1.05648e-21)
(1.53054 -2.11647 8.05406e-21)
(1.807 -4.43451 -9.12763e-21)
(1.66084 -4.14341 -3.18614e-20)
(1.58339 -3.90238 -1.46861e-19)
(1.53487 -3.70921 5.33079e-20)
(1.50407 -3.55424 -1.64279e-20)
(1.48814 -3.42744 5.55441e-20)
(1.48327 -3.32168 4.47685e-21)
(1.48612 -3.23164 -6.46207e-20)
(1.49421 -3.15324 1.00068e-19)
(1.50562 -3.08339 -9.07259e-20)
(1.51889 -3.01979 -3.85261e-21)
(1.5329 -2.96072 2.29668e-20)
(1.54683 -2.90492 -3.91192e-20)
(1.5601 -2.85146 4.60388e-20)
(1.57228 -2.79972 -8.76179e-20)
(1.58311 -2.74923 -2.01355e-20)
(1.59241 -2.69969 5.4315e-20)
(1.60013 -2.65093 3.07357e-22)
(1.60623 -2.60282 -3.48081e-20)
(1.61075 -2.55532 9.59175e-20)
(1.61377 -2.50842 -5.17657e-20)
(1.61538 -2.46212 -6.97337e-20)
(1.61569 -2.41642 2.32754e-20)
(1.6148 -2.37135 -6.86548e-20)
(1.61283 -2.32687 -1.66733e-20)
(1.60987 -2.28296 -2.07695e-21)
(1.606 -2.23955 -4.56879e-20)
(1.60135 -2.19646 5.47996e-20)
(1.5962 -2.15341 -3.05401e-20)
(1.58976 -2.11041 3.60291e-20)
(1.92397 -4.38953 -4.65334e-20)
(1.77346 -4.10929 -1.32093e-19)
(1.69278 -3.87656 6.46378e-20)
(1.64196 -3.69013 -6.3028e-20)
(1.60948 -3.54063 -4.59602e-20)
(1.59219 -3.41813 -2.70818e-20)
(1.58611 -3.31568 -1.01545e-19)
(1.58779 -3.22809 6.98337e-20)
(1.59464 -3.15144 -1.74561e-19)
(1.6047 -3.08275 -6.46533e-20)
(1.61649 -3.01983 2.31476e-20)
(1.62889 -2.96104 3.93248e-20)
(1.64107 -2.90521 -6.09433e-22)
(1.65245 -2.8515 -7.64698e-20)
(1.66264 -2.7993 1.81636e-20)
(1.67138 -2.74823 -7.14707e-20)
(1.67852 -2.69802 -5.16734e-20)
(1.68401 -2.64852 -3.14121e-20)
(1.68786 -2.59966 -6.23721e-21)
(1.69012 -2.55141 5.42807e-20)
(1.69088 -2.50378 7.79552e-20)
(1.69024 -2.45678 -2.35752e-20)
(1.68833 -2.41045 -2.3248e-20)
(1.68527 -2.36479 4.4882e-20)
(1.68119 -2.31982 2.48321e-20)
(1.67619 -2.27549 -1.99547e-20)
(1.67035 -2.23175 -2.25172e-20)
(1.66382 -2.18841 2.62074e-21)
(1.65689 -2.14518 2.33503e-20)
(1.64868 -2.10211 3.22216e-20)
(2.03987 -4.34157 -8.7097e-21)
(1.88552 -4.07233 1.69858e-19)
(1.80199 -3.84797 1.32397e-19)
(1.74917 -3.66829 1.03227e-19)
(1.71523 -3.52422 -6.79133e-20)
(1.69675 -3.40598 -1.35584e-20)
(1.68956 -3.30676 1.19423e-20)
(1.69009 -3.22156 9.00395e-20)
(1.69571 -3.14659 3.4019e-20)
(1.70441 -3.079 8.33949e-20)
(1.71468 -3.0167 -1.18309e-19)
(1.7254 -2.95816 1.18551e-20)
(1.73575 -2.90228 4.88541e-20)
(1.74517 -2.84829 3.07253e-20)
(1.75328 -2.79565 6.42776e-20)
(1.75984 -2.744 -4.41179e-20)
(1.76474 -2.69315 -4.11188e-20)
(1.76793 -2.64296 7.7002e-21)
(1.76945 -2.59339 8.96435e-20)
(1.76937 -2.54444 -1.44922e-19)
(1.7678 -2.49613 5.07464e-20)
(1.76486 -2.4485 -2.91075e-22)
(1.76068 -2.4016 9.73365e-20)
(1.75542 -2.35545 -4.20784e-20)
(1.7492 -2.31006 -2.34216e-21)
(1.74214 -2.2654 -2.73037e-20)
(1.73431 -2.22142 2.60353e-20)
(1.72589 -2.17794 6.37684e-21)
(1.71718 -2.13462 -2.9068e-20)
(1.70723 -2.0916 9.90113e-20)
(2.15461 -4.29065 -1.73236e-19)
(1.99695 -4.03253 -1.03851e-19)
(1.91096 -3.81658 -2.67627e-19)
(1.85643 -3.64365 -1.23312e-19)
(1.82124 -3.50497 1.16023e-19)
(1.80171 -3.39091 -6.90716e-20)
(1.79349 -3.29486 -1.77319e-20)
(1.79294 -3.21197 -4.66268e-20)
(1.79733 -3.13861 8.05524e-20)
(1.80464 -3.07206 -1.91228e-20)
(1.81334 -3.01034 -2.99423e-20)
(1.82231 -2.95202 -3.63252e-21)
(1.83076 -2.89607 -1.22993e-19)
(1.83813 -2.84179 -5.33082e-21)
(1.84408 -2.78871 3.29013e-20)
(1.84838 -2.73652 -4.14549e-21)
(1.85095 -2.68505 -1.30874e-19)
(1.85177 -2.63421 1.28161e-19)
(1.85088 -2.58397 -1.26883e-19)
(1.8484 -2.53438 4.99084e-20)
(1.84443 -2.48546 7.13997e-21)
(1.83913 -2.43727 2.71231e-21)
(1.83265 -2.38987 -5.36326e-20)
(1.82514 -2.34331 1.83366e-20)
(1.81675 -2.29759 -7.92416e-23)
(1.8076 -2.2527 6.1086e-21)
(1.79779 -2.20858 -1.36442e-19)
(1.78748 -2.16505 3.70977e-20)
(1.77701 -2.12175 3.99066e-20)
(1.76533 -2.07888 4.47652e-20)
(2.26814 -4.23679 3.40361e-19)
(2.10766 -3.98987 1.20122e-19)
(2.01961 -3.78237 7.13213e-20)
(1.96366 -3.61615 1.13483e-19)
(1.92744 -3.48281 -1.4025e-20)
(1.90699 -3.37286 8.76453e-20)
(1.89783 -3.27989 1.96287e-19)
(1.89621 -3.19924 -2.4728e-20)
(1.89937 -3.12742 1.21238e-20)
(1.90525 -3.06186 2.38773e-19)
(1.91233 -3.00068 -3.17058e-20)
(1.91949 -2.94254 3.42959e-20)
(1.92596 -2.88652 -1.27704e-20)
(1.93121 -2.83196 -1.50927e-21)
(1.9349 -2.77845 1.79973e-19)
(1.93687 -2.72574 6.90214e-21)
(1.93703 -2.67369 1.94389e-19)
(1.93539 -2.62224 -2.42165e-20)
(1.93204 -2.57141 -4.27474e-20)
(1.92709 -2.52123 1.0027e-19)
(1.92067 -2.47176 -9.18935e-20)
(1.91296 -2.42309 1.01498e-19)
(1.90413 -2.37528 5.50483e-20)
(1.89434 -2.32838 -4.46494e-20)
(1.88375 -2.28242 6.85786e-20)
(1.8725 -2.23739 8.27037e-21)
(1.86069 -2.19323 -2.89449e-20)
(1.8485 -2.14976 1.573e-20)
(1.83628 -2.1066 1.03869e-19)
(1.82292 -2.06399 1.61303e-20)
(2.38036 -4.18 -5.86518e-20)
(2.2176 -3.94436 -1.2211e-19)
(2.12787 -3.74531 5.1294e-20)
(2.07079 -3.58576 -2.05189e-19)
(2.03373 -3.45768 9.87725e-20)
(2.01249 -3.35177 -1.82094e-19)
(2.00247 -3.26179 -1.21077e-19)
(1.99981 -3.1833 3.42209e-20)
(2.00172 -3.11297 3.4447e-20)
(2.00614 -3.04833 -1.66255e-19)
(2.01153 -2.98766 -7.2627e-20)
(2.01681 -2.92969 3.40391e-20)
(2.02123 -2.87358 -9.36637e-20)
(2.02427 -2.81875 -3.75868e-20)
(2.02564 -2.76484 -2.5416e-20)
(2.02518 -2.71164 -2.5554e-20)
(2.02285 -2.65905 -1.08846e-19)
(2.0187 -2.60705 -6.85007e-20)
(2.01281 -2.55568 1.23429e-20)
(2.00533 -2.50498 2.26542e-20)
(1.99641 -2.45505 2.44398e-20)
(1.98625 -2.40597 -8.44107e-20)
(1.97502 -2.35782 3.20044e-20)
(1.96292 -2.31068 -6.59947e-20)
(1.95011 -2.26456 6.26051e-20)
(1.93674 -2.21949 -8.23283e-20)
(1.92293 -2.17539 2.60086e-20)
(1.90886 -2.13209 -4.07219e-20)
(1.89491 -2.08917 -5.80971e-20)
(1.87989 -2.04694 -5.87545e-21)
(2.4912 -4.12032 -1.25644e-19)
(2.32668 -3.896 -1.11786e-19)
(2.23566 -3.70538 -1.09842e-19)
(2.17773 -3.55244 -8.25466e-20)
(2.14003 -3.42954 2.55051e-19)
(2.11813 -3.32756 3.63428e-20)
(2.10728 -3.2405 1.11207e-19)
(2.1036 -3.1641 1.71565e-19)
(2.10426 -3.09517 8.32773e-20)
(2.10717 -3.03143 -1.11393e-19)
(2.11082 -2.97122 1.81362e-19)
(2.11415 -2.91341 -1.77167e-19)
(2.11643 -2.85721 1.68954e-19)
(2.11719 -2.80212 2.03155e-20)
(2.11615 -2.74784 4.37315e-20)
(2.11319 -2.6942 1.46113e-20)
(2.10831 -2.64113 1.78802e-19)
(2.10157 -2.58864 -2.6688e-20)
(2.09308 -2.53678 2.42913e-20)
(2.08302 -2.48564 8.16007e-20)
(2.07156 -2.43531 -9.14653e-20)
(2.05889 -2.3859 7.32574e-20)
(2.04524 -2.3375 2.98899e-21)
(2.03079 -2.29019 3.35113e-20)
(2.01573 -2.24402 6.15128e-20)
(2.00023 -2.19898 -1.04135e-20)
(1.9844 -2.15506 6.1098e-20)
(1.96846 -2.11204 8.87792e-20)
(1.9528 -2.06948 -9.65114e-20)
(1.93617 -2.02776 -5.9482e-20)
(2.60059 -4.05777 3.70566e-19)
(2.43483 -3.84478 -4.20036e-20)
(2.3429 -3.66255 8.61881e-20)
(2.2844 -3.51615 1.58581e-19)
(2.24624 -3.39833 -4.61135e-19)
(2.22378 -3.3002 5.07848e-20)
(2.21218 -3.21596 -1.78314e-19)
(2.20748 -3.14156 1.80891e-19)
(2.20685 -3.07399 -1.44667e-19)
(2.20821 -3.01109 7.83908e-20)
(2.21006 -2.95133 -2.87032e-19)
(2.21137 -2.89366 8.21508e-21)
(2.21144 -2.83739 -9.64472e-20)
(2.20983 -2.78207 1.47214e-19)
(2.20631 -2.72745 -1.56923e-19)
(2.20079 -2.6734 -8.13811e-21)
(2.19328 -2.61991 -1.28719e-19)
(2.18389 -2.56699 -1.10039e-20)
(2.17275 -2.51472 1.10375e-20)
(2.16005 -2.46321 2.89459e-20)
(2.146 -2.41257 -1.64373e-19)
(2.13081 -2.36291 -5.04187e-21)
(2.11469 -2.31433 -9.25364e-20)
(2.09786 -2.26693 -2.15e-20)
(2.08053 -2.22078 -5.69826e-20)
(2.06288 -2.17588 -6.2503e-20)
(2.04502 -2.13222 -6.54028e-20)
(2.02721 -2.0896 1.08579e-19)
(2.00986 -2.04752 2.93221e-20)
(1.99165 -2.00644 -5.79875e-20)
(2.70846 -3.99238 -2.47374e-19)
(2.54198 -3.79071 9.26644e-20)
(2.44953 -3.61682 -1.59297e-19)
(2.39072 -3.47686 2.35377e-20)
(2.35227 -3.36402 2.63715e-19)
(2.32935 -3.26962 -1.34546e-19)
(2.31703 -3.18811 -1.44108e-19)
(2.31132 -3.11564 -1.22626e-19)
(2.30937 -3.04937 5.59378e-21)
(2.30913 -2.98728 7.99164e-20)
(2.30912 -2.92795 -5.8517e-20)
(2.30834 -2.87042 2.25806e-21)
(2.30612 -2.81409 1.84912e-19)
(2.30207 -2.75856 -9.42139e-20)
(2.29599 -2.70365 2.49961e-20)
(2.28784 -2.64926 -7.72279e-20)
(2.27765 -2.59539 2.97263e-20)
(2.26555 -2.54212 6.4226e-20)
(2.25171 -2.48952 7.38128e-20)
(2.23634 -2.43772 -8.09602e-20)
(2.21966 -2.38683 1.13982e-20)
(2.2019 -2.33699 7.00287e-20)
(2.18329 -2.28831 1.21702e-19)
(2.16406 -2.2409 3.26906e-20)
(2.14443 -2.19484 -1.26751e-19)
(2.1246 -2.15017 1.4788e-19)
(2.10471 -2.10687 -7.4265e-20)
(2.08502 -2.06475 -8.90481e-20)
(2.06599 -2.02328 -5.4661e-20)
(2.04624 -1.98298 -7.53132e-20)
(2.81471 -3.92418 1.32866e-19)
(2.64806 -3.7338 -1.0709e-19)
(2.55547 -3.56817 4.11545e-20)
(2.49661 -3.43453 2.20166e-19)
(2.45802 -3.32655 6.07097e-20)
(2.43473 -3.23577 -5.20028e-20)
(2.42172 -3.1569 1.26899e-19)
(2.41499 -3.08629 2.95757e-20)
(2.41169 -3.02128 1.22863e-19)
(2.4098 -2.95996 6.79524e-20)
(2.40786 -2.90104 3.34966e-21)
(2.40491 -2.84367 4.35453e-20)
(2.40033 -2.78729 -1.37779e-20)
(2.39378 -2.7316 2.4194e-20)
(2.38508 -2.67644 6.84016e-20)
(2.37422 -2.62176 -3.76741e-20)
(2.36129 -2.5676 9.41219e-20)
(2.34644 -2.51404 9.59664e-20)
(2.32987 -2.46118 -1.09685e-19)
(2.31179 -2.40916 1.13342e-19)
(2.29245 -2.35811 2.41933e-19)
(2.2721 -2.30817 -1.56917e-19)
(2.25097 -2.25946 1.58712e-19)
(2.22931 -2.21211 -1.11198e-19)
(2.20736 -2.16621 -1.59585e-20)
(2.18532 -2.12183 1.20772e-19)
(2.16337 -2.07897 -2.44922e-20)
(2.14178 -2.03745 9.11335e-20)
(2.12109 -1.99672 9.09223e-20)
(2.09984 -1.95733 -1.82373e-19)
(2.91931 -3.8532 -1.28405e-19)
(2.75301 -3.67406 6.15657e-20)
(2.66066 -3.51657 2.51777e-20)
(2.60198 -3.38913 -2.59249e-19)
(2.5634 -3.28587 -1.35602e-19)
(2.53979 -3.19861 1.02943e-19)
(2.52611 -3.12229 -2.88872e-19)
(2.51835 -3.05348 3.5219e-19)
(2.51367 -2.98966 -1.99006e-19)
(2.51007 -2.9291 2.37699e-20)
(2.50614 -2.87059 -3.76997e-20)
(2.50096 -2.81338 -1.16551e-19)
(2.49395 -2.757 2.43292e-19)
(2.48482 -2.70119 9.28407e-20)
(2.47344 -2.64583 -9.60803e-20)
(2.45983 -2.59094 2.91494e-21)
(2.44411 -2.53655 5.47057e-20)
(2.42647 -2.48278 -1.18366e-19)
(2.40713 -2.42974 2.54232e-20)
(2.38632 -2.37759 8.30894e-20)
(2.3643 -2.32645 -3.42737e-20)
(2.34133 -2.27647 5.76244e-20)
(2.31767 -2.2278 -1.13673e-19)
(2.29356 -2.18056 1.6564e-19)
(2.26926 -2.13487 3.9013e-20)
(2.24499 -2.09082 -1.05474e-19)
(2.22094 -2.04847 -9.15968e-20)
(2.19743 -2.00764 4.45209e-22)
(2.17504 -1.96775 1.27403e-19)
(2.15232 -1.92943 -3.07906e-20)
(3.02217 -3.77948 -3.51535e-20)
(2.8568 -3.6115 -2.58258e-19)
(2.76504 -3.46202 3.09748e-19)
(2.70675 -3.34062 2.11668e-19)
(2.66827 -3.24195 2.13556e-19)
(2.64441 -3.1581 6.0649e-20)
(2.63008 -3.08425 9.11542e-20)
(2.62127 -3.01716 4.72785e-20)
(2.61517 -2.95451 -1.87068e-19)
(2.6098 -2.89468 3.45364e-19)
(2.60382 -2.83659 -2.81395e-19)
(2.59634 -2.77956 -1.85371e-20)
(2.58684 -2.72321 4.19868e-20)
(2.57507 -2.66732 -1.86221e-19)
(2.56095 -2.61184 1.63903e-19)
(2.54454 -2.5568 -4.90396e-20)
(2.526 -2.50226 -1.27058e-19)
(2.50553 -2.44836 4.94996e-20)
(2.48339 -2.39524 -9.52429e-20)
(2.45983 -2.34302 -8.44121e-20)
(2.43513 -2.29187 -9.08735e-20)
(2.40955 -2.24193 2.06707e-20)
(2.38334 -2.19335 1.21864e-20)
(2.35678 -2.14626 -2.25312e-19)
(2.33012 -2.10081 -8.60253e-20)
(2.30358 -2.05712 5.56609e-20)
(2.27738 -2.0153 6.92611e-20)
(2.25188 -1.9752 -9.56149e-20)
(2.22777 -1.93625 -3.64854e-20)
(2.20357 -1.89913 3.69648e-21)
(3.1233 -3.70303 -3.07579e-20)
(2.95939 -3.54613 1.6715e-19)
(2.86855 -3.40448 -4.76072e-20)
(2.81081 -3.28895 -5.87526e-20)
(2.77254 -3.19474 -3.33149e-19)
(2.74847 -3.11419 -7.36974e-20)
(2.73348 -3.04272 1.42204e-19)
(2.7236 -2.97732 -9.42526e-20)
(2.71603 -2.9158 -1.00439e-20)
(2.70885 -2.85669 -1.87384e-20)
(2.70075 -2.79903 1.06506e-19)
(2.69091 -2.74222 -1.6974e-19)
(2.67886 -2.68594 -1.14432e-19)
(2.66439 -2.63004 1.35097e-19)
(2.64748 -2.5745 -7.7549e-20)
(2.62823 -2.51938 -9.38108e-20)
(2.60683 -2.46478 2.01706e-19)
(2.58353 -2.41084 -3.1709e-20)
(2.55858 -2.35771 1.20157e-19)
(2.53227 -2.30552 -1.10581e-19)
(2.50489 -2.25444 -8.97755e-20)
(2.47669 -2.2046 7.82346e-20)
(2.44796 -2.15616 -8.82401e-21)
(2.41896 -2.10926 -5.90682e-20)
(2.38992 -2.06406 5.20794e-20)
(2.3611 -2.02071 -1.62947e-19)
(2.33271 -1.97937 9.95812e-20)
(2.30516 -1.94 -1.54382e-21)
(2.27924 -1.90201 -1.04444e-19)
(2.25356 -1.86618 1.58947e-19)
(3.22277 -3.62393 1.27654e-19)
(3.06083 -3.47796 -3.31251e-19)
(2.97113 -3.3439 -2.78142e-20)
(2.91406 -3.23407 1.5753e-19)
(2.87606 -3.14419 -4.12493e-20)
(2.8518 -3.06685 -1.16669e-19)
(2.83617 -2.9977 5.54083e-20)
(2.8252 -2.93393 6.4326e-20)
(2.81613 -2.87353 5.59059e-21)
(2.80708 -2.81514 8.01141e-20)
(2.7968 -2.75792 2.57344e-19)
(2.78454 -2.70136 -9.104e-20)
(2.76987 -2.6452 2.37403e-20)
(2.75266 -2.58935 -6.1918e-20)
(2.73292 -2.53383 2.39092e-19)
(2.7108 -2.47873 -4.30382e-20)
(2.68652 -2.42416 1.43552e-19)
(2.66036 -2.37027 -5.58531e-20)
(2.63261 -2.31721 6.0501e-20)
(2.60356 -2.26515 9.16997e-20)
(2.57351 -2.21421 1.5746e-20)
(2.54274 -2.16455 6.21091e-20)
(2.51151 -2.11631 -5.15569e-20)
(2.48009 -2.06963 1.44118e-19)
(2.44872 -2.02466 -5.90595e-20)
(2.41762 -1.98159 2.16947e-19)
(2.38701 -1.94064 -6.27801e-20)
(2.35731 -1.90185 4.33293e-20)
(2.3295 -1.86471 -8.18602e-20)
(2.30233 -1.83017 1.554e-19)
(3.32095 -3.5423 -2.82225e-19)
(3.16122 -3.40691 1.0476e-20)
(3.07269 -3.28019 -1.72492e-19)
(3.01635 -3.17591 3.17527e-20)
(2.97867 -3.09026 8.80336e-21)
(2.95426 -3.01605 -1.5615e-19)
(2.938 -2.94917 -2.95063e-19)
(2.92591 -2.88699 1.48495e-19)
(2.91529 -2.82768 -2.11885e-19)
(2.90432 -2.77002 -1.1257e-19)
(2.89181 -2.71327 -6.45989e-20)
(2.87707 -2.657 -5.25202e-20)
(2.85974 -2.60103 1.52476e-21)
(2.83974 -2.54531 -1.88405e-19)
(2.81713 -2.48989 1.24801e-19)
(2.79211 -2.43488 -2.05095e-19)
(2.76494 -2.38044 -5.20445e-20)
(2.73593 -2.3267 5.70689e-20)
(2.70538 -2.27383 7.20596e-20)
(2.67361 -2.22198 7.22306e-20)
(2.64094 -2.17128 5.54152e-20)
(2.60763 -2.12188 -1.39293e-19)
(2.57398 -2.0739 1.41075e-19)
(2.54021 -2.02746 -1.50347e-20)
(2.50657 -1.98271 -3.80723e-20)
(2.47324 -1.93982 -1.51039e-19)
(2.4404 -1.89903 -8.0293e-20)
(2.40846 -1.86043 1.48972e-19)
(2.37844 -1.82365 -4.87645e-20)
(2.34952 -1.79047 -5.07852e-20)
(3.41829 -3.4578 1.228e-19)
(3.26059 -3.33257 1.14085e-20)
(3.17306 -3.21313 -3.42015e-20)
(3.11747 -3.1144 -7.42107e-21)
(3.0802 -3.03294 -6.24659e-20)
(3.0557 -2.96181 2.10978e-19)
(3.0388 -2.89714 -1.00155e-19)
(3.02559 -2.83652 6.58285e-20)
(3.01339 -2.77829 2.75832e-20)
(3.00045 -2.72137 1.00222e-19)
(2.98566 -2.66511 -3.90991e-20)
(2.96838 -2.60919 2.21559e-19)
(2.94834 -2.55347 -1.92633e-20)
(2.9255 -2.49795 1.4569e-19)
(2.9 -2.44272 -2.45695e-19)
(2.87206 -2.38792 -1.88659e-20)
(2.842 -2.3337 1.60618e-19)
(2.81013 -2.28022 -9.99806e-20)
(2.7768 -2.22764 -7.06028e-20)
(2.74236 -2.17611 -1.21902e-19)
(2.7071 -2.12576 -1.0737e-19)
(2.67134 -2.07672 1.15668e-19)
(2.63535 -2.02909 -1.08963e-19)
(2.59937 -1.98297 2.40074e-20)
(2.56363 -1.93846 8.8588e-20)
(2.52831 -1.89569 6.14366e-20)
(2.49355 -1.85478 5.85128e-20)
(2.45954 -1.81569 4.30456e-20)
(2.42686 -1.77847 -1.16541e-19)
(2.39508 -1.74623 -4.99692e-20)
(5.01136 -0.029221 1.82501e-21)
(5.00382 -0.161029 1.8073e-20)
(4.99317 -0.291871 6.27333e-20)
(4.97937 -0.422028 3.42894e-20)
(4.96221 -0.551557 -7.2525e-20)
(4.94163 -0.680424 2.19605e-20)
(4.91763 -0.808563 -2.29888e-20)
(4.89024 -0.935894 -5.80606e-20)
(4.85948 -1.06233 1.47921e-19)
(4.82539 -1.18778 -3.5267e-20)
(4.788 -1.31217 -3.55482e-20)
(4.74735 -1.43539 -7.51148e-20)
(4.70347 -1.55737 -2.15039e-19)
(4.65642 -1.67803 1.99374e-20)
(4.60624 -1.79728 -9.62606e-21)
(4.55297 -1.91504 -6.70441e-20)
(4.49667 -2.03123 1.43563e-19)
(4.43738 -2.14578 7.77905e-20)
(4.37515 -2.25861 1.48552e-19)
(4.31005 -2.36966 7.24128e-20)
(4.24213 -2.47884 -1.62125e-19)
(4.17145 -2.58609 6.55296e-21)
(4.09806 -2.69134 -3.05248e-19)
(4.02202 -2.79454 4.63001e-19)
(3.94341 -2.89562 -1.51649e-19)
(3.86229 -2.99453 -1.9524e-19)
(3.77872 -3.09122 -2.72762e-20)
(3.69279 -3.18567 -1.5396e-21)
(3.60458 -3.27796 -1.46076e-19)
(3.51407 -3.36847 2.59965e-19)
(5.03587 -0.0583742 7.56375e-21)
(5.02263 -0.19025 1.1166e-20)
(5.00567 -0.321024 2.77063e-21)