/*--------------------------------*- C++ -*----------------------------------*\
  =========                 |
  \\      /  F ield         | OpenFOAM: The Open Source CFD Toolbox
   \\    /   O peration     | Website:  https://openfoam.org
    \\  /    A nd           | Version:  6.0
     \\/     M anipulation  |
\*---------------------------------------------------------------------------*/
FoamFile
{
    version     2.0;
    format      ascii;
    class       surfaceScalarField;
    location    "21.752";
    object      phi;
}
// * * * * * * * * * * * * * * * * * * * * * * * * * * * * * * * * * * * * * //

dimensions      [0 3 -1 0 0 0 0];

internalField   nonuniform List<scalar> 
38030
(
-8.48139e-06
-0.00797787
0.00798635
-2.7144e-05
-0.00733072
0.00734938
-5.38677e-05
-0.00673726
0.00676398
-8.66823e-05
-0.00619438
0.00622719
-0.000123771
-0.00569862
0.0057357
-0.000163591
-0.00524642
0.00528624
-0.000204859
-0.00483429
0.00487556
-0.00024652
-0.00445887
0.00450053
-0.000287715
-0.00411697
0.00415816
-0.00032776
-0.00380559
0.00384564
-0.00036612
-0.00352194
0.0035603
-0.000402389
-0.00326343
0.0032997
-0.000436276
-0.00302767
0.00306156
-0.000467589
-0.00281248
0.00284379
-0.000496223
-0.00261586
0.00264449
-0.000522147
-0.00243598
0.0024619
-0.000545399
-0.00227118
0.00229443
-0.000566075
-0.00211997
0.00214065
-0.000584318
-0.00198099
0.00199923
-0.000600317
-0.00185302
0.00186902
-0.000614296
-0.00173496
0.00174894
-0.000626508
-0.00162583
0.00163804
-0.00063723
-0.00152476
0.00153548
-0.000646754
-0.00143098
0.0014405
-0.000655385
-0.00134381
0.00135244
-0.00066343
-0.00126264
0.00127069
-0.000671198
-0.00118696
0.00119473
-0.000678985
-0.0011163
0.00112409
-0.000687083
-0.00105024
0.00105834
-0.00098838
0.000997084
-0.000695787
-7.47308e-06
-0.00797039
-2.58219e-05
-0.00731237
-5.21259e-05
-0.00671095
-8.41546e-05
-0.00616235
-0.000120046
-0.00566272
-0.000158244
-0.00520822
-0.000197454
-0.00479508
-0.000236619
-0.00441971
-0.000274876
-0.00407871
-0.000311543
-0.00376892
-0.000346086
-0.0034874
-0.000378102
-0.00323141
-0.000407306
-0.00299847
-0.000433512
-0.00278628
-0.000456622
-0.00259275
-0.000476616
-0.00241598
-0.00049354
-0.00225426
-0.000507502
-0.00210601
-0.00051866
-0.00196983
-0.000527217
-0.00184446
-0.000533415
-0.00172876
-0.000537527
-0.00162171
-0.000539851
-0.00152243
-0.000540702
-0.00143013
-0.000540412
-0.0013441
-0.000539314
-0.00126374
-0.000537744
-0.00118853
-0.00053603
-0.00111801
-0.000534493
-0.00105178
-0.000989416
-0.000533457
-7.08431e-06
-0.00796331
-2.48249e-05
-0.00729463
-5.02928e-05
-0.00668548
-8.11269e-05
-0.00613151
-0.000115396
-0.00562845
-0.000151506
-0.00517211
-0.000188146
-0.00475844
-0.000224247
-0.0043836
-0.000258945
-0.00404401
-0.000291552
-0.00373632
-0.000321538
-0.00345741
-0.000348502
-0.00320445
-0.000372163
-0.00297481
-0.00039234
-0.0027661
-0.00040894
-0.00257615
-0.000421951
-0.00240297
-0.000431429
-0.00224478
-0.000437492
-0.00209995
-0.00044031
-0.00196701
-0.000440102
-0.00184467
-0.000437127
-0.00173173
-0.000431679
-0.00162716
-0.000424077
-0.00153004
-0.000414666
-0.00143954
-0.000403804
-0.00135496
-0.000391857
-0.00127569
-0.000379195
-0.00120119
-0.000366178
-0.00113103
-0.000353168
-0.00106479
-0.00100206
-0.000340527
-6.83492e-06
-0.00795647
-2.38928e-05
-0.00727757
-4.8277e-05
-0.0066611
-7.75838e-05
-0.00610221
-0.000109837
-0.0055962
-0.000143413
-0.00513853
-0.000176982
-0.00472487
-0.000209465
-0.00435112
-0.000239991
-0.00401349
-0.000267873
-0.00370843
-0.000292579
-0.0034327
-0.000313713
-0.00318331
-0.000330993
-0.00295753
-0.000344243
-0.00275285
-0.000353376
-0.00256702
-0.000358383
-0.00239797
-0.000359329
-0.00224383
-0.00035634
-0.00210294
-0.000349599
-0.00197376
-0.000339338
-0.00185493
-0.000325834
-0.00174524
-0.0003094
-0.0016436
-0.000290382
-0.00154905
-0.000269152
-0.00146077
-0.000246101
-0.00137801
-0.000221631
-0.00130016
-0.000196149
-0.00122667
-0.00017006
-0.00115712
-0.000143769
-0.00109108
-0.00102814
-0.000117684
-6.5989e-06
-0.00794988
-2.28978e-05
-0.00726128
-4.60033e-05
-0.00663799
-7.34938e-05
-0.00607472
-0.000103368
-0.00556633
-0.000133984
-0.00510792
-0.000163997
-0.00469485
-0.00019232
-0.0043228
-0.00021808
-0.00398773
-0.000240589
-0.00368593
-0.000259314
-0.00341398
-0.00027386
-0.00316877
-0.000283949
-0.00294744
-0.000289404
-0.00274739
-0.000290143
-0.00256628
-0.00028616
-0.00240195
-0.000277525
-0.00225247
-0.000264373
-0.00211609
-0.000246894
-0.00199123
-0.000225334
-0.00187649
-0.000199987
-0.00177058
-0.000171185
-0.0016724
-0.000139301
-0.00158094
-0.000104735
-0.00149533
-6.79151e-05
-0.00141483
-2.92829e-05
-0.00133879
1.07095e-05
-0.00126667
5.16083e-05
-0.00119802
9.29574e-05
-0.00113243
-0.00106948
0.000134293
-6.33882e-06
-0.00794354
-2.17847e-05
-0.00724583
-4.3427e-05
-0.00661635
-6.88318e-05
-0.00604931
-9.59839e-05
-0.00553917
-0.000123229
-0.00508067
-0.000149217
-0.00466887
-0.000172856
-0.00429916
-0.000193273
-0.00396731
-0.000209779
-0.00366942
-0.000221843
-0.00340192
-0.000229071
-0.00316154
-0.000231185
-0.00294532
-0.00022801
-0.00275057
-0.000219465
-0.00257482
-0.000205545
-0.00241587
-0.000186324
-0.00227169
-0.00016194
-0.00214047
-0.000132591
-0.00202058
-9.85357e-05
-0.00191054
-6.00795e-05
-0.00180904
-1.75767e-05
-0.0017149
2.85765e-05
-0.00162709
7.79472e-05
-0.0015447
0.000130072
-0.00146696
0.000184463
-0.00139318
0.000240619
-0.00132282
0.00029803
-0.00125543
0.00035618
-0.00119058
-0.00112784
0.000414539
-6.04114e-06
-0.0079375
-2.05278e-05
-0.00723134
-4.05231e-05
-0.00659636
-6.35806e-05
-0.00602625
-8.76777e-05
-0.00551508
-0.000111155
-0.0050572
-0.000132662
-0.00464736
-0.000151108
-0.00428071
-0.000165621
-0.0039528
-0.000175514
-0.00365953
-0.000180261
-0.00339717
-0.000179466
-0.00316233
-0.000172853
-0.00295194
-0.000160248
-0.00276317
-0.000141566
-0.0025935
-0.000116806
-0.00244063
-8.60387e-05
-0.00230246
-4.94047e-05
-0.00217711
-7.10802e-06
-0.00206288
4.05875e-05
-0.00195824
9.33622e-05
-0.00186182
0.000150844
-0.00177238
0.000212614
-0.00168886
0.000278206
-0.0016103
0.000347119
-0.00153587
0.000418819
-0.00146488
0.000492748
-0.00139675
0.000568334
-0.00133102
0.00064499
-0.00126724
-0.00120496
0.000722111
-5.7019e-06
-0.00793179
-1.9116e-05
-0.00721793
-3.72775e-05
-0.0065782
-5.7729e-05
-0.0060058
-7.84445e-05
-0.00549436
-9.77663e-05
-0.00503787
-0.000114347
-0.00463078
-0.000127102
-0.00426796
-0.000135166
-0.00394473
-0.000137856
-0.00365684
-0.000134649
-0.00340038
-0.000125153
-0.00317183
-0.000109093
-0.002968
-8.62917e-05
-0.00278597
-5.66643e-05
-0.00262313
-2.02049e-05
-0.00247709
2.30175e-05
-0.00234568
7.28642e-05
-0.00222695
0.00012913
-0.00211915
0.000191548
-0.00202066
0.000259789
-0.00193006
0.000333467
-0.00184606
0.000412138
-0.00176753
0.000495309
-0.00169347
0.000582438
-0.001623
0.000672941
-0.00155538
0.000766202
-0.00149001
0.000861579
-0.00142639
0.000958406
-0.00136407
-0.00130254
0.00105599
-5.31998e-06
-0.00792647
-1.75442e-05
-0.0072057
-3.36821e-05
-0.00656206
-5.12684e-05
-0.00598822
-6.82783e-05
-0.00547735
-8.30605e-05
-0.00502309
-9.42777e-05
-0.00461956
-0.000100855
-0.00426138
-0.000101936
-0.00394365
-9.68481e-05
-0.00366192
-8.50735e-05
-0.00341215
-6.62246e-05
-0.00319068
-4.00262e-05
-0.00299419
-6.30116e-06
-0.0028197
3.50404e-05
-0.00266447
8.40091e-05
-0.00252606
0.000140542
-0.00240221
0.000204505
-0.00229092
0.000275699
-0.00219034
0.000353854
-0.00209881
0.00043864
-0.00201484
0.000529657
-0.00193708
0.000626446
-0.00186432
0.000728484
-0.00179551
0.00083519
-0.00172971
0.000945931
-0.00166613
0.00106003
-0.00160411
0.00117676
-0.00154313
0.00129538
-0.00148268
-0.00142225
0.00141509
-4.89527e-06
-0.00792158
-1.58091e-05
-0.00719479
-2.97304e-05
-0.00654814
-4.41899e-05
-0.00597376
-5.71695e-05
-0.00546437
-6.70301e-05
-0.00501323
-7.24493e-05
-0.00461414
-7.23677e-05
-0.00426146
-6.59439e-05
-0.00395008
-5.25175e-05
-0.00367535
-3.15797e-05
-0.00343309
-2.74866e-06
-0.00321951
3.42485e-05
-0.00303119
7.95904e-05
-0.00286504
0.000133372
-0.00271826
0.00019561
-0.00258829
0.000266253
-0.00247285
0.000345175
-0.00236984
0.000432184
-0.00227735
0.000527019
-0.00219365
0.000629349
-0.00211717
0.000738772
-0.0020465
0.000854813
-0.00198036
0.000976926
-0.00191762
0.0011045
-0.00185728
0.00123684
-0.00179847
0.0013732
-0.00174047
0.0015128
-0.00168272
0.00165477
-0.00162466
-0.0015657
0.00179822
-4.42714e-06
-0.00791715
-1.39073e-05
-0.00718531
-2.54146e-05
-0.00653663
-3.64819e-05
-0.00596269
-4.51035e-05
-0.00545575
-4.96589e-05
-0.00500868
-4.88469e-05
-0.00461495
-4.16294e-05
-0.00426868
-2.71846e-05
-0.00396452
-4.86919e-06
-0.00369766
2.58127e-05
-0.00346377
6.5234e-05
-0.00325893
0.000113664
-0.00307962
0.000171281
-0.00292266
0.000238186
-0.00278516
0.000314406
-0.00266451
0.000399899
-0.00255835
0.000494554
-0.0024645
0.000598195
-0.00238099
0.000710572
-0.00230602
0.000831362
-0.00223796
0.000960166
-0.0021753
0.0010965
-0.0021167
0.00123981
-0.00206093
0.00138944
-0.00200691
0.00154466
-0.00195369
0.00170466
-0.00190047
0.00186856
-0.00184662
0.0020354
-0.0017915
-0.00173445
0.00220415
-3.91451e-06
-0.00791324
-1.18342e-05
-0.00717739
-2.07251e-05
-0.00652774
-2.8129e-05
-0.00595529
-3.20596e-05
-0.00545182
-3.0922e-05
-0.00500981
-2.34428e-05
-0.00462243
-8.6116e-06
-0.00428351
1.43676e-05
-0.0039875
4.61159e-05
-0.00372941
8.71114e-05
-0.00350477
0.000137714
-0.00330953
0.000198187
-0.00314009
0.000268707
-0.00299318
0.000349381
-0.00286583
0.000440244
-0.00275538
0.000541269
-0.00265937
0.000652366
-0.00257559
0.000773375
-0.002502
0.000904069
-0.00243672
0.00104414
-0.00237803
0.0011932
-0.00232437
0.00135078
-0.00227427
0.00151629
-0.00222644
0.00168908
-0.00217969
0.00186836
-0.00213297
0.00205326
-0.00208538
0.00224282
-0.00203617
0.00243596
-0.00198464
-0.00193001
0.00263152
-3.3559e-06
-0.00790988
-9.58389e-06
-0.00717116
-1.56496e-05
-0.00652167
-1.91115e-05
-0.00595182
-1.80106e-05
-0.00545292
-1.0785e-05
-0.00501704
3.80337e-06
-0.00463702
2.67301e-05
-0.00430644
5.87588e-05
-0.00401953
0.000100482
-0.00377114
0.000152354
-0.00355664
0.000214718
-0.0033719
0.000287825
-0.0032132
0.000371849
-0.0030772
0.000466898
-0.00296088
0.00057302
-0.0028615
0.000690203
-0.00277656
0.000818378
-0.00270377
0.000957413
-0.00264103
0.00110711
-0.00258641
0.00126718
-0.00253811
0.00143726
-0.00249445
0.0016169
-0.00245391
0.00180552
-0.00241506
0.00200244
-0.00237661
0.00220685
-0.00233738
0.00241781
-0.00229634
0.00263429
-0.00225264
0.00285508
-0.00220543
-0.00215381
0.00307888
-2.74914e-06
-0.00790713
-7.14896e-06
-0.00716676
-1.0173e-05
-0.00651865
-9.40529e-06
-0.00595259
-2.92264e-06
-0.0054594
1.07956e-05
-0.00503076
3.29441e-05
-0.00465917
6.4456e-05
-0.00433795
0.000106055
-0.00406113
0.000158297
-0.00382338
0.000221608
-0.00361995
0.000296306
-0.0034466
0.000382625
-0.00329952
0.000480732
-0.00317531
0.000590734
-0.00307088
0.000712687
-0.00298345
0.000846597
-0.00291047
0.000992419
-0.00284959
0.00115005
-0.00279867
0.00131933
-0.00275569
0.00150001
-0.00271879
0.00169176
-0.00268621
0.00189415
-0.0026563
0.00210664
-0.00262754
0.00232852
-0.0025985
0.00255899
-0.00256784
0.00279705
-0.00253441
0.00304158
-0.00249717
0.00329127
-0.00245512
-0.0024072
0.00354466
-2.09176e-06
-0.00790504
-4.5207e-06
-0.00716433
-4.27807e-06
-0.00651889
1.01718e-06
-0.00595789
1.32433e-05
-0.00547163
3.38706e-05
-0.00505138
6.40421e-05
-0.00468934
0.00010464
-0.00437855
0.000156339
-0.00411283
0.000219654
-0.00388669
0.000294969
-0.00369526
0.000382573
-0.0035342
0.000482677
-0.00339962
0.000595431
-0.00328806
0.000720938
-0.00319639
0.000859258
-0.00312177
0.00101041
-0.00306162
0.00117438
-0.00301356
0.0013511
-0.00297538
0.00154045
-0.00294503
0.00174222
-0.00292056
0.00195615
-0.00290013
0.00218184
-0.002882
0.00241879
-0.00286449
0.00266632
-0.00284603
0.00292361
-0.00282513
0.00318964
-0.00280045
0.00346322
-0.00277075
0.00374293
-0.00273483
-0.0026914
0.00402713
-1.38082e-06
-0.00790366
-1.68956e-06
-0.00716403
2.05417e-06
-0.00652263
1.21862e-05
-0.00596802
3.053e-05
-0.00548997
5.84962e-05
-0.00507935
9.71672e-05
-0.00472801
0.000147365
-0.00442875
0.00020971
-0.00417517
0.00028466
-0.00396164
0.000372557
-0.00378316
0.000473647
-0.00363529
0.000588108
-0.00351409
0.000716068
-0.00341602
0.000857615
-0.00333794
0.00101281
-0.00327697
0.00118168
-0.00323049
0.00136424
-0.00319612
0.00156045
-0.0031716
0.00177024
-0.00315482
0.00199348
-0.0031438
0.00222994
-0.0031366
0.00247932
-0.00313137
0.00274114
-0.00312631
0.0030148
-0.00311969
0.00329949
-0.00310982
0.00359419
-0.00309514
0.00389763
-0.00307419
0.00420831
-0.0030455
-0.00300751
0.00452442
-6.1342e-07
-0.00790305
1.35429e-06
-0.00716599
8.84324e-06
-0.00653012
2.41328e-05
-0.00598331
4.89813e-05
-0.00551482
8.47304e-05
-0.0051151
0.000132393
-0.00477567
0.000192722
-0.00448908
0.000266271
-0.00424872
0.000353439
-0.00404881
0.000454508
-0.00388423
0.000569675
-0.00375046
0.000699076
-0.00364349
0.000842804
-0.00355975
0.00100092
-0.00349606
0.00117348
-0.00344952
0.00136052
-0.00341753
0.00156205
-0.00339765
0.00177808
-0.00338763
0.0020086
-0.00338534
0.00225353
-0.00338873
0.00251273
-0.00339581
0.00278598
-0.00340462
0.00307291
-0.00341324
0.00337296
-0.00341974
0.0036854
-0.00342226
0.00400922
-0.00341896
0.00434313
-0.00340811
0.00468554
-0.00338791
-0.00335646
0.00503448
2.13382e-07
-0.00790326
4.62043e-06
-0.0071704
1.61078e-05
-0.00654161
3.68867e-05
-0.00600409
6.86394e-05
-0.00554657
0.000112629
-0.00515909
0.000169789
-0.00483283
0.000240795
-0.00456008
0.000326127
-0.00433405
0.000426112
-0.0041488
0.000540965
-0.00399908
0.000670822
-0.00388031
0.000815763
-0.00378843
0.000975833
-0.00371982
0.00115106
-0.00367129
0.00134147
-0.00363993
0.00154709
-0.00362314
0.00176794
-0.0036185
0.00200407
-0.00362376
0.0022555
-0.00363677
0.00252223
-0.00365546
0.00280422
-0.0036778
0.00310135
-0.00370174
0.00341336
-0.00372524
0.00373982
-0.00374621
0.00408009
-0.00376253
0.00443323
-0.00377209
0.00479795
-0.00377283
0.00517259
-0.00376255
-0.00373893
0.00555506
1.10238e-06
-0.00790436
8.11764e-06
-0.00717742
2.38648e-05
-0.00655736
5.04741e-05
-0.0060307
8.95412e-05
-0.00558564
0.00014224
-0.00521179
0.000209417
-0.00490001
0.000291663
-0.00464233
0.000389372
-0.00443176
0.000502793
-0.00426222
0.000632064
-0.00412835
0.000777247
-0.0040255
0.000938354
-0.00394953
0.00111537
-0.00389684
0.00130827
-0.00386418
0.00151703
-0.0038487
0.00174165
-0.00384777
0.00198216
-0.00385901
0.0022386
-0.0038802
0.00251105
-0.00390921
0.00279958
-0.00394399
0.00310424
-0.00398246
0.00342504
-0.00402255
0.00376188
-0.00406208
0.00411448
-0.00409882
0.00448235
-0.0041304
0.00486466
-0.0041544
0.0052602
-0.00416837
0.0056673
-0.00416965
-0.00415536
0.00608373
2.05554e-06
-0.00790642
1.18527e-05
-0.00718721
3.21274e-05
-0.00657763
6.49155e-05
-0.00606348
0.000111714
-0.00563244
0.000173601
-0.00527367
0.000251324
-0.00497773
0.000345381
-0.00473638
0.000456077
-0.00454246
0.000583571
-0.00438971
0.000727915
-0.0042727
0.000889087
-0.00418667
0.00106702
-0.00412746
0.00126161
-0.00409143
0.00147278
-0.00407535
0.00170042
-0.00407634
0.0019445
-0.00409185
0.00220501
-0.00411952
0.00248198
-0.00415717
0.00277551
-0.00420274
0.00308573
-0.00425421
0.00341281
-0.00430953
0.00375687
-0.00436661
0.00411801
-0.00442322
0.00449617
-0.00447697
0.00489104
-0.00452527
0.005302
-0.00456537
0.005728
-0.00459436
0.00616738
-0.00460903
-0.00460584
0.00661786
3.07427e-06
-0.00790949
1.58304e-05
-0.00719997
4.09043e-05
-0.00660271
8.02231e-05
-0.0061028
0.000135174
-0.00568739
0.000206727
-0.00534523
0.000295528
-0.00506653
0.000401974
-0.00484283
0.000526274
-0.00466676
0.000668491
-0.00453193
0.000828584
-0.00443279
0.00100644
-0.00436452
0.00120188
-0.00432291
0.00141474
-0.00430429
0.00164481
-0.00430542
0.00189193
-0.00432347
0.00215597
-0.00435589
0.00243687
-0.00440041
0.0027346
-0.00445491
0.00304928
-0.00451742
0.00338105
-0.00458598
0.00373016
-0.00465865
0.00409691
-0.00473336
0.00448157
-0.00480788
0.00488433
-0.00487973
0.00530521
-0.00494614
0.00574385
-0.00500402
0.00619945
-0.00504996
0.0066705
-0.00508008
-0.00509004
0.00715469
4.15889e-06
-0.00791365
2.00525e-05
-0.00721586
5.01983e-05
-0.00663285
9.63987e-05
-0.006149
0.00015992
-0.00575091
0.000241614
-0.00542692
0.000342019
-0.00516694
0.000461427
-0.00496224
0.000599946
-0.00480528
0.000757538
-0.00468952
0.000934064
-0.00460932
0.0011293
-0.00455976
0.00134299
-0.0045366
0.00157483
-0.00453612
0.00182452
-0.00455511
0.00209178
-0.00459073
0.00237638
-0.00464049
0.00267813
-0.00470216
0.00299696
-0.00477374
0.0033329
-0.00485335
0.0036861
-0.00493918
0.00405685
-0.0050294
0.00444555
-0.00512207
0.00485271
-0.00521504
0.00527882
-0.00530584
0.00572425
-0.00539157
0.00618907
-0.00546884
0.00667285
-0.00553373
0.00717437
-0.00558161
-0.00560709
0.00769142
5.30895e-06
-0.00791896
2.45185e-05
-0.00723507
6.00067e-05
-0.00666834
0.000113433
-0.00620243
0.00018593
-0.00582341
0.000278226
-0.00551922
0.000390744
-0.00527946
0.00052367
-0.00509516
0.000677006
-0.00495861
0.000850616
-0.00486313
0.00104425
-0.00480296
0.0012576
-0.00477311
0.00149027
-0.00476927
0.00174186
-0.00478771
0.00201194
-0.00482519
0.00230009
-0.00487888
0.00260595
-0.00494634
0.00292918
-0.0050254
0.00326959
-0.00511415
0.00362706
-0.00521083
0.00400169
-0.0053138
0.00439373
-0.00542144
0.00480367
-0.005532
0.00523217
-0.00564354
0.00568005
-0.00575372
0.00614812
-0.00585964
0.00663702
-0.00595774
0.00714689
-0.0060436
0.00767702
-0.00611174
-0.00615548
0.00822541
6.52304e-06
-0.00792548
2.92266e-05
-0.00725778
7.03224e-05
-0.00670944
0.000131307
-0.00626342
0.000213165
-0.00590527
0.000316497
-0.00562255
0.000441606
-0.00540457
0.000588569
-0.00524213
0.000757288
-0.00512733
0.000947524
-0.00505337
0.00115893
-0.00501436
0.00139108
-0.00500526
0.00164349
-0.00502168
0.00191561
-0.00505984
0.0022069
-0.00511648
0.00251679
-0.00518877
0.00284474
-0.00527429
0.00319026
-0.00537092
0.00355294
-0.00547682
0.00393249
-0.00559038
0.00432882
-0.00571014
0.00474208
-0.00583469
0.00517268
-0.00596261
0.0056214
-0.00609226
0.00608932
-0.00622163
0.00657773
-0.00634806
0.00708799
-0.00646799
0.00762108
-0.00657669
0.00817708
-0.00666775
-0.00673288
0.00875449
7.80147e-06
-0.00793328
3.41773e-05
-0.00728415
8.11369e-05
-0.0067564
0.00014999
-0.00633227
0.000241563
-0.00599684
0.000356322
-0.00573731
0.000494452
-0.0055427
0.000655923
-0.0054036
0.000840533
-0.00531194
0.00104795
-0.00526078
0.00127772
-0.00524414
0.00152933
-0.00525687
0.00180218
-0.00529452
0.00209562
-0.00535328
0.00240896
-0.00542982
0.0027415
-0.00552131
0.00309252
-0.00562531
0.00346133
-0.00573972
0.00384728
-0.00586277
0.00424982
-0.00599293
0.0046686
-0.00612891
0.00510347
-0.00626956
0.00555465
-0.0064138
0.00602283
-0.00656044
0.00650919
-0.00670799
0.00701547
-0.00685434
0.00754381
-0.00699634
0.00809637
-0.00712924
0.00867452
-0.00724589
-0.007336
0.00927764
9.15083e-06
-0.00794243
3.93815e-05
-0.00731438
9.24468e-05
-0.00680946
0.000169445
-0.00640927
0.000271041
-0.00609844
0.000397563
-0.00586383
0.000549079
-0.00569421
0.000725452
-0.00557997
0.000926381
-0.00551287
0.00115144
-0.00548584
0.00140009
-0.00549279
0.00167172
-0.0055285
0.00196564
-0.00558844
0.0022811
-0.00566874
0.00261731
-0.00576603
0.00297343
-0.00587743
0.00334858
-0.00600046
0.00374186
-0.00613301
0.00415239
-0.0062733
0.00457932
-0.00641986
0.00502191
-0.0065715
0.00547961
-0.00672727
0.00595222
-0.0068864
0.00644001
-0.00704823
0.00694398
-0.00721197
0.00746603
-0.00737639
0.00800899
-0.0075393
0.00857648
-0.00769673
0.00917187
-0.00784129
-0.00796021
0.00979608
1.05957e-05
-0.00795303
4.48735e-05
-0.00734866
0.000104261
-0.00686885
0.000189634
-0.00649464
0.000301496
-0.0062103
0.000440044
-0.00600238
0.000605228
-0.0058594
0.000796803
-0.00577155
0.00101437
-0.00573044
0.00125742
-0.00572888
0.00152532
-0.0057607
0.0018174
-0.00582057
0.00213287
-0.00590392
0.00247093
-0.0060068
0.0028307
-0.0061258
0.00321123
-0.00625796
0.00361153
-0.00640076
0.00403057
-0.00655204
0.00446724
-0.00670997
0.00492041
-0.00687303
0.00538896
-0.00704005
0.00587183
-0.00721014
0.00636817
-0.00738274
0.00687752
-0.00755758
0.00740015
-0.0077346
0.00793747
-0.00791371
0.00849248
-0.0080943
0.00907008
-0.00827434
0.00967651
-0.00844771
-0.00859909
0.0103154
1.22047e-05
-0.00796523
5.07362e-05
-0.00738719
0.000116613
-0.00693473
0.000210514
-0.00658854
0.000332803
-0.00633259
0.00048355
-0.00615313
0.000662585
-0.00603843
0.000869552
-0.00597851
0.00110395
-0.00596484
0.00136519
-0.00599011
0.00165255
-0.00604806
0.0019653
-0.00613331
0.0023026
-0.00624122
0.00266359
-0.00636779
0.00304734
-0.00650955
0.00345289
-0.00666351
0.00387919
-0.00682706
0.00432513
-0.00699799
0.00478953
-0.00717436
0.00527108
-0.00735459
0.0057684
-0.00753736
0.00627997
-0.00772171
0.00680427
-0.00790704
0.00733985
-0.00809316
0.00788566
-0.00828042
0.0084416
-0.00846965
0.00900937
-0.00866207
0.00959381
-0.00885877
0.010204
-0.00905795
-0.0092469
0.0108519
1.42012e-05
-0.00797944
5.71688e-05
-0.00743016
0.000129569
-0.00700713
0.000232032
-0.006691
0.000364807
-0.00646536
0.000527827
-0.00631615
0.000720789
-0.00623139
0.000943214
-0.00620094
0.0011945
-0.00621612
0.00147394
-0.00626955
0.00178077
-0.00635489
0.00211417
-0.00646671
0.00247327
-0.00660033
0.00285719
-0.00675171
0.00326499
-0.00691735
0.00369572
-0.00709424
0.00414839
-0.00727973
0.00462194
-0.00747154
0.00511525
-0.00766768
0.00562711
-0.00786645
0.00615614
-0.00806639
0.00670075
-0.00826632
0.00725908
-0.00846537
0.00782896
-0.00866303
0.0084079
-0.00885936
0.00899346
-0.00905521
0.00958395
-0.00925257
0.0101804
-0.00945527
0.0107922
-0.00966972
-0.00990866
0.011454
1.73965e-05
-0.00799683
6.45578e-05
-0.00747732
0.000143191
-0.00708576
0.000254081
-0.00680189
0.000397295
-0.00660858
0.000572569
-0.00649142
0.00077943
-0.00643825
0.00101725
-0.00643876
0.00128531
-0.00648418
0.0015828
-0.00656704
0.00190886
-0.00668096
0.00226262
-0.00682047
0.00264316
-0.00698087
0.00304959
-0.00715813
0.00348098
-0.00734875
0.00393645
-0.0075497
0.0044151
-0.00775838
0.00491605
-0.00797249
0.00543846
-0.00819008
0.00598145
-0.00840944
0.00654415
-0.00862909
0.00712561
-0.00884778
0.00772474
-0.00906451
0.00834019
-0.00927848
0.00897011
-0.00948928
0.00961201
-0.00969711
0.0102625
-0.00990304
0.0109162
-0.0101089
0.0115684
-0.0103219
-0.0105646
0.0122243
0.00899246
4.60763e-05
-0.00903854
0.00894733
4.51303e-05
0.00890249
4.48377e-05
0.00885781
4.46845e-05
0.0088133
4.45115e-05
0.00876903
4.42626e-05
0.00872512
4.39158e-05
0.00868165
4.34649e-05
0.00863874
4.29101e-05
0.00859649
4.22554e-05
0.00855498
4.15056e-05
0.00851432
4.06665e-05
0.00847457
3.97438e-05
0.00843583
3.87437e-05
0.00839816
3.76723e-05
0.00836162
3.65354e-05
0.00832628
3.53391e-05
0.00829219
3.40888e-05
0.0082594
3.27898e-05
0.00822796
3.14472e-05
0.00819789
3.00658e-05
0.00816924
2.86503e-05
0.00814203
2.72049e-05
0.0081163
2.57337e-05
0.00809206
2.4239e-05
0.00806934
2.27174e-05
0.00804819
2.11498e-05
0.00802872
1.94767e-05
0.00801123
1.74908e-05
1.43947e-05
0.0102838
0.000164625
-0.0104023
0.0101641
0.000164845
0.0100437
0.000165179
0.00992305
0.000165373
0.00980228
0.000165282
0.00968171
0.000164836
0.00956162
0.000164003
0.00944232
0.000162771
0.00932408
0.000161145
0.0092072
0.000159135
0.00909195
0.000156755
0.00897859
0.000154025
0.00886738
0.000150963
0.00875853
0.00014759
0.00865227
0.000143928
0.00854881
0.000139996
0.00844834
0.000135815
0.00835102
0.000131406
0.00825702
0.000126788
0.00816649
0.000121978
0.00807956
0.000116995
0.00799636
0.000111854
0.00791699
0.000106571
0.00784157
0.000101156
0.00777019
9.56192e-05
0.00770295
8.99554e-05
0.00763996
8.41375e-05
0.00758135
7.80887e-05
0.00752723
7.16136e-05
6.43034e-05
0.0115403
0.00034364
-0.0117193
0.0113585
0.000346636
0.0111747
0.000348958
0.0109895
0.00035054
0.0108035
0.000351311
0.0106171
0.000351226
0.0104309
0.000350264
0.0102452
0.000348421
0.0100606
0.000345709
0.00987762
0.000342153
0.0096966
0.00033778
0.009518
0.000332626
0.00934223
0.00032673
0.00916969
0.000320132
0.00900074
0.000312875
0.00883573
0.000305001
0.008675
0.000296553
0.00851883
0.000287572
0.00836752
0.000278097
0.00822133
0.000268168
0.00808051
0.00025782
0.00794527
0.000247087
0.00781584
0.000236002
0.00769241
0.000224591
0.00757515
0.000212876
0.00746424
0.00020087
0.00735981
0.000188564
0.00726198
0.000175922
0.00717073
0.000162859
0.000149277
0.0127522
0.00057238
-0.012981
0.0125191
0.000579747
0.0122825
0.000585588
0.0120431
0.00058991
0.0118017
0.000592695
0.011559
0.000593928
0.0113157
0.000593607
0.0110724
0.000591744
0.0108297
0.000588365
0.0105884
0.000583508
0.0103489
0.000577222
0.010112
0.00056956
0.00987812
0.000560586
0.00964789
0.000550363
0.00942181
0.000538959
0.00920036
0.000526445
0.00898403
0.000512889
0.00877324
0.000498358
0.00856842
0.000482919
0.00836995
0.000466637
0.0081782
0.00044957
0.00799351
0.000431778
0.0078162
0.000413314
0.00764656
0.000394231
0.00748486
0.000374574
0.00733134
0.000354386
0.00718621
0.000333698
0.0070496
0.000312535
0.00692153
0.00029092
0.000268917
0.0139117
0.000841093
-0.0141804
0.0136369
0.000854586
0.0133568
0.000865637
0.0130725
0.00087427
0.0127847
0.000880489
0.0124943
0.000884301
0.0122022
0.000885721
0.0119092
0.000884776
0.011616
0.000881506
0.0113235
0.000875969
0.0110325
0.000868229
0.0107437
0.000858364
0.0104579
0.00084646
0.0101756
0.000832608
0.00989767
0.000816904
0.00962467
0.000799447
0.00935722
0.000780337
0.00909591
0.000759671
0.00884128
0.000737546
0.00859387
0.000714054
0.00835415
0.000689286
0.0081226
0.000663327
0.00789965
0.000636261
0.00768572
0.000608169
0.00748116
0.00057913
0.00728632
0.000549227
0.00710147
0.000518544
0.00692684
0.000487172
0.00676253
0.000455225
0.00042287
0.0150125
0.00114105
-0.0153125
0.0147045
0.00116256
0.0143895
0.00118064
0.0140685
0.00119531
0.0137424
0.00120658
0.0134122
0.00121447
0.013079
0.00121898
0.0127436
0.00122017
0.012407
0.00121809
0.0120701
0.0012128
0.011734
0.00120439
0.0113994
0.00119296
0.0110672
0.00117862
0.0107383
0.00116148
0.0104136
0.00114168
0.0100937
0.00111933
0.00977944
0.00109457
0.00947158
0.00106754
0.00917077
0.00103835
0.00887768
0.00100714
0.00859293
0.000974029
0.00831713
0.000939128
0.00805084
0.000902555
0.00779458
0.000864426
0.00754885
0.000824861
0.00731409
0.000783985
0.00709069
0.000741941
0.00687898
0.000698891
0.00667917
0.000655033
0.000610618
0.01605
0.00146449
-0.0163734
0.0157166
0.00149595
0.0153743
0.00152297
0.015024
0.00154553
0.014667
0.00156361
0.0143043
0.00157723
0.0139368
0.0015864
0.0135658
0.00159116
0.0131924
0.00159158
0.0128174
0.00158773
0.0124421
0.00157971
0.0120674
0.00156764
0.0116944
0.00155165
0.011324
0.00153187
0.0109572
0.00150847
0.010595
0.0014816
0.0102381
0.00145143
0.00988753
0.00141811
0.00954408
0.00138181
0.00920854
0.00134269
0.00888167
0.00130089
0.00856422
0.00125658
0.00825689
0.00120989
0.00796033
0.00116098
0.00767517
0.00111002
0.007402
0.00105716
0.00714131
0.00100262
0.00689357
0.000946634
0.00665913
0.000889477
0.000831493
0.0170212
0.00180449
-0.0173612
0.0166692
0.00184791
0.0163064
0.00188582
0.0159337
0.00191816
0.0155525
0.0019449
0.0151637
0.00196603
0.0147685
0.00198155
0.0143682
0.00199149
0.0139638
0.00199591
0.0135567
0.0019949
0.0131478
0.00198856
0.0127385
0.00197701
0.0123297
0.0019604
0.0119227
0.0019389
0.0115185
0.00191268
0.0111181
0.00188194
0.0107227
0.00184685
0.0103332
0.00180763
0.00995056
0.00176445
0.00957573
0.00171752
0.00920962
0.001667
0.0088531
0.00161309
0.00850703
0.00155596
0.00817221
0.0014958
0.00784942
0.00143281
0.00753938
0.00136721
0.00724274
0.00129925
0.00696011
0.00122926
0.00669199
0.0011576
0.00108472
0.0179242
0.002155
-0.0182747
0.0175598
0.00221232
0.0171826
0.00226306
0.0167936
0.00230711
0.0163941
0.00234441
0.0159853
0.00237489
0.0155683
0.00239855
0.0151443
0.0024154
0.0147148
0.00242547
0.0142808
0.00242885
0.0138437
0.00242564
0.0134048
0.00241598
0.0129652
0.00240001
0.0125261
0.00237792
0.0120889
0.0023499
0.0116547
0.00231618
0.0112246
0.00227695
0.0107998
0.00223246
0.0103813
0.00218291
0.00997028
0.00212853
0.00956776
0.00206952
0.00917475
0.0020061
0.00879224
0.00193847
0.00842121
0.00186684
0.00806258
0.00179144
0.00771725
0.00171254
0.00738603
0.00163047
0.00706969
0.0015456
0.0067689
0.0014584
0.00136943
0.0187586
0.00251069
-0.0191143
0.0183871
0.00258381
0.0180009
0.00264928
0.017601
0.00270696
0.0171887
0.0027567
0.0167652
0.00279842
0.0163317
0.00283206
0.0158895
0.0028576
0.0154399
0.00287507
0.0149842
0.00288452
0.0145238
0.00288604
0.01406
0.00287977
0.0135942
0.00286587
0.0131276
0.00284451
0.0126616
0.00281592
0.0121974
0.00278032
0.0117364
0.00273795
0.0112798
0.00268906
0.0108288
0.00263389
0.0103847
0.00257268
0.00994855
0.00250567
0.00952158
0.00243307
0.00910493
0.00235512
0.00869972
0.00227204
0.00830706
0.0021841
0.00792801
0.00209159
0.0075636
0.00199488
0.00721476
0.00189444
0.00688234
0.00179082
0.00168473
0.0195246
0.00286698
-0.0198809
0.0191508
0.00295769
0.0187603
0.00303973
0.0183544
0.00311287
0.0179342
0.00317692
0.0175008
0.00323174
0.0170557
0.00327721
0.0166
0.00331328
0.0161352
0.00333994
0.0156625
0.0033572
0.0151834
0.00336516
0.0146992
0.00336392
0.0142114
0.00335363
0.0137215
0.00333449
0.0132307
0.00330671
0.0127405
0.00327053
0.0122522
0.00322621
0.0117673
0.003174
0.011287
0.00311418
0.0108127
0.00304699
0.0103457
0.00297269
0.00988724
0.0028915
0.0094387
0.00280366
0.00900133
0.00270941
0.00857643
0.00260901
0.00816524
0.00250278
0.00776901
0.00239112
0.00738887
0.00227457
0.00702589
0.0021538
0.00202966
0.0202235
0.00321996
-0.0205765
0.0198513
0.00332993
0.0194608
0.00343026
0.019053
0.00352062
0.0186292
0.00360077
0.0181904
0.00367049
0.017738
0.00372962
0.0172732
0.00377805
0.0167975
0.0038157
0.0163121
0.00384258
0.0158185
0.00385872
0.0153182
0.00386422
0.0148126
0.00385921
0.0143033
0.00384388
0.0137915
0.00381843
0.0132789
0.00378312
0.0127669
0.0037382
0.012257
0.00368395
0.0117505
0.00362064
0.011249
0.00354853
0.0107538
0.00346788
0.0102664
0.00337891
0.00978818