/*--------------------------------*- C++ -*----------------------------------*\
  =========                 |
  \\      /  F ield         | OpenFOAM: The Open Source CFD Toolbox
   \\    /   O peration     | Website:  https://openfoam.org
    \\  /    A nd           | Version:  6.0
     \\/     M anipulation  |
\*---------------------------------------------------------------------------*/
FoamFile
{
    version     2.0;
    format      ascii;
    class       volVectorField;
    location    "0.25";
    object      U;
}
// * * * * * * * * * * * * * * * * * * * * * * * * * * * * * * * * * * * * * //

dimensions      [0 1 -1 0 0 0 0];

internalField   nonuniform List<vector> 
19200
(
(0.504609 -14.24 -1.12643e-20)
(0.155738 -12.8744 4.61962e-21)
(0.134295 -11.5865 1.7233e-21)
(0.142984 -10.3803 1.24614e-21)
(0.132316 -9.25836 1.07394e-21)
(0.122781 -8.21985 8.28941e-23)
(0.11677 -7.26349 7.31543e-23)
(0.113015 -6.38736 -1.74938e-23)
(0.111518 -5.5887 6.8682e-22)
(0.112478 -4.86419 2.46346e-22)
(0.115958 -4.2101 3.99963e-23)
(0.121952 -3.62244 2.90834e-22)
(0.130396 -3.09704 3.71775e-22)
(0.141173 -2.62966 -2.27876e-22)
(0.154114 -2.21607 2.72405e-22)
(0.169013 -1.85209 2.15948e-22)
(0.185631 -1.53365 -2.00023e-22)
(0.203712 -1.25676 3.33805e-22)
(0.222992 -1.01757 -2.12269e-22)
(0.243207 -0.812385 1.05312e-22)
(0.264101 -0.63767 1.50671e-22)
(0.285431 -0.49007 -5.07328e-23)
(0.306974 -0.366434 6.83714e-23)
(0.328527 -0.26383 -8.23289e-23)
(0.34991 -0.179562 1.81109e-22)
(0.370964 -0.111185 4.54037e-23)
(0.391551 -0.0565189 -3.0422e-23)
(0.411558 -0.0136524 1.74864e-23)
(0.430893 0.0190434 4.44217e-23)
(0.449428 0.0429118 1.71638e-22)
(0.876464 -14.221 -2.15732e-21)
(0.493321 -12.867 1.32569e-20)
(0.438192 -11.5817 -6.31538e-21)
(0.415068 -10.3768 -6.53686e-21)
(0.37485 -9.25655 -2.15872e-21)
(0.337955 -8.2198 -1.29045e-21)
(0.30672 -7.26526 -2.20782e-21)
(0.27983 -6.39111 3.70063e-22)
(0.257221 -5.59462 -5.10404e-22)
(0.239008 -4.87243 -1.26045e-21)
(0.225161 -4.22079 -2.26585e-21)
(0.21557 -3.63565 9.5684e-22)
(0.210065 -3.11277 -3.19297e-22)
(0.208422 -2.64786 1.18272e-22)
(0.210362 -2.23664 -5.98326e-22)
(0.215571 -1.87486 -2.02413e-22)
(0.223705 -1.55842 2.49869e-23)
(0.234406 -1.2833 6.71199e-22)
(0.247309 -1.04562 -3.51414e-22)
(0.262054 -0.841689 -1.93059e-22)
(0.278291 -0.66795 -7.74487e-22)
(0.29569 -0.521062 2.00217e-22)
(0.313945 -0.39788 -1.28716e-22)
(0.332774 -0.295489 2.32926e-22)
(0.351925 -0.211209 -2.9701e-22)
(0.371174 -0.142613 -1.77059e-22)
(0.390324 -0.0875357 5.64114e-23)
(0.409208 -0.044082 9.41426e-23)
(0.427686 -0.0106329 -1.63272e-22)
(0.445601 0.0141481 8.02908e-23)
(1.24829 -14.1929 -9.98673e-22)
(0.830348 -12.8507 3.66953e-21)
(0.741684 -11.5685 5.03391e-21)
(0.68692 -10.3657 2.28425e-20)
(0.61727 -9.24796 -1.03452e-20)
(0.553125 -8.21367 9.21104e-21)
(0.496777 -7.26163 -6.30588e-21)
(0.446865 -6.39007 2.59462e-21)
(0.403264 -5.59629 -2.03524e-21)
(0.366005 -4.87693 7.07422e-23)
(0.334963 -4.2282 3.73325e-21)
(0.309925 -3.64599 4.5732e-22)
(0.290612 -3.12601 -1.28669e-21)
(0.276684 -2.66391 9.80367e-22)
(0.267756 -2.25534 1.47007e-23)
(0.263399 -1.89605 3.50129e-22)
(0.263164 -1.58185 2.44445e-22)
(0.266587 -1.30872 7.91099e-22)
(0.273201 -1.07275 -3.46064e-22)
(0.282549 -0.870234 -1.11412e-22)
(0.294188 -0.697625 -3.03462e-22)
(0.307702 -0.55158 1.3694e-21)
(0.322698 -0.42897 -1.15653e-21)
(0.33882 -0.326893 3.72963e-22)
(0.355744 -0.242686 9.01467e-22)
(0.37318 -0.173943 -7.51083e-22)
(0.390875 -0.118516 1.01415e-21)
(0.408611 -0.0745256 -1.05804e-22)
(0.426197 -0.0403641 -1.17213e-22)
(0.443443 -0.0147033 -7.92027e-22)
(1.61893 -14.1555 -3.97802e-20)
(1.16644 -12.8257 -2.67897e-20)
(1.04449 -11.5474 -2.6355e-20)
(0.958307 -10.3474 2.57906e-21)
(0.859391 -9.2329 1.56816e-21)
(0.76813 -8.20175 -1.73851e-20)
(0.686793 -7.25279 -7.61332e-21)
(0.613984 -6.38438 1.45585e-21)
(0.549521 -5.59384 -4.1025e-22)
(0.493353 -4.87778 1.63372e-21)
(0.44526 -4.23238 -6.35854e-21)
(0.404921 -3.65349 -3.1261e-21)
(0.371945 -3.13676 1.2852e-21)
(0.345879 -2.67778 1.92857e-21)
(0.32622 -2.27218 -2.23108e-21)
(0.312429 -1.91562 -3.2607e-22)
(0.303945 -1.6039 -1.17339e-21)
(0.300198 -1.33296 -5.42077e-22)
(0.300618 -1.09889 9.01387e-22)
(0.304649 -0.897955 -1.15488e-21)
(0.311756 -0.726621 1.0187e-21)
(0.321433 -0.581549 -1.20463e-21)
(0.333206 -0.459623 -9.69022e-22)
(0.346643 -0.357957 -7.16197e-22)
(0.361348 -0.273909 8.39507e-22)
(0.376969 -0.205091 -1.51506e-21)
(0.393195 -0.149374 1.58691e-22)
(0.409758 -0.104897 2.85068e-22)
(0.42642 -0.0700659 -8.48496e-22)
(0.442954 -0.0435608 1.54049e-22)
(1.98847 -14.1085 -2.46845e-20)
(1.50168 -12.7921 2.36753e-21)
(1.34655 -11.5184 2.03424e-20)
(1.22908 -10.322 1.70228e-20)
(1.10105 -9.21135 9.62411e-21)
(0.982806 -8.18399 3.18077e-21)
(0.876613 -7.23873 1.61661e-21)
(0.781044 -6.37404 1.54822e-20)
(0.69586 -5.58725 -8.80631e-21)
(0.620933 -4.87496 3.58844e-22)
(0.555942 -4.23332 1.6415e-21)
(0.500457 -3.65812 5.13482e-21)
(0.453974 -3.14499 -3.26351e-21)
(0.415922 -2.68946 2.0776e-21)
(0.385679 -2.28709 -2.09961e-21)
(0.362592 -1.93352 3.43112e-21)
(0.345987 -1.62451 -9.99601e-22)
(0.335184 -1.35597 3.27205e-23)
(0.329509 -1.12397 1.52519e-21)
(0.328309 -0.924782 1.07236e-21)
(0.330954 -0.754865 -1.09323e-21)
(0.336849 -0.610891 1.49534e-21)
(0.34544 -0.489758 -6.96521e-22)
(0.356217 -0.388598 8.06369e-22)
(0.368716 -0.304791 9.25653e-22)
(0.382522 -0.235969 4.2554e-22)
(0.397268 -0.180024 1.30221e-21)
(0.412637 -0.135113 -4.37556e-22)
(0.428346 -0.0996549 -1.33054e-22)
(0.444125 -0.0723434 -7.15662e-22)
(2.35664 -14.0521 -1.75215e-20)
(1.83588 -12.7497 -9.93847e-21)
(1.64769 -11.4814 -2.2588e-20)
(1.49908 -10.2893 -4.47608e-20)
(1.34207 -9.18335 1.5638e-20)
(1.197 -8.16044 6.04349e-22)
(1.06609 -7.21949 3.83863e-22)
(0.94791 -6.35905 5.54592e-22)
(0.842158 -5.57651 -1.08987e-21)
(0.748628 -4.86845 -8.57942e-21)
(0.6669 -4.23099 3.67052e-21)
(0.596434 -3.65988 4.88446e-21)
(0.536607 -3.15069 8.41142e-23)
(0.486729 -2.6989 1.46597e-21)
(0.446057 -2.30005 3.20275e-21)
(0.413818 -1.94971 -2.10707e-21)
(0.389224 -1.64363 3.57931e-21)
(0.371485 -1.37768 -1.66605e-21)
(0.359822 -1.14793 2.932e-21)
(0.353481 -0.950645 -2.19321e-21)
(0.351738 -0.782283 9.7808e-22)
(0.353911 -0.639528 2.62236e-21)
(0.359364 -0.519295 1.84708e-22)
(0.367512 -0.418735 -2.48037e-21)
(0.377821 -0.33525 1.38242e-21)
(0.389816 -0.266494 4.32125e-22)
(0.403075 -0.210382 -4.79884e-22)
(0.417232 -0.165088 1.84159e-21)
(0.431962 -0.129049 6.81781e-22)
(0.446947 -0.100971 -6.08645e-22)
(2.72322 -13.9861 4.45524e-20)
(2.16885 -12.6988 -8.49955e-21)
(1.94776 -11.4366 -4.6385e-20)
(1.76814 -10.2496 8.42207e-21)
(1.58231 -9.14893 -7.58162e-21)
(1.41054 -8.13112 7.20685e-21)
(1.25508 -7.19504 -1.81099e-21)
(1.11445 -6.33942 1.43898e-20)
(0.988289 -5.56163 -1.26313e-20)
(0.876322 -4.85826 3.06731e-21)
(0.778028 -4.22539 -1.20836e-21)
(0.692753 -3.65873 9.27047e-22)
(0.619754 -3.15381 -4.0047e-21)
(0.558215 -2.70608 -9.98273e-23)
(0.507274 -2.311 5.27567e-21)
(0.466034 -1.96414 -3.57338e-21)
(0.433591 -1.6612 -2.11002e-21)
(0.409042 -1.39804 -1.4763e-21)
(0.391502 -1.17071 2.71092e-21)
(0.380115 -0.975477 5.85116e-22)
(0.374064 -0.808803 -2.66642e-21)
(0.372579 -0.667386 3.59769e-21)
(0.374942 -0.548157 -3.26886e-21)
(0.380494 -0.448288 2.20924e-21)
(0.388634 -0.365204 -1.26139e-21)
(0.398825 -0.296585 3.99467e-22)
(0.410592 -0.240365 6.60595e-22)
(0.423524 -0.194742 -2.92999e-21)
(0.43725 -0.158168 1.2711e-21)
(0.451404 -0.129367 2.17427e-23)
(3.08796 -13.9106 -4.332e-20)
(2.50038 -12.6391 3.43576e-20)
(2.24656 -11.384 -4.11225e-20)
(2.03608 -10.2028 7.30981e-20)
(1.82159 -9.10811 -1.7439e-20)
(1.6233 -8.09604 1.78265e-20)
(1.44345 -7.16549 1.23652e-20)
(1.28052 -6.31514 -2.76233e-21)
(1.13413 -5.54262 -2.09361e-21)
(1.0039 -4.84439 3.18944e-22)
(0.889218 -4.21651 -5.9759e-21)
(0.789314 -3.65467 3.07158e-21)
(0.70332 -3.15435 -2.92747e-21)
(0.630296 -2.71096 -2.54873e-22)
(0.569252 -2.31993 -7.08464e-21)
(0.519168 -1.97677 2.3005e-21)
(0.47902 -1.67718 1.21986e-21)
(0.447791 -1.41699 -1.37311e-21)
(0.424489 -1.19225 -1.54528e-22)
(0.408156 -0.999213 -2.06352e-21)
(0.397881 -0.834357 -7.40761e-22)
(0.392806 -0.694392 7.78307e-23)
(0.392132 -0.576267 -1.83666e-21)
(0.395125 -0.477179 -2.79221e-21)
(0.401121 -0.394576 1.08495e-22)
(0.409519 -0.326161 4.01483e-22)
(0.419793 -0.269895 9.29227e-22)
(0.431487 -0.223996 -2.33711e-21)
(0.444189 -0.186935 2.02697e-21)
(0.457479 -0.157455 -3.72199e-21)
(3.45062 -13.8257 -1.13013e-19)
(2.83027 -12.5709 1.08117e-19)
(2.54391 -11.3235 -9.13838e-20)
(2.30274 -10.1489 -1.78383e-20)
(2.05976 -9.06092 -8.58958e-21)
(1.83512 -8.05526 -7.64592e-21)
(1.63103 -7.13076 -1.94311e-20)
(1.446 -6.28632 -2.18485e-21)
(1.27955 -5.51947 -5.70145e-21)
(1.13124 -4.82682 -8.86194e-22)
(1.00036 -4.20434 5.57141e-21)
(0.886016 -3.64768 -3.94448e-21)
(0.787214 -3.15228 -3.58839e-21)
(0.702885 -2.71352 -5.07816e-21)
(0.63191 -2.32678 1.02043e-20)
(0.573144 -1.98757 -3.73938e-21)
(0.525441 -1.69152 1.33672e-21)
(0.487668 -1.43449 -4.82391e-21)
(0.458724 -1.21249 1.84237e-21)
(0.43755 -1.02179 -7.57672e-22)
(0.423139 -0.858879 9.39633e-22)
(0.414544 -0.720477 -3.37127e-22)
(0.410889 -0.603555 3.0636e-21)
(0.411366 -0.505334 -1.09715e-21)
(0.415243 -0.423287 3.10754e-21)
(0.421863 -0.355145 -6.40412e-21)
(0.430647 -0.298894 4.13899e-21)
(0.441095 -0.252772 1.20741e-21)
(0.452756 -0.215273 2.29609e-21)
(0.465152 -0.185161 -6.57981e-21)
(3.81095 -13.7313 1.80476e-19)
(3.15829 -12.494 -3.22594e-20)
(2.83961 -11.2553 3.48364e-20)
(2.56793 -10.088 -8.75544e-21)
(2.29665 -9.00739 2.83078e-20)
(2.04583 -8.00873 2.05696e-20)
(1.81769 -7.09092 7.69259e-21)
(1.61072 -6.25286 -2.19983e-21)
(1.42443 -5.49223 -1.2151e-20)
(1.25824 -4.80558 1.72904e-20)
(1.11135 -4.18888 -3.54808e-22)
(0.982759 -3.63774 9.26464e-21)
(0.871341 -3.14759 2.85002e-21)
(0.775894 -2.71373 1.09e-21)
(0.695167 -2.33154 1.54009e-21)
(0.627886 -1.99648 1.90622e-21)
(0.572782 -1.70419 2.9845e-21)
(0.528605 -1.45047 -8.21318e-22)
(0.494144 -1.23137 4.19369e-21)
(0.468237 -1.04315 1.92878e-21)
(0.449781 -0.882305 -4.02886e-21)
(0.437743 -0.745573 7.1989e-21)
(0.431167 -0.62995 -9.60675e-21)
(0.429172 -0.532681 9.20644e-21)
(0.430961 -0.451266 -3.08242e-21)
(0.43582 -0.383465 -1.32543e-21)
(0.443119 -0.327288 -3.87793e-22)
(0.452316 -0.280999 2.37199e-21)
(0.462922 -0.243111 8.83884e-22)
(0.474397 -0.212414 -1.00479e-21)
(4.16871 -13.6275 -1.0463e-19)
(3.48422 -12.4086 7.27168e-20)
(3.13346 -11.1793 -1.8177e-20)
(2.83146 -10.0201 4.28475e-20)
(2.53209 -8.94754 3.84209e-21)
(2.25529 -7.95653 3.18459e-21)
(2.00329 -7.04597 -4.19619e-20)
(1.77461 -6.21489 1.77112e-20)
(1.56863 -5.46087 1.86703e-20)
(1.38477 -4.78066 1.07349e-20)
(1.22208 -4.17013 -1.69883e-20)
(1.07944 -3.62487 8.66245e-21)
(0.955608 -3.14025 -8.01424e-21)
(0.849236 -2.71157 4.75087e-21)
(0.75894 -2.33417 -7.55747e-21)
(0.683317 -2.00348 -5.23047e-21)
(0.620971 -1.71512 4.19219e-22)
(0.570535 -1.4649 -2.25685e-21)
(0.530685 -1.24885 4.07609e-21)
(0.500155 -1.06324 1.60478e-21)
(0.47775 -0.904574 -1.05061e-21)
(0.462348 -0.769617 -3.07228e-22)
(0.452913 -0.655385 1.29309e-21)
(0.448494 -0.55915 -4.29152e-21)
(0.44823 -0.478442 7.26493e-21)
(0.451349 -0.411047 -1.75289e-21)
(0.457172 -0.355006 -3.12582e-21)
(0.465116 -0.308604 6.67027e-21)
(0.474656 -0.270377 9.70044e-22)
(0.485187 -0.239147 -8.71993e-22)
(4.52366 -13.5145 2.82433e-22)
(3.80783 -12.3147 -5.07278e-20)
(3.42525 -11.0956 -3.6297e-20)
(3.09316 -9.94522 -4.65447e-20)
(2.76591 -8.88141 6.4783e-22)
(2.46334 -7.89869 -1.99662e-20)
(2.1877 -6.99597 2.34852e-20)
(1.93747 -6.17233 -9.56228e-21)
(1.71205 -5.42548 1.06961e-20)
(1.51071 -4.75208 -9.96279e-21)
(1.33244 -4.1481 -4.18712e-21)
(1.17597 -3.60905 1.94236e-21)
(1.03992 -3.13027 8.52732e-22)
(0.922822 -2.70704 -7.9152e-21)
(0.823146 -2.33465 4.59507e-21)
(0.739358 -2.00854 -2.05045e-21)
(0.669933 -1.7243 5.80709e-21)
(0.613385 -1.47774 -1.86474e-21)
(0.568277 -1.26488 1.94178e-21)
(0.533242 -1.082 4.64277e-22)
(0.506985 -0.925626 3.26052e-21)
(0.488301 -0.792545 -6.6e-22)
(0.476074 -0.679794 5.45548e-21)
(0.469282 -0.584674 -6.0829e-21)
(0.467001 -0.504746 -2.10748e-21)
(0.468404 -0.437825 1.75237e-21)
(0.472764 -0.381979 -1.53636e-22)
(0.479457 -0.33552 -4.96215e-21)
(0.487923 -0.297006 2.59567e-21)
(0.497492 -0.265294 -2.86249e-21)
(4.87555 -13.3922 1.74602e-19)
(4.12891 -12.2124 4.08689e-20)
(3.71478 -11.0043 3.70303e-20)
(3.35285 -9.86346 3.94782e-20)
(2.99795 -8.80906 4.8648e-20)
(2.66984 -7.83522 -7.73644e-22)
(2.37076 -6.9409 6.36439e-21)
(2.09921 -6.12527 4.71528e-20)
(1.85454 -5.386 1.18622e-20)
(1.63597 -4.71987 -7.99215e-21)
(1.44231 -4.12279 1.26164e-20)
(1.27223 -3.59028 1.43108e-21)
(1.12418 -3.11763 2.36088e-22)
(0.996561 -2.7001 2.34661e-21)
(0.8877 -2.33296 3.67349e-21)
(0.795927 -2.01163 -7.0248e-21)
(0.719591 -1.73168 5.86704e-21)
(0.657083 -1.48893 9.66547e-22)
(0.606854 -1.2794 5.44305e-21)
(0.56743 -1.09937 -2.92853e-21)
(0.537424 -0.945407 4.85935e-21)
(0.515543 -0.814298 -5.17979e-21)
(0.500592 -0.703116 5.0562e-21)
(0.491481 -0.609191 7.51097e-22)
(0.487224 -0.530114 -3.44275e-21)
(0.486939 -0.463731 -1.18089e-21)
(0.48985 -0.408141 6.86518e-21)
(0.495299 -0.361682 -1.03146e-21)
(0.502688 -0.322934 1.37035e-21)
(0.511279 -0.290792 -9.13279e-22)
(5.22413 -13.2608 1.81611e-20)
(4.44723 -12.1017 2.95455e-20)
(4.00186 -10.9054 9.36446e-20)
(3.61033 -9.77483 -1.41503e-19)
(3.22803 -8.73051 -8.9141e-21)
(2.87461 -7.76617 -1.04043e-20)
(2.55232 -6.88083 4.92544e-21)
(2.25969 -6.07369 4.72466e-21)
(1.99601 -5.34253 8.7388e-21)
(1.7604 -4.68401 -1.30931e-20)
(1.55161 -4.09421 -1.22029e-21)
(1.36813 -3.56856 6.19383e-21)
(1.2083 -3.10233 5.3076e-21)
(1.07037 -2.69075 -5.3091e-21)
(0.952517 -2.32908 -4.41732e-21)
(0.852945 -2.01272 7.5101e-21)
(0.769868 -1.73724 4.58294e-21)
(0.701554 -1.49844 -1.17608e-21)
(0.646341 -1.29237 -2.799e-21)
(0.602651 -1.11532 5.21995e-22)
(0.569 -0.963862 -6.4227e-21)
(0.544009 -0.83482 7.78611e-21)
(0.526407 -0.725292 -5.34687e-21)
(0.515035 -0.632639 -2.50645e-22)
(0.508845 -0.554483 3.60222e-21)
(0.506903 -0.488705 -1.13736e-21)
(0.508385 -0.433432 -3.52153e-21)
(0.512597 -0.387028 5.27169e-22)
(0.518909 -0.3481 -1.44195e-22)
(0.526511 -0.315583 7.1571e-22)
(5.56918 -13.1204 -1.48987e-20)
(4.76257 -11.9827 -3.30056e-20)
(4.28629 -10.799 -1.09441e-19)
(3.86543 -9.67942 3.9513e-20)
(3.456 -8.64583 -7.68476e-21)
(3.07751 -7.6916 2.7078e-20)
(2.73226 -6.81577 2.08545e-21)
(2.41877 -6.01767 -1.74523e-20)
(2.13631 -5.29502 -5.78181e-22)
(1.88392 -4.64458 -1.94014e-20)
(1.66022 -4.06238 -1.01991e-22)
(1.46357 -3.5439 3.59659e-21)
(1.29218 -3.08437 -5.48699e-21)
(1.14414 -2.67898 5.6076e-21)
(1.01751 -2.32299 -1.01342e-20)
(0.910328 -2.01178 -1.98199e-21)
(0.820684 -1.74093 5.73733e-21)
(0.746722 -1.50623 7.59952e-23)
(0.686667 -1.30375 -3.34108e-21)
(0.638834 -1.12979 9.15123e-21)
(0.601645 -0.98094 -4.88407e-21)
(0.573635 -0.854057 -6.57138e-21)
(0.553456 -0.746266 2.20469e-21)
(0.539882 -0.65496 -6.50031e-21)
(0.531807 -0.577797 -1.61414e-21)
(0.52824 -0.512687 -2.32727e-22)
(0.528317 -0.457792 -4.4495e-21)
(0.531305 -0.411502 5.30064e-21)
(0.536545 -0.372446 -1.94839e-21)
(0.54315 -0.339612 3.18428e-21)
(5.91045 -12.9709 -6.82554e-20)
(5.07473 -11.8555 -1.37143e-19)
(4.56788 -10.6851 4.73876e-20)
(4.11798 -9.57727 -3.99422e-20)
(3.68168 -8.55507 -2.09103e-20)
(3.27839 -7.61153 -8.20527e-21)
(2.91042 -6.74577 -3.28521e-20)
(2.57632 -5.95719 2.04493e-20)
(2.27532 -5.24354 -3.02e-20)
(2.00639 -4.60158 -3.62931e-20)
(1.76801 -4.02731 5.2819e-21)
(1.55845 -3.51632 6.35501e-21)
(1.37573 -3.06375 -4.63274e-22)
(1.21781 -2.66479 -9.65311e-21)
(1.08259 -2.31468 2.18746e-21)
(0.967992 -2.0088 -7.55079e-21)
(0.871958 -1.74273 -5.15168e-21)
(0.79251 -1.51227 -2.97517e-21)
(0.727755 -1.3135 -5.34691e-22)
(0.675906 -1.14274 5.14692e-21)
(0.635288 -0.996594 7.3028e-21)
(0.604351 -0.871956 -2.19598e-21)
(0.581672 -0.765982 -2.15221e-21)
(0.565959 -0.676101 4.16487e-21)
(0.556047 -0.599998 2.34374e-21)
(0.550895 -0.535623 -1.86e-21)
(0.549591 -0.481166 -2.12846e-21)
(0.551372 -0.435046 2.21973e-22)
(0.555546 -0.39592 1.96756e-21)
(0.561153 -0.362824 -2.80907e-21)
(6.24772 -12.8126 -3.73456e-21)
(5.38348 -11.7201 1.6816e-19)
(4.84642 -10.5639 9.89827e-20)
(4.36779 -9.46846 6.07831e-20)
(3.90492 -8.45828 -3.71872e-20)
(3.47708 -7.52603 -6.30861e-21)
(3.08666 -6.67087 5.95235e-21)
(2.73221 -5.89231 2.55255e-20)
(2.41294 -5.18812 7.59168e-21)
(2.1277 -4.55502 9.65153e-21)
(1.87491 -3.98907 -2.04051e-20)
(1.65266 -3.48581 2.37252e-21)
(1.45884 -3.04047 6.75375e-21)
(1.29126 -2.64816 3.68804e-21)
(1.14768 -2.30413 6.8284e-21)
(1.02585 -2.00376 -4.89056e-21)
(0.92361 -1.74262 -4.10078e-21)
(0.838838 -1.51654 8.40734e-22)
(0.76953 -1.32158 8.50169e-21)
(0.713792 -1.15412 -1.35846e-20)
(0.669854 -1.01077 4.715e-21)
(0.636084 -0.888467 -3.52621e-23)
(0.610985 -0.784391 8.97917e-21)
(0.593198 -0.696003 -3.86647e-21)
(0.581501 -0.621033 -1.86848e-22)
(0.574802 -0.557457 -2.53541e-21)
(0.572147 -0.503503 -2.24877e-21)
(0.572738 -0.457614 4.78552e-22)
(0.575857 -0.418472 -5.76946e-21)
(0.580466 -0.385175 8.51854e-21)
(6.58073 -12.6455 -2.12171e-19)
(5.68861 -11.5767 -9.85721e-20)
(5.12173 -10.4354 -2.04176e-19)
(4.6147 -9.35305 -7.00612e-20)
(4.12555 -8.35554 6.06001e-20)
(3.67346 -7.43515 -2.57559e-20)
(3.26084 -6.59112 -3.39216e-21)
(2.88631 -5.82306 -1.13877e-20)
(2.54901 -5.12877 1.97049e-20)
(2.24774 -4.50494 -1.49816e-20)
(1.98079 -3.94765 1.48013e-21)
(1.7461 -3.45242 -5.54468e-22)
(1.54143 -3.01455 -1.54507e-20)
(1.36441 -2.62911 2.07681e-22)
(1.21267 -2.29135 4.10758e-21)
(1.08383 -1.99665 -3.9154e-22)
(0.975556 -1.74058 -1.30542e-20)
(0.885625 -1.51898 1.24335e-20)
(0.811913 -1.32796 -1.1968e-20)
(0.752415 -1.16389 4.64346e-21)
(0.705273 -1.02344 6.49896e-22)
(0.668766 -0.90354 2.58214e-22)
(0.641326 -0.801435 -4.87259e-21)
(0.621531 -0.714619 4.9365e-21)
(0.6081 -0.640851 -2.10799e-21)
(0.599894 -0.578143 2.34752e-21)
(0.595916 -0.524757 -1.26738e-20)
(0.595339 -0.47916 3.36064e-21)
(0.597417 -0.440063 3.72502e-21)
(0.601035 -0.406624 3.85428e-21)
(6.90927 -12.4697 4.04998e-19)
(5.98992 -11.4254 9.19411e-20)
(5.39364 -10.2996 4.75194e-20)
(4.85853 -9.23113 6.95637e-20)
(4.34341 -8.2469 -4.98137e-21)
(3.86735 -7.33895 3.44954e-20)
(3.43283 -6.50657 6.26347e-20)
(3.03849 -5.74948 -8.65889e-21)
(2.68345 -5.06552 2.47284e-21)
(2.36641 -4.45137 4.45461e-20)
(2.08555 -3.90307 3.93456e-20)
(1.83868 -3.41619 5.01059e-21)
(1.62339 -2.98599 -1.29141e-21)
(1.43718 -2.60764 6.61247e-22)
(1.27749 -2.27633 2.01632e-20)
(1.14183 -1.98744 7.31008e-22)
(1.02772 -1.73658 1.93372e-20)
(0.932801 -1.51959 -2.47103e-21)
(0.854833 -1.3326 -4.00944e-21)
(0.791711 -1.17202 9.26373e-21)
(0.741474 -1.03453 -8.40092e-21)
(0.702325 -0.917126 -9.04781e-21)
(0.672623 -0.817069 -7.98949e-22)
(0.650881 -0.731893 -4.07678e-21)
(0.635766 -0.659395 6.19183e-21)
(0.626093 -0.597626 7.32812e-22)
(0.620825 -0.544872 -2.70266e-21)
(0.619107 -0.499635 1.34509e-21)
(0.620166 -0.460646 9.64743e-21)
(0.622808 -0.427131 1.36037e-21)
(7.23312 -12.2854 -7.04462e-20)
(6.2872 -11.2662 -1.05391e-19)
(5.66195 -10.1568 3.32008e-20)
(5.09911 -9.10277 -1.24954e-19)
(4.55834 -8.13244 4.66476e-20)
(4.05862 -7.2375 -7.28952e-20)
(3.60248 -6.41729 -3.60613e-20)
(3.18862 -5.67164 1.03509e-20)
(2.81611 -4.99842 4.79405e-21)
(2.48358 -4.39433 -3.41979e-20)
(2.18908 -3.85537 4.1622e-21)
(1.93029 -3.37711 3.74936e-21)
(1.70463 -2.95483 -1.27237e-20)
(1.50945 -2.58375 -4.48972e-21)
(1.34205 -2.25906 -2.71241e-21)
(1.19978 -1.97614 -2.65829e-21)
(1.08003 -1.73061 -1.07094e-20)
(0.980297 -1.51833 -6.43181e-21)
(0.898226 -1.33547 -1.39481e-21)
(0.831601 -1.17846 5.20063e-21)
(0.778376 -1.04402 7.00219e-21)
(0.736673 -0.929176 -7.60374e-21)
(0.70478 -0.831236 2.86883e-21)
(0.681154 -0.747773 -5.92509e-21)
(0.66441 -0.676617 5.64897e-21)
(0.653317 -0.615855 -7.408e-21)
(0.646801 -0.563809 2.3963e-21)
(0.643975 -0.519002 -3.66685e-21)
(0.644044 -0.480188 -5.3271e-21)
(0.645728 -0.446666 -5.01665e-22)
(7.55204 -12.0927 -1.51842e-19)
(6.58027 -11.0993 -1.00681e-19)
(5.92649 -10.0069 -7.36043e-20)
(5.33629 -8.96805 -3.82366e-20)
(4.77019 -8.01222 1.22133e-19)
(4.24711 -7.13085 1.13193e-20)
(3.76966 -6.32333 3.60534e-20)
(3.33657 -5.58958 4.54132e-20)
(2.94689 -4.92751 1.66001e-20)
(2.59915 -4.33384 -2.28248e-20)
(2.29129 -3.80456 2.81218e-20)
(2.02083 -3.33521 8.94018e-21)
(1.78506 -2.92111 2.18854e-20)
(1.58116 -2.55745 2.187e-21)
(1.4063 -2.23954 4.82058e-21)
(1.25763 -1.96274 1.63735e-21)
(1.13242 -1.72266 -1.30513e-22)
(1.02803 -1.5152 -5.53674e-22)
(0.941992 -1.33654 2.24487e-21)
(0.871985 -1.18317 7.44261e-21)
(0.815875 -1.05185 -8.26349e-21)
(0.771706 -0.939639 6.56056e-21)
(0.737701 -0.843889 2.59286e-22)
(0.71226 -0.762208 2.98374e-21)
(0.693946 -0.692469 5.49454e-21)
(0.681487 -0.632791 -9.38264e-22)
(0.673768 -0.581527 5.51282e-21)
(0.669875 -0.537224 8.10596e-21)
(0.668984 -0.498656 -8.75767e-21)
(0.669736 -0.465196 -4.92428e-21)
(7.86583 -11.8917 4.20358e-19)
(6.86894 -10.9248 -4.33615e-20)
(6.18711 -9.85016 6.26165e-20)
(5.56989 -8.82706 8.75723e-20)
(4.97881 -7.88632 -2.17105e-19)
(4.43269 -7.01907 2.09175e-20)
(3.93423 -6.22474 -5.53578e-20)
(3.48222 -5.50335 4.63953e-20)
(3.07566 -4.85284 -3.38167e-20)
(2.71301 -4.26994 1.23259e-20)
(2.39207 -3.75066 -4.67214e-20)
(2.11022 -3.29052 3.37602e-21)
(1.86461 -2.88481 -4.11651e-20)
(1.65225 -2.52882 1.74662e-20)
(1.47013 -2.21781 8.49411e-21)
(1.31527 -1.94724 1.19921e-20)
(1.18478 -1.71271 -1.2552e-20)
(1.07589 -1.51015 -9.60627e-22)
(0.986025 -1.33578 9.7629e-22)
(0.912759 -1.18612 2.59929e-21)
(0.853873 -1.05798 -1.47512e-20)
(0.807336 -0.948473 -4.47157e-22)
(0.771304 -0.854979 -8.20882e-21)
(0.744118 -0.775152 -1.92009e-21)
(0.724298 -0.706902 -5.07757e-21)
(0.710525 -0.648386 -5.59537e-21)
(0.701651 -0.597984 -5.91268e-21)
(0.69673 -0.554264 9.69426e-21)
(0.694915 -0.516017 2.63551e-21)
(0.694762 -0.482694 -4.75927e-21)
(8.17431 -11.6825 -2.80801e-19)
(7.15305 -10.7428 8.35733e-20)
(6.44364 -9.68659 -1.07428e-19)
(5.79978 -8.67987 1.32599e-20)
(5.18404 -7.75482 1.16096e-19)
(4.61521 -6.90223 -5.35266e-20)
(4.09605 -6.12161 -4.23539e-20)
(3.62543 -5.41302 -3.24514e-20)
(3.20231 -4.77447 1.94878e-21)
(2.82505 -4.20269 1.65983e-20)
(2.49133 -3.69371 -9.07397e-21)
(2.19838 -3.24304 1.43823e-21)
(1.94318 -2.846 1.73798e-20)
(1.7226 -2.49783 9.88007e-21)
(1.53345 -2.19389 2.39915e-21)
(1.37259 -1.92964 -7.89672e-21)
(1.237 -1.70076 2.99286e-21)
(1.12379 -1.50319 6.14319e-21)
(1.03024 -1.33317 6.75715e-21)
(0.953845 -1.18729 -7.3493e-21)
(0.892299 -1.06239 1.04887e-21)
(0.84349 -0.955636 6.21215e-21)
(0.805511 -0.864456 1.07756e-20)
(0.776651 -0.786548 2.89259e-21)
(0.755381 -0.719861 -1.11751e-20)
(0.740347 -0.662585 1.30966e-20)
(0.730363 -0.613131 -6.55726e-21)
(0.724457 -0.570081 -7.92833e-21)
(0.721756 -0.532238 -4.91684e-21)
(0.720728 -0.499132 -6.13984e-21)
(8.4773 -11.4653 1.43839e-19)
(7.43246 -10.5534 -8.98367e-20)
(6.69594 -9.51629 3.75377e-20)
(6.02579 -8.52657 1.26772e-19)
(5.38573 -7.61777 2.85966e-20)
(4.79451 -6.7804 -1.83025e-20)
(4.255 -6.01398 4.19981e-20)
(3.76609 -5.31866 1.27048e-20)
(3.32672 -4.69245 2.84215e-20)
(2.93516 -4.13214 1.29865e-20)
(2.58895 -3.63374 1.39034e-21)
(2.28518 -3.19281 6.32664e-21)
(2.02067 -2.80465 -1.72931e-21)
(1.79211 -2.46451 -1.44098e-20)
(1.59616 -2.16778 -2.10975e-21)
(1.42951 -1.90997 -3.81921e-21)
(1.28902 -1.68682 9.15331e-21)
(1.17164 -1.4943 8.96123e-21)
(1.07456 -1.3287 -1.00382e-20)
(0.995178 -1.18664 1.02633e-20)
(0.931083 -1.06503 2.15519e-20)
(0.880096 -0.961077 -1.38778e-20)
(0.840247 -0.872264 1.39631e-20)
(0.809775 -0.796333 -9.75962e-21)
(0.787111 -0.731279 -1.40334e-21)
(0.770862 -0.675325 1.06275e-20)
(0.759813 -0.62691 -2.1261e-21)
(0.752964 -0.584626 8.09555e-21)
(0.749419 -0.547281 8.15511e-21)
(0.747548 -0.514479 -1.46471e-20)
(8.77467 -11.2401 -1.33388e-19)
(7.70702 -10.3569 6.37875e-20)
(6.94385 -9.33937 1.45475e-20)
(6.24776 -8.36721 -1.45605e-19)
(5.58373 -7.47525 -5.82781e-20)
(4.97046 -6.65365 3.73039e-20)
(4.41093 -5.90194 -8.5454e-20)
(3.90406 -5.22033 8.8259e-20)
(3.44877 -4.60686 -4.31441e-20)
(3.04322 -4.05835 4.67756e-21)
(2.68483 -3.57083 -7.66508e-21)
(2.37053 -3.13987 -1.57697e-20)
(2.09698 -2.7608 3.12576e-20)
(1.8607 -2.42887 1.0288e-20)
(1.65817 -2.13949 1.32583e-20)
(1.48596 -1.88824 3.4432e-22)
(1.34074 -1.67087 5.35477e-21)
(1.21939 -1.48347 -1.10991e-20)
(1.11894 -1.32234 2.3738e-21)
(1.03669 -1.18415 7.48222e-21)
(0.970156 -1.06586 -3.06934e-21)
(0.917081 -0.964748 5.07952e-21)
(0.875437 -0.87834 -9.98901e-21)
(0.843412 -0.804437 1.44902e-20)
(0.819401 -0.741078 3.44395e-21)
(0.80198 -0.686526 -9.21635e-21)
(0.789904 -0.639246 -8.09041e-21)
(0.782154 -0.597837 -6.09924e-23)
(0.777803 -0.561097 1.12416e-20)
(0.775122 -0.528698 -2.48533e-21)
(9.06632 -11.0072 -3.10811e-20)
(7.97662 -10.1532 -1.90136e-19)
(7.18722 -9.15588 2.07974e-19)
(6.46554 -8.20189 1.154e-19)
(5.77787 -7.32734 9.1274e-20)
(5.14291 -6.52205 1.69646e-20)
(4.5637 -5.78555 2.64639e-20)
(4.03922 -5.11809 1.17461e-20)
(3.56834 -4.51776 -3.77429e-20)
(3.14912 -3.98138 6.42344e-20)
(2.77885 -3.50502 -4.25593e-20)
(2.45433 -3.08427 -1.17738e-21)
(2.17202 -2.71448 6.13024e-21)
(1.92827 -2.39095 -2.06641e-20)
(1.71942 -2.10907 3.16506e-20)
(1.54185 -1.86446 5.8484e-21)
(1.39213 -1.65299 -1.23418e-20)
(1.26695 -1.47072 4.55366e-21)
(1.16329 -1.3141 -8.75464e-21)
(1.07831 -1.17981 -7.59752e-21)
(1.00945 -1.06487 -8.04637e-21)
(0.95438 -0.966606 1.82255e-21)
(0.911012 -0.882626 1.06668e-21)
(0.87749 -0.810781 -1.96454e-20)
(0.852174 -0.749164 -7.53565e-21)
(0.833613 -0.696085 4.80414e-21)
(0.820542 -0.650037 6.05495e-21)
(0.811921 -0.60962 -8.37995e-21)
(0.806806 -0.57361 -3.25422e-21)
(0.803347 -0.541722 2.98004e-22)
(9.35232 -10.7666 -4.48611e-20)
(8.24118 -9.94245 1.22972e-19)
(7.42588 -8.96592 -3.18415e-20)
(6.67895 -8.03065 -3.64547e-20)
(5.968 -7.1741 -1.41841e-19)
(5.3117 -6.38568 -1.99531e-20)
(4.71317 -5.66488 4.37051e-20)
(4.17143 -5.01202 -2.19253e-20)
(3.6853 -4.42522 -7.60394e-22)
(3.25275 -3.90129 -3.64398e-21)
(2.87093 -3.43637 1.55601e-20)
(2.53647 -3.02606 -2.40478e-20)
(2.24568 -2.66575 -1.42557e-20)
(1.99474 -2.35076 1.5436e-20)
(1.77981 -2.07653 -8.20822e-21)
(1.59712 -1.83869 3.88182e-21)
(1.44307 -1.63314 4.86306e-22)
(1.31428 -1.45609 -3.01943e-21)
(1.20755 -1.30398 1.09258e-20)
(1.11998 -1.1736 -9.95943e-21)
(1.04891 -1.06202 -7.94256e-21)
(0.991937 -0.966618 6.87267e-21)
(0.946919 -0.885066 -7.6358e-22)
(0.911956 -0.815286 -5.12595e-21)
(0.885374 -0.755431 4.52286e-21)
(0.865699 -0.70387 -1.41719e-20)
(0.85165 -0.659137 8.62853e-21)
(0.842185 -0.619841 -1.35291e-22)
(0.836348 -0.584709 -9.20467e-21)
(0.832154 -0.553453 1.24549e-20)
(9.63315 -10.5188 1.22344e-19)
(8.50083 -9.72487 -2.71128e-19)
(7.65968 -8.76949 -1.2466e-20)
(6.88779 -7.85351 8.40239e-20)
(6.15392 -7.01555 -1.80655e-20)
(5.47665 -6.24457 -3.8371e-20)
(4.85918 -5.53999 1.76155e-20)
(4.30055 -4.90219 1.51729e-20)
(3.79953 -4.32929 9.39803e-22)
(3.35398 -3.81815 1.41114e-20)
(2.96094 -3.36493 3.83878e-20)
(2.61686 -2.96529 -1.36915e-20)
(2.31789 -2.61463 2.5066e-21)
(2.06002 -2.30833 -6.53837e-21)
(1.83925 -2.04186 2.58027e-20)
(1.65167 -1.81091 -4.26395e-21)
(1.49352 -1.6114 6.38258e-21)
(1.36127 -1.43959 -1.02857e-20)
(1.25165 -1.29204 5.51186e-21)
(1.16163 -1.16556 8.19508e-21)
(1.08847 -1.05732 1.38119e-21)
(1.0297 -0.964773 5.43229e-21)
(0.983122 -0.885629 -4.48991e-21)
(0.946782 -0.817884 1.24866e-20)
(0.918976 -0.75977 -5.10739e-21)
(0.898211 -0.709723 1.8771e-20)
(0.883196 -0.666349 -5.41128e-21)
(0.872896 -0.628288 3.76785e-21)
(0.866397 -0.594201 -7.1844e-21)
(0.861568 -0.563724 1.20737e-20)
(9.90981 -10.2641 -2.98371e-19)
(8.75587 -9.50021 1.10021e-20)
(7.88848 -8.56641 -9.78133e-20)
(7.09182 -7.67043 1.68457e-20)
(6.3354 -6.85174 2.00695e-21)
(5.63757 -6.09881 -5.18692e-20)
(5.00155 -5.41097 -8.06503e-20)
(4.42642 -4.78867 3.59376e-20)
(3.91088 -4.23005 -4.56599e-20)
(3.4527 -3.73203 -1.95482e-20)
(3.04877 -3.29079 -9.43299e-21)
(2.69539 -2.90202 -6.75279e-21)
(2.38853 -2.56119 -8.03055e-23)
(2.12402 -2.26372 -2.17026e-20)
(1.89767 -2.00513 1.28118e-20)
(1.70542 -1.78115 -2.07374e-20)
(1.54337 -1.58776 -4.91728e-21)
(1.40787 -1.42127 5.65882e-21)
(1.29552 -1.27829 -2.19654e-21)
(1.2032 -1.15573 6.44217e-21)
(1.12809 -1.05083 4.87872e-21)
(1.06764 -0.96109 -1.21734e-20)
(1.0196 -0.884315 1.22398e-20)
(0.981964 -0.818547 -1.29806e-21)
(0.952996 -0.762087 -3.2749e-21)
(0.931173 -0.713458 -1.30166e-20)
(0.91518 -0.671356 -6.93523e-21)
(0.903994 -0.634481 1.28299e-20)
(0.896812 -0.601433 -4.22106e-21)
(0.891453 -0.571846 -3.87422e-21)
(10.1823 -10.0013 1.40951e-19)
(9.00608 -9.26734 1.93518e-20)
(8.11203 -8.35635 -2.3443e-20)
(7.29078 -7.4815 1.02633e-21)
(6.51229 -6.6829 -2.13023e-20)
(5.79435 -5.94862 6.97654e-20)
(5.14021 -5.27803 -2.86321e-20)
(4.54897 -4.67165 1.83794e-20)
(4.01929 -4.12768 7.65999e-21)
(3.54883 -3.64306 1.86494e-20)
(3.13435 -3.21404 -5.17473e-21)
(2.77199 -2.83635 3.02033e-20)
(2.45753 -2.50551 -2.38161e-21)
(2.18664 -2.21699 1.63618e-20)
(1.95497 -1.96638 -2.56511e-20)
(1.75828 -1.74945 -1.51603e-21)
(1.59255 -1.56226 1.55855e-20)
(1.45398 -1.40115 -9.28271e-21)
(1.33907 -1.2628 3.73504e-21)
(1.24461 -1.14418 6.32325e-21)
(1.16768 -1.04261 -9.20417e-21)
(1.1057 -0.955677 1.01133e-20)
(1.05633 -0.881213 -9.45094e-21)
(1.01756 -0.81735 2.0563e-21)
(0.987577 -0.762424 7.61627e-21)
(0.964852 -0.715014 5.28545e-21)
(0.948035 -0.673871 5.02634e-21)
(0.936065 -0.637732 3.6833e-21)
(0.928165 -0.605231 -9.95699e-21)
(0.922249 -0.576325 -3.78813e-21)
(14.2751 0.127813 1.74725e-21)
(14.2713 -0.248581 1.42705e-20)
(14.2583 -0.623286 4.96337e-20)
(14.2367 -0.996735 2.56343e-20)
(14.2058 -1.36908 -6.05117e-20)
(14.1654 -1.74024 1.76537e-20)
(14.1153 -2.11007 -1.64013e-20)
(14.0555 -2.47838 -4.4178e-20)
(13.9861 -2.84495 2.77651e-20)
(13.9071 -3.20955 -3.04995e-20)
(13.8185 -3.57194 -2.55657e-20)
(13.7204 -3.93188 -6.18789e-20)
(13.6129 -4.28911 -1.81498e-19)
(13.496 -4.6434 1.82593e-20)