/*--------------------------------*- C++ -*----------------------------------*\
  =========                 |
  \\      /  F ield         | OpenFOAM: The Open Source CFD Toolbox
   \\    /   O peration     | Website:  https://openfoam.org
    \\  /    A nd           | Version:  6.0
     \\/     M anipulation  |
\*---------------------------------------------------------------------------*/
FoamFile
{
    version     2.0;
    format      ascii;
    class       volScalarField;
    location    "16.74975";
    object      p;
}
// * * * * * * * * * * * * * * * * * * * * * * * * * * * * * * * * * * * * * //

dimensions      [0 2 -2 0 0 0 0];

internalField   nonuniform List<scalar> 
19200
(
-41.0816
-37.5138
-34.9263
-32.788
-30.8096
-28.985
-27.2991
-25.7303
-24.2643
-22.8915
-21.6045
-20.3974
-19.2651
-18.203
-17.2069
-16.2729
-15.3973
-14.5763
-13.8066
-13.0847
-12.4076
-11.772
-11.1753
-10.6147
-10.0878
-9.59219
-9.12582
-8.68672
-8.27306
-7.88417
-41.5286
-37.9624
-35.3668
-33.2148
-31.2202
-29.3782
-27.6745
-26.0879
-24.6046
-23.2153
-21.9127
-20.6911
-19.5452
-18.4706
-17.463
-16.5185
-15.6332
-14.8035
-14.0257
-13.2964
-12.6124
-11.9706
-11.3681
-10.8021
-10.2701
-9.76973
-9.29891
-8.85553
-8.43765
-8.04543
-41.981
-38.4107
-35.8058
-33.64
-31.6291
-29.7697
-28.0481
-26.4437
-24.943
-23.5372
-22.219
-20.9828
-19.8234
-18.7364
-17.7174
-16.7624
-15.8676
-15.0291
-14.2433
-13.5067
-12.8159
-12.1679
-11.5596
-10.9882
-10.4512
-9.94612
-9.47086
-9.0232
-8.6011
-8.20563
-42.4358
-38.8591
-36.2435
-34.0635
-32.0362
-30.1591
-28.4195
-26.7972
-25.2793
-23.8568
-22.5231
-21.2723
-20.0995
-19.0001
-17.9698
-17.0045
-16.1002
-15.253
-14.4592
-13.7153
-13.0179
-12.3637
-11.7496
-11.1729
-10.6309
-10.1212
-9.64152
-9.18959
-8.76329
-8.36463
-42.891
-39.3069
-36.6799
-34.4853
-32.4412
-30.5464
-28.7886
-27.1484
-25.613
-24.1741
-22.8248
-21.5596
-20.3734
-19.2617
-18.2201
-17.2445
-16.3307
-15.4749
-14.6733
-13.9222
-13.2182
-12.5578
-11.9381
-11.3562
-10.8092
-10.2948
-9.81077
-9.35459
-8.9241
-8.52235
-43.3454
-39.7536
-37.1146
-34.905
-32.844
-30.9311
-29.1551
-27.4969
-25.9441
-24.4887
-23.1239
-21.8442
-20.6447
-19.5208
-18.468
-17.4822
-16.5591
-15.6949
-14.8855
-14.1272
-13.4166
-12.7502
-12.1249
-11.5377
-10.9859
-10.4669
-9.97851
-9.5181
-9.08344
-8.67868
-43.7985
-40.1986
-37.5473
-35.3224
-33.2442
-31.3132
-29.5188
-27.8425
-26.2723
-24.8003
-23.4201
-22.126
-20.9133
-19.7772
-18.7134
-17.7175
-16.7852
-15.9125
-15.0954
-14.3302
-13.6131
-12.9407
-12.3099
-11.7175
-11.1608
-10.6373
-10.1446
-9.67999
-9.2412
-8.83353
-44.2495
-40.6415
-37.9776
-35.7372
-33.6416
-31.6923
-29.8795
-28.185
-26.5974
-25.1089
-23.7132
-22.4049
-21.179
-20.0309
-18.9561
-17.9502
-17.0088
-16.1278
-15.3031
-14.5309
-13.8074
-13.1292
-12.4929
-11.8954
-11.334
-10.8059
-10.309
-9.84018
-9.39728
-8.9868
-44.6981
-41.0819
-38.4052
-36.149
-34.0358
-32.0682
-30.2368
-28.5241
-26.9191
-25.4141
-24.003
-22.6805
-21.4416
-20.2816
-19.1959
-18.18
-17.2297
-16.3405
-15.5083
-14.7293
-13.9995
-13.3154
-12.6737
-12.0713
-11.5051
-10.9727
-10.4715
-9.99855
-9.5516
-9.13841
-45.1438
-41.5192
-38.8296
-36.5576
-34.4267
-32.4405
-30.5905
-28.8596
-27.2371
-25.7157
-24.2893
-22.9527
-21.7008
-20.529
-19.4325
-18.4069
-17.4477
-16.5504
-15.7109
-14.9251
-14.1891
-13.4993
-12.8524
-12.2449
-11.6741
-11.1373
-10.632
-10.155
-9.70405
-9.28828
-45.5863
-41.9533
-39.2507
-36.9625
-34.8138
-32.809
-30.9403
-29.1912
-27.5513
-26.0135
-24.5719
-23.2212
-21.9565
-20.773
-19.6659
-18.6307
-17.6627
-16.7574
-15.9106
-15.1182
-14.3761
-13.6808
-13.0286
-12.4163
-11.841
-11.2999
-10.7905
-10.3095
-9.85454
-9.4363
-46.0251
-42.3836
-39.6679
-37.3635
-35.1969
-33.1734
-31.286
-29.5187
-27.8614
-26.3073
-24.8505
-23.4859
-22.2085
-21.0134
-19.8959
-18.8511
-17.8744
-16.9613
-16.1074
-15.3085
-14.5604
-13.8595
-13.2022
-12.5852
-12.0054
-11.4601
-10.9467
-10.4618
-10.003
-9.58241
-46.4599
-42.81
-40.081
-37.7604
-35.5757
-33.5335
-31.6273
-29.8418
-28.1671
-26.5968
-25.125
-23.7466
-22.4566
-21.25
-20.1221
-19.068
-18.0828
-17.162
-16.3011
-15.4957
-14.7418
-14.0355
-13.3732
-12.7515
-12.1674
-11.618
-11.1007
-10.6119
-10.1493
-9.7265
-46.8905
-43.232
-40.4897
-38.1527
-35.95
-33.8889
-31.9639
-30.1602
-28.4683
-26.8817
-25.395
-24.0029
-22.7005
-21.4826
-20.3445
-19.2811
-18.2876
-17.3592
-16.4914
-15.6797
-14.9201
-14.2085
-13.5413
-12.9151
-12.3267
-11.7733
-11.2522
-10.7596
-10.2933
-9.86848
-47.3164
-43.6495
-40.8937
-38.5403
-36.3193
-34.2394
-32.2957
-30.4738
-28.7646
-27.162
-25.6605
-24.2548
-22.94
-21.7111
-20.5628
-19.4903
-18.4886
-17.5528
-16.6782
-15.8604
-15.0951
-14.3784
-13.7064
-13.0758
-12.4832
-11.926
-11.4012
-10.9049
-10.4349
-10.0082
-47.7375
-44.062
-41.2928
-38.9228
-36.6836
-34.5847
-32.6222
-30.7822
-29.0559
-27.4373
-25.9211
-24.502
-23.1751
-21.9351
-20.7769
-19.6955
-18.6857
-17.7425
-16.8613
-16.0375
-15.2667
-14.5449
-13.8683
-13.2333
-12.6368
-12.0757
-11.5474
-11.0475
-10.5741
-10.1457
-48.1535
-44.4694
-41.6866
-39.2999
-37.0424
-34.9247
-32.9434
-31.0853
-29.3419
-27.7075
-26.1767
-24.7443
-23.4053
-22.1545
-20.9866
-19.8963
-18.8786
-17.9283
-17.0406
-16.2108
-15.4346
-14.7079
-14.0268
-13.3876
-12.7872
-12.2225
-11.6906
-11.1873
-10.7105
-10.2806
-48.5641
-44.8714
-42.075
-39.6716
-37.3957
-35.259
-33.259
-31.3828
-29.6225
-27.9723
-26.427
-24.9816
-23.6307
-22.3692
-21.1916
-20.0927
-19.0672
-18.1098
-17.2157
-16.3802
-15.5987
-14.8672
-14.1816
-13.5384
-12.9341
-12.366
-11.8308
-11.3242
-10.8441
-10.4128
-48.9692
-45.2678
-42.4577
-40.0374
-37.7431
-35.5874
-33.5687
-31.6746
-29.8973
-28.2315
-26.6719
-25.2135
-23.8509
-22.5788
-21.3918
-20.2844
-19.2512
-18.2869
-17.3866
-16.5454
-15.7587
-15.0225
-14.3326
-13.6854
-13.0775
-12.5059
-11.9676
-11.4578
-10.9746
-10.5422
-49.3685
-45.6584
-42.8344
-40.3972
-38.0844
-35.9098
-33.8723
-31.9603
-30.1663
-28.485
-26.9113
-25.44
-24.0659
-22.7834
-21.587
-20.4712
-19.4305
-18.4594
-17.5529
-16.7061
-15.9144
-15.1736
-14.4795
-13.8284
-13.217
-12.6421
-12.1008
-11.5879
-11.1017
-10.6684
-49.7621
-46.043
-43.2051
-40.7509
-38.4194
-36.2258
-34.1697
-32.2399
-30.4292
-28.7325
-27.1448
-25.6608
-24.2753
-22.9826
-21.7771
-20.653
-19.6049
-18.6271
-17.7146
-16.8623
-16.0656
-15.3202
-14.6219
-13.9671
-13.3522
-12.7742
-12.23
-11.7142
-11.2252
-10.7911
-50.1498
-46.4216
-43.5695
-41.0981
-38.7479
-36.5353
-34.4606
-32.513
-30.6858
-28.9739
-27.3723
-25.8759
-24.4791
-23.1764
-21.9618
-20.8296
-19.7741
-18.7898
-17.8713
-17.0136
-16.212
-15.4621
-14.7598
-14.1012
-13.4829
-12.9019
-12.3548
-11.8363
-11.3445
-10.9098
-50.5317
-46.794
-43.9275
-41.4386
-39.0697
-36.838
-34.7447
-32.7795
-30.9359
-29.209
-27.5938
-26.085
-24.6772
-23.3645
-22.141
-21.0009
-19.9382
-18.9473
-18.0229
-17.1599
-16.3534
-15.599
-14.8926
-14.2304
-13.6087
-13.0246
-12.4749
-11.9537
-11.4593
-11.0241
-50.9081
-47.1602
-44.2789
-41.7724
-39.3845
-37.1338
-35.022
-33.0393
-31.1794
-29.4376
-27.809
-26.2881
-24.8694
-23.5469
-22.3147
-21.1667
-20.0969
-19.0996
-18.1693
-17.3009
-16.4895
-15.7307
-15.0202
-14.3542
-13.7292
-13.1421
-12.5897
-12.0659
-11.569
-11.1336
-51.279
-47.52
-44.6234
-42.099
-39.6922
-37.4224
-35.2922
-33.2921
-31.4162
-29.6597
-28.0178
-26.485
-25.0556
-23.7235
-22.4827
-21.3269
-20.2501
-19.2464
-18.3103
-17.4366
-16.6203
-15.8569
-15.1423
-14.4724
-13.844
-13.2538
-12.6986
-12.1722
-11.6728
-11.2376
-51.6448
-47.8731
-44.9607
-42.4183
-39.9923
-37.7035
-35.555
-33.5378
-31.646
-29.8751
-28.2201
-26.6756
-25.2357
-23.8943
-22.645
-21.4816
-20.3978
-19.3878
-18.4459
-17.5668
-16.7455
-15.9775
-15.2585
-14.5848
-13.9526
-13.3591
-12.8009
-12.2718
-11.7698
-11.334
-52.0065
-48.2196
-45.2906
-42.7298
-40.2847
-37.9768
-35.8102
-33.776
-31.8687
-30.0836
-28.4159
-26.8599
-25.4097
-24.0591
-22.8016
-21.6306
-20.5401
-19.5238
-18.5761
-17.6916
-16.8652
-16.0924
-15.369
-14.691
-14.0549
-13.4578
-12.8965
-12.3645
-11.8593
-11.4211
-52.3687
-48.5609
-45.6126
-43.0329
-40.5685
-38.2418
-36.0574
-34.0066
-32.0839
-30.285
-28.6048
-27.0377
-25.5776
-24.218
-22.9524
-21.7741
-20.6769
-19.6544
-18.7009
-17.8109
-16.9794
-16.2017
-15.4735
-14.7909
-14.1506
-13.5496
-12.9849
-12.4497
-11.9408
-11.503
-52.7346
-48.8964
-45.9252
-43.3263
-40.8431
-38.4982
-36.2963
-34.2293
-32.2918
-30.4794
-28.7871
-27.2092
-25.7393
-24.371
-23.0975
-21.9122
-20.8084
-19.7798
-18.8206
-17.9251
-17.0883
-16.3054
-15.5721
-14.8844
-14.239
-13.6331
-13.0632
-12.5225
-12.011
-11.5848
-53.0805
-49.2167
-46.2257
-43.6095
-41.1091
-38.7468
-36.5281
-34.4452
-32.4932
-30.6676
-28.9635
-27.375
-25.8957
-24.5189
-23.2378
-22.0454
-20.9352
-19.9007
-18.9358
-18.0349
-17.1928
-16.4046
-15.6658
-14.9724
-14.3208
-13.7078
-13.1287
-12.5778
-12.0641
-11.641
-58.0128
-57.9994
-57.9653
-57.9255
-57.8783
-57.8209
-57.7526
-57.6734
-57.5831
-57.4818
-57.3693
-57.2457
-57.1111
-56.9656
-56.8093
-56.6425
-56.4652
-56.2776
-56.08
-55.8725
-55.6553
-55.4288
-55.1931
-54.9486
-54.6957
-54.4349
-54.167
-53.8937
-53.6178
-53.344
-53.96
-53.962
-53.9466
-53.92
-53.8827
-53.8337
-53.7732
-53.7012
-53.6179
-53.5234
-53.4178
-53.3011
-53.1735
-53.0351
-52.886
-52.7264
-52.5564
-52.3763
-52.1862
-51.9863
-51.7768
-51.5579
-51.33
-51.0932
-50.8479
-50.5945
-50.3334
-50.0654
-49.7908
-49.5083
-50.6508
-50.6644
-50.663
-50.6484
-50.6217
-50.5831
-50.5328
-50.471
-50.398
-50.3138
-50.2185
-50.1124
-49.9955
-49.8679
-49.7298
-49.5814
-49.4227
-49.2541
-49.0756
-48.8874
-48.6897
-48.4828
-48.2667
-48.0418
-47.8082
-47.5662
-47.316
-47.0574
-46.7904
-46.5134
-47.6611
-47.6833
-47.6922
-47.6882
-47.6719
-47.644
-47.6045
-47.5539
-47.4921
-47.4193
-47.3358
-47.2416
-47.1368
-47.0216
-46.8962
-46.7606
-46.6151
-46.4598
-46.2948
-46.1203
-45.9365
-45.7435
-45.5415
-45.3307
-45.1112
-44.8831
-44.6464
-44.4011
-44.147
-43.8833
-44.7805
-44.8096
-44.8268
-44.8319
-44.8251
-44.8069
-44.7776
-44.7374
-44.6864
-44.6248
-44.5527
-44.4702
-44.3776
-44.2748
-44.1621
-44.0396
-43.9074
-43.7657
-43.6146
-43.4542
-43.2848
-43.1065
-42.9193
-42.7234
-42.5189
-42.3058
-42.0842
-41.854
-41.615
-41.3669
-42.0591
-42.0935
-42.1172
-42.1295
-42.1305
-42.1205
-42.0999
-42.0688
-42.0273
-41.9756
-41.9138
-41.842
-41.7605
-41.6692
-41.5684
-41.4581
-41.3385
-41.2098
-41.072
-40.9253
-40.7698
-40.6057
-40.433
-40.2518
-40.0622
-39.8643
-39.6579
-39.4432
-39.22
-38.988
-39.5173
-39.5556
-39.5838
-39.6014
-39.6083
-39.6048
-39.5911
-39.5674
-39.5338
-39.4904
-39.4374
-39.3749
-39.303
-39.2219
-39.1316
-39.0322
-38.924
-38.807
-38.6814
-38.5472
-38.4046
-38.2537
-38.0945
-37.9272
-37.7517
-37.5682
-37.3767
-37.177
-36.9691
-36.7529
-37.1541
-37.1946
-37.2258
-37.2469
-37.2579
-37.2591
-37.2506
-37.2327
-37.2053
-37.1686
-37.1228
-37.0679
-37.0041
-36.9315
-36.8501
-36.7602
-36.6619
-36.5552
-36.4402
-36.3171
-36.186
-36.047
-35.9001
-35.7454
-35.583
-35.4128
-35.235
-35.0493
-34.8559
-34.6547
-34.9651
-35.0065
-35.0391
-35.0622
-35.0759
-35.0802
-35.0755
-35.0617
-35.0389
-35.0074
-34.9672
-34.9184
-34.8611
-34.7955
-34.7216
-34.6396
-34.5495
-34.4516
-34.3458
-34.2323
-34.1113
-33.9827
-33.8466
-33.7032
-33.5524
-33.3943
-33.2289
-33.0561
-32.876
-32.6885
-32.9429
-32.9842
-33.0171
-33.041
-33.0561
-33.0623
-33.0599
-33.049
-33.0296
-33.0018
-32.9658
-32.9217
-32.8696
-32.8095
-32.7417
-32.6661
-32.5829
-32.4923
-32.3943
-32.289
-32.1765
-32.0569
-31.9303
-31.7968
-31.6563
-31.5089
-31.3546
-31.1934
-31.0252
-30.8501
-31.0778
-31.118
-31.1504
-31.1743
-31.1897
-31.1968
-31.1958
-31.1866
-31.1694
-31.1443
-31.1115
-31.0709
-31.0227
-30.967
-30.9039
-30.8335
-30.756
-30.6714
-30.5798
-30.4814
-30.3762
-30.2643
-30.1459
-30.0208
-29.8893
-29.7513
-29.6069
-29.4559
-29.2985
-29.1345
-29.3585
-29.3971
-29.4283
-29.4514
-29.4665
-29.4738
-29.4733
-29.4651
-29.4492
-29.4259
-29.3952
-29.3572
-29.3119
-29.2596
-29.2002
-29.134
-29.061
-28.9814
-28.8951
-28.8024
-28.7034
-28.5981
-28.4865
-28.3689
-28.2452
-28.1154
-27.9796
-27.8377
-27.6897
-27.5356
-27.7731
-27.8099
-27.8394
-27.8613
-27.8756
-27.8824
-27.8819
-27.874
-27.8589
-27.8367
-27.8074
-27.7712
-27.7281
-27.6783
-27.6219
-27.559
-27.4896
-27.414
-27.3321
-27.2442
-27.1503
-27.0505
-26.945
-26.8337
-26.7167
-26.5941
-26.4659
-26.332
-26.1924
-26.0471
-26.3101
-26.3447
-26.3724
-26.3928
-26.4059
-26.4119
-26.4109
-26.403
-26.3881
-26.3664
-26.3381
-26.3031
-26.2616
-26.2138
-26.1596
-26.0993
-26.0329
-25.9605
-25.8823
-25.7983
-25.7088
-25.6137
-25.5132
-25.4074
-25.2963
-25.18
-25.0584
-24.9316
-24.7995
-24.6621
-24.9583
-24.9906
-25.0163
-25.035
-25.0468
-25.0518
-25.0501
-25.0417
-25.0268
-25.0053
-24.9775
-24.9434
-24.903
-24.8566
-24.8042
-24.7459
-24.6819
-24.6122
-24.537
-24.4564
-24.3705
-24.2794
-24.1833
-24.0822
-23.9762
-23.8654
-23.7498
-23.6293
-23.5039
-23.3736
-23.7072
-23.7372
-23.7608
-23.7778
-23.7882
-23.792
-23.7894
-23.7805
-23.7652
-23.7438
-23.7162
-23.6826
-23.6431
-23.5978
-23.5467
-23.4901
-23.428
-23.3606
-23.2879
-23.2101
-23.1273
-23.0397
-22.9474
-22.8504
-22.7489
-22.643
-22.5326
-22.4178
-22.2984
-22.1745
-22.5472
-22.575
-22.5966
-22.6119
-22.6208
-22.6234
-22.6199
-22.6102
-22.5946
-22.5729
-22.5454
-22.5122
-22.4733
-22.4288
-22.3788
-22.3235
-22.263
-22.1975
-22.1269
-22.0515
-21.9714
-21.8868
-21.7978
-21.7044
-21.6069
-21.5053
-21.3996
-21.2899
-21.1761
-21.058
-21.4697
-21.4953
-21.5151
-21.5286
-21.5361
-21.5375
-21.533
-21.5226
-21.5065
-21.4846
-21.4571
-21.424
-21.3855
-21.3417
-21.2926
-21.2385
-21.1793
-21.1153
-21.0466
-20.9733
-20.8955
-20.8135
-20.7273
-20.6372
-20.5432
-20.4455
-20.3441
-20.2391
-20.1303
-20.0177
-20.4669
-20.4905
-20.5084
-20.5203
-20.5264
-20.5267
-20.5212
-20.5101
-20.4934
-20.4712
-20.4436
-20.4107
-20.3725
-20.3292
-20.2809
-20.2277
-20.1697
-20.1071
-20.0399
-19.9684
-19.8927
-19.813
-19.7294
-19.6421
-19.5513
-19.4571
-19.3596
-19.2589
-19.1549
-19.0474
-19.5318
-19.5535
-19.5697
-19.5801
-19.5849
-19.584
-19.5777
-19.5658
-19.5486
-19.5261
-19.4984
-19.4655
-19.4276
-19.3848
-19.3371
-19.2847
-19.2277
-19.1663
-19.1006
-19.0307
-18.9568
-18.8791
-18.7978
-18.713
-18.625
-18.534
-18.4402
-18.3434
-18.2439
-18.1412
-18.6582
-18.6782
-18.6927
-18.7017
-18.7053
-18.7034
-18.6962
-18.6837
-18.666
-18.6432
-18.6153
-18.5825
-18.5448
-18.5024
-18.4553
-18.4036
-18.3476
-18.2872
-18.2227
-18.1543
-18.082
-18.0061
-17.9268
-17.8443
-17.7589
-17.6708
-17.5802
-17.4872
-17.3919
-17.2939
-17.8406
-17.8589
-17.872
-17.8797
-17.8821
-17.8793
-17.8713
-17.8582
-17.84
-17.8169
-17.789
-17.7562
-17.7187
-17.6767
-17.6301
-17.5791
-17.5239
-17.4645
-17.4012
-17.334
-17.2631
-17.1888
-17.1113
-17.0309
-16.9477
-16.8622
-16.7746
-16.6851
-16.5938
-16.5006
-17.0742
-17.091
-17.1027
-17.1092
-17.1105
-17.1068
-17.0981
-17.0844
-17.0659
-17.0426
-17.0145
-16.9818
-16.9445
-16.9028
-16.8567
-16.8064
-16.7519
-16.6934
-16.6311
-16.5651
-16.4955
-16.4227
-16.3468
-16.2681
-16.1869
-16.1037
-16.0188
-15.9326
-15.8452
-15.7565
-16.3545
-16.3699
-16.3803
-16.3857
-16.3861
-16.3816
-16.3723
-16.3581
-16.3392
-16.3157
-16.2875
-16.2549
-16.2178
-16.1764
-16.1308
-16.0811
-16.0273
-15.9697
-15.9083
-15.8433
-15.7749
-15.7034
-15.6288
-15.5517
-15.4723
-15.3911
-15.3086
-15.2253
-15.1416
-15.0576
-15.6778
-15.6918
-15.7011
-15.7055
-15.705
-15.6998
-15.6899
-15.6753
-15.6561
-15.6324
-15.6042
-15.5716
-15.5348
-15.4937
-15.4486
-15.3994
-15.3463
-15.2894
-15.2289
-15.1649
-15.0976
-15.0271
-14.9538
-14.878
-14.8
-14.7205
-14.64
-14.5594
-14.4793
-14.3999
-15.0405
-15.0534
-15.0616
-15.065
-15.0638
-15.0579
-15.0474
-15.0324
-15.0129
-14.9891
-14.9609
-14.9284
-14.8918
-14.851
-14.8063
-14.7576
-14.7052
-14.649
-14.5893
-14.5262
-14.4598
-14.3903
-14.318
-14.2432
-14.1664
-14.0882
-14.0093
-13.9308
-13.8539
-13.7794
-14.4398
-14.4515
-14.4587
-14.4613
-14.4593
-14.4527
-14.4418
-14.4264
-14.4066
-14.3826
-14.3543
-14.3219
-14.2855
-14.245
-14.2006
-14.1524
-14.1005
-14.045
-13.9859
-13.9235
-13.8579
-13.7892
-13.7177
-13.6437
-13.5676
-13.4902
-13.4122
-13.3352
-13.2607
-13.1907
-13.8727
-13.8835
-13.8899
-13.8918
-13.8892
-13.8822
-13.8709
-13.8552
-13.8353
-13.8113
-13.783
-13.7508
-13.7145
-13.6743
-13.6303
-13.5826
-13.5312
-13.4763
-13.4178
-13.3561
-13.2911
-13.2231
-13.1522
-13.0788
-13.0032
-12.9261
-12.8484
-12.7721
-12.6992
-12.6325
-13.3365
-13.3469
-13.3529
-13.3545
-13.3518
-13.3448
-13.3335
-13.318
-13.2984
-13.2747
-13.247
-13.2154
-13.1798
-13.1404
-13.0974
-13.0506
-13.0003
-12.9465
-12.8893
-12.8288
-12.7651
-12.6984
-12.6288
-12.5565
-12.4818
-12.4054
-12.3281
-12.2526
-12.1814
-12.1207
-12.8295
-12.8382
-12.8427
-12.843
-12.8392
-12.8313
-12.8193
-12.8034
-12.7835
-12.7597
-12.7321
-12.7008
-12.6657
-12.627
-12.5848
-12.5391
-12.4899
-12.4375
-12.3817
-12.3229
-12.2609
-12.1959
-12.128
-12.0574
-11.9843
-11.909
-11.832
-11.7558
-11.6821
-11.6357
-52.0534
-52.3996
-52.7227
-53.0479
-53.3717
-53.689
-53.9979
-54.298
-54.5886
-54.8689
-55.1386
-55.3971
-55.6442
-55.8795
-56.1027
-56.3138
-56.5124
-56.6985
-56.872
-57.0328
-57.1809
-57.3162
-57.4387
-57.5486
-57.646
-57.7311
-57.8045
-57.8669
-57.9202
-57.9672
-47.9386
-48.2993
-48.6425
-48.9784
-49.3072
-49.627
-49.9373
-50.2379
-50.5285
-50.8088
-51.0784
-51.337
-51.5843
-51.82
-52.044
-52.256
-52.4559
-52.6436
-52.8188
-52.9817
-53.132
-53.2699
-53.3952
-53.508
-53.6085
-53.6968
-53.7732
-53.8379
-53.8912
-53.9321
-44.575
-44.9373
-45.2865
-45.6248
-45.9535
-46.2727
-46.5822
-46.8819
-47.1717
-47.4512
-47.7203
-47.9787
-48.2261
-48.4622
-48.6871
-48.9003
-49.1018
-49.2915
-49.4692
-49.6348
-49.7883
-49.9297
-50.0589
-50.1759
-50.2808
-50.3736
-50.4543
-50.5228
-50.579
-50.6218
-41.5757
-41.9317
-42.2772
-42.6121
-42.9371
-43.2527
-43.5588
-43.8555
-44.1424
-44.4194
-44.6862
-44.9427
-45.1887
-45.4239
-45.6482
-45.8614
-46.0633
-46.2539
-46.433
-46.6005
-46.7563
-46.9005
-47.0329
-47.1535
-47.2623
-47.3592
-47.4443
-47.5173
-47.5781
-47.6261
-38.7418
-39.0879
-39.4254
-39.7533
-40.0718
-40.3811
-40.6814
-40.9726
-41.2543
-41.5265
-41.789
-42.0417
-42.2842
-42.5165
-42.7383
-42.9496
-43.1501
-43.3398
-43.5186
-43.6863
-43.8428
-43.9882
-44.1223
-44.2451
-44.3565
-44.4565
-44.545
-44.6219
-44.687
-44.74
-36.1212
-36.4555
-36.7827
-37.1011
-37.4106
-37.7116
-38.0039
-38.2874
-38.562
-38.8275
-39.0837
-39.3305
-39.5678
-39.7952
-40.0128
-40.2203
-40.4177
-40.6047
-40.7813
-40.9474
-41.1029
-41.2478
-41.3819
-41.5052
-41.6176
-41.7192
-41.8097
-41.8891
-41.9573
-42.0141
-33.7254
-34.0471
-34.3624
-34.6697
-34.9688
-35.2597
-35.5424
-35.8168
-36.0827
-36.34
-36.5885
-36.8281
-37.0585
-37.2797
-37.4915
-37.6937
-37.8862
-38.069
-38.2419
-38.4048
-38.5577
-38.7004
-38.833
-38.9552
-39.0672
-39.1687
-39.2598
-39.3403
-39.4102
-39.4693
-31.5421
-31.8507
-32.1535
-32.4488
-32.7364
-33.0164
-33.2887
-33.553
-33.8093
-34.0574
-34.2972
-34.5284
-34.751
-34.9648
-35.1696
-35.3654
-35.552
-35.7293
-35.8973
-36.0557
-36.2047
-36.344
-36.4736
-36.5935
-36.7035
-36.8037
-36.894
-36.9743
-37.0445
-37.1046
-29.5557
-29.8511
-30.1411
-30.4242
-30.7
-30.9687
-31.23
-31.4839
-31.73
-31.9684
-32.1988
-32.4212
-32.6352
-32.8409
-33.0381
-33.2267
-33.4065
-33.5775
-33.7396
-33.8927
-34.0368
-34.1717
-34.2974
-34.4138
-34.5209
-34.6187
-34.707
-34.7859
-34.8553
-34.9152
-27.7488
-28.0314
-28.3088
-28.5797
-28.8438
-29.1011
-29.3515
-29.5947
-29.8306
-30.0591
-30.28
-30.4931
-30.6984
-30.8956
-31.0848
-31.2658
-31.4384
-31.6026
-31.7583
-31.9055
-32.044
-32.1738
-32.2949
-32.4072
-32.5106
-32.6052
-32.6908
-32.7674
-32.835
-32.8937
-26.1036
-26.3738
-26.639
-26.8981
-27.1508
-27.397
-27.6366
-27.8694
-28.0952
-28.3139
-28.5253
-28.7293
-28.9257
-29.1145
-29.2956
-29.4688
-29.634
-29.7912
-29.9403
-30.0812
-30.2139
-30.3383
-30.4543
-30.562
-30.6612
-30.752
-30.8343
-30.908
-30.9733
-31.03
-24.6028
-24.8612
-25.1148
-25.3627
-25.6044
-25.8399
-26.0692
-26.2919
-26.5079
-26.717
-26.9192
-27.1143
-27.3021
-27.4826
-27.6556
-27.8211
-27.9789
-28.1291
-28.2715
-28.4061
-28.5328
-28.6516
-28.7624
-28.8652
-28.96
-29.0467
-29.1253
-29.1959
-29.2583
-29.3126
-23.2302
-23.4775
-23.7202
-23.9574
-24.1888
-24.4142
-24.6336
-24.8467
-25.0533
-25.2534
-25.4467
-25.6331
-25.8126
-25.9851
-26.1503
-26.3083
-26.459
-26.6023
-26.7382
-26.8665
-26.9873
-27.1005
-27.2061
-27.304
-27.3942
-27.4767
-27.5515
-27.6186
-27.6779
-27.7295
-21.9714
-22.2083
-22.4408
-22.668
-22.8896
-23.1055
-23.3156
-23.5196
-23.7174
-23.9088
-24.0938
-24.272
-24.4436
-24.6083
-24.7662
-24.917
-25.0608
-25.1975
-25.327
-25.4493
-25.5643
-25.672
-25.7724
-25.8655
-25.9512
-26.0296
-26.1005
-26.164
-26.2202
-26.269
-20.8135
-21.0408
-21.2637
-21.4815
-21.694
-21.9011
-22.1025
-22.298
-22.4875
-22.6708
-22.8478
-23.0183
-23.1824
-23.3399
-23.4906
-23.6347
-23.7719
-23.9022
-24.0257
-24.1422
-24.2517
-24.3542
-24.4496
-24.538
-24.6193
-24.6936
-24.7607
-24.8208
-24.8737
-24.9197
-19.7454
-19.9636
-20.1776
-20.3868
-20.5908
-20.7896
-20.9829
-21.1704
-21.3521
-21.5278
-21.6974
-21.8607
-22.0177
-22.1683
-22.3125
-22.45
-22.5811
-22.7054
-22.8231
-22.9341
-23.0384
-23.1359
-23.2266
-23.3105
-23.3876
-23.4579
-23.5214
-23.5781
-23.6279
-23.671
-18.7572
-18.967
-19.1728
-19.3739
-19.5701
-19.7612
-19.9469
-20.127
-20.3015
-20.47
-20.6326
-20.7892
-20.9396
-21.0837
-21.2216
-21.3532
-21.4783
-21.5971
-21.7094
-21.8152
-21.9145
-22.0073
-22.0935
-22.1732
-22.2463
-22.3128
-22.3728
-22.4262
-22.4731
-22.5135
-17.8405
-18.0425
-18.2406
-18.4343
-18.6232
-18.8071
-18.9858
-19.1591
-19.3267
-19.4887
-19.6448
-19.7949
-19.9391
-20.0772
-20.2093
-20.3351
-20.4548
-20.5683
-20.6755
-20.7764
-20.8711
-20.9594
-21.0414
-21.1171
-21.1864
-21.2495
-21.3061
-21.3565
-21.4005
-21.4384
-16.9879
-17.1826
-17.3736
-17.5604
-17.7426
-17.92
-18.0921
-18.259
-18.4203
-18.576
-18.726
-18.8702
-19.0086
-19.1411
-19.2676
-19.3882
-19.5027
-19.6112
-19.7137
-19.81
-19.9003
-19.9845
-20.0625
-20.1345
-20.2003
-20.26
-20.3135
-20.361
-20.4024
-20.4377
-16.1931
-16.3809
-16.5654
-16.7459
-16.922
-17.0932
-17.2593
-17.4201
-17.5756
-17.7254
-17.8697
-18.0084
-18.1413
-18.2684
-18.3898
-18.5053
-18.6151
-18.7189
-18.8169
-18.909
-18.9952
-19.0755
-19.1498
-19.2182
-19.2807
-19.3373
-19.388
-19.4328
-19.4717
-19.5047
-15.4504
-15.6318
-15.8104
-15.9851
-16.1555
-16.321
-16.4815
-16.6368
-16.7866
-16.9311
-17.07
-17.2033
-17.3311
-17.4533
-17.5698
-17.6806
-17.7858
-17.8854
-17.9792
-18.0672
-18.1496
-18.2262
-18.2971
-18.3623
-18.4217
-18.4754
-18.5233
-18.5656
-18.6022
-18.6331
-14.7549
-14.9303
-15.1036
-15.2732
-15.4383
-15.5986
-15.7538
-15.9038
-16.0485
-16.1877
-16.3216
-16.4499
-16.5729
-16.6903
-16.8023
-16.9088
-17.0097
-17.1051
-17.195
-17.2793
-17.3581
-17.4313
-17.499
-17.5611
-17.6176
-17.6686
-17.7141
-17.754
-17.7884
-17.8173
-14.1022
-14.2721
-14.4407
-14.6057
-14.766
-14.9214
-15.0717
-15.2168
-15.3565
-15.4909
-15.6199
-15.7436
-15.862
-15.975
-16.0826
-16.185
-16.2819
-16.3735
-16.4597
-16.5405
-16.616
-16.686
-16.7506
-16.8099
-16.8637
-16.9122
-16.9553
-16.993
-17.0254
-17.0525
-13.4882
-13.6531
-13.8179
-13.9788
-14.1348
-14.2857
-14.4314
-14.5717
-14.7067
-14.8365
-14.9609
-15.0802
-15.1942
-15.3031
-15.4067
-15.5051
-15.5983
-15.6863
-15.769
-15.8466
-15.9189
-15.9859
-16.0477
-16.1043
-16.1557
-16.2018
-16.2427
-16.2784
-16.309
-16.3344
-12.9094
-13.0699
-13.2319
-13.3894
-13.5414
-13.688
-13.8293
-13.9651
-14.0957
-14.221
-14.3411
-14.4562
-14.5661
-14.671
-14.7708
-14.8655
-14.9552
-15.0398
-15.1193
-15.1938
-15.2631
-15.3274
-15.3866
-15.4407
-15.4897
-15.5337
-15.5726
-15.6064
-15.6352
-15.659
-12.3621
-12.5199
-12.6806
-12.8352
-12.9834
-13.126
-13.263
-13.3945
-13.5207
-13.6417
-13.7577
-13.8687
-13.9748
-14.0759
-14.1721
-14.2633
-14.3496
-14.431
-14.5075
-14.579
-14.6456
-14.7072
-14.764
-14.8157
-14.8626
-14.9045
-14.9415
-14.9736
-15.0008
-15.0231
-11.8399
-11.9994
-12.1613
-12.3133
-12.4578
-12.5965
-12.7293
-12.8566
-12.9786
-13.0956
-13.2076
-13.3148
-13.4171
-13.5147
-13.6074
-13.6953
-13.7785
-13.8569
-13.9305
-13.9993
-14.0633
-14.1225
-14.1769
-14.2264
-14.2712
-14.3113
-14.3465
-14.3769
-14.4026
-14.4236
-11.3293
-11.4964
-11.6642
-11.8146
-11.9557
-12.0908
-12.2199
-12.3433
-12.4616
-12.5749
-12.6835
-12.7873
-12.8864
-12.9808
-13.0706
-13.1557
-13.2362
-13.312
-13.3831
-13.4496
-13.5114
-13.5685
-13.621
-13.6688
-13.7119
-13.7503
-13.784
-13.8132
-13.8376
-13.8575
-10.8293
-11.0047
-11.1831
-11.3345
-11.4732
-11.6051
-11.7309
-11.851
-11.966
-12.0762
-12.1818
-12.2827
-12.3791
-12.4709
-12.5582
-12.6409
-12.7191
-12.7927
-12.8619
-12.9264
-12.9864
-13.0419
-13.0928
-13.1392
-13.181
-13.2182
-13.2509
-13.2791
-13.3027
-13.3219
-10.4338
-10.6166
-10.7911
-10.9418
-11.076
-11.2013
-11.321
-11.4353
-11.5446
-11.6492
-11.7494
-11.845
-11.9363
-12.0231
-12.1055
-12.1835
-12.2571
-12.3263
-12.3912
-12.4516
-12.5078
-12.5595
-12.6069
-12.6499
-12.6886
-12.7229
-12.7528
-12.7785
-12.7998
-12.8168
-5.51605
-5.82165
-6.14595
-6.48907
-6.8527
-7.23858
-7.64843
-8.08417
-8.54804
-9.04255
-9.57063
-10.1357
-10.7416
-11.3932
-12.096
-12.8565
-13.6827
-14.584
-15.5716
-16.659
-17.862
-19.1993
-20.6921
-22.3643
-24.2425
-26.3555
-28.7145
-31.3006
-34.3382
-38.2284
-5.68757
-5.99855
-6.32652
-6.67386
-7.0422
-7.4331
-7.84828
-8.28973
-8.75969
-9.26074
-9.79584
-10.3684
-10.9825
-11.6429
-12.3551
-13.1258
-13.963
-14.8763
-15.8768
-16.9782
-18.1964
-19.5499
-21.0601
-22.7507
-24.6481
-26.7805
-29.1583
-31.7609
-34.8084
-38.6972
-5.85977
-6.17614
-6.50783
-6.85945
-7.23259
-7.62858
-8.04916
-8.49638
-8.97251
-9.48018
-10.0224
-10.6026
-11.2249
-11.8941
-12.6159
-13.3969
-14.2453
-15.1706
-16.1842
-17.2997
-18.5331
-19.903
-21.4307
-23.1397
-25.0561
-27.2075
-29.6034
-32.2211
-35.2764
-39.1606
-6.03249
-6.35424
-6.68968
-7.04566
-7.42365
-7.82478
-8.25083
-8.70387
-9.18625
-9.7006
-10.25
-10.8379
-11.4685
-12.1466
-12.8779
-13.6694
-14.529
-15.4664
-16.4931
-17.6228
-18.8715
-20.2578
-21.8029
-23.5303
-25.4656
-27.6357
-30.0493
-32.6822
-35.7473
-39.6325
-6.20559
-6.53271
-6.87194
-7.23233
-7.61523
-8.02158
-8.45315
-8.91208
-9.40074
-9.92183
-10.4784
-11.0741
-11.713
-12.4001
-13.1411
-13.943
-14.8139
-15.7635
-16.8034
-17.9473
-19.2113
-20.614
-22.1766
-23.9222
-25.8763
-28.0651
-30.4963
-33.1446
-36.2211
-40.1107
-6.37895
-6.71142
-7.05447
-7.41934
-7.80722
-8.21883
-8.65597
-9.12084
-9.61586
-10.1437
-10.7076
-11.3111
-11.9584
-12.6545
-13.4053
-14.2176
-15.0998
-16.0617
-17.1148
-18.273
-19.5523
-20.9714
-22.5514
-24.3153
-26.2881
-28.4956
-30.9444
-33.6082
-36.6964
-40.5919
-6.55245
-6.89024
-7.23715
-7.60655
-7.99946
-8.41639
-8.85916
-9.33002
-9.83143
-10.3662
-10.9373
-11.5487
-12.2044
-12.9096
-13.6702
-14.4931
-15.3867
-16.3608
-17.4272
-18.5997
-19.8943
-21.3299
-22.9273
-24.7095
-26.701
-28.9271
-31.3935
-34.0727
-37.1729
-41.075
-6.72599
-7.06905
-7.41983
-7.79383
-8.19183
-8.61412
-9.06256
-9.53947
-10.0473
-10.5889
-11.1675
-11.7867
-12.4509
-13.1653
-13.9356
-14.7691
-15.6741
-16.6606
-17.7403
-18.9271
-20.2372
-21.6892
-23.3041
-25.1045
-27.1146
-29.3592
-31.8432
-34.5379
-37.65
-41.5593
-6.89944
-7.24773
-7.6024
-7.98105
-8.38419
-8.81189
-9.26605
-9.74904
-10.2634
-10.8119
-11.3979
-12.025
-12.6978
-13.4213
-14.2015
-15.0456
-15.9621
-16.9609
-18.0539
-19.2551
-20.5806
-22.0491
-23.6814
-25.5
-27.5287
-29.7918
-32.2933
-35.0034
-38.1276
-42.0443
-7.07271
-7.42617
-7.78474
-8.1681
-8.57642
-9.00958
-9.46949
-9.9586
-10.4795
-11.0349
-11.6283
-12.2635
-12.9448
-13.6774
-14.4675
-15.3223
-16.2502
-17.2614
-18.3678
-19.5834
-20.9243
-22.4092
-24.0589
-25.8957
-27.943
-30.2245
-32.7434
-35.4688
-38.605
-42.5292
-7.24571
-7.60426
-7.96675
-8.35486
-8.76841
-9.20705
-9.67276
-10.168
-10.6954
-11.2579
-11.8587
-12.5019
-13.1917
-13.9336
-14.7336
-15.599
-16.5385
-17.5621
-18.6818
-19.9117
-21.2681
-22.7694
-24.4365
-26.2914
-28.3573
-30.6571
-33.1932
-35.9338
-39.082
-43.0137
-7.41835
-7.78192
-8.14832
-8.54123
-8.96005
-9.40422
-9.87574
-10.3772
-10.9111
-11.4806
-12.0889
-12.7401
-13.4385
-14.1896
-14.9995
-15.8756
-16.8265
-17.8625
-18.9957
-20.2399
-21.6117
-23.1295
-24.8139
-26.6868
-28.7711
-31.089
-33.6424
-36.398
-39.5579
-43.4971
-7.59056
-7.95905
-8.32937
-8.72713
-9.15125
-9.60096
-10.0783
-10.5859
-11.1265
-11.703
-12.3188
-12.9779
-13.6849
-14.4452
-15.265
-16.1518
-17.1143
-18.1627
-19.3091
-20.5678
-21.9549
-23.4891
-25.1908
-27.0816
-29.1842
-31.5202
-34.0905
-36.861
-40.0325
-43.979
-7.76229
-8.13561
-8.50983
-8.91247
-9.34193
-9.7972
-10.2804
-10.7942
-11.3413
-11.9248
-12.5481
-13.2152
-13.9308
-14.7003
-15.53
-16.4275
-17.4014
-18.4622
-19.622
-20.895
-22.2974
-23.8479
-25.5668
-27.4756
-29.5963
-31.9502
-34.5373
-37.3224
-40.5053
-44.459
-7.93352
-8.31154
-8.68965
-9.0972
-9.532
-9.99284
-10.4819
-11.0019
-11.5556
-12.1461
-12.7768
-13.4519
-14.1761
-14.9547
-15.7943
-16.7024
-17.6878
-18.7609
-19.934
-21.2213
-22.639
-24.2058
-25.9418
-27.8683
-30.007
-32.3786
-34.9823
-37.7819
-40.9759
-44.9366
-8.10422
-8.48682
-8.86878
-9.28127
-9.72142
-10.1878
-10.6827
-11.2089
-11.7691
-12.3665
-13.0047
-13.6878
-14.4204
-15.2083
-16.0577
-16.9764
-17.9732
-19.0586
-20.245
-21.5465
-22.9795
-24.5624
-26.3154
-28.2595
-30.4161
-32.8052
-35.4253
-38.239
-41.444
-45.4115
-8.27442
-8.66146
-9.04722
-9.46464
-9.91014
-10.3821
-10.8827
-11.415
-11.9818
-12.5861
-13.2317
-13.9227
-14.6638
-15.4607
-16.32
-17.2492
-18.2574
-19.3551
-20.5546
-21.8703
-23.3184
-24.9175
-26.6874
-28.649
-30.8232
-33.2296
-35.8658
-38.6934
-41.909
-45.8833
-8.4442
-8.83549
-9.22498
-9.64731
-10.0981
-10.5755
-11.0819
-11.6203
-12.1935
-12.8047
-13.4576
-14.1564
-14.906
-15.712
-16.5809
-17.5207
-18.5402
-19.6501
-20.8627
-22.1925
-23.6557
-25.2707
-27.0574
-29.0363
-31.228
-33.6515
-36.3035
-39.1447
-42.3707
-46.3515
-8.61364
-9.00899
-9.40209
-9.82928
-10.2853
-10.7681
-11.2802
-11.8245
-12.4041
-13.0221
-13.6823
-14.3888
-15.1468
-15.9617
-16.8404
-17.7905
-18.8213
-19.9433
-21.169
-22.5128
-23.9909
-25.6218
-27.4251
-29.4212
-31.6302
-34.0705
-36.7381
-39.5926
-42.8287
-46.8158
-8.78291
-9.18205
-9.57861
-10.0105
-10.4717
-10.9598
-11.4774
-12.0276
-12.6135
-13.2382
-13.9055
-14.6198
-15.3859
-16.2098
-17.098
-18.0585
-19.1005
-20.2345
-21.4732
-22.8309
-24.3239
-25.9705
-27.7903
-29.8033
-32.0294
-34.4863
-37.1692
-40.0367
-43.2827