/*--------------------------------*- C++ -*----------------------------------*\
  =========                 |
  \\      /  F ield         | OpenFOAM: The Open Source CFD Toolbox
   \\    /   O peration     | Website:  https://openfoam.org
    \\  /    A nd           | Version:  6.0
     \\/     M anipulation  |
\*---------------------------------------------------------------------------*/
FoamFile
{
    version     2.0;
    format      ascii;
    class       volScalarField;
    location    "19";
    object      p;
}
// * * * * * * * * * * * * * * * * * * * * * * * * * * * * * * * * * * * * * //

dimensions      [0 2 -2 0 0 0 0];

internalField   nonuniform List<scalar> 
19200
(
-0.393874
-0.388824
-0.385058
-0.381926
-0.379051
-0.376411
-0.373961
-0.371648
-0.369435
-0.367294
-0.365206
-0.363156
-0.361135
-0.359137
-0.357158
-0.355195
-0.35325
-0.351321
-0.34941
-0.347519
-0.345649
-0.343803
-0.341981
-0.340185
-0.338415
-0.336678
-0.334971
-0.333238
-0.331464
-0.330237
-0.397572
-0.3924
-0.388605
-0.385447
-0.38253
-0.379832
-0.377312
-0.374919
-0.372616
-0.370379
-0.368188
-0.366033
-0.363903
-0.361794
-0.359704
-0.357631
-0.355576
-0.35354
-0.351524
-0.349531
-0.347564
-0.345623
-0.343711
-0.34183
-0.33998
-0.33817
-0.336394
-0.33459
-0.332734
-0.331516
-0.401844
-0.396459
-0.392568
-0.389346
-0.38636
-0.383584
-0.380976
-0.378486
-0.376078
-0.37373
-0.371423
-0.369148
-0.366897
-0.364665
-0.362452
-0.360256
-0.35808
-0.355926
-0.353795
-0.35169
-0.349614
-0.347571
-0.345561
-0.343586
-0.34165
-0.339759
-0.337911
-0.336029
-0.334082
-0.332885
-0.406475
-0.400934
-0.396945
-0.393638
-0.39056
-0.387686
-0.384971
-0.382366
-0.379837
-0.377361
-0.374924
-0.372515
-0.370128
-0.36776
-0.36541
-0.36308
-0.360771
-0.358486
-0.356228
-0.354001
-0.351807
-0.34965
-0.347533
-0.345458
-0.343427
-0.34145
-0.339523
-0.337557
-0.335509
-0.334346
-0.411516
-0.405833
-0.401734
-0.398323
-0.395135
-0.392143
-0.389303
-0.386566
-0.383899
-0.381281
-0.378698
-0.37614
-0.373603
-0.371084
-0.368585
-0.366107
-0.363652
-0.361225
-0.358829
-0.356468
-0.354145
-0.351866
-0.349632
-0.347447
-0.345313
-0.343242
-0.341232
-0.339175
-0.337015
-0.3359
-0.417001
-0.411166
-0.406942
-0.40341
-0.400093
-0.396964
-0.393981
-0.391095
-0.388274
-0.385497
-0.382752
-0.380031
-0.377329
-0.374646
-0.371984
-0.369344
-0.366731
-0.364149
-0.361602
-0.359096
-0.356633
-0.35422
-0.35186
-0.349555
-0.34731
-0.345138
-0.343037
-0.340881
-0.3386
-0.337547
-0.422947
-0.416944
-0.412579
-0.408907
-0.405443
-0.40216
-0.399016
-0.395963
-0.39297
-0.390019
-0.387096
-0.384196
-0.381315
-0.378453
-0.375613
-0.372799
-0.370014
-0.367264
-0.364554
-0.361889
-0.359275
-0.356716
-0.354218
-0.351783
-0.349418
-0.347137
-0.344939
-0.342676
-0.340263
-0.339285
-0.429368
-0.423179
-0.418653
-0.414825
-0.411194
-0.407738
-0.404415
-0.401178
-0.397997
-0.394853
-0.391737
-0.388642
-0.385566
-0.382511
-0.37948
-0.376476
-0.373506
-0.370574
-0.367687
-0.364851
-0.362072
-0.359357
-0.356709
-0.354134
-0.351638
-0.34924
-0.346936
-0.344557
-0.342
-0.341112
-0.43628
-0.42988
-0.425176
-0.421171
-0.417356
-0.413708
-0.410187
-0.406748
-0.40336
-0.400008
-0.396682
-0.393377
-0.390091
-0.386828
-0.38359
-0.380383
-0.377213
-0.374086
-0.371008
-0.367988
-0.365031
-0.362145
-0.359336
-0.356609
-0.353971
-0.351444
-0.349027
-0.346523
-0.343811
-0.343026
-0.443693
-0.437061
-0.432157
-0.427957
-0.423937
-0.420078
-0.416341
-0.412681
-0.40907
-0.405492
-0.401939
-0.398408
-0.394897
-0.39141
-0.387951
-0.384526
-0.381141
-0.377804
-0.374522
-0.371303
-0.368155
-0.365085
-0.362101
-0.359209
-0.356417
-0.353752
-0.351212
-0.348572
-0.34569
-0.345024
-0.451621
-0.44473
-0.439607
-0.435191
-0.430947
-0.426856
-0.422884
-0.418984
-0.415132
-0.411312
-0.407516
-0.403742
-0.399991
-0.396265
-0.39257
-0.388912
-0.385298
-0.381737
-0.378236
-0.374803
-0.371449
-0.368181
-0.365008
-0.361937
-0.358978
-0.356162
-0.353488
-0.350701
-0.347636
-0.347102
-0.460074
-0.4529
-0.447534
-0.442883
-0.438393
-0.434052
-0.429824
-0.425667
-0.421555
-0.417475
-0.41342
-0.409388
-0.40538
-0.4014
-0.397454
-0.393549
-0.389691
-0.385891
-0.382155
-0.378495
-0.374919
-0.371438
-0.368061
-0.364796
-0.361657
-0.358676
-0.355856
-0.352907
-0.349644
-0.349256
-0.469063
-0.46158
-0.45595
-0.451041
-0.446285
-0.441672
-0.43717
-0.432736
-0.428347
-0.423989
-0.419658
-0.415352
-0.411073
-0.406824
-0.402612
-0.398445
-0.394329
-0.390274
-0.38629
-0.382386
-0.378573
-0.374862
-0.371265
-0.367791
-0.364454
-0.361295
-0.358314
-0.35519
-0.351712
-0.351482
-0.478599
-0.470779
-0.464861
-0.459674
-0.454629
-0.449724
-0.444927
-0.440198
-0.435514
-0.430862
-0.426239
-0.421643
-0.417077
-0.412545
-0.408053
-0.403609
-0.399221
-0.394897
-0.390648
-0.386485
-0.382419
-0.378462
-0.374628
-0.370927
-0.367376
-0.36402
-0.360864
-0.357547
-0.353834
-0.353776
-0.488693
-0.480507
-0.474278
-0.468789
-0.463435
-0.458216
-0.453105
-0.448061
-0.443064
-0.438102
-0.433171
-0.42827
-0.423403
-0.418573
-0.413787
-0.409053
-0.404377
-0.39977
-0.395242
-0.390803
-0.386467
-0.382247
-0.378157
-0.37421
-0.370425
-0.366855
-0.363505
-0.359976
-0.356007
-0.356129
-0.499354
-0.490773
-0.484207
-0.478393
-0.472707
-0.467153
-0.461708
-0.456332
-0.451004
-0.445715
-0.44046
-0.435241
-0.430058
-0.424918
-0.419825
-0.414786
-0.40981
-0.404906
-0.400083
-0.395353
-0.39073
-0.386228
-0.381863
-0.377649
-0.37361
-0.369803
-0.366238
-0.362474
-0.358223
-0.358533
-0.510591
-0.501583
-0.494655
-0.488493
-0.482452
-0.476543
-0.470744
-0.465016
-0.45934
-0.453708
-0.448116
-0.442564
-0.437053
-0.431589
-0.426177
-0.420822
-0.415533
-0.410317
-0.405186
-0.400149
-0.395222
-0.390419
-0.385757
-0.381254
-0.376935
-0.372867
-0.369062
-0.365036
-0.360475
-0.360975
-0.522412
-0.512945
-0.505628
-0.499095
-0.492676
-0.48639
-0.480217
-0.47412
-0.46808
-0.46209
-0.456146
-0.450248
-0.444398
-0.438599
-0.432856
-0.427174
-0.42156
-0.416021
-0.410566
-0.405207
-0.399958
-0.394834
-0.389854
-0.385036
-0.380411
-0.376052
-0.371977
-0.367657
-0.362751
-0.36344
-0.534822
-0.524863
-0.51713
-0.510201
-0.503382
-0.496698
-0.490132
-0.483648
-0.477229
-0.470867
-0.464558
-0.458303
-0.452102
-0.445958
-0.439874
-0.433855
-0.427906
-0.422032
-0.416242
-0.410546
-0.404957
-0.399492
-0.394169
-0.38901
-0.384046
-0.379364
-0.374983
-0.370329
-0.365036
-0.365904
-0.547826
-0.537339
-0.529163
-0.521814
-0.514573
-0.50747
-0.500492
-0.493605
-0.486792
-0.480044
-0.473359
-0.466736
-0.460175
-0.453677
-0.447245
-0.440881
-0.434587
-0.428369
-0.422233
-0.416186
-0.410241
-0.404414
-0.398723
-0.393191
-0.387854
-0.382806
-0.378075
-0.373039
-0.367306
-0.368332
-0.561425
-0.550377
-0.541729
-0.533936
-0.526249
-0.518708
-0.511301
-0.503995
-0.496773
-0.489628
-0.482556
-0.475555
-0.468626
-0.461768
-0.454981
-0.448265
-0.441622
-0.435053
-0.428561
-0.422152
-0.415835
-0.409625
-0.403539
-0.397601
-0.391848
-0.386387
-0.38125
-0.37577
-0.369528
-0.370673
-0.575619
-0.563973
-0.554827
-0.546565
-0.538411
-0.530411
-0.522558
-0.514818
-0.507175
-0.499621
-0.492153
-0.484768
-0.477465
-0.470242
-0.463096
-0.456026
-0.449029
-0.442104
-0.43525
-0.42847
-0.421768
-0.415156
-0.408649
-0.402266
-0.396051
-0.390116
-0.384503
-0.378496
-0.371655
-0.372856
-0.590405
-0.578125
-0.568451
-0.559697
-0.551055
-0.542578
-0.534262
-0.526075
-0.517999
-0.510027
-0.502156
-0.494381
-0.4867
-0.479109
-0.471603
-0.464178
-0.456828
-0.449547
-0.44233
-0.435174
-0.428078
-0.421047
-0.414092
-0.407227
-0.400494
-0.394013
-0.387833
-0.38119
-0.373621
-0.374778
-0.605778
-0.592826
-0.582596
-0.573326
-0.564175
-0.555204
-0.546411
-0.537764
-0.529245
-0.520848
-0.512567
-0.504398
-0.496337
-0.488378
-0.480514
-0.472738
-0.465039
-0.457407
-0.449832
-0.442302
-0.43481
-0.427351
-0.419927
-0.412541
-0.40523
-0.398116
-0.391254
-0.383825
-0.375343
-0.376293
-0.621733
-0.608068
-0.597251
-0.587442
-0.577763
-0.568281
-0.558998
-0.54988
-0.540911
-0.532081
-0.523387
-0.514823
-0.506382
-0.498058
-0.489842
-0.481721
-0.473684
-0.465713
-0.457792
-0.449902
-0.442023
-0.434138
-0.426233
-0.418297
-0.410348
-0.402501
-0.394807
-0.386384
-0.376708
-0.377178
-0.638262
-0.623835
-0.612401
-0.602032
-0.591806
-0.5818
-0.572015
-0.562418
-0.55299
-0.543724
-0.534614
-0.525654
-0.516837
-0.508153
-0.499593
-0.491142
-0.482783
-0.474495
-0.466253
-0.458028
-0.44979
-0.441502
-0.43313
-0.424633
-0.415999
-0.407317
-0.39861
-0.388901
-0.377595
-0.377132
-0.655359
-0.640109
-0.628026
-0.617077
-0.60629
-0.595747
-0.585451
-0.575366
-0.565476
-0.55577
-0.546243
-0.536889
-0.5277
-0.518666
-0.509775
-0.501011
-0.492354
-0.483778
-0.475254
-0.466743
-0.458199
-0.449568
-0.440785
-0.431771
-0.422461
-0.41289
-0.403021
-0.391714
-0.378172
-0.376006
-0.673052
-0.65687
-0.644097
-0.632552
-0.621192
-0.610104
-0.59929
-0.588714
-0.578356
-0.568209
-0.558266
-0.548521
-0.538966
-0.529591
-0.520384
-0.51133
-0.502405
-0.493584
-0.484833
-0.476105
-0.467344
-0.458477
-0.449406
-0.440003
-0.430127
-0.419725
-0.408657
-0.395458
-0.37862
-0.37293
-0.691395
-0.674086
-0.660569
-0.64842
-0.636486
-0.62485
-0.613515
-0.602444
-0.591617
-0.581028
-0.57067
-0.560538
-0.550624
-0.540919
-0.531414
-0.522092
-0.512936
-0.503919
-0.495008
-0.486159
-0.477308
-0.46837
-0.459218
-0.449662
-0.439444
-0.428334
-0.415894
-0.399742
-0.376311
-0.361985
-0.709918
-0.691565
-0.677373
-0.664648
-0.65215
-0.639967
-0.628109
-0.61654
-0.605242
-0.594209
-0.583437
-0.572919
-0.562652
-0.552628
-0.542839
-0.533273
-0.523918
-0.514757
-0.505765
-0.496911
-0.48815
-0.479414
-0.470593
-0.4615
-0.451838
-0.441215
-0.428706
-0.4106
-0.380547
-0.354651
-1.18354
-1.18071
-1.17596
-1.16975
-1.16211
-1.15308
-1.14274
-1.13117
-1.11844
-1.10465
-1.08988
-1.07421
-1.05772
-1.04051
-1.02266
-1.00424
-0.985341
-0.966039
-0.946407
-0.926518
-0.906441
-0.886241
-0.865979
-0.845715
-0.825501
-0.805386
-0.785413
-0.765591
-0.745906
-0.726788
-1.14905
-1.14625
-1.1417
-1.13565
-1.12818
-1.11936
-1.10926
-1.09798
-1.0856
-1.07219
-1.05785
-1.04266
-1.02669
-1.01004
-0.992782
-0.974994
-0.956755
-0.93814
-0.919221
-0.900068
-0.880747
-0.861321
-0.841852
-0.822396
-0.803007
-0.783739
-0.764643
-0.745765
-0.727156
-0.709
-1.12065
-1.11788
-1.11348
-1.1076
-1.10032
-1.09173
-1.08189
-1.07091
-1.05886
-1.04582
-1.03187
-1.01711
-1.0016
-0.985429
-0.968679
-0.951425
-0.933741
-0.915702
-0.897377
-0.878835
-0.86014
-0.841355
-0.822539
-0.803748
-0.785036
-0.766455
-0.748056
-0.729892
-0.712021
-0.694519
-1.09389
-1.09124
-1.08703
-1.08137
-1.07435
-1.06604
-1.05651
-1.04587
-1.03418
-1.02152
-1.00798
-0.993649
-0.978595
-0.9629
-0.946642
-0.929899
-0.912743
-0.895246
-0.877479
-0.859506
-0.841393
-0.823199
-0.804984
-0.786802
-0.768706
-0.750748
-0.732975
-0.715435
-0.698181
-0.68126
-1.06676
-1.06433
-1.06037
-1.05501
-1.04831
-1.04034
-1.03119
-1.02093
-1.00965
-0.997419
-0.984329
-0.970457
-0.955881
-0.940681
-0.924933
-0.908712
-0.892092
-0.875142
-0.857931
-0.840525
-0.822987
-0.805376
-0.787751
-0.770164
-0.752669
-0.735313
-0.718143
-0.701205
-0.684543
-0.668193
-1.03953
-1.03739
-1.03378
-1.02878
-1.02246
-1.0149
-1.00617
-0.996347
-0.985517
-0.973756
-0.961145
-0.947764
-0.933691
-0.919003
-0.903776
-0.888086
-0.872003
-0.855598
-0.838939
-0.82209
-0.805115
-0.788071
-0.771016
-0.754003
-0.737083
-0.720303
-0.703709
-0.687344
-0.671246
-0.655451
-1.0123
-1.01054
-1.00733
-1.00276
-0.996885
-0.98978
-0.98152
-0.972183
-0.961846
-0.950588
-0.938487
-0.925623
-0.912073
-0.897914
-0.88322
-0.868067
-0.852524
-0.836662
-0.820548
-0.804246
-0.787819
-0.771324
-0.754819
-0.738355
-0.721984
-0.705753
-0.689705
-0.673882
-0.658321
-0.643056
-0.985087
-0.98377
-0.981023
-0.976929
-0.971548
-0.964949
-0.957206
-0.948393
-0.938587
-0.927865
-0.916304
-0.903983
-0.890977
-0.877363
-0.863215
-0.848606
-0.833607
-0.818288
-0.802714
-0.786951
-0.771059
-0.755098
-0.739123
-0.723187
-0.70734
-0.69163
-0.676099
-0.66079
-0.645737
-0.630976
-0.957946
-0.957115
-0.954875
-0.951304
-0.946459
-0.940406
-0.933216
-0.924963
-0.915721
-0.905565
-0.894572
-0.882816
-0.870375
-0.857322
-0.843732
-0.829677
-0.815227
-0.80045
-0.785414
-0.770182
-0.754815
-0.739373
-0.72391
-0.708481
-0.693135
-0.67792
-0.66288
-0.648055
-0.633482
-0.619197
-0.930945
-0.930635
-0.928935
-0.925919
-0.921642
-0.916166
-0.909561
-0.901897
-0.893247
-0.883682
-0.873279
-0.86211
-0.850251
-0.837776
-0.824756
-0.811263
-0.797367
-0.783135
-0.768635
-0.753929
-0.739078
-0.724142
-0.709175
-0.694233
-0.679365
-0.66462
-0.650042
-0.635674
-0.621552
-0.607714
-0.90416
-0.904391
-0.903254
-0.900815
-0.897127
-0.892252
-0.886254
-0.879202
-0.871164
-0.862211
-0.852417
-0.841854
-0.830593
-0.818708
-0.80627
-0.793348
-0.780012
-0.766329
-0.752364
-0.73818
-0.723838
-0.709397
-0.694912
-0.680438
-0.666027
-0.651727
-0.637585
-0.623644
-0.609943
-0.596522
-0.877664
-0.878446
-0.877882
-0.876033
-0.872949
-0.868688
-0.863312
-0.856886
-0.849476
-0.841152
-0.831982
-0.822038
-0.81139
-0.800107
-0.788261
-0.77592
-0.76315
-0.750019
-0.736591
-0.722927
-0.709088
-0.695133
-0.681117
-0.667095
-0.65312
-0.639241
-0.625508
-0.611965
-0.598654
-0.585619
-0.851531
-0.852863
-0.852873
-0.851617
-0.849141
-0.8455
-0.840754
-0.834963
-0.828191
-0.820505
-0.811971
-0.802656
-0.792631
-0.781962
-0.770717
-0.758964
-0.746768
-0.734194
-0.721304
-0.70816
-0.694821
-0.681344
-0.667786
-0.654202
-0.640643
-0.627163
-0.613811
-0.600636
-0.587683
-0.574999
-0.825825
-0.827699
-0.828276
-0.827607
-0.825736
-0.822715
-0.818599
-0.813446
-0.807316
-0.800273
-0.79238
-0.783703
-0.774308
-0.76426
-0.753625
-0.742467
-0.730851
-0.71884
-0.706493
-0.69387
-0.68103
-0.668027
-0.654919
-0.641758
-0.628599
-0.615494
-0.602496
-0.589658
-0.577028
-0.564659
-0.800608
-0.803006
-0.804136
-0.804043
-0.802767
-0.800358
-0.796866
-0.792348
-0.786858
-0.780459
-0.773209
-0.765173
-0.756413
-0.746992
-0.736973
-0.726418
-0.715389
-0.703946
-0.692147
-0.680049
-0.667708
-0.655178
-0.642514
-0.629767
-0.616991
-0.60424
-0.591568
-0.579032
-0.566688
-0.554594
-0.775931
-0.778833
-0.780495
-0.780959
-0.780263
-0.778452
-0.775575
-0.771681
-0.766826
-0.761065
-0.754458
-0.747062
-0.738939
-0.730148
-0.720749
-0.710803
-0.700368
-0.6895
-0.678255
-0.666688
-0.654851
-0.642795
-0.630571
-0.61823
-0.605824
-0.593406
-0.581033
-0.568764
-0.556663
-0.5448
-0.75184
-0.755218
-0.757388
-0.758387
-0.758251
-0.75702
-0.75474
-0.751458
-0.747226
-0.742096
-0.736124
-0.729365
-0.721877
-0.713717
-0.704943
-0.69561
-0.685774
-0.675489
-0.664807
-0.653778
-0.642451
-0.630874
-0.619092
-0.607154
-0.595108
-0.583004
-0.570901
-0.558862
-0.546957
-0.53527
-0.728371
-0.732196
-0.734845
-0.736353
-0.736751
-0.736079
-0.734376
-0.731689
-0.728064
-0.723553
-0.718206
-0.712078
-0.705221
-0.697691
-0.689541
-0.680825
-0.671594
-0.6619
-0.651789
-0.641309
-0.630503
-0.619413
-0.60808
-0.596546
-0.584853
-0.573049
-0.561188
-0.549337
-0.537575
-0.526
-0.705554
-0.709793
-0.712892
-0.714879
-0.715784
-0.715644
-0.714496
-0.712381
-0.709346
-0.705437
-0.700703
-0.695194
-0.688962
-0.682057
-0.674531
-0.666434
-0.657814
-0.648718
-0.639189
-0.62927
-0.618999
-0.60841
-0.597538
-0.586415
-0.575076
-0.56356
-0.551917
-0.54021
-0.528527
-0.516985
-0.683409
-0.68803
-0.691545
-0.69398
-0.695363
-0.695727
-0.695107
-0.693543
-0.691075
-0.68775
-0.683612
-0.67871
-0.673091
-0.666805
-0.6599
-0.652422
-0.644416
-0.635927
-0.626992
-0.617649
-0.607929
-0.597861
-0.587468
-0.576773
-0.565797
-0.554566
-0.543118
-0.531511
-0.519834
-0.508223
-0.661953
-0.666922
-0.67082
-0.673671
-0.6755
-0.676339
-0.676219
-0.675177
-0.673254
-0.67049
-0.66693
-0.662618
-0.657601
-0.651924
-0.645633
-0.638773
-0.631385
-0.62351
-0.615181
-0.606431
-0.597284
-0.58776
-0.577873
-0.567631
-0.557038
-0.546101
-0.534836
-0.523282
-0.511527
-0.499717
-0.641193
-0.646477
-0.650725
-0.653959
-0.656203
-0.657484
-0.657835
-0.657288
-0.655882
-0.653656
-0.650652
-0.646912
-0.64248
-0.637401
-0.631717
-0.625471
-0.618702
-0.611447
-0.603736
-0.595597
-0.587048
-0.578099
-0.568753
-0.559001
-0.548826
-0.538207
-0.527125
-0.515586
-0.503657
-0.491476
-0.621134
-0.6267
-0.631265
-0.634849
-0.637474
-0.639167
-0.639957
-0.639876
-0.63896
-0.637246
-0.634773
-0.631584
-0.62772
-0.623224
-0.618136
-0.612498
-0.606347
-0.599717
-0.592636
-0.585126
-0.577202
-0.568864
-0.560103
-0.550893
-0.541189
-0.530935
-0.52006
-0.50851
-0.496305
-0.483528
-0.601775
-0.60759
-0.61244
-0.616342
-0.619317
-0.62139
-0.622588
-0.622942
-0.622486
-0.621256
-0.619291
-0.616629
-0.613312
-0.609381
-0.604877
-0.599838
-0.594301
-0.588299
-0.581858
-0.574997
-0.567725
-0.560039
-0.551917
-0.543314
-0.534158
-0.524346
-0.513738
-0.502182
-0.489605
-0.475932
-0.583109
-0.589145
-0.594248
-0.598436
-0.601729
-0.60415
-0.605725
-0.606483
-0.606458
-0.605683
-0.604197
-0.602038
-0.599246
-0.595861
-0.591924
-0.587473
-0.582544
-0.577169
-0.571376
-0.56518
-0.558591
-0.5516
-0.544177
-0.536263
-0.527759
-0.518509
-0.508283
-0.496784
-0.483779
-0.46883
-0.565129
-0.571353
-0.576679
-0.581121
-0.584699
-0.587435
-0.589353
-0.590483
-0.590855
-0.590505
-0.589468
-0.587782
-0.585488
-0.582625
-0.579234
-0.575353
-0.57102
-0.566268
-0.561123
-0.555605
-0.549723
-0.543469
-0.536809
-0.529677
-0.521952
-0.513431
-0.50378
-0.492501
-0.479132
-0.462533
-0.547825
-0.554209
-0.559727
-0.564392
-0.568222
-0.571239
-0.573467
-0.574933
-0.575669
-0.575707
-0.575085
-0.573839
-0.57201
-0.569638
-0.566764
-0.563428
-0.559668
-0.55552
-0.551014
-0.546173
-0.541009
-0.53552
-0.529678
-0.523418
-0.516614
-0.509032
-0.500233
-0.489475
-0.476011
-0.457433
-0.531187
-0.537727
-0.543429
-0.548308
-0.552381
-0.555668
-0.558193
-0.559983
-0.561068
-0.561482
-0.561261
-0.560441
-0.559065
-0.557172
-0.554805
-0.552005
-0.548814
-0.54527
-0.541406
-0.537251
-0.532826
-0.528136
-0.523168
-0.517875
-0.512148
-0.505764
-0.498222
-0.488523
-0.475478
-0.453917
-0.515186
-0.521898
-0.527803
-0.532915
-0.53725
-0.540829
-0.543675
-0.545816
-0.547282
-0.548106
-0.548325
-0.547978
-0.547105
-0.54575
-0.543956
-0.541768
-0.539228
-0.53638
-0.533261
-0.529906
-0.526345
-0.522597
-0.518668
-0.514544
-0.510169
-0.505406
-0.499847
-0.492414
-0.481379
-0.455394
-0.499729
-0.506395
-0.512287
-0.517419
-0.521808
-0.525474
-0.528441
-0.530736
-0.532391
-0.533441
-0.533922
-0.533875
-0.533344
-0.532375
-0.531015
-0.529314
-0.527321
-0.525085
-0.522655
-0.520078
-0.517399
-0.514658
-0.511894
-0.509145
-0.506445
-0.503856
-0.501282
-0.498123
-0.494405
-0.474906
-0.405042
-0.452865
-0.4994
-0.545258
-0.590254
-0.634222
-0.677045
-0.718615
-0.758828
-0.797587
-0.834802
-0.870392
-0.904281
-0.9364
-0.966688
-0.995091
-1.02156
-1.04606
-1.06857
-1.08904
-1.10749
-1.12388
-1.13823
-1.15054
-1.16083
-1.16912
-1.17543
-1.17979
-1.18218
-1.183
-0.397168
-0.443833
-0.489424
-0.534182
-0.577993
-0.620739
-0.662327
-0.702661
-0.741648
-0.779198
-0.815227
-0.849656
-0.882414
-0.913436
-0.942664
-0.970047
-0.995543
-1.01912
-1.04074
-1.06039
-1.07805
-1.09373
-1.10742
-1.11914
-1.1289
-1.13673
-1.14266
-1.14674
-1.149
-1.14963
-0.386241
-0.431899
-0.476635
-0.520514
-0.563433
-0.605291
-0.645998
-0.685465
-0.723601
-0.760321
-0.795543
-0.829192
-0.861198
-0.8915
-0.920039
-0.946769
-0.971647
-0.994639
-1.01572
-1.03487
-1.05207
-1.06733
-1.08065
-1.09204
-1.10152
-1.10912
-1.11487
-1.11882
-1.121
-1.12153
-0.371924
-0.416668
-0.460584
-0.503668
-0.545813
-0.586922
-0.626902
-0.665667
-0.703127
-0.739198
-0.773803
-0.806865
-0.838318
-0.8681
-0.896155
-0.922435
-0.9469
-0.969515
-0.990255
-1.0091
-1.02604
-1.04108
-1.05421
-1.06545
-1.07481
-1.08234
-1.08805
-1.09199
-1.0942
-1.09476
-0.354659
-0.398503
-0.441593
-0.483889
-0.525281
-0.56567
-0.604966
-0.64308
-0.679925
-0.715418
-0.749482
-0.782043
-0.813033
-0.842391
-0.870063
-0.896
-0.920162
-0.942514
-0.963031
-0.981693
-0.998489
-1.01342
-1.02648
-1.03769
-1.04706
-1.05462
-1.0604
-1.06444
-1.06678
-1.06748
-0.335181
-0.378134
-0.420395
-0.461904
-0.502553
-0.542241
-0.580879
-0.618377
-0.65465
-0.689615
-0.723196
-0.755318
-0.785915
-0.814926
-0.842296
-0.867975
-0.891924
-0.914107
-0.934497
-0.953074
-0.969827
-0.984749
-0.997844
-1.00912
-1.0186
-1.0263
-1.03225
-1.03649
-1.03905
-1.04
-0.314184
-0.35624
-0.397662
-0.438378
-0.478281
-0.517272
-0.555262
-0.592161
-0.627884
-0.66235
-0.695482
-0.727206
-0.757456
-0.78617
-0.813293
-0.838776
-0.862576
-0.884657
-0.904993
-0.92356
-0.940346
-0.955343
-0.968552
-0.979981
-0.989645
-0.997564
-1.00377
-1.00829
-1.01115
-1.01243
-0.29228
-0.333425
-0.37399
-0.413897
-0.453041
-0.491326
-0.528663
-0.564962
-0.60014
-0.634115
-0.666811
-0.698155
-0.728079
-0.756523
-0.78343
-0.80875
-0.83244
-0.854464
-0.87479
-0.893396
-0.910267
-0.925394
-0.938775
-0.950415
-0.960326
-0.968527
-0.975044
-0.979907
-0.983145
-0.984814
-0.269993
-0.310209
-0.349897
-0.388975
-0.427343
-0.464905
-0.501574
-0.537263
-0.571887
-0.605367
-0.637625
-0.66859
-0.698194
-0.726376
-0.753078
-0.77825
-0.801848
-0.823833
-0.844175
-0.862848
-0.879834
-0.895124
-0.908712
-0.9206
-0.9308
-0.939326
-0.946201
-0.951453
-0.955109
-0.95722
-0.247751
-0.287021
-0.325815
-0.364045
-0.401616
-0.438438
-0.474422
-0.509483
-0.543539
-0.576509
-0.608318
-0.638895
-0.668171
-0.696084
-0.722578
-0.747602
-0.771109
-0.793061
-0.813425
-0.832174
-0.849288
-0.864755
-0.878567
-0.890725
-0.901236
-0.910111
-0.917372
-0.923042
-0.927147
-0.929733
-0.225893
-0.264205
-0.302087
-0.339453
-0.376211
-0.412273
-0.447554
-0.48197
-0.515439
-0.547883
-0.579226
-0.609397
-0.638329
-0.66596
-0.692233
-0.717095
-0.740501
-0.762411
-0.78279
-0.801611
-0.818851
-0.834495
-0.848534
-0.860966
-0.871795
-0.88103
-0.888688
-0.894791
-0.899362
-0.90244
-0.204674
-0.24202
-0.27898
-0.315468
-0.351399
-0.386687
-0.421249
-0.455002
-0.487866
-0.519764
-0.550621
-0.580367
-0.608936
-0.636264
-0.662295
-0.686978
-0.710265
-0.732114
-0.752492
-0.771369
-0.788721
-0.804531
-0.818787
-0.831486
-0.842627
-0.852219
-0.860274
-0.866811
-0.871851
-0.875429
-0.184279
-0.220656
-0.256688
-0.292292
-0.327386
-0.361889
-0.395718
-0.428794
-0.461037
-0.492371
-0.522724
-0.552024
-0.580207
-0.60721
-0.632977
-0.657455
-0.680598
-0.702365
-0.722718
-0.741628
-0.75907
-0.775026
-0.789481
-0.802428
-0.813867
-0.823802
-0.832243
-0.839206
-0.844708
-0.848781
-0.164833
-0.200243
-0.235346
-0.270064
-0.304318
-0.338028
-0.371117
-0.403504
-0.435113
-0.465869
-0.495699
-0.524534
-0.55231
-0.578965
-0.604442
-0.628691
-0.651664
-0.67332
-0.693622
-0.712538
-0.730044
-0.746118
-0.760746
-0.773919
-0.785633
-0.79589
-0.804697
-0.812068
-0.818017
-0.822571
-0.146411
-0.180862
-0.215042
-0.248875
-0.282289
-0.315206
-0.34755
-0.379244
-0.41021
-0.440375
-0.469668
-0.498021
-0.52537
-0.551654
-0.576819
-0.600812
-0.623588
-0.645105
-0.665326
-0.684219
-0.701758
-0.717922
-0.732694
-0.746063
-0.758023
-0.768575
-0.777723
-0.785478
-0.791852
-0.796867
-0.129053
-0.162555
-0.19582
-0.228777
-0.261356
-0.293484
-0.325085
-0.356082
-0.386401
-0.415968
-0.444713
-0.47257
-0.499475
-0.525369
-0.550198
-0.573912
-0.596464
-0.617814
-0.637924
-0.656764
-0.674305
-0.690527
-0.70541
-0.718943
-0.731119
-0.741935
-0.751395
-0.759505
-0.766276
-0.771727
-0.112766
-0.145333
-0.177695
-0.209786
-0.241542
-0.272889
-0.303752
-0.334056
-0.363727
-0.392692
-0.420882
-0.448232
-0.474679
-0.500167
-0.524641
-0.548053
-0.570357
-0.591513
-0.611485
-0.630241
-0.647754
-0.664001
-0.678963
-0.692628
-0.704986
-0.716033
-0.725771
-0.734204
-0.741342
-0.747199
-0.0975374
-0.129183
-0.160656
-0.191898
-0.222844
-0.253422
-0.283558
-0.313177
-0.342203
-0.370567
-0.398198
-0.425034
-0.451013
-0.47608
-0.500183
-0.523273
-0.545308
-0.566246
-0.586053
-0.604697
-0.622151
-0.638392
-0.653401
-0.667164
-0.679671
-0.690916
-0.700898
-0.709622
-0.717093
-0.723325
-0.0833365
-0.114075
-0.144677
-0.175087
-0.205241
-0.235067
-0.264491
-0.293434
-0.321824
-0.349589
-0.376662
-0.402979
-0.428484
-0.45312
-0.476838
-0.499591
-0.521336
-0.542035
-0.561653
-0.58016
-0.597527
-0.613733
-0.628758
-0.642587
-0.655209
-0.666618
-0.676811
-0.68579
-0.693561
-0.700133
-0.0701222
-0.0999664
-0.129714
-0.159312
-0.188696
-0.217792
-0.24652
-0.274803
-0.302566
-0.32974
-0.356257
-0.382057
-0.407082
-0.43128
-0.454603
-0.477005
-0.498445
-0.518887
-0.538295
-0.556641
-0.573897
-0.59004
-0.605051
-0.618916
-0.631622
-0.643162
-0.653532
-0.662733
-0.670769
-0.677648
-0.057845
-0.0868029
-0.115716
-0.144526
-0.173165
-0.201553
-0.229607
-0.257247
-0.284397
-0.310988
-0.336956
-0.362239
-0.386785
-0.410541
-0.433461
-0.455503
-0.476626
-0.496794
-0.515975
-0.534139
-0.55126
-0.567316
-0.582288
-0.59616
-0.60892
-0.62056
-0.631075
-0.640465
-0.648733
-0.655884
-0.0464494
-0.0745238
-0.102623
-0.130672
-0.158594
-0.186302
-0.213705
-0.240722
-0.267275
-0.293295
-0.318721
-0.343493
-0.36756
-0.390873
-0.413387
-0.43506
-0.455856
-0.475739
-0.494677
-0.512643
-0.52961
-0.545557
-0.560465
-0.574319
-0.587105
-0.598816
-0.609445
-0.618993
-0.627459
-0.63485
-0.0358742
-0.0630589
-0.0903682
-0.117688
-0.144926
-0.171983
-0.198763
-0.225177
-0.25115
-0.276614
-0.301508
-0.325776
-0.349368
-0.372239
-0.394344
-0.415646
-0.436107
-0.455695
-0.474379
-0.492132
-0.508928
-0.524747
-0.53957
-0.553382
-0.56617
-0.577924
-0.588641
-0.598316
-0.60695
-0.614549
-0.0260503
-0.0523256
-0.0788763
-0.105504
-0.132096
-0.158538
-0.184722
-0.210558
-0.23597
-0.260892
-0.285265
-0.309038
-0.332162
-0.354593
-0.376292
-0.39722
-0.417343
-0.436629
-0.455049
-0.472578
-0.48919
-0.504865
-0.519585
-0.533334
-0.546101
-0.557875
-0.568652
-0.578427
-0.587201
-0.594977
-0.0168924
-0.0422341
-0.0680731
-0.094056
-0.120047
-0.145912
-0.171532
-0.196814
-0.221685
-0.246081
-0.269947
-0.293234
-0.315897
-0.337895
-0.359189
-0.379743
-0.399526
-0.418507
-0.436657
-0.453952
-0.470368
-0.485886
-0.500487
-0.514156
-0.526882
-0.538654
-0.549467
-0.559317
-0.568203
-0.576129
-0.00829043
-0.0327239
-0.0579391
-0.0833367
-0.108776
-0.134106
-0.159191
-0.183943
-0.208291
-0.232175
-0.255545
-0.278356
-0.300564
-0.322132
-0.343024
-0.363206
-0.382646
-0.401316
-0.41919
-0.436242
-0.452452
-0.467798
-0.482265
-0.495837
-0.508502
-0.52025
-0.531076
-0.540976
-0.549948
-0.557995
-8.929e-05
-0.0236917
-0.0484269
-0.0733105
-0.0982507
-0.123082
-0.14766
-0.1719
-0.195739
-0.219124
-0.242008
-0.26435
-0.28611
-0.307254
-0.327746
-0.347556
-0.366653
-0.385011
-0.402604
-0.419408
-0.435403
-0.450568
-0.464888
-0.478348
-0.490936
-0.502643
-0.513461
-0.523388
-0.532422
-0.540564
0.00816312
-0.014378
-0.0388059
-0.0632935
-0.0878183
-0.112211
-0.136327
-0.160094
-0.183459
-0.206378
-0.228808
-0.250713
-0.272056
-0.292805
-0.312927
-0.332393
-0.351174
-0.369244
-0.386579
-0.403156
-0.418954
-0.433955
-0.448143
-0.461503
-0.474024
-0.485696
-0.496513
-0.50647
-0.515567
-0.523803
0.0177324
-0.003426
-0.0279035
-0.0522806
-0.0766053
-0.100709
-0.124478
-0.147874
-0.170858
-0.193395
-0.215451
-0.236994
-0.25799
-0.278409
-0.298222
-0.317399
-0.335916
-0.353747
-0.370868
-0.387258
-0.402897
-0.417768
-0.431855
-0.445145
-0.457625
-0.469287
-0.480125
-0.490133
-0.499311
-0.507659
0.0274605
0.00410472
-0.0214576
-0.0459533
-0.0702116
-0.094083
-0.117498
-0.140481
-0.163022
-0.185096
-0.206677
-0.227737
-0.24825
-0.268188
-0.287525
-0.306238
-0.324302
-0.341695
-0.358396
-0.374387
-0.38965
-0.404169
-0.41793
-0.43092
-0.443131
-0.454554
-0.465182
-0.475013
-0.484046
-0.492283
0.539838
0.546857
0.554039
0.561351
0.568792
0.576357
0.584039
0.591825
0.599704
0.607658
0.615671
0.62372
0.631783
0.639833
0.647845
0.655789
0.663639
0.671374
0.678978
0.686448
0.693801
0.701078
0.708363
0.715787
0.723553
0.731959
0.741318
0.751899
0.765512
0.785266
0.532658
0.539415
0.546437
0.553571
0.560811
0.568164
0.575624
0.583176
0.590806
0.598497
0.606231
0.613983
0.621731
0.629445
0.637099
0.644661
0.652106
0.659408
0.666552
0.673535
0.680373
0.687113
0.693839
0.70069
0.707879
0.715719
0.724539
0.734641
0.747889
0.767529
0.524623
0.53107
0.537908
0.544836
0.551846
0.558956
0.566161
0.573444
0.58079
0.588181
0.595595
0.603011
0.610399
0.617734
0.624983
0.632116
0.639104
0.645923
0.652555
0.658998
0.66527
0.671419
0.677535
0.683765
0.690332
0.697566
0.705819
0.715428
0.728324
0.747863
0.515743
0.52183
0.528459
0.535157
0.541906
0.548743
0.55566
0.56264
0.569667
0.57672
0.583777
0.590814
0.597803
0.604712
0.611511
0.618168
0.624651
0.630937
0.637006
0.642858
0.648512
0.65402
0.659477
0.665038
0.670939
0.677527
0.685176
0.694254
0.706733
0.726012
0.506026
0.511707
0.518103
0.524544
0.531004
0.537535
0.544133
0.550777
0.557449
0.564128
0.57079
0.577408
0.583955
0.590396
0.5967
0.602834
0.608765
0.614467
0.619924
0.625135
0.63012
0.634937
0.639686
0.644532
0.649723
0.655623
0.662628
0.671136
0.683142
0.702058
0.495484
0.500712
0.506852
0.513011
0.519153
0.525348
0.531595
0.53787
0.544153
0.550421
0.556649
0.562811
0.568874
0.574805
0.58057
0.586134
0.591466
0.596537
0.601333
0.605853
0.610121
0.614198
0.618192
0.622277
0.626715
0.631885
0.638208
0.646107
0.657594
0.67607
0.484129
0.48886
0.494721
0.500573
0.506368
0.512198
0.518063
0.523936
0.529796
0.535618
0.541376
0.547042
0.552582
0.557961
0.563143
0.568094
0.57278
0.577174
0.581261
0.585042
0.588545
0.591835
0.595028
0.598308
0.601951
0.606351
0.611953
0.619206
0.630129
0.648103
0.471975
0.476167
0.481726
0.487246
0.492666
0.498102
0.503554
0.508995
0.514398
0.51974
0.524993
0.530125
0.535102
0.539889
0.544448
0.548742
0.552738
0.556409
0.559741
0.562737
0.565429
0.567887
0.570235
0.572668
0.575474
0.579067
0.58391
0.590481
0.600799
0.618212
0.459036
0.462648
0.467885
0.47305
0.478068
0.48308
0.488091
0.493068
0.497983
0.502812
0.507524
0.512086
0.516464
0.520618
0.524512
0.528108
0.531372
0.534276
0.536809
0.538976
0.540813
0.542395
0.543856
0.545401
0.547333
0.550081
0.554131
0.559986
0.569661
0.58646
0.44533
0.448324
0.453218
0.458004
0.462593
0.467155
0.471696
0.476179
0.480576
0.484858
0.488996
0.492954
0.496695
0.50018
0.503371
0.506228
0.508718
0.510815
0.512506
0.513802
0.514741
0.515407
0.515942
0.516561
0.517582
0.519452
0.522675
0.527782
0.536778
0.55291
0.430873
0.433212
0.437745
0.442129
0.446265
0.450349
0.454392