/*--------------------------------*- C++ -*----------------------------------*\
  =========                 |
  \\      /  F ield         | OpenFOAM: The Open Source CFD Toolbox
   \\    /   O peration     | Website:  https://openfoam.org
    \\  /    A nd           | Version:  6.0
     \\/     M anipulation  |
\*---------------------------------------------------------------------------*/
FoamFile
{
    version     2.0;
    format      ascii;
    class       volVectorField;
    location    "19";
    object      U;
}
// * * * * * * * * * * * * * * * * * * * * * * * * * * * * * * * * * * * * * //

dimensions      [0 1 -1 0 0 0 0];

internalField   nonuniform List<vector> 
19200
(
(0.0065508 -0.478892 -4.12171e-22)
(0.00479385 -0.440354 2.28429e-22)
(0.00270237 -0.405001 1.17247e-22)
(0.000285486 -0.372652 1.14465e-22)
(-0.00232773 -0.343099 1.40192e-22)
(-0.00500097 -0.316131 7.09109e-24)
(-0.0076405 -0.291542 2.24716e-22)
(-0.0101795 -0.269136 -2.33896e-23)
(-0.0125701 -0.248723 2.2299e-22)
(-0.0147799 -0.230128 9.75778e-23)
(-0.0167886 -0.213186 -1.02242e-23)
(-0.0185859 -0.197744 1.74035e-22)
(-0.0201688 -0.183661 3.29009e-22)
(-0.0215402 -0.170809 -2.40118e-22)
(-0.0227074 -0.159069 3.19895e-22)
(-0.0236812 -0.148334 3.04374e-22)
(-0.0244749 -0.138506 -2.99208e-22)
(-0.0251036 -0.129497 5.47639e-22)
(-0.0255838 -0.121227 -3.67611e-22)
(-0.0259327 -0.113622 1.86367e-22)
(-0.0261679 -0.10662 2.88868e-22)
(-0.026307 -0.10016 -1.04532e-22)
(-0.0263673 -0.0941928 1.42406e-22)
(-0.0263659 -0.0886699 -1.80834e-22)
(-0.0263188 -0.0835502 4.72922e-24)
(-0.0262423 -0.0787982 1.0772e-22)
(-0.0261517 -0.0743831 -7.32871e-23)
(-0.0260515 -0.0702783 4.01851e-23)
(-0.0259336 -0.0664584 1.12057e-22)
(-0.025885 -0.0628996 5.53624e-22)
(0.0191177 -0.478072 -9.95174e-23)
(0.016343 -0.438958 7.18951e-22)
(0.013328 -0.403194 -4.01456e-22)
(0.0100914 -0.370566 -6.14532e-22)
(0.00675994 -0.340846 -3.11088e-22)
(0.00346315 -0.313802 -2.37106e-22)
(0.000287519 -0.289213 -5.51639e-22)
(-0.00270731 -0.266864 6.63168e-23)
(-0.00548028 -0.246555 -1.07927e-22)
(-0.00800543 -0.228098 -4.60793e-22)
(-0.0102687 -0.21132 -1.32076e-21)
(-0.0122653 -0.196059 6.87067e-22)
(-0.0139976 -0.182168 -2.76081e-22)
(-0.0154732 -0.169512 1.06102e-22)
(-0.0167041 -0.157968 -7.23744e-22)
(-0.0177052 -0.147425 -2.9256e-22)
(-0.0184935 -0.137782 2.8332e-23)
(-0.0190879 -0.128945 1.10211e-21)
(-0.0195081 -0.120834 -5.71957e-22)
(-0.0197742 -0.113373 -3.30075e-22)
(-0.0199068 -0.106497 -1.47799e-21)
(-0.0199262 -0.100146 3.92845e-22)
(-0.0198523 -0.0942664 -2.65694e-22)
(-0.0197042 -0.0888117 5.0114e-22)
(-0.0195004 -0.0837401 -2.54504e-22)
(-0.0192593 -0.0790159 -4.14297e-22)
(-0.0189982 -0.0746092 1.29263e-22)
(-0.018722 -0.0704937 2.36952e-22)
(-0.0184204 -0.0666442 -4.03352e-22)
(-0.0181931 -0.0630394 2.59836e-22)
(0.031598 -0.476965 -4.76065e-23)
(0.0277867 -0.437294 1.25532e-22)
(0.0238555 -0.40115 2.1526e-22)
(0.0198129 -0.368282 2.12909e-21)
(0.0157809 -0.338435 -1.35527e-21)
(0.0118838 -0.311355 1.25201e-21)
(0.00820049 -0.286801 8.28855e-22)
(0.00478316 -0.264545 7.36264e-22)
(0.00166536 -0.244372 -7.49474e-22)
(-0.00113402 -0.226083 -1.25202e-22)
(-0.00360756 -0.209495 2.14038e-21)
(-0.00575662 -0.19444 4.09142e-22)
(-0.00758917 -0.180764 -1.15106e-21)
(-0.00911816 -0.168326 9.14812e-22)
(-0.0103603 -0.156998 -1.88296e-23)
(-0.0113348 -0.146664 4.50571e-22)
(-0.012063 -0.13722 3.30236e-22)
(-0.0125673 -0.12857 1.26937e-21)
(-0.012871 -0.12063 -5.40656e-22)
(-0.0129975 -0.113324 -1.74959e-22)
(-0.0129703 -0.106582 -5.70365e-22)
(-0.0128126 -0.100346 2.7217e-21)
(-0.012547 -0.0945597 -2.36961e-21)
(-0.0121952 -0.0891765 7.63362e-22)
(-0.011778 -0.0841542 4.48213e-22)
(-0.0113161 -0.0794574 -1.72481e-21)
(-0.0108295 -0.0750564 2.37801e-21)
(-0.0103232 -0.0709256 -2.39444e-22)
(-0.00978367 -0.0670395 -2.86169e-22)
(-0.00932661 -0.0633803 -2.49679e-21)
(0.0440225 -0.475559 -1.49943e-21)
(0.0391477 -0.435376 -1.58114e-21)
(0.0342937 -0.398892 -2.12336e-21)
(0.0294525 -0.365825 8.57598e-24)
(0.0247372 -0.335892 1.33408e-22)
(0.0202639 -0.308816 -2.95887e-21)
(0.0161032 -0.284336 1.14541e-22)
(0.0122985 -0.262206 4.52812e-22)
(0.00887516 -0.242201 -6.0404e-23)
(0.00584433 -0.224111 9.07799e-22)
(0.00320621 -0.207742 -3.65127e-21)
(0.000952809 -0.192918 -2.52751e-21)
(-0.000929908 -0.17948 9.04873e-22)
(-0.00246046 -0.16728 2.11881e-21)
(-0.00366058 -0.156187 -2.48364e-21)
(-0.00455427 -0.14608 -4.14429e-22)
(-0.00516701 -0.136851 -1.69011e-21)
(-0.00552521 -0.128402 -8.45911e-22)
(-0.00565572 -0.120645 1.54435e-21)
(-0.00558549 -0.113503 -2.04264e-21)
(-0.0053412 -0.106906 1.93823e-21)
(-0.00494907 -0.100791 -2.31246e-21)
(-0.00443456 -0.0951027 -1.95868e-21)
(-0.00382209 -0.0897938 -1.53461e-21)
(-0.00313494 -0.0848215 -3.965e-22)
(-0.00239669 -0.0801504 -3.41514e-21)
(-0.00162984 -0.0757513 3.66517e-22)
(-0.000839737 -0.071599 6.88711e-22)
(-8.6133e-06 -0.0676674 -2.12235e-21)
(0.000728402 -0.0639432 4.18455e-22)
(0.0563939 -0.473845 -8.72277e-22)
(0.0504324 -0.433207 1.53251e-22)
(0.0446485 -0.396433 1.41471e-21)
(0.0390155 -0.363215 1.61933e-21)
(0.0336342 -0.333241 1.27724e-21)
(0.0286103 -0.30621 5.69891e-22)
(0.0240041 -0.281842 9.17962e-22)
(0.0198489 -0.259876 4.65911e-21)
(0.0161611 -0.240072 -2.87176e-21)
(0.0129432 -0.222209 6.00486e-23)
(0.0101876 -0.206087 7.54533e-22)
(0.00787925 -0.19152 3.77323e-21)
(0.00599752 -0.178343 -2.67049e-21)
(0.00451806 -0.166403 2.063e-21)
(0.00341379 -0.155564 -2.47365e-21)
(0.00265583 -0.145701 4.47576e-21)
(0.00221424 -0.136702 -1.33692e-21)
(0.0020585 -0.128468 5.19905e-23)
(0.00215793 -0.120907 2.54221e-21)
(0.00248204 -0.11394 1.95875e-21)
(0.00300078 -0.107495 -1.99886e-21)
(0.00368469 -0.101507 2.88187e-21)
(0.0045053 -0.0959224 -1.41006e-21)
(0.00543524 -0.0906903 1.66583e-21)
(0.00644848 -0.0857683 2.42561e-21)
(0.00751855 -0.0811206 9.92132e-22)
(0.00861984 -0.0767187 3.07409e-21)
(0.00974705 -0.0725373 -9.73104e-22)
(0.0109226 -0.0685493 -2.5177e-22)
(0.011989 -0.0647472 -2.13705e-21)
(0.0687079 -0.471825 -6.42063e-22)
(0.0616413 -0.430794 -4.67098e-22)
(0.0549236 -0.393787 -1.61252e-21)
(0.0485078 -0.360469 -4.66491e-21)
(0.0424799 -0.330501 1.56163e-21)
(0.0369329 -0.303559 1.2373e-22)
(0.0319148 -0.279343 -1.27482e-21)
(0.0274481 -0.257576 3.16902e-22)
(0.0235387 -0.238007 -1.56434e-22)
(0.0201798 -0.220403 -4.12995e-21)
(0.0173553 -0.204555 1.72278e-21)
(0.0150426 -0.19027 3.31823e-21)
(0.0132141 -0.177377 -2.4418e-23)
(0.0118393 -0.165718 1.37681e-21)
(0.0108854 -0.155151 3.7461e-21)
(0.0103186 -0.14555 -2.73258e-21)
(0.0101042 -0.136797 5.04964e-21)
(0.0102075 -0.128792 -2.58938e-21)
(0.0105938 -0.121439 4.82306e-21)
(0.011229 -0.114658 -3.79179e-21)
(0.0120795 -0.108373 1.74658e-21)
(0.0131125 -0.102521 5.07106e-21)
(0.0142962 -0.097043 4.89516e-22)
(0.0156004 -0.0918898 -5.11055e-21)
(0.0169957 -0.087018 2.98614e-21)
(0.0184526 -0.0823912 3.72085e-22)
(0.0199422 -0.0779808 -1.11904e-21)
(0.0214591 -0.0737615 4.33193e-21)
(0.0230314 -0.0697045 1.71089e-21)
(0.0244754 -0.0658097 -1.79118e-21)
(0.0809584 -0.469501 1.88348e-21)
(0.0727732 -0.428145 1.09771e-22)
(0.0651221 -0.390966 -3.27348e-21)
(0.0579359 -0.357603 7.0382e-22)
(0.0512836 -0.327692 -1.1384e-21)
(0.0452435 -0.300884 7.58546e-22)
(0.0398499 -0.276861 1.93513e-21)
(0.0351128 -0.255331 3.92986e-21)
(0.0310266 -0.23603 -4.5799e-21)
(0.0275746 -0.218715 1.12381e-21)
(0.0247315 -0.203168 -9.70321e-22)
(0.0224663 -0.189191 7.34009e-22)
(0.0207445 -0.176604 -3.28979e-21)
(0.0195287 -0.165246 -3.12334e-22)
(0.0187806 -0.154971 6.0996e-21)
(0.0184608 -0.145647 -4.26305e-21)
(0.0185301 -0.137157 -2.97386e-21)
(0.0189492 -0.129393 -2.40825e-21)
(0.0196795 -0.122261 4.30967e-21)
(0.0206829 -0.115676 1.04108e-21)
(0.0219224 -0.109561 -4.84258e-21)
(0.0233616 -0.10385 6.8316e-21)
(0.0249654 -0.0984849 -6.39801e-21)
(0.0267001 -0.0934133 4.51253e-21)
(0.0285333 -0.0885912 -2.64379e-21)
(0.0304318 -0.0839821 1.83726e-21)
(0.0323631 -0.0795571 1.53518e-21)
(0.0343219 -0.0752903 -6.81771e-21)
(0.0363422 -0.0711502 2.99783e-21)
(0.0382114 -0.0671458 6.71942e-23)
(0.0931392 -0.466879 -1.8604e-21)
(0.0838266 -0.425269 1.59189e-21)
(0.0752473 -0.387982 -3.51791e-21)
(0.0673072 -0.354633 6.97326e-21)
(0.0600564 -0.32483 -2.0779e-21)
(0.0535564 -0.298203 3.3117e-21)
(0.0478264 -0.274415 5.51835e-23)
(0.0428625 -0.25316 -4.37793e-22)
(0.0386469 -0.234161 -8.28607e-22)
(0.0351516 -0.217165 -5.27178e-23)
(0.0323418 -0.201946 -3.59714e-21)
(0.0301777 -0.1883 1.89777e-21)
(0.028617 -0.176041 -2.56421e-21)
(0.0276157 -0.165004 -1.77174e-22)
(0.0271293 -0.155039 -8.07365e-21)
(0.027113 -0.14601 2.66311e-21)
(0.0275226 -0.137796 1.75874e-21)
(0.0283145 -0.130289 -2.0031e-21)
(0.0294458 -0.123389 -2.26949e-22)
(0.0308747 -0.117011 -3.45184e-21)
(0.0325602 -0.111075 -1.30734e-21)
(0.0344625 -0.105513 1.92174e-22)
(0.036543 -0.100265 -3.52293e-21)
(0.0387644 -0.095277 -5.66791e-21)
(0.0410909 -0.0905047 1.95224e-22)
(0.0434855 -0.0859101 -7.3274e-22)
(0.0459116 -0.0814641 2.08084e-21)
(0.0483638 -0.0771392 -5.38513e-21)
(0.0508829 -0.0729008 4.80854e-21)
(0.0532236 -0.0687685 -1.09442e-20)
(0.105244 -0.463962 -4.5345e-21)
(0.0948006 -0.422174 6.25837e-21)
(0.0853033 -0.384847 -7.25344e-21)
(0.0766305 -0.351573 -2.18421e-21)
(0.0688109 -0.321933 -1.54616e-21)
(0.061888 -0.295535 -1.7962e-21)
(0.055864 -0.272025 -1.67871e-21)
(0.0507199 -0.251082 -2.9796e-22)
(0.0464246 -0.232417 -1.87678e-21)
(0.0429382 -0.21577 -4.36016e-22)
(0.0402155 -0.200905 3.87246e-21)
(0.0382075 -0.187613 -2.02469e-21)
(0.0368638 -0.175704 -2.73929e-21)
(0.0361334 -0.165006 -5.1468e-21)
(0.0359654 -0.155367 1.12561e-20)
(0.0363095 -0.146649 -4.55551e-21)
(0.0371165 -0.138726 1.80384e-21)
(0.0383382 -0.131488 -7.28832e-21)
(0.0399276 -0.124833 2.84749e-21)
(0.0418389 -0.118672 -1.31637e-21)
(0.0440274 -0.112924 1.59845e-21)
(0.0464495 -0.107519 -6.15509e-22)
(0.0490629 -0.102393 5.92268e-21)
(0.0518269 -0.0974928 -2.17454e-21)
(0.0547017 -0.0927707 6.50729e-21)
(0.0576464 -0.0881879 -1.62501e-21)
(0.0606197 -0.0837144 9.07926e-21)
(0.0636164 -0.079321 2.84673e-21)
(0.0666842 -0.074968 5.52116e-21)
(0.0695416 -0.0706879 -1.90939e-20)
(0.117267 -0.460756 7.14154e-21)
(0.105695 -0.418868 -1.47262e-21)
(0.0952951 -0.381573 3.20591e-21)
(0.0859157 -0.348435 -9.78226e-22)
(0.0775618 -0.319014 3.54817e-21)
(0.0702569 -0.292894 3.68752e-21)
(0.063985 -0.269704 4.47373e-21)
(0.0587105 -0.249111 -4.34393e-22)
(0.054388 -0.230813 -5.01215e-21)
(0.0509651 -0.214543 7.50808e-21)
(0.0483853 -0.200058 -8.04983e-22)
(0.0465901 -0.187142 5.98601e-21)
(0.0455206 -0.175601 2.34677e-21)
(0.0451185 -0.16526 8.24472e-22)
(0.0453263 -0.155964 1.43738e-21)
(0.0460882 -0.14757 2.15917e-21)
(0.0473498 -0.139952 3.93574e-21)
(0.0490585 -0.132995 -1.27245e-21)
(0.0511629 -0.126596 6.52483e-21)
(0.0536133 -0.120663 3.29281e-21)
(0.0563612 -0.115113 -7.03151e-21)
(0.0593594 -0.109873 1.32375e-20)
(0.0625617 -0.104876 -1.83312e-20)
(0.0659236 -0.100067 1.81544e-20)
(0.0694015 -0.0953961 -6.25535e-21)
(0.0729496 -0.0908232 1.14095e-21)
(0.0765224 -0.0863165 -9.2362e-21)
(0.0801138 -0.0818441 5.24264e-21)
(0.0837794 -0.07736 2.04219e-21)
(0.0871978 -0.0729115 -2.83063e-21)
(0.129203 -0.457264 -4.07728e-21)
(0.11651 -0.41536 4.73199e-21)
(0.105229 -0.378169 -1.3455e-21)
(0.0951744 -0.345234 4.17362e-21)
(0.0863256 -0.316088 4.35974e-22)
(0.0786842 -0.290295 1.19704e-21)
(0.0722142 -0.267468 -8.82195e-21)
(0.0668627 -0.247261 -1.72342e-21)
(0.0625687 -0.229362 6.52e-21)
(0.0592663 -0.213495 5.48496e-21)
(0.0568875 -0.199412 -9.71149e-21)
(0.0553635 -0.186893 6.04373e-21)
(0.0546268 -0.175738 -6.28469e-21)
(0.0546114 -0.16577 4.75837e-21)
(0.0552532 -0.15683 -8.32667e-21)
(0.0564906 -0.148774 -6.69919e-21)
(0.0582643 -0.141473 2.1148e-22)
(0.0605168 -0.134809 -3.5521e-21)
(0.0631929 -0.128678 6.15019e-21)
(0.0662387 -0.122983 2.67469e-21)
(0.0696021 -0.11764 -1.74813e-21)
(0.0732321 -0.112573 -5.05132e-22)
(0.0770786 -0.107712 2.53932e-21)
(0.0810932 -0.102999 -8.42376e-21)
(0.0852282 -0.0983823 1.4681e-20)
(0.0894331 -0.0938182 -3.54429e-21)
(0.0936566 -0.0892738 -4.55224e-22)
(0.0978926 -0.0847126 1.47787e-20)
(0.102204 -0.0800811 2.35144e-21)
(0.106227 -0.0754433 -2.36165e-21)
(0.141046 -0.453492 1.93682e-22)
(0.127247 -0.411658 -2.42428e-21)
(0.115112 -0.374647 -2.50035e-21)
(0.10442 -0.34198 -4.51772e-21)
(0.0951208 -0.313167 1.76106e-22)
(0.087193 -0.287751 -3.90917e-21)
(0.0805792 -0.265329 4.68543e-21)
(0.0752076 -0.245542 -4.68852e-22)
(0.0710009 -0.228072 4.64043e-21)
(0.067879 -0.212634 -3.68621e-21)
(0.0657615 -0.198974 -2.09297e-21)
(0.0645692 -0.186869 1.22773e-21)
(0.0642253 -0.176116 7.11715e-22)
(0.064656 -0.166534 -7.93261e-21)
(0.0657907 -0.157963 4.78297e-21)
(0.0675618 -0.150256 -2.67505e-21)
(0.0699048 -0.143282 7.62811e-21)
(0.072758 -0.136922 -2.69956e-21)
(0.0760618 -0.131067 2.87955e-21)
(0.0797588 -0.125621 8.00071e-22)
(0.0837929 -0.120495 5.63645e-21)
(0.0881095 -0.11561 -1.10277e-21)
(0.0926548 -0.110894 1.0259e-20)
(0.0973762 -0.106283 -1.16764e-20)
(0.102222 -0.101724 -4.28216e-21)
(0.107136 -0.0971691 3.64562e-21)
(0.112061 -0.0925838 -2.16321e-22)
(0.11699 -0.0879257 -6.99801e-21)
(0.121995 -0.0831312 5.8219e-21)
(0.126664 -0.0782838 -7.8811e-21)
(0.152792 -0.449445 7.00376e-21)
(0.137907 -0.40777 2.11943e-21)
(0.124954 -0.371018 2.79136e-21)
(0.113667 -0.338686 4.15403e-21)
(0.103968 -0.310262 6.67418e-21)
(0.0958088 -0.285271 -2.22592e-22)
(0.0891099 -0.263295 9.95164e-22)
(0.0837792 -0.243963 9.17988e-21)
(0.0797221 -0.226949 -1.87289e-21)
(0.0768434 -0.211963 -3.87775e-21)
(0.07505 -0.198745 7.20442e-21)
(0.0742517 -0.187069 1.40555e-21)
(0.0743622 -0.17673 1.95792e-23)
(0.0752997 -0.167545 1.94016e-21)
(0.0769866 -0.159352 3.87038e-21)
(0.0793497 -0.152003 -8.5581e-21)
(0.0823195 -0.145364 7.50472e-21)
(0.0858296 -0.139316 1.34299e-21)
(0.0898166 -0.133748 8.37267e-21)
(0.0942194 -0.128559 -4.63433e-21)
(0.0989785 -0.12366 8.2338e-21)
(0.104035 -0.118966 -9.18017e-21)
(0.109333 -0.114403 9.26015e-21)
(0.114814 -0.109903 1.58304e-21)
(0.120422 -0.105407 -6.7197e-21)
(0.126097 -0.100865 -2.49663e-21)
(0.131774 -0.0962377 1.43786e-20)
(0.137446 -0.0914767 1.08174e-20)
(0.143191 -0.0865055 2.99537e-21)
(0.148546 -0.0814294 -2.68633e-21)
(0.164436 -0.445126 7.34207e-22)
(0.148495 -0.403703 1.99034e-21)
(0.134764 -0.367289 8.72714e-21)
(0.122932 -0.335361 -1.47568e-20)
(0.112889 -0.307384 -1.65226e-21)
(0.104559 -0.282866 -1.80296e-21)
(0.0978387 -0.261375 7.9598e-22)
(0.092614 -0.24253 1.23825e-21)
(0.0887723 -0.225998 2.26827e-21)
(0.0862028 -0.211482 -6.37518e-21)
(0.0847989 -0.198723 -1.52739e-21)
(0.0844588 -0.187487 3.89627e-21)
(0.0850868 -0.177571 4.70853e-21)
(0.0865927 -0.168791 -4.71279e-21)
(0.088892 -0.160982 -5.2899e-21)
(0.0919057 -0.153995 8.31508e-21)
(0.0955591 -0.147698 5.96455e-21)
(0.0997817 -0.141968 -1.42912e-21)
(0.104506 -0.136693 -4.15574e-21)
(0.109669 -0.13177 8.3133e-22)
(0.115205 -0.127106 -1.08677e-20)
(0.121055 -0.122613 1.35756e-20)
(0.127156 -0.118213 -9.6829e-21)
(0.133449 -0.113833 -5.66682e-22)
(0.139871 -0.109409 6.91551e-21)
(0.146357 -0.104886 -2.29986e-21)
(0.152835 -0.100219 -7.40946e-21)
(0.159296 -0.0953524 9.26653e-21)
(0.165827 -0.0901936 -3.02201e-22)
(0.171908 -0.0848721 1.96839e-21)
(0.175974 -0.440541 -4.83257e-22)
(0.159014 -0.399466 -1.99068e-21)
(0.144553 -0.36347 -1.0077e-20)
(0.132233 -0.332013 3.67988e-21)
(0.121909 -0.304542 -1.30165e-21)
(0.113474 -0.280543 4.24721e-21)
(0.1068 -0.259573 3.13334e-22)
(0.101751 -0.241245 -5.85875e-21)
(0.0981943 -0.225217 9.2537e-21)
(0.096003 -0.211189 -8.76642e-21)
(0.0950565 -0.198899 -4.92223e-22)
(0.0952412 -0.188114 2.41776e-21)
(0.0964513 -0.178626 -4.3826e-21)
(0.0985882 -0.170253 5.38962e-21)
(0.101561 -0.16283 -1.06881e-20)
(0.105283 -0.156208 -2.7949e-21)
(0.109677 -0.150254 6.9283e-21)
(0.114667 -0.144845 -1.88897e-22)
(0.120182 -0.139867 -5.30205e-21)
(0.126155 -0.135216 1.44388e-20)
(0.132521 -0.130795 -7.76367e-21)
(0.139213 -0.126514 -1.13138e-20)
(0.146168 -0.122288 3.99232e-21)
(0.153321 -0.11804 -1.21841e-20)
(0.160607 -0.113698 -3.23846e-21)
(0.167953 -0.109203 -5.71819e-22)
(0.17528 -0.104504 -9.27043e-21)
(0.182577 -0.0995322 1.10727e-20)
(0.189938 -0.094179 -6.58471e-21)
(0.196785 -0.0885989 8.51491e-21)
(0.187402 -0.435694 -2.47958e-21)
(0.169469 -0.395065 -8.06945e-21)
(0.154334 -0.35957 4.39935e-21)
(0.141591 -0.328653 -4.44544e-21)
(0.131053 -0.301741 -3.59664e-21)
(0.122586 -0.278306 -2.31076e-21)
(0.116032 -0.257894 -8.59393e-21)
(0.111232 -0.240108 6.08653e-21)
(0.108033 -0.224604 -1.60417e-20)
(0.106292 -0.211078 -6.45362e-21)
(0.105874 -0.199265 2.11206e-21)
(0.106652 -0.188933 4.06053e-21)
(0.10851 -0.179875 9.43772e-23)
(0.111342 -0.171907 -8.75447e-21)
(0.115048 -0.164868 2.09615e-21)
(0.119538 -0.158608 -9.00999e-21)
(0.124728 -0.152995 -6.95893e-21)
(0.130539 -0.147906 -4.58456e-21)
(0.136896 -0.143226 -1.25077e-21)
(0.14373 -0.138851 7.69909e-21)
(0.150972 -0.134679 1.19067e-20)
(0.158555 -0.130618 -3.74769e-21)
(0.166411 -0.126577 -3.86978e-21)
(0.174472 -0.122474 7.62337e-21)
(0.182668 -0.118231 4.51847e-21)
(0.19092 -0.113778 -3.58931e-21)
(0.199142 -0.109057 -4.29441e-21)
(0.207321 -0.103987 3.8657e-22)
(0.215556 -0.0984378 4.95741e-21)
(0.223207 -0.0925915 7.52916e-21)
(0.198717 -0.430592 -6.30116e-22)
(0.179865 -0.390508 1.04542e-20)
(0.164122 -0.355595 8.88119e-21)
(0.151025 -0.325286 7.42485e-21)
(0.14035 -0.298988 -4.97517e-21)
(0.131928 -0.27616 -1.05504e-21)
(0.125572 -0.256338 9.11802e-22)
(0.121099 -0.239119 7.80918e-21)
(0.118336 -0.224153 3.14481e-21)
(0.117121 -0.211138 8.04425e-21)
(0.117303 -0.199807 -1.17857e-20)
(0.118745 -0.189927 1.11917e-21)
(0.12132 -0.181294 5.25689e-21)
(0.124911 -0.173726 3.4914e-21)
(0.129413 -0.167062 7.8825e-21)
(0.134729 -0.161156 -5.21409e-21)
(0.140769 -0.155877 -5.41037e-21)
(0.147452 -0.151101 8.67194e-22)
(0.154701 -0.146716 1.25718e-20)
(0.162443 -0.142615 -2.10707e-20)
(0.170607 -0.138697 7.46663e-21)
(0.179124 -0.134863 -1.19805e-22)
(0.187924 -0.13102 1.59352e-20)
(0.196936 -0.127078 -6.92568e-21)
(0.206086 -0.122949 -2.36875e-22)
(0.215289 -0.118557 -4.91596e-21)
(0.224451 -0.113832 4.75797e-21)
(0.233554 -0.108678 1.21844e-21)
(0.242706 -0.102938 -6.04182e-21)
(0.251198 -0.0968251 2.23933e-20)
(0.209916 -0.425239 -9.94765e-21)
(0.190209 -0.3858 -6.45207e-21)
(0.173931 -0.351554 -1.78243e-20)
(0.16056 -0.321918 -8.86802e-21)
(0.149829 -0.296288 8.54221e-21)
(0.141534 -0.274107 -5.54117e-21)
(0.13546 -0.254904 -1.56636e-21)
(0.131397 -0.238271 -4.17e-21)
(0.129151 -0.223857 7.157e-21)
(0.12854 -0.211357 -1.74327e-21)
(0.1294 -0.200506 -2.82969e-21)
(0.131579 -0.191073 -4.03473e-22)
(0.134939 -0.182855 -1.35305e-20)
(0.139355 -0.175675 -1.01398e-21)
(0.144714 -0.169373 3.59554e-21)
(0.150913 -0.163806 -4.81617e-22)
(0.157859 -0.158846 -1.66954e-20)
(0.165465 -0.154372 1.68769e-20)
(0.173651 -0.150273 -1.74553e-20)
(0.182344 -0.146441 7.01076e-21)
(0.191471 -0.142775 1.01585e-21)
(0.200962 -0.139174 4.4351e-22)
(0.210744 -0.13554 -8.42471e-21)
(0.220746 -0.131774 3.03675e-21)
(0.230889 -0.127782 6.89716e-23)
(0.241083 -0.123474 1.11648e-21)
(0.251225 -0.118771 -2.521e-20)
(0.261295 -0.113555 6.55013e-21)
(0.271405 -0.107639 7.66206e-21)
(0.280774 -0.101268 1.03579e-20)
(0.220996 -0.419639 1.9711e-20)
(0.200509 -0.38095 7.92073e-21)
(0.183777 -0.347451 4.88188e-21)
(0.170218 -0.318555 7.9701e-21)
(0.15952 -0.293642 -1.12272e-21)
(0.151443 -0.272146 6.87066e-21)
(0.145739 -0.253588 1.62393e-20)
(0.142173 -0.237558 -2.01678e-21)
(0.140527 -0.223704 1.08179e-21)
(0.140603 -0.21172 2.27237e-20)
(0.142218 -0.201343 -2.88304e-21)
(0.145209 -0.192346 3.48221e-21)
(0.149425 -0.184528 -1.51735e-21)
(0.154733 -0.177717 -5.68294e-22)
(0.161011 -0.171756 2.07571e-20)
(0.168151 -0.166507 8.05581e-22)
(0.176055 -0.161845 2.44892e-20)
(0.184631 -0.157653 -2.94823e-21)
(0.1938 -0.153823 -5.84147e-21)
(0.203484 -0.150249 1.39806e-20)
(0.21361 -0.146829 -1.3574e-20)
(0.224108 -0.143462 1.51936e-20)
(0.234906 -0.140044 8.60309e-21)
(0.24593 -0.136472 -7.4567e-21)
(0.257099 -0.13264 1.13216e-20)
(0.268319 -0.128447 1.33353e-21)
(0.279479 -0.123797 -5.46052e-21)
(0.290555 -0.118553 2.41555e-21)
(0.301662 -0.112488 1.97553e-20)
(0.311944 -0.105878 3.37363e-21)
(0.231956 -0.413799 -3.38229e-21)
(0.210771 -0.375961 -7.78565e-21)
(0.193677 -0.343291 3.53624e-21)
(0.180025 -0.315198 -1.44018e-20)
(0.169455 -0.291052 7.38573e-21)
(0.16169 -0.270276 -1.41876e-20)
(0.15645 -0.252386 -1.01113e-20)
(0.153471 -0.236972 2.85219e-21)
(0.152515 -0.22368 3.39524e-21)
(0.153362 -0.212208 -1.52959e-20)
(0.155814 -0.202295 -7.0968e-21)
(0.159692 -0.193717 3.56551e-21)
(0.164837 -0.186279 -9.79239e-21)
(0.171105 -0.179811 -4.1659e-21)
(0.178365 -0.174163 -2.99009e-21)
(0.186503 -0.169203 -3.08649e-21)
(0.195415 -0.164809 -1.36406e-20)
(0.205009 -0.160871 -9.16851e-21)
(0.2152 -0.157285 1.35228e-21)
(0.225911 -0.153948 3.08064e-21)
(0.237068 -0.150761 3.63791e-21)
(0.248601 -0.147622 -1.25022e-20)
(0.260439 -0.144426 4.93307e-21)
(0.27251 -0.141062 -1.04913e-20)
(0.284732 -0.137415 1.04435e-20)
(0.297006 -0.133371 -1.38351e-20)
(0.309215 -0.128818 4.76369e-21)
(0.32133 -0.123589 -7.12926e-21)
(0.333472 -0.117415 -1.07485e-20)
(0.344702 -0.110604 -1.2833e-21)
(0.242792 -0.407724 -7.22409e-21)
(0.221006 -0.370839 -7.02967e-21)
(0.20365 -0.339079 -7.49846e-21)
(0.190007 -0.311851 -6.1278e-21)
(0.179667 -0.288516 1.89287e-20)
(0.172314 -0.268491 2.94367e-21)
(0.167635 -0.251289 9.03478e-21)
(0.165339 -0.236499 1.46588e-20)
(0.165163 -0.22377 7.64919e-21)
(0.166868 -0.212801 -1.01591e-20)
(0.170239 -0.203337 1.79162e-20)
(0.175085 -0.195157 -1.78398e-20)
(0.181233 -0.188071 1.78108e-20)
(0.188528 -0.181915 2.27791e-21)
(0.196833 -0.176546 4.94814e-21)
(0.206026 -0.171837 1.55649e-21)
(0.215999 -0.167673 2.20122e-20)
(0.226654 -0.163951 -3.32737e-21)
(0.237905 -0.160572 3.18521e-21)
(0.249673 -0.157441 1.13477e-20)
(0.261886 -0.154462 -1.28995e-20)
(0.274475 -0.151536 1.0829e-20)
(0.287371 -0.148558 4.97772e-22)
(0.300504 -0.145413 5.25668e-21)
(0.313793 -0.141977 1.00126e-20)
(0.327141 -0.138122 -1.75013e-21)
(0.340423 -0.133717 1.0604e-20)
(0.353608 -0.128561 1.60847e-20)
(0.366819 -0.122336 -1.74448e-20)
(0.379031 -0.115378 -1.25871e-20)
(0.253505 -0.401417 2.18315e-20)
(0.231223 -0.36559 -2.54038e-21)
(0.213714 -0.334817 5.74982e-21)
(0.200189 -0.308512 1.13593e-20)
(0.190187 -0.286031 -3.42894e-20)
(0.183352 -0.266785 3.889e-21)
(0.179337 -0.250286 -1.46299e-20)
(0.177821 -0.236126 1.54915e-20)
(0.178519 -0.223955 -1.26644e-20)
(0.181171 -0.213478 7.63035e-21)
(0.185548 -0.204442 -2.78871e-20)
(0.19144 -0.196634 3.65319e-22)
(0.198665 -0.189868 -1.05891e-20)
(0.207058 -0.183987 1.6001e-20)
(0.216472 -0.178855 -1.77569e-20)
(0.226778 -0.17435 -1.02094e-21)
(0.237861 -0.170368 -1.59251e-20)
(0.249621 -0.166813 -1.47737e-21)
(0.261967 -0.163593 1.52406e-21)
(0.274821 -0.160623 4.17728e-21)
(0.288109 -0.157814 -2.31014e-20)
(0.301766 -0.155074 -8.25308e-22)
(0.315727 -0.152298 -1.39036e-20)
(0.329925 -0.149374 -3.38845e-21)
(0.344287 -0.14617 -9.22704e-21)
(0.358714 -0.142545 -1.04829e-20)
(0.373082 -0.138348 -1.14579e-20)
(0.387358 -0.13334 1.86671e-20)
(0.401668 -0.127141 5.16396e-21)
(0.414899 -0.120112 -1.2069e-20)
(0.264093 -0.394884 -1.4576e-20)
(0.241432 -0.360215 5.8397e-21)
(0.223888 -0.330506 -1.08385e-20)
(0.210598 -0.30518 1.67889e-21)
(0.201048 -0.283592 1.98881e-20)
(0.194841 -0.265148 -1.04108e-20)
(0.191594 -0.249365 -1.19023e-20)
(0.19096 -0.235836 -1.0402e-20)
(0.192628 -0.224216 3.91406e-22)
(0.196319 -0.214214 7.23106e-21)
(0.201786 -0.205584 -5.77572e-21)
(0.208807 -0.198116 -3.09406e-23)
(0.217186 -0.191634 1.93835e-20)
(0.226746 -0.185985 -1.00541e-20)
(0.237333 -0.181041 3.00652e-21)
(0.24881 -0.176689 -9.10302e-21)
(0.261056 -0.172831 3.4837e-21)
(0.273963 -0.169381 8.0654e-21)
(0.287439 -0.16626 9.76392e-21)
(0.301402 -0.16339 -1.08759e-20)
(0.315782 -0.160695 1.59932e-21)
(0.330512 -0.158092 1.01223e-20)
(0.345535 -0.155487 1.83317e-20)
(0.36079 -0.15277 5.21344e-21)
(0.376212 -0.149809 -1.99605e-20)
(0.39171 -0.146452 2.41281e-20)
(0.407163 -0.142528 -1.22238e-20)
(0.422539 -0.137757 -1.52242e-20)
(0.437973 -0.131687 -9.65333e-21)
(0.452256 -0.124693 -1.55609e-20)
(0.274554 -0.388129 8.00187e-21)
(0.251642 -0.354717 -6.90714e-21)
(0.234192 -0.326145 2.55642e-21)
(0.221261 -0.30185 1.55976e-20)
(0.212282 -0.281189 4.50876e-21)
(0.206816 -0.263569 -4.12262e-21)
(0.204446 -0.24851 1.0189e-20)
(0.204796 -0.235609 2.11882e-21)
(0.207531 -0.224529 1.07624e-20)
(0.212353 -0.214983 6.22063e-21)
(0.218998 -0.206732 1.66584e-22)
(0.227229 -0.199572 4.32911e-21)
(0.236838 -0.193334 -1.43879e-21)
(0.247637 -0.187871 2.62534e-21)
(0.259463 -0.183062 7.67889e-21)
(0.27217 -0.178802 -4.45585e-21)
(0.28563 -0.175003 1.14506e-20)
(0.299729 -0.171588 1.21994e-20)
(0.31437 -0.168489 -1.44726e-20)
(0.329468 -0.165641 1.50532e-20)
(0.344951 -0.162983 3.37731e-20)
(0.360757 -0.160447 -2.24288e-20)
(0.37683 -0.157954 2.35154e-20)
(0.39312 -0.155405 -1.67712e-20)
(0.409575 -0.152676 -2.51122e-21)
(0.426115 -0.149613 1.94258e-20)
(0.44263 -0.146029 -3.84913e-21)
(0.459102 -0.141599 1.54908e-20)
(0.475674 -0.135784 1.59328e-20)
(0.491044 -0.128964 -3.53482e-20)
(0.284889 -0.381156 -7.83429e-21)
(0.261866 -0.349098 3.74788e-21)
(0.244645 -0.321732 1.78306e-21)
(0.232204 -0.298515 -1.85139e-20)
(0.22392 -0.278811 -1.0286e-20)
(0.219311 -0.262031 8.13056e-21)
(0.217928 -0.2477 -2.38602e-20)
(0.219366 -0.235423 3.02442e-20)
(0.223266 -0.224869 -1.77251e-20)
(0.229311 -0.215758 2.21307e-21)
(0.23722 -0.207857 -3.35859e-21)
(0.246742 -0.200971 -1.1907e-20)
(0.257657 -0.194934 2.52609e-20)
(0.269767 -0.189609 1.03086e-20)
(0.282898 -0.184879 -1.064e-20)
(0.296896 -0.180649 2.67797e-22)
(0.311624 -0.176837 6.56673e-21)
(0.326962 -0.173377 -1.49418e-20)
(0.342807 -0.170212 3.12306e-21)
(0.359069 -0.167292 1.10841e-20)
(0.375671 -0.164571 -4.67391e-21)
(0.392553 -0.162001 8.38854e-21)
(0.409661 -0.159525 -1.67483e-20)
(0.426956 -0.157067 2.50397e-20)
(0.444398 -0.154522 6.32423e-21)
(0.46193 -0.151749 -1.66416e-20)
(0.47946 -0.148556 -1.515e-20)
(0.496997 -0.144576 -3.19753e-22)
(0.514709 -0.139172 2.14591e-20)
(0.531196 -0.132703 -6.3071e-21)
(0.295097 -0.373968 -2.22029e-21)
(0.272115 -0.343357 -1.73607e-20)
(0.255269 -0.31726 2.12698e-20)
(0.243453 -0.295163 1.52601e-20)
(0.23599 -0.276442 1.62688e-20)
(0.232357 -0.260515 5.02773e-21)
(0.232072 -0.246914 7.54514e-21)
(0.2347 -0.235253 4.08381e-21)
(0.239862 -0.225208 -1.69364e-20)
(0.247221 -0.216509 3.19079e-20)
(0.256479 -0.20893 -2.75718e-20)
(0.267373 -0.202281 -2.22933e-21)
(0.279669 -0.196405 4.10424e-21)
(0.293159 -0.191168 -2.05962e-20)
(0.307662 -0.186463 1.84163e-20)
(0.323012 -0.182199 -5.62486e-21)
(0.339066 -0.178302 -1.53417e-20)
(0.355696 -0.174714 6.3611e-21)
(0.37279 -0.171387 -1.22113e-20)
(0.390251 -0.168284 -1.12694e-20)
(0.407999 -0.165377 -1.26537e-20)
(0.425967 -0.16264 2.94639e-21)
(0.444102 -0.160043 1.97551e-21)
(0.462371 -0.157545 -3.38693e-20)
(0.480747 -0.155075 -1.3573e-20)
(0.499197 -0.152526 8.51946e-21)
(0.517664 -0.149729 1.11768e-20)
(0.5362 -0.146294 -1.57232e-20)
(0.555031 -0.141475 -6.26174e-21)
(0.572664 -0.13558 1.1201e-21)
(0.305179 -0.366569 -1.64799e-21)
(0.282404 -0.337492 1.12219e-20)
(0.266084 -0.312721 -3.24885e-21)
(0.255032 -0.291781 -4.08356e-21)
(0.248518 -0.274064 -2.54674e-20)
(0.24598 -0.258997 -6.13216e-21)
(0.246902 -0.246124 1.17055e-20)
(0.250825 -0.235068 -8.23495e-21)
(0.257344 -0.225516 -1.02214e-21)
(0.266105 -0.217205 -1.69323e-21)
(0.276794 -0.209918 1.05416e-20)
(0.289135 -0.203472 -1.69988e-20)
(0.302884 -0.197716 -1.20043e-20)
(0.317823 -0.192524 1.47142e-20)
(0.333761 -0.187793 -8.79953e-21)
(0.350525 -0.183436 -1.11595e-20)
(0.367964 -0.179386 2.43705e-20)
(0.385942 -0.175588 -3.90188e-21)
(0.40434 -0.172003 1.57397e-20)
(0.423053 -0.168604 -1.45573e-20)
(0.44199 -0.165374 -1.24117e-20)
(0.461076 -0.162307 1.10719e-20)
(0.480254 -0.159404 -1.13005e-21)
(0.499487 -0.156663 -8.7994e-21)
(0.518758 -0.154067 7.98177e-21)
(0.538053 -0.151573 -2.57362e-20)
(0.557355 -0.149078 1.58004e-20)
(0.576789 -0.14622 -2.79826e-22)
(0.596692 -0.142168 -1.74332e-20)
(0.615508 -0.137133 2.84165e-20)
(0.315143 -0.35896 8.15697e-21)
(0.29275 -0.331498 -2.19472e-20)
(0.277113 -0.3081 -2.07158e-21)
(0.266965 -0.288347 1.15474e-20)
(0.261527 -0.271651 -3.18208e-21)
(0.260203 -0.25745 -9.45188e-21)
(0.262442 -0.2453 4.57152e-21)
(0.267758 -0.234836 5.63934e-21)
(0.275726 -0.225757 5.26996e-22)
(0.285973 -0.217809 7.54499e-21)
(0.298171 -0.210785 2.53772e-20)
(0.312032 -0.20451 -8.92567e-21)
(0.3273 -0.19884 2.63248e-21)
(0.343749 -0.193653 -7.03004e-21)
(0.361181 -0.188852 2.68694e-20)
(0.379418 -0.184354 -5.11145e-21)
(0.398301 -0.180094 1.74057e-20)
(0.417688 -0.176019 -7.09012e-21)
(0.437453 -0.172093 7.86487e-21)
(0.457484 -0.168291 1.23554e-20)
(0.47768 -0.164604 2.2691e-21)
(0.497955 -0.161035 8.91158e-21)
(0.518239 -0.157606 -7.65114e-21)
(0.538482 -0.154351 2.15965e-20)
(0.558662 -0.151313 -9.05281e-21)
(0.578771 -0.148541 3.41237e-20)
(0.598818 -0.146063 -9.90122e-21)
(0.619018 -0.143651 7.00465e-21)
(0.639919 -0.14046 -1.35098e-20)
(0.659992 -0.136571 2.70417e-20)
(0.325022 -0.351148 -1.76698e-20)
(0.303184 -0.325363 6.09678e-22)
(0.288377 -0.303377 -1.24767e-20)
(0.279268 -0.284836 2.37123e-21)
(0.275035 -0.269173 7.13442e-22)
(0.27504 -0.25584 -1.27062e-20)
(0.278703 -0.244405 -2.49773e-20)
(0.28551 -0.234519 1.29871e-20)
(0.295015 -0.225892 -1.8966e-20)
(0.306828 -0.218283 -1.064e-20)
(0.320606 -0.211495 -6.41131e-21)
(0.33605 -0.205361 -5.48126e-21)
(0.352894 -0.199745 2.93966e-22)
(0.370908 -0.194533 -2.05107e-20)
(0.389886 -0.189629 1.45386e-20)
(0.409645 -0.184955 -2.40842e-20)
(0.430024 -0.180447 -6.44546e-21)
(0.450878 -0.176052 7.15655e-21)
(0.472077 -0.171731 9.35026e-21)
(0.493505 -0.167454 9.7773e-21)
(0.515055 -0.163207 7.78882e-21)
(0.536634 -0.158988 -1.9924e-20)
(0.558157 -0.154818 2.0715e-20)
(0.579552 -0.150738 -2.19159e-21)