/*--------------------------------*- C++ -*----------------------------------*\
  =========                 |
  \\      /  F ield         | OpenFOAM: The Open Source CFD Toolbox
   \\    /   O peration     | Website:  https://openfoam.org
    \\  /    A nd           | Version:  6.0
     \\/     M anipulation  |
\*---------------------------------------------------------------------------*/
FoamFile
{
    version     2.0;
    format      ascii;
    class       volVectorField;
    location    "12";
    object      U;
}
// * * * * * * * * * * * * * * * * * * * * * * * * * * * * * * * * * * * * * //

dimensions      [0 1 -1 0 0 0 0];

internalField   nonuniform List<vector> 
19200
(
(0.509012 -14.5236 -3.65226e-20)
(0.182199 -13.862 1.70844e-20)
(0.193049 -13.3456 7.95296e-21)
(0.238809 -12.9254 7.07699e-21)
(0.267268 -12.5675 7.84574e-21)
(0.296503 -12.2466 4.68399e-22)
(0.327113 -11.9466 1.28432e-21)
(0.356554 -11.6579 -8.22437e-22)
(0.383997 -11.3754 9.4887e-21)
(0.409175 -11.0966 3.91868e-21)
(0.431974 -10.8206 -4.92369e-24)
(0.452421 -10.5476 6.14233e-21)
(0.47065 -10.2783 1.00728e-20)
(0.486852 -10.0137 -6.81975e-21)
(0.501243 -9.75444 8.62203e-21)
(0.514041 -9.50142 7.3869e-21)
(0.525456 -9.25523 -6.94306e-21)
(0.535684 -9.01631 1.17589e-20)
(0.544899 -8.78499 -7.48448e-21)
(0.553256 -8.56142 3.71258e-21)
(0.560893 -8.34565 5.18886e-21)
(0.567929 -8.13761 -1.69212e-21)
(0.574472 -7.93712 2.27198e-21)
(0.580618 -7.74389 -2.63234e-21)
(0.586452 -7.55752 5.70435e-21)
(0.592043 -7.37749 1.35665e-21)
(0.597438 -7.20315 -9.13584e-22)
(0.602724 -7.03378 5.40159e-22)
(0.608041 -6.86851 1.28224e-21)
(0.612862 -6.7064 4.70799e-21)
(0.888587 -14.5095 -8.23055e-21)
(0.546439 -13.8676 5.2343e-20)
(0.544316 -13.3595 -2.76832e-20)
(0.579258 -12.9442 -3.77393e-20)
(0.598461 -12.5895 -1.70093e-20)
(0.619304 -12.2702 -1.20733e-20)
(0.641957 -11.9706 -2.44107e-20)
(0.663649 -11.6814 3.31338e-21)
(0.683437 -11.3978 -5.32776e-21)
(0.701011 -11.1175 -1.89199e-20)
(0.716254 -10.8398 -4.69006e-20)
(0.729215 -10.5652 2.26688e-20)
(0.740057 -10.2943 -8.47423e-21)
(0.749004 -10.0281 3.19318e-21)
(0.756298 -9.76744 -1.91475e-20)
(0.762184 -9.51317 -6.97892e-21)
(0.76689 -9.26588 7.99904e-22)
(0.770623 -9.02602 2.3456e-20)
(0.773563 -8.79388 -1.23464e-20)
(0.77587 -8.56963 -6.80893e-21)
(0.77768 -8.35329 -2.64867e-20)
(0.779109 -8.1448 6.78119e-21)
(0.780257 -7.94395 -4.21848e-21)
(0.781213 -7.75047 7.44702e-21)
(0.782052 -7.56393 -9.30721e-21)
(0.782827 -7.38382 -5.32736e-21)
(0.783567 -7.20948 1.73989e-21)
(0.78436 -7.04014 2.68125e-21)
(0.785398 -6.87488 -4.73587e-21)
(0.785964 -6.71275 2.15044e-21)
(1.26842 -14.4864 -3.87455e-21)
(0.910848 -13.864 1.04982e-20)
(0.8962 -13.3643 1.68327e-20)
(0.920682 -12.954 1.30805e-19)
(0.930828 -12.6028 -7.53712e-20)
(0.943378 -12.2853 6.84216e-20)
(0.958104 -11.9861 -6.11441e-20)
(0.972024 -11.6965 3.25928e-20)
(0.9841 -11.4119 -3.05933e-20)
(0.993992 -11.1303 -3.11796e-21)
(1.00159 -10.8512 7.61952e-20)
(1.00698 -10.5751 1.26082e-20)
(1.01035 -10.3027 -3.48974e-20)
(1.01196 -10.0352 2.72049e-20)
(1.01208 -9.7734 5.92995e-24)
(1.01099 -9.51808 1.14503e-20)
(1.00893 -9.26989 8.13465e-21)
(1.00612 -9.02926 2.73421e-20)
(1.00274 -8.7965 -1.20145e-20)
(0.998967 -8.57174 -3.92487e-21)
(0.994921 -8.355 -1.02778e-20)
(0.99072 -8.14621 4.55114e-20)
(0.986456 -7.94517 -3.79167e-20)
(0.98221 -7.75158 1.22327e-20)
(0.978045 -7.56502 2.81282e-20)
(0.974 -7.38498 -2.28416e-20)
(0.970084 -7.21078 3.03546e-20)
(0.966389 -7.04161 -3.24984e-21)
(0.963151 -6.87653 -3.40403e-21)
(0.959435 -6.71453 -2.17413e-20)
(1.64734 -14.4538 -1.30837e-19)
(1.27501 -13.851 -1.12438e-19)
(1.24838 -13.3599 -1.37099e-19)
(1.26279 -12.9548 3.91519e-21)
(1.26411 -12.6072 8.34287e-21)
(1.26848 -12.2916 -1.52187e-19)
(1.27531 -11.9931 -7.49933e-20)
(1.28143 -11.7033 1.95777e-20)
(1.28574 -11.4179 -3.38144e-21)
(1.28788 -11.1352 3.2965e-20)
(1.28775 -10.8548 -1.29517e-19)
(1.28548 -10.5773 -7.99498e-20)
(1.2813 -10.3038 2.97337e-20)
(1.2755 -10.0351 5.84651e-20)
(1.26839 -9.77231 -6.75997e-20)
(1.26026 -9.51615 -1.05109e-20)
(1.25139 -9.26725 -3.95821e-20)
(1.24199 -9.02606 -1.85055e-20)
(1.23226 -8.79285 3.09974e-20)
(1.22237 -8.56776 -3.94694e-20)
(1.21245 -8.3508 3.42496e-20)
(1.2026 -8.14187 -4.04461e-20)
(1.19291 -7.94078 -3.16161e-20)
(1.18346 -7.74723 -2.26269e-20)
(1.17428 -7.56081 2.61234e-20)
(1.16542 -7.38097 -4.61883e-20)
(1.15685 -7.20705 4.79503e-21)
(1.14868 -7.03821 8.21525e-21)
(1.14118 -6.87344 -2.37726e-20)
(1.13316 -6.71174 4.71986e-21)
(2.02543 -14.4115 -7.72101e-20)
(1.63902 -13.8289 1.08241e-20)
(1.60078 -13.3465 9.46436e-20)
(1.60542 -12.9467 9.83497e-20)
(1.5981 -12.6029 7.05656e-20)
(1.59438 -12.2893 2.90831e-20)
(1.59333 -11.9915 1.76976e-20)
(1.59164 -11.7016 2.02126e-19)
(1.58813 -11.4156 -1.20686e-19)
(1.58244 -11.1319 3.47535e-21)
(1.57451 -10.8505 2.87226e-20)
(1.5645 -10.5719 1.22398e-19)
(1.55269 -10.2973 -8.26651e-20)
(1.53941 -10.0277 5.89914e-20)
(1.52501 -9.76414 -6.50058e-20)
(1.5098 -9.50733 1.11075e-19)
(1.49406 -9.25793 -3.25362e-20)
(1.47805 -9.01637 1.21006e-21)
(1.46194 -8.78291 5.18026e-20)
(1.44592 -8.55766 3.61368e-20)
(1.4301 -8.34064 -3.67182e-20)
(1.41459 -8.13174 4.93488e-20)
(1.39947 -7.93077 -2.23063e-20)
(1.3848 -7.73741 2.57303e-20)
(1.37062 -7.55125 2.84198e-20)
(1.35694 -7.37177 1.23985e-20)
(1.34374 -7.19826 3.76764e-20)
(1.3311 -7.02989 -1.36076e-20)
(1.31935 -6.86559 -4.48289e-21)
(1.30702 -6.70437 -2.01736e-20)
(2.40243 -14.3596 -5.58877e-20)
(2.00266 -13.7974 -3.50375e-20)
(1.95322 -13.3239 -1.06485e-19)
(1.94835 -12.9297 -2.7629e-19)
(1.93257 -12.5896 9.23401e-20)
(1.92085 -12.2782 5.96466e-21)
(1.91195 -11.9814 1.34175e-21)
(1.90242 -11.6915 1.18677e-20)
(1.89103 -11.405 -8.9176e-21)
(1.87745 -11.1205 -1.54118e-19)
(1.86164 -10.8382 6.444e-20)
(1.84382 -10.5587 1.09902e-19)
(1.82431 -10.2833 2.76288e-22)
(1.8035 -10.013 4.0051e-20)
(1.78174 -9.74886 9.84216e-20)
(1.7594 -9.49162 -6.75161e-20)
(1.73677 -9.24192 1.17795e-19)
(1.7141 -9.00018 -5.60359e-20)
(1.6916 -8.76665 9.85123e-20)
(1.66942 -8.54144 -7.37879e-20)
(1.64769 -8.32453 3.26253e-20)
(1.62652 -8.11583 8.50812e-20)
(1.60596 -7.91511 4.65538e-21)
(1.58608 -7.72209 -7.84063e-20)
(1.56691 -7.53636 4.29154e-20)
(1.54843 -7.35736 1.29985e-20)
(1.5306 -7.18442 -1.39348e-20)
(1.51352 -7.01666 5.27484e-20)
(1.49754 -6.85297 1.84602e-20)
(1.4809 -6.69239 -1.71732e-20)
(2.77811 -14.298 1.57228e-19)
(2.36575 -13.7565 -2.72609e-21)
(2.30549 -13.2922 -2.15336e-19)
(2.29136 -12.9036 4.40474e-20)
(2.2673 -12.5675 -6.03365e-20)
(2.24765 -12.2584 4.43353e-20)
(2.23091 -11.9625 -2.07705e-20)
(2.21351 -11.6729 1.72858e-19)
(2.1942 -11.3861 -1.85497e-19)
(2.17266 -11.101 4.53302e-20)
(2.14891 -10.8179 -3.12629e-20)
(2.12321 -10.5378 2.27147e-20)
(2.09594 -10.2618 -1.00899e-19)
(2.06753 -9.99098 -6.50847e-21)
(2.03838 -9.72645 1.59642e-19)
(2.00887 -9.46899 -1.09804e-19)
(1.97932 -9.2192 -6.90349e-20)
(1.94997 -8.97748 -4.97316e-20)
(1.92105 -8.74408 8.99868e-20)
(1.89271 -8.51908 1.92017e-20)
(1.86507 -8.30246 -8.78113e-20)
(1.83823 -8.09411 1.16225e-19)
(1.81224 -7.89381 -1.04775e-19)
(1.78715 -7.70128 6.88105e-20)
(1.76299 -7.5161 -3.90761e-20)
(1.73972 -7.33774 1.16297e-20)
(1.71729 -7.1655 1.86845e-20)
(1.6958 -6.9985 -8.38896e-20)
(1.67562 -6.83557 3.58523e-20)
(1.65468 -6.67579 5.12542e-22)
(3.15222 -14.2267 -1.53534e-19)
(2.72806 -13.7063 1.18811e-19)
(2.65738 -13.2513 -2.19677e-19)
(2.63425 -12.8685 4.1765e-19)
(2.60205 -12.5365 -1.16318e-19)
(2.57455 -12.2297 1.63943e-19)
(2.54999 -11.935 1.27543e-19)
(2.52469 -11.6457 -2.30028e-20)
(2.49741 -11.3587 -3.22499e-20)
(2.46784 -11.0732 -1.44053e-22)
(2.43608 -10.7897 -1.23104e-19)
(2.40244 -10.5091 6.42671e-20)
(2.36735 -10.2326 -7.64006e-20)
(2.3313 -9.96158 -6.10457e-21)
(2.29472 -9.69691 -2.11694e-19)
(2.25801 -9.43943 6.92688e-20)
(2.2215 -9.18976 3.94674e-20)
(2.18547 -8.94827 -4.48501e-20)
(2.15012 -8.71518 -5.28823e-21)
(2.11561 -8.49057 -6.78512e-20)
(2.08205 -8.27442 -2.41207e-20)
(2.04954 -8.06658 2.01995e-21)
(2.01813 -7.86687 -5.84696e-20)
(1.98785 -7.67497 -8.64671e-20)
(1.95871 -7.49049 3.75193e-21)
(1.93068 -7.3129 1.20234e-20)
(1.90366 -7.14151 2.69341e-20)
(1.8778 -6.97541 -6.62187e-20)
(1.85345 -6.81337 5.6187e-20)
(1.82822 -6.65459 -1.01063e-19)
(3.52453 -14.1457 -3.77948e-19)
(3.08936 -13.6467 4.34854e-19)
(3.00867 -13.2012 -4.57357e-19)
(2.97678 -12.8243 -1.23147e-19)
(2.9366 -12.4964 -7.7794e-20)
(2.90132 -12.1922 -8.46416e-20)
(2.86894 -11.8987 -1.93571e-19)
(2.83572 -11.6099 -1.66708e-20)
(2.80041 -11.323 -7.72636e-20)
(2.76276 -11.0373 -1.55084e-20)
(2.72292 -10.7534 1.27206e-19)
(2.68128 -10.4726 -7.26632e-20)
(2.63832 -10.1959 -8.47278e-20)
(2.59458 -9.92481 -1.4192e-19)
(2.55054 -9.66022 2.97259e-19)
(2.5066 -9.40295 -1.13406e-19)
(2.46313 -9.1536 4.2203e-20)
(2.42039 -8.91254 -1.56589e-19)
(2.37861 -8.67996 6.03128e-20)
(2.33793 -8.45593 -2.43578e-20)
(2.29847 -8.24041 3.0922e-20)
(2.2603 -8.03326 -1.03244e-20)
(2.22348 -7.83428 9.54848e-20)
(2.18802 -7.64317 -3.36557e-20)
(2.15392 -7.45953 9.30862e-20)
(2.12115 -7.28285 -1.89114e-19)
(2.08958 -7.11244 1.2032e-19)
(2.05937 -6.94738 3.29111e-20)
(2.03091 -6.78639 6.13542e-20)
(2.00141 -6.62877 -1.77615e-19)
(3.89478 -14.0551 5.96408e-19)
(3.44942 -13.5777 -1.10136e-19)
(3.35912 -13.1419 1.9687e-19)
(3.31871 -12.771 -5.51242e-20)
(3.27069 -12.4474 1.93527e-19)
(3.2277 -12.1458 1.81729e-19)
(3.18751 -11.8537 8.5158e-20)
(3.14634 -11.5655 -3.10632e-20)
(3.10295 -11.2788 -1.9358e-19)
(3.05717 -10.9931 2.82712e-19)
(3.0092 -10.7091 -2.11672e-20)
(2.9595 -10.4282 1.96298e-19)
(2.90864 -10.1516 7.081e-20)
(2.85717 -9.88068 2.60182e-20)
(2.80563 -9.61638 4.00896e-20)
(2.75445 -9.35954 5.61101e-20)
(2.704 -9.11073 9.24794e-20)
(2.65456 -8.87029 -2.63961e-20)
(2.60635 -8.63842 1.35079e-19)
(2.55951 -8.41516 6.16883e-20)
(2.51415 -8.20045 -1.28265e-19)
(2.47033 -7.99415 2.26784e-19)
(2.42811 -7.79606 -2.98214e-19)
(2.38749 -7.60588 2.80669e-19)
(2.34847 -7.42322 -9.26358e-20)
(2.31097 -7.24759 -3.79693e-20)
(2.27489 -7.07831 -9.55542e-21)
(2.24038 -6.91442 6.76557e-20)
(2.20784 -6.75463 2.40258e-20)
(2.1741 -6.59833 -2.71357e-20)
(4.26271 -13.9549 -3.38282e-19)
(3.80797 -13.4993 3.14212e-19)
(3.70849 -13.0733 -8.50359e-20)
(3.65981 -12.7086 2.42955e-19)
(3.6041 -12.3893 2.41413e-20)
(3.55346 -12.0904 5.06663e-20)
(3.50547 -11.7999 -4.10403e-19)
(3.45631 -11.5125 1.90638e-19)
(3.4048 -11.2261 2.60054e-19)
(3.35083 -10.9406 1.95077e-19)
(3.29467 -10.6568 -3.31269e-19)
(3.23687 -10.376 1.91727e-19)
(3.17806 -10.0997 -1.90503e-19)
(3.11884 -9.82918 1.29755e-19)
(3.05979 -9.5654 -2.17053e-19)
(3.00135 -9.30921 -1.59783e-19)
(2.94392 -9.06114 1.01549e-20)
(2.88778 -8.82155 -7.2241e-20)
(2.83314 -8.59058 1.28531e-19)
(2.78015 -8.36827 5.10995e-20)
(2.7289 -8.15455 -3.33974e-20)
(2.67947 -7.94927 -9.55435e-21)
(2.63186 -7.75222 3.88965e-20)
(2.58611 -7.56311 -1.3018e-19)
(2.54218 -7.38158 2.14522e-19)
(2.5 -7.20713 -5.24176e-20)
(2.45944 -7.03911 -8.87676e-20)
(2.42067 -6.87654 1.84985e-19)
(2.38411 -6.71808 2.44656e-20)
(2.34619 -6.5633 -2.44002e-20)
(4.62809 -13.8451 1.42041e-20)
(4.16479 -13.4115 -1.76044e-19)
(4.05653 -12.9955 -1.59632e-19)
(3.99983 -12.637 -2.64013e-19)
(3.93657 -12.3222 9.56087e-21)
(3.87834 -12.0261 -1.86569e-19)
(3.82255 -11.7372 2.20292e-19)
(3.76539 -11.4508 -1.08426e-19)
(3.70571 -11.165 1.73899e-19)
(3.64349 -10.8799 -1.44472e-19)
(3.57911 -10.5964 -7.3164e-20)
(3.51317 -10.316 3.98541e-20)
(3.44637 -10.0403 2.14422e-20)
(3.37938 -9.77032 -2.15824e-19)
(3.31279 -9.50729 1.26549e-19)
(3.2471 -9.25197 -6.18646e-20)
(3.18269 -9.00487 1.75903e-19)
(3.11985 -8.76632 -5.75804e-20)
(3.0588 -8.53645 5.96893e-20)
(2.99968 -8.31528 1.48266e-20)
(2.94257 -8.10273 1.00984e-19)
(2.88753 -7.89863 -2.06008e-20)
(2.83457 -7.70278 1.6474e-19)
(2.78371 -7.5149 -1.83206e-19)
(2.7349 -7.33463 -6.1826e-20)
(2.68807 -7.1615 5.02261e-20)
(2.64308 -6.99487 -5.32739e-21)
(2.60011 -6.83375 -1.36873e-19)
(2.55958 -6.67678 6.98491e-20)
(2.51751 -6.52368 -7.62658e-20)
(4.99065 -13.7258 5.68124e-19)
(4.51962 -13.3144 1.44963e-19)
(4.403 -12.9085 1.74208e-19)
(4.33852 -12.5563 2.32046e-19)
(4.26785 -12.246 3.47352e-19)
(4.20208 -11.9528 -1.08811e-20)
(4.1385 -11.6658 5.04727e-20)
(4.07331 -11.3805 5.76582e-19)
(4.00543 -11.0954 1.65073e-19)
(3.93493 -10.8109 -1.38305e-19)
(3.86227 -10.528 2.41106e-19)
(3.78815 -10.2482 4.00408e-20)
(3.71335 -9.97319 1.87936e-21)
(3.63856 -9.70412 5.6936e-20)
(3.56444 -9.44208 1.00365e-19)
(3.49149 -9.18784 -2.05099e-19)
(3.4201 -8.94193 1.73995e-19)
(3.35059 -8.70463 2.8879e-20)
(3.28315 -8.47606 1.67692e-19)
(3.21791 -8.25621 -9.11008e-20)
(3.15496 -8.045 1.48699e-19)
(3.09434 -7.84225 -1.57811e-19)
(3.03606 -7.64776 1.5168e-19)
(2.98012 -7.46125 2.08012e-20)
(2.92647 -7.28238 -1.01362e-19)
(2.87503 -7.1107 -3.26824e-20)
(2.82565 -6.9456 1.91548e-19)
(2.77853 -6.78608 -2.89875e-20)
(2.7341 -6.63072 3.67041e-20)
(2.68795 -6.47949 -2.32849e-20)
(5.35016 -13.5971 5.66348e-20)
(4.87221 -13.2079 1.25049e-19)
(4.74764 -12.8122 5.08793e-19)
(4.67563 -12.4664 -8.26578e-19)
(4.59769 -12.1608 -8.07508e-20)
(4.52445 -11.8706 -8.82563e-20)
(4.45308 -11.5855 3.89242e-20)
(4.37983 -11.3015 5.03623e-20)
(4.30371 -11.0174 1.27159e-19)
(4.22488 -10.7336 -2.25369e-19)
(4.14391 -10.4515 -4.26599e-20)
(4.06159 -10.1727 1.2367e-19)
(3.97876 -9.89858 1.31965e-19)
(3.89617 -9.6306 -1.32159e-19)
(3.81451 -9.36977 -1.29061e-19)
(3.73431 -9.11685 2.09468e-19)
(3.65597 -8.87234 1.35094e-19)
(3.57979 -8.63649 -3.54969e-20)
(3.50598 -8.40942 -8.58696e-20)
(3.43467 -8.1911 1.50667e-20)
(3.36591 -7.9814 -1.95288e-19)
(3.29974 -7.78017 2.33978e-19)
(3.23617 -7.58719 -1.59431e-19)
(3.17517 -7.40219 -6.48158e-21)
(3.11672 -7.22487 1.03786e-19)
(3.06071 -7.05478 -3.22997e-20)
(3.00699 -6.89133 -9.68948e-20)
(2.95577 -6.73353 1.51059e-20)
(2.90751 -6.57994 -4.08834e-21)
(2.85735 -6.43075 1.80496e-20)
(5.70635 -13.459 -4.32769e-20)
(5.22232 -13.0921 -1.32108e-19)
(5.09022 -12.7067 -5.84847e-19)
(5.01091 -12.3674 2.09673e-19)
(4.92584 -12.0665 -6.27468e-20)
(4.84518 -11.7795 2.05417e-19)
(4.76603 -11.4964 1.47936e-20)
(4.6847 -11.2138 -2.32402e-19)
(4.6003 -10.9309 1.85515e-20)
(4.51311 -10.6482 -3.12759e-19)
(4.4238 -10.3671 -1.17364e-20)
(4.33326 -10.0893 7.42334e-20)
(4.24238 -9.81643 -1.27958e-19)
(4.15199 -9.54979 1.43703e-19)
(4.0628 -9.2904 -2.73785e-19)
(3.97536 -9.03903 -6.09502e-20)
(3.89008 -8.79613 1.63529e-19)
(3.80727 -8.56195 -1.64033e-22)
(3.72713 -8.33658 -1.01649e-19)
(3.64975 -8.11996 2.7511e-19)
(3.57522 -7.91196 -1.47238e-19)
(3.50354 -7.71241 -1.95917e-19)
(3.43471 -7.5211 6.49159e-20)
(3.3687 -7.33777 -1.87723e-19)
(3.30549 -7.16212 -4.47347e-20)
(3.24495 -6.99375 -5.5298e-21)
(3.18693 -6.83209 -1.19935e-19)
(3.13169 -6.67615 1.43514e-19)
(3.07967 -6.52446 -5.06931e-20)
(3.02558 -6.37749 8.17284e-20)
(6.05899 -13.3116 -1.99686e-19)
(5.56969 -12.967 -5.2504e-19)
(5.43048 -12.592 2.5114e-19)
(5.34411 -12.2593 -2.36616e-19)
(5.25203 -11.9631 -1.74266e-19)
(5.16401 -11.6794 -9.92965e-20)
(5.07708 -11.3985 -3.6185e-19)
(4.98766 -11.1176 2.44169e-19)
(4.89495 -10.836 -4.32596e-19)
(4.79937 -10.5545 -5.9749e-19)
(4.7017 -10.2746 7.78484e-20)
(4.60291 -9.99822 1.2692e-19)
(4.50398 -9.72679 -2.55455e-21)
(4.4058 -9.46171 -2.38551e-19)
(4.30909 -9.20401 5.53257e-20)
(4.21443 -8.9544 -2.12344e-19)
(4.12225 -8.71334 -1.51522e-19)
(4.03283 -8.48104 -8.99876e-20)
(3.94638 -8.25756 -1.74112e-20)
(3.86299 -8.04283 1.52819e-19)
(3.78272 -7.83671 2.16677e-19)
(3.70556 -7.63902 -6.45757e-20)
(3.63151 -7.44953 -6.12604e-20)
(3.56054 -7.26801 1.19089e-19)
(3.4926 -7.09417 6.58755e-20)
(3.42758 -6.92765 -5.20094e-20)
(3.36532 -6.76791 -5.73736e-20)
(3.30611 -6.61396 6.61109e-21)
(3.25041 -6.46431 5.08716e-20)
(3.19247 -6.31975 -7.28656e-20)
(6.40783 -13.155 -3.79788e-20)
(5.91408 -12.8328 6.59073e-19)
(5.76818 -12.4681 5.02803e-19)
(5.67498 -12.142 3.88063e-19)
(5.57602 -11.8508 -2.50289e-19)
(5.48069 -11.5703 -4.98541e-20)
(5.38599 -11.2918 4.60449e-20)
(5.28845 -11.0127 3.07956e-19)
(5.18742 -10.7326 1.14812e-19)
(5.08341 -10.4526 1.73131e-19)
(4.97736 -10.1743 -3.78925e-19)
(4.87032 -9.89942 3.91504e-20)
(4.76335 -9.62969 1.51661e-19)
(4.65737 -9.36642 9.12256e-20)
(4.55317 -9.11063 1.88586e-19)
(4.45132 -8.86301 -1.28658e-19)
(4.35226 -8.624 -1.17992e-19)
(4.25628 -8.39379 2.31246e-20)
(4.16356 -8.1724 2.48073e-19)
(4.0742 -7.95976 -3.98466e-19)
(3.98823 -7.7557 1.38383e-19)
(3.90564 -7.56002 -9.10074e-22)
(3.82641 -7.37252 2.56727e-19)
(3.7505 -7.19295 -1.11093e-19)
(3.67788 -7.02106 -6.07896e-21)
(3.60842 -6.85652 -6.92228e-20)
(3.54197 -6.69883 -6.08669e-20)
(3.47886 -6.547 1.28189e-20)
(3.41955 -6.39953 -1.4765e-19)
(3.35788 -6.25756 2.1477e-19)
(6.75262 -12.9892 -7.28691e-19)
(6.25524 -12.6894 -3.99672e-19)
(6.10307 -12.3352 -1.01188e-18)
(6.00326 -12.0158 -4.52636e-19)
(5.89756 -11.7294 4.18831e-19)
(5.79495 -11.4524 -2.4318e-19)
(5.6925 -11.1764 -5.60915e-20)
(5.58683 -10.8993 -1.56999e-19)
(5.47744 -10.621 2.63281e-19)
(5.365 -10.3426 -2.41335e-19)
(5.25056 -10.066 2.91778e-20)
(5.13526 -9.79297 -1.16305e-20)
(5.02025 -9.52517 -3.68016e-19)
(4.90651 -9.26395 -1.36609e-20)
(4.79483 -9.0103 9.73801e-20)
(4.68582 -8.76491 -1.03263e-20)
(4.57992 -8.52816 -3.66295e-19)
(4.47742 -8.30024 3.54133e-19)
(4.37848 -8.08115 -3.44609e-19)
(4.28319 -7.87078 1.33692e-19)
(4.19156 -7.66896 1.87025e-20)
(4.10358 -7.47547 7.6207e-21)
(4.01921 -7.2901 -1.37867e-19)
(3.93842 -7.11264 1.37466e-19)
(3.86115 -6.94284 -5.8461e-20)
(3.7873 -6.7804 6.30503e-20)
(3.71671 -6.62489 -3.3475e-19)
(3.64977 -6.47531 9.10187e-20)
(3.58694 -6.33016 9.69195e-20)
(3.52163 -6.19097 9.51822e-20)
(7.09312 -12.8145 1.41321e-18)
(6.59294 -12.5369 4.55273e-19)
(6.43491 -12.1932 2.62054e-19)
(6.32872 -11.8804 4.12997e-19)
(6.21637 -11.599 -5.13834e-20)
(6.10655 -11.3256 3.01523e-19)
(5.99634 -11.0522 6.62877e-19)
(5.88253 -10.7773 -8.51865e-20)
(5.76478 -10.5009 3.56402e-20)
(5.64389 -10.2245 7.50624e-19)
(5.52105 -9.94987 6.96321e-19)
(5.3975 -9.6789 1.00911e-19)
(5.27447 -9.41328 -3.62424e-20)
(5.15298 -9.15435 -2.18141e-21)
(5.03386 -8.90308 5.13e-19)
(4.91773 -8.66013 1.9812e-20)
(4.80504 -8.42587 5.35062e-19)
(4.69605 -8.20045 -6.8525e-20)
(4.59094 -7.98385 -1.13558e-19)
(4.48976 -7.77594 2.63467e-19)
(4.39253 -7.57653 -2.39259e-19)
(4.2992 -7.3854 -2.56649e-19)
(4.20974 -7.20234 -2.29959e-20)
(4.1241 -7.02712 -1.12044e-19)
(4.04223 -6.85954 1.6912e-19)
(3.96403 -6.69934 1.96897e-20)
(3.88936 -6.54613 -6.88055e-20)
(3.81865 -6.39893 3.77623e-20)
(3.75238 -6.25623 2.4578e-19)
(3.68355 -6.12001 3.37953e-20)
(7.42909 -12.6308 -2.43109e-19)
(6.92694 -12.3755 -4.56359e-19)
(6.76347 -12.0422 1.83152e-19)
(6.65111 -11.7361 -7.34322e-19)
(6.53222 -11.4598 3.42822e-19)
(6.41523 -11.19 -6.21171e-19)
(6.29727 -10.9194 -4.00915e-19)
(6.17531 -10.6468 1.10408e-19)
(6.04918 -10.3727 1.04664e-19)
(5.91984 -10.0984 -5.18939e-19)
(5.7886 -9.82594 7.81923e-20)
(5.65682 -9.55728 8.37094e-20)
(5.52578 -9.29408 -2.73905e-19)
(5.39658 -9.03767 -1.07469e-19)
(5.27006 -8.78901 -7.14191e-20)
(5.14685 -8.54873 -7.13855e-20)
(5.02741 -8.31717 -2.93301e-19)
(4.912 -8.09445 -1.81676e-19)
(4.80076 -7.88054 -3.85808e-20)
(4.69375 -7.67527 1.46602e-19)
(4.59096 -7.47846 1.96296e-19)
(4.49233 -7.28986 -2.1217e-19)
(4.39782 -7.10925 7.84253e-20)
(4.30737 -6.93644 -1.62062e-19)
(4.22094 -6.77122 1.5019e-19)
(4.13843 -6.61338 -1.97701e-19)
(4.05972 -6.46259 6.05719e-20)
(3.98529 -6.3179 -9.62507e-20)
(3.91567 -6.1778 -1.34477e-19)
(3.84345 -6.04474 -1.24843e-20)
(7.76031 -12.4382 -5.06011e-19)
(7.25701 -12.2052 -4.06661e-19)
(7.0885 -11.8823 -3.94351e-19)
(6.97017 -11.5829 -2.84114e-19)
(6.84486 -11.3116 8.7021e-19)
(6.72073 -11.0456 1.18521e-19)
(6.59504 -10.778 3.61124e-19)
(6.46492 -10.5079 5.43919e-19)
(6.33041 -10.2362 2.57127e-19)
(6.19261 -9.96425 -3.40091e-19)
(6.05298 -9.69426 5.34327e-19)
(5.91298 -9.42816 1.55541e-19)
(5.77398 -9.16763 4.79895e-19)
(5.63709 -8.91399 5.41724e-20)
(5.50322 -8.66816 1.19237e-19)
(5.37299 -8.43077 3.84444e-20)
(5.24685 -8.20212 -2.33652e-21)
(5.12506 -7.9823 -1.40832e-20)
(5.00776 -7.77126 6.14752e-20)
(4.89496 -7.56883 2.06781e-19)
(4.78666 -7.37479 -2.2911e-19)
(4.68278 -7.18888 1.80038e-19)
(4.58326 -7.0109 5.87496e-21)
(4.48805 -6.84063 7.99646e-20)
(4.39709 -6.67791 1.44771e-19)
(4.3103 -6.52257 -2.51319e-20)
(4.22759 -6.37433 1.41703e-19)
(4.1495 -6.23226 2.02264e-19)
(4.0766 -6.09491 -2.1935e-19)
(4.00111 -5.9652 -1.18263e-19)
(8.08656 -12.237 1.46965e-18)
(7.58294 -12.026 -1.48553e-19)
(7.40979 -11.7136 3.03145e-19)
(7.28567 -11.4209 5.50615e-19)
(7.15402 -11.1546 -1.5539e-18)
(7.0228 -10.8925 1.63669e-19)
(6.88938 -10.628 -5.73762e-19)
(6.75111 -10.3607 5.58496e-19)
(6.60821 -10.0915 -4.40888e-19)
(6.46196 -9.82221 2.31983e-19)
(6.31395 -9.55492 -8.40961e-19)
(6.16577 -9.29162 3.30445e-20)
(6.01883 -9.034 -8.97092e-19)
(5.87432 -8.78335 4.01998e-19)
(5.73314 -8.54059 2.06004e-19)
(5.59595 -8.3063 3.09426e-19)
(5.46317 -8.08076 -3.35626e-19)
(5.33506 -7.86405 -2.59193e-20)
(5.21174 -7.65608 2.55169e-20)
(5.09322 -7.45666 7.16529e-20)
(4.97945 -7.26556 -4.01996e-19)
(4.87037 -7.08252 -1.17755e-20)
(4.76588 -6.90731 -2.20808e-19)
(4.66593 -6.73975 -5.18187e-20)
(4.57048 -6.57967 -1.33273e-19)
(4.47945 -6.42695 -1.44051e-19)
(4.39277 -6.28137 -1.48009e-19)
(4.31106 -6.14206 2.445e-19)
(4.23495 -6.00759 6.47771e-20)
(4.15631 -5.88143 -1.12916e-19)
(8.40764 -12.0272 -9.77856e-19)
(7.90452 -11.8382 3.30527e-19)
(7.72711 -11.5361 -5.55372e-19)
(7.59737 -11.25 8.34074e-20)
(7.45946 -10.9889 8.76933e-19)
(7.32119 -10.7307 -4.40062e-19)
(7.18004 -10.4695 -4.48645e-19)
(7.03362 -10.2051 -3.81355e-19)
(6.88234 -9.93875 1.96192e-20)
(6.72766 -9.67232 2.39145e-19)
(6.5713 -9.40797 -1.70665e-19)
(6.41497 -9.14772 9.61768e-21)
(6.26015 -8.89325 3.72546e-19)
(6.10806 -8.64584 2.31247e-19)
(5.95964 -8.40637 6.45707e-20)
(5.81554 -8.17539 -2.01817e-19)
(5.67618 -7.95317 7.60708e-20)
(5.54182 -7.73975 1.65193e-19)
(5.41254 -7.53503 1.8113e-19)
(5.28834 -7.33879 -1.9825e-19)
(5.16916 -7.1508 3.06057e-20)
(5.05491 -6.97079 1.66466e-19)
(4.94549 -6.79853 2.8647e-19)
(4.84084 -6.63381 7.32389e-20)
(4.74092 -6.47652 -2.89958e-19)
(4.64566 -6.32655 3.34603e-19)
(4.55503 -6.18378 -1.66884e-19)
(4.46973 -6.04734 -1.96946e-19)
(4.39047 -5.91588 -1.20263e-19)
(4.30884 -5.79346 -1.44388e-19)
(8.72337 -11.809 5.12164e-19)
(8.22158 -11.6418 -3.77542e-19)
(8.04025 -11.3499 1.45187e-19)
(7.90504 -11.0703 7.39617e-19)
(7.76094 -10.8144 1.96784e-19)
(7.61563 -10.5603 -1.67283e-19)
(7.46678 -10.3025 3.99805e-19)
(7.31222 -10.0413 9.49179e-20)
(7.15256 -9.77802 3.62852e-19)
(6.98947 -9.51468 1.97675e-19)
(6.8248 -9.25351 7.8785e-21)
(6.66036 -8.99655 1.20922e-19)
(6.49771 -8.74547 -3.81696e-20)
(6.33811 -8.50152 -3.32181e-19)
(6.18251 -8.26556 -4.8539e-20)
(6.03157 -8.03811 -9.67865e-20)
(5.88571 -7.8194 2.35098e-19)
(5.74516 -7.60945 2.36839e-19)
(5.60998 -7.40815 -2.68198e-19)
(5.48016 -7.21528 2.7289e-19)
(5.35562 -7.03056 5.7367e-19)
(5.23624 -6.85373 -3.6805e-19)
(5.12192 -6.68456 3.65482e-19)
(5.01258 -6.52285 -2.55892e-19)
(4.9082 -6.36848 -3.54256e-20)
(4.80871 -6.22142 2.68267e-19)
(4.71414 -6.08157 -5.46458e-20)
(4.62527 -5.94813 1.98664e-19)
(4.54289 -5.81984 1.95574e-19)
(4.4584 -5.7014 -3.46592e-19)
(9.03362 -11.5825 -4.93681e-19)
(8.53395 -11.437 2.13372e-19)
(8.349 -11.155 8.71623e-20)
(8.20843 -10.882 -8.57946e-19)
(8.0582 -10.6313 -4.36846e-19)
(7.90589 -10.3814 3.21772e-19)
(7.74935 -10.1272 -8.81629e-19)
(7.58665 -9.86936 1.04737e-18)
(7.41864 -9.60937 -5.82592e-19)
(7.24716 -9.34937 6.90145e-20)
(7.07422 -9.09164 -1.09854e-19)
(6.90173 -8.83821 -3.17924e-19)
(6.73131 -8.59076 6.48543e-19)
(6.56428 -8.35049 2.40471e-19)
(6.40158 -8.11825 3.08128e-19)
(6.24388 -7.89452 6.02031e-21)
(6.0916 -7.67951 1.34002e-19)
(5.94492 -7.47322 -2.90365e-19)
(5.80391 -7.27551 6.04896e-20)
(5.66853 -7.08614 1.95547e-19)
(5.53866 -6.90485 -8.28203e-20)
(5.41418 -6.73135 1.32611e-19)
(5.29498 -6.56542 -2.60923e-19)
(5.18096 -6.40685 3.71881e-19)
(5.0721 -6.25556 8.47834e-20)
(4.96836 -6.11152 -2.33013e-19)
(4.86981 -5.97473 -1.99112e-19)
(4.77732 -5.84443 9.4972e-22)
(4.69181 -5.71948 2.70526e-19)
(4.60451 -5.60534 -5.80022e-20)
(9.33828 -11.3477 -1.36276e-19)
(8.84146 -11.2237 -8.77219e-19)
(8.65313 -10.9516 1.03591e-18)
(8.5073 -10.6851 6.89084e-19)
(8.35098 -10.4397 6.75463e-19)
(8.1917 -10.1941 1.81978e-19)
(8.02748 -9.94368 2.73447e-19)
(7.85667 -9.68938 1.35312e-19)
(7.68033 -9.43291 -5.38139e-19)
(7.50051 -9.1765 9.71215e-19)
(7.31936 -8.92244 -7.66872e-19)
(7.13888 -8.6728 -4.97731e-20)
(6.96078 -8.4292 1.09257e-19)
(6.78638 -8.19285 -4.75289e-19)
(6.61667 -7.96454 7.44429e-19)
(6.45231 -7.74472 1.39421e-19)
(6.29367 -7.53358 -3.10072e-19)
(6.14095 -7.33111 1.17167e-19)
(5.99418 -7.13713 -2.26688e-19)
(5.85329 -6.95142 -1.98514e-19)
(5.71815 -6.77369 -2.09116e-19)
(5.5886 -6.60366 4.73737e-20)
(5.46452 -6.44109 2.52932e-20)
(5.34581 -6.2858 -4.99789e-19)
(5.23243 -6.1377 -1.87504e-19)
(5.12438 -5.99682 1.21185e-19)
(5.02177 -5.8632 1.48226e-19)
(4.92554 -5.73617 -2.03976e-19)
(4.83673 -5.61472 -7.71184e-20)
(4.74653 -5.50502 5.70152e-21)
(9.63741 -11.1048 -1.19805e-19)
(9.14401 -11.0022 5.68358e-19)
(8.95241 -10.7397 -1.60874e-19)
(8.8014 -10.4796 -1.95028e-19)
(8.63904 -10.2395 -1.04129e-18)
(8.4728 -9.99839 -2.24312e-19)
(8.30092 -9.75196 4.18595e-19)
(8.12201 -9.50144 -2.7427e-19)
(7.93739 -9.24874 -2.90401e-20)
(7.74927 -8.99616 -5.45642e-20)
(7.55998 -8.74604 2.90063e-19)
(7.3716 -8.50042 -4.51057e-19)
(7.1859 -8.26091 -2.96955e-19)
(7.00425 -8.02868 3.44426e-19)
(6.82762 -7.8045 -1.93683e-19)
(6.65668 -7.58878 9.1504e-20)
(6.49179 -7.38169 1.81557e-20)
(6.33312 -7.18318 -7.77081e-20)
(6.18066 -6.99309 2.80792e-19)
(6.03432 -6.81116 -2.55206e-19)
(5.89395 -6.6371 -2.03078e-19)
(5.75937 -6.47065 1.76813e-19)
(5.63042 -6.31155 -2.0312e-20)
(5.507 -6.15965 -1.28811e-19)
(5.38908 -6.01486 1.13215e-19)
(5.27665 -5.87726 -3.4763e-19)
(5.16986 -5.74697 2.11795e-19)
(5.06977 -5.62334 -3.46977e-21)
(4.97749 -5.50546 -2.16735e-19)
(4.88444 -5.40001 2.91278e-19)
(9.93155 -10.8544 4.6733e-19)
(9.44169 -10.7725 -1.10651e-18)
(9.24664 -10.5193 -9.07176e-20)
(9.09044 -10.2655 4.96826e-19)
(8.92208 -10.0309 -1.23819e-19)
(8.7489 -9.7944 -3.49908e-19)
(8.56938 -9.55215 1.57726e-19)
(8.38241 -9.30565 1.80794e-19)
(8.18955 -9.05697 1.3941e-20)
(7.99322 -8.80847 2.16153e-19)
(7.79586 -8.56254 6.83182e-19)
(7.59967 -8.32118 -2.38432e-19)
(7.40648 -8.086 5.87047e-20)
(7.21768 -7.85811 -1.55175e-19)
(7.03426 -7.63825 5.88172e-19)
(6.85686 -7.4268 -1.05292e-19)
(6.68582 -7.22391 1.54199e-19)
(6.52129 -7.02951 -2.58463e-19)
(6.36323 -6.84342 1.39061e-19)
(6.21152 -6.66537 2.08653e-19)
(6.06597 -6.49509 3.50482e-20)
(5.92637 -6.33229 1.37338e-19)
(5.79255 -6.17675 -1.12147e-19)
(5.66438 -6.02831 3.1074e-19)
(5.54183 -5.88695 -1.25891e-19)
(5.42493 -5.75281 4.5665e-19)
(5.3139 -5.62606 -1.31709e-19)
(5.20989 -5.50603 8.96689e-20)
(5.1142 -5.39187 -1.68717e-19)
(5.01871 -5.2913 2.81241e-19)
(10.2217 -10.5968 -1.02836e-18)
(9.73477 -10.5344 3.76629e-20)
(9.53562 -10.2902 -5.51485e-19)
(9.37412 -10.0429 9.74224e-20)
(9.19979 -9.81385 2.79248e-20)
(9.01972 -9.58222 -4.5886e-19)
(8.8326 -9.34439 -8.52904e-19)
(8.63763 -9.10216 4.18236e-19)
(8.4366 -8.85775 -5.86758e-19)
(8.23213 -8.6136 -3.03361e-19)
(8.0268 -8.37209 -1.70065e-19)
(7.82291 -8.13524 -1.30976e-19)
(7.62235 -7.9046 1.47992e-21)
(7.42653 -7.68126 -4.67046e-19)
(7.23643 -7.46591 2.97555e-19)
(7.0527 -7.25891 -4.89985e-19)
(6.87564 -7.06037 -1.23176e-19)
(6.70537 -6.8702 1.38358e-19)
(6.54182 -6.68821 -5.56152e-20)
(6.38483 -6.51412 1.60237e-19)
(6.23415 -6.34765 1.2208e-19)
(6.08956 -6.18852 -3.04266e-19)
(5.95081 -6.03653 3.02806e-19)
(5.81776 -5.89154 -3.267e-20)
(5.69034 -5.7536 -7.99527e-20)
(5.56857 -5.62297 -3.14435e-19)
(5.45284 -5.49985 -1.65361e-19)
(5.34448 -5.38356 3.0442e-19)
(5.24472 -5.27409 -1.00653e-19)
(5.14614 -5.18207 -9.14483e-20)
(10.5076 -10.3305 4.49598e-19)
(10.0228 -10.2868 4.15226e-20)
(9.81899 -10.0521 -1.06225e-19)
(9.6521 -9.81177 -2.20559e-20)
(9.47193 -9.58869 -1.83474e-19)
(9.28508 -9.36216 6.21035e-19)
(9.09044 -9.12898 -2.86833e-19)
(8.88753 -8.89125 1.87468e-19)
(8.67841 -8.65135 7.66171e-20)
(8.46588 -8.41179 2.66797e-19)
(8.25269 -8.17495 -9.9794e-20)
(8.04122 -7.94283 5.6417e-19)
(7.83341 -7.71695 -4.75482e-20)
(7.63069 -7.49835 3.54247e-19)
(7.43407 -7.28769 -5.88612e-19)
(7.24413 -7.08529 -4.21013e-20)
(7.0612 -6.89123 3.71505e-19)
(6.88533 -6.70541 -2.28886e-19)
(6.71642 -6.52759 9.3483e-20)
(6.55427 -6.35752 1.5829e-19)
(6.3986 -6.19487 -2.28255e-19)
(6.24909 -6.03936 2.50871e-19)
(6.10545 -5.89079 -2.31958e-19)
(5.96742 -5.74903 5.0503e-20)
(5.83479 -5.61417 1.85029e-19)
(5.70747 -5.48651 1.27042e-19)
(5.5858 -5.36623 1.17803e-19)
(5.47082 -5.25309 8.67236e-20)
(5.36245 -5.14976 -2.33829e-19)
(5.25539 -5.06922 -8.90197e-20)
(14.9192 0.125186 5.65592e-21)
(14.9088 -0.267956 5.50913e-20)
(14.8887 -0.65908 1.91482e-19)
(14.8597 -1.0486 1.04435e-19)
(14.8211 -1.43664 -2.22879e-19)
(14.7725 -1.82313 6.72961e-20)
(14.714 -2.20789 -7.01237e-20)
(14.6454 -2.59074 -1.78043e-19)
(14.5668 -2.97146 9.45829e-20)
(14.4784 -3.3498 -1.09636e-19)
(14.38 -3.72552 -1.09152e-19)
(14.2719 -4.09838 -2.34457e-19)
(14.1541 -4.46811 -6.77559e-19)
(14.0267 -4.83448 6.21592e-20)
(13.8898 -5.19723 -2.75767e-20)
(13.7434 -5.55613 -2.17927e-19)
(13.5878 -5.91092 4.59563e-19)
(13.4231 -6.26138 2.52728e-19)
(13.2492 -6.60726 4.82588e-19)
(13.0665 -6.94834 2.36452e-19)
(12.8751 -7.2844 -5.37555e-19)
(12.675 -7.61521 2.15792e-20)
(12.4664 -7.94056 -1.02779e-18)
(12.2495 -8.26025 1.56371e-18)
(12.0245 -8.57408 -5.13415e-19)
(11.7915 -8.8819 -6.74654e-19)
(11.5508 -9.18356 -1.00811e-19)
(11.3026 -9.47898 -1.27555e-20)
(11.0467 -9.76842 -5.26065e-19)
(10.7851 -10.0512 9.24072e-19)
(14.7724 -0.193929 2.07315e-20)
(14.7504 -0.581863 3.01981e-20)
(14.7178 -0.967666 7.05528e-21)
(14.6751 -1.35154 -2.66825e-19)
(14.6226 -1.73356 -2.39491e-19)
(14.56 -2.11359 2.11444e-19)
(14.4875 -2.4914 2.61888e-19)
(14.405 -2.86675 1.38275e-19)