/*--------------------------------*- C++ -*----------------------------------*\
| =========                 |                                                 |
| \\      /  F ield         | OpenFOAM: The Open Source CFD Toolbox           |
|  \\    /   O peration     | Version:  v1912                                 |
|   \\  /    A nd           | Website:  www.openfoam.com                      |
|    \\/     M anipulation  |                                                 |
\*---------------------------------------------------------------------------*/
FoamFile
{
    version     2.0;
    format      ascii;
    class       volScalarField;
    location    "72.5";
    object      p;
}
// * * * * * * * * * * * * * * * * * * * * * * * * * * * * * * * * * * * * * //

dimensions      [0 2 -2 0 0 0 0];


internalField   nonuniform List<scalar> 
9600
(
-41.4882
-36.2235
-32.9968
-30.2597
-27.7544
-25.4876
-23.4311
-21.5569
-19.8476
-18.2895
-16.87
-15.5772
-14.3997
-13.3267
-12.3481
-11.4545
-10.6375
-9.88919
-9.20202
-8.57381
-42.2483
-36.966
-33.7033
-30.9234
-28.3729
-26.062
-23.9641
-22.0521
-20.3089
-18.7208
-17.2749
-15.959
-14.7611
-13.6702
-12.6757
-11.7679
-10.9382
-10.1781
-9.47979
-8.8423
-43.01
-37.7046
-34.4045
-31.5814
-28.9856
-26.6304
-24.4911
-22.5414
-20.7646
-19.1467
-17.6747
-16.3359
-15.118
-14.0094
-12.9993
-12.0775
-11.2351
-10.4633
-9.75398
-9.1074
-43.7702
-38.4386
-35.0998
-32.233
-29.5914
-27.1918
-25.0111
-23.0239
-21.2137
-19.5664
-18.0687
-16.7073
-15.4697
-14.3438
-13.3182
-12.3827
-11.5278
-10.7445
-10.0242
-9.36878
-44.5258
-39.1668
-35.7882
-32.8769
-30.1894
-27.7453
-25.5232
-23.4988
-21.6554
-19.9791
-18.456
-17.0726
-15.8156
-14.6727
-13.632
-12.6829
-11.8158
-11.0211
-10.29
-9.62615
-45.2748
-39.8875
-36.4685
-33.5122
-30.7784
-28.2897
-26.0265
-23.965
-22.089
-20.3841
-18.8361
-17.4309
-16.155
-14.9954
-13.94
-12.9778
-12.0987
-11.2929
-10.5512
-9.87925
-46.0154
-40.5993
-37.1394
-34.1376
-31.3573
-28.8241
-26.52
-24.4219
-22.5135
-20.7804
-19.208
-17.7817
-16.4873
-15.3115
-14.2417
-13.2666
-12.376
-11.5593
-10.8073
-10.1278
-46.7462
-41.3009
-37.7998
-34.7521
-31.9252
-29.3475
-27.0027
-24.8683
-22.9282
-21.1675
-19.5712
-18.1241
-16.8118
-15.6202
-14.5365
-13.549
-12.6471
-11.8199
-11.058
-10.3715
-47.4656
-41.9909
-38.4483
-35.3545
-32.4809
-29.859
-27.4738
-25.3036
-23.3321
-21.5444
-19.9247
-18.4575
-17.1277
-15.9209
-14.8237
-13.8243
-12.9116
-12.0743
-11.3029
-10.61
-48.1725
-42.6682
-39.0838
-35.9438
-33.0235
-30.3575
-27.9323
-25.7267
-23.7245
-21.9103
-20.2678
-18.7811
-17.4343
-16.2127
-15.1027
-14.0918
-13.1688
-12.3219
-11.5415
-10.8429
-48.8657
-43.3315
-39.7054
-36.5188
-33.552
-30.8421
-28.3774
-26.1369
-24.1045
-22.2644
-20.5998
-19.094
-17.7308
-16.495
-15.3725
-14.3507
-13.418
-12.562
-11.7731
-11.0695
-49.5444
-43.98
-40.3119
-37.0787
-34.0654
-31.312
-28.8081
-26.5333
-24.4713
-22.6058
-20.9196
-19.3953
-18.0163
-16.7668
-15.6324
-14.6002
-13.6582
-12.7937
-11.997
-11.2892
-50.2078
-44.6128
-40.9025
-37.6226
-34.5628
-31.7662
-29.2237
-26.9151
-24.8241
-22.9338
-21.2265
-19.6842
-18.2898
-17.0271
-15.8813
-14.8391
-13.8886
-13.0162
-12.2123
-11.5011
-50.8553
-45.229
-41.4762
-38.1496
-35.0436
-32.2041
-29.6233
-27.2816
-25.162
-23.2475
-21.5196
-19.9597
-18.5503
-17.2747
-16.1178
-15.0663
-14.1076
-13.228
-12.4178
-11.7046
-51.4863
-45.8278
-42.0324
-38.659
-35.5069
-32.625
-30.0065
-27.632
-25.4845
-23.5462
-21.798
-20.2209
-18.7967
-17.5084
-16.3407
-15.2798
-14.3133
-13.4269
-12.6113
-11.8977
-52.1005
-46.4085
-42.5703
-39.1502
-35.9523
-33.0282
-30.3725
-27.9659
-25.791
-23.8293
-22.0612
-20.467
-19.0281
-17.7272
-16.5485
-15.4784
-14.504
-13.6109
-12.7901
-12.0751
-52.699
-46.971
-43.0893
-39.6225
-36.3789
-33.4132
-30.7209
-28.2827
-26.0808
-24.0962
-22.3084
-20.6973
-19.2437
-17.93
-16.7404
-15.661
-14.6792
-13.7799
-12.9531
-12.2335
-53.2862
-47.5163
-43.5885
-40.0746
-36.7859
-33.7792
-31.0511
-28.5821
-26.3539
-24.3466
-22.5392
-20.9109
-19.4422
-18.1151
-16.9139
-15.8251
-14.8362
-13.9312
-13.0994
-12.3842
-53.8643
-48.0439
-44.0664
-40.5057
-37.1729
-34.1265
-31.3635
-28.8645
-26.6106
-24.581
-22.754
-21.1082
-19.6232
-18.281
-17.0656
-15.9639
-14.963
-14.0471
-13.214
-12.5315
-54.4113
-48.5463
-44.5219
-40.9162
-37.5412
-34.4564
-31.6597
-29.1317
-26.8528
-24.8015
-22.9551
-21.2915
-19.7896
-18.4304
-17.1974
-16.076
-15.0513
-14.1097
-13.2657
-12.5894
-59.8682
-59.8367
-59.7675
-59.675
-59.5586
-59.4159
-59.2462
-59.0501
-58.8282
-58.5809
-58.309
-58.0128
-57.6931
-57.3506
-56.986
-56.6002
-56.1943
-55.7699
-55.3301
-54.8777
-53.5192
-53.5166
-53.4808
-53.4175
-53.3273
-53.2098
-53.0652
-52.8941
-52.6974
-52.4756
-52.2293
-51.9591
-51.6658
-51.3498
-51.0118
-50.6525
-50.2726
-49.8726
-49.4529
-49.0115
-48.8748
-48.8966
-48.889
-48.8526
-48.7888
-48.6983
-48.5819
-48.44
-48.2734
-48.0826
-47.8683
-47.6309
-47.371
-47.0892
-46.786
-46.4618
-46.117
-45.7514
-45.365
-44.9556
-44.6439
-44.6834
-44.6963
-44.682
-44.6415
-44.5759
-44.4857
-44.3716
-44.234
-44.0736
-43.8908
-43.6862
-43.4602
-43.2135
-42.9462
-42.6588
-42.3514
-42.0239
-41.676
-41.307
-40.7317
-40.7811
-40.8066
-40.8073
-40.7838
-40.7368
-40.667
-40.575
-40.4611
-40.3259
-40.1699
-39.9937
-39.7975
-39.582
-39.3474
-39.0939
-38.8217
-38.5307
-38.2207
-37.8911
-37.2182
-37.2717
-37.3036
-37.313
-37.3001
-37.2655
-37.2099
-37.1337
-37.0375
-36.9216
-36.7866
-36.6329
-36.4611
-36.2714
-36.0643
-35.8399
-35.5984
-35.3397
-35.0635
-34.7694
-34.0943
-34.1478
-34.1815
-34.1946
-34.1872
-34.1599
-34.1133
-34.0477
-33.9637
-33.8617
-33.7422
-33.6057
-33.4526
-33.2835
-33.0985
-32.8981
-32.6822
-32.4508
-32.2037
-31.9403
-31.3231
-31.3738
-31.4062
-31.4196
-31.4142
-31.3904
-31.3487
-31.2897
-31.2137
-31.1212
-31.0128
-30.8889
-30.75
-30.5966
-30.4291
-30.2478
-30.0528
-29.8442
-29.6216
-29.3845
-28.8649
-28.9111
-28.9403
-28.952
-28.9462
-28.9234
-28.8841
-28.8287
-28.7577
-28.6716
-28.5708
-28.456
-28.3276
-28.1862
-28.0323
-27.8662
-27.6883
-27.4984
-27.2964
-27.0816
-26.6799
-26.721
-26.7461
-26.7549
-26.7474
-26.7241
-26.6855
-26.6319
-26.5639
-26.4819
-26.3864
-26.278
-26.1574
-26.0252
-25.8818
-25.728
-25.5639
-25.3897
-25.2051
-25.0095
-24.731
-24.7667
-24.7875
-24.7929
-24.7832
-24.7586
-24.7197
-24.6668
-24.6005
-24.5211
-24.4293
-24.3256
-24.2108
-24.0856
-23.9506
-23.8065
-23.6538
-23.4928
-23.3234
-23.1448
-22.9851
-23.0158
-23.0323
-23.0344
-23.0221
-22.996
-22.9563
-22.9035
-22.8381
-22.7604
-22.6712
-22.571
-22.4606
-22.3408
-22.2124
-22.0762
-21.9331
-21.7835
-21.6274
-21.4641
-21.4141
-21.4401
-21.4527
-21.4515
-21.4369
-21.4091
-21.3685
-21.3155
-21.2506
-21.1741
-21.0868
-20.9892
-20.8822
-20.7666
-20.6434
-20.5137
-20.3786
-20.2389
-20.095
-19.9459
-19.9941
-20.016
-20.025
-20.0209
-20.0041
-19.9748
-19.9333
-19.88
-19.8153
-19.7398
-19.6539
-19.5583
-19.4539
-19.3416
-19.2226
-19.0981
-18.9697
-18.8385
-18.7058
-18.5704
-18.7053
-18.7235
-18.7293
-18.7227
-18.7039
-18.6732
-18.6309
-18.5774
-18.513
-18.4382
-18.3534
-18.2595
-18.1571
-18.0474
-17.9315
-17.811
-17.688
-17.5641
-17.4419
-17.32
-17.5312
-17.546
-17.549
-17.5402
-17.5197
-17.4879
-17.4449
-17.3911
-17.327
-17.2528
-17.169
-17.0764
-16.9756
-16.8677
-16.7541
-16.6364
-16.5174
-16.3993
-16.2867
-16.178
-16.458
-16.4698
-16.4703
-16.4595
-16.4376
-16.4047
-16.3611
-16.3072
-16.2432
-16.1695
-16.0865
-15.9948
-15.8952
-15.7884
-15.676
-15.5598
-15.4431
-15.3288
-15.2243
-15.1274
-15.4737
-15.4831
-15.4817
-15.4694
-15.4464
-15.4128
-15.369
-15.315
-15.2513
-15.1782
-15.0959
-15.005
-14.9061
-14.8
-14.688
-14.5718
-14.4555
-14.3426
-14.2451
-14.1574
-14.5673
-14.5753
-14.5729
-14.5602
-14.5371
-14.5038
-14.4607
-14.4078
-14.3455
-14.274
-14.1936
-14.1046
-14.0075
-13.9031
-13.7921
-13.6762
-13.5591
-13.4459
-13.3553
-13.2817
-13.7335
-13.7383
-13.7333
-13.7187
-13.6945
-13.6609
-13.6181
-13.5662
-13.5053
-13.4357
-13.3577
-13.2715
-13.1773
-13.0757
-12.9669
-12.8521
-12.7331
-12.6152
-12.5181
-12.4689
-53.5745
-54.15
-54.6884
-55.2118
-55.7173
-56.1988
-56.6535
-57.0804
-57.4785
-57.847
-58.1851
-58.4924
-58.7686
-59.0132
-59.2257
-59.4061
-59.5553
-59.6744
-59.7655
-59.8305
-47.0913
-47.6722
-48.225
-48.7555
-49.2632
-49.7455
-50.2012
-50.6295
-51.0298
-51.4014
-51.7437
-52.0565
-52.3401
-52.5951
-52.8193
-53.0123
-53.1745
-53.3065
-53.4086
-53.4798
-42.4467
-43.0154
-43.5604
-44.082
-44.5801
-45.054
-45.503
-45.9263
-46.3233
-46.6934
-47.0355
-47.3495
-47.635
-47.8908
-48.1182
-48.3173
-48.488
-48.6298
-48.7424
-48.8245
-38.3225
-38.8659
-39.3895
-39.8916
-40.3715
-40.8289
-41.2633
-41.6739
-42.0601
-42.4214
-42.7564
-43.0646
-43.347
-43.6031
-43.833
-44.0364
-44.213
-44.3624
-44.4843
-44.5782
-34.6445
-35.1578
-35.654
-36.1307
-36.5866
-37.0216
-37.4351
-37.8263
-38.1946
-38.5395
-38.8615
-39.1601
-39.4341
-39.6835
-39.9085
-40.1087
-40.284
-40.4341
-40.5589
-40.6583
-31.4457
-31.9275
-32.394
-32.8425
-33.2718
-33.6816
-34.0712
-34.4402
-34.7881
-35.1146
-35.4194
-35.7021
-35.962
-36.1992
-36.4141
-36.6064
-36.7755
-36.9211
-37.0436
-37.1428
-28.6737
-29.1247
-29.5614
-29.9816
-30.3838
-30.7677
-31.1328
-31.4785
-31.8045
-32.1105
-32.3961
-32.661
-32.9049
-33.1277
-33.3289
-33.5104
-33.6705
-33.8088
-33.9255
-34.0208
-26.2616
-26.6836
-27.0924
-27.4855
-27.8617
-28.2206
-28.5617
-28.8844
-29.1886
-29.4738
-29.7399
-29.9867
-30.214
-30.4218
-30.61
-30.777
-30.9265
-31.0558
-31.1648
-31.2541
-24.1507
-24.5464
-24.9293
-25.2974
-25.6495
-25.985
-26.3034
-26.6045
-26.8878
-27.1532
-27.4005
-27.6297
-27.8406
-28.0333
-28.2075
-28.3634
-28.4997
-28.6189
-28.7195
-28.8016
-22.2909
-22.6628
-23.0225
-23.368
-23.698
-24.012
-24.3096
-24.5905
-24.8544
-25.1013
-25.3311
-25.5438
-25.7392
-25.9173
-26.0781
-26.2216
-26.3475
-26.4562
-26.5482
-26.6228
-20.6406
-20.9912
-21.3302
-21.6555
-21.9656
-22.2601
-22.5386
-22.801
-23.0472
-23.2771
-23.4907
-23.6881
-23.8691
-24.0338
-24.1822
-24.3142
-24.4298
-24.5291
-24.6127
-24.6801
-19.1661
-19.4979
-19.8187
-20.1259
-20.4181
-20.6949
-20.9561
-21.2016
-21.4316
-21.6459
-21.8448
-22.0281
-22.196
-22.3485
-22.4855
-22.6071
-22.7132
-22.8041
-22.8794
-22.9401
-17.8404
-18.1557
-18.4606
-18.7518
-19.0279
-19.2885
-19.5339
-19.7641
-19.9791
-20.1793
-20.3646
-20.5353
-20.6912
-20.8326
-20.9593
-21.0714
-21.1689
-21.2517
-21.3197
-21.3744
-16.6419
-16.9428
-17.2341
-17.5112
-17.7726
-18.0185
-18.2493
-18.4653
-18.6667
-18.8538
-19.0268
-19.1859
-19.331
-19.4623
-19.5797
-19.6832
-19.7729
-19.8489
-19.9113
-19.9593
-15.5536
-15.8422
-16.122
-16.3864
-16.6342
-16.8664
-17.0837
-17.2865
-17.4753
-17.6504
-17.8121
-17.9606
-18.0959
-18.218
-18.327
-18.4228
-18.5055
-18.5751
-18.6316
-18.6748
-14.5607
-14.8408
-15.1114
-15.3639
-15.5988
-15.818
-16.0225
-16.2128
-16.3897
-16.5537
-16.705
-16.8438
-16.9701
-17.0839
-17.1853
-17.2741
-17.3505
-17.4143
-17.4657
-17.5045
-13.6455
-13.9246
-14.19
-14.431
-14.6532
-14.8601
-15.0523
-15.2308
-15.3967
-15.5504
-15.6921
-15.822
-15.9402
-16.0465
-16.141
-16.2236
-16.2943
-16.3531
-16.3999
-16.4348
-12.7875
-13.0707
-13.3374
-13.569
-13.7793
-13.9744
-14.1555
-14.3235
-14.4796
-14.6243
-14.7578
-14.8802
-14.9915
-15.0916
-15.1804
-15.2578
-15.3238
-15.3784
-15.4216
-15.4534
-12
-12.2738
-12.5411
-12.7679
-12.9681
-13.1518
-13.3224
-13.4809
-13.6282
-13.7649
-13.8913
-14.0073
-14.1127
-14.2075
-14.2916
-14.3649
-14.4272
-14.4786
-14.5191
-14.5487
-11.4093
-11.6601
-11.8879
-12.1047
-12.2931
-12.4591
-12.6131
-12.7573
-12.8914
-13.0156
-13.1303
-13.2356
-13.3311
-13.4168
-13.4924
-13.558
-13.6134
-13.6587
-13.6935
-13.7181
-6.0073
-6.49867
-7.03712
-7.61959
-8.25252
-8.9433
-9.69959
-10.5309
-11.4493
-12.4705
-13.615
-14.9097
-16.3899
-18.1019
-20.106
-22.4815
-25.3097
-28.6128
-32.6103
-38.6063
-6.27795
-6.78286
-7.33183
-7.92637
-8.57308
-9.27905
-10.0521
-10.9019
-11.8408
-12.8849
-14.055
-15.3783
-16.8907
-18.6387
-20.6829
-23.1026
-25.9778
-29.3278
-33.3637
-39.3808
-6.55003
-7.06848
-7.62809
-8.23494
-8.89569
-9.6171
-10.4071
-11.2757
-12.2355
-13.3028
-14.4988
-15.8511
-17.3959
-19.1802
-21.2649
-23.7287
-26.6506
-30.0462
-34.1189
-40.1525
-6.82305
-7.35498
-7.92532
-8.54468
-9.21968
-9.95674
-10.7639
-11.6515
-12.6324
-13.7232
-14.9453
-16.3268
-17.9043
-19.7252
-21.8503
-24.3582
-27.3265
-30.7676
-34.8782
-40.9329
-7.09656
-7.64189
-8.22303
-8.85512
-9.54458
-10.2975
-11.122
-12.0288
-13.0309
-14.1453
-15.3937
-16.8046
-18.415
-20.2725
-22.4382
-24.9902
-28.0047
-31.4915
-35.6405
-41.7197
-7.3702
-7.92881
-8.52082
-9.16583
-9.86993
-10.6388
-11.4809
-12.407
-13.4305
-14.5687
-15.8436
-17.284
-18.9273
-20.8216
-23.0279
-25.6239
-28.6847
-32.2167
-36.404
-42.5086
-7.64365
-8.21537
-8.81829
-9.47642
-10.1953
-10.9804
-11.8401
-12.7856
-13.8307
-14.9927
-16.2942
-17.7642
-19.4406
-21.3717
-23.6186
-26.2587
-29.3653
-32.9423
-37.1671
-43.2972
-7.91666
-8.50129
-9.11514
-9.78654
-10.5204
-11.3217
-12.1992
-13.1642
-14.2309
-15.4168
-16.7449
-18.2446
-19.9541
-21.922
-24.2095
-26.8933
-30.0457
-33.6671
-37.9285
-44.0842
-8.18908
-8.78635
-9.41111
-10.0959
-10.8448
-11.6624
-12.5577
-13.5423
-14.6305
-15.8404
-17.1951
-18.7245
-20.4671
-22.4717
-24.7996
-27.527
-30.7246
-34.3899
-38.6872
-44.868
-8.46086
-9.07047
-9.70605
-10.4044
-11.1684
-12.0022
-12.9153
-13.9194
-15.0292
-16.263
-17.6442
-19.2032
-20.9787
-23.0199
-25.388
-28.1586
-31.401
-35.1096
-39.4417
-45.6471
-8.73212
-9.35365
-9.99991
-10.7117
-11.4908
-12.3409
-13.2716
-14.2951
-15.4263
-16.6839
-18.0915
-19.6799
-21.4883
-23.5658
-25.9738
-28.7872
-32.0737
-35.8249
-40.1908
-46.4201
-9.00314
-9.63608
-10.2927
-11.018
-11.812
-12.6781
-13.6263
-14.669
-15.8214
-17.1025
-18.5364
-20.154
-21.9949
-24.1085
-26.5559
-29.4117
-32.7417
-36.5346
-40.9331
-47.1856
-9.27442
-9.91804
-10.5846
-11.323
-12.1317
-13.0136
-13.9789
-15.0406
-16.214
-17.5183
-18.978
-20.6246
-22.4976
-24.6469
-27.1335
-30.0309
-33.4037
-37.2374
-41.6672
-47.9421
-9.54667
-10.2
-10.8758
-11.6269
-12.4499
-13.347
-14.3291
-15.4093
-16.6033
-17.9305
-19.4158
-21.0908
-22.9957
-25.1803
-27.7053
-30.6437
-34.0586
-37.9322
-42.392
-48.6885
-9.82066
-10.4822
-11.1662
-11.9293
-12.7659
-13.6779
-14.6763
-15.7745
-16.9886
-18.3383
-19.8488
-21.5519
-23.4882
-25.7074
-28.2703
-31.249
-34.705
-38.6176
-43.1061
-49.4234
-10.0974
-10.7649
-11.4555
-12.2298
-13.0793
-14.0055
-15.0196
-16.1355
-17.3693
-18.741
-20.2761
-22.0069
-23.9739
-26.2273
-28.8273
-31.8455
-35.3417
-39.2925
-43.8085
-50.146
-10.3765
-11.047
-11.7424
-12.5269
-13.3889
-14.3287
-15.3582
-16.4912
-17.7442
-19.1375
-20.6967
-22.4546
-24.4518
-26.7386
-29.3752
-32.4319
-35.9672
-39.9553
-44.4981
-50.8557
-10.6575
-11.326
-12.0244
-12.8189
-13.6932
-14.6466
-15.6909
-16.8406
-18.1124
-19.5268
-21.1097
-22.894
-24.9209
-27.2404
-29.9124
-33.0067
-36.58
-40.6045
-45.1737
-51.5523
-10.933
-11.5936
-12.2952
-13.1023
-13.9902
-14.9571
-16.0162
-17.1826
-18.4728
-19.9078
-21.5138
-23.324
-25.3797
-27.7311
-30.4378
-33.5684
-37.1785
-41.2382
-45.8342
-52.2374
-11.1843
-11.8298
-12.5504
-13.3782
-14.2804
-15.2603
-16.3338
-17.5163
-18.8245
-20.2796
-21.9081
-23.7435
-25.8273
-28.2096
-30.9497
-34.1152
-37.7603
-41.8534
-46.4748
-52.9126
-1.58531
-1.83925
-2.18713
-2.57605
-2.9946
-3.44814
-3.94298
-4.48503
-5.08181
-5.74357
-6.48425
-7.32287
-8.28558
-9.40843
-10.7423
-12.3615
-14.3558
-16.7863
-19.9614
-25.3562
-1.7385
-2.00887
-2.37522
-2.77009
-3.19207
-3.65095
-4.1527
-4.70285
-5.30904
-5.98179
-6.73531
-7.58896
-8.56932
-9.71294
-11.0713
-12.7192
-14.7464
-17.2124
-20.4198
-25.8283
-1.88603
-2.1805
-2.56
-2.96302
-3.39274
-3.86002
-4.37071
-4.93054
-5.54752
-6.2325
-7.00005
-7.86988
-8.86905
-10.0346
-11.4187
-13.0963
-15.1571
-17.6585
-20.8974
-26.3146
-2.05586
-2.36116
-2.74887
-3.16061
-3.59954
-4.07636
-4.59709
-5.16773
-5.79662
-6.49494
-7.27756
-8.16463
-9.18366
-10.3723
-11.783
-13.4914
-15.5868
-18.1249
-21.3987
-26.8336
-2.23701
-2.5494
-2.94496
-3.36567
-3.8141
-4.30091
-4.83232
-5.41457
-6.05626
-6.76882
-7.56747
-8.47277
-9.51267
-10.7253
-12.1638
-13.9041
-16.0352
-18.6116
-21.9229
-27.3819
-2.42364
-2.74465
-3.14855
-3.5784
-4.03661
-4.53386
-5.07656
-5.67112
-6.32636
-7.05399
-7.86957
-8.79401
-9.85578
-11.0935
-12.5609
-14.3342
-16.5024
-19.1182
-22.4682
-27.9543
-2.61728
-2.9478
-3.35996
-3.79895
-4.26723
-4.77537
-5.32986
-5.93734
-6.60682
-7.35028
-8.18359
-9.12808
-10.2127
-11.4766
-12.9739
-14.7814
-16.9877
-19.6441
-23.0337
-28.5486
-2.81931
-3.15933
-3.57953
-4.02766
-4.5062
-5.02554
-5.59228
-6.21319
-6.89751
-7.65748
-8.50928
-9.47464
-10.5829
-11.8739
-13.4023
-15.2451
-17.4907
-20.1887
-23.6186
-29.1635
-3.02952
-3.37908
-3.8073
-4.26462
-4.75358
-5.28441
-5.86374
-6.49855
-7.19825
-7.97535
-8.84635
-9.83337
-10.9662
-12.2853
-13.8456
-15.7247
-18.0106
-20.7513
-24.2223
-29.798
-3.2473
-3.60672
-4.04306
-4.50966
-5.00924
-5.55182
-6.1441
-6.79322
-7.50882
-8.30363
-9.19448
-10.2039
-11.3622
-12.7101
-14.3034
-16.2198
-18.547
-21.3312
-24.8439
-30.4511
-3.47223
-3.84191
-4.2865
-4.76252
-5.27292
-5.82751
-6.43309
-7.09694
-7.8289
-8.64198
-9.55331
-10.5858
-11.7702
-13.1479
-14.7751
-16.7297
-19.0991
-21.9276
-25.4826
-31.1217
-3.70391
-4.08424
-4.53724
-5.02284
-5.54428
-6.11118
-6.73037
-7.40934
-8.15814
-8.99
-9.9224
-10.9786
-12.1899
-13.5982
-15.26
-17.2537
-19.6663
-22.5399
-26.1375
-31.8087
-3.94189
-4.33323
-4.79483
-5.29021
-5.82294
-6.40242
-7.03556
-7.73004
-8.4961
-9.34726
-10.3013
-11.3819
-12.6208
-14.0604
-15.7577
-17.7913
-20.2477
-23.1671
-26.8077
-32.5112
-4.18563
-4.58837
-5.05878
-5.56415
-6.10842
-6.70077
-7.3482
-8.05856
-8.84232
-9.71326
-10.6895
-11.7951
-13.0622
-14.5338
-16.2674
-18.3417
-20.8427
-23.8084
-27.4924
-33.2283
-4.43459
-4.84909
-5.32854
-5.84413
-6.40022
-7.00575
-7.66778
-8.3944
-9.19628
-10.0875
-11.0864
-12.2175
-13.5136
-15.0178
-16.7884
-18.9041
-21.4504
-24.4631
-28.1908
-33.9591
-4.68822
-5.11484
-5.60355
-6.12963
-6.6978
-7.31681
-7.99378
-8.73701
-9.55741
-10.4693
-11.4914
-12.6487
-13.9742
-15.5118
-17.32
-19.4778
-22.07
-25.1302
-28.9019
-34.7028
-4.94597
-5.38502
-5.88323
-6.42005
-7.00061
-7.63339
-8.32562
-9.08581
-9.92513
-10.8581
-11.9039
-13.0878
-14.4433
-16.0149
-17.8614
-20.0619
-22.7005
-25.8087
-29.625
-35.4588
-5.20728
-5.65906
-6.16701
-6.71484
-7.30807
-7.95492
-8.66273
-9.44023
-10.2988
-11.2533
-12.3232
-13.5342
-14.9203
-16.5264
-18.4117
-20.6554
-23.3411
-26.4978
-30.3592
-36.2268
-5.47162
-5.93637
-6.45429
-7.0134
-7.61959
-8.28081
-9.0045
-9.79963
-10.6778
-11.6543
-12.7487
-13.9872
-15.4043
-17.0453
-18.9699
-21.2574
-23.9904
-27.196
-31.1034
-37.0074
-5.73846
-6.21644
-6.74453
-7.3152
-7.93463
-8.6105
-9.35037
-10.1634
-11.0616
-12.0603
-13.1796
-14.4461
-15.8946
-17.571
-19.5353
-21.8668
-24.6474
-27.9017
-31.855
-37.8013
-1.33752
-1.13079
-0.977
-0.84026
-0.720181
-0.614224
-0.521272
-0.440533
-0.371506
-0.313832
-0.267245
-0.231533
-0.206526
-0.192089
-0.188082
-0.194294
-0.210508
-0.236853
-0.273517
-0.320271
-1.66733
-1.48388
-1.32611
-1.18414
-1.05923
-0.948805
-0.851885
-0.767672
-0.695653
-0.635449
-0.58678
-0.549423
-0.523195
-0.507945
-0.50353
-0.509775
-0.526524
-0.553791
-0.591672
-0.639827
-1.99979
-1.82423
-1.66648
-1.52336
-1.39632
-1.28371
-1.18484
-1.09901
-1.02575
-0.964709
-0.915608
-0.878223
-0.852371
-0.837893
-0.834642
-0.842465
-0.861242
-0.890923
-0.931361
-0.98282
-2.38346
-2.20623
-2.04544
-1.89936
-1.76874
-1.65263
-1.55053
-1.46191
-1.38635
-1.32351
-1.27312
-1.23495
-1.20882
-1.19455
-1.192
-1.20101
-1.22148
-1.25331
-1.29639
-1.35077
-2.80211
-2.62241
-2.45766
-2.30763
-2.1728
-2.05262
-1.94679
-1.85487
-1.77652
-1.71143
-1.65934
-1.62003
-1.59331
-1.57901
-1.57696
-1.58702
-1.60906
-1.64298
-1.68866
-1.74607
-3.25329
-3.07037
-2.90143
-2.74707
-2.60777
-2.48333
-2.37356
-2.27814
-2.19681
-2.12929
-2.07535
-2.03477
-2.00737
-1.99296
-1.9914
-2.00252
-2.02619
-2.06229
-2.11068
-2.17131
-3.74317
-3.55551
-3.38165
-3.22237
-3.07817
-2.94907
-2.835
-2.73575
-2.65113
-2.5809
-2.52485
-2.48278
-2.45452
-2.43988
-2.4387
-2.45084
-2.47615
-2.51448
-2.56569
-2.62975
-4.27854
-4.08466
-3.9048
-3.73971
-3.58991
-3.45554
-3.33662
-3.23304
-3.14465
-3.07128
-3.01274
-2.96884
-2.93942
-2.92431
-2.92333
-2.93634
-2.9632
-3.00373
-3.0578
-3.12536
-4.86708
-4.66555
-4.47845
-4.30649
-4.15016
-4.00971
-3.8852
-3.77661
-3.68385
-3.60676
-3.54521
-3.49902
-3.46803
-3.45208
-3.451
-3.46466
-3.49288
-3.5355
-3.59237
-3.66347
-5.51895
-5.30818
-5.11243
-4.93231
-4.76833
-4.62075
-4.48972
-4.37525
-4.27728
-4.19574
-4.13048
-4.08136
-4.04824
-4.03096
-4.02935
-4.04327
-4.07255
-4.11703
-4.17653
-4.25107
-6.24788
-6.02608
-5.81999
-5.63017
-5.45711
-5.3011
-5.16231
-5.04082
-4.93661
-4.84962
-4.77974
-4.72686
-4.69083
-4.67151
-4.66874
-4.68237
-4.71224
-4.75815
-4.81995
-4.89768
-7.07259
-6.83763
-6.6192
-6.41778
-6.23386
-6.06776
-5.91967
-5.7897
-5.67787
-5.58414
-5.50843
-5.45065
-5.41067
-5.38834
-5.38351
-5.39605
-5.42578
-5.47248
-5.53601
-5.61645
-8.01882
-7.76816
-7.53494
-7.31959
-7.12261
-6.94432
-6.78495
-6.64461
-6.52338
-6.42122
-6.33809
-6.27391
-6.22855
-6.20189
-6.19378
-6.20407
-6.23259
-6.27912
-6.34349
-6.42584
-9.12211
-8.85268
-8.60168
-8.36952
-8.15672
-7.96361
-7.79043
-7.63734
-7.50441
-7.39164
-7.29901
-7.22643
-7.17382
-7.14103
-7.12794
-7.1344
-7.16023
-7.20517
-7.26906
-7.35209
-10.4328
-10.1408
-9.86842
-9.61593
-9.38391
-9.17271
-8.98259
-8.81372
-8.66618
-8.54001
-8.43518
-8.35164
-8.28928
-8.248
-8.22766
-8.22812
-8.24918
-8.29057
-8.35209
-8.434
-12.0244
-11.7056
-11.4074
-11.1304
-10.8751
-10.6419
-10.431
-10.2427
-10.077
-9.93394
-9.81355
-9.71577
-9.64052
-9.58768
-9.55712
-9.54871
-9.56224
-9.59742
-9.65402
-9.73231
-13.9862
-13.6358
-13.3073
-13.0012
-12.7182
-12.4587
-12.2229
-12.011
-11.8232
-11.6595
-11.5198
-11.4041
-11.3124
-11.2445
-11.2004
-11.1799
-11.1828
-11.2088
-11.2577
-11.3294
-16.38
-15.9939
-15.6308
-15.2917
-14.9772
-14.6877
-14.4236
-14.1848
-13.9715
-13.7837
-13.6214
-13.4847
-13.3733
-13.2874
-13.2268
-13.1914
-13.1809
-13.1954
-13.2343
-13.2969
-19.5164
-19.0906
-18.6885
-18.3129
-17.9639
-17.6417
-17.3462
-17.0774
-16.8353
-16.6199
-16.4312
-16.2693
-16.134
-16.0253
-15.9432
-15.8873
-15.8579
-15.855
-15.8785
-15.9264
-24.8531
-24.3822
-23.9457
-23.5406
-23.1647
-22.8171
-22.4973
-22.2052
-21.9407
-21.704
-21.4949
-21.3136
-21.1601
-21.0346
-20.9371
-20.8677
-20.827
-20.8175
-20.8403
-20.8854
-0.377031
-0.443474
-0.519562
-0.605213
-0.700342
-0.804845
-0.91859
-1.04141
-1.17311
-1.31339
-1.4619
-1.6181
-1.7812
-1.94998
-2.12277
-2.29731
-2.46911
-2.62838
-2.75973
-2.88958
-0.698464
-0.767186
-0.845916
-0.934541
-1.03296
-1.14104
-1.25863
-1.38555
-1.52156
-1.66635
-1.81952
-1.9805
-2.14853
-2.32243
-2.50061
-2.6814
-2.86303
-3.03778
-3.19043
-3.36277
-1.04496
-1.11754
-1.20048
-1.29368
-1.397
-1.5103
-1.63342
-1.76613
-1.90819
-2.05925
-2.2189
-2.38658
-2.56153
-2.74273
-2.92882
-3.11861
-3.31113
-3.502
-3.68551
-3.89159
-1.41633
-1.49276
-1.57998
-1.67785
-1.78622
-1.90494
-2.03382
-2.17262
-2.32106
-2.47881
-2.64541
-2.82031
-3.00282
-3.19202
-3.38683
-3.5864
-3.78991
-3.99505
-4.20232
-4.43212
-1.81517
-1.89561
-1.9873
-2.09008
-2.20381
-2.32828
-2.46331
-2.60864
-2.76398
-2.92896
-3.10316
-3.28604
-3.47694
-3.67509
-3.87967
-4.09008
-4.30569
-4.52547
-4.75206
-4.99861
-2.24424
-2.32898
-2.42548
-2.53356
-2.65306
-2.78379
-2.92551
-3.07797
-3.24088
-3.41386
-3.59648
-3.78826
-3.9886
-4.19685
-4.4124
-4.63482
-4.86374
-5.09891
-5.34311
-5.60418
-2.70672
-2.79598
-2.8976
-3.01136
-3.13708
-3.27455
-3.42354
-3.58378
-3.75496
-3.93674
-4.12869
-4.33037
-4.54123
-4.76076
-4.98847
-5.22407
-5.46735
-5.71852
-5.9798
-6.25563
-3.20637
-3.30052
-3.40757
-3.52736
-3.65971
-3.80441
-3.96123
-4.12989
-4.31009
-4.50148
-4.70368
-4.91625
-5.13875
-5.37071
-5.61178
-5.86171
-6.12042
-6.38824
-6.66674
-6.95838
-3.74878
-3.84783
-3.96051
-4.08661
-4.22597
-4.37836
-4.54354
-4.72124
-4.91117
-5.11298
-5.32633
-5.5508
-5.78601
-6.03155
-6.28713
-6.55256
-6.82777
-7.11307
-7.40944
-7.71827
-4.34065
-4.44465
-4.56316
-4.69576
-4.84241
-5.00286
-5.17688
-5.36418
-5.56449
-5.77748
-6.00281
-6.24012
-6.48906
-6.74927
-7.02049
-7.30253
-7.59535
-7.89909
-8.21433
-8.54185
-4.99136
-5.10026
-5.22439
-5.36371
-5.51781
-5.68657
-5.86976
-6.06711
-6.27833
-6.50313
-6.74118
-6.99216
-7.25574
-7.5316
-7.81949
-8.11922
-8.4307
-8.75394
-9.08919
-9.43694
-5.71384
-5.82733
-5.957
-6.10266
-6.26423
-6.44135
-6.63385
-6.84149
-7.06398
-7.30103
-7.55236
-7.81767
-8.09663
-8.38895
-8.69439
-9.01274
-9.34385
-9.6876
-10.044
-10.4135
-6.52624
-6.64368
-6.77835
-6.92997
-7.09847
-7.28393
-7.48567
-7.70346
-7.93723
-8.1867
-8.45159
-8.73159
-9.02641
-9.33575
-9.65937
-9.99705
-10.3486
-10.7137
-11.0923
-11.4847
-7.45437
-7.57469
-7.7134
-7.87021
-8.04492
-8.2375
-8.44875
-8.6759
-8.9206
-9.1822
-9.46045
-9.7551
-10.0658
-10.3924
-10.7345
-11.0919
-11.4643
-11.8514
-12.2529
-12.6691
-8.53644
-8.65795
-8.79907
-8.9596
-9.13938
-9.33792
-9.55476
-9.79214
-10.0475
-10.3202
-10.6111
-10.9198
-11.2462
-11.5897
-11.9501
-12.3271
-12.7204
-13.1295
-13.5541
-13.9945
-9.8324
-9.95254
-10.0936
-10.2556
-10.4383
-10.6413
-10.8642
-11.107
-11.3699
-11.6535
-11.9562
-12.2783
-12.6194
-12.9788
-13.3562
-13.7517
-14.1649
-14.5955
-15.0426
-15.5067
-11.4238
-11.5394
-11.6776
-11.8383
-12.0212
-12.2259
-12.4523
-12.7001
-12.9692
-13.2599
-13.5727
-13.9065
-14.2595
-14.6311
-15.0223
-15.4338
-15.865
-16.3153
-16.7834
-17.2694
-13.3815
-13.4895
-13.6217
-13.7778
-13.9565
-14.1583
-14.3832
-14.6311
-14.9019
-15.1948
-15.5094
-15.8458
-16.2058
-16.5898
-16.9962
-17.4235
-17.8715
-18.3397
-18.8272
-19.333
-15.9966
-16.0885
-16.2045
-16.346
-16.5143
-16.7087
-16.9284
-17.1729
-17.4419
-17.7351
-18.0518
-18.3918
-18.7552
-19.1427
-19.5541
-19.9887
-20.4465
-20.928
-21.4332
-21.9571
-20.9272
-20.9995
-21.1028
-21.2347
-21.3941
-21.5802
-21.7926
-22.0309
-22.2948
-22.5839
-22.898
-23.237
-23.6012
-23.9908
-24.4058
-24.8463
-25.3135
-25.811
-26.3416
-26.8874
-27.4042
-22.4917
-19.8567
-17.7734
-15.9877
-14.4506
-13.0999
-11.8907
-10.7958
-9.7971
-8.88158
-8.03952
-7.2633
-6.54672
-5.88457
-5.27233
-4.70475
-4.17624
-3.6953
-3.2909
-27.9489
-23.0426
-20.396
-18.2925
-16.4829
-14.9202
-13.5435
-12.3087
-11.1895
-10.1681
-9.23183
-8.37106
-7.57836
-6.84764
-6.17388
-5.55266
-4.97924
-4.45124
-3.98179
-3.5793
-28.5222
-23.6123
-20.9525
-18.8276
-16.9929
-15.4033
-13.9995
-12.7384
-11.594
-10.5493
-9.59168
-8.71171
-7.90201
-7.15653
-6.47021
-5.83854
-5.25689
-4.72299
-4.24641
-3.82441
-29.12
-24.2016
-21.5263
-19.3785
-17.5171
-15.8994
-14.4673
-13.1788
-12.0085
-10.9397
-9.96003
-9.06012
-8.23258
-7.47123
-6.77081
-6.12655
-5.53355
-4.98888
-4.4993
-4.05856
-29.7389
-24.8098
-22.1166
-19.9447
-18.055
-16.4077
-14.9462
-13.6293
-12.4322
-11.3385
-10.336
-9.41544
-8.56925
-7.79113
-7.07555
-6.41744
-5.81161
-5.25455
-4.75116
-4.29428
-30.3777
-25.4374
-22.7216
-20.525
-18.6057
-16.9275
-15.4355
-14.0892
-12.8644
-11.745
-10.7189
-9.77698
-8.91146
-8.11585
-7.38438
-6.7117
-6.09239
-5.5226
-5.00594
-4.53497
-31.0351
-26.083
-23.341
-21.1185
-19.1684
-17.458
-15.9343
-14.5576
-13.3043
-12.1584
-11.1082
-10.1443
-9.25888
-8.4453
-7.69754
-7.01
-6.37712
-5.79479
-5.26554
-4.78188
-31.7098
-26.7444
-23.9745
-21.7244
-19.7422
-17.9983
-16.4419
-15.0339
-13.7511
-12.5782
-11.5032
-10.5168
-9.6112
-8.77936
-8.01509
-7.31261
-6.66622
-6.07164
-5.53038
-5.03496
-32.4005
-27.4203
-24.6212
-22.3419
-20.3261
-18.5477
-16.9575
-15.5172
-14.2044
-13.0037
-11.9035
-10.8943
-9.96808
-9.11778
-8.33693
-7.61953
-6.95976
-6.35315
-5.8003
-5.29368
-33.1059
-28.1094
-25.2803
-22.97
-20.9194
-19.1053
-17.4802
-16.0068
-14.6632
-13.4342
-12.3083
-11.276
-10.3291
-9.46024
-8.66276
-7.93048
-7.25744
-6.63897
-6.07477
-5.55734
-33.8248
-28.8107
-25.9506
-23.6077
-21.5211
-19.6701
-18.0091
-16.5019
-15.1269
-13.8692
-12.7173
-11.6616
-10.6938
-9.80627
-8.99217
-8.24504
-7.55881
-6.92857
-6.35316
-5.82513
-34.556
-29.523
-26.6309
-24.2541
-22.13
-20.2411
-18.5435
-17.0017
-15.5946
-14.3078
-13.1296
-12.0504
-11.0616
-10.1553
-9.32461
-8.56268
-7.86329
-7.22131
-6.63475
-6.09627
-35.2985
-30.2453
-27.3201
-24.9079
-22.7453
-20.8174
-19.0823
-17.5052
-16.0657
-14.7493
-13.5446
-12.4417
-11.4318
-10.5069
-9.65949
-8.88277
-8.17024
-7.51652
-6.91883
-6.36999
-36.0512
-30.9763
-28.017
-25.5681
-23.3657
-21.3979
-19.6245
-18.0116
-16.5392
-15.193
-13.9616
-12.8348
-11.8038
-10.8602
-9.99617
-9.20468
-8.47902
-7.81352
-7.20469
-6.64556
-36.8128
-31.7148
-28.7204
-26.2335
-23.9902
-21.9817
-20.1692
-18.52
-17.0142
-15.638
-14.3797
-13.2291
-12.1769
-11.2146
-10.334
-9.52776
-8.78896
-8.11165
-7.49164
-6.9223
-37.5823
-32.4595
-29.4289
-26.9028
-24.6177
-22.5675
-20.7154
-19.0293
-17.49
-16.0835
-14.7983
-13.6238
-12.5505
-11.5694
-10.6723
-9.85133
-9.0994
-8.41026
-7.77904
-7.19955
-38.3592
-33.2092
-30.1413
-27.5748
-25.2468
-23.1542
-21.2619
-19.5386
-17.9655
-16.5287
-15.2165
-14.0181
-12.9237
-11.924
-11.0104
-10.1747
-9.4097
-8.7087
-8.06626
-7.47671
-39.1448
-33.9634
-30.8559
-28.2479
-25.8762
-23.7405
-21.8076
-20.0468
-18.4397
-16.9725
-15.6333
-14.4112
-13.2958
-12.2776
-11.3476
-10.4973
-9.71922
-9.00636
-8.3527
-7.75322
-39.9394
-34.721
-31.571
-28.9203
-26.5044
-24.3253
-22.3514
-20.5529
-18.9118
-17.4142
-16.0482
-14.8024
-13.6661
-12.6296
-11.6832
-10.8184
-10.0273
-9.30263
-8.63778
-8.02856
-40.7302
-35.4769
-32.2849
-29.5912
-27.1308
-24.908
-22.8928
-21.0566
-19.3813
-17.8535
-16.4606
-15.1912
-14.0343
-12.9794
-12.0169
-11.1377
-10.3336
-9.59707
-8.92106
-8.30228
-6.78099
-4.67488
-3.31458
-2.26897
-1.53437
-0.994829
-0.607273
-0.332122
-0.141056
-0.0123309
0.0706781
0.120603
0.14703
0.157115
0.156172
0.148075
0.135636
0.120856
0.105145
0.0894699
0.0744757
0.0605733
0.0479991
0.0368728
0.0272157
0.0190074
0.0121542
0.00659131
0.00214928
-0.00120119
-0.00372282
-0.00530832
-0.00640504
-0.00660323
-0.00673682
-0.00581168
-0.00540374
-0.00348857
-0.00294493
3.73986e-05
-7.03669
-4.85728
-3.46085
-2.38415
-1.62543
-1.06847
-0.667345
-0.381747
-0.182437
-0.0470891
0.0413416
0.0957673
0.125975
0.139262
0.14105
0.135287
0.124847
0.111781
0.0975371
0.0831164
0.0691924
0.0562005
0.0443982
0.0339237
0.0248142
0.017064