/*--------------------------------*- C++ -*----------------------------------*\
| =========                 |                                                 |
| \\      /  F ield         | OpenFOAM: The Open Source CFD Toolbox           |
|  \\    /   O peration     | Version:  v1912                                 |
|   \\  /    A nd           | Website:  www.openfoam.com                      |
|    \\/     M anipulation  |                                                 |
\*---------------------------------------------------------------------------*/
FoamFile
{
    version     2.0;
    format      ascii;
    class       volVectorField;
    location    "72.5";
    object      U;
}
// * * * * * * * * * * * * * * * * * * * * * * * * * * * * * * * * * * * * * //

dimensions      [0 1 -1 0 0 0 0];


internalField   nonuniform List<vector> 
9600
(
(0.456544 -9.36161 -1.54174e-19)
(0.15977 -8.63233 0)
(0.242039 -8.15952 -9.05392e-20)
(0.320876 -7.84047 0)
(0.388273 -7.60546 0)
(0.456755 -7.41092 -3.18598e-20)
(0.52234 -7.23281 -5.50642e-22)
(0.581888 -7.05886 2.66347e-20)
(0.634623 -6.88375 0)
(0.680577 -6.70603 -4.5163e-20)
(0.720141 -6.52633 0)
(0.753939 -6.34618 -1.8309e-21)
(0.782712 -6.16741 -2.60775e-21)
(0.807216 -5.9917 -3.15621e-20)
(0.828175 -5.82044 2.66204e-20)
(0.846244 -5.65461 -2.61537e-20)
(0.861975 -5.4947 2.32875e-20)
(0.875916 -5.3406 0)
(0.888846 -5.19157 -1.85257e-20)
(0.900497 -5.04608 2.0307e-20)
(0.824478 -9.35123 -3.0845e-19)
(0.502231 -8.66046 1.17572e-20)
(0.567702 -8.20388 1.86499e-19)
(0.635041 -7.89435 -1.58972e-19)
(0.693436 -7.66394 1.56778e-19)
(0.753884 -7.46989 0)
(0.8116 -7.28947 6.07695e-20)
(0.863106 -7.11152 -6.06312e-20)
(0.907553 -6.93151 -1.05171e-19)
(0.94503 -6.74859 1.33032e-19)
(0.976038 -6.56378 -8.63733e-20)
(1.00133 -6.37887 -3.52666e-20)
(1.02175 -6.19583 7.1184e-20)
(1.03815 -6.01642 0)
(1.05131 -5.84205 0)
(1.06194 -5.67368 9.97947e-20)
(1.07058 -5.51176 -1.69199e-19)
(1.0778 -5.35616 0)
(1.08447 -5.20599 0)
(1.09005 -5.05963 -7.82152e-20)
(1.19275 -9.32732 6.373e-19)
(0.846964 -8.67573 0)
(0.896925 -8.23557 -3.77379e-19)
(0.953505 -7.93564 -3.42067e-19)
(1.0032 -7.70981 0)
(1.05559 -7.51622 5.46703e-19)
(1.10521 -7.3335 -5.16143e-19)
(1.14832 -7.15165 1.01182e-19)
(1.18408 -6.96695 -2.25249e-19)
(1.21266 -6.7791 -3.74626e-19)
(1.23472 -6.58952 5.11424e-19)
(1.25114 -6.40024 -3.16216e-19)
(1.2629 -6.21335 -1.41726e-19)
(1.27093 -6.03067 0)
(1.27609 -5.8536 5.52976e-21)
(1.2791 -5.68311 1.05189e-19)
(1.28053 -5.51961 4.5475e-20)
(1.28095 -5.3629 0)
(1.2813 -5.21198 8.24379e-20)
(1.28072 -5.06516 8.44901e-20)
(1.56027 -9.2895 -8.62193e-19)
(1.19338 -8.67786 -4.04056e-19)
(1.22915 -8.25437 3.91906e-19)
(1.2757 -7.96405 6.73563e-19)
(1.31698 -7.74272 -3.26921e-19)
(1.36128 -7.54953 5.80693e-21)
(1.40255 -7.36456 2.53884e-19)
(1.43692 -7.17895 2.29968e-19)
(1.46357 -6.98978 4.21204e-19)
(1.48286 -6.79733 0)
(1.49559 -6.60337 1.62284e-19)
(1.50282 -6.41015 -1.72221e-19)
(1.50563 -6.21986 1.03543e-20)
(1.50507 -6.03435 2.71504e-19)
(1.50204 -5.85504 2.32778e-19)
(1.4973 -5.68286 -3.28607e-19)
(1.49142 -5.51818 1.0822e-19)
(1.48499 -5.36076 -1.76227e-19)
(1.47901 -5.20947 1.75394e-19)
(1.47218 -5.06263 -8.4534e-20)
(1.92671 -9.23771 4.34829e-19)
(1.54119 -8.6667 0)
(1.56397 -8.26001 3.8489e-19)
(1.60113 -7.97924 0)
(1.63423 -7.76231 0)
(1.67035 -7.56948 -3.00491e-19)
(1.70301 -7.38231 -5.37658e-19)
(1.72827 -7.19311 -4.55896e-19)
(1.74543 -6.99976 1.84515e-20)
(1.75503 -6.80307 -1.97017e-19)
(1.75809 -6.60516 0)
(1.75581 -6.40846 -1.62697e-19)
(1.74943 -6.21524 -2.93094e-19)
(1.74007 -6.02738 2.57761e-19)
(1.7287 -5.84629 -7.32554e-19)
(1.71609 -5.67284 1.18552e-19)
(1.70283 -5.50741 9.3975e-20)
(1.68953 -5.34968 -1.93778e-19)
(1.67721 -5.19842 -8.46729e-20)
(1.66412 -5.05198 2.52493e-19)
(2.29154 -9.17187 4.19607e-19)
(1.8899 -8.64201 4.16165e-19)
(1.90087 -8.2522 0)
(1.92923 -7.98087 0)
(1.95434 -7.76824 -6.24681e-19)
(1.98218 -7.57575 3.41399e-19)
(2.00595 -7.38647 8.21681e-19)
(2.02172 -7.1939 0)
(2.02901 -6.99668 2.17159e-19)
(2.02856 -6.79616 1.97018e-19)
(2.02161 -6.59475 -3.48093e-19)
(2.00956 -6.39506 5.04794e-19)
(1.99375 -6.19941 1.48135e-19)
(1.97542 -6.0097 0)
(1.95558 -5.82729 1.23324e-19)
(1.93503 -5.65304 5.53617e-19)
(1.91435 -5.48727 -3.29884e-19)
(1.89416 -5.32963 3.70705e-19)
(1.87555 -5.1788 -7.04933e-19)
(1.85618 -5.03322 8.14929e-19)
(2.65423 -9.09194 4.26761e-19)
(2.23899 -8.60359 -2.25982e-18)
(2.23931 -8.23069 0)
(2.25941 -7.96866 0)
(2.27668 -7.76021 0)
(2.29611 -7.56804 -6.06008e-19)
(2.31069 -7.37679 0)
(2.31663 -7.1811 -9.71417e-19)
(2.31366 -6.98038 8.9606e-19)
(2.30281 -6.77646 -8.32253e-19)
(2.28555 -6.57205 0)
(2.26347 -6.36988 0)
(2.23805 -6.17233 0)
(2.21061 -5.98127 -2.81637e-19)
(2.1822 -5.79802 0)
(2.15365 -5.62342 0)
(2.12552 -5.45775 -4.13421e-19)
(2.09847 -5.30061 4.06199e-19)
(2.07362 -5.15059 0)
(2.048 -5.00632 0)
(3.01424 -8.99794 -1.38834e-18)
(2.58792 -8.55128 8.99689e-19)
(2.5787 -8.19521 0)
(2.59106 -7.94232 0)
(2.6006 -7.73794 0)
(2.61147 -7.54612 5.76411e-19)
(2.61657 -7.35305 -5.78168e-19)
(2.6123 -7.15453 -8.90005e-21)
(2.59872 -6.95071 -8.97209e-19)
(2.57715 -6.74388 8.40085e-19)
(2.54931 -6.53698 -3.79009e-19)
(2.51698 -6.33288 6.59081e-19)
(2.48178 -6.13397 -4.64234e-20)
(2.44511 -5.94207 -5.96257e-19)
(2.40806 -5.75849 -5.02574e-19)
(2.37147 -5.58399 4.93764e-19)
(2.33589 -5.41884 0)
(2.30203 -5.26261 0)
(2.27101 -5.11379 3.57343e-19)
(2.23921 -4.97129 -3.93238e-19)
(3.37099 -8.88988 9.27927e-19)
(2.93613 -8.48494 8.83936e-19)
(2.91846 -8.14556 -1.67547e-18)
(2.92354 -7.90162 7.91455e-19)
(2.92544 -7.7012 0)
(2.92757 -7.50977 6.16792e-19)
(2.92287 -7.31508 -5.41504e-19)
(2.90805 -7.11406 1.53037e-18)
(2.88352 -6.90758 -2.37012e-20)
(2.85092 -6.69833 0)
(2.81225 -6.48951 7.64708e-19)
(2.76949 -6.28404 0)
(2.72439 -6.08432 0)
(2.67839 -5.89213 -2.72784e-19)
(2.63266 -5.7087 5.50165e-19)
(2.58802 -5.53477 0)
(2.54501 -5.37058 4.31575e-19)
(2.50438 -5.21565 1.79679e-19)
(2.46729 -5.06841 -3.89828e-19)
(2.42939 -4.92815 3.78534e-19)
(3.72395 -8.76783 -9.55768e-19)
(3.28301 -8.40446 8.98363e-19)
(3.25796 -8.08155 -2.55862e-18)
(3.25618 -7.84634 8.04592e-19)
(3.25049 -7.64979 0)
(3.24369 -7.45881 -1.24496e-18)
(3.22889 -7.26273 5.98073e-19)
(3.20319 -7.05959 0)
(3.16738 -6.85092 -4.74881e-19)
(3.12348 -6.6398 -8.23702e-19)
(3.07378 -6.42962 -7.17799e-19)
(3.02042 -6.22336 5.34645e-20)
(2.9653 -6.0234 6.7136e-19)
(2.90993 -5.83147 2.72559e-19)
(2.85548 -5.64871 -3.79588e-20)
(2.80279 -5.4758 -5.13268e-19)
(2.75239 -5.31298 -2.2958e-19)
(2.70506 -5.15975 -2.06985e-19)
(2.662 -5.0145 5.52176e-19)
(2.61813 -4.87695 -8.22787e-19)
(4.07255 -8.63188 9.5577e-19)
(3.62798 -8.30977 -4.66565e-20)
(3.59655 -8.00305 8.22498e-19)
(3.58832 -7.77633 0)
(3.57505 -7.58354 -6.81015e-19)
(3.55913 -7.39311 1.30859e-18)
(3.53392 -7.19592 -1.11866e-18)
(3.497 -6.99105 1.10084e-18)
(3.44962 -6.78069 -4.461e-19)
(3.39419 -6.56827 9.05563e-19)
(3.33325 -6.35732 3.92181e-19)
(3.26918 -6.15088 0)
(3.20397 -5.95127 0)
(3.13918 -5.76013 -2.82618e-19)
(3.07602 -5.57854 3.83773e-20)
(3.01529 -5.40712 1.01077e-18)
(2.95753 -5.24611 -2.50069e-19)
(2.90357 -5.09497 8.2599e-19)
(2.85466 -4.95207 1.44585e-19)
(2.80496 -4.81771 -8.40337e-19)
(4.41622 -8.48212 -2.94098e-18)
(3.97043 -8.20082 -9.87296e-19)
(3.9336 -7.90994 -2.63278e-18)
(3.91925 -7.69145 -1.60171e-18)
(3.89841 -7.50235 -7.5977e-19)
(3.87314 -7.31259 -7.42579e-19)
(3.83723 -7.11457 -2.42427e-18)
(3.78879 -6.90842 -4.90884e-20)
(3.72957 -6.69691 -1.94814e-18)
(3.66238 -6.48377 3.02298e-20)
(3.59007 -6.27267 -8.08908e-19)
(3.51518 -6.06665 -7.37133e-19)
(3.43983 -5.86797 6.72925e-19)
(3.36561 -5.67818 -6.15423e-19)
(3.29373 -5.49827 -5.63846e-19)
(3.225 -5.32881 -5.17498e-19)
(3.15993 -5.17001 -1.38957e-18)
(3.09942 -5.02135 4.94357e-19)
(3.04476 -4.88118 1.1998e-18)
(2.98941 -4.75048 -1.27693e-18)
(4.75443 -8.31871 3.95586e-18)
(4.30976 -8.07764 4.86007e-18)
(4.26845 -7.80216 8.34921e-19)
(4.24829 -7.59161 4.00052e-18)
(4.21983 -7.40612 -7.84119e-19)
(4.185 -7.21718 3.91826e-18)
(4.1381 -7.01868 1.14626e-18)
(4.07785 -6.81171 3.21802e-18)
(4.00656 -6.5996 -9.83648e-19)
(3.92742 -6.38635 2.7236e-18)
(3.84361 -6.17573 1.62935e-18)
(3.75784 -5.97074 1.48493e-18)
(3.67232 -5.77357 -2.01048e-18)
(3.58868 -5.58569 1.88339e-18)
(3.50811 -5.40796 1.13639e-18)
(3.43141 -5.24091 1.0432e-18)
(3.35908 -5.08475 9.59273e-19)
(3.29208 -4.93894 7.3692e-21)
(3.23179 -4.80187 8.1434e-19)
(3.171 -4.67529 8.47482e-19)
(5.08665 -8.1418 -2.93768e-18)
(4.64539 -7.94023 1.08272e-18)
(4.60044 -7.67966 2.67865e-18)
(4.57472 -7.47676 -3.26355e-18)
(4.53859 -7.29483 7.54133e-19)
(4.49397 -7.10689 -2.62146e-18)
(4.4358 -6.90826 1.28484e-18)
(4.36349 -6.70098 -2.15321e-18)
(4.2799 -6.48884 4.90512e-20)
(4.18869 -6.2761 1.19571e-20)
(4.09328 -6.06657 -1.65185e-18)
(3.99659 -5.86322 -7.47796e-19)
(3.90089 -5.66816 1.37507e-18)
(3.80784 -5.48272 8.76548e-21)
(3.71862 -5.30768 -3.72053e-20)
(3.63398 -5.1435 -1.08879e-18)
(3.55442 -4.99039 -4.83523e-19)
(3.48098 -4.8478 -2.71589e-20)
(3.41517 -4.71419 -8.48703e-19)
(3.34916 -4.59226 -4.27992e-19)
(5.41238 -7.95158 0)
(4.97671 -7.78866 -2.00062e-18)
(4.92892 -7.54244 2.37625e-20)
(4.89785 -7.34687 3.25912e-18)
(4.85395 -7.16848 1.36421e-18)
(4.79932 -6.98174 -1.42e-18)
(4.72962 -6.78339 -1.22336e-18)
(4.64502 -6.5763 0)
(4.54897 -6.36474 -9.73889e-19)
(4.44555 -6.15313 9.29471e-19)
(4.3385 -5.94531 -3.90848e-20)
(4.23088 -5.74421 0)
(4.12502 -5.55181 -6.92242e-19)
(4.02259 -5.36933 5.99648e-19)
(3.92474 -5.19747 5.00997e-19)
(3.83217 -5.03659 -6.04755e-19)
(3.74537 -4.88691 -5.24666e-19)
(3.6655 -4.7479 9.11144e-19)
(3.59416 -4.61813 -8.40892e-19)
(3.52305 -4.50147 4.42606e-19)
(5.73114 -7.74822 3.0352e-18)
(5.30316 -7.62299 -2.06049e-18)
(5.25321 -7.39052 -1.75863e-18)
(5.21694 -7.20199 8.18836e-19)
(5.16518 -7.02712 -1.58861e-18)
(5.10032 -6.84183 0)
(5.01886 -6.64416 0)
(4.92177 -6.43782 0)
(4.81312 -6.22744 -4.44891e-20)
(4.69744 -6.01758 -1.86536e-18)
(4.57873 -5.81209 8.81001e-19)
(4.46019 -5.61381 7.45149e-19)
(4.34421 -5.42462 6.30604e-19)
(4.23245 -5.24562 -2.58768e-18)
(4.12599 -5.07737 1.2268e-18)
(4.02549 -4.9202 0)
(3.93142 -4.7743 -3.04428e-20)
(3.84498 -4.63919 -1.41318e-18)
(3.76795 -4.51362 -5.69947e-21)
(3.6917 -4.40256 -4.43096e-19)
(6.04258 -7.532 -2.06449e-18)
(5.62419 -7.44337 -1.08632e-18)
(5.57263 -7.22397 8.18644e-19)
(5.5313 -7.04218 -1.43944e-19)
(5.47155 -6.87083 -4.63109e-18)
(5.39625 -6.68725 4.19137e-18)
(5.30281 -6.49073 -4.88157e-20)
(5.19307 -6.2857 1.14808e-18)
(5.07173 -6.0771 1.03011e-18)
(4.94375 -5.86961 9.45909e-19)
(4.81341 -5.66705 8.60806e-19)
(4.68402 -5.47216 1.53845e-18)
(4.558 -5.28669 -7.40482e-19)
(4.43697 -5.11163 1.91952e-18)
(4.32197 -4.94745 -1.24094e-18)
(4.21358 -4.79439 -5.13385e-19)
(4.11221 -4.65266 2.06205e-18)
(4.01911 -4.52178 1.37771e-18)
(3.93626 -4.40055 -2.79735e-20)
(3.85508 -4.29485 0)
(6.34667 -7.30341 -1.04971e-18)
(5.93938 -7.24997 2.07604e-18)
(5.88654 -7.04285 1.81767e-18)
(5.84017 -6.86747 -1.45922e-19)
(5.77232 -6.69971 -1.57128e-18)
(5.68636 -6.51816 7.06933e-20)
(5.58078 -6.32328 1.31838e-20)
(5.45827 -6.12012 1.17466e-20)
(5.3242 -5.91394 0)
(5.18396 -5.70943 9.25182e-19)
(5.04205 -5.51037 -1.76095e-18)
(4.90189 -5.31937 -7.53604e-19)
(4.7659 -5.13809 7.48133e-19)
(4.63567 -4.9674 -6.56471e-19)
(4.51214 -4.80768 6.08013e-19)
(4.39584 -4.65917 -5.53522e-19)
(4.28716 -4.52205 4.90134e-21)
(4.18749 -4.39571 -4.70268e-19)
(4.09908 -4.27886 -4.34428e-19)
(4.01374 -4.1792 -4.34726e-19)
(6.64375 -7.06292 0)
(6.24851 -7.04273 -1.01225e-18)
(6.19426 -6.84708 1.00063e-18)
(6.1428 -6.67797 1.74591e-18)
(6.06672 -6.51394 -1.57997e-18)
(5.96995 -6.33481 1.36498e-18)
(5.85208 -6.14208 -2.62456e-18)
(5.71676 -5.94141 -2.3308e-18)
(5.56999 -5.73825 -1.01686e-18)
(5.41758 -5.53731 4.44368e-20)
(5.26423 -5.34227 -8.42087e-19)
(5.11344 -5.15562 3.4936e-20)
(4.96758 -4.97889 0)
(4.82813 -4.81283 -1.28774e-18)
(4.69593 -4.65779 6.57162e-19)
(4.57137 -4.51403 0)
(4.45489 -4.38165 -5.14701e-19)
(4.34809 -4.2598 -9.25404e-19)
(4.25321 -4.1481 9.09302e-19)
(4.16269 -4.05919 4.4887e-19)
(6.93343 -6.80975 0)
(6.55093 -6.82092 0)
(6.4951 -6.63659 -1.85627e-18)
(6.43843 -6.47394 -1.59618e-18)
(6.35406 -6.31392 3.23963e-18)
(6.24639 -6.13761 0)
(6.11616 -5.94758 0)
(5.96803 -5.75 1.17096e-18)
(5.80866 -5.55046 0)
(5.64425 -5.35367 0)
(5.47969 -5.16314 0)
(5.31852 -4.98122 0)
(5.16304 -4.80927 0)
(5.01455 -4.64792 0)
(4.87364 -4.49745 0)
(4.74041 -4.35801 0)
(4.61513 -4.22947 0)
(4.49888 -4.11116 0)
(4.39177 -4.00616 0)
(4.28766 -3.93176 0)
(10.0435 0.0877411 1.47378e-19)
(10.023 -0.307649 2.8675e-19)
(9.98721 -0.700361 -2.94508e-19)
(9.93668 -1.09025 5.87189e-19)
(9.87115 -1.47698 -5.87189e-19)
(9.7905 -1.86005 -5.54889e-19)
(9.69482 -2.23892 -5.5334e-19)
(9.58434 -2.61303 1.74263e-18)
(9.45928 -2.98184 -1.16103e-18)
(9.3199 -3.3448 1.15129e-18)
(9.16649 -3.70136 -1.1513e-18)
(8.99936 -4.05098 1.14279e-18)
(8.81882 -4.39315 -2.26624e-18)
(8.62524 -4.72737 3.33736e-18)
(8.41898 -5.05315 0)
(8.20044 -5.37004 -3.27882e-18)
(7.96999 -5.67761 1.63557e-20)
(7.72818 -5.97552 3.30426e-18)
(7.47509 -6.26359 0)
(7.21242 -6.54116 0)
(10.1207 -0.210716 0)
(10.0794 -0.606835 -1.50435e-20)
(10.0213 -0.999153 0)
(9.94717 -1.38733 5.61924e-19)
(9.85713 -1.77094 5.85169e-19)
(9.75143 -2.14938 -1.69368e-18)
(9.63034 -2.52202 2.9486e-18)
(9.49424 -2.88823 -1.16399e-18)
(9.34349 -3.24741 -1.10956e-18)
(9.17848 -3.59898 -1.10503e-18)
(8.99963 -3.94237 4.45766e-20)
(8.80738 -4.27703 1.13217e-18)
(8.60219 -4.60245 -5.62837e-18)
(8.38455 -4.91811 -1.18028e-18)
(8.15493 -5.22357 2.24899e-18)
(7.91387 -5.51838 2.24596e-18)
(7.66184 -5.80217 1.14108e-18)
(7.3994 -6.07458 -2.20035e-18)
(7.12666 -6.33538 1.042e-18)
(6.84457 -6.58422 0)
(10.0726 -0.149213 1.32718e-19)
(10.0348 -0.540902 -2.71784e-19)
(9.97955 -0.929414 7.84861e-19)
(9.90735 -1.31406 -5.56027e-19)
(9.81855 -1.69417 -5.3016e-19)
(9.71349 -2.06905 5.53512e-19)
(9.59257 -2.43797 0)
(9.45617 -2.80024 0)
(9.30473 -3.15518 2.10172e-18)
(9.13868 -3.50215 3.13538e-18)
(8.9585 -3.84055 -9.91668e-19)
(8.76469 -4.16976 3.10038e-18)
(8.55777 -4.48924 -9.87494e-19)
(8.33828 -4.79844 -3.01981e-18)
(8.10676 -5.09686 1.36265e-20)
(7.8638 -5.38404 1.93841e-18)
(7.60991 -5.65954 -8.74965e-19)
(7.34569 -5.92295 -1.90702e-18)
(7.07149 -6.1739 -1.03004e-18)
(6.78805 -6.41189 1.87419e-18)
(9.90658 -0.112489 0)
(9.87556 -0.49495 2.29144e-19)
(9.82726 -0.875064 2.28202e-19)
(9.76186 -1.25193 -9.37532e-19)
(9.6797 -1.62475 0)
(9.58111 -1.99275 0)
(9.46646 -2.35516 0)
(9.33613 -2.71124 0)
(9.19052 -3.06026 -9.92085e-19)
(9.03009 -3.40154 -9.88318e-19)
(8.8553 -3.73441 0)
(8.66667 -4.05824 1.8686e-18)
(8.46473 -4.3724 -4.61996e-18)
(8.25002 -4.67633 3.71485e-18)
(8.02313 -4.96947 -3.60067e-18)
(7.78462 -5.2513 -8.73705e-19)
(7.53509 -5.52132 1.56488e-19)
(7.27515 -5.77908 1.54891e-19)
(7.0053 -6.0241 -1.77939e-18)
(6.7263 -6.25591 -7.0892e-20)
(9.6536 -0.099006 0)
(9.63 -0.46924 -2.25987e-19)
(9.58954 -0.837784 0)
(9.53232 -1.20373 4.52098e-19)
(9.45855 -1.56625 4.30972e-19)
(9.36852 -1.92454 3.94016e-19)
(9.26256 -2.27783 0)
(9.14099 -2.62534 0)
(9.00419 -2.96635 0)
(8.85257 -3.30012 0)
(8.68659 -3.62597 8.13916e-19)
(8.50671 -3.94322 8.76873e-19)
(8.31346 -4.25124 8.71869e-19)
(8.10737 -4.5494 -8.85205e-19)
(7.88899 -4.83712 -1.52349e-18)
(7.65891 -5.11383 1.72932e-18)
(7.41772 -5.379 3.35283e-18)
(7.16604 -5.63209 1.63081e-18)
(6.90445 -5.87262 0)
(6.63365 -6.10009 -1.53701e-18)
(9.34663 -0.090205 4.645e-20)
(9.33 -0.446265 0)
(9.29715 -0.801207 -7.61197e-19)
(9.24808 -1.15417 1.82573e-23)
(9.18296 -1.50435 1.6179e-20)
(9.10201 -1.85093 -6.85547e-20)
(9.0055 -2.19316 0)
(8.89371 -2.53026 3.09427e-20)
(8.76697 -2.8615 -7.72743e-19)
(8.62565 -3.18616 1.50557e-18)
(8.47016 -3.50353 -1.56991e-18)
(8.30093 -3.81293 8.57648e-19)
(8.11844 -4.11371 -4.49572e-18)
(7.92319 -4.40523 2.96521e-18)
(7.71571 -4.68687 1.57179e-18)
(7.49656 -4.95805 0)
(7.26631 -5.2182 -2.90128e-18)
(7.02557 -5.46676 -6.15437e-20)
(6.77493 -5.7032 -2.85716e-18)
(6.51504 -5.927 2.96961e-18)
(9.01432 -0.0853963 4.17744e-20)
(9.00333 -0.426458 -8.75111e-20)
(8.97685 -0.76687 7.17508e-19)
(8.93487 -1.10583 -1.40787e-20)
(8.87747 -1.44255 7.17361e-19)
(8.80483 -1.77627 -1.0835e-18)
(8.71719 -2.10622 0)
(8.61477 -2.43168 7.30419e-19)
(8.49786 -2.75192 6.68795e-19)
(8.36679 -3.06624 -7.26328e-19)
(8.22191 -3.37393 1.32891e-18)
(8.06361 -3.67433 2.8173e-18)
(7.89233 -3.96679 -1.31023e-18)
(7.70854 -4.25067 -1.42018e-18)
(7.51272 -4.52534 1.36195e-18)
(7.30541 -4.79021 0)
(7.08715 -5.0447 6.49634e-20)
(6.85852 -5.28823 9.81709e-21)
(6.62008 -5.52025 2.70703e-18)
(6.37245 -5.74021 1.25854e-18)
(8.6779 -0.084218 0)
(8.67098 -0.410327 6.26025e-21)
(8.64934 -0.736132 -1.46009e-19)
(8.61293 -1.06088 -6.48419e-19)
(8.56184 -1.38383 6.09512e-19)
(8.49619 -1.70425 0)
(8.41618 -2.02143 1.24057e-18)
(8.32199 -2.33465 -1.36324e-21)
(8.21388 -2.64322 -1.8947e-18)
(8.09212 -2.94647 0)
(7.95705 -3.24372 -1.30776e-18)
(7.809 -3.53433 4.60241e-20)
(7.64838 -3.81766 -3.67618e-18)
(7.47561 -4.09309 6.47883e-21)
(7.29115 -4.36 1.23212e-18)
(7.0955 -4.6178 0)
(6.88917 -4.86591 -1.20934e-18)
(6.6727 -5.10374 8.70731e-21)
(6.44666 -5.33074 1.20064e-18)
(6.21158 -5.54633 -1.23849e-18)
(8.35129 -0.0853022 0)
(8.34698 -0.39704 1.497e-19)
(8.32871 -0.708706 3.10593e-19)
(8.29644 -1.0196 -5.74914e-19)
(8.2502 -1.32902 -2.47377e-20)
(8.19011 -1.63627 -2.87325e-19)
(8.11632 -1.94069 -1.15019e-18)
(8.02901 -2.2416 5.71831e-19)
(7.92838 -2.53834 2.38276e-20)
(7.81469 -2.83028 5.6841e-19)
(7.68823 -3.11677 5.23274e-19)
(7.54931 -3.39719 2.2661e-18)
(7.39829 -3.67094 1.1335e-18)
(7.23558 -3.93742 2.23881e-18)
(7.0616 -4.19604 -1.11647e-18)
(6.87682 -4.44622 3.86871e-20)
(6.68173 -4.68738 -1.10329e-18)
(6.47684 -4.91895 0)
(6.26269 -5.14037 1.0429e-18)
(6.03978 -5.35105 0)
(8.04237 -0.0875231 6.51786e-20)
(8.03952 -0.385761 -1.9089e-19)
(8.02343 -0.684068 5.23574e-19)
(7.99404 -0.981789 -2.61201e-19)
(7.95139 -1.27826 1.89951e-20)
(7.89557 -1.57285 -2.61047e-19)
(7.82671 -1.86491 5.42699e-19)
(7.74496 -2.15381 -5.19394e-19)
(7.65052 -2.43893 5.19391e-19)
(7.5436 -2.71967 9.9617e-19)
(7.42448 -2.99543 -1.07341e-18)
(7.29344 -3.26562 -4.51289e-20)
(7.15082 -3.52967 -3.10709e-18)
(6.99699 -3.78702 5.3815e-21)
(6.83237 -4.0371 4.03019e-20)
(6.65738 -4.27936 2.01426e-18)
(6.47251 -4.51324 -9.9498e-19)
(6.27826 -4.73819 -9.4774e-19)
(6.07514 -4.95363 -3.74682e-20)
(5.86363 -5.15896 0)
(7.75477 -0.0901348 0)
(7.75253 -0.375865 2.42483e-19)
(7.73771 -0.661739 -8.33749e-19)
(7.71024 -0.947139 -2.21202e-19)
(7.67016 -1.23145 4.94694e-19)
(7.61754 -1.51406 0)
(7.55251 -1.79437 0)
(7.4752 -2.0718 4.72855e-19)
(7.38578 -2.34576 -4.72852e-19)
(7.28447 -2.61567 3.98347e-19)
(7.1715 -2.88099 -4.69806e-19)
(7.04715 -3.14117 9.31664e-19)
(6.91174 -3.39565 -1.85871e-18)
(6.76561 -3.64393 1.84911e-18)
(6.60917 -3.88547 3.46856e-20)
(6.44283 -4.11976 -9.51017e-19)
(6.26706 -4.34626 -9.04979e-19)
(6.08237 -4.56443 1.84348e-18)
(5.88926 -4.7737 8.63007e-19)
(5.6882 -4.97345 0)
(7.48927 -0.0926635 1.87899e-21)
(7.48708 -0.366887 1.5921e-19)
(7.47288 -0.641279 3.34265e-19)
(7.44663 -0.915262 2.33967e-19)
(7.40835 -1.18825 2.17039e-19)
(7.35813 -1.45968 2.019e-19)
(7.29606 -1.72897 0)
(7.22227 -1.99559 -8.3435e-19)
(7.13694 -2.25897 -4.30106e-19)
(7.04024 -2.51859 3.66941e-19)
(6.93241 -2.77392 0)
(6.81371 -3.02445 8.49506e-19)
(6.68444 -3.26969 -2.51246e-18)
(6.54492 -3.50914 8.45157e-19)
(6.39556 -3.74234 0)
(6.23676 -3.96879 -8.0359e-19)
(6.06901 -4.18799 -1.62303e-18)
(5.89278 -4.39943 7.98648e-19)
(5.70866 -4.60253 -2.92217e-20)
(5.51706 -4.79666 0)
(7.24499 -0.0948106 3.46681e-21)
(7.24248 -0.358479 -1.03037e-19)
(7.22849 -0.622308 1.98843e-19)
(7.20298 -0.885756 -1.31307e-20)
(7.16597 -1.14827 3.97335e-19)
(7.11754 -1.40931 -6.1023e-19)
(7.05779 -1.66834 0)
(6.98684 -1.92484 5.60677e-20)
(6.90484 -2.1783 0)
(6.81197 -2.42821 -8.14579e-19)
(6.70845 -2.67409 0)
(6.59453 -2.91547 -7.51768e-19)
(6.47049 -3.15188 2.32349e-18)
(6.33666 -3.38288 -1.53966e-18)
(6.1934 -3.60803 7.67614e-19)
(6.04115 -3.82692 -6.79189e-19)
(5.8804 -4.03905 7.84478e-19)
(5.71164 -4.24398 -7.79114e-19)
(5.53551 -4.44109 0)
(5.35245 -4.62976 0)
(7.02014 -0.0964545 4.7149e-20)
(7.01713 -0.350417 0)
(7.0031 -0.604522 0)
(6.97801 -0.858251 -3.77766e-19)
(6.94191 -1.11108 -3.52578e-19)
(6.89487 -1.3625 0)
(6.83697 -1.612 0)
(6.76834 -1.85909 4.98877e-20)
(6.68911 -2.10328 6.98217e-19)
(6.59947 -2.34411 -3.36724e-19)
(6.49962 -2.58111 -3.58748e-19)
(6.38979 -2.81384 1.44919e-18)
(6.27025 -3.0419 -2.15193e-18)
(6.14132 -3.26488 1.38769e-18)
(6.00336 -3.48238 0)
(5.85679 -3.69405 2.78788e-18)
(5.70215 -3.89944 -2.02415e-18)
(5.53993 -4.09821 6.88609e-19)
(5.37092 -4.28965 1.31696e-18)
(5.19552 -4.47319 0)
(6.81262 -0.0975307 -4.05371e-20)
(6.809 -0.342539 0)
(6.79478 -0.58767 -5.22588e-21)
(6.76994 -0.832422 -3.24409e-19)
(6.73452 -1.0763 1.00523e-18)
(6.68858 -1.3188 -1.67218e-19)
(6.63222 -1.55946 0)
(6.56555 -1.7978 1.33206e-18)
(6.4887 -2.03335 -6.85991e-19)
(6.40184 -2.26569 4.45176e-20)
(6.30517 -2.49438 6.3576e-19)
(6.1989 -2.71901 6.51657e-19)
(6.08329 -2.93921 -1.29951e-18)
(5.95864 -3.15462 -1.27107e-18)
(5.8253 -3.36488 -1.24155e-18)
(5.68369 -3.56975 -1.32115e-18)
(5.53437 -3.76878 1.31215e-18)
(5.37786 -3.96183 -6.26408e-19)
(5.21519 -4.14802 -6.67488e-19)
(5.04665 -4.32703 0)
(6.62019 -0.0980188 3.98266e-20)
(6.61593 -0.334742 -1.49541e-19)
(6.60146 -0.571558 -1.54806e-19)
(6.57677 -0.807984 4.63535e-19)
(6.5419 -1.04354 -1.64613e-19)
(6.49691 -1.27777 -1.53872e-19)
(6.44188 -1.51021 0)
(6.37694 -1.7404 -6.32472e-19)
(6.3022 -1.96791 0)
(6.21782 -2.19233 6.27582e-19)
(6.12398 -2.41326 -1.20937e-18)
(6.02089 -2.63031 5.98662e-19)
(5.90879 -2.84313 -1.19365e-18)
(5.78795 -3.05143 1.23176e-18)
(5.6587 -3.25489 6.7042e-19)
(5.52145 -3.45338 0)
(5.37679 -3.64645 -5.78697e-19)
(5.22522 -3.83431 5.78697e-19)
(5.06818 -4.01574 0)
(4.90565 -4.19111 0)
(6.44071 -0.0980066 0)
(6.43584 -0.327002 1.46922e-19)
(6.42113 -0.556058 4.72657e-21)
(6.39657 -0.784714 -1.51491e-19)
(6.3622 -1.01251 -1.3359e-19)
(6.31808 -1.23901 -1.41827e-19)
(6.26429 -1.46376 5.48168e-19)
(6.20095 -1.68635 0)
(6.12816 -1.90635 0)
(6.04609 -2.12336 2.78582e-19)
(5.95489 -2.33702 2.95932e-19)
(5.85475 -2.54697 1.07107e-18)
(5.74588 -2.75288 -5.47267e-19)
(5.62854 -2.9545 5.47266e-19)
(5.50304 -3.15157 5.80959e-19)
(5.3697 -3.34409 3.39683e-20)
(5.22919 -3.53158 -1.06702e-18)
(5.08187 -3.71483 3.78012e-21)
(4.9299 -3.89194 5.27737e-19)
(4.77242 -4.0649 0)
(6.27229 -0.0974973 -3.28392e-20)
(6.26688 -0.319288 3.28388e-20)
(6.25197 -0.541112 0)
(6.22757 -0.762521 1.23691e-19)
(6.19371 -0.98308 4.01784e-19)
(6.15045 -1.20236 -5.07812e-19)
(6.09789 -1.41994 -5.38593e-19)
(6.03611 -1.63542 0)
(5.96524 -1.84839 0)
(5.8854 -2.05849 0)
(5.79676 -2.26536 -9.94298e-19)
(5.69948 -2.46866 -6.4177e-20)
(5.59375 -2.6681 -5.04149e-19)
(5.47977 -2.86347 3.02104e-20)
(5.35783 -3.05452 -9.97015e-19)
(5.22813 -3.24142 1.51945e-18)
(5.09141 -3.42372 -1.43974e-18)
(4.9477 -3.603 4.88734e-19)
(4.8003 -3.77628 9.3695e-19)
(4.64649 -3.94846 0)
(6.11321 -0.0961402 2.95029e-20)
(6.10736 -0.311399 0)
(6.09234 -0.526679 -1.21464e-19)
(6.06816 -0.741543 -2.50285e-19)
(6.03485 -0.955572 1.21312e-19)
(5.99248 -1.16836 9.6873e-19)
(5.94113 -1.3795 0)
(5.88088 -1.58861 -4.66564e-19)
(5.81185 -1.79531 -2.38633e-19)
(5.73416 -1.99924 -4.48306e-19)
(5.64796 -2.20007 -1.79378e-19)
(5.55338 -2.39749 -1.41536e-18)
(5.4506 -2.59123 -9.34228e-19)
(5.33975 -2.78107 9.61019e-19)
(5.22107 -2.96684 9.19894e-19)
(5.09458 -3.14876 -3.88497e-21)
(4.96109 -3.32649 2.99609e-20)
(4.81984 -3.50263 4.50329e-19)
(4.67595 -3.67335 -9.20647e-19)
(4.52266 -3.84856 0)
(5.96186 -0.0944684 -6.16964e-20)
(5.95571 -0.303472 3.03721e-20)
(5.94073 -0.512563 -1.21342e-19)
(5.91693 -0.721352 1.21286e-19)
(5.88431 -0.929444 -3.48835e-19)
(5.84293 -1.13645 -1.08622e-18)
(5.79285 -1.34199 0)
(5.73415 -1.54568 4.93661e-19)
(5.66692 -1.74719 -4.61592e-19)
(5.59125 -1.94615 9.77445e-19)
(5.50726 -2.14224 9.71641e-19)
(5.41506 -2.33518 1.43153e-18)
(5.31478 -2.52468 -9.28906e-19)
(5.20646 -2.71054 4.62692e-19)
(5.09035 -2.8926 -4.55035e-19)
(4.96606 -3.07105 4.55058e-19)
(4.83471 -3.24562 0)
(4.69359 -3.41956 4.12006e-19)
(4.55176 -3.58865 -4.03188e-19)
(4.39404 -3.77514 0)
(7.14019 7.26218 0)
(7.42016 6.97237 0)
(7.68724 6.67298 1.08765e-18)
(7.94211 6.36451 2.02674e-20)
(8.18421 6.04667 -1.1507e-18)
(8.41289 5.71954 0)
(8.62772 5.38352 1.18748e-18)
(8.82838 5.03912 -2.24045e-18)
(9.01454 4.68695 -1.13227e-18)
(9.18593 4.32759 -1.14285e-18)
(9.34227 3.96168 1.14285e-18)
(9.48334 3.58989 -1.15495e-18)
(9.60894 3.2129 5.76114e-19)
(9.71888 2.8314 5.49887e-19)
(9.813 2.44607 5.52037e-19)
(9.89125 2.05757 -5.85847e-19)
(9.95359 1.66655 5.85847e-19)
(10.0001 1.27373 -2.94102e-19)
(10.0308 0.879508 -1.39704e-19)
(10.046 0.485226 7.3582e-20)
(7.41715 7.07049 0)
(7.69734 6.78107 -9.96702e-19)
(7.96374 6.48007 -2.13088e-18)
(8.21664 6.16818 3.15116e-18)
(8.4558 5.84573 -2.18521e-18)
(8.68071 5.51315 2.19599e-18)
(8.89089 5.17106 1.19386e-18)
(9.08592 4.82012 -3.38784e-18)
(9.26542 4.46103 1.10831e-18)
(9.42902 4.09449 2.20327e-18)
(9.57642 3.72123 1.08552e-18)
(9.70737 3.34202 1.09241e-18)
(9.8217 2.95765 -1.15275e-18)
(9.9192 2.56883 1.69745e-18)
(9.99957 2.17638 -2.35501e-18)
(10.0628 1.78115 5.81296e-19)
(10.1087 1.38395 -5.58592e-19)
(10.1376 0.985599 0)
(10.1492 0.586633 1.51573e-20)
(10.144 0.188028 0)
(7.27424 6.94579 -1.75506e-18)
(7.55726 6.67377 9.853e-19)
(7.82773 6.38888 1.8024e-18)
(8.08521 6.0918 8.15989e-19)
(8.32927 5.7831 2.04351e-18)
(8.55938 5.46339 2.00462e-20)
(8.77502 5.13335 -1.02428e-18)
(8.97569 4.79366 -3.05261e-18)
(9.16096 4.44505 3.01377e-18)
(9.33037 4.08823 -3.09368e-18)
(9.48354 3.72396 -1.03068e-18)
(9.62017 3.353 -2.0621e-18)
(9.73994 2.97616 0)
(9.84265 2.59422 0)
(9.92815 2.20808 0)
(9.99627 1.81864 -5.25628e-19)
(10.0469 1.42674 5.50497e-19)
(10.0799 1.03324 5.27324e-19)
(10.0952 0.638863 6.27071e-21)
(10.0929 0.244563 1.32441e-19)
(7.04701 6.69377 1.82275e-18)
(7.32676 6.44041 -1.65531e-18)
(7.59517 6.17392 -1.69642e-19)
(7.85152 5.89485 -1.70603e-19)
(8.09522 5.60377 4.30336e-18)
(8.32574 5.30128 -7.12688e-20)
(8.54253 4.98802 3.77795e-21)
(8.74504 4.66463 -2.72137e-18)
(8.9328 4.33181 1.79555e-18)
(9.1053 3.99023 0)
(9.26208 3.64068 9.63044e-19)
(9.40278 3.284 9.6971e-19)
(9.52713 2.92096 0)
(9.63481 2.5524 0)
(9.7256 2.17914 0)
(9.79931 1.80199 0)
(9.85573 1.42177 -2.17164e-20)
(9.89476 1.03935 4.74822e-19)
(9.91628 0.655553 -2.28016e-19)
(9.92028 0.271319 0)
(6.78436 6.37901 1.54382e-18)
(7.05626 6.14351 0)
(7.31793 5.89508 -4.54562e-18)
(7.56856 5.63412 -1.54939e-18)
(7.80753 5.36116 -1.62817e-18)
(8.03424 5.07676 -1.72594e-18)
(8.24813 4.78149 8.15454e-19)
(8.44865 4.47596 -8.57006e-19)
(8.63526 4.16081 2.3797e-18)
(8.80751 3.83671 -7.79068e-19)
(8.96499 3.50443 0)
(9.10719 3.16472 0)
(9.23373 2.81827 0)
(9.34433 2.46587 0)
(9.43873 2.10831 -1.23031e-18)
(9.51668 1.74643 4.2304e-19)
(9.57796 1.38101 -4.46867e-19)
(9.6224 1.0129 0)
(9.64988 0.642933 2.24876e-19)
(9.66032 0.272006 0)
(6.50942 6.05177 1.32078e-18)
(6.77109 5.83242 -4.79984e-20)
(7.02347 5.60054 2.7782e-18)
(7.26576 5.35647 1.38799e-18)
(7.4973 5.10067 0)
(7.71751 4.83365 -1.47391e-18)
(7.92582 4.55593 6.85331e-20)
(8.12169 4.26808 -1.49631e-18)
(8.30459 3.97069 2.07011e-18)
(8.47405 3.6644 3.27472e-20)
(8.62963 3.34985 2.81232e-20)
(8.77089 3.02767 -7.46691e-19)
(8.8974 2.69859 1.46443e-18)
(9.00886 2.36338 0)
(9.105 2.02273 6.85902e-20)
(9.18552 1.67748 7.47662e-19)
(9.25014 1.32841 1.63943e-21)
(9.29868 0.976284 -1.53508e-20)
(9.33103 0.621915 0)
(9.34704 0.266135 -4.63534e-20)
(6.24357 5.73472 0)
(6.4939 5.52936 -4.89252e-20)
(6.7357 5.31199 1.75851e-20)
(6.96819 5.0829 -2.51148e-18)
(7.19074 4.8425 0)
(7.40278 4.59125 1.27023e-18)
(7.60376 4.32963 1.35297e-18)
(7.79315 4.05814 -3.9364e-18)
(7.97045 3.77733 -6.83046e-20)
(8.13519 3.48779 -1.26402e-18)
(8.28693 3.19008 6.95963e-19)
(8.42525 2.88484 -6.42907e-19)
(8.54975 2.57275 -7.0674e-19)
(8.66005 2.25448 0)
(8.75591 1.93076 3.72856e-19)
(8.83713 1.6022 -1.69147e-20)
(8.90331 1.26965 -3.46142e-19)
(8.95424 0.933857 -1.67766e-20)
(8.9898 0.595562 -8.71335e-20)
(9.00985 0.25554 1.7464e-19)
(5.99802 5.43948 0)
(6.23677 5.24596 1.08603e-18)
(6.46757 5.04101 1.61926e-20)
(6.6897 4.82488 -1.10219e-18)
(6.90255 4.59792 0)
(7.10558 4.36055 1.14668e-18)
(7.29827 4.11321 -1.09481e-18)
(7.48011 3.85636 -1.21196e-18)
(7.65064 3.5905 2.30535e-18)
(7.80939 3.31617 1.24392e-18)
(7.95595 3.03392 0)
(8.08991 2.74433 6.06733e-19)
(8.2109 2.44803 -4.39288e-21)
(8.31859 2.14567 2.18738e-20)
(8.41257 1.83791 0)
(8.49271 1.52538 -5.97232e-19)
(8.55884 1.20869 -3.12887e-19)
(8.61054 0.888663 4.57151e-19)
(8.64771 0.566022 3.08227e-19)
(8.67017 0.241476 -4.11986e-20)
(5.77646 5.17099 0)
(6.00394 4.98745 -9.38029e-19)
(6.22393 4.79305 0)
(6.43576 4.58802 -1.01204e-18)
(6.63883 4.37267 1.99249e-18)
(6.83265 4.14737 -2.03202e-18)
(7.01672 3.91252 3.17967e-18)
(7.19057 3.66856 -3.17053e-18)
(7.35377 3.41595 -2.14212e-18)
(7.50587 3.15519 -1.57996e-18)
(7.64649 2.8868 5.41791e-19)
(7.77525 2.61134 -1.12323e-18)
(7.89179 2.32939 1.86552e-20)
(7.99578 2.04153 1.11657e-18)
(8.08694 1.74837 -2.80901e-19)
(8.16489 1.45063 1.15071e-18)
(8.22955 1.14879 -5.65964e-19)
(8.28073 0.843571 2.60765e-19)
(8.31818 0.535696 -1.48709e-19)
(8.3417 0.225836 0)
(5.5786 4.92964 0)
(5.79546 4.75455 1.81471e-18)
(6.00519 4.56916 8.80285e-19)
(6.20713 4.37366 -9.06115e-19)
(6.40074 4.16834 -1.85617e-18)
(6.58555 3.95352 2.82453e-18)
(6.76111 3.72958 1.12978e-20)
(6.92698 3.49692 -9.20673e-19)
(7.08274 3.25598 1.97651e-18)
(7.228 3.00724 1.0208e-18)
(7.36239 2.75119 -9.53716e-19)
(7.48555 2.48835 5.00785e-19)
(7.59716 2.21926 2.25471e-20)
(7.69688 1.94449 -5.26943e-19)
(7.78446 1.66462 -2.55349e-19)
(7.8596 1.38022 5.1201e-19)
(7.92207 1.09199 -2.56661e-19)
(7.97176 0.800431 -5.17933e-19)
(8.0085 0.506224 6.00181e-20)
(8.03204 0.210016 6.48986e-20)