/*--------------------------------*- C++ -*----------------------------------*\
  =========                 |
  \\      /  F ield         | OpenFOAM: The Open Source CFD Toolbox
   \\    /   O peration     | Website:  https://openfoam.org
    \\  /    A nd           | Version:  6.0
     \\/     M anipulation  |
\*---------------------------------------------------------------------------*/
FoamFile
{
    version     2.0;
    format      ascii;
    class       volVectorField;
    location    "13";
    object      U;
}
// * * * * * * * * * * * * * * * * * * * * * * * * * * * * * * * * * * * * * //

dimensions      [0 1 -1 0 0 0 0];

internalField   nonuniform List<vector> 
9600
(
(0.168591 -4.61468 -4.76445e-21)
(0.0873269 -4.06202 -5.43441e-21)
(0.103285 -3.65212 7.54563e-22)
(0.137578 -3.3471 -3.51447e-21)
(0.175147 -3.11799 1.73189e-21)
(0.218332 -2.94302 -1.37003e-21)
(0.265505 -2.80652 -3.1677e-21)
(0.314503 -2.6973 3.05843e-21)
(0.363868 -2.60734 9.83584e-22)
(0.412558 -2.53095 -1.70847e-20)
(0.459801 -2.46407 9.56004e-21)
(0.50505 -2.40384 -8.65267e-21)
(0.547944 -2.34823 -4.06322e-21)
(0.588272 -2.29578 5.52928e-21)
(0.625931 -2.24547 -3.777e-21)
(0.660903 -2.19653 -1.92011e-21)
(0.693224 -2.14834 3.85663e-21)
(0.722971 -2.10039 -4.37836e-21)
(0.750284 -2.05213 -1.07601e-21)
(0.775198 -2.00296 -2.60863e-21)
(0.3501 -4.6092 -4.96545e-20)
(0.249118 -4.07216 -2.89023e-20)
(0.251219 -3.67361 1.41992e-20)
(0.275817 -3.37789 -1.91104e-20)
(0.306535 -3.1564 4.40316e-21)
(0.344728 -2.98722 -5.92857e-21)
(0.388082 -2.85485 2.62466e-20)
(0.433967 -2.7483 -5.22807e-22)
(0.480609 -2.6598 -1.76954e-20)
(0.52676 -2.58386 2.35463e-20)
(0.571512 -2.51662 1.26191e-20)
(0.614243 -2.45538 -9.86317e-22)
(0.654549 -2.39827 1.58283e-20)
(0.6922 -2.34397 -4.81595e-22)
(0.727096 -2.29156 6.42932e-21)
(0.759226 -2.24035 1.71245e-20)
(0.788636 -2.18981 -2.3207e-20)
(0.815425 -2.13945 9.92823e-21)
(0.839786 -2.08874 -4.73912e-21)
(0.86171 -2.03705 1.10381e-20)
(0.531381 -4.59733 8.20712e-20)
(0.411727 -4.07707 6.24248e-20)
(0.40093 -3.69059 -9.42195e-20)
(0.416586 -3.4046 -4.60732e-20)
(0.441009 -3.19091 3.70412e-20)
(0.474584 -3.02755 7.01269e-20)
(0.514337 -2.89921 -8.72417e-20)
(0.557195 -2.79518 2.19672e-20)
(0.601093 -2.70795 -4.37167e-20)
(0.644595 -2.63225 -3.08618e-20)
(0.686685 -2.56445 2.93387e-20)
(0.726677 -2.50203 -1.65294e-20)
(0.764143 -2.44328 -4.54326e-20)
(0.798851 -2.38701 2.53388e-20)
(0.830709 -2.33241 -7.7259e-21)
(0.859723 -2.2789 -1.09989e-21)
(0.885956 -2.22601 7.97184e-21)
(0.909537 -2.1733 1.85465e-20)
(0.930707 -2.12024 -2.42628e-20)
(0.9494 -2.06618 2.35428e-20)
(0.712317 -4.57894 -4.62678e-20)
(0.575152 -4.07666 2.47141e-20)
(0.552385 -3.70292 3.11778e-20)
(0.559832 -3.42702 4.61683e-20)
(0.578493 -3.22124 -1.46824e-20)
(0.607797 -3.06366 1.76e-20)
(0.644134 -2.93922 -1.24512e-20)
(0.684017 -2.83754 2.60474e-20)
(0.725114 -2.75137 6.28962e-20)
(0.765829 -2.67573 -3.87558e-20)
(0.805056 -2.60718 -2.33241e-20)
(0.842068 -2.54343 -2.90954e-20)
(0.876429 -2.4829 -1.07913e-20)
(0.907914 -2.42457 2.38378e-20)
(0.936455 -2.36775 -1.49487e-20)
(0.962082 -2.31194 -5.35941e-20)
(0.984885 -2.25674 4.17254e-20)
(1.00502 -2.20176 -5.5371e-20)
(1.02278 -2.14647 -2.70889e-21)
(1.03803 -2.09024 -2.36244e-21)
(0.892711 -4.55397 -6.22494e-20)
(0.739297 -4.07079 -1.21461e-19)
(0.705509 -3.71041 1.457e-19)
(0.705466 -3.44487 -4.3415e-20)
(0.718877 -3.24707 -1.27192e-19)
(0.744228 -3.09519 -3.07986e-21)
(0.777301 -2.9745 -5.23065e-20)
(0.814226 -2.87497 -1.39489e-20)
(0.852433 -2.78967 -4.22629e-20)
(0.890193 -2.71388 9.89947e-20)
(0.926333 -2.64443 -1.41429e-19)
(0.960107 -2.5792 3.52227e-20)
(0.991082 -2.51681 -6.41494e-20)
(1.01906 -2.45638 8.75983e-20)
(1.04401 -2.39732 -8.29881e-20)
(1.06598 -2.33924 4.3505e-20)
(1.08511 -2.28181 -2.70717e-20)
(1.10158 -2.22468 -1.76114e-21)
(1.11575 -2.16733 2.94383e-20)
(1.12737 -2.10914 -4.16116e-21)
(1.07235 -4.5224 1.39402e-20)
(0.904029 -4.05935 1.16462e-19)
(0.860191 -3.71286 8.04113e-20)
(0.853372 -3.45787 -5.66629e-20)
(0.862021 -3.26806 1.45782e-19)
(0.883705 -3.12177 2.13362e-20)
(0.913632 -3.00465 -1.59276e-22)
(0.94758 -2.90707 -7.23277e-20)
(0.982777 -2.82244 1.25888e-20)
(1.01739 -2.74634 1.03139e-19)
(1.0502 -2.67584 -5.18765e-20)
(1.08046 -2.60904 9.44366e-20)
(1.10776 -2.54473 -2.67865e-20)
(1.13195 -2.48217 -2.1079e-20)
(1.15302 -2.42091 4.89336e-20)
(1.1711 -2.36063 5.6343e-20)
(1.18632 -2.30108 -3.21328e-20)
(1.19894 -2.24195 6.24992e-20)
(1.20934 -2.18273 -6.98264e-20)
(1.21718 -2.12283 1.00193e-19)
(1.25099 -4.48422 1.4991e-19)
(1.06919 -4.04221 -2.0837e-19)
(1.01629 -3.71004 -1.85064e-19)
(1.0034 -3.46576 2.02438e-19)
(1.00775 -3.28388 -6.69644e-20)
(1.02603 -3.14303 -1.08815e-19)
(1.05289 -3.0293 1.03575e-19)
(1.08381 -2.93347 4.40809e-21)
(1.11585 -2.84933 3.76974e-20)
(1.14709 -2.77276 -1.27498e-19)
(1.17631 -2.70109 6.54921e-20)
(1.20277 -2.63264 -5.56254e-20)
(1.22611 -2.56639 1.59217e-19)
(1.24622 -2.50173 -8.82409e-20)
(1.26316 -2.43833 6.05561e-21)
(1.27709 -2.37595 -1.14397e-20)
(1.28821 -2.31444 -1.31788e-20)
(1.29679 -2.25349 6.83912e-20)
(1.30329 -2.19263 6.11198e-21)
(1.30724 -2.13129 -1.97201e-20)
(1.42843 -4.43942 -2.26855e-19)
(1.2346 -4.01924 1.44472e-19)
(1.17365 -3.70175 3.04671e-20)
(1.15538 -3.46825 -5.42283e-21)
(1.15588 -3.29422 -2.72427e-22)
(1.17095 -3.15864 7.69095e-20)
(1.1948 -3.04808 -2.12257e-19)
(1.22261 -2.9538 -2.49507e-20)
(1.25131 -2.86998 -4.93101e-20)
(1.27895 -2.79281 5.8294e-20)
(1.3043 -2.71989 3.4656e-21)
(1.32667 -2.64977 6.47037e-20)
(1.34576 -2.58158 -4.01572e-21)
(1.36152 -2.51488 -1.59864e-19)
(1.37407 -2.44943 -3.76404e-20)
(1.38363 -2.38511 1.49269e-19)
(1.39044 -2.3218 -5.59181e-20)
(1.39484 -2.25927 -1.41374e-20)
(1.39734 -2.197 3.16352e-20)
(1.3973 -2.13453 1.13193e-20)
(1.6044 -4.388 1.46618e-19)
(1.40007 -3.99032 -1.63908e-19)
(1.33208 -3.68777 -2.47366e-19)
(1.30911 -3.46506 -3.85526e-20)
(1.30615 -3.29875 -1.15517e-19)
(1.31822 -3.16825 -3.87867e-20)
(1.33906 -3.06066 -1.21761e-19)
(1.36365 -2.96774 2.26656e-19)
(1.38882 -2.88408 -1.01203e-19)
(1.41259 -2.8062 -5.16042e-20)
(1.43379 -2.73199 -2.35395e-20)
(1.45178 -2.66018 7.05057e-20)
(1.46633 -2.59012 2.47031e-22)
(1.47747 -2.52147 -2.56834e-20)
(1.48539 -2.45412 -5.78521e-20)
(1.49037 -2.38803 -6.83658e-20)
(1.49271 -2.32314 9.78656e-20)
(1.4928 -2.25925 4.11386e-20)
(1.49121 -2.19586 -1.65686e-19)
(1.48715 -2.13257 1.46514e-19)
(1.77869 -4.32999 -1.54326e-19)
(1.56539 -3.95534 3.88311e-19)
(1.49138 -3.6679 -3.03623e-19)
(1.46436 -3.45593 1.91133e-19)
(1.45833 -3.29717 2.52325e-19)
(1.46754 -3.17153 -9.72531e-20)
(1.48536 -3.0667 -4.13609e-23)
(1.50658 -2.97497 2.64037e-20)
(1.52799 -2.89134 1.00731e-19)
(1.54763 -2.81269 -1.06976e-19)
(1.56439 -2.73715 -6.79693e-20)
(1.5777 -2.66371 7.20305e-20)
(1.58743 -2.59185 -3.86706e-21)
(1.59369 -2.52138 1.21094e-20)
(1.59676 -2.4523 1.44499e-19)
(1.59697 -2.38464 -7.56545e-20)
(1.5947 -2.31841 1.37558e-20)
(1.59038 -2.25344 -9.35934e-20)
(1.58464 -2.18922 2.52562e-19)
(1.57653 -2.12545 -1.79902e-19)
(1.95103 -4.26541 2.26699e-19)
(1.73034 -3.91418 5.2097e-20)
(1.65131 -3.64195 1.21703e-19)
(1.62087 -3.44061 -1.36442e-19)
(1.61211 -3.28919 3.43401e-20)
(1.61858 -3.16818 2.86401e-19)
(1.63332 -3.06591 -5.00901e-20)
(1.65101 -2.97521 2.25502e-19)
(1.66843 -2.89151 -1.49671e-19)
(1.68367 -2.81204 8.75896e-20)
(1.69569 -2.7352 2.09727e-19)
(1.70404 -2.66019 -6.48201e-20)
(1.70869 -2.58666 1.0953e-19)
(1.70983 -2.51454 -2.87979e-20)
(1.70783 -2.44392 -1.51249e-19)
(1.70311 -2.37493 2.15049e-19)
(1.69608 -2.30762 -5.83489e-20)
(1.68727 -2.24186 2.20547e-19)
(1.67735 -2.17711 2.83234e-20)
(1.6652 -2.11322 -3.34743e-19)
(2.12118 -4.19427 -7.03298e-19)
(1.89468 -3.86676 1.3082e-19)
(1.81164 -3.60973 -1.01885e-19)
(1.77838 -3.41885 -3.53146e-19)
(1.76718 -3.27454 -6.42583e-20)
(1.77099 -3.15793 -7.10143e-20)
(1.78258 -3.05802 -2.41605e-20)
(1.79656 -2.9682 -1.597e-19)
(1.80973 -2.88436 -8.41164e-20)
(1.82028 -2.80406 -2.2356e-20)
(1.82728 -2.72598 -5.57114e-20)
(1.8304 -2.64951 9.50156e-20)
(1.82971 -2.57446 6.62298e-20)
(1.8255 -2.50088 -3.25435e-19)
(1.81824 -2.42896 1.37454e-19)
(1.80843 -2.35888 -1.52792e-19)
(1.79654 -2.29077 -9.5744e-20)
(1.78317 -2.22452 8.46962e-20)
(1.76906 -2.15958 4.60733e-20)
(1.75291 -2.09593 -1.07057e-19)
(2.28889 -4.11663 9.16808e-19)
(2.05818 -3.81299 4.83166e-19)
(1.9721 -3.57107 2.41211e-19)
(1.93659 -3.39043 2.44867e-19)
(1.92322 -3.25296 -1.17299e-19)
(1.92441 -3.14052 6.53476e-19)
(1.93273 -3.04278 -2.92773e-19)
(1.94279 -2.95373 5.8809e-19)
(1.95146 -2.86971 -2.29498e-19)
(1.95705 -2.78861 4.37013e-19)
(1.95876 -2.70937 2.14381e-19)
(1.95638 -2.63158 1.32604e-19)
(1.95011 -2.5552 -3.30326e-19)
(1.94035 -2.48038 2.93666e-19)
(1.92766 -2.40739 -7.0842e-20)
(1.91262 -2.33649 2.32854e-19)
(1.89577 -2.26788 6.33638e-20)
(1.87777 -2.20145 2.87987e-19)
(1.85948 -2.13665 -6.4034e-20)
(1.83939 -2.07362 -4.66993e-21)
(2.45392 -4.03254 -4.78052e-19)
(2.22059 -3.7528 2.88558e-19)
(2.13242 -3.52582 6.37612e-20)
(2.09517 -3.35514 -4.32904e-19)
(2.07986 -3.22424 -3.59406e-20)
(2.07843 -3.11572 -5.85132e-21)
(2.08336 -3.01999 1.06559e-19)
(2.08929 -2.93162 -1.54944e-19)
(2.0932 -2.8474 6.02887e-20)
(2.09355 -2.76556 8.37201e-20)
(2.0897 -2.68529 -1.27238e-19)
(2.08158 -2.60636 -8.99058e-20)
(2.06951 -2.52885 5.21954e-20)
(2.05403 -2.45303 -9.57495e-20)
(2.03575 -2.37923 3.0818e-19)
(2.01535 -2.30778 -3.27202e-19)
(1.99345 -2.23894 -2.11737e-19)
(1.97079 -2.17266 3.12083e-19)
(1.94832 -2.10834 -1.17961e-19)
(1.92436 -2.04632 -1.83998e-19)
(2.61603 -3.94206 -2.54526e-19)
(2.38165 -3.68613 -3.15358e-19)
(2.29231 -3.47382 -7.84262e-20)
(2.2538 -3.31279 4.70057e-19)
(2.23672 -3.18816 -2.13918e-19)
(2.23266 -3.08333 2.56586e-20)
(2.23404 -2.98947 -5.96909e-19)
(2.23561 -2.90173 9.22114e-20)
(2.2345 -2.81733 -1.50879e-19)
(2.22936 -2.73485 1.31734e-19)
(2.2197 -2.6537 -3.02615e-19)
(2.20562 -2.57382 1.35671e-19)
(2.18757 -2.49542 -2.00097e-19)
(2.16619 -2.41884 1.28437e-19)
(2.1422 -2.34449 8.53602e-20)
(2.11634 -2.27276 -8.22396e-20)
(2.08929 -2.20397 -3.81525e-19)
(2.06191 -2.13813 2.17715e-19)
(2.03526 -2.07463 -9.39357e-20)
(2.00751 -2.01404 4.67872e-20)
(2.77499 -3.84524 9.53883e-19)
(2.54113 -3.61293 -2.10872e-19)
(2.45149 -3.41496 -3.11783e-19)
(2.41212 -3.26322 1.43788e-19)
(2.3934 -3.14454 2.0073e-19)
(2.38665 -3.0432 -2.96832e-19)
(2.38431 -2.95108 2.02081e-19)
(2.3813 -2.86394 -2.8838e-19)
(2.37493 -2.77943 3.76905e-19)
(2.36405 -2.69643 -4.08309e-19)
(2.34836 -2.61458 1.92286e-19)
(2.32813 -2.53398 -3.09367e-20)
(2.30395 -2.45494 -3.17289e-20)
(2.27654 -2.37786 -2.34932e-19)
(2.24673 -2.30322 3.73754e-19)
(2.21531 -2.23145 -7.25951e-21)
(2.18304 -2.16296 -3.20141e-20)
(2.15086 -2.09781 -4.44568e-21)
(2.11999 -2.03545 -1.48784e-20)
(2.0885 -1.97666 -1.4078e-19)
(2.9306 -3.74216 -7.98211e-19)
(2.69879 -3.53316 -1.30376e-19)
(2.60962 -3.34911 -1.72651e-19)
(2.56976 -3.20626 -1.04626e-18)
(2.54948 -3.09324 -5.74921e-19)
(2.53996 -2.99519 6.89206e-19)
(2.53373 -2.90473 -2.51793e-19)
(2.5259 -2.8182 1.32949e-19)
(2.51404 -2.73367 2.11053e-19)
(2.4972 -2.65031 5.77221e-20)
(2.47529 -2.56798 1.47582e-19)
(2.44876 -2.4869 -7.09592e-20)
(2.41832 -2.40748 2.13448e-19)
(2.3848 -2.33017 -1.81186e-19)
(2.3491 -2.25547 7.30634e-20)
(2.31207 -2.18388 -5.11669e-19)
(2.2745 -2.11588 3.39967e-19)
(2.23743 -2.05164 2.25801e-19)
(2.20228 -1.99063 -1.28412e-19)
(2.16711 -1.93386 -1.45001e-19)
(3.0828 -3.63296 3.65511e-19)
(2.85443 -3.4468 3.47448e-19)
(2.76639 -3.27614 2.90148e-19)
(2.72629 -3.14178 9.55376e-19)
(2.7045 -3.03414 -9.29072e-19)
(2.69211 -2.93921 2.53904e-19)
(2.68181 -2.85035 5.2571e-22)
(2.66896 -2.76448 -2.83503e-19)
(2.65138 -2.68006 2.92097e-19)
(2.62839 -2.59654 -7.41457e-20)
(2.60011 -2.51397 -9.29817e-20)
(2.56717 -2.43268 -4.86201e-20)
(2.53039 -2.35315 1.07867e-19)
(2.49073 -2.27587 3.58647e-21)
(2.44911 -2.20135 -1.88935e-19)
(2.40643 -2.13012 -2.31454e-19)
(2.36352 -2.06273 1.6025e-19)
(2.32147 -1.99946 1.11202e-19)
(2.28199 -1.9398 -2.2725e-19)
(2.24333 -1.88524 6.22487e-20)
(3.23179 -3.51783 -5.34444e-20)
(3.00794 -3.35376 -7.70234e-19)
(2.92143 -3.19591 -7.77754e-20)
(2.88129 -3.06964 -8.92122e-21)
(2.858 -2.96714 1.6492e-19)
(2.84263 -2.87521 6.25593e-19)
(2.82807 -2.78795 -1.82313e-19)
(2.80999 -2.70282 -2.97681e-19)
(2.78651 -2.61867 2.96714e-20)
(2.75721 -2.53522 1.34954e-19)
(2.72246 -2.45268 -1.27218e-19)
(2.68303 -2.37147 -1.43801e-19)
(2.63992 -2.29212 -4.20454e-20)
(2.59412 -2.21513 1.23242e-19)
(2.54663 -2.14101 9.38495e-20)
(2.49833 -2.07026 4.08057e-19)
(2.45002 -2.00346 1.02136e-19)
(2.40284 -1.94087 -1.28902e-19)
(2.35866 -1.88219 1.41873e-19)
(2.31615 -1.83055 2.48683e-19)
(3.37772 -3.39648 2.6764e-19)
(3.15906 -3.25362 7.54722e-19)
(3.0743 -3.10819 1.07172e-19)
(3.03424 -2.98977 -7.93013e-20)
(3.00948 -2.89222 5.63885e-19)
(2.99102 -2.8032 -1.55834e-19)
(2.97204 -2.71757 -1.99166e-19)
(2.94855 -2.6333 5.27045e-19)
(2.919 -2.54964 -3.35212e-19)
(2.88327 -2.46652 1.65897e-19)
(2.84196 -2.38431 -2.43036e-20)
(2.79606 -2.30351 -4.25837e-20)
(2.74666 -2.22466 -1.93667e-19)
(2.69487 -2.14826 5.01154e-19)
(2.64169 -2.07476 -6.01727e-19)
(2.58801 -2.00462 2.91745e-19)
(2.53461 -1.93823 -8.62685e-20)
(2.48238 -1.87572 -2.05906e-20)
(2.43248 -1.81755 2.81809e-19)
(2.38392 -1.76916 -5.31982e-19)
(5.01341 -0.0152611 5.80837e-20)
(4.99867 -0.212286 -1.83472e-20)
(4.9763 -0.407607 -9.80382e-20)
(4.94641 -0.601238 2.6354e-19)
(4.90887 -0.793007 -2.9451e-19)
(4.8637 -0.982657 -1.3216e-19)
(4.811 -1.16991 1.01783e-19)
(4.75091 -1.35449 1.4046e-19)
(4.68358 -1.5361 -1.06972e-19)
(4.60917 -1.71447 1.03985e-19)
(4.52786 -1.88933 -6.01362e-21)
(4.43983 -2.06042 2.327e-21)
(4.34529 -2.22749 -7.07323e-20)
(4.24444 -2.39031 3.22717e-19)
(4.13749 -2.54865 -3.15523e-19)
(4.02467 -2.70231 2.18673e-19)
(3.9062 -2.85111 -2.95288e-19)
(3.78233 -2.99488 -2.41915e-19)
(3.65332 -3.13353 -4.87868e-20)
(3.51945 -3.26717 2.52587e-20)
(5.04367 -0.0822792 -1.22972e-20)
(5.01744 -0.278887 -7.21751e-20)
(4.98256 -0.473106 1.41896e-19)
(4.93941 -0.664747 2.27225e-19)
(4.88812 -0.85354 -6.11585e-20)
(4.82887 -1.03916 -3.02649e-19)
(4.76184 -1.22127 5.3544e-19)
(4.68729 -1.39956 -1.12049e-19)
(4.60544 -1.57371 -6.11422e-19)
(4.51655 -1.74343 2.89644e-19)
(4.42092 -1.90844 9.50786e-20)
(4.31883 -2.06846 5.38704e-19)
(4.21058 -2.22327 -1.01724e-18)
(4.09649 -2.37265 1.95488e-20)
(3.97687 -2.51639 2.51907e-19)
(3.85204 -2.65433 3.93014e-19)
(3.72233 -2.78632 6.67895e-19)
(3.58805 -2.91227 -2.45601e-19)
(3.44947 -3.03211 -5.19423e-19)
(3.30679 -3.14588 5.21403e-19)
(5.04469 -0.060738 4.4844e-20)
(5.01649 -0.255373 -5.27238e-20)
(4.97908 -0.447659 3.7113e-20)
(4.93278 -0.637187 -1.06528e-19)
(4.87784 -0.82356 1.34587e-19)
(4.81452 -1.00638 3.28188e-19)
(4.74308 -1.18525 -3.5459e-19)
(4.66381 -1.3598 5.45878e-20)
(4.577 -1.5297 2.30828e-19)
(4.48297 -1.69459 4.78452e-19)
(4.38205 -1.85417 -1.12686e-19)
(4.2746 -2.00815 7.90213e-19)
(4.16097 -2.15628 3.58393e-20)
(4.04155 -2.29831 -8.33e-19)
(3.9167 -2.43403 -1.07615e-19)
(3.78682 -2.56328 -2.15896e-19)
(3.65229 -2.6859 -4.43869e-19)
(3.51347 -2.80178 -2.10289e-19)
(3.37072 -2.91082 -3.65057e-19)
(3.22435 -3.01297 4.06419e-19)
(5.00722 -0.0333622 -9.19959e-21)
(4.98089 -0.224402 2.54254e-20)
(4.94516 -0.413328 -3.47511e-20)
(4.90023 -0.599628 -1.9346e-19)
(4.84635 -0.782829 -8.4851e-20)
(4.7838 -0.962475 -1.09472e-19)
(4.71283 -1.13813 3.91037e-19)
(4.63376 -1.30937 -1.03697e-20)
(4.5469 -1.47581 -3.71998e-19)
(4.45259 -1.63708 1.24838e-20)
(4.35117 -1.79282 -2.15063e-19)
(4.24303 -1.94272 5.0957e-20)
(4.12856 -2.08648 -1.06782e-18)
(4.00816 -2.22383 5.30682e-19)
(3.88225 -2.35453 -3.13403e-19)
(3.75124 -2.47839 -9.8496e-20)
(3.61556 -2.59523 -1.182e-18)
(3.47563 -2.7049 1.12586e-18)
(3.33185 -2.80728 -5.28627e-19)
(3.18464 -2.90226 -3.23525e-19)
(4.93369 -0.0147811 4.4581e-21)
(4.91098 -0.200802 -6.16274e-20)
(4.87887 -0.385017 8.96749e-20)
(4.8375 -0.566888 1.12433e-19)
(4.78709 -0.745905 -1.32853e-19)
(4.72787 -0.921582 4.22851e-19)
(4.66009 -1.09345 -1.34085e-19)
(4.58405 -1.26105 -2.59959e-21)
(4.50004 -1.42397 -1.95782e-19)
(4.4084 -1.58179 4.22299e-19)
(4.30949 -1.73413 3.03676e-19)
(4.20366 -1.88064 1.72512e-19)
(4.09133 -2.02099 1.03816e-19)
(3.97289 -2.15488 -3.19973e-19)
(3.84878 -2.28204 2.23269e-19)
(3.71942 -2.40222 7.69544e-19)
(3.58527 -2.51523 7.85064e-19)
(3.44676 -2.62087 -5.54984e-19)
(3.30434 -2.719 1.94098e-19)
(3.15846 -2.80948 -5.60161e-20)
(4.83089 -0.000745653 1.1405e-20)
(4.81259 -0.180654 -1.52614e-20)
(4.78505 -0.359104 -8.16883e-20)
(4.74837 -0.535557 3.67862e-20)
(4.70272 -0.709496 -5.61025e-22)
(4.6483 -0.880421 2.74261e-20)
(4.58533 -1.04784 -2.08218e-19)
(4.51407 -1.2113 1.54277e-19)
(4.43478 -1.37034 -3.08972e-19)
(4.34778 -1.52452 3.28658e-19)
(4.2534 -1.67346 -4.71779e-20)
(4.152 -1.81676 1.61128e-19)
(4.04396 -1.95407 -4.75607e-19)
(3.92966 -2.08506 -1.9594e-19)
(3.80953 -2.20942 5.09646e-19)
(3.684 -2.32688 -3.66514e-19)
(3.55351 -2.43721 -5.24078e-19)
(3.41852 -2.54017 2.68743e-19)
(3.27947 -2.6356 -1.72864e-19)
(3.13683 -2.72332 5.11221e-19)
(4.70689 0.00937944 -8.38243e-21)
(4.69306 -0.163691 3.91963e-20)
(4.67029 -0.335649 2.50644e-20)
(4.63863 -0.50597 -2.94953e-20)
(4.5982 -0.674143 1.26939e-19)
(4.54917 -0.839669 -3.53681e-19)
(4.49173 -1.00206 2.02231e-19)
(4.42607 -1.16085 -1.52371e-19)
(4.35247 -1.31557 7.24423e-21)
(4.27118 -1.46579 -2.31982e-19)
(4.18251 -1.61108 3.53847e-19)
(4.08678 -1.75105 8.62251e-19)
(3.98435 -1.88532 -8.40627e-19)
(3.87559 -2.01354 -6.16124e-19)
(3.76089 -2.13538 -3.55226e-19)
(3.64067 -2.25055 2.4937e-19)
(3.51535 -2.35876 -2.75105e-19)
(3.38537 -2.45977 7.4775e-21)
(3.2512 -2.55336 6.06605e-19)
(3.11328 -2.63934 -1.9903e-21)
(4.56945 0.0157113 -4.21919e-21)
(4.55973 -0.150137 2.78605e-20)
(4.54144 -0.315187 9.02024e-21)
(4.51458 -0.478936 -1.53741e-19)
(4.47926 -0.640889 1.6982e-19)
(4.4356 -0.800562 -1.49006e-19)
(4.38376 -0.957475 4.22329e-19)
(4.32391 -1.11116 -4.61331e-20)
(4.25627 -1.26117 -2.24488e-19)
(4.18108 -1.40706 4.12343e-20)
(4.09859 -1.54841 -6.90333e-20)
(4.00911 -1.68481 -2.26103e-19)
(3.91295 -1.81587 -5.09277e-19)
(3.81046 -1.94123 -2.14066e-19)
(3.702 -2.06054 5.01929e-19)
(3.58795 -2.17349 -3.55256e-19)
(3.46871 -2.27978 -2.11248e-19)
(3.34472 -2.37914 -3.1406e-19)
(3.2164 -2.47132 4.44508e-20)
(3.0842 -2.5561 2.64641e-20)
(4.42524 0.0188785 3.31493e-21)
(4.41903 -0.139641 3.44683e-21)
(4.40464 -0.297629 -3.53894e-21)
(4.38209 -0.454612 -4.35329e-20)
(4.35144 -0.610117 -9.94477e-20)
(4.31278 -0.763678 -6.5844e-20)
(4.26624 -0.914834 -3.05498e-19)
(4.21197 -1.06313 2.82434e-19)
(4.15015 -1.20814 -1.6442e-19)
(4.08097 -1.34941 3.59585e-19)
(4.00468 -1.48653 -6.85189e-20)
(3.92153 -1.61909 5.99194e-19)
(3.83182 -1.74672 3.92452e-19)
(3.73583 -1.86903 7.90004e-19)
(3.63392 -1.98568 -5.44335e-19)
(3.52643 -2.09634 4.79993e-19)
(3.41373 -2.20069 -9.71514e-20)
(3.29623 -2.29845 3.25041e-19)
(3.17432 -2.38935 3.43262e-19)
(3.04844 -2.47314 -4.85019e-19)
(4.2795 0.0196206 -2.69692e-20)
(4.27612 -0.131672 -7.36808e-22)
(4.26499 -0.282652 9.71214e-20)
(4.2461 -0.432873 -8.91277e-20)
(4.21951 -0.581888 5.53606e-20)
(4.18529 -0.729254 2.13547e-19)
(4.14354 -0.874535 -6.99371e-20)
(4.09437 -1.0173 -6.59887e-20)
(4.03795 -1.15711 -8.87424e-20)
(3.97444 -1.29357 1.50182e-19)
(3.90404 -1.42626 -2.11272e-19)
(3.827 -1.55478 3.87843e-19)
(3.74355 -1.67876 -3.81365e-19)
(3.65398 -1.79783 1.06433e-19)
(3.55858 -1.91164 1.75019e-19)
(3.45768 -2.01985 1.27336e-19)
(3.35162 -2.12214 -2.40819e-19)
(3.24076 -2.21823 -3.7418e-19)
(3.12548 -2.30782 1.31419e-19)
(3.00619 -2.39066 3.99521e-20)
(4.1361 0.0186081 2.83215e-20)
(4.13487 -0.125708 7.57955e-20)
(4.12633 -0.26988 -1.69444e-19)
(4.11045 -0.41349 -1.31891e-19)
(4.08727 -0.556119 -6.80332e-20)
(4.05684 -0.697349 -1.8524e-19)
(4.01926 -0.836768 1.32013e-19)
(3.97461 -0.973965 1.6448e-19)
(3.92303 -1.10854 -3.56879e-19)
(3.86466 -1.24008 1.75424e-19)
(3.7997 -1.36822 1.75847e-19)
(3.72832 -1.49256 4.1761e-19)
(3.65077 -1.61274 -3.02154e-19)
(3.56728 -1.72839 4.19164e-19)
(3.47813 -1.83918 -3.82426e-19)
(3.3836 -1.94478 -6.1663e-20)
(3.28401 -2.04486 -1.06262e-19)
(3.17969 -2.13913 4.64577e-19)
(3.07099 -2.22731 1.24728e-19)
(2.95829 -2.30911 -1.41142e-19)
(3.99768 0.0164135 -2.49479e-20)
(3.998 -0.121268 1.49722e-20)
(3.99142 -0.258931 1.09837e-19)
(3.97791 -0.396184 1.3213e-20)
(3.9575 -0.532634 1.57314e-19)
(3.93024 -0.667892 1.29759e-19)
(3.89619 -0.801569 -1.11061e-19)
(3.85543 -0.933279 -1.58574e-19)
(3.80809 -1.06264 1.28756e-19)
(3.75429 -1.18928 1.03177e-19)
(3.69419 -1.31282 -1.00617e-19)
(3.62796 -1.43291 2.69803e-19)
(3.5558 -1.54919 -6.32647e-19)
(3.47794 -1.66131 1.4645e-19)
(3.39461 -1.76895 1.71997e-19)
(3.30608 -1.87179 -2.97586e-19)
(3.21263 -1.96951 -5.95848e-19)
(3.11456 -2.06182 1.96726e-19)
(3.01222 -2.14844 -1.6388e-19)
(2.90593 -2.22907 -1.52139e-19)
(3.86588 0.0135035 -1.08663e-20)
(3.86723 -0.117937 9.85405e-21)
(3.86207 -0.249447 -5.21702e-20)
(3.85037 -0.380659 -3.06407e-20)
(3.83215 -0.511209 -1.01325e-20)
(3.80746 -0.64073 -1.20214e-19)
(3.77635 -0.768859 3.22514e-19)
(3.73889 -0.895236 1.08917e-20)
(3.69519 -1.0195 -1.88803e-21)
(3.64536 -1.1413 -2.801e-19)
(3.58954 -1.26029 2.79743e-19)
(3.52788 -1.37613 -1.54007e-19)
(3.46058 -1.48848 2.87738e-19)
(3.38782 -1.59701 -4.31354e-19)
(3.30982 -1.70142 -1.29438e-20)
(3.22682 -1.80139 -2.56794e-19)
(3.13909 -1.89662 5.0011e-19)
(3.04689 -1.98683 -1.22126e-19)
(2.95053 -2.07176 -4.54422e-20)
(2.85034 -2.1511 -2.96547e-19)
(3.74156 0.0102414 3.34843e-20)
(3.74352 -0.115371 -2.43534e-21)
(3.73933 -0.24111 6.71511e-20)
(3.72896 -0.366633 -6.94188e-20)
(3.71244 -0.491599 8.23925e-20)
(3.6898 -0.615666 -5.0109e-20)
(3.66109 -0.738494 -1.80747e-19)
(3.62638 -0.859746 7.27816e-20)
(3.58577 -0.979088 6.7756e-20)
(3.53935 -1.09619 -9.2472e-20)
(3.48726 -1.21072 8.16848e-21)
(3.42963 -1.32237 -1.14892e-20)
(3.36663 -1.43082 -2.89686e-19)
(3.29844 -1.53576 3.18523e-19)
(3.22526 -1.6369 1.63591e-19)
(3.1473 -1.73394 6.03905e-19)
(3.0648 -1.8266 -8.5838e-19)
(2.97801 -1.91462 2.22232e-19)
(2.88722 -1.99774 5.39486e-19)
(2.79273 -2.07567 4.21478e-19)
(3.62502 0.00689656 -2.55605e-20)
(3.62725 -0.113299 1.92696e-20)
(3.62367 -0.233655 -2.42136e-20)
(3.61424 -0.353852 -1.50589e-19)
(3.59901 -0.473569 1.51664e-19)
(3.57798 -0.592488 5.28459e-20)
(3.55122 -0.710292 1.32747e-20)
(3.5188 -0.826665 1.465e-19)
(3.48078 -0.941295 -3.34494e-19)
(3.43728 -1.05387 2.6477e-19)
(3.38841 -1.1641 -2.87125e-20)
(3.3343 -1.27167 4.28712e-19)
(3.2751 -1.3763 -5.37908e-19)
(3.21097 -1.4777 8.69322e-22)
(3.1421 -1.57559 -2.91349e-19)
(3.06868 -1.66969 3.65732e-20)
(2.99094 -1.75976 5.00859e-19)
(2.90909 -1.84552 -4.12369e-19)
(2.82341 -1.92678 -1.07892e-19)
(2.73419 -2.00319 -7.00315e-19)
(3.51614 0.00365488 7.32373e-21)
(3.51841 -0.111515 8.37703e-22)
(3.51515 -0.226864 -5.63867e-20)
(3.50638 -0.342091 2.34629e-20)
(3.4921 -0.456897 5.05392e-20)
(3.47234 -0.570983 7.20612e-20)
(3.44716 -0.684053 -2.82442e-20)
(3.41663 -0.795813 6.89633e-20)
(3.3808 -0.905972 -1.2529e-19)
(3.3398 -1.01424 -1.7395e-19)
(3.29371 -1.12035 -6.29708e-20)
(3.24267 -1.224 -3.25003e-20)
(3.18681 -1.32494 -6.19181e-20)
(3.12628 -1.42289 -4.4211e-20)
(3.06126 -1.5176 1.10835e-19)
(2.99193 -1.60882 -1.20489e-20)
(2.91848 -1.6963 -4.29565e-19)
(2.84111 -1.77979 -7.39744e-20)
(2.76009 -1.85916 4.3909e-19)
(2.67566 -1.93399 2.22128e-19)
(3.41456 0.000625725 1.03553e-21)
(3.41669 -0.10988 1.58905e-20)
(3.41358 -0.220572 -5.69601e-22)
(3.40523 -0.331167 5.61822e-20)
(3.39166 -0.441384 -1.10965e-19)
(3.37292 -0.550944 -1.19349e-19)
(3.34904 -0.659571 1.62155e-19)
(3.32008 -0.766989 -1.09466e-19)
(3.28613 -0.872928 -6.36882e-21)
(3.24727 -0.977122 1.20735e-19)
(3.20362 -1.07931 3.19449e-21)
(3.15527 -1.17923 2.12775e-19)
(3.10238 -1.27664 -9.45221e-20)
(3.04507 -1.37129 -1.14652e-19)
(2.9835 -1.46294 -3.09686e-19)
(2.91785 -1.55135 -2.66408e-20)
(2.8483 -1.63631 -2.96584e-19)
(2.77502 -1.71755 1.83455e-19)
(2.69825 -1.79506 2.7535e-19)
(2.61813 -1.86821 -1.60049e-19)
(3.31977 -0.00211157 -1.50875e-20)
(3.32165 -0.108312 3.22147e-20)
(3.31856 -0.214695 5.38712e-20)
(3.3105 -0.320995 -5.97171e-20)
(3.29748 -0.426949 9.25837e-20)
(3.27956 -0.532295 -3.04489e-20)
(3.25676 -0.636775 -3.96064e-20)
(3.22917 -0.740134 -2.81197e-20)
(3.19685 -0.842119 -1.17913e-21)
(3.15989 -0.942484 -2.31812e-19)
(3.11838 -1.04099 2.40248e-20)
(3.07245 -1.13739 1.09068e-19)
(3.02222 -1.23146 2.46471e-19)
(2.96782 -1.32298 4.38308e-19)
(2.9094 -1.41172 -4.91304e-20)
(2.84711 -1.49746 4.9006e-19)
(2.78113 -1.58002 -2.03565e-19)
(2.7116 -1.6591 2.82976e-19)
(2.63879 -1.73476 1.58411e-19)
(2.56248 -1.80591 -8.66269e-20)
(3.23115 -0.00442235 6.2619e-21)
(3.23276 -0.10673 -1.65311e-20)
(3.22963 -0.209215 -1.18952e-19)
(3.22176 -0.311628 -9.80725e-20)
(3.20918 -0.413721 1.1762e-19)
(3.19194 -0.51525 1.75158e-19)
(3.17007 -0.615974 1.16604e-20)
(3.14365 -0.715655 -9.91012e-20)
(3.11275 -0.814059 -1.37503e-19)
(3.07746 -0.910958 6.4753e-20)
(3.03786 -1.00613 -1.51175e-20)
(2.99407 -1.09935 -4.13029e-19)
(2.94621 -1.19042 -4.11657e-19)
(2.8944 -1.27912 1.55053e-19)
(2.83878 -1.36526 1.82485e-19)
(2.77949 -1.44863 -1.83493e-20)
(2.71673 -1.52906 -1.42269e-19)
(2.65055 -1.60624 -1.09965e-19)
(2.58141 -1.68025 -1.40842e-19)
(2.50854 -1.74876 2.28793e-19)
(3.14805 -0.00636143 -2.07378e-20)
(3.1494 -0.104974 3.58753e-20)
(3.14623 -0.203798 2.20689e-20)
(3.13856 -0.302601 3.54406e-20)
(3.12641 -0.40115 -1.34721e-19)
(3.1098 -0.499219 -1.64101e-19)
(3.08881 -0.596582 -3.75564e-20)
(3.06347 -0.693017 2.01032e-19)
(3.03386 -0.788307 -1.14179e-19)
(3.00006 -0.882238 4.72134e-20)
(2.96216 -0.974603 -1.78709e-19)
(2.92025 -1.0652 3.47783e-19)
(2.87445 -1.15384 -3.33351e-19)
(2.82486 -1.24032 -8.04372e-20)
(2.77163 -1.32446 -1.00555e-19)
(2.71487 -1.40607 -1.22351e-20)
(2.65477 -1.485 -1.6282e-19)
(2.59136 -1.56095 2.03095e-19)
(2.52561 -1.63402 1.12666e-19)
(2.45614 -1.70034 -5.70724e-19)
(3.61596 3.58811 4.93871e-19)
(3.75482 3.44223 -7.42592e-19)
(3.88721 3.2918 2.60901e-19)
(4.01336 3.13671 -4.05587e-19)
(4.13293 2.97678 4.65204e-20)
(4.24562 2.81211 -4.1343e-19)
(4.35125 2.64293 -8.74069e-20)
(4.44963 2.46953 -4.05226e-19)
(4.54057 2.29222 -2.31804e-20)
(4.62393 2.11134 1.5446e-19)
(4.69956 1.92722 1.91392e-19)
(4.76733 1.74023 -3.09019e-19)
(4.82715 1.55071 1.58421e-19)
(4.87894 1.35902 4.55518e-19)
(4.92262 1.16554 -8.06633e-20)
(4.95817 0.970616 -2.67575e-19)
(4.98555 0.774612 3.58411e-19)
(5.00479 0.577878 -2.20083e-19)
(5.01594 0.380746 -3.29843e-20)
(5.01918 0.183497 -2.31864e-20)
(3.71539 3.56182 3.07175e-19)
(3.85749 3.41782 -8.98279e-19)
(3.99256 3.26789 -3.34008e-19)
(4.12075 3.11231 3.33415e-19)
(4.24183 2.95123 -1.82443e-19)
(4.35553 2.78488 3.38146e-19)
(4.46156 2.61356 6.43606e-20)
(4.55967 2.43761 -4.98082e-19)
(4.64963 2.25741 1.78165e-19)
(4.73124 2.07335 1.31905e-19)
(4.80429 1.88585 4.44305e-19)
(4.86863 1.69534 -3.74394e-19)
(4.92413 1.50226 -1.96602e-19)
(4.97069 1.30705 4.30562e-19)
(5.00824 1.11018 -2.48827e-19)
(5.03675 0.912091 4.78897e-20)
(5.0562 0.713233 -1.59431e-19)
(5.06662 0.514039 -4.13733e-21)
(5.06804 0.314913 -7.91505e-20)
(5.06058 0.116201 2.08823e-20)
(3.68859 3.51507 6.80361e-20)
(3.83332 3.37898 -3.56639e-20)
(3.97137 3.23605 8.05516e-19)
(4.10254 3.08666 -2.55479e-19)
(4.22659 2.93113 2.6649e-19)
(4.3432 2.7698 -1.74563e-19)
(4.45208 2.60303 -1.45952e-19)
(4.55293 2.43119 -6.75534e-19)
(4.64547 2.25468 7.66425e-19)
(4.72946 2.07391 -4.68766e-19)
(4.80465 1.88933 -2.09117e-19)
(4.87085 1.70139 -3.4314e-19)
(4.92789 1.51058 1.81019e-19)
(4.97565 1.31738 -1.98815e-19)
(5.014 1.12228 1.47943e-19)
(5.04288 0.925783 -3.15586e-19)
(5.06226 0.728386 3.30921e-19)
(5.07213 0.530579 1.37304e-19)
(5.07249 0.332838 -2.48078e-20)
(5.06341 0.135635 2.92052e-20)
(3.60997 3.41781 -6.69694e-20)
(3.75484 3.29116 -3.70919e-20)
(3.89361 3.15731 1.78322e-19)
(4.0259 3.0166 -4.01229e-19)
(4.15138 2.86939 7.05817e-19)
(4.2697 2.71602 2.36598e-19)
(4.38053 2.55686 3.40912e-20)
(4.48353 2.39229 -4.54613e-20)
(4.5784 2.2227 6.07476e-19)
(4.66486 2.04853 2.53355e-19)
(4.74264 1.8702 5.02392e-19)
(4.81152 1.68818 -1.15368e-19)
(4.87127 1.50296 -5.03522e-20)
(4.92175 1.31503 -1.54999e-19)
(4.96279 1.12488 1.01204e-19)
(4.9943 0.93305 1.57864e-19)
(5.0162 0.740042 -2.62612e-19)
(5.02846 0.546381 1.0011e-19)
(5.03105 0.352586 6.5481e-21)
(5.02399 0.159186 1.63161e-20)
(3.50614 3.28207 4.7031e-19)
(3.64892 3.16496 8.02561e-20)
(3.7862 3.04061 -9.5542e-19)
(3.91753 2.9093 -3.04178e-19)
(4.04251 2.77134 -1.36058e-19)
(4.16078 2.62706 -6.30974e-19)
(4.27197 2.47681 5.80423e-19)
(4.37574 2.32096 -2.67242e-19)
(4.47174 2.15987 3.20049e-19)
(4.55968 1.99397 -1.19238e-19)
(4.63927 1.82368 2.09925e-19)
(4.71026 1.64944 -3.29835e-19)
(4.7724 1.47173 -2.87495e-20)
(4.8255 1.29102 -1.35769e-19)
(4.86939 1.10781 -9.80797e-20)
(4.90393 0.922624 5.61564e-20)
(4.92901 0.735966 -2.95342e-20)
(4.94457 0.548365 4.90698e-20)
(4.95054 0.360351 -5.85171e-20)
(4.94693 0.172466 8.03996e-21)
(3.38732 3.12721 -9.57045e-20)
(3.5265 3.01928 1.17579e-20)
(3.66074 2.90421 4.06363e-19)
(3.78956 2.78224 -8.7235e-20)
(3.91255 2.65365 2.58669e-19)
(4.02934 2.51873 -8.6086e-19)
(4.13955 2.37781 -1.4278e-19)
(4.2428 2.23121 -4.35117e-19)
(4.33877 2.07929 1.05789e-19)
(4.42714 1.92244 1.46173e-19)
(4.5076 1.76105 3.04514e-19)
(4.57988 1.59556 -4.31616e-19)
(4.64374 1.4264 2.1995e-19)
(4.69895 1.25403 3.24133e-19)
(4.74532 1.07893 1.12661e-20)
(4.78269 0.901595 -1.30646e-19)
(4.81092 0.722524 -1.10821e-20)
(4.82991 0.54223 -2.7007e-20)
(4.8396 0.361234 6.7078e-21)
(4.83993 0.180069 -5.51668e-21)
(3.26296 2.96528 1.73558e-19)
(3.39754 2.8658 1.12702e-19)
(3.52766 2.7594 7.3439e-20)
(3.65288 2.64626 -4.23374e-19)
(3.77278 2.52663 -4.00492e-19)
(3.88697 2.40078 9.23296e-19)
(3.99508 2.26899 9.4925e-20)
(4.09675 2.13157 -3.2304e-19)
(4.19163 1.98883 2.94648e-19)
(4.27941 1.84114 -4.67515e-19)
(4.35978 1.68887 7.46289e-20)
(4.43245 1.5324 2.08165e-19)
(4.49719 1.37216 -1.51796e-19)
(4.55374 1.20858 -6.449e-20)