/*--------------------------------*- C++ -*----------------------------------*\
| =========                 |                                                 |
| \\      /  F ield         | OpenFOAM: The Open Source CFD Toolbox           |
|  \\    /   O peration     | Version:  v1912                                 |
|   \\  /    A nd           | Website:  www.openfoam.com                      |
|    \\/     M anipulation  |                                                 |
\*---------------------------------------------------------------------------*/
FoamFile
{
    version     2.0;
    format      ascii;
    class       surfaceScalarField;
    location    "46.5";
    object      phi;
}
// * * * * * * * * * * * * * * * * * * * * * * * * * * * * * * * * * * * * * //

dimensions      [0 3 -1 0 0 0 0];
oriented        oriented;


internalField   nonuniform List<scalar> 
18940
(
0.000358061
-0.234366
0.234008
0.00137828
-0.216328
0.215308
0.00288138
-0.204793
0.20329
0.00469695
-0.197011
0.195195
0.00669425
-0.191255
0.189258
0.00877159
-0.18646
0.184383
0.0108552
-0.182038
0.179954
0.0128957
-0.177693
0.175653
0.014863
-0.173301
0.171334
0.0167416
-0.168834
0.166956
0.0185268
-0.164313
0.162528
0.0202211
-0.15978
0.158085
0.0218315
-0.155282
0.153672
0.0233679
-0.150864
0.149328
0.0248413
-0.146562
0.145089
0.0262636
-0.1424
0.140978
0.0276462
-0.13839
0.137008
0.0289996
-0.134531
0.133178
0.0303323
-0.130802
0.129469
-0.127163
0.125846
0.0316495
0.000381483
-0.234747
0.00142159
-0.217369
0.00293541
-0.206307
0.00475531
-0.198831
0.00674708
-0.193247
0.00880914
-0.188522
0.010869
-0.184098
0.0128787
-0.179703
0.0148101
-0.175233
0.0166497
-0.170674
0.0183942
-0.166057
0.0200474
-0.161433
0.0216174
-0.156852
0.0231147
-0.152362
0.0245508
-0.147998
0.0259379
-0.143787
0.0272875
-0.13974
0.0286106
-0.135854
0.0299161
-0.132107
-0.128457
0.0312099
0.000402906
-0.23515
0.00145924
-0.218425
0.00298178
-0.20783
0.00480225
-0.200651
0.00678487
-0.195229
0.00882797
-0.190565
0.0108603
-0.18613
0.0128359
-0.181678
0.0147283
-0.177125
0.016526
-0.172472
0.0182274
-0.167759
0.0198374
-0.163043
0.0213652
-0.15838
0.0228218
-0.153818
0.0242192
-0.149396
0.0255697
-0.145138
0.0268851
-0.141055
0.0281766
-0.137146
0.0294536
-0.133384
-0.129727
0.0307229
0.000416777
-0.235567
0.00148815
-0.219496
0.00301858
-0.20936
0.00483705
-0.202469
0.00680714
-0.197199
0.00882774
-0.192586
0.0108291
-0.188132
0.0127672
-0.183616
0.0146178
-0.178976
0.016371
-0.174225
0.018027
-0.169415
0.019592
-0.164608
0.0210759
-0.159864
0.0224905
-0.155233
0.0238479
-0.150753
0.0251606
-0.14645
0.0264407
-0.142336
0.0276996
-0.138404
0.0289472
-0.134632
-0.130971
0.0301912
0.000428045
-0.235995
0.00151168
-0.22058
0.00304714
-0.210896
0.00486036
-0.204283
0.00681437
-0.199153
0.0088089
-0.194581
0.0107759
-0.190098
0.0126734
-0.185514
0.0144792
-0.180782
0.0161856
-0.175931
0.0177941
-0.171023
0.0193123
-0.166126
0.020751
-0.161302
0.0221222
-0.156604
0.0234385
-0.152069
0.0247124
-0.147724
0.0259562
-0.143579
0.0271816
-0.13963
0.0283989
-0.135849
-0.132188
0.0296168
0.000437137
-0.236432
0.00153024
-0.221673
0.00306772
-0.212433
0.0048724
-0.206087
0.00680686
-0.201088
0.00877184
-0.196546
0.0107012
-0.192028
0.012555
-0.187368
0.0143135
-0.18254
0.0159707
-0.177588
0.0175298
-0.172582
0.0189996
-0.167596
0.0203915
-0.162694
0.0217181
-0.157931
0.0229922
-0.153344
0.0242264
-0.148958
0.0254329
-0.144786
0.0266237
-0.140821
0.0278099
-0.137036
-0.13338
0.029001
0.000444618
-0.236877
0.00154449
-0.222773
0.00308089
-0.21397
0.00487368
-0.20788
0.00678511
-0.202999
0.00871716
-0.198478
0.0106056
-0.193916
0.012413
-0.189175
0.0141216
-0.184249
0.0157274
-0.179194
0.0172352
-0.17409
0.0186548
-0.169016
0.0199986
-0.164038
0.0212794
-0.159211
0.0225102
-0.154574
0.0237034
-0.150152
0.0248716
-0.145954
0.0260268
-0.141976
0.0271808
-0.13819
-0.134543
0.0283444
0.000450642
-0.237328
0.00155476
-0.223877
0.00308706
-0.215502
0.00486466
-0.209658
0.0067497
-0.204884
0.00864552
-0.200373
0.0104901
-0.195761
0.0122482
-0.190933
0.0139045
-0.185905
0.0154567
-0.180746
0.0169113
-0.175545
0.0182792
-0.170383
0.0195734
-0.165332
0.0208071
-0.160445
0.0219933
-0.155761
0.0231444
-0.151303
0.0242729
-0.147083
0.0253913
-0.143094
0.0265119
-0.13931
-0.135678
0.0276467
0.000455317
-0.237783
0.00156135
-0.224983
0.00308666
-0.217027
0.00484591
-0.211417
0.00670129
-0.20674
0.00855776
-0.20223
0.0103555
-0.197559
0.0120617
-0.19264
0.0136633
-0.187507
0.0151599
-0.182243
0.0165595
-0.176944
0.017874
-0.171698
0.019117
-0.166575
0.0203021
-0.16163
0.0214422
-0.156901
0.0225498
-0.15241
0.0236371
-0.14817
0.0247169
-0.144174
0.0258025
-0.140396
-0.136783
0.0269072
0.000458716
-0.238242
0.00156453
-0.226089
0.00308018
-0.218543
0.00481806
-0.213155
0.00664071
-0.208562
0.00845484
-0.204044
0.010203
-0.199307
0.0118548
-0.194291
0.0133994
-0.189051
0.0148384
-0.183682
0.016181
-0.178287
0.0174404
-0.172957
0.0186305
-0.167765
0.0197653
-0.162765
0.0208577
-0.157993
0.0219198
-0.153473
0.022964
-0.149214
0.0240031
-0.145213
0.0250515
-0.141444
-0.137855
0.0261239
0.000460945
-0.238703
0.00156465
-0.227193
0.00306819
-0.220046
0.00478188
-0.214869
0.0065689
-0.210349
0.00833789
-0.205813
0.0100338
-0.201003
0.0116289
-0.195887
0.0131143
-0.190537
0.0144937
-0.185061
0.0157775
-0.179571
0.0169798
-0.17416
0.0181152
-0.168901
0.0191977
-0.163848
0.0202402
-0.159036
0.0212547
-0.154487
0.0222531
-0.150212
0.0232488
-0.146209
0.0242569
-0.142452
-0.138892
0.0252943
0.00046216
-0.239165
0.00156216
-0.228293
0.00305137
-0.221536
0.00473827
-0.216555
0.00648697
-0.212098
0.00820824
-0.207534
0.00984959
-0.202644
0.0113857
-0.197423
0.01281
-0.191961
0.0141277
-0.186379
0.0153508
-0.180794
0.016494
-0.175303
0.0175725
-0.169979
0.0186004
-0.164875
0.0195906
-0.160026
0.0205545
-0.155451
0.0215041
-0.151162
0.0224527
-0.147157
0.0234167
-0.143416
-0.139891
0.0244151
0.000462639
-0.239627
0.00155767
-0.229388
0.00303058
-0.223009
0.0046883
-0.218213
0.00639622
-0.213806
0.00806743
-0.209205
0.00965203
-0.204229
0.0111272
-0.198898
0.0124884
-0.193322
0.0137427
-0.187633
0.0149031
-0.181954
0.0159851
-0.176385
0.0170044
-0.170999
0.0179751
-0.165846
0.0189098
-0.16096
0.0198199
-0.156361
0.0207167
-0.152059
0.0216136
-0.148054
0.0225284
-0.144331
-0.140845
0.0234825
0.000462861
-0.24009
0.00155205
-0.230477
0.00300686
-0.224463
0.00463321
-0.21984
0.00629812
-0.215471
0.0079172
-0.210825
0.00944318
-0.205755
0.0108557
-0.20031
0.0121522
-0.194619
0.0133414
-0.188823
0.0144373
-0.18305
0.015456
-0.177404
0.0164134
-0.171956
0.0173238
-0.166757
0.0181994
-0.161836
0.0190512
-0.157213
0.0198902
-0.152898
0.0207296
-0.148894
0.0215881
-0.14519
-0.141747
0.0224903
0.000463628
-0.240554
0.00154645
-0.23156
0.00298145
-0.225898
0.00457436
-0.221432
0.00619429
-0.217091
0.00775947
-0.21239
0.0092253
-0.20722
0.0105738
-0.201659
0.0118044
-0.195849
0.0129272
-0.189945
0.013957
-0.18408
0.0149104
-0.178357
0.0158034
-0.172849
0.0166499
-0.167603
0.017462
-0.162648
0.0182501
-0.158001
0.0190243
-0.153672
0.0197976
-0.149667
0.0205894
-0.145981
-0.142588
0.02143
0.000466087
-0.24102
0.00154218
-0.232636
0.00295553
-0.227312
0.00451312
-0.22299
0.00608641
-0.218664
0.0075963
-0.2139
0.00900087
-0.208625
0.0102845
-0.202942
0.0114485
-0.197013
0.012504
-0.191001
0.0134667
-0.185043
0.0143534
-0.179244
0.0151797
-0.173675
0.0159594
-0.168383
0.0167036
-0.163392
0.0174219
-0.158719
0.0181232
-0.154373
0.0188196
-0.150363
0.0195316
-0.146693
-0.143355
0.0202983
0.000471629
-0.241492
0.00154056
-0.233705
0.00293044
-0.228702
0.00445105
-0.224511
0.00597633
-0.220189
0.00742989
-0.215353
0.00877251
-0.209968
0.00999087
-0.204161
0.0110881
-0.198111
0.0120763
-0.191989
0.0129716
-0.185938
0.0137907
-0.180063
0.014549
-0.174433
0.0152594
-0.169093
0.0159322
-0.164065
0.0165759
-0.159363
0.0171978
-0.154995
0.017808
-0.150974
0.0184272
-0.147313
-0.144023
0.0190953
0.000482583
-0.241974
0.00154421
-0.234766
0.00290864
-0.230066
0.00439026
-0.225992
0.00586603
-0.221665
0.00726236
-0.21675
0.00854278
-0.211248
0.00969623
-0.205314
0.0107273
-0.199142
0.0116491
-0.192911
0.0124777
-0.186767
0.0132294
-0.180814
0.0139185
-0.175123
0.0145569
-0.169732
0.0151538
-0.164662
0.0157165
-0.159925
0.0162515
-0.15553
0.0167652
-0.151487
0.0172705
-0.147818
-0.144544
0.0177914
0.00050653
-0.242481
0.00156035
-0.23582
0.0028942
-0.2314
0.00433266
-0.227431
0.00575672
-0.223089
0.00709511
-0.218088
0.0083137
-0.212467
0.00940346
-0.206404
0.0103705
-0.200109
0.0112284
-0.193769
0.0119931
-0.187532
0.01268
-0.181501
0.0133014
-0.175744
0.0138664
-0.170297
0.014381
-0.165177
0.0148488
-0.160393
0.0152716
-0.155953
0.0156483
-0.151864
0.0159834
-0.148153
-0.144899
0.0163389
0.000563588
-0.243044
0.00159729
-0.236854
0.00288685
-0.232689
0.00427707
-0.228821
0.00564794
-0.22446
0.00692857
-0.219369
0.00808657
-0.213625
0.00911489
-0.207432
0.0100211
-0.201015
0.0108197
-0.194567
0.0115267
-0.188239
0.0121565
-0.182131
0.0127198
-0.176307
0.0132221
-0.170799
0.0136632
-0.165618
0.0140358
-0.160766
0.0143229
-0.15624
0.0144985
-0.15204
0.0145573
-0.148212
-0.145071
0.0147289
0.250725
0.000414969
-0.25114
0.250336
0.000388608
0.249955
0.000381337
0.249573
0.000381468
0.249189
0.000384413
0.2488
0.000388823
0.248406
0.000393975
0.248007
0.00039928
0.247602
0.000404344
0.247193
0.000408965
0.24678
0.000413044
0.246364
0.000416555
0.245944
0.000419481
0.245522
0.000421799
0.245099
0.000423383
0.244675
0.000424029
0.244252
0.000422688
0.243834
0.000418812
0.24343
0.0004032
0.000386108
0.252689
0.0010233
-0.253298
0.252046
0.0010325
0.251373
0.00105359
0.250674
0.00108057
0.24995
0.00110893
0.249201
0.0011373
0.24843
0.00116521
0.247637
0.00119216
0.246824
0.00121774
0.245991
0.00124168
0.24514
0.00126388
0.244272
0.00128431
0.243389
0.00130296
0.242491
0.00131983
0.241579
0.00133478
0.240656
0.0013476
0.239721
0.00135719
0.238777
0.00136328
0.23782
0.0013596
0.00135281
0.251466
0.0015951
-0.252038
0.25083
0.001669
0.25014
0.00174312
0.249403
0.00181834
0.248619
0.00189232
0.247793
0.00196383
0.246925
0.00203256
0.246019
0.00209826
0.245076
0.0021607
0.244098
0.00221972
0.243087
0.00227526
0.242044
0.00232738
0.240971
0.00237616
0.239869
0.00242171
0.238739
0.00246404
0.237584
0.00250319
0.236402
0.00253864
0.235195
0.00257063
0.233958
0.00259678
0.00262127
0.247358
0.00203841
-0.247801
0.246845
0.00218196
0.246267
0.00232088
0.245629
0.00245663
0.244932
0.00258853
0.24418
0.00271581
0.243375
0.00283811
0.242518
0.00295529
0.241611
0.0030672
0.240657
0.00317375
0.239658
0.00327499
0.238614
0.00337102
0.237528
0.00346207
0.236401
0.0035484
0.235235
0.00363029
0.23403
0.00370812
0.232787
0.00378196
0.231505
0.00385246
0.230183
0.00391888
0.00398324
0.241107
0.0023174
-0.241386
0.240757
0.00253223
0.240338
0.00274029
0.239852
0.00294242
0.239302
0.00313858
0.238689
0.00332831
0.238016
0.00351128
0.237284
0.00368729
0.236495
0.00385623
0.235651
0.00401806
0.234753
0.00417285
0.233803
0.0043208
0.232803
0.00446223
0.231754
0.00459762
0.230657
0.0047275
0.229512
0.00485257
0.228321
0.00497342
0.227082
0.00509101
0.225796
0.0052055
0.00531857
0.233508
0.00244073
-0.233632
0.233314
0.00272615
0.233051
0.00300363
0.23272
0.00327349
0.232323
0.00353575
0.231861
0.00379011
0.231336
0.00403624
0.230749
0.00427391
0.230103
0.00450299
0.229397
0.00472343
0.228635
0.00493535
0.227817
0.00513899
0.226944
0.00533479
0.226018
0.00552337
0.22504
0.00570556
0.22401
0.00588237
0.222929
0.00605486
0.221796
0.00622442
0.220609
0.0063919
0.00655914
0.225264
0.00243892
-0.225262
0.225197
0.00279237
0.225064
0.00313714
0.224864
0.00347316
0.2246
0.00380035
0.224271
0.00411845
0.22388
0.00442711
0.223428
0.00472606
0.222916
0.00501512
0.222345
0.00529424
0.221717
0.00556351
0.221033
0.00582323
0.220294
0.00607393
0.219501
0.00631638
0.218655
0.00655166
0.217756
0.00678113
0.216804
0.00700637
0.2158
0.00722925
0.21474
0.00745133
0.00767477
0.216901
0.00234817
-0.21681
0.216927
0.0027661
0.21689
0.00317475
0.216789
0.00357383
0.216626
0.00396312
0.216402
0.00434232
0.216118
0.00471103
0.215776
0.00506893
0.215375
0.00541579
0.214918
0.00575152
0.214405
0.00607617
0.213838
0.00639006
0.213218
0.00669377
0.212546
0.00698822
0.211823
0.00727472
0.21105
0.00755504
0.210225
0.00783127
0.209348
0.00810595
0.208418
0.00838141
0.00866037
0.208768
0.00220176
-0.208621
0.208853
0.00268039
0.208879
0.00314917
0.208845
0.00360767
0.208753
0.00405556
0.208602
0.00449245
0.208396
0.0049179
0.208133
0.0053315
0.207816
0.00573296
0.207445
0.0061221
0.207022
0.00649895
0.206549
0.00686376
0.206025
0.00721714
0.205453
0.00756012
0.204834
0.00789425
0.204167
0.00822166
0.203453
0.0085451
0.202692
0.00886785
0.20188
0.00919335
0.00952513
0.201063
0.00202669
-0.200888
0.201181
0.00256244
0.201243
0.00308777
0.201248
0.00360213
0.201199
0.00410511
0.201095
0.00459621
0.200938
0.00507492
0.200729
0.00554075
0.200468
0.0059933
0.200158
0.0064323
0.199799
0.00685767
0.199394
0.0072696
0.198942
0.00766866
0.198446
0.00805589
0.197907
0.00843306
0.197326
0.00880263
0.196703
0.00916811
0.196038
0.00953366
0.195327
0.00990423
0.0102846
0.193882
0.0018428
-0.193698
0.194011
0.00243256
0.194088
0.00301131
0.194112
0.00357841
0.194083
0.00413332
0.194004
0.00467545
0.193875
0.00520422
0.193697
0.00571901
0.193471
0.00621932
0.193198
0.00670475
0.192881
0.00717507
0.19252
0.00763031
0.192118
0.00807093
0.191676
0.0084979
0.191196
0.00891312
0.190679
0.00931925
0.190126
0.00972074
0.189537
0.0101226
0.18891
0.0105321
0.0109556
0.187245
0.0016635
-0.187066
0.187373
0.00230475
0.18745
0.00293442
0.187477
0.00355166
0.187454
0.00415585
0.187383
0.00474634
0.187265
0.00532241
0.187101
0.00588337
0.186891
0.00642854
0.186639
0.00695736
0.186344
0.00746942
0.18601
0.00796451
0.185638
0.00844288
0.185231
0.00890523
0.184791
0.00935352
0.184319
0.00979035
0.183819
0.0102213
0.18329
0.010652
0.182729
0.0110931
0.0115531
0.181134
0.00149712
-0.180968
0.181251
0.00218804
0.181319
0.00286661
0.181339
0.00353192
0.181311
0.00418329
0.181238
0.00481998
0.181119
0.00544114
0.180956
0.00604596
0.180751
0.00663362
0.180505
0.00720335
0.18022
0.00775448
0.179898
0.00828647
0.179542
0.00879928
0.179154
0.0092931
0.178738
0.0097698
0.178297
0.0102314
0.177833
0.0106849
0.177349
0.0111357
0.176842
0.0116003
0.0120879
0.175507
0.0013485
-0.175358
0.175607
0.00208755
0.17566
0.00281346
0.175667
0.00352528
0.175628
0.00422221
0.175545
0.0049034
0.175418
0.00556792
0.175249
0.00621481
0.17504
0.00684309
0.174791
0.00745176
0.174506
0.00803986
0.174186
0.00860646
0.173834
0.00915102
0.173454
0.00967302
0.17305
0.010174
0.172627
0.0106546
0.172188
0.0111237
0.17174
0.0115843
0.171277
0.0120628
0.012566
0.17031
0.00121991
-0.170182
0.170392
0.002006
0.170427
0.00277801
0.170418
0.00353504
0.170364
0.0042762
0.170267
0.00500054
0.170127
0.00570704
0.169948
0.0063946
0.169729
0.00706207
0.169472
0.0077082
0.16918
0.00833172
0.168856
0.00893119
0.168501
0.00950551
0.168121
0.0100531
0.16772
0.0105749
0.167305
0.0110692
0.166882
0.0115469
0.166462
0.0120047
0.166038
0.0124866
0.012986
0.16549
0.00111213
-0.165382
0.165552
0.00194418
0.165569
0.00276123
0.165542
0.00356237
0.165471
0.00434665
0.165359
0.00511301
0.165205
0.00586034
0.165013
0.00658742
0.164782
0.00729293
0.164514
0.00797539
0.164213
0.00863317
0.16388
0.00926433
0.163518
0.00986707
0.163133
0.0104385
0.162729
0.0109787
0.162316
0.0114819
0.161901
0.0119619
0.161504
0.0124019
0.161116
0.0128751
0.013336
0.160994
0.00102466
-0.160907
0.161037
0.00190161
0.161035
0.00276269
0.160991
0.0036069
0.160904
0.00443322
0.160777
0.00524052
0.160609
0.0060276
0.160404
0.00679316
0.160161
0.00753569
0.159883
0.00825349
0.159571
0.00894462
0.159229
0.00960665
0.158859
0.010237
0.158466
0.0108314
0.158056
0.0113885
0.157641
0.0118972
0.157229
0.0123738
0.156852
0.0127787
0.156494
0.0132333
0.0135901
0.156775
0.000955663
-0.156706
0.1568
0.00187674
0.156782
0.00278068
0.156722
0.0036668
0.156621
0.00453397
0.156481
0.00538098
0.156302
0.0062066
0.156086
0.00700942
0.155833
0.00778782
0.155547
0.00853991
0.155228
0.00926349
0.154879
0.00995567
0.154503
0.0106133
0.154104
0.0112305
0.153688
0.0118043
0.153268
0.0123169
0.152856
0.0127859
0.152501
0.0131343
0.152167
0.0135672
0.0137172
0.15279
0.000903187
-0.152737
0.1528
0.00186672
0.152769
0.00281201
0.152697
0.00373849
0.152586
0.00464486
0.152437
0.00552993
0.152251
0.00639243
0.15203
0.00723088
0.151774
0.00804357
0.151486
0.00882847
0.151166
0.0095832
0.150817
0.0103046
0.150441
0.0109889
0.150043
0.0116291
0.149626
0.0122211
0.149203
0.0127394
0.148788
0.0132018
0.148453
0.0134688
0.14816
0.0138601
0.0136655
0.149
-0.148962
0.000865672
0.148999
0.0018676
0.148959
0.00285227
0.14888
0.00381688
0.148765
0.00476007
0.148614
0.00568076
0.148429
0.00657769
0.14821
0.00744933
0.14796
0.00829389
0.147679
0.00910928
0.147369
0.00989305
0.147032
0.0106418
0.146669
0.0113518
0.146283
0.012015
0.145877
0.0126273
0.14546
0.0131567
0.145037
0.0136251
0.144686
0.0138196
0.144428
0.0141178
0.0130229
0.254361
7.40744e-05
-0.254435
0.254325
3.63761e-05
0.254292
3.25325e-05
0.254251
4.1456e-05
0.254195
5.5879e-05
0.254121
7.37226e-05
0.254027
9.36844e-05
0.253913
0.00011464
0.253777
0.000135776
0.25362
0.000156584
0.253444
0.000176626
0.253248
0.000195621
0.253034
0.000214062
0.252801
0.000233008
0.252551
0.000250294
0.252285
0.000265466
0.252007
0.000278126
0.251719
0.000288182
0.251429
0.000289775
0.000289781
0.256217
-0.000241415
-0.255901
0.25647
-0.00021748
0.25668
-0.000176582
0.256844
-0.000122808
0.256962
-6.26709e-05
0.257035
1.22475e-06
0.257061
6.77362e-05
0.25704
0.000135772
0.256971
0.000204409
0.256855
0.000272712
0.256692
0.000339438
0.256484
0.000403344
0.256235
0.000463192
0.255938
0.000530583
0.255596
0.000592275
0.255212
0.000649408
0.254788
0.000701841
0.254327
0.00074951
0.253829
0.00078776
0.000820812
0.251648
-0.0008979
-0.250992
0.252232
-0.000801051
0.25275
-0.000694351
0.253205
-0.000577967
0.253597
-0.000455413
0.253928
-0.00032893
0.254195
-0.000199666
0.2544
-6.90288e-05
0.254541
6.29916e-05
0.254618
0.000195823
0.254632
0.000325622
0.254583
0.000452014
0.254469
0.000577296
0.254297
0.000702319
0.254067
0.000823173
0.253777
0.000939016
0.253429
0.00104937
0.253025
0.00115414
0.252561
0.00125137
0.00134386
0.243328
-0.00183325
-0.242392
0.24419
-0.00166367
0.244983
-0.00148681
0.245707
-0.00130196
0.246362
-0.00111076
0.246948
-0.000915042
0.247465
-0.000716143
0.247911
-0.000515327
0.248287
-0.000313285
0.24859
-0.000107246
0.248821
9.46009e-05
0.248984
0.000289259
0.249076
0.000485844
0.249099
0.000679408
0.249053
0.00086889
0.248938
0.00105338
0.248756
0.00123213
0.248505
0.00140477
0.248186
0.00157024
0.0017291
0.233244
-0.00296741
-0.23211
0.23431
-0.00272963
0.235308
-0.00248434
0.236237
-0.00223111
0.237097
-0.00197085
0.237887
-0.00170507
0.238606
-0.00143518
0.239253
-0.0011624
0.239828
-0.000887698
0.240332
-0.000611849
0.240765
-0.000338082
0.241122
-6.78135e-05
0.241407
0.000201031
0.24162
0.000466541
0.24176
0.000728325
0.241829
0.000984942
0.241825
0.00123566
0.24175
0.00147988
0.241604
0.00171679
0.00194632
0.222688
-0.00422803
-0.221427
0.223885
-0.00392693
0.225017
-0.00361676
0.226084
-0.00329765
0.227084
-0.00297043
0.228015
-0.00263651
0.228877
-0.00229747
0.22967
-0.00195477
0.230392
-0.00160986
0.231044
-0.00126408
0.231625
-0.000918997
0.232133
-0.000575895
0.23257
-0.000235638
0.232936
0.000100239
0.233231
0.000433214
0.233454
0.000762174
0.233605
0.00108444
0.233685
0.00139995
0.233694
0.00170806
0.00200853
0.212442
-0.00555752
-0.211113
0.213713
-0.0051973
0.214922
-0.00482589
0.216068
-0.00444392
0.21715
-0.00405247
0.218167
-0.00365312
0.219117
-0.00324769
0.22
-0.00283793
0.220816
-0.00242547
0.221563
-0.00201178
0.222243
-0.00159826
0.222853
-0.00118632
0.223394
-0.000776764
0.223865
-0.00037032
0.224273
2.53364e-05
0.224608
0.000426491
0.224875
0.000818024
0.225072
0.00120223
0.225201
0.00157904
0.00194806
0.202919
-0.00691412
-0.201562
0.20422
-0.00649809
0.205462
-0.00606848
0.206645
-0.00562629
0.207765
-0.00517304
0.208823
-0.00471071
0.209816
-0.00424144
0.210746
-0.00376726
0.21161
-0.00328998
0.21241
-0.00281125
0.213144
-0.00233252
0.213813
-0.00185517
0.214416
-0.00138028
0.214955
-0.000908793
0.215422
-0.000442083
0.215835
1.37254e-05
0.216176
0.000477057
0.216453
0.000925627
0.216664
0.00136764
0.00180175
0.194276
-0.00827003
-0.19292
0.195579
-0.00780073
0.196825
-0.00731515
0.198014
-0.00681463
0.199142
-0.00630132
0.200209
-0.00577782
0.201214
-0.00524668
0.202157
-0.00471025
0.203038
-0.00417057
0.203856
-0.00362943
0.204612
-0.00308836
0.205305
-0.00254871
0.205937
-0.00201164
0.206506
-0.00147808
0.207013
-0.00094945
0.207454
-0.000427046
0.207841
9.06371e-05
0.208162
0.000604133
0.208422
0.00110748
0.00160297
0.186522
-0.00960849
-0.185183
0.187809
-0.00908789
0.189041
-0.00854783
0.190217
-0.00799001
0.191333
-0.0074176
0.192389
-0.00683401
0.193385
-0.00624233
0.19432
-0.00564525
0.195194
-0.00504505
0.196009
-0.00444364
0.196763
-0.00384259
0.197457
-0.00324321
0.198092
-0.00264664
0.198668
-0.00205386
0.199184
-0.00146587
0.199641
-0.000883566
0.200039
-0.000307692
0.200381
0.000262177
0.200664
0.000825062
0.00137846
0.179583
-0.0109208
-0.178271
0.180846
-0.0103506
0.182055
-0.00975687
0.183207
-0.00914197
0.1843
-0.00851065
0.185334
-0.00786741
0.186307
-0.0072159
0.187221
-0.00655922
0.188076
-0.00589987
0.188872
-0.00523983
0.18961
-0.00458066
0.190291
-0.00392361
0.190914
-0.00326975
0.19148
-0.00262001
0.191989
-0.00197524
0.192442
-0.0013363
0.192838
-0.00070372
0.193181
-8.04229e-05
0.193467
0.000538931
0.00114753
0.173357
-0.012204
-0.172074
0.174593
-0.011586
0.175774
-0.0109386
0.176899
-0.010266
0.177963
-0.00957535
0.178968
-0.00887229
0.179913
-0.00816116
0.1808
-0.00744546
0.181628
-0.0067279
0.182398
-0.00601045
0.183112
-0.00529458
0.18377
-0.00458144
0.184372
-0.00387201
0.184919
-0.00316712
0.185412
-0.00246757
0.18585
-0.00177417
0.186234
-0.00108767
0.186563
-0.000409656
0.186842
0.000260064
0.000923279
0.167734
-0.0134588
-0.166479
0.168943
-0.0127953
0.170098
-0.0120937
0.171194
-0.0113619
0.172229
-0.0106107
0.173204
-0.00984713
0.174119
-0.00907608
0.174975
-0.00830155
0.175774
-0.00752633
0.176515
-0.0067523
0.177202
-0.00598075
0.177833
-0.0052127
0.17841
-0.00444896
0.178933
-0.00369031
0.179403
-0.00293744
0.17982
-0.00219117
0.180184
-0.00145197
0.180495
-0.000720579
0.180759
-3.76884e-06
0.000714057
0.162612
-0.0146892
-0.161382
0.163801
-0.0139835
0.164932
-0.0132255
0.166003
-0.012432
0.16701
-0.0116185
0.167956
-0.0107929
0.168841
-0.00996111
0.169667
-0.00912747
0.170435
-0.00829474
0.171148
-0.00746458
0.171805
-0.00663805
0.172408
-0.00581591
0.172958
-0.00499882
0.173455
-0.00418741
0.1739
-0.00338231
0.174293
-0.00258428
0.174635
-0.00179396
0.174927
-0.00101266
0.175166
-0.000242185
0.00052149
0.157911
-0.0159016
-0.156698
0.159085
-0.0151579
0.1602
-0.0143397
0.161248
-0.0134807
0.162232
-0.0126017
0.16315
-0.0117116
0.164006
-0.0108173
0.164803
-0.00992377
0.165541
-0.00903332
0.166224
-0.00814724
0.166852
-0.0072662
0.167427
-0.00639066
0.167949
-0.005521
0.168419
-0.00465769
0.168838
-0.00380129
0.169207
-0.00295249
0.169525
-0.00211204
0.169793
-0.00128088
0.170011
-0.000460143
0.000350423
0.153566
-0.0171088
-0.152359
0.154737
-0.0163292
0.155841
-0.0154433
0.156873
-0.0145128
0.157834
-0.0135626
0.158726
-0.0126037
0.159553
-0.0116446
0.160319
-0.0106899
0.161027
-0.00974142
0.16168
-0.00879969
0.162278
-0.00786479
0.162824
-0.00693665
0.163319
-0.00601532
0.163762
-0.00510104
0.164155
-0.00419427
0.164498
-0.00329561
0.164792
-0.00240581
0.165037
-0.0015257
0.165233
-0.000656468
0.00020091
0.149532
-0.0183398
-0.148301
0.150715
-0.0175124
0.151815
-0.0165426
0.152832
-0.0155307
0.15377
-0.0145
0.154632
-0.0134661
0.155427
-0.0124395
0.15616
-0.0114231
0.156836
-0.010417
0.157457
-0.00942057
0.158025
-0.00843304
0.158542
-0.00745358
0.159009
-0.0064818
0.159425
-0.00551772
0.159793
-0.00456165
0.160111
-0.00361414
0.160381
-0.00267594
0.160603
-0.00174792
0.160778
-0.000831065
7.22737e-05
0.14578
-0.0196592
-0.14446
0.146997
-0.0187294
0.148092
-0.0176381
0.149091
-0.0165291
0.149996
-0.0154056
0.150821
-0.0142907
0.151577
-0.0131958
0.152273
-0.012119
0.152913
-0.0110573
0.153501
-0.0100085
0.154038
-0.00897049
0.154527
-0.00794163
0.154966
-0.00692106
0.155357
-0.00590858
0.155699
-0.00490445
0.155995
-0.00390921
0.156242
-0.00292363
0.156443
-0.00194877
0.156598
-0.000985616
-3.61072e-05
0.142325
-0.0211369
-0.140847
0.143573
-0.0199777
0.144646
-0.0187117
0.145603
-0.0174855
0.14646
-0.0162626
0.147236
-0.0150666
0.147947
-0.0139065
0.148601
-0.0127738
0.149205
-0.011661
0.14976
-0.0105635
0.150268
-0.00947797
0.150728
-0.00840203
0.151141
-0.00733451
0.151508
-0.00627517
0.151828
-0.00522431
0.152101
-0.00418253
0.152328
-0.0031507
0.152509
-0.00212998
0.152646
-0.00112186
-0.000127905
0.139237
-0.137819
-0.0225545
0.140398
-0.0211392
0.141432
-0.0197451
0.142308
-0.0183622
0.143097
-0.0170516
0.143821
-0.0157901
0.144486
-0.0145714
0.1451
-0.0133883
0.145669
-0.0122298
0.146193
-0.0110877
0.146673
-0.00995745
0.147107
-0.00883647
0.147496
-0.00772364
0.14784
-0.00661884
0.148138
-0.00552255
0.148391
-0.00443555
0.148599
-0.00335881
0.148763
-0.00229335
0.148882
-0.00124073
-0.000208447
0.0308182
0.112024
-0.110541
-0.0323016
0.0293075
0.115028
-0.113517
0.0277668
0.118165
-0.116624
0.0261925
0.121458
-0.119883
0.0245814
0.124938
-0.123327
0.0229305
0.12865
-0.126999
0.021238
0.13265
-0.130957
0.0195022
0.137018
-0.135282
0.0177228
0.141858
-0.140078
0.0158998
0.1473
-0.145478
0.0140352
0.153507
-0.151643
0.0121332
0.160664
-0.158762
0.0102027
0.168974
-0.167043
0.00826033
0.178623
-0.176681
0.00633602
0.189735
-0.187811
0.00447991
0.202275
-0.200419
0.00277176
0.215904
-0.214196
0.00133205
0.229769
-0.228329
0.000330072
0.242086
-0.241084
0.249723
-0.249393
0.0306295
0.1135
-0.0321053
0.0291264
0.116531
0.0275935
0.119698
0.0260272
0.123024
0.0244243
0.126541
0.0227818
0.130292
0.0210976
0.134334
0.01937
0.138746
0.0175985
0.143629
0.0157832
0.149116
0.013926
0.155364
0.0120317
0.162559
0.0101095
0.170896
0.00817704
0.180555
0.00626535
0.191647
0.00442608
0.204114
0.00274044
0.21759
0.0013284
0.231181
0.000353843
0.24306
0.250076
0.0303988
0.114966
-0.0318649
0.0289055
0.118024
0.0273826
0.121221
0.0258266
0.12458
0.0242341
0.128134
0.0226021
0.131924
0.0209284
0.136008
0.0192113
0.140463
0.01745
0.145391
0.0156447
0.150921
0.0137974
0.157212
0.0119132
0.164443
0.0100018
0.172807
0.00808167
0.182476
0.00618476
0.193544
0.00436374
0.205935
0.00270038
0.219253
0.00131299
0.232568
0.000356925
0.244016
0.250433
0.0301279
0.11642
-0.0315821
0.0286466
0.119506
0.0271358
0.122731
0.0255921
0.126124
0.0240119
0.129714
0.0223925
0.133544
0.0207314
0.137669
0.0190268
0.142167
0.0172779
0.14714
0.0154848
0.152714
0.0136497
0.159047
0.0117779
0.166315
0.00987959
0.174705
0.00797393
0.184381
0.00609368
0.195424
0.00429226
0.207736
0.00265158
0.220894
0.00128828
0.233931
0.000351868
0.244953
0.250785
0.029819
0.117861
-0.0312594
0.0283515
0.120973
0.0268547
0.124228
0.0253251
0.127653
0.0237592
0.13128
0.0221542
0.135149
0.0205075
0.139316
0.0188174
0.143857
0.0170828
0.148874
0.015304
0.154493
0.0134832
0.160867
0.0116259
0.168172
0.00974285
0.176589
0.00785378
0.18627
0.00599222
0.197286
0.00421224
0.209516
0.00259578
0.22251
0.00125785
0.235269
0.000342957
0.245868
0.251128
0.0294746
0.119286
-0.0308998
0.0280225
0.122425
0.0265413
0.125709
0.0250274
0.129167
0.0234773
0.13283
0.0218883
0.136738
0.0202577
0.140946
0.0185837
0.145531
0.0168653
0.150593
0.0151027
0.156256
0.0132982
0.162672
0.0114575
0.170013
0.00959182
0.178454
0.00772147
0.188141
0.00588073
0.199126
0.00412429
0.211273
0.00253399
0.224101
0.00122307
0.23658
0.000331359
0.246759
0.25146
0.0290975
0.120695
-0.0305063
0.027662
0.123861
0.0261975
0.127174
0.0247005
0.130664
0.0231677
0.134363
0.021596
0.138309
0.019983
0.142559
0.0183267
0.147188
0.0166261
0.152293
0.0148815
0.158
0.0130951
0.164458
0.011273
0.171835
0.00942678
0.1803
0.0075773
0.18999
0.00575956
0.200944
0.00402878
0.213004
0.00246663
0.225663
0.0011845
0.237862
0.000317782
0.247626
0.251777
0.0286906
0.122086
-0.0300825
0.0272723
0.125279
0.0258254
0.128621
0.0243463
0.132143
0.0228316
0.135878
0.0212784
0.139863
0.0196842
0.144153
0.018047
0.148825
0.0163658
0.153974
0.0146408
0.159725
0.0128744
0.166225
0.0110728
0.173637
0.00924802
0.182125
0.00742153
0.191817
0.00562896
0.202737
0.003926
0.214706
0.00239406
0.227195
0.00114265
0.239114
0.000302829
0.248466
0.25208
0.0282568
0.123461
-0.0296317
0.026856
0.12668
0.025427
0.13005
0.0239662
0.133604
0.0224703
0.137373
0.0209365
0.141397
0.0193621
0.145728
0.0177453
0.150442
0.0160848
0.155635
0.014381
0.161429
0.0126363
0.167969
0.0108571
0.175416
0.00905579
0.183926
0.00725442
0.193618
0.0054892
0.204502
0.00381626
0.216379
0.00231666
0.228694
0.00109802
0.240332
0.000286914
0.249277
0.252367
0.0277989
0.12482
-0.0291575
0.026415
0.128064
0.0250037
0.131461
0.0235614
0.135046
0.0220848
0.13885
0.0205709
0.14291
0.0190173
0.147281
0.0174219
0.152037
0.0157835
0.157273
0.0141024
0.16311
0.012381
0.169691
0.0106261
0.177171
0.00885029
0.185702
0.00707617
0.195392
0.00534053
0.206238
0.00369984
0.21802
0.00223478
0.230159
0.00105095
0.241516
0.000270284
0.250058
0.252637
0.0273193
0.126164
-0.0286631
0.0259511
0.129432
0.0245569
0.132855
0.0231328
0.13647
0.0216755
0.140307
0.0201821
0.144404
0.01865
0.148813
0.017077
0.15361
0.015462
0.158888
0.013805
0.164767
0.0121088
0.171387
0.0103799
0.1789
0.00863168
0.187451
0.00688698
0.197137
0.00518318
0.207941
0.00357703
0.219626
0.00214871
0.231588
0.00100172
0.242663
0.000253099
0.250806
0.25289
0.0268195
0.127495
-0.0281511
0.0254652
0.130786
0.0240867
0.134234
0.0226802
0.137877
0.0212422
0.141745
0.0197697
0.145876
0.0182599
0.150323
0.0167105
0.155159
0.0151201
0.160479
0.0134889
0.166398
0.0118194
0.173056
0.0101187
0.1806
0.00840006
0.189169
0.006687
0.19885
0.00501734
0.209611
0.00344806