/*--------------------------------*- C++ -*----------------------------------*\
| =========                 |                                                 |
| \\      /  F ield         | OpenFOAM: The Open Source CFD Toolbox           |
|  \\    /   O peration     | Version:  v1912                                 |
|   \\  /    A nd           | Website:  www.openfoam.com                      |
|    \\/     M anipulation  |                                                 |
\*---------------------------------------------------------------------------*/
FoamFile
{
    version     2.0;
    format      ascii;
    class       volVectorField;
    location    "46.5";
    object      U;
}
// * * * * * * * * * * * * * * * * * * * * * * * * * * * * * * * * * * * * * //

dimensions      [0 1 -1 0 0 0 0];


internalField   nonuniform List<vector> 
9600
(
(0.456554 -9.36193 -1.54144e-19)
(0.159747 -8.63289 0)
(0.241952 -8.1601 -9.05147e-20)
(0.320707 -7.84094 0)
(0.388021 -7.60577 0)
(0.456421 -7.41105 -3.18475e-20)
(0.521928 -7.23274 -5.49914e-22)
(0.581405 -7.05862 2.66221e-20)
(0.634076 -6.88335 0)
(0.679974 -6.70548 -4.51397e-20)
(0.719489 -6.52564 0)
(0.753247 -6.34538 -1.83023e-21)
(0.781984 -6.16649 -2.60723e-21)
(0.806457 -5.99069 -3.15424e-20)
(0.82739 -5.81934 2.66021e-20)
(0.845437 -5.65344 -2.61357e-20)
(0.86115 -5.49344 2.32704e-20)
(0.875075 -5.33928 0)
(0.887992 -5.19018 -1.85108e-20)
(0.899631 -5.04463 2.02913e-20)
(0.824498 -9.35153 -3.08382e-19)
(0.502225 -8.66098 1.17582e-20)
(0.567633 -8.2044 1.86449e-19)
(0.634885 -7.89474 -1.5892e-19)
(0.693191 -7.66417 1.56726e-19)
(0.753552 -7.46994 0)
(0.811185 -7.28933 6.07444e-20)
(0.862615 -7.11121 -6.06051e-20)
(0.906995 -6.93105 -1.05122e-19)
(0.944412 -6.74798 1.32962e-19)
(0.975369 -6.56304 -8.63269e-20)
(1.00062 -6.37802 -3.52447e-20)
(1.021 -6.19488 7.11412e-20)
(1.03737 -6.01537 0)
(1.0505 -5.84092 0)
(1.0611 -5.67247 9.97228e-20)
(1.06973 -5.51049 -1.69076e-19)
(1.07693 -5.35482 0)
(1.08359 -5.20459 0)
(1.08915 -5.05817 -7.81529e-20)
(1.19278 -9.3276 6.37158e-19)
(0.846974 -8.6762 0)
(0.896868 -8.23602 -3.77265e-19)
(0.953357 -7.93597 -3.41952e-19)
(1.00296 -7.70997 0)
(1.05526 -7.5162 5.4648e-19)
(1.10479 -7.3333 -5.15924e-19)
(1.14782 -7.15128 1.01133e-19)
(1.1835 -6.96642 -2.25143e-19)
(1.21202 -6.77844 -3.74428e-19)
(1.23403 -6.58874 5.11136e-19)
(1.2504 -6.39936 -3.16031e-19)
(1.26212 -6.21237 -1.41637e-19)
(1.27012 -6.02959 0)
(1.27525 -5.85245 5.52726e-21)
(1.27824 -5.68189 1.05115e-19)
(1.27965 -5.51832 4.54399e-20)
(1.28005 -5.36154 0)
(1.28039 -5.21056 8.23727e-20)
(1.27978 -5.06368 8.44237e-20)
(1.56031 -9.28976 -8.61992e-19)
(1.1934 -8.67828 -4.03939e-19)
(1.2291 -8.25476 3.91798e-19)
(1.27556 -7.96431 6.7333e-19)
(1.31674 -7.74281 -3.26804e-19)
(1.36094 -7.54944 5.80124e-21)
(1.40211 -7.36428 2.53772e-19)
(1.4364 -7.17851 2.2986e-19)
(1.46298 -6.9892 4.2099e-19)
(1.4822 -6.79662 0)
(1.49488 -6.60255 1.62186e-19)
(1.50206 -6.40923 -1.72122e-19)
(1.50483 -6.21885 1.03516e-20)
(1.50423 -6.03326 2.71329e-19)
(1.50118 -5.85387 2.32614e-19)
(1.49641 -5.68162 -3.28372e-19)
(1.49051 -5.51687 1.08142e-19)
(1.48406 -5.35939 -1.7609e-19)
(1.47805 -5.20804 1.75258e-19)
(1.47121 -5.06114 -8.44675e-20)
(1.92676 -9.23796 4.34724e-19)
(1.54122 -8.66708 0)
(1.56393 -8.26034 3.84769e-19)
(1.60099 -7.97943 0)
(1.63398 -7.76233 0)
(1.66999 -7.56932 -3.00369e-19)
(1.70256 -7.38197 -5.37417e-19)
(1.72772 -7.19262 -4.55668e-19)
(1.74481 -6.99913 1.84493e-20)
(1.75435 -6.80232 -1.96909e-19)
(1.75735 -6.6043 0)
(1.75503 -6.4075 -1.62597e-19)
(1.7486 -6.2142 -2.92907e-19)
(1.7392 -6.02626 2.57587e-19)
(1.7278 -5.8451 -7.32049e-19)
(1.71517 -5.67159 1.1847e-19)
(1.70189 -5.50609 9.39031e-20)
(1.68856 -5.3483 -1.93632e-19)
(1.67623 -5.19699 -8.4606e-20)
(1.66311 -5.05049 2.52292e-19)
(2.29159 -9.17209 4.19491e-19)
(1.88993 -8.64234 4.16025e-19)
(1.90083 -8.25247 0)
(1.92907 -7.981 0)
(1.95407 -7.76819 -6.24422e-19)
(1.9818 -7.57552 3.41272e-19)
(2.00547 -7.38608 8.2131e-19)
(2.02116 -7.19335 0)
(2.02836 -6.99601 2.17046e-19)
(2.02785 -6.79537 1.96909e-19)
(2.02084 -6.59386 -3.47885e-19)
(2.00874 -6.39407 5.0449e-19)
(1.99289 -6.19835 1.48041e-19)
(1.97452 -6.00856 0)
(1.95465 -5.82608 1.23239e-19)
(1.93408 -5.65177 5.53215e-19)
(1.91337 -5.48594 -3.29645e-19)
(1.89316 -5.32825 3.70418e-19)
(1.87453 -5.17736 -7.04379e-19)
(1.85514 -5.03172 8.14292e-19)
(2.65429 -9.09215 4.26638e-19)
(2.23903 -8.60388 -2.25913e-18)
(2.23926 -8.23089 0)
(2.25924 -7.96872 0)
(2.2764 -7.76009 0)
(2.29571 -7.56775 -6.05738e-19)
(2.31019 -7.37634 0)
(2.31603 -7.1805 -9.70919e-19)
(2.31298 -6.97966 8.95583e-19)
(2.30207 -6.77564 -8.31791e-19)
(2.28475 -6.57113 0)
(2.26262 -6.36887 0)
(2.23716 -6.17125 0)
(2.20968 -5.98011 -2.81448e-19)
(2.18124 -5.7968 0)
(2.15266 -5.62214 0)
(2.1245 -5.45641 -4.13109e-19)
(2.09743 -5.29922 4.05893e-19)
(2.07256 -5.14914 0)
(2.04692 -5.00482 0)
(3.01429 -8.99812 -1.38795e-18)
(2.58796 -8.55152 8.99404e-19)
(2.57865 -8.19536 0)
(2.59088 -7.94232 0)
(2.6003 -7.73776 0)
(2.61105 -7.54577 5.76148e-19)
(2.61603 -7.35255 -5.77899e-19)
(2.61167 -7.15389 -8.89181e-21)
(2.59801 -6.94996 -8.96717e-19)
(2.57637 -6.74302 8.39615e-19)
(2.54847 -6.53603 -3.78782e-19)
(2.5161 -6.33185 6.58662e-19)
(2.48086 -6.13286 -4.64093e-20)
(2.44415 -5.94091 -5.95862e-19)
(2.40706 -5.75726 -5.02218e-19)
(2.37045 -5.5827 4.93414e-19)
(2.33484 -5.4175 0)
(2.30095 -5.26122 0)
(2.26991 -5.11234 3.57059e-19)
(2.23809 -4.9698 -3.92935e-19)
(3.37105 -8.89004 9.27662e-19)
(2.93615 -8.48514 8.83629e-19)
(2.91839 -8.14565 -1.67486e-18)
(2.92334 -7.90155 7.91155e-19)
(2.92511 -7.70096 0)
(2.92711 -7.50936 6.16512e-19)
(2.9223 -7.31453 -5.41232e-19)
(2.90739 -7.11338 1.52958e-18)
(2.88278 -6.90679 -2.3694e-20)
(2.85011 -6.69745 0)
(2.81139 -6.48854 7.64249e-19)
(2.76857 -6.28299 0)
(2.72343 -6.0832 0)
(2.6774 -5.89096 -2.72593e-19)
(2.63163 -5.70747 5.49787e-19)
(2.58695 -5.53348 0)
(2.54392 -5.36924 4.3125e-19)
(2.50327 -5.21426 1.79534e-19)
(2.46615 -5.06697 -3.89527e-19)
(2.42823 -4.92667 3.78237e-19)
(3.72401 -8.76798 -9.55476e-19)
(3.28303 -8.40461 8.98042e-19)
(3.25787 -8.08159 -2.55766e-18)
(3.25596 -7.84622 8.04279e-19)
(3.25013 -7.6495 0)
(3.24321 -7.45836 -1.24437e-18)
(3.22829 -7.26214 5.97786e-19)
(3.20249 -7.05887 0)
(3.1666 -6.8501 -4.74618e-19)
(3.12264 -6.63889 -8.23215e-19)
(3.07287 -6.42863 -7.17344e-19)
(3.01947 -6.2223 5.34485e-20)
(2.96431 -6.02228 6.70929e-19)
(2.9089 -5.83029 2.72368e-19)
(2.85441 -5.64747 -3.79441e-20)
(2.80169 -5.47451 -5.12903e-19)
(2.75126 -5.31165 -2.2941e-19)
(2.7039 -5.15837 -2.06827e-19)
(2.66082 -5.01306 5.51739e-19)
(2.61693 -4.87547 -8.22156e-19)
(4.0726 -8.632 9.55479e-19)
(3.62799 -8.30988 -4.66498e-20)
(3.59645 -8.00304 8.22169e-19)
(3.58807 -7.77616 0)
(3.57466 -7.5832 -6.80702e-19)
(3.5586 -7.39262 1.30798e-18)
(3.53328 -7.19529 -1.11808e-18)
(3.49627 -6.9903 1.10027e-18)
(3.44881 -6.77985 -4.45839e-19)
(3.3933 -6.56734 9.05047e-19)
(3.33231 -6.35632 3.91943e-19)
(3.26819 -6.14982 0)
(3.20293 -5.95014 0)
(3.13811 -5.75895 -2.82419e-19)
(3.07491 -5.57731 3.83621e-20)
(3.01415 -5.40584 1.01004e-18)
(2.95636 -5.24478 -2.49889e-19)
(2.90238 -5.09359 8.25355e-19)
(2.85344 -4.95065 1.44459e-19)
(2.80372 -4.81625 -8.39694e-19)
(4.41627 -8.48223 -2.94004e-18)
(3.97043 -8.2009 -9.8693e-19)
(3.93347 -7.90989 -2.63175e-18)
(3.91897 -7.69123 -1.60103e-18)
(3.89798 -7.50196 -7.59432e-19)
(3.87258 -7.31205 -7.42246e-19)
(3.83655 -7.11391 -2.42305e-18)
(3.78802 -6.90765 -4.90724e-20)
(3.72872 -6.69604 -1.94705e-18)
(3.66146 -6.48283 3.02259e-20)
(3.58909 -6.27166 -8.08411e-19)
(3.51415 -6.06558 -7.36663e-19)
(3.43875 -5.86684 6.72481e-19)
(3.3645 -5.677 -6.15003e-19)
(3.29259 -5.49704 -5.6345e-19)
(3.22382 -5.32753 -5.17124e-19)
(3.15872 -5.16869 -1.38853e-18)
(3.09818 -5.01998 4.93998e-19)
(3.0435 -4.87977 1.19887e-18)
(2.98813 -4.74902 -1.27596e-18)
(4.75448 -8.3188 3.95457e-18)
(4.30974 -8.07768 4.85828e-18)
(4.26829 -7.80206 8.3458e-19)
(4.24797 -7.59135 3.9988e-18)
(4.21936 -7.4057 -7.83762e-19)
(4.18439 -7.21661 3.91634e-18)
(4.13738 -7.01799 1.14565e-18)
(4.07704 -6.81092 3.21627e-18)
(4.00566 -6.59872 -9.83096e-19)
(3.92646 -6.3854 2.722e-18)
(3.84259 -6.17471 1.62834e-18)
(3.75678 -5.96967 1.48398e-18)
(3.67121 -5.77245 -2.00914e-18)
(3.58753 -5.58451 1.88211e-18)
(3.50693 -5.40674 1.13559e-18)
(3.4302 -5.23964 1.04245e-18)
(3.35783 -5.08344 9.58564e-19)
(3.2908 -4.93759 7.36454e-21)
(3.23049 -4.80047 8.13711e-19)
(3.16968 -4.67385 8.46831e-19)
(5.08669 -8.14187 -2.93669e-18)
(4.64535 -7.94023 1.08232e-18)
(4.60026 -7.67952 2.67755e-18)
(4.57437 -7.47645 -3.26213e-18)
(4.53808 -7.29437 7.53804e-19)
(4.49332 -7.10629 -2.62015e-18)
(4.43503 -6.90755 1.28418e-18)
(4.36263 -6.70017 -2.15202e-18)
(4.27896 -6.48796 4.9035e-20)
(4.18768 -6.27515 1.19473e-20)
(4.09222 -6.06556 -1.65083e-18)
(3.99549 -5.86215 -7.47317e-19)
(3.89974 -5.66704 1.37416e-18)
(3.80666 -5.48155 8.75914e-21)
(3.7174 -5.30647 -3.71891e-20)
(3.63273 -5.14225 -1.08802e-18)
(3.55313 -4.98909 -4.83166e-19)
(3.47967 -4.84646 -2.71448e-20)
(3.41383 -4.71281 -8.48056e-19)
(3.34779 -4.59084 -4.27663e-19)
(5.41241 -7.95163 0)
(4.97665 -7.78863 -1.99986e-18)
(4.9287 -7.54226 2.37413e-20)
(4.89745 -7.34654 3.25766e-18)
(4.85339 -7.16799 1.36354e-18)
(4.79862 -6.98112 -1.41932e-18)
(4.72881 -6.78265 -1.22273e-18)
(4.64411 -6.57548 0)
(4.54799 -6.36385 -9.7332e-19)
(4.44451 -6.15218 9.28917e-19)
(4.33741 -5.9443 -3.90701e-20)
(4.22974 -5.74315 0)
(4.12383 -5.5507 -6.91783e-19)
(4.02137 -5.36818 5.99226e-19)
(3.92348 -5.19627 5.00623e-19)
(3.83088 -5.03535 -6.04338e-19)
(3.74405 -4.88563 -5.24288e-19)
(3.66414 -4.74658 9.10459e-19)
(3.59278 -4.61678 -8.40247e-19)
(3.52164 -4.50007 4.42269e-19)
(5.73116 -7.74826 3.03412e-18)
(5.30308 -7.62294 -2.0597e-18)
(5.25295 -7.39031 -1.75787e-18)
(5.21651 -7.20162 8.18458e-19)
(5.16458 -7.0266 -1.58788e-18)
(5.09958 -6.84118 0)
(5.01801 -6.64342 0)
(4.92082 -6.437 0)
(4.81209 -6.22654 -4.44731e-20)
(4.69635 -6.01663 -1.86425e-18)
(4.57759 -5.81109 8.80463e-19)
(4.45901 -5.61276 7.44662e-19)
(4.34299 -5.42352 6.30165e-19)
(4.23119 -5.24448 -2.58591e-18)
(4.12469 -5.07619 1.22595e-18)
(4.02416 -4.91898 0)
(3.93005 -4.77304 -3.04274e-20)
(3.84359 -4.63789 -1.41212e-18)
(3.76653 -4.51229 -5.69637e-21)
(3.69026 -4.40119 -4.42758e-19)
(6.04259 -7.53202 -2.06377e-18)
(5.62408 -7.44329 -1.0859e-18)
(5.57235 -7.22373 8.18258e-19)
(5.53082 -7.04178 -1.43926e-19)
(5.47091 -6.87029 -4.62887e-18)
(5.39546 -6.68659 4.18926e-18)
(5.30191 -6.48998 -4.88092e-20)
(5.19207 -6.28487 1.14744e-18)
(5.07066 -6.07621 1.02952e-18)
(4.94263 -5.86867 9.45339e-19)
(4.81223 -5.66606 8.60269e-19)
(4.6828 -5.47112 1.53745e-18)
(4.55674 -5.28561 -7.39997e-19)
(4.43567 -5.11051 1.9182e-18)
(4.32064 -4.94629 -1.24008e-18)
(4.21221 -4.79319 -5.13008e-19)
(4.1108 -4.65142 2.06054e-18)
(4.01768 -4.52051 1.37667e-18)
(3.9348 -4.39925 -2.79584e-20)
(3.85359 -4.29351 0)
(6.34667 -7.30342 -1.04934e-18)
(5.93925 -7.24987 2.07522e-18)
(5.88621 -7.04259 1.81687e-18)
(5.83965 -6.86705 -1.45903e-19)
(5.77162 -6.69916 -1.57052e-18)
(5.68553 -6.5175 7.06745e-20)
(5.57983 -6.32252 1.31729e-20)
(5.45723 -6.1193 1.1737e-20)
(5.32309 -5.91305 0)
(5.1828 -5.7085 9.24613e-19)
(5.04083 -5.50939 -1.75986e-18)
(4.90063 -5.31836 -7.53111e-19)
(4.7646 -5.13704 7.47643e-19)
(4.63433 -4.9663 -6.56022e-19)
(4.51077 -4.80654 6.07587e-19)
(4.39443 -4.65799 -5.53125e-19)
(4.28573 -4.52084 4.89886e-21)
(4.18602 -4.39446 -4.69917e-19)
(4.09758 -4.27758 -4.34098e-19)
(4.01222 -4.17788 -4.34394e-19)
(6.64375 -7.06292 0)
(6.24835 -7.0426 -1.01182e-18)
(6.1939 -6.84679 1.00021e-18)
(6.14223 -6.67753 1.7451e-18)
(6.06598 -6.51338 -1.5792e-18)
(5.96907 -6.33414 1.36426e-18)
(5.85109 -6.14132 -2.62317e-18)
(5.71568 -5.94059 -2.32949e-18)
(5.56884 -5.73738 -1.01626e-18)
(5.41637 -5.5364 4.44207e-20)
(5.26298 -5.34131 -8.41552e-19)
(5.11214 -5.15463 3.49219e-20)
(4.96624 -4.97785 0)
(4.82676 -4.81176 -1.28685e-18)
(4.69452 -4.65668 6.56714e-19)
(4.56992 -4.51288 0)
(4.45342 -4.38047 -5.14325e-19)
(4.34659 -4.25858 -9.24711e-19)
(4.25168 -4.14685 9.08622e-19)
(4.16113 -4.0579 4.4853e-19)
(6.93342 -6.80974 0)
(6.55074 -6.82077 0)
(6.49469 -6.63629 -1.85544e-18)
(6.43782 -6.47348 -1.5954e-18)
(6.35328 -6.31334 3.23807e-18)
(6.24546 -6.13694 0)
(6.11513 -5.94683 0)
(5.96691 -5.74919 1.17031e-18)
(5.80747 -5.54961 0)
(5.64301 -5.35277 0)
(5.4784 -5.1622 0)
(5.31719 -4.98025 0)
(5.16166 -4.80826 0)
(5.01314 -4.64688 0)
(4.8722 -4.49637 0)
(4.73894 -4.3569 0)
(4.61362 -4.22832 0)
(4.49734 -4.10998 0)
(4.39021 -4.00494 0)
(4.28608 -3.9305 0)
(10.0433 0.0877387 1.47318e-19)
(10.0228 -0.307641 2.86631e-19)
(9.98696 -0.700343 -2.94388e-19)
(9.93643 -1.09023 5.86951e-19)
(9.87092 -1.47695 -5.8695e-19)
(9.79028 -1.86001 -5.54654e-19)
(9.69462 -2.23887 -5.53106e-19)
(9.58415 -2.61298 1.74193e-18)
(9.4591 -2.98178 -1.16056e-18)
(9.31974 -3.34474 1.15084e-18)
(9.16634 -3.7013 -1.15084e-18)
(8.99922 -4.05092 1.14233e-18)
(8.8187 -4.39309 -2.26535e-18)
(8.62513 -4.72731 3.33603e-18)
(8.41889 -5.05309 0)
(8.20035 -5.36999 -3.27754e-18)
(7.96992 -5.67757 1.6342e-20)
(7.72812 -5.97548 3.30301e-18)
(7.47505 -6.26356 0)
(7.21239 -6.54114 0)
(10.1199 -0.210723 0)
(10.0787 -0.606814 -1.50416e-20)
(10.0206 -0.999106 0)
(9.94649 -1.38726 5.61667e-19)
(9.85647 -1.77085 5.8491e-19)
(9.75079 -2.14927 -1.69291e-18)
(9.62973 -2.52188 2.94731e-18)
(9.49366 -2.88807 -1.16347e-18)
(9.34293 -3.24724 -1.10906e-18)
(9.17795 -3.5988 -1.10453e-18)
(8.99913 -3.94218 4.45718e-20)
(8.80691 -4.27684 1.13168e-18)
(8.60175 -4.60224 -5.62592e-18)
(8.38414 -4.91791 -1.1798e-18)
(8.15456 -5.22336 2.24802e-18)
(7.91353 -5.51818 2.24502e-18)
(7.66153 -5.80197 1.14061e-18)
(7.39912 -6.07439 -2.19942e-18)
(7.12641 -6.3352 1.04155e-18)
(6.84435 -6.58405 0)
(10.0715 -0.149233 1.32656e-19)
(10.0337 -0.540883 -2.71659e-19)
(9.9785 -0.929357 7.84489e-19)
(9.90632 -1.31396 -5.55773e-19)
(9.81754 -1.69405 -5.29912e-19)
(9.71252 -2.06889 5.5326e-19)
(9.59162 -2.43778 0)
(9.45526 -2.80002 0)
(9.30384 -3.15493 2.10074e-18)
(9.13783 -3.50189 3.13393e-18)
(8.95769 -3.84026 -9.91193e-19)
(8.76392 -4.16945 3.09895e-18)
(8.55704 -4.48892 -9.87022e-19)
(8.33759 -4.7981 -3.01842e-18)
(8.10611 -5.09652 1.36156e-20)
(7.86319 -5.3837 1.9375e-18)
(7.60934 -5.6592 -8.74532e-19)
(7.34517 -5.92262 -1.90614e-18)
(7.07101 -6.17357 -1.0296e-18)
(6.7876 -6.41157 1.87334e-18)
(9.90527 -0.112522 0)
(9.87426 -0.494936 2.29029e-19)
(9.82597 -0.875004 2.28087e-19)
(9.7606 -1.25183 -9.37066e-19)
(9.67846 -1.62461 0)
(9.5799 -1.99256 0)
(9.46528 -2.35493 0)
(9.33497 -2.71097 0)
(9.18939 -3.05996 -9.91612e-19)
(9.029 -3.40121 -9.87847e-19)
(8.85425 -3.73405 0)
(8.66566 -4.05785 1.86769e-18)
(8.46376 -4.37199 -4.61771e-18)
(8.24909 -4.6759 3.71306e-18)
(8.02224 -4.96902 -3.59892e-18)
(7.78378 -5.25084 -8.7328e-19)
(7.53429 -5.52086 1.5646e-19)
(7.2744 -5.77861 1.54864e-19)
(7.0046 -6.02363 -1.77856e-18)
(6.72564 -6.25544 -7.08879e-20)
(9.65216 -0.0990424 0)
(9.62856 -0.469225 -2.25873e-19)
(9.58812 -0.837719 0)
(9.53091 -1.20362 4.51871e-19)
(9.45715 -1.56609 4.30751e-19)
(9.36715 -1.92433 3.93805e-19)
(9.26121 -2.27757 0)
(9.13966 -2.62505 0)
(9.00289 -2.96601 0)
(8.85131 -3.29974 0)
(8.68536 -3.62556 8.13492e-19)
(8.50552 -3.94278 8.76436e-19)
(8.31231 -4.25077 8.71439e-19)
(8.10626 -4.5489 -8.84764e-19)
(7.88792 -4.8366 -1.52268e-18)
(7.65789 -5.11329 1.72847e-18)
(7.41674 -5.37844 3.35117e-18)
(7.16511 -5.63152 1.63e-18)
(6.90357 -5.87205 0)
(6.63282 -6.09951 -1.53623e-18)
(9.34512 -0.0902401 4.64249e-20)
(9.32849 -0.446248 0)
(9.29564 -0.801137 -7.60787e-19)
(9.24658 -1.15405 1.82917e-23)
(9.18147 -1.50417 1.61739e-20)
(9.10054 -1.85071 -6.85339e-20)
(9.00404 -2.19288 0)
(8.89228 -2.52994 3.09333e-20)
(8.76557 -2.86114 -7.72331e-19)
(8.62428 -3.18575 1.50476e-18)
(8.46881 -3.50308 -1.56909e-18)
(8.29962 -3.81245 8.57217e-19)
(8.11716 -4.11319 -4.49332e-18)
(7.92195 -4.40467 2.96362e-18)
(7.71451 -4.68629 1.57098e-18)
(7.4954 -4.95745 0)
(7.2652 -5.21757 -2.89974e-18)
(7.02451 -5.46611 -6.15319e-20)
(6.77391 -5.70254 -2.85566e-18)
(6.51406 -5.92633 2.96809e-18)
(9.01276 -0.0854269 4.17508e-20)
(9.00177 -0.426436 -8.74628e-20)
(8.9753 -0.766795 7.17115e-19)
(8.93331 -1.1057 -1.4074e-20)
(8.87592 -1.44237 7.16967e-19)
(8.8033 -1.77604 -1.08291e-18)
(8.71567 -2.10594 0)
(8.61327 -2.43135 7.30022e-19)
(8.49639 -2.75154 6.68419e-19)
(8.36534 -3.06581 -7.25934e-19)
(8.22048 -3.37346 1.32817e-18)
(8.06221 -3.67382 2.81576e-18)
(7.89097 -3.96624 -1.3095e-18)
(7.70721 -4.25008 -1.41941e-18)
(7.51143 -4.52472 1.3612e-18)
(7.30416 -4.78956 0)
(7.08594 -5.04402 6.49432e-20)
(6.85735 -5.28752 9.80957e-21)
(6.61895 -5.51953 2.70557e-18)
(6.37137 -5.73947 1.25784e-18)
(8.67632 -0.0842424 0)
(8.66939 -0.410299 6.25799e-21)
(8.64775 -0.73605 -1.45923e-19)
(8.61135 -1.06075 -6.48052e-19)
(8.56026 -1.38365 6.09158e-19)
(8.49462 -1.70401 0)
(8.41462 -2.02113 1.23985e-18)
(8.32045 -2.3343 -1.36243e-21)
(8.21235 -2.64283 -1.89362e-18)
(8.09062 -2.94603 0)
(7.95556 -3.24324 -1.30703e-18)
(7.80754 -3.5338 4.6009e-20)
(7.64695 -3.81709 -3.67407e-18)
(7.47421 -4.09247 6.47437e-21)
(7.28979 -4.35935 1.23142e-18)
(7.09417 -4.61711 0)
(6.88788 -4.86519 -1.20865e-18)
(6.67145 -5.10299 8.70091e-21)
(6.44545 -5.32997 1.19996e-18)
(6.21042 -5.54554 -1.23781e-18)
(8.34967 -0.0853197 0)
(8.34536 -0.397004 1.49613e-19)
(8.32709 -0.708616 3.10415e-19)
(8.29482 -1.01946 -5.74575e-19)
(8.24858 -1.32882 -2.47288e-20)
(8.18851 -1.63602 -2.87155e-19)
(8.11473 -1.94039 -1.14951e-18)
(8.02743 -2.24124 5.71493e-19)
(7.92682 -2.53794 2.38194e-20)
(7.81315 -2.82982 5.68074e-19)
(7.6867 -3.11626 5.22955e-19)
(7.54781 -3.39664 2.26476e-18)
(7.39682 -3.67035 1.13283e-18)
(7.23414 -3.93678 2.23749e-18)
(7.06019 -4.19536 -1.11582e-18)
(6.87544 -4.4455 3.86744e-20)
(6.68038 -4.68663 -1.10264e-18)
(6.47553 -4.91817 0)
(6.26142 -5.13956 1.04228e-18)
(6.03855 -5.35021 0)
(8.04072 -0.0875336 6.5139e-20)
(8.03787 -0.385718 -1.90773e-19)
(8.02178 -0.68397 5.23256e-19)
(7.99239 -0.981636 -2.61042e-19)
(7.94974 -1.27806 1.89875e-20)
(7.89393 -1.57259 -2.60888e-19)
(7.82508 -1.86459 5.42373e-19)
(7.74335 -2.15344 -5.19078e-19)
(7.64892 -2.43851 5.19075e-19)
(7.54202 -2.7192 9.95555e-19)
(7.42292 -2.99491 -1.07277e-18)
(7.2919 -3.26506 -4.51116e-20)
(7.14931 -3.52906 -3.10521e-18)
(6.99551 -3.78636 5.37814e-21)
(6.83091 -4.0364 4.02857e-20)
(6.65596 -4.27862 2.01304e-18)
(6.47112 -4.51247 -9.94375e-19)
(6.2769 -4.73738 -9.47156e-19)
(6.07382 -4.95279 -3.74566e-20)
(5.86234 -5.15809 0)
(7.75308 -0.0901391 0)
(7.75084 -0.375815 2.42332e-19)
(7.73602 -0.661633 -8.33229e-19)
(7.70855 -0.946978 -2.21061e-19)
(7.66847 -1.23123 4.94389e-19)
(7.61587 -1.51379 0)
(7.55084 -1.79405 0)
(7.47355 -2.07142 4.7256e-19)
(7.38415 -2.34532 -4.72557e-19)
(7.28285 -2.61519 3.98082e-19)
(7.1699 -2.88046 -4.69512e-19)
(7.04558 -3.14058 9.3108e-19)
(6.91019 -3.39502 -1.85755e-18)
(6.76409 -3.64325 1.84795e-18)
(6.60767 -3.88475 3.46727e-20)
(6.44136 -4.119 -9.5043e-19)
(6.26563 -4.34546 -9.04412e-19)
(6.08097 -4.56359 1.84233e-18)
(5.8879 -4.77282 8.62459e-19)
(5.68687 -4.97255 0)
(7.48754 -0.0926624 1.87813e-21)
(7.48534 -0.366829 1.59108e-19)
(7.47115 -0.641165 3.34052e-19)
(7.4449 -0.915092 2.3382e-19)
(7.40663 -1.18803 2.169e-19)
(7.35641 -1.4594 2.01767e-19)
(7.29435 -1.72864 0)
(7.22058 -1.99519 -8.3381e-19)
(7.13526 -2.25852 -4.2983e-19)
(7.03858 -2.51809 3.66693e-19)
(6.93078 -2.77336 0)
(6.8121 -3.02385 8.4896e-19)
(6.68285 -3.26903 -2.51084e-18)
(6.54336 -3.50845 8.44614e-19)
(6.39403 -3.74159 0)
(6.23526 -3.968 -8.03066e-19)
(6.06754 -4.18716 -1.62198e-18)
(5.89135 -4.39856 7.98127e-19)
(5.70725 -4.60162 -2.92109e-20)
(5.51569 -4.79573 0)
(7.24321 -0.0948048 3.4652e-21)
(7.2407 -0.358415 -1.02971e-19)
(7.22671 -0.622187 1.98713e-19)
(7.2012 -0.885576 -1.31244e-20)
(7.1642 -1.14803 3.97075e-19)
(7.11578 -1.40902 -6.09834e-19)
(7.05604 -1.66799 0)
(6.9851 -1.92444 5.60417e-20)
(6.90312 -2.17784 0)
(6.81027 -2.4277 -8.14051e-19)
(6.70677 -2.67352 0)
(6.59288 -2.91485 -7.51269e-19)
(6.46886 -3.15121 2.32196e-18)
(6.33505 -3.38216 -1.53864e-18)
(6.19183 -3.60727 7.67108e-19)
(6.03961 -3.8261 -6.78723e-19)
(5.87889 -4.03819 7.83966e-19)
(5.71016 -4.24308 -7.78605e-19)
(5.53407 -4.44015 0)
(5.35104 -4.62879 0)
(7.01831 -0.096445 4.71179e-20)
(7.0153 -0.350348 0)
(7.00127 -0.604393 0)
(6.97619 -0.858064 -3.77517e-19)
(6.9401 -1.11084 -3.52341e-19)
(6.89306 -1.3622 0)
(6.83517 -1.61164 0)
(6.76656 -1.85867 4.98631e-20)
(6.68735 -2.10281 6.97747e-19)
(6.59773 -2.34357 -3.36495e-19)
(6.4979 -2.58052 -3.58508e-19)
(6.3881 -2.8132 1.44822e-18)
(6.26858 -3.04121 -2.15049e-18)
(6.13968 -3.26414 1.38675e-18)
(6.00175 -3.48159 0)
(5.85521 -3.69321 2.786e-18)
(5.7006 -3.89856 -2.02277e-18)
(5.53842 -4.09728 6.88143e-19)
(5.36944 -4.28868 1.31606e-18)
(5.19408 -4.47219 0)
(6.81074 -0.0975182 -4.05095e-20)
(6.80712 -0.342466 0)
(6.7929 -0.587536 -5.22302e-21)
(6.76806 -0.832227 -3.24188e-19)
(6.73265 -1.07604 1.00455e-18)
(6.68672 -1.31849 -1.67105e-19)
(6.63038 -1.55908 0)
(6.56372 -1.79736 1.33116e-18)
(6.48689 -2.03286 -6.85528e-19)
(6.40006 -2.26514 4.44944e-20)
(6.30341 -2.49377 6.35323e-19)
(6.19717 -2.71835 6.51211e-19)
(6.08158 -2.93849 -1.29862e-18)
(5.95696 -3.15385 -1.2702e-18)
(5.82366 -3.36406 -1.24069e-18)
(5.68208 -3.56889 -1.32025e-18)
(5.53279 -3.76787 1.31125e-18)
(5.37631 -3.96087 -6.25974e-19)
(5.21367 -4.14702 -6.67035e-19)
(5.04517 -4.32599 0)
(6.61826 -0.0980039 3.97995e-20)
(6.61399 -0.334665 -1.49438e-19)
(6.59953 -0.571417 -1.547e-19)
(6.57485 -0.807781 4.63217e-19)
(6.53999 -1.04328 -1.64502e-19)
(6.49501 -1.27745 -1.53766e-19)
(6.44 -1.50982 0)
(6.37507 -1.73995 -6.32039e-19)
(6.30035 -1.96741 0)
(6.21599 -2.19177 6.27152e-19)
(6.12218 -2.41263 -1.20853e-18)
(6.01912 -2.62963 5.98247e-19)
(5.90704 -2.84239 -1.19282e-18)
(5.78623 -3.05064 1.23091e-18)
(5.65702 -3.25405 6.69965e-19)
(5.5198 -3.45249 0)
(5.37518 -3.64551 -5.7829e-19)
(5.22364 -3.83332 5.7829e-19)
(5.06664 -4.01471 0)
(4.90414 -4.19004 0)
(6.43874 -0.09799 0)
(6.43387 -0.326921 1.46821e-19)
(6.41916 -0.555913 4.72388e-21)
(6.39461 -0.784505 -1.51388e-19)
(6.36024 -1.01224 -1.33497e-19)
(6.31614 -1.23867 -1.41728e-19)
(6.26237 -1.46337 5.47785e-19)
(6.19904 -1.68589 0)
(6.12628 -1.90583 0)
(6.04422 -2.12278 2.78387e-19)
(5.95305 -2.33638 2.95727e-19)
(5.85293 -2.54627 1.07032e-18)
(5.7441 -2.75212 -5.46882e-19)
(5.62679 -2.9537 5.4688e-19)
(5.50132 -3.15071 5.80555e-19)
(5.36801 -3.34317 3.39483e-20)
(5.22754 -3.53062 -1.06626e-18)
(5.08026 -3.71382 3.77901e-21)
(4.92832 -3.89088 5.27358e-19)
(4.77088 -4.06379 0)
(6.27028 -0.0974794 -3.28163e-20)
(6.26486 -0.319205 3.28159e-20)
(6.24996 -0.540963 0)
(6.22557 -0.762307 1.23604e-19)
(6.19172 -0.982801 4.01504e-19)
(6.14848 -1.20202 -5.07456e-19)
(6.09593 -1.41953 -5.38217e-19)
(6.03417 -1.63495 0)
(5.96331 -1.84786 0)
(5.8835 -2.0579 0)
(5.79489 -2.2647 -9.93592e-19)
(5.69763 -2.46795 -6.4138e-20)
(5.59194 -2.66733 -5.0379e-19)
(5.47799 -2.86264 3.01916e-20)
(5.35608 -3.05364 -9.96301e-19)
(5.22642 -3.24049 1.51837e-18)
(5.08974 -3.42273 -1.4387e-18)
(4.94607 -3.60196 4.88381e-19)
(4.7987 -3.77519 9.36264e-19)
(4.64493 -3.94732 0)
(6.11116 -0.0961219 2.94822e-20)
(6.10531 -0.311314 0)
(6.0903 -0.526527 -1.21379e-19)
(6.06613 -0.741324 -2.50109e-19)
(6.03283 -0.955287 1.21227e-19)
(5.99047 -1.16801 9.68047e-19)
(5.93913 -1.37908 0)
(5.87891 -1.58813 -4.66234e-19)
(5.8099 -1.79476 -2.38464e-19)
(5.73224 -1.99864 -4.47986e-19)
(5.64606 -2.19941 -1.79246e-19)
(5.55151 -2.39677 -1.41435e-18)
(5.44876 -2.59044 -9.33559e-19)
(5.33794 -2.78023 9.60332e-19)
(5.2193 -2.96594 9.1923e-19)
(5.09284 -3.14781 -3.88351e-21)
(4.95939 -3.32549 2.99425e-20)
(4.81818 -3.50157 4.50001e-19)
(4.67433 -3.67224 -9.19973e-19)
(4.52109 -3.84739 0)
(5.95979 -0.0944499 -6.1653e-20)
(5.95364 -0.303386 3.03507e-20)
(5.93867 -0.512409 -1.21256e-19)
(5.91487 -0.72113 1.212e-19)
(5.88226 -0.929155 -3.48588e-19)
(5.8409 -1.13609 -1.08546e-18)
(5.79084 -1.34156 0)
(5.73216 -1.5452 4.93313e-19)
(5.66494 -1.74663 -4.61263e-19)
(5.5893 -1.94553 9.76751e-19)
(5.50534 -2.14157 9.7095e-19)
(5.41317 -2.33444 1.43051e-18)
(5.31292 -2.52388 -9.28239e-19)
(5.20463 -2.70969 4.6236e-19)
(5.08855 -2.89168 -4.54705e-19)
(4.9643 -3.07008 4.54728e-19)
(4.83299 -3.2446 0)
(4.69192 -3.41847 4.11701e-19)
(4.55013 -3.58752 -4.02886e-19)
(4.39246 -3.77393 0)
(7.13991 7.2619 0)
(7.41988 6.9721 0)
(7.68694 6.67272 1.08724e-18)
(7.94181 6.36426 2.02517e-20)
(8.1839 6.04644 -1.15028e-18)
(8.41257 5.71933 0)
(8.6274 5.38331 1.18703e-18)
(8.82805 5.03894 -2.23957e-18)
(9.01421 4.68677 -1.13182e-18)
(9.1856 4.32743 -1.1424e-18)
(9.34194 3.96155 1.14239e-18)
(9.483 3.58977 -1.15449e-18)
(9.60861 3.21279 5.75883e-19)
(9.71855 2.83131 5.49655e-19)
(9.81268 2.44599 5.51803e-19)
(9.89093 2.0575 -5.85609e-19)
(9.95328 1.6665 5.85609e-19)
(9.9998 1.27369 -2.93983e-19)
(10.0305 0.879482 -1.39644e-19)
(10.0457 0.485213 7.35521e-20)
(7.41653 7.06989 0)
(7.69669 6.78049 -9.96283e-19)
(7.96307 6.47951 -2.12999e-18)
(8.21595 6.16765 3.14984e-18)
(8.45509 5.84521 -2.1843e-18)
(8.67997 5.51267 2.19506e-18)
(8.89013 5.17061 1.19337e-18)
(9.08515 4.8197 -3.3864e-18)
(9.26463 4.46063 1.10783e-18)
(9.42823 4.09413 2.2023e-18)
(9.57562 3.7209 1.08504e-18)
(9.70656 3.34172 1.09191e-18)
(9.82089 2.95738 -1.15224e-18)
(9.91838 2.5686 1.69669e-18)
(9.99876 2.17618 -2.35398e-18)
(10.062 1.78099 5.81039e-19)
(10.1079 1.38382 -5.58338e-19)
(10.1368 0.985502 0)
(10.1485 0.586567 1.51553e-20)
(10.1433 0.187992 0)
(7.27344 6.94504 -1.75429e-18)
(7.55642 6.67304 9.84885e-19)
(7.82685 6.38817 1.80159e-18)
(8.0843 6.09112 8.15598e-19)
(8.32832 5.78244 2.04262e-18)
(8.5584 5.46276 2.00312e-20)
(8.77401 5.13275 -1.02383e-18)
(8.97466 4.7931 -3.05124e-18)
(9.1599 4.44452 3.0124e-18)
(9.3293 4.08775 -3.09227e-18)
(9.48245 3.72352 -1.03021e-18)
(9.61907 3.35259 -2.06115e-18)
(9.73883 2.9758 0)
(9.84153 2.5939 0)
(9.92702 2.2078 0)
(9.99514 1.81841 -5.25382e-19)
(10.0457 1.42655 5.50247e-19)
(10.0788 1.0331 5.27077e-19)
(10.0941 0.63876 6.26954e-21)
(10.0918 0.244502 1.32379e-19)
(7.04613 6.69297 1.82196e-18)
(7.32584 6.43962 -1.65456e-18)
(7.59421 6.17316 -1.69602e-19)
(7.8505 5.89411 -1.70562e-19)
(8.09417 5.60306 4.30135e-18)
(8.32465 5.30059 -7.12553e-20)
(8.5414 4.98736 3.77194e-21)
(8.74388 4.66401 -2.72009e-18)
(8.9316 4.33122 1.7947e-18)
(9.10409 3.98969 0)
(9.26084 3.64018 9.62591e-19)
(9.40152 3.28354 9.69252e-19)
(9.52585 2.92055 0)
(9.63351 2.55203 0)
(9.72429 2.17881 0)
(9.79799 1.80171 0)
(9.85441 1.42154 -2.17101e-20)
(9.89344 1.03917 4.74589e-19)
(9.91495 0.655424 -2.27902e-19)
(9.91896 0.271238 0)
(6.78345 6.37823 1.54311e-18)
(7.0553 6.14274 0)
(7.31692 5.89432 -4.54343e-18)
(7.56751 5.63338 -1.54864e-18)
(7.80643 5.36044 -1.6274e-18)
(8.0331 5.07606 -1.72513e-18)
(8.24695 4.78083 8.15065e-19)
(8.44743 4.47533 -8.56587e-19)
(8.634 4.16021 2.37851e-18)
(8.80623 3.83615 -7.78671e-19)
(8.96367 3.50391 0)
(9.10585 3.16424 0)
(9.23236 2.81783 0)
(9.34294 2.46548 0)
(9.43733 2.10797 -1.22967e-18)
(9.51526 1.74614 4.22825e-19)
(9.57652 1.38077 -4.46644e-19)
(9.62096 1.01271 0)
(9.64843 0.642794 2.24764e-19)
(9.65887 0.271919 0)
(6.5085 6.05102 1.32012e-18)
(6.77012 5.83168 -4.79913e-20)
(7.02245 5.59981 2.77681e-18)
(7.26469 5.35576 1.38729e-18)
(7.49619 5.09997 0)
(7.71635 4.83297 -1.47317e-18)
(7.92462 4.55528 6.85105e-20)
(8.12045 4.26746 -1.49555e-18)
(8.30332 3.9701 2.06901e-18)
(8.47274 3.66385 3.27393e-20)
(8.62829 3.34933 2.81161e-20)
(8.76951 3.0272 -7.46298e-19)
(8.896 2.69816 1.46365e-18)
(9.00743 2.36299 0)
(9.10355 2.02239 6.85695e-20)
(9.18404 1.67719 7.47263e-19)
(9.24865 1.32817 1.63824e-21)
(9.29718 0.976093 -1.53462e-20)
(9.32952 0.621776 0)
(9.34552 0.266048 -4.63283e-20)
(6.24263 5.734 0)
(6.49292 5.52864 -4.89172e-20)
(6.73466 5.31128 1.75724e-20)
(6.96711 5.08221 -2.51016e-18)
(7.18961 4.84183 0)
(7.40161 4.59059 1.26955e-18)
(7.60254 4.32899 1.35226e-18)
(7.7919 4.05754 -3.93429e-18)
(7.96916 3.77676 -6.82819e-20)
(8.13386 3.48725 -1.26332e-18)
(8.28557 3.18958 6.95592e-19)
(8.42386 2.88438 -6.4255e-19)
(8.54832 2.57233 -7.06361e-19)
(8.6586 2.2541 0)
(8.75444 1.93043 3.72659e-19)
(8.83563 1.60191 -1.6909e-20)
(8.90179 1.26942 -3.45951e-19)
(8.95271 0.93367 -1.6771e-20)
(8.98826 0.595427 -8.70854e-20)
(9.00829 0.255457 1.74544e-19)
(5.99706 5.43878 0)
(6.23576 5.24526 1.08543e-18)
(6.46651 5.04032 1.6181e-20)
(6.6886 4.8242 -1.10158e-18)
(6.9014 4.59726 0)
(7.10439 4.35991 1.14603e-18)
(7.29703 4.11259 -1.09419e-18)
(7.47884 3.85577 -1.21129e-18)
(7.64932 3.58994 2.30404e-18)
(7.80804 3.31564 1.24323e-18)
(7.95456 3.03342 0)
(8.08849 2.74388 6.06391e-19)
(8.20945 2.44762 -4.38987e-21)
(8.31712 2.1453 2.18671e-20)
(8.41107 1.83758 0)
(8.49119 1.5251 -5.96886e-19)
(8.5573 1.20846 -3.12709e-19)
(8.60899 0.888483 4.56887e-19)
(8.64614 0.565893 3.08049e-19)
(8.66859 0.241399 -4.11755e-20)
(5.77545 5.17028 0)
(6.00289 4.98675 -9.37481e-19)
(6.22283 4.79236 0)
(6.43461 4.58734 -1.01145e-18)
(6.63765 4.37201 1.99133e-18)
(6.83142 4.14673 -2.03083e-18)
(7.01545 3.9119 3.17783e-18)
(7.18927 3.66797 -3.16869e-18)
(7.35242 3.41539 -2.14087e-18)
(7.50449 3.15466 -1.57902e-18)
(7.64508 2.88631 5.41474e-19)
(7.7738 2.61089 -1.12258e-18)
(7.89031 2.32898 1.86493e-20)
(7.99428 2.04117 1.11591e-18)
(8.08542 1.74805 -2.80736e-19)
(8.16335 1.45036 1.15004e-18)
(8.22798 1.14857 -5.65631e-19)
(8.27915 0.843398 2.60607e-19)
(8.31659 0.535574 -1.48623e-19)
(8.3401 0.225766 0)
(5.57754 4.92891 0)
(5.79436 4.75383 1.81364e-18)
(6.00404 4.56845 8.79748e-19)
(6.20594 4.37298 -9.05572e-19)
(6.39951 4.16767 -1.85506e-18)
(6.58428 3.95288 2.82283e-18)
(6.7598 3.72896 1.12903e-20)
(6.92562 3.49633 -9.20107e-19)
(7.08135 3.25542 1.97533e-18)
(7.22658 3.00671 1.02019e-18)
(7.36094 2.7507 -9.53131e-19)
(7.48407 2.4879 5.00482e-19)
(7.59564 2.21885 2.25385e-20)
(7.69534 1.94413 -5.26629e-19)
(7.7829 1.6643 -2.55195e-19)
(7.85802 1.37995 5.11699e-19)
(7.92047 1.09177 -2.56505e-19)
(7.97014 0.800263 -5.17619e-19)
(8.00687 0.506107 5.99807e-20)
(8.0304 0.209952 6.48592e-20)