/*--------------------------------*- C++ -*----------------------------------*\
| =========                 |                                                 |
| \\      /  F ield         | OpenFOAM: The Open Source CFD Toolbox           |
|  \\    /   O peration     | Version:  v1912                                 |
|   \\  /    A nd           | Website:  www.openfoam.com                      |
|    \\/     M anipulation  |                                                 |
\*---------------------------------------------------------------------------*/
FoamFile
{
    version     2.0;
    format      ascii;
    class       surfaceScalarField;
    location    "49.5";
    object      phi;
}
// * * * * * * * * * * * * * * * * * * * * * * * * * * * * * * * * * * * * * //

dimensions      [0 3 -1 0 0 0 0];
oriented        oriented;


internalField   nonuniform List<scalar> 
18940
(
0.00035822
-0.234363
0.234005
0.00137885
-0.216324
0.215303
0.00288253
-0.204789
0.203285
0.00469882
-0.197007
0.19519
0.00669689
-0.191253
0.189255
0.00877504
-0.18646
0.184382
0.0108595
-0.182039
0.179955
0.0129008
-0.177696
0.175655
0.0148688
-0.173306
0.171338
0.0167482
-0.16884
0.166961
0.0185341
-0.16432
0.162534
0.020229
-0.159787
0.158093
0.02184
-0.155291
0.15368
0.0233769
-0.150874
0.149337
0.024851
-0.146572
0.145098
0.0262738
-0.142411
0.140988
0.0276568
-0.138402
0.137019
0.0290107
-0.134543
0.13319
0.0303438
-0.130815
0.129482
-0.127177
0.125859
0.0316615
0.000381645
-0.234745
0.00142216
-0.217364
0.00293657
-0.206303
0.00475717
-0.198827
0.00674972
-0.193245
0.00881256
-0.188523
0.0108732
-0.1841
0.0128837
-0.179706
0.0148159
-0.175238
0.0166561
-0.17068
0.0184013
-0.166065
0.0200551
-0.161441
0.0216257
-0.156861
0.0231235
-0.152372
0.0245602
-0.148009
0.0259477
-0.143799
0.0272978
-0.139752
0.0286214
-0.135867
0.0299273
-0.132121
-0.128471
0.0312215
0.000403071
-0.235148
0.00145981
-0.218421
0.00298294
-0.207826
0.00480411
-0.200649
0.00678748
-0.195229
0.00883136
-0.190566
0.0108645
-0.186133
0.0128408
-0.181683
0.014734
-0.177131
0.0165323
-0.172479
0.0182343
-0.167767
0.0198449
-0.163052
0.0213733
-0.15839
0.0228304
-0.153829
0.0242283
-0.149407
0.0255792
-0.14515
0.026895
-0.141068
0.028187
-0.137159
0.0294644
-0.133398
-0.129741
0.0307341
0.000416945
-0.235565
0.00148873
-0.219493
0.00301974
-0.209357
0.0048389
-0.202468
0.00680973
-0.197199
0.00883108
-0.192588
0.0108332
-0.188135
0.012772
-0.183621
0.0146232
-0.178982
0.0163771
-0.174232
0.0180337
-0.169423
0.0195993
-0.164618
0.0210837
-0.159874
0.0224988
-0.155244
0.0238567
-0.150765
0.0251698
-0.146463
0.0264504
-0.142349
0.0277097
-0.138418
0.0289577
-0.134646
-0.130985
0.030202
0.000428214
-0.235993
0.00151227
-0.220577
0.00304829
-0.210893
0.00486219
-0.204282
0.00681693
-0.199154
0.00881219
-0.194583
0.0107799
-0.190103
0.0126781
-0.18552
0.0144846
-0.180789
0.0161916
-0.175939
0.0178007
-0.171033
0.0193194
-0.166136
0.0207585
-0.161313
0.0221302
-0.156616
0.023447
-0.152082
0.0247213
-0.147737
0.0259655
-0.143593
0.0271912
-0.139644
0.0284089
-0.135864
-0.132204
0.0296272
0.000437307
-0.23643
0.00153082
-0.22167
0.00306887
-0.212431
0.00487422
-0.206087
0.00680938
-0.201089
0.00877507
-0.196549
0.0107051
-0.192033
0.0125596
-0.187374
0.0143187
-0.182548
0.0159765
-0.177597
0.0175362
-0.172592
0.0190064
-0.167607
0.0203987
-0.162706
0.0217258
-0.157943
0.0230003
-0.153356
0.0242349
-0.148972
0.0254418
-0.1448
0.026633
-0.140835
0.0278195
-0.137051
-0.133395
0.029011
0.000444788
-0.236875
0.00154507
-0.222771
0.00308203
-0.213968
0.00487547
-0.20788
0.00678759
-0.203001
0.00872032
-0.198481
0.0106095
-0.193922
0.0124175
-0.189182
0.0141267
-0.184257
0.015733
-0.179203
0.0172413
-0.1741
0.0186614
-0.169027
0.0200056
-0.16405
0.0212868
-0.159224
0.022518
-0.154587
0.0237116
-0.150165
0.0248801
-0.145968
0.0260357
-0.141991
0.02719
-0.138205
-0.134559
0.0283539
0.000450813
-0.237326
0.00155534
-0.223875
0.00308819
-0.215501
0.00486642
-0.209659
0.00675212
-0.204887
0.00864861
-0.200378
0.0104938
-0.195767
0.0122525
-0.190941
0.0139093
-0.185914
0.0154621
-0.180756
0.0169172
-0.175556
0.0182856
-0.170395
0.0195801
-0.165344
0.0208142
-0.160458
0.0220008
-0.155774
0.0231523
-0.151317
0.0242811
-0.147097
0.0253998
-0.143109
0.0265207
-0.139326
-0.135694
0.0276558
0.000455488
-0.237781
0.00156192
-0.224981
0.00308778
-0.217027
0.00484763
-0.211418
0.00670367
-0.206743
0.00856078
-0.202235
0.0103591
-0.197565
0.0120659
-0.192648
0.013668
-0.187516
0.0151651
-0.182253
0.0165652
-0.176956
0.0178801
-0.17171
0.0191235
-0.166588
0.0203089
-0.161643
0.0214494
-0.156914
0.0225573
-0.152425
0.0236449
-0.148185
0.0247251
-0.144189
0.0258109
-0.140412
-0.136799
0.0269159
0.000458886
-0.23824
0.00156509
-0.226088
0.00308128
-0.218543
0.00481975
-0.213157
0.00664303
-0.208566
0.00845777
-0.20405
0.0102065
-0.199314
0.0118589
-0.1943
0.0134039
-0.189061
0.0148434
-0.183693
0.0161865
-0.178299
0.0174462
-0.17297
0.0186367
-0.167778
0.0197718
-0.162779
0.0208645
-0.158007
0.021927
-0.153487
0.0229714
-0.149229
0.0240109
-0.145229
0.0250595
-0.14146
-0.137872
0.0261322
0.000461114
-0.238701
0.00156521
-0.227192
0.00306927
-0.220047
0.00478354
-0.214871
0.00657116
-0.210354
0.00834074
-0.205819
0.0100372
-0.20101
0.0116328
-0.195896
0.0131187
-0.190547
0.0144985
-0.185073
0.0157827
-0.179583
0.0169853
-0.174172
0.0181211
-0.168914
0.0192039
-0.163861
0.0202467
-0.15905
0.0212615
-0.154502
0.0222602
-0.150228
0.0232561
-0.146225
0.0242645
-0.142469
-0.138909
0.0253021
0.000462327
-0.239164
0.00156271
-0.228292
0.00305243
-0.221537
0.00473989
-0.216559
0.00648916
-0.212103
0.008211
-0.207541
0.00985287
-0.202652
0.0113895
-0.197432
0.0128142
-0.191972
0.0141323
-0.186391
0.0153557
-0.180806
0.0164993
-0.175316
0.0175781
-0.169993
0.0186063
-0.16489
0.0195968
-0.16004
0.020561
-0.155466
0.0215108
-0.151178
0.0224596
-0.147174
0.0234238
-0.143433
-0.139908
0.0244225
0.000462804
-0.239627
0.00155821
-0.229388
0.00303161
-0.22301
0.00468987
-0.218217
0.00639835
-0.213812
0.00807009
-0.209213
0.00965519
-0.204237
0.0111308
-0.198908
0.0124924
-0.193333
0.0137471
-0.187645
0.0149078
-0.181967
0.0159902
-0.176398
0.0170097
-0.171012
0.0179807
-0.165861
0.0189157
-0.160975
0.019826
-0.156377
0.020723
-0.152075
0.0216202
-0.148071
0.0225352
-0.144348
-0.140862
0.0234895
0.000463024
-0.24009
0.00155257
-0.230477
0.00300787
-0.224466
0.00463474
-0.219844
0.00630018
-0.215477
0.00791977
-0.210833
0.00944622
-0.205764
0.0108591
-0.200321
0.0121561
-0.19463
0.0133456
-0.188835
0.0144418
-0.183063
0.0154608
-0.177417
0.0164184
-0.17197
0.0173291
-0.166771
0.0182049
-0.161851
0.019057
-0.157229
0.0198961
-0.152914
0.0207358
-0.14891
0.0215945
-0.145207
-0.141765
0.0224969
0.000463788
-0.240553
0.00154696
-0.23156
0.00298242
-0.225901
0.00457584
-0.221437
0.00619628
-0.217098
0.00776194
-0.212398
0.00922821
-0.20723
0.0105771
-0.20167
0.0118081
-0.195861
0.0129311
-0.189958
0.0139612
-0.184093
0.0149149
-0.178371
0.0158081
-0.172863
0.0166549
-0.167618
0.0174673
-0.162664
0.0182555
-0.158017
0.0190299
-0.153688
0.0198034
-0.149684
0.0205954
-0.145999
-0.142605
0.0214362
0.000466244
-0.24102
0.00154268
-0.232637
0.00295649
-0.227315
0.00451456
-0.222995
0.00608833
-0.218671
0.00759868
-0.213909
0.00900366
-0.208635
0.0102876
-0.202954
0.0114519
-0.197025
0.0125078
-0.191014
0.0134707
-0.185056
0.0143577
-0.179258
0.0151842
-0.17369
0.0159641
-0.168398
0.0167085
-0.163408
0.017427
-0.158735
0.0181285
-0.15439
0.018825
-0.15038
0.0195372
-0.146711
-0.143372
0.020304
0.000471783
-0.241491
0.00154105
-0.233706
0.00293136
-0.228705
0.00445244
-0.224516
0.00597818
-0.220197
0.00743217
-0.215363
0.00877518
-0.209978
0.00999388
-0.204172
0.0110914
-0.198123
0.0120798
-0.192002
0.0129754
-0.185952
0.0137947
-0.180077
0.0145532
-0.174448
0.0152637
-0.169108
0.0159368
-0.164081
0.0165806
-0.159379
0.0172027
-0.155012
0.0178131
-0.150991
0.0184324
-0.14733
-0.144041
0.0191006
0.000482734
-0.241974
0.00154469
-0.234768
0.00290954
-0.23007
0.00439161
-0.225998
0.00586781
-0.221673
0.00726454
-0.216759
0.00854533
-0.211259
0.00969909
-0.205326
0.0107305
-0.199154
0.0116525
-0.192924
0.0124813
-0.186781
0.0132332
-0.180829
0.0139225
-0.175138
0.014561
-0.169747
0.015158
-0.164678
0.0157209
-0.159942
0.016256
-0.155547
0.0167699
-0.151505
0.0172753
-0.147836
-0.144562
0.0177963
0.000506678
-0.242481
0.00156082
-0.235822
0.00289506
-0.231404
0.00433396
-0.227437
0.00575844
-0.223098
0.00709721
-0.218098
0.00831613
-0.212478
0.00940618
-0.206416
0.0103734
-0.200122
0.0112315
-0.193782
0.0119965
-0.187546
0.0126835
-0.181516
0.0133051
-0.175759
0.0138703
-0.170312
0.014385
-0.165193
0.0148528
-0.16041
0.0152757
-0.15597
0.0156525
-0.151882
0.0159877
-0.148171
-0.144917
0.0163433
0.000563732
-0.243044
0.00159774
-0.236856
0.00288769
-0.232694
0.00427832
-0.228828
0.00564959
-0.224469
0.00693058
-0.219379
0.00808888
-0.213636
0.00911747
-0.207445
0.0100239
-0.201028
0.0108227
-0.194581
0.0115299
-0.188253
0.0121599
-0.182146
0.0127232
-0.176323
0.0132257
-0.170815
0.0136669
-0.165634
0.0140395
-0.160782
0.0143267
-0.156257
0.0145023
-0.152057
0.0145612
-0.14823
-0.145089
0.0147328
0.250727
0.000415062
-0.251142
0.250338
0.000388703
0.249957
0.000381434
0.249575
0.000381567
0.249191
0.000384514
0.248802
0.000388927
0.248408
0.000394081
0.248008
0.000399387
0.247604
0.000404454
0.247195
0.000409077
0.246782
0.000413158
0.246365
0.000416671
0.245945
0.0004196
0.245524
0.00042192
0.2451
0.000423507
0.244676
0.000424155
0.244253
0.000422817
0.243834
0.000418945
0.243431
0.000403336
0.000386248
0.252696
0.00102355
-0.253305
0.252052
0.00103276
0.25138
0.00105386
0.25068
0.00108086
0.249956
0.00110922
0.249207
0.0011376
0.248436
0.00116552
0.247642
0.00119248
0.246829
0.00121806
0.245996
0.00124202
0.245145
0.00126422
0.244277
0.00128466
0.243393
0.00130332
0.242495
0.0013202
0.241583
0.00133516
0.240659
0.00134799
0.239725
0.0013576
0.23878
0.0013637
0.237823
0.00136003
0.00135324
0.251476
0.0015955
-0.252048
0.250839
0.00166943
0.25015
0.00174357
0.249412
0.00181881
0.248628
0.00189281
0.247801
0.00196434
0.246934
0.00203309
0.246028
0.00209881
0.245084
0.00216127
0.244106
0.00222031
0.243094
0.00227587
0.242051
0.00232801
0.240978
0.00237681
0.239875
0.00242238
0.238746
0.00246473
0.23759
0.0025039
0.236408
0.00253937
0.2352
0.00257139
0.233963
0.00259756
0.00262208
0.247369
0.00203892
-0.247813
0.246856
0.0021825
0.246279
0.00232147
0.24564
0.00245725
0.244944
0.00258919
0.244192
0.0027165
0.243386
0.00283884
0.242529
0.00295605
0.241622
0.00306799
0.240668
0.00317458
0.239668
0.00327585
0.238624
0.00337192
0.237537
0.003463
0.23641
0.00354936
0.235244
0.0036313
0.234039
0.00370916
0.232795
0.00378304
0.231513
0.00385358
0.23019
0.00392004
0.00398444
0.24112
0.00231797
-0.241399
0.24077
0.00253286
0.240351
0.00274097
0.239865
0.00294315
0.239315
0.00313936
0.238702
0.00332914
0.238029
0.00351216
0.237296
0.00368822
0.236507
0.00385721
0.235663
0.00401909
0.234765
0.00417392
0.233815
0.00432192
0.232814
0.00446341
0.231765
0.00459885
0.230667
0.00472878
0.229522
0.0048539
0.228331
0.00497481
0.227092
0.00509246
0.225805
0.00520701
0.00532014
0.233522
0.00244131
-0.233645
0.233328
0.0027268
0.233065
0.00300435
0.232734
0.00327428
0.232336
0.00353661
0.231874
0.00379103
0.231349
0.00403723
0.230763
0.00427497
0.230116
0.00450411
0.22941
0.00472462
0.228647
0.0049366
0.227829
0.0051403
0.226956
0.00533617
0.22603
0.00552482
0.225052
0.00570708
0.224022
0.00588396
0.22294
0.00605652
0.221807
0.00622616
0.22062
0.00639372
0.00656105
0.225278
0.00243949
-0.225276
0.225212
0.00279302
0.225078
0.00313787
0.224878
0.00347397
0.224614
0.00380125
0.224285
0.00411943
0.223894
0.00442817
0.223442
0.0047272
0.22293
0.00501634
0.222359
0.00529553
0.221731
0.00556489
0.221046
0.00582469
0.220307
0.00607547
0.219514
0.00631801
0.218668
0.00655337
0.217769
0.00678294
0.216817
0.00700826
0.215812
0.00723124
0.214752
0.00745342
0.00767696
0.216915
0.0023487
-0.216825
0.216942
0.00276673
0.216904
0.00317548
0.216803
0.00357465
0.216641
0.00396404
0.216417
0.00434332
0.216133
0.00471213
0.21579
0.00507013
0.215389
0.00541708
0.214932
0.0057529
0.214419
0.00607765
0.213852
0.00639163
0.213232
0.00669544
0.21256
0.00698998
0.211837
0.00727659
0.211063
0.00755701
0.210238
0.00783336
0.209361
0.00810814
0.208431
0.00838373
0.00866281
0.208782
0.00220224
-0.208636
0.208868
0.00268098
0.208894
0.00314988
0.20886
0.00360848
0.208767
0.00405648
0.208617
0.00449347
0.20841
0.00491903
0.208148
0.00533274
0.20783
0.0057343
0.20746
0.00612355
0.207037
0.00650049
0.206563
0.00686541
0.20604
0.00721891
0.205468
0.007562
0.204848
0.00789625
0.204181
0.00822378
0.203467
0.00854734
0.202705
0.00887022
0.201893
0.00919585
0.00952778
0.201078
0.00202712
-0.200903
0.201196
0.00256299
0.201258
0.00308844
0.201263
0.00360293
0.201214
0.00410602
0.20111
0.00459723
0.200953
0.00507606
0.200744
0.005542
0.200483
0.00599467
0.200173
0.00643379
0.199814
0.00685928
0.199408
0.00727133
0.198957
0.00767051
0.198461
0.00805786
0.197922
0.00843516
0.197341
0.00880485
0.196718
0.00917047
0.196052
0.00953617
0.195341
0.00990689
0.0102874
0.193897
0.00184319
-0.193713
0.194027
0.00243308
0.194103
0.00301197
0.194127
0.00357919
0.194099
0.00413422
0.19402
0.00467649
0.19389
0.00520537
0.193712
0.00572029
0.193486
0.00622073
0.193213
0.00670628
0.192896
0.00717673
0.192535
0.0076321
0.192133
0.00807286
0.191691
0.00849995
0.191211
0.00891531
0.190694
0.00932158
0.190141
0.00972321
0.189552
0.0101253
0.188924
0.0105349
0.0109586
0.187261
0.00166386
-0.187082
0.187389
0.00230525
0.187466
0.00293505
0.187492
0.00355243
0.18747
0.00415676
0.187399
0.00474738
0.187281
0.00532359
0.187116
0.00588468
0.186907
0.00642998
0.186654
0.00695894
0.18636
0.00747114
0.186026
0.00796636
0.185654
0.00844487
0.185246
0.00890736
0.184806
0.00935579
0.184335
0.00979277
0.183834
0.0102239
0.183305
0.0106547
0.182743
0.011096
0.0115561
0.181151
0.00149745
-0.180984
0.181267
0.00218851
0.181335
0.00286723
0.181355
0.00353269
0.181328
0.00418421
0.181254
0.00482103
0.181135
0.00544234
0.180973
0.0060473
0.180767
0.0066351
0.180521
0.00720497
0.180236
0.00775624
0.179914
0.00828838
0.179558
0.00880133
0.17917
0.0092953
0.178753
0.00977215
0.178312
0.0102339
0.177849
0.0106876
0.177365
0.0111386
0.176858
0.0116033
0.0120911
0.175524
0.00134881
-0.175375
0.175624
0.00208802
0.175677
0.00281408
0.175684
0.00352606
0.175645
0.00422314
0.175561
0.00490447
0.175435
0.00556914
0.175266
0.00621618
0.175056
0.00684461
0.174808
0.00745343
0.174522
0.00804168
0.174202
0.00860842
0.17385
0.00915314
0.173471
0.00967529
0.173066
0.0101764
0.172643
0.0106572
0.172204
0.0111264
0.171755
0.0115872
0.171293
0.0120659
0.0125693
0.170328
0.00122021
-0.170199
0.170409
0.00200646
0.170445
0.00277863
0.170435
0.00353582
0.170381
0.00427715
0.170284
0.00500164
0.170144
0.00570829
0.169965
0.00639601
0.169746
0.00706363
0.169489
0.00770992
0.169197
0.00833359
0.168872
0.00893322
0.168518
0.0095077
0.168138
0.0100555
0.167737
0.0105774
0.167322
0.0110719
0.166899
0.0115497
0.166478
0.0120077
0.166054
0.0124897
0.0129894
0.165508
0.00111243
-0.1654
0.16557
0.00194464
0.165586
0.00276186
0.165559
0.00356317
0.165489
0.00434761
0.165376
0.00511413
0.165223
0.00586163
0.16503
0.00658887
0.164799
0.00729455
0.164532
0.00797717
0.16423
0.00863511
0.163897
0.00926642
0.163535
0.00986933
0.16315
0.0104409
0.162746
0.0109813
0.162333
0.0114846
0.161918
0.0119648
0.161521
0.012405
0.161132
0.0128783
0.0133395
0.161012
0.00102495
-0.160925
0.161055
0.00190208
0.161053
0.00276333
0.161009
0.00360772
0.160922
0.00443421
0.160795
0.00524168
0.160627
0.00602893
0.160421
0.00679465
0.160179
0.00753735
0.1599
0.00825532
0.159589
0.00894662
0.159247
0.00960881
0.158877
0.0102394
0.158484
0.0108339
0.158074
0.0113911
0.157658
0.0119
0.157246
0.0123768
0.15687
0.0127818
0.156511
0.0132367
0.0135936
0.156793
0.000955958
-0.156724
0.156818
0.00187722
0.1568
0.00278134
0.15674
0.00366764
0.156639
0.00453498
0.156499
0.00538217
0.15632
0.00620796
0.156104
0.00701096
0.155851
0.00778953
0.155565
0.0085418
0.155246
0.00926555
0.154897
0.0099579
0.154521
0.0106157
0.154122
0.011233
0.153706
0.011807
0.153286
0.0123198
0.152874
0.012789
0.152518
0.0131374
0.152184
0.0135706
0.0137206
0.152809
0.00090349
-0.152756
0.152819
0.00186721
0.152787
0.00281269
0.152716
0.00373935
0.152605
0.00464591
0.152456
0.00553116
0.15227
0.00639384
0.152048
0.00723247
0.151792
0.00804534
0.151504
0.00883042
0.151184
0.00958532
0.150835
0.0103069
0.150459
0.0109914
0.150061
0.0116318
0.149644
0.0122239
0.149221
0.0127423
0.148805
0.0132049
0.148471
0.013472
0.148178
0.0138635
0.0136688
0.149019
-0.148981
0.000865988
0.149018
0.00186811
0.148977
0.00285297
0.148899
0.00381777
0.148784
0.00476115
0.148633
0.00568203
0.148448
0.00657914
0.148229
0.00745096
0.147979
0.00829571
0.147698
0.00911128
0.147388
0.00989523
0.147051
0.0106442
0.146688
0.0113544
0.146302
0.0120177
0.145895
0.0126302
0.145478
0.0131597
0.145055
0.0136283
0.144704
0.0138229
0.144446
0.0141213
0.0130259
0.254365
7.40782e-05
-0.254439
0.254328
3.63855e-05
0.254296
3.2548e-05
0.254254
4.14772e-05
0.254198
5.59057e-05
0.254125
7.37547e-05
0.254031
9.37217e-05
0.253916
0.000114682
0.25378
0.000135823
0.253624
0.000156636
0.253447
0.000176682
0.253251
0.00019568
0.253037
0.000214127
0.252804
0.000233082
0.252554
0.000250369
0.252288
0.000265543
0.25201
0.000278206
0.251722
0.000288265
0.251432
0.000289861
0.000289869
0.256225
-0.000241482
-0.255909
0.256478
-0.000217524
0.256688
-0.000176607
0.256852
-0.000122814
0.25697
-6.26585e-05
0.257043
1.25538e-06
0.257069
6.77847e-05
0.257048
0.000135839
0.256979
0.000204493
0.256863
0.000272811
0.2567
0.000339552
0.256492
0.00040347
0.256243
0.000463326
0.255945
0.00053076
0.255603
0.000592455
0.255219
0.000649598
0.254795
0.000702043
0.254334
0.000749724
0.253836
0.000787985
0.000821049
0.251658
-0.000898116
-0.251002
0.252242
-0.000801232
0.25276
-0.000694496
0.253215
-0.000578078
0.253608
-0.000455488
0.253938
-0.000328971
0.254206
-0.000199673
0.254411
-6.90006e-05
0.254552
6.30544e-05
0.254629
0.000195916
0.254643
0.000325744
0.254594
0.000452167
0.25448
0.00057748
0.254308
0.000702539
0.254077
0.00082342
0.253787
0.000939289
0.25344
0.00104967
0.253035
0.00115446
0.252571
0.00125172
0.00134423
0.243339
-0.00183369
-0.242403
0.244201
-0.00166406
0.244994
-0.00148715
0.245718
-0.00130224
0.246374
-0.001111
0.24696
-0.000915224
0.247477
-0.000716273
0.247923
-0.000515405
0.248299
-0.000313312
0.248603
-0.000107219
0.248834
9.46704e-05
0.248996
0.000289379
0.249088
0.000486011
0.249111
0.000679623
0.249065
0.000869149
0.248951
0.00105368
0.248768
0.00123247
0.248517
0.00140515
0.248198
0.00157067
0.00172957
0.233255
-0.00296814
-0.232121
0.234322
-0.0027303
0.235319
-0.00248493
0.236249
-0.00223163
0.237109
-0.0019713
0.237899
-0.00170545
0.238619
-0.00143549
0.239266
-0.00116264
0.23984
-0.000887867
0.240345
-0.00061195
0.240778
-0.000338118
0.241135
-6.77839e-05
0.24142
0.000201125
0.241633
0.000466699
0.241773
0.000728545
0.241842
0.000985221
0.241838
0.00123599
0.241763
0.00148028
0.241617
0.00171724
0.00194682
0.222699
-0.00422908
-0.221438
0.223896
-0.0039279
0.225029
-0.00361764
0.226096
-0.00329844
0.227096
-0.00297113
0.228027
-0.00263712
0.22889
-0.00229799
0.229682
-0.00195521
0.230405
-0.00161021
0.231057
-0.00126435
0.231638
-0.00091918
0.232146
-0.000575995
0.232583
-0.000235658
0.23295
0.000100299
0.233245
0.000433352
0.233468
0.000762388
0.233619
0.00108473
0.233699
0.00140031
0.233708
0.00170849
0.00200903
0.212453
-0.00555891
-0.211123
0.213724
-0.00519858
0.214933
-0.00482706
0.21608
-0.004445
0.217162
-0.00405343
0.218179
-0.00365398
0.219129
-0.00324845
0.220013
-0.00283858
0.220829
-0.00242602
0.221576
-0.00201223
0.222256
-0.00159861
0.222866
-0.00118658
0.223408
-0.000776921
0.223878
-0.000370383
0.224286
2.53706e-05
0.224622
0.000426612
0.224889
0.000818236
0.225086
0.00120253
0.225216
0.00157943
0.00194853
0.20293
-0.00691584
-0.201573
0.204231
-0.0064997
0.205474
-0.00606996
0.206656
-0.00562766
0.207777
-0.00517428
0.208835
-0.00471182
0.209829
-0.00424244
0.210759
-0.00376813
0.211623
-0.00329074
0.212423
-0.00281189
0.213157
-0.00233305
0.213826
-0.00185559
0.21443
-0.00138058
0.214969
-0.000908988
0.215436
-0.00044217
0.215849
1.37414e-05
0.21619
0.000477178
0.216467
0.000925849
0.216678
0.00136796
0.00180218
0.194287
-0.00827208
-0.192931
0.19559
-0.00780265
0.196837
-0.00731694
0.198026
-0.00681628
0.199154
-0.00630282
0.200222
-0.00577918
0.201227
-0.00524791
0.20217
-0.00471135
0.203051
-0.00417154
0.20387
-0.00363026
0.204626
-0.00308907
0.205319
-0.00254928
0.205951
-0.00201209
0.20652
-0.00147841
0.207028
-0.000949658
0.207469
-0.000427137
0.207855
9.06627e-05
0.208177
0.000604273
0.208437
0.00110774
0.00160333
0.186533
-0.00961087
-0.185194
0.187821
-0.00909012
0.189054
-0.0085499
0.190229
-0.00799193
0.191346
-0.00741936
0.192402
-0.00683562
0.193398
-0.00624379
0.194333
-0.00564655
0.195208
-0.00504621
0.196022
-0.00444465
0.196777
-0.00384345
0.197471
-0.00324393
0.198107
-0.00264723
0.198682
-0.00205432
0.199199
-0.00146619
0.199656
-0.000883759
0.200054
-0.000307758
0.200396
0.000262237
0.200679
0.000825246
0.00137877
0.179596
-0.0109235
-0.178283
0.180859
-0.0103531
0.182068
-0.00975922
0.18322
-0.00914414
0.184314
-0.00851265
0.185347
-0.00786924
0.186321
-0.00721756
0.187235
-0.00656071
0.18809
-0.0059012
0.188886
-0.00524101
0.189625
-0.00458168
0.190305
-0.00392447
0.190928
-0.00327046
0.191495
-0.00262058
0.192004
-0.00197567
0.192457
-0.00133659
0.192853
-0.000703868
0.193196
-8.0435e-05
0.193482
0.000539054
0.00114779
0.17337
-0.012207
-0.172087
0.174606
-0.0115888
0.175788
-0.0109413
0.176912
-0.0102685
0.177977
-0.00957758
0.178982
-0.00887433
0.179928
-0.00816301
0.180814
-0.00744713
0.181642
-0.0067294
0.182413
-0.00601178
0.183127
-0.00529574
0.183785
-0.00458244
0.184387
-0.00387284
0.184935
-0.0031678
0.185427
-0.00246809
0.185865
-0.00177454
0.186249
-0.00108789
0.186578
-0.000409731
0.186857
0.000260132
0.000923489
0.167747
-0.0134621
-0.166492
0.168957
-0.0127984
0.170112
-0.0120965
0.171208
-0.0113645
0.172244
-0.0106132
0.173219
-0.00984936
0.174134
-0.00907812
0.17499
-0.00830339
0.175789
-0.00752798
0.176531
-0.00675376
0.177217
-0.00598204
0.177848
-0.00521381
0.178426
-0.0044499
0.178949
-0.00369107
0.179419
-0.00293804
0.179836
-0.00219161
0.1802
-0.00145225
0.180511
-0.000720708
0.180775
-3.74481e-06
0.000714232
0.162627
-0.0146927
-0.161396
0.163815
-0.0139868
0.164947
-0.0132286
0.166018
-0.0124349
0.167025
-0.0116211
0.167971
-0.0107953
0.168857
-0.00996331
0.169683
-0.00912946
0.170451
-0.00829653
0.171164
-0.00746617
0.171821
-0.00663945
0.172424
-0.00581713
0.172974
-0.00499985
0.173472
-0.00418826
0.173917
-0.00338299
0.17431
-0.00258478
0.174652
-0.00179429
0.174944
-0.00101283
0.175182
-0.000242197
0.000521638
0.157926
-0.0159054
-0.156713
0.159101
-0.0151615
0.160215
-0.0143431
0.161264
-0.0134838
0.162247
-0.0126045
0.163166
-0.0117142
0.164023
-0.0108197
0.164819
-0.0099259
0.165558
-0.00903524
0.16624
-0.00814895
0.166869
-0.00726771
0.167444
-0.00639197
0.167966
-0.00552211
0.168436
-0.00465862
0.168855
-0.00380203
0.169223
-0.00295305
0.169542
-0.00211242
0.16981
-0.00128109
0.170028
-0.000460183
0.00035055
0.153581
-0.0171128
-0.152374
0.154753
-0.0163329
0.155857
-0.0154468
0.156889
-0.014516
0.15785
-0.0135656
0.158742
-0.0126064
0.15957
-0.0116471
0.160336
-0.0106922
0.161044
-0.00974346
0.161697
-0.00880151
0.162295
-0.00786639
0.162842
-0.00693804
0.163336
-0.0060165
0.163779
-0.00510203
0.164172
-0.00419506
0.164516
-0.00329622
0.164809
-0.00240623
0.165054
-0.00152594
0.165251
-0.00065653
0.000201023
0.149548
-0.0183441
-0.148317
0.150732
-0.0175164
0.151831
-0.0165463
0.152849
-0.0155341
0.153787
-0.0145032
0.154649
-0.013469
0.155444
-0.0124422
0.156178
-0.0114255
0.156853
-0.0104191
0.157474
-0.00942248
0.158043
-0.00843472
0.15856
-0.00745504
0.159026
-0.00648305
0.159443
-0.00551876
0.15981
-0.00456249
0.160129
-0.00361478
0.160399
-0.00267639
0.160621
-0.00174818
0.160796
-0.000831142
7.23801e-05
0.145796
-0.0196638
-0.144477
0.147014
-0.0187337
0.148109
-0.017642
0.149108
-0.0165327
0.150014
-0.0154089
0.150838
-0.0142937
0.151595
-0.0131985
0.152291
-0.0121215
0.152931
-0.0110595
0.153519
-0.0100105
0.154057
-0.00897225
0.154545
-0.00794316
0.154984
-0.00692236
0.155375
-0.00590967
0.155718
-0.00490533
0.156013
-0.00390988
0.156261
-0.0029241
0.156461
-0.00194905
0.156616
-0.000985702
-3.60037e-05
0.142342
-0.0211418
-0.140864
0.14359
-0.0199822
0.144664
-0.0187158
0.145621
-0.0174893
0.146478
-0.0162661
0.147254
-0.0150698
0.147965
-0.0139093
0.14862
-0.0127764
0.149223
-0.0116633
0.149778
-0.0105655
0.150286
-0.00947978
0.150746
-0.00840361
0.15116
-0.00733586
0.151527
-0.0062763
0.151846
-0.00522522
0.15212
-0.00418323
0.152347
-0.00315119
0.152528
-0.00213026
0.152664
-0.00112195
-0.000127799
0.139254
-0.137836
-0.0225597
0.140416
-0.021144
0.14145
-0.0197495
0.142327
-0.0183661
0.143116
-0.0170552
0.143839
-0.0157933
0.144504
-0.0145743
0.145119
-0.013391
0.145688
-0.0122322
0.146212
-0.0110898
0.146692
-0.00995931
0.147126
-0.00883808
0.147515
-0.00772502
0.147859
-0.00661999
0.148157
-0.00552348
0.14841
-0.00443626
0.148618
-0.00335931
0.148782
-0.00229364
0.148901
-0.00124082
-0.000208339
0.0308284
0.112036
-0.110552
-0.0323123
0.0293173
0.115039
-0.113528
0.027776
0.118175
-0.116634
0.0262012
0.121467
-0.119892
0.0245895
0.124947
-0.123335
0.0229381
0.128657
-0.127006
0.0212449
0.132656
-0.130963
0.0195086
0.137023
-0.135287
0.0177285
0.141862
-0.140082
0.0159049
0.147304
-0.14548
0.0140397
0.153509
-0.151644
0.012137
0.160666
-0.158764
0.0102059
0.168975
-0.167044
0.00826288
0.178624
-0.176681
0.00633796
0.189737
-0.187812
0.00448128
0.202277
-0.20042
0.0027726
0.215908
-0.214199
0.00133245
0.229773
-0.228333
0.000330182
0.24209
-0.241088
0.249725
-0.249395
0.0306394
0.113512
-0.0321157
0.0291359
0.116542
0.0276024
0.119708
0.0260357
0.123033
0.0244322
0.12655
0.0227892
0.1303
0.0211043
0.134341
0.0193762
0.138751
0.017604
0.143634
0.0157881
0.14912
0.0139304
0.155367
0.0120354
0.162561
0.0101126
0.170898
0.00817953
0.180557
0.00626725
0.191649
0.0044274
0.204117
0.00274126
0.217594
0.00132879
0.231185
0.000353948
0.243065
0.250079
0.0304085
0.114978
-0.031875
0.0289147
0.118036
0.0273913
0.121232
0.0258348
0.12459
0.0242418
0.128143
0.0226093
0.131932
0.020935
0.136015
0.0192173
0.140469
0.0174554
0.145396
0.0156495
0.150925
0.0138017
0.157215
0.0119168
0.164446
0.0100048
0.17281
0.0080841
0.182478
0.0061866
0.193547
0.00436503
0.205938
0.00270117
0.219258
0.00131337
0.232573
0.000357025
0.244021
0.250436
0.0301372
0.116433
-0.0315919
0.0286555
0.119518
0.0271443
0.122743
0.0256
0.126134
0.0240194
0.129724
0.0223995
0.133552
0.0207378
0.137677
0.0190327
0.142174
0.0172832
0.147145
0.0154895
0.152719
0.0136539
0.159051
0.0117814
0.166318
0.00988254
0.174709
0.00797629
0.184384
0.00609547
0.195427
0.00429351
0.20774
0.00265234
0.220899
0.00128864
0.233937
0.000351963
0.244958
0.250788
0.029828
0.117874
-0.0312688
0.0283601
0.120986
0.0268629
0.12424
0.0253328
0.127664
0.0237665
0.13129
0.0221609
0.135158
0.0205138
0.139324
0.0188231
0.143865
0.0170879
0.148881
0.0153086
0.154498
0.0134872
0.160872
0.0116293
0.168176
0.00974573
0.176592
0.00785608
0.186274
0.00599395
0.19729
0.00421344
0.209521
0.00259652
0.222516
0.0012582
0.235275
0.000343047
0.245873
0.251131
0.0294833
0.119299
-0.0309088
0.0280308
0.122438
0.0265492
0.125722
0.0250348
0.129179
0.0234844
0.132841
0.0218948
0.136747
0.0202638
0.140955
0.0185893
0.145539
0.0168703
0.150599
0.0151072
0.156262
0.0133021
0.162677
0.0114608
0.170018
0.00959461
0.178458
0.0077237
0.188145
0.00588242
0.199131
0.00412545
0.211278
0.0025347
0.224107
0.0012234
0.236586
0.000331444
0.246765
0.251463
0.0291059
0.120709
-0.0305151
0.02767
0.123874
0.0262052
0.127186
0.0247078
0.130676
0.0231745
0.134374
0.0216023
0.13832
0.0199888
0.142569
0.0183321
0.147196
0.016631
0.152301
0.0148858
0.158007
0.0130989
0.164464
0.0112763
0.17184
0.00942948
0.180305
0.00757946
0.189995
0.00576119
0.200949
0.0040299
0.213009
0.00246731
0.225669
0.00118481
0.237869
0.000317861
0.247632
0.25178
0.0286987
0.122101
-0.0300909
0.0272801
0.125293
0.0258328
0.128634
0.0243533
0.132155
0.0228382
0.135889
0.0212845
0.139873
0.0196899
0.144163
0.0180523
0.148834
0.0163705
0.153982
0.014645
0.159732
0.0128781
0.166231
0.0110759
0.173642
0.00925064
0.182131
0.00742362
0.191822
0.00563053
0.202742
0.00392708
0.214713
0.00239471
0.227201
0.00114295
0.239121
0.000302902
0.248472
0.252083
0.0282647
0.123476
-0.0296398
0.0268634
0.126694
0.0254341
0.130063
0.0239729
0.133617
0.0224767
0.137385
0.0209424
0.141408
0.0193676
0.145738
0.0177504
0.150451
0.0160894
0.155643
0.0143851
0.161437
0.0126399
0.167976
0.0108601
0.175422
0.00905832
0.183932
0.00725643
0.193624
0.00549071
0.204508
0.00381729
0.216386
0.00231728
0.228701
0.0010983
0.24034
0.000286982
0.249283
0.25237
0.0278064
0.124835
-0.0291653
0.0264222
0.128078
0.0250106
0.131475
0.0235679
0.135059
0.0220909
0.138862
0.0205767
0.142922
0.0190227
0.147292
0.0174268
0.152047
0.0157879
0.157282
0.0141063
0.163118
0.0123845
0.169698
0.010629
0.177178
0.00885274
0.185709
0.00707811
0.195398
0.00534198
0.206244
0.00370083
0.218027
0.00223536
0.230167
0.00105121
0.241524
0.000270346
0.250064
0.252641
0.0273265
0.126179
-0.0286706
0.0259581
0.129447
0.0245635
0.132869
0.023139
0.136484
0.0216814
0.14032
0.0201876
0.144416
0.0186551
0.148824
0.0170817
0.15362
0.0154663
0.158898
0.0138088
0.164776
0.0121121
0.171395
0.0103828
0.178907
0.00863404
0.187457
0.00688884
0.197144
0.00518456
0.207948
0.00357797
0.219634
0.00214927
0.231596
0.00100197
0.242671
0.000253155
0.250813
0.252894
0.0268264
0.127511
-0.0281583
0.0254719
0.130801
0.0240931
0.134248
0.0226863
0.137891
0.0212479
0.141758
0.019775
0.145888
0.0182648
0.150335
0.016715
0.15517
0.0151242
0.160488
0.0134925
0.166407
0.0118226
0.173064
0.0101214
0.180608
0.00840232