/*--------------------------------*- C++ -*----------------------------------*\
  =========                 |
  \\      /  F ield         | OpenFOAM: The Open Source CFD Toolbox
   \\    /   O peration     | Website:  https://openfoam.org
    \\  /    A nd           | Version:  6.0
     \\/     M anipulation  |
\*---------------------------------------------------------------------------*/
FoamFile
{
    version     2.0;
    format      ascii;
    class       volVectorField;
    location    "8.248";
    object      U;
}
// * * * * * * * * * * * * * * * * * * * * * * * * * * * * * * * * * * * * * //

dimensions      [0 1 -1 0 0 0 0];

internalField   nonuniform List<vector> 
19200
(
(0.00655613 -0.479923 -4.28355e-22)
(0.00477589 -0.443098 2.37484e-22)
(0.00261054 -0.409175 1.21904e-22)
(8.57387e-05 -0.378018 1.19142e-22)
(-0.00266038 -0.349452 1.45899e-22)
(-0.00548544 -0.323296 7.25385e-24)
(-0.00829039 -0.299367 2.34009e-22)
(-0.011004 -0.277486 -2.45065e-23)
(-0.0135749 -0.257483 2.32259e-22)
(-0.0159676 -0.239193 1.01572e-22)
(-0.0181597 -0.222463 -1.07862e-23)
(-0.0201389 -0.207152 1.81277e-22)
(-0.0219008 -0.193126 3.42985e-22)
(-0.0234471 -0.180263 -2.50422e-22)
(-0.0247843 -0.168452 3.33353e-22)
(-0.0259226 -0.15759 3.17179e-22)
(-0.0268749 -0.147585 -3.1195e-22)
(-0.027656 -0.138352 5.70765e-22)
(-0.0282822 -0.129815 -3.83326e-22)
(-0.0287708 -0.121905 1.94157e-22)
(-0.0291394 -0.114562 3.00988e-22)
(-0.0294057 -0.107728 -1.09069e-22)
(-0.0295873 -0.101359 1.48547e-22)
(-0.0297014 -0.0954122 -1.88574e-22)
(-0.0297644 -0.0898529 4.79203e-24)
(-0.0297929 -0.0846456 1.12107e-22)
(-0.0298024 -0.0797584 -7.64782e-23)
(-0.0297974 -0.0751625 4.17516e-23)
(-0.0297695 -0.0708329 1.16757e-22)
(-0.0298083 -0.0667461 5.76446e-22)
(0.0191477 -0.479078 -1.02904e-22)
(0.0163862 -0.441635 7.46035e-22)
(0.0133201 -0.407267 -4.17008e-22)
(0.00998834 -0.375803 -6.38512e-22)
(0.0065288 -0.347047 -3.23459e-22)
(0.00307862 -0.320797 -2.46423e-22)
(-0.000269238 -0.296853 -5.73829e-22)
(-0.00344978 -0.275019 6.90842e-23)
(-0.00641762 -0.255111 -1.1192e-22)
(-0.00914328 -0.236955 -4.79234e-22)
(-0.0116099 -0.220386 -1.37403e-21)
(-0.0138105 -0.205255 7.14698e-22)
(-0.0157455 -0.191421 -2.87578e-22)
(-0.0174213 -0.178757 1.10511e-22)
(-0.0188487 -0.167145 -7.52962e-22)
(-0.0200418 -0.156479 -3.043e-22)
(-0.0210172 -0.146662 2.94625e-23)
(-0.0217932 -0.137608 1.14622e-21)
(-0.0223892 -0.129236 -5.95068e-22)
(-0.0228255 -0.121476 -3.43318e-22)
(-0.0231224 -0.114264 -1.53721e-21)
(-0.0233004 -0.107545 4.08549e-22)
(-0.0233795 -0.10127 -2.75987e-22)
(-0.0233789 -0.0953975 5.20682e-22)
(-0.0233174 -0.0898917 -2.64566e-22)
(-0.0232136 -0.0847183 -4.30566e-22)
(-0.0230849 -0.0798451 1.34295e-22)
(-0.0229363 -0.0752444 2.46334e-22)
(-0.022757 -0.070891 -4.18924e-22)
(-0.0226493 -0.0667642 2.69273e-22)
(0.0316513 -0.477942 -4.89771e-23)
(0.0278876 -0.439895 1.28492e-22)
(0.023927 -0.405108 2.23021e-22)
(0.0198016 -0.373371 2.20812e-21)
(0.0156467 -0.344463 -1.40622e-21)
(0.0115952 -0.318157 1.29872e-21)
(0.00773383 -0.294233 8.60354e-22)
(0.00412094 -0.27248 7.65032e-22)
(0.000795104 -0.252699 -7.77767e-22)
(-0.00222071 -0.234705 -1.29534e-22)
(-0.00491584 -0.218324 2.22229e-21)
(-0.007289 -0.203398 4.24835e-22)
(-0.00934609 -0.189779 -1.19665e-21)
(-0.0110984 -0.177335 9.50327e-22)
(-0.0125614 -0.165942 -1.89746e-23)
(-0.0137534 -0.155489 4.68135e-22)
(-0.0146948 -0.145877 3.42255e-22)
(-0.0154077 -0.137015 1.31794e-21)
(-0.0159149 -0.128821 -5.60997e-22)
(-0.0162396 -0.121222 -1.81435e-22)
(-0.0164053 -0.114152 -5.91516e-22)
(-0.0164351 -0.107554 2.82455e-21)
(-0.0163518 -0.101379 -2.45944e-21)
(-0.0161771 -0.0955849 7.91253e-22)
(-0.0159319 -0.0901349 4.65036e-22)
(-0.0156373 -0.0849952 -1.78989e-21)
(-0.0153131 -0.0801345 2.4665e-21)
(-0.0149642 -0.0755254 -2.47825e-22)
(-0.0145767 -0.0711424 -2.96572e-22)
(-0.014269 -0.0669683 -2.58766e-21)
(0.0440974 -0.476504 -1.54927e-21)
(0.0393022 -0.43789 -1.63631e-21)
(0.0344394 -0.40272 -2.19748e-21)
(0.0295273 -0.37075 7.60212e-24)
(0.0246941 -0.341729 1.38757e-22)
(0.0200661 -0.315404 -3.06575e-21)
(0.0157224 -0.291536 1.19024e-22)
(0.0117136 -0.269897 4.7014e-22)
(0.00807054 -0.250276 -6.27201e-23)
(0.00480902 -0.232473 9.41915e-22)
(0.00193292 -0.216308 -3.78557e-21)
(-0.0005628 -0.201612 -2.61994e-21)
(-0.00268982 -0.188232 9.38088e-22)
(-0.00446479 -0.176028 2.19654e-21)
(-0.00590798 -0.164874 -2.57403e-21)
(-0.00704223 -0.154653 -4.29046e-22)
(-0.00789218 -0.145262 -1.75224e-21)
(-0.00848357 -0.136606 -8.76144e-22)
(-0.00884281 -0.128603 1.60084e-21)
(-0.00899653 -0.121175 -2.11625e-21)
(-0.00897125 -0.114257 2.00921e-21)
(-0.00879307 -0.107788 -2.39639e-21)
(-0.00848744 -0.101719 -2.02825e-21)
(-0.00807886 -0.0960055 -1.59012e-21)
(-0.00759098 -0.0906123 -4.10159e-22)
(-0.00704724 -0.0855051 -3.53564e-21)
(-0.00647029 -0.0806541 3.79822e-22)
(-0.00586492 -0.0760315 7.12433e-22)
(-0.00521298 -0.071611 -2.19474e-21)
(-0.00465232 -0.0673802 4.34549e-22)
(0.0564885 -0.474755 -8.98618e-22)
(0.050636 -0.435628 1.58745e-22)
(0.0448623 -0.40012 1.4622e-21)
(0.0391697 -0.367962 1.67249e-21)
(0.0336757 -0.338869 1.32103e-21)
(0.0284973 -0.312565 5.90221e-22)
(0.0237041 -0.288791 9.49849e-22)
(0.0193374 -0.267301 4.82019e-21)
(0.0154197 -0.247871 -2.97197e-21)
(0.0119585 -0.23029 6.23429e-23)
(0.00895043 -0.214367 7.8135e-22)
(0.00638349 -0.199927 3.9065e-21)
(0.00423981 -0.186809 -2.7635e-21)
(0.00249705 -0.174867 2.13483e-21)
(0.00112979 -0.16397 -2.55895e-21)
(0.000110449 -0.153998 4.63258e-21)
(-0.000589935 -0.144844 -1.38248e-21)
(-0.00100112 -0.13641 5.42514e-23)
(-0.00115323 -0.12861 2.62889e-21)
(-0.00107635 -0.121365 2.02637e-21)
(-0.000800283 -0.114607 -2.06701e-21)
(-0.000354157 -0.108275 2.97947e-21)
(0.000233494 -0.102317 -1.45632e-21)
(0.000935417 -0.0966875 1.72156e-21)
(0.00172514 -0.0913514 2.50693e-21)
(0.00257603 -0.0862755 1.02471e-21)
(0.0034629 -0.0814293 3.17403e-21)
(0.00438068 -0.0767868 -1.00712e-21)
(0.00535265 -0.0723192 -2.59434e-22)
(0.00621834 -0.0680199 -2.20753e-21)
(0.0688202 -0.472696 -6.60051e-22)
(0.0618891 -0.433114 -4.80904e-22)
(0.0551988 -0.397323 -1.66265e-21)
(0.048734 -0.365024 -4.81483e-21)
(0.0425986 -0.335905 1.61169e-21)
(0.0368975 -0.309665 1.28051e-22)
(0.0316895 -0.286022 -1.3162e-21)
(0.0270051 -0.264718 3.25846e-22)
(0.022857 -0.245511 -1.62162e-22)
(0.019244 -0.228182 -4.26662e-21)
(0.0161544 -0.212529 1.77888e-21)
(0.0135689 -0.19837 3.42783e-21)
(0.0114629 -0.185536 -2.62237e-23)
(0.00980814 -0.173877 1.42163e-21)
(0.00857368 -0.163257 3.86983e-21)
(0.00772702 -0.153552 -2.82397e-21)
(0.00723468 -0.14465 5.21604e-21)
(0.00706274 -0.136452 -2.67592e-21)
(0.00717724 -0.128868 4.9792e-21)
(0.00754445 -0.121817 -3.91647e-21)
(0.00813118 -0.115229 1.80219e-21)
(0.00890494 -0.109041 5.23144e-21)
(0.00983429 -0.103199 5.03791e-22)
(0.0108886 -0.0976573 -5.27337e-21)
(0.0120389 -0.0923782 3.07893e-21)
(0.0132551 -0.0873305 3.8224e-22)
(0.0145085 -0.0824847 -1.15404e-21)
(0.0157945 -0.0778135 4.46076e-21)
(0.0171415 -0.0732872 1.76145e-21)
(0.0183635 -0.0689056 -1.84817e-21)
(0.0810862 -0.470332 1.93719e-21)
(0.0730599 -0.430358 1.16221e-22)
(0.0654518 -0.394342 -3.36918e-21)
(0.0582262 -0.361956 7.26772e-22)
(0.0514713 -0.332859 -1.1737e-21)
(0.0452781 -0.306726 7.82621e-22)
(0.0396923 -0.283256 1.99332e-21)
(0.0347324 -0.262172 4.05112e-21)
(0.0304005 -0.243222 -4.72264e-21)
(0.0266852 -0.226175 1.15878e-21)
(0.0235661 -0.210819 -1.00116e-21)
(0.021016 -0.196964 7.5658e-22)
(0.0190033 -0.184437 -3.39522e-21)
(0.0174932 -0.173082 -3.24147e-22)
(0.0164492 -0.162758 6.28973e-21)
(0.0158335 -0.153336 -4.39771e-21)
(0.0156081 -0.144703 -3.06911e-21)
(0.0157347 -0.136754 -2.48428e-21)
(0.0161754 -0.129399 4.44106e-21)
(0.0168928 -0.122553 1.07209e-21)
(0.01785 -0.116144 -4.99171e-21)
(0.0190113 -0.110107 7.03609e-21)
(0.0203416 -0.104387 -6.59159e-21)
(0.0218075 -0.0989357 4.6441e-21)
(0.0233765 -0.0937152 -2.72318e-21)
(0.0250155 -0.0886928 1.88836e-21)
(0.0266919 -0.0838412 1.57736e-21)
(0.028401 -0.0791324 -7.01158e-21)
(0.0301777 -0.0745336 3.07997e-21)
(0.0318063 -0.0700537 6.73812e-23)
(0.0932803 -0.467667 -1.90952e-21)
(0.0841468 -0.42737 1.63571e-21)
(0.0756241 -0.391191 -3.61537e-21)
(0.0676533 -0.358773 7.17062e-21)
(0.0603044 -0.329749 -2.13725e-21)
(0.0536527 -0.303769 3.40749e-21)
(0.0477289 -0.280512 5.35363e-23)
(0.0425385 -0.259687 -4.52339e-22)
(0.0380713 -0.241027 -8.52422e-22)
(0.0343053 -0.22429 -5.39622e-23)
(0.0312105 -0.209257 -3.70284e-21)
(0.0287514 -0.195731 1.95577e-21)
(0.0268885 -0.183533 -2.64053e-21)
(0.0255807 -0.172501 -1.82619e-22)
(0.0247854 -0.16249 -8.31483e-21)
(0.0244596 -0.153369 2.74414e-21)
(0.0245603 -0.145019 1.80967e-21)
(0.0250449 -0.137334 -2.0641e-21)
(0.0258715 -0.13022 -2.34388e-22)
(0.0269988 -0.12359 -3.55155e-21)
(0.0283863 -0.11737 -1.3442e-21)
(0.0299947 -0.111492 1.96503e-22)
(0.0317855 -0.105899 -3.62206e-21)
(0.0337218 -0.100542 -5.82656e-21)
(0.0357679 -0.0953795 2.01696e-22)
(0.0378866 -0.0903804 -7.55756e-22)
(0.0400417 -0.0855167 2.13631e-21)
(0.0422283 -0.0807603 -5.52612e-21)
(0.0444881 -0.0760743 4.93248e-21)
(0.0465728 -0.0714784 -1.12237e-20)
(0.105396 -0.464706 -4.64265e-21)
(0.0951486 -0.42416 6.41613e-21)
(0.0857195 -0.387883 -7.43828e-21)
(0.0770236 -0.355493 -2.24409e-21)
(0.0691103 -0.326595 -1.58668e-21)
(0.0620372 -0.300815 -1.84703e-21)
(0.0558186 -0.277813 -1.72608e-21)
(0.0504453 -0.257282 -3.06091e-22)
(0.0458939 -0.238944 -1.93199e-21)
(0.042131 -0.222547 -4.4341e-22)
(0.0391162 -0.207863 3.98492e-21)
(0.0368049 -0.194689 -2.08184e-21)
(0.0351499 -0.18284 -2.81384e-21)
(0.034103 -0.17215 -5.29015e-21)
(0.0336154 -0.16247 1.15721e-20)
(0.0336387 -0.153664 -4.68089e-21)
(0.0341249 -0.145612 1.85431e-21)
(0.0350271 -0.138204 -7.49189e-21)
(0.0362992 -0.131343 2.92997e-21)
(0.0378959 -0.12494 -1.35145e-21)
(0.0397732 -0.118918 1.64443e-21)
(0.041888 -0.113208 -6.2882e-22)
(0.0441984 -0.107748 6.07756e-21)
(0.0466638 -0.102488 -2.22968e-21)
(0.0492449 -0.0973857 6.67604e-21)
(0.0519004 -0.0924071 -1.66698e-21)
(0.0545895 -0.0875256 9.30809e-21)
(0.0573074 -0.0827107 2.91559e-21)
(0.0601031 -0.0779222 5.64927e-21)
(0.0626921 -0.0731912 -1.95448e-20)
(0.117428 -0.461455 7.30838e-21)
(0.106065 -0.420736 -1.50946e-21)
(0.095743 -0.384432 3.29146e-21)
(0.0863469 -0.352131 -1.00178e-21)
(0.0779032 -0.323413 3.63921e-21)
(0.0704499 -0.297881 3.78325e-21)
(0.0639833 -0.275176 4.58885e-21)
(0.0584779 -0.254976 -4.44795e-22)
(0.0538962 -0.236992 -5.14772e-21)
(0.0501924 -0.220962 7.71192e-21)
(0.0473152 -0.206652 -8.26583e-22)
(0.0452104 -0.193851 6.14599e-21)
(0.0438225 -0.18237 2.41067e-21)
(0.043096 -0.172039 8.47631e-22)
(0.0429758 -0.162705 1.47017e-21)
(0.0434078 -0.154229 2.21784e-21)
(0.0443393 -0.146488 4.03965e-21)
(0.0457186 -0.13937 -1.30592e-21)
(0.0474954 -0.132774 6.69756e-21)
(0.0496209 -0.126609 3.37717e-21)
(0.0520471 -0.120796 -7.21029e-21)
(0.0547273 -0.115261 1.35746e-20)
(0.0576158 -0.109942 -1.87911e-20)
(0.0606684 -0.104784 1.85987e-20)
(0.0638418 -0.0997434 -6.40675e-21)
(0.0670906 -0.0947832 1.17075e-21)
(0.0703687 -0.0898777 -9.44904e-21)
(0.0736713 -0.0849944 5.36489e-21)
(0.0770551 -0.0800865 2.08579e-21)
(0.0801953 -0.0752005 -2.89169e-21)
(0.12937 -0.457918 -4.16342e-21)
(0.116896 -0.417108 4.83671e-21)
(0.105701 -0.380848 -1.37584e-21)
(0.0956348 -0.348702 4.26827e-21)
(0.0866997 -0.32022 4.48201e-22)
(0.0789117 -0.294983 1.22453e-21)
(0.0722475 -0.272617 -9.03997e-21)
(0.0666643 -0.252784 -1.77024e-21)
(0.0621092 -0.235185 6.68443e-21)
(0.0585231 -0.219549 5.61976e-21)
(0.0558431 -0.205635 -9.95684e-21)
(0.0540051 -0.193227 6.19633e-21)
(0.0529449 -0.182131 -6.44349e-21)
(0.0525993 -0.172175 4.87524e-21)
(0.0529068 -0.163201 -8.54007e-21)
(0.0538077 -0.155068 -6.86672e-21)
(0.055244 -0.147651 2.16612e-22)
(0.0571598 -0.140834 -3.63873e-21)
(0.0595006 -0.134514 6.29897e-21)
(0.0622136 -0.128597 2.74167e-21)
(0.0652472 -0.123002 -1.79095e-21)
(0.068551 -0.117651 -5.15466e-22)
(0.0720755 -0.11248 2.59807e-21)
(0.0757728 -0.107431 -8.62362e-21)
(0.0795954 -0.102455 1.50084e-20)
(0.083493 -0.0975135 -3.62618e-21)
(0.0874146 -0.0925791 -4.63153e-22)
(0.0913545 -0.0876175 1.50876e-20)
(0.0953777 -0.0825736 2.39506e-21)
(0.0991155 -0.0775121 -2.41605e-21)
(0.141218 -0.4541 2.03611e-22)
(0.127644 -0.413285 -2.47872e-21)
(0.1156 -0.377145 -2.55181e-21)
(0.104901 -0.345218 -4.62357e-21)
(0.0955181 -0.317029 1.84327e-22)
(0.0874457 -0.292137 -4.00324e-21)
(0.0806387 -0.270151 4.79939e-21)
(0.0750354 -0.25072 -4.85332e-22)
(0.0705669 -0.233534 4.75069e-21)
(0.0671598 -0.218317 -3.7785e-21)
(0.0647391 -0.204819 -2.14239e-21)
(0.06323 -0.192822 1.25802e-21)
(0.0625593 -0.182127 7.29793e-22)
(0.0626562 -0.172557 -8.12511e-21)
(0.0634524 -0.163955 4.89662e-21)
(0.0648824 -0.156177 -2.7351e-21)
(0.0668833 -0.149093 7.80722e-21)
(0.0693945 -0.142588 -2.76164e-21)
(0.0723578 -0.136554 2.94248e-21)
(0.0757165 -0.130896 8.19708e-22)
(0.0794152 -0.125528 5.76249e-21)
(0.0834 -0.120371 -1.12721e-21)
(0.0876177 -0.115357 1.04827e-20)
(0.0920161 -0.110423 -1.19341e-20)
(0.0965439 -0.105516 -4.37614e-21)
(0.101145 -0.100596 3.72135e-21)
(0.105764 -0.0956297 -2.23675e-22)
(0.110393 -0.0905812 -7.13588e-21)
(0.115106 -0.0853859 5.93076e-21)
(0.119486 -0.0801279 -8.03446e-21)
(0.152966 -0.450007 7.13675e-21)
(0.13831 -0.409276 2.15602e-21)
(0.125451 -0.373335 2.8501e-21)
(0.114159 -0.341693 4.23591e-21)
(0.104379 -0.313855 6.81638e-21)
(0.0960775 -0.289356 -2.3154e-22)
(0.0891867 -0.267789 1.01881e-21)
(0.0836252 -0.248794 9.3792e-21)
(0.0793066 -0.232049 -1.9159e-21)
(0.0761427 -0.217272 -3.96851e-21)
(0.0740454 -0.204209 7.3659e-21)
(0.0729292 -0.192637 1.43641e-21)
(0.0727114 -0.182354 1.68408e-23)
(0.0733132 -0.173183 1.98534e-21)
(0.0746596 -0.164961 3.95591e-21)
(0.0766791 -0.157546 -8.74734e-21)
(0.079304 -0.150804 7.6701e-21)
(0.0824693 -0.144618 1.36953e-21)
(0.0861128 -0.138879 8.55305e-21)
(0.0901742 -0.133489 -4.73824e-21)
(0.0945948 -0.128358 8.40635e-21)
(0.0993168 -0.123405 -9.37448e-21)
(0.104283 -0.118556 9.44924e-21)
(0.109439 -0.113745 1.61286e-21)
(0.114726 -0.108915 -6.85715e-21)
(0.120086 -0.104019 -2.5432e-21)
(0.125454 -0.0990229 1.4646e-20)
(0.130824 -0.0938813 1.1016e-20)
(0.136276 -0.0885207 3.04635e-21)
(0.141343 -0.0830467 -2.73128e-21)
(0.16461 -0.445643 7.43793e-22)
(0.148899 -0.405091 2.02317e-21)
(0.135262 -0.369426 8.89542e-21)
(0.123428 -0.338139 -1.50521e-20)
(0.113305 -0.310708 -1.68687e-21)
(0.104835 -0.28665 -1.84461e-21)
(0.0979242 -0.265542 8.11686e-22)
(0.0924702 -0.247013 1.25787e-21)
(0.0883684 -0.230735 2.31483e-21)
(0.0855146 -0.216418 -6.5153e-21)
(0.0838075 -0.203805 -1.56053e-21)
(0.0831501 -0.192669 3.97532e-21)
(0.0834499 -0.182807 4.80612e-21)
(0.0846201 -0.17404 -4.8161e-21)
(0.0865785 -0.166206 -5.40613e-21)
(0.0892482 -0.159157 8.49534e-21)
(0.0925561 -0.152763 6.08905e-21)
(0.0964333 -0.146903 -1.46511e-21)
(0.100814 -0.141466 -4.24553e-21)
(0.105633 -0.136352 8.44402e-22)
(0.110831 -0.131467 -1.10891e-20)
(0.116345 -0.126727 1.38429e-20)
(0.122115 -0.122053 -9.87307e-21)
(0.128081 -0.117376 -5.76067e-22)
(0.134182 -0.112632 7.04109e-21)
(0.140352 -0.107767 -2.34297e-21)
(0.146522 -0.102744 -7.54088e-21)
(0.152682 -0.0975068 9.42959e-21)
(0.158921 -0.0919696 -3.10011e-22)
(0.164717 -0.086263 1.99559e-21)
(0.176145 -0.441013 -4.93765e-22)
(0.159413 -0.400736 -2.02895e-21)
(0.145046 -0.365431 -1.02629e-20)
(0.132724 -0.334567 3.74868e-21)
(0.122322 -0.3076 -1.32733e-21)
(0.113748 -0.284028 4.32421e-21)
(0.106886 -0.263416 3.16772e-22)
(0.10161 -0.245383 -5.97885e-21)
(0.0977949 -0.229594 9.43661e-21)
(0.0953213 -0.215753 -8.94537e-21)
(0.0940737 -0.203601 -5.01858e-22)
(0.0939428 -0.192909 2.46481e-21)
(0.0948266 -0.183474 -4.47495e-21)
(0.0966294 -0.175115 5.49646e-21)
(0.0992623 -0.167668 -1.09079e-20)
(0.102642 -0.160989 -2.85167e-21)
(0.106692 -0.154944 7.06659e-21)
(0.111338 -0.149412 -1.95724e-22)
(0.11651 -0.144281 -5.40707e-21)
(0.122142 -0.139448 1.47168e-20)
(0.128169 -0.134817 -7.91297e-21)
(0.134528 -0.1303 -1.15273e-20)
(0.141153 -0.125813 4.0668e-21)
(0.147981 -0.121281 -1.2402e-20)
(0.154948 -0.116634 -3.29314e-21)
(0.16198 -0.111812 -5.80291e-22)
(0.169001 -0.106768 -9.41797e-21)
(0.176001 -0.101439 1.12504e-20)
(0.183075 -0.0957181 -6.68562e-21)
(0.189641 -0.0897659 8.63936e-21)
(0.18757 -0.436124 -2.51493e-21)
(0.169858 -0.396221 -8.20066e-21)
(0.154816 -0.361358 4.47374e-21)
(0.142069 -0.330985 -4.51801e-21)
(0.131454 -0.304538 -3.6653e-21)
(0.12285 -0.281499 -2.35551e-21)
(0.11611 -0.261418 -8.75293e-21)
(0.111085 -0.243907 6.19972e-21)
(0.107631 -0.228625 -1.6344e-20)
(0.105611 -0.215273 -6.57565e-21)
(0.104895 -0.203591 2.15234e-21)
(0.10536 -0.193346 4.13852e-21)
(0.106895 -0.184338 9.67596e-23)
(0.109396 -0.176384 -8.92603e-21)
(0.112766 -0.169323 2.13601e-21)
(0.116917 -0.163009 -9.18087e-21)
(0.121766 -0.15731 -7.09158e-21)
(0.127235 -0.152105 -4.67012e-21)
(0.133253 -0.147281 -1.27399e-21)
(0.139749 -0.142733 7.84072e-21)
(0.146657 -0.138363 1.21227e-20)
(0.153909 -0.134077 -3.81412e-21)
(0.161439 -0.129789 -3.93215e-21)
(0.169179 -0.125415 7.75015e-21)
(0.17706 -0.120879 4.59338e-21)
(0.185003 -0.116114 -3.6471e-21)
(0.192925 -0.111063 -4.35793e-21)
(0.200811 -0.10565 3.93032e-22)
(0.208766 -0.0997448 5.02811e-21)
(0.216143 -0.0935389 7.63429e-21)
(0.198879 -0.43098 -6.4096e-22)
(0.180241 -0.391553 1.06091e-20)
(0.164586 -0.357215 9.01841e-21)
(0.151485 -0.327403 7.54865e-21)
(0.140732 -0.301532 -5.05792e-21)
(0.132173 -0.279067 -1.07416e-21)
(0.125634 -0.25955 9.31006e-22)
(0.120939 -0.242585 7.94596e-21)
(0.117925 -0.227825 3.2027e-21)
(0.116434 -0.214972 8.19311e-21)
(0.116323 -0.203761 -1.19981e-20)
(0.117457 -0.193963 1.14072e-21)
(0.119713 -0.185377 5.3538e-21)
(0.122978 -0.177821 3.55227e-21)
(0.127148 -0.171137 8.02395e-21)
(0.132129 -0.165181 -5.30646e-21)
(0.137833 -0.15982 -5.50779e-21)
(0.14418 -0.154936 8.84679e-22)
(0.151094 -0.150415 1.27891e-20)
(0.158504 -0.146151 -2.14362e-20)
(0.166339 -0.142044 7.59573e-21)
(0.17453 -0.137998 -1.21953e-22)
(0.18301 -0.13392 1.61935e-20)
(0.191707 -0.129719 -7.04019e-21)
(0.200549 -0.125313 -2.41609e-22)
(0.20945 -0.120623 -4.9882e-21)
(0.218318 -0.115584 4.82709e-21)
(0.227137 -0.1101 1.23592e-21)
(0.236017 -0.104019 -6.11768e-21)
(0.244244 -0.0975589 2.26813e-20)
(0.210071 -0.425586 -1.00832e-20)
(0.190568 -0.386739 -6.54453e-21)
(0.174372 -0.353011 -1.80938e-20)
(0.160993 -0.323827 -9.00484e-21)
(0.150184 -0.298585 8.67595e-21)
(0.141755 -0.276736 -5.63255e-21)
(0.135499 -0.257812 -1.58849e-21)
(0.131218 -0.241412 -4.24217e-21)
(0.128724 -0.227188 7.27411e-21)
(0.127843 -0.214837 -1.76869e-21)
(0.128414 -0.204097 -2.87396e-21)
(0.13029 -0.19474 -4.11246e-22)
(0.133337 -0.186565 -1.37623e-20)
(0.137432 -0.179395 -1.03208e-21)
(0.142465 -0.173074 3.65799e-21)
(0.148336 -0.167459 -4.87141e-22)
(0.154952 -0.162423 -1.69764e-20)
(0.162228 -0.157847 1.71595e-20)
(0.170087 -0.153619 -1.77425e-20)
(0.178454 -0.149634 7.12426e-21)
(0.18726 -0.145791 1.0318e-21)
(0.196433 -0.141989 4.51572e-22)
(0.205903 -0.138131 -8.55283e-21)
(0.215598 -0.134121 3.07898e-21)
(0.225442 -0.129864 7.02969e-23)
(0.235343 -0.125274 1.13003e-21)
(0.245201 -0.120271 -2.55457e-20)
(0.254995 -0.114741 6.6419e-21)
(0.264844 -0.108498 7.76158e-21)
(0.273958 -0.101794 1.04819e-20)
(0.221143 -0.419949 1.9966e-20)
(0.200847 -0.381786 8.03257e-21)
(0.18419 -0.348753 4.9499e-21)
(0.17062 -0.320263 8.08654e-21)
(0.159843 -0.295701 -1.14251e-21)
(0.151631 -0.274506 6.97383e-21)
(0.145749 -0.256203 1.64935e-20)
(0.141968 -0.240385 -2.05081e-21)
(0.140079 -0.226703 1.09482e-21)
(0.139889 -0.214855 2.3092e-20)
(0.141222 -0.20458 -2.92842e-21)
(0.143915 -0.195652 3.53494e-21)
(0.147825 -0.187873 -1.54137e-21)
(0.152819 -0.181071 -5.78069e-22)
(0.158779 -0.175091 2.10947e-20)
(0.165598 -0.169797 8.19514e-22)
(0.173179 -0.165063 2.48831e-20)
(0.181434 -0.160775 -2.99993e-21)
(0.190283 -0.156823 -5.9319e-21)
(0.19965 -0.153105 1.41958e-20)
(0.209464 -0.149519 -1.37817e-20)
(0.219654 -0.145962 1.54225e-20)
(0.230149 -0.142334 8.72869e-21)
(0.240877 -0.13853 -7.5625e-21)
(0.251757 -0.134447 1.14774e-20)
(0.262696 -0.129985 1.35042e-21)
(0.273582 -0.125052 -5.5249e-21)
(0.284394 -0.119508 2.45028e-21)
(0.295253 -0.113131 1.99905e-20)
(0.305292 -0.106203 3.4129e-21)
(0.232093 -0.414072 -3.42554e-21)
(0.211086 -0.3767 -7.88727e-21)
(0.194059 -0.344445 3.58109e-21)
(0.180391 -0.316715 -1.46e-20)
(0.16974 -0.292884 7.48921e-21)
(0.161841 -0.272378 -1.43935e-20)
(0.156424 -0.254718 -1.02624e-20)
(0.153234 -0.239496 2.89278e-21)
(0.15204 -0.22636 3.44637e-21)
(0.152626 -0.215011 -1.55314e-20)
(0.154802 -0.20519 -7.20751e-21)
(0.158391 -0.196674 3.61818e-21)
(0.163236 -0.18927 -9.94552e-21)
(0.169198 -0.182809 -4.23124e-21)
(0.176148 -0.177142 -3.03758e-21)
(0.183973 -0.172138 -3.13626e-21)
(0.192572 -0.167677 -1.38481e-20)
(0.201854 -0.163648 -9.30743e-21)
(0.211735 -0.159948 1.37298e-21)
(0.222138 -0.156476 3.12561e-21)
(0.232993 -0.153132 3.68685e-21)
(0.244229 -0.149815 -1.26789e-20)
(0.255777 -0.14642 4.99852e-21)
(0.267563 -0.142839 -1.0633e-20)
(0.279508 -0.138955 1.05747e-20)
(0.291513 -0.134658 -1.40121e-20)
(0.303463 -0.129835 4.81699e-21)
(0.315328 -0.124322 -7.21765e-21)
(0.327235 -0.117851 -1.0869e-20)
(0.338238 -0.110736 -1.29855e-21)
(0.242919 -0.407962 -7.30462e-21)
(0.221295 -0.371486 -7.11039e-21)
(0.203996 -0.340092 -7.59412e-21)
(0.190331 -0.313186 -6.20645e-21)
(0.179908 -0.290131 1.91761e-20)
(0.172421 -0.270347 2.98258e-21)
(0.167568 -0.253351 9.15756e-21)
(0.165065 -0.238732 1.48632e-20)
(0.164655 -0.226143 7.76015e-21)
(0.166106 -0.215285 -1.03048e-20)
(0.169208 -0.205902 1.81758e-20)
(0.173772 -0.197777 -1.81019e-20)
(0.179628 -0.19072 1.80703e-20)
(0.186626 -0.184569 2.30797e-21)
(0.19463 -0.17918 5.01921e-21)
(0.20352 -0.174428 1.57643e-21)
(0.21319 -0.1702 2.23301e-20)
(0.223543 -0.166393 -3.37605e-21)
(0.234494 -0.162907 3.22844e-21)
(0.245967 -0.159649 1.1506e-20)
(0.257889 -0.156523 -1.30771e-20)
(0.270193 -0.153431 1.09726e-20)
(0.282811 -0.150267 5.0096e-22)
(0.295672 -0.146918 5.32219e-21)
(0.308699 -0.143259 1.01325e-20)
(0.321792 -0.139165 -1.77263e-21)
(0.334829 -0.134506 1.07252e-20)
(0.347779 -0.129081 1.62551e-20)
(0.360771 -0.122574 -1.76314e-20)
(0.372772 -0.115327 -1.27128e-20)
(0.25362 -0.401623 2.20631e-20)
(0.231484 -0.36615 -2.56491e-21)
(0.214021 -0.335697 5.81512e-21)
(0.200468 -0.309675 1.15028e-20)
(0.19038 -0.287441 -3.47186e-20)
(0.183411 -0.268408 3.93413e-21)
(0.179223 -0.252091 -1.48255e-20)
(0.177505 -0.238083 1.56908e-20)
(0.177974 -0.226036 -1.2831e-20)
(0.180379 -0.215656 7.73792e-21)
(0.184493 -0.206692 -2.8278e-20)
(0.190112 -0.19893 3.70011e-22)
(0.197054 -0.192188 -1.07393e-20)
(0.205159 -0.186309 1.62201e-20)
(0.214282 -0.181156 -1.80056e-20)
(0.224295 -0.176611 -1.03919e-21)
(0.235086 -0.172568 -1.6146e-20)
(0.246555 -0.168931 -1.49381e-21)
(0.258614 -0.165611 1.54018e-21)
(0.271184 -0.162522 4.23224e-21)
(0.284194 -0.159576 -2.33991e-20)
(0.29758 -0.15668 -8.34896e-22)
(0.311276 -0.153731 -1.40758e-20)
(0.325217 -0.150616 -3.43174e-21)
(0.339331 -0.147204 -9.33577e-21)
(0.35352 -0.143356 -1.06009e-20)
(0.367658 -0.138919 -1.15779e-20)
(0.381716 -0.133658 1.88651e-20)
(0.395824 -0.127193 5.21491e-21)
(0.408861 -0.11989 -1.21832e-20)
(0.264196 -0.39506 -1.47282e-20)
(0.241663 -0.360694 5.90117e-21)
(0.224154 -0.331262 -1.09603e-20)
(0.210829 -0.306182 1.70166e-21)
(0.20119 -0.284808 2.01302e-20)
(0.194848 -0.266551 -1.05407e-20)
(0.191431 -0.250927 -1.20461e-20)
(0.190597 -0.237531 -1.05373e-20)
(0.192042 -0.226018 3.98209e-22)
(0.195493 -0.216101 7.32781e-21)
(0.200705 -0.207532 -5.85683e-21)
(0.20746 -0.200104 -3.02788e-23)
(0.215566 -0.19364 1.96398e-20)
(0.224849 -0.18799 -1.01868e-20)
(0.235155 -0.183024 3.04543e-21)
(0.24635 -0.178631 -9.22468e-21)
(0.258315 -0.174715 3.52853e-21)
(0.270944 -0.171188 8.17595e-21)
(0.284144 -0.167972 9.88544e-21)
(0.297838 -0.164991 -1.10134e-20)
(0.311952 -0.162168 1.6254e-21)
(0.326425 -0.15942 1.02448e-20)
(0.341198 -0.156655 1.85497e-20)
(0.356212 -0.15376 5.2672e-21)
(0.371402 -0.150606 -2.0183e-20)
(0.386677 -0.147041 2.43881e-20)
(0.401918 -0.142895 -1.23544e-20)
(0.417094 -0.137887 -1.53774e-20)
(0.432343 -0.131565 -9.7472e-21)
(0.446451 -0.124313 -1.57031e-20)
(0.274645 -0.388278 8.07749e-21)
(0.251843 -0.355122 -6.97825e-21)
(0.234415 -0.326786 2.58285e-21)
(0.221442 -0.302701 1.5767e-20)
(0.21237 -0.282224 4.55705e-21)
(0.206769 -0.264766 -4.17291e-21)
(0.20423 -0.249843 1.03118e-20)
(0.204383 -0.237057 2.14297e-21)
(0.206901 -0.22607 1.089e-20)
(0.211489 -0.216595 6.2981e-21)
(0.217887 -0.208396 1.64061e-22)
(0.225862 -0.201268 4.38372e-21)
(0.235207 -0.195042 -1.45831e-21)
(0.245739 -0.189574 2.66033e-21)
(0.257296 -0.184741 7.77234e-21)
(0.269733 -0.180441 -4.51263e-21)
(0.282924 -0.176585 1.15902e-20)
(0.296757 -0.173097 1.23492e-20)
(0.311136 -0.169908 -1.46509e-20)
(0.325978 -0.166957 1.52344e-20)
(0.341211 -0.164179 3.41722e-20)
(0.356773 -0.161509 -2.26902e-20)
(0.372611 -0.158866 2.3779e-20)
(0.388676 -0.156154 -1.69613e-20)
(0.404915 -0.153246 -2.53671e-21)
(0.42125 -0.149992 1.96256e-20)
(0.437571 -0.146202 -3.89055e-21)
(0.453861 -0.141551 1.56404e-20)
(0.470268 -0.135502 1.6078e-20)
(0.485481 -0.128439 -3.5669e-20)
(0.284968 -0.381279 -7.9086e-21)
(0.262035 -0.349434 3.7803e-21)
(0.244824 -0.322265 1.80393e-21)
(0.232333 -0.299226 -1.87048e-20)
(0.223951 -0.279678 -1.03976e-20)
(0.219206 -0.263035 8.21891e-21)
(0.217655 -0.248821 -2.4128e-20)
(0.2189 -0.236641 3.05873e-20)
(0.222588 -0.226164 -1.79342e-20)
(0.228406 -0.217113 2.24077e-21)
(0.236076 -0.209254 -3.40089e-21)
(0.245352 -0.202391 -1.2053e-20)
(0.256013 -0.196362 2.55625e-20)
(0.267867 -0.191027 1.04317e-20)
(0.280741 -0.186272 -1.07721e-20)
(0.294481 -0.182 2.6829e-22)
(0.308953 -0.178133 6.64174e-21)
(0.324039 -0.174603 -1.51215e-20)
(0.339636 -0.171353 3.15783e-21)
(0.355655 -0.168334 1.12091e-20)
(0.372022 -0.165502 -4.73199e-21)
(0.388676 -0.162807 8.48125e-21)
(0.405565 -0.160193 -1.69344e-20)
(0.422651 -0.157585 2.53044e-20)
(0.439894 -0.154876 6.38468e-21)
(0.457238 -0.151927 -1.68121e-20)
(0.474592 -0.148545 -1.52959e-20)
(0.491966 -0.144363 -3.1898e-22)
(0.509532 -0.138741 2.1654e-20)
(0.525882 -0.132047 -6.3628e-21)
(0.295163 -0.374069 -2.24313e-21)
(0.272252 -0.34363 -1.75183e-20)
(0.255402 -0.317695 2.14705e-20)
(0.243528 -0.295745 1.54086e-20)
(0.235963 -0.277155 1.64333e-20)
(0.232192 -0.261341 5.0786e-21)
(0.23174 -0.247837 7.62465e-21)
(0.23418 -0.236256 4.1241e-21)
(0.239135 -0.226275 -1.71291e-20)
(0.246274 -0.217624 3.2266e-20)
(0.255301 -0.210077 -2.78836e-20)
(0.265957 -0.203444 -2.25998e-21)
(0.278011 -0.197569 4.14613e-21)
(0.291257 -0.192319 -2.08304e-20)
(0.305513 -0.187586 1.86243e-20)
(0.320619 -0.18328 -5.69351e-21)
(0.33643 -0.179328 -1.55158e-20)
(0.352822 -0.175671 6.43064e-21)
(0.369682 -0.172263 -1.23494e-20)
(0.386917 -0.169068 -1.13963e-20)
(0.404444 -0.166056 -1.27913e-20)
(0.4222 -0.163202 2.97849e-21)
(0.440132 -0.160478 1.99211e-21)
(0.458208 -0.15784 -3.42168e-20)
(0.476402 -0.155221 -1.37057e-20)
(0.494682 -0.152512 8.60503e-21)
(0.512991 -0.149544 1.12818e-20)
(0.531384 -0.145924 -1.58695e-20)
(0.550088 -0.140907 -6.31672e-21)
(0.567605 -0.134805 1.12808e-21)
(0.305233 -0.366648 -1.66202e-21)
(0.282508 -0.337707 1.13237e-20)
(0.266172 -0.313066 -3.28062e-21)
(0.255053 -0.292245 -4.12426e-21)
(0.248432 -0.274633 -2.57133e-20)
(0.245755 -0.259659 -6.19817e-21)
(0.246512 -0.246865 1.18179e-20)
(0.250248 -0.235874 -8.32366e-21)
(0.256566 -0.226372 -1.03604e-21)
(0.265113 -0.218097 -1.71421e-21)
(0.275581 -0.210832 1.06622e-20)
(0.287694 -0.204396 -1.71858e-20)
(0.301211 -0.198635 -1.21371e-20)
(0.315917 -0.193426 1.48784e-20)
(0.331621 -0.188664 -8.89747e-21)
(0.348154 -0.184264 -1.12856e-20)
(0.365365 -0.180159 2.46409e-20)
(0.38312 -0.176294 -3.94811e-21)
(0.401299 -0.172631 1.59097e-20)
(0.4198 -0.169142 -1.47123e-20)
(0.438532 -0.165812 -1.25401e-20)
(0.457423 -0.162636 1.11884e-20)
(0.476414 -0.159615 -1.14304e-21)
(0.495471 -0.156745 -8.88609e-21)
(0.514577 -0.154013 8.06023e-21)
(0.533719 -0.151374 -2.59778e-20)
(0.552881 -0.148724 1.59492e-20)
(0.572189 -0.145701 -2.82773e-22)
(0.591986 -0.14147 -1.75836e-20)
(0.610705 -0.136247 2.86622e-20)
(0.315185 -0.35902 8.22087e-21)
(0.292822 -0.33166 -2.21257e-20)
(0.277155 -0.308364 -2.09186e-21)
(0.266931 -0.288704 1.16469e-20)
(0.261382 -0.27209 -3.20769e-21)
(0.259916 -0.257962 -9.54244e-21)
(0.26199 -0.245873 4.609e-21)
(0.267124 -0.23546 5.69231e-21)
(0.274896 -0.226419 5.30554e-22)
(0.284937 -0.218497 7.61958e-21)
(0.296921 -0.211487 2.56407e-20)
(0.310563 -0.205214 -9.01611e-21)
(0.325611 -0.199533 2.65901e-21)
(0.341839 -0.194325 -7.1072e-21)
(0.359051 -0.18949 2.71511e-20)
(0.37707 -0.184948 -5.16799e-21)
(0.39574 -0.180631 1.75866e-20)
(0.414918 -0.176491 -7.16592e-21)
(0.434481 -0.172488 7.94558e-21)
(0.454316 -0.1686 1.24825e-20)
(0.474323 -0.164817 2.2918e-21)
(0.494419 -0.161144 9.00035e-21)
(0.514534 -0.157603 -7.72514e-21)
(0.534618 -0.154229 2.18037e-20)
(0.55465 -0.151064 -9.13798e-21)
(0.574623 -0.14816 3.44367e-20)
(0.594548 -0.145543 -9.99214e-21)
(0.61464 -0.142985 7.06615e-21)
(0.635454 -0.139637 -1.36257e-20)
(0.65545 -0.135582 2.72733e-20)
(0.325051 -0.351191 -1.77993e-20)
(0.303224 -0.325478 6.15486e-22)
(0.288374 -0.303567 -1.25804e-20)
(0.27918 -0.285096 2.38968e-21)
(0.274829 -0.269495 7.21616e-22)
(0.274691 -0.256216 -1.28177e-20)
(0.27819 -0.244828 -2.5212e-20)
(0.284819 -0.234978 1.31093e-20)
(0.294133 -0.226377 -1.91483e-20)
(0.305746 -0.218785 -1.07453e-20)
(0.319319 -0.212002 -6.47644e-21)
(0.334554 -0.205863 -5.53165e-21)
(0.351189 -0.200232 2.94808e-22)
(0.368994 -0.194994 -2.07183e-20)
(0.387765 -0.190054 1.46803e-20)
(0.407321 -0.185334 -2.43283e-20)
(0.427501 -0.180769 -6.51314e-21)
(0.448162 -0.176308 7.22595e-21)
(0.469175 -0.171911 9.44129e-21)
(0.490424 -0.16755 9.87111e-21)
(0.511805 -0.16321 7.86421e-21)
(0.533222 -0.158891 -2.01161e-20)
(0.554593 -0.154613 2.09097e-20)