/*--------------------------------*- C++ -*----------------------------------*\
  =========                 |
  \\      /  F ield         | OpenFOAM: The Open Source CFD Toolbox
   \\    /   O peration     | Website:  https://openfoam.org
    \\  /    A nd           | Version:  6.0
     \\/     M anipulation  |
\*---------------------------------------------------------------------------*/
FoamFile
{
    version     2.0;
    format      ascii;
    class       surfaceScalarField;
    location    "3.5";
    object      phi;
}
// * * * * * * * * * * * * * * * * * * * * * * * * * * * * * * * * * * * * * //

dimensions      [0 3 -1 0 0 0 0];

internalField   nonuniform List<scalar> 
38030
(
1.65772e-05
-0.080511
0.0804944
9.41572e-05
-0.0758718
0.0757942
0.000225004
-0.0719808
0.0718499
0.000402806
-0.0686948
0.068517
0.000622133
-0.0658939
0.0656746
0.000877423
-0.0634784
0.0632231
0.00116314
-0.0613673
0.0610816
0.00147395
-0.0594959
0.0591851
0.00180487
-0.0578128
0.0574818
0.00215132
-0.0562772
0.0559308
0.00250916
-0.0548576
0.0544998
0.00287478
-0.0535294
0.0531637
0.00324499
-0.0522734
0.0519032
0.00361712
-0.0510754
0.0507032
0.0039889
-0.0499242
0.0495524
0.00435849
-0.0488118
0.0484422
0.00472439
-0.0477318
0.0473659
0.00508545
-0.0466799
0.0463188
0.00544081
-0.0456527
0.0452973
0.00578984
-0.0446476
0.0442986
0.00613211
-0.0436628
0.0433206
0.00646737
-0.042697
0.0423617
0.00679548
-0.041749
0.0414209
0.00711636
-0.040818
0.0404971
0.00743004
-0.0399034
0.0395897
0.00773654
-0.0390044
0.0386979
0.00803586
-0.0381202
0.0378209
0.00832797
-0.03725
0.0369579
0.00861271
-0.0363929
0.0361082
-0.0355479
0.0352708
0.0088898
2.36565e-05
-0.0805347
0.000102697
-0.0759508
0.000234853
-0.0721129
0.000414819
-0.0688747
0.000636906
-0.066116
0.000895277
-0.0637368
0.00118416
-0.0616562
0.00149804
-0.0598098
0.00183179
-0.0581465
0.00218071
-0.0566262
0.00254063
-0.0552176
0.00290786
-0.0538966
0.00327923
-0.0526448
0.00365203
-0.0514482
0.00402403
-0.0502962
0.00439341
-0.0491811
0.00475872
-0.0480971
0.00511885
-0.04704
0.00547298
-0.0460068
0.00582056
-0.0449952
0.00616121
-0.0440035
0.00649475
-0.0430305
0.00682108
-0.0420753
0.00714021
-0.0411372
0.0074522
-0.0402154
0.00775713
-0.0393094
0.00805509
-0.0384182
0.00834609
-0.037541
0.00863002
-0.0366769
-0.0358246
0.00890669
2.63528e-05
-0.080561
0.000108122
-0.0760326
0.000242914
-0.0722477
0.000425827
-0.0690576
0.000651124
-0.0663413
0.00091282
-0.0639985
0.00120499
-0.0619484
0.00152198
-0.0601268
0.00185853
-0.0584831
0.00220989
-0.0569775
0.0025718
-0.0555795
0.00294055
-0.0542653
0.00331295
-0.0530172
0.00368631
-0.0518215
0.00405841
-0.0506683
0.00442745
-0.0495502
0.00479204
-0.0484617
0.00515111
-0.0473991
0.00550391
-0.0463596
0.00584992
-0.0453412
0.00618886
-0.0443424
0.00652059
-0.0433623
0.00684509
-0.0423998
0.00716243
-0.0414545
0.00747271
-0.0405257
0.00777608
-0.0396127
0.00807269
-0.0387148
0.00836261
-0.0378309
0.00864581
-0.0369601
-0.0361009
0.00892212
2.79583e-05
-0.080589
0.000112306
-0.0761169
0.000250041
-0.0723855
0.000436197
-0.0692438
0.000664921
-0.06657
0.000930082
-0.0642637
0.00122561
-0.0622439
0.00154572
-0.0604469
0.00188505
-0.0588224
0.00223877
-0.0573312
0.00260258
-0.0559433
0.00297274
-0.0546355
0.00334605
-0.0533905
0.00371983
-0.0521953
0.00409188
-0.0510404
0.00446045
-0.0499187
0.00482417
-0.0488254
0.00518205
-0.047757
0.00553338
-0.0467109
0.00587771
-0.0456855
0.00621481
-0.0446795
0.00654464
-0.0436921
0.00686724
-0.0427224
0.00718274
-0.04177
0.00749127
-0.0408342
0.00779307
-0.0399145
0.00808833
-0.0390101
0.0083772
-0.0381198
0.0086597
-0.0372426
-0.0363769
0.00893574
2.91669e-05
-0.0806181
0.000115903
-0.0762037
0.000256635
-0.0725262
0.000446147
-0.0694333
0.000678402
-0.0668023
0.000947092
-0.0645323
0.001246
-0.0625428
0.00156921
-0.0607701
0.00191127
-0.0591645
0.00226727
-0.0576872
0.00263287
-0.0563089
0.0030043
-0.0550069
0.00337837
-0.0537646
0.00375241
-0.0525694
0.00412426
-0.0514122
0.0044922
-0.0502867
0.00485491
-0.0491882
0.00521144
-0.0481135
0.00556115
-0.0470606
0.00590367
-0.046028
0.00623883
-0.0450147
0.00656665
-0.0440199
0.00688726
-0.043043
0.00720082
-0.0420835
0.00750757
-0.041141
0.00780776
-0.0402147
0.00810165
-0.0393039
0.00838948
-0.0384076
0.00867132
-0.0375244
-0.0366527
0.00894712
3.01967e-05
-0.0806483
0.000119194
-0.0762927
0.000262908
-0.0726699
0.000455811
-0.0696262
0.000691631
-0.0670381
0.000963865
-0.0648046
0.00126613
-0.0628451
0.00159239
-0.0610964
0.0019371
-0.0595092
0.00229527
-0.0580454
0.00266253
-0.0566761
0.00303509
-0.0553795
0.00340976
-0.0541392
0.0037839
-0.0529435
0.00415537
-0.0517837
0.00452249
-0.0506538
0.00488401
-0.0495497
0.00523903
-0.0484685
0.00558698
-0.0474086
0.00592753
-0.0463686
0.00626061
-0.0453478
0.0065863
-0.0443456
0.00690479
-0.0433615
0.00721633
-0.0423951
0.00752121
-0.0414458
0.00781974
-0.0405132
0.00811227
-0.0395965
0.00839904
-0.0386944
0.00868023
-0.0378056
-0.0369283
0.00895584
3.11417e-05
-0.0806795
0.000122317
-0.0763838
0.00026898
-0.0728166
0.000465269
-0.0698225
0.00070465
-0.0672775
0.000980408
-0.0650803
0.00128599
-0.0631507
0.00161523
-0.0614256
0.00196248
-0.0598564
0.00232269
-0.0584056
0.00269146
-0.0570449
0.00306498
-0.055753
0.00344007
-0.0545143
0.00381411
-0.0533175
0.00418501
-0.0521546
0.00455113
-0.0510199
0.00491126
-0.0499098
0.00526458
-0.0488219
0.00561057
-0.0477546
0.00594899
-0.046707
0.00627981
-0.0456786
0.0066032
-0.044669
0.00691943
-0.0436778
0.00722883
-0.0427045
0.00753176
-0.0417488
0.0078286
-0.0408101
0.0081197
-0.0398876
0.00840542
-0.0389801
0.00868596
-0.0380861
-0.0372038
0.00896139
3.20416e-05
-0.0807115
0.000125341
-0.0764771
0.00027492
-0.0729661
0.000474569
-0.0700222
0.00071748
-0.0675204
0.000996715
-0.0653596
0.00130554
-0.0634595
0.00163766
-0.0617577
0.00198732
-0.0602061
0.00234943
-0.0587677
0.00271953
-0.057415
0.00309382
-0.0561273
0.00346913
-0.0548897
0.00384287
-0.0536913
0.00421298
-0.0525247
0.00457788
-0.0513848
0.00493642
-0.0502684
0.00528784
-0.0491733
0.00563167
-0.0480984
0.00596774
-0.0470431
0.00629612
-0.046007
0.00661703
-0.0449899
0.00693084
-0.0439916
0.00723798
-0.0430116
0.00753886
-0.0420497
0.00783391
-0.0411051
0.00812355
-0.0401772
0.00840815
-0.0392647
0.00868802
-0.038366
-0.037479
0.00896328
3.29187e-05
-0.0807444
0.000128304
-0.0765725
0.000280763
-0.0731186
0.000483738
-0.0702251
0.000730132
-0.0677668
0.00101278
-0.0656422
0.00132475
-0.0637715
0.00165963
-0.0620926
0.00201156
-0.060558
0.00237538
-0.0591315
0.00274662
-0.0577862
0.00312147
-0.0565022
0.00349679
-0.055265
0.00387
-0.0540645
0.00423909
-0.0528938
0.00460255
-0.0517483
0.00495927
-0.0506251
0.00530855
-0.0495225
0.00565
-0.0484398
0.00598353
-0.0473766
0.00630927
-0.0463327
0.00662751
-0.0453082
0.00693874
-0.0443028
0.00724344
-0.0433163
0.00754213
-0.0423484
0.00783527
-0.0413983
0.00812336
-0.0404653
0.00840678
-0.0395481
0.00868594
-0.0386452
-0.0377541
0.00896101
3.37809e-05
-0.0807782
0.000131226
-0.07667
0.00028653
-0.0732739
0.000492787
-0.0704314
0.000742604
-0.0680166
0.00102857
-0.0659282
0.00134359
-0.0640865
0.00168108
-0.0624301
0.00203511
-0.060912
0.00240046
-0.0594969
0.00277263
-0.0581584
0.00314781
-0.0568773
0.00352289
-0.05564
0.00389532
-0.0544369
0.00426315
-0.0532616
0.00462491
-0.05211
0.00497956
-0.0509797
0.00532647
-0.0498695
0.00566532
-0.0487787
0.00599608
-0.0477074
0.00631895
-0.0466556
0.00663434
-0.0456235
0.00694276
-0.0446112
0.00724481
-0.0436184
0.00754112
-0.0426447
0.00783223
-0.0416894
0.00811862
-0.0407517
0.00840082
-0.0398304
0.0086792
-0.0389236
-0.0380289
0.00895404
3.4634e-05
-0.0808129
0.000134116
-0.0767695
0.000292231
-0.073432
0.000501719
-0.0706409
0.000754889
-0.0682698
0.00104409
-0.0662174
0.00136202
-0.0644044
0.00170197
-0.0627701
0.00205791
-0.061268
0.00242457
-0.0598636
0.00279743
-0.0585313
0.0031727
-0.0572526
0.00354728
-0.0560146
0.00391867
-0.0548083
0.00428497
-0.0536279
0.00464476
-0.0524698
0.00499709
-0.0513321
0.00534136
-0.0502137
0.00567735
-0.0491147
0.00600509
-0.0480351
0.00632486
-0.0469754
0.00663712
-0.0459358
0.0069425
-0.0449166
0.00724169
-0.0439176
0.00753539
-0.0429384
0.00782426
-0.0419782
0.00810885
-0.0410363
0.00838971
-0.0401112
0.00866725
-0.0392011
-0.0383035
0.00894182
3.54807e-05
-0.0808483
0.000136977
-0.076871
0.000297868
-0.0735929
0.000510534
-0.0708535
0.000766977
-0.0685262
0.00105929
-0.0665097
0.00137999
-0.0647251
0.00172222
-0.0631123
0.00207987
-0.0616256
0.00244762
-0.0602313
0.00282093
-0.0589046
0.00319602
-0.0576277
0.00356982
-0.0563884
0.00393989
-0.0551784
0.00430437
-0.0539924
0.00466192
-0.0528274
0.00501162
-0.0516818
0.00535299
-0.0505551
0.00568583
-0.0494475
0.00601027
-0.0483595
0.00632667
-0.0472918
0.00663556
-0.0462447
0.00693765
-0.0452187
0.00723371
-0.0442136
0.00752455
-0.0432292
0.00781095
-0.0422646
0.00809355
-0.0413189
0.00837289
-0.0403906
0.00864952
-0.0394777
-0.0385777
0.00892371
3.63198e-05
-0.0808847
0.000139811
-0.0769744
0.00030344
-0.0737565
0.000519225
-0.0710693
0.000778854
-0.0687859
0.00107417
-0.066805
0.00139748
-0.0650484
0.00174181
-0.0634566
0.00210094
-0.0619848
0.00246952
-0.0605999
0.00284301
-0.059278
0.00321764
-0.0580023
0.00359037
-0.0567611
0.00395881
-0.0555468
0.00432118
-0.0543548
0.00467617
-0.0531824
0.00502296
-0.0520286
0.00536111
-0.0508932
0.00569052
-0.0497769
0.00601137
-0.0486804
0.0063241
-0.0476045
0.00662932
-0.0465499
0.00692782
-0.0455172
0.00722046
-0.0445063
0.00750818
-0.0435169
0.00779182
-0.0425483
0.00807217
-0.0415992
0.00834984
-0.0406682
0.00862536
-0.0397532
-0.0388514
0.00889908
3.71518e-05
-0.0809218
0.000142615
-0.0770799
0.000308945
-0.0739229
0.000527789
-0.0712882
0.000790512
-0.0690486
0.00108869
-0.0671032
0.00141445
-0.0653742
0.00176067
-0.0638028
0.00212105
-0.0623451
0.0024902
-0.060969
0.00286358
-0.0596514
0.00323745
-0.0583762
0.0036088
-0.0571325
0.00397531
-0.0559134
0.00433524
-0.0547147
0.00468737
-0.0535345
0.00503092
-0.0523721
0.00536554
-0.0512279
0.00569119
-0.0501026
0.00600814
-0.0489973
0.00631688
-0.0479132
0.00661812
-0.0468512
0.00691271
-0.0458118
0.00720163
-0.0447952
0.00748589
-0.0438012
0.00776646
-0.0428289
0.00804426
-0.041877
0.00832
-0.040944
0.00859421
-0.0400275
-0.0391246
0.00886738
3.79745e-05
-0.0809598
0.000145387
-0.0771873
0.000314381
-0.0740919
0.000536219
-0.07151
0.00080194
-0.0693143
0.00110285
-0.0674041
0.00143088
-0.0657022
0.00177876
-0.0641507
0.00214014
-0.0627065
0.00250959
-0.0613385
0.00288256
-0.0600244
0.00325535
-0.058749
0.00362501
-0.0575021
0.00398925
-0.0562776
0.00434642
-0.0550719
0.00469534
-0.0538834
0.00503533
-0.0527121
0.00536609
-0.0515586
0.00568765
-0.0504241
0.00600034
-0.04931
0.00630475
-0.0482176
0.00660165
-0.0471481
0.00689199
-0.0461021
0.00717683
-0.04508
0.00745727
-0.0440816
0.00773444
-0.043106
0.00800933
-0.0421519
0.00828284
-0.0412175
0.00855556
-0.0403002
-0.039397
0.00882799
3.8787e-05
-0.0809986
0.000148127
-0.0772967
0.000319746
-0.0742635
0.000544518
-0.0717348
0.000813134
-0.0695829
0.00111663
-0.0677076
0.00144673
-0.0660323
0.00179605
-0.0645
0.00215816
-0.0630686
0.00252761
-0.0617079
0.00289987
-0.0603967
0.00327126
-0.0591204
0.00363888
-0.0578698
0.00400053
-0.0566392
0.00435458
-0.0554259
0.00469996
-0.0542288
0.00503604
-0.0530482
0.00536259
-0.0518852
0.0056797
-0.0507412
0.00598779
-0.0496181
0.00628749
-0.0485173
0.00657968
-0.0474403
0.00686538
-0.0463878
0.00714575
-0.0453604
0.007422
-0.0443579
0.00769537
-0.0433794
0.00796701
-0.0424236
0.00823792
-0.0414884
0.00850882
-0.0405711
-0.0396683
0.00878013
3.95859e-05
-0.0810382
0.000150832
-0.0774079
0.000325045
-0.0744377
0.000552688
-0.0719624
0.000824096
-0.0698543
0.00113002
-0.0680135
0.001462
-0.0663643
0.00181251
-0.0648505
0.00217507
-0.0634312
0.00254422
-0.0620771
0.00291544
-0.0607679
0.00328509
-0.05949
0.00365034
-0.058235
0.00400904
-0.0569979
0.00435964
-0.0557765
0.00470113
-0.0545703
0.00503295
-0.05338
0.00535492
-0.0522071
0.00566723
-0.0510536
0.00597032
-0.0499212
0.00626492
-0.0488119
0.00655198
-0.0477273
0.0068326
-0.0466684
0.00710804
-0.0456358
0.00737964
-0.0446295
0.00764875
-0.0436485
0.00791665
-0.0426915
0.00818446
-0.0417562
0.00845302
-0.0408396
-0.0399381
0.00872284
4.03685e-05
-0.0810785
0.000153503
-0.077521
0.000330283
-0.0746145
0.000560742
-0.0721929
0.000834835
-0.0701284
0.00114303
-0.0683217
0.00147666
-0.0666979
0.00182811
-0.065202
0.00219083
-0.0637939
0.00255936
-0.0624456
0.00292921
-0.0611377
0.00329679
-0.0598576
0.00365932
-0.0585976
0.00401472
-0.0573533
0.00436152
-0.0561233
0.00469876
-0.0549075
0.00502596
-0.0537072
0.00534301
-0.0525242
0.00565013
-0.0513607
0.00594783
-0.0502189
0.00623691
-0.049101
0.00651837
-0.0480088
0.0067934
-0.0469435
0.00706337
-0.0459058
0.00732973
-0.0448958
0.00759397
-0.0439127
0.00785752
-0.042955
0.00812163
-0.0420203
0.00838731
-0.0411053
-0.040206
0.00865519
4.11329e-05
-0.0811197
0.000156145
-0.0776361
0.000335478
-0.0747938
0.000568701
-0.0724261
0.000845371
-0.0704051
0.00115566
-0.068632
0.00149072
-0.067033
0.00184283
-0.0655541
0.00220541
-0.0641565
0.002573
-0.0628132
0.00294114
-0.0615059
0.0033063
-0.0602228
0.00366577
-0.058957
0.00401752
-0.0577051
0.00436017
-0.056466
0.00469282
-0.0552402
0.00501505
-0.0540294
0.00532681
-0.0528359
0.00562837
-0.0516622
0.0059203
-0.0505108
0.00620341
-0.0493841
0.00647879
-0.0482841
0.00674769
-0.0472124
0.00701158
-0.0461697
0.00727203
-0.0451563
0.0075307
-0.0441714
0.00778917
-0.0432135
0.00804891
-0.04228
0.00831109
-0.0413675
-0.0404714
0.00857647
4.18744e-05
-0.0811615
0.000158768
-0.0777529
0.000340658
-0.0749757
0.000576602
-0.072662
0.000855734
-0.0706842
0.00116793
-0.0689442
0.00150418
-0.0673693
0.00185667
-0.0659066
0.00221879
-0.0645186
0.00258511
-0.0631795
0.0029512
-0.061872
0.0033136
-0.0605852
0.00366965
-0.0593131
0.00401742
-0.0580529
0.00435557
-0.0568041
0.0046833
-0.0555679
0.00500023
-0.0543464
0.00530635
-0.0531421
0.005602
-0.0519579
0.00588775
-0.0507966
0.00616448
-0.0496609
0.00643329
-0.0485529
0.0066955
-0.0474746
0.00695266
-0.0464269
0.00720647
-0.0454101
0.00745874
-0.0444237
0.0077113
-0.043466
0.00796582
-0.0425345
0.00822369
-0.0416254
-0.0407336
0.00848585
4.25916e-05
-0.0812041
0.000161395
-0.0778718
0.000345869
-0.0751602
0.000584499
-0.0729007
0.00086597
-0.0709657
0.00117988
-0.0692581
0.00151705
-0.0677064
0.00186961
-0.0662591
0.00223095
-0.06488
0.00259565
-0.0635442
0.00295935
-0.0622357
0.00331865
-0.0609445
0.00367095
-0.0596654
0.0040144
-0.0583963
0.00434774
-0.0571374
0.00467022
-0.0558904
0.00498154
-0.0546577
0.00528172
-0.0534423
0.00557111
-0.0522473
0.00585035
-0.0510758
0.00612029
-0.0499308
0.00638206
-0.0488147
0.00663701
-0.0477295
0.00688675
-0.0466766
0.00713311
-0.0456565
0.00737808
-0.0446687
0.0076237
-0.0437117
0.00787194
-0.0427828
0.00812451
-0.0418779
-0.0409916
0.00838251
4.32868e-05
-0.0812474
0.000164065
-0.0779925
0.000351186
-0.0753473
0.000592469
-0.073142
0.000876138
-0.0712494
0.00119152
-0.0695735
0.00152933
-0.0680442
0.00188164
-0.0666114
0.00224187
-0.0652402
0.00260461
-0.063907
0.00296558
-0.0625966
0.00332143
-0.0613003
0.00366966
-0.0600136
0.00400848
-0.0587351
0.0043367
-0.0574657
0.00465366
-0.0562074
0.00495907
-0.0549631
0.00525303
-0.0537362
0.0055359
-0.0525301
0.00580831
-0.0513482
0.00607112
-0.0501936
0.00632543
-0.049069
0.00657259
-0.0479767
0.00681425
-0.0469183
0.00705231
-0.0458945
0.00728893
-0.0449053
0.00752642
-0.0439492
0.0077671
-0.0430235
0.00801303
-0.0421239
-0.0412442
0.00826563
4.39763e-05
-0.0812914
0.000166858
-0.0781154
0.00035672
-0.0755372
0.000600618
-0.0733859
0.000886314
-0.0715351
0.00120292
-0.0698901
0.00154104
-0.0683824
0.00189277
-0.0669632
0.00225152
-0.065599
0.00261197
-0.0642674
0.00296986
-0.0629545
0.00332195
-0.0616524
0.00366579
-0.0603574
0.00399968
-0.059069
0.00432251
-0.0577885
0.00463368
-0.0565185
0.00493296
-0.0552624
0.00522048
-0.0540237
0.00549662
-0.0528063
0.00576198
-0.0516136
0.00601739
-0.050449
0.00626392
-0.0493155
0.00650285
-0.0482156
0.00673581
-0.0471512
0.00696472
-0.0461234
0.00719187
-0.0451324
0.00741986
-0.0441771
0.00765139
-0.043255
0.007889
-0.0423615
-0.0414897
0.00813457
4.47027e-05
-0.0813361
0.000169911
-0.0782406
0.000362644
-0.0757299
0.000609091
-0.0736323
0.000896589
-0.0718226
0.00121409
-0.0702076
0.00155219
-0.0687204
0.00190296
-0.0673139
0.00225989
-0.0659559
0.00261768
-0.0646252
0.00297217
-0.063309
0.00332016
-0.0620004
0.00365932
-0.0606966
0.00398802
-0.0593977
0.00430522
-0.0581057
0.00461039
-0.0568237
0.00490337
-0.0555554
0.00518429
-0.0543047
0.00545356
-0.0530755
0.00571176
-0.0518718
0.00595965
-0.0506969
0.00619822
-0.0495541
0.00642864
-0.0484461
0.00665241
-0.047375
0.00687142
-0.0463424
0.007088
-0.045349
0.00730495
-0.0443941
0.00752544
-0.0434755
0.00775262
-0.0425887
-0.0417261
0.007989
4.55829e-05
-0.0813817
0.00017347
-0.0783685
0.00036921
-0.0759256
0.000618067
-0.0738812
0.00090706
-0.0721116
0.00122509
-0.0705256
0.00156276
-0.0690581
0.0019122
-0.0676634
0.00226692
-0.0663106
0.00262171
-0.06498
0.00297246
-0.0636598
0.00331606
-0.062344
0.00365025
-0.0610308
0.00397351
-0.059721
0.00428487
-0.0584171
0.00458388
-0.0571227
0.00487042
-0.0558419
0.00514469
-0.0545789
0.00540707
-0.0533379
0.00565812
-0.0521229
0.00589855
-0.0509374
0.00612919
-0.0497847
0.00635107
-0.0486679
0.00656547
-0.0475894
0.00677409
-0.046551
0.00697914
-0.0455541
0.00718352
-0.0445985
0.00739079
-0.0436828
0.00760491
-0.0428028
-0.0419505
0.00782929
4.68753e-05
-0.0814285
0.000177948
-0.0784996
0.000376765
-0.0761244
0.000627753
-0.0741321
0.000917816
-0.0724016
0.00123592
-0.0708437
0.00157272
-0.0693949
0.00192042
-0.0680111
0.00227256
-0.0666628
0.00262399
-0.0653314
0.00297067
-0.0640064
0.00330958
-0.0626829
0.00363855
-0.0613598
0.00395614
-0.0600386
0.00426149
-0.0587224
0.0045542
-0.0574154
0.00483426
-0.0561219
0.00510187
-0.0548465
0.00535745
-0.0535935
0.00560154
-0.0523669
0.00583476
-0.0511706
0.00605781
-0.0500078
0.0062715
-0.0488816
0.00647681
-0.0477947
0.00667506
-0.0467493
0.0068681
-0.0457471
0.00705865
-0.044789
0.00725048
-0.0438746
0.00744841
-0.0430007
-0.0421594
0.00765727
4.90818e-05
-0.0814776
0.000183967
-0.0786345
0.00038573
-0.0763262
0.000638353
-0.0743848
0.00092891
-0.0726922
0.00124655
-0.0711614
0.00158202
-0.0697304
0.00192754
-0.0683566
0.00227672
-0.0670119
0.00262444
-0.0656791
0.00296672
-0.0643487
0.00330065
-0.0630168
0.00362414
-0.0616833
0.00393586
-0.0603503
0.00423504
-0.0590216
0.00452138
-0.0577018
0.00479493
-0.0563955
0.00505597
-0.0551076
0.00530494
-0.0538425
0.00554239
-0.0526044
0.00576889
-0.0513971
0.00598501
-0.0502239
0.00619133
-0.0490879
0.00638849
-0.0479919
0.00657727
-0.0469381
0.00675886
-0.0459287
0.00693527
-0.0449654
0.00710989
-0.0440492
0.00728824
-0.0431791
-0.0423484
0.00747728
5.31355e-05
-0.0815308
0.000192489
-0.0787738
0.000396645
-0.0765304
0.000650051
-0.0746382
0.00094034
-0.0729825
0.0012569
-0.0714779
0.00159053
-0.070064
0.00193346
-0.0686995
0.00227929
-0.0673578
0.00262293
-0.0660228
0.00296051
-0.0646863
0.00328917
-0.0633455
0.00360693
-0.062001
0.00391258
-0.0606559
0.00420544
-0.0593145
0.00448533
-0.0579816
0.00475239
-0.0566625
0.00500697
-0.0553622
0.0052496
-0.0540851
0.00548084
-0.0528356
0.00570127
-0.0516175
0.00591141
-0.0504341
0.00611169
-0.0492882
0.0063024
-0.0481826
0.00648376
-0.0471194
0.00665605
-0.046101
0.00681991
-0.0451293
0.00697712
-0.0442064
0.00713254
-0.0433345
-0.0425128
0.00729693
6.14922e-05
-0.0815923
0.000205505
-0.0789178
0.000410305
-0.0767352
0.000662969
-0.0748908
0.000951979
-0.0732715
0.00126678
-0.0717927
0.00159808
-0.0703953
0.00193799
-0.0690394
0.0022801
-0.0676999
0.00261934
-0.066362
0.00295188
-0.0650189
0.00327498
-0.0636686
0.00358678
-0.0623128
0.00388614
-0.0609553
0.00417254
-0.0596009
0.0044459
-0.058255
0.00470646
-0.0569231
0.0049547
-0.0556104
0.00519123
-0.0543216
0.00541672
-0.0530611
0.00563184
-0.0518326
0.00583716
-0.0506394
0.00603312
-0.0494842
0.0062199
-0.0483693
0.00639735
-0.0472969
0.0065649
-0.0462685
0.00672136
-0.0452857
0.00686477
-0.0443498
0.006996
-0.0434657
-0.0426484
0.00713158
8.19413e-05
-0.0816742
0.000225988
-0.0790619
0.000426977
-0.0769362
0.000676682
-0.0751405
0.000963364
-0.0735582
0.00127583
-0.0721052
0.00160437
-0.0707239
0.00194092
-0.069376
0.00227896
-0.0680379
0.00261347
-0.0666965
0.00294067
-0.0653461
0.00325793
-0.0639858
0.00356348
-0.0626184
0.00385634
-0.0612481
0.0041361
-0.0598806
0.0044028
-0.0585217
0.0046568
-0.0571771
0.00489873
-0.0558523
0.00512931
-0.0545522
0.00534939
-0.0532812
0.00555981
-0.052043
0.00576139
-0.050841
0.00595489
-0.0496777
0.00614094
-0.0485554
0.00631993
-0.0474759
0.00649176
-0.0464404
0.00665484
-0.0454488
0.00680266
-0.0444976
0.00692097
-0.043584
-0.042737
0.00700962
0.0831573
6.45709e-05
-0.0832219
0.0831036
5.37622e-05
0.0830534
5.01449e-05
0.0830043
4.90879e-05
0.0829552
4.91091e-05
0.0829056
4.9626e-05
0.0828553
5.03287e-05
0.0828042
5.10636e-05
0.0827524
5.17677e-05
0.0827
5.24148e-05
0.082647
5.29828e-05
0.0825936
5.3452e-05
0.0825398
5.38189e-05
0.0824857
5.40932e-05
0.0824314
5.4281e-05
0.082377
5.43854e-05
0.0823226
5.44095e-05
0.0822682
5.43553e-05
0.082214
5.42223e-05
0.08216
5.40119e-05
0.0821063
5.37219e-05
0.0820529
5.33484e-05
0.0820001
5.28799e-05
0.0819478
5.23002e-05
0.0818962
5.15722e-05
0.0818456
5.06226e-05
0.0817963
4.92902e-05
0.0817491
4.71996e-05
0.0817059
4.31805e-05
3.16967e-05
0.0827965
0.000170875
-0.0829028
0.0826857
0.000164574
0.0825733
0.000162549
0.0824593
0.000163037
0.0823436
0.000164829
0.0822259
0.000167326
0.0821061
0.000170151
0.0819841
0.000173058
0.08186
0.00017592
0.0817337
0.000178649
0.0816055
0.000181165
0.0814756
0.000183415
0.081344
0.000185374
0.0812111
0.000187048
0.0810769
0.00018844
0.0809417
0.00018955
0.0808058
0.000190383
0.0806692
0.00019094
0.0805322
0.00019122
0.080395
0.000191226
0.0802577
0.000190951
0.0801207
0.000190389
0.0799841
0.000189516
0.0798481
0.000188297
0.079713
0.000186666
0.0795791
0.000184497
0.0794468
0.000181553
0.0793167
0.000177357
0.079189
0.000170825
0.000158849
0.0822504
0.000299483
-0.082379
0.0821125
0.000302529
0.081968
0.000307004
0.0818183
0.000312744
0.0816639
0.000319242
0.0815051
0.000326144
0.0813421
0.000333187
0.0811749
0.000340176
0.0810039
0.000346971
0.0808291
0.00035346
0.0806507
0.000359533
0.080469
0.000365108
0.0802842
0.00037015
0.0800966
0.000374646
0.0799065
0.000378589
0.0797141
0.000381974
0.0795197
0.000384799
0.0793235
0.000387065
0.079126
0.000388772
0.0789273
0.000389918
0.0787277
0.0003905
0.0785276
0.000390505
0.0783272
0.00038991
0.0781268
0.000388675
0.0779268
0.000386729
0.0777273
0.000383952
0.0775287
0.000380138
0.0773312
0.000374934
0.0771343
0.000367686
0.000357002
0.0814781
0.000435525
-0.0816141
0.0813313
0.000449346
0.0811752
0.000463094
0.0810109
0.000477002
0.0808392
0.00049095
0.0806606
0.000504774
0.0804754
0.000518339
0.0802841
0.000531516
0.0800869
0.000544197
0.079884
0.000556286
0.0796759
0.000567658
0.0794628
0.00057823
0.079245
0.000587975
0.0790227
0.000596856
0.0787965
0.000604855
0.0785665
0.000611959
0.0783331
0.000618164
0.0780967
0.000623465
0.0778576
0.000627862
0.0776162
0.000631354
0.0773728
0.000633935
0.0771277
0.000635598
0.0768813
0.000636323
0.0766339
0.000636078
0.0763858
0.000634806
0.0761373
0.000632418
0.0758887
0.000628775
0.07564
0.000623659
0.0753909
0.000616724
0.00060737
0.0804749
0.00056666
-0.080606
0.0803319
0.000592279
0.080178
0.000617051
0.0800138
0.000641211
0.0798399
0.000664769
0.0796571
0.000687655
0.0794656
0.000709805
0.079266
0.000731146
0.0790586
0.000751604
0.0788438
0.000771076
0.0786219
0.000789473
0.0783935
0.000806726
0.0781586
0.000822788
0.0779179
0.000837621
0.0776715
0.000851199
0.07742
0.000863506
0.0771636
0.000874532
0.0769028
0.00088427
0.076638
0.000892718
0.0763694
0.000899875
0.0760976
0.000905738
0.0758229
0.000910302
0.0755457
0.000913559
0.0752663
0.000915487
0.074985
0.000916055
0.0747022
0.000915208
0.0744181
0.000912871
0.0741329
0.000908934
0.0738464
0.000903242
0.000895568
0.0792562
0.000684251
-0.0793738
0.0791258
0.000722611
0.0789832
0.000759665
0.0788289
0.000795571
0.0786633
0.000830353
0.078487
0.00086397
0.0783004
0.000896389
0.0781039
0.000927574
0.0778981
0.000957443
0.0776833
0.000985916
0.0774598
0.00101292
0.0772282
0.00103838
0.0769887
0.00106226
0.0767418
0.00108451
0.0764879
0.00110511
0.0762274
0.00112404
0.0759606
0.00114128
0.075688
0.00115683
0.0754101
0.00117067
0.0751272
0.00118281
0.0748396
0.00119325
0.074548
0.00120199
0.0742525
0.00120902
0.0739536
0.00121435
0.0736517
0.00121797
0.0733471
0.00121985
0.07304
0.00121997
0.0727306
0.0012183
0.072419
0.0012148
0.00120941
0.0778503
0.000782925
-0.077949
0.0777381
0.000834825
0.0776126
0.000885099
0.0774744
0.00093383
0.0773237
0.00098102
0.077161
0.00102663
0.0769868
0.00107061
0.0768014
0.00111296
0.0766053
0.0011536
0.0763988
0.00119241
0.0761824
0.00122934
0.0759564
0.00126433
0.0757213
0.00129734
0.0754775
0.00132831
0.0752254
0.00135723
0.0749654
0.00138406
0.0746979
0.00140878
0.0744234
0.00143139
0.0741421
0.00145187
0.0738547
0.00147023
0.0735615
0.00148647
0.0732629
0.0015006
0.0729593
0.00151261
0.0726511
0.00152253
0.0723387
0.00153036
0.0720225
0.00153612
0.0717026
0.00153981
0.0713795
0.00154146
0.0710532
0.00154109
0.00153873
0.076292
0.000859862
-0.0763689
0.0762009
0.00092591
0.0760959
0.000990083
0.0759773
0.00105241
0.0758455
0.00111286
0.0757007
0.00117136
0.0755435
0.0012279
0.075374
0.0012824
0.0751928
0.0013348
0.0750002
0.001385
0.0747966
0.00143293
0.0745824
0.00147852
0.074358
0.00152174
0.0741238
0.00156253
0.0738802
0.00160086
0.0736276
0.00163669
0.0733664
0.00166999
0.073097
0.00170077
0.0728199
0.00172899
0.0725354
0.00175467
0.0722441
0.0017778
0.0719463
0.00179841
0.0716424
0.00181649
0.0713329
0.00183208
0.071018
0.0018452
0.0706982
0.00185588
0.0703739
0.00186417
0.0700452
0.00187012
0.0697125
0.0018738
0.00187526
0.0746177
0.000914152
-0.074672
0.0745489
0.000994758
0.0744657
0.00107329
0.0743684
0.00114972
0.0742572
0.001224
0.0741325
0.00129605
0.0739946
0.0013658
0.0738439
0.00143316
0.0736806
0.00149808
0.0735052
0.00156042
0.073318
0.00162013
0.0731193
0.00167717
0.0729096
0.00173146
0.0726892
0.00178294
0.0724585
0.00183155
0.0722179
0.00187728
0.0719678
0.00192007
0.0717087
0.00195992
0.0714409
0.00199681
0.0711648
0.00203074
0.0708809
0.00206171
0.0705896
0.00208973
0.0702912
0.00211483
0.0699863
0.00213704
0.0696751
0.00215638
0.069358
0.00217292
0.0690355
0.00218672
0.0687078
0.00219786
0.0683751
0.00220642
0.00221249
0.072863
0.00094626
-0.0728951
0.0728161
0.00104165
0.0727546
0.0011348
0.0726786
0.00122565
0.0725885
0.00131412
0.0724845
0.0014001
0.0723668
0.00148349
0.0722358
0.00156419
0.0720918
0.0016421
0.071935
0.00171713
0.0717659
0.00178924
0.0715848
0.00185832
0.071392
0.00192429
0.0711878
0.0019871
0.0709727
0.00204667
0.070747
0.00210297
0.0705111
0.00215596
0.0702654
0.00220561
0.0700103
0.0022519
0.0697462
0.00229483
0.0694735
0.0023344
0.0691926
0.00237062
0.068904
0.00240351
0.0686079
0.00243312
0.0683048
0.00245948
0.067995
0.00248267
0.067679
0.00250275
0.067357
0.00251983
0.0670294
0.00253401
0.0025454
0.07106
0.000957593
-0.0710714
0.0710338
0.00106785
0.0709929
0.00117572
0.0709374
0.00128111
0.0708676
0.00138393
0.0707837
0.00148404
0.0706859
0.00158131
0.0705745
0.00167561
0.0704497
0.00176685
0.0703119
0.00185495
0.0701613
0.0019398
0.0699983
0.00202131
0.0698232
0.00209939
0.0696364
0.00217397
0.0694381
0.00224497
0.0692287
0.00231234
0.0690086
0.00237603
0.0687782
0.00243601
0.0685379
0.00249226
0.068288
0.00254476
0.0680288
0.00259351
0.0677609
0.00263853
0.0674846
0.00267984
0.0672003
0.00271747
0.0669083
0.00275148
0.066609
0.00278194
0.0663028
0.00280895
0.06599
0.0028326
0.065671
0.00285302
0.00287034
0.0692373
0.000950159
-0.0692299
0.0692299
0.00107524
0.0692078
0.0011978
0.0691712
0.00131774
0.0691202
0.00143491
0.069055
0.0015492
0.0689759
0.00166044
0.068883
0.00176848
0.0687767
0.00187321
0.0686571
0.00197454
0.0685245
0.00207233
0.0683794
0.00216649
0.0682218
0.00225692
0.0680523
0.00234353
0.067871
0.00242625
0.0676783
0.002505
0.0674746
0.00257974
0.0672602
0.00265041
0.0670355
0.002717
0.0668008
0.00277948
0.0665564
0.00283784
0.0663029
0.00289209
0.0660405
0.00294226
0.0657695
0.00298838
0.0654905
0.00303052
0.0652037
0.00306874
0.0649095
0.00310315
0.0646082
0.00313387
0.0643002
0.00316102
0.00318474
0.0674189
0.00092631
-0.067395
0.067428
0.00106608
0.0674226
0.00120322
0.0674027
0.0013376
0.0673686
0.00146905
0.0673204
0.00159745
0.0672582
0.00172263
0.0671822
0.00184441
0.0670928
0.00196264
0.0669901
0.00207721
0.0668745
0.00218799
0.0667461
0.00229487
0.0666053
0.00239775
0.0664523
0.00249652
0.0662874
0.0025911
0.066111
0.0026814
0.0659234
0.00276737
0.0657249
0.00284895
0.0655158
0.00292611
0.0652964
0.00299881
0.0650672
0.00306704
0.0648285
0.00313082
0.0645806
0.00319015
0.0643239
0.00324508
0.0640587
0.00329567
0.0637855
0.00334199
0.0635045
0.00338415
0.0632161
0.00342227
0.0629206
0.0034565
0.00348699
0.0656246
0.000888544
-0.0655868
0.0656478
0.00104282
0.0656567
0.00119435
0.0656513
0.00134299
0.0656318
0.00148858
0.0655983
0.00163093
0.065551
0.00176993
0.0654901
0.00190533
0.0654158
0.00203695
0.0653283
0.00216468
0.0652279
0.00228839
0.0651148
0.00240795
0.0649893
0.00252326
0.0648516
0.00263419
0.0647021
0.00274065
0.0645409
0.00284254
0.0643685
0.0029398
0.0641851
0.00303236
0.063991
0.00312018
0.0637866
0.00320322
0.0635722
0.00328147
0.0633481
0.00335491
0.0631147
0.00342358
0.0628722
0.0034875
0.0626212
0.00354673
0.0623618
0.00360135
0.0620945
0.00365146
0.0618196
0.0036972
0.0615374
0.00373872
0.00377621
0.0638701
0.00083937
-0.0638209
0.063905
0.00100791
0.0639257
0.00117362
0.0639324
0.00133632
0.0639251
0.00149581
0.0639041
0.00165195
0.0638695
0.00180454
0.0638215
0.00195333
0.0637603
0.00209816
0.0636861
0.00223888
0.0635991
0.00237538
0.0634996
0.00250751
0.0633877
0.00263513
0.0632637
0.00275813
0.063128
0.00287638
0.0629807
0.0029898
0.0628222
0.00309831