/*--------------------------------*- C++ -*----------------------------------*\
| =========                 |                                                 |
| \\      /  F ield         | OpenFOAM: The Open Source CFD Toolbox           |
|  \\    /   O peration     | Version:  v1912                                 |
|   \\  /    A nd           | Website:  www.openfoam.com                      |
|    \\/     M anipulation  |                                                 |
\*---------------------------------------------------------------------------*/
FoamFile
{
    version     2.0;
    format      ascii;
    class       surfaceScalarField;
    location    "39";
    object      phi;
}
// * * * * * * * * * * * * * * * * * * * * * * * * * * * * * * * * * * * * * //

dimensions      [0 3 -1 0 0 0 0];
oriented        oriented;


internalField   nonuniform List<scalar> 
18940
(
0.000357167
-0.234382
0.234025
0.00137508
-0.216356
0.215338
0.00287489
-0.204821
0.203321
0.00468649
-0.197032
0.195221
0.00667941
-0.191268
0.189275
0.0087522
-0.186464
0.184391
0.0108313
-0.182032
0.179953
0.0128673
-0.177678
0.175642
0.0148302
-0.173278
0.171315
0.0167048
-0.168803
0.166929
0.0184861
-0.164275
0.162494
0.0201768
-0.159736
0.158045
0.0217838
-0.155233
0.153626
0.0233169
-0.15081
0.149277
0.0247873
-0.146504
0.145033
0.0262067
-0.142338
0.140918
0.0275865
-0.138324
0.136944
0.0289373
-0.134461
0.13311
0.0302674
-0.130729
0.129399
-0.127087
0.125773
0.0315821
0.00038057
-0.234762
0.00141836
-0.217393
0.00292889
-0.206331
0.00474485
-0.198848
0.00673231
-0.193255
0.00878991
-0.188521
0.0108453
-0.184087
0.0128507
-0.179683
0.014778
-0.175205
0.0166136
-0.170639
0.0183544
-0.166016
0.0200042
-0.161386
0.0215709
-0.1568
0.0230651
-0.152305
0.0244984
-0.147937
0.0258826
-0.143722
0.0272297
-0.139671
0.0285502
-0.135782
0.0298533
-0.132032
-0.128379
0.0311448
0.000401978
-0.235164
0.00145599
-0.218447
0.00297525
-0.207851
0.00479182
-0.200665
0.0067702
-0.195234
0.00880895
-0.19056
0.010837
-0.186115
0.0128083
-0.181655
0.0146968
-0.177094
0.0164908
-0.172433
0.0181886
-0.167714
0.0197953
-0.162992
0.02132
-0.158324
0.0227737
-0.153758
0.0241684
-0.149332
0.0255162
-0.14507
0.0268291
-0.140984
0.0281182
-0.137071
0.029393
-0.133307
-0.129646
0.03066
0.000415837
-0.23558
0.00148489
-0.219517
0.00301205
-0.209378
0.00482667
-0.202479
0.00679262
-0.1972
0.00880897
-0.192576
0.0108062
-0.188112
0.0127402
-0.183589
0.014587
-0.17894
0.0163366
-0.174183
0.0179892
-0.169366
0.0195511
-0.164554
0.0210321
-0.159805
0.0224439
-0.15517
0.0237987
-0.150686
0.025109
-0.14638
0.0263867
-0.142262
0.0276434
-0.138328
0.0288888
-0.134552
-0.130888
0.0301306
0.000427096
-0.236007
0.00150842
-0.220598
0.00304063
-0.21091
0.00485007
-0.204289
0.00680003
-0.19915
0.00879043
-0.194567
0.0107534
-0.190075
0.012647
-0.185482
0.0144492
-0.180743
0.0161522
-0.175885
0.0177575
-0.170972
0.0192727
-0.16607
0.0207086
-0.161241
0.0220772
-0.156539
0.023391
-0.152
0.0246627
-0.147652
0.0259042
-0.143503
0.0271274
-0.139551
0.0283427
-0.135767
-0.132104
0.0295586
0.00043618
-0.236443
0.00152697
-0.221689
0.00306125
-0.212444
0.00486222
-0.20609
0.00679273
-0.20108
0.00875372
-0.196528
0.0106791
-0.192001
0.0125293
-0.187332
0.0142843
-0.182498
0.0159383
-0.177539
0.0174944
-0.172528
0.0189613
-0.167536
0.0203506
-0.162631
0.0216747
-0.157863
0.0229465
-0.153272
0.0241785
-0.148884
0.0253829
-0.144708
0.0265716
-0.14074
0.0277559
-0.136952
-0.133293
0.0289452
0.000443657
-0.236887
0.00154124
-0.222786
0.00307448
-0.213977
0.00486364
-0.207879
0.00677122
-0.202988
0.0086994
-0.198456
0.0105841
-0.193885
0.012388
-0.189136
0.0140932
-0.184203
0.015696
-0.179142
0.0172009
-0.174033
0.0186179
-0.168953
0.0199592
-0.163972
0.0212377
-0.159141
0.0224663
-0.154501
0.0236575
-0.150075
0.0248236
-0.145874
0.0259769
-0.141893
0.0271291
-0.138104
-0.134455
0.0282909
0.00044968
-0.237337
0.00155153
-0.223888
0.00308073
-0.215507
0.00485477
-0.209653
0.00673607
-0.204869
0.00862818
-0.200348
0.0104691
-0.195726
0.0122239
-0.190891
0.013877
-0.185856
0.0154264
-0.180691
0.0168783
-0.175485
0.0182437
-0.170319
0.0195356
-0.165264
0.0207671
-0.160373
0.0219512
-0.155685
0.0231004
-0.151224
0.024227
-0.147001
0.0253436
-0.143009
0.0264625
-0.139223
-0.135588
0.0275956
0.000454357
-0.237791
0.00155814
-0.224992
0.00308042
-0.217029
0.0048362
-0.211409
0.00668797
-0.206721
0.00854086
-0.202201
0.0103352
-0.197521
0.0120382
-0.192594
0.0136368
-0.187455
0.0151307
-0.182185
0.0165277
-0.176882
0.0178399
-0.171631
0.0190807
-0.166504
0.0202638
-0.161556
0.021402
-0.156823
0.0225077
-0.15233
0.0235933
-0.148086
0.0246714
-0.144088
0.0257554
-0.140307
-0.136691
0.0268585
0.00045776
-0.238249
0.00156136
-0.226095
0.00307404
-0.218542
0.00480855
-0.213143
0.00662771
-0.20854
0.0084384
-0.204012
0.0101833
-0.199266
0.0118321
-0.194243
0.0133738
-0.188996
0.0148102
-0.183622
0.0161506
-0.178222
0.0174077
-0.172888
0.0185958
-0.167693
0.0197287
-0.162689
0.0208193
-0.157914
0.0218797
-0.15339
0.0229222
-0.149129
0.0239598
-0.145125
0.0250066
-0.141353
-0.137762
0.0260776
0.000459997
-0.238709
0.00156152
-0.227197
0.00306216
-0.220042
0.00477258
-0.214854
0.00655624
-0.210324
0.00832194
-0.205777
0.0100148
-0.200958
0.011607
-0.195835
0.0130898
-0.190479
0.0144667
-0.184999
0.0157483
-0.179504
0.0169486
-0.174088
0.0180821
-0.168826
0.0191628
-0.16377
0.0202036
-0.158954
0.0212165
-0.154403
0.0222134
-0.150126
0.0232076
-0.146119
0.0242143
-0.14236
-0.138798
0.0252503
0.000461221
-0.23917
0.00155908
-0.228295
0.00304547
-0.221529
0.0047292
-0.216537
0.00647466
-0.212069
0.0081928
-0.207496
0.0098312
-0.202597
0.0113646
-0.197368
0.0127864
-0.191901
0.0141019
-0.186314
0.0153229
-0.180725
0.0164642
-0.17523
0.017541
-0.169903
0.0185673
-0.164796
0.0195559
-0.159943
0.0205183
-0.155365
0.0214664
-0.151074
0.0224137
-0.147067
0.0233763
-0.143323
-0.139795
0.0243735
0.000461711
-0.239632
0.00155465
-0.229388
0.0030248
-0.222999
0.00467947
-0.218192
0.00638428
-0.213774
0.00805251
-0.209164
0.00963432
-0.204179
0.0111069
-0.198841
0.0124658
-0.19326
0.013718
-0.187566
0.0148765
-0.181883
0.0159568
-0.17631
0.0169745
-0.17092
0.0179437
-0.165765
0.018877
-0.160876
0.0197856
-0.156274
0.0206811
-0.151969
0.0215768
-0.147962
0.0224903
-0.144236
-0.140748
0.0234433
0.000461947
-0.240094
0.00154909
-0.230475
0.00300123
-0.224451
0.00462463
-0.219815
0.00628657
-0.215436
0.00790281
-0.21078
0.00942616
-0.205702
0.0108363
-0.200251
0.0121307
-0.194554
0.0133179
-0.188754
0.014412
-0.182977
0.0154292
-0.177327
0.0163851
-0.171876
0.0172941
-0.166674
0.0181684
-0.161751
0.0190189
-0.157125
0.0198566
-0.152807
0.0206949
-0.1488
0.0215522
-0.145094
-0.141649
0.0224534
0.00046273
-0.240556
0.00154355
-0.231556
0.00297596
-0.225883
0.00456604
-0.221406
0.00618313
-0.217053
0.00774562
-0.212342
0.00920898
-0.207165
0.0105552
-0.201597
0.0117839
-0.195783
0.0129049
-0.189875
0.0139331
-0.184006
0.0148851
-0.178279
0.0157767
-0.172768
0.0166219
-0.167519
0.0174329
-0.162561
0.0182197
-0.157911
0.0189928
-0.15358
0.0197651
-0.149573
0.0205559
-0.145885
-0.142489
0.0213955
0.000465205
-0.241022
0.00153935
-0.23263
0.0029502
-0.227294
0.00450506
-0.22296
0.00607564
-0.218624
0.00758299
-0.21385
0.00898524
-0.208568
0.0102668
-0.202879
0.0114289
-0.196945
0.0124828
-0.190929
0.0134441
-0.184967
0.0143295
-0.179165
0.0151546
-0.173593
0.0159331
-0.168298
0.0166763
-0.163305
0.0173935
-0.158629
0.0180938
-0.15428
0.0187892
-0.150268
0.0195003
-0.146596
-0.143255
0.0202661
0.000470765
-0.241492
0.0015378
-0.233697
0.00292526
-0.228682
0.00444325
-0.224478
0.00596596
-0.220146
0.00741711
-0.215301
0.00875757
-0.209908
0.00997402
-0.204095
0.0110695
-0.198041
0.0120563
-0.191915
0.0129503
-0.185861
0.0137682
-0.179983
0.0145254
-0.17435
0.0152348
-0.169007
0.0159067
-0.163977
0.0165494
-0.159271
0.0171704
-0.154901
0.0177798
-0.150877
0.0183982
-0.147214
-0.143922
0.0190655
0.000481737
-0.241974
0.00154153
-0.234757
0.00290361
-0.230044
0.00438273
-0.225958
0.00585604
-0.22162
0.00725011
-0.216695
0.00852851
-0.211186
0.00968019
-0.205247
0.0107098
-0.19907
0.0116302
-0.192836
0.0124576
-0.186688
0.0132083
-0.180733
0.0138964
-0.175038
0.014534
-0.169645
0.01513
-0.164573
0.0156919
-0.159833
0.0162261
-0.155436
0.0167391
-0.15139
0.0172438
-0.147719
-0.144442
0.0177641
0.000505704
-0.24248
0.00155774
-0.235809
0.00288932
-0.231375
0.00432539
-0.227394
0.00574712
-0.223041
0.00708338
-0.218031
0.00830009
-0.212403
0.00938823
-0.206335
0.0103538
-0.200036
0.0112105
-0.193692
0.0119742
-0.187452
0.0126602
-0.181419
0.0132808
-0.175659
0.0138451
-0.170209
0.014359
-0.165087
0.0148261
-0.1603
0.0152484
-0.155858
0.0156245
-0.151767
0.0159591
-0.148053
-0.144797
0.0163142
0.000562781
-0.243043
0.00159476
-0.236841
0.00288212
-0.232663
0.00427004
-0.228782
0.00563871
-0.22441
0.00691735
-0.21931
0.0080736
-0.213559
0.00910042
-0.207362
0.0100054
-0.200941
0.0108029
-0.19449
0.011509
-0.188158
0.012138
-0.182048
0.0127005
-0.176222
0.0132022
-0.170711
0.0136429
-0.165527
0.014015
-0.160673
0.0143018
-0.156145
0.0144772
-0.151942
0.014536
-0.148112
-0.144968
0.014707
0.250711
0.00041445
-0.251125
0.250323
0.000388076
0.249942
0.000380792
0.249561
0.000380911
0.249177
0.000383844
0.248789
0.000388243
0.248395
0.000393383
0.247997
0.000398677
0.247593
0.00040373
0.247185
0.000408338
0.246772
0.000412405
0.246356
0.000415904
0.245938
0.000418817
0.245516
0.00042112
0.245094
0.00042269
0.24467
0.00042332
0.244248
0.000421963
0.24383
0.000418069
0.243428
0.000402438
0.000385327
0.252652
0.00102191
-0.253259
0.252009
0.00103105
0.251338
0.00105208
0.25064
0.00107901
0.249916
0.00110731
0.249169
0.00113563
0.248399
0.00116349
0.247607
0.00119039
0.246795
0.00121592
0.245963
0.00123981
0.245114
0.00126196
0.244247
0.00128233
0.243365
0.00130093
0.242468
0.00131775
0.241558
0.00133265
0.240636
0.00134541
0.239703
0.00135494
0.238761
0.00136097
0.237806
0.00135722
0.00135034
0.251411
0.00159286
-0.251982
0.250776
0.00166664
0.250087
0.00174063
0.24935
0.00181573
0.248568
0.00188959
0.247743
0.00196099
0.246877
0.0020296
0.245972
0.00209519
0.24503
0.00215752
0.244054
0.00221642
0.243044
0.00227186
0.242002
0.00232386
0.240931
0.00237253
0.23983
0.00241795
0.238703
0.00246016
0.237549
0.00249919
0.23637
0.00253451
0.235164
0.00256637
0.233929
0.00259238
0.00261672
0.247291
0.00203557
-0.247734
0.246779
0.0021789
0.246202
0.00231762
0.245565
0.00245316
0.244869
0.00258487
0.244118
0.00271195
0.243314
0.00283406
0.242458
0.00295104
0.241553
0.00306276
0.2406
0.00316913
0.239602
0.00327017
0.23856
0.00336601
0.237475
0.00345686
0.23635
0.003543
0.235186
0.00362469
0.233983
0.0037023
0.232741
0.00377593
0.231461
0.0038462
0.230141
0.00391239
0.00397651
0.241034
0.00231423
-0.241313
0.240684
0.00252876
0.240265
0.00273653
0.23978
0.00293837
0.239231
0.00313424
0.238619
0.00332369
0.237947
0.00350637
0.237216
0.00368211
0.236428
0.00385077
0.235584
0.00401232
0.234688
0.00416683
0.233739
0.00431449
0.23274
0.00445565
0.231693
0.00459074
0.230597
0.00472033
0.229454
0.00484509
0.228265
0.00496562
0.227028
0.00508289
0.225743
0.00519704
0.00530975
0.233431
0.00243748
-0.233554
0.233237
0.00272252
0.232974
0.00299962
0.232644
0.0032691
0.232247
0.00353099
0.231786
0.00378498
0.231261
0.00403074
0.230675
0.00426804
0.230029
0.00449675
0.229325
0.00471683
0.228563
0.00492838
0.227746
0.00513164
0.226875
0.00532706
0.22595
0.00551527
0.224973
0.00569706
0.223945
0.00587346
0.222865
0.00604554
0.221733
0.00621466
0.220549
0.00638169
0.00654846
0.225184
0.00243579
-0.225183
0.225118
0.00278877
0.224985
0.00313307
0.224785
0.00346863
0.224521
0.00379537
0.224193
0.00411302
0.223802
0.00442123
0.223351
0.00471972
0.222839
0.00500833
0.222269
0.005287
0.221641
0.00555582
0.220958
0.00581508
0.22022
0.00606531
0.219428
0.00630729
0.218583
0.00654208
0.217685
0.00677105
0.216735
0.00699577
0.215731
0.00721811
0.214673
0.00743962
0.00766247
0.21682
0.00234525
-0.21673
0.216846
0.00276264
0.216809
0.00317075
0.216708
0.0035693
0.216545
0.00395806
0.216322
0.00433672
0.216038
0.00470491
0.215695
0.00506229
0.215295
0.00540862
0.214838
0.00574381
0.214326
0.00606794
0.21376
0.00638129
0.213141
0.00668445
0.21247
0.00697834
0.211747
0.00726428
0.210975
0.007544
0.210151
0.00781962
0.209275
0.00809365
0.208346
0.00836845
0.00864671
0.208685
0.00219911
-0.208539
0.208771
0.00267713
0.208796
0.0031453
0.208762
0.0036032
0.20867
0.00405049
0.20852
0.00448679
0.208313
0.00491164
0.208051
0.00532465
0.207734
0.00572552
0.207364
0.00611406
0.206941
0.0064903
0.206468
0.0068545
0.205945
0.00720727
0.205374
0.00754962
0.204755
0.0078831
0.204089
0.00820984
0.203376
0.00853259
0.202615
0.00885461
0.201804
0.00917934
0.00951032
0.200979
0.0020243
-0.200804
0.201097
0.00255938
0.201158
0.00308404
0.201164
0.00359775
0.201114
0.00410006
0.20101
0.00459051
0.200854
0.00506857
0.200644
0.00553374
0.200384
0.00598564
0.200074
0.00642398
0.199716
0.0068487
0.199311
0.00725995
0.198859
0.00765833
0.198364
0.00804487
0.197826
0.00842133
0.197246
0.00879016
0.196623
0.00915488
0.195958
0.00951962
0.195248
0.00988934
0.0102688
0.193796
0.00184065
-0.193612
0.193925
0.00242968
0.194002
0.00300772
0.194025
0.0035741
0.193997
0.0041283
0.193918
0.00466973
0.193789
0.00519778
0.19361
0.00571187
0.193385
0.00621148
0.193112
0.00669619
0.192795
0.0071658
0.192435
0.00762032
0.192033
0.00806021
0.191591
0.00848643
0.191112
0.00890089
0.190596
0.00930623
0.190044
0.00970689
0.189456
0.0101079
0.188828
0.0105165
0.010939
0.187157
0.00166155
-0.186978
0.187285
0.00230203
0.187361
0.00293092
0.187388
0.0035474
0.187365
0.00415083
0.187295
0.00474057
0.187177
0.00531589
0.187012
0.00587608
0.186803
0.0064205
0.186551
0.00694857
0.186257
0.00745987
0.185923
0.00795419
0.185551
0.00843179
0.185144
0.00889335
0.184705
0.00934084
0.184234
0.00977683
0.183734
0.0102069
0.183205
0.0106367
0.182645
0.0110768
0.0115357
0.181044
0.00149533
-0.180877
0.18116
0.00218542
0.181228
0.00286317
0.181248
0.00352767
0.18122
0.00417824
0.181147
0.00481413
0.181028
0.0054345
0.180866
0.00603852
0.180661
0.00662538
0.180415
0.00719431
0.18013
0.00774464
0.179809
0.00827583
0.179453
0.00878783
0.179065
0.00928083
0.178649
0.00975669
0.178209
0.0102174
0.177746
0.01067
0.177262
0.0111199
0.176756
0.0115834
0.0120699
0.175413
0.00134682
-0.175265
0.175514
0.002085
0.175567
0.00281005
0.175574
0.00352102
0.175535
0.0042171
0.175452
0.00489744
0.175325
0.00556112
0.175156
0.00620718
0.174947
0.00683462
0.174699
0.00744246
0.174414
0.00802973
0.174094
0.00859548
0.173743
0.0091392
0.173363
0.00966035
0.172959
0.0101605
0.172537
0.0106402
0.172098
0.0111083
0.17165
0.011568
0.171188
0.0120455
0.0125475
0.170214
0.00121831
-0.170086
0.170296
0.00200348
0.170331
0.00277459
0.170322
0.00353072
0.170268
0.004271
0.170171
0.00499446
0.170032
0.00570007
0.169852
0.00638676
0.169634
0.00705336
0.169377
0.00769862
0.169086
0.00832127
0.168761
0.00891987
0.168407
0.00949332
0.168028
0.0100401
0.167627
0.010561
0.167213
0.0110544
0.16679
0.0115312
0.16637
0.011988
0.165947
0.0124688
0.0129671
0.165392
0.00111057
-0.165284
0.165454
0.00194166
0.165471
0.00275776
0.165443
0.00355797
0.165373
0.00434132
0.165261
0.00510676
0.165108
0.00585318
0.164915
0.00657935
0.164684
0.00728396
0.164417
0.00796551
0.164116
0.00862239
0.163784
0.00925265
0.163422
0.0098545
0.163037
0.0104251
0.162634
0.0109643
0.162222
0.0114667
0.161807
0.0119457
0.16141
0.0123848
0.161022
0.0128569
0.0133168
0.160894
0.00102311
-0.160806
0.160936
0.00189906
0.160935
0.00275915
0.16089
0.0036024
0.160804
0.00442776
0.160677
0.0052341
0.160509
0.00602024
0.160304
0.00678484
0.160061
0.00752644
0.159784
0.00824331
0.159473
0.00893351
0.159131
0.0095946
0.158761
0.0102241
0.158369
0.0108176
0.157959
0.0113737
0.157544
0.0118815
0.157133
0.0123572
0.156756
0.0127613
0.156398
0.0132149
0.0135707
0.156672
0.00095409
-0.156603
0.156697
0.00187413
0.156679
0.00277706
0.15662
0.00366218
0.156519
0.00452834
0.156379
0.00537437
0.1562
0.00619901
0.155984
0.00700085
0.155732
0.00777828
0.155446
0.00852941
0.155127
0.00925202
0.154779
0.00994325
0.154403
0.0105999
0.154004
0.0112162
0.153589
0.011789
0.15317
0.0123008
0.152758
0.0127689
0.152403
0.0131166
0.152069
0.0135484
0.0136978
0.152686
0.000901573
-0.152633
0.152696
0.00186404
0.152665
0.00280828
0.152593
0.00373372
0.152482
0.00463907
0.152333
0.00552312
0.152148
0.00638461
0.151927
0.00722206
0.151671
0.00803375
0.151383
0.00881765
0.151064
0.00957139
0.150715
0.0102918
0.15034
0.0109751
0.149942
0.0116144
0.149525
0.0122054
0.149103
0.0127228
0.148688
0.0131843
0.148353
0.0134509
0.148061
0.013841
0.0136467
0.148894
-0.148857
0.000863988
0.148893
0.00186483
0.148853
0.00284842
0.148775
0.00381197
0.14866
0.00475411
0.148509
0.00567376
0.148324
0.00656965
0.148106
0.00744025
0.147856
0.00828379
0.147575
0.00909815
0.147266
0.00988091
0.146929
0.0106286
0.146567
0.0113377
0.146181
0.0119999
0.145775
0.0126112
0.145358
0.0131397
0.144936
0.0136071
0.144585
0.0138014
0.144328
0.0140985
0.0130058
0.254341
7.40548e-05
-0.254415
0.254305
3.63249e-05
0.254272
3.24475e-05
0.254231
4.13389e-05
0.254175
5.57309e-05
0.254102
7.35443e-05
0.254008
9.34765e-05
0.253894
0.000114404
0.253758
0.000135513
0.253602
0.000156297
0.253426
0.000176316
0.25323
0.000195289
0.253017
0.000213701
0.252784
0.0002326
0.252534
0.000249873
0.252269
0.000265036
0.251991
0.000277681
0.251704
0.000287721
0.251414
0.000289298
0.000289291
0.256172
-0.000241034
-0.255857
0.256426
-0.000217223
0.256635
-0.000176434
0.256799
-0.000122766
0.256917
-6.27334e-05
0.25699
1.05939e-06
0.257016
6.74698e-05
0.256995
0.000135407
0.256927
0.000203949
0.256811
0.000272164
0.256648
0.000338808
0.256441
0.000402646
0.256192
0.00046245
0.255895
0.000529597
0.255554
0.000591271
0.25517
0.000648346
0.254747
0.000700716
0.254287
0.000748321
0.25379
0.000786506
0.000819488
0.251592
-0.000896679
-0.250936
0.252175
-0.000800026
0.252692
-0.000693525
0.253146
-0.000577339
0.253539
-0.000454981
0.253868
-0.000328692
0.254135
-0.000199619
0.25434
-6.91762e-05
0.254481
6.26506e-05
0.254558
0.000195312
0.254572
0.000324944
0.254524
0.000451167
0.25441
0.000576275
0.254238
0.000701093
0.254008
0.000821799
0.253719
0.000937501
0.253372
0.00104772
0.252968
0.00115234
0.252505
0.00124943
0.00134178
0.243267
-0.00183074
-0.242333
0.244128
-0.00166145
0.24492
-0.00148489
0.245643
-0.00130033
0.246297
-0.00110943
0.246882
-0.000914004
0.247398
-0.000715398
0.247844
-0.000514873
0.24822
-0.000313116
0.248522
-0.000107374
0.248753
9.42285e-05
0.248916
0.000288606
0.249007
0.000484924
0.24903
0.000678224
0.248984
0.000867452
0.24887
0.0010517
0.248687
0.00123021
0.248437
0.00140262
0.248119
0.00156788
0.00172652
0.233183
-0.00296329
-0.23205
0.234247
-0.0027259
0.235243
-0.002481
0.236171
-0.00222817
0.23703
-0.00196831
0.237819
-0.00170292
0.238537
-0.00143342
0.239183
-0.00116104
0.239757
-0.00088672
0.240261
-0.000611254
0.240693
-0.000337853
0.241049
-6.79543e-05
0.241334
0.00020053
0.241546
0.000465683
0.241686
0.000727119
0.241755
0.0009834
0.241751
0.00123379
0.241676
0.00147769
0.24153
0.00171428
0.0019435
0.222627
-0.00422211
-0.221368
0.223822
-0.0039215
0.224953
-0.00361181
0.226018
-0.0032932
0.227016
-0.00296647
0.227946
-0.00263305
0.228807
-0.0022945
0.229599
-0.00195229
0.23032
-0.00160786
0.230971
-0.00126256
0.231551
-0.000917941
0.232058
-0.000575298
0.232494
-0.000235494
0.23286
9.993e-05
0.233155
0.000432468
0.233377
0.000761004
0.233528
0.00108285
0.233608
0.00139795
0.233617
0.00170565
0.00200572
0.212381
-0.00554971
-0.211054
0.21365
-0.00519007
0.214857
-0.00481924
0.216002
-0.00443787
0.217083
-0.004047
0.218098
-0.00364824
0.219047
-0.0032434
0.219929
-0.00283422
0.220743
-0.00242234
0.22149
-0.00200921
0.222168
-0.00159625
0.222778
-0.00118486
0.223318
-0.000775843
0.223788
-0.000369929
0.224195
2.51869e-05
0.22453
0.000425849
0.224796
0.000816874
0.224994
0.00120059
0.225122
0.00157691
0.00194544
0.202857
-0.0069044
-0.201503
0.204156
-0.00648905
0.205397
-0.00606011
0.206578
-0.00561861
0.207697
-0.00516604
0.208753
-0.00470439
0.209746
-0.00423581
0.210674
-0.00376229
0.211537
-0.00328568
0.212335
-0.0028076
0.213069
-0.00232951
0.213737
-0.0018528
0.214339
-0.00137853
0.214877
-0.000907654
0.215344
-0.00044155
0.215756
1.36776e-05
0.216096
0.000476424
0.216373
0.000924422
0.216584
0.00136587
0.00179943
0.194213
-0.00825844
-0.192859
0.195514
-0.00778991
0.196759
-0.0073051
0.197946
-0.00680536
0.199073
-0.00629282
0.200138
-0.0057701
0.201142
-0.00523973
0.202084
-0.00470406
0.202963
-0.00416513
0.203781
-0.00362472
0.204535
-0.00308438
0.205228
-0.00254543
0.205859
-0.00200906
0.206427
-0.00147619
0.206934
-0.000948232
0.207374
-0.00042649
0.20776
9.05421e-05
0.208081
0.000603396
0.208341
0.00110611
0.00160097
0.186456
-0.00959508
-0.185119
0.187742
-0.00907535
0.188973
-0.00853616
0.190146
-0.00797921
0.191261
-0.00740767
0.192316
-0.00682495
0.193311
-0.00623413
0.194244
-0.00563789
0.195118
-0.00503852
0.195931
-0.00443792
0.196684
-0.00383767
0.197378
-0.00323907
0.198012
-0.00264328
0.198587
-0.00205126
0.199103
-0.001464
0.199559
-0.000882429
0.199957
-0.000307272
0.200298
0.000261892
0.20058
0.000824082
0.00137679
0.179515
-0.0109057
-0.178204
0.180776
-0.0103364
0.181983
-0.00974365
0.183134
-0.00912971
0.184226
-0.00849936
0.185258
-0.00785708
0.18623
-0.00720652
0.187143
-0.00655076
0.187997
-0.00589232
0.188792
-0.00523318
0.189529
-0.00457488
0.190209
-0.00391868
0.190831
-0.00326566
0.191397
-0.00261675
0.191906
-0.00197278
0.192358
-0.00133464
0.192753
-0.000702829
0.193096
-8.02974e-05
0.193381
0.000538304
0.00114616
0.173285
-0.0121872
-0.172004
0.174519
-0.0115702
0.175699
-0.0109239
0.176822
-0.0102524
0.177885
-0.00956279
0.178889
-0.00886078
0.179833
-0.00815068
0.180718
-0.00743599
0.181545
-0.00671942
0.182315
-0.00600294
0.183028
-0.00528801
0.183685
-0.0045758
0.184287
-0.00386727
0.184834
-0.00316326
0.185325
-0.00246458
0.185763
-0.00177203
0.186146
-0.00108637
0.186475
-0.000409169
0.186754
0.000259742
0.00092216
0.167657
-0.0134404
-0.166404
0.168865
-0.0127781
0.170019
-0.0120776
0.171114
-0.011347
0.172148
-0.010597
0.173122
-0.00983452
0.174035
-0.00906459
0.174891
-0.00829116
0.175688
-0.007517
0.176429
-0.00674401
0.177115
-0.00597347
0.177745
-0.00520641
0.178322
-0.00444364
0.178844
-0.00368592
0.179314
-0.00293397
0.17973
-0.00218861
0.180094
-0.0014503
0.180405
-0.000719785
0.180668
-3.83324e-06
0.000713144
0.162532
-0.0146692
-0.161304
0.163719
-0.0139648
0.16485
-0.0132081
0.165919
-0.0124159
0.166925
-0.0116036
0.16787
-0.0107793
0.168754
-0.00994869
0.169579
-0.00911621
0.170347
-0.00828463
0.171058
-0.00745557
0.171715
-0.00663012
0.172318
-0.00580903
0.172867
-0.00499296
0.173364
-0.00418255
0.173808
-0.00337843
0.174201
-0.00258136
0.174543
-0.00179198
0.174834
-0.0010116
0.175073
-0.000242042
0.000520737
0.157827
-0.0158802
-0.156616
0.159
-0.0151379
0.160113
-0.0143211
0.161161
-0.0134635
0.162143
-0.0125858
0.163061
-0.011697
0.163916
-0.010804
0.164712
-0.00991171
0.16545
-0.00902248
0.166132
-0.00813757
0.166759
-0.00725768
0.167333
-0.00638324
0.167855
-0.00551467
0.168325
-0.00465242
0.168743
-0.00379705
0.169111
-0.00294926
0.169429
-0.0021098
0.169697
-0.00127961
0.169915
-0.000459835
0.000349788
0.153479
-0.017086
-0.152273
0.154649
-0.0163079
0.155751
-0.0154235
0.156782
-0.0144945
0.157742
-0.0135458
0.158633
-0.0125882
0.15946
-0.0116304
0.160225
-0.0106771
0.160932
-0.0097299
0.161584
-0.00878942
0.162182
-0.00785573
0.162728
-0.00692876
0.163222
-0.00600856
0.163665
-0.0050954
0.164057
-0.00418971
0.1644
-0.00329211
0.164694
-0.00240336
0.164938
-0.00152426
0.165135
-0.000656035
0.000200355
0.149442
-0.0183156
-0.148212
0.150624
-0.0174899
0.151722
-0.0165216
0.152739
-0.0155113
0.153675
-0.0144822
0.154537
-0.0134498
0.155331
-0.0124246
0.156063
-0.0114096
0.156738
-0.0104048
0.157359
-0.00940975
0.157926
-0.00842349
0.158443
-0.00744526
0.158909
-0.00647468
0.159325
-0.00551176
0.159693
-0.00455682
0.160011
-0.00361042
0.160281
-0.00267331
0.160503
-0.00174635
0.160677
-0.000830544
7.17634e-05
0.145687
-0.0196336
-0.144369
0.146902
-0.0187056
0.147997
-0.017616
0.148994
-0.0165086
0.149899
-0.0153868
0.150722
-0.0142735
0.151478
-0.0131802
0.152173
-0.0121049
0.152813
-0.0110446
0.1534
-0.00999719
0.153937
-0.00896053
0.154425
-0.00793296
0.154864
-0.00691363
0.155255
-0.00590237
0.155597
-0.00489941
0.155892
-0.00390532
0.15614
-0.00292087
0.15634
-0.00194711
0.156495
-0.000985043
-3.65991e-05
0.142229
-0.0211096
-0.140753
0.143476
-0.0199524
0.144548
-0.0186883
0.145503
-0.017464
0.14636
-0.016243
0.147135
-0.0150488
0.147845
-0.0138903
0.148499
-0.0127592
0.149103
-0.0116479
0.149657
-0.0105518
0.150164
-0.00946769
0.150624
-0.00839308
0.151038
-0.00732685
0.151404
-0.00626876
0.151724
-0.00521911
0.151997
-0.00417852
0.152224
-0.00314784
0.152405
-0.00212826
0.152541
-0.00112126
-0.000128406
0.139138
-0.137722
-0.0225255
0.140298
-0.0211125
0.14133
-0.0197207
0.142206
-0.01834
0.142995
-0.0170314
0.143717
-0.0157717
0.144382
-0.0145548
0.144996
-0.0133734
0.145565
-0.0122164
0.146089
-0.0110758
0.146568
-0.00994694
0.147002
-0.00882731
0.147391
-0.0077158
0.147735
-0.00661228
0.148033
-0.00551724
0.148286
-0.00443145
0.148494
-0.00335591
0.148657
-0.00229161
0.148776
-0.00124014
-0.000208963
0.030761
0.11196
-0.110479
-0.0322417
0.029253
0.114968
-0.11346
0.0277152
0.118109
-0.116571
0.0261439
0.121407
-0.119836
0.0245358
0.124893
-0.123285
0.0228883
0.12861
-0.126963
0.021199
0.132616
-0.130927
0.0194667
0.13699
-0.135257
0.0176907
0.141835
-0.140059
0.0158713
0.147283
-0.145464
0.0140103
0.153494
-0.151633
0.0121118
0.160655
-0.158757
0.0101849
0.168966
-0.167039
0.00824602
0.178616
-0.176677
0.00632513
0.189726
-0.187805
0.00447226
0.202262
-0.200409
0.00276703
0.215886
-0.214181
0.00132976
0.229745
-0.228308
0.000329451
0.242062
-0.241062
0.249708
-0.249379
0.0305739
0.113433
-0.0320472
0.0290734
0.116468
0.0275432
0.119639
0.0259798
0.12297
0.0243799
0.126493
0.0227406
0.130249
0.0210595
0.134297
0.0193353
0.138714
0.0175671
0.143603
0.0157553
0.149095
0.0139016
0.155348
0.0120108
0.162546
0.0100921
0.170885
0.00816306
0.180545
0.00625472
0.191635
0.00441862
0.204098
0.00273586
0.217569
0.00132618
0.231155
0.000353249
0.243035
0.250062
0.0303448
0.114897
-0.0318086
0.0288541
0.117959
0.0273338
0.12116
0.0257805
0.124524
0.0241909
0.128083
0.0225619
0.131878
0.0208913
0.135968
0.0191774
0.140428
0.0174194
0.145361
0.0156174
0.150897
0.0137736
0.157192
0.0118928
0.164427
0.00998479
0.172793
0.00806803
0.182462
0.0061744
0.193528
0.0043565
0.205916
0.00269595
0.219229
0.00131086
0.23254
0.000356358
0.243989
0.250418
0.0300756
0.116349
-0.0315276
0.0285967
0.119438
0.0270884
0.122668
0.0255473
0.126065
0.02397
0.12966
0.0223535
0.133495
0.0206953
0.137626
0.0189939
0.142129
0.0172481
0.147107
0.0154583
0.152687
0.0136265
0.159024
0.011758
0.166295
0.00986301
0.174688
0.00796064
0.184364
0.00608361
0.195405
0.00428524
0.207714
0.00264729
0.220867
0.00128623
0.233901
0.000351331
0.244924
0.250769
0.0297683
0.117787
-0.0312067
0.0283031
0.120903
0.0268088
0.124162
0.0252817
0.127592
0.0237185
0.131223
0.0221162
0.135097
0.0204725
0.139269
0.0187853
0.143816
0.0170538
0.148839
0.0152781
0.154462
0.0134606
0.160841
0.0116065
0.16815
0.00972672
0.176568
0.00784087
0.18625
0.00598245
0.197264
0.00420544
0.209491
0.00259165
0.222481
0.00125589
0.235237
0.00034245
0.245838
0.251112
0.0294256
0.11921
-0.0308488
0.0279757
0.122353
0.0264968
0.125641
0.0249853
0.129103
0.0234378
0.132771
0.0218515
0.136684
0.0202237
0.140897
0.0185526
0.145488
0.0168372
0.150554
0.0150776
0.156222
0.0132762
0.162643
0.0114387
0.169987
0.00957615
0.17843
0.00770895
0.188117
0.00587128
0.199101
0.00411773
0.211245
0.00253002
0.224069
0.00122121
0.236546
0.000330883
0.246728
0.251443
0.0290503
0.120617
-0.0304572
0.0276168
0.123787
0.0261545
0.127104
0.0246599
0.130598
0.0231294
0.134301
0.0215603
0.138253
0.01995
0.142508
0.0182965
0.147141
0.0165988
0.152252
0.0148571
0.157964
0.0130738
0.164426
0.0112547
0.171806
0.00941158
0.180274
0.00756517
0.189964
0.00575042
0.200916
0.00402246
0.212972
0.00246283
0.225628
0.00118273
0.237826
0.000317337
0.247593
0.25176
0.0286451
0.122007
-0.0300351
0.0272287
0.125203
0.0257839
0.128548
0.024307
0.132075
0.0227946
0.135814
0.0212439
0.139803
0.0196523
0.144099
0.0180178
0.148775
0.0163394
0.15393
0.0146172
0.159686
0.0128537
0.166189
0.0110551
0.173605
0.00923331
0.182095
0.00740981
0.191787
0.00562015
0.202706
0.00391993
0.214673
0.00239043
0.227158
0.00114097
0.239075
0.000302415
0.248432
0.252062
0.028213
0.12338
-0.0295861
0.0268139
0.126602
0.0253869
0.129975
0.0239283
0.133534
0.0224346
0.137307
0.0209031
0.141335
0.0193313
0.145671
0.017717
0.15039
0.0160592
0.155588
0.0143581
0.161387
0.0126163
0.167931
0.0108399
0.175381
0.00904157
0.183894
0.0072431
0.193586
0.00548072
0.204468
0.00381044
0.216343
0.0023132
0.228655
0.00109643
0.240292
0.000286532
0.249242
0.252349
0.0277567
0.124737
-0.0291137
0.0263745
0.127984
0.0249651
0.131385
0.0235248
0.134974
0.0220503
0.138782
0.0205388
0.142847
0.0189875
0.147222
0.0173946
0.151983
0.0157588
0.157224
0.0140803
0.163065
0.0123617
0.16965
0.0106095
0.177133
0.00883657
0.185667
0.00706527
0.195357
0.00533238
0.206201
0.00369428
0.217981
0.00223149
0.230118
0.00104946
0.241474
0.000269934
0.250021
0.252619
0.0272787
0.126079
-0.028621
0.0259122
0.129351
0.0245197
0.132777
0.0230975
0.136396
0.0216423
0.140237
0.020151
0.144338
0.0186212
0.148752
0.0170507
0.153553
0.0154381
0.158836
0.0137837
0.16472
0.0120901
0.171343
0.010364
0.178859
0.00861847
0.187412
0.0068765
0.197099
0.00517537
0.207902
0.00357172
0.219585
0.0021456
0.231544
0.00100033
0.242619
0.000252781
0.250769
0.252872
0.0267805
0.12741
-0.0281107
0.0254278
0.130703
0.024051
0.134154
0.0226463
0.137801
0.0212103
0.141673
0.0197398
0.145808
0.0182321
0.15026
0.016685
0.1551
0.015097
0.160424
0.0134683
0.166349
0.0118015
0.17301
0.0101033
0.180557
0.00838735
0.189128
0.00667695