/*--------------------------------*- C++ -*----------------------------------*\
| =========                 |                                                 |
| \\      /  F ield         | OpenFOAM: The Open Source CFD Toolbox           |
|  \\    /   O peration     | Version:  v1912                                 |
|   \\  /    A nd           | Website:  www.openfoam.com                      |
|    \\/     M anipulation  |                                                 |
\*---------------------------------------------------------------------------*/
FoamFile
{
    version     2.0;
    format      ascii;
    class       volVectorField;
    location    "39";
    object      U;
}
// * * * * * * * * * * * * * * * * * * * * * * * * * * * * * * * * * * * * * //

dimensions      [0 1 -1 0 0 0 0];


internalField   nonuniform List<vector> 
9600
(
(0.456572 -9.36258 -1.54081e-19)
(0.159699 -8.63402 0)
(0.241775 -8.16126 -9.04641e-20)
(0.320362 -7.84189 0)
(0.387507 -7.60638 0)
(0.455741 -7.41129 -3.1822e-20)
(0.521089 -7.2326 -5.48435e-22)
(0.58042 -7.05812 2.65961e-20)
(0.632962 -6.88251 0)
(0.678747 -6.70434 -4.50917e-20)
(0.718163 -6.52423 0)
(0.751836 -6.34372 -1.82887e-21)
(0.780501 -6.16462 -2.60618e-21)
(0.804913 -5.98862 -3.15018e-20)
(0.825794 -5.8171 2.65644e-20)
(0.843796 -5.65103 -2.60987e-20)
(0.859471 -5.49088 2.32351e-20)
(0.873363 -5.33657 0)
(0.886252 -5.18734 -1.84801e-20)
(0.897867 -5.04167 2.02589e-20)
(0.824539 -9.35214 -3.08243e-19)
(0.502215 -8.66202 1.17601e-20)
(0.567491 -8.20543 1.86347e-19)
(0.634567 -7.89555 -1.58811e-19)
(0.692693 -7.66463 1.56619e-19)
(0.752875 -7.47003 0)
(0.810338 -7.28904 6.06927e-20)
(0.861614 -7.11057 -6.05513e-20)
(0.905856 -6.93008 -1.0502e-19)
(0.943154 -6.74673 1.32817e-19)
(0.974008 -6.56153 -8.62315e-20)
(0.999165 -6.37628 -3.51996e-20)
(1.01947 -6.19293 7.10532e-20)
(1.03577 -6.01324 0)
(1.04886 -5.83862 0)
(1.05941 -5.67002 9.95746e-20)
(1.06799 -5.50788 -1.68823e-19)
(1.07516 -5.35208 0)
(1.08178 -5.20171 0)
(1.08733 -5.05517 -7.8024e-20)
(1.19284 -9.32817 6.36866e-19)
(0.846993 -8.67715 0)
(0.896753 -8.23693 -3.77032e-19)
(0.953056 -7.93663 -3.41717e-19)
(1.00246 -7.71028 0)
(1.05457 -7.51613 5.4602e-19)
(1.10392 -7.33287 -5.15472e-19)
(1.14679 -7.15051 1.01033e-19)
(1.18233 -6.96534 -2.24924e-19)
(1.21073 -6.77708 -3.7402e-19)
(1.23262 -6.58714 5.10544e-19)
(1.24891 -6.39754 -3.15649e-19)
(1.26055 -6.21035 -1.41454e-19)
(1.26848 -6.0274 0)
(1.27355 -5.8501 5.52216e-21)
(1.27649 -5.67939 1.04962e-19)
(1.27785 -5.51568 4.53677e-20)
(1.27822 -5.35877 0)
(1.27852 -5.20766 8.22384e-20)
(1.27789 -5.06067 8.42868e-20)
(1.56038 -9.29029 -8.61578e-19)
(1.19344 -8.67914 -4.03698e-19)
(1.229 -8.25554 3.91575e-19)
(1.27526 -7.96483 6.7285e-19)
(1.31624 -7.74297 -3.26564e-19)
(1.36023 -7.54923 5.78966e-21)
(1.40122 -7.36372 2.53544e-19)
(1.43533 -7.17761 2.29637e-19)
(1.46177 -6.988 4.2055e-19)
(1.48086 -6.79517 0)
(1.49343 -6.60086 1.61985e-19)
(1.50051 -6.40734 -1.71919e-19)
(1.5032 -6.21677 1.03461e-20)
(1.50254 -6.03101 2.7097e-19)
(1.49942 -5.85148 2.32278e-19)
(1.4946 -5.67908 -3.2789e-19)
(1.48865 -5.5142 1.07983e-19)
(1.48216 -5.35659 -1.75807e-19)
(1.47612 -5.20512 1.74977e-19)
(1.46924 -5.05811 -8.43303e-20)
(1.92685 -9.23845 4.3451e-19)
(1.54128 -8.66784 0)
(1.56384 -8.261 3.84521e-19)
(1.60069 -7.97981 0)
(1.63346 -7.76235 0)
(1.66926 -7.56897 -3.00118e-19)
(1.70163 -7.38128 -5.36922e-19)
(1.72662 -7.19161 -4.55199e-19)
(1.74355 -6.99783 1.84447e-20)
(1.75296 -6.80078 -1.96685e-19)
(1.75584 -6.60254 0)
(1.75342 -6.40555 -1.62393e-19)
(1.74692 -6.21207 -2.92524e-19)
(1.73744 -6.02398 2.57229e-19)
(1.72598 -5.84266 -7.3101e-19)
(1.7133 -5.66902 1.18302e-19)
(1.69996 -5.5034 9.37549e-20)
(1.68659 -5.34548 -1.93332e-19)
(1.67422 -5.19405 -8.44682e-20)
(1.66107 -5.04745 2.51877e-19)
(2.29169 -9.17255 4.19252e-19)
(1.89 -8.64301 4.15738e-19)
(1.90073 -8.25301 0)
(1.92876 -7.98124 0)
(1.95353 -7.76807 -6.23889e-19)
(1.98104 -7.57504 3.41012e-19)
(2.0045 -7.38526 8.20549e-19)
(2.02 -7.19223 0)
(2.02705 -6.99462 2.16813e-19)
(2.0264 -6.79375 1.96686e-19)
(2.01928 -6.59203 -3.47457e-19)
(2.00707 -6.39206 5.03866e-19)
(1.99114 -6.19617 1.47846e-19)
(1.9727 -6.00623 0)
(1.95276 -5.82362 1.23063e-19)
(1.93213 -5.64917 5.52386e-19)
(1.91137 -5.48323 -3.29152e-19)
(1.89112 -5.32542 3.69825e-19)
(1.87245 -5.17441 -7.03237e-19)
(1.85302 -5.02867 8.12978e-19)
(2.65439 -9.09256 4.26385e-19)
(2.2391 -8.60446 -2.25771e-18)
(2.23916 -8.23131 0)
(2.25891 -7.96883 0)
(2.27581 -7.75984 0)
(2.2949 -7.56715 -6.05183e-19)
(2.30916 -7.37541 0)
(2.31482 -7.17928 -9.69897e-19)
(2.31161 -6.97819 8.94605e-19)
(2.30056 -6.77394 -8.3084e-19)
(2.28312 -6.56924 0)
(2.26089 -6.36681 0)
(2.23535 -6.16903 0)
(2.20779 -5.97776 -2.81059e-19)
(2.17928 -5.79431 0)
(2.15064 -5.61953 0)
(2.12243 -5.45368 -4.12468e-19)
(2.09532 -5.29638 4.05263e-19)
(2.0704 -5.1462 0)
(2.04472 -5.00177 0)
(3.0144 -8.99849 -1.38714e-18)
(2.58802 -8.55201 8.98819e-19)
(2.57853 -8.19566 0)
(2.59051 -7.9423 0)
(2.59967 -7.73739 0)
(2.61018 -7.54505 5.75608e-19)
(2.61495 -7.35152 -5.77347e-19)
(2.6104 -7.15258 -8.87505e-21)
(2.59657 -6.9484 -8.95707e-19)
(2.57479 -6.74126 8.38651e-19)
(2.54678 -6.53409 -3.78317e-19)
(2.5143 -6.32975 6.57802e-19)
(2.47897 -6.13062 -4.63805e-20)
(2.44218 -5.93853 -5.95051e-19)
(2.40504 -5.75475 -5.01485e-19)
(2.36836 -5.58008 4.92694e-19)
(2.3327 -5.41477 0)
(2.29876 -5.25837 0)
(2.26767 -5.1094 3.56475e-19)
(2.23581 -4.96675 -3.92311e-19)
(3.37116 -8.89037 9.27117e-19)
(2.93621 -8.48554 8.82998e-19)
(2.91824 -8.14584 -1.67361e-18)
(2.92292 -7.90142 7.90538e-19)
(2.92443 -7.70047 0)
(2.92618 -7.50854 6.15936e-19)
(2.92115 -7.3134 -5.40673e-19)
(2.90605 -7.11199 1.52796e-18)
(2.88126 -6.90517 -2.36792e-20)
(2.84846 -6.69563 0)
(2.80962 -6.48655 7.63306e-19)
(2.7667 -6.28086 0)
(2.72147 -6.08093 0)
(2.67536 -5.88856 -2.722e-19)
(2.62953 -5.70495 5.4901e-19)
(2.58479 -5.53085 0)
(2.5417 -5.3665 4.30582e-19)
(2.501 -5.21142 1.79235e-19)
(2.46383 -5.06404 -3.88907e-19)
(2.42587 -4.92363 3.77626e-19)
(3.72412 -8.76826 -9.54878e-19)
(3.28307 -8.40493 8.97384e-19)
(3.25769 -8.08168 -2.5557e-18)
(3.2555 -7.84598 8.03637e-19)
(3.24939 -7.6489 0)
(3.24221 -7.45743 -1.24316e-18)
(3.22707 -7.26093 5.97196e-19)
(3.20107 -7.05741 0)
(3.16501 -6.84842 -4.74078e-19)
(3.12091 -6.63703 -8.22215e-19)
(3.07103 -6.42661 -7.16412e-19)
(3.01752 -6.22014 5.34159e-20)
(2.96227 -6.01999 6.70044e-19)
(2.90679 -5.82788 2.71976e-19)
(2.85224 -5.64495 -3.79142e-20)
(2.79945 -5.47188 -5.12153e-19)
(2.74896 -5.30892 -2.2906e-19)
(2.70155 -5.15554 -2.06502e-19)
(2.65842 -5.01014 5.5084e-19)
(2.61449 -4.87246 -8.20856e-19)
(4.0727 -8.63225 9.54881e-19)
(3.628 -8.31011 -4.66362e-20)
(3.59622 -8.00302 8.21492e-19)
(3.58755 -7.77581 0)
(3.57385 -7.5825 -6.80062e-19)
(3.55753 -7.3916 1.30674e-18)
(3.53198 -7.19399 -1.1169e-18)
(3.49477 -6.98878 1.0991e-18)
(3.44714 -6.77812 -4.45302e-19)
(3.3915 -6.56544 9.03988e-19)
(3.33039 -6.35428 3.91455e-19)
(3.26617 -6.14764 0)
(3.20083 -5.94784 0)
(3.13593 -5.75654 -2.82012e-19)
(3.07265 -5.57479 3.83311e-20)
(3.01183 -5.40322 1.00854e-18)
(2.95398 -5.24206 -2.49518e-19)
(2.89995 -5.09078 8.24049e-19)
(2.85096 -4.94774 1.442e-19)
(2.80119 -4.81325 -8.38369e-19)
(4.41637 -8.48244 -2.93811e-18)
(3.97041 -8.20105 -9.86178e-19)
(3.9332 -7.90977 -2.62963e-18)
(3.91839 -7.69078 -1.59964e-18)
(3.8971 -7.50117 -7.58738e-19)
(3.87142 -7.31095 -7.41561e-19)
(3.83517 -7.11255 -2.42055e-18)
(3.78643 -6.90607 -4.90397e-20)
(3.72697 -6.69428 -1.94481e-18)
(3.65957 -6.4809 3.0218e-20)
(3.58709 -6.2696 -8.07392e-19)
(3.51206 -6.06339 -7.35699e-19)
(3.43657 -5.86454 6.71569e-19)
(3.36224 -5.67459 -6.14142e-19)
(3.29026 -5.49453 -5.62636e-19)
(3.22143 -5.32492 -5.16357e-19)
(3.15627 -5.16599 -1.3864e-18)
(3.09567 -5.01719 4.93259e-19)
(3.04093 -4.87689 1.19696e-18)
(2.98552 -4.74605 -1.27394e-18)
(4.75457 -8.31897 3.95193e-18)
(4.3097 -8.07775 4.85459e-18)
(4.26797 -7.80185 8.3388e-19)
(4.24732 -7.5908 3.99526e-18)
(4.2184 -7.40483 -7.83031e-19)
(4.18316 -7.21544 3.91239e-18)
(4.1359 -7.01657 1.14441e-18)
(4.07537 -6.8093 3.21267e-18)
(4.00383 -6.59693 -9.81962e-19)
(3.9245 -6.38346 2.71872e-18)
(3.84051 -6.17264 1.62629e-18)
(3.7546 -5.96748 1.48203e-18)
(3.66894 -5.77015 -2.0064e-18)
(3.58519 -5.58211 1.87949e-18)
(3.50452 -5.40424 1.13395e-18)
(3.42772 -5.23705 1.0409e-18)
(3.35529 -5.08076 9.57106e-19)
(3.28821 -4.93482 7.35504e-21)
(3.22784 -4.79762 8.12418e-19)
(3.16698 -4.67092 8.45491e-19)
(5.08677 -8.14201 -2.93466e-18)
(4.64527 -7.94024 1.08151e-18)
(4.59987 -7.67923 2.67529e-18)
(4.57364 -7.47583 -3.25924e-18)
(4.53703 -7.29343 7.53127e-19)
(4.49199 -7.10506 -2.61748e-18)
(4.43347 -6.90608 1.28284e-18)
(4.36087 -6.69851 -2.1496e-18)
(4.27705 -6.48614 4.90022e-20)
(4.18563 -6.27319 1.19273e-20)
(4.09006 -6.06348 -1.64874e-18)
(3.99323 -5.85997 -7.46336e-19)
(3.8974 -5.66476 1.37229e-18)
(3.80424 -5.47917 8.74623e-21)
(3.71491 -5.30399 -3.71561e-20)
(3.63017 -5.13968 -1.08643e-18)
(3.55052 -4.98644 -4.82432e-19)
(3.47699 -4.84373 -2.7116e-20)
(3.4111 -4.71 -8.46724e-19)
(3.34501 -4.58795 -4.26987e-19)
(5.41247 -7.95174 0)
(4.97653 -7.78857 -1.99831e-18)
(4.92825 -7.5419 2.36982e-20)
(4.89665 -7.34584 3.25465e-18)
(4.85226 -7.16698 1.36214e-18)
(4.79721 -6.97984 -1.41791e-18)
(4.72716 -6.78116 -1.22142e-18)
(4.64227 -6.57381 0)
(4.54598 -6.36202 -9.72152e-19)
(4.44238 -6.15022 9.27781e-19)
(4.33517 -5.94224 -3.90401e-20)
(4.2274 -5.74098 0)
(4.12141 -5.54843 -6.90841e-19)
(4.01887 -5.36582 5.98362e-19)
(3.92091 -5.19383 4.99856e-19)
(3.82824 -5.03282 -6.03481e-19)
(3.74135 -4.88301 -5.23511e-19)
(3.66138 -4.74389 9.09051e-19)
(3.58997 -4.61401 -8.38922e-19)
(3.51878 -4.49722 4.41575e-19)
(5.73121 -7.74833 3.03192e-18)
(5.30291 -7.62282 -2.05808e-18)
(5.25244 -7.38988 -1.75632e-18)
(5.21562 -7.20086 8.17682e-19)
(5.16336 -7.02554 -1.58638e-18)
(5.09807 -6.83986 0)
(5.01626 -6.64189 0)
(4.91888 -6.4353 0)
(4.81 -6.22472 -4.44404e-20)
(4.69414 -6.01468 -1.86196e-18)
(4.57527 -5.80904 8.79361e-19)
(4.4566 -5.61061 7.43663e-19)
(4.34049 -5.42129 6.29263e-19)
(4.22861 -5.24215 -2.58229e-18)
(4.12205 -5.07378 1.2242e-18)
(4.02145 -4.91649 0)
(3.92728 -4.77047 -3.03959e-20)
(3.84075 -4.63524 -1.40996e-18)
(3.76363 -4.50957 -5.69003e-21)
(3.68731 -4.39839 -4.42063e-19)
(6.04262 -7.53207 -2.06229e-18)
(5.62386 -7.44311 -1.08504e-18)
(5.57176 -7.22324 8.17466e-19)
(5.52985 -7.04096 -1.43891e-19)
(5.46959 -6.86919 -4.62432e-18)
(5.39386 -6.68525 4.18491e-18)
(5.30007 -6.48844 -4.87959e-20)
(5.19005 -6.28317 1.14613e-18)
(5.06849 -6.07439 1.0283e-18)
(4.94033 -5.86674 9.4417e-19)
(4.80983 -5.66404 8.59167e-19)
(4.68031 -5.46901 1.5354e-18)
(4.55416 -5.28341 -7.39004e-19)
(4.43302 -5.10823 1.91548e-18)
(4.31791 -4.94392 -1.23832e-18)
(4.20942 -4.79074 -5.12234e-19)
(4.10795 -4.64889 2.05745e-18)
(4.01477 -4.51791 1.37455e-18)
(3.93182 -4.39658 -2.79276e-20)
(3.85057 -4.29076 0)
(6.34668 -7.30344 -1.04857e-18)
(5.93898 -7.24964 2.07353e-18)
(5.88555 -7.04204 1.81522e-18)
(5.83858 -6.86619 -1.45865e-19)
(5.77021 -6.69802 -1.56897e-18)
(5.68383 -6.51613 7.06364e-20)
(5.5779 -6.32097 1.31507e-20)
(5.45511 -6.11761 1.17177e-20)
(5.32083 -5.91125 0)
(5.18042 -5.7066 9.23446e-19)
(5.03835 -5.5074 -1.75763e-18)
(4.89806 -5.31628 -7.521e-19)
(4.76196 -5.13488 7.46639e-19)
(4.63161 -4.96406 -6.55101e-19)
(4.50797 -4.80422 6.06714e-19)
(4.39157 -4.65559 -5.5231e-19)
(4.28279 -4.51836 4.8938e-21)
(4.18303 -4.39192 -4.69196e-19)
(4.09453 -4.27497 -4.3342e-19)
(4.00912 -4.1752 -4.33712e-19)
(6.64373 -7.06291 0)
(6.24802 -7.04233 -1.01096e-18)
(6.19316 -6.8462 9.99356e-19)
(6.14108 -6.67663 1.74345e-18)
(6.06447 -6.51221 -1.57762e-18)
(5.96727 -6.33276 1.3628e-18)
(5.84906 -6.13978 -2.62032e-18)
(5.71347 -5.93892 -2.32682e-18)
(5.5665 -5.7356 -1.01502e-18)
(5.41391 -5.53453 4.43877e-20)
(5.26042 -5.33936 -8.40455e-19)
(5.1095 -5.1526 3.48932e-20)
(4.96352 -4.97574 0)
(4.82396 -4.80957 -1.28502e-18)
(4.69165 -4.65442 6.55794e-19)
(4.56699 -4.51054 0)
(4.45041 -4.37805 -5.13553e-19)
(4.34352 -4.2561 -9.23287e-19)
(4.24856 -4.1443 9.07223e-19)
(4.15796 -4.05527 4.47828e-19)
(6.93338 -6.80971 0)
(6.55035 -6.82046 0)
(6.49387 -6.63566 -1.85372e-18)
(6.43657 -6.47256 -1.59379e-18)
(6.35167 -6.31216 3.23486e-18)
(6.24357 -6.13556 0)
(6.113 -5.9453 0)
(5.96461 -5.74754 1.16896e-18)
(5.80504 -5.54787 0)
(5.64047 -5.35094 0)
(5.47577 -5.1603 0)
(5.31447 -4.97828 0)
(5.15887 -4.80621 0)
(5.01027 -4.64476 0)
(4.86926 -4.49418 0)
(4.73593 -4.35463 0)
(4.61056 -4.22598 0)
(4.49422 -4.10757 0)
(4.38704 -4.00246 0)
(4.28287 -3.92793 0)
(10.0427 0.087734 1.47196e-19)
(10.0222 -0.307624 2.86387e-19)
(9.98644 -0.700307 -2.94143e-19)
(9.93594 -1.09017 5.86463e-19)
(9.87045 -1.47688 -5.86462e-19)
(9.78983 -1.85993 -5.54174e-19)
(9.6942 -2.23877 -5.52628e-19)
(9.58375 -2.61287 1.7405e-18)
(9.45873 -2.98167 -1.15961e-18)
(9.3194 -3.34462 1.1499e-18)
(9.16603 -3.70117 -1.1499e-18)
(8.99894 -4.05079 1.14141e-18)
(8.81845 -4.39297 -2.26353e-18)
(8.62491 -4.72719 3.33331e-18)
(8.41869 -5.05298 0)
(8.20019 -5.36988 -3.27491e-18)
(7.96978 -5.67747 1.63143e-20)
(7.72801 -5.97539 3.30043e-18)
(7.47496 -6.26349 0)
(7.21232 -6.54109 0)
(10.1184 -0.210736 0)
(10.0772 -0.606771 -1.50377e-20)
(10.0192 -0.99901 0)
(9.94509 -1.38711 5.61143e-19)
(9.85512 -1.77065 5.84378e-19)
(9.74948 -2.14903 -1.69133e-18)
(9.62848 -2.52161 2.94466e-18)
(9.49246 -2.88776 -1.16242e-18)
(9.34179 -3.2469 -1.10803e-18)
(9.17687 -3.59844 -1.10351e-18)
(8.99812 -3.9418 4.45621e-20)
(8.80596 -4.27644 1.13067e-18)
(8.60086 -4.60183 -5.62089e-18)
(8.38331 -4.91749 -1.17882e-18)
(8.1538 -5.22294 2.24604e-18)
(7.91284 -5.51776 2.24308e-18)
(7.66089 -5.80156 1.13966e-18)
(7.39855 -6.07401 -2.19752e-18)
(7.1259 -6.33484 1.04063e-18)
(6.8439 -6.58371 0)
(10.0693 -0.149274 1.32529e-19)
(10.0315 -0.540843 -2.71401e-19)
(9.97636 -0.929239 7.8373e-19)
(9.90423 -1.31377 -5.55253e-19)
(9.81549 -1.69378 -5.29403e-19)
(9.71053 -2.06856 5.52744e-19)
(9.58969 -2.43739 0)
(9.45339 -2.79957 0)
(9.30205 -3.15443 2.09875e-18)
(9.1361 -3.50134 3.13096e-18)
(8.95604 -3.83967 -9.90221e-19)
(8.76235 -4.16883 3.09602e-18)
(8.55554 -4.48826 -9.86057e-19)
(8.33617 -4.79743 -3.01556e-18)
(8.10478 -5.09583 1.35934e-20)
(7.86194 -5.383 1.93564e-18)
(7.60818 -5.6585 -8.73644e-19)
(7.34409 -5.92192 -1.90435e-18)
(7.07002 -6.17289 -1.02869e-18)
(6.7867 -6.41091 1.8716e-18)
(9.9026 -0.112589 0)
(9.87161 -0.494907 2.28793e-19)
(9.82336 -0.874881 2.27851e-19)
(9.75802 -1.25161 -9.36113e-19)
(9.67592 -1.6243 0)
(9.57741 -1.99218 0)
(9.46285 -2.35447 0)
(9.33261 -2.71043 0)
(9.1871 -3.05935 -9.90643e-19)
(9.02677 -3.40053 -9.86884e-19)
(8.8521 -3.73331 0)
(8.66359 -4.05706 1.86583e-18)
(8.46177 -4.37116 -4.6131e-18)
(8.24719 -4.67503 3.70938e-18)
(8.02043 -4.96812 -3.59533e-18)
(7.78206 -5.24991 -8.72412e-19)
(7.53267 -5.51991 1.56401e-19)
(7.27286 -5.77766 1.54808e-19)
(7.00316 -6.02268 -1.77685e-18)
(6.7243 -6.2545 -7.08792e-20)
(9.64922 -0.0991154 0)
(9.62563 -0.469194 -2.25641e-19)
(9.58521 -0.837585 0)
(9.52803 -1.20338 4.51407e-19)
(9.45431 -1.56576 4.30298e-19)
(9.36435 -1.9239 3.93375e-19)
(9.25845 -2.27705 0)
(9.13696 -2.62444 0)
(9.00025 -2.96532 0)
(8.84873 -3.29897 0)
(8.68285 -3.62471 8.12625e-19)
(8.50309 -3.94187 8.75541e-19)
(8.30996 -4.2498 8.70558e-19)
(8.10399 -4.54788 -8.83863e-19)
(7.88574 -4.83553 -1.52103e-18)
(7.6558 -5.11218 1.72674e-18)
(7.41475 -5.3773 3.34777e-18)
(7.16321 -5.63036 1.62835e-18)
(6.90176 -5.87087 0)
(6.63111 -6.09833 -1.53464e-18)
(9.34203 -0.0903101 4.63733e-20)
(9.3254 -0.44621 0)
(9.29257 -0.800993 -7.59949e-19)
(9.24353 -1.1538 1.83688e-23)
(9.17844 -1.50382 1.61634e-20)
(9.09754 -1.85025 -6.84915e-20)
(9.00108 -2.19233 0)
(8.88936 -2.52929 3.09143e-20)
(8.7627 -2.8604 -7.71488e-19)
(8.62147 -3.18492 1.5031e-18)
(8.46607 -3.50217 -1.5674e-18)
(8.29694 -3.81145 8.56334e-19)
(8.11455 -4.11213 -4.48841e-18)
(7.91942 -4.40355 2.96038e-18)
(7.71206 -4.6851 1.56932e-18)
(7.49304 -4.95621 0)
(7.26293 -5.21628 -2.8966e-18)
(7.02232 -5.46479 -6.15079e-20)
(6.77182 -5.70119 -2.85258e-18)
(6.51207 -5.92496 2.96497e-18)
(9.00958 -0.0854879 4.17026e-20)
(8.99859 -0.426389 -8.73638e-20)
(8.97212 -0.766639 7.16311e-19)
(8.93015 -1.10544 -1.40644e-20)
(8.87277 -1.442 7.16163e-19)
(8.80018 -1.77556 -1.0817e-18)
(8.71258 -2.10536 0)
(8.61022 -2.43067 7.29211e-19)
(8.49337 -2.75077 6.67649e-19)
(8.36237 -3.06494 -7.25128e-19)
(8.21757 -3.3725 1.32664e-18)
(8.05936 -3.67278 2.81261e-18)
(7.88818 -3.96511 -1.30799e-18)
(7.70449 -4.24888 -1.41785e-18)
(7.50879 -4.52345 1.35967e-18)
(7.3016 -4.78823 0)
(7.08346 -5.04263 6.49019e-20)
(6.85495 -5.28609 9.79442e-21)
(6.61665 -5.51805 2.70259e-18)
(6.36916 -5.73796 1.25642e-18)
(8.67309 -0.0842905 0)
(8.66615 -0.410238 6.25338e-21)
(8.6445 -0.735881 -1.45747e-19)
(8.60811 -1.06047 -6.47299e-19)
(8.55703 -1.38326 6.08432e-19)
(8.49142 -1.70352 0)
(8.41143 -2.02054 1.23839e-18)
(8.31729 -2.3336 -1.36076e-21)
(8.20924 -2.64202 -1.8914e-18)
(8.08755 -2.94513 0)
(7.95254 -3.24224 -1.30552e-18)
(7.80458 -3.53271 4.59782e-20)
(7.64404 -3.81591 -3.66975e-18)
(7.47137 -4.09122 6.46537e-21)
(7.28701 -4.35801 1.22998e-18)
(7.09147 -4.61571 0)
(6.88525 -4.86372 -1.20724e-18)
(6.66891 -5.10147 8.68795e-21)
(6.44298 -5.32839 1.19856e-18)
(6.20804 -5.54392 -1.23641e-18)
(8.34638 -0.0853535 0)
(8.34206 -0.396929 1.49435e-19)
(8.32379 -0.708431 3.1005e-19)
(8.29152 -1.01916 -5.73879e-19)
(8.2453 -1.32842 -2.47108e-20)
(8.18523 -1.63551 -2.86808e-19)
(8.11148 -1.93977 -1.14812e-18)
(8.0242 -2.24052 5.70801e-19)
(7.92363 -2.53711 2.38025e-20)
(7.81 -2.82889 5.67386e-19)
(7.6836 -3.11524 5.22302e-19)
(7.54475 -3.39552 2.26203e-18)
(7.39382 -3.66913 1.13147e-18)
(7.23119 -3.93548 2.23479e-18)
(7.05731 -4.19398 -1.11447e-18)
(6.87263 -4.44404 3.86486e-20)
(6.67764 -4.6851 -1.10131e-18)
(6.47286 -4.91658 0)
(6.25883 -5.13791 1.041e-18)
(6.03604 -5.34851 0)
(8.03737 -0.0875534 6.50578e-20)
(8.03451 -0.385627 -1.90533e-19)
(8.01841 -0.683769 5.22605e-19)
(7.98903 -0.981324 -2.60717e-19)
(7.94639 -1.27764 1.8972e-20)
(7.89059 -1.57206 -2.60563e-19)
(7.82176 -1.86395 5.41707e-19)
(7.74005 -2.15269 -5.1843e-19)
(7.64565 -2.43766 5.18428e-19)
(7.53879 -2.71824 9.94295e-19)
(7.41973 -2.99385 -1.07145e-18)
(7.28876 -3.2639 -4.50765e-20)
(7.14622 -3.52781 -3.10135e-18)
(6.99248 -3.78502 5.37129e-21)
(6.82794 -4.03497 4.02526e-20)
(6.65305 -4.27711 2.01053e-18)
(6.46829 -4.51088 -9.93135e-19)
(6.27414 -4.73572 -9.45958e-19)
(6.07112 -4.95107 -3.7433e-20)
(5.85973 -5.15631 0)
(7.74965 -0.0901459 0)
(7.7474 -0.37571 2.42024e-19)
(7.73257 -0.661415 -8.32163e-19)
(7.70511 -0.946647 -2.2077e-19)
(7.66504 -1.23079 4.93764e-19)
(7.61245 -1.51323 0)
(7.54745 -1.79338 0)
(7.47018 -2.07064 4.71953e-19)
(7.38081 -2.34444 -4.71951e-19)
(7.27955 -2.6142 3.97539e-19)
(7.16664 -2.87937 -4.68909e-19)
(7.04237 -3.13939 9.29884e-19)
(6.90703 -3.39373 -1.85516e-18)
(6.76098 -3.64187 1.84557e-18)
(6.60463 -3.88328 3.46466e-20)
(6.43838 -4.11744 -9.49227e-19)
(6.26271 -4.34382 -9.03249e-19)
(6.07812 -4.56187 1.83998e-18)
(5.88512 -4.77104 8.61334e-19)
(5.68417 -4.9707 0)
(7.48401 -0.0926579 1.87638e-21)
(7.48181 -0.36671 1.58897e-19)
(7.46761 -0.640931 3.33618e-19)
(7.44137 -0.914742 2.33521e-19)
(7.40311 -1.18756 2.16615e-19)
(7.35291 -1.45882 2.01497e-19)
(7.29087 -1.72794 0)
(7.21713 -1.99439 -8.32702e-19)
(7.13184 -2.25761 -4.29264e-19)
(7.0352 -2.51706 3.66183e-19)
(6.92744 -2.77224 0)
(6.80881 -3.02261 8.47841e-19)
(6.67961 -3.2677 -2.50752e-18)
(6.54018 -3.50702 8.435e-19)
(6.3909 -3.74007 0)
(6.23219 -3.96639 -8.01992e-19)
(6.06454 -4.18546 -1.61982e-18)
(5.88842 -4.39678 7.97058e-19)
(5.70439 -4.59978 -2.91887e-20)
(5.51291 -4.79381 0)
(7.23958 -0.0947909 3.46192e-21)
(7.23707 -0.358284 -1.02834e-19)
(7.22308 -0.621938 1.98447e-19)
(7.19758 -0.885209 -1.31115e-20)
(7.16059 -1.14755 3.96543e-19)
(7.11219 -1.40841 -6.09021e-19)
(7.05247 -1.66727 0)
(6.98156 -1.9236 5.59887e-20)
(6.89961 -2.17689 0)
(6.80681 -2.42664 -8.12968e-19)
(6.70335 -2.67236 0)
(6.5895 -2.91358 -7.50245e-19)
(6.46554 -3.14983 2.31883e-18)
(6.33179 -3.38069 -1.53656e-18)
(6.18863 -3.6057 7.6607e-19)
(6.03647 -3.82444 -6.77769e-19)
(5.87582 -4.03644 7.82916e-19)
(5.70716 -4.24125 -7.77561e-19)
(5.53114 -4.43824 0)
(5.34818 -4.6268 0)
(7.01458 -0.0964234 4.70542e-20)
(7.01156 -0.350205 0)
(6.99754 -0.60413 0)
(6.97247 -0.857679 -3.77006e-19)
(6.93639 -1.11033 -3.51855e-19)
(6.88937 -1.36157 0)
(6.83151 -1.6109 0)
(6.76293 -1.85781 4.9813e-20)
(6.68376 -2.10183 6.96782e-19)
(6.59418 -2.34248 -3.36025e-19)
(6.4944 -2.57932 -3.58016e-19)
(6.38464 -2.81189 1.44624e-18)
(6.26518 -3.03979 -2.14754e-18)
(6.13634 -3.26262 1.38483e-18)
(5.99847 -3.47997 0)
(5.852 -3.6915 2.78214e-18)
(5.69745 -3.89675 -2.01994e-18)
(5.53534 -4.09538 6.87187e-19)
(5.36643 -4.2867 1.3142e-18)
(5.19114 -4.47013 0)
(6.8069 -0.0974903 -4.04529e-20)
(6.80328 -0.342314 0)
(6.78907 -0.587259 -5.21721e-21)
(6.76424 -0.831826 -3.23734e-19)
(6.72885 -1.07552 1.00316e-18)
(6.68294 -1.31784 -1.66872e-19)
(6.62663 -1.55831 0)
(6.56 -1.79647 1.3293e-18)
(6.48321 -2.03185 -6.8458e-19)
(6.39642 -2.26401 4.44472e-20)
(6.29982 -2.49253 6.34427e-19)
(6.19363 -2.717 6.50298e-19)
(6.0781 -2.93703 -1.2968e-18)
(5.95354 -3.15229 -1.26841e-18)
(5.8203 -3.3624 -1.23893e-18)
(5.67879 -3.56712 -1.3184e-18)
(5.52957 -3.766 1.30942e-18)
(5.37316 -3.95891 -6.25084e-19)
(5.21059 -4.14498 -6.66104e-19)
(5.04216 -4.32387 0)
(6.61432 -0.0979713 3.97439e-20)
(6.61006 -0.334504 -1.49226e-19)
(6.5956 -0.571129 -1.54483e-19)
(6.57093 -0.807366 4.62566e-19)
(6.53609 -1.04274 -1.64273e-19)
(6.49114 -1.27678 -1.53549e-19)
(6.43616 -1.50903 0)
(6.37126 -1.73903 -6.31152e-19)
(6.29658 -1.96637 0)
(6.21227 -2.19061 6.26269e-19)
(6.11851 -2.41136 -1.20682e-18)
(6.0155 -2.62824 5.97394e-19)
(5.90348 -2.84089 -1.19112e-18)
(5.78273 -3.04903 1.22916e-18)
(5.65359 -3.25234 6.69032e-19)
(5.51644 -3.45068 0)
(5.37189 -3.64359 -5.77455e-19)
(5.22042 -3.83131 5.77455e-19)
(5.06349 -4.01261 0)
(4.90107 -4.18785 0)
(6.43471 -0.0979537 0)
(6.42984 -0.326754 1.46613e-19)
(6.41514 -0.555615 4.71842e-21)
(6.3906 -0.784076 -1.51174e-19)
(6.35626 -1.01168 -1.33305e-19)
(6.31218 -1.23799 -1.41526e-19)
(6.25844 -1.46255 5.46999e-19)
(6.19515 -1.68495 0)
(6.12243 -1.90476 0)
(6.04042 -2.1216 2.77986e-19)
(5.9493 -2.33507 2.95306e-19)
(5.84924 -2.54485 1.06877e-18)
(5.74047 -2.75059 -5.4609e-19)
(5.62322 -2.95205 5.46088e-19)
(5.49782 -3.14895 5.79723e-19)
(5.36459 -3.34131 3.39076e-20)
(5.22419 -3.52865 -1.0647e-18)
(5.07698 -3.71175 3.77674e-21)
(4.92512 -3.88871 5.26582e-19)
(4.76775 -4.06154 0)
(6.26617 -0.0974405 -3.27692e-20)
(6.26076 -0.319032 3.27688e-20)
(6.24587 -0.540657 0)
(6.22149 -0.761868 1.23426e-19)
(6.18766 -0.982229 4.00928e-19)
(6.14445 -1.20131 -5.06722e-19)
(6.09193 -1.4187 -5.37444e-19)
(6.03021 -1.63399 0)
(5.9594 -1.84677 0)
(5.87963 -2.05669 0)
(5.79107 -2.26337 -9.92141e-19)
(5.69387 -2.46649 -6.40587e-20)
(5.58824 -2.66576 -5.03052e-19)
(5.47436 -2.86096 3.01534e-20)
(5.35251 -3.05185 -9.94835e-19)
(5.22293 -3.23859 1.51614e-18)
(5.08632 -3.42072 -1.43656e-18)
(4.94273 -3.59984 4.87655e-19)
(4.79544 -3.77297 9.34854e-19)
(4.64174 -3.945 0)
(6.10699 -0.0960819 2.94395e-20)
(6.10114 -0.311138 0)
(6.08614 -0.526215 -1.21203e-19)
(6.06199 -0.740876 -2.49749e-19)
(6.02871 -0.954704 1.21051e-19)
(5.98638 -1.16729 9.66644e-19)
(5.93508 -1.37823 0)
(5.87488 -1.58715 -4.65553e-19)
(5.80592 -1.79365 -2.38115e-19)
(5.72831 -1.9974 -4.47327e-19)
(5.64218 -2.19805 -1.78973e-19)
(5.54769 -2.39529 -1.41227e-18)
(5.44501 -2.58884 -9.32182e-19)
(5.33425 -2.77851 9.5892e-19)
(5.21568 -2.96411 9.17864e-19)
(5.0893 -3.14587 -3.88051e-21)
(4.95593 -3.32344 2.99049e-20)
(4.81481 -3.4994 4.49325e-19)
(4.67103 -3.66997 -9.18588e-19)
(4.51787 -3.845 0)
(5.95556 -0.0944097 -6.15637e-20)
(5.94942 -0.303207 3.03067e-20)
(5.93446 -0.512092 -1.21081e-19)
(5.91068 -0.720675 1.21024e-19)
(5.8781 -0.928563 -3.48081e-19)
(5.83676 -1.13536 -1.08388e-18)
(5.78673 -1.3407 0)
(5.72809 -1.5442 4.92595e-19)
(5.66092 -1.7455 -4.60587e-19)
(5.58533 -1.94427 9.75323e-19)
(5.50142 -2.14018 9.69527e-19)
(5.40931 -2.33293 1.4284e-18)
(5.30912 -2.52225 -9.26866e-19)
(5.20091 -2.70793 4.61675e-19)
(5.0849 -2.88981 -4.54026e-19)
(4.96073 -3.06809 4.54049e-19)
(4.8295 -3.2425 0)
(4.68852 -3.41626 4.11075e-19)
(4.54681 -3.5852 -4.02265e-19)
(4.38925 -3.77145 0)
(7.13934 7.26132 0)
(7.41929 6.97155 0)
(7.68633 6.6722 1.08639e-18)
(7.94118 6.36377 2.02199e-20)
(8.18326 6.04598 -1.14942e-18)
(8.41192 5.71889 0)
(8.62674 5.38291 1.18612e-18)
(8.82738 5.03856 -2.23778e-18)
(9.01354 4.68643 -1.1309e-18)
(9.18492 4.32712 -1.14147e-18)
(9.34126 3.96126 1.14146e-18)
(9.48233 3.58952 -1.15354e-18)
(9.60794 3.21256 5.7541e-19)
(9.71789 2.83112 5.49181e-19)
(9.81202 2.44583 5.51326e-19)
(9.89028 2.05737 -5.85122e-19)
(9.95265 1.6664 5.85122e-19)
(9.99918 1.27362 -2.93738e-19)
(10.0299 0.87943 -1.39523e-19)
(10.0452 0.485185 7.34908e-20)
(7.41526 7.06867 0)
(7.69537 6.7793 -9.95425e-19)
(7.9617 6.47837 -2.12818e-18)
(8.21453 6.16656 3.14713e-18)
(8.45362 5.84417 -2.18244e-18)
(8.67847 5.51168 2.19314e-18)
(8.88859 5.16968 1.19236e-18)
(9.08358 4.81883 -3.38344e-18)
(9.26304 4.45983 1.10686e-18)
(9.42661 4.09339 2.20032e-18)
(9.57399 3.72023 1.08404e-18)
(9.70492 3.34112 1.09091e-18)
(9.81924 2.95685 -1.1512e-18)
(9.91673 2.56814 1.69513e-18)
(9.99711 2.17578 -2.35188e-18)
(10.0603 1.78066 5.80512e-19)
(10.1063 1.38356 -5.57818e-19)
(10.1352 0.985306 0)
(10.1469 0.586434 1.51512e-20)
(10.1417 0.18792 0)
(7.27181 6.94351 -1.75271e-18)
(7.55471 6.67154 9.84037e-19)
(7.82507 6.38672 1.79994e-18)
(8.08244 6.08972 8.14799e-19)
(8.3264 5.7811 2.0408e-18)
(8.55642 5.46148 2.00005e-20)
(8.77197 5.13154 -1.02291e-18)
(8.97257 4.79195 -3.04843e-18)
(9.15776 4.44345 3.00959e-18)
(9.32711 4.08675 -3.0894e-18)
(9.48023 3.7226 -1.02924e-18)
(9.61682 3.35177 -2.05921e-18)
(9.73656 2.97506 0)
(9.83924 2.59325 0)
(9.92473 2.20724 0)
(9.99284 1.81793 -5.2488e-19)
(10.0434 1.42617 5.49735e-19)
(10.0765 1.0328 5.26573e-19)
(10.0918 0.63855 6.26716e-21)
(10.0895 0.244377 1.32252e-19)
(7.04433 6.69135 1.82035e-18)
(7.32395 6.43804 -1.65303e-18)
(7.59223 6.17161 -1.6952e-19)
(7.84844 5.89261 -1.70478e-19)
(8.09203 5.6016 4.29723e-18)
(8.32243 5.2992 -7.12279e-20)
(8.53911 4.98603 3.75967e-21)
(8.74152 4.66275 -2.71746e-18)
(8.92918 4.33003 1.79295e-18)
(9.1016 3.98858 0)
(9.2583 3.63916 9.61665e-19)
(9.39894 3.28261 9.68316e-19)
(9.52323 2.9197 0)
(9.63086 2.55128 0)
(9.72162 2.17815 0)
(9.7953 1.80115 0)
(9.85171 1.42108 -2.16971e-20)
(9.89073 1.03881 4.74114e-19)
(9.91225 0.65516 -2.27669e-19)
(9.91627 0.271074 0)
(6.7816 6.37664 1.54165e-18)
(7.05335 6.14117 0)
(7.31488 5.89278 -4.53895e-18)
(7.56537 5.63187 -1.54711e-18)
(7.8042 5.35898 -1.62581e-18)
(8.03078 5.07466 -1.72346e-18)
(8.24455 4.77948 8.14269e-19)
(8.44495 4.47404 -8.55728e-19)
(8.63145 4.15899 2.37607e-18)
(8.80361 3.83501 -7.77857e-19)
(8.96099 3.50285 0)
(9.10311 3.16327 0)
(9.22957 2.81695 0)
(9.34011 2.46469 0)
(9.43446 2.10728 -1.22838e-18)
(9.51236 1.74554 4.22384e-19)
(9.5736 1.38028 -4.46187e-19)
(9.61802 1.01232 0)
(9.64549 0.642512 2.24533e-19)
(9.65592 0.271741 0)
(6.50662 6.04949 1.31877e-18)
(6.76814 5.83017 -4.79769e-20)
(7.02037 5.59832 2.77397e-18)
(7.26252 5.3543 1.38585e-18)
(7.49392 5.09855 0)
(7.714 4.8316 -1.47166e-18)
(7.92218 4.55396 6.84643e-20)
(8.11793 4.2662 -1.494e-18)
(8.30071 3.9689 2.06677e-18)
(8.47006 3.66272 3.27233e-20)
(8.62554 3.34829 2.81017e-20)
(8.7667 3.02623 -7.45495e-19)
(8.89313 2.69728 1.46206e-18)
(9.00452 2.3622 0)
(9.10059 2.0217 6.85272e-20)
(9.18104 1.6766 7.46445e-19)
(9.24562 1.32767 1.63583e-21)
(9.29413 0.975704 -1.5337e-20)
(9.32645 0.621492 0)
(9.34244 0.265871 -4.62769e-20)
(6.24072 5.73253 0)
(6.49091 5.52718 -4.89009e-20)
(6.73256 5.30984 1.75463e-20)
(6.96491 5.0808 -2.50747e-18)
(7.18732 4.84045 0)
(7.39922 4.58926 1.26815e-18)
(7.60007 4.32771 1.3508e-18)
(7.78934 4.05631 -3.92997e-18)
(7.96652 3.77559 -6.82358e-20)
(8.13115 3.48615 -1.26189e-18)
(8.28279 3.18855 6.94832e-19)
(8.42101 2.88343 -6.41819e-19)
(8.54542 2.57147 -7.05586e-19)
(8.65563 2.25333 0)
(8.75142 1.92975 3.72256e-19)
(8.83257 1.60133 -1.68975e-20)
(8.8987 1.26893 -3.45561e-19)
(8.94958 0.933291 -1.67596e-20)
(8.98511 0.595152 -8.6987e-20)
(9.00513 0.255289 1.74347e-19)
(5.99509 5.43734 0)
(6.23369 5.24384 1.08421e-18)
(6.46435 5.03892 1.61574e-20)
(6.68635 4.82282 -1.10033e-18)
(6.89906 4.59591 0)
(7.10196 4.35861 1.14472e-18)
(7.29452 4.11133 -1.09291e-18)
(7.47624 3.85457 -1.20992e-18)
(7.64665 3.5888 2.30136e-18)
(7.80529 3.31457 1.24182e-18)
(7.95174 3.03242 0)
(8.08561 2.74295 6.05691e-19)
(8.2065 2.44678 -4.38374e-21)
(8.31411 2.14455 2.18535e-20)
(8.40802 1.83692 0)
(8.48809 1.52453 -5.96179e-19)
(8.55416 1.208 -3.12344e-19)
(8.60581 0.888117 4.56348e-19)
(8.64294 0.565631 3.07687e-19)
(8.66537 0.241243 -4.11282e-20)
(5.7734 5.16884 0)
(6.00074 4.98532 -9.36356e-19)
(6.2206 4.79096 0)
(6.43229 4.58597 -1.01025e-18)
(6.63523 4.37067 1.98895e-18)
(6.82892 4.14543 -2.02839e-18)
(7.01287 3.91065 3.17407e-18)
(7.1866 3.66678 -3.16491e-18)
(7.34968 3.41426 -2.13831e-18)
(7.50168 3.1536 -1.57711e-18)
(7.6422 2.88532 5.40824e-19)
(7.77086 2.60998 -1.12124e-18)
(7.88731 2.32815 1.86371e-20)
(7.99122 2.04043 1.11457e-18)
(8.08231 1.7474 -2.80398e-19)
(8.16019 1.44981 1.14866e-18)
(8.22479 1.14812 -5.64949e-19)
(8.27593 0.843045 2.60281e-19)
(8.31333 0.535326 -1.48446e-19)
(8.33682 0.225624 0)
(5.57538 4.92744 0)
(5.79211 4.75238 1.81144e-18)
(6.0017 4.56702 8.78646e-19)
(6.20351 4.37158 -9.04459e-19)
(6.397 4.16631 -1.85278e-18)
(6.58168 3.95156 2.81935e-18)
(6.75712 3.7277 1.1275e-20)
(6.92287 3.49512 -9.18946e-19)
(7.07852 3.25428 1.97291e-18)
(7.22368 3.00565 1.01895e-18)
(7.35797 2.74971 -9.51931e-19)
(7.48104 2.48699 4.99861e-19)
(7.59256 2.21803 2.2521e-20)
(7.69221 1.94339 -5.25985e-19)
(7.77972 1.66366 -2.54877e-19)
(7.85479 1.37941 5.11063e-19)
(7.91721 1.09133 -2.56186e-19)
(7.96685 0.799921 -5.16976e-19)
(8.00355 0.505871 5.9904e-20)
(8.02706 0.209823 6.47785e-20)