/*--------------------------------*- C++ -*----------------------------------*\
  =========                 |
  \\      /  F ield         | OpenFOAM: The Open Source CFD Toolbox
   \\    /   O peration     | Website:  https://openfoam.org
    \\  /    A nd           | Version:  6.0
     \\/     M anipulation  |
\*---------------------------------------------------------------------------*/
FoamFile
{
    version     2.0;
    format      ascii;
    class       volVectorField;
    location    "2.496";
    object      U;
}
// * * * * * * * * * * * * * * * * * * * * * * * * * * * * * * * * * * * * * //

dimensions      [0 1 -1 0 0 0 0];

internalField   nonuniform List<vector> 
19200
(
(0.00651212 -0.479024 -4.56506e-22)
(0.00461606 -0.441535 2.53446e-22)
(0.00229523 -0.407884 1.30429e-22)
(-0.000363557 -0.377777 1.27253e-22)
(-0.00319099 -0.350913 1.55993e-22)
(-0.00602763 -0.327002 8.14659e-24)
(-0.00876314 -0.305767 2.49627e-22)
(-0.0113195 -0.286951 -2.55618e-23)
(-0.0136415 -0.270315 2.47185e-22)
(-0.0156922 -0.255635 1.08182e-22)
(-0.0174491 -0.242709 -1.0645e-23)
(-0.0189006 -0.231348 1.92175e-22)
(-0.0200434 -0.221382 3.60876e-22)
(-0.0208812 -0.212655 -2.62436e-22)
(-0.0214223 -0.205024 3.49436e-22)
(-0.0216791 -0.198362 3.30806e-22)
(-0.0216669 -0.192551 -3.24251e-22)
(-0.0214031 -0.187485 5.91306e-22)
(-0.020907 -0.18307 -3.95437e-22)
(-0.0201989 -0.179219 2.00626e-22)
(-0.0192998 -0.175855 3.08657e-22)
(-0.0182311 -0.172908 -1.10594e-22)
(-0.0170144 -0.170315 1.50637e-22)
(-0.0156712 -0.168014 -1.89914e-22)
(-0.0142233 -0.165953 4.35278e-24)
(-0.0126926 -0.164092 1.11928e-22)
(-0.0111009 -0.1624 -7.58791e-23)
(-0.00945608 -0.16085 4.22314e-23)
(-0.00775101 -0.159418 1.15279e-22)
(-0.00610165 -0.158077 5.63251e-22)
(0.0190849 -0.478127 -1.11574e-22)
(0.0162232 -0.439976 8.0118e-22)
(0.0130781 -0.405877 -4.47127e-22)
(0.0097324 -0.375489 -6.85359e-22)
(0.00634496 -0.348482 -3.46703e-22)
(0.00306285 -0.32454 -2.64404e-22)
(-1.58201e-05 -0.303365 -6.1363e-22)
(-0.0028242 -0.28468 7.3635e-23)
(-0.00531729 -0.268229 -1.21109e-22)
(-0.0074674 -0.253779 -5.11979e-22)
(-0.00926021 -0.241113 -1.46064e-21)
(-0.0106916 -0.230036 7.58286e-22)
(-0.0117651 -0.220369 -3.03183e-22)
(-0.0124902 -0.21195 1.16483e-22)
(-0.0128808 -0.204631 -7.91974e-22)
(-0.012954 -0.198279 -3.18679e-22)
(-0.0127296 -0.192772 3.12296e-23)
(-0.012229 -0.188002 1.19325e-21)
(-0.0114748 -0.18387 -6.20069e-22)
(-0.0104908 -0.180287 -3.57241e-22)
(-0.00930074 -0.177173 -1.58305e-21)
(-0.00792886 -0.174458 4.19779e-22)
(-0.00639927 -0.172074 -2.82517e-22)
(-0.00473586 -0.16996 5.29745e-22)
(-0.00296239 -0.168062 -2.66478e-22)
(-0.00110334 -0.166338 -4.32e-22)
(0.000817476 -0.164757 1.35591e-22)
(0.00279233 -0.163294 2.43626e-22)
(0.00483276 -0.161921 -4.17331e-22)
(0.0068041 -0.160615 2.64678e-22)
(0.0315687 -0.476958 -5.39108e-23)
(0.0277227 -0.438187 1.42745e-22)
(0.0237659 -0.403686 2.40128e-22)
(0.0197555 -0.373069 2.38227e-21)
(0.015837 -0.345968 -1.51572e-21)
(0.0121455 -0.322039 1.40134e-21)
(0.00876656 -0.300963 9.26261e-22)
(0.00575488 -0.282443 8.19798e-22)
(0.00314449 -0.266209 -8.35143e-22)
(0.000953101 -0.252014 -1.38676e-22)
(-0.00081394 -0.239632 2.3757e-21)
(-0.00216053 -0.228859 4.51842e-22)
(-0.00309742 -0.219508 -1.26783e-21)
(-0.00364049 -0.211412 1.00891e-21)
(-0.00380935 -0.204417 -2.07069e-23)
(-0.00362634 -0.198386 4.93457e-22)
(-0.00311576 -0.193192 3.63042e-22)
(-0.00230323 -0.188725 1.37929e-21)
(-0.00121523 -0.184881 -5.90107e-22)
(0.000121257 -0.181571 -1.91615e-22)
(0.00167903 -0.178711 -6.13876e-22)
(0.00343111 -0.176228 2.90982e-21)
(0.00535055 -0.174055 -2.52432e-21)
(0.00741109 -0.172127 8.15907e-22)
(0.00958653 -0.17039 4.67487e-22)
(0.0118499 -0.168799 -1.80668e-21)
(0.0141749 -0.167324 2.48443e-21)
(0.0165538 -0.165939 -2.53163e-22)
(0.0190038 -0.164615 -2.97219e-22)
(0.0213678 -0.163334 -2.55667e-21)
(0.0439953 -0.475506 -1.67978e-21)
(0.03914 -0.436183 -1.7725e-21)
(0.0343712 -0.401341 -2.38439e-21)
(0.0297127 -0.370547 1.13907e-23)
(0.0252913 -0.343403 1.4844e-22)
(0.0212273 -0.319533 -3.31721e-21)
(0.0175919 -0.298595 1.28005e-22)
(0.0144265 -0.280276 5.04612e-22)
(0.0117532 -0.264289 -6.77994e-23)
(0.00957886 -0.250376 1.00903e-21)
(0.00789915 -0.238301 -4.06298e-21)
(0.0067016 -0.227851 -2.80309e-21)
(0.00596778 -0.218834 1.00523e-21)
(0.00567503 -0.211075 2.33719e-21)
(0.00579767 -0.204417 -2.74076e-21)
(0.00630793 -0.198716 -4.56969e-22)
(0.00717669 -0.193845 -1.85058e-21)
(0.00837396 -0.189687 -9.24441e-22)
(0.00986928 -0.186137 1.67589e-21)
(0.0116321 -0.183103 -2.21373e-21)
(0.0136317 -0.180499 2.08439e-21)
(0.0158381 -0.178251 -2.48838e-21)
(0.0182212 -0.176287 -2.09636e-21)
(0.0207523 -0.174545 -1.62728e-21)
(0.0234026 -0.172965 -4.27688e-22)
(0.0261428 -0.171504 -3.59792e-21)
(0.0289428 -0.170127 3.84341e-22)
(0.031796 -0.168811 7.16805e-22)
(0.0347252 -0.167524 -2.19359e-21)
(0.0375475 -0.166253 4.39605e-22)
(0.0563691 -0.473764 -9.82254e-22)
(0.0504851 -0.433974 1.71742e-22)
(0.0449043 -0.398858 1.59141e-21)
(0.0396139 -0.367951 1.82621e-21)
(0.0347181 -0.340816 1.437e-21)
(0.0303192 -0.317052 6.39517e-22)
(0.026472 -0.296294 1.03128e-21)
(0.0232034 -0.278211 5.22764e-21)
(0.020522 -0.262502 -3.21906e-21)
(0.018423 -0.248898 6.78714e-23)
(0.016892 -0.237153 8.43712e-22)
(0.0159071 -0.227046 4.19825e-21)
(0.0154419 -0.218379 -2.96986e-21)
(0.0154664 -0.210971 2.28757e-21)
(0.0159487 -0.20466 -2.73465e-21)
(0.0168554 -0.1993 4.93006e-21)
(0.0181522 -0.194759 -1.47477e-21)
(0.0198046 -0.190916 5.64043e-23)
(0.0217781 -0.187666 2.77463e-21)
(0.0240382 -0.184912 2.12108e-21)
(0.0265508 -0.182566 -2.16634e-21)
(0.0292823 -0.180552 3.10826e-21)
(0.0321996 -0.178797 -1.51305e-21)
(0.0352713 -0.177238 1.78262e-21)
(0.0384658 -0.175813 2.57252e-21)
(0.0417503 -0.174474 1.03994e-21)
(0.0450926 -0.17319 3.21634e-21)
(0.0484849 -0.171931 -1.03402e-21)
(0.0519585 -0.170666 -2.80599e-22)
(0.0552996 -0.16939 -2.21546e-21)
(0.0686871 -0.471734 -7.26685e-22)
(0.0617617 -0.431567 -5.27972e-22)
(0.0553734 -0.396256 -1.82273e-21)
(0.0494702 -0.365299 -5.26852e-21)
(0.0441301 -0.338232 1.76389e-21)
(0.0394355 -0.314623 1.388e-22)
(0.0354225 -0.294087 -1.43821e-21)
(0.0321016 -0.276276 3.58848e-22)
(0.0294674 -0.260877 -1.76248e-22)
(0.0275024 -0.247608 -4.63297e-21)
(0.026181 -0.236215 1.93599e-21)
(0.0254718 -0.226471 3.71186e-21)
(0.0253396 -0.218169 -2.32768e-23)
(0.0257471 -0.211125 1.53509e-21)
(0.0266556 -0.205173 4.15401e-21)
(0.0280257 -0.200163 -3.01859e-21)
(0.0298181 -0.195958 5.56854e-21)
(0.0319934 -0.192438 -2.83992e-21)
(0.0345129 -0.189491 5.28302e-21)
(0.0373381 -0.187019 -4.13627e-21)
(0.0404313 -0.184933 1.90465e-21)
(0.0437551 -0.183153 5.48212e-21)
(0.047274 -0.181607 5.08528e-22)
(0.050952 -0.180227 -5.48063e-21)
(0.054756 -0.178953 3.19488e-21)
(0.0586489 -0.177732 3.97018e-22)
(0.0625945 -0.17653 -1.17497e-21)
(0.066587 -0.175317 4.55017e-21)
(0.0706643 -0.174059 1.771e-21)
(0.0745794 -0.172759 -1.86176e-21)
(0.0809448 -0.469419 2.13324e-21)
(0.0729723 -0.428973 1.2239e-22)
(0.0657866 -0.393548 -3.71308e-21)
(0.0592933 -0.362612 7.93583e-22)
(0.0535422 -0.335671 -1.28822e-21)
(0.0485929 -0.312269 8.58019e-22)
(0.0444615 -0.291999 2.19411e-21)
(0.0411407 -0.274498 4.44176e-21)
(0.0386096 -0.259439 -5.16645e-21)
(0.0368373 -0.246532 1.26866e-21)
(0.0357863 -0.235513 -1.08708e-21)
(0.035415 -0.226148 8.22467e-22)
(0.0356792 -0.218227 -3.67789e-21)
(0.0365338 -0.21156 -3.39384e-22)
(0.037933 -0.205977 6.78874e-21)
(0.0398316 -0.201324 -4.73991e-21)
(0.0421846 -0.197463 -3.28455e-21)
(0.0449478 -0.194269 -2.64371e-21)
(0.048078 -0.191629 4.74855e-21)
(0.0515328 -0.189443 1.13819e-21)
(0.0552706 -0.187617 -5.27836e-21)
(0.0592507 -0.186072 7.42161e-21)
(0.0634335 -0.184731 -6.92517e-21)
(0.0677807 -0.183528 4.8628e-21)
(0.0722544 -0.182399 -2.83655e-21)
(0.0768147 -0.181289 1.96236e-21)
(0.0814212 -0.180161 1.61832e-21)
(0.086069 -0.178981 -7.1879e-21)
(0.090804 -0.177713 3.15649e-21)
(0.0953426 -0.176369 7.2693e-23)
(0.0931375 -0.466826 -2.11686e-21)
(0.0841193 -0.426201 1.80647e-21)
(0.0761521 -0.390747 -4.00604e-21)
(0.0690962 -0.359906 7.93268e-21)
(0.0629706 -0.333153 -2.36329e-21)
(0.0578105 -0.310009 3.76206e-21)
(0.0536101 -0.29005 6.82283e-23)
(0.050343 -0.272896 -4.94178e-22)
(0.0479717 -0.258209 -9.38157e-22)
(0.046451 -0.245688 -5.91274e-23)
(0.0457311 -0.235064 -4.05688e-21)
(0.0457594 -0.226096 2.13532e-21)
(0.0464824 -0.21857 -2.87779e-21)
(0.0478467 -0.21229 -2.0053e-22)
(0.0497995 -0.207085 -9.01341e-21)
(0.0522892 -0.202797 2.97002e-21)
(0.0552652 -0.199285 1.95179e-21)
(0.0586784 -0.196422 -2.21619e-21)
(0.062481 -0.194092 -2.51706e-22)
(0.0666265 -0.192192 -3.80274e-21)
(0.0710694 -0.190629 -1.43617e-21)
(0.0757653 -0.189317 2.04124e-22)
(0.0806711 -0.188181 -3.83714e-21)
(0.0857443 -0.187151 -6.12447e-21)
(0.0909441 -0.186161 2.15381e-22)
(0.0962261 -0.185155 -7.75744e-22)
(0.101546 -0.184091 2.21476e-21)
(0.106899 -0.182932 -5.70159e-21)
(0.112341 -0.181635 5.06342e-21)
(0.117546 -0.180227 -1.14604e-20)
(0.105261 -0.463958 -5.18452e-21)
(0.0952055 -0.423258 7.15019e-21)
(0.0864789 -0.387865 -8.29448e-21)
(0.0788929 -0.357194 -2.49009e-21)
(0.0724334 -0.330693 -1.76613e-21)
(0.0671095 -0.307862 -2.04239e-21)
(0.0628918 -0.288258 -1.90847e-21)
(0.0597335 -0.271487 -3.41122e-22)
(0.0575798 -0.257202 -2.12496e-21)
(0.0563703 -0.245093 -5.05592e-22)
(0.0560419 -0.234884 4.36518e-21)
(0.056531 -0.226329 -2.29457e-21)
(0.0577741 -0.219209 -3.09654e-21)
(0.0597094 -0.213327 -5.78423e-21)
(0.0622766 -0.208507 1.26247e-20)
(0.0654177 -0.204589 -5.10316e-21)
(0.0690766 -0.20143 2.0124e-21)
(0.0731989 -0.198901 -8.0915e-21)
(0.0777323 -0.196883 3.1516e-21)
(0.082626 -0.195272 -1.45051e-21)
(0.0878306 -0.19397 1.76093e-21)
(0.0932979 -0.192891 -6.82374e-22)
(0.0989808 -0.191957 6.46324e-21)
(0.104833 -0.191095 -2.3683e-21)
(0.11081 -0.19024 7.01659e-21)
(0.116864 -0.189331 -1.70105e-21)
(0.122945 -0.188321 9.72658e-21)
(0.129049 -0.187171 2.99974e-21)
(0.13524 -0.185826 5.80535e-21)
(0.141149 -0.184331 -2.00958e-20)
(0.11731 -0.46082 8.17281e-21)
(0.106234 -0.420154 -1.68062e-21)
(0.0967767 -0.384913 3.65924e-21)
(0.0886985 -0.354488 -1.1222e-21)
(0.0819503 -0.328305 4.05818e-21)
(0.0765129 -0.305841 4.21327e-21)
(0.0723322 -0.286635 5.11078e-21)
(0.0693401 -0.270285 -4.96512e-22)
(0.067463 -0.256431 -5.69617e-21)
(0.0666248 -0.244757 8.52853e-21)
(0.0667486 -0.234982 -9.06315e-22)
(0.0677591 -0.226854 6.78446e-21)
(0.0695826 -0.220151 2.65067e-21)
(0.0721486 -0.214675 9.32182e-22)
(0.0753893 -0.210245 1.63784e-21)
(0.0792399 -0.206702 2.42756e-21)
(0.0836385 -0.203899 4.40959e-21)
(0.0885259 -0.201705 -1.41464e-21)
(0.0938449 -0.2 7.25684e-21)
(0.0995406 -0.198677 3.64319e-21)
(0.105559 -0.197636 -7.77041e-21)
(0.111849 -0.196789 1.45505e-20)
(0.118359 -0.196054 -2.00771e-20)
(0.12504 -0.195358 1.98196e-20)
(0.13184 -0.194631 -6.80379e-21)
(0.138711 -0.193812 1.24819e-21)
(0.145595 -0.192848 -9.93197e-21)
(0.15249 -0.191693 5.6282e-21)
(0.159466 -0.190282 2.17487e-21)
(0.166111 -0.188678 -3.00393e-21)
(0.129281 -0.457416 -4.68838e-21)
(0.117209 -0.416895 5.44483e-21)
(0.107057 -0.381899 -1.54735e-21)
(0.0985296 -0.3518 4.80151e-21)
(0.0915423 -0.326 4.95884e-22)
(0.0860456 -0.303955 1.37437e-21)
(0.0819594 -0.285194 -1.01014e-20)
(0.0791928 -0.269299 -1.96024e-21)
(0.0776529 -0.255905 7.44312e-21)
(0.0772468 -0.244687 6.25691e-21)
(0.0778838 -0.235361 -1.10524e-20)
(0.0794759 -0.227673 6.86589e-21)
(0.0819394 -0.221396 -7.1321e-21)
(0.0851944 -0.21633 5.38979e-21)
(0.0891655 -0.212295 -9.39048e-21)
(0.0937813 -0.209128 -7.53692e-21)
(0.0989739 -0.206681 2.53987e-22)
(0.104679 -0.204823 -3.96755e-21)
(0.110835 -0.203431 6.88954e-21)
(0.117382 -0.202395 2.96831e-21)
(0.124264 -0.201615 -1.94529e-21)
(0.131423 -0.200998 -5.70014e-22)
(0.138806 -0.20046 2.77853e-21)
(0.146358 -0.199925 -9.21419e-21)
(0.154026 -0.199321 1.60304e-20)
(0.161752 -0.198584 -3.87246e-21)
(0.169477 -0.197658 -4.73159e-22)
(0.177195 -0.196486 1.58914e-20)
(0.18499 -0.194992 2.48012e-21)
(0.192395 -0.193256 -2.5174e-21)
(0.14117 -0.453749 2.09916e-22)
(0.128135 -0.413488 -2.78278e-21)
(0.11733 -0.378832 -2.88635e-21)
(0.108404 -0.349137 -5.18955e-21)
(0.101232 -0.323785 1.93172e-22)
(0.0957346 -0.302214 -4.48215e-21)
(0.0918034 -0.283939 5.36965e-21)
(0.089324 -0.268533 -5.25791e-22)
(0.0881834 -0.255624 5.30784e-21)
(0.0882716 -0.244884 -4.21048e-21)
(0.0894828 -0.236021 -2.39193e-21)
(0.0917167 -0.228782 1.39728e-21)
(0.0948786 -0.222937 8.07742e-22)
(0.0988796 -0.218285 -8.99149e-21)
(0.103636 -0.214645 5.42464e-21)
(0.10907 -0.211853 -3.02591e-21)
(0.115108 -0.209762 8.60616e-21)
(0.121681 -0.208237 -3.03584e-21)
(0.128721 -0.207155 3.24544e-21)
(0.136166 -0.206405 8.87833e-22)
(0.143954 -0.205883 6.27601e-21)
(0.152025 -0.205494 -1.23441e-21)
(0.160321 -0.205151 1.13301e-20)
(0.168784 -0.204774 -1.28614e-20)
(0.177356 -0.204289 -4.67369e-21)
(0.185973 -0.203627 3.97031e-21)
(0.194572 -0.202732 -2.4616e-22)
(0.203144 -0.201532 -7.54325e-21)
(0.211782 -0.199938 6.26553e-21)
(0.219968 -0.198051 -8.41381e-21)
(0.152974 -0.449824 8.09306e-21)
(0.139018 -0.409937 2.45986e-21)
(0.127609 -0.375717 3.22022e-21)
(0.11834 -0.346505 4.80633e-21)
(0.111044 -0.321665 7.69803e-21)
(0.105608 -0.300621 -2.47088e-22)
(0.101896 -0.282873 1.14302e-21)
(0.099768 -0.267989 1.0561e-20)
(0.0990908 -0.25559 -2.15028e-21)
(0.0997363 -0.245343 -4.43502e-21)
(0.101583 -0.236956 8.24876e-21)
(0.104519 -0.230171 1.60533e-21)
(0.108437 -0.224762 3.34779e-23)
(0.11324 -0.220524 2.21162e-21)
(0.118835 -0.217277 4.4052e-21)
(0.125138 -0.214857 -9.70954e-21)
(0.13207 -0.213117 8.50633e-21)
(0.139555 -0.21192 1.52749e-21)
(0.147524 -0.211145 9.42528e-21)
(0.155907 -0.210677 -5.19727e-21)
(0.164642 -0.21041 9.21891e-21)
(0.173663 -0.210246 -1.02283e-20)
(0.182908 -0.210096 1.0299e-20)
(0.192316 -0.209874 1.72591e-21)
(0.201823 -0.209504 -7.41157e-21)
(0.211363 -0.208914 -2.71825e-21)
(0.220861 -0.20804 1.57137e-20)
(0.230313 -0.206803 1.17811e-20)
(0.239814 -0.205094 3.25255e-21)
(0.248797 -0.203039 -2.87065e-21)
(0.16469 -0.445644 8.58793e-22)
(0.149862 -0.406247 2.31562e-21)
(0.137908 -0.372558 1.01052e-20)
(0.128359 -0.343908 -1.70636e-20)
(0.121004 -0.319645 -1.9068e-21)
(0.115696 -0.299177 -2.07182e-21)
(0.11227 -0.281997 9.21135e-22)
(0.110561 -0.267664 1.44126e-21)
(0.110413 -0.255796 2.61226e-21)
(0.11168 -0.246056 -7.31377e-21)
(0.114226 -0.238153 -1.74514e-21)
(0.117923 -0.231828 4.47968e-21)
(0.122654 -0.226852 5.39066e-21)
(0.128313 -0.223025 -5.38052e-21)
(0.134798 -0.220166 -6.00734e-21)
(0.142019 -0.218111 9.47008e-21)
(0.149889 -0.216713 6.77503e-21)
(0.15833 -0.215838 -1.61283e-21)
(0.167266 -0.215362 -4.68799e-21)
(0.176626 -0.215169 9.47702e-22)
(0.186341 -0.215153 -1.21872e-20)
(0.196344 -0.215212 1.52105e-20)
(0.206569 -0.215252 -1.0807e-20)
(0.21695 -0.215185 -6.13518e-22)
(0.227421 -0.214927 7.688e-21)
(0.237907 -0.214404 -2.53044e-21)
(0.248328 -0.213547 -8.09902e-21)
(0.258678 -0.212267 1.01215e-20)
(0.26906 -0.210432 -3.1515e-22)
(0.278848 -0.20819 2.13631e-21)
(0.176313 -0.441213 -5.54937e-22)
(0.160674 -0.402421 -2.3035e-21)
(0.148241 -0.369359 -1.16855e-20)
(0.13848 -0.341348 4.2653e-21)
(0.131137 -0.317723 -1.50504e-21)
(0.126029 -0.297881 4.92638e-21)
(0.122961 -0.281305 3.68542e-22)
(0.12174 -0.26755 -6.75352e-21)
(0.12219 -0.256231 1.06766e-20)
(0.124144 -0.247011 -1.0094e-20)
(0.127451 -0.239596 -5.63771e-22)
(0.131969 -0.233729 2.78278e-21)
(0.137571 -0.229184 -5.01936e-21)
(0.144138 -0.22576 6.17774e-21)
(0.151563 -0.223278 -1.22128e-20)
(0.159746 -0.221578 -3.17428e-21)
(0.168598 -0.220512 7.91249e-21)
(0.178032 -0.219947 -1.90134e-22)
(0.187971 -0.219759 -5.98564e-21)
(0.198339 -0.219833 1.63306e-20)
(0.209065 -0.22006 -8.78948e-21)
(0.220077 -0.220337 -1.27227e-20)
(0.231307 -0.220566 4.46509e-21)
(0.242685 -0.220652 -1.35944e-20)
(0.25414 -0.220508 -3.58041e-21)
(0.265592 -0.220052 -6.08294e-22)
(0.276954 -0.21921 -1.01932e-20)
(0.288216 -0.217881 1.21817e-20)
(0.299491 -0.215911 -7.17829e-21)
(0.310088 -0.21347 9.2546e-21)
(0.187842 -0.436533 -2.89072e-21)
(0.17146 -0.398463 -9.38734e-21)
(0.158622 -0.366121 5.115e-21)
(0.148725 -0.338825 -5.17304e-21)
(0.141471 -0.315899 -4.16434e-21)
(0.13664 -0.296728 -2.67194e-21)
(0.134004 -0.28079 -9.95072e-21)
(0.133345 -0.267638 7.04344e-21)
(0.134462 -0.256883 -1.85407e-20)
(0.137171 -0.248189 -7.44601e-21)
(0.141302 -0.241263 2.44187e-21)
(0.146701 -0.235851 4.67877e-21)
(0.153228 -0.231728 1.00641e-22)
(0.160756 -0.228695 -1.0048e-20)
(0.169167 -0.226577 2.40852e-21)
(0.178357 -0.225214 -1.03142e-20)
(0.188228 -0.224464 -7.93632e-21)
(0.198692 -0.224193 -5.20664e-21)
(0.209664 -0.22428 -1.39245e-21)
(0.221068 -0.224609 8.76769e-21)
(0.232827 -0.22507 1.34828e-20)
(0.24487 -0.225558 -4.23201e-21)
(0.257123 -0.225972 -4.36263e-21)
(0.269514 -0.226213 8.56847e-21)
(0.281969 -0.226184 5.03714e-21)
(0.2944 -0.225798 -4.01255e-21)
(0.306714 -0.224974 -4.7689e-21)
(0.318897 -0.223594 4.49113e-22)
(0.331069 -0.221486 5.42415e-21)
(0.342479 -0.21884 8.20987e-21)
(0.199273 -0.431607 -7.33592e-22)
(0.182228 -0.394375 1.2191e-20)
(0.169066 -0.362845 1.03487e-20)
(0.159117 -0.336338 8.63424e-21)
(0.152034 -0.314167 -5.78541e-21)
(0.147561 -0.29571 -1.22355e-21)
(0.145436 -0.280442 1.05311e-21)
(0.145414 -0.267912 9.0535e-21)
(0.147271 -0.257733 3.63718e-21)
(0.150802 -0.249569 9.29465e-21)
(0.155822 -0.24313 -1.36204e-20)
(0.162162 -0.238163 1.29248e-21)
(0.16967 -0.234448 6.05998e-21)
(0.178208 -0.23179 4.02587e-21)
(0.187651 -0.230016 9.05477e-21)
(0.197888 -0.228971 -6.00282e-21)
(0.208814 -0.228515 -6.19237e-21)
(0.220337 -0.228518 9.98223e-22)
(0.232369 -0.22886 1.43566e-20)
(0.24483 -0.229427 -2.39963e-20)
(0.257642 -0.230109 8.49804e-21)
(0.270729 -0.2308 -1.26592e-22)
(0.284017 -0.231394 1.79969e-20)
(0.297431 -0.231788 -7.81466e-21)
(0.310893 -0.23188 -2.89308e-22)
(0.32431 -0.231571 -5.50431e-21)
(0.33758 -0.23077 5.32133e-21)
(0.35069 -0.229349 1.35432e-21)
(0.36376 -0.227101 -6.64765e-21)
(0.375984 -0.224252 2.4556e-20)
(0.210604 -0.42644 -1.16166e-20)
(0.192985 -0.390157 -7.52937e-21)
(0.179589 -0.359529 -2.07788e-20)
(0.169677 -0.333881 -1.03299e-20)
(0.162854 -0.31252 9.94605e-21)
(0.158824 -0.294818 -6.43976e-21)
(0.157293 -0.280247 -1.82434e-21)
(0.157987 -0.268356 -4.8342e-21)
(0.160658 -0.25876 8.30976e-21)
(0.165081 -0.251125 -2.02947e-21)
(0.171055 -0.245165 -3.28742e-21)
(0.178395 -0.240631 -4.63919e-22)
(0.186938 -0.237306 -1.56272e-20)
(0.196535 -0.235 -1.15364e-21)
(0.207054 -0.233546 4.15342e-21)
(0.218375 -0.232792 -5.62916e-22)
(0.230389 -0.232604 -1.91925e-20)
(0.242997 -0.232854 1.93743e-20)
(0.25611 -0.233427 -2e-20)
(0.269644 -0.23421 8.02728e-21)
(0.283519 -0.235095 1.16487e-21)
(0.297659 -0.235975 4.97505e-22)
(0.311988 -0.236743 -9.58018e-21)
(0.326428 -0.23729 3.44323e-21)
(0.340897 -0.237505 6.50773e-23)
(0.355301 -0.237284 1.25384e-21)
(0.36953 -0.236522 -2.82031e-20)
(0.383566 -0.235071 7.38264e-21)
(0.397538 -0.232697 8.52788e-21)
(0.410569 -0.229652 1.13558e-20)
(0.221833 -0.421033 2.30383e-20)
(0.203738 -0.385811 9.24528e-21)
(0.190207 -0.356172 5.6979e-21)
(0.18043 -0.331451 9.29413e-21)
(0.17396 -0.310951 -1.30347e-21)
(0.170464 -0.294039 8.0013e-21)
(0.169612 -0.280188 1.88874e-20)
(0.171103 -0.268949 -2.34262e-21)
(0.174663 -0.259939 1.26356e-21)
(0.18005 -0.252828 2.63639e-20)
(0.187042 -0.247335 -3.35041e-21)
(0.195442 -0.243215 4.04348e-21)
(0.205074 -0.240258 -1.75372e-21)
(0.215778 -0.238278 -6.43258e-22)
(0.227414 -0.237113 2.39856e-20)
(0.239853 -0.236618 9.29221e-22)
(0.252983 -0.236663 2.8218e-20)
(0.2667 -0.237128 -3.39284e-21)
(0.28091 -0.2379 -6.71078e-21)
(0.295527 -0.238871 1.60483e-20)
(0.310471 -0.239935 -1.55165e-20)
(0.325664 -0.240987 1.73619e-20)
(0.34103 -0.241917 9.80321e-21)
(0.35649 -0.242614 -8.44125e-21)
(0.371962 -0.24296 1.28514e-20)
(0.387346 -0.242839 1.5245e-21)
(0.402528 -0.242136 -6.10633e-21)
(0.417487 -0.240679 2.79166e-21)
(0.432354 -0.238199 2.20571e-20)
(0.446188 -0.234979 3.73766e-21)
(0.232957 -0.41539 -3.95423e-21)
(0.214495 -0.381336 -9.09753e-21)
(0.200935 -0.35277 4.13113e-21)
(0.191396 -0.329039 -1.68081e-20)
(0.18538 -0.309446 8.61321e-21)
(0.182512 -0.293357 -1.65317e-20)
(0.182429 -0.280245 -1.17687e-20)
(0.184799 -0.269667 3.32282e-21)
(0.189328 -0.261242 3.94441e-21)
(0.195748 -0.254646 -1.77756e-20)
(0.203825 -0.249604 -8.23832e-21)
(0.213344 -0.245876 4.14013e-21)
(0.224117 -0.243258 -1.13552e-20)
(0.235974 -0.241572 -4.82445e-21)
(0.248766 -0.24066 -3.4561e-21)
(0.262357 -0.240385 -3.56236e-21)
(0.276628 -0.240624 -1.57533e-20)
(0.291471 -0.241262 -1.05579e-20)
(0.306789 -0.242193 1.57627e-21)
(0.322494 -0.243316 3.54918e-21)
(0.338504 -0.244528 4.17661e-21)
(0.354743 -0.245727 -1.43349e-20)
(0.371134 -0.246805 5.6483e-21)
(0.3876 -0.247646 -1.1968e-20)
(0.404058 -0.248128 1.18733e-20)
(0.420409 -0.248124 -1.57096e-20)
(0.43653 -0.247505 5.36015e-21)
(0.4524 -0.246075 -8.0654e-21)
(0.468153 -0.243523 -1.20738e-20)
(0.48278 -0.240161 -1.41296e-21)
(0.243974 -0.409514 -8.45414e-21)
(0.225264 -0.376731 -8.22131e-21)
(0.211791 -0.349318 -8.75909e-21)
(0.2026 -0.326636 -7.15123e-21)
(0.197142 -0.307992 2.20893e-20)
(0.195 -0.292753 3.43152e-21)
(0.195777 -0.280397 1.05308e-20)
(0.199113 -0.270482 1.70741e-20)
(0.204688 -0.262637 8.89895e-21)
(0.212215 -0.256544 -1.18222e-20)
(0.221441 -0.251932 2.08279e-20)
(0.232138 -0.24857 -2.07294e-20)
(0.244104 -0.246259 2.06865e-20)
(0.257159 -0.244827 2.64918e-21)
(0.271144 -0.244127 5.7424e-21)
(0.285917 -0.244028 1.8163e-21)
(0.301352 -0.244413 2.54838e-20)
(0.317335 -0.245176 -3.84931e-21)
(0.333767 -0.246219 3.68686e-21)
(0.350558 -0.247448 1.30776e-20)
(0.367625 -0.248768 -1.4861e-20)
(0.384893 -0.250081 1.2449e-20)
(0.402288 -0.251282 5.78035e-22)
(0.419734 -0.252257 6.02438e-21)
(0.437153 -0.252878 1.14413e-20)
(0.454443 -0.253009 -1.98501e-21)
(0.471482 -0.252506 1.20291e-20)
(0.488244 -0.251146 1.81564e-20)
(0.504869 -0.248568 -1.96993e-20)
(0.520276 -0.245113 -1.40232e-20)
(0.254883 -0.403406 2.55413e-20)
(0.236052 -0.371996 -2.97229e-21)
(0.222789 -0.345809 6.71956e-21)
(0.214063 -0.324231 1.32634e-20)
(0.209272 -0.306574 -4.00194e-20)
(0.207959 -0.292208 4.53911e-21)
(0.209691 -0.280617 -1.7053e-20)
(0.214079 -0.271367 1.80558e-20)
(0.22078 -0.264093 -1.47562e-20)
(0.229485 -0.258484 8.87665e-21)
(0.239925 -0.254278 -3.24441e-20)
(0.251857 -0.25125 4.31285e-22)
(0.265067 -0.249209 -1.22994e-20)
(0.279363 -0.247992 1.86015e-20)
(0.294578 -0.247457 -2.06191e-20)
(0.31056 -0.247482 -1.17416e-21)
(0.327177 -0.247958 -1.84563e-20)
(0.344312 -0.24879 -1.71781e-21)
(0.36186 -0.249888 1.77204e-21)
(0.37973 -0.251167 4.81503e-21)
(0.397838 -0.252542 -2.66855e-20)
(0.416111 -0.253924 -9.4666e-22)
(0.434477 -0.255215 -1.60057e-20)
(0.452868 -0.256303 -3.87715e-21)
(0.471207 -0.25706 -1.05581e-20)
(0.489398 -0.257343 -1.19598e-20)
(0.507319 -0.256994 -1.30156e-20)
(0.524945 -0.255756 2.12652e-20)
(0.542421 -0.253217 5.87079e-21)
(0.558596 -0.249736 -1.34996e-20)
(0.265682 -0.39707 -1.70525e-20)
(0.246868 -0.367126 6.82753e-21)
(0.233945 -0.342236 -1.26617e-20)
(0.225807 -0.321811 1.96178e-21)
(0.221797 -0.305172 2.32082e-20)
(0.221417 -0.291697 -1.21462e-20)
(0.2242 -0.280877 -1.38764e-20)
(0.229728 -0.272287 -1.21228e-20)
(0.237633 -0.265571 4.54919e-22)
(0.247589 -0.260427 8.42286e-21)
(0.259307 -0.256599 -6.72018e-21)
(0.272531 -0.253872 -3.4587e-23)
(0.287033 -0.252061 2.25544e-20)
(0.302613 -0.251012 -1.16975e-20)
(0.31909 -0.250591 3.49322e-21)
(0.336308 -0.250684 -1.05734e-20)
(0.354125 -0.251191 4.05102e-21)
(0.37242 -0.252027 9.34711e-21)
(0.391083 -0.253112 1.13241e-20)
(0.41002 -0.254374 -1.26012e-20)
(0.429148 -0.255738 1.83128e-21)
(0.448394 -0.257129 1.16974e-20)
(0.46769 -0.25846 2.11302e-20)
(0.486975 -0.259627 6.00716e-21)
(0.50618 -0.260507 -2.29647e-20)
(0.525219 -0.260953 2.76757e-20)
(0.543973 -0.260795 -1.40137e-20)
(0.562423 -0.259744 -1.7391e-20)
(0.580722 -0.257324 -1.09749e-20)
(0.59765 -0.253907 -1.74438e-20)
(0.276368 -0.390507 9.34924e-21)
(0.257719 -0.362119 -8.07132e-21)
(0.245276 -0.338589 2.98955e-21)
(0.237853 -0.319359 1.82065e-20)
(0.234741 -0.303766 5.25891e-21)
(0.235401 -0.291195 -4.80873e-21)
(0.239331 -0.281147 1.18812e-20)
(0.246087 -0.273209 2.47265e-21)
(0.255276 -0.267035 1.25429e-20)
(0.266552 -0.26233 7.24649e-21)
(0.279611 -0.258851 1.97129e-22)
(0.294181 -0.256387 5.04111e-21)
(0.310023 -0.254765 -1.67361e-21)
(0.326924 -0.253836 3.05334e-21)
(0.344697 -0.253475 8.93886e-21)
(0.363174 -0.253577 -5.18039e-21)
(0.382209 -0.25405 1.33153e-20)
(0.401671 -0.254819 1.41703e-20)
(0.421447 -0.255815 -1.6792e-20)
(0.441439 -0.256979 1.7472e-20)
(0.461562 -0.258251 3.91355e-20)
(0.481743 -0.259571 -2.59687e-20)
(0.50192 -0.26087 2.71973e-20)
(0.522038 -0.26206 -1.93656e-20)
(0.542041 -0.263028 -2.89847e-21)
(0.561854 -0.263635 2.23644e-20)
(0.581373 -0.263702 -4.4411e-21)
(0.600592 -0.26291 1.77394e-20)
(0.619679 -0.260708 1.81801e-20)
(0.637346 -0.257472 -4.00147e-20)
(0.286941 -0.383719 -9.1517e-21)
(0.268614 -0.35697 4.37471e-21)
(0.256795 -0.334857 2.08499e-21)
(0.25022 -0.316859 -2.15952e-20)
(0.248126 -0.302331 -1.19942e-20)
(0.249933 -0.290671 9.47676e-21)
(0.255108 -0.281392 -2.78065e-20)
(0.263178 -0.274094 3.52395e-20)
(0.273728 -0.268441 -2.06541e-20)
(0.286393 -0.264151 2.58041e-21)
(0.300852 -0.260987 -3.91412e-21)
(0.31682 -0.25875 -1.38674e-20)
(0.334046 -0.257273 2.94174e-20)
(0.352306 -0.256416 1.20012e-20)
(0.371404 -0.256061 -1.23846e-20)
(0.391164 -0.25611 3.14495e-22)
(0.411432 -0.256482 7.64281e-21)
(0.432069 -0.257108 -1.73661e-20)
(0.452958 -0.257932 3.63643e-21)
(0.473993 -0.258906 1.28779e-20)
(0.495088 -0.259989 -5.41656e-21)
(0.516168 -0.261137 9.7171e-21)
(0.537174 -0.262304 -1.93847e-20)
(0.558056 -0.263427 2.89732e-20)
(0.578775 -0.264416 7.29731e-21)
(0.599272 -0.265151 -1.92075e-20)
(0.619466 -0.26546 -1.74249e-20)
(0.639377 -0.264996 -3.0944e-22)
(0.659202 -0.263131 2.46757e-20)
(0.677589 -0.260221 -7.08178e-21)
(0.297398 -0.376708 -2.59846e-21)
(0.279562 -0.351674 -2.02262e-20)
(0.268519 -0.331026 2.47905e-20)
(0.262926 -0.314289 1.77791e-20)
(0.261971 -0.300841 1.89506e-20)
(0.265034 -0.290093 5.84959e-21)
(0.27155 -0.281576 8.78496e-21)
(0.281019 -0.274902 4.75082e-21)
(0.293005 -0.269748 -1.97295e-20)
(0.307124 -0.265844 3.71593e-20)
(0.323039 -0.262962 -3.21063e-20)
(0.340453 -0.260913 -2.59826e-21)
(0.359103 -0.259539 4.77825e-21)
(0.378757 -0.258706 -2.39778e-20)
(0.399207 -0.258305 2.14397e-20)
(0.420271 -0.258243 -6.5475e-21)
(0.441787 -0.258447 -1.78499e-20)
(0.463609 -0.258855 7.39614e-21)
(0.485613 -0.25942 -1.41971e-20)
(0.507687 -0.260107 -1.30926e-20)
(0.529738 -0.260887 -1.46881e-20)
(0.551688 -0.26174 3.41844e-21)
(0.573476 -0.262642 2.28794e-21)
(0.595057 -0.263565 -3.92342e-20)
(0.616403 -0.264456 -1.56928e-20)
(0.637478 -0.265232 9.86927e-21)
(0.658231 -0.265753 1.29135e-20)
(0.678727 -0.265666 -1.81305e-20)
(0.69922 -0.264264 -7.18508e-21)
(0.718308 -0.261858 1.20371e-21)
(0.30774 -0.369473 -1.92911e-21)
(0.290572 -0.346223 1.30746e-20)
(0.280462 -0.32708 -3.79073e-21)
(0.27599 -0.311625 -4.76472e-21)
(0.276294 -0.299264 -2.96363e-20)
(0.28072 -0.289426 -7.1437e-21)
(0.28867 -0.281657 1.36086e-20)
(0.29962 -0.275588 -9.58939e-21)
(0.313112 -0.270909 -1.19382e-21)
(0.328746 -0.26736 -1.97513e-21)
(0.34617 -0.264727 1.22791e-20)
(0.365073 -0.26283 -1.97892e-20)
(0.385183 -0.261517 -1.39742e-20)
(0.406258 -0.260665 1.71287e-20)
(0.428085 -0.260169 -1.02417e-20)
(0.450471 -0.259944 -1.29882e-20)
(0.473249 -0.259919 2.8356e-20)
(0.496269 -0.260039 -4.54198e-21)
(0.519395 -0.260265 1.82951e-20)
(0.542513 -0.260566 -1.69176e-20)
(0.565519 -0.260927 -1.4412e-20)
(0.588328 -0.261343 1.28523e-20)
(0.610874 -0.261816 -1.31449e-21)
(0.63311 -0.262354 -1.02018e-20)
(0.655011 -0.262953 9.24524e-21)
(0.676561 -0.263593 -2.97921e-20)
(0.697742 -0.264206 1.82851e-20)
(0.718686 -0.264482 -3.15885e-22)
(0.739754 -0.263661 -2.01328e-20)
(0.759524 -0.26198 3.27149e-20)
(0.317974 -0.362018 9.47064e-21)
(0.301659 -0.340608 -2.55042e-20)
(0.29264 -0.322998 -2.4141e-21)
(0.289425 -0.308839 1.3409e-20)
(0.291107 -0.297566 -3.68578e-21)
(0.296999 -0.288629 -1.09877e-20)
(0.306475 -0.281594 5.29505e-21)
(0.318984 -0.276107 6.54804e-21)
(0.33405 -0.271874 6.07687e-22)
(0.351254 -0.268651 8.76828e-21)
(0.370232 -0.266233 2.95174e-20)
(0.390661 -0.26445 -1.03772e-20)
(0.41226 -0.263163 3.05877e-21)
(0.434779 -0.262253 -8.18419e-21)
(0.457998 -0.261621 3.12527e-20)
(0.48172 -0.261188 -5.94934e-21)
(0.505773 -0.260886 2.02344e-20)
(0.53 -0.260664 -8.24359e-21)
(0.554263 -0.260483 9.13582e-21)
(0.578439 -0.260316 1.43478e-20)
(0.602419 -0.26015 2.63152e-21)
(0.626109 -0.259988 1.03334e-20)
(0.649429 -0.25985 -8.86723e-21)
(0.672323 -0.25977 2.5019e-20)
(0.694758 -0.259797 -1.04853e-20)
(0.716721 -0.259992 3.95093e-20)
(0.738215 -0.260412 -1.14675e-20)
(0.759448 -0.260881 8.12911e-21)
(0.780969 -0.260663 -1.56438e-20)
(0.801432 -0.259905 3.13478e-20)
(0.32813 -0.354346 -2.04792e-20)
(0.31285 -0.334813 7.15787e-22)
(0.305069 -0.318753 -1.44726e-20)
(0.30324 -0.305896 2.74412e-21)
(0.306416 -0.295709 8.3435e-22)
(0.313877 -0.287661 -1.4732e-20)
(0.324965 -0.28134 -2.90067e-20)
(0.339109 -0.27641 1.50804e-20)
(0.355809 -0.272594 -2.2029e-20)
(0.374633 -0.269663 -1.23645e-20)
(0.395203 -0.267426 -7.45407e-21)
(0.417186 -0.265725 -6.35629e-21)
(0.440294 -0.264429 3.3622e-22)
(0.46427 -0.263428 -2.38401e-20)
(0.488888 -0.262629 1.68797e-20)
(0.513951 -0.261957 -2.79893e-20)
(0.539282 -0.261348 -7.49429e-21)
(0.564724 -0.26075 8.30095e-21)
(0.590136 -0.260123 1.08447e-20)
(0.615395 -0.259436 1.1327e-20)
(0.640388 -0.25867 9.02522e-21)
(0.665013 -0.257823 -2.30812e-20)
(0.689181 -0.256907 2.39605e-20)
(0.712817 -0.255961 -2.54062e-21)
(0.735863 -0.255054 -6.74073e-21)
(0.758273 -0.254309 -2.75154e-20)
(0.780018 -0.253913 -1.4902e-20)
(0.801321 -0.253889 2.76776e-20)
(0.822988 -0.253625 -9.18027e-21)
(0.844063 -0.253432 -9.69747e-21)
(0.338271 -0.34643 8.6856e-21)
(0.324173 -0.328788 6.36502e-22)