/*--------------------------------*- C++ -*----------------------------------*\
  =========                 |
  \\      /  F ield         | OpenFOAM: The Open Source CFD Toolbox
   \\    /   O peration     | Website:  https://openfoam.org
    \\  /    A nd           | Version:  6.0
     \\/     M anipulation  |
\*---------------------------------------------------------------------------*/
FoamFile
{
    version     2.0;
    format      ascii;
    class       surfaceScalarField;
    location    "16";
    object      phi;
}
// * * * * * * * * * * * * * * * * * * * * * * * * * * * * * * * * * * * * * //

dimensions      [0 3 -1 0 0 0 0];

internalField   nonuniform List<scalar> 
4670
(
0.00350212
-0.423629
0.420126
0.0111595
-0.388517
0.38086
0.0203352
-0.372046
0.36287
0.0295252
-0.357353
0.348163
0.0380939
-0.342019
0.33345
0.045882
-0.325819
0.318031
0.0529694
-0.309424
0.302337
0.0595319
-0.293627
0.287064
0.0657672
-0.278957
0.272722
-0.265632
0.259519
0.0718806
0.00366841
-0.427297
0.0113268
-0.396175
0.0203014
-0.38102
0.0291476
-0.366199
0.0372956
-0.350167
0.0446447
-0.333168
0.0513142
-0.316094
0.0574982
-0.299811
0.0634011
-0.28486
-0.271467
0.0692358
0.00378279
-0.43108
0.0113571
-0.40375
0.0200451
-0.389708
0.0284684
-0.374622
0.03613
-0.357829
0.0429882
-0.340026
0.0491983
-0.322304
0.0549681
-0.305581
0.0605041
-0.290396
-0.276989
0.0660267
0.00382265
-0.434902
0.0112399
-0.411167
0.0195682
-0.398037
0.0274994
-0.382554
0.0346133
-0.364943
0.0409277
-0.346341
0.046633
-0.328009
0.0519483
-0.310896
0.0570794
-0.295527
-0.282165
0.0622553
0.00381011
-0.438713
0.0109962
-0.418353
0.0188977
-0.405938
0.0262781
-0.389934
0.0327898
-0.371454
0.0385049
-0.352056
0.0436456
-0.33315
0.0484429
-0.315693
0.0531071
-0.300191
-0.28695
0.0578919
0.0037418
-0.442454
0.0106327
-0.425244
0.0180515
-0.413357
0.0248374
-0.39672
0.0307118
-0.377329
0.0357902
-0.357134
0.0403116
-0.337671
0.0445141
-0.319896
0.0486273
-0.304304
-0.29128
0.0529577
0.00362937
-0.446084
0.0101707
-0.431785
0.0170535
-0.42024
0.0231983
-0.402865
0.0284026
-0.382533
0.0328276
-0.361559
0.0367198
-0.341564
0.0402983
-0.323474
0.0437859
-0.307792
-0.294949
0.0474548
0.00349377
-0.449577
0.00965701
-0.437948
0.0159605
-0.426543
0.0214008
-0.408305
0.0258542
-0.386987
0.0295479
-0.365253
0.0327712
-0.344787
0.0357306
-0.326434
0.038527
-0.310588
-0.297465
0.0410429
0.0033801
-0.452958
0.00917776
-0.443746
0.0148991
-0.432265
0.0196056
-0.413011
0.023215
-0.390596
0.0259706
-0.368009
0.0281949
-0.347011
0.0301815
-0.32842
0.0321088
-0.312516
-0.29916
0.033804
0.00335297
-0.456311
0.00880112
-0.449194
0.0139968
-0.43746
0.0180705
-0.417085
0.0209409
-0.393466
0.0227476
-0.369815
0.023606
-0.34787
0.0236637
-0.328478
0.0236372
-0.312489
-0.302519
0.0269954
0.483013
0.00269938
-0.485713
0.480065
0.00294868
0.477028
0.00303627
0.474051
0.00297685
0.47108
0.00297121
0.468102
0.00297838
0.465133
0.00296903
0.462173
0.00295959
0.459242
0.00293097
0.00293172
0.487334
0.00534739
-0.489982
0.484171
0.00611118
0.480633
0.00657497
0.476807
0.00680311
0.472714
0.0070634
0.468392
0.00730035
0.46387
0.00749175
0.459176
0.00765335
0.454298
0.007809
0.00803525
0.468506
0.00667082
-0.46983
0.466666
0.00795145
0.464351
0.00889048
0.461565
0.00958882
0.458364
0.0102642
0.454806
0.0108584
0.450932
0.0113654
0.446777
0.0118088
0.442299
0.0122871
0.0128737
0.438089
0.00692975
-0.438348
0.43738
0.0086602
0.436189
0.0100818
0.434509
0.011269
0.432401
0.0123723
0.429954
0.0133047
0.427192
0.0141276
0.424137
0.0148644
0.420778
0.0156458
0.0165665
0.407223
0.00668132
-0.406974
0.407068
0.00881466
0.406463
0.0106873
0.405435
0.0122967
0.40403
0.0137775
0.402354
0.0149805
0.400403
0.0160782
0.398302
0.0169654
0.395992
0.0179566
0.0190917
0.379696
0.00635015
-0.379365
0.379652
0.00885899
0.379196
0.0111435
0.378395
0.0130981
0.377258
0.0149143
0.37595
0.0162881
0.374404
0.0176242
0.372923
0.018447
0.371323
0.0195564
0.0205991
0.356219
0.00615839
-0.356027
0.356052
0.00902521
0.3555
0.011696
0.354661
0.0139373
0.35348
0.0160951
0.352233
0.0175348
0.350748
0.0191092
0.349646
0.0195488
0.348378
0.0208251
0.0211073
0.336343
0.00618046
-0.336365
0.335976
0.00939299
0.33523
0.0124415
0.334231
0.0149362
0.332841
0.0174856
0.331471
0.0189045
0.329762
0.0208185
0.328958
0.0203526
0.327738
0.0220446
0.0203678
0.319275
0.00642328
-0.319517
0.318705
0.00996274
0.317763
0.0133834
0.316599
0.0160998
0.314968
0.0191164
0.313402
0.0204714
0.311234
0.0229863
0.310588
0.0209979
0.309522
0.0231107
0.017401
0.304234
-0.304719
0.00690858
0.303468
0.0107284
0.302357
0.0144944
0.301081
0.0173757
0.299301
0.0208968
0.297593
0.0221798
0.294944
0.0256346
0.293766
0.0221757
0.292521
0.0243558
0.00740376
0.497497
-0.000436948
-0.49706
0.49759
-9.26345e-05
0.497295
0.000294809
0.496622
0.000672852
0.495573
0.00104877
0.494158
0.00141493
0.492427
0.00173161
0.490412
0.00201438
0.488099
0.0023128
0.00238671
0.488209
-0.00379517
-0.48485
0.490937
-0.00282103
0.493027
-0.00179551
0.494458
-0.000757349
0.495231
0.000274824
0.49536
0.0012865
0.494872
0.00221992
0.493791
0.00309507
0.492122
0.00398142
0.004527
0.453041
-0.00896117
-0.447875
0.457589
-0.00736933
0.461469
-0.00567559
0.464657
-0.00394547
0.467161
-0.002229
0.46899
-0.00054223
0.470153
0.00105675
0.470656
0.00259262
0.470551
0.00408653
0.00524776
0.413626
-0.0148349
-0.407752
0.418914
-0.0126575
0.423545
-0.0103067
0.42752
-0.00792036
0.430857
-0.00556568
0.433566
-0.00325163
0.43565
-0.00102664
0.437124
0.00111862
0.438044
0.00316561
0.00494424
0.380304
-0.0208246
-0.374314
0.385669
-0.0180221
0.390372
-0.01501
0.394456
-0.0120045
0.397944
-0.00905353
0.400846
-0.00615401
0.403175
-0.00335562
0.404964
-0.000669904
0.406247
0.00188219
0.00421697
0.353945
-0.0267478
-0.348022
0.359095
-0.0231724
0.363555
-0.0194698
0.367433
-0.0158822
0.370731
-0.0123513
0.37346
-0.00888374
0.37566
-0.00555491
0.37737
-0.0023807
0.378613
0.00063972
0.00346459
0.333041
-0.0326673
-0.327122
0.33788
-0.0280112
0.342
-0.0235893
0.345584
-0.0194666
0.348578
-0.0153447
0.351003
-0.0113087
0.35293
-0.00748282
0.354406
-0.00385614
0.355439
-0.00039384
0.00287716
0.315897
-0.0386555
-0.309909
0.320471
-0.0325853
0.324275
-0.0273936
0.327562
-0.0227533
0.330237
-0.018019
0.332347
-0.0134192
0.33399
-0.00912598
0.335206
-0.00507224
0.335998
-0.00118514
0.00250942
0.301313
-0.0440957
-0.295872
0.305779
-0.0370517
0.309386
-0.0310004
0.312312
-0.0256793
0.314636
-0.0203433
0.316455
-0.015238
0.317836
-0.0105073
0.318809
-0.00604494
0.319369
-0.00174532
0.00236109
0.28837
-0.287596
-0.04487
0.292949
-0.0416303
0.297056
-0.0351073
0.299353
-0.0279763
0.301144
-0.0221352
0.30267
-0.0167636
0.303793
-0.0116306
0.304507
-0.00675837
0.304817
-0.00205556
0.00245911
0.0615922
0.228819
-0.222728
-0.0676831
0.0551529
0.23978
-0.23334
0.0483694
0.252201
-0.245418
0.0412185
0.266795
-0.259644
0.0336748
0.284889
-0.277346
0.0257474
0.308661
-0.300733
0.0175599
0.341189
-0.333002
0.00956
0.385152
-0.377152
0.00294848
0.436331
-0.42972
0.478166
-0.475217
0.0608023
0.23483
-0.0668132
0.0544306
0.246151
0.0477124
0.258919
0.0406238
0.273883
0.0331407
0.292372
0.0252786
0.316523
0.0171768
0.349291
0.00930607
0.393022
0.00286738
0.44277
0.481033
0.0597318
0.240727
-0.0656287
0.0534683
0.252415
0.0468508
0.265537
0.039857
0.280877
0.032465
0.299764
0.0246974
0.32429
0.0167079
0.357281
0.00898599
0.400744
0.00272987
0.449026
0.483763
0.0586978
0.246544
-0.0645155
0.0524939
0.258619
0.0459392
0.272092
0.0390135
0.287803
0.0316997
0.307078
0.0240273
0.331963
0.0161613
0.365147
0.00860856
0.408297
0.0025631
0.455071
0.486326
0.0571572
0.252178
-0.0627912
0.0511228
0.264653
0.0447219
0.278492
0.0379384
0.294586
0.0307623
0.314254
0.0232322
0.339493
0.0155288
0.37285
0.00818186
0.415644
0.00238
0.460873
0.488706
0.056231
0.257885
-0.0619377
0.0501026
0.270782
0.0436436
0.284951
0.0368644
0.301365
0.0297553
0.321363
0.0223451
0.346903
0.0148143
0.380381
0.00769713
0.422761
0.00217148
0.466399
0.490878
0.0540851
0.263284
-0.0594846
0.0481973
0.276669
0.0419655
0.291183
0.0354061
0.307925
0.0285015
0.328268
0.0212939
0.354111
0.0139934
0.387681
0.00715358
0.429601
0.0019443
0.471608
0.492822
0.0539378
0.26959
-0.0602429
0.0472548
0.283352
0.0406325
0.297806
0.0339831
0.314574
0.0271428
0.335108
0.0201044
0.361149
0.0130529
0.394733
0.00654052
0.436113
0.00168425
0.476464
0.494506
0.0502618
0.275786
-0.0564579
0.0441114
0.289503
0.0382114
0.303706
0.0319973
0.320788
0.0254404
0.341665
0.0186819
0.367907
0.0119596
0.401455
0.00584076
0.442232
0.00140762
0.480897
0.495914
0.0487087
-0.060519
0.0423392
0.036136
0.0298025
0.0234458
0.017039
0.0107418
0.00509896
0.00114606
0.0600405
0.168688
-0.163472
-0.065256
0.0530428
0.17655
-0.169553
0.0460242
0.185558
-0.178539
0.0390393
0.196679
-0.189694
0.0320471
0.211165
-0.204173
0.0249637
0.23137
-0.224286
0.0177112
0.26108
-0.253828
0.0103702
0.305428
-0.298087
0.00368702
0.367247
-0.360564
0.443002
-0.439315
0.0594133
0.174842
-0.0655673
0.0531956
0.182768
0.0467145
0.192039
0.0399684
0.203425
0.0329609
0.218172
0.0256995
0.238631
0.0181955
0.268584
0.010618
0.313006
0.00378753
0.374078
0.44679
0.0598136
0.180688
-0.0656596
0.0537624
0.188819
0.0473614
0.19844
0.0406284
0.210158
0.03356
0.225241
0.0261639
0.246027
0.0184812
0.276267
0.010729
0.320758
0.00378723
0.381019
0.450577
0.0606611
0.186367
-0.0663402
0.0545615
0.194919
0.0480745
0.204927
0.0412332
0.216999
0.0340375
0.232437
0.0264896
0.253575
0.0186437
0.284113
0.0107493
0.328652
0.00374328
0.388025
0.45432
0.0614641
0.192154
-0.0672509
0.0552484
0.201134
0.0486608
0.211515
0.0417115
0.223949
0.0343942
0.239754
0.0267117
0.261258
0.0187246
0.2921
0.0107214
0.336655
0.00368494
0.395062
0.458005
0.0620659
0.198107
-0.0680197
0.0557449
0.207455
0.0490679
0.218192
0.0420285
0.230988
0.0346132
0.247169
0.0268233
0.269047
0.01873
0.300194
0.0106495
0.344736
0.00361163
0.4021
0.461617
0.062477
0.204196
-0.0685652
0.0560667
0.213866
0.0493118
0.224947
0.0421968
0.238103
0.0347033
0.254663
0.0268324
0.276918
0.0186644
0.308362
0.0105398
0.35286
0.00353066
0.409109
0.465147
0.062681
0.21037
-0.0688551
0.0562019
0.220345
0.049389
0.231759
0.04222
0.245272
0.0346725
0.26221
0.0267476
0.284843
0.0185356
0.316574
0.0104011
0.360995
0.00344091
0.416069
0.468588
0.0626239
0.216569
-0.0688231
0.0561174
0.226851
0.0492808
0.238596
0.0420888
0.252464
0.0345168
0.269782
0.0265682
0.292792
0.018345
0.324797
0.0102382
0.369102
0.00335914
0.422948
0.471948
0.062291
-0.0684501
0.0558021
0.0489804
0.0418007
0.0342372
0.0262959
0.0180911
0.0100412
0.0032699
-0.152274
0.0588258
-0.0700243
-0.147167
0.0501702
-0.0552763
-0.143408
0.04428
-0.0480393
-0.140699
0.03712
-0.0398296
-0.138826
0.0304973
-0.0323702
-0.137826
0.0237806
-0.02478
-0.137693
0.0170929
-0.0172258
-0.138447
0.0103906
-0.0096372
-0.140087
0.0037173
-0.00207729
-0.00286792
-0.142597
0.00537875
-0.161828
0.0511016
-0.1564
0.0447416
-0.152066
0.0399457
-0.148999
0.0340533
-0.146875
0.0283732
-0.145689
0.0225948
-0.14541
0.0168138
-0.146041
0.0110218
-0.147569
0.00524546
-0.000468584
-0.149968
-0.171423
0.0439851
-0.166105
0.039424
-0.161595
0.0354357
-0.158235
0.0306927
-0.155848
0.0259864
-0.154416
0.0211628
-0.15391
0.0163076
-0.15432
0.0114323
-0.155632
0.00655672
0.00171678
-0.157817
-0.182903
0.037194
-0.17746
0.0339812
-0.172804
0.0307793
-0.169174
0.0270631
-0.166488
0.0233002
-0.164742
0.019417
-0.16392
0.0154861
-0.164013
0.0115246
-0.165006
0.00755037
0.00358996
-0.16688
-0.197575
0.0305968
-0.191934
0.0283403
-0.187061
0.0259056
-0.18312
0.0231223
-0.180073
0.0202536
-0.177933
0.0172763
-0.176694
0.0142478
-0.176354
0.011184
-0.176904
0.00810052
0.00501572
-0.17833
-0.217685
0.0239951
-0.211808
0.0224639
-0.206644
0.0207413
-0.202316
0.0187938
-0.198818
0.0167556
-0.196172
0.0146308
-0.194384
0.0124601
-0.193456
0.0102561
-0.193386
0.00803045
0.00579485
-0.194165
-0.247066
0.0172336
-0.240894
0.0162919
-0.235359
0.0152056
-0.230551
0.0139866
-0.226491
0.0126947
-0.223203
0.0113437
-0.220701
0.00995766
-0.21899
0.00854551
-0.218072
0.00711242
0.00566533
-0.217943
-0.291188
0.0103346
-0.284758
0.00986192
-0.278858
0.00930565
-0.273563
0.00869163
-0.2689
0.00803174
-0.264897
0.00734035
-0.261566
0.00662682
-0.258918
0.00589694
-0.256953
0.00514819
0.00437963
-0.255668
-0.354122
0.00389287
-0.348007
0.00374614
-0.342269
0.0035677
-0.33697
0.00339312
-0.332134
0.00319579
-0.327783
0.00298924
-0.323928
0.00277228
-0.320581
0.00254935
-0.317747
0.00231402
0.00204475
-0.315412
-0.435422
-0.431676
-0.428108
-0.424715
-0.42152
-0.41853
-0.415758
-0.413209
-0.410895
-0.40885
-0.145941
-0.00923407
0.0125771
-0.150041
-0.0154065
0.0195072
-0.154815
-0.0212486
0.0260219
-0.16014
-0.0266687
0.0319938
-0.165851
-0.0315794
0.037291
-0.171748
-0.0359201
0.0418164
-0.177579
-0.0397487
0.0455795
-0.183057
-0.0432713
0.0487495
-0.188536
-0.0465138
0.0519935
-0.0504245
-0.192066
0.0539544
-0.153198
-0.00600423
-0.157181
-0.0114234
-0.161829
-0.0166012
-0.167026
-0.0214713
-0.172628
-0.0259778
-0.178453
-0.030095
-0.184327
-0.0338744
-0.190165
-0.0374331
-0.195769
-0.0409106
-0.0451105
-0.201083
-0.160843
-0.00297824
-0.16464
-0.0076267
-0.16913
-0.0121107
-0.174217
-0.0163843
-0.179781
-0.0204136
-0.185685
-0.0241915
-0.191809
-0.0277504
-0.198081
-0.0311604
-0.204376
-0.0346163
-0.0385378
-0.210949
-0.16961
-0.000247571
-0.173139
-0.00409795
-0.177404
-0.00784612
-0.182325
-0.0114627
-0.18781
-0.0149294
-0.193752
-0.0182489
-0.200061
-0.0214419
-0.206659
-0.0245625
-0.213508
-0.027767
-0.0312157
-0.22083
-0.180622
0.0020445
-0.183731
-0.000988915
-0.18761
-0.00396724
-0.192199
-0.00687391
-0.197426
-0.00970241
-0.203214
-0.0124606
-0.209491
-0.0151644
-0.216194
-0.0178595
-0.223321
-0.0206405
-0.0235424
-0.230994
-0.195799
0.00367827
-0.198247
0.00145895
-0.201478
-0.000736308
-0.20545
-0.0029023
-0.210114
-0.00503765
-0.215423
-0.00715157
-0.221324
-0.00926376
-0.227775
-0.0114089
-0.234781
-0.0136346
-0.0159342
-0.242389
-0.218627
0.00436229
-0.220088
0.00292032
-0.22231
0.00148575
-0.225272
5.94916e-05
-0.228947
-0.00136228
-0.233311
-0.00278764
-0.238336
-0.00423933
-0.244002
-0.00574227
-0.250314
-0.00732258
-0.00896819
-0.25728
-0.255106
0.00380048
-0.255231
0.00304555
-0.256039
0.00229362
-0.25753
0.00155028
-0.259692
0.000800491
-0.262524
4.37947e-05
-0.266023
-0.000739791
-0.270188
-0.00157769
-0.275026
-0.00248445
-0.00346032
-0.280534
-0.313585
0.00197388
-0.312276
0.00173613
-0.311482
0.0015002
-0.311215
0.00128336
-0.311476
0.00106144
-0.312268
0.000835581
-0.313607
0.000599318
-0.31552
0.000335333
-0.318029
2.46339e-05
-0.000364957
-0.321125
-0.406876
-0.40514
-0.40364
-0.402356
-0.401295
-0.400459
-0.39986
-0.399525
-0.3995
-0.399865
0.000441924
-0.400307
0.00413067
-0.324813
0.0103544
-0.286758
0.0179878
-0.264914
0.0261998
-0.250601
0.0344666
-0.239261
0.0425167
-0.22888
0.0503295
-0.218761
0.0582051
-0.208958
-0.200223
0.066362
0.000809847
-0.401117
0.00510341
-0.329107
0.0119513
-0.293606
0.0201368
-0.273099
0.0287901
-0.259254
0.0373758
-0.247847
0.0456172
-0.237121
0.0534494
-0.226593
0.0609153
-0.216424
-0.207068
0.0677607
0.00119033
-0.402307
0.00606663
-0.333983
0.0134881
-0.301027
0.0221534
-0.281765
0.0311728
-0.268274
0.0400284
-0.256702
0.0484691
-0.245562
0.0563972
-0.234522
0.0636915
-0.223719
-0.213451
0.0700746
0.00154322
-0.40385
0.00698389
-0.339424
0.0149231
-0.308966
0.0239795
-0.290821
0.033255
-0.277549
0.0422491
-0.265696
0.0507334
-0.254046
0.0586392
-0.242427
0.0659599
-0.231039
-0.22018
0.0726887
0.00189822
-0.405748
0.00785841
-0.345384
0.0162416
-0.317349
0.0256005
-0.30018
0.0350413
-0.28699
0.0440922
-0.274747
0.052558
-0.262512
0.0604053
-0.250275
0.0676641
-0.238298
-0.226857
0.0743412
0.00224185
-0.40799
0.00866988
-0.351812
0.0174162
-0.326096
0.026983
-0.309747
0.0364927
-0.2965
0.0455118
-0.283766
0.0538894
-0.27089
0.0616377
-0.258023
0.068835
-0.245495
-0.233562
0.07554
0.00257435
-0.410565
0.00940871
-0.358647
0.0184301
-0.335117
0.0281097
-0.319426
0.0375988
-0.305989
0.0465094
-0.292677
0.0547367
-0.279117
0.0623303
-0.265617
0.0693968
-0.252562
-0.240186
0.0760206
0.00288835
-0.413453
0.0100612
-0.365819
0.0192648
-0.344321
0.0289601
-0.329122
0.0383396
-0.315368
0.0470683
-0.301406
0.05509
-0.287139
0.0624924
-0.273019
0.0694126
-0.259482
-0.246745
0.0759719
0.00318773
-0.416641
0.0106252
-0.373257
0.0199114
-0.353607
0.0295226
-0.338733
0.0387043
-0.32455
0.0471786
-0.30988
0.0549372
-0.294897
0.0621022
-0.280184
0.0688361
-0.266216
-0.253202
0.0752926
0.00348571
0.0110886
0.0203518
0.0297818
0.0386822
0.0468333
0.0542729
0.0611532
0.0676588
0.0739757
0.0663405
-1.16074
1.16628
0.0652987
-0.974199
0.975241
0.0636186
-0.849834
0.851514
0.0630177
-0.735463
0.736064
0.0618835
-0.620007
0.621141
0.0600581
-0.513713
0.515539
0.0581627
-0.417435
0.419331
0.0564017
-0.332806
0.334567
0.054924
-0.259489
0.260967
0.053794
-0.198314
0.199444
0.0530209
-0.145854
0.146627
0.0524859
-0.103237
0.103772
0.0521544
-0.0617908
0.0621223
0.0515582
-0.0248049
0.0254011
0.0505492
0.0201923
-0.0191833
0.0494535
0.0665656
-0.06547
0.0485876
0.0898898
-0.0890239
0.0503608
0.113463
-0.115237
0.0511884
0.0409252
-0.0417528
0.0150281
-0.0133297
0.0591833
-1.15068
0.0565541
-0.97157
0.0550471
-0.848327
0.0550236
-0.735439
0.0549083
-0.619892
0.0541138
-0.512919
0.0531352
-0.416457
0.0521592
-0.33183
0.0513174
-0.258648
0.0506834
-0.19768
0.0502893
-0.145459
0.050047
-0.102994
0.0499488
-0.0616926
0.0495277
-0.0243838
0.0487149
0.0210051
0.0478244
0.0674563
0.0472231
0.0904911
0.0490866
0.1116
0.0497355
0.0402763
0.0167901
0.0518657
-1.13652
0.0475499
-0.967254
0.0461846
-0.846962
0.0468178
-0.736073
0.0477457
-0.620819
0.0480157
-0.513189
0.0479728
-0.416414
0.0477943
-0.331651
0.0475977
-0.258451
0.0474663
-0.197548
0.0474572
-0.14545
0.0475157
-0.103053
0.0476624
-0.0618393
0.0474389
-0.0241603
0.0468504
0.0215936
0.0461872
0.0681196
0.0458552
0.090823
0.0477988
0.109656
0.0482991
0.039776
0.0185681
0.0444523
-1.11872
0.0386979
-0.961499
0.0373506
-0.845615
0.0385427
-0.737265
0.0404557
-0.622733
0.0417947
-0.514528
0.0427022
-0.417321
0.043334
-0.332283
0.0437925
-0.258909
0.0441705
-0.197926
0.0445512
-0.145831
0.044916
-0.103418
0.0453164
-0.0622397
0.0453098
-0.0241537
0.0449692
0.0219342
0.0445502
0.0685386
0.0444875
0.0908857
0.0465017
0.107642
0.0468849
0.0393929
0.0203182
0.03753
-1.09836
0.030632
-0.954601
0.0288064
-0.843789
0.0302518
-0.73871
0.0330516
-0.625532
0.0354665
-0.516943
0.0373449
-0.4192
0.038802
-0.33374
0.0399266
-0.260034
0.0408209
-0.19882
0.0415953
-0.146605
0.0422702
-0.104092
0.0429305
-0.0629
0.0431569
-0.0243801
0.0430833
0.0220078
0.0429204
0.0687016
0.0431232
0.0906828
0.0452003
0.105565
0.0454983
0.0390949
0.0219992
0.0311175
-1.07652
0.0223992
-0.945883
0.0196354
-0.841025
0.0214185
-0.740493
0.0253233
-0.629437
0.0289739
-0.520593
0.0318981
-0.422124
0.0342121
-0.336054
0.0360192
-0.261841
0.0374387
-0.20024
0.0386113
-0.147778
0.0395987
-0.10508
0.0405229
-0.0638242
0.0409952
-0.0248524
0.0412029
0.0218001
0.0413036
0.0686009
0.0417654
0.090221
0.0438997
0.103431
0.0441447
0.0388498
0.0235736
0.021314
-1.05038
0.0098574
-0.934426
0.00752526
-0.838693
0.0109901
-0.743958
0.0168541
-0.635301
0.0221667
-0.525906
0.0263139
-0.426271
0.0295556
-0.339296
0.032078
-0.264363
0.0340385
-0.2022
0.035616
-0.149355
0.0369185
-0.106382
0.0381093
-0.0650149
0.0388371
-0.0255802
0.0393364
0.0213008
0.0397045
0.0682328
0.0404171
0.0895083
0.0426049
0.101243
0.0428288
0.0386259
0.0250068
0.00365073
-1.01298
-0.00770848
-0.923067
-0.00700909
-0.839393
-0.000579302
-0.750388
0.00781646
-0.643697
0.0150613
-0.533151
0.0205791
-0.431789
0.0248266
-0.343543
0.0281061
-0.267643
0.0306295
-0.204724
0.0326222
-0.151348
0.0342433
-0.108004
0.0357024
-0.0664739
0.0366927
-0.0265705
0.0374898
0.0205037
0.0381263
0.0675963
0.039081
0.0885536
0.0413209
0.0990033
0.041555
0.0383918
0.0262674
-0.00527224
-0.973908
-0.0149102
-0.913429
-0.0150031
-0.8393
-0.00879948
-0.756591
0.000108033
-0.652605
0.00837711
-0.54142
0.0149743
-0.438386
0.020144
-0.348713
0.0241602
-0.271659
0.0272451
-0.207809
0.0296538
-0.153757
0.0315926
-0.109942
0.0333186
-0.0681999
0.0345745
-0.0278264
0.0356707
0.0194076
0.0365733
0.0666936
0.0377605
0.0873664
0.040053
0.0967108
0.040327
0.0381179
0.0273272
0.0347977
-0.98171
0.00696617
-0.885598
-0.00644968
-0.825884
-0.00895938
-0.754082
-0.00437056
-0.657193
0.00294724
-0.548738
0.00991346
-0.445352
0.015714
-0.354514
0.0203474
-0.276293
0.0239467
-0.211408
0.0267521
-0.156562
0.0289988
-0.112189
0.0309845
-0.0701856
0.0325075
-0.0293494
0.0338919
0.0180231
0.0350555
0.06553
0.0364586
0.0859633
0.0388021
0.0943672
0.0391535
0.0377665
0.0281662
0.408477
-0.829409
-0.560779
0.340389
-0.81751
0.27581
-0.761305
0.211462
-0.689733
0.163283
-0.609015
0.131071
-0.516525
0.108366
-0.422648
0.0921071
-0.338254
0.0809622
-0.265148
0.0733834
-0.203829
0.0683955
-0.151574
0.0651094
-0.108903
0.063098
-0.0681742
0.0615384
-0.0277898
0.060794
0.0187675
0.0615588
0.0647652
0.063908
0.0836141
0.0684704
0.0898048
0.068902
0.0373349
0.0305432
0.476111
-0.679732
-0.625788
0.375714
-0.717113
0.301361
-0.686951
0.238517
-0.626889
0.188131
-0.55863
0.151687
-0.480081
0.125432
-0.396392
0.106113
-0.318936
0.0924599
-0.251494
0.0829798
-0.194349
0.076601
-0.145195
0.0722819
-0.104584
0.0695505
-0.0654428
0.0676224
-0.0258616
0.0668841
0.0195058
0.0682186
0.0634307
0.0712986
0.0805342
0.0764726
0.0846308
0.0769678
0.0368397
0.0330261
0.564909
-0.544587
-0.700054
0.455057
-0.607261
0.368202
-0.600097
0.291427
-0.550113
0.226733
-0.493936
0.179069
-0.432417
0.145782
-0.363105
0.121895
-0.295049
0.104962
-0.234561
0.0931538
-0.182541
0.0851302
-0.137172
0.0796031
-0.0990569
0.0760427
-0.0618824
0.0737305
-0.0235494
0.0731299
0.0201064
0.0752264
0.0613342
0.0792128
0.0765478
0.0850492
0.0787945
0.0857204
0.0361684
0.0353794
0.616305
-0.41438
-0.746511
0.491891
-0.482848
0.393588
-0.501793
0.318481
-0.475006
0.255964
-0.431419
0.20511
-0.381563
0.167007
-0.325003
0.139032
-0.267074
0.118627
-0.214156
0.104052
-0.167966
0.0939924
-0.127113
0.0869851
-0.0920496
0.0824508
-0.0573481
0.0797685
-0.0208671
0.0794807
0.0203942
0.0825963
0.0582187
0.0876817
0.0714623
0.0942629
0.0722134
0.0953521
0.0350792
0.0372562
0.663816
-0.306469
-0.771728
0.551683
-0.370714
0.454477
-0.404587
0.373142
-0.393672
0.300209
-0.358486
0.238054
-0.319409
0.191304
-0.278252
0.157938
-0.233709
0.133613
-0.18983
0.115802
-0.150156
0.103229
-0.11454
0.0943918
-0.0832122
0.0887065
-0.0516628
0.0856862
-0.0178468
0.0859591
0.0201213
0.0903921
0.0537856
0.0968216
0.0650329
0.104296
0.0647392
0.10615
0.0332252
0.0381384
0.687417
-0.21675
-0.777136
0.582531
-0.265828
0.479724
-0.30178
0.3918
-0.305748
0.319985
-0.286671
0.26103
-0.260454
0.214055
-0.231277
0.177838
-0.197491
0.149881
-0.161874
0.128504
-0.128778
0.112932
-0.0989681
0.101885
-0.0721653
0.0948585
-0.0446359
0.0915529
-0.0145412
0.0926956
0.0189786
0.0987781
0.0477031
0.106869
0.0569416
0.115502
0.0561063
0.118536
0.0301919
0.0373092
0.690129
-0.144968
-0.761911
0.604199
-0.179897
0.514219
-0.211801
0.432224
-0.223753
0.361743
-0.21619
0.2997
-0.198411
0.245817
-0.177394
0.202036
-0.15371
0.168136
-0.127973
0.142322
-0.102965
0.12328
-0.0799253
0.109693
-0.0585786
0.101163
-0.0361062
0.0976591
-0.0110371
0.100009
0.016629
0.108094
0.0396177
0.118242
0.0467941
0.128455
0.0458933
0.133075
0.0255711
0.0338708
0.687153
-0.0889501
-0.743171
0.617998
-0.110743
0.539196
-0.132999
0.460248
-0.144804
0.388281
-0.144223
0.324763
-0.134893
0.269417
-0.122048
0.223113
-0.107407
0.18602
-0.0908797
0.156884
-0.0738286
0.134604
-0.0576449
0.118368
-0.0423426
0.108241
-0.0259796
0.104654
-0.00744993
0.108516
0.0127668
0.118958
0.0291755
0.131604
0.0341481
0.143952
0.033545
0.150495
0.0190288
0.0268774
0.695445
-0.0429819
-0.741413
0.638066
-0.0533634
0.569922
-0.0648552
0.497244
-0.072126
0.426564
-0.0735441
0.361563
-0.0698908
0.30318
-0.0636653
0.252217
-0.0564434
0.209624
-0.0482868
0.175368
-0.0395719
0.148797
-0.0310741
0.129348
-0.0228942
0.117383
-0.0140146
0.113743
-0.00380965
0.119303
0.00720652
0.132409
0.01607
0.147976
0.0185808
0.16303
0.0184912
0.171712
0.0103471
0.0156412
0.74053
-0.783511
0.687166
0.622311
0.550185
0.476641
0.40675
0.343085
0.286641
0.238355
0.198783
0.167709
0.144814
0.1308
0.12699
0.134197
0.150267
0.168848
0.187339
0.197686
0.649095
0.000442597
-0.642629
0.653477
0.00634631
0.655334
0.0126372
0.654638
0.018072
0.650647
0.0248875
0.643659
0.0291675
0.631416
0.0378785
0.614858
0.0387334
0.587037
0.0521767
0.033662
0.677412
-0.00331325
-0.673656
0.67975
0.00400819
0.680507
0.0118803
0.67919
0.019389
0.675951
0.0281267
0.6698
0.035318
0.662418
0.0452605
0.651978
0.0491739
0.645134
0.0590202
0.0530084
0.700294
-0.00470965
-0.698898
0.701249
0.00305368
0.701936
0.0111932
0.702193
0.0191315
0.70281
0.0275098
0.703391
0.0347375
0.705512
0.0431387
0.706208
0.0484786
0.707104
0.0581233
0.0600592
0.717721
-0.00519064
-0.71724
0.718847
0.00192818
0.720869
0.00917081
0.723691
0.0163094
0.727563
0.0236378
0.731625
0.0306756
0.736186
0.0385774
0.73932
0.0453451
0.743531
0.0539125
0.0570785
0.724988
-0.00508561
-0.725093
0.725935
0.000981355
0.727961
0.0071447
0.730906
0.0133647
0.734838
0.0197056
0.739563
0.02595
0.745816
0.0323249
0.753148
0.0380126
0.762779
0.0442821
0.0481294
0.718379
-0.00443278
-0.719032
0.719004
0.000356442
0.720983
0.00516638
0.72439
0.00995781
0.729391
0.014704
0.736
0.0193411
0.744384
0.0239411
0.754062
0.0283347
0.765398
0.0329459
0.0363916
0.704832
-0.00365567
-0.705609
0.705431
-0.000242472
0.707442
0.00315527
0.710886
0.00651402
0.715775
0.0098152
0.722078
0.0130374
0.729847
0.0161727
0.73902
0.0191615
0.749887
0.0220787
0.024368
0.695291
-0.00266731
-0.69628
0.695541
-0.000492159
0.697039
0.00165663
0.699797
0.00375619
0.703828
0.00578498
0.709143
0.00772246
0.715764
0.00955137
0.723673
0.0112529
0.732918
0.0128337
0.0141146
0.704587
-0.00146036
-0.705794
0.704484
-0.000389266
0.705482
0.000658495
0.707571
0.00166791
0.71073
0.00262492
0.714936
0.00351666
0.720156
0.00433162
0.726349
0.0050596
0.733489
0.0056939
0.00619052
0.754157
-0.755617
0.753768
0.754426
0.756094
0.758719
0.762236
0.766567
0.771627
0.777321
0.531211
0.0127899
-0.588871
0.557493
-0.0679127
0.57475
-0.0523635
0.583658
-0.0368846
0.593546
-0.0320229
0.604685
-0.0279033
0.615449
-0.0223948
0.625419
-0.0167279
0.634557
-0.0111933
-0.00561323
0.607907
0.00425528
-0.599372
0.616481
-0.0764868
0.62894
-0.0648228
0.6365
-0.0444444
0.642051
-0.0375743
0.648928
-0.0347806
0.656315
-0.0297817
0.663025
-0.0234376
0.668819
-0.0169874
-0.0104505
0.668782
-0.0061148
-0.658412
0.67175
-0.0794553
0.67662
-0.0696929
0.682086
-0.0499095
0.685339
-0.0408273
0.688136
-0.037578
0.691444
-0.0330901
0.694593
-0.0265863
0.697075
-0.0194695
-0.0122731
0.72661
-0.0164761
-0.716249
0.721887
-0.0747322
0.718925
-0.066731
0.719538
-0.050522
0.719698
-0.0409875
0.718732
-0.0366119
0.717848
-0.0322055
0.71742
-0.026159
0.71723
-0.0192792
-0.0122833
0.770131
-0.0256865
-0.760921
0.757955
-0.0625557
0.748046
-0.0568224
0.743113
-0.0455888
0.73957
-0.0374449
0.735518
-0.0325596
0.73151
-0.028198
0.728351
-0.0229993
0.726229
-0.0171578
-0.0111472
0.785081
-0.0299662
-0.780801
0.769383
-0.0468583
0.755791
-0.0432306
0.746844
-0.036641
0.740302
-0.0309032
0.734303
-0.0265608
0.72875
-0.0226448
0.724203
-0.0184525
0.720963
-0.0139179
-0.0092164
0.774842
-0.0263182
-0.77849
0.760068
-0.0320839
0.746748
-0.0299109
0.736557
-0.0264498
0.72862
-0.0229664
0.721868
-0.019809
0.71601
-0.016787
0.711239
-0.0136809
0.707751
-0.0104297
-0.00707524
0.759646
-0.0182562
-0.767708
0.747493
-0.0199313
0.736284
-0.0187018
0.726795
-0.0169604
0.718872
-0.0150441
0.712163
-0.0130993
0.706505
-0.0111292
0.701925
-0.00910151
0.6985
-0.00700476
-0.00485437
0.763628
-0.00926918
-0.772615
0.753414
-0.0097175
0.743879
-0.00916701
0.73534
-0.00842083
0.727857
-0.0075613
0.721397
-0.00663879
0.715937
-0.00566998
0.711495
-0.0046595
0.708104
-0.00361365
-0.00254388
0.81361
-0.822879
0.803893
0.794725
0.786305
0.778743
0.772105
0.766435
0.761775
0.758161
0.129067
0.0323548
-0.0342851
0.135112
0.0994391
-0.105484
0.146058
0.169589
-0.180535
0.162643
0.247043
-0.263628
0.186599
0.332006
-0.355963
0.217799
0.428584
-0.459783
0.259933
0.528688
-0.570822
0.309304
0.638114
-0.687485
0.409303
0.714522
-0.81452
0.797301
-0.97687
0.150845
0.029894
0.158179
0.0921051
0.17149
0.156278
0.191039
0.227494
0.220561
0.302484
0.257391
0.391754
0.314069
0.47201
0.369968
0.582215
0.49044
0.59405
0.688369
0.176137
0.0269002
0.184779
0.0834625
0.200953
0.140104
0.223443
0.205004
0.259963
0.265964
0.301424
0.350293
0.375529
0.397905
0.44135
0.516394
0.559309
0.476091
0.589266
0.205525
0.023432
0.215271
0.0737167
0.234487
0.120887
0.259209
0.180283
0.303065
0.222108
0.347134
0.306224
0.43255
0.312489
0.507452
0.441492
0.61905
0.364493
0.492067
0.239626
0.0195976
0.250285
0.0630576
0.27211
0.0990628
0.298514
0.153879
0.346988
0.173634
0.393928
0.259284
0.476199
0.230219
0.562227
0.355463
0.655416
0.271304
0.386562
0.279023
0.015479
0.290577
0.0515043
0.313467
0.0761731
0.342174
0.125171
0.38838
0.127428
0.442272
0.205393
0.507019
0.165471
0.601782
0.260701
0.675113
0.197973
0.280874
0.324392
0.011185
0.337014
0.0388822
0.358534
0.0546526
0.390727
0.0929783
0.428383
0.0897717
0.488785
0.144991
0.536036
0.11822
0.625563
0.171174
0.687006
0.13653
0.18939
0.376938
0.00710325
0.390323
0.0254974
0.409276
0.0356996
0.442786
0.0594689
0.473239
0.059318
0.530343
0.0878871
0.570233
0.0783302
0.642055
0.0993526
0.694449
0.0841355
0.116131
0.43857
0.00348138
0.451587
0.0124805
0.46916
0.0181262
0.500001
0.0286282
0.528754
0.0305652
0.575761
0.0408799
0.614519
0.0395723
0.66849
0.0453816
0.712798
0.039827
0.0563143
0.511104
0.523585
0.541711
0.570339
0.600904
0.641784
0.681357
0.726738
0.766565
0.072053
0.034672
-0.0359537
0.0742571
0.106064
-0.108268
0.0772809
0.181123
-0.184147
0.0807742
0.262009
-0.265503
0.0843412
0.349316
-0.352883
0.0871571
0.444255
-0.44707
0.0885541
0.544949
-0.546346
0.0883274
0.658881