/*--------------------------------*- C++ -*----------------------------------*\
  =========                 |
  \\      /  F ield         | OpenFOAM: The Open Source CFD Toolbox
   \\    /   O peration     | Website:  https://openfoam.org
    \\  /    A nd           | Version:  6.0
     \\/     M anipulation  |
\*---------------------------------------------------------------------------*/
FoamFile
{
    version     2.0;
    format      ascii;
    class       volVectorField;
    location    "10.5";
    object      U;
}
// * * * * * * * * * * * * * * * * * * * * * * * * * * * * * * * * * * * * * //

dimensions      [0 1 -1 0 0 0 0];

internalField   nonuniform List<vector> 
19200
(
(0.0983887 -4.7405 -6.50222e-21)
(0.0603937 -4.32023 3.28081e-21)
(0.0661158 -3.9758 1.52356e-21)
(0.0808473 -3.69394 1.34511e-21)
(0.0984526 -3.46297 1.50746e-21)
(0.120413 -3.27304 1.10111e-22)
(0.146141 -3.11607 2.14908e-21)
(0.174706 -2.98551 -1.43258e-22)
(0.2054 -2.8761 1.90117e-21)
(0.237621 -2.78356 8.0509e-22)
(0.270838 -2.70448 1.09846e-23)
(0.304596 -2.63613 1.28412e-21)
(0.338511 -2.57631 2.11575e-21)
(0.372265 -2.52326 -1.44056e-21)
(0.405593 -2.47559 1.87709e-21)
(0.438284 -2.43215 1.6347e-21)
(0.470167 -2.39207 -1.5348e-21)
(0.501111 -2.35461 2.65158e-21)
(0.531015 -2.31921 -1.684e-21)
(0.559809 -2.2854 8.59713e-22)
(0.587442 -2.25281 1.20968e-21)
(0.613888 -2.22116 -3.83935e-22)
(0.639133 -2.19017 5.22558e-22)
(0.663176 -2.15965 -6.12563e-22)
(0.686029 -2.1294 7.57071e-25)
(0.707707 -2.09926 3.33693e-22)
(0.728229 -2.06906 -2.10859e-22)
(0.747617 -2.03864 1.39029e-22)
(0.765901 -2.00781 3.08985e-22)
(0.783083 -1.97637 1.28797e-21)
(0.222757 -4.73792 -1.52272e-21)
(0.174441 -4.32392 1.02172e-20)
(0.171878 -3.98478 -5.38379e-21)
(0.180089 -3.70781 -7.34858e-21)
(0.192592 -3.48136 -3.31104e-21)
(0.210547 -3.29543 -2.40188e-21)
(0.233109 -3.14194 -5.19958e-21)
(0.259146 -3.01433 6.5113e-22)
(0.287791 -2.90736 -1.13215e-21)
(0.318316 -2.81679 -3.94423e-21)
(0.350091 -2.73924 -9.95499e-21)
(0.382586 -2.67203 4.9027e-21)
(0.41536 -2.61298 -1.80952e-21)
(0.448047 -2.5604 6.90121e-22)
(0.480351 -2.5129 -4.32699e-21)
(0.512033 -2.46941 -1.61275e-21)
(0.542907 -2.42905 1.84194e-22)
(0.572828 -2.39114 5.55243e-21)
(0.601688 -2.35513 -2.91655e-21)
(0.629409 -2.3206 -1.63387e-21)
(0.655942 -2.28718 -6.44005e-21)
(0.681257 -2.25461 1.66325e-21)
(0.705341 -2.22265 -1.0704e-21)
(0.728197 -2.1911 1.88999e-21)
(0.749838 -2.15979 -8.63624e-22)
(0.770281 -2.12857 -1.35367e-21)
(0.789548 -2.09726 4.47932e-22)
(0.807667 -2.0657 6.77145e-22)
(0.824687 -2.03371 -1.23288e-21)
(0.840579 -2.00107 6.56678e-22)
(0.346804 -4.73249 -7.57271e-22)
(0.288453 -4.32507 2.38521e-21)
(0.278002 -3.99151 3.41719e-21)
(0.280029 -3.71968 2.61288e-20)
(0.2877 -3.49793 -1.51622e-20)
(0.301869 -3.31614 1.40007e-20)
(0.321443 -3.1662 8.62464e-21)
(0.345092 -3.04157 6.72564e-21)
(0.371793 -2.93704 -6.57613e-21)
(0.400696 -2.84842 -7.85627e-22)
(0.431077 -2.77237 1.68003e-20)
(0.462333 -2.70624 2.85032e-21)
(0.493966 -2.64791 -7.77132e-21)
(0.52557 -2.59572 6.21784e-21)
(0.556816 -2.54834 -8.44083e-23)
(0.587445 -2.50472 2.69301e-21)
(0.617253 -2.46403 2.03349e-21)
(0.646085 -2.42561 6.71013e-21)
(0.673827 -2.38894 -3.00015e-21)
(0.700398 -2.35363 -9.97369e-22)
(0.725748 -2.31934 -2.66104e-21)
(0.749848 -2.28582 1.17118e-20)
(0.772687 -2.25286 -9.79156e-21)
(0.794271 -2.22027 3.26774e-21)
(0.814616 -2.18789 1.48929e-21)
(0.833742 -2.15557 -6.0017e-21)
(0.851673 -2.12316 8.09881e-21)
(0.868443 -2.09049 -9.11648e-22)
(0.884122 -2.05736 -9.30248e-22)
(0.898644 -2.02356 -6.6421e-21)
(0.470688 -4.72409 -2.4714e-20)
(0.402586 -4.32368 -2.2547e-20)
(0.38455 -3.99601 -2.7781e-20)
(0.380682 -3.72955 1.03247e-21)
(0.383775 -3.51266 1.62602e-21)
(0.394371 -3.33511 -3.17902e-20)
(0.411129 -3.18877 1.40022e-21)
(0.432525 -3.06715 4.10198e-21)
(0.457382 -2.96505 -7.00654e-22)
(0.484733 -2.87835 7.27399e-21)
(0.513761 -2.80374 -2.9357e-20)
(0.543794 -2.73864 -1.86341e-20)
(0.574282 -2.68097 6.92966e-21)
(0.604779 -2.62912 1.40546e-20)
(0.634929 -2.58179 -1.64878e-20)
(0.664452 -2.53797 -2.66202e-21)
(0.693131 -2.49688 -9.8849e-21)
(0.720803 -2.45789 -4.7775e-21)
(0.747349 -2.42052 7.96958e-21)
(0.77269 -2.38438 -1.03474e-20)
(0.796772 -2.34919 8.96043e-21)
(0.819571 -2.31469 -1.07286e-20)
(0.84108 -2.2807 -8.58536e-21)
(0.861308 -2.24705 -6.09614e-21)
(0.880273 -2.2136 -1.83973e-21)
(0.898002 -2.1802 -1.27952e-20)
(0.914519 -2.1467 1.3056e-21)
(0.929865 -2.11294 2.32814e-21)
(0.944132 -2.07871 -6.78705e-21)
(0.957209 -2.0438 1.4374e-21)
(0.594376 -4.71265 -1.50907e-20)
(0.516851 -4.31971 2.1218e-21)
(0.491531 -3.99824 1.95428e-20)
(0.482049 -3.73737 2.07928e-20)
(0.48081 -3.52549 1.48843e-20)
(0.48804 -3.35226 6.11498e-21)
(0.50215 -3.20957 9.63849e-21)
(0.521422 -3.09096 4.50252e-20)
(0.544531 -2.99128 -2.71208e-20)
(0.570391 -2.90645 7.30084e-22)
(0.598101 -2.83324 6.59487e-21)
(0.626921 -2.76911 2.90879e-20)
(0.656251 -2.71204 -2.01139e-20)
(0.685611 -2.66045 1.46288e-20)
(0.714619 -2.6131 -1.65261e-20)
(0.742978 -2.56903 2.83262e-20)
(0.77046 -2.52749 -8.52801e-21)
(0.796897 -2.48788 2.67637e-22)
(0.822168 -2.44975 1.39895e-20)
(0.846192 -2.41275 9.79844e-21)
(0.868921 -2.37662 -1.00979e-20)
(0.890333 -2.34112 1.37609e-20)
(0.910426 -2.30609 -6.40003e-21)
(0.929213 -2.27138 7.32878e-21)
(0.946718 -2.23686 9.78937e-21)
(0.962971 -2.20238 3.60426e-21)
(0.977999 -2.16782 1.10621e-20)
(0.991852 -2.133 -3.86628e-21)
(1.00464 -2.09772 -1.39598e-21)
(1.0162 -2.06174 -6.66339e-21)
(0.717807 -4.69815 -1.11593e-20)
(0.631218 -4.31313 -7.51379e-21)
(0.598927 -3.99818 -2.26748e-20)
(0.584113 -3.7431 -5.90148e-20)
(0.578789 -3.53635 2.00144e-20)
(0.582857 -3.36752 1.27738e-21)
(0.594482 -3.2285 -1.38599e-20)
(0.611755 -3.11289 3.01784e-21)
(0.633202 -3.0156 -1.89526e-21)
(0.657629 -2.93261 -3.66777e-20)
(0.684048 -2.86075 1.55986e-20)
(0.711656 -2.79752 2.71445e-20)
(0.73981 -2.74097 1.71636e-22)
(0.767996 -2.68958 1.03388e-20)
(0.79581 -2.64216 2.57353e-20)
(0.822941 -2.59778 -1.77666e-20)
(0.849154 -2.55573 3.17227e-20)
(0.874277 -2.51545 -1.51561e-20)
(0.898188 -2.47653 2.75175e-20)
(0.92081 -2.43864 -2.06029e-20)
(0.942098 -2.40153 9.38011e-21)
(0.962036 -2.36502 2.48236e-20)
(0.980627 -2.32895 1.50435e-21)
(0.99789 -2.29318 -2.30572e-20)
(1.01386 -2.25759 1.31712e-20)
(1.02856 -2.22207 1.62111e-21)
(1.04203 -2.18646 -4.19078e-21)
(1.05432 -2.15063 1.64306e-20)
(1.06556 -2.11434 5.76657e-21)
(1.07555 -2.07737 -5.82317e-21)
(0.840913 -4.68059 3.11097e-20)
(0.745644 -4.30392 -1.32914e-21)
(0.706712 -3.99577 -4.69605e-20)
(0.686852 -3.74668 9.34052e-21)
(0.677689 -3.54517 -1.33923e-20)
(0.678798 -3.3808 9.75347e-21)
(0.688096 -3.24547 2.22335e-20)
(0.703487 -3.13285 4.07855e-20)
(0.723355 -3.03792 -4.45769e-20)
(0.746396 -2.95671 1.10084e-20)
(0.771543 -2.88613 -7.87685e-21)
(0.797936 -2.82374 5.90799e-21)
(0.824888 -2.76766 -2.58782e-20)
(0.851856 -2.71641 -1.53998e-21)
(0.878419 -2.66885 4.32526e-20)
(0.904255 -2.6241 -2.9797e-20)
(0.929121 -2.58148 -1.89317e-20)
(0.952847 -2.5405 -1.40179e-20)
(0.975312 -2.50075 2.60354e-20)
(0.996444 -2.46194 5.72066e-21)
(1.0162 -2.42386 -2.58126e-20)
(1.03458 -2.38632 3.50426e-20)
(1.05158 -2.3492 -3.1606e-20)
(1.06724 -2.31238 2.13474e-20)
(1.08159 -2.27575 -1.19861e-20)
(1.09467 -2.2392 8.04933e-21)
(1.10652 -2.2026 6.05925e-21)
(1.11719 -2.16579 -2.68164e-20)
(1.12684 -2.12855 1.17323e-20)
(1.1352 -2.09065 2.89469e-22)
(0.963621 -4.65996 -3.11068e-20)
(0.860082 -4.29205 2.61154e-20)
(0.814848 -3.99097 -4.88935e-20)
(0.790237 -3.74804 9.38618e-20)
(0.777481 -3.55188 -2.65483e-20)
(0.775829 -3.39201 3.82901e-20)
(0.782955 -3.26038 1.50359e-22)
(0.796577 -3.15073 -5.11366e-21)
(0.814939 -3.05811 -8.12341e-21)
(0.836636 -2.97864 -1.79836e-22)
(0.860525 -2.90927 -3.19804e-20)
(0.88569 -2.84766 1.65208e-20)
(0.911407 -2.79198 -2.0532e-20)
(0.937108 -2.7408 -1.60236e-21)
(0.962357 -2.69304 -5.87618e-20)
(0.986823 -2.64787 1.91893e-20)
(1.01026 -2.60466 1.15293e-20)
(1.03251 -2.56293 -1.28138e-20)
(1.05344 -2.52232 -1.47061e-21)
(1.07299 -2.48258 -2.04824e-20)
(1.09113 -2.4435 -7.45787e-21)
(1.10786 -2.40494 7.53376e-22)
(1.1232 -2.36679 -1.83837e-20)
(1.13718 -2.32894 -2.74488e-20)
(1.14984 -2.29129 1.10842e-21)
(1.16123 -2.25375 -2.96304e-21)
(1.17138 -2.21619 8.88391e-21)
(1.18038 -2.17846 -2.21112e-20)
(1.18838 -2.14032 1.89402e-20)
(1.19507 -2.10157 -3.85404e-20)
(1.08586 -4.63628 -7.89343e-20)
(0.974479 -4.2775 9.80269e-20)
(0.923295 -3.98375 -1.04749e-19)
(0.894231 -3.74713 -2.81524e-20)
(0.878129 -3.55641 -1.86442e-20)
(0.873914 -3.40107 -2.01046e-20)
(0.879016 -3.27313 -1.85936e-20)
(0.890975 -3.16642 -3.98205e-21)
(0.9079 -3.07607 -1.90421e-20)
(0.928288 -2.99826 -4.84454e-21)
(0.950922 -2.93006 3.35013e-20)
(0.97484 -2.86916 -1.92402e-20)
(0.999283 -2.8138 -2.36585e-20)
(1.02366 -2.76264 -4.02987e-20)
(1.04753 -2.71463 8.5247e-20)
(1.07055 -2.669 -3.337e-20)
(1.09248 -2.62515 1.25002e-20)
(1.11315 -2.58264 -4.71875e-20)
(1.13246 -2.54116 1.79531e-20)
(1.15034 -2.50047 -7.70959e-21)
(1.16678 -2.4604 9.4406e-21)
(1.18178 -2.42083 -3.66306e-21)
(1.19537 -2.38165 3.12381e-20)
(1.20759 -2.34279 -1.12385e-20)
(1.21849 -2.30416 3.08991e-20)
(1.22813 -2.26567 -5.96167e-21)
(1.23654 -2.22721 4.08573e-20)
(1.24381 -2.18861 1.13862e-20)
(1.25012 -2.14965 2.1695e-20)
(1.25509 -2.11012 -7.03105e-20)
(1.20756 -4.60953 1.25288e-19)
(1.08878 -4.26025 -2.48215e-20)
(1.03201 -3.97406 4.43895e-20)
(0.998793 -3.74389 -1.32206e-20)
(0.979593 -3.55867 4.61557e-20)
(0.973008 -3.40788 4.4382e-20)
(0.976231 -3.28363 5.12441e-20)
(0.986626 -3.17982 -4.438e-21)
(1.00218 -3.09168 -5.02329e-20)
(1.02128 -3.01548 7.42481e-20)
(1.04266 -2.94836 -6.10092e-21)
(1.0653 -2.88811 5.42629e-20)
(1.08843 -2.83303 1.98814e-20)
(1.11142 -2.78182 7.20956e-21)
(1.13384 -2.73352 1.24911e-20)
(1.15533 -2.68738 1.65404e-20)
(1.17566 -2.64285 2.82081e-20)
(1.19467 -2.59955 -8.22921e-21)
(1.21227 -2.55719 4.22917e-20)
(1.22839 -2.51555 1.99107e-20)
(1.24304 -2.47449 -4.186e-20)
(1.25622 -2.43392 7.46065e-20)
(1.26798 -2.39375 -9.95345e-20)
(1.27837 -2.35391 9.54029e-20)
(1.28745 -2.31434 -3.18115e-20)
(1.29528 -2.27495 6.01228e-21)
(1.3019 -2.23564 -4.28259e-20)
(1.3074 -2.19624 2.39351e-20)
(1.31198 -2.15652 8.81728e-21)
(1.3152 -2.1163 -1.11917e-20)
(1.32863 -4.57974 -7.29734e-20)
(1.20292 -4.24028 7.37242e-20)
(1.14094 -3.96186 -2.02444e-20)
(1.10388 -3.73826 5.90516e-20)
(1.08183 -3.5586 5.56746e-21)
(1.07306 -3.41237 1.33832e-20)
(1.07454 -3.29178 -1.04309e-19)
(1.08347 -3.19082 -1.82485e-20)
(1.09769 -3.10483 6.90292e-20)
(1.11554 -3.03018 5.41712e-20)
(1.13565 -2.96408 -9.24566e-20)
(1.15699 -2.90441 5.47651e-20)
(1.17874 -2.84954 -5.5319e-20)
(1.20029 -2.79824 3.92434e-20)
(1.22117 -2.7496 -6.52847e-20)
(1.24105 -2.70291 -4.96485e-20)
(1.2597 -2.6577 2.98889e-21)
(1.27696 -2.61359 -2.3487e-20)
(1.29275 -2.57033 4.20221e-20)
(1.30703 -2.52774 1.66415e-20)
(1.3198 -2.48572 -1.1072e-20)
(1.33109 -2.44417 -3.44081e-21)
(1.34095 -2.40303 1.35086e-20)
(1.34944 -2.36226 -4.48883e-20)
(1.35663 -2.32179 7.64878e-20)
(1.36259 -2.28156 -1.85226e-20)
(1.36737 -2.24146 -1.59157e-21)
(1.37107 -2.20134 6.84659e-20)
(1.37389 -2.16094 9.46106e-21)
(1.37534 -2.12011 -9.85724e-21)
(1.44902 -4.54691 1.79546e-21)
(1.31685 -4.21757 -4.09801e-20)
(1.25003 -3.9471 -3.892e-20)
(1.20944 -3.73018 -6.34963e-20)
(1.18478 -3.55611 1.58192e-21)
(1.17402 -3.41445 -4.71614e-20)
(1.17389 -3.29747 5.61941e-20)
(1.18143 -3.19932 -4.80408e-21)
(1.19438 -3.11541 4.7974e-20)
(1.21097 -3.04224 -3.89652e-20)
(1.22981 -2.9771 -2.08663e-20)
(1.2498 -2.91795 1.14329e-20)
(1.27013 -2.86324 6.23498e-21)
(1.29016 -2.8118 -6.56461e-20)
(1.30943 -2.76277 3.93093e-20)
(1.32761 -2.71552 -2.02882e-20)
(1.34449 -2.66959 5.68845e-20)
(1.35991 -2.62467 -1.9088e-20)
(1.3738 -2.58052 2.0413e-20)
(1.38615 -2.537 4.89733e-21)
(1.39695 -2.49403 3.50523e-20)
(1.40627 -2.45153 -7.19305e-21)
(1.41416 -2.40947 5.86792e-20)
(1.42068 -2.36781 -6.53063e-20)
(1.42594 -2.32651 -2.21902e-20)
(1.42998 -2.28549 1.85151e-20)
(1.43288 -2.24468 -1.47228e-21)
(1.43474 -2.2039 -3.29254e-20)
(1.43578 -2.1629 2.70538e-20)
(1.43544 -2.12157 -3.28425e-20)
(1.56865 -4.51104 1.25901e-19)
(1.43051 -4.1921 3.61751e-20)
(1.35924 -3.92974 4.23456e-20)
(1.31541 -3.71958 5.91882e-20)
(1.28839 -3.55114 8.88557e-20)
(1.27582 -3.41402 -2.06813e-21)
(1.27421 -3.30062 1.27809e-20)
(1.28045 -3.20521 1.04684e-19)
(1.29216 -3.12333 -2.12963e-20)
(1.3075 -3.05157 -3.91214e-20)
(1.32503 -2.98732 7.09664e-20)
(1.34364 -2.92863 1.24663e-20)
(1.36248 -2.87403 1.01099e-21)
(1.38091 -2.82241 1.73885e-20)
(1.39849 -2.77297 3.22654e-20)
(1.41489 -2.72513 -6.72817e-20)
(1.4299 -2.67847 5.78159e-20)
(1.44339 -2.63273 1.02013e-20)
(1.4553 -2.5877 5.80021e-20)
(1.46562 -2.54328 -3.11932e-20)
(1.47439 -2.49938 5.30764e-20)
(1.48166 -2.45598 -5.65307e-20)
(1.4875 -2.41304 5.55511e-20)
(1.49201 -2.37055 7.92848e-21)
(1.49526 -2.32847 -3.75195e-20)
(1.49735 -2.28674 -1.25479e-20)
(1.49833 -2.24528 7.40939e-20)
(1.49833 -2.20394 5.42972e-20)
(1.49758 -2.16242 1.47291e-20)
(1.49544 -2.12067 -1.05216e-20)
(1.68743 -4.47216 1.35923e-20)
(1.54382 -4.16385 3.18956e-20)
(1.46849 -3.90976 1.2798e-19)
(1.42175 -3.70642 -2.09923e-19)
(1.3926 -3.54361 -2.10334e-20)
(1.3784 -3.411 -2.25014e-20)
(1.37543 -3.30113 1.05233e-20)
(1.38043 -3.20841 1.52761e-20)
(1.39094 -3.12848 2.45352e-20)
(1.40503 -3.05806 -6.54566e-20)
(1.42123 -2.99464 -1.33345e-20)
(1.43839 -2.93636 3.85225e-20)
(1.45568 -2.88181 4.23111e-20)
(1.47244 -2.82997 -4.17042e-20)
(1.48824 -2.78009 -4.20499e-20)
(1.50277 -2.73165 6.87441e-20)
(1.51582 -2.68427 4.60624e-20)
(1.52728 -2.63772 -1.11532e-20)
(1.53712 -2.59183 -2.95718e-20)
(1.54534 -2.54652 5.94528e-21)
(1.55199 -2.50175 -7.05504e-20)
(1.55714 -2.45748 8.63841e-20)
(1.56088 -2.41373 -5.93419e-20)
(1.5633 -2.37046 -2.60316e-21)
(1.56452 -2.32767 4.02686e-20)
(1.56461 -2.2853 -1.2432e-20)
(1.56365 -2.24328 -3.81058e-20)
(1.56176 -2.20145 4.73281e-20)
(1.5592 -2.15951 -1.16038e-21)
(1.55526 -2.11744 8.70619e-21)
(1.8053 -4.43027 -9.20671e-21)
(1.65673 -4.13281 -3.22424e-20)
(1.57773 -3.8871 -1.48974e-19)
(1.52838 -3.69062 5.40754e-20)
(1.49735 -3.53344 -1.6732e-20)
(1.48168 -3.40531 5.65223e-20)
(1.47746 -3.29892 4.55202e-21)
(1.4813 -3.2088 -6.61119e-20)
(1.49062 -3.13076 1.02485e-19)
(1.50345 -3.06161 -9.3057e-20)
(1.51828 -2.99896 -4.01119e-21)
(1.53396 -2.94103 2.36574e-20)
(1.54961 -2.8865 -4.03816e-20)
(1.56463 -2.83441 4.76598e-20)
(1.57856 -2.78408 -9.08542e-20)
(1.59112 -2.73503 -2.10362e-20)
(1.60213 -2.68693 5.64652e-20)
(1.61148 -2.63958 2.29503e-22)
(1.61916 -2.59287 -3.65691e-20)
(1.6252 -2.54671 1.00711e-19)
(1.62965 -2.5011 -5.43339e-20)
(1.63261 -2.45603 -7.35726e-20)
(1.63418 -2.4115 2.46492e-20)
(1.63448 -2.36753 -7.29054e-20)
(1.63361 -2.32411 -1.7832e-20)
(1.63167 -2.28118 -2.29379e-21)
(1.62873 -2.23868 -4.90367e-20)
(1.62495 -2.19645 5.8784e-20)
(1.62058 -2.15419 -3.29374e-20)
(1.61484 -2.1119 3.88786e-20)
(1.92218 -4.38538 -4.70256e-20)
(1.76916 -4.09896 -1.33715e-19)
(1.68689 -3.86172 6.55847e-20)
(1.63524 -3.67215 -6.4025e-20)
(1.60256 -3.52058 -4.67968e-20)
(1.58558 -3.39687 -2.76576e-20)
(1.58023 -3.29389 -1.03698e-19)
(1.58295 -3.20631 7.13877e-20)
(1.59111 -3.13008 -1.78804e-19)
(1.60267 -3.06214 -6.64639e-20)
(1.61609 -3.0002 2.36932e-20)
(1.63021 -2.94257 4.04737e-20)
(1.64417 -2.88802 -5.53901e-22)
(1.65735 -2.83565 -7.90779e-20)
(1.66933 -2.78486 1.8794e-20)
(1.67983 -2.7352 -7.43021e-20)
(1.6887 -2.6864 -5.3916e-20)
(1.69586 -2.63828 -3.29403e-20)
(1.7013 -2.59077 -6.69425e-21)
(1.70507 -2.54381 5.68111e-20)
(1.70726 -2.49741 8.19696e-20)
(1.70796 -2.45159 -2.48567e-20)
(1.70731 -2.40637 -2.46081e-20)
(1.70543 -2.36177 4.75522e-20)
(1.70243 -2.31778 2.64342e-20)
(1.69843 -2.27438 -2.12289e-20)
(1.69351 -2.2315 -2.40715e-20)
(1.68781 -2.18897 2.75102e-21)
(1.68164 -2.14647 2.51614e-20)
(1.67411 -2.10407 3.47321e-20)
(2.03799 -4.33752 -8.85248e-21)
(1.88105 -4.06229 1.72037e-19)
(1.7959 -3.83361 1.34343e-19)
(1.74226 -3.65094 1.04909e-19)
(1.70815 -3.50494 -6.90535e-20)
(1.69004 -3.38561 -1.38065e-20)
(1.68364 -3.28596 1.21363e-20)
(1.6853 -3.20085 9.20659e-20)
(1.6923 -3.12636 3.48613e-20)
(1.70256 -3.05955 8.56094e-20)
(1.71453 -2.99826 -1.21642e-19)
(1.72703 -2.94089 1.21505e-20)
(1.73922 -2.88629 5.03961e-20)
(1.75048 -2.83364 3.17959e-20)
(1.76042 -2.78238 6.67671e-20)
(1.76878 -2.73212 -4.57316e-20)
(1.77542 -2.68263 -4.28696e-20)
(1.78029 -2.63378 7.95148e-21)
(1.78341 -2.5855 9.38279e-20)
(1.78484 -2.53779 -1.52e-19)
(1.7847 -2.49066 5.32589e-20)
(1.78309 -2.44416 -3.39055e-22)
(1.78016 -2.39831 1.02908e-19)
(1.77605 -2.35315 -4.4489e-20)
(1.77089 -2.3087 -2.41069e-21)
(1.76481 -2.26491 -2.90722e-20)
(1.75788 -2.22174 2.77511e-20)
(1.75027 -2.179 6.81899e-21)
(1.7423 -2.13638 -3.12979e-20)
(1.733 -2.09397 1.06553e-19)
(2.15267 -4.28671 -1.7535e-19)
(1.99232 -4.0228 -1.0521e-19)
(1.9047 -3.80271 -2.71535e-19)
(1.84936 -3.62694 -1.25372e-19)
(1.81405 -3.48648 1.18029e-19)
(1.79495 -3.37145 -7.04539e-20)
(1.7876 -3.27505 -1.81715e-20)
(1.78824 -3.19233 -4.77426e-20)
(1.79408 -3.1195 8.24755e-20)
(1.80302 -3.05378 -1.96124e-20)
(1.81349 -2.99308 -3.07413e-20)
(1.8243 -2.93594 -3.75283e-21)
(1.83463 -2.88126 -1.27099e-19)
(1.84389 -2.82831 -5.71245e-21)
(1.8517 -2.77658 3.39748e-20)
(1.85782 -2.72574 -4.30546e-21)
(1.86215 -2.67559 -1.36282e-19)
(1.86466 -2.62605 1.33692e-19)
(1.86538 -2.57706 -1.32707e-19)
(1.8644 -2.52865 5.22663e-20)
(1.86186 -2.48086 7.48422e-21)
(1.85788 -2.43373 2.8644e-21)
(1.85262 -2.38733 -5.65793e-20)
(1.84625 -2.3417 1.94259e-20)
(1.8389 -2.29686 -4.96403e-23)
(1.83071 -2.25278 6.52207e-21)
(1.82176 -2.20941 -1.45664e-19)
(1.81224 -2.16658 3.94492e-20)
(1.80248 -2.12393 4.27223e-20)
(1.79144 -2.08164 4.82149e-20)
(2.26612 -4.23295 3.44632e-19)
(2.10291 -3.98047 1.21875e-19)
(2.01321 -3.76901 7.244e-20)
(1.95648 -3.60012 1.1532e-19)
(1.92018 -3.46512 -1.42995e-20)
(1.90023 -3.35431 8.93667e-20)
(1.892 -3.26109 2.00489e-19)
(1.89166 -3.18067 -2.52288e-20)
(1.89634 -3.10944 1.24359e-20)
(1.90393 -3.04473 2.45204e-19)
(1.91283 -2.98459 -3.24943e-20)
(1.92189 -2.92763 3.53327e-20)
(1.93028 -2.87287 -1.32604e-20)
(1.93746 -2.81961 -1.75434e-21)
(1.94305 -2.76743 1.86461e-19)
(1.94685 -2.71603 7.1509e-21)
(1.94878 -2.66526 2.02347e-19)
(1.94884 -2.61506 -2.51399e-20)
(1.94709 -2.56541 -4.47135e-20)
(1.94364 -2.51637 1.05001e-19)
(1.93864 -2.46798 -9.65736e-20)
(1.93223 -2.42031 1.06757e-19)
(1.92461 -2.37344 5.8073e-20)
(1.91592 -2.32742 -4.7322e-20)
(1.90635 -2.28227 7.26345e-20)
(1.89603 -2.238 8.75124e-21)
(1.88506 -2.19454 -3.09834e-20)
(1.87364 -2.15172 1.65668e-20)
(1.86209 -2.10915 1.1122e-19)
(1.84934 -2.06708 1.73176e-20)
(2.37828 -4.17629 -5.93849e-20)
(2.21273 -3.93529 -1.23834e-19)
(2.12135 -3.73247 5.2132e-20)
(2.06353 -3.57041 -2.0856e-19)
(2.02645 -3.44081 1.00587e-19)
(2.00578 -3.33414 -1.85659e-19)
(1.99676 -3.24401 -1.23746e-19)
(1.99545 -3.16581 3.49763e-20)
(1.99896 -3.0961 3.5455e-20)
(2.00515 -3.03234 -1.70522e-19)
(2.01243 -2.97272 -7.4681e-20)
(2.01966 -2.91592 3.5127e-20)
(2.02604 -2.86105 -9.65999e-20)
(2.03104 -2.8075 -3.88749e-20)
(2.03433 -2.75488 -2.63649e-20)
(2.03573 -2.70295 -2.65405e-20)
(2.03519 -2.6516 -1.13311e-19)
(2.03272 -2.6008 -7.15819e-20)
(2.02843 -2.55056 1.2753e-20)
(2.02244 -2.50094 2.36953e-20)
(2.01492 -2.45202 2.57221e-20)
(2.00605 -2.40389 -8.87666e-20)
(1.996 -2.35663 3.37566e-20)
(1.98498 -2.3103 -6.97357e-20)
(1.97316 -2.26495 6.64046e-20)
(1.96069 -2.22057 -8.73459e-20)
(1.94769 -2.17713 2.77931e-20)
(1.93436 -2.13443 -4.33231e-20)
(1.92106 -2.09206 -6.21173e-20)
(1.90662 -2.05034 -6.31958e-21)
(2.48908 -4.11673 -1.27254e-19)
(2.32172 -3.88727 -1.13371e-19)
(2.22905 -3.69307 -1.11597e-19)
(2.17043 -3.53779 -8.4076e-20)
(2.13277 -3.4135 2.59733e-19)
(2.11151 -3.31087 3.71216e-20)
(2.10175 -3.22373 1.13579e-19)
(2.09949 -3.14767 1.75541e-19)
(2.10181 -3.07941 8.54475e-20)
(2.10656 -3.01656 -1.14248e-19)
(2.11216 -2.95741 1.86661e-19)
(2.11749 -2.90076 -1.82472e-19)
(2.12178 -2.84578 1.74388e-19)
(2.12452 -2.79195 2.10423e-20)
(2.12542 -2.73891 4.52936e-20)
(2.12434 -2.68649 1.50906e-20)
(2.12124 -2.63461 1.85999e-19)
(2.11619 -2.58326 -2.77767e-20)
(2.10929 -2.53249 2.53635e-20)
(2.1007 -2.48237 8.54936e-20)
(2.09062 -2.433 -9.59081e-20)
(2.07922 -2.38448 7.70602e-20)
(2.06672 -2.33691 3.18206e-21)
(2.05333 -2.29036 3.53996e-20)
(2.03923 -2.24488 6.51587e-20)
(2.02459 -2.2005 -1.1047e-20)
(2.00955 -2.15718 6.5023e-20)
(1.99431 -2.11471 9.48473e-20)
(1.97928 -2.07267 -1.03063e-19)
(1.9632 -2.03142 -6.37635e-20)
(2.59842 -4.0543 3.75549e-19)
(2.42979 -3.8364 -4.25826e-20)
(2.33625 -3.65079 8.75327e-20)
(2.2771 -3.5022 1.6134e-19)
(2.23905 -3.38312 -4.69692e-19)
(2.2173 -3.28443 5.1786e-20)
(2.20686 -3.20019 -1.82201e-19)
(2.20367 -3.12619 1.85155e-19)
(2.20478 -3.05931 -1.4818e-19)
(2.20804 -2.99732 8.06467e-20)
(2.21189 -2.93862 -2.95228e-19)
(2.21524 -2.8821 8.2347e-21)
(2.21735 -2.82702 -9.97694e-20)
(2.21776 -2.77292 1.52204e-19)
(2.21619 -2.7195 -1.62547e-19)
(2.21254 -2.66664 -8.46783e-21)
(2.20682 -2.61428 -1.33963e-19)
(2.19911 -2.56245 -1.15154e-20)
(2.18955 -2.51121 1.15736e-20)
(2.17832 -2.46067 3.04105e-20)
(2.16562 -2.41092 -1.72377e-19)
(2.15166 -2.36209 -5.34609e-21)
(2.13667 -2.31428 -9.74733e-20)
(2.12087 -2.26759 -2.27156e-20)
(2.10447 -2.22208 -6.03458e-20)
(2.08765 -2.17779 -6.63739e-20)
(2.07055 -2.13468 -6.97111e-20)
(2.05341 -2.09257 1.15544e-19)
(2.03666 -2.05097 3.12942e-20)
(2.01898 -2.01032 -6.21e-20)
(2.70624 -3.98904 -2.50711e-19)
(2.53689 -3.78269 9.40023e-20)
(2.44285 -3.60561 -1.61876e-19)
(2.38346 -3.46362 2.39408e-20)
(2.34519 -3.34964 2.68762e-19)
(2.32306 -3.25478 -1.37222e-19)
(2.31199 -3.17334 -1.47332e-19)
(2.30785 -3.10131 -1.2546e-19)
(2.30772 -3.03576 5.67419e-21)
(2.30944 -2.97459 8.19599e-20)
(2.31148 -2.9163 -6.02346e-20)
(2.31278 -2.85991 2.1965e-21)
(2.31263 -2.80474 1.90874e-19)
(2.31062 -2.7504 -9.73242e-20)
(2.30651 -2.69664 2.59848e-20)
(2.30023 -2.64338 -8.01751e-20)
(2.29182 -2.59061 3.08482e-20)
(2.2814 -2.53836 6.68965e-20)
(2.26912 -2.48674 7.71351e-20)
(2.25519 -2.43584 -8.46718e-20)
(2.23984 -2.38579 1.1942e-20)
(2.22329 -2.33673 7.35852e-20)
(2.20578 -2.28876 1.28248e-19)
(2.18754 -2.24201 3.4615e-20)
(2.16881 -2.19655 -1.34014e-19)
(2.14978 -2.15242 1.56781e-19)
(2.1306 -2.10963 -7.87802e-20)
(2.11155 -2.06797 -9.47774e-20)
(2.09309 -2.02694 -5.8346e-20)
(2.07385 -1.98704 -8.05897e-20)
(2.81247 -3.92098 1.34745e-19)
(2.64294 -3.72615 -1.08705e-19)
(2.54881 -3.55752 4.17218e-20)
(2.48942 -3.42201 2.23993e-19)
(2.4511 -3.313 6.18543e-20)
(2.42868 -3.22186 -5.30879e-20)
(2.41699 -3.14311 1.29593e-19)
(2.41191 -3.07299 3.00744e-20)
(2.4105 -3.00871 1.25884e-19)
(2.41062 -2.94831 6.97368e-20)
(2.41078 -2.89043 3.37624e-21)
(2.40996 -2.83417 4.48441e-20)
(2.40748 -2.77893 -1.42182e-20)
(2.40297 -2.72437 2.50132e-20)
(2.39625 -2.67033 7.08464e-20)
(2.38727 -2.61673 -3.91242e-20)
(2.37612 -2.56361 9.78911e-20)
(2.36293 -2.51102 1.00051e-19)
(2.34789 -2.45908 -1.14605e-19)
(2.33123 -2.40791 1.1846e-19)
(2.31319 -2.35764 2.53663e-19)
(2.29402 -2.30842 -1.64777e-19)
(2.27396 -2.26037 1.67087e-19)
(2.25326 -2.21362 -1.17197e-19)
(2.23217 -2.16826 -1.68828e-20)
(2.2109 -2.12438 1.27952e-19)
(2.18962 -2.08198 -2.5889e-20)
(2.16865 -2.04089 9.7011e-20)
(2.14849 -2.00056 9.70476e-20)
(2.12771 -1.96154 -1.94771e-19)
(2.91704 -3.85014 -1.3026e-19)
(2.74789 -3.66679 6.24233e-20)
(2.65404 -3.50649 2.56199e-20)
(2.5949 -3.37732 -2.63844e-19)
(2.55667 -3.27315 -1.38257e-19)
(2.53402 -3.18561 1.05099e-19)
(2.52175 -3.10948 -2.95373e-19)
(2.51571 -3.04118 3.60624e-19)
(2.51298 -2.97812 -2.04045e-19)
(2.51145 -2.91847 2.44159e-20)
(2.50967 -2.86098 -3.86412e-20)
(2.50664 -2.80485 -1.20193e-19)
(2.50176 -2.74957 2.51059e-19)
(2.49469 -2.69485 9.61172e-20)
(2.48528 -2.64057 -9.94416e-20)
(2.47355 -2.5867 2.98823e-21)
(2.4596 -2.53329 5.68509e-20)
(2.4436 -2.48044 -1.23356e-19)
(2.42577 -2.42826 2.64444e-20)
(2.40635 -2.3769 8.68652e-20)
(2.3856 -2.32649 -3.58796e-20)
(2.36378 -2.27718 6.0595e-20)
(2.34115 -2.22911 -1.19627e-19)
(2.31798 -2.18242 1.74651e-19)
(2.2945 -2.13723 4.13837e-20)
(2.27096 -2.09363 -1.11578e-19)
(2.24755 -2.0517 -9.73165e-20)
(2.22461 -2.01125 2.17508e-22)
(2.20273 -1.97173 1.35668e-19)
(2.18045 -1.93375 -3.29025e-20)
(3.0199 -3.77656 -3.56877e-20)
(2.85169 -3.60461 -2.62455e-19)
(2.75849 -3.4525 3.1493e-19)
(2.69982 -3.32952 2.15495e-19)
(2.66178 -3.23005 2.17787e-19)
(2.63897 -3.146 6.20354e-20)
(2.62612 -3.07238 9.32169e-20)
(2.61912 -3.00584 4.84273e-20)
(2.61502 -2.94396 -1.91947e-19)
(2.61178 -2.88503 3.54632e-19)
(2.60798 -2.82794 -2.89667e-19)
(2.60269 -2.77197 -1.92801e-20)
(2.59533 -2.71667 4.32025e-20)
(2.58563 -2.66184 -1.92746e-19)
(2.57348 -2.60738 1.69761e-19)
(2.55894 -2.5533 -5.0846e-20)
(2.54215 -2.49969 -1.32075e-19)
(2.52331 -2.44666 5.16337e-20)
(2.50266 -2.39433 -9.93283e-20)
(2.48046 -2.34285 -8.82514e-20)
(2.457 -2.29238 -9.52562e-20)
(2.43253 -2.24305 2.17056e-20)
(2.40732 -2.19502 1.29242e-20)
(2.38165 -2.14844 -2.37461e-19)
(2.35578 -2.10344 -9.10393e-20)
(2.32993 -2.06016 5.87306e-20)
(2.30434 -2.0187 7.34645e-20)
(2.27938 -1.97894 -1.01581e-19)
(2.25574 -1.94032 -3.8933e-20)
(2.23196 -1.90352 3.94364e-21)
(3.12102 -3.70026 -3.11201e-20)
(2.95432 -3.53962 1.69856e-19)
(2.86211 -3.39552 -4.83918e-20)
(2.80408 -3.27855 -5.9746e-20)
(2.76633 -3.18365 -3.39798e-19)
(2.74339 -3.10297 -7.53914e-20)
(2.72998 -3.03179 1.45395e-19)
(2.72197 -2.96695 -9.65832e-20)
(2.71648 -2.9062 -1.03604e-20)
(2.71147 -2.84799 -1.92239e-20)
(2.70559 -2.79131 1.09691e-19)
(2.69796 -2.73551 -1.7488e-19)
(2.68806 -2.68025 -1.18141e-19)
(2.67567 -2.62535 1.39716e-19)
(2.66073 -2.57078 -8.03575e-20)
(2.64333 -2.51658 -9.74507e-20)
(2.62367 -2.46285 2.09673e-19)
(2.60195 -2.40971 -3.30022e-20)
(2.57847 -2.35732 1.25465e-19)
(2.5535 -2.30582 -1.15472e-19)
(2.52731 -2.25536 -9.40374e-20)
(2.5002 -2.20609 8.20895e-20)
(2.47244 -2.15815 -9.18633e-21)
(2.44428 -2.11171 -6.21938e-20)
(2.416 -2.06691 5.49695e-20)
(2.38784 -2.02392 -1.72471e-19)
(2.36002 -1.98291 1.05426e-19)
(2.33297 -1.94384 -1.6388e-21)
(2.30749 -1.90615 -1.11269e-19)
(2.2822 -1.8706 1.69337e-19)
(3.22049 -3.6213 1.29653e-19)
(3.05581 -3.47182 -3.36539e-19)
(2.96482 -3.3355 -2.83517e-20)
(2.90755 -3.22437 1.60469e-19)
(2.87017 -3.1339 -4.20845e-20)
(2.84714 -3.0565 -1.1923e-19)
(2.83316 -2.98767 5.66516e-20)
(2.82413 -2.92449 6.59214e-20)
(2.81719 -2.86485 5.74376e-21)
(2.81036 -2.80735 8.23268e-20)
(2.80234 -2.75107 2.64969e-19)
(2.7923 -2.69549 -9.36949e-20)
(2.77981 -2.64031 2.45701e-20)
(2.76467 -2.58541 -6.41719e-20)
(2.74689 -2.5308 2.47586e-19)
(2.72661 -2.47656 -4.47018e-20)
(2.70404 -2.4228 1.49206e-19)
(2.67944 -2.36967 -5.82097e-20)
(2.65312 -2.3173 6.31203e-20)
(2.62538 -2.26587 9.58827e-20)
(2.59649 -2.2155 1.65379e-20)
(2.56677 -2.16636 6.52002e-20)
(2.53647 -2.11857 -5.42602e-20)
(2.50587 -2.0723 1.5176e-19)
(2.47521 -2.02769 -6.23136e-20)
(2.44473 -1.98494 2.29463e-19)
(2.41465 -1.94428 -6.64189e-20)
(2.38542 -1.90576 4.60449e-20)
(2.35801 -1.86888 -8.71712e-20)
(2.33121 -1.8346 1.65493e-19)
(3.31869 -3.53981 -2.86507e-19)
(3.15629 -3.40115 1.06062e-20)
(3.06655 -3.27235 -1.7565e-19)
(3.0101 -3.1669 3.23644e-20)
(2.97314 -3.08076 8.99816e-21)
(2.95005 -3.00655 -1.59593e-19)
(2.93552 -2.94001 -3.02001e-19)
(2.92544 -2.87844 1.52163e-19)
(2.91701 -2.81989 -2.17294e-19)
(2.90831 -2.76309 -1.15696e-19)
(2.89808 -2.70726 -6.65295e-20)
(2.88558 -2.65193 -5.41915e-20)
(2.87043 -2.59688 1.63007e-21)
(2.85249 -2.54206 -1.94791e-19)
(2.83184 -2.4875 1.29432e-19)
(2.80863 -2.4333 -2.12807e-19)
(2.78315 -2.37961 -5.41628e-20)
(2.75567 -2.32657 5.93893e-20)
(2.72652 -2.27434 7.51347e-20)
(2.69602 -2.22307 7.54875e-20)
(2.66448 -2.1729 5.80683e-20)
(2.63219 -2.12396 -1.46128e-19)
(2.59942 -2.07639 1.48209e-19)
(2.56643 -2.03032 -1.57946e-20)
(2.53346 -1.98589 -4.01176e-20)
(2.50072 -1.94328 -1.59649e-19)
(2.46838 -1.90274 -8.51315e-20)
(2.43686 -1.86436 1.58126e-19)
(2.40722 -1.8278 -5.17729e-20)
(2.37863 -1.79485 -5.4047e-20)
(3.41605 -3.45546 1.24589e-19)
(3.25575 -3.32719 1.15127e-20)
(3.16712 -3.20584 -3.48115e-20)
(3.11153 -3.10606 -7.63029e-21)
(3.07507 -3.0242 -6.38328e-20)
(3.05197 -2.95312 2.1564e-19)
(3.03689 -2.88883 -1.02492e-19)
(3.02576 -2.82882 6.73466e-20)
(3.0158 -2.77134 2.81975e-20)
(3.00516 -2.71526 1.02929e-19)
(2.99268 -2.65989 -4.03214e-20)
(2.97766 -2.60486 2.28405e-19)
(2.95979 -2.55001 -1.98871e-20)
(2.93902 -2.49534 1.5071e-19)
(2.91545 -2.44092 -2.54666e-19)
(2.88931 -2.38687 -1.97438e-20)
(2.86089 -2.33335 1.6688e-19)
(2.83054 -2.28051 -1.04137e-19)
(2.79858 -2.22852 -7.36334e-20)
(2.76536 -2.17752 -1.27382e-19)
(2.7312 -2.12765 -1.1257e-19)
(2.69641 -2.07903 1.21115e-19)
(2.66127 -2.03177 -1.14584e-19)
(2.62604 -1.98597 2.51279e-20)
(2.59094 -1.94175 9.33438e-20)
(2.55616 -1.89923 6.49266e-20)
(2.52186 -1.85853 6.19578e-20)
(2.48825 -1.81962 4.57683e-20)
(2.45591 -1.78258 -1.23826e-19)
(2.42442 -1.75054 -5.32573e-20)
(5.01233 -0.0291849 1.8622e-21)
(5.00467 -0.161013 1.84653e-20)
(4.99388 -0.291869 6.40857e-20)
(4.97994 -0.422031 3.50328e-20)
(4.96265 -0.55156 -7.40472e-20)
(4.94193 -0.680419 2.24261e-20)
(4.9178 -0.808542 -2.34855e-20)
(4.89027 -0.935849 -5.92915e-20)
(4.85938 -1.06225 1.50917e-19)
(4.82515 -1.18767 -3.59791e-20)
(4.78762 -1.31201 -3.63024e-20)
(4.74683 -1.43518 -7.66283e-20)
(4.70283 -1.5571 -2.19277e-19)
(4.65564 -1.67769 2.03311e-20)
(4.60533 -1.79687 -9.89549e-21)
(4.55194 -1.91455 -6.82395e-20)
(4.49552 -2.03065 1.46315e-19)
(4.43611 -2.14511 7.92125e-20)
(4.37378 -2.25784 1.51359e-19)
(4.30857 -2.36877 7.37966e-20)
(4.24054 -2.47784 -1.64999e-19)
(4.16976 -2.58498 6.65297e-21)
(4.09628 -2.69011 -3.10577e-19)
(4.02017 -2.79318 4.71032e-19)
(3.94148 -2.89413 -1.54314e-19)
(3.86028 -2.9929 -1.98467e-19)
(3.77665 -3.08946 -2.76931e-20)
(3.69066 -3.18377 -1.51055e-21)
(3.60241 -3.27591 -1.48333e-19)
(3.51185 -3.36627 2.64103e-19)
(5.03971 -0.0581209 7.73572e-21)
(5.02614 -0.19008 1.14304e-20)