/*--------------------------------*- C++ -*----------------------------------*\
  =========                 |
  \\      /  F ield         | OpenFOAM: The Open Source CFD Toolbox
   \\    /   O peration     | Website:  https://openfoam.org
    \\  /    A nd           | Version:  6.0
     \\/     M anipulation  |
\*---------------------------------------------------------------------------*/
FoamFile
{
    version     2.0;
    format      ascii;
    class       surfaceScalarField;
    location    "19.248";
    object      phi;
}
// * * * * * * * * * * * * * * * * * * * * * * * * * * * * * * * * * * * * * //

dimensions      [0 3 -1 0 0 0 0];

internalField   nonuniform List<scalar> 
38030
(
-8.45934e-06
-0.00797698
0.00798544
-2.70626e-05
-0.00732869
0.00734729
-5.3696e-05
-0.00673458
0.00676122
-8.63953e-05
-0.00619149
0.00622419
-0.00012335
-0.00569587
0.00573282
-0.000163022
-0.00524411
0.00528378
-0.000204134
-0.00483268
0.0048738
-0.000245634
-0.00445819
0.00449969
-0.000286669
-0.0041174
0.00415843
-0.000326558
-0.00380729
0.00384718
-0.000364767
-0.00352505
0.00356326
-0.000400896
-0.00326807
0.0033042
-0.000434655
-0.00303395
0.00306771
-0.000465853
-0.00282049
0.00285169
-0.000494387
-0.00262567
0.00265421
-0.000520228
-0.00244767
0.00247351
-0.000543415
-0.00228481
0.00230799
-0.000564045
-0.00213558
0.00215621
-0.000582262
-0.00199863
0.00201684
-0.000598255
-0.00187272
0.00188871
-0.000612248
-0.00175675
0.00177075
-0.000624496
-0.00164974
0.00166199
-0.000635274
-0.00155081
0.00156159
-0.000644875
-0.00145915
0.00146875
-0.000653604
-0.00137408
0.00138281
-0.000661769
-0.00129499
0.00130315
-0.000669676
-0.00122136
0.00122927
-0.000677625
-0.00115276
0.00116071
-0.000685909
-0.00108876
0.00109705
-0.00102896
0.00103787
-0.000694823
-7.44759e-06
-0.00796954
-2.5728e-05
-0.00731041
-5.19282e-05
-0.00670838
-8.3825e-05
-0.00615959
-0.000119563
-0.00566013
-0.000157592
-0.00520608
-0.000196626
-0.00479365
-0.000235608
-0.0044192
-0.000273685
-0.00407932
-0.000310175
-0.0037708
-0.000344548
-0.00349068
-0.000376407
-0.00323621
-0.000405467
-0.00300489
-0.000431544
-0.00279441
-0.000454543
-0.00260267
-0.000474445
-0.00242777
-0.000491298
-0.00226795
-0.000505211
-0.00212167
-0.000516342
-0.00198749
-0.000524896
-0.00186416
-0.000531114
-0.00175053
-0.00053527
-0.00164559
-0.00053766
-0.00154842
-0.000538602
-0.00145821
-0.000538423
-0.00137426
-0.000537461
-0.00129595
-0.00053605
-0.00122277
-0.00053452
-0.00115429
-0.000533193
-0.00109009
-0.00102975
-0.000532396
-7.05526e-06
-0.00796248
-2.47181e-05
-0.00729275
-5.00684e-05
-0.00668303
-8.07534e-05
-0.0061289
-0.000114849
-0.00562603
-0.00015077
-0.00517016
-0.000187211
-0.00475721
-0.000223107
-0.00438331
-0.000257601
-0.00404483
-0.000290009
-0.00373839
-0.000319805
-0.00346088
-0.000346592
-0.00320943
-0.00037009
-0.00298139
-0.000390122
-0.00277438
-0.000406597
-0.0025862
-0.000419504
-0.00241486
-0.000428902
-0.00225855
-0.000434908
-0.00211566
-0.000437695
-0.00198471
-0.000437482
-0.00186438
-0.000434528
-0.00175349
-0.000429126
-0.00165099
-0.000421598
-0.00155595
-0.000412284
-0.00146752
-0.000401542
-0.001385
-0.00038974
-0.00130775
-0.000377249
-0.00123526
-0.000364432
-0.00116711
-0.000351651
-0.00110287
-0.00104214
-0.000339268
-6.80226e-06
-0.00795568
-2.37729e-05
-0.00727578
-4.80254e-05
-0.00665878
-7.71655e-05
-0.00609976
-0.000109226
-0.00559397
-0.00014259
-0.0051368
-0.000175936
-0.00472386
-0.00020819
-0.00435105
-0.000238488
-0.00401453
-0.000266148
-0.00371073
-0.000290641
-0.00343639
-0.000311575
-0.00318849
-0.000328672
-0.0029643
-0.000341757
-0.0027613
-0.000350747
-0.00257721
-0.000355635
-0.00240997
-0.000356487
-0.0022577
-0.00035343
-0.00211872
-0.000346649
-0.00199149
-0.000336376
-0.00187465
-0.000322889
-0.00176697
-0.000306502
-0.00166738
-0.000287559
-0.00157489
-0.000266428
-0.00148865
-0.0002435
-0.00140793
-0.000219179
-0.00133207
-0.000193873
-0.00126057
-0.000167992
-0.00119299
-0.000141939
-0.00112892
-0.00106795
-0.000116126
-6.56256e-06
-0.00794912
-2.27647e-05
-0.00725957
-4.57241e-05
-0.00663582
-7.303e-05
-0.00607246
-0.000102691
-0.00556431
-0.000133071
-0.00510642
-0.000162837
-0.0046941
-0.000190907
-0.00432298
-0.000216414
-0.00398902
-0.000238674
-0.00368847
-0.000257161
-0.0034179
-0.000271483
-0.00317417
-0.000281365
-0.00295441
-0.000286634
-0.00275603
-0.000287209
-0.00257663
-0.000283088
-0.00241409
-0.000274342
-0.00226645
-0.000261106
-0.00213195
-0.000243574
-0.00200902
-0.000221991
-0.00189623
-0.000196652
-0.00179231
-0.000167891
-0.00169614
-0.000136077
-0.0016067
-0.000101611
-0.00152312
-6.49125e-05
-0.00144463
-2.64275e-05
-0.00137056
1.33897e-05
-0.00130039
5.40817e-05
-0.00123368
9.51901e-05
-0.00117003
-0.00110901
0.00013625
-6.29876e-06
-0.00794282
-2.16381e-05
-0.00724423
-4.312e-05
-0.00661434
-6.83218e-05
-0.00604726
-9.52389e-05
-0.00553739
-0.000122226
-0.00507943
-0.000147941
-0.00466838
-0.000171301
-0.00429962
-0.000191438
-0.00396888
-0.000207669
-0.00367224
-0.000219468
-0.0034061
-0.000226445
-0.00316719
-0.000228327
-0.00295253
-0.000224942
-0.00275941
-0.000216209
-0.00258537
-0.000202129
-0.00242817
-0.000182776
-0.0022858
-0.000158289
-0.00215644
-0.00012887
-0.00203844
-9.47747e-05
-0.00193033
-5.63126e-05
-0.00183078
-1.38385e-05
-0.00173861
3.22533e-05
-0.00165279
8.15328e-05
-0.0015724
0.00013354
-0.00149663
0.00018779
-0.00142481
0.000243776
-0.00135637
0.000300987
-0.00129089
0.000358902
-0.00122795
-0.0011671
0.00041699
-5.99733e-06
-0.00793682
-2.03678e-05
-0.00722986
-4.0188e-05
-0.00659452
-6.30241e-05
-0.00602442
-8.68647e-05
-0.00551355
-0.000110061
-0.00505623
-0.00013127
-0.00464717
-0.000149409
-0.00428148
-0.000163614
-0.00395468
-0.000173205
-0.00366265
-0.000177657
-0.00340165
-0.000176584
-0.00316827
-0.000169711
-0.00295941
-0.000156868
-0.00277225
-0.000137973
-0.00260426
-0.000113028
-0.00245312
-8.21044e-05
-0.00231673
-4.53455e-05
-0.0021932
-2.9566e-06
-0.00208083
4.47975e-05
-0.00197808
9.75963e-05
-0.00188357
0.000155067
-0.00179608
0.00021679
-0.00171452
0.000282305
-0.00163792
0.000351113
-0.00156544
0.000422681
-0.00149638
0.000496451
-0.00143014
0.000571847
-0.00136629
0.00064828
-0.00130438
-0.00124396
0.000725141
-5.65434e-06
-0.00793117
-1.89425e-05
-0.00721658
-3.69144e-05
-0.00657655
-5.71261e-05
-0.00600421
-7.75636e-05
-0.00549311
-9.65797e-05
-0.00503722
-0.000112837
-0.00463092
-0.000125258
-0.00426906
-0.000132985
-0.00394695
-0.000135343
-0.00366029
-0.000131813
-0.00340518
-0.00012201
-0.00317807
-0.00010566
-0.00297576
-8.2592e-05
-0.00279532
-5.27232e-05
-0.00263413
-1.60507e-05
-0.00248979
2.73543e-05
-0.00236013
7.73513e-05
-0.0022432
0.000133734
-0.00213721
0.000196233
-0.00204058
0.00026452
-0.00195186
0.000338207
-0.00186977
0.000416852
-0.00179316
0.000499962
-0.00172103
0.000587002
-0.00165248
0.00067739
-0.00158676
0.000770508
-0.00152326
0.000865712
-0.00146149
0.000962332
-0.001401
-0.0013413
0.00105967
-5.2687e-06
-0.0079259
-1.73573e-05
-0.00720449
-3.32913e-05
-0.00656061
-5.06196e-05
-0.00598688
-6.733e-05
-0.0054764
-8.17826e-05
-0.00502276
-9.26499e-05
-0.00462005
-9.88657e-05
-0.00426285
-9.95817e-05
-0.00394624
-9.41321e-05
-0.00366574
-8.20045e-05
-0.00341731
-6.28169e-05
-0.00319726
-3.62985e-05
-0.00300227
-2.27604e-06
-0.00282934
3.9337e-05
-0.00267574
8.85484e-05
-0.002539
0.000145293
-0.00241688
0.000209435
-0.00230734
0.000280772
-0.00220855
0.000359035
-0.00211884
0.000443891
-0.00203672
0.000534941
-0.00196082
0.000631725
-0.00188995
0.000733723
-0.00182302
0.000840358
-0.00175912
0.000951002
-0.00169741
0.00106497
-0.00163723
0.00118156
-0.00157807
0.00129999
-0.00151943
-0.00146079
0.00141948
-4.84036e-06
-0.00792106
-1.56092e-05
-0.00719372
-2.93124e-05
-0.00654691
-4.3496e-05
-0.0059727
-5.6155e-05
-0.00546375
-6.56624e-05
-0.00501326
-7.07061e-05
-0.004615
-7.02358e-05
-0.00426332
-6.34181e-05
-0.00395305
-4.95999e-05
-0.00367956
-2.82784e-05
-0.00343863
9.22562e-07
-0.00322646
3.82712e-05
-0.00303962
8.39421e-05
-0.00287502
0.000138026
-0.00272983
0.000200539
-0.00260151
0.000271423
-0.00248776
0.000350554
-0.00238647
0.000437736
-0.00229573
0.000532707
-0.00221381
0.000635136
-0.00213915
0.000744618
-0.0020703
0.00086068
-0.00200601
0.000982776
-0.00194512
0.0011103
-0.00188663
0.00124256
-0.00182967
0.00137882
-0.0017735
0.00151829
-0.00171754
0.0016601
-0.00166125
-0.00160404
0.00180336
-4.36872e-06
-0.00791669
-1.36947e-05
-0.00718439
-2.49704e-05
-0.00653563
-3.57444e-05
-0.00596192
-4.4025e-05
-0.00545546
-4.82042e-05
-0.00500908
-4.69914e-05
-0.00461622
-3.93582e-05
-0.00427095
-2.44911e-05
-0.00396792
-1.75416e-06
-0.0037023
2.9342e-05
-0.00346972
6.91645e-05
-0.00326628
0.000117978
-0.00308844
0.000175956
-0.00293299
0.000243196
-0.00279707
0.000319722
-0.00267804
0.000405488
-0.00257353
0.000500383
-0.00248136
0.000604228
-0.00239958
0.000716771
-0.00232636
0.000837689
-0.00226006
0.000966581
-0.00219919
0.00110297
-0.00214239
0.00124628
-0.00208844
0.00139589
-0.00203624
0.00155105
-0.00198483
0.00171097
-0.00193342
0.00187476
-0.00188133
0.00204146
-0.00182795
-0.00177263
0.00221004
-3.85274e-06
-0.00791283
-1.16097e-05
-0.00717664
-2.02559e-05
-0.00652699
-2.73499e-05
-0.00595483
-3.092e-05
-0.00545189
-2.9384e-05
-0.00501061
-2.14798e-05
-0.00462412
-6.20674e-06
-0.00428622
1.72225e-05
-0.00399135
4.94213e-05
-0.0037345
9.08611e-05
-0.00351116
0.000141896
-0.00331732
0.000202784
-0.00314932
0.000273697
-0.00300391
0.000354737
-0.00287811
0.000445938
-0.00276924
0.000547269
-0.00267486
0.000658637
-0.00259273
0.000779882
-0.00252082
0.000910772
-0.00245725
0.001051
-0.00240029
0.00120018
-0.00234837
0.00135783
-0.00230004
0.00152338
-0.00225399
0.00169617
-0.00220902
0.00187541
-0.00216408
0.00206025
-0.00211826
0.00224972
-0.0020708
0.00244275
-0.00202098
-0.00196805
0.00263816
-3.291e-06
-0.00790954
-9.34812e-06
-0.00717058
-1.5157e-05
-0.00652118
-1.82934e-05
-0.00595169
-1.68136e-05
-0.00545337
-9.16874e-06
-0.00501826
5.86767e-06
-0.00463916
2.92611e-05
-0.00430962
6.17663e-05
-0.00402386
0.000103968
-0.0037767
0.000156313
-0.00356351
0.000219139
-0.00338014
0.000292692
-0.00322288
0.00037714
-0.00308836
0.000472588
-0.00297356
0.000579078
-0.00287573
0.000696599
-0.00279238
0.000825076
-0.00272121
0.000964376
-0.00266012
0.0011143
-0.00260717
0.00127456
-0.00256055
0.00144479
-0.00251861
0.00162453
-0.00247979
0.00181321
-0.00244267
0.00201015
-0.00240596
0.00221455
-0.00236847
0.00242547
-0.00232918
0.00264187
-0.0022872
0.00286257
-0.00224167
-0.00219172
0.00308624
-2.68136e-06
-0.00790686
-6.90287e-06
-0.00716636
-9.65892e-06
-0.00651842
-8.55143e-06
-0.0059528
-1.67284e-06
-0.00546025
1.2484e-05
-0.00503242
3.5102e-05
-0.00466178
6.71038e-05
-0.00434162
0.000109204
-0.00406596
0.000161951
-0.00382944
0.000225763
-0.00362732
0.000300951
-0.00345533
0.000387745
-0.00330967
0.000486306
-0.00318692
0.000596736
-0.00308399
0.000719089
-0.00299808
0.000853366
-0.00292665
0.00099952
-0.00286736
0.00115745
-0.00281805
0.00132698
-0.0027767
0.00150787
-0.00274145
0.0016998
-0.00271053
0.00190232
-0.00268231
0.00211489
-0.00265524
0.00233683
-0.00262789
0.0025673
-0.00259894
0.00280533
-0.00256721
0.0030498
-0.00253167
0.00329941
-0.00249128
-0.002445
0.00355269
-2.02139e-06
-0.00790484
-4.26535e-06
-0.00716411
-3.74468e-06
-0.00651894
1.90318e-06
-0.00595845
1.45406e-05
-0.00547289
3.5624e-05
-0.0050535
6.62842e-05
-0.00469244
0.000107393
-0.00438273
0.000159617
-0.00411818
0.00022346
-0.00389329
0.000299301
-0.00370316
0.000387422
-0.00354345
0.000488028
-0.00341028
0.000601264
-0.00330015
0.000727227
-0.00320995
0.000865975
-0.00313683
0.00101752
-0.0030782
0.00118185
-0.00303169
0.00135889
-0.00299509
0.00154852
-0.00296633
0.00175054
-0.00294346
0.00196466
-0.00292466
0.00219051
-0.00290816
0.00242756
-0.00289229
0.00267516
-0.00287549
0.00293247
-0.00285626
0.0031985
-0.00283323
0.00347203
-0.00280519
0.00375166
-0.00277091
-0.0027291
0.00403576
-1.3082e-06
-0.00790353
-1.42617e-06
-0.00716399
2.60431e-06
-0.00652297
1.31002e-05
-0.00596894
3.18685e-05
-0.00549166
6.03062e-05
-0.00508194
9.94831e-05
-0.00473161
0.000150211
-0.00443346
0.000213099
-0.00418107
0.0002886
-0.00396879
0.000377046
-0.00379161
0.000478676
-0.00364508
0.000593664
-0.00352526
0.00072213
-0.00342862
0.00086416
-0.00335198
0.00101981
-0.00329248
0.0011891
-0.0032475
0.00137204
-0.00321464
0.0015686
-0.00319165
0.0017787
-0.00317642
0.0020022
-0.00316696
0.00223888
-0.00316134
0.00248842
-0.0031577
0.00275038
-0.00315425
0.00302412
-0.00314923
0.00330885
-0.00314099
0.00360354
-0.00312793
0.00390695
-0.0031086
0.00421755
-0.00308152
-0.00304511
0.00453356
-5.38921e-07
-0.00790299
1.62437e-06
-0.00716616
9.40733e-06
-0.00653076
2.507e-05
-0.00598461
5.03543e-05
-0.00551694
8.65878e-05
-0.00511817
0.00013477
-0.0047798
0.000195645
-0.00449433
0.000269755
-0.00425518
0.000357492
-0.00405652
0.00045913
-0.00389324
0.000574859
-0.00376081
0.000704807
-0.00365521
0.000849063
-0.00357287
0.00100769
-0.0035106
0.00118072
-0.00346551
0.0013682
-0.00343498
0.00157014
-0.00341657
0.00178654
-0.00340805
0.00201738
-0.00340726
0.00226259
-0.00341217
0.00252203
-0.00342078
0.00279546
-0.00343114
0.00308253
-0.00344131
0.00338268
-0.00344938
0.00369516
-0.00345347
0.00401899
-0.00345175
0.00435286
-0.00344247
0.00469519
-0.00342384
-0.00339395
0.00504402
2.89355e-07
-0.00790328
4.89576e-06
-0.00717076
1.66828e-05
-0.00654254
3.78421e-05
-0.00600577
7.00395e-05
-0.00554914
0.000114524
-0.00516265
0.000172215
-0.00483749
0.00024378
-0.0045659
0.000329687
-0.00434109
0.000430256
-0.00415709
0.000545693
-0.00400868
0.000676128
-0.00389125
0.000821635
-0.00380072
0.000982252
-0.00373349
0.001158
-0.00368635
0.00134891
-0.00365642
0.00155499
-0.00364105
0.00177626
-0.00363785
0.00201277
-0.00364456
0.00226454
-0.00365903
0.00253156
-0.0036792
0.0028138
-0.00370302
0.00311112
-0.00372846
0.00342328
-0.00375347
0.00374984
-0.00377595
0.00409015
-0.00379379
0.00444329
-0.00380488
0.00480796
-0.00380715
0.00518252
-0.0037984
-0.0037763
0.00556487
1.17939e-06
-0.00790446
8.39667e-06
-0.00717798
2.44475e-05
-0.00655859
5.14425e-05
-0.00603276
9.09604e-05
-0.00558866
0.000144161
-0.00521586
0.000211879
-0.0049052
0.000294692
-0.00464871
0.000392986
-0.00443938
0.000507002
-0.00427111
0.000636869
-0.00413855
0.000782643
-0.00403702
0.000944329
-0.0039624
0.0011219
-0.00391107
0.00131534
-0.00387979
0.00152461
-0.00386569
0.00174971
-0.00386615
0.00199065
-0.0038788
0.00224749
-0.00390139
0.00252029
-0.00393182
0.00280911
-0.00396802
0.00311402
-0.00400793
0.00343502
-0.00404946
0.003772
-0.00409044
0.00412469
-0.00412864
0.00449259
-0.00416169
0.00487489
-0.00418718
0.00527037
-0.00420263
0.00567736
-0.00420539
-0.00419258
0.00609364
2.13316e-06
-0.0079066
1.21339e-05
-0.00718798
3.27145e-05
-0.00657917
6.58911e-05
-0.00606594
0.000113145
-0.00563591
0.000175537
-0.00527825
0.000253805
-0.00498347
0.000348435
-0.00474334
0.000459723
-0.00455067
0.000587818
-0.0043992
0.000732767
-0.0042835
0.000894538
-0.00419879
0.00107306
-0.00414092
0.00126822
-0.00410623
0.00147993
-0.0040915
0.00170809
-0.00409385
0.00195266
-0.00411071
0.00221361
-0.00413975
0.00249098
-0.00417877
0.00278486
-0.00422571
0.00309538
-0.00427855
0.0034227
-0.00433525
0.00376696
-0.00439371
0.00412823
-0.00445172
0.00450646
-0.00450687
0.00490135
-0.00455658
0.00531228
-0.0045981
0.00573817
-0.00462852
0.00617742
-0.00464463
-0.00464288
0.00662771
3.15203e-06
-0.00790975
1.6112e-05
-0.00720094
4.14922e-05
-0.00660455
8.12002e-05
-0.00610565
0.000136607
-0.00569132
0.000208667
-0.00535031
0.000298014
-0.00507282
0.000405035
-0.00485036
0.000529928
-0.00467556
0.000672749
-0.00454203
0.000833448
-0.0044442
0.0010119
-0.00437725
0.00120794
-0.00433696
0.00142137
-0.00431966
0.00165199
-0.00432212
0.00189963
-0.00434149
0.00216416
-0.00437524
0.0024455
-0.00442108
0.00274364
-0.00447691
0.00305866
-0.00454073
0.00339073
-0.00461062
0.00374009
-0.0046846
0.00410701
-0.00476064
0.00449179
-0.00483649
0.00489461
-0.00490969
0.00531547
-0.00497744
0.00575404
-0.00503668
0.0062095
-0.00508398
0.00668036
-0.00511549
-0.00512684
0.00716432
4.23635e-06
-0.00791398
2.03329e-05
-0.00721704
5.07837e-05
-0.00663501
9.73715e-05
-0.00615223
0.000161346
-0.00575529
0.000243545
-0.00543251
0.000344493
-0.00517377
0.000464474
-0.00497034
0.000603583
-0.00481467
0.000761778
-0.00470022
0.000938908
-0.00462133
0.00113475
-0.00457309
0.00134902
-0.00455123
0.00158143
-0.00455207
0.00183167
-0.00457236
0.00209945
-0.00460927
0.00238453
-0.00466032
0.00268673
-0.00472328
0.00300596
-0.00479614
0.00334224
-0.00487701
0.00369572
-0.0049641
0.0040667
-0.00505558
0.00445557
-0.00514951
0.00486283
-0.00524375
0.00528896
-0.00533582
0.00573434
-0.00542282
0.00619905
-0.00550138
0.00668264
-0.00556758
0.00718392
-0.00561677
-0.00564358
0.00770067
5.38565e-06
-0.00791937
2.47962e-05
-0.00723645
6.05862e-05
-0.0066708
0.000114396
-0.00620604
0.000187341
-0.00582824
0.000280136
-0.0055253
0.000393192
-0.00528682
0.000526683
-0.00510383
0.000680603
-0.00496859
0.000854807
-0.00487442
0.00104904
-0.00481556
0.00126298
-0.00478702
0.00149623
-0.00478449
0.00174838
-0.00480422
0.002019
-0.00484297
0.00230766
-0.00489794
0.00261399
-0.00496665
0.00293766
-0.00504695
0.00327845
-0.00513692
0.00363626
-0.00523482
0.00401116
-0.005339
0.00440341
-0.00544783
0.00481349
-0.00555959
0.00524207
-0.00567232
0.00568994
-0.00578369
0.00615793
-0.00589081
0.00664666
-0.00599012
0.00715629
-0.00607721
0.00768611
-0.00614659
-0.0061916
0.00823413
6.59858e-06
-0.00792597
2.94999e-05
-0.00725935
7.08927e-05
-0.00671219
0.000132254
-0.0062674
0.000214553
-0.00591054
0.000318374
-0.00562912
0.000444011
-0.00541246
0.000591529
-0.00525135
0.00076082
-0.00513788
0.000951637
-0.00506524
0.00116363
-0.00502755
0.00139636
-0.00501975
0.00164933
-0.00503746
0.001922
-0.00507689
0.00221381
-0.00513479
0.0025242
-0.00520832
0.00285261
-0.00529506
0.00319854
-0.00539288
0.00356159
-0.00549997
0.00394145
-0.00561469
0.00433804
-0.00573559
0.00475148
-0.00586128
0.00518221
-0.00599031
0.00563097
-0.00612108
0.00609884
-0.00625156
0.00658713
-0.0063791
0.00709717
-0.00650016
0.00762996
-0.00661
0.00818558
-0.00670222
-0.00676855
0.00876253
7.87546e-06
-0.00793384
3.44448e-05
-0.00728592
8.16949e-05
-0.00675944
0.000150916
-0.00633663
0.000242919
-0.00600254
0.000358156
-0.00574436
0.0004968
-0.0055511
0.00065881
-0.00541336
0.000843976
-0.00532305
0.00105195
-0.00527322
0.00128229
-0.00525789
0.00153446
-0.00527192
0.00180785
-0.00531085
0.00210182
-0.00537086
0.00241566
-0.00544863
0.00274867
-0.00554133
0.00310013
-0.00564651
0.00346932
-0.00576208
0.00385561
-0.00588626
0.00425845
-0.00601753
0.00467745
-0.00615459
0.00511249
-0.00629631
0.00556376
-0.00644159
0.00603194
-0.00658926
0.00651822
-0.00673784
0.00702433
-0.00688521
0.00755241
-0.00702823
0.00810459
-0.00716218
0.00868228
-0.00727991
-0.00737113
0.00928485
9.22291e-06
-0.00794307
3.96419e-05
-0.00731634
9.29897e-05
-0.00681279
0.000170346
-0.00641398
0.000272358
-0.00610455
0.000399343
-0.00587134
0.000551356
-0.00570312
0.000728249
-0.00559025
0.000929712
-0.00552451
0.00115531
-0.00549881
0.0014045
-0.00550708
0.00167666
-0.00554408
0.0019711
-0.00560529
0.00228706
-0.00568682
0.00262374
-0.00578532
0.0029803
-0.00589789
0.00335584
-0.00602206
0.00374948
-0.00615572
0.00416032
-0.0062971
0.00458751
-0.00644471
0.00503029
-0.00659738
0.00548812
-0.00675414
0.00596078
-0.00691425
0.00644855
-0.00707703
0.0069524
-0.0072417
0.00747423
-0.00740704
0.00801687
-0.00757087
0.00858392
-0.00772924
0.00917877
-0.00787476
-0.00799469
0.00980234
1.06656e-05
-0.00795373
4.51258e-05
-0.0073508
0.000104786
-0.00687245
0.000190504
-0.0064997
0.000302768
-0.00621682
0.00044176
-0.00601034
0.00060742
-0.00586878
0.000799492
-0.00578233
0.00101757
-0.00574259
0.00126113
-0.00574237
0.00152954
-0.0057755
0.00182212
-0.00583665
0.00213808
-0.00592125
0.00247659
-0.00602534
0.00283679
-0.00614551
0.00321772
-0.00627882
0.00361838
-0.00642273
0.00403773
-0.00657507
0.00447467
-0.00673403
0.00492806
-0.0068981
0.00539676
-0.00706608
0.00587971
-0.0072371
0.00637606
-0.0074106
0.00688534
-0.00758631
0.00740782
-0.00776417
0.00794487
-0.0079441
0.0084995
-0.0081255
0.00907662
-0.00830635
0.00968242
-0.00848056
-0.00863283
0.0103206
1.22722e-05
-0.007966
5.09792e-05
-0.00738951
0.000117118
-0.00693859
0.00021135
-0.00659393
0.000334023
-0.00633949
0.000485194
-0.00616151
0.000664681
-0.00604826
0.000872119
-0.00598976
0.001107
-0.00597747
0.00136871
-0.00600408
0.00165655
-0.00606334
0.00196976
-0.00614986
0.0023075
-0.00625899
0.00266891
-0.00638674
0.00305305
-0.00652965
0.00345894
-0.00668471
0.00388555
-0.00684933
0.00433175
-0.00702128
0.00479636
-0.00719864
0.00527808
-0.00737981
0.00577549
-0.00756349
0.00628709
-0.0077487
0.00681135
-0.00793485
0.0073468
-0.00812176
0.00789241
-0.00830977
0.00844804
-0.00849973
0.00901539
-0.00869285
0.00959928
-0.00889023
0.0102088
-0.00909011
-0.0092798
0.0108558
1.4266e-05
-0.00798027
5.74018e-05
-0.00743264
0.000130053
-0.00701124
0.00023283
-0.00669671
0.00036597
-0.00647263
0.000529391
-0.00632493
0.000722778
-0.00624165
0.000945644
-0.00621263
0.00119737
-0.0062292
0.00147726
-0.00628397
0.00178452
-0.00637061
0.00211834
-0.00648367
0.00247784
-0.00661849
0.00286212
-0.00677103
0.00327025
-0.00693778
0.00370128
-0.00711573
0.00415419
-0.00730224
0.00462794
-0.00749503
0.0051214
-0.0076921
0.00563334
-0.00789176
0.00616239
-0.00809254
0.00670696
-0.00829327
0.00726518
-0.00849307
0.00783487
-0.00869145
0.00841355
-0.00888845
0.00899874
-0.00908493
0.00958876
-0.00928287
0.0101847
-0.00948613
0.0107957
-0.00970112
-0.00994061
0.0114565
1.74587e-05
-0.00799773
6.47802e-05
-0.00747996
0.000143651
-0.00709011
0.000254839
-0.0068079
0.000398397
-0.00661619
0.000574047
-0.00650058
0.000781304
-0.00644891
0.00101954
-0.00645086
0.001288
-0.00649767
0.00158589
-0.00658186
0.00191235
-0.00669706
0.00226647
-0.0068378
0.00264736
-0.00699938
0.0030541
-0.00717776
0.00348576
-0.00736945
0.00394145
-0.00757142
0.00442028
-0.00778107
0.00492136
-0.00799611
0.00544383
-0.00821457
0.00598683
-0.00843475
0.00654947
-0.00865518
0.00713079
-0.0088746
0.00772972
-0.009092
0.00834488
-0.00930661
0.00897443
-0.009518
0.00961587
-0.00972637
0.0102658
-0.00993278
0.0109188
-0.0101391
0.0115701
-0.0103525
-0.0105955
0.012225
0.00899377
4.60478e-05
-0.00903982
0.00894867
4.51039e-05
0.00890385
4.48136e-05
0.00885919
4.46629e-05
0.0088147
4.44924e-05
0.00877045
4.42462e-05
0.00872655
4.39023e-05
0.00868309
4.34544e-05
0.00864019
4.29028e-05
0.00859794
4.22512e-05
0.00855644
4.15046e-05
0.00851577
4.06683e-05
0.00847602
3.97486e-05
0.00843727
3.87515e-05
0.00839958
3.7683e-05
0.00836303
3.65491e-05
0.00832768
3.53558e-05
0.00829357
3.41085e-05
0.00826076
3.28125e-05
0.00822928
3.1473e-05
0.00819919
3.00947e-05
0.00817051
2.86824e-05
0.00814327
2.72401e-05
0.0081175
2.57721e-05
0.00809322
2.42807e-05
0.00807045
2.27623e-05
0.00804925
2.1198e-05
0.00802973
1.95281e-05
0.00801218
1.75453e-05
1.44521e-05
0.0102872
0.000164508
-0.0104057
0.0101676
0.000164736
0.0100474
0.000165078
0.00992673
0.000165281
0.00980603
0.000165199
0.00968551
0.000164763
0.00956547
0.00016394
0.00944621
0.00016272
0.009328
0.000161105
0.00921115
0.000159106
0.00909592
0.000156738
0.00898257
0.000154019
0.00887135
0.000150968
0.00876249
0.000147607
0.00865622
0.000143955
0.00855273
0.000140034
0.00845222
0.000135865
0.00835487
0.000131468
0.00826082
0.000126861
0.00817023
0.000122064
0.00808323
0.000117092
0.00799995
0.000111964
0.00792049
0.000106692
0.00784498
0.00010129
0.00777349
9.57654e-05
0.00770614
9.01141e-05
0.00764303
8.43086e-05
0.00758429
7.82721e-05
0.00753002
7.1809e-05
6.45106e-05
0.0115455
0.000343371
-0.0117243
0.0113638
0.000346384
0.0111802
0.000348723
0.0109951
0.000350324
0.0108092
0.000351115
0.0106229
0.000351051
0.0104367
0.00035011
0.0102512
0.00034829
0.0100667
0.000345602
0.00988371
0.000342069
0.00970273
0.00033772
0.00952416
0.00033259
0.00934841
0.000326718
0.00917587
0.000320144
0.00900691
0.000312912
0.00884189
0.000305063
0.00868111
0.000296639
0.0085249
0.000287683
0.00837352
0.000278235
0.00822726
0.000268331
0.00808634
0.000258009
0.007951
0.000247303
0.00782145
0.000236244
0.00769788
0.00022486
0.00758047
0.000213173
0.00746939
0.000201194
0.00736478
0.000188915
0.00726676
0.000176299
0.0071753
0.000163263
0.000149706
0.0127588
0.000571897
-0.0129873
0.0125259
0.000579291
0.0122894
0.000585162
0.0120503
0.000589514
0.011809
0.000592332
0.0115665
0.000593599
0.0113233
0.000593314
0.0110801
0.000591489
0.0108375
0.000588148
0.0105963
0.000583331
0.0103569
0.000577084
0.01012
0.000569464
0.00988623
0.00056053
0.00965602
0.000550349
0.00942995
0.000538988
0.00920849
0.000526516
0.00899213
0.000513003
0.0087813
0.000498516
0.00857641
0.000483121
0.00837786
0.000466883
0.00818601
0.000449862
0.00800119
0.000432115
0.00782374
0.000413698
0.00765394
0.000394661
0.00749206
0.000375051
0.00733834
0.00035491
0.00719299
0.000334269
0.00705614
0.000313153
0.00692782
0.000291584
0.000269625
0.0139193
0.000840334
-0.0141878
0.0136448
0.000853866
0.013365
0.000864959
0.0130808
0.000873636
0.0127933
0.000879902
0.0125031
0.000883764
0.0122112
0.000885236
0.0119183
0.000884346
0.0116253
0.000881133
0.011333
0.000875653
0.0110421
0.000867973
0.0107534
0.000858169
0.0104676
0.000846326
0.0101855
0.000832536
0.00990754
0.000816896
0.00963455
0.000799504
0.0093671
0.000780459
0.00910575
0.000759859
0.00885107
0.000737801
0.00860358
0.000714378
0.00836376
0.000689678
0.00813209
0.000663789
0.00790899
0.000636794
0.00769488
0.000608772
0.00749013
0.000579806
0.00729506
0.000549975
0.00710997
0.000519363
0.00693506
0.000488062
0.00677046
0.000456185
0.000423897
0.0150209
0.00113996
-0.0153205
0.0147133
0.00116151
0.0143986
0.00117965
0.0140778
0.00119438
0.013752
0.00120571
0.0134221
0.00121366
0.0130891
0.00121825
0.0127539
0.00121952
0.0124176
0.00121751
0.0120809
0.0012123
0.0117449
0.00120397
0.0114105
0.00119263
0.0110784
0.00117837
0.0107496
0.00116132
0.0104249
0.0011416
0.0101051
0.00111934
0.00979089
0.00109468
0.00948301
0.00106773
0.00918217
0.00103864
0.00888902
0.00100753
0.00860419
0.00097451
0.00832827
0.000939707
0.00806183
0.000903233
0.0078054
0.000865205
0.00755947
0.00082574
0.00732447
0.000784966
0.00710081
0.000743023
0.0068888
0.000700073
0.00668867
0.000656313
0.000611993
0.016059
0.001463
-0.016382
0.015726
0.00149453
0.015384
0.00152162
0.0150341
0.00154424
0.0146775
0.0015624
0.014315
0.0015761
0.0139479
0.00158536
0.0135772
0.00159022
0.013204
0.00159074
0.0128293
0.00158699
0.0124542
0.00157907
0.0120797
0.00156711
0.0117068
0.00155123
0.0113366
0.00153156
0.0109699
0.00150828
0.0106077
0.00148153
0.0102509
0.00145147
0.00990039
0.00141828
0.00955693
0.0013821
0.00922135
0.0013431
0.00889442
0.00130144
0.00857687
0.00125726
0.00826941
0.0012107
0.00797268
0.00116193
0.00768733
0.00111109
0.00741392
0.00105838
0.00715297
0.00100397
0.00690493
0.000948116
0.00667015
0.00089109
0.000833234
0.0170305
0.00180256
-0.0173701
0.016679
0.00184604
0.0163166
0.00188403
0.0159444
0.00191646
0.0155635
0.0019433
0.0151751
0.00196452
0.0147803
0.00198015
0.0143803
0.00199021
0.0139763
0.00199475
0.0135694
0.00199386
0.0131608
0.00198764
0.0127517
0.00197623
0.0123432
0.00195976
0.0119363
0.0019384
0.0115323
0.00191233
0.0111321
0.00188173
0.0107368
0.0018468
0.0103473
0.00180773
0.0099647
0.00176471
0.00958987
0.00171794
0.00922372
0.00166759
0.00886713
0.00161384
0.00852095
0.00155688
0.00818599
0.00149689
0.00786301
0.00143407
0.00755274
0.00136864
0.00725585
0.00130086
0.00697292
0.00123104
0.00670446
0.00115955
0.00108683
0.0179338
0.00215256
-0.0182838
0.0175698
0.00220996
0.0171931
0.00226079
0.0168046
0.00230495
0.0164055
0.00234235
0.0159971
0.00237295
0.0155805
0.00239674
0.015157
0.00241371
0.0147278
0.00242393
0.0142942
0.00242746
0.0138575
0.0024244
0.0134188
0.00241489
0.0129795
0.00239909
0.0125407
0.00237717
0.0121037
0.00234933
0.0116696
0.00231579
0.0112397
0.00227675
0.010815
0.00223245
0.0103966
0.00218309
0.0099856
0.00212891
0.00958308
0.00207011
0.00919003
0.00200689
0.00880745
0.00193946
0.0084363
0.00186805
0.00807751
0.00179286
0.00773197
0.00171418
0.00740051
0.00163233
0.00708388
0.00154767
0.00678275
0.00146068
0.00137192
0.0187681
0.00250771
-0.0191233
0.0183972
0.00258092
0.0180115
0.00264649
0.0176122
0.00270428
0.0172004
0.00275414
0.0167773
0.00279599
0.0163443
0.00282977
0.0159026
0.00285546
0.0154534
0.00287309
0.0149981
0.00288271
0.0145381
0.00288441
0.0140747
0.00287833
0.0136092
0.00286462
0.0131429
0.00284346
0.0126771
0.00281508
0.0122132
0.00277969
0.0117524
0.00273755
0.011296
0.00268888
0.0108451
0.00263395
0.0104011
0.00257298
0.00996497
0.0025062
0.009538
0.00243386
0.00912131
0.00235616
0.00871602
0.00227334
0.00832322
0.00218566
0.007944
0.00209341
0.00757936
0.00199696
0.00723025
0.00189678
0.00689752
0.00179342
0.00168757
0.0195341
0.00286342
-0.0198898
0.0191608
0.00295422
0.0187709
0.00303637
0.0183655
0.00310963
0.0179459
0.00317381
0.0175131
0.00322876
0.0170685
0.00327439
0.0166133
0.00331063
0.0161489
0.00333747
0.0156767
0.00335493
0.015198
0.00336308
0.0147143
0.00336205
0.014227
0.00335199
0.0137373
0.00333308
0.0132469
0.00330554
0.012757
0.00326961
0.012269
0.00322554
0.0117843
0.0031736
0.0113041
0.00311405
0.01083
0.00304714
0.0103631
0.00297312
0.00990468
0.00289223
0.00945615
0.00280469
0.00901874
0.00271075
0.00859374
0.00261065
0.00818242
0.00250474
0.00778599
0.00239339
0.00740561
0.00227715
0.00704234
0.00215669
0.00203285
0.0202328
0.00321578
-0.0205851
0.0198611
0.00332585
0.0194712
0.00342628
0.0190641
0.00351677
0.0186408
0.00359706
0.0182027
0.00366693
0.0177508
0.00372623
0.0172866
0.00377484
0.0168114
0.00381269
0.0163266
0.00383978
0.0158335
0.00385614
0.0153337
0.00386188
0.0148285
0.00385712
0.0143196
0.00384205
0.0138082
0.00381687
0.013296
0.00378184
0.0127843
0.00373722
0.0122747
0.00368327
0.0117684
0.00362027
0.0112671
0.00354849
0.010772
0.00346817
0.0102847
0.00337954
0.0098066
0.00328283