/*--------------------------------*- C++ -*----------------------------------*\
  =========                 |
  \\      /  F ield         | OpenFOAM: The Open Source CFD Toolbox
   \\    /   O peration     | Website:  https://openfoam.org
    \\  /    A nd           | Version:  6.0
     \\/     M anipulation  |
\*---------------------------------------------------------------------------*/
FoamFile
{
    version     2.0;
    format      ascii;
    class       volVectorField;
    location    "19.248";
    object      U;
}
// * * * * * * * * * * * * * * * * * * * * * * * * * * * * * * * * * * * * * //

dimensions      [0 1 -1 0 0 0 0];

internalField   nonuniform List<vector> 
19200
(
(0.00655063 -0.47887 -4.11643e-22)
(0.00479387 -0.440292 2.28134e-22)
(0.00270344 -0.404902 1.17094e-22)
(0.000288261 -0.372518 1.14313e-22)
(-0.0023227 -0.342932 1.40005e-22)
(-0.0049932 -0.315934 7.08307e-24)
(-0.00762954 -0.291316 2.24413e-22)
(-0.010165 -0.268882 -2.33561e-23)
(-0.0125517 -0.248444 2.22687e-22)
(-0.0147573 -0.229823 9.74453e-23)
(-0.0167616 -0.212857 -1.02084e-23)
(-0.0185542 -0.197392 1.73796e-22)
(-0.0201322 -0.183288 3.28552e-22)
(-0.0214985 -0.170414 -2.39783e-22)
(-0.0226605 -0.158655 3.19449e-22)
(-0.0236289 -0.1479 3.03946e-22)
(-0.0244171 -0.138054 -2.98785e-22)
(-0.0250403 -0.129027 5.46862e-22)
(-0.0255149 -0.120738 -3.67087e-22)
(-0.025858 -0.113117 1.86102e-22)
(-0.0260874 -0.106098 2.88452e-22)
(-0.0262206 -0.0996237 -1.04379e-22)
(-0.0262752 -0.093641 1.42198e-22)
(-0.0262678 -0.0881035 -1.80568e-22)
(-0.0262148 -0.0829699 4.72156e-24)
(-0.0261324 -0.0782044 1.0756e-22)
(-0.0260359 -0.0737764 -7.31772e-23)
(-0.0259297 -0.069659 4.01263e-23)
(-0.0258059 -0.065827 1.11889e-22)
(-0.0257513 -0.0622565 5.52784e-22)
(0.019117 -0.478051 -9.93954e-23)
(0.0163416 -0.438898 7.18035e-22)
(0.013327 -0.403097 -4.00937e-22)
(0.0100916 -0.370435 -6.13729e-22)
(0.00676204 -0.340682 -3.10676e-22)
(0.00346774 -0.313609 -2.36792e-22)
(0.00029513 -0.28899 -5.509e-22)
(-0.00269622 -0.266615 6.62272e-23)
(-0.00546529 -0.24628 -1.07787e-22)
(-0.00798618 -0.227799 -4.60172e-22)
(-0.0102449 -0.210997 -1.31896e-21)
(-0.0122366 -0.195713 6.8613e-22)
(-0.0139638 -0.181801 -2.757e-22)
(-0.015434 -0.169124 1.05955e-22)
(-0.0166594 -0.157561 -7.22742e-22)
(-0.0176547 -0.146999 -2.92152e-22)
(-0.0184372 -0.137337 2.82932e-23)
(-0.0190256 -0.128482 1.10056e-21)
(-0.0194396 -0.120354 -5.71153e-22)
(-0.0196995 -0.112877 -3.29611e-22)
(-0.0198258 -0.105985 -1.47588e-21)
(-0.0198387 -0.0996178 3.92282e-22)
(-0.0197583 -0.0937236 -2.65311e-22)
(-0.0196037 -0.0882545 5.00412e-22)
(-0.0193934 -0.0831691 -2.5413e-22)
(-0.0191456 -0.0784317 -4.13686e-22)
(-0.0188778 -0.0740122 1.29074e-22)
(-0.018595 -0.0698843 2.36598e-22)
(-0.0182867 -0.0660228 -4.02752e-22)
(-0.0180527 -0.0624064 2.59448e-22)
(0.0315968 -0.476944 -4.75514e-23)
(0.0277839 -0.437235 1.25398e-22)
(0.0238525 -0.401055 2.14993e-22)
(0.0198106 -0.368154 2.12636e-21)
(0.0157802 -0.338275 -1.35351e-21)
(0.0118852 -0.311166 1.25039e-21)
(0.00820477 -0.286584 8.27769e-22)
(0.00479081 -0.264301 7.35282e-22)
(0.00167687 -0.244102 -7.48481e-22)
(-0.00111821 -0.225789 -1.25036e-22)
(-0.00358709 -0.209179 2.13751e-21)
(-0.00573114 -0.194102 4.08588e-22)
(-0.00755836 -0.180404 -1.14949e-21)
(-0.00908177 -0.167946 9.13568e-22)
(-0.010318 -0.156598 -1.88058e-23)
(-0.0112865 -0.146246 4.4995e-22)
(-0.0120085 -0.136783 3.29786e-22)
(-0.0125064 -0.128116 1.2676e-21)
(-0.0128035 -0.12016 -5.39909e-22)
(-0.0129233 -0.112837 -1.74719e-22)
(-0.0128892 -0.10608 -5.69559e-22)
(-0.0127246 -0.0998279 2.71782e-21)
(-0.012452 -0.0940273 -2.36621e-21)
(-0.0120931 -0.0886299 7.62273e-22)
(-0.0116687 -0.0835941 4.47553e-22)
(-0.0111996 -0.0788841 -1.72229e-21)
(-0.0107057 -0.0744705 2.37453e-21)
(-0.0101921 -0.0703275 -2.39099e-22)
(-0.00964517 -0.0664296 -2.85747e-22)
(-0.00918073 -0.062759 -2.49307e-21)
(0.0440208 -0.475539 -1.49762e-21)
(0.0391437 -0.435318 -1.57918e-21)
(0.0342888 -0.398799 -2.12071e-21)
(0.0294478 -0.3657 8.58823e-24)
(0.0247336 -0.335736 1.33232e-22)
(0.0202622 -0.308631 -2.95506e-21)
(0.0161041 -0.284123 1.14391e-22)
(0.0123027 -0.261968 4.52211e-22)
(0.00888315 -0.241938 -6.03257e-23)
(0.00585661 -0.223824 9.06588e-22)
(0.0032232 -0.207433 -3.64643e-21)
(0.000974909 -0.192588 -2.52413e-21)
(-0.000902352 -0.179129 9.03668e-22)
(-0.00242713 -0.166909 2.11595e-21)
(-0.0036212 -0.155797 -2.48028e-21)
(-0.00450858 -0.145671 -4.1387e-22)
(-0.00511477 -0.136424 -1.68779e-21)
(-0.00546622 -0.127958 -8.44749e-22)
(-0.0055898 -0.120185 1.5422e-21)
(-0.00551246 -0.113027 -2.03979e-21)
(-0.00526091 -0.106414 1.93549e-21)
(-0.00486138 -0.100284 -2.30919e-21)
(-0.00433936 -0.0945818 -1.9559e-21)
(-0.00371927 -0.089259 -1.5324e-21)
(-0.00302442 -0.0842734 -3.95942e-22)
(-0.00227838 -0.0795894 -3.4102e-21)
(-0.00150369 -0.0751779 3.65983e-22)
(-0.000705681 -0.0710136 6.87704e-22)
(0.000133419 -0.0670704 -2.11923e-21)
(0.000878411 -0.063335 4.17824e-22)
(0.0563918 -0.473826 -8.71265e-22)
(0.0504272 -0.433151 1.53059e-22)
(0.0446418 -0.396343 1.41297e-21)
(0.0390085 -0.363093 1.61734e-21)
(0.033628 -0.333089 1.27563e-21)
(0.0286057 -0.30603 5.6916e-22)
(0.0240018 -0.281635 9.16792e-22)
(0.0198497 -0.259644 4.65313e-21)
(0.0161656 -0.239815 -2.86805e-21)
(0.0129519 -0.22193 5.99725e-23)
(0.0102011 -0.205785 7.53549e-22)
(0.00789781 -0.191198 3.76824e-21)
(0.00602164 -0.178 -2.66696e-21)
(0.00454808 -0.166041 2.06025e-21)
(0.00345003 -0.155183 -2.47033e-21)
(0.00269859 -0.145302 4.46971e-21)
(0.00226379 -0.136286 -1.33512e-21)
(0.00211507 -0.128035 5.19173e-23)
(0.00222175 -0.120459 2.53872e-21)
(0.00255331 -0.113476 1.95602e-21)
(0.00307966 -0.107015 -1.99608e-21)
(0.00377136 -0.101014 2.87783e-21)
(0.00459989 -0.0954144 -1.40807e-21)
(0.0055379 -0.0901686 1.66347e-21)
(0.00655929 -0.0852335 2.42214e-21)
(0.00763762 -0.0805732 9.90695e-22)
(0.00874725 -0.0761592 3.06964e-21)
(0.00988285 -0.0719659 -9.71705e-22)
(0.0110669 -0.0679665 -2.51421e-22)
(0.0121417 -0.0641534 -2.13391e-21)
(0.0687054 -0.471806 -6.41338e-22)
(0.061635 -0.43074 -4.66558e-22)
(0.0549152 -0.3937 -1.6106e-21)
(0.0484986 -0.360351 -4.65921e-21)
(0.042471 -0.330354 1.55973e-21)
(0.0369253 -0.303385 1.23571e-22)
(0.0319094 -0.279142 -1.27323e-21)
(0.0274455 -0.257351 3.16516e-22)
(0.0235396 -0.237758 -1.56236e-22)
(0.0201849 -0.220132 -4.12466e-21)
(0.0173651 -0.204262 1.72059e-21)
(0.0150575 -0.189957 3.31393e-21)
(0.0132346 -0.177044 -2.437e-23)
(0.0118658 -0.165366 1.37502e-21)
(0.0109182 -0.154782 3.74113e-21)
(0.0103581 -0.145162 -2.72892e-21)
(0.0101507 -0.136393 5.04286e-21)
(0.0102612 -0.128371 -2.58586e-21)
(0.010655 -0.121003 4.81649e-21)
(0.0112979 -0.114206 -3.78658e-21)
(0.0121563 -0.107907 1.74418e-21)
(0.0131974 -0.10204 5.06399e-21)
(0.0143894 -0.0965489 4.88798e-22)
(0.015702 -0.0913824 -5.10335e-21)
(0.0171058 -0.0864978 2.98192e-21)
(0.0185714 -0.0818586 3.71562e-22)
(0.0200697 -0.0774362 -1.11743e-21)
(0.0215955 -0.0732054 4.32572e-21)
(0.0231766 -0.0691372 1.70842e-21)
(0.0246296 -0.0652315 -1.78855e-21)
(0.0809555 -0.469483 1.88132e-21)
(0.0727658 -0.428093 1.09573e-22)
(0.065112 -0.390882 -3.26966e-21)
(0.0579246 -0.357489 7.02959e-22)
(0.0512722 -0.32755 -1.13701e-21)
(0.045233 -0.300715 7.57626e-22)
(0.0398413 -0.276667 1.9328e-21)
(0.0351068 -0.255113 3.92502e-21)
(0.0310241 -0.235789 -4.57419e-21)
(0.0275761 -0.218453 1.12242e-21)
(0.0247375 -0.202885 -9.69075e-22)
(0.0224775 -0.188888 7.33069e-22)
(0.0207612 -0.176282 -3.28554e-21)
(0.0195515 -0.164905 -3.11891e-22)
(0.0188097 -0.154613 6.09161e-21)
(0.0184968 -0.145272 -4.25744e-21)
(0.0185731 -0.136765 -2.96988e-21)
(0.0189996 -0.128986 -2.40499e-21)
(0.0197376 -0.121839 4.30388e-21)
(0.0207489 -0.115238 1.03966e-21)
(0.0219965 -0.109109 -4.83593e-21)
(0.0234441 -0.103385 6.82217e-21)
(0.0250564 -0.0980058 -6.38913e-21)
(0.0267998 -0.0929211 4.50624e-21)
(0.0286418 -0.0880865 -2.64008e-21)
(0.0305493 -0.0834653 1.83468e-21)
(0.0324897 -0.0790287 1.53301e-21)
(0.0344576 -0.0747505 -6.80801e-21)
(0.0364871 -0.0705995 2.99357e-21)
(0.0383655 -0.0665845 6.71139e-23)
(0.093136 -0.466861 -1.85833e-21)
(0.0838182 -0.425219 1.59009e-21)
(0.0752357 -0.387901 -3.51387e-21)
(0.067294 -0.354523 6.96516e-21)
(0.0600426 -0.324693 -2.07546e-21)
(0.0535432 -0.298041 3.30776e-21)
(0.0478148 -0.274228 5.51517e-23)
(0.0428533 -0.25295 -4.3725e-22)
(0.0386409 -0.233928 -8.27596e-22)
(0.0351495 -0.216912 -5.26502e-23)
(0.0323441 -0.201673 -3.59266e-21)
(0.0301851 -0.188007 1.89537e-21)
(0.0286299 -0.17573 -2.56094e-21)
(0.0276346 -0.164675 -1.76955e-22)
(0.0271546 -0.154693 -8.06319e-21)
(0.0271451 -0.145647 2.65965e-21)
(0.0275619 -0.137418 1.75643e-21)
(0.0283613 -0.129895 -2.00044e-21)
(0.0295004 -0.12298 -2.26648e-22)
(0.0309373 -0.116588 -3.44721e-21)
(0.0326311 -0.110638 -1.30558e-21)
(0.034542 -0.105063 1.919e-22)
(0.0366312 -0.0998013 -3.5181e-21)
(0.0388615 -0.0948011 -5.66004e-21)
(0.0411971 -0.0900166 1.94957e-22)
(0.0436008 -0.0854101 -7.31693e-22)
(0.0460362 -0.0809528 2.07791e-21)
(0.0484978 -0.0766169 -5.37755e-21)
(0.0510263 -0.0723678 4.80176e-21)
(0.0533764 -0.068225 -1.09287e-20)
(0.105241 -0.463945 -4.52967e-21)
(0.0947914 -0.422126 6.25151e-21)
(0.0852904 -0.38477 -7.24539e-21)
(0.0766154 -0.351467 -2.18168e-21)
(0.068795 -0.321801 -1.54439e-21)
(0.0618723 -0.295378 -1.79407e-21)
(0.0558495 -0.271845 -1.67672e-21)
(0.0507076 -0.250879 -2.97624e-22)
(0.0464152 -0.232193 -1.87449e-21)
(0.0429325 -0.215526 -4.35557e-22)
(0.0402141 -0.200642 3.86762e-21)
(0.038211 -0.187331 -2.02223e-21)
(0.0368728 -0.175404 -2.73591e-21)
(0.0361483 -0.164689 -5.14029e-21)
(0.0359867 -0.155034 1.12418e-20)
(0.0363376 -0.146299 -4.54967e-21)
(0.0371518 -0.138361 1.8015e-21)
(0.038381 -0.131108 -7.27873e-21)
(0.0399783 -0.124439 2.84372e-21)
(0.0418977 -0.118264 -1.31461e-21)
(0.0440945 -0.112503 1.59631e-21)
(0.0465253 -0.107085 -6.14696e-22)
(0.0491476 -0.101946 5.91461e-21)
(0.0519206 -0.0970339 -2.17157e-21)
(0.0548046 -0.0922999 6.49827e-21)
(0.0577586 -0.0877057 -1.62269e-21)
(0.0607414 -0.0832211 9.06663e-21)
(0.0637476 -0.078817 2.84273e-21)
(0.0668249 -0.0744535 5.51345e-21)
(0.0696919 -0.0701632 -1.90671e-20)
(0.117263 -0.46074 7.134e-21)
(0.105685 -0.418822 -1.47103e-21)
(0.0952809 -0.381498 3.20227e-21)
(0.0858989 -0.348334 -9.77152e-22)
(0.0775438 -0.318888 3.54417e-21)
(0.0702388 -0.292744 3.6833e-21)
(0.0639678 -0.269532 4.46859e-21)
(0.0586952 -0.248917 -4.33894e-22)
(0.0543754 -0.230599 -5.00616e-21)
(0.050956 -0.214309 7.49909e-21)
(0.0483803 -0.199805 -8.03966e-22)
(0.0465898 -0.186871 5.97874e-21)
(0.0455257 -0.175313 2.34387e-21)
(0.0451293 -0.164956 8.23456e-22)
(0.0453435 -0.155644 1.43566e-21)
(0.0461121 -0.147234 2.15644e-21)
(0.0473809 -0.139602 3.93071e-21)
(0.049097 -0.13263 -1.27078e-21)
(0.0512093 -0.126218 6.5163e-21)
(0.0536679 -0.120272 3.28845e-21)
(0.0564243 -0.114709 -7.02216e-21)
(0.0594311 -0.109455 1.32197e-20)
(0.0626424 -0.104447 -1.83064e-20)
(0.0660133 -0.0996259 1.81297e-20)
(0.0695005 -0.0949435 -6.24681e-21)
(0.0730581 -0.0903595 1.13939e-21)
(0.0766403 -0.0858421 -9.22348e-21)
(0.0802413 -0.0813592 5.2354e-21)
(0.0839165 -0.0768649 2.03939e-21)
(0.0873445 -0.0724064 -2.82671e-21)
(0.129199 -0.457249 -4.07314e-21)
(0.116499 -0.415316 4.72704e-21)
(0.105214 -0.378098 -1.34408e-21)
(0.0951561 -0.345137 4.16917e-21)
(0.0863057 -0.315967 4.35461e-22)
(0.0786638 -0.290152 1.19571e-21)
(0.0721944 -0.267303 -8.81201e-21)
(0.0668444 -0.247075 -1.72138e-21)
(0.0625529 -0.229156 6.51245e-21)
(0.0592537 -0.213271 5.47856e-21)
(0.0568788 -0.19917 -9.69997e-21)
(0.0553594 -0.186633 6.03648e-21)
(0.0546279 -0.175462 -6.27709e-21)
(0.0546181 -0.165479 4.75255e-21)
(0.0552661 -0.156523 -8.31628e-21)
(0.0565102 -0.148453 -6.69074e-21)
(0.058291 -0.141137 2.1128e-22)
(0.060551 -0.13446 -3.54751e-21)
(0.0632348 -0.128315 6.14231e-21)
(0.0662888 -0.122608 2.67117e-21)
(0.0696607 -0.117253 -1.74585e-21)
(0.0732993 -0.112173 -5.04492e-22)
(0.0771547 -0.107301 2.53589e-21)
(0.0811784 -0.102577 -8.41236e-21)
(0.0853227 -0.0979486 1.46611e-20)
(0.089537 -0.0933737 -3.53949e-21)
(0.09377 -0.0888189 -4.54591e-22)
(0.0980156 -0.0842475 1.47585e-20)
(0.102337 -0.079606 2.34824e-21)
(0.106369 -0.0749585 -2.35833e-21)
(0.141042 -0.453478 1.93368e-22)
(0.127235 -0.411616 -2.42176e-21)
(0.115096 -0.37458 -2.49781e-21)
(0.1044 -0.341888 -4.51284e-21)
(0.095099 -0.313052 1.75835e-22)
(0.0871704 -0.287614 -3.90481e-21)
(0.0805569 -0.265171 4.68019e-21)
(0.0751866 -0.245365 -4.68238e-22)
(0.070982 -0.227876 4.63512e-21)
(0.0678631 -0.212419 -3.68196e-21)
(0.0657493 -0.198743 -2.09056e-21)
(0.0645614 -0.186621 1.22627e-21)
(0.0642225 -0.175852 7.10855e-22)
(0.0646587 -0.166256 -7.92293e-21)
(0.0657994 -0.15767 4.77715e-21)
(0.067577 -0.149949 -2.67174e-21)
(0.0699271 -0.142961 7.61859e-21)
(0.0727876 -0.136588 -2.69614e-21)
(0.0760992 -0.130721 2.87593e-21)
(0.0798042 -0.125263 7.99016e-22)
(0.0838467 -0.120125 5.6291e-21)
(0.0881719 -0.115228 -1.10135e-21)
(0.092726 -0.110501 1.02453e-20)
(0.0974565 -0.105879 -1.16608e-20)
(0.102311 -0.101309 -4.27638e-21)
(0.107235 -0.0967443 3.6407e-21)
(0.112169 -0.0921489 -2.16025e-22)
(0.117108 -0.087481 -6.98853e-21)
(0.122123 -0.0826768 5.81405e-21)
(0.126801 -0.0778198 -7.87031e-21)
(0.152788 -0.449431 6.99693e-21)
(0.137896 -0.40773 2.11743e-21)
(0.124937 -0.370953 2.78849e-21)
(0.113646 -0.338598 4.14983e-21)
(0.103944 -0.310153 6.66718e-21)
(0.0957842 -0.285141 -2.2227e-22)
(0.0890853 -0.263145 9.94077e-22)
(0.0837556 -0.243794 9.16989e-21)
(0.0797003 -0.226762 -1.87082e-21)
(0.0768244 -0.211759 -3.8733e-21)
(0.0750345 -0.198525 7.1962e-21)
(0.0742402 -0.186833 1.4039e-21)
(0.0743555 -0.176479 1.96274e-23)
(0.0752983 -0.16728 1.93787e-21)
(0.0769912 -0.159073 3.86575e-21)
(0.0793607 -0.15171 -8.54767e-21)
(0.0823373 -0.145059 7.49552e-21)
(0.0858546 -0.138998 1.34136e-21)
(0.0898493 -0.133418 8.3621e-21)
(0.09426 -0.128218 -4.62841e-21)
(0.0990274 -0.123307 8.22322e-21)
(0.104093 -0.118602 -9.16823e-21)
(0.109399 -0.114028 9.24806e-21)
(0.114889 -0.109518 1.58091e-21)
(0.120507 -0.105012 -6.71079e-21)
(0.126191 -0.10046 -2.49329e-21)
(0.131877 -0.0958233 1.43595e-20)
(0.137558 -0.0910527 1.08029e-20)
(0.143312 -0.0860721 2.99139e-21)
(0.148677 -0.0809867 -2.68282e-21)
(0.164432 -0.445113 7.33581e-22)
(0.148483 -0.403665 1.98849e-21)
(0.134746 -0.367228 8.71843e-21)
(0.12291 -0.335277 -1.47418e-20)
(0.112864 -0.30728 -1.65053e-21)
(0.104533 -0.282742 -1.80098e-21)
(0.0978119 -0.261232 7.95172e-22)
(0.0925879 -0.242369 1.23705e-21)
(0.0887478 -0.22582 2.26581e-21)
(0.0861808 -0.211288 -6.36802e-21)
(0.0847801 -0.198513 -1.5256e-21)
(0.0844439 -0.187263 3.89194e-21)
(0.0850764 -0.177333 4.7031e-21)
(0.0865875 -0.168539 -4.70726e-21)
(0.0888925 -0.160716 -5.28347e-21)
(0.0919124 -0.153717 8.30515e-21)
(0.0955725 -0.147408 5.95731e-21)
(0.0998022 -0.141666 -1.42734e-21)
(0.104534 -0.136379 -4.15054e-21)
(0.109704 -0.131446 8.30323e-22)
(0.115249 -0.126771 -1.08538e-20)
(0.121107 -0.122268 1.35582e-20)
(0.127217 -0.117858 -9.67037e-21)
(0.133519 -0.113468 -5.65915e-22)
(0.13995 -0.109034 6.90652e-21)
(0.146445 -0.104502 -2.29682e-21)
(0.152932 -0.0998256 -7.39965e-21)
(0.159402 -0.0949495 9.25426e-21)
(0.165942 -0.0897816 -3.01765e-22)
(0.172033 -0.0844509 1.96586e-21)
(0.17597 -0.440528 -4.82758e-22)
(0.159002 -0.39943 -1.98871e-21)
(0.144534 -0.363412 -1.00671e-20)
(0.13221 -0.331935 3.67625e-21)
(0.121882 -0.304443 -1.30031e-21)
(0.113446 -0.280425 4.24301e-21)
(0.106772 -0.259438 3.13077e-22)
(0.101723 -0.241092 -5.85248e-21)
(0.0981673 -0.225048 9.24387e-21)
(0.0959782 -0.211006 -8.7569e-21)
(0.0950346 -0.198701 -4.91649e-22)
(0.095223 -0.187901 2.41509e-21)
(0.0964374 -0.1784 -4.37757e-21)
(0.0985793 -0.170014 5.38344e-21)
(0.101557 -0.162578 -1.06755e-20)
(0.105286 -0.155945 -2.79148e-21)
(0.109686 -0.14998 6.92012e-21)
(0.114683 -0.144559 -1.88542e-22)
(0.120206 -0.139571 -5.2954e-21)
(0.126187 -0.134909 1.44209e-20)
(0.13256 -0.130478 -7.75404e-21)
(0.13926 -0.126187 -1.12995e-20)
(0.146224 -0.121951 3.98718e-21)
(0.153386 -0.117694 -1.21684e-20)
(0.160681 -0.113344 -3.23423e-21)
(0.168035 -0.10884 -5.71045e-22)
(0.175371 -0.104131 -9.25834e-21)
(0.182677 -0.0991505 1.10582e-20)
(0.190047 -0.0937884 -6.5761e-21)
(0.196903 -0.0881994 8.50384e-21)
(0.187398 -0.435683 -2.47743e-21)
(0.169456 -0.395031 -8.062e-21)
(0.154315 -0.359515 4.39519e-21)
(0.141566 -0.328578 -4.44128e-21)
(0.131025 -0.301647 -3.593e-21)
(0.122556 -0.278195 -2.30837e-21)
(0.116001 -0.257766 -8.58521e-21)
(0.111201 -0.239964 6.08029e-21)
(0.108004 -0.224444 -1.6025e-20)
(0.106265 -0.210904 -6.44671e-21)
(0.105849 -0.199077 2.10987e-21)
(0.10663 -0.188732 4.05611e-21)
(0.108493 -0.179661 9.41886e-23)
(0.111329 -0.171681 -8.74453e-21)
(0.115041 -0.16463 2.09378e-21)
(0.119537 -0.15836 -8.99949e-21)
(0.124733 -0.152736 -6.95061e-21)
(0.13055 -0.147636 -4.57894e-21)
(0.136915 -0.142946 -1.24909e-21)
(0.143757 -0.138561 7.68979e-21)
(0.151006 -0.13438 1.1892e-20)
(0.158597 -0.130309 -3.743e-21)
(0.166461 -0.12626 -3.86493e-21)
(0.174531 -0.122148 7.61373e-21)
(0.182736 -0.117896 4.51266e-21)
(0.190997 -0.113435 -3.58472e-21)
(0.199228 -0.108705 -4.28891e-21)
(0.207415 -0.103627 3.86096e-22)
(0.215659 -0.0980688 4.95101e-21)
(0.223318 -0.0922138 7.51949e-21)
(0.198712 -0.430581 -6.29511e-22)
(0.179852 -0.390476 1.04449e-20)
(0.164102 -0.355544 8.87311e-21)
(0.151 -0.325215 7.41783e-21)
(0.140321 -0.2989 -4.97046e-21)
(0.131897 -0.276055 -1.05399e-21)
(0.125539 -0.256216 9.10847e-22)
(0.121066 -0.238982 7.80137e-21)
(0.118304 -0.224003 3.14156e-21)
(0.117091 -0.210974 8.03579e-21)
(0.117276 -0.199629 -1.17732e-20)
(0.118721 -0.189737 1.11799e-21)
(0.1213 -0.181092 5.25116e-21)
(0.124896 -0.173513 3.48757e-21)
(0.129402 -0.166838 7.87352e-21)
(0.134724 -0.160922 -5.20826e-21)
(0.140771 -0.155632 -5.40402e-21)
(0.14746 -0.150847 8.66224e-22)
(0.154716 -0.146453 1.25568e-20)
(0.162465 -0.142343 -2.10452e-20)
(0.170637 -0.138415 7.45757e-21)
(0.179161 -0.134573 -1.19621e-22)
(0.187969 -0.130722 1.59153e-20)
(0.19699 -0.126771 -6.917e-21)
(0.206148 -0.122635 -2.36623e-22)
(0.21536 -0.118234 -4.90975e-21)
(0.22453 -0.113501 4.75195e-21)
(0.233642 -0.108339 1.21689e-21)
(0.242802 -0.102591 -6.03419e-21)
(0.251302 -0.0964691 2.2365e-20)
(0.209911 -0.425228 -9.93913e-21)
(0.190196 -0.38577 -6.44642e-21)
(0.17391 -0.351505 -1.78083e-20)
(0.160534 -0.321851 -8.85991e-21)
(0.149799 -0.296204 8.53432e-21)
(0.141502 -0.274008 -5.53586e-21)
(0.135427 -0.254789 -1.56492e-21)
(0.131363 -0.238142 -4.16582e-21)
(0.129117 -0.223715 7.14999e-21)
(0.128508 -0.211202 -1.74162e-21)
(0.12937 -0.200339 -2.82691e-21)
(0.131552 -0.190894 -4.03013e-22)
(0.134916 -0.182666 -1.35159e-20)
(0.139336 -0.175474 -1.01266e-21)
(0.1447 -0.169162 3.59168e-21)
(0.150905 -0.163586 -4.81137e-22)
(0.157856 -0.158616 -1.66764e-20)
(0.165469 -0.154133 1.68575e-20)
(0.173662 -0.150025 -1.74349e-20)
(0.182363 -0.146186 7.00251e-21)
(0.191497 -0.142511 1.01465e-21)
(0.200995 -0.138902 4.42941e-22)
(0.210786 -0.13526 -8.41445e-21)
(0.220795 -0.131487 3.03303e-21)
(0.230947 -0.127487 6.88506e-23)
(0.241149 -0.123172 1.1151e-21)
(0.2513 -0.11846 -2.51784e-20)
(0.261378 -0.113237 6.54196e-21)
(0.271496 -0.107313 7.6524e-21)
(0.280872 -0.100933 1.03451e-20)
(0.220991 -0.419629 1.96945e-20)
(0.200495 -0.380921 7.91382e-21)
(0.183756 -0.347404 4.87763e-21)
(0.170192 -0.318491 7.96301e-21)
(0.15949 -0.293563 -1.12162e-21)
(0.15141 -0.272052 6.86437e-21)
(0.145704 -0.25348 1.6224e-20)
(0.142137 -0.237437 -2.01482e-21)
(0.140492 -0.22357 1.08085e-21)
(0.140569 -0.211574 2.27011e-20)
(0.142187 -0.201186 -2.88024e-21)
(0.14518 -0.192178 3.47873e-21)
(0.1494 -0.18435 -1.51569e-21)
(0.154712 -0.177529 -5.67478e-22)
(0.160995 -0.171558 2.07347e-20)
(0.16814 -0.1663 8.047e-22)
(0.176049 -0.161629 2.44618e-20)
(0.184632 -0.157429 -2.94491e-21)
(0.193808 -0.153591 -5.83472e-21)
(0.203498 -0.15001 1.39644e-20)
(0.213632 -0.146582 -1.35579e-20)
(0.224138 -0.143208 1.51755e-20)
(0.234943 -0.139783 8.59271e-21)
(0.245975 -0.136204 -7.44751e-21)
(0.257153 -0.132364 1.13078e-20)
(0.268381 -0.128164 1.33194e-21)
(0.279549 -0.123507 -5.45372e-21)
(0.290632 -0.118255 2.41266e-21)
(0.301747 -0.112182 1.97307e-20)
(0.312036 -0.105565 3.36938e-21)
(0.23195 -0.41379 -3.37946e-21)
(0.210757 -0.375934 -7.7791e-21)
(0.193656 -0.343247 3.53329e-21)
(0.179998 -0.315139 -1.43893e-20)
(0.169424 -0.290977 7.37923e-21)
(0.161656 -0.270187 -1.41748e-20)
(0.156414 -0.252284 -1.01019e-20)
(0.153435 -0.236858 2.8496e-21)
(0.152478 -0.223554 3.39191e-21)
(0.153326 -0.212071 -1.52812e-20)
(0.15578 -0.202148 -7.08975e-21)
(0.159662 -0.19356 3.56193e-21)
(0.16481 -0.186112 -9.7824e-21)
(0.171081 -0.179635 -4.16152e-21)
(0.178346 -0.173978 -2.98685e-21)
(0.186489 -0.16901 -3.08309e-21)
(0.195408 -0.164608 -1.36256e-20)
(0.205007 -0.160663 -9.15809e-21)
(0.215205 -0.157069 1.35091e-21)
(0.225922 -0.153725 3.07715e-21)
(0.237086 -0.150531 3.63368e-21)
(0.248627 -0.147385 -1.24876e-20)
(0.260473 -0.144182 4.92726e-21)
(0.272551 -0.140812 -1.04787e-20)
(0.284781 -0.137158 1.04309e-20)
(0.297063 -0.133108 -1.38183e-20)
(0.30928 -0.128548 4.75786e-21)
(0.321403 -0.123311 -7.12055e-21)
(0.333553 -0.11713 -1.07353e-20)
(0.344789 -0.110311 -1.28168e-21)
(0.242787 -0.407715 -7.21843e-21)
(0.220992 -0.370814 -7.0241e-21)
(0.203629 -0.339038 -7.4922e-21)
(0.189979 -0.311795 -6.12263e-21)
(0.179635 -0.288446 1.89126e-20)
(0.172279 -0.268408 2.94112e-21)
(0.167598 -0.251193 9.02683e-21)
(0.165301 -0.236392 1.46456e-20)
(0.165125 -0.223652 7.64199e-21)
(0.166831 -0.212673 -1.01497e-20)
(0.170204 -0.203199 1.78989e-20)
(0.175053 -0.195009 -1.78223e-20)
(0.181204 -0.187915 1.7793e-20)
(0.188502 -0.181751 2.27565e-21)
(0.196812 -0.176374 4.94306e-21)
(0.206011 -0.171656 1.55502e-21)
(0.215989 -0.167485 2.19886e-20)
(0.22665 -0.163756 -3.32377e-21)
(0.237907 -0.160371 3.18175e-21)
(0.249682 -0.157233 1.13349e-20)
(0.261902 -0.154248 -1.28848e-20)
(0.274498 -0.151316 1.08165e-20)
(0.287402 -0.148332 4.97235e-22)
(0.300542 -0.145181 5.25052e-21)
(0.31384 -0.141739 1.00008e-20)
(0.327195 -0.137877 -1.748e-21)
(0.340485 -0.133466 1.05913e-20)
(0.353677 -0.128303 1.60652e-20)
(0.366895 -0.122071 -1.74237e-20)
(0.379114 -0.115105 -1.25722e-20)
(0.2535 -0.401408 2.18148e-20)
(0.231209 -0.365565 -2.53852e-21)
(0.213692 -0.334778 5.7453e-21)
(0.200161 -0.308459 1.13499e-20)
(0.190155 -0.285965 -3.42608e-20)
(0.183317 -0.266706 3.88586e-21)
(0.179299 -0.250197 -1.46171e-20)
(0.177783 -0.236025 1.5478e-20)
(0.17848 -0.223844 -1.26532e-20)
(0.181134 -0.213358 7.6231e-21)
(0.185511 -0.204313 -2.78607e-20)
(0.191407 -0.196496 3.65196e-22)
(0.198635 -0.189722 -1.05784e-20)
(0.207031 -0.183834 1.59852e-20)
(0.21645 -0.178694 -1.77389e-20)
(0.226761 -0.174183 -1.01973e-21)
(0.23785 -0.170194 -1.59082e-20)
(0.249615 -0.166632 -1.47585e-21)
(0.261968 -0.163407 1.52248e-21)
(0.274828 -0.160431 4.17253e-21)
(0.288123 -0.157616 -2.30757e-20)
(0.301787 -0.154869 -8.2434e-22)
(0.315756 -0.152089 -1.38877e-20)
(0.329961 -0.149159 -3.38445e-21)
(0.344331 -0.145949 -9.21619e-21)
(0.358765 -0.142318 -1.04705e-20)
(0.373141 -0.138115 -1.14443e-20)
(0.387424 -0.133101 1.8645e-20)
(0.401741 -0.126895 5.15781e-21)
(0.414978 -0.11986 -1.2055e-20)
(0.264087 -0.394876 -1.4565e-20)
(0.241417 -0.360192 5.83527e-21)
(0.223866 -0.330469 -1.083e-20)
(0.21057 -0.30513 1.67743e-21)
(0.201016 -0.283529 1.98717e-20)
(0.194805 -0.265075 -1.04021e-20)
(0.191556 -0.249281 -1.18924e-20)
(0.190921 -0.235741 -1.03929e-20)
(0.192588 -0.224112 3.91055e-22)
(0.196281 -0.214101 7.22454e-21)
(0.201749 -0.205463 -5.77019e-21)
(0.208773 -0.197988 -3.08311e-23)
(0.217154 -0.191498 1.9365e-20)
(0.226719 -0.185842 -1.00444e-20)
(0.23731 -0.180891 3.00347e-21)
(0.248792 -0.176533 -9.09375e-21)
(0.261043 -0.172669 3.48023e-21)
(0.273956 -0.169214 8.05679e-21)
(0.287438 -0.166087 9.75357e-21)
(0.301408 -0.163212 -1.08642e-20)
(0.315794 -0.160512 1.59737e-21)
(0.330532 -0.157903 1.01111e-20)
(0.345562 -0.155294 1.8311e-20)
(0.360824 -0.152571 5.20755e-21)
(0.376254 -0.149605 -1.99377e-20)
(0.391759 -0.146243 2.41001e-20)
(0.407219 -0.142314 -1.22097e-20)
(0.422603 -0.137537 -1.52064e-20)
(0.438043 -0.13146 -9.6419e-21)
(0.452333 -0.124459 -1.55432e-20)
(0.274549 -0.388121 7.99613e-21)
(0.251627 -0.354695 -6.90197e-21)
(0.234169 -0.32611 2.5545e-21)
(0.221233 -0.301803 1.55856e-20)
(0.212249 -0.28113 4.5053e-21)
(0.20678 -0.2635 -4.1192e-21)
(0.204408 -0.248431 1.01806e-20)
(0.204757 -0.235521 2.1172e-21)
(0.207491 -0.224432 1.07534e-20)
(0.212314 -0.214878 6.21521e-21)
(0.218961 -0.206619 1.66663e-22)
(0.227194 -0.199453 4.32518e-21)
(0.236806 -0.193207 -1.43741e-21)
(0.247609 -0.187738 2.6228e-21)
(0.25944 -0.182923 7.6716e-21)
(0.272151 -0.178657 -4.45139e-21)
(0.285616 -0.174853 1.14392e-20)
(0.299721 -0.171433 1.21869e-20)
(0.314368 -0.168328 -1.44574e-20)
(0.329473 -0.165477 1.50375e-20)
(0.344963 -0.162814 3.37368e-20)
(0.360775 -0.160273 -2.24044e-20)
(0.376856 -0.157775 2.34896e-20)
(0.393153 -0.155222 -1.67525e-20)
(0.409615 -0.152488 -2.50841e-21)
(0.426163 -0.149421 1.94037e-20)
(0.442685 -0.145832 -3.84479e-21)
(0.459164 -0.141396 1.54729e-20)
(0.475743 -0.135575 1.59143e-20)
(0.491118 -0.128748 -3.53077e-20)
(0.284883 -0.381149 -7.82867e-21)
(0.261851 -0.349077 3.74532e-21)
(0.244623 -0.321699 1.78162e-21)
(0.232176 -0.29847 -1.85e-20)
(0.223887 -0.278755 -1.02781e-20)
(0.219275 -0.261966 8.12421e-21)
(0.21789 -0.247626 -2.3841e-20)
(0.219326 -0.235341 3.02196e-20)
(0.223226 -0.224778 -1.77102e-20)
(0.229272 -0.21566 2.21109e-21)
(0.237182 -0.207752 -3.35567e-21)
(0.246707 -0.200859 -1.18961e-20)
(0.257625 -0.194816 2.52381e-20)
(0.269739 -0.189485 1.02989e-20)
(0.282874 -0.18475 -1.06299e-20)
(0.296877 -0.180515 2.67709e-22)
(0.31161 -0.176698 6.56047e-21)
(0.326954 -0.173234 -1.49267e-20)
(0.342805 -0.170064 3.12011e-21)
(0.359073 -0.16714 1.10728e-20)
(0.375683 -0.164415 -4.66884e-21)
(0.392571 -0.161841 8.37951e-21)
(0.409687 -0.159361 -1.673e-20)
(0.426989 -0.156899 2.50124e-20)
(0.444438 -0.15435 6.31716e-21)
(0.461977 -0.151573 -1.6623e-20)
(0.479515 -0.148375 -1.51327e-20)
(0.497058 -0.14439 -3.19088e-22)
(0.514777 -0.138981 2.14345e-20)
(0.531269 -0.132505 -6.30014e-21)
(0.295091 -0.373961 -2.21861e-21)
(0.2721 -0.343338 -1.73486e-20)
(0.255247 -0.317229 2.12547e-20)
(0.243424 -0.295121 1.5249e-20)
(0.235956 -0.27639 1.62567e-20)
(0.232321 -0.260454 5.02394e-21)
(0.232033 -0.246844 7.53932e-21)
(0.23466 -0.235176 4.08073e-21)
(0.239822 -0.225124 -1.69223e-20)
(0.247182 -0.216418 3.18816e-20)
(0.256442 -0.208832 -2.75484e-20)
(0.267338 -0.202177 -2.22701e-21)
(0.279637 -0.196295 4.10099e-21)
(0.293132 -0.191054 -2.05776e-20)
(0.307638 -0.186344 1.83996e-20)
(0.322993 -0.182075 -5.61944e-21)
(0.339052 -0.178174 -1.53271e-20)
(0.355688 -0.174581 6.35493e-21)
(0.372788 -0.17125 -1.21992e-20)
(0.390256 -0.168144 -1.12579e-20)
(0.408011 -0.165234 -1.26407e-20)
(0.425985 -0.162493 2.94328e-21)
(0.444128 -0.159893 1.97344e-21)
(0.462404 -0.157391 -3.38331e-20)
(0.480787 -0.154917 -1.35581e-20)
(0.499245 -0.152365 8.51033e-21)
(0.517719 -0.149564 1.11643e-20)
(0.536262 -0.146124 -1.57054e-20)
(0.555099 -0.1413 -6.25451e-21)
(0.572738 -0.135399 1.11924e-21)
(0.305173 -0.366562 -1.64686e-21)
(0.282389 -0.337473 1.12141e-20)
(0.266062 -0.312691 -3.24649e-21)
(0.255004 -0.291741 -4.08056e-21)
(0.248485 -0.274015 -2.5449e-20)
(0.245944 -0.25894 -6.12735e-21)
(0.246864 -0.246059 1.16969e-20)
(0.250785 -0.234996 -8.22841e-21)
(0.257304 -0.225437 -1.02117e-21)
(0.266066 -0.21712 -1.69175e-21)
(0.276757 -0.209827 1.05326e-20)
(0.289101 -0.203375 -1.69845e-20)
(0.302853 -0.197615 -1.1994e-20)
(0.317796 -0.192418 1.47012e-20)
(0.333738 -0.187682 -8.79158e-21)
(0.350507 -0.183322 -1.1149e-20)
(0.367951 -0.179267 2.43476e-20)
(0.385935 -0.175466 -3.898e-21)
(0.40434 -0.171878 1.57244e-20)
(0.423059 -0.168475 -1.45432e-20)
(0.442002 -0.165242 -1.23994e-20)
(0.461095 -0.162173 1.10606e-20)
(0.480281 -0.159267 -1.12898e-21)
(0.499521 -0.156522 -8.79033e-21)
(0.518799 -0.153923 7.97326e-21)
(0.538102 -0.151426 -2.57084e-20)
(0.55741 -0.148928 1.57833e-20)
(0.576851 -0.146065 -2.79512e-22)
(0.596761 -0.142008 -1.74134e-20)
(0.615582 -0.136968 2.83842e-20)
(0.315138 -0.358953 8.15178e-21)
(0.292735 -0.33148 -2.1933e-20)
(0.277091 -0.308072 -2.07007e-21)
(0.266936 -0.28831 1.15396e-20)
(0.261495 -0.271605 -3.18002e-21)
(0.260167 -0.257396 -9.44501e-21)
(0.262404 -0.245238 4.56849e-21)
(0.267719 -0.234769 5.63523e-21)
(0.275687 -0.225683 5.26678e-22)
(0.285935 -0.21773 7.53919e-21)
(0.298136 -0.210701 2.53567e-20)
(0.311999 -0.204421 -8.91863e-21)
(0.32727 -0.198746 2.6303e-21)
(0.343723 -0.193555 -7.02372e-21)
(0.36116 -0.18875 2.68462e-20)
(0.379401 -0.184248 -5.10671e-21)
(0.39829 -0.179984 1.73901e-20)
(0.417683 -0.175907 -7.08341e-21)
(0.437454 -0.171978 7.85754e-21)
(0.457491 -0.168173 1.23435e-20)
(0.477693 -0.164483 2.26683e-21)
(0.497975 -0.160912 8.90274e-21)
(0.518266 -0.15748 -7.6434e-21)
(0.538517 -0.154223 2.15746e-20)
(0.558705 -0.151182 -9.04349e-21)
(0.578821 -0.148408 3.40878e-20)
(0.598875 -0.145927 -9.89074e-21)
(0.619082 -0.14351 6.99685e-21)
(0.639989 -0.140316 -1.34945e-20)
(0.660068 -0.136422 2.70108e-20)
(0.325016 -0.351142 -1.7659e-20)
(0.303169 -0.325346 6.09235e-22)
(0.288355 -0.30335 -1.24686e-20)
(0.27924 -0.284801 2.36973e-21)
(0.275002 -0.26913 7.1286e-22)
(0.275004 -0.255789 -1.26975e-20)
(0.278665 -0.244348 -2.49592e-20)
(0.285472 -0.234456 1.29776e-20)
(0.294978 -0.225823 -1.8952e-20)
(0.306791 -0.218209 -1.06318e-20)
(0.320572 -0.211416 -6.4062e-21)
(0.336018 -0.205278 -5.47711e-21)
(0.352866 -0.199658 2.93788e-22)
(0.370884 -0.194442 -2.04937e-20)
(0.389866 -0.189534 1.45265e-20)
(0.40963 -0.184857 -2.40633e-20)
(0.430014 -0.180346 -6.43955e-21)
(0.450874 -0.175949 7.15036e-21)
(0.47208 -0.171625 9.34194e-21)
(0.493514 -0.167346 9.76845e-21)
(0.515071 -0.163096 7.78144e-21)
(0.536657 -0.158875 -1.99048e-20)
(0.558186 -0.154703 2.06952e-20)
(0.579589 -0.150621 -2.18942e-21)
(0.600813 -0.146703 -5.82997e-21)