/*--------------------------------*- C++ -*----------------------------------*\
  =========                 |
  \\      /  F ield         | OpenFOAM: The Open Source CFD Toolbox
   \\    /   O peration     | Website:  https://openfoam.org
    \\  /    A nd           | Version:  6.0
     \\/     M anipulation  |
\*---------------------------------------------------------------------------*/
FoamFile
{
    version     2.0;
    format      ascii;
    class       volScalarField;
    location    "11.501";
    object      p;
}
// * * * * * * * * * * * * * * * * * * * * * * * * * * * * * * * * * * * * * //

dimensions      [0 2 -2 0 0 0 0];

internalField   nonuniform List<scalar> 
2400
(
-179.825
-148.487
-126.624
-109.212
-94.4415
-82.0351
-71.6045
-62.7138
-55.0069
-48.326
-182.731
-151.001
-128.779
-111.11
-96.1727
-83.6577
-73.1494
-64.1911
-56.4203
-49.7059
-185.462
-153.356
-130.791
-112.875
-97.777
-85.1569
-74.573
-65.5487
-57.7178
-50.9791
-187.971
-155.515
-132.631
-114.486
-99.2386
-86.5163
-75.8544
-66.7635
-58.8897
-52.17
-190.211
-157.436
-134.262
-115.915
-100.544
-87.7372
-77.0004
-67.8374
-59.9286
-53.2625
-192.15
-159.076
-135.633
-117.11
-101.651
-88.804
-78.031
-68.812
-60.8594
-54.2112
-193.785
-160.41
-136.692
-117.989
-102.454
-89.6071
-78.8695
-69.678
-61.7356
-55.0807
-195.141
-161.449
-137.429
-118.502
-102.832
-89.9323
-79.2232
-70.1547
-62.4517
-56.1245
-196.255
-162.234
-137.89
-118.689
-102.778
-89.6527
-78.7609
-69.6923
-62.4328
-57.1523
-197.141
-162.818
-138.163
-118.672
-102.463
-88.9801
-77.6579
-68.185
-60.8103
-55.9126
-202.274
-202.047
-201.65
-201.157
-200.613
-200.048
-199.481
-198.923
-198.371
-197.799
-165.498
-165.441
-165.264
-165.015
-164.725
-164.422
-164.122
-163.836
-163.554
-163.238
-139.591
-139.548
-139.417
-139.232
-139.024
-138.819
-138.642
-138.508
-138.41
-138.317
-119.673
-119.556
-119.367
-119.135
-118.896
-118.681
-118.527
-118.454
-118.475
-118.571
-103.308
-103.098
-102.823
-102.509
-102.205
-101.941
-101.772
-101.722
-101.833
-102.103
-89.7288
-89.4324
-89.0754
-88.6761
-88.3
-87.9653
-87.7626
-87.7108
-87.9019
-88.3314
-78.3109
-77.9405
-77.5136
-77.0342
-76.5876
-76.1527
-75.889
-75.7913
-76.0909
-76.6669
-68.5439
-68.1135
-67.6339
-67.0934
-66.593
-66.0342
-65.6596
-65.412
-65.8749
-66.6815
-60.0462
-59.5634
-59.0499
-58.4863
-57.9749
-57.3158
-56.7851
-56.2274
-56.7456
-58.0876
-52.6541
-52.0757
-51.4952
-50.9149
-50.4003
-49.6927
-48.9675
-47.9929
-47.985
-49.872
-189.777
-192.266
-194.507
-196.497
-198.21
-199.616
-200.706
-201.492
-201.999
-202.253
-153.698
-155.955
-158.02
-159.858
-161.435
-162.733
-163.757
-164.527
-165.062
-165.382
-129.332
-131.351
-133.203
-134.83
-136.197
-137.301
-138.161
-138.803
-139.245
-139.503
-111.084
-112.929
-114.598
-116.02
-117.169
-118.064
-118.742
-119.226
-119.533
-119.676
-96.1912
-97.948
-99.4843
-100.717
-101.656
-102.358
-102.869
-103.208
-103.384
-103.412
-83.7759
-85.5407
-87.0062
-88.0677
-88.8086
-89.3427
-89.713
-89.9261
-89.9914
-89.9196
-73.2151
-75.0473
-76.4854
-77.3998
-77.9794
-78.383
-78.6379
-78.747
-78.7219
-78.5721
-64.2618
-66.0437
-67.3662
-68.153
-68.6378
-68.9547
-69.1154
-69.145
-69.0586
-68.8577
-57.3345
-58.6663
-59.45
-60.0669
-60.5134
-60.7422
-60.7929
-60.7534
-60.6311
-60.4022
-52.9487
-53.7021
-53.0897
-53.3829
-53.7986
-53.8536
-53.7043
-53.5484
-53.3667
-53.0908
-39.4079
-45.5311
-52.6033
-60.6362
-69.8668
-80.6578
-93.4502
-108.892
-129.78
-162.537
-39.7356
-46.028
-53.2366
-61.4173
-70.8223
-81.8202
-94.8639
-110.619
-131.888
-165.029
-40.1877
-46.6319
-53.958
-62.2783
-71.8544
-83.0575
-96.353
-112.423
-134.063
-167.556
-40.7754
-47.3272
-54.7541
-63.2147
-72.9662
-84.3773
-97.9261
-114.312
-136.323
-170.155
-41.5422
-48.1929
-55.698
-64.2807
-74.1922
-85.7984
-99.5918
-116.291
-138.672
-172.84
-42.3202
-49.0821
-56.7015
-65.4359
-75.5182
-87.3181
-101.351
-118.358
-141.105
-175.603
-43.24
-50.1765
-57.9029
-66.754
-76.9729
-88.9439
-103.201
-120.505
-143.609
-178.43
-44.1789
-51.3433
-59.2039
-68.1743
-78.5267
-90.6622
-105.131
-122.716
-146.164
-181.299
-45.8262
-53.1126
-60.8437
-69.7689
-80.1944
-92.4662
-107.119
-124.958
-148.736
-184.183
-48.4566
-55.1714
-62.5121
-71.4279
-81.9541
-94.3329
-109.126
-127.187
-151.273
-187.034
-36.1577
-39.5627
-44.7943
-51.5868
-59.6069
-68.9321
-79.8446
-92.7551
-110.101
-138.542
-37.6552
-41.436
-46.7458
-53.3818
-61.2111
-70.4194
-81.3147
-94.3159
-111.89
-140.698
-37.4071
-42.1224
-47.9395
-54.7501
-62.6182
-71.853
-82.8161
-95.9597
-113.792
-142.975
-37.3311
-42.4311
-48.5698
-55.6289
-63.6983
-73.1091
-84.2484
-97.6081
-115.753
-145.348
-37.5843
-42.7961
-49.0815
-56.3126
-64.5839
-74.2138
-85.5863
-99.2186
-117.728
-147.773
-37.8962
-43.2464
-49.6551
-57.0085
-65.4363
-75.2623
-86.8708
-100.797
-119.698
-150.211
-38.167
-43.7018
-50.2553
-57.7349
-66.308
-76.3143
-88.1493
-102.37
-121.668
-152.648
-38.4498
-44.1507
-50.8443
-58.4595
-67.1881
-77.3796
-89.4427
-103.959
-123.653
-155.089
-38.7638
-44.601
-51.4205
-59.1738
-68.0676
-78.4546
-90.7548
-105.574
-125.666
-157.546
-39.0928
-45.0588
-51.9999
-59.8913
-68.9533
-79.542
-92.0875
-107.218
-127.71
-160.029
-30.8357
-28.7728
-28.2219
-28.4426
-28.715
-29.0774
-29.4866
-30.0273
-30.7115
-31.4918
-36.7657
-35.1219
-34.1394
-34.0806
-34.1809
-34.5045
-34.898
-35.4393
-36.0993
-36.8512
-42.8646
-41.6137
-40.6629
-40.3978
-40.364
-40.6165
-40.9885
-41.5253
-42.1763
-42.9238
-49.967
-48.8155
-47.9646
-47.5795
-47.4529
-47.6187
-47.9523
-48.4672
-49.1075
-49.8572
-58.1531
-57.0198
-56.2081
-55.7564
-55.5752
-55.6722
-55.9709
-56.4632
-57.1
-57.8623
-67.5766
-66.4621
-65.6477
-65.1482
-64.9279
-64.9774
-65.2511
-65.7301
-66.3752
-67.1641
-78.5121
-77.3908
-76.5425
-75.9881
-75.7197
-75.7246
-75.9739
-76.4447
-77.1058
-77.9333
-91.3455
-90.1399
-89.1974
-88.5461
-88.1927
-88.1284
-88.3336
-88.7862
-89.4595
-90.3273
-108.469
-107.051
-105.914
-105.09
-104.59
-104.408
-104.53
-104.936
-105.599
-106.483
-136.517
-134.759
-133.33
-132.257
-131.546
-131.19
-131.178
-131.489
-132.089
-132.922
-32.3017
-33.0899
-33.8926
-34.7349
-35.6471
-36.5152
-37.1495
-37.6955
-38.7516
-39.2383
-37.6504
-38.4613
-39.2965
-40.1534
-41.0339
-41.8779
-42.6208
-43.211
-43.589
-43.6026
-43.7311
-44.5738
-45.4506
-46.3459
-47.2482
-48.129
-48.9672
-49.6488
-49.9613
-49.9464
-50.6804
-51.5565
-52.4741
-53.4143
-54.3621
-55.3007
-56.2063
-56.9704
-57.4467
-57.7089
-58.7145
-59.6346
-60.6048
-61.6063
-62.6229
-63.6358
-64.6102
-65.469
-66.1559
-66.7455
-68.0623
-69.0442
-70.0891
-71.1783
-72.2935
-73.4108
-74.4917
-75.4914
-76.4066
-77.3017
-78.8931
-79.955
-81.0977
-82.302
-83.5473
-84.8065
-86.0464
-87.2449
-88.418
-89.6163
-91.3528
-92.5014
-93.7538
-95.0896
-96.4861
-97.9169
-99.3578
-100.801
-102.264
-103.782
-107.542
-108.748
-110.085
-111.531
-113.06
-114.652
-116.291
-117.98
-119.735
-121.568
-133.922
-135.1
-136.439
-137.91
-139.487
-141.152
-142.904
-144.756
-146.718
-148.774
-150.891
-123.481
-105.378
-90.8841
-78.2619
-67.4154
-58.1118
-50.1159
-43.3576
-37.3452
-153.164
-125.495
-107.065
-92.252
-79.3452
-68.2635
-58.7864
-50.6353
-43.5496
-37.0011
-155.625
-127.645
-108.872
-93.7517
-80.5899
-69.3088
-59.6686
-51.3448
-44.0706
-37.5046
-158.274
-129.942
-110.81
-95.3922
-81.9974
-70.5446
-60.786
-52.3963
-45.1184
-38.6449
-161.098
-132.38
-112.877
-97.1659
-83.5497
-71.934
-62.0602
-53.5959
-46.274
-39.8054
-164.076
-134.943
-115.057
-99.0557
-85.2286
-73.4636
-63.4895
-54.9605
-47.5841
-41.0726
-167.179
-137.607
-117.326
-101.036
-87.0055
-75.0966
-65.0183
-56.4039
-48.9359
-42.3425
-170.37
-140.339
-119.655
-103.078
-88.8529
-76.8109
-66.6387
-57.9496
-50.4061
-43.7565
-173.597
-143.101
-122.009
-105.148
-90.7343
-78.5649
-68.3024
-59.5428
-51.9374
-45.2638
-176.779
-145.838
-124.35
-107.209
-92.6136
-80.323
-69.9756
-61.1523
-53.5006
-46.832
-30.4701
-12.0583
-4.63821
-2.40073
-0.982906
-0.368872
-0.152255
-0.0915114
-0.0927807
-0.107259
-0.110517
-0.0939336
-0.0520144
-0.00805319
0.0370997
0.0392074
0.0240805
-0.0525785
-0.151471
-0.0968151
-31.8832
-13.3664
-5.24433
-2.63301
-1.15663
-0.460703
-0.204407
-0.124558
-0.114153
-0.121112
-0.119632
-0.100302
-0.0573917
-0.0132374
0.0312805
0.0342268
0.0200689
-0.0514633
-0.144902
-0.0909801
-33.2413
-14.67
-5.91891
-2.89285
-1.33014
-0.556109
-0.256726
-0.156864
-0.134822
-0.134503
-0.12856
-0.106713
-0.062928
-0.0185554
0.0254595
0.0293893
0.0162801
-0.0502423
-0.13847
-0.0853525
-34.6678
-15.936
-6.54327
-3.11089
-1.47787
-0.648015
-0.308449
-0.188489
-0.154922
-0.147527
-0.137349
-0.113178
-0.0686084
-0.0239796
0.0196597
0.0246994
0.012698
-0.0489585
-0.132219
-0.0799471
-36.099
-16.9664
-6.96505
-3.22773
-1.58481
-0.732646
-0.359044
-0.219334
-0.174476
-0.160231
-0.146024
-0.119697
-0.0744128
-0.0294824
0.013902
0.0201565
0.00930875
-0.0476544
-0.126179
-0.074777
-37.1654
-17.6295
-7.26287
-3.33873
-1.70374
-0.826803
-0.412353
-0.250058
-0.193597
-0.172644
-0.154588
-0.126251
-0.0803115
-0.0350336
0.00820578
0.0157587
0.00609734
-0.0463673
-0.120374
-0.0698513
-37.9948
-18.6904
-8.03702
-3.76113
-1.967
-0.972434
-0.479756
-0.283708
-0.213165
-0.185071
-0.163157
-0.132875
-0.0862993
-0.0406148
0.00258781
0.011505
0.00305197
-0.0451268
-0.114827
-0.0651764
-40.3357
-21.6534
-9.95898
-4.74085
-2.44678
-1.19283
-0.571396
-0.324601
-0.234928
-0.198326
-0.172168
-0.139812
-0.0924895
-0.0462693
-0.0029553
0.0073969
0.000172784
-0.0439458
-0.109567
-0.06076
-45.1303
-25.8861
-12.4118
-5.85384
-2.91262
-1.40848
-0.668837
-0.368556
-0.257843
-0.212204
-0.181642
-0.147136
-0.0989604
-0.05205
-0.00846095
0.00341951
-0.00254943
-0.0428277
-0.104586
-0.0566041
-44.7688
-26.0576
-12.8228
-5.88048
-2.85735
-1.43414
-0.708741
-0.391805
-0.271866
-0.221653
-0.188561
-0.15294
-0.104684
-0.0574859
-0.0138579
-0.000490036
-0.00523703
-0.0418633
-0.0997252
-0.0526558
-34.5645
-21.9892
-11.2811
-4.93281
-2.36865
-1.28847
-0.688551
-0.389331
-0.272504
-0.223129
-0.1902
-0.155599
-0.109716
-0.0638705
-0.0212807
-0.00614095
-0.00921357
-0.0408047
-0.0927095
-0.0472889
-25.0065
-17.5504
-9.60334
-4.29522
-2.04152
-1.18902
-0.706258
-0.421399
-0.296255
-0.240619
-0.202664
-0.164675
-0.118022
-0.071968
-0.0302461
-0.0133607
-0.0146002
-0.0402203
-0.084689
-0.0407452
-18.1006
-13.6095
-8.05218
-3.8723
-1.83464
-1.08841
-0.705691
-0.450701
-0.320585
-0.259358
-0.216831
-0.175069
-0.127048
-0.0805447
-0.0397038
-0.0211779
-0.0204304
-0.0400111
-0.0766378
-0.0341462
-12.3456
-10.0716
-6.56454
-3.4992
-1.72633
-1.01886
-0.698038
-0.477921
-0.345928
-0.278082
-0.231057
-0.185843
-0.136688
-0.0899177
-0.0499034
-0.0296146
-0.0265288
-0.040019
-0.0684475
-0.0277482
-8.51446
-7.40373
-5.20622
-3.01631
-1.58875
-0.954256
-0.680086
-0.49651
-0.370119
-0.296761
-0.245354
-0.197047
-0.146915
-0.0999871
-0.0606319
-0.0385136
-0.0327488
-0.0402669
-0.0603794
-0.0218549
-5.95561
-5.19269
-3.83741
-2.48395
-1.50165
-0.953666
-0.678572
-0.509133
-0.390979
-0.314619
-0.25922
-0.208306
-0.15741
-0.110434
-0.0715413
-0.0476304
-0.0389231
-0.0407674
-0.052781
-0.0167345
-4.15275
-3.66253
-2.9281
-2.12269
-1.40542
-0.914798
-0.652077
-0.506649
-0.405005
-0.329968
-0.271628
-0.218838
-0.167608
-0.120784
-0.0821819
-0.0565924
-0.04482
-0.0414724
-0.0459999
-0.0125892
-3.08755
-2.75383
-2.28208
-1.73621
-1.2342
-0.87157
-0.651915
-0.516307
-0.417574
-0.341414
-0.28106
-0.227573
-0.176711
-0.130338
-0.0919156
-0.0648425
-0.0501204
-0.0422861
-0.0403762
-0.00953249
-2.53514
-2.2502
-1.90253
-1.52539
-1.1674
-0.869292
-0.653163
-0.510783
-0.414722
-0.343611
-0.285804
-0.233602
-0.183816
-0.138128
-0.0998391
-0.0715916
-0.0543777
-0.0430653
-0.0362146
-0.00758136
-2.2883
-2.02502
-1.73413
-1.42355
-1.11664
-0.849211
-0.648092
-0.512293
-0.419567
-0.349276
-0.290666
-0.237911
-0.188326
-0.14298
-0.104719
-0.075749
-0.0569435
-0.0435967
-0.0337851
-0.00668702
-42.3279
-41.4141
-40.5004
-39.7405
-38.9664
-38.0927
-36.8011
-35.2963
-33.7352
-34.4677
-29.6959
-28.4895
-27.2804
-26.2524
-25.1639
-24.0758
-22.7809
-21.9634
-21.7616
-23.5832
-19.2675
-18.2898
-17.3785
-16.6567
-16.0682
-15.7178
-15.6213
-15.9428
-16.4804
-17.4681
-12.729
-12.2678
-11.922
-11.7396
-11.695
-11.7645
-11.8207
-11.7595
-11.5458
-11.641
-9.06576
-8.90261
-8.78911
-8.6937
-8.56372
-8.36272
-8.07528
-7.78748
-7.64721
-7.84791
-6.46504
-6.33696
-6.20602
-6.05612
-5.89269
-5.74566
-5.65136
-5.63166
-5.67531
-5.76975
-4.65375
-4.5765
-4.50655
-4.44323
-4.38991
-4.34727
-4.3084
-4.26092
-4.20598
-4.16498
-3.63941
-3.60151
-3.56065
-3.51486
-3.46295
-3.40469
-3.3416
-3.27684
-3.21709
-3.16694
-3.0765
-3.04795
-3.01352
-2.97372
-2.92928
-2.88112
-2.83013
-2.77675
-2.72169
-2.6651
-2.82946
-2.8052
-2.77515
-2.73966
-2.69912
-2.65389
-2.60442
-2.55115
-2.49464
-2.43545
-46.8217
-49.6068
-45.7225
-44.984
-45.3169
-45.0154
-44.3975
-43.9137
-43.5122
-43.0538
-41.1085
-41.0512
-35.9093
-33.7855
-33.8834
-33.693
-32.9097
-32.1167
-31.4354
-30.709
-32.3323
-30.4041
-24.8169
-22.44
-22.5755
-22.8412
-22.4106
-21.6696
-20.9268
-20.1689
-22.474
-20.5122
-15.954
-13.9339
-14.1705
-14.8004
-14.8363
-14.3877
-13.8076
-13.2534
-14.6817
-13.5036
-10.5489
-9.06926
-9.20971
-9.83852
-10.12
-9.96288
-9.62373
-9.30501
-9.37645
-8.92249
-7.35054
-6.41473
-6.38537
-6.74731
-6.99275
-6.97577
-6.80632
-6.61849
-5.89636
-5.82787
-5.20311
-4.75703
-4.6772
-4.79821
-4.90692
-4.91262
-4.83954
-4.74288
-3.88173
-3.94923
-3.8124
-3.68806
-3.65575
-3.68562
-3.72013
-3.72767
-3.70852
-3.67587
-2.96296
-3.05517
-3.07715
-3.07686
-3.08351
-3.09894
-3.11331
-3.11879
-3.11342
-3.09869
-2.64629
-2.74935
-2.80178
-2.8232
-2.83668
-2.84944
-2.85924
-2.86282
-2.85886
-2.84753
1.08912
1.02158
0.855378
0.519097
-0.111521
-1.25662
-3.00864
-6.65645
-13.3009
-29.0679
0.858923
0.785188
0.611877
0.263135
-0.377629
-1.56714
-3.43391
-7.10958
-13.422
-26.8579
0.612634
0.536722
0.368933
0.0294434
-0.562748
-1.71423
-3.44274
-6.7528
-11.8158
-21.6983
0.356011
0.278056
0.123287
-0.195651
-0.69895
-1.73337
-3.1365
-5.80379
-9.56001
-16.1547
0.097555
0.0169067
-0.119964
-0.413479
-0.807103
-1.67031
-2.70632
-4.59135
-7.19115
-11.084
-0.151118
-0.235032
-0.349101
-0.608454
-0.903847
-1.54367
-2.2971
-3.44821
-5.07954
-7.27425
-0.381597
-0.459198
-0.554216
-0.755902
-0.994894
-1.41017
-1.9521
-2.6157
-3.5728
-4.80003
-0.585804
-0.640355
-0.72263
-0.86203
-1.06132
-1.32465
-1.70441
-2.12203
-2.6909
-3.36121
-0.742106
-0.773878
-0.842198
-0.942348
-1.10059
-1.2886
-1.55662
-1.85345
-2.22892
-2.65319
-0.829299
-0.851335
-0.907696
-0.991265
-1.11963
-1.27628
-1.48391
-1.72115
-2.00896
-2.3552
2.58861
2.5575
2.46484
2.23917
1.78631
0.969209
-0.471172
-2.83736
-8.73968
-23.7078
2.42455
2.38933
2.2876
2.05098
1.58002
0.756761
-0.716841
-3.0574
-8.54715
-23.3741
2.26422
2.22514
2.1148
1.86808
1.3783
0.546812
-0.962431
-3.33391
-8.44926
-23.1497
2.10796
2.0653
1.94688
1.69075
1.18195
0.339729
-1.19923
-3.66363
-8.51281
-23.2067
1.95603
1.91011
1.78422
1.51914
0.991807
0.134144
-1.41981
-4.02915
-8.62926
-23.3511
1.80864
1.75977
1.6271
1.35323
0.808669
-0.072662
-1.62269
-4.43013
-8.85607
-23.5267
1.66592
1.61444
1.47575
1.19293
0.633178
-0.282602
-1.80658
-4.83693
-9.14302
-23.4144
1.528
1.47427
1.33029
1.03814
0.465568
-0.496635
-1.9888
-5.22688
-9.76072
-23.3213
1.39491
1.33945
1.1909
0.88838
0.303762
-0.711454
-2.19459
-5.553
-10.5846
-23.4422
1.26606
1.20877
1.05678
0.744203
0.143999
-0.930945
-2.48269
-5.95224
-11.9332
-25.5671
4.3078
4.3233
4.34296
4.2797
3.97206
3.30888
1.83328
-2.63569
-12.6331
-27.7844
4.13975
4.1475
4.14877
4.0523
3.67525
2.85603
1.27621
-3.08671
-13.3742
-28.875
3.96927
3.97233
3.96011
3.84492
3.46214
2.65561
1.30884
-2.15752
-10.8999
-25.6017
3.79659
3.79595
3.77344
3.64724
3.28391
2.54381
1.41919
-1.33544
-9.09041
-24.2394
3.62235
3.61779
3.58565
3.44839
3.09581
2.38298
1.2941
-1.26835
-8.84254
-24.3452
3.44739
3.43858
3.39641
3.24487
2.88475
2.14946
0.958247
-1.67591
-9.15654
-24.4284
3.27254
3.25929
3.20671
3.03857
2.65965
1.8861
0.577724
-2.09863
-9.29336
-24.2307
3.09856
3.08078
3.01774
2.83291
2.4332
1.63338
0.257996
-2.36208
-9.22323
-24.0561
2.92615
2.90384
2.83055
2.63045
2.21202
1.40189
0.000911349
-2.52181
-9.08984
-23.9856
2.75598
2.72919
2.64602
2.4324
1.99679
1.18338
-0.233341
-2.66585
-8.94206
-23.9372
7.07628
7.10354
7.1556
7.22653
7.30483
7.37866
7.43969
7.48271
7.50328
7.49426
6.97029
7.00611
7.07468
7.16828
7.27302
7.37442
7.46232
7.53167
7.57489
7.57257
6.78069
6.82904
6.92142
7.04743
7.18962
7.33068
7.45581
7.55508
7.62544
7.66441
6.52134
6.58168
6.69725
6.85631
7.03688
7.2075
7.33251
7.40448
7.44322
7.46224
6.20966
6.27714
6.40413
6.57347
6.75917
6.9333
7.0559
7.02557
6.77401
6.55374
5.86662
5.93575
6.06517
6.23675
6.42733
6.58037
6.52254
6.0142
5.11605
4.52226
5.51326
5.5784
5.69726
5.84176
5.98673
6.07335
5.80557
4.66752
2.71679
1.12969
5.16679
5.22316
5.32333
5.42571
5.50082
5.51001
5.01025
3.00159
-0.613547
-4.07174
4.83976
4.88369
4.95736
5.00335
4.96526
4.82662
4.07843
1.13587
-4.46152
-10.3988
4.53875
4.56962
4.61581
4.60328
4.42944
4.06237
2.98619
-0.879949
-8.77164
-18.9448
7.46887
7.455
7.43707
7.41598
7.39182
7.36445
7.33381
7.29992
7.26284
7.22264
7.54241
7.52044
7.49247
7.46278
7.43106
7.39664
7.35945
7.3197
7.27761
7.23339
7.70237
7.68042
7.64526
7.60785
7.56785
7.52475
7.47867
7.42975
7.37803
7.32354
7.57581
7.55623
7.52932
7.49736
7.46096
7.41891
7.36949
7.31231
7.24774
7.17593
6.79974
6.8376
6.85548
6.84619
6.80686
6.73897
6.6495
6.54793
6.43863
6.31908
5.08393
5.25218
5.2395
5.14601
5.02126
4.90502
4.79225
4.67603
4.53443
4.35198
1.8181
2.04904
1.98751
1.95715
1.931
1.8991
1.79197
1.5999
1.2871
0.867658
-3.44427
-2.69298
-2.44956
-2.33859
-2.47991
-2.73482
-3.13832
-3.65366
-4.35241
-5.17667
-9.63663
-8.37877
-8.55903
-8.9946
-9.73764
-10.3675
-11.0698
-11.8188
-12.7789
-13.8456
-19.1129
-18.2043
-18.9349
-19.5594
-20.2519
-20.7415
-21.314
-21.9581
-22.8153
-23.7686
7.17941
7.13324
7.08427
7.03262
6.97844
6.92189
6.86314
6.8024
6.73994
6.67492
7.18725
7.13938
7.0898
7.03839
6.98497
6.92947
6.87201
6.81302
6.75139
6.6742
7.26619
7.20575
7.14182
7.07426
7.00314
6.92812
6.84764
6.7583
6.65228
6.52125
7.0951
7.00264
6.90021
6.7988
6.71065
6.62332
6.48204
6.22884
5.90473
5.72745
6.17697
5.99988
5.79761
5.62559
5.55009
5.5254
5.30008
4.5881
3.55158
3.20442
4.10871
3.7882
3.40158
3.05348
2.91627
2.97562
2.70975
1.33787
-1.02375
-1.96552
0.365634
-0.208477
-0.876009
-1.55743
-1.99768
-2.04991
-2.374
-4.38365
-8.26918
-9.91565
-6.02898
-6.85905
-7.75761
-8.76291
-9.66187
-10.0808
-10.5037
-12.8259
-17.6645
-19.4467
-14.8801
-15.8052
-16.7578
-17.8625
-19.0646
-19.9123
-20.391
-22.3495
-26.9688
-27.9372
-24.7028
-25.5413
-26.3936
-27.3458
-28.4665
-29.4909
-30.0059
-30.9136
-34.2226
-34.27
6.48182
6.10323
5.74217
5.05411
4.17511
3.3106
2.54326
1.88354
1.33227
0.891483
0.566686
0.346611
0.227082
0.173105
0.180347
0.186365
0.150755
0.0868905
-0.0778236
-0.135325
6.3857
5.99101
5.68398
4.75777
3.85349
3.05118
2.33404
1.70483
1.18149
0.771127
0.475532
0.278859
0.180172
0.142258
0.165839
0.184946
0.158512
0.0943565
-0.102687
-0.162302
6.14378
5.69382
5.34176
4.28666
3.45176
2.71979
2.05417
1.47123
0.99405
0.627692
0.370031
0.203917
0.130233
0.113239
0.157285
0.185347
0.164918
0.0881254
-0.144612
-0.190205
5.61712
5.19635
4.68001
3.83863
3.05469
2.3782
1.77663
1.25461
0.830726
0.508626
0.285825
0.147556
0.0958632
0.0966294
0.152379
0.180393
0.162458
0.0653535
-0.185513
-0.207362
4.01433
4.11277
3.60833
3.28391
2.58694
2.01925
1.50896
1.05734
0.688088
0.40796
0.216813
0.103367
0.0700298
0.083936
0.145186
0.169747
0.152227
0.0361913
-0.214603
-0.212925
0.31956
2.02424
2.09578
2.45597
2.05919
1.65912
1.25812
0.880111
0.563756
0.322222
0.159308
0.0673923
0.0492838
0.0727876
0.136093
0.156042
0.138004
0.00940828
-0.230471
-0.209725
-5.38034
-1.05332
0.320007
1.4345
1.50997
1.31788
1.03083
0.724778
0.457795
0.250756
0.112371
0.0385482
0.0326108
0.0626064
0.125874
0.141438
0.122918
-0.0113158
-0.235693
-0.201311
-12.0844
-4.6764
-1.46821
0.443503
0.984665
1.00379
0.826674
0.588345
0.366867
0.190746
0.0737813
0.0151131
0.0187662
0.0530365
0.115297
0.127435
0.108825
-0.0257445
-0.233785
-0.190573
-18.063
-7.74316
-2.80484
-0.265489
0.568888
0.741807
0.652899
0.470978
0.288877
0.139757
0.0413871
-0.00452932
0.00683777
0.0441061
0.105125
0.114823
0.0964216
-0.0352089
-0.227856
-0.179338
-20.4402
-8.75393
-3.3026
-0.482576
0.331856
0.564033
0.526406
0.380302
0.227473
0.099529
0.0161089
-0.0198221
-0.00278488
0.0362153
0.0957198
0.10343
0.0854235
-0.0414758
-0.220051
-0.168479
-18.0008
-7.76496
-3.25014
-0.342315
0.285787
0.492415
0.474844
0.339964
0.200337
0.0824665
0.00625163
-0.0255254
-0.00724951
0.0307818
0.0880017
0.0941639
0.0768806
-0.0448888
-0.212567
-0.159848
-17.0054
-6.5799
-3.39227
-0.409175
0.207799
0.383493
0.400069
0.284799
0.162988
0.0586901
-0.00775489
-0.0329582
-0.0111822
0.0278612
0.0836799
0.0883877
0.0707529
-0.0477521
-0.207593
-0.153681
-18.166
-5.95239
-3.56842
-0.638289
0.143448
0.282732
0.328983
0.232083
0.12571
0.0340644
-0.0227666
-0.0410279
-0.0152696
0.0251881
0.0795824
0.0828535
0.0646565
-0.0504028
-0.202488
-0.147432
-19.7281
-5.7665
-3.59541
-0.955216
0.0593433
0.187502
0.25903
0.183362
0.091957
0.0120918
-0.0361314
-0.0483799
-0.0193591
0.0221091
0.0750783
0.0772581
0.058784
-0.0523499
-0.196911
-0.14107
-21.2544
-6.05849
-3.53485
-1.26909
-0.0477722
0.103299
0.1918
0.137638
0.0605663
-0.00814266
-0.0483905
-0.0552606
-0.0235228
0.0186328
0.0702069
0.0716171
0.05313
-0.053666
-0.190929
-0.134629
-22.5418
-6.56857
-3.46641
-1.53828
-0.181936
0.025513
0.127578
0.0944875
0.0311065
-0.0271383
-0.0599741
-0.0619293
-0.027827
0.0148399
0.0650791
0.0659964
0.0476922
-0.0544543
-0.184657
-0.128159
-23.8333
-7.29312
-3.46251
-1.7528
-0.334245
-0.0494714
0.0666057
0.0536466
0.00344085
-0.045
-0.0709782
-0.0684597
-0.0322983
0.010758
0.0597477
0.0604346
0.0424847
-0.0547763
-0.178176
-0.121706
-25.2679
-8.19191
-3.55153
-1.92092
-0.494791
-0.12479
0.00869951
0.0148678
-0.0225946
-0.0618226
-0.0814595
-0.0748868
-0.0369488
0.00640254
0.0542475
0.0549565
0.0375187
-0.0546879
-0.171552
-0.11531
-26.9815
-9.35613
-3.77509
-2.06627
-0.656319
-0.202208
-0.0465918
-0.0220844
-0.0471854
-0.0777266
-0.0914937
-0.081251
-0.0417853
0.00179643
0.0486155
0.0495821
0.0327982
-0.0542509
-0.16485
-0.109008
-28.8068
-10.6915
-4.13975
-2.21638
-0.81743
-0.283034
-0.0999465
-0.0574531
-0.0705188
-0.0928334
-0.101157
-0.08759
-0.0468088
-0.00303227
0.0428883
0.0443278
0.0283218
-0.0535289
-0.158135
-0.102834
)
;

boundaryField
{
    inlet
    {
        type            freestreamPressure;
        freestreamValue uniform 0;
        supersonic      false;
        value           nonuniform List<scalar> 
40
(
1.08912
0.858923
0.612634
0.356011
0.097555
-0.151118
-0.381597
-0.585804
-0.742106
-0.829299
2.58861
2.42455
2.26422
2.10796
1.95603
1.80864
1.66592
1.528
1.39491
1.26606
4.3078
4.13975
3.96927
3.79659
3.62235
3.44739
3.27254
3.09856
2.92615
2.75598
7.07628
6.97029
6.78069
6.52134
6.20966
5.86662
5.51326
5.16679
4.83976
4.53875
)
;
    }
    outlet
    {
        type            freestreamPressure;
        freestreamValue uniform 0;
        supersonic      false;
        value           nonuniform List<scalar> 
40
(
-0.00295758
-0.00227619
-0.00164712
-0.00110863
-0.000685952
-0.000384091
-0.000190318
-8.00386e-05
-2.50634e-05
-2.62819e-06
-0.00788706
-0.00751274
-0.00706754
-0.00657311
-0.00605014
-0.005517
-0.00498913
-0.0044789
-0.00399505
-0.00354108
-0.00546013
-0.00609693
-0.00670621
-0.00725502
-0.00771601
-0.00806705
-0.00829202
-0.00838256
-0.00833881
-0.00816883
-1.55515e-07
-4.18632e-06
-2.66837e-05
-0.00010768
-0.000318397
-0.000739223
-0.00142357
-0.00236228
-0.00346596
-0.00459776
)
;
    }
    top
    {
        type            symmetryPlane;
    }
    bottom
    {
        type            symmetryPlane;
    }
    cylinder
    {
        type            zeroGradient;
    }
    frontandback
    {
        type            empty;
    }
}


// ************************************************************************* //
