/*--------------------------------*- C++ -*----------------------------------*\
  =========                 |
  \\      /  F ield         | OpenFOAM: The Open Source CFD Toolbox
   \\    /   O peration     | Website:  https://openfoam.org
    \\  /    A nd           | Version:  6.0
     \\/     M anipulation  |
\*---------------------------------------------------------------------------*/
FoamFile
{
    version     2.0;
    format      ascii;
    class       volScalarField;
    location    "3";
    object      p;
}
// * * * * * * * * * * * * * * * * * * * * * * * * * * * * * * * * * * * * * //

dimensions      [0 2 -2 0 0 0 0];

internalField   nonuniform List<scalar> 
2400
(
-28.2279
-19.8965
-14.853
-11.4368
-8.81856
-6.83991
-5.3613
-4.24592
-3.39262
-2.7573
-28.5105
-20.1477
-15.0672
-11.6197
-8.97871
-6.98447
-5.4951
-4.37165
-3.51167
-2.87198
-28.797
-20.3977
-15.28
-11.8028
-9.14073
-7.13249
-5.63384
-4.50362
-3.63825
-2.99543
-29.0856
-20.6463
-15.4903
-11.9841
-9.30234
-7.28161
-5.77516
-4.63961
-3.77045
-3.12627
-29.3728
-20.8913
-15.6963
-12.1616
-9.46131
-7.42922
-5.91606
-4.77635
-3.90495
-3.26108
-29.655
-21.1291
-15.8949
-12.3327
-9.615
-7.57273
-6.05381
-4.91071
-4.03781
-3.39458
-29.9305
-21.3569
-16.0823
-12.4933
-9.75974
-7.70918
-6.18638
-5.04131
-4.16756
-3.52515
-30.1999
-21.573
-16.2547
-12.6382
-9.88933
-7.83185
-6.30738
-5.1633
-4.29327
-3.66114
-30.462
-21.776
-16.4103
-12.764
-9.99763
-7.93028
-6.4008
-5.25674
-4.39865
-3.79995
-30.7019
-21.9625
-16.5509
-12.8735
-10.0863
-8.00232
-6.45659
-5.2992
-4.443
-3.86056
-31.6385
-31.6895
-31.6949
-31.662
-31.5939
-31.4959
-31.3718
-31.2266
-31.0657
-30.8923
-22.5475
-22.6224
-22.6616
-22.6632
-22.6311
-22.5715
-22.4879
-22.3836
-22.2626
-22.124
-16.924
-17.0044
-17.0533
-17.0673
-17.0519
-17.0126
-16.9525
-16.8752
-16.7837
-16.6765
-13.18
-13.2502
-13.2911
-13.3016
-13.2865
-13.2507
-13.1987
-13.1336
-13.0576
-12.9712
-10.4013
-10.456
-10.4833
-10.4839
-10.462
-10.4223
-10.369
-10.3059
-10.2374
-10.1645
-8.35265
-8.39237
-8.40632
-8.39594
-8.365
-8.31791
-8.25928
-8.19361
-8.12811
-8.06359
-6.84638
-6.87358
-6.87612
-6.85576
-6.81583
-6.76044
-6.69455
-6.62402
-6.55894
-6.49912
-5.72176
-5.73936
-5.73304
-5.70464
-5.65683
-5.59346
-5.51969
-5.44284
-5.37704
-5.32009
-4.86571
-4.87674
-4.86464
-4.83121
-4.77833
-4.7093
-4.6285
-4.54445
-4.47745
-4.4306
-4.21317
-4.21637
-4.19817
-4.16013
-4.10336
-4.03039
-3.94316
-3.84923
-3.76777
-3.73373
-28.2657
-28.7937
-29.2838
-29.7397
-30.1559
-30.5276
-30.8502
-31.1219
-31.3447
-31.5188
-19.3637
-19.848
-20.306
-20.7313
-21.12
-21.4692
-21.7754
-22.037
-22.2557
-22.4279
-14.0572
-14.4904
-14.9017
-15.2833
-15.6314
-15.944
-16.219
-16.4553
-16.6537
-16.8107
-10.6491
-11.0358
-11.4022
-11.7414
-12.0493
-12.3244
-12.5655
-12.7722
-12.9446
-13.0805
-8.16822
-8.51767
-8.84743
-9.15092
-9.4243
-9.66662
-9.87752
-10.0568
-10.2042
-10.3188
-6.36376
-6.68601
-6.98795
-7.26232
-7.50706
-7.72238
-7.90814
-8.06419
-8.19037
-8.28631
-5.04802
-5.35343
-5.63527
-5.88582
-6.10708
-6.3006
-6.46614
-6.60355
-6.71268
-6.79347
-4.06488
-4.35925
-4.62818
-4.86077
-5.0637
-5.24019
-5.39018
-5.51344
-5.60977
-5.67911
-3.32843
-3.60397
-3.86054
-4.08095
-4.27022
-4.43285
-4.5703
-4.68265
-4.76942
-4.83039
-2.8727
-3.11337
-3.33072
-3.53259
-3.70471
-3.8477
-3.96695
-4.06386
-4.13753
-4.18731
-0.117382
-0.525085
-1.11633
-1.92113
-3.02587
-4.55777
-6.66788
-9.56854
-14.2099
-22.4055
-0.350209
-0.770796
-1.37155
-2.18817
-3.3087
-4.86241
-7.00357
-9.94808
-14.649
-22.9102
-0.597364
-1.03234
-1.64392
-2.47399
-3.61217
-5.18977
-7.36464
-10.3564
-15.1187
-23.444
-0.857321
-1.30771
-1.93104
-2.77584
-3.93308
-5.53606
-7.74625
-10.7878
-15.6154
-24.0086
-1.12895
-1.59521
-2.23072
-3.09116
-4.26861
-5.89828
-8.14523
-11.238
-16.1337
-24.5977
-1.4113
-1.89293
-2.54035
-3.41693
-4.61545
-6.27291
-8.55797
-11.7032
-16.6683
-25.2041
-1.70327
-2.19869
-2.85694
-3.74969
-4.96985
-6.65599
-8.98007
-12.179
-17.2138
-25.8213
-2.00157
-2.50693
-3.17441
-4.08387
-5.32669
-7.04236
-9.40616
-12.6596
-17.7638
-26.4425
-2.30204
-2.81233
-3.48743
-4.41489
-5.68137
-7.42669
-9.83049
-13.1382
-18.313
-27.0634
-2.58122
-3.08801
-3.78197
-4.73593
-6.02864
-7.80397
-10.247
-13.6069
-18.8509
-27.6766
0.978779
0.632649
0.0877601
-0.672874
-1.71606
-3.15296
-5.10984
-7.76055
-12.0184
-19.7498
0.972433
0.62052
0.0714495
-0.6851
-1.72222
-3.15445
-5.10973
-7.76365
-12.0312
-19.7788
0.969356
0.605224
0.0485288
-0.710942
-1.74959
-3.18378
-5.14348
-7.80687
-12.0896
-19.8543
0.931963
0.563946
0.00367111
-0.759272
-1.80209
-3.24182
-5.21042
-7.88922
-12.196
-19.9883
0.860169
0.490969
-0.0713571
-0.837363
-1.88489
-3.33184
-5.31233
-8.01145
-12.3502
-20.1801
0.758885
0.38755
-0.177144
-0.946697
-1.99989
-3.45575
-5.45084
-8.1744
-12.551
-20.426
0.630233
0.255181
-0.312557
-1.08654
-2.14676
-3.61355
-5.62615
-8.37803
-12.7975
-20.724
0.475792
0.0953862
-0.476274
-1.25579
-2.32457
-3.80444
-5.83746
-8.62173
-13.0896
-21.073
0.297921
-0.0896385
-0.666398
-1.45279
-2.53179
-4.02693
-6.08323
-8.90377
-13.4258
-21.4721
0.099302
-0.297372
-0.880646
-1.67544
-2.76643
-4.27895
-6.36105
-9.2207
-13.8013
-21.9187
1.06152
1.04552
0.97156
0.86152
0.72139
0.557116
0.373785
0.177381
-0.0260143
-0.230704
0.649833
0.622283
0.550643
0.440753
0.298976
0.131644
-0.0557244
-0.25705
-0.466301
-0.677887
0.0914453
0.0516136
-0.0261183
-0.140356
-0.286382
-0.4586
-0.65148
-0.859075
-1.07557
-1.29565
-0.681259
-0.728961
-0.813329
-0.933244
-1.08478
-1.26306
-1.46271
-1.67797
-1.90321
-2.13336
-1.73652
-1.79258
-1.88466
-2.01188
-2.17088
-2.35725
-2.56584
-2.79106
-3.02743
-3.27009
-3.18297
-3.2478
-3.34871
-3.48485
-3.65334
-3.8501
-4.07019
-4.30813
-4.55857
-4.81684
-5.14599
-5.21809
-5.32737
-5.47285
-5.65195
-5.86083
-6.09466
-6.34804
-6.61568
-6.89307
-7.7977
-7.87242
-7.98654
-8.13943
-8.32855
-8.55002
-8.79901
-9.07026
-9.35853
-9.65907
-12.0447
-12.1118
-12.2235
-12.3797
-12.5768
-12.8106
-13.0759
-13.3679
-13.6814
-14.009
-19.7429
-19.7885
-19.8909
-20.0458
-20.2483
-20.4927
-20.774
-21.0879
-21.4285
-21.7819
-0.431898
-0.626007
-0.8115
-0.987958
-1.15546
-1.31268
-1.45458
-1.57212
-1.65648
-1.72063
-0.88706
-1.08996
-1.28467
-1.47012
-1.64572
-1.81069
-1.96221
-2.09001
-2.18056
-2.26817
-1.51469
-1.72863
-1.93528
-2.13308
-2.321
-2.49809
-2.66211
-2.80566
-2.92269
-3.03908
-2.36383
-2.59027
-2.8103
-3.02198
-3.22392
-3.41475
-3.59198
-3.75108
-3.89291
-4.03493
-3.51442
-3.75575
-3.99154
-4.21959
-4.43825
-4.64576
-4.83956
-5.01737
-5.18287
-5.3471
-5.07824
-5.33778
-5.5928
-5.84086
-6.08011
-6.3085
-6.52384
-6.72532
-6.91645
-7.10377
-7.17541
-7.45706
-7.7353
-8.00756
-8.27178
-8.52587
-8.76804
-8.99802
-9.2184
-9.43312
-9.96618
-10.2733
-10.5782
-10.8783
-11.1714
-11.4553
-11.7287
-11.9916
-12.2458
-12.4937
-14.3409
-14.6735
-15.0056
-15.3349
-15.6584
-15.9738
-16.2803
-16.5794
-16.8725
-17.1573
-22.1273
-22.478
-22.8329
-23.1872
-23.5372
-23.8803
-24.2166
-24.5499
-24.8812
-25.1974
-25.4733
-17.4264
-12.7338
-9.64177
-7.28718
-5.51223
-4.18863
-3.19319
-2.44717
-1.92053
-25.7417
-17.6822
-12.9623
-9.84025
-7.46027
-5.66596
-4.32954
-3.33061
-2.5912
-2.06078
-26.0095
-17.9305
-13.1819
-10.0297
-7.62375
-5.80884
-4.4569
-3.44596
-2.69158
-2.13739
-26.277
-18.1745
-13.3947
-10.2113
-7.7783
-5.94157
-4.57223
-3.5462
-2.77488
-2.20218
-26.5446
-18.4159
-13.6027
-10.3871
-7.92648
-6.06725
-4.67947
-3.63718
-2.84922
-2.26203
-26.814
-18.6564
-13.8082
-10.5596
-8.07122
-6.18968
-4.78396
-3.72646
-2.92403
-2.32524
-27.088
-18.8984
-14.0133
-10.7311
-8.21516
-6.31192
-4.88916
-3.81762
-3.00238
-2.39394
-27.3701
-19.1443
-14.2198
-10.9035
-8.36054
-6.4366
-4.99801
-3.91377
-3.08722
-2.47047
-27.6595
-19.3941
-14.4286
-11.0782
-8.50898
-6.5655
-5.11233
-4.0166
-3.18002
-2.55614
-27.9497
-19.6454
-14.6394
-11.2557
-8.66155
-6.69987
-5.23337
-4.12727
-3.2818
-2.65178
-1.35201
-0.668273
-0.398223
-0.243058
-0.156889
-0.10126
-0.0606971
-0.0328552
-0.0158672
-0.00725144
-0.00342565
-0.00185096
-0.00115731
-0.000790985
-0.000573666
-0.000439153
-0.000345371
-0.000254153
-0.000162404
-3.84938e-05
-1.46791
-0.70622
-0.417668
-0.249738
-0.157862
-0.100718
-0.0610275
-0.0344019
-0.0180905
-0.00956614
-0.00551016
-0.00358469
-0.00252762
-0.00183354
-0.00133862
-0.000981212
-0.000710682
-0.000483908
-0.000287701
-6.99631e-05
-1.59679
-0.755934
-0.442572
-0.260945
-0.161826
-0.102153
-0.0625256
-0.0365917
-0.0206633
-0.0120661
-0.0076884
-0.00536303
-0.00391887
-0.00288611
-0.00210908
-0.00152447
-0.00107622
-0.000712709
-0.000411343
-0.000101501
-1.73893
-0.817721
-0.472865
-0.276636
-0.16886
-0.105606
-0.0652153
-0.039428
-0.0235788
-0.0147447
-0.00995634
-0.00718419
-0.00533012
-0.00394819
-0.00288404
-0.00206935
-0.00144182
-0.000940957
-0.000534382
-0.00013315
-1.88944
-0.887984
-0.506843
-0.296119
-0.17881
-0.111027
-0.0690873
-0.0429067
-0.0268298
-0.0175956
-0.0123106
-0.00904701
-0.00676095
-0.00501924
-0.00366299
-0.00261575
-0.00180781
-0.00116914
-0.000657303
-0.000165196
-2.03793
-0.963073
-0.543702
-0.318895
-0.191459
-0.118281
-0.0740755
-0.0469951
-0.0303955
-0.0206063
-0.0147446
-0.0109488
-0.00821007
-0.00609833
-0.00444526
-0.00316353
-0.00217444
-0.00139765
-0.000780513
-0.000197877
-2.19168
-1.05786
-0.59187
-0.347899
-0.207768
-0.127652
-0.0802533
-0.0517025
-0.0342628
-0.0237596
-0.0172443
-0.0128794
-0.00967083
-0.00718135
-0.0052284
-0.00371128
-0.00254097
-0.00162618
-0.000903924
-0.000231266
-2.40709
-1.21009
-0.66842
-0.389993
-0.230808
-0.140601
-0.0883222
-0.0573607
-0.0385729
-0.0271034
-0.019817
-0.0148327
-0.0111349
-0.00826142
-0.00600765
-0.00425599
-0.00290566
-0.00185385
-0.0010272
-0.00026535
-2.68996
-1.40011
-0.761197
-0.440576
-0.259732
-0.157346
-0.0987212
-0.0643867
-0.0436329
-0.0308314
-0.0225752
-0.0168713
-0.0126368
-0.00935761
-0.00679336
-0.00480307
-0.00327116
-0.00208184
-0.00115079
-0.000300385
-2.72317
-1.45226
-0.786719
-0.46111
-0.276297
-0.168703
-0.106843
-0.0706553
-0.0486264
-0.0347523
-0.0255754
-0.0191166
-0.0142894
-0.0105539
-0.00764116
-0.00538623
-0.00365644
-0.00231946
-0.0012787
-0.00033783
-2.34604
-1.34183
-0.725749
-0.435289
-0.267683
-0.164781
-0.105472
-0.0716844
-0.0514887
-0.0384587
-0.0292597
-0.0222919
-0.0168019
-0.0124329
-0.00898607
-0.00630876
-0.00426016
-0.00268545
-0.00147238
-0.000395482
-1.99304
-1.25725
-0.713226
-0.439224
-0.281207
-0.178895
-0.11736
-0.0815087
-0.0595809
-0.0450171
-0.0344531
-0.0262958
-0.0198096
-0.0146362
-0.0105583
-0.00739609
-0.00498221
-0.00313269
-0.00171309
-0.000464837
-1.66401
-1.1475
-0.694293
-0.438958
-0.292734
-0.194659
-0.131818
-0.0935751
-0.0693304
-0.0526927
-0.0403773
-0.0307861
-0.0231504
-0.017072
-0.0122937
-0.00859755
-0.0057822
-0.00363051
-0.00198166
-0.000542283
-1.37609
-1.02778
-0.67295
-0.441428
-0.304219
-0.211102
-0.147726
-0.107055
-0.0803495
-0.0614715
-0.047203
-0.0359742
-0.0270081
-0.0198773
-0.0142855
-0.00997169
-0.0066942
-0.00419658
-0.00228586
-0.000630629
-1.13536
-0.902408
-0.63902
-0.441196
-0.314751
-0.227656
-0.165109
-0.122244
-0.0928383
-0.0714372
-0.0549465
-0.0418461
-0.0313607
-0.0230317
-0.0165175
-0.0115068
-0.00771042
-0.00482622
-0.0026231
-0.000728993
-0.936063
-0.783289
-0.596759
-0.437576
-0.324397
-0.243544
-0.182975
-0.1386
-0.106496
-0.082379
-0.0634506
-0.0482834
-0.0361199
-0.0264711
-0.0189444
-0.013172
-0.0088105
-0.00550699
-0.00298665
-0.000835363
-0.778433
-0.67904
-0.550876
-0.428938
-0.331668
-0.257625
-0.19986
-0.154942
-0.12054
-0.0937668
-0.0723547
-0.0550394
-0.0411143
-0.0300754
-0.0214827
-0.0149102
-0.00995666
-0.00621534
-0.00336384
-0.000946036
-0.660054
-0.594497
-0.507319
-0.416505
-0.335658
-0.268934
-0.214374
-0.169792
-0.133794
-0.104725
-0.0810147
-0.0616512
-0.046015
-0.0336133
-0.023972
-0.0166124
-0.0110773
-0.00690697
-0.00373107
-0.00105408
-0.578508
-0.533021
-0.471962
-0.403534
-0.336601
-0.276754
-0.225299
-0.181546
-0.144709
-0.113964
-0.0884145
-0.0673494
-0.0502594
-0.0366836
-0.026133
-0.0180895
-0.0120488
-0.00750591
-0.00404808
-0.00114764
-0.534305
-0.498487
-0.450761
-0.394644
-0.336174
-0.28089
-0.231556
-0.188525
-0.15139
-0.119737
-0.0930934
-0.0709819
-0.0529801
-0.038658
-0.0275249
-0.0190415
-0.0126749
-0.00789193
-0.00425131
-0.0012078
-3.40681
-3.38328
-3.34201
-3.28417
-3.20983
-3.1203
-3.01277
-2.89271
-2.7491
-2.66021
-2.62775
-2.59858
-2.55812
-2.50803
-2.44938
-2.38441
-2.31389
-2.24596
-2.17787
-2.14917
-2.06386
-2.04313
-2.01701
-1.98704
-1.9543
-1.91996
-1.8839
-1.84756
-1.80589
-1.77611
-1.62452
-1.61303
-1.59816
-1.58046
-1.56012
-1.53729
-1.51184
-1.48485
-1.45611
-1.43703
-1.28345
-1.27801
-1.26998
-1.2597
-1.24752
-1.23384
-1.21906
-1.20386
-1.18802
-1.17628
-1.02489
-1.02389
-1.02093
-1.01623
-1.01
-1.00246
-0.99376
-0.984117
-0.973529
-0.964355
-0.833313
-0.834923
-0.834844
-0.83319
-0.830099
-0.825719
-0.820197
-0.813707
-0.806365
-0.79914
-0.696296
-0.699279
-0.700766
-0.700828
-0.69956
-0.697063
-0.693441
-0.688803
-0.68325
-0.677148
-0.605248
-0.608836
-0.611061
-0.611967
-0.611616
-0.610078
-0.607425
-0.603748
-0.599139
-0.593746
-0.557501
-0.561258
-0.563737
-0.564968
-0.564991
-0.563855
-0.561619
-0.558345
-0.5541
-0.548954
-2.61897
-2.82908
-2.89784
-3.02221
-3.14502
-3.23644
-3.30582
-3.35904
-3.39476
-3.41097
-2.23655
-2.39458
-2.37721
-2.42121
-2.50372
-2.56715
-2.60643
-2.63146
-2.64443
-2.64349
-1.82952
-1.95519
-1.9248
-1.93509
-1.99131
-2.04091
-2.06761
-2.07941
-2.08247
-2.07737
-1.46009
-1.56343
-1.542
-1.5387
-1.57198
-1.60713
-1.62667
-1.63395
-1.63507
-1.63195
-1.15437
-1.23217
-1.22337
-1.2187
-1.23725
-1.26064
-1.27598
-1.28322
-1.28602
-1.28608
-0.907402
-0.959673
-0.961461
-0.962942
-0.976463
-0.993528
-1.00681
-1.01534
-1.02067
-1.02381
-0.71695
-0.751458
-0.760693
-0.768919
-0.782027
-0.796342
-0.808497
-0.817812
-0.824819
-0.829951
-0.581761
-0.606413
-0.619484
-0.631327
-0.644404
-0.657264
-0.66857
-0.677997
-0.685685
-0.691772
-0.495185
-0.514616
-0.528881
-0.541789
-0.554411
-0.566289
-0.576914
-0.586115
-0.593894
-0.60027
-0.450907
-0.468091
-0.482609
-0.495709
-0.507972
-0.519309
-0.529503
-0.538443
-0.546094
-0.552448
0.571996
0.566221
0.551709
0.523543
0.474768
0.387915
0.243596
-0.0293144
-0.48461
-1.56105
0.516944
0.509043
0.490795
0.456505
0.399162
0.300159
0.14261
-0.148016
-0.59884
-1.50671
0.455441
0.445934
0.424661
0.385706
0.322719
0.217882
0.0591628
-0.214639
-0.608825
-1.25404
0.387965
0.377107
0.353263
0.310935
0.244502
0.139799
-0.0127274
-0.245294
-0.573709
-1.0164
0.315934
0.30417
0.278583
0.234739
0.167496
0.0686939
-0.072071
-0.25902
-0.525972
-0.840817
0.241863
0.22982
0.203722
0.160568
0.0957597
0.00676368
-0.117284
-0.266663
-0.475331
-0.704801
0.16953
0.157837
0.132611
0.0920824
0.0327163
-0.0450574
-0.149481
-0.269683
-0.425852
-0.59107
0.103956
0.0930883
0.0698551
0.0331845
-0.0190469
-0.0857511
-0.170949
-0.267356
-0.382068
-0.500512
0.051352
0.0415155
0.0207055
-0.0118661
-0.0571529
-0.114207
-0.183873
-0.262004
-0.349123
-0.437836
0.0195152
0.0104796
-0.00849309
-0.0381055
-0.078718
-0.129528
-0.190009
-0.257506
-0.33047
-0.404361
0.880881
0.885146
0.894468
0.90789
0.92321
0.937666
0.941231
0.925679
0.82999
0.649298
0.851418
0.854757
0.86163
0.87108
0.880127
0.885752
0.874392
0.840236
0.702643
0.478206
0.821628
0.824046
0.828487
0.833938
0.836692
0.833246
0.806847
0.752847
0.572894
0.299472
0.791625
0.793138
0.795191
0.796631
0.793119
0.780357
0.738991
0.663765
0.441662
0.11376
0.761524
0.762155
0.761887
0.759324
0.749613
0.727285
0.671189
0.573162
0.309999
-0.0789522
0.731433
0.731215
0.728708
0.722173
0.706355
0.674222
0.603756
0.481137
0.179093
-0.279799
0.701454
0.70044
0.695799
0.685343
0.663519
0.621375
0.536944
0.387756
0.0502175
-0.490892
0.67169
0.669974
0.663333
0.649034
0.6213
0.568964
0.470895
0.293088
-0.0754887
-0.717231
0.642206
0.639876
0.631375
0.613315
0.579718
0.517022
0.405365
0.196851
-0.197391
-0.959585
0.612937
0.609769
0.599298
0.577432
0.537932
0.465043
0.339818
0.0997696
-0.321586
-1.24565
1.13432
1.1467
1.17661
1.22481
1.29399
1.38562
1.50376
1.63539
1.77443
1.5181
1.11352
1.12519
1.15364
1.19912
1.26403
1.34886
1.45724
1.56923
1.70379
1.47778
1.0916
1.10259
1.1293
1.17148
1.23129
1.30837
1.40726
1.5068
1.64827
1.50096
1.06856
1.07885
1.10374
1.14268
1.19757
1.26747
1.35773
1.44642
1.58246
1.48159
1.04443
1.05396
1.07694
1.1126
1.16253
1.2253
1.30615
1.38226
1.49846
1.41847
1.01926
1.02798
1.04893
1.08116
1.12589
1.18121
1.25139
1.31376
1.40243
1.33101
0.993134
1.00101
1.01979
1.04847
1.08771
1.13529
1.1937
1.24195
1.29905
1.22538
0.966132
0.973135
0.989653
1.01464
1.04817
1.08778
1.13353
1.1672
1.18949
1.10231
0.938351
0.944456
0.958627
0.979834
1.00744
1.03888
1.07118
1.08946
1.07426
0.963521
0.909897
0.915086
0.92685
0.944196
0.96572
0.988778
1.00696
1.00886
0.954125
0.811652
1.3449
1.34448
1.34318
1.34034
1.33442
1.32321
1.30375
1.27281
1.22594
1.16009
1.34598
1.34717
1.34912
1.35099
1.35104
1.34644
1.33365
1.30783
1.26361
1.19502
1.34384
1.34757
1.35476
1.36449
1.37488
1.38225
1.3824
1.36717
1.3303
1.25779
1.33497
1.34165
1.35503
1.3744
1.39804
1.42166
1.44065
1.44252
1.42028
1.34402
1.31809
1.32759
1.34711
1.37639
1.41428
1.45661
1.4986
1.52421
1.52452
1.44828
1.29382
1.30565
1.33036
1.36843
1.41957
1.48066
1.54727
1.60187
1.6293
1.55862
1.26398
1.27739
1.30587
1.35059
1.41235
1.48981
1.58003
1.6668
1.7206
1.65176
1.23077
1.245
1.27572
1.32458
1.39337
1.48275
1.59283
1.71225
1.79089
1.70245
1.19625
1.21064
1.24228
1.29291
1.36497
1.46056
1.58342
1.73058
1.84129
1.70838
1.16199
1.17577
1.20707
1.25727
1.32905
1.42471
1.54977
1.70738
1.86501
1.69918
1.10449
1.07963
1.05247
1.02402
0.994387
0.963502
0.931391
0.898178
0.864021
0.829079
1.13393
1.1057
1.07423
1.04162
1.00786
0.972602
0.93578
0.897573
0.858204
0.817882
1.18887
1.15391
1.11313
1.0716
1.02933
0.985311
0.939263
0.891456
0.842247
0.791926
1.26855
1.22396
1.16834
1.11255
1.05683
0.998983
0.938368
0.875493
0.810993
0.745334
1.37601
1.31978
1.24336
1.16784
1.09354
1.01649
0.935862
0.852805
0.768483
0.683765
1.51352
1.44738
1.3503
1.25583
1.16287
1.06619
0.96593
0.864291
0.763279
0.664677
1.66596
1.59996
1.49748
1.39528
1.28998
1.17819
1.06182
0.943713
0.826375
0.712169
1.77198
1.7136
1.62034
1.51899
1.40655
1.28304
1.15114
1.01396
0.874887
0.737398
1.7856
1.74351
1.66344
1.56344
1.44286
1.30412
1.15069
0.986993
0.817941
0.648451
1.66078
1.60734
1.5067
1.38318
1.23583
1.06801
0.883674
0.688129
0.487044
0.285776
0.793517
0.757506
0.721222
0.684841
0.648537
0.61248
0.576836
0.541758
0.50739
0.473862
0.776815
0.735218
0.693316
0.651336
0.6095
0.568023
0.527104
0.486912
0.447629
0.409301
0.740744
0.688961
0.636845
0.584659
0.532648
0.481043
0.430062
0.379882
0.330896
0.282466
0.678909
0.612147
0.545502
0.479434
0.414382
0.350739
0.288855
0.229055
0.171968
0.116715
0.599441
0.516357
0.435358
0.357305
0.283093
0.21367
0.14998
0.0925305
0.0402129
-0.00394869
0.570231
0.481591
0.399927
0.325701
0.258554
0.197447
0.140533
0.0840942
0.0254755
-0.0203405
0.603191
0.5011
0.406703
0.320027
0.24083
0.168784
0.100546
0.0262343
-0.0575499
-0.114554
0.604687
0.479164
0.361634
0.251386
0.147697
0.0508167
-0.0453048
-0.163274
-0.310942
-0.398141
0.482819
0.323942
0.172348
0.0264254
-0.115374
-0.251227
-0.384082
-0.543694
-0.745838
-0.836802
0.088821
-0.10099
-0.283176
-0.458899
-0.629672
-0.793044
-0.942857
-1.09295
-1.27163
-1.3185
0.394108
0.278521
0.178557
0.106219
0.0678134
0.0570884
0.0601071
0.0652198
0.0671478
0.0647299
0.058522
0.0499468
0.04057
0.0315511
0.0235591
0.0168709
0.0115015
0.00726788
0.00394731
0.00111208
0.318404
0.194012
0.0951986
0.0332822
0.0113038
0.0176929
0.0345041
0.0492276
0.0573597
0.0586181
0.0544605
0.0470832
0.0384805
0.0300081
0.0224299
0.0160658
0.0109516
0.00691892
0.00375995
0.00105811
0.18134
0.0315966
-0.0686991
-0.103417
-0.0877508
-0.0478958
-0.00645897
0.0246636
0.0428294
0.0496535
0.0484682
0.0428054
0.0353155
0.0276454
0.0206893
0.0148204
0.010099
0.00637723
0.00346728
0.000974437
0.0417949
-0.171035
-0.286646
-0.284149
-0.215053
-0.128429
-0.0539938
-0.00229603
0.0274268
0.0401568
0.0419926
0.0380663
0.0317327
0.0249337
0.0186775
0.0133761
0.00910868
0.00574766
0.00312595
0.000877239
-0.0202205
-0.332467
-0.458345
-0.435634
-0.331191
-0.204673
-0.0983839
-0.0266824
0.0136233
0.0314425
0.0358283
0.0333951
0.0281129
0.0221574
0.0166053
0.0118851
0.00808553
0.00509705
0.00277224
0.000776724
-0.0536324
-0.413472
-0.511794
-0.499459
-0.394256
-0.25258
-0.128681
-0.0443219
0.00292202
0.0241511
0.0303321
0.0290425
0.0246565
0.0194769
0.0145959
0.0104375
0.00709201
0.00446547
0.00242801
0.000679049
-0.161496
-0.446081
-0.498962
-0.499665
-0.405126
-0.267989
-0.142313
-0.0543705
-0.00446378
0.0183652
0.0255755
0.0250965
0.021457
0.0169756
0.0127163
0.00908324
0.00616294
0.00387523
0.00210558
0.000587653
-0.412632
-0.509888
-0.491485
-0.47675
-0.386817
-0.261893
-0.143773
-0.0586108
-0.00920348
0.0138679
0.0215317
0.021607
0.0185818
0.0147137
0.0110127
0.00785497
0.00532
0.00333959
0.00181214
0.000504626
-0.750687
-0.607673
-0.497114
-0.45177
-0.361001
-0.247676
-0.139363
-0.0595289
-0.0121222
0.010472
0.018234
0.018657
0.016104
0.012743
0.00951876
0.00677343
0.00457539
0.00286525
0.00155122
0.000431129
-0.977053
-0.6663
-0.479407
-0.415333
-0.326682
-0.227266
-0.130922
-0.0581662
-0.0138544
0.00765605
0.0152305
0.015888
0.0137656
0.010891
0.00812564
0.00577327
0.00389205
0.00243316
0.00131438
0.000364232
-0.894997
-0.623204
-0.412268
-0.350377
-0.270849
-0.191928
-0.114039
-0.0534259
-0.0152589
0.00397402
0.011292
0.0125089
0.0111417
0.00896486
0.0067657
0.00484703
0.00328585
0.00206403
0.00111716
0.000306387
-0.853988
-0.620811
-0.395627
-0.328653
-0.248837
-0.175085
-0.103346
-0.0482275
-0.0137715
0.00347105
0.0100005
0.0110821
0.00987089
0.00794486
0.00599809
0.00429723
0.00291051
0.00182607
0.000985861
0.000268038
-0.854071
-0.620265
-0.385362
-0.31316
-0.234196
-0.163518
-0.0951368
-0.0435226
-0.0119041
0.00353835
0.00919621
0.0100002
0.00882277
0.00706088
0.00530969
0.00379074
0.00255711
0.0015976
0.000858199
0.000231645
-0.873359
-0.615967
-0.376363
-0.296914
-0.219236
-0.152285
-0.0880475
-0.0399766
-0.0108557
0.00312849
0.00814147
0.00879532
0.00771711
0.00615106
0.00461
0.00327944
0.00220178
0.00136855
0.00073062
0.000196073
-0.906931
-0.61087
-0.369642
-0.281293
-0.204463
-0.14103
-0.0814117
-0.0371159
-0.0104037
0.00231667
0.00684854
0.00745849
0.00654102
0.00520439
0.00389133
0.00275864
0.00184205
0.00113778
0.000602706
0.00016109
-0.95203
-0.607031
-0.365678
-0.267499
-0.191147
-0.130663
-0.0754696
-0.0348101
-0.0103455
0.00126261
0.00541966
0.00604925
0.00532747
0.00423869
0.00316309
0.00223312
0.00148017
0.000906246
0.000474761
0.000126691
-1.00814
-0.606426
-0.364768
-0.256083
-0.179709
-0.121603
-0.0704466
-0.0331199
-0.0106696
-6.86783e-06
0.00387705
0.00458237
0.00408553
0.00325936
0.00242833
0.00170448
0.0011169
0.000674226
0.000346851
9.27905e-05
-1.07565
-0.610781
-0.367233
-0.247515
-0.170354
-0.114001
-0.066419
-0.03208
-0.0113916
-0.00149868
0.00221766
0.00305651
0.0028147
0.00226629
0.0016871
0.00117277
0.000752254
0.00044172
0.00021895
5.92738e-05
-1.1554
-0.621684
-0.37341
-0.242242
-0.163298
-0.107993
-0.0634251
-0.0316918
-0.0125068
-0.00320947
0.000443565
0.00147318
0.00151582
0.00125965
0.000939388
0.000638129
0.000386571
0.000209143
9.12919e-05
2.61332e-05
-1.24777
-0.640492
-0.383627
-0.24065
-0.158751
-0.10371
-0.0615052
-0.0319508
-0.0140025
-0.00513005
-0.00143951
-0.000163942
0.000191
0.00024032
0.000185531
0.000100894
2.03258e-05
-2.29867e-05
-3.58119e-05
-6.60878e-06
)
;

boundaryField
{
    inlet
    {
        type            freestreamPressure;
        freestreamValue uniform 0;
        supersonic      false;
        value           nonuniform List<scalar> 
40
(
0.571996
0.516944
0.455441
0.387965
0.315934
0.241863
0.16953
0.103956
0.051352
0.0195152
0.880881
0.851418
0.821628
0.791625
0.761524
0.731433
0.701454
0.67169
0.642206
0.612937
1.13432
1.11352
1.0916
1.06856
1.04443
1.01926
0.993134
0.966132
0.938351
0.909897
1.3449
1.34598
1.34384
1.33497
1.31809
1.29382
1.26398
1.23077
1.19625
1.16199
)
;
    }
    outlet
    {
        type            freestreamPressure;
        freestreamValue uniform 0;
        supersonic      false;
        value           nonuniform List<scalar> 
40
(
-1.24738e-09
-1.38246e-09
-1.48799e-09
-1.55056e-09
-1.538e-09
-1.41756e-09
-1.16717e-09
-7.94645e-10
-3.6871e-10
-4.84218e-11
-1.39105e-10
-2.5138e-10
-3.62069e-10
-4.70775e-10
-5.78068e-10
-6.84301e-10
-7.8923e-10
-8.92355e-10
-9.94089e-10
-1.09808e-09
1.08212e-09
9.55468e-10
8.3184e-10
7.0829e-10
5.84535e-10
4.61085e-10
3.38207e-10
2.16039e-10
9.51072e-11
-2.39842e-11
6.25623e-11
4.66681e-10
9.77358e-10
1.39142e-09
1.63798e-09
1.72504e-09
1.69156e-09
1.58219e-09
1.43545e-09
1.26425e-09
)
;
    }
    top
    {
        type            symmetryPlane;
    }
    bottom
    {
        type            symmetryPlane;
    }
    cylinder
    {
        type            zeroGradient;
    }
    frontandback
    {
        type            empty;
    }
}


// ************************************************************************* //
