/*--------------------------------*- C++ -*----------------------------------*\
  =========                 |
  \\      /  F ield         | OpenFOAM: The Open Source CFD Toolbox
   \\    /   O peration     | Website:  https://openfoam.org
    \\  /    A nd           | Version:  6.0
     \\/     M anipulation  |
\*---------------------------------------------------------------------------*/
FoamFile
{
    version     2.0;
    format      ascii;
    class       surfaceScalarField;
    location    "16.485";
    object      phi;
}
// * * * * * * * * * * * * * * * * * * * * * * * * * * * * * * * * * * * * * //

dimensions      [0 3 -1 0 0 0 0];

internalField   nonuniform List<scalar> 
4670
(
-0.000189234
-0.0216943
0.0218835
-0.000520635
-0.0168658
0.0171972
-0.000869225
-0.0132744
0.013623
-0.00116596
-0.0106137
0.0109105
-0.00137644
-0.00863734
0.00884782
-0.00148983
-0.00715392
0.00726731
-0.00151179
-0.00601873
0.0060407
-0.00145998
-0.00512425
0.00507244
-0.0013611
-0.00439138
0.0042925
-0.00376322
0.0036506
-0.00124848
-0.000174903
-0.0215193
-0.000457319
-0.0165834
-0.00071639
-0.0130153
-0.000882082
-0.010448
-0.000920651
-0.00859877
-0.00082215
-0.00725243
-0.000593448
-0.00624743
-0.000254326
-0.00546338
0.000164473
-0.00481018
-0.00422166
0.000622913
-0.000151664
-0.0213677
-0.000357043
-0.016378
-0.000484536
-0.0128878
-0.00046558
-0.010467
-0.000267818
-0.00879653
0.000118251
-0.00763849
0.000685934
-0.00681512
0.00141503
-0.00619247
0.00227191
-0.00566706
-0.00515888
0.00320913
-0.000118088
-0.0212496
-0.00021891
-0.0162772
-0.000174243
-0.0129325
7.97683e-05
-0.010721
0.000572249
-0.00928901
0.00131183
-0.00837807
0.00229301
-0.0077963
0.00349743
-0.00739689
0.00489111
-0.00706074
-0.00668788
0.0064201
-7.31166e-05
-0.0211765
-4.06567e-05
-0.0163096
0.000217134
-0.0131903
0.000755152
-0.011259
0.00159605
-0.0101299
0.00274559
-0.00952761
0.00419927
-0.00924998
0.00594273
-0.00914034
0.00794581
-0.00906382
-0.00889369
0.0101516
-1.51385e-05
-0.0211613
0.000181788
-0.0165066
0.000695915
-0.0137044
0.00156798
-0.0121311
0.00280934
-0.0113713
0.00441858
-0.0111368
0.00638939
-0.0112208
0.00871183
-0.0114628
0.0113648
-0.0117168
-0.0118244
0.0142955
5.78593e-05
-0.0212192
0.000453356
-0.0169021
0.00127019
-0.0145213
0.00252945
-0.0133903
0.00422535
-0.0130672
0.00634247
-0.013254
0.00886567
-0.013744
0.011785
-0.0143821
0.0150916
-0.0150234
-0.015482
0.0187492
0.000147627
-0.0213668
0.000777487
-0.0175319
0.00194505
-0.0156888
0.00364712
-0.0150924
0.00585527
-0.0152753
0.00853193
-0.0159306
0.0116416
-0.0168537
0.0151614
-0.0179019
0.0190902
-0.0189522
-0.0198301
0.0234383
0.000254929
-0.0216218
0.00115306
-0.0184301
0.00271605
-0.0172518
0.00491446
-0.0172908
0.007695
-0.0180559
0.0109928
-0.0192284
0.0147398
-0.0206006
0.0188763
-0.0220384
0.0233862
-0.0234622
-0.0248415
0.0283976
0.000379524
-0.0220013
0.0015704
-0.0196209
0.00355983
-0.0192413
0.0062942
-0.0200252
0.00970214
-0.0214638
0.0137038
-0.0232301
0.0182126
-0.0251093
0.0231265
-0.0269523
0.0283298
-0.0286654
-0.0302842
0.0337725
0.0302189
0.00118568
-0.0314046
0.0290288
0.00119013
0.0278611
0.00116771
0.0267413
0.00111979
0.0256916
0.00104975
0.0247298
0.000961707
0.0238702
0.000859685
0.0231232
0.00074698
0.0224975
0.000625708
0.000496192
0.0401868
0.00370511
-0.0427063
0.0375494
0.00382753
0.0348646
0.00385256
0.0321998
0.0037846
0.0296175
0.00363207
0.0271731
0.00340604
0.0249145
0.00311835
0.0228817
0.00277972
0.0211086
0.00239882
0.00198387
0.0489727
0.00687459
-0.0521421
0.0455344
0.00726577
0.0419207
0.0074663
0.0382274
0.0074779
0.034549
0.00731041
0.030975
0.00698004
0.0275872
0.00650619
0.0244593
0.00590764
0.0216578
0.00520028
0.00440043
0.0562323
0.0102171
-0.0595748
0.0524687
0.0110293
0.0483818
0.0115532
0.0440799
0.0117798
0.0396771
0.0117132
0.0352877
0.0113694
0.0310227
0.0107713
0.026988
0.00994233
0.0232874
0.00890082
0.0076627
0.0619117
0.013419
-0.0651137
0.058159
0.0147821
0.053943
0.0157693
0.049369
0.0163537
0.0445562
0.0165261
0.039631
0.0162945
0.0347227
0.0156795
0.0299622
0.0147029
0.0254886
0.0133744
0.0116875
0.066128
0.0162991
-0.0690081
0.0626034
0.0183066
0.0585017
0.019871
0.0539132
0.0209423
0.0489478
0.0214914
0.0437303
0.0215121
0.0383935
0.0210163
0.0330782
0.0200182
0.0279475
0.0185051
0.0164049
0.0690825
0.0187762
-0.0715595
0.0659072
0.0214818
0.0620766
0.0237016
0.0576579
0.025361
0.0527422
0.0264071
0.0474393
0.026815
0.0418696
0.0265859
0.0361619
0.0257259
0.0304768
0.0241902
0.0217723
0.0710009
0.0208376
-0.0730623
0.0682242
0.0242586
0.0647508
0.027175
0.0606233
0.0294885
0.0559086
0.0311218
0.0506932
0.0320305
0.0450713
0.0322078
0.0391325
0.0316647
0.0329825
0.0303402
0.0278025
0.072093
0.022513
-0.0737684
0.0697145
0.0266371
0.0666321
0.0302574
0.062866
0.0332546
0.0584596
0.0355282
0.053475
0.037015
0.0479764
0.0377064
0.0419938
0.0376473
0.0354914
0.0368426
0.0346285
0.0725278
-0.0738711
0.0238563
0.0705146
0.0286503
0.0678182
0.0329538
0.0644426
0.0366301
0.0604134
0.0395575
0.055775
0.0416534
0.0505749
0.0429065
0.0448101
0.0434122
0.0382874
0.0433653
0.0426316
0.0367649
-0.000324954
-0.0364399
0.0368876
-0.000122717
0.0368034
8.41816e-05
0.0365153
0.000288107
0.0360325
0.000482794
0.0353701
0.000662354
0.0345488
0.000821341
0.0335938
0.000954993
0.0325345
0.00105925
0.00112993
0.0509069
-0.00149863
-0.0497332
0.0516541
-0.000869905
0.051963
-0.000224713
0.051828
0.000423051
0.0512532
0.00105758
0.0502536
0.00166202
0.0488556
0.00221926
0.0470977
0.00271294
0.0450287
0.00312827
0.00345234
0.0589212
-0.00346637
-0.0569534
0.0603739
-0.00232258
0.0612845
-0.0011354
0.0616317
7.59346e-05
0.0614032
0.00128605
0.0605993
0.00246588
0.0592343
0.00358431
0.0573375
0.00460978
0.0549536
0.0055121
0.00626381
0.0629034
-0.006071
-0.0602987
0.0649861
-0.00440534
0.0665057
-0.00265496
0.0674241
-0.000842481
0.067712
0.000998199
0.0673512
0.00282666
0.0663374
0.00459811
0.0646817
0.00626548
0.0624122
0.00778161
0.00910122
0.0643618
-0.00913584
-0.0612969
0.0669416
-0.00698513
0.0689819
-0.00469527
0.0704311
-0.00229175
0.0712464
0.000182944
0.0713949
0.00267819
0.0708555
0.00513746
0.0696207
0.00750025
0.0676984
0.00970399
0.0116859
0.0643532
-0.0125097
-0.0609793
0.0672978
-0.00992973
0.0697425
-0.00714
0.0716256
-0.00417477
0.0728969
-0.00108841
0.0735163
0.00205877
0.0734526
0.00520118
0.0726843
0.0082686
0.0712013
0.0111869
0.0138791
0.0635777
-0.0160904
-0.059997
0.0667846
-0.0131366
0.0695236
-0.009879
0.0717283
-0.0063795
0.073351
-0.00271107
0.0743526
0.00105715
0.0746995
0.00485423
0.074363
0.00860513
0.0733206
0.0122293
0.0156402
0.062482
-0.0198412
-0.0587311
0.0658814
-0.016536
0.0688176
-0.0128153
0.0712341
-0.00879598
0.0730968
-0.00457379
0.0743762
-0.000222181
0.075042
0.00418837
0.0750638
0.00858337
0.0744122
0.012881
0.01699
0.0613697
-0.023785
-0.057426
0.0648906
-0.0200569
0.0679243
-0.015849
0.0704467
-0.0113183
0.072446
-0.00657304
0.0739042
-0.00168041
0.0747963
0.00329626
0.0750923
0.0082873
0.0747602
0.0132132
0.0179819
0.0604322
-0.0563714
-0.0278458
0.0639748
-0.0235996
0.0669883
-0.0188625
0.0695217
-0.0138518
0.0715741
-0.00862543
0.0731314
-0.00323765
0.0741702
0.00225747
0.0746614
0.00779604
0.0745728
0.0133017
0.0186836
0.0423574
0.0133709
-0.00809062
-0.0476377
0.0369927
0.0141044
-0.00873968
0.0315447
0.0149769
-0.00952891
0.0260302
0.0160357
-0.0105212
0.020493
0.0173401
-0.0118029
0.0150274
0.0189418
-0.0134763
0.00981363
0.0208484
-0.0156346
0.00516933
0.0229488
-0.0183045
0.00162091
0.0248842
-0.0213358
0.0258303
-0.0242094
0.0421273
0.0186238
-0.0473803
0.0367884
0.0194434
0.0313655
0.0203998
0.0258755
0.0215257
0.0203625
0.022853
0.0149217
0.0243827
0.00973433
0.0260357
0.00511948
0.0275637
0.00160162
0.0284021
0.0274319
0.0415242
0.0238193
-0.0467196
0.0362424
0.0247252
0.030878
0.0257641
0.0254492
0.0269545
0.0200017
0.0283006
0.0146322
0.0297523
0.00952306
0.0311449
0.00499176
0.032095
0.00155338
0.0318405
0.0289853
0.0405513
0.0289293
-0.0456613
0.0353563
0.0299201
0.0300832
0.0310373
0.0247521
0.0322856
0.0194112
0.0336414
0.0141597
0.0350038
0.00918089
0.0361237
0.00478772
0.0364881
0.00147804
0.0351502
0.0304633
0.0392114
0.0339284
-0.0442105
0.0341318
0.0349997
0.0289819
0.0361872
0.0237849
0.0374826
0.0185923
0.0388341
0.013506
0.04009
0.00870995
0.0409197
0.0045094
0.0406887
0.00137682
0.0382828
0.0318402
0.0375042
0.0387926
-0.0423684
0.032568
0.039936
0.0275739
0.0411812
0.0225485
0.042508
0.0175467
0.0438358
0.012674
0.0449628
0.00811352
0.0454802
0.00415962
0.0446426
0.00125119
0.0411912
0.0330914
0.0354225
0.0434974
-0.0401273
0.0306594
0.0446991
0.0258567
0.0459839
0.0210432
0.0473215
0.0162774
0.0486017
0.0116679
0.0495723
0.00739636
0.0497517
0.00374237
0.0482966
0.00110309
0.0438305
0.0341945
0.032947
0.0480109
-0.0374605
0.0283943
0.0492518
0.0238261
0.0505521
0.0192702
0.0518775
0.0147888
0.0530831
0.0104943
0.0538667
0.00656548
0.0536805
0.00326323
0.0515988
0.000935176
0.0461585
0.0351296
0.0300315
0.0522964
-0.0343169
0.0257516
0.0535317
0.0214794
0.0548243
0.0172349
0.056122
0.0130903
0.0572277
0.00916411
0.0577929
0.00563122
0.0572134
0.00273017
0.0544999
0.000751373
0.0481373
0.035881
0.0266254
-0.0307004
0.0227311
0.0188244
0.0149493
0.0111976
0.00769364
0.00460833
0.00215477
0.000558897
0.0246441
-0.0358817
0.0401507
-0.0289131
0.0206595
-0.0356864
0.039671
0.0168177
-0.035157
0.0389988
0.0131429
-0.0341191
0.037794
0.00970952
-0.0322468
0.0356802
0.00661514
-0.0290643
0.0321587
0.00397416
-0.0239209
0.0265619
0.00190771
-0.0159717
0.0180382
0.000537085
-0.00417035
0.00554098
0.0127947
-0.0122576
0.0280748
-0.0315562
-0.0324003
0.0238008
-0.0314124
0.0196123
-0.0309686
0.0155504
-0.0300572
0.0116885
-0.028385
0.00812975
-0.0255055
0.00500502
-0.0207962
0.00247302
-0.0134397
0.000722946
-0.00242028
0.0135176
0.0310878
-0.0270773
-0.0355668
0.0265874
-0.0269119
0.022118
-0.0264992
0.0177307
-0.0256699
0.013499
-0.0241534
0.00952942
-0.0215359
0.0059675
-0.0172343
0.00300611
-0.0104783
0.000899122
-0.000313293
0.0144167
0.033717
-0.0224295
-0.0383647
0.0290236
-0.0222185
0.024323
-0.0217986
0.0196636
-0.0210105
0.0151171
-0.0196068
0.0107912
-0.0172101
0.00684308
-0.0132862
0.00349566
-0.0071309
0.00106257
0.0021198
0.0154793
0.0360018
-0.0176217
-0.0408096
0.0311351
-0.0173518
0.0262362
-0.0168996
0.0213465
-0.0161208
0.0165328
-0.0147931
0.0119021
-0.0125793
0.00761944
-0.00900359
0.00393304
-0.00344451
0.00120981
0.00484303
0.0166891
0.0379488
-0.0126697
-0.0429008
0.0329295
-0.0123326
0.0278611
-0.0118311
0.0227777
-0.0110374
0.0177404
-0.0097559
0.0128537
-0.00769251
0.00828783
-0.00443776
0.00431163
0.000531697
0.00133794
0.00781672
0.018027
0.0395525
-0.00759506
-0.0446272
0.0344051
-0.00718508
0.0291963
-0.00662239
0.0239546
-0.00579569
0.0187353
-0.00453661
0.0136397
-0.00259692
0.00884171
0.000360234
0.00462632
0.00474709
0.00144465
0.0109984
0.0194717
0.040804
-0.0024237
-0.0459754
0.0355558
-0.00193688
0.0302377
-0.00130426
0.0248731
-0.000431072
0.0195128
0.000823745
0.014255
0.00266083
0.00927591
0.00533932
0.00487313
0.00914986
0.00152815
0.0143434
0.0209998
0.041694
0.00281528
-0.0469329
0.0363751
0.00338197
0.0309801
0.00409074
0.0255288
0.00502019
0.0200685
0.00628405
0.0146952
0.00803416
0.00958641
0.0104481
0.00504917
0.0136871
0.00158726
0.0178053
0.0225871
0.0422146
-0.04749
0.0368569
0.0314188
0.0259178
0.0203989
0.0149568
0.0097703
0.00515286
0.00162231
0.0442982
0.0213632
-0.0255107
0.0478027
0.01743
-0.0209344
0.0507184
0.0130008
-0.0159165
0.0530945
0.00824882
-0.0106248
0.0549189
0.00331867
-0.00514316
0.0561632
-0.00168925
0.000444998
0.0567885
-0.00667332
0.00604804
0.0567532
-0.0115204
0.0115556
0.0560194
-0.0161058
0.0168396
-0.0202961
0.0545594
0.0217562
0.0435364
0.0174978
0.0469468
0.0140196
0.0498085
0.010139
0.0520845
0.0059729
0.053753
0.00165011
0.054785
-0.00272126
0.0551457
-0.00703401
0.0548009
-0.0111756
0.0537235
-0.0150284
-0.0184736
0.0519009
0.042584
0.0139125
0.0457717
0.0108318
0.048433
0.00747778
0.0504944
0.00391153
0.0519122
0.000232326
0.0526502
-0.00345928
0.0526767
-0.00706054
0.0519676
-0.0104664
0.0505113
-0.0135722
-0.0162781
0.0483159
0.0411058
0.0106007
0.0439888
0.00794876
0.046339
0.00512761
0.0480768
0.00217369
0.0491483
-0.000839165
0.049515
-0.00382594
0.0491514
-0.00669697
0.0480471
-0.00936207
0.0462101
-0.0117352
-0.0137396
0.0436716
0.0386752
0.00760572
0.0411873
0.00543672
0.0431409
0.00317403
0.0444679
0.000846647
0.045119
-0.00149026
0.0450629
-0.00376979
0.0442866
-0.00592068
0.0427973
-0.00787281
0.0406246
-0.00956248
-0.0109373
0.0378223
0.0347607
0.00500375
0.0368343
0.00336307
0.038327
0.00168138
0.0391896
-1.60114e-05
0.0393882
-0.00168882
0.0389071
-0.00328869
0.0377513
-0.00476488
0.0359478
-0.00606926
0.0335461
-0.00716084
-0.00800936
0.0306182
0.0286845
0.00288122
0.0302627
0.00178477
0.0312638
0.000680358
0.0316603
-0.000412586
0.031439
-0.00146748
0.030604
-0.00245368
0.0291794
-0.00334026
0.0272096
-0.00409945
0.0247584
-0.0047097
-0.00515779
0.0219069
0.0196063
0.00131309
0.0206649
0.000726179
0.0211989
0.000146321
0.0212021
-0.000415709
0.0206806
-0.000946026
0.0196563
-0.00142934
0.018167
-0.00185101
0.0162665
-0.00219895
0.0140219
-0.00246513
-0.00264675
0.0115109
0.00650832
0.000345752
0.00707563
0.000158869
0.0072426
-2.06455e-05
0.00701754
-0.000190652
0.00641852
-0.00034701
0.00547446
-0.000485268
0.00422492
-0.000601479
0.00271872
-0.000692754
0.0010114
-0.000757807
-0.000798001
-0.00083735
-0.0119118
-0.0117529
-0.0117736
-0.0119642
-0.0123113
-0.0127965
-0.013398
-0.0140908
-0.0148486
-0.0156466
0.052365
-0.023974
0.0261683
0.0494519
-0.0269791
0.0298922
0.0458694
-0.0292353
0.0328179
0.0416999
-0.0306932
0.0348626
0.0370514
-0.0313623
0.0360108
0.0320394
-0.0313127
0.0363246
0.0267555
-0.0306525
0.0359365
0.0212153
-0.0294637
0.0350039
0.015299
-0.0276148
0.033531
-0.0241753
0.0084912
0.0309831
0.0493437
-0.0214168
0.0460897
-0.0237251
0.0422103
-0.0253559
0.0378066
-0.0262894
0.0329985
-0.0265541
0.0279048
-0.026219
0.0226153
-0.0253631
0.017162
-0.0240104
0.0115471
-0.0219998
-0.0187369
0.00610863
0.0454148
-0.0185156
0.0418708
-0.0201811
0.0377765
-0.0212617
0.0332485
-0.0217614
0.0284147
-0.0217202
0.0233966
-0.0212009
0.0182932
-0.0202596
0.0131793
-0.0188965
0.0081701
-0.0169906
-0.0142435
0.0036767
0.0404885
-0.0153325
0.0367465
-0.0164391
0.0325548
-0.01707
0.0280386
-0.0172452
0.023327
-0.0170086
0.0185402
-0.0164142
0.0137822
-0.0155016
0.00915225
-0.0142666
0.00479829
-0.0126366
-0.0104854
0.00104018
0.034467
-0.0119773
0.0306613
-0.0126334
0.0265221
-0.0129308
0.0221741
-0.0128972
0.0177395
-0.012574
0.0133292
-0.0120039
0.00904239
-0.0112148
0.00497923
-0.0102034
0.00127497
-0.00893236
-0.00735873
-0.00185166
0.0272526
-0.00861175
0.0235587
-0.00893942
0.0196505
-0.00902265
0.0156423
-0.008889
0.0116405
-0.00857223
0.00773976
-0.00810313
0.0040245
-0.00749951
0.000580576
-0.00675951
-0.00248651
-0.00586528
-0.00480716
-0.00503807
0.018744
-0.00544888
0.0153744
-0.00556984
0.0118984
-0.00554667
0.00841064
-0.00540122
0.00499525
-0.00515683
0.00172477
-0.00483265
-0.00133634
-0.0044384
-0.00412357
-0.00397228
-0.00656323
-0.00342562
-0.00279814
-0.00857225
0.00881032
-0.0027483
0.00600851
-0.00276804
0.00318267
-0.00272082
0.000401631
-0.00262018
-0.00227635
-0.00247885
-0.00480279
-0.00230622
-0.00713502
-0.00210617
-0.00923058
-0.00187671
-0.0110429
-0.00161329
-0.00131689
-0.0125242
-0.00277336
-0.000812286
-0.00473571
-0.000805686
-0.00667594
-0.0007806
-0.00855346
-0.000742656
-0.0103362
-0.000696084
-0.0119988
-0.000643628
-0.013519
-0.000585987
-0.0148739
-0.000521803
-0.0160381
-0.000449092
-0.000369337
-0.0169857
-0.0164589
-0.0172645
-0.0180451
-0.0187878
-0.0194839
-0.0201275
-0.0207135
-0.0212353
-0.0216844
-0.0220537
0.000270105
-0.0223238
0.000987044
-0.0177026
0.00211375
-0.0136509
0.00363996
-0.0100985
0.00556365
-0.00696176
0.00788039
-0.0041684
0.0105766
-0.001656
0.0136192
0.000634049
0.0169622
0.00276569
0.00482593
0.0206274
0.000184292
-0.0225081
0.000678441
-0.0181967
0.00146518
-0.0144376
0.00254072
-0.011174
0.00390376
-0.0083248
0.00555026
-0.0058149
0.00747368
-0.00357942
0.00967315
-0.00156541
0.0121847
0.000254105
0.00183928
0.0151714
0.00010317
-0.0226113
0.000397017
-0.0184906
0.000885485
-0.0149261
0.00157806
-0.0118666
0.002485
-0.00923174
0.00361654
-0.00694644
0.00498582
-0.0049487
0.00661513
-0.00319473
0.00854176
-0.00167252
-0.000423946
0.010805
3.12032e-05
-0.0226425
0.000151216
-0.0186106
0.000386534
-0.0151614
0.00076117
-0.0122412
0.0012966
-0.00976717
0.00201289
-0.00766272
0.00293093
-0.00586674
0.00407403
-0.00433783
0.00546332
-0.00306181
-0.00205623
0.0070956
-3.08352e-05
-0.0226117
-5.75406e-05
-0.0185839
-3.19919e-05
-0.0151869
8.26936e-05
-0.0123559
0.000315701
-0.0100002
0.000690723
-0.00803775
0.00122755
-0.00640357
0.00194169
-0.00505197
0.00283899
-0.0039591
-0.00312108
0.00390383
-8.30329e-05
-0.0225286
-0.000229762
-0.0184372
-0.000372664
-0.015044
-0.000464656
-0.0122639
-0.000472357
-0.00999248
-0.000372587
-0.00813752
-0.000150364
-0.00662579
0.000201153
-0.00540349
0.000677723
-0.00443567
-0.00370273
0.00125938
-0.000125302
-0.0224033
-0.00036531
-0.0181972
-0.000635782
-0.0147736
-0.000881982
-0.0120177
-0.00106878
-0.00980568
-0.00117548
-0.00803081
-0.00119263
-0.00660864
-0.00112049
-0.00547563
-0.000969474
-0.00458669
-0.00391115
-0.000761061
-0.000157138
-0.0222462
-0.000462867
-0.0178914
-0.000818916
-0.0144175
-0.00116485
-0.0116718
-0.00146511
-0.00950542
-0.00170204
-0.00779388
-0.00187124
-0.00643945
-0.00197857
-0.00536829
-0.00203876
-0.0045265
-0.00387552
-0.00207439
-0.00017765
-0.0220685
-0.000520502
-0.0175486
-0.000918671
-0.0140194
-0.00130726
-0.0112832
-0.00165082
-0.00916185
-0.00193453
-0.00751018
-0.00215826
-0.00621572
-0.0023325
-0.00519405
-0.00247579
-0.00438322
-0.00373859
-0.00261272
-0.000185048
-0.000536421
-0.000932776
-0.00130551
-0.00161954
-0.00186241
-0.00203743
-0.00215904
-0.00224976
-0.00233775
-0.00111562
-0.010578
0.0104452
0.00156133
-0.0119024
0.00922541
0.0053016
-0.011316
0.00757569
0.00970363
-0.0106415
0.00623951
0.0144485
-0.00947121
0.00472638
0.0192391
-0.00848884
0.0036982
0.0239352
-0.00900198
0.00430591
0.0283794
-0.0120828
0.00763855
0.0324201
-0.0182292
0.0141884
0.0358895
-0.0267336
0.0232642
0.0387279
-0.0348173
0.0319788
0.0410518
-0.0382509
0.035927
0.0431956
-0.0305003
0.0283565
0.0453007
-0.00955226
0.00744716
0.0476866
0.019468
-0.0218538
0.050255
0.038228
-0.0407964
0.0534258
0.0269823
-0.0301532
0.0559606
-0.000882325
-0.00165248
0.0579801
-0.0559013
0.0538818
-0.0525001
0.0511028
0.00125709
-0.0112122
0.00411456
-0.0147598
0.00792009
-0.0151215
0.0122662
-0.0149877
0.0169024
-0.0141074
0.0215627
-0.0131491
0.0261073
-0.0135466
0.0303708
-0.0163462
0.0341892
-0.0220476
0.0373916
-0.029936
0.0399287
-0.0373544
0.0419418
-0.040264
0.0438171
-0.0323756
0.0457623
-0.0114974
0.048133
0.0170972
0.0507944
0.0355666
0.054039
0.0237378
0.0565955
-0.00343885
0.0584982
-0.057804
-0.0537781
0.00448633
-0.0124894
0.00750165
-0.0177751
0.011306
-0.0189259
0.0154972
-0.0191789
0.0199131
-0.0185233
0.024334
-0.0175701
0.0286265
-0.0178391
0.0326232
-0.0203428
0.0361531
-0.0255775
0.039046
-0.032829
0.0412615
-0.0395698
0.0429578
-0.0419603
0.0445597
-0.0339775
0.0463332
-0.0132709
0.0486663
0.0147641
0.0513924
0.0328406
0.0546826
0.0204475
0.0572501
-0.0060063
0.0590473
-0.0596011
-0.0549645
0.00844031
-0.0145096
0.0115678
-0.0209026
0.0152841
-0.0226421
0.0192209
-0.0231157
0.0233134
-0.0226158
0.0273989
-0.0216556
0.031354
-0.0217941
0.0350138
-0.0240026
0.0382053
-0.028769
0.0407626
-0.0353863
0.0426525
-0.0414597
0.0440427
-0.0433506
0.0453825
-0.0353172
0.0469848
-0.0148733
0.0492648
0.0124841
0.0520295
0.0300759
0.0553398
0.0171372
0.0579101
-0.00857656
0.0596172
-0.0613083
-0.0560903
0.0129543
-0.0173123
0.0161215
-0.0240698
0.0196408
-0.0261615
0.0232256
-0.0267005
0.0269061
-0.0262964
0.0305794
-0.0253289
0.0341325
-0.0253472
0.0374062
-0.0272764
0.040229
-0.0315918
0.0424425
-0.0375997
0.0440198
-0.043037
0.0451308
-0.0444616
0.0462349
-0.0364213
0.0476794
-0.0163178
0.0498986
0.0102649
0.0526799
0.0272946
0.0559888
0.0138282
0.0585586
-0.0111463
0.0601962
-0.0629459
-0.0571899
0.017834
-0.0208508
0.0209391
-0.0271749
0.0241351
-0.0293575
0.0272771
-0.0298424
0.0304773
-0.0294966
0.033686
-0.0285377
0.0367979
-0.0284591
0.0396598
-0.0301383
0.0421048
-0.0340367
0.0439845
-0.0394794
0.0452777
-0.0443302
0.0461506
-0.0453346
0.0470599
-0.0373306
0.0483726
-0.0176305
0.0505331
0.00810436
0.0533157
0.0245121
0.056608
0.0105359
0.0591794
-0.0137177
0.0607732
-0.0645396
-0.0583005
0.0228493
-0.0249509
0.0257605
-0.0300861
0.0285027
-0.0320997
0.0311272
-0.032467
0.0338063
-0.0321756
0.0365278
-0.0312592
0.039188
-0.0311192
0.0416379
-0.0325882
0.0437175
-0.0361163
0.0452907
-0.0410526
0.0463419
-0.0453814
0.0470298
-0.0460225
0.047797
-0.0380978
0.049016
-0.0188494
0.0511305
0.00598984
0.0539072
0.0217353
0.0571752
0.00726795
0.0597569
-0.0162995
0.0613374
-0.0661201
-0.0594618
0.0277359
-0.0292485
0.030286
-0.0326361
0.0324618
-0.0342755
0.0345237
-0.034529
0.0366759
-0.0343277
0.0389216
-0.0335049
0.0411499
-0.0333475
0.0432138
-0.0346521
0.0449616
-0.0378641
0.0462714
-0.0423625
0.0471344
-0.0462444
0.0476992
-0.0465873
0.0483862
-0.0387848
0.0495598
-0.020023
0.0516514
0.00389819
0.0544246
0.0189622
0.0576689
0.0040236
0.0602761
-0.0189067
0.0618787
-0.0677227
-0.0607157
0.032322
-0.0331728
0.0342678
-0.034582
0.0357779
-0.0357856
0.0372599
-0.036011
0.0389098
-0.0359776
0.0407181
-0.0353132
0.0425591
-0.0351886
0.0442844
-0.0363774
0.0457514
-0.0393311
0.0468544
-0.0434654
0.0475915
-0.0469815
0.048101
-0.0470968
0.0487749
-0.0394588
0.0499579
-0.021206
0.0520581
0.00179798
0.0548387
0.0161816
0.058069
0.000793286
0.0607238
-0.0215615
0.0623882
-0.0693871
-0.0621056
0.0366796
-0.0360799
0.0376434
-0.0355458
0.0383506
-0.0364928
0.0392483
-0.0369087
0.0404256
-0.0371549
0.0418406
-0.0367281
0.0433449
-0.0366929
0.044787
-0.0378195
0.046033
-0.0405771
0.046993
-0.0444254
0.047672
-0.0476605
0.0481961
-0.0476209
0.0489253
-0.040188
0.0501741
-0.0224548
0.0523178
-0.000345689
0.0551229
0.0133765
0.0583563
-0.00244017
0.0610884
-0.0242936
0.0628557
-0.0711544
-0.0636785
0.117572
-0.0273701
-0.126282
0.112868
-0.0308417
0.110123
-0.0337477
0.108609
-0.0353953
0.107871
-0.0364166
0.107847
-0.0367037
0.10831
-0.0371566
0.108969
-0.0384783
0.109439
-0.041047
0.109325
-0.0443116
0.108392
-0.0467276
0.106667
-0.0458955
0.104805
-0.0383257
0.103847
-0.0214968
0.105194
-0.00169311
0.108833
0.00973813
0.113463
-0.00707106
0.116844
-0.0276738
0.117371
-0.071682
-0.0635413
0.164936
-0.0166716
-0.175635
0.15657
-0.022476
0.150695
-0.0278726
0.14665
-0.0313497
0.14381
-0.0335773
0.141993
-0.0348858
0.140889
-0.0360529
0.140142
-0.0377313
0.139328
-0.0402327
0.138033
-0.043017
0.136015
-0.0447092
0.133293
-0.043174
0.130549
-0.0355816
0.128903
-0.0198505
0.129839
-0.00262935
0.133297
0.00627971
0.137655
-0.0114287
0.140659
-0.0306777
0.140269
-0.0712919
-0.062664
0.216243
-0.00600008
-0.226915
0.207099
-0.0133316
0.199323
-0.020097
0.193128
-0.0251542
0.188209
-0.0286589
0.18441
-0.0310866
0.18145
-0.0330926
0.178963
-0.0352449
0.176527
-0.0377968
0.173746
-0.0402357
0.170404
-0.0413668
0.166543
-0.0393136
0.162858
-0.0318963
0.160489
-0.0174812
0.160879
-0.00301997
0.163873
0.00328631
0.167507
-0.0150633
0.169697
-0.0328677
0.167959
-0.0695537
-0.0607411
0.267855
0.00249812
-0.276353
0.260014
-0.00549111
0.252315
-0.0123982
0.245317
-0.0181559
0.239185
-0.0225269
0.233911
-0.0258129
0.229336
-0.0285171
0.225176
-0.0310853
0.221083
-0.033704
0.216742
-0.0358943
0.212021
-0.0366463
0.207041
-0.034333
0.202514
-0.0273693
0.19954
-0.0145074
0.199346
-0.00282554
0.201591
0.0010412
0.203977
-0.01745
0.204829
-0.0337189
0.201259
-0.065984
-0.0574385
0.31758
0.00776158
-0.322844
0.312024
6.57347e-05
0.305938
-0.00631243
0.299647
-0.0118654
0.293567
-0.0164468
0.287855
-0.0201005
0.282466
-0.0231288
0.27723
-0.0258489
0.271916
-0.0283901
0.266343
-0.0303213
0.26052
-0.0308226
0.254699
-0.028512
0.249642
-0.022313
0.246377
-0.011242
0.245725
-0.00217362
0.247059
-0.000292496
0.247736
-0.0181271
0.246737
-0.0327201
0.240905
-0.0601518
-0.0524362
0.366425
0.00985096
-0.368514
0.363172
0.00331856
0.359099
-0.00224
0.354308
-0.00707434
0.349152
-0.0112903
0.343884
-0.0148329
0.338548
-0.0177927
0.333048
-0.0203487
0.327252
-0.0225946
0.321108
-0.0241773
0.314766
-0.0244803
0.308631
-0.0223772
0.303527
-0.0172088
0.300423
-0.00813784
0.29962
-0.00137024
0.300118
-0.000791044
0.298888
-0.0168974
0.295721
-0.0295527
0.287408
-0.0518388
-0.0455105
0.417388
0.00948052
-0.417018
0.416085
0.00462124
0.413724
0.000121212
0.410439
-0.00378873
0.406419
-0.00727082
0.40191
-0.0103242
0.397033
-0.0129155
0.391768
-0.0150837
0.386056
-0.0168824
0.379937
-0.018058
0.373657
-0.0182001
0.367734
-0.0164547
0.363016
-0.0124909
0.360456
-0.00557765
0.359847
-0.000761761
0.359827
-0.000770402
0.356907
-0.0139777
0.351625
-0.0242704
0.340981
-0.0411949
-0.0366277
0.473885
0.00740049
-0.471805
0.474213
0.0042937
0.473222
0.00111175
0.471147
-0.00171385
0.468112
-0.00423497
0.464289
-0.00650142
0.459843
-0.00846956
0.45485
-0.0100913
0.449339
-0.0113711
0.443429
-0.0121484
0.437424
-0.0121948
0.431905
-0.0109353
0.427675
-0.00826153
0.425699
-0.00360109
0.425411
-0.000474226
0.42522
-0.000578775
0.421153
-0.00991146
0.414188
-0.017305
0.401726
-0.0287328
-0.0259714
0.539738
0.00413933
-0.536477
0.541393
0.00263844
0.54154
0.00096491
0.540393
-0.000566388
0.538089
-0.0019315
0.534757
-0.00316936
0.530554
-0.00426684
0.525634
-0.00517125
0.520125
-0.00586202
0.514236
-0.00625882
0.50831
-0.00626937
0.502974
-0.00559905
0.498955
-0.00424206
0.497226
-0.00187281
0.497059
-0.000307022
0.496824
-0.000343933
0.492122
-0.00520899
0.483985
-0.00916803
0.470249
-0.0149967
-0.0137895
0.620145
-0.616006
0.622784
0.623749
0.623182
0.621251
0.618081
0.613815
0.608643
0.602781
0.596523
0.590253
0.584654
0.580412
0.578539
0.578232
0.577888
0.572679
0.563511
0.548515
0.167494
0.0228847
-0.166522
0.167685
0.0284584
0.166915
0.0337246
0.164995
0.0385501
0.161758
0.042794
0.15709
0.046321
0.150976
0.0490214
0.143549
0.0508388
0.13517
0.0517439
0.05152
0.191749
0.0209198
-0.189784
0.193401
0.0268069
0.194591
0.0325345
0.195148
0.0379931
0.194885
0.0430571
0.193614
0.047592
0.191167
0.0514682
0.18742
0.0545859
0.182251
0.0569127
0.0581365
0.217474
0.0184022
-0.214957
0.220107
0.0241744
0.222759
0.0298819
0.2253
0.0354527
0.227554
0.0408026
0.229309
0.045837
0.230325
0.0504525
0.230372
0.054539
0.229271
0.0580133
0.0604932
0.245996
0.0157416
-0.243335
0.249048
0.0211217
0.25245
0.0264797
0.256133
0.0317697
0.259998
0.0369378
0.263914
0.0419211
0.267719
0.0466476
0.271222
0.0510364
0.274214
0.0550206
0.0583548
0.278378
0.0130844
-0.275721
0.281606
0.0178941
0.285395
0.0226912
0.289722
0.0274425
0.294548
0.0321119
0.299809
0.0366598
0.305413
0.041043
0.311236
0.0452136
0.317133
0.0491241
0.0526436
0.315424
0.0104591
-0.312799
0.318753
0.0145651
0.322785
0.0186597
0.327511
0.0227168
0.332913
0.0267091
0.338965
0.0306084
0.345622
0.0343855
0.352827
0.0380092
0.360504
0.0414471
0.0446332
0.358042
0.00787276
-0.355455
0.361453
0.0111539
0.365688
0.0144247
0.370741
0.017664
0.376599
0.0208506
0.383245
0.0239626
0.390652
0.0269786
0.398785
0.0298766
0.407598
0.0326342
0.0352132
0.407637
0.00530949
-0.405074
0.411149
0.00764248
0.415606
0.00996781
0.421
0.01227
0.427317
0.0145336
0.434536
0.0167429
0.442632
0.0188825
0.451572
0.0209372
0.461314
0.0228917
0.0247223
0.46634
0.00271914
-0.46375
0.470015
0.00396826
0.474769
0.00521388
0.480591
0.00644738
0.487465
0.00766012
0.495364
0.00884345
0.504258
0.00998889
0.514107
0.0110881
0.524866
0.0121328
0.0131112
0.537552
-0.534833
0.54152
0.546734
0.553182
0.560842
0.569685
0.579674
0.590762
0.602895
0.143348
-0.0301934
-0.141
0.146193
-0.0264452
0.14915
-0.0218195
0.152122
-0.0168236
0.155035
-0.011538
0.157844
-0.00604697
0.160489
-0.000387402
0.162887
0.00539773
0.164939
0.0112504
0.0171004
0.170756
-0.0318586
-0.169091
0.172575
-0.0282641
0.1745
-0.0237446
0.176532
-0.0188556
0.178652
-0.013658
0.180847
-0.00824149
0.183099
-0.00264006
0.185377
0.00311974
0.187629
0.00899828
0.0149453
0.202066
-0.0323133
-0.201612
0.20271
-0.028908
0.203488
-0.0245221
0.204435
-0.0198031
0.205596
-0.0148191
0.206988
-0.00963346
0.208622
-0.00427348
0.210501
0.00124034
0.21262
0.00687961
0.0126084
0.237139
-0.0314631
-0.237989
0.236476
-0.0282451
0.23608
-0.0241256
0.235983
-0.0197063
0.236231
-0.0150673
0.23685
-0.010252
0.237856
-0.0052796
0.239265
-0.000169083
0.24109
0.00505484
0.0103636
0.275922
-0.0293055
-0.27808
0.273993
-0.0263161
0.272471
-0.0226028
0.271397
-0.0186326
0.270804
-0.0144749
0.270715
-0.0101627
0.271147
-0.00571103
0.272115
-0.00113793
0.273636
0.00353377
0.00827883
0.319008
-0.0258602
-0.322453
0.315904
-0.023212
0.313331
-0.0200303
0.31134
-0.0166409
0.309956
-0.0130913
0.3092
-0.0094064
0.30909
-0.00560086
0.309643
-0.00169149
0.310876
0.0023013
0.00635536
0.367444
-0.0211634
-0.372141
0.363229
-0.0189973
0.359661
-0.0164624
0.356788
-0.0137676
0.354638
-0.0109415
0.353234
-0.00800207
0.352596
-0.00496304
0.352744
-0.0018393
0.353693
0.00135209
0.00459281
0.422666
-0.0152642
-0.428565
0.417384
-0.0137154
0.412854
-0.0119321
0.409122
-0.0100357
0.406222
-0.00804175
0.404183
-0.00596248
0.403029
-0.00380875
0.402781
-0.00159218
0.403459
0.000674497
0.00297767
0.486804
-0.00820099
-0.493867
0.480473
-0.00738437
0.47499
-0.00644857
0.470404
-0.00545051
0.46676
-0.00439711
0.464092
-0.00329482
0.462433
-0.00214992
0.46181
-0.000969018
0.462244
0.000240698
0.00147161
0.563215
-0.571416
0.555831
0.549382
0.543931
0.539534
0.53624
0.53409
0.533121
0.533361
0.126774
0.00230699
-0.00221521
0.126516
0.00699724
-0.00673902
0.126097
0.0120889
-0.0116707
0.125521
0.0179653
-0.017389
0.124841
0.0249858
-0.0243055
0.124112
0.0342015
-0.033473
0.123797
0.045505
-0.0451899
0.124058
0.0632166
-0.0634769
0.128776
0.0811776
-0.0858962
0.120585
-0.132809
0.147933