/*--------------------------------*- C++ -*----------------------------------*\
  =========                 |
  \\      /  F ield         | OpenFOAM: The Open Source CFD Toolbox
   \\    /   O peration     | Website:  https://openfoam.org
    \\  /    A nd           | Version:  6.0
     \\/     M anipulation  |
\*---------------------------------------------------------------------------*/
FoamFile
{
    version     2.0;
    format      ascii;
    class       volVectorField;
    location    "16.485";
    object      U;
}
// * * * * * * * * * * * * * * * * * * * * * * * * * * * * * * * * * * * * * //

dimensions      [0 1 -1 0 0 0 0];

internalField   nonuniform List<vector> 
2400
(
(0.01795 -0.435692 -1.21755e-20)
(0.00557013 -0.340753 5.44486e-21)
(-0.00400855 -0.269216 -6.04838e-21)
(-0.0111747 -0.21554 -3.92738e-21)
(-0.0159014 -0.17514 -6.87008e-21)
(-0.0182793 -0.144426 9.47496e-21)
(-0.0187428 -0.120682 3.86883e-21)
(-0.0177968 -0.101898 3.63997e-21)
(-0.0159224 -0.0866055 -8.47111e-21)
(-0.014099 -0.0737712 -6.46883e-22)
(0.0516592 -0.429265 1.3568e-20)
(0.0321738 -0.33296 -1.38736e-21)
(0.0183871 -0.262239 2.84404e-21)
(0.00914113 -0.210458 3.70293e-20)
(0.0038924 -0.17235 -2.82105e-20)
(0.00211741 -0.143876 -1.49723e-21)
(0.00305028 -0.12204 -3.26982e-22)
(0.00594884 -0.104636 -3.77739e-21)
(0.0101754 -0.0900442 -6.70568e-21)
(0.0144314 -0.0771879 -2.6593e-21)
(0.0845947 -0.420617 2.50252e-20)
(0.058268 -0.324289 2.55511e-20)
(0.041204 -0.255404 -7.38006e-20)
(0.0311195 -0.206281 2.44521e-20)
(0.026731 -0.171028 4.07131e-20)
(0.0270019 -0.145219 -2.35209e-20)
(0.0307925 -0.12561 -2.03038e-20)
(0.0371073 -0.109807 1.91762e-20)
(0.045153 -0.0960028 -4.37607e-20)
(0.0532097 -0.0830653 4.65387e-20)
(0.116733 -0.409997 -8.75542e-20)
(0.0841446 -0.315232 4.37739e-20)
(0.0649763 -0.249252 -4.33477e-20)
(0.0554709 -0.203498 2.2268e-20)
(0.0534375 -0.171579 -2.59154e-20)
(0.0572492 -0.148773 4.1636e-20)
(0.0653582 -0.131656 2.26237e-20)
(0.0765098 -0.117658 -6.84753e-20)
(0.0897658 -0.104737 -6.71805e-20)
(0.102882 -0.0916767 7.90133e-20)
(0.148099 -0.397645 3.59599e-21)
(0.110254 -0.306187 -1.70354e-20)
(0.0904731 -0.244157 -7.61924e-21)
(0.0831847 -0.202357 -9.50263e-21)
(0.0851331 -0.174077 -6.43404e-20)
(0.0940338 -0.154439 1.05705e-20)
(0.107906 -0.139945 -7.06902e-21)
(0.125241 -0.127893 7.48359e-20)
(0.144985 -0.115957 -5.28318e-20)
(0.164272 -0.102799 -3.85224e-20)
(0.178794 -0.383789 8.4666e-20)
(0.137215 -0.297457 -8.62716e-21)
(0.118684 -0.240303 1.32287e-19)
(0.115498 -0.202823 -1.7044e-20)
(0.123197 -0.178217 8.31722e-20)
(0.138782 -0.161629 -9.4905e-21)
(0.159817 -0.149637 -7.75035e-22)
(0.184561 -0.139509 6.11339e-20)
(0.211901 -0.128629 -3.42489e-20)
(0.238283 -0.115501 6.62081e-20)
(0.209 -0.368639 -3.20802e-20)
(0.1658 -0.289226 1.14221e-20)
(0.150775 -0.237674 -3.39524e-20)
(0.153822 -0.204584 -4.26906e-20)
(0.169173 -0.183329 -4.58587e-21)
(0.193063 -0.169273 1.41164e-19)
(0.222586 -0.159269 -5.08734e-20)
(0.255782 -0.150745 2.5323e-20)
(0.291586 -0.140883 -8.77967e-20)
(0.325771 -0.128042 -5.60095e-20)
(0.238985 -0.352371 1.54535e-19)
(0.196899 -0.281536 -1.75426e-20)
(0.188 -0.236039 -1.84429e-19)
(0.199611 -0.207072 1.04315e-20)
(0.224587 -0.188438 4.52008e-20)
(0.258368 -0.175908 -6.76279e-20)
(0.297544 -0.16682 -9.14314e-20)
(0.339942 -0.159041 1.39459e-19)
(0.384728 -0.14979 -1.18444e-20)
(0.427254 -0.137467 -1.29499e-19)
(0.269099 -0.335099 -1.29836e-19)
(0.231453 -0.274249 7.6764e-20)
(0.231575 -0.234951 1.2186e-19)
(0.254184 -0.209523 3.33536e-20)
(0.290751 -0.192418 -1.30772e-19)
(0.335889 -0.179897 8.70669e-20)
(0.385607 -0.169867 5.439e-20)
(0.437399 -0.160788 1.15278e-19)
(0.490811 -0.150214 -7.05256e-20)
(0.541672 -0.137531 -1.0416e-19)
(0.299735 -0.316805 4.42579e-20)
(0.27032 -0.266976 -1.82525e-20)
(0.282484 -0.233749 -6.15995e-22)
(0.318515 -0.211119 3.79693e-20)
(0.368637 -0.194382 3.24512e-20)
(0.426753 -0.180265 -2.29097e-20)
(0.488363 -0.167011 -4.63697e-20)
(0.550427 -0.153324 7.43516e-20)
(0.612064 -0.137262 -6.31456e-20)
(0.670009 -0.12113 5.83452e-20)
(0.617047 -0.00932681 3.94257e-21)
(0.590623 -0.0552019 1.13824e-20)
(0.561087 -0.0972485 -3.806e-20)
(0.52939 -0.135427 3.34169e-20)
(0.496362 -0.169846 1.25726e-20)
(0.462724 -0.200747 1.55946e-19)
(0.429043 -0.228479 -5.96521e-20)
(0.395734 -0.253461 -7.99098e-20)
(0.363065 -0.276173 8.28621e-20)
(0.331147 -0.297137 -1.4352e-19)
(0.831759 0.0173844 1.39832e-20)
(0.779074 -0.0410836 -4.49967e-21)
(0.720796 -0.0921058 -3.77588e-20)
(0.659087 -0.135339 1.00088e-19)
(0.595997 -0.170854 -3.34125e-20)
(0.533386 -0.199108 2.51577e-19)
(0.472831 -0.220895 -1.55142e-19)
(0.415567 -0.237277 2.21207e-19)
(0.362464 -0.249524 -1.50509e-19)
(0.314012 -0.259006 -7.68228e-20)
(1.0169 0.0668612 -2.77762e-20)
(0.953498 -0.000753545 4.07733e-21)
(0.881203 -0.0600514 -1.20528e-19)
(0.802688 -0.110108 9.27143e-20)
(0.720698 -0.150539 -9.37347e-20)
(0.637895 -0.181513 -1.75429e-19)
(0.556705 -0.203726 -5.68433e-20)
(0.479182 -0.218361 -4.85365e-20)
(0.406929 -0.227007 1.53652e-19)
(0.341101 -0.231526 7.92927e-20)
(1.16662 0.116869 1.26892e-20)
(1.1025 0.0441845 -2.22046e-20)
(1.02633 -0.020858 -3.00621e-20)
(0.940743 -0.0767722 -1.1788e-19)
(0.848685 -0.122603 6.87226e-20)
(0.753232 -0.157998 1.98713e-19)
(0.657385 -0.183257 8.55587e-20)
(0.563867 -0.199347 1.65705e-20)
(0.47498 -0.207879 4.52988e-20)
(0.39262 -0.211019 -1.44806e-21)
(1.28108 0.159509 -1.49673e-20)
(1.22248 0.0854334 -5.87883e-20)
(1.14937 0.0175424 7.89831e-21)
(1.06394 -0.0422696 1.02075e-19)
(0.968898 -0.0925279 1.04847e-19)
(0.867341 -0.132305 -6.91113e-20)
(0.7625 -0.161348 -1.28631e-19)
(0.657495 -0.180196 -6.20504e-20)
(0.555114 -0.190273 7.27244e-20)
(0.457861 -0.193969 9.92303e-20)
(1.36384 0.192934 3.12941e-21)
(1.31423 0.120327 4.99795e-20)
(1.24858 0.0521646 -1.17021e-19)
(1.16841 -0.00944775 1.46536e-19)
(1.07588 -0.062652 8.63973e-20)
(0.973739 -0.105994 1.56728e-19)
(0.865094 -0.138612 -3.35089e-20)
(0.753115 -0.160469 -8.91951e-20)
(0.640696 -0.172629 2.11236e-19)
(0.530506 -0.177705 -1.71596e-19)
(1.41994 0.217084 7.69515e-21)
(1.3807 0.147892 -6.0083e-20)
(1.32487 0.0814498 -3.7367e-20)
(1.2532 0.0198866 -7.97824e-20)
(1.16714 -0.0347259 -1.12664e-20)
(1.06883 -0.0805149 -1.17298e-19)
(0.960958 -0.11601 -7.25615e-20)
(0.846391 -0.140478 -1.50191e-20)
(0.727611 -0.154411 -1.31053e-19)
(0.606491 -0.160674 1.86107e-19)
(1.45468 0.232935 -6.80836e-21)
(1.42575 0.16825 5.02522e-20)
(1.38055 0.104856 -2.23486e-20)
(1.31909 0.0447475 4.99664e-20)
(1.24207 -0.00995772 1.22553e-19)
(1.15091 -0.0571067 1.99399e-19)
(1.0477 -0.0946595 -5.73011e-20)
(0.934771 -0.121025 -1.96304e-19)
(0.813683 -0.135709 5.33795e-20)
(0.683844 -0.141594 -3.06051e-19)
(1.4728 0.242093 9.9182e-21)
(1.45326 0.182233 -1.18219e-20)
(1.41838 0.12249 -1.21297e-19)
(1.36762 0.0646111 3.70439e-20)
(1.30097 0.0106007 -8.59356e-20)
(1.21916 -0.0372711 -3.56307e-20)
(1.12365 -0.076482 -2.8403e-20)
(1.01629 -0.104395 8.16527e-20)
(0.897678 -0.118629 9.40382e-20)
(0.762795 -0.120281 5.73973e-20)
(1.47802 0.246142 -2.40757e-20)
(1.46648 0.191227 4.3157e-20)
(1.44101 0.13541 2.01359e-20)
(1.40059 0.0800971 6.13814e-20)
(1.34467 0.0270343 -7.05243e-21)
(1.27335 -0.021591 -4.70779e-21)
(1.18758 -0.0630061 -1.59011e-19)
(1.08909 -0.0936763 2.02843e-19)
(0.978619 -0.108804 -1.25534e-19)
(0.845444 -0.103722 2.62425e-20)
(0.537344 0.499342 -5.48769e-20)
(0.57715 0.459963 6.34813e-20)
(0.61061 0.415146 1.12937e-21)
(0.637056 0.365855 -1.58296e-19)
(0.65598 0.313176 1.17824e-19)
(0.66715 0.258301 -8.85592e-20)
(0.670615 0.202449 -2.16175e-20)
(0.66669 0.146796 -2.06383e-20)
(0.655947 0.092409 3.42018e-20)
(0.639164 0.0401681 2.37609e-21)
(0.751678 0.673298 8.07776e-20)
(0.811951 0.630977 2.16206e-20)
(0.862859 0.578537 -1.12601e-19)
(0.902855 0.517525 -1.385e-19)
(0.930694 0.449737 1.09759e-19)
(0.945563 0.377199 -9.87271e-20)
(0.94714 0.302072 1.17945e-19)
(0.935621 0.226546 -3.09369e-20)
(0.911721 0.152721 -1.03667e-19)
(0.87663 0.0824764 -7.79441e-21)
(0.885424 0.75357 -6.10755e-21)
(0.95755 0.717272 2.08327e-21)
(1.02025 0.668648 7.48291e-20)
(1.07141 0.609176 7.59117e-20)
(1.10925 0.540646 1.74704e-19)
(1.13238 0.465149 6.28253e-20)
(1.13992 0.385007 -4.23644e-20)
(1.13158 0.302681 -9.35103e-20)
(1.10763 0.22066 7.58805e-20)
(1.06896 0.141332 5.22598e-21)
(0.966907 0.773249 2.12905e-20)
(1.04487 0.745266 -5.07737e-20)
(1.11463 0.704458 -2.52158e-20)
(1.1738 0.651989 -1.43846e-19)
(1.22027 0.58934 -8.81929e-20)
(1.25228 0.518322 1.69722e-19)
(1.26849 0.44103 1.15728e-19)
(1.26803 0.359779 -9.74789e-20)
(1.2506 0.277024 4.53465e-21)
(1.21653 0.195254 -4.35685e-21)
(1.01506 0.756913 -5.70587e-20)
(1.09475 0.736701 9.76152e-20)
(1.16783 0.704218 -2.54854e-20)
(1.23185 0.660248 7.78654e-20)
(1.28458 0.605883 -5.43688e-20)
(1.3241 0.542552 -1.02235e-19)
(1.34879 0.47198 5.45345e-20)
(1.35739 0.396147 -5.77059e-20)
(1.3491 0.317238 -5.77013e-20)
(1.3236 0.237574 2.53101e-20)
(1.04289 0.721432 -1.03309e-20)
(1.12175 0.707498 1.77089e-20)
(1.19548 0.682443 -1.69481e-20)
(1.2616 0.646629 -1.47174e-19)
(1.31801 0.600783 8.49232e-20)
(1.36283 0.545977 1.70511e-20)
(1.3944 0.483561 -9.3817e-20)
(1.41126 0.415137 -3.46522e-20)
(1.41225 0.342532 3.25044e-20)
(1.39659 0.267756 -9.21376e-21)
(1.05899 0.677492 -1.19891e-20)
(1.13586 0.668281 4.8963e-21)
(1.2085 0.649366 2.33395e-20)
(1.27456 0.620609 8.30433e-20)
(1.33229 0.582448 2.11054e-20)
(1.38007 0.535693 5.37664e-20)
(1.41637 0.481395 1.14538e-19)
(1.43972 0.420823 -4.90199e-20)
(1.44881 0.355451 4.59748e-20)
(1.44251 0.286936 -1.73183e-20)
(1.06886 0.631508 -1.27211e-20)
(1.14341 0.626096 1.85397e-20)
(1.21383 0.61219 1.79072e-20)
(1.27818 0.589182 -4.29331e-20)
(1.33529 0.557405 -2.82544e-20)
(1.38397 0.517556 -5.88459e-20)
(1.4229 0.470499 8.34251e-21)
(1.45075 0.417256 -1.39083e-20)
(1.46615 0.359006 -9.78712e-20)
(1.46786 0.297076 1.37752e-20)
(1.07665 0.587814 -1.95842e-21)
(1.14822 0.585954 -1.24045e-20)
(1.21523 0.576061 -1.53383e-20)
(1.27649 0.557409 9.42203e-21)
(1.33153 0.530534 -3.95956e-21)
(1.37954 0.496178 5.21839e-20)
(1.41943 0.455103 2.36374e-20)
(1.44998 0.408161 3.82033e-20)
(1.46993 0.356296 4.69944e-20)
(1.47797 0.300556 -2.02315e-20)
(1.08848 0.548019 -1.33448e-21)
(1.15516 0.54762 2.06187e-20)
(1.21671 0.540198 -5.8667e-20)
(1.2732 0.524619 -4.29191e-21)
(1.32474 0.501569 7.77779e-20)
(1.37064 0.471804 3.80373e-21)
(1.40994 0.435968 4.71278e-20)
(1.44152 0.394729 -1.04504e-19)
(1.46423 0.34881 -1.27944e-21)
(1.47683 0.298996 1.07369e-20)
(0.596858 0.191494 -8.23657e-21)
(0.556094 0.206951 2.90166e-21)
(0.509403 0.225417 9.60519e-22)
(0.456006 0.248043 -1.55282e-20)
(0.394979 0.276326 6.91614e-21)
(0.325815 0.311828 2.05079e-20)
(0.248939 0.355548 -1.91259e-20)
(0.166624 0.406561 -4.92451e-21)
(0.0870831 0.459451 -5.92534e-21)
(0.0323284 0.499889 -2.17928e-20)
(0.619208 0.249167 -2.26647e-20)
(0.580331 0.269442 4.77479e-20)
(0.535566 0.29317 -4.40078e-20)
(0.484453 0.32124 -7.47723e-21)
(0.42612 0.354673 1.24537e-20)
(0.360045 0.394066 -1.4678e-20)
(0.286544 0.438661 -4.15418e-20)
(0.207529 0.484605 4.82537e-20)
(0.130293 0.521711 -7.56432e-23)
(0.0748161 0.52798 2.2058e-20)
(0.649042 0.304026 -7.55732e-20)
(0.612771 0.328885 8.04588e-20)
(0.570625 0.357641 2.80588e-20)
(0.522545 0.390862 1.5397e-21)
(0.467663 0.429092 1.80519e-20)
(0.405312 0.471964 7.1156e-21)
(0.335472 0.516993 -1.18344e-20)
(0.259292 0.557487 -2.61834e-20)
(0.182415 0.578737 -1.91895e-20)
(0.121434 0.551686 2.82981e-20)
(0.685991 0.355081 -6.25972e-20)
(0.652958 0.384178 5.88143e-20)
(0.61406 0.417597 4.7266e-20)
(0.569699 0.45551 -3.23665e-20)
(0.51895 0.497983 -1.19559e-19)
(0.460871 0.543709 3.86756e-20)
(0.394886 0.588543 -2.7855e-20)
(0.321009 0.623132 7.62902e-20)
(0.242582 0.628682 6.73729e-20)
(0.171592 0.570037 -5.96611e-20)
(0.729538 0.401444 -4.49197e-20)
(0.700258 0.434326 2.0417e-20)
(0.665148 0.471914 -5.67479e-20)
(0.625098 0.513895 4.45922e-20)
(0.579047 0.559863 -2.1516e-20)
(0.525659 0.607615 -1.81125e-20)
(0.46359 0.651449 -1.81919e-20)
(0.391394 0.67962 -3.10634e-21)
(0.309556 0.66985 -2.67651e-20)
(0.224481 0.582171 -1.59873e-20)
(0.779002 0.442355 1.12843e-19)
(0.753848 0.478477 2.30173e-20)
(0.722958 0.519607 -7.73698e-20)
(0.687692 0.564867 7.25448e-20)
(0.646761 0.613401 3.33038e-20)
(0.59831 0.662165 5.41814e-20)
(0.540052 0.70405 -3.18907e-21)
(0.468801 0.725259 3.33947e-20)
(0.381773 0.700784 8.23113e-21)
(0.279116 0.587389 3.2548e-20)
(0.833509 0.477221 -1.2248e-19)
(0.8127 0.515941 1.41891e-19)
(0.786339 0.559848 -6.87106e-20)
(0.756198 0.607434 -3.86085e-20)
(0.720644 0.657439 6.28923e-22)
(0.677185 0.706049 -5.28793e-20)
(0.622435 0.744928 3.59303e-20)
(0.551273 0.758639 4.10059e-20)
(0.457398 0.720315 5.63705e-21)
(0.334374 0.585181 -2.43792e-20)
(0.891934 0.505712 -8.87947e-21)
(0.875532 0.546218 -5.53333e-20)
(0.853899 0.591959 2.35082e-20)
(0.829108 0.640762 -5.29069e-21)
(0.799018 0.691007 -1.86843e-20)
(0.760395 0.738187 9.6586e-21)
(0.708644 0.772948 -3.88365e-21)
(0.636602 0.778684 -7.55375e-21)
(0.534386 0.727617 4.81579e-21)
(0.389047 0.575253 -8.06836e-21)
(0.95287 0.52797 1.92244e-20)
(0.940802 0.569221 6.30565e-21)
(0.924101 0.615565 -3.99098e-20)
(0.90481 0.664254 3.11422e-20)
(0.880071 0.713365 -1.47659e-20)
(0.845884 0.757762 -2.42936e-21)
(0.796399 0.787294 -6.72153e-21)
(0.722404 0.784687 -1.97803e-21)
(0.610577 0.722238 -4.86621e-20)
(0.441902 0.557556 3.07517e-20)
(1.01297 0.541691 -2.6008e-20)
(1.00491 0.582847 1.89619e-20)
(0.994226 0.629126 -6.23849e-21)
(0.981048 0.67686 -2.8547e-21)
(0.96162 0.723736 -9.48015e-21)
(0.931367 0.764141 -4.74913e-21)
(0.883265 0.787463 6.6249e-21)
(0.806195 0.776322 3.50616e-20)
(0.683783 0.7041 4.68274e-20)
(0.491764 0.532251 7.19825e-21)
(0.770646 -0.319065 1.38677e-19)
(0.741501 -0.340437 -8.66179e-20)
(0.704442 -0.359892 3.29154e-20)
(0.658838 -0.372337 -7.50926e-20)
(0.599916 -0.373057 -4.92125e-20)
(0.521627 -0.354511 -7.63416e-20)
(0.416362 -0.305758 -9.28342e-20)
(0.274559 -0.212386 -4.25688e-20)
(0.0848839 -0.0561143 -5.90806e-20)
(-0.167144 0.185937 2.93906e-20)
(0.727924 -0.285799 -8.31332e-20)
(0.697679 -0.305743 -6.89413e-20)
(0.658781 -0.324343 1.19141e-19)
(0.611505 -0.337042 5.86702e-20)
(0.552099 -0.339012 8.72133e-20)
(0.47525 -0.32268 -1.47036e-19)
(0.374331 -0.27696 5.06818e-20)
(0.241196 -0.186951 1.03965e-19)
(0.0668905 -0.0332071 7.09706e-20)
(-0.15844 0.209514 -7.58104e-20)
(0.687895 -0.246255 3.92038e-20)
(0.65572 -0.264184 -1.59682e-20)
(0.61521 -0.281194 1.69106e-19)
(0.566379 -0.293165 -1.01964e-19)
(0.506201 -0.295319 -8.31988e-20)
(0.43022 -0.28026 4.79545e-20)
(0.332934 -0.237093 -6.83186e-22)
(0.207821 -0.150952 -2.09046e-19)
(0.0486564 -0.00207681 -8.46149e-21)
(-0.149182 0.235741 6.6698e-20)
(0.652869 -0.202356 2.59386e-19)
(0.618348 -0.217503 -1.21338e-19)
(0.575974 -0.231854 4.0827e-20)
(0.525425 -0.241838 -6.97839e-20)
(0.464185 -0.242908 1.82453e-19)
(0.38861 -0.22801 -9.72765e-21)
(0.294344 -0.186719 -3.44521e-20)
(0.176576 -0.104714 5.31699e-21)
(0.0319783 0.0371851 1.72698e-20)
(-0.138544 0.26462 -8.70128e-20)
(0.623635 -0.154016 -2.2426e-19)
(0.586746 -0.165814 -2.43756e-21)
(0.542466 -0.17673 9.12468e-20)
(0.490186 -0.183729 -4.4542e-21)
(0.427785 -0.182609 -1.04798e-20)
(0.352358 -0.166815 1.20191e-19)
(0.260655 -0.126678 -2.24799e-20)
(0.149558 -0.0489369 2.7789e-20)
(0.0186358 0.084102 5.37579e-21)
(-0.125718 0.295928 1.16056e-19)
(0.600804 -0.101617 8.26042e-21)
(0.561794 -0.1096 -1.31552e-19)
(0.515799 -0.116477 1.18692e-19)
(0.461977 -0.119682 -1.04281e-20)
(0.398526 -0.115423 2.01449e-20)
(0.323203 -0.0977832 -1.01487e-19)
(0.23378 -0.058108 -1.51946e-20)
(0.128722 0.0153199 -7.60605e-21)
(0.0103097 0.137836 -5.31881e-20)
(-0.109941 0.329244 -2.52635e-20)
(0.584902 -0.0458841 1.15648e-19)
(0.544208 -0.0496409 -1.1033e-19)
(0.496871 -0.0519862 -5.23925e-21)
(0.441879 -0.0507386 -1.31094e-19)
(0.377693 -0.0425503 7.16305e-20)
(0.302639 -0.0222491 -4.53755e-20)
(0.215387 0.0175768 3.80946e-20)
(0.115791 0.0866726 -7.31369e-20)
(0.00850204 0.197229 -6.86179e-20)
(-0.0905323 0.363963 -4.92149e-20)
(0.576337 0.0123067 7.24747e-20)
(0.534538 0.013111 -7.36689e-20)
(0.486375 0.0156834 3.2678e-20)
(0.430739 0.0218941 2.30443e-20)
(0.366309 0.0346342 -4.25872e-20)
(0.291875 0.0582477 7.32271e-20)
(0.206846 0.0987176 4.46461e-20)
(0.112202 0.163456 -1.35762e-19)
(0.0144712 0.260841 2.28752e-20)
(-0.066934 0.399325 5.92687e-20)
(0.575391 0.0719738 7.69191e-20)
(0.533174 0.0775759 -1.16787e-20)
(0.484802 0.0853371 -6.69515e-21)
(0.42917 0.0968704 -5.32805e-22)
(0.365126 0.114605 2.86091e-20)
(0.291816 0.141995 -8.45563e-20)
(0.209198 0.183451 6.97556e-20)
(0.119057 0.243769 5.43501e-21)
(0.0291842 0.327005 -2.55996e-21)
(-0.0387399 0.434445 4.33526e-20)
(0.582221 0.132064 -2.2328e-20)
(0.54034 0.142589 -2.34912e-21)
(0.492448 0.15569 6.20826e-21)
(0.437547 0.172748 6.90517e-21)
(0.37462 0.195729 1.74105e-20)
(0.303047 0.227155 -1.25903e-20)
(0.223129 0.26976 -7.39175e-21)
(0.137088 0.325533 -1.15237e-20)
(0.0532908 0.393873 1.0667e-20)
(-0.0056981 0.468349 -7.80305e-21)
(0.830317 -0.352556 1.37156e-19)
(0.880111 -0.374709 -5.04486e-20)
(0.925854 -0.391462 1.31476e-20)
(0.967732 -0.400931 5.39661e-20)
(1.00586 -0.403292 2.76879e-20)
(1.03935 -0.398958 2.28886e-21)
(1.06684 -0.388135 2.92153e-21)
(1.0868 -0.37104 -2.03297e-21)
(1.09759 -0.348015 -1.22659e-21)
(1.09748 -0.319593 9.93647e-22)
(0.794016 -0.370032 6.32692e-20)
(0.845899 -0.391741 5.1058e-20)
(0.894504 -0.406958 4.73779e-20)
(0.938551 -0.4144 -1.39503e-20)
(0.977356 -0.414057 -1.21783e-20)
(1.00992 -0.406278 -9.93848e-21)
(1.03488 -0.391416 1.81758e-21)
(1.05068 -0.369942 2.49994e-21)
(1.05571 -0.342526 1.72965e-21)
(1.04845 -0.310083 -1.9591e-21)
(0.755405 -0.387034 -1.8611e-19)
(0.807262 -0.406328 1.85932e-20)
(0.856331 -0.418358 -8.99e-20)
(0.900371 -0.422349 -1.39962e-20)
(0.938007 -0.418172 4.50783e-20)
(0.96792 -0.406142 1.38977e-20)
(0.988641 -0.386782 -1.24282e-21)
(0.998656 -0.360836 -1.23792e-21)
(0.996536 -0.329311 -6.89859e-21)
(0.981098 -0.293506 1.36897e-21)
(0.708984 -0.397953 -4.92578e-20)
(0.759396 -0.414606 -7.15166e-20)
(0.80685 -0.422864 -6.82908e-21)
(0.848781 -0.422504 -2.29583e-20)
(0.883297 -0.413618 -2.35892e-20)
(0.908761 -0.396701 -2.20932e-21)
(0.923636 -0.372542 -2.86061e-21)
(0.92654 -0.342219 3.12933e-22)
(0.916359 -0.307104 7.06057e-21)
(0.892399 -0.268859 -1.60751e-21)
(0.64876 -0.39663 -1.06576e-19)
(0.696588 -0.410162 1.11522e-19)
(0.740661 -0.414235 6.12351e-21)
(0.778429 -0.409115 -5.14767e-21)
(0.80779 -0.395283 1.27425e-20)
(0.826994 -0.373572 4.24572e-21)
(0.834585 -0.345133 -5.07608e-21)
(0.829458 -0.311416 8.4625e-21)
(0.810948 -0.274149 -1.3353e-21)
(0.778955 -0.235288 -6.60761e-22)
(0.56767 -0.375222 1.53231e-19)
(0.611304 -0.385167 -8.48071e-20)
(0.650093 -0.385027 -2.56742e-20)
(0.681665 -0.375487 -5.98849e-21)
(0.703998 -0.357466 -1.00053e-20)
(0.715478 -0.332198 4.40088e-21)
(0.714928 -0.301217 -4.9648e-21)
(0.701667 -0.266318 -3.29657e-21)
(0.675579 -0.229497 2.26551e-21)
(0.637184 -0.192859 2.94574e-21)
(0.456956 -0.323231 2.49565e-20)
(0.493974 -0.329841 1.53286e-20)
(0.525229 -0.326461 3.04155e-21)
(0.548644 -0.314147 -9.26317e-21)
(0.562494 -0.29421 2.87128e-20)
(0.565519 -0.268246 8.08891e-22)
(0.55698 -0.23809 3.73054e-22)
(0.536713 -0.205746 8.42955e-22)
(0.505163 -0.173294 3.14247e-21)
(0.463386 -0.142779 -2.24056e-21)
(0.305778 -0.227274 7.22278e-20)
(0.332858 -0.232236 5.12228e-20)
(0.353957 -0.228353 -8.62094e-20)
(0.36742 -0.216933 -1.60596e-20)
(0.371984 -0.199532 -2.71426e-20)
(0.366875 -0.177918 -1.58108e-21)
(0.351861 -0.154001 -7.85354e-21)
(0.327268 -0.129738 1.02704e-20)
(0.293975 -0.107027 -1.21e-22)
(0.253353 -0.0875919 4.75997e-21)
(0.100851 -0.0710446 -1.32192e-20)
(0.113325 -0.0786074 -8.57712e-20)
(0.12099 -0.0799197 6.43847e-20)
(0.122771 -0.0762639 -2.11175e-20)
(0.117965 -0.069081 2.68482e-20)
(0.106304 -0.0599247 -1.39031e-21)
(0.0879697 -0.05038 -6.43811e-21)
(0.0635782 -0.0419696 4.42159e-22)
(0.0341391 -0.0360639 -4.17047e-22)
(0.00096924 -0.0338061 -2.43306e-21)
(-0.17613 0.164722 -1.31728e-20)
(-0.185669 0.145841 4.49823e-20)
(-0.196349 0.128642 -1.86318e-20)
(-0.208497 0.112485 5.46697e-21)
(-0.222231 0.0967147 -5.4465e-21)
(-0.237466 0.0806719 -4.89593e-22)
(-0.25391 0.0637294 1.07466e-21)
(-0.271095 0.0453373 4.98246e-21)
(-0.288413 0.0250593 -2.36473e-21)
(-0.305176 0.00258312 -8.40858e-22)
(1.08486 -0.286572 1.60195e-21)
(1.05842 -0.250154 -7.79791e-21)
(1.01747 -0.211987 4.27773e-20)
(0.962129 -0.174206 -3.10891e-20)
(0.89358 -0.139371 3.67039e-21)
(0.814012 -0.11031 -3.15899e-20)
(0.726318 -0.0898212 1.5872e-19)
(0.633241 -0.080262 7.97318e-21)
(0.533441 -0.0835618 -4.72747e-20)
(0.415486 -0.0961738 1.06732e-19)
(1.02758 -0.273839 5.27649e-21)
(0.992339 -0.235427 -1.57349e-20)
(0.942684 -0.196851 -1.59633e-20)
(0.879482 -0.16044 -1.17879e-20)
(0.804569 -0.128702 -3.3922e-20)
(0.720572 -0.104096 -8.06771e-22)
(0.630396 -0.0886914 -1.04096e-20)
(0.536214 -0.083688 2.92035e-20)
(0.436884 -0.0889311 9.42646e-20)
(0.326802 -0.0979107 -2.08059e-20)
(0.951537 -0.255024 -3.56829e-21)
(0.907734 -0.215828 3.159e-20)
(0.850375 -0.178114 8.2635e-21)
(0.781022 -0.144205 -1.77616e-21)
(0.70205 -0.11635 3.69822e-20)
(0.616363 -0.0964579 1.60668e-20)
(0.526847 -0.0857477 3.11378e-20)
(0.435555 -0.0842618 -3.37457e-20)
(0.342438 -0.0902739 -6.72913e-20)
(0.246234 -0.0973148 -1.58165e-19)
(0.854473 -0.229399 4.37771e-21)
(0.803176 -0.190887 -1.39175e-20)
(0.739902 -0.155543 2.02314e-20)
(0.6668 -0.125501 -4.59956e-20)
(0.586619 -0.102597 -2.72329e-20)
(0.502379 -0.0881097 -1.28852e-20)
(0.416899 -0.0824632 -6.52951e-20)
(0.332238 -0.0848793 -3.01968e-20)
(0.249269 -0.0930139 3.65218e-21)
(0.168882 -0.101701 4.90126e-20)
(0.733956 -0.196931 2.17025e-21)
(0.677226 -0.16127 -2.84041e-23)
(0.610749 -0.130361 1.33505e-20)
(0.53707 -0.10598 4.10901e-20)
(0.45909 -0.0894371 -6.96067e-21)
(0.379757 -0.0813709 -6.07613e-20)
(0.301686 -0.0815485 1.02411e-19)
(0.226846 -0.0886827 -3.12271e-20)
(0.156488 -0.100309 -2.3478e-20)
(0.0920623 -0.112462 -1.10801e-20)
(0.587571 -0.158503 -5.98514e-21)
(0.52855 -0.128443 6.32454e-21)
(0.462478 -0.104388 2.09297e-20)
(0.392035 -0.0876279 -2.01511e-20)
(0.320026 -0.0789021 4.00226e-20)
(0.249118 -0.0782715 -4.88491e-21)
(0.181581 -0.0850191 3.83626e-21)
(0.119123 -0.0975964 2.57613e-20)
(0.0629522 -0.11365 2.01798e-20)
(0.014319 -0.130105 6.51036e-21)
(0.412912 -0.116078 8.87398e-22)
(0.355835 -0.0948238 -1.20253e-21)
(0.294598 -0.0802335 2.99067e-20)
(0.231727 -0.0730523 -3.58197e-20)
(0.169686 -0.0734827 -6.82277e-20)
(0.110683 -0.0811343 3.2933e-20)
(0.0565223 -0.0950019 -1.74373e-20)
(0.00853481 -0.113485 1.86492e-20)
(-0.0323369 -0.134477 5.2472e-20)
(-0.0652671 -0.15556 -5.67934e-20)
(0.207094 -0.0728779 -9.44617e-22)
(0.157249 -0.0639551 -1.87381e-20)
(0.10602 -0.061489 2.65635e-20)
(0.0555052 -0.0657074 1.6404e-20)
(0.00761786 -0.0763884 -5.00669e-20)
(-0.0360161 -0.0928704 -3.93756e-20)
(-0.0741279 -0.114072 -2.80391e-21)
(-0.105812 -0.138534 6.13419e-21)
(-0.130457 -0.164503 7.95375e-21)
(-0.147624 -0.190105 -2.21468e-20)
(-0.0344573 -0.0360481 1.59355e-21)
(-0.0705157 -0.0431787 2.59334e-20)
(-0.105594 -0.0553677 1.06902e-20)
(-0.138268 -0.0724574 -3.51524e-20)
(-0.167324 -0.0939929 3.48505e-20)
(-0.191799 -0.119267 -4.57408e-20)
(-0.210983 -0.147353 5.99953e-20)
(-0.224393 -0.177127 -7.21501e-20)
(-0.231729 -0.207322 -3.82148e-20)
(-0.232814 -0.23662 -1.02899e-19)
(-0.320632 -0.0223048 -4.54395e-22)
(-0.334064 -0.0492588 -7.55884e-21)
(-0.344851 -0.0781964 5.61015e-21)
(-0.35247 -0.108831 6.684e-21)
(-0.356536 -0.140764 -1.51069e-20)
(-0.356791 -0.173526 1.49081e-20)
(-0.353085 -0.206597 -1.8257e-20)
(-0.345344 -0.239408 1.41622e-20)
(-0.333551 -0.271354 -3.59783e-20)
(-0.317709 -0.301829 3.97051e-20)
(-0.297732 -0.330216 5.68606e-20)
(-0.227626 -0.26382 -4.26686e-20)
(-0.15703 -0.21375 -4.42897e-20)
(-0.089325 -0.174712 5.95579e-20)
(-0.0247227 -0.144207 -5.45829e-21)
(0.037307 -0.120877 7.09108e-20)
(0.0969331 -0.10344 8.08316e-21)
(0.154382 -0.0910187 -6.37334e-20)
(0.210968 -0.0837013 1.1773e-19)
(0.265909 -0.0783749 -1.62258e-20)
(-0.274273 -0.355633 -6.00732e-20)
(-0.216671 -0.287933 1.64531e-19)
(-0.158844 -0.234542 -6.88893e-21)
(-0.103971 -0.191405 -5.438e-20)
(-0.0521911 -0.156344 4.31589e-20)
(-0.00288129 -0.127965 -9.82914e-20)
(0.0443359 -0.104899 1.13289e-19)
(0.090066 -0.0861774 -9.58503e-20)
(0.135799 -0.0720521 1.72203e-20)
(0.179854 -0.0619473 7.49464e-20)
(-0.247724 -0.377968 3.4485e-20)
(-0.200676 -0.30851 -1.03656e-19)
(-0.153935 -0.252021 3.60105e-20)
(-0.110198 -0.205455 -1.9933e-20)
(-0.069403 -0.166936 3.68488e-20)
(-0.0307825 -0.135168 -2.7578e-20)
(0.00619866 -0.108973 -2.62121e-20)
(0.0421975 -0.0876337 3.5574e-20)
(0.0781962 -0.0714299 -8.30837e-20)
(0.112173 -0.0602387 1.24797e-19)
(-0.218555 -0.397012 -7.36298e-20)
(-0.180558 -0.325255 8.0665e-21)
(-0.143522 -0.265873 3.77264e-20)
(-0.109527 -0.216553 5.11544e-20)
(-0.0782797 -0.17562 -7.82246e-20)
(-0.0489319 -0.141835 6.49026e-21)
(-0.0209172 -0.11413 -4.37342e-20)
(0.00631459 -0.0918769 -9.18569e-20)
(0.0333662 -0.0751541 1.75109e-19)
(0.058527 -0.0636747 6.71214e-20)
(-0.187292 -0.412619 5.15921e-20)
(-0.157283 -0.338009 1.17889e-20)
(-0.128864 -0.275911 4.6003e-20)
(-0.103453 -0.224418 -5.61851e-21)
(-0.0805412 -0.181892 6.09047e-20)
(-0.0592428 -0.147021 2.99359e-20)
(-0.0390192 -0.118691 7.66054e-20)
(-0.0194462 -0.0961611 -7.78752e-20)
(-0.00015864 -0.079192 -8.06497e-21)
(0.0175334 -0.0673057 -8.7724e-20)
(-0.15446 -0.424726 3.41806e-20)
(-0.131769 -0.34677 -4.03031e-20)
(-0.111125 -0.282133 -9.06399e-21)
(-0.0933178 -0.22897 -1.57625e-20)
(-0.0776636 -0.185491 -1.72987e-20)
(-0.0632852 -0.150185 -2.20376e-20)
(-0.0497057 -0.121773 3.59519e-20)
(-0.0366213 -0.0993127 -4.80787e-20)
(-0.023828 -0.082249 4.34048e-20)
(-0.0123026 -0.0699484 5.72186e-21)
(-0.120551 -0.433346 -5.93892e-20)
(-0.104836 -0.351695 -2.99593e-20)
(-0.0913025 -0.284743 5.20362e-20)
(-0.0802197 -0.230378 -1.93997e-20)
(-0.0707987 -0.186482 2.87787e-20)
(-0.0622178 -0.151238 -8.71614e-20)
(-0.0540928 -0.123125 6.65869e-20)
(-0.0462397 -0.100977 -2.49961e-20)
(-0.0385858 -0.0839751 4.52443e-20)
(-0.0318829 -0.0713649 -5.4606e-20)
(-0.0860145 -0.438568 2.73768e-20)
(-0.0771731 -0.353086 -1.17634e-20)
(-0.0701938 -0.284143 -1.81624e-20)
(-0.0649949 -0.229062 -7.28404e-21)
(-0.0607755 -0.185246 4.02146e-21)
(-0.056827 -0.150492 1.21306e-20)
(-0.0528952 -0.122999 -2.99123e-20)
(-0.0489292 -0.101375 1.82197e-20)
(-0.0449826 -0.0845933 5.59872e-20)
(-0.041699 -0.0718052 -5.41395e-20)
(-0.0512379 -0.440561 2.04763e-20)
(-0.0493244 -0.351379 5.55488e-23)
(-0.0483893 -0.280898 2.81873e-20)
(-0.0482249 -0.22564 -2.43443e-20)
(-0.0481368 -0.182411 7.5278e-21)
(-0.0475977 -0.148566 -8.42012e-21)
(-0.0465295 -0.122002 -4.79784e-21)
(-0.0450375 -0.101111 -2.79182e-20)
(-0.0433086 -0.084701 3.04531e-20)
(-0.0419914 -0.0718482 3.17761e-20)
(-0.0165226 -0.439548 -3.6133e-21)
(-0.0216679 -0.347088 -3.07903e-21)
(-0.026268 -0.275679 -2.7764e-21)
(-0.0302498 -0.220861 -1.0643e-20)
(-0.033167 -0.178759 1.14971e-20)
(-0.0347555 -0.146255 4.20349e-21)
(-0.0351657 -0.120937 -9.01431e-21)
(-0.0346884 -0.100992 5.55825e-22)
(-0.033653 -0.0850873 -5.46509e-21)
(-0.0328216 -0.0722382 -3.7714e-22)
(-0.0134798 -0.0397357 -1.12237e-21)
(-0.00523499 -0.0374135 -1.11695e-21)
(0.0464232 -0.0311624 2.50753e-21)
(0.0954345 -0.0259935 -1.67304e-21)
(0.1576 -0.020373 -5.38175e-22)
(0.219298 -0.0163032 -1.04831e-21)
(0.28245 -0.0165433 3.722e-22)
(0.343489 -0.0227103 -4.76469e-22)
(0.401243 -0.03459 2.47384e-22)
(0.453057 -0.0494973 5.01943e-23)
(0.496781 -0.0614168 -2.70773e-22)
(0.53265 -0.0633955 5.90095e-23)
(0.563239 -0.0468252 -5.86022e-23)
(0.594878 -0.0127534 -1.15807e-22)
(0.625455 0.0280094 1.90837e-23)
(0.667126 0.0499863 -3.67959e-23)
(0.704853 0.0335128 1.41459e-23)
(0.766921 0.000167244 1.01716e-23)
(0.786723 -0.0563106 -1.56629e-23)
(0.839612 -0.0494573 6.82252e-24)
(0.0206271 -0.0415773 5.23873e-21)
(0.0304081 -0.0478846 3.91483e-21)
(0.0843921 -0.0441306 -3.70082e-21)
(0.133168 -0.0399434 2.02567e-21)
(0.193943 -0.0342025 -3.93226e-21)
(0.254058 -0.0292414 -1.48891e-22)
(0.315566 -0.0283044 -3.63958e-22)
(0.375001 -0.0330441 -7.38107e-22)
(0.430865 -0.0433136 4.92631e-22)
(0.4802 -0.0564587 1.5929e-22)
(0.520494 -0.0667239 6.93737e-23)
(0.551975 -0.0674706 5.03087e-22)
(0.577331 -0.050396 -5.11596e-22)
(0.604234 -0.0161452 -8.217e-23)
(0.631966 0.0243113 7.2896e-23)
(0.673909 0.0461784 5.62593e-23)
(0.713926 0.02922 -1.181e-22)
(0.776802 -0.00315272 1.56151e-22)
(0.797333 -0.0588149 3.77812e-23)
(0.845251 -0.051257 -1.37505e-23)
(0.0678933 -0.0455854 -1.80649e-20)
(0.0797584 -0.0590571 2.49251e-21)
(0.136019 -0.0572281 1.72972e-20)
(0.183786 -0.0535813 -8.62849e-21)
(0.241845 -0.0475633 -1.17578e-21)
(0.299 -0.0416826 -3.87194e-21)
(0.357462 -0.0395565 4.02991e-23)
(0.413988 -0.0428485 -1.48874e-21)
(0.466811 -0.0514705 -4.98379e-22)
(0.512738 -0.0628194 -4.15272e-22)
(0.548964 -0.0714203 -7.37343e-23)
(0.575675 -0.070967 5.53923e-23)
(0.595574 -0.0534952 4.86453e-22)
(0.617449 -0.0192597 -2.05565e-22)
(0.641974 0.0206694 -1.54952e-22)
(0.683597 0.042284 1.72477e-22)
(0.725281 0.0248819 -4.72189e-23)
(0.788189 -0.00644529 -8.19736e-23)
(0.809069 -0.0611328 -1.44931e-22)
(0.85172 -0.0528814 -1.40455e-23)
(0.128409 -0.0521906 -4.9075e-21)
(0.142521 -0.0708207 1.90694e-20)
(0.200294 -0.0701893 -8.9618e-21)
(0.246009 -0.0665814 -4.79104e-21)
(0.299952 -0.060126 3.81116e-21)
(0.352791 -0.0533292 -7.45578e-22)
(0.406884 -0.0500447 1.63887e-21)
(0.459294 -0.0519181 -7.00863e-22)
(0.508034 -0.05891 1.60373e-21)
(0.549748 -0.0684838 7.77994e-22)
(0.581395 -0.0754562 -1.67217e-21)
(0.603097 -0.0738603 2.2761e-22)
(0.617482 -0.0560979 -2.58181e-23)
(0.634198 -0.0220566 3.23414e-22)
(0.655262 0.0171432 8.17389e-23)
(0.696014 0.0383708 -1.24976e-22)
(0.738729 0.0205628 -1.16637e-22)
(0.800912 -0.00966772 -2.3273e-22)
(0.821754 -0.0632442 2.3189e-22)