/*--------------------------------*- C++ -*----------------------------------*\
  =========                 |
  \\      /  F ield         | OpenFOAM: The Open Source CFD Toolbox
   \\    /   O peration     | Website:  https://openfoam.org
    \\  /    A nd           | Version:  6.0
     \\/     M anipulation  |
\*---------------------------------------------------------------------------*/
FoamFile
{
    version     2.0;
    format      ascii;
    class       surfaceScalarField;
    location    "13.7515";
    object      phi;
}
// * * * * * * * * * * * * * * * * * * * * * * * * * * * * * * * * * * * * * //

dimensions      [0 3 -1 0 0 0 0];

internalField   nonuniform List<scalar> 
38030
(
2.41396e-05
-0.0791223
0.0790981
0.000136288
-0.0723122
0.0722
0.000335542
-0.0667485
0.0665492
0.000618747
-0.062203
0.0619197
0.000981325
-0.058482
0.0581194
0.00141715
-0.0554236
0.0549878
0.00191925
-0.0528956
0.0523935
0.00248034
-0.0507908
0.0502297
0.00309316
-0.0490231
0.0484103
0.00375069
-0.0475234
0.0468659
0.00444629
-0.0462363
0.0455407
0.00517374
-0.0451177
0.0443903
0.00592734
-0.0441323
0.0433787
0.0067019
-0.043252
0.0424775
0.00749271
-0.0424545
0.0416637
0.00829557
-0.041722
0.0409191
0.00910676
-0.0410403
0.0402291
0.00992299
-0.0403983
0.0395821
0.0107414
-0.0397871
0.0389687
0.0115596
-0.0391997
0.0383816
0.0123753
-0.0386305
0.0378147
0.0131869
-0.0380748
0.0372632
0.0139928
-0.037529
0.0367231
0.0147917
-0.0369901
0.0361911
0.0155826
-0.0364552
0.0356642
0.0163646
-0.0359218
0.0351398
0.0171369
-0.0353875
0.0346153
0.0178985
-0.0348498
0.0340882
0.0186486
-0.0343058
0.0335557
-0.0337521
0.0330147
0.019386
3.30692e-05
-0.0791554
0.000151437
-0.0724306
0.00035878
-0.0669558
0.000652325
-0.0624965
0.00102675
-0.0588564
0.00147527
-0.0558721
0.00199036
-0.0534107
0.00256431
-0.0513647
0.0031895
-0.0496483
0.00385862
-0.0481925
0.00456481
-0.0469425
0.00530169
-0.0458546
0.00606345
-0.0448941
0.00684477
-0.0440334
0.00764093
-0.0432507
0.00844768
-0.0425287
0.0092613
-0.0418539
0.0100785
-0.0412155
0.0108966
-0.0406052
0.011713
-0.0400161
0.0125257
-0.0394432
0.0133331
-0.0388822
0.0141337
-0.0383297
0.0149264
-0.0377828
0.0157102
-0.037239
0.0164844
-0.036696
0.0172482
-0.0361513
0.0180009
-0.0356025
0.0187418
-0.0350467
-0.0344803
0.01947
3.75949e-05
-0.0791929
0.00016329
-0.0725563
0.000379817
-0.0671724
0.000684158
-0.0628008
0.00107046
-0.0592427
0.00153139
-0.0563331
0.00205899
-0.0539383
0.00264513
-0.0519509
0.00328188
-0.050285
0.00396167
-0.0488723
0.00467743
-0.0476583
0.00542264
-0.0465998
0.00619136
-0.0456628
0.00697821
-0.0448202
0.00777841
-0.0440509
0.00858771
-0.043338
0.00940239
-0.0426686
0.0102192
-0.0420324
0.0110355
-0.0414214
0.0118488
-0.0408294
0.0126571
-0.0402516
0.013459
-0.039684
0.014253
-0.0391237
0.0150381
-0.0385679
0.0158136
-0.0380144
0.0165786
-0.037461
0.0173328
-0.0369055
0.0180755
-0.0363452
0.0188062
-0.0357774
-0.0351983
0.0195241
4.10085e-05
-0.079234
0.000173731
-0.072689
0.000399491
-0.0673981
0.000714572
-0.0631159
0.00111251
-0.0596406
0.00158546
-0.056806
0.00212499
-0.0544778
0.00272262
-0.0525485
0.0033701
-0.0509325
0.00405962
-0.0495618
0.00478392
-0.0483826
0.00553633
-0.0473522
0.00631081
-0.0464373
0.00710193
-0.0456114
0.00790488
-0.0448538
0.0087154
-0.0441485
0.0095298
-0.043483
0.0103449
-0.0428475
0.011158
-0.0422345
0.0119668
-0.0416382
0.0127694
-0.0410542
0.0135644
-0.040479
0.0143506
-0.0399098
0.0151269
-0.0393443
0.0158928
-0.0387803
0.0166477
-0.0382159
0.0173912
-0.0376489
0.0181228
-0.0370769
0.0188423
-0.0364969
-0.0359051
0.0195491
4.39946e-05
-0.079278
0.000183406
-0.0728284
0.000418188
-0.0676329
0.00074375
-0.0634415
0.00115296
-0.0600498
0.00163743
-0.0572905
0.00218827
-0.0550286
0.00279663
-0.0531569
0.00345396
-0.0515899
0.00415224
-0.0502601
0.00488402
-0.0491144
0.0056425
-0.0481107
0.00642155
-0.0472163
0.0072157
-0.0464055
0.0080201
-0.0456582
0.00883052
-0.044959
0.00964331
-0.0442958
0.0104553
-0.0436595
0.0112639
-0.0430431
0.012067
-0.0424412
0.0128626
-0.0418499
0.0136495
-0.041266
0.0144266
-0.0406869
0.0151931
-0.0401107
0.0159483
-0.0395355
0.0166919
-0.0389595
0.0174237
-0.0383807
0.0181435
-0.0377966
0.0188509
-0.0372043
-0.0365999
0.0195457
4.67611e-05
-0.0793247
0.000192577
-0.0729742
0.00043609
-0.0678764
0.000771784
-0.0637772
0.00119182
-0.0604699
0.00168724
-0.0577859
0.0022487
-0.0555901
0.002867
-0.0537752
0.00353331
-0.0522562
0.00423936
-0.0509662
0.00497754
-0.0498525
0.00574094
-0.0488741
0.00652336
-0.0479987
0.00731928
-0.0472014
0.00812387
-0.0464628
0.0089329
-0.045768
0.00974278
-0.0451057
0.0105504
-0.0444671
0.0113533
-0.043846
0.0121493
-0.0432372
0.0129368
-0.0426374
0.0137144
-0.0420436
0.0144813
-0.0414538
0.0152368
-0.0408662
0.0159804
-0.0402791
0.0167118
-0.039691
0.0174311
-0.0390999
0.018138
-0.0385036
0.0188326
-0.0378989
-0.037282
0.0195148
4.93927e-05
-0.0793741
0.000201361
-0.0731262
0.000453287
-0.0681283
0.000798712
-0.0641226
0.00122907
-0.0609002
0.00173483
-0.0582916
0.00230621
-0.0561615
0.00293363
-0.0544026
0.00360798
-0.0529305
0.00432079
-0.051679
0.00506428
-0.050596
0.00583146
-0.0496413
0.00661605
-0.0487833
0.00741252
-0.0479979
0.00821603
-0.0472663
0.00902242
-0.0465744
0.00982812
-0.0459114
0.0106301
-0.0452692
0.011426
-0.0446419
0.0122138
-0.044025
0.012992
-0.0434155
0.0137593
-0.0428109
0.0145149
-0.0422095
0.0152584
-0.0416097
0.0159894
-0.0410101
0.0167079
-0.0404095
0.0174138
-0.0398058
0.0181073
-0.0391971
0.0187884
-0.0385801
-0.0379508
0.0194573
5.19221e-05
-0.079426
0.000209812
-0.0732841
0.000469818
-0.0683883
0.000824543
-0.0644773
0.00126469
-0.0613404
0.00178016
-0.0588071
0.0023607
-0.056742
0.00299639
-0.0550383
0.00367785
-0.053612
0.00439639
-0.0523975
0.00514412
-0.0513438
0.00591392
-0.0504111
0.0066995
-0.0495689
0.00749529
-0.0487937
0.0082965
-0.0480675
0.009099
-0.0473769
0.00989931
-0.0467117
0.0106945
-0.0460644
0.0114823
-0.0454296
0.0122607
-0.0448035
0.0130284
-0.0441832
0.0137844
-0.0435669
0.0145278
-0.0429529
0.0152585
-0.0423403
0.0159761
-0.0417278
0.0166807
-0.0411141
0.0173726
-0.0404977
0.018052
-0.0398764
0.0187191
-0.0392472
-0.0386059
0.0193742
5.43657e-05
-0.0794804
0.000217949
-0.0734476
0.000485697
-0.0686561
0.000849273
-0.0648409
0.00129865
-0.0617898
0.00182316
-0.0593316
0.0024121
-0.057331
0.0030552
-0.0556814
0.00374281
-0.0542996
0.00446606
-0.0531208
0.00521693
-0.0520946
0.00598822
-0.0511824
0.0067736
-0.0503543
0.00756752
-0.0495876
0.00836523
-0.0488652
0.00916264
-0.0481743
0.00995637
-0.0475054
0.0107436
-0.0468516
0.0115221
-0.0462081
0.0122902
-0.0455715
0.0130464
-0.0449395
0.01379
-0.0443105
0.0145204
-0.0436833
0.0152373
-0.0430572
0.0159408
-0.0424312
0.016631
-0.0418043
0.0173082
-0.041175
0.0179729
-0.0405411
0.0186256
-0.0398999
-0.0392469
0.0192665
5.6727e-05
-0.0795371
0.000225782
-0.0736167
0.000500922
-0.0689312
0.000872886
-0.0652129
0.00133092
-0.0622478
0.00186379
-0.0598645
0.00246035
-0.0579275
0.00310998
-0.056331
0.00380278
-0.0549924
0.00452971
-0.0538477
0.00528262
-0.0528475
0.00605427
-0.051954
0.0068383
-0.0511383
0.00762918
-0.0503785
0.00842221
-0.0496583
0.00921339
-0.0489655
0.0099994
-0.0482914
0.0107776
-0.0476298
0.0115458
-0.0469763
0.0123024
-0.0463281
0.0130463
-0.0456834
0.0137766
-0.0450408
0.0144931
-0.0443998
0.0151956
-0.0437597
0.0158842
-0.0431199
0.0165593
-0.0424794
0.0172214
-0.041837
0.0178711
-0.0411908
0.0185088
-0.0405376
-0.0398733
0.0191353
5.90078e-05
-0.0795961
0.000233309
-0.073791
0.000515486
-0.0692134
0.000895364
-0.0655927
0.00136147
-0.0627139
0.001902
-0.060405
0.00250538
-0.0585309
0.00316066
-0.0569863
0.00385769
-0.0556894
0.00458727
-0.0545773
0.00534115
-0.0536014
0.00611204
-0.0527249
0.00689358
-0.0519199
0.00768029
-0.0511652
0.0084675
-0.0504455
0.00925132
-0.0497493
0.0100285
-0.0490686
0.0107966
-0.0483978
0.0115535
-0.0477332
0.0122978
-0.0470724
0.0130284
-0.046414
0.0137447
-0.0457572
0.0144465
-0.0451016
0.0151338
-0.044447
0.015807
-0.043793
0.0164665
-0.0431389
0.017113
-0.0424835
0.0177471
-0.0418249
0.0183697
-0.0411602
-0.0404851
0.0189814
6.12078e-05
-0.0796573
0.000240526
-0.0739703
0.00052938
-0.0695023
0.000916691
-0.0659801
0.00139028
-0.0631875
0.00193777
-0.0609525
0.00254717
-0.0591403
0.00320721
-0.0576463
0.00390751
-0.0563897
0.00463872
-0.0553085
0.0053925
-0.0543552
0.00616154
-0.053494
0.00693948
-0.0526978
0.0077209
-0.0519466
0.0085012
-0.0512258
0.00927659
-0.0505247
0.010044
-0.049836
0.0108009
-0.0491548
0.0115456
-0.0484779
0.0122766
-0.0478034
0.0129931
-0.0471305
0.0136946
-0.0464587
0.0143811
-0.0457881
0.0150526
-0.0451186
0.0157098
-0.0444502
0.0163532
-0.0437823
0.0169837
-0.0431139
0.017602
-0.0424433
0.0182092
-0.0417674
-0.0410819
0.018806
6.33233e-05
-0.0797207
0.000247427
-0.0741544
0.000542594
-0.0697974
0.000936853
-0.0663743
0.00141732
-0.063668
0.00197107
-0.0615063
0.00258569
-0.0597549
0.0032496
-0.0583102
0.00395222
-0.0570923
0.00468405
-0.0560403
0.00543669
-0.0551078
0.0062028
-0.0542601
0.00697606
-0.0534711
0.00775111
-0.0527217
0.00852345
-0.0519981
0.00928938
-0.0512906
0.010046
-0.0505926
0.0107909
-0.0498997
0.0115224
-0.0492094
0.0122393
-0.0485203
0.0129409
-0.0478321
0.0136269
-0.0471447
0.0142974
-0.0464585
0.0149527
-0.0457739
0.0155933
-0.0450909
0.0162202
-0.0444092
0.0168343
-0.043728
0.0174365
-0.0430455
0.018028
-0.0423589
-0.0416636
0.0186098
6.53527e-05
-0.079786
0.000254005
-0.0743431
0.000555119
-0.0700985
0.000955839
-0.066775
0.00144258
-0.0641547
0.00200189
-0.0620656
0.00262094
-0.060374
0.00328784
-0.0589771
0.00399183
-0.0577963
0.00472328
-0.0567718
0.00547374
-0.0558583
0.00623588
-0.0550222
0.00700342
-0.0542386
0.00777107
-0.0534893
0.00853443
-0.0527615
0.00928994
-0.0520461
0.0100348
-0.0513374
0.0107667
-0.0506317
0.0114843
-0.0499269
0.0121864
-0.0492224
0.0128724
-0.0485181
0.0135423
-0.0478146
0.0141961
-0.0471124
0.0148345
-0.0464123
0.0154582
-0.0457146
0.0160682
-0.0450192
0.0166655
-0.0443254
0.0172514
-0.0436314
0.0178271
-0.0429345
-0.0422302
0.0183937
6.72925e-05
-0.0798533
0.000260256
-0.074536
0.000566951
-0.0704052
0.000973648
-0.0671817
0.00146608
-0.0646471
0.00203024
-0.0626297
0.00265291
-0.0609966
0.00332194
-0.0596461
0.00402636
-0.0585007
0.00475646
-0.0575019
0.00550374
-0.0566056
0.0062609
-0.0557794
0.00702171
-0.0549994
0.00778096
-0.0542486
0.00853439
-0.0535149
0.00927854
-0.0527903
0.0100107
-0.0520696
0.0107289
-0.0513499
0.0114318
-0.0506297
0.0121183
-0.0499089
0.0127881
-0.0491879
0.0134411
-0.0484676
0.0140779
-0.0477491
0.0146989
-0.0470333
0.0153052
-0.0463208
0.0158978
-0.0456118
0.0164781
-0.0449057
0.0170475
-0.0442008
0.0176072
-0.0434942
-0.0427816
0.0181585
6.91407e-05
-0.0799224
0.000266177
-0.0747331
0.000578089
-0.0707172
0.000990285
-0.0675939
0.00148781
-0.0651447
0.00205613
-0.063198
0.00268165
-0.0616222
0.00335194
-0.0603164
0.00405587
-0.0592047
0.00478366
-0.0582296
0.00552679
-0.0573487
0.00627798
-0.0565306
0.00703109
-0.0557525
0.00778101
-0.0549985
0.00852358
-0.0542575
0.00925551
-0.0535222
0.00997425
-0.0527883
0.0106779
-0.0520536
0.0113653
-0.0513171
0.0120356
-0.0505792
0.0126885
-0.0498409
0.0133242
-0.0491034
0.0139433
-0.0483682
0.0145465
-0.0476365
0.0151349
-0.0469093
0.0157099
-0.0461868
0.0162729
-0.0454687
0.0168254
-0.0447533
0.0173689
-0.0440378
-0.0433176
0.0179049
7.08932e-05
-0.0799933
0.000271767
-0.074934
0.000588541
-0.0710339
0.00100577
-0.0680112
0.0015078
-0.0656467
0.0020796
-0.0637698
0.00270718
-0.0622497
0.00337789
-0.0609871
0.00408044
-0.0599072
0.00480499
-0.0589542
0.00554302
-0.0580868
0.00628731
-0.0572749
0.00703178
-0.056497
0.00777147
-0.0557382
0.00850233
-0.0549883
0.00922122
-0.0542411
0.00992575
-0.0534929
0.0106142
-0.052742
0.0112854
-0.0519883
0.0119388
-0.0512326
0.0125743
-0.0504764
0.0131922
-0.0497212
0.0137931
-0.048969
0.014378
-0.0482214
0.0149482
-0.0474794
0.0155051
-0.0467437
0.0160504
-0.0460139
0.0165857
-0.0452887
0.0171129
-0.044565
-0.0438382
0.0176335
7.25473e-05
-0.0800659
0.000277026
-0.0751384
0.000598318
-0.0713552
0.00102012
-0.0684329
0.00152609
-0.0661527
0.00210069
-0.0643444
0.00272958
-0.0628786
0.00339986
-0.0616574
0.00410016
-0.0606075
0.00482056
-0.0596746
0.00555259
-0.0588188
0.00628906
-0.0580113
0.00702404
-0.057232
0.00775264
-0.0564668
0.00847099
-0.0557067
0.00917609
-0.0549462
0.00986569
-0.0541825
0.0105382
-0.0534145
0.0111927
-0.0526428
0.0118288
-0.0518687
0.0124463
-0.0510939
0.0130458
-0.0503207
0.0136281
-0.0495513
0.0141942
-0.0487875
0.0147456
-0.0480309
0.0152841
-0.0472821
0.0158113
-0.0465412
0.0163292
-0.0458066
0.0168397
-0.0450755
-0.0443431
0.0173446
7.4101e-05
-0.08014
0.000281963
-0.0753463
0.000607448
-0.0716807
0.00103338
-0.0688589
0.00154273
-0.066662
0.00211947
-0.0649212
0.0027489
-0.0635081
0.00341795
-0.0623265
0.00411514
-0.0613047
0.00483052
-0.06039
0.00555567
-0.0595439
0.00628348
-0.0587391
0.00700812
-0.0579566
0.00772486
-0.0571835
0.00842996
-0.0564118
0.00912057
-0.0556368
0.00979461
-0.0548565
0.0104507
-0.0540706
0.0110879
-0.0532801
0.011706
-0.0524868
0.0123051
-0.051693
0.0128858
-0.0509014
0.013449
-0.0501145
0.0139959
-0.0493344
0.0145282
-0.0485631
0.0150476
-0.0478016
0.0155563
-0.0470498
0.0160563
-0.0463066
0.0165498
-0.045569
-0.044832
0.0170388
7.55502e-05
-0.0802155
0.000286591
-0.0755573
0.000615968
-0.0720101
0.00104561
-0.0692885
0.0015578
-0.0671742
0.00213601
-0.0654994
0.00276525
-0.0641373
0.00343227
-0.0629935
0.0041255
-0.0619979
0.00483503
-0.0610995
0.00555246
-0.0602614
0.00627081
-0.0594575
0.00698434
-0.0586701
0.00768848
-0.0578877
0.00837965
-0.057103
0.00905516
-0.0563123
0.00971307
-0.0555144
0.0103521
-0.0547096
0.0109716
-0.0538996
0.0115714
-0.0530865
0.0121517
-0.0522733
0.0127131
-0.0514629
0.0132568
-0.0506581
0.013784
-0.0498617
0.0142966
-0.0490757
0.0147965
-0.0483015
0.0152861
-0.0475394
0.0157677
-0.0467882
0.0162437
-0.046045
-0.0453045
0.0167162
7.68941e-05
-0.0802924
0.000290938
-0.0757714
0.000623938
-0.0723431
0.00105689
-0.0697215
0.00157138
-0.0676887
0.00215041
-0.0660784
0.00277872
-0.0647656
0.00344291
-0.0636577
0.00413139
-0.0626864
0.00483426
-0.0618024
0.00554319
-0.0609703
0.00625131
-0.0601656
0.00695302
-0.0593719
0.00764391
-0.0585785
0.00832054
-0.0577796
0.00898039
-0.0569722
0.00962169
-0.0561557
0.0102433
-0.0553313
0.0108447
-0.054501
0.0114258
-0.0536676
0.0119869
-0.0528344
0.0125287
-0.0520047
0.0130525
-0.0511819
0.0135596
-0.0503688
0.014052
-0.0495681
0.0145318
-0.0487813
0.0150015
-0.0480091
0.0154639
-0.0472506
0.0159216
-0.0465027
-0.04576
0.0163771
7.81357e-05
-0.0803706
0.000295048
-0.0759883
0.000631446
-0.0726795
0.00106733
-0.0701573
0.00158358
-0.068205
0.00216277
-0.0666576
0.00278942
-0.0653923
0.00345002
-0.0643183
0.00413296
-0.0633694
0.00482839
-0.0624978
0.00552808
-0.06167
0.00622527
-0.0608628
0.00691451
-0.0600611
0.00759154
-0.0592556
0.00825311
-0.0584412
0.00889683
-0.0576159
0.0095211
-0.05678
0.0101249
-0.0559351
0.0107079
-0.0550839
0.01127
-0.0542297
0.0118117
-0.0533761
0.0123337
-0.0525268
0.0128373
-0.0516854
0.0133239
-0.0508554
0.0137955
-0.0500397
0.0142544
-0.0492403
0.0147035
-0.0484582
0.0151457
-0.0476928
0.0155842
-0.0469412
-0.0461976
0.0160217
7.92919e-05
-0.0804499
0.000299007
-0.076208
0.000638622
-0.0730191
0.00107706
-0.0705958
0.00159452
-0.0687224
0.00217321
-0.0672363
0.00279746
-0.0660165
0.00345371
-0.0649745
0.00413036
-0.064046
0.00481762
-0.0631851
0.00550736
-0.0623597
0.00619297
-0.0615484
0.00686915
-0.0607373
0.00753181
-0.0599182
0.00817785
-0.0590872
0.00880506
-0.0582431
0.009412
-0.0573869
0.00999781
-0.0565209
0.0105622
-0.0556483
0.0111052
-0.0547727
0.0116273
-0.0538982
0.0121293
-0.0530288
0.0126125
-0.0521686
0.0130783
-0.0513212
0.0135286
-0.05049
0.0139661
-0.0496777
0.0143935
-0.0488856
0.0148143
-0.0481137
0.0152322
-0.0473591
-0.0466159
0.0156505
8.04058e-05
-0.0805303
0.000302957
-0.0764306
0.000645655
-0.0733618
0.00108626
-0.0710364
0.00160436
-0.0692405
0.00218185
-0.0678138
0.00280297
-0.0666376
0.00345411
-0.0656257
0.00412373
-0.0647156
0.00480212
-0.0638635
0.00548127
-0.0630389
0.00615471
-0.0622218
0.0068173
-0.0613999
0.00746512
-0.060566
0.00809526
-0.0597173
0.00870567
-0.0588535
0.00929506
-0.0579763
0.00986271
-0.0570886
0.0104084
-0.056194
0.0109323
-0.0552966
0.0114349
-0.0544008
0.011917
-0.053511
0.0123798
-0.0526313
0.0128246
-0.051766
0.0132534
-0.0509188
0.0136685
-0.0500929
0.0140733
-0.0492903
0.0144713
-0.0485117
0.0148669
-0.0477548
-0.0470131
0.0152642
8.15933e-05
-0.0806119
0.000307149
-0.0766561
0.000652816
-0.0737075
0.00109516
-0.0714787
0.00161325
-0.0697586
0.00218881
-0.0683893
0.00280603
-0.0672549
0.00345133
-0.066271
0.00411322
-0.0653775
0.00478208
-0.0645323
0.00545003
-0.0637068
0.00611075
-0.0628826
0.00675928
-0.0620484
0.00739189
-0.0611986
0.00800583
-0.0603313
0.00859924
-0.0594469
0.00917097
-0.058548
0.00972045
-0.057638
0.0102475
-0.056721
0.0107525
-0.0558016
0.0112358
-0.0548842
0.0116983
-0.0539734
0.0121409
-0.0530739
0.0125649
-0.05219
0.012972
-0.0513259
0.0133645
-0.0504853
0.0137455
-0.0496713
0.014119
-0.0488853
0.0144902
-0.0481259
-0.0473868
0.0148639
8.3111e-05
-0.080695
0.000312005
-0.076885
0.000660474
-0.0740559
0.00110399
-0.0719222
0.00162133
-0.070276
0.00219418
-0.0689622
0.00280674
-0.0678674
0.00344547
-0.0669097
0.00409894
-0.066031
0.00475764
-0.065191
0.00541383
-0.064363
0.00606135
-0.0635301
0.00669542
-0.0626825
0.00731249
-0.0618157
0.00791001
-0.0609288
0.0084863
-0.0600232
0.00904036
-0.0591021
0.00957177
-0.0581694
0.0100805
-0.0572298
0.0105669
-0.0562879
0.0110314
-0.0553487
0.0114748
-0.0544168
0.0118979
-0.053497
0.0123017
-0.0525938
0.0126876
-0.0517118
0.0130574
-0.0508552
0.0134139
-0.0500278
0.0137614
-0.0492327
0.0141054
-0.0484699
-0.0477339
0.0144525
8.54583e-05
-0.0807804
0.000318153
-0.0771177
0.000669074
-0.0744069
0.001113
-0.0723662
0.00162872
-0.0707917
0.00219802
-0.0695315
0.00280514
-0.0684745
0.00343659
-0.0675412
0.00408099
-0.0666754
0.00472894
-0.065839
0.00537285
-0.0650069
0.00600672
-0.0641639
0.00662598
-0.0633017
0.00722725
-0.062417
0.00780819
-0.0615097
0.00836731
-0.0605824
0.00890379
-0.0596386
0.00941734
-0.058683
0.00990806
-0.0577205
0.0103764
-0.0567562
0.0108228
-0.0557951
0.011248
-0.054842
0.0116527
-0.0539017
0.0120376
-0.0529787
0.0124035
-0.0520777
0.0127517
-0.0512034
0.0130841
-0.0503603
0.0134043
-0.0495529
0.0137184
-0.048784
-0.0480505
0.0140349
8.95643e-05
-0.08087
0.000326565
-0.0773547
0.000679182
-0.0747595
0.00112242
-0.0728094
0.00163549
-0.0713048
0.00220034
-0.0700963
0.00280124
-0.0690754
0.00342471
-0.0681646
0.00405942
-0.0673101
0.00469609
-0.0664756
0.00532724
-0.0656381
0.00594706
-0.0647838
0.00655118
-0.0639059
0.00713644
-0.0630022
0.0077007
-0.062074
0.00824266
-0.0611243
0.00876169
-0.0601576
0.00925767
-0.059179
0.00973085
-0.0581937
0.0101817
-0.0572071
0.0106109
-0.0562243
0.0110192
-0.0552503
0.011407
-0.0542895
0.0117749
-0.0533467
0.0121233
-0.0524261
0.0124524
-0.0515324
0.0127628
-0.0506707
0.0130563
-0.0498463
0.0133379
-0.0490656
-0.0483322
0.0136196
9.78785e-05
-0.0809679
0.000339238
-0.0775961
0.00069161
-0.0751118
0.0011324
-0.0732502
0.00164156
-0.0718139
0.00220103
-0.0706558
0.00279496
-0.0696694
0.00340981
-0.0687795
0.00403427
-0.0679346
0.00465913
-0.0671005
0.00527709
-0.066256
0.0058825
-0.0653892
0.00647121
-0.0644946
0.00704027
-0.0635713
0.00758776
-0.0626215
0.00811259
-0.0616491
0.00861434
-0.0606594
0.00909306
-0.0596577
0.00954919
-0.0586498
0.00998339
-0.0576413
0.0103964
-0.0566374
0.0107891
-0.0556429
0.0111621
-0.0546625
0.0115159
-0.0537004
0.0118504
-0.0527606
0.0121651
-0.0518472
0.0124589
-0.0509645
0.0127297
-0.0501171
0.0129781
-0.049314
-0.0485758
0.0132217
0.000118181
-0.0810861
0.000359146
-0.077837
0.000706643
-0.0754593
0.00114257
-0.0736861
0.00164653
-0.0723179
0.00219981
-0.0712091
0.00278615
-0.0702557
0.00339182
-0.0693852
0.00400552
-0.0685483
0.00461812
-0.0677131
0.00522247
-0.0668604
0.00581314
-0.0659799
0.00638618
-0.0650676
0.00693887
-0.064124
0.00746951
-0.0631521
0.00797724
-0.0621569
0.00846184
-0.0611439
0.00892357
-0.0601194
0.00936307
-0.0590893
0.00978121
-0.0580594
0.010179
-0.0570352
0.0105576
-0.0560215
0.0109179
-0.0550229
0.0112609
-0.0540434
0.0115872
-0.0530869
0.0118967
-0.0521567
0.0121878
-0.0512556
0.012454
-0.0503833
0.012681
-0.0495411
-0.0487612
0.0128665
0.0834693
8.75503e-05
-0.0835568
0.083392
7.72675e-05
0.0833178
7.4188e-05
0.0832441
7.36821e-05
0.0831698
7.42686e-05
0.0830945
7.53719e-05
0.0830178
7.66748e-05
0.0829398
7.80127e-05
0.0828605
7.93057e-05
0.08278
8.05232e-05
0.0826983
8.16512e-05
0.0826156
8.26844e-05
0.082532
8.36233e-05
0.0824475
8.44673e-05
0.0823623
8.52175e-05
0.0822764
8.58733e-05
0.08219
8.64355e-05
0.0821031
8.69037e-05
0.0820158
8.7275e-05
0.0819283
8.7549e-05
0.0818406
8.77212e-05
0.0817528
8.77857e-05
0.081665
8.77294e-05
0.0815775
8.75343e-05
0.0814903
8.71618e-05
0.0814038
8.65385e-05
0.0813183
8.55043e-05
0.0812346
8.36867e-05
0.0811547
7.99161e-05
6.86484e-05
0.083844
0.000248479
-0.0840049
0.0836769
0.000244339
0.0835066
0.000244485
0.0833331
0.000247154
0.0831562
0.000251147
0.0829757
0.000255881
0.0827914
0.00026097
0.0826033
0.000266151
0.0824113
0.00027126
0.0822157
0.0002762
0.0820164
0.000280915
0.0818137
0.000285372
0.0816078
0.000289548
0.0813988
0.000293431
0.081187
0.000297013
0.0809726
0.000300284
0.0807558
0.000303241
0.0805368
0.000305879
0.0803159
0.00030819
0.0800933
0.000310166
0.0798692
0.000311795
0.079644
0.000313062
0.0794177
0.000313938
0.0791909
0.000314379
0.0789638
0.000314313
0.0787367
0.000313607
0.0785102
0.000312021
0.0782848
0.000309073
0.078061
0.000303665
0.000292655
0.0840736
0.000452671
-0.0842778
0.0838575
0.000460423
0.0836323
0.000469634
0.0833994
0.000480132
0.0831591
0.000491417
0.0829118
0.000503156
0.0826577
0.00051508
0.0823969
0.000526962
0.0821295
0.000538631
0.0818558
0.000549964
0.0815758
0.000560875
0.0812899
0.000571302
0.0809982
0.000581202
0.0807011
0.000590544
0.0803988
0.000599304
0.0800916
0.000607462
0.0797799
0.000615002
0.0794638
0.000621912
0.0791438
0.000628174
0.0788202
0.000633773
0.0784933
0.000638689
0.0781635
0.000642894
0.0778311
0.000646349
0.0774965
0.000648998
0.07716
0.000650753
0.0768222
0.000651478
0.0764832
0.000650952
0.0761435
0.000648803
0.0758028
0.000644348
0.000636145
0.0840667
0.000676954
-0.084291
0.0838284
0.000698765
0.0835775
0.000720576
0.083315
0.0007426
0.0830417
0.000764721
0.0827581
0.000786794
0.0824645
0.000808671
0.0821612
0.0008302
0.0818486
0.00085124
0.0815269
0.000871676
0.0811964
0.000891416
0.0808573
0.000910389
0.0805099
0.000928535
0.0801547
0.000945808
0.0797918
0.000962172
0.0794217
0.000977591
0.0790446
0.000992041
0.0786611
0.00100549
0.0782713
0.00101793
0.0778758
0.00102931
0.0774748
0.00103962
0.0770689
0.00104882
0.0766584
0.00105686
0.0762437
0.00106368
0.0758253
0.0010692
0.0754035
0.0010733
0.0749786
0.0010758
0.0745509
0.00107647
0.0741204
0.00107489
0.00107042
0.0837869
0.00090262
-0.0840126
0.0835456
0.000940097
0.0832893
0.000976859
0.0830188
0.00101312
0.0827346
0.00104888
0.0824373
0.00108409
0.0821273
0.00111868
0.081805
0.00115253
0.0814707
0.00118554
0.0811248
0.00121762
0.0807675
0.00124867
0.0803993
0.00127864
0.0800204
0.00130744
0.0796311
0.00133502
0.079232
0.00136134
0.0788232
0.00138635
0.0784053
0.00141
0.0779785
0.00143227
0.0775433
0.00145312
0.0771001
0.0014725
0.0766493
0.0014904
0.0761914
0.00150675
0.0757267
0.00152152
0.0752558
0.00153464
0.0747789
0.00154603
0.0742966
0.0015556
0.0738092
0.00156322
0.073317
0.00156873
0.0728199
0.00157192
0.00157247
0.0832308
0.00111627
-0.0834445
0.0830001
0.00117079
0.0827528
0.00122422
0.0824892
0.00127668
0.0822099
0.0013282
0.0819152
0.00137874
0.0816057
0.00142825
0.0812815
0.00147666
0.0809432
0.00152387
0.080591
0.0015698
0.0802253
0.00161437
0.0798464
0.00165751
0.0794547
0.00169914
0.0790506
0.00173919
0.0786343
0.00177762
0.0782063
0.00181437
0.0777669
0.00184937
0.0773166
0.0018826
0.0768557
0.001914
0.0763847
0.00194352
0.0759039
0.00197113
0.0754139
0.00199676
0.0749151
0.00202038
0.0744078
0.0020419
0.0738925
0.00206128
0.0733697
0.00207842
0.0728397
0.00209325
0.0723028
0.00210564
0.0717592
0.00211548
0.00212262
0.0824175
0.00130907
-0.0826103
0.0822065
0.00138175
0.0819777
0.0014531
0.0817312
0.00152318
0.0814674
0.00159199
0.0811866
0.0016595
0.0808892
0.00172564
0.0805755
0.00179035
0.0802459
0.00185354
0.0799005
0.00191513
0.0795399
0.00197504
0.0791642
0.00203319
0.0787738
0.0020895
0.0783691
0.0021439
0.0779504
0.00219631
0.0775181
0.00224669
0.0770725
0.00229496
0.0766141
0.00234106
0.0761431
0.00238495
0.0756601
0.00242656
0.0751654
0.00246584
0.0746594
0.00250273
0.0741426
0.00253717
0.0736154
0.00256911
0.0730782
0.00259848
0.0725314
0.0026252
0.0719754
0.00264921
0.0714106
0.00267044
0.0708373
0.00268881
0.00270421
0.0813792
0.00147586
-0.081546
0.0811934
0.00156746
0.0809889
0.00165761
0.0807658
0.00174628
0.0805244
0.00183346
0.0802648
0.00191909
0.0799873
0.00200309
0.0796923
0.0020854
0.0793799
0.00216592
0.0790505
0.00224455
0.0787043
0.00232123
0.0783416
0.00239585
0.0779628
0.00246833
0.0775681
0.00253859
0.0771579
0.00260656
0.0767324
0.00267215
0.0762921
0.0027353
0.0758372
0.00279593
0.0753682
0.00285397
0.0748854
0.00290937
0.0743891
0.00296205
0.0738799
0.00301195
0.0733581
0.00305901
0.072824
0.00310316
0.0722782
0.00314434
0.0717209
0.00318247
0.0711526
0.00321751
0.0705736
0.00324939
0.0699844
0.00327806
0.00330343
0.0801541
0.0016142
-0.0802924
0.0799963
0.00172522
0.0798193
0.00183469
0.079623
0.00194257
0.0794076
0.0020488
0.0791734
0.0021533
0.0789205
0.00225599
0.0786492
0.00235678
0.0783595
0.00245556
0.0780518
0.00255223
0.0777263
0.00264671
0.0773833
0.0027389
0.0770229
0.00282869
0.0766455
0.00291599
0.0762514
0.00300072
0.0758407
0.00308279
0.0754139
0.00316211
0.0749712
0.0032386
0.074513
0.00331219
0.0740396
0.00338279
0.0735513
0.00345033
0.0730486
0.00351473
0.0725316
0.00357593
0.0720009
0.00363386
0.0714568
0.00368844
0.0708997
0.0037396
0.0703299
0.0037873
0.0697478
0.00383147
0.0691538
0.00387207
0.00390901
0.078782
0.00172372
-0.0788915
0.0786529
0.00185436
0.0785042
0.00198341
0.0783359
0.00211079
0.0781483
0.00223643
0.0779414
0.00236023
0.0777153
0.00248208
0.0774702
0.00260188
0.0772062
0.00271952
0.0769236
0.00283488
0.0766224
0.00294786
0.076303
0.00305835
0.0759654
0.00316624
0.07561
0.00327142
0.0752369
0.00337381
0.0748464
0.00347328
0.0744388
0.00356976
0.0740142
0.00366314
0.0735731
0.00375333
0.0731156
0.00384026
0.0726421
0.00392382
0.0721529
0.00400394
0.0716483
0.00408053
0.0711286
0.00415353
0.0705942
0.00422284
0.0700454
0.00428841
0.0694826
0.00435016
0.068906
0.00440805
0.068316
0.00446202
0.00451197
0.0773011
0.00180547
-0.0773828
0.0771997
0.0019557
0.0770788
0.00210435
0.0769383
0.0022513
0.0767783
0.00239644
0.0765988
0.00253968
0.0764
0.00268089
0.076182
0.00281995
0.0759447
0.00295674
0.0756885
0.00309112
0.0754134
0.00322299
0.0751195
0.00335222
0.074807
0.00347869
0.0744762
0.00360229
0.0741271
0.00372291
0.0737599
0.00384042
0.073375
0.00395473
0.0729724
0.00406573
0.0725524
0.00417331
0.0721153
0.00427739
0.0716612
0.00437785
0.0711906
0.00447461
0.0707035
0.00456757
0.0702004
0.00465665
0.0696815
0.00474177
0.069147
0.00482284
0.0685974
0.0048998
0.0680329
0.00497259
0.0674538
0.00504114
0.00510535
0.0757462
0.00186148
-0.0758022
0.0756708
0.0020311
0.075576
0.00219916
0.0754618
0.00236552
0.0753281
0.00253007
0.0751751
0.00269268
0.0750028
0.00285322
0.0748112
0.00301154
0.0746004
0.00316752
0.0743705
0.00332102
0.0741216
0.0034719
0.0738538
0.00362005
0.0735672
0.00376533
0.0732619
0.0039076
0.072938
0.00404676
0.0725958
0.00418267
0.0722353
0.00431522
0.0718567
0.00444429
0.0714603
0.00456976
0.0710461
0.00469154
0.0706145
0.0048095
0.0701655
0.00492355
0.0696995
0.00503358
0.0692167
0.0051395
0.0687172
0.00524122
0.0682014
0.00533864
0.0676695
0.0054317
0.0671218
0.00552032
0.0665585
0.00560444
0.00568394
0.0741479
0.00189433
-0.0741807
0.074096
0.00208301
0.074025
0.00227016
0.0739349
0.00245565
0.0738256
0.00263933
0.0736972
0.00282107
0.0735497
0.00300071
0.0733831
0.00317812
0.0731975
0.00335314
0.0729929
0.00352564
0.0727693
0.00369547
0.0725269
0.00386249
0.0722656
0.00402657
0.0719857
0.00418756
0.0716871
0.00434533
0.07137
0.00449976
0.0710345
0.00465071
0.0706808
0.00479806
0.0703088
0.00494168
0.0699189
0.00508146
0.0695112
0.00521727
0.0690857
0.00534901
0.0686427
0.00547656
0.0681824
0.00559982
0.0677049
0.00571869
0.0672105
0.00583306
0.0666993
0.00594286
0.0661717
0.006048
0.0656277
0.00614842
0.00624401
0.0725321
0.00190692
-0.0725447
0.0725009
0.00211423
0.072451
0.00232006
0.0723824
0.00252427
0.072295
0.00272669
0.0721889
0.00292719
0.072064
0.0031256
0.0719204
0.00332177
0.071758
0.00351554
0.0715769
0.00370676
0.071377
0.00389529
0.0711586
0.00408097
0.0709215
0.00426366
0.0706658
0.00444321
0.0703917
0.00461949
0.0700991
0.00479235
0.0697881
0.00496166
0.0694589
0.00512729
0.0691115
0.0052891
0.068746
0.00544697
0.0683625
0.00560076
0.0679611
0.00575037
0.067542
0.00589566
0.0671053
0.00603652
0.0666511
0.00617285
0.0661797
0.00630453
0.0656911
0.00643148
0.0651855
0.0065536
0.064663
0.00667083
0.00678306
0.0709202
0.00190224
-0.0709155
0.0709067
0.00212769
0.0708751
0.00235172
0.0708252
0.00257416
0.070757
0.00279487
0.0706705
0.00301367
0.0705657
0.0032304
0.0704426
0.0034449
0.0703011
0.00365701
0.0701413
0.00386656
0.0699632
0.00407342
0.0697668
0.00427741
0.069552
0.00447839
0.069319
0.00467621
0.0690678
0.00487072
0.0687984
0.00506178
0.0685108
0.00524924
0.0682051
0.00543297
0.0678814
0.00561282
0.0675397
0.00578868
0.0671801
0.00596039
0.0668026
0.00612784
0.0664074
0.00629089
0.0659945
0.00644943
0.065564
0.00660332
0.0651161
0.00675247
0.0646508
0.00689675
0.0641683
0.0070361
0.0636687
0.00717041
0.00729962
0.0693291
0.00188322
-0.0693101
0.0693305
0.00212629
0.0693143
0.00236799
0.0692803
0.00260816
0.0692285
0.00284662
0.069159
0.00308322
0.0690716
0.00331776
0.0689664
0.0035501
0.0688434
0.00378005
0.0687025