/*--------------------------------*- C++ -*----------------------------------*\
  =========                 |
  \\      /  F ield         | OpenFOAM: The Open Source CFD Toolbox
   \\    /   O peration     | Website:  https://openfoam.org
    \\  /    A nd           | Version:  6.0
     \\/     M anipulation  |
\*---------------------------------------------------------------------------*/
FoamFile
{
    version     2.0;
    format      ascii;
    class       volVectorField;
    location    "10.01";
    object      U;
}
// * * * * * * * * * * * * * * * * * * * * * * * * * * * * * * * * * * * * * //

dimensions      [0 1 -1 0 0 0 0];

internalField   nonuniform List<vector> 
2400
(
(0.0179598 -0.436249 -1.26027e-20)
(0.0055864 -0.342666 5.63854e-21)
(-0.00401943 -0.272633 -6.27015e-21)
(-0.0112396 -0.22053 -4.07295e-21)
(-0.016045 -0.181722 -7.12674e-21)
(-0.0185246 -0.152579 9.83069e-21)
(-0.01911 -0.130358 4.01422e-21)
(-0.0183028 -0.113026 3.78018e-21)
(-0.0165817 -0.0990934 -8.79726e-21)
(-0.0149283 -0.0875165 -6.73762e-22)
(0.051707 -0.429786 1.40368e-20)
(0.032322 -0.334787 -1.44076e-21)
(0.0186047 -0.26552 2.94073e-21)
(0.00939624 -0.215261 3.84005e-20)
(0.00415058 -0.178691 -2.92647e-20)
(0.00234318 -0.151738 -1.55093e-21)
(0.0032099 -0.131376 -3.40844e-22)
(0.00601235 -0.115379 -3.92388e-21)
(0.0101169 -0.102107 -6.96486e-21)
(0.0142224 -0.0904694 -2.76006e-21)
(0.0846812 -0.421101 2.58662e-20)
(0.0585587 -0.326019 2.64595e-20)
(0.0416805 -0.258521 -7.64666e-20)
(0.0317485 -0.210847 2.53511e-20)
(0.0274705 -0.177056 4.2249e-20)
(0.0278059 -0.152692 -2.44096e-20)
(0.0316154 -0.134487 -2.10883e-20)
(0.0379079 -0.120025 1.99302e-20)
(0.0458971 -0.107484 -4.54889e-20)
(0.0538592 -0.0957146 4.83965e-20)
(0.116861 -0.410453 -9.04901e-20)
(0.0845907 -0.316872 4.53091e-20)
(0.0657402 -0.252203 -4.48594e-20)
(0.0565202 -0.207807 2.3076e-20)
(0.0547238 -0.177254 -2.68871e-20)
(0.0587174 -0.155794 4.32355e-20)
(0.0669521 -0.139988 2.35395e-20)
(0.0781783 -0.127248 -7.11544e-20)
(0.0914687 -0.115515 -6.98596e-20)
(0.104574 -0.103563 8.2185e-20)
(0.148276 -0.398087 3.73945e-21)
(0.110872 -0.307762 -1.7606e-20)
(0.0915502 -0.246959 -7.84371e-21)
(0.084689 -0.206415 -9.82835e-21)
(0.0870101 -0.179388 -6.66853e-20)
(0.0962193 -0.160982 1.09861e-20)
(0.110333 -0.147686 -7.33876e-21)
(0.127848 -0.136788 7.77928e-20)
(0.147727 -0.125951 -5.4928e-20)
(0.167099 -0.113831 -4.00631e-20)
(0.17903 -0.384238 8.72986e-20)
(0.138023 -0.298997 -8.87978e-21)
(0.120096 -0.242987 1.36741e-19)
(0.117477 -0.206655 -1.75903e-20)
(0.125681 -0.18318 8.61695e-20)
(0.141696 -0.167695 -9.80475e-21)
(0.163083 -0.156774 -8.42847e-22)
(0.188105 -0.147681 6.35167e-20)
(0.215669 -0.137795 -3.55941e-20)
(0.24222 -0.125626 6.88172e-20)
(0.20931 -0.369112 -3.30646e-20)
(0.16682 -0.290761 1.18266e-20)
(0.152536 -0.240274 -3.5147e-20)
(0.156279 -0.208226 -4.41634e-20)
(0.172251 -0.187978 -4.82967e-21)
(0.196673 -0.174892 1.4622e-19)
(0.226635 -0.165823 -5.2734e-20)
(0.26018 -0.158203 2.64079e-20)
(0.296267 -0.149217 -9.12178e-20)
(0.330675 -0.137244 -5.81705e-20)
(0.239383 -0.352877 1.58884e-19)
(0.198148 -0.283087 -1.7883e-20)
(0.190115 -0.238583 -1.90125e-19)
(0.202528 -0.210557 1.0782e-20)
(0.228213 -0.192815 4.66844e-20)
(0.262595 -0.181126 -7.00213e-20)
(0.30226 -0.172837 -9.4696e-20)
(0.345038 -0.165826 1.44645e-19)
(0.390117 -0.157321 -1.22941e-20)
(0.432868 -0.145763 -1.345e-19)
(0.269598 -0.335642 -1.33306e-19)
(0.232943 -0.275823 7.88791e-20)
(0.234037 -0.237453 1.25289e-19)
(0.257524 -0.212877 3.4437e-20)
(0.294849 -0.196561 -1.34978e-19)
(0.340614 -0.18477 8.99649e-20)
(0.390824 -0.175419 5.63222e-20)
(0.442977 -0.16698 1.19476e-19)
(0.496633 -0.157023 -7.29942e-20)
(0.547652 -0.144989 -1.08143e-19)
(0.300342 -0.317379 4.53642e-20)
(0.272055 -0.268561 -1.88127e-20)
(0.28527 -0.236203 -6.66437e-22)
(0.322219 -0.214347 3.91207e-20)
(0.373103 -0.198313 3.34307e-20)
(0.43182 -0.184839 -2.36157e-20)
(0.49387 -0.172176 -4.79908e-20)
(0.556216 -0.159036 7.68029e-20)
(0.617986 -0.143499 -6.54717e-20)
(0.675943 -0.127925 6.04147e-20)
(0.618127 -0.00939035 3.98908e-21)
(0.591755 -0.0553465 1.15296e-20)
(0.562246 -0.0974787 -3.85518e-20)
(0.530548 -0.135743 3.38901e-20)
(0.497494 -0.170242 1.27335e-20)
(0.463805 -0.201214 1.58587e-19)
(0.430054 -0.229003 -6.06402e-20)
(0.396658 -0.254026 -8.15438e-20)
(0.363891 -0.27676 8.47471e-20)
(0.331865 -0.297727 -1.46768e-19)
(0.833993 0.0171325 1.41634e-20)
(0.781493 -0.0414937 -4.57061e-21)
(0.723349 -0.0926944 -3.83779e-20)
(0.661716 -0.136116 1.01585e-19)
(0.598642 -0.17182 -3.39826e-20)
(0.535989 -0.200253 2.56191e-19)
(0.475339 -0.222196 -1.58003e-19)
(0.417931 -0.238706 2.2591e-19)
(0.364645 -0.251042 -1.54041e-19)
(0.31598 -0.260576 -7.8846e-20)
(1.01962 0.0662906 -2.81456e-20)
(0.956534 -0.0014978 4.16423e-21)
(0.884499 -0.0610039 -1.22396e-19)
(0.806177 -0.111293 9.41633e-20)
(0.724303 -0.15197 -9.54793e-20)
(0.641539 -0.183187 -1.78849e-19)
(0.560309 -0.205628 -5.80878e-20)
(0.482672 -0.220464 -4.97816e-20)
(0.410239 -0.22927 1.57061e-19)
(0.344173 -0.233905 8.11362e-20)
(1.16939 0.115905 1.28694e-20)
(1.10568 0.0430583 -2.2539e-20)
(1.02988 -0.0221909 -3.05904e-20)
(0.944614 -0.0783484 -1.19975e-19)
(0.852798 -0.124449 6.99079e-20)
(0.757502 -0.160127 2.02759e-19)
(0.66172 -0.185665 8.73166e-20)
(0.568175 -0.202017 1.69178e-20)
(0.479171 -0.210777 4.63727e-20)
(0.396609 -0.214102 -1.64695e-21)
(1.2836 0.158125 -1.51948e-20)
(1.22548 0.0839045 -5.97459e-20)
(1.15284 0.0158205 7.99931e-21)
(1.06783 -0.0442289 1.03839e-19)
(0.973153 -0.0947627 1.06826e-19)
(0.871883 -0.134843 -7.05449e-20)
(0.767238 -0.164203 -1.3147e-19)
(0.662329 -0.183364 -6.36107e-20)
(0.559939 -0.193733 7.46058e-20)
(0.462568 -0.197683 1.01962e-19)
(1.36595 0.191139 3.16528e-21)
(1.31685 0.118401 5.08069e-20)
(1.25172 0.0500599 -1.19075e-19)
(1.17205 -0.0117783 1.49233e-19)
(1.07999 -0.0652544 8.81064e-20)
(0.978255 -0.10891 1.60146e-19)
(0.869942 -0.14187 -3.42321e-20)
(0.7582 -0.164086 -9.15577e-20)
(0.645911 -0.176598 2.1694e-19)
(0.535728 -0.181994 -1.76498e-19)
(1.42158 0.214912 7.8209e-21)
(1.38283 0.145595 -6.11713e-20)
(1.32753 0.0789849 -3.80779e-20)
(1.25641 0.0172069 -8.13504e-20)
(1.17089 -0.037671 -1.15174e-20)
(1.07309 -0.0837762 -1.19943e-19)
(0.965664 -0.119634 -7.43224e-20)
(0.851474 -0.144501 -1.54174e-20)
(0.732979 -0.158845 -1.34697e-19)
(0.612024 -0.165493 1.91608e-19)
(1.45584 0.230438 -6.9332e-21)
(1.42736 0.165626 5.11614e-20)
(1.38266 0.102067 -2.27941e-20)
(1.32175 0.0417511 5.09398e-20)
(1.2453 -0.0132133 1.25173e-19)
(1.15472 -0.060679 2.03974e-19)
(1.05205 -0.0986104 -5.86279e-20)
(0.939622 -0.12541 -2.0147e-19)
(0.818971 -0.140567 5.48628e-20)
(0.689482 -0.146904 -3.15357e-19)
(1.4735 0.23933 1.01102e-20)
(1.45435 0.179334 -1.20416e-20)
(1.41993 0.119424 -1.23771e-19)
(1.36969 0.0613398 3.78224e-20)
(1.3036 0.00707502 -8.77816e-20)
(1.22239 -0.0411127 -3.64581e-20)
(1.12748 -0.0807131 -2.9145e-20)
(1.0207 -0.109094 8.37566e-20)
(0.902646 -0.123869 9.65677e-20)
(0.768305 -0.12606 5.91174e-20)
(1.4783 0.24317 -2.45775e-20)
(1.4671 0.18811 4.40664e-20)
(1.44201 0.132122 2.05208e-20)
(1.40205 0.0766068 6.273e-20)
(1.34666 0.0232974 -7.23685e-21)
(1.27591 -0.0256349 -4.79605e-21)
(1.19075 -0.0674373 -1.62967e-19)
(1.09287 -0.0985925 2.08137e-19)
(0.983025 -0.114319 -1.28996e-19)
(0.850546 -0.109898 2.70938e-20)
(0.537275 0.49919 -5.56525e-20)
(0.577174 0.459897 6.42947e-20)
(0.610743 0.415154 1.12146e-21)
(0.637311 0.365921 -1.59853e-19)
(0.656366 0.313282 1.18945e-19)
(0.667673 0.258428 -8.93773e-20)
(0.671272 0.202576 -2.1822e-20)
(0.667476 0.146903 -2.08389e-20)
(0.65685 0.0924748 3.45449e-20)
(0.640167 0.0401761 2.40001e-21)
(0.751379 0.672661 8.22206e-20)
(0.811818 0.630516 2.19704e-20)
(0.862929 0.578235 -1.14055e-19)
(0.903162 0.517357 -1.40053e-19)
(0.931267 0.449674 1.10898e-19)
(0.946421 0.377205 -9.97543e-20)
(0.948294 0.302108 1.19187e-19)
(0.937073 0.22657 -3.12348e-20)
(0.91346 0.152691 -1.04821e-19)
(0.878633 0.0823538 -7.89201e-21)
(0.884937 0.752387 -6.17332e-21)
(0.957239 0.716291 2.03181e-21)
(1.02016 0.667854 7.564e-20)
(1.07159 0.608547 7.68302e-20)
(1.10974 0.540153 1.76767e-19)
(1.13321 0.464756 6.35625e-20)
(1.14113 0.384673 -4.28733e-20)
(1.13317 0.302361 -9.45779e-20)
(1.10961 0.220305 7.67689e-20)
(1.07132 0.140893 5.29098e-21)
(0.966273 0.771597 2.19936e-20)
(1.04439 0.743805 -5.19864e-20)
(1.11435 0.703177 -2.56671e-20)
(1.17378 0.650871 -1.45898e-19)
(1.22056 0.58836 -8.92654e-20)
(1.25292 0.51745 1.72037e-19)
(1.26951 0.44023 1.17178e-19)
(1.26946 0.35901 -9.8702e-20)
(1.25248 0.276239 4.59598e-21)
(1.21885 0.194405 -4.41609e-21)
(1.01433 0.754911 -5.92721e-20)
(1.09414 0.73486 1.00142e-19)
(1.1674 0.702531 -2.61311e-20)
(1.23163 0.658701 7.91868e-20)
(1.28463 0.604456 -5.53232e-20)
(1.32447 0.541223 -1.03605e-19)
(1.34951 0.470718 5.53596e-20)
(1.35852 0.394917 -5.85414e-20)
(1.35067 0.316001 -5.85074e-20)
(1.32563 0.236287 2.56791e-20)
(1.04211 0.719193 -1.07229e-20)
(1.12106 0.705384 1.82945e-20)
(1.19491 0.680448 -1.75956e-20)
(1.26121 0.644743 -1.50189e-19)
(1.31784 0.598989 8.64925e-20)
(1.36293 0.544256 1.73161e-20)
(1.39481 0.481889 -9.53526e-20)
(1.41203 0.413487 -3.52262e-20)
(1.41344 0.340871 3.29941e-20)
(1.39822 0.266048 -9.34152e-21)
(1.05818 0.675107 -1.38587e-20)
(1.13512 0.665987 4.79703e-21)
(1.20784 0.647155 2.41862e-20)
(1.27404 0.618473 8.50109e-20)
(1.33194 0.580373 2.1567e-20)
(1.37994 0.533662 5.4761e-20)
(1.41649 0.479388 1.1645e-19)
(1.44015 0.418817 -4.98821e-20)
(1.44959 0.35342 4.6773e-20)
(1.4437 0.284851 -1.76025e-20)
(1.06805 0.629045 -1.31306e-20)
(1.14264 0.623693 1.93352e-20)
(1.21313 0.60984 1.8881e-20)
(1.27757 0.586874 -4.39245e-20)
(1.3348 0.555128 -2.88246e-20)
(1.38364 0.515294 -6.01849e-20)
(1.42278 0.468233 8.48314e-21)
(1.45087 0.414968 -1.42201e-20)
(1.46657 0.356673 -9.96258e-20)
(1.46861 0.294675 1.40253e-20)
(1.07585 0.585321 -2.0379e-21)
(1.14743 0.583494 -1.40711e-20)
(1.21449 0.573627 -1.56333e-20)
(1.2758 0.55499 9.78192e-21)
(1.33093 0.528119 -4.19456e-21)
(1.37906 0.493751 5.33942e-20)
(1.4191 0.452649 2.41435e-20)
(1.44984 0.40566 3.90251e-20)
(1.47001 0.353729 4.79151e-20)
(1.47833 0.297902 -2.06256e-20)
(1.08769 0.545522 -2.48182e-21)
(1.15437 0.545128 2.26618e-20)
(1.21593 0.53771 -6.19771e-20)
(1.27246 0.522125 -4.16492e-21)
(1.32405 0.499057 8.04286e-20)
(1.37004 0.469259 3.95123e-21)
(1.40943 0.433374 4.82692e-20)
(1.44115 0.392068 -1.06852e-19)
(1.46404 0.346064 -1.30453e-21)
(1.47685 0.296147 1.09603e-20)
(0.596921 0.188664 -8.09589e-21)
(0.55615 0.204002 2.8568e-21)
(0.509449 0.222353 9.47803e-22)
(0.456039 0.244881 -1.52989e-20)
(0.394997 0.273103 6.80815e-21)
(0.325815 0.308617 2.02289e-20)
(0.248921 0.352477 -1.88795e-20)
(0.16659 0.40384 -4.86418e-21)
(0.0870424 0.457403 -5.86162e-21)
(0.032308 0.498983 -2.15549e-20)
(0.619134 0.246349 -2.22587e-20)
(0.580241 0.26651 4.69389e-20)
(0.535457 0.290129 -4.32776e-20)
(0.484322 0.318107 -7.35649e-21)
(0.425965 0.351487 1.22638e-20)
(0.359867 0.390898 -1.44535e-20)
(0.286348 0.435639 -4.09896e-20)
(0.20733 0.481938 4.76282e-20)
(0.130119 0.519713 -8.03265e-23)
(0.074733 0.527101 2.18126e-20)
(0.648837 0.30123 -7.42009e-20)
(0.612542 0.325981 7.89717e-20)
(0.570369 0.354636 2.75949e-20)
(0.522259 0.387774 1.52476e-21)
(0.467347 0.425961 1.77718e-20)
(0.404969 0.468863 7.03097e-21)
(0.335112 0.514049 -1.16738e-20)
(0.25894 0.554902 -2.5799e-20)
(0.18212 0.576816 -1.89447e-20)
(0.121294 0.55085 2.79166e-20)
(0.685666 0.352315 -6.13899e-20)
(0.652602 0.381311 5.76142e-20)
(0.613669 0.41464 4.64217e-20)
(0.569272 0.452482 -3.17137e-20)
(0.518487 0.494925 -1.17472e-19)
(0.460379 0.540696 3.80173e-20)
(0.39438 0.585701 -2.74292e-20)
(0.320524 0.620657 7.52117e-20)
(0.242183 0.626863 6.63591e-20)
(0.171406 0.569258 -5.88895e-20)
(0.729104 0.398714 -4.39274e-20)
(0.699787 0.431506 2.00241e-20)
(0.664638 0.469015 -5.55164e-20)
(0.624546 0.51094 4.37115e-20)
(0.578456 0.556895 -2.10018e-20)
(0.525038 0.60471 -1.77218e-20)
(0.462962 0.648732 -1.78432e-20)
(0.3908 0.677281 -2.92631e-21)
(0.309074 0.668157 -2.62601e-20)
(0.22426 0.581462 -1.56864e-20)
(0.778471 0.439667 1.09961e-19)
(0.753277 0.47571 2.25261e-20)
(0.722345 0.516775 -7.54064e-20)
(0.687034 0.561995 7.06684e-20)
(0.646064 0.610536 3.26162e-20)
(0.597586 0.659385 5.2852e-20)
(0.539329 0.701479 -3.04796e-21)
(0.468127 0.723079 3.24962e-20)
(0.381235 0.699239 8.15004e-21)
(0.278874 0.586761 3.16461e-20)
(0.832895 0.474578 -1.18614e-19)
(0.812046 0.513231 1.37302e-19)
(0.785641 0.557089 -6.63181e-20)
(0.755456 0.604655 -3.75135e-20)
(0.719865 0.654689 4.81472e-22)
(0.676386 0.70341 -5.12e-20)
(0.621649 0.742521 3.48187e-20)
(0.550554 0.756638 3.92431e-20)
(0.456834 0.718936 5.51366e-21)
(0.334129 0.584642 -2.35272e-20)
(0.891253 0.503116 -8.63768e-21)
(0.874812 0.543568 -5.3094e-20)
(0.853137 0.589277 2.2587e-20)
(0.828306 0.638081 -4.66666e-21)
(0.798186 0.688381 -1.80497e-20)
(0.759555 0.735699 8.84711e-21)
(0.707832 0.770719 -3.43547e-21)
(0.635875 0.776877 -8.20391e-21)
(0.533831 0.726416 6.75665e-21)
(0.388815 0.57481 -8.41277e-21)
(0.952135 0.525417 1.78302e-20)
(0.940033 0.566629 5.95006e-21)
(0.923296 0.612961 -3.73608e-20)
(0.903973 0.661675 2.8376e-20)
(0.879218 0.710868 -1.24557e-20)
(0.845038 0.755433 -3.4015e-21)
(0.795602 0.785254 -8.11904e-21)
(0.72171 0.783084 -1.90334e-21)
(0.610067 0.721226 -5.16776e-20)
(0.441705 0.557212 3.21987e-20)
(1.0122 0.539178 -2.22321e-20)
(1.00412 0.580309 1.62395e-20)
(0.993405 0.626595 -3.93893e-21)
(0.980208 0.67438 -3.09693e-21)
(0.960779 0.721369 -1.11691e-20)
(0.930555 0.761975 -5.50467e-21)
(0.882526 0.785616 7.41209e-21)
(0.805581 0.77493 3.65846e-20)
(0.683359 0.703277 4.82136e-20)
(0.491621 0.532006 7.19611e-21)
(0.771993 -0.321478 1.34983e-19)
(0.742919 -0.342915 -8.42045e-20)
(0.705929 -0.362422 3.20243e-20)
(0.660376 -0.374888 -7.31415e-20)
(0.601473 -0.375574 -4.78498e-20)
(0.523154 -0.356908 -7.43251e-20)
(0.417788 -0.307913 -9.05004e-20)
(0.275787 -0.214144 -4.15609e-20)
(0.085785 -0.0573007 -5.77021e-20)
(-0.166762 0.185478 2.88062e-20)
(0.72919 -0.288301 -8.11621e-20)
(0.69901 -0.308324 -6.72672e-20)
(0.660173 -0.326989 1.16254e-19)
(0.612947 -0.339722 5.73639e-20)
(0.553566 -0.341677 8.5258e-20)
(0.4767 -0.325245 -1.43776e-19)
(0.375701 -0.2793 4.94995e-20)
(0.242394 -0.188897 1.01641e-19)
(0.0677847 -0.0345548 6.95504e-20)
(-0.158051 0.208976 -7.43378e-20)
(0.68906 -0.248827 3.83464e-20)
(0.656944 -0.266848 -1.56751e-20)
(0.616489 -0.283938 1.65607e-19)
(0.567706 -0.29596 -9.97637e-20)
(0.507557 -0.298117 -8.16011e-20)
(0.431569 -0.282978 4.69575e-20)
(0.334219 -0.239605 -6.31105e-22)
(0.208958 -0.153075 -2.05235e-19)
(0.0495179 -0.00357923 -8.23277e-21)
(-0.1488 0.235125 6.5454e-20)
(0.65392 -0.204992 2.5421e-19)
(0.619452 -0.220241 -1.19019e-19)
(0.577127 -0.234684 4.00783e-20)
(0.526622 -0.244734 -6.85481e-20)
(0.465411 -0.245823 1.79084e-19)
(0.389835 -0.230864 -9.56868e-21)
(0.29552 -0.189383 -3.38121e-20)
(0.177625 -0.106998 5.05882e-21)
(0.0327822 0.0355402 1.7002e-20)
(-0.138181 0.263929 -8.57499e-20)
(0.624559 -0.156706 -2.20006e-19)
(0.587717 -0.168615 -2.38018e-21)
(0.543479 -0.179633 8.9645e-20)
(0.491238 -0.186711 -4.40576e-21)
(0.428863 -0.185624 -1.02708e-20)
(0.353439 -0.169786 1.18204e-19)
(0.261698 -0.129474 -2.21174e-20)
(0.150495 -0.0513609 2.74552e-20)
(0.0193596 0.0823298 5.33304e-21)
(-0.125387 0.295171 1.14417e-19)
(0.601592 -0.104355 8.09502e-21)
(0.562622 -0.112455 -1.29282e-19)
(0.516662 -0.119442 1.16693e-19)
(0.462871 -0.122735 -1.02484e-20)
(0.399444 -0.118522 1.98696e-20)
(0.324123 -0.100851 -9.99389e-20)
(0.23467 -0.0610144 -1.49816e-20)
(0.129524 0.0127782 -7.45371e-21)
(0.0109333 0.135957 -5.2455e-20)
(-0.109653 0.328429 -2.49254e-20)
(0.585548 -0.0486605 1.13677e-19)
(0.544885 -0.0525381 -1.08479e-19)
(0.497576 -0.0549985 -5.14874e-21)
(0.442607 -0.0538468 -1.29089e-19)
(0.378438 -0.0457137 7.05671e-20)
(0.303386 -0.025392 -4.47363e-20)
(0.216108 0.0145844 3.75663e-20)
(0.116442 0.0840381 -7.2155e-20)
(0.00900904 0.195264 -6.77523e-20)
(-0.0902958 0.363102 -4.86625e-20)
(0.576837 0.00950136 7.12789e-20)
(0.53506 0.0101826 -7.2465e-20)
(0.486915 0.0126367 3.21601e-20)
(0.431295 0.0187469 2.26943e-20)
(0.366874 0.0314256 -4.20007e-20)
(0.292439 0.055052 7.22156e-20)
(0.207388 0.0956644 4.40638e-20)
(0.112689 0.160756 -1.34053e-19)
(0.0148489 0.258814 2.26019e-20)
(-0.066757 0.39843 5.85831e-20)
(0.575743 0.0691496 7.56214e-20)
(0.533539 0.0746282 -1.14993e-20)
(0.485176 0.0822703 -6.59956e-21)
(0.42955 0.0937012 -5.24489e-22)
(0.365508 0.111371 2.8215e-20)
(0.292191 0.13877 -8.34274e-20)
(0.209554 0.180364 6.8874e-20)
(0.119371 0.241032 5.37751e-21)
(0.0294245 0.324944 -2.52573e-21)
(-0.0386272 0.433532 4.28839e-20)
(0.582428 0.129231 -2.19566e-20)
(0.540549 0.139635 -2.31685e-21)
(0.492656 0.152617 6.11007e-21)
(0.437752 0.169574 6.8065e-21)
(0.374818 0.192491 1.71762e-20)
(0.303233 0.223925 -1.24208e-20)
(0.223296 0.266667 -7.29794e-21)
(0.137227 0.322789 -1.13839e-20)
(0.05339 0.391805 1.05498e-20)
(-0.00565216 0.467431 -7.72251e-21)
(0.831797 -0.354839 1.32964e-19)
(0.881719 -0.376899 -4.86468e-20)
(0.927572 -0.393553 1.25774e-20)
(0.969545 -0.402918 5.10957e-20)
(1.00775 -0.405173 2.58828e-20)
(1.04131 -0.400733 2.13646e-21)
(1.06885 -0.38981 2.02631e-21)
(1.08885 -0.372624 -2.22095e-21)
(1.09964 -0.349521 -1.52472e-21)
(1.09952 -0.32104 1.1166e-21)
(0.795547 -0.372382 6.13001e-20)
(0.847546 -0.393982 4.91327e-20)
(0.896252 -0.409085 4.52131e-20)
(0.940381 -0.41641 -1.33478e-20)
(0.979251 -0.415948 -1.12172e-20)
(1.01186 -0.408051 -8.40807e-21)
(1.03684 -0.393076 1.13915e-21)
(1.05264 -0.371501 4.7101e-21)
(1.05765 -0.343995 1.9292e-21)
(1.05032 -0.311483 -2.14079e-21)
(0.756993 -0.38943 -1.80332e-19)
(0.808947 -0.408597 1.77599e-20)
(0.858097 -0.420496 -8.60073e-20)
(0.902199 -0.424352 -1.2932e-20)
(0.939876 -0.420039 4.14819e-20)
(0.969806 -0.407877 1.17439e-20)
(0.990518 -0.388391 -2.07399e-21)
(1.00049 -0.362329 -8.78838e-22)
(0.998299 -0.330704 -7.70724e-21)
(0.982749 -0.294816 1.48498e-21)
(0.71061 -0.400359 -4.78844e-20)
(0.761098 -0.416865 -6.89359e-20)
(0.80861 -0.424971 -6.52523e-21)
(0.850575 -0.424456 -2.1651e-20)
(0.885102 -0.415417 -2.15648e-20)
(0.910547 -0.398351 -2.01735e-21)
(0.925373 -0.374052 -1.61836e-21)
(0.928193 -0.3436 8.88678e-22)
(0.917892 -0.308372 8.0121e-21)
(0.893771 -0.270036 -1.71961e-21)
(0.65039 -0.398985 -1.03168e-19)
(0.69827 -0.412348 1.07473e-19)
(0.742372 -0.416248 5.74939e-21)
(0.780142 -0.410954 -4.60863e-21)
(0.809477 -0.396951 1.19304e-20)
(0.828622 -0.375077 2.91635e-21)
(0.836122 -0.346485 -7.25232e-21)
(0.830868 -0.312629 1.01241e-20)
(0.812195 -0.275243 -1.53375e-21)
(0.780002 -0.236286 -6.8775e-22)
(0.569249 -0.377437 1.48298e-19)
(0.612909 -0.387194 -8.18929e-20)
(0.651695 -0.386862 -2.45745e-20)
(0.683234 -0.377133 -5.79781e-21)
(0.705502 -0.358928 -8.96211e-21)
(0.716885 -0.333487 2.92514e-21)
(0.716205 -0.302348 -6.3272e-21)
(0.70278 -0.26731 -3.40538e-21)
(0.676497 -0.230371 2.54803e-21)
(0.637878 -0.193642 3.14126e-21)
(0.45841 -0.32519 2.41358e-20)
(0.495424 -0.331599 1.45697e-20)
(0.526644 -0.328019 2.79219e-21)
(0.549992 -0.315509 -8.21936e-21)
(0.563744 -0.295387 2.57848e-20)
(0.566639 -0.269253 -5.4001e-23)
(0.557942 -0.238945 1.94593e-21)
(0.537491 -0.206472 1.24338e-21)
(0.505735 -0.173917 3.41101e-21)
(0.463733 -0.143326 -2.38851e-21)
(0.307007 -0.228837 6.99715e-20)
(0.334057 -0.233602 4.88351e-20)
(0.355094 -0.229527 -8.21876e-20)
(0.368467 -0.217925 -1.5182e-20)
(0.372913 -0.200355 -2.35533e-20)
(0.367662 -0.178591 -1.4355e-21)
(0.352484 -0.154545 -8.96085e-21)
(0.32771 -0.130179 1.16965e-20)
(0.294223 -0.107391 -1.88386e-22)
(0.253403 -0.0879064 5.05723e-21)
(0.101732 -0.0720672 -1.28395e-20)
(0.114161 -0.0794691 -8.25616e-20)
(0.121757 -0.0806282 6.10843e-20)
(0.123445 -0.076831 -1.9078e-20)
(0.118528 -0.0695222 2.35369e-20)
(0.106741 -0.0602586 -9.76899e-22)
(0.088269 -0.0506272 -7.55927e-21)
(0.0637327 -0.0421524 8.95382e-22)
(0.0341466 -0.0362049 -3.70249e-22)
(0.000833058 -0.0339272 -2.57791e-21)
(-0.175768 0.164343 -1.25901e-20)
(-0.185339 0.145537 4.33809e-20)
(-0.196063 0.128408 -1.78465e-20)
(-0.208262 0.112312 4.76915e-21)
(-0.222055 0.0965939 -5.17525e-21)
(-0.237353 0.0805928 9.17976e-22)
(-0.253863 0.0636811 1.23649e-21)
(-0.271113 0.0453087 5.36623e-21)
(-0.288494 0.0250398 -2.53941e-21)
(-0.305314 0.00256316 -8.8423e-22)
(1.08685 -0.287984 1.73584e-21)
(1.06032 -0.251563 -8.30386e-21)
(1.01922 -0.213435 4.49394e-20)
(0.963671 -0.175749 -3.25135e-20)
(0.894843 -0.14109 3.81828e-21)
(0.814927 -0.112312 -3.25602e-20)
(0.726826 -0.0922525 1.63859e-19)
(0.633301 -0.083313 8.0994e-21)
(0.533033 -0.0874663 -4.84722e-20)
(0.414626 -0.101181 1.09358e-19)
(1.02935 -0.275192 5.65597e-21)
(0.993955 -0.236766 -1.66342e-20)
(0.944088 -0.198217 -1.67871e-20)
(0.880607 -0.161889 -1.22925e-20)
(0.80535 -0.130311 -3.51497e-20)
(0.720947 -0.105966 -8.41656e-22)
(0.63032 -0.0909585 -1.07819e-20)
(0.535664 -0.0865177 2.99783e-20)
(0.435873 -0.0925134 9.66954e-20)
(0.325422 -0.102427 -2.13135e-20)
(0.95303 -0.256277 -3.80454e-21)
(0.909017 -0.217055 3.32718e-20)
(0.851392 -0.179355 8.58053e-21)
(0.781715 -0.145512 -1.91042e-21)
(0.702364 -0.117794 3.83232e-20)
(0.616253 -0.098132 1.66463e-20)
(0.526288 -0.0877676 3.21272e-20)
(0.434551 -0.0867682 -3.47017e-20)
(0.341035 -0.0934232 -6.90777e-20)
(0.244557 -0.101264 -1.622e-19)
(0.85564 -0.230509 4.63803e-21)
(0.804091 -0.191962 -1.46739e-20)
(0.740519 -0.156622 2.10704e-20)
(0.667073 -0.126633 -4.7846e-20)
(0.586511 -0.103845 -2.82139e-20)
(0.501868 -0.0895535 -1.3332e-20)
(0.415981 -0.0842004 -6.72671e-20)
(0.330941 -0.0870273 -3.10393e-20)
(0.247661 -0.0957043 3.73785e-21)
(0.167088 -0.105073 5.02586e-20)
(0.734765 -0.19786 2.28063e-21)
(0.67776 -0.162162 -2.16279e-23)
(0.610978 -0.131252 1.39024e-20)
(0.536965 -0.106916 4.25919e-20)
(0.458635 -0.0904697 -7.21683e-21)
(0.378949 -0.0825654 -6.26449e-20)
(0.300542 -0.0829835 1.0547e-19)
(0.225407 -0.090453 -3.21106e-20)
(0.154829 -0.102523 -2.40991e-20)
(0.0902915 -0.115239 -1.1362e-20)
(0.588015 -0.159223 -6.30978e-21)
(0.528722 -0.129132 6.58395e-21)
(0.462364 -0.105079 2.17291e-20)
(0.391626 -0.0883583 -2.09359e-20)
(0.319325 -0.0797134 4.13699e-20)
(0.248139 -0.0792121 -5.05573e-21)
(0.180352 -0.0861474 3.96803e-21)
(0.11769 -0.0989838 2.64628e-20)
(0.061383 -0.115382 2.06923e-20)
(0.012696 -0.132278 6.67261e-21)
(0.413021 -0.116578 9.37181e-22)
(0.355701 -0.0953065 -1.2574e-21)
(0.294222 -0.0807271 3.10413e-20)
(0.231119 -0.0735846 -3.71691e-20)
(0.168862 -0.0740821 -7.05106e-20)
(0.109669 -0.0818318 3.40007e-20)
(0.0553515 -0.0958345 -1.79894e-20)
(0.00724914 -0.1145 1.9162e-20)
(-0.0336867 -0.135734 5.38871e-20)
(-0.0666264 -0.157133 -5.83174e-20)
(0.206946 -0.0731692 -9.97071e-22)
(0.156911 -0.0642475 -1.95142e-20)
(0.105505 -0.0618035 2.75418e-20)
(0.0548337 -0.0660617 1.69205e-20)
(0.00681568 -0.0767974 -5.16946e-20)
(-0.03692 -0.0933477 -4.05645e-20)
(-0.0751021 -0.114634 -2.89756e-21)
(-0.106824 -0.139204 6.33373e-21)
(-0.131476 -0.165316 8.12262e-21)
(-0.148621 -0.191109 -2.27687e-20)
(-0.0347284 -0.0361694 1.67454e-21)
(-0.0709078 -0.0433169 2.69472e-20)
(-0.106088 -0.0555354 1.09936e-20)
(-0.138841 -0.0726624 -3.63228e-20)
(-0.16795 -0.0942383 3.58919e-20)
(-0.192452 -0.119553 -4.69941e-20)
(-0.21164 -0.147678 6.16951e-20)
(-0.225034 -0.177496 -7.41176e-20)
(-0.232338 -0.207744 -3.92323e-20)
(-0.233386 -0.237119 -1.05619e-19)
(-0.320822 -0.0223335 -4.69555e-22)
(-0.334295 -0.0493023 -7.80999e-21)
(-0.345113 -0.0782583 5.78951e-21)
(-0.352749 -0.108912 6.87617e-21)
(-0.356818 -0.140862 -1.5528e-20)
(-0.357063 -0.173635 1.52715e-20)
(-0.353334 -0.206712 -1.86997e-20)
(-0.345562 -0.239521 1.44849e-20)
(-0.333734 -0.271463 -3.68384e-20)
(-0.31786 -0.301938 4.06496e-20)
(-0.297859 -0.330336 5.82881e-20)
(-0.228163 -0.26443 -4.38265e-20)
(-0.157985 -0.215002 -4.55097e-20)
(-0.0906441 -0.176683 6.11807e-20)
(-0.0263161 -0.146931 -5.60146e-21)
(0.035545 -0.124358 7.27932e-20)
(0.0951149 -0.107676 8.29072e-21)
(0.152623 -0.0960096 -6.54524e-20)
(0.209382 -0.0894754 1.21046e-19)
(0.264559 -0.0850159 -1.66934e-20)
(-0.274388 -0.355781 -6.1653e-20)
(-0.217178 -0.288694 1.69069e-19)
(-0.159749 -0.236101 -7.0856e-21)
(-0.105219 -0.193849 -5.58682e-20)
(-0.0537005 -0.15971 4.43226e-20)
(-0.00455568 -0.132261 -1.00953e-19)
(0.0425956 -0.110128 1.16361e-19)
(0.0883538 -0.0923455 -9.85183e-20)
(0.13419 -0.0791848 1.76348e-20)
(0.178367 -0.0700916 7.70694e-20)
(-0.247837 -0.378166 3.53885e-20)
(-0.201163 -0.309461 -1.06602e-19)
(-0.154787 -0.253931 3.70049e-20)
(-0.111363 -0.208418 -2.04952e-20)
(-0.0708056 -0.17099 3.78828e-20)
(-0.0323365 -0.140322 -2.83803e-20)
(0.00457899 -0.115226 -2.69146e-20)
(0.0405889 -0.0949838 3.65891e-20)
(0.0766553 -0.0798823 -8.54937e-20)
(0.110713 -0.0697951 1.28363e-19)
(-0.218673 -0.39728 -7.57818e-20)
(-0.18103 -0.326424 8.3105e-21)
(-0.144324 -0.268156 3.87978e-20)
(-0.110608 -0.220045 5.26847e-20)
(-0.0795737 -0.180358 -8.05691e-20)
(-0.0503627 -0.147823 6.66304e-21)
(-0.0224107 -0.121357 -4.50307e-20)
(0.00482399 -0.100325 -9.45221e-20)
(0.0319294 -0.0848022 1.80275e-19)
(0.0571609 -0.0744898 6.91182e-20)
(-0.187415 -0.412968 5.31282e-20)
(-0.157736 -0.339404 1.21757e-20)
(-0.129613 -0.278559 4.74386e-20)
(-0.104453 -0.228411 -5.77445e-21)
(-0.0817346 -0.187261 6.27875e-20)
(-0.0605653 -0.153764 3.08864e-20)
(-0.0404072 -0.126784 7.89208e-20)
(-0.0208423 -0.10557 -8.02521e-20)
(-0.001514 -0.089873 -8.31557e-21)
(0.0162413 -0.0792006 -9.04185e-20)
(-0.154583 -0.425157 3.52944e-20)
(-0.132192 -0.348378 -4.16038e-20)
(-0.111812 -0.285108 -9.32729e-21)
(-0.0942332 -0.233398 -1.62727e-20)
(-0.0787624 -0.191398 -1.7844e-20)
(-0.0645152 -0.157562 -2.2713e-20)
(-0.0510146 -0.130586 3.71164e-20)
(-0.0379596 -0.109512 -4.96179e-20)
(-0.0251501 -0.0937729 4.47922e-20)
(-0.0135831 -0.0827223 5.89698e-21)
(-0.120664 -0.433849 -6.13356e-20)
(-0.105209 -0.353478 -3.09814e-20)
(-0.0919101 -0.28798 5.38266e-20)
(-0.0810382 -0.235148 -2.00624e-20)
(-0.0717965 -0.192806 2.97398e-20)
(-0.0633568 -0.159101 -9.00777e-20)
(-0.0553332 -0.132485 6.8852e-20)
(-0.0475421 -0.111773 -2.58314e-20)
(-0.0399112 -0.0961325 4.67573e-20)
(-0.0332073 -0.0847984 -5.64503e-20)
(-0.0861071 -0.439123 2.82845e-20)
(-0.077476 -0.354992 -1.21748e-20)
(-0.0706982 -0.287558 -1.87878e-20)
(-0.0656911 -0.23406 -7.54087e-21)
(-0.0616471 -0.191847 4.16722e-21)
(-0.0578512 -0.158676 1.25455e-20)
(-0.0540464 -0.132718 -3.09334e-20)
(-0.0501802 -0.112561 1.88612e-20)
(-0.0463053 -0.0971634 5.79377e-20)
(-0.0430753 -0.0856666 -5.60453e-20)
(-0.051301 -0.441141 2.11821e-20)
(-0.049537 -0.353345 5.93458e-23)
(-0.0487613 -0.284399 2.91945e-20)
(-0.0487613 -0.230747 -2.52145e-20)
(-0.048836 -0.189142 7.80541e-21)
(-0.048453 -0.1569 -8.73158e-21)
(-0.0475304 -0.131888 -4.96679e-21)
(-0.0461714 -0.112478 -2.8923e-20)
(-0.044561 -0.0974597 3.15561e-20)
(-0.043354 -0.0859007 3.29322e-20)
(-0.0165505 -0.440127 -3.73582e-21)
(-0.0217728 -0.349053 -3.18737e-21)
(-0.0264757 -0.279176 -2.87589e-21)
(-0.0305779 -0.225961 -1.10297e-20)
(-0.0336281 -0.185479 1.19192e-20)
(-0.0353584 -0.154575 4.35679e-21)
(-0.0359156 -0.130805 -9.34728e-21)
(-0.0355875 -0.112336 5.74995e-22)
(-0.0347019 -0.0978147 -5.66861e-21)
(-0.0340242 -0.0862478 -3.89122e-22)
(-0.0148991 -0.0570905 -1.16572e-21)
(-0.00854645 -0.0602895 -1.15897e-21)
(0.0411116 -0.0537943 2.59484e-21)
(0.0882887 -0.0405188 -1.72239e-21)
(0.150035 -0.0188258 -5.40387e-22)
(0.213365 0.00626177 -1.06083e-21)
(0.281062 0.026234 3.75964e-22)
(0.351109 0.0321179 -4.8447e-22)
(0.424824 0.0178388 2.56317e-22)
(0.500478 -0.0149786 5.25865e-23)
(0.572438 -0.0556017 -2.86423e-22)
(0.63332 -0.0892098 5.11225e-23)
(0.68061 -0.104059 -5.34551e-23)
(0.720502 -0.0957182 -7.32816e-23)
(0.763099 -0.0672266 1.18429e-23)
(0.813668 -0.0307792 -9.07851e-24)
(0.866561 0.00177511 3.89581e-24)
(0.915422 0.0186255 6.56339e-25)
(0.949143 0.0265089 -1.0435e-25)
(0.978848 0.0187077 6.35802e-24)
(0.0198342 -0.0583553 5.44446e-21)
(0.0270981 -0.0700925 4.05442e-21)
(0.0778948 -0.066216 -3.82312e-21)
(0.12308 -0.0542438 2.06021e-21)
(0.181671 -0.0329346 -3.956e-21)
(0.242345 -0.00754104 -1.59513e-22)
(0.308706 0.0129235 -3.58132e-22)
(0.379064 0.0193721 -7.57525e-22)
(0.453996 0.00577069 4.92273e-22)
(0.530369 -0.0258534 1.61887e-22)
(0.601323 -0.0645438 7.86598e-23)
(0.659194 -0.0958755 5.01814e-22)
(0.701791 -0.108979 -4.44695e-22)
(0.735789 -0.100018 -3.95332e-23)
(0.772142 -0.071771 3.70233e-23)
(0.817535 -0.0355192 1.53513e-23)
(0.867158 -0.002578 -2.09873e-23)
(0.914697 0.0153273 6.55162e-24)
(0.948033 0.0241819 4.58067e-25)
(0.978103 0.0176548 -1.47179e-23)
(0.0680576 -0.0616055 -1.87518e-20)
(0.0769283 -0.0803509 2.65301e-21)
(0.128972 -0.0785153 1.77805e-20)
(0.171587 -0.0674703 -8.74729e-21)
(0.225852 -0.0465393 -1.11739e-21)
(0.28255 -0.0210095 -3.83027e-21)
(0.346087 -0.000210283 6.28392e-23)
(0.415181 0.00676485 -1.47245e-21)
(0.489667 -0.00603436 -5.0079e-22)
(0.565116 -0.0362573 -4.40454e-22)
(0.633666 -0.0728556 -7.42801e-23)
(0.687578 -0.101861 6.7037e-23)
(0.725016 -0.113242 4.10953e-22)
(0.75297 -0.10372 -1.59402e-22)
(0.782968 -0.0758288 -4.68655e-23)
(0.822907 -0.0399304 5.06063e-23)
(0.868854 -0.00675735 -3.75544e-24)
(0.914653 0.0120988 -1.14458e-24)
(0.947313 0.0218676 -1.85891e-24)
(0.977513 0.0165967 -2.35491e-23)
(0.129787 -0.0673265 -5.09239e-21)
(0.140589 -0.0910054 1.97027e-20)
(0.193297 -0.0904693 -9.26395e-21)
(0.232555 -0.0799016 -4.80018e-21)
(0.281308 -0.0593113 3.79187e-21)
(0.332768 -0.0338107 -7.37171e-22)
(0.392052 -0.0128385 1.58009e-21)
(0.458337 -0.00538803 -7.74639e-22)
(0.530747 -0.0172915 1.63738e-21)
(0.603706 -0.045965 8.61801e-22)
(0.668579 -0.0803917 -1.84849e-21)
(0.717726 -0.107096 2.58548e-22)
(0.749676 -0.116824 5.17176e-24)
(0.771571 -0.106812 2.51952e-22)
(0.795249 -0.0793748 3.43256e-23)
(0.829597 -0.0439734 -3.34974e-23)
(0.87156 -0.0107221 -1.86487e-23)
(0.91526 0.00897065 -7.79326e-24)
(0.946974 0.0195855 3.71258e-24)