/*--------------------------------*- C++ -*----------------------------------*\
  =========                 |
  \\      /  F ield         | OpenFOAM: The Open Source CFD Toolbox
   \\    /   O peration     | Website:  https://openfoam.org
    \\  /    A nd           | Version:  6.0
     \\/     M anipulation  |
\*---------------------------------------------------------------------------*/
FoamFile
{
    version     2.0;
    format      ascii;
    class       volVectorField;
    location    "9.25";
    object      U;
}
// * * * * * * * * * * * * * * * * * * * * * * * * * * * * * * * * * * * * * //

dimensions      [0 1 -1 0 0 0 0];

internalField   nonuniform List<vector> 
2400
(
(0.432811 -4.17834 -1.87693e-19)
(0.159901 -3.40521 7.35456e-20)
(0.235896 -2.97118 -5.83484e-20)
(0.353686 -2.7118 -3.48502e-20)
(0.455301 -2.5432 -4.44649e-20)
(0.549712 -2.41908 6.49025e-20)
(0.636031 -2.3161 2.04211e-20)
(0.711556 -2.22286 1.55283e-20)
(0.776577 -2.13302 -3.46474e-20)
(0.831329 -2.04101 -3.1731e-21)
(0.764953 -4.15489 2.30003e-19)
(0.444015 -3.45427 -5.98389e-21)
(0.496235 -3.05186 4.89123e-20)
(0.600412 -2.80701 3.32726e-19)
(0.691823 -2.64343 -2.34231e-19)
(0.776316 -2.51714 -6.083e-21)
(0.851996 -2.40752 -5.05863e-21)
(0.916092 -2.30546 -2.82634e-20)
(0.969347 -2.20622 -3.17446e-20)
(1.01214 -2.10534 -2.12608e-21)
(1.09723 -4.10898 4.46994e-19)
(0.737334 -3.48567 3.34015e-19)
(0.769874 -3.11537 -8.38218e-19)
(0.861591 -2.88384 2.43249e-19)
(0.942146 -2.72362 3.25681e-19)
(1.01498 -2.59377 -1.82238e-19)
(1.07778 -2.47661 -1.49005e-19)
(1.12816 -2.36547 1.01414e-19)
(1.1676 -2.25722 -2.09274e-19)
(1.19658 -2.14874 2.12829e-19)
(1.42805 -4.03997 -1.53908e-18)
(1.03884 -3.49733 5.68545e-19)
(1.05546 -3.15882 -5.61431e-19)
(1.13531 -2.93907 2.34443e-19)
(1.20384 -2.78064 -2.27991e-19)
(1.26292 -2.64616 3.16756e-19)
(1.31044 -2.5211 1.04159e-19)
(1.34486 -2.4012 -4.59595e-19)
(1.36862 -2.28489 -3.63637e-19)
(1.38228 -2.17059 3.97067e-19)
(1.75598 -3.94732 7.14006e-20)
(1.34724 -3.48712 -2.37034e-19)
(1.3512 -3.17936 -1.21019e-19)
(1.41917 -2.96968 -1.18822e-19)
(1.47407 -2.81172 -6.2567e-19)
(1.51707 -2.67203 7.60508e-20)
(1.54689 -2.53927 -5.93807e-20)
(1.56322 -2.41148 5.0103e-19)
(1.56968 -2.2885 -3.43135e-19)
(1.56684 -2.17056 -1.93712e-19)
(2.07937 -3.83053 1.49835e-18)
(1.66075 -3.45296 -1.34822e-19)
(1.65479 -3.17432 1.64793e-18)
(1.71036 -2.97306 -2.29073e-19)
(1.7497 -2.81461 8.00497e-19)
(1.77424 -2.6697 -1.08544e-19)
(1.78406 -2.53001 1.43514e-20)
(1.78041 -2.39566 4.50242e-19)
(1.76818 -2.26776 -2.47818e-19)
(1.74803 -2.14842 3.39317e-19)
(2.39646 -3.68923 -5.96797e-19)
(1.97722 -3.39299 1.16292e-19)
(1.96346 -3.14139 -4.31356e-19)
(2.00567 -2.94704 -4.30889e-19)
(2.02737 -2.78765 1.54391e-20)
(2.03115 -2.63807 1.3004e-18)
(2.01898 -2.49283 -4.48633e-19)
(1.99386 -2.35374 1.41866e-19)
(1.96202 -2.22281 -6.36437e-19)
(1.9243 -2.10414 -2.9699e-19)
(2.70546 -3.52328 2.63571e-18)
(2.29423 -3.30561 -3.82683e-19)
(2.27413 -3.07863 -2.44262e-18)
(2.30161 -2.88996 1.25185e-19)
(2.30348 -2.72965 4.63173e-19)
(2.28437 -2.57656 -6.25669e-19)
(2.24858 -2.42768 -7.69937e-19)
(2.20105 -2.28601 1.10947e-18)
(2.14931 -2.15406 -9.7903e-20)
(2.09441 -2.03873 -8.37906e-19)
(3.00472 -3.33279 -2.21643e-18)
(2.60924 -3.18951 1.15663e-18)
(2.5835 -2.98458 1.62292e-18)
(2.59457 -2.80069 3.77159e-19)
(2.57443 -2.63995 -1.35153e-18)
(2.53043 -2.48487 8.2783e-19)
(2.46948 -2.3344 4.43705e-19)
(2.39857 -2.19219 9.04005e-19)
(2.32621 -2.06155 -5.78068e-19)
(2.25349 -1.95458 -7.36258e-19)
(3.29229 -3.11753 7.37105e-19)
(2.91938 -3.04352 -2.81312e-19)
(2.88819 -2.85833 -6.39831e-20)
(2.88114 -2.67887 3.8557e-19)
(2.83715 -2.51864 2.99608e-19)
(2.76677 -2.36322 -2.24791e-19)
(2.67946 -2.21288 -3.77289e-19)
(2.58359 -2.07166 6.00326e-19)
(2.48692 -1.94501 -4.83416e-19)
(2.39053 -1.85069 4.41013e-19)
(4.97803 0.140434 4.87728e-20)
(4.93444 -0.248916 1.51099e-19)
(4.85845 -0.630067 -4.791e-19)
(4.75174 -1.00044 4.3428e-19)
(4.61579 -1.35762 1.72373e-19)
(4.45231 -1.69937 2.16364e-18)
(4.2633 -2.02372 -8.53672e-19)
(4.05091 -2.32895 -1.18083e-18)
(3.81713 -2.61369 1.30575e-18)
(3.56472 -2.87657 -2.26421e-18)
(4.99576 -0.131835 1.46932e-19)
(4.91735 -0.512 -6.71597e-20)
(4.8031 -0.879952 -4.25193e-19)
(4.65529 -1.23222 1.14242e-18)
(4.47638 -1.56566 -3.92152e-19)
(4.26913 -1.87746 3.0152e-18)
(4.03665 -2.16522 -1.96325e-18)
(3.78224 -2.42699 2.79155e-18)
(3.5091 -2.66129 -1.96264e-18)
(3.22085 -2.86701 -9.90134e-19)
(4.87372 -0.0974439 -2.80247e-19)
(4.80948 -0.458982 1.97547e-20)
(4.70878 -0.810475 -1.21016e-18)
(4.5734 -1.14797 9.2056e-19)
(4.40555 -1.46781 -9.93931e-19)
(4.20789 -1.76667 -1.93272e-18)
(3.98346 -2.04161 -6.61245e-19)
(3.7357 -2.2901 -4.69042e-19)
(3.46808 -2.51007 1.88411e-18)
(3.1845 -2.69986 1.07215e-18)
(4.64316 -0.0505114 1.16162e-19)
(4.59968 -0.386561 -2.01642e-19)
(4.52148 -0.71567 -2.77366e-19)
(4.4097 -1.0339 -1.13383e-18)
(4.26597 -1.33751 7.39804e-19)
(4.09246 -1.62304 2.02919e-18)
(3.89174 -1.88726 8.28029e-19)
(3.6668 -2.12732 1.75189e-19)
(3.42099 -2.34065 4.69501e-19)
(3.15793 -2.52509 5.35839e-20)
(4.3682 -0.0361398 -1.24426e-19)
(4.34058 -0.344564 -4.89083e-19)
(4.28116 -0.64853 4.60671e-20)
(4.1906 -0.944419 9.13146e-19)
(4.07004 -1.22871 9.82621e-19)
(3.92108 -1.49812 -6.64071e-19)
(3.7458 -1.74943 -1.18194e-18)
(3.54669 -1.97979 -6.07092e-19)
(3.32672 -2.18639 6.63578e-19)
(3.08904 -2.3668 1.02187e-18)
(4.09082 -0.0318417 3.03153e-20)
(4.0737 -0.313607 4.03959e-19)
(4.02802 -0.592629 -9.47071e-19)
(3.95412 -0.865716 1.16035e-18)
(3.85282 -1.12971 7.00308e-19)
(3.72527 -1.38168 1.32282e-18)
(3.57315 -1.6186 -2.81922e-19)
(3.39846 -1.83797 -7.85022e-19)
(3.20394 -2.03682 1.83464e-18)
(2.99211 -2.21294 -1.5691e-18)
(3.8328 -0.0304166 6.01825e-20)
(3.82168 -0.287902 -4.44343e-19)
(3.78504 -0.543691 -2.85006e-19)
(3.72311 -0.795022 -6.21634e-19)
(3.63648 -1.03912 -8.78725e-20)
(3.52599 -1.2735 -8.88053e-19)
(3.39309 -1.49542 -5.75471e-19)
(3.23928 -1.70304 -9.63959e-20)
(3.06741 -1.89312 -1.09763e-18)
(2.87909 -2.06447 1.51147e-18)
(3.60242 -0.0302805 -5.02761e-20)
(3.59405 -0.266452 3.69389e-19)
(3.56283 -0.501442 -1.62884e-19)
(3.50895 -0.732864 3.57946e-19)
(3.43288 -0.958303 8.61294e-19)
(3.33531 -1.17576 1.43415e-18)
(3.2175 -1.38277 -3.85731e-19)
(3.08047 -1.57853 -1.36883e-18)
(2.92758 -1.75915 4.02759e-19)
(2.75891 -1.92574 -2.33079e-18)
(3.40008 -0.0292848 7.19667e-20)
(3.39258 -0.247468 -8.52686e-20)
(3.36443 -0.464698 -8.29012e-19)
(3.31581 -0.678879 2.49879e-19)
(3.2472 -0.887891 -5.94519e-19)
(3.15908 -1.09017 -2.55132e-19)
(3.05266 -1.28348 -1.66502e-19)
(2.92833 -1.46842 6.25084e-19)
(2.7903 -1.64022 6.10241e-19)
(2.63615 -1.80427 4.72155e-19)
(3.22229 -0.028735 -1.69233e-19)
(3.21464 -0.231218 2.94429e-19)
(3.18822 -0.433381 1.42318e-19)
(3.1431 -0.633359 4.01248e-19)
(3.07973 -0.829247 -4.22572e-20)
(2.99816 -1.01976 -3.52655e-20)
(2.89973 -1.20267 -9.66491e-19)
(2.78335 -1.3799 1.26433e-18)
(2.65538 -1.54515 -7.90158e-19)
(2.51016 -1.71409 2.19085e-19)
(3.54013 3.72747 -1.42618e-18)
(3.82409 3.44133 1.4889e-18)
(4.08106 3.13143 -7.90995e-20)
(4.30926 2.80041 -2.54163e-18)
(4.50661 2.45081 1.84065e-18)
(4.67136 2.08557 -1.27895e-18)
(4.80229 1.70792 -2.87752e-19)
(4.89866 1.32131 -2.70425e-19)
(4.96006 0.929053 4.31682e-19)
(4.98681 0.534946 3.06997e-20)
(3.72876 3.4115 1.7734e-18)
(4.00543 3.13613 3.37524e-19)
(4.25452 2.83442 -1.78462e-18)
(4.47338 2.5091 -1.86627e-18)
(4.65942 2.16319 1.5428e-18)
(4.81038 1.80015 -1.22773e-18)
(4.92448 1.42381 1.36717e-18)
(5.00055 1.03828 -3.84912e-19)
(5.03782 0.64768 -1.14093e-18)
(5.03634 0.256416 -7.87228e-20)
(3.54521 3.14736 -3.15689e-19)
(3.81554 2.90864 -2.37925e-19)
(4.06212 2.64291 1.03301e-18)
(4.28178 2.35242 9.46864e-19)
(4.47165 2.03988 2.05016e-18)
(4.62919 1.70849 6.51905e-19)
(4.75225 1.36181 -4.62302e-19)
(4.83919 1.00375 -9.81512e-19)
(4.88877 0.638325 7.83979e-19)
(4.90039 0.269872 5.59699e-20)
(3.28896 2.85016 4.36901e-19)
(3.54443 2.64664 -1.01948e-18)
(3.78015 2.4172 -4.0278e-19)
(3.99291 2.16357 -1.77115e-18)
(4.17987 1.888 -9.43935e-19)
(4.33852 1.59325 1.74756e-18)
(4.46664 1.28239 1.12425e-18)
(4.56239 0.958847 -9.46448e-19)
(4.62432 0.626235 4.06993e-20)
(4.65142 0.288457 -4.01751e-20)
(3.05587 2.55137 -1.56357e-18)
(3.29136 2.3755 1.77646e-18)
(3.51013 2.1757 -4.48414e-19)
(3.70921 1.95319 9.33876e-19)
(3.88599 1.70986 -6.19598e-19)
(4.03818 1.44805 -1.04258e-18)
(4.16369 1.17041 4.91835e-19)
(4.26074 0.879884 -5.28371e-19)
(4.32786 0.579663 -5.07928e-19)
(4.36389 0.273135 2.147e-19)
(2.85645 2.28843 -2.1272e-19)
(3.0717 2.13381 3.33907e-19)
(3.27213 1.95744 -3.87485e-19)
(3.45522 1.76003 -1.8252e-18)
(3.61876 1.54323 9.85006e-19)
(3.76072 1.30911 1.59233e-19)
(3.87925 1.05999 -8.85408e-19)
(3.97274 0.798463 -3.01965e-19)
(4.03984 0.527319 2.75121e-19)
(4.07942 0.24951 -7.95697e-20)
(2.69147 2.06803 -8.288e-19)
(2.88869 1.92967 3.13605e-21)
(3.07177 1.77166 3.97866e-19)
(3.23882 1.59416 1.04036e-18)
(3.38835 1.39875 2.15899e-19)
(3.51865 1.18729 5.20205e-19)
(3.62812 0.961867 1.01541e-18)
(3.71535 0.724826 -4.29106e-19)
(3.77915 0.478677 3.6526e-19)
(3.81851 0.226016 -1.36791e-19)
(2.55551 1.88617 -2.95152e-19)
(2.73717 1.76145 3.44715e-19)
(2.90514 1.61783 3.37648e-19)
(3.0575 1.45602 -4.96603e-19)
(3.19362 1.27769 -2.75242e-19)
(3.31233 1.0844 -5.94599e-19)
(3.41228 0.878178 5.67831e-20)
(3.49222 0.661267 -1.32293e-19)
(3.55109 0.435985 -7.81215e-19)
(3.58801 0.204661 1.05018e-19)
(2.44438 1.73717 -1.06977e-19)
(2.60885 1.62654 -5.73783e-19)
(2.76333 1.49392 -2.23346e-19)
(2.90317 1.34423 1.10382e-19)
(3.02741 1.17954 -6.40759e-20)
(3.13557 1.00084 5.28939e-19)
(3.22667 0.810073 2.1113e-19)
(3.29956 0.609513 3.16166e-19)
(3.35324 0.401347 3.70239e-19)
(3.3869 0.187693 -1.51803e-19)
(2.37417 1.6008 -4.01617e-19)
(2.51394 1.50191 7.07322e-19)
(2.64997 1.37817 -1.16136e-18)
(2.777 1.23916 -1.79937e-20)
(2.88925 1.08731 9.58159e-19)
(2.9862 0.922705 4.66241e-20)
(3.06784 0.746823 4.21376e-19)
(3.13323 0.561783 -8.73267e-19)
(3.18127 0.3696 -7.80107e-21)
(3.2111 0.172144 7.77822e-20)
(0.689603 1.78742 1.16001e-20)
(0.650573 1.92345 -3.15946e-21)
(0.608951 2.08988 -3.57228e-21)
(0.561168 2.29958 3.28554e-20)
(0.507817 2.56853 -1.45544e-20)
(0.448639 2.91349 -5.96122e-20)
(0.386671 3.34636 7.78146e-20)
(0.339839 3.86168 3.02544e-20)
(0.262133 4.41175 5.01768e-20)
(-0.111681 4.88468 2.07206e-19)
(0.838613 1.83773 3.10886e-20)
(0.811822 1.97859 -9.31897e-20)
(0.783601 2.14958 9.65111e-20)
(0.752724 2.36342 2.25471e-20)
(0.720752 2.63564 -4.9705e-20)
(0.688415 2.9823 5.11248e-20)
(0.659531 3.41377 2.07704e-19)
(0.651402 3.92053 -2.69877e-19)
(0.614028 4.45329 1.36773e-20)
(0.273497 4.91298 -2.5569e-19)
(0.996172 1.87437 1.61822e-19)
(0.98211 2.01921 -2.02013e-19)
(0.967819 2.19387 -7.92306e-20)
(0.954428 2.41072 -7.60782e-21)
(0.944334 2.68475 -9.42322e-20)
(0.939122 3.03118 -4.19058e-20)
(0.943149 3.45868 7.27602e-20)
(0.972511 3.95368 2.10816e-19)
(0.972715 4.46575 1.62045e-19)
(0.66172 4.91 -4.87747e-19)
(1.16113 1.89622 1.77381e-19)
(1.16004 2.04413 -1.8922e-19)
(1.16007 2.22148 -1.88562e-19)
(1.16465 2.44004 1.04051e-19)
(1.1768 2.71425 5.9265e-19)
(1.19885 3.0584 -2.43682e-19)
(1.23541 3.4793 1.96356e-19)
(1.30084 3.95941 -6.91204e-19)
(1.33571 4.4478 -7.97549e-19)
(1.0505 4.87517 9.19302e-19)
(1.33219 1.90247 1.46728e-19)
(1.34403 2.05249 -8.93105e-20)
(1.35863 2.23139 2.68046e-19)
(1.38151 2.45019 -2.33349e-19)
(1.41615 2.72279 1.9209e-19)
(1.46539 3.06248 1.63347e-19)
(1.5339 3.47411 1.56718e-19)
(1.63374 3.93627 1.37655e-19)
(1.70019 4.39823 5.33854e-19)
(1.43705 4.80784 4.52591e-19)
(1.50783 1.89242 -5.0168e-19)
(1.53226 2.04359 -1.16013e-19)
(1.56148 2.22279 5.22491e-19)
(1.60288 2.44021 -5.78045e-19)
(1.66009 2.70928 -2.62079e-19)
(1.7363 3.0422 -6.77347e-19)
(1.83592 3.44181 3.00271e-20)
(1.96824 3.88308 -7.46448e-19)
(2.06299 4.31618 -8.52818e-20)
(1.81845 4.70768 -1.40257e-18)
(1.68627 1.8662 8.01706e-19)
(1.72268 2.01735 -1.19188e-18)
(1.76642 2.1953 6.58786e-19)
(1.82642 2.40943 3.18758e-19)
(1.90614 2.67284 -8.09304e-20)
(2.00889 2.99658 9.63089e-19)
(2.13853 3.38139 -6.03873e-19)
(2.30111 3.7989 -1.58938e-18)
(2.42074 4.201 -2.26231e-19)
(2.19159 4.57476 1.29473e-18)
(1.86518 1.82303 -2.42754e-21)
(1.91265 1.9732 5.93714e-19)
(1.97076 2.14834 -2.73072e-19)
(2.04948 2.35723 2.95034e-19)
(2.15156 2.61283 2.78479e-19)
(2.28021 2.92491 -4.83913e-19)
(2.43851 3.29216 3.51979e-19)
(2.62889 3.68322 -8.17167e-19)
(2.76988 4.05266 2.13756e-18)
(2.55337 4.40959 -7.01291e-19)
(2.04121 1.76616 -4.15835e-19)
(2.09894 1.91226 -1.82438e-19)
(2.17176 2.08206 8.3317e-19)
(2.26955 2.28336 -1.18812e-18)
(2.39368 2.52887 1.17488e-18)
(2.5473 2.82681 -6.07915e-19)
(2.7326 3.17379 -1.0211e-18)
(2.94803 3.53581 2.32517e-19)
(3.10678 3.87117 -3.76037e-18)
(2.90073 4.21274 2.56042e-18)
(2.2112 1.69326 1.11312e-18)
(2.27593 1.83224 -8.80446e-19)
(2.36561 1.99509 8.96315e-19)
(2.48358 2.18738 -7.5161e-20)
(2.62935 2.42081 -9.23117e-19)
(2.80682 2.70221 -4.75387e-19)
(3.0172 3.02627 5.33805e-19)
(3.25471 3.357 1.44924e-18)
(3.4277 3.65751 1.82224e-18)
(3.23041 3.9861 1.62045e-20)
(-0.185336 0.852476 2.42138e-19)
(-0.300459 0.914927 -1.65828e-19)
(-0.445712 1.01302 5.39225e-20)
(-0.628223 1.14982 -1.13303e-19)
(-0.857841 1.33442 -6.07509e-20)
(-1.14809 1.57839 -5.7398e-20)
(-1.5104 1.89711 3.4141e-20)
(-1.94267 2.3141 8.69859e-20)
(-2.47685 2.7975 1.88002e-19)
(-3.2884 3.14068 -1.89299e-19)
(-0.152951 0.959247 -1.15708e-19)
(-0.262542 1.02845 -9.27034e-20)
(-0.39768 1.13272 1.71492e-19)
(-0.569034 1.27728 6.2958e-20)
(-0.784626 1.47367 6.04425e-20)
(-1.05619 1.73459 -4.41958e-20)
(-1.39344 2.07537 -3.14228e-20)
(-1.79125 2.51762 -2.05318e-19)
(-2.28113 3.02868 -2.73461e-19)
(-3.0488 3.41059 4.82013e-19)
(-0.10801 1.06669 4.65423e-20)
(-0.212422 1.14417 -6.62317e-21)
(-0.338276 1.25526 1.4532e-19)
(-0.497972 1.4075 -9.36084e-20)
(-0.698507 1.61459 -2.55344e-20)
(-0.950077 1.89055 9.02392e-21)
(-1.2607 2.25082 -1.24869e-20)
(-1.62248 2.71478 4.11514e-19)
(-2.0668 3.24863 1.72256e-19)
(-2.78896 3.66332 -3.58447e-19)
(-0.0504875 1.17369 2.13772e-19)
(-0.149824 1.25949 -8.01875e-20)
(-0.266727 1.37801 2.83564e-20)
(-0.414323 1.53827 -7.31819e-21)
(-0.59889 1.75542 3.03467e-20)
(-0.829277 2.0448 -2.54701e-20)
(-1.11184 2.42208 -1.52075e-20)
(-1.43622 2.90426 4.43703e-20)
(-1.83409 3.45617 -1.88194e-21)
(-2.50973 3.89767 5.40824e-19)
(0.0195776 1.27863 -1.35503e-19)
(-0.0741596 1.37267 -3.81401e-21)
(-0.182052 1.49894 2.47275e-20)
(-0.317166 1.66743 2.50678e-21)
(-0.485043 1.89417 -2.36119e-22)
(-0.693252 2.19559 -4.79714e-20)
(-0.94655 2.58754 4.89436e-20)
(-1.23243 3.08449 -6.05435e-20)
(-1.58322 3.64971 -8.42729e-21)
(-2.21193 4.11193 -6.73192e-19)
(0.101937 1.38031 6.92818e-21)
(0.0147231 1.48239 -2.64949e-20)
(-0.083761 1.61638 9.07059e-21)
(-0.205918 1.79301 -1.75898e-21)
(-0.356428 2.02882 -2.11254e-20)
(-0.541587 2.34097 8.7235e-20)
(-0.764622 2.74535 3.56365e-20)
(-1.01118 3.25367 1.7339e-20)
(-1.31466 3.82748 1.67155e-19)
(-1.89666 4.30439 1.36321e-19)
(0.196458 1.47733 6.6812e-21)
(0.11682 1.58717 5.64499e-21)
(0.0283174 1.72862 -9.95516e-22)
(-0.0803137 1.91309 6.76135e-20)
(-0.212776 2.15733 -5.20882e-20)
(-0.374091 2.47892 5.6659e-20)
(-0.56602 2.89351 -6.62505e-20)
(-0.772717 3.40984 2.12259e-19)
(-1.02909 3.98761 2.35128e-19)
(-1.56527 4.47343 3.30543e-19)
(0.302936 1.56814 -1.58408e-20)
(0.231954 1.68537 2.75001e-20)
(0.1541 1.8339 -1.62424e-20)
(0.0596364 2.02572 -1.57218e-20)
(-0.0540847 2.27762 6.10797e-20)
(-0.19082 2.60731 -1.03936e-19)
(-0.350953 3.0299 -1.00397e-19)
(-0.517516 3.55092 4.12573e-19)
(-0.727416 4.12814 -9.32931e-20)
(-1.21937 4.6175 -3.72401e-19)
(0.421001 1.65115 -3.4097e-20)
(0.359729 1.77528 1.07886e-20)
(0.293239 1.93039 5.27779e-21)
(0.213632 2.12896 -1.68061e-21)
(0.119355 2.38762 -4.09754e-20)
(0.00788194 2.72398 1.60056e-19)
(-0.11989 3.15233 -1.90997e-19)
(-0.246266 3.67475 -3.69782e-20)
(-0.410686 4.24706 8.47972e-23)
(-0.860609 4.73508 -3.14841e-19)
(0.550131 1.72475 1.70261e-20)
(0.499552 1.85517 2.67193e-21)
(0.445154 2.01628 -5.77992e-21)
(0.381117 2.22084 -1.24347e-20)
(0.306979 2.48522 -3.49386e-20)
(0.221388 2.82669 2.88273e-20)
(0.126383 3.25847 1.85121e-20)
(0.0399664 3.77902 4.25951e-20)
(-0.0804121 4.34236 -7.17495e-20)
(-0.491278 4.82492 6.67235e-20)
(-0.190398 0.732242 3.1704e-19)
(-0.214335 0.639239 -1.44382e-19)
(-0.231136 0.546656 4.31252e-20)
(-0.245213 0.460971 2.60495e-19)
(-0.256436 0.383671 1.67119e-19)
(-0.265767 0.314933 1.47018e-20)
(-0.274546 0.254233 8.4543e-20)
(-0.283844 0.20048 1.67507e-20)
(-0.294345 0.152125 2.80112e-20)
(-0.30633 0.107281 -1.14752e-20)
(-0.322394 0.805103 1.36717e-19)
(-0.347013 0.706734 1.60789e-19)
(-0.366088 0.607893 1.74279e-19)
(-0.382415 0.515973 -5.48443e-20)
(-0.395786 0.432396 -8.45762e-20)
(-0.407037 0.357172 -1.39144e-19)
(-0.417221 0.289635 6.33503e-20)
(-0.427188 0.228623 -2.0671e-19)
(-0.437478 0.172612 -1.82094e-20)
(-0.448305 0.119834 1.68015e-20)
(-0.481653 0.89862 -4.04225e-19)
(-0.510912 0.791651 6.98118e-20)
(-0.5346 0.685986 -3.24478e-19)
(-0.554608 0.586755 -9.68852e-20)
(-0.571062 0.495112 3.12676e-19)
(-0.584726 0.411068 1.94487e-19)
(-0.596407 0.333985 7.52436e-20)
(-0.606747 0.262794 -3.15781e-20)
(-0.616156 0.19615 7.25454e-20)
(-0.624801 0.132537 -1.05758e-20)
(-0.67556 1.02662 -9.28616e-20)
(-0.713603 0.907872 -1.72074e-19)
(-0.744937 0.791775 -2.77408e-20)
(-0.770938 0.681495 -1.01471e-19)
(-0.792066 0.577831 -1.69813e-19)
(-0.809032 0.480808 -1.55835e-20)
(-0.822484 0.38992 -1.0247e-19)
(-0.832931 0.304317 -4.8996e-20)
(-0.840716 0.222941 -8.50591e-20)
(-0.846022 0.144609 9.48337e-21)
(-0.918629 1.19778 -1.82036e-19)
(-0.968922 1.0638 2.37987e-19)
(-1.01067 0.932609 2.51541e-20)
(-1.04499 0.806232 -4.03712e-20)
(-1.07248 0.685288 6.32079e-20)
(-1.09379 0.569893 1.04477e-19)
(-1.10944 0.459768 1.7714e-19)
(-1.11987 0.354379 -1.30416e-19)
(-1.1254 0.253035 1.67819e-20)
(-1.12628 0.154957 6.47807e-22)
(-1.22644 1.42291 1.76808e-19)
(-1.29272 1.26872 -1.21721e-19)
(-1.34815 1.11649 -5.18673e-20)
(-1.39362 0.967666 -9.91879e-21)
(-1.42973 0.822845 -5.32116e-20)
(-1.45701 0.682334 7.90599e-20)
(-1.4759 0.546163 8.37889e-20)
(-1.48676 0.414188 1.3373e-20)
(-1.48991 0.286152 -2.02842e-20)
(-1.48565 0.161738 -1.46693e-20)
(-1.61211 1.71721 -3.2745e-20)
(-1.69965 1.53679 2.58027e-20)
(-1.7736 1.35665 5.96398e-21)
(-1.83466 1.178 -4.94893e-20)
(-1.8833 1.00158 1.0058e-19)
(-1.91988 0.827941 9.25525e-21)
(-1.94472 0.657482 -7.09275e-20)
(-1.9581 0.490494 -2.33082e-20)
(-1.9603 0.3272 -1.47755e-20)
(-1.95162 0.167786 7.6279e-21)
(-2.07687 2.10552 -1.57919e-19)
(-2.19426 1.89364 -9.21612e-20)
(-2.29509 1.67927 1.1372e-19)
(-2.37977 1.46371 1.13612e-20)
(-2.44857 1.24784 -2.0275e-20)
(-2.50162 1.03254 -7.87656e-21)
(-2.53905 0.818576 3.3364e-20)
(-2.56095 0.60671 -3.91243e-20)
(-2.56747 0.397651 1.64135e-20)
(-2.55881 0.192077 -3.60271e-21)
(-2.65316 2.5562 -3.8492e-20)
(-2.80921 2.30753 2.43481e-19)
(-2.94568 2.05242 -2.09178e-19)
(-3.06249 1.79229 1.85585e-19)
(-3.1596 1.52829 -1.58685e-19)
(-3.23683 1.2616 1.44384e-20)
(-3.29399 0.993424 -5.39494e-20)
(-3.33092 0.724983 1.0204e-20)
(-3.3476 0.457473 9.95526e-21)
(-3.34395 0.192032 -1.21896e-21)
(-3.50571 2.85394 1.30355e-19)
(-3.69745 2.55517 -3.90863e-19)
(-3.86614 2.24485 1.60698e-19)
(-4.01068 1.92488 -1.17946e-19)
(-4.13056 1.59683 7.17223e-20)
(-4.22522 1.26243 2.74155e-19)
(-4.29417 0.92342 3.47529e-20)
(-4.33709 0.58161 6.86932e-20)
(-4.35387 0.238798 -4.02955e-20)
(-4.34428 -0.103291 -7.73598e-21)
(-0.319705 0.0638365 -1.26616e-20)
(-0.334012 0.0195346 4.72252e-20)
(-0.348493 -0.0278519 -1.98991e-19)
(-0.362272 -0.0804785 1.30185e-19)
(-0.374363 -0.140312 -1.28567e-20)
(-0.383669 -0.209027 8.45475e-20)
(-0.388951 -0.288038 -4.39054e-19)
(-0.388514 -0.37866 -1.10642e-20)
(-0.37784 -0.480516 9.29511e-20)
(-0.34803 -0.591989 -1.91293e-19)
(-0.459595 0.0683632 -3.49142e-20)
(-0.470978 0.0161891 8.18866e-20)
(-0.481823 -0.0386341 7.502e-20)
(-0.491418 -0.0979836 4.51321e-20)
(-0.498911 -0.16358 1.06626e-19)
(-0.503269 -0.236924 2.17998e-21)
(-0.503235 -0.31933 3.43632e-20)
(-0.496876 -0.411894 -5.27352e-20)
(-0.479487 -0.514379 -1.82671e-19)
(-0.444263 -0.628733 5.0601e-20)
(-0.632665 0.0703315 2.13735e-20)
(-0.639499 0.00784336 -1.49727e-19)
(-0.644815 -0.0565419 -2.83464e-20)
(-0.648092 -0.124406 1.27218e-20)
(-0.648626 -0.197226 -1.16245e-19)
(-0.645494 -0.276354 -4.9213e-20)
(-0.637472 -0.363049 -7.87728e-20)
(-0.622711 -0.458372 8.44685e-20)
(-0.597755 -0.562783 1.24996e-19)
(-0.558853 -0.679588 2.36634e-19)
(-0.848937 0.0680505 -2.23414e-20)
(-0.849379 -0.008073 6.70281e-20)
(-0.847027 -0.0850361 -7.18165e-20)
(-0.841579 -0.164134 1.52456e-19)
(-0.832547 -0.246626 8.02867e-20)
(-0.81922 -0.333742 3.87313e-20)
(-0.800609 -0.426715 1.46663e-19)
(-0.775262 -0.526689 6.15695e-20)
(-0.741038 -0.634685 -8.00827e-21)
(-0.696371 -0.753636 -6.6494e-20)
(-1.12272 0.0592792 -7.44061e-21)
(-1.11486 -0.0349511 1.17281e-21)
(-1.10256 -0.128649 -4.67127e-20)
(-1.08581 -0.222813 -1.1631e-19)
(-1.0644 -0.318475 1.93723e-20)
(-1.03796 -0.416722 1.25097e-19)
(-1.00591 -0.518715 -1.998e-19)
(-0.967369 -0.625622 5.29429e-20)
(-0.921208 -0.738693 9.58164e-21)
(-0.866883 -0.860161 -3.74274e-21)
(-1.47436 0.0405463 2.37153e-20)
(-1.45642 -0.0779346 -1.49727e-20)
(-1.43187 -0.194221 -5.76677e-20)
(-1.40104 -0.308965 6.09864e-20)
(-1.36406 -0.422918 -6.92397e-20)
(-1.32099 -0.536954 1.0462e-20)
(-1.27173 -0.652075 -7.3011e-21)
(-1.21597 -0.769363 -2.47642e-20)
(-1.15331 -0.89004 -1.31566e-20)
(-1.08362 -1.01575 1.463e-20)
(-1.93253 0.0123905 -2.37744e-21)
(-1.90366 -0.138939 3.35144e-21)
(-1.86523 -0.286256 -5.28193e-20)
(-1.81789 -0.429764 6.23616e-20)
(-1.76214 -0.569831 1.22027e-19)
(-1.69849 -0.706994 -3.28252e-20)
(-1.62731 -0.841963 2.65381e-20)
(-1.54886 -0.97559 -4.34922e-21)
(-1.46326 -1.10888 -4.56526e-21)
(-1.37067 -1.24302 2.11199e-20)
(-2.53531 -0.00925753 -2.08239e-21)
(-2.49778 -0.205451 3.11523e-21)
(-2.44656 -0.396053 -1.02404e-20)
(-2.38253 -0.580662 -1.41464e-20)
(-2.30653 -0.759103 2.52656e-20)
(-2.21945 -0.931381 -1.68342e-21)
(-2.12211 -1.09772 -1.50619e-20)
(-2.0153 -1.25852 -4.8754e-20)
(-1.89962 -1.41444 7.37565e-20)
(-1.77553 -1.56623 4.5543e-20)
(-3.3198 -0.0698805 -1.46884e-21)
(-3.27586 -0.326014 3.9467e-20)
(-3.21276 -0.575581 2.85495e-20)
(-3.1314 -0.817393 -5.98299e-20)
(-3.03277 -1.05054 6.86059e-20)
(-2.91799 -1.27425 -1.23344e-19)
(-2.78825 -1.48799 7.25567e-20)
(-2.64479 -1.69152 -7.45941e-20)
(-2.48876 -1.88493 -5.22606e-20)
(-2.32094 -2.06848 -2.34996e-19)
(-4.30737 -0.442733 -3.84066e-21)
(-4.24364 -0.775098 -4.54625e-20)
(-4.15432 -1.10021 4.29909e-20)
(-4.04 -1.41586 3.83922e-20)
(-3.90159 -1.72025 -7.84193e-20)
(-3.7402 -2.01168 7.81622e-20)
(-3.55714 -2.28865 -1.27628e-19)
(-3.35393 -2.54997 1.06843e-19)
(-3.13223 -2.79488 -2.37406e-19)
(-2.89327 -3.02269 2.4997e-19)
(-2.63739 -3.23164 3.90756e-19)
(-2.14192 -2.24172 -1.50889e-19)
(-1.64343 -1.71434 -5.81629e-20)
(-1.27127 -1.37878 6.29196e-20)
(-1.00725 -1.14761 6.73347e-21)
(-0.805434 -0.992107 -3.09892e-20)
(-0.643361 -0.888246 -2.39453e-20)
(-0.509299 -0.81972 6.73218e-20)
(-0.396754 -0.778189 -1.74668e-19)
(-0.309113 -0.76016 1.76288e-20)
(-2.36931 -3.41851 -4.47045e-19)
(-1.95382 -2.404 5.99016e-19)
(-1.50385 -1.85889 -7.78177e-20)
(-1.16478 -1.51598 -5.05632e-20)
(-0.923884 -1.28424 1.05799e-20)
(-0.737631 -1.1307 3.84255e-21)
(-0.585832 -1.02972 -3.43434e-20)
(-0.458966 -0.964166 7.60998e-20)
(-0.353347 -0.924041 7.89871e-21)
(-0.273228 -0.902769 -8.44788e-20)
(-2.08914 -3.58583 3.03691e-19)
(-1.7565 -2.5561 -3.31874e-19)
(-1.35587 -2.00002 1.37418e-19)
(-1.04951 -1.65436 -3.26433e-20)
(-0.830961 -1.42483 3.38247e-20)
(-0.659577 -1.27444 -2.76605e-20)
(-0.517609 -1.17593 5.31742e-21)
(-0.397387 -1.1112 -9.18023e-21)
(-0.296267 -1.06916 4.65292e-20)
(-0.2173 -1.04205 -9.44264e-20)
(-1.79846 -3.73282 -6.45085e-19)
(-1.55026 -2.6983 9.12508e-20)
(-1.1988 -2.13803 9.97276e-20)
(-0.923989 -1.79391 9.94447e-20)
(-0.726276 -1.56903 -1.64934e-19)
(-0.568367 -1.4228 2.31712e-22)
(-0.435015 -1.32668 -2.05196e-20)
(-0.320176 -1.26196 1.67167e-20)
(-0.221694 -1.21705 -1.6549e-20)
(-0.141726 -1.18394 -3.52452e-20)
(-1.49849 -3.8593 4.97557e-19)
(-1.33503 -2.83084 8.99213e-20)
(-1.03168 -2.27299 1.94009e-19)
(-0.786615 -1.93429 1.0288e-20)
(-0.607841 -1.71605 1.50895e-19)
(-0.461782 -1.57467 6.89691e-20)
(-0.335773 -1.48077 6.85685e-20)
(-0.225357 -1.41549 -5.3816e-20)
(-0.128806 -1.36714 6.36345e-21)
(-0.0476877 -1.32768 1.03462e-20)
(-1.19048 -3.96505 3.7818e-19)
(-1.11062 -2.95371 -2.79518e-19)
(-0.853475 -2.40459 -1.23648e-20)
(-0.635904 -2.07468 -5.04746e-20)
(-0.474013 -1.86455 -4.16985e-20)
(-0.338241 -1.72825 -3.38487e-20)
(-0.218559 -1.63609 6.71508e-20)
(-0.112101 -1.56944 -5.14091e-20)
(-0.0175893 -1.51686 4.38326e-20)
(0.0638526 -1.47038 -3.2991e-21)
(-0.875587 -4.04996 -6.93842e-19)
(-0.876769 -3.06673 -2.05886e-19)
(-0.663137 -2.53213 3.55961e-19)
(-0.47053 -2.21375 -9.62749e-20)
(-0.323504 -2.01261 1.00635e-19)
(-0.196721 -1.88109 -2.46198e-19)
(-0.0827713 -1.78974 1.83608e-19)
(0.0196637 -1.72061 -4.61717e-20)
(0.111414 -1.66276 5.03875e-20)
(0.191727 -1.60837 -6.83309e-20)
(-0.554899 -4.11397 3.21532e-19)
(-0.633139 -3.16942 -1.00425e-19)
(-0.459706 -2.65445 -1.06793e-19)
(-0.289405 -2.34963 -4.57272e-20)
(-0.155433 -2.15768 3.31334e-20)
(-0.0367506 -2.03014 4.89427e-20)
(0.0715491 -1.93829 -7.54443e-20)
(0.169363 -1.86529 5.28303e-20)
(0.257134 -1.80098 1.00208e-19)
(0.334427 -1.7378 -9.3138e-20)
(-0.229376 -4.15709 2.77233e-19)
(-0.379335 -3.26101 -1.03777e-20)
(-0.24236 -2.76988 2.00347e-19)
(-0.0917783 -2.47987 -1.56039e-19)
(0.0305962 -2.29674 4.72395e-20)
(0.141558 -2.17193 -4.93568e-20)
(0.243732 -2.07802 -1.48679e-20)
(0.335813 -1.99964 -7.99375e-20)
(0.417985 -1.92769 8.10324e-20)
(0.490078 -1.85505 5.79925e-20)
(0.100179 -4.179 -5.71779e-20)
(-0.114958 -3.34025 -4.2818e-20)
(-0.0105224 -2.87629 -2.3523e-20)
(0.122661 -2.60164 -7.48781e-20)
(0.234423 -2.42642 6.76333e-20)
(0.337483 -2.3028 1.42974e-20)
(0.432498 -2.20516 -4.05288e-20)
(0.517274 -2.11995 2.84882e-21)
(0.591923 -2.03936 -1.47367e-20)
(0.656499 -1.95696 1.9386e-21)
(0.949921 -1.72016 -2.39818e-21)
(0.959209 -1.3581 -6.45145e-22)
(0.989563 -1.08604 1.64017e-21)
(0.99045 -0.869073 -7.50784e-22)
(0.98356 -0.697407 -1.39477e-22)
(0.972253 -0.556037 -2.84939e-22)
(0.957658 -0.437328 1.08248e-22)
(0.941314 -0.337884 -2.14841e-22)
(0.923729 -0.255946 1.57365e-22)
(0.905575 -0.19173 9.95725e-23)
(0.888647 -0.156235 -2.78766e-22)
(0.864553 -0.166298 1.6675e-22)
(0.813639 -0.206779 -1.30191e-22)
(0.730348 -0.216807 -6.33788e-22)
(0.65146 -0.132075 1.03827e-22)
(0.626919 0.0312567 -4.12759e-22)
(0.674961 0.194341 1.56028e-22)
(0.765256 0.254971 9.66477e-23)
(0.852714 0.262629 -8.10683e-23)
(0.932858 0.15941 -1.22682e-23)
(1.08437 -1.7609 1.94186e-20)
(1.02434 -1.3717 4.68527e-21)
(1.0236 -1.09114 -3.68287e-21)
(1.00961 -0.871347 1.06996e-21)
(0.992853 -0.697395 -1.94865e-21)
(0.975132 -0.554811 -5.65354e-23)
(0.956183 -0.435449 -1.32696e-22)
(0.936843 -0.335673 -4.32875e-22)
(0.917255 -0.253581 1.97029e-22)
(0.897724 -0.189357 5.66753e-23)
(0.879464 -0.153356 4.89945e-24)
(0.854213 -0.161282 9.99903e-22)
(0.803094 -0.19869 -1.628e-21)
(0.720293 -0.207941 -7.0536e-22)
(0.640963 -0.126984 5.63221e-22)
(0.615635 0.0299252 5.91846e-22)
(0.663561 0.188072 -1.19158e-21)
(0.755443 0.24766 1.26147e-21)
(0.843782 0.256424 1.93175e-22)
(0.927085 0.156515 3.54793e-23)
(1.21827 -1.78926 -4.29916e-20)
(1.09152 -1.38284 1.70039e-20)
(1.0587 -1.09637 2.11205e-20)
(1.02983 -0.874566 -7.62964e-21)
(1.00308 -0.698428 -3.97085e-22)
(0.97868 -0.5545 -2.24053e-21)
(0.955212 -0.434352 4.38876e-23)
(0.932787 -0.334105 -8.20293e-22)
(0.91115 -0.251714 -2.92512e-22)
(0.890242 -0.187266 -3.80293e-22)
(0.870728 -0.150484 -1.93149e-22)
(0.844479 -0.15613 3.66349e-23)
(0.793384 -0.190592 1.83923e-21)
(0.711399 -0.199312 -1.06719e-21)
(0.631943 -0.122279 -1.64686e-21)
(0.605817 0.028222 1.7282e-21)
(0.653291 0.181559 -3.61568e-22)
(0.746346 0.240245 -6.69071e-22)
(0.835302 0.250127 -7.6192e-22)
(0.921526 0.15355 7.68362e-23)
(1.35085 -1.80591 -1.38778e-20)
(1.16162 -1.39183 3.84345e-20)
(1.09567 -1.10199 -1.58153e-20)
(1.05145 -0.878762 -4.85399e-21)
(1.01445 -0.700526 3.39677e-21)
(0.983028 -0.555125 -4.65007e-22)
(0.954841 -0.434053 1.06028e-21)
(0.929222 -0.333199 -7.1235e-22)
(0.905478 -0.250362 1.20557e-21)
(0.883184 -0.185489 1.03069e-21)
(0.86249 -0.147676 -2.29766e-21)
(0.835392 -0.150926 2.94003e-22)
(0.784515 -0.182568 -3.68065e-22)
(0.703622 -0.190966 1.64688e-21)
(0.624346 -0.117951 7.3742e-22)
(0.597437 0.0262071 -1.31863e-21)
(0.644145 0.174869 -1.01543e-21)
(0.737971 0.232768 -1.64033e-21)
(0.827289 0.24376 1.22158e-21)
(0.91619 0.150521 -1.50787e-22)
(1.48137 -1.81089 4.41524e-21)
(1.2354 -1.39758 3.19057e-21)
(1.13524 -1.10714 -7.79649e-22)
(1.07476 -0.88343 9.78536e-21)
(1.02711 -0.703475 6.5963e-21)
(0.988292 -0.556612 5.01303e-21)
(0.955155 -0.434532 -2.69563e-21)
(0.926217 -0.332952 1.01777e-21)
(0.900297 -0.249535 7.82337e-22)
(0.8766 -0.184052 1.29025e-21)
(0.854794 -0.144988 -2.41598e-22)
(0.826983 -0.145746 -2.55205e-21)
(0.776482 -0.174688 -8.88993e-22)
(0.696902 -0.182944 2.59482e-21)
(0.618097 -0.113989 3.02252e-21)
(0.59045 0.0239281 -1.5201e-21)
(0.636108 0.168058 4.10522e-21)
(0.730321 0.225269 5.47186e-22)
(0.819752 0.237346 3.87763e-22)
(0.91108 0.14744 6.398e-24)
(1.6093 -1.80253 -1.34283e-19)
(1.31341 -1.39749 -1.80713e-20)
(1.17779 -1.11021 2.07758e-20)
(1.09979 -0.887736 -2.82367e-20)
(1.04109 -0.706876 -1.77302e-20)
(0.994547 -0.558768 -1.62791e-20)
(0.956224 -0.435692 3.0431e-21)
(0.923834 -0.333318 1.22599e-21)
(0.89566 -0.249219 -2.2347e-21)
(0.870534 -0.182972 -1.16126e-21)
(0.847674 -0.142469 -8.38452e-22)
(0.819273 -0.14066 2.24057e-21)
(0.76927 -0.167016 -1.3362e-21)
(0.691166 -0.175279 -2.05573e-21)
(0.613095 -0.110382 -1.92766e-21)
(0.584798 0.0214405 2.91707e-21)
(0.629167 0.161185 2.2783e-22)
(0.723403 0.217786 9.69683e-22)