/*--------------------------------*- C++ -*----------------------------------*\
| =========                 |                                                 |
| \\      /  F ield         | OpenFOAM: The Open Source CFD Toolbox           |
|  \\    /   O peration     | Version:  v1912                                 |
|   \\  /    A nd           | Website:  www.openfoam.com                      |
|    \\/     M anipulation  |                                                 |
\*---------------------------------------------------------------------------*/
FoamFile
{
    version     2.0;
    format      ascii;
    class       surfaceScalarField;
    location    "11.75";
    object      phi;
}
// * * * * * * * * * * * * * * * * * * * * * * * * * * * * * * * * * * * * * //

dimensions      [0 3 -1 0 0 0 0];
oriented        oriented;


internalField   nonuniform List<scalar> 
38030
(
5.28926e-05
-0.323949
0.323896
0.000312389
-0.310873
0.310613
0.000707514
-0.300084
0.299689
0.00117727
-0.291031
0.290561
0.00169852
-0.282885
0.282364
0.00224078
-0.275226
0.274684
0.00278488
-0.267833
0.267289
0.00331922
-0.260595
0.260061
0.00383715
-0.253473
0.252955
0.0043356
-0.246465
0.245966
0.00481394
-0.239589
0.23911
0.00527309
-0.232867
0.232408
0.00571484
-0.226322
0.22588
0.00614138
-0.219971
0.219545
0.00655496
-0.213826
0.213412
0.00695771
-0.207893
0.20749
0.00735153
-0.202174
0.20178
0.00773803
-0.196669
0.196282
0.0081186
-0.191372
0.190992
0.00849442
-0.186279
0.185904
0.00886653
-0.181383
0.181011
0.00923595
-0.176675
0.176305
0.00960375
-0.172146
0.171778
0.0099711
-0.167788
0.16742
0.0103393
-0.163587
0.163219
0.0107097
-0.159531
0.15916
0.0110835
-0.155602
0.155228
0.0114614
-0.151782
0.151404
0.0118433
-0.148049
0.147667
-0.144378
0.143994
0.0122282
7.04784e-05
-0.324019
0.000334629
-0.311137
0.000727341
-0.300477
0.00119921
-0.291502
0.00171763
-0.283403
0.00225639
-0.275765
0.00279655
-0.268373
0.00332639
-0.261125
0.00383942
-0.253986
0.00433274
-0.246958
0.00480587
-0.240062
0.00525984
-0.233321
0.00569654
-0.226759
0.00611821
-0.220393
0.00652713
-0.214235
0.00692545
-0.208291
0.00731504
-0.202564
0.00769753
-0.197051
0.00807424
-0.191749
0.00844633
-0.186651
0.00881479
-0.181751
0.00918059
-0.17704
0.00954478
-0.17251
0.00990852
-0.168151
0.0102731
-0.163952
0.01064
-0.159898
0.0110104
-0.155972
0.0113853
-0.152157
0.0117646
-0.148428
-0.144761
0.0121475
9.03222e-05
-0.324109
0.000354783
-0.311401
0.000745553
-0.300868
0.0012173
-0.291974
0.00173388
-0.28392
0.00226933
-0.2763
0.00280538
-0.268909
0.0033305
-0.26165
0.00383837
-0.254493
0.00432626
-0.247446
0.00479387
-0.240529
0.00524236
-0.23377
0.00567371
-0.22719
0.0060902
-0.220809
0.00649416
-0.214639
0.00688774
-0.208685
0.00727283
-0.202949
0.00765099
-0.197429
0.00802356
-0.192122
0.00839161
-0.187019
0.00875611
-0.182116
0.00911797
-0.177402
0.0094782
-0.172871
0.00983794
-0.168511
0.0101985
-0.164312
0.0105614
-0.16026
0.010928
-0.156339
0.0112992
-0.152528
0.0116754
-0.148804
-0.145141
0.0120555
9.76301e-05
-0.324207
0.000366949
-0.311671
0.000759637
-0.30126
0.00123159
-0.292446
0.00174671
-0.284435
0.00227911
-0.276833
0.002811
-0.269441
0.00333123
-0.26217
0.0038337
-0.254996
0.00431592
-0.247928
0.00477774
-0.240991
0.00522047
-0.234212
0.00564618
-0.227616
0.00605723
-0.22122
0.00645596
-0.215037
0.00684454
-0.209073
0.00722484
-0.203329
0.00759842
-0.197803
0.00796657
-0.19249
0.00833032
-0.187383
0.00869057
-0.182476
0.00904821
-0.17776
0.00940416
-0.173227
0.00975957
-0.168866
0.0101158
-0.164668
0.0104742
-0.160619
0.0108365
-0.156701
0.0112037
-0.152895
0.0115763
-0.149177
-0.145519
0.0119535
0.000103533
-0.324311
0.000376885
-0.311944
0.000771297
-0.301655
0.00124319
-0.292918
0.00175667
-0.284948
0.00228593
-0.277362
0.00281353
-0.269969
0.00332865
-0.262685
0.00382547
-0.255493
0.00430175
-0.248404
0.00475751
-0.241447
0.00519421
-0.234649
0.00561401
-0.228036
0.00601933
-0.221626
0.00641256
-0.215431
0.00679588
-0.209456
0.00717113
-0.203704
0.00753988
-0.198172
0.00790335
-0.192853
0.00826255
-0.187742
0.00861831
-0.182832
0.00897146
-0.178113
0.00932289
-0.173578
0.00967369
-0.169217
0.0100252
-0.16502
0.010379
-0.160973
0.0107366
-0.157059
0.0110995
-0.153258
0.0114681
-0.149546
-0.145893
0.0118421
0.000106978
-0.324418
0.000383936
-0.312221
0.000780269
-0.302051
0.00125211
-0.29339
0.00176381
-0.28546
0.00228979
-0.277888
0.00281291
-0.270492
0.00332269
-0.263195
0.00381362
-0.255984
0.00428369
-0.248874
0.00473312
-0.241896
0.00516352
-0.235079
0.00557715
-0.228449
0.00597648
-0.222025
0.00636396
-0.215818
0.00674175
-0.209834
0.00711172
-0.204074
0.00747539
-0.198535
0.00783395
-0.193212
0.00818837
-0.188097
0.00853944
-0.183183
0.00888789
-0.178462
0.00923458
-0.173925
0.00958055
-0.169563
0.00992715
-0.165367
0.010276
-0.161322
0.0106288
-0.157412
0.0109871
-0.153617
0.0113517
-0.14991
-0.146263
0.0117223
0.000109738
-0.324527
0.000389569
-0.312501
0.00078735
-0.302449
0.00125883
-0.293861
0.00176846
-0.28597
0.00229088
-0.27841
0.00280926
-0.27101
0.00331343
-0.263699
0.00379819
-0.256468
0.00426177
-0.249338
0.00470461
-0.242339
0.00512843
-0.235503
0.00553561
-0.228857
0.00592871
-0.222418
0.00631017
-0.216199
0.0066822
-0.210206
0.00704664
-0.204439
0.007405
-0.198894
0.00775845
-0.193565
0.00810789
-0.188446
0.00845405
-0.183529
0.00879764
-0.178805
0.00913942
-0.174267
0.00948041
-0.169904
0.00982194
-0.165708
0.0101657
-0.161665
0.0105135
-0.15776
0.010867
-0.15397
0.0112275
-0.150271
-0.146631
0.0115948
0.000111803
-0.324639
0.00039389
-0.312783
0.000792708
-0.302848
0.00126349
-0.294332
0.00177075
-0.286477
0.00228931
-0.278929
0.00280265
-0.271524
0.00330092
-0.264198
0.00377922
-0.256947
0.00423603
-0.249795
0.00467198
-0.242775
0.00508896
-0.23592
0.00548943
-0.229257
0.00587602
-0.222805
0.00625122
-0.216575
0.00661723
-0.210572
0.00697591
-0.204797
0.00732875
-0.199247
0.00767687
-0.193913
0.00802114
-0.188791
0.00836225
-0.18387
0.00870082
-0.179144
0.00903756
-0.174603
0.00937346
-0.17024
0.00970982
-0.166044
0.0100484
-0.162004
0.0103911
-0.158102
0.0107399
-0.154319
0.0110962
-0.150627
-0.146995
0.0114603
0.000113488
-0.324753
0.000397287
-0.313067
0.00079667
-0.303247
0.00126637
-0.294802
0.00177087
-0.286981
0.00228523
-0.279443
0.00279319
-0.272031
0.00328524
-0.26469
0.00375678
-0.257418
0.00420651
-0.250244
0.00463529
-0.243204
0.00504513
-0.23633
0.00543862
-0.229651
0.00581843
-0.223184
0.00618711
-0.216943
0.00654687
-0.210932
0.00689956
-0.20515
0.00724664
-0.199594
0.00758924
-0.194256
0.00792817
-0.18913
0.00826407
-0.184206
0.00859749
-0.179477
0.0089291
-0.174935
0.00925982
-0.170571
0.00959095
-0.166376
0.00992427
-0.162337
0.0102619
-0.15844
0.010606
-0.154663
0.0109583
-0.150979
-0.147356
0.0113194
0.000114828
-0.324867
0.000399882
-0.313352
0.000799385
-0.303647
0.0012676
-0.29527
0.00176897
-0.287483
0.00227875
-0.279953
0.00278099
-0.272534
0.00326649
-0.265175
0.00373093
-0.257883
0.00417328
-0.250687
0.00459458
-0.243625
0.004997
-0.236732
0.00538321
-0.230037
0.00575598
-0.223557
0.00611786
-0.217305
0.00647111
-0.211285
0.00681756
-0.205497
0.00715868
-0.199935
0.00749555
-0.194593
0.00782896
-0.189463
0.0081595
-0.184536
0.00848766
-0.179805
0.00881405
-0.175261
0.00913953
-0.170896
0.00946539
-0.166701
0.00979345
-0.162665
0.010126
-0.158772
0.0104654
-0.155002
0.0108137
-0.151327
-0.147714
0.011172
0.000115894
-0.324983
0.000401799
-0.313638
0.000801012
-0.304046
0.00126734
-0.295736
0.00176519
-0.287981
0.00227002
-0.280458
0.00276616
-0.27303
0.00324476
-0.265654
0.00370177
-0.25834
0.00413641
-0.251121
0.00454992
-0.244039
0.0049446
-0.237127
0.00532325
-0.230415
0.00568868
-0.223923
0.0060435
-0.21766
0.00638996
-0.211632
0.00672992
-0.205837
0.00706483
-0.20027
0.00739576
-0.194924
0.00772346
-0.189791
0.00804848
-0.184862
0.00837127
-0.180128
0.00869235
-0.175582
0.00901254
-0.171217
0.0093331
-0.167022
0.00965589
-0.162988
0.00998331
-0.1591
0.010318
-0.155337
0.0106625
-0.151672
-0.14807
0.0110182
0.000116712
-0.3251
0.000403106
-0.313924
0.000801656
-0.304444
0.00126571
-0.2962
0.00175966
-0.288475
0.00225914
-0.280957
0.00274882
-0.27352
0.00322016
-0.266125
0.00366939
-0.258789
0.00409599
-0.251548
0.00450138
-0.244444
0.00488802
-0.237514
0.00525878
-0.230786
0.00561657
-0.22428
0.00596402
-0.218007
0.00630341
-0.211971
0.0066366
-0.20617
0.00696503
-0.200598
0.00728977
-0.195249
0.00761156
-0.190112
0.00793089
-0.185181
0.00824816
-0.180445
0.00856385
-0.175898
0.00887869
-0.171531
0.00919392
-0.167337
0.00951143
-0.163305
0.00983377
-0.159422
0.0101639
-0.155667
0.0105045
-0.152013
-0.148423
0.0108578
0.000117296
-0.325217
0.000403875
-0.314211
0.000801416
-0.304842
0.00126283
-0.296662
0.00175249
-0.288964
0.00224625
-0.281451
0.0027291
-0.274002
0.0031928
-0.266589
0.00363391
-0.25923
0.00405213
-0.251966
0.00444905
-0.244841
0.00482731
-0.237892
0.00518986
-0.231149
0.00553967
-0.22463
0.00587943
-0.218347
0.00621143
-0.212303
0.00653754
-0.206496
0.0068592
-0.20092
0.00717748
-0.195567
0.0074931
-0.190428
0.00780653
-0.185494
0.00811812
-0.180757
0.00842828
-0.176208
0.00873769
-0.171841
0.00904755
-0.167647
0.00935976
-0.163618
0.00967702
-0.159739
0.0100025
-0.155993
0.0103396
-0.15235
-0.148774
0.0106906
0.000117658
-0.325335
0.000404151
-0.314497
0.000800386
-0.305238
0.00125882
-0.29712
0.00174381
-0.289449
0.00223148
-0.281939
0.00270712
-0.274478
0.00316283
-0.267045
0.00359545
-0.259663
0.00400493
-0.252376
0.00439305
-0.245229
0.00476256
-0.238262
0.00511656
-0.231503
0.00545805
-0.224972
0.00578975
-0.218679
0.006114
-0.212627
0.00643268
-0.206815
0.00674724
-0.201234
0.00705873
-0.195878
0.00736788
-0.190737
0.00767513
-0.185802
0.00798081
-0.181063
0.00828527
-0.176513
0.00858913
-0.172145
0.00889352
-0.167951
0.00920039
-0.163925
0.00951255
-0.160052
0.00983351
-0.156314
0.010167
-0.152683
-0.149123
0.0105161
0.000117803
-0.325453
0.000403994
-0.314783
0.000798662
-0.305633
0.00125379
-0.297575
0.00173377
-0.289929
0.00221497
-0.28242
0.00268304
-0.274946
0.0031304
-0.267492
0.00355417
-0.260087
0.00395454
-0.252776
0.00433349
-0.245608
0.0046939
-0.238622
0.00503896
-0.231848
0.00537174
-0.225304
0.00569501
-0.219002
0.00601112
-0.212943
0.00632196
-0.207125
0.00662901
-0.201541
0.00693333
-0.196183
0.00723563
-0.191039
0.00753637
-0.186102
0.00783585
-0.181362
0.00813435
-0.176811
0.00843244
-0.172443
0.00873121
-0.16825
0.00903259
-0.164226
0.00933955
-0.160359
0.00965592
-0.15663
0.00998595
-0.153013
-0.14947
0.0103333
0.000117743
-0.325571
0.000403468
-0.315069
0.000796351
-0.306026
0.00124788
-0.298027
0.00172251
-0.290404
0.00219689
-0.282894
0.00265702
-0.275406
0.00309566
-0.267931
0.00351023
-0.260501
0.00390112
-0.253167
0.00427053
-0.245977
0.00462146
-0.238973
0.00495719
-0.232183
0.00528085
-0.225628
0.00559526
-0.219317
0.00590278
-0.213251
0.00620533
-0.207428
0.0065044
-0.20184
0.00680107
-0.196479
0.00709607
-0.191334
0.00738987
-0.186396
0.00768272
-0.181655
0.0079749
-0.177103
0.00826691
-0.172735
0.00855978
-0.168543
0.00885544
-0.164522
0.00915696
-0.16066
0.00946853
-0.156942
0.00979498
-0.15334
-0.149816
0.0101407
0.000117485
-0.325688
0.000402649
-0.315354
0.000793583
-0.306417
0.00124124
-0.298475
0.0017102
-0.290873
0.00217742
-0.283361
0.00262927
-0.275858
0.00305884
-0.26836
0.00346383
-0.260906
0.00384489
-0.253548
0.00420436
-0.246337
0.00454541
-0.239314
0.00487139
-0.232509
0.0051855
-0.225942
0.00549057
-0.219622
0.00578901
-0.213549
0.00608275
-0.207722
0.0063733
-0.202131
0.00666176
-0.196768
0.0069489
-0.191622
0.00723518
-0.186682
0.00752088
-0.181941
0.00780625
-0.177389
0.00809171
-0.17302
0.00837826
-0.16883
0.00866779
-0.164811
0.00896348
-0.160956
0.00926986
-0.157248
0.00959239
-0.153662
-0.15016
0.00993629
0.000117052
-0.325805
0.000401636
-0.315639
0.000790501
-0.306806
0.00123406
-0.298918
0.00169704
-0.291336
0.00215678
-0.283821
0.0026
-0.276301
0.00302015
-0.26878
0.00341521
-0.261301
0.00378606
-0.253919
0.00413522
-0.246686
0.00446598
-0.239645
0.00478178
-0.232825
0.00508586
-0.226246
0.00538109
-0.219917
0.0056699
-0.213838
0.00595424
-0.208006
0.00623564
-0.202412
0.00651524
-0.197047
0.00679381
-0.1919
0.00707188
-0.18696
0.00734973
-0.182218
0.00762759
-0.177667
0.00790588
-0.173298
0.0081855
-0.169109
0.00846833
-0.165094
0.00875762
-0.161245
0.00905823
-0.157549
0.00937633
-0.15398
-0.150502
0.00971811
0.000116484
-0.325922
0.000400568
-0.315923
0.000787298
-0.307192
0.00122653
-0.299357
0.00168325
-0.291793
0.00213519
-0.284273
0.00256947
-0.276736
0.00297986
-0.269191
0.00336464
-0.261686
0.00372492
-0.254279
0.00406339
-0.247025
0.00438345
-0.239965
0.00468861
-0.23313
0.00498218
-0.22654
0.00526704
-0.220202
0.00554562
-0.214117
0.0058199
-0.20828
0.00609143
-0.202684
0.00636137
-0.197317
0.00663056
-0.192169
0.00689954
-0.187229
0.00716864
-0.182488
0.00743811
-0.177936
0.00770834
-0.173569
0.00798019
-0.169381
0.00825549
-0.165369
0.00853756
-0.161527
0.0088316
-0.157843
0.00914452
-0.154293
-0.150841
0.00948367
0.000115843
-0.326037
0.000399613
-0.316207
0.000784193
-0.307577
0.0012189
-0.299792
0.0016691
-0.292243
0.00211295
-0.284717
0.00253797
-0.277161
0.00293828
-0.269591
0.00331244
-0.26206
0.00366179
-0.254629
0.00398919
-0.247352
0.00429814
-0.240274
0.00459224
-0.233425
0.00487479
-0.226822
0.00514871
-0.220476
0.00541643
-0.214385
0.00567994
-0.208544
0.00594079
-0.202945
0.00620019
-0.197577
0.006459
-0.192428
0.00671782
-0.187488
0.00697704
-0.182747
0.00723694
-0.178196
0.00749792
-0.17383
0.00776079
-0.169644
0.00802736
-0.165636
0.008301
-0.161801
0.00858723
-0.158129
0.00889377
-0.1546
-0.151177
0.00922939
0.000115239
-0.326153
0.000399004
-0.31649
0.000781459
-0.307959
0.00121147
-0.300222
0.00165488
-0.292686
0.00209036
-0.285152
0.00250582
-0.277576
0.00289574
-0.269981
0.00325897
-0.262423
0.00359705
-0.254967
0.00391302
-0.247668
0.00421048
-0.240571
0.00449307
-0.233707
0.00476412
-0.227094
0.00502653
-0.220738
0.00528274
-0.214641
0.00553471
-0.208796
0.00578401
-0.203194
0.00603185
-0.197825
0.00627915
-0.192675
0.00652655
-0.187736
0.0067745
-0.182995
0.00702335
-0.178445
0.00727349
-0.17408
0.00752574
-0.169896
0.00778186
-0.165892
0.00804523
-0.162064
0.00832162
-0.158405
0.00861958
-0.154898
-0.151507
0.00894988
0.000114856
-0.326268
0.000399048
-0.316775
0.00077945
-0.30834
0.00120458
-0.300647
0.00164095
-0.293123
0.00206777
-0.285579
0.00247339
-0.277982
0.00285262
-0.27036
0.00320461
-0.262775
0.00353112
-0.255293
0.00383534
-0.247972
0.00412096
-0.240857
0.00439164
-0.233978
0.00465072
-0.227353
0.00490108
-0.220988
0.00514512
-0.214885
0.00538478
-0.209035
0.0056216
-0.203431
0.00585679
-0.19806
0.00609129
-0.19291
0.00632581
-0.18797
0.00656084
-0.18323
0.0067968
-0.178681
0.00703413
-0.174317
0.00727365
-0.170136
0.00751705
-0.166135
0.00776768
-0.162315
0.00803148
-0.158669
0.00831775
-0.155184
-0.151828
0.00863858
0.000115034
-0.326383
0.00040022
-0.31706
0.000778626
-0.308718
0.00119868
-0.301067
0.00162771
-0.293552
0.00204557
-0.285997
0.00244106
-0.278377
0.00280932
-0.270728
0.00314978
-0.263116
0.00346446
-0.255608
0.00375666
-0.248264
0.00403013
-0.24113
0.00428856
-0.234236
0.00453528
-0.227599
0.0047731
-0.221226
0.00500436
-0.215116
0.00523095
-0.209262
0.00545436
-0.203654
0.00567576
-0.198281
0.00589609
-0.19313
0.00611605
-0.18819
0.00633624
-0.18345
0.0065571
-0.178902
0.00677917
-0.174539
0.00700329
-0.17036
0.00723114
-0.166363
0.00746606
-0.16255
0.00771415
-0.158917
0.00798545
-0.155455
-0.152136
0.00829356
0.000116368
-0.326499
0.000403203
-0.317347
0.000779537
-0.309094
0.00119423
-0.301482
0.00161558
-0.293973
0.00202416
-0.286406
0.00240921
-0.278762
0.00276623
-0.271085
0.00309495
-0.263444
0.00339757
-0.25591
0.00367752
-0.248544
0.00393863
-0.241391
0.00418457
-0.234482
0.00441861
-0.227833
0.0046435
-0.221451
0.00486149
-0.215334
0.00507435
-0.209475
0.00528348
-0.203863
0.00548998
-0.198488
0.0056947
-0.193335
0.00589835
-0.188394
0.00610149
-0.183653
0.00630463
-0.179105
0.00650836
-0.174743
0.00671359
-0.170565
0.00692206
-0.166572
0.00713717
-0.162765
0.00736511
-0.159145
0.00761655
-0.155707
-0.152427
0.00790737
0.000119801
-0.326619
0.000408811
-0.317636
0.000782701
-0.309468
0.00119169
-0.301891
0.00160497
-0.294386
0.00200393
-0.286805
0.00237825
-0.279137
0.00272379
-0.271431
0.00304055
-0.263761
0.00333095
-0.256201
0.00359854
-0.248812
0.00384716
-0.24164
0.00408047
-0.234715
0.00430166
-0.228055
0.00451339
-0.221663
0.00471777
-0.215538
0.00491642
-0.209674
0.00511059
-0.204058
0.00530122
-0.198678
0.00548904
-0.193523
0.00567462
-0.188579
0.00585845
-0.183837
0.00604096
-0.179287
0.00622273
-0.174925
0.00640469
-0.170747
0.00658866
-0.166756
0.00677814
-0.162954
0.00697946
-0.159346
0.00720369
-0.155931
-0.152693
0.0074705
0.000126397
-0.326745
0.000417722
-0.317927
0.000788569
-0.309839
0.00119152
-0.302294
0.00159636
-0.294791
0.0019853
-0.287194
0.00234858
-0.2795
0.00268239
-0.271765
0.00298704
-0.264066
0.00326512
-0.256479
0.0035203
-0.249067
0.00375644
-0.241876
0.00397715
-0.234936
0.00418552
-0.228263
0.00438406
-0.221861
0.00457472
-0.215729
0.00475893
-0.209858
0.00493773
-0.204236
0.00511183
-0.198852
0.00528173
-0.193693
0.00544777
-0.188745
0.0056102
-0.183999
0.00576928
-0.179446
0.00592538
-0.175081
0.00607929
-0.170901
0.00623273
-0.166909
0.00638929
-0.163111
0.00655548
-0.159513
0.00674335
-0.156119
-0.152926
0.00697623
0.00013726
-0.326882
0.000430788
-0.31822
0.000798047
-0.310206
0.00119453
-0.30269
0.00159033
-0.295187
0.00196869
-0.287572
0.00232051
-0.279852
0.00264234
-0.272087
0.00293475
-0.264358
0.00320051
-0.256745
0.00344336
-0.24931
0.00366717
-0.2421
0.00387548
-0.235144
0.00407127
-0.228459
0.00425688
-0.222047
0.00443406
-0.215906
0.00460399
-0.210028
0.00476742
-0.2044
0.00492475
-0.19901
0.00507611
-0.193844
0.00522146
-0.188891
0.00536068
-0.184139
0.00549363
-0.179579
0.00562031
-0.175208
0.00574117
-0.171022
0.0058577
-0.167026
0.0059734
-0.163227
0.00609509
-0.159634
0.00623665
-0.15626
-0.15311
0.00642005
0.000155606
-0.327038
0.000451389
-0.318516
0.000813442
-0.310568
0.00120181
-0.303079
0.00158745
-0.295573
0.00195442
-0.287939
0.00229422
-0.280191
0.00260378
-0.272396
0.00288387
-0.264638
0.00313738
-0.256998
0.00336811
-0.249541
0.00357991
-0.242312
0.00377625
-0.235341
0.00395998
-0.228642
0.00413327
-0.22222
0.00429763
-0.216071
0.00445397
-0.210184
0.0046027
-0.204549
0.00474376
-0.199151
0.00487675
-0.193977
0.00500095
-0.189015
0.00511546
-0.184253
0.00521927
-0.179683
0.00531146
-0.1753
0.00539162
-0.171102
0.00546075
-0.167095
0.00552227
-0.163288
0.00558243
-0.159694
0.00565343
-0.156331
-0.15321
0.00575371
0.000193445
-0.327231
0.0004882
-0.318811
0.000837229
-0.310918
0.00121385
-0.303455
0.00158782
-0.295946
0.00194241
-0.288294
0.00226959
-0.280519
0.00256663
-0.272693
0.0028344
-0.264906
0.00307586
-0.25724
0.00329483
-0.24976
0.00349511
-0.242512
0.00368011
-0.235526
0.00385257
-0.228815
0.0040145
-0.222382
0.00416721
-0.216223
0.00431137
-0.210328
0.00444701
-0.204684
0.00457363
-0.199277
0.00469015
-0.194094
0.00479491
-0.18912
0.00488562
-0.184344
0.00495935
-0.179757
0.00501258
-0.175353
0.00504168
-0.171131
0.00504408
-0.167097
0.00501981
-0.163264
0.00497136
-0.159646
0.00490439
-0.156264
-0.153155
0.00484967
0.000275193
-0.327507
0.000547975
-0.319084
0.000865609
-0.311235
0.00123016
-0.30382
0.00159071
-0.296307
0.00193202
-0.288635
0.00224625
-0.280833
0.00253075
-0.272978
0.00278639
-0.265162
0.00301616
-0.257469
0.00322384
-0.249967
0.00341323
-0.242701
0.00358769
-0.2357
0.00374987
-0.228977
0.00390169
-0.222534
0.00404433
-0.216366
0.0041783
-0.210462
0.00430344
-0.204809
0.00441896
-0.199393
0.00452337
-0.194198
0.0046143
-0.189211
0.00468831
-0.184418
0.00474035
-0.179809
0.00476325
-0.175376
0.00474706
-0.171115
0.00467841
-0.167028
0.00454008
-0.163125
0.0043117
-0.159418
0.00397993
-0.155933
-0.152875
0.00369963
0.330312
0.000188901
-0.3305
0.330171
0.000141023
0.330051
0.000119449
0.329942
0.00010946
0.329838
0.000103768
0.329737
0.000100473
0.329638
9.89568e-05
0.32954
9.86144e-05
0.329441
9.88902e-05
0.329341
9.94438e-05
0.329241
0.000100084
0.329141
0.000100709
0.329039
0.000101268
0.328938
0.000101727
0.328836
0.000102073
0.328733
0.000102298
0.328631
0.000102401
0.328529
0.000102382
0.328426
0.000102227
0.328324
0.000101933
0.328223
0.000101468
0.328122
0.000100802
0.328022
9.9809e-05
0.327924
9.8434e-05
0.327828
9.6131e-05
0.327735
9.29447e-05
0.327649
8.57826e-05
0.327572
7.65585e-05
0.327526
4.61203e-05
1.97131e-05
0.325321
0.000359491
-0.325492
0.325133
0.000329545
0.324939
0.000313105
0.324743
0.00030576
0.324544
0.000302366
0.324344
0.000301
0.324142
0.000301212
0.323937
0.000302647
0.323732
0.000304863
0.323523
0.000307481
0.323313
0.000310265
0.323101
0.000313063
0.322886
0.000315763
0.32267
0.000318298
0.322451
0.000320612
0.322231
0.000322668
0.322009
0.000324442
0.321785
0.000325914
0.321561
0.00032705
0.321335
0.000327824
0.321108
0.000328171
0.320881
0.000328023
0.320653
0.00032718
0.320426
0.000325495
0.3202
0.0003223
0.319976
0.000317471
0.319753
0.000308444
0.319533
0.000296439
0.319308
0.000271462
0.000243603
0.318862
0.000508016
-0.319011
0.318685
0.000507044
0.318492
0.000505925
0.31829
0.00050814
0.318079
0.000512913
0.317861
0.00051903
0.317636
0.000525986
0.317405
0.000533574
0.317169
0.000541573
0.316926
0.000549735
0.316679
0.000557847
0.316426
0.000565759
0.316168
0.000573363
0.315906
0.000580578
0.315639
0.000587344
0.315368
0.000593618
0.315094
0.000599362
0.314815
0.000604552
0.314533
0.000609149
0.314248
0.000613117
0.313959
0.000616387
0.313668
0.00061887
0.313375
0.00062038
0.31308
0.000620743
0.312783
0.000619449
0.312484
0.000616299
0.312182
0.000609969
0.311878
0.000601008
0.311563
0.000586658
0.000571197
0.311536
0.000643419
-0.311671
0.311389
0.000654411
0.311227
0.000667508
0.311053
0.000681909
0.310869
0.000697536
0.310674
0.000713953
0.310469
0.000730768
0.310255
0.000747751
0.310032
0.000764707
0.3098
0.000781438
0.30956
0.000797763
0.309312
0.000813546
0.309057
0.000828687
0.308794
0.000843114
0.308525
0.000856776
0.308249
0.000869628
0.307967
0.000881648
0.307678
0.000892808
0.307384
0.000903091
0.307085
0.000912467
0.306781
0.000920886
0.306471
0.000928287
0.306157
0.000934528
0.305838
0.000939488
0.305515
0.000942824
0.305187
0.0009444
0.304853
0.000943459
0.304514
0.000940065
0.304169
0.000932305
0.000919844
0.303398
0.000725585
-0.30348
0.303299
0.000753337
0.303186
0.000781377
0.303058
0.000809906
0.302916
0.000838763
0.302763
0.000867719
0.302597
0.000896527
0.30242
0.000924991
0.302231
0.00095295
0.302032
0.000980244
0.301824
0.00100674
0.301605
0.00103231
0.301377
0.00105689
0.301139
0.00108039
0.300893
0.00110279
0.300639
0.00112405
0.300376
0.00114415
0.300106
0.00116308
0.299828
0.00118084
0.299543
0.00119743
0.299251
0.00121283
0.298953
0.00122702
0.298647
0.00123993
0.298335
0.00125149
0.298017
0.00126151
0.297691
0.00126992
0.297358
0.00127626
0.297018
0.00128052
0.296668
0.00128182
0.00128107
0.294793
0.000761229
-0.294829
0.294741
0.000805728
0.294672
0.000849433
0.29459
0.00089276
0.294493
0.000935678
0.294382
0.000978066
0.294259
0.00101978
0.294123
0.00106068
0.293976
0.00110063
0.293816
0.00113952
0.293646
0.00117724
0.293465
0.00121368
0.293273
0.00124877
0.293071
0.00128246
0.292859
0.0013147
0.292637
0.00134549
0.292407
0.00137481
0.292167
0.00140266
0.291919
0.00142908
0.291662
0.00145408
0.291397
0.00147769
0.291124
0.00149993
0.290844
0.0015208
0.290555
0.00154033
0.290258
0.00155844
0.289953
0.00157514
0.289639
0.00159027
0.289315
0.00160395
0.288981
0.00161598
0.00162712
0.286002
0.000758663
-0.286
0.285989
0.000819171
0.28596
0.000878323
0.285916
0.000936367
0.285858
0.000993393
0.285787
0.00104938
0.285703
0.00110424
0.285605
0.00115787
0.285496
0.00121018
0.285374
0.00126106
0.285241
0.00131041
0.285097
0.00135815
0.284941
0.00140423
0.284775
0.00144857
0.284599
0.00149117
0.284412
0.001532
0.284216
0.00157108
0.28401
0.00160842
0.283795
0.00164407
0.283571
0.00167809
0.283338
0.00171054
0.283097
0.0017415
0.282847
0.00177105
0.282588
0.00179928
0.28232
0.00182625
0.282043
0.00185208
0.281756
0.00187679
0.28146
0.00190062
0.281152
0.00192361
0.00194626
0.277246
0.000726983
-0.277215
0.277263
0.000802635
0.277265
0.000876567
0.277252
0.000948894
0.277226
0.00101973
0.277186
0.00108911
0.277133
0.00115699
0.277068
0.00122327
0.27699
0.00128788
0.2769
0.00135072
0.276799
0.00141171
0.276686
0.00147077
0.276563
0.00152786
0.276428
0.00158291
0.276284
0.00163592
0.276129
0.00168687
0.275964
0.00173579
0.27579
0.00178272
0.275606
0.00182772
0.275413
0.0018709
0.275212
0.00191234
0.275001
0.0019522
0.274781
0.00199062
0.274553
0.00202778
0.274315
0.00206384
0.274068
0.00209902
0.273812
0.00213349
0.273545
0.00216756
0.273267
0.00220139
0.00223542
0.268684
0.000675081
-0.268633
0.268722
0.000765033
0.268746
0.000853004
0.268756
0.000939023
0.268752
0.0010232
0.268736
0.00110557
0.268706
0.00118609
0.268665
0.00126469
0.268612
0.00134129
0.268547
0.00141582
0.26847
0.00148818
0.268383
0.00155832
0.268284
0.00162617
0.268175
0.0016917
0.268056
0.0017549
0.267928
0.00181576
0.267789
0.00187431
0.267641
0.00193062
0.267484
0.00198477
0.267318
0.0020369
0.267143
0.00208714
0.26696
0.0021357
0.266768
0.0021828
0.266567
0.00222869
0.266357
0.00227365
0.266138
0.00231799
0.265909
0.002362
0.265671
0.00240606
0.265422
0.00245043
0.00249554
0.260418
0.000610694
-0.260354
0.260469
0.000714203
0.260507
0.000815505
0.260531
0.000914589
0.260543
0.00101153
0.260542
0.00110637
0.260529
0.00119906
0.260504
0.00128954
0.260468
0.00137771
0.26042
0.0014635
0.260361
0.00154684
0.260292
0.00162766
0.260212
0.00170591
0.260122
0.00178154
0.260023
0.00185454
0.259914
0.00192492
0.259795
0.00199272
0.259668
0.00205801
0.259532
0.0021209
0.259387
0.00218156
0.259234
0.00224017
0.259073
0.00229699
0.258903
0.0023523
0.258725
0.00240647
0.258539
0.00245984
0.258344
0.00251286
0.25814
0.00256591
0.257927
0.00261946
0.257704
0.00267389
0.00272961
0.252503
0.000539988
-0.252432
0.252561
0.000656406
0.252606
0.000770415
0.252638
0.000881964
0.252659
0.00099112
0.252667
0.0010979
0.252664
0.00120226
0.252649
0.00130412
0.252624
0.0014034
0.252587
0.00150001
0.25254
0.00159389
0.252483
0.00168495
0.252416
0.00177314
0.252339
0.00185843
0.252252
0.00194078
0.252157
0.00202022
0.252053
0.00209678
0.251941
0.00217056
0.25182
0.00224167
0.251691
0.00231031
0.251554
0.00237672
0.25141
0.0024412
0.251258
0.00250411
0.251099
0.00256589
0.250932
0.00262701
0.250757
0.00268802
0.250573
0.00274943
0.250381
0.00281182
0.250179
0.00287566
0.00294141
0.24496
0.000467662
-0.244887
0.24502
0.000596351
0.245068
0.000722506
0.245104
0.000845991
0.245128
0.000966842
0.245141
0.00108507
0.245142
0.00120062
0.245133
0.00131341
0.245113
0.00142335
0.245083
0.00153035
0.245042
0.00163431
0.244992
0.00173518
0.244933
0.00183288
0.244864
0.00192737
0.244786
0.00201862
0.244699
0.00210663
0.244605
0.00219146
0.244502
0.00227318
0.244392
0.00235196
0.244274
0.00242798
0.244149
0.00250154
0.244017
0.00257299
0.243879
0.00264277
0.243733
0.00271139
0.243581
0.00277947
0.243421
0.00284765
0.243254
0.00291662
0.243079
0.00298707
0.242895
0.00305961
0.00313476
0.237789
0.000396897
-0.237719
0.237848
0.000537368
0.237896
0.000675163
0.237931
0.000810116
0.237956
0.000942218
0.23797
0.00107146
0.237973
0.00119779
0.237965
0.0013211
0.237947
0.00144129
0.237919
0.00155826
0.237881
0.00167194
0.237834
0.00178221
0.237778
0.00188901
0.237713
0.00199228
0.23764
0.00209198
0.237558
0.00218811
0.237469
0.00228072
0.237373
0.00236988
0.237269
0.00245574
0.237158
0.00253855
0.237041
0.00261859
0.236918
0.00269628
0.236788
0.00277214
0.236653
0.00284677
0.236512
0.00292091
0.236364
0.00299537
0.23621
0.00307098
0.236048
0.00314863
0.235879
0.0032291
0.00331299
0.230977
0.000329795
-0.23091
0.231033
0.000481539
0.231077
0.000630552
0.231111
0.000776606
0.231133
0.000919597
0.231145
0.00105949
0.231147
0.00119624
0.231138
0.00132972
0.23112
0.00145982
0.231092
0.00158644
0.231054
0.00170947
0.231007
0.0018288
0.230952
0.00194435
0.230888
0.00205604
0.230816
0.00216381
0.230737
0.00226765
0.23065
0.00236759
0.230556
0.0024637
0.230456
0.00255613
0.230349
0.00264511
0.230237
0.00273098
0.230119
0.00281418
0.229996
0.0028953
0.229868
0.00297506
0.229734
0.00305431
0.229595
0.00313405
0.229451
0.00321533
0.229301
0.00329924
0.229143
0.00338679
0.00347875
0.224501
0.000267373
-0.224439
0.224553
0.000430062
0.224593
0.000590042
0.224623
0.000746875
0.224642
0.000900437
0.224651
0.00105069
0.224649
0.00119756
0.224638
0.00134093
0.224617
0.00148067
0.224587
0.00161666
0.224548
0.00174876
0.2245
0.00187687
0.224443
0.00200087
0.224379
0.00212067
0.224306
0.00223619
0.224227
0.00234739
0.22414
0.00245428
0.224047
0.00255691
0.223947
0.00265541
0.223843
0.00275002
0.223732
0.00284108
0.223618
0.00292906
0.223498
0.00301462
0.223375
0.00309857
0.223247
0.00318194
0.223115
0.00326589
0.222979
0.00335176
0.222837
0.00344089
0.222689
0.00353462
0.00363396
0.218338
0.000209281
-0.218279
0.218384
0.000383541
0.21842
0.000554275
0.218445
0.000721618
0.21846
0.000885516
0.218465
0.00104591
0.21846
0.00120268
0.218445
0.00135571
0.218421
0.00150486
0.218387
0.00164999
0.218345
0.00179096
0.218294
0.00192762
0.218235
0.00205984
0.218169
0.00218751
0.218094
0.00231052
0.218013
0.00242879
0.217925
0.00254231
0.217831
0.00265109
0.217731
0.00275524
0.217626
0.00285497
0.217516
0.00295062
0.217403
0.00304268
0.217286
0.00313185
0.217165
0.00321905
0.217042
0.00330545
0.216915
0.00339246
0.216785
0.00348171
0.216651
0.00357493
0.216512
0.00367383
0.00377979
0.212461
0.0001569
-0.212409
0.212503
0.00034218
0.212534
0.000523509
0.212554
0.000701167
0.212564
0.000875197
0.212565
0.00104553
0.212555
0.00121202
0.212536
0.00137455
0.212508
0.00153294
0.212471
0.00168704
0.212426
0.0018367
0.212371
0.00198175
0.212309
0.00212203
0.212239
0.00225738
0.212162
0.00238768
0.212078
0.00251281
0.211988
0.0026327
0.211892
0.00274733
0.21179
0.00285677
0.211684
0.00296118