/*--------------------------------*- C++ -*----------------------------------*\
| =========                 |                                                 |
| \\      /  F ield         | OpenFOAM: The Open Source CFD Toolbox           |
|  \\    /   O peration     | Version:  v1912                                 |
|   \\  /    A nd           | Website:  www.openfoam.com                      |
|    \\/     M anipulation  |                                                 |
\*---------------------------------------------------------------------------*/
FoamFile
{
    version     2.0;
    format      ascii;
    class       volVectorField;
    location    "6.25";
    object      U;
}
// * * * * * * * * * * * * * * * * * * * * * * * * * * * * * * * * * * * * * //

dimensions      [0 1 -1 0 0 0 0];


internalField   nonuniform List<vector> 
2400
(
(0.0176947 -0.431108 -9.38955e-21)
(0.00540949 -0.329094 8.5476e-23)
(-0.00355115 -0.251688 2.99644e-21)
(-0.00988242 -0.193043 -5.65771e-21)
(-0.0135237 -0.148368 0)
(-0.014609 -0.113937 4.98976e-21)
(-0.0136338 -0.0869567 0)
(-0.0111567 -0.0653632 4.34281e-21)
(-0.00766516 -0.0476498 -8.26841e-21)
(-0.00409263 -0.0327486 8.60826e-21)
(0.0511042 -0.424935 6.32825e-21)
(0.0314273 -0.322043 3.99445e-22)
(0.0182214 -0.245852 2.57271e-22)
(0.00989479 -0.189489 2.85937e-20)
(0.00592541 -0.147465 -1.08639e-20)
(0.0057296 -0.115596 -4.98966e-21)
(0.00846669 -0.0908003 1.87437e-20)
(0.013332 -0.0708119 -1.79628e-20)
(0.0196645 -0.0539585 0)
(0.0261676 -0.0391251 -1.73256e-20)
(0.0837525 -0.416658 2.7504e-20)
(0.0569993 -0.314403 2.78311e-20)
(0.0404949 -0.240543 -1.28291e-20)
(0.0313854 -0.187314 2.41578e-20)
(0.0284321 -0.148593 2.25203e-20)
(0.0305253 -0.119792 2.09956e-20)
(0.036434 -0.0975838 0)
(0.0450926 -0.0795056 1.83092e-20)
(0.0556694 -0.0636889 1.71354e-20)
(0.0664251 -0.0489444 1.77113e-20)
(0.115618 -0.40649 -5.65105e-20)
(0.0824422 -0.30657 2.39406e-22)
(0.0638532 -0.236173 -5.28862e-20)
(0.0553579 -0.186883 5.02554e-20)
(0.0548745 -0.152011 -4.57552e-20)
(0.060702 -0.126683 -2.09952e-20)
(0.071175 -0.107396 3.91615e-20)
(0.0849551 -0.0915059 -5.58383e-20)
(0.101045 -0.0768976 -5.14088e-20)
(0.117176 -0.0622702 1.82659e-20)
(0.146751 -0.394662 -8.2392e-22)
(0.108223 -0.298816 0)
(0.0891025 -0.233005 -1.18312e-21)
(0.0828554 -0.188288 -2.70486e-20)
(0.0864655 -0.157607 -7.27871e-20)
(0.0975356 -0.135962 -2.24958e-20)
(0.113958 -0.119773 0)
(0.134127 -0.106262 0)
(0.156901 -0.0930124 0)
(0.179392 -0.0785552 0)
(0.17734 -0.381387 6.57735e-20)
(0.134995 -0.291353 -9.64653e-20)
(0.11724 -0.231096 1.76003e-19)
(0.11519 -0.191319 -8.41433e-20)
(0.124665 -0.164886 7.53743e-20)
(0.142558 -0.146822 -2.44108e-20)
(0.166297 -0.133628 4.31576e-20)
(0.194023 -0.122495 -3.97219e-20)
(0.224508 -0.110708 0)
(0.254175 -0.0965866 3.68502e-20)
(0.207592 -0.366761 -6.57742e-20)
(0.163625 -0.284323 6.53714e-20)
(0.149457 -0.230327 3.74672e-21)
(0.153797 -0.195547 -3.2273e-22)
(0.171075 -0.173018 2.38611e-21)
(0.197423 -0.157993 9.60448e-20)
(0.22979 -0.147258 -7.68254e-23)
(0.26608 -0.138167 3.62846e-20)
(0.305083 -0.127808 -3.81909e-20)
(0.342549 -0.114307 3.71065e-20)
(0.237679 -0.350909 1.47959e-19)
(0.194968 -0.277759 -1.12015e-19)
(0.187046 -0.230425 4.23016e-21)
(0.200154 -0.200311 0)
(0.227251 -0.180899 5.67681e-20)
(0.263657 -0.167849 -4.91386e-20)
(0.30581 -0.158444 -4.71312e-20)
(0.351384 -0.150486 1.65787e-19)
(0.39937 -0.141121 -4.10281e-20)
(0.445115 -0.128465 -1.55232e-19)
(0.267918 -0.333998 -1.97295e-19)
(0.229907 -0.271499 1.55097e-19)
(0.231215 -0.230888 4.71023e-21)
(0.255571 -0.204779 0)
(0.29448 -0.187312 3.50301e-21)
(0.342416 -0.174647 -5.47483e-20)
(0.395225 -0.16464 9.68515e-20)
(0.450234 -0.155708 4.18718e-20)
(0.50679 -0.145354 -8.12644e-20)
(0.560771 -0.132593 0)
(0.29871 -0.31604 8.19514e-20)
(0.269277 -0.265135 6.72366e-22)
(0.282912 -0.231026 -7.70231e-20)
(0.320972 -0.20809 -3.61915e-21)
(0.373662 -0.19132 -1.24123e-19)
(0.434725 -0.17735 5.47469e-20)
(0.499483 -0.164389 -1.49118e-19)
(0.564722 -0.151114 1.84329e-19)
(0.629377 -0.135517 -8.54394e-20)
(0.69025 -0.119441 0)
(0.619122 -0.00971314 2.63645e-20)
(0.592406 -0.0557124 -1.77792e-20)
(0.562544 -0.0978317 -6.7587e-20)
(0.530494 -0.136026 1.00774e-19)
(0.4971 -0.170401 6.34533e-20)
(0.463096 -0.201199 0)
(0.429065 -0.228772 0)
(0.395433 -0.253545 -1.53516e-19)
(0.36248 -0.276006 2.47244e-19)
(0.330319 -0.296685 -9.53257e-20)
(0.837701 0.0172375 -7.23358e-22)
(0.78454 -0.0415733 -8.10969e-22)
(0.725678 -0.0928469 -6.34497e-20)
(0.66329 -0.136221 3.35061e-21)
(0.599447 -0.171754 0)
(0.536034 -0.199891 1.68915e-19)
(0.474659 -0.221422 -1.12776e-19)
(0.416588 -0.237412 1.52887e-19)
(0.36272 -0.249129 -1.92029e-19)
(0.313574 -0.257952 5.79895e-21)
(1.02617 0.0674174 -7.93872e-21)
(0.962363 -0.000679572 -2.32591e-21)
(0.889501 -0.0603655 3.0592e-20)
(0.810261 -0.110687 1.14166e-19)
(0.7274 -0.151235 -5.2851e-20)
(0.643609 -0.182153 -2.55462e-19)
(0.561345 -0.204121 5.78728e-21)
(0.482706 -0.218307 5.85749e-21)
(0.409346 -0.226288 5.75748e-21)
(0.342469 -0.229919 8.82149e-20)
(1.17846 0.117554 1.33917e-20)
(1.11411 0.0443058 -6.68204e-20)
(1.03753 -0.0212118 -5.15991e-20)
(0.951329 -0.0774778 -1.00035e-19)
(0.858458 -0.123502 5.35889e-20)
(0.762004 -0.158899 1.39393e-19)
(0.664995 -0.183935 -5.02336e-21)
(0.5702 -0.199546 0)
(0.47998 -0.207317 -7.56644e-20)
(0.396305 -0.209385 7.9662e-20)
(1.2947 0.160098 0)
(1.23612 0.0854161 2.45463e-20)
(1.16285 0.0169997 -4.58391e-20)
(1.07704 -0.0432211 9.2808e-20)
(0.981402 -0.0937321 1.33285e-19)
(0.879004 -0.133564 -1.24391e-19)
(0.773089 -0.162418 -4.44085e-22)
(0.666813 -0.180787 -7.29305e-20)
(0.563025 -0.190046 1.4183e-19)
(0.464312 -0.192534 6.82015e-20)
(1.37853 0.193271 -1.0326e-20)
(1.32919 0.120037 1.03256e-20)
(1.26367 0.0513199 -4.06744e-20)
(1.18344 -0.0107375 4.06737e-20)
(1.09063 -0.0642375 3.83489e-20)
(0.987937 -0.10768 3.51414e-20)
(0.87846 -0.140147 -1.434e-19)
(0.76538 -0.161541 3.80935e-21)
(0.651638 -0.172854 6.23794e-20)
(0.539986 -0.176617 -6.22137e-20)
(1.43511 0.217036 0)
(1.39636 0.147197 -3.49283e-20)
(1.34094 0.0801787 -3.60954e-20)
(1.26954 0.0181436 3.60944e-20)
(1.18356 -0.0367974 0)
(1.08508 -0.0827236 -6.63445e-20)
(0.976735 -0.118105 3.04472e-21)
(0.861373 -0.142133 6.01598e-20)
(0.741505 -0.155208 -1.16878e-19)
(0.619069 -0.160068 1.64259e-19)
(1.46987 0.232418 -7.53083e-21)
(1.44161 0.167059 3.3473e-20)
(1.39705 0.103062 -3.20626e-20)
(1.33616 0.0424549 3.20615e-20)
(1.25959 -0.0126075 0)
(1.16868 -0.0599251 6.00899e-20)
(1.06542 -0.0973955 -5.70088e-20)
(0.952113 -0.123344 -2.23765e-19)
(0.830304 -0.137168 -5.05441e-20)
(0.699432 -0.141572 -2.0215e-19)
(1.48768 0.241048 7.22374e-21)
(1.46891 0.180476 0)
(1.43486 0.120098 -2.85341e-20)
(1.38492 0.0616924 8.35935e-20)
(1.31905 0.0073014 2.79809e-20)
(1.23789 -0.0407589 -2.79806e-20)
(1.14281 -0.0799034 5.75677e-20)
(1.03556 -0.107403 5.68007e-20)
(0.916706 -0.120756 1.01306e-19)
(0.781191 -0.120817 9.50483e-20)
(1.49235 0.244499 -6.07154e-21)
(1.48164 0.18881 2.49332e-20)
(1.45709 0.132309 -2.64546e-20)
(1.41768 0.0764355 -2.86075e-20)
(1.3628 0.0229688 0)
(1.29249 -0.0258633 -4.83002e-20)
(1.20758 -0.0672296 -5.18769e-20)
(1.10971 -0.0974946 1.99737e-19)
(0.999569 -0.111696 0)
(0.866325 -0.104665 0)
(0.539705 0.50139 -6.45512e-20)
(0.579771 0.461657 1.08589e-19)
(0.61332 0.416425 5.56701e-21)
(0.639748 0.36687 0)
(0.6587 0.314003 0)
(0.669891 0.258932 -6.20096e-20)
(0.673333 0.202866 3.4504e-20)
(0.669331 0.146991 -6.75274e-20)
(0.658455 0.0923876 -1.78277e-20)
(0.641483 0.0399487 9.23015e-21)
(0.756735 0.677895 1.09207e-19)
(0.817456 0.635011 -1.36835e-19)
(0.868812 0.582056 3.20971e-20)
(0.909123 0.520631 -1.03052e-19)
(0.937157 0.452393 5.13127e-20)
(0.952166 0.379384 0)
(0.953816 0.303773 1.25441e-19)
(0.94228 0.227755 5.0145e-22)
(0.918258 0.153445 -6.63095e-20)
(0.88293 0.0827422 7.35597e-22)
(0.892208 0.759855 4.12319e-20)
(0.964866 0.723059 1.40275e-20)
(1.02811 0.673928 1.29973e-20)
(1.07978 0.61387 1.16718e-20)
(1.11802 0.544747 4.95929e-20)
(1.14149 0.468657 4.87476e-20)
(1.14931 0.387912 -1.10547e-19)
(1.14114 0.304977 -3.0418e-20)
(1.11723 0.222352 2.6703e-21)
(1.07847 0.142436 7.93959e-21)
(0.97465 0.780287 3.10397e-20)
(1.05328 0.75174 -3.88642e-20)
(1.12369 0.710336 0)
(1.18352 0.657226 -1.38261e-19)
(1.23057 0.593945 -5.21937e-20)
(1.26307 0.522272 1.23634e-19)
(1.27971 0.444318 9.84304e-20)
(1.27959 0.362403 -4.89446e-20)
(1.2624 0.278985 3.9126e-20)
(1.22842 0.196562 1.32118e-20)
(1.02319 0.76411 -2.74413e-20)
(1.10363 0.743292 4.08861e-20)
(1.17747 0.71019 -4.08834e-20)
(1.24221 0.665582 1.22785e-19)
(1.29563 0.610541 -9.64171e-20)
(1.33578 0.546526 -4.41563e-20)
(1.36104 0.475268 -1.15247e-21)
(1.37014 0.398753 -4.18881e-20)
(1.36225 0.319161 -2.38373e-20)
(1.33705 0.238819 0)
(1.05103 0.728444 -2.20476e-20)
(1.13071 0.71389 5.41387e-20)
(1.20524 0.688214 9.58126e-21)
(1.27214 0.651755 -9.22242e-20)
(1.3293 0.60523 2.12698e-20)
(1.37484 0.549734 2.92801e-20)
(1.40708 0.486623 3.57051e-20)
(1.42456 0.417518 -3.5703e-20)
(1.4261 0.344229 9.93286e-21)
(1.41089 0.268765 -9.93244e-21)
(1.06692 0.684116 -3.21295e-21)
(1.14468 0.674286 -4.11281e-20)
(1.21816 0.654762 2.50329e-20)
(1.28503 0.625363 7.66412e-20)
(1.34354 0.586529 -4.16325e-20)
(1.39207 0.539076 0)
(1.4291 0.484077 8.55147e-20)
(1.45314 0.422842 -3.04262e-20)
(1.46285 0.356789 3.19953e-20)
(1.45713 0.287575 0)
(1.07653 0.637594 3.0179e-20)
(1.15205 0.63158 4.63844e-20)
(1.22333 0.617092 -4.00154e-21)
(1.28847 0.593454 1.62283e-20)
(1.34635 0.560999 3.42999e-20)
(1.39578 0.520421 0)
(1.43546 0.472672 -2.68191e-20)
(1.46401 0.418826 -2.5972e-20)
(1.48005 0.359912 -3.06629e-20)
(1.48239 0.297271 7.2725e-21)
(1.08397 0.593258 -1.11993e-20)
(1.15666 0.590893 -2.59309e-20)
(1.22455 0.580467 1.49421e-20)
(1.28655 0.561203 -7.63687e-20)
(1.34228 0.533637 -1.7126e-20)
(1.39103 0.498503 1.71246e-20)
(1.43172 0.456724 -1.78687e-20)
(1.46296 0.409251 -2.22147e-20)
(1.48348 0.356736 0)
(1.49214 0.300259 -1.33177e-20)
(1.09505 0.55318 0)
(1.1631 0.552504 0)
(1.22553 0.544606 -6.63129e-20)
(1.28273 0.528422 -2.52719e-20)
(1.33489 0.504666 8.01018e-20)
(1.3815 0.474129 0)
(1.42172 0.437472 6.07448e-20)
(1.45407 0.395524 -2.01827e-20)
(1.47729 0.34882 -2.20603e-20)
(1.49046 0.298177 1.22073e-20)
(0.597983 0.199817 -2.53616e-22)
(0.557306 0.215699 1.27515e-20)
(0.510673 0.234547 -6.77879e-21)
(0.457287 0.257491 0)
(0.396227 0.285976 7.88375e-21)
(0.326974 0.321471 0)
(0.249943 0.364821 -9.16597e-21)
(0.167383 0.414853 -5.19567e-21)
(0.0874274 0.465787 -2.42869e-22)
(0.0323665 0.502781 -5.193e-21)
(0.620917 0.257413 -2.47474e-20)
(0.582114 0.278119 0)
(0.537414 0.30225 2.65577e-20)
(0.486328 0.330672 -2.77108e-20)
(0.427979 0.364352 -7.88367e-21)
(0.361826 0.403784 1.66527e-20)
(0.288165 0.448049 -2.60501e-20)
(0.208863 0.493038 -4.29223e-22)
(0.131109 0.528184 3.87611e-20)
(0.0750856 0.530943 1.05903e-20)
(0.651369 0.312167 2.23089e-20)
(0.615158 0.337472 2.11805e-20)
(0.573087 0.366645 2.27839e-20)
(0.525054 0.40024 2.44692e-20)
(0.470174 0.438745 2.6182e-20)
(0.407757 0.481689 2.78689e-20)
(0.337748 0.526419 2.94462e-20)
(0.261233 0.565976 1.68195e-20)
(0.183727 0.58527 -3.99462e-21)
(0.121944 0.554677 3.23429e-20)
(0.688962 0.363099 -6.52595e-20)
(0.655968 0.392654 1.85396e-20)
(0.617159 0.426495 2.08653e-20)
(0.572869 0.464793 -7.00131e-20)
(0.522142 0.507556 -2.61817e-20)
(0.464008 0.553375 -1.83138e-21)
(0.397842 0.597928 -5.91044e-20)
(0.323577 0.631595 5.6717e-20)
(0.2444 0.635199 -6.20003e-20)
(0.172345 0.573015 -4.70133e-20)
(0.733156 0.409318 0)
(0.703892 0.442667 -1.61272e-20)
(0.668891 0.48067 0)
(0.628942 0.523034 0)
(0.582937 0.569299 -1.86719e-20)
(0.529503 0.617152 2.36898e-20)
(0.46724 0.660718 -6.70643e-20)
(0.394597 0.687979 -2.28444e-20)
(0.31188 0.676282 0)
(0.225473 0.5851 -2.24701e-20)
(0.783249 0.450054 3.56745e-20)
(0.758091 0.486647 1.61269e-20)
(0.72734 0.528176 -2.73629e-20)
(0.692211 0.573807 2.8182e-20)
(0.651352 0.622635 -9.83329e-21)
(0.602868 0.671504 4.73717e-20)
(0.544399 0.713128 2.42477e-20)
(0.472637 0.733439 -2.37139e-20)
(0.384595 0.707067 -6.94669e-21)
(0.280338 0.590234 0)
(0.838347 0.484701 2.87341e-20)
(0.817523 0.523892 6.57522e-20)
(0.791345 0.568172 -1.71435e-20)
(0.761386 0.616111 -5.26917e-20)
(0.725934 0.666403 4.74875e-20)
(0.682455 0.715117 -4.96117e-20)
(0.627476 0.753739 4.94219e-20)
(0.555734 0.76657 -1.43916e-20)
(0.460704 0.726389 2.30418e-20)
(0.335814 0.587912 0)
(0.8973 0.512911 -3.81276e-21)
(0.880886 0.553887 -2.17629e-20)
(0.859502 0.599964 -9.66237e-22)
(0.834951 0.649098 -1.11159e-20)
(0.805001 0.699623 -1.00199e-20)
(0.766372 0.746907 5.74272e-21)
(0.714371 0.781419 0)
(0.641675 0.786295 -1.49873e-20)
(0.538157 0.733426 8.76921e-21)
(0.390691 0.577847 -1.12037e-20)
(0.958625 0.534813 0)
(0.946615 0.576517 1.74109e-20)
(0.93028 0.62316 -3.04961e-20)
(0.911301 0.672161 1.31773e-20)
(0.886744 0.721549 -7.59722e-21)
(0.852564 0.766056 -5.74262e-21)
(0.802803 0.795353 -1.2192e-20)
(0.72807 0.791911 -1.52551e-20)
(0.61479 0.727726 -3.74667e-20)
(0.44375 0.559998 5.33057e-20)
(1.01873 0.547939 0)
(1.01108 0.589509 2.3416e-21)
(1.00096 0.636124 -3.10528e-22)
(0.988173 0.684207 -4.28474e-21)
(0.968978 0.731387 -1.36532e-21)
(0.938749 0.771926 -1.51159e-20)
(0.890336 0.795041 5.40934e-21)
(0.812432 0.7831 1.23273e-20)
(0.688421 0.709191 5.95213e-20)
(0.493844 0.534524 -3.01167e-20)
(0.769528 -0.311344 0)
(0.740367 -0.332906 -7.25021e-20)
(0.703427 -0.352586 1.53045e-19)
(0.657927 -0.365452 -1.24446e-19)
(0.599111 -0.366828 4.64771e-20)
(0.520945 -0.349183 -4.65203e-20)
(0.415803 -0.301566 -5.41536e-20)
(0.274091 -0.20951 -5.89295e-20)
(0.0844542 -0.0546151 -5.89562e-21)
(-0.167329 0.186322 6.24604e-20)
(0.727082 -0.277938 0)
(0.696662 -0.298001 -8.2006e-20)
(0.657755 -0.316753 3.99443e-20)
(0.610487 -0.32978 9.25071e-20)
(0.551093 -0.332299 -4.87091e-20)
(0.474274 -0.316761 -1.08623e-19)
(0.373405 -0.272094 5.29664e-20)
(0.240328 -0.183382 -8.21448e-21)
(0.0660837 -0.0311296 1.33376e-19)
(-0.158839 0.210175 -1.00593e-19)
(0.68721 -0.238131 -1.42607e-21)
(0.654837 -0.256127 -4.83621e-20)
(0.614241 -0.273253 1.89337e-19)
(0.565347 -0.285487 -4.88884e-20)
(0.505111 -0.2881 -5.27711e-21)
(0.429087 -0.273738 5.62025e-20)
(0.331785 -0.231543 0)
(0.20669 -0.146677 -7.40486e-21)
(0.0475853 0.000603622 -1.10119e-19)
(-0.149741 0.236701 7.07428e-20)
(0.652316 -0.193948 5.15374e-20)
(0.617603 -0.209123 -5.12003e-20)
(0.575107 -0.223558 5.24598e-20)
(0.524453 -0.233745 -2.70512e-21)
(0.463109 -0.23519 1.19856e-19)
(0.387439 -0.220895 -1.17063e-21)
(0.293104 -0.180496 3.76314e-21)
(0.175311 -0.0997383 -6.34662e-21)
(0.0307538 0.0404781 8.63008e-20)
(-0.139205 0.265891 0)
(0.623201 -0.145337 -1.55906e-19)
(0.586152 -0.157138 2.58049e-20)
(0.541742 -0.168104 -5.3148e-20)
(0.489341 -0.175248 5.74825e-20)
(0.426812 -0.174422 -2.93028e-20)
(0.351256 -0.159139 1.02936e-19)
(0.259446 -0.119813 -1.11053e-19)
(0.148287 -0.043285 2.01272e-19)
(0.0173669 0.0879971 -1.30037e-19)
(-0.126426 0.297511 0)
(0.600485 -0.092671 0)
(0.561372 -0.100659 -2.58055e-20)
(0.515262 -0.10756 0)
(0.461321 -0.110855 0)
(0.397738 -0.106812 -3.28707e-20)
(0.322271 -0.089595 -1.1022e-19)
(0.232715 -0.0506504 -4.16353e-20)
(0.12756 0.0216013 4.23046e-20)
(0.0091029 0.142299 0)
(-0.110637 0.331127 4.76717e-20)
(0.584634 -0.0366247 2.90651e-20)
(0.543933 -0.0404626 -8.00191e-20)
(0.496548 -0.0428247 -2.9427e-20)
(0.441467 -0.0416187 -3.20131e-20)
(0.377162 -0.033575 -3.4846e-20)
(0.301964 -0.0136116 -7.63831e-20)
(0.214566 0.025562 8.10928e-20)
(0.114844 0.0935211 -8.91942e-20)
(0.00745452 0.20221 -1.27899e-21)
(-0.0911642 0.366123 -2.48029e-20)
(0.575903 0.0213243 2.8177e-20)
(0.534307 0.0222228 2.70915e-20)
(0.486255 0.0249109 2.94276e-20)
(0.430606 0.0311862 3.20137e-20)
(0.366095 0.043881 3.48466e-20)
(0.291537 0.0672519 3.79246e-20)
(0.20636 0.107151 4.1233e-20)
(0.111566 0.170795 -2.30085e-20)
(0.0136699 0.266276 4.84256e-20)
(-0.0674534 0.401729 4.93764e-20)
(0.57539 0.0805154 2.75453e-20)
(0.533341 0.0864807 0)
(0.485069 0.0945217 -3.00561e-20)
(0.429435 0.106244 3.13611e-20)
(0.365327 0.124041 -8.61156e-21)
(0.291905 0.151284 -1.93419e-20)
(0.209137 0.192247 5.13471e-20)
(0.118817 0.251514 8.53948e-22)
(0.0287055 0.332821 6.12689e-22)
(-0.039105 0.437056 1.20283e-20)
(0.582781 0.140447 -6.74808e-21)
(0.541013 0.151398 -6.76138e-21)
(0.493188 0.164848 7.04862e-21)
(0.438289 0.182174 0)
(0.375312 0.205298 8.61169e-21)
(0.303638 0.236656 0)
(0.223568 0.278836 -1.01562e-20)
(0.137318 0.333596 5.50741e-21)
(0.0531984 0.39999 2.79911e-22)
(-0.00587481 0.471124 -1.7771e-20)
(0.829154 -0.34472 0)
(0.879172 -0.367031 0)
(0.925217 -0.383846 1.07281e-21)
(0.967433 -0.39338 -1.50873e-20)
(1.00584 -0.395709 3.98186e-20)
(1.04024 -0.391446 0)
(1.06879 -0.3808 -2.10853e-21)
(1.08936 -0.363749 -4.3712e-22)
(1.1009 -0.340703 2.47045e-21)
(1.10184 -0.312176 1.58485e-22)
(0.793102 -0.362431 6.35875e-20)
(0.845296 -0.384241 5.40382e-20)
(0.894281 -0.399553 1.89172e-20)
(0.938767 -0.407109 1.35494e-20)
(0.978078 -0.406785 0)
(1.01163 -0.398906 0)
(1.03754 -0.38453 2.40257e-21)
(1.05415 -0.363338 1.19305e-22)
(1.06017 -0.336029 0)
(1.05413 -0.303574 -2.62568e-21)
(0.754626 -0.379878 -1.33219e-19)
(0.806846 -0.399374 -3.10554e-20)
(0.856384 -0.411607 -9.04604e-20)
(0.901002 -0.415802 -1.2474e-20)
(0.939336 -0.41178 1.40287e-20)
(0.970234 -0.399847 0)
(0.992 -0.380879 -8.56571e-22)
(1.00307 -0.355216 8.43403e-22)
(1.00214 -0.32383 -4.60264e-21)
(0.988062 -0.28804 1.46035e-21)
(0.708357 -0.391384 1.019e-19)
(0.759207 -0.408363 -5.80213e-20)
(0.807236 -0.416942 2.59588e-20)
(0.849877 -0.416893 -3.49119e-21)
(0.885238 -0.40829 -1.36007e-20)
(0.911753 -0.391623 0)
(0.92779 -0.367802 1.36829e-23)
(0.931912 -0.337741 0)
(0.923039 -0.302766 4.80271e-21)
(0.900484 -0.264529 0)
(0.648323 -0.39085 -3.34577e-20)
(0.696682 -0.404825 3.34553e-20)
(0.741437 -0.409328 1.98151e-20)
(0.780031 -0.404616 -3.29208e-20)
(0.810359 -0.391157 9.76977e-21)
(0.830689 -0.369776 3.33618e-21)
(0.839513 -0.341658 -2.47417e-21)
(0.835673 -0.308176 2.47405e-21)
(0.818497 -0.271017 -1.80664e-21)
(0.787865 -0.232118 1.80658e-21)
(0.567444 -0.370459 7.38998e-20)
(0.611697 -0.38095 -7.54344e-21)
(0.651258 -0.381325 -2.74108e-20)
(0.683745 -0.372261 -3.22733e-21)
(0.70712 -0.354664 -1.54656e-20)
(0.719763 -0.32975 4.64437e-21)
(0.720454 -0.299056 -5.53033e-21)
(0.708459 -0.264333 3.31561e-21)
(0.683632 -0.227548 -3.74019e-21)
(0.646457 -0.190794 0)
(0.456921 -0.319687 3.74752e-20)
(0.494619 -0.326911 -3.67578e-20)
(0.526696 -0.324094 0)
(0.551055 -0.312275 4.20129e-21)
(0.565953 -0.292758 1.82079e-20)
(0.570108 -0.267118 1.18424e-22)
(0.562734 -0.237177 2.01507e-21)
(0.543618 -0.204916 4.08064e-21)
(0.513161 -0.172403 1.04087e-20)
(0.472379 -0.141681 -2.3105e-21)
(0.305853 -0.225059 4.06048e-20)
(0.333608 -0.230636 -9.09403e-21)
(0.355497 -0.227305 -8.91691e-21)
(0.369851 -0.216337 -8.5448e-21)
(0.375378 -0.199281 -2.7834e-20)
(0.371271 -0.177899 1.77343e-21)
(0.35725 -0.154089 -6.28937e-21)
(0.333594 -0.129799 -3.28794e-21)
(0.301144 -0.106928 3.23256e-22)
(0.261236 -0.0872112 1.4801e-21)
(0.100904 -0.070078 -4.09759e-21)
(0.113956 -0.0781094 -7.50396e-20)
(0.122294 -0.0798216 4.63562e-20)
(0.124808 -0.0764831 -1.33156e-20)
(0.120752 -0.0694966 1.77119e-20)
(0.109835 -0.060421 0)
(0.0922035 -0.0508443 -1.95328e-21)
(0.0684401 -0.0422934 4.54069e-21)
(0.0395247 -0.0361497 -5.58537e-22)
(0.00675243 -0.0335756 2.15884e-22)
(-0.176051 0.164864 -4.2108e-20)
(-0.185281 0.145784 5.5355e-20)
(-0.195631 0.128446 -4.48733e-20)
(-0.207443 0.112186 1.16521e-20)
(-0.220837 0.0963679 -1.16519e-20)
(-0.235749 0.0803404 4.04597e-21)
(-0.251909 0.0634702 -7.37653e-21)
(-0.268861 0.0451988 6.87147e-21)
(-0.286007 0.0250794 3.30532e-21)
(-0.302665 0.00278647 -4.98312e-21)
(1.09052 -0.278966 1.48975e-21)
(1.06561 -0.242257 -7.49115e-21)
(1.02634 -0.20365 1.00159e-20)
(0.972784 -0.165208 -3.19326e-20)
(0.905994 -0.129411 0)
(0.82804 -0.0990024 2.28326e-20)
(0.741682 -0.0767296 2.73216e-20)
(0.649572 -0.0649449 1.79074e-21)
(0.550303 -0.0656775 0)
(0.431692 -0.0757287 0)
(1.0347 -0.267202 1.83138e-21)
(1.00107 -0.228528 0)
(0.953118 -0.189512 1.05983e-20)
(0.891641 -0.152425 1.13173e-20)
(0.818362 -0.119714 0)
(0.735791 -0.0937815 0)
(0.646721 -0.0766666 8.66312e-20)
(0.553232 -0.0695719 -2.99098e-20)
(0.454042 -0.0723963 6.25705e-20)
(0.342939 -0.0787806 6.35657e-20)
(0.959998 -0.249441 -1.90926e-21)
(0.917784 -0.209971 9.85099e-21)
(0.862038 -0.171792 1.15315e-20)
(0.794234 -0.137184 -1.15314e-20)
(0.716651 -0.108357 0)
(0.632093 -0.0871855 -2.90335e-20)
(0.543357 -0.074869 -3.12013e-20)
(0.452407 -0.0714509 -3.79997e-22)
(0.359061 -0.075228 -9.70323e-20)
(0.261688 -0.0797539 -1.32251e-19)
(0.864027 -0.224928 0)
(0.814208 -0.186107 -1.02794e-20)
(0.752354 -0.150264 0)
(0.680535 -0.11951 0)
(0.601422 -0.0956581 0)
(0.517965 -0.0799691 3.06387e-20)
(0.432913 -0.0728531 -6.19056e-20)
(0.348261 -0.0735221 -3.32272e-20)
(0.264778 -0.0796265 6.73471e-20)
(0.183168 -0.0859631 3.47298e-20)
(0.744211 -0.193567 2.71678e-21)
(0.688755 -0.157545 -2.71671e-21)
(0.623424 -0.126102 1.35261e-20)
(0.5507 -0.10101 -1.35261e-20)
(0.473434 -0.0835717 -1.54562e-20)
(0.394529 -0.0744172 -1.69994e-20)
(0.316564 -0.0732995 6.62592e-20)
(0.241465 -0.0789093 -3.38036e-20)
(0.170426 -0.0887517 -7.15991e-20)
(0.104821 -0.0987979 3.58805e-20)
(0.597977 -0.156168 0)
(0.539954 -0.12569 6.50275e-21)
(0.474701 -0.101078 1.46039e-20)
(0.404862 -0.0836311 8.02199e-22)
(0.333215 -0.0740946 1.61679e-20)
(0.262414 -0.0725261 5.10442e-20)
(0.194718 -0.0781917 -7.02084e-20)
(0.131822 -0.0895095 3.70179e-20)
(0.0749167 -0.104078 3.82512e-20)
(0.025235 -0.118752 7.47664e-22)
(0.422762 -0.114639 -3.26699e-21)
(0.366369 -0.092926 -1.06167e-20)
(0.305617 -0.077783 1.57863e-20)
(0.24302 -0.0699744 -3.17336e-20)
(0.181036 -0.0697159 -5.10648e-20)
(0.121886 -0.0766166 1.76805e-20)
(0.0673842 -0.0896518 7.42809e-20)
(0.0188746 -0.107181 0)
(-0.0226922 -0.12704 4.04003e-20)
(-0.0564746 -0.146738 -3.95015e-20)
(0.215533 -0.0721136 -1.74128e-21)
(0.166066 -0.0627331 -4.38339e-22)
(0.115028 -0.0597634 8.57983e-21)
(0.06452 -0.0634569 3.58206e-20)
(0.0164703 -0.0736081 -3.76504e-20)
(-0.0274729 -0.0895564 3.34646e-22)
(-0.0660137 -0.110202 1.35505e-21)
(-0.0982177 -0.134047 1.12131e-21)
(-0.123447 -0.159279 8.72441e-22)
(-0.141234 -0.183951 -4.17783e-20)
(-0.028419 -0.0354473 -2.34816e-22)
(-0.0643708 -0.0421811 1.70538e-20)
(-0.0994873 -0.0539733 1.35794e-21)
(-0.132331 -0.0706887 -3.83765e-20)
(-0.161672 -0.0918874 0)
(-0.18652 -0.116866 -2.32376e-20)
(-0.206134 -0.144684 4.44165e-20)
(-0.219999 -0.174187 -2.22728e-20)
(-0.227781 -0.204056 9.43034e-20)
(-0.229277 -0.232911 -9.42645e-20)
(-0.318089 -0.0219078 -2.50887e-21)
(-0.331556 -0.0486714 4.46443e-21)
(-0.342445 -0.0774349 2.10446e-20)
(-0.350222 -0.107923 -4.32485e-20)
(-0.354491 -0.139744 -5.1648e-22)
(-0.354984 -0.172433 4.76941e-20)
(-0.351532 -0.205465 -4.76946e-20)
(-0.344043 -0.238255 5.06992e-20)
(-0.332478 -0.270173 -1.24135e-19)
(-0.316822 -0.300575 4.9813e-20)
(-0.296978 -0.3288 4.95286e-20)
(-0.224446 -0.259487 -9.52462e-20)
(-0.151259 -0.206412 -4.2896e-20)
(-0.0814875 -0.16418 8.93369e-22)
(-0.0150987 -0.130663 2.01825e-22)
(0.0484569 -0.104565 3.66779e-20)
(0.109319 -0.0845752 3.32852e-20)
(0.16767 -0.0697393 -1.27446e-19)
(0.224856 -0.0600656 5.99396e-20)
(0.28055 -0.0524735 0)
(-0.273606 -0.353939 -7.39697e-20)
(-0.213785 -0.282766 9.61877e-20)
(-0.153642 -0.225763 -1.87304e-22)
(-0.0970836 -0.178877 0)
(-0.0438972 -0.140301 3.85253e-20)
(0.00659671 -0.108679 -7.38297e-20)
(0.0547807 -0.0825966 6.93039e-20)
(0.101282 -0.0609963 -9.62008e-20)
(0.147698 -0.0440514 6.09847e-20)
(0.19268 -0.0312741 0)
(-0.247123 -0.375897 2.54442e-20)
(-0.198015 -0.30229 -2.32345e-20)
(-0.149221 -0.241587 -6.73943e-23)
(-0.104195 -0.190741 0)
(-0.0623754 -0.148248 3.92615e-20)
(-0.0229275 -0.112832 -3.72134e-20)
(0.0147022 -0.0832702 -3.48077e-20)
(0.0512123 -0.0587908 8.05352e-22)
(0.0876903 -0.0396487 -2.95779e-20)
(0.122356 -0.0258108 1.27941e-19)
(-0.217993 -0.394537 -4.81026e-20)
(-0.178031 -0.317797 4.77457e-20)
(-0.13924 -0.253658 -4.52254e-24)
(-0.104312 -0.199601 8.36343e-20)
(-0.0723679 -0.154317 -7.94507e-20)
(-0.0425015 -0.116576 7.46054e-20)
(-0.0141278 -0.0852687 -7.02244e-20)
(0.0133502 -0.0597354 -3.18944e-20)
(0.0406407 -0.0400669 9.38752e-20)
(0.066207 -0.026044 3.25387e-20)
(-0.186672 -0.409718 4.81022e-20)
(-0.154847 -0.329279 -2.41844e-20)
(-0.125026 -0.261903 8.91757e-23)
(-0.0989215 -0.20533 2.14095e-20)
(-0.075541 -0.158177 5.94647e-20)
(-0.0539388 -0.119144 -1.862e-20)
(-0.033557 -0.0870786 3.5311e-20)
(-0.0139388 -0.0612155 -3.33017e-20)
(0.00536114 -0.0413383 0)
(0.0232079 -0.0270647 -9.86132e-20)
(-0.153768 -0.421319 4.73783e-20)
(-0.129499 -0.336879 0)
(-0.107746 -0.266487 -4.44714e-20)
(-0.0893794 -0.207997 -6.27692e-20)
(-0.0733671 -0.159722 2.01825e-20)
(-0.0587734 -0.120143 -1.8772e-20)
(-0.0451069 -0.08794 0)
(-0.032059 -0.0621435 0)
(-0.0193945 -0.042194 0)
(-0.00779984 -0.0275775 0)
(-0.11988 -0.429427 -3.55001e-20)
(-0.102857 -0.340811 -4.75013e-20)
(-0.0884109 -0.267764 4.48515e-20)
(-0.0768143 -0.207925 -4.24092e-20)
(-0.0670261 -0.159163 5.81212e-23)
(-0.0581792 -0.119619 -1.89561e-20)
(-0.0498839 -0.0877262 0)
(-0.0419529 -0.0622904 -1.69699e-20)
(-0.0342781 -0.0424759 1.58012e-20)
(-0.0275126 -0.0275545 -5.03781e-20)
(-0.0854755 -0.434234 2.3644e-20)
(-0.0756106 -0.34146 -2.18815e-23)
(-0.0678418 -0.266248 1.13763e-20)
(-0.0621001 -0.205655 2.12115e-20)
(-0.0574046 -0.156995 2.0047e-20)
(-0.0530221 -0.11799 1.89562e-20)
(-0.048707 -0.0867824 0)
(-0.0444144 -0.0619468 1.697e-20)
(-0.0401865 -0.0424342 1.60623e-20)
(-0.0366637 -0.0273884 1.67805e-20)
(-0.0509186 -0.435964 6.02261e-21)
(-0.0482842 -0.339349 2.40559e-20)
(-0.0466354 -0.262586 -1.85419e-22)
(-0.0458468 -0.20189 -1.61006e-20)
(-0.0451035 -0.153924 1.02274e-20)
(-0.0438774 -0.115941 -4.82705e-21)
(-0.0421158 -0.0857711 -1.80118e-20)
(-0.0399436 -0.0617669 1.72615e-20)
(-0.0375485 -0.0427061 0)
(-0.0356007 -0.0276284 1.68792e-20)
(-0.0164789 -0.434868 -3.03495e-21)
(-0.0212179 -0.335045 -8.1763e-23)
(-0.0251559 -0.257491 -2.92603e-21)
(-0.0284074 -0.197418 -5.42202e-21)
(-0.0304553 -0.150767 0)
(-0.0310574 -0.114303 4.82706e-21)
(-0.0304073 -0.0855373 0)
(-0.0288301 -0.0626127 -4.29484e-21)
(-0.0266566 -0.0441643 4.11968e-21)
(-0.0246583 -0.0291639 -4.24817e-21)
(0.00112323 0.00674899 -1.83139e-21)
(0.0202178 0.00989715 8.15436e-22)
(0.0901765 -0.00473163 0)
(0.15836 -0.0386334 -1.94844e-22)
(0.24451 -0.0838088 4.08401e-22)
(0.326861 -0.124804 -2.2184e-22)
(0.404803 -0.14934 2.06894e-22)
(0.475614 -0.150148 0)
(0.545339 -0.127829 0)
(0.619968 -0.0890867 0)
(0.70077 -0.0452298 0)
(0.781588 -0.00794796 -4.17232e-24)
(0.853369 0.0157619 3.89489e-24)
(0.909575 0.0256196 1.94593e-24)
(0.948582 0.025871 -1.81753e-24)
(0.97285 0.0214242 3.34562e-24)
(0.986527 0.0160236 0)
(0.993734 0.0108933 7.46756e-26)
(0.997098 0.0075764 -6.985e-26)
(0.999049 0.00379216 0)
(0.0386344 0.00167414 3.90822e-21)
(0.0629192 -0.00444572 0)
(0.139585 -0.0222311 0)
(0.21217 -0.0574235 1.06419e-21)
(0.299098 -0.101953 -3.02783e-21)
(0.378901 -0.140828 1.24983e-21)
(0.450917 -0.162969 3.99947e-22)
(0.513438 -0.162064 -3.29316e-22)
(0.573373 -0.139168 1.08473e-22)
(0.638036 -0.100472 -7.28317e-23)
(0.71036 -0.0562895 2.61026e-23)
(0.785364 -0.0176872 0)
(0.854013 0.00816818 9.84493e-24)
(0.908971 0.020383 -1.62156e-24)
(0.94772 0.0226514 -7.06653e-24)
(0.97211 0.0196394 -3.34995e-24)
(0.985982 0.0151162 -6.19739e-25)
(0.993367 0.0104677 -2.37173e-24)
(0.996843 0.00737893 0)
(0.998906 0.00372247 0)
(0.0887382 -0.00649196 0)
(0.118356 -0.0204676 -5.91886e-21)
(0.201236 -0.0402859 1.10269e-20)
(0.276749 -0.0757757 -4.52947e-21)
(0.362398 -0.118973 0)
(0.437814 -0.155368 0)
(0.502552 -0.175005 4.09492e-22)
(0.556038 -0.172446 -7.72923e-22)
(0.605804 -0.149119 -6.02476e-23)
(0.660114 -0.110718 -5.89883e-23)
(0.723302 -0.0665426 0)
(0.79162 -0.0269514 0)
(0.85627 0.000807687 0)
(0.909304 0.0152424 1.45603e-23)
(0.947348 0.0194647 8.04987e-24)
(0.971604 0.0178625 0)
(0.985542 0.0142079 0)
(0.993044 0.0100388 2.95401e-24)
(0.996606 0.00717715 1.01237e-24)
(0.998769 0.00365021 -5.32853e-26)
(0.151341 -0.0182038 1.05749e-21)
(0.185975 -0.0376064 5.30788e-21)
(0.273582 -0.0584234 -6.36718e-21)
(0.35009 -0.0932064 5.26004e-22)
(0.432271 -0.134439 0)
(0.50154 -0.168124 0)
(0.557865 -0.185283 -8.83792e-22)
(0.601827 -0.181214 1.17432e-21)
(0.64135 -0.157625 -1.24416e-22)
(0.685268 -0.119744 -4.72297e-23)
(0.739009 -0.0758825 -1.31694e-23)
(0.800034 -0.0356307 2.72291e-23)
(0.859992 -0.00623272 4.16356e-24)
(0.910511 0.0102546 -3.07076e-23)
(0.947443 0.0163426 -8.84505e-24)
(0.971325 0.0161094 0)
(0.985205 0.013306 0)
(0.992765 0.0096096 0)
(0.996387 0.00697233 -9.55468e-25)
(0.998637 0.00357579 0)
(0.22662 -0.0331384 -1.07748e-21)
(0.265233 -0.0553546 -6.35816e-21)
(0.355002 -0.0760737 5.90661e-21)
(0.430102 -0.109208 -2.95675e-21)
(0.506551 -0.147959 4.66948e-21)
(0.568056 -0.178855 0)
(0.615078 -0.193698 -4.10571e-22)
(0.649279 -0.188348 4.87461e-22)
(0.678741 -0.164691 -1.31256e-23)
(0.712523 -0.127529 0)
(0.756818 -0.0842505 0)
(0.81022 -0.0436485 -6.10214e-24)
(0.864979 -0.0128842 3.24855e-23)
(0.9125 0.00546765 -1.29621e-23)
(0.947967 0.0133133 4.18416e-24)
(0.97126 0.0143948 1.14119e-23)
(0.984966 0.0124174 -8.52954e-24)
(0.992529 0.00918324 4.17276e-24)
(0.996187 0.0067658 -1.32048e-24)
(0.998512 0.00349964 0)
(0.314809 -0.0510074 -1.91682e-20)
(0.355562 -0.0730961 1.40938e-20)
(0.44379 -0.0925466 -1.40095e-21)
(0.51464 -0.123246 -1.13083e-20)
(0.583117 -0.15918 -7.29022e-21)
(0.635458 -0.187374 5.95308e-21)
(0.672565 -0.200187 -1.55081e-23)
(0.697008 -0.193861 -1.01591e-21)
(0.716806 -0.170354 -1.36696e-22)
(0.740936 -0.134093 3.68022e-22)
(0.776054 -0.0916249 6.95559e-24)
(0.821754 -0.050956 3.34778e-23)
(0.871001 -0.0190949 -2.47013e-24)
(0.91516 0.000920445 -2.82408e-23)
(0.948871 0.0104012 0)
(0.971387 0.0127314 0)