/*--------------------------------*- C++ -*----------------------------------*\
  =========                 |
  \\      /  F ield         | OpenFOAM: The Open Source CFD Toolbox
   \\    /   O peration     | Website:  https://openfoam.org
    \\  /    A nd           | Version:  6.0
     \\/     M anipulation  |
\*---------------------------------------------------------------------------*/
FoamFile
{
    version     2.0;
    format      ascii;
    class       volScalarField;
    location    "5";
    object      p;
}
// * * * * * * * * * * * * * * * * * * * * * * * * * * * * * * * * * * * * * //

dimensions      [0 2 -2 0 0 0 0];

internalField   nonuniform List<scalar> 
9600
(
-74.1893
-62.5531
-54.2761
-47.6735
-41.8417
-36.752
-32.3398
-28.5077
-25.1754
-22.2757
-19.7502
-17.5478
-15.6244
-13.9419
-12.4675
-11.1732
-10.035
-9.03134
-8.14411
-7.37026
-74.4747
-62.8443
-54.5556
-47.933
-42.0807
-36.9724
-32.5439
-28.6979
-25.3537
-22.444
-19.9099
-17.7002
-15.7704
-14.0822
-12.6027
-11.3038
-10.1612
-9.15327
-8.26155
-7.4852
-74.7688
-63.1328
-54.8308
-48.1892
-42.3169
-37.1903
-32.7459
-28.8864
-25.5307
-22.6113
-20.069
-17.8521
-15.9162
-14.2225
-12.7381
-11.4347
-10.288
-9.27577
-8.37967
-7.60106
-75.0681
-63.4217
-55.1035
-48.4424
-42.5504
-37.4058
-32.9458
-29.073
-25.7062
-22.7774
-20.2271
-18.0034
-16.0615
-14.3627
-12.8736
-11.5659
-10.4151
-9.39882
-8.4985
-7.7179
-75.3695
-63.7103
-55.3741
-48.6929
-42.7812
-37.6187
-33.1434
-29.2576
-25.88
-22.9421
-20.3842
-18.154
-16.2065
-14.5026
-13.0091
-11.6973
-10.5427
-9.52248
-8.61813
-7.83584
-75.6711
-63.998
-55.6425
-48.9406
-43.0091
-37.8289
-33.3384
-29.4401
-26.0519
-23.1053
-20.5401
-18.3037
-16.3508
-14.6422
-13.1445
-11.8289
-10.6707
-9.64675
-8.73859
-7.95497
-75.9716
-64.2839
-55.9084
-49.1853
-43.2338
-38.0361
-33.5307
-29.62
-26.2217
-23.2667
-20.6944
-18.4521
-16.4942
-14.7813
-13.2796
-11.9605
-10.799
-9.77158
-8.8599
-8.07533
-76.27
-64.5673
-56.1712
-49.4266
-43.455
-38.2398
-33.7198
-29.7971
-26.3889
-23.4259
-20.8469
-18.5991
-16.6364
-14.9194
-13.4143
-12.092
-10.9275
-9.89687
-8.982
-8.19693
-76.5656
-64.8474
-56.4304
-49.6639
-43.6723
-38.4398
-33.9054
-29.9709
-26.5532
-23.5824
-20.9972
-18.7441
-16.777
-15.0564
-13.548
-12.2229
-11.0558
-10.0224
-9.10477
-8.31971
-76.8579
-65.1237
-56.6854
-49.8969
-43.8851
-38.6354
-34.0869
-30.1409
-26.714
-23.7358
-21.1446
-18.8866
-16.9156
-15.1916
-13.6804
-12.353
-11.1837
-10.1479
-9.22795
-8.44349
-77.1465
-65.3957
-56.9358
-50.1251
-44.0931
-38.8263
-34.2638
-30.3066
-26.8708
-23.8855
-21.2886
-19.026
-17.0513
-15.3244
-13.8109
-12.4814
-11.3105
-10.2728
-9.35112
-8.56789
-77.4312
-65.663
-57.181
-50.3478
-44.2956
-39.0118
-34.4354
-30.4673
-27.0228
-24.0307
-21.4284
-19.1616
-17.1836
-15.454
-13.9385
-12.6076
-11.4355
-10.3966
-9.47367
-8.69232
-77.7119
-65.9252
-57.4206
-50.5647
-44.4921
-39.1913
-34.6013
-30.6224
-27.1694
-24.1706
-21.5632
-19.2924
-17.3113
-15.5795
-14.0624
-12.7306
-11.5578
-10.5183
-9.59495
-8.81634
-77.9887
-66.182
-57.6541
-50.7752
-44.6821
-39.3644
-34.7608
-30.7712
-27.3099
-24.3046
-21.692
-19.4173
-17.4333
-15.6995
-14.1812
-12.8488
-11.6761
-10.6368
-9.71396
-8.93965
-78.2611
-66.4324
-57.8808
-50.9789
-44.8652
-39.5305
-34.9134
-30.9131
-27.4435
-24.4317
-21.814
-19.5354
-17.5484
-15.8126
-14.2931
-12.9604
-11.7881
-10.7495
-9.82847
-9.06027
-78.5297
-66.6764
-58.1004
-51.1753
-45.0409
-39.6891
-35.0585
-31.0476
-27.5696
-24.5512
-21.9283
-19.6456
-17.6555
-15.9174
-14.3965
-13.0634
-11.8914
-10.8539
-9.93509
-9.17228
-78.7989
-66.9156
-58.3125
-51.3636
-45.2083
-39.8394
-35.1953
-31.1738
-27.6874
-24.6622
-22.0338
-19.7467
-17.7531
-16.0125
-14.4902
-13.1567
-11.9856
-10.9496
-10.0323
-9.27214
-79.0782
-67.1538
-58.517
-51.5424
-45.3663
-39.9805
-35.3232
-31.2913
-27.7964
-24.7642
-22.1298
-19.8375
-17.8395
-16.0955
-14.571
-13.2373
-12.0679
-11.0346
-10.1214
-9.37365
-79.3686
-67.3903
-58.7127
-51.7113
-45.5152
-40.1134
-35.4432
-31.401
-27.8976
-24.8579
-22.2167
-19.9178
-17.9136
-16.1634
-14.6336
-13.2957
-12.1234
-11.0898
-10.1882
-9.48478
-79.6276
-67.6108
-58.8989
-51.8726
-45.6578
-40.2409
-35.5582
-31.5056
-27.9934
-24.9457
-22.2969
-19.9904
-17.9779
-16.2185
-14.678
-13.3267
-12.1371
-11.0864
-10.1859
-9.50254
-81.5834
-81.5974
-81.5784
-81.5526
-81.5203
-81.4763
-81.4186
-81.3474
-81.2636
-81.1678
-81.0607
-80.9429
-80.8154
-80.679
-80.5348
-80.3843
-80.2294
-80.0731
-79.9201
-79.7758
-69.3161
-69.3536
-69.3684
-69.3696
-69.3583
-69.3327
-69.2923
-69.2378
-69.1702
-69.0903
-68.9989
-68.8967
-68.7846
-68.6634
-68.5341
-68.3977
-68.2555
-68.1081
-67.9562
-67.7941
-60.304
-60.358
-60.3944
-60.4141
-60.4182
-60.4073
-60.3819
-60.343
-60.2913
-60.2276
-60.1527
-60.0673
-59.9722
-59.8681
-59.7556
-59.6355
-59.5081
-59.3729
-59.229
-59.0726
-53.0275
-53.0877
-53.1326
-53.1611
-53.174
-53.1724
-53.1573
-53.1295
-53.0896
-53.0384
-52.9765
-52.9047
-52.8237
-52.734
-52.6363
-52.5307
-52.4175
-52.2963
-52.1662
-52.026
-46.639
-46.6987
-46.745
-46.7765
-46.7932
-46.7964
-46.7869
-46.7655
-46.7329
-46.6896
-46.6365
-46.574
-46.503
-46.424
-46.3374
-46.2436
-46.1427
-46.0344
-45.9184
-45.7937
-41.1158
-41.172
-41.2162
-41.2468
-41.2638
-41.268
-41.2604
-41.2417
-41.2125
-41.1734
-41.1251
-41.0683
-41.0037
-40.9318
-40.8531
-40.768
-40.6767
-40.579
-40.4745
-40.3626
-36.3757
-36.4271
-36.4672
-36.4948
-36.5096
-36.5125
-36.5043
-36.4857
-36.4572
-36.4196
-36.3735
-36.3196
-36.2586
-36.1911
-36.1177
-36.0387
-35.9545
-35.865
-35.7697
-35.6682
-32.2973
-32.3433
-32.3785
-32.4019
-32.4134
-32.4137
-32.4035
-32.3835
-32.3542
-32.3163
-32.2706
-32.2177
-32.1584
-32.0934
-32.0233
-31.9486
-31.8696
-31.7864
-31.6986
-31.6057
-28.7777
-28.8183
-28.8484
-28.8674
-28.8752
-28.8723
-28.8594
-28.8372
-28.8063
-28.7673
-28.7209
-28.6678
-28.609
-28.5452
-28.477
-28.4052
-28.3301
-28.252
-28.1704
-28.0849
-25.7323
-25.7677
-25.7931
-25.8078
-25.8118
-25.8056
-25.7899
-25.7653
-25.7323
-25.6916
-25.6439
-25.5901
-25.531
-25.4674
-25.4003
-25.3304
-25.2584
-25.1844
-25.1084
-25.0295
-23.0896
-23.1205
-23.1415
-23.1522
-23.1527
-23.1434
-23.125
-23.0978
-23.0627
-23.0201
-22.9709
-22.9158
-22.8559
-22.7921
-22.7254
-22.6568
-22.5871
-22.5168
-22.4458
-22.3733
-20.79
-20.8168
-20.834
-20.8412
-20.8385
-20.8263
-20.8053
-20.7759
-20.7386
-20.6941
-20.6432
-20.5868
-20.5257
-20.4612
-20.3944
-20.3264
-20.2585
-20.1914
-20.1252
-20.0591
-18.7837
-18.8069
-18.8207
-18.8248
-18.8193
-18.8046
-18.7813
-18.7497
-18.7104
-18.6641
-18.6115
-18.5535
-18.4911
-18.4255
-18.358
-18.2902
-18.2236
-18.1592
-18.0978
-18.0382
-17.029
-17.0491
-17.06
-17.0614
-17.0534
-17.0365
-17.0111
-16.9775
-16.9364
-16.8884
-16.8341
-16.7745
-16.7105
-16.6435
-16.575
-16.5067
-16.4407
-16.3785
-16.3218
-16.2693
-15.491
-15.5085
-15.5168
-15.5158
-15.5057
-15.4868
-15.4596
-15.4243
-15.3816
-15.3319
-15.276
-15.2147
-15.149
-15.0802
-15.0101
-14.9405
-14.8743
-14.8136
-14.7617
-14.7167
-14.1404
-14.1554
-14.1615
-14.1585
-14.1465
-14.1258
-14.0969
-14.0601
-14.0159
-13.9646
-13.9071
-13.844
-13.7764
-13.7056
-13.6332
-13.5616
-13.4941
-13.4336
-13.3859
-13.3489
-12.9521
-12.965
-12.9691
-12.9641
-12.9504
-12.9281
-12.8977
-12.8594
-12.8137
-12.7609
-12.7017
-12.6368
-12.567
-12.4936
-12.4183
-12.3434
-12.2731
-12.2111
-12.1663
-12.1361
-11.9044
-11.9156
-11.918
-11.9116
-11.8964
-11.8729
-11.8412
-11.8017
-11.7546
-11.7005
-11.6397
-11.5729
-11.5009
-11.4246
-11.3456
-11.2664
-11.1912
-11.1256
-11.083
-11.0584
-10.9781
-10.9883
-10.9899
-10.9828
-10.9672
-10.9432
-10.9112
-10.8714
-10.8242
-10.7697
-10.7086
-10.6411
-10.568
-10.4901
-10.4084
-10.3251
-10.244
-10.1726
-10.1316
-10.1221
-10.1612
-10.1685
-10.1675
-10.1584
-10.1412
-10.1161
-10.0833
-10.043
-9.99558
-9.94118
-9.88017
-9.8129
-9.73977
-9.66134
-9.57819
-9.49174
-9.40374
-9.32124
-9.2642
-9.27697
-76.6275
-77.0174
-77.3688
-77.7239
-78.0809
-78.429
-78.7626
-79.0801
-79.381
-79.6644
-79.9294
-80.1754
-80.4021
-80.6094
-80.7974
-80.9667
-81.1181
-81.2535
-81.3757
-81.4881
-64.3282
-64.7277
-65.1059
-65.4762
-65.8383
-66.1874
-66.5206
-66.8372
-67.1368
-67.4191
-67.6836
-67.9298
-68.1575
-68.3666
-68.5572
-68.7296
-68.8844
-69.0218
-69.1423
-69.2425
-55.4103
-55.8034
-56.1831
-56.5493
-56.9018
-57.2399
-57.5628
-57.8701
-58.1614
-58.4363
-58.6944
-58.9354
-59.1591
-59.3653
-59.5541
-59.7253
-59.8792
-60.0153
-60.133
-60.2301
-48.3407
-48.7147
-49.0783
-49.4281
-49.7633
-50.0846
-50.3919
-50.6845
-50.9623
-51.2246
-51.4713
-51.7019
-51.9164
-52.1146
-52.2964
-52.4615
-52.61
-52.7415
-52.8555
-52.9514
-42.2196
-42.5705
-42.9127
-43.2424
-43.5585
-43.8613
-44.1507
-44.4263
-44.6878
-44.9348
-45.1671
-45.3843
-45.5864
-45.7732
-45.9445
-46.1003
-46.2405
-46.3648
-46.473
-46.5649
-36.9821
-37.3108
-37.6318
-37.9416
-38.2386
-38.5227
-38.794
-39.0522
-39.2968
-39.5277
-39.7446
-39.9474
-40.1358
-40.3099
-40.4695
-40.6145
-40.7448
-40.8603
-40.9609
-41.0465
-32.5194
-32.8284
-33.1301
-33.4212
-33.7002
-33.9668
-34.2209
-34.4624
-34.6909
-34.9062
-35.1083
-35.2969
-35.472
-35.6334
-35.7812
-35.9152
-36.0354
-36.1417
-36.234
-36.3124
-28.697
-28.9888
-29.2734
-29.5478
-29.8105
-30.0611
-30.2997
-30.5259
-30.7397
-30.9407
-31.129
-31.3045
-31.4671
-31.6167
-31.7534
-31.8769
-31.9874
-32.0848
-32.169
-32.2401
-25.4073
-25.6842
-25.9539
-26.2136
-26.462
-26.6985
-26.9231
-27.1358
-27.3362
-27.5244
-27.7004
-27.864
-28.0153
-28.1542
-28.2807
-28.3948
-28.4964
-28.5855
-28.6622
-28.7265
-22.5649
-22.8293
-23.0862
-23.3333
-23.5691
-23.7931
-24.0054
-24.2059
-24.3946
-24.5713
-24.7363
-24.8894
-25.0306
-25.16
-25.2775
-25.3831
-25.4768
-25.5586
-25.6284
-25.6865
-20.1006
-20.3542
-20.6004
-20.8367
-21.0615
-21.2745
-21.4759
-21.6656
-21.8437
-22.0103
-22.1654
-22.3092
-22.4416
-22.5626
-22.6722
-22.7703
-22.857
-22.9323
-22.9962
-23.0488
-17.9574
-18.2019
-18.4392
-18.6662
-18.8814
-19.0846
-19.2761
-19.4561
-19.6249
-19.7824
-19.9289
-20.0644
-20.189
-20.3026
-20.4053
-20.4969
-20.5775
-20.6471
-20.7057
-20.7535
-16.0881
-16.3253
-16.5553
-16.7744
-16.981
-17.1753
-17.358
-17.5293
-17.6895
-17.8389
-17.9777
-18.1059
-18.2236
-18.3308
-18.4273
-18.5133
-18.5886
-18.6533
-18.7074
-18.7509
-14.4539
-14.6852
-14.9097
-15.122
-15.3208
-15.5069
-15.6813
-15.8446
-15.9971
-16.1392
-16.2711
-16.3928
-16.5045
-16.606
-16.6973
-16.7783
-16.849
-16.9095
-16.9596
-16.9995
-13.0223
-13.2494
-13.4699
-13.6761
-13.8674
-14.0459
-14.2126
-14.3685
-14.5139
-14.6494
-14.7751
-14.8912
-14.9975
-15.094
-15.1807
-15.2574
-15.3242
-15.3809
-15.4276
-15.4644
-11.7654
-11.9915
-12.2094
-12.4096
-12.5936
-12.7647
-12.9241
-13.073
-13.212
-13.3415
-13.4617
-13.5726
-13.6742
-13.7664
-13.849
-13.9219
-13.9852
-14.0386
-14.0823
-14.1163
-10.6539
-10.8863
-11.1049
-11.2987
-11.4752
-11.639
-11.7916
-11.934
-12.0671
-12.1912
-12.3065
-12.413
-12.5104
-12.5987
-12.6777
-12.7473
-12.8074
-12.8579
-12.8989
-12.9303
-9.65491
-9.90132
-10.1266
-10.3156
-10.485
-10.6423
-10.7888
-10.9258
-11.0539
-11.1736
-11.285
-11.3878
-11.4819
-11.5672
-11.6433
-11.7103
-11.7679
-11.8161
-11.855
-11.8844
-8.76679
-9.02002
-9.25391
-9.44273
-9.60678
-9.75768
-9.89871
-10.0308
-10.1547
-10.2706
-10.3786
-10.4784
-10.5698
-10.6526
-10.7265
-10.7914
-10.8471
-10.8937
-10.9311
-10.9593
-8.12181
-8.3587
-8.56381
-8.74745
-8.90319
-9.0409
-9.17027
-9.2927
-9.40758
-9.51503
-9.61515
-9.70766
-9.7922
-9.8685
-9.93638
-9.99569
-10.0463
-10.0882
-10.1213
-10.1457
-3.8511
-4.513
-5.27884
-6.15008
-7.14239
-8.27452
-9.56692
-11.0436
-12.7332
-14.67
-16.8952
-19.459
-22.4231
-25.8642
-29.8822
-34.6081
-40.158
-46.6234
-54.9581
-66.8032
-4.04117
-4.7087
-5.47736
-6.35242
-7.34947
-8.48697
-9.78549
-11.2692
-12.9668
-14.9129
-17.1488
-19.7252
-22.704
-26.1624
-30.2011
-34.9512
-40.5288
-47.0227
-55.3805
-67.2364
-4.23578
-4.90898
-5.68063
-6.55978
-7.56184
-8.705
-10.0099
-11.5009
-13.207
-15.1627
-17.4098
-19.9992
-22.9933
-26.4696
-30.5293
-35.3039
-40.9091
-47.4308
-55.8082
-67.6655
-4.43428
-5.11317
-5.88794
-6.77142
-7.77872
-8.92776
-10.2393
-11.7379
-13.4526
-15.4183
-17.6768
-20.2796
-23.2892
-26.7838
-30.8647
-35.6639
-41.2968
-47.8474
-56.2484
-68.1147
-4.6362
-5.32077
-6.09881
-6.98685
-7.99962
-9.15475
-10.4731
-11.9795
-13.703
-15.6788
-17.9491
-20.5654
-23.5909
-27.104
-31.2065
-36.0304
-41.6913
-48.272
-56.7006
-68.5823
-4.84111
-5.53137
-6.31282
-7.20567
-8.22414
-9.38556
-10.711
-12.2253
-13.9579
-15.9441
-18.2263
-20.8564
-23.8979
-27.4298
-31.5542
-36.4033
-42.0925
-48.704
-57.1617
-69.0617
-5.04867
-5.74458
-6.52958
-7.42749
-8.4519
-9.61982
-10.9525
-12.4749
-14.2168
-16.2136
-18.5079
-21.1521
-24.2099
-27.7609
-31.9075
-36.7822
-42.5002
-49.1424
-57.6294
-69.549
-5.2586
-5.9601
-6.74878
-7.652
-8.68256
-9.85716
-11.1972
-12.728
-14.4793
-16.4868
-18.7935
-21.4519
-24.5264
-28.0967
-32.2658
-37.1664
-42.9134
-49.5865
-58.103
-70.0429
-5.4707
-6.17771
-6.97016
-7.87891
-8.91581
-10.0972
-11.4448
-12.9841
-14.7449
-16.7633
-19.0825
-21.7553
-24.8466
-28.4365
-32.6283
-37.5551
-43.3314
-50.0355
-58.5814
-70.5423
-5.68491
-6.39728
-7.19358
-8.10803
-9.15141
-10.3398
-11.695
-13.2427
-15.0133
-17.0426
-19.3744
-22.0618
-25.17
-28.7796
-32.9944
-37.9476
-43.7532
-50.4884
-59.0639
-71.046
-5.90131
-6.61883
-7.41895
-8.33924
-9.38917
-10.5845
-11.9473
-13.5036
-15.2838
-17.3242
-19.6686
-22.3707
-25.4959
-29.1254
-33.3632
-38.3429
-44.1781
-50.9444
-59.5493
-71.5526
-6.12013
-6.84247
-7.6463
-8.57243
-9.6289
-10.8311
-12.2015
-13.7663
-15.5561
-17.6074
-19.9645
-22.6812
-25.8235
-29.4729
-33.734
-38.7403
-44.605
-51.4024
-60.0365
-72.0608
-6.34182
-7.06848
-7.8757
-8.80754
-9.87038
-11.0794
-12.4572
-14.0303
-15.8296
-17.8918
-20.2615
-22.9928
-26.1522
-29.8215
-34.1058
-39.1387
-45.033
-51.8613
-60.5245
-72.5696
-6.56698
-7.29715
-8.10719
-9.04439
-10.1133
-11.3287
-12.7137
-14.295
-16.1035
-18.1765
-20.5587
-23.3045
-26.4809
-30.1702
-34.4777
-39.5372
-45.4611
-52.3203
-61.0123
-73.078
-6.79634
-7.52877
-8.34068
-9.28264
-10.3572
-11.5787
-12.9705
-14.5596
-16.3773
-18.4608
-20.8553
-23.6156
-26.8089
-30.518
-34.8486
-39.9347
-45.8882
-52.7784
-61.499
-73.5851
-7.03026
-7.76286
-8.57525
-9.52122
-10.6009
-11.8281
-13.2265
-14.8232
-16.6498
-18.7437
-21.1504
-23.9249
-27.135
-30.8638
-35.2174
-40.33
-46.313
-53.2343
-61.984
-74.0906
-7.26886
-7.99867
-8.80969
-9.75886
-10.8432
-12.0759
-13.4806
-15.0848
-16.9202
-19.0243
-21.4429
-24.2316
-27.4582
-31.2066
-35.5829
-40.7218
-46.7342
-53.687
-62.4668
-74.5946
-7.50764
-8.22981
-9.03866
-9.99192
-11.0818
-12.3203
-13.7315
-15.3432
-17.1872
-19.3014
-21.7318
-24.5344
-27.7774
-31.545
-35.9439
-41.1085
-47.1501
-54.1347
-62.9466
-75.0987
-7.7422
-8.45204
-9.25946
-10.2192
-11.3157
-12.5602
-13.9779
-15.5971
-17.4497
-19.5739
-22.016
-24.8321
-28.0912
-31.8777
-36.2987
-41.4886
-47.5584
-54.5747
-63.4226
-75.6059
-7.92589
-8.62839
-9.45923
-10.4374
-11.5433
-12.7945
-14.2191
-15.8459
-17.707
-19.8409
-22.2943
-25.1238
-28.3986
-32.2035
-36.6459
-41.8603
-47.9567
-55.002
-63.8873
-76.1202
-1.66171
-2.15896
-2.83923
-3.64461
-4.5649
-5.61763
-6.82423
-8.20709
-9.79215
-11.6104
-13.6989
-16.1025
-18.8757
-22.0863
-25.8239
-30.2085
-35.3481
-41.3403
-49.1858
-60.6565
-1.74193
-2.25893
-2.94839
-3.7464
-4.6575
-5.70374
-6.90575
-8.28522
-9.86794
-11.6848
-13.773
-16.1771
-18.952
-22.1658
-25.9084
-30.3007
-35.4508
-41.454
-49.3047
-60.7698
-1.75985
-2.31453
-3.01942
-3.82275
-4.73668
-5.78463
-6.98733
-8.367
-9.94996
-11.7675
-13.8568
-16.263
-19.0409
-22.2591
-26.008
-30.4087
-35.5699
-41.584
-49.4353
-60.881
-1.79708
-2.36617
-3.07924
-3.88951
-4.80957
-5.86232
-7.06857
-8.45099
-10.0364
-11.8563
-13.9484
-16.3579
-19.1402
-22.3639
-26.1199
-30.5299
-35.7029
-41.7304
-49.5904
-61.0299
-1.84767
-2.42298
-3.14199
-3.95824
-4.88394
-5.94168
-7.15229
-8.53864
-10.1277
-11.9514
-14.0474
-16.4614
-19.249
-22.4793
-26.2436
-30.6638
-35.8499
-41.8937
-49.7696
-61.2146
-1.90193
-2.48451
-3.20952
-4.03134
-4.96242
-6.02526
-7.24066
-8.63158
-10.2251
-12.0533
-14.1542
-16.5736
-19.3676
-22.6056
-26.3793
-30.8112
-36.0118
-42.0738
-49.969
-61.4251
-1.96258
-2.55276
-3.28308
-4.11001
-5.04637
-6.11446
-7.33498
-8.73093
-10.3295
-12.163
-14.2695
-16.6952
-19.4964
-22.7431
-26.5274
-30.9724
-36.189
-42.2704
-50.1863
-61.6566
-2.03359
-2.63023
-3.36478
-4.19618
-5.13749
-6.21071
-7.43644
-8.83767
-10.4417
-12.2809
-14.3937
-16.8265
-19.6358
-22.8922
-26.6881
-31.1473
-36.3813
-42.4832
-50.4213
-61.9079
-2.11596
-2.71809
-3.45608
-4.29135
-5.23717
-6.31526
-7.54611
-8.95272
-10.5625
-12.4078
-14.5273
-16.9677
-19.7859
-23.0528
-26.8614
-31.336
-36.5885
-42.7123
-50.6738
-62.1788
-2.20943
-2.81661
-3.55754
-4.39622
-5.34619
-6.42891
-7.66476
-9.07676
-10.6923
-12.5441
-14.6707
-17.1193
-19.947
-23.2251
-27.0474
-31.5385
-36.8107
-42.9575
-50.9437
-62.4685
-2.31373
-2.92578
-3.66928
-4.51105
-5.4649
-6.55205
-7.7928
-9.21019
-10.8317
-12.6901
-14.8242
-17.2814
-20.1191
-23.4093
-27.246
-31.7545
-37.0477
-43.2187
-51.2307
-62.7763
-2.42864
-3.04543
-3.79124
-4.63586
-5.59342
-6.68486
-7.93044
-9.35324
-10.9808
-12.846
-14.988
-17.4541
-20.3025
-23.6053
-27.4573
-31.9842
-37.2993
-43.4955
-51.5343
-63.1015
-2.55378
-3.17525
-3.92318
-4.77052
-5.73166
-6.82732
-8.07771
-9.50597
-11.1397
-13.0119
-15.162
-17.6375
-20.497
-23.8131
-27.6811
-32.2273
-37.5653
-43.7878
-51.8542
-63.4438
-2.68861
-3.31477
-4.06474
-4.91473
-5.87942
-6.97927
-8.23449
-9.66826
-11.3083
-13.1878
-15.3462
-17.8315
-20.7026
-24.0326
-27.9173
-32.4836
-37.8455
-44.0953
-52.1901
-63.8027
-2.83254
-3.46344
-4.21542
-5.06807
-6.03632
-7.1404
-8.4005
-9.83989
-11.4864
-13.3733
-15.5404
-18.0359
-20.9191
-24.2635
-28.1656
-32.7528
-38.1396
-44.4177
-52.542
-64.1781
-2.98491
-3.62066
-4.3747
-5.23006
-6.20194
-7.31032
-8.57541
-10.0206
-11.6737
-13.5683
-15.7444
-18.2504
-21.1461
-24.5055
-28.4256
-33.0346
-38.4471
-44.7547
-52.9095
-64.57
-3.14509
-3.78582
-4.54196
-5.40016
-6.37578
-7.48858
-8.75878
-10.2098
-11.8699
-13.7724
-15.9577
-18.4747
-21.3833
-24.7582
-28.697
-33.3284
-38.7675
-45.1058
-53.2927
-64.9787
-3.31244
-3.95826
-4.71663
-5.57781
-6.55733
-7.67469
-8.95016
-10.4073
-12.0744
-13.9852
-16.18
-18.7082
-21.6302
-25.0212
-28.9792
-33.6336
-39.1001
-45.4701
-53.6913
-65.4052
-3.4863
-4.13735
-4.89807
-5.7624
-6.74599
-7.86808
-9.14901
-10.6125
-12.2869
-14.206
-16.4107
-18.9506
-21.8863
-25.2937
-29.2714
-33.9494
-39.4437
-45.8465
-54.1049
-65.8515
-3.66609
-4.32253
-5.08574
-5.95343
-6.94129
-8.06831
-9.35489
-10.8249
-12.5068
-14.4347
-16.6495
-19.2012
-22.1511
-25.5752
-29.5731
-34.275
-39.7972
-46.2321
-54.5297
-66.3203
-1.37252
-1.24981
-1.20419
-1.18769
-1.19068
-1.20675
-1.23429
-1.27202
-1.31925
-1.37545
-1.44016
-1.51298
-1.59352
-1.6814
-1.77623
-1.87762
-1.98517
-2.09848
-2.21715
-2.34089
-2.00815
-1.90952
-1.85194
-1.82685
-1.82382
-1.83629
-1.86166
-1.89814
-1.94479
-2.00086
-2.06581
-2.13915
-2.22044
-2.30924
-2.40515
-2.50775
-2.61662
-2.73132
-2.85141
-2.97662
-2.70989
-2.62719
-2.57148
-2.54368
-2.53713
-2.5472
-2.57111
-2.60696
-2.65361
-2.71018
-2.77603
-2.85062
-2.93343
-3.02401
-3.12192
-3.22672
-3.33796
-3.45518
-3.57794
-3.70596
-3.5337
-3.45619
-3.40194
-3.37215
-3.36238
-3.36956
-3.39122
-3.42557
-3.47136
-3.52764
-3.59369
-3.66889
-3.75268
-3.84456
-3.94407
-4.05071
-4.16403
-4.28353
-4.40876
-4.53945
-4.4711
-4.39871
-4.3463
-4.31561
-4.30384
-4.30892
-4.3288
-4.36191
-4.407
-4.46311
-4.52945
-4.60535
-4.69022
-4.78351
-4.88472
-4.99334
-5.10887
-5.23078
-5.35861
-5.49213
-5.53536
-5.46849
-5.41884
-5.38841
-5.37582
-5.37972
-5.39855
-5.43093
-5.47574
-5.53201
-5.59894
-5.67584
-5.76207
-5.85707
-5.96028
-6.07117
-6.18922
-6.31387
-6.44463
-6.58132
-6.74934
-6.68722
-6.64054
-6.61111
-6.5985
-6.60194
-6.62028
-6.65239
-6.69726
-6.754
-6.82181
-6.89998
-6.98785
-7.08483
-7.19035
-7.30384
-7.42475
-7.55248
-7.68654
-7.82681
-8.13723
-8.07893
-8.03499
-8.00691
-7.99482
-7.99833
-8.01665
-8.04889
-8.09418
-8.1517
-8.22067
-8.3004
-8.39021
-8.4895
-8.59766
-8.71412
-8.83828
-8.9695
-9.10731
-9.25163
-9.72583
-9.67057
-9.629
-9.60237
-9.59112
-9.5951
-9.61381
-9.64656
-9.69262
-9.75125
-9.82172
-9.90334
-9.99546
-10.0974
-10.2087
-10.3285
-10.4564
-10.5916
-10.7337
-10.8826
-11.5465
-11.4935
-11.4539
-11.4286
-11.4184
-11.4231
-11.4425
-11.4761
-11.5233
-11.5833
-11.6557
-11.7396
-11.8344
-11.9395
-12.0542
-12.178
-12.3101
-12.4499
-12.5969
-12.7511
-13.6364
-13.585
-13.5467
-13.5226
-13.5133
-13.5189
-13.5392
-13.5739
-13.6224
-13.6843
-13.7588
-13.8454
-13.9434
-14.0521
-14.1709
-14.2992
-14.4362
-14.5811
-14.7337
-14.8939
-16.0404
-15.9896
-15.9521
-15.9287
-15.9201
-15.9264
-15.9476
-15.9836
-16.0337
-16.0976
-16.1746
-16.2642
-16.3658
-16.4786
-16.602
-16.7353
-16.8779
-17.0287
-17.1876
-17.3547
-18.8129
-18.7615
-18.7238
-18.7004
-18.692
-18.6988
-18.7208
-18.7578
-18.8096
-18.8756
-18.9554
-19.0483
-19.1537
-19.271
-19.3996
-19.5386
-19.6873
-19.8448
-20.0107
-20.1854
-22.0213
-21.9681
-21.9289
-21.9043
-21.8952
-21.9016
-21.9239
-21.9617
-22.0148
-22.0828
-22.1653
-22.2616
-22.3711
-22.4932
-22.6273
-22.7725
-22.9279
-23.0926
-23.2663
-23.4494
-25.7548
-25.6976
-25.655
-25.6277
-25.6164
-25.6214
-25.6428
-25.6805
-25.7343
-25.8039
-25.8887
-25.9882
-26.1017
-26.2286
-26.3683
-26.5199
-26.6826
-26.8551
-27.037
-27.2291
-30.1326
-30.0687
-30.0202
-29.9877
-29.972
-29.9736
-29.9925
-30.0287
-30.082
-30.152
-30.2383
-30.3403
-30.4573
-30.5887
-30.7338
-30.8918
-31.0617
-31.2423
-31.4327
-31.6337
-35.2622
-35.1884
-35.1302
-35.0889
-35.0655
-35.0607
-35.0745
-35.107
-35.1578
-35.2265
-35.3126
-35.4157
-35.5349
-35.6697
-35.8193
-35.983
-36.1596
-36.3478
-36.5464
-36.756
-41.241
-41.1516
-41.0773
-41.0215
-40.9858
-40.9707
-40.976
-41.0016
-41.0471
-41.1118
-41.1954
-41.2972
-41.4166
-41.5528
-41.705
-41.8723
-42.0541
-42.2493
-42.4567
-42.6752
-49.0593
-48.9402
-48.8398
-48.7635
-48.711
-48.6821
-48.6758
-48.6915
-48.7287
-48.7866
-48.8648
-48.9627
-49.0797
-49.2149
-49.3676
-49.5368
-49.7228
-49.9271
-50.1485
-50.3786
-60.4642
-60.2972
-60.1682
-60.0719
-60.0041
-59.9622
-59.9447
-59.9507
-59.9793
-60.0301
-60.1024
-60.1959
-60.3099
-60.4441
-60.5976
-60.77
-60.9631
-61.1816
-61.4255
-61.6702
-2.46933
-2.60165
-2.73757
-2.8766
-3.01835
-3.16236
-3.30824
-3.45556
-3.60391
-3.75288
-3.90203
-4.05077
-4.19814
-4.34277
-4.48324
-4.61678
-4.7348
-4.82325
-4.8705
-4.88887
-3.10663
-3.24049
-3.37797
-3.51854
-3.66179
-3.80724
-3.95447
-4.10302
-4.25245
-4.40227
-4.55197
-4.70087
-4.84801
-4.99195
-5.13072
-5.26225
-5.383
-5.47973
-5.52899
-5.57304
-3.83894
-3.97588
-4.11653
-4.26037
-4.40695
-4.5558
-4.70645
-4.85844
-5.01128
-5.16445
-5.31734
-5.46924
-5.61918
-5.76579
-5.90722
-6.04176
-6.16734
-6.2756
-6.35349
-6.43175
-4.67531
-4.81525
-4.95904
-5.10612
-5.25605
-5.40832
-5.56246
-5.71796
-5.8743
-6.0309
-6.18714
-6.34222
-6.49518
-6.64471
-6.78922
-6.92722
-7.05672
-7.17261
-7.27195
-7.37703
-5.63103
-5.77412
-5.92119
-6.07167
-6.22508
-6.38092
-6.53866
-6.69779
-6.85774
-7.01791
-7.17762
-7.33608
-7.4923
-7.64509
-7.79315
-7.93521
-8.06943
-8.19277
-8.30704
-8.42827
-6.72362
-6.87023
-7.02095
-7.17519
-7.33246
-7.49223
-7.65397
-7.81711
-7.98107
-8.14523
-8.30888
-8.47123
-8.63134
-8.78814
-8.94057
-9.08761
-9.2278
-9.35962
-9.48614
-9.61797
-7.97294
-8.1235
-8.27832
-8.43678
-8.59838
-8.76256
-8.92878
-9.09645
-9.26497
-9.4337
-9.60192
-9.76886
-9.93364
-10.0953
-10.2531
-10.406
-10.5532
-10.6941
-10.8316
-10.9725
-9.40208
-9.55711
-9.71655
-9.87977
-10.0463
-10.2154
-10.3868
-10.5596
-10.7333
-10.9073
-11.0809
-11.2533
-11.4237
-11.5912
-11.7553
-11.9151
-12.0702
-12.2204
-12.3684
-12.5182
-11.038
-11.1981
-11.3628
-11.5314
-11.7035
-11.8784
-12.0555
-12.2343
-12.4141
-12.5943
-12.7741
-12.9529
-13.1299
-13.3045
-13.4759
-13.6437
-13.8075
-13.9676
-14.1258
-14.285
-12.9121
-13.078
-13.2487
-13.4235
-13.602
-13.7835
-13.9673
-14.153
-14.3398
-14.5271
-14.7143
-14.9007
-15.0855
-15.2682
-15.4483
-15.6252
-15.7988
-15.9694
-16.1382
-16.3075
-15.0613
-15.2339
-15.4114
-15.5933
-15.7791
-15.9681
-16.1597
-16.3533
-16.5482
-16.7439
-16.9397
-17.1348
-17.3288
-17.521
-17.711
-17.8984
-18.0829
-18.2648
-18.445
-18.6256
-17.5294
-17.7094
-17.8947
-18.0847
-18.2788
-18.4763
-18.6767
-18.8794
-19.0837
-19.289
-19.4947
-19.7001
-19.9046
-20.1077
-20.3091
-20.5083
-20.7051
-20.8995
-21.0923
-21.2854
-20.3683
-20.5567
-20.7507
-20.9496
-21.153
-21.3602
-21.5706
-21.7836
-21.9985
-22.2148
-22.4318
-22.6488
-22.8654
-23.0811
-23.2954
-23.508
-23.7185
-23.9268
-24.1335
-24.3408
-23.6412
-23.8387
-24.0422
-24.251
-24.4646
-24.6825
-24.904
-25.1284
-25.3553
-25.5838
-25.8135
-26.0437
-26.2739
-26.5036
-26.7325
-26.9601
-27.1859
-27.4096
-27.6319
-27.8549
-27.4303
-27.6374
-27.8509
-28.0702
-28.2948
-28.5241
-28.7575
-28.9945
-29.2343
-29.4763
-29.72
-29.9647
-30.2099
-30.4551
-30.7
-30.9442
-31.187
-31.4279
-31.6673
-31.9075
-31.8444
-32.0611
-32.2846
-32.5146
-32.7504
-32.9915
-33.2374
-33.4874
-33.7409
-33.9972
-34.2557
-34.5158
-34.7771
-35.0391
-35.3013
-35.5635
-35.8249
-36.0845
-36.3424
-36.6009
-36.9756
-37.2013
-37.4341
-37.6739
-37.9202
-38.1727
-38.4308
-38.6938
-38.9609
-39.2316
-39.5052
-39.7811
-40.0589
-40.3381
-40.6183
-40.899
-41.1797
-41.4591
-41.7365
-42.0139
-42.9024
-43.1345
-43.3736
-43.6206
-43.8755
-44.1378
-44.4067
-44.6814
-44.9612
-45.2452
-45.533
-45.8239
-46.1174
-46.4131
-46.7103
-47.0087
-47.308
-47.6081
-47.9079
-48.2066
-50.6049
-50.8346
-51.0735
-51.3236
-51.5839
-51.8533
-52.1305
-52.4144
-52.7043
-52.9992
-53.2986
-53.6019
-53.9088
-54.2187
-54.5309
-54.8453
-55.1634
-55.4888
-55.8211
-56.1469
-61.8691
-62.0822
-62.3159
-62.5659
-62.8287
-63.1019
-63.3839
-63.6734
-63.9695
-64.2713
-64.5783
-64.8903
-65.2071
-65.5285
-65.8543
-66.1849
-66.5245
-66.8825
-67.26
-67.6167
-67.875
-56.4462
-48.5016
-42.2911
-36.8596
-32.1483
-28.0785
-24.5486
-21.4792
-18.807
-16.478
-14.446
-12.6711
-11.119
-9.75995
-8.56791
-7.51733
-6.58615
-5.77887
-5.11316
-68.1385
-56.7337
-48.7883
-42.5632
-37.1142
-32.3854
-28.2991
-24.754
-21.671
-18.9868
-16.6474
-14.6064
-12.824
-11.2658
-9.90219
-8.70735
-7.65737
-6.73618
-5.9524
-5.29346
-68.4195
-57.02
-49.0712
-42.833
-37.3669
-32.6209
-28.5183
-24.9582
-21.8618
-19.1658
-16.8162
-14.7665
-12.9766
-11.4123
-10.0438
-8.84526
-7.79338
-6.87208
-6.08404
-5.40717
-68.7124
-57.3105
-49.3537
-43.1015
-37.6185
-32.8552
-28.7361
-25.1612
-22.0515
-19.3438
-16.984
-14.9255
-13.128
-11.5571
-10.183
-8.97954
-7.92365
-6.9984
-6.20243
-5.51119
-69.0131
-57.6048
-49.637
-43.3696
-37.8693
-33.0885
-28.953
-25.3632
-22.2402
-19.5208
-17.1508
-15.0834
-13.2782
-11.7004
-10.3199
-9.11076
-8.04945
-7.11844
-6.31393
-5.6119
-69.3188
-57.9026
-49.9217
-43.6379
-38.1197
-33.3212
-29.1691
-25.5642
-22.4279
-19.6969
-17.3167
-15.2403
-13.4271
-11.8422
-10.4553
-9.24013
-8.17323
-7.23666
-6.42483
-5.71447
-69.6282
-58.203
-50.2077
-43.9065
-38.3698
-33.5533
-29.3845
-25.7645
-22.6149
-19.8721
-17.4817
-15.3963
-13.5752
-11.9831
-10.5897
-9.36854
-8.29617
-7.35443
-6.53622
-5.8191
-69.9405
-58.5055
-50.495
-44.1756
-38.6199
-33.785
-29.5993
-25.9642
-22.8012
-20.0467
-17.646
-15.5517
-13.7226
-12.1235
-10.7237
-9.49668
-8.41912
-7.47262
-6.64871
-5.92578
-70.2552
-58.8099
-50.7834
-44.4451
-38.87
-34.0164
-29.8136
-26.1632
-22.9868
-20.2207
-17.8098
-15.7066
-13.8697
-12.2636
-10.8575
-9.62484
-8.54231
-7.59133
-6.76214
-6.03399
-70.5721
-59.1159
-51.0728
-44.715
-39.12
-34.2475
-30.0274
-26.3617
-23.1719
-20.3942
-17.9732
-15.8611
-14.0165
-12.4035
-10.9913
-9.75317
-8.66582
-7.71051
-6.87628
-6.14329
-70.8912
-59.4234
-51.363
-44.9853
-39.3699
-34.4783
-30.2408
-26.5598
-23.3566
-20.5672
-18.1362
-16.0154
-14.1631
-12.5434
-11.1252
-9.88165
-8.78959
-7.83
-6.99085
-6.25327
-71.2124
-59.7323
-51.6541
-45.2559
-39.6198
-34.7087
-30.4538
-26.7574
-23.5408
-20.7399
-18.2989
-16.1695
-14.3096
-12.6832
-11.2591
-10.0103
-8.91353
-7.94967
-7.10565
-6.36366
-71.5359
-60.0426
-51.9459
-45.5267
-39.8696
-34.9389
-30.6663
-26.9545
-23.7246
-20.9122
-18.4613
-16.3233
-14.456
-12.823
-11.393
-10.139
-9.03758
-8.0694
-7.22051
-6.47428
-71.8619
-60.3542
-52.2382
-45.7976
-40.1191
-35.1685
-30.8783
-27.1511
-23.9079
-21.0841
-18.6235
-16.477
-14.6023
-12.9628
-11.527
-10.2678
-9.16168
-8.18914
-7.33538
-6.58505
-72.1901
-60.6666
-52.5308
-46.0684
-40.3683
-35.3977
-31.0898
-27.3472
-24.0908
-21.2557
-18.7853
-16.6305
-14.7485
-13.1026
-11.661
-10.3966
-9.28583
-8.30888
-7.45023
-6.69597
-72.521
-60.9799
-52.8236
-46.3391
-40.6169
-35.6262
-31.3005
-27.5426
-24.2731
-21.4268
-18.9469
-16.7838
-14.8946
-13.2423
-11.795
-10.5255
-9.41005
-8.42866
-7.56512
-6.80708
-72.8569
-61.2949
-53.1163
-46.609
-40.8646
-35.8536
-31.5102
-27.7371
-24.4547
-21.5974
-19.108
-16.9368
-15.0405
-13.382
-11.9291
-10.6544
-9.53439
-8.54852
-7.68012
-6.91848
-73.2036
-61.6137
-53.4087
-46.8774
-41.1106
-36.0793
-31.7184
-27.9303
-24.6352
-21.7671
-19.2686
-17.0894
-15.1862
-13.5215
-12.0632
-10.7835
-9.65887
-8.66853
-7.79533
-7.03029
-73.5613
-61.936
-53.7001
-47.1438
-41.3548
-36.3036
-31.9254
-28.1226
-24.815
-21.9363
-19.4287
-17.2418
-15.3318
-13.6611
-12.1974
-10.9128
-9.78359
-8.78882
-7.91088
-7.14269
-73.9055
-62.2533
-53.9899
-47.4093
-41.5987
-36.5281
-32.1327
-28.3152
-24.9951
-22.1059
-19.5893
-17.3945
-15.4778
-13.8012
-12.3321
-11.0426
-9.90889
-8.90969
-8.02708
-7.25598
-5.28852
-3.35854
-2.32777
-1.64081
-1.23368
-0.956061
-0.774198
-0.648576
-0.561824
-0.500073
-0.455022
-0.420571
-0.392557
-0.367796
-0.343742
-0.318228
-0.289687
-0.257567
-0.222594
-0.18655
-0.151652
-0.119872
-0.0924858
-0.0699672
-0.0521361
-0.0384135
-0.0280621
-0.0203547
-0.0146629
-0.0104822
-0.00742647
-0.00520246
-0.00359612
-0.00243825
-0.00161989
-0.00102814
-0.000637911
-0.000322058
-0.000186679
5.9661e-05
-5.41414
-3.43937
-2.39322
-1.68712
-1.26697
-0.979635
-0.790286
-0.659088
-0.568059
-0.503052
-0.455509
-0.41916
-0.389724
-0.363963
-0.339326
-0.313682
-0.285473
-0.254083
-0.22009
-0.185088
-0.151135
-0.120107
-0.0932491
-0.0710532
-0.0533797
-0.0396952
-0.0293016
-0.0215047
-0.0156972
-0.0113908
-0.00821024
-0.00586634
-0.00414911
-0.00289089
-0.00198224
-0.00131011
-0.000848303
-0.000463252
-0.000274087
4.75047e-05