/*--------------------------------*- C++ -*----------------------------------*\
  =========                 |
  \\      /  F ield         | OpenFOAM: The Open Source CFD Toolbox
   \\    /   O peration     | Website:  https://openfoam.org
    \\  /    A nd           | Version:  6.0
     \\/     M anipulation  |
\*---------------------------------------------------------------------------*/
FoamFile
{
    version     2.0;
    format      ascii;
    class       volVectorField;
    location    "5";
    object      U;
}
// * * * * * * * * * * * * * * * * * * * * * * * * * * * * * * * * * * * * * //

dimensions      [0 1 -1 0 0 0 0];

internalField   nonuniform List<vector> 
9600
(
(0.974558 -14.3273 -1.88283e-20)
(0.242199 -13.5108 -2.04528e-20)
(0.236148 -12.8014 2.82858e-21)
(0.291839 -12.1546 -1.267e-20)
(0.301209 -11.5548 5.6988e-21)
(0.306695 -10.986 -4.35323e-21)
(0.313416 -10.4414 -9.04504e-21)
(0.318338 -9.91937 8.77149e-21)
(0.321253 -9.42001 2.88145e-21)
(0.322663 -8.94387 -4.55499e-20)
(0.322924 -8.49136 2.47465e-20)
(0.32232 -8.06256 -2.14251e-20)
(0.321108 -7.65721 -9.42349e-21)
(0.319517 -7.27473 1.25877e-20)
(0.317748 -6.91425 -8.35585e-21)
(0.315947 -6.57461 -4.35285e-21)
(0.31421 -6.25438 7.64059e-21)
(0.31289 -5.95188 -9.04743e-21)
(0.312713 -5.66528 -2.30571e-21)
(0.311208 -5.39279 -4.58351e-21)
(1.53547 -14.2817 -1.98077e-19)
(0.773989 -13.5038 -1.03277e-19)
(0.7407 -12.801 5.02691e-20)
(0.771026 -12.1553 -6.42972e-20)
(0.756783 -11.5565 1.64676e-20)
(0.739783 -10.9875 -1.84546e-20)
(0.724894 -10.4421 7.56682e-20)
(0.709066 -9.91893 -2.05433e-21)
(0.692129 -9.41855 -4.70176e-20)
(0.674628 -8.94154 5.9643e-20)
(0.656942 -8.48835 2.96155e-20)
(0.639361 -8.05906 -2.1608e-21)
(0.622131 -7.65342 3.51676e-20)
(0.605453 -7.27083 -1.90624e-21)
(0.589491 -6.91043 1.35259e-20)
(0.574343 -6.57106 3.42849e-20)
(0.560045 -6.25127 1.35888e-20)
(0.546939 -5.94933 1.92341e-20)
(0.535812 -5.66325 -9.10301e-21)
(0.523753 -5.39125 1.83295e-20)
(2.09545 -14.215 3.22661e-19)
(1.3054 -13.4761 2.20094e-19)
(1.24535 -12.7807 -3.13686e-19)
(1.25056 -12.137 -1.45738e-19)
(1.2128 -11.54 1.15644e-19)
(1.17329 -10.9717 2.00706e-19)
(1.13673 -10.4262 -2.40139e-19)
(1.10006 -9.9028 5.92877e-20)
(1.06319 -9.40219 -1.10007e-19)
(1.02671 -8.92509 -7.42944e-20)
(0.991027 -8.47196 6.52403e-20)
(0.956433 -8.04289 -3.50691e-20)
(0.923163 -7.63763 -9.47595e-20)
(0.891393 -7.25556 5.05953e-20)
(0.861249 -6.89583 -1.61846e-20)
(0.832778 -6.55729 -1.85949e-21)
(0.805961 -6.23848 1.78983e-20)
(0.781125 -5.93762 3.57633e-20)
(0.759097 -5.65259 -4.28526e-20)
(0.736466 -5.38164 3.52177e-20)
(2.65198 -14.1268 -1.75919e-19)
(1.83533 -13.4278 8.26389e-20)
(1.74919 -12.7407 1.06162e-19)
(1.72963 -12.0999 1.4688e-19)
(1.66849 -11.5054 -4.80925e-20)
(1.60651 -10.9387 4.20131e-20)
(1.54823 -10.3939 -3.01348e-20)
(1.49068 -9.8711 6.70437e-20)
(1.43382 -9.37106 1.48951e-19)
(1.37832 -8.89463 -8.74614e-20)
(1.32462 -8.44231 -5.30283e-20)
(1.273 -8.01417 -5.72413e-20)
(1.2237 -7.60994 -1.98357e-20)
(1.17686 -7.22901 4.59473e-20)
(1.13257 -6.87054 -2.83463e-20)
(1.09082 -6.53337 -9.22394e-20)
(1.05155 -6.21608 7.08332e-20)
(1.01507 -5.91682 -4.53545e-20)
(0.98222 -5.63335 -4.7243e-21)
(0.949034 -5.364 -4.01416e-21)
(3.20502 -14.0171 -2.24184e-19)
(2.36347 -13.3591 -3.88899e-19)
(2.25168 -12.681 4.48381e-19)
(2.20754 -12.044 -1.24082e-19)
(2.12317 -11.4529 -3.51276e-19)
(2.03873 -10.8884 -7.98908e-21)
(1.95872 -10.3452 -1.3e-19)
(1.88025 -9.82376 -3.5957e-20)
(1.8034 -9.3251 -9.17664e-20)
(1.72887 -8.85013 2.11661e-19)
(1.65715 -8.39935 -2.86825e-19)
(1.58853 -7.97285 7.23913e-20)
(1.52323 -7.57033 -1.16706e-19)
(1.46137 -7.19117 1.55836e-19)
(1.40298 -6.83453 -1.40906e-19)
(1.34804 -6.49929 7.42076e-20)
(1.29639 -6.18404 -4.26638e-20)
(1.24837 -5.8869 1.15366e-20)
(1.20481 -5.6055 4.35965e-20)
(1.16112 -5.33833 -5.68298e-21)
(3.7535 -13.8861 5.85694e-20)
(2.88895 -13.2699 3.61196e-19)
(2.75205 -12.6017 2.30354e-19)
(2.68355 -11.9692 -1.5287e-19)
(2.57609 -11.3823 3.90738e-19)
(2.46926 -10.8209 6.24082e-20)
(2.36752 -10.2801 6.78488e-21)
(2.26813 -9.76084 -1.57097e-19)
(2.17128 -9.26437 3.3557e-20)
(2.07775 -8.79163 2.08494e-19)
(1.98805 -8.34316 -9.46449e-20)
(1.90248 -7.91901 1.76002e-19)
(1.82125 -7.51886 -4.51579e-20)
(1.74442 -7.14209 -3.73612e-20)
(1.67203 -6.78787 8.14545e-20)
(1.60397 -6.4551 8.66353e-20)
(1.54007 -6.14242 -4.67731e-20)
(1.48063 -5.84791 3.51768e-20)
(1.42649 -5.5691 -9.96711e-20)
(1.37239 -5.30467 1.23983e-19)
(4.2967 -13.7339 5.19684e-19)
(3.41109 -13.1603 -6.35734e-19)
(3.2496 -12.5028 -5.33372e-19)
(3.15697 -11.8756 5.48325e-19)
(3.02654 -11.2937 -1.86836e-19)
(2.89738 -10.7362 -2.62523e-19)
(2.77395 -10.1986 2.35816e-19)
(2.65367 -9.68237 1.17711e-20)
(2.53685 -9.18889 7.87541e-20)
(2.42437 -8.71919 -2.4663e-19)
(2.31675 -8.27378 1.20668e-19)
(2.21431 -7.85269 -9.61055e-20)
(2.11722 -7.45558 2.66862e-19)
(2.02553 -7.08183 -1.44407e-19)
(1.93923 -6.7306 9.28938e-21)
(1.85817 -6.40086 -1.88737e-20)
(1.78214 -6.09126 -1.73655e-20)
(1.71144 -5.79988 3.18416e-20)
(1.64687 -5.52417 1.97591e-20)
(1.5825 -5.26306 -2.25071e-20)
(4.83376 -13.5605 -7.55196e-19)
(3.92908 -13.0303 4.19022e-19)
(3.74357 -12.3845 8.56246e-20)
(3.62703 -11.7633 -1.15504e-20)
(3.4738 -11.1871 -8.37105e-22)
(3.3224 -10.6343 1.77504e-19)
(3.17733 -10.1008 -4.63851e-19)
(3.03621 -9.58843 -4.664e-20)
(2.89949 -9.09877 -8.89948e-20)
(2.76812 -8.63288 1.16091e-19)
(2.64268 -8.19128 7.33487e-21)
(2.52348 -7.77398 1.06162e-19)
(2.41064 -7.38059 -1.08857e-20)
(2.30421 -7.01047 -2.42927e-19)
(2.20412 -6.66282 -5.0521e-20)
(2.11019 -6.33663 2.08654e-19)
(2.02217 -6.03063 -7.65213e-20)
(1.94037 -5.74289 -1.81202e-20)
(1.86556 -5.47077 -3.6448e-21)
(1.79107 -5.21358 1.24895e-20)
(5.36389 -13.3663 4.79887e-19)
(4.44214 -12.8802 -4.64681e-19)
(4.23321 -12.2467 -6.64621e-19)
(4.09301 -11.6324 -8.75539e-20)
(3.91715 -11.0627 -2.72531e-19)
(3.74361 -10.5155 -8.6838e-20)
(3.57697 -9.98683 -2.54105e-19)
(3.41509 -9.47911 4.46714e-19)
(3.25857 -8.99407 -1.87595e-19)
(3.10843 -8.53279 -8.80889e-20)
(2.96528 -8.09577 -3.33389e-20)
(2.82943 -7.68297 1.18643e-19)
(2.70099 -7.29396 -1.15126e-21)
(2.57994 -6.9281 -3.5851e-20)
(2.4662 -6.5846 -7.60854e-20)
(2.35955 -6.26252 -8.91828e-20)
(2.2597 -5.96063 1.26851e-19)
(2.16699 -5.67701 4.89745e-20)
(2.08215 -5.40898 -2.17591e-19)
(1.99775 -5.15629 1.75745e-20)
(5.88628 -13.1515 -4.7967e-19)
(4.9495 -12.71 1.06872e-18)
(4.71776 -12.0896 -7.79719e-19)
(4.55417 -11.483 4.76413e-19)
(4.35586 -10.9206 5.80487e-19)
(4.16031 -10.3796 -1.95869e-19)
(3.97221 -9.85673 9.97965e-21)
(3.78967 -9.35452 5.01314e-20)
(3.61346 -8.87493 1.82707e-19)
(3.44468 -8.41905 -1.82214e-19)
(3.28398 -7.98735 -1.05352e-19)
(3.13164 -7.57976 1.17327e-19)
(2.98774 -7.19581 -3.3162e-21)
(2.85224 -6.83484 1.76019e-20)
(2.725 -6.49607 1.93059e-19)
(2.60578 -6.17862 -9.77312e-20)
(2.49428 -5.88134 1.77942e-20)
(2.39086 -5.60233 -1.10646e-19)
(2.2962 -5.33889 2.91511e-19)
(2.20211 -5.09128 1.53092e-19)
(6.40014 -12.9163 6.98589e-19)
(5.45037 -12.52 1.40557e-19)
(5.19647 -11.9134 2.97772e-19)
(5.00976 -11.3151 -3.16002e-19)
(4.78921 -10.7609 8.23868e-20)
(4.57179 -10.227 6.01142e-19)
(4.36236 -9.71067 -8.76974e-20)
(4.1593 -9.2148 4.09879e-19)
(3.96355 -8.74147 -2.57782e-19)
(3.7763 -8.29178 1.51914e-19)
(3.59821 -7.86616 3.24121e-19)
(3.42955 -7.46449 -9.83829e-20)
(3.27037 -7.08627 1.5028e-19)
(3.12058 -6.73081 -4.14117e-20)
(2.98002 -6.39735 -1.91883e-19)
(2.84841 -6.08505 2.66835e-19)
(2.72543 -5.79288 -7.0402e-20)
(2.6115 -5.51896 2.52272e-19)
(2.50726 -5.2606 2.57067e-20)
(2.40375 -5.01866 -3.60401e-19)
(6.90469 -12.6612 -2.09612e-18)
(5.944 -12.3103 3.45509e-19)
(5.66858 -11.7183 -2.5817e-19)
(5.45905 -11.1291 -7.97089e-19)
(5.21648 -10.5837 -1.34212e-19)
(4.97737 -10.0578 -1.48647e-19)
(4.74676 -9.5488 -5.10322e-20)
(4.52334 -9.0601 -2.8659e-19)
(4.30823 -8.59384 -1.48282e-19)
(4.10269 -8.15112 -2.98794e-20)
(3.9074 -7.73233 -8.43655e-20)
(3.72263 -7.3373 1.35848e-19)
(3.54836 -6.96547 8.07767e-20)
(3.38448 -6.61614 -4.25525e-19)
(3.23077 -6.28855 1.73028e-19)
(3.08694 -5.98194 -1.82918e-19)
(2.95267 -5.69537 -1.10045e-19)
(2.82843 -5.42702 9.55337e-20)
(2.71484 -5.17421 4.97614e-20)
(2.60222 -4.93853 -9.87703e-20)
(7.39921 -12.3863 2.66482e-18)
(6.42965 -12.0813 1.19201e-18)
(6.13336 -11.5044 5.43191e-19)
(5.90131 -10.925 5.2625e-19)
(5.63695 -10.3892 -2.35552e-19)
(5.37634 -9.87207 1.25342e-18)
(5.12474 -9.37129 -5.41578e-19)
(4.88115 -8.8906 1.01164e-18)
(4.64688 -8.43222 -3.77998e-19)
(4.42327 -7.99725 6.71183e-19)
(4.21101 -7.58603 3.04221e-19)
(4.01034 -7.19833 1.78039e-19)
(3.8212 -6.83355 -4.35599e-19)
(3.64341 -6.49096 3.71623e-19)
(3.47674 -6.16982 -8.46814e-20)
(3.32087 -5.86943 2.73545e-19)
(3.1755 -5.58896 7.11802e-20)
(3.04117 -5.32664 3.05315e-19)
(2.91849 -5.07986 -6.97244e-20)
(2.79709 -4.85102 -4.76106e-21)
(7.88298 -12.0922 -1.37473e-18)
(6.90659 -11.8333 6.83007e-19)
(6.59006 -11.272 1.18273e-19)
(6.33582 -10.7032 -9.34527e-19)
(6.04992 -10.1777 -4.97566e-20)
(5.76803 -9.67012 -7.72026e-22)
(5.49565 -9.17837 1.89869e-19)
(5.23212 -8.7065 -2.56237e-19)
(4.97892 -8.2568 9.59842e-20)
(4.73748 -7.83034 1.13314e-19)
(4.5085 -7.42741 -1.85497e-19)
(4.29215 -7.04772 -1.26296e-19)
(4.08836 -6.69065 6.83658e-20)
(3.89688 -6.35541 -1.15751e-19)
(3.71743 -6.04129 3.5783e-19)
(3.54969 -5.74764 -3.73881e-19)
(3.39338 -5.47376 -2.26873e-19)
(3.24915 -5.21795 3.25954e-19)
(3.11765 -4.97769 -1.23236e-19)
(2.98784 -4.75637 -1.60028e-19)
(8.35534 -11.7792 -7.03721e-19)
(7.37409 -11.5664 -7.63004e-19)
(7.03796 -11.0213 -1.8954e-19)
(6.76185 -10.4637 9.5924e-19)
(6.45469 -9.94937 -4.20126e-19)
(6.15177 -9.45216 3.09922e-20)
(5.85885 -8.97027 -1.02673e-18)
(5.57563 -8.50803 1.5785e-19)
(5.30378 -8.0678 -2.20104e-19)
(5.04478 -7.65059 1.83143e-19)
(4.79932 -7.25665 -4.14188e-19)
(4.56756 -6.88565 1.78153e-19)
(4.34934 -6.5369 -2.48725e-19)
(4.14437 -6.2096 1.5167e-19)
(3.95231 -5.90304 9.32115e-20)
(3.77283 -5.61665 -9.82498e-20)
(3.60572 -5.34984 -4.03869e-19)
(3.45173 -5.10101 2.2284e-19)
(3.31156 -4.86781 -9.25184e-20)
(3.17364 -4.65473 3.8633e-20)
(8.81566 -11.4477 2.58105e-18)
(7.83146 -11.281 -4.97127e-19)
(7.4763 -10.7527 -6.65073e-19)
(7.17869 -10.207 2.75479e-19)
(6.85058 -9.70451 3.71183e-19)
(6.52689 -9.21845 -5.25411e-19)
(6.21371 -8.74724 3.38178e-19)
(5.91109 -8.29543 -4.54893e-19)
(5.62088 -7.86543 5.57928e-19)
(5.34462 -7.4582 -5.77168e-19)
(5.08299 -7.07394 2.56586e-19)
(4.8361 -6.71226 -4.60339e-20)
(4.6037 -6.37244 -4.0534e-20)
(4.38543 -6.05365 -2.7044e-19)
(4.18093 -5.75517 4.19162e-19)
(3.98983 -5.47652 -8.14055e-21)
(3.81196 -5.21721 -3.17161e-20)
(3.64823 -4.97581 -8.05469e-21)
(3.49939 -4.75019 -1.45152e-20)
(3.35349 -4.54584 -1.17617e-19)
(9.26354 -11.0983 -2.12593e-18)
(8.2781 -10.9776 -3.08966e-19)
(7.90438 -10.4664 -3.80563e-19)
(7.58562 -9.93327 -2.07846e-18)
(7.2369 -9.44337 -1.04732e-18)
(6.89274 -8.96927 1.19811e-18)
(6.55959 -8.50954 -4.1433e-19)
(6.23791 -8.06896 2.08541e-19)
(5.92968 -7.64994 3.05622e-19)
(5.6365 -7.25339 7.88746e-20)
(5.35902 -6.87947 1.91956e-19)
(5.09728 -6.52773 -9.19595e-20)
(4.85097 -6.19741 2.45876e-19)
(4.61966 -5.88767 -2.12836e-19)
(4.40291 -5.5978 7.2061e-20)
(4.20032 -5.32736 -5.32856e-19)
(4.01177 -5.07604 3.47026e-19)
(3.83832 -4.84253 2.15924e-19)
(3.68084 -4.62484 2.33662e-19)
(3.52732 -4.4292 -4.88747e-20)
(9.699 -10.7318 9.66611e-19)
(8.71366 -10.6565 7.75018e-19)
(8.32157 -10.1628 6.12305e-19)
(7.98192 -9.6428 1.83374e-18)
(7.61293 -9.16624 -1.67019e-18)
(7.24864 -8.7049 4.35032e-19)
(6.89588 -8.25747 -3.53119e-21)
(6.5555 -7.82891 -4.20395e-19)
(6.22963 -7.42159 4.10596e-19)
(5.9199 -7.03641 -1.0944e-19)
(5.62692 -6.67343 -1.21457e-19)
(5.35065 -6.33218 -5.51725e-20)
(5.09069 -6.01188 1.27133e-19)
(4.84654 -5.7117 3.83611e-21)
(4.61768 -5.43092 -2.00728e-19)
(4.40372 -5.16924 -2.30678e-19)
(4.20462 -4.92647 -3.13402e-19)
(4.02167 -4.70135 1.63327e-19)
(3.85603 -4.49205 -2.08277e-19)
(3.69597 -4.30638 5.08732e-20)
(10.1223 -10.349 -1.32542e-19)
(9.13795 -10.3178 -1.66842e-18)
(8.72732 -9.84181 -1.51061e-19)
(8.36691 -9.33587 -2.69176e-20)
(7.978 -8.8735 3.11072e-19)
(7.59397 -8.42577 1.02026e-18)
(7.22201 -7.99147 -2.93692e-19)
(6.86336 -7.57568 -4.33302e-19)
(6.5203 -7.18078 4.47835e-20)
(6.19445 -6.80757 1.79983e-19)
(5.88636 -6.45608 -1.54753e-19)
(5.59588 -6.12578 -1.62619e-19)
(5.32252 -5.81591 -3.43111e-20)
(5.06561 -5.52559 1.45151e-19)
(4.82454 -5.25424 -6.04537e-19)
(4.59889 -5.00163 2.84235e-19)
(4.38882 -4.76766 9.62926e-20)
(4.19597 -4.55119 -1.20123e-19)
(4.0217 -4.35182 1.2847e-19)
(3.85506 -4.18172 1.93431e-19)
(10.5321 -9.94852 6.80442e-19)
(9.55005 -9.96072 1.6159e-18)
(9.12095 -9.50372 2.27777e-19)
(8.73995 -9.01301 -1.35238e-19)
(8.33155 -8.56577 9.80771e-19)
(7.92825 -8.1325 -2.63507e-19)
(7.53756 -7.7121 -3.02407e-19)
(7.16112 -7.30982 7.54054e-19)
(6.80136 -6.92798 -4.56728e-19)
(6.45988 -6.56733 2.1015e-19)
(6.13717 -6.2278 -3.33899e-20)
(5.83295 -5.90885 -5.18736e-20)
(5.54654 -5.60963 -2.11705e-19)
(5.2771 -5.3293 2.60431e-19)
(5.02375 -5.06726 -6.13025e-19)
(4.78584 -4.8233 2.86974e-19)
(4.56341 -4.59725 -8.20304e-20)
(4.35773 -4.38873 -1.82579e-20)
(4.16881 -4.2014 2.47316e-19)
(3.98884 -4.05126 -4.10214e-19)
(14.6184 0.417305 1.18408e-19)
(14.6143 -0.159075 -3.84924e-20)
(14.5876 -0.733435 -2.03194e-19)
(14.5395 -1.30535 5.48924e-19)
(14.4697 -1.8743 -6.12141e-19)
(14.378 -2.43953 -2.77043e-19)
(14.2642 -3.00027 2.16122e-19)
(14.1287 -3.55571 3.02199e-19)
(13.9716 -4.10507 -2.27982e-19)
(13.7932 -4.64755 2.30549e-19)
(13.5938 -5.18235 -2.95965e-21)
(13.3739 -5.70868 1.34088e-20)
(13.1336 -6.22577 -1.64043e-19)
(12.8735 -6.73287 7.17748e-19)
(12.594 -7.22925 -7.23044e-19)
(12.2955 -7.71418 5.06887e-19)
(11.9785 -8.18708 -7.06131e-19)
(11.6439 -8.6472 1.70874e-18)
(11.2912 -9.09463 -1.31017e-19)
(10.9237 -9.52753 5.50769e-20)
(14.0521 -0.294019 -2.2515e-20)
(14.0194 -0.846076 -1.26337e-19)
(13.9643 -1.395 2.42265e-19)
(13.8875 -1.94027 3.91095e-19)
(13.7892 -2.48141 -1.0151e-19)
(13.6696 -3.01767 -5.23642e-19)
(13.5288 -3.54825 9.50112e-19)
(13.3671 -4.07233 -1.94008e-19)
(13.1848 -4.58912 -1.09525e-18)
(12.9824 -5.09785 5.34829e-19)
(12.7603 -5.59774 1.89024e-19)
(12.5188 -6.08805 1.00192e-18)
(12.2584 -6.56806 -1.90673e-18)
(11.9795 -7.03705 1.26099e-20)
(11.6828 -7.49437 4.82681e-19)
(11.3686 -7.93937 7.73583e-19)
(11.0375 -8.37151 3.57179e-19)
(10.6902 -8.79019 -4.79077e-19)
(10.3264 -9.19512 -1.08974e-18)
(9.9471 -9.58537 1.07724e-18)
(13.4427 -0.287228 7.09868e-20)
(13.4138 -0.813459 -8.51464e-20)
(13.3632 -1.33739 5.43018e-20)
(13.2911 -1.85823 -1.75019e-19)
(13.1979 -2.3753 2.17325e-19)
(13.0838 -2.8878 5.40721e-19)
(12.949 -3.39489 -5.76739e-19)
(12.794 -3.89574 9.19576e-20)
(12.619 -4.38955 3.82178e-19)
(12.4244 -4.87552 8.04863e-19)
(12.2107 -5.35291 -1.85802e-19)
(11.9782 -5.82098 1.34793e-18)
(11.7275 -6.279 6.59281e-20)
(11.4589 -6.72628 -1.46275e-18)
(11.1731 -7.16218 -1.9719e-19)
(10.8705 -7.58603 3.18472e-19)
(10.5516 -7.99728 -8.17433e-19)
(10.2168 -8.39527 -3.80092e-19)
(9.86655 -8.77956 -7.21719e-19)
(9.50121 -9.14918 7.68678e-19)
(12.7928 -0.224622 2.25949e-20)
(12.7706 -0.723877 5.26575e-20)
(12.7278 -1.22164 2.11237e-20)
(12.6642 -1.71701 -4.92502e-19)
(12.5803 -2.20914 3.0266e-19)
(12.4762 -2.69722 -8.96026e-20)
(12.3522 -3.18042 2.80228e-19)
(12.2086 -3.65792 -1.24718e-20)
(12.0456 -4.12893 -5.86818e-19)
(11.8638 -4.59268 1.35338e-20)
(11.6635 -5.04841 -3.34163e-19)
(11.445 -5.49539 8.50357e-20)
(11.2088 -5.93291 -1.72593e-18)
(10.9554 -6.36027 8.70962e-19)
(10.6853 -6.77681 -7.92445e-19)
(10.3988 -7.18189 -1.54815e-19)
(10.0967 -7.57489 -2.00323e-18)
(9.77918 -7.95514 1.97889e-18)
(9.4469 -8.32211 -9.38084e-19)
(9.10026 -8.67488 -5.91999e-19)
(12.1383 -0.212551 6.3258e-21)
(12.1205 -0.684918 -8.71527e-20)
(12.0831 -1.15626 1.27757e-19)
(12.026 -1.62568 1.58466e-19)
(11.9495 -2.09232 -1.86242e-19)
(11.8537 -2.55538 5.99299e-19)
(11.7389 -3.01407 3.729e-19)
(11.6053 -3.46759 -1.1979e-19)
(11.4532 -3.91518 -1.28132e-19)
(11.283 -4.35608 3.97658e-19)
(11.0951 -4.78956 6.93192e-19)
(10.8897 -5.21489 2.74871e-19)
(10.6672 -5.63138 1.73905e-19)
(10.4283 -6.03835 -4.71877e-19)
(10.1732 -6.43513 -1.11744e-18)
(9.90245 -6.82106 1.21731e-18)
(9.61657 -7.19553 1.27895e-18)
(9.316 -7.55786 -9.0689e-19)
(9.00133 -7.9075 3.17331e-19)
(8.67292 -8.24362 -8.00474e-20)
(11.4997 -0.205972 1.4964e-20)
(11.4851 -0.652211 -2.05184e-20)
(11.4521 -1.09772 -1.06252e-19)
(11.4005 -1.54168 4.5957e-20)
(11.3304 -1.98326 1.14057e-21)
(11.242 -2.42168 2.63063e-20)
(11.1356 -2.85619 -2.84132e-19)
(11.0113 -3.28604 2.115e-19)
(10.8694 -3.71049 -4.29637e-19)
(10.7103 -4.1288 4.48636e-19)
(10.5341 -4.54028 -2.76988e-20)
(10.3413 -4.94422 -4.21035e-19)
(10.1323 -5.33995 1.59323e-19)
(9.90748 -5.72681 1.30201e-18)
(9.66719 -6.10413 7.47147e-19)
(9.41195 -6.47128 -5.3962e-19)
(9.14223 -6.82764 -7.85786e-19)
(8.85847 -7.17254 3.96782e-19)
(8.56126 -7.50546 -2.6158e-19)
(8.25092 -7.82557 8.17288e-19)
(10.889 -0.19821 -1.0306e-20)
(10.8768 -0.619523 4.84709e-20)
(10.8472 -1.04032 3.30463e-20)
(10.8001 -1.45983 -4.08033e-20)
(10.7356 -1.8773 1.58274e-19)
(10.6537 -2.29197 -4.48055e-19)
(10.5547 -2.70312 2.56706e-19)
(10.4388 -3.11004 -1.91548e-19)
(10.3063 -3.51204 1.59327e-21)
(10.1573 -3.90842 -2.98806e-19)
(9.99215 -4.29849 4.54749e-19)
(9.81122 -4.68161 1.14245e-18)
(9.61484 -5.05713 -1.27566e-18)
(9.40337 -5.42438 -1.98666e-20)
(9.17725 -5.78276 -1.18863e-18)
(8.93687 -6.13164 3.47529e-19)
(8.68268 -6.47041 -3.84492e-19)
(8.41516 -6.79843 -2.26472e-21)
(8.13485 -7.11516 8.82087e-19)
(7.84206 -7.41985 -1.38809e-20)
(10.3127 -0.191496 -4.72763e-21)
(10.3021 -0.589334 3.26984e-20)
(10.275 -0.986794 1.13203e-20)
(10.2315 -1.38317 -1.83975e-19)
(10.1714 -1.77773 1.97275e-19)
(10.0951 -2.16979 -1.73491e-19)
(10.0025 -2.55866 5.01492e-19)
(9.89397 -2.94366 -5.10777e-20)
(9.76964 -3.32415 -2.7181e-19)
(9.62975 -3.69945 5.31182e-20)
(9.47458 -4.06895 -9.55594e-20)
(9.30442 -4.432 -2.7561e-19)
(9.1196 -4.78799 -4.04075e-19)
(8.92047 -5.13631 -2.68167e-19)
(8.70743 -5.47637 -2.90253e-19)
(8.48088 -5.80756 -3.3385e-19)
(8.24126 -6.12931 -2.79586e-19)
(7.98897 -6.44097 -4.26257e-19)
(7.72458 -6.74205 5.45223e-20)
(7.44838 -7.03178 2.36075e-20)
(9.77283 -0.185692 3.42086e-21)
(9.76313 -0.561576 4.28079e-21)
(9.73793 -0.937169 -2.62185e-21)
(9.69716 -1.31181 -4.96246e-20)
(9.64084 -1.68482 -1.15702e-19)
(9.5691 -2.05555 -7.15207e-20)
(9.48207 -2.42335 -3.49068e-19)
(9.37993 -2.78759 3.24691e-19)
(9.26284 -3.14765 -1.88701e-19)
(9.13103 -3.50292 4.14275e-19)
(8.98475 -3.8528 -8.32926e-20)
(8.82429 -4.1967 7.08144e-19)
(8.64993 -4.53403 3.48826e-20)
(8.46204 -4.86423 9.58197e-19)
(8.26097 -5.18673 -6.56814e-19)
(8.04711 -5.50095 4.67599e-19)
(7.82091 -5.80634 7.18037e-19)
(7.58276 -6.10231 4.16734e-19)
(7.33319 -6.38832 4.45625e-19)
(7.07248 -6.66367 -6.4228e-19)
(9.26879 -0.180249 -2.89728e-20)
(9.2596 -0.535662 1.1541e-22)
(9.23577 -0.890831 1.04584e-19)
(9.19723 -1.24514 -9.81379e-20)
(9.14401 -1.59796 6.0013e-20)
(9.07622 -1.94866 2.32151e-19)
(8.99398 -2.29666 -7.31224e-20)
(8.89743 -2.64135 -7.20256e-20)
(8.78675 -2.98215 -9.60209e-20)
(8.66214 -3.3185 1.59331e-19)
(8.52384 -3.64982 -2.35397e-19)
(8.3721 -3.97556 -5.41963e-20)
(8.20722 -4.29519 -4.35175e-19)
(8.02952 -4.60817 1.17694e-19)
(7.83936 -4.91397 2.08602e-19)
(7.63713 -5.21204 1.48827e-19)
(7.42325 -5.50187 -2.87678e-19)
(7.19812 -5.78287 1.01548e-19)
(6.96227 -6.05453 -4.35524e-19)
(6.71596 -6.31615 5.12919e-20)
(8.79853 -0.174926 2.89376e-20)
(8.7896 -0.511255 7.79223e-20)
(8.76681 -0.847368 -1.73027e-19)
(8.73012 -1.18268 -1.34528e-19)
(8.67955 -1.51661 -6.8327e-20)
(8.61519 -1.84857 -1.8891e-19)
(8.53716 -2.178 1.35328e-19)
(8.44559 -2.50433 1.7221e-19)
(8.34064 -2.82704 -3.66234e-19)
(8.2225 -3.14557 1.76889e-19)
(8.09139 -3.4594 1.85895e-19)
(7.94755 -3.76802 2.35234e-19)
(7.79127 -4.07093 -3.28819e-19)
(7.62285 -4.36764 4.53675e-19)
(7.44265 -4.65764 -4.12773e-19)
(7.25104 -4.94044 -7.63563e-20)
(7.04846 -5.21554 -1.2405e-19)
(6.83532 -5.48239 5.36909e-19)
(6.61215 -5.74047 4.12761e-19)
(6.37922 -5.98909 -1.71841e-19)
(8.35943 -0.169625 -2.43654e-20)
(8.35061 -0.488145 1.39006e-20)
(8.32867 -0.806462 1.07988e-19)
(8.29356 -1.12403 1.47535e-20)
(8.24531 -1.44029 1.55414e-19)
(8.18401 -1.7547 1.28216e-19)
(8.10976 -2.06674 -1.08606e-19)
(8.02267 -2.37586 -1.54911e-19)
(7.92291 -2.68158 1.31173e-19)
(7.81064 -2.98337 9.80425e-20)
(7.68607 -3.28076 -1.05683e-19)
(7.54943 -3.57327 4.32306e-19)
(7.401 -3.86043 -6.49874e-19)
(7.24106 -4.14179 1.49934e-19)
(7.06997 -4.4169 1.85007e-19)
(6.8881 -4.68532 -3.15858e-19)
(6.69591 -4.94655 -6.42042e-19)
(6.4938 -5.2001 2.10597e-19)
(6.28236 -5.44544 1.36513e-19)
(6.06186 -5.68185 2.8733e-20)
(7.94873 -0.164301 -9.68778e-21)
(7.93996 -0.466172 8.53021e-21)
(7.91876 -0.767847 -4.85747e-20)
(7.88507 -1.06881 -2.9489e-20)
(7.83892 -1.36853 -8.57622e-21)
(7.7804 -1.66651 -1.14383e-19)
(7.70959 -1.96224 3.04183e-19)
(7.62661 -2.25523 1.43839e-20)
(7.5316 -2.545 -1.67305e-21)
(7.42472 -2.83109 -2.7016e-19)
(7.30616 -3.11302 1.64572e-19)
(7.17614 -3.39038 -1.51521e-19)
(7.03492 -3.66273 2.85017e-19)
(6.88278 -3.92966 -4.25645e-19)
(6.72007 -4.19076 -1.24096e-20)
(6.54715 -4.44566 -2.51081e-19)
(6.36451 -4.69389 5.12476e-19)
(6.17257 -4.93502 -1.29613e-19)
(5.972 -5.16846 -3.45773e-20)
(5.76309 -5.39354 -1.69856e-19)
(7.56386 -0.158951 3.01487e-20)
(7.55514 -0.445228 -2.34243e-21)
(7.53461 -0.731311 6.04797e-20)
(7.50224 -1.01671 -6.36738e-20)
(7.45804 -1.30094 7.59297e-20)
(7.4021 -1.58351 -4.43428e-20)
(7.3345 -1.86396 -1.65697e-19)
(7.25534 -2.14181 7.03614e-20)
(7.16474 -2.41661 6.04634e-20)
(7.06286 -2.68794 -8.14151e-20)
(6.94988 -2.95536 -1.56311e-19)
(6.826 -3.21847 -8.40042e-21)
(6.69145 -3.47689 -2.73558e-19)
(6.54652 -3.73026 3.03821e-19)
(6.39154 -3.9782 1.5823e-19)
(6.22686 -4.22042 5.912e-19)
(6.05302 -4.45648 -8.47178e-19)
(5.87045 -4.68609 2.1996e-19)
(5.67999 -4.90852 5.5596e-19)
(5.48187 -5.12323 4.3506e-19)
(7.20251 -0.153606 -2.20888e-20)
(7.19388 -0.425247 1.66337e-20)
(7.17403 -0.696701 -2.18672e-20)
(7.14292 -0.967503 -1.29221e-19)
(7.10059 -1.23719 1.31378e-19)
(7.0471 -1.5053 4.64071e-20)
(6.98252 -1.7714 1.10825e-20)
(6.90694 -2.03503 1.29626e-19)
(6.82049 -2.29579 -2.93935e-19)
(6.72331 -2.55326 2.3642e-19)
(6.61555 -2.80705 -2.50645e-20)
(6.49741 -3.05678 3.84087e-19)
(6.3691 -3.30211 -4.81303e-19)
(6.23087 -3.54273 7.50941e-22)
(6.08305 -3.77832 -2.68842e-19)
(5.926 -4.00868 3.13588e-20)
(5.76027 -4.23337 4.74968e-19)
(5.58628 -4.45237 -3.94447e-19)
(5.40523 -4.66472 -1.01604e-19)
(5.21711 -4.8702 -6.96841e-19)
(6.86279 -0.148335 6.14421e-21)
(6.85431 -0.406214 7.62727e-22)
(6.83516 -0.663915 -4.68632e-20)
(6.80532 -0.920997 2.04534e-20)
(6.7648 -1.17702 4.12891e-20)
(6.71365 -1.43155 5.94212e-20)
(6.65196 -1.68417 -2.30969e-20)
(6.57981 -1.93446 5.66981e-20)
(6.4973 -2.18203 -1.03073e-19)
(6.40457 -2.42649 7.406e-20)
(6.30176 -2.66748 -5.27796e-20)
(6.18903 -2.90466 -2.76899e-20)
(6.06659 -3.1377 -4.96388e-20)
(5.93466 -3.36636 -3.79931e-20)
(5.79354 -3.59036 1.00082e-19)
(5.64354 -3.80964 -9.11162e-21)
(5.4853 -4.02375 -3.92759e-19)
(5.31914 -4.23309 -6.48205e-20)
(5.14682 -4.43624 4.14743e-19)
(4.96782 -4.63395 2.14927e-19)
(6.54318 -0.143241 7.36015e-22)
(6.53494 -0.388153 1.28859e-20)
(6.51655 -0.632902 -3.05948e-23)
(6.48797 -0.877068 4.43915e-20)
(6.44923 -1.12023 -8.83481e-20)
(6.40039 -1.36199 -9.58247e-20)
(6.34151 -1.60194 1.29908e-19)
(6.27267 -1.8397 -8.95561e-20)
(6.19397 -2.07488 -3.08853e-21)
(6.10553 -2.30713 9.81356e-20)
(6.00747 -2.53611 5.349e-21)
(5.89994 -2.7615 1.73485e-19)
(5.78311 -2.98303 -7.69265e-20)
(5.65717 -3.20048 -9.15129e-20)
(5.52238 -3.41363 -2.59078e-19)
(5.379 -3.62257 -1.91817e-20)
(5.2277 -3.82685 -2.58658e-19)
(5.06866 -4.0275 1.64678e-19)
(4.90446 -4.22228 2.45306e-19)
(4.73353 -4.41406 -1.46515e-19)
(6.24256 -0.138292 -1.17738e-20)
(6.23465 -0.37104 2.49619e-20)
(6.21706 -0.60364 4.12005e-20)
(6.18979 -0.835693 -4.69159e-20)
(6.15284 -1.0668 7.25839e-20)
(6.10629 -1.29659 -2.2816e-20)
(6.05018 -1.52467 -3.19229e-20)
(5.9846 -1.75068 -2.17115e-20)
(5.90963 -1.97427 3.46133e-22)
(5.82538 -2.19511 -5.82676e-20)
(5.73197 -2.41287 2.03053e-20)
(5.62952 -2.62726 8.16814e-20)
(5.51816 -2.83805 1.96174e-19)
(5.39804 -3.04504 3.60385e-19)
(5.26939 -3.24808 -3.66374e-20)
(5.1323 -3.44736 4.07232e-19)
(4.98751 -3.64257 -1.69204e-19)
(4.83485 -3.83555 2.39804e-19)
(4.67811 -4.02297 1.33305e-19)
(4.51363 -4.21137 -7.53833e-20)
(5.96005 -0.133263 4.58677e-21)
(5.95257 -0.354811 -1.22388e-20)
(5.93586 -0.57624 -8.86191e-20)
(5.90993 -0.797169 -7.35389e-20)
(5.87479 -1.01723 8.76677e-20)
(5.83049 -1.23605 1.31156e-19)
(5.77711 -1.45329 8.12239e-21)
(5.71471 -1.66861 -7.35167e-20)
(5.64337 -1.88166 -1.03194e-19)
(5.56319 -2.09215 1.62031e-19)
(5.47427 -2.29978 -1.08156e-20)
(5.37669 -2.50428 -3.18193e-19)
(5.27059 -2.70543 -3.22569e-19)
(5.156 -2.90306 1.2216e-19)
(5.03313 -3.09707 1.44265e-19)
(4.90184 -3.2877 -1.52193e-20)
(4.76291 -3.47484 -1.14909e-19)
(4.61529 -3.66128 -8.96139e-20)
(4.46458 -3.84322 -1.19573e-19)
(4.3028 -4.03386 1.92925e-19)
(5.69487 -0.12916 -1.39643e-20)
(5.68791 -0.340073 2.42859e-20)
(5.67219 -0.551004 1.56383e-20)
(5.64769 -0.761596 2.4122e-20)
(5.61445 -0.971501 -9.09783e-20)
(5.57248 -1.18038 -1.11614e-19)
(5.52185 -1.38792 -2.66505e-20)
(5.4626 -1.59378 1.37877e-19)
(5.39481 -1.79767 6.76866e-20)
(5.31854 -1.99929 3.29655e-20)
(5.23385 -2.19837 -1.22195e-19)
(5.14081 -2.39465 2.45238e-19)
(5.03949 -2.58792 -2.33283e-19)
(4.92985 -2.77802 -5.58943e-20)
(4.81203 -2.96485 -7.21346e-20)
(4.68557 -3.14863 -8.4278e-21)
(4.55134 -3.32936 -1.17283e-19)
(4.40643 -3.51024 1.48682e-19)
(4.25961 -3.68792 8.45417e-20)
(4.09508 -3.89 -4.36771e-19)
(10.0744 10.6674 1.12113e-18)
(10.4869 10.2594 -1.68185e-18)
(10.8817 9.83671 5.74543e-19)
(11.2599 9.40075 1.29623e-18)
(11.6208 8.9513 8.96467e-20)
(11.9635 8.48835 -8.9816e-19)
(12.2872 8.01237 -1.7767e-19)
(12.5915 7.52403 -8.54255e-19)
(12.8759 7.02405 -4.92027e-20)
(13.1401 6.51321 3.21213e-19)
(13.3835 5.9923 3.96512e-19)
(13.6059 5.46215 -6.41333e-19)
(13.8068 4.92364 3.27456e-19)
(13.986 4.37764 9.37452e-19)
(14.1434 3.82502 -1.68856e-19)
(14.2786 3.26673 -5.51134e-19)
(14.3915 2.70355 7.33446e-19)
(14.4822 2.13663 -4.51278e-19)
(14.5504 1.56608 -6.6891e-20)
(14.5967 0.994498 -4.65788e-20)
(10.1446 9.69964 5.8285e-19)
(10.5262 9.29891 -1.70596e-18)
(10.8897 8.88361 -9.88457e-19)
(11.2359 8.45469 4.32653e-19)
(11.5643 8.01237 -1.07568e-18)
(11.8745 7.55702 6.15928e-19)
(12.1659 7.08926 1.30236e-19)
(12.4379 6.6099 -8.83763e-19)
(12.6901 6.1197 3.21791e-19)
(12.9221 5.61949 2.21593e-19)
(13.1334 5.11011 7.66353e-19)
(13.3237 4.59241 -6.57124e-19)
(13.4927 4.0673 -3.41831e-19)
(13.64 3.53568 7.42657e-19)
(13.7656 2.99846 -4.30882e-19)
(13.8691 2.45658 7.7685e-20)
(13.9505 1.91087 -2.70342e-19)
(14.0098 1.36235 -4.11333e-21)
(14.0466 0.811475 -1.34272e-19)
(14.0611 0.259493 3.72417e-20)
(9.65259 9.1788 1.23468e-19)
(10.0189 8.80585 1.65301e-19)
(10.3691 8.41806 1.3995e-18)
(10.7028 8.01603 -4.55196e-19)
(11.0196 7.60029 1.29763e-20)
(11.3192 7.17146 8.16805e-19)
(11.6009 6.73027 -2.42757e-19)
(11.8642 6.27744 -1.11669e-18)
(12.1086 5.81382 1.28008e-18)
(12.3337 5.34017 -7.74911e-19)
(12.5391 4.85732 -3.42317e-19)
(12.7243 4.36609 -5.55124e-19)
(12.8891 3.86736 2.9038e-19)
(13.0332 3.36201 -3.21077e-19)
(13.1562 2.85091 2.39177e-19)
(13.258 2.33497 -5.02573e-19)
(13.3384 1.81504 5.31845e-19)
(13.3973 1.29204 2.212e-19)
(13.4344 0.766684 -3.85351e-20)
(13.4496 0.240038 4.70437e-20)
(9.10108 8.67896 -8.11202e-19)
(9.45089 8.33307 -6.23881e-20)
(9.78628 7.97256 2.76593e-19)
(10.1066 7.598 -6.77781e-19)
(10.4112 7.20999 1.14328e-18)
(10.6996 6.80919 3.4894e-19)
(10.9714 6.39631 -1.97857e-19)
(11.226 5.97203 -6.81692e-20)
(11.4628 5.53706 9.483e-19)
(11.6815 5.09218 3.87328e-19)
(11.8817 4.63813 7.72011e-19)
(12.0628 4.17572 -1.69892e-19)
(12.2247 3.70573 -7.91718e-20)
(12.3669 3.22903 -2.31006e-19)
(12.4891 2.74644 3.82563e-19)
(12.5913 2.25882 -1.91027e-19)
(12.673 1.76699 -1.91976e-19)
(12.7342 1.27185 7.41884e-20)
(12.7746 0.774231 -4.85657e-21)
(12.7941 0.275103 -1.19627e-20)
(8.60038 8.16151 7.71168e-19)
(8.93149 7.8385 1.15598e-19)
(9.24948 7.5016 -1.51075e-18)
(9.55352 7.15127 -4.81078e-19)
(9.843 6.78808 -2.15548e-19)
(10.1174 6.41265 -9.73215e-19)
(10.3763 6.02563 -5.34322e-19)
(10.6191 5.62763 -3.98464e-19)
(10.8453 5.21931 4.65428e-19)
(11.0546 4.80137 -1.77285e-19)
(11.2465 4.37454 3.01305e-19)
(11.4205 3.93955 4.37608e-20)
(11.5764 3.49716 7.32519e-20)
(11.7139 3.04813 -7.45365e-19)
(11.8325 2.59326 -1.35973e-19)
(11.9322 2.13337 7.79737e-20)
(12.0126 1.66925 -4.12676e-20)
(12.0735 1.20174 6.6846e-20)
(12.1149 0.731682 -8.1124e-20)
(12.1365 0.259948 1.11558e-20)
(8.13202 7.67247 -1.48488e-19)
(8.44457 7.36978 1.27299e-20)
(8.74495 7.054 6.12629e-19)
(9.03238 6.72553 -1.35563e-19)
(9.30626 6.38485 3.7705e-19)
(9.56607 6.03256 -1.24228e-18)
(9.81135 5.66922 8.46216e-19)
(10.0416 5.29543 -1.53423e-19)
(10.2564 4.91179 -1.44724e-20)
(10.4554 4.51894 1.69178e-19)
(10.638 4.11757 3.3644e-19)
(10.8039 3.70835 -5.79503e-19)
(10.9528 3.29198 2.95273e-19)
(11.0844 2.8692 4.37542e-19)
(11.1983 2.44075 2.27873e-20)
(11.2944 2.00737 -1.75987e-19)
(11.3723 1.56983 -1.2505e-20)
(11.432 1.12893 -3.74257e-20)
(11.4732 0.685448 9.22076e-21)
(11.4957 0.240192 -7.20247e-21)
(7.69565 7.22057 2.56403e-19)
(7.99043 6.93612 1.58712e-19)
(8.27384 6.63937 9.94069e-20)
(8.54515 6.33064 -6.07157e-19)
(8.80378 6.0104 -5.58078e-19)
(9.04924 5.67916 1.26504e-18)
(9.28108 5.33746 1.27278e-19)
(9.49887 4.98586 1.16399e-19)
(9.70216 4.62491 3.89035e-19)
(9.89052 4.25521 -6.10088e-19)
(10.0636 3.87739 9.5093e-20)
(10.2211 3.4921 2.73442e-19)
(10.3626 3.09999 -1.97067e-19)
(10.4878 2.70173 -8.23497e-20)
(10.5964 2.29802 3.22864e-19)
(10.6883 1.88957 -6.54598e-21)
(10.7631 1.47709 -1.05778e-20)
(10.8208 1.06132 -3.91931e-20)
(10.8611 0.643006 6.50775e-21)
(10.8838 0.22289 3.83304e-20)