/*--------------------------------*- C++ -*----------------------------------*\
  =========                 |
  \\      /  F ield         | OpenFOAM: The Open Source CFD Toolbox
   \\    /   O peration     | Website:  https://openfoam.org
    \\  /    A nd           | Version:  6.0
     \\/     M anipulation  |
\*---------------------------------------------------------------------------*/
FoamFile
{
    version     2.0;
    format      ascii;
    class       volScalarField;
    location    "5.75";
    object      p;
}
// * * * * * * * * * * * * * * * * * * * * * * * * * * * * * * * * * * * * * //

dimensions      [0 2 -2 0 0 0 0];

internalField   nonuniform List<scalar> 
2400
(
-0.414672
-0.40142
-0.393283
-0.386693
-0.380129
-0.373635
-0.367328
-0.361194
-0.355328
-0.350905
-0.43048
-0.415951
-0.406575
-0.398667
-0.390743
-0.382942
-0.375443
-0.368236
-0.361411
-0.356598
-0.450302
-0.433945
-0.422863
-0.413229
-0.403565
-0.394101
-0.385071
-0.376456
-0.36834
-0.36302
-0.474331
-0.455594
-0.442328
-0.430546
-0.418751
-0.407254
-0.396335
-0.385939
-0.376144
-0.370142
-0.502845
-0.481109
-0.465152
-0.450797
-0.436486
-0.422591
-0.409416
-0.396834
-0.384893
-0.377941
-0.536125
-0.5107
-0.491529
-0.474189
-0.457005
-0.440376
-0.424596
-0.4094
-0.39475
-0.386419
-0.574412
-0.544545
-0.521638
-0.500938
-0.480574
-0.460939
-0.442269
-0.424084
-0.406101
-0.395693
-0.61784
-0.582739
-0.555601
-0.531219
-0.507421
-0.484551
-0.462742
-0.441181
-0.418986
-0.405193
-0.666337
-0.625243
-0.593462
-0.565175
-0.537792
-0.51152
-0.486227
-0.460382
-0.431767
-0.411419
-0.719351
-0.671753
-0.635119
-0.602955
-0.57226
-0.543177
-0.515282
-0.486209
-0.452097
-0.423373
-1.20118
-1.18481
-1.15555
-1.11574
-1.06764
-1.01346
-0.955313
-0.895141
-0.834656
-0.775465
-1.10341
-1.08872
-1.06227
-1.02623
-0.982726
-0.933855
-0.881603
-0.827776
-0.773965
-0.721559
-1.01906
-1.00821
-0.986072
-0.954641
-0.91596
-0.872058
-0.824855
-0.776125
-0.727436
-0.680082
-0.939254
-0.933481
-0.916692
-0.890659
-0.857279
-0.818471
-0.776095
-0.731912
-0.687504
-0.644172
-0.860938
-0.860504
-0.849441
-0.829245
-0.801591
-0.768203
-0.730805
-0.691083
-0.65061
-0.610684
-0.786547
-0.791064
-0.785531
-0.771159
-0.74935
-0.721568
-0.68931
-0.654058
-0.617267
-0.580144
-0.717674
-0.726388
-0.725801
-0.716876
-0.700749
-0.678609
-0.651642
-0.620979
-0.587748
-0.552867
-0.654849
-0.666945
-0.670584
-0.666553
-0.655795
-0.63926
-0.617838
-0.592143
-0.562559
-0.528954
-0.597921
-0.612726
-0.619973
-0.620369
-0.614767
-0.604029
-0.588886
-0.569477
-0.544889
-0.511487
-0.546896
-0.562992
-0.572556
-0.576269
-0.575009
-0.569745
-0.561426
-0.550474
-0.535926
-0.51122
-0.473103
-0.609608
-0.736516
-0.851585
-0.952527
-1.03752
-1.10531
-1.15525
-1.18728
-1.20207
-0.423107
-0.550412
-0.66898
-0.776501
-0.870821
-0.950236
-1.01358
-1.06027
-1.0903
-1.10425
-0.355465
-0.475343
-0.587848
-0.690635
-0.781589
-0.859
-0.921644
-0.968833
-1.00042
-1.01681
-0.284874
-0.397194
-0.503664
-0.601971
-0.690034
-0.766146
-0.829021
-0.877839
-0.912271
-0.932487
-0.220223
-0.324508
-0.424384
-0.517566
-0.602039
-0.676161
-0.738651
-0.788614
-0.825586
-0.849531
-0.164946
-0.261344
-0.354561
-0.442267
-0.522565
-0.593949
-0.655204
-0.705437
-0.744115
-0.771063
-0.119103
-0.208221
-0.295205
-0.37747
-0.453326
-0.521474
-0.580806
-0.630477
-0.669948
-0.698975
-0.0809424
-0.163056
-0.244485
-0.321727
-0.393294
-0.458128
-0.515234
-0.563841
-0.603438
-0.633763
-0.0493657
-0.124268
-0.200724
-0.273482
-0.341111
-0.402752
-0.457536
-0.504787
-0.544057
-0.575103
-0.0320954
-0.102112
-0.173645
-0.241052
-0.30362
-0.360792
-0.41183
-0.456213
-0.493611
-0.523838
0.520666
0.541598
0.56395
0.586836
0.609771
0.632079
0.652769
0.671238
0.692917
0.731809
0.49326
0.511341
0.531125
0.551019
0.570333
0.588327
0.603931
0.616587
0.63209
0.665643
0.458349
0.472599
0.488994
0.504973
0.51959
0.532061
0.541292
0.546867
0.55503
0.58205
0.416238
0.425789
0.43806
0.449277
0.458204
0.464052
0.465747
0.463118
0.462905
0.482271
0.367318
0.371463
0.378998
0.384707
0.387079
0.385351
0.378526
0.366768
0.35735
0.368118
0.312059
0.310298
0.312648
0.312244
0.30735
0.297284
0.281178
0.259615
0.240406
0.241824
0.25102
0.243104
0.240022
0.233066
0.220381
0.201438
0.175546
0.143785
0.114466
0.105991
0.184945
0.170903
0.16236
0.148571
0.12776
0.0996388
0.0637368
0.0216841
-0.0177788
-0.03647
0.114665
0.0952563
0.0814247
0.0605145
0.0313465
-0.00604703
-0.0519168
-0.104053
-0.153412
-0.182412
0.0386435
0.016841
-0.00183391
-0.0298714
-0.0671449
-0.113515
-0.168978
-0.230674
-0.289445
-0.328762
0.380083
0.38355
0.394231
0.40278
0.409548
0.416258
0.424498
0.436633
0.455614
0.478757
0.428343
0.433165
0.445108
0.456755
0.467446
0.478348
0.490703
0.50654
0.529411
0.558863
0.466962
0.475575
0.490055
0.505152
0.519898
0.535014
0.551432
0.570836
0.597231
0.63226
0.498686
0.511381
0.528715
0.547087
0.56559
0.584626
0.604807
0.627433
0.656814
0.696526
0.52376
0.54015
0.560167
0.581441
0.603221
0.625664
0.649071
0.674341
0.705982
0.749368
0.541914
0.561379
0.583643
0.607266
0.631662
0.656788
0.682653
0.709764
0.742761
0.788693
0.552883
0.574632
0.598527
0.623786
0.649968
0.676862
0.704206
0.732153
0.76544
0.81269
0.556409
0.579517
0.604302
0.630368
0.657375
0.684966
0.712639
0.740244
0.772627
0.819896
0.552277
0.57573
0.600581
0.626548
0.653322
0.680421
0.707141
0.733099
0.763291
0.809246
0.540367
0.563097
0.587142
0.612054
0.637477
0.662824
0.687225
0.710147
0.736792
0.780038
0.335019
0.290239
0.239032
0.187264
0.13589
0.085668
0.0374413
-0.00826681
-0.0511319
-0.0909457
0.339788
0.292215
0.239211
0.184573
0.130309
0.0774804
0.0269328
-0.020697
-0.0649708
-0.105617
0.343603
0.29029
0.233643
0.176114
0.119424
0.0646318
0.0126236
-0.0359014
-0.0804661
-0.120797
0.346515
0.2881
0.227749
0.167227
0.108063
0.0513812
-0.00188825
-0.0510331
-0.0955923
-0.135344
0.348597
0.285715
0.221743
0.15824
0.0966938
0.038296
-0.0160053
-0.0655252
-0.10986
-0.14888
0.350808
0.283686
0.216168
0.149805
0.0860782
0.0261952
-0.0289224
-0.0786555
-0.122694
-0.161028
0.354796
0.283739
0.212881
0.143829
0.0780606
0.0167589
-0.0392134
-0.0893258
-0.133372
-0.171464
0.363106
0.288481
0.214456
0.142703
0.0747005
0.011601
-0.0457881
-0.0970065
-0.14192
-0.180716
0.377927
0.299102
0.220979
0.145315
0.0736278
0.00709785
-0.0534472
-0.107533
-0.155017
-0.196077
0.394492
0.308559
0.223248
0.140475
0.0618856
-0.0111861
-0.0777558
-0.137217
-0.189341
-0.234225
-0.127663
-0.161333
-0.192184
-0.220542
-0.246795
-0.271331
-0.29441
-0.315974
-0.336477
-0.346865
-0.142575
-0.175863
-0.205712
-0.232444
-0.256427
-0.277997
-0.297294
-0.314063
-0.327882
-0.332075
-0.156876
-0.188746
-0.216717
-0.241185
-0.262597
-0.281374
-0.297766
-0.311758
-0.32325
-0.328947
-0.170363
-0.200767
-0.226986
-0.249532
-0.268959
-0.285794
-0.300424
-0.313036
-0.323628
-0.330339
-0.182795
-0.211807
-0.23649
-0.257469
-0.275389
-0.290861
-0.304353
-0.316129
-0.326154
-0.333259
-0.194015
-0.221937
-0.245491
-0.265388
-0.282322
-0.296933
-0.309705
-0.3209
-0.330454
-0.337644
-0.204087
-0.231559
-0.254663
-0.274138
-0.290682
-0.304907
-0.317266
-0.327986
-0.337004
-0.3439
-0.213957
-0.241937
-0.265468
-0.285275
-0.302014
-0.316247
-0.328376
-0.3386
-0.346887
-0.353041
-0.231239
-0.260813
-0.285582
-0.306246
-0.323441
-0.337696
-0.34938
-0.358682
-0.36564
-0.370209
-0.272129
-0.303756
-0.329747
-0.350865
-0.367828
-0.381203
-0.391366
-0.398516
-0.402761
-0.40413
-0.402501
-0.372523
-0.35709
-0.348471
-0.341858
-0.33591
-0.329462
-0.319958
-0.30354
-0.2887
-0.399576
-0.373167
-0.359453
-0.351548
-0.345159
-0.339113
-0.332575
-0.32383
-0.310729
-0.301689
-0.395788
-0.372746
-0.360709
-0.353619
-0.347738
-0.342119
-0.336188
-0.328919
-0.319494
-0.314405
-0.391867
-0.371869
-0.361378
-0.355068
-0.349715
-0.344556
-0.339167
-0.332876
-0.325395
-0.321552
-0.388579
-0.37118
-0.362022
-0.356393
-0.351515
-0.346785
-0.341904
-0.336431
-0.330272
-0.326818
-0.386611
-0.371293
-0.363196
-0.358082
-0.353543
-0.349114
-0.344588
-0.339681
-0.334383
-0.330995
-0.386568
-0.372776
-0.365418
-0.360595
-0.356194
-0.351868
-0.34748
-0.342852
-0.338025
-0.334544
-0.388987
-0.376135
-0.369157
-0.364362
-0.359857
-0.355398
-0.350916
-0.3463
-0.341623
-0.337975
-0.39433
-0.381807
-0.374821
-0.369758
-0.364878
-0.360031
-0.355209
-0.350351
-0.345546
-0.341686
-0.402894
-0.39014
-0.382756
-0.377106
-0.371551
-0.366037
-0.360616
-0.355257
-0.350058
-0.345947
-0.343215
-0.290488
-0.257201
-0.207703
-0.161516
-0.114297
-0.0738736
-0.0418711
-0.0195045
-0.00544202
0.00206272
0.00496455
0.00505854
0.00389555
0.00253009
0.00146087
0.000770214
0.000391221
0.000164103
9.7906e-05
-0.351347
-0.296009
-0.263529
-0.213679
-0.166307
-0.117588
-0.075704
-0.0426478
-0.0196837
-0.00541324
0.00207324
0.00489093
0.00493125
0.0037631
0.00242033
0.00138027
0.000715296
0.000356717
0.000145135
9.63841e-05
-0.361246
-0.301885
-0.270027
-0.219838
-0.171366
-0.121342
-0.0781095
-0.0440145
-0.0203681
-0.00575625
0.00184535
0.00468039
0.00473093
0.00359323
0.0022919
0.0012907
0.000656157
0.000320243
0.000125215
9.42624e-05
-0.372686
-0.308026
-0.276486
-0.226036
-0.176599
-0.125498
-0.0810544
-0.0459469
-0.0215441
-0.00646522
0.00138076
0.00433384
0.00445873
0.00338699
0.00214561
0.00119262
0.000593055
0.000282024
0.00010443
9.1558e-05
-0.385409
-0.314434
-0.282739
-0.232158
-0.181926
-0.129995
-0.0844857
-0.0483995
-0.0231782
-0.00752003
0.000689563
0.00385597
0.004117
0.0031457
0.00198204
0.00108615
0.000525942
0.000241951
8.28005e-05
8.81824e-05
-0.399062
-0.321187
-0.288657
-0.238093
-0.18726
-0.134745
-0.0883247
-0.0513032
-0.0252182
-0.0088869
-0.000209518
0.00325624
0.00371059
0.00287197
0.00180246
0.000971804
0.00045499
0.000200043
6.04289e-05
8.40888e-05
-0.413279
-0.328597
-0.294283
-0.243828
-0.192602
-0.139744
-0.0925636
-0.0546435
-0.0276483
-0.0105532
-0.00130858
0.0025391
0.00324212
0.00256746
0.00160793
0.000850212
0.000380549
0.000156467
3.73684e-05
7.92531e-05
-0.427772
-0.337571
-0.300153
-0.249734
-0.198303
-0.145315
-0.0974763
-0.0586261
-0.0306089
-0.0126091
-0.00266383
0.0016714
0.00269398
0.0022243
0.00139586
0.000721091
0.00030303
0.000111631
1.38261e-05
7.37312e-05
-0.440136
-0.348448
-0.306789
-0.256177
-0.204602
-0.151602
-0.103141
-0.06329
-0.034123
-0.0150783
-0.00430385
0.000624021
0.00204284
0.00182745
0.00115819
0.000580741
0.000220909
6.49757e-05
-1.03742e-05
6.74151e-05
-0.439882
-0.356179
-0.31179
-0.260989
-0.209145
-0.156157
-0.107304
-0.0667933
-0.0368362
-0.0170517
-0.00567157
-0.000294373
0.00143957
0.00143851
0.000912341
0.000428782
0.000129054
1.21871e-05
-3.74355e-05
5.92941e-05
-0.41687
-0.356158
-0.313213
-0.262972
-0.210849
-0.157851
-0.108809
-0.0680432
-0.0377612
-0.0176665
-0.00605646
-0.000566353
0.0011941
0.00119352
0.000683777
0.000241029
-7.2971e-06
-7.36502e-05
-8.22786e-05
4.43093e-05
-0.400151
-0.349003
-0.305035
-0.256676
-0.206882
-0.156654
-0.109868
-0.0705514
-0.0408497
-0.0206731
-0.00858684
-0.00248226
-0.000142348
0.000317197
0.000134511
-9.17966e-05
-0.000202958
-0.000183041
-0.000136229
2.80323e-05
-0.37744
-0.33289
-0.289156
-0.244641
-0.19924
-0.153284
-0.109932
-0.0728949
-0.0442905
-0.0242769
-0.0117528
-0.00494051
-0.00187254
-0.000809399
-0.000557721
-0.000500311
-0.000436677
-0.000311225
-0.00019848
9.06786e-06
-0.342041
-0.307741
-0.267894
-0.228849
-0.189262
-0.148594
-0.109406
-0.075131
-0.0479172
-0.0282052
-0.0152698
-0.00770884
-0.00384432
-0.00210837
-0.00136535
-0.000982111
-0.00071442
-0.000464176
-0.0002724
-1.42783e-05
-0.296908
-0.275292
-0.243072
-0.21054
-0.177432
-0.142725
-0.10829
-0.077209
-0.0516765
-0.0324314
-0.019143
-0.0108118
-0.00608616
-0.00360217
-0.00230212
-0.00154406
-0.00103898
-0.000642845
-0.00035823
-4.20223e-05
-0.249806
-0.239447
-0.216742
-0.191339
-0.164671
-0.136018
-0.10659
-0.0789776
-0.0553621
-0.0367639
-0.0232327
-0.0141662
-0.00855644
-0.00527247
-0.00335993
-0.00218195
-0.00140773
-0.000845596
-0.000455148
-7.38119e-05
-0.207331
-0.20468
-0.191033
-0.172776
-0.152083
-0.129
-0.104387
-0.0802739
-0.058701
-0.0409043
-0.0272749
-0.0175741
-0.0111255
-0.00704287
-0.00449687
-0.00287358
-0.00180907
-0.00106642
-0.000560442
-0.00010869
-0.172914
-0.174665
-0.168071
-0.156148
-0.140672
-0.122304
-0.101891
-0.081006
-0.061437
-0.044526
-0.0309426
-0.0207588
-0.0135894
-0.00877845
-0.00563061
-0.00357138
-0.00221658
-0.00129121
-0.000667565
-0.000144429
-0.148157
-0.152049
-0.150068
-0.142907
-0.131507
-0.116729
-0.0995384
-0.0812495
-0.0633931
-0.0473123
-0.0338673
-0.0233698
-0.0156605
-0.0102698
-0.00662218
-0.00418956
-0.00258044
-0.00149273
-0.000763573
-0.000176753
-0.134348
-0.139071
-0.139422
-0.134949
-0.125967
-0.1133
-0.0979926
-0.0812623
-0.0644785
-0.0489481
-0.0356276
-0.024971
-0.0169533
-0.0112158
-0.00725956
-0.00459091
-0.00281813
-0.00162497
-0.0008262
-0.000198133
-0.474779
-0.488148
-0.496192
-0.499422
-0.498676
-0.495206
-0.490873
-0.488347
-0.49258
-0.515783
-0.391887
-0.405793
-0.416787
-0.425383
-0.432274
-0.438292
-0.444326
-0.451115
-0.4586
-0.472489
-0.323738
-0.337038
-0.348848
-0.359371
-0.368769
-0.377131
-0.384481
-0.390967
-0.396543
-0.406982
-0.265722
-0.277366
-0.287992
-0.297654
-0.306421
-0.314399
-0.321769
-0.328858
-0.335704
-0.344731
-0.217217
-0.227159
-0.236433
-0.245087
-0.253178
-0.260774
-0.267936
-0.274725
-0.281081
-0.287705
-0.177691
-0.186073
-0.19398
-0.201424
-0.208419
-0.214981
-0.221128
-0.226888
-0.232284
-0.237435
-0.146267
-0.153264
-0.159891
-0.166145
-0.172029
-0.177548
-0.182713
-0.187536
-0.192026
-0.196165
-0.122427
-0.128315
-0.133897
-0.139166
-0.144116
-0.148743
-0.153052
-0.157044
-0.160722
-0.164082
-0.105797
-0.110875
-0.115689
-0.120228
-0.124483
-0.128448
-0.132121
-0.135504
-0.138598
-0.141407
-0.0967448
-0.101324
-0.105664
-0.109756
-0.113592
-0.117167
-0.120478
-0.123524
-0.126305
-0.128825
-0.0433284
-0.108334
-0.171769
-0.227151
-0.277622
-0.323791
-0.364998
-0.400842
-0.431153
-0.455813
-0.0601393
-0.110413
-0.158372
-0.199234
-0.236256
-0.270703
-0.302054
-0.329873
-0.354082
-0.374721
-0.0699648
-0.110163
-0.145403
-0.175327
-0.202602
-0.228128
-0.251622
-0.272838
-0.291822
-0.308732
-0.0735648
-0.104741
-0.129543
-0.150687
-0.170642
-0.189706
-0.207539
-0.223991
-0.23911
-0.252994
-0.0715542
-0.0945971
-0.111968
-0.127042
-0.141842
-0.156338
-0.170123
-0.183066
-0.195199
-0.206574
-0.0653882
-0.0819219
-0.0944971
-0.105788
-0.117135
-0.128416
-0.139288
-0.149637
-0.159476
-0.168827
-0.057718
-0.0696294
-0.0791868
-0.0880826
-0.0970682
-0.106034
-0.114755
-0.123144
-0.131195
-0.138907
-0.0504684
-0.0593388
-0.0669793
-0.0742911
-0.0816473
-0.0889752
-0.0961429
-0.10309
-0.109796
-0.116249
-0.0447449
-0.0517822
-0.0582577
-0.0645556
-0.0708432
-0.0770823
-0.0831996
-0.0891519
-0.0949158
-0.100471
-0.0413658
-0.0475799
-0.0535454
-0.0593673
-0.0651182
-0.0707844
-0.0763261
-0.0817129
-0.0869234
-0.0919397
0.19877
0.199674
0.201983
0.205088
0.209308
0.212201
0.214136
0.203349
0.178344
0.0704224
0.190332
0.190794
0.192044
0.193414
0.194799
0.193636
0.18912
0.17009
0.132073
0.0311238
0.18029
0.180293
0.180409
0.179925
0.178415
0.173373
0.163303
0.139186
0.0964842
0.0130461
0.168525
0.168024
0.16693
0.164533
0.160155
0.151633
0.137028
0.110457
0.0668835
-0.00266182
0.155097
0.154089
0.151818
0.147629
0.140708
0.129438
0.111755
0.0845533
0.0426937
-0.0156542
0.14033
0.138865
0.13557
0.129889
0.12103
0.107936
0.0887928
0.0623224
0.0244472
-0.0235885
0.124917
0.12309
0.119033
0.1123
0.102257
0.0883038
0.0691528
0.0444914
0.0118504
-0.0269396
0.110023
0.107963
0.103458
0.0961689
0.0856776
0.0717062
0.0535485
0.0312925
0.00381178
-0.0274459
0.0973808
0.0952145
0.0905482
0.083121
0.0727104
0.0592389
0.0424362
0.0225101
-0.000865353
-0.0266999
0.0894073
0.0872163
0.0825465
0.0751838
0.0650181
0.05207
0.0362929
0.017914
-0.00304331
-0.0258614
0.2353
0.237327
0.24289
0.251535
0.265083
0.283054
0.309999
0.34472
0.397008
0.464027
0.232685
0.234637
0.240005
0.248315
0.261354
0.278492
0.304189
0.336752
0.385335
0.446082
0.229842
0.231714
0.236867
0.244803
0.257266
0.273433
0.297669
0.327535
0.371539
0.423853
0.226781
0.228573
0.233492
0.24102
0.252844
0.267911
0.290484
0.317124
0.355762
0.39745
0.223518
0.225227
0.229899
0.236989
0.248112
0.261963
0.282682
0.305584
0.338174
0.366969
0.220066
0.221696
0.226108
0.232735
0.243098
0.25563
0.274304
0.292991
0.318956
0.33248
0.216444
0.218001
0.222146
0.228295
0.237849
0.248984
0.265434
0.279486
0.298335
0.29406
0.21267
0.214172
0.218061
0.22374
0.232466
0.24218
0.256263
0.265348
0.276618
0.251705
0.208759
0.210218
0.213858
0.21907
0.226943
0.23521
0.246753
0.250567
0.253575
0.204246
0.204697
0.206042
0.209303
0.213872
0.220591
0.227069
0.235411
0.23352
0.226818
0.149976
0.247825
0.250229
0.256343
0.266029
0.28059
0.299543
0.326076
0.354987
0.393347
0.404466
0.247664
0.250078
0.256306
0.266145
0.281078
0.300648
0.328639
0.360418
0.404757
0.432232
0.247272
0.249661
0.255897
0.265719
0.280715
0.300453
0.329075
0.362684
0.410975
0.45189
0.246649
0.249013
0.255243
0.26504
0.280077
0.299965
0.329108
0.364356
0.416037
0.467714
0.245785
0.248121
0.254334
0.264091
0.279138
0.299135
0.328668
0.365284
0.419728
0.47987
0.244671
0.246975
0.253147
0.262826
0.277815
0.297811
0.327511
0.365065
0.421463
0.487957
0.243305
0.245568
0.25167
0.26123
0.276082
0.295951
0.325575
0.363587
0.421065
0.491852
0.241683
0.243898
0.249904
0.259301
0.273939
0.293546
0.322857
0.360829
0.418468
0.491477
0.239806
0.241965
0.247849
0.257039
0.271388
0.290594
0.319352
0.356771
0.413609
0.486744
0.237676
0.239773
0.245508
0.254448
0.268432
0.287094
0.315062
0.3514
0.406452
0.477596
0.205108
0.203758
0.20087
0.196257
0.189719
0.18105
0.169961
0.156286
0.139722
0.12043
0.2099
0.20874
0.206224
0.202122
0.196148
0.187977
0.177153
0.163349
0.145998
0.125171
0.217063
0.216243
0.214421
0.211315
0.206517
0.1995
0.189532
0.175926
0.157621
0.134385
0.22478
0.224424
0.223585
0.221944
0.219
0.213974
0.205832
0.193258
0.174516
0.148534
0.231879
0.232063
0.232413
0.232606
0.232129
0.229955
0.224859
0.214581
0.196701
0.16821
0.237736
0.238475
0.240101
0.242322
0.244732
0.24612
0.245306
0.238835
0.223907
0.193856
0.242135
0.243393
0.246264
0.25052
0.255972
0.261359
0.265844
0.264693
0.255285
0.225274
0.245125
0.246832
0.250831
0.256968
0.265365
0.274866
0.285269
0.290804
0.289401
0.260851
0.246901
0.248964
0.253916
0.261665
0.272686
0.286074
0.302477
0.315811
0.32477
0.298824
0.247719
0.250022
0.255704
0.264684
0.277838
0.294538
0.31657
0.338313
0.361295
0.345362
0.106547
0.100701
0.0947195
0.0887087
0.0826493
0.0765309
0.0703706
0.0641937
0.0580241
0.0518826
0.109714
0.103162
0.0964515
0.0897709
0.0830473
0.0762345
0.0693494
0.062429
0.0555059
0.0486074
0.116227
0.108167
0.0998217
0.0917095
0.0836611
0.0755264
0.067304
0.0590476
0.0508022
0.0425981
0.126782
0.116386
0.105383
0.0950144
0.0849591
0.0748509
0.0646406
0.0544097
0.0442233
0.0341117
0.142298
0.128665
0.11375
0.100147
0.0873111
0.0744933
0.0615559
0.0486298
0.0358119
0.0231269
0.163795
0.145993
0.125648
0.107639
0.0911244
0.0747416
0.0582261
0.0417978
0.0255961
0.00962786
0.192252
0.169491
0.142001
0.118238
0.0969651
0.0759437
0.0548139
0.0339488
0.0135223
-0.00649877
0.22774
0.19937
0.16311
0.132385
0.105129
0.0781462
0.0512218
0.0249271
-0.000583384
-0.0254038
0.270149
0.235139
0.189449
0.151126
0.116377
0.081814
0.0477737
0.014941
-0.0165384
-0.0466826
0.318013
0.274396
0.220762
0.173616
0.128752
0.0846734
0.0422271
0.00194396
-0.0359701
-0.0713387
0.0457891
0.0397623
0.03382
0.0279785
0.0222521
0.0166543
0.0111977
0.00589268
0.000747102
-0.00423118
0.0417586
0.0349841
0.0283074
0.0217504
0.015333
0.00907308
0.00298568
-0.00291626
-0.00862209
-0.0141026
0.0344604
0.0264137
0.0184823
0.0106884
0.0030518
-0.00440991
-0.0116816
-0.0187512
-0.0256106
-0.0321809
0.0240945
0.0141915
0.00442369
-0.00519013
-0.0146342
-0.0238956
-0.0329638
-0.0418312
-0.0505003
-0.0588469
0.0105791
-0.00182351
-0.0140688
-0.0261462
-0.0380478
-0.0497694
-0.0613118
-0.0726822
-0.0839194
-0.0950636
-0.00612982
-0.021689
-0.0370575
-0.0522501
-0.0672899
-0.0822043
-0.0970207
-0.111751
-0.126468
-0.141852
-0.0261704
-0.0455209
-0.0645691
-0.0833431
-0.101893
-0.120304
-0.138707
-0.157225
-0.176238
-0.197362
-0.049636
-0.0733586
-0.0966462
-0.11956
-0.142135
-0.16439
-0.186365
-0.208145
-0.230966
-0.257059
-0.0755206
-0.103132
-0.129696
-0.155491
-0.180867
-0.206214
-0.231879
-0.258181
-0.287285
-0.318442
-0.104034
-0.134027
-0.16148
-0.186781
-0.21058
-0.233796
-0.257508
-0.283184
-0.316455
-0.359608
-0.0159552
-0.0322404
-0.0458287
-0.0556806
-0.0612262
-0.0624074
-0.0595166
-0.0530951
-0.0440084
-0.0335215
-0.023129
-0.0141681
-0.00744006
-0.00306863
-0.000652071
0.00041984
0.000722003
0.000626546
0.000401063
5.4507e-05
-0.027353
-0.0442195
-0.057006
-0.0652873
-0.0689874
-0.0683343
-0.0637631
-0.0558605
-0.0455124
-0.0340312
-0.0229674
-0.0136701
-0.00688045
-0.00261315
-0.000354079
0.000581207
0.00079393
0.000652163
0.000408596
5.92271e-05
-0.04815
-0.0654967
-0.0763137
-0.0814763
-0.0817731
-0.077939
-0.0706064
-0.0603257
-0.0479386
-0.0348281
-0.0226629
-0.0128283
-0.00596308
-0.00188618
0.000109191
0.000825563
0.000899167
0.00068812
0.000417366
6.74112e-05
-0.0778311
-0.0945473
-0.101726
-0.101992
-0.0973629
-0.0893434
-0.078653
-0.0655573
-0.0507311
-0.0356491
-0.0221665
-0.0117296
-0.00483264
-0.00102844
0.000633404
0.00108964
0.00100563
0.000720451
0.000422151
7.63881e-05
-0.115112
-0.129172
-0.130926
-0.124316
-0.113346
-0.100562
-0.0863898
-0.0704792
-0.0532113
-0.036153
-0.0213883
-0.0104327
-0.00360177
-0.000143925
0.00114753
0.00133418
0.0010954
0.00074235
0.000420864
8.46635e-05
-0.156435
-0.165837
-0.160785
-0.145403
-0.12721
-0.109605
-0.0922046
-0.0738493
-0.0545462
-0.0358968
-0.0201815
-0.0089564
-0.00234393
0.00070103
0.00161041
0.00153928
0.00116104
0.000751841
0.000413423
9.15426e-05
-0.19605
-0.200446
-0.187743
-0.162544
-0.13731
-0.11529
-0.0950906
-0.0748394
-0.0541576
-0.0345768
-0.0184568
-0.00732219
-0.00110762
0.00146972
0.0020035
0.00169851
0.00120175
0.000749747
0.000400829
9.67751e-05
-0.229768
-0.230213
-0.209321
-0.174861
-0.143738
-0.117887
-0.0953215
-0.0736665
-0.0522148
-0.0323386
-0.0163339
-0.00560995
6.96282e-05
0.00215505
0.00233382
0.00182144
0.00122498
0.000740456
0.00038543
0.000100679
-0.259595
-0.254387
-0.225064
-0.183279
-0.147682
-0.118558
-0.0939827
-0.0712425
-0.0494136
-0.0296553
-0.014088
-0.003946
0.00115314
0.00276524
0.00262124
0.00192518
0.00124176
0.000729785
0.000370021
0.000103931
-0.29177
-0.272085
-0.235007
-0.188525
-0.149866
-0.117905
-0.0913835
-0.0675753
-0.0456052
-0.0263689
-0.0116348
-0.00233685
0.0020734
0.00321071
0.00278901
0.0019587
0.0012239
0.000704828
0.000349903
0.000104935
-0.32156
-0.278302
-0.238604
-0.191265
-0.151338
-0.116874
-0.0879152
-0.0625427
-0.0404201
-0.0221611
-0.00888834
-0.000942904
0.00252941
0.00318042
0.00259801
0.00177406
0.0010948
0.000632539
0.000314121
9.8815e-05
-0.335378
-0.279127
-0.23802
-0.189685
-0.149282
-0.113857
-0.0841384
-0.0584393
-0.0366513
-0.0192018
-0.0068966
0.000200664
0.00307443
0.00337932
0.00263426
0.00175238
0.00106215
0.000607459
0.00029839
9.7316e-05
-0.338162
-0.276993
-0.235837
-0.187006
-0.146704
-0.110864
-0.0808022
-0.0550102
-0.0335925
-0.016827
-0.00528623
0.00115994
0.00357452
0.00360345
0.00271404
0.00176624
0.0010513
0.000592801
0.00028675
9.74838e-05
-0.336822
-0.275154
-0.234739
-0.18574
-0.14539
-0.108827
-0.0781066
-0.0520053
-0.0308376
-0.0146905
-0.00386412
0.00198064
0.00398294
0.00377321
0.00276464
0.00176583
0.0010341
0.000575576
0.000274264
9.78506e-05
-0.334574
-0.274316
-0.234856
-0.185831
-0.145184
-0.10754
-0.0758405
-0.0492249
-0.028207
-0.0126455
-0.00252693
0.00272347
0.00432855
0.00389893
0.00278802
0.0017504
0.00100948
0.000555092
0.000260618
9.82177e-05
-0.332377
-0.274454
-0.236022
-0.187043
-0.145891
-0.106922
-0.0740268
-0.0467511
-0.0257885
-0.0107538
-0.00130409
0.00338272
0.00461769
0.00399018
0.00279229
0.00172518
0.000980231
0.00053259
0.000246264
9.86243e-05
-0.330969
-0.275627
-0.238271
-0.189353
-0.147496
-0.107013
-0.0727566
-0.0446966
-0.0236823
-0.00908618
-0.000235794
0.00394026
0.00484453
0.00404638
0.00277835
0.0016911
0.000946939
0.00050834
0.000231299
9.90171e-05
-0.331025
-0.277898
-0.241629
-0.192722
-0.149966
-0.107832
-0.0720885
-0.0431371
-0.0219554
-0.00768838
0.000652789
0.00438452
0.00500431
0.00406556
0.0027453
0.00164769
0.000909343
0.000482206
0.000215653
9.92842e-05
-0.332986
-0.281231
-0.246021
-0.197026
-0.153211
-0.109354
-0.0720499
-0.0421253
-0.0206591
-0.00659651
0.00134229
0.00470734
0.00509425
0.00404687
0.00269281
0.00159479
0.000867351
0.000454041
0.000199293
9.92863e-05
-0.337049
-0.285493
-0.251284
-0.202086
-0.157107
-0.11153
-0.0726482
-0.0416973
-0.0198334
-0.00584031
0.00181668
0.00490254
0.00511288
0.00399033
0.00262108
0.00153248
0.000820951
0.000423695
0.000182136
9.88553e-05
)
;

boundaryField
{
    inlet
    {
        type            freestreamPressure;
        freestreamValue uniform 0;
        supersonic      false;
        value           nonuniform List<scalar> 
40
(
0.19877
0.190332
0.18029
0.168525
0.155097
0.14033
0.124917
0.110023
0.0973808
0.0894073
0.2353
0.232685
0.229842
0.226781
0.223518
0.220066
0.216444
0.21267
0.208759
0.204697
0.247825
0.247664
0.247272
0.246649
0.245785
0.244671
0.243305
0.241683
0.239806
0.237676
0.205108
0.2099
0.217063
0.22478
0.231879
0.237736
0.242135
0.245125
0.246901
0.247719
)
;
    }
    outlet
    {
        type            freestreamPressure;
        freestreamValue uniform 0;
        supersonic      false;
        value           nonuniform List<scalar> 
40
(
6.67357e-11
3.76258e-11
1.05205e-11
-1.37647e-11
-3.18786e-11
-4.08338e-11
-3.92357e-11
-2.84427e-11
-1.33152e-11
-1.71774e-12
2.31126e-10
2.1978e-10
2.07176e-10
1.9359e-10
1.79041e-10
1.63664e-10
1.47635e-10
1.31271e-10
1.14572e-10
9.60291e-11
2.89404e-10
2.82232e-10
2.79115e-10
2.75913e-10
2.72054e-10
2.6766e-10
2.62622e-10
2.56707e-10
2.49639e-10
2.41125e-10
3.56612e-12
2.96962e-11
7.4534e-11
1.28938e-10
1.8291e-10
2.29091e-10
2.63928e-10
2.87937e-10
3.04342e-10
3.09625e-10
)
;
    }
    top
    {
        type            symmetryPlane;
    }
    bottom
    {
        type            symmetryPlane;
    }
    cylinder
    {
        type            zeroGradient;
    }
    frontandback
    {
        type            empty;
    }
}


// ************************************************************************* //
