/*--------------------------------*- C++ -*----------------------------------*\
| =========                 |                                                 |
| \\      /  F ield         | OpenFOAM: The Open Source CFD Toolbox           |
|  \\    /   O peration     | Version:  v1912                                 |
|   \\  /    A nd           | Website:  www.openfoam.com                      |
|    \\/     M anipulation  |                                                 |
\*---------------------------------------------------------------------------*/
FoamFile
{
    version     2.0;
    format      ascii;
    class       surfaceScalarField;
    location    "60";
    object      phi;
}
// * * * * * * * * * * * * * * * * * * * * * * * * * * * * * * * * * * * * * //

dimensions      [0 3 -1 0 0 0 0];
oriented        oriented;


internalField   nonuniform List<scalar> 
18940
(
0.000358446
-0.234359
0.234001
0.00137965
-0.216317
0.215296
0.00288418
-0.204782
0.203277
0.00470147
-0.197001
0.195184
0.00670065
-0.191249
0.18925
0.00877997
-0.186459
0.184379
0.0108656
-0.182041
0.179955
0.012908
-0.1777
0.175657
0.0148771
-0.173312
0.171342
0.0167575
-0.168848
0.166967
0.0185444
-0.164329
0.162542
0.0202402
-0.159799
0.158103
0.0218521
-0.155303
0.153691
0.0233899
-0.150888
0.14935
0.0248647
-0.146587
0.145112
0.0262882
-0.142427
0.141003
0.027672
-0.138419
0.137035
0.0290266
-0.134561
0.133207
0.0303603
-0.130834
0.1295
-0.127196
0.125878
0.0316786
0.000381876
-0.234741
0.00142298
-0.217358
0.00293822
-0.206297
0.00475983
-0.198823
0.00675347
-0.193243
0.00881745
-0.188523
0.0108792
-0.184102
0.0128908
-0.179711
0.014824
-0.175245
0.0166653
-0.170689
0.0184114
-0.166075
0.0200661
-0.161453
0.0216375
-0.156875
0.0231361
-0.152386
0.0245735
-0.148025
0.0259617
-0.143815
0.0273125
-0.13977
0.0286367
-0.135885
0.0299432
-0.13214
-0.128491
0.0312381
0.000403305
-0.235144
0.00146063
-0.218415
0.0029846
-0.207821
0.00480676
-0.200645
0.00679121
-0.195227
0.00883619
-0.190568
0.0108704
-0.186137
0.0128478
-0.181689
0.014742
-0.177139
0.0165413
-0.172488
0.0182442
-0.167778
0.0198556
-0.163065
0.0213847
-0.158404
0.0228426
-0.153844
0.0242412
-0.149423
0.0255928
-0.145167
0.0269093
-0.141086
0.0282018
-0.137178
0.0294798
-0.133418
-0.129761
0.0307501
0.000417182
-0.235561
0.00148956
-0.219488
0.00302139
-0.209353
0.00484153
-0.202465
0.00681342
-0.197199
0.00883585
-0.19259
0.010839
-0.18814
0.0127789
-0.183628
0.0146311
-0.178991
0.0163859
-0.174243
0.0180433
-0.169436
0.0196097
-0.164631
0.0210949
-0.159889
0.0225106
-0.15526
0.0238692
-0.150782
0.025183
-0.146481
0.0264641
-0.142367
0.027724
-0.138438
0.0289725
-0.134667
-0.131006
0.0302174
0.000428455
-0.23599
0.00151309
-0.220572
0.00304994
-0.210889
0.0048648
-0.20428
0.00682057
-0.199155
0.00881688
-0.194586
0.0107856
-0.190108
0.0126848
-0.185528
0.0144922
-0.180799
0.0162001
-0.175951
0.01781
-0.171046
0.0193295
-0.166151
0.0207693
-0.161329
0.0221416
-0.156632
0.023459
-0.152099
0.024734
-0.147756
0.0259787
-0.143612
0.027205
-0.139664
0.0284232
-0.135885
-0.132225
0.029642
0.000437549
-0.236427
0.00153164
-0.221666
0.00307051
-0.212428
0.0048768
-0.206086
0.00681297
-0.201091
0.00877968
-0.196553
0.0107107
-0.192039
0.0125662
-0.187383
0.0143262
-0.182559
0.0159848
-0.17761
0.0175452
-0.172606
0.0190161
-0.167622
0.0204091
-0.162722
0.0217368
-0.15796
0.023012
-0.153374
0.0242471
-0.148991
0.0254545
-0.14482
0.0266462
-0.140856
0.0278332
-0.137072
-0.133417
0.0290252
0.000445032
-0.236873
0.00154589
-0.222767
0.00308366
-0.213966
0.00487802
-0.207881
0.00679112
-0.203004
0.00872483
-0.198487
0.0106149
-0.19393
0.0124238
-0.189192
0.0141339
-0.184269
0.015741
-0.179217
0.01725
-0.174115
0.0186708
-0.169042
0.0200156
-0.164067
0.0212974
-0.159242
0.0225292
-0.154606
0.0237233
-0.150185
0.0248923
-0.145989
0.0260484
-0.142012
0.0272032
-0.138227
-0.134581
0.0283675
0.000451057
-0.237324
0.00155616
-0.223872
0.00308979
-0.2155
0.00486893
-0.20966
0.00675558
-0.204891
0.00865302
-0.200384
0.0104991
-0.195776
0.0122587
-0.190952
0.0139163
-0.185926
0.0154698
-0.18077
0.0169256
-0.175571
0.0182946
-0.170411
0.0195898
-0.165362
0.0208244
-0.160476
0.0220115
-0.155793
0.0231635
-0.151337
0.0242928
-0.147118
0.0254119
-0.143131
0.0265333
-0.139348
-0.135717
0.0276688
0.000455732
-0.237779
0.00156273
-0.224979
0.00308936
-0.217026
0.0048501
-0.211421
0.00670705
-0.206748
0.00856507
-0.202242
0.0103643
-0.197575
0.0120719
-0.192659
0.0136747
-0.187529
0.0151726
-0.182268
0.0165732
-0.176971
0.0178888
-0.171727
0.0191327
-0.166606
0.0203187
-0.161662
0.0214596
-0.156934
0.022568
-0.152445
0.0236561
-0.148206
0.0247366
-0.144211
0.0258229
-0.140434
-0.136822
0.0269283
0.000459129
-0.238238
0.0015659
-0.226086
0.00308284
-0.218543
0.00482217
-0.21316
0.00664634
-0.208572
0.00846195
-0.204058
0.0102115
-0.199324
0.0118646
-0.194312
0.0134104
-0.189075
0.0148505
-0.183708
0.0161942
-0.178315
0.0174545
-0.172987
0.0186455
-0.167797
0.0197811
-0.162798
0.0208743
-0.158027
0.0219372
-0.153508
0.0229821
-0.149251
0.0240219
-0.145251
0.0250709
-0.141483
-0.137895
0.026144
0.000461356
-0.2387
0.001566
-0.227191
0.0030708
-0.220048
0.0047859
-0.214875
0.00657438
-0.210361
0.00834479
-0.205828
0.0100421
-0.201022
0.0116384
-0.195909
0.013125
-0.190561
0.0145053
-0.185089
0.0157901
-0.1796
0.0169933
-0.17419
0.0181295
-0.168933
0.0192128
-0.163881
0.020256
-0.159071
0.0212712
-0.154523
0.0222703
-0.15025
0.0232666
-0.146248
0.0242753
-0.142492
-0.138933
0.0253133
0.000462566
-0.239162
0.00156349
-0.228292
0.00305393
-0.221539
0.00474219
-0.216563
0.00649229
-0.212111
0.00821492
-0.207551
0.00985755
-0.202664
0.0113948
-0.197446
0.0128201
-0.191987
0.0141388
-0.186407
0.0153628
-0.180824
0.0165068
-0.175334
0.0175861
-0.170012
0.0186148
-0.16491
0.0196056
-0.160061
0.0205702
-0.155488
0.0215204
-0.1512
0.0224696
-0.147197
0.0234341
-0.143457
-0.139932
0.0244331
0.00046304
-0.239625
0.00155898
-0.229388
0.00303308
-0.223013
0.00469212
-0.218222
0.00640138
-0.21382
0.00807389
-0.209224
0.0096597
-0.20425
0.0111359
-0.198922
0.0124982
-0.193349
0.0137533
-0.187662
0.0149145
-0.181985
0.0159974
-0.176417
0.0170173
-0.171032
0.0179887
-0.165881
0.0189241
-0.160997
0.0198347
-0.156399
0.0207321
-0.152098
0.0216296
-0.148094
0.0225449
-0.144372
-0.140887
0.0234995
0.000463256
-0.240089
0.00155333
-0.230478
0.0030093
-0.224469
0.00463692
-0.21985
0.00630312
-0.215486
0.00792343
-0.210844
0.00945055
-0.205777
0.0108641
-0.200336
0.0121615
-0.194646
0.0133515
-0.188852
0.0144482
-0.183082
0.0154676
-0.177437
0.0164256
-0.17199
0.0173366
-0.166792
0.0182128
-0.161873
0.0190652
-0.157251
0.0199047
-0.152937
0.0207446
-0.148934
0.0216036
-0.145231
-0.14179
0.0225063
0.000464017
-0.240553
0.0015477
-0.231561
0.00298382
-0.225905
0.00457796
-0.221444
0.00619912
-0.217107
0.00776547
-0.21241
0.00923237
-0.207244
0.0105818
-0.201685
0.0118133
-0.195878
0.0129368
-0.189976
0.0139673
-0.184112
0.0149214
-0.178391
0.0158149
-0.172884
0.016662
-0.167639
0.0174747
-0.162686
0.0182632
-0.15804
0.0190379
-0.153712
0.0198117
-0.149708
0.020604
-0.146023
-0.142631
0.021445
0.000466468
-0.241019
0.0015434
-0.232638
0.00295784
-0.227319
0.00451661
-0.223003
0.00609107
-0.218682
0.00760206
-0.213921
0.00900764
-0.20865
0.0102921
-0.20297
0.0114569
-0.197043
0.0125131
-0.191032
0.0134765
-0.185076
0.0143637
-0.179278
0.0151906
-0.173711
0.0159708
-0.16842
0.0167155
-0.16343
0.0174342
-0.158758
0.018136
-0.154413
0.0188328
-0.150405
0.0195452
-0.146736
-0.143398
0.0203122
0.000472002
-0.241491
0.00154175
-0.233708
0.00293268
-0.22871
0.00445443
-0.224525
0.00598083
-0.220208
0.00743542
-0.215376
0.00877898
-0.209993
0.00999817
-0.204189
0.0110961
-0.198141
0.0120849
-0.192021
0.0129808
-0.185972
0.0138005
-0.180098
0.0145592
-0.174469
0.01527
-0.16913
0.0159433
-0.164104
0.0165874
-0.159402
0.0172097
-0.155036
0.0178203
-0.151015
0.0184398
-0.147355
-0.144066
0.0191082
0.000482949
-0.241974
0.00154537
-0.23477
0.00291082
-0.230076
0.00439353
-0.226007
0.00587035
-0.221685
0.00726766
-0.216773
0.00854896
-0.211275
0.00970317
-0.205343
0.0107349
-0.199172
0.0116573
-0.192943
0.0124864
-0.186801
0.0132385
-0.18085
0.0139281
-0.175159
0.0145669
-0.169769
0.0151641
-0.164701
0.0157271
-0.159965
0.0162624
-0.155571
0.0167765
-0.151529
0.0172821
-0.147861
-0.144587
0.0178032
0.000506888
-0.242481
0.00156149
-0.235825
0.00289631
-0.23141
0.00433581
-0.227447
0.00576088
-0.22311
0.0071002
-0.218112
0.00831959
-0.212494
0.00941006
-0.206434
0.0103777
-0.20014
0.0112361
-0.193802
0.0120013
-0.187566
0.0126885
-0.181537
0.0133103
-0.175781
0.0138757
-0.170335
0.0143906
-0.165216
0.0148586
-0.160433
0.0152816
-0.155994
0.0156586
-0.151906
0.0159939
-0.148196
-0.144943
0.0163496
0.000563938
-0.243045
0.00159839
-0.236859
0.0028889
-0.232701
0.00428011
-0.228838
0.00565194
-0.224482
0.00693344
-0.219394
0.00809218
-0.213653
0.00912115
-0.207463
0.0100279
-0.201047
0.010827
-0.194601
0.0115344
-0.188273
0.0121646
-0.182167
0.0127281
-0.176344
0.0132307
-0.170837
0.0136721
-0.165657
0.0140448
-0.160806
0.0143321
-0.156281
0.0145077
-0.152082
0.0145666
-0.148255
-0.145115
0.0147384
0.250731
0.000415194
-0.251146
0.250342
0.000388839
0.24996
0.000381574
0.249578
0.000381709
0.249194
0.000384659
0.248805
0.000389075
0.24841
0.000394231
0.248011
0.00039954
0.247606
0.00040461
0.247197
0.000409236
0.246784
0.00041332
0.246367
0.000416837
0.245947
0.000419769
0.245525
0.000422093
0.245101
0.000423683
0.244677
0.000424336
0.244254
0.000423002
0.243835
0.000419134
0.243431
0.00040353
0.000386447
0.252706
0.0010239
-0.253314
0.252061
0.00103313
0.251389
0.00105425
0.250689
0.00108125
0.249964
0.00110963
0.249215
0.00113802
0.248443
0.00116596
0.24765
0.00119293
0.246836
0.00121853
0.246003
0.00124249
0.245152
0.00126471
0.244283
0.00128516
0.243399
0.00130384
0.242501
0.00132073
0.241588
0.0013357
0.240664
0.00134855
0.239729
0.00135817
0.238784
0.00136429
0.237827
0.00136064
0.00135387
0.25149
0.00159607
-0.252062
0.250853
0.00167003
0.250163
0.0017442
0.249425
0.00181947
0.248641
0.0018935
0.247814
0.00196507
0.246946
0.00203384
0.24604
0.00209959
0.245096
0.00216208
0.244117
0.00222114
0.243105
0.00227674
0.242062
0.00232891
0.240988
0.00237774
0.239885
0.00242333
0.238755
0.00246571
0.237599
0.00250492
0.236416
0.00254042
0.235208
0.00257247
0.23397
0.00259868
0.00262324
0.247386
0.00203965
-0.24783
0.246873
0.00218328
0.246295
0.0023223
0.245656
0.00245813
0.24496
0.00259012
0.244207
0.00271748
0.243401
0.00283987
0.242544
0.00295713
0.241637
0.00306912
0.240682
0.00317576
0.239682
0.00327708
0.238637
0.0033732
0.237551
0.00346432
0.236423
0.00355074
0.235256
0.00363272
0.234051
0.00371064
0.232807
0.00378458
0.231524
0.00385517
0.230201
0.00392169
0.00398616
0.241139
0.00231878
-0.241418
0.240789
0.00253374
0.240369
0.00274193
0.239883
0.00294418
0.239333
0.00314047
0.23872
0.00333032
0.238046
0.00351341
0.237314
0.00368954
0.236524
0.0038586
0.23568
0.00402055
0.234781
0.00417546
0.233831
0.00432353
0.23283
0.00446509
0.23178
0.0046006
0.230682
0.00473061
0.229537
0.00485581
0.228345
0.00497679
0.227106
0.00509453
0.225818
0.00520917
0.00532238
0.233542
0.00244214
-0.233665
0.233348
0.00272773
0.233084
0.00300538
0.232753
0.0032754
0.232356
0.00353782
0.231894
0.00379234
0.231368
0.00403864
0.230781
0.00427646
0.230134
0.0045057
0.229429
0.0047263
0.228666
0.00493837
0.227847
0.00514218
0.226974
0.00533814
0.226048
0.00552689
0.225069
0.00570924
0.224039
0.00588623
0.222957
0.0060589
0.221822
0.00622864
0.220635
0.00639632
0.00656377
0.225298
0.00244029
-0.225296
0.225232
0.00279394
0.225098
0.00313891
0.224899
0.00347513
0.224634
0.00380252
0.224305
0.00412082
0.223914
0.00442967
0.223462
0.00472882
0.22295
0.00501807
0.222379
0.00529738
0.22175
0.00556685
0.221065
0.00582677
0.220326
0.00607767
0.219532
0.00632033
0.218686
0.00655581
0.217787
0.0067855
0.216835
0.00701096
0.215829
0.00723408
0.214769
0.0074564
0.00768009
0.216936
0.00234944
-0.216845
0.216962
0.00276761
0.216925
0.0031765
0.216824
0.00357581
0.216661
0.00396533
0.216437
0.00434475
0.216153
0.00471369
0.21581
0.00507182
0.215409
0.00541891
0.214952
0.00575486
0.214439
0.00607975
0.213872
0.00639387
0.213252
0.00669781
0.21258
0.0069925
0.211856
0.00727926
0.211082
0.00755983
0.210257
0.00783632
0.209379
0.00811127
0.208449
0.00838703
0.00866629
0.208803
0.00220292
-0.208657
0.208889
0.00268182
0.208915
0.00315087
0.208881
0.00360963
0.208788
0.00405777
0.208638
0.00449492
0.208431
0.00492063
0.208169
0.00533449
0.207851
0.0057362
0.207481
0.0061256
0.207058
0.0065027
0.206584
0.00686778
0.20606
0.00722143
0.205488
0.00756468
0.204868
0.00789909
0.204201
0.00822679
0.203487
0.00855053
0.202725
0.00887359
0.201912
0.00919942
0.00953156
0.2011
0.00202774
-0.200924
0.201218
0.00256378
0.201279
0.0030894
0.201285
0.00360405
0.201235
0.00410731
0.201131
0.00459869
0.200974
0.00507769
0.200765
0.0055438
0.200505
0.00599663
0.200194
0.00643592
0.199835
0.00686158
0.199429
0.00727379
0.198978
0.00767314
0.198482
0.00806067
0.197943
0.00843815
0.197361
0.00880803
0.196738
0.00917384
0.196072
0.00953974
0.195361
0.00991069
0.0102915
0.193919
0.00184374
-0.193735
0.194049
0.00243382
0.194125
0.00301289
0.194149
0.0035803
0.194121
0.00413551
0.194042
0.00467796
0.193912
0.00520702
0.193734
0.00572212
0.193508
0.00622274
0.193235
0.00670847
0.192918
0.0071791
0.192557
0.00763465
0.192154
0.00807559
0.191712
0.00850288
0.191232
0.00891843
0.190715
0.0093249
0.190162
0.00972674
0.189573
0.010129
0.188945
0.0105389
0.0109628
0.187283
0.00166436
-0.187104
0.187411
0.00230596
0.187488
0.00293595
0.187515
0.00355352
0.187492
0.00415805
0.187422
0.00474887
0.187303
0.00532527
0.187139
0.00588654
0.18693
0.00643204
0.186677
0.00696119
0.186382
0.00747358
0.186048
0.00796899
0.185676
0.0084477
0.185268
0.00891039
0.184828
0.00935903
0.184356
0.00979621
0.183856
0.0102275
0.183326
0.0106586
0.182765
0.0111002
0.0115606
0.181174
0.00149792
-0.181007
0.181291
0.00218919
0.181358
0.00286812
0.181378
0.00353378
0.181351
0.00418551
0.181277
0.00482254
0.181158
0.00544405
0.180996
0.00604921
0.18079
0.00663721
0.180544
0.00720728
0.180259
0.00775876
0.179937
0.0082911
0.17958
0.00880425
0.179192
0.00929843
0.178776
0.00977549
0.178335
0.0102375
0.177871
0.0106914
0.177387
0.0111426
0.176879
0.0116076
0.0120957
0.175547
0.00134925
-0.175399
0.175648
0.00208868
0.175701
0.00281497
0.175708
0.00352716
0.175669
0.00422445
0.175585
0.004906
0.175458
0.00557088
0.175289
0.00621814
0.17508
0.00684678
0.174831
0.00745581
0.174546
0.00804427
0.174226
0.00861123
0.173874
0.00915616
0.173494
0.00967852
0.173089
0.0101799
0.172666
0.0106609
0.172227
0.0111303
0.171778
0.0115913
0.171315
0.0120703
0.012574
0.170352
0.00122063
-0.170223
0.170434
0.00200712
0.170469
0.00277952
0.170459
0.00353694
0.170405
0.00427849
0.170308
0.00500321
0.170169
0.00571008
0.169989
0.00639802
0.16977
0.00706586
0.169513
0.00771237
0.169221
0.00833626
0.168896
0.00893611
0.168542
0.00951081
0.168161
0.0100588
0.16776
0.010581
0.167345
0.0110756
0.166922
0.0115538
0.166501
0.012012
0.166077
0.0124943
0.0129943
0.165533
0.00111284
-0.165425
0.165595
0.0019453
0.165611
0.00276276
0.165584
0.00356431
0.165514
0.00434898
0.165401
0.00511574
0.165248
0.00586346
0.165055
0.00659094
0.164824
0.00729685
0.164556
0.00797969
0.164255
0.00863786
0.163922
0.0092694
0.16356
0.00987254
0.163174
0.0104444
0.16277
0.0109849
0.162357
0.0114885
0.161942
0.0119689
0.161545
0.0124093
0.161156
0.012883
0.0133444
0.161038
0.00102536
-0.16095
0.16108
0.00190274
0.161079
0.00276425
0.161034
0.00360888
0.160948
0.00443562
0.16082
0.00524333
0.160653
0.00603082
0.160447
0.00679678
0.160204
0.00753972
0.159926
0.00825793
0.159614
0.00894946
0.159272
0.00961189
0.158901
0.0102427
0.158508
0.0108375
0.158098
0.0113949
0.157683
0.011904
0.157271
0.012381
0.156894
0.0127863
0.156536
0.0132414
0.0135985
0.156819
0.000956377
-0.15675
0.156844
0.0018779
0.156826
0.00278228
0.156766
0.00366884
0.156665
0.00453643
0.156525
0.00538387
0.156346
0.00620991
0.156129
0.00701315
0.155877
0.00779197
0.155591
0.00854449
0.155272
0.00926848
0.154922
0.00996108
0.154546
0.0106191
0.154147
0.0112367
0.153731
0.0118109
0.153311
0.0123239
0.152899
0.0127933
0.152543
0.0131419
0.152209
0.0135754
0.0137256
0.152835
0.000903921
-0.152783
0.152845
0.00186791
0.152814
0.00281366
0.152742
0.00374058
0.152631
0.0046474
0.152482
0.00553291
0.152296
0.00639584
0.152074
0.00723473
0.151819
0.00804785
0.15153
0.00883319
0.15121
0.00958834
0.150861
0.0103101
0.150485
0.0109949
0.150086
0.0116355
0.149669
0.0122279
0.149247
0.0127465
0.148831
0.0132094
0.148496
0.0134766
0.148203
0.0138683
0.0136736
0.149045
-0.149008
0.000866438
0.149044
0.00186884
0.149004
0.00285397
0.148926
0.00381904
0.14881
0.00476268
0.14866
0.00568383
0.148474
0.00658121
0.148256
0.00745329
0.148005
0.00829829
0.147724
0.00911413
0.147414
0.00989834
0.147077
0.0106475
0.146714
0.011358
0.146328
0.0120216
0.145921
0.0126343
0.145504
0.0131641
0.14508
0.0136329
0.144729
0.0138275
0.144471
0.0141262
0.0130303
0.25437
7.40833e-05
-0.254444
0.254333
3.63989e-05
0.254301
3.25701e-05
0.254259
4.15073e-05
0.254203
5.59434e-05
0.25413
7.38e-05
0.254036
9.37744e-05
0.253921
0.000114742
0.253785
0.00013589
0.253628
0.000156709
0.253452
0.00017676
0.253256
0.000195764
0.253042
0.000214218
0.252809
0.000233185
0.252558
0.000250476
0.252292
0.000265653
0.252014
0.000278319
0.251726
0.000288382
0.251436
0.000289982
0.000289994
0.256236
-0.000241578
-0.25592
0.25649
-0.000217589
0.256699
-0.000176644
0.256863
-0.000122825
0.256982
-6.26424e-05
0.257054
1.29717e-06
0.25708
6.7852e-05
0.257059
0.000135931
0.25699
0.000204609
0.256874
0.00027295
0.256711
0.000339712
0.256503
0.000403648
0.256254
0.000463514
0.255956
0.000531011
0.255614
0.00059271
0.25523
0.000649868
0.254806
0.00070233
0.254344
0.000750027
0.253846
0.000788305
0.000821387
0.251673
-0.000898425
-0.251016
0.252257
-0.000801491
0.252775
-0.000694706
0.25323
-0.000578237
0.253623
-0.000455597
0.253953
-0.000329031
0.254221
-0.000199685
0.254426
-6.89632e-05
0.254567
6.31411e-05
0.254644
0.000196046
0.254658
0.000325917
0.254609
0.000452382
0.254495
0.000577741
0.254323
0.000702852
0.254092
0.00082377
0.253802
0.000939675
0.253454
0.0010501
0.25305
0.00115492
0.252586
0.00125221
0.00134476
0.243354
-0.00183433
-0.242418
0.244217
-0.00166463
0.24501
-0.00148764
0.245735
-0.00130266
0.24639
-0.00111134
0.246977
-0.000915487
0.247494
-0.000716462
0.24794
-0.000515521
0.248317
-0.000313355
0.24862
-0.000107186
0.248851
9.47655e-05
0.249014
0.000289546
0.249105
0.000486246
0.249128
0.000679925
0.249083
0.000869516
0.248968
0.00105411
0.248785
0.00123296
0.248534
0.0014057
0.248215
0.00157127
0.00173023
0.233271
-0.00296919
-0.232136
0.234338
-0.00273124
0.235336
-0.00248578
0.236266
-0.00223238
0.237126
-0.00197195
0.237917
-0.00170599
0.238636
-0.00143593
0.239284
-0.00116299
0.239858
-0.000888115
0.240363
-0.000612101
0.240796
-0.000338176
0.241154
-6.77468e-05
0.241439
0.000201254
0.241652
0.000466918
0.241792
0.000728853
0.241861
0.000985615
0.241857
0.00123647
0.241782
0.00148084
0.241636
0.00171788
0.00194754
0.222714
-0.00423058
-0.221453
0.223912
-0.00392928
0.225045
-0.00361889
0.226113
-0.00329957
0.227113
-0.00297213
0.228045
-0.002638
0.228908
-0.00229875
0.2297
-0.00195584
0.230423
-0.00161072
0.231076
-0.00126473
0.231657
-0.000919447
0.232165
-0.000576145
0.232602
-0.000235693
0.232969
0.000100379
0.233264
0.000433544
0.233487
0.000762687
0.233638
0.00108514
0.233718
0.00140082
0.233727
0.00170911
0.00200975
0.212469
-0.00556089
-0.211138
0.21374
-0.00520042
0.21495
-0.00482875
0.216097
-0.00444654
0.217179
-0.00405482
0.218196
-0.00365522
0.219147
-0.00324954
0.220031
-0.00283952
0.220847
-0.00242682
0.221595
-0.00201288
0.222275
-0.00159912
0.222886
-0.00118695
0.223427
-0.000777153
0.223898
-0.00037048
0.224306
2.54115e-05
0.224642
0.000426778
0.224909
0.000818532
0.225106
0.00120295
0.225236
0.00157998
0.0019492
0.202945
-0.00691831
-0.201588
0.204247
-0.00650199
0.20549
-0.00607209
0.206673
-0.00562961
0.207795
-0.00517605
0.208853
-0.00471343
0.209847
-0.00424387
0.210777
-0.00376939
0.211642
-0.00329183
0.212442
-0.00281281
0.213177
-0.00233381
0.213846
-0.00185619
0.21445
-0.00138103
0.214988
-0.000909275
0.215456
-0.000442302
0.215869
1.37567e-05
0.21621
0.000477343
0.216487
0.000926159
0.216699
0.00136842
0.00180277
0.194303
-0.00827503
-0.192947
0.195607
-0.00780541
0.196854
-0.00731949
0.198043
-0.00681863
0.199172
-0.00630498
0.20024
-0.00578114
0.201246
-0.00524968
0.202189
-0.00471292
0.20307
-0.00417292
0.203889
-0.00363145
0.204645
-0.00309008
0.205339
-0.00255011
0.205971
-0.00201274
0.20654
-0.00147889
0.207048
-0.000949963
0.207489
-0.000427274
0.207876
9.06916e-05
0.208197
0.000604465
0.208458
0.00110809
0.00160384
0.18655
-0.00961427
-0.185211
0.187838
-0.00909331
0.189071
-0.00855287
0.190247
-0.00799467
0.191364
-0.00742188
0.192421
-0.00683792
0.193417
-0.00624587
0.194353
-0.00564842
0.195227
-0.00504786
0.196042
-0.0044461
0.196797
-0.0038447
0.197492
-0.00324498
0.198127
-0.00264808
0.198703
-0.00205498
0.19922
-0.00146666
0.199676
-0.000884043
0.200075
-0.000307859
0.200417
0.000262316
0.2007
0.000825502
0.0013792
0.179613
-0.0109274
-0.1783
0.180877
-0.0103568
0.182086
-0.00976258
0.183239
-0.00914725
0.184333
-0.00851552
0.185366
-0.00787186
0.186341
-0.00721994
0.187255
-0.00656286
0.18811
-0.00590311
0.188907
-0.00524269
0.189645
-0.00458314
0.190326
-0.00392572
0.190949
-0.0032715
0.191516
-0.0026214
0.192025
-0.00197628
0.192478
-0.00133701
0.192875
-0.000704088
0.193217
-8.04593e-05
0.193504
0.000539221
0.00114814
0.173389
-0.0122112
-0.172105
0.174625
-0.0115928
0.175807
-0.010945
0.176932
-0.0102719
0.177997
-0.00958077
0.179002
-0.00887725
0.179948
-0.00816567
0.180835
-0.00744953
0.181663
-0.00673154
0.182434
-0.00601368
0.183148
-0.0052974
0.183807
-0.00458386
0.184409
-0.00387403
0.184956
-0.00316877
0.185449
-0.00246884
0.185887
-0.00177508
0.186271
-0.00108822
0.186601
-0.000409845
0.18688
0.000260224
0.000923784
0.167767
-0.0134668
-0.166511
0.168977
-0.0128028
0.170132
-0.0121006
0.171229
-0.0113683
0.172265
-0.0106167
0.17324
-0.00985256
0.174155
-0.00908103
0.175012
-0.00830602
0.17581
-0.00753035
0.176553
-0.00675586
0.177239
-0.00598388
0.177871
-0.0052154
0.178448
-0.00445125
0.178971
-0.00369218
0.179441
-0.00293891
0.179859
-0.00219225
0.180223
-0.00145267
0.180534
-0.000720899
0.180798
-3.71717e-06
0.000714476
0.162647
-0.0146978
-0.161416
0.163836
-0.0139915
0.164968
-0.013233
0.166039
-0.012439
0.167047
-0.0116249
0.167993
-0.0107988
0.168879
-0.00996646
0.169705
-0.00913231
0.170474
-0.0082991
0.171186
-0.00746845
0.171844
-0.00664146
0.172447
-0.00581887
0.172998
-0.00500133
0.173495
-0.00418948
0.17394
-0.00338396
0.174333
-0.00258552
0.174675
-0.00179478
0.174967
-0.00101309
0.175206
-0.000242221
0.000521843
0.157947
-0.0159109
-0.156734
0.159122
-0.0151666
0.160237
-0.0143478
0.161286
-0.0134882
0.16227
-0.0126085
0.163189
-0.0117179
0.164045
-0.0108231
0.164842
-0.00992895
0.165581
-0.00903798
0.166264
-0.00815139
0.166892
-0.00726987
0.167467
-0.00639384
0.16799
-0.00552371
0.16846
-0.00465995
0.168879
-0.0038031
0.169248
-0.00295386
0.169566
-0.00211298
0.169834
-0.0012814
0.170052
-0.000460248
0.000350726
0.153604
-0.0171186
-0.152396
0.154775
-0.0163384
0.155879
-0.0154519
0.156912
-0.0145207
0.157873
-0.0135699
0.158766
-0.0126103
0.159593
-0.0116506
0.16036
-0.0106954
0.161068
-0.00974637
0.161721
-0.00880411
0.16232
-0.00786869
0.162866
-0.00694004
0.163361
-0.00601821
0.163804
-0.00510345
0.164197
-0.00419621
0.16454
-0.00329709
0.164834
-0.00240684
0.165079
-0.00152629
0.165276
-0.000656624
0.000201181
0.149571
-0.0183502
-0.14834
0.150755
-0.0175221
0.151855
-0.0165516
0.152873
-0.0155391
0.153811
-0.0145077
0.154674
-0.0134732
0.155469
-0.0124459
0.156202
-0.0114289
0.156878
-0.0104222
0.157499
-0.00942522
0.158068
-0.00843714
0.158585
-0.00745715
0.159052
-0.00648485
0.159468
-0.00552026
0.159836
-0.0045637
0.160154
-0.00361571
0.160425
-0.00267704
0.160647
-0.00174856
0.160822
-0.000831258
7.25278e-05
0.14582
-0.0196703
-0.1445
0.147038
-0.0187397
0.148134
-0.0176477
0.149132
-0.0165379
0.150038
-0.0154137
0.150863
-0.0142981
0.15162
-0.0132025
0.152316
-0.012125
0.152956
-0.0110627
0.153545
-0.0100133
0.154082
-0.00897477
0.15457
-0.00794535
0.15501
-0.00692424
0.155401
-0.00591124
0.155744
-0.0049066
0.156039
-0.00391086
0.156287
-0.00292479
0.156487
-0.00194945
0.156642
-0.000985829
-3.58596e-05
0.142366
-0.0211487
-0.140888
0.143615
-0.0199886
0.144689
-0.0187217
0.145646
-0.0174948
0.146503
-0.0162711
0.14728
-0.0150743
0.14799
-0.0139134
0.148646
-0.0127801
0.149249
-0.0116666
0.149805
-0.0105685
0.150312
-0.00948238
0.150773
-0.00840587
0.151186
-0.00733779
0.151553
-0.00627791
0.151873
-0.00522652
0.152146
-0.00418423
0.152373
-0.00315189
0.152555
-0.00213068
0.152691
-0.00112208
-0.000127652
0.139279
-0.137861
-0.0225671
0.140442
-0.0211508
0.141476
-0.0197557
0.142353
-0.0183718
0.143142
-0.0170604
0.143866
-0.015798
0.144531
-0.0145785
0.145145
-0.0133948
0.145714
-0.0122356
0.146239
-0.0110928
0.146718
-0.00996197
0.147153
-0.0088404
0.147542
-0.007727
0.147886
-0.00662164
0.148184
-0.00552481
0.148437
-0.00443729
0.148645
-0.00336003
0.148809
-0.00229406
0.148927
-0.00124095
-0.000208187
0.030843
0.112052
-0.110568
-0.0323275
0.0293311
0.115054
-0.113542
0.0277892
0.118189
-0.116647
0.0262136
0.121479
-0.119904
0.0246011
0.124958
-0.123346
0.0229488
0.128667
-0.127015
0.0212548
0.132665
-0.130971
0.0195176
0.13703
-0.135293
0.0177366
0.141868
-0.140087
0.0159122
0.147308
-0.145484
0.014046
0.153513
-0.151647
0.0121425
0.160669
-0.158765
0.0102104
0.168977
-0.167045
0.00826652
0.178626
-0.176682
0.00634073
0.189739
-0.187813
0.00448322
0.20228
-0.200423
0.0027738
0.215912
-0.214203
0.00133303
0.229779
-0.228338
0.000330339
0.242096
-0.241093
0.249729
-0.249398
0.0306536
0.113529
-0.0321305
0.0291494
0.116558
0.0276152
0.119723
0.0260477
0.123047
0.0244435
0.126562
0.0227997
0.130311
0.021114
0.13435
0.0193851
0.138759
0.017612
0.143641
0.0157952
0.149125
0.0139366
0.155371
0.0120407
0.162564
0.010117
0.1709
0.00818309
0.18056
0.00626995
0.191652
0.0044293
0.204121
0.00274242
0.217599
0.00132935
0.231192
0.000354098
0.243071
0.250083
0.0304222
0.114996
-0.0318893
0.0289278
0.118053
0.0274038
0.121247
0.0258465
0.124604
0.0242527
0.128156
0.0226195
0.131944
0.0209444
0.136025
0.0192259
0.140478
0.0174632
0.145403
0.0156564
0.150932
0.0138078
0.15722
0.011922
0.16445
0.0100092
0.172813
0.00808757
0.182482
0.00618923
0.193551
0.00436687
0.205943
0.0027023
0.219264
0.00131391
0.23258
0.000357168
0.244028
0.25044
0.0301506
0.116451
-0.0316058
0.0286682
0.119535
0.0271563
0.122759
0.0256114
0.126149
0.0240301
0.129737
0.0224094
0.133565
0.020747
0.137688
0.0190411
0.142184
0.0172907
0.147154
0.0154963
0.152726
0.0136598
0.159057
0.0117865
0.166323
0.00988676
0.174713
0.00797967
0.184389
0.00609803
0.195432
0.00429529
0.207746
0.00265343
0.220906
0.00128916
0.233944
0.000352099
0.244965
0.250792
0.0298409
0.117893
-0.0312823
0.0283724
0.121004
0.0268746
0.124257
0.0253439
0.12768
0.0237768
0.131304
0.0221706
0.135171
0.0205227
0.139336
0.0188312
0.143875
0.0170953
0.14889
0.0153152
0.154506
0.013493
0.160879
0.0116343
0.168182
0.00974983
0.176598
0.00785936
0.186279
0.00599643
0.197295
0.00421517
0.209527
0.00259756
0.222523
0.00125869
0.235283
0.000343175
0.24588
0.251135
0.0294958
0.119319
-0.0309218
0.0280427
0.122457
0.0265605
0.125739
0.0250455
0.129195
0.0234944
0.132856
0.0219042
0.136761
0.0202724
0.140967
0.0185972
0.14555
0.0168775
0.150609
0.0151136
0.15627
0.0133077
0.162685
0.0114656
0.170024
0.00959859
0.178465
0.00772688
0.188151
0.00588482
0.199137
0.00412712
0.211285
0.00253571
0.224115
0.00122388
0.236595
0.000331564
0.246773
0.251467
0.0291179
0.120728
-0.0305276
0.0276815
0.123893
0.0262161
0.127204
0.0247181
0.130693
0.0231842
0.13439
0.0216114
0.138334
0.0199972
0.142582
0.0183398
0.147208
0.0166379
0.152311
0.014892
0.158016
0.0131044
0.164472
0.0112809
0.171848
0.00943335
0.180312
0.00758254
0.190002
0.00576351
0.200956
0.0040315
0.213017
0.00246827
0.225678
0.00118526
0.237878
0.000317974
0.24764
0.251785
0.0287103
0.122121
-0.0301029
0.0272912
0.125312
0.0258434
0.128652
0.0243633
0.132173
0.0228476
0.135905
0.0212933
0.139888
0.019698
0.144177
0.0180597
0.148846
0.0163773
0.153994
0.014651
0.159742
0.0128833
0.16624
0.0110804
0.173651
0.00925438
0.182138
0.0074266
0.191829
0.00563277
0.20275
0.00392862
0.214721
0.00239563
0.227211
0.00114338
0.23913
0.000303006
0.24848
0.252088
0.0282758
0.123497
-0.0296514
0.0268741
0.126714
0.0254443
0.130082
0.0239826
0.133635
0.0224858
0.137402
0.0209509
0.141423
0.0193755
0.145752
0.0177576
0.150464
0.0160959
0.155655
0.0143909
0.161447
0.0126449
0.167986
0.0108645
0.175431
0.00906194
0.183941
0.00725931
0.193632
0.00549287
0.204517
0.00381877
0.216395
0.00231816
0.228711
0.0010987
0.24035
0.000287078
0.249292
0.252375
0.0278172
0.124856
-0.0291765
0.0264325
0.128099
0.0250204
0.131494
0.0235772
0.135078
0.0220997
0.13888
0.0205849
0.142938
0.0190302
0.147307
0.0174338
0.15206
0.0157942
0.157295
0.0141119
0.16313
0.0123894
0.169708
0.0106332
0.177187
0.00885622
0.185718
0.00708088
0.195407
0.00534405
0.206253
0.00370225
0.218037
0.0022362
0.230178
0.00105159
0.241534
0.000270435
0.250073
0.252645
0.0273368
0.1262
-0.0286813
0.025968
0.129467
0.0245729
0.132889
0.023148
0.136503
0.0216898
0.140338
0.0201955
0.144432
0.0186624
0.14884
0.0170885
0.153634
0.0154723
0.158911
0.0138142
0.164788
0.0121168
0.171406
0.0103868
0.178917
0.0086374
0.187467
0.0068915
0.197153
0.00518655
0.207958
0.00357932
0.219644
0.00215006
0.231607
0.00100232
0.242682
0.000253236
0.250822
0.252899
0.0268363
0.127533
-0.0281686
0.0254814
0.130822
0.0241022
0.134268
0.0226949
0.13791
0.0212561
0.141777
0.0197826
0.145906
0.0182718
0.150351
0.0167215
0.155185
0.0151301
0.160502
0.0134978
0.16642
0.0118272
0.173076
0.0101253
0.180619
0.00840555
0.189187