/*--------------------------------*- C++ -*----------------------------------*\
| =========                 |                                                 |
| \\      /  F ield         | OpenFOAM: The Open Source CFD Toolbox           |
|  \\    /   O peration     | Version:  v1912                                 |
|   \\  /    A nd           | Website:  www.openfoam.com                      |
|    \\/     M anipulation  |                                                 |
\*---------------------------------------------------------------------------*/
FoamFile
{
    version     2.0;
    format      ascii;
    class       volVectorField;
    location    "60";
    object      U;
}
// * * * * * * * * * * * * * * * * * * * * * * * * * * * * * * * * * * * * * //

dimensions      [0 1 -1 0 0 0 0];


internalField   nonuniform List<vector> 
9600
(
(0.456546 -9.36165 -1.5417e-19)
(0.159767 -8.6324 0)
(0.242029 -8.15959 -9.05363e-20)
(0.320855 -7.84053 0)
(0.388242 -7.6055 0)
(0.456715 -7.41094 -3.18584e-20)
(0.522291 -7.2328 -5.50554e-22)
(0.58183 -7.05884 2.66332e-20)
(0.634558 -6.88371 0)
(0.680505 -6.70597 -4.51602e-20)
(0.720063 -6.52625 0)
(0.753857 -6.34609 -1.83082e-21)
(0.782625 -6.1673 -2.60768e-21)
(0.807125 -5.99158 -3.15598e-20)
(0.828081 -5.82031 2.66182e-20)
(0.846147 -5.65448 -2.61516e-20)
(0.861876 -5.49455 2.32855e-20)
(0.875815 -5.34045 0)
(0.888744 -5.19141 -1.8524e-20)
(0.900393 -5.04591 2.03052e-20)
(0.824481 -9.35127 -3.08442e-19)
(0.50223 -8.66052 1.17574e-20)
(0.567694 -8.20395 1.86493e-19)
(0.635022 -7.8944 -1.58966e-19)
(0.693406 -7.66397 1.56772e-19)
(0.753844 -7.4699 0)
(0.81155 -7.28945 6.07666e-20)
(0.863048 -7.11149 -6.06282e-20)
(0.907487 -6.93146 -1.05166e-19)
(0.944956 -6.74852 1.33024e-19)
(0.975958 -6.56369 -8.63678e-20)
(1.00124 -6.37877 -3.5264e-20)
(1.02166 -6.19572 7.1179e-20)
(1.03805 -6.01629 0)
(1.05122 -5.84191 0)
(1.06184 -5.67354 9.97864e-20)
(1.07048 -5.51161 -1.69185e-19)
(1.0777 -5.356 0)
(1.08436 -5.20583 0)
(1.08995 -5.05946 -7.82081e-20)
(1.19276 -9.32735 6.37284e-19)
(0.846965 -8.67579 0)
(0.896918 -8.23563 -3.77366e-19)
(0.953487 -7.93568 -3.42053e-19)
(1.00317 -7.70983 0)
(1.05555 -7.51622 5.46677e-19)
(1.10516 -7.33348 -5.16118e-19)
(1.14826 -7.15161 1.01176e-19)
(1.18401 -6.96689 -2.25237e-19)
(1.21258 -6.77902 -3.74603e-19)
(1.23463 -6.58943 5.1139e-19)
(1.25105 -6.40014 -3.16194e-19)
(1.26281 -6.21324 -1.41716e-19)
(1.27083 -6.03054 0)
(1.27599 -5.85347 5.52945e-21)
(1.279 -5.68297 1.05181e-19)
(1.28042 -5.51946 4.54709e-20)
(1.28085 -5.36274 0)
(1.2812 -5.21181 8.24303e-20)
(1.28061 -5.06499 8.44824e-20)
(1.56027 -9.28953 -8.6217e-19)
(1.19338 -8.67791 -4.04042e-19)
(1.22914 -8.25441 3.91893e-19)
(1.27569 -7.96409 6.73536e-19)
(1.31696 -7.74274 -3.26908e-19)
(1.36124 -7.54952 5.80625e-21)
(1.4025 -7.36453 2.53871e-19)
(1.43685 -7.1789 2.29955e-19)
(1.4635 -6.98971 4.21179e-19)
(1.48278 -6.79725 0)
(1.49551 -6.60328 1.62273e-19)
(1.50273 -6.41005 -1.72209e-19)
(1.50554 -6.21974 1.03539e-20)
(1.50497 -6.03422 2.71484e-19)
(1.50194 -5.85491 2.32759e-19)
(1.49719 -5.68271 -3.28579e-19)
(1.49131 -5.51803 1.0821e-19)
(1.48488 -5.3606 -1.76211e-19)
(1.47889 -5.2093 1.75378e-19)
(1.47206 -5.06245 -8.45263e-20)
(1.92672 -9.23774 4.34817e-19)
(1.54119 -8.66674 0)
(1.56397 -8.26005 3.84876e-19)
(1.60111 -7.97926 0)
(1.6342 -7.76231 0)
(1.67031 -7.56946 -3.00477e-19)
(1.70296 -7.38227 -5.37629e-19)
(1.7282 -7.19305 -4.5587e-19)
(1.74536 -6.99969 1.84512e-20)
(1.75495 -6.80299 -1.97005e-19)
(1.758 -6.60506 0)
(1.75572 -6.40835 -1.62685e-19)
(1.74933 -6.21512 -2.93072e-19)
(1.73997 -6.02725 2.57741e-19)
(1.72859 -5.84615 -7.32495e-19)
(1.71598 -5.6727 1.18542e-19)
(1.70272 -5.50726 9.39667e-20)
(1.68941 -5.34952 -1.93761e-19)
(1.6771 -5.19825 -8.46651e-20)
(1.664 -5.05181 2.5247e-19)
(2.29155 -9.1719 4.19594e-19)
(1.8899 -8.64205 4.16149e-19)
(1.90087 -8.25224 0)
(1.92921 -7.98089 0)
(1.95431 -7.76824 -6.2465e-19)
(1.98214 -7.57572 3.41384e-19)
(2.00589 -7.38643 8.21637e-19)
(2.02166 -7.19384 0)
(2.02893 -6.99661 2.17146e-19)
(2.02848 -6.79607 1.97005e-19)
(2.02152 -6.59465 -3.48069e-19)
(2.00946 -6.39494 5.04758e-19)
(1.99365 -6.19929 1.48124e-19)
(1.97531 -6.00957 0)
(1.95547 -5.82715 1.23314e-19)
(1.93492 -5.65289 5.5357e-19)
(1.91423 -5.48712 -3.29856e-19)
(1.89404 -5.32947 3.70672e-19)
(1.87543 -5.17863 -7.04869e-19)
(1.85605 -5.03304 8.14855e-19)
(2.65424 -9.09197 4.26747e-19)
(2.23899 -8.60363 -2.25974e-18)
(2.2393 -8.23071 0)
(2.25939 -7.96867 0)
(2.27665 -7.7602 0)
(2.29606 -7.56801 -6.05977e-19)
(2.31063 -7.37674 0)
(2.31656 -7.18103 -9.71358e-19)
(2.31358 -6.9803 8.96004e-19)
(2.30272 -6.77637 -8.32199e-19)
(2.28546 -6.57194 0)
(2.26337 -6.36976 0)
(2.23795 -6.1722 0)
(2.2105 -5.98113 -2.81615e-19)
(2.18208 -5.79788 0)
(2.15353 -5.62327 0)
(2.1254 -5.45759 -4.13384e-19)
(2.09835 -5.30045 4.06163e-19)
(2.07349 -5.15042 0)
(2.04787 -5.00614 0)
(3.01424 -8.99796 -1.3883e-18)
(2.58793 -8.55131 8.99655e-19)
(2.5787 -8.19523 0)
(2.59104 -7.94232 0)
(2.60057 -7.73792 0)
(2.61142 -7.54608 5.7638e-19)
(2.6165 -7.353 -5.78136e-19)
(2.61223 -7.15446 -8.8991e-21)
(2.59863 -6.95063 -8.97151e-19)
(2.57705 -6.74378 8.4003e-19)
(2.54921 -6.53687 -3.78982e-19)
(2.51687 -6.33276 6.59031e-19)
(2.48167 -6.13384 -4.64217e-20)
(2.44499 -5.94194 -5.9621e-19)
(2.40794 -5.75834 -5.02532e-19)
(2.37135 -5.58383 4.93723e-19)
(2.33577 -5.41868 0)
(2.3019 -5.26244 0)
(2.27088 -5.11362 3.57309e-19)
(2.23907 -4.97111 -3.93203e-19)
(3.371 -8.8899 9.27896e-19)
(2.93613 -8.48496 8.839e-19)
(2.91845 -8.14557 -1.6754e-18)
(2.92351 -7.90161 7.9142e-19)
(2.9254 -7.70117 0)
(2.92751 -7.50972 6.16759e-19)
(2.9228 -7.31502 -5.41472e-19)
(2.90798 -7.11398 1.53027e-18)
(2.88343 -6.90749 -2.37004e-20)
(2.85082 -6.69823 0)
(2.81215 -6.48939 7.64654e-19)
(2.76938 -6.28391 0)
(2.72427 -6.08419 0)
(2.67828 -5.89199 -2.72761e-19)
(2.63254 -5.70856 5.50121e-19)
(2.58789 -5.53462 0)
(2.54488 -5.37042 4.31537e-19)
(2.50425 -5.21548 1.79662e-19)
(2.46715 -5.06824 -3.89793e-19)
(2.42926 -4.92798 3.78499e-19)
(3.72396 -8.76785 -9.55734e-19)
(3.28301 -8.40448 8.98326e-19)
(3.25795 -8.08156 -2.55851e-18)
(3.25616 -7.84633 8.04555e-19)
(3.25045 -7.64975 0)
(3.24364 -7.45876 -1.2449e-18)
(3.22882 -7.26267 5.98039e-19)
(3.20311 -7.05951 0)
(3.16729 -6.85082 -4.74851e-19)
(3.12338 -6.63969 -8.23645e-19)
(3.07367 -6.4295 -7.17745e-19)
(3.02031 -6.22324 5.34626e-20)
(2.96518 -6.02327 6.71309e-19)
(2.90981 -5.83133 2.72537e-19)
(2.85536 -5.64856 -3.7957e-20)
(2.80266 -5.47565 -5.13225e-19)
(2.75225 -5.31283 -2.2956e-19)
(2.70492 -5.15959 -2.06966e-19)
(2.66186 -5.01433 5.52125e-19)
(2.61799 -4.87678 -8.22713e-19)
(4.07255 -8.63189 9.55736e-19)
(3.62798 -8.30978 -4.66557e-20)
(3.59654 -8.00305 8.2246e-19)
(3.58829 -7.77631 0)
(3.57501 -7.5835 -6.80978e-19)
(3.55907 -7.39305 1.30852e-18)
(3.53385 -7.19584 -1.11859e-18)
(3.49692 -6.99096 1.10077e-18)
(3.44953 -6.78059 -4.46069e-19)
(3.39408 -6.56816 9.05502e-19)
(3.33314 -6.35721 3.92153e-19)
(3.26906 -6.15076 0)
(3.20385 -5.95114 0)
(3.13906 -5.75999 -2.82594e-19)
(3.07588 -5.5784 3.83755e-20)
(3.01515 -5.40697 1.01068e-18)
(2.95739 -5.24595 -2.50048e-19)
(2.90343 -5.09481 8.25915e-19)
(2.85451 -4.9519 1.4457e-19)
(2.80482 -4.81754 -8.40261e-19)
(4.41623 -8.48213 -2.94087e-18)
(3.97043 -8.20083 -9.87253e-19)
(3.93359 -7.90993 -2.63266e-18)
(3.91922 -7.69142 -1.60163e-18)
(3.89836 -7.5023 -7.59731e-19)
(3.87307 -7.31252 -7.4254e-19)
(3.83715 -7.11449 -2.42412e-18)
(3.7887 -6.90833 -4.90865e-20)
(3.72947 -6.6968 -1.94801e-18)
(3.66227 -6.48366 3.02294e-20)
(3.58995 -6.27255 -8.08849e-19)
(3.51506 -6.06652 -7.37078e-19)
(3.4397 -5.86784 6.72872e-19)
(3.36548 -5.67804 -6.15373e-19)
(3.2936 -5.49812 -5.63799e-19)
(3.22486 -5.32866 -5.17454e-19)
(3.15979 -5.16986 -1.38945e-18)
(3.09927 -5.02119 4.94315e-19)
(3.04461 -4.88101 1.19969e-18)
(2.98926 -4.7503 -1.27682e-18)
(4.75444 -8.31872 3.95571e-18)
(4.30976 -8.07764 4.85986e-18)
(4.26843 -7.80215 8.34881e-19)
(4.24825 -7.59158 4.00032e-18)
(4.21978 -7.40608 -7.84077e-19)
(4.18493 -7.21711 3.91803e-18)
(4.13801 -7.0186 1.14619e-18)
(4.07776 -6.81162 3.21781e-18)
(4.00645 -6.5995 -9.83583e-19)
(3.92731 -6.38624 2.72341e-18)
(3.84349 -6.17561 1.62923e-18)
(3.75772 -5.97061 1.48482e-18)
(3.67218 -5.77344 -2.01032e-18)
(3.58854 -5.58555 1.88324e-18)
(3.50797 -5.40782 1.1363e-18)
(3.43127 -5.24076 1.04311e-18)
(3.35893 -5.0846 9.59189e-19)
(3.29192 -4.93878 7.36865e-21)
(3.23163 -4.8017 8.14266e-19)
(3.17084 -4.67512 8.47406e-19)
(5.08666 -8.14181 -2.93756e-18)
(4.64538 -7.94023 1.08267e-18)
(4.60042 -7.67964 2.67852e-18)
(4.57468 -7.47672 -3.26338e-18)
(4.53853 -7.29478 7.54095e-19)
(4.49389 -7.10682 -2.6213e-18)
(4.43571 -6.90818 1.28476e-18)
(4.36339 -6.70088 -2.15307e-18)
(4.27979 -6.48874 4.90493e-20)
(4.18857 -6.27599 1.19559e-20)
(4.09316 -6.06645 -1.65173e-18)
(3.99646 -5.8631 -7.47739e-19)
(3.90075 -5.66803 1.37496e-18)
(3.8077 -5.48258 8.76476e-21)
(3.71848 -5.30754 -3.72034e-20)
(3.63383 -5.14335 -1.0887e-18)
(3.55427 -4.99023 -4.83481e-19)
(3.48083 -4.84764 -2.71572e-20)
(3.41501 -4.71402 -8.48627e-19)
(3.349 -4.5921 -4.27953e-19)
(5.41238 -7.95158 0)
(4.97671 -7.78865 -2.00053e-18)
(4.92889 -7.54242 2.37599e-20)
(4.8978 -7.34684 3.25895e-18)
(4.85388 -7.16842 1.36414e-18)
(4.79924 -6.98167 -1.41992e-18)
(4.72953 -6.7833 -1.22329e-18)
(4.64491 -6.57621 0)
(4.54885 -6.36464 -9.73822e-19)
(4.44543 -6.15302 9.29406e-19)
(4.33837 -5.94519 -3.90831e-20)
(4.23075 -5.74408 0)
(4.12488 -5.55168 -6.92188e-19)
(4.02245 -5.3692 5.99598e-19)
(3.92459 -5.19733 5.00953e-19)
(3.83202 -5.03645 -6.04706e-19)
(3.74522 -4.88676 -5.24622e-19)
(3.66533 -4.74774 9.11064e-19)
(3.594 -4.61797 -8.40816e-19)
(3.52288 -4.50131 4.42566e-19)
(5.73114 -7.74822 3.03507e-18)
(5.30315 -7.62299 -2.06039e-18)
(5.25318 -7.3905 -1.75854e-18)
(5.21689 -7.20195 8.18792e-19)
(5.16511 -7.02706 -1.58852e-18)
(5.10023 -6.84175 0)
(5.01876 -6.64408 0)
(4.92165 -6.43773 0)
(4.81299 -6.22733 -4.44872e-20)
(4.69731 -6.01747 -1.86523e-18)
(4.57859 -5.81197 8.80938e-19)
(4.46005 -5.61369 7.45092e-19)
(4.34407 -5.42449 6.30552e-19)
(4.2323 -5.24548 -2.58747e-18)
(4.12584 -5.07723 1.2267e-18)
(4.02534 -4.92006 0)
(3.93126 -4.77415 -3.0441e-20)
(3.84481 -4.63904 -1.41305e-18)
(3.76778 -4.51347 -5.69913e-21)
(3.69153 -4.4024 -4.43056e-19)
(6.04258 -7.532 -2.0644e-18)
(5.62417 -7.44336 -1.08627e-18)
(5.5726 -7.22395 8.18599e-19)
(5.53124 -7.04213 -1.43941e-19)
(5.47148 -6.87077 -4.63083e-18)
(5.39615 -6.68717 4.19112e-18)
(5.30271 -6.49064 -4.8815e-20)
(5.19295 -6.2856 1.148e-18)
(5.0716 -6.077 1.03004e-18)
(4.94362 -5.8695 9.45842e-19)
(4.81327 -5.66694 8.60743e-19)
(4.68388 -5.47204 1.53833e-18)
(4.55785 -5.28656 -7.40425e-19)
(4.43682 -5.1115 1.91937e-18)
(4.32181 -4.94731 -1.24084e-18)
(4.21342 -4.79425 -5.13341e-19)
(4.11204 -4.65251 2.06187e-18)
(4.01894 -4.52163 1.37759e-18)
(3.93609 -4.4004 -2.79717e-20)
(3.8549 -4.29469 0)
(6.34667 -7.30341 -1.04967e-18)
(5.93937 -7.24996 2.07594e-18)
(5.8865 -7.04282 1.81758e-18)
(5.84011 -6.86743 -1.4592e-19)
(5.77223 -6.69965 -1.57119e-18)
(5.68626 -6.51809 7.06909e-20)
(5.58066 -6.32319 1.31824e-20)
(5.45814 -6.12003 1.17453e-20)
(5.32407 -5.91383 0)
(5.18382 -5.70932 9.25115e-19)
(5.0419 -5.51025 -1.76082e-18)
(4.90174 -5.31925 -7.53546e-19)
(4.76575 -5.13797 7.48075e-19)
(4.63551 -4.96727 -6.56418e-19)
(4.51198 -4.80755 6.07963e-19)
(4.39567 -4.65903 -5.53475e-19)
(4.28699 -4.52191 4.90107e-21)
(4.18732 -4.39557 -4.70227e-19)
(4.0989 -4.27871 -4.34389e-19)
(4.01356 -4.17904 -4.34687e-19)
(6.64375 -7.06292 0)
(6.24849 -7.04271 -1.0122e-18)
(6.19422 -6.84705 1.00058e-18)
(6.14273 -6.67792 1.74582e-18)
(6.06663 -6.51388 -1.57988e-18)
(5.96985 -6.33473 1.36489e-18)
(5.85197 -6.14199 -2.6244e-18)
(5.71663 -5.94132 -2.33065e-18)
(5.56986 -5.73814 -1.01679e-18)
(5.41744 -5.5372 4.44349e-20)
(5.26408 -5.34216 -8.42024e-19)
(5.11328 -5.15551 3.49343e-20)
(4.96742 -4.97876 0)
(4.82797 -4.8127 -1.28763e-18)
(4.69576 -4.65766 6.57109e-19)
(4.5712 -4.51389 0)
(4.45472 -4.38151 -5.14657e-19)
(4.34791 -4.25966 -9.25323e-19)
(4.25303 -4.14795 9.09222e-19)
(4.1625 -4.05903 4.4883e-19)
(6.93343 -6.80975 0)
(6.55091 -6.8209 0)
(6.49505 -6.63656 -1.85617e-18)
(6.43836 -6.47388 -1.59609e-18)
(6.35397 -6.31385 3.23945e-18)
(6.24628 -6.13753 0)
(6.11604 -5.94749 0)
(5.9679 -5.7499 1.17088e-18)
(5.80852 -5.55036 0)
(5.6441 -5.35356 0)
(5.47954 -5.16303 0)
(5.31836 -4.98111 0)
(5.16287 -4.80915 0)
(5.01438 -4.6478 0)
(4.87347 -4.49732 0)
(4.74024 -4.35788 0)
(4.61495 -4.22934 0)
(4.49869 -4.11102 0)
(4.39158 -4.00601 0)
(4.28747 -3.93161 0)
(10.0435 0.0877408 1.47371e-19)
(10.023 -0.307648 2.86736e-19)
(9.98718 -0.700359 -2.94494e-19)
(9.93665 -1.09025 5.87161e-19)
(9.87112 -1.47698 -5.87161e-19)
(9.79047 -1.86005 -5.54861e-19)
(9.6948 -2.23891 -5.53312e-19)
(9.58431 -2.61302 1.74255e-18)
(9.45926 -2.98183 -1.16097e-18)
(9.31988 -3.34479 1.15124e-18)
(9.16648 -3.70135 -1.15124e-18)
(8.99934 -4.05097 1.14273e-18)
(8.81881 -4.39315 -2.26613e-18)
(8.62523 -4.72736 3.33721e-18)
(8.41897 -5.05314 0)
(8.20043 -5.37003 -3.27867e-18)
(7.96998 -5.67761 1.6354e-20)
(7.72817 -5.97551 3.30411e-18)
(7.47509 -6.26359 0)
(7.21241 -6.54116 0)
(10.1206 -0.210717 0)
(10.0793 -0.606833 -1.50433e-20)
(10.0213 -0.999148 0)
(9.94709 -1.38732 5.61894e-19)
(9.85706 -1.77093 5.85139e-19)
(9.75135 -2.14937 -1.69358e-18)
(9.63027 -2.522 2.94845e-18)
(9.49417 -2.88821 -1.16393e-18)
(9.34342 -3.24739 -1.1095e-18)
(9.17842 -3.59896 -1.10497e-18)
(8.99957 -3.94235 4.4576e-20)
(8.80732 -4.27701 1.13211e-18)
(8.60214 -4.60242 -5.62808e-18)
(8.3845 -4.91809 -1.18022e-18)
(8.15489 -5.22354 2.24888e-18)
(7.91383 -5.51836 2.24585e-18)
(7.6618 -5.80214 1.14102e-18)
(7.39937 -6.07456 -2.20024e-18)
(7.12663 -6.33536 1.04195e-18)
(6.84454 -6.5842 0)
(10.0725 -0.149215 1.32711e-19)
(10.0346 -0.5409 -2.7177e-19)
(9.97943 -0.929407 7.84817e-19)
(9.90723 -1.31404 -5.55997e-19)
(9.81843 -1.69416 -5.30131e-19)
(9.71338 -2.06904 5.53482e-19)
(9.59246 -2.43795 0)
(9.45606 -2.80021 0)
(9.30462 -3.15515 2.10161e-18)
(9.13858 -3.50212 3.13521e-18)
(8.9584 -3.84051 -9.91612e-19)
(8.7646 -4.16972 3.10021e-18)
(8.55768 -4.4892 -9.87438e-19)
(8.3382 -4.7984 -3.01965e-18)
(8.10669 -5.09682 1.36252e-20)
(7.86372 -5.384 1.9383e-18)
(7.60984 -5.6595 -8.74914e-19)
(7.34563 -5.92292 -1.90692e-18)
(7.07144 -6.17387 -1.02999e-18)
(6.788 -6.41185 1.87409e-18)
(9.90643 -0.112493 0)
(9.8754 -0.494949 2.2913e-19)
(9.82711 -0.875058 2.28189e-19)
(9.76171 -1.25192 -9.37477e-19)
(9.67955 -1.62474 0)
(9.58097 -1.99273 0)
(9.46632 -2.35514 0)
(9.33599 -2.71121 0)
(9.19039 -3.06023 -9.92029e-19)
(9.02996 -3.4015 -9.88262e-19)
(8.85518 -3.73437 0)
(8.66655 -4.05819 1.86849e-18)
(8.46462 -4.37235 -4.61969e-18)
(8.24991 -4.67628 3.71464e-18)
(8.02302 -4.96941 -3.60046e-18)
(7.78452 -5.25124 -8.73655e-19)
(7.535 -5.52127 1.56485e-19)
(7.27506 -5.77902 1.54888e-19)
(7.00522 -6.02404 -1.7793e-18)
(6.72622 -6.25585 -7.08915e-20)
(9.65343 -0.0990106 0)
(9.62983 -0.469239 -2.25973e-19)
(9.58938 -0.837776 0)
(9.53215 -1.20372 4.52071e-19)
(9.45838 -1.56623 4.30946e-19)
(9.36836 -1.92452 3.93991e-19)
(9.2624 -2.2778 0)
(9.14083 -2.62531 0)
(9.00404 -2.96631 0)
(8.85242 -3.30008 0)
(8.68644 -3.62592 8.13866e-19)
(8.50657 -3.94317 8.76821e-19)
(8.31333 -4.25118 8.71818e-19)
(8.10724 -4.54934 -8.85153e-19)
(7.88886 -4.83706 -1.5234e-18)
(7.65879 -5.11377 1.72922e-18)
(7.41761 -5.37893 3.35263e-18)
(7.16593 -5.63203 1.63071e-18)
(6.90435 -5.87255 0)
(6.63355 -6.10002 -1.53692e-18)
(9.34646 -0.0902095 4.64471e-20)
(9.32982 -0.446263 0)
(9.29697 -0.801198 -7.61148e-19)
(9.24791 -1.15416 1.82779e-23)
(9.18278 -1.50433 1.61785e-20)
(9.10184 -1.85091 -6.85523e-20)
(9.00533 -2.19312 0)
(8.89354 -2.53022 3.09415e-20)
(8.76681 -2.86146 -7.72695e-19)
(8.62549 -3.18611 1.50547e-18)
(8.47 -3.50347 -1.56981e-18)
(8.30078 -3.81287 8.57597e-19)
(8.11829 -4.11365 -4.49543e-18)
(7.92304 -4.40516 2.96502e-18)
(7.71557 -4.6868 1.5717e-18)
(7.49642 -4.95798 0)
(7.26618 -5.21812 -2.9011e-18)
(7.02545 -5.46668 -6.15423e-20)
(6.77481 -5.70312 -2.85698e-18)
(6.51492 -5.92692 2.96943e-18)
(9.01413 -0.0854002 4.17716e-20)
(9.00314 -0.426456 -8.75054e-20)
(8.97667 -0.766862 7.17462e-19)
(8.93468 -1.10582 -1.40781e-20)
(8.87728 -1.44253 7.17314e-19)
(8.80465 -1.77624 -1.08343e-18)
(8.71701 -2.10619 0)
(8.61459 -2.43165 7.30372e-19)
(8.49769 -2.75188 6.6875e-19)
(8.36662 -3.06619 -7.26281e-19)
(8.22174 -3.37388 1.32883e-18)
(8.06344 -3.67427 2.81712e-18)
(7.89217 -3.96673 -1.31015e-18)
(7.70838 -4.2506 -1.42009e-18)
(7.51257 -4.52527 1.36186e-18)
(7.30526 -4.79014 0)
(7.08701 -5.04462 6.4961e-20)
(6.85838 -5.28814 9.81617e-21)
(6.61995 -5.52016 2.70686e-18)
(6.37232 -5.74012 1.25846e-18)
(8.67772 -0.0842211 0)
(8.67079 -0.410324 6.25998e-21)
(8.64915 -0.736122 -1.45999e-19)
(8.61275 -1.06087 -6.48376e-19)
(8.56165 -1.38381 6.0947e-19)
(8.49601 -1.70423 0)
(8.41599 -2.02139 1.24048e-18)
(8.32181 -2.33461 -1.36315e-21)
(8.2137 -2.64318 -1.89458e-18)
(8.09195 -2.94642 0)
(7.95687 -3.24367 -1.30767e-18)
(7.80883 -3.53427 4.60223e-20)
(7.64821 -3.81759 -3.67593e-18)
(7.47544 -4.09301 6.47828e-21)
(7.29099 -4.35992 1.23204e-18)
(7.09534 -4.61772 0)
(6.88902 -4.86582 -1.20926e-18)
(6.67256 -5.10365 8.70657e-21)
(6.44651 -5.33065 1.20056e-18)
(6.21144 -5.54624 -1.23841e-18)
(8.35109 -0.0853046 0)
(8.34678 -0.397036 1.4969e-19)
(8.32852 -0.708695 3.10572e-19)
(8.29625 -1.01958 -5.74874e-19)
(8.25001 -1.32899 -2.47366e-20)
(8.18992 -1.63624 -2.87305e-19)
(8.11613 -1.94065 -1.15011e-18)
(8.02882 -2.24156 5.71791e-19)
(7.9282 -2.5383 2.38267e-20)
(7.81451 -2.83023 5.6837e-19)
(7.68805 -3.11671 5.23236e-19)
(7.54913 -3.39713 2.26594e-18)
(7.39812 -3.67087 1.13342e-18)
(7.23541 -3.93735 2.23866e-18)
(7.06144 -4.19596 -1.1164e-18)
(6.87666 -4.44613 3.86856e-20)
(6.68157 -4.68729 -1.10321e-18)
(6.47668 -4.91886 0)
(6.26254 -5.14028 1.04283e-18)
(6.03964 -5.35095 0)
(8.04218 -0.0875246 6.51739e-20)
(8.03933 -0.385756 -1.90876e-19)
(8.02324 -0.684057 5.23537e-19)
(7.99385 -0.981771 -2.61183e-19)
(7.9512 -1.27824 1.89942e-20)
(7.89538 -1.57282 -2.61028e-19)
(7.82652 -1.86487 5.4266e-19)
(7.74477 -2.15376 -5.19357e-19)
(7.65033 -2.43888 5.19354e-19)
(7.54342 -2.71961 9.96097e-19)
(7.42429 -2.99537 -1.07334e-18)
(7.29326 -3.26556 -4.51269e-20)
(7.15064 -3.5296 -3.10687e-18)
(6.99682 -3.78694 5.38113e-21)
(6.83219 -4.03702 4.03e-20)
(6.65721 -4.27927 2.01412e-18)
(6.47235 -4.51315 -9.94908e-19)
(6.27809 -4.73809 -9.47671e-19)
(6.07498 -4.95353 -3.74668e-20)
(5.86347 -5.15886 0)
(7.75457 -0.0901355 0)
(7.75233 -0.37586 2.42465e-19)
(7.73751 -0.661726 -8.33688e-19)
(7.71004 -0.94712 -2.21185e-19)
(7.66996 -1.23142 4.94658e-19)
(7.61734 -1.51403 0)
(7.55231 -1.79434 0)
(7.475 -2.07176 4.7282e-19)
(7.38559 -2.34571 -4.72818e-19)
(7.28428 -2.61562 3.98316e-19)
(7.17131 -2.88093 -4.69771e-19)
(7.04697 -3.1411 9.31595e-19)
(6.91156 -3.39558 -1.85858e-18)
(6.76543 -3.64385 1.84897e-18)
(6.60899 -3.88539 3.4684e-20)
(6.44265 -4.11967 -9.50948e-19)
(6.26689 -4.34617 -9.04912e-19)
(6.0822 -4.56433 1.84335e-18)
(5.8891 -4.7736 8.62943e-19)
(5.68804 -4.97334 0)
(7.48907 -0.0926636 1.87888e-21)
(7.48687 -0.36688 1.59198e-19)
(7.47268 -0.641266 3.34239e-19)
(7.44642 -0.915242 2.33949e-19)
(7.40815 -1.18823 2.17022e-19)
(7.35792 -1.45964 2.01884e-19)
(7.29586 -1.72893 0)
(7.22207 -1.99554 -8.34287e-19)
(7.13674 -2.25892 -4.30073e-19)
(7.04005 -2.51853 3.66912e-19)
(6.93222 -2.77385 0)
(6.81352 -3.02438 8.49442e-19)
(6.68425 -3.26961 -2.51227e-18)
(6.54474 -3.50906 8.45093e-19)
(6.39538 -3.74225 0)
(6.23658 -3.96869 -8.03528e-19)
(6.06883 -4.18789 -1.62291e-18)
(5.89261 -4.39932 7.98587e-19)
(5.70849 -4.60242 -2.92204e-20)
(5.5169 -4.79655 0)
(7.24478 -0.0948101 3.46662e-21)
(7.24227 -0.358472 -1.03029e-19)
(7.22828 -0.622294 1.98828e-19)
(7.20277 -0.885735 -1.31299e-20)
(7.16576 -1.14824 3.97305e-19)
(7.11733 -1.40928 -6.10183e-19)
(7.05758 -1.6683 0)
(6.98663 -1.9248 5.60646e-20)
(6.90463 -2.17825 0)
(6.81177 -2.42815 -8.14517e-19)
(6.70825 -2.67403 0)
(6.59433 -2.9154 -7.51709e-19)
(6.4703 -3.1518 2.32331e-18)
(6.33647 -3.3828 -1.53954e-18)
(6.19322 -3.60794 7.67554e-19)
(6.04097 -3.82682 -6.79134e-19)
(5.88022 -4.03895 7.84417e-19)
(5.71146 -4.24387 -7.79054e-19)
(5.53534 -4.44098 0)
(5.35228 -4.62964 0)
(7.01993 -0.0964536 4.71453e-20)
(7.01692 -0.350409 0)
(7.00288 -0.604507 0)
(6.9778 -0.858229 -3.77736e-19)
(6.9417 -1.11105 -3.5255e-19)
(6.89465 -1.36247 0)
(6.83676 -1.61196 0)
(6.76813 -1.85904 4.98848e-20)
(6.68891 -2.10323 6.98162e-19)
(6.59927 -2.34404 -3.36697e-19)
(6.49942 -2.58104 -3.5872e-19)
(6.38959 -2.81377 1.44908e-18)
(6.27005 -3.04182 -2.15176e-18)
(6.14112 -3.26479 1.38758e-18)
(6.00317 -3.48229 0)
(5.85661 -3.69395 2.78765e-18)
(5.70196 -3.89934 -2.02399e-18)
(5.53975 -4.0981 6.88554e-19)
(5.37074 -4.28953 1.31685e-18)
(5.19535 -4.47307 0)
(6.8124 -0.0975294 -4.05338e-20)
(6.80878 -0.342531 0)
(6.79456 -0.587655 -5.22554e-21)
(6.76972 -0.832399 -3.24383e-19)
(6.73429 -1.07627 1.00515e-18)
(6.68836 -1.31876 -1.67204e-19)
(6.632 -1.55941 0)
(6.56533 -1.79774 1.33195e-18)
(6.48849 -2.0333 -6.85936e-19)
(6.40163 -2.26562 4.45148e-20)
(6.30496 -2.49431 6.35708e-19)
(6.1987 -2.71893 6.51604e-19)
(6.08309 -2.93912 -1.29941e-18)
(5.95844 -3.15453 -1.27097e-18)
(5.82511 -3.36478 -1.24145e-18)
(5.6835 -3.56965 -1.32104e-18)
(5.53419 -3.76867 1.31204e-18)
(5.37768 -3.96171 -6.26357e-19)
(5.21501 -4.14791 -6.67435e-19)
(5.04647 -4.32691 0)
(6.61996 -0.0980172 3.98234e-20)
(6.6157 -0.334733 -1.49529e-19)
(6.60123 -0.571541 -1.54794e-19)
(6.57654 -0.80796 4.63497e-19)
(6.54167 -1.04351 -1.646e-19)
(6.49668 -1.27773 -1.53859e-19)
(6.44166 -1.51016 0)
(6.37672 -1.74035 -6.32421e-19)
(6.30198 -1.96785 0)
(6.2176 -2.19227 6.27531e-19)
(6.12377 -2.41318 -1.20927e-18)
(6.02068 -2.63023 5.98613e-19)
(5.90858 -2.84304 -1.19355e-18)
(5.78774 -3.05134 1.23166e-18)
(5.6585 -3.25479 6.70366e-19)
(5.52125 -3.45328 0)
(5.3766 -3.64634 -5.78649e-19)
(5.22503 -3.83419 5.78649e-19)
(5.068 -4.01562 0)
(4.90547 -4.19099 0)
(6.44048 -0.0980048 0)
(6.43561 -0.326993 1.4691e-19)
(6.4209 -0.556041 4.72625e-21)
(6.39634 -0.784689 -1.51479e-19)
(6.36197 -1.01248 -1.33579e-19)
(6.31785 -1.23897 -1.41815e-19)
(6.26407 -1.46372 5.48123e-19)
(6.20072 -1.68629 0)
(6.12794 -1.90629 0)
(6.04587 -2.12329 2.78559e-19)
(5.95467 -2.33694 2.95908e-19)
(5.85453 -2.54688 1.07099e-18)
(5.74567 -2.75279 -5.47222e-19)
(5.62834 -2.95441 5.4722e-19)
(5.50283 -3.15147 5.80912e-19)
(5.3695 -3.34398 3.39659e-20)
(5.22899 -3.53147 -1.06693e-18)
(5.08167 -3.71471 3.77995e-21)
(4.92971 -3.89181 5.27692e-19)
(4.77223 -4.06477 0)
(6.27205 -0.0974953 -3.28365e-20)
(6.26664 -0.319278 3.28361e-20)
(6.25173 -0.541094 0)
(6.22733 -0.762496 1.23681e-19)
(6.19347 -0.983047 4.01751e-19)
(6.15022 -1.20232 -5.0777e-19)
(6.09766 -1.41989 -5.38549e-19)
(6.03588 -1.63536 0)
(5.96501 -1.84833 0)
(5.88518 -2.05842 0)
(5.79654 -2.26528 -9.94215e-19)
(5.69926 -2.46857 -6.41724e-20)
(5.59354 -2.66801 -5.04106e-19)
(5.47956 -2.86337 3.02082e-20)
(5.35762 -3.05442 -9.96931e-19)
(5.22793 -3.24131 1.51933e-18)
(5.09121 -3.4236 -1.43962e-18)
(4.94751 -3.60288 4.88693e-19)
(4.80011 -3.77615 9.36869e-19)
(4.6463 -3.94833 0)
(6.11297 -0.0961382 2.95005e-20)
(6.10711 -0.311389 0)
(6.0921 -0.526661 -1.21454e-19)
(6.06792 -0.741517 -2.50264e-19)
(6.03461 -0.955539 1.21302e-19)
(5.99224 -1.16832 9.68649e-19)
(5.94089 -1.37945 0)
(5.88064 -1.58855 -4.66525e-19)
(5.81162 -1.79524 -2.38613e-19)
(5.73394 -1.99917 -4.48268e-19)
(5.64774 -2.19999 -1.79362e-19)
(5.55316 -2.39741 -1.41524e-18)
(5.45039 -2.59113 -9.34149e-19)
(5.33953 -2.78097 9.60938e-19)
(5.22086 -2.96673 9.19816e-19)
(5.09437 -3.14865 -3.88477e-21)
(4.96089 -3.32638 2.99587e-20)
(4.81964 -3.5025 4.50291e-19)
(4.67576 -3.67322 -9.20568e-19)
(4.52248 -3.84843 0)
(5.96162 -0.0944664 -6.16913e-20)
(5.95546 -0.303462 3.03696e-20)
(5.94049 -0.512545 -1.21332e-19)
(5.91668 -0.721326 1.21275e-19)
(5.88407 -0.92941 -3.48806e-19)
(5.84269 -1.13641 -1.08613e-18)
(5.79261 -1.34194 0)
(5.73391 -1.54563 4.9362e-19)
(5.66668 -1.74712 -4.61553e-19)
(5.59102 -1.94607 9.77363e-19)
(5.50704 -2.14216 9.71559e-19)
(5.41484 -2.33509 1.43141e-18)
(5.31456 -2.52459 -9.28827e-19)
(5.20625 -2.71044 4.62653e-19)
(5.09013 -2.89249 -4.54996e-19)
(4.96585 -3.07093 4.55019e-19)
(4.8345 -3.2455 0)
(4.69339 -3.41943 4.1197e-19)
(4.55156 -3.58852 -4.03153e-19)
(4.39385 -3.775 0)
(7.14015 7.26214 0)
(7.42013 6.97234 0)
(7.6872 6.67295 1.0876e-18)
(7.94208 6.36448 2.02655e-20)
(8.18417 6.04665 -1.15065e-18)
(8.41285 5.71952 0)
(8.62768 5.38349 1.18743e-18)
(8.82834 5.0391 -2.24035e-18)
(9.0145 4.68693 -1.13222e-18)
(9.18589 4.32757 -1.1428e-18)
(9.34223 3.96167 1.1428e-18)
(9.4833 3.58988 -1.1549e-18)
(9.6089 3.21288 5.76087e-19)
(9.71884 2.83139 5.4986e-19)
(9.81296 2.44606 5.52009e-19)
(9.89121 2.05756 -5.85819e-19)
(9.95355 1.66655 5.85819e-19)
(10.0001 1.27373 -2.94088e-19)
(10.0307 0.879505 -1.39697e-19)
(10.046 0.485225 7.35785e-20)
(7.41708 7.07042 0)
(7.69727 6.781 -9.96653e-19)
(7.96366 6.48001 -2.13077e-18)
(8.21656 6.16812 3.151e-18)
(8.45572 5.84567 -2.1851e-18)
(8.68062 5.51309 2.19588e-18)
(8.8908 5.17101 1.1938e-18)
(9.08583 4.82007 -3.38767e-18)
(9.26532 4.46098 1.10825e-18)
(9.42893 4.09444 2.20315e-18)
(9.57633 3.7212 1.08547e-18)
(9.70728 3.34198 1.09235e-18)
(9.82161 2.95762 -1.15269e-18)
(9.9191 2.56881 1.69736e-18)
(9.99948 2.17635 -2.35489e-18)
(10.0627 1.78113 5.81266e-19)
(10.1086 1.38393 -5.58562e-19)
(10.1375 0.985588 0)
(10.1491 0.586625 1.51571e-20)
(10.1439 0.188023 0)
(7.27415 6.9457 -1.75497e-18)
(7.55716 6.67368 9.85251e-19)
(7.82763 6.3888 1.8023e-18)
(8.0851 6.09172 8.15943e-19)
(8.32915 5.78302 2.0434e-18)
(8.55926 5.46332 2.00444e-20)
(8.7749 5.13328 -1.02423e-18)
(8.97557 4.79359 -3.05245e-18)
(9.16083 4.44498 3.01361e-18)
(9.33024 4.08818 -3.09351e-18)
(9.48341 3.72391 -1.03062e-18)
(9.62004 3.35295 -2.06199e-18)
(9.73981 2.97612 0)
(9.84252 2.59418 0)
(9.92802 2.20804 0)
(9.99614 1.81861 -5.25599e-19)
(10.0467 1.42672 5.50468e-19)
(10.0798 1.03323 5.27295e-19)
(10.0951 0.63885 6.27057e-21)
(10.0928 0.244556 1.32434e-19)
(7.0469 6.69367 1.82265e-18)
(7.32665 6.44031 -1.65522e-18)
(7.59506 6.17383 -1.69637e-19)
(7.8514 5.89476 -1.70599e-19)
(8.0951 5.60369 4.30313e-18)
(8.32562 5.3012 -7.12672e-20)
(8.5424 4.98794 3.77723e-21)
(8.74491 4.66456 -2.72122e-18)
(8.93266 4.33174 1.79545e-18)
(9.10516 3.99017 0)
(9.26193 3.64062 9.62991e-19)
(9.40263 3.28395 9.69656e-19)
(9.52698 2.92091 0)
(9.63465 2.55236 0)
(9.72545 2.1791 0)
(9.79915 1.80195 0)
(9.85558 1.42174 -2.17157e-20)
(9.89461 1.03933 4.74794e-19)
(9.91612 0.655538 -2.28003e-19)
(9.92012 0.27131 0)
(6.78425 6.37892 1.54374e-18)
(7.05615 6.14342 0)
(7.31781 5.89499 -4.54536e-18)
(7.56844 5.63403 -1.54931e-18)
(7.8074 5.36107 -1.62808e-18)
(8.0341 5.07667 -1.72585e-18)
(8.24799 4.78141 8.15408e-19)
(8.4485 4.47589 -8.56957e-19)
(8.63511 4.16074 2.37956e-18)
(8.80736 3.83664 -7.79022e-19)
(8.96483 3.50437 0)
(9.10703 3.16467 0)
(9.23357 2.81822 0)
(9.34417 2.46582 0)
(9.43857 2.10827 -1.23023e-18)
(9.51651 1.74639 4.23014e-19)
(9.57779 1.38098 -4.46841e-19)
(9.62223 1.01288 0)
(9.64971 0.642917 2.24863e-19)
(9.66015 0.271996 0)
(6.50931 6.05168 1.3207e-18)
(6.77098 5.83233 -4.79976e-20)
(7.02335 5.60046 2.77804e-18)
(7.26563 5.35639 1.38791e-18)
(7.49717 5.10059 0)
(7.71737 4.83357 -1.47382e-18)
(7.92568 4.55586 6.85305e-20)
(8.12154 4.26801 -1.49622e-18)
(8.30444 3.97062 2.06998e-18)
(8.47389 3.66434 3.27463e-20)
(8.62947 3.34979 2.81224e-20)
(8.77073 3.02761 -7.46644e-19)
(8.89724 2.69854 1.46434e-18)
(9.0087 2.36333 0)
(9.10483 2.02269 6.85878e-20)
(9.18534 1.67745 7.47615e-19)
(9.24996 1.32838 1.63929e-21)
(9.29851 0.976261 -1.53502e-20)
(9.33085 0.621899 0)
(9.34686 0.266125 -4.63504e-20)
(6.24346 5.73464 0)
(6.49379 5.52927 -4.89243e-20)
(6.73557 5.3119 1.75836e-20)
(6.96806 5.08282 -2.51132e-18)
(7.19061 4.84242 0)
(7.40264 4.59117 1.27015e-18)
(7.60361 4.32955 1.35289e-18)
(7.793 4.05807 -3.93615e-18)
(7.9703 3.77727 -6.83019e-20)
(8.13504 3.48772 -1.26393e-18)
(8.28677 3.19002 6.9592e-19)
(8.42509 2.88479 -6.42865e-19)
(8.54958 2.5727 -7.06695e-19)
(8.65988 2.25443 0)
(8.75574 1.93072 3.72833e-19)
(8.83695 1.60216 -1.6914e-20)
(8.90313 1.26962 -3.46119e-19)
(8.95406 0.933835 -1.67759e-20)
(8.98962 0.595546 -8.71278e-20)
(9.00966 0.25553 1.74629e-19)
(5.99791 5.4394 0)
(6.23665 5.24588 1.08596e-18)
(6.46744 5.04093 1.61912e-20)
(6.68957 4.8248 -1.10212e-18)
(6.90242 4.59784 0)
(7.10544 4.36048 1.1466e-18)
(7.29812 4.11314 -1.09474e-18)
(7.47996 3.85629 -1.21188e-18)
(7.65048 3.59044 2.3052e-18)
(7.80923 3.31611 1.24383e-18)
(7.95578 3.03386 0)
(8.08974 2.74428 6.06693e-19)
(8.21073 2.44799 -4.39253e-21)
(8.31842 2.14563 2.1873e-20)
(8.4124 1.83787 0)
(8.49253 1.52534 -5.97191e-19)
(8.55865 1.20867 -3.12866e-19)
(8.61036 0.888641 4.5712e-19)
(8.64752 0.566006 3.08206e-19)
(8.66998 0.241466 -4.11959e-20)
(5.77634 5.17091 0)
(6.00382 4.98737 -9.37965e-19)
(6.2238 4.79297 0)
(6.43562 4.58794 -1.01197e-18)
(6.63869 4.37259 1.99236e-18)
(6.8325 4.14729 -2.03188e-18)
(7.01657 3.91245 3.17945e-18)
(7.19042 3.66849 -3.17031e-18)
(7.35361 3.41588 -2.14197e-18)
(7.50571 3.15513 -1.57985e-18)
(7.64632 2.88674 5.41753e-19)
(7.77508 2.61129 -1.12315e-18)
(7.89161 2.32934 1.86545e-20)
(7.9956 2.04149 1.11649e-18)
(8.08676 1.74833 -2.80882e-19)
(8.16471 1.4506 1.15063e-18)
(8.22936 1.14877 -5.65925e-19)
(8.28055 0.843551 2.60747e-19)
(8.31799 0.535681 -1.48699e-19)
(8.34151 0.225828 0)
(5.57848 4.92955 0)
(5.79533 4.75446 1.81459e-18)
(6.00505 4.56907 8.80222e-19)
(6.20699 4.37358 -9.06051e-19)
(6.4006 4.16826 -1.85604e-18)
(6.5854 3.95345 2.82433e-18)
(6.76095 3.72951 1.12969e-20)
(6.92682 3.49685 -9.20607e-19)
(7.08257 3.25592 1.97637e-18)
(7.22783 3.00718 1.02073e-18)
(7.36222 2.75113 -9.53647e-19)
(7.48538 2.48829 5.0075e-19)
(7.59698 2.21921 2.25461e-20)
(7.6967 1.94445 -5.26906e-19)
(7.78428 1.66458 -2.55331e-19)
(7.85941 1.38019 5.11973e-19)
(7.92188 1.09196 -2.56642e-19)
(7.97157 0.800411 -5.17896e-19)
(8.00831 0.50621 6.00137e-20)
(8.03185 0.210008 6.4894e-20)