/*--------------------------------*- C++ -*----------------------------------*\
  =========                 |
  \\      /  F ield         | OpenFOAM: The Open Source CFD Toolbox
   \\    /   O peration     | Website:  https://openfoam.org
    \\  /    A nd           | Version:  6.0
     \\/     M anipulation  |
\*---------------------------------------------------------------------------*/
FoamFile
{
    version     2.0;
    format      ascii;
    class       surfaceScalarField;
    location    "19.74";
    object      phi;
}
// * * * * * * * * * * * * * * * * * * * * * * * * * * * * * * * * * * * * * //

dimensions      [0 3 -1 0 0 0 0];

internalField   nonuniform List<scalar> 
4670
(
-0.000185193
-0.0216338
0.0218189
-0.000506743
-0.0167297
0.0170512
-0.000841069
-0.0130896
0.013424
-0.00112016
-0.0103985
0.0106776
-0.00131042
-0.00840464
0.00859489
-0.00140159
-0.00691357
0.00700474
-0.00139982
-0.00577839
0.00577661
-0.0013231
-0.00489009
0.00481337
-0.00119845
-0.00416843
0.00404378
-0.0035556
0.00341662
-0.00105948
-0.000169243
-0.0214645
-0.000438252
-0.0164607
-0.000678134
-0.0128498
-0.000820164
-0.0102564
-0.000831541
-0.00839326
-0.000703003
-0.0070421
-0.000441935
-0.00603945
-6.85362e-05
-0.00526349
0.000386064
-0.00462303
-0.00405096
0.000881428
-0.000144887
-0.0213196
-0.000334364
-0.0162712
-0.000439167
-0.012745
-0.000392231
-0.0103034
-0.000162242
-0.00862325
0.000259544
-0.00746389
0.000865861
-0.00664577
0.00163603
-0.00603365
0.00253594
-0.00552294
-0.00503265
0.00351763
-0.000110722
-0.0212089
-0.000194255
-0.0161877
-0.000124899
-0.0128143
0.000159604
-0.0105879
0.00068727
-0.00915091
0.00146591
-0.00824253
0.00248938
-0.00766924
0.00373877
-0.00728304
0.00517954
-0.00696372
-0.00661019
0.00675709
-6.56449e-05
-0.0211433
-1.55367e-05
-0.0162378
0.000267539
-0.0130974
0.000836857
-0.0111572
0.00171392
-0.010028
0.0029036
-0.00943221
0.0044007
-0.00916634
0.00619018
-0.00907252
0.00824125
-0.0090148
-0.00886517
0.0104962
-7.94879e-06
-0.0211353
0.000206141
-0.0164518
0.000744977
-0.0136362
0.00164771
-0.0120599
0.00292452
-0.0113048
0.00457307
-0.0110808
0.00658621
-0.0111795
0.00895326
-0.0114396
0.0116523
-0.0117139
-0.0118426
0.0146298
6.4502e-05
-0.0211998
0.000476068
-0.0168634
0.00131617
-0.0144763
0.00260435
-0.0133481
0.00433368
-0.0130341
0.00648776
-0.0132348
0.00905053
-0.0137423
0.0120112
-0.0144002
0.0153599
-0.0150626
-0.0155422
0.0190594
0.000153582
-0.0213534
0.000798048
-0.0175079
0.00198685
-0.0156651
0.00371534
-0.0150766
0.00595394
-0.0152727
0.0086641
-0.015945
0.0118093
-0.0168875
0.0153658
-0.0179567
0.0193314
-0.0190282
-0.0199259
0.0237151
0.00026016
-0.0216135
0.00117127
-0.018419
0.00275316
-0.017247
0.00497497
-0.0172984
0.0077823
-0.0180801
0.0111093
-0.0192719
0.0148868
-0.020665
0.0190544
-0.0221242
0.0235949
-0.0235687
-0.024966
0.028635
0.000384072
-0.0219976
0.00158629
-0.0196212
0.00359216
-0.0192529
0.00634662
-0.0200529
0.00977709
-0.0215105
0.0138027
-0.0232976
0.0183357
-0.0251981
0.0232737
-0.0270622
0.0285
-0.0287951
-0.0304304
0.0339645
0.0302384
0.00118674
-0.0314252
0.029047
0.00119148
0.0278776
0.00116937
0.0267558
0.00112176
0.0257038
0.00105202
0.0247396
0.000964256
0.023877
0.000862506
0.023127
0.000750097
0.0224978
0.000629184
0.000500145
0.0402376
0.00370745
-0.0427584
0.0375982
0.00383089
0.0349106
0.00385703
0.0322421
0.00379023
0.0296552
0.00363888
0.0272055
0.00341404
0.0249404
0.00312755
0.0229003
0.0027902
0.0211187
0.00241079
0.00199764
0.0490472
0.00687721
-0.0522169
0.0456077
0.00727036
0.0419916
0.00747314
0.0382946
0.00748721
0.0346112
0.00732232
0.0310306
0.00699464
0.0276346
0.00652358
0.0244967
0.00592803
0.0216835
0.00522408
0.00442821
0.0563231
0.0102183
-0.0596642
0.0525599
0.0110335
0.0484721
0.0115609
0.0441678
0.0117915
0.0397608
0.0117294
0.0353652
0.0113902
0.0310916
0.0107971
0.027046
0.00997364
0.0233318
0.00893823
0.00770717
0.0620122
0.013417
-0.0652109
0.0582619
0.0147838
0.054047
0.0157758
0.0494727
0.0163658
0.0446575
0.0165446
0.0397276
0.0163201
0.0348119
0.0157129
0.0300409
0.0147447
0.0255533
0.0134258
0.01175
0.0662327
0.0162923
-0.069108
0.0627125
0.018304
0.0586143
0.0198739
0.0540278
0.0209523
0.0490626
0.0215098
0.0438427
0.0215401
0.0385006
0.021055
0.0331764
0.0200688
0.0280328
0.0185694
0.0164852
0.0691875
0.0187633
-0.0716584
0.0660183
0.0214731
0.0621932
0.023699
0.0577791
0.0253665
0.0528663
0.0264226
0.0475639
0.0268424
0.0419917
0.0266272
0.0362778
0.0257827
0.030582
0.0242652
0.0218692
0.0711035
0.0208177
-0.073158
0.0683341
0.0242426
0.064868
0.0271651
0.0607473
0.0294872
0.0560381
0.0311317
0.0508262
0.0320544
0.0452051
0.0322483
0.0392634
0.0317244
0.0331062
0.0304224
0.0279132
0.0721914
0.0224858
-0.0738595
0.069821
0.026613
0.0667472
0.0302389
0.0629896
0.0332448
0.058591
0.0355303
0.0536128
0.0370326
0.0481182
0.0377429
0.0421364
0.0377062
0.0356306
0.0369282
0.0347487
0.0726212
-0.0739571
0.0238217
0.0706164
0.0286177
0.0679293
0.0329261
0.0645634
0.0366106
0.0605437
0.03955
0.0559141
0.0416622
0.0507209
0.0429361
0.0449602
0.0434669
0.0384378
0.0434505
0.0427561
0.0367868
-0.000325074
-0.0364617
0.0369096
-0.000122854
0.0368256
8.40458e-05
0.0365376
0.000287995
0.0360548
0.000482736
0.0353924
0.000662381
0.034571
0.000821491
0.0336156
0.000955307
0.0325559
0.00105977
0.0011307
0.0509552
-0.00149937
-0.049781
0.0517031
-0.000870748
0.0520128
-0.00022562
0.0518787
0.000422139
0.0513047
0.00105674
0.0503057
0.00166136
0.0489083
0.00221889
0.0471506
0.00271301
0.0450814
0.00312893
0.00345375
0.0589839
-0.00346818
-0.0570151
0.0604378
-0.00232467
0.0613499
-0.00113772
0.0616986
7.34615e-05
0.0614718
0.00128355
0.0606696
0.00246354
0.0593062
0.00358233
0.0574107
0.00460844
0.0550279
0.00551173
0.00626475
0.0629723
-0.00607414
-0.0603663
0.0650567
-0.00440903
0.0665781
-0.00265916
0.0674987
-0.000847095
0.0677889
0.000993315
0.0674307
0.00282173
0.0664196
0.00459344
0.0647666
0.00626148
0.0624995
0.00777876
0.00910009
0.064432
-0.00914036
-0.0613658
0.0670135
-0.00699054
0.0690559
-0.00470155
0.0705076
-0.00229882
0.0713257
0.000175223
0.0714774
0.00267005
0.0709416
0.00512928
0.0697105
0.00749252
0.0677919
0.00969734
0.0116811
0.0644221
-0.0125155
-0.061047
0.0673684
-0.00993682
0.0698152
-0.00714837
0.0717008
-0.00418437
0.0729751
-0.00109914
0.073598
0.00204713
0.0735383
0.005189
0.0727744
0.00825643
0.0712962
0.0111755
0.0138694
0.063644
-0.0160973
-0.0600622
0.0668524
-0.0131453
0.0695934
-0.00988932
0.0718006
-0.00639155
0.0734262
-0.00272476
0.0744313
0.00104198
0.0747824
0.0048379
0.0744507
0.00858818
0.0734137
0.0122126
0.0156247
0.0625453
-0.0198492
-0.0587934
0.065946
-0.016546
0.0688841
-0.0128274
0.0713028
-0.00881027
0.0731683
-0.00459026
0.074451
-0.000240751
0.075121
0.00416796
0.0751475
0.0085616
0.0745015
0.0128586
0.0169682
0.06143
-0.0237939
-0.0574853
0.0649521
-0.0200681
0.0679873
-0.0158626
0.0705117
-0.0113346
0.0725135
-0.00659203
0.0739748
-0.00170211
0.0748708
0.00327202
0.0751715
0.00826089
0.0748448
0.0131853
0.0179535
0.0604895
-0.0564282
-0.0278552
0.0640333
-0.0236118
0.067048
-0.0188774
0.0695832
-0.0138698
0.0716378
-0.00864665
0.0731979
-0.00326217
0.0742402
0.0022297
0.0747358
0.00776528
0.0746525
0.0132685
0.0186489
0.0423553
0.0134258
-0.00814567
-0.0476354
0.0369906
0.0141617
-0.00879707
0.0315429
0.0150365
-0.00958876
0.0260286
0.0160978
-0.0105835
0.0204917
0.0174043
-0.0118674
0.0150264
0.0190072
-0.013542
0.00981296
0.0209127
-0.0156993
0.00516899
0.0230078
-0.0183639
0.00162081
0.0249305
-0.0213823
0.0258519
-0.0242311
0.0421261
0.0186787
-0.047379
0.0367872
0.0195006
0.0313644
0.0204594
0.0258745
0.0215877
0.0203617
0.0229171
0.014921
0.0244479
0.00973387
0.0260999
0.00511923
0.0276225
0.00160154
0.0284482
0.0274534
0.0415238
0.0238742
-0.0467193
0.036242
0.0247824
0.0308776
0.0258237
0.0254489
0.0270165
0.0200014
0.0283646
0.0146318
0.0298174
0.00952281
0.0312089
0.00499161
0.0321537
0.00155332
0.0318865
0.0290068
0.0405518
0.0289844
-0.045662
0.0353568
0.0299775
0.0300835
0.031097
0.0247523
0.0323477
0.0194113
0.0337056
0.0141597
0.035069
0.00918085
0.0361877
0.00478767
0.0365469
0.001478
0.0351962
0.0304848
0.0392129
0.0339836
-0.0442122
0.0341331
0.0350573
0.028983
0.0362472
0.0237858
0.0375449
0.0185929
0.0388985
0.0135064
0.0401555
0.00871014
0.040984
0.00450946
0.0407475
0.00137682
0.0383288
0.0318616
0.0375067
0.0388481
-0.0423712
0.0325701
0.0399939
0.0275757
0.0412415
0.02255
0.0425707
0.0175478
0.0439006
0.0126748
0.0450286
0.00811394
0.0455448
0.00415979
0.0447017
0.00125121
0.0412374
0.0331128
0.0354259
0.0435533
-0.0401311
0.0306624
0.0447573
0.0258593
0.0460446
0.0210453
0.0473846
0.016279
0.0486669
0.011669
0.0496385
0.00739705
0.0498168
0.00374266
0.0483561
0.00110314
0.0438769
0.0342159
0.0329514
0.0480672
-0.0374653
0.0283983
0.0493105
0.0238296
0.0506133
0.019273
0.0519412
0.014791
0.0531489
0.0104959
0.0539337
0.00656644
0.0537462
0.00326365
0.0516589
0.000935252
0.0462053
0.0351512
0.0300369
0.052353
-0.0343227
0.0257566
0.0535908
0.0214838
0.0548861
0.0172387
0.0561863
0.0130933
0.0572943
0.00916621
0.0578607
0.00563248
0.05728
0.00273071
0.0545606
0.000751475
0.0481845
0.0359027
0.0266316
-0.0307068
0.0227371
0.0188298
0.014954
0.0112013
0.00769626
0.00460989
0.00215544
0.000559024
0.0246303
-0.0358217
0.0400903
-0.028899
0.0206464
-0.035623
0.0396068
0.0168061
-0.0350899
0.0389302
0.0131332
-0.0340481
0.037721
0.00970209
-0.0321724
0.0356036
0.00661008
-0.028988
0.0320801
0.0039713
-0.0238459
0.0264847
0.00190654
-0.0159037
0.0179685
0.000536874
-0.00411827
0.00548793
0.012818
-0.0122811
0.0280623
-0.0314969
-0.0323871
0.0237893
-0.0313499
0.0196021
-0.0309027
0.0155418
-0.0299878
0.0116819
-0.0283125
0.00812511
-0.0254313
0.00500232
-0.0207232
0.00247187
-0.0133733
0.000722723
-0.00236911
0.0135407
0.0310766
-0.0270188
-0.0355547
0.0265772
-0.0268505
0.022109
-0.0264345
0.0177231
-0.0256019
0.0134931
-0.0240825
0.00952523
-0.0214634
0.00596501
-0.0171629
0.00300501
-0.0104133
0.000898895
-0.000262995
0.0144396
0.033707
-0.0223719
-0.0383539
0.0290145
-0.022158
0.024315
-0.021735
0.0196569
-0.0209439
0.0151118
-0.0195374
0.0107874
-0.0171391
0.00684082
-0.0132163
0.00349465
-0.00706708
0.00106235
0.0021693
0.0155019
0.035993
-0.0175648
-0.0408001
0.0311272
-0.0172922
0.0262292
-0.016837
0.0213406
-0.0160553
0.0165282
-0.014725
0.0118988
-0.0125097
0.00761742
-0.008935
0.00393212
-0.00338178
0.0012096
0.00489182
0.0167115
0.0379413
-0.0126134
-0.0428927
0.0329227
-0.0122736
0.0278551
-0.0117694
0.0227726
-0.0109728
0.0177364
-0.0096888
0.0128508
-0.007624
0.00828607
-0.00437028
0.00431081
0.000593479
0.00133774
0.00786489
0.0180493
0.0395462
-0.00753921
-0.0446204
0.0343993
-0.00712668
0.0291912
-0.0065613
0.0239503
-0.00573189
0.0187319
-0.0044704
0.0136372
-0.00252936
0.00884019
0.000426777
0.0046256
0.00480806
0.00144448
0.011046
0.0194937
0.0407989
-0.0023682
-0.0459699
0.0355511
-0.00187892
0.0302335
-0.00124371
0.0248695
-0.0003679
0.0195099
0.000889229
0.0142529
0.00272761
0.00927462
0.00540509
0.00487252
0.00921016
0.001528
0.0143905
0.0210217
0.0416899
0.00287052
-0.0469286
0.0363713
0.00343959
0.0309767
0.00415089
0.025526
0.00508287
0.0200662
0.00634897
0.0146935
0.00810032
0.00958535
0.0105132
0.00504866
0.0137469
0.00158713
0.0178521
0.0226089
0.0422115
-0.0474867
0.0368541
0.0314162
0.0259156
0.0203971
0.0149555
0.00976946
0.00515245
0.00162221
0.0442364
0.0213452
-0.0254912
0.0477385
0.0174088
-0.0209109
0.0506512
0.0129768
-0.0158895
0.0530235
0.0082222
-0.0105945
0.0548433
0.00328997
-0.00510977
0.0560818
-0.0017192
0.000480695
0.0567002
-0.00670328
0.00608491
0.0566568
-0.0115486
0.011592
0.0559138
-0.01613
0.016873
-0.0203135
0.0544437
0.0217836
0.0434702
0.0174819
0.0468778
0.0140012
0.0497362
0.0101184
0.0520079
0.00595048
0.0536714
0.00162651
0.0546973
-0.00274514
0.0550509
-0.00705689
0.0546981
-0.0111958
0.053612
-0.0150439
-0.0184818
0.0517803
0.0425131
0.013899
0.0456978
0.0108165
0.0483553
0.0074609
0.0504122
0.00389362
0.0518246
0.000214057
0.0525565
-0.003477
0.0525761
-0.00707651
0.0518595
-0.0104791
0.0503955
-0.0135799
-0.0162789
0.0481925
0.0410302
0.0105898
0.04391
0.00793664
0.0462562
0.00511469
0.0479894
0.00216043
0.0490556
-0.00085214
0.0494164
-0.00383778
0.0490465
-0.00670664
0.0479357
-0.00936831
0.0460925
-0.0117366
-0.0137348
0.0435485
0.0385958
0.00759757
0.0411044
0.00542798
0.0430541
0.00316504
0.0443767
0.000837824
0.0450229
-0.00149836
0.0449616
-0.00377647
0.0441801
-0.00592512
0.0426859
-0.00787409
0.0405089
-0.00955965
-0.0109294
0.0377035
0.0346792
0.0049984
0.0367497
0.00335755
0.0382387
0.00167597
0.0390975
-2.09731e-05
0.0392921
-0.00169291
0.038807
-0.00329138
0.0376475
-0.00476561
0.0358409
-0.00606746
0.0334371
-0.00715595
-0.00800091
0.0305086
0.0286048
0.00287834
0.0301804
0.00178196
0.0311786
0.000677798
0.0315722
-0.000414652
0.0313481
-0.00146877
0.0305106
-0.00245389
0.0290841
-0.00333906
0.0271131
-0.00409655
0.024662
-0.00470483
-0.0051508
0.0218119
0.0195348
0.00131202
0.0205915
0.000725219
0.0211237
0.000145586
0.0211252
-0.000416095
0.0206023
-0.000945926
0.019577
-0.00142861
0.0180875
-0.00184952
0.0161875
-0.00219659
0.0139445
-0.00246182
-0.00264248
0.0114362
0.00645435
0.000345607
0.00702078
0.000158782
0.00718701
-2.064e-05
0.00696143
-0.000190517
0.00636221
-0.000346708
0.00541837
-0.000484766
0.0041696
-0.000600746
0.00266478
-0.000691774
0.000959532
-0.000756577
-0.000796537
-0.000886406
-0.0119355
-0.0117767
-0.0117973
-0.0119879
-0.0123346
-0.0128193
-0.0134201
-0.0141119
-0.0148684
-0.015665
0.052239
-0.0239811
0.0261859
0.0493158
-0.0269725
0.0298957
0.0457247
-0.0292114
0.0328026
0.0415491
-0.0306483
0.0348239
0.0368983
-0.0312932
0.035944
0.031889
-0.0312159
0.0362252
0.0266139
-0.0305242
0.0357993
0.02109
-0.0292994
0.0348233
0.0151995
-0.0274096
0.0333001
-0.0239267
0.00842918
0.030697
0.0492143
-0.0214151
0.0459526
-0.0237108
0.0420676
-0.0253264
0.0376614
-0.0262422
0.032855
-0.0264868
0.0277683
-0.0261292
0.0224919
-0.0252478
0.0170587
-0.0238662
0.011472
-0.0218229
-0.0185252
0.00607057
0.0452848
-0.0185073
0.0417358
-0.0201619
0.0376393
-0.0212299
0.0331125
-0.0217154
0.0282842
-0.0216585
0.0232768
-0.0211218
0.0181896
-0.0201606
0.0130983
-0.0187748
0.00811862
-0.0168432
-0.014069
0.00366234
0.0403613
-0.0153202
0.0366175
-0.016418
0.0324269
-0.0170392
0.0279152
-0.0172038
0.0232124
-0.0169557
0.0184389
-0.0163483
0.0136993
-0.015421
0.00909321
-0.0141688
0.00476918
-0.0125192
-0.0103472
0.00104747
0.034347
-0.0119637
0.0305423
-0.0126134
0.026407
-0.012904
0.0220663
-0.0128631
0.0176426
-0.012532
0.0132474
-0.0119531
0.00897982
-0.0111534
0.00494068
-0.0101296
0.00126564
-0.00884415
-0.00725529
-0.00182632
0.0271443
-0.00859935
0.0234538
-0.0089229
0.0195517
-0.00900187
0.0155524
-0.00886378
0.0115627
-0.00854219
0.00767711
-0.00806751
0.00398071
-0.00745704
0.000559663
-0.00670857
-0.00248012
-0.00580437
-0.0047356
-0.00499981
0.0186522
-0.00543961
0.0152876
-0.00555836
0.0118187
-0.00553297
0.00834022
-0.00538526
0.00493639
-0.00513836
0.00168001
-0.00481113
-0.00136412
-0.00441291
-0.00413104
-0.00394165
-0.00654667
-0.00338874
-0.00275447
-0.0085278
0.00873965
-0.00274304
0.00594319
-0.0027619
0.00312408
-0.00271386
0.000351212
-0.00261239
-0.00231706
-0.00247009
-0.00483201
-0.00229619
-0.0071506
-0.00209432
-0.00922992
-0.00186233
-0.011023
-0.00159569
-0.00129567
-0.0124818
-0.00281885
-0.000810597
-0.00477693
-0.000803832
-0.00671217
-0.000778614
-0.008584
-0.00074055
-0.0103603
-0.000693821
-0.0120154
-0.000641103
-0.0135267
-0.000583
-0.0148709
-0.000518082
-0.0160223
-0.000444361
-0.000363395
-0.0169545
-0.0164756
-0.0172794
-0.018058
-0.0187986
-0.0194924
-0.0201335
-0.0207165
-0.0212346
-0.0216789
-0.0220423
0.000262968
-0.0223053
0.000962413
-0.017654
0.00206384
-0.0135832
0.00355879
-0.0100227
0.00544655
-0.00688757
0.00772369
-0.00410346
0.0103773
-0.00160619
0.0133751
0.000664553
0.0166712
0.00277445
0.00481237
0.0202881
0.000176171
-0.0224815
0.00065123
-0.018129
0.00141086
-0.0143428
0.00245315
-0.011065
0.00377809
-0.00821251
0.0053826
-0.00570797
0.007261
-0.00348459
0.00941325
-0.0014877
0.0118765
0.000311242
0.00187379
0.014815
9.45015e-05
-0.022576
0.000368671
-0.0184032
0.000829658
-0.0148038
0.00148882
-0.0117242
0.00235766
-0.00908134
0.00344733
-0.00679764
0.00477181
-0.00480907
0.00635427
-0.00307016
0.00823295
-0.00156743
-0.000341457
0.0104482
2.25647e-05
-0.0225985
0.000123552
-0.0185042
0.000332697
-0.015013
0.000675767
-0.0120673
0.00117534
-0.00958091
0.00185226
-0.00747456
0.00272811
-0.00568493
0.00382686
-0.00416891
0.00517034
-0.00291091
-0.00192718
0.00675606
-3.8803e-05
-0.0225597
-8.25684e-05
-0.0184604
-8.01554e-05
-0.0150154
6.82826e-06
-0.0121543
0.000208429
-0.00978251
0.000548911
-0.00781504
0.00104852
-0.00618454
0.00172318
-0.00484357
0.00257915
-0.00376688
-0.00294934
0.00360131
-8.97096e-05
-0.02247
-0.000250301
-0.0182998
-0.000411706
-0.014854
-0.000525695
-0.0120403
-0.000558322
-0.00974988
-0.000486087
-0.00788727
-0.000293791
-0.00637683
2.56046e-05
-0.00516296
0.000468069
-0.00420935
-0.00349517
0.0010139
-0.000130163
-0.0223398
-0.000379825
-0.0180502
-0.000662876
-0.0145709
-0.000923878
-0.0117793
-0.00112746
-0.00954631
-0.00125284
-0.00776188
-0.00129057
-0.0063391
-0.0012409
-0.00521264
-0.00111417
-0.00433608
-0.00367758
-0.00093176
-0.000159818
-0.02218
-0.000470315
-0.0177397
-0.000832169
-0.0142091
-0.00118472
-0.0114267
-0.00149249
-0.00923854
-0.00173795
-0.00751642
-0.00191688
-0.00616018
-0.00203525
-0.00509427
-0.00210786
-0.00426346
-0.00362814
-0.0021573
-0.000177987
-0.022002
-0.000520452
-0.0173972
-0.000917331
-0.0138122
-0.00130398
-0.0110401
-0.0016453
-0.00889722
-0.00192682
-0.0072349
-0.00214868
-0.00593831
-0.0023216
-0.00492134
-0.00246428
-0.00412078
-0.003491
-0.00260143
-0.000183099
-0.000529092
-0.000917302
-0.0012798
-0.00158212
-0.00181228
-0.00197398
-0.00208196
-0.00215896
-0.00223334
-0.00085178
-0.00972281
0.00951511
0.0018458
-0.0124076
0.00971005
0.00553191
-0.0143039
0.0106178
0.00977894
-0.0168463
0.0125993
0.0142562
-0.0187322
0.0142549
0.0186814
-0.0192159
0.0147907
0.0229638
-0.0179813
0.013699
0.0270448
-0.0147543
0.0106732
0.0309263
-0.00976199
0.00588051
0.034608
-0.00420244
0.000520782
0.0381194
-0.000254261
-0.00325711
0.0413925
-0.000945369
-0.00232778
0.044335
-0.00938003
0.00643753
0.0465992
-0.0233901
0.0211259
0.0482591
-0.0414613
0.0398013
0.0493311
-0.039825
0.0387531
0.0505616
-0.0241699
0.0229394
0.0519067
0.0208047
-0.0221499
0.0540668
0.0464746
-0.0486347
0.00693889
-0.00867715
0.00161564
-0.010457
0.00449759
-0.0152896
0.00822271
-0.018029
0.0123507
-0.0209744
0.0166227
-0.0230042
0.0208072
-0.0234003
0.0248454
-0.0220196
0.0287079
-0.0186168
0.0324143
-0.0134683
0.0359695
-0.00775764
0.0393893
-0.0036741
0.0425766
-0.00413267
0.045398
-0.0122014
0.0474919
-0.025484
0.0489211
-0.0428905
0.0497683
-0.0406722
0.0508235
-0.0252251
0.0521454
0.0194828
0.0544092
0.0442108
0.00514799
0.00491575
-0.0118551
0.00796029
-0.0183341
0.0116632
-0.0217319
0.015585
-0.0248962
0.0195589
-0.0269781
0.023417
-0.0272584
0.0271337
-0.0257363
0.0307075
-0.0221906
0.0341731
-0.0169339
0.0375395
-0.0111241
0.0408092
-0.00694377
0.0438596
-0.00718306
0.0465229
-0.0148648
0.0484306
-0.0273917
0.0496335
-0.0440934
0.0502708
-0.0413095
0.0511618
-0.0261161
0.052466
0.0181786
0.054831
0.0418459
0.00329269
0.00891295
-0.014011
0.0120741
-0.0214953
0.0156728
-0.0253305
0.019302
-0.0285254
0.0228967
-0.0305728
0.02636
-0.0307217
0.0296971
-0.0290734
0.0329308
-0.0254243
0.0361066
-0.0201098
0.039236
-0.0142535
0.0423085
-0.0100162
0.0451809
-0.0100555
0.0476588
-0.0173427
0.0493736
-0.0291065
0.0503644
-0.0450842
0.0508168
-0.0417619
0.0515632
-0.0268624
0.0528603
0.0168814
0.0553256
0.0393806
0.00135992
0.0134418
-0.0169565
0.0166452
-0.0246987
0.0200349
-0.0287202
0.023287
-0.0317775
0.0264366
-0.0337223
0.0294575
-0.0337425
0.0323798
-0.0319957
0.0352439
-0.0282884
0.0381012
-0.0229671
0.0409628
-0.0171151
0.0438058
-0.0128593
0.0464722
-0.0127219
0.0487493
-0.0196197
0.0502753
-0.0306325
0.0510788
-0.0458876
0.0513809
-0.0420641
0.0520109
-0.0274924
0.0533161
0.0155761
0.0558829
0.0368138
-0.000665184
0.0183099
-0.0206367
0.0214503
-0.0278392
0.0245074
-0.0317773
0.0273031
-0.0345732
0.0299606
-0.0363799
0.0325151
-0.036297
0.0350121
-0.0344927
0.0375012
-0.0307775
0.0400335
-0.0254994
0.0426163
-0.0196978
0.0452154
-0.0154584
0.047663
-0.0151694
0.0497368
-0.0216935
0.0510891
-0.0319848
0.0517394
-0.046538
0.0519347
-0.0422594
0.0524847
-0.0280423
0.053819
0.0142418
0.0564919
0.0341409
-0.00279987
0.0232917
-0.0248689
0.0262323
-0.0307798
0.0288275
-0.0343725
0.0311013
-0.0368469
0.0332441
-0.0385228
0.0353345
-0.0383873
0.0374215
-0.0365798
0.0395547
-0.0329107
0.0417782
-0.0277229
0.044092
-0.0220117
0.0464513
-0.0178177
0.0486834
-0.0174015
0.0505652
-0.0235753
0.0517691
-0.0331887
0.0523091
-0.0470779
0.0524484
-0.0423987
0.0529624
-0.0285564
0.0543525
0.0128518
0.0571404
0.031353
-0.00506414
0.0281293
-0.0292831
0.0306975
-0.033348
0.0327179
-0.0363929
0.0344305
-0.0385595
0.0360665
-0.0401587
0.0377234
-0.0400442
0.0394418
-0.0382982
0.0412618
-0.0347307
0.0432148
-0.0296758
0.0452901
-0.024087
0.0474323
-0.01996
0.0494685
-0.0194376
0.0511826
-0.0252894
0.0522732
-0.0342793
0.0527523
-0.0475571
0.0528921
-0.0425385
0.0534207
-0.0290851
0.0548986
0.0113739
0.0578152
0.0284364
-0.00748098
0.0326557
-0.0333038
0.0346042
-0.0352966
0.0359512
-0.0377398
0.0370904
-0.0396988
0.038254
-0.0413223
0.03953
-0.0413202
0.0409393
-0.0397075
0.0425052
-0.0362966
0.0442417
-0.0314123
0.0461243
-0.0259696
0.0480873
-0.021923
0.049961
-0.0213113
0.0515435
-0.0268719
0.0525643
-0.0353002
0.0530378
-0.0480305
0.0532385
-0.0427392
0.0538367
-0.0296833
0.0554393
0.00977126
0.0585029
0.0253728
-0.0100763
0.036944
-0.0362833
0.0378933
-0.0362458
0.0384334
-0.03828
0.0390037
-0.040269
0.0397358
-0.0420544
0.0406863
-0.0422706
0.0418462
-0.0408675
0.0432174
-0.0376677
0.0447932
-0.0329881
0.0465329
-0.0277094
0.0483615
-0.0237516
0.0501143
-0.023064
0.0516106
-0.0283682
0.0526124
-0.036302
0.0531399
-0.0485581
0.0534657
-0.0430649
0.0541896
-0.0304072
0.0559591
0.00800185
0.0591891
0.0221428
-0.0128799
0.118251
-0.0278012
-0.126733
0.11373
-0.0317253
0.110991
-0.0355402
0.109158
-0.0384368
0.10769
-0.0405862
0.106554
-0.0411349
0.105723
-0.040036
0.105276
-0.037221
0.105338
-0.0330498
0.106004
-0.0283756
0.10727
-0.0250178
0.108851
-0.024645
0.110168
-0.029685
0.11052
-0.0366542
0.109365
-0.0474025
0.10729
-0.0409907
0.105637
-0.0287542
0.106517
0.00712167
0.110607
0.018053
-0.0157991
0.165567
-0.017261
-0.176107
0.157324
-0.023482
0.151391
-0.0296072
0.146973
-0.0340194
0.143375
-0.0369874
0.140449
-0.0382093
0.1381
-0.0376869
0.136354
-0.035475
0.135298
-0.0319939
0.134988
-0.0280659
0.135383
-0.0254128
0.136144
-0.0254055
0.136647
-0.0301885
0.136171
-0.0361777
0.134112
-0.0453437
0.131212
-0.0380909
0.12877
-0.0263115
0.129409
0.00648258
0.13352
0.013942
-0.018565
0.216743
-0.00667109
-0.227333
0.207637
-0.014376
0.199727
-0.0216973
0.193112
-0.0274038
0.187438
-0.0313138
0.182605
-0.0333759
0.178551
-0.0336329
0.175291
-0.0322151
0.172887
-0.0295903
0.171352
-0.0265303
0.170593
-0.0246539
0.170222
-0.0250344
0.169588
-0.0295545
0.167996
-0.0345865
0.16483
-0.0421769
0.16102
-0.0342813
0.157736
-0.0230279
0.158058
0.00616107
0.161917
0.0100828
-0.0208667
0.268166
0.00182425
-0.276661
0.260267
-0.00647758
0.252355
-0.0137847
0.2449
-0.0199488
0.238051
-0.0244654
0.231884
-0.0272089
0.226467
-0.0282153
0.221876
-0.0276247
0.218195
-0.0259087
0.21541
-0.0237458
0.213387
-0.0226305
0.2117
-0.0233472
0.2097
-0.0275543
0.206783
-0.0316696
0.202388
-0.0377824
0.197706
-0.0295991
0.193671
-0.0189929
0.193678
0.00615394
0.196946
0.00681503
-0.0223063
0.317693
0.00715198
-0.32302
0.311995
-0.000779994
0.305635
-0.00742423
0.298879
-0.0131935
0.292158
-0.0177441
0.285741
-0.0207916
0.27982
-0.0222948
0.274557
-0.0223617
0.27008
-0.0214319
0.266383
-0.0200485
0.263299
-0.0195469
0.260394
-0.0204422
0.257047
-0.0242073
0.252811
-0.0274328
0.247253
-0.0322252
0.241912
-0.0242582
0.237421
-0.0145014
0.237248
0.00632659
0.239626
0.00443693
-0.0224503
0.366367
0.00935077
-0.368566
0.362926
0.00266082
0.358557
-0.00305491
0.353336
-0.00797255
0.347652
-0.0120605
0.34189
-0.0150295
0.33633
-0.0167341
0.331178
-0.0172097
0.326586
-0.0168405
0.32256
-0.0160226
0.318908
-0.0158946
0.315208
-0.0167417
0.31087
-0.0198698
0.305646
-0.0222086
0.299251
-0.0258307
0.293655
-0.0186624
0.289206
-0.0100518
0.289153
0.00637996
0.290542
0.00304719
-0.0209476
0.417204
0.00911083
-0.416964
0.415705
0.00416004
0.413067
-0.000417079
0.409426
-0.00433169
0.405021
-0.00765562
0.400227
-0.0102349
0.395383
-0.0118901
0.390736
-0.012563
0.386443
-0.0125479
0.382525
-0.0121044
0.37877
-0.0121389
0.374791
-0.0127629
0.370009
-0.0150884
0.364375
-0.0165742
0.357673
-0.019129
0.352313
-0.0133025
0.348475
-0.00621402
0.34894
0.00591577
0.349579
0.00240811
-0.017685
0.473619
0.00716256
-0.47167
0.473768
0.00401096
0.472549
0.000801385
0.470214
-0.00199644
0.466939
-0.00438078
0.463016
-0.00631155
0.458793
-0.00766731
0.454569
-0.00833954
0.450526
-0.0085047
0.44673
-0.00830797
0.442979
-0.00838812
0.438969
-0.00875283
0.43412
-0.0102396
0.428562
-0.0110162
0.422029
-0.0125958
0.417238
-0.00851104
0.414384
-0.00336073
0.415659
0.00464082
0.416078
0.00198944
-0.0128734
0.539423
0.00402349
-0.536284
0.540928
0.00250615
0.540902
0.000827514
0.539584
-0.00067869
0.537167
-0.00196387
0.533881
-0.00302557
0.530032
-0.00381869
0.525954
-0.00426151
0.521875
-0.00442491
0.517936
-0.00436902
0.513979
-0.00443189
0.509819
-0.00459227
0.504888
-0.00530877
0.499482
-0.00560965
0.493226
-0.00634034
0.488945
-0.00422967
0.487017
-0.00143271
0.489087
0.00257028
0.489809
0.00126759
-0.00691361
0.619795
-0.615772
0.622301
0.623129
0.62245
0.620486
0.617461
0.613642
0.60938
0.604956
0.600586
0.596155
0.591562
0.586254
0.580644
0.574304
0.570074
0.568641
0.571211
0.572479
0.167681
0.0228384
-0.166698
0.167887
0.0284116
0.167134
0.0336794
0.165235
0.0385094
0.162024
0.0427615
0.157385
0.0463008
0.151303
0.0490182
0.143913
0.0508574
0.135574
0.0517895
0.0515966
0.191933
0.0208648
-0.18996
0.193596
0.0267489
0.194801
0.0324748
0.195377
0.0379335
0.195138
0.0430003
0.193897
0.0475414
0.191487
0.051428
0.187784
0.0545605
0.182666
0.056908
0.0581551
0.21765
0.0183426
-0.215128
0.220289
0.02411
0.22295
0.0298133
0.225503
0.0353807
0.227774
0.0407288
0.229552
0.0457634
0.230599
0.0503819
0.230684
0.0544749
0.229632
0.0579602
0.0604537
0.246158
0.0156813
-0.243496
0.249212
0.0210559
0.252617
0.0264085
0.256304
0.0316932
0.260177
0.0368564
0.264104
0.0418358
0.267926
0.0465597
0.271454
0.0509478
0.27448
0.0549341
0.0582723
0.278519
0.0130271
-0.275865
0.281744
0.0178314
0.285529
0.0226228
0.289854
0.0273682
0.294679
0.0320317
0.299941
0.0365738
0.305549
0.0409516
0.311379
0.0451174
0.317289
0.0490244
0.052541
0.315535
0.0104084
-0.312916
0.318857
0.0145096
0.322881
0.018599
0.327598
0.0226506
0.332993
0.0266372
0.339036
0.0305307
0.345686
0.0343017
0.352884
0.0379194
0.360557
0.0413517
0.044532
0.358116
0.00783175
-0.35554
0.361517
0.011109
0.36574
0.0143756
0.37078
0.0176106
0.376625
0.0207924
0.383256
0.0238995
0.390648
0.0269103
0.398764
0.0298029
0.407561
0.0325552
0.0351285
0.407673
0.00528065
-0.405122
0.411171
0.00761097
0.415614
0.00993343
0.420992
0.0122326
0.427291
0.0144928
0.434492
0.0166987
0.442568
0.0188346
0.451485
0.0208855
0.461204
0.022836
0.0246625
0.466341
0.00270411
-0.463764
0.47
0.00395187
0.474737
0.00519601
0.480542
0.00642792
0.487396
0.00763894
0.495274
0.00882045
0.504145
0.00996394
0.513969
0.0110611
0.524701
0.0121037
0.0130799
0.537528
-0.534824
0.54148
0.546676
0.553104
0.560743
0.569563
0.579527
0.590588
0.602692
0.143464
-0.0302056
-0.141113
0.146315
-0.026463
0.149277
-0.02184
0.152255
-0.0168472
0.155173
-0.011565
0.157988
-0.00607751
0.16064
-0.000421655
0.163045
0.00535978
0.165105
0.011209
0.017056
0.170888
-0.0318745
-0.169219
0.172712
-0.0282864
0.174641
-0.0237695
0.176677
-0.0188833
0.178801
-0.0136891
0.181
-0.00827623
0.183257
-0.00267874
0.18554
0.00307691
0.187798
0.00895118
0.014894
0.202214
-0.0323323
-0.201756
0.20286
-0.028933
0.203641
-0.0245497
0.20459
-0.0198333
0.205754
-0.0148525
0.207148
-0.00967047
0.208784
-0.00431447
0.210666
0.00119503
0.212787
0.00682969
0.0125536
0.237297
-0.0314836
-0.238145
0.236635
-0.0282709
0.236239
-0.024154
0.236143
-0.0197372
0.236392
-0.0151012
0.23701
-0.0102894
0.238017
-0.00532081
0.239426
-0.000214539
0.241251
0.00500476
0.0103085
0.276083
-0.0293259
-0.278241
0.274153
-0.0263409
0.272629
-0.0226299
0.271554
-0.018662
0.27096
-0.0145072
0.270869
-0.0101982
0.271298
-0.00575021
0.272265
-0.00118108
0.273783
0.00348628
0.00822662
0.319163
-0.0258787
-0.32261
0.316056
-0.0232339
0.31348
-0.0200543
0.311485
-0.0166671
0.310098
-0.01312
0.309338
-0.00943803
0.309223
-0.00563566
0.309772
-0.00172978
0.310999
0.0022592
0.00630912
0.367583
-0.0211787
-0.372283
0.363364
-0.0190149
0.359792
-0.0164818
0.356914
-0.0137889
0.354759
-0.0109649
0.353348
-0.00802782
0.352704
-0.00499133
0.352845
-0.00187038
0.353786
0.00131797
0.00455538
0.422784
-0.0152751
-0.428688
0.417497
-0.0137279
0.412961
-0.0119459
0.409223
-0.0100509
0.406316
-0.0080584
0.404269
-0.00598077
0.403107
-0.00382881
0.402851
-0.00161417
0.403518
0.00065041
0.0029513
0.486898
-0.00820685
-0.493967
0.480562
-0.007391
0.475072
-0.00645589
0.470479
-0.00545855
0.466827
-0.00440592
0.46415
-0.00330448
0.462482
-0.00216048
0.461848
-0.000980558
0.462271
0.000228093
0.00145785
0.563295
-0.571501
0.555904
0.549448
0.543989
0.539583
0.536279
0.534118
0.533138
0.533366
0.126775
0.00232174
-0.00223056
0.126518
0.00704193
-0.00678565
0.126103
0.012163
-0.011748
0.125532
0.0180667
-0.0174952
0.124858
0.025112
-0.0244383
0.124138
0.0343487
-0.0336288
0.123835
0.0456673
-0.0453639
0.12411
0.0633922
-0.063667
0.128853
0.0813458
-0.0860896
0.120765
-0.133025
0.147934
0.00238389
0.147754
0.00722188
0.147482