/*--------------------------------*- C++ -*----------------------------------*\
  =========                 |
  \\      /  F ield         | OpenFOAM: The Open Source CFD Toolbox
   \\    /   O peration     | Website:  https://openfoam.org
    \\  /    A nd           | Version:  6.0
     \\/     M anipulation  |
\*---------------------------------------------------------------------------*/
FoamFile
{
    version     2.0;
    format      ascii;
    class       volVectorField;
    location    "19.74";
    object      U;
}
// * * * * * * * * * * * * * * * * * * * * * * * * * * * * * * * * * * * * * //

dimensions      [0 1 -1 0 0 0 0];

internalField   nonuniform List<vector> 
2400
(
(0.0179286 -0.434433 -1.20174e-20)
(0.00563044 -0.337908 5.3704e-21)
(-0.00374771 -0.265339 -5.96579e-21)
(-0.0106623 -0.211004 -3.87746e-21)
(-0.0151158 -0.170215 -6.7682e-21)
(-0.0172133 -0.139314 9.34354e-21)
(-0.0173984 -0.115542 3.81007e-21)
(-0.0161819 -0.0968579 3.58901e-21)
(-0.014048 -0.0817693 -8.35148e-21)
(-0.0119756 -0.0692259 -6.42383e-22)
(0.0515676 -0.428108 1.34136e-20)
(0.0321071 -0.330346 -1.36708e-21)
(0.0185337 -0.258673 2.81691e-21)
(0.00958918 -0.206285 3.65533e-20)
(0.00468652 -0.167817 -2.78638e-20)
(0.00328112 -0.139171 -1.4633e-21)
(0.00459359 -0.117312 -3.29726e-22)
(0.0078726 -0.100005 -3.73894e-21)
(0.0124746 -0.0856091 -6.61623e-21)
(0.0171012 -0.0730289 -2.62604e-21)
(0.084449 -0.419593 2.48267e-20)
(0.0581018 -0.321972 2.529e-20)
(0.0412578 -0.252234 -7.3026e-20)
(0.031511 -0.202565 2.41882e-20)
(0.027524 -0.16699 4.0252e-20)
(0.0282335 -0.141029 -2.32467e-20)
(0.0324829 -0.121406 -2.01074e-20)
(0.0392647 -0.105698 1.89598e-20)
(0.0477767 -0.0920809 -4.32769e-20)
(0.0562984 -0.0794016 4.60464e-20)
(0.116553 -0.409124 -8.68554e-20)
(0.0839137 -0.313252 4.33955e-20)
(0.0649684 -0.246534 -4.30048e-20)
(0.0558246 -0.200307 2.20683e-20)
(0.0542305 -0.16811 -2.56572e-20)
(0.0585292 -0.145178 4.12265e-20)
(0.067153 -0.128059 2.23782e-20)
(0.0788325 -0.114159 -6.78316e-20)
(0.0926176 -0.101417 -6.6563e-20)
(0.106262 -0.088596 7.83026e-20)
(0.147905 -0.396928 3.53485e-21)
(0.109997 -0.304561 -1.6916e-20)
(0.090441 -0.241917 -7.60643e-21)
(0.0835287 -0.199724 -9.4302e-21)
(0.0859398 -0.171219 -6.38296e-20)
(0.0953574 -0.151487 1.04495e-20)
(0.109778 -0.137007 -7.02372e-21)
(0.127677 -0.125057 7.42375e-20)
(0.147985 -0.113296 -5.24093e-20)
(0.167831 -0.100358 -3.82247e-20)
(0.178604 -0.383225 8.4237e-20)
(0.136968 -0.296179 -8.60164e-21)
(0.118668 -0.23854 1.31437e-19)
(0.115867 -0.200753 -1.69516e-20)
(0.124043 -0.175978 8.2596e-20)
(0.140159 -0.159332 -9.45274e-21)
(0.16176 -0.147373 -7.4923e-22)
(0.187082 -0.137354 6.07109e-20)
(0.214995 -0.126643 -3.40211e-20)
(0.241936 -0.113719 6.58124e-20)
(0.20883 -0.368217 -3.19246e-20)
(0.165598 -0.288274 1.13385e-20)
(0.150816 -0.236361 -3.37053e-20)
(0.154257 -0.203051 -4.24511e-20)
(0.17009 -0.181685 -4.52866e-21)
(0.194517 -0.167609 1.4034e-19)
(0.224607 -0.157659 -5.05466e-20)
(0.258377 -0.149251 2.51606e-20)
(0.294742 -0.139553 -8.72966e-20)
(0.329462 -0.126898 -5.57575e-20)
(0.238848 -0.352071 1.54018e-19)
(0.196771 -0.280875 -1.7548e-20)
(0.188135 -0.235134 -1.83592e-19)
(0.200149 -0.206028 1.03724e-20)
(0.225611 -0.187341 4.49904e-20)
(0.259926 -0.174828 -6.7258e-20)
(0.299659 -0.165814 -9.10047e-20)
(0.342613 -0.158155 1.38759e-19)
(0.38793 -0.14906 -1.17641e-20)
(0.430947 -0.136905 -1.28908e-19)
(0.269003 -0.334902 -1.29473e-19)
(0.23142 -0.273837 7.65143e-20)
(0.231834 -0.234398 1.21457e-19)
(0.254858 -0.208904 3.31981e-20)
(0.291912 -0.1918 -1.30212e-19)
(0.337575 -0.179331 8.66944e-20)
(0.38783 -0.169396 5.41444e-20)
(0.440149 -0.160444 1.1483e-19)
(0.494049 -0.15002 -7.02387e-20)
(0.545342 -0.137483 -1.03735e-19)
(0.299686 -0.316693 4.41578e-20)
(0.270399 -0.266765 -1.81758e-20)
(0.282887 -0.233484 -5.96086e-22)
(0.319348 -0.210851 3.78293e-20)
(0.369953 -0.194158 3.23461e-20)
(0.428574 -0.180127 -2.28322e-20)
(0.490688 -0.166993 -4.61882e-20)
(0.553233 -0.15345 7.41046e-20)
(0.615306 -0.13755 -6.29444e-20)
(0.67362 -0.121561 5.81358e-20)
(0.61745 -0.00932971 3.94096e-21)
(0.591 -0.0552307 1.13787e-20)
(0.561433 -0.0972981 -3.8045e-20)
(0.529696 -0.135491 3.34027e-20)
(0.496624 -0.169917 1.25699e-20)
(0.462935 -0.200816 1.5584e-19)
(0.429203 -0.228537 -5.96159e-20)
(0.39584 -0.253497 -7.98136e-20)
(0.363119 -0.276175 8.27255e-20)
(0.331148 -0.29709 -1.43284e-19)
(0.832793 0.0173848 1.39744e-20)
(0.780074 -0.0411475 -4.4999e-21)
(0.721743 -0.0922251 -3.77344e-20)
(0.659964 -0.135501 1.00031e-19)
(0.596786 -0.171043 -3.33873e-20)
(0.534073 -0.199305 2.51347e-19)
(0.473404 -0.221075 -1.55001e-19)
(0.416018 -0.237414 2.20898e-19)
(0.362789 -0.249584 -1.50227e-19)
(0.314212 -0.258952 -7.66213e-20)
(1.0184 0.0668608 -2.77565e-20)
(0.954982 -0.000840223 4.06985e-21)
(0.882648 -0.0602148 -1.20437e-19)
(0.804068 -0.110333 9.26431e-20)
(0.721986 -0.150808 -9.36406e-20)
(0.639068 -0.181799 -1.75233e-19)
(0.557743 -0.203998 -5.67577e-20)
(0.480067 -0.21858 -4.84222e-20)
(0.407653 -0.227124 1.53409e-19)
(0.341662 -0.231484 7.91472e-20)
(1.16843 0.116843 1.26764e-20)
(1.10432 0.0440615 -2.21823e-20)
(1.02815 -0.0210695 -3.00313e-20)
(0.942523 -0.0770583 -1.17762e-19)
(0.850398 -0.122944 6.86683e-20)
(0.754848 -0.158367 1.98458e-19)
(0.658874 -0.183617 8.54441e-20)
(0.565206 -0.199651 1.65486e-20)
(0.476153 -0.208068 4.52156e-20)
(0.393621 -0.211019 -1.40892e-21)
(1.28306 0.159432 -1.4944e-20)
(1.22451 0.0852544 -5.87078e-20)
(1.15143 0.0172691 7.87878e-21)
(1.06601 -0.0426245 1.01962e-19)
(0.970941 -0.0929455 1.04726e-19)
(0.869326 -0.132759 -6.90164e-20)
(0.764392 -0.1618 -1.28422e-19)
(0.659264 -0.180596 -6.19158e-20)
(0.556739 -0.190553 7.25572e-20)
(0.459333 -0.194046 9.8958e-20)
(1.36588 0.192787 3.12941e-21)
(1.31636 0.120075 4.99033e-20)
(1.25078 0.0518153 -1.16848e-19)
(1.17066 -0.00988244 1.46301e-19)
(1.07815 -0.0631551 8.62608e-20)
(0.976004 -0.106541 1.56464e-19)
(0.867317 -0.139165 -3.34531e-20)
(0.755265 -0.160979 -8.89813e-20)
(0.642748 -0.173023 2.10706e-19)
(0.532447 -0.177891 -1.71104e-19)
(1.42197 0.216854 7.67863e-21)
(1.38284 0.147555 -5.99449e-20)
(1.32711 0.0810137 -3.7302e-20)
(1.25553 0.0193622 -7.96488e-20)
(1.16955 -0.0353232 -1.12455e-20)
(1.07129 -0.0811625 -1.17061e-19)
(0.963431 -0.116674 -7.24093e-20)
(0.848852 -0.14111 -1.49804e-20)
(0.730039 -0.15494 -1.30708e-19)
(0.608874 -0.161 1.85563e-19)
(1.45665 0.23262 -6.78741e-21)
(1.42784 0.167824 5.01277e-20)
(1.38276 0.104327 -2.23081e-20)
(1.32142 0.0441269 4.98505e-20)
(1.24452 -0.0106557 1.22269e-19)
(1.15347 -0.0578619 1.98957e-19)
(1.05033 -0.0954413 -5.7164e-20)
(0.937464 -0.121789 -1.95806e-19)
(0.816416 -0.136389 5.32387e-20)
(0.686619 -0.142084 -3.0513e-19)
(1.47468 0.241694 9.88275e-21)
(1.45526 0.181718 -1.17886e-20)
(1.42052 0.121867 -1.20931e-19)
(1.3699 0.0638919 3.69383e-20)
(1.3034 0.00979898 -8.5728e-20)
(1.22174 -0.0381364 -3.55551e-20)
(1.12636 -0.0773836 -2.83172e-20)
(1.01913 -0.105294 8.14657e-20)
(0.900631 -0.119467 9.37881e-20)
(0.76589 -0.12095 5.72261e-20)
(1.47979 0.245667 -2.39789e-20)
(1.46837 0.19063 4.29955e-20)
(1.44303 0.134699 2.00835e-20)
(1.40277 0.0792847 6.1177e-20)
(1.34702 0.0261345 -7.02497e-21)
(1.27588 -0.0225599 -4.68555e-21)
(1.19029 -0.0640194 -1.5852e-19)
(1.09198 -0.0947002 2.0228e-19)
(0.981695 -0.109788 -1.25184e-19)
(0.848754 -0.104557 2.6151e-20)
(0.537665 0.499638 -5.46432e-20)
(0.577496 0.460235 6.32541e-20)
(0.610978 0.415392 1.14314e-21)
(0.637444 0.366073 -1.58022e-19)
(0.656385 0.313363 1.17647e-19)
(0.667569 0.258457 -8.84589e-20)
(0.671043 0.202573 -2.15984e-20)
(0.667121 0.146887 -2.06261e-20)
(0.656377 0.0924674 3.41802e-20)
(0.639584 0.0401947 2.3749e-21)
(0.752388 0.673946 8.03266e-20)
(0.812721 0.631575 2.15223e-20)
(0.863685 0.579081 -1.12251e-19)
(0.903735 0.518011 -1.38219e-19)
(0.931624 0.450161 1.09572e-19)
(0.946536 0.377557 -9.8593e-20)
(0.948149 0.302361 1.17826e-19)
(0.936655 0.226762 -3.0901e-20)
(0.91277 0.152864 -1.03586e-19)
(0.877679 0.0825468 -7.78849e-21)
(0.886353 0.754397 -6.08045e-21)
(0.958561 0.718036 2.12982e-21)
(1.02134 0.669343 7.46761e-20)
(1.07258 0.609797 7.57357e-20)
(1.11049 0.541188 1.74354e-19)
(1.13369 0.465607 6.27298e-20)
(1.1413 0.385377 -4.22772e-20)
(1.13301 0.30296 -9.34047e-20)
(1.10909 0.220846 7.5812e-20)
(1.07045 0.141423 5.2231e-21)
(0.967941 0.774142 2.10437e-20)
(1.046 0.746088 -5.03721e-20)
(1.11585 0.705203 -2.50851e-20)
(1.17511 0.652651 -1.43379e-19)
(1.22168 0.589914 -8.80167e-20)
(1.25377 0.518804 1.69294e-19)
(1.27006 0.441414 1.1554e-19)
(1.26968 0.360062 -9.73232e-20)
(1.25232 0.277204 4.52755e-21)
(1.2183 0.19533 -4.35223e-21)
(1.01613 0.757807 -5.62434e-20)
(1.09591 0.737518 9.67804e-20)
(1.1691 0.704953 -2.52738e-20)
(1.23321 0.660894 7.75279e-20)
(1.28604 0.606436 -5.41254e-20)
(1.32566 0.543007 -1.01989e-19)
(1.35044 0.472332 5.43854e-20)
(1.35914 0.396393 -5.75591e-20)
(1.35093 0.317376 -5.75969e-20)
(1.32551 0.237604 2.52682e-20)
(1.04396 0.722296 -1.0192e-20)
(1.12291 0.70828 1.75084e-20)
(1.19674 0.683138 -1.6713e-20)
(1.26295 0.647231 -1.46319e-19)
(1.31946 0.601287 8.45083e-20)
(1.36439 0.546377 1.69985e-20)
(1.39605 0.483855 -9.34859e-20)
(1.41301 0.415321 -3.45378e-20)
(1.41411 0.342605 3.243e-20)
(1.39854 0.267718 -9.20133e-21)
(1.06002 0.678311 -1.12313e-20)
(1.13699 0.669015 4.94874e-21)
(1.20972 0.650009 2.30466e-20)
(1.27588 0.621156 8.24524e-20)
(1.3337 0.582892 2.09775e-20)
(1.38159 0.53603 5.35247e-20)
(1.41798 0.481621 1.14143e-19)
(1.44144 0.420935 -4.88334e-20)
(1.45063 0.355447 4.58284e-20)
(1.44443 0.286818 -1.72752e-20)
(1.06985 0.63228 -1.25776e-20)
(1.1445 0.626781 1.82554e-20)
(1.21501 0.612782 1.75501e-20)
(1.27945 0.589673 -4.26426e-20)
(1.33665 0.55779 -2.81032e-20)
(1.38543 0.51783 -5.84712e-20)
(1.42445 0.470657 8.31896e-21)
(1.45239 0.417295 -1.38203e-20)
(1.4679 0.358925 -9.75271e-20)
(1.46971 0.296877 1.37298e-20)
(1.0776 0.588543 -1.92576e-21)
(1.14926 0.586597 -1.17422e-20)
(1.21636 0.576608 -1.52517e-20)
(1.27771 0.557853 9.30103e-21)
(1.33283 0.530869 -3.87327e-21)
(1.38093 0.496397 5.18421e-20)
(1.42091 0.455201 2.35075e-20)
(1.45155 0.408135 3.79985e-20)
(1.47159 0.356144 4.67943e-20)
(1.47973 0.300279 -2.01523e-20)
(1.0894 0.548704 -8.56427e-22)
(1.15617 0.548217 1.98226e-20)
(1.21779 0.540699 -5.74506e-20)
(1.27437 0.525015 -4.35625e-21)
(1.32598 0.501854 7.6907e-20)
(1.37197 0.471971 3.75297e-21)
(1.41134 0.436011 4.68155e-20)
(1.443 0.394643 -1.03907e-19)
(1.4658 0.348594 -1.2745e-21)
(1.4785 0.29865 1.06904e-20)
(0.596872 0.192595 -8.31524e-21)
(0.55611 0.208098 2.92745e-21)
(0.509422 0.226613 9.67527e-22)
(0.456028 0.249288 -1.56579e-20)
(0.395005 0.277613 6.97652e-21)
(0.325846 0.313138 2.06666e-20)
(0.248974 0.356838 -1.92664e-20)
(0.16666 0.407744 -4.95895e-21)
(0.0871138 0.460378 -5.96238e-21)
(0.0323419 0.500322 -2.19306e-20)
(0.619321 0.250261 -2.28905e-20)
(0.580449 0.270581 4.81955e-20)
(0.53569 0.294357 -4.44115e-20)
(0.484583 0.322474 -7.54352e-21)
(0.426256 0.355949 1.25581e-20)
(0.360185 0.395364 -1.48021e-20)
(0.286684 0.439937 -4.18533e-20)
(0.20766 0.485776 4.86077e-20)
(0.130396 0.522629 -7.33748e-23)
(0.0748636 0.528408 2.21994e-20)
(0.649252 0.305105 -7.63215e-20)
(0.612991 0.330008 8.12623e-20)
(0.570852 0.358812 2.83131e-20)
(0.522781 0.392079 1.54868e-21)
(0.467907 0.43035 1.82046e-20)
(0.405561 0.473244 7.16437e-21)
(0.335716 0.518251 -1.19245e-20)
(0.259516 0.558641 -2.63954e-20)
(0.182591 0.579641 -1.93278e-20)
(0.121515 0.552108 2.85113e-20)
(0.686298 0.356138 -6.32428e-20)
(0.653277 0.385278 5.94473e-20)
(0.61439 0.418745 4.77181e-20)
(0.57004 0.456704 -3.27103e-20)
(0.5193 0.499216 -1.20676e-19)
(0.461226 0.544964 3.90289e-20)
(0.395233 0.589776 -2.8088e-20)
(0.321326 0.624262 7.68888e-20)
(0.242829 0.629567 6.79293e-20)
(0.171706 0.57045 -6.00952e-20)
(0.72994 0.402471 -4.54377e-20)
(0.700676 0.435397 2.06244e-20)
(0.665579 0.473032 -5.73846e-20)
(0.625543 0.515058 4.50536e-20)
(0.579504 0.561065 -2.17763e-20)
(0.526119 0.608838 -1.83137e-20)
(0.464039 0.652652 -1.83751e-20)
(0.391801 0.680722 -3.19156e-21)
(0.309873 0.670714 -2.70332e-20)
(0.224628 0.582573 -1.6148e-20)
(0.779498 0.443346 1.14305e-19)
(0.754363 0.479511 2.32717e-20)
(0.723488 0.520687 -7.83557e-20)
(0.688238 0.565992 7.34833e-20)
(0.647321 0.614565 3.36605e-20)
(0.598875 0.66335 5.48538e-20)
(0.540601 0.705216 -3.25534e-21)
(0.469298 0.726328 3.38477e-20)
(0.382158 0.701621 8.28046e-21)
(0.279294 0.587779 3.30085e-20)
(0.834097 0.478169 -1.24371e-19)
(0.813309 0.516931 1.44116e-19)
(0.786967 0.560884 -6.98593e-20)
(0.756845 0.608515 -3.91483e-20)
(0.721306 0.658558 6.92826e-22)
(0.677852 0.70719 -5.37024e-20)
(0.623082 0.746052 3.64761e-20)
(0.551859 0.759671 4.18541e-20)
(0.457851 0.721123 5.70306e-21)
(0.334583 0.585556 -2.48042e-20)
(0.892612 0.50661 -9.00212e-21)
(0.876234 0.547157 -5.63892e-20)
(0.854622 0.592943 2.39438e-20)
(0.829854 0.64179 -5.56543e-21)
(0.799781 0.692074 -1.89911e-20)
(0.761163 0.739276 1.00254e-20)
(0.70939 0.774023 -4.08577e-21)
(0.637276 0.779672 -7.27832e-21)
(0.534906 0.72839 3.96812e-21)
(0.389285 0.575611 -7.92463e-21)
(0.953633 0.52881 1.98495e-20)
(0.941592 0.570101 6.46915e-21)
(0.924917 0.616489 -4.1063e-20)
(0.905653 0.665222 3.23739e-20)
(0.880935 0.714372 -1.57764e-20)
(0.846753 0.758793 -2.01863e-21)
(0.797242 0.788314 -6.13387e-21)
(0.723163 0.785626 -2.02082e-21)
(0.611161 0.722975 -4.74204e-20)
(0.442169 0.557895 3.01507e-20)
(1.01381 0.542465 -2.76445e-20)
(1.00578 0.583658 2.01425e-20)
(0.99513 0.62998 -7.21598e-21)
(0.981985 0.677758 -2.76064e-21)
(0.962583 0.724675 -8.78558e-21)
(0.932335 0.765107 -4.43642e-21)
(0.884204 0.788422 6.30223e-21)
(0.80704 0.777208 3.4473e-20)
(0.684431 0.704794 4.6309e-20)
(0.492059 0.53257 7.2148e-21)
(0.769686 -0.318308 1.41077e-19)
(0.740496 -0.339629 -8.81994e-20)
(0.703389 -0.359019 3.34952e-20)
(0.65774 -0.371393 -7.63568e-20)
(0.598787 -0.372044 -5.00963e-20)
(0.520495 -0.353448 -7.76394e-20)
(0.415276 -0.304689 -9.43216e-20)
(0.273596 -0.211399 -4.32051e-20)
(0.0841611 -0.0553498 -5.99483e-20)
(-0.167466 0.186277 2.97484e-20)
(0.727048 -0.284966 -8.43974e-20)
(0.696766 -0.304859 -7.00186e-20)
(0.657832 -0.323397 1.21001e-19)
(0.610522 -0.336029 5.95015e-20)
(0.551091 -0.337937 8.84526e-20)
(0.47424 -0.321559 -1.49093e-19)
(0.373361 -0.275839 5.14289e-20)
(0.240336 -0.185916 1.05423e-19)
(0.0662413 -0.0324035 7.18497e-20)
(-0.158731 0.209875 -7.67124e-20)
(0.687111 -0.245362 3.97444e-20)
(0.654905 -0.263238 -1.6149e-20)
(0.614367 -0.280187 1.71311e-19)
(0.565509 -0.292095 -1.03356e-19)
(0.505312 -0.29419 -8.41924e-20)
(0.429331 -0.27909 4.85792e-20)
(0.33208 -0.235927 -7.18537e-22)
(0.207062 -0.149877 -2.11386e-19)
(0.0480823 -0.00123979 -8.60397e-21)
(-0.149442 0.23612 6.74584e-20)
(0.652181 -0.201411 2.62608e-19)
(0.617634 -0.216505 -1.22781e-19)
(0.575238 -0.230797 4.12892e-20)
(0.524668 -0.240719 -7.05436e-20)
(0.463413 -0.241733 1.84537e-19)
(0.38784 -0.226797 -9.82538e-21)
(0.293606 -0.185514 -3.48477e-20)
(0.175919 -0.103605 5.4859e-21)
(0.0314802 0.0380503 1.74322e-20)
(-0.138771 0.265014 -8.7766e-20)
(0.623045 -0.153026 -2.26876e-19)
(0.586135 -0.164772 -2.47664e-21)
(0.541838 -0.17563 9.22284e-20)
(0.489543 -0.18257 -4.48034e-21)
(0.42713 -0.181395 -1.06107e-20)
(0.351705 -0.165567 1.21401e-19)
(0.260031 -0.125441 -2.26998e-20)
(0.149003 -0.0477993 2.79842e-20)
(0.018214 0.0849902 5.39953e-21)
(-0.125912 0.296335 1.17033e-19)
(0.600315 -0.10059 8.36238e-21)
(0.561288 -0.108522 -1.32933e-19)
(0.51528 -0.115343 1.19903e-19)
(0.461445 -0.118491 -1.05383e-20)
(0.397988 -0.11418 2.03064e-20)
(0.322668 -0.0965078 -1.02418e-19)
(0.233269 -0.0568463 -1.53217e-20)
(0.128267 0.0164795 -7.70028e-21)
(0.00996437 0.138743 -5.36254e-20)
(-0.110101 0.329661 -2.54642e-20)
(0.584515 -0.0448276 1.1683e-19)
(0.543807 -0.0485342 -1.11436e-19)
(0.496461 -0.0508251 -5.29405e-21)
(0.44146 -0.0495224 -1.32293e-19)
(0.37727 -0.0412845 7.22634e-20)
(0.302219 -0.0209533 -4.57547e-20)
(0.214987 0.0188568 3.8409e-20)
(0.115437 0.0878483 -7.37211e-20)
(0.00823296 0.198149 -6.91294e-20)
(-0.0906572 0.364388 -4.95391e-20)
(0.576051 0.0133855 7.31825e-20)
(0.534242 0.0142389 -7.43773e-20)
(0.486073 0.0168639 3.29829e-20)
(0.430432 0.023128 2.32506e-20)
(0.365999 0.0359157 -4.29314e-20)
(0.29157 0.059557 7.38224e-20)
(0.206557 0.100009 4.49891e-20)
(0.111947 0.164641 -1.36768e-19)
(0.0142779 0.261769 2.30356e-20)
(-0.0670243 0.399755 5.96719e-20)
(0.575205 0.0730674 7.76746e-20)
(0.532983 0.0787177 -1.17825e-20)
(0.484608 0.0865299 -6.75217e-21)
(0.428974 0.0981149 -5.38432e-22)
(0.36493 0.115895 2.88405e-20)
(0.291624 0.143312 -8.52159e-20)
(0.209018 0.184748 7.02698e-20)
(0.1189 0.24496 5.46913e-21)
(0.0290663 0.327937 -2.5799e-21)
(-0.0387954 0.434879 4.36269e-20)
(0.582136 0.133165 -2.25416e-20)
(0.540253 0.143737 -2.36812e-21)
(0.492361 0.156887 6.26484e-21)
(0.437461 0.173996 6.96168e-21)
(0.374536 0.197021 1.75463e-20)
(0.302967 0.228471 -1.26879e-20)
(0.223057 0.271056 -7.4465e-21)
(0.137028 0.326723 -1.1605e-20)
(0.0532476 0.394805 1.07354e-20)
(-0.00571903 0.468783 -7.85027e-21)
(0.829257 -0.351909 1.39942e-19)
(0.878942 -0.374157 -5.16627e-20)
(0.924578 -0.391009 1.35338e-20)
(0.966347 -0.400582 5.597e-20)
(1.00436 -0.403049 2.89655e-20)
(1.03773 -0.398819 2.39674e-21)
(1.06509 -0.388097 3.58798e-21)
(1.08491 -0.371095 -1.88437e-21)
(1.09554 -0.348152 -9.96116e-22)
(1.09526 -0.319797 8.96361e-22)
(0.792906 -0.369318 6.45709e-20)
(0.844673 -0.391116 5.23647e-20)
(0.893162 -0.406427 4.88605e-20)
(0.937091 -0.413966 -1.43655e-20)
(0.975773 -0.413722 -1.28613e-20)
(1.00821 -0.40604 -1.10559e-20)
(1.03303 -0.391271 2.32311e-21)
(1.04868 -0.369884 8.21794e-22)
(1.05355 -0.342543 1.57195e-21)
(1.04612 -0.310165 -1.81314e-21)
(0.754237 -0.386248 -1.89935e-19)
(0.805973 -0.405628 1.91645e-20)
(0.85492 -0.417746 -9.25643e-20)
(0.898834 -0.421827 -1.47526e-20)
(0.93634 -0.41774 4.76333e-20)
(0.966117 -0.405801 1.54698e-20)
(0.986697 -0.386527 -6.12496e-22)
(0.996565 -0.360663 -1.50247e-21)
(0.994293 -0.329212 -6.25959e-21)
(0.978704 -0.293472 1.27517e-21)
(0.707765 -0.397088 -5.01568e-20)
(0.758052 -0.41382 -7.32418e-20)
(0.80538 -0.42216 -7.03794e-21)
(0.84718 -0.421885 -2.38647e-20)
(0.881562 -0.413084 -2.50288e-20)
(0.90689 -0.396253 -2.34522e-21)
(0.921626 -0.372179 -3.78066e-21)
(0.924391 -0.341937 -1.20289e-22)
(0.914075 -0.306899 6.31388e-21)
(0.889991 -0.268726 -1.51543e-21)
(0.647507 -0.395688 -1.0882e-19)
(0.695208 -0.409293 1.14222e-19)
(0.739152 -0.413444 6.3829e-21)
(0.776788 -0.408404 -5.53272e-21)
(0.806018 -0.394655 1.33081e-20)
(0.825091 -0.373029 5.22538e-21)
(0.832555 -0.344676 -3.42375e-21)
(0.827307 -0.311045 7.18062e-21)
(0.80869 -0.273862 -1.18048e-21)
(0.776609 -0.235082 -6.37287e-22)
(0.566414 -0.374222 1.56468e-19)
(0.609923 -0.384236 -8.67318e-20)
(0.648586 -0.38417 -2.64145e-20)
(0.680034 -0.374709 -6.11191e-21)
(0.702245 -0.356771 -1.07471e-20)
(0.713609 -0.33159 5.48421e-21)
(0.712953 -0.3007 -3.92589e-21)
(0.699598 -0.265894 -3.19888e-21)
(0.673439 -0.229166 2.04379e-21)
(0.634998 -0.192619 2.78461e-21)
(0.455753 -0.322222 2.5492e-20)
(0.492655 -0.328897 1.58437e-20)
(0.523796 -0.325589 3.2159e-21)
(0.547101 -0.313353 -1.00074e-20)
(0.560849 -0.2935 3.07884e-20)
(0.56378 -0.267626 1.44733e-21)
(0.555163 -0.237565 -7.99862e-22)
(0.534838 -0.205318 5.40691e-22)
(0.503254 -0.172966 2.92719e-21)
(0.461472 -0.142548 -2.11917e-21)
(0.304716 -0.226342 7.36923e-20)
(0.331698 -0.231365 5.28286e-20)
(0.352704 -0.22755 -8.89165e-20)
(0.366082 -0.216206 -1.66568e-20)
(0.37057 -0.198886 -2.97076e-20)
(0.365399 -0.17736 -1.68276e-21)
(0.350339 -0.153535 -6.99625e-21)
(0.325721 -0.129368 9.16399e-21)
(0.292426 -0.106753 -6.80545e-23)
(0.251831 -0.0874124 4.51681e-21)
(0.100057 -0.0703255 -1.34653e-20)
(0.112464 -0.0779397 -8.78871e-20)
(0.120068 -0.0793094 6.66157e-20)
(0.121795 -0.0757168 -2.25432e-20)
(0.116945 -0.0686025 2.91969e-20)
(0.105253 -0.0595195 -1.69114e-21)
(0.0869013 -0.0500513 -5.58632e-21)
(0.0625101 -0.041719 1.06086e-22)
(0.03309 -0.0358903 -4.48075e-22)
(-4.12015e-05 -0.0337061 -2.31451e-21)
(-0.17648 0.165039 -1.35553e-20)
(-0.186044 0.146131 4.60197e-20)
(-0.196747 0.128904 -1.91484e-20)
(-0.208912 0.112715 5.9541e-21)
(-0.222658 0.0969116 -5.62412e-21)
(-0.237899 0.0808341 -1.50151e-21)
(-0.254342 0.0638561 9.54829e-22)
(-0.271519 0.0454289 4.68629e-21)
(-0.288821 0.0251173 -2.23093e-21)
(-0.305559 0.0026101 -8.06066e-22)
(1.08245 -0.286826 1.4932e-21)
(1.05581 -0.250437 -7.37654e-21)
(1.01465 -0.212277 4.09129e-20)
(0.959122 -0.174476 -2.98376e-20)
(0.8904 -0.139585 3.5345e-21)
(0.810692 -0.110411 -3.06476e-20)
(0.72289 -0.0897323 1.53762e-19)
(0.629731 -0.0798716 7.82259e-21)
(0.529862 -0.0827229 -4.6012e-20)
(0.411872 -0.0947153 1.03898e-19)
(1.02508 -0.27397 4.96468e-21)
(0.989668 -0.235591 -1.49751e-20)
(0.939855 -0.197029 -1.5257e-20)
(0.87652 -0.160605 -1.13389e-20)
(0.801512 -0.128815 -3.2784e-20)
(0.717464 -0.104098 -7.77028e-22)
(0.627278 -0.0884971 -1.00632e-20)
(0.533113 -0.0831839 2.84094e-20)
(0.433816 -0.087977 9.17082e-20)
(0.323778 -0.0963604 -2.02263e-20)
(0.948997 -0.255044 -3.37252e-21)
(0.905064 -0.215889 3.0155e-20)
(0.847603 -0.178199 7.97463e-21)
(0.778188 -0.144286 -1.66804e-21)
(0.699202 -0.116386 3.57405e-20)
(0.613549 -0.0963873 1.55327e-20)
(0.524109 -0.0854809 3.01895e-20)
(0.432917 -0.0836847 -3.27726e-20)
(0.339908 -0.0892534 -6.5453e-20)
(0.243818 -0.0957153 -1.53939e-19)
(0.851958 -0.22933 4.15946e-21)
(0.800583 -0.19087 -1.32746e-20)
(0.737271 -0.155561 1.94818e-20)
(0.664178 -0.125527 -4.43349e-20)
(0.584057 -0.102586 -2.63272e-20)
(0.499926 -0.0879968 -1.24656e-20)
(0.414589 -0.082157 -6.33844e-20)
(0.330092 -0.0842661 -2.93521e-20)
(0.247288 -0.0919663 3.55049e-21)
(0.167064 -0.100093 4.77204e-20)
(0.731551 -0.196801 2.07615e-21)
(0.674798 -0.161206 -3.22764e-23)
(0.608344 -0.130344 1.28577e-20)
(0.534738 -0.105982 3.97158e-20)
(0.45688 -0.0894109 -6.72712e-21)
(0.377712 -0.0812495 -5.89735e-20)
(0.299836 -0.0812414 9.94744e-20)
(0.225201 -0.08808 -3.0367e-20)
(0.155047 -0.0992902 -2.28912e-20)
(0.0908178 -0.110909 -1.0812e-20)
(0.585374 -0.15835 -5.71064e-21)
(0.526381 -0.128366 6.09564e-21)
(0.460384 -0.104369 2.02094e-20)
(0.390062 -0.0876351 -1.94441e-20)
(0.318217 -0.0788895 3.87874e-20)
(0.247508 -0.078174 -4.72769e-21)
(0.180191 -0.084751 3.71707e-21)
(0.117961 -0.0970553 2.50897e-20)
(0.0620141 -0.112725 1.96808e-20)
(0.0135939 -0.128688 6.36419e-21)
(0.411028 -0.11594 8.45828e-22)
(0.35402 -0.0947662 -1.15504e-21)
(0.29289 -0.080237 2.88956e-20)
(0.230165 -0.073087 -3.46152e-20)
(0.168303 -0.0735055 -6.61308e-20)
(0.109505 -0.0810867 3.19545e-20)
(0.0555659 -0.0948083 -1.69262e-20)
(0.00780523 -0.113055 1.81693e-20)
(-0.0328439 -0.133713 5.11494e-20)
(-0.0655603 -0.154364 -5.53637e-20)
(0.205629 -0.0727856 -9.01764e-22)
(0.15587 -0.063938 -1.80676e-20)
(0.104757 -0.0615288 2.56985e-20)
(0.0543844 -0.065778 1.59291e-20)
(0.00666192 -0.0764548 -4.85877e-20)
(-0.0367896 -0.0928857 -3.82806e-20)
(-0.0747079 -0.113977 -2.72193e-21)
(-0.106192 -0.138256 5.95487e-21)
(-0.130638 -0.163963 7.80774e-21)
(-0.147609 -0.189221 -2.15753e-20)
(-0.0354092 -0.0360149 1.52554e-21)
(-0.0713903 -0.043202 2.50585e-20)
(-0.106375 -0.0554337 1.04139e-20)
(-0.13894 -0.0725481 -3.41133e-20)
(-0.167877 -0.0940853 3.39059e-20)
(-0.192223 -0.119332 -4.45898e-20)
(-0.21127 -0.147352 5.84327e-20)
(-0.224536 -0.177014 -7.03316e-20)
(-0.231723 -0.207042 -3.72707e-20)
(-0.232656 -0.236112 -1.00421e-19)
(-0.320985 -0.0223051 -4.41537e-22)
(-0.33438 -0.0492814 -7.34194e-21)
(-0.345127 -0.0782357 5.45588e-21)
(-0.352703 -0.108881 6.51255e-21)
(-0.356724 -0.140816 -1.47269e-20)
(-0.356932 -0.173572 1.45663e-20)
(-0.353177 -0.206624 -1.78451e-20)
(-0.345383 -0.239399 1.3855e-20)
(-0.333531 -0.271287 -3.51708e-20)
(-0.317624 -0.301679 3.88136e-20)
(-0.297581 -0.329953 5.55604e-20)
(-0.227321 -0.263026 -4.16562e-20)
(-0.156829 -0.212447 -4.32179e-20)
(-0.0894154 -0.173004 5.81098e-20)
(-0.0252412 -0.142211 -5.31565e-21)
(0.0362609 -0.118698 6.91091e-20)
(0.0952925 -0.101167 7.83494e-21)
(0.152109 -0.0887244 -6.19716e-20)
(0.20805 -0.0814318 1.14187e-19)
(0.26236 -0.076142 -1.57427e-20)
(-0.274058 -0.35523 -5.8688e-20)
(-0.21623 -0.286803 1.6063e-19)
(-0.158474 -0.232768 -6.73736e-21)
(-0.10387 -0.189135 -5.30568e-20)
(-0.0525034 -0.153725 4.20877e-20)
(-0.00370838 -0.125125 -9.58179e-20)
(0.0429255 -0.101946 1.10379e-19)
(0.0880338 -0.0831961 -9.31759e-20)
(0.133134 -0.0691082 1.68684e-20)
(0.176569 -0.0590854 7.27308e-20)
(-0.247453 -0.377403 3.36936e-20)
(-0.200123 -0.307011 -1.01198e-19)
(-0.153421 -0.249748 3.51515e-20)
(-0.109927 -0.202605 -1.94547e-20)
(-0.0695162 -0.163691 3.59564e-20)
(-0.0313809 -0.131682 -2.69144e-20)
(0.00504648 -0.105372 -2.55503e-20)
(0.0404504 -0.0840229 3.46323e-20)
(0.0758351 -0.0678927 -8.07562e-20)
(0.109201 -0.056841 1.21253e-19)
(-0.218245 -0.396273 -7.19383e-20)
(-0.17993 -0.323376 7.88523e-21)
(-0.142901 -0.263104 3.68242e-20)
(-0.109112 -0.213142 4.99557e-20)
(-0.0782058 -0.171783 -7.63975e-20)
(-0.0492957 -0.137749 6.33275e-21)
(-0.0217857 -0.10994 -4.2642e-20)
(0.00489756 -0.0877016 -8.94131e-20)
(0.0313739 -0.0710902 1.70442e-19)
(0.0559507 -0.0597979 6.52599e-20)
(-0.186967 -0.411707 5.04194e-20)
(-0.156622 -0.335767 1.15312e-20)
(-0.128178 -0.272682 4.4956e-20)
(-0.102927 -0.220499 -5.4808e-21)
(-0.0802962 -0.177529 5.95114e-20)
(-0.059368 -0.14241 2.92597e-20)
(-0.0395782 -0.11399 7.47466e-20)
(-0.0204838 -0.0915013 -7.595e-20)
(-0.0017066 -0.0746766 -7.83341e-21)
(0.015457 -0.0630168 -8.54002e-20)
(-0.154146 -0.423655 3.34546e-20)
(-0.131124 -0.344208 -3.94149e-20)
(-0.110422 -0.27851 -8.84118e-21)
(-0.0927155 -0.224626 -1.5416e-20)
(-0.0772669 -0.180696 -1.69094e-20)
(-0.0631714 -0.14515 -2.15184e-20)
(-0.0499327 -0.116664 3.51408e-20)
(-0.0372324 -0.0942669 -4.69324e-20)
(-0.0248573 -0.0773748 4.23648e-20)
(-0.0137739 -0.0653324 5.56332e-21)
(-0.120275 -0.432146 -5.81585e-20)
(-0.104254 -0.348881 -2.93431e-20)
(-0.0906288 -0.280821 5.09838e-20)
(-0.0795784 -0.225721 -1.90017e-20)
(-0.0702728 -0.181375 2.81667e-20)
(-0.0618705 -0.145899 -8.53022e-20)
(-0.0539738 -0.117729 6.5193e-20)
(-0.0463887 -0.0956613 -2.44449e-20)
(-0.0390359 -0.0788512 4.41933e-20)
(-0.0326605 -0.0665226 -5.33912e-20)
(-0.0857976 -0.437279 2.68146e-20)
(-0.0766938 -0.350111 -1.15389e-20)
(-0.0695899 -0.280038 -1.77967e-20)
(-0.0643489 -0.224222 -7.14416e-21)
(-0.0601454 -0.179963 3.95349e-21)
(-0.0562597 -0.14499 1.18819e-20)
(-0.05243 -0.11745 -2.9286e-20)
(-0.0485998 -0.0959187 1.78617e-20)
(-0.0448188 -0.0793417 5.48004e-20)
(-0.0417262 -0.0668498 -5.30287e-20)
(-0.0510962 -0.439232 2.01157e-20)
(-0.0489762 -0.348343 5.26214e-23)
(-0.047886 -0.276739 2.76778e-20)
(-0.0476039 -0.220759 -2.39004e-20)
(-0.0474291 -0.1771 7.40227e-21)
(-0.0468325 -0.143046 -8.28236e-21)
(-0.0457342 -0.116444 -4.70334e-21)
(-0.0442381 -0.095652 -2.73903e-20)
(-0.0425295 -0.0794527 2.98797e-20)
(-0.0412546 -0.0669022 3.1167e-20)
(-0.0164634 -0.438229 -3.55021e-21)
(-0.0214645 -0.344098 -3.03164e-21)
(-0.0258836 -0.271598 -2.7279e-21)
(-0.0296762 -0.216084 -1.04645e-20)
(-0.0324084 -0.17357 1.13079e-20)
(-0.0338225 -0.140867 4.1284e-21)
(-0.0340731 -0.115517 -8.86389e-21)
(-0.0334531 -0.095673 5.44851e-22)
(-0.0322931 -0.0799779 -5.3706e-21)
(-0.0313536 -0.0674288 -3.65513e-22)
(-0.0106124 -0.0363247 -1.1067e-21)
(-0.00141171 -0.0391595 -1.10295e-21)
(0.0503678 -0.0410787 2.47279e-21)
(0.098464 -0.0452052 -1.64495e-21)
(0.158112 -0.0470795 -5.1614e-22)
(0.215619 -0.0451293 -1.00437e-21)
(0.273204 -0.0391034 3.48416e-22)
(0.328159 -0.0292238 -4.26511e-22)
(0.381177 -0.016799 2.16965e-22)
(0.432034 -0.00486646 4.45636e-23)
(0.481214 0.00253729 -2.36025e-22)
(0.529193 0.000957745 5.92958e-23)
(0.573919 -0.0127474 -5.61777e-23)
(0.614769 -0.0329863 -1.16679e-22)
(0.642455 -0.0558136 1.93275e-23)
(0.668281 -0.0502032 -2.79897e-23)
(0.679655 -0.0280966 1.13432e-23)
(0.712805 0.0233223 6.31276e-24)
(0.727158 0.0483018 -1.32586e-23)
(0.789138 0.00714785 -2.38482e-25)
(0.0244351 -0.0384837 5.17212e-21)
(0.0357721 -0.049695 3.87623e-21)
(0.0903299 -0.0538184 -3.66449e-21)
(0.138228 -0.0585857 1.98854e-21)
(0.195813 -0.0600171 -3.83125e-21)
(0.250303 -0.056961 -1.73226e-22)
(0.304253 -0.0497333 -3.53982e-22)
(0.355536 -0.0386773 -6.49409e-22)
(0.405219 -0.0252233 4.3736e-22)
(0.453491 -0.0123786 1.3644e-22)
(0.500984 -0.00420223 5.25888e-23)
(0.548036 -0.00494849 4.80756e-22)
(0.592143 -0.0177275 -5.25715e-22)
(0.631594 -0.036619 -1.00156e-22)
(0.657227 -0.0583511 7.31793e-23)
(0.678516 -0.0518548 4.3408e-23)
(0.686527 -0.0298895 -8.28858e-23)
(0.715629 0.0213717 8.78345e-23)
(0.731745 0.0455315 3.1333e-23)
(0.794732 0.00494265 3.25789e-24)
(0.0724286 -0.0428932 -1.79226e-20)
(0.0864032 -0.0609432 2.44821e-21)
(0.143663 -0.0666071 1.7187e-20)
(0.190619 -0.0714784 -8.54382e-21)
(0.244941 -0.0722374 -1.07705e-21)
(0.295256 -0.0680333 -3.7574e-21)
(0.344458 -0.0596544 -1.45307e-23)
(0.39106 -0.0475349 -1.3428e-21)
(0.436463 -0.0331889 -4.28283e-22)
(0.481239 -0.0195625 -3.51942e-22)
(0.526159 -0.0107018 -7.80224e-23)
(0.571404 -0.0106428 4.33795e-23)
(0.6141 -0.0224559 5.28485e-22)
(0.651495 -0.0399478 -2.23419e-22)
(0.674708 -0.0605221 -1.42835e-22)
(0.691288 -0.0531753 1.30967e-22)
(0.695875 -0.0314344 -2.18289e-23)
(0.720659 0.0194716 -4.81069e-23)
(0.738296 0.0426753 -1.10005e-22)
(0.801617 0.00272587 1.67318e-23)
(0.133439 -0.0499687 -4.87946e-21)
(0.150139 -0.0727983 1.89891e-20)
(0.209286 -0.0791984 -8.93463e-21)
(0.254274 -0.0835966 -4.73983e-21)
(0.304073 -0.0834688 3.75973e-21)
(0.349119 -0.0781159 -6.71944e-22)
(0.392599 -0.068673 1.56201e-21)
(0.433667 -0.0556301 -5.40719e-22)
(0.474001 -0.0405458 1.37274e-21)
(0.514502 -0.0262802 6.71724e-22)
(0.556067 -0.0168353 -1.45579e-21)
(0.598702 -0.0160175 1.99149e-22)
(0.639255 -0.0268526 -4.24744e-23)
(0.674006 -0.0429273 3.74199e-22)
(0.694495 -0.0623101 8.12026e-23)
(0.706303 -0.0541595 -8.77673e-23)
(0.707497 -0.0327161 -6.62717e-23)
(0.727801 0.0176488 -1.03687e-22)