/*--------------------------------*- C++ -*----------------------------------*\
  =========                 |
  \\      /  F ield         | OpenFOAM: The Open Source CFD Toolbox
   \\    /   O peration     | Website:  https://openfoam.org
    \\  /    A nd           | Version:  6.0
     \\/     M anipulation  |
\*---------------------------------------------------------------------------*/
FoamFile
{
    version     2.0;
    format      ascii;
    class       volScalarField;
    location    "22.248";
    object      p;
}
// * * * * * * * * * * * * * * * * * * * * * * * * * * * * * * * * * * * * * //

dimensions      [0 2 -2 0 0 0 0];

internalField   nonuniform List<scalar> 
19200
(
-0.386996
-0.381956
-0.378194
-0.375064
-0.37219
-0.36955
-0.3671
-0.364788
-0.362574
-0.360433
-0.358344
-0.356292
-0.35427
-0.352269
-0.350287
-0.348321
-0.346372
-0.344439
-0.342524
-0.340629
-0.338754
-0.336902
-0.335074
-0.333272
-0.331495
-0.329751
-0.328036
-0.326296
-0.324514
-0.323281
-0.390595
-0.385435
-0.381646
-0.378491
-0.375575
-0.372879
-0.37036
-0.367966
-0.365663
-0.363424
-0.361232
-0.359074
-0.356942
-0.35483
-0.352736
-0.350658
-0.348598
-0.346557
-0.344535
-0.342536
-0.340562
-0.338614
-0.336695
-0.334806
-0.332948
-0.331128
-0.329344
-0.327531
-0.325665
-0.324439
-0.394769
-0.389398
-0.385515
-0.382297
-0.379313
-0.376539
-0.373932
-0.371441
-0.369033
-0.366683
-0.364375
-0.362097
-0.359842
-0.357606
-0.355387
-0.353186
-0.351004
-0.348843
-0.346704
-0.344592
-0.342508
-0.340456
-0.338437
-0.336453
-0.334507
-0.332606
-0.330748
-0.328856
-0.326898
-0.325691
-0.399304
-0.393779
-0.389799
-0.386497
-0.383423
-0.38055
-0.377837
-0.375232
-0.372702
-0.370225
-0.367785
-0.365372
-0.362981
-0.360607
-0.358251
-0.355914
-0.353598
-0.351305
-0.349039
-0.346802
-0.344599
-0.342433
-0.340305
-0.338219
-0.336177
-0.334188
-0.33225
-0.330273
-0.328213
-0.32704
-0.40425
-0.398585
-0.394496
-0.391092
-0.387908
-0.384919
-0.38208
-0.379344
-0.376676
-0.374056
-0.37147
-0.368908
-0.366365
-0.363841
-0.361335
-0.358849
-0.356385
-0.353949
-0.351543
-0.349171
-0.346838
-0.344547
-0.342302
-0.340105
-0.337959
-0.335876
-0.333853
-0.331783
-0.329612
-0.328485
-0.409641
-0.403827
-0.399615
-0.39609
-0.392779
-0.389654
-0.386673
-0.383787
-0.380965
-0.378186
-0.375437
-0.372711
-0.370003
-0.367314
-0.364644
-0.361996
-0.359373
-0.356781
-0.354223
-0.351704
-0.34923
-0.346804
-0.344431
-0.342113
-0.339855
-0.33767
-0.335556
-0.333387
-0.331094
-0.330028
-0.415495
-0.409516
-0.405164
-0.401501
-0.398043
-0.394764
-0.391623
-0.38857
-0.385577
-0.382623
-0.379696
-0.37679
-0.373903
-0.371034
-0.368186
-0.365362
-0.362567
-0.359805
-0.357083
-0.354405
-0.351778
-0.349206
-0.346694
-0.344246
-0.341867
-0.339572
-0.33736
-0.335084
-0.332657
-0.331666
-0.421827
-0.415663
-0.411152
-0.407334
-0.40371
-0.400259
-0.396939
-0.393703
-0.390521
-0.387375
-0.384254
-0.381154
-0.378071
-0.375009
-0.371968
-0.368954
-0.365972
-0.363029
-0.360129
-0.357279
-0.354487
-0.351757
-0.349095
-0.346505
-0.343995
-0.341581
-0.339264
-0.336871
-0.334301
-0.333399
-0.428651
-0.422279
-0.417591
-0.413598
-0.409791
-0.406148
-0.402631
-0.399193
-0.395805
-0.39245
-0.38912
-0.385809
-0.382516
-0.379244
-0.375997
-0.372779
-0.369596
-0.366456
-0.363365
-0.360331
-0.357359
-0.354459
-0.351635
-0.348892
-0.34624
-0.343698
-0.341266
-0.338748
-0.336023
-0.335224
-0.43598
-0.429376
-0.424491
-0.420304
-0.416293
-0.41244
-0.408707
-0.405049
-0.401437
-0.397857
-0.3943
-0.390762
-0.387244
-0.383748
-0.380279
-0.376842
-0.373445
-0.370095
-0.366799
-0.363565
-0.360401
-0.357316
-0.354317
-0.351409
-0.348602
-0.345922
-0.343367
-0.340713
-0.337818
-0.337138
-0.443825
-0.436966
-0.431862
-0.42746
-0.423226
-0.419143
-0.415175
-0.411278
-0.407425
-0.403602
-0.399802
-0.396022
-0.392262
-0.388527
-0.384822
-0.381152
-0.377526
-0.37395
-0.370435
-0.366987
-0.363617
-0.360333
-0.357145
-0.354058
-0.351084
-0.348253
-0.345564
-0.342762
-0.339686
-0.339137
-0.452198
-0.445057
-0.439713
-0.435077
-0.430598
-0.426265
-0.422043
-0.417888
-0.413776
-0.409694
-0.405634
-0.401596
-0.39758
-0.393591
-0.389634
-0.385716
-0.381846
-0.378031
-0.374281
-0.370605
-0.367013
-0.363516
-0.360123
-0.356843
-0.353688
-0.350693
-0.347858
-0.344895
-0.341621
-0.341219
-0.46111
-0.453662
-0.448055
-0.443163
-0.438419
-0.433815
-0.429319
-0.424888
-0.420499
-0.41614
-0.411804
-0.407492
-0.403204
-0.398946
-0.394723
-0.390543
-0.386414
-0.382345
-0.378345
-0.374426
-0.370597
-0.36687
-0.363257
-0.359768
-0.356416
-0.353242
-0.350247
-0.34711
-0.34362
-0.343377
-0.470573
-0.46279
-0.456896
-0.451726
-0.446695
-0.4418
-0.43701
-0.432284
-0.4276
-0.422947
-0.41832
-0.413718
-0.409143
-0.404602
-0.400099
-0.395642
-0.39124
-0.386902
-0.382638
-0.378459
-0.374377
-0.370405
-0.366554
-0.362838
-0.359272
-0.355902
-0.352733
-0.349403
-0.345679
-0.345608
-0.480596
-0.472449
-0.466245
-0.460774
-0.455435
-0.450227
-0.445123
-0.440084
-0.435087
-0.430124
-0.425189
-0.420282
-0.415407
-0.410568
-0.405771
-0.401024
-0.396335
-0.391713
-0.38717
-0.382716
-0.378364
-0.374128
-0.370023
-0.36606
-0.362261
-0.358677
-0.355315
-0.351773
-0.347794
-0.347904
-0.49119
-0.482649
-0.47611
-0.470315
-0.464645
-0.459103
-0.453666
-0.448294
-0.442968
-0.437678
-0.43242
-0.427194
-0.422004
-0.416854
-0.41175
-0.406699
-0.40171
-0.396791
-0.391954
-0.387209
-0.38257
-0.378053
-0.373672
-0.369444
-0.36539
-0.36157
-0.357993
-0.354218
-0.349959
-0.350258
-0.502364
-0.493398
-0.486497
-0.480356
-0.474331
-0.468434
-0.462644
-0.456921
-0.451248
-0.445615
-0.44002
-0.434462
-0.428944
-0.423471
-0.418048
-0.412681
-0.407379
-0.402149
-0.397003
-0.391952
-0.387009
-0.382191
-0.377515
-0.372997
-0.368665
-0.364585
-0.360769
-0.356733
-0.352166
-0.352657
-0.514126
-0.504701
-0.497412
-0.4909
-0.484499
-0.478226
-0.472063
-0.465972
-0.459935
-0.453945
-0.447998
-0.442095
-0.436237
-0.430429
-0.424676
-0.418982
-0.413355
-0.407803
-0.402334
-0.396961
-0.391697
-0.386558
-0.381564
-0.376733
-0.372096
-0.367726
-0.363641
-0.359313
-0.354402
-0.355084
-0.52648
-0.516564
-0.50886
-0.501953
-0.495153
-0.488483
-0.481927
-0.47545
-0.469034
-0.462672
-0.456361
-0.450101
-0.443893
-0.437741
-0.431647
-0.425617
-0.419655
-0.413768
-0.407965
-0.402255
-0.396652
-0.391173
-0.385837
-0.380665
-0.375691
-0.370998
-0.366609
-0.361948
-0.356652
-0.357515
-0.539433
-0.52899
-0.520844
-0.513518
-0.506295
-0.499207
-0.49224
-0.485361
-0.478551
-0.471804
-0.465117
-0.458489
-0.451922
-0.445416
-0.438974
-0.432599
-0.426294
-0.420064
-0.413914
-0.407855
-0.401897
-0.396056
-0.390353
-0.38481
-0.379463
-0.374406
-0.369668
-0.364626
-0.358892
-0.359915
-0.552985
-0.54198
-0.533364
-0.525594
-0.517926
-0.5104
-0.503005
-0.495706
-0.488489
-0.481345
-0.474272
-0.467268
-0.460332
-0.453467
-0.446671
-0.439945
-0.433291
-0.426709
-0.420205
-0.413784
-0.407455
-0.401233
-0.395136
-0.389187
-0.383426
-0.377957
-0.372814
-0.367329
-0.361089
-0.362234
-0.567136
-0.555534
-0.546419
-0.538181
-0.530047
-0.522062
-0.514221
-0.50649
-0.498851
-0.4913
-0.483831
-0.476443
-0.469135
-0.461904
-0.45475
-0.44767
-0.440663
-0.433727
-0.426862
-0.420071
-0.413358
-0.406734
-0.400217
-0.393826
-0.387602
-0.381661
-0.376043
-0.370033
-0.363194
-0.364398
-0.581883
-0.569647
-0.560004
-0.551274
-0.542652
-0.534192
-0.525888
-0.51771
-0.509639
-0.50167
-0.493799
-0.486022
-0.478336
-0.470738
-0.463225
-0.455791
-0.448432
-0.441141
-0.433914
-0.426747
-0.419641
-0.412601
-0.405636
-0.398764
-0.392023
-0.385537
-0.379353
-0.372708
-0.365143
-0.366306
-0.597222
-0.584314
-0.574114
-0.564869
-0.555738
-0.546783
-0.538003
-0.529365
-0.520853
-0.512459
-0.504179
-0.496008
-0.487943
-0.479979
-0.472108
-0.464324
-0.456617
-0.448976
-0.441392
-0.433853
-0.426352
-0.418884
-0.411451
-0.404059
-0.396742
-0.389624
-0.382758
-0.375329
-0.366852
-0.367811
-0.613147
-0.599525
-0.588738
-0.578954
-0.569295
-0.55983
-0.55056
-0.541452
-0.532489
-0.523663
-0.514971
-0.506405
-0.497962
-0.489634
-0.481411
-0.473285
-0.46524
-0.457262
-0.449333
-0.441434
-0.433548
-0.425655
-0.417743
-0.409801
-0.401847
-0.393997
-0.386301
-0.377878
-0.368208
-0.36869
-0.629649
-0.615265
-0.603861
-0.593516
-0.583311
-0.573321
-0.56355
-0.553962
-0.544542
-0.535281
-0.526173
-0.517213
-0.508394
-0.499707
-0.491143
-0.482686
-0.474321
-0.466026
-0.457778
-0.449547
-0.441302
-0.433008
-0.42463
-0.416128
-0.40749
-0.398806
-0.390098
-0.380389
-0.36909
-0.368641
-0.646724
-0.631515
-0.619462
-0.608536
-0.59777
-0.587243
-0.576961
-0.566887
-0.557005
-0.547304
-0.537781
-0.528428
-0.519238
-0.510202
-0.501307
-0.492539
-0.483877
-0.475297
-0.466768
-0.458252
-0.449703
-0.441067
-0.43228
-0.423263
-0.41395
-0.404377
-0.394507
-0.3832
-0.369664
-0.367514
-0.664399
-0.648256
-0.635513
-0.62399
-0.612651
-0.60158
-0.59078
-0.580214
-0.569865
-0.559724
-0.549786
-0.540042
-0.530488
-0.521112
-0.511904
-0.502846
-0.493919
-0.485095
-0.476339
-0.467609
-0.458845
-0.449974
-0.440901
-0.431496
-0.421619
-0.411216
-0.400147
-0.386947
-0.370112
-0.364438
-0.682726
-0.665456
-0.651967
-0.639841
-0.627928
-0.616308
-0.604988
-0.593928
-0.58311
-0.572528
-0.562175
-0.552046
-0.542133
-0.53243
-0.522924
-0.513601
-0.504443
-0.495424
-0.486512
-0.477661
-0.46881
-0.459871
-0.450719
-0.441162
-0.430944
-0.419834
-0.407393
-0.391238
-0.367802
-0.353484
-0.701238
-0.682922
-0.668758
-0.656055
-0.643577
-0.631411
-0.619567
-0.60801
-0.596722
-0.585697
-0.57493
-0.564417
-0.554153
-0.54413
-0.534342
-0.524777
-0.515423
-0.506261
-0.49727
-0.488417
-0.479657
-0.470923
-0.462105
-0.453014
-0.443353
-0.432732
-0.420222
-0.402109
-0.372036
-0.346127
-1.17585
-1.17296
-1.16815
-1.16188
-1.15418
-1.14509
-1.13469
-1.12306
-1.11028
-1.09644
-1.08162
-1.0659
-1.04937
-1.03212
-1.01422
-0.995768
-0.976836
-0.957503
-0.937843
-0.917928
-0.897828
-0.877607
-0.857329
-0.83705
-0.816824
-0.796701
-0.776722
-0.756898
-0.737214
-0.718101
-1.14136
-1.13849
-1.13388
-1.12777
-1.12024
-1.11136
-1.10121
-1.08987
-1.07744
-1.06398
-1.04959
-1.03436
-1.01835
-1.00166
-0.984358
-0.966535
-0.948264
-0.929619
-0.910673
-0.891496
-0.872153
-0.852709
-0.833224
-0.813756
-0.794358
-0.775083
-0.755983
-0.737104
-0.718499
-0.700349
-1.11295
-1.11011
-1.10565
-1.09972
-1.09238
-1.08373
-1.07384
-1.06281
-1.0507
-1.03761
-1.02362
-1.00881
-0.99326
-0.977052
-0.960265
-0.942976
-0.925262
-0.907194
-0.888844
-0.870279
-0.851564
-0.832761
-0.813931
-0.795128
-0.776407
-0.757821
-0.73942
-0.721256
-0.703389
-0.685894
-1.08619
-1.08348
-1.07921
-1.07349
-1.06641
-1.05804
-1.04847
-1.03777
-1.02602
-1.01332
-0.999741
-0.985362
-0.970266
-0.954532
-0.938239
-0.921462
-0.904276
-0.886752
-0.868959
-0.850965
-0.832832
-0.814622
-0.796393
-0.7782
-0.760097
-0.742133
-0.724358
-0.70682
-0.68957
-0.672656
-1.05907
-1.05657
-1.05256
-1.04714
-1.04038
-1.03236
-1.02315
-1.01284
-1.00151
-0.98923
-0.976095
-0.96218
-0.947564
-0.932326
-0.916543
-0.900289
-0.883638
-0.866661
-0.849426
-0.831999
-0.814442
-0.796815
-0.779176
-0.761579
-0.744076
-0.726716
-0.709545
-0.692609
-0.675951
-0.65961
-1.03185
-1.02965
-1.02598
-1.02092
-1.01455
-1.00693
-0.998142
-0.988269
-0.977389
-0.965581
-0.952925
-0.939501
-0.925387
-0.910662
-0.8954
-0.879676
-0.863564
-0.847132
-0.830449
-0.813579
-0.796584
-0.779525
-0.762457
-0.745433
-0.728506
-0.711723
-0.695128
-0.678764
-0.662671
-0.646884
-1.00463
-1.00281
-0.999545
-0.994914
-0.988983
-0.981823
-0.973509
-0.96412
-0.953734
-0.942428
-0.930283
-0.917376
-0.903786
-0.889588
-0.874859
-0.859673
-0.8441
-0.828211
-0.812073
-0.795749
-0.779303
-0.762793
-0.746274
-0.729801
-0.713423
-0.697187
-0.681138
-0.665317
-0.64976
-0.634503
-0.977438
-0.976061
-0.973254
-0.969102
-0.963665
-0.957011
-0.949213
-0.940349
-0.930493
-0.919724
-0.908118
-0.895754
-0.882707
-0.869055
-0.854871
-0.840229
-0.8252
-0.809853
-0.794254
-0.778469
-0.762558
-0.74658
-0.730592
-0.714646
-0.698792
-0.683077
-0.667546
-0.652237
-0.637189
-0.622436
-0.950318
-0.949427
-0.947128
-0.943498
-0.938597
-0.932489
-0.925246
-0.916941
-0.907649
-0.897445
-0.886406
-0.874607
-0.862124
-0.849033
-0.835407
-0.821317
-0.806836
-0.792032
-0.77697
-0.761716
-0.746329
-0.73087
-0.715394
-0.699954
-0.6846
-0.66938
-0.654337
-0.639514
-0.624945
-0.610667
-0.92334
-0.92297
-0.921212
-0.918138
-0.913804
-0.908273
-0.901614
-0.893898
-0.885197
-0.875585
-0.865135
-0.853923
-0.842022
-0.829507
-0.81645
-0.802923
-0.788995
-0.774735
-0.760208
-0.745479
-0.730607
-0.715653
-0.700672
-0.685718
-0.670842
-0.656091
-0.641511
-0.627143
-0.613024
-0.599193
-0.896581
-0.896752
-0.895556
-0.89306
-0.889316
-0.884386
-0.878333
-0.871228
-0.86314
-0.854139
-0.844298
-0.83369
-0.822387
-0.810462
-0.797986
-0.785029
-0.771661
-0.757948
-0.743956
-0.729747
-0.715384
-0.700923
-0.686423
-0.671937
-0.657516
-0.643209
-0.629063
-0.615122
-0.601423
-0.588008
-0.870112
-0.870835
-0.870213
-0.868306
-0.865166
-0.86085
-0.855419
-0.84894
-0.84148
-0.833106
-0.82389
-0.8139
-0.803208
-0.791885
-0.78
-0.767623
-0.75482
-0.741658
-0.728201
-0.714512
-0.70065
-0.686675
-0.672642
-0.658606
-0.64462
-0.630733
-0.616995
-0.60345
-0.590141
-0.577109
-0.844007
-0.845281
-0.845233
-0.843919
-0.841387
-0.837691
-0.83289
-0.827046
-0.820224
-0.812488
-0.803906
-0.794546
-0.784476
-0.773765
-0.762481
-0.75069
-0.73846
-0.725853
-0.712934
-0.699763
-0.6864
-0.672902
-0.659326
-0.645726
-0.632155
-0.618665
-0.605307
-0.592128
-0.579175
-0.566494
-0.81833
-0.820146
-0.820665
-0.81994
-0.818013
-0.814937
-0.810766
-0.80556
-0.799379
-0.792286
-0.784345
-0.775621
-0.766181
-0.75609
-0.745415
-0.734219
-0.722567
-0.710522
-0.698144
-0.685493
-0.672627
-0.659602
-0.646473
-0.633296
-0.620122
-0.607006
-0.594
-0.581156
-0.568524
-0.556157
-0.793141
-0.795483
-0.796556
-0.796407
-0.795076
-0.792611
-0.789065
-0.784493
-0.778953
-0.772503
-0.765205
-0.757121
-0.748316
-0.738851
-0.72879
-0.718196
-0.70713
-0.695652
-0.68382
-0.671692
-0.659324
-0.64677
-0.634084
-0.621318
-0.608526
-0.595761
-0.58308
-0.570537
-0.558189
-0.546095
-0.768494
-0.771339
-0.772945
-0.773354
-0.772604
-0.770738
-0.767806
-0.763859
-0.758953
-0.753142
-0.746485
-0.739042
-0.730872
-0.722037
-0.712596
-0.702609
-0.692135
-0.681231
-0.669952
-0.658353
-0.646487
-0.634404
-0.622157
-0.609795
-0.597371
-0.584938
-0.572553
-0.560275
-0.548169
-0.536303
-0.744431
-0.747754
-0.749869
-0.750814
-0.750623
-0.749338
-0.747004
-0.74367
-0.739386
-0.734206
-0.728184
-0.721377
-0.713843
-0.705638
-0.696819
-0.687445
-0.677569
-0.667246
-0.656528
-0.645466
-0.634108
-0.622503
-0.610696
-0.598734
-0.586667
-0.574547
-0.562429
-0.550379
-0.538467
-0.526775
-0.720991
-0.724761
-0.727357
-0.728811
-0.729156
-0.728429
-0.726673
-0.723934
-0.720258
-0.715697
-0.7103
-0.704123
-0.697219
-0.689643
-0.681449
-0.67269
-0.663418
-0.653684
-0.643537
-0.633021
-0.622182
-0.611062
-0.599702
-0.588142
-0.576427
-0.564603
-0.552726
-0.540861
-0.529089
-0.517507
-0.698201
-0.702387
-0.705433
-0.707367
-0.70822
-0.708027
-0.706826
-0.70466
-0.701575
-0.697615
-0.692832
-0.687274
-0.680994
-0.674042
-0.666471
-0.658329
-0.649667
-0.640531
-0.630964
-0.621008
-0.610702
-0.600081
-0.589179
-0.578028
-0.566665
-0.555127
-0.543465
-0.531742
-0.520047
-0.508495
-0.676083
-0.680653
-0.684116
-0.6865
-0.687831
-0.688143
-0.687471
-0.685855
-0.683338
-0.679962
-0.675775
-0.670824
-0.665157
-0.658824
-0.651872
-0.64435
-0.636301
-0.62777
-0.618795
-0.609414
-0.599658
-0.589555
-0.57913
-0.568405
-0.557402
-0.546147
-0.534678
-0.523051
-0.51136
-0.499737
-0.654654
-0.659572
-0.66342
-0.666221
-0.668
-0.668787
-0.668616
-0.667524
-0.66555
-0.662737
-0.659127
-0.654767
-0.649701
-0.643977
-0.63764
-0.630734
-0.623302
-0.615384
-0.607014
-0.598224
-0.589039
-0.579479
-0.569558
-0.559283
-0.548661
-0.537697
-0.526407
-0.514833
-0.50306
-0.491235
-0.63392
-0.639155
-0.643354
-0.646539
-0.648733
-0.649964
-0.650264
-0.649668
-0.648213
-0.645937
-0.642884
-0.639095
-0.634615
-0.629488
-0.623758
-0.617466
-0.610652
-0.603353
-0.5956
-0.58742
-0.578831
-0.569844
-0.560462
-0.550676
-0.540469
-0.52982
-0.518711
-0.507148
-0.495197
-0.482999
-0.613886
-0.619404
-0.623921
-0.627458
-0.630035
-0.631678
-0.632419
-0.632289
-0.631324
-0.629561
-0.62704
-0.623802
-0.61989
-0.615346
-0.610212
-0.604527
-0.598331
-0.591656
-0.584532
-0.57698
-0.569014
-0.560637
-0.551838
-0.542591
-0.532854
-0.522567
-0.511662
-0.500084
-0.487855
-0.475057
-0.594551
-0.600321
-0.605124
-0.608979
-0.611907
-0.613931
-0.615081
-0.615387
-0.614883
-0.613605
-0.611592
-0.608882
-0.605518
-0.601539
-0.596988
-0.591903
-0.58632
-0.580272
-0.573787
-0.566883
-0.559569
-0.551842
-0.543679
-0.535038
-0.525846
-0.515999
-0.505358
-0.493771
-0.481166
-0.467467
-0.57591
-0.5819
-0.586958
-0.591101
-0.594348
-0.596721
-0.598249
-0.59896
-0.598888
-0.598066
-0.596532
-0.594326
-0.591486
-0.588054
-0.58407
-0.579573
-0.574598
-0.569178
-0.563339
-0.5571
-0.550467
-0.543434
-0.535969
-0.528015
-0.519472
-0.510184
-0.499923
-0.48839
-0.475353
-0.460373
-0.557952
-0.564133
-0.569415
-0.573813
-0.577346
-0.580035
-0.581907
-0.582991
-0.583318
-0.58292
-0.581837
-0.580104
-0.577763
-0.574854
-0.571416
-0.567489
-0.56311
-0.558311
-0.553121
-0.547559
-0.541633
-0.535335
-0.528632
-0.521459
-0.513692
-0.505132
-0.495443
-0.484126
-0.470721
-0.454086
-0.54067
-0.547013
-0.552488
-0.55711
-0.560896
-0.563868
-0.566051
-0.567472
-0.568163
-0.568156
-0.567487
-0.566196
-0.56432
-0.561902
-0.558982
-0.555599
-0.551794
-0.5476
-0.543049
-0.538162
-0.532954
-0.52742
-0.521534
-0.515231
-0.508384
-0.50076
-0.491921
-0.481121
-0.467618
-0.448997
-0.524055
-0.530554
-0.536215
-0.541052
-0.545082
-0.548325
-0.550806
-0.552552
-0.553593
-0.553963
-0.553696
-0.552832
-0.551409
-0.549471
-0.547058
-0.544213
-0.540976
-0.537386
-0.533476
-0.529276
-0.524805
-0.52007
-0.515057
-0.50972
-0.503949
-0.497521
-0.489936
-0.480194
-0.467106
-0.445494
-0.508074
-0.514747
-0.520612
-0.525683
-0.529976
-0.533512
-0.536316
-0.538414
-0.539837
-0.540617
-0.540792
-0.540401
-0.539483
-0.538083
-0.536244
-0.534011
-0.531426
-0.528532
-0.525367
-0.521967
-0.51836
-0.514566
-0.510592
-0.506423
-0.502003
-0.497195
-0.491591
-0.484114
-0.473033
-0.446988
-0.492638
-0.499266
-0.50512
-0.510213
-0.514561
-0.518186
-0.521112
-0.523366
-0.524979
-0.525986
-0.526424
-0.526334
-0.52576
-0.524747
-0.523343
-0.521598
-0.51956
-0.517279
-0.514805
-0.512183
-0.509458
-0.506671
-0.503862
-0.501067
-0.498322
-0.495688
-0.49307
-0.489867
-0.486108
-0.466552
-0.399033
-0.446826
-0.493328
-0.539152
-0.584111
-0.628039
-0.670821
-0.712347
-0.752513
-0.791224
-0.828389
-0.863927
-0.897761
-0.929824
-0.960054
-0.988397
-1.01481
-1.03925
-1.06169
-1.0821
-1.10047
-1.1168
-1.13109
-1.14333
-1.15355
-1.16177
-1.16802
-1.1723
-1.17464
-1.17538
-0.391136
-0.437771
-0.483329
-0.528052
-0.571825
-0.614532
-0.656078
-0.696368
-0.735309
-0.77281
-0.808788
-0.843165
-0.875869
-0.906835
-0.936005
-0.963329
-0.988764
-1.01227
-1.03383
-1.05342
-1.07102
-1.08663
-1.10026
-1.11191
-1.1216
-1.12936
-1.13523
-1.13924
-1.14144
-1.142
-0.380194
-0.425821
-0.470524
-0.514368
-0.55725
-0.599068
-0.639734
-0.679156
-0.717246
-0.753917
-0.789089
-0.822686
-0.854638
-0.884884
-0.913366
-0.940037
-0.964854
-0.987784
-1.0088
-1.02789
-1.04503
-1.06022
-1.07348
-1.0848
-1.09421
-1.10175
-1.10743
-1.11131
-1.11343
-1.11389
-0.365864
-0.410578
-0.454461
-0.49751
-0.539619
-0.580687
-0.620627
-0.659347
-0.696761
-0.732785
-0.767339
-0.80035
-0.83175
-0.861476
-0.889474
-0.915695
-0.9401
-0.962654
-0.983332
-1.00212
-1.01899
-1.03396
-1.04703
-1.0582
-1.0675
-1.07496
-1.08061
-1.08449
-1.08663
-1.08712
-0.348587
-0.392402
-0.435459
-0.477721
-0.519076
-0.559427
-0.598682
-0.636753
-0.673552
-0.708998
-0.743012
-0.775522
-0.806459
-0.835762
-0.863378
-0.889257
-0.91336
-0.935652
-0.956107
-0.974707
-0.991441
-1.0063
-1.0193
-1.03044
-1.03975
-1.04724
-1.05296
-1.05694
-1.05921
-1.05985
-0.329099
-0.372022
-0.414251
-0.455727
-0.49634
-0.535991
-0.574588
-0.612044
-0.648272
-0.683191
-0.716722
-0.748794
-0.779339
-0.808296
-0.83561
-0.861233
-0.885123
-0.907247
-0.927577
-0.946092
-0.962783
-0.977642
-0.990673
-1.00189
-1.0113
-1.01893
-1.02482
-1.029
-1.03149
-1.03238
-0.308091
-0.350118
-0.391509
-0.432193
-0.47206
-0.511015
-0.548965
-0.585823
-0.621502
-0.655923
-0.689006
-0.720681
-0.75088
-0.779541
-0.80661
-0.832037
-0.85578
-0.877803
-0.898079
-0.916586
-0.93331
-0.948245
-0.961392
-0.972757
-0.982357
-0.990212
-0.996351
-1.00081
-1.00361
-1.00482
-0.286176
-0.327293
-0.367828
-0.407703
-0.446813
-0.485063
-0.52236
-0.558619
-0.593755
-0.627685
-0.660335
-0.69163
-0.721505
-0.749898
-0.776752
-0.802017
-0.825652
-0.847617
-0.867885
-0.886433
-0.903243
-0.918309
-0.931627
-0.943205
-0.953053
-0.961191
-0.967645
-0.972445
-0.97562
-0.977226
-0.263877
-0.304066
-0.343726
-0.382773
-0.421108
-0.458636
-0.495267
-0.530917
-0.5655
-0.598936
-0.631149
-0.662067
-0.691623
-0.719755
-0.746405
-0.771524
-0.795067
-0.816997
-0.837281
-0.855896
-0.872824
-0.888053
-0.90158
-0.913407
-0.923544
-0.932008
-0.938821
-0.944011
-0.947604
-0.949653
-0.241625
-0.280869
-0.319634
-0.357834
-0.395374
-0.432162
-0.46811
-0.503133
-0.537149
-0.570078
-0.601843
-0.632374
-0.661603
-0.689468
-0.715912
-0.740884
-0.764338
-0.786235
-0.806543
-0.825235
-0.842292
-0.8577
-0.871452
-0.88355
-0.893999
-0.902814
-0.910013
-0.915621
-0.919665
-0.922189
-0.219755
-0.258042
-0.295897
-0.333234
-0.369961
-0.405991
-0.441237
-0.475617
-0.509047
-0.54145
-0.572751
-0.602879
-0.631765
-0.659349
-0.685573
-0.710386
-0.73374
-0.755597
-0.775922
-0.794687
-0.81187
-0.827457
-0.841437
-0.85381
-0.864579
-0.873754
-0.881351
-0.887394
-0.891904
-0.894921
-0.198525
-0.235846
-0.27278
-0.309241
-0.345142
-0.380399
-0.414927
-0.448645
-0.481472
-0.513331
-0.544148
-0.573852
-0.602376
-0.629659
-0.655643
-0.680277
-0.703513
-0.725312
-0.745637
-0.76446
-0.781756
-0.79751
-0.811709
-0.82435
-0.835433
-0.844965
-0.852961
-0.859439
-0.864419
-0.867936
-0.178118
-0.214471
-0.250478
-0.286055
-0.321121
-0.355593
-0.389391
-0.422432
-0.45464
-0.485937
-0.51625
-0.54551
-0.57365
-0.60061
-0.626331
-0.650762
-0.673857
-0.695573
-0.715876
-0.734734
-0.752122
-0.768023
-0.782422
-0.795313
-0.806695
-0.816572
-0.824954
-0.831859
-0.837302
-0.841315
-0.15866
-0.194048
-0.229127
-0.263818
-0.298045
-0.331726
-0.364784
-0.397139
-0.428714
-0.459433
-0.489226
-0.518022
-0.545757
-0.572369
-0.597803
-0.622006
-0.644932
-0.66654
-0.686792
-0.705658
-0.723112
-0.739133
-0.753707
-0.766825
-0.778483
-0.788683
-0.797433
-0.804746
-0.810638
-0.815134
-0.140227
-0.174656
-0.208812
-0.242621
-0.276008
-0.308898
-0.341212
-0.372874
-0.403807
-0.433938
-0.463195
-0.49151
-0.51882
-0.545063
-0.570185
-0.594135
-0.616866
-0.638336
-0.658509
-0.677353
-0.694842
-0.710954
-0.725673
-0.738988
-0.750894
-0.761391
-0.770483
-0.778182
-0.784499
-0.789457
-0.122857
-0.156338
-0.18958
-0.222514
-0.255068
-0.287168
-0.318741
-0.349708
-0.379995
-0.409529
-0.438239
-0.466059
-0.492927
-0.518782
-0.54357
-0.567241
-0.58975
-0.611055
-0.631119
-0.649911
-0.667404
-0.683575
-0.698408
-0.711889
-0.724012
-0.734774
-0.744179
-0.752234
-0.75895
-0.764345
-0.106559
-0.139106
-0.171446
-0.203515
-0.235246
-0.266566
-0.297402
-0.327678
-0.357318
-0.386251
-0.414408
-0.441722
-0.468133
-0.493583
-0.518018
-0.541389
-0.563651
-0.584764
-0.604691
-0.623401
-0.640867
-0.657065
-0.671978
-0.685592
-0.697899
-0.708894
-0.718579
-0.726959
-0.734043
-0.739845
-0.0913198
-0.122946
-0.154399
-0.185618
-0.21654
-0.247094
-0.277203
-0.306794
-0.335791
-0.364123
-0.391723
-0.418524
-0.444469
-0.4695
-0.493564
-0.516616
-0.53861
-0.559506
-0.57927
-0.59787
-0.615278
-0.631472
-0.646434
-0.660148
-0.672604
-0.683799
-0.693729
-0.702401
-0.709819
-0.715997
-0.0771085
-0.107829
-0.13841
-0.168798
-0.19893
-0.228732
-0.25813
-0.287047
-0.315408
-0.343143
-0.370185
-0.39647
-0.421941
-0.446542
-0.470224
-0.492939
-0.514645
-0.535304
-0.554881
-0.573344
-0.590668
-0.606828
-0.621807
-0.635588
-0.648162
-0.659522
-0.669665
-0.678593
-0.686313
-0.692833
-0.0638841
-0.0937104
-0.123439
-0.153017
-0.182378
-0.211451
-0.240154
-0.268411
-0.296147
-0.323292
-0.349779
-0.375548
-0.40054
-0.424705
-0.447993
-0.470358
-0.491761
-0.512164
-0.531532
-0.549836
-0.567049
-0.583149
-0.598116
-0.611934
-0.624594
-0.636086
-0.646407
-0.655559
-0.663545
-0.670373
-0.0515972
-0.080538
-0.109433
-0.138223
-0.166841
-0.195206
-0.223236
-0.250851
-0.277975
-0.304539
-0.330477
-0.35573
-0.380244
-0.403968
-0.426855
-0.448861
-0.469948
-0.490078
-0.50922
-0.527345
-0.544425
-0.560439
-0.575367
-0.589195
-0.60191
-0.613503
-0.623972
-0.633314
-0.641533
-0.648635
-0.0401924
-0.0682503
-0.0963315
-0.124362
-0.152264
-0.179949
-0.20733
-0.234322
-0.26085
-0.286844
-0.312241
-0.336984
-0.361021
-0.384302
-0.406783
-0.428423
-0.449184
-0.46903
-0.487931
-0.505858
-0.522786
-0.538692
-0.553558
-0.567369
-0.580112
-0.591778
-0.602362
-0.611863
-0.620283
-0.627625
-0.0296087
-0.0567774
-0.0840697
-0.111371
-0.13859
-0.165626
-0.192383
-0.218774
-0.244723
-0.270161
-0.295027
-0.319267
-0.34283
-0.36567
-0.387744
-0.409013
-0.42944
-0.448993
-0.467641
-0.485356
-0.502115
-0.517894
-0.532677
-0.546447
-0.559193
-0.570904
-0.581576
-0.591207
-0.599796
-0.607348
-0.0197769
-0.0460368
-0.0725711
-0.0991813
-0.125754
-0.152176
-0.178339
-0.204152
-0.22954
-0.254436
-0.278784
-0.302529
-0.325624
-0.348026
-0.369694
-0.39059
-0.410681
-0.429933
-0.448319
-0.465811
-0.482386
-0.498023
-0.512704
-0.526414
-0.53914
-0.550873
-0.561606
-0.571338
-0.580068
-0.587799
-0.0106118
-0.0359385
-0.0617619
-0.0877281
-0.113701
-0.139547
-0.165145
-0.190405
-0.215253
-0.239624
-0.263465
-0.286725
-0.309361
-0.33133
-0.352594
-0.373118
-0.392869
-0.411817
-0.429934
-0.447194
-0.463574
-0.479055
-0.493619
-0.507249
-0.519936
-0.531668
-0.542439
-0.552247
-0.561091
-0.568973
-0.00200314
-0.0264223
-0.0516224
-0.077004
-0.102426
-0.127737
-0.152802
-0.177532
-0.201857
-0.225717
-0.249063
-0.271847
-0.294029
-0.315569
-0.336432
-0.356584
-0.375994
-0.394632
-0.412473
-0.429492
-0.445667
-0.460978
-0.475409
-0.488943
-0.50157
-0.51328
-0.524066
-0.533925
-0.542856
-0.550861
0.00620426
-0.0173848
-0.0421056
-0.0669739
-0.0918975
-0.116711
-0.141269
-0.165488
-0.189304
-0.212665
-0.235525
-0.257841
-0.279576
-0.300692
-0.321157
-0.340938
-0.360006
-0.378333
-0.395894
-0.412666
-0.428627
-0.443758
-0.458043
-0.471467
-0.484018
-0.495688
-0.506468
-0.516356
-0.525349
-0.533451
0.0144625
-0.00806683
-0.0324813
-0.0569542
-0.081463
-0.105838
-0.129935
-0.153681
-0.177024
-0.199919
-0.222326
-0.244205
-0.265523
-0.286246
-0.306341
-0.325779
-0.344531
-0.362571
-0.379876
-0.396421
-0.412187
-0.427155
-0.441309
-0.454635
-0.46712
-0.478756
-0.489536
-0.499456
-0.508513
-0.51671
0.0240373
0.00288821
-0.0215773
-0.0459404
-0.0702495
-0.0943358
-0.118086
-0.141461
-0.164423
-0.186937
-0.20897
-0.230488
-0.251459
-0.271853
-0.291639
-0.310789
-0.329278
-0.34708
-0.364171
-0.380531
-0.396139
-0.410979
-0.425033
-0.438289
-0.450735
-0.462362
-0.473164
-0.483135
-0.492276
-0.500587
0.0337735
0.0104252
-0.0151259
-0.0396085
-0.0638518
-0.0877062
-0.111102
-0.134065
-0.156585
-0.178637
-0.200194
-0.22123
-0.241718
-0.261631
-0.280943
-0.299629
-0.317666
-0.335031
-0.351704
-0.367666
-0.382898
-0.397387
-0.411116
-0.424075
-0.436252
-0.447641
-0.458235
-0.468032
-0.477029
-0.48523
0.54591
0.552926
0.560105
0.567415
0.574852
0.582414
0.590092
0.597876
0.60575
0.613701
0.621709
0.629754
0.637812
0.645858
0.653864
0.661802
0.669647
0.677376
0.684973
0.692437
0.699782
0.707052
0.71433
0.721746
0.729505
0.737904
0.747256
0.757833
0.771441
0.791193
0.538733
0.545488
0.552507
0.559637
0.566873
0.574224
0.581679
0.589227
0.596853
0.60454
0.612269
0.620017
0.627759
0.635468
0.643115
0.650672
0.65811
0.665405
0.672542
0.679518
0.686348
0.69308
0.699797
0.70664
0.713821
0.721653
0.730466
0.740562
0.753805
0.773443
0.530703
0.537146
0.543981
0.550905
0.557911
0.565018
0.572218
0.579497
0.586838
0.594224
0.601634
0.609043
0.616426
0.623754
0.630997
0.638123
0.645105
0.651916
0.65854
0.664975
0.671238
0.677378
0.683485
0.689706
0.696264
0.703489
0.711735
0.721337
0.734228
0.753763
0.521827
0.52791
0.534536
0.541229
0.547975
0.554807
0.561719
0.568695
0.575716
0.582764
0.589816
0.596847
0.603829
0.610732
0.617524
0.624173
0.630649
0.636925
0.642986
0.648829
0.654474
0.659972
0.665419
0.67097
0.676862
0.68344
0.691081
0.700151
0.712625
0.731899
0.512114
0.517791
0.524183
0.53062
0.537076
0.543602
0.550195
0.556834
0.5635
0.570173
0.576828
0.583441
0.58998
0.596415
0.602711
0.608836
0.614759
0.620452
0.6259
0.6311
0.636076
0.640882
0.645621
0.650456
0.655637
0.661526
0.668523
0.677023
0.689023
0.707932
0.501576
0.506801
0.512936
0.519091
0.525227
0.531418
0.537659
0.543929
0.550205
0.556467
0.562689
0.568843
0.574899
0.580822
0.586579
0.592135
0.597457
0.602519
0.607304
0.611813
0.61607
0.620136
0.624119
0.628192
0.63262
0.637779
0.644092
0.651983
0.663463
0.681933
0.490226
0.494953
0.500809
0.506656
0.512446
0.51827
0.52413
0.529997
0.53585
0.541666
0.547417
0.553075
0.558607
0.563978
0.569152
0.574093
0.578769
0.583153
0.587229
0.590998
0.594489
0.597767
0.600949
0.604216
0.607847
0.612237
0.617828
0.625072
0.635988
0.653955
0.478077
0.482264
0.487819
0.493334
0.498748
0.504178
0.509624
0.515059
0.520455
0.52579
0.531035
0.53616
0.541129
0.545906
0.550455
0.554739
0.558725
0.562385
0.565705
0.568689
0.571368
0.573814
0.576149
0.578569
0.581363
0.584944
0.589777
0.596338
0.606649
0.624054
0.465143
0.46875
0.473982
0.479142
0.484154
0.48916
0.494165
0.499135
0.504043
0.508864
0.513568
0.518122
0.522491
0.526636
0.53052
0.534105
0.537357
0.54025
0.542771
0.544925
0.546748
0.548317
0.549765
0.551297
0.553216
0.555952
0.55999
0.565835
0.575502
0.592292
0.451442
0.454431
0.45932
0.4641
0.468684
0.473239
0.477773
0.482249
0.486639
0.490913
0.495042
0.498992
0.502724
0.506199
0.509379
0.512225
0.514703
0.516788
0.518466
0.519748
0.520674
0.521326
0.521846
0.522451
0.523459
0.525316
0.528528
0.533624
0.542611
0.558734
0.43699
0.439325
0.443852
0.448231