/*--------------------------------*- C++ -*----------------------------------*\
  =========                 |
  \\      /  F ield         | OpenFOAM: The Open Source CFD Toolbox
   \\    /   O peration     | Website:  https://openfoam.org
    \\  /    A nd           | Version:  6.0
     \\/     M anipulation  |
\*---------------------------------------------------------------------------*/
FoamFile
{
    version     2.0;
    format      ascii;
    class       surfaceScalarField;
    location    "22.248";
    object      phi;
}
// * * * * * * * * * * * * * * * * * * * * * * * * * * * * * * * * * * * * * //

dimensions      [0 3 -1 0 0 0 0];

internalField   nonuniform List<scalar> 
38030
(
-8.49203e-06
-0.00797848
0.00798697
-2.71845e-05
-0.00733239
0.00735108
-5.39561e-05
-0.00673984
0.00676661
-8.68353e-05
-0.00619776
0.00623064
-0.000124004
-0.0057027
0.00573986
-0.000163919
-0.0052511
0.00529102
-0.000205295
-0.00483951
0.00488089
-0.000247077
-0.00446455
0.00450634
-0.000288405
-0.00412306
0.00416439
-0.000328593
-0.00381204
0.00385222
-0.000367107
-0.00352869
0.00356721
-0.000403539
-0.00327045
0.00330688
-0.000437598
-0.00303492
0.00306898
-0.00046909
-0.00281993
0.00285142
-0.000497911
-0.00262347
0.00265229
-0.00052403
-0.00244373
0.00246985
-0.000547484
-0.00227905
0.0023025
-0.000568367
-0.00212793
0.00214882
-0.000586825
-0.00198902
0.00200748
-0.000603044
-0.0018611
0.00187732
-0.000617248
-0.00174308
0.00175728
-0.000629691
-0.00163397
0.00164641
-0.000640648
-0.0015329
0.00154386
-0.000650413
-0.00143912
0.00144888
-0.000659289
-0.00135194
0.00136081
-0.000667585
-0.00127075
0.00127905
-0.000675606
-0.00119504
0.00120306
-0.000683651
-0.00112434
0.00113238
-0.000692011
-0.00105823
0.00106659
-0.000996315
0.00100528
-0.00070098
-7.48576e-06
-0.00797099
-2.58702e-05
-0.00731401
-5.22307e-05
-0.00671348
-8.43354e-05
-0.00616566
-0.000120321
-0.00566671
-0.000158629
-0.0052128
-0.000197965
-0.00480017
-0.000237269
-0.00442525
-0.00027568
-0.00408465
-0.000312513
-0.0037752
-0.000347232
-0.00349397
-0.000379437
-0.00323824
-0.000408839
-0.00300552
-0.000435252
-0.00279352
-0.000458578
-0.00260015
-0.000478797
-0.00242351
-0.000495954
-0.00226189
-0.000510156
-0.00211373
-0.000521562
-0.00197762
-0.000530374
-0.00185229
-0.000536834
-0.00173662
-0.000541214
-0.00162959
-0.000543811
-0.00153031
-0.000544943
-0.00143799
-0.000544939
-0.00135194
-0.000544134
-0.00127156
-0.000542861
-0.00119631
-0.000541449
-0.00112575
-0.000540218
-0.00105947
-0.00099704
-0.000539494
-7.09894e-06
-0.0079639
-2.48803e-05
-0.00729622
-5.04128e-05
-0.00668795
-8.13334e-05
-0.00613474
-0.000115709
-0.00563233
-0.000151944
-0.00517656
-0.000188726
-0.00476339
-0.000224985
-0.00438899
-0.000259855
-0.00404978
-0.000292649
-0.00374241
-0.000322833
-0.00346379
-0.000350009
-0.00321107
-0.000373893
-0.00298164
-0.000394302
-0.00277311
-0.000411146
-0.0025833
-0.00042441
-0.00241025
-0.00043415
-0.00225215
-0.000440483
-0.0021074
-0.000443581
-0.00197452
-0.00044366
-0.00185221
-0.000440981
-0.0017393
-0.000435835
-0.00163473
-0.000428544
-0.0015376
-0.000419451
-0.00144708
-0.000408913
-0.00136248
-0.000397298
-0.00128317
-0.000384973
-0.00120863
-0.0003723
-0.00113842
-0.00035964
-0.00107213
-0.00100933
-0.000347352
-6.85134e-06
-0.00795704
-2.39548e-05
-0.00727912
-4.8411e-05
-0.00666349
-7.78139e-05
-0.00610533
-0.000110185
-0.00559996
-0.000143899
-0.00514285
-0.000177626
-0.00472966
-0.000210282
-0.00435634
-0.000240998
-0.00401906
-0.000269086
-0.00371432
-0.000294012
-0.00343886
-0.000315378
-0.0031897
-0.000332903
-0.00296411
-0.00034641
-0.0027596
-0.00035581
-0.0025739
-0.000361097
-0.00240496
-0.000362332
-0.00225092
-0.000359641
-0.00211009
-0.000353209
-0.00198095
-0.000343266
-0.00186215
-0.000330088
-0.00175247
-0.000313989
-0.00165083
-0.000295314
-0.00155627
-0.000274436
-0.00146796
-0.000251745
-0.00138517
-0.000227643
-0.00130727
-0.000202537
-0.00123374
-0.00017683
-0.00116413
-0.000150927
-0.00109803
-0.00103502
-0.000125236
-6.61694e-06
-0.00795043
-2.29658e-05
-0.00726277
-4.61499e-05
-0.00664031
-7.37451e-05
-0.00607774
-0.000103748
-0.00556996
-0.000134514
-0.00511208
-0.000164697
-0.00469948
-0.000193209
-0.00432782
-0.000219176
-0.0039931
-0.000241907
-0.00369159
-0.00026087
-0.0034199
-0.000275668
-0.0031749
-0.000286022
-0.00295376
-0.000291756
-0.00275387
-0.000292785
-0.00257287
-0.000289105
-0.00240864
-0.000280784
-0.00225924
-0.000267955
-0.00212291
-0.000250812
-0.0019981
-0.000229597
-0.00188337
-0.000204604
-0.00177747
-0.000176167
-0.00167927
-0.000144656
-0.00158778
-0.000110473
-0.00150214
-7.40452e-05
-0.0014216
-3.5814e-05
-0.0013455
3.76909e-06
-0.00127332
4.42512e-05
-0.00120461
8.51769e-05
-0.00113895
-0.00107592
0.000126083
-6.35829e-06
-0.00794407
-2.18579e-05
-0.00724727
-4.35848e-05
-0.00661858
-6.91018e-05
-0.00605222
-9.63917e-05
-0.00554267
-0.000123797
-0.00508468
-0.000149968
-0.00467331
-0.000173809
-0.00430398
-0.000194446
-0.00397246
-0.00021119
-0.00367485
-0.000223509
-0.00340758
-0.000231006
-0.00316741
-0.000233404
-0.00295136
-0.000230527
-0.00275674
-0.000222292
-0.00258111
-0.000208696
-0.00242224
-0.00018981
-0.00227812
-0.000165773
-0.00214695
-0.000136784
-0.00202708
-0.000103097
-0.00191705
-6.50211e-05
-0.00181554
-2.29085e-05
-0.00172138
2.28443e-05
-0.00163353
7.18046e-05
-0.0015511
0.000123509
-0.0014733
0.000177469
-0.00139946
0.000233186
-0.00132904
0.000290151
-0.00126157
0.000347846
-0.00119665
-0.00113382
0.000405743
-6.06183e-06
-0.00793801
-2.06056e-05
-0.00723273
-4.06904e-05
-0.0065985
-6.38669e-05
-0.00602904
-8.81096e-05
-0.00551843
-0.000111757
-0.00506103
-0.000133457
-0.00465161
-0.000152116
-0.00428532
-0.000166862
-0.00395771
-0.000177007
-0.0036647
-0.000182022
-0.00340257
-0.000181511
-0.00316792
-0.000175198
-0.00295767
-0.000162908
-0.00276903
-0.000144555
-0.00259946
-0.000120137
-0.00244666
-8.97242e-05
-0.00230854
-5.34574e-05
-0.00218322
-1.154e-05
-0.002069
3.57646e-05
-0.00196436
8.81371e-05
-0.00186791
0.000145206
-0.00177845
0.000206552
-0.00169488
0.00027171
-0.00161626
0.000340178
-0.00154177
0.000411422
-0.00147071
0.000484886
-0.0014025
0.000559999
-0.00133669
0.000636174
-0.00127283
-0.00121045
0.000712806
-5.72362e-06
-0.00793228
-1.91975e-05
-0.00721925
-3.74529e-05
-0.00658024
-5.8029e-05
-0.00600847
-7.88969e-05
-0.00549756
-9.83966e-05
-0.00504153
-0.000115179
-0.00463483
-0.000128158
-0.00427234
-0.000136465
-0.00394941
-0.000139418
-0.00366175
-0.000136491
-0.00340549
-0.000127293
-0.00317712
-0.000111546
-0.00297342
-8.90744e-05
-0.0027915
-5.97907e-05
-0.00262874
-2.3689e-05
-0.00248276
1.91622e-05
-0.00235139
6.86245e-05
-0.00223268
0.000124494
-0.00212487
0.000186503
-0.00202637
0.000254323
-0.00193573
0.000327567
-0.00185169
0.000405795
-0.00177311
0.000488512
-0.00169898
0.000575175
-0.00162843
0.000665201
-0.00156074
0.000757976
-0.00149528
0.000852857
-0.00143157
0.000949181
-0.00136915
-0.00130753
0.00104625
-5.34251e-06
-0.00792694
-1.76288e-05
-0.00720697
-3.3864e-05
-0.00656401
-5.15795e-05
-0.00599075
-6.87474e-05
-0.00548039
-8.3714e-05
-0.00502656
-9.514e-05
-0.0046234
-0.000101948
-0.00426554
-0.000103282
-0.00394807
-9.84665e-05
-0.00366657
-8.69828e-05
-0.00341698
-6.84423e-05
-0.00319566
-4.2569e-05
-0.00299929
-9.185e-06
-0.00282489
3.18003e-05
-0.00266973
8.03982e-05
-0.00253136
0.000136546
-0.00240754
0.000200111
-0.00229625
0.000270893
-0.00219565
0.000348624
-0.0021041
0.000432973
-0.00202008
0.000523542
-0.00194226
0.000619871
-0.00186944
0.000721438
-0.00180054
0.000827662
-0.00173466
0.000937909
-0.00167098
0.0010515
-0.00160887
0.00116772
-0.00154779
0.00128582
-0.00148724
-0.00142671
0.001405
-4.91842e-06
-0.00792202
-1.5896e-05
-0.00719599
-2.99173e-05
-0.00654998
-4.45095e-05
-0.00597616
-5.76514e-05
-0.00546725
-6.77015e-05
-0.00501651
-7.33354e-05
-0.00461777
-7.34916e-05
-0.00426538
-6.73272e-05
-0.00395424
-5.41807e-05
-0.00367971
-3.35417e-05
-0.00343762
-5.02776e-06
-0.00322417
3.16352e-05
-0.00303596
7.66264e-05
-0.00286988
0.000130041
-0.00272315
0.000191899
-0.00259321
0.000262145
-0.00247778
0.000340658
-0.00237476
0.000427244
-0.00228224
0.000521643
-0.0021985
0.000623524
-0.00212196
0.000732486
-0.00205123
0.000848055
-0.00198501
0.000969685
-0.00192217
0.00109676
-0.00186173
0.00122859
-0.00180282
0.00136444
-0.00174472
0.00150351
-0.00168686
0.00164495
-0.00162868
-0.00156961
0.00178786
-4.45073e-06
-0.00791757
-1.39958e-05
-0.00718645
-2.56051e-05
-0.00653838
-3.68076e-05
-0.00596496
-4.55947e-05
-0.00545846
-5.03434e-05
-0.00501176
-4.97502e-05
-0.00461836
-4.27753e-05
-0.00427235
-2.85952e-05
-0.00396842
-6.5653e-06
-0.00370174
2.38116e-05
-0.00346799
6.29094e-05
-0.00326327
0.000110998
-0.00308404
0.000168258
-0.00292714
0.000234789
-0.00278968
0.000310619
-0.00266904
0.000395708
-0.00256287
0.000489946
-0.002469
0.000593155
-0.00238545
0.000705087
-0.00231043
0.000825419
-0.0022423
0.000953754
-0.00217956
0.00108961
-0.00212086
0.00123242
-0.00206499
0.00138155
-0.00201086
0.00153626
-0.00195752
0.00169573
-0.00190419
0.00185909
-0.00185022
0.00202539
-0.00179498
-0.00173782
0.00219359
-3.93833e-06
-0.00791363
-1.19238e-05
-0.00717846
-2.09177e-05
-0.00652938
-2.84585e-05
-0.00595742
-3.25567e-05
-0.00545436
-3.16148e-05
-0.00501271
-2.43573e-05
-0.00462562
-9.77187e-06
-0.00428694
1.29391e-05
-0.00399113
4.43981e-05
-0.0037332
8.50844e-05
-0.00350868
0.000135359
-0.00331354
0.000195486
-0.00314417
0.000265644
-0.0029973
0.000345938
-0.00286997
0.000436407
-0.00275951
0.000537023
-0.00266349
0.000647696
-0.00257967
0.000768268
-0.00250602
0.000898511
-0.00244067
0.00103812
-0.00238191
0.00118671
-0.00232815
0.00134379
-0.00227795
0.00150881
-0.00223001
0.00168109
-0.00218313
0.00185985
-0.00213628
0.00204422
-0.00208857
0.00223324
-0.00203923
0.00242583
-0.00198757
-0.00193282
0.00262084
-3.37981e-06
-0.00791025
-9.67376e-06
-0.00717217
-1.58431e-05
-0.00652321
-1.94426e-05
-0.00595382
-1.85103e-05
-0.0054553
-1.14817e-05
-0.00501973
2.88349e-06
-0.00463998
2.55627e-05
-0.00430962
5.73212e-05
-0.00402289
9.87528e-05
-0.00377463
0.000150313
-0.00356024
0.000212347
-0.00337558
0.000285106
-0.00321693
0.000368764
-0.00308096
0.000463432
-0.00296464
0.000569156
-0.00286524
0.000685927
-0.00278026
0.000813676
-0.00270742
0.00095227
-0.00264462
0.00110151
-0.00258991
0.00126112
-0.00254151
0.00143072
-0.00249775
0.00160987
-0.0024571
0.00179799
-0.00241813
0.0019944
-0.00237954
0.00219829
-0.00234017
0.00240872
-0.002299
0.00262465
-0.00225517
0.0028449
-0.00220782
-0.00215607
0.00306815
-2.77297e-06
-0.00790748
-7.23862e-06
-0.0071677
-1.03662e-05
-0.00652008
-9.73603e-06
-0.00595445
-3.42201e-06
-0.00546161
1.00991e-05
-0.00503326
3.20242e-05
-0.00466191
6.32882e-05
-0.00434088
0.000104616
-0.00406422
0.000156567
-0.00382658
0.000219566
-0.00362324
0.000293932
-0.00344994
0.000379903
-0.0033029
0.000477643
-0.0031787
0.000587263
-0.00307426
0.000708818
-0.00298679
0.000842315
-0.00291376
0.00098771
-0.00285281
0.0011449
-0.00280181
0.00131373
-0.00275874
0.00149394
-0.00272173
0.00168522
-0.00268903
0.00188712
-0.002659
0.0020991
-0.00263011
0.00232048
-0.00260092
0.00255043
-0.00257012
0.00278796
-0.00253654
0.00303195
-0.00249916
0.0032811
-0.00245696
-0.00240891
0.00353394
-2.11536e-06
-0.00790537
-4.60964e-06
-0.00716521
-4.46984e-06
-0.00652022
6.88623e-07
-0.00595961
1.2747e-05
-0.00547367
3.3178e-05
-0.00505369
6.31269e-05
-0.00469186
0.000103478
-0.00438123
0.000154907
-0.00411565
0.000217931
-0.00388961
0.000292935
-0.00369824
0.000380209
-0.00353722
0.000479965
-0.00340266
0.000592354
-0.00329109
0.00071748
-0.00319938
0.000855403
-0.00312472
0.00100615
-0.0030645
0.00116969
-0.00301636
0.00134597
-0.00297809
0.00153487
-0.00294763
0.00173618
-0.00292304
0.00194963
-0.00290248
0.00217484
-0.00288421
0.00241129
-0.00286656
0.00265832
-0.00284794
0.00291509
-0.0028269
0.00318061
-0.00280205
0.00345366
-0.00277221
0.00373283
-0.00273613
-0.00269257
0.00401649
-1.40408e-06
-0.00790396
-1.77732e-06
-0.00716483
1.86475e-06
-0.00652387
1.18615e-05
-0.0059696
3.0039e-05
-0.00549185
5.78109e-05
-0.00508146
9.62613e-05
-0.00473031
0.000146214
-0.00443119
0.000208291
-0.00417772
0.000282953
-0.00396427
0.000370541
-0.00378583
0.000471303
-0.00363798
0.000585419
-0.00351677
0.000713017
-0.00341868
0.000854187
-0.00334055
0.00100899
-0.00327952
0.00117745
-0.00323297
0.00135959
-0.00319849
0.00155537
-0.00317387
0.00176471
-0.00315697
0.00198749
-0.00314582
0.00222349
-0.00313848
0.00247238
-0.0031331
0.00273372
-0.00312789
0.00300688
-0.00312111
0.00329107
-0.00311108
0.00358525
-0.00309624
0.00388818
-0.00307513
0.00419833
-0.00304629
-0.00300815
0.00451391
-6.36228e-07
-0.00790333
1.26808e-06
-0.00716674
8.65699e-06
-0.00653125
2.38132e-05
-0.00598476
4.84979e-05
-0.00551653
8.40552e-05
-0.00511702
0.0001315
-0.00477775
0.000191587
-0.00449127
0.000264872
-0.00425101
0.000351754
-0.00405115
0.000452519
-0.0038866
0.000567362
-0.00375282
0.000696422
-0.00364583
0.000839792
-0.00356205
0.000997538
-0.0034983
0.00116971
-0.00345169
0.00135634
-0.0034196
0.00155746
-0.00339961
0.00177307
-0.00338947
0.00200314
-0.00338705
0.00224762
-0.0033903
0.00250637
-0.00339723
0.00277915
-0.00340588
0.00306559
-0.00341434
0.00336516
-0.00342068
0.00367711
-0.00342303
0.00400043
-0.00341956
0.00433383
-0.00340854
0.00467573
-0.00338818
-0.00335658
0.00502416
1.91109e-07
-0.00790352
4.5361e-06
-0.00717108
1.59254e-05
-0.00654264
3.65734e-05
-0.00600541
6.81653e-05
-0.00554812
0.000111966
-0.00516082
0.000168912
-0.0048347
0.000239681
-0.00456204
0.000324752
-0.00433608
0.000424456
-0.00415085
0.000539009
-0.00400115
0.000668548
-0.00388236
0.000813153
-0.00379044
0.000972872
-0.00372177
0.00114773
-0.00367316
0.00133776
-0.00364172
0.00154299
-0.00362482
0.00176343
-0.00362006
0.00199914
-0.00362518
0.00225014
-0.00363805
0.00251643
-0.00365659
0.00279797
-0.00367877
0.00309464
-0.00370255
0.00340618
-0.00372588
0.00373218
-0.00374667
0.00407197
-0.00376281
0.00442461
-0.0037722
0.00478884
-0.00377277
0.00516299
-0.00376233
-0.00373856
0.00554497
1.08071e-06
-0.0079046
8.03545e-06
-0.00717804
2.36868e-05
-0.0065583
5.01682e-05
-0.00603189
8.90779e-05
-0.00558703
0.000141592
-0.00521333
0.00020856
-0.00490166
0.000290572
-0.00464406
0.000388026
-0.00443353
0.000501172
-0.004264
0.000630148
-0.00413013
0.000775019
-0.00402723
0.000935797
-0.00395121
0.00111247
-0.00389844
0.00130501
-0.0038657
0.00151339
-0.00385011
0.00173763
-0.00384906
0.00197774
-0.00386017
0.00223378
-0.00388122
0.00250581
-0.00391008
0.0027939
-0.00394469
0.00309813
-0.00398299
0.00341849
-0.00402291
0.00375487
-0.00406226
0.00410702
-0.00409882
0.00447442
-0.00413022
0.00485626
-0.00415405
0.00525133
-0.00416784
0.00565795
-0.00416895
-0.00415451
0.00607391
2.03452e-06
-0.00790663
1.17729e-05
-0.00718778
3.19544e-05
-0.00657848
6.46178e-05
-0.00606455
0.000111263
-0.00563368
0.000172969
-0.00527504
0.000250487
-0.00497918
0.000344316
-0.00473788
0.000454763
-0.00454398
0.000581988
-0.00439123
0.000726045
-0.00427418
0.000886912
-0.0041881
0.00106452
-0.00412882
0.00125878
-0.0040927
0.00146959
-0.00407651
0.00169688
-0.00407739
0.00194058
-0.00409276
0.0022007
-0.00412029
0.00247727
-0.00415779
0.0027704
-0.0042032
0.0030802
-0.0042545
0.00340685
-0.00430964
0.00375049
-0.00436654
0.00411119
-0.00442297
0.0044889
-0.00447653
0.00488333
-0.00452464
0.00529384
-0.00456456
0.00571938
-0.00459338
0.00615831
-0.00460788
-0.00460454
0.00660833
3.05394e-06
-0.00790969
1.57531e-05
-0.00720047
4.07364e-05
-0.00660346
7.9934e-05
-0.00610375
0.000134736
-0.00568848
0.000206113
-0.00534642
0.000294715
-0.00506778
0.000400939
-0.00484411
0.000524996
-0.00466804
0.000666951
-0.00453318
0.000826763
-0.00443399
0.00100432
-0.00436566
0.00119945
-0.00432396
0.00141198
-0.00430523
0.00164171
-0.00430624
0.00188848
-0.00432416
0.00215216
-0.00435644
0.00243267
-0.0044008
0.00273003
-0.00445514
0.0030443
-0.00451748
0.00337567
-0.00458587
0.00372438
-0.00465835
0.00409071
-0.00473287
0.00447495
-0.00480721
0.00487729
-0.00487887
0.00529774
-0.00494509
0.00573595
-0.00500278
0.00619111
-0.00504854
0.00666173
-0.0050785
-0.0050883
0.00714549
4.13928e-06
-0.00791382
1.99778e-05
-0.00721631
5.00358e-05
-0.00663352
9.61188e-05
-0.00614983
0.000159495
-0.00575186
0.000241019
-0.00542794
0.00034123
-0.00516799
0.000460423
-0.0049633
0.000598705
-0.00480632
0.000756043
-0.00469052
0.000932297
-0.00461025
0.00112725
-0.00456061
0.00134063
-0.00453734
0.00157215
-0.00453675
0.00182151
-0.0045556
0.00208843
-0.00459108
0.00237267
-0.00464068
0.00267406
-0.0047022
0.00299252
-0.0047736
0.00332808
-0.00485303
0.00368089
-0.00493868
0.00405125
-0.0050287
0.00443956
-0.00512118
0.00484632
-0.00521396
0.00527202
-0.00530457
0.00571704
-0.00539011
0.00618145
-0.00546719
0.00666482
-0.0055319
0.00716593
-0.00557961
-0.00560494
0.00768257
5.29006e-06
-0.00791911
2.44464e-05
-0.00723547
5.98498e-05
-0.00666892
0.000113163
-0.00620315
0.000185519
-0.00582421
0.00027765
-0.00552007
0.000389981
-0.00528032
0.000522697
-0.00509602
0.000675805
-0.00495943
0.000849168
-0.00486388
0.00104254
-0.00480362
0.00125561
-0.00477367
0.00148799
-0.00476972
0.00173927
-0.00478803
0.00200903
-0.00482536
0.00229685
-0.0048789
0.00260236
-0.00494619
0.00292525
-0.00502508
0.00326529
-0.00511365
0.00362241
-0.00521015
0.00399666
-0.00531293
0.00438833
-0.00542037
0.00479789
-0.00553074
0.00522601
-0.00564208
0.0056735
-0.00575206
0.00614119
-0.0058578
0.0066297
-0.0059557
0.00713918
-0.00604139
0.00766893
-0.00610936
-0.00615294
0.00821693
6.50488e-06
-0.00792562
2.91571e-05
-0.00725812
7.01711e-05
-0.00670994
0.000131046
-0.00626402
0.000212768
-0.00590593
0.00031594
-0.00562324
0.000440867
-0.00540525
0.000587629
-0.00524278
0.000756127
-0.00512792
0.000946124
-0.00505388
0.00115728
-0.00501478
0.00138916
-0.00500555
0.00164128
-0.00502184
0.00191311
-0.00505986
0.00220409
-0.00511634
0.00251366
-0.00518847
0.00284129
-0.00527382
0.00318647
-0.00537027
0.0035488
-0.00547598
0.00392801
-0.00558935
0.00432398
-0.00570891
0.00473688
-0.00583327
0.00516712
-0.00596099
0.00561548
-0.00609044
0.00608303
-0.00621961
0.00657108
-0.00634585
0.00708098
-0.00646559
0.0076137
-0.00657411
0.00816935
-0.006665
-0.00672999
0.0087464
7.78401e-06
-0.0079334
3.41104e-05
-0.00728445
8.09912e-05
-0.00675682
0.000149738
-0.00633277
0.00024118
-0.00599738
0.000355785
-0.00573785
0.00049374
-0.00554321
0.000655016
-0.00540406
0.000839412
-0.00531232
0.0010466
-0.00526106
0.00127613
-0.00524431
0.00152747
-0.0052569
0.00180005
-0.00529442
0.00209321
-0.00535301
0.00240626
-0.00542939
0.00273849
-0.00552071
0.0030892
-0.00562453
0.00345768
-0.00573875
0.0038433
-0.0058616
0.00424552
-0.00599156
0.00466395
-0.00612734
0.00509848
-0.0062678
0.00554933
-0.00641183
0.00601716
-0.00655827
0.00650317
-0.00670563
0.00700911
-0.00685179
0.00753712
-0.0069936
0.00808933
-0.00712633
0.00866715
-0.00724282
-0.00733278
0.00926994
9.13405e-06
-0.00794254
3.93171e-05
-0.00731463
9.23065e-05
-0.00680981
0.000169203
-0.00640966
0.000270672
-0.00609885
0.000397046
-0.00586422
0.000548393
-0.00569455
0.000724578
-0.00558024
0.000925302
-0.00551304
0.00115014
-0.0054859
0.00139855
-0.00549272
0.00166993
-0.00552828
0.00196359
-0.00558808
0.00227879
-0.00566821
0.00261472
-0.00576532
0.00297054
-0.00587654
0.00334539
-0.00599937
0.00373836
-0.00613172
0.00414858
-0.00627182
0.00457519
-0.00641818
0.00501746
-0.00656961
0.00547485
-0.00672518
0.00594713
-0.00688411
0.0064346
-0.00704574
0.00693825
-0.00720928
0.00745998
-0.00737351
0.00800262
-0.00753624
0.00856979
-0.0076935
0.00916488
-0.0078379
-0.00795669
0.00978878
1.05796e-05
-0.00795312
4.48116e-05
-0.00734886
0.000104126
-0.00686912
0.000189401
-0.00649494
0.000301141
-0.00621059
0.000439546
-0.00600263
0.000604567
-0.00585958
0.000795962
-0.00577164
0.00101333
-0.00573042
0.00125617
-0.00572873
0.00152385
-0.0057604
0.00181568
-0.00582012
0.00213091
-0.0059033
0.00246871
-0.00600601
0.00282821
-0.00612482
0.00320846
-0.00625679
0.00360848
-0.0063994
0.00402723
-0.00655047
0.00446361
-0.00670819
0.00491648
-0.00687105
0.00538473
-0.00703786
0.0058673
-0.00720775
0.00636334
-0.00738015
0.00687238
-0.00755479
0.00739472
-0.00773162
0.00793174
-0.00791054
0.00848645
-0.00809095
0.00906376
-0.00827082
0.0096699
-0.00844404
-0.00859528
0.0103085
1.21892e-05
-0.00796531
5.06766e-05
-0.00738735
0.000116483
-0.00693493
0.000210289
-0.00658874
0.000332462
-0.00633276
0.000483071
-0.00615324
0.00066195
-0.00603845
0.000868744
-0.00597843
0.00110296
-0.00596463
0.00136399
-0.00598976
0.00165114
-0.00604755
0.00196366
-0.00613264
0.00230072
-0.00624037
0.00266146
-0.00636675
0.00304496
-0.00650832
0.00345025
-0.00666207
0.00387628
-0.00682543
0.00432195
-0.00699615
0.00478608
-0.00717232
0.00526736
-0.00735233
0.00576439
-0.0075349
0.00627569
-0.00771904
0.0067997
-0.00790416
0.007335
-0.00809009
0.00788053
-0.00827715
0.0084362
-0.0084662
0.0090037
-0.00865845
0.00958786
-0.00885498
0.0101978
-0.00905402
-0.00924283
0.0108454
1.41863e-05
-0.00797949
5.71114e-05
-0.00743028
0.000129444
-0.00700726
0.000231815
-0.00669112
0.000364478
-0.00646542
0.000527366
-0.00631612
0.000720178
-0.00623127
0.000942437
-0.00620069
0.00119354
-0.00621573
0.00147279
-0.00626901
0.00177941
-0.00635418
0.0021126
-0.00646582
0.00247148
-0.00659925
0.00285516
-0.00675043
0.00326272
-0.00691588
0.00369321
-0.00709256
0.00414562
-0.00727784
0.00461892
-0.00746944
0.00511198
-0.00766538
0.00562358
-0.00786394
0.00615235
-0.00806367
0.00669671
-0.0082634
0.00725479
-0.00846224
0.00782441
-0.00865971
0.0084031
-0.00885585
0.00898841
-0.00905151
0.00957866
-0.00924869
0.0101749
-0.00945123
0.0107864
-0.00966554
-0.00990435
0.011448
1.73821e-05
-0.00799687
6.45025e-05
-0.0074774
0.000143071
-0.00708583
0.000253873
-0.00680192
0.000396979
-0.00660853
0.000572126
-0.00649127
0.000778843
-0.00643798
0.00101651
-0.00643835
0.00128439
-0.00648362
0.00158169
-0.00656631
0.00190756
-0.00668005
0.00226111
-0.00681937
0.00264145
-0.00697958
0.00304765
-0.00715664
0.00347882
-0.00734705
0.00393406
-0.0075478
0.00441248
-0.00775626
0.0049132
-0.00797017
0.00543537
-0.00818755
0.00597813
-0.00840669
0.0065406
-0.00862614
0.00712183
-0.00884463
0.00772074
-0.00906115
0.00833596
-0.00927493
0.00896566
-0.00948555
0.00960735
-0.0096932
0.0102576
-0.00989895
0.0109111
-0.0101047
0.011563
-0.0103175
-0.0105601
0.0122188
0.00899225
4.60729e-05
-0.00903832
0.00894712
4.51266e-05
0.00890229
4.48336e-05
0.00885761
4.468e-05
0.0088131
4.45066e-05
0.00876884
4.42573e-05
0.00872493
4.39102e-05
0.00868147
4.34589e-05
0.00863857
4.29037e-05
0.00859632
4.22486e-05
0.00855482
4.14985e-05
0.00851416
4.06589e-05
0.00847443
3.97358e-05
0.00843569
3.87353e-05
0.00839803
3.76635e-05
0.0083615
3.65263e-05
0.00832617
3.53296e-05
0.00829209
3.4079e-05
0.00825931
3.27797e-05
0.00822788
3.14368e-05
0.00819782
3.00552e-05
0.00816918
2.86394e-05
0.00814199
2.71936e-05
0.00811627
2.57222e-05
0.00809204
2.42271e-05
0.00806933
2.27051e-05
0.0080482
2.11372e-05
0.00802873
1.94637e-05
0.00801126
1.74774e-05
1.43808e-05
0.0102832
0.000164615
-0.0104017
0.0101635
0.000164833
0.0100431
0.000165165
0.00992247
0.000165358
0.00980171
0.000165265
0.00968115
0.000164818
0.00956108
0.000163983
0.00944179
0.00016275
0.00932357
0.000161123
0.0092067
0.000159111
0.00909147
0.00015673
0.00897813
0.000153998
0.00886694
0.000150935
0.00875811
0.00014756
0.00865188
0.000143896
0.00854844
0.000139962
0.00844799
0.00013578
0.0083507
0.00013137
0.00825673
0.00012675
0.00816623
0.00012194
0.00807933
0.000116955
0.00799615
0.000111813
0.00791682
0.000106528
0.00784143
0.000101113
0.00777008
9.55741e-05
0.00770288
8.99089e-05
0.00763993
8.40894e-05
0.00758135
7.8039e-05
0.00752727
7.1562e-05
6.425e-05
0.0115393
0.00034362
-0.0117183
0.0113575
0.000346614
0.0111737
0.000348932
0.0109886
0.000350511
0.0108026
0.000351278
0.0106162
0.00035119
0.01043
0.000350225
0.0102443
0.000348379
0.0100598
0.000345664
0.0098768
0.000342104
0.0096958
0.000337727
0.00951723
0.00033257
0.00934149
0.00032667
0.00916898
0.000320069
0.00900007
0.000312808
0.0088351
0.000304931
0.0086744
0.00029648
0.00851828
0.000287495
0.00836701
0.000278018
0.00822086
0.000268086
0.00808008
0.000257735
0.0079449
0.000246999
0.00781552
0.00023591
0.00769213
0.000224496
0.00757493
0.000212779
0.00746407
0.000200769
0.0073597
0.00018846
0.00726192
0.000175813
0.00717074
0.000162747
0.000149161
0.0127509
0.000572351
-0.0129796
0.0125178
0.000579714
0.0122812
0.000585549
0.0120418
0.000589866
0.0118005
0.000592645
0.0115578
0.000593873
0.0113145
0.000593546
0.0110712
0.000591677
0.0108285
0.000588292
0.0105872
0.000583429
0.0103478
0.000577136
0.0101109
0.000569468
0.00987709
0.000560487
0.0096469
0.000550258
0.00942086
0.000538849
0.00919946
0.000526329
0.00898318
0.000512766
0.00877244
0.00049823
0.00856767
0.000482786
0.00836926
0.000466498
0.00817757
0.000449426
0.00799294
0.000431628
0.00781569
0.000413159
0.00764612
0.00039407
0.00748449
0.000374407
0.00733105
0.000354212
0.00718599
0.000333518
0.00704945
0.000312349
0.00692147
0.000290727
0.000268717
0.0139101
0.000841058
-0.0141788
0.0136353
0.000854543
0.0133552
0.000865587
0.0130709
0.000874211
0.0127831
0.000880422
0.0124927
0.000884225
0.0122007
0.000885636
0.0119076
0.000884682
0.0116145
0.000881403
0.0113221
0.000875856
0.0110311
0.000868106
0.0107424
0.000858232
0.0104565
0.000846318
0.0101743
0.000832456
0.00989645
0.000816743
0.0096235
0.000799277
0.00935611
0.000780158
0.00909486
0.000759482
0.0088403
0.000737348
0.00859295
0.000713848
0.0083533
0.000689071
0.00812183
0.000663103
0.00789896
0.000636028
0.0076851
0.000607926
0.00748063
0.000578879
0.00728588
0.000548966
0.00710112
0.000518272
0.00692658
0.00048689
0.00676238
0.000454933
0.000422566
0.0150106
0.00114102
-0.0153105
0.0147026
0.00116251
0.0143876
0.00118058
0.0140666
0.00119524
0.0137405
0.0012065
0.0134104
0.00121437
0.0130771
0.00121888
0.0127418
0.00122005
0.0124052
0.00121796
0.0120684
0.00121266
0.0117323
0.00120423
0.0113977
0.00119279
0.0110656
0.00117843
0.0107368
0.00116128
0.0104121
0.00114146
0.0100922
0.0011191
0.00977808
0.00109433
0.00947027
0.00106728
0.00916954
0.00103809
0.00887652
0.00100686
0.00859186
0.000973734
0.00831614
0.000938819
0.00804994
0.000902233
0.00779377
0.000864091
0.00754814
0.000824512
0.00731349
0.000783622
0.0070902
0.000741563
0.00687859
0.000698498
0.0066789
0.000654623
0.000610192
0.0160479
0.00146445
-0.0163713
0.0157145
0.0014959
0.0153721
0.00152291
0.0150219
0.00154545
0.0146649
0.00156352
0.0143021
0.00157712
0.0139348
0.00158627
0.0135638
0.00159102
0.0131903
0.00159142
0.0128154
0.00158755
0.0124402
0.00157951
0.0120655
0.00156742
0.0116925
0.00155141
0.0113222
0.00153162
0.0109555
0.0015082
0.0105933
0.00148131
0.0102365
0.00145112
0.00988598
0.00141778
0.0095426
0.00138146
0.00920715
0.00134232
0.00888037
0.00130051
0.00856301
0.00125618
0.00825577
0.00120947
0.00795932
0.00116055
0.00767427
0.00110956
0.00740121
0.00105668
0.00714065
0.00100212
0.00689303
0.000946115
0.00665872
0.000888936
0.00083093
0.0170188
0.00180446
-0.0173588
0.0166668
0.00184786
0.016304
0.00188575
0.0159314
0.00191807
0.0155501
0.0019448
0.0151613
0.0019659
0.0147662
0.0019814
0.0143659
0.00199132
0.0139616
0.00199573
0.0135544
0.00199469
0.0131456
0.00198832
0.0127363
0.00197675
0.0123276
0.00196012
0.0119206
0.00193859
0.0115165
0.00191235
0.0111162
0.00188158
0.0107208
0.00184647
0.0103314
0.00180722
0.00994884
0.00176402
0.0095741
0.00171706
0.00920808
0.00166652
0.00885167
0.00161259
0.0085057
0.00155544
0.008171
0.00149525
0.00784832
0.00143223
0.0075384
0.0013666
0.0072419
0.00129863
0.00695941
0.00122861
0.00669143
0.00115692
0.001084
0.0179217
0.00215498
-0.0182722
0.0175573
0.00221228
0.01718
0.002263
0.0167911
0.00230703
0.0163916
0.0023443
0.0159827
0.00237476
0.0155657
0.0023984
0.0151418
0.00241521
0.0147123
0.00242526
0.0142783
0.00242862
0.0138413
0.00242538
0.0134024
0.00241568
0.0129628
0.00239968
0.0125238
0.00237756
0.0120867
0.00234951
0.0116525
0.00231576
0.0112225
0.0022765
0.0107977
0.00223198
0.0103793
0.0021824
0.00996841
0.00212799
0.00956599
0.00206895
0.00917308
0.00200549
0.00879069
0.00193783
0.00841978
0.00186617
0.00806128
0.00179074
0.00771607
0.00171181
0.007385
0.0016297
0.00706881
0.00154479
0.00676817
0.00145756
0.00136855
0.0187559
0.00251069
-0.0191116
0.0183844
0.00258378
0.0179981
0.00264923
0.0175983
0.00270688
0.017186
0.0027566
0.0167625
0.00279829
0.016329
0.0028319
0.0158868
0.00285741
0.0154372
0.00287484
0.0149815
0.00288426
0.0145212
0.00288575
0.0140574
0.00287944
0.0135916
0.0028655
0.0131251
0.0028441
0.0126591
0.00281547
0.012195
0.00277984
0.0117341
0.00273743
0.0112776
0.0026885
0.0108267
0.00263329
0.0103826
0.00257205
0.00994655
0.00250499
0.00951969
0.00243236
0.00910315
0.00235437
0.00869807
0.00227125
0.00830554
0.00218327
0.00792663
0.00209072
0.00756236
0.00199396
0.00721368
0.00189347
0.00688143
0.00178982
0.00168368
0.0195218
0.002867
-0.0198781
0.0191479
0.00295769
0.0187574
0.0030397
0.0183515
0.00311281
0.0179313
0.00317683
0.0174979
0.00323161
0.0170528
0.00327705
0.0165971
0.00331308
0.0161323
0.0033397
0.0156596
0.00335693
0.0151805
0.00336484
0.0146964
0.00336355
0.0142086
0.00335322
0.0137187
0.00333404
0.013228
0.00330621
0.0127378
0.00326999
0.0122496
0.00322562
0.0117648
0.00317337
0.0112846
0.0031135
0.0108104
0.00304626
0.0103434
0.00297191
0.00988512
0.00289068
0.0094367
0.00280279
0.00899946
0.00270849
0.00857469
0.00260804
0.00816365
0.00250175
0.00776757
0.00239005
0.0073876
0.00227344
0.0070248
0.00215262
0.00202842
0.0202206
0.00322002
-0.0205736
0.0198483
0.00332996
0.0194578
0.00343025
0.01905
0.00352059
0.0186261
0.0036007
0.0181874
0.00367038
0.0177349
0.00372947
0.0172702
0.00377785
0.0167944
0.00381546
0.016309
0.00384229
0.0158155
0.00385839
0.0153152
0.00386384
0.0148097
0.00385878
0.0143003
0.00384339
0.0137886
0.00381789
0.0132761
0.00378252
0.0127641
0.00373755
0.0122543
0.00368324
0.0117479
0.00361988
0.0112464
0.00354771
0.0107513
0.003467
0.010264
0.00337798