/*--------------------------------*- C++ -*----------------------------------*\
  =========                 |
  \\      /  F ield         | OpenFOAM: The Open Source CFD Toolbox
   \\    /   O peration     | Website:  https://openfoam.org
    \\  /    A nd           | Version:  6.0
     \\/     M anipulation  |
\*---------------------------------------------------------------------------*/
FoamFile
{
    version     2.0;
    format      ascii;
    class       volVectorField;
    location    "7.49";
    object      U;
}
// * * * * * * * * * * * * * * * * * * * * * * * * * * * * * * * * * * * * * //

dimensions      [0 1 -1 0 0 0 0];

internalField   nonuniform List<vector> 
2400
(
(0.0179136 -0.436168 -1.24778e-20)
(0.00536903 -0.340925 5.5869e-21)
(-0.00441016 -0.268327 -6.20667e-21)
(-0.0117121 -0.213101 -4.02207e-21)
(-0.0164762 -0.170821 -7.06751e-21)
(-0.0187884 -0.137999 9.72599e-21)
(-0.0190897 -0.111995 3.98326e-21)
(-0.0178962 -0.0908571 3.73688e-21)
(-0.0157033 -0.0731626 -8.69955e-21)
(-0.0135184 -0.0579164 -6.53315e-22)
(0.0516396 -0.429636 1.38664e-20)
(0.0319472 -0.332977 -1.42549e-21)
(0.017878 -0.261249 2.89676e-21)
(0.00840187 -0.208034 3.79325e-20)
(0.0030232 -0.168192 -2.88615e-20)
(0.00123081 -0.137774 -1.56722e-21)
(0.0022565 -0.113841 -3.18667e-22)
(0.00534905 -0.0942383 -3.84412e-21)
(0.00985798 -0.0773836 -6.8731e-21)
(0.0144507 -0.0622353 -2.72729e-21)
(0.084574 -0.420874 2.54275e-20)
(0.0579913 -0.324148 2.6052e-20)
(0.0405726 -0.254329 -7.52707e-20)
(0.0301806 -0.203912 2.49464e-20)
(0.0255895 -0.167108 4.15611e-20)
(0.0257799 -0.139554 -2.40267e-20)
(0.0296129 -0.118055 -2.06464e-20)
(0.0360851 -0.100249 1.9566e-20)
(0.0443903 -0.0843591 -4.46394e-20)
(0.0527687 -0.0692844 4.73771e-20)
(0.116692 -0.410136 -8.89707e-20)
(0.0837924 -0.314933 4.45071e-20)
(0.0642089 -0.248105 -4.40129e-20)
(0.0543385 -0.201218 2.26397e-20)
(0.0520516 -0.167952 -2.63838e-20)
(0.055741 -0.143632 4.23581e-20)
(0.063861 -0.124862 2.30495e-20)
(0.0751492 -0.109094 -6.95884e-20)
(0.0886521 -0.0943014 -6.82671e-20)
(0.10208 -0.07929 8.01835e-20)
(0.14802 -0.397664 3.70731e-21)
(0.109804 -0.305734 -1.72786e-20)
(0.0895637 -0.242948 -7.66215e-21)
(0.0818771 -0.200185 -9.64608e-21)
(0.0835483 -0.170776 -6.52718e-20)
(0.0923114 -0.14987 1.0782e-20)
(0.106187 -0.133985 -7.14518e-21)
(0.123658 -0.120422 7.58514e-20)
(0.143651 -0.106858 -5.35485e-20)
(0.163247 -0.0919599 -3.90197e-20)
(0.178659 -0.383693 8.56454e-20)
(0.136652 -0.29686 -8.69776e-21)
(0.117639 -0.239044 1.34002e-19)
(0.114051 -0.200767 -1.72455e-20)
(0.121483 -0.175248 8.42293e-20)
(0.136948 -0.157641 -9.57169e-21)
(0.158011 -0.144525 -8.06057e-22)
(0.182918 -0.13316 6.18542e-20)
(0.210532 -0.120914 -3.46363e-20)
(0.237236 -0.10628 6.69069e-20)
(0.208797 -0.36844 -3.24433e-20)
(0.16512 -0.288505 1.15822e-20)
(0.149615 -0.236377 -3.44244e-20)
(0.152293 -0.202645 -4.31588e-20)
(0.167422 -0.180678 -4.65724e-21)
(0.191248 -0.165838 1.42712e-19)
(0.220859 -0.154968 -5.14597e-20)
(0.25428 -0.145477 2.55918e-20)
(0.290413 -0.134518 -8.86935e-20)
(0.324961 -0.120419 -5.65256e-20)
(0.23871 -0.352087 1.55973e-19)
(0.196109 -0.280722 -1.76448e-20)
(0.186763 -0.234726 -1.86378e-19)
(0.198071 -0.20525 1.05506e-20)
(0.22291 -0.186078 4.56619e-20)
(0.256719 -0.172969 -6.83426e-20)
(0.296079 -0.163246 -9.2323e-20)
(0.338797 -0.154751 1.40834e-19)
(0.384003 -0.144666 -1.1967e-20)
(0.426965 -0.131342 -1.30699e-19)
(0.268754 -0.334755 -1.30972e-19)
(0.230574 -0.27338 7.7487e-20)
(0.23031 -0.233651 1.23007e-19)
(0.252714 -0.207823 3.36952e-20)
(0.289262 -0.190321 -1.3207e-19)
(0.334553 -0.177387 8.79178e-20)
(0.384579 -0.166912 5.49249e-20)
(0.436812 -0.157335 1.16409e-19)
(0.490759 -0.146167 -7.12092e-20)
(0.542164 -0.13273 -1.05166e-19)
(0.29933 -0.316431 4.46263e-20)
(0.269387 -0.266097 -1.84339e-20)
(0.281249 -0.232498 -6.30439e-22)
(0.3172 -0.209553 3.83405e-20)
(0.367442 -0.192524 3.27624e-20)
(0.425856 -0.178118 -2.31282e-20)
(0.487915 -0.164566 -4.68266e-20)
(0.550552 -0.150551 7.5102e-20)
(0.612856 -0.134096 -6.38356e-20)
(0.671481 -0.117443 5.89473e-20)
(0.617051 -0.00928558 3.97814e-21)
(0.590536 -0.0551507 1.14761e-20)
(0.560912 -0.0971741 -3.83892e-20)
(0.529131 -0.135317 3.36955e-20)
(0.49603 -0.16969 1.26729e-20)
(0.462329 -0.200539 1.57196e-19)
(0.428604 -0.228215 -6.01218e-20)
(0.395269 -0.253147 -8.05458e-20)
(0.362598 -0.275819 8.35227e-20)
(0.3307 -0.296761 -1.44667e-19)
(0.83222 0.0175661 1.41223e-20)
(0.779333 -0.0409085 -4.5266e-21)
(0.720845 -0.091907 -3.80922e-20)
(0.658926 -0.135086 1.00982e-19)
(0.595634 -0.17052 -3.37031e-20)
(0.532838 -0.198672 2.53746e-19)
(0.472125 -0.220343 -1.56442e-19)
(0.414738 -0.236611 2.23092e-19)
(0.361554 -0.248756 -1.51802e-19)
(0.313067 -0.258163 -7.75123e-20)
(1.01803 0.0672581 -2.80588e-20)
(0.954375 -0.000389068 4.12976e-21)
(0.881808 -0.0596814 -1.217e-19)
(0.803005 -0.109693 9.36194e-20)
(0.720718 -0.150041 -9.45992e-20)
(0.637625 -0.180898 -1.77012e-19)
(0.556162 -0.202972 -5.73445e-20)
(0.478394 -0.21746 -4.90064e-20)
(0.405938 -0.225964 1.54982e-19)
(0.339959 -0.230362 7.99654e-20)
(1.16845 0.11747 1.28283e-20)
(1.10408 0.0447323 -2.2443e-20)
(1.02763 -0.0203245 -3.03656e-20)
(0.941726 -0.0762095 -1.1904e-19)
(0.849323 -0.121966 6.93409e-20)
(0.753506 -0.157246 2.0058e-19)
(0.65729 -0.182357 8.63863e-20)
(0.56341 -0.198277 1.67231e-20)
(0.474187 -0.206634 4.57189e-20)
(0.391534 -0.209604 -1.48418e-21)
(1.28353 0.160265 -1.51504e-20)
(1.22474 0.0861236 -5.94649e-20)
(1.15138 0.0182048 8.02245e-21)
(1.06565 -0.0415912 1.0314e-19)
(0.970257 -0.0917855 1.05888e-19)
(0.868307 -0.131451 -6.97805e-20)
(0.763034 -0.160339 -1.29916e-19)
(0.657574 -0.178999 -6.26428e-20)
(0.554734 -0.188864 7.34388e-20)
(0.457046 -0.192338 1.00163e-19)
(1.36679 0.193782 3.15866e-21)
(1.31706 0.121105 5.05716e-20)
(1.25123 0.0529086 -1.18367e-19)
(1.17082 -0.00869457 1.4824e-19)
(1.07798 -0.0618405 8.73604e-20)
(0.975453 -0.105072 1.58389e-19)
(0.866358 -0.137526 -3.38628e-20)
(0.753867 -0.159173 -9.00865e-20)
(0.640894 -0.17108 2.13355e-19)
(0.530138 -0.175874 -1.73266e-19)
(1.42326 0.217959 7.79804e-21)
(1.38398 0.148699 -6.08828e-20)
(1.32806 0.0822228 -3.78105e-20)
(1.25623 0.0206678 -8.07016e-20)
(1.16993 -0.0338864 -1.1393e-20)
(1.07129 -0.0795601 -1.18651e-19)
(0.962991 -0.114879 -7.33512e-20)
(0.847897 -0.139107 -1.51995e-20)
(0.728504 -0.15274 -1.32381e-19)
(0.60671 -0.158648 1.87987e-19)
(1.45824 0.233782 -6.91025e-21)
(1.42935 0.169032 5.09399e-20)
(1.38414 0.105606 -2.26156e-20)
(1.32262 0.0455092 5.06211e-20)
(1.24545 -0.00913344 1.24114e-19)
(1.15406 -0.0561581 2.01794e-19)
(1.05049 -0.093515 -5.80219e-20)
(0.937071 -0.119605 -1.9857e-19)
(0.815354 -0.133927 5.39548e-20)
(0.684766 -0.139365 -3.09201e-19)
(1.47647 0.242866 1.00748e-20)
(1.45705 0.182944 -1.1991e-20)
(1.42226 0.123174 -1.23041e-19)
(1.37153 0.0653102 3.7561e-20)
(1.30485 0.0113694 -8.70483e-20)
(1.22291 -0.036365 -3.60486e-20)
(1.12715 -0.0753563 -2.87802e-20)
(1.01939 -0.102951 8.25398e-20)
(0.900196 -0.116743 9.51377e-20)
(0.76454 -0.117819 5.79717e-20)
(1.48172 0.246809 -2.44709e-20)
(1.47036 0.191833 4.38362e-20)
(1.44505 0.135989 2.04122e-20)
(1.40476 0.0806945 6.2288e-20)
(1.34891 0.0277059 -7.16508e-21)
(1.2776 -0.0207729 -4.80728e-21)
(1.19171 -0.0619521 -1.6124e-19)
(1.09295 -0.0922722 2.0539e-19)
(0.982021 -0.106887 -1.26994e-19)
(0.84812 -0.101043 2.6445e-20)
(0.53783 0.499819 -5.63084e-20)
(0.577639 0.460377 6.49501e-20)
(0.61109 0.415497 1.07472e-21)
(0.637514 0.366144 -1.60677e-19)
(0.656404 0.313405 1.19481e-19)
(0.667528 0.258476 -8.96623e-20)
(0.670935 0.202577 -2.1863e-20)
(0.666942 0.146885 -2.08457e-20)
(0.656123 0.0924699 3.45523e-20)
(0.639256 0.0402127 2.39894e-21)
(0.752902 0.674528 8.32382e-20)
(0.813215 0.632083 2.21607e-20)
(0.864138 0.579513 -1.14886e-19)
(0.904125 0.518367 -1.40731e-19)
(0.931928 0.450447 1.11408e-19)
(0.946733 0.377782 -1.00046e-19)
(0.948218 0.302538 1.1935e-19)
(0.93658 0.226909 -3.13282e-20)
(0.912536 0.153 -1.04795e-19)
(0.877278 0.0826937 -7.87681e-21)
(0.887159 0.75533 -6.34147e-21)
(0.959366 0.718888 1.86485e-21)
(1.02212 0.670109 7.60421e-20)
(1.07331 0.610476 7.71796e-20)
(1.11114 0.541783 1.77397e-19)
(1.13423 0.466125 6.36634e-20)
(1.14171 0.385829 -4.30135e-20)
(1.13325 0.303363 -9.46502e-20)
(1.10915 0.221221 7.67334e-20)
(1.0703 0.141796 5.27646e-21)
(0.968961 0.77532 2.22775e-20)
(1.04704 0.747193 -5.26238e-20)
(1.11689 0.706229 -2.58906e-20)
(1.17613 0.653596 -1.46639e-19)
(1.22264 0.590777 -8.95145e-20)
(1.25466 0.519589 1.72483e-19)
(1.27083 0.442132 1.17277e-19)
(1.2703 0.360725 -9.87795e-20)
(1.25277 0.277831 4.59221e-21)
(1.21855 0.195944 -4.40572e-21)
(1.01728 0.759116 -6.03324e-20)
(1.09711 0.738771 1.01198e-19)
(1.17032 0.706142 -2.63961e-20)
(1.23444 0.662015 7.95727e-20)
(1.28725 0.607488 -5.55561e-20)
(1.32682 0.543992 -1.0386e-19)
(1.35153 0.473258 5.54014e-20)
(1.36012 0.397268 -5.86007e-20)
(1.35178 0.318216 -5.8473e-20)
(1.32619 0.238428 2.56311e-20)
(1.04517 0.723644 -1.08463e-20)
(1.12419 0.709589 1.84842e-20)
(1.19806 0.684401 -1.78417e-20)
(1.26431 0.648443 -1.50939e-19)
(1.32083 0.602446 8.68651e-20)
(1.36575 0.547486 1.73409e-20)
(1.39739 0.484917 -9.54959e-20)
(1.41429 0.416344 -3.52369e-20)
(1.4153 0.343601 3.29694e-20)
(1.3996 0.268703 -9.32569e-21)
(1.06124 0.679632 -1.43878e-20)
(1.13829 0.67031 4.79907e-21)
(1.21108 0.651276 2.43639e-20)
(1.27729 0.622388 8.53984e-20)
(1.33516 0.58409 2.16057e-20)
(1.38307 0.537193 5.48494e-20)
(1.41948 0.482752 1.16509e-19)
(1.44292 0.422041 -4.98937e-20)
(1.45207 0.356538 4.66983e-20)
(1.44582 0.287906 -1.75652e-20)
(1.07104 0.63353 -1.33503e-20)
(1.14577 0.628016 1.94829e-20)
(1.21636 0.614002 1.89733e-20)
(1.28087 0.590876 -4.40787e-20)
(1.33813 0.558972 -2.88701e-20)
(1.38696 0.518991 -6.0266e-20)
(1.42604 0.4718 8.45808e-21)
(1.45401 0.418427 -1.42337e-20)
(1.46953 0.360053 -9.94798e-20)
(1.47133 0.298014 1.39907e-20)
(1.07874 0.589696 -2.16157e-21)
(1.15049 0.587742 -1.43142e-20)
(1.21767 0.577749 -1.57775e-20)
(1.27909 0.558988 9.776e-21)
(1.3343 0.531995 -4.19323e-21)
(1.38247 0.497515 5.34649e-20)
(1.42252 0.456314 2.41382e-20)
(1.45323 0.409246 3.89702e-20)
(1.47333 0.357263 4.78267e-20)
(1.48151 0.301417 -2.05689e-20)
(1.09047 0.549747 -2.70711e-21)
(1.15733 0.549264 2.29479e-20)
(1.21904 0.541749 -6.23311e-20)
(1.2757 0.526067 -4.19939e-21)
(1.32739 0.502906 8.05517e-20)
(1.37347 0.473023 3.95257e-21)
(1.41293 0.437066 4.82226e-20)
(1.44469 0.395705 -1.06687e-19)
(1.46758 0.34967 -1.29814e-21)
(1.48036 0.299751 1.09211e-20)
(0.597755 0.193586 -8.07272e-21)
(0.556987 0.209144 2.84949e-21)
(0.510279 0.227696 9.44559e-22)
(0.456845 0.25038 -1.52548e-20)
(0.395758 0.278674 6.78619e-21)
(0.326502 0.314116 2.01685e-20)
(0.249496 0.357676 -1.88162e-20)
(0.167013 0.408388 -4.84423e-21)
(0.087283 0.460783 -5.84274e-21)
(0.0323824 0.500462 -2.14735e-20)
(0.620157 0.25126 -2.21937e-20)
(0.581285 0.271651 4.67909e-20)
(0.536512 0.295483 -4.31366e-20)
(0.485372 0.323631 -7.329e-21)
(0.426988 0.3571 1.22117e-20)
(0.360829 0.396459 -1.43951e-20)
(0.287205 0.440915 -4.0819e-20)
(0.208022 0.486568 4.74226e-20)
(0.130583 0.523162 -8.06192e-23)
(0.0749146 0.52861 2.17093e-20)
(0.650064 0.306116 -7.39528e-20)
(0.613807 0.331103 7.8691e-20)
(0.571663 0.359977 2.74941e-20)
(0.523567 0.393293 1.51812e-21)
(0.468645 0.431578 1.76804e-20)
(0.40622 0.474436 6.99864e-21)
(0.336262 0.519344 -1.16157e-20)
(0.259911 0.559552 -2.56288e-20)
(0.182812 0.580276 -1.88422e-20)
(0.121584 0.552356 2.7677e-20)
(0.687106 0.357163 -6.11549e-20)
(0.654096 0.386397 5.73825e-20)
(0.615211 0.419946 4.62088e-20)
(0.570846 0.457967 -3.1584e-20)
(0.520067 0.500508 -1.16854e-19)
(0.461923 0.546235 3.77831e-20)
(0.395824 0.590958 -2.72598e-20)
(0.321771 0.625264 7.47119e-20)
(0.243098 0.630275 6.5815e-20)
(0.171798 0.570729 -5.84433e-20)
(0.730761 0.403511 -4.375e-20)
(0.701514 0.436538 1.99239e-20)
(0.666429 0.474262 -5.52301e-20)
(0.626386 0.51636 4.34665e-20)
(0.580316 0.562406 -2.08174e-20)
(0.52687 0.610167 -1.75664e-20)
(0.46469 0.653898 -1.76971e-20)
(0.392308 0.681785 -2.8042e-21)
(0.310194 0.671467 -2.59179e-20)
(0.224744 0.58287 -1.54533e-20)
(0.780346 0.4444 1.09438e-19)
(0.755235 0.480671 2.2401e-20)
(0.72438 0.521942 -7.48975e-20)
(0.689132 0.567323 7.01143e-20)
(0.648192 0.61594 3.23614e-20)
(0.599691 0.664719 5.22396e-20)
(0.54132 0.706502 -3.00648e-21)
(0.469871 0.727426 3.19146e-20)
(0.382534 0.702395 8.10448e-21)
(0.279432 0.588078 3.08904e-20)
(0.834981 0.479237 -1.17892e-19)
(0.814225 0.518106 1.36251e-19)
(0.787911 0.562155 -6.57498e-20)
(0.757799 0.609864 -3.72171e-20)
(0.722245 0.659954 4.15086e-22)
(0.67874 0.70858 -5.03543e-20)
(0.623875 0.747356 3.42819e-20)
(0.552498 0.760778 3.80286e-20)
(0.458277 0.721894 5.39649e-21)
(0.334741 0.585848 -2.28044e-20)
(0.893536 0.507691 -8.64482e-21)
(0.877198 0.548344 -5.26192e-20)
(0.855624 0.594224 2.236e-20)
(0.830872 0.643148 -4.43216e-21)
(0.80079 0.693477 -1.77981e-20)
(0.762125 0.74067 8.44551e-21)
(0.710252 0.775324 -3.15553e-21)
(0.637976 0.780765 -8.74608e-21)
(0.535375 0.729138 8.26036e-21)
(0.389457 0.575885 -8.75973e-21)
(0.954596 0.529904 1.75345e-20)
(0.942606 0.571296 5.78215e-21)
(0.925979 0.617773 -3.67415e-20)
(0.906739 0.66658 2.74374e-20)
(0.882015 0.71577 -1.15251e-20)
(0.847784 0.760175 -3.87142e-21)
(0.798168 0.789592 -8.90865e-21)
(0.723914 0.786684 -1.77231e-21)
(0.611661 0.72368 -5.41267e-20)
(0.442348 0.558143 3.35618e-20)
(1.01479 0.543566 -2.15739e-20)
(1.00683 0.584852 1.56893e-20)
(0.996247 0.631257 -3.33544e-21)
(0.983135 0.679105 -3.12416e-21)
(0.96373 0.726055 -1.18475e-20)
(0.933431 0.76646 -5.86442e-21)
(0.885183 0.789658 7.82369e-21)
(0.807827 0.778212 3.76062e-20)
(0.684947 0.705444 4.93357e-20)
(0.492235 0.532786 7.18545e-21)
(0.772549 -0.316584 1.34206e-19)
(0.743525 -0.33813 -8.3656e-20)
(0.706595 -0.357883 3.18458e-20)
(0.661126 -0.370747 -7.27653e-20)
(0.602323 -0.372007 -4.76044e-20)
(0.524101 -0.3541 -7.40069e-20)
(0.418788 -0.306016 -9.02078e-20)
(0.27673 -0.213208 -4.14663e-20)
(0.0865037 -0.0571676 -5.75906e-20)
(-0.166411 0.185318 2.88086e-20)
(0.729616 -0.283454 -8.07951e-20)
(0.69944 -0.30354 -6.69643e-20)
(0.66061 -0.322382 1.15695e-19)
(0.613409 -0.335424 5.71481e-20)
(0.554065 -0.337854 8.49923e-20)
(0.477233 -0.322081 -1.43392e-19)
(0.376241 -0.276967 4.93752e-20)
(0.242873 -0.187495 1.01455e-19)
(0.0681097 -0.034019 6.94897e-20)
(-0.157897 0.209009 -7.43334e-20)
(0.689394 -0.244004 3.8178e-20)
(0.657251 -0.262042 -1.56399e-20)
(0.616766 -0.279242 1.65063e-19)
(0.567964 -0.291494 -9.9428e-20)
(0.507801 -0.294033 -8.14221e-20)
(0.431797 -0.279458 4.68507e-20)
(0.334414 -0.236832 -6.16861e-22)
(0.209082 -0.151198 -2.05066e-19)
(0.0495363 -0.00262234 -8.24495e-21)
(-0.148802 0.235365 6.54468e-20)
(0.65419 -0.200172 2.53371e-19)
(0.619679 -0.215394 -1.18666e-19)
(0.577303 -0.229888 3.99477e-20)
(0.526749 -0.240094 -6.84172e-20)
(0.465489 -0.241481 1.78725e-19)
(0.389859 -0.226995 -9.53133e-21)
(0.295478 -0.186182 -3.37504e-20)
(0.177499 -0.10465 5.02645e-21)
(0.0325833 0.0369178 1.6984e-20)
(-0.138298 0.264381 -8.57817e-20)
(0.624804 -0.151877 -2.19346e-19)
(0.587911 -0.163718 -2.3783e-21)
(0.543611 -0.174733 8.94316e-20)
(0.491304 -0.1819 -4.39486e-21)
(0.428857 -0.181034 -1.02575e-20)
(0.353351 -0.165584 1.18035e-19)
(0.26152 -0.125865 -2.21089e-20)
(0.150221 -0.0485645 2.7434e-20)
(0.0190283 0.0841161 5.32487e-21)
(-0.125575 0.29583 1.14441e-19)
(0.601851 -0.0995074 8.06748e-21)
(0.562828 -0.107503 -1.28957e-19)
(0.516803 -0.114439 1.1642e-19)
(0.462939 -0.117762 -1.02287e-20)
(0.399426 -0.113699 1.98378e-20)
(0.324009 -0.096341 -9.98153e-20)
(0.234448 -0.057027 -1.49724e-20)
(0.129196 0.0159923 -7.46066e-21)
(0.0105503 0.138124 -5.24266e-20)
(-0.109872 0.329286 -2.4925e-20)
(0.585858 -0.043791 1.13399e-19)
(0.545147 -0.0475322 -1.08203e-19)
(0.497776 -0.0498994 -5.13558e-21)
(0.442734 -0.0487255 -1.28853e-19)
(0.378477 -0.04068 7.04449e-20)
(0.30332 -0.0206038 -4.46716e-20)
(0.215925 0.0189124 3.75263e-20)
(0.116143 0.0876288 -7.21088e-20)
(0.00864659 0.197776 -6.76885e-20)
(-0.09051 0.364138 -4.86208e-20)
(0.577234 0.0143929 7.11095e-20)
(0.535418 0.0152383 -7.22837e-20)
(0.487219 0.0178216 3.20841e-20)
(0.431532 0.0239987 2.26458e-20)
(0.367027 0.0366432 -4.19274e-20)
(0.292487 0.0600825 7.20925e-20)
(0.207315 0.100289 4.40022e-20)
(0.112492 0.164673 -1.33883e-19)
(0.01457 0.261626 2.25713e-20)
(-0.0669331 0.399621 5.85483e-20)
(0.576259 0.0740592 7.54285e-20)
(0.534028 0.0797255 -1.1472e-20)
(0.485624 0.0875265 -6.58737e-21)
(0.429942 0.0990615 -5.25002e-22)
(0.365825 0.116742 2.81635e-20)
(0.292411 0.144003 -8.32707e-20)
(0.209653 0.185235 6.87417e-20)
(0.119336 0.245221 5.37117e-21)
(0.0292817 0.328002 -2.51945e-21)
(-0.0387384 0.43485 4.28132e-20)
(0.583091 0.134152 -2.18997e-20)
(0.5412 0.144762 -2.31179e-21)
(0.493281 0.157927 6.09464e-21)
(0.438337 0.175017 6.78933e-21)
(0.375341 0.19798 1.71377e-20)
(0.303668 0.229314 -1.23902e-20)
(0.223615 0.271731 -7.2844e-21)
(0.137404 0.327189 -1.13588e-20)
(0.0534242 0.395054 1.05244e-20)
(-0.00567769 0.468846 -7.71048e-21)
(0.83246 -0.349794 1.31895e-19)
(0.88257 -0.371711 -4.81369e-20)
(0.928675 -0.388216 1.24109e-20)
(0.970969 -0.397416 5.00235e-20)
(1.00959 -0.39949 2.51438e-20)
(1.04366 -0.394858 2.07623e-21)
(1.07183 -0.383735 1.52391e-21)
(1.09262 -0.366344 -2.37457e-21)
(1.10437 -0.343035 -1.73282e-21)
(1.1054 -0.314344 1.21459e-21)
(0.796362 -0.36756 6.08345e-20)
(0.848632 -0.389109 4.85496e-20)
(0.897677 -0.404146 4.45099e-20)
(0.94223 -0.411388 -1.31448e-20)
(0.981625 -0.410831 -1.08015e-20)
(1.01488 -0.402827 -7.61984e-21)
(1.04064 -0.387736 7.49645e-22)
(1.05738 -0.366034 6.11654e-21)
(1.06349 -0.33839 2.08779e-21)
(1.05744 -0.305719 -2.29334e-21)
(0.757959 -0.384938 -1.78948e-19)
(0.810282 -0.404145 1.74877e-20)
(0.859879 -0.416073 -8.47488e-20)
(0.904521 -0.419943 -1.24735e-20)
(0.942852 -0.41563 3.99266e-20)
(0.973561 -0.403451 1.06313e-20)
(0.995191 -0.38393 -2.61537e-21)
(1.00623 -0.357813 -6.77475e-22)
(1.00526 -0.326103 -8.3599e-21)
(0.991063 -0.29009 1.58745e-21)
(0.711739 -0.396363 -4.75905e-20)
(0.762693 -0.413008 -6.82676e-20)
(0.810764 -0.421244 -6.42391e-21)
(0.853395 -0.420843 -2.11787e-20)
(0.888704 -0.411895 -2.0675e-20)
(0.915057 -0.394893 -1.93616e-21)
(0.930918 -0.370625 -8.92859e-22)
(0.9349 -0.340163 1.25757e-21)
(0.925872 -0.304874 8.75951e-21)
(0.903112 -0.266411 -1.82988e-21)
(0.651695 -0.395669 -1.02425e-19)
(0.700135 -0.409275 1.06461e-19)
(0.744905 -0.413403 5.61258e-21)
(0.783454 -0.408311 -4.35816e-21)
(0.813681 -0.394474 1.16258e-20)
(0.833832 -0.37272 2.15814e-21)
(0.842442 -0.344195 -8.7286e-21)
(0.838385 -0.31034 1.1362e-20)
(0.820969 -0.272877 -1.68902e-21)
(0.790051 -0.233755 -7.24218e-22)
(0.570723 -0.374979 1.4729e-19)
(0.615023 -0.38507 -8.12484e-20)
(0.654562 -0.385046 -2.42711e-20)
(0.686961 -0.375581 -5.77069e-21)
(0.710191 -0.357585 -8.48725e-21)
(0.722623 -0.332286 2.08678e-21)
(0.723059 -0.301208 -7.29658e-21)
(0.710787 -0.26614 -3.55358e-21)
(0.685658 -0.229073 2.78046e-21)
(0.648144 -0.192112 3.34048e-21)
(0.459983 -0.323715 2.39883e-20)
(0.497686 -0.330518 1.4343e-20)
(0.529698 -0.327286 2.69386e-21)
(0.553932 -0.315061 -7.73397e-21)
(0.568645 -0.295148 2.44839e-20)
(0.572555 -0.269132 -5.77619e-22)
(0.564896 -0.23884 2.93304e-21)
(0.545467 -0.206273 1.5136e-21)
(0.514676 -0.173515 3.657e-21)
(0.473537 -0.142615 -2.53874e-21)
(0.308522 -0.228341 6.96037e-20)
(0.336242 -0.233502 4.81945e-20)
(0.358035 -0.22976 -8.10937e-20)
(0.372232 -0.218413 -1.49141e-20)
(0.377546 -0.201005 -2.1853e-20)
(0.373178 -0.179297 -1.38014e-21)
(0.358865 -0.155197 -9.82134e-21)
(0.334899 -0.130665 1.28182e-20)
(0.302126 -0.107606 -2.4492e-22)
(0.261889 -0.0877599 5.35664e-21)
(0.102927 -0.0723026 -1.27748e-20)
(0.115903 -0.0800221 -8.18999e-20)
(0.124104 -0.0814326 6.01496e-20)
(0.126434 -0.0778071 -1.82748e-20)
(0.122171 -0.07058 2.20584e-20)
(0.111025 -0.0613026 -7.53487e-22)
(0.0931501 -0.0515614 -8.34792e-21)
(0.0691406 -0.0428863 1.17134e-21)
(0.0399839 -0.0366597 -3.60877e-22)
(0.0069798 -0.0340415 -2.72417e-21)
(-0.175185 0.164013 -1.24868e-20)
(-0.184495 0.145068 4.31539e-20)
(-0.194939 0.127839 -1.7698e-20)
(-0.206851 0.111687 4.50099e-21)
(-0.220362 0.0959585 -5.13086e-21)
(-0.235396 0.0799942 1.60535e-21)
(-0.251674 0.0631635 1.33327e-21)
(-0.268734 0.0449109 5.65863e-21)
(-0.285977 0.0247924 -2.66698e-21)
(-0.302718 0.00248674 -9.24171e-22)
(1.09408 -0.281063 1.84559e-21)
(1.0691 -0.244376 -8.77553e-21)
(1.02971 -0.205904 4.72927e-20)
(0.975985 -0.167744 -3.4144e-20)
(0.908986 -0.132423 3.99502e-21)
(0.830805 -0.102748 -3.40991e-20)
(0.744252 -0.0815379 1.71492e-19)
(0.652035 -0.0712151 8.58265e-21)
(0.552827 -0.0738368 -5.07851e-20)
(0.434948 -0.0860331 1.14396e-19)
(1.03792 -0.269233 6.00728e-21)
(1.00412 -0.230548 -1.75693e-20)
(0.955947 -0.191641 -1.7669e-20)
(0.894175 -0.154816 -1.29257e-20)
(0.820549 -0.122566 -3.69177e-20)
(0.73761 -0.097353 -9.22676e-22)
(0.648203 -0.0812872 -1.12521e-20)
(0.55448 -0.0756371 3.15729e-20)
(0.455287 -0.0803545 1.01299e-19)
(0.344806 -0.0890339 -2.22786e-20)
(0.962818 -0.251365 -4.03714e-21)
(0.920352 -0.211873 3.51428e-20)
(0.864281 -0.173793 9.01204e-21)
(0.796086 -0.139439 -2.02612e-21)
(0.718063 -0.111062 4.02552e-20)
(0.633051 -0.0905964 1.7485e-20)
(0.543902 -0.0793081 3.37696e-20)
(0.452663 -0.0773047 -3.63713e-20)
(0.359262 -0.082933 -7.2475e-20)
(0.262294 -0.0897609 -1.70093e-19)
(0.866387 -0.226676 4.91562e-21)
(0.816234 -0.187823 -1.55103e-20)
(0.753978 -0.152067 2.21912e-20)
(0.681699 -0.121549 -5.03853e-20)
(0.602086 -0.0981252 -2.96778e-20)
(0.518126 -0.0831116 -1.40116e-20)
(0.432625 -0.0769829 -7.06597e-20)
(0.347651 -0.0790146 -3.25866e-20)
(0.264065 -0.0869053 3.9336e-21)
(0.182679 -0.095485 5.26802e-20)
(0.74606 -0.195067 2.41158e-21)
(0.690211 -0.159006 -2.04992e-23)
(0.624432 -0.127638 1.4652e-20)
(0.551214 -0.10276 4.48108e-20)
(0.473428 -0.0857145 -7.5968e-21)
(0.39401 -0.0771845 -6.57963e-20)
(0.315587 -0.076985 1.10732e-19)
(0.240146 -0.0838682 -3.36852e-20)
(0.168948 -0.0953881 -2.51512e-20)
(0.103412 -0.10755 -1.18183e-20)
(0.599286 -0.157359 -6.67798e-21)
(0.540845 -0.126844 6.93409e-21)
(0.475137 -0.102295 2.287e-20)
(0.404815 -0.0850365 -2.20526e-20)
(0.332672 -0.0758457 4.34305e-20)
(0.261388 -0.0748278 -5.31375e-21)
(0.193256 -0.0813068 4.16708e-21)
(0.130015 -0.0937602 2.76797e-20)
(0.0728947 -0.109836 2.16031e-20)
(0.0231474 -0.126418 6.89113e-21)
(0.42354 -0.115467 9.91445e-22)
(0.366747 -0.0937255 -1.3257e-21)
(0.305578 -0.0786385 3.26223e-20)
(0.242552 -0.0709868 -3.90571e-20)
(0.18014 -0.0710123 -7.40261e-20)
(0.120574 -0.0783633 3.56303e-20)
(0.0656888 -0.0920664 -1.8868e-20)
(0.0168503 -0.110537 1.99971e-20)
(-0.0249703 -0.131659 5.61761e-20)
(-0.058927 -0.152975 -6.082e-20)
(0.215852 -0.0725914 -1.04944e-21)
(0.166049 -0.0631992 -2.04849e-20)
(0.114678 -0.0602796 2.88702e-20)
(0.0638408 -0.0640935 1.77184e-20)
(0.0154698 -0.0744522 -5.41166e-20)
(-0.0287844 -0.0907241 -4.24047e-20)
(-0.0676217 -0.11185 -3.01383e-21)
(-0.100105 -0.136381 6.64902e-21)
(-0.125594 -0.162552 8.27861e-21)
(-0.143621 -0.188455 -2.37728e-20)
(-0.0284103 -0.0359042 1.76551e-21)
(-0.0645651 -0.0426607 2.82071e-20)
(-0.0998682 -0.0545051 1.14439e-20)
(-0.132883 -0.0713033 -3.79247e-20)
(-0.162382 -0.0926225 3.74137e-20)
(-0.18738 -0.117774 -4.88713e-20)
(-0.207146 -0.145847 6.42772e-20)
(-0.221174 -0.175723 -7.71434e-20)
(-0.229139 -0.20613 -4.08128e-20)
(-0.23084 -0.235726 -1.09504e-19)
(-0.31821 -0.0222299 -4.87097e-22)
(-0.33173 -0.0490223 -8.12111e-21)
(-0.342655 -0.077818 6.00777e-21)
(-0.350454 -0.108339 7.1411e-21)
(-0.354734 -0.140194 -1.61304e-20)
(-0.35523 -0.172922 1.58416e-20)
(-0.351784 -0.206008 -1.93754e-20)
(-0.344315 -0.238887 1.49764e-20)
(-0.332795 -0.270953 -3.80841e-20)
(-0.317216 -0.301595 4.20677e-20)
(-0.297479 -0.330179 6.01284e-20)
(-0.226226 -0.263272 -4.52322e-20)
(-0.153873 -0.212445 -4.71201e-20)
(-0.0840605 -0.172389 6.34414e-20)
(-0.0171583 -0.140657 -5.85981e-21)
(0.0472567 -0.115953 7.59513e-20)
(0.109262 -0.0970478 8.7972e-21)
(0.169002 -0.0830962 -6.86012e-20)
(0.227731 -0.0741992 1.27285e-19)
(0.28463 -0.0671771 -1.76226e-20)
(-0.274219 -0.355801 -6.34196e-20)
(-0.215774 -0.287735 1.74293e-19)
(-0.156477 -0.233565 -7.17997e-21)
(-0.0997747 -0.189301 -5.7923e-20)
(-0.0459629 -0.15285 4.60868e-20)
(0.00548436 -0.122896 -1.0505e-19)
(0.0548645 -0.0981249 1.21225e-19)
(0.102721 -0.077596 -1.02979e-19)
(0.150525 -0.0615855 1.82622e-20)
(0.196571 -0.0494959 8.07534e-20)
(-0.247817 -0.378329 3.63566e-20)
(-0.200188 -0.308624 -1.09734e-19)
(-0.152261 -0.251313 3.81443e-20)
(-0.106996 -0.203491 -2.1169e-20)
(-0.0644714 -0.163402 3.92012e-20)
(-0.0240086 -0.129841 -2.9277e-20)
(0.0148645 -0.101692 -2.80387e-20)
(0.0527632 -0.0782776 3.80188e-20)
(0.0906628 -0.0599217 -8.90094e-20)
(0.126508 -0.0465328 1.33774e-19)
(-0.21874 -0.397533 -7.73824e-20)
(-0.180374 -0.325615 8.43598e-21)
(-0.142422 -0.265353 3.99844e-20)
(-0.107197 -0.214645 5.41296e-20)
(-0.0745341 -0.171971 -8.27371e-20)
(-0.0436575 -0.136197 6.93125e-21)
(-0.0140514 -0.106331 -4.6481e-20)
(0.0148042 -0.0818005 -9.80762e-20)
(0.043506 -0.0627463 1.86801e-19)
(0.070307 -0.0489378 7.15767e-20)
(-0.187518 -0.413255 5.41333e-20)
(-0.157302 -0.338534 1.23291e-20)
(-0.128212 -0.275491 4.8416e-20)
(-0.101855 -0.222494 -5.99603e-21)
(-0.0778296 -0.178081 6.4261e-20)
(-0.0553103 -0.141066 3.15325e-20)
(-0.0337989 -0.110419 8.1204e-20)
(-0.0128956 -0.0854727 -8.25813e-20)
(0.00775498 -0.0660531 -8.60985e-21)
(0.0268108 -0.0517477 -9.31997e-20)
(-0.154687 -0.425429 3.56466e-20)
(-0.131907 -0.347376 -4.22134e-20)
(-0.110805 -0.281733 -9.61499e-21)
(-0.0923093 -0.226972 -1.6562e-20)
(-0.0758185 -0.1815 -1.82263e-20)
(-0.0605038 -0.14394 -2.33035e-20)
(-0.0459213 -0.113109 3.78401e-20)
(-0.0317889 -0.088141 -5.0761e-20)
(-0.0179172 -0.0685492 4.58409e-20)
(-0.00530805 -0.0537628 6.08676e-21)
(-0.120751 -0.434068 -6.1855e-20)
(-0.105028 -0.352304 -3.12459e-20)
(-0.0912182 -0.284298 5.422e-20)
(-0.0796728 -0.228273 -2.02574e-20)
(-0.0696587 -0.182319 3.01501e-20)
(-0.0603915 -0.144758 -9.13506e-20)
(-0.0515143 -0.11417 6.96794e-20)
(-0.0428634 -0.0894667 -2.62416e-20)
(-0.0343838 -0.0698932 4.75934e-20)
(-0.0268469 -0.0547521 -5.73026e-20)
(-0.0861718 -0.439269 2.84925e-20)
(-0.0773798 -0.353638 -1.2215e-20)
(-0.0702755 -0.283607 -1.89353e-20)
(-0.0648057 -0.226838 -7.57206e-21)
(-0.0601997 -0.180944 4.15497e-21)
(-0.055775 -0.143858 1.26738e-20)
(-0.0512992 -0.113878 -3.12989e-20)
(-0.0467403 -0.0896884 1.89883e-20)
(-0.0421707 -0.0703239 5.855e-20)
(-0.0382516 -0.0549853 -5.65115e-20)
(-0.0513483 -0.441208 2.11698e-20)
(-0.0495265 -0.351828 6.45268e-23)
(-0.0485926 -0.280245 2.9218e-20)
(-0.0483177 -0.223309 -2.52498e-20)
(-0.0480136 -0.178025 7.77469e-21)
(-0.0471683 -0.141877 -8.69189e-21)
(-0.0457201 -0.112858 -5.00007e-21)
(-0.0437914 -0.089431 -2.90235e-20)
(-0.0415868 -0.0704616 3.16448e-20)
(-0.039774 -0.0550689 3.30263e-20)
(-0.0165906 -0.440118 -3.73332e-21)
(-0.0218638 -0.347406 -3.16904e-21)
(-0.0265717 -0.274905 -2.87266e-21)
(-0.0305768 -0.218455 -1.09993e-20)
(-0.0334176 -0.174363 1.18753e-20)
(-0.0348345 -0.139632 4.35842e-21)
(-0.0349893 -0.111934 -9.31672e-21)
(-0.034187 -0.0895232 5.79351e-22)
(-0.0327732 -0.071118 -5.6556e-21)
(-0.0315332 -0.0557745 -4.02826e-22)
(-0.0117882 -0.0164019 -1.15342e-21)
(0.00071704 0.00138717 -1.15141e-21)
(0.0607296 0.0159904 2.59545e-21)
(0.122194 0.0158966 -1.74625e-21)
(0.201491 -0.00126849 -5.77559e-22)
(0.284427 -0.033998 -1.10601e-21)
(0.369355 -0.0743846 3.80076e-22)
(0.447942 -0.109919 -4.37345e-22)
(0.516574 -0.129852 1.82703e-22)
(0.576253 -0.128705 -1.96098e-24)
(0.633518 -0.107114 -1.35451e-22)
(0.695139 -0.0713505 4.69421e-24)
(0.762216 -0.0319641 -1.18536e-23)
(0.82901 0.000248755 -8.42435e-25)
(0.887508 0.019466 -3.87628e-26)
(0.932468 0.0259314 2.73755e-24)
(0.962826 0.0244751 -1.02811e-24)
(0.981311 0.0187634 -6.03596e-25)
(0.990897 0.0140139 4.74643e-25)
(0.996767 0.0073645 1.59305e-24)
(0.0216584 -0.0194743 5.35968e-21)
(0.0365242 -0.0112519 4.02947e-21)
(0.100776 7.78808e-05 -3.82463e-21)
(0.165311 -0.00168112 2.14897e-21)
(0.246985 -0.0191966 -4.23115e-21)
(0.331186 -0.0510137 -1.66994e-22)
(0.415083 -0.0894813 -4.18544e-22)
(0.490111 -0.12241 -6.4144e-22)
(0.552973 -0.139865 5.09294e-22)
(0.605284 -0.137132 1.52232e-22)
(0.654253 -0.115068 5.50179e-23)
(0.707739 -0.0793981 1.34446e-22)
(0.768219 -0.0397958 -6.6834e-23)
(0.830781 -0.00658996 1.00687e-23)
(0.887225 0.0142176 -2.95399e-24)
(0.931547 0.02239 -3.85724e-24)
(0.961915 0.022351 7.02541e-24)
(0.980634 0.0176322 -7.47659e-24)
(0.990409 0.0134404 -1.05008e-24)
(0.9965 0.00715536 -3.73082e-24)
(0.0684034 -0.0250719 -1.84244e-20)
(0.0860899 -0.0250916 2.42662e-21)
(0.154351 -0.016511 1.79451e-20)
(0.220793 -0.0193874 -9.15868e-21)
(0.302933 -0.036793 -1.35722e-21)
(0.386325 -0.0672768 -4.2811e-21)
(0.467205 -0.103502 -7.27984e-23)
(0.537119 -0.133688 -1.55932e-21)
(0.593224 -0.148679 -5.05536e-22)
(0.637689 -0.144446 -2.94738e-22)
(0.678145 -0.122045 2.73136e-24)
(0.723224 -0.0866704 3.46074e-23)
(0.776606 -0.0471048 4.37593e-23)
(0.834283 -0.0131391 -1.32861e-23)
(0.888046 0.00909899 1.45966e-23)
(0.931252 0.0188937 -1.08824e-23)
(0.961325 0.0202357 1.76752e-24)
(0.980106 0.0164978 4.2221e-24)
(0.989987 0.0128594 3.92869e-24)
(0.996255 0.00694129 -6.06489e-24)
(0.128515 -0.0335487 -5.00087e-21)
(0.149033 -0.0399143 1.95534e-20)
(0.220261 -0.0333782 -9.18219e-21)
(0.287041 -0.0367352 -5.17184e-21)
(0.367536 -0.0535629 4.16597e-21)
(0.448011 -0.0823605 -7.85841e-22)
(0.524006 -0.116131 1.88671e-21)
(0.58745 -0.143563 -4.36457e-22)
(0.63603 -0.156203 1.46161e-21)
(0.672393 -0.150612 3.7647e-22)
(0.704354 -0.128015 -7.99419e-22)
(0.741007 -0.0931152 9.50131e-23)
(0.787028 -0.0538189 1.72929e-23)
(0.839339 -0.0193268 1.41772e-23)
(0.889898 0.00416594 -6.32429e-24)
(0.931557 0.0154784 8.36876e-24)
(0.961049 0.0181492 5.2404e-24)
(0.979726 0.0153699 8.4808e-24)
(0.989631 0.0122754 -5.90363e-24)