/*--------------------------------*- C++ -*----------------------------------*\
  =========                 |
  \\      /  F ield         | OpenFOAM: The Open Source CFD Toolbox
   \\    /   O peration     | Website:  https://openfoam.org
    \\  /    A nd           | Version:  6.0
     \\/     M anipulation  |
\*---------------------------------------------------------------------------*/
FoamFile
{
    version     2.0;
    format      ascii;
    class       surfaceScalarField;
    location    "24.504";
    object      phi;
}
// * * * * * * * * * * * * * * * * * * * * * * * * * * * * * * * * * * * * * //

dimensions      [0 3 -1 0 0 0 0];

internalField   nonuniform List<scalar> 
38030
(
-8.50527e-06
-0.00797946
0.00798797
-2.72364e-05
-0.00733525
0.00735398
-5.40724e-05
-0.0067445
0.00677133
-8.70423e-05
-0.00620416
0.00623713
-0.000124329
-0.00571078
0.00574806
-0.000164388
-0.00526081
0.00530087
-0.000205936
-0.0048508
0.00489235
-0.000247917
-0.00447738
0.00451936
-0.000289471
-0.00413737
0.00417893
-0.000329914
-0.0038278
0.00386824
-0.000368708
-0.00354587
0.00358467
-0.000405449
-0.00328901
0.00332575
-0.000439843
-0.00305482
0.00308922
-0.000471697
-0.00284114
0.002873
-0.000500905
-0.00264597
0.00267518
-0.000527438
-0.00246748
0.00249401
-0.00055133
-0.00230403
0.00232792
-0.000572677
-0.00215411
0.00217545
-0.000591622
-0.00201637
0.00203532
-0.000608354
-0.0018896
0.00190633
-0.000623094
-0.0017727
0.00178744
-0.000636096
-0.00166469
0.00167769
-0.000647634
-0.0015647
0.00157624
-0.000658003
-0.00147196
0.00148233
-0.000667504
-0.00138579
0.00139529
-0.000676446
-0.00130559
0.00131453
-0.000685134
-0.00123083
0.00123952
-0.000693866
-0.00116107
0.0011698
-0.000702933
-0.00109589
0.00110495
-0.00103487
0.00104456
-0.000712629
-7.50207e-06
-0.00797196
-2.59338e-05
-0.00731681
-5.23725e-05
-0.00671806
-8.4586e-05
-0.00617194
-0.000120711
-0.00567465
-0.00015919
-0.00522234
-0.000198729
-0.00481126
-0.000238266
-0.00443784
-0.000276942
-0.0040987
-0.00031407
-0.00379067
-0.000349117
-0.00351083
-0.00038168
-0.00325644
-0.000411471
-0.00302503
-0.000438304
-0.00281431
-0.00046208
-0.00262219
-0.000482778
-0.00244678
-0.000500444
-0.00228636
-0.000515184
-0.00213937
-0.000527157
-0.0020044
-0.000536565
-0.00188019
-0.000543648
-0.00176561
-0.000548679
-0.00165966
-0.000551955
-0.00156142
-0.00055379
-0.00147013
-0.000554515
-0.00138507
-0.000554464
-0.00130564
-0.00055397
-0.00123133
-0.00055336
-0.00116168
-0.000552957
-0.00109629
-0.00103474
-0.000553083
-7.11801e-06
-0.00796484
-2.49544e-05
-0.00729898
-5.05771e-05
-0.00669244
-8.16226e-05
-0.0061409
-0.000116157
-0.00564011
-0.000152587
-0.00518591
-0.000189599
-0.00477425
-0.000226122
-0.00440132
-0.00026129
-0.00406353
-0.000294418
-0.00375755
-0.000324971
-0.00348027
-0.00035255
-0.00322886
-0.000376871
-0.00300071
-0.000397753
-0.00279343
-0.000415103
-0.00260484
-0.000428906
-0.00243298
-0.00043922
-0.00227605
-0.00044616
-0.00213243
-0.000449896
-0.00200066
-0.000450648
-0.00187944
-0.000448672
-0.00176759
-0.000444262
-0.00166407
-0.000437736
-0.00156795
-0.000429439
-0.00147842
-0.000419725
-0.00139478
-0.000408963
-0.0013164
-0.000397519
-0.00124277
-0.000385755
-0.00117344
-0.000374031
-0.00110802
-0.00104606
-0.000362707
-6.87281e-06
-0.00795797
-2.40379e-05
-0.00728181
-4.85946e-05
-0.00666788
-7.81362e-05
-0.00611136
-0.000110684
-0.00560757
-0.000144613
-0.00515198
-0.000178592
-0.00474027
-0.000211539
-0.00436837
-0.000242584
-0.00403249
-0.000271038
-0.00372909
-0.000296369
-0.00345494
-0.000318178
-0.00320706
-0.000336184
-0.00298271
-0.00035021
-0.0027794
-0.000360166
-0.00259489
-0.000366046
-0.0024271
-0.000367912
-0.00227418
-0.000365889
-0.00213445
-0.000360161
-0.00200639
-0.000350958
-0.00188864
-0.000338556
-0.00177999
-0.000323268
-0.00167935
-0.000305439
-0.00158578
-0.000285439
-0.00149842
-0.000263658
-0.00141656
-0.000240497
-0.00133956
-0.000216363
-0.0012669
-0.000191661
-0.00119815
-0.000166792
-0.00113288
-0.00107069
-0.000142165
-6.64039e-06
-0.00795133
-2.30562e-05
-0.0072654
-4.63493e-05
-0.00664459
-7.40948e-05
-0.00608361
-0.000104289
-0.00557737
-0.000135286
-0.00512098
-0.000165742
-0.00470981
-0.000194567
-0.00433954
-0.000220888
-0.00400616
-0.000244014
-0.00370596
-0.000263413
-0.00343554
-0.000278688
-0.00319178
-0.00028956
-0.00297183
-0.000295853
-0.00277311
-0.000297481
-0.00259326
-0.000294442
-0.00243014
-0.000286801
-0.00228182
-0.000274693
-0.00214656
-0.00025831
-0.00202277
-0.000237895
-0.00190906
-0.000213742
-0.00180414
-0.000186182
-0.00170691
-0.000155587
-0.00161637
-0.000122356
-0.00153165
-8.69136e-05
-0.001452
-4.97021e-05
-0.00137678
-1.11722e-05
-0.00130543
2.82233e-05
-0.00123754
6.80292e-05
-0.00117269
-0.00111044
0.000107783
-6.38326e-06
-0.00794495
-2.19541e-05
-0.00724983
-4.37966e-05
-0.00662275
-6.94729e-05
-0.00605794
-9.69651e-05
-0.00554988
-0.000124616
-0.00509333
-0.000151075
-0.00468335
-0.000175248
-0.00431537
-0.00019626
-0.00398515
-0.000213422
-0.0036888
-0.000226202
-0.00342276
-0.000234205
-0.00318378
-0.000237151
-0.00296889
-0.000234867
-0.0027754
-0.000227268
-0.00260086
-0.000214352
-0.00244306
-0.000196189
-0.00229998
-0.000172918
-0.00216983
-0.000144737
-0.00205095
-0.000111901
-0.00194189
-7.47178e-05
-0.00184133
-3.35398e-05
-0.00174809
1.12378e-05
-0.00166115
5.91837e-05
-0.0015796
0.000109836
-0.00150266
0.00016271
-0.00142965
0.000217305
-0.00136003
0.000273111
-0.00129335
0.000329614
-0.00122919
-0.00116712
0.000386286
-6.08785e-06
-0.00793886
-2.07057e-05
-0.00723521
-4.0911e-05
-0.00660254
-6.42533e-05
-0.00603459
-8.87068e-05
-0.00552543
-0.00011261
-0.00506943
-0.00013461
-0.00466135
-0.000153615
-0.00429637
-0.000168752
-0.00397002
-0.000179333
-0.00367822
-0.00018483
-0.00341727
-0.000184848
-0.00318376
-0.000179109
-0.00297463
-0.000167438
-0.00278707
-0.00014975
-0.00261854
-0.000126044
-0.00246676
-9.63884e-05
-0.00232964
-6.09243e-05
-0.00220529
-1.98548e-05
-0.00209202
2.65571e-05
-0.0019883
7.79925e-05
-0.00189276
0.00013408
-0.00180418
0.000194402
-0.00172147
0.000258494
-0.00164369
0.000325857
-0.00157002
0.000395958
-0.00149975
0.000468242
-0.00143231
0.000542139
-0.00136725
0.000617062
-0.00130412
-0.00124246
0.000692408
-5.75023e-06
-0.00793311
-1.93e-05
-0.00722166
-3.76788e-05
-0.00658416
-5.84249e-05
-0.00601385
-7.95092e-05
-0.00550434
-9.92715e-05
-0.00504966
-0.000116363
-0.00464426
-0.000129697
-0.00428303
-0.000138406
-0.00396131
-0.000141809
-0.00367482
-0.00013938
-0.0034197
-0.000130726
-0.00319241
-0.000115572
-0.00298978
-9.37402e-05
-0.0028089
-6.51447e-05
-0.00264714
-2.97791e-05
-0.00250213
1.22882e-05
-0.00237171
6.09191e-05
-0.00225392
0.00011591
-0.00214701
0.000176993
-0.00204939
0.000243841
-0.00195961
0.000316067
-0.00187641
0.000393232
-0.00179864
0.000474842
-0.0017253
0.000560358
-0.00165553
0.000649197
-0.00158859
0.000740747
-0.00152386
0.000834366
-0.00146086
0.000929391
-0.00139914
-0.0013382
0.00102513
-5.36925e-06
-0.00792774
-1.7732e-05
-0.00720929
-3.40919e-05
-0.0065678
-5.19793e-05
-0.00599596
-6.93663e-05
-0.00548696
-8.45992e-05
-0.00503443
-9.63389e-05
-0.00463252
-0.000103509
-0.00427586
-0.000105252
-0.00395956
-0.000100894
-0.00367918
-8.99174e-05
-0.00343067
-7.19327e-05
-0.0032104
-4.66644e-05
-0.00301505
-1.39349e-05
-0.00284163
2.63464e-05
-0.00268742
7.41908e-05
-0.00254997
0.000129536
-0.00242705
0.000192249
-0.00231664
0.000262129
-0.00221689
0.000338911
-0.00212617
0.000422262
-0.00204296
0.000511786
-0.00196593
0.000607023
-0.00189387
0.000707453
-0.00182573
0.000812498
-0.00176058
0.000921525
-0.00169762
0.00103386
-0.00163619
0.00114878
-0.00157579
0.00126555
-0.00151591
-0.00145602
0.00138336
-4.94487e-06
-0.00792279
-1.59984e-05
-0.00719824
-3.01439e-05
-0.00655366
-4.49079e-05
-0.0059812
-5.82691e-05
-0.00547359
-6.85862e-05
-0.00502411
-7.45351e-05
-0.00462657
-7.50548e-05
-0.00427534
-6.93029e-05
-0.00396531
-5.66181e-05
-0.00369186
-3.64906e-05
-0.0034508
-8.53823e-06
-0.00323835
2.75128e-05
-0.0030511
7.18416e-05
-0.00288596
0.000124543
-0.00274012
0.000185637
-0.00261107
0.000255069
-0.00249648
0.000332716
-0.00239428
0.000418387
-0.00230257
0.000511821
-0.0022196
0.000612688
-0.00214383
0.000720587
-0.00207383
0.000835045
-0.00200833
0.000955517
-0.00194621
0.00108139
-0.00188645
0.00121198
-0.00182821
0.00134655
-0.00177076
0.0014843
-0.00171354
0.00162439
-0.00165599
-0.00159754
0.00176591
-4.4765e-06
-0.00791832
-1.40961e-05
-0.00718862
-2.58275e-05
-0.00654192
-3.71997e-05
-0.00596982
-4.62038e-05
-0.00546459
-5.12175e-05
-0.0050191
-5.09376e-05
-0.00462685
-4.43247e-05
-0.00428196
-3.05561e-05
-0.00397908
-8.9874e-06
-0.00371343
2.08778e-05
-0.00348066
5.94133e-05
-0.00327689
0.000106889
-0.00309857
0.000163483
-0.00294255
0.000229298
-0.00280594
0.000304361
-0.00268613
0.000388631
-0.00258075
0.000481998
-0.00248765
0.000584285
-0.00240485
0.000695244
-0.00233056
0.000814555
-0.00226314
0.000941817
-0.00220109
0.00107655
-0.00214307
0.0012182
-0.00208785
0.00136611
-0.00203436
0.00151956
-0.00198166
0.00167774
-0.00192894
0.00183978
-0.00187557
0.00200471
-0.00182092
-0.00176434
0.00217151
-3.9631e-06
-0.00791435
-1.20206e-05
-0.00718056
-2.11335e-05
-0.00653281
-2.88399e-05
-0.00596212
-3.31509e-05
-0.00546028
-3.24694e-05
-0.00501978
-2.55205e-05
-0.0046338
-1.12925e-05
-0.00429618
1.10116e-05
-0.00400139
4.20137e-05
-0.00374443
8.21925e-05
-0.00352084
0.000131909
-0.0033266
0.000191426
-0.00315809
0.000260922
-0.00301205
0.000340502
-0.00288552
0.000430205
-0.00277583
0.000530004
-0.00268055
0.000639807
-0.00259745
0.000759459
-0.0025245
0.000888729
-0.00245983
0.00102731
-0.00240172
0.00117483
-0.0023486
0.00133079
-0.00229903
0.00149464
-0.0022517
0.0016657
-0.00220543
0.00184321
-0.00215916
0.00202629
-0.00211202
0.00221397
-0.00206325
0.00240519
-0.00201215
-0.00195795
0.0025988
-3.40327e-06
-0.00791095
-9.76621e-06
-0.0071742
-1.605e-05
-0.00652653
-1.98097e-05
-0.00595836
-1.9084e-05
-0.00546101
-1.2309e-05
-0.00502656
1.75473e-06
-0.00464787
2.4084e-05
-0.00431851
5.54432e-05
-0.00403275
9.64257e-05
-0.00378541
0.000147487
-0.0035719
0.00020897
-0.00338809
0.000281126
-0.00323025
0.000364131
-0.00309505
0.000458092
-0.00297948
0.000563058
-0.0028808
0.000679019
-0.00279651
0.000805905
-0.00272434
0.000943585
-0.00266218
0.00109186
-0.00260811
0.00125045
-0.00256031
0.00141899
-0.00251715
0.00159702
-0.00247707
0.00178398
-0.00243866
0.00197918
-0.00240062
0.00218181
-0.0023618
0.00239096
-0.00232117
0.00260556
-0.00227786
0.00282445
-0.00223104
-0.00217981
0.00304631
-2.7949e-06
-0.00790816
-7.32579e-06
-0.00716967
-1.05624e-05
-0.00652329
-1.00857e-05
-0.00595883
-3.97054e-06
-0.00546712
9.30546e-06
-0.00503983
3.09383e-05
-0.0046695
6.18621e-05
-0.00434944
0.000102801
-0.00407369
0.000154314
-0.00383693
0.000216824
-0.00363441
0.000290651
-0.00346191
0.000376031
-0.00331563
0.00047313
-0.00319215
0.000582055
-0.00308841
0.000702864
-0.00300161
0.000835563
-0.00292921
0.000980108
-0.00286889
0.0011364
-0.00281847
0.00130427
-0.00277598
0.00148348
-0.00273952
0.0016737
-0.00270737
0.0018745
-0.00267787
0.00208534
-0.00264949
0.00230552
-0.00262081
0.00253422
-0.00259051
0.00277048
-0.00255742
0.00301316
-0.00252054
0.00326096
-0.00247884
-0.00243128
0.00351243
-2.13559e-06
-0.00790602
-4.69088e-06
-0.00716711
-4.65392e-06
-0.00652333
3.58724e-07
-0.00596385
1.22272e-05
-0.00547899
3.24231e-05
-0.00506003
6.20907e-05
-0.00469917
0.000102113
-0.00438946
0.000153166
-0.00412474
0.000215764
-0.00389952
0.000290294
-0.00370894
0.000377043
-0.00354866
0.000476223
-0.00341481
0.000587986
-0.00330391
0.000712433
-0.00321285
0.000849627
-0.0031388
0.000999589
-0.00307917
0.0011623
-0.0030316
0.0013377
-0.00299387
0.00152565
-0.00296394
0.00172598
-0.00293985
0.0019384
-0.00291979
0.00216252
-0.00290199
0.00239784
-0.00288481
0.00264369
-0.00286666
0.00289925
-0.00284607
0.0031635
-0.00282168
0.00343526
-0.00279229
0.0037131
-0.00275668
-0.00271359
0.00399542
-1.42248e-06
-0.0079046
-1.8522e-06
-0.00716669
1.69371e-06
-0.00652687
1.1553e-05
-0.00597371
2.95505e-05
-0.00549699
5.70983e-05
-0.00508758
9.52795e-05
-0.00473735
0.000144917
-0.0044391
0.000206632
-0.00418645
0.000280883
-0.00397378
0.000368012
-0.00379607
0.000468266
-0.00364892
0.000581824
-0.00352837
0.000708813
-0.0034309
0.000849323
-0.00335336
0.00100341
-0.00329289
0.00117112
-0.00324688
0.00135244
-0.00321292
0.00154736
-0.00318878
0.00175579
-0.00317237
0.0019776
-0.00316167
0.00221259
-0.00315477
0.00246042
-0.00314982
0.00272065
-0.00314504
0.00299266
-0.00313867
0.00327565
-0.00312906
0.0035686
-0.00311463
0.00387026
-0.00309395
0.00417911
-0.00306554
-0.00302785
0.00449337
-6.52745e-07
-0.00790395
1.19981e-06
-0.00716854
8.49951e-06
-0.00653417
2.35271e-05
-0.00598873
4.8042e-05
-0.0055215
8.33871e-05
-0.00512292
0.000130575
-0.00478454
0.000190361
-0.00449888
0.000263299
-0.00425939
0.000349788
-0.00406026
0.00045011
-0.0038964
0.000564464
-0.00376327
0.000692985
-0.00365689
0.000835766
-0.00357368
0.000992874
-0.00351047
0.00116436
-0.00346437
0.00135025
-0.00343277
0.00155058
-0.00341325
0.00176535
-0.00340355
0.00199453
-0.00340155
0.00223808
-0.00340521
0.00249584
-0.00341253
0.00276758
-0.00342157
0.00305295
-0.0034304
0.00335139
-0.00343711
0.00366217
-0.00343984
0.00398429
-0.00343675
0.00431645
-0.00342612
0.00465708
-0.00340616
-0.00337498
0.00500421
1.7648e-07
-0.00790412
4.47447e-06
-0.00717284
1.57816e-05
-0.00654548
3.631e-05
-0.00600926
6.77427e-05
-0.00555293
0.000111344
-0.00516652
0.000168047
-0.00484124
0.000238529
-0.00456937
0.000323269
-0.00434413
0.000422596
-0.00415959
0.000536726
-0.00401053
0.000665794
-0.00389234
0.000809881
-0.00380097
0.000969033
-0.00373284
0.00114328
-0.00368472
0.00133264
-0.00365374
0.00153715
-0.00363728
0.00175683
-0.00363293
0.00199173
-0.00363845
0.00224187
-0.00365169
0.00250725
-0.00367059
0.00278783
-0.00369311
0.00308349
-0.00371723
0.00339399
-0.00374089
0.00371889
-0.00376201
0.00405754
-0.00377849
0.00440901
-0.00378822
0.00477203
-0.00378914
0.00514495
-0.00377907
-0.0037557
0.00552566
1.06792e-06
-0.00790519
7.98033e-06
-0.00717975
2.35565e-05
-0.00656106
4.99271e-05
-0.00603563
8.86881e-05
-0.00559169
0.000141015
-0.00521885
0.000207752
-0.00490798
0.000289493
-0.00465111
0.000386632
-0.00444127
0.000499418
-0.00427238
0.00062799
-0.0041391
0.00077241
-0.00403676
0.00093269
-0.00396125
0.00110882
-0.00390896
0.00130076
-0.00387666
0.00150851
-0.00386149
0.00173206
-0.00386083
0.00197143
-0.00387231
0.00222668
-0.0038937
0.00249788
-0.00392288
0.0027851
-0.00395781
0.00308839
-0.00399641
0.00340777
-0.00403661
0.00374314
-0.00407626
0.00409422
-0.0041131
0.00446052
-0.00414479
0.00484122
-0.00416892
0.00523511
-0.00418303
0.00564052
-0.00418448
-0.00417042
0.00605525
2.02348e-06
-0.00790721
1.1724e-05
-0.00718945
3.18369e-05
-0.00658117
6.4398e-05
-0.00606819
0.000110905
-0.0056382
0.000172434
-0.00528038
0.000249736
-0.00498528
0.000343308
-0.00474468
0.000453456
-0.00455142
0.000580338
-0.00439926
0.000724009
-0.00428277
0.000884445
-0.00419719
0.00106158
-0.00413839
0.00125531
-0.0041027
0.00146556
-0.00408691
0.00169223
-0.00408816
0.00193527
-0.00410387
0.00219468
-0.00413172
0.00247049
-0.00416952
0.00276281
-0.0042152
0.00307177
-0.00426676
0.00339752
-0.00432216
0.00374021
-0.00437931
0.00409993
-0.00443597
0.00447661
-0.00448978
0.00486996
-0.00453814
0.00527936
-0.00457832
0.00570376
-0.00460742
0.00614151
-0.00462224
-0.00461924
0.00659033
3.04451e-06
-0.00791026
1.57099e-05
-0.00720211
4.06308e-05
-0.00660609
7.97341e-05
-0.0061073
0.000134407
-0.00569288
0.000205619
-0.00535159
0.000294017
-0.00507368
0.000399998
-0.00485066
0.00052377
-0.00467519
0.0006654
-0.00454089
0.000824843
-0.00444221
0.00100199
-0.00437434
0.00119666
-0.00433306
0.00140869
-0.00431472
0.00163788
-0.00431609
0.00188406
-0.00433433
0.0021471
-0.00436691
0.00242693
-0.00441155
0.00272356
-0.00446614
0.00303706
-0.00452871
0.00336761
-0.00459731
0.00371545
-0.00467
0.00408086
-0.00474472
0.00446415
-0.00481925
0.00486549
-0.00489112
0.00528489
-0.00495755
0.00572203
-0.00501546
0.00617607
-0.00506146
0.00664554
-0.0050917
-0.00510183
0.00712813
4.13129e-06
-0.00791439
1.99397e-05
-0.00721792
4.9941e-05
-0.00663609
9.5937e-05
-0.00615329
0.000159193
-0.00575613
0.000240562
-0.00543296
0.000340581
-0.00517369
0.000459543
-0.00496962
0.000597555
-0.0048132
0.000754583
-0.00469792
0.000930485
-0.00461811
0.00112504
-0.0045689
0.00133799
-0.00454601
0.00156903
-0.00454576
0.00181787
-0.00456493
0.00208422
-0.00460069
0.00236785
-0.00465054
0.00266859
-0.00471229
0.00298635
-0.0047839
0.00332116
-0.00486352
0.00367318
-0.00494933
0.0040427
-0.00503952
0.00443013
-0.00513215
0.00483596
-0.00522509
0.00526069
-0.00531585
0.0057047
-0.00540156
0.00616807
-0.00547882
0.00665035
-0.00554374
0.00715034
-0.0055917
-0.00561732
0.00766583
5.28332e-06
-0.00791967
2.44129e-05
-0.00723705
5.97645e-05
-0.00667144
0.000112997
-0.00620653
0.000185241
-0.00582837
0.000277226
-0.00552494
0.000389374
-0.00528584
0.000521872
-0.00510212
0.000674722
-0.00496605
0.000847789
-0.00487098
0.00104083
-0.00481115
0.00125352
-0.00478159
0.00148548
-0.00477797
0.0017363
-0.00479659
0.00200556
-0.00483419
0.00229284
-0.00488797
0.00259776
-0.00495547
0.00292002
-0.00503454
0.00325939
-0.00512327
0.00361579
-0.00521991
0.00398928
-0.00532282
0.00438014
-0.00543038
0.00478885
-0.00554086
0.00521608
-0.00565231
0.00566263
-0.00576241
0.00612934
-0.00586826
0.00661683
-0.00596631
0.00712526
-0.00605217
0.00765391
-0.00612035
-0.0061642
0.00820079
6.49917e-06
-0.00792617
2.91273e-05
-0.00725968
7.00936e-05
-0.00671241
0.000130893
-0.00626733
0.00021251
-0.00590999
0.000315544
-0.00562798
0.000440298
-0.0054106
0.000586851
-0.00524867
0.000755103
-0.00513431
0.000944816
-0.0050607
0.00115565
-0.00502198
0.00138717
-0.00501311
0.00163889
-0.00502969
0.00191027
-0.00506797
0.00220077
-0.00512469
0.00250983
-0.00519702
0.00283689
-0.00528253
0.00318146
-0.00537912
0.00354315
-0.00548496
0.00392166
-0.00559843
0.00431691
-0.00571807
0.00472903
-0.0058425
0.00515845
-0.00597029
0.00560595
-0.00609981
0.00607259
-0.00622905
0.00655969
-0.00635537
0.0070686
-0.00647522
0.00760029
-0.00658386
0.00815487
-0.00667493
-0.00674015
0.00873082
7.77911e-06
-0.00793395
3.40836e-05
-0.00728598
8.092e-05
-0.00675925
0.000149596
-0.006336
0.000240938
-0.00600133
0.000355411
-0.00574245
0.000493201
-0.00554839
0.000654276
-0.00540975
0.000838437
-0.00531847
0.00104535
-0.00526761
0.00127457
-0.0052512
0.00152557
-0.00526411
0.00179776
-0.00530188
0.00209049
-0.0053607
0.00240307
-0.00543727
0.00273481
-0.00552875
0.00308497
-0.00563269
0.00345287
-0.00574702
0.00383787
-0.00586995
0.00423942
-0.00599998
0.00465715
-0.0061358
0.00509093
-0.00627628
0.00554099
-0.00642034
0.00600799
-0.00656681
0.00649313
-0.00671419
0.00699815
-0.00686039
0.00752519
-0.00700226
0.00807641
-0.00713508
0.00865317
-0.0072517
-0.00734186
0.00925488
9.12974e-06
-0.00794308
3.92924e-05
-0.00731615
9.224e-05
-0.00681219
0.000169069
-0.00641283
0.000270443
-0.00610271
0.000396689
-0.0058687
0.000547877
-0.00569957
0.000723869
-0.00558574
0.000924364
-0.00551896
0.00114893
-0.00549218
0.00139705
-0.00549932
0.00166809
-0.00553515
0.00196138
-0.00559517
0.00227616
-0.00567549
0.00261164
-0.00577276
0.00296698
-0.00588409
0.00334131
-0.00600702
0.00373372
-0.00613943
0.00414334
-0.00627957
0.00456931
-0.00642595
0.0050109
-0.00657739
0.00546757
-0.00673295
0.00593909
-0.00689187
0.00642576
-0.00705348
0.00692857
-0.007217
0.00744941
-0.00738123
0.00799112
-0.00754397
0.00855731
-0.00770127
0.00915137
-0.00784576
-0.0079647
0.00977421
1.05756e-05
-0.00795366
4.47884e-05
-0.00735036
0.000104063
-0.00687147
0.000189272
-0.00649804
0.00030092
-0.00621435
0.000439201
-0.00600698
0.000604068
-0.00586444
0.000795274
-0.00577695
0.00101242
-0.00573611
0.001255
-0.00573476
0.00152239
-0.00576671
0.00181389
-0.00582666
0.00212876
-0.00591003
0.00246616
-0.00601289
0.00282522
-0.00613181
0.003205
-0.00626387
0.00360452
-0.00640653
0.00402272
-0.00655764
0.00445852
-0.00671536
0.00491078
-0.00687821
0.00537838
-0.00704499
0.00586026
-0.00721483
0.00635556
-0.00738717
0.00686384
-0.00756175
0.00738536
-0.00773852
0.00792152
-0.00791739
0.00847533
-0.00809777
0.00905169
-0.00827763
0.00965683
-0.0084509
-0.00860225
0.0102944
1.21854e-05
-0.00796584
5.0654e-05
-0.00738883
0.000116421
-0.00693724
0.000210163
-0.00659178
0.000332245
-0.00633644
0.000482733
-0.00615747
0.00066146
-0.00604317
0.000868069
-0.00598355
0.00110206
-0.00597011
0.00136284
-0.00599553
0.00164971
-0.00605357
0.0019619
-0.00613885
0.00229861
-0.00624674
0.00265896
-0.00637324
0.00304204
-0.00651489
0.00344686
-0.0066687
0.0038724
-0.00683207
0.00431755
-0.00700279
0.00478111
-0.00717893
0.0052618
-0.00735889
0.0057582
-0.0075414
0.00626883
-0.00772546
0.00679214
-0.00791049
0.0073267
-0.00809631
0.00787146
-0.00828328
0.0084263
-0.00847223
0.00899293
-0.0086644
0.00957617
-0.00886087
0.0101852
-0.00905989
-0.00924876
0.0108317
1.41825e-05
-0.00798002
5.70888e-05
-0.00743173
0.000129382
-0.00700953
0.00023169
-0.00669409
0.000364262
-0.00646901
0.00052703
-0.00632024
0.000719691
-0.00623583
0.000941767
-0.00620563
0.00119265
-0.00622099
0.00147165
-0.00627453
0.001778
-0.00635992
0.00211086
-0.00647172
0.00246939
-0.00660527
0.0028527
-0.00675654
0.00325984
-0.00692204
0.00368988
-0.00709873
0.00414181
-0.00728401
0.00461459
-0.00747557
0.00510711
-0.00767144
0.00561813
-0.00786992
0.00614629
-0.00806955
0.00669
-0.00826917
0.0072474
-0.00846789
0.00781632
-0.00866522
0.00839426
-0.00886123
0.00897879
-0.00905675
0.00956819
-0.00925381
0.0101635
-0.00945623
0.0107741
-0.00967045
-0.00990923
0.0114346
1.73782e-05
-0.0079974
6.44792e-05
-0.00747884
0.000143007
-0.00708806
0.000253746
-0.00680483
0.00039676
-0.00661202
0.000571787
-0.00649526
0.000778353
-0.00644239
0.00101584
-0.00644311
0.00128351
-0.00648866
0.00158056
-0.00657159
0.00190615
-0.0066855
0.00225939
-0.00682496
0.00263938
-0.00698526
0.0030452
-0.00716237
0.00347596
-0.0073528
0.00393076
-0.00755353
0.0044087
-0.00776195
0.00490892
-0.00797579
0.00543056
-0.00819308
0.00597275
-0.00841211
0.00653463
-0.00863142
0.00711523
-0.00884977
0.00771348
-0.00906614
0.00832802
-0.00927976
0.008957
-0.00949021
0.00959793
-0.00969769
0.0102474
-0.00990326
0.0109
-0.0101088
0.011551
-0.0103215
-0.0105639
0.0122057
0.00899235
4.60509e-05
-0.0090384
0.00894724
4.51047e-05
0.00890243
4.48119e-05
0.00885777
4.46586e-05
0.00881329
4.44854e-05
0.00876905
4.42364e-05
0.00872516
4.38897e-05
0.00868172
4.3439e-05
0.00863884
4.28846e-05
0.00859661
4.22301e-05
0.00855513
4.14804e-05
0.00851449
4.06412e-05
0.00847477
3.97186e-05
0.00843605
3.87186e-05
0.0083984
3.76473e-05
0.00836189
3.65107e-05
0.00832658
3.53146e-05
0.00829251
3.40647e-05
0.00825974
3.27662e-05
0.00822832
3.14241e-05
0.00819828
3.00432e-05
0.00816965
2.86283e-05
0.00814247
2.71834e-05
0.00811675
2.57128e-05
0.00809253
2.42186e-05
0.00806984
2.26975e-05
0.00804871
2.11303e-05
0.00802925
1.94575e-05
0.00801178
1.74717e-05
1.43755e-05
0.0102833
0.000164532
-0.0104018
0.0101637
0.000164751
0.0100434
0.000165083
0.0099228
0.000165277
0.0098021
0.000165185
0.0096816
0.000164739
0.00956159
0.000163905
0.00944235
0.000162674
0.00932419
0.000161048
0.00920738
0.000159038
0.0090922
0.000156658
0.00897892
0.000153928
0.00886777
0.000150866
0.00875899
0.000147494
0.00865281
0.000143831
0.00854942
0.0001399
0.00844902
0.00013572
0.00835177
0.000131312
0.00825784
0.000126695
0.00816738
0.000121887
0.00808051
0.000116905
0.00799738
0.000111766
0.00791808
0.000106484
0.00784272
0.000101071
0.0077714
9.5536e-05
0.00770422
8.98736e-05
0.0076413
8.40568e-05
0.00758275
7.80088e-05
0.00752868
7.15339e-05
6.42235e-05
0.0115394
0.000343442
-0.0117183
0.0113577
0.000346436
0.011174
0.000348756
0.010989
0.000350335
0.010803
0.000351104
0.0106168
0.000351018
0.0104306
0.000350055
0.0102451
0.000348212
0.0100606
0.0003455
0.00987771
0.000341942
0.0096968
0.000337569
0.00951831
0.000332414
0.00934266
0.000326518
0.00917023
0.00031992
0.0090014
0.000312663
0.00883651
0.00030479
0.00867589
0.000296343
0.00851984
0.000287363
0.00836864
0.000277891
0.00822256
0.000267964
0.00808185
0.000257619
0.00794673
0.000246889
0.0078174
0.000235806
0.00769408
0.000224398
0.00757693
0.000212687
0.00746612
0.000200683
0.0073618
0.000188379
0.00726407
0.000175737
0.00717293
0.000162675
0.000149092
0.0127508
0.000572049
-0.0129794
0.0125178
0.000579412
0.0122814
0.000585248
0.0120421
0.000589566
0.0118009
0.000592347
0.0115583
0.000593577
0.0113151
0.000593254
0.0110719
0.000591388
0.0108294
0.000588007
0.0105882
0.000583148
0.0103489
0.000576859
0.0101122
0.000569196
0.00987846
0.000560219
0.00964839
0.000549996
0.00942246
0.000538592
0.00920117
0.000526078
0.00898499
0.000512523
0.00877436
0.000497994
0.00856969
0.000482558
0.00837138
0.000466278
0.00817978
0.000449215
0.00799524
0.000431427
0.00781808
0.000412967
0.00764859
0.000393888
0.00748705
0.000374235
0.00733368
0.000354049
0.0071887
0.000333364
0.00705223
0.000312202
0.00692432
0.000290587
0.000268582
0.0139098
0.000840606
-0.0141783
0.0136351
0.000854091
0.0133552
0.000865135
0.013071
0.00087376
0.0127834
0.000879972
0.0124932
0.000883779
0.0122012
0.000885193
0.0119084
0.000884243
0.0116154
0.000880969
0.0113231
0.000875426
0.0110323
0.000867681
0.0107437
0.000857812
0.010458
0.000845904
0.010176
0.00083205
0.0098982
0.000816344
0.0096254
0.000798887
0.00935814
0.000779777
0.00909702
0.000759112
0.00884259
0.000736989
0.00859537
0.000713501
0.00835585
0.000688736
0.00812449
0.000662781
0.00790174
0.00063572
0.007688
0.000607632
0.00748363
0.000578598
0.00728899
0.000548698
0.00710433
0.000518017
0.00692989
0.000486646
0.00676578
0.000454697
0.000422338
0.01501
0.00114039
-0.0153097
0.0147022
0.00116188
0.0143873
0.00117995
0.0140665
0.00119461
0.0137406
0.00120588
0.0134106
0.00121375
0.0130776
0.00121826
0.0127424
0.00121944
0.012406
0.00121735
0.0120694
0.00121205
0.0117334
0.00120363
0.011399
0.0011922
0.0110671
0.00117785
0.0107384
0.0011607
0.0104139
0.00114089
0.0100942
0.00111854
0.00978022
0.00109378
0.00947258
0.00106675
0.00917201
0.00103757
0.00887915
0.00100636
0.00859464
0.000973245
0.00831908
0.000938348
0.00805302
0.000901779
0.00779699
0.000863655
0.0075515
0.000824093
0.00731698
0.000783221
0.00709382
0.000741178
0.00688233
0.000698127
0.00668277
0.000654264
0.000609842
0.0160469
0.00146364
-0.0163701
0.0157137
0.00149509
0.0153715
0.00152209
0.0150215
0.00154463
0.0146647
0.0015627
0.0143022
0.0015763
0.013935
0.00158545
0.0135642
0.0015902
0.0131909
0.00159061
0.0128162
0.00158675
0.0124411
0.00157871
0.0120667
0.00156663
0.0116939
0.00155062
0.0113238
0.00153084
0.0109573
0.00150743
0.0105952
0.00148055
0.0102387
0.00145037
0.00988835
0.00141705
0.00954517
0.00138075
0.00920989
0.00134163
0.0088833
0.00129984
0.00856612
0.00125553
0.00825906
0.00120884
0.00796278
0.00115994
0.0076779
0.00110897
0.007405
0.00105612
0.0071446
0.00100158
0.00689714
0.000945587
0.00666298
0.000888423
0.000830428
0.0170175
0.00180345
-0.0173573
0.0166657
0.00184684
0.0163031
0.00188473
0.0159307
0.00191705
0.0155496
0.00194377
0.015161
0.00196487
0.0147661
0.00198037
0.014366
0.00199029
0.0139619
0.0019947
0.013555
0.00199366
0.0131464
0.0019873
0.0127373
0.00197573
0.0123289
0.00195911
0.0119221
0.00193759
0.0115182
0.00191136
0.0111181
0.0018806
0.010723
0.00184551
0.0103338
0.00180628
0.00995142
0.0017631
0.00957689
0.00171616
0.00921109
0.00166564
0.00885489
0.00161173
0.00850913
0.0015546
0.00817462
0.00149444
0.00785214
0.00143145
0.00754242
0.00136585
0.00724611
0.00129789
0.0069638
0.00122789
0.006696
0.00115622
0.00108332
0.01792
0.00215375
-0.0182703
0.0175558
0.00221104
0.0171787
0.00226176
0.01679
0.00230578
0.0163907
0.00234305
0.0159821
0.0023735
0.0155653
0.00239713
0.0151417
0.00241395
0.0147124
0.002424
0.0142787
0.00242735
0.0138419
0.00242411
0.0134032
0.00241442
0.0129639
0.00239842
0.0125251
0.00237631
0.0120882
0.00234828
0.0116543
0.00231453
0.0112245
0.00227529
0.0108
0.00223079
0.0103819
0.00218123
0.0099712
0.00212684
0.00956901
0.00206783
0.00917635
0.0020044
0.00879419
0.00193676
0.0084235
0.00186513
0.00806523
0.00178973
0.00772025
0.00171083
0.0073894
0.00162874
0.00707343
0.00154386
0.006773
0.00145665
0.00136766
0.0187538
0.00250925
-0.0191093
0.0183825
0.00258233
0.0179965
0.00264777
0.0175969
0.0027054
0.0171848
0.00275511
0.0167615
0.00279679
0.0163283
0.00283039
0.0158863
0.0028559
0.015437
0.00287333
0.0149816
0.00288274
0.0145215
0.00288423
0.014058
0.00287792
0.0135924
0.00286398
0.0131262
0.00284259
0.0126605
0.00281397
0.0121966
0.00277835
0.011736
0.00273595
0.0112797
0.00268704
0.0108291
0.00263185
0.0103853
0.00257063
0.00994954
0.0025036
0.00952294
0.002431
0.00910666
0.00235303
0.00870184
0.00226995
0.00830956
0.002182
0.00793091
0.00208948
0.0075669
0.00199276
0.00721847
0.00189229
0.00688646
0.00178865
0.00168253
0.0195193
0.00286534
-0.0198754
0.0191456
0.00295601
0.0187554
0.00303801
0.0183497
0.0031111
0.0179297
0.0031751
0.0174966
0.00322987
0.0170517
0.00327529
0.0165963
0.00331132
0.0161317
0.00333792
0.0156593
0.00335514
0.0151805
0.00336305
0.0146967
0.00336176
0.0142092
0.00335143
0.0137196
0.00333224
0.0132291
0.00330442
0.0127393
0.00326821
0.0122514
0.00322385
0.0117668
0.00317162
0.0112869
0.00311176
0.010813
0.00304455
0.0103463
0.00297023
0.00988831
0.00288902
0.00944017
0.00280117
0.00900323
0.0027069
0.00857874
0.00260648
0.00816799
0.00250023
0.00777219
0.00238856
0.0073925
0.00227198
0.00702997
0.00215118
0.002027
0.0202178
0.00321814
-0.0205706
0.0198457
0.00332806
0.0194554
0.00342832
0.0190479
0.00351863
0.0186242
0.00359873
0.0181857
0.00366839
0.0177336
0.00372746
0.017269
0.00377582
0.0167936
0.00381342
0.0163085
0.00384023
0.0158152
0.00385631
0.0153152
0.00386175
0.0148099
0.00385669
0.0143009
0.0038413
0.0137895
0.0038158
0.0132773
0.00378044
0.0127657
0.00373547
0.0122561
0.00368118
0.01175
0.00361783
0.0112489
0.00354569
0.0107541
0.003465
0.0102671
0.00337601
0.00978936
0.00327893
0.00932228