/*--------------------------------*- C++ -*----------------------------------*\
  =========                 |
  \\      /  F ield         | OpenFOAM: The Open Source CFD Toolbox
   \\    /   O peration     | Website:  https://openfoam.org
    \\  /    A nd           | Version:  6.0
     \\/     M anipulation  |
\*---------------------------------------------------------------------------*/
FoamFile
{
    version     2.0;
    format      ascii;
    class       volVectorField;
    location    "9.765";
    object      U;
}
// * * * * * * * * * * * * * * * * * * * * * * * * * * * * * * * * * * * * * //

dimensions      [0 1 -1 0 0 0 0];

internalField   nonuniform List<vector> 
2400
(
(0.0179665 -0.436718 -1.25989e-20)
(0.00555798 -0.343679 5.63785e-21)
(-0.00412713 -0.273954 -6.26814e-21)
(-0.0114426 -0.222001 -4.06995e-21)
(-0.0163473 -0.183229 -7.1259e-21)
(-0.0189248 -0.154039 9.82606e-21)
(-0.0196036 -0.131707 4.01387e-21)
(-0.0188834 -0.114214 3.77729e-21)
(-0.0172421 -0.100082 -8.79079e-21)
(-0.0156626 -0.088276 -6.71157e-22)
(0.0517395 -0.430215 1.40258e-20)
(0.0323365 -0.335713 -1.44042e-21)
(0.0185299 -0.266727 2.93717e-21)
(0.00920191 -0.216604 3.83742e-20)
(0.00382431 -0.180066 -2.92367e-20)
(0.00188088 -0.153067 -1.55532e-21)
(0.0026124 -0.132599 -3.37849e-22)
(0.00528359 -0.116449 -3.91628e-21)
(0.00926253 -0.102988 -6.95795e-21)
(0.0132469 -0.0911318 -2.7556e-21)
(0.0847329 -0.421479 2.58187e-20)
(0.0586051 -0.326833 2.64244e-20)
(0.0416294 -0.259584 -7.63652e-20)
(0.0315586 -0.212029 2.53169e-20)
(0.0271226 -0.178265 4.21911e-20)
(0.0272913 -0.153856 -2.43785e-20)
(0.0309317 -0.135551 -2.10431e-20)
(0.037057 -0.120947 1.98937e-20)
(0.0448836 -0.108226 -4.53973e-20)
(0.0526866 -0.0962524 4.82883e-20)
(0.116924 -0.410772 -9.03269e-20)
(0.0846548 -0.317559 4.52278e-20)
(0.0657004 -0.2531 -4.47687e-20)
(0.0563271 -0.208806 2.30321e-20)
(0.0543533 -0.178271 -2.68389e-20)
(0.0581574 -0.156769 4.31473e-20)
(0.0661979 -0.140869 2.34873e-20)
(0.0772305 -0.127995 -7.09855e-20)
(0.0903315 -0.116096 -6.96687e-20)
(0.103251 -0.103954 8.19514e-20)
(0.148342 -0.398345 3.74035e-21)
(0.110939 -0.308314 -1.75689e-20)
(0.091507 -0.247682 -7.81768e-21)
(0.0844823 -0.207217 -9.80855e-21)
(0.0866128 -0.1802 -6.65316e-20)
(0.0956172 -0.16175 1.09682e-20)
(0.10952 -0.148367 -7.31524e-21)
(0.126825 -0.137345 7.75614e-20)
(0.146499 -0.126355 -5.47619e-20)
(0.16567 -0.11406 -3.99299e-20)
(0.179091 -0.384434 8.70873e-20)
(0.138078 -0.299416 -8.85427e-21)
(0.120034 -0.243535 1.3642e-19)
(0.117245 -0.20726 -1.75476e-20)
(0.12525 -0.183784 8.59456e-20)
(0.141052 -0.168255 -9.77429e-21)
(0.16222 -0.15725 -8.39676e-22)
(0.187024 -0.148043 6.33119e-20)
(0.214378 -0.138018 -3.54739e-20)
(0.240727 -0.125691 6.85487e-20)
(0.209359 -0.369252 -3.29841e-20)
(0.166849 -0.291055 1.17994e-20)
(0.152441 -0.240656 -3.50669e-20)
(0.156009 -0.20864 -4.40395e-20)
(0.171777 -0.188381 -4.81213e-21)
(0.195984 -0.175248 1.45786e-19)
(0.225726 -0.166101 -5.25817e-20)
(0.259055 -0.158377 2.62953e-20)
(0.294936 -0.149265 -9.08801e-20)
(0.32915 -0.137152 -5.79188e-20)
(0.239416 -0.352968 1.58475e-19)
(0.198141 -0.28327 -1.78379e-20)
(0.189975 -0.238815 -1.89634e-19)
(0.202208 -0.210799 1.07539e-20)
(0.227689 -0.193033 4.65494e-20)
(0.261857 -0.181293 -6.98089e-20)
(0.301308 -0.172931 -9.43709e-20)
(0.343879 -0.165826 1.44127e-19)
(0.388766 -0.157211 -1.22581e-20)
(0.431342 -0.145531 -1.33939e-19)
(0.269611 -0.335691 -1.32965e-19)
(0.232892 -0.275912 7.86798e-20)
(0.233842 -0.237557 1.24961e-19)
(0.257146 -0.212969 3.43403e-20)
(0.294269 -0.196617 -1.34583e-19)
(0.339828 -0.18477 8.96829e-20)
(0.389835 -0.175348 5.61264e-20)
(0.441796 -0.166824 1.19008e-19)
(0.495282 -0.156772 -7.27353e-20)
(0.546154 -0.144636 -1.07684e-19)
(0.300334 -0.317396 4.52506e-20)
(0.271955 -0.268574 -1.87634e-20)
(0.285015 -0.236203 -6.6769e-22)
(0.321779 -0.214317 3.90085e-20)
(0.372468 -0.198237 3.33284e-20)
(0.43099 -0.184702 -2.3543e-20)
(0.492856 -0.171966 -4.78169e-20)
(0.555034 -0.158743 7.65289e-20)
(0.61666 -0.143116 -6.51899e-20)
(0.674502 -0.127453 6.01771e-20)
(0.617954 -0.00938655 3.98244e-21)
(0.591587 -0.0553309 1.15096e-20)
(0.562087 -0.0974528 -3.84842e-20)
(0.5304 -0.135708 3.38275e-20)
(0.497361 -0.170202 1.27115e-20)
(0.46369 -0.201171 1.58262e-19)
(0.429958 -0.228961 -6.05177e-20)
(0.396583 -0.25399 -8.13574e-20)
(0.363838 -0.276735 8.45424e-20)
(0.331834 -0.297719 -1.46415e-19)
(0.833573 0.0171436 1.4138e-20)
(0.781076 -0.0414552 -4.56175e-21)
(0.722941 -0.0926305 -3.82989e-20)
(0.661326 -0.136031 1.01388e-19)
(0.598278 -0.171718 -3.39114e-20)
(0.535658 -0.20014 2.55632e-19)
(0.475047 -0.222082 -1.57659e-19)
(0.417683 -0.238601 2.25376e-19)
(0.364445 -0.25096 -1.5366e-19)
(0.31583 -0.260532 -7.86405e-20)
(1.01904 0.0663157 -2.80942e-20)
(0.955942 -0.0014374 4.15346e-21)
(0.883906 -0.0609098 -1.2215e-19)
(0.805595 -0.111169 9.39725e-20)
(0.723743 -0.151821 -9.52651e-20)
(0.641011 -0.183022 -1.78438e-19)
(0.559824 -0.205459 -5.79462e-20)
(0.482237 -0.220304 -4.96476e-20)
(0.409862 -0.22914 1.5668e-19)
(0.343857 -0.233827 8.09379e-20)
(1.16871 0.115955 1.28447e-20)
(1.10498 0.0431466 -2.24941e-20)
(1.02917 -0.0220649 -3.05231e-20)
(0.943895 -0.0781876 -1.19711e-19)
(0.852087 -0.124259 6.97595e-20)
(0.756812 -0.159915 2.02276e-19)
(0.661063 -0.185445 8.71057e-20)
(0.567563 -0.201805 1.68768e-20)
(0.478611 -0.210597 4.62516e-20)
(0.396108 -0.213981 -1.62983e-21)
(1.28288 0.158207 -1.51644e-20)
(1.22473 0.0840271 -5.96202e-20)
(1.15205 0.0159827 7.98466e-21)
(1.06702 -0.0440296 1.03613e-19)
(0.972338 -0.0945306 1.0658e-19)
(0.87107 -0.134586 -7.03735e-20)
(0.766441 -0.163933 -1.31134e-19)
(0.661559 -0.183099 -6.34379e-20)
(0.559208 -0.193498 7.4396e-20)
(0.461882 -0.197509 1.01675e-19)
(1.36524 0.191259 3.1599e-21)
(1.31609 0.118562 5.06989e-20)
(1.25091 0.0502618 -1.18811e-19)
(1.1712 -0.0115378 1.4889e-19)
(1.07911 -0.0649791 8.78933e-20)
(0.977362 -0.108606 1.59734e-19)
(0.869041 -0.141549 -3.41452e-20)
(0.757303 -0.163765 -9.12929e-20)
(0.64503 -0.176301 2.16303e-19)
(0.534868 -0.181755 -1.75971e-19)
(1.42089 0.215072 7.80459e-21)
(1.38209 0.145797 -6.10333e-20)
(1.32674 0.0792285 -3.79879e-20)
(1.25556 0.0174901 -8.11536e-20)
(1.16999 -0.0373509 -1.14867e-20)
(1.07215 -0.0834244 -1.19621e-19)
(0.964698 -0.11926 -7.41133e-20)
(0.850485 -0.144119 -1.53687e-20)
(0.731975 -0.158479 -1.34288e-19)
(0.61101 -0.16518 1.90993e-19)
(1.45519 0.230636 -6.91772e-21)
(1.42666 0.165868 5.10466e-20)
(1.3819 0.102352 -2.27378e-20)
(1.32093 0.042077 5.08176e-20)
(1.24442 -0.0128484 1.24848e-19)
(1.15378 -0.0602791 2.03413e-19)
(1.05106 -0.0981828 -5.84633e-20)
(0.938578 -0.124967 -2.00849e-19)
(0.81788 -0.140129 5.46905e-20)
(0.688343 -0.146508 -3.14296e-19)
(1.47289 0.239562 1.00869e-20)
(1.4537 0.179612 -1.20142e-20)
(1.41923 0.119748 -1.23466e-19)
(1.36891 0.0617068 3.7726e-20)
(1.30276 0.00748337 -8.75523e-20)
(1.22147 -0.0406661 -3.63568e-20)
(1.12649 -0.0802336 -2.90522e-20)
(1.01964 -0.108591 8.35098e-20)
(0.901509 -0.123357 9.62586e-20)
(0.767077 -0.125575 5.89292e-20)
(1.47775 0.243431 -2.45178e-20)
(1.4665 0.18842 4.39571e-20)
(1.44136 0.13248 2.0473e-20)
(1.40134 0.0770102 6.2565e-20)
(1.34587 0.0237441 -7.21407e-21)
(1.27505 -0.0251474 -4.78539e-21)
(1.1898 -0.0669129 -1.62471e-19)
(1.09183 -0.0980374 2.07481e-19)
(0.981886 -0.113743 -1.28573e-19)
(0.849279 -0.109331 2.70058e-20)
(0.537171 0.499096 -5.55287e-20)
(0.577058 0.459809 6.41629e-20)
(0.610617 0.415072 1.1231e-21)
(0.637174 0.365847 -1.59594e-19)
(0.656219 0.313217 1.18758e-19)
(0.667517 0.258372 -8.92424e-20)
(0.671108 0.202531 -2.17891e-20)
(0.667306 0.146869 -2.08077e-20)
(0.656676 0.0924535 3.44919e-20)
(0.639991 0.0401675 2.39636e-21)
(0.751156 0.672467 8.20116e-20)
(0.811571 0.630334 2.1921e-20)
(0.862656 0.578066 -1.13832e-19)
(0.902865 0.517204 -1.39808e-19)
(0.930944 0.449538 1.10714e-19)
(0.946075 0.377089 -9.9592e-20)
(0.947926 0.302014 1.18994e-19)
(0.936685 0.2265 -3.11865e-20)
(0.913056 0.152647 -1.04649e-19)
(0.878218 0.0823369 -7.87806e-21)
(0.884651 0.752153 -6.15647e-21)
(0.956921 0.716073 2.04104e-21)
(1.01981 0.667653 7.55097e-20)
(1.07121 0.608366 7.66912e-20)
(1.10932 0.539994 1.76456e-19)
(1.13276 0.464622 6.34531e-20)
(1.14065 0.384567 -4.27975e-20)
(1.13266 0.302284 -9.44179e-20)
(1.10907 0.220261 7.66381e-20)
(1.07076 0.140882 5.28176e-21)
(0.965961 0.771356 2.19139e-20)
(1.04404 0.743584 -5.18321e-20)
(1.11397 0.702977 -2.56058e-20)
(1.17336 0.650693 -1.45607e-19)
(1.2201 0.588208 -8.91071e-20)
(1.25242 0.517326 1.71711e-19)
(1.26897 0.440136 1.16969e-19)
(1.26889 0.358948 -9.85257e-20)
(1.25187 0.276213 4.58747e-21)
(1.2182 0.194416 -4.40787e-21)
(1.01401 0.75468 -5.90205e-20)
(1.09378 0.734651 9.98379e-20)
(1.16701 0.702346 -2.60532e-20)
(1.2312 0.658542 7.90136e-20)
(1.28416 0.604326 -5.52007e-20)
(1.32396 0.541123 -1.03412e-19)
(1.34896 0.470651 5.525e-20)
(1.35793 0.394885 -5.84284e-20)
(1.35003 0.316006 -5.83967e-20)
(1.32496 0.23633 2.56292e-20)
(1.04179 0.718977 -1.0681e-20)
(1.12071 0.705194 1.82298e-20)
(1.19453 0.680285 -1.7525e-20)
(1.26079 0.644608 -1.49821e-19)
(1.31738 0.598885 8.62952e-20)
(1.36243 0.544185 1.72811e-20)
(1.39427 0.481854 -9.51554e-20)
(1.41145 0.413488 -3.51529e-20)
(1.41281 0.340911 3.2929e-20)
(1.39755 0.266128 -9.32385e-21)
(1.05787 0.674908 -1.36918e-20)
(1.13478 0.665815 4.80029e-21)
(1.20748 0.647013 2.40988e-20)
(1.27364 0.618362 8.47852e-20)
(1.3315 0.580296 2.15143e-20)
(1.37947 0.533621 5.46394e-20)
(1.41598 0.479384 1.16207e-19)
(1.4396 0.418853 -4.97752e-20)
(1.449 0.353497 4.66732e-20)
(1.44305 0.284969 -1.75659e-20)
(1.06775 0.62886 -1.30804e-20)
(1.14232 0.623537 1.92568e-20)
(1.21277 0.609715 1.87927e-20)
(1.27718 0.586784 -4.3811e-20)
(1.33439 0.555073 -2.87577e-20)
(1.3832 0.515278 -6.00341e-20)
(1.4223 0.468258 8.46553e-21)
(1.45035 0.415035 -1.41851e-20)
(1.46601 0.356783 -9.94095e-20)
(1.46801 0.294829 1.39944e-20)
(1.07557 0.585146 -2.02514e-21)
(1.14713 0.583349 -1.39319e-20)
(1.21415 0.573515 -1.55934e-20)
(1.27544 0.554915 9.74814e-21)
(1.33054 0.528083 -4.17418e-21)
(1.37864 0.493756 5.32589e-20)
(1.41865 0.452696 2.40856e-20)
(1.44935 0.405752 3.89316e-20)
(1.46949 0.353867 4.78058e-20)
(1.47777 0.298087 -2.05784e-20)
(1.08742 0.545358 -2.39001e-21)
(1.15407 0.544995 2.24868e-20)
(1.21561 0.537612 -6.16767e-20)
(1.27211 0.522064 -4.16886e-21)
(1.32367 0.499036 8.01659e-20)
(1.36964 0.469281 3.93732e-21)
(1.40901 0.433441 4.81448e-20)
(1.4407 0.392182 -1.06589e-19)
(1.46356 0.346227 -1.30155e-21)
(1.47634 0.296359 1.0934e-20)
(0.596944 0.188357 -8.09672e-21)
(0.556172 0.203684 2.85662e-21)
(0.50947 0.222023 9.48176e-22)
(0.456058 0.244538 -1.53007e-20)
(0.395012 0.272746 6.80942e-21)
(0.325826 0.30825 2.0232e-20)
(0.248926 0.352111 -1.88838e-20)
(0.16659 0.4035 -4.86582e-21)
(0.0870381 0.457132 -5.86303e-21)
(0.0323051 0.498854 -2.15616e-20)
(0.619123 0.246045 -2.22615e-20)
(0.580228 0.266195 4.69483e-20)
(0.535443 0.289803 -4.32875e-20)
(0.484305 0.317768 -7.35904e-21)
(0.425945 0.351136 1.2269e-20)
(0.359843 0.390539 -1.44589e-20)
(0.286321 0.435282 -4.10041e-20)
(0.2073 0.481605 4.76457e-20)
(0.130092 0.519448 -8.03061e-23)
(0.0747197 0.526975 2.1822e-20)
(0.648794 0.30093 -7.42236e-20)
(0.612496 0.325672 7.9001e-20)
(0.570321 0.354316 2.76041e-20)
(0.522208 0.387442 1.52516e-21)
(0.467292 0.425617 1.7782e-20)
(0.404911 0.468512 7.0335e-21)
(0.335052 0.5137 -1.16792e-20)
(0.258882 0.554579 -2.58168e-20)
(0.182072 0.576558 -1.89544e-20)
(0.121271 0.550727 2.79417e-20)
(0.68559 0.352023 -6.14193e-20)
(0.652523 0.38101 5.7647e-20)
(0.613588 0.414328 4.64479e-20)
(0.569187 0.452159 -3.17322e-20)
(0.518398 0.494591 -1.17548e-19)
(0.460287 0.540355 3.80454e-20)
(0.394289 0.585362 -2.74475e-20)
(0.320438 0.620342 7.52631e-20)
(0.242113 0.626612 6.64174e-20)
(0.171373 0.569138 -5.8935e-20)
(0.728997 0.398433 -4.39565e-20)
(0.699676 0.431216 2.00378e-20)
(0.664524 0.468714 -5.55628e-20)
(0.624429 0.510628 4.37463e-20)
(0.578335 0.556572 -2.10305e-20)
(0.524914 0.60438 -1.77437e-20)
(0.462839 0.648404 -1.7862e-20)
(0.390686 0.676976 -2.94384e-21)
(0.308984 0.667913 -2.62993e-20)
(0.224217 0.581345 -1.57127e-20)
(0.778335 0.439398 1.1007e-19)
(0.753136 0.475432 2.25454e-20)
(0.7222 0.516487 -7.54998e-20)
(0.686885 0.561696 7.07661e-20)
(0.64591 0.610226 3.26517e-20)
(0.59743 0.659068 5.29392e-20)
(0.539175 0.701163 -3.05689e-21)
(0.467986 0.722783 3.25708e-20)
(0.381123 0.699002 8.15354e-21)
(0.278821 0.586647 3.17363e-20)
(0.832729 0.474324 -1.18796e-19)
(0.811874 0.512968 1.37544e-19)
(0.785465 0.556815 -6.6451e-20)
(0.755275 0.604371 -3.75716e-20)
(0.71968 0.654394 4.95089e-22)
(0.676199 0.703106 -5.13264e-20)
(0.621465 0.742217 3.49003e-20)
(0.550385 0.756353 3.94093e-20)
(0.456701 0.718707 5.52629e-21)
(0.334066 0.584532 -2.36161e-20)
(0.891058 0.50288 -8.64253e-21)
(0.874611 0.543323 -5.32221e-20)
(0.852931 0.589021 2.26418e-20)
(0.828094 0.637814 -4.71887e-21)
(0.797969 0.688102 -1.80932e-20)
(0.759335 0.73541 8.91865e-21)
(0.707617 0.770429 -3.47976e-21)
(0.635678 0.776603 -8.12262e-21)
(0.533677 0.726194 6.53278e-21)
(0.388743 0.574703 -8.3637e-21)
(0.951913 0.525201 1.79248e-20)
(0.939804 0.566404 5.97945e-21)
(0.923061 0.612725 -3.75348e-20)
(0.903731 0.661427 2.85929e-20)
(0.878969 0.710608 -1.26548e-20)
(0.844786 0.755162 -3.30685e-21)
(0.795355 0.784979 -7.97386e-21)
(0.721485 0.782823 -1.91492e-21)
(0.609891 0.721012 -5.12977e-20)
(0.441622 0.557109 3.20008e-20)
(1.01196 0.538985 -2.25013e-20)
(1.00386 0.580108 1.64383e-20)
(0.993142 0.626382 -4.12396e-21)
(0.979935 0.674154 -3.07676e-21)
(0.960498 0.721129 -1.10086e-20)
(0.93027 0.761723 -5.42939e-21)
(0.882246 0.785358 7.33007e-21)
(0.805326 0.774682 3.63987e-20)
(0.683159 0.703073 4.80245e-20)
(0.491527 0.531907 7.19286e-21)
(0.772397 -0.321644 1.34753e-19)
(0.743344 -0.343104 -8.40454e-20)
(0.706374 -0.362644 3.1965e-20)
(0.660842 -0.375149 -7.30148e-20)
(0.601954 -0.37588 -4.77549e-20)
(0.523639 -0.357256 -7.41872e-20)
(0.418256 -0.308289 -9.03425e-20)
(0.276203 -0.214515 -4.14942e-20)
(0.0860976 -0.0576051 -5.76118e-20)
(-0.166622 0.185336 2.87735e-20)
(0.729557 -0.2885 -8.10485e-20)
(0.699393 -0.308544 -6.71643e-20)
(0.66057 -0.327239 1.1608e-19)
(0.613359 -0.340007 5.729e-20)
(0.553988 -0.342 8.51426e-20)
(0.477124 -0.325605 -1.43583e-19)
(0.376108 -0.279684 4.94237e-20)
(0.242756 -0.189274 1.01495e-19)
(0.0680561 -0.0348632 6.94685e-20)
(-0.157929 0.208831 -7.42571e-20)
(0.689389 -0.249052 3.83067e-20)
(0.657284 -0.267094 -1.56622e-20)
(0.616839 -0.28421 1.65427e-19)
(0.568066 -0.296264 -9.96425e-20)
(0.507924 -0.298455 -8.15225e-20)
(0.431936 -0.283349 4.6902e-20)
(0.33457 -0.239994 -6.2621e-22)
(0.209268 -0.153454 -2.05042e-19)
(0.04975 -0.00388864 -8.21512e-21)
(-0.148695 0.23498 6.53885e-20)
(0.654208 -0.205238 2.53985e-19)
(0.619749 -0.220507 -1.18916e-19)
(0.577431 -0.234974 4.00502e-20)
(0.526933 -0.245052 -6.84954e-20)
(0.465726 -0.246172 1.78928e-19)
(0.390148 -0.231241 -9.56477e-21)
(0.295817 -0.189775 -3.37818e-20)
(0.177886 -0.107376 5.03561e-21)
(0.0329773 0.0352319 1.69918e-20)
(-0.138093 0.263784 -8.57037e-20)
(0.624806 -0.15697 -2.19845e-19)
(0.587972 -0.168897 -2.37424e-21)
(0.543739 -0.179938 8.95842e-20)
(0.491502 -0.187041 -4.4077e-21)
(0.429129 -0.185981 -1.02586e-20)
(0.353701 -0.170167 1.18127e-19)
(0.261945 -0.129867 -2.21017e-20)
(0.150711 -0.0517375 2.74513e-20)
(0.01952 0.0820244 5.33496e-21)
(-0.125314 0.295026 1.1436e-19)
(0.6018 -0.104633 8.08869e-21)
(0.562835 -0.11275 -1.29207e-19)
(0.516878 -0.119757 1.1663e-19)
(0.46309 -0.123073 -1.02411e-20)
(0.399662 -0.118884 1.98659e-20)
(0.324337 -0.101234 -9.98896e-20)
(0.234871 -0.0614066 -1.49754e-20)
(0.129698 0.0124052 -7.44366e-21)
(0.0110615 0.135655 -5.24338e-20)
(-0.109595 0.328286 -2.49155e-20)
(0.585717 -0.0489507 1.13625e-19)
(0.545058 -0.0528437 -1.08433e-19)
(0.49775 -0.0553222 -5.14592e-21)
(0.442782 -0.0541908 -1.29039e-19)
(0.378612 -0.0460791 7.05432e-20)
(0.303555 -0.0257753 -4.4723e-20)
(0.216265 0.014195 3.75536e-20)
(0.116577 0.08367 -7.21296e-20)
(0.00910708 0.194967 -6.77372e-20)
(-0.0902518 0.362962 -4.86577e-20)
(0.576967 0.00920264 7.12553e-20)
(0.535193 0.00986976 -7.24447e-20)
(0.487049 0.0123076 3.21515e-20)
(0.431428 0.0183996 2.26885e-20)
(0.367006 0.0310595 -4.19931e-20)
(0.292565 0.0546705 7.2201e-20)
(0.207504 0.0952795 4.40556e-20)
(0.112787 0.160393 -1.34031e-19)
(0.0149189 0.258524 2.25996e-20)
(-0.0667258 0.398293 5.85737e-20)
(0.575837 0.0688453 7.56054e-20)
(0.533634 0.074311 -1.14979e-20)
(0.485271 0.0819383 -6.59755e-21)
(0.429644 0.0933529 -5.23632e-22)
(0.365599 0.111007 2.82102e-20)
(0.292277 0.138392 -8.34183e-20)
(0.209631 0.179985 6.88708e-20)
(0.119435 0.240677 5.37714e-21)
(0.0294683 0.324659 -2.52567e-21)
(-0.0386081 0.433397 4.28851e-20)
(0.582485 0.128924 -2.19543e-20)
(0.540607 0.139316 -2.31648e-21)
(0.492713 0.152285 6.10945e-21)
(0.437808 0.169227 6.80665e-21)
(0.37487 0.192129 1.71757e-20)
(0.303281 0.223552 -1.24212e-20)
(0.223337 0.266294 -7.29749e-21)
(0.137258 0.322441 -1.13843e-20)
(0.0534091 0.391527 1.05511e-20)
(-0.00564433 0.467299 -7.72284e-21)
(0.832245 -0.354955 1.32671e-19)
(0.882216 -0.376972 -4.85092e-20)
(0.92812 -0.393581 1.253e-20)
(0.970146 -0.402899 5.08417e-20)
(1.00841 -0.405105 2.57154e-20)
(1.04203 -0.400617 2.12256e-21)
(1.06964 -0.389646 1.92727e-21)
(1.08972 -0.372415 -2.24715e-21)
(1.10061 -0.349272 -1.56186e-21)
(1.1006 -0.320756 1.13302e-21)
(0.79602 -0.372531 6.11577e-20)
(0.848073 -0.394094 4.89804e-20)
(0.896836 -0.409156 4.50265e-20)
(0.941025 -0.416438 -1.32984e-20)
(0.97996 -0.415933 -1.11224e-20)
(1.01264 -0.407993 -8.24357e-21)
(1.0377 -0.392977 1.0627e-21)
(1.05359 -0.371362 4.97313e-21)
(1.05869 -0.343821 1.95604e-21)
(1.05147 -0.311277 -2.16584e-21)
(0.757493 -0.389618 -1.79914e-19)
(0.809507 -0.408751 1.76888e-20)
(0.85872 -0.420615 -8.56802e-20)
(0.902888 -0.424434 -1.28283e-20)
(0.940637 -0.420084 4.11251e-20)
(0.970645 -0.407885 1.15114e-20)
(0.991441 -0.388362 -2.17515e-21)
(1.00151 -0.362265 -8.37905e-22)
(0.999412 -0.330606 -7.81694e-21)
(0.983965 -0.294688 1.50141e-21)
(0.711136 -0.400593 -4.77919e-20)
(0.761688 -0.41707 -6.87304e-20)
(0.809268 -0.425146 -6.49967e-21)
(0.851305 -0.424601 -2.15292e-20)
(0.885908 -0.415529 -2.13597e-20)
(0.911436 -0.39843 -1.99794e-21)
(0.926349 -0.374098 -1.47261e-21)
(0.92926 -0.343612 9.59045e-22)
(0.919051 -0.308351 8.13958e-21)
(0.895022 -0.269982 -1.73648e-21)
(0.650934 -0.399269 -1.0291e-19)
(0.698882 -0.41261 1.07146e-19)
(0.743056 -0.416485 5.71333e-21)
(0.780902 -0.411164 -4.55106e-21)
(0.810316 -0.397132 1.18523e-20)
(0.829544 -0.375227 2.76126e-21)
(0.837128 -0.346602 -7.52709e-21)
(0.831959 -0.312712 1.03442e-20)
(0.813367 -0.275289 -1.56053e-21)
(0.781247 -0.236294 -6.92709e-22)
(0.5698 -0.377769 1.47918e-19)
(0.613529 -0.387508 -8.16615e-20)
(0.652387 -0.387155 -2.44784e-20)
(0.684002 -0.377402 -5.78397e-21)
(0.706347 -0.35917 -8.84891e-21)
(0.717808 -0.333698 2.74894e-21)
(0.717204 -0.302524 -6.50628e-21)
(0.703851 -0.267447 -3.4248e-21)
(0.677632 -0.230467 2.58751e-21)
(0.639064 -0.193694 3.17134e-21)
(0.458942 -0.325554 2.40692e-20)
(0.496023 -0.331948 1.44997e-20)
(0.527312 -0.328349 2.76615e-21)
(0.55073 -0.315817 -8.10452e-21)
(0.564552 -0.295667 2.54671e-20)
(0.567514 -0.2695 -1.62118e-22)
(0.55888 -0.239155 2.14294e-21)
(0.538482 -0.206639 1.2951e-21)
(0.506768 -0.174038 3.45068e-21)
(0.464794 -0.143398 -2.41143e-21)
(0.30748 -0.229199 6.97945e-20)
(0.334589 -0.233951 4.86154e-20)
(0.355686 -0.229858 -8.1818e-20)
(0.369117 -0.218233 -1.5098e-20)
(0.373619 -0.200635 -2.31495e-20)
(0.368419 -0.178837 -1.42049e-21)
(0.353285 -0.154753 -9.11393e-21)
(0.328544 -0.130343 1.18947e-20)
(0.295079 -0.107508 -1.97823e-22)
(0.254265 -0.0879749 5.10334e-21)
(0.102087 -0.0723642 -1.28113e-20)
(0.114559 -0.0797547 -8.22894e-20)
(0.122197 -0.080898 6.07734e-20)
(0.123926 -0.0770803 -1.88604e-20)
(0.119046 -0.0697462 2.31691e-20)
(0.10729 -0.0604526 -9.27473e-22)
(0.0888422 -0.0507871 -7.70891e-21)
(0.064321 -0.0422751 9.52571e-22)
(0.0347397 -0.0362883 -3.65616e-22)
(0.00141942 -0.0339711 -2.60044e-21)
(-0.17561 0.164205 -1.25398e-20)
(-0.185163 0.145406 4.32523e-20)
(-0.19587 0.128286 -1.77789e-20)
(-0.208054 0.112201 4.69445e-21)
(-0.221834 0.096496 -5.15164e-21)
(-0.237121 0.08051 1.08262e-21)
(-0.253625 0.0636149 1.25699e-21)
(-0.270873 0.0452601 5.41963e-21)
(-0.288257 0.0250092 -2.56339e-21)
(-0.305085 0.00255002 -8.90767e-22)
(1.08804 -0.287672 1.75418e-21)
(1.06164 -0.251229 -8.37806e-21)
(1.02067 -0.213085 4.5283e-20)
(0.965259 -0.17539 -3.27475e-20)
(0.896556 -0.140728 3.84449e-21)
(0.816748 -0.11196 -3.27502e-20)
(0.728735 -0.0919326 1.64855e-19)
(0.63528 -0.0830597 8.12873e-21)
(0.535065 -0.0873311 -4.87351e-20)
(0.416678 -0.101231 1.09968e-19)
(1.03062 -0.274959 5.71103e-21)
(0.99534 -0.23651 -1.67729e-20)
(0.945589 -0.197943 -1.69169e-20)
(0.882213 -0.161602 -1.23784e-20)
(0.807045 -0.130019 -3.53738e-20)
(0.722707 -0.105686 -8.47464e-22)
(0.632118 -0.0907154 -1.08507e-20)
(0.537481 -0.0863505 3.01384e-20)
(0.437689 -0.0924734 9.72315e-20)
(0.32721 -0.102572 -2.14462e-20)
(0.954349 -0.256121 -3.8399e-21)
(0.910436 -0.216872 3.35396e-20)
(0.8529 -0.17915 8.63671e-21)
(0.783293 -0.14529 -1.92972e-21)
(0.703989 -0.117566 3.85677e-20)
(0.617897 -0.0979158 1.67517e-20)
(0.527925 -0.0875938 3.23167e-20)
(0.43616 -0.0866774 -3.49033e-20)
(0.342599 -0.0934655 -6.94544e-20)
(0.246054 -0.101491 -1.63071e-19)
(0.856977 -0.230423 4.67867e-21)
(0.805502 -0.191844 -1.47941e-20)
(0.741986 -0.156475 2.12163e-20)
(0.668572 -0.126465 -4.81714e-20)
(0.588015 -0.103669 -2.83933e-20)
(0.503348 -0.0893904 -1.34157e-20)
(0.417413 -0.0840837 -6.76503e-20)
(0.332308 -0.0869995 -3.12103e-20)
(0.24895 -0.095814 3.76003e-21)
(0.168282 -0.105368 5.05224e-20)
(0.736072 -0.197829 2.29894e-21)
(0.679112 -0.162093 -2.08196e-23)
(0.612351 -0.131149 1.39988e-20)
(0.538333 -0.106787 4.28643e-20)
(0.459971 -0.0903307 -7.26315e-21)
(0.380227 -0.0824408 -6.30014e-20)
(0.30174 -0.0829081 1.06055e-19)
(0.226513 -0.0904693 -3.22817e-20)
(0.155832 -0.102678 -2.42119e-20)
(0.0911834 -0.115576 -1.14136e-20)
(0.589236 -0.159229 -6.36228e-21)
(0.529957 -0.129094 6.62937e-21)
(0.463588 -0.105003 2.18718e-20)
(0.392815 -0.0882538 -2.10758e-20)
(0.320452 -0.079598 4.16161e-20)
(0.249184 -0.0791113 -5.08742e-21)
(0.181299 -0.0860957 3.99166e-21)
(0.118528 -0.0990222 2.65942e-20)
(0.0621067 -0.115554 2.07888e-20)
(0.0133019 -0.132624 6.70038e-21)
(0.414091 -0.116602 9.45149e-22)
(0.356759 -0.0952832 -1.26669e-21)
(0.295246 -0.0806635 3.12422e-20)
(0.232087 -0.0734923 -3.74086e-20)
(0.169754 -0.0739787 -7.09283e-20)
(0.110468 -0.0817419 3.41963e-20)
(0.0560455 -0.0957898 -1.8091e-20)
(0.00783117 -0.114538 1.92558e-20)
(-0.0332194 -0.135894 5.41435e-20)
(-0.0662741 -0.157452 -5.85926e-20)
(0.207798 -0.0731898 -1.00524e-21)
(0.157734 -0.0642239 -1.96463e-20)
(0.106283 -0.0617428 2.77137e-20)
(0.0555499 -0.065975 1.70155e-20)
(0.00745554 -0.0767002 -5.19896e-20)
(-0.036368 -0.093261 -4.0783e-20)
(-0.0746462 -0.114584 -2.91496e-21)
(-0.10647 -0.139222 6.36567e-21)
(-0.131225 -0.165434 8.15181e-21)
(-0.148472 -0.191359 -2.28759e-20)
(-0.0341608 -0.0361753 1.68771e-21)
(-0.0703707 -0.0432886 2.71198e-20)
(-0.105593 -0.055479 1.10494e-20)
(-0.138396 -0.0725864 -3.65301e-20)
(-0.167565 -0.0941539 3.60813e-20)
(-0.192133 -0.119474 -4.72254e-20)
(-0.211392 -0.147623 6.20068e-20)
(-0.224861 -0.177485 -7.44772e-20)
(-0.232243 -0.207801 -3.94187e-20)
(-0.233369 -0.237269 -1.06105e-19)
(-0.320605 -0.0223305 -4.72087e-22)
(-0.334094 -0.0492852 -7.85306e-21)
(-0.344931 -0.0782299 5.82015e-21)
(-0.35259 -0.108876 6.91075e-21)
(-0.356682 -0.140822 -1.56049e-20)
(-0.356953 -0.173597 1.53415e-20)
(-0.353252 -0.206681 -1.87846e-20)
(-0.34551 -0.239506 1.45489e-20)
(-0.333714 -0.271474 -3.70049e-20)
(-0.317873 -0.301985 4.08335e-20)
(-0.297906 -0.330431 5.85523e-20)
(-0.228219 -0.264694 -4.40216e-20)
(-0.157935 -0.215412 -4.57107e-20)
(-0.0904051 -0.177189 6.14545e-20)
(-0.0258322 -0.14748 -5.62923e-21)
(0.0363123 -0.124907 7.31425e-20)
(0.0961888 -0.108185 8.34567e-21)
(0.154013 -0.0964498 -6.58105e-20)
(0.211085 -0.0898261 1.21792e-19)
(0.266564 -0.0852652 -1.67871e-20)
(-0.274465 -0.355934 -6.19287e-20)
(-0.217302 -0.28909 1.69811e-19)
(-0.159788 -0.236688 -7.11509e-21)
(-0.105088 -0.194558 -5.61163e-20)
(-0.0533412 -0.160474 4.45262e-20)
(-0.00392735 -0.133025 -1.01424e-19)
(0.0435179 -0.110847 1.16922e-19)
(0.0895818 -0.0929827 -9.90567e-20)
(0.135725 -0.0797113 1.76938e-20)
(0.180203 -0.0704853 7.75259e-20)
(-0.247939 -0.378384 3.55476e-20)
(-0.201342 -0.309998 -1.07057e-19)
(-0.154904 -0.254702 3.71695e-20)
(-0.111331 -0.209331 -2.05825e-20)
(-0.0705664 -0.171965 3.80452e-20)
(-0.0318502 -0.141293 -2.84963e-20)
(0.00533829 -0.116138 -2.70413e-20)
(0.0416357 -0.0957936 3.6769e-20)
(0.0779964 -0.0805549 -8.59551e-20)
(0.112347 -0.0703037 1.29077e-19)
(-0.218792 -0.397565 -7.6092e-20)
(-0.181247 -0.327103 8.34298e-21)
(-0.1445 -0.269106 3.89644e-20)
(-0.11066 -0.221153 5.28867e-20)
(-0.0794453 -0.181529 -8.08765e-20)
(-0.0500162 -0.148982 6.69231e-21)
(-0.0218201 -0.122443 -4.52241e-20)
(0.0056752 -0.101288 -9.49868e-20)
(0.0330515 -0.0856058 1.81155e-19)
(0.0585572 -0.0751056 6.94833e-20)
(-0.18754 -0.413319 5.33382e-20)
(-0.157971 -0.340217 1.22143e-20)
(-0.129828 -0.279673 4.76086e-20)
(-0.104571 -0.229692 -5.799e-21)
(-0.0817052 -0.188604 6.30093e-20)
(-0.0603533 -0.155085 3.09883e-20)
(-0.0399877 -0.128019 7.92365e-20)
(-0.0201982 -0.106666 -8.05822e-20)
(-0.000632888 -0.0907909 -8.3606e-21)
(0.0173661 -0.0799117 -9.08438e-20)
(-0.154704 -0.425567 3.54015e-20)
(-0.132425 -0.349306 -4.17403e-20)
(-0.112045 -0.286359 -9.36855e-21)
(-0.0943992 -0.234822 -1.63224e-20)
(-0.0788187 -0.19288 -1.7903e-20)
(-0.0644307 -0.159015 -2.27981e-20)
(-0.0507662 -0.13194 3.72338e-20)
(-0.0375307 -0.110714 -4.97978e-20)
(-0.0245275 -0.0947824 4.49566e-20)
(-0.0127579 -0.0835101 5.92784e-21)
(-0.120771 -0.434305 -6.15088e-20)
(-0.105421 -0.354495 -3.10582e-20)
(-0.0921408 -0.289333 5.39511e-20)
(-0.0812351 -0.236676 -2.011e-20)
(-0.0719251 -0.194388 2.9819e-20)
(-0.063391 -0.160645 -9.03147e-20)
(-0.0552531 -0.133921 6.90174e-20)
(-0.047332 -0.113048 -2.59045e-20)
(-0.0395583 -0.0972057 4.69078e-20)
(-0.0327018 -0.0856391 -5.66079e-20)
(-0.0861903 -0.43961 2.83609e-20)
(-0.0776522 -0.356065 -1.21974e-20)
(-0.0709104 -0.288972 -1.88301e-20)
(-0.0659038 -0.235647 -7.55438e-21)
(-0.0618351 -0.193482 4.17109e-21)
(-0.0579944 -0.160268 1.25744e-20)
(-0.0541282 -0.134197 -3.10067e-20)
(-0.0501869 -0.113874 1.88944e-20)
(-0.046225 -0.0982684 5.80716e-20)
(-0.0428983 -0.0865328 -5.61568e-20)
(-0.0513554 -0.441641 2.12128e-20)
(-0.0496665 -0.354435 5.9727e-23)
(-0.0489432 -0.285828 2.92337e-20)
(-0.0489777 -0.232344 -2.5249e-20)
(-0.0490716 -0.190783 7.81028e-21)
(-0.0486939 -0.158494 -8.73575e-21)
(-0.0477641 -0.133367 -4.97571e-21)
(-0.0463862 -0.113789 -2.89625e-20)
(-0.0447466 -0.0985618 3.15966e-20)
(-0.0435014 -0.0867626 3.2976e-20)
(-0.0165737 -0.440621 -3.74138e-21)
(-0.0218511 -0.350123 -3.18911e-21)
(-0.0266209 -0.280573 -2.8792e-21)
(-0.0307896 -0.227517 -1.10382e-20)
(-0.0339011 -0.187076 1.19257e-20)
(-0.0356851 -0.156124 4.36097e-21)
(-0.0362874 -0.13224 -9.3521e-21)
(-0.0359954 -0.113605 5.76213e-22)
(-0.0351372 -0.098878 -5.6717e-21)
(-0.0344792 -0.0870743 -3.91392e-22)
(-0.0158517 -0.0570579 -1.1644e-21)
(-0.00962814 -0.0576373 -1.15557e-21)
(0.0404055 -0.0478768 2.5883e-21)
(0.0884423 -0.0317588 -1.71836e-21)
(0.151501 -0.00895553 -5.41475e-22)
(0.216424 0.0143555 -1.06284e-21)
(0.286065 0.0292408 3.77866e-22)
(0.358554 0.0275573 -4.89211e-22)
(0.434658 0.00570392 2.56481e-22)
(0.51113 -0.0313694 4.85094e-23)
(0.581317 -0.0709591 -2.80224e-22)
(0.638916 -0.0989892 4.60868e-23)
(0.684106 -0.106131 -4.96237e-23)
(0.725048 -0.0905619 -6.51959e-23)
(0.77102 -0.0578353 1.05516e-23)
(0.824307 -0.0212906 -7.28784e-24)
(0.877562 0.00810645 3.18104e-24)
(0.924339 0.0213529 3.43997e-25)
(0.95567 0.026372 1.11794e-25)
(0.981942 0.0176574 5.7222e-24)
(0.0184875 -0.0582672 5.43709e-21)
(0.0254393 -0.0675222 4.04069e-21)
(0.076538 -0.0605119 -3.80933e-21)
(0.122737 -0.0458022 2.05639e-21)
(0.183097 -0.0234305 -3.95613e-21)
(0.246062 0.000174867 -1.53088e-22)
(0.315112 0.0155396 -3.5952e-22)
(0.388401 0.0144476 -7.64534e-22)
(0.465675 -0.00655551 5.03696e-22)
(0.542272 -0.0421234 1.66564e-22)
(0.610633 -0.07953 8.05762e-23)
(0.664474 -0.105305 4.71165e-22)
(0.704368 -0.110988 -4.05803e-22)
(0.739025 -0.0951094 -3.26859e-23)
(0.778752 -0.0627047 3.2196e-23)
(0.827235 -0.0261943 1.25797e-23)
(0.877698 0.00381326 -1.61879e-23)
(0.923478 0.0182279 2.79268e-24)
(0.954589 0.0242548 -6.37522e-26)
(0.981251 0.0167255 -1.32621e-23)
(0.0663917 -0.0614465 -1.86846e-20)
(0.0747767 -0.0778799 2.65909e-21)
(0.127045 -0.0730782 1.76973e-20)
(0.170797 -0.0594336 -8.71524e-21)
(0.227223 -0.037503 -1.13801e-21)
(0.286833 -0.0137534 -3.8393e-21)
(0.353716 0.00198915 6.98486e-23)
(0.426141 0.0015245 -1.49903e-21)
(0.502855 -0.0184493 -5.15464e-22)
(0.577942 -0.0523008 -4.41531e-22)
(0.643175 -0.0874005 -6.56604e-23)
(0.69245 -0.110904 6.68087e-23)
(0.726697 -0.115169 3.70458e-22)
(0.754957 -0.0990587 -1.42601e-22)
(0.788286 -0.0671089 -3.83943e-23)
(0.831625 -0.0308021 4.18518e-23)
(0.878858 -0.000333813 -2.58525e-24)
(0.923231 0.0151566 7.17659e-25)
(0.953849 0.0221437 6.05857e-26)
(0.980691 0.0157874 -2.12566e-23)
(0.127887 -0.0670829 -5.06914e-21)
(0.138048 -0.0886441 1.96006e-20)
(0.190906 -0.08534 -9.21048e-21)
(0.231384 -0.0723373 -4.78596e-21)
(0.282611 -0.0508226 3.78462e-21)
(0.337495 -0.0270757 -7.50939e-22)
(0.400674 -0.0110644 1.59675e-21)
(0.470591 -0.0108859 -7.87098e-22)
(0.545059 -0.0296953 1.66897e-21)
(0.617102 -0.0616916 8.40262e-22)
(0.678052 -0.0944451 -1.79944e-21)
(0.722099 -0.115732 2.48917e-22)
(0.750489 -0.118656 8.53045e-24)
(0.772386 -0.102394 2.23866e-22)
(0.799316 -0.0710162 2.94081e-23)
(0.837311 -0.0350706 -2.73896e-23)
(0.880969 -0.00429364 -1.45981e-23)
(0.923573 0.0121681 -3.35087e-24)