/*--------------------------------*- C++ -*----------------------------------*\
  =========                 |
  \\      /  F ield         | OpenFOAM: The Open Source CFD Toolbox
   \\    /   O peration     | Website:  https://openfoam.org
    \\  /    A nd           | Version:  6.0
     \\/     M anipulation  |
\*---------------------------------------------------------------------------*/
FoamFile
{
    version     2.0;
    format      ascii;
    class       volVectorField;
    location    "2";
    object      U;
}
// * * * * * * * * * * * * * * * * * * * * * * * * * * * * * * * * * * * * * //

dimensions      [0 1 -1 0 0 0 0];

internalField   nonuniform List<vector> 
19200
(
(0.656033 -17.0043 -3.13923e-20)
(0.195175 -16.1785 1.41536e-20)
(0.178017 -15.3978 6.19911e-21)
(0.199533 -14.6583 5.20753e-21)
(0.193168 -13.9572 5.38074e-21)
(0.186284 -13.2886 3.47561e-22)
(0.181635 -12.6484 7.03068e-22)
(0.177136 -12.0345 -3.8405e-22)
(0.172503 -11.4453 5.43267e-21)
(0.167811 -10.8801 2.15007e-21)
(0.163057 -10.3382 1.51069e-22)
(0.158246 -9.81912 3.07433e-21)
(0.153404 -9.32254 4.50282e-21)
(0.148565 -8.84804 -2.87837e-21)
(0.143762 -8.39523 3.48257e-21)
(0.139033 -7.96367 2.72236e-21)
(0.134409 -7.55286 -2.48222e-21)
(0.129925 -7.1623 3.92262e-21)
(0.125613 -6.79139 -2.39809e-21)
(0.121503 -6.43953 1.16527e-21)
(0.117624 -6.10604 1.48455e-21)
(0.114002 -5.79022 -4.43551e-22)
(0.110659 -5.49132 5.90738e-22)
(0.107611 -5.20859 -6.27558e-22)
(0.104868 -4.94126 1.31475e-21)
(0.102424 -4.68853 2.79082e-22)
(0.100257 -4.44967 -1.91542e-22)
(0.0984275 -4.22395 1.1763e-22)
(0.0971124 -4.01067 2.47154e-22)
(0.0955499 -3.80921 8.28312e-22)
(1.09989 -16.9796 -6.67648e-21)
(0.619383 -16.1682 4.23582e-20)
(0.582017 -15.3899 -2.18361e-20)
(0.584088 -14.651 -2.75114e-20)
(0.559379 -13.951 -1.14019e-20)
(0.535035 -13.283 -7.70944e-21)
(0.513668 -12.6433 -1.48447e-20)
(0.493131 -12.0296 2.15318e-21)
(0.473107 -11.4406 -3.36061e-21)
(0.453648 -10.8754 -1.05509e-20)
(0.434737 -10.3335 -2.33206e-20)
(0.416368 -9.81451 1.06584e-20)
(0.398558 -9.31797 -3.79129e-21)
(0.381331 -8.84352 1.41727e-21)
(0.364712 -8.39078 -7.54438e-21)
(0.348724 -7.95931 -2.50175e-21)
(0.333389 -7.54862 3.33312e-22)
(0.318726 -7.1582 7.67223e-21)
(0.304753 -6.78747 -4.12991e-21)
(0.291484 -6.43582 -2.18691e-21)
(0.27893 -6.10258 -7.48587e-21)
(0.2671 -5.78704 1.8602e-21)
(0.255998 -5.48846 -1.06403e-21)
(0.245622 -5.20607 1.77206e-21)
(0.235964 -4.93908 -2.11916e-21)
(0.226997 -4.68672 -1.11195e-21)
(0.218679 -4.44821 3.81439e-22)
(0.211066 -4.22282 5.01119e-22)
(0.204357 -4.00982 -9.16244e-22)
(0.197666 -3.80857 3.58749e-22)
(1.5439 -16.9442 -3.09157e-21)
(1.04294 -16.1469 9.23736e-21)
(0.985468 -15.3713 1.44507e-20)
(0.968262 -14.6336 9.51148e-20)
(0.925298 -13.935 -5.11768e-20)
(0.883551 -13.2683 4.63376e-20)
(0.845505 -12.6294 -3.83115e-20)
(0.808952 -12.0163 1.89765e-20)
(0.773548 -11.4279 -1.67477e-20)
(0.739326 -10.8632 -8.06954e-22)
(0.706258 -10.3217 3.7749e-20)
(0.674331 -9.80308 5.50371e-21)
(0.643553 -9.30692 -1.53026e-20)
(0.613939 -8.83286 1.17915e-20)
(0.585505 -8.38051 2.21028e-22)
(0.558262 -7.94943 4.35795e-21)
(0.53222 -7.53915 2.99168e-21)
(0.507385 -7.14915 8.99123e-21)
(0.483758 -6.77887 -4.07702e-21)
(0.461338 -6.42767 -1.33634e-21)
(0.440121 -6.09491 -2.8814e-21)
(0.420097 -5.77988 1.19482e-20)
(0.401252 -5.48183 -9.60664e-21)
(0.383566 -5.19998 3.09267e-21)
(0.367011 -4.93356 6.3525e-21)
(0.35154 -4.68175 -4.88334e-21)
(0.33709 -4.44379 6.27487e-21)
(0.323713 -4.2189 -7.01565e-22)
(0.311626 -4.00634 -6.60345e-22)
(0.299813 -3.80548 -3.8093e-21)
(1.98629 -16.8976 -1.10645e-19)
(1.46525 -16.1147 -8.90394e-20)
(1.38797 -15.3422 -1.01991e-19)
(1.35173 -14.6062 4.91226e-21)
(1.29066 -13.9096 6.24998e-21)
(1.23159 -13.2445 -9.77468e-20)
(1.17692 -12.6069 -4.65008e-20)
(1.12438 -11.9949 1.11352e-20)
(1.07362 -11.4074 -2.32044e-21)
(1.02465 -10.8435 1.63792e-20)
(0.977435 -10.3028 -6.3741e-20)
(0.93196 -9.78495 -3.56894e-20)
(0.888222 -9.28952 1.39291e-20)
(0.846231 -8.81617 2.34307e-20)
(0.805991 -8.36452 -2.70198e-20)
(0.767504 -7.93414 -3.93704e-21)
(0.730766 -7.52455 -1.39204e-20)
(0.695771 -7.13524 -6.11215e-21)
(0.662504 -6.76565 9.49967e-21)
(0.630951 -6.41516 -1.172e-20)
(0.601088 -6.08311 9.38608e-21)
(0.572889 -5.7688 -1.10301e-20)
(0.546322 -5.47149 -7.98091e-21)
(0.521348 -5.19039 -5.26187e-21)
(0.49792 -4.92471 5.8831e-21)
(0.47597 -4.67365 -9.94594e-21)
(0.455414 -4.43641 1.01111e-21)
(0.436299 -4.21221 1.57302e-21)
(0.418855 -4.00026 -4.30509e-21)
(0.401934 -3.79996 9.84123e-22)
(2.42737 -16.8398 -6.59421e-20)
(1.8865 -16.0719 8.49427e-21)
(1.78948 -15.3028 7.24833e-20)
(1.73431 -14.5689 7.05762e-20)
(1.65524 -13.8747 4.74398e-20)
(1.57893 -13.2116 1.84962e-20)
(1.50767 -12.5757 1.06549e-20)
(1.4392 -11.9652 1.14618e-19)
(1.3731 -11.379 -6.74594e-20)
(1.30941 -10.8164 2.35562e-21)
(1.24807 -10.2769 1.49824e-20)
(1.18907 -9.7601 5.59013e-20)
(1.13239 -9.26574 -3.65104e-20)
(1.07804 -8.79344 2.43883e-20)
(1.02601 -8.3428 -2.49722e-20)
(0.9763 -7.91341 4.07851e-20)
(0.928886 -7.5048 -1.1787e-20)
(0.88375 -7.11645 4.25649e-22)
(0.840865 -6.7478 1.5972e-20)
(0.800199 -6.39826 1.01419e-20)
(0.761715 -6.06716 -1.03647e-20)
(0.725367 -5.75379 1.30356e-20)
(0.691105 -5.45743 -5.45046e-21)
(0.658872 -5.17728 6.19865e-21)
(0.6286 -4.91255 6.24005e-21)
(0.600202 -4.66242 2.41621e-21)
(0.573571 -4.42609 7.28678e-21)
(0.548747 -4.20275 -3.005e-21)
(0.525975 -3.99159 -1.09378e-21)
(0.503965 -3.79202 -3.71817e-21)
(2.86675 -16.7706 -4.72264e-20)
(2.30641 -16.0182 -2.89005e-20)
(2.18976 -15.253 -8.07083e-20)
(2.11576 -14.5217 -1.94055e-19)
(2.0188 -13.8304 6.57587e-20)
(1.92533 -13.1698 3.63187e-21)
(1.83756 -12.536 1.24923e-21)
(1.75318 -11.9274 5.7286e-21)
(1.6718 -11.3429 -6.13191e-21)
(1.59342 -10.7819 -7.80778e-20)
(1.51799 -10.2439 3.3032e-20)
(1.44548 -9.72857 5.09751e-20)
(1.37589 -9.23562 5.2061e-22)
(1.3092 -8.76468 1.6747e-20)
(1.24542 -8.31537 3.7641e-20)
(1.1845 -7.88727 -2.45826e-20)
(1.12644 -7.47992 4.0789e-20)
(1.07119 -7.0928 -1.81828e-20)
(1.01871 -6.72536 3.0284e-20)
(0.968965 -6.377 -2.18098e-20)
(0.921888 -6.04707 9.2744e-21)
(0.877422 -5.73487 2.18013e-20)
(0.835498 -5.43967 2.88638e-22)
(0.796039 -5.16067 -1.86343e-20)
(0.758959 -4.89708 9.7837e-21)
(0.724148 -4.64807 2.77063e-21)
(0.691478 -4.41282 -2.72784e-21)
(0.660983 -4.19052 1.00968e-20)
(0.632915 -3.98031 3.13757e-21)
(0.605844 -3.78165 -3.17325e-21)
(3.30419 -16.6902 1.28874e-19)
(2.72479 -15.9538 -8.97184e-21)
(2.58861 -15.193 -1.62987e-19)
(2.49588 -14.4647 3.24365e-20)
(2.38113 -13.7767 -3.9126e-20)
(2.27057 -13.119 3.14489e-20)
(2.16635 -12.4877 -1.20683e-20)
(2.06614 -11.8814 9.91514e-20)
(1.96951 -11.299 -9.9963e-20)
(1.87648 -10.74 2.45572e-20)
(1.78699 -10.2039 -1.38084e-20)
(1.70102 -9.69036 9.86139e-21)
(1.61854 -9.19916 -4.39413e-20)
(1.53956 -8.72992 -1.73247e-21)
(1.46405 -8.28225 6.06318e-20)
(1.39197 -7.85574 -4.14574e-20)
(1.32329 -7.44992 -2.37364e-20)
(1.25796 -7.0643 -1.52091e-20)
(1.19593 -6.69832 2.81284e-20)
(1.13713 -6.35139 5.29764e-21)
(1.08149 -6.02287 -2.41321e-20)
(1.02895 -5.71205 3.00358e-20)
(0.979397 -5.41821 -2.62589e-20)
(0.932751 -5.14056 1.6064e-20)
(0.888904 -4.8783 -8.92351e-21)
(0.847722 -4.63059 2.34397e-21)
(0.809055 -4.39662 3.50217e-21)
(0.77293 -4.17552 -1.61374e-20)
(0.739606 -3.96644 6.70977e-21)
(0.707505 -3.76885 7.59162e-23)
(3.73939 -16.5984 -1.25104e-19)
(3.14137 -15.8786 9.78807e-20)
(2.9858 -15.1228 -1.59246e-19)
(2.87443 -14.398 2.97005e-19)
(2.74199 -13.7137 -7.91814e-20)
(2.61444 -13.0593 1.01585e-19)
(2.49384 -12.4309 7.58862e-20)
(2.37784 -11.8272 -1.51248e-20)
(2.26602 -11.2473 -1.67973e-20)
(2.15839 -10.6907 8.6362e-22)
(2.05489 -10.1568 -5.80691e-20)
(1.9555 -9.6455 3.03717e-20)
(1.86019 -9.1564 -3.22169e-20)
(1.76895 -8.68917 -2.88795e-21)
(1.68175 -8.24345 -8.03732e-20)
(1.59855 -7.81882 2.6361e-20)
(1.51929 -7.41483 1.30037e-20)
(1.44392 -7.03098 -1.49503e-20)
(1.37237 -6.66671 -1.81128e-21)
(1.30457 -6.32145 -1.99949e-20)
(1.24042 -5.99456 -6.68574e-21)
(1.17983 -5.68534 1.64256e-22)
(1.1227 -5.39307 -1.47366e-20)
(1.06891 -5.11697 -2.00983e-20)
(1.01834 -4.85623 1.0623e-21)
(0.970834 -4.61001 2.64706e-21)
(0.926219 -4.37748 5.38126e-21)
(0.884511 -4.15777 -1.26146e-20)
(0.845976 -3.94998 1.02489e-20)
(0.808884 -3.75364 -1.78317e-20)
(4.17206 -16.4954 -3.11816e-19)
(3.55589 -15.7927 3.40454e-19)
(3.38108 -15.0423 -3.35864e-19)
(3.25118 -14.3215 -8.29719e-20)
(3.10116 -13.6413 -4.81887e-20)
(2.95671 -12.9906 -4.99545e-20)
(2.8198 -12.3656 -1.1659e-19)
(2.68809 -11.765 -1.13491e-20)
(2.56114 -11.188 -4.23316e-20)
(2.43896 -10.6341 -7.49202e-21)
(2.32151 -10.1028 5.75159e-20)
(2.20874 -9.59403 -3.6101e-20)
(2.10065 -9.10735 -3.70917e-20)
(1.99721 -8.64247 -5.59874e-20)
(1.89837 -8.19901 1.13483e-19)
(1.80409 -7.77656 -4.11522e-20)
(1.71431 -7.37467 1.4505e-20)
(1.62895 -6.99285 -4.96477e-20)
(1.54793 -6.63055 1.9069e-20)
(1.47116 -6.2872 -6.68945e-21)
(1.39854 -5.96216 9.00826e-21)
(1.32996 -5.65476 -2.5422e-21)
(1.2653 -5.36427 2.31798e-20)
(1.20442 -5.08991 -7.87788e-21)
(1.14718 -4.83088 2.02476e-20)
(1.0934 -4.58633 -3.98205e-20)
(1.04289 -4.35543 2.44854e-20)
(0.995648 -4.13728 5.80963e-21)
(0.951952 -3.93094 1.05097e-20)
(0.909916 -3.73601 -3.13747e-20)
(4.60192 -16.3812 4.93411e-19)
(3.96809 -15.6962 -9.10354e-20)
(3.77421 -14.9517 1.40605e-19)
(3.62589 -14.2353 -3.75462e-20)
(3.45842 -13.5597 1.2954e-19)
(3.29715 -12.9131 1.12769e-19)
(3.14402 -12.2918 4.91082e-20)
(2.99667 -11.6947 -1.65177e-20)
(2.85466 -11.121 -9.98974e-20)
(2.718 -10.5701 1.44452e-19)
(2.58666 -10.0419 -7.06529e-21)
(2.46059 -9.53596 9.00976e-20)
(2.33977 -9.05205 3.02165e-20)
(2.22418 -8.58984 1.16241e-20)
(2.11376 -8.14895 1.6144e-20)
(2.00846 -7.72898 2.12146e-20)
(1.90821 -7.32947 3.18897e-20)
(1.81291 -6.94994 -8.04034e-21)
(1.72247 -6.58986 4.14687e-20)
(1.6368 -6.24865 1.71232e-20)
(1.55576 -5.9257 -3.49353e-20)
(1.47924 -5.62033 5.82046e-20)
(1.40709 -5.33182 -7.29392e-20)
(1.33917 -5.0594 6.54231e-20)
(1.27532 -4.80226 -2.07868e-20)
(1.21532 -4.55956 -7.51218e-21)
(1.15897 -4.33046 -1.27124e-21)
(1.10626 -4.11404 1.33894e-20)
(1.05746 -3.90933 4.35815e-21)
(1.01053 -3.71597 -4.87879e-21)
(5.02869 -16.2559 -2.80473e-19)
(4.37768 -15.589 2.39252e-19)
(4.16492 -14.851 -6.31739e-20)
(3.99833 -14.1394 1.708e-19)
(3.81352 -13.4688 1.64044e-20)
(3.63556 -12.8268 2.70045e-20)
(3.4663 -12.2097 -2.4608e-19)
(3.30338 -11.6164 1.10977e-19)
(3.14638 -11.0463 1.39074e-19)
(2.99532 -10.499 9.46966e-20)
(2.85015 -9.97406 -1.56389e-19)
(2.71085 -9.47135 8.53241e-20)
(2.57737 -8.99054 -8.19093e-20)
(2.4497 -8.53131 5.06179e-20)
(2.32777 -8.0933 -8.17029e-20)
(2.21151 -7.6761 -5.52761e-20)
(2.10085 -7.27926 5.36987e-21)
(1.99567 -6.90229 -2.13433e-20)
(1.89587 -6.54467 3.97428e-20)
(1.80134 -6.20585 1.45029e-20)
(1.71195 -5.8852 -9.53741e-21)
(1.62754 -5.58207 -2.67173e-21)
(1.54798 -5.29575 8.8262e-21)
(1.47308 -5.02546 -3.02785e-20)
(1.40266 -4.7704 4.71825e-20)
(1.33652 -4.52973 -1.17371e-20)
(1.27439 -4.3026 -1.77686e-20)
(1.21627 -4.08808 3.52555e-20)
(1.16243 -3.88515 3.82177e-21)
(1.11067 -3.69354 -4.62855e-21)
(5.45206 -16.1196 9.03232e-21)
(4.78441 -15.4712 -1.43435e-19)
(4.55297 -14.7401 -1.20462e-19)
(4.36825 -14.0339 -1.85777e-19)
(4.16624 -13.3688 5.80187e-21)
(3.97169 -12.7318 -1.13029e-19)
(3.7864 -12.1191 1.33521e-19)
(3.60801 -11.5301 -6.23672e-20)
(3.43611 -10.964 8.77843e-20)
(3.27073 -10.4205 -7.67182e-20)
(3.11181 -9.89936 -3.56138e-20)
(2.95935 -9.40022 1.8211e-20)
(2.8133 -8.92285 9.10359e-21)
(2.67361 -8.46693 -8.40416e-20)
(2.54024 -8.03211 4.84833e-20)
(2.4131 -7.61796 -2.07024e-20)
(2.29209 -7.22406 5.9439e-20)
(2.1771 -6.84992 -1.80699e-20)
(2.06801 -6.49502 1.83197e-20)
(1.96469 -6.15881 4.02826e-21)
(1.86699 -5.84069 2.68132e-20)
(1.77477 -5.54001 -5.76393e-21)
(1.68784 -5.25607 3.94136e-20)
(1.60603 -4.9881 -4.3118e-20)
(1.52912 -4.7353 -1.34005e-20)
(1.45689 -4.49684 1.04336e-20)
(1.38905 -4.27186 -1.4623e-21)
(1.3256 -4.0594 -2.6147e-20)
(1.26678 -3.85842 1.27881e-20)
(1.21025 -3.66872 -1.36478e-20)
(5.87175 -15.9722 4.67702e-19)
(5.188 -15.343 1.15728e-19)
(4.93811 -14.6193 1.28817e-19)
(4.73541 -13.9189 1.59778e-19)
(4.51634 -13.2597 2.26542e-19)
(4.30533 -12.628 -6.2511e-21)
(4.10411 -12.0203 3.2493e-20)
(3.91035 -11.4359 3.18398e-19)
(3.72365 -10.8742 8.7077e-20)
(3.54403 -10.335 -6.76808e-20)
(3.37146 -9.81784 1.12679e-19)
(3.20592 -9.32262 1.58452e-20)
(3.04737 -8.84902 1.46737e-21)
(2.89576 -8.39673 2.39908e-20)
(2.75103 -7.9654 3.77994e-20)
(2.61307 -7.55461 -7.16275e-20)
(2.48179 -7.16392 5.92403e-20)
(2.35706 -6.79286 9.13968e-21)
(2.23875 -6.44092 4.94803e-20)
(2.12671 -6.10756 -2.65992e-20)
(2.02078 -5.79219 3.97972e-20)
(1.9208 -5.49417 -4.03416e-20)
(1.82659 -5.21281 3.7031e-20)
(1.73792 -4.94735 3.86903e-21)
(1.6546 -4.697 -2.29656e-20)
(1.57634 -4.46092 -6.38259e-21)
(1.50287 -4.23825 3.84846e-20)
(1.43415 -4.02802 -5.83658e-21)
(1.37043 -3.82915 6.82112e-21)
(1.3092 -3.64153 -3.95033e-21)
(6.28749 -15.814 4.65965e-20)
(5.58819 -15.2043 9.40204e-20)
(5.32007 -14.4886 3.58483e-19)
(5.09957 -13.7945 -5.70132e-19)
(4.8636 -13.1414 -4.95473e-20)
(4.63626 -12.5155 -5.48258e-20)
(4.41923 -11.9132 2.47714e-20)
(4.2102 -11.3338 2.83033e-20)
(4.0088 -10.7769 6.56796e-20)
(3.81504 -10.2423 -1.09865e-19)
(3.62891 -9.72956 -1.59722e-20)
(3.45039 -9.23859 5.59903e-20)
(3.27943 -8.76909 5.29364e-20)
(3.11599 -8.32076 -5.35288e-20)
(2.95997 -7.89322 -4.5323e-20)
(2.81129 -7.48606 7.72882e-20)
(2.66982 -7.09887 4.4962e-20)
(2.53543 -6.73115 -1.28992e-20)
(2.40797 -6.38242 -2.62493e-20)
(2.28728 -6.05215 4.0196e-21)
(2.1732 -5.73974 -5.19672e-20)
(2.06554 -5.44459 5.99479e-20)
(1.9641 -5.166 -3.91191e-20)
(1.86866 -4.90324 -9.17968e-22)
(1.77899 -4.65552 2.33137e-20)
(1.69479 -4.42199 -6.80286e-21)
(1.61576 -4.20181 -1.90579e-20)
(1.54185 -3.99397 3.3062e-21)
(1.47331 -3.79737 -7.44708e-22)
(1.40747 -3.61198 3.15128e-21)
(6.69898 -15.6451 -3.72754e-20)
(5.98471 -15.0553 -1.01894e-19)
(5.69861 -14.348 -4.129e-19)
(5.4605 -13.6606 1.48118e-19)
(5.20778 -13.0142 -3.86697e-20)
(4.96424 -12.3945 1.30047e-19)
(4.73153 -11.7978 9.60114e-21)
(4.50735 -11.2239 -1.23983e-19)
(4.29135 -10.6722 4.42861e-21)
(4.08356 -10.1425 -1.55136e-19)
(3.88398 -9.63455 -3.35297e-21)
(3.69258 -9.14819 3.26899e-20)
(3.50931 -8.68313 -5.35978e-20)
(3.33413 -8.23905 5.56047e-20)
(3.16694 -7.81561 -1.0223e-19)
(3.00762 -7.41238 -1.90052e-20)
(2.85605 -7.02895 5.70617e-20)
(2.71208 -6.66484 1.44714e-21)
(2.57555 -6.31956 -2.84656e-20)
(2.44629 -5.9926 7.77063e-20)
(2.32413 -5.68338 -4.1644e-20)
(2.20886 -5.39129 -5.04838e-20)
(2.10027 -5.11568 1.57136e-20)
(1.99814 -4.8558 -4.30881e-20)
(1.90219 -4.61087 -9.09536e-21)
(1.81213 -4.38007 -6.0376e-22)
(1.72763 -4.16254 -2.32387e-20)
(1.64862 -3.95726 2.80928e-20)
(1.57533 -3.76308 -9.10931e-21)
(1.50496 -3.58009 1.46239e-20)
(7.10595 -15.4654 -1.68638e-19)
(6.37728 -14.896 -4.07487e-19)
(6.07349 -14.1976 1.76948e-19)
(5.81794 -13.5173 -1.60519e-19)
(5.54865 -12.8781 -1.07788e-19)
(5.28907 -12.2649 -5.5409e-20)
(5.0408 -11.6744 -2.04065e-19)
(4.8016 -11.1062 1.33629e-19)
(4.57112 -10.5601 -2.22222e-19)
(4.34942 -10.0357 -2.91565e-19)
(4.1365 -9.53289 4.03717e-20)
(3.93232 -9.05147 5.69841e-20)
(3.73686 -8.59116 -3.40037e-21)
(3.55004 -8.15167 -9.46884e-20)
(3.37176 -7.73262 2.15136e-20)
(3.20191 -7.33361 -7.35556e-20)
(3.04033 -6.95421 -4.83599e-20)
(2.88687 -6.59396 -2.55505e-20)
(2.74136 -6.25237 -2.43996e-21)
(2.60362 -5.92895 4.52856e-20)
(2.47345 -5.62313 5.86735e-20)
(2.35065 -5.33432 -1.65673e-20)
(2.235 -5.06186 -1.4383e-20)
(2.12624 -4.80505 2.77757e-20)
(2.02411 -4.5631 1.43188e-20)
(1.92827 -4.3352 -1.12955e-20)
(1.83838 -4.12047 -1.15288e-20)
(1.75435 -3.91791 1.62786e-21)
(1.67642 -3.72631 9.24212e-21)
(1.6016 -3.54587 -1.33896e-20)
(7.50812 -15.2753 -2.39926e-20)
(6.76567 -14.7267 5.05758e-19)
(6.44445 -14.0376 3.56904e-19)
(6.17168 -13.3649 2.581e-19)
(5.88599 -12.7331 -1.63715e-19)
(5.61052 -12.1269 -3.09859e-20)
(5.34684 -11.5428 2.96314e-20)
(5.09274 -10.9809 1.67269e-19)
(4.84792 -10.4406 5.81105e-20)
(4.61242 -9.92196 8.16408e-20)
(4.38628 -9.42463 -1.74467e-19)
(4.16945 -8.94848 1.94803e-20)
(3.96191 -8.49326 6.36742e-20)
(3.76356 -8.05865 3.5105e-20)
(3.57431 -7.64429 6.59527e-20)
(3.39402 -7.24978 -4.73493e-20)
(3.22253 -6.87468 -3.79777e-20)
(3.05968 -6.51855 9.00976e-21)
(2.90528 -6.1809 7.27501e-20)
(2.75914 -5.86124 -1.12159e-19)
(2.62105 -5.55903 3.83925e-20)
(2.49081 -5.27369 1.13027e-22)
(2.36817 -5.00459 6.15883e-20)
(2.25288 -4.75102 -2.66964e-20)
(2.14464 -4.51223 -1.98256e-21)
(2.04311 -4.28739 -1.46358e-20)
(1.94791 -4.07564 -1.24667e-20)
(1.85896 -3.87595 2.56253e-21)
(1.77647 -3.68708 -2.68807e-20)
(1.69731 -3.50936 3.86381e-20)
(7.90522 -15.0747 -5.80671e-19)
(7.14959 -14.5472 -3.03852e-19)
(6.81126 -13.868 -7.22779e-19)
(6.52147 -13.2032 -2.98667e-19)
(6.21957 -12.5794 2.70602e-19)
(5.92838 -11.9805 -1.42955e-19)
(5.64943 -11.4033 -2.78406e-20)
(5.38058 -10.8479 -8.1529e-20)
(5.12154 -10.314 1.37217e-19)
(4.87239 -9.80132 -1.17555e-19)
(4.63315 -9.30983 1.32646e-20)
(4.4038 -8.83929 -4.82463e-21)
(4.18429 -8.38948 -1.4641e-19)
(3.97454 -7.96007 5.34163e-22)
(3.77442 -7.5507 3.93316e-20)
(3.58381 -7.16096 -3.36883e-21)
(3.40252 -6.79043 -1.1975e-19)
(3.23037 -6.43866 1.11066e-19)
(3.06718 -6.10519 -1.01629e-19)
(2.91273 -5.78951 3.82661e-20)
(2.76683 -5.49113 5.16669e-21)
(2.62922 -5.20946 1.96166e-21)
(2.49968 -4.9439 -3.38099e-20)
(2.37793 -4.69376 3.16103e-20)
(2.26367 -4.45828 -1.3126e-20)
(2.15653 -4.23667 1.30355e-20)
(2.05612 -4.02807 -6.68436e-20)
(1.96235 -3.83141 1.91371e-20)
(1.8754 -3.64543 1.86103e-20)
(1.79201 -3.47058 1.68134e-20)
(8.29697 -14.8638 1.11776e-18)
(7.52882 -14.3579 3.2605e-19)
(7.17368 -13.6889 1.80872e-19)
(6.86708 -13.0325 2.78924e-19)
(6.54917 -12.4169 -3.01667e-20)
(6.24241 -11.8258 1.80441e-19)
(5.94835 -11.2559 3.7364e-19)
(5.6649 -10.7074 -4.95207e-20)
(5.39179 -10.1801 1.75483e-20)
(5.12913 -9.67387 3.56804e-19)
(4.87693 -9.18855 3.23986e-19)
(4.63519 -8.72397 4.35185e-20)
(4.40385 -8.27987 -1.23823e-20)
(4.18282 -7.85597 4.86527e-21)
(3.97197 -7.45187 1.89677e-19)
(3.77114 -7.06719 7.23323e-21)
(3.58016 -6.7015 1.75264e-19)
(3.39884 -6.35434 -2.3928e-20)
(3.22695 -6.02527 -3.31489e-20)
(3.06429 -5.71381 7.47725e-20)
(2.91064 -5.41945 -6.30891e-20)
(2.76577 -5.14166 -6.61467e-20)
(2.62941 -4.87982 -5.3632e-21)
(2.50128 -4.63328 -2.5085e-20)
(2.38108 -4.40129 3.80268e-20)
(2.26843 -4.18308 4.39707e-21)
(2.16291 -3.97778 -1.2941e-20)
(2.0644 -3.78431 8.82618e-21)
(1.9731 -3.60137 4.63643e-20)
(1.88559 -3.42955 6.08849e-21)
(8.68312 -14.6427 -1.92904e-19)
(7.90311 -14.1588 -3.37709e-19)
(7.53148 -13.5004 1.25129e-19)
(7.2083 -12.8528 -4.95082e-19)
(6.87456 -12.2459 2.15556e-19)
(6.55242 -11.6629 -3.73623e-19)
(6.24342 -11.1006 -2.2173e-19)
(5.94552 -10.5594 6.13593e-20)
(5.6585 -10.0391 4.55934e-20)
(5.38247 -9.53967 -2.56187e-19)
(5.11746 -9.06087 3.551e-20)
(4.86347 -8.60257 3.3803e-20)
(4.62043 -8.16451 -1.1447e-19)
(4.38825 -7.7464 -4.1529e-20)
(4.1668 -7.34788 -2.54194e-20)
(3.95589 -6.96853 -2.47139e-20)
(3.75534 -6.60793 -9.50942e-20)
(3.56493 -6.26564 -5.36926e-20)
(3.38445 -5.94121 -1.06491e-20)
(3.21368 -5.63418 4.15628e-20)
(3.05238 -5.34406 5.12172e-20)
(2.90032 -5.07032 -5.43822e-20)
(2.75723 -4.81239 1.88053e-20)
(2.62282 -4.56962 -3.77207e-20)
(2.49677 -4.3413 3.24593e-20)
(2.3787 -4.12664 -4.26869e-20)
(2.26816 -3.92481 1.15406e-20)
(2.16503 -3.73469 -1.97622e-20)
(2.06948 -3.55495 -2.55629e-20)
(1.97797 -3.38632 -2.22094e-21)
(9.06342 -14.4116 -4.04039e-19)
(8.27221 -13.9501 -3.05552e-19)
(7.88444 -13.3027 -2.72614e-19)
(7.5449 -12.6643 -1.78207e-19)
(7.19553 -12.0664 5.50545e-19)
(6.85819 -11.4918 6.69704e-20)
(6.53442 -10.9376 2.05487e-19)
(6.22224 -10.404 2.91157e-19)
(5.92146 -9.89115 1.25391e-19)
(5.63222 -9.3988 -1.68171e-19)
(5.35456 -8.92686 2.36907e-19)
(5.08846 -8.47516 7.25165e-20)
(4.83388 -8.04347 1.95417e-19)
(4.5907 -7.63146 1.96804e-20)
(4.35877 -7.23878 4.3895e-20)
(4.13791 -6.86504 1.49563e-20)
(3.9279 -6.50979 -2.85228e-21)
(3.72853 -6.1726 -5.32444e-21)
(3.53957 -5.85304 1.81822e-20)
(3.36078 -5.55065 5.70606e-20)
(3.19193 -5.26497 -6.19536e-20)
(3.03277 -4.99548 4.53327e-20)
(2.88304 -4.74164 8.84554e-22)
(2.74243 -4.50282 1.84113e-20)
(2.61063 -4.27833 3.16404e-20)
(2.48722 -4.0674 -5.47046e-21)
(2.37175 -3.86918 2.8689e-20)
(2.2641 -3.68258 3.84194e-20)
(2.16442 -3.50619 -4.20084e-20)
(2.06903 -3.34091 -2.13495e-20)
(9.43762 -14.1707 1.15217e-18)
(8.63592 -13.7319 -1.16603e-19)
(8.23235 -13.0959 2.15336e-19)
(7.87666 -12.467 3.61682e-19)
(7.51186 -11.8785 -9.79854e-19)
(7.15951 -11.3127 9.98021e-20)
(6.82114 -10.7669 -3.22031e-19)
(6.49486 -10.2414 2.96375e-19)
(6.18049 -9.73623 -2.2808e-19)
(5.87821 -9.25134 1.03856e-19)
(5.58805 -8.78659 -3.80666e-19)
(5.31002 -8.34183 2.25291e-20)
(5.04404 -7.9168 -3.6401e-19)
(4.79001 -7.5112 1.55512e-19)
(4.54775 -7.12465 7.71417e-20)
(4.31706 -6.75676 1.068e-19)
(4.09772 -6.40712 -1.08249e-19)
(3.88951 -6.07528 -6.84794e-21)
(3.69218 -5.76081 6.4958e-21)
(3.50548 -5.46328 1.82996e-20)
(3.32918 -5.18223 -1.07191e-19)
(3.16302 -4.91719 -2.35493e-21)
(3.00672 -4.66761 -5.34361e-20)
(2.86 -4.43291 -1.19641e-20)
(2.72252 -4.21241 -2.91371e-20)
(2.59386 -4.00536 -2.99476e-20)
(2.47357 -3.81093 -2.88576e-20)
(2.3615 -3.628 4.89247e-20)
(2.25779 -3.45513 1.23234e-20)
(2.15865 -3.29336 -2.04629e-20)
(9.80551 -13.9201 -7.67139e-19)
(8.99404 -13.5043 2.48979e-19)
(8.57498 -12.8801 -3.86246e-19)
(8.20337 -12.261 5.4893e-20)
(7.82334 -11.6822 5.42999e-19)
(7.45616 -11.1257 -2.65119e-19)
(7.10339 -10.5886 -2.48548e-19)
(6.76318 -10.0715 -2.04965e-19)
(6.43541 -9.57447 1.23242e-20)
(6.12026 -9.09738 1.18813e-19)
(5.81778 -8.64015 -7.54485e-20)
(5.52797 -8.20264 8.8739e-21)
(5.25077 -7.78458 1.50887e-19)
(4.98603 -7.38567 8.81762e-20)
(4.73358 -7.00553 2.09981e-20)
(4.49322 -6.64378 -6.92603e-20)
(4.26469 -6.29998 2.61804e-20)
(4.04776 -5.97372 5.21062e-20)
(3.84217 -5.66457 5.202e-20)
(3.64767 -5.3721 -5.60334e-20)
(3.46401 -5.09588 8.64862e-21)
(3.29093 -4.83546 4.21003e-20)
(3.12815 -4.59032 6.8331e-20)
(2.97539 -4.35991 1.551e-20)
(2.83232 -4.14356 -6.45075e-20)
(2.6985 -3.94056 7.08455e-20)
(2.57348 -3.75008 -3.49423e-20)
(2.45708 -3.57098 -3.89522e-20)
(2.34946 -3.40179 -2.28043e-20)
(2.24671 -3.2437 -2.63114e-20)
(10.1669 -13.6599 3.97194e-19)
(9.34638 -13.2675 -2.78327e-19)
(8.91215 -12.6554 1.11121e-19)
(8.52481 -12.0465 4.94084e-19)
(8.12975 -11.4778 1.24707e-19)
(7.74795 -10.9309 -9.74622e-20)
(7.38096 -10.4029 2.30013e-19)
(7.02702 -9.89453 6.12279e-20)
(6.68603 -9.40595 1.87167e-19)
(6.35819 -8.93701 9.59962e-20)
(6.04357 -8.48764 6.51184e-21)
(5.74217 -8.05768 5.25331e-20)
(5.4539 -7.6469 -1.54902e-20)
(5.17863 -7.25497 -1.26722e-19)
(4.91616 -6.88151 -1.93155e-20)
(4.66625 -6.52613 -3.28296e-20)
(4.42868 -6.18843 7.61612e-20)
(4.20316 -5.86798 7.18558e-20)
(3.98943 -5.56436 -7.71852e-20)
(3.78724 -5.27716 7.77212e-20)
(3.59632 -5.00596 1.51419e-19)
(3.4164 -4.75033 -9.38361e-20)
(3.24723 -4.5098 8.79212e-20)
(3.0885 -4.28383 -6.03275e-20)
(2.9399 -4.0718 -7.71215e-21)
(2.801 -3.87301 5.69626e-20)
(2.67132 -3.68665 -1.20438e-20)
(2.55069 -3.51155 3.89452e-20)
(2.43927 -3.34621 3.67738e-20)
(2.33304 -3.19197 -6.43633e-20)
(10.5217 -13.3903 -3.78062e-19)
(9.69275 -13.0217 1.68773e-19)
(9.24364 -12.4219 5.75572e-20)
(8.84078 -11.8235 -5.6973e-19)
(8.43088 -11.2652 -2.69424e-19)
(8.03466 -10.7283 1.8928e-19)
(7.65366 -10.2098 -4.8957e-19)
(7.28618 -9.71056 5.53456e-19)
(6.93216 -9.23077 -2.93571e-19)
(6.59183 -8.77032 3.30162e-20)
(6.26526 -8.32913 -5.51641e-20)
(5.95245 -7.90705 -1.32519e-19)
(5.6533 -7.50384 2.64551e-19)
(5.36766 -7.11916 8.86897e-20)
(5.09533 -6.75265 1.13852e-19)
(4.83606 -6.40391 2.78334e-21)
(4.58957 -6.07253 4.41189e-20)
(4.3556 -5.75811 -8.88989e-20)
(4.13386 -5.46023 1.91773e-20)
(3.92408 -5.17849 5.48855e-20)
(3.726 -4.91249 -2.27629e-20)
(3.53933 -4.66182 3.25113e-20)
(3.36383 -4.42605 -6.3155e-20)
(3.1992 -4.20468 8.60288e-20)
(3.04513 -3.99712 1.7245e-20)
(2.9012 -3.8027 -5.06085e-20)
(2.76694 -3.62063 -4.00883e-20)
(2.64217 -3.44972 1.75121e-21)
(2.52703 -3.28841 5.23384e-20)
(2.41744 -3.13823 -1.07158e-20)
(10.8697 -13.1115 -9.94518e-20)
(10.033 -12.7669 -6.26605e-19)
(9.56923 -12.1797 7.22809e-19)
(9.15105 -11.5921 4.54681e-19)
(8.72653 -11.0447 4.16539e-19)
(8.31608 -10.518 1.00124e-19)
(7.92127 -10.0094 1.51713e-19)
(7.54046 -9.51969 7.14613e-20)
(7.17363 -9.04905 -2.64776e-19)
(6.82101 -8.59742 4.66194e-19)
(6.48269 -8.16473 -3.3858e-19)
(6.15866 -7.75083 -1.48249e-20)
(5.84882 -7.35547 4.86341e-20)
(5.55301 -6.97833 -1.76162e-19)
(5.27099 -6.61903 2.69499e-19)
(5.0025 -6.27717 4.86258e-20)
(4.74726 -5.95236 -1.01153e-19)
(4.50498 -5.64417 3.45691e-20)
(4.27536 -5.35223 -6.75968e-20)
(4.05811 -5.07613 -5.56386e-20)
(3.85295 -4.81549 -5.47679e-20)
(3.65962 -4.56994 1.19902e-20)
(3.47785 -4.33908 4.80272e-21)
(3.30736 -4.12244 -1.16001e-19)
(3.14786 -3.9195 -4.0016e-20)
(2.99895 -3.72961 2.73005e-20)
(2.86015 -3.55201 3.04762e-20)
(2.73128 -3.38547 -4.08742e-20)
(2.61249 -3.22839 -1.44465e-20)
(2.49963 -3.08243 1.09591e-21)
(11.2111 -12.8236 -1.02913e-19)
(10.367 -12.5032 4.06386e-19)
(9.8887 -11.9289 -1.12297e-19)
(9.4554 -11.3525 -1.3365e-19)
(9.01645 -10.8162 -6.42324e-19)
(8.59199 -10.3003 -1.22134e-19)
(8.18359 -9.80186 2.36324e-19)
(7.78967 -9.32201 -1.41645e-19)
(7.41023 -8.86088 -1.1319e-20)
(7.04554 -8.41841 -2.67071e-20)
(6.69569 -7.99455 1.25932e-19)
(6.36065 -7.58913 -1.93777e-19)
(6.04033 -7.20191 -1.19233e-19)
(5.73452 -6.83256 1.30891e-19)
(5.443 -6.48072 -6.92588e-20)
(5.16548 -6.14599 3.30617e-20)
(4.90165 -5.82795 3.02998e-21)
(4.65121 -5.52622 -2.46106e-20)
(4.41383 -5.24039 8.07691e-20)
(4.18924 -4.97011 -7.30748e-20)
(3.97712 -4.715 -5.37906e-20)
(3.7772 -4.47471 4.51325e-20)
(3.58921 -4.24887 -5.96489e-21)
(3.4129 -4.03709 -3.0259e-20)
(3.24799 -3.83889 2.53723e-20)
(3.09409 -3.65368 -7.36874e-20)
(2.95077 -3.48072 4.47314e-20)
(2.81784 -3.31876 -6.96972e-22)
(2.69543 -3.16611 -4.13773e-20)
(2.57943 -3.02445 5.52284e-20)
(11.5465 -12.5272 3.5143e-19)
(10.695 -12.231 -8.16107e-19)
(10.2019 -11.6696 -5.67355e-20)
(9.75356 -11.1046 3.26566e-19)
(9.30041 -10.5798 -7.73381e-20)
(8.86215 -10.075 -2.00976e-19)
(8.44037 -9.58724 9.04763e-20)
(8.03357 -9.11763 9.4197e-20)
(7.64177 -8.66636 6.67152e-21)
(7.26525 -8.23339 1.01859e-19)
(6.90409 -7.81867 3.00289e-19)
(6.55827 -7.42203 -1.06248e-19)
(6.22767 -7.04324 2.15056e-20)
(5.91208 -6.68196 -5.50739e-20)
(5.61125 -6.33782 2.14451e-19)
(5.32488 -6.01043 -3.50781e-20)
(5.05263 -5.6994 5.05691e-20)
(4.79419 -5.40431 -7.96472e-20)
(4.54922 -5.1248 4.06453e-20)
(4.3174 -4.86048 5.75779e-20)
(4.09842 -4.61103 8.61951e-21)
(3.89199 -4.37611 3.43245e-20)
(3.69785 -4.15541 -2.64839e-20)
(3.51574 -3.94858 7.24558e-20)
(3.3454 -3.75521 -2.81975e-20)
(3.1865 -3.5748 9.74708e-20)
(3.03863 -3.40668 -2.79992e-20)
(2.90164 -3.24955 1.76944e-20)
(2.77569 -3.10157 -3.23469e-20)
(2.65675 -2.96462 5.34523e-20)
(11.8769 -12.2228 -7.9832e-19)
(11.0173 -11.9499 3.01773e-20)
(10.5087 -11.4015 -3.68469e-19)
(10.0453 -10.8484 6.38226e-20)
(9.57812 -10.3357 1.51493e-20)
(9.12631 -9.84246 -2.65253e-19)
(8.69141 -9.36572 -4.64744e-19)
(8.27198 -8.90672 2.19122e-19)
(7.86807 -8.46566 -2.97499e-19)
(7.47995 -8.04252 -1.42181e-19)
(7.10772 -7.63724 -7.41338e-20)
(6.75135 -7.24968 -5.37302e-20)
(6.41071 -6.87958 -1.05145e-21)
(6.08556 -6.52661 -1.79019e-19)
(5.77563 -6.19042 1.03177e-19)
(5.4806 -5.8706 -1.67789e-19)
(5.20012 -5.56677 -3.8547e-20)
(4.93386 -5.27852 4.309e-20)
(4.68144 -5.00548 -1.71475e-20)
(4.44254 -4.74728 4.4387e-20)
(4.21682 -4.50362 3.17083e-20)
(4.00398 -4.27416 -7.69334e-20)
(3.80373 -4.05865 7.38101e-20)
(3.61582 -3.85679 -7.98113e-21)
(3.43999 -3.66828 -1.82232e-20)
(3.27596 -3.49276 -6.75679e-20)
(3.12341 -3.32961 -3.36818e-20)
(2.98223 -3.17753 6.09171e-20)
(2.85249 -3.03481 -2.01056e-20)
(2.73047 -2.90418 -1.74766e-20)
(12.2019 -11.9086 3.58521e-19)
(11.3334 -11.6585 3.8715e-20)
(10.8087 -11.1242 -7.50806e-20)
(10.3302 -10.5841 -8.4682e-21)
(9.84939 -10.0841 -1.07321e-19)
(9.38434 -9.60289 3.58118e-19)
(8.9366 -9.13759 -1.58393e-19)
(8.50481 -8.68954 1.03761e-19)
(8.08904 -8.25903 4.33601e-20)
(7.68959 -7.84602 1.29011e-19)
(7.30654 -7.45049 -4.15919e-20)
(6.93986 -7.07227 2.38549e-19)
(6.58939 -6.71112 -1.91419e-20)
(6.2549 -6.36671 1.33369e-19)
(5.93608 -6.03868 -2.07953e-19)
(5.6326 -5.72664 -1.03121e-20)
(5.34409 -5.4302 1.21721e-19)
(5.07017 -5.14895 -6.9701e-20)
(4.81049 -4.88254 2.6843e-20)
(4.56467 -4.63061 4.36298e-20)
(4.33235 -4.39282 -5.82066e-20)
(4.11321 -4.16889 6.60315e-20)
(3.90692 -3.95856 -5.51598e-20)
(3.7132 -3.7616 1.30694e-20)
(3.53176 -3.57782 4.21423e-20)
(3.36234 -3.40698 2.73201e-20)
(3.20468 -3.24858 2.42822e-20)
(3.05855 -3.10151 1.68412e-20)
(2.92336 -2.96503 -4.58574e-20)
(2.79658 -2.84235 -1.69159e-20)
(17.0879 0.207112 4.40623e-21)
(17.0828 -0.243309 4.04228e-20)
(17.0664 -0.691817 1.40472e-19)
(17.0398 -1.13881 7.52637e-20)
(17.0024 -1.58443 -1.6591e-19)
(16.9535 -2.02857 4.95289e-20)
(16.8932 -2.47105 -4.97728e-20)
(16.8214 -2.91163 -1.28676e-19)
(16.7382 -3.35009 7.22693e-20)
(16.6436 -3.78614 -8.22312e-20)
(16.5376 -4.21951 -7.74881e-20)
(16.4203 -4.64992 -1.72847e-19)
(16.2918 -5.07708 -5.02214e-19)
(16.1522 -5.50069 4.74672e-20)
(16.0016 -5.92049 -1.07451e-20)
(15.8401 -6.33618 -1.71644e-19)
(15.6678 -6.74748 3.39959e-19)
(15.4849 -7.15412 1.92915e-19)
(15.2914 -7.55583 3.52513e-19)
(15.0876 -7.95234 1.6819e-19)
(14.8735 -8.34339 -4.09298e-19)
(14.6494 -8.72872 1.93063e-20)
(14.4153 -9.10808 -7.75533e-19)
(14.1715 -9.48124 1.18274e-18)
(13.9181 -9.84798 -3.81296e-19)
(13.6553 -10.2081 -5.18541e-19)
(13.3834 -10.5614 -7.60912e-20)
(13.1028 -10.9078 -1.09642e-20)
(12.8129 -11.2478 -4.08095e-19)
(12.5165 -11.5801 7.09754e-19)
(16.3426 -0.230801 1.46191e-20)
(16.3276 -0.660541 2.00902e-20)
(16.3011 -1.08839 3.21841e-21)
(16.2636 -1.51459 -1.86732e-19)
(16.2154 -1.93928 -1.66246e-19)
(16.1561 -2.36232 1.45267e-19)