/*--------------------------------*- C++ -*----------------------------------*\
  =========                 |
  \\      /  F ield         | OpenFOAM: The Open Source CFD Toolbox
   \\    /   O peration     | Website:  https://openfoam.org
    \\  /    A nd           | Version:  6.0
     \\/     M anipulation  |
\*---------------------------------------------------------------------------*/
FoamFile
{
    version     2.0;
    format      ascii;
    class       volVectorField;
    location    "17";
    object      U;
}
// * * * * * * * * * * * * * * * * * * * * * * * * * * * * * * * * * * * * * //

dimensions      [0 1 -1 0 0 0 0];

internalField   nonuniform List<vector> 
2400
(
(3.19958 -14.1599 -1.11968e-18)
(0.608094 -14.1404 4.03449e-19)
(0.930897 -14.0167 -3.49287e-19)
(1.26249 -13.5892 -1.96837e-19)
(1.37436 -13.0723 -2.88254e-19)
(1.44424 -12.5483 3.85567e-19)
(1.51047 -12.0622 1.34984e-19)
(1.57241 -11.6346 2.11589e-19)
(1.64333 -11.2681 -2.26695e-19)
(1.70117 -10.9607 -1.32697e-20)
(4.34463 -14.0032 1.27721e-18)
(1.75183 -14.2876 -6.45084e-20)
(2.04591 -14.1448 2.29115e-19)
(2.32341 -13.6718 1.88164e-18)
(2.38025 -13.1276 -1.27174e-18)
(2.39929 -12.5878 -6.59541e-20)
(2.41996 -12.0942 -1.34116e-20)
(2.44424 -11.6641 -1.89596e-20)
(2.48563 -11.2976 -1.91863e-19)
(2.50648 -10.9981 -2.55274e-20)
(5.48224 -13.7546 2.25293e-18)
(2.91334 -14.3339 1.70126e-18)
(3.17528 -14.1712 -4.26851e-18)
(3.39111 -13.6569 1.23431e-18)
(3.38748 -13.0911 1.70772e-18)
(3.35198 -12.5412 -9.47937e-19)
(3.3248 -12.0447 -7.03799e-19)
(3.31052 -11.6146 -3.09387e-19)
(3.32078 -11.2486 -6.18366e-19)
(3.29855 -10.9574 1.01072e-18)
(6.60168 -13.4098 -7.78154e-18)
(4.08287 -14.2732 2.74843e-18)
(4.30866 -14.0917 -2.5091e-18)
(4.45651 -13.5427 1.08608e-18)
(4.38843 -12.9624 -1.10266e-18)
(4.29594 -12.4086 1.53099e-18)
(4.21979 -11.9143 6.1283e-19)
(4.16755 -11.4882 -2.14864e-18)
(4.14707 -11.128 -1.57038e-18)
(4.07964 -10.8579 1.71568e-18)
(7.69451 -12.968 4.47249e-19)
(5.24914 -14.1035 -1.06357e-18)
(5.43541 -13.9053 -4.06712e-19)
(5.5102 -13.3291 -5.05979e-19)
(5.37515 -12.7422 -2.69014e-18)
(5.22441 -12.1915 4.0667e-19)
(5.09829 -11.7042 -2.34393e-19)
(5.00633 -11.2847 2.20918e-18)
(4.95055 -10.9333 -1.08741e-18)
(4.83138 -10.6914 -7.8004e-19)
(8.75015 -12.4278 3.72672e-18)
(6.40051 -13.8218 3.81477e-19)
(6.54354 -13.6098 6.88933e-18)
(6.54101 -13.0149 -8.72998e-19)
(6.3379 -12.4307 3.26853e-18)
(6.13023 -11.8917 -3.66012e-19)
(5.95649 -11.4185 -2.09946e-21)
(5.8254 -11.0104 1.835e-18)
(5.7297 -10.6731 -9.82632e-19)
(5.55319 -10.4683 2.33758e-18)
(9.75997 -11.7911 -2.66157e-18)
(7.52636 -13.4284 3.25363e-18)
(7.62195 -13.2053 -1.88367e-18)
(7.53714 -12.5994 -1.67265e-18)
(7.26354 -12.0262 -3.83856e-20)
(6.99968 -11.5074 4.91186e-18)
(6.78291 -11.0563 -1.71815e-18)
(6.61864 -10.6662 6.43251e-19)
(6.48509 -10.3485 -2.421e-18)
(6.25115 -10.183 -1.70867e-18)
(10.7161 -11.0613 1.09849e-17)
(8.61822 -12.9246 -2.17992e-18)
(8.66222 -12.6924 1.55653e-18)
(8.48974 -12.0819 4.83179e-19)
(8.14028 -11.5257 1.63642e-18)
(7.8151 -11.0323 -2.31034e-18)
(7.55388 -10.6084 -2.70379e-18)
(7.3628 -10.2439 3.98552e-18)
(7.20684 -9.96015 -3.62564e-19)
(6.93779 -9.85764 -2.74402e-18)
(11.6124 -10.2436 -8.91873e-18)
(9.66958 -12.3145 4.19143e-18)
(9.65952 -12.0749 -2.44756e-18)
(9.39661 -11.4648 1.37284e-18)
(8.96682 -10.928 -4.66046e-18)
(8.57022 -10.4591 2.81139e-18)
(8.2469 -10.0602 1.54801e-18)
(8.0083 -9.72561 3.03475e-18)
(7.82168 -9.5012 -1.85508e-18)
(7.53841 -9.51881 -2.28712e-18)
(12.4417 -9.34298 2.85889e-18)
(10.6735 -11.6031 -1.08131e-18)
(10.6098 -11.3584 5.25257e-18)
(10.2587 -10.7528 5.5928e-18)
(9.75274 -10.2357 9.62058e-19)
(9.28518 -9.78659 -7.09197e-19)
(8.88447 -9.40664 -1.25875e-18)
(8.54783 -9.10555 1.85597e-18)
(8.2394 -8.96433 -1.5374e-18)
(7.86102 -9.11863 1.22411e-18)
(16.1582 2.46049 1.53659e-19)
(16.2059 1.16495 4.78441e-19)
(16.15 -0.125217 -1.52366e-18)
(15.9957 -1.40173 1.11598e-18)
(15.7463 -2.65683 5.41838e-19)
(15.4059 -3.88354 7.25011e-18)
(14.9767 -5.07462 -2.84191e-18)
(14.4638 -6.22345 -4.19418e-18)
(13.8677 -7.32279 1.05961e-17)
(13.1954 -8.36558 -8.37096e-18)
(16.6271 -0.651697 4.09338e-19)
(16.4526 -1.93966 -1.84886e-19)
(16.1696 -3.20715 -5.0494e-18)
(15.7836 -4.44511 3.22309e-18)
(15.2994 -5.64444 -1.14159e-18)
(14.7237 -6.79802 8.92965e-18)
(14.0614 -7.89704 -5.82171e-18)
(13.32 -8.93566 8.68244e-18)
(12.5042 -9.90399 -8.45645e-18)
(11.6211 -10.7977 -3.41805e-18)
(16.0483 -0.634883 -7.51532e-19)
(15.9241 -1.86514 6.96789e-20)
(15.6947 -3.08382 -1.73692e-18)
(15.3632 -4.28213 2.51867e-18)
(14.9333 -5.45059 -2.81733e-18)
(14.4105 -6.5812 -5.54823e-18)
(13.7996 -7.66479 -1.97325e-18)
(13.108 -8.69365 -9.35523e-18)
(12.3409 -9.65817 5.68888e-18)
(11.5066 -10.5502 3.33421e-18)
(15.0948 -0.467329 3.0716e-19)
(15.0064 -1.6189 -5.35917e-19)
(14.8206 -2.7653 -9.76032e-19)
(14.5383 -3.89942 -3.06488e-18)
(14.1634 -5.01147 1.98085e-18)
(13.6995 -6.09426 5.67146e-18)
(13.1519 -7.13834 -1.93815e-18)
(12.5269 -8.13601 4.93066e-19)
(11.8311 -9.07775 1.37984e-18)
(11.0729 -9.95387 1.88006e-18)
(14.2591 -0.436205 -3.28316e-19)
(14.1733 -1.51871 -1.29016e-18)
(13.9984 -2.59716 -1.46107e-18)
(13.7322 -3.66831 2.39566e-18)
(13.3813 -4.72019 2.6091e-18)
(12.9458 -5.74961 -1.80861e-18)
(12.4342 -6.74507 -2.71505e-19)
(11.8501 -7.70175 -1.77409e-18)
(11.2027 -8.60897 1.96206e-18)
(10.5013 -9.4578 -5.30399e-18)
(13.5925 -0.406879 7.40334e-20)
(13.4995 -1.43354 1.04221e-18)
(13.3263 -2.45364 -1.58455e-18)
(13.0627 -3.47192 3.02648e-18)
(12.7247 -4.469 1.84737e-18)
(12.3017 -5.45239 1.04093e-18)
(11.8132 -6.40254 -7.63625e-19)
(11.2521 -7.32507 -2.27474e-18)
(10.6394 -8.20072 5.37773e-18)
(9.98012 -9.02573 -5.33847e-19)
(13.051 -0.369496 1.536e-19)
(12.9477 -1.35091 -1.13948e-18)
(12.7774 -2.31954 -1.12335e-18)
(12.5097 -3.29514 -1.59709e-18)
(12.1845 -4.24073 -2.29896e-19)
(11.7621 -5.18719 -2.33594e-18)
(11.2941 -6.09367 -1.56004e-18)
(10.7382 -6.99597 -2.66415e-19)
(10.156 -7.84739 7.11097e-19)
(9.52524 -8.65879 4.51616e-18)
(12.5929 -0.327325 -1.26824e-19)
(12.4756 -1.27406 9.26276e-19)
(12.3149 -2.19751 -1.33061e-18)
(12.0352 -3.14145 9.00453e-19)
(11.7316 -4.03652 2.1902e-18)
(11.2948 -4.95527 3.72844e-18)
(10.8558 -5.81158 -9.94629e-19)
(10.2762 -6.7109 -3.71179e-18)
(9.73316 -7.54545 -1.00396e-18)
(9.1009 -8.37949 -6.91497e-18)
(12.1941 -0.26728 1.77656e-19)
(12.0565 -1.19094 -2.09727e-19)
(11.9153 -2.07891 -1.51857e-18)
(11.6119 -3.00726 6.14752e-19)
(11.3451 -3.85857 -1.48223e-18)
(10.8701 -4.76736 -9.47032e-19)
(10.4803 -5.565 -4.23407e-19)
(9.82069 -6.48735 -5.74942e-18)
(9.34407 -7.29531 1.62484e-18)
(8.6106 -8.2763 1.35477e-18)
(11.845 -0.229274 -3.79409e-19)
(11.6729 -1.13343 1.86102e-19)
(11.5575 -1.99166 3.24563e-19)
(11.2129 -2.91969 8.98053e-19)
(10.9931 -3.74401 -7.54085e-19)
(10.4489 -4.67098 -6.84133e-20)
(10.1178 -5.42551 -2.20161e-18)
(9.30713 -6.40273 2.79199e-18)
(8.91262 -7.14382 -1.97332e-18)
(7.92901 -8.4044 6.13233e-19)
(9.93746 13.4598 -4.7806e-18)
(10.9771 12.6629 4.94943e-18)
(11.94 11.7763 5.32797e-18)
(12.819 10.8076 -8.20314e-18)
(13.6063 9.76416 5.88853e-18)
(14.2958 8.65426 -4.04629e-18)
(14.8821 7.48723 -9.06525e-19)
(15.3631 6.27408 -8.42103e-19)
(15.7358 5.02473 1.35326e-18)
(16.002 3.75096 9.55264e-20)
(12.232 10.8936 5.49907e-18)
(13.1234 10.0003 1.07809e-18)
(13.9313 9.02697 -7.29025e-18)
(14.6474 7.98025 -5.39669e-18)
(15.2636 6.86708 4.35096e-18)
(15.7744 5.69562 -3.44809e-18)
(16.1742 4.47651 3.79703e-18)
(16.4613 3.2205 -1.06486e-18)
(16.6321 1.94 -3.15376e-18)
(16.6884 0.644982 -2.20987e-19)
(11.5908 10.0557 -8.26411e-19)
(12.4459 9.2525 -6.66103e-19)
(13.2268 8.37313 -7.62719e-18)
(13.9252 7.42123 5.67757e-18)
(14.5337 6.40179 5.75176e-18)
(15.0466 5.32177 1.80484e-18)
(15.4591 4.1911 -1.31216e-18)
(15.7682 3.01968 -2.65904e-18)
(15.9703 1.81818 2.10013e-18)
(16.0643 0.596379 1.46795e-19)
(10.7964 9.33913 1.4522e-18)
(11.5987 8.61516 -3.13795e-18)
(12.3321 7.8217 -1.19296e-18)
(12.9894 6.9587 -2.93446e-18)
(13.5652 6.02959 -8.86827e-18)
(14.0547 5.04095 4.92503e-18)
(14.4547 4.00283 3.03156e-18)
(14.7613 2.92367 -2.55312e-18)
(14.9717 1.81324 1.10039e-19)
(15.0832 0.679428 -1.0588e-19)
(10.3071 8.73434 -4.92281e-18)
(11.0561 8.05939 5.42973e-18)
(11.7356 7.32236 -1.3734e-18)
(12.3397 6.51779 2.69137e-18)
(12.8673 5.64881 1.16807e-18)
(13.3147 4.72303 -2.82323e-18)
(13.6806 3.75177 1.36516e-18)
(13.9601 2.74136 -1.44853e-18)
(14.1516 1.70194 -1.35074e-18)
(14.2509 0.638884 5.6799e-19)
(9.96163 8.27603 -6.72204e-19)
(10.6716 7.63944 1.04066e-18)
(11.3078 6.94605 -1.20963e-18)
(11.8652 6.1831 -5.29464e-18)
(12.3492 5.35734 7.88927e-19)
(12.7571 4.47832 -7.13981e-20)
(13.0908 3.55851 -2.4283e-18)
(13.3417 2.60065 -8.27877e-19)
(13.5122 1.61709 7.25965e-19)
(13.5937 0.60953 -2.03102e-19)
(9.6774 7.91272 -2.69668e-18)
(10.356 7.31672 -2.92106e-20)
(10.9611 6.65913 1.20612e-18)
(11.4814 5.92428 2.99707e-18)
(11.9315 5.1312 6.02281e-19)
(12.3063 4.28972 1.44174e-18)
(12.6146 3.41205 2.70513e-18)
(12.8402 2.49602 -1.15082e-18)
(12.9945 1.55891 9.56027e-19)
(13.0587 0.596446 -3.53053e-19)
(9.43741 7.60965 4.49819e-18)
(10.0654 7.07583 2.3642e-18)
(10.6412 6.44684 1.01477e-18)
(11.1339 5.72765 -1.39274e-18)
(11.562 4.96135 -7.40187e-19)
(11.911 4.15045 -1.6138e-18)
(12.2025 3.3061 1.40786e-19)
(12.4067 2.42133 -3.58419e-19)
(12.5526 1.52218 -2.01104e-18)
(12.6004 0.595237 2.67483e-19)
(9.3379 7.28895 -3.18335e-19)
(9.84659 6.86995 -2.80168e-18)
(10.3584 6.26714 -1.22622e-18)
(10.8179 5.56444 2.95831e-19)
(11.229 4.8334 -1.81039e-19)
(11.5525 4.0548 1.11394e-18)
(11.832 3.24143 5.51508e-19)
(12.0159 2.38245 8.04181e-19)
(12.1621 1.51668 9.35855e-19)
(12.1929 0.618101 -3.78694e-19)
(9.51083 6.82169 2.57867e-18)
(9.86178 6.54766 1.96206e-18)
(10.2267 5.96348 -2.90724e-18)
(10.6193 5.29556 -6.06016e-20)
(10.9998 4.61978 2.39718e-18)
(11.2791 3.88719 9.79937e-20)
(11.534 3.11964 3.07679e-19)
(11.6841 2.2983 -2.03775e-18)
(11.8293 1.4778 -1.56267e-20)
(11.8329 0.613363 1.75191e-19)
(1.30089 9.9949 8.5646e-20)
(1.27324 10.2604 -3.72014e-20)
(1.27621 10.5346 -2.07485e-20)
(1.25668 10.8357 2.58222e-19)
(1.21354 11.187 -1.17376e-19)
(1.15004 11.6339 -4.13256e-19)
(1.08104 12.2803 4.5879e-19)
(1.16219 13.3024 3.17803e-19)
(1.06011 14.6536 2.11789e-19)
(-2.35838 15.8509 3.64497e-19)
(2.11739 9.89065 2.20123e-19)
(2.10587 10.1965 -6.89367e-19)
(2.1226 10.502 6.89281e-19)
(2.12166 10.8293 1.39784e-19)
(2.10423 11.2044 -2.77526e-19)
(2.07571 11.6756 3.21975e-19)
(2.05811 12.347 1.09755e-18)
(2.21814 13.3751 2.32947e-19)
(2.21448 14.7104 2.94678e-20)
(-1.11931 16.0693 -1.59495e-18)
(2.89964 9.83045 8.89484e-19)
(2.91794 10.135 -1.24375e-18)
(2.95927 10.4398 -4.9628e-19)
(2.98745 10.7724 -4.16811e-20)
(3.00386 11.1589 -4.68342e-19)
(3.01592 11.6467 -2.04416e-19)
(3.05347 12.3365 3.48707e-19)
(3.29273 13.3626 2.00789e-18)
(3.38385 14.6722 7.26391e-19)
(0.141146 16.187 -2.53708e-18)
(3.75492 9.58634 8.35261e-19)
(3.77711 9.93482 -1.00399e-18)
(3.82682 10.2725 -9.90323e-19)
(3.87412 10.6296 6.00055e-19)
(3.91866 11.0357 3.01445e-18)
(3.96924 11.5412 -1.16264e-18)
(4.06198 12.2456 9.1219e-19)
(4.3791 13.2624 -1.93981e-18)
(4.56034 14.5382 1.84552e-18)
(1.41466 16.2041 3.8684e-18)
(4.53272 9.42964 6.11868e-19)
(4.58535 9.76051 -4.39038e-19)
(4.66424 10.0858 1.27529e-18)
(4.74709 10.439 -1.12517e-18)
(4.8299 10.8488 8.12509e-19)
(4.92447 11.3625 7.14092e-19)
(5.07518 12.0739 -9.38556e-19)
(5.46914 13.0731 5.07011e-19)
(5.73511 14.3072 2.80175e-18)
(2.69256 16.1192 1.75373e-18)
(5.40035 9.03145 -1.8267e-18)
(5.44297 9.42243 -5.38272e-19)
(5.5264 9.78611 2.23114e-18)
(5.62944 10.1615 -2.44839e-18)
(5.74238 10.5844 -1.14399e-18)
(5.87798 11.1064 -2.7227e-18)
(6.08627 11.8198 -1.69814e-18)
(6.55499 12.7937 -2.7792e-18)
(6.90022 13.9789 -8.20218e-19)
(3.9663 15.9321 -5.32743e-18)
(6.15466 8.75591 2.59573e-18)
(6.2306 9.12683 -4.6277e-18)
(6.34752 9.47268 2.55624e-18)
(6.48808 9.83671 1.33579e-18)
(6.63933 10.2555 -2.84605e-19)
(6.81947 10.7763 2.15744e-18)
(7.08649 11.4837 -2.40779e-18)
(7.6276 12.4239 -2.36781e-18)
(8.04536 13.553 -7.18653e-19)
(5.22638 15.6414 4.91795e-18)
(7.04533 8.18158 -2.25369e-20)
(7.08383 8.65152 2.16756e-18)
(7.18671 9.04958 -1.03818e-18)
(7.3397 9.43177 1.01957e-18)
(7.51994 9.85389 -1.52836e-18)
(7.74238 10.3712 -1.71925e-18)
(8.06745 11.0658 1.09002e-18)
(8.67793 11.964 -2.54883e-18)
(9.16238 13.0303 7.30532e-18)
(6.4637 15.2488 -2.42001e-18)
(7.81569 7.78626 -1.18595e-18)
(7.86855 8.24593 -6.56596e-19)
(7.9802 8.61987 2.92801e-18)
(8.15752 8.98033 -4.15866e-18)
(8.37229 9.38879 8.89625e-19)
(8.63803 9.89369 -2.04974e-18)
(9.01994 10.5675 -7.23571e-19)
(9.69573 11.4149 6.55379e-19)
(10.2389 12.412 -1.22771e-17)
(7.66811 14.7528 9.05744e-18)
(8.75877 7.1494 3.05109e-18)
(8.69097 7.70331 -3.57339e-18)
(8.74245 8.11867 3.48287e-19)
(8.93649 8.47147 -1.11776e-18)
(9.18802 8.86245 -1.92469e-18)
(9.49646 9.34743 1.50717e-18)
(9.93337 9.99113 1.83917e-18)
(10.6707 10.7781 4.73095e-18)
(11.2675 11.6991 5.7624e-18)
(8.82993 14.158 2.87654e-21)
(-4.86972 7.66788 -1.68323e-18)
(-5.12867 7.46846 1.35157e-18)
(-5.33955 7.4308 3.08003e-19)
(-5.54741 7.50531 1.3623e-18)
(-5.79148 7.61987 1.1286e-18)
(-6.09098 7.7714 2.92254e-19)
(-6.49816 8.03782 2.65984e-18)
(-7.04118 8.68859 1.41341e-18)
(-8.05077 9.67197 2.18554e-18)
(-11.8221 8.93454 -1.38855e-18)
(-4.61358 8.07589 9.67284e-19)
(-4.82365 7.96643 1.12282e-18)
(-4.95362 7.9993 -9.8912e-19)
(-5.09916 8.10237 2.78995e-19)
(-5.30412 8.23069 4.94222e-19)
(-5.57944 8.40013 2.80611e-18)
(-5.96542 8.69771 -3.24582e-18)
(-6.46622 9.39422 -3.24326e-18)
(-7.40783 10.4472 -2.46774e-18)
(-11.2023 9.92621 3.52535e-18)
(-4.11013 8.41704 -3.20422e-19)
(-4.33311 8.40735 2.34181e-19)
(-4.45883 8.49608 -2.49663e-18)
(-4.58932 8.6285 1.6709e-18)
(-4.77333 8.78073 9.04757e-19)
(-5.02629 8.97891 -9.9913e-19)
(-5.38613 9.31555 -3.02798e-19)
(-5.83709 10.0604 5.55574e-18)
(-6.70113 11.1786 6.94444e-19)
(-10.4998 10.8698 -2.8587e-18)
(-3.52363 8.74975 -2.42413e-18)
(-3.74157 8.79914 1.55565e-18)
(-3.86818 8.9249 -4.27955e-19)
(-3.99916 9.08651 1.11699e-18)
(-4.17678 9.26982 -6.36993e-19)
(-4.41583 9.50433 -1.22244e-18)
(-4.75126 9.88571 1.05215e-18)
(-5.14922 10.6804 1.25471e-18)
(-5.92961 11.8586 -3.57835e-19)
(-9.71716 11.7581 3.45403e-18)
(-2.92991 9.08232 2.01252e-18)
(-3.12315 9.16847 7.76457e-20)
(-3.23375 9.31747 -1.21928e-18)
(-3.35563 9.49995 1.57622e-20)
(-3.52362 9.71014 2.19388e-19)
(-3.74851 9.97963 2.85335e-19)
(-4.05871 10.4059 2.00315e-18)
(-4.40078 11.2488 -4.45284e-18)
(-5.09313 12.4803 2.87729e-19)
(-8.85659 12.583 -4.42377e-18)
(-2.29841 9.35103 -6.36244e-20)
(-2.46687 9.47851 1.59858e-18)
(-2.56003 9.65543 -1.51603e-18)
(-2.66923 9.86151 1.52856e-19)
(-2.82322 10.0991 -3.04026e-19)
(-3.03011 10.4029 1.82259e-18)
(-3.31129 10.8731 1.28015e-18)
(-3.59329 11.7606 2.26963e-19)
(-4.19343 13.0371 7.07323e-19)
(-7.92198 13.3371 9.12074e-19)
(-1.6406 9.59681 -1.06245e-18)
(-1.78182 9.7585 1.2622e-18)
(-1.85623 9.95576 6.45948e-20)
(-1.94982 10.1795 1.91107e-18)
(-2.08525 10.4396 -1.09926e-18)
(-2.26881 10.7741 7.91473e-19)
(-2.51512 11.2847 -3.47028e-19)
(-2.7316 12.2114 8.61855e-19)
(-3.23552 13.523 -1.92661e-18)
(-6.91862 14.0139 1.82865e-18)
(-0.929512 9.7566 -6.72153e-19)
(-1.04779 9.95725 8.51522e-19)
(-1.10835 10.1829 -4.11978e-19)
(-1.18911 10.4318 -3.19861e-19)
(-1.30657 10.7192 7.11351e-19)
(-1.46523 11.0857 -1.27164e-18)
(-1.6731 11.6355 -9.04675e-19)
(-1.81991 12.5958 2.19986e-18)
(-2.2245 13.9326 -1.26264e-18)
(-5.85357 14.6084 -1.68362e-18)
(-0.213912 9.90929 -6.85137e-19)
(-0.300638 10.13 1.4983e-19)
(-0.340127 10.369 1.0007e-19)
(-0.401889 10.6333 6.05807e-21)
(-0.496395 10.9417 -4.74418e-19)
(-0.625698 11.3363 1.53896e-18)
(-0.790437 11.9215 -1.45548e-18)
(-0.863668 12.9092 -1.69934e-18)
(-1.16757 14.2608 4.56968e-20)
(-4.73328 15.1154 -1.23189e-18)
(0.550501 9.94854 2.10034e-19)
(0.488144 10.2036 3.49634e-20)
(0.465419 10.4705 -8.01357e-20)
(0.42063 10.7605 -1.10609e-19)
(0.348389 11.095 -3.06824e-19)
(0.249249 11.5188 2.34586e-19)
(0.130051 12.1373 1.51233e-19)
(0.132681 13.146 1.1125e-19)
(-0.0696245 14.5028 -3.37915e-19)
(-3.56641 15.5316 9.25017e-19)
(-4.87795 6.96595 -1.79675e-18)
(-5.75181 5.90401 8.09216e-19)
(-6.01593 5.22525 -4.39219e-19)
(-6.69004 4.40567 -1.03391e-18)
(-6.96031 3.72169 -6.45486e-19)
(-7.41066 2.9515 -4.06987e-20)
(-7.62931 2.22232 -1.13435e-20)
(-7.92327 1.44907 -1.17425e-19)
(-8.0776 0.693902 -1.35377e-19)
(-8.24449 -0.074291 6.18324e-20)
(-5.37747 6.82577 -3.00739e-18)
(-6.01103 5.95594 -9.11686e-19)
(-6.3339 5.25476 -9.33858e-19)
(-6.88904 4.45941 2.2969e-19)
(-7.18722 3.76652 5.14512e-19)
(-7.59059 3.00531 9.6072e-19)
(-7.82838 2.27676 -3.28655e-19)
(-8.1016 1.50965 1.08753e-18)
(-8.26555 0.754396 1.14218e-19)
(-8.42063 -0.014795 -9.75673e-20)
(-5.73225 6.7695 3.50692e-18)
(-6.23583 6.03316 -6.43864e-19)
(-6.61377 5.33205 2.06844e-18)
(-7.08464 4.56642 5.38097e-19)
(-7.41352 3.85666 -2.02542e-18)
(-7.78112 3.09792 -1.18259e-18)
(-8.03968 2.36065 -4.85731e-19)
(-8.299 1.59205 2.21402e-19)
(-8.47553 0.829747 -5.05313e-19)
(-8.62588 0.0535315 6.99969e-20)
(-6.00096 6.83867 -3.20453e-18)
(-6.46527 6.14067 1.80488e-18)
(-6.87357 5.43618 1.48366e-19)
(-7.29966 4.69117 8.57083e-19)
(-7.64634 3.96513 1.27051e-18)
(-7.99033 3.20614 1.13911e-19)
(-8.26187 2.45637 8.58912e-19)
(-8.51187 1.68288 3.94841e-19)
(-8.6979 0.910406 6.2077e-19)
(-8.84684 0.124874 -8.49322e-20)
(-6.26607 6.9543 2.00531e-18)
(-6.71966 6.26069 -3.15347e-18)
(-7.13748 5.54935 -2.92344e-19)
(-7.53928 4.81325 4.15799e-19)
(-7.88989 4.07596 1.93082e-18)
(-8.21729 3.31672 -9.93843e-19)
(-8.49211 2.55675 -1.62802e-18)
(-8.73446 1.77903 1.32113e-18)
(-8.92453 0.997555 -1.50011e-19)
(-9.07268 0.203932 -3.98767e-20)
(-6.57347 7.09932 -4.53974e-18)
(-7.02313 6.39857 2.61038e-18)
(-7.43912 5.67705 9.79314e-19)
(-7.82474 4.93789 1.51571e-19)
(-8.16952 4.18972 -6.56239e-19)
(-8.48196 3.42638 -1.37369e-18)
(-8.75099 2.65675 -1.26799e-18)
(-8.98318 1.87366 -7.40315e-20)
(-9.16961 1.08373 2.56101e-19)
(-9.31305 0.282721 1.79839e-19)
(-6.98982 7.34249 -1.02352e-18)
(-7.44056 6.62056 -7.43928e-19)
(-7.85229 5.87878 -2.58003e-19)
(-8.22591 5.12246 1.02598e-18)
(-8.55965 4.35577 4.32473e-19)
(-8.85608 3.57824 -1.01309e-18)
(-9.11174 2.79313 1.59571e-18)
(-9.32839 1.998 3.95778e-19)
(-9.50213 1.19528 2.84225e-19)
(-9.63294 0.383096 -1.63929e-19)
(-7.56443 7.95051 -3.03109e-18)
(-8.03733 7.18787 -3.0102e-18)
(-8.46206 6.4067 4.9567e-18)
(-8.8411 5.61243 -1.8291e-18)
(-9.17545 4.80817 4.18952e-18)
(-9.46697 3.99551 1.31613e-19)
(-9.71523 3.17588 -1.29623e-18)
(-9.92098 2.34885 1.70063e-18)
(-10.0827 1.51503 -4.16473e-20)
(-10.1996 0.673743 3.90455e-19)
(-8.62898 8.86087 3.7268e-19)
(-9.14518 8.02208 4.55213e-18)
(-9.60055 7.16384 2.70354e-18)
(-9.9995 6.29096 3.00178e-18)
(-10.3436 5.40742 -4.55795e-18)
(-10.6347 4.51588 5.69846e-19)
(-10.8737 3.61829 -1.62101e-18)
(-11.0615 2.71574 6.09831e-19)
(-11.1977 1.8091 8.39847e-20)
(-11.2813 0.899203 -2.10667e-19)
(-12.3554 7.90231 1.19607e-18)
(-12.8022 6.84321 -3.39237e-18)
(-13.1694 5.76308 -1.62574e-18)
(-13.4564 4.67027 -1.34951e-18)
(-13.6664 3.56955 5.80848e-19)
(-13.7999 2.46667 2.85145e-18)
(-13.8589 1.3659 3.41595e-19)
(-13.8443 0.271652 7.98414e-19)
(-13.7573 -0.812332 -3.85047e-19)
(-13.5972 -1.88209 -9.34412e-20)
(-8.30821 -0.825628 5.15417e-20)
(-8.34513 -1.57926 -1.10317e-19)
(-8.30108 -2.3233 1.10826e-18)
(-8.21846 -3.06212 -7.28514e-19)
(-8.07287 -3.78232 4.76849e-19)
(-7.88229 -4.47536 -6.20792e-19)
(-7.61931 -5.1349 2.98308e-18)
(-7.28773 -5.78222 3.88451e-19)
(-6.93608 -6.3925 -8.80068e-19)
(-6.62977 -6.78866 1.80728e-18)
(-8.48954 -0.77494 2.11515e-19)
(-8.52247 -1.53828 -3.74206e-19)
(-8.48233 -2.29518 -7.65095e-19)
(-8.3955 -3.04752 -3.28265e-19)
(-8.24384 -3.78532 -8.7433e-19)
(-8.0398 -4.50205 1.14652e-19)
(-7.76965 -5.1942 -1.78684e-19)
(-7.42903 -5.86967 1.52738e-18)
(-7.01119 -6.50352 1.93021e-18)
(-6.55263 -7.02579 -2.26598e-19)
(-8.70425 -0.719093 -1.50076e-19)
(-8.739 -1.49568 1.15048e-18)
(-8.70757 -2.26782 7.57652e-19)
(-8.62432 -3.03531 -7.53629e-20)
(-8.47736 -3.79039 9.98028e-19)
(-8.27409 -4.52883 4.52189e-19)
(-8.00773 -5.24731 8.90096e-19)
(-7.67433 -5.94161 -1.11065e-18)
(-7.25711 -6.59293 -1.64293e-18)
(-6.75865 -7.19256 -3.83786e-18)
(-8.93414 -0.661363 1.98322e-19)
(-8.9727 -1.45279 -5.44258e-19)
(-8.94981 -2.24242 9.1046e-19)
(-8.87142 -3.02884 -1.60396e-18)
(-8.73023 -3.80594 -8.69497e-19)
(-8.52941 -4.57027 -3.71761e-19)
(-8.26466 -5.31685 -1.94438e-18)
(-7.93282 -6.03679 7.36761e-19)
(-7.52231 -6.71959 -3.36373e-19)
(-7.02798 -7.37357 1.27608e-18)
(-9.16623 -0.594025 1.12828e-19)
(-9.2089 -1.39858 2.04159e-20)
(-9.19353 -2.20435 -1.33081e-20)
(-9.12097 -3.00948 1.46547e-18)
(-8.98646 -3.80912 -2.62052e-19)
(-8.78989 -4.59973 -1.7965e-18)
(-8.52735 -5.37528 3.4405e-18)
(-8.19562 -6.12746 -1.0224e-18)
(-7.78864 -6.85126 -3.27036e-18)
(-7.30345 -7.55363 -3.24064e-18)
(-9.40657 -0.525094 -3.15753e-19)
(-9.44941 -1.34046 3.04137e-19)
(-9.43707 -2.15962 1.76423e-18)
(-9.36783 -2.98063 -8.09695e-19)
(-9.238 -3.79961 1.70129e-18)
(-9.04539 -4.61285 1.15394e-18)
(-8.78599 -5.41458 -1.72978e-18)
(-8.45639 -6.1986 9.53212e-19)
(-8.05329 -6.96219 6.54685e-19)
(-7.57587 -7.70765 2.11271e-18)
(-9.71662 -0.436643 5.67126e-20)
(-9.7508 -1.26367 -6.12961e-20)
(-9.73218 -2.09563 1.58878e-18)
(-9.65819 -2.93072 -1.73493e-18)
(-9.52553 -3.76585 -2.98893e-18)
(-9.33116 -4.5975 1.52577e-18)
(-9.07122 -5.4209 3.21613e-18)
(-8.74242 -6.23172 8.0583e-19)
(-8.3424 -7.02777 2.21097e-18)
(-7.8708 -7.80833 1.84649e-18)
(-10.269 -0.173914 -7.49696e-20)
(-10.2884 -1.02662 -1.13239e-18)
(-10.2554 -1.88292 6.20691e-19)
(-10.1678 -2.74115 7.87995e-19)
(-10.0227 -3.59883 -2.53638e-18)
(-9.81751 -4.45283 -1.94216e-18)
(-9.54899 -5.29954 -1.64216e-18)
(-9.2146 -6.136 -1.71998e-18)
(-8.81243 -6.96038 5.01834e-19)
(-8.34172 -7.77074 -8.92361e-19)
(-11.3099 -0.0114331 1.15923e-19)
(-11.2828 -0.920994 1.68484e-18)
(-11.1988 -1.82673 2.28555e-18)
(-11.057 -2.72712 -2.09477e-18)
(-10.8557 -3.61944 1.98061e-18)
(-10.5937 -4.50072 -2.58394e-18)
(-10.2695 -5.36814 3.26082e-18)
(-9.88258 -6.21965 3.41064e-18)
(-9.43217 -7.05393 -7.25233e-19)
(-8.91781 -7.86858 -5.5756e-18)
(-13.3624 -2.93262 -3.79404e-20)
(-13.0555 -3.95686 -5.93545e-19)
(-12.6786 -4.95412 8.27249e-19)
(-12.2327 -5.91827 6.42769e-19)
(-11.7191 -6.84598 -1.07048e-18)
(-11.1393 -7.73227 1.01769e-18)
(-10.4957 -8.57365 -1.29641e-18)
(-9.79145 -9.36695 1.01663e-18)
(-9.0299 -10.1099 -6.14552e-18)
(-8.21334 -10.7991 2.79426e-18)
(-7.3441 -11.4289 4.15677e-18)
(-8.34 -8.65866 -2.42158e-18)
(-7.80247 -8.56314 -2.1057e-18)
(-7.32828 -8.57034 -1.46522e-18)
(-7.02574 -8.43481 -1.30082e-19)
(-6.74297 -8.24177 2.33116e-18)
(-6.45686 -8.02068 1.51473e-19)
(-6.19037 -7.78531 -1.64388e-18)
(-6.02535 -7.5128 2.65467e-18)
(-6.12487 -7.1008 -4.4749e-19)
(-6.43157 -11.9959 -4.52774e-18)
(-7.69966 -9.42002 9.38269e-18)
(-7.19543 -9.33051 1.25257e-18)
(-6.71666 -9.30671 -2.32645e-18)
(-6.4079 -9.13611 1.60103e-18)
(-6.11919 -8.9059 -3.23312e-18)
(-5.82924 -8.65064 3.32284e-18)
(-5.55748 -8.39016 -2.32515e-18)
(-5.34174 -8.12815 5.48815e-19)
(-5.29278 -7.79679 1.33038e-18)
(-5.47747 -12.5058 2.70916e-18)
(-6.99961 -10.1502 -5.80465e-18)
(-6.52248 -10.069 -5.65552e-18)
(-6.03953 -10.0122 -8.87056e-19)
(-5.72812 -9.80533 1.41758e-18)
(-5.43972 -9.53782 -9.41682e-19)
(-5.15342 -9.24743 -8.11478e-19)
(-4.88704 -8.95296 8.74084e-19)
(-4.67283 -8.65492 -1.80232e-18)
(-4.60905 -8.30682 2.0363e-18)
(-4.4868 -12.9539 -5.91559e-18)
(-6.23963 -10.8448 -6.3678e-19)
(-5.78502 -10.7711 1.91353e-18)
(-5.29995 -10.678 2.14446e-18)
(-4.99058 -10.4336 -3.22917e-18)
(-4.70753 -10.1299 2.26525e-19)
(-4.42732 -9.81028 -1.19161e-18)
(-4.16445 -9.49891 -2.18895e-18)
(-3.94005 -9.20844 4.01971e-18)
(-3.8311 -8.91454 9.37859e-19)
(-3.46174 -13.3402 4.27121e-18)
(-5.42071 -11.4986 1.11596e-19)
(-4.98503 -11.4302 2.50652e-18)
(-4.50152 -11.297 -1.41262e-19)
(-4.20006 -11.0127 2.50741e-18)
(-3.92987 -10.6714 1.09143e-18)
(-3.66638 -10.319 2.22809e-18)
(-3.42485 -9.97993 -2.04641e-18)
(-3.22308 -9.66483 -1.22099e-19)
(-3.11132 -9.35938 -1.63618e-18)
(-2.406 -13.6609 5.40219e-18)
(-4.54381 -12.1045 -2.59849e-18)
(-4.12475 -12.0379 -4.2002e-19)
(-3.64769 -11.8607 -6.88825e-19)
(-3.36009 -11.5355 -6.75742e-19)
(-3.10807 -11.1579 -7.48402e-19)
(-2.86442 -10.7768 1.10368e-18)
(-2.6425 -10.419 -1.23218e-18)
(-2.45243 -10.0979 1.07646e-18)
(-2.32574 -9.80689 6.1063e-20)
(-1.32268 -13.9138 -5.25897e-18)
(-3.61083 -12.6555 -1.8732e-18)
(-3.2075 -12.5861 3.04356e-18)
(-2.74325 -12.3612 -9.42382e-19)
(-2.47655 -11.9943 1.17437e-18)
(-2.24992 -11.5808 -3.06476e-18)
(-2.03402 -11.1706 2.16155e-18)
(-1.84091 -10.7895 -6.88029e-19)
(-1.67484 -10.4484 5.22656e-19)
(-1.55013 -10.1415 -1.03099e-18)
(-0.215699 -14.095 2.43043e-18)
(-2.6244 -13.1432 -7.70585e-19)
(-2.23735 -13.066 -1.01277e-18)
(-1.79327 -12.791 -3.76836e-19)
(-1.55434 -12.3831 2.30726e-19)
(-1.35828 -11.9366 4.89972e-19)
(-1.17271 -11.5022 -9.19822e-19)
(-1.00661 -11.1058 5.39256e-19)
(-0.857596 -10.7576 8.7374e-19)
(-0.732972 -10.4534 -1.03834e-18)
(0.910851 -14.2007 1.8815e-18)
(-1.58836 -13.5594 -2.6788e-20)
(-1.21965 -13.4697 1.57468e-18)
(-0.804247 -13.1431 -1.22533e-18)
(-0.600699 -12.6955 3.34099e-19)
(-0.441694 -12.2189 -3.45521e-19)
(-0.292429 -11.7626 -1.5159e-19)
(-0.1592 -11.3513 -1.10277e-19)
(-0.0345463 -10.9922 7.80763e-19)
(0.0762175 -10.6798 5.66808e-19)
(2.0517 -14.2246 -3.57227e-19)
(-0.508168 -13.8948 -2.38075e-19)
(-0.160867 -13.7892 -1.68494e-19)
(0.217001 -13.4112 -5.34897e-19)
(0.378153 -12.927 4.86561e-19)
(0.495195 -12.4244 1.3234e-19)
(0.605162 -11.9513 -3.03187e-19)
(0.704929 -11.5311 -8.44097e-20)
(0.805983 -11.1693 -1.29713e-19)
(0.897013 -10.8624 2.14442e-21)
(1.41979 -10.0738 -1.16114e-20)
(0.799167 -7.91058 -3.19019e-21)
(0.518517 -6.07312 7.80006e-21)
(0.614551 -4.82918 -3.12657e-21)
(0.601889 -3.65296 -1.3417e-22)
(0.564289 -2.61202 2.53609e-22)
(0.532615 -1.81434 -6.48922e-23)
(0.494326 -1.2257 -1.00508e-22)
(0.467254 -0.814382 6.46511e-23)
(0.447891 -0.536272 3.69697e-23)
(0.439805 -0.350233 -1.08316e-22)
(0.438226 -0.22668 4.9455e-23)
(0.438399 -0.137884 -4.12921e-23)
(0.435017 -0.0730995 -1.07729e-22)
(0.421418 -0.0182753 1.94725e-23)
(0.408248 0.0306725 -4.62605e-23)
(0.398801 0.0525487 1.77937e-23)
(0.391203 0.0828305 1.38984e-23)
(0.431299 0.0696059 -1.66293e-23)
(0.452576 0.0599256 -1.67224e-23)
(2.10908 -10.1685 7.65333e-20)
(1.30074 -8.03877 1.99833e-20)
(0.800764 -6.15625 -1.49052e-20)
(0.757374 -4.85985 3.23873e-21)
(0.692653 -3.67845 -4.36223e-21)
(0.61604 -2.624 1.84616e-21)
(0.55305 -1.81503 3.3753e-22)
(0.496548 -1.22427 -1.95634e-22)
(0.458171 -0.812934 9.03027e-23)
(0.431959 -0.535556 2.51899e-23)
(0.419439 -0.350321 8.91266e-24)
(0.415092 -0.227037 3.23712e-22)
(0.412973 -0.13796 -4.27221e-22)
(0.407979 -0.0724105 -4.14683e-22)
(0.392612 -0.0170654 8.49456e-23)
(0.379945 0.0315147 6.91974e-23)
(0.371301 0.0530843 -1.42422e-22)
(0.367085 0.0814521 1.93818e-22)
(0.40964 0.0672955 3.8936e-23)
(0.426901 0.0592622 3.99245e-23)
(2.76837 -10.1487 -1.58904e-19)
(1.79433 -8.10157 6.47658e-20)
(1.09643 -6.23234 7.04537e-20)
(0.91141 -4.89892 -1.96449e-20)
(0.788268 -3.70816 8.93028e-22)
(0.672631 -2.64233 3.34451e-21)
(0.577097 -1.82078 8.51673e-22)
(0.500939 -1.22605 -4.26007e-22)
(0.450827 -0.813548 -1.14457e-22)
(0.41756 -0.536059 -1.37042e-22)
(0.400444 -0.351095 -6.41032e-23)
(0.393208 -0.227765 1.5822e-23)
(0.3888 -0.138235 4.50124e-22)
(0.382255 -0.0718219 3.26172e-22)
(0.365387 -0.0159884 -2.06261e-22)
(0.353444 0.0321966 2.10814e-22)
(0.345643 0.0534062 -5.20005e-23)
(0.344887 0.0798595 -1.08749e-22)
(0.388934 0.0650808 -1.47953e-22)
(0.402362 0.0587549 6.72648e-23)
(3.45335 -10.1351 -4.60967e-20)
(2.31214 -8.159 1.23812e-19)
(1.41758 -6.29347 -5.10842e-20)
(1.08114 -4.92807 -9.99954e-21)
(0.889923 -3.73119 6.11819e-21)
(0.733888 -2.66164 4.60876e-22)
(0.605047 -1.83016 -1.22856e-21)
(0.507782 -1.23074 -1.68094e-22)
(0.445372 -0.816155 4.60098e-22)
(0.404796 -0.537754 3.56665e-22)
(0.382891 -0.352533 -7.87063e-22)
(0.372635 -0.228858 1.10882e-22)
(0.365927 -0.13872 -5.83709e-23)
(0.357883 -0.0713617 -1.71948e-23)
(0.339774 -0.0150739 1.01738e-22)
(0.32873 0.0327067 -1.54347e-22)
(0.321791 0.0535145 -1.32015e-22)
(0.324466 0.0780923 -2.60493e-22)
(0.369115 0.0629891 2.32861e-22)
(0.378979 0.0583913 -1.42087e-22)
(4.11589 -10.0426 1.00193e-20)
(2.83397 -8.13433 1.15111e-20)
(1.75648 -6.29221 4.93444e-21)
(1.26307 -4.92319 2.16038e-20)
(0.995115 -3.73854 7.72138e-21)
(0.797826 -2.67837 -4.85444e-21)
(0.636365 -1.8421 1.03773e-21)
(0.517145 -1.23802 3.71588e-22)
(0.4419 -0.820628 2.77327e-22)
(0.393745 -0.54059 4.26177e-22)
(0.366841 -0.354609 -8.18995e-23)
(0.353418 -0.23031 -7.74088e-22)
(0.344394 -0.139426 -1.19374e-22)
(0.334896 -0.0710542 -3.34958e-22)
(0.315786 -0.0143451 4.31748e-22)
(0.305771 0.0330386 -2.08909e-22)
(0.299691 0.053416 5.24882e-22)
(0.305678 0.0761912 8.18171e-23)
(0.350132 0.06104 7.55973e-23)
(0.356777 0.0581551 -1.25143e-23)
(4.7892 -9.89188 -3.64455e-19)
(3.37616 -8.02983 -4.99696e-20)
(2.11142 -6.23636 3.32538e-20)
(1.45209 -4.90142 -5.70023e-20)
(1.1001 -3.74761 -1.96453e-20)
(0.862213 -2.70178 8.89484e-21)
(0.670389 -1.85948 -3.34653e-21)
(0.529034 -1.24837 4.42369e-22)
(0.440465 -0.826949 -7.65523e-22)
(0.384457 -0.544517 -3.83899e-22)
(0.352337 -0.357285 -2.6341e-22)
(0.335595 -0.232102 7.13346e-22)
(0.324231 -0.140353 -3.22999e-22)
(0.313314 -0.0709149 -1.03499e-21)
(0.293418 -0.013815 -2.93229e-22)
(0.284516 0.0331947 3.77587e-22)
(0.279272 0.0531256 3.79309e-23)
(0.288386 0.0741978 1.55397e-22)
(0.331953 0.0592463 -1.4161e-22)
(0.335781 0.0580276 5.14758e-23)
(5.45206 -9.63703 -6.73491e-19)
(3.91702 -7.91426 1.19316e-19)
(2.47284 -6.23273 -3.90549e-21)
(1.64688 -4.94697 7.02994e-20)
(1.20667 -3.81145 -2.04136e-20)
(0.929015 -2.75737 -8.02132e-21)
(0.708365 -1.89123 -5.64525e-22)
(0.544001 -1.26426 -8.69173e-22)
(0.441207 -0.835732 -2.1091e-21)
(0.376975 -0.549694 9.65874e-23)