/*--------------------------------*- C++ -*----------------------------------*\
  =========                 |
  \\      /  F ield         | OpenFOAM: The Open Source CFD Toolbox
   \\    /   O peration     | Website:  https://openfoam.org
    \\  /    A nd           | Version:  6.0
     \\/     M anipulation  |
\*---------------------------------------------------------------------------*/
FoamFile
{
    version     2.0;
    format      ascii;
    class       volVectorField;
    location    "14.75";
    object      U;
}
// * * * * * * * * * * * * * * * * * * * * * * * * * * * * * * * * * * * * * //

dimensions      [0 1 -1 0 0 0 0];

internalField   nonuniform List<vector> 
2400
(
(3.89852 -16.0337 -1.51818e-18)
(0.641784 -16.3077 5.49053e-19)
(0.990125 -16.1871 -4.78498e-19)
(1.32552 -15.6686 -2.69726e-19)
(1.4224 -15.0763 -3.99291e-19)
(1.48724 -14.5055 5.3291e-19)
(1.55477 -13.996 1.87904e-19)
(1.62292 -13.5599 1.41578e-19)
(1.7086 -13.1952 -3.16618e-19)
(1.77064 -12.8993 -1.83079e-20)
(5.19094 -15.8222 1.72321e-18)
(1.95309 -16.4409 -9.00342e-20)
(2.2704 -16.2918 3.0832e-19)
(2.54375 -15.7275 2.57863e-18)
(2.58083 -15.1135 -1.74534e-18)
(2.59229 -14.533 -9.25519e-20)
(2.61309 -14.0212 -1.77354e-20)
(2.64452 -13.5866 -1.86955e-19)
(2.70239 -13.2258 -2.67146e-19)
(2.72316 -12.9462 -3.59128e-20)
(6.46979 -15.5062 3.01467e-18)
(3.27831 -16.4593 2.3013e-18)
(3.56045 -16.2819 -5.79484e-18)
(3.76396 -15.6774 1.68213e-18)
(3.73593 -15.0476 2.34427e-18)
(3.69027 -14.4625 -1.30272e-18)
(3.66162 -13.9518 -9.674e-19)
(3.65444 -13.5187 7.66831e-19)
(3.68033 -13.1584 -1.59472e-18)
(3.64962 -12.889 1.401e-18)
(7.72313 -15.0811 -1.04156e-17)
(4.60689 -16.3564 3.70613e-18)
(4.84894 -16.1534 -3.3786e-18)
(4.97652 -15.5166 1.47375e-18)
(4.88007 -14.8786 -1.50695e-18)
(4.77547 -14.2954 2.10174e-18)
(4.69718 -13.7907 8.54493e-19)
(4.65331 -13.3636 -2.95865e-18)
(4.64909 -13.012 -2.45663e-18)
(4.56695 -12.7737 2.36998e-18)
(8.94103 -14.5464 6.07423e-19)
(5.92565 -16.1307 -1.42598e-18)
(6.12387 -15.9057 -5.35941e-19)
(6.17083 -15.2453 -6.81026e-19)
(6.00413 -14.6078 -3.65477e-18)
(5.83996 -14.0333 5.60145e-19)
(5.71116 -13.5388 -3.19454e-19)
(5.62772 -13.1188 3.03693e-18)
(5.5856 -12.7772 -2.06207e-18)
(5.44189 -12.5739 -1.09658e-18)
(10.1118 -13.901 9.02875e-18)
(7.22201 -15.7792 -6.37592e-19)
(7.37197 -15.5364 9.25132e-18)
(7.33431 -14.8621 -1.16635e-18)
(7.09696 -14.2348 4.43584e-18)
(6.87579 -13.6783 -4.90919e-19)
(6.70056 -13.2017 -7.81143e-21)
(6.57917 -12.7945 2.51318e-18)
(6.49399 -12.4708 -1.3461e-18)
(6.28368 -12.3169 1.76139e-18)
(11.2259 -13.1478 -3.52667e-18)
(8.48446 -15.3031 7.83639e-19)
(8.58133 -15.0462 -2.53425e-18)
(8.45384 -14.366 -2.25975e-18)
(8.14298 -13.7572 -6.955e-20)
(7.86547 -13.2268 6.66351e-18)
(7.64932 -12.7757 -2.3377e-18)
(7.49708 -12.3881 8.88906e-19)
(7.37092 -12.0877 -3.31102e-18)
(7.09291 -11.9816 -1.40406e-18)
(12.2751 -12.2914 1.44861e-17)
(9.70455 -14.7045 -1.51057e-18)
(9.74374 -14.4362 -1.2184e-17)
(9.5209 -13.7564 6.48311e-19)
(9.13 -13.171 2.20246e-18)
(8.78906 -12.6705 -3.13098e-18)
(8.52901 -12.2493 -3.66841e-18)
(8.35304 -11.8902 5.42514e-18)
(8.20668 -11.6321 -4.9447e-19)
(7.89336 -11.6051 -3.75429e-18)
(13.2531 -11.3383 -1.17285e-17)
(10.8757 -13.9889 5.53424e-18)
(10.8552 -13.7115 7.43925e-18)
(10.535 -13.0363 1.84055e-18)
(10.0593 -12.4748 -6.26162e-18)
(9.64205 -12.0007 3.78993e-18)
(9.31424 -11.6053 2.10156e-18)
(9.08534 -11.2798 4.11928e-18)
(8.9067 -11.0944 -2.51118e-18)
(8.58699 -11.2121 -3.12241e-18)
(14.1524 -10.2951 3.74936e-18)
(11.991 -13.1627 -1.43295e-18)
(11.9121 -12.8786 -3.67601e-19)
(11.4986 -12.2114 1.75933e-18)
(10.9441 -11.6721 1.29294e-18)
(10.4522 -11.2174 -9.50909e-19)
(10.0383 -10.8408 -1.7047e-18)
(9.69275 -10.5553 2.50661e-18)
(9.36589 -10.4719 -2.08644e-18)
(8.93609 -10.7507 1.65931e-18)
(17.9914 3.04222 1.9926e-19)
(18.073 1.59774 6.18786e-19)
(18.04 0.155693 -1.97569e-18)
(17.8982 -1.27495 1.81458e-18)
(17.6512 -2.6855 6.9947e-19)
(17.3035 -4.06868 9.41963e-18)
(16.8571 -5.41618 -3.6866e-18)
(16.3174 -6.72114 -5.47086e-18)
(15.6842 -7.97484 6.31266e-18)
(14.9645 -9.16992 -1.0943e-17)
(18.569 -0.795257 5.35866e-19)
(18.3762 -2.23518 -2.37381e-19)
(18.0636 -3.6539 -1.59529e-18)
(17.6376 -5.04199 4.20469e-18)
(17.1037 -6.38927 -1.49156e-18)
(16.4687 -7.68875 1.1682e-17)
(15.7382 -8.93029 -7.60078e-18)
(14.9198 -10.1084 1.13911e-17)
(14.0184 -11.2112 -8.38975e-18)
(13.0414 -12.2349 -4.52007e-18)
(17.9438 -0.740544 -9.86564e-19)
(17.8043 -2.12024 9.76891e-20)
(17.5486 -3.48822 -4.35345e-18)
(17.1804 -4.83526 3.31376e-18)
(16.7039 -6.1511 -3.70749e-18)
(16.1249 -7.42735 -7.29719e-18)
(15.4485 -8.65395 -2.59854e-18)
(14.6828 -9.82288 -2.03576e-18)
(13.833 -10.9233 7.4822e-18)
(12.9078 -11.9462 4.37942e-18)
(16.9303 -0.538928 4.06178e-19)
(16.825 -1.83628 -7.09012e-19)
(16.6115 -3.12848 -9.94822e-19)
(16.2912 -4.40827 -4.0479e-18)
(15.8685 -5.66497 2.60134e-18)
(15.3473 -6.89087 7.49389e-18)
(14.7337 -8.07569 3.07556e-18)
(14.0344 -9.211 6.50828e-19)
(13.256 -10.2863 1.83006e-18)
(12.4086 -11.2909 8.27329e-20)
(16.075 -0.497328 -4.37501e-19)
(15.9687 -1.72472 -1.71752e-18)
(15.7625 -2.94758 1.70631e-19)
(15.4543 -4.16356 3.17581e-18)
(15.0518 -5.35887 3.4548e-18)
(14.5553 -6.5306 -2.39809e-18)
(13.974 -7.66578 -4.36863e-18)
(13.3124 -8.75889 -2.36366e-18)
(12.5801 -9.7983 2.62372e-18)
(11.7882 -10.774 4.18011e-18)
(15.4074 -0.457789 9.74557e-20)
(15.2909 -1.62972 1.38978e-18)
(15.0849 -2.79316 -3.27144e-18)
(14.7757 -3.95699 4.0397e-18)
(14.3838 -5.09664 2.46494e-18)
(13.896 -6.22333 4.75874e-18)
(13.3353 -7.31341 -1.01992e-18)
(12.6933 -8.37398 -3.0459e-18)
(11.9933 -9.38284 7.20912e-18)
(11.2427 -10.335 -6.36736e-18)
(14.8704 -0.410562 2.05691e-19)
(14.74 -1.53871 -1.52829e-18)
(14.5377 -2.64872 -9.78581e-19)
(14.2195 -3.77202 -2.13341e-18)
(13.8413 -4.85781 -3.07228e-19)
(13.3486 -5.94984 -3.15316e-18)
(12.8082 -6.99527 -2.08915e-18)
(12.1657 -8.0405 -3.59288e-19)
(11.4949 -9.02877 -4.26658e-18)
(10.7721 -9.96993 6.07933e-18)
(14.4185 -0.356065 -1.70585e-19)
(14.2673 -1.45344 1.24292e-18)
(14.0791 -2.5157 -5.51213e-19)
(13.7403 -3.61258 1.20775e-18)
(13.39 -4.64313 2.9378e-18)
(12.8719 -5.71214 4.98973e-18)
(12.3664 -6.70164 -1.33574e-18)
(11.6855 -7.75311 -4.98996e-18)
(11.0577 -8.72939 1.52911e-18)
(10.3262 -9.70718 -9.32771e-18)
(14.0272 -0.275807 2.39232e-19)
(13.8432 -1.35688 -2.81741e-19)
(13.6857 -2.38125 -2.72701e-18)
(13.3068 -3.47348 8.25527e-19)
(13.0099 -4.45432 -1.98885e-18)
(12.4305 -5.52596 -8.79588e-19)
(11.9934 -6.4437 -5.68778e-19)
(11.1949 -7.53857 2.25512e-18)
(10.652 -8.48407 2.18244e-18)
(9.78055 -9.66227 1.82619e-18)
(13.6898 -0.225074 -5.10697e-19)
(13.4513 -1.29335 8.82861e-19)
(13.3362 -2.28494 4.36062e-19)
(12.8912 -3.3918 1.20515e-18)
(12.6652 -4.34293 -1.22547e-19)
(11.9815 -5.45425 -9.0921e-20)
(11.6294 -6.31939 -2.94894e-18)
(10.6174 -7.5005 4.04382e-18)
(10.1852 -8.36083 -2.65359e-18)
(8.98081 -9.89856 8.32727e-19)
(10.8315 15.1523 -6.25946e-18)
(12.0061 14.2876 6.47331e-18)
(13.0974 13.322 -3.36597e-19)
(14.0972 12.2638 -1.06943e-17)
(14.9962 11.1206 7.66387e-18)
(15.7877 9.90095 -5.25746e-18)
(16.4649 8.61514 -1.17782e-18)
(17.0258 7.27489 -1.09069e-18)
(17.4667 5.89151 1.75656e-18)
(17.7899 4.47751 1.2367e-19)
(13.6959 12.1041 7.30675e-18)
(14.6853 11.1005 1.442e-18)
(15.5818 10.0102 -7.02917e-18)
(16.3763 8.83965 -7.11013e-18)
(17.0596 7.59667 5.70103e-18)
(17.6258 6.28925 -4.52034e-18)
(18.0684 4.92917 4.9703e-18)
(18.3861 3.52762 -1.39186e-18)
(18.5748 2.09882 -4.12534e-18)
(18.637 0.652922 -2.9029e-19)
(13.0053 11.2782 -1.07261e-18)
(13.9578 10.3655 -8.70716e-19)
(14.8265 9.37084 3.7249e-18)
(15.6024 8.29768 3.55133e-18)
(16.2772 7.15106 7.61254e-18)
(16.8449 5.93798 2.38716e-18)
(17.3004 4.66919 -1.74231e-18)
(17.6406 3.35547 -3.50237e-18)
(17.8621 2.00875 2.75943e-18)
(17.9639 0.639489 1.91568e-19)
(12.1739 10.5613 1.97004e-18)
(13.0729 9.72968 -4.2188e-18)
(13.8924 8.824 -1.59749e-18)
(14.6245 7.84337 -6.75505e-18)
(15.2636 6.7907 -3.41037e-18)
(15.8047 5.67225 6.57681e-18)
(16.2447 4.49954 4.02316e-18)
(16.5797 3.28173 -3.38847e-18)
(16.8073 2.03006 1.46248e-19)
(16.9245 0.752644 -1.39954e-19)
(11.6848 9.95267 -6.65702e-18)
(12.5321 9.17105 7.32654e-18)
(13.2979 8.32427 -1.85391e-18)
(13.9751 7.40436 3.61586e-18)
(14.5635 6.41356 -2.43043e-18)
(15.0594 5.35884 -3.76661e-18)
(15.4627 4.25425 1.83163e-18)
(15.7677 3.10615 -1.93958e-18)
(15.9738 1.92689 -1.801e-18)
(16.0756 0.721143 7.57099e-19)
(11.3405 9.49153 -9.13083e-19)
(12.1523 8.75025 1.41243e-18)
(12.878 7.95041 -1.63981e-18)
(13.5086 7.07391 -7.147e-18)
(14.0529 6.12744 3.78191e-18)
(14.5072 5.11979 5.84308e-19)
(14.8774 4.06807 -3.26536e-18)
(15.1521 2.97304 -1.11456e-18)
(15.3365 1.85103 9.71951e-19)
(15.4184 0.700762 -2.70202e-19)
(11.0559 9.12809 -3.67996e-18)
(11.8371 8.43185 -4.49573e-20)
(12.536 7.67183 1.63926e-18)
(13.131 6.82276 4.05797e-18)
(13.643 5.90831 8.15453e-19)
(14.0629 4.93734 1.92061e-18)
(14.4086 3.92912 3.63995e-18)
(14.656 2.87545 -1.55116e-18)
(14.825 1.80149 1.28659e-18)
(14.8869 0.695501 -4.7368e-19)
(10.8262 8.82775 -1.19641e-18)
(11.5467 8.20681 1.40744e-18)
(12.2163 7.48105 1.38557e-18)
(12.7835 6.64386 -1.88717e-18)
(13.278 5.75457 -1.00065e-18)
(13.6708 4.81218 -2.19735e-18)
(14.0031 3.83773 1.89465e-19)
(14.2259 2.8125 -4.8596e-19)
(14.39 1.77745 -2.70919e-18)
(14.4308 0.704269 3.6012e-19)
(10.7887 8.48381 -4.31842e-19)
(11.3589 8.00882 -2.47131e-18)
(11.9484 7.31728 -8.74393e-19)
(12.4724 6.4941 4.02808e-19)
(12.9525 5.64392 -2.47528e-19)
(13.3146 4.73486 1.92401e-18)
(13.6393 3.79395 7.46321e-19)
(13.8352 2.79161 1.08736e-18)
(14.0065 1.79219 1.26315e-18)
(14.0223 0.743901 -5.10594e-19)
(11.0948 7.91958 -1.62445e-18)
(11.4725 7.63868 2.72825e-18)
(11.8756 6.97021 -4.23463e-18)
(12.3056 6.18677 -8.04355e-20)
(12.7516 5.40667 3.2591e-18)
(13.0557 4.55101 1.5436e-19)
(13.3581 3.66569 1.35042e-18)
(13.507 2.7029 -2.75632e-18)
(13.6865 1.75789 -2.09147e-20)
(13.6613 0.743475 2.36126e-19)
(1.2356 11.9247 1.2335e-19)
(1.221 12.1802 -5.41528e-20)
(1.2452 12.4454 -2.93964e-20)
(1.24377 12.7486 3.7069e-19)
(1.21596 13.1107 -1.68266e-19)
(1.16837 13.5654 -5.89503e-19)
(1.11886 14.2052 6.49154e-19)
(1.25184 15.2146 2.07696e-19)
(1.21724 16.5363 2.90767e-19)
(-2.92215 17.6603 1.34357e-18)
(2.22567 11.755 3.15984e-19)
(2.21959 12.0703 -9.8843e-19)
(2.25142 12.3767 9.8631e-19)
(2.26462 12.7096 1.9854e-19)
(2.26112 13.0959 -3.91709e-19)
(2.24783 13.5747 4.56282e-19)
(2.24829 14.2407 1.54233e-18)
(2.45856 15.2579 -1.97293e-18)
(2.51909 16.5658 3.65766e-20)
(-1.5412 17.9112 -1.53749e-18)
(3.1528 11.675 1.26674e-18)
(3.18172 11.9783 -1.76865e-18)
(3.23917 12.2778 -7.0607e-19)
(3.28221 12.6123 -5.88352e-20)
(3.31308 13.0081 -6.5685e-19)
(3.33998 13.5029 -2.86596e-19)
(3.39386 14.1886 4.86892e-19)
(3.6815 15.2055 1.34794e-18)
(3.83369 16.49 1.00241e-18)
(-0.136135 18.0511 -2.69389e-18)
(4.19127 11.3435 1.18196e-18)
(4.20922 11.7115 -1.41697e-18)
(4.26503 12.054 -1.39623e-18)
(4.32178 12.4167 8.49506e-19)
(4.37847 12.8325 4.2316e-18)
(4.44241 13.3449 -1.62351e-18)
(4.54953 14.0466 1.26992e-18)
(4.91311 15.056 -4.08284e-18)
(5.15278 16.3086 -4.50447e-18)
(1.28412 18.0805 5.21441e-18)
(5.11202 11.1521 8.59313e-19)
(5.16425 11.4882 -6.17416e-19)
(5.25008 11.8112 1.78898e-18)
(5.34297 12.1665 -1.57692e-18)
(5.43741 12.5842 1.1273e-18)
(5.54373 13.1045 9.91046e-19)
(5.70644 13.8147 9.83199e-19)
(6.14471 14.8084 6.90129e-19)
(6.46651 16.0216 2.65085e-18)
(2.70998 17.9985 2.33882e-18)
(6.15741 10.6485 -2.54796e-18)
(6.18098 11.0679 -7.5503e-19)
(6.26131 11.4395 3.11e-18)
(6.37028 11.8199 -3.40503e-18)
(6.49292 12.2506 -1.59054e-18)
(6.63854 12.7788 -3.75669e-18)
(6.85673 13.4921 2.41164e-19)
(7.36785 14.4622 -3.78869e-18)
(7.76699 15.6285 -4.46308e-19)
(4.1326 17.8048 -7.08844e-18)
(7.04997 10.3083 3.59517e-18)
(7.10969 10.7002 -6.42191e-18)
(7.22451 11.0509 3.54327e-18)
(7.3705 11.4184 1.85718e-18)
(7.52923 11.8441 -3.89465e-19)
(7.71678 12.3708 5.0005e-18)
(7.99125 13.0795 -3.31189e-18)
(8.573 14.0178 -7.65935e-18)
(9.04273 15.1301 -9.52317e-19)
(5.54138 17.498 6.54631e-18)
(8.11359 9.60335 -3.60905e-20)
(8.1143 10.1251 2.99551e-18)
(8.20313 10.5412 -1.437e-18)
(8.35657 10.93 1.39702e-18)
(8.54186 11.3585 1.48994e-18)
(8.76992 11.881 -2.34915e-18)
(9.10077 12.5781 1.64774e-18)
(9.75062 13.4758 -3.40405e-18)
(10.2859 14.527 9.81609e-18)
(6.927 17.0796 -3.17611e-18)
(9.04282 9.09889 -1.63109e-18)
(9.04814 9.62283 -9.06941e-19)
(9.13501 10.0196 4.02901e-18)
(9.30542 10.3872 -5.70606e-18)
(9.52103 10.8018 5.56389e-18)
(9.78975 11.3118 -2.78862e-18)
(10.1756 11.9893 -4.71931e-18)
(10.8895 12.8371 8.60086e-19)
(11.4824 13.8208 -1.63961e-17)
(8.27784 16.5479 1.19437e-17)
(10.1666 8.34324 4.18531e-18)
(10.0194 8.98074 -3.9562e-18)
(10.0203 9.42665 4.05988e-18)
(10.2022 9.7845 -3.23623e-19)
(10.4547 10.179 -4.16711e-18)
(10.7651 10.6681 -2.16026e-18)
(11.2042 11.3159 2.50031e-18)
(11.9789 12.1038 6.36727e-18)
(12.6254 13.0125 7.6658e-18)
(9.58395 15.9071 -5.80472e-21)
(-6.15184 9.33599 -2.60826e-18)
(-6.461 9.01859 2.0946e-18)
(-6.70087 8.9313 -9.07745e-19)
(-6.93378 9.01414 2.09256e-18)
(-7.20523 9.1517 1.72819e-18)
(-7.5212 9.31744 2.8826e-18)
(-7.91953 9.57658 4.02623e-18)
(-8.40097 10.2149 2.11721e-18)
(-9.2814 11.1627 3.24557e-18)
(-13.4503 9.84918 -1.99984e-18)
(-5.86435 9.8033 1.49172e-18)
(-6.10528 9.60364 1.7207e-18)
(-6.23444 9.60581 -2.83283e-18)
(-6.38085 9.7219 -1.45835e-18)
(-6.59888 9.87166 -2.58674e-18)
(-6.88315 10.052 4.86884e-18)
(-7.25728 10.3386 -2.10588e-18)
(-7.69747 11.018 -4.84416e-18)
(-8.51865 12.0313 -3.6273e-18)
(-12.7643 10.9707 5.0737e-18)
(-5.26177 10.2048 -4.96385e-19)
(-5.52119 10.1292 3.53534e-19)
(-5.6425 10.197 -3.80572e-18)
(-5.76357 10.3422 2.54703e-18)
(-5.9493 10.5135 2.19979e-18)
(-6.20241 10.7204 -1.50928e-18)
(-6.54576 11.0441 3.34905e-20)
(-6.93587 11.7691 8.23214e-18)
(-7.6871 12.8454 9.77663e-19)
(-11.9858 12.0375 -4.13202e-18)
(-4.54521 10.5791 -3.70436e-18)
(-4.80005 10.5798 2.36504e-18)
(-4.92495 10.6934 -6.52549e-19)
(-5.04711 10.8704 1.67798e-18)
(-5.22345 11.0739 -4.71862e-18)
(-5.45814 11.3181 8.82252e-20)
(-5.77404 11.6868 9.61512e-19)
(-6.11104 12.4608 -2.97334e-19)
(-6.78557 13.5965 -5.40819e-19)
(-11.1171 13.0413 4.8979e-18)
(-3.83446 10.9669 3.05591e-18)
(-4.05287 11.0093 1.18674e-19)
(-4.15572 11.1451 -1.83557e-18)
(-4.26655 11.3402 2.14351e-20)
(-4.43113 11.5697 3.31321e-19)
(-4.64929 11.8497 -3.20686e-18)
(-4.93876 12.2645 8.06329e-19)
(-5.22067 13.0871 -8.01925e-19)
(-5.81407 14.2769 -1.21855e-19)
(-10.1609 13.9726 -6.2811e-18)
(-3.0691 11.2554 -9.74931e-20)
(-3.25588 11.3535 2.40103e-18)
(-3.33777 11.5229 -2.27009e-18)
(-3.4344 11.742 2.29831e-19)
(-3.58329 11.9993 -4.44362e-19)
(-3.78213 12.3146 2.69485e-18)
(-4.04273 12.7746 4.95097e-19)
(-4.26621 13.643 3.384e-19)
(-4.77421 14.8794 1.99853e-18)
(-9.1211 14.8234 1.29491e-18)
(-2.28638 11.5401 -1.58688e-18)
(-2.43528 11.6748 1.88254e-18)
(-2.49274 11.861 9.69775e-20)
(-2.56998 12.0928 2.82655e-18)
(-2.69638 12.3697 -1.61978e-18)
(-2.8691 12.7147 1.159e-18)
(-3.09449 13.2159 -1.10627e-18)
(-3.25396 14.1246 2.49504e-18)
(-3.67219 15.3981 2.48968e-18)
(-8.00391 15.5863 2.54706e-18)
(-1.42412 11.6958 -9.96357e-19)
(-1.54838 11.8839 1.25937e-18)
(-1.59316 12.1046 -6.08025e-19)
(-1.65831 12.3625 -4.70562e-19)
(-1.76532 12.666 1.03593e-18)
(-1.91149 13.0426 -1.85344e-18)
(-2.09843 13.5835 -1.30976e-18)
(-2.18955 14.5272 4.4902e-18)
(-2.51389 15.828 -8.49029e-19)
(-6.81722 16.2562 -3.0142e-18)
(-0.575617 11.8713 -1.00829e-18)
(-0.658172 12.075 2.1901e-19)
(-0.677905 12.3036 1.47122e-19)
(-0.72171 12.5721 9.84149e-21)
(-0.802836 12.8937 -6.90567e-19)
(-0.917504 13.2972 2.22766e-18)
(-1.06118 13.874 -2.08989e-18)
(-1.07985 14.8462 -2.40606e-19)
(-1.30845 16.1639 6.88448e-20)
(-5.56887 16.8277 -2.29933e-18)
(0.349506 11.8778 3.06763e-19)
(0.290327 12.1306 5.10793e-20)
(0.284789 12.3945 -1.1708e-19)
(0.255884 12.6907 -1.59562e-19)
(0.196953 13.0386 -4.42534e-19)
(0.112816 13.4711 3.37025e-19)
(0.0139414 14.082 2.17714e-19)
(0.0698293 15.0766 3.93667e-19)
(-0.0610647 16.4017 -4.69231e-19)
(-4.26821 17.2978 4.42026e-19)
(-6.13844 8.49013 -2.8063e-18)
(-7.24905 7.13735 1.2411e-18)
(-7.5519 6.3262 -5.35214e-19)
(-8.44912 5.29187 -1.64582e-18)
(-8.74361 4.48634 -1.03415e-18)
(-9.34749 3.52499 -6.63642e-20)
(-9.57829 2.65559 -5.71111e-19)
(-9.97685 1.69894 -1.85664e-19)
(-10.1388 0.795108 -2.17151e-19)
(-10.3682 -0.140683 9.87093e-20)
(-6.76233 8.24156 -1.87638e-18)
(-7.54991 7.16297 -1.42915e-18)
(-7.94355 6.31443 -1.95081e-18)
(-8.65956 5.33201 3.66142e-19)
(-9.00785 4.51118 8.13254e-19)
(-9.5317 3.57539 1.2662e-18)
(-9.80239 2.70775 -5.26369e-19)
(-10.1586 1.76865 1.74412e-18)
(-10.3416 0.866126 1.82056e-19)
(-10.5427 -0.0658568 -1.56257e-19)
(-7.18835 8.13794 5.43675e-18)
(-7.8073 7.25142 -7.07909e-19)
(-8.28233 6.39887 3.24465e-18)
(-8.8759 5.46751 8.53811e-19)
(-9.27945 4.61479 -3.19617e-18)
(-9.74601 3.68969 -1.87067e-18)
(-10.056 2.80491 -7.7171e-19)
(-10.384 1.86856 3.49806e-19)
(-10.5895 0.953996 -8.022e-19)
(-10.775 0.015245 1.11455e-19)
(-7.50034 8.21849 1.33059e-18)
(-8.07642 7.3848 2.79433e-18)
(-8.59383 6.5321 2.34181e-19)
(-9.12858 5.63129 1.33993e-18)
(-9.56355 4.75197 1.99761e-18)
(-9.99648 3.82887 1.94408e-19)
(-10.3311 2.92166 1.35187e-18)
(-10.6426 1.98003 6.22397e-19)
(-10.8643 1.0473 9.83956e-19)
(-11.0426 0.0958626 -1.33812e-19)
(-7.8002 8.36093 4.18553e-18)
(-8.37012 7.5336 -4.86876e-18)
(-8.90191 6.67728 -4.54648e-19)
(-9.40997 5.78934 6.49479e-19)
(-9.85567 4.89462 -8.9367e-19)
(-10.2697 3.97133 -1.55998e-18)
(-10.6145 3.04666 -2.56196e-18)
(-10.9167 2.0984 2.07563e-18)
(-11.1476 1.14885 -2.36248e-19)
(-11.3238 0.184265 -6.15829e-20)
(-8.12802 8.52479 -6.95947e-18)
(-8.69804 7.69231 4.01101e-18)
(-9.23022 6.82863 1.51113e-18)
(-9.72357 5.93961 2.33577e-19)
(-10.1672 5.03365 1.49612e-18)
(-10.5676 4.10629 -2.14207e-18)
(-10.9114 3.16831 -1.98248e-18)
(-11.2054 2.21235 -1.18266e-19)
(-11.4373 1.24853 4.01202e-19)
(-11.611 0.271609 2.81799e-19)
(-8.53708 8.76578 -1.55379e-18)
(-9.10925 7.91653 -1.14762e-18)
(-9.63717 7.03722 -3.99019e-19)
(-10.1193 6.13473 1.59459e-18)
(-10.5533 5.21357 -4.61556e-18)
(-10.9395 4.27466 -1.57069e-18)
(-11.2734 3.32209 2.48756e-18)
(-11.5552 2.35444 6.18326e-19)
(-11.7793 1.3758 4.43938e-19)
(-11.9451 0.384968 -2.55694e-19)
(-9.04828 9.36781 -4.57136e-18)
(-9.64008 8.48524 -4.58571e-18)
(-10.1783 7.5747 7.56415e-18)
(-10.6641 6.64236 1.59235e-18)
(-11.098 5.69197 6.47136e-18)
(-11.4802 4.72577 2.03873e-19)
(-11.8093 3.74567 -2.01877e-18)
(-12.0843 2.75199 2.64794e-18)
(-12.3025 1.74625 -6.97454e-20)
(-12.4616 0.728749 6.05867e-19)
(-9.97397 10.2487 5.84255e-19)
(-10.5992 9.29762 6.87124e-18)
(-11.158 8.31982 -6.94961e-18)
(-11.6549 7.31975 4.5523e-18)
(-12.0907 6.30244 -6.97613e-18)
(-12.4668 5.27037 8.7799e-19)
(-12.7829 4.22597 -2.49259e-18)
(-13.0388 3.17044 9.42043e-19)
(-13.2327 2.10523 1.27826e-19)
(-13.3622 1.03188 -3.26051e-19)
(-14.0397 8.68215 1.76208e-18)
(-14.5335 7.48411 -4.97246e-18)
(-14.9391 6.2627 2.3325e-18)
(-15.2564 5.02663 -2.01767e-18)
(-15.4889 3.7815 8.5147e-19)
(-15.6371 2.53331 4.25654e-18)
(-15.703 1.28676 5.09633e-19)
(-15.6871 0.0465167 1.20003e-18)
(-15.5899 -1.18327 -5.74416e-19)
(-15.41 -2.39807 -1.40615e-19)
(-10.4229 -1.03349 8.38373e-20)
(-10.4778 -1.93983 -3.63954e-19)
(-10.4033 -2.823 1.76562e-18)
(-10.3064 -3.70585 -1.15905e-18)
(-10.1168 -4.5567 1.05996e-19)
(-9.88885 -5.37382 -9.69511e-19)
(-9.56201 -6.1439 4.67323e-18)
(-9.17342 -6.90257 3.47173e-19)
(-8.78465 -7.59838 -1.35435e-18)
(-8.46014 -7.98317 2.7742e-18)
(-10.6089 -0.970993 3.37952e-19)
(-10.6497 -1.88744 -8.48697e-19)
(-10.5824 -2.78769 -7.39689e-19)
(-10.4718 -3.68628 -5.1806e-19)
(-10.2719 -4.56062 -1.38385e-18)
(-10.018 -5.40916 -1.15125e-19)
(-9.67608 -6.22489 -2.86466e-19)
(-9.25505 -7.02047 1.28513e-18)
(-8.7478 -7.74663 2.96575e-18)
(-8.21419 -8.30676 -3.70312e-19)
(-10.8556 -0.907729 -2.38214e-19)
(-10.8912 -1.83889 1.8175e-18)
(-10.8352 -2.75706 3.43016e-19)
(-10.7226 -3.67012 -1.21251e-19)
(-10.5271 -4.56213 1.56132e-18)
(-10.2693 -5.4329 7.13855e-19)
(-9.93129 -6.27615 1.37531e-18)
(-9.51244 -7.08621 -1.0435e-18)
(-8.98873 -7.83134 -2.50391e-18)
(-8.37646 -8.50333 -5.79011e-18)
(-11.1354 -0.848587 3.12186e-19)
(-11.17 -1.79941 -8.58856e-19)
(-11.1228 -2.74105 1.0662e-18)
(-11.0101 -3.67649 -2.50092e-18)
(-10.8183 -4.59436 -1.35094e-18)
(-10.5577 -5.49343 -5.62425e-19)
(-10.2189 -6.36499 -2.98803e-18)
(-9.79892 -7.19733 -1.24673e-18)
(-9.27975 -7.97635 5.14183e-20)
(-8.66062 -8.71841 1.91736e-18)
(-11.4258 -0.780382 1.7576e-19)
(-11.4627 -1.75102 3.13977e-20)
(-11.4233 -2.7169 7.65051e-19)
(-11.313 -3.67788 2.27193e-18)
(-11.1251 -4.62561 -4.05404e-19)
(-10.8629 -5.55679 -3.23478e-18)
(-10.5206 -6.4616 5.25736e-18)
(-10.095 -7.32962 -1.55367e-18)
(-9.57702 -8.15635 -1.28237e-18)
(-8.96492 -8.95522 -5.46323e-19)
(-11.7169 -0.710402 -4.93379e-19)
(-11.7555 -1.69882 4.71026e-19)
(-11.7211 -2.68651 1.32658e-18)
(-11.6138 -3.67148 -1.25604e-18)
(-11.4296 -4.64721 2.61131e-18)
(-11.1677 -5.60891 -3.04236e-19)
(-10.8236 -6.54763 2.62473e-19)
(-10.3943 -7.45603 1.43125e-18)
(-9.87633 -8.33247 9.67253e-19)
(-9.26996 -9.18263 4.142e-19)
(-12.0466 -0.613942 8.83739e-20)
(-12.0813 -1.61968 -9.5385e-20)
(-12.0454 -2.6276 2.25796e-18)
(-11.9367 -3.63469 -2.67864e-18)
(-11.7521 -4.63554 -4.58508e-18)
(-11.4888 -5.62481 2.33653e-18)
(-11.1431 -6.59527 -1.1692e-18)
(-10.7124 -7.54173 1.20781e-18)
(-10.1955 -8.46248 3.29332e-18)
(-9.59351 -9.35788 -3.35398e-18)
(-12.5574 -0.29787 -1.15487e-19)
(-12.5863 -1.3308 -1.74741e-18)
(-12.5455 -2.36681 2.27498e-18)
(-12.4324 -3.40247 1.204e-18)
(-12.2439 -4.43303 -3.8789e-18)
(-11.9773 -5.45323 -2.95159e-18)
(-11.6296 -6.45744 -3.06257e-19)
(-11.199 -7.44166 3.04204e-19)
(-10.6849 -8.40358 7.11385e-19)
(-10.0884 -9.34117 -1.33764e-18)
(-13.4234 -0.0458844 1.79971e-19)
(-13.4138 -1.12545 2.5843e-18)
(-13.332 -2.20195 9.1134e-19)
(-13.1761 -3.27274 -3.1952e-18)
(-12.944 -4.33272 2.99931e-18)
(-12.6339 -5.37721 -3.88022e-18)
(-12.2447 -6.40155 4.9221e-18)
(-11.7762 -7.40278 -5.70074e-18)
(-11.2288 -8.37853 -2.98805e-18)
(-10.6033 -9.32551 -8.21942e-18)
(-15.145 -3.59198 -5.65341e-20)
(-14.7966 -4.75743 -8.9163e-19)
(-14.3672 -5.89236 6.71286e-19)
(-13.8567 -6.98956 7.27006e-19)
(-13.2664 -8.04437 -1.60042e-18)
(-12.5976 -9.05041 1.50233e-18)
(-11.8531 -10.0031 -1.90928e-18)
(-11.0368 -10.8983 1.47365e-18)
(-10.1527 -11.7333 -3.71615e-18)
(-9.20435 -12.5036 4.06852e-18)
(-8.19566 -13.2031 5.98652e-18)
(-9.90217 -10.2379 -3.51824e-18)
(-9.41104 -10.2498 -3.07914e-18)
(-8.90872 -10.2248 3.9053e-18)
(-8.57865 -10.0071 -1.91502e-19)
(-8.26481 -9.73621 3.45055e-18)
(-7.95318 -9.45417 2.37574e-19)
(-7.68237 -9.17151 -2.45185e-18)
(-7.56946 -8.83845 3.99177e-18)
(-7.78796 -8.31278 -6.736e-19)
(-7.13686 -13.829 -6.47637e-18)
(-9.12672 -11.111 1.36004e-17)
(-8.65521 -11.1214 -7.27332e-19)
(-8.14517 -11.0555 -3.40481e-18)
(-7.81108 -10.7972 2.35167e-18)
(-7.49501 -10.4866 -4.75143e-18)
(-7.18357 -10.1694 4.89375e-18)
(-6.90393 -9.86435 -3.44388e-18)
(-6.7016 -9.56366 8.03696e-19)
(-6.70517 -9.16529 1.98283e-18)
(-6.03199 -14.387 3.85431e-18)
(-8.28313 -11.9421 -8.39853e-18)
(-7.82546 -11.9526 2.84435e-18)
(-7.30917 -11.8445 -1.28803e-18)
(-6.97548 -11.5464 2.06269e-18)
(-6.66356 -11.198 -1.36303e-18)
(-6.35795 -10.8464 -1.19432e-18)
(-6.0823 -10.5061 1.28244e-18)
(-5.87864 -10.1644 -2.65025e-18)
(-5.8624 -9.75284 3.00384e-18)
(-4.88676 -14.8724 -8.35097e-18)
(-7.37152 -12.7265 8.51802e-19)
(-6.92468 -12.735 2.76835e-18)
(-6.40567 -12.5825 3.08234e-18)
(-6.0778 -12.2447 -4.63997e-18)
(-5.77485 -11.8615 3.32556e-19)
(-5.47633 -11.4848 -1.72931e-18)
(-5.20052 -11.1369 -3.20276e-18)
(-4.97241 -10.8253 5.86811e-18)
(-4.88508 -10.5083 1.36912e-18)
(-3.70471 -15.2857 6.00411e-18)
(-6.39515 -13.4587 1.08887e-18)
(-5.95685 -13.4623 3.5707e-18)
(-5.44 -13.2622 -2.10149e-19)
(-5.12422 -12.8839 3.58571e-18)
(-4.83824 -12.4651 1.55794e-18)
(-4.55999 -12.0581 3.21806e-18)
(-4.30984 -11.6832 -2.95795e-18)
(-4.11031 -11.3428 -1.79266e-19)
(-4.01905 -11.0103 -1.95494e-18)
(-2.49035 -15.6226 4.14003e-18)
(-5.35563 -14.1313 -3.65873e-18)
(-4.92544 -14.1254 -6.09187e-19)
(-4.41698 -13.8748 -9.77981e-19)
(-4.11947 -13.4562 -9.64695e-19)
(-3.8553 -13.0048 -1.07512e-18)
(-3.59884 -12.5747 1.57678e-18)
(-3.36764 -12.1887 -1.77003e-18)
(-3.17228 -11.8553 1.54717e-18)
(-3.04997 -11.5578 1.05497e-19)
(-1.24781 -15.8811 -7.29248e-18)
(-4.25645 -14.7368 -2.62116e-18)
(-3.83529 -14.7163 4.25418e-18)
(-3.34284 -14.4126 -1.32406e-18)
(-3.07105 -13.954 1.66115e-18)
(-2.83642 -13.4708 -4.34731e-18)
(-2.61138 -13.0154 3.06399e-18)
(-2.41233 -12.6076 -9.81026e-19)
(-2.24272 -12.2513 1.45697e-18)
(-2.11928 -11.9318 -1.47086e-18)
(0.0181617 -16.0569 3.36677e-18)
(-3.10109 -15.2663 -1.06954e-18)
(-2.69153 -15.2261 -1.41918e-18)
(-2.22375 -14.8676 -5.25799e-19)
(-1.98458 -14.3709 3.19609e-19)
(-1.78383 -13.8603 6.89946e-19)
(-1.5906 -13.3868 -1.30532e-18)
(-1.417 -12.9705 7.62469e-19)
(-1.25727 -12.6162 1.8932e-18)
(-1.12371 -12.3132 -1.47249e-18)
(1.30248 -16.1456 2.58084e-18)
(-1.89472 -15.7111 -3.45748e-20)
(-1.50078 -15.6466 2.18766e-18)
(-1.0674 -15.2328 -1.70547e-18)
(-0.868746 -14.7003 4.63853e-19)
(-0.708721 -14.1649 -4.80516e-19)
(-0.554537 -13.6744 -2.1409e-19)
(-0.415193 -13.2461 -1.0909e-18)
(-0.279224 -12.881 1.10216e-18)
(-0.159464 -12.5681 8.00404e-19)
(2.5988 -16.1403 -4.8813e-19)
(-0.643924 -16.0614 -3.24829e-19)
(-0.270491 -15.9695 -2.33051e-19)
(0.118664 -15.5019 -7.41243e-19)
(0.26992 -14.9373 6.76617e-19)
(0.385061 -14.3821 1.86617e-19)
(0.498616 -13.8809 -4.24124e-19)
(0.605739 -13.4495 3.19064e-20)
(0.722513 -13.0888 -1.82644e-19)
(0.824342 -12.7931 2.70214e-21)
(1.40858 -11.9551 -1.61872e-20)
(0.598332 -9.3083 -4.0713e-21)
(0.1988 -6.91926 1.01772e-20)
(0.39459 -5.38428 -3.96199e-21)
(0.464612 -4.01051 -2.26408e-22)
(0.466415 -2.81531 -7.86212e-22)
(0.47144 -1.92836 1.6694e-22)
(0.454358 -1.27969 -1.70272e-22)
(0.442521 -0.835664 1.06679e-22)
(0.433668 -0.53713 5.16181e-23)
(0.434043 -0.331241 -1.63969e-22)
(0.429398 -0.188651 6.62405e-23)
(0.423261 -0.0758 -5.66973e-23)
(0.405808 0.0026302 -1.45845e-22)
(0.396593 0.0663206 2.44224e-23)
(0.403392 0.0831703 -4.61218e-23)
(0.416903 0.0827236 1.80268e-23)
(0.456168 0.0740798 1.10584e-23)
(0.491199 0.01406 -1.14052e-23)
(0.424404 0.0481943 -1.74658e-23)
(2.25978 -12.1054 1.06703e-19)
(1.22364 -9.49774 2.69256e-20)
(0.548976 -7.04758 -1.97607e-20)
(0.5561 -5.43174 4.16003e-21)
(0.567961 -4.05185 -5.66569e-21)
(0.530278 -2.84147 -7.18052e-22)
(0.497662 -1.93511 -2.59518e-22)
(0.459763 -1.2818 -3.10238e-22)
(0.435104 -0.836489 1.54804e-22)
(0.418814 -0.537999 4.71461e-23)
(0.414505 -0.331961 1.90277e-23)
(0.407426 -0.188607 4.4926e-22)
(0.399557 -0.074974 -5.64064e-22)
(0.382338 0.00365715 -1.31186e-22)
(0.373811 0.0661346 9.89353e-23)
(0.383997 0.0819083 7.05455e-23)
(0.3973 0.0804865 -1.39501e-22)
(0.437419 0.0711482 1.50702e-22)
(0.466259 0.0151642 2.70028e-23)
(0.398706 0.0506116 4.15516e-23)
(3.02842 -12.0438 -2.18739e-19)
(1.82161 -9.56654 9.16434e-20)
(0.911393 -7.15755 9.30644e-20)
(0.732018 -5.49009 -2.50406e-20)
(0.676515 -4.09681 9.8101e-22)
(0.599387 -2.87393 -4.55267e-21)
(0.528082 -1.94738 -2.3257e-22)
(0.46727 -1.28722 -6.35743e-22)
(0.429312 -0.839474 -1.8085e-22)
(0.40538 -0.540204 -2.0824e-22)
(0.396263 -0.333532 -8.68502e-23)
(0.386732 -0.189151 2.50372e-23)
(0.377291 -0.0746015 5.83065e-22)
(0.360439 0.00430958 -2.5859e-22)
(0.352738 0.0656217 -2.22046e-22)
(0.365871 0.0805097 2.19808e-22)
(0.37881 0.0782683 -4.58544e-23)
(0.419402 0.0684827 -7.8549e-23)
(0.442347 0.0165407 -1.08196e-22)
(0.375035 0.0530344 7.02479e-23)
(3.86572 -12.0514 -6.30948e-20)
(2.46141 -9.65651 1.67414e-19)
(1.30972 -7.25099 -6.84178e-20)
(0.929592 -5.53508 -1.2713e-20)
(0.791874 -4.13069 7.73102e-21)
(0.673138 -2.90515 -4.41031e-22)
(0.562871 -1.9632 1.26043e-21)
(0.477202 -1.29557 -2.79909e-22)
(0.425311 -0.844537 6.98276e-22)
(0.393483 -0.543725 5.1497e-22)
(0.379398 -0.335951 -1.13104e-21)
(0.367367 -0.190299 1.60515e-22)
(0.356477 -0.0747041 -6.66641e-23)
(0.340088 0.00457825 4.31363e-22)
(0.333294 0.064808 1.15936e-22)
(0.348932 0.0790107 -1.58801e-22)
(0.361376 0.0760938 -1.28219e-22)
(0.40214 0.0660819 -2.05474e-22)
(0.419539 0.0181318 1.73741e-22)
(0.35339 0.0554221 -1.49344e-22)
(4.64443 -11.9186 1.42821e-20)
(3.09395 -9.62217 1.70497e-20)
(1.72724 -7.25852 7.99109e-21)
(1.14287 -5.53427 2.75206e-20)
(0.910511 -4.14256 9.77937e-21)
(0.748562 -2.93119 6.48585e-21)
(0.601075 -1.98142 -2.30345e-21)
(0.489596 -1.30653 5.31713e-22)
(0.423199 -0.851536 4.16453e-22)
(0.383213 -0.548507 6.08464e-22)
(0.363978 -0.339198 -1.25896e-22)
(0.349371 -0.192056 -1.0472e-21)
(0.337115 -0.0752933 -1.2045e-22)
(0.321245 0.00446298 7.19081e-22)
(0.31539 0.0637235 4.7956e-22)
(0.333105 0.0774451 -2.19706e-22)
(0.344953 0.0739823 5.18395e-22)
(0.38566 0.0639382 6.58352e-23)
(0.397895 0.0198806 5.80964e-23)
(0.333753 0.0577371 -1.53632e-23)
(5.45933 -11.7554 -5.01149e-19)
(3.75846 -9.5044 -6.94236e-20)
(2.16587 -7.19622 4.01932e-20)
(1.36552 -5.51131 -7.23359e-20)
(1.0275 -4.15741 -2.46197e-20)
(0.822648 -2.96614 -1.87332e-20)
(0.641738 -2.00662 2.89543e-21)
(0.504471 -1.32097 6.25135e-22)
(0.42304 -0.86049 -1.08781e-21)
(0.374633 -0.554497 -5.48504e-22)
(0.350049 -0.343233 -3.5e-22)
(0.332763 -0.194405 9.84266e-22)
(0.319191 -0.0763608 -4.13838e-22)
(0.303859 0.00397905 -4.39156e-22)
(0.298936 0.0624061 -3.32529e-22)
(0.318322 0.0758467 3.89706e-22)
(0.329504 0.0719503 3.37604e-23)
(0.369988 0.06204 1.24034e-22)
(0.377462 0.0217333 -1.06224e-22)
(0.316087 0.0599461 5.48044e-23)
(6.24111 -11.431 5.02987e-19)
(4.41221 -9.3568 1.6367e-19)
(2.61012 -7.19682 -2.38044e-21)
(1.59525 -5.57483 8.83509e-20)
(1.14507 -4.24459 -2.5118e-20)
(0.898146 -3.04406 2.76409e-21)
(0.68668 -2.0508 7.84578e-21)
(0.522664 -1.34212 -1.07968e-21)
(0.425037 -0.872154 -2.98182e-21)
(0.367801 -0.561874 1.46368e-22)
(0.337646 -0.3481 -7.29882e-22)
(0.317553 -0.19736 1.21747e-21)
(0.302676 -0.0779089 -7.19795e-22)