/*--------------------------------*- C++ -*----------------------------------*\
  =========                 |
  \\      /  F ield         | OpenFOAM: The Open Source CFD Toolbox
   \\    /   O peration     | Website:  https://openfoam.org
    \\  /    A nd           | Version:  6.0
     \\/     M anipulation  |
\*---------------------------------------------------------------------------*/
FoamFile
{
    version     2.0;
    format      ascii;
    class       surfaceScalarField;
    location    "19";
    object      phi;
}
// * * * * * * * * * * * * * * * * * * * * * * * * * * * * * * * * * * * * * //

dimensions      [0 3 -1 0 0 0 0];

internalField   nonuniform List<scalar> 
18940
(
-2.58981e-05
-0.011686
0.0117119
-8.26863e-05
-0.0102798
0.0103366
-0.000159284
-0.00905304
0.00912963
-0.000247028
-0.00798668
0.00807442
-0.000339157
-0.00706182
0.00715395
-0.000430619
-0.00626061
0.00635207
-0.000517765
-0.00556673
0.00565388
-0.000598069
-0.00496553
0.00504583
-0.000669917
-0.00444401
0.00451586
-0.000732441
-0.00399078
0.00405331
-0.000785378
-0.0035959
0.00364884
-0.000828965
-0.00325076
0.00329435
-0.000863848
-0.00294795
0.00298283
-0.000890997
-0.00268114
0.00270829
-0.000911639
-0.00244494
0.00246558
-0.000927184
-0.00223482
0.00225036
-0.000939157
-0.00204701
0.00205899
-0.000949127
-0.00187844
0.00188841
-0.000958687
-0.00172647
0.00173603
-0.00158882
0.00159958
-0.000969448
-2.40333e-05
-0.0116619
-7.86554e-05
-0.0102252
-0.000151407
-0.00898028
-0.000233111
-0.00790498
-0.000316873
-0.00697806
-0.000397602
-0.00617988
-0.000471647
-0.00549269
-0.000536503
-0.00490067
-0.000590597
-0.00438992
-0.000633108
-0.00394827
-0.00066384
-0.00356517
-0.000683107
-0.00323149
-0.000691649
-0.00293941
-0.000690555
-0.00268223
-0.00068119
-0.0024543
-0.000665132
-0.00225088
-0.000644101
-0.00206804
-0.000619883
-0.00190265
-0.000594308
-0.00175204
-0.00161389
-0.000569241
-2.27816e-05
-0.0116392
-7.40424e-05
-0.0101739
-0.000141116
-0.00891321
-0.000214543
-0.00783155
-0.000287296
-0.0069053
-0.000354236
-0.00611294
-0.000411701
-0.00543522
-0.000457205
-0.00485517
-0.0004892
-0.00435792
-0.000506904
-0.00393057
-0.000510164
-0.00356191
-0.000499356
-0.0032423
-0.000475299
-0.00296347
-0.00043919
-0.00271834
-0.000392536
-0.00250096
-0.000337096
-0.00230632
-0.000274809
-0.00213033
-0.000207728
-0.00196973
-0.000137983
-0.00182179
-0.00168411
-6.77681e-05
-2.14419e-05
-0.0116177
-6.84777e-05
-0.0101269
-0.000128326
-0.00885336
-0.000191409
-0.00776846
-0.000250637
-0.00684608
-0.000300851
-0.00606273
-0.000338399
-0.00539767
-0.000360812
-0.00483275
-0.000366566
-0.00435217
-0.000354899
-0.00394223
-0.000325687
-0.00359112
-0.000279342
-0.00328865
-0.000216743
-0.00302607
-0.000139176
-0.00279591
-4.828e-05
-0.00259185
5.40018e-05
-0.0024086
0.000165486
-0.00224182
0.000283817
-0.00208807
0.000406499
-0.00194447
-0.00180852
0.000530918
-1.98466e-05
-0.0115979
-6.18024e-05
-0.0100849
-0.000112979
-0.00880219
-0.00016376
-0.00771768
-0.000207056
-0.00680278
-0.000237733
-0.00603205
-0.000252176
-0.00538323
-0.000247947
-0.00483698
-0.000223542
-0.00437657
-0.000178213
-0.00398756
-0.000111841
-0.00365749
-2.48491e-05
-0.00337564
8.18544e-05
-0.00313277
0.000206923
-0.00292098
0.000348605
-0.00273353
0.000504784
-0.00256478
0.000673024
-0.00241006
0.000850631
-0.00226567
0.00103468
-0.00212852
-0.0019959
0.00122206
-1.79514e-05
-0.0115799
-5.39556e-05
-0.0100489
-9.50455e-05
-0.0087611
-0.000131624
-0.0076811
-0.000156661
-0.00677774
-0.000165099
-0.00602361
-0.000153391
-0.00539494
-0.000119154
-0.00487122
-6.09111e-05
-0.00443482
2.20812e-05
-0.00407056
0.000129955
-0.00376537
0.000262303
-0.00350799
0.000418229
-0.00328869
0.000596363
-0.00309911
0.000794882
-0.00293205
0.00101152
-0.00278142
0.0012436
-0.00264213
0.00148807
-0.00251014
0.00174153
-0.00238198
-0.00225462
0.00200025
-1.57396e-05
-0.0115642
-4.49023e-05
-0.0100197
-7.44916e-05
-0.00873151
-9.49901e-05
-0.00766061
-9.94905e-05
-0.00677324
-8.30662e-05
-0.00604004
-4.22843e-05
-0.00543572
2.5157e-05
-0.00493866
0.000120688
-0.00453035
0.000245048
-0.00419492
0.000398395
-0.00391872
0.000580374
-0.00368997
0.000790137
-0.00349846
0.00102635
-0.00333532
0.00128717
-0.00319287
0.00157024
-0.00306448
0.00187266
-0.00294456
0.00219103
-0.00282852
0.00252144
-0.00271239
-0.00259263
0.00285946
-1.31993e-05
-0.011551
-3.46051e-05
-0.00999834
-5.12582e-05
-0.00871485
-5.37924e-05
-0.00765807
-3.54935e-05
-0.00679154
8.37116e-06
-0.0060839
8.1066e-05
-0.00550841
0.000184767
-0.00504236
0.000320832
-0.00466641
0.000489979
-0.00436406
0.000692402
-0.00412114
0.00092782
-0.00392538
0.00119549
-0.00376612
0.00149416
-0.003634
0.00182207
-0.00352078
0.00217682
-0.00341923
0.00255538
-0.00332312
0.00295403
-0.00322716
0.00336832
-0.00312668
-0.00301737
0.00379305
-1.03151e-05
-0.0115407
-2.30114e-05
-0.00998564
-2.52497e-05
-0.00871262
-7.898e-06
-0.00767542
3.54848e-05
-0.00683492
0.000109363
-0.00615778
0.000216767
-0.00561582
0.000359689
-0.00518528
0.000539366
-0.00484609
0.00075647
-0.00458117
0.00101122
-0.00437588
0.00130342
-0.00421758
0.00163246
-0.00409517
0.00199729
-0.00399883
0.00239627
-0.00391976
0.00282711
-0.00385007
0.00328674
-0.00378274
0.00377119
-0.00371162
0.00427553
-0.00363101
-0.00353557
0.00479373
-7.06489e-06
-0.0115336
-1.00492e-05
-0.00998266
3.66847e-06
-0.00872633
4.28913e-05
-0.00771465
0.000113698
-0.00690573
0.000220202
-0.00626428
0.000365117
-0.00576073
0.00055018
-0.00537035
0.000776442
-0.00507235
0.00104447
-0.0048492
0.00135448
-0.00468589
0.00170635
-0.00456946
0.00209966
-0.00448848
0.00253357
-0.00443274
0.00300672
-0.00439291
0.00351706
-0.00436041
0.00406161
-0.0043273
0.00463635
-0.00428635
0.0052359
-0.00423057
-0.00415312
0.00585346
-3.42048e-06
-0.0115302
4.3697e-06
-0.00999045
3.56618e-05
-0.00875763
9.88249e-05
-0.00777781
0.000199479
-0.00700639
0.000341294
-0.0064061
0.000526581
-0.00594602
0.000756727
-0.00560049
0.00103251
-0.00534814
0.00135432
-0.005171
0.00172227
-0.00505385
0.00213631
-0.00498349
0.00259617
-0.00494834
0.00310131
-0.00493787
0.00365073
-0.00494234
0.00424279
-0.00495247
0.00487487
-0.00495937
0.00554304
-0.00495452
0.00624174
-0.00492927
-0.00487478
0.00696339
6.49107e-07
-0.0115308
2.03413e-05
-0.0100101
7.09085e-05
-0.00880819
0.000160174
-0.00786707
0.000293198
-0.00713941
0.000473112
-0.00658601
0.000701726
-0.00617463
0.00097998
-0.00587875
0.00130827
-0.00567643
0.00168668
-0.00554941
0.00211514
-0.00548231
0.00259354
-0.0054619
0.00312173
-0.00547653
0.00369946
-0.0055156
0.0043262
-0.00556908
0.00500089
-0.00562717
0.00572153
-0.00568001
0.00648467
-0.00571766
0.00728482
-0.00572942
-0.00570382
0.00811386
5.17453e-06
-0.011536
3.79569e-05
-0.0100429
0.000109575
-0.00887981
0.000227187
-0.00798469
0.000395195
-0.00730742
0.000616101
-0.00680692
0.000891119
-0.00644965
0.00122063
-0.00620826
0.00160453
-0.00606033
0.00204246
-0.00598734
0.002534
-0.00597385
0.00307882
-0.00600672
0.00367675
-0.00607446
0.00432776
-0.0061666
0.00503182
-0.00627314
0.00578862
-0.00638396
0.00659708
-0.00648848
0.00745469
-0.00657526
0.00835655
-0.00663128
-0.00664164
0.00929437
1.01811e-05
-0.0115462
5.72885e-05
-0.01009
0.000151783
-0.00897431
0.000300037
-0.00813294
0.000505702
-0.00751308
0.000770566
-0.00707178
0.00109517
-0.00677426
0.00147924
-0.00659233
0.00192204
-0.00650312
0.0024226
-0.0064879
0.00297996
-0.00653121
0.00359336
-0.00662012
0.00426235
-0.00674345
0.00498691
-0.00689117
0.0057674
-0.00705363
0.00660435
-0.00722091
0.00749792
-0.00738206
0.00844712
-0.00752446
0.0094484
-0.00763256
-0.00768719
0.010494
1.56862e-05
-0.0115619
7.83769e-05
-0.0101527
0.000197581
-0.00909351
0.000378761
-0.00831412
0.000624738
-0.00775906
0.000936529
-0.00738357
0.00131394
-0.00715166
0.00175597
-0.00703436
0.00226114
-0.00700829
0.00282773
-0.00705449
0.00345404
-0.00715752
0.00413855
-0.00730464
0.00488023
-0.00748513
0.00567867
-0.0076896
0.00653428
-0.00790924
0.00744826
-0.00813489
0.00842226
-0.00835605
0.00945744
-0.00855965
0.0105527
-0.00872785
-0.0088364
0.0117019
2.1702e-05
-0.0115836
0.000101226
-0.0102322
0.000246913
-0.0092392
0.0004632
-0.00853041
0.000752014
-0.00804787
0.00111357
-0.00774513
0.0015469
-0.007585
0.00205026
-0.00753773
0.00262138
-0.00757941
0.0032577
-0.00769081
0.00395656
-0.00785638
0.00471545
-0.00806353
0.00553231
-0.00830198
0.00640578
-0.00856308
0.0073357
-0.00883916
0.00832335
-0.00912255
0.00937163
-0.00940433
0.0104845
-0.00967248
0.0116648
-0.00990816
-0.0100813
0.0129097
2.82479e-05
-0.0116118
0.000125808
-0.0103298
0.000299608
-0.009413
0.000552953
-0.00878375
0.000886839
-0.00838176
0.00130067
-0.00815896
0.00179273
-0.00807706
0.00236053
-0.00810553
0.00300104
-0.00821992
0.00371085
-0.00840062
0.00448633
-0.00863186
0.00532381
-0.00890101
0.00621981
-0.00919798
0.00717144
-0.00951471
0.00817697
-0.00984469
0.00923662
-0.0101822
0.0103534
-0.0105211
0.0115336
-0.0108527
0.0127859
-0.0111604
-0.0114091
0.0141136
3.53879e-05
-0.0116472
0.000152101
-0.0104465
0.000355378
-0.00961627
0.000647346
-0.00907572
0.00102806
-0.00876248
0.00149612
-0.00862701
0.00204907
-0.00863002
0.00268378
-0.00874024
0.00339655
-0.00893269
0.00418327
-0.00918734
0.00503949
-0.00948808
0.00596048
-0.009822
0.00694133
-0.0101788
0.00797724
-0.0105506
0.00906397
-0.0109314
0.0101989
-0.0113171
0.0113825
-0.0117047
0.012621
-0.0120913
0.0139288
-0.0124681
-0.0128054
0.015325
4.33965e-05
-0.0116906
0.00018019
-0.0105833
0.000413846
-0.00984993
0.000745433
-0.00940731
0.00117405
-0.00919109
0.00169746
-0.00915042
0.00231251
-0.00924507
0.00301546
-0.00944318
0.00380212
-0.00971935
0.00466796
-0.0100532
0.00560812
-0.0104282
0.00661736
-0.0108312
0.00768998
-0.0112515
0.00881975
-0.0116804
0.00999993
-0.0121116
0.0112237
-0.0125409
0.0124858
-0.0129668
0.0137856
-0.0133911
0.0151381
-0.0138206
-0.0142711
0.0166038
5.34195e-05
-0.011744
0.000210396
-0.0107403
0.000474506
-0.010114
0.000845961
-0.00977876
0.00132272
-0.00966786
0.00190158
-0.00972927
0.0025786
-0.00992209
0.00334946
-0.010214
0.00420961
-0.0105795
0.00515438
-0.010998
0.00617909
-0.0114529
0.007279
-0.0119312
0.0084493
-0.0124218
0.00968487
-0.012916
0.01098
-0.0134068
0.0123282
-0.0138891
0.0137213
-0.0143599
0.0151479
-0.0148176
0.0165967
-0.0152694
-0.0157563
0.0180818
0.0139409
0.000151881
-0.0140928
0.0137898
0.000151103
0.0136392
0.000150586
0.0134896
0.000149567
0.0133418
0.000147829
0.0131965
0.000145325
0.0130544
0.000142069
0.0129163
0.000138106
0.0127828
0.000133497
0.0126545
0.000128309
0.0125319
0.000122609
0.0124154
0.000116465
0.0123055
0.000109938
0.0122024
0.000103085
0.0121064
9.59559e-05
0.0120178
8.85884e-05
0.0119368
8.09996e-05
0.0118637
7.31532e-05
0.0117989
6.48072e-05
5.48467e-05
0.0167413
0.000527838
-0.0171173
0.0163588
0.00053357
0.0159727
0.000536755
0.0155852
0.000537064
0.0151986
0.000534362
0.0148153
0.000528663
0.0144373
0.000520064
0.0140667
0.000508722
0.0137054
0.00049483
0.0133551
0.000478601
0.0130174
0.00046026
0.0126938
0.000440029
0.0123857
0.00041812
0.012094
0.000394731
0.0118199
0.000370042
0.0115643
0.000344206
0.011328
0.000317345
0.0111116
0.000289522
0.0109158
0.000260645
0.00023032
0.0194146
0.00107147
-0.0199583
0.0188563
0.00109192
0.0182874
0.00110568
0.0177117
0.00111271
0.017133
0.00111304
0.0165549
0.0011068
0.0159808
0.0010942
0.0154139
0.00107556
0.0148575
0.00105124
0.0143145
0.00102165
0.0137875
0.000987221
0.0132791
0.000948388
0.0127917
0.000905579
0.0123272
0.000859197
0.0118876
0.000809616
0.0114747
0.000757183
0.0110898
0.000702222
0.0107343
0.000645042
0.010409
0.000585939
0.000525254
0.0219184
0.00173533
-0.0225823
0.0212307
0.00177967
0.020524
0.0018124
0.0198031
0.00183355
0.019073
0.00184322
0.0183382
0.0018416
0.0176033
0.00182903
0.0168729
0.00180596
0.0161513
0.00177293
0.0154424
0.00173055
0.0147501
0.00167949
0.0140781
0.00162042
0.0134296
0.00155403
0.0128078
0.00148096
0.0122156
0.00140182
0.0116556
0.00131721
0.0111301
0.0012277
0.0106412
0.00113395
0.0101904
0.0010367
0.000936936
0.0242237
0.00247919
-0.0249676
0.0234462
0.00255722
0.0226403
0.00261826
0.0218117
0.0026622
0.0209658
0.00268908
0.0201083
0.00269909
0.0192447
0.0026926
0.0183806
0.00267015
0.017521
0.00263243
0.0166714
0.00258024
0.0158364
0.00251445
0.0150208
0.00243599
0.0142291
0.00234579
0.0134653
0.00224476
0.0127333
0.00213375
0.0120369
0.00201361
0.0113794
0.00188521
0.0107638
0.00174955
0.0101927
0.00160786
0.00146176
0.0263133
0.00326937
-0.0271034
0.0254795
0.00339102
0.0246076
0.00349008
0.0237037
0.00356617
0.0227736
0.00361911
0.0218237
0.00364898
0.0208602
0.00365609
0.0198894
0.00364098
0.0189174
0.00360441
0.0179504
0.00354731
0.0169941
0.00347075
0.0160542
0.00337584
0.0151362
0.00326377
0.0142453
0.00313565
0.0133865
0.00299258
0.0125645
0.00283561
0.0117839
0.00266587
0.0110487
0.00248466
0.0103629
0.00229372
0.00209537
0.0281797
0.00407813
-0.0289884
0.0273177
0.00425299
0.0264081
0.0043997
0.0254568
0.00451745
0.0244702
0.00460576
0.0234547
0.00466443
0.0224172
0.0046936
0.0213645
0.00469371
0.0203034
0.0046655
0.0192407
0.00460995
0.0181833
0.00452822
0.0171375
0.00442161
0.0161098
0.00429145
0.0151064
0.00413906
0.0141333
0.00396567
0.0131965
0.00377247
0.0123016
0.00356073
0.0114543
0.00333198
0.0106597
0.00308835
0.00283295
0.0298234
0.00488317
-0.0306285
0.0289563
0.00512007
0.0280325
0.00532353
0.0270577
0.00549222
0.0260383
0.00562517
0.0249809
0.00572184
0.0238925
0.00578203
0.0227802
0.00580597
0.0216515
0.00579426
0.0205136
0.00574783
0.0193739
0.00566788
0.0182398
0.00555577
0.0171183
0.00541293
0.0160166
0.00524079
0.0149416
0.00504061
0.0139005
0.0048136
0.0129003
0.00456095
0.011948
0.00428421
0.0110506
0.00398578
0.00366951
0.0312511
0.00566704
-0.032035
0.0303973
0.00597382
0.0294786
0.0062423
0.0285002
0.00647055
0.0274684
0.00665706
0.0263895
0.00680074
0.0252705
0.00690099
0.0241188
0.00695769
0.0229419
0.00697118
0.0217475
0.00694222
0.0205434
0.00687194
0.0193375
0.00676169
0.0181375
0.00661293
0.0169512
0.00642707
0.0157865
0.0062053
0.0146515
0.00594861
0.0135546
0.00565788
0.0125045
0.0053343
0.0115101
0.0049802
0.00460008
0.0324736
0.00641668
-0.0332233
0.0316475
0.00679991
0.0307492
0.00714063
0.0297835
0.0074362
0.0287562
0.00768445
0.0276732
0.00788369
0.0265414
0.00803278
0.025368
0.00813111
0.0241605
0.00817866
0.0229268
0.00817592
0.0216749
0.00812384
0.0204129
0.00802367
0.0191491
0.0078768
0.0178916
0.00768455
0.016649
0.00744788
0.0154303
0.00716736
0.014245
0.00684314
0.0131038
0.00647553
0.0120178
0.0060662
0.0056199
0.0335051
0.00712277
-0.0342112
0.0327172
0.00758777
0.0318511
0.00800672
0.0309111
0.00837627
0.029902
0.00869354
0.0288295
0.00895613
0.0277001
0.00916225
0.0265204
0.00931072
0.0252981
0.00940105
0.0240406
0.00943334
0.0227562
0.00940827
0.021453
0.00932692
0.0201392
0.00919054
0.0188235
0.00900028
0.0175146
0.00875678
0.016222
0.0084599
0.0149565
0.00810864
0.0137304
0.00770166
0.0125577
0.00723891
0.00672464
0.0343612
0.0077793
-0.0350177
0.033619
0.00833
0.0327938
0.00883191
0.0318891
0.00928092
0.0309093
0.00967339
0.0298593
0.0100062
0.0287448
0.0102767
0.0275723
0.0104832
0.0263488
0.0106246
0.0250816
0.0107005
0.0237787
0.0107112
0.022448
0.0106576
0.0210978
0.0105408
0.0197363
0.0103617
0.0183725
0.0101206
0.017016
0.00981646
0.015678
0.0094466
0.0143726
0.009007
0.0131172
0.00849435
0.0079107
0.0350588
0.00838291
-0.0356624
0.0343668
0.00902198
0.0335884
0.0096103
0.0327263
0.010143
0.031784
0.0106157
0.0307658
0.0110244
0.0296767
0.0113658
0.0285225
0.0116374
0.0273097
0.0118374
0.0260453
0.0119649
0.0247366
0.0120199
0.0233913
0.0120029
0.0220172
0.0119149
0.0206223
0.0117566
0.0192149
0.011528
0.0178042
0.0112272
0.0164014
0.0108494
0.0150219
0.0103865
0.0136866
0.00982967
0.00917554
0.0356145
0.00893248
-0.036164
0.0349751
0.00966138
0.034247
0.0103383
0.0334323
0.0109578
0.0325335
0.0115145
0.0315542
0.0120037
0.0304987
0.0124213
0.0293721
0.012764
0.0281801
0.0130294
0.0269292
0.0132158
0.0256262
0.0133229
0.0242782
0.0133509
0.0228925
0.0133006
0.0214761
0.013173
0.0200365
0.0129677
0.0185816
0.0126821
0.0171218
0.0123091
0.0156727
0.0118356
0.0142588
0.0112436
0.0105184
0.0360445
0.00942857
-0.0365406
0.0354582
0.0102477
0.0347822
0.0110144
0.0340176
0.0117224
0.0331663
0.0123657
0.0322311
0.0129389
0.0312154
0.013437
0.0301236
0.0138558
0.0289609
0.0141921
0.0277329
0.0144439
0.0264457
0.01461
0.025106
0.0146906
0.02372
0.0146866
0.0222939
0.014599
0.0208337
0.0144279
0.0193454
0.0141704
0.017837
0.0138175
0.0163227
0.01335
0.0148296
0.0127366
0.0119412
0.0363642
0.00987306
-0.0368087
0.0358301
0.0107819
0.0352061
0.0116384
0.0344927
0.0124357
0.0336912
0.0131673
0.0328034
0.0138267
0.0318321
0.0144083
0.0307809
0.014907
0.0296541
0.0153189
0.0284568
0.0156412
0.0271945
0.0158723
0.0258729
0.0160123
0.0244975
0.016062
0.0230734
0.0160231
0.0216048
0.0158965
0.0200949
0.0156803
0.0185478
0.0153646
0.0169733
0.0149245
0.0153985
0.0143114
0.0134506
0.0365877
0.0102688
-0.0369833
0.0361036
0.0112659
0.0355305
0.0122115
0.0348681
0.0130981
0.0341171
0.0139183
0.0332786
0.0146652
0.0323547
0.0153322
0.0313482
0.0159135
0.0302628
0.0164043
0.0291027
0.0168012
0.0278729
0.0171022
0.0265783
0.0173069
0.0252237
0.0174165
0.0238131
0.0174337
0.0223488
0.0173608
0.0208309
0.0171983
0.0192577
0.0169378
0.0176305
0.0165517
0.01597
0.0159719
0.0150607
0.0367274
0.0106191
-0.0370778
0.0362907
0.0117027
0.0357663
0.0127358
0.0351537
0.0137106
0.0344529
0.0146192
0.0336644
0.0154537
0.0327896
0.016207
0.0318306
0.0168724
0.0307906
0.0174444
0.029673
0.0179188
0.0284822
0.018293
0.0272226
0.0185665
0.0258983
0.0187408
0.0245124
0.0188195
0.0230658
0.0188074
0.0215555
0.0187085
0.0199734
0.0185199
0.0183071
0.018218
0.0165573
0.0177217
0.0168004
0.0367944
0.0109278
-0.0371032
0.0364016
0.0120955
0.0359234
0.0132141
0.0353585
0.0142755
0.0347066
0.0152711
0.0339678
0.0161926
0.0331427
0.017032
0.0322332
0.017782
0.0312414
0.0184362
0.0301705
0.0189896
0.0290242
0.0194393
0.0278065
0.0197842
0.0265211
0.0200262
0.0251706
0.0201699
0.0237555
0.0202226
0.0222711
0.0201929
0.0207043
0.0200867
0.0190268
0.0198955
0.0171993
0.0195492
0.0187302
0.0367975
-0.0370687
0.0111991
0.036445
0.012448
0.0360095
0.0136496
0.0354898
0.0147952
0.0348849
0.0158759
0.0341946
0.0168829
0.0334191
0.0178074
0.0325597
0.0186414
0.0316182
0.0193777
0.0305971
0.0200107
0.0294998
0.0205366
0.0283298
0.0209542
0.0270908
0.0212652
0.0257857
0.0214751
0.0244152
0.0215931
0.0229758
0.0216323
0.0214553
0.0216073
0.0198221
0.0215287
0.0180027
0.0213686
0.0209767
0.0154675
-3.99261e-05
-0.0154276
0.0154976
-3.01578e-05
0.0155158
-1.81079e-05
0.015521
-5.2556e-06
0.0155132
7.85487e-06
0.0154922
2.09603e-05
0.0154583
3.38959e-05
0.0154118
4.6541e-05
0.015353
5.87951e-05
0.0152824
7.0567e-05
0.0152006
8.17709e-05
0.0151083
9.23261e-05
0.0150061
0.000102156
0.0148949
0.000111191
0.0147756
0.000119366
0.014649
0.000126619
0.0145161
0.000132878
0.014378
0.000138036
0.0142362
0.000141836
0.000143462
0.0200782
-0.000187745
-0.0199304
0.0201935
-0.000145435
0.0202763
-0.000100925
0.0203263
-5.51868e-05
0.020343
-8.90601e-06
0.0203266
3.74243e-05
0.0202771
8.33972e-05
0.0201949
0.000128654
0.0200809
0.000172863
0.0199357
0.000215709
0.0197606
0.000256883
0.0195569
0.00029609
0.019326
0.000333046
0.0190697
0.000367481
0.0187899
0.000399142
0.0184887
0.000427787
0.0181684
0.000453175
0.0178314
0.000475037
0.0174803
0.000492999
0.000506475
0.0236319
-0.000447625
-0.023372
0.0238445
-0.000358042
0.0240097
-0.000266138
0.0241271
-0.000172581
0.0241962
-7.80725e-05
0.0242169
1.67254e-05
0.0241892
0.000111167
0.0241132
0.000204618
0.0239896
0.00029645
0.0238193
0.000386039
0.0236034
0.000472763
0.0233435
0.000556006
0.0230414
0.000635171
0.0226992
0.00070968
0.0223193
0.000778981
0.0219046
0.000842553
0.0214579
0.000899895
0.0209824
0.000950522
0.0204814
0.000993935
0.00102963
0.026316
-0.000817001
-0.0259466
0.0266289
-0.000670983
0.0268846
-0.000521813
0.0270822
-0.000370158
0.0272209
-0.000216789
0.0273001
-6.25348e-05
0.0273196
9.17285e-05
0.0272791
0.000245083
0.027179
0.000396577
0.0270198
0.000545232
0.0268025
0.000690054
0.0265285
0.000830042
0.0261994
0.000964201
0.0258176
0.00109156
0.0253854
0.00121118
0.0249057
0.00132217
0.024382
0.00142368
0.0238176
0.00151491
0.0232164
0.00159513
0.00166368
0.0282894
-0.00128894
-0.0278175
0.0286996
-0.00108121
0.0290467
-0.000868889
0.0293293
-0.00065274
0.0295462
-0.000433649
0.0296962
-0.000212606
0.0297787
9.29168e-06
0.0297929
0.000230851
0.0297387
0.000450793
0.0296161
0.00066777
0.0294258
0.000880383
0.0291687
0.0010872
0.0288461
0.00128679
0.0284599
0.00147773
0.0280125
0.00165861
0.0275066
0.00182809
0.0269453
0.00198491
0.0263324
0.00212784
0.0256717
0.00225581
0.00236782
0.0296893
-0.00185347
-0.0291248
0.0301898
-0.00158167
0.0306242
-0.00130335
0.0309909
-0.0010194
0.031288
-0.000730798
0.0315141
-0.000438664
0.0316677
-0.000144295
0.0317477
0.000150859
0.0317533
0.0004452
0.031684
0.000737013
0.0315399
0.00102449
0.0313214
0.00130575
0.0310293
0.00157889
0.030665
0.001842
0.0302304
0.00209319
0.0297279
0.00233059
0.0291604
0.00255245
0.0285312
0.00275706
0.0278441
0.00294289
0.00310848
0.0306331
-0.002499
-0.0299875
0.0312143
-0.00216289
0.031729
-0.00181804
0.0321749
-0.00146535
0.03255
-0.00110583
0.032852
-0.000740712
0.0330791
-0.000371438
0.0332297
3.03584e-07
0.0333023
0.000372617
0.0332959
0.000743427
0.0332098
0.00111052
0.033044
0.00147157
0.0327987
0.00182422
0.0324747
0.00216603
0.0320732
0.00249461
0.0315963
0.00280757
0.0310461
0.0031026
0.0304257
0.00337748
0.0297385
0.00363011
0.00385852
0.0312198
-0.00321344
-0.0305054
0.0318713
-0.00281433
0.0324573
-0.00240407
0.0329754
-0.00198344
0.033423
-0.00155341
0.0337975
-0.00111522
0.0340965
-0.000670453
0.0343178
-0.000221002
0.0344595
0.000230947
0.0345199
0.000682973
0.034498
0.00113247
0.0343928
0.00157669
0.0342042
0.00201281
0.0339324
0.00243792
0.0335779
0.00284911
0.033142
0.00324346
0.0326265
0.00361811
0.0320337
0.00397028
0.0313665
0.00429727
0.00459655
0.0315322
-0.00398503
-0.0307606
0.0322432
-0.00352534
0.0328911
-0.00305197
0.0334731
-0.00256544
0.0339862
-0.00206654
0.0344274
-0.00155648
0.0347939
-0.00103693
0.0350829
-0.000510021
0.0352921
2.17847e-05
0.0354194
0.000555726
0.035463
0.00108882
0.0354218
0.00161793
0.0352948
0.00213978
0.0350817
0.00265104
0.0347825
0.0031483
0.0343978
0.00362815
0.0339287
0.00408718
0.033377
0.00452206
0.0327447
0.0049295
0.00530634
0.0316378
-0.00480292
-0.03082
0.0323983
-0.00428584
0.0330989
-0.00375251
0.0337364
-0.00320292
0.0343074
-0.00263757
0.0348085
-0.0020576
0.0352364
-0.00146483
0.035588
-0.00086161
0.0358605
-0.000250732
0.0360515
0.000364702
0.036159
0.000981354
0.0361812
0.00159572
0.0361169
0.00220414
0.035965
0.00280289
0.0357252
0.00338813
0.0353973
0.00395599
0.0349819
0.00450259
0.03448
0.00502402
0.033893
0.00551645
0.00597609
0.0315915
-0.00565749
-0.030737
0.0323926
-0.00508687
0.0331374
-0.00449729
0.0338224
-0.00388791
0.0344437
-0.00325887
0.0349974
-0.0026113
0.0354798
-0.00194723
0.0358875
-0.00126935
0.0362176
-0.000580818
0.0364674
0.000114917
0.0366346
0.000814177
0.0367171
0.00151313
0.0367135
0.00220781
0.0366222
0.00289413
0.0364424
0.00356792
0.0361735
0.00422492
0.0358153
0.00486079
0.0353682
0.00547116
0.034833
0.00605165
0.00659791
0.0314367
-0.00654063
-0.0305536
0.0322708
-0.00592095
0.0330526
-0.00527916
0.0337781
-0.00461333
0.0344425
-0.00392329
0.0350415
-0.00321033
0.0355712
-0.0024769
0.036028
-0.00172617
0.0364089
-0.000961709
0.0367111
-0.000187353
0.0369324
0.000592925
0.0370705
0.00137502
0.0371236
0.00215473
0.03709
0.00292771
0.0369684
0.00368951
0.0367578
0.00443555
0.0364574
0.00516115
0.0360671
0.00586151
0.0355869
0.00653179
0.00716708
0.0312074
-0.00744588
-0.0303021
0.0320687
-0.00678229
0.032882
-0.00609242
0.0336418
-0.00537314
0.0343428
-0.00462426
0.0349801
-0.00384767
0.0355497
-0.00304653
0.0360483
-0.00222467
0.0364727
-0.00138615
0.0368205
-0.000535136
0.0370893
0.000324132
0.0372769
0.00118737
0.0373815
0.0020502
0.0374011
0.00290812
0.0373341
0.00375649
0.0371791
0.0045905
0.0369351
0.0054052
0.0366011
0.00619547
0.0361769
0.00695604
0.00768156
0.0309301
-0.00836861
-0.0300074
0.0318149
-0.00766707
0.0326554
-0.00693291
0.0334445
-0.00616226
0.034176
-0.00535577
0.0348449
-0.00451655
0.0354473
-0.00364891
0.03598
-0.00275744
0.0364406
-0.00184672
0.0368267
-0.000921198
0.0371361
1.47275e-05
0.0373668
0.000956679
0.0375167
0.00190021
0.0375841
0.00284076
0.037567
0.00377357
0.0374638
0.00469372
0.037273
0.00559604
0.0369933
0.00647516
0.0366238
0.00732551
0.00814132
0.0306254
-0.0093064
-0.0296876
0.0315319
-0.00857359
0.0323968
-0.0077978
0.0332108
-0.00697625
0.0339671
-0.00611201
0.0346608
-0.00521029
0.0352887
-0.00427686
0.0358485
-0.00331714
0.0363379
-0.00233612
0.036755
-0.00133838
0.0370981
-0.000328363
0.0373652
0.000689585
0.0375544
0.00171105
0.0376637
0.00273148
0.0376911
0.00374611
0.0376349
0.00474995
0.0374932
0.00573774
0.0372644
0.00670393
0.0369472
0.00764269
0.00854794
0.0303099
-0.0102596
-0.0293567
0.0312385
-0.00950226
0.0321257
-0.00868499
0.0329601
-0.0078106
0.033735
-0.00688691
0.0344467
-0.00592205
0.0350932
-0.0049233
0.0356728
-0.00389671
0.036184
-0.00284739
0.0366256
-0.00177991
0.0369957
-0.000698544
0.0372928
0.000392475
0.037515
0.00148886
0.0376604
0.00258615
0.0377268
0.00367964
0.0377124
0.00476436
0.0376152
0.00583498
0.0374332
0.00688586
0.0371649
0.00791102
0.00890412
0.0299973
-0.0112329
-0.029024
0.0309504
-0.0104554
0.0318575
-0.00959203
0.0327066
-0.00865978
0.0334934
-0.00767366
0.0342161
-0.00664476
0.0348741
-0.00558133
0.0354669
-0.00448951
0.0359937
-0.00337418
0.0364534
-0.00223961
0.0368447
-0.0010898
0.0371659
7.12353e-05
0.0374154
0.00123941
0.0375911
0.0024104
0.0376912
0.00357962
0.0377134
0.00474214
0.0376557
0.00589266
0.0375161
0.00702549
0.0372925
0.00813455
0.00921332
0.0297015
-0.0122389
-0.0286955
0.0306817
-0.0114355
0.0316037
-0.010514
0.03246
-0.00951612
0.0332508
-0.00846441
0.0339773
-0.00737125
0.0346404
-0.00624452
0.0352406
-0.00508968
0.0357774
-0.00391096
0.0362499
-0.00271215
0.036657
-0.0014969
0.0369972
-0.000268928
0.0372687
0.000967892
0.0374697
0.00220941
0.0375982
0.00345117
0.037652
0.00468833
0.037629
0.00591566
0.037527
0.00712747
0.0373439
0.00831761
0.00947948
0.0294436
-0.0133015
-0.028381
0.030446
-0.0124378
0.0313714
-0.0114395
0.0322241
-0.0103688
0.0330103
-0.00925057
0.0337339
-0.00809483
0.0343967
-0.0069074
0.0349994
-0.0056924
0.0355417
-0.00445325
0.0360228
-0.00319319
0.0364413
-0.00191548
0.036796
-0.000623576
0.037085
0.000678844
0.0373066
0.00198781
0.0374588
0.00329899
0.0375395
0.00460768
0.0375464
0.0059087
0.0374775
0.00719641
0.0373305
0.00846465
0.00970675
0.0292537
-0.0281192
-0.014436
0.0302517
-0.0134359
0.031159
-0.0123469
0.0319956
-0.0112054
0.0327697
-0.0100246
0.0334854
-0.00881052
0.0341441
-0.00756614
0.0347461
-0.00629434
0.0352907
-0.00499783
0.0357769
-0.00367941
0.0362035
-0.00234207
0.036569
-0.000989061
0.0368717
0.000376119
0.0371098
0.00174964
0.0372815
0.00312732
0.0373847
0.00450453
0.0374171
0.00587621
0.0373768
0.00723677
0.0372614
0.00858007
0.00989942
0.0224124
0.00535212
-0.0040369
-0.0237277
0.0210864
0.00551487
-0.00418878
0.0197492
0.00569103
-0.00435385
0.0184009
0.0058832
-0.0045349
0.0170417
0.00609443
-0.00473524
0.0156723
0.00632816
-0.00495877
0.014294
0.00658836
-0.00521006
0.012909
0.0068795
-0.00549446
0.0115205
0.00720637
-0.00581795
0.0101336
0.00757384
-0.00618695
0.00875527
0.0079863
-0.00660794
0.00739516
0.00844697
-0.00708686
0.00606648
0.0089568
-0.00762812
0.00478685
0.00951296
-0.00823333
0.0035794
0.0101069
-0.00889944
0.00247407
0.0107217
-0.00961638
0.00150908
0.011329
-0.010364
0.000732637
0.0118844
-0.011108
0.000204898
0.0123229
-0.0117952
0.0125513
-0.0123464
0.0223972
0.0066656
-0.0237107
0.0210727
0.00683931
0.0197371
0.00702667
0.0183902
0.00723007
0.0170324
0.0074523
0.0156642
0.00769637
0.0142869
0.00796562
0.0129028
0.00826364
0.0115151
0.00859407
0.0101287
0.00896016
0.0087508
0.00936424
0.00739099
0.00980677
0.00606258
0.0102852
0.00478324
0.0107923
0.00357621
0.0113139
0.00247154
0.0118264
0.00150755
0.0122929
0.000732405
0.0126596
0.000205723
0.0128496
0.0127571
0.0223337
0.00797537
-0.0236435
0.0210128
0.00816014
0.0196808
0.00835876
0.0183374
0.00857345
0.0169829
0.00880675
0.0156181
0.00906122
0.0142441
0.00933957
0.0128632
0.00964452
0.0114788
0.00997853
0.0100957
0.0103433
0.00872101
0.0107389
0.00736453
0.0111633
0.00603954
0.0116102
0.00476379
0.0120681
0.00356054
0.0125172
0.00245982
0.0129271
0.00149985
0.0132529
0.000728462
0.0134309
0.000204627
0.0133734
0.0129617
0.0222222
0.00927953
-0.0235264
0.0209069
0.00947542
0.0195803
0.00968535
0.0182424
0.00991136
0.0168934
0.0101557
0.0155341
0.0104206
0.0141657
0.010708
0.0127904
0.0110198
0.0114117
0.0113572
0.0100345
0.0117205
0.0086659
0.0121075
0.00731573
0.0125134
0.00599733
0.0129286
0.00472846
0.0133369
0.00353236
0.0137133
0.00243893
0.0140205
0.0014861
0.0142057
0.000721199
0.0141958
0.000202349
0.0138923
0.013164
0.0220632
0.0105762
-0.0233599
0.0207553
0.0107833
0.0194361
0.0110045
0.0181056
0.0112419
0.0167641
0.0114972
0.0154124
0.0117723
0.0140517
0.0120686
0.0126844
0.0123871
0.0113139
0.0127278
0.0099452
0.0130891
0.00858549
0.0134672
0.00724463
0.0138543
0.00593598
0.0142372
0.0046773
0.0145956
0.00349171
0.0148989
0.00240893
0.0151033
0.00146643
0.0151482
0.00071083
0.0149514
0.000199098
0.014404
0.0133631
0.0218572
0.0118638
-0.0231447
0.0205584
0.012082
0.0192484
0.0123145
0.0179272
0.0125631
0.0165952
0.0128293
0.0152531
0.0131145
0.0139023
0.0134194
0.0125453
0.0137441
0.0111854
0.0140876
0.00982786
0.0144467
0.00847984
0.0148153
0.00715127
0.0151828
0.00585554
0.015533
0.00461035
0.0158408
0.00343869
0.0160705
0.00236992
0.0161721
0.00144097
0.0160772
0.000697472
0.0156949
0.000194949
0.0149065
0.0135581
0.0216046
0.0131405
-0.0228814
0.0203167
0.0133699
0.0190177
0.0136136
0.0177075
0.0138732
0.0163868
0.01415
0.0150563
0.0144449
0.0137176
0.0147581
0.0123731
0.0150887
0.0110263