/*--------------------------------*- C++ -*----------------------------------*\
  =========                 |
  \\      /  F ield         | OpenFOAM: The Open Source CFD Toolbox
   \\    /   O peration     | Website:  https://openfoam.org
    \\  /    A nd           | Version:  6.0
     \\/     M anipulation  |
\*---------------------------------------------------------------------------*/
FoamFile
{
    version     2.0;
    format      ascii;
    class       volScalarField;
    location    "1.95";
    object      p;
}
// * * * * * * * * * * * * * * * * * * * * * * * * * * * * * * * * * * * * * //

dimensions      [0 2 -2 0 0 0 0];

internalField   nonuniform List<scalar> 
9600
(
-96.0696
-75.8095
-61.9717
-51.4032
-42.4824
-35.0735
-28.977
-23.9563
-19.8209
-16.417
-13.6163
-11.312
-9.41553
-7.8538
-6.56648
-5.50409
-4.62595
-3.89732
-3.2902
-2.79784
-96.1043
-75.8721
-62.0422
-51.4697
-42.5434
-35.13
-29.0299
-24.0064
-19.8688
-16.4632
-13.6612
-11.3558
-9.45853
-7.89606
-6.60802
-5.54489
-4.66592
-3.93623
-3.32774
-2.83531
-96.1587
-75.9365
-62.1119
-51.5373
-42.6063
-35.1887
-29.0852
-24.059
-19.9194
-16.5122
-13.7089
-11.4026
-9.50449
-7.94131
-6.65259
-5.58875
-4.70899
-3.97826
-3.36845
-2.87602
-96.2277
-76.0077
-62.1836
-51.6062
-42.6708
-35.2491
-29.1423
-24.1137
-19.9722
-16.5635
-13.7592
-11.452
-9.55322
-7.98945
-6.70015
-5.6357
-4.75521
-4.02348
-3.41242
-2.92009
-96.3071
-76.0851
-62.2582
-51.6768
-42.737
-35.3112
-29.2013
-24.1703
-20.0271
-16.6171
-13.8118
-11.5039
-9.6046
-8.04036
-6.75061
-5.68564
-4.80453
-4.07188
-3.45965
-2.96753
-96.394
-76.1683
-62.3364
-51.7497
-42.805
-35.3752
-29.2622
-24.2289
-20.084
-16.6729
-13.8668
-11.5583
-9.65857
-8.09399
-6.80391
-5.73856
-4.85694
-4.12347
-3.51017
-3.01839
-96.4868
-76.256
-62.4178
-51.8249
-42.8748
-35.4408
-29.3247
-24.2892
-20.1428
-16.7307
-13.9238
-11.6149
-9.71492
-8.15016
-6.8599
-5.79433
-4.91233
-4.17816
-3.56393
-3.07264
-96.5842
-76.3473
-62.5019
-51.902
-42.9462
-35.5079
-29.3887
-24.351
-20.2032
-16.7901
-13.9827
-11.6735
-9.77341
-8.20864
-6.91838
-5.85275
-4.97055
-4.23582
-3.62081
-3.13019
-96.6854
-76.4416
-62.5882
-51.9807
-43.0188
-35.576
-29.4537
-24.414
-20.2647
-16.8509
-14.0431
-11.7337
-9.83368
-8.26908
-6.97903
-5.91356
-5.03135
-4.29626
-3.68066
-3.19092
-96.7899
-76.5382
-62.6761
-52.0606
-43.0923
-35.6449
-29.5194
-24.4775
-20.327
-16.9125
-14.1044
-11.7951
-9.8953
-8.33108
-7.04145
-5.97637
-5.0944
-4.35916
-3.74321
-3.25462
-96.8974
-76.6367
-62.7652
-52.1412
-43.1661
-35.7139
-29.5852
-24.5413
-20.3896
-16.9744
-14.1662
-11.8571
-9.9577
-8.39406
-7.10511
-6.04068
-5.15923
-4.42414
-3.80812
-3.32097
-97.008
-76.7366
-62.8551
-52.222
-43.2397
-35.7825
-29.6505
-24.6046
-20.4517
-17.036
-14.2278
-11.919
-10.0202
-8.45737
-7.16934
-6.10587
-5.22526
-4.49065
-3.8749
-3.38953
-97.1217
-76.8377
-62.945
-52.3024
-43.3126
-35.8502
-29.7148
-24.6668
-20.5128
-17.0966
-14.2884
-11.98
-10.082
-8.52015
-7.23331
-6.17114
-5.29175
-4.55803
-3.94297
-3.45985
-97.2381
-76.939
-63.0345
-52.3819
-43.3843
-35.9164
-29.7775
-24.7273
-20.572
-17.1553
-14.3471
-12.0392
-10.142
-8.58137
-7.29596
-6.23541
-5.35768
-4.62535
-4.01155
-3.53148
-97.3566
-77.0395
-63.1225
-52.4601
-43.4543
-35.9806
-29.838
-24.7855
-20.6288
-17.2115
-14.4032
-12.0957
-10.1993
-8.63981
-7.35594
-6.29724
-5.42152
-4.6911
-4.07933
-3.60325
-97.479
-77.1396
-63.2088
-52.5362
-43.522
-36.0421
-29.8955
-24.8405
-20.6823
-17.2642
-14.4556
-12.1483
-10.2526
-8.6942
-7.41182
-6.355
-5.48148
-4.75337
-4.14415
-3.67204
-97.6147
-77.2436
-63.2934
-52.609
-43.5859
-36.0996
-29.9488
-24.8913
-20.7316
-17.3125
-14.5035
-12.1961
-10.3008
-8.74321
-7.4622
-6.40732
-5.53628
-4.81084
-4.2041
-3.73514
-97.7793
-77.3581
-63.3764
-52.6766
-43.6444
-36.152
-29.9973
-24.9373
-20.776
-17.3557
-14.5458
-12.2379
-10.3423
-8.78499
-7.50492
-6.45195
-5.58377
-4.86158
-4.25844
-3.79801
-97.9691
-77.481
-63.4572
-52.7392
-43.6986
-36.2009
-30.0425
-24.9798
-20.8164
-17.3944
-14.5828
-12.2733
-10.3762
-8.81751
-7.53651
-6.48336
-5.6157
-4.89524
-4.3001
-3.86487
-98.1145
-77.5891
-63.5349
-52.8007
-43.7524
-36.2497
-30.0873
-25.0214
-20.8553
-17.4308
-14.6167
-12.3044
-10.4041
-8.84171
-7.55628
-6.49741
-5.62201
-4.89453
-4.30365
-3.8808
-98.3177
-98.3487
-98.3429
-98.3434
-98.3526
-98.3608
-98.3626
-98.3575
-98.3462
-98.3295
-98.3077
-98.2813
-98.251
-98.2178
-98.1831
-98.1489
-98.1181
-98.0957
-98.0879
-98.1029
-77.7248
-77.7758
-77.8082
-77.8382
-77.8667
-77.8889
-77.9028
-77.9085
-77.907
-77.8993
-77.8859
-77.8674
-77.8446
-77.8184
-77.7898
-77.7606
-77.7323
-77.7052
-77.6807
-77.6493
-63.5946
-63.6578
-63.7106
-63.7556
-63.7925
-63.8204
-63.8397
-63.8512
-63.8557
-63.8539
-63.8464
-63.8337
-63.8165
-63.7956
-63.7721
-63.7459
-63.7167
-63.6855
-63.6496
-63.6023
-52.8192
-52.884
-52.9405
-52.9884
-53.0265
-53.0551
-53.0757
-53.0892
-53.0961
-53.0968
-53.092
-53.0821
-53.0676
-53.0499
-53.0286
-53.0023
-52.9736
-52.9422
-52.9041
-52.8585
-43.768
-43.8289
-43.8826
-43.9285
-43.9649
-43.9923
-44.0121
-44.0251
-44.0317
-44.0325
-44.0279
-44.0184
-44.0046
-43.9873
-43.9658
-43.9403
-43.9126
-43.8816
-43.8451
-43.8034
-36.287
-36.3428
-36.3923
-36.4347
-36.4681
-36.4929
-36.5105
-36.5214
-36.5263
-36.5255
-36.5195
-36.5087
-36.4944
-36.4761
-36.4533
-36.4283
-36.4013
-36.3706
-36.3355
-36.2965
-30.1571
-30.2082
-30.2533
-30.2916
-30.3214
-30.343
-30.3576
-30.3658
-30.3682
-30.3651
-30.3569
-30.3444
-30.3282
-30.3082
-30.2847
-30.2596
-30.2321
-30.2015
-30.1676
-30.1306
-25.1263
-25.1731
-25.2141
-25.2483
-25.2744
-25.2927
-25.3043
-25.3097
-25.3094
-25.3036
-25.2931
-25.2787
-25.2604
-25.2382
-25.2141
-25.1884
-25.16
-25.1296
-25.0968
-25.0617
-20.9939
-21.0371
-21.0743
-21.1047
-21.1274
-21.1426
-21.1513
-21.154
-21.151
-21.1428
-21.13
-21.1132
-21.0926
-21.0691
-21.0439
-21.0169
-20.988
-20.9579
-20.9262
-20.8929
-17.6005
-17.6404
-17.6743
-17.7013
-17.7209
-17.7334
-17.7394
-17.7396
-17.734
-17.7234
-17.7086
-17.6895
-17.6666
-17.6417
-17.6152
-17.5868
-17.5575
-17.5278
-17.4972
-17.4657
-14.8147
-14.8518
-14.8827
-14.9068
-14.9237
-14.9336
-14.9373
-14.935
-14.9272
-14.9144
-14.8973
-14.8759
-14.8512
-14.8248
-14.7965
-14.767
-14.7372
-14.7078
-14.6784
-14.6489
-12.5286
-12.5631
-12.5914
-12.6129
-12.6272
-12.6349
-12.6364
-12.6319
-12.622
-12.6071
-12.5877
-12.5642
-12.5377
-12.5093
-12.4792
-12.4485
-12.4182
-12.389
-12.3609
-12.3336
-10.6529
-10.6851
-10.7109
-10.73
-10.7421
-10.7477
-10.7471
-10.7406
-10.7286
-10.7117
-10.6901
-10.6645
-10.6362
-10.6057
-10.5737
-10.5415
-10.5105
-10.4814
-10.4546
-10.4297
-9.11395
-9.14397
-9.1676
-9.18446
-9.1945
-9.19805
-9.19546
-9.18701
-9.17311
-9.15418
-9.13047
-9.10294
-9.07255
-9.03974
-9.00566
-8.97182
-8.93963
-8.91039
-8.88495
-8.86286
-7.85097
-7.8789
-7.90039
-7.91516
-7.92321
-7.92486
-7.92038
-7.91009
-7.89433
-7.87336
-7.84771
-7.81823
-7.78554
-7.75036
-7.71399
-7.67805
-7.64425
-7.61444
-7.59028
-7.5715
-6.81362
-6.83948
-6.85889
-6.87163
-6.87776
-6.87754
-6.87124
-6.85915
-6.84156
-6.81866
-6.79108
-6.75956
-6.72455
-6.68685
-6.64791
-6.60936
-6.5733
-6.54224
-6.51897
-6.50394
-5.96032
-5.98411
-6.00147
-6.01222
-6.01644
-6.01439
-6.00629
-5.99242
-5.97299
-5.94817
-5.9187
-5.88506
-5.84757
-5.8072
-5.76527
-5.7235
-5.68429
-5.65096
-5.62764
-5.61603
-5.2563
-5.27824
-5.29375
-5.30272
-5.30525
-5.30155
-5.29182
-5.27631
-5.25518
-5.22868
-5.1974
-5.16164
-5.12178
-5.07869
-5.03352
-4.98797
-4.94462
-4.90795
-4.88383
-4.87556
-4.6728
-4.6933
-4.70745
-4.71515
-4.71652
-4.71173
-4.70099
-4.6845
-4.66236
-4.63491
-4.6026
-4.56558
-4.52423
-4.47928
-4.43162
-4.38276
-4.33507
-4.29423
-4.26911
-4.27111
-4.19066
-4.2082
-4.21963
-4.22491
-4.22412
-4.21744
-4.20503
-4.18707
-4.16367
-4.1351
-4.10174
-4.06367
-4.02115
-3.97474
-3.92501
-3.87297
-3.82015
-3.77154
-3.73559
-3.75072
-94.6196
-94.842
-95.0167
-95.2139
-95.4362
-95.6659
-95.8926
-96.1134
-96.328
-96.536
-96.7362
-96.9279
-97.1103
-97.2834
-97.4472
-97.6025
-97.7506
-97.8942
-98.0366
-98.1828
-74.056
-74.2933
-74.5132
-74.7403
-74.9751
-75.2086
-75.4356
-75.655
-75.8668
-76.071
-76.2671
-76.4544
-76.6327
-76.8019
-76.962
-77.1134
-77.2569
-77.3929
-77.5208
-77.6355
-60.0741
-60.3145
-60.5503
-60.7836
-61.013
-61.2362
-61.4525
-61.6616
-61.8633
-62.0576
-62.2439
-62.4219
-62.5914
-62.7521
-62.904
-63.047
-63.181
-63.3054
-63.418
-63.5161
-49.51
-49.7413
-49.9704
-50.1944
-50.4111
-50.6207
-50.8237
-51.0203
-51.2099
-51.3922
-51.5668
-51.7335
-51.892
-52.042
-52.1833
-52.3157
-52.4387
-52.5519
-52.6536
-52.7437
-40.6787
-40.8961
-41.1124
-41.3241
-41.5286
-41.7259
-41.9167
-42.1013
-42.2789
-42.4494
-42.6123
-42.7675
-42.9147
-43.0536
-43.1841
-43.3058
-43.4185
-43.5217
-43.6147
-43.6977
-33.399
-33.6041
-33.8085
-34.0091
-34.2027
-34.3892
-34.5692
-34.7427
-34.9095
-35.0691
-35.2212
-35.3658
-35.5025
-35.6313
-35.7519
-35.864
-35.9674
-36.062
-36.1469
-36.2228
-27.4428
-27.6381
-27.8327
-28.0235
-28.2076
-28.3847
-28.5552
-28.7192
-28.8764
-29.0265
-29.1694
-29.3048
-29.4326
-29.5526
-29.6646
-29.7684
-29.8639
-29.9509
-30.0289
-30.0984
-22.5582
-22.7458
-22.9322
-23.1147
-23.2906
-23.4597
-23.6221
-23.7781
-23.9272
-24.0694
-24.2043
-24.332
-24.4522
-24.5648
-24.6697
-24.7666
-24.8555
-24.9361
-25.0082
-25.0722
-18.548
-18.7294
-18.9092
-19.0847
-19.2538
-19.4161
-19.5718
-19.7209
-19.8632
-19.9986
-20.127
-20.2482
-20.3621
-20.4685
-20.5674
-20.6586
-20.7419
-20.8173
-20.8845
-20.9438
-15.257
-15.4335
-15.608
-15.7779
-15.9412
-16.0978
-16.2477
-16.3909
-16.5274
-16.6571
-16.7798
-16.8955
-17.0041
-17.1053
-17.1992
-17.2855
-17.3642
-17.4352
-17.4983
-17.5538
-12.5586
-12.7312
-12.9015
-13.0668
-13.2252
-13.3768
-13.5216
-13.6597
-13.7911
-13.9158
-14.0336
-14.1446
-14.2486
-14.3454
-14.435
-14.5173
-14.592
-14.6593
-14.7189
-14.771
-10.3486
-10.5181
-10.6851
-10.8466
-11.0007
-11.1477
-11.2879
-11.4214
-11.5483
-11.6685
-11.782
-11.8888
-11.9888
-12.0818
-12.1676
-12.2463
-12.3177
-12.3817
-12.4382
-12.4875
-8.54076
-8.70806
-8.87272
-9.03084
-9.18098
-9.32367
-9.45951
-9.58869
-9.71132
-9.82746
-9.9371
-10.0402
-10.1365
-10.2261
-10.3087
-10.3842
-10.4526
-10.5137
-10.5675
-10.6141
-7.06383
-7.22972
-7.39282
-7.5479
-7.69406
-7.83255
-7.96417
-8.08923
-8.20789
-8.32026
-8.42632
-8.52599
-8.61912
-8.70557
-8.78519
-8.85786
-8.92346
-8.98196
-9.03321
-9.07745
-5.85838
-6.02393
-6.1862
-6.33822
-6.48027
-6.61453
-6.74202
-6.86311
-6.97803
-7.08689
-7.18966
-7.28619
-7.37632
-7.4599
-7.53674
-7.60674
-7.66976
-7.72577
-7.77465
-7.81659
-4.87481
-5.04212
-5.20426
-5.35277
-5.4904
-5.62042
-5.74387
-5.86114
-5.97252
-6.0781
-6.17776
-6.27133
-6.35862
-6.43943
-6.5136
-6.581
-6.64151
-6.69509
-6.74164
-6.78133
-4.06891
-4.24285
-4.40624
-4.55052
-4.6834
-4.8092
-4.92873
-5.04236
-5.1504
-5.25285
-5.34955
-5.44026
-5.52476
-5.60287
-5.6744
-5.73924
-5.79726
-5.84843
-5.89267
-5.93012
-3.39596
-3.58406
-3.75235
-3.89284
-4.02119
-4.14312
-4.25911
-4.3695
-4.47455
-4.57421
-4.66823
-4.75635
-4.83834
-4.91398
-4.98312
-5.04562
-5.1014
-5.15039
-5.19255
-5.22797
-2.82742
-3.0347
-3.21151
-3.35073
-3.47561
-3.59388
-3.70653
-3.8139
-3.91617
-4.01321
-4.10473
-4.19044
-4.27009
-4.34347
-4.41044
-4.47087
-4.52467
-4.5718
-4.6122
-4.64597
-2.44366
-2.66079
-2.82548
-2.95764
-3.07561
-3.18599
-3.29147
-3.39251
-3.48884
-3.58016
-3.66616
-3.74653
-3.82102
-3.88943
-3.95164
-4.00753
-4.05703
-4.10013
-4.13676
-4.16701
0.199624
-0.170618
-0.653494
-1.25728
-2.01
-2.9457
-4.10339
-5.52963
-7.2806
-9.4241
-12.0423
-15.2348
-19.1228
-23.8544
-29.6175
-36.6534
-45.1807
-55.3752
-68.9302
-89.085
0.103646
-0.269395
-0.753014
-1.35767
-2.11132
-3.04793
-4.20661
-5.63402
-7.38644
-9.53176
-12.1522
-15.3475
-19.239
-23.9749
-29.7437
-36.7874
-45.3244
-55.5282
-69.0893
-89.2434
0.00228468
-0.37376
-0.858355
-1.46419
-2.21913
-3.15704
-4.31711
-5.74617
-7.50056
-9.64828
-12.2716
-15.4705
-19.3663
-24.1075
-29.8829
-36.9349
-45.482
-55.6943
-69.2534
-89.3899
-0.104001
-0.483167
-0.968876
-1.57607
-2.3325
-3.27189
-4.43356
-5.86446
-7.62108
-9.77149
-12.3981
-15.601
-19.5017
-24.2488
-30.0312
-37.092
-45.6499
-55.8737
-69.4373
-89.5661
-0.215083
-0.597539
-1.08453
-1.69328
-2.45136
-3.39237
-4.55576
-5.98861
-7.74751
-9.90069
-12.5306
-15.7376
-19.6432
-24.3964
-30.1862
-37.256
-45.8255
-56.0636
-69.6405
-89.7724
-0.330815
-0.716729
-1.20518
-1.81573
-2.5757
-3.51855
-4.68383
-6.11878
-7.88013
-10.0362
-12.6696
-15.8808
-19.7915
-24.551
-30.3486
-37.4279
-46.0096
-56.2635
-69.8573
-89.9982
-0.450984
-0.840504
-1.3306
-1.94318
-2.70527
-3.65015
-4.81753
-6.25478
-8.01876
-10.1779
-12.8151
-16.0306
-19.9468
-24.7129
-30.5188
-37.6083
-46.2029
-56.4731
-70.0847
-90.2373
-0.575427
-0.968682
-1.46058
-2.07542
-2.83983
-3.78695
-4.95659
-6.39631
-8.16309
-10.3255
-12.9666
-16.1868
-20.1088
-24.882
-30.6966
-37.797
-46.4052
-56.692
-70.322
-90.4879
-0.704047
-1.10114
-1.59498
-2.21228
-2.97921
-3.92872
-5.10077
-6.54308
-8.31279
-10.4786
-13.1237
-16.349
-20.2769
-25.0575
-30.8814
-37.9934
-46.6158
-56.9199
-70.569
-90.7498
-0.836819
-1.23782
-1.7337
-2.35364
-3.12324
-4.07527
-5.24984
-6.69484
-8.46757
-10.637
-13.2863
-16.5166
-20.4508
-25.2392
-31.0727
-38.1968
-46.8341
-57.1562
-70.8252
-91.022
-0.973807
-1.37871
-1.87669
-2.49939
-3.27176
-4.22638
-5.40353
-6.85127
-8.62709
-10.8001
-13.4537
-16.6893
-20.63
-25.4264
-31.27
-38.4068
-47.0597
-57.4005
-71.09
-91.3036
-1.11517
-1.52387
-2.02389
-2.64939
-3.42456
-4.38179
-5.56152
-7.01202
-8.79095
-10.9676
-13.6256
-16.8666
-20.8139
-25.6187
-31.4728
-38.6226
-47.2918
-57.6519
-71.3625
-91.5936
-1.26113
-1.67336
-2.17523
-2.80344
-3.58136
-4.54112
-5.72338
-7.17661
-8.95863
-11.1389
-13.8014
-17.0478
-21.002
-25.8153
-31.6803
-38.8438
-47.5297
-57.9099
-71.6422
-91.8912
-1.41191
-1.82716
-2.33048
-2.9612
-3.74168
-4.70385
-5.88856
-7.34445
-9.12954
-11.3135
-13.9804
-17.2324
-21.1936
-26.0157
-31.8918
-39.0694
-47.7729
-58.1738
-71.9285
-92.196
-1.56764
-1.98501
-2.48916
-3.12201
-3.90483
-4.86925
-6.0563
-7.51481
-9.30294
-11.4906
-14.162
-17.4196
-21.3879
-26.219
-32.1065
-39.2987
-48.0205
-58.4432
-72.2213
-92.5078
-1.7278
-2.14587
-2.64999
-3.28463
-4.06964
-5.03626
-6.22566
-7.6868
-9.47801
-11.6693
-14.3453
-17.6087
-21.5841
-26.4244
-32.3236
-39.5307
-48.2714
-58.7172
-72.5203
-92.8272
-1.89116
-2.30796
-2.81121
-3.44748
-4.23476
-5.2037
-6.39556
-7.85946
-9.65383
-11.8489
-14.5295
-17.7985
-21.7812
-26.6308
-32.5418
-39.764
-48.5244
-58.9952
-72.8263
-93.1557
-2.05227
-2.46514
-2.96807
-3.6074
-4.39806
-5.37004
-6.56486
-8.03183
-9.82956
-12.0285
-14.7137
-17.9885
-21.9785
-26.8373
-32.7602
-39.9976
-48.7778
-59.2751
-73.1389
-93.4969
-2.20437
-2.6134
-3.119
-3.7638
-4.55899
-5.53461
-6.73278
-8.20308
-10.0043
-12.2071
-14.897
-18.1774
-22.1745
-27.0423
-32.9769
-40.2291
-49.0284
-59.5528
-73.4567
-93.8555
-2.30459
-2.72289
-3.25374
-3.91388
-4.71656
-5.69703
-6.89922
-8.37313
-10.1779
-12.3846
-15.0789
-18.3649
-22.3688
-27.2455
-33.1915
-40.458
-49.2745
-59.8225
-73.7697
-94.2388
0.62218
0.294328
-0.192585
-0.813277
-1.58247
-2.53368
-3.70656
-5.14742
-6.91207
-9.06819
-11.6978
-14.9004
-18.7964
-23.5323
-29.2929
-36.3136
-44.8013
-54.9197
-68.3672
-88.4286
0.647263
0.313825
-0.173344
-0.786115
-1.54671
-2.49075
-3.65741
-5.0926
-6.85202
-9.00319
-11.628
-14.8256
-18.7163
-23.4464
-29.2008
-36.2151
-44.6955
-54.801
-68.225
-88.2576
0.713128
0.361828
-0.131021
-0.74458
-1.50462
-2.44715
-3.61137
-5.04352
-6.79958
-8.94722
-11.5683
-14.762
-18.6485
-23.3738
-29.1227
-36.1309
-44.6041
-54.6961
-68.0866
-88.0625
0.766497
0.409701
-0.0852377
-0.700437
-1.46173
-2.40463
-3.56826
-4.99905
-6.7532
-8.8985
-11.5169
-14.7075
-18.5905
-23.3116
-29.0555
-36.0577
-44.5241
-54.6064
-67.9751
-87.9118
0.806533
0.449019
-0.046398
-0.662171
-1.424
-2.3671
-3.53042
-4.9604
-6.71325
-8.8568
-11.473
-14.661
-18.5409
-23.2584
-28.9977
-35.9943
-44.4549
-54.532
-67.8918
-87.8084
0.83665
0.478698
-0.0165969
-0.632159
-1.3939
-2.33685
-3.49981
-4.92909
-6.68088
-8.82299
-11.4373
-14.6231
-18.5003
-23.2144
-28.9498
-35.9418
-44.3979
-54.4723
-67.8297
-87.7364
0.855823
0.497729
0.00331017
-0.61139
-1.37256
-2.31507
-3.47753
-4.90615
-6.65703
-8.79794
-11.4108
-14.5946
-18.4695
-23.181
-28.9132
-35.9016
-44.3543
-54.4272
-67.7846
-87.6867
0.863296
0.50559
0.012678
-0.600642
-1.36079
-2.30253
-3.46431
-4.8922
-6.64224
-8.78212
-11.3937
-14.576
-18.4491
-23.1585
-28.8884
-35.8742
-44.3247
-54.3972
-67.756
-87.657
0.859695
0.502602
0.0114985
-0.600149
-1.35898
-2.29966
-3.46056
-4.88765
-6.63686
-8.77583
-11.3864
-14.5675
-18.4392
-23.1471
-28.8754
-35.8597
-44.3093
-54.3825
-67.7446
-87.6477
0.846038
0.489467
0.000218247
-0.609672
-1.36705
-2.30653
-3.46643
-4.89267
-6.64108
-8.77927
-11.389
-14.5693
-18.44
-23.1469
-28.8743
-35.8581
-44.308
-54.3835
-67.7507
-87.6587
0.823211
0.466915
-0.0205805
-0.628774
-1.38471
-2.32297
-3.48185
-4.90725
-6.65495
-8.79249
-11.4016
-14.5813
-18.4515
-23.158
-28.8853
-35.8695
-44.3209
-54.4002
-67.7742
-87.6894
0.791934
0.435607
-0.0503246
-0.65698
-1.41159
-2.3487
-3.50663
-4.93127
-6.67837
-8.81544
-11.4242
-14.6036
-18.4737
-23.1803
-28.9082
-35.8938
-44.348
-54.4325
-67.8149
-87.739
0.752812
0.396121
-0.0884876
-0.693823
-1.44728
-2.38339
-3.5405
-4.96451
-6.71118
-8.84798
-11.4566
-14.6361
-18.5065
-23.2139
-28.9431
-35.931
-44.3893
-54.4804
-67.8727
-87.8073
0.706335
0.348942
-0.134608
-0.738876
-1.49141
-2.42669
-3.58315
-5.00672
-6.75315
-8.88992
-11.4987
-14.6787
-18.5499
-23.2585
-28.9898
-35.981
-44.4445
-54.5437
-67.9474
-87.894
0.652885
0.294461
-0.188299
-0.791764
-1.54361
-2.47829
-3.6343
-5.05762
-6.80403
-8.94102
-11.5503
-14.7311
-18.6035
-23.314
-29.0481
-36.0436
-44.5135
-54.6224
-68.0393
-87.9992
0.592758
0.232995
-0.249235
-0.85216
-1.60357
-2.53788
-3.69364
-5.11693
-6.86355
-9.00102
-11.6111
-14.7931
-18.6672
-23.3801
-29.1177
-36.1183
-44.596
-54.7164
-68.1484
-88.1234
0.526186
0.164798
-0.317149
-0.919791
-1.67101
-2.60518
-3.76092
-5.18439
-6.93146
-9.06968
-11.6809
-14.8644
-18.7406
-23.4565
-29.1982
-36.2048
-44.6916
-54.8255
-68.2755
-88.2677
0.453379
0.0901075
-0.391781
-0.99438
-1.74565
-2.67989
-3.83581
-5.25968
-7.00742
-9.14663
-11.7592
-14.9446
-18.8233
-23.5426
-29.2891
-36.3024
-44.7992
-54.9486
-68.4206
-88.4345
0.374502
0.00909596
-0.472955
-1.07575
-1.8273
-2.76183
-3.91816
-5.34263
-7.09125
-9.23168
-11.8459
-15.0334
-18.915
-23.6381
-29.3898
-36.4103
-44.9175
-55.0836
-68.5828
-88.6266
0.289755
-0.0780138
-0.560429
-1.16366
-1.91575
-2.85082
-4.0078
-5.43314
-7.18292
-9.32489
-11.9411
-15.1311
-19.016
-23.7434
-29.5008
-36.5291
-45.0465
-55.2284
-68.7571
-88.8488
0.727769
0.702943
0.615468
0.507304
0.386765
0.258491
0.124254
-0.0146678
-0.157231
-0.302394
-0.449076
-0.596134
-0.742376
-0.886576
-1.02751
-1.16396
-1.29478
-1.4189
-1.5354
-1.64363
0.305052
0.2722
0.196626
0.0956781
-0.0211192
-0.147925
-0.282011
-0.421548
-0.565179
-0.711679
-0.859856
-1.0085
-1.15639
-1.30226
-1.44487
-1.58302
-1.71554
-1.84137
-1.95958
-2.06957
-0.199816
-0.244616
-0.319636
-0.417753
-0.532246
-0.658037
-0.792085
-0.932247
-1.07692
-1.22473
-1.37437
-1.52459
-1.67413
-1.82171
-1.96612
-2.10615
-2.24068
-2.36864
-2.48916
-2.60167
-0.836496
-0.887884
-0.963791
-1.06046
-1.17311
-1.29769
-1.43123
-1.57149
-1.71669
-1.86533
-2.01602
-2.16744
-2.31829
-2.4673
-2.61323
-2.7549
-2.8912
-3.02108
-3.14368
-3.25854
-1.62041
-1.67802
-1.75593
-1.85247
-1.96433
-2.08826
-2.22156
-2.36201
-2.50779
-2.65728
-2.80903
-2.96167
-3.11386
-3.26432
-3.41181
-3.55515
-3.69324
-3.82505
-3.94975
-4.06696
-2.58259
-2.64648
-2.72748
-2.82507
-2.9371
-3.06102
-3.19448
-3.33536
-3.48184
-3.63228
-3.78516
-3.93909
-4.09269
-4.24468
-4.39381
-4.53892
-4.6789
-4.81274
-4.93964
-5.05932
-3.76377
-3.83346
-3.91808
-4.01752
-4.13047
-4.25493
-4.3889
-4.53042
-4.67774
-4.82919
-4.98327
-5.13854
-5.29362
-5.44721
-5.59808
-5.74504
-5.88702
-6.02299
-6.1522
-6.27448
-5.21143
-5.28643
-5.37486
-5.47669
-5.59113
-5.71661
-5.85145
-5.99387
-6.14219
-6.2948
-6.45018
-6.6069
-6.76357
-6.91888
-7.0716
-7.22058
-7.36469
-7.50293
-7.6346
-7.75965
-6.98204
-7.06202
-7.15434
-7.25895
-7.37536
-7.50234
-7.63843
-7.78206
-7.93164
-8.08562
-8.2425
-8.40086
-8.55932
-8.71656
-8.87137
-9.02257
-9.16904
-9.30977
-9.44412
-9.57219
-9.14365
-9.22842
-9.32473
-9.43245
-9.55129
-9.68022
-9.81802
-9.96325
-10.1144
-10.2701
-10.4288
-10.5891
-10.7497
-10.9092
-11.0664
-11.2202
-11.3694
-11.5129
-11.6503
-11.7817
-11.7786
-11.8681
-11.9685
-12.0797
-12.2014
-12.3328
-12.4728
-12.6202
-12.7734
-12.9313
-13.0923
-13.255
-13.4181
-13.5804
-13.7405
-13.8973
-14.0497
-14.1965
-14.3373
-14.4727
-14.9866
-15.0809
-15.1857
-15.3007
-15.4258
-15.5602
-15.703
-15.853
-16.009
-16.1696
-16.3335
-16.4993
-16.6657
-16.8313
-16.995
-17.1556
-17.3118
-17.4626
-17.6075
-17.7475
-18.8882
-18.9876
-19.0971
-19.2162
-19.3452
-19.4832
-19.6295
-19.783
-19.9425
-20.1067
-20.2743
-20.444
-20.6144
-20.7844
-20.9526
-21.1178
-21.2788
-21.4343
-21.5842
-21.7296
-23.6301
-23.7348
-23.8491
-23.9729
-24.1063
-24.2486
-24.3992
-24.5569
-24.7208
-24.8896
-25.0619
-25.2365
-25.4121
-25.5874
-25.7613
-25.9323
-26.0992
-26.2606
-26.4166
-26.5685
-29.3971
-29.5071
-29.6266
-29.7554
-29.8937
-30.041
-30.1966
-30.3596
-30.5289
-30.7034
-30.8817
-31.0625
-31.2446
-31.4266
-31.6075
-31.7858
-31.9601
-32.129
-32.2924
-32.452
-36.4242
-36.5397
-36.6645
-36.7984
-36.9419
-37.0947
-37.2561
-37.4252
-37.6011
-37.7826
-37.9682
-38.1567
-38.3468
-38.5373
-38.7269
-38.9144
-39.098
-39.2761
-39.4484
-39.6168
-44.9192
-45.0402
-45.1693
-45.3073
-45.4553
-45.6133
-45.7809
-45.957
-46.1406
-46.3302
-46.5247
-46.7225
-46.9224
-47.123
-47.3231
-47.5214
-47.7161
-47.9055
-48.0887
-48.2678
-55.0452
-55.1673
-55.2949
-55.4327
-55.5828
-55.7452
-55.9188
-56.1023
-56.2942
-56.4931
-56.6975
-56.9059
-57.1169
-57.3291
-57.5409
-57.751
-57.9587
-58.1631
-58.363
-58.5578
-68.4806
-68.5833
-68.696
-68.8276
-68.9769
-69.1423
-69.3215
-69.5122
-69.7126
-69.921
-70.1358
-70.3554
-70.5785
-70.8034
-71.0284
-71.2526
-71.4775
-71.7061
-71.9365
-72.1548
-88.4642
-88.5147
-88.606
-88.7292
-88.8776
-89.0453
-89.229
-89.4258
-89.6336
-89.8506
-90.075
-90.3056
-90.5411
-90.7799
-91.0206
-91.2629
-91.5114
-91.7742
-92.0486
-92.2931
-1.74319
-1.83329
-1.91417
-1.98596
-2.04918
-2.1045
-2.15276
-2.19503
-2.23253
-2.26647
-2.29793
-2.328
-2.35758
-2.38727
-2.41731
-2.44683
-2.47201
-2.4836
-2.45914
-2.38174
-2.17097
-2.26292
-2.34568
-2.41935
-2.48446
-2.54165
-2.59171
-2.6356
-2.6746
-2.7099
-2.74237
-2.77306
-2.80281
-2.83198
-2.86035
-2.88727
-2.91117
-2.92227
-2.89395
-2.83914
-2.70588
-2.80081
-2.8868
-2.9639
-3.0326
-3.09355
-3.14744
-3.19515
-3.23792
-3.27688
-3.3128
-3.34658
-3.37902
-3.41038
-3.44033
-3.46835
-3.4935
-3.50874
-3.49734
-3.47255
-3.36538
-3.46312
-3.55216
-3.6325
-3.70464
-3.76916
-3.82675
-3.87813
-3.92448
-3.96695
-4.00618
-4.04291
-4.07786
-4.11119
-4.14258
-4.17149
-4.19669
-4.21298
-4.21274
-4.20841
-4.17643
-4.27695
-4.36898
-4.4525
-4.52796
-4.59593
-4.65704
-4.71195
-4.76165
-4.80732
-4.84963
-4.88899
-4.92608
-4.96103
-4.99351
-5.02303
-5.04818
-5.06516
-5.07162
-5.0783
-5.17153
-5.27495
-5.37006
-5.45682
-5.53567
-5.6071
-5.67177
-5.73015
-5.78313
-5.83199
-5.87723
-5.91906
-5.95814
-5.99459
-6.02812
-6.05832
-6.08392
-6.10246
-6.114
-6.12659
-6.38958
-6.496
-6.59431
-6.6844
-6.76669
-6.84164
-6.90985
-6.97174
-7.02799
-7.07991
-7.12801
-7.17227
-7.21332
-7.25131
-7.28603
-7.31716
-7.34372
-7.36437
-7.38015
-7.39663
-7.87782
-7.98739
-8.08901
-8.18254
-8.26836
-8.34689
-8.41868
-8.48407
-8.54367
-8.59868
-8.64959
-8.69637
-8.73952
-8.77925
-8.81543
-8.84786
-8.87586
-8.89886
-8.9182
-8.93776
-9.69367
-9.80661
-9.91174
-10.0089
-10.0984
-10.1806
-10.2561
-10.3252
-10.3883
-10.4464
-10.5003
-10.5499
-10.5954
-10.6372
-10.6753
-10.7094
-10.7394
-10.7648
-10.7873
-10.8096
-11.9069
-12.0235
-12.1325
-12.2335
-12.327
-12.4132
-12.4926
-12.5656
-12.6324
-12.6939
-12.7512
-12.8039
-12.8521
-12.8965
-12.9369
-12.9734
-13.0056
-13.0338
-13.0591
-13.0841
-14.6021
-14.7228
-14.836
-14.9413
-15.0391
-15.1296
-15.2133
-15.2906
-15.3617
-15.4271
-15.4878
-15.5441
-15.5959
-15.6432
-15.6866
-15.7259
-15.761
-15.7921
-15.8204
-15.8484
-17.8817
-18.0072
-18.1251
-18.2352
-18.3378
-18.4331
-18.5216
-18.6036
-18.6795
-18.7493
-18.8141
-18.8747
-18.9304
-18.9814
-19.0284
-19.0713
-19.1098
-19.1442
-19.1758
-19.2071
-21.8695
-22.0004
-22.1237
-22.2392
-22.3472
-22.4479
-22.5418
-22.6291
-22.7103
-22.7854
-22.855
-22.9201
-22.9806
-23.0364
-23.0877
-23.1348
-23.1775
-23.2158
-23.2511
-23.2865
-26.7151
-26.8522
-26.9816
-27.1031
-27.2172
-27.3239
-27.4238
-27.5172
-27.6043
-27.6855
-27.7606
-27.8309
-27.8974
-27.9586
-28.015
-28.0674
-28.1152
-28.1581
-28.1979
-28.2381
-32.6062
-32.7503
-32.8864
-33.0147
-33.1355
-33.2489
-33.3555
-33.4555
-33.5493
-33.6371
-33.7189
-33.7956
-33.8681
-33.9359
-33.9989
-34.0576
-34.1116
-34.1604
-34.2057
-34.2514
-39.7795
-39.9314
-40.0751
-40.2106
-40.3386
-40.4593
-40.5731
-40.6804
-40.7815
-40.8768
-40.9662
-41.0498
-41.1293
-41.2052
-41.2759
-41.342
-41.4038
-41.4599
-41.5115
-41.5632
-48.4408
-48.6015
-48.7529
-48.8956
-49.0308
-49.1589
-49.2804
-49.3955
-49.5046
-49.6079
-49.7055
-49.7975
-49.8852
-49.9691
-50.0485
-50.1234
-50.194
-50.2587
-50.3182
-50.3772
-58.7426
-58.9106
-59.0672
-59.2155
-59.357
-59.4924
-59.6215
-59.7447
-59.8621
-59.9737
-60.0798
-60.1807
-60.2766
-60.3687
-60.4569
-60.5402
-60.62
-60.6975
-60.7725
-60.845
-72.3409
-72.5051
-72.6598
-72.8105
-72.9569
-73.0987
-73.2352
-73.3659
-73.4909
-73.6102
-73.7241
-73.8332
-73.9379
-74.0383
-74.1349
-74.2287
-74.3234
-74.4269
-74.5387
-74.6365
-92.4409
-92.5812
-92.7293
-92.8804
-93.0307
-93.1776
-93.3197
-93.4563
-93.5874
-93.7131
-93.834
-93.9512
-94.0654
-94.1774
-94.2874
-94.3982
-94.5196
-94.6675
-94.8397
-94.9682
-94.9416
-74.6878
-60.9088
-50.4338
-41.6134
-34.2963
-28.278
-23.3217
-19.2385
-15.8764
-13.1095
-10.8328
-8.95942
-7.41737
-6.14727
-5.0996
-4.23121
-3.50562
-2.90749
-2.43989
-94.9125
-74.712
-60.9538
-50.4793
-41.655
-34.3341
-28.312
-23.3522
-19.2659
-15.9014
-13.1325
-10.8543
-8.97995
-7.4377
-6.16834
-5.12267
-4.25917
-3.54693
-2.97556
-2.52176
-94.908
-74.731
-60.99
-50.5193
-41.693
-34.3688
-28.3435
-23.3807
-19.2917
-15.925
-13.1543
-10.8747
-8.9995
-7.45682
-6.18747
-5.14233
-4.28034
-3.57081
-2.99972
-2.53736
-94.9209
-74.7551
-61.0236
-50.556
-41.7281
-34.4011
-28.3728
-23.4072
-19.3157
-15.9469
-13.1745
-10.8936
-9.01731
-7.47384
-6.20391
-5.15842
-4.29642
-3.58665
-3.01195
-2.5407
-94.9456
-74.7845
-61.0577
-50.5914
-41.762
-34.4321
-28.4008
-23.4325
-19.3386
-15.9677
-13.1935
-10.9112
-9.03355
-7.48884
-6.21767
-5.17085
-4.30739
-3.59545
-3.01607
-2.53858
-94.9778
-74.819
-61.0936
-50.6268
-41.7952
-34.4623
-28.428
-23.4569
-19.3606
-15.9876
-13.2117
-10.9277
-9.04864
-7.5025
-6.22986
-5.18147
-4.31635
-3.6023
-3.01904
-2.53733
-95.0156
-74.8575
-61.1317
-50.663
-41.8286
-34.4924
-28.4549
-23.481
-19.3823
-16.0072
-13.2294
-10.9438
-9.06318
-7.51556
-6.2414
-5.19145
-4.32476
-3.60896
-3.02267
-2.53821
-95.058
-74.8997
-61.1723
-50.7006
-41.8626
-34.5228
-28.482
-23.5051
-19.4039
-16.0267
-13.2471
-10.9599
-9.07779
-7.52875
-6.25318
-5.20185
-4.3339
-3.61676
-3.02815
-2.54187
-95.1045
-74.9452
-61.2154
-50.7399
-41.8977
-34.554
-28.5096
-23.5297
-19.426
-16.0467
-13.2653
-10.9765
-9.09298
-7.54263
-6.26581
-5.21331
-4.34434
-3.6262
-3.03573
-2.54824
-95.1551
-74.9941
-61.2611
-50.7812
-41.9343
-34.5863
-28.5382
-23.5552
-19.4489
-16.0674
-13.2843
-10.994
-9.10917
-7.55763
-6.27972
-5.22622
-4.35643
-3.63748
-3.04547
-2.55712
-95.21
-75.0464
-61.3096
-50.8247
-41.9726
-34.62
-28.5681
-23.5818
-19.4729
-16.0893
-13.3045
-11.0127
-9.1267
-7.57407
-6.29517
-5.2408
-4.37031
-3.65066
-3.05726
-2.56827
-95.2698
-75.1025
-61.3611
-50.8706
-42.0129
-34.6554
-28.5994
-23.6099
-19.4983
-16.1127
-13.3261
-11.033
-9.1458
-7.59217
-6.31236
-5.25719
-4.38605
-3.66573
-3.07102
-2.58152
-95.3349
-75.1625
-61.4157
-50.9191
-42.0554
-34.6927
-28.6325
-23.6396
-19.5254
-16.1376
-13.3494
-11.055
-9.16667
-7.61208
-6.33142
-5.27548
-4.40369
-3.68268
-3.08669
-2.59673
-95.4055
-75.2265
-61.4737
-50.9704
-42.1003
-34.7322
-28.6676
-23.6712
-19.5543
-16.1645
-13.3746
-11.0788
-9.18947
-7.63395
-6.35246
-5.29576
-4.42331
-3.70155
-3.10425
-2.61389
-95.4819
-75.2944
-61.5349
-51.0249
-42.148
-34.7741
-28.7049
-23.705
-19.5853
-16.1934
-13.4018
-11.1048
-9.21436
-7.65793
-6.3756
-5.31814
-4.44498
-3.72241
-3.12377
-2.63303
-95.5651
-75.3664
-61.5993
-51.0822
-42.1983
-34.8183
-28.7444
-23.7409
-19.6185
-16.2245
-13.4314
-11.133
-9.24153
-7.68418
-6.40101
-5.34274
-4.46882
-3.74537
-3.14536
-2.65426
-95.661
-75.4451
-61.6669
-51.1416
-42.2503
-34.8641
-28.7856
-23.7787
-19.6537
-16.2577
-13.4631
-11.1635
-9.27105
-7.71282
-6.42882
-5.36974
-4.49501
-3.7706
-3.16918
-2.67774
-95.7789
-75.5345
-61.7375
-51.2015
-42.3026
-34.9105
-28.8275
-23.8175
-19.6902
-16.2925
-13.4966
-11.196
-9.30265
-7.74364
-6.45889
-5.39905
-4.52354
-3.79816
-3.19533
-2.70358
-95.918
-75.6352
-61.8127
-51.264
-42.3575
-34.9596
-28.8722
-23.8588
-19.7292
-16.3297
-13.5323
-11.2307
-9.33652
-7.77676
-6.49128
-5.43071
-4.55443
-3.82807
-3.22387
-2.73192
-96.0376
-75.7342
-61.8931
-51.3326
-42.4187
-35.0151
-28.9229
-23.9058
-19.7732
-16.3715
-13.5725
-11.2695
-9.37416
-7.81343
-6.52705
-5.46559
-4.58841
-3.86096
-3.25534
-2.76322
-1.59598
-0.818447
-0.495338
-0.304253
-0.20826
-0.140936
-0.0960181
-0.0612511
-0.0348478
-0.0153978
-0.00226907
0.00558736
0.00951722
0.0108323
0.0106066
0.00958689
0.00824888
0.00686051
0.00556268
0.00441652
0.00344595
0.00264749
0.002003
0.00149692
0.00110343
0.000803081
0.000576619
0.000410149
0.000288201
0.000198611
0.000135394
9.28412e-05
6.1975e-05
4.21802e-05
2.88943e-05
2.21166e-05
1.33306e-05
1.06489e-05
1.2703e-06
7.6942e-06
-1.64499
-0.838623
-0.512366
-0.310803
-0.211207
-0.140789
-0.0949224
-0.0599834
-0.0340213
-0.0151182
-0.00248567
0.0050159
0.0087198
0.00991094
0.00963293
0.00861056
0.00730182
0.00596346
0.00472848
0.00365092
0.00275194
0.00202344
0.00144712
0.0010056
0.000671837
0.000426314
0.000250488
0.000129881
4.88717e-05