/*--------------------------------*- C++ -*----------------------------------*\
| =========                 |                                                 |
| \\      /  F ield         | OpenFOAM: The Open Source CFD Toolbox           |
|  \\    /   O peration     | Version:  v1912                                 |
|   \\  /    A nd           | Website:  www.openfoam.com                      |
|    \\/     M anipulation  |                                                 |
\*---------------------------------------------------------------------------*/
FoamFile
{
    version     2.0;
    format      ascii;
    class       surfaceScalarField;
    location    "48";
    object      phi;
}
// * * * * * * * * * * * * * * * * * * * * * * * * * * * * * * * * * * * * * //

dimensions      [0 3 -1 0 0 0 0];
oriented        oriented;


internalField   nonuniform List<scalar> 
18940
(
0.000358149
-0.234364
0.234006
0.00137859
-0.216326
0.215305
0.00288202
-0.204791
0.203287
0.00469799
-0.197008
0.195193
0.00669571
-0.191254
0.189256
0.0087735
-0.18646
0.184382
0.0108576
-0.182039
0.179954
0.0128985
-0.177695
0.175654
0.0148662
-0.173304
0.171336
0.0167452
-0.168837
0.166958
0.0185308
-0.164317
0.162531
0.0202255
-0.159784
0.158089
0.0218362
-0.155287
0.153676
0.0233729
-0.15087
0.149333
0.0248467
-0.146568
0.145094
0.0262693
-0.142406
0.140984
0.0276521
-0.138397
0.137014
0.0290058
-0.134538
0.133184
0.0303387
-0.130809
0.129476
-0.127171
0.125854
0.0316561
0.000381573
-0.234746
0.0014219
-0.217366
0.00293605
-0.206305
0.00475634
-0.198829
0.00674854
-0.193246
0.00881104
-0.188522
0.0108713
-0.184099
0.0128815
-0.179705
0.0148133
-0.175236
0.0166533
-0.170677
0.0183981
-0.166062
0.0200517
-0.161438
0.021622
-0.156857
0.0231196
-0.152367
0.024556
-0.148004
0.0259433
-0.143794
0.0272932
-0.139747
0.0286166
-0.135861
0.0299223
-0.132115
-0.128465
0.0312163
0.000402997
-0.235149
0.00145956
-0.218423
0.00298243
-0.207828
0.00480328
-0.20065
0.00678632
-0.195229
0.00882985
-0.190566
0.0108626
-0.186132
0.0128386
-0.181681
0.0147315
-0.177128
0.0165295
-0.172475
0.0182312
-0.167763
0.0198416
-0.163048
0.0213697
-0.158385
0.0228266
-0.153824
0.0242242
-0.149402
0.0255749
-0.145144
0.0268906
-0.141063
0.0281823
-0.137153
0.0294596
-0.133392
-0.129735
0.0307291
0.00041687
-0.235566
0.00148848
-0.219494
0.00301922
-0.209358
0.00483807
-0.202468
0.00680858
-0.197199
0.00882959
-0.192587
0.0108314
-0.188133
0.0127699
-0.183619
0.0146208
-0.178979
0.0163744
-0.174229
0.0180307
-0.16942
0.019596
-0.164613
0.0210803
-0.15987
0.0224951
-0.155239
0.0238528
-0.15076
0.0251657
-0.146457
0.0264461
-0.142343
0.0277052
-0.138412
0.028953
-0.13464
-0.130979
0.0301972
0.00042814
-0.235994
0.00151201
-0.220578
0.00304778
-0.210894
0.00486137
-0.204282
0.00681579
-0.199154
0.00881072
-0.194582
0.0107781
-0.190101
0.012676
-0.185517
0.0144822
-0.180786
0.0161889
-0.175936
0.0177977
-0.171028
0.0193163
-0.166132
0.0207552
-0.161309
0.0221266
-0.15661
0.0234432
-0.152076
0.0247174
-0.147731
0.0259614
-0.143587
0.0271869
-0.139638
0.0284045
-0.135857
-0.132197
0.0296226
0.000437232
-0.236431
0.00153056
-0.221671
0.00306836
-0.212432
0.00487341
-0.206087
0.00680826
-0.201089
0.00877363
-0.196547
0.0107033
-0.19203
0.0125576
-0.187371
0.0143164
-0.182544
0.0159739
-0.177593
0.0175333
-0.172588
0.0190034
-0.167602
0.0203955
-0.162701
0.0217224
-0.157937
0.0229967
-0.153351
0.0242311
-0.148966
0.0254378
-0.144794
0.0266288
-0.140829
0.0278152
-0.137044
-0.133388
0.0290066
0.000444713
-0.236876
0.00154481
-0.222772
0.00308152
-0.213969
0.00487467
-0.20788
0.00678649
-0.203
0.00871891
-0.19848
0.0106077
-0.193919
0.0124155
-0.189179
0.0141244
-0.184253
0.0157305
-0.179199
0.0172386
-0.174096
0.0186585
-0.169022
0.0200025
-0.164045
0.0212835
-0.159218
0.0225145
-0.154582
0.023708
-0.150159
0.0248763
-0.145962
0.0260317
-0.141984
0.0271859
-0.138198
-0.134552
0.0283497
0.000450738
-0.237327
0.00155508
-0.223876
0.00308768
-0.215501
0.00486564
-0.209658
0.00675104
-0.204886
0.00864724
-0.200376
0.0104921
-0.195764
0.0122506
-0.190938
0.0139072
-0.18591
0.0154597
-0.180752
0.0169146
-0.175551
0.0182828
-0.17039
0.0195771
-0.165339
0.020811
-0.160452
0.0219974
-0.155768
0.0231488
-0.151311
0.0242775
-0.147091
0.025396
-0.143103
0.0265168
-0.139319
-0.135687
0.0276518
0.000455413
-0.237782
0.00156167
-0.224982
0.00308728
-0.217027
0.00484686
-0.211418
0.00670261
-0.206742
0.00855943
-0.202233
0.0103575
-0.197562
0.0120641
-0.192644
0.0136659
-0.187512
0.0151628
-0.182249
0.0165626
-0.176951
0.0178774
-0.171705
0.0191206
-0.166582
0.0203059
-0.161638
0.0214462
-0.156908
0.022554
-0.152418
0.0236415
-0.148178
0.0247214
-0.144183
0.0258072
-0.140405
-0.136792
0.026912
0.000458811
-0.238241
0.00156484
-0.226088
0.00308079
-0.218543
0.004819
-0.213156
0.006642
-0.208565
0.00845646
-0.204047
0.0102049
-0.199311
0.0118571
-0.194296
0.0134019
-0.189057
0.0148411
-0.183688
0.016184
-0.178294
0.0174436
-0.172964
0.0186339
-0.167773
0.0197689
-0.162773
0.0208615
-0.158001
0.0219238
-0.153481
0.0229681
-0.149222
0.0240074
-0.145222
0.0250559
-0.141453
-0.137864
0.0261285
0.00046104
-0.238702
0.00156496
-0.227192
0.00306879
-0.220047
0.0047828
-0.21487
0.00657015
-0.210352
0.00833947
-0.205817
0.0100357
-0.201007
0.0116311
-0.195892
0.0131168
-0.190542
0.0144963
-0.185068
0.0157804
-0.179578
0.0169829
-0.174167
0.0181184
-0.168908
0.0192011
-0.163855
0.0202438
-0.159044
0.0212584
-0.154495
0.022257
-0.150221
0.0232529
-0.146218
0.0242611
-0.142461
-0.138902
0.0252986
0.000462253
-0.239164
0.00156246
-0.228292
0.00305196
-0.221536
0.00473917
-0.216557
0.00648818
-0.212101
0.00820977
-0.207538
0.00985141
-0.202649
0.0113878
-0.197428
0.0128123
-0.191967
0.0141302
-0.186386
0.0153535
-0.180801
0.0164969
-0.17531
0.0175756
-0.169987
0.0186037
-0.164883
0.019594
-0.160034
0.0205581
-0.155459
0.0215078
-0.151171
0.0224566
-0.147166
0.0234206
-0.143425
-0.1399
0.0244192
0.000462731
-0.239627
0.00155797
-0.229388
0.00303115
-0.223009
0.00468917
-0.218215
0.0063974
-0.213809
0.00806891
-0.20921
0.00965379
-0.204233
0.0111292
-0.198903
0.0124906
-0.193328
0.0137451
-0.18764
0.0149057
-0.181961
0.0159879
-0.176392
0.0170073
-0.171006
0.0179782
-0.165854
0.0189131
-0.160969
0.0198233
-0.15637
0.0207202
-0.152068
0.0216173
-0.148063
0.0225322
-0.14434
-0.140855
0.0234864
0.000462952
-0.24009
0.00155234
-0.230477
0.00300742
-0.224465
0.00463406
-0.219842
0.00629926
-0.215474
0.00791863
-0.210829
0.00944487
-0.20576
0.0108576
-0.200316
0.0121544
-0.194625
0.0133437
-0.188829
0.0144398
-0.183058
0.0154586
-0.177411
0.0164162
-0.171964
0.0173267
-0.166765
0.0182025
-0.161844
0.0190544
-0.157222
0.0198935
-0.152907
0.020733
-0.148903
0.0215916
-0.145199
-0.141757
0.022494
0.000463717
-0.240554
0.00154673
-0.23156
0.00298199
-0.2259
0.00457518
-0.221435
0.00619539
-0.217095
0.00776084
-0.212394
0.00922692
-0.207226
0.0105756
-0.201665
0.0118065
-0.195856
0.0129294
-0.189952
0.0139593
-0.184087
0.0149129
-0.178365
0.015806
-0.172857
0.0166527
-0.167611
0.0174649
-0.162657
0.0182531
-0.15801
0.0190274
-0.153681
0.0198008
-0.149676
0.0205928
-0.145991
-0.142598
0.0214335
0.000466175
-0.24102
0.00154246
-0.232636
0.00295606
-0.227313
0.00451392
-0.222993
0.00608747
-0.218668
0.00759762
-0.213905
0.00900242
-0.208631
0.0102862
-0.202949
0.0114504
-0.19702
0.0125061
-0.191008
0.013469
-0.18505
0.0143558
-0.179251
0.0151822
-0.173683
0.015962
-0.168391
0.0167063
-0.163401
0.0174247
-0.158728
0.0181262
-0.154382
0.0188226
-0.150373
0.0195347
-0.146703
-0.143364
0.0203015
0.000471715
-0.241491
0.00154083
-0.233705
0.00293095
-0.228704
0.00445182
-0.224514
0.00597736
-0.220194
0.00743116
-0.215358
0.00877399
-0.209973
0.00999254
-0.204167
0.0110899
-0.198117
0.0120782
-0.191996
0.0129737
-0.185946
0.013793
-0.180071
0.0145513
-0.174442
0.0152618
-0.169102
0.0159348
-0.164074
0.0165785
-0.159372
0.0172005
-0.155004
0.0178108
-0.150983
0.0184301
-0.147322
-0.144033
0.0190983
0.000482667
-0.241974
0.00154448
-0.234767
0.00290914
-0.230068
0.00439101
-0.225996
0.00586701
-0.22167
0.00726357
-0.216755
0.00854419
-0.211254
0.00969781
-0.205321
0.0107291
-0.199149
0.011651
-0.192918
0.0124797
-0.186775
0.0132315
-0.180823
0.0139207
-0.175131
0.0145592
-0.16974
0.0151561
-0.164671
0.0157189
-0.159935
0.016254
-0.15554
0.0167678
-0.151497
0.0172731
-0.147828
-0.144554
0.0177941
0.000506612
-0.242481
0.00156061
-0.235821
0.00289468
-0.231402
0.00433338
-0.227434
0.00575767
-0.223094
0.00709628
-0.218094
0.00831505
-0.212473
0.00940497
-0.206411
0.0103721
-0.200116
0.0112301
-0.193776
0.011995
-0.187539
0.0126819
-0.181509
0.0133034
-0.175752
0.0138686
-0.170305
0.0143832
-0.165186
0.014851
-0.160402
0.0152739
-0.155962
0.0156507
-0.151874
0.0159858
-0.148163
-0.144909
0.0163413
0.000563668
-0.243044
0.00159754
-0.236855
0.00288732
-0.232692
0.00427776
-0.228825
0.00564886
-0.224465
0.00692968
-0.219374
0.00808785
-0.213631
0.00911632
-0.207439
0.0100227
-0.201022
0.0108214
-0.194575
0.0115285
-0.188247
0.0121584
-0.182139
0.0127217
-0.176316
0.0132241
-0.170808
0.0136653
-0.165627
0.0140379
-0.160775
0.014325
-0.15625
0.0145006
-0.152049
0.0145595
-0.148222
-0.145081
0.0147311
0.250726
0.00041502
-0.251141
0.250337
0.00038866
0.249956
0.000381391
0.249574
0.000381523
0.24919
0.000384469
0.248801
0.000388881
0.248407
0.000394034
0.248008
0.00039934
0.247603
0.000404406
0.247194
0.000409027
0.246781
0.000413107
0.246364
0.00041662
0.245945
0.000419547
0.245523
0.000421866
0.2451
0.000423452
0.244675
0.000424099
0.244253
0.00042276
0.243834
0.000418886
0.243431
0.000403276
0.000386186
0.252693
0.00102343
-0.253302
0.252049
0.00103265
0.251377
0.00105374
0.250678
0.00108073
0.249953
0.00110909
0.249204
0.00113747
0.248433
0.00116538
0.24764
0.00119234
0.246827
0.00121792
0.245994
0.00124187
0.245143
0.00126407
0.244275
0.0012845
0.243391
0.00130316
0.242493
0.00132004
0.241582
0.00133499
0.240658
0.00134782
0.239723
0.00135742
0.238779
0.00136351
0.237822
0.00135984
0.00135305
0.251472
0.00159532
-0.252044
0.250835
0.00166924
0.250146
0.00174337
0.249408
0.0018186
0.248624
0.00189259
0.247798
0.00196412
0.24693
0.00203285
0.246024
0.00209856
0.245081
0.00216102
0.244103
0.00222004
0.243091
0.0022756
0.242048
0.00232773
0.240974
0.00237652
0.239872
0.00242208
0.238743
0.00246442
0.237587
0.00250358
0.236406
0.00253905
0.235198
0.00257105
0.233961
0.00259721
0.00262172
0.247364
0.0020387
-0.247808
0.246851
0.00218226
0.246273
0.00232121
0.245635
0.00245697
0.244939
0.0025889
0.244187
0.00271619
0.243381
0.00283852
0.242524
0.00295571
0.241617
0.00306764
0.240663
0.00317421
0.239663
0.00327547
0.238619
0.00337152
0.237533
0.00346258
0.236406
0.00354893
0.23524
0.00363085
0.234035
0.00370869
0.232791
0.00378256
0.231509
0.00385308
0.230187
0.00391953
0.00398391
0.241115
0.00231772
-0.241394
0.240764
0.00253258
0.240345
0.00274067
0.239859
0.00294283
0.239309
0.00313901
0.238696
0.00332877
0.238023
0.00351177
0.237291
0.00368781
0.236502
0.00385677
0.235657
0.00401863
0.234759
0.00417344
0.233809
0.00432142
0.232809
0.00446288
0.23176
0.0045983
0.230662
0.00472821
0.229518
0.00485331
0.228326
0.00497419
0.227087
0.00509182
0.225801
0.00520634
0.00531944
0.233516
0.00244105
-0.233639
0.233322
0.00272651
0.233059
0.00300403
0.232727
0.00327393
0.23233
0.00353623
0.231868
0.00379062
0.231343
0.00403679
0.230757
0.0042745
0.23011
0.00450361
0.229404
0.00472409
0.228642
0.00493604
0.227824
0.00513972
0.226951
0.00533555
0.226025
0.00552418
0.225047
0.0057064
0.224017
0.00588325
0.222935
0.00605578
0.221802
0.00622538
0.220615
0.00639291
0.0065602
0.225272
0.00243924
-0.22527
0.225205
0.00279273
0.225072
0.00313755
0.224872
0.00347361
0.224607
0.00380085
0.224279
0.004119
0.223888
0.0044277
0.223436
0.00472669
0.222924
0.00501579
0.222353
0.00529496
0.221725
0.00556428
0.22104
0.00582404
0.220301
0.00607478
0.219508
0.00631728
0.218662
0.00655261
0.217763
0.00678213
0.216811
0.00700742
0.215806
0.00723036
0.214747
0.00745249
0.00767599
0.216909
0.00234846
-0.216818
0.216935
0.00276645
0.216898
0.00317515
0.216797
0.00357429
0.216634
0.00396363
0.21641
0.00434287
0.216126
0.00471164
0.215784
0.00506959
0.215383
0.00541651
0.214926
0.00575228
0.214413
0.00607699
0.213846
0.00639093
0.213226
0.00669469
0.212554
0.0069892
0.211831
0.00727576
0.211057
0.00755614
0.210232
0.00783243
0.209355
0.00810716
0.208425
0.0083827
0.00866173
0.208776
0.00220203
-0.208629
0.208861
0.00268072
0.208887
0.00314956
0.208853
0.00360812
0.208761
0.00405607
0.208611
0.00449302
0.208404
0.00491853
0.208141
0.00533219
0.207824
0.0057337
0.207453
0.0061229
0.20703
0.00649981
0.206557
0.00686468
0.206033
0.00721812
0.205461
0.00756116
0.204842
0.00789536
0.204175
0.00822284
0.203461
0.00854635
0.202699
0.00886917
0.201887
0.00919474
0.0095266
0.201072
0.00202693
-0.200896
0.20119
0.00256275
0.201251
0.00308814
0.201257
0.00360258
0.201207
0.00410561
0.201103
0.00459678
0.200946
0.00507555
0.200737
0.00554144
0.200477
0.00599406
0.200166
0.00643313
0.199808
0.00685857
0.199402
0.00727056
0.19895
0.00766969
0.198454
0.00805698
0.197915
0.00843423
0.197334
0.00880386
0.196711
0.00916942
0.196045
0.00953505
0.195335
0.00990571
0.0102862
0.19389
0.00184302
-0.193706
0.19402
0.00243285
0.194096
0.00301168
0.19412
0.00357885
0.194092
0.00413382
0.194013
0.00467603
0.193883
0.00520486
0.193705
0.00571972
0.193479
0.00622011
0.193207
0.0067056
0.192889
0.00717599
0.192528
0.0076313
0.192126
0.008072
0.191684
0.00849904
0.191204
0.00891433
0.190687
0.00932054
0.190135
0.00972211
0.189546
0.0101241
0.188918
0.0105336
0.0109573
0.187254
0.0016637
-0.187075
0.187382
0.00230503
0.187459
0.00293477
0.187485
0.00355209
0.187463
0.00415636
0.187392
0.00474692
0.187274
0.00532307
0.187109
0.00588409
0.1869
0.00642934
0.186648
0.00695824
0.186353
0.00747037
0.186019
0.00796553
0.185647
0.00844398
0.18524
0.00890641
0.184799
0.00935478
0.184328
0.00979169
0.183827
0.0102227
0.183298
0.0106535
0.182737
0.0110947
0.0115548
0.181143
0.0014973
-0.180977
0.18126
0.0021883
0.181328
0.00286695
0.181348
0.00353235
0.18132
0.0041838
0.181247
0.00482056
0.181128
0.00544181
0.180965
0.00604671
0.18076
0.00663445
0.180514
0.00720425
0.180229
0.00775546
0.179907
0.00828753
0.179551
0.00880042
0.179163
0.00929432
0.178746
0.0097711
0.178305
0.0102328
0.177842
0.0106864
0.177358
0.0111373
0.176851
0.0116019
0.0120897
0.175516
0.00134867
-0.175367
0.175617
0.00208781
0.17567
0.00281381
0.175676
0.00352571
0.175637
0.00422273
0.175554
0.004904
0.175427
0.0055686
0.175258
0.00621557
0.175049
0.00684394
0.1748
0.00745269
0.174515
0.00804087
0.174195
0.00860755
0.173843
0.0091522
0.173463
0.00967428
0.173059
0.0101753
0.172636
0.010656
0.172197
0.0111252
0.171748
0.0115859
0.171286
0.0120645
0.0125678
0.17032
0.00122008
-0.170191
0.170401
0.00200626
0.170437
0.00277836
0.170427
0.00353548
0.170373
0.00427673
0.170276
0.00500116
0.170137
0.00570774
0.169957
0.00639539
0.169738
0.00706294
0.169482
0.00770916
0.16919
0.00833276
0.168865
0.00893231
0.16851
0.00950673
0.16813
0.0100544
0.167729
0.0105763
0.167315
0.0110707
0.166891
0.0115485
0.166471
0.0120064
0.166047
0.0124883
0.0129879
0.1655
0.0011123
-0.165392
0.165562
0.00194444
0.165579
0.00276158
0.165551
0.00356282
0.165481
0.00434719
0.165368
0.00511364
0.165215
0.00586105
0.165022
0.00658823
0.164791
0.00729383
0.164524
0.00797638
0.164223
0.00863425
0.163889
0.00926549
0.163528
0.00986832
0.163142
0.0104399
0.162739
0.0109801
0.162326
0.0114834
0.161911
0.0119635
0.161514
0.0124036
0.161125
0.0128769
0.013338
0.161004
0.00102482
-0.160917
0.161047
0.00190187
0.161045
0.00276305
0.161001
0.00360736
0.160914
0.00443377
0.160787
0.00524117
0.160619
0.00602835
0.160414
0.00679399
0.160171
0.00753661
0.159893
0.00825451
0.159581
0.00894574
0.159239
0.00960785
0.158869
0.0102383
0.158476
0.0108328
0.158066
0.0113899
0.157651
0.0118987
0.157239
0.0123755
0.156862
0.0127804
0.156504
0.0132352
0.013592
0.156785
0.00095583
-0.156716
0.15681
0.00187701
0.156792
0.00278105
0.156732
0.00366727
0.156631
0.00453453
0.156491
0.00538164
0.156312
0.00620736
0.156096
0.00701028
0.155843
0.00778877
0.155557
0.00854096
0.155238
0.00926463
0.154889
0.00995691
0.154513
0.0106146
0.154114
0.0112319
0.153698
0.0118058
0.153278
0.0123185
0.152866
0.0127876
0.15251
0.013136
0.152176
0.0135691
0.0137191
0.1528
0.000903359
-0.152748
0.15281
0.001867
0.152779
0.00281239
0.152707
0.00373897
0.152596
0.00464544
0.152447
0.00553061
0.152262
0.00639321
0.15204
0.00723177
0.151784
0.00804455
0.151496
0.00882956
0.151176
0.00958438
0.150827
0.0103058
0.150451
0.0109903
0.150053
0.0116306
0.149636
0.0122226
0.149213
0.012741
0.148797
0.0132035
0.148463
0.0134706
0.14817
0.013862
0.0136673
0.14901
-0.148973
0.000865852
0.149009
0.00186789
0.148969
0.00285266
0.148891
0.00381738
0.148775
0.00476067
0.148625
0.00568147
0.148439
0.0065785
0.148221
0.00745024
0.14797
0.0082949
0.14769
0.00911039
0.14738
0.00989427
0.147042
0.0106431
0.146679
0.0113532
0.146294
0.0120165
0.145887
0.0126289
0.14547
0.0131584
0.145047
0.0136269
0.144696
0.0138214
0.144438
0.0141197
0.0130246
0.254363
7.40763e-05
-0.254437
0.254327
3.63812e-05
0.254294
3.25411e-05
0.254253
4.14676e-05
0.254197
5.58936e-05
0.254123
7.37403e-05
0.254029
9.37049e-05
0.253915
0.000114663
0.253779
0.000135802
0.253622
0.000156613
0.253446
0.000176657
0.25325
0.000195653
0.253036
0.000214097
0.252803
0.000233049
0.252552
0.000250335
0.252287
0.000265509
0.252009
0.00027817
0.251721
0.000288228
0.251431
0.000289822
0.00028983
0.256221
-0.000241452
-0.255905
0.256475
-0.000217504
0.256684
-0.000176596
0.256848
-0.000122812
0.256967
-6.2664e-05
0.257039
1.2417e-06
0.257065
6.7763e-05
0.257044
0.000135809
0.256976
0.000204455
0.256859
0.000272767
0.256697
0.000339501
0.256489
0.000403414
0.25624
0.000463266
0.255942
0.000530681
0.2556
0.000592374
0.255216
0.000649513
0.254792
0.000701953
0.254331
0.000749628
0.253833
0.000787885
0.000820943
0.251654
-0.000898019
-0.250997
0.252237
-0.00080115
0.252755
-0.000694431
0.253211
-0.000578028
0.253603
-0.000455454
0.253934
-0.000328952
0.254201
-0.00019967
0.254406
-6.9013e-05
0.254547
6.30264e-05
0.254624
0.000195874
0.254638
0.000325689
0.254589
0.000452098
0.254475
0.000577398
0.254303
0.000702441
0.254072
0.000823309
0.253783
0.000939167
0.253435
0.00104954
0.25303
0.00115432
0.252567
0.00125156
0.00134406
0.243334
-0.00183349
-0.242398
0.244197
-0.00166389
0.244989
-0.001487
0.245713
-0.00130211
0.246369
-0.00111089
0.246955
-0.000915142
0.247471
-0.000716214
0.247918
-0.00051537
0.248294
-0.0003133
0.248597
-0.000107231
0.248828
9.46394e-05
0.248991
0.000289326
0.249082
0.000485936
0.249105
0.000679527
0.24906
0.000869033
0.248945
0.00105355
0.248762
0.00123232
0.248512
0.00140498
0.248193
0.00157048
0.00172936
0.233251
-0.00296781
-0.232116
0.234317
-0.00273
0.235314
-0.00248467
0.236244
-0.0022314
0.237104
-0.0019711
0.237894
-0.00170528
0.238613
-0.00143535
0.23926
-0.00116254
0.239835
-0.000887791
0.240339
-0.000611904
0.240772
-0.000338102
0.241129
-6.77966e-05
0.241414
0.000201083
0.241627
0.000466629
0.241768
0.000728447
0.241836
0.000985097
0.241833
0.00123584
0.241757
0.0014801
0.241611
0.00171704
0.0019466
0.222694
-0.00422861
-0.221433
0.223891
-0.00392746
0.225024
-0.00361724
0.226091
-0.00329809
0.22709
-0.00297081
0.228022
-0.00263685
0.228884
-0.00229776
0.229677
-0.00195501
0.230399
-0.00161005
0.231051
-0.00126423
0.231632
-0.000919097
0.23214
-0.000575949
0.232577
-0.000235648
0.232944
0.000100273
0.233239
0.000433292
0.233461
0.000762293
0.233613
0.0010846
0.233693
0.00140015
0.233701
0.0017083
0.00200881
0.212448
-0.00555829
-0.211119
0.213719
-0.005198
0.214928
-0.00482654
0.216075
-0.00444452
0.217157
-0.004053
0.218173
-0.0036536
0.219124
-0.00324811
0.220007
-0.00283829
0.220823
-0.00242577
0.221571
-0.00201203
0.22225
-0.00159845
0.22286
-0.00118646
0.223402
-0.000776849
0.223872
-0.000370353
0.22428
2.53573e-05
0.224616
0.000426559
0.224882
0.000818143
0.22508
0.0012024
0.225209
0.00157926
0.00194832
0.202925
-0.00691507
-0.201568
0.204226
-0.00649898
0.205469
-0.00606929
0.206651
-0.00562704
0.207772
-0.00517372
0.20883
-0.00471132
0.209823
-0.00424199
0.210753
-0.00376774
0.211618
-0.0032904
0.212417
-0.0028116
0.213151
-0.00233281
0.21382
-0.0018554
0.214424
-0.00138044
0.214963
-0.000908899
0.21543
-0.000442129
0.215843
1.37361e-05
0.216184
0.000477126
0.216461
0.000925751
0.216672
0.00136782
0.00180199
0.194282
-0.00827116
-0.192926
0.195585
-0.00780179
0.196832
-0.00731614
0.19802
-0.00681554
0.199149
-0.00630215
0.200216
-0.00577857
0.201221
-0.00524736
0.202165
-0.00471085
0.203045
-0.0041711
0.203864
-0.00362989
0.20462
-0.00308875
0.205313
-0.00254902
0.205945
-0.00201189
0.206514
-0.00147826
0.207021
-0.000949562
0.207462
-0.000427094
0.207849
9.06535e-05
0.20817
0.000604213
0.20843
0.00110762
0.00160317
0.186528
-0.0096098
-0.185189
0.187815
-0.00908912
0.189048
-0.00854897
0.190224
-0.00799107
0.19134
-0.00741857
0.192396
-0.0068349
0.193392
-0.00624314
0.194327
-0.00564597
0.195202
-0.00504569
0.196016
-0.0044442
0.196771
-0.00384306
0.197465
-0.0032436
0.1981
-0.00264697
0.198676
-0.00205411
0.199193
-0.00146604
0.199649
-0.00088367
0.200047
-0.000307726
0.200389
0.000262213
0.200672
0.000825166
0.00137863
0.17959
-0.0109223
-0.178278
0.180853
-0.010352
0.182062
-0.00975817
0.183214
-0.00914317
0.184308
-0.00851176
0.185341
-0.00786842
0.186315
-0.00721682
0.187229
-0.00656004
0.188084
-0.0059006
0.18888
-0.00524048
0.189618
-0.00458122
0.190299
-0.00392408
0.190922
-0.00327014
0.191488
-0.00262032
0.191998
-0.00197547
0.19245
-0.00133646
0.192846
-0.0007038
0.193189
-8.04273e-05
0.193475
0.000539001
0.00114767
0.173364
-0.0122056
-0.172081
0.1746
-0.0115875
0.175782
-0.0109401
0.176906
-0.0102674
0.177971
-0.00957658
0.178976
-0.00887342
0.179921
-0.00816218
0.180808
-0.00744638
0.181636
-0.00672872
0.182406
-0.00601118
0.18312
-0.00529522
0.183778
-0.00458199
0.184381
-0.00387246
0.184928
-0.00316749
0.18542
-0.00246785
0.185858
-0.00177437
0.186242
-0.00108779
0.186571
-0.000409695
0.18685
0.000260104
0.000923397
0.167741
-0.0134606
-0.166486
0.168951
-0.012797
0.170106
-0.0120953
0.171202
-0.0113633
0.172237
-0.0106121
0.173212
-0.00984836
0.174127
-0.0090772
0.174983
-0.00830257
0.175782
-0.00752724
0.176524
-0.0067531
0.17721
-0.00598146
0.177841
-0.00521331
0.178419
-0.00444948
0.178942
-0.00369073
0.179412
-0.00293777
0.179829
-0.00219141
0.180193
-0.00145212
0.180504
-0.000720648
0.180768
-3.75317e-06
0.000714156
0.16262
-0.0146911
-0.16139
0.163809
-0.0139853
0.164941
-0.0132272
0.166011
-0.0124336
0.167019
-0.01162
0.167965
-0.0107943
0.16885
-0.00996232
0.169676
-0.00912857
0.170444
-0.00829573
0.171157
-0.00746546
0.171814
-0.00663882
0.172417
-0.00581658
0.172967
-0.00499939
0.173464
-0.00418788
0.173909
-0.00338268
0.174302
-0.00258456
0.174644
-0.00179414
0.174936
-0.00101275
0.175175
-0.00024219
0.000521575
0.157919
-0.0159037
-0.156707
0.159094
-0.0151599
0.160208
-0.0143416
0.161257
-0.0134824
0.16224
-0.0126033
0.163159
-0.011713
0.164015
-0.0108186
0.164812
-0.00992494
0.16555
-0.00903438
0.166233
-0.00814818
0.166861
-0.00726703
0.167436
-0.00639138
0.167958
-0.00552161
0.168429
-0.0046582
0.168848
-0.0038017
0.169216
-0.0029528
0.169534
-0.00211225
0.169802
-0.00128099
0.17002
-0.000460163
0.000350496
0.153575
-0.017111
-0.152367
0.154746
-0.0163313
0.15585
-0.0154453
0.156882
-0.0145146
0.157843
-0.0135643
0.158735
-0.0126052
0.159562
-0.0116459
0.160328
-0.0106911
0.161037
-0.00974254
0.161689
-0.00880069
0.162288
-0.00786567
0.162834
-0.00693742
0.163328
-0.00601597
0.163772
-0.00510159
0.164165
-0.00419471
0.164508
-0.00329594
0.164802
-0.00240604
0.165046
-0.00152583
0.165243
-0.000656499
0.000200976
0.149541
-0.0183422
-0.14831
0.150724
-0.0175146
0.151824
-0.0165446
0.152842
-0.0155326
0.153779
-0.0145018
0.154642
-0.0134677
0.155437
-0.012441
0.15617
-0.0114244
0.156846
-0.0104182
0.157467
-0.00942162
0.158035
-0.00843396
0.158552
-0.00745438
0.159018
-0.00648249
0.159435
-0.00551829
0.159802
-0.00456211
0.160121
-0.00361449
0.160391
-0.00267618
0.160613
-0.00174806
0.160788
-0.000831104
7.2336e-05
0.145789
-0.0196617
-0.144469
0.147006
-0.0187318
0.148102
-0.0176403
0.1491
-0.0165311
0.150006
-0.0154074
0.15083
-0.0142924
0.151587
-0.0131973
0.152283
-0.0121203
0.152923
-0.0110585
0.153511
-0.0100096
0.154048
-0.00897146
0.154537
-0.00794247
0.154976
-0.00692178
0.155367
-0.00590918
0.15571
-0.00490493
0.156005
-0.00390958
0.156252
-0.00292389
0.156453
-0.00194892
0.156608
-0.00098566
-3.60462e-05
0.142334
-0.0211396
-0.140856
0.143583
-0.0199802
0.144656
-0.018714
0.145613
-0.0174876
0.14647
-0.0162646
0.147246
-0.0150684
0.147957
-0.013908
0.148611
-0.0127752
0.149215
-0.0116622
0.14977
-0.0105646
0.150278
-0.00947897
0.150738
-0.0084029
0.151152
-0.00733525
0.151518
-0.00627579
0.151838
-0.00522481
0.152111
-0.00418291
0.152339
-0.00315096
0.15252
-0.00213013
0.152656
-0.00112191
-0.000127842
0.139246
-0.137829
-0.0225574
0.140408
-0.0211419
0.141442
-0.0197475
0.142318
-0.0183644
0.143108
-0.0170536
0.143831
-0.0157919
0.144496
-0.014573
0.145111
-0.0133898
0.145679
-0.0122311
0.146204
-0.0110889
0.146683
-0.00995847
0.147118
-0.00883736
0.147507
-0.0077244
0.14785
-0.00661947
0.148149
-0.00552306
0.148402
-0.00443594
0.14861
-0.00335909
0.148773
-0.0022935
0.148892
-0.00124077
-0.000208382
0.0308239
0.11203
-0.110547
-0.0323075
0.0293129
0.115034
-0.113523
0.0277719
0.11817
-0.116629
0.0261973
0.121463
-0.119888
0.0245859
0.124943
-0.123332
0.0229347
0.128654
-0.127003
0.0212418
0.132653
-0.13096
0.0195057
0.137021
-0.135285
0.0177259
0.14186
-0.14008
0.0159027
0.147302
-0.145479
0.0140377
0.153508
-0.151644
0.0121353
0.160665
-0.158763
0.0102044
0.168974
-0.167043
0.00826174
0.178624
-0.176681
0.0063371
0.189736
-0.187811
0.00448067
0.202276
-0.20042
0.00277222
0.215906
-0.214198
0.00133227
0.229771
-0.228331
0.000330133
0.242088
-0.241086
0.249724
-0.249394
0.030635
0.113507
-0.0321111
0.0291316
0.116537
0.0275984
0.119704
0.0260319
0.123029
0.0244287
0.126546
0.0227859
0.130297
0.0211013
0.134338
0.0193735
0.138749
0.0176016
0.143632
0.0157859
0.149118
0.0139284
0.155366
0.0120337
0.16256
0.0101112
0.170897
0.00817842
0.180557
0.0062664
0.191648
0.00442681
0.204116
0.00274089
0.217592
0.00132861
0.231183
0.000353901
0.243063
0.250078
0.0304042
0.114973
-0.0318705
0.0289106
0.118031
0.0273875
0.121227
0.0258311
0.124585
0.0242383
0.128139
0.0226061
0.131929
0.0209321
0.136012
0.0192146
0.140466
0.017453
0.145394
0.0156474
0.150924
0.0137998
0.157213
0.0119152
0.164445
0.0100035
0.172809
0.00808301
0.182477
0.00618578
0.193545
0.00436445
0.205937
0.00270082
0.219256
0.0013132
0.232571
0.00035698
0.244019
0.250435
0.0301331
0.116427
-0.0315875
0.0286515
0.119513
0.0271405
0.122738
0.0255965
0.126129
0.0240161
0.129719
0.0223964
0.133549
0.020735
0.137673
0.0190301
0.142171
0.0172808
0.147143
0.0154874
0.152717
0.013652
0.159049
0.0117798
0.166317
0.00988122
0.174707
0.00797523
0.184383
0.00609467
0.195426
0.00429295
0.207739
0.002652
0.220897
0.00128848
0.233934
0.000351921
0.244955
0.250787
0.029824
0.117868
-0.0312646
0.0283563
0.12098
0.0268593
0.124235
0.0253294
0.127659
0.0237632
0.131286
0.0221579
0.135154
0.020511
0.13932
0.0188205
0.143861
0.0170856
0.148878
0.0153065
0.154496
0.0134854
0.16087
0.0116278
0.168175
0.00974444
0.176591
0.00785505
0.186272
0.00599318
0.197288
0.0042129
0.209519
0.00259619
0.222513
0.00125804
0.235272
0.000343007
0.24587
0.25113
0.0294794
0.119293
-0.0309048
0.0280271
0.122433
0.0265457
0.125716
0.0250315
0.129173
0.0234812
0.132836
0.0218919
0.136743
0.0202611
0.140951
0.0185868
0.145536
0.0168681
0.150596
0.0151052
0.156259
0.0133004
0.162675
0.0114593
0.170016
0.00959336
0.178457
0.0077227
0.188143
0.00588167
0.199129
0.00412493
0.211276
0.00253438
0.224104
0.00122326
0.236584
0.000331406
0.246762
0.251461
0.0291022
0.120702
-0.0305112
0.0276664
0.123868
0.0262018
0.127181
0.0247045
0.130671
0.0231714
0.134369
0.0215995
0.138315
0.0199862
0.142564
0.0183297
0.147192
0.0166288
0.152297
0.0148839
0.158004
0.0130972
0.164461
0.0112748
0.171838
0.00942827
0.180303
0.00757849
0.189993
0.00576046
0.200947
0.0040294
0.213007
0.00246701
0.225666
0.00118467
0.237866
0.000317826
0.247629
0.251779
0.0286951
0.122094
-0.0300871
0.0272766
0.125287
0.0258295
0.128628
0.0243502
0.13215
0.0228352
0.135884
0.0212818
0.139869
0.0196873
0.144159
0.0180499
0.14883
0.0163684
0.153979
0.0146431
0.159729
0.0128764
0.166228
0.0110745
0.17364
0.00924947
0.182128
0.00742269
0.19182
0.00562983
0.20274
0.0039266
0.21471
0.00239442
0.227199
0.00114282
0.239118
0.000302869
0.248469
0.252082
0.0282612
0.123469
-0.0296362
0.0268601
0.126688
0.0254309
0.130057
0.0239699
0.133611
0.0224738
0.13738
0.0209398
0.141403
0.0193652
0.145733
0.0177481
0.150447
0.0160874
0.15564
0.0143832
0.161433
0.0126383
0.167973
0.0108588
0.175419
0.00905719
0.18393
0.00725553
0.193621
0.00549004
0.204505
0.00381683
0.216383
0.002317
0.228698
0.00109817
0.240336
0.000286951
0.24928
0.252369
0.0278031
0.124828
-0.0291618
0.026419
0.128072
0.0250075
0.131469
0.023565
0.135054
0.0220882
0.138857
0.0205741
0.142917
0.0190203
0.147287
0.0174246
0.152042
0.015786
0.157278
0.0141045
0.163115
0.0123829
0.169695
0.0106277
0.177175
0.00885164
0.185706
0.00707724
0.195396
0.00534133
0.206241
0.00370039
0.218024
0.0022351
0.230164
0.00105109
0.24152
0.000270319
0.250061
0.252639
0.0273233
0.126172
-0.0286673
0.025955
0.12944
0.0245605
0.132863
0.0231362
0.136478
0.0216787
0.140314
0.0201851
0.14441
0.0186528
0.14882
0.0170796
0.153616
0.0154643
0.158893
0.0138071
0.164772
0.0121106
0.171391
0.0103815
0.178904
0.00863298
0.187454
0.00688801
0.197141
0.00518394
0.207945
0.00357755
0.21963
0.00214902
0.231592
0.00100186
0.242668
0.00025313
0.25081
0.252892
0.0268233
0.127504
-0.0281551
0.0254689
0.130795
0.0240903
0.134242
0.0226836
0.137884
0.0212454
0.141753
0.0197726
0.145883
0.0182626
0.15033
0.016713
0.155165
0.0151224
0.160484
0.0134909
0.166403
0.0118212
0.173061
0.0101202
0.180605
0.00840131
0.189173
0.00668798
0.198854