/*--------------------------------*- C++ -*----------------------------------*\
  =========                 |
  \\      /  F ield         | OpenFOAM: The Open Source CFD Toolbox
   \\    /   O peration     | Website:  https://openfoam.org
    \\  /    A nd           | Version:  6.0
     \\/     M anipulation  |
\*---------------------------------------------------------------------------*/
FoamFile
{
    version     2.0;
    format      ascii;
    class       volScalarField;
    location    "8";
    object      p;
}
// * * * * * * * * * * * * * * * * * * * * * * * * * * * * * * * * * * * * * //

dimensions      [0 2 -2 0 0 0 0];

internalField   nonuniform List<scalar> 
2400
(
-108.74
-84.845
-69.0622
-57.1518
-47.4017
-39.5238
-33.1843
-28.0278
-23.7744
-20.284
-110.424
-86.314
-70.3251
-58.2603
-48.4054
-40.4566
-34.066
-28.8674
-24.577
-21.0643
-112.047
-87.7199
-71.5295
-59.3158
-49.361
-41.3459
-34.9084
-29.672
-25.3495
-21.8204
-113.587
-89.0478
-72.6624
-60.3066
-50.2569
-42.178
-35.6953
-30.4239
-26.0778
-22.5485
-115.019
-90.2769
-73.7075
-61.2206
-51.0856
-42.9486
-36.4215
-31.1138
-26.7482
-23.2316
-116.326
-91.3862
-74.6416
-62.0358
-51.8317
-43.6539
-37.0953
-31.755
-27.3661
-23.8519
-117.501
-92.3601
-75.438
-62.7158
-52.4531
-44.2569
-37.6985
-32.3573
-27.9633
-24.4463
-118.552
-93.1975
-76.0832
-63.228
-52.8897
-44.6652
-38.1175
-32.8205
-28.5094
-25.1165
-119.489
-93.911
-76.5912
-63.5789
-53.1211
-44.8003
-38.1837
-32.889
-28.7457
-25.7497
-120.296
-94.5158
-76.998
-63.8201
-53.2121
-44.7278
-37.9208
-32.4481
-28.2546
-25.413
-124.747
-124.601
-124.329
-123.975
-123.561
-123.1
-122.603
-122.077
-121.527
-120.945
-97.4098
-97.3726
-97.2434
-97.044
-96.7904
-96.4946
-96.1671
-95.8143
-95.436
-95.0153
-78.9741
-78.9645
-78.8835
-78.7437
-78.5585
-78.3416
-78.1065
-77.8619
-77.6077
-77.3305
-65.4017
-65.3676
-65.2718
-65.1249
-64.9423
-64.7391
-64.5345
-64.3414
-64.1677
-64.0047
-54.6239
-54.5499
-54.4193
-54.2419
-54.0371
-53.8196
-53.6174
-53.4458
-53.3285
-53.2614
-46.0415
-45.9298
-45.7643
-45.5531
-45.3198
-45.0749
-44.8615
-44.6919
-44.6188
-44.6334
-39.1519
-39.0098
-38.8153
-38.5736
-38.311
-38.0277
-37.7896
-37.601
-37.574
-37.6549
-33.533
-33.3699
-33.1552
-32.892
-32.605
-32.2758
-31.9935
-31.7495
-31.7818
-31.9417
-28.8778
-28.7022
-28.4792
-28.2119
-27.9166
-27.5518
-27.2099
-26.857
-26.9123
-27.2504
-25.026
-24.8242
-24.5845
-24.3159
-24.0176
-23.6362
-23.2239
-22.7217
-22.5815
-23.1005
-117.248
-118.715
-120.024
-121.19
-122.203
-123.046
-123.713
-124.206
-124.538
-124.717
-90.224
-91.559
-92.7779
-93.8679
-94.8145
-95.6086
-96.2507
-96.7461
-97.1025
-97.3241
-72.6096
-73.804
-74.9003
-75.8718
-76.7029
-77.3934
-77.9507
-78.3825
-78.6944
-78.8907
-59.9706
-61.051
-62.0316
-62.8813
-63.59
-64.1674
-64.626
-64.9738
-65.2156
-65.3564
-50.0321
-51.0352
-51.9207
-52.6578
-53.2531
-53.7288
-54.0986
-54.3682
-54.5419
-54.6252
-42.1248
-43.0971
-43.913
-44.5476
-45.0417
-45.4325
-45.7286
-45.9328
-46.0492
-46.0841
-35.7344
-36.7191
-37.4907
-38.0364
-38.4465
-38.7694
-39.0055
-39.1568
-39.2287
-39.2268
-30.5139
-31.4875
-32.2093
-32.6892
-33.0428
-33.3136
-33.5007
-33.6131
-33.6553
-33.6301
-26.4684
-27.2491
-27.8019
-28.2344
-28.5598
-28.7795
-28.9169
-28.9997
-29.0255
-28.9887
-23.8967
-24.2777
-24.3415
-24.6986
-25.0054
-25.1408
-25.1941
-25.2267
-25.2239
-25.1647
-15.6061
-18.7704
-22.6571
-27.3246
-32.9917
-39.9836
-48.6976
-59.6826
-75.2267
-100.231
-16.0749
-19.3032
-23.2428
-27.9746
-33.7237
-40.8193
-49.6672
-60.8264
-76.5875
-101.812
-16.5888
-19.8786
-23.8696
-28.6674
-34.5006
-41.7023
-50.6867
-62.0228
-77.9969
-103.424
-17.1549
-20.4972
-24.5351
-29.3995
-35.3192
-42.6291
-51.7525
-63.2686
-79.458
-105.086
-17.7671
-21.1654
-25.2503
-30.181
-36.1853
-43.6012
-52.8622
-64.5588
-80.9663
-106.797
-18.4011
-21.8555
-25.9933
-30.9971
-37.0897
-44.6125
-54.0106
-65.8869
-82.5121
-108.546
-19.0915
-22.6211
-26.8082
-31.873
-38.0424
-45.664
-55.1932
-67.2444
-84.0838
-110.317
-19.8195
-23.419
-27.6519
-32.778
-39.0259
-46.7449
-56.3997
-68.6187
-85.6663
-112.095
-20.804
-24.4265
-28.6131
-33.7467
-40.0492
-47.8497
-57.6156
-69.9905
-87.2403
-113.864
-22.0482
-25.4401
-29.5366
-34.7195
-41.0893
-48.9578
-58.8177
-71.3333
-88.7749
-115.597
-12.5423
-14.5887
-17.6834
-21.764
-26.8093
-33.0203
-40.7001
-50.2568
-63.8259
-86.5353
-13.245
-15.4494
-18.5866
-22.6078
-27.5806
-33.7537
-41.4411
-51.0566
-64.7513
-87.6501
-13.2243
-15.7907
-19.1394
-23.2492
-28.2614
-34.4692
-42.2089
-51.912
-65.748
-88.8325
-13.271
-15.9999
-19.4835
-23.7052
-28.8183
-35.1217
-42.9621
-52.7901
-66.7978
-90.09
-13.4836
-16.2725
-19.8228
-24.1212
-29.3273
-35.737
-43.699
-53.6779
-67.8851
-91.408
-13.761
-16.6112
-20.2185
-24.5757
-29.8563
-36.3614
-44.4449
-54.5838
-69.005
-92.7706
-14.0579
-16.9808
-20.6506
-25.0685
-30.4216
-37.0179
-45.2208
-55.5219
-70.1618
-94.1724
-14.3878
-17.3777
-21.1072
-25.5883
-31.0177
-37.7088
-46.0342
-56.5008
-71.3619
-95.6162
-14.7593
-17.8068
-21.5901
-26.1338
-31.6422
-38.4322
-46.8848
-57.522
-72.6091
-97.1077
-15.1705
-18.2733
-22.1072
-26.712
-32.2992
-39.1896
-47.7725
-58.584
-73.9007
-98.6489
-10.2524
-9.4098
-9.14119
-9.16865
-9.25947
-9.39748
-9.58245
-9.81544
-10.1128
-10.457
-13.3105
-12.6069
-12.1687
-12.0948
-12.1225
-12.2448
-12.4233
-12.6596
-12.9567
-13.3001
-16.7521
-16.1765
-15.7429
-15.5973
-15.5734
-15.6716
-15.8414
-16.081
-16.3821
-16.7328
-20.9751
-20.4216
-20.0143
-19.8226
-19.7592
-19.8265
-19.9808
-20.2166
-20.519
-20.8777
-26.1014
-25.5497
-25.1506
-24.9281
-24.8386
-24.8799
-25.0208
-25.2525
-25.5588
-25.9296
-32.354
-31.8061
-31.4023
-31.1548
-31.0447
-31.0659
-31.1971
-31.4277
-31.7425
-32.1315
-40.0343
-39.4747
-39.0498
-38.7712
-38.6342
-38.6326
-38.7517
-38.9802
-39.305
-39.716
-49.5404
-48.9264
-48.4449
-48.1097
-47.9235
-47.8817
-47.9745
-48.1913
-48.5205
-48.9508
-62.9805
-62.2422
-61.6466
-61.2108
-60.9382
-60.8259
-60.8668
-61.0522
-61.3697
-61.8009
-85.467
-84.5365
-83.7786
-83.2035
-82.8118
-82.5997
-82.5613
-82.6893
-82.967
-83.36
-10.8361
-11.2289
-11.6391
-12.0675
-12.5159
-12.9434
-13.2673
-13.5002
-13.8601
-14.1798
-13.6814
-14.0833
-14.505
-14.9395
-15.3804
-15.8031
-16.1747
-16.4657
-16.6658
-16.8187
-17.1242
-17.542
-17.9828
-18.436
-18.8914
-19.3326
-19.7477
-20.1061
-20.354
-20.534
-21.2816
-21.7175
-22.1796
-22.6566
-23.1373
-23.6092
-24.0638
-24.4783
-24.8228
-25.1302
-26.3518
-26.8123
-27.3032
-27.8135
-28.3326
-28.8492
-29.3528
-29.8289
-30.273
-30.7156
-32.5801
-33.0745
-33.6054
-34.1626
-34.7359
-35.3145
-35.8873
-36.4463
-36.999
-37.5725
-40.1977
-40.7338
-41.3151
-41.9318
-42.5743
-43.2324
-43.8966
-44.5631
-45.2429
-45.9578
-49.4638
-50.0405
-50.6738
-51.3547
-52.0738
-52.8219
-53.5924
-54.3854
-55.2112
-56.0846
-62.3196
-62.9129
-63.5776
-64.3054
-65.0864
-65.9129
-66.7831
-67.7019
-68.6766
-69.7085
-83.8241
-84.3828
-85.0323
-85.7604
-86.5562
-87.4142
-88.3385
-89.3398
-90.4216
-91.56
-92.7145
-70.7866
-57.0096
-46.7214
-38.192
-31.2076
-25.5111
-20.8403
-17.0699
-14.0198
-93.956
-71.9191
-57.9847
-47.5384
-38.8708
-31.7753
-26.0019
-21.2866
-17.442
-14.2206
-95.3037
-73.1254
-59.0225
-48.4196
-39.6217
-32.4264
-26.5798
-21.7998
-17.8735
-14.5896
-96.7556
-74.4112
-60.1269
-49.3669
-40.4445
-33.1576
-27.2474
-22.4232
-18.4636
-15.1708
-98.3035
-75.7721
-61.2954
-50.3763
-41.3312
-33.9536
-27.9778
-23.1051
-19.1046
-15.7889
-99.9365
-77.1999
-62.5206
-51.4399
-42.2735
-34.8075
-28.7687
-23.85
-19.8092
-16.4619
-101.643
-78.6839
-63.7917
-52.5466
-43.2594
-35.7056
-29.6022
-24.6324
-20.5423
-17.1546
-103.41
-80.2116
-65.0966
-53.6846
-44.2784
-36.6396
-30.4742
-25.4552
-21.3185
-17.894
-105.214
-81.7661
-66.422
-54.8415
-45.3178
-37.5964
-31.3707
-26.3042
-22.1253
-18.6734
-107.009
-83.3222
-67.7524
-56.0044
-46.3654
-38.5639
-32.2801
-27.1682
-22.9518
-19.481
-11.5066
-4.41956
-2.17206
-1.20208
-0.671767
-0.46957
-0.398251
-0.394931
-0.421369
-0.467215
-0.536584
-0.632538
-0.728153
-0.757395
-0.662043
-0.473768
-0.281689
-0.140759
-0.0569575
-0.00505344
-12.289
-4.95805
-2.3954
-1.34425
-0.764312
-0.526328
-0.436917
-0.42181
-0.439733
-0.478317
-0.540013
-0.627011
-0.713924
-0.738752
-0.6465
-0.466129
-0.280711
-0.142698
-0.0589919
-0.00585965
-13.0702
-5.53389
-2.65299
-1.49497
-0.861875
-0.584964
-0.475676
-0.448263
-0.457529
-0.488881
-0.543088
-0.62154
-0.700362
-0.721288
-0.632183
-0.459293
-0.280057
-0.144692
-0.0610116
-0.00666938
-13.88
-6.12543
-2.91625
-1.64118
-0.960142
-0.644936
-0.514616
-0.474433
-0.474896
-0.499045
-0.545957
-0.616281
-0.687588
-0.705052
-0.619076
-0.453228
-0.279711
-0.146744
-0.0630147
-0.00748513
-14.6798
-6.65784
-3.13855
-1.76575
-1.05369
-0.705082
-0.553539
-0.500336
-0.491921
-0.508918
-0.548744
-0.611354
-0.675685
-0.690065
-0.607145
-0.447895
-0.279654
-0.14885
-0.0650029
-0.00830947
-15.352
-7.09432
-3.33762
-1.88695
-1.14945
-0.767203
-0.592787
-0.526039
-0.508673
-0.518594
-0.551556
-0.606857
-0.664708
-0.67632
-0.596344
-0.44325
-0.279868
-0.151007
-0.0669769
-0.00914441
-15.9792
-7.69429
-3.69586
-2.0909
-1.27825
-0.840765
-0.635227
-0.552463
-0.525506
-0.528256
-0.554518
-0.602891
-0.654733
-0.663843
-0.586647
-0.439258
-0.280337
-0.153211
-0.0689375
-0.00999126
-17.2146
-8.95768
-4.42891
-2.4568
-1.46822
-0.937308
-0.685925
-0.581739
-0.54333
-0.5383
-0.557786
-0.599535
-0.645877
-0.652779
-0.57816
-0.435977
-0.281092
-0.155478
-0.0708915
-0.0108516
-19.3025
-10.6295
-5.31457
-2.85525
-1.66674
-1.04294
-0.742086
-0.61339
-0.562172
-0.548787
-0.561326
-0.596644
-0.637963
-0.643036
-0.570897
-0.433463
-0.28218
-0.157836
-0.0728498
-0.0117302
-19.2908
-10.8381
-5.47044
-2.89243
-1.71324
-1.0956
-0.778663
-0.636712
-0.577437
-0.557893
-0.564564
-0.593791
-0.629904
-0.632932
-0.563305
-0.430702
-0.283096
-0.160085
-0.0747508
-0.0126284
-15.3535
-9.49792
-4.90911
-2.5881
-1.60859
-1.08821
-0.790326
-0.648776
-0.588309
-0.566167
-0.568097
-0.589674
-0.617069
-0.615272
-0.548664
-0.423851
-0.282859
-0.162681
-0.077261
-0.0139186
-11.7013
-8.04185
-4.47552
-2.43129
-1.56338
-1.11746
-0.836567
-0.686142
-0.615823
-0.584723
-0.577545
-0.588948
-0.605805
-0.597275
-0.532161
-0.414872
-0.281302
-0.16494
-0.0799106
-0.0153649
-8.98868
-6.69761
-4.08018
-2.33379
-1.52467
-1.13265
-0.879206
-0.725327
-0.645464
-0.605351
-0.588801
-0.589716
-0.595723
-0.579882
-0.515302
-0.404846
-0.278784
-0.166742
-0.0824791
-0.0168699
-6.71964
-5.41685
-3.66055
-2.27676
-1.51881
-1.14868
-0.919235
-0.765957
-0.676558
-0.627134
-0.601143
-0.591331
-0.586224
-0.562838
-0.498508
-0.394686
-0.276182
-0.168621
-0.0851992
-0.0185123
-5.14936
-4.38775
-3.22306
-2.1641
-1.49787
-1.15664
-0.951928
-0.805217
-0.708611
-0.649975
-0.614591
-0.594117
-0.578005
-0.547095
-0.482701
-0.385029
-0.273777
-0.170615
-0.0880312
-0.0202558
-4.00699
-3.50148
-2.74795
-2.01967
-1.49582
-1.18207
-0.984758
-0.841801
-0.740427
-0.673407
-0.628939
-0.59824
-0.571639
-0.533463
-0.468588
-0.376235
-0.271598
-0.172605
-0.0908584
-0.0220357
-3.18132
-2.85344
-2.3843
-1.89292
-1.48169
-1.19488
-1.00632
-0.871351
-0.770155
-0.696754
-0.643807
-0.603608
-0.567402
-0.522468
-0.456703
-0.368639
-0.269725
-0.174505
-0.0935644
-0.0237755
-2.65664
-2.42436
-2.11012
-1.76746
-1.45511
-1.21048
-1.03347
-0.901657
-0.798859
-0.719378
-0.658497
-0.609779
-0.565239
-0.514379
-0.447452
-0.362572
-0.268266
-0.176233
-0.0960037
-0.0253707
-2.3504
-2.16473
-1.9342
-1.68062
-1.43381
-1.2204
-1.05164
-0.92154
-0.818897
-0.736672
-0.670552
-0.615487
-0.564611
-0.509142
-0.441055
-0.358276
-0.267285
-0.177648
-0.0979637
-0.0266746
-2.20399
-2.03962
-1.84735
-1.635
-1.42045
-1.2251
-1.06273
-0.934009
-0.831336
-0.747537
-0.678285
-0.619373
-0.564725
-0.506507
-0.437622
-0.355929
-0.266779
-0.178526
-0.0991378
-0.027478
-19.9064
-19.577
-19.2187
-18.872
-18.4738
-18.0242
-17.4053
-16.707
-15.9051
-15.9364
-14.2858
-13.8797
-13.4513
-13.0407
-12.588
-12.129
-11.61
-11.2523
-11.0804
-11.5945
-10.094
-9.79413
-9.49777
-9.2364
-9.00574
-8.84749
-8.75924
-8.78535
-8.83832
-9.02498
-7.45163
-7.30081
-7.16802
-7.06533
-6.98804
-6.9303
-6.85427
-6.74485
-6.60441
-6.59421
-5.71064
-5.62789
-5.54746
-5.46401
-5.37037
-5.26495
-5.15106
-5.05378
-5.00036
-5.03434
-4.40974
-4.35257
-4.29373
-4.23277
-4.17308
-4.1205
-4.07874
-4.04811
-4.0243
-4.01477
-3.52681
-3.49756
-3.46707
-3.43515
-3.40208
-3.36769
-3.33107
-3.29189
-3.253
-3.22233
-2.97518
-2.95777
-2.93668
-2.91197
-2.88398
-2.85328
-2.82061
-2.78678
-2.75307
-2.72065
-2.64945
-2.63754
-2.6218
-2.60249
-2.57992
-2.55442
-2.52632
-2.49589
-2.46359
-2.42984
-2.49337
-2.48399
-2.47078
-2.45393
-2.43363
-2.41012
-2.38366
-2.35451
-2.32297
-2.28931
-21.416
-21.8747
-20.5601
-20.5475
-20.8005
-20.7499
-20.5811
-20.4484
-20.3273
-20.1657
-18.1624
-18.0878
-16.1187
-15.4797
-15.6495
-15.6431
-15.3923
-15.1232
-14.8874
-14.6297
-14.1171
-13.6645
-11.7327
-10.9168
-11.0466
-11.2098
-11.0961
-10.8548
-10.6118
-10.3701
-10.1977
-9.82533
-8.4106
-7.73869
-7.83772
-8.07784
-8.1084
-7.96744
-7.78371
-7.61244
-7.25335
-7.117
-6.28855
-5.82747
-5.85451
-6.03074
-6.09805
-6.03241
-5.91499
-5.80398
-5.20319
-5.2117
-4.81282
-4.54285
-4.51471
-4.58955
-4.62981
-4.6018
-4.53754
-4.47016
-3.80076
-3.85125
-3.70818
-3.59414
-3.57107
-3.59582
-3.61486
-3.60878
-3.5851
-3.55597
-2.95191
-3.00794
-2.98881
-2.9682
-2.97055
-2.98606
-2.99934
-3.00342
-2.99902
-2.98904
-2.52329
-2.57721
-2.59958
-2.61247
-2.6266
-2.64136
-2.65307
-2.65964
-2.66089
-2.65733
-2.34449
-2.39489
-2.42554
-2.4457
-2.46266
-2.47764
-2.48939
-2.49692
-2.49999
-2.49875
0.0994534
0.0625362
-0.0218349
-0.190529
-0.483182
-1.01556
-1.88465
-3.43535
-6.24989
-13.2409
-0.0510747
-0.0924643
-0.182528
-0.360859
-0.665665
-1.21676
-2.11037
-3.75369
-6.36934
-12.3587
-0.21394
-0.257597
-0.347512
-0.52557
-0.816756
-1.3547
-2.1554
-3.73154
-5.80265
-10.0283
-0.386206
-0.431634
-0.51785
-0.691961
-0.948801
-1.45585
-2.09133
-3.41166
-4.9965
-7.64991
-0.563163
-0.609301
-0.688866
-0.855411
-1.07258
-1.5161
-2.02312
-2.94367
-4.13132
-5.68611
-0.739046
-0.781547
-0.854826
-1.00125
-1.19442
-1.52905
-1.95703
-2.51085
-3.32691
-4.27745
-0.905337
-0.938139
-1.00643
-1.12119
-1.29575
-1.51866
-1.85635
-2.19272
-2.71161
-3.30407
-1.04844
-1.0709
-1.1306
-1.2161
-1.3588
-1.51008
-1.75053
-1.98737
-2.31735
-2.68242
-1.15484
-1.17178
-1.21945
-1.28663
-1.39473
-1.51439
-1.68606
-1.87141
-2.09847
-2.34479
-1.21519
-1.23054
-1.26954
-1.32821
-1.41617
-1.52338
-1.66172
-1.81884
-1.99935
-2.19723
1.03987
1.02935
1.00063
0.928884
0.773888
0.479834
-0.0640152
-1.02203
-2.76117
-8.06663
0.940854
0.927503
0.892135
0.809958
0.64104
0.324247
-0.240941
-1.25502
-2.99428
-8.26165
0.843152
0.827076
0.785401
0.693016
0.510805
0.170789
-0.415502
-1.48757
-3.24318
-8.48774
0.747043
0.728369
0.680769
0.578437
0.383496
0.0199996
-0.587405
-1.71881
-3.51571
-8.77656
0.652765
0.631647
0.578527
0.466556
0.259321
-0.127742
-0.75693
-1.9471
-3.79758
-9.07351
0.560515
0.537132
0.478914
0.357661
0.138386
-0.272129
-0.924821
-2.17228
-4.10702
-9.38442
0.470463
0.445026
0.382122
0.251986
0.0207244
-0.412845
-1.09177
-2.38843
-4.42901
-9.6261
0.382765
0.355562
0.288369
0.149735
-0.0936992
-0.549704
-1.26035
-2.59778
-4.81468
-9.94477
0.297491
0.268897
0.197898
0.0511677
-0.20498
-0.682658
-1.4308
-2.79724
-5.19646
-10.3625
0.21431
0.184106
0.109601
-0.0444286
-0.313673
-0.814335
-1.61351
-3.03811
-5.69006
-11.5572
2.02458
2.04395
2.08733
2.13186
2.14163
2.0434
1.77664
0.967061
-1.90795
-8.00272
1.93181
1.94729
1.98239
2.01107
1.99557
1.84975
1.49032
0.637651
-2.24983
-8.55077
1.83714
1.8499
1.8778
1.8935
1.861
1.70083
1.33426
0.63415
-1.69328
-7.44095
1.74056
1.75074
1.772
1.77672
1.73134
1.5691
1.21496
0.633449
-1.30726
-6.94658
1.64232
1.64971
1.66414
1.65822
1.59923
1.4292
1.06037
0.470047
-1.37965
-7.03301
1.54281
1.54724
1.55456
1.53766
1.46285
1.27589
0.868527
0.198578
-1.64543
-7.19452
1.44242
1.44384
1.44385
1.41575
1.32387
1.11557
0.667944
-0.08028
-1.89397
-7.30755
1.34154
1.33994
1.3326
1.29331
1.18446
0.954574
0.476284
-0.329488
-2.10476
-7.44491
1.24057
1.23595
1.22132
1.17101
1.04596
0.7951
0.293572
-0.560836
-2.31452
-7.63847
1.13989
1.13229
1.1105
1.04938
0.908982
0.636921
0.114308
-0.79023
-2.53605
-7.86325
3.52204
3.53708
3.56642
3.60795
3.65643
3.70516
3.74774
3.7782
3.79107
3.7792
3.46532
3.48507
3.52382
3.57895
3.64447
3.71271
3.77593
3.82581
3.854
3.84707
3.36381
3.39039
3.44272
3.51765
3.60825
3.70562
3.8005
3.88257
3.93835
3.94473
3.22513
3.2585
3.32438
3.41923
3.53517
3.66187
3.78807
3.90241
3.98518
4.01543
3.05842
3.09695
3.1732
3.28335
3.41857
3.56699
3.71239
3.83396
3.90309
3.92397
2.87442
2.91551
2.99699
3.11481
3.26034
3.42351
3.57522
3.6371
3.56098
3.48118
2.68386
2.72465
2.80544
2.9203
3.05638
3.20132
3.32069
3.27847
2.948
2.58844
2.4959
2.53386
2.60893
2.71294
2.82932
2.94859
3.03703
2.81964
1.95532
0.937453
2.31738
2.35081
2.4165
2.50252
2.58555
2.6446
2.65584
2.25433
0.736524
-1.29355
2.15192
2.17953
2.23484
2.30035
2.34599
2.3301
2.229
1.63203
-0.652106
-4.52608
3.75343
3.73971
3.72249
3.70267
3.68035
3.65533
3.62754
3.59696
3.56365
3.52767
3.82122
3.80368
3.77975
3.75302
3.72373
3.69131
3.65556
3.61656
3.57446
3.52945
3.92759
3.90349
3.86835
3.83125
3.79225
3.75011
3.70469
3.65629
3.60525
3.5519
4.05012
4.02703
3.98787
3.94579
3.9003
3.85038
3.79611
3.73778
3.67562
3.60987
4.01688
3.99643
3.96293
3.92329
3.87608
3.82119
3.75884
3.68953
3.61386
3.5325
3.67493
3.68816
3.6735
3.63794
3.58481
3.51906
3.44196
3.35476
3.25772
3.15108
2.82931
2.86185
2.82989
2.79185
2.74289
2.68366
2.60346
2.50157
2.37495
2.22464
1.13929
1.30198
1.34577
1.36744
1.31938
1.23102
1.09362
0.920285
0.701212
0.441886
-1.04959
-0.680643
-0.731277
-0.844045
-1.0613
-1.2713
-1.52022
-1.79402
-2.12882
-2.51132
-4.74304
-4.4493
-4.72761
-4.92154
-5.16558
-5.3649
-5.61226
-5.88998
-6.24094
-6.64061
3.48911
3.44811
3.40479
3.35934
3.31191
3.2627
3.2119
3.15968
3.10624
3.05179
3.48173
3.43158
3.37936
3.32548
3.27041
3.21472
3.15902
3.10397
3.05023
2.99778
3.49657
3.43965
3.3815
3.32239
3.26258
3.20234
3.14197
3.08161
3.02002
2.95386
3.54083
3.46878
3.39398
3.31691
3.23848
3.15923
3.07774
2.98973
2.89125
2.79057
3.44556
3.3523
3.25223
3.14855
3.0481
2.95058
2.83269
2.65714
2.43032
2.27117
3.03305
2.89884
2.74511
2.58377
2.44431
2.3306
2.15114
1.75683
1.19162
0.955077
2.05018
1.84589
1.6023
1.33492
1.10681
0.957388
0.720101
0.0363835
-1.07721
-1.49022
0.151317
-0.16712
-0.532868
-0.950948
-1.35212
-1.62526
-1.91629
-2.80244
-4.41639
-4.96327
-2.91974
-3.33666
-3.78806
-4.30462
-4.85912
-5.30065
-5.60856
-6.39525
-8.11459
-8.58249
-7.06476
-7.49
-7.93594
-8.42384
-8.96631
-9.47185
-9.77268
-10.1403
-11.3638
-11.7123
2.91546
2.65851
2.38455
2.04201
1.64748
1.26955
0.944196
0.66841
0.426136
0.192671
-0.0589472
-0.36291
-0.732176
-0.999738
-0.87253
-0.405513
-0.00121351
0.136349
0.11405
0.0400064
2.86174
2.62081
2.39979
1.97816
1.53067
1.15645
0.851632
0.596205
0.378344
0.171334
-0.0696938
-0.3957
-0.810821
-1.11799
-1.00371
-0.521085
-0.0807372
0.0933181
0.0951948
0.0363713
2.77616
2.51463
2.35028
1.82211
1.37406
1.03276
0.751702
0.515915
0.318448
0.127237
-0.113588
-0.461354
-0.905889
-1.23014
-1.12168
-0.634165
-0.168833
0.0406135
0.0705742
0.0314817
2.55354
2.2102
2.12201
1.59801
1.21059
0.909026
0.650636
0.43214
0.246804
0.0618414
-0.179128
-0.531756
-0.972812
-1.28249
-1.17189
-0.697833
-0.234038
-0.00557938
0.0468445
0.0263818
2.09662
1.83269
1.8148
1.37087
1.04106
0.776279
0.543152
0.342007
0.166933
-0.0112109
-0.24525
-0.585628
-1.00007
-1.27789
-1.16321
-0.716298
-0.274115
-0.0413891
0.0263962
0.0215632
1.26343
1.5144
1.43152
1.12523
0.863951
0.64209
0.436712
0.253282
0.0890586
-0.0797781
-0.30084
-0.618239
-0.995298
-1.23705
-1.12066
-0.707447
-0.296092
-0.0678157
0.00963711
0.0172553
-0.362302
0.902857
0.884762
0.817988
0.668783
0.505162
0.332766
0.169394
0.0178149
-0.139532
-0.344202
-0.63447
-0.97238
-1.18062
-1.06532
-0.686273
-0.307029
-0.0870298
-0.00379777
0.0135281
-2.80744
-0.278002
0.260562
0.475613
0.463634
0.367968
0.232722
0.0917784
-0.0452532
-0.189592
-0.376699
-0.640187
-0.942318
-1.12207
-1.00945
-0.661605
-0.311794
-0.101049
-0.0144815
0.0103682
-5.33806
-1.63297
-0.28992
0.174066
0.272694
0.239062
0.139294
0.0207805
-0.100923
-0.231802
-0.40186
-0.640949
-0.912084
-1.06831
-0.958775
-0.637755
-0.313311
-0.11139
-0.022947
0.00773445
-6.50509
-2.39142
-0.595308
-0.001397
0.13596
0.140119
0.0629182
-0.0395979
-0.149582
-0.269695
-0.425038
-0.641746
-0.884299
-1.01971
-0.913587
-0.615858
-0.312997
-0.11907
-0.0296945
0.00551648
-5.67128
-2.37197
-0.648059
-0.0199517
0.0888199
0.101574
0.0281039
-0.0714594
-0.179687
-0.29699
-0.443438
-0.641814
-0.860079
-0.978962
-0.876848
-0.597846
-0.311764
-0.124342
-0.0346025
0.00374498
-5.30752
-2.23767
-0.80598
-0.0916762
0.0125452
0.0415832
-0.018532
-0.108445
-0.208958
-0.31991
-0.459523
-0.647268
-0.85007
-0.955319
-0.85149
-0.582549
-0.308043
-0.126368
-0.0373185
0.0026755
-5.71927
-2.1902
-1.00182
-0.182366
-0.0598448
-0.0190288
-0.0658435
-0.146287
-0.238472
-0.342225
-0.474671
-0.652294
-0.840967
-0.933413
-0.826746
-0.566297
-0.302977
-0.127517
-0.0396124
0.00173059
-6.32557
-2.20005
-1.17741
-0.294127
-0.130811
-0.0785254
-0.110938
-0.181727
-0.265807
-0.362504
-0.4875
-0.654682
-0.82968
-0.910854
-0.802959
-0.551395
-0.298644
-0.128836
-0.0418813
0.0008166
-7.00183
-2.31601
-1.32439
-0.417481
-0.200797
-0.136794
-0.15475
-0.215637
-0.291607
-0.3812
-0.498471
-0.655016
-0.816741
-0.887745
-0.779907
-0.537705
-0.295053
-0.130362
-0.0441507
-7.70429e-05
-7.64863
-2.49812
-1.45018
-0.546817
-0.271882
-0.193817
-0.197504
-0.24829
-0.31612
-0.398503
-0.50785
-0.653763
-0.802794
-0.864621
-0.757627
-0.524889
-0.291905
-0.131964
-0.0463809
-0.000945971
-8.31746
-2.75191
-1.5701
-0.678344
-0.345336
-0.24973
-0.239247
-0.279711
-0.339368
-0.414472
-0.515778
-0.651175
-0.788171
-0.8418
-0.736273
-0.512903
-0.289117
-0.13361
-0.0485642
-0.00179244
-9.03064
-3.06531
-1.69225
-0.80934
-0.421787
-0.304828
-0.280059
-0.309966
-0.361409
-0.429197
-0.522423
-0.647502
-0.773138
-0.819492
-0.71597
-0.501793
-0.286704
-0.135307
-0.0507081
-0.00262162
-9.82902
-3.45575
-1.82785
-0.939081
-0.50146
-0.359497
-0.320055
-0.339165
-0.382343
-0.442802
-0.527975
-0.643006
-0.757962
-0.797884
-0.696799
-0.491576
-0.284671
-0.137063
-0.0528191
-0.00343833
-10.6772
-3.91357
-1.98493
-1.06866
-0.584536
-0.414207
-0.359384
-0.367438
-0.402286
-0.455425
-0.532632
-0.63794
-0.742894
-0.777138
-0.678813
-0.482241
-0.283005
-0.13888
-0.0549012
-0.00424687
)
;

boundaryField
{
    inlet
    {
        type            freestreamPressure;
        freestreamValue uniform 0;
        supersonic      false;
        value           nonuniform List<scalar> 
40
(
0.0994534
-0.0510747
-0.21394
-0.386206
-0.563163
-0.739046
-0.905337
-1.04844
-1.15484
-1.21519
1.03987
0.940854
0.843152
0.747043
0.652765
0.560515
0.470463
0.382765
0.297491
0.21431
2.02458
1.93181
1.83714
1.74056
1.64232
1.54281
1.44242
1.34154
1.24057
1.13989
3.52204
3.46532
3.36381
3.22513
3.05842
2.87442
2.68386
2.4959
2.31738
2.15192
)
;
    }
    outlet
    {
        type            freestreamPressure;
        freestreamValue uniform 0;
        supersonic      false;
        value           nonuniform List<scalar> 
40
(
-4.41597e-05
-4.50761e-05
-4.46447e-05
-4.28348e-05
-3.91884e-05
-3.33772e-05
-2.54769e-05
-1.61844e-05
-7.09397e-06
-8.99407e-07
-2.09297e-05
-2.38193e-05
-2.65695e-05
-2.91808e-05
-3.16542e-05
-3.39886e-05
-3.61813e-05
-3.82317e-05
-4.01485e-05
-4.19258e-05
1.72427e-05
1.2276e-05
7.89577e-06
3.69984e-06
-3.46152e-07
-4.20844e-06
-7.88405e-06
-1.1384e-05
-1.47183e-05
-1.78949e-05
4.31727e-06
2.95961e-05
5.53243e-05
6.9558e-05
7.19468e-05
6.63206e-05
5.66181e-05
4.5628e-05
3.50321e-05
2.53757e-05
)
;
    }
    top
    {
        type            symmetryPlane;
    }
    bottom
    {
        type            symmetryPlane;
    }
    cylinder
    {
        type            zeroGradient;
    }
    frontandback
    {
        type            empty;
    }
}


// ************************************************************************* //
