/*--------------------------------*- C++ -*----------------------------------*\
  =========                 |
  \\      /  F ield         | OpenFOAM: The Open Source CFD Toolbox
   \\    /   O peration     | Website:  https://openfoam.org
    \\  /    A nd           | Version:  6.0
     \\/     M anipulation  |
\*---------------------------------------------------------------------------*/
FoamFile
{
    version     2.0;
    format      ascii;
    class       surfaceScalarField;
    location    "13.75";
    object      phi;
}
// * * * * * * * * * * * * * * * * * * * * * * * * * * * * * * * * * * * * * //

dimensions      [0 3 -1 0 0 0 0];

internalField   nonuniform List<scalar> 
18940
(
0.000109234
-0.115501
0.115392
0.000516846
-0.101864
0.101456
0.00121277
-0.0918232
0.0911273
0.00216818
-0.0843845
0.0834291
0.00334727
-0.078816
0.0776369
0.00471214
-0.0745758
0.0732109
0.00622627
-0.0712739
0.0697597
0.00785618
-0.0686322
0.0670023
0.00957218
-0.0664531
0.0647371
0.0113485
-0.0645964
0.0628201
0.0131635
-0.0629633
0.0611484
0.0149988
-0.0614842
0.0596489
0.0168396
-0.0601103
0.0582695
0.0186743
-0.0588074
0.0569728
0.0204935
-0.0575513
0.055732
0.0222902
-0.0563239
0.0545272
0.0240592
-0.0551115
0.0533425
0.0257961
-0.0539015
0.0521646
0.027497
-0.0526812
0.0509803
-0.0514351
0.0497749
0.0291572
0.000129912
-0.115631
0.000566808
-0.102301
0.0013003
-0.0925567
0.00229772
-0.0853819
0.00351939
-0.0800376
0.00492459
-0.0759809
0.00647469
-0.072824
0.00813478
-0.0702923
0.00987423
-0.0681925
0.0116668
-0.066389
0.0134905
-0.064787
0.0153273
-0.063321
0.0171626
-0.0619457
0.0189852
-0.0606301
0.0207865
-0.0593526
0.0225604
-0.0580978
0.0243024
-0.0568534
0.0260092
-0.0556083
0.0276781
-0.0543501
-0.0530628
0.0293058
0.000145829
-0.115777
0.000612337
-0.102767
0.0013828
-0.0933272
0.00242027
-0.0864194
0.00368143
-0.0812988
0.00512286
-0.0774224
0.00670402
-0.0744051
0.00838871
-0.071977
0.0101455
-0.0699493
0.0119478
-0.0681913
0.0137735
-0.0666127
0.0156048
-0.0651523
0.0174277
-0.0637686
0.0192315
-0.0624339
0.0210084
-0.0611295
0.0227531
-0.0598425
0.0244621
-0.0585625
0.0261333
-0.0572795
0.0277651
-0.0559819
-0.0546533
0.0293556
0.000159903
-0.115937
0.000654845
-0.103262
0.00146066
-0.094133
0.00253558
-0.0874943
0.00383272
-0.0825959
0.00530602
-0.0788957
0.00691314
-0.0760123
0.00861671
-0.0736805
0.0103847
-0.0717173
0.0121901
-0.0699968
0.0140112
-0.0684338
0.0158304
-0.0669715
0.0176343
-0.0655725
0.019413
-0.0642125
0.0211594
-0.0628759
0.0228692
-0.0615523
0.0245399
-0.0602332
0.0261706
-0.0589102
0.0277608
-0.0575722
-0.0562027
0.0293102
0.000172948
-0.11611
0.000694827
-0.103784
0.0015339
-0.094972
0.00264334
-0.0886038
0.00397265
-0.0839252
0.00547324
-0.0803963
0.00710109
-0.0776401
0.00881778
-0.0753972
0.0105907
-0.0734902
0.0123931
-0.0717991
0.0142031
-0.0702438
0.0160038
-0.0687723
0.0177825
-0.0673512
0.01953
-0.06596
0.0212404
-0.0645863
0.0229101
-0.063222
0.0245379
-0.061861
0.0261239
-0.0604962
0.027669
-0.0591172
-0.0577077
0.029174
0.00018524
-0.116295
0.000732467
-0.104331
0.00160244
-0.095842
0.00274321
-0.0897446
0.00410071
-0.0852827
0.00562388
-0.0819194
0.00726713
-0.0792834
0.00899117
-0.0771213
0.0107631
-0.0752622
0.0125561
-0.0735921
0.0143488
-0.0720366
0.016125
-0.0705485
0.0178727
-0.0690988
0.0195836
-0.0676709
0.0212528
-0.0662555
0.0228779
-0.0648471
0.0244587
-0.0634418
0.0259964
-0.0620339
0.0274932
-0.060614
-0.0591659
0.0289514
0.000196865
-0.116492
0.000767793
-0.104902
0.00166617
-0.0967404
0.00283494
-0.0909133
0.0042165
-0.0866643
0.00575746
-0.0834604
0.00741078
-0.0809367
0.00913646
-0.0788469
0.0109014
-0.0770271
0.0126791
-0.0753697
0.0144486
-0.0738062
0.0161946
-0.0722944
0.0179059
-0.0708101
0.0195752
-0.0693403
0.0211987
-0.0678789
0.022775
-0.0664235
0.0243052
-0.0649719
0.0257917
-0.0635204
0.0272378
-0.0620602
-0.0605753
0.0286471
0.000207834
-0.1167
0.000800778
-0.105495
0.00172497
-0.0976646
0.0029183
-0.0921067
0.00431974
-0.0880657
0.00587367
-0.0850143
0.00753177
-0.0825948
0.00925348
-0.0805687
0.0110057
-0.0787794
0.0127623
-0.0771263
0.0145031
-0.075547
0.0162135
-0.0740048
0.0178834
-0.07248
0.0195066
-0.0709634
0.0210802
-0.0694526
0.0226043
-0.0679475
0.0240807
-0.0664484
0.0255133
-0.064953
0.0269067
-0.0634535
-0.0619343
0.0282657
0.000218132
-0.116918
0.000831374
-0.106109
0.00177875
-0.0986119
0.00299319
-0.0933211
0.00441031
-0.0894828
0.00597241
-0.0865764
0.00763009
-0.0842525
0.00934238
-0.082281
0.0110764
-0.0805134
0.0128065
-0.0788563
0.0145133
-0.0772539
0.0161832
-0.0756748
0.0178072
-0.0741039
0.0193801
-0.0725363
0.0209002
-0.0709727
0.0223687
-0.0694159
0.0237887
-0.0678684
0.0251651
-0.0663295
0.0265039
-0.0647923
-0.0632416
0.0278112
0.000227733
-0.117146
0.000859554
-0.10674
0.00182749
-0.0995799
0.00305957
-0.0945532
0.00448819
-0.0909115
0.00605376
-0.088142
0.00770594
-0.0859046
0.00940358
-0.0839786
0.0111141
-0.0822239
0.0128126
-0.0805548
0.0144806
-0.0789219
0.0161055
-0.0772997
0.0176794
-0.0756778
0.0191983
-0.0740552
0.0206616
-0.072436
0.0220716
-0.0708258
0.0234325
-0.0692294
0.0247507
-0.0676477
0.0260333
-0.0660749
-0.064496
0.0272878
0.000236621
-0.117382
0.000885327
-0.107389
0.00187123
-0.100566
0.00311753
-0.0957995
0.00455355
-0.0923475
0.00611799
-0.0897064
0.00775977
-0.0875464
0.00943776
-0.0856566
0.0111199
-0.083906
0.012782
-0.0822169
0.0144068
-0.0805467
0.0159827
-0.0788756
0.0175028
-0.0771979
0.0189644
-0.0755168
0.0203678
-0.0738395
0.0217165
-0.0721745
0.023016
-0.0705289
0.0242738
-0.0689055
0.0254984
-0.0672995
-0.0656962
0.0266987
0.000244793
-0.117627
0.000908759
-0.108053
0.00191011
-0.101567
0.00316728
-0.0970567
0.00460668
-0.0937869
0.00616552
-0.0912653
0.00779224
-0.0891731
0.0094459
-0.0873102
0.011095
-0.0855552
0.0127165
-0.0838384
0.0142941
-0.0821243
0.0158172
-0.0803987
0.0172803
-0.078661
0.0186816
-0.0769181
0.0200225
-0.0751804
0.0213074
-0.0734594
0.022543
-0.0717645
0.0237381
-0.0701005
0.0249027
-0.0684641
-0.0668405
0.026047
0.000252282
-0.117879
0.000929998
-0.108731
0.00194437
-0.102582
0.00320913
-0.0983214
0.00464801
-0.0952258
0.00619698
-0.0928143
0.00780423
-0.0907804
0.00942918
-0.0889352
0.0110412
-0.0871672
0.0126181
-0.0854153
0.0141449
-0.0836511
0.0156123
-0.0818661
0.0170156
-0.0800644
0.018354
-0.0782565
0.01963
-0.0764564
0.0208487
-0.0746781
0.0220179
-0.0729337
0.0231476
-0.0712302
0.0242495
-0.069566
-0.0679265
0.0253355
0.000259185
-0.118139
0.000949314
-0.109421
0.0019744
-0.103607
0.00324352
-0.0995905
0.00467808
-0.0966603
0.00621311
-0.0943493
0.00779675
-0.092364
0.00938901
-0.0905275
0.0109602
-0.0887384
0.0124893
-0.0869444
0.0139623
-0.0851241
0.0153713
-0.0832751
0.0167126
-0.0814056
0.0179862
-0.0795301
0.0191952
-0.0776654
0.0203455
-0.0758284
0.0214456
-0.0740338
0.0225068
-0.0722914
0.0235425
-0.0706017
-0.0689508
0.0245667
0.000265731
-0.118404
0.000967161
-0.110122
0.00200069
-0.10464
0.00327101
-0.100861
0.00469755
-0.0980869
0.00621475
-0.0958665
0.00777098
-0.0939202
0.00932697
-0.0920834
0.0108541
-0.0902655
0.0123325
-0.0884228
0.0137495
-0.0865412
0.0150982
-0.0846237
0.0163758
-0.0826833
0.0175832
-0.0807375
0.0187238
-0.0788061
0.0198039
-0.0769084
0.0208323
-0.0750622
0.0218212
-0.0732804
0.022786
-0.0715665
-0.0699081
0.0237433
0.000272388
-0.118677
0.000984228
-0.110834
0.00202388
-0.10568
0.00329217
-0.102129
0.00470707
-0.0995018
0.00620278
-0.0973622
0.00772812
-0.0954456
0.0092447
-0.0936
0.010725
-0.0917458
0.0121505
-0.0898483
0.0135099
-0.0879005
0.0147971
-0.0859109
0.0160104
-0.0838966
0.0171512
-0.0818782
0.0182229
-0.0798779
0.0192317
-0.0779172
0.0201862
-0.0760167
0.0210988
-0.074193
0.0219866
-0.0724543
-0.0707915
0.0228701
0.000279946
-0.118957
0.00100143
-0.111556
0.00204469
-0.106723
0.0033076
-0.103392
0.0047073
-0.100901
0.00617808
-0.098833
0.00766937
-0.0969369
0.00914382
-0.0950745
0.0105752
-0.0931771
0.0119463
-0.0912194
0.013247
-0.0892012
0.0144725
-0.0871365
0.0156218
-0.0850459
0.0166967
-0.0829531
0.0177006
-0.0808818
0.0186388
-0.0788554
0.0195188
-0.0768967
0.0203521
-0.0750262
0.0211565
-0.0732587
-0.0715921
0.021957
0.000289734
-0.119246
0.00102012
-0.112286
0.00206399
-0.107767
0.0033179
-0.104646
0.00469885
-0.102282
0.00614141
-0.100276
0.00759581
-0.0983913
0.00902583
-0.0965045
0.0104066
-0.0945579
0.0117223
-0.0925351
0.0129642
-0.0904431
0.0141287
-0.0883009
0.0152155
-0.0861327
0.0162266
-0.0839643
0.0171655
-0.0818206
0.0180361
-0.079726
0.018844
-0.0777045
0.0195974
-0.0757796
0.0203122
-0.0739735
-0.072298
0.0210181
0.000305276
-0.119552
0.00104324
-0.113024
0.00208316
-0.108807
0.00332366
-0.105886
0.0046821
-0.103641
0.00609332
-0.101687
0.00750826
-0.0998062
0.0088919
-0.0978881
0.0102208
-0.0958868
0.0114808
-0.0937951
0.0126645
-0.0916268
0.0137695
-0.0894059
0.0147966
-0.0871598
0.0157482
-0.0849159
0.0166275
-0.0826998
0.0174371
-0.0805357
0.0181792
-0.0784466
0.0188549
-0.0764554
0.0194719
-0.0745905
-0.0729034
0.0200774
0.000337881
-0.11989
0.001075
-0.113761
0.00210267
-0.109834
0.00332452
-0.107108
0.00465684
-0.104973
0.00603387
-0.103064
0.0074071
-0.101179
0.00874275
-0.0992238
0.0100189
-0.097163
0.0112231
-0.0949993
0.0123496
-0.0927533
0.0133974
-0.0904537
0.0143687
-0.0881312
0.0152673
-0.0858145
0.0160971
-0.0835296
0.0168611
-0.0812996
0.0175587
-0.0791442
0.0181805
-0.0770772
0.0187078
-0.0751178
-0.0733579
0.0191623
0.125161
0.000257681
-0.125419
0.124913
0.000248625
0.124663
0.000249613
0.124409
0.000253903
0.12415
0.000259368
0.123885
0.000265196
0.123614
0.000270891
0.123338
0.000276153
0.123057
0.00028083
0.122772
0.000284852
0.122484
0.000288184
0.122193
0.000290811
0.1219
0.000292718
0.121606
0.000293882
0.121312
0.00029425
0.121018
0.000293709
0.120726
0.000291997
0.120438
0.000288493
0.120156
0.000281638
0.000266707
0.125839
0.000717311
-0.126299
0.125351
0.000736673
0.12484
0.000760662
0.124307
0.000786742
0.123753
0.000813092
0.12318
0.000838911
0.122587
0.000863657
0.121976
0.000886902
0.121349
0.000908357
0.120706
0.00092784
0.120048
0.000945229
0.119379
0.000960441
0.118698
0.000973404
0.118008
0.00098404
0.11731
0.000992239
0.116606
0.000997813
0.115897
0.0010004
0.115187
0.00099934
0.114475
0.000993424
0.000980426
0.125809
0.00124106
-0.126333
0.125239
0.00130684
0.124627
0.00137216
0.123977
0.00143665
0.123291
0.00149937
0.12257
0.00155977
0.121816
0.00161743
0.121031
0.00167195
0.120217
0.00172302
0.119374
0.00177038
0.118506
0.00181383
0.117613
0.00185322
0.116698
0.00188842
0.115763
0.00191929
0.114809
0.00194568
0.11384
0.00196738
0.112856
0.0019841
0.11186
0.00199537
0.110853
0.00200053
0.00199868
0.124856
0.00174393
-0.125359
0.124298
0.00186566
0.123686
0.00198407
0.123023
0.00209919
0.122312
0.00221054
0.121554
0.0023177
0.120751
0.00242028
0.119905
0.00251792
0.119018
0.00261027
0.118091
0.00269702
0.117127
0.00277792
0.116128
0.00285274
0.115095
0.00292128
0.114031
0.00298335
0.112938
0.00303879
0.111818
0.00308737
0.110673
0.00312883
0.109505
0.00316286
0.108317
0.00318912
0.00320721
0.123033
0.00217666
-0.123466
0.122539
0.00236028
0.121984
0.00253902
0.12137
0.00271282
0.120699
0.00288129
0.119973
0.00304401
0.119193
0.00320054
0.11836
0.00335047
0.117477
0.00349341
0.116545
0.00362898
0.115566
0.00375685
0.114542
0.00387672
0.113475
0.00398833
0.112367
0.00409143
0.11122
0.00418579
0.110036
0.00427117
0.108818
0.00434733
0.107566
0.00441407
0.106284
0.00447116
0.00451845
0.120494
0.00251692
-0.120834
0.120088
0.00276567
0.119618
0.00300876
0.119085
0.00324589
0.11849
0.00347661
0.117834
0.00370043
0.117117
0.00391684
0.116342
0.00412533
0.11551
0.00432542
0.114623
0.00451666
0.113681
0.00469863
0.112687
0.00487095
0.111642
0.00503326
0.110548
0.00518526
0.109407
0.00532665
0.108221
0.00545714
0.106992
0.0055765
0.105722
0.00568456
0.104412
0.00578116
0.00586621
0.11743
0.00276036
-0.117674
0.11712
0.00307535
0.116745
0.00338432
0.116304
0.00368679
0.115798
0.0039822
0.115229
0.00426996
0.114596
0.00454945
0.113902
0.0048201
0.113146
0.0050813
0.11233
0.00533253
0.111455
0.00557326
0.110523
0.00580301
0.109535
0.00602137
0.108492
0.00622794
0.107397
0.00642233
0.10625
0.00660422
0.105053
0.00677338
0.103808
0.00692961
0.102516
0.00707276
0.00720277
0.114031
0.00291354
-0.114185
0.113813
0.00329421
0.113528
0.00366881
0.113178
0.00403669
0.112763
0.00439718
0.112284
0.00474961
0.11174
0.00509326
0.111132
0.00542745
0.110462
0.00575151
0.10973
0.0060648
0.108936
0.00636671
0.108083
0.0066567
0.10717
0.00693425
0.106199
0.00719887
0.105171
0.00745011
0.104088
0.00768761
0.10295
0.00791111
0.101759
0.00812039
0.100517
0.0083153
0.00849578
0.11046
0.00298879
-0.110536
0.110321
0.00343349
0.110118
0.00387223
0.10985
0.00430425
0.109519
0.00472878
0.109123
0.00514506
0.108664
0.00555232
0.108142
0.00594977
0.107556
0.00633667
0.106909
0.00671232
0.1062
0.00707602
0.105429
0.00742714
0.104598
0.00776512
0.103708
0.00808935
0.102759
0.00839934
0.101752
0.00869471
0.100687
0.00897516
0.0995674
0.00924044
0.0983923
0.00949041
0.00972506
0.106846
0.00300076
-0.106858
0.106772
0.00350718
0.106637
0.00400784
0.106439
0.00450187
0.10618
0.00498846
0.105858
0.00546678
0.105474
0.00593596
0.105029
0.00639519
0.104522
0.00684367
0.103954
0.00728061
0.103324
0.00770527
0.102634
0.00811697
0.101885
0.00851505
0.101075
0.00889887
0.100206
0.00926789
0.0992794
0.00962171
0.0982946
0.00995997
0.0972526
0.0102825
0.096154
0.010589
0.0108798
0.103285
0.00296427
-0.103248
0.103262
0.00352979
0.10318
0.00408975
0.103039
0.00464322
0.102838
0.00518935
0.102578
0.00572723
0.102258
0.00625599
0.101878
0.00677474
0.101439
0.00728265
0.100941
0.00777889
0.100383
0.00826269
0.0997671
0.00873331
0.0990921
0.00919003
0.0983588
0.00963219
0.0975674
0.0100592
0.0967185
0.0104707
0.0958122
0.0108662
0.0948491
0.0112456
0.0938294
0.0116087
0.0119559
0.0998426
0.00289298
-0.0997713
0.0998574
0.00351491
0.0998157
0.00413144
0.0997173
0.00474161
0.0995622
0.00534451
0.0993502
0.00593921
0.0990814
0.0065248
0.0987558
0.00710037
0.0983734
0.00766506
0.0979342
0.00821803
0.0974385
0.00875846
0.0968861
0.00928561
0.0962775
0.00979871
0.0956126
0.0102971
0.0948917
0.0107801
0.0941149
0.0112474
0.0932826
0.0116985
0.0923949
0.0121333
0.091452
0.0125516
0.0129542
0.0965607
0.00279874
-0.0964665
0.0966011
0.00347451
0.0965876
0.00414495
0.0965202
0.00480908
0.0963987
0.00546595
0.0962233
0.00611463
0.0959939
0.00675418
0.0957106
0.00738368
0.0953734
0.00800226
0.0949824
0.00860905
0.0945376
0.00920327
0.0940391
0.0097841
0.093487
0.0103508
0.0928814
0.0109026
0.0922225
0.0114391
0.0915102
0.0119597
0.0907449
0.0124639
0.0899265
0.0129517
0.0890554
0.0134227
0.0138784
0.0934617
0.00269137
-0.0933543
0.0935176
0.00341857
0.0935222
0.00414042
0.0934753
0.00485591
0.0933772
0.00556407
0.0932279
0.00626396
0.0930274
0.00695462
0.092776
0.00763515
0.0924736
0.00830465
0.0921203
0.00896229
0.0917164
0.00960724
0.0912618
0.0102387
0.0907566
0.0108559
0.090201
0.0114582
0.0895951
0.0120451
0.0889389
0.0126159
0.0882325
0.0131702
0.0874762
0.013708
0.0866704
0.0142286
0.0147343
0.0905535
0.00257859
-0.0904407
0.090617
0.00335507
0.0906314
0.00412603
0.0905969
0.00489047
0.0905135
0.00564741
0.0903816
0.00639589
0.0902013
0.00713495
0.0899727
0.00786369
0.0896961
0.00858123
0.0893717
0.00928673
0.0889996
0.00997938
0.0885799
0.0106584
0.0881129
0.011323
0.0875986
0.0119725
0.0870372
0.0126065
0.0864288
0.0132243
0.0857735
0.0138254
0.0850716
0.0144099
0.084324
0.0149762
0.0155286
0.0878342
0.00246621
-0.0877219
0.0878993
0.00328999
0.0879173
0.004108
0.0878886
0.0049192
0.0878134
0.0057226
0.0876921
0.00651724
0.0875249
0.00730216
0.0873121
0.00807646
0.0870541
0.00883926
0.086751
0.00958976
0.0864033
0.0103271
0.0860111
0.0110506
0.0855747
0.0117594
0.0850942
0.012453
0.0845699
0.0131307
0.084002
0.0137922
0.0833907
0.0144368
0.082736
0.0150646
0.0820396
0.0156726
0.0162686
0.0852955
0.00235827
-0.0851876
0.0853579
0.0032276
0.0853752
0.00409076
0.0853477
0.00494671
0.0852758
0.00579445
0.0851601
0.00663299
0.0850008
0.00746139
0.0847986
0.00827874
0.0845537
0.00908418
0.0842665
0.00987691
0.0839375
0.0106561
0.083567
0.0114211
0.0831554
0.012171
0.082703
0.0129054
0.08221
0.0136237
0.0816768
0.0143254
0.0811034
0.0150102
0.0804899
0.0156781
0.0798377
0.0163248
0.0169621
0.0829254
0.00225725
-0.0828244
0.0829825
0.00317049
0.0829962
0.00407704
0.0829671
0.00497586
0.0828956
0.00586593
0.0827824
0.00674625
0.0826279
0.00761586
0.0824328
0.00847386
0.0821975
0.00931942
0.0819227
0.0101517
0.0816088
0.01097
0.0812564
0.0117735
0.0808658
0.0125615
0.0804376
0.0133336
0.0799722
0.0140891
0.0794699
0.0148277
0.0789308
0.0155493
0.0783542
0.0162546
0.0777387
0.0169403
0.0176237
0.0807093
0.00216414
-0.0806162
0.0807601
0.00311967
0.0807693
0.0040679
0.0807374
0.00500776
0.0806651
0.00593818
0.0805532
0.00685817
0.0804023
0.00776677
0.0802131
0.00866305
0.0799863
0.00954622
0.0797225
0.0104155
0.0794225
0.0112701
0.0790868
0.0121092
0.078716
0.0129323
0.0783109
0.0137388
0.0778718
0.0145281
0.0773994
0.0153002
0.0768937
0.016055
0.0763546
0.0167937
0.0757737
0.0175212
0.0182796
0.0786312
-0.0785458
0.00207877
0.078676
0.00307492
0.0786809
0.00406302
0.0786466
0.00504198
0.0785741
0.0060107
0.0784641
0.00696817
0.0783175
0.00791341
0.078135
0.00884551
0.0779176
0.00976367
0.0776659
0.0106671
0.0773809
0.0115551
0.0770632
0.0124269
0.0767136
0.0132819
0.0763329
0.0141195
0.0759218
0.0149393
0.0754811
0.0157409
0.0750113
0.0165248
0.0745142
0.0172908
0.0739784
0.018057
0.0189001
0.127269
8.91999e-06
-0.127278
0.127277
-7.78086e-06
0.127283
-6.21508e-06
0.127281
2.18938e-06
0.127267
1.38183e-05
0.12724
2.72695e-05
0.127198
4.16596e-05
0.127142
5.64332e-05
0.127071
7.12727e-05
0.126985
8.59977e-05
0.126884
0.000100491
0.12677
0.000114671
0.126641
0.000128463
0.126499
0.000141795
0.126345
0.000154581
0.126178
0.000166692
0.126
0.000177914
0.125812
0.000187805
0.125617
0.00019533
0.000197859
0.128685
-0.000185983
-0.12849
0.128845
-0.000168519
0.128978
-0.000139059
0.129082
-0.000101923
0.129156
-6.0254e-05
0.129199
-1.54621e-05
0.129209
3.145e-05
0.129186
7.96571e-05
0.129129
0.00012854
0.129037
0.000177647
0.128911
0.000226623
0.12875
0.000275174
0.128556
0.000323038
0.128328
0.000369965
0.128067
0.000415696
0.127773
0.000459928
0.127449
0.00050227
0.127095
0.000542142
0.126711
0.000578644
0.000610687
0.127478
-0.000583457
-0.12708
0.127826
-0.000516756
0.12813
-0.000443133
0.128391
-0.000363115
0.128609
-0.000278295
0.128784
-0.000189669
0.128913
-9.80421e-05
0.128997
-4.20074e-06
0.129034
9.11319e-05
0.129025
0.000187329
0.128968
0.000283835
0.128863
0.000380151
0.12871
0.000475809
0.128509
0.000570364
0.128262
0.000663373
0.127967
0.000754375
0.127627
0.000842866
0.127241
0.000928273
0.126809
0.00100991
0.00108726
0.124455
-0.00115788
-0.12388
0.124978
-0.00104013
0.125451
-0.000916657
0.125876
-0.00078714
0.126249
-0.000652279
0.126573
-0.000512782
0.126844
-0.00036934
0.127062
-0.000222694
0.127227
-7.36009e-05
0.127337
7.72043e-05
0.127392
0.000229024
0.127391
0.000381193
0.127334
0.00053307
0.12722
0.000684036
0.12705
0.000833483
0.126824
0.000980806
0.126541
0.0011254
0.126203
0.00126663
0.125809
0.00140387
0.00153668
0.120299
-0.00187939
-0.119577
0.12097
-0.00171179
0.121592
-0.00153769
0.122161
-0.00135679
0.122678
-0.00116945
0.123142
-0.000976272
0.12355
-0.000777949
0.123903
-0.000575232
0.124198
-0.000368933
0.124435
-0.000159873
0.124613
5.11303e-05
0.124731
0.000263272
0.124788
0.00047577
0.124785
0.000687856
0.124719
0.000898781
0.124592
0.00110781
0.124404
0.00131422
0.124153
0.00151733
0.12384
0.00171642
0.00191105
0.115529
-0.00271687
-0.114692
0.116319
-0.00250146
0.117059
-0.00227794
0.117748
-0.00204618
0.118385
-0.00180649
0.118969
-0.00155946
0.119496
-0.00130582
0.119968
-0.0010464
0.120381
-0.00078208
0.120735
-0.000513787
0.121028
-0.000242451
0.12126
3.10032e-05
0.121431
0.000305665
0.121538
0.000580644
0.121582
0.000855067
0.121561
0.00112808
0.121477
0.00139887
0.121327
0.00166664
0.121113
0.00193064
0.00219028
0.110524
-0.00364122
-0.109599
0.111403
-0.00338025
0.112234
-0.00310928
0.113016
-0.00282829
0.113747
-0.00253763
0.114426
-0.00223791
0.11505
-0.00192996
0.115618
-0.00161469
0.116129
-0.00129311
0.116581
-0.000966235
0.116974
-0.000635116
0.117306
-0.000300792
0.117576
3.57177e-05
0.117783
0.00037341
0.117927
0.000711308
0.118006
0.00104846
0.118021
0.00138395
0.117971
0.00171691
0.117855
0.00204648
0.00237196
0.105545
-0.00462731
-0.104559
0.106488
-0.00432297
0.107385
-0.00400668
0.108235
-0.00367843
0.109036
-0.00333859
0.109786
-0.0029879
0.110483
-0.00262725
0.111126
-0.0022577
0.111714
-0.00188037
0.112244
-0.00149641
0.112716
-0.00110697
0.113128
-0.000713204
0.11348
-0.000316237
0.113771
8.28343e-05
0.113999
0.00048294
0.114164
0.000883044
0.114266
0.00128215
0.114304
0.00167929
0.114277
0.00207354
0.00246409
0.100761
-0.00565447
-0.0997343
0.101747
-0.00530884
0.10269
-0.00494927
0.103587
-0.00457567
0.104437
-0.0041885
0.105238
-0.00378858
0.105987
-0.00337696
0.106685
-0.00295485
0.107328
-0.00252352
0.107916
-0.00208423
0.108447
-0.00163829
0.108921
-0.00118693
0.109336
-0.000731381
0.109691
-0.000272831
0.109987
0.000187574
0.110221
0.000648722
0.110394
0.00110954
0.110504
0.001569
0.110551
0.0020261
0.00247994
0.0962722
-0.00670642
-0.0952203
0.0972848
-0.00632144
0.0982561
-0.00592049
0.0991837
-0.00550328
0.100066
-0.00507038
0.1009
-0.00462278
0.101685
-0.00416172
0.102418
-0.00368861
0.1031
-0.00320488
0.103727
-0.00271198
0.1043
-0.00221132
0.104818
-0.00170425
0.105278
-0.0011921
0.105682
-0.000676123
0.106027
-0.000157547
0.106313
0.000362453
0.10654
0.000882746
0.106707
0.00140224
0.106813
0.00191989
0.00243469
0.0921255
-0.00777068
-0.0910612
0.0931524
-0.00734841
0.0941398
-0.00690786
0.095085
-0.0064485
0.0959858
-0.00597114
0.09684
-0.00547704
0.097646
-0.00496769
0.0984022
-0.00444477
0.0991072
-0.00390995
0.0997601
-0.00336485
0.10036
-0.00281102
0.100906
-0.00224994
0.101396
-0.00168301
0.101832
-0.00111157
0.102211
-0.000536903
0.102534
3.97582e-05
0.102799
0.000617233
0.103007
0.00119438
0.103157
0.00177011
0.00234336
0.0883347
-0.00883811
-0.0872672
0.0893672
-0.00838098
0.0903619
-0.00790254
0.0913156
-0.00740218
0.0922256
-0.0068812
0.0930898
-0.00634125
0.0939064
-0.00578425
0.0946739
-0.00521223
0.0953911
-0.00462717
0.0960571
-0.00403091
0.0966712
-0.00342513
0.0972327
-0.00281143
0.097741
-0.0021913
0.0981956
-0.00156613
0.098596
-0.000937271
0.0989417
-0.000305987
0.0992324
0.000326498
0.0994678
0.00095901
0.0996475
0.00159042
0.00221961
0.084891
-0.0099023
-0.0838268
0.0859236
-0.00941359
0.08692
-0.0088989
0.087876
-0.00835822
0.0887887
-0.00779382
0.0896554
-0.00720801
0.0904745
-0.00660336
0.0912447
-0.00598243
0.0919651
-0.00534754
0.0926349
-0.00470075
0.0932537
-0.0040439
0.093821
-0.00337869
0.0943363
-0.00270666
0.0947995
-0.00202925
0.09521
-0.00134786
0.0955678
-0.000663765
0.0958725
2.17657e-05
0.096124
0.000707536
0.0963221
0.00139239
0.00207517
0.0817724
-0.0109594
-0.0807153
0.0828026
-0.0104437
0.0837978
-0.00989409
0.0847525
-0.00931293
0.085663
-0.00870437
0.0865269
-0.00807185
0.0873424
-0.00741888
0.0881087
-0.00674871
0.0888251
-0.00606401
0.0894914
-0.00536704
0.0901073
-0.00465975
0.0906725
-0.00394389
0.0911869
-0.00322103
0.0916503
-0.00249266
0.0920626
-0.00176016
0.0924237
-0.00102485
0.0927334
-0.000288014
0.0929918
0.000449134
0.0931988
0.00118541
0.00191966
0.0789505
-0.0120082
-0.0779018
0.0799785
-0.0114717
0.0809718
-0.0108874
0.081923
-0.0102641
0.082828
-0.00960935
0.0836844
-0.0089283
0.0844913
-0.00822578
0.0852483
-0.0075057
0.0859553
-0.00677101
0.0866124
-0.00602407
0.0872195
-0.00526685
0.0877767
-0.00450109
0.088284
-0.00372834
0.0887414
-0.0029501
0.089149
-0.00216775
0.0895068
-0.00138262
0.0898148
-0.000596001
0.090073
0.000190867
0.0902817
0.00097679
0.00176057
0.0763954
-0.0130506
-0.075353
0.0774242
-0.0125005
0.078416
-0.0118792
0.0793617
-0.0112098
0.0802576
-0.0105053
0.0811024
-0.00977313
0.0818962
-0.00901956
0.0826394
-0.00824891
0.0833326
-0.00746415
0.083976
-0.00666753
0.0845701
-0.00586092
0.085115
-0.00504597
0.0856108
-0.00422421
0.0860578
-0.00339708
0.0864561
-0.00256599
0.0868057
-0.00173227
0.0871069
-0.000897221
0.0873599
-6.20947e-05
0.0875648
0.00077189
0.00160351
0.0740785
-0.0140955
-0.0730336
0.0751132
-0.0135352
0.0761033
-0.0128693
0.0770405
-0.0121471
0.0779231
-0.0113878
0.0787518
-0.0106019
0.0795284
-0.00979613
0.0802541
-0.00897469
0.0809301
-0.00814012
0.0815569
-0.00729434
0.082135
-0.006439
0.0826647
-0.00557563
0.0831462
-0.00470569
0.0835797
-0.00383061
0.0839655
-0.00295179
0.0843038
-0.00207058
0.0845949
-0.0011883
0.084839
-0.000306216
0.0850365
0.000574421
0.00145236
0.0719747
-0.0151671
-0.070903
0.0730211
-0.0145816
0.0740064
-0.0138547
0.0749296
-0.0130702
0.0757932
-0.0122514
0.0766014
-0.01141
0.0773573
-0.0105521
0.0780631
-0.00968047
0.0787198
-0.00879684
0.0793282
-0.00790269
0.0798886
-0.0069994
0.0804013
-0.0060884
0.0808668
-0.00517109
0.0812851
-0.00424893
0.0816566
-0.00332332
0.0819816
-0.00239563
0.0822606
-0.00146721
0.0824937
-0.000539368
0.0826815
0.000386624
0.00130948
0.0700741
-0.0162969
-0.0689443
0.071124
-0.0156315
0.072094
-0.0148247
0.0729947
-0.0139709
0.073834
-0.0130907
0.0746184
-0.0121944
0.075352
-0.0112857
0.0760366
-0.0103651
0.0766732
-0.00943351
0.0772625
-0.00849189
0.0778045
-0.00754147
0.0782997
-0.0065836
0.0787484
-0.00561972
0.0791507
-0.0046513
0.0795072
-0.00367978
0.0798182
-0.0027066
0.080084
-0.00173311
0.0803054
-0.000760668
0.0804825
0.000209425
0.00117583
0.068368
-0.0672571
-0.0174078
0.0693847
-0.0166482
0.0703266
-0.0157666
0.0711982
-0.0148425
0.0720111
-0.0139036
0.0727719
-0.0129552
0.0734836
-0.0119973
0.0741475
-0.0110291
0.0747645
-0.0100505
0.0753348
-0.00906218
0.0758586
-0.00806529
0.0763362
-0.00706122
0.076768
-0.00605149
0.0771543
-0.00503761
0.0774956
-0.0040211
0.0777924
-0.0030034
0.0780453
-0.00198594
0.0782547
-0.000970103
0.0784214
4.27846e-05
0.00105133
0.0231714
0.0434198
-0.0420309
-0.0245603
0.0217724
0.0449954
-0.0435964
0.0203642
0.0467207
-0.0453125
0.0189479
0.0486259
-0.0472097
0.0175251
0.0507459
-0.0493231
0.0160978
0.0531201
-0.0516928
0.0146684
0.055793
-0.0543637
0.0132402
0.0588139
-0.0573857
0.0118169
0.0622349
-0.0608116
0.010403
0.0661085
-0.0646946
0.00900405
0.0704833
-0.0690844
0.00762735
0.0753979
-0.0740212
0.00628247
0.0808726
-0.0795277
0.00498274
0.0868976
-0.0855979
0.00374718
0.0934162
-0.0921807
0.00260304
0.100302
-0.0991577
0.00158926
0.107326
-0.106312
0.000761027
0.11411
-0.113282
0.000197138
0.120048
-0.119484
0.124242
-0.124045
0.0231741
0.0448033
-0.0245575
0.02178
0.0463895
0.0203761
0.0481246
0.0189634
0.0500386
0.0175433
0.052166
0.0161177
0.0545457
0.014689
0.0572217
0.0132603
0.0602426
0.0118353
0.0636599
0.0104186
0.0675251
0.00901611
0.0718858
0.00763527
0.0767787
0.00628617
0.0822217
0.00498281
0.088201
0.00374499
0.094654
0.002601
0.101446
0.00159082
0.108336
0.000769919
0.114931
0.000211722
0.120606
0.124454
0.0231398
0.0461797
-0.0245162
0.0217523
0.047777
0.0203544
0.0495225
0.018947
0.051446
0.0175314
0.0535817
0.0161094
0.0559678
0.0146832
0.0586478
0.013256
0.0616698
0.0118315
0.0650844
0.0104142
0.0689423
0.00901038
0.0732896
0.00762767
0.0781614
0.00627665
0.0835727
0.00497192
0.0895057
0.00373398
0.095892
0.00259178
0.102588
0.00158569
0.109342
0.000770276
0.115747
0.000215057
0.121162
0.124669
0.0230693
0.0475475
-0.0244371
0.0216899
0.0491564
0.0202995
0.0509129
0.0188991
0.0528465
0.0174896
0.0549911
0.0160729
0.0573845
0.0146512
0.0600696
0.0132274
0.0630936
0.0118053
0.0665066
0.0103896
0.070358
0.00898656
0.0746927
0.00760421
0.0795438
0.00625353
0.0849234
0.00494965
0.0908096
0.00371363
0.097128
0.00257494
0.103727
0.00157402
0.110343
0.000764595
0.116556
0.000213932
0.121712
0.124883
0.0229631
0.0489054
-0.0243211
0.0215932
0.0505264
0.0202118
0.0522942
0.0188198
0.0542385
0.0174181
0.0563928
0.0160084
0.0587942
0.0145928
0.0614851
0.0131743
0.0645121
0.0117566
0.0679243
0.0103446
0.0717701
0.00894444
0.0760928
0.00756465
0.0809236
0.00621655
0.0862715
0.00491573
0.0921104
0.00368379
0.0983599
0.00255057
0.10486
0.00155653
0.111337
0.000754629
0.117358
0.000210448
0.122256
0.125093
0.0228222
0.0502524
-0.0241691
0.0214629
0.0518857
0.0200918
0.0536653
0.0187095
0.0556208
0.017317
0.0577852
0.0159159
0.0601953
0.0145082
0.0628928
0.0130968
0.0659235
0.0116854
0.0693357
0.0102789
0.0731766
0.00888385
0.0774879
0.00750883
0.0822986
0.00616556
0.0876148
0.00487007
0.0934059
0.00364444
0.0995855
0.00251882
0.105986
0.00153363
0.112322
0.000741118
0.118151
0.000205376
0.122792
0.125299
0.0226472
0.0515874
-0.0239823
0.0212995
0.0532334
0.0199397
0.0550251
0.0185684
0.0569921
0.0171865
0.0591672
0.0157954
0.0615864
0.0143972
0.064291
0.0129946
0.0673261
0.0115914
0.0707388
0.0101926
0.0745754
0.00880467
0.0788758
0.00743661
0.0836666
0.00610044
0.088951
0.0048126
0.0946938
0.00359557
0.100803
0.0024798
0.107101
0.0015056
0.113297
0.000724544
0.118932
0.00019918
0.123318
0.125498
0.022439
0.05291
-0.0237616
0.0211036
0.0545688
0.0197561
0.0563726
0.0183968
0.0583514
0.0170266
0.0605373
0.015647
0.0629661
0.0142598
0.0656783
0.0128677
0.0687181
0.0114746
0.072132
0.0100853
0.0759646
0.00870673
0.0802544
0.00734787
0.0850255
0.0060211
0.0902777
0.00474327
0.0959716
0.00353722
0.102009
0.00243364
0.108205
0.00147272
0.114258
0.000705277
0.119699
0.00019214
0.123831
0.12569
0.0221981
0.0542199
-0.023508
0.0208755
0.0558914
0.0195408
0.0577073
0.0181945
0.0596977
0.0168373
0.0618946
0.0154704
0.064333
0.0140957
0.0670529
0.0127159
0.0700979
0.0113347
0.0735132
0.00995708
0.0773423
0.00858991
0.0816216
0.00724249
0.0863729
0.00592748
0.0915927
0.00466207
0.097237
0.00346944
0.103201
0.00238047
0.109294
0.00143519
0.115203
0.000683566
0.120451
0.000184399
0.12433
0.125875
0.0219248
0.0555173
-0.0232222
0.0206151
0.0572011
0.0192939
0.0590286
0.0179613
0.0610303
0.016618
0.0632378
0.0152652
0.0656858
0.0139047
0.0684135
0.0125389
0.0714637
0.0111715
0.0748806
0.00980759
0.0787062
0.00845405
0.0829751
0.00712039
0.0877066