/*--------------------------------*- C++ -*----------------------------------*\
  =========                 |
  \\      /  F ield         | OpenFOAM: The Open Source CFD Toolbox
   \\    /   O peration     | Website:  https://openfoam.org
    \\  /    A nd           | Version:  6.0
     \\/     M anipulation  |
\*---------------------------------------------------------------------------*/
FoamFile
{
    version     2.0;
    format      ascii;
    class       surfaceScalarField;
    location    "9";
    object      phi;
}
// * * * * * * * * * * * * * * * * * * * * * * * * * * * * * * * * * * * * * //

dimensions      [0 3 -1 0 0 0 0];

internalField   nonuniform List<scalar> 
4670
(
0.00236179
-0.430724
0.428362
0.00766677
-0.393948
0.388643
0.0140698
-0.371505
0.365102
0.0204981
-0.350736
0.344308
0.0265029
-0.330292
0.324287
0.0319749
-0.309982
0.30451
0.0369734
-0.290275
0.285277
0.0416288
-0.271742
0.267086
0.0460953
-0.254728
0.250262
-0.23931
0.23487
0.0505348
0.00250312
-0.433227
0.00786221
-0.399307
0.0141962
-0.377839
0.0204658
-0.357005
0.0262613
-0.336087
0.0315103
-0.315231
0.0362973
-0.295062
0.0407658
-0.27621
0.0450787
-0.259041
-0.243643
0.0494117
0.00260979
-0.435836
0.00796668
-0.404664
0.0141734
-0.384046
0.0202271
-0.363059
0.0257625
-0.341623
0.0307445
-0.320213
0.0352812
-0.299599
0.0395263
-0.280455
0.0436486
-0.263163
-0.247832
0.0478383
0.00266644
-0.438503
0.00797511
-0.409973
0.0140019
-0.390072
0.0197842
-0.368841
0.0250062
-0.346845
0.0296722
-0.324879
0.0339141
-0.303841
0.0378939
-0.284435
0.041783
-0.267053
-0.251836
0.0457873
0.0026906
-0.441193
0.00789849
-0.415181
0.013693
-0.395867
0.0191528
-0.374301
0.0240102
-0.351702
0.028307
-0.329176
0.0321979
-0.307732
0.0358534
-0.28809
0.0394486
-0.270648
-0.255603
0.043215
0.00267792
-0.443871
0.00773819
-0.420241
0.0132547
-0.401383
0.0183505
-0.379397
0.0228042
-0.356156
0.0266891
-0.333061
0.0301742
-0.311217
0.033436
-0.291352
0.0366623
-0.273874
-0.259068
0.0401273
0.00263654
-0.446508
0.00750671
-0.425111
0.0126993
-0.406576
0.0173879
-0.384086
0.0214019
-0.36017
0.0248478
-0.336507
0.0279024
-0.314272
0.0307319
-0.294182
0.0335221
-0.276664
-0.262077
0.0365309
0.00258069
-0.449089
0.00723513
-0.429766
0.0120626
-0.411403
0.0162865
-0.388309
0.0197919
-0.363675
0.0227324
-0.339447
0.0253148
-0.316854
0.0276949
-0.296562
0.0299758
-0.278945
-0.264261
0.03216
0.00254731
-0.451636
0.00698909
-0.434208
0.0114335
-0.415848
0.0151548
-0.392031
0.0180681
-0.366588
0.0203421
-0.341721
0.0222071
-0.318719
0.023869
-0.298224
0.0254592
-0.280536
-0.265758
0.0269564
0.00259382
-0.45423
0.00682337
-0.438437
0.0109128
-0.419937
0.01419
-0.395308
0.0165699
-0.368968
0.0181478
-0.343299
0.0190104
-0.319582
0.019258
-0.298471
0.0193589
-0.280637
-0.268149
0.0217496
0.475298
0.00227515
-0.477573
0.472991
0.00230719
0.470635
0.00235592
0.468235
0.00240042
0.465827
0.00240765
0.463433
0.00239382
0.461068
0.00236486
0.458736
0.00233193
0.456464
0.00227191
0.00223468
0.469072
0.00445844
-0.471255
0.466514
0.00486457
0.46367
0.00519998
0.460568
0.00550286
0.457241
0.00573467
0.453737
0.00589722
0.450091
0.00601151
0.446332
0.00609067
0.442453
0.00615077
0.00625071
0.445458
0.005538
-0.446537
0.443913
0.00640931
0.441958
0.00715506
0.439636
0.00782411
0.436982
0.00838939
0.434043
0.00883616
0.430853
0.00920143
0.427441
0.00950246
0.423807
0.00978449
0.0101208
0.413152
0.00574399
-0.413358
0.412495
0.00706585
0.411413
0.00823692
0.409959
0.00927824
0.408158
0.0101909
0.406056
0.0109376
0.403698
0.0115599
0.401134
0.0120664
0.39834
0.0125783
0.0131527
0.381107
0.00552817
-0.380891
0.380915
0.0072575
0.38033
0.00882242
0.379404
0.0102033
0.378162
0.0114332
0.376681
0.0124185
0.374966
0.0132748
0.373123
0.0139099
0.371119
0.0145821
0.0153036
0.352282
0.00522456
-0.351978
0.352218
0.00732096
0.351797
0.0092435
0.351075
0.0109258
0.350058
0.0124497
0.348876
0.0136009
0.347492
0.0146584
0.34613
0.0152719
0.344668
0.0160442
0.0166726
0.327287
0.00501475
-0.327077
0.327156
0.00745161
0.326688
0.00971108
0.325949
0.0116647
0.324922
0.0134767
0.323793
0.0147306
0.322462
0.0159886
0.321383
0.0163511
0.320178
0.0172494
0.0172689
0.305823
0.00496849
-0.305777
0.305544
0.00773094
0.304935
0.0103192
0.304072
0.0125278
0.302895
0.0146543
0.301656
0.0159688
0.300166
0.0174789
0.299279
0.0172378
0.298111
0.018418
0.0169087
0.287276
0.00509541
-0.287403
0.286836
0.0081704
0.286073
0.0110828
0.285068
0.0135323
0.28371
0.0160121
0.282302
0.0173766
0.280486
0.0192955
0.279681
0.0180427
0.278605
0.0194941
0.014877
0.271026
-0.271337
0.00540637
0.270431
0.00876455
0.269536
0.0119788
0.268429
0.0146393
0.266956
0.0174844
0.265431
0.0189021
0.263287
0.0214391
0.26209
0.0192395
0.260865
0.0207195
0.00759342
0.486533
-0.000355209
-0.486178
0.486649
-0.000116549
0.486485
0.00016392
0.486016
0.000469851
0.485231
0.0007842
0.484157
0.00107459
0.482819
0.00133827
0.481242
0.00157636
0.479483
0.00175889
0.00191002
0.469511
-0.00308668
-0.466779
0.471733
-0.00233912
0.473454
-0.00155658
0.474656
-0.000732191
0.475329
0.000111258
0.475478
0.000925376
0.47512
0.00169646
0.474277
0.00241935
0.472978
0.00305759
0.00363319
0.432983
-0.00725671
-0.428813
0.436659
-0.00601473
0.439796
-0.00469413
0.442384
-0.00332025
0.444426
-0.00193022
0.445917
-0.000565506
0.446861
0.000752315
0.447271
0.00200881
0.447159
0.00317024
0.00425474
0.393329
-0.0119903
-0.388595
0.397612
-0.0102979
0.401372
-0.00845417
0.404608
-0.00655601
0.407332
-0.00465439
0.409542
-0.00277553
0.411241
-0.00094644
0.412439
0.00081075
0.41314
0.00246944
0.00403678
0.358911
-0.0168367
-0.354065
0.363291
-0.0146777
0.367159
-0.0123216
0.370529
-0.00992605
0.373418
-0.00754332
0.375827
-0.00518506
0.377768
-0.00288719
0.379254
-0.000675271
0.38029
0.00143302
0.00343622
0.330563
-0.0216602
-0.325739
0.334818
-0.0189327
0.338547
-0.0160507
0.341804
-0.0131833
0.34459
-0.0103287
0.346911
-0.00750664
0.348795
-0.00477141
0.350262
-0.0021424
0.35132
0.000375931
0.00277763
0.307286
-0.0265086
-0.302438
0.311355
-0.023001
0.314858
-0.0195537
0.317915
-0.0162404
0.320489
-0.0129025
0.3226
-0.00961775
0.324297
-0.00646833
0.325604
-0.00344991
0.326528
-0.000547951
0.00222884
0.287878
-0.0314778
-0.282909
0.291775
-0.0268981
0.295041
-0.0228194
0.297866
-0.019065
0.300194
-0.0152312
0.302064
-0.0114878
0.303542
-0.00794618
0.304652
-0.00456007
0.305396
-0.00129149
0.00184816
0.271381
-0.0361921
-0.266667
0.27514
-0.0306563
0.278197
-0.0258765
0.280729
-0.0215976
0.282788
-0.0172897
0.28443
-0.01313
0.285704
-0.00921978
0.286626
-0.00548282
0.287194
-0.00185861
0.0016391
0.256866
-0.255467
-0.0375912
0.260568
-0.0343584
0.26384
-0.0291484
0.265943
-0.0237005
0.267659
-0.0190055
0.269101
-0.0145724
0.270191
-0.0103096
0.270928
-0.00621924
0.271312
-0.00224332
0.0016148
0.046815
0.207255
-0.202455
-0.0516156
0.041864
0.220887
-0.215936
0.0367385
0.236412
-0.231287
0.0313802
0.254393
-0.249035
0.0257298
0.275843
-0.270192
0.0197625
0.302374
-0.296407
0.0135514
0.336239
-0.330028
0.00742665
0.379357
-0.373232
0.00231034
0.428165
-0.423049
0.470655
-0.468344
0.046845
0.212094
-0.0516836
0.0418428
0.225889
0.0366644
0.241591
0.0312567
0.259801
0.0255649
0.281534
0.019571
0.308368
0.0133617
0.342448
0.00728851
0.38543
0.00227818
0.433176
0.472933
0.046627
0.216937
-0.05147
0.041608
0.230908
0.0364078
0.246791
0.0309802
0.265228
0.0252758
0.287239
0.0192841
0.31436
0.0131044
0.348628
0.00710153
0.391433
0.00219392
0.438083
0.475127
0.0462877
0.221781
-0.0511321
0.0412484
0.235948
0.0360276
0.252012
0.0305844
0.270672
0.0248767
0.292947
0.0189016
0.320335
0.0127686
0.354761
0.00685784
0.397344
0.00207545
0.442866
0.477202
0.0455993
0.226581
-0.0503989
0.0405941
0.240953
0.0354024
0.257204
0.0299896
0.276084
0.0243198
0.298616
0.0183974
0.326258
0.0123441
0.360814
0.00655712
0.40313
0.00194411
0.447479
0.479146
0.0450968
0.231457
-0.0499728
0.0400036
0.246046
0.0347469
0.26246
0.0293091
0.281522
0.0236567
0.304269
0.0177928
0.332121
0.0118459
0.366761
0.00620706
0.408769
0.00179122
0.451895
0.480937
0.043815
0.236234
-0.048592
0.0388075
0.251054
0.0336514
0.267616
0.0283231
0.286851
0.02278
0.309812
0.0170362
0.337865
0.0112356
0.372562
0.00578797
0.414217
0.0016116
0.456071
0.482549
0.0435329
0.241598
-0.0488976
0.0380326
0.256554
0.032645
0.273004
0.0272656
0.29223
0.0217664
0.315311
0.0161382
0.343493
0.0105091
0.378191
0.0053148
0.419411
0.00140924
0.459977
0.483958
0.0407915
0.246849
-0.0460425
0.0357257
0.26162
0.0308545
0.277875
0.025774
0.29731
0.0204773
0.320608
0.015054
0.348917
0.0096857
0.383559
0.00480206
0.424295
0.00121344
0.463565
0.485172
0.0392628
-0.0478806
0.0342155
0.0291817
0.0240541
0.0189226
0.0137742
0.0087383
0.00421998
0.00100594
0.0402545
0.166824
-0.164147
-0.0429316
0.0358765
0.178586
-0.174208
0.0314077
0.191594
-0.187125
0.0269528
0.2067
-0.202245
0.0224471
0.224874
-0.220368
0.0177686
0.247853
-0.243174
0.0128101
0.278471
-0.273513
0.00760886
0.320645
-0.315444
0.00273077
0.376348
-0.37147
0.44379
-0.441059
0.0395318
0.170291
-0.0429995
0.0359025
0.182215
0.0319557
0.195541
0.0277262
0.210929
0.0232144
0.229385
0.0183889
0.252678
0.0132222
0.283638
0.00782554
0.326042
0.00282684
0.381347
0.446617
0.0399789
0.173593
-0.0432806
0.0364474
0.185747
0.0325608
0.199427
0.028335
0.215155
0.023759
0.233961
0.01881
0.257627
0.0134868
0.288961
0.00793788
0.331591
0.0028384
0.386446
0.449455
0.0410119
0.176937
-0.0443554
0.0373497
0.189409
0.0333383
0.203439
0.0289799
0.219513
0.0242587
0.238683
0.0191509
0.262735
0.0136685
0.294444
0.00798469
0.337275
0.0028163
0.391615
0.452272
0.0421941
0.180552
-0.0458094
0.0383067
0.193296
0.0341201
0.207625
0.0296003
0.224033
0.0247162
0.243567
0.0194433
0.268008
0.013802
0.300085
0.00799729
0.343079
0.0027822
0.39683
0.455054
0.0433492
0.184477
-0.0472739
0.0392244
0.197421
0.0348446
0.212005
0.0301548
0.228723
0.0251095
0.248612
0.0196811
0.273436
0.0138978
0.305868
0.00798855
0.348988
0.0027422
0.402076
0.457796
0.0444306
0.18868
-0.0486339
0.0400756
0.201776
0.035499
0.216582
0.0306368
0.233585
0.0254347
0.253814
0.0198621
0.279009
0.0139561
0.311774
0.00796246
0.354982
0.00269986
0.407339
0.460496
0.0453817
0.193117
-0.0498188
0.0408167
0.206341
0.0360565
0.221342
0.0310331
0.238609
0.0256865
0.259161
0.0199851
0.28471
0.0139737
0.317786
0.00791768
0.361038
0.00265123
0.412605
0.463147
0.0461315
0.19773
-0.0507448
0.0413959
0.211077
0.0364815
0.226256
0.0313209
0.243769
0.0258518
0.26463
0.0200433
0.290519
0.0139501
0.323879
0.00785879
0.367129
0.00261713
0.417847
0.465764
0.0466396
-0.0513638
0.0417806
0.0367501
0.0314844
0.0259218
0.0200336
0.0138848
0.00778222
0.00258001
-0.155913
0.039689
-0.0479228
-0.152825
0.0324389
-0.0355264
-0.150856
0.0278065
-0.0297762
-0.149697
0.0221882
-0.0233471
-0.149133
0.0171845
-0.0177482
-0.149177
0.0121949
-0.0121506
-0.149807
0.00733651
-0.00670703
-0.151024
0.00255978
-0.00134238
-0.152818
-0.00209848
0.00389185
-0.00659161
-0.155166
0.00894022
-0.168948
0.0344284
-0.165718
0.0292095
-0.163353
0.0254419
-0.161979
0.0208138
-0.161288
0.0164938
-0.161252
0.0121589
-0.161827
0.00791146
-0.163
0.00373243
-0.164747
-0.000351315
-0.00430005
-0.167039
-0.18249
0.0297931
-0.179401
0.0261203
-0.176926
0.0229675
-0.175346
0.0192333
-0.174472
0.0156199
-0.174269
0.0119555
-0.174693
0.00833555
-0.175721
0.00476063
-0.177327
0.00125528
-0.00214734
-0.17948
-0.197937
0.0254851
-0.194732
0.0229151
-0.192127
0.020363
-0.190315
0.0174217
-0.18919
0.0144948
-0.188735
0.0114997
-0.188916
0.00851659
-0.18971
0.00555498
-0.191094
0.00263914
-0.000204037
-0.193037
-0.216187
0.0213047
-0.212763
0.0194909
-0.209931
0.0175312
-0.207817
0.0153079
-0.206363
0.0130402
-0.205566
0.0107032
-0.205407
0.00835742
-0.205868
0.00601538
-0.206928
0.00369909
0.00142946
-0.208561
-0.238893
0.0170234
-0.23518
0.0157783
-0.232024
0.0143753
-0.229515
0.0127988
-0.227632
0.0111574
-0.226385
0.00945561
-0.225762
0.00773449
-0.225753
0.00600636
-0.226342
0.00428789
0.0025947
-0.227507
-0.268963
0.0124734
-0.264881
0.0116958
-0.261303
0.010798
-0.258299
0.00979431
-0.255873
0.00873161
-0.254041
0.00762397
-0.252802
0.00649472
-0.252149
0.0053537
-0.252071
0.00420953
0.00307317
-0.252549
-0.310613
0.00764295
-0.306161
0.00724325
-0.302137
0.00677393
-0.298601
0.00625806
-0.29557
0.00570144
-0.293065
0.00511819
-0.291087
0.00451664
-0.289636
0.00390357
-0.288705
0.00327821
0.00264252
-0.288274
-0.366784
0.00295674
-0.362367
0.00282643
-0.358263
0.00267019
-0.354526
0.00252052
-0.351173
0.00234851
-0.348222
0.00216726
-0.34568
0.00197484
-0.343553
0.00177596
-0.341839
0.00156463
0.00132046
-0.340517
-0.438103
-0.435276
-0.432606
-0.430085
-0.427737
-0.42557
-0.423595
-0.421819
-0.420254
-0.418934
-0.158037
-0.0108004
0.013671
-0.161364
-0.01478
0.0181074
-0.165082
-0.0184131
0.0221312
-0.169098
-0.0216358
0.0256512
-0.173284
-0.0243878
0.0285734
-0.177486
-0.0266389
0.0308416
-0.181515
-0.0284679
0.0324968
-0.185147
-0.0300778
0.03371
-0.188739
-0.0315041
0.0350954
-0.0336121
-0.190663
0.0355368
-0.16984
-0.00799936
-0.173081
-0.0115387
-0.176692
-0.0148018
-0.180585
-0.0177431
-0.184645
-0.0203275
-0.188732
-0.0225523
-0.192711
-0.0244884
-0.196527
-0.0262622
-0.200014
-0.0280174
-0.0304953
-0.20313
-0.182149
-0.00533094
-0.185266
-0.00842127
-0.188767
-0.0113004
-0.192575
-0.0139359
-0.196593
-0.0163094
-0.200713
-0.0184318
-0.20485
-0.0203521
-0.208959
-0.0221532
-0.212946
-0.0240303
-0.02638
-0.217061
-0.195517
-0.00285135
-0.19847
-0.00546748
-0.201842
-0.00792918
-0.205563
-0.0102146
-0.209556
-0.012316
-0.213742
-0.0142464
-0.218053
-0.0160408
-0.22244
-0.0177656
-0.226891
-0.0195795
-0.0216423
-0.231629
-0.210754
-0.000658742
-0.213448
-0.00277298
-0.216597
-0.00478076
-0.220141
-0.00666967
-0.224022
-0.00843523
-0.228178
-0.0100906
-0.232552
-0.0116666
-0.237102
-0.0132158
-0.241844
-0.0148374
-0.0165742
-0.246912
-0.229245
0.00107969
-0.231505
-0.000513747
-0.234246
-0.00203907
-0.237425
-0.00349087
-0.240995
-0.00486561
-0.244909
-0.00617602
-0.249126
-0.00744955
-0.253615
-0.0087267
-0.258392
-0.0100605
-0.0114508
-0.263516
-0.253598
0.0021283
-0.255166
0.00105481
-0.257226
2.08106e-05
-0.259747
-0.000970122
-0.262692
-0.00192019
-0.266037
-0.00283161
-0.269751
-0.00373494
-0.273817
-0.00466144
-0.278238
-0.00563851
-0.00665553
-0.283034
-0.288375
0.00222907
-0.288958
0.00163717
-0.290003
0.00106665
-0.291499
0.000525647
-0.29342
3.55021e-07
-0.295747
-0.000504424
-0.298478
-0.0010036
-0.301602
-0.00153813
-0.305113
-0.00212715
-0.00275727
-0.309011
-0.339578
0.00129044
-0.339027
0.0010856
-0.338849
0.000888731
-0.339041
0.000718093
-0.339591
0.000549898
-0.340482
0.000386758
-0.34172
0.000234641
-0.343318
5.91962e-05
-0.345282
-0.000163049
-0.000444215
-0.347595
-0.417643
-0.416558
-0.415669
-0.414951
-0.414401
-0.414014
-0.41378
-0.41372
-0.413883
-0.414328
0.000378796
-0.414706
0.00303683
-0.350253
0.00737839
-0.313353
0.0125806
-0.288236
0.0180757
-0.269011
0.0235367
-0.252373
0.0288281
-0.23692
0.03401
-0.222243
0.0393817
-0.208502
-0.196406
0.0451241
0.00062004
-0.415327
0.00364335
-0.353276
0.0083488
-0.318058
0.0138634
-0.29375
0.0195925
-0.27474
0.0251956
-0.257977
0.0305223
-0.242247
0.0355727
-0.227293
0.0403873
-0.213317
-0.20068
0.0446618
0.000867176
-0.416194
0.00424383
-0.356653
0.00928906
-0.323104
0.0150829
-0.299544
0.0210219
-0.280679
0.0267788
-0.263734
0.0322146
-0.247683
0.0372784
-0.232357
0.0418595
-0.217898
-0.20452
0.0456993
0.00108552
-0.417279
0.0048134
-0.360381
0.0101756
-0.328466
0.0162052
-0.305574
0.0222958
-0.286769
0.0281307
-0.269569
0.0335825
-0.253135
0.0386195
-0.237394
0.0432232
-0.222501
-0.208645
0.0473479
0.00130896
-0.418588
0.00536591
-0.364438
0.0110115
-0.334111
0.0172395
-0.311802
0.0234481
-0.292978
0.0293386
-0.275459
0.0348023
-0.258598
0.039831
-0.242423
0.0444423
-0.227113
-0.212826
0.0486237
0.00152707
-0.420115
0.00588963
-0.3688
0.0117815
-0.340003
0.0181648
-0.318185
0.024449
-0.299262
0.0303595
-0.28137
0.0358164
-0.264055
0.0408438
-0.24745
0.0454963
-0.231765
-0.21713
0.0498
0.00174423
-0.42186
0.00638345
-0.373439
0.0124792
-0.346099
0.0189733
-0.32468
0.025293
-0.305582
0.0311916
-0.287268
0.0366172
-0.269481
0.0416189
-0.252452
0.0462755
-0.236422
-0.221493
0.0506389
0.0019552
-0.423815
0.00683896
-0.378323
0.013092
-0.352352
0.0196476
-0.331235
0.0259578
-0.311892
0.0318085
-0.293119
0.0371774
-0.27485
0.0421379
-0.257412
0.0467921
-0.241076
-0.225923
0.0512217
0.00215984
-0.425975
0.00724906
-0.383412
0.0136062
-0.358709
0.020169
-0.337798
0.0264216
-0.318145
0.0321836
-0.298881
0.0374616
-0.280128
0.0423511
-0.262302
0.0469753
-0.2457
-0.230392
0.0514448
0.00238718
0.00761814
0.0140108
0.0205203
0.0266628
0.0322919
0.0374412
0.0422258
0.0467869
0.0512649
0.0464859
-0.99965
1.0037
0.0472814
-0.790044
0.789249
0.0493014
-0.660032
0.658012
0.052623
-0.547919
0.544597
0.0548662
-0.44906
0.446817
0.0563346
-0.361947
0.360478
0.0572394
-0.285238
0.284333
0.0577031
-0.219342
0.218878
0.0577828
-0.165286
0.165207
0.0572341
-0.127626
0.128174
0.0551795
-0.116814
0.118869
0.0506465
-0.135559
0.140093
0.0440269
-0.158581
0.1652
0.0377499
-0.138767
0.145044
0.035128
-0.0404226
0.0430445
0.03824
0.113628
-0.11674
0.0460549
0.258233
-0.266048
0.0547889
0.30851
-0.317244
0.0619655
0.310742
-0.317918
0.190308
-0.19331
0.041555
-0.991793
0.0415119
-0.790001
0.0437022
-0.662223
0.0475413
-0.551758
0.0505527
-0.452072
0.0527306
-0.364125
0.0542694
-0.286777
0.0552517
-0.220324
0.055695
-0.16573
0.0553176
-0.127248
0.053281
-0.114778
0.0487711
-0.13105
0.0423434
-0.152153
0.0364786
-0.132902
0.0343844
-0.0383283
0.0378922
0.11012
0.0458003
0.250325
0.0544186
0.299892
0.0614978
0.303663
0.187308
0.0364726
-0.980427
0.0354202
-0.788949
0.03775
-0.664552
0.0421102
-0.556118
0.0459118
-0.455873
0.0488293
-0.367042
0.0510265
-0.288974
0.0525539
-0.221851
0.0533949
-0.166571
0.0532394
-0.127093
0.0512901
-0.112829
0.0468792
-0.126639
0.040704
-0.145978
0.0352706
-0.127469
0.0336735
-0.0367313
0.0375263
0.106267
0.0454953
0.242356
0.0540008
0.291386
0.0610082
0.296655
0.184273
0.0312472
-0.965887
0.0292274
-0.786929
0.0315886
-0.666914
0.0363895
-0.560919
0.0409646
-0.460449
0.0446439
-0.370721
0.0475243
-0.291854
0.0496252
-0.223952
0.0509001
-0.167846
0.0510184
-0.127211
0.0492227
-0.111033
0.0449789
-0.122395
0.0391079
-0.140107
0.03412
-0.122481
0.0329891
-0.0356004
0.0371375
0.102118
0.0451385
0.234355
0.0535362
0.282988
0.0604975
0.289694
0.181165
0.0262858
-0.948958
0.023352
-0.783995
0.0253838
-0.668945
0.0304226
-0.565958
0.0357252
-0.465751
0.0401873
-0.375183
0.0437771
-0.295444
0.046481
-0.226656
0.048227
-0.169592
0.0486704
-0.127654
0.0470912
-0.109454
0.0430748
-0.118378
0.0375505
-0.134582
0.033018
-0.117948
0.0323238
-0.0349062
0.036722
0.0977203
0.0447297
0.226347
0.0530263
0.274692
0.0599672
0.282753
0.177949
0.0216325
-0.930463
0.0172721
-0.779635
0.0186538
-0.670327
0.0239624
-0.571266
0.0301063
-0.471895
0.0354421
-0.380519
0.0397905
-0.299792
0.0431333
-0.229999
0.0453891
-0.171847
0.0462081
-0.128473
0.0449047
-0.10815
0.041168
-0.114642
0.0360237
-0.129438
0.0319531
-0.113878
0.0316697
-0.0346228
0.0362776
0.0931124
0.0442701
0.218355
0.0524735
0.266488
0.0594188
0.275808
0.17459
0.0145411
-0.908473
0.00826489
-0.773358
0.0099546
-0.672017
0.0163791
-0.577691
0.023867
-0.479383
0.030324
-0.386976
0.03554
-0.305008
0.0395801
-0.234039
0.0423927
-0.17466
0.0436393
-0.12972
0.0426683
-0.107179
0.0392577
-0.111231
0.0345184
-0.124699
0.0309117
-0.110271
0.0310177
-0.0347288
0.0358028
0.0883273
0.0437629
0.210395
0.0518816
0.25837
0.0588543
0.268835
0.171058
0.00157838
-0.877892
-0.00448402
-0.767296
-0.000664189
-0.675837
0.00775401
-0.586109
0.0169956
-0.488624
0.0247936
-0.394774
0.0309997
-0.311215
0.0358111
-0.23885
0.0392363
-0.178085
0.0409665
-0.13145
0.0403845
-0.106597
0.0373423
-0.108189
0.0330253
-0.120382
0.0298797
-0.107126
0.0303574
-0.0352066
0.0352962
0.0833886
0.0432122
0.202479
0.051255
0.250327
0.0582763
0.261814
0.16732
-0.00557841
-0.845357
-0.0107398
-0.762135
-0.00756235
-0.679014
0.000743263
-0.594415
0.0105552
-0.498436
0.0192531
-0.403472
0.0263326
-0.318294
0.0318977
-0.244415
0.0359535
-0.182141
0.0382047
-0.133701
0.0380577
-0.106451
0.0354192
-0.105551
0.0315367
-0.116499
0.0288464
-0.104435
0.0296828
-0.0360429
0.0347603
0.078311
0.0426253
0.194614
0.0506001
0.242352
0.0576876
0.254726
0.16335
0.0213852
-0.844993
0.00208976
-0.742839
-0.00414527
-0.672779
-0.00162795
-0.596932
0.00584037
-0.505905
0.0143234
-0.411955
0.0218583
-0.325829
0.0280011
-0.250558
0.0326213
-0.186761
0.035381
-0.136461
0.0356848
-0.106754
0.0334768
-0.103342
0.0300544
-0.113077
0.0278315
-0.102212
0.0290182
-0.0372295
0.0342151
0.073114
0.042017
0.186812
0.0499278
0.234441
0.057089
0.247565
0.159121
0.353816
-0.710748
-0.48806
0.289416
-0.678439
0.229965
-0.613328
0.179181
-0.546148
0.145528
-0.472252
0.124269
-0.390696
0.109952
-0.311512
0.100341
-0.240946
0.0939742
-0.180395
0.0893358
-0.131823
0.0845462
-0.101965
0.0777068
-0.0965031
0.0684674
-0.103837
0.0593595
-0.0931046
0.0553061
-0.0331762
0.0599595
0.0684607
0.0725925
0.174179
0.0875197
0.219514
0.101523
0.233561
0.151442
0.403735
-0.575674
-0.53881
0.317545
-0.592249
0.257746
-0.553529
0.208942
-0.497343
0.172319
-0.43563
0.147336
-0.365713
0.129906
-0.294082
0.117663
-0.228704
0.109334
-0.172066
0.103364
-0.125852
0.0976174
-0.0962186
0.0898827
-0.0887684
0.0796345
-0.0935892
0.0695397
-0.0830098
0.0650218
-0.0286583
0.0701601
0.0633224
0.0842894
0.16005
0.101139
0.202664
0.117142
0.217559
0.14243
0.480414
-0.457551
-0.598538
0.387988
-0.499823
0.317328
-0.48287
0.256629
-0.436644
0.208622
-0.387623
0.175573
-0.332663
0.153201
-0.27171
0.13754
-0.213043
0.126776
-0.161302
0.119194
-0.11827
0.112381
-0.0894057
0.103777
-0.0801645
0.09263
-0.0824417
0.0816895
-0.0720693
0.0768162
-0.023785
0.0824755
0.0576631
0.0981024
0.144423
0.116922
0.183844
0.13511
0.199371
0.131908
0.529221
-0.346899
-0.639873
0.42762
-0.398222
0.350277
-0.405527
0.291298
-0.377665
0.243152
-0.339477
0.206092
-0.295603
0.179378
-0.244996
0.160182
-0.193848
0.146655
-0.147775
0.13715
-0.108765
0.129121
-0.0813774
0.119695
-0.0707382
0.107845
-0.0705915
0.0963048
-0.0605291
0.0912382
-0.0187184
0.0974316
0.0514697
0.114497
0.127357
0.135289
0.163053
0.155805
0.178856
0.119689
0.578697
-0.255561
-0.670035
0.486143
-0.305668
0.407715
-0.327099
0.343627
-0.313577
0.288042
-0.283892
0.24259
-0.250151
0.209323
-0.211728
0.185868
-0.170393
0.169298
-0.131204
0.157601
-0.0970685
0.148205
-0.0719812
0.138028
-0.0605607
0.125752
-0.0583162
0.113976
-0.0487523
0.108963
-0.0137053
0.115701
0.0447309
0.134072
0.108987
0.156755
0.140369
0.179697
0.155914
0.105594
0.612861
-0.180017
-0.688404
0.527608
-0.220415
0.44686
-0.246352
0.379162
-0.245879
0.323097
-0.227827
0.276717
-0.203771
0.240761
-0.175772
0.214299
-0.143932
0.194982
-0.111887
0.180997
-0.0830844
0.170105
-0.061089
0.159264
-0.0497194
0.146907
-0.0459589
0.135354
-0.0372002
0.130715
-0.00906577
0.13802
0.0374256
0.157513
0.0894937
0.181942
0.11594
0.207373
0.130483
0.0894578
0.633889
-0.119885
-0.694021
0.562908
-0.149434
0.489814
-0.173258
0.423875
-0.17994
0.367396
-0.171348
0.318789
-0.155164
0.278606
-0.135589
0.247648
-0.112973
0.224719
-0.0889574
0.208032
-0.0663982
0.195438
-0.0484949
0.183989
-0.03827
0.171897
-0.0338675
0.161062
-0.0263646
0.157157
-0.00516114
0.165089
0.0294935
0.185546
0.0690364
0.211578
0.0899092
0.239563
0.102497
0.0711119
0.651212
-0.0729524
-0.698145
0.593536
-0.0917581
0.529377
-0.109099
0.466531
-0.117094
0.410013
-0.114829
0.360535
-0.105686
0.318294
-0.0933477
0.284238
-0.0789172
0.258242
-0.0629613
0.239063
-0.0472197
0.224826
-0.0342574
0.212857
-0.0263014
0.201299
-0.0223093
0.191572
-0.0166374
0.188732
-0.00232179
0.197431
0.020795
0.218846
0.0476213
0.246473
0.0622824
0.277177
0.0717935
0.0503527
0.678544
-0.0349357
-0.716561
0.630832
-0.0440456
0.574946
-0.0532127
0.516253
-0.0584017
0.459995
-0.0585705
0.408986
-0.0546777
0.364287
-0.0486488
0.326888
-0.0415188
0.297408
-0.0334812
0.275412
-0.0252235
0.25936
-0.018205
0.246757
-0.0136982
0.235687
-0.0112393
0.22712
-0.0080703
0.225497
-0.000699257
0.235206
0.0110862
0.257906
0.0249209
0.287492
0.032697
0.32135
0.0379354
0.0268554
0.736578
-0.771513
0.692532
0.63932
0.580918
0.522347
0.46767
0.419021
0.377502
0.344021
0.318797
0.300592
0.286894
0.275655
0.267584
0.266885
0.277971
0.302892
0.335589
0.373525
0.568673
0.000339883
-0.563607
0.571855
0.00558296
0.572855
0.0109789
0.571544
0.0159503
0.567476
0.0215522
0.560654
0.0257236
0.549632
0.0324612
0.5347
0.0341715
0.510748
0.0446723
0.0302809
0.586725
-0.00221282
-0.584172
0.58805
0.00425822
0.58801
0.0110183
0.586309
0.0176515
0.582988
0.0248735
0.57747
0.0312408
0.57083
0.0391015
0.561937
0.0430646
0.555467
0.0511419
0.0469386
0.605601
-0.0028274
-0.604986
0.605848
0.004011
0.605835
0.0110315
0.605532
0.0179542
0.605391
0.0250142
0.605211
0.0314212
0.605899
0.0384136
0.605424
0.0435394
0.60499
0.0515756
0.0533913
0.62355
-0.00280405
-0.623573
0.623991
0.00357029
0.625021
0.0100007
0.626595
0.016381
0.628786
0.0228227
0.631098
0.0291095
0.633702
0.0358098
0.635483
0.0417576
0.638232
0.0488265
0.0517511
0.636382
-0.00240135
-0.636784
0.636789
0.00316335
0.638011
0.0087782
0.639981
0.0144112
0.642741
0.0200623
0.646237
0.0256137
0.650886
0.0311609
0.656394
0.0362499
0.663519
0.0417011
0.045235
0.64204
-0.00183083
-0.642611
0.642538
0.00266552
0.644151
0.00716527
0.646927
0.0116356
0.650941
0.016048
0.65619
0.0203646
0.662739
0.0246117
0.670307
0.0286817
0.67918
0.0328289
0.0360109
0.644298
-0.00137163
-0.644757
0.645013
0.00194983
0.646922
0.00525691
0.650032
0.00852532
0.654348
0.0117322
0.659858
0.0148545
0.666593
0.0178764
0.67452
0.0207547
0.683816
0.0235324
0.0258058
0.65085
-0.000941434
-0.651281
0.651554
0.00124595
0.653399
0.00341189
0.65639
0.00553438
0.66053
0.00759214
0.665819
0.00956537
0.672259
0.0114369
0.679825
0.0131889
0.688538
0.0148195
0.0161988
0.673902
-0.0005023
-0.674341
0.674544
0.000603626
0.676265
0.00169178
0.679051
0.00274799
0.682885
0.00375872
0.687738
0.00471141
0.693581
0.00559472
0.700371
0.00639864
0.708075
0.00711527
0.00771277
0.731178
-0.731681
0.731782
0.733474
0.736222
0.739981
0.744692
0.750287
0.756685
0.763801
0.466473
-0.00237556
-0.501689
0.487883
-0.0557686
0.502529
-0.0437937
0.511542
-0.0327139
0.521091
-0.0285543
0.53118
-0.0246617
0.540687
-0.0198161
0.549323
-0.0148555
0.557031
-0.00995103
-0.00496122
0.528539
-0.00886973
-0.522045
0.536145
-0.0633752
0.54652
-0.054168
0.55331
-0.0395044
0.55865
-0.0338937
0.564675
-0.0306866
0.570762
-0.0259039
0.576125
-0.0202185
0.580607
-0.014433
-0.00852594
0.581716
-0.0178688
-0.572717
0.584257
-0.0659155
0.588377
-0.0582886
0.592834
-0.0439613
0.595603
-0.036663
0.59788
-0.0329632
0.600297
-0.0283208
0.60243
-0.0223512
0.60398
-0.0159837
-0.00953155
0.633245
-0.0256195
-0.625495
0.629613
-0.0622836
0.627295
-0.0559704
0.627453
-0.0441187
0.627241
-0.0364519
0.626219
-0.0319406
0.625211
-0.0273127
0.624491
-0.0216309
0.623944
-0.0154368
-0.00916105
0.675197
-0.0308454
-0.669971
0.665755
-0.0528416
0.657878
-0.0480935
0.653385
-0.0396255
0.649913
-0.0329797
0.646245
-0.0282731
0.642758
-0.0238255
0.639967
-0.0188396
0.637987
-0.013457
-0.00795872
0.69733
-0.031014
-0.697161
0.685078
-0.0405894
0.67426
-0.037276
0.666585
-0.0319497
0.660685
-0.0270802
0.655419
-0.0230069
0.650729
-0.0191359
0.646948
-0.0150584
0.644243
-0.0107517
-0.00632671
0.702108
-0.0255532
-0.707569
0.690154
-0.0286351
0.679319
-0.0264408
0.67071
-0.0233412
0.663817
-0.0201865
0.657997
-0.0171869
0.653078
-0.0142172
0.649171
-0.0111514
0.646386
-0.00796633
-0.00469781
0.704791
-0.0174656
-0.712878
0.694372
-0.0182168
0.684825
-0.0168937
0.676667
-0.0151826
0.669805
-0.0133249
0.66403
-0.0114123
0.659258
-0.00944434
0.655511
-0.0074051
0.652841
-0.00529652
-0.003137
0.724209
-0.00884369
-0.732831
0.714981
-0.00898939
0.706466
-0.00837814
0.69889
-0.00760713
0.692303
-0.00673735
0.686694
-0.00580336
0.682066
-0.00481705
0.678446
-0.00378422
0.675862
-0.00271322
-0.00161608
0.782127
-0.79097
0.773137
0.764759
0.757152
0.750415
0.744611
0.739794
0.73601
0.733297
0.128531
0.0278262
-0.0292722
0.133038
0.0848417
-0.089349
0.141106
0.143764
-0.151832
0.153124
0.20788
-0.219898
0.170531
0.277223
-0.29463
0.193292
0.355386
-0.378147
0.2262
0.437843
-0.470751
0.263189
0.532986
-0.569976
0.351768
0.594221
-0.682799
0.700546
-0.850467
0.150215
0.0259271
0.15586
0.0791964
0.166041
0.133583
0.180709
0.193212
0.203009
0.254923
0.230202
0.328194
0.27591
0.392134
0.317711
0.491185
0.424639
0.487293
0.603141
0.175414
0.0235704
0.18226
0.07235
0.194974
0.12087
0.212413
0.175773
0.240912
0.226423
0.271927
0.297178
0.332513
0.331548
0.38288
0.440818
0.484287
0.385886
0.51471
0.204707
0.0207861
0.212672
0.0643849
0.228072
0.10547
0.247884
0.155961
0.282903
0.191404
0.316847
0.263234
0.386002
0.262394
0.446544
0.380276
0.533747
0.298684
0.422962
0.238725
0.0176077
0.247717
0.0553932
0.265478
0.0877091
0.287433
0.134006
0.326445
0.152392
0.365165
0.224514
0.429438
0.198121
0.50316
0.306554
0.571259
0.230585
0.324251
0.278112
0.0140703
0.288131
0.0453738
0.307034
0.0688065
0.33184
0.109201
0.369135
0.115097
0.415982
0.177667
0.465886
0.148217
0.547389
0.225052
0.603132
0.174841
0.230221
0.323649
0.0103368
0.334726
0.034297
0.353024
0.0505083
0.38101
0.0812146
0.412595
0.083512
0.464448
0.125814
0.503502
0.109162
0.579293
0.14926
0.630452
0.123683
0.153104
0.376559
0.00672795
0.38823
0.0226259
0.405212
0.0335268
0.433964
0.0524627
0.461535
0.0559402
0.509852
0.0774975
0.546001
0.0730133
0.606941
0.0883199
0.653219
0.0774057
0.0934445
0.438484
0.00336349
0.449898
0.0112121
0.466316
0.017109
0.49311
0.0256691
0.520253
0.0287965
0.560963
0.0367881
0.597093
0.0368831
0.644248
0.0411646
0.68445
0.0372038
0.0450638
0.51108
0.522292
0.539401
0.56507
0.593867
0.630655
0.667538
0.708703
0.745906
0.0717398
0.0280918
-0.0290874
0.073066
0.0854992
-0.0868254
0.0745966
0.144781
-0.146311
0.0760252
0.207882
-0.209311
0.0770315
0.275203
-0.276209
0.0771858
0.349646
-0.3498