/*--------------------------------*- C++ -*----------------------------------*\
| =========                 |                                                 |
| \\      /  F ield         | OpenFOAM: The Open Source CFD Toolbox           |
|  \\    /   O peration     | Version:  v1912                                 |
|   \\  /    A nd           | Website:  www.openfoam.com                      |
|    \\/     M anipulation  |                                                 |
\*---------------------------------------------------------------------------*/
FoamFile
{
    version     2.0;
    format      ascii;
    class       surfaceScalarField;
    location    "1";
    object      phi;
}
// * * * * * * * * * * * * * * * * * * * * * * * * * * * * * * * * * * * * * //

dimensions      [0 3 -1 0 0 0 0];
oriented        oriented;


internalField   nonuniform List<scalar> 
38030
(
-5.0251e-05
-0.322422
0.322472
-5.15665e-05
-0.303203
0.303204
-3.23621e-05
-0.284646
0.284627
-9.36322e-06
-0.267119
0.267096
3.38881e-05
-0.250405
0.250362
7.09994e-05
-0.234483
0.234446
0.00010739
-0.21931
0.219274
0.00013943
-0.204866
0.204834
0.000166107
-0.191144
0.191117
0.000187403
-0.178139
0.178118
0.000203733
-0.165846
0.16583
0.000215892
-0.154258
0.154246
0.000224982
-0.143363
0.143354
0.00023234
-0.133145
0.133138
0.00023947
-0.123587
0.12358
0.000248008
-0.114666
0.114658
0.000259664
-0.106357
0.106345
0.000276172
-0.0986303
0.0986138
0.000299247
-0.0914576
0.0914345
0.000330526
-0.0848074
0.0847761
0.000371525
-0.078648
0.078607
0.000423594
-0.0729475
0.0728955
0.000487886
-0.0676749
0.0676106
0.000565317
-0.0627996
0.0627222
0.000656558
-0.0582927
0.0582015
0.000762014
-0.0541268
0.0540213
0.000881818
-0.0502761
0.0501563
0.00101583
-0.0467168
0.0465828
0.00116363
-0.0434269
0.0432791
-0.0403861
0.0402252
0.00132461
-3.37699e-05
-0.322388
-3.20066e-05
-0.303204
-1.31037e-05
-0.284665
1.40718e-05
-0.267147
5.30369e-05
-0.250444
9.13825e-05
-0.234522
0.0001273
-0.219346
0.00015926
-0.204898
0.00018608
-0.191171
0.000207596
-0.178161
0.000224201
-0.165863
0.000236673
-0.15427
0.000246102
-0.143372
0.000253811
-0.133153
0.000261308
-0.123595
0.000270229
-0.114675
0.000282294
-0.106369
0.000299258
-0.0986472
0.000322853
-0.0914812
0.000354751
-0.0848393
0.000396501
-0.0786897
0.000449496
-0.0730005
0.000514927
-0.0677403
0.00059376
-0.0628784
0.000686705
-0.0583857
0.000794211
-0.0542343
0.000916454
-0.0503983
0.00105334
-0.0468537
0.00120449
-0.0435781
-0.0405509
0.00136929
-1.49694e-05
-0.322373
-1.37914e-05
-0.303206
4.48228e-06
-0.284684
3.33477e-05
-0.267175
7.10614e-05
-0.250482
0.000109842
-0.23456
0.00014595
-0.219382
0.000178038
-0.20493
0.000205069
-0.191198
0.00022683
-0.178182
0.000243699
-0.16588
0.000256455
-0.154283
0.000266181
-0.143382
0.000274202
-0.133161
0.000282022
-0.123603
0.000291282
-0.114684
0.00030371
-0.106381
0.000321077
-0.0986646
0.000345142
-0.0915053
0.000377602
-0.0848718
0.000420044
-0.0787322
0.000473901
-0.0730544
0.000540406
-0.0678068
0.000620567
-0.0629586
0.000715141
-0.0584803
0.000824616
-0.0543438
0.000949209
-0.0505229
0.00108886
-0.0469933
0.00124324
-0.0437325
-0.0407195
0.00141177
-8.44601e-06
-0.322365
-2.92285e-06
-0.303211
1.78172e-05
-0.284704
4.79483e-05
-0.267205
8.71461e-05
-0.250521
0.000126691
-0.2346
0.000163318
-0.219419
0.000195721
-0.204962
0.000223033
-0.191225
0.000245062
-0.178204
0.000262196
-0.165897
0.000275219
-0.154296
0.000285218
-0.143392
0.000293516
-0.133169
0.000301617
-0.123611
0.000311168
-0.114694
0.000323908
-0.106394
0.00034162
-0.0986823
0.000366088
-0.0915297
0.000399039
-0.0849047
0.000442096
-0.0787752
0.000496729
-0.073109
0.000564217
-0.0678743
0.000645611
-0.06304
0.000741708
-0.0585764
0.00085304
-0.0544551
0.000979863
-0.0506497
0.00112215
-0.0471356
0.00127961
-0.0438899
-0.0408916
0.0014517
-3.19172e-06
-0.322362
6.15731e-06
-0.30322
2.9451e-05
-0.284728
6.26532e-05
-0.267239
0.00010211
-0.250561
0.000142234
-0.23464
0.000179438
-0.219456
0.000212246
-0.204995
0.000239878
-0.191253
0.000262193
-0.178227
0.000279589
-0.165914
0.000292862
-0.154309
0.000303103
-0.143402
0.000311639
-0.133178
0.00031998
-0.123619
0.000329774
-0.114704
0.000342768
-0.106407
0.000360763
-0.0987003
0.000385563
-0.0915545
0.000418927
-0.0849381
0.000462511
-0.0788188
0.000517826
-0.0731643
0.000586194
-0.0679427
0.000668706
-0.0631225
0.000766204
-0.0586739
0.000879261
-0.0545682
0.00100816
-0.0507786
0.00115293
-0.0472804
0.00131328
-0.0440503
-0.041067
0.00148872
-2.75516e-07
-0.322361
1.26493e-05
-0.303233
3.89949e-05
-0.284754
7.56022e-05
-0.267275
0.000115622
-0.250601
0.000156375
-0.234681
0.000194254
-0.219494
0.000227559
-0.205028
0.000255565
-0.191281
0.00027818
-0.178249
0.000295832
-0.165932
0.000309334
-0.154323
0.000319787
-0.143412
0.000328522
-0.133187
0.000337053
-0.123628
0.000347033
-0.114714
0.000360219
-0.10642
0.000378426
-0.0987185
0.000403478
-0.0915796
0.000437164
-0.0849718
0.000481176
-0.0788628
0.000537064
-0.0732202
0.000606192
-0.0680118
0.000689696
-0.063206
0.000788457
-0.0587726
0.000903084
-0.0546828
0.0010339
-0.0509094
0.00118095
-0.0474274
0.00134399
-0.0442133
-0.0412455
0.00152252
2.02179e-06
-0.322363
1.79294e-05
-0.303249
4.70662e-05
-0.284783
8.59248e-05
-0.267314
0.000127513
-0.250642
0.00016918
-0.234723
0.000207807
-0.219533
0.000241665
-0.205062
0.00027007
-0.191309
0.000292986
-0.178272
0.000310878
-0.16595
0.000324579
-0.154337
0.000335205
-0.143423
0.000344094
-0.133196
0.000352762
-0.123636
0.000362867
-0.114724
0.000376173
-0.106433
0.000394512
-0.0987369
0.000419729
-0.0916048
0.000453638
-0.0850057
0.000497969
-0.0789071
0.000554312
-0.0732766
0.000624072
-0.0680815
0.000708428
-0.0632904
0.000808302
-0.0588725
0.00092434
-0.0547988
0.0010569
-0.051042
0.00120604
-0.0475765
0.00137155
-0.0443788
-0.0414269
0.0015529
3.69199e-06
-0.322367
2.21247e-05
-0.303268
5.37974e-05
-0.284815
9.46025e-05
-0.267355
0.000137944
-0.250686
0.000180737
-0.234765
0.000220163
-0.219572
0.000254594
-0.205097
0.000283399
-0.191338
0.0003066
-0.178295
0.000324703
-0.165968
0.000338565
-0.154351
0.000349315
-0.143434
0.0003583
-0.133205
0.000367042
-0.123645
0.000377202
-0.114734
0.000390551
-0.106447
0.000408933
-0.0987552
0.000434215
-0.0916301
0.00046824
-0.0850397
0.000512771
-0.0789517
0.00056944
-0.0733332
0.000639695
-0.0681518
0.000724758
-0.0633754
0.000825593
-0.0589733
0.000942881
-0.0549161
0.00107701
-0.0511761
0.00122807
-0.0477276
0.00139584
-0.0445466
-0.0416109
0.00157983
5.05314e-06
-0.322372
2.56383e-05
-0.303288
5.95779e-05
-0.284849
0.000102219
-0.267398
0.000147223
-0.250731
0.000191182
-0.234809
0.00023141
-0.219612
0.000266396
-0.205132
0.000295574
-0.191367
0.000319024
-0.178319
0.000337291
-0.165986
0.000351259
-0.154365
0.000362075
-0.143445
0.000371092
-0.133214
0.000379834
-0.123654
0.000389967
-0.114744
0.000403271
-0.10646
0.000421598
-0.0987736
0.000446837
-0.0916553
0.000480858
-0.0850737
0.000525461
-0.0789963
0.00058232
-0.0733901
0.000652926
-0.0682224
0.000738547
-0.0634611
0.000840187
-0.059075
0.000958566
-0.0550345
0.0010941
-0.0513117
0.00124691
-0.0478804
0.00141679
-0.0447165
-0.0417974
0.00160326
6.15005e-06
-0.322378
2.86154e-05
-0.303311
6.46087e-05
-0.284885
0.000109005
-0.267442
0.000155565
-0.250777
0.000200643
-0.234854
0.000241635
-0.219653
0.000277129
-0.205167
0.000306626
-0.191396
0.000330268
-0.178343
0.000348638
-0.166005
0.000362646
-0.154379
0.000373455
-0.143455
0.000382423
-0.133222
0.000391081
-0.123662
0.000401097
-0.114754
0.000414253
-0.106473
0.000432417
-0.0987917
0.000457492
-0.0916804
0.000491379
-0.0851076
0.000535915
-0.0790408
0.000592815
-0.073447
0.000663621
-0.0682932
0.000749644
-0.0635471
0.000851934
-0.0591773
0.000971248
-0.0551538
0.00110804
-0.0514485
0.00126244
-0.0480348
0.00143428
-0.0448883
-0.0419862
0.00162309
7.0627e-06
-0.322385
3.11968e-05
-0.303335
6.90823e-05
-0.284923
0.000115145
-0.267488
0.000163136
-0.250825
0.000209243
-0.2349
0.000250925
-0.219695
0.000286848
-0.205203
0.000316594
-0.191426
0.000340353
-0.178366
0.000358746
-0.166023
0.000372712
-0.154392
0.000383424
-0.143466
0.000392254
-0.133231
0.00040073
-0.123671
0.000410524
-0.114764
0.000423422
-0.106486
0.000441297
-0.0988096
0.000466076
-0.0917052
0.000499686
-0.0851412
0.000544
-0.0790851
0.000600783
-0.0735038
0.000671623
-0.068364
0.000757885
-0.0636333
0.000860665
-0.05928
0.000980761
-0.0552739
0.00111865
-0.0515863
0.00127451
-0.0481907
0.00144818
-0.045062
-0.0421772
0.0016392
7.82262e-06
-0.322393
3.34614e-05
-0.303361
7.31189e-05
-0.284962
0.000120756
-0.267536
0.000170059
-0.250874
0.000217089
-0.234947
0.000259357
-0.219737
0.000295619
-0.205239
0.00032552
-0.191456
0.000349303
-0.17839
0.000367625
-0.166041
0.00038145
-0.154406
0.000391966
-0.143477
0.00040055
-0.13324
0.000408733
-0.123679
0.000418187
-0.114773
0.000430697
-0.106498
0.000448148
-0.0988271
0.000472482
-0.0917295
0.000505652
-0.0851744
0.000549576
-0.0791291
0.000606063
-0.0735603
0.00067676
-0.0684347
0.000763085
-0.0637197
0.000866187
-0.0593831
0.000986907
-0.0553946
0.00112576
-0.0517252
0.00128294
-0.0483478
0.0014583
-0.0452373
-0.0423703
0.00165141
8.44694e-06
-0.322402
3.54854e-05
-0.303388
7.68169e-05
-0.285004
0.000125944
-0.267585
0.000176436
-0.250925
0.000224268
-0.234995
0.000267011
-0.21978
0.000303502
-0.205276
0.000333451
-0.191486
0.000357148
-0.178414
0.000375291
-0.16606
0.000388863
-0.15442
0.000399066
-0.143487
0.000407282
-0.133248
0.000415045
-0.123687
0.000424023
-0.114782
0.000436004
-0.10651
0.000452876
-0.0988439
0.000476596
-0.0917532
0.000509148
-0.0852069
0.000552488
-0.0791724
0.000608482
-0.0736163
0.000678834
-0.0685051
0.000765028
-0.0638059
0.000868268
-0.0594864
0.000989446
-0.0555158
0.00112911
-0.0518649
0.00128748
-0.0485062
0.00146444
-0.0454143
-0.0425654
0.00165953
8.95069e-06
-0.322411
3.73123e-05
-0.303416
8.0259e-05
-0.285046
0.000130794
-0.267635
0.000182362
-0.250977
0.000230869
-0.235044
0.000273963
-0.219823
0.00031056
-0.205312
0.000340433
-0.191516
0.000363926
-0.178437
0.000381765
-0.166077
0.000394956
-0.154433
0.000404716
-0.143497
0.000412429
-0.133256
0.000419628
-0.123694
0.000427979
-0.114791
0.000439268
-0.106522
0.000455386
-0.09886
0.000478304
-0.0917761
0.000510034
-0.0852387
0.000552573
-0.0792149
0.000607845
-0.0736715
0.000677623
-0.0685749
0.000763461
-0.0638917
0.000866631
-0.0595895
0.000988082
-0.0556372
0.00112841
-0.0520052
0.00128784
-0.0486657
0.00146628
-0.0455927
-0.0427624
0.00166328
9.33956e-06
-0.32242
3.89943e-05
-0.303446
8.35213e-05
-0.285091
0.000135389
-0.267687
0.000187925
-0.251029
0.000236977
-0.235093
0.000280288
-0.219866
0.000316859
-0.205349
0.000346527
-0.191546
0.00036968
-0.17846
0.000387079
-0.166095
0.00039975
-0.154446
0.000408917
-0.143506
0.000415973
-0.133263
0.000422449
-0.123701
0.000430004
-0.114798
0.00044042
-0.106532
0.000455588
-0.0988752
0.000477489
-0.091798
0.000508163
-0.0852693
0.000549651
-0.0792564
0.000603938
-0.0737258
0.000672873
-0.0686438
0.000758092
-0.0639769
0.000860948
-0.0596924
0.000982455
-0.0557588
0.00112326
-0.052146
0.00128363
-0.048826
0.00146346
-0.0457726
-0.0429612
0.00166229
9.62098e-06
-0.322429
4.0583e-05
-0.303477
8.6686e-05
-0.285137
0.000139827
-0.26774
0.000193213
-0.251082
0.00024268
-0.235142
0.000286071
-0.21991
0.000322475
-0.205385
0.000351795
-0.191575
0.000374464
-0.178483
0.000391272
-0.166112
0.000403265
-0.154458
0.000411683
-0.143514
0.000417914
-0.133269
0.000423488
-0.123706
0.000430059
-0.114805
0.000439398
-0.106541
0.000453394
-0.0988892
0.000474037
-0.0918187
0.000503388
-0.0852987
0.000543536
-0.0792966
0.000596529
-0.0737788
0.000664303
-0.0687116
0.000748586
-0.0640612
0.000850829
-0.0597946
0.000972129
-0.0558801
0.00111319
-0.0522871
0.00127433
-0.0489872
0.00145544
-0.0459537
-0.0431618
0.00165605
9.79919e-06
-0.322439
4.21375e-05
-0.303509
8.985e-05
-0.285185
0.000144202
-0.267795
0.00019833
-0.251137
0.000248074
-0.235192
0.000291399
-0.219953
0.00032749
-0.205421
0.000356312
-0.191604
0.00037834
-0.178505
0.000394397
-0.166128
0.000405547
-0.154469
0.000413036
-0.143522
0.000418259
-0.133274
0.000422738
-0.123711
0.000428114
-0.11481
0.000436151
-0.10655
0.00044873
-0.0989018
0.000467841
-0.0918378
0.000495566
-0.0853264
0.000534038
-0.079335
0.000585374
-0.0738302
0.000651603
-0.0687778
0.000734565
-0.0641442
0.000835822
-0.0598959
0.000956578
-0.0560008
0.00109762
-0.0524281
0.00125931
-0.0491488
0.00144157
-0.0461359
-0.0433642
0.00164389
9.88848e-06
-0.322449
4.37375e-05
-0.303543
9.31218e-05
-0.285234
0.000148636
-0.26785
0.000203391
-0.251191
0.000253273
-0.235242
0.000296381
-0.219996
0.000332
-0.205457
0.000360161
-0.191632
0.000381383
-0.178526
0.000396517
-0.166143
0.000406645
-0.154479
0.00041302
-0.143528
0.000417036
-0.133278
0.000420207
-0.123714
0.000424165
-0.114814
0.000430653
-0.106556
0.00044154
-0.0989127
0.000458813
-0.0918551
0.000484566
-0.0853522
0.000520974
-0.0793714
0.000570226
-0.0738794
0.00063445
-0.068842
0.000715613
-0.0642253
0.000815414
-0.0599957
0.000935189
-0.0561206
0.00107584
-0.0525688
0.00123778
-0.0493108
0.00142098
-0.0463191
-0.0435681
0.00162491
9.92334e-06
-0.322459
4.54975e-05
-0.303578
9.66519e-05
-0.285285
0.000153267
-0.267907
0.00020853
-0.251247
0.000258399
-0.235292
0.000301131
-0.220039
0.000336115
-0.205492
0.000363443
-0.191659
0.000383682
-0.178547
0.000397712
-0.166157
0.000406629
-0.154488
0.000411692
-0.143533
0.000414293
-0.133281
0.000415933
-0.123715
0.000418227
-0.114816
0.000422899
-0.106561
0.000431796
-0.0989216
0.000446891
-0.0918702
0.000470286
-0.0853756
0.000504187
-0.0794053
0.000550852
-0.0739261
0.00061252
-0.0689037
0.000691296
-0.0643041
0.000789043
-0.0600935
0.00090726
-0.0562388
0.00104699
-0.0527085
0.00120877
-0.0494726
0.0013926
-0.046503
-0.0437734
0.00159795
9.95405e-06
-0.322469
4.75612e-05
-0.303616
0.00010062
-0.285338
0.000158269
-0.267965
0.000213905
-0.251302
0.000263604
-0.235342
0.000305786
-0.220081
0.000339953
-0.205526
0.000366267
-0.191686
0.000385339
-0.178566
0.000398075
-0.16617
0.000405586
-0.154495
0.000409134
-0.143537
0.000410102
-0.133282
0.000409978
-0.123715
0.000410354
-0.114817
0.000412927
-0.106563
0.000419513
-0.0989282
0.000432063
-0.0918827
0.000452669
-0.0853962
0.00048356
-0.0794362
0.000527059
-0.0739696
0.000585512
-0.0689622
0.000661181
-0.0643798
0.000756118
-0.0601884
0.000872022
-0.0563547
0.00101013
-0.0528466
0.00117112
-0.0496336
0.0013551
-0.0466869
-0.0439799
0.00156154
1.0078e-05
-0.322479
5.01348e-05
-0.303656
0.000105265
-0.285394
0.000163858
-0.268023
0.000219706
-0.251358
0.000269058
-0.235391
0.000310498
-0.220122
0.000343656
-0.205559
0.000368761
-0.191711
0.00038647
-0.178583
0.000397718
-0.166181
0.000403623
-0.154501
0.000405448
-0.143539
0.000404563
-0.133281
0.000402439
-0.123713
0.000400637
-0.114815
0.000400821
-0.106563
0.000404762
-0.0989321
0.000414377
-0.0918923
0.000431731
-0.0854135
0.000459057
-0.0794636
0.000498728
-0.0740092
0.000553197
-0.0690166
0.000624889
-0.0644515
0.000716068
-0.0602796
0.000828676
-0.0564673
0.000964186
-0.0529821
0.0011235
-0.0497929
0.0013069
-0.0468703
-0.0441869
0.0015139
1.04616e-05
-0.32249
5.34989e-05
-0.303699
0.000110915
-0.285451
0.000170306
-0.268082
0.000226159
-0.251414
0.000274956
-0.23544
0.000315438
-0.220163
0.000347367
-0.205591
0.000371055
-0.191734
0.000387199
-0.1786
0.000396758
-0.16619
0.000400862
-0.154505
0.000400761
-0.143538
0.000397811
-0.133278
0.000393455
-0.123709
0.000389221
-0.114811
0.000386726
-0.106561
0.000387691
-0.0989331
0.000393971
-0.0918986
0.000407586
-0.0854271
0.00043075
-0.0794867
0.000465861
-0.0740444
0.000515464
-0.0690662
0.000582148
-0.0645181
0.000668408
-0.0603658
0.000776466
-0.0565754
0.000908092
-0.0531137
0.00106447
-0.0499492
0.00124614
-0.047052
-0.0443936
0.00145282
1.14281e-05
-0.322501
5.80994e-05
-0.303746
0.000118002
-0.285511
0.000177968
-0.268142
0.000233534
-0.25147
0.000281519
-0.235488
0.000320786
-0.220202
0.000351245
-0.205622
0.000373286
-0.191756
0.000387655
-0.178614
0.000395328
-0.166198
0.000397436
-0.154508
0.000395217
-0.143536
0.000390004
-0.133273
0.000383206
-0.123702
0.000376305
-0.114804
0.000370863
-0.106556
0.000368533
-0.0989307
0.000371093
-0.0919012
0.000380486
-0.0854365
0.000398873
-0.0795051
0.000428642
-0.0740741
0.0004724
-0.06911
0.000532887
-0.0645786
0.000612837
-0.0604458
0.000714781
-0.0566773
0.000840837
-0.0532398
0.000992531
-0.0501009
0.00117073
-0.0472302
-0.0445983
0.00137551
1.35577e-05
-0.322515
6.46046e-05
-0.303797
0.000127055
-0.285573
0.000187287
-0.268203
0.000242142
-0.251524
0.00028898
-0.235535
0.000326721
-0.22024
0.000355427
-0.20565
0.000375579
-0.191777
0.000387956
-0.178626
0.000393552
-0.166204
0.000393488
-0.154507
0.000388983
-0.143532
0.000381334
-0.133265
0.000371911
-0.123693
0.000362145
-0.114794
0.000353529
-0.106547
0.000347631
-0.0989248
0.000346128
-0.0918997
0.000350855
-0.0854413
0.00036387
-0.0795181
0.000387506
-0.0740978
0.00042438
-0.0691469
0.000477349
-0.0646316
0.000549376
-0.0605178
0.000643322
-0.0567713
0.000761687
-0.0533582
0.000906384
-0.0502456
0.00107865
-0.0474025
-0.0447985
0.00127883
1.7754e-05
-0.322532
7.38376e-05
-0.303853
0.000138698
-0.285638
0.000198784
-0.268263
0.000252281
-0.251578
0.000297534
-0.23558
0.000333402
-0.220276
0.000360045
-0.205677
0.000378047
-0.191795
0.00038822
-0.178636
0.000391556
-0.166207
0.000389162
-0.154505
0.000382228
-0.143525
0.000372011
-0.133255
0.00035983
-0.12368
0.000347055
-0.114781
0.000335101
-0.106535
0.000325437
-0.0989152
0.000319612
-0.0918938
0.000319315
-0.085441
0.000326451
-0.0795253
0.000343221
-0.0741145
0.000372183
-0.0691758
0.000416246
-0.0646757
0.000478565
-0.0605801
0.000562333
-0.056855
0.000670481
-0.0534663
0.000805388
-0.0503805
0.00096876
-0.0475659
-0.044991
0.00116127
2.49732e-05
-0.322557
8.64158e-05
-0.303914
0.000153955
-0.285706
0.000212927
-0.268322
0.000264188
-0.251629
0.000307339
-0.235623
0.000340965
-0.220309
0.00036522
-0.205701
0.0003808
-0.19181
0.000388549
-0.178644
0.000389456
-0.166208
0.000384602
-0.1545
0.000375135
-0.143515
0.000362266
-0.133242
0.000347253
-0.123665
0.0003314
-0.114766
0.000316037
-0.10652
0.000302517
-0.0989017
0.000292246
-0.0918836
0.000286722
-0.0854354
0.000287635
-0.0795262
0.000296971
-0.0741239
0.000317121
-0.069196
0.000350936
-0.0647095
0.000401678
-0.0606309
0.000472835
-0.0569262
0.000567786
-0.0535613
0.000689457
-0.0505022
0.000840265
-0.0477167
-0.0451723
0.0010215
3.6175e-05
-0.322593
0.000102754
-0.303981
0.000170769
-0.285774
0.000229872
-0.268381
0.000278172
-0.251677
0.000318586
-0.235663
0.000349519
-0.22034
0.00037101
-0.205723
0.000383872
-0.191823
0.000388989
-0.178649
0.000387323
-0.166206
0.000379916
-0.154493
0.000367865
-0.143503
0.00035232
-0.133227
0.000334481
-0.123648
0.000315577
-0.114747
0.000296848
-0.106501
0.000279534
-0.0988843
0.000264874
-0.0918689
0.000254149
-0.0854247
0.000248772
-0.0795208
0.000250411
-0.0741255
0.000261153
-0.0692067
0.000283626
-0.0647319
0.000321039
-0.0606683
0.00037705
-0.0569822
0.00045541
-0.0536396
0.000559514
-0.0506063
0.000692681
-0.0478498
-0.0453378
0.00085827
5.44994e-05
-0.322648
0.000125799
-0.304052
0.000191247
-0.285839
0.000250242
-0.26844
0.000294886
-0.251722
0.000331503
-0.2357
0.000359005
-0.220368
0.000377269
-0.205741
0.000387116
-0.191833
0.000389422
-0.178652
0.000385094
-0.166202
0.000375103
-0.154483
0.000360485
-0.143489
0.000342325
-0.133208
0.000321758
-0.123627
0.000299944
-0.114725
0.000278041
-0.106479
0.000257174
-0.0988635
0.000238422
-0.0918502
0.000222835
-0.0854091
0.000211498
-0.0795095
0.000205666
-0.0741197
0.00020695
-0.069208
0.000217525
-0.0647425
0.00024027
-0.060691
0.000278741
-0.0570207
0.000336803
-0.0536977
0.000417721
-0.0506872
0.000524261
-0.0479564
-0.0454788
0.000665222
9.18938e-05
-0.32274
0.000163801
-0.304124
0.000218646
-0.285894
0.000275592
-0.268497
0.000314967
-0.251761
0.000345852
-0.235731
0.000368926
-0.220391
0.00038354
-0.205756
0.000390176
-0.191839
0.000389585
-0.178651
0.000382578
-0.166195
0.000370044
-0.15447
0.000352945
-0.143472
0.000332307
-0.133188
0.000309205
-0.123604
0.000284739
-0.1147
0.000260002
-0.106454
0.00023603
-0.0988395
0.000213764
-0.0918279
0.000194041
-0.0853894
0.00017762
-0.079493
0.00016528
-0.0741073
0.000158003
-0.0692007
0.000157232
-0.0647418
0.000165113
-0.0606989
0.000184623
-0.0570402
0.000219281
-0.0537323
0.000271352
-0.0507393
0.000338452
-0.0480235
-0.0455648
0.000424465
0.00017302
-0.322913
0.000223657
-0.304175
0.000249104
-0.285919
0.000310439
-0.268558
0.000336441
-0.251787
0.000360496
-0.235755
0.000378661
-0.220409
0.000389495
-0.205767
0.000392905
-0.191843
0.000389419
-0.178648
0.000379764
-0.166185
0.000364755
-0.154455
0.00034529
-0.143452
0.000322343
-0.133165
0.000296942
-0.123578
0.000270151
-0.114674
0.000243025
-0.106427
0.000216549
-0.098813
0.000191591
-0.0918029
0.000168849
-0.0853667
0.000148834
-0.079473
0.000131918
-0.0740904
0.000118465
-0.0691873
0.000109082
-0.0647324
0.000104978
-0.0606948
0.00010833
-0.0570435
0.000122445
-0.0537464
0.000149316
-0.0507662
0.000176964
-0.0480511
-0.0455447
0.000156874
0.323254
0.000105356
-0.323359
0.323196
5.79158e-05
0.32316
3.62336e-05
0.323134
2.60223e-05
0.323114
2.02402e-05
0.323097
1.69224e-05
0.323081
1.53885e-05
0.323066
1.50148e-05
0.323051
1.5251e-05
0.323035
1.5759e-05
0.323019
1.63474e-05
0.323002
1.69149e-05
0.322985
1.7413e-05
0.322967
1.78056e-05
0.322949
1.80801e-05
0.32293
1.82244e-05
0.322912
1.82336e-05
0.322894
1.81001e-05
0.322876
1.78036e-05
0.322859
1.73303e-05
0.322842
1.66388e-05
0.322827
1.56831e-05
0.322812
1.43283e-05
0.3228
1.24926e-05
0.32279
9.63637e-06
0.322784
5.74333e-06
0.322787
-2.16934e-06
0.322799
-1.23512e-05
0.322842
-4.34532e-05
-7.04836e-05
0.305057
0.000123392
-0.305075
0.305025
8.98065e-05
0.304992
6.94011e-05
0.304959
5.86304e-05
0.304927
5.23437e-05
0.304895
4.84234e-05
0.304864
4.63338e-05
0.304834
4.56637e-05
0.304803
4.59337e-05
0.304772
4.67385e-05
0.304741
4.78217e-05
0.304708
4.90154e-05
0.304676
5.01942e-05
0.304642
5.12789e-05
0.304608
5.22006e-05
0.304573
5.29056e-05
0.304538
5.33519e-05
0.304503
5.34983e-05
0.304467
5.32889e-05
0.304432
5.26689e-05
0.304397
5.15421e-05
0.304363
4.9802e-05
0.30433
4.72146e-05
0.304299
4.35688e-05
0.304271
3.81788e-05
0.304245
3.08069e-05
0.304224
1.8974e-05
0.304208
3.72681e-06
0.304189
-2.45384e-05
-5.5805e-05
0.286862
0.000112554
-0.286852
0.286857
9.48289e-05
0.286844
8.23189e-05
0.286828
7.53342e-05
0.286808
7.17597e-05
0.286787
7.01471e-05
0.286763
7.00095e-05
0.286738
7.10503e-05
0.286711
7.29351e-05
0.286682
7.53365e-05
0.286652
7.80003e-05
0.28662
8.07455e-05
0.286587
8.3436e-05
0.286552
8.59591e-05
0.286516
8.82268e-05
0.286479
9.01632e-05
0.28644
9.16964e-05
0.286401
9.27646e-05
0.286361
9.3284e-05
0.286321
9.31693e-05
0.28628
9.22993e-05
0.286239
9.05212e-05
0.286199
8.75817e-05
0.286159
8.3214e-05
0.286121
7.68029e-05
0.286083
6.79872e-05
0.286047
5.52522e-05
0.286012
3.91232e-05
0.28597
1.70126e-05
-5.08784e-06
0.269273
8.58999e-05
-0.269247
0.26929
7.80387e-05
0.269299
7.30213e-05
0.269303
7.14279e-05
0.269303
7.23325e-05
0.269298
7.47719e-05
0.26929
7.83471e-05
0.269278
8.27476e-05
0.269263
8.76972e-05
0.269246
9.29467e-05
0.269225
9.82883e-05
0.269203
0.000103559
0.269177
0.000108625
0.26915
0.000113378
0.26912
0.000117731
0.269089
0.000121594
0.269056
0.000124897
0.269021
0.000127555
0.268985
0.000129485
0.268947
0.000130588
0.268909
0.000130737
0.26887
0.000129784
0.26883
0.000127499
0.268789
0.000123645
0.268748
0.000117742
0.268707
0.000109433
0.268665
9.74129e-05
0.268623
8.06342e-05
0.268587
5.28569e-05
2.41972e-05
0.252273
4.2281e-05
-0.25223
0.252307
4.43037e-05
0.252333
4.72851e-05
0.252352
5.19403e-05
0.252367
5.78776e-05
0.252377
6.46852e-05
0.252383
7.22666e-05
0.252385
8.03659e-05
0.252384
8.8806e-05
0.25238
9.73815e-05
0.252372
0.000105907
0.252361
0.000114218
0.252348
0.000122178
0.252332
0.000129673
0.252313
0.000136611
0.252291
0.000142909
0.252268
0.000148476
0.252242
0.000153228
0.252215
0.000157074
0.252185
0.000159915
0.252154
0.000161625
0.252122
0.00016206
0.252088
0.000161025
0.252054
0.00015829
0.252018
0.000153486
0.251981
0.000146239
0.251943
0.000135783
0.251902
0.000121834
0.25185
0.000104236
8.7094e-05
0.235941
-1.31139e-05
-0.235886
0.235987
-1.83708e-06
0.236027
7.49869e-06
0.236061
1.83566e-05
0.236089
2.95038e-05
0.236113
4.09884e-05
0.236132
5.30996e-05
0.236147
6.52236e-05
0.236158
7.74554e-05
0.236166
8.96387e-05
0.23617
0.000101636
0.236171
0.00011328
0.236169
0.000124416
0.236164
0.000134933
0.236156
0.000144744
0.236145
0.000153758
0.236131
0.000161884
0.236116
0.000169037
0.236098
0.000175132
0.236077
0.000180067
0.236055
0.000183732
0.236031
0.000186003
0.236006
0.000186723
0.235978
0.000185714
0.235949
0.000182743
0.235918
0.000177611
0.235883
0.000170042
0.235845
0.000160122
0.235801
0.000147796
0.000133659
0.220326
-6.98949e-05
-0.220269
0.220378
-5.39096e-05
0.220424
-3.83745e-05
0.220466
-2.35243e-05
0.220506
-1.03049e-05
0.220542
5.19543e-06
0.220572
2.28889e-05
0.220598
3.92195e-05
0.22062
5.5531e-05
0.220638
7.14274e-05
0.220653
8.69564e-05
0.220664
0.00010202
0.220672
0.000116417
0.220677
0.000130058
0.220679
0.000142859
0.220678
0.000154711
0.220674
0.000165534
0.220668
0.000175242
0.220659
0.000183757
0.220648
0.000190984
0.220635
0.000196834
0.22062
0.000201205
0.220603
0.000203987
0.220583
0.000205064
0.220562
0.000204306
0.220538
0.00020162
0.220511
0.000196908
0.220481
0.000190221
0.220447
0.000181633
0.000171545
0.205445
-0.00013443
-0.20538
0.205505
-0.000113916
0.20556
-9.36393e-05
0.20561
-7.37306e-05
0.205654
-5.39115e-05
0.205693
-3.39655e-05
0.205732
-1.54584e-05
0.205768
2.68913e-06
0.205799
2.46473e-05
0.205826
4.4307e-05
0.205849
6.36048e-05
0.205869
8.21041e-05
0.205886
9.97194e-05
0.2059
0.000116476
0.20591
0.000132273
0.205918
0.000146978
0.205923
0.000160515
0.205925
0.000172816
0.205925
0.0001838
0.205923
0.000193389
0.205918
0.000201506
0.205911
0.000208085
0.205902
0.000213047
0.205891
0.000216332
0.205878
0.000217881
0.205861
0.000217663
0.205843
0.000215684
0.205821
0.000212033
0.205796
0.000206911
0.000200583
0.191311
-0.000204571
-0.191241
0.191377
-0.000179471
0.191438
-0.00015457
0.191494
-0.000130017
0.191546
-0.0001058
0.191594
-8.18712e-05
0.191636
-5.8188e-05
0.191674
-3.48477e-05
0.191712
-1.34428e-05
0.191749
7.72397e-06
0.191779
3.29933e-05
0.191807
5.47542e-05
0.191831
7.55864e-05
0.191852
9.5444e-05
0.19187
0.00011421
0.191885
0.000131724
0.191898
0.000147944
0.191908
0.000162818
0.191915
0.00017626
0.19192
0.000188202
0.191923
0.00019859
0.191924
0.000207379
0.191923
0.000214529
0.191919
0.000220016
0.191913
0.000223838
0.191905
0.000226018
0.191894
0.000226633
0.19188
0.000225799
0.191863
0.000223755
0.000220662
0.177928
-0.000279231
-0.177853
0.177998
-0.000249784
0.178064
-0.000220621
0.178126
-0.000191891
0.178184
-0.000163562
0.178238
-0.000135567
0.178287
-0.000107962
0.178333
-8.09689e-05
0.178375
-5.45643e-05
0.178411
-2.89699e-05
0.178451
-6.62196e-06
0.178485
2.03505e-05
0.178516
4.47477e-05
0.178544
6.78342e-05
0.178568
8.9571e-05
0.17859
0.000109858
0.178609
0.000128733
0.178626
0.000146157
0.17864
0.000162027
0.178652
0.000176286
0.178662
0.000188908
0.178669
0.000199869
0.178675
0.000209153
0.178678
0.000216774
0.178679
0.000222772
0.178678
0.000227218
0.178674
0.000230231
0.178668
0.000231955
0.178659
0.000232643
0.000232415
0.165294
-0.000358399
-0.165215
0.165369
-0.000324858
0.16544
-0.000291675
0.165507
-0.000258967
0.16557
-0.000226695
0.16563
-0.000194854
0.165685
-0.000163514
0.165737
-0.000132792
0.165785
-0.00010277
0.16583
-7.36645e-05
0.165869
-4.53886e-05
0.165908
-1.86004e-05
0.165947
5.61799e-06
0.16598
3.44302e-05
0.166011
5.89857e-05
0.166038
8.20618e-05
0.166064
0.000103598
0.166086
0.000123576
0.166106
0.000141856
0.166124
0.000158403
0.16614
0.00017322
0.166154
0.000186302
0.166165
0.00019765
0.166174
0.000207309
0.166182
0.000215359
0.166187
0.000221909
0.16619
0.00022712
0.166191
0.000231157
0.166189
0.000234301
0.000236648
0.153405
-0.000442526
-0.153321
0.153485
-0.000405038
0.153562
-0.000367948
0.153634
-0.000331362
0.153703
-0.000295251
0.153767
-0.000259639
0.153828
-0.000224604
0.153886
-0.000190251
0.15394
-0.000156683
0.15399
-0.000124005
0.154037
-9.23657e-05
0.15408
-6.17944e-05
0.154118
-3.25272e-05
0.15416
-6.84062e-06
0.154196
2.26044e-05
0.154229
4.87693e-05
0.15426
7.31033e-05
0.154288
9.57001e-05
0.154313
0.000116417
0.154336
0.000135248
0.154357
0.00015225
0.154376
0.000167416
0.154393
0.000180766
0.154408
0.00019237
0.154421
0.000202346
0.154432
0.000210839
0.154441
0.000218055
0.154448
0.000224189
0.154453
0.00022955
0.000234238
0.142255
-0.000532244
-0.142165
0.142341
-0.000490836
0.142423
-0.000449848
0.142501
-0.00040938
0.142575
-0.00036942
0.142645
-0.000330012
0.142712
-0.000291245
0.142775
-0.000253227
0.142834
-0.000216064
0.14289
-0.000179862
0.142943
-0.000144759
0.142992
-0.000110799
0.143037
-7.82926e-05
0.143078
-4.71922e-05
0.143118
-1.79719e-05
0.143158
8.91222e-06
0.143193
3.79063e-05
0.143226
6.31653e-05
0.143256
8.63885e-05
0.143284
0.000107542
0.143309
0.000126754
0.143332
0.000144004
0.143354
0.000159312
0.143374
0.000172779
0.143391
0.000184566
0.143407
0.000194854
0.143421
0.000203892
0.143434
0.000211923
0.143444
0.0002193
0.000226139
0.131835
-0.000628163
-0.131739
0.131927
-0.000582747
0.132015
-0.000537759
0.132099
-0.000493301
0.132179
-0.000449372
0.132255
-0.000406043
0.132327
-0.000363415
0.132396
-0.000321598
0.13246
-0.000280708
0.132521
-0.000240853
0.132579
-0.000202166
0.132633
-0.000164741
0.132683
-0.000128749
0.13273
-9.43035e-05
0.132774
-6.14261e-05
0.132813
-3.03356e-05
0.132854
-3.71618e-06
0.132891
2.671e-05
0.132925
5.24853e-05
0.132956
7.60739e-05
0.132985
9.75781e-05
0.133013
0.000116953
0.133038
0.000134206
0.133061
0.00014948
0.133083
0.000162972
0.133102
0.000174914
0.133121
0.000185603
0.133137
0.000195342
0.133152
0.000204546
0.000213377
0.122135
-0.000730708
-0.122033
0.122234
-0.000681082
0.122328