/*--------------------------------*- C++ -*----------------------------------*\
  =========                 |
  \\      /  F ield         | OpenFOAM: The Open Source CFD Toolbox
   \\    /   O peration     | Website:  https://openfoam.org
    \\  /    A nd           | Version:  6.0
     \\/     M anipulation  |
\*---------------------------------------------------------------------------*/
FoamFile
{
    version     2.0;
    format      ascii;
    class       volVectorField;
    location    "4.76";
    object      U;
}
// * * * * * * * * * * * * * * * * * * * * * * * * * * * * * * * * * * * * * //

dimensions      [0 1 -1 0 0 0 0];

internalField   nonuniform List<vector> 
2400
(
(0.017661 -0.425333 -1.29781e-20)
(0.00581439 -0.318066 5.78955e-21)
(-0.00212509 -0.239264 -6.46043e-21)
(-0.0070092 -0.181714 -4.22219e-21)
(-0.00903784 -0.139818 -7.30695e-21)
(-0.0084387 -0.109313 1.01338e-20)
(-0.00574788 -0.0870188 4.10941e-21)
(-0.00154267 -0.0705812 3.89834e-21)
(0.00364571 -0.0582656 -9.06596e-21)
(0.0087435 -0.0488236 -7.2225e-22)
(0.0507983 -0.419622 1.45815e-20)
(0.0315427 -0.3121 -1.48196e-21)
(0.0198006 -0.234951 3.08693e-21)
(0.0136243 -0.179946 3.97699e-20)
(0.0120959 -0.14085 -3.04181e-20)
(0.0144839 -0.112993 -1.51904e-21)
(0.0198746 -0.0929316 -3.95682e-22)
(0.0274214 -0.078128 -4.13372e-21)
(0.036416 -0.0666905 -7.20646e-21)
(0.0454384 -0.057315 -2.86301e-21)
(0.0832991 -0.412005 2.73995e-20)
(0.0570474 -0.305927 2.77486e-20)
(0.0424711 -0.231642 -8.0143e-20)
(0.0362269 -0.180053 2.65483e-20)
(0.0365304 -0.144389 4.41661e-20)
(0.0420739 -0.119644 -2.54713e-20)
(0.0515283 -0.102167 -2.22712e-20)
(0.0637619 -0.0892421 2.0879e-20)
(0.077887 -0.0787844 -4.77181e-20)
(0.0920326 -0.0694141 5.08071e-20)
(0.115185 -0.402644 -9.58101e-20)
(0.0827142 -0.299858 4.79176e-20)
(0.0665318 -0.229658 -4.76242e-20)
(0.0616188 -0.182282 2.43983e-20)
(0.0651819 -0.150577 -2.83104e-20)
(0.0752687 -0.129312 4.56053e-20)
(0.0901035 -0.1147 2.47536e-20)
(0.108263 -0.103875 -7.53181e-20)
(0.128686 -0.0945087 -7.41247e-20)
(0.148943 -0.0851083 8.71087e-20)
(0.146508 -0.391684 3.79373e-21)
(0.109057 -0.294097 -1.87498e-20)
(0.0928388 -0.229117 -8.55816e-21)
(0.0908879 -0.186589 -1.04437e-20)
(0.0992711 -0.159171 -7.09374e-20)
(0.115332 -0.141552 1.14875e-20)
(0.136823 -0.129925 -7.89785e-21)
(0.162035 -0.121326 8.31093e-20)
(0.189755 -0.113151 -5.86937e-20)
(0.216896 -0.10375 -4.27942e-20)
(0.177377 -0.379266 9.3621e-20)
(0.136723 -0.288749 -9.61113e-21)
(0.122431 -0.229945 1.46144e-19)
(0.125335 -0.19264 -1.88653e-20)
(0.140247 -0.169529 9.21709e-20)
(0.163756 -0.155403 -1.06352e-20)
(0.193126 -0.146589 -8.17053e-22)
(0.226372 -0.140136 6.82865e-20)
(0.262182 -0.133175 -3.83739e-20)
(0.296751 -0.123886 7.42938e-20)
(0.207967 -0.365522 -3.54765e-20)
(0.166478 -0.283821 1.26183e-20)
(0.156474 -0.231884 -3.74683e-20)
(0.166375 -0.199833 -4.75113e-20)
(0.189653 -0.180659 -5.1484e-21)
(0.222101 -0.169444 1.575e-19)
(0.260475 -0.162842 -5.66394e-20)
(0.302532 -0.158108 2.87173e-20)
(0.346961 -0.152221 -9.89703e-20)
(0.389263 -0.14324 -6.34498e-20)
(0.238527 -0.350565 1.71153e-19)
(0.199171 -0.279205 -1.93571e-20)
(0.196168 -0.234489 -2.04508e-19)
(0.215389 -0.207344 1.1573e-20)
(0.248917 -0.191305 5.04145e-20)
(0.291721 -0.181919 -7.55688e-20)
(0.340026 -0.176362 -1.02977e-19)
(0.391339 -0.172363 1.57348e-19)
(0.444531 -0.166996 -1.31846e-20)
(0.49468 -0.15843 -1.47069e-19)
(0.269378 -0.334465 -1.43649e-19)
(0.235668 -0.274639 8.49382e-20)
(0.242621 -0.237135 1.35104e-19)
(0.273546 -0.214196 3.71499e-20)
(0.319146 -0.200114 -1.4597e-19)
(0.373547 -0.190982 9.75877e-20)
(0.43238 -0.18457 6.1329e-20)
(0.4928 -0.179215 1.31255e-19)
(0.554007 -0.172362 -7.97553e-20)
(0.611559 -0.163219 -1.19002e-19)
(0.300878 -0.317167 4.88664e-20)
(0.276737 -0.269637 -2.02655e-20)
(0.296662 -0.239013 -6.2601e-22)
(0.3416 -0.219385 4.23422e-20)
(0.401007 -0.205995 3.63304e-20)
(0.468298 -0.195475 -2.56665e-20)
(0.538607 -0.185977 -5.25158e-20)
(0.60858 -0.176112 8.41334e-20)
(0.677005 -0.163849 -7.26903e-20)
(0.740332 -0.151237 6.65224e-20)
(0.626029 -0.00955307 4.21676e-21)
(0.599389 -0.0560349 1.22184e-20)
(0.569446 -0.0986269 -4.0866e-20)
(0.537158 -0.137255 3.60247e-20)
(0.503379 -0.171995 1.34967e-20)
(0.468857 -0.203066 1.69461e-19)
(0.434204 -0.230796 -6.47456e-20)
(0.399871 -0.25559 -8.75709e-20)
(0.36617 -0.277919 9.12111e-20)
(0.333243 -0.298296 -1.5791e-19)
(0.853555 0.016643 1.50231e-20)
(0.800933 -0.0432244 -4.87977e-21)
(0.742277 -0.0955751 -4.10362e-20)
(0.679741 -0.139985 1.08253e-19)
(0.615385 -0.176443 -3.63573e-20)
(0.551119 -0.205333 2.74665e-19)
(0.488579 -0.227376 -1.69355e-19)
(0.429098 -0.243577 2.43058e-19)
(0.373633 -0.255147 -1.66016e-19)
(0.322779 -0.263422 -8.5113e-20)
(1.04729 0.0651219 -2.9883e-20)
(0.984637 -0.00426936 4.50826e-21)
(0.912556 -0.0653112 -1.30638e-19)
(0.833657 -0.116981 1.00543e-19)
(0.750657 -0.158787 -1.02506e-19)
(0.666234 -0.190782 -1.92218e-19)
(0.582871 -0.213552 -6.25983e-20)
(0.502709 -0.228158 -5.38924e-20)
(0.427486 -0.236084 1.69198e-19)
(0.358499 -0.239105 8.74029e-20)
(1.20197 0.113509 1.3686e-20)
(1.13943 0.0389058 -2.4021e-20)
(1.06433 -0.0280668 -3.27976e-20)
(0.979196 -0.0858289 -1.28655e-19)
(0.886886 -0.133311 7.48686e-20)
(0.79043 -0.170031 2.18306e-19)
(0.692839 -0.196136 9.40726e-20)
(0.596898 -0.212427 1.82337e-20)
(0.505044 -0.220349 5.01337e-20)
(0.419321 -0.221911 -1.96341e-21)
(1.31848 0.154029 -1.61664e-20)
(1.26222 0.0780009 -6.37886e-20)
(1.19108 0.00811843 8.43503e-21)
(1.10709 -0.053648 1.11227e-19)
(1.01282 -0.105722 1.14796e-19)
(0.911257 -0.147046 -7.6024e-20)
(0.805562 -0.177197 -1.41973e-19)
(0.698869 -0.196513 -6.88712e-20)
(0.59406 -0.206189 8.0892e-20)
(0.493781 -0.208371 1.10459e-19)
(1.40114 0.185044 3.35916e-21)
(1.35444 0.110476 5.42466e-20)
(1.29153 0.0403099 -1.27475e-19)
(1.21374 -0.0232964 1.60011e-19)
(1.12308 -0.0784076 9.47822e-20)
(1.02211 -0.123456 1.72926e-19)
(0.913798 -0.157414 -3.69466e-20)
(0.801251 -0.180026 -9.93912e-20)
(0.687413 -0.192072 2.35594e-19)
(0.575044 -0.195799 -1.91703e-19)
(1.45571 0.206703 8.32328e-21)
(1.41971 0.135521 -6.53339e-20)
(1.36716 0.06706 -4.08694e-20)
(1.29864 0.00348074 -8.74655e-20)
(1.21544 -0.0530952 -1.24491e-20)
(1.11948 -0.100711 -1.29617e-19)
(1.01324 -0.137755 -8.05495e-20)
(0.899452 -0.163277 -1.67738e-20)
(0.780612 -0.177457 -1.46462e-19)
(0.658641 -0.182621 2.08753e-19)
(1.48807 0.220161 -7.38281e-21)
(1.46247 0.153413 5.45927e-20)
(1.42082 0.0879518 -2.45129e-20)
(1.36303 0.0257911 5.45844e-20)
(1.28964 -0.0309283 1.34752e-19)
(1.20187 -0.0800035 2.20456e-19)
(1.10153 -0.119291 -6.33614e-20)
(0.990786 -0.147019 -2.18915e-19)
(0.871188 -0.162378 5.97237e-20)
(0.742235 -0.167513 -3.44169e-19)
(1.50339 0.227151 1.07675e-20)
(1.48705 0.16511 -1.28428e-20)
(1.45576 0.103211 -1.32467e-19)
(1.40891 0.0432147 4.05741e-20)
(1.34638 -0.0128664 -9.44794e-20)
(1.26872 -0.0627429 -3.94478e-20)
(1.17713 -0.103841 -3.15952e-20)
(1.07324 -0.1334 9.10135e-20)
(0.957652 -0.148769 1.04954e-19)
(0.825655 -0.150143 6.44789e-20)
(1.50568 0.229317 -2.6217e-20)
(1.49708 0.172096 4.70851e-20)
(1.475 0.114021 2.19416e-20)
(1.43846 0.0565227 6.72982e-20)
(1.38684 0.00134907 -7.82973e-21)
(1.32013 -0.0493138 -5.10528e-21)
(1.23901 -0.0926981 -1.76266e-19)
(1.14496 -0.125211 2.25848e-19)
(1.03881 -0.141886 -1.40253e-19)
(0.910379 -0.137053 2.95209e-20)
(0.541611 0.503003 -5.9391e-20)
(0.582057 0.463555 6.83211e-20)
(0.616181 0.418606 1.09983e-21)
(0.643298 0.369108 -1.68148e-19)
(0.662881 0.316142 1.24983e-19)
(0.67467 0.260896 -9.38149e-20)
(0.678684 0.204591 -2.29179e-20)
(0.675209 0.148411 -2.18992e-20)
(0.664787 0.093438 3.63394e-20)
(0.648167 0.0405741 2.52455e-21)
(0.760826 0.680477 8.84789e-20)
(0.82249 0.638024 2.34607e-20)
(0.874871 0.585331 -1.20971e-19)
(0.916398 0.523927 -1.47875e-19)
(0.945792 0.455592 1.16866e-19)
(0.962193 0.382337 -1.05074e-19)
(0.965226 0.306319 1.25595e-19)
(0.955022 0.229734 -3.28299e-20)
(0.932226 0.1547 -1.10645e-19)
(0.897958 0.0831303 -8.36256e-21)
(0.897247 0.76165 -6.69846e-21)
(0.971137 0.725118 1.79721e-21)
(1.03573 0.676126 7.97817e-20)
(1.08889 0.616135 8.12235e-20)
(1.1288 0.546915 1.86718e-19)
(1.15404 0.470541 6.71163e-20)
(1.16368 0.389327 -4.52798e-20)
(1.15735 0.305733 -9.98844e-20)
(1.13523 0.222259 8.11517e-20)
(1.09813 0.141319 5.60463e-21)
(0.979915 0.78084 2.42255e-20)
(1.05976 0.75248 -5.646e-20)
(1.13156 0.711165 -2.74932e-20)
(1.19291 0.658042 -1.54847e-19)
(1.24169 0.594578 -9.43009e-20)
(1.2761 0.522572 1.82185e-19)
(1.29477 0.444108 1.23915e-19)
(1.29677 0.361498 -1.04401e-19)
(1.28175 0.277204 4.86996e-21)
(1.24991 0.19373 -4.68776e-21)
(1.02836 0.763431 -6.6308e-20)
(1.1099 0.74267 1.08802e-19)
(1.185 0.709517 -2.83492e-20)
(1.25118 0.664738 8.43347e-20)
(1.30624 0.609415 -5.89309e-20)
(1.34822 0.544972 -1.09666e-19)
(1.3755 0.473127 5.87146e-20)
(1.38678 0.395858 -6.20243e-20)
(1.38121 0.315358 -6.20279e-20)
(1.35841 0.233956 2.7272e-20)
(1.05599 0.726732 -1.18664e-20)
(1.1366 0.712074 2.00886e-20)
(1.21223 0.686178 -1.9533e-20)
(1.2804 0.649388 -1.60725e-19)
(1.33901 0.602423 9.22453e-20)
(1.3862 0.546357 1.83721e-20)
(1.42029 0.48254 -1.01206e-19)
(1.43984 0.412579 -3.74025e-20)
(1.44366 0.338308 3.50087e-20)
(1.43092 0.261749 -9.91728e-21)
(1.07165 0.681649 -1.81552e-20)
(1.15016 0.671553 4.77308e-21)
(1.22454 0.651632 2.65149e-20)
(1.29247 0.621736 9.12943e-20)
(1.35221 0.582293 2.3023e-20)
(1.40217 0.534118 5.82602e-20)
(1.44081 0.478268 1.23616e-19)
(1.4667 0.416024 -5.29891e-20)
(1.47852 0.348874 4.9704e-20)
(1.47516 0.278493 -1.8713e-20)
(1.08099 0.634687 -1.45667e-20)
(1.15705 0.628259 2.13796e-20)
(1.22906 0.613214 2.10699e-20)
(1.29508 0.588914 -4.70648e-20)
(1.35399 0.555701 -3.06893e-20)
(1.4046 0.514272 -6.42935e-20)
(1.44564 0.465502 8.99254e-21)
(1.47578 0.410433 -1.51557e-20)
(1.49371 0.350261 -1.05885e-19)
(1.49819 0.28634 1.49195e-20)
(1.08819 0.590217 -2.46384e-21)
(1.16114 0.587251 -1.74799e-20)
(1.22959 0.576104 -1.68101e-20)
(1.29234 0.556034 1.06084e-20)
(1.34896 0.527584 -4.66461e-21)
(1.39867 0.4915 5.70687e-20)
(1.4404 0.448558 2.57262e-20)
(1.47297 0.399628 4.15435e-20)
(1.49516 0.34568 5.09662e-20)
(1.50571 0.287793 -2.19495e-20)
(1.09955 0.54972 -4.73368e-21)
(1.16746 0.548111 2.69822e-20)
(1.23027 0.539341 -6.94903e-20)
(1.28808 0.522245 -4.17387e-21)
(1.34098 0.497516 8.71376e-20)
(1.38836 0.465913 4.28896e-21)
(1.42922 0.42809 5.15577e-20)
(1.46254 0.384733 -1.1391e-19)
(1.48718 0.336593 -1.38338e-21)
(1.50197 0.28449 1.16769e-20)
(0.599338 0.197678 -8.07359e-21)
(0.55856 0.213229 2.8593e-21)
(0.511813 0.231795 9.41038e-22)
(0.458316 0.254529 -1.52637e-20)
(0.397129 0.282919 6.77916e-21)
(0.327728 0.318488 2.01789e-20)
(0.250521 0.362135 -1.8811e-20)
(0.167768 0.412723 -4.83558e-21)
(0.0877132 0.464452 -5.84545e-21)
(0.0325184 0.502357 -2.1457e-20)
(0.622303 0.25531 -2.21828e-20)
(0.58343 0.275725 4.67072e-20)
(0.538618 0.299608 -4.30431e-20)
(0.487415 0.32785 -7.29984e-21)
(0.42893 0.361465 1.21523e-20)
(0.362618 0.401003 -1.4339e-20)
(0.288768 0.445597 -4.0712e-20)
(0.20926 0.49116 4.72971e-20)
(0.131385 0.527076 -8.38048e-23)
(0.0752299 0.530639 2.16486e-20)
(0.65282 0.310069 -7.3667e-20)
(0.616575 0.335115 7.82697e-20)
(0.574396 0.364085 2.73868e-20)
(0.526241 0.397546 1.51892e-21)
(0.471222 0.436034 1.75514e-20)
(0.40864 0.479136 6.98528e-21)
(0.338434 0.524243 -1.15621e-20)
(0.2617 0.564406 -2.54086e-20)
(0.184044 0.584446 -1.87504e-20)
(0.122107 0.554528 2.73673e-20)
(0.69052 0.360958 -6.07079e-20)
(0.657538 0.39029 5.68365e-20)
(0.618626 0.423984 4.58223e-20)
(0.574214 0.462208 -3.12751e-20)
(0.523348 0.505021 -1.15752e-19)
(0.46505 0.551067 3.73791e-20)
(0.398687 0.596065 -2.70237e-20)
(0.324191 0.630383 7.40977e-20)
(0.244825 0.634713 6.5039e-20)
(0.172562 0.573052 -5.79162e-20)
(0.734883 0.407082 -4.32496e-20)
(0.705683 0.440249 1.97044e-20)
(0.670586 0.478174 -5.4425e-20)
(0.630516 0.52054 4.28996e-20)
(0.584379 0.566935 -2.03092e-20)
(0.530791 0.615103 -1.71977e-20)
(0.468335 0.659196 -1.73989e-20)
(0.395451 0.687166 -2.46581e-21)
(0.312495 0.676179 -2.53083e-20)
(0.225787 0.585347 -1.50491e-20)
(0.785224 0.447675 1.07434e-19)
(0.760183 0.48413 2.20681e-20)
(0.729341 0.525662 -7.31748e-20)
(0.694096 0.571383 6.83174e-20)
(0.653122 0.620435 3.17731e-20)
(0.604501 0.669718 5.07087e-20)
(0.545852 0.711968 -2.822e-21)
(0.473841 0.733058 3.06025e-20)
(0.385496 0.70738 8.09204e-21)
(0.280801 0.590713 2.93496e-20)
(0.840656 0.482136 -1.14335e-19)
(0.820001 0.521234 1.31498e-19)
(0.793735 0.565607 -6.31069e-20)
(0.763672 0.613733 -3.6116e-20)
(0.72813 0.664353 1.2602e-22)
(0.684544 0.713594 -4.80058e-20)
(0.629409 0.752952 3.27719e-20)
(0.557412 0.76664 3.48796e-20)
(0.462 0.727145 5.19687e-21)
(0.336483 0.588633 -2.12237e-20)
(0.900036 0.510126 -8.55429e-21)
(0.88384 0.551047 -5.00074e-20)
(0.862369 0.597315 2.12537e-20)
(0.837734 0.64674 -3.32718e-21)
(0.807732 0.697704 -1.69655e-20)
(0.769039 0.745637 6.97233e-21)
(0.716917 0.781004 -2.24857e-21)
(0.643962 0.786827 -1.04712e-20)
(0.539966 0.734632 1.29394e-20)
(0.391625 0.578811 -9.79438e-21)
(0.96192 0.531771 1.55306e-20)
(0.950138 0.573462 5.18061e-21)
(0.933701 0.620392 -3.30863e-20)
(0.914672 0.66979 2.28533e-20)
(0.89012 0.719734 -7.27456e-21)
(0.855938 0.765018 -5.93744e-21)
(0.806105 0.795298 -1.20766e-20)
(0.731113 0.792899 -1.58758e-21)
(0.61724 0.729386 -6.23933e-20)
(0.444998 0.56119 3.77824e-20)
(1.02291 0.544716 -1.57293e-20)
(1.01525 0.586318 1.13745e-20)
(1.005 0.633249 7.29795e-22)
(0.99223 0.681801 -3.59675e-21)
(0.973115 0.729646 -1.54353e-20)
(0.942962 0.77109 -7.53246e-21)
(0.894545 0.795317 9.64854e-21)
(0.816392 0.78452 4.18616e-20)
(0.691636 0.711308 5.36916e-20)
(0.495425 0.535923 7.33216e-21)
(0.770303 -0.314409 1.38569e-19)
(0.741309 -0.336078 -8.66062e-20)
(0.704368 -0.355889 3.29219e-20)
(0.658833 -0.368756 -7.50763e-20)
(0.599936 -0.369945 -4.92627e-20)
(0.521619 -0.351901 -7.6405e-20)
(0.416266 -0.303671 -9.29227e-20)
(0.27433 -0.210843 -4.26148e-20)
(0.0845457 -0.0551391 -5.91591e-20)
(-0.167379 0.186333 2.94281e-20)
(0.727649 -0.280911 -8.29804e-20)
(0.697484 -0.301122 -6.88814e-20)
(0.658659 -0.320036 1.18967e-19)
(0.611412 -0.333109 5.85533e-20)
(0.551991 -0.335505 8.71308e-20)
(0.475079 -0.319641 -1.46944e-19)
(0.374047 -0.274429 5.07063e-20)
(0.240771 -0.184981 1.04039e-19)
(0.0663779 -0.0318781 7.0999e-20)
(-0.158766 0.210085 -7.58779e-20)
(0.687719 -0.241131 3.89867e-20)
(0.65558 -0.259295 -1.59004e-20)
(0.615105 -0.276578 1.68582e-19)
(0.566267 -0.288877 -1.01743e-19)
(0.506039 -0.291409 -8.29743e-20)
(0.429961 -0.276778 4.78932e-20)
(0.332534 -0.234096 -6.93415e-22)
(0.207264 -0.148525 -2.08829e-19)
(0.0480211 -0.000365593 -8.54559e-21)
(-0.149575 0.236505 6.6721e-20)
(0.65283 -0.197012 2.57987e-19)
(0.618315 -0.212357 -1.20753e-19)
(0.575948 -0.226939 4.05425e-20)
(0.525362 -0.237202 -6.95067e-20)
(0.464041 -0.238599 1.81872e-19)
(0.388338 -0.22408 -9.63334e-21)
(0.293904 -0.183242 -3.43549e-20)
(0.175958 -0.101812 5.39015e-21)
(0.0312757 0.0393023 1.72069e-20)
(-0.138977 0.265588 -8.68797e-20)
(0.62378 -0.148467 -2.22752e-19)
(0.586876 -0.160426 -2.48955e-21)
(0.542579 -0.171531 9.07221e-20)
(0.49024 -0.178758 -4.37629e-21)
(0.427732 -0.177909 -1.04916e-20)
(0.352151 -0.162441 1.19692e-19)
(0.260252 -0.122717 -2.24414e-20)
(0.148953 -0.0455462 2.76098e-20)
(0.0179274 0.0866375 5.31842e-21)
(-0.126161 0.297111 1.15819e-19)
(0.601186 -0.0958856 8.19987e-21)
(0.562148 -0.103989 -1.30593e-19)
(0.516118 -0.111012 1.17825e-19)
(0.462218 -0.114393 -1.03826e-20)
(0.398641 -0.110348 1.99645e-20)
(0.32314 -0.0929755 -1.00969e-19)
(0.233496 -0.053668 -1.51305e-20)
(0.128206 0.0192009 -7.64712e-21)
(0.00965862 0.140799 -5.29733e-20)
(-0.110361 0.330646 -2.51877e-20)
(0.585579 -0.0399944 1.14603e-19)
(0.544849 -0.0438312 -1.09254e-19)
(0.497465 -0.0462758 -5.1973e-21)
(0.44238 -0.0451518 -1.30092e-19)
(0.378052 -0.0371173 7.10681e-20)
(0.302801 -0.0170231 -4.5044e-20)
(0.215304 0.0224863 3.78711e-20)
(0.115444 0.091039 -7.28027e-20)
(0.00797356 0.200617 -6.82048e-20)
(-0.090897 0.365587 -4.89145e-20)
(0.577368 0.0183262 7.17056e-20)
(0.535532 0.0190924 -7.28052e-20)
(0.487312 0.0216123 3.23142e-20)
(0.431576 0.0277544 2.2808e-20)
(0.366992 0.0404023 -4.21921e-20)
(0.292346 0.0638726 7.25759e-20)
(0.207049 0.10408 4.42999e-20)
(0.112105 0.168298 -1.34772e-19)
(0.0141314 0.26465 2.26997e-20)
(-0.0672103 0.401167 5.89561e-20)
(0.57684 0.0780894 7.5883e-20)
(0.534589 0.0836963 -1.15248e-20)
(0.486156 0.0914537 -6.64275e-21)
(0.430419 0.102975 -5.41979e-22)
(0.366215 0.120682 2.83364e-20)
(0.292681 0.147995 -8.3706e-20)
(0.209773 0.189247 6.90482e-20)
(0.119289 0.249071 5.40301e-21)
(0.0290995 0.331225 -2.52906e-21)
(-0.0388943 0.436503 4.29838e-20)
(0.584153 0.138236 -2.19888e-20)
(0.542245 0.14881 -2.32521e-21)
(0.494293 0.161958 6.11924e-21)
(0.439287 0.179063 6.80576e-21)
(0.376197 0.202082 1.72016e-20)
(0.304391 0.233501 -1.24226e-20)
(0.224162 0.275965 -7.31847e-21)
(0.137734 0.331277 -1.13963e-20)
(0.0535291 0.398492 1.05496e-20)
(-0.00569734 0.470616 -7.74062e-21)
(0.830033 -0.348017 1.37335e-19)
(0.879964 -0.370409 -5.06098e-20)
(0.925891 -0.387421 1.32138e-20)
(0.968017 -0.397151 5.44464e-20)
(1.00647 -0.399768 2.80396e-20)
(1.04035 -0.395678 2.32537e-21)
(1.06831 -0.385083 3.15002e-21)
(1.08882 -0.368188 -2.00035e-21)
(1.10019 -0.34532 -1.15151e-21)
(1.10071 -0.31699 9.6633e-22)
(0.793942 -0.365883 6.33653e-20)
(0.845993 -0.387869 5.12505e-20)
(0.894818 -0.403374 4.76513e-20)
(0.939149 -0.411098 -1.40365e-20)
(0.978313 -0.411027 -1.23448e-20)
(1.01131 -0.403502 -1.02492e-20)
(1.03676 -0.388868 1.97522e-21)
(1.05312 -0.367585 1.95905e-21)
(1.05875 -0.340303 1.68583e-21)
(1.0521 -0.307918 -1.91323e-21)
(0.755474 -0.383321 -1.86406e-19)
(0.807539 -0.402931 1.87e-20)
(0.856875 -0.415276 -9.03756e-20)
(0.901245 -0.419567 -1.41858e-20)
(0.939276 -0.415671 4.56934e-20)
(0.969648 -0.403897 1.43215e-20)
(0.990884 -0.384758 -1.07522e-21)
(1.00146 -0.358984 -1.3004e-21)
(0.999928 -0.327566 -6.74382e-21)
(0.985082 -0.291779 1.34448e-21)
(0.709155 -0.394715 -4.92874e-20)
(0.759816 -0.411714 -7.17445e-20)
(0.807581 -0.420307 -6.86968e-21)
(0.849879 -0.420259 -2.31426e-20)
(0.884821 -0.41166 -2.39199e-20)
(0.910762 -0.394995 -2.24156e-21)
(0.926157 -0.371042 -3.06134e-21)
(0.929608 -0.340865 2.19514e-22)
(0.919984 -0.305822 6.88747e-21)
(0.896568 -0.267557 -1.59324e-21)
(0.64899 -0.3939 -1.06808e-19)
(0.6971 -0.4078 1.11889e-19)
(0.741515 -0.41222 6.17261e-21)
(0.779678 -0.407418 -5.22323e-21)
(0.809482 -0.393868 1.28608e-20)
(0.829167 -0.372394 4.44663e-21)
(0.837265 -0.344136 -4.7479e-21)
(0.832653 -0.310531 8.24236e-21)
(0.81465 -0.273297 -1.30725e-21)
(0.783133 -0.234375 -6.65199e-22)
(0.5679 -0.373018 1.53602e-19)
(0.61184 -0.383345 -8.50589e-20)
(0.65099 -0.383553 -2.57933e-20)
(0.68297 -0.374326 -6.01241e-21)
(0.705746 -0.356569 -1.01365e-20)
(0.717691 -0.33151 4.58406e-21)
(0.717614 -0.300673 -4.81327e-21)
(0.704816 -0.265846 -3.28471e-21)
(0.679166 -0.229017 2.23678e-21)
(0.641166 -0.192285 2.92998e-21)
(0.457117 -0.321559 2.50352e-20)
(0.49445 -0.328546 1.54208e-20)
(0.526069 -0.325504 3.07504e-21)
(0.549884 -0.313477 -9.39274e-21)
(0.564155 -0.293772 2.90826e-20)
(0.567607 -0.267977 8.93848e-22)
(0.559486 -0.237921 1.89103e-22)
(0.539612 -0.205604 7.98676e-22)
(0.508417 -0.173109 3.12281e-21)
(0.466946 -0.142477 -2.23307e-21)
(0.305804 -0.226123 7.24458e-20)
(0.333189 -0.231434 5.15168e-20)
(0.354628 -0.22785 -8.66907e-20)
(0.368455 -0.216675 -1.61711e-20)
(0.37339 -0.199456 -2.75844e-20)
(0.368646 -0.17796 -1.6046e-21)
(0.353975 -0.154095 -7.75468e-21)
(0.329689 -0.129822 1.01499e-20)
(0.296659 -0.107043 -1.15465e-22)
(0.256251 -0.0874857 4.74788e-21)
(0.100731 -0.0703871 -1.32409e-20)
(0.113458 -0.0782248 -8.61423e-20)
(0.121399 -0.0797636 6.48082e-20)
(0.123466 -0.0762815 -2.13919e-20)
(0.118944 -0.0692174 2.72688e-20)
(0.107552 -0.0601254 -1.43804e-21)
(0.08946 -0.0505933 -6.3302e-21)
(0.0652764 -0.0421494 3.90531e-22)
(0.0360047 -0.0361709 -4.25504e-22)
(0.00295994 -0.033809 -2.42755e-21)
(-0.176254 0.164965 -1.32661e-20)
(-0.185667 0.145954 4.52092e-20)
(-0.196214 0.128653 -1.8747e-20)
(-0.208227 0.112422 5.56922e-21)
(-0.221833 0.096605 -5.4942e-21)
(-0.236949 0.0805423 -6.84607e-22)
(-0.253291 0.0636035 1.05466e-21)
(-0.270393 0.0452347 4.9475e-21)
(-0.287649 0.0249952 -2.34745e-21)
(-0.304371 0.00256791 -8.38338e-22)
(1.08872 -0.283967 1.55087e-21)
(1.06287 -0.247414 -7.62623e-21)
(1.02242 -0.208932 4.21509e-20)
(0.967429 -0.170599 -3.0635e-20)
(0.898993 -0.134912 3.58702e-21)
(0.819219 -0.104625 -3.13569e-20)
(0.73091 -0.0824835 1.5676e-19)
(0.63674 -0.070826 8.25606e-21)
(0.535293 -0.0716332 -4.69776e-20)
(0.414855 -0.0814711 1.05487e-19)
(1.03185 -0.271624 5.18254e-21)
(0.997166 -0.23302 -1.55286e-20)
(0.947972 -0.194066 -1.57323e-20)
(0.885078 -0.157039 -1.16868e-20)
(0.810257 -0.124386 -3.37312e-20)
(0.726062 -0.0984962 -8.81227e-22)
(0.635325 -0.0813812 -1.02134e-20)
(0.540144 -0.0742111 2.93857e-20)
(0.439285 -0.0768441 9.3535e-20)
(0.32693 -0.0828001 -2.02619e-20)
(0.956087 -0.253203 -3.5227e-21)
(0.912789 -0.213766 3.13194e-20)
(0.855835 -0.175628 8.20679e-21)
(0.786746 -0.141062 -1.7436e-21)
(0.707847 -0.11226 3.67873e-20)
(0.621985 -0.0910608 1.60101e-20)
(0.531987 -0.0786136 3.11478e-20)
(0.439833 -0.074913 -3.34329e-20)
(0.345395 -0.0782084 -6.71262e-20)
(0.247301 -0.0820058 -1.57664e-19)
(0.859145 -0.227961 4.34689e-21)
(0.808285 -0.189171 -1.38076e-20)
(0.745353 -0.153375 2.01683e-20)
(0.672471 -0.122665 -4.59235e-20)
(0.592354 -0.0988155 -2.72111e-20)
(0.507983 -0.083033 -1.28385e-20)
(0.422125 -0.0756634 -6.53851e-20)
(0.336788 -0.0758606 -3.01932e-20)
(0.252782 -0.0812351 3.59304e-21)
(0.170965 -0.0865873 4.89475e-20)
(0.73856 -0.195849 2.16947e-21)
(0.682189 -0.159891 -2.52752e-23)
(0.61599 -0.128529 1.3335e-20)
(0.542491 -0.103502 4.1115e-20)
(0.464578 -0.0860593 -6.97558e-21)
(0.385174 -0.0767645 -6.09948e-20)
(0.306865 -0.0752972 1.02806e-19)
(0.231572 -0.0802903 -3.13598e-20)
(0.160515 -0.0892181 -2.36566e-20)
(0.0951409 -0.0980819 -1.11164e-20)
(0.591893 -0.157739 -5.96948e-21)
(0.533149 -0.127385 6.33726e-21)
(0.46729 -0.102906 2.09601e-20)
(0.396993 -0.0855604 -2.01761e-20)
(0.325061 -0.0760303 4.01751e-20)
(0.254154 -0.0743011 -4.88913e-21)
(0.186524 -0.0795634 3.86041e-21)
(0.123855 -0.0901788 2.59196e-20)
(0.0673358 -0.103722 2.02919e-20)
(0.0182197 -0.11708 6.5172e-21)
(0.416722 -0.115586 8.85508e-22)
(0.359842 -0.0940625 -1.20199e-21)
(0.298753 -0.0791096 2.99772e-20)
(0.235994 -0.0714426 -3.58993e-20)
(0.174036 -0.0712149 -6.85016e-20)
(0.115095 -0.0779644 3.3051e-20)
(0.0609735 -0.0905957 -1.75287e-20)
(0.0129967 -0.107413 1.87509e-20)
(-0.0279055 -0.126228 5.27641e-20)
(-0.060904 -0.144576 -5.71588e-20)
(0.210156 -0.0726009 -9.42029e-22)
(0.160431 -0.0634592 -1.87563e-20)
(0.109289 -0.0607181 2.6621e-20)
(0.0588441 -0.0645843 1.64674e-20)
(0.0110286 -0.074798 -5.02396e-20)
(-0.0325137 -0.0906365 -3.95229e-20)
(-0.0705015 -0.110939 -2.78801e-21)
(-0.102019 -0.134156 6.23741e-21)
(-0.126454 -0.158445 7.86634e-21)
(-0.143375 -0.181872 -2.2379e-20)
(-0.0323823 -0.0359227 1.59259e-21)
(-0.0683905 -0.0429054 2.59536e-20)
(-0.103442 -0.0549258 1.07147e-20)
(-0.136095 -0.0718158 -3.52142e-20)
(-0.165117 -0.0930975 3.49263e-20)
(-0.189524 -0.118025 -4.581e-20)
(-0.20858 -0.145611 6.01544e-20)
(-0.221784 -0.174662 -7.23585e-20)
(-0.228821 -0.203827 -3.83288e-20)
(-0.229518 -0.231719 -1.02967e-19)
(-0.319808 -0.0222653 -4.54283e-22)
(-0.333239 -0.0491626 -7.56178e-21)
(-0.34404 -0.0780436 5.61064e-21)
(-0.351681 -0.108621 6.69088e-21)
(-0.355767 -0.140489 -1.51271e-20)
(-0.356026 -0.173166 1.49064e-20)
(-0.352293 -0.206109 -1.82528e-20)
(-0.344475 -0.238712 1.40974e-20)
(-0.332539 -0.27033 -3.57839e-20)
(-0.316483 -0.30031 3.95481e-20)
(-0.296232 -0.327997 5.64476e-20)
(-0.22388 -0.257098 -4.2597e-20)
(-0.152506 -0.202833 -4.44714e-20)
(-0.0850439 -0.160445 5.98264e-20)
(-0.0213629 -0.127519 -5.47194e-21)
(0.0393142 -0.102614 7.12056e-20)
(0.0973525 -0.0843312 7.96777e-21)
(0.15314 -0.0716769 -6.3462e-20)
(0.208148 -0.0646231 1.16184e-19)
(0.261626 -0.05976 -1.62332e-20)
(-0.272469 -0.352499 -5.95663e-20)
(-0.212457 -0.278993 1.6431e-19)
(-0.154036 -0.2205 -6.7596e-21)
(-0.0997394 -0.173433 -5.46504e-20)
(-0.0492894 -0.135614 4.3361e-20)
(-0.00178003 -0.1055 -9.86847e-20)
(0.0433852 -0.0815551 1.13515e-19)
(0.0870006 -0.0626646 -9.51676e-20)
(0.130739 -0.0489823 1.75768e-20)
(0.172932 -0.0397461 7.39102e-20)
(-0.245631 -0.373718 3.41014e-20)
(-0.196053 -0.297026 -1.03729e-19)
(-0.148879 -0.234549 3.59068e-20)
(-0.105982 -0.183548 -2.00314e-20)
(-0.0668188 -0.142034 3.7087e-20)
(-0.0303219 -0.108487 -2.77901e-20)
(0.00427137 -0.0815173 -2.632e-20)
(0.0378053 -0.0602411 3.54916e-20)
(0.0714185 -0.0448233 -8.2283e-20)
(0.103082 -0.034989 1.23222e-19)
(-0.216249 -0.391499 -7.31607e-20)
(-0.175671 -0.311035 7.99337e-21)
(-0.138316 -0.244858 3.77802e-20)
(-0.105308 -0.190709 5.16375e-20)
(-0.0758404 -0.14666 -7.89532e-20)
(-0.0487656 -0.111164 6.54955e-21)
(-0.0233008 -0.0828929 -4.39093e-20)
(0.00127316 -0.0610171 -9.15161e-20)
(0.0256834 -0.0454686 1.74382e-19)
(0.0482075 -0.0357937 6.62659e-20)
(-0.184903 -0.405779 5.13064e-20)
(-0.152356 -0.321043 1.18935e-20)
(-0.123664 -0.251469 4.63843e-20)
(-0.0992343 -0.194884 -5.67836e-21)
(-0.078049 -0.149234 6.16578e-20)
(-0.0589481 -0.112808 3.03858e-20)
(-0.0412015 -0.0841763 7.71562e-20)
(-0.0242436 -0.0623592 -7.82599e-20)
(-0.0076163 -0.0469328 -7.94065e-21)
(0.00735856 -0.0372365 -8.7225e-20)
(-0.152158 -0.416603 3.44361e-20)
(-0.127081 -0.327262 -4.06436e-20)
(-0.106126 -0.254634 -9.05839e-21)
(-0.0891166 -0.196252 -1.60424e-20)
(-0.0749095 -0.149738 -1.75662e-20)
(-0.0623955 -0.113096 -2.22562e-20)
(-0.0509439 -0.0846737 3.65421e-20)
(-0.040143 -0.0632526 -4.85407e-20)
(-0.0297259 -0.0480625 4.37969e-20)
(-0.0206824 -0.0382754 5.63584e-21)
(-0.118522 -0.424099 -6.0021e-20)
(-0.10068 -0.330065 -3.06106e-20)
(-0.0867087 -0.254807 5.3304e-20)
(-0.0760603 -0.195231 -1.98948e-20)
(-0.0675757 -0.148474 2.94261e-20)
(-0.0602613 -0.112152 -8.91837e-20)
(-0.0536257 -0.0843254 6.83177e-20)
(-0.0474134 -0.0635204 -2.54933e-20)
(-0.0415164 -0.0486805 4.58423e-20)
(-0.0367058 -0.0388487 -5.56517e-20)
(-0.08443 -0.428468 2.7719e-20)
(-0.0738141 -0.329959 -1.21231e-20)
(-0.0661863 -0.252613 -1.86515e-20)
(-0.0608934 -0.192462 -7.52655e-21)
(-0.0568899 -0.146029 4.21113e-21)
(-0.0533674 -0.110482 1.24625e-20)
(-0.050016 -0.0835664 -3.06988e-20)
(-0.0467507 -0.0635609 1.88478e-20)
(-0.0436151 -0.049188 5.74109e-20)
(-0.0412837 -0.0393905 -5.57436e-20)
(-0.0502306 -0.429963 2.11686e-20)
(-0.0469562 -0.32753 6.10377e-23)
(-0.0450909 -0.248786 2.93292e-20)
(-0.0441737 -0.188729 -2.53243e-20)
(-0.0434153 -0.143191 7.91401e-21)
(-0.0422676 -0.108859 -8.8731e-21)
(-0.0406506 -0.0831572 -4.96061e-21)
(-0.0386729 -0.0641364 -2.90189e-20)
(-0.0365328 -0.0503461 3.16743e-20)
(-0.0349274 -0.0406512 3.29731e-20)
(-0.016164 -0.428859 -3.72713e-21)
(-0.0203797 -0.323382 -3.23375e-21)
(-0.0237143 -0.24409 -2.89615e-21)
(-0.0261987 -0.184873 -1.11737e-20)
(-0.0274532 -0.140835 1.21083e-20)
(-0.0272731 -0.108176 4.39665e-21)
(-0.0258606 -0.0840063 -9.49074e-21)
(-0.0235448 -0.0661692 5.73799e-22)
(-0.0206866 -0.0530686 -5.7384e-21)
(-0.0181181 -0.0435075 -3.63264e-22)
(0.0188125 -0.0262233 -1.20089e-21)
(0.0446607 -0.0639551 -1.18099e-21)
(0.118961 -0.109247 2.57345e-21)
(0.193274 -0.148517 -1.59655e-21)
(0.280164 -0.165963 -3.18778e-22)
(0.368561 -0.156185 -6.49039e-22)
(0.463339 -0.124738 1.55355e-22)
(0.563324 -0.0818265 -6.98974e-23)
(0.664495 -0.039197 -6.63411e-24)
(0.758621 -0.00584767 -2.0607e-23)
(0.838036 0.0144052 4.34742e-23)
(0.898579 0.0227865 -1.01344e-23)
(0.940454 0.023235 1.02724e-23)
(0.966949 0.0198128 1.32811e-23)
(0.982483 0.0153318 -2.15669e-24)
(0.991049 0.0111537 1.46559e-24)
(0.995552 0.00781972 -6.50229e-25)
(0.997877 0.00518074 -2.00878e-25)
(0.998971 0.00353218 1.3105e-25)
(0.99959 0.00169959 2.4712e-25)
(0.0655685 -0.0331388 5.65417e-21)
(0.0988491 -0.0797306 4.22986e-21)
(0.179138 -0.127857 -3.94458e-21)
(0.253067 -0.167864 1.83373e-21)
(0.333667 -0.184914 -3.18288e-21)
(0.412011 -0.174572 -3.52783e-22)
(0.494809 -0.14278 -2.61359e-22)
(0.583248 -0.0991629 -7.97537e-23)
(0.675155 -0.054864 9.98825e-23)
(0.763138 -0.0188019 9.24245e-24)
(0.839212 0.00470477 -9.25699e-24)
(0.898321 0.0162079 -8.73085e-23)
(0.939786 0.0191714 7.94679e-23)
(0.966299 0.017504 5.10364e-24)
(0.981971 0.0141092 -6.12221e-24)
(0.99068 0.0105415 -2.49539e-24)
(0.995295 0.00752437 3.28495e-24)
(0.997704 0.00504358 -2.18544e-24)
(0.99885 0.00346854 -2.7956e-25)
(0.999519 0.00167738 -5.62564e-25)
(0.124546 -0.0432463 -2.00147e-20)
(0.165361 -0.0964427 2.82416e-21)
(0.250846 -0.146034 1.87029e-20)
(0.322981 -0.1857 -8.64598e-21)
(0.395832 -0.201814 -3.0156e-22)
(0.46309 -0.190814 -2.94571e-21)
(0.533043 -0.158868 -2.99506e-22)
(0.60894 -0.114951 -4.51326e-22)
(0.690331 -0.0694765 -8.17759e-23)
(0.770836 -0.0311428 1.99634e-23)
(0.842404 -0.00468886 1.77491e-23)
(0.899222 0.00976377 -8.38779e-24)
(0.939727 0.0151606 -6.96989e-23)
(0.965946 0.0152141 2.53482e-23)
(0.981598 0.0128925 6.11389e-24)
(0.990374 0.00993021 -7.40749e-24)
(0.995066 0.00722794 4.85603e-25)
(0.997544 0.0049047 1.1581e-24)
(0.998735 0.00340283 8.83738e-25)
(0.999451 0.00165401 -8.1416e-25)
(0.195261 -0.0567131 -5.5122e-21)
(0.242924 -0.113771 2.1387e-20)
(0.331785 -0.163312 -1.01503e-20)
(0.400333 -0.201611 -4.69591e-21)
(0.464016 -0.216376 3.56908e-21)
(0.519452 -0.20472 -2.61006e-22)
(0.576173 -0.172837 1.0301e-21)
(0.63908 -0.129011 1.96372e-22)
(0.70921 -0.0828455 1.68145e-22)
(0.781282 -0.0427042 -1.08977e-22)
(0.847408 -0.0136537 2.28549e-22)
(0.901193 0.00353012 -3.64555e-23)
(0.940245 0.0112441 -1.30213e-25)
(0.965881 0.0129634 -3.84299e-23)
(0.981361 0.0116909 -5.92038e-24)
(0.99013 0.0093239 4.59784e-24)
(0.994866 0.00693225 2.31725e-24)
(0.997397 0.00476493 1.94298e-24)
(0.998626 0.00333545 -1.19004e-24)