/*--------------------------------*- C++ -*----------------------------------*\
  =========                 |
  \\      /  F ield         | OpenFOAM: The Open Source CFD Toolbox
   \\    /   O peration     | Website:  https://openfoam.org
    \\  /    A nd           | Version:  6.0
     \\/     M anipulation  |
\*---------------------------------------------------------------------------*/
FoamFile
{
    version     2.0;
    format      ascii;
    class       volVectorField;
    location    "9.5";
    object      U;
}
// * * * * * * * * * * * * * * * * * * * * * * * * * * * * * * * * * * * * * //

dimensions      [0 1 -1 0 0 0 0];

internalField   nonuniform List<vector> 
2400
(
(2.58934 -12.5167 -3.2721e-19)
(0.415948 -11.923 1.12532e-19)
(0.562129 -11.3486 -8.75451e-20)
(0.776147 -10.663 -4.69479e-20)
(0.827176 -9.97782 -6.41732e-20)
(0.850562 -9.31963 8.55368e-20)
(0.873503 -8.70736 2.81995e-20)
(0.894169 -8.15351 4.12918e-20)
(0.919468 -7.66094 -4.27141e-20)
(0.932978 -7.22736 -2.41831e-21)
(3.58278 -12.337 3.78569e-19)
(1.37096 -11.9729 -1.28048e-20)
(1.46629 -11.399 6.55454e-20)
(1.61889 -10.6908 4.52939e-19)
(1.61016 -9.99277 -2.93878e-19)
(1.57753 -9.32645 -1.48991e-20)
(1.54924 -8.70963 -3.07477e-21)
(1.52474 -8.15433 -3.92544e-21)
(1.51099 -7.66243 1.15484e-19)
(1.48697 -7.23372 -3.00411e-21)
(4.56443 -12.0803 6.63248e-19)
(2.33287 -11.9446 4.53611e-19)
(2.37698 -11.373 -1.08299e-18)
(2.46464 -10.6465 2.98533e-19)
(2.39349 -9.9408 3.8282e-19)
(2.30305 -9.27152 -2.10748e-19)
(2.2225 -8.65503 -1.48307e-19)
(2.1526 -8.10238 1.07118e-19)
(2.09971 -7.61453 -1.13141e-19)
(2.03659 -7.19465 1.89568e-19)
(5.52614 -11.7455 -2.28311e-18)
(3.29508 -11.8357 7.20302e-19)
(3.28719 -11.2691 -6.50163e-19)
(3.30684 -10.5293 2.61997e-19)
(3.17122 -9.82146 -2.5091e-19)
(3.02161 -9.15465 3.28928e-19)
(2.88817 -8.54346 1.11095e-19)
(2.77302 -7.99773 -4.3726e-19)
(2.68126 -7.51808 -2.9754e-19)
(2.57828 -7.11305 3.23386e-19)
(6.46226 -11.3333 1.36928e-19)
(4.25037 -11.6453 -2.82945e-19)
(4.18993 -11.0864 -1.10037e-19)
(4.13904 -10.3391 -1.28488e-19)
(3.93761 -9.63506 -6.19285e-19)
(3.72813 -8.97637 8.74747e-20)
(3.54135 -8.37531 -4.99519e-20)
(3.38066 -7.8403 4.41164e-19)
(3.24935 -7.37246 -2.16446e-19)
(3.10509 -6.98788 -1.45173e-19)
(7.36533 -10.8441 1.98829e-18)
(5.19095 -11.3724 -1.32617e-19)
(5.07741 -10.8244 1.74245e-18)
(4.9541 -10.0758 -2.25344e-19)
(4.68652 -9.38233 7.41117e-19)
(4.41774 -8.7382 -8.69097e-20)
(4.17845 -8.15288 4.62782e-21)
(3.9725 -7.63281 3.7364e-19)
(3.80041 -7.18034 -1.97303e-19)
(3.61312 -6.8207 4.39665e-19)
(8.22922 -10.28 -7.90699e-19)
(6.10948 -11.0173 1.34933e-19)
(5.94196 -10.4833 -4.79328e-19)
(5.74426 -9.73952 -3.83145e-19)
(5.41022 -9.06332 1.37196e-20)
(5.08336 -8.44068 1.08406e-18)
(4.7942 -7.8777 -3.7276e-19)
(4.54603 -7.37803 1.16326e-19)
(4.33474 -6.94511 -4.84258e-19)
(4.10507 -6.61415 -3.18863e-19)
(9.04805 -9.64387 3.20228e-18)
(6.99947 -10.581 -3.7205e-19)
(6.77684 -10.0637 -2.36501e-18)
(6.5024 -9.33054 1.19182e-19)
(6.10035 -8.67743 3.78621e-19)
(5.71461 -8.08211 -5.09947e-19)
(5.3768 -7.54735 -5.72793e-19)
(5.09086 -7.0742 8.22974e-19)
(4.84751 -6.66862 -7.54404e-20)
(4.58393 -6.37887 -5.28478e-19)
(9.81684 -8.93936 -2.62058e-18)
(7.85552 -10.0658 1.15395e-18)
(7.57722 -9.56773 1.46927e-18)
(7.2245 -8.85031 3.31198e-19)
(6.7527 -8.22458 -1.08473e-18)
(6.30432 -7.65952 6.30242e-19)
(5.91177 -7.15495 3.24347e-19)
(5.58185 -6.71204 6.22241e-19)
(5.30481 -6.34653 7.86839e-19)
(5.01529 -6.12701 -4.07776e-19)
(10.5294 -8.16944 8.42228e-19)
(8.67178 -9.47433 -2.94411e-19)
(8.33897 -8.99864 -8.7563e-20)
(7.90906 -8.30198 3.04992e-19)
(7.36956 -7.70667 2.16368e-19)
(6.85865 -7.17217 -1.62973e-19)
(6.40413 -6.69609 -2.64281e-19)
(6.00789 -6.28436 9.96154e-20)
(5.6573 -5.96946 -3.10472e-19)
(5.30663 -5.82938 2.4805e-19)
(13.6892 1.79311 4.51912e-20)
(13.7352 0.705021 1.43839e-19)
(13.6939 -0.379754 -4.4856e-19)
(13.5684 -1.45429 4.13245e-19)
(13.3605 -2.51215 1.65388e-19)
(13.0729 -3.54701 2.13985e-18)
(12.7073 -4.55285 -8.50973e-19)
(12.2681 -5.52364 -1.22748e-18)
(11.7561 -6.45406 3.1194e-18)
(11.1779 -7.33771 -2.4624e-18)
(13.4198 -0.579182 1.32495e-19)
(13.2895 -1.62115 -3.14181e-21)
(13.0723 -2.64676 -3.29273e-19)
(12.7719 -3.64875 8.83388e-19)
(12.3915 -4.62035 -3.09754e-19)
(11.9353 -5.55542 2.42301e-18)
(11.4072 -6.44754 -1.61066e-18)
(10.8124 -7.29142 2.34535e-18)
(10.1551 -8.08063 -2.27951e-18)
(9.44062 -8.8111 -8.95972e-19)
(12.6648 -0.550651 -1.97373e-19)
(12.5657 -1.52534 6.0517e-19)
(12.3842 -2.48892 -1.05739e-18)
(12.1223 -3.43448 5.58238e-19)
(11.7825 -4.35502 -4.6342e-19)
(11.3685 -5.24424 -1.87376e-18)
(10.8841 -6.09555 -5.13431e-19)
(10.3341 -6.90297 -2.45276e-18)
(9.7231 -7.66011 1.50254e-18)
(9.05664 -8.36093 9.0252e-19)
(11.6943 -0.391067 7.66843e-20)
(11.626 -1.28584 -1.32997e-19)
(11.4823 -2.17424 -1.84825e-19)
(11.2637 -3.05027 -7.66401e-19)
(10.9728 -3.90698 5.15769e-19)
(10.612 -4.73876 -1.0151e-19)
(10.1852 -5.53895 -1.03526e-18)
(9.69629 -6.30194 -4.41699e-20)
(9.15045 -7.02124 3.39244e-19)
(8.55305 -7.6902 4.66613e-20)
(10.7989 -0.36045 -7.74728e-20)
(10.7392 -1.18166 -3.05002e-19)
(10.6113 -1.99819 2.48582e-20)
(10.4142 -2.80568 5.82242e-19)
(10.1516 -3.59673 6.39071e-19)
(9.82367 -4.36777 -4.40395e-19)
(9.43607 -5.11141 -6.28564e-20)
(8.99062 -5.82405 -3.01704e-19)
(8.49448 -6.49836 -4.39472e-19)
(7.95223 -7.12849 7.47448e-19)
(10.0274 -0.338305 1.90983e-20)
(9.96904 -1.09591 2.42403e-19)
(9.8493 -1.84887 -5.69799e-19)
(9.66426 -2.5953 6.9443e-19)
(9.42102 -3.32611 4.24955e-19)
(9.11493 -4.04178 2.33692e-19)
(8.75689 -4.73214 -1.7537e-19)
(8.34268 -5.39879 -5.16693e-19)
(7.88653 -6.03038 1.03604e-18)
(7.38846 -6.62489 -1.22427e-19)
(9.36743 -0.309759 3.46725e-20)
(9.30783 -1.01247 -2.51221e-19)
(9.19412 -1.7096 -1.64638e-19)
(9.01625 -2.4027 -3.62133e-19)
(8.78899 -3.07895 -5.17073e-20)
(8.49698 -3.74601 -5.1641e-19)
(8.16385 -4.38705 -3.47578e-19)
(7.76957 -5.01576 -5.44537e-20)
(7.34845 -5.609 -7.03762e-19)
(6.88348 -6.17523 8.90076e-19)
(8.7974 -0.280115 -2.73523e-20)
(8.73527 -0.935956 2.02941e-19)
(8.62762 -1.58443 -9.09866e-20)
(8.45332 -2.23154 1.96175e-19)
(8.24174 -2.85815 4.73339e-19)
(7.95654 -3.48271 8.08611e-19)
(7.64769 -4.07609 -2.11043e-19)
(7.25935 -4.6761 -7.86838e-19)
(6.87376 -5.23586 2.43189e-19)
(6.42385 -5.79082 -1.46459e-18)
(8.29756 -0.244772 3.76648e-20)
(8.23212 -0.862168 -4.52869e-20)
(8.13168 -1.47046 -4.3066e-19)
(7.95777 -2.08056 1.30271e-19)
(7.76322 -2.66497 -3.18036e-19)
(7.47699 -3.25537 -2.03298e-19)
(7.19427 -3.80348 -8.59803e-20)
(6.79137 -4.38563 3.62294e-19)
(6.446 -4.91484 3.39427e-19)
(5.96693 -5.51017 2.91259e-19)
(7.85225 -0.223209 -7.87248e-20)
(7.78038 -0.806317 1.36557e-19)
(7.68656 -1.38037 6.92237e-20)
(7.50859 -1.96251 1.86764e-19)
(7.33075 -2.5152 -1.5674e-19)
(7.03393 -3.08532 -1.48991e-20)
(6.7755 -3.59834 -4.53267e-19)
(6.33263 -4.17754 6.22253e-19)
(6.0247 -4.66617 -4.05265e-19)
(5.45287 -5.36981 1.27297e-19)
(8.5523 11.1086 -1.42772e-18)
(9.40322 10.4134 -1.37166e-18)
(10.1908 9.64797 1.57502e-18)
(10.9103 8.81898 -2.42331e-18)
(11.5565 7.9321 1.74969e-18)
(12.1245 6.99387 -1.20349e-18)
(12.6103 6.01117 -2.67425e-19)
(13.0115 4.99229 -2.51683e-19)
(13.3256 3.94417 3.98274e-19)
(13.5526 2.8762 2.85658e-20)
(9.91317 8.88154 1.62548e-18)
(10.6192 8.12864 2.73644e-19)
(11.2576 7.31529 -1.97735e-18)
(11.8231 6.44729 -1.45993e-18)
(12.3106 5.5303 1.2127e-18)
(12.716 4.57099 -9.47607e-19)
(13.0355 3.57707 1.04065e-18)
(13.2672 2.55672 -2.96931e-19)
(13.4088 1.51851 -8.60368e-19)
(13.4604 0.470189 -1.32284e-19)
(9.22822 8.10408 -2.59527e-19)
(9.89212 7.43107 -2.06032e-19)
(10.4966 6.70082 -2.01953e-18)
(11.0358 5.91717 1.47483e-18)
(11.5051 5.08474 1.49383e-18)
(11.9002 4.2096 6.24682e-19)
(12.2178 3.29881 -2.43274e-19)
(12.455 2.35975 -4.97683e-19)
(12.6094 1.40003 -3.79966e-20)
(12.6797 0.427233 3.98947e-20)
(8.40471 7.41096 3.3026e-19)
(9.01851 6.81505 -7.7065e-19)
(9.57949 6.16637 -2.96499e-19)
(10.0825 5.46693 -7.15973e-19)
(10.5234 4.72065 -7.22045e-19)
(10.8986 3.93328 1.19461e-18)
(11.2051 3.11137 7.54979e-19)
(11.4399 2.26122 -6.35801e-19)
(11.6009 1.38956 2.68065e-20)
(11.6859 0.502998 -2.65503e-20)
(7.79608 6.76002 -1.16468e-18)
(8.35636 6.2191 1.27587e-18)
(8.86687 5.6303 -3.21197e-19)
(9.3238 4.99347 6.33371e-19)
(9.72446 4.31266 2.855e-19)
(10.0658 3.594 -6.85289e-19)
(10.3455 2.84363 3.13948e-19)
(10.5604 2.06687 -3.38457e-19)
(10.7088 1.26996 -3.21701e-19)
(10.7883 0.458511 1.34497e-19)
(7.3048 6.22028 -1.47993e-19)
(7.82017 5.72465 2.31696e-19)
(8.28587 5.18452 -2.7332e-19)
(8.70024 4.59751 -1.19725e-18)
(9.06312 3.96929 1.73813e-19)
(9.37193 3.3066 -1.55507e-20)
(9.62484 2.61497 -5.4998e-19)
(9.818 1.89884 -1.84145e-19)
(9.95098 1.16438 1.67029e-19)
(10.0203 0.416331 -4.87075e-20)
(6.88573 5.77067 -5.76709e-19)
(7.36561 5.31674 8.11893e-22)
(7.79466 4.81722 2.57257e-19)
(8.17255 4.27069 6.55936e-19)
(8.50275 3.6867 1.28768e-19)
(8.78314 3.07151 3.17393e-19)
(9.01257 2.42945 6.02915e-19)
(9.18611 1.76447 -2.52419e-19)
(9.30513 1.08316 2.09005e-19)
(9.36424 0.389318 -7.88994e-20)
(6.51866 5.39102 9.41173e-19)
(6.96389 4.98164 4.95356e-19)
(7.36354 4.51387 2.01091e-19)
(7.71235 3.99944 -3.00368e-19)
(8.01585 3.45346 -1.59706e-19)
(8.27229 2.87852 -3.41551e-19)
(8.48219 2.2777 2.99731e-20)
(8.63913 1.65533 -7.48435e-20)
(8.747 1.01899 -4.35199e-19)
(8.79697 0.37122 5.76645e-20)
(6.22565 5.05707 -7.81414e-20)
(6.60913 4.70737 -5.64615e-19)
(6.97441 4.26321 -2.65007e-19)
(7.2998 3.77626 5.71986e-20)
(7.58178 3.26578 -3.38051e-20)
(7.81751 2.72619 2.35469e-19)
(8.01135 2.1603 1.15782e-19)
(8.15505 1.57369 1.6748e-19)
(8.25533 0.975378 1.97731e-19)
(8.29793 0.366339 -7.9999e-20)
(6.09301 4.70074 -2.34122e-19)
(6.37273 4.41094 3.92119e-19)
(6.66783 3.98357 -5.75992e-19)
(6.96403 3.52643 -1.76969e-20)
(7.22217 3.05476 4.8154e-19)
(7.4313 2.55382 1.91157e-20)
(7.60369 2.02651 6.34806e-20)
(7.73071 1.47835 -4.18413e-19)
(7.82158 0.919599 -3.30113e-21)
(7.8547 0.34911 3.62899e-20)
(0.831279 6.6219 1.45016e-20)
(0.812986 7.02562 -6.64007e-21)
(0.818537 7.4691 -4.54284e-21)
(0.813254 7.96317 5.16452e-20)
(0.798734 8.5264 -2.23096e-20)
(0.772445 9.19297 -9.12143e-20)
(0.747015 10.0246 1.09826e-19)
(0.847398 11.097 3.88207e-20)
(0.79587 12.3259 6.21954e-20)
(-1.73003 13.497 1.13671e-19)
(1.37082 6.59677 3.6259e-20)
(1.38329 7.0082 -1.25511e-19)
(1.42018 7.45752 1.29357e-19)
(1.45181 7.95842 2.80658e-20)
(1.48051 8.52975 -6.01814e-20)
(1.5057 9.20619 6.78845e-20)
(1.54461 10.0476 2.65931e-19)
(1.72692 11.1148 -3.52727e-19)
(1.76702 12.3306 1.26471e-20)
(-0.670144 13.6405 -4.81848e-19)
(1.90953 6.5477 1.56535e-19)
(1.95284 6.95992 -2.27521e-19)
(2.02207 7.40803 -9.73124e-20)
(2.09247 7.90929 -1.00918e-20)
(2.16632 8.48303 -1.05856e-19)
(2.2449 9.16389 -5.17079e-20)
(2.34966 10.009 8.64819e-20)
(2.61342 11.0634 2.45522e-19)
(2.74273 12.2578 1.96735e-19)
(0.401548 13.6991 -7.64861e-19)
(2.45854 6.43387 1.51025e-19)
(2.52888 6.85155 -1.8577e-19)
(2.62832 7.30249 -2.0065e-19)
(2.73645 7.80567 1.09169e-19)
(2.85489 8.38093 6.46536e-19)
(2.98684 9.06311 -2.6465e-19)
(3.15767 9.90668 2.21343e-19)
(3.50146 10.9415 -7.75898e-19)
(3.71671 12.107 4.91308e-19)
(1.47823 13.673 1.16947e-18)
(2.99229 6.30993 1.09036e-19)
(3.09142 6.72138 -8.76086e-20)
(3.22393 7.16367 2.50247e-19)
(3.37283 7.65909 -2.33024e-19)
(3.5382 8.22828 1.77691e-19)
(3.72511 8.90522 1.61649e-19)
(3.96278 9.74052 1.65265e-19)
(4.38506 10.7482 1.2492e-19)
(4.6825 11.8776 7.75697e-19)
(2.55306 13.5612 5.33728e-19)
(3.54225 6.09675 -3.30935e-19)
(3.66167 6.51774 -2.71334e-19)
(3.82123 6.96253 4.50509e-19)
(4.00658 7.4554 -5.09912e-19)
(4.216 8.01903 -2.5463e-19)
(4.45635 8.68786 -6.37887e-19)
(4.75991 9.50945 2.80326e-20)
(5.2582 10.483 -7.24064e-19)
(5.63359 11.5695 -2.28641e-19)
(3.61884 13.3635 -1.60752e-18)
(4.05737 5.89771 4.85369e-19)
(4.20377 6.30749 -7.79931e-19)
(4.39654 6.73589 6.60934e-19)
(4.62288 7.21194 -1.51067e-19)
(4.87888 7.7603 -6.37702e-20)
(5.17365 8.41359 8.63674e-19)
(5.54278 9.21434 -5.66059e-19)
(6.11428 10.1463 -6.15913e-19)
(6.56266 11.1831 -2.18217e-19)
(4.66829 13.0796 1.46936e-18)
(4.61348 5.57517 -8.92235e-21)
(4.76352 6.00888 4.27658e-19)
(4.97176 6.44332 -2.09163e-19)
(5.22883 6.91211 2.93626e-19)
(5.52632 7.44667 -5.05174e-19)
(5.87286 8.08131 -4.32823e-19)
(6.30546 8.85527 2.6973e-19)
(6.94656 9.73859 -6.96111e-19)
(7.46297 10.7197 1.95876e-18)
(5.6938 12.7113 -7.42161e-19)
(5.1042 5.31793 -2.32243e-19)
(5.277 5.73179 -1.42046e-19)
(5.5126 6.13635 5.97122e-19)
(5.80759 6.57645 -8.97426e-19)
(6.14928 7.08569 9.10671e-19)
(6.54725 7.69398 -1.10129e-18)
(7.04143 8.4339 1.27823e-19)
(7.74799 9.26122 5.8849e-19)
(8.32634 10.1804 -3.3602e-18)
(6.68826 12.2582 2.71066e-18)
(5.6751 4.92337 5.90942e-19)
(5.80128 5.36221 -5.80708e-19)
(6.03494 5.77155 6.1911e-19)
(6.36175 6.19284 1.60665e-19)
(6.74432 6.67589 -4.34053e-19)
(7.19062 7.25285 3.43386e-19)
(7.74348 7.95166 4.35555e-19)
(8.5111 8.71557 -7.6914e-20)
(9.1466 9.56706 4.097e-19)
(7.64348 11.7253 1.7131e-21)
(-3.62693 4.96398 -2.30998e-19)
(-3.92919 5.08476 1.96698e-19)
(-4.22703 5.31664 -1.00125e-19)
(-4.55058 5.61507 2.34835e-19)
(-4.91823 5.95573 2.24923e-19)
(-5.34904 6.34896 7.40308e-20)
(-5.87386 6.84927 6.42359e-19)
(-6.47425 7.62328 3.82227e-19)
(-7.36687 8.52261 9.21798e-19)
(-10.2464 7.98374 -4.42313e-19)
(-3.3748 5.24663 1.40523e-19)
(-3.63994 5.42866 1.89916e-19)
(-3.88266 5.70704 -2.91174e-19)
(-4.15911 6.0344 -1.64023e-19)
(-4.48728 6.40167 -3.3797e-19)
(-4.88257 6.82767 6.02158e-19)
(-5.36993 7.37068 -7.58466e-19)
(-5.91575 8.1943 -3.01145e-19)
(-6.74165 9.15799 -7.19962e-19)
(-9.64109 8.8073 1.11901e-18)
(-3.00079 5.48551 -3.50415e-20)
(-3.2527 5.72989 4.22348e-20)
(-3.47365 6.04839 -4.23094e-19)
(-3.72377 6.40599 2.9638e-19)
(-4.02075 6.80416 2.87272e-19)
(-4.38114 7.26634 2.05954e-19)
(-4.82775 7.85334 -2.74905e-19)
(-5.31403 8.72459 1.45675e-18)
(-6.06659 9.7472 2.55847e-19)
(-8.97017 9.58266 -8.8531e-19)
(-2.58272 5.72039 -3.39234e-19)
(-2.81443 6.00373 2.5145e-19)
(-3.01465 6.35069 -5.59682e-20)
(-3.24254 6.73571 4.51103e-19)
(-3.5125 7.16494 -1.26438e-19)
(-3.84 7.66367 -1.13819e-20)
(-4.24491 8.2942 2.22029e-19)
(-4.66864 9.21025 3.21485e-19)
(-5.34334 10.286 -7.84354e-20)
(-8.23745 10.3054 1.08912e-18)
(-2.14827 5.94356 2.837e-19)
(-2.35304 6.25371 3.89438e-20)
(-2.52689 6.62229 -3.12195e-19)
(-2.72825 7.03036 -1.47144e-21)
(-2.9686 7.4873 4.92559e-20)
(-3.26147 8.01988 -4.53559e-19)
(-3.62234 8.69141 1.43661e-19)
(-3.9805 9.64808 -1.12705e-18)
(-4.57359 10.7703 8.32734e-20)
(-7.4459 10.9701 -1.37466e-18)
(-1.69454 6.13961 -8.73526e-21)
(-1.87037 6.47344 2.6242e-19)
(-2.01603 6.86104 -2.58165e-19)
(-2.18812 7.28941 2.86189e-20)
(-2.39561 7.77089 -6.13986e-20)
(-2.65043 8.33403 3.97919e-19)
(-2.96351 9.04297 8.68235e-20)
(-3.25242 10.035 6.47907e-20)
(-3.76034 11.1962 1.94157e-19)
(-6.59958 11.5719 2.78134e-19)
(-1.21954 6.30547 -1.63645e-19)
(-1.36563 6.66043 2.0188e-19)
(-1.48284 7.0646 1.03819e-20)
(-1.6245 7.51088 3.67281e-19)
(-1.79704 8.01406 -2.1823e-19)
(-2.01082 8.60444 1.71948e-19)
(-2.27228 9.34675 -1.79073e-19)
(-2.48825 10.368 4.54459e-19)
(-2.90784 11.5598 -5.15398e-19)
(-5.70306 12.106 5.6262e-19)
(-0.724862 6.436 -1.0636e-19)
(-0.840379 6.80865 1.39473e-19)
(-0.9287 7.22722 -7.09359e-20)
(-1.03888 7.68985 -5.88768e-20)
(-1.17485 8.2128 1.51198e-19)
(-1.34523 8.82773 -2.72536e-19)
(-1.55185 9.59948 -2.1608e-19)
(-1.69187 10.6438 7.9827e-19)
(-2.02081 11.8577 -3.45539e-19)
(-4.76236 12.5691 -5.21123e-19)
(-0.216968 6.5363 -1.06049e-19)
(-0.300507 6.92208 2.68302e-20)
(-0.35843 7.35127 1.95841e-20)
(-0.43522 7.82683 1.09608e-21)
(-0.532564 8.36616 -1.00102e-19)
(-0.657104 9.00198 3.4003e-19)
(-0.805865 9.79864 -3.47374e-19)
(-0.867485 10.8594 -5.17479e-20)
(-1.10446 12.0868 8.02944e-21)
(-3.78231 12.9573 -3.79041e-19)
(0.303811 6.59464 3.38766e-20)
(0.252619 6.99138 6.76082e-21)
(0.225859 7.42992 -1.39942e-20)
(0.183913 7.91698 -2.22557e-20)
(0.126952 8.47049 -6.59964e-20)
(0.0503945 9.12399 5.09629e-20)
(-0.0379474 9.94089 3.55891e-20)
(-0.0193089 11.0112 6.97302e-20)
(-0.163377 12.244 -9.70648e-20)
(-2.77045 13.2682 2.79312e-19)
(-3.73305 4.53523 -2.31001e-19)
(-4.2344 3.9293 1.077e-19)
(-4.48472 3.48907 -6.83055e-20)
(-4.85024 2.99723 -1.18287e-19)
(-5.07857 2.53726 -7.14142e-20)
(-5.32865 2.05168 -2.80902e-21)
(-5.50196 1.56535 -1.45256e-21)
(-5.6638 1.06596 -1.99993e-20)
(-5.77396 0.562503 -1.81997e-20)
(-5.85793 0.0542807 8.93854e-21)
(-4.16988 4.66869 -1.97258e-19)
(-4.5841 4.14133 -1.23518e-19)
(-4.86204 3.67633 -1.55356e-19)
(-5.20083 3.17296 2.35022e-20)
(-5.44408 2.69051 7.83068e-20)
(-5.69124 2.18506 1.40564e-19)
(-5.87448 1.67661 -4.46928e-20)
(-6.03808 1.15473 1.49078e-19)
(-6.15269 0.627106 1.77209e-20)
(-6.23628 0.0935928 -1.39892e-20)
(-4.55767 4.87278 5.65034e-19)
(-4.93393 4.38181 -1.0418e-19)
(-5.2425 3.8985 3.05817e-19)
(-5.56724 3.38231 7.5837e-20)
(-5.8274 2.87284 -3.19733e-19)
(-6.07468 2.34264 -1.80585e-19)
(-6.26908 1.80731 -7.73846e-20)
(-6.436 1.2587 3.7571e-20)
(-6.55675 0.703479 -8.33988e-20)
(-6.64218 0.141643 1.09419e-20)
(-4.93001 5.14992 -5.59931e-19)
(-5.30563 4.65444 3.28497e-19)
(-5.63985 4.14729 1.86953e-20)
(-5.96329 3.6132 1.52365e-19)
(-6.23894 3.07407 2.1687e-19)
(-6.48979 2.51607 2.03886e-20)
(-6.69482 1.95022 1.58801e-19)
(-6.86635 1.3714 7.14495e-20)
(-6.99362 0.785119 1.04619e-19)
(-7.08204 0.19161 -1.57538e-20)
(-5.32899 5.46952 3.95079e-19)
(-5.71729 4.95425 -6.16985e-19)
(-6.07172 4.41908 -5.83348e-20)
(-6.40098 3.86099 8.15212e-20)
(-6.68957 3.29057 -1.04683e-19)
(-6.94596 2.70262 -1.39474e-19)
(-7.15988 2.10412 -3.11276e-19)
(-7.33615 1.49289 2.62776e-19)
(-7.46886 0.873206 -2.81456e-20)
(-7.55999 0.24578 -1.05552e-20)
(-5.78662 5.83378 -9.83544e-19)
(-6.19289 5.2891 5.58293e-19)
(-6.56467 4.72065 2.11556e-19)
(-6.90318 4.13066 3.05062e-20)
(-7.2023 3.52455 1.07712e-19)
(-7.46425 2.90181 -3.13069e-19)
(-7.68413 2.26671 -2.83303e-19)
(-7.86318 1.61923 -9.53946e-21)
(-7.99808 0.962635 5.46537e-20)
(-8.08909 0.298187 3.74357e-20)
(-6.34134 6.293 -2.71041e-19)
(-6.77092 5.70704 -1.72178e-19)
(-7.16136 5.09581 -6.32654e-20)
(-7.5124 4.46319 2.37674e-19)
(-7.82163 3.81281 8.90574e-20)
(-8.08921 3.1464 -2.65913e-19)
(-8.31278 2.46693 3.79328e-19)
(-8.49221 1.77573 9.07113e-20)
(-8.62558 1.07535 6.63878e-20)
(-8.71243 0.367526 -3.88573e-20)
(-6.98903 7.01585 -8.29401e-19)
(-7.45866 6.37743 -8.13797e-19)
(-7.8823 5.71216 1.31906e-18)
(-8.26014 5.02452 -4.5854e-19)
(-8.59118 4.3177 2.60136e-19)
(-8.87519 3.59452 -1.92361e-19)
(-9.11101 2.85761 -3.28137e-19)
(-9.29816 2.1091 4.34683e-19)
(-9.43552 1.35129 -2.04279e-21)
(-9.52234 0.586305 1.02934e-19)
(-7.93897 7.84616 5.06736e-19)
(-8.45693 7.1346 1.27636e-18)
(-8.92014 6.39397 7.26089e-19)
(-9.32932 5.62851 8.84598e-19)
(-9.68401 4.84204 -1.29106e-18)
(-9.98376 4.03808 3.10282e-19)
(-10.2281 3.21982 -5.18357e-19)
(-10.4164 2.39021 5.75522e-20)
(-10.5483 1.55196 3.65374e-19)
(-10.6224 0.708021 4.29643e-20)
(-10.7808 7.11657 2.86395e-19)
(-11.2411 6.217 7.37951e-19)
(-11.6326 5.28912 -5.35239e-19)
(-11.9522 4.34003 -4.29105e-19)
(-12.2011 3.37414 1.91959e-19)
(-12.3781 2.39703 9.26155e-19)
(-12.4837 1.41342 1.12581e-19)
(-12.518 0.428282 2.58174e-19)
(-12.4814 -0.553884 -1.2803e-19)
(-12.3731 -1.52837 -3.01349e-20)
(-5.89774 -0.453811 5.48491e-21)
(-5.90283 -0.961299 -2.82767e-20)
(-5.86649 -1.46563 1.53425e-19)
(-5.79336 -1.96437 -9.91805e-20)
(-5.68144 -2.45311 6.43613e-20)
(-5.53077 -2.92635 -9.28519e-20)
(-5.3331 -3.38119 4.23488e-19)
(-5.08254 -3.82407 4.54922e-20)
(-4.79735 -4.24809 -1.36412e-19)
(-4.51072 -4.59179 2.71418e-19)
(-6.27535 -0.441665 3.06578e-20)
(-6.27676 -0.977107 -7.98142e-20)
(-6.23493 -1.50993 -6.56631e-20)
(-6.15289 -2.03735 -5.04698e-20)
(-6.0283 -2.55528 -1.40711e-19)
(-5.86177 -3.05885 1.14205e-20)
(-5.65021 -3.54509 -1.96315e-20)
(-5.38871 -4.01563 1.56996e-19)
(-5.07404 -4.46476 3.02049e-19)
(-4.72228 -4.87442 -1.37843e-20)
(-6.68317 -0.423099 -2.39435e-20)
(-6.68387 -0.988666 1.90314e-19)
(-6.64021 -1.55206 3.35458e-20)
(-6.55393 -2.11023 -1.10541e-20)
(-6.42295 -2.65947 1.6255e-19)
(-6.24762 -3.19584 7.79508e-20)
(-6.0267 -3.71647 1.58582e-19)
(-5.75813 -4.21916 -9.37307e-20)
(-5.43726 -4.69973 -2.81784e-19)
(-5.06589 -5.15888 -6.73154e-19)
(-7.12585 -0.405732 3.60291e-20)
(-7.12685 -1.0047 -9.26588e-20)
(-7.08217 -1.60223 1.21044e-19)
(-6.99244 -2.19519 -2.98729e-19)
(-6.85591 -2.78012 -1.59e-19)
(-6.67249 -3.35354 -6.27083e-20)
(-6.44123 -3.91227 -3.60693e-19)
(-6.16142 -4.45259 -1.43992e-19)
(-5.83114 -4.97146 -2.27028e-21)
(-5.45019 -5.47147 2.32165e-19)
(-7.60592 -0.386315 2.48702e-20)
(-7.60678 -1.02082 7.13333e-21)
(-7.56048 -1.65465 9.09244e-20)
(-7.46682 -2.28475 2.85982e-19)
(-7.32434 -2.90778 -5.25645e-20)
(-7.13254 -3.5204 -3.65212e-19)
(-6.8904 -4.11916 6.87711e-19)
(-6.59751 -4.70027 -2.03769e-19)
(-6.25361 -5.26123 -1.9014e-19)
(-5.85949 -5.80235 -4.6071e-19)
(-8.13376 -0.37138 -6.67207e-20)
(-8.13131 -1.04371 6.97458e-20)
(-8.08011 -1.71579 1.78564e-19)
(-7.97953 -2.38461 -1.63203e-19)
(-7.82832 -3.04696 3.87123e-19)
(-7.62576 -3.69951 2.38809e-19)
(-7.37087 -4.33877 -3.73537e-19)
(-7.06325 -4.96125 2.0621e-19)
(-6.70318 -5.56443 7.8565e-19)
(-6.29192 -6.14666 7.35757e-20)
(-8.75106 -0.345231 1.35672e-20)
(-8.74033 -1.06026 -1.37935e-20)
(-8.67888 -1.77465 3.47416e-19)
(-8.56611 -2.48542 -4.11829e-19)
(-8.40095 -3.18944 -6.77342e-19)
(-8.18275 -3.88341 3.72098e-19)
(-7.91076 -4.56396 7.61825e-19)
(-7.5847 -5.22784 2.16327e-19)
(-7.20488 -5.8724 5.19156e-19)
(-6.77247 -6.49504 -5.03876e-19)
(-9.55721 -0.183059 -2.12375e-20)
(-9.53909 -0.953378 -3.00948e-19)
(-9.46696 -1.72175 3.87101e-19)
(-9.34062 -2.48512 1.93828e-19)
(-9.15932 -3.24038 3.55764e-19)
(-8.92276 -3.9842 4.49263e-19)
(-8.63062 -4.7133 -6.65503e-20)
(-8.28299 -5.42467 -4.77208e-19)
(-7.88024 -6.11569 1.62834e-19)
(-7.42322 -6.78344 -1.79881e-19)
(-10.6372 -0.137458 -7.14636e-20)
(-10.5924 -0.980549 1.27597e-19)
(-10.4881 -1.81744 2.9558e-19)
(-10.3245 -2.645 -5.39349e-19)
(-10.1017 -3.45977 5.62102e-19)
(-9.81998 -4.25808 -7.48041e-19)
(-9.48005 -5.03669 8.94547e-19)
(-9.08292 -5.79265 9.27845e-19)
(-8.62953 -6.52347 -1.78318e-19)
(-8.12073 -7.2257 -1.5161e-18)
(-12.1914 -2.4896 -1.2583e-20)
(-11.9386 -3.42982 -1.89205e-19)
(-11.6175 -4.34773 1.47866e-19)
(-11.229 -5.2369 1.54964e-19)
(-10.7753 -6.09373 -3.37097e-19)
(-10.2584 -6.91318 3.17506e-19)
(-9.68116 -7.69154 -4.23048e-19)
(-9.04711 -8.42527 3.28725e-19)
(-8.35962 -9.11142 -1.92814e-18)
(-7.62103 -9.74578 8.7701e-19)
(-6.83355 -10.322 1.28723e-18)
(-7.55822 -7.8939 -6.6637e-19)
(-6.91315 -7.42384 -5.17531e-19)
(-6.28883 -7.09216 6.4773e-19)
(-5.83122 -6.70489 -1.8069e-20)
(-5.41746 -6.32227 4.81916e-19)
(-5.02308 -5.95532 -1.15923e-19)
(-4.65434 -5.60794 5.32323e-20)
(-4.34152 -5.27499 4.36328e-19)
(-4.15636 -4.92791 -7.9359e-20)
(-6.0064 -10.8355 -1.39347e-18)
(-6.94468 -8.52384 2.56935e-18)
(-6.35207 -8.03149 -1.65575e-19)
(-5.75579 -7.6587 -5.48926e-19)
(-5.32355 -7.23396 3.52827e-19)
(-4.93222 -6.81433 -6.70145e-19)
(-4.55912 -6.41228 6.50864e-19)
(-4.21261 -6.03342 -5.81996e-19)
(-3.914 -5.67854 3.05353e-19)
(-3.71425 -5.32019 -1.67378e-19)
(-5.14168 -11.2906 8.5345e-19)
(-6.28353 -9.11312 -1.54297e-18)
(-5.74204 -8.60292 5.37354e-19)
(-5.1757 -8.19058 -2.13058e-19)
(-4.77176 -7.72968 3.16355e-19)
(-4.40687 -7.27444 -1.98218e-19)
(-4.05967 -6.83852 -1.63159e-19)
(-3.73909 -6.42758 1.56193e-19)
(-3.46102 -6.04307 -3.05932e-19)
(-3.26882 -5.66637 3.09113e-19)
(-4.24486 -11.6824 -1.79358e-18)
(-5.57663 -9.65856 1.87822e-19)
(-5.08548 -9.13386 4.89803e-19)
(-4.55133 -8.68304 4.87647e-19)
(-4.1789 -8.1872 -7.42638e-19)
(-3.84421 -7.69798 4.74331e-20)
(-3.52599 -7.2308 -2.24071e-19)
(-3.23237 -6.79329 -3.87803e-19)
(-2.9737 -6.39001 7.07793e-19)
(-2.78438 -6.00948 1.44314e-19)
(-3.31911 -12.0104 1.3039e-18)
(-4.82628 -10.1569 2.14259e-19)
(-4.38465 -9.62017 6.43106e-19)
(-3.88539 -9.13166 -1.92181e-20)
(-3.54796 -8.602 5.71357e-19)
(-3.2475 -8.0801 2.3588e-19)
(-2.96273 -7.58263 4.35589e-19)
(-2.70179 -7.1182 -3.83936e-19)
(-2.47153 -6.69214 -1.5934e-20)
(-2.29906 -6.29671 -2.69427e-19)
(-2.36905 -12.2718 8.91813e-19)
(-4.03502 -10.6037 -7.12406e-19)
(-3.64236 -10.0572 -1.00517e-19)
(-3.181 -9.53186 -1.57529e-19)
(-2.88202 -8.96991 -1.48755e-19)
(-2.61922 -8.41754 -1.56778e-19)
(-2.37068 -7.89279 2.20655e-19)
(-2.14389 -7.40573 -2.28107e-19)
(-1.94214 -6.96248 1.97538e-19)
(-1.78591 -6.55812 8.83825e-21)
(-1.39877 -12.4652 -1.58068e-18)
(-3.20577 -10.9953 -4.91081e-19)
(-2.86173 -10.4405 7.86492e-19)
(-2.44171 -9.87927 -2.25762e-19)
(-2.18489 -9.28682 2.62997e-19)
(-1.96357 -8.70618 -6.45207e-19)
(-1.75505 -8.15631 4.41563e-19)
(-1.56619 -7.64811 -1.31298e-19)
(-1.39721 -7.18737 8.92438e-20)
(-1.26385 -6.76975 -1.82093e-19)
(-0.412938 -12.5886 7.27398e-19)
(-2.34184 -11.3274 -2.05344e-19)
(-2.04645 -10.7654 -2.52878e-19)
(-1.67151 -10.1697 -9.24363e-20)
(-1.46052 -9.54915 5.79984e-20)
(-1.28394 -8.94346 1.09648e-19)
(-1.11792 -8.37222 -1.82748e-19)
(-0.968206 -7.84725 1.05707e-19)
(-0.83231 -7.37395 1.54043e-19)
(-0.723083 -6.94851 -1.84651e-19)
(0.583949 -12.6405 5.58154e-19)
(-1.4469 -11.5958 -1.18239e-20)
(-1.20064 -11.0278 3.90818e-19)
(-0.875035 -10.3994 -2.95008e-19)
(-0.71374 -9.75354 7.67084e-20)
(-0.585341 -9.12616 -7.69573e-20)
(-0.46482 -8.53699 -3.04068e-20)
(-0.356678 -7.99832 -1.4683e-19)
(-0.25627 -7.51474 8.03735e-21)
(-0.175753 -7.08232 9.81175e-20)
(1.58682 -12.6178 -1.09689e-19)
(-0.525538 -11.796 -6.81146e-20)
(-0.329183 -11.2236 -4.33583e-20)
(-0.0572901 -10.5649 -1.27954e-19)
(0.0506169 -9.89732 1.08857e-19)
(0.12789 -9.25234 2.57175e-20)
(0.200713 -8.64951 -6.2298e-20)
(0.265956 -8.10147 -3.94097e-20)
(0.329773 -7.61203 -2.31636e-20)
(0.378822 -7.17793 1.03475e-21)
(0.662292 -6.02105 -1.88575e-21)
(0.437239 -4.28891 -4.27619e-22)
(0.512057 -3.2049 1.1622e-21)
(0.596979 -2.4151 -5.08223e-22)
(0.626035 -1.78277 -5.04494e-23)
(0.658735 -1.30263 3.74942e-23)
(0.679148 -0.924521 4.34317e-23)
(0.693618 -0.631102 -6.21765e-23)
(0.702135 -0.411769 3.99013e-23)
(0.708269 -0.261397 1.80841e-23)
(0.71155 -0.186218 -5.9645e-23)
(0.698339 -0.188417 2.66253e-23)
(0.651121 -0.230195 -2.20482e-23)
(0.567068 -0.244583 -8.49471e-23)
(0.467267 -0.174392 1.33151e-23)
(0.388915 -0.0119572 -5.79487e-23)
(0.392011 0.206882 2.19325e-23)
(0.499587 0.341965 1.75882e-23)
(0.654312 0.404111 -1.72195e-23)
(0.831764 0.254132 -5.27032e-24)
(1.09809 -6.06515 1.35678e-20)
(0.709043 -4.34673 2.92143e-21)
(0.649115 -3.23478 -2.18953e-21)
(0.680715 -2.44086 5.53185e-22)
(0.67879 -1.80109 -8.41302e-22)
(0.687155 -1.3132 4.6887e-22)
(0.692134 -0.931196 -5.01664e-23)
(0.696215 -0.635176 -1.10626e-22)
(0.698027 -0.414234 5.8449e-23)
(0.699766 -0.262702 1.86729e-23)
(0.699828 -0.185593 6.2076e-24)
(0.684306 -0.184286 1.74326e-22)
(0.635839 -0.222151 -2.50733e-22)
(0.551594 -0.234464 -9.04435e-23)
(0.452725 -0.165655 7.2462e-23)
(0.377124 -0.00878268 8.24874e-23)
(0.383071 0.201773 -1.8205e-22)
(0.492718 0.331187 2.34698e-22)
(0.645652 0.391933 4.06454e-23)
(0.823716 0.247819 1.37493e-23)
(1.53486 -6.07537 -2.49975e-20)
(0.990684 -4.39694 1.04891e-20)
(0.795528 -3.27025 1.06468e-20)
(0.767699 -2.47031 -3.29164e-21)
(0.734113 -1.8232 1.29819e-23)
(0.717361 -1.32669 7.77992e-22)
(0.706052 -0.939946 -5.8451e-24)
(0.699419 -0.640778 -2.09066e-22)
(0.694407 -0.417716 -7.02782e-23)
(0.691752 -0.264499 -8.06323e-23)
(0.688732 -0.184975 -3.26557e-23)
(0.671154 -0.179938 9.20674e-24)
(0.621813 -0.214023 2.74956e-22)
(0.537833 -0.22463 -1.50398e-22)
(0.440235 -0.157577 -2.07749e-22)
(0.367354 -0.00638882 2.3414e-22)
(0.375743 0.196147 -6.1028e-23)
(0.486806 0.320335 -1.31863e-22)
(0.63761 0.379863 -1.55332e-22)
(0.816015 0.241547 2.64955e-23)
(1.97368 -6.06255 -7.60253e-21)
(1.28311 -4.43733 1.91078e-20)
(0.952899 -3.30399 -7.64905e-21)
(0.859142 -2.49898 -1.7837e-21)
(0.792397 -1.84699 1.17363e-21)
(0.749764 -1.34256 6.21175e-23)
(0.721188 -0.950676 2.81921e-22)
(0.703411 -0.647913 -1.39989e-22)
(0.69141 -0.422244 2.67379e-22)
(0.684332 -0.266837 1.98254e-22)
(0.678349 -0.184451 -4.37545e-22)
(0.658947 -0.175482 5.83695e-23)
(0.609049 -0.205921 -4.64972e-23)
(0.525715 -0.215153 2.34166e-22)
(0.429687 -0.150163 9.12979e-23)
(0.359468 -0.00471529 -1.75954e-22)
(0.369879 0.190095 -1.55412e-22)
(0.481753 0.309476 -3.0518e-22)
(0.630152 0.367934 2.45654e-22)
(0.808651 0.235326 -5.39976e-23)
(2.41006 -6.01857 3.21919e-21)
(1.58677 -4.45062 2.12101e-21)
(1.12184 -3.32076 4.12762e-22)
(0.954943 -2.51908 3.63544e-21)
(0.853173 -1.8691 1.82127e-21)
(0.784381 -1.35969 -1.12173e-21)
(0.737727 -0.963042 -6.17788e-22)
(0.70835 -0.656483 2.05739e-22)
(0.689163 -0.42781 1.63084e-22)
(0.677606 -0.269758 2.40979e-22)
(0.668753 -0.184102 -5.15848e-23)
(0.647728 -0.171021 -4.32272e-22)
(0.597533 -0.197938 -1.06032e-22)
(0.515148 -0.206089 3.79099e-22)
(0.420942 -0.143408 3.99761e-22)
(0.353326 -0.00369529 -2.20182e-22)
(0.365344 0.183706 6.28486e-22)
(0.477481 0.298672 9.9619e-23)
(0.623252 0.356176 7.73425e-23)
(0.801617 0.229166 -1.78295e-24)
(2.84469 -5.92917 -6.82835e-20)
(1.90144 -4.42263 -8.57035e-21)
(1.30015 -3.31695 6.33605e-21)
(1.05317 -2.53225 -9.81177e-21)
(0.915088 -1.89066 -4.71219e-21)
(0.820831 -1.37826 2.0125e-21)
(0.755725 -0.976888 7.02869e-22)
(0.714344 -0.666348 2.40796e-22)
(0.687767 -0.434356 -4.34376e-22)
(0.671653 -0.27327 -2.18538e-22)
(0.660002 -0.183993 -1.39947e-22)
(0.637524 -0.166646 3.98689e-22)
(0.587236 -0.190156 -2.03898e-22)
(0.50602 -0.197484 -2.81795e-22)
(0.413835 -0.137299 -2.53528e-22)
(0.348778 -0.00325598 4.09566e-22)
(0.362026 0.17707 4.08468e-23)
(0.473931 0.287983 1.80498e-22)
(0.616894 0.344615 -1.41573e-22)
(0.79491 0.223078 1.96951e-23)
(3.27696 -5.79647 -1.26172e-19)
(2.22191 -4.39195 1.90792e-20)
(1.48486 -3.33329 -2.70082e-21)
(1.15327 -2.56505 1.20583e-20)
(0.978072 -1.92437 -3.95447e-21)
(0.859264 -1.40291 -2.46295e-21)
(0.775373 -0.993617 1.82964e-21)
(0.721508 -0.677883 -5.23792e-22)
(0.687303 -0.441986 -1.22421e-21)
(0.666536 -0.277429 -2.70682e-24)