/*--------------------------------*- C++ -*----------------------------------*\
  =========                 |
  \\      /  F ield         | OpenFOAM: The Open Source CFD Toolbox
   \\    /   O peration     | Website:  https://openfoam.org
    \\  /    A nd           | Version:  6.0
     \\/     M anipulation  |
\*---------------------------------------------------------------------------*/
FoamFile
{
    version     2.0;
    format      ascii;
    class       surfaceScalarField;
    location    "9.25";
    object      phi;
}
// * * * * * * * * * * * * * * * * * * * * * * * * * * * * * * * * * * * * * //

dimensions      [0 3 -1 0 0 0 0];

internalField   nonuniform List<scalar> 
4670
(
-0.000195449
-0.0217829
0.0219784
-0.000541206
-0.017084
0.0174297
-0.000910146
-0.0135931
0.013962
-0.00123179
-0.0110122
0.0113339
-0.00147067
-0.00909974
0.00933862
-0.00161515
-0.00766713
0.00781161
-0.00167032
-0.00657138
0.00662655
-0.00165337
-0.00570616
0.00568921
-0.00159072
-0.00499312
0.00493047
-0.00437608
0.00430093
-0.00151557
-0.000183061
-0.0215999
-0.000484108
-0.0167829
-0.000769554
-0.0133076
-0.000967704
-0.0108141
-0.00104365
-0.00902379
-0.000986572
-0.00772421
-0.00080267
-0.00675529
-0.000511164
-0.00599767
-0.000142328
-0.00536196
-0.00478258
0.000264168
-0.000160772
-0.0214391
-0.000386946
-0.0165568
-0.000543953
-0.0131506
-0.000561496
-0.0107965
-0.000406029
-0.00917926
-6.71506e-05
-0.00806309
0.000449193
-0.00727163
0.00112348
-0.00667196
0.00192277
-0.00616124
-0.00566007
0.00280026
-0.000127177
-0.0213119
-0.000248916
-0.016435
-0.000234107
-0.0131654
-1.7227e-05
-0.0110134
0.000431995
-0.00962848
0.00112308
-0.00875417
0.00205131
-0.00819987
0.00319913
-0.00781977
0.00453343
-0.00749554
-0.00712792
0.00600128
-8.13794e-05
-0.0212305
-6.82497e-05
-0.0164481
0.000161687
-0.0133953
0.000664823
-0.0115165
0.00146485
-0.0104285
0.00256834
-0.00985767
0.00397162
-0.00960314
0.00566114
-0.0095093
0.00760781
-0.00944222
-0.00927615
0.00975604
-2.20231e-05
-0.0212085
0.000158345
-0.0166285
0.000648268
-0.0138853
0.00148973
-0.012358
0.00269498
-0.0116338
0.0042633
-0.011426
0.00618911
-0.011529
0.0084633
-0.0117835
0.0110658
-0.0120448
-0.0121558
0.0139455
5.26084e-05
-0.0212611
0.000434895
-0.0170108
0.001232
-0.0146824
0.00246596
-0.013592
0.00413171
-0.0132995
0.00621438
-0.0135087
0.00869943
-0.014014
0.0115776
-0.0146616
0.0148409
-0.0153081
-0.0157695
0.0184547
0.000143987
-0.0214051
0.000763979
-0.0176308
0.0019163
-0.0158347
0.00359841
-0.0152741
0.00578241
-0.0154835
0.00843117
-0.0161574
0.0115096
-0.0170924
0.0149952
-0.0181472
0.0188875
-0.0192004
-0.0200799
0.0231978
0.00025266
-0.0216578
0.0011438
-0.0185219
0.0026954
-0.0173863
0.0048784
-0.0174571
0.0076399
-0.018245
0.0109153
-0.0194328
0.0146368
-0.0208139
0.0187449
-0.0222553
0.0232236
-0.0236791
-0.0250576
0.0282014
0.000378267
-0.022036
0.00156428
-0.0197079
0.00354514
-0.0193671
0.00626734
-0.0201793
0.00965973
-0.0216374
0.0136427
-0.0234158
0.0181297
-0.0253009
0.0230189
-0.0271445
0.0281939
-0.0288541
-0.0304681
0.0336044
0.0302433
0.00118249
-0.0314258
0.0290558
0.00118747
0.0278902
0.00116557
0.0267721
0.00111816
0.0257235
0.00104856
0.0247626
0.000960896
0.0239035
0.000859156
0.0231568
0.000746606
0.0225315
0.000625306
0.000495501
0.0402316
0.00369304
-0.0427421
0.0376021
0.00381695
0.0349241
0.00384354
0.0322652
0.00377712
0.0296877
0.00362603
0.0272474
0.00340124
0.024992
0.00311452
0.0229622
0.00277642
0.021192
0.00239544
0.0019796
0.0490208
0.00684899
-0.0521768
0.0455952
0.00724257
0.0419929
0.00744577
0.0383099
0.00746015
0.0346406
0.00729535
0.0310744
0.00696739
0.0276935
0.00649544
0.024572
0.005898
0.0217768
0.00519063
0.00438922
0.0562738
0.0101746
-0.0595994
0.0525265
0.0109898
0.0484551
0.0115172
0.0441676
0.0117477
0.0397779
0.011685
0.0354005
0.0113448
0.0311463
0.0107496
0.0271217
0.00992256
0.0234311
0.00888125
0.00764105
0.0619411
0.0133577
-0.0651242
0.0582072
0.0147238
0.0540096
0.0157149
0.0494534
0.0163038
0.0446574
0.016481
0.0397481
0.0162541
0.0348546
0.0156431
0.0301082
0.014669
0.0256483
0.0133412
0.011652
0.0661426
0.0162183
-0.0690032
0.0626382
0.0182282
0.0585569
0.0197962
0.0539886
0.0208721
0.0490431
0.0214265
0.0438448
0.0214525
0.0385265
0.0209613
0.0332291
0.0199664
0.0281158
0.0184544
0.016352
0.069082
0.018676
-0.0715397
0.0659272
0.021383
0.0621177
0.0236056
0.0577207
0.0252691
0.052827
0.0263203
0.0475459
0.0267336
0.0419979
0.0265094
0.0363116
0.0256527
0.0306476
0.0241184
0.0216986
0.0709861
0.0207191
-0.0730291
0.0682291
0.0241399
0.0647769
0.0270578
0.0606716
0.0293744
0.0559799
0.031012
0.050788
0.0319255
0.0451901
0.0321072
0.0392757
0.0315672
0.0331506
0.0302435
0.0277047
0.0720651
0.0223775
-0.0737235
0.0697052
0.0264998
0.0666432
0.0301199
0.0628989
0.0331187
0.0585156
0.0353953
0.0535552
0.0368858
0.048082
0.0375805
0.0421262
0.0375229
0.0356523
0.0367174
0.0345029
0.0724885
-0.0738164
0.0237055
0.0704924
0.0284958
0.0678149
0.0327974
0.06446
0.0364736
0.060453
0.0394023
0.0558384
0.0415003
0.0506639
0.0427551
0.0449268
0.04326
0.0384365
0.0432077
0.0424713
0.0367428
-0.000329829
-0.0364129
0.0368705
-0.000127794
0.0367916
7.89642e-05
0.0365088
0.00028283
0.0360312
0.00047755
0.035374
0.000657241
0.0345575
0.000816457
0.0336071
0.000950428
0.032552
0.00105509
0.00112623
0.0508466
-0.00151288
-0.0496635
0.0516037
-0.000884975
0.0519232
-0.000240456
0.0517992
0.000406836
0.0512356
0.00104114
0.0502472
0.00164562
0.0488605
0.00220319
0.0471134
0.00269748
0.0450548
0.0031137
0.00343891
0.0588314
-0.00349139
-0.0568529
0.0602958
-0.00234933
0.061219
-0.00116369
0.0615794
4.63929e-05
0.0613649
0.00125563
0.0605755
0.00243503
0.0592252
0.00355349
0.0573432
0.0045795
0.054974
0.00548289
0.00623617
0.062793
-0.0061065
-0.0601779
0.0648873
-0.00444363
0.0664195
-0.00269589
0.0673516
-0.000885693
0.067654
0.000953158
0.0673087
0.00278032
0.0663111
0.00455109
0.0646722
0.00621847
0.0624197
0.00773534
0.00905647
0.0642383
-0.00918076
-0.0611641
0.0668287
-0.00703397
0.0688807
-0.00474793
0.0703429
-0.00234784
0.0711721
0.000123902
0.0713357
0.00261674
0.0708125
0.00507429
0.0695948
0.00743613
0.0676904
0.00963981
0.0116226
0.0642225
-0.0125627
-0.0608406
0.0671763
-0.0099878
0.0696315
-0.00720307
0.071526
-0.00424242
0.0728101
-0.00116018
0.0734435
0.00198338
0.073395
0.00512281
0.0726431
0.00818804
0.0711778
0.0111051
0.0137972
0.0634435
-0.01615
-0.0598563
0.0666584
-0.0132026
0.0694064
-0.00995113
0.0716213
-0.00645727
0.0732552
-0.00279409
0.0742693
0.000969291
0.07463
0.00476207
0.0743087
0.00850939
0.0732829
0.0121309
0.0155403
0.0623468
-0.0199059
-0.0585909
0.0657528
-0.0166086
0.0686969
-0.0128952
0.0711222
-0.00888253
0.0729947
-0.00466663
0.074285
-0.000321027
0.0749632
0.00408393
0.0749986
0.00847393
0.0743622
0.0127674
0.0168733
0.0612344
-0.0238516
-0.0572887
0.0647609
-0.020135
0.0678014
-0.0159357
0.0703314
-0.0114126
0.0723393
-0.00667451
0.0738072
-0.00178892
0.0747102
0.00318096
0.0750184
0.00816565
0.0747
0.0130858
0.0178498
0.0602952
-0.0562398
-0.0279069
0.0638445
-0.0236843
0.0668639
-0.0189552
0.0694043
-0.013953
0.0714644
-0.00873461
0.0730302
-0.00335474
0.0740787
0.00213254
0.0745808
0.00766354
0.0745044
0.0131622
0.0185378
0.0423807
0.0132115
-0.00792974
-0.0476625
0.0370142
0.0139385
-0.00857197
0.0315641
0.0148044
-0.00935438
0.0260472
0.0158572
-0.0103402
0.0205072
0.017157
-0.0116171
0.0150385
0.0187577
-0.013289
0.00982129
0.0206701
-0.0154529
0.00517362
0.0227883
-0.0181406
0.00162236
0.0247612
-0.0212099
0.0257746
-0.0241522
0.0421534
0.0184662
-0.047408
0.0368125
0.0192793
0.0313874
0.0202296
0.0258947
0.0213498
0.0203788
0.022673
0.0149344
0.0242021
0.00974332
0.0258612
0.0051246
0.027407
0.00160338
0.0282824
0.027378
0.0415534
0.0236634
-0.0467507
0.0362696
0.0245632
0.0309028
0.0255963
0.0254712
0.0267814
0.0200203
0.0281239
0.0146469
0.0295755
0.00953352
0.0309746
0.00499779
0.0319428
0.00155548
0.0317247
0.0289335
0.0405843
0.0287753
-0.0456962
0.0353871
0.0297604
0.0301113
0.0308722
0.024777
0.0321157
0.0194324
0.0334685
0.0141766
0.0348313
0.00919295
0.0359582
0.00479471
0.036341
0.0014805
0.0350389
0.030414
0.0392487
0.0337765
-0.0442499
0.0341666
0.0348425
0.0290137
0.0360251
0.0238132
0.0373162
0.0186164
0.0386653
0.0135253
0.0399224
0.00872373
0.0407598
0.00451742
0.0405473
0.00137966
0.0381767
0.0317936
0.0375464
0.038643
-0.0424129
0.0326073
0.0397817
0.0276098
0.0410225
0.0225804
0.0423456
0.017574
0.0436717
0.0126958
0.0448006
0.00812911
0.0453265
0.0041687
0.0445077
0.0012544
0.041091
0.033048
0.0354701
0.0433505
-0.0401776
0.0307037
0.0445481
0.0258971
0.0458291
0.0210791
0.0471637
0.0163079
0.0484429
0.0116923
0.0494162
0.00741384
0.0496049
0.00375253
0.048169
0.00110667
0.0437368
0.0341547
0.0330006
0.0478672
-0.0375174
0.0284439
0.0491048
0.0238713
0.0504017
0.0193102
0.0517248
0.0148228
0.0529302
0.0105214
0.0537176
0.00658486
0.0535415
0.00327446
0.0514794
0.000939115
0.0460722
0.0350938
0.0300914
0.052157
-0.0343812
0.0258066
0.0533896
0.0215293
0.054679
0.0172792
0.0559749
0.0131279
0.0570815
0.009194
0.0576516
0.00565249
0.057083
0.00274244
0.0543895
0.000755647
0.048059
0.0358495
0.0266902
-0.030773
0.0227911
0.0188792
0.0149979
0.0112388
0.00772629
0.00463145
0.00216803
0.000563471
0.0246602
-0.036055
0.0403259
-0.0289311
0.0206747
-0.0358694
0.0398549
0.0168308
-0.0353498
0.0391936
0.0131528
-0.0343212
0.0379992
0.00971591
-0.0324561
0.0358931
0.0066182
-0.0292757
0.0323735
0.00397467
-0.024125
0.0267685
0.00190696
-0.0161529
0.0182206
0.000536429
-0.00430586
0.0056764
0.0127357
-0.0121992
0.0280904
-0.0317288
-0.0324167
0.0238149
-0.0315938
0.0196243
-0.0311592
0.0155597
-0.0302566
0.0116948
-0.0285913
0.00813304
-0.025714
0.00500593
-0.0209979
0.00247261
-0.0136196
0.000722428
-0.00255568
0.0134581
0.0311032
-0.0272486
-0.0355834
0.0266011
-0.0270917
0.0221296
-0.0266877
0.0177398
-0.0258668
0.0135054
-0.0243568
0.00953301
-0.0217416
0.0059688
-0.0174337
0.00300602
-0.0106568
0.000898749
-0.000448412
0.0143568
0.0337325
-0.0225993
-0.0383818
0.0290373
-0.0223965
0.0243346
-0.021985
0.0196728
-0.021205
0.0151237
-0.0198077
0.0107952
-0.0174131
0.00684483
-0.0134833
0.00349592
-0.00730792
0.00106235
0.00198516
0.0154192
0.0360176
-0.01779
-0.040827
0.0311491
-0.017528
0.0262481
-0.017084
0.0213561
-0.016313
0.0165399
-0.0149915
0.0119066
-0.0127798
0.0076217
-0.00919847
0.00393369
-0.00361992
0.00120976
0.00470909
0.0166289
0.037965
-0.0128364
-0.0429185
0.032944
-0.012507
0.0278735
-0.0120135
0.0227879
-0.0112273
0.0177481
-0.00995176
0.0128588
-0.00789054
0.0082907
-0.00463033
0.00431272
0.000358062
0.00133808
0.00768373
0.017967
0.0395694
-0.00776034
-0.0446455
0.0344202
-0.00735782
0.0292095
-0.00680279
0.0239655
-0.00598337
0.0187438
-0.00473003
0.0136457
-0.00279241
0.00884528
0.000170085
0.0046279
0.00457544
0.001445
0.0108666
0.019412
0.0408219
-0.00258753
-0.0459947
0.035572
-0.00210795
0.0302519
-0.00148273
0.0248851
-0.000616541
0.0195223
0.00063277
0.014262
0.00246795
0.00928029
0.00515175
0.00487527
0.00898046
0.00152873
0.0142132
0.0209407
0.0417131
0.00265291
-0.0469536
0.0363926
0.00321256
0.0309957
0.00391422
0.0255422
0.00483695
0.0200794
0.00609559
0.0147033
0.00784401
0.00959173
0.0102633
0.00505193
0.0135203
0.00158809
0.017677
0.0225288
0.0422356
-0.0475124
0.0368762
0.031436
0.0259327
0.0204113
0.0149662
0.00977667
0.0051563
0.00162341
0.0444728
0.0213853
-0.0255322
0.0479825
0.017458
-0.0209677
0.0509042
0.0130335
-0.0159552
0.0532882
0.00828537
-0.0106694
0.0551225
0.00335799
-0.00519226
0.0563787
-0.00164896
0.000392808
0.0570182
-0.00663477
0.00599524
0.0569995
-0.0114874
0.0115061
0.0562843
-0.0160833
0.0167985
-0.0202904
0.0548441
0.0217306
0.0437235
0.0175168
0.0471389
0.0140426
0.0500073
0.0101651
0.0522915
0.00600112
0.0539702
0.0016793
0.0550143
-0.00269303
0.055389
-0.00700946
0.0550599
-0.0111583
0.0539993
-0.0150228
-0.0184848
0.0521937
0.0427828
0.0139277
0.045976
0.0108493
0.0486443
0.00749684
0.0507141
0.00393127
0.0521419
0.00025147
0.0528915
-0.00344263
0.052931
-0.0070489
0.0522356
-0.0104629
0.0507933
-0.0135804
-0.0163021
0.0486106
0.0413153
0.0106116
0.044204
0.0079606
0.0465611
0.0051398
0.048307
0.00218534
0.0493877
-0.00082929
0.0497646
-0.00381953
0.0494119
-0.00669616
0.0483184
-0.00936935
0.0464912
-0.0117532
-0.0137711
0.0439602
0.0388925
0.00761221
0.0414098
0.00544324
0.0433696
0.00318
0.0447037
0.000851268
0.0453624
-0.00148805
0.0453143
-0.00377135
0.0445457
-0.00592761
0.0430632
-0.00788688
0.0408954
-0.00958543
-0.0109707
0.038095
0.0349793
0.00500636
0.0370574
0.00336515
0.0385549
0.00168245
0.0394228
-1.6585e-05
0.0396266
-0.00169184
0.0391503
-0.00329509
0.0379984
-0.00477571
0.0361971
-0.00608559
0.0337953
-0.0071836
-0.00803924
0.0308639
0.0288938
0.00288108
0.030475
0.00178395
0.0314789
0.000678509
0.0318782
-0.000415878
0.0316591
-0.0014727
0.0308254
-0.00246138
0.0294007
-0.003351
0.0274288
-0.00411372
0.0249731
-0.00472786
-0.00518002
0.0221139
0.0197899
0.0013118
0.0208495
0.000724376
0.0213842
0.000143828
0.0213874
-0.000419099
0.0208652
-0.000950537
0.019839
-0.0014352
0.0183465
-0.00185843
0.0164408
-0.00220809
0.014189
-0.00247604
-0.00265938
0.0116684
0.00664335
0.00034485
0.00720995
0.000157776
0.00737576
-2.19826e-05
0.00714895
-0.000192288
0.00654741
-0.000349
0.00559988
-0.000487661
0.00434576
-0.000604311
0.00283371
-0.00069604
0.00111919
-0.000761529
-0.0008021
-0.000738091
-0.0118544
-0.0116966
-0.0117186
-0.0119109
-0.0122599
-0.0127475
-0.0133518
-0.0140479
-0.0148094
-0.0156115
0.0526696
-0.023992
0.0261665
0.0497744
-0.0270281
0.0299233
0.0462053
-0.0293221
0.0328912
0.0420421
-0.0308237
0.034987
0.0373899
-0.0315417
0.0361939
0.0323615
-0.0315452
0.0365735
0.0270461
-0.0309422
0.0362576
0.0214569
-0.0298162
0.0354054
0.0154704
-0.0280378
0.0340244
-0.0246757
0.00855997
0.0315861
0.049652
-0.0214503
0.0464101
-0.0237862
0.042537
-0.025449
0.0381314
-0.0264181
0.0333108
-0.0267211
0.0281921
-0.0264265
0.0228636
-0.0256138
0.0173559
-0.0243085
0.011669
-0.0223509
-0.019146
0.00613931
0.0457195
-0.0185592
0.0421809
-0.0202476
0.0380854
-0.0213536
0.0335477
-0.0218804
0.0286939
-0.0218673
0.0236446
-0.0213772
0.0184977
-0.0204669
0.0133277
-0.0191385
0.00824871
-0.0172719
-0.0145684
0.00367106
0.0407809
-0.01538
0.0370375
-0.0165041
0.0328375
-0.0171536
0.0283049
-0.0173477
0.0235678
-0.0171302
0.018746
-0.0165553
0.013943
-0.015664
0.00925795
-0.0144534
0.00483818
-0.0128521
-0.0107331
0.00100285
0.0347374
-0.0120225
0.030924
-0.0126907
0.0267707
-0.0130003
0.0224016
-0.0129786
0.0179384
-0.012667
0.0134921
-0.012109
0.00916147
-0.0113334
0.00504662
-0.0103385
0.0012822
-0.00908772
-0.00753725
-0.00191362
0.0274907
-0.00864921
0.0237842
-0.00898425
0.0198583
-0.00907443
0.0158269
-0.00894718
0.0117964
-0.00863651
0.00786128
-0.00817389
0.00410605
-0.00757816
0.000616101
-0.0068486
-0.0025037
-0.00596791
-0.00492571
-0.00511524
0.0189398
-0.00547518
0.0155553
-0.00559977
0.0120607
-0.00557974
0.00855044
-0.00543696
0.00510896
-0.00519503
0.00180873
-0.00487366
-0.00128606
-0.00448337
-0.00411149
-0.00402316
-0.00659467
-0.00348473
-0.00286728
-0.0086531
0.00895576
-0.00276255
0.00613952
-0.00278354
0.003297
-0.00273722
0.000497234
-0.00263719
-0.00220145
-0.00249635
-0.00475063
-0.00232447
-0.0071081
-0.0021259
-0.00923214
-0.00189912
-0.0110771
-0.00163981
-0.00134869
-0.0125957
-0.00268393
-0.00081671
-0.0046572
-0.000810264
-0.00660922
-0.000785197
-0.00849925
-0.000747161
-0.0102951
-0.000700458
-0.0119717
-0.00064795
-0.013507
-0.000590526
-0.0148791
-0.000527023
-0.0160634
-0.000455552
-0.000377543
-0.0170345
-0.0164282
-0.0172385
-0.0180237
-0.0187708
-0.0194713
-0.0201193
-0.0207098
-0.0212368
-0.0216924
-0.0220699
0.000280242
-0.0223501
0.00102438
-0.0177787
0.00219302
-0.0137643
0.00377421
-0.0102343
0.00576471
-0.00710575
0.00815928
-0.00430819
0.0109438
-0.00178167
0.0140853
0.000529586
0.0175383
0.00268627
0.00477065
0.0213277
0.000196181
-0.0225463
0.00072038
-0.0183029
0.00155233
-0.0145962
0.00268644
-0.0113684
0.00412025
-0.00853956
0.00584893
-0.00603687
0.00786524
-0.00379799
0.0101675
-0.00177272
0.0127909
6.29609e-05
0.00166579
0.0158957
0.000116182
-0.0226625
0.000441404
-0.0186281
0.000976074
-0.0151309
0.0017278
-0.0121201
0.0027057
-0.00951746
0.00391916
-0.00725033
0.00538048
-0.0052593
0.00711083
-0.00350307
0.0091459
-0.00197211
-0.000710815
0.0115225
4.43931e-05
-0.0227069
0.000195042
-0.0187788
0.000474671
-0.0154105
0.000905481
-0.0125509
0.00150793
-0.0101199
0.00230133
-0.00804373
0.0033058
-0.00626377
0.00454362
-0.00474089
0.00603452
-0.00346301
-0.00244981
0.00777351
-1.85727e-05
-0.0226883
-1.76677e-05
-0.0187797
4.72298e-05
-0.0154754
0.000211446
-0.0127152
0.00050339
-0.0104119
0.000946231
-0.00848657
0.00155921
-0.00687675
0.0023571
-0.00553879
0.00334478
-0.00445068
-0.00361039
0.00450536
-7.27871e-05
-0.0226155
-0.000197094
-0.0186554
-0.000308443
-0.0153641
-0.000360885
-0.0126627
-0.000321477
-0.0104513
-0.000167273
-0.00864077
0.000116446
-0.00716046
0.000536119
-0.00595846
0.00108689
-0.00500146
-0.00427146
0.00174796
-0.000117977
-0.0224976
-0.000342476
-0.0184309
-0.000591397
-0.0151152
-0.000810598
-0.0124435
-0.000965011
-0.0102969
-0.00103388
-0.00857191
-0.00100774
-0.0071866
-0.000886993
-0.00607921
-0.000682362
-0.00520609
-0.00453798
-0.000415843
-0.000153319
-0.0223442
-0.000451489
-0.0181327
-0.000797265
-0.0147694
-0.00113021
-0.0121106
-0.00141448
-0.0100126
-0.00163206
-0.00835432
-0.00177835
-0.00704031
-0.00185914
-0.00599841
-0.00188927
-0.00517596
-0.00453565
-0.00189161
-0.000177514
-0.0221667
-0.000520968
-0.0177892
-0.000920319
-0.01437
-0.0013101
-0.0117208
-0.00165423
-0.00966846
-0.00193734
-0.00807121
-0.00215894
-0.00681871
-0.0023293
-0.00582806
-0.00246691
-0.00503835
-0.00440603
-0.00259653
-0.000188346
-0.000547845
-0.000955897
-0.00134283
-0.00167267
-0.00193226
-0.00212443
-0.00226327
-0.00237115
-0.00247625
-0.00150946
-0.0139568
0.0139507
0.0011234
-0.0145157
0.0118828
0.00495419
-0.0111624
0.00733166
0.00962081
-0.00584728
0.00118066
0.0148354
0.000833038
-0.00604759
0.020346
0.00619241
-0.0117031
0.0260882
0.00651416
-0.0122563
0.0319278
-0.00102294
-0.00481668
0.0375776
-0.0166175
0.0109677
0.0426153
-0.0366474
0.0316097
0.0467682
-0.0549792
0.0508263
0.0501728
-0.0655835
0.062179
0.0533426
-0.0643811
0.0612112
0.0567569
-0.0507047
0.0472904
0.0604444
-0.028146
0.0244586
0.0639663
-0.00470653
0.00118463
0.0668312
0.0134422
-0.0163071
0.0687012
0.0210773
-0.0229473
0.0697229
0.0239072
-0.0249289
0.016443
-0.0164911
0.000718557
-0.0144112
0.0034923
-0.0172894
0.00738183
-0.015052
0.0120381
-0.0105036
0.0172494
-0.00437826
0.0227748
0.000667053
0.028505
0.000783877
0.0342457
-0.00676363
0.0396716
-0.0220434
0.0443779
-0.0413537
0.0481422
-0.0587435
0.0511431
-0.0685844
0.0539241
-0.0671621
0.0570051
-0.0537857
0.0604586
-0.0315995
0.063858
-0.00810589
0.0666872
0.010613
0.0685713
0.0191932
0.0696333
0.0228452
0.0163468
0.00385765
-0.0154686
0.00675493
-0.0201867
0.0106357
-0.0189328
0.0151725
-0.0150403
0.0202475
-0.0094532
0.025645
-0.00473053
0.0312177
-0.00478877
0.0367221
-0.0122681
0.0418115
-0.0271327
0.0461124
-0.0456546
0.0494544
-0.0620855
0.0520468
-0.0711769
0.0544443
-0.0695596
0.0571921
-0.0565334
0.0604036
-0.034811
0.0636728
-0.0113752
0.0664684
0.00781744
0.0683821
0.0172795
0.0695117
0.0217156
0.016164
0.0077758
-0.0172431
0.010758
-0.023169
0.0145429
-0.0227177
0.0188495
-0.0193469
0.02366
-0.0142637
0.0287952
-0.00986574
0.0340758
-0.0100694
0.0392225
-0.0174148
0.0438823
-0.0317925
0.0477242
-0.0494966
0.0506295
-0.0649908
0.0528264
-0.0733738
0.0548628
-0.071596
0.0572935
-0.0589641
0.0602679
-0.0377854
0.0634074
-0.0145147
0.0661749
0.00504996
0.0681349
0.0153195
0.0693592
0.0204913
0.0158566
0.0123009
-0.019788
0.0153043
-0.0261723
0.0188855
-0.026299
0.0228538
-0.0233152
0.0272853
-0.0186951
0.0320409
-0.0146214
0.0369157
-0.0149442
0.0416066
-0.0221057
0.0457687
-0.0359545
0.0491212
-0.0528491
0.0515946
-0.0674641
0.0534252
-0.0752044
0.0551381
-0.0733089
0.0572821
-0.0611081
0.0600362
-0.0405395
0.0630547
-0.0175331
0.0658044
0.00230029
0.0678292
0.0132947
0.0691756
0.0191449
0.0153872
0.0172261
-0.0230686
0.0201585
-0.0291048
0.0234127
-0.0295531
0.0269434
-0.026846
0.0309034
-0.0226551
0.0351891
-0.0189071
0.0395732
-0.0193283
0.0437397
-0.0262722
0.0473638
-0.0395786
0.0502203
-0.0557055
0.052285
-0.0695288
0.0537925
-0.0767119
0.0552317
-0.0747481
0.0571316
-0.063008
0.0596935
-0.0431014
0.062608
-0.0204476
0.0653549
-0.000446608
0.067465
0.0111846
0.0689614
0.0176485
0.0147189
0.0223053
-0.0269193
0.0250447
-0.0318441
0.027846
-0.0323544
0.0308596
-0.0298596
0.0342878
-0.0260834
0.0380483
-0.0226676
0.0418922
-0.0231721
0.0454989
-0.0298789
0.0485738
-0.0426535
0.0509502
-0.0580819
0.0526455
-0.0712242
0.0538847
-0.0779511
0.0551094
-0.0759728
0.0568174
-0.064716
0.0592248
-0.0455089
0.0620602
-0.023283
0.0648242
-0.00321058
0.0670422
0.00896656
0.0687168
0.0159739
0.0138157
0.0272586
-0.03098
0.029646
-0.0342315
0.0318875
-0.0345959
0.0343372
-0.0323093
0.0372152
-0.0289614
0.0404376
-0.0258899
0.0437312
-0.0264658
0.0467777
-0.0329255
0.0493206
-0.0451964
0.051254
-0.0600153
0.0526331
-0.0726033
0.0536671
-0.0789851
0.0547432
-0.077049
0.0563186
-0.0662913
0.0586169
-0.0478072
0.0614046
-0.0260708
0.0642101
-0.00601601
0.0665608
0.00661582
0.0684422
0.0140925
0.0126425
0.0319052
-0.0346839
0.0337041
-0.0360305
0.0352904
-0.0361822
0.0371573
-0.0341762
0.0395
-0.0313041
0.0422054
-0.0285953
0.0449732
-0.0292335
0.047491
-0.0354433
0.0495462
-0.0472515
0.0510933
-0.0615624
0.0522212
-0.0737313
0.0531193
-0.0798831
0.0541159
-0.0780456
0.0556211
-0.0677965
0.05786
-0.0500461
0.0606366
-0.0288473
0.0635113
-0.00889077
0.0660211
0.004106
0.0681379
0.0119758
0.0111654
0.0363187
-0.0373982
0.0371592
-0.0368709
0.0379534
-0.0369764
0.0392257
-0.0354484
0.0410493
-0.0331278
0.0432651
-0.0308111
0.0455436
-0.031512
0.0475831
-0.0374828
0.0492158
-0.0488843
0.0504512
-0.0627978
0.051404
-0.074684
0.0522391
-0.0807182
0.0532248
-0.0790313
0.0547215
-0.0692932
0.0569513
-0.052276
0.0597547
-0.0316507
0.0627282
-0.0118642
0.0654244
0.00140979
0.0678043
0.00959585
0.00935139
0.11734
-0.0283956
-0.126343
0.112276
-0.0318071
0.109289
-0.0339894
0.107944
-0.0341035
0.108027
-0.0332109
0.109557
-0.032341
0.112113
-0.0340675
0.114959
-0.0403287
0.117231
-0.0511569
0.118313
-0.0638794
0.118027
-0.0743983
0.116659
-0.0793494
0.114932
-0.0773047
0.11385
-0.0682117
0.114225
-0.052651
0.116096
-0.0335209
0.118842
-0.0146102
0.121497
-0.00124556
0.123734
0.00735856
0.00816382
0.164618
-0.0174703
-0.175544
0.155993
-0.0231813
0.149977
-0.0279738
0.146188
-0.0303149
0.144233
-0.0312559
0.143981
-0.0320891
0.144895
-0.0349807
0.146152
-0.0415862
0.14686
-0.0518647
0.146418
-0.0634376
0.144681
-0.0726617
0.141947
-0.076615
0.13893
-0.0742878
0.136658
-0.0659393
0.136041
-0.0520343
0.13723
-0.0347099
0.139634
-0.0170146
0.142201
-0.00381263
0.144494
0.00506582
0.00688894
0.215826
-0.00663463
-0.226662
0.206519
-0.0138736
0.198726
-0.0201807
0.192879
-0.0244684
0.188866
-0.0272424
0.186546
-0.0297693
0.185382
-0.0338168
0.18454
-0.0407437
0.183147
-0.0504719
0.180662
-0.0609531
0.177013
-0.0690128
0.172537
-0.072139
0.167929
-0.0696798
0.16419
-0.0621997
0.162285
-0.0501294
0.162485
-0.0349102
0.164278
-0.0188075
0.166566
-0.00610067
0.168802
0.00282961
0.00556531
0.267336
0.00197117
-0.275942
0.259412
-0.00594933
0.251796
-0.0125651
0.245209
-0.0178806
0.239937
-0.0219712
0.235942
-0.0257738
0.23278
-0.030655
0.22971
-0.0376739
0.225974
-0.046736
0.221157
-0.0561359
0.215311
-0.0631671
0.208855
-0.0656826
0.202469
-0.0632941
0.197082
-0.0568127
0.193657
-0.046704
0.192578
-0.0338315
0.193465
-0.0196947
0.195245
-0.00788013
0.197274
0.00080006
0.004249
0.316961
0.00729807
-0.322288
0.311375
-0.000363133
0.305417
-0.00660679
0.299525
-0.0119886
0.29417
-0.0166162
0.28942
-0.021024
0.284928
-0.0261633
0.280081
-0.0328269
0.274286
-0.0409412
0.2673
-0.0491499
0.259341
-0.0552076
0.250949
-0.0572906
0.242821
-0.0551664
0.235793
-0.0497846
0.230764
-0.0416747
0.22821
-0.031278
0.227932
-0.0194164
0.228968
-0.00891561
0.230619
-0.000851372
0.0030119
0.36569
0.0094295
-0.367822
0.362431
0.00289626
0.35847
-0.00264608
0.353983
-0.00750116
0.349326
-0.0119596
0.344625
-0.0163224
0.339608
-0.0211469
0.333761
-0.0269801
0.326621
-0.0338009
0.318081
-0.0406103
0.308503
-0.0456297
0.298562
-0.047349
0.289003
-0.0456076
0.280576
-0.0413579
0.274073
-0.0351714
0.270021
-0.0272261
0.268427
-0.0178228
0.268532
-0.00901997
0.269644
-0.00196319
0.00193193
0.416498
0.00910586
-0.416175
0.415177
0.00421773
0.412865
-0.000334065
0.40973
-0.00436635
0.405934
-0.00816386
0.401575
-0.0119634
0.396473
-0.0160447
0.390213
-0.02072
0.382414
-0.0260024
0.373032
-0.0312276
0.362493
-0.0350912
0.351566
-0.036422
0.341054
-0.0350957
0.331639
-0.031943
0.32398
-0.0275116
0.318601
-0.0218479
0.315706
-0.0149276
0.314796
-0.00810941
0.315257
-0.00242432
0.00107678
0.472781
0.00710205
-0.470777
0.473044
0.00395512
0.472008
0.00070152
0.469907
-0.00226482
0.466813
-0.00506992
0.462754
-0.00790444
0.457622
-0.0109128
0.451131
-0.0142294
0.442988
-0.0178591
0.433169
-0.0214089
0.422112
-0.0240337
0.410624
-0.0249343
0.399551
-0.0240226
0.389522
-0.021914
0.381058
-0.0190479
0.374634
-0.0154232
0.370593
-0.010887
0.368706
-0.00622217
0.368486
-0.00220429
0.000485295
0.53836
0.00396458
-0.535223
0.539882
0.00243384
0.539874
0.000709445
0.538524
-0.000915051
0.535905
-0.00245134
0.532004
-0.00400344
0.526737
-0.00564578
0.519926
-0.00741846
0.511378
-0.00931058
0.501106
-0.0111373
0.489555
-0.0124826
0.477559
-0.0129382
0.465995
-0.0124589
0.45546
-0.0113783
0.44636
-0.00994821
0.439096
-0.00815915
0.434096
-0.00588743
0.43135
-0.0034761
0.430502
-0.00135608
0.000151149
0.618462
-0.614497
0.620895
0.621605
0.62069
0.618238
0.614235
0.608589
0.601171
0.59186
0.580723
0.56824
0.555302
0.542843
0.531465
0.521517
0.513358
0.50747
0.503994
0.502638
0.167352
0.0227237
-0.16637
0.167557
0.0282905
0.166804
0.0335512
0.164904
0.0383727
0.161692
0.0426144
0.157052
0.0461407
0.150966
0.0488412
0.143567
0.0506591
0.13521
0.0515642
0.0513387
0.191539
0.0207559
-0.189571
0.193196
0.0266341
0.194393
0.0323539
0.19496
0.0378059
0.194709
0.0428649
0.193453
0.0473965
0.191023
0.0512713
0.187294
0.0543887
0.182143
0.0567153
0.0579377
0.217193
0.0182429
-0.21468
0.219822
0.0240055
0.222471
0.0297042
0.225011
0.0352668
0.227266
0.0406098
0.229024
0.0456385
0.230045
0.0502496
0.230101
0.0543333
0.22901
0.0578057
0.0602859
0.245642
0.0155923
-0.242992
0.248685
0.020963
0.252077
0.026312
0.255751
0.0315933
0.259607
0.0367534
0.263516
0.0417297
0.267315
0.0464503
0.270814
0.0508345
0.273804
0.0548154
0.0581481
0.277947
0.012949
-0.275303
0.28116
0.01775
0.284933
0.0225384
0.289245
0.0272813
0.294056
0.0319427
0.299302
0.0364833
0.304893
0.0408599
0.310702
0.0450249
0.316587
0.0489308
0.0524471
0.314904
0.0103413
-0.312296
0.318214
0.0144394
0.322227
0.0185261
0.326933
0.0225752
0.332315
0.0265599
0.338347
0.0304519
0.344985
0.0342221
0.35217
0.0378397
0.359828
0.0412722
0.0444538
0.357421
0.00777663
-0.354856
0.360809
0.011051
0.365021
0.0143148
0.370049
0.0175471
0.375882
0.0207266
0.382502
0.0238317
0.389883
0.0268409
0.397991
0.0297325
0.406779
0.0324843
0.0350578
0.406902
0.00523982
-0.404365
0.410385
0.0075676
0.414813
0.00988748
0.420176
0.0121841
0.42646
0.0144418
0.433647
0.0166453
0.441709
0.018779
0.450613
0.0208278
0.460321
0.0227766
0.0246016
0.465473
0.0026815
-0.462915
0.469113
0.00392766
0.473831
0.00517011
0.479615
0.00640026
0.486447
0.00760948
0.494303
0.00878915
0.503151
0.00993079
0.512953
0.0110261
0.523663
0.0120669
0.0130413
0.536535
-0.533854
0.540463
0.545633
0.552033
0.559643
0.568432
0.578363
0.589389
0.601456
0.143184
-0.0302674
-0.140823
0.146027
-0.0265276
0.148983
-0.0219112
0.151954
-0.0169242
0.154866
-0.0116468
0.157676
-0.00616431
0.160322
-0.000513769
0.162723
0.00526223
0.16478
0.0111059
0.0169473
0.170563
-0.0319317
-0.168899
0.172376
-0.0283403
0.174296
-0.0238315
0.176325
-0.0189528
0.178442
-0.013764
0.180634
-0.00835654
0.182885
-0.00276481
0.185163
0.00298506
0.187415
0.00885363
0.0147908
0.201835
-0.0323812
-0.201386
0.202475
-0.0289796
0.203247
-0.0246039
0.204189
-0.0198949
0.205345
-0.01492
0.206732
-0.00974349
0.208361
-0.0043931
0.210235
0.00111085
0.212348
0.00674013
0.0124589
0.236859
-0.0315268
-0.237714
0.236193
-0.0283129
0.235791
-0.0242027
0.235689
-0.0197922
0.23593
-0.0151616
0.236542
-0.0103549
0.23754
-0.0053914
0.238941
-0.000290074
0.240757
0.00492447
0.0102237
0.275587
-0.0293653
-0.277749
0.273654
-0.0263798
0.272125
-0.022674
0.271044
-0.018711
0.270443
-0.0145608
0.270345
-0.0102562
0.270766
-0.00581241
0.271723
-0.00124751
0.273232
0.00341575
0.00815218
0.318612
-0.0259144
-0.322063
0.315502
-0.0232695
0.312921
-0.0200935
0.31092
-0.0167098
0.309525
-0.0131662
0.308757
-0.00948774
0.308633
-0.00568891
0.309172
-0.00178657
0.310389
0.00219889
0.00624538
0.366979
-0.0212097
-0.371684
0.362755
-0.0190457
0.359176
-0.0165149
0.356291
-0.0138244
0.354128
-0.0110028
0.352708
-0.00806838
0.352054
-0.00503465
0.352184
-0.00191656
0.353114
0.00126885
0.00450327
0.422122
-0.0152994
-0.428033
0.416828
-0.0137517
0.412285
-0.011971
0.408537
-0.0100774
0.405621
-0.00808643
0.403563
-0.00601053
0.402389
-0.00386049
0.40212
-0.00164792
0.402775
0.000614427
0.00291296
0.48617
-0.00822137
-0.493248
0.479824
-0.007405
0.474323
-0.00647028
0.469719
-0.00547347
0.466054
-0.00442151
0.463364
-0.00332088
0.461682
-0.00217785
0.461033
-0.000999042
0.461439
0.00020836
0.00143674
0.562477
-0.570698
0.555072
0.548601
0.543128
0.538706
0.535386
0.533208
0.532209
0.532417
0.126775
0.00228113
-0.00218827
0.126513
0.00690542
-0.00664389
0.12609
0.0119246
-0.0115012
0.125506
0.0177214
-0.0171374
0.124815
0.0246579
-0.0239668
0.124072
0.0337861
-0.0330435
0.123737
0.0450047
-0.0446695
0.123976
0.0626295
-0.062869
0.12865
0.0805293
-0.0852031
0.119927
-0.1321
0.147933
0.00234537
0.147746
0.00709247
0.147463