/*--------------------------------*- C++ -*----------------------------------*\
  =========                 |
  \\      /  F ield         | OpenFOAM: The Open Source CFD Toolbox
   \\    /   O peration     | Website:  https://openfoam.org
    \\  /    A nd           | Version:  6.0
     \\/     M anipulation  |
\*---------------------------------------------------------------------------*/
FoamFile
{
    version     2.0;
    format      ascii;
    class       volScalarField;
    location    "0.5005";
    object      p;
}
// * * * * * * * * * * * * * * * * * * * * * * * * * * * * * * * * * * * * * //

dimensions      [0 2 -2 0 0 0 0];

internalField   nonuniform List<scalar> 
19200
(
-4.75314
-3.87348
-3.26126
-2.78584
-2.37619
-2.02851
-1.73537
-1.48749
-1.2776
-1.09988
-0.949409
-0.822061
-0.714336
-0.623266
-0.546327
-0.481365
-0.42654
-0.380278
-0.341237
-0.308271
-0.280405
-0.256805
-0.236752
-0.21964
-0.204961
-0.192311
-0.181324
-0.171671
-0.163082
-0.155685
-4.78719
-3.90891
-3.29687
-2.82075
-2.41001
-2.06099
-1.76632
-1.51681
-1.30526
-1.12585
-0.973707
-0.844722
-0.735408
-0.642809
-0.564409
-0.49806
-0.441926
-0.394437
-0.354251
-0.320223
-0.291377
-0.266878
-0.24601
-0.22816
-0.212828
-0.199589
-0.188089
-0.177978
-0.168985
-0.161301
-4.82459
-3.94614
-3.33376
-2.85683
-2.44493
-2.09452
-1.79831
-1.54717
-1.33393
-1.15284
-0.999028
-0.86841
-0.757514
-0.663394
-0.583541
-0.515811
-0.458373
-0.409658
-0.368326
-0.333233
-0.303403
-0.277998
-0.256301
-0.237705
-0.221699
-0.207866
-0.195826
-0.185238
-0.175819
-0.167847
-4.86384
-3.98491
-3.37195
-2.89409
-2.48097
-2.12912
-1.83134
-1.57855
-1.36363
-1.18084
-1.02537
-0.89312
-0.780648
-0.685014
-0.603715
-0.534611
-0.475873
-0.425936
-0.38346
-0.3473
-0.31648
-0.290161
-0.267624
-0.248272
-0.231587
-0.217135
-0.204555
-0.193462
-0.183593
-0.175331
-4.90467
-4.02513
-3.41141
-2.93252
-2.5181
-2.16478
-1.8654
-1.61094
-1.39432
-1.20984
-1.0527
-0.918828
-0.804788
-0.707648
-0.62491
-0.554439
-0.494408
-0.443252
-0.399633
-0.362404
-0.330586
-0.303339
-0.279959
-0.259827
-0.242452
-0.227377
-0.214233
-0.202633
-0.192297
-0.183747
-4.94694
-4.06669
-3.45211
-2.9721
-2.55633
-2.20148
-1.90047
-1.64432
-1.42599
-1.23981
-1.08101
-0.945519
-0.829916
-0.731278
-0.64711
-0.57528
-0.513963
-0.461594
-0.416835
-0.378538
-0.345723
-0.317551
-0.293314
-0.272401
-0.254304
-0.238589
-0.224859
-0.212737
-0.201918
-0.193085
-4.99053
-4.10954
-3.49401
-3.01281
-2.59562
-2.23921
-1.93653
-1.67867
-1.45863
-1.27075
-1.11027
-0.97317
-0.856012
-0.755883
-0.670294
-0.597114
-0.534519
-0.480944
-0.435051
-0.395691
-0.361884
-0.332794
-0.3077
-0.286005
-0.267176
-0.250794
-0.236474
-0.223792
-0.212472
-0.20335
-5.03538
-4.1536
-3.53706
-3.05461
-2.63596
-2.27793
-1.97357
-1.71398
-1.4922
-1.30261
-1.14047
-1.00175
-0.883047
-0.781436
-0.694435
-0.619915
-0.55605
-0.501276
-0.454253
-0.413833
-0.379035
-0.349022
-0.323075
-0.300578
-0.281027
-0.263978
-0.249044
-0.235803
-0.223952
-0.214538
-5.08143
-4.19882
-3.58122
-3.09745
-2.67729
-2.31762
-2.01153
-1.75019
-1.52667
-1.33537
-1.17156
-1.03124
-0.91099
-0.807906
-0.719503
-0.643652
-0.578526
-0.52256
-0.474412
-0.432934
-0.397143
-0.366201
-0.339384
-0.316091
-0.295792
-0.278074
-0.262527
-0.248712
-0.236325
-0.22662
-5.12861
-4.24513
-3.62642
-3.14129
-2.71957
-2.35822
-2.05038
-1.78728
-1.562
-1.36898
-1.20351
-1.06159
-0.939803
-0.835257
-0.745462
-0.66829
-0.601912
-0.544763
-0.495498
-0.452967
-0.416187
-0.384316
-0.356634
-0.33253
-0.311482
-0.293072
-0.276905
-0.262489
-0.249563
-0.239567
-5.17686
-4.29248
-3.67261
-3.18608
-2.76276
-2.39969
-2.09008
-1.82519
-1.59815
-1.40341
-1.23628
-1.09275
-0.969445
-0.863446
-0.772271
-0.693789
-0.626171
-0.567848
-0.517475
-0.473899
-0.436135
-0.403341
-0.374795
-0.349875
-0.328083
-0.308964
-0.292155
-0.27714
-0.263643
-0.253364
-5.22611
-4.3408
-3.71974
-3.23176
-2.80679
-2.44197
-2.13057
-1.86388
-1.63506
-1.4386
-1.2698
-1.12469
-0.999868
-0.892427
-0.799884
-0.720105
-0.651258
-0.591773
-0.5403
-0.495686
-0.456944
-0.423229
-0.393818
-0.368095
-0.345539
-0.325721
-0.308253
-0.292622
-0.278536
-0.26798
-5.2763
-4.39003
-3.76773
-3.27825
-2.85161
-2.48501
-2.17178
-1.90328
-1.67268
-1.47449
-1.30404
-1.15735
-1.03102
-0.922149
-0.828251
-0.747188
-0.677125
-0.616488
-0.563927
-0.518283
-0.478569
-0.443937
-0.413664
-0.387133
-0.363813
-0.343292
-0.325152
-0.308887
-0.294204
-0.283352
-5.32736
-4.4401
-3.81651
-3.32551
-2.89715
-2.52874
-2.21367
-1.94333
-1.71094
-1.51103
-1.33893
-1.19066
-1.06284
-0.952556
-0.857317
-0.774983
-0.703717
-0.641941
-0.588301
-0.541637
-0.500958
-0.465414
-0.434281
-0.40694
-0.382865
-0.361626
-0.342823
-0.325906
-0.310607
-0.299449
-5.37921
-4.49093
-3.86603
-3.37345
-2.94334
-2.57309
-2.25615
-1.98397
-1.74979
-1.54815
-1.3744
-1.22458
-1.09527
-0.983585
-0.887019
-0.80343
-0.730975
-0.668072
-0.613365
-0.565691
-0.524055
-0.487606
-0.455618
-0.427469
-0.402635
-0.380679
-0.36121
-0.343625
-0.327692
-0.316251
-5.43178
-4.54245
-3.91619
-3.422
-2.9901
-2.61798
-2.29916
-2.02512
-1.78914
-1.58578
-1.4104
-1.25901
-1.12824
-1.01517
-0.917291
-0.832461
-0.758832
-0.694816
-0.639055
-0.590381
-0.547798
-0.510451
-0.477613
-0.448661
-0.423068
-0.400403
-0.380254
-0.362021
-0.345454
-0.33375
-5.48497
-4.59458
-3.96693
-3.47109
-3.03736
-2.66334
-2.34261
-2.0667
-1.82893
-1.62385
-1.44683
-1.29391
-1.16168
-1.04723
-0.948061
-0.862005
-0.787216
-0.722103
-0.665301
-0.61564
-0.57212
-0.533886
-0.500207
-0.47046
-0.444118
-0.420752
-0.399949
-0.381081
-0.363912
-0.351942
-5.53873
-4.64724
-4.01816
-3.52062
-3.08503
-2.70908
-2.38643
-2.10864
-1.86906
-1.66227
-1.48363
-1.32918
-1.19551
-1.07971
-0.979251
-0.891986
-0.816053
-0.749856
-0.692026
-0.64139
-0.596945
-0.557833
-0.523323
-0.492789
-0.465706
-0.441649
-0.420204
-0.400709
-0.382951
-0.37072
-5.59295
-4.70035
-4.06979
-3.57051
-3.13302
-2.75512
-2.43052
-2.15085
-1.90947
-1.70096
-1.52071
-1.36474
-1.22965
-1.1125
-1.01078
-0.922323
-0.84526
-0.777994
-0.719149
-0.66755
-0.62219
-0.582209
-0.546872
-0.515556
-0.487734
-0.462983
-0.440889
-0.420768
-0.40241
-0.389935
-5.64757
-4.75382
-4.12175
-3.62068
-3.18125
-2.80135
-2.4748
-2.19324
-1.95005
-1.73984
-1.55799
-1.40051
-1.26401
-1.14554
-1.04257
-0.952929
-0.874752
-0.80643
-0.746583
-0.694031
-0.647764
-0.606919
-0.570762
-0.538665
-0.510103
-0.484657
-0.461911
-0.441155
-0.422192
-0.409476
-5.70251
-4.80758
-4.17394
-3.67102
-3.22961
-2.8477
-2.51916
-2.2357
-1.99071
-1.77881
-1.59537
-1.43641
-1.2985
-1.17872
-1.07452
-0.983716
-0.904439
-0.835073
-0.774235
-0.720739
-0.673572
-0.631868
-0.594891
-0.562012
-0.532709
-0.506565
-0.483163
-0.461767
-0.442193
-0.429244
-5.75772
-4.86155
-4.22627
-3.72144
-3.278
-2.89404
-2.56352
-2.27815
-2.03137
-1.81778
-1.63276
-1.47233
-1.33304
-1.21197
-1.10654
-1.01459
-0.934229
-0.863831
-0.80201
-0.747576
-0.699512
-0.65695
-0.619151
-0.585487
-0.555434
-0.528583
-0.504515
-0.482471
-0.462279
-0.449103
-5.81316
-4.91567
-4.27865
-3.77184
-3.32631
-2.94028
-2.60775
-2.32049
-2.07191
-1.85665
-1.67008
-1.50818
-1.36754
-1.24518
-1.13856
-1.04547
-0.964032
-0.892611
-0.829814
-0.774445
-0.725484
-0.682059
-0.643431
-0.608969
-0.578152
-0.550575
-0.525824
-0.503114
-0.482285
-0.46888
-5.86886
-4.96986
-4.33099
-3.82211
-3.37443
-2.9863
-2.65176
-2.36259
-2.11225
-1.89533
-1.70721
-1.54388
-1.4019
-1.27828
-1.17047
-1.07627
-0.993762
-0.921325
-0.857555
-0.801252
-0.751389
-0.707092
-0.667618
-0.632338
-0.60073
-0.572395
-0.546924
-0.52351
-0.502004
-0.488355
-5.92484
-5.02407
-4.38316
-3.87211
-3.42224
-3.03198
-2.69542
-2.40437
-2.15226
-1.93371
-1.74408
-1.57934
-1.43603
-1.31118
-1.2022
-1.10689
-1.02333
-0.949891
-0.885151
-0.827911
-0.777138
-0.731954
-0.691612
-0.655479
-0.623035
-0.593887
-0.567631
-0.543437
-0.521169
-0.507224
-5.98118
-5.07817
-4.43504
-3.92172
-3.46959
-3.07718
-2.73862
-2.44569
-2.19185
-1.9717
-1.78058
-1.61445
-1.46986
-1.34379
-1.23367
-1.13727
-1.05268
-0.978236
-0.912532
-0.854353
-0.802661
-0.756571
-0.71533
-0.6783
-0.644957
-0.614911
-0.587762
-0.562657
-0.539459
-0.525069
-6.03812
-5.13208
-4.48644
-3.97075
-3.51633
-3.12178
-2.78123
-2.48646
-2.23092
-2.0092
-1.81662
-1.64915
-1.50329
-1.37604
-1.2648
-1.16734
-1.08173
-1.0063
-0.939643
-0.880528
-0.827912
-0.780901
-0.738732
-0.700757
-0.666442
-0.635391
-0.607211
-0.581005
-0.556563
-0.54136
-6.09681
-5.18592
-4.53712
-4.01895
-3.56223
-3.16557
-2.82307
-2.52652
-2.26933
-2.04608
-1.8521
-1.68331
-1.53623
-1.40784
-1.29552
-1.19703
-1.11042
-1.03404
-0.966442
-0.906406
-0.852873
-0.804938
-0.761824
-0.722863
-0.687498
-0.655323
-0.625937
-0.598322
-0.571976
-0.555308
-6.1586
-5.23954
-4.58654
-4.06586
-3.60698
-3.20832
-2.86398
-2.56571
-2.30693
-2.08222
-1.88688
-1.71684
-1.56858
-1.43909
-1.32573
-1.22624
-1.13869
-1.06138
-0.992887
-0.931965
-0.877548
-0.828716
-0.78467
-0.744709
-0.708229
-0.674758
-0.643786
-0.613931
-0.584101
-0.564629
-6.21617
-5.29008
-4.63395
-4.11135
-3.65067
-3.2502
-2.90409
-2.60416
-2.34383
-2.11769
-1.92102
-1.74975
-1.60036
-1.4698
-1.35543
-1.25499
-1.16652
-1.08833
-1.01899
-0.957234
-0.902002
-0.852363
-0.807504
-0.766699
-0.729297
-0.694712
-0.662162
-0.629813
-0.596047
-0.571413
-6.70752
-6.73046
-6.74778
-6.76392
-6.77801
-6.78932
-6.79766
-6.80299
-6.80526
-6.80445
-6.80053
-6.79349
-6.7834
-6.77033
-6.75437
-6.73559
-6.71407
-6.68992
-6.66323
-6.63411
-6.60267
-6.56903
-6.53333
-6.4957
-6.45632
-6.41538
-6.37313
-6.32993
-6.28634
-6.24506
-5.77201
-5.79812
-5.81941
-5.83761
-5.85275
-5.86469
-5.87346
-5.8791
-5.88167
-5.88116
-5.87758
-5.87093
-5.86129
-5.84873
-5.83334
-5.81519
-5.79436
-5.77093
-5.74502
-5.71672
-5.68614
-5.6534
-5.61864
-5.58198
-5.54359
-5.50364
-5.46233
-5.41992
-5.37668
-5.33314
-5.09084
-5.11774
-5.14059
-5.15982
-5.17569
-5.18827
-5.19765
-5.2039
-5.2071
-5.20729
-5.20443
-5.19855
-5.18974
-5.17809
-5.16367
-5.14655
-5.1268
-5.10452
-5.07979
-5.05272
-5.02341
-4.99198
-4.95854
-4.92323
-4.88616
-4.8475
-4.80737
-4.76594
-4.72332
-4.67958
-4.53875
-4.56544
-4.58859
-4.60821
-4.6245
-4.63756
-4.64746
-4.65429
-4.65816
-4.65905
-4.65696
-4.65192
-4.64402
-4.63336
-4.62001
-4.60402
-4.58548
-4.56446
-4.54105
-4.51536
-4.48747
-4.4575
-4.42555
-4.39174
-4.35617
-4.31898
-4.28027
-4.24015
-4.19873
-4.15608
-4.05012
-4.07624
-4.09918
-4.1188
-4.13519
-4.14846
-4.15865
-4.16589
-4.17023
-4.1717
-4.17024
-4.16591
-4.15884
-4.1491
-4.13674
-4.12182
-4.10443
-4.08464
-4.06252
-4.03819
-4.01171
-3.9832
-3.95274
-3.92046
-3.88644
-3.85079
-3.81362
-3.77502
-3.73507
-3.69389
-3.6254
-3.65075
-3.67316
-3.69244
-3.70864
-3.72182
-3.73207
-3.73947
-3.7441
-3.74591
-3.74488
-3.74112
-3.73471
-3.72573
-3.71422
-3.70025
-3.68388
-3.66519
-3.64425
-3.62116
-3.596
-3.56886
-3.53983
-3.509
-3.47648
-3.44236
-3.40673
-3.36968
-3.33131
-3.29171
-3.25947
-3.28388
-3.30552
-3.32421
-3.33996
-3.35283
-3.36289
-3.37025
-3.37494
-3.3769
-3.37614
-3.37275
-3.36683
-3.35844
-3.34761
-3.33441
-3.3189
-3.30116
-3.28126
-3.25928
-3.23529
-3.20939
-3.18166
-3.15219
-3.12106
-3.08839
-3.05424
-3.0187
-2.98188
-2.94387
-2.94406
-2.9674
-2.98811
-3.00602
-3.02113
-3.03351
-3.04321
-3.05035
-3.05493
-3.05687
-3.05619
-3.05302
-3.04742
-3.03944
-3.02913
-3.01654
-3.00174
-2.9848
-2.96577
-2.94474
-2.92179
-2.89698
-2.87041
-2.84217
-2.81232
-2.78098
-2.74821
-2.7141
-2.67876
-2.64228
-2.67203
-2.69422
-2.71391
-2.73093
-2.74529
-2.75704
-2.76626
-2.77306
-2.77738
-2.77915
-2.77843
-2.77533
-2.76991
-2.76221
-2.75227
-2.74016
-2.72592
-2.70962
-2.69133
-2.67112
-2.64905
-2.62521
-2.59967
-2.57252
-2.54383
-2.51369
-2.48219
-2.44941
-2.41544
-2.3804
-2.43722
-2.45823
-2.47684
-2.49292
-2.50646
-2.51752
-2.52619
-2.53253
-2.53649
-2.538
-2.53713
-2.534
-2.52866
-2.52112
-2.51145
-2.4997
-2.48591
-2.47014
-2.45246
-2.43294
-2.41164
-2.38864
-2.36401
-2.33783
-2.31018
-2.28114
-2.2508
-2.21923
-2.18653
-2.15282
-2.23415
-2.25398
-2.27152
-2.28664
-2.29934
-2.30967
-2.31773
-2.32357
-2.3271
-2.32828
-2.32722
-2.324
-2.31865
-2.31121
-2.30172
-2.29023
-2.27679
-2.26147
-2.24431
-2.22538
-2.20475
-2.18249
-2.15867
-2.13336
-2.10664
-2.07859
-2.0493
-2.01884
-1.98731
-1.95482
-2.05802
-2.07672
-2.09321
-2.10738
-2.11924
-2.12885
-2.1363
-2.14161
-2.14468
-2.14551
-2.14422
-2.14086
-2.13547
-2.12807
-2.1187
-2.10742
-2.09428
-2.07932
-2.06261
-2.0442
-2.02416
-2.00256
-1.97945
-1.95493
-1.92906
-1.90191
-1.87358
-1.84414
-1.81369
-1.78233
-1.90471
-1.92232
-1.93781
-1.95108
-1.96214
-1.97105
-1.97789
-1.98267
-1.9853
-1.9858
-1.98426
-1.98074
-1.97527
-1.96788
-1.95861
-1.9475
-1.93461
-1.91997
-1.90365
-1.88571
-1.8662
-1.84519
-1.82274
-1.79893
-1.77383
-1.74752
-1.72007
-1.69157
-1.66211
-1.6318
-1.77069
-1.78729
-1.80184
-1.81426
-1.82456
-1.83281
-1.83909
-1.84337
-1.84557
-1.84574
-1.84397
-1.84029
-1.83474
-1.82735
-1.81815
-1.8072
-1.79452
-1.78018
-1.76422
-1.74671
-1.72768
-1.70722
-1.68538
-1.66223
-1.63784
-1.6123
-1.58567
-1.55805
-1.52951
-1.50017
-1.65297
-1.66863
-1.68232
-1.69395
-1.70355
-1.71119
-1.71695
-1.72077
-1.72258
-1.72245
-1.72046
-1.71664
-1.71102
-1.70363
-1.6945
-1.68369
-1.67123
-1.65716
-1.64154
-1.62443
-1.60586
-1.58591
-1.56464
-1.54211
-1.51839
-1.49357
-1.46771
-1.4409
-1.41323
-1.38481
-1.54904
-1.56385
-1.57674
-1.58766
-1.59662
-1.60371
-1.609
-1.6124
-1.61386
-1.61346
-1.61127
-1.60733
-1.60165
-1.59428
-1.58524
-1.57457
-1.56231
-1.54852
-1.53323
-1.5165
-1.49837
-1.47891
-1.45818
-1.43623
-1.41315
-1.38901
-1.36387
-1.33783
-1.31098
-1.28343
-1.45679
-1.47082
-1.483
-1.49327
-1.50166
-1.50827
-1.51312
-1.51614
-1.51729
-1.51666
-1.51432
-1.51028
-1.50457
-1.49723
-1.48828
-1.47777
-1.46573
-1.4522
-1.43724
-1.42088
-1.40318
-1.3842
-1.36399
-1.34261
-1.32013
-1.29663
-1.27218
-1.24687
-1.2208
-1.19406
-1.37445
-1.38777
-1.39931
-1.40901
-1.41689
-1.42306
-1.42753
-1.43021
-1.4311
-1.43029
-1.42782
-1.42372
-1.41801
-1.41071
-1.40188
-1.39153
-1.37971
-1.36646
-1.35182
-1.33584
-1.31857
-1.30005
-1.28034
-1.25951
-1.23761
-1.21473
-1.19094
-1.16632
-1.14098
-1.11502
-1.30055
-1.31324
-1.3242
-1.33339
-1.34083
-1.34662
-1.35075
-1.35313
-1.35381
-1.35285
-1.35029
-1.34615
-1.34046
-1.33324
-1.32453
-1.31437
-1.30278
-1.28981
-1.27551
-1.2599
-1.24305
-1.22498
-1.20577
-1.18547
-1.16414
-1.14184
-1.11868
-1.09472
-1.07007
-1.04485
-1.23386
-1.24599
-1.25644
-1.26517
-1.27222
-1.27767
-1.2815
-1.28365
-1.28416
-1.28309
-1.28047
-1.27632
-1.27066
-1.26354
-1.25498
-1.24501
-1.23367
-1.22099
-1.20702
-1.1918
-1.17536
-1.15775
-1.13902
-1.11924
-1.09845
-1.07673
-1.05416
-1.03082
-1.00684
-0.982324
-1.17337
-1.18499
-1.19498
-1.20331
-1.21002
-1.21518
-1.21876
-1.22072
-1.22109
-1.21993
-1.21728
-1.21314
-1.20756
-1.20055
-1.19215
-1.18239
-1.17131
-1.15893
-1.1453
-1.13045
-1.11443
-1.09727
-1.07903
-1.05975
-1.03949
-1.01832
-0.996313
-0.97357
-0.950204
-0.926355
-1.11822
-1.12939
-1.13898
-1.14695
-1.15337
-1.15827
-1.16164
-1.16344
-1.1637
-1.16249
-1.15983
-1.15574
-1.15024
-1.14336
-1.13514
-1.1256
-1.11478
-1.10271
-1.08942
-1.07496
-1.05935
-1.04264
-1.02487
-1.00609
-0.986344
-0.965702
-0.944239
-0.92205
-0.899261
-0.876032
-1.06771
-1.07847
-1.0877
-1.09536
-1.10151
-1.1062
-1.1094
-1.11106
-1.11125
-1.11001
-1.10737
-1.10333
-1.09794
-1.09121
-1.08317
-1.07387
-1.06332
-1.05156
-1.03862
-1.02454
-1.00935
-0.993083
-0.975783
-0.957488
-0.938246
-0.918112
-0.897162
-0.875488
-0.853226
-0.830565
-1.02124
-1.03164
-1.04054
-1.04793
-1.05386
-1.05837
-1.06141
-1.06298
-1.06311
-1.06186
-1.05925
-1.05529
-1.05001
-1.04344
-1.03561
-1.02654
-1.01627
-1.00482
-0.992235
-0.978538
-0.963762
-0.947939
-0.931104
-0.91329
-0.894538
-0.874896
-0.85443
-0.833229
-0.811436
-0.789281
-0.978308
-0.98838
-0.996995
-1.00414
-1.00987
-1.01423
-1.01715
-1.01864
-1.01874
-1.01751
-1.01494
-1.01107
-1.00592
-0.99952
-0.991892
-0.983067
-0.973075
-0.961945
-0.949709
-0.936395
-0.922032
-0.906649
-0.890274
-0.872937
-0.854666
-0.8355
-0.815494
-0.794721
-0.773333
-0.751623
-0.938502
-0.948276
-0.95663
-0.963554
-0.969117
-0.973342
-0.976162
-0.977586
-0.977675
-0.976458
-0.973954
-0.970181
-0.965166
-0.958934
-0.951515
-0.942935
-0.933222
-0.922407
-0.910519
-0.897584
-0.883631
-0.868683
-0.852765
-0.835898
-0.818102
-0.799401
-0.779834
-0.759448
-0.738402
-0.717117
-0.901471
-0.910971
-0.919087
-0.925816
-0.931226
-0.935326
-0.938057
-0.939435
-0.939515
-0.938327
-0.935885
-0.93221
-0.927329
-0.921266
-0.91405
-0.905707
-0.896266
-0.885755
-0.874203
-0.861635
-0.848078
-0.833552
-0.818079
-0.80167
-0.784336
-0.766084
-0.746929
-0.726877
-0.706093
-0.685272
-0.866918
-0.876199
-0.884132
-0.890718
-0.896016
-0.900035
-0.902716
-0.904082
-0.904189
-0.903056
-0.900701
-0.897145
-0.892415
-0.886535
-0.879532
-0.871434
-0.862268
-0.852063
-0.840845
-0.82864
-0.815473
-0.801363
-0.786325
-0.770365
-0.753481
-0.735656
-0.716874
-0.697065
-0.676402
-0.655939
-0.83456
-0.843703
-0.851534
-0.858056
-0.863324
-0.867337
-0.870048
-0.871488
-0.871699
-0.870701
-0.868514
-0.865158
-0.86066
-0.855044
-0.848338
-0.840569
-0.831763
-0.821949
-0.811153
-0.799401
-0.786716
-0.773115
-0.758611
-0.743202
-0.72687
-0.70957
-0.691238
-0.671694
-0.651154
-0.631133
-0.804093
-0.812812
-0.820269
-0.826471
-0.831461
-0.835239
-0.837776
-0.839095
-0.839234
-0.838213
-0.836054
-0.832779
-0.828412
-0.82298
-0.81651
-0.809028
-0.800562
-0.79114
-0.780789
-0.769536
-0.757405
-0.744416
-0.730582
-0.715907
-0.700373
-0.683938
-0.666531
-0.647839
-0.628302
-0.611954
-4.50848
-4.60427
-4.696
-4.79074
-4.88685
-4.9829
-5.07836
-5.1729
-5.2662
-5.35801
-5.44809
-5.53627
-5.62237
-5.70623
-5.78772
-5.86671
-5.94308
-6.01671
-6.08751
-6.15538
-6.22024
-6.28201
-6.34063
-6.39606
-6.44827
-6.49724
-6.54304
-6.58575
-6.62564
-6.66423
-3.60755
-3.707
-3.80358
-3.89987
-3.99573
-4.09076
-4.18478
-4.27764
-4.36916
-4.45915
-4.54743
-4.63383
-4.7182
-4.80039
-4.88026
-4.9577
-5.03259
-5.10481
-5.17426
-5.24086
-5.30452
-5.36518
-5.42276
-5.47722
-5.52853
-5.57667
-5.62166
-5.66355
-5.70238
-5.73838
-2.97475
-3.07279
-3.16913
-3.26418
-3.35821
-3.45119
-3.54304
-3.63366
-3.7229
-3.81062
-3.89667
-3.98089
-4.06315
-4.14332
-4.22126
-4.29685
-4.36998
-4.44055
-4.50845
-4.57359
-4.6359
-4.69531
-4.75173
-4.80513
-4.85546
-4.90269
-4.94678
-4.98773
-5.02551
-5.06004
-2.48473
-2.57932
-2.67288
-2.76519
-2.85643
-2.94662
-3.03567
-3.12348
-3.20994
-3.29491
-3.37826
-3.45986
-3.53958
-3.6173
-3.69288
-3.76623
-3.83722
-3.90575
-3.97174
-4.03508
-4.09571
-4.15355
-4.20852
-4.26057
-4.30965
-4.35571
-4.39872
-4.43862
-4.47538
-4.50895
-2.06898
-2.15954
-2.24948
-2.33838
-2.42626
-2.51313
-2.59891
-2.68349
-2.76675
-2.84858
-2.92886
-3.00747
-3.08428
-3.15918
-3.23205
-3.30279
-3.37129
-3.43745
-3.50118
-3.56239
-3.621
-3.67694
-3.73013
-3.78053
-3.82807
-3.8727
-3.91438
-3.95305
-3.98867
-4.02122
-1.72391
-1.81033
-1.89633
-1.98145
-2.06566
-2.14892
-2.23114
-2.31222
-2.39205
-2.47052
-2.54751
-2.6229
-2.69659
-2.76846
-2.8384
-2.90631
-2.97209
-3.03564
-3.09688
-3.15572
-3.21208
-3.26589
-3.31708
-3.36559
-3.41136
-3.45435
-3.4945
-3.53176
-3.5661
-3.59748
-1.44094
-1.52325
-1.60525
-1.68649
-1.7669
-1.84643
-1.925
-2.00249
-2.0788
-2.15382
-2.22742
-2.29952
-2.36999
-2.43873
-2.50563
-2.57061
-2.63355
-2.69438
-2.753
-2.80934
-2.86331
-2.91484
-2.96388
-3.01036
-3.05422
-3.09541
-3.13389
-3.16961
-3.20254
-3.23265
-1.20901
-1.28736
-1.36543
-1.44283
-1.51948
-1.59533
-1.67028
-1.74421
-1.81702
-1.8886
-1.95885
-2.02765
-2.09491
-2.16053
-2.22439
-2.28642
-2.34651
-2.40458
-2.46054
-2.51432
-2.56584
-2.61505
-2.66186
-2.70623
-2.7481
-2.78743
-2.82416
-2.85825
-2.88968
-2.91843
-1.01887
-1.09345
-1.16777
-1.24148
-1.31452
-1.38681
-1.45825
-1.52873
-1.59815
-1.66641
-1.73339
-1.79899
-1.86313
-1.92569
-1.98658
-2.04571
-2.10299
-2.15834
-2.21168
-2.26293
-2.31203
-2.3589
-2.40349
-2.44574
-2.48561
-2.52304
-2.55799
-2.59042
-2.62031
-2.64765
-0.862816
-0.933862
-1.00465
-1.07489
-1.1445
-1.21341
-1.28153
-1.34873
-1.41493
-1.48001
-1.54387
-1.60643
-1.66756
-1.7272
-1.78523
-1.84158
-1.89616
-1.94888
-1.99968
-2.04848
-2.09521
-2.13981
-2.18222
-2.2224
-2.2603
-2.29586
-2.32905
-2.35983
-2.38818
-2.4141
-0.73439
-0.802149
-0.869653
-0.936649
-1.00306
-1.06881
-1.1338
-1.19793
-1.26109
-1.32319
-1.38412
-1.44379
-1.5021
-1.55897
-1.6143
-1.66801
-1.72002
-1.77024
-1.81862
-1.86507
-1.90954
-1.95197
-1.9923
-2.03048
-2.06647
-2.10023
-2.13171
-2.16089
-2.18775
-2.21227
-0.628246
-0.692968
-0.757435
-0.821427
-0.884869
-0.947685
-1.00978
-1.07104
-1.13138
-1.19069
-1.24889
-1.30586
-1.36154
-1.41581
-1.46861
-1.51984
-1.56944
-1.61731
-1.66341
-1.70765
-1.74999
-1.79036
-1.82872
-1.86501
-1.89919
-1.93123
-1.96109
-1.98874
-2.01416
-2.03735
-0.540034
-0.601959
-0.663629
-0.724851
-0.785553
-0.845658
-0.905068
-0.963684
-1.02141
-1.07814
-1.1338
-1.18828
-1.2415
-1.29337
-1.34381
-1.39274
-1.44008
-1.48577
-1.52973
-1.57192
-1.61226
-1.65071
-1.68721
-1.72173
-1.75422
-1.78465
-1.81298
-1.83918
-1.86325
-1.88518
-0.466241
-0.525594
-0.584691
-0.643366
-0.701547
-0.759155
-0.816096
-0.872272
-0.927585
-0.981944
-1.03526
-1.08743
-1.13838
-1.18803
-1.23628
-1.28307
-1.32833
-1.37199
-1.41398
-1.45425
-1.49274
-1.5294
-1.56419
-1.59706
-1.62797
-1.6569
-1.68381
-1.70867
-1.73148
-1.75223
-0.404051
-0.461037
-0.51777
-0.574104
-0.629967
-0.68528
-0.73995
-0.79388
-0.846976
-0.899145
-0.950298
-1.00035
-1.04921
-1.09679
-1.14303
-1.18785
-1.23119
-1.27297
-1.31314
-1.35164
-1.38841
-1.42343
-1.45663
-1.48797
-1.51744
-1.54498
-1.57057
-1.5942
-1.61584
-1.6355
-0.351218
-0.406023
-0.46058
-0.51476
-0.568492
-0.621696
-0.674278
-0.726143
-0.777199
-0.827354
-0.876519
-0.924608
-0.971538
-1.01723
-1.06161
-1.10462
-1.14617
-1.18623
-1.22472
-1.26159
-1.29679
-1.33028
-1.36202
-1.39197
-1.4201
-1.44637
-1.47076
-1.49324
-1.51381
-1.53247
-0.305955
-0.358744
-0.411295
-0.463492
-0.515262
-0.566525
-0.617186
-0.667153
-0.716331
-0.76463
-0.811962
-0.858245
-0.903397
-0.947343
-0.990014
-1.03134
-1.07127
-1.10973
-1.14667
-1.18204
-1.2158
-1.2479
-1.2783
-1.30696
-1.33386
-1.35896
-1.38225
-1.4037
-1.42329
-1.44104
-0.266841
-0.317761
-0.368457
-0.418823
-0.468785
-0.51826
-0.567154
-0.615371
-0.662817
-0.709404
-0.755046
-0.799661
-0.843173
-0.885508
-0.9266
-0.966386
-1.00481
-1.0418
-1.07732
-1.11132
-1.14374
-1.17456
-1.20373
-1.23122
-1.257
-1.28104
-1.30332
-1.32382
-1.34252
-1.35945
-0.232749
-0.281927
-0.330904
-0.379577
-0.42787
-0.475696
-0.522959
-0.569561
-0.615407
-0.660412
-0.704491
-0.747565
-0.78956
-0.830406
-0.870041
-0.908403
-0.945434
-0.98108
-1.01529
-1.04802
-1.07922
-1.10886
-1.1369
-1.16332
-1.18807
-1.21114
-1.2325
-1.25214
-1.27004
-1.28622
-0.202785
-0.25033
-0.297707
-0.344812
-0.391562
-0.437866
-0.48362
-0.528727
-0.573093
-0.616631
-0.659262
-0.700908
-0.741499
-0.780968
-0.819254
-0.856299
-0.892047
-0.926446
-0.959448
-0.991009
-1.02109
-1.04965
-1.07666
-1.10208
-1.1259
-1.14808
-1.16861
-1.18747
-1.20464
-1.22014
-0.176236
-0.22224
-0.268125
-0.313776
-0.359098
-0.403991
-0.448349
-0.492069
-0.53506
-0.577237
-0.618523
-0.658844
-0.69813
-0.736321
-0.773356
-0.809181
-0.843742
-0.876988
-0.908874
-0.939358
-0.968401
-0.995967
-1.02203
-1.04655
-1.06951
-1.09088
-1.11064
-1.12879
-1.14531
-1.1602
-0.152512
-0.197067
-0.241562
-0.285863
-0.329862
-0.373448
-0.416507
-0.458939
-0.500651
-0.541562
-0.581595
-0.620682
-0.658755
-0.695756
-0.731629
-0.766321
-0.79978
-0.831957
-0.86281
-0.892298
-0.920384
-0.947034
-0.972219
-0.99591
-1.01808
-1.03871
-1.05778
-1.07528
-1.0912
-1.10554
-0.131147
-0.174325
-0.217531
-0.260581
-0.303354
-0.345727
-0.38758
-0.428812
-0.469332
-0.50906
-0.547925
-0.585859
-0.622801
-0.658693
-0.693483
-0.72712
-0.759553
-0.790738
-0.820632
-0.849197
-0.876398
-0.902202
-0.92658
-0.949506
-0.970956
-0.990908
-1.00935
-1.02626
-1.04163
-1.05547
-0.111734
-0.153599
-0.195628
-0.237522
-0.279162
-0.320411
-0.361142
-0.401255
-0.440661
-0.479284
-0.517056
-0.553912
-0.589795
-0.624652
-0.65843
-0.691082
-0.722561
-0.752821
-0.781824
-0.809533
-0.835912
-0.860933
-0.884567
-0.906788
-0.927572
-0.946901
-0.964757
-0.981129
-0.996008
-1.0094
-0.0939414
-0.134559
-0.175526
-0.216372
-0.256968
-0.297177
-0.336864
-0.375931
-0.414293
-0.45188
-0.488626
-0.524472
-0.559364
-0.593249
-0.626081
-0.657813
-0.688398
-0.717796
-0.745968
-0.772878
-0.798495
-0.822788
-0.845731
-0.867299
-0.88747
-0.906224
-0.923546
-0.939425
-0.953851
-0.96683
-0.0774633
-0.116997
-0.157071
-0.196967
-0.236607
-0.27585
-0.31456
-0.352643
-0.390022
-0.426631
-0.462409
-0.497301
-0.531256
-0.564227
-0.596166
-0.62703
-0.656775
-0.685362
-0.712753
-0.738915
-0.763816
-0.787428
-0.809725
-0.830684
-0.850281
-0.8685
-0.885326
-0.900748
-0.914757
-0.927357
-0.0618892
-0.100655
-0.140048
-0.179092
-0.217857
-0.256197
-0.293985
-0.331136
-0.367581
-0.403262
-0.438122
-0.472112
-0.505182
-0.537287
-0.568384
-0.59843
-0.627383
-0.655207
-0.681864
-0.707323
-0.731554
-0.754529
-0.776222
-0.796611
-0.815675
-0.833397
-0.849762
-0.864759
-0.878382
-0.890632
-0.0459534
-0.0840693
-0.123113
-0.161461
-0.199462
-0.237002
-0.273954
-0.310257
-0.345854
-0.380692
-0.414722
-0.447897
-0.48017
-0.511499
-0.541842
-0.571159
-0.59941
-0.626558
-0.652569
-0.677411
-0.701055
-0.723475
-0.744645
-0.764543
-0.783149
-0.800446
-0.816421
-0.831063
-0.844364
-0.856327
-0.0278304
-0.0654692
-0.104717
-0.142724
-0.180232
-0.21717
-0.253465
-0.289086
-0.323992
-0.358138
-0.391481
-0.423978
-0.455587
-0.486267
-0.515979
-0.544684
-0.572345
-0.598927
-0.624397
-0.648725
-0.671882
-0.693843
-0.714583
-0.734081
-0.752318
-0.769278
-0.784948
-0.799317
-0.81238
-0.824137
-0.0150484
-0.0557978
-0.0956696
-0.133294
-0.170282
-0.206546
-0.242058
-0.276847
-0.310888
-0.344145
-0.376579
-0.408155
-0.438835
-0.468583
-0.497365
-0.525145
-0.551891
-0.577571
-0.602157
-0.625622
-0.647939
-0.669087
-0.689043
-0.70779
-0.72531
-0.74159
-0.756618
-0.770388
-0.782893
-0.794136
0.918307
0.928263
0.938463
0.948775
0.95917
0.969613
0.980047
0.990393
1.00055
1.01037
1.01967
1.0282
1.03562
1.04146
1.04511
1.04571
1.04211
1.03272
1.01543
0.987397
0.944837
0.882741
0.794589
0.672066
0.504474
0.278119
-0.0199385
-0.399879
-0.938323
-1.76977
0.897938
0.907314
0.917128
0.927008
0.936924
0.946862
0.956764
0.966545
0.976095
0.985267
0.993867
1.00163
1.00821
1.01314
1.01576
1.01522
1.01033
0.999506
0.980595
0.950737
0.906124
0.841746
0.751063
0.625779
0.455215
0.225737
-0.0754907
-0.458338
-0.998344
-1.82775
0.876541
0.885281
0.89468
0.904099
0.913504
0.922902
0.932235
0.941411
0.950316
0.958795
0.966647
0.973602
0.979296
0.983244
0.98479
0.983046
0.976814
0.964478
0.94387
0.912104
0.865359
0.798593
0.705288
0.577134
0.403512
0.170872
-0.13346
-0.51899
-1.06004
-1.88686
0.854136
0.862186
0.871145
0.880074
0.888934
0.897758
0.906486
0.91502
0.923239
0.930985
0.938047
0.944146
0.948907
0.951832
0.952249
0.949251
0.941619
0.927718
0.905355
0.871622
0.822677
0.753469
0.657464
0.526385
0.349648
0.113807
-0.193647
-0.581949
-1.12472
-1.95098
0.830743
0.838053
0.846544
0.854955
0.863236
0.871451
0.879539
0.887393
0.894889
0.90186
0.908089
0.913288
0.91707
0.918924
0.918159
0.913854
0.904769
0.889244
0.865068
0.829309
0.778101
0.706378
0.607611
0.473535
0.293614
0.0544983
-0.256162
-0.647375
-1.1923
-2.01915
0.806385
0.812903
0.820902
0.828765
0.836436
0.844007
0.851418
0.858556
0.865288
0.871445
0.876799
0.881053
0.883811
0.884544
0.882548
0.876882
0.866287
0.849081
0.823032
0.785186
0.731645
0.657337
0.555729
0.418578
0.235394
-0.00708367
-0.321052
-0.715298
-1.26259
-2.09056
0.781085
0.786765
0.794247
0.801533
0.808561
0.815454
0.822153
0.828537
0.834469
0.83977
0.844208
0.847475
0.849161
0.848725
0.845448
0.838369
0.826209
0.807267
0.77929
0.739285
0.683348
0.606374
0.501846
0.361541
0.17501
-0.0709203
-0.3883
-0.785698
-1.33554
-2.16492
0.754868
0.759665
0.766605
0.773288
0.77964
0.785821
0.791774
0.797369
0.802462
0.806869
0.81035
0.812585
0.813155
0.811503
0.806895
0.798351
0.784573
0.763838
0.733863
0.691643
0.633228
0.553517
0.446002
0.302464
0.112506
-0.136965
-0.457856
-0.858521
-1.41105
-2.24206
0.727759
0.731631
0.738007
0.744059
0.749704
0.755142
0.760313
0.765084
0.769302
0.772777
0.77526
0.776422
0.77583
0.772916
0.766927
0.756866
0.741411
0.71882
0.686784
0.642273
0.581312
0.498812
0.388233
0.2414
0.0479359
-0.205163
-0.52966
-0.933694
-1.48902
-2.3218
0.699785
0.702693
0.708484
0.713877
0.718786
0.723448
0.727807
0.73172
0.735027
0.737532
0.738978
0.739025
0.737229
0.733007
0.725589
0.71396
0.696777
0.672272
0.638121
0.591247
0.527693
0.442327
0.328627
0.178419
-0.0186349
-0.275445
-0.603637
-1.01113
-1.56936
-2.404
0.670974
0.672882
0.678068
0.682777
0.68692
0.690777
0.694292
0.697313
0.699675
0.701174
0.701544
0.700437
0.697395
0.691822
0.682931
0.669688
0.650733
0.624275
0.587946
0.538674
0.472455
0.384153
0.267261
0.113586
-0.0871391
-0.347743
-0.679712
-1.09075
-1.65194
-2.48851
0.641351
0.642229
0.646791
0.650791
0.654141
0.657164
0.659805
0.661903
0.663287
0.663744
0.663003
0.660702
0.656374
0.649408
0.639
0.624099
0.603326
0.574861
0.536315
0.484574
0.415625
0.324338
0.20416
0.0469523
-0.157514
-0.421984
-0.757802
-1.17244
-1.73666
-2.57523
0.610943
0.610762
0.614685
0.617953
0.620483
0.622645
0.624385
0.625531
0.625904
0.625287
0.623398
0.619867
0.614213
0.605811
0.593842
0.577236
0.554594
0.52406
0.483235
0.428962
0.357238
0.262888
0.139383
-0.0214168
-0.229687
-0.498088
-0.837819
-1.25613
-1.82342
-2.66402
0.579776
0.578514
0.581782
0.584296
0.585982
0.587258
0.588069
0.588235
0.587569
0.585846
0.582776
0.577979
0.570961
0.561083
0.547509
0.529153
0.504582
0.471936
0.428758
0.37191
0.297356
0.199901
0.0730122
-0.0914398
-0.303575
-0.575968
-0.91967
-1.34169
-1.91211
-2.75479
0.547877
0.545514
0.548116
0.549855
0.550674
0.551041
0.5509
0.550059
0.548326
0.545468
0.541186
0.535088
0.526671
0.515278
0.500059
0.479908
0.453371
0.418552
0.372987
0.313525
0.236081
0.135477
0.00513273
-0.163031
-0.379091
-0.655533
-1.00326
-1.42903
-2.00261
-2.8474
0.515272
0.511796
0.513721
0.514666
0.514597
0.514034
0.512919
0.511048
0.508222
0.504202
0.498678
0.49125
0.4814
0.468459
0.451562