/*--------------------------------*- C++ -*----------------------------------*\
  =========                 |
  \\      /  F ield         | OpenFOAM: The Open Source CFD Toolbox
   \\    /   O peration     | Website:  https://openfoam.org
    \\  /    A nd           | Version:  6.0
     \\/     M anipulation  |
\*---------------------------------------------------------------------------*/
FoamFile
{
    version     2.0;
    format      ascii;
    class       volVectorField;
    location    "0.5005";
    object      U;
}
// * * * * * * * * * * * * * * * * * * * * * * * * * * * * * * * * * * * * * //

dimensions      [0 1 -1 0 0 0 0];

internalField   nonuniform List<vector> 
19200
(
(0.099229 -4.80707 -4.31028e-21)
(0.0582833 -4.45907 2.07487e-21)
(0.0557027 -4.13927 8.85267e-22)
(0.0579136 -3.84498 7.23807e-22)
(0.0595332 -3.57325 7.28926e-22)
(0.0627175 -3.32136 5.42844e-23)
(0.0675504 -3.08698 9.16601e-22)
(0.073726 -2.86815 -3.82867e-23)
(0.0810929 -2.66326 6.99655e-22)
(0.0895391 -2.47095 2.7626e-22)
(0.0989593 -2.2901 2.9475e-23)
(0.109262 -2.11977 3.84869e-22)
(0.120369 -1.95918 5.43448e-22)
(0.132213 -1.80768 -3.43331e-22)
(0.144733 -1.66471 4.20604e-22)
(0.157873 -1.5298 3.28497e-22)
(0.171578 -1.40255 -2.99377e-22)
(0.185796 -1.2826 4.81403e-22)
(0.200472 -1.16964 -2.95917e-22)
(0.215549 -1.06341 1.4715e-22)
(0.23097 -0.963641 1.94121e-22)
(0.246672 -0.870123 -5.9574e-23)
(0.262591 -0.782692 8.0642e-23)
(0.27866 -0.701233 -9.15759e-23)
(0.294803 -0.625663 -1.41487e-24)
(0.310949 -0.555805 4.76735e-23)
(0.327018 -0.491437 -3.14312e-23)
(0.342945 -0.432294 1.93616e-23)
(0.358663 -0.378153 4.51865e-23)
(0.374053 -0.32881 1.92343e-22)
(0.225212 -4.80268 -9.08178e-22)
(0.175439 -4.45719 6.18775e-21)
(0.164612 -4.13909 -3.16364e-21)
(0.159278 -3.84639 -3.85679e-21)
(0.153994 -3.57629 -1.53721e-21)
(0.150815 -3.32596 -1.03195e-21)
(0.149744 -3.09306 -2.09471e-21)
(0.15041 -2.87565 2.91872e-22)
(0.15261 -2.67211 -4.67486e-22)
(0.156192 -2.48108 -1.38037e-21)
(0.161015 -2.30146 -2.9448e-21)
(0.166964 -2.13231 1.33747e-21)
(0.173939 -1.97287 -4.63887e-22)
(0.181857 -1.82248 1.74904e-22)
(0.190643 -1.68058 -9.33664e-22)
(0.200231 -1.54671 -3.11302e-22)
(0.210559 -1.42047 4.17817e-23)
(0.221567 -1.30148 9.7906e-22)
(0.233197 -1.18944 -5.24635e-22)
(0.245387 -1.08406 -2.82067e-22)
(0.258076 -0.985093 -1.01298e-21)
(0.271198 -0.892301 2.56668e-22)
(0.284687 -0.80551 -1.57099e-22)
(0.298472 -0.724603 2.7199e-22)
(0.312479 -0.649474 -1.22225e-22)
(0.326631 -0.57996 -1.90539e-22)
(0.340853 -0.515814 6.29641e-23)
(0.355071 -0.45678 9.59341e-23)
(0.369224 -0.402623 -1.72052e-22)
(0.38318 -0.353135 9.2583e-23)
(0.350774 -4.79529 -4.30355e-22)
(0.292255 -4.4524 1.51044e-21)
(0.273396 -4.13616 2.22342e-21)
(0.260693 -3.84526 1.35135e-20)
(0.248644 -3.57698 -7.09441e-21)
(0.239218 -3.32838 6.50947e-21)
(0.232345 -3.09712 3.72597e-21)
(0.227594 -2.88126 2.50741e-21)
(0.224713 -2.67917 -2.21928e-21)
(0.223508 -2.48953 -8.34422e-23)
(0.223811 -2.31123 4.89924e-21)
(0.225478 -2.14334 6.95416e-22)
(0.22839 -1.98512 -1.92022e-21)
(0.232449 -1.8359 1.50658e-21)
(0.237566 -1.69514 1.80049e-23)
(0.243667 -1.56238 5.54774e-22)
(0.25068 -1.43719 3.98679e-22)
(0.258539 -1.31922 1.1829e-21)
(0.267181 -1.20815 -5.41054e-22)
(0.27654 -1.10368 -1.7827e-22)
(0.28655 -1.00556 -4.11159e-22)
(0.297144 -0.91355 1.74469e-21)
(0.308252 -0.827452 -1.43449e-21)
(0.319798 -0.747139 4.73177e-22)
(0.331708 -0.672503 2.03174e-22)
(0.343901 -0.603375 -8.35493e-22)
(0.356299 -0.539508 1.11854e-21)
(0.368832 -0.480638 -1.23422e-22)
(0.381435 -0.426522 -1.26954e-22)
(0.393965 -0.376948 -9.30182e-22)
(0.476061 -4.78477 -1.55364e-20)
(0.408865 -4.44473 -1.30412e-20)
(0.382084 -4.13056 -1.46801e-20)
(0.362139 -3.84166 9.26133e-22)
(0.343444 -3.57536 8.95052e-22)
(0.327881 -3.32866 -1.35582e-20)
(0.315306 -3.09918 7.41945e-22)
(0.30523 -2.88498 1.46934e-21)
(0.297352 -2.68446 -3.31321e-22)
(0.291441 -2.49629 2.12304e-21)
(0.287297 -2.31939 -8.43436e-21)
(0.284753 -2.15285 -4.66834e-21)
(0.283671 -1.9959 1.85449e-21)
(0.283937 -1.84792 3.0651e-21)
(0.28545 -1.70836 -3.58235e-21)
(0.288126 -1.57675 -5.34069e-22)
(0.291885 -1.45267 -1.85666e-21)
(0.296655 -1.33577 -8.41519e-22)
(0.302365 -1.22572 1.31453e-21)
(0.308948 -1.12222 -1.66303e-21)
(0.316332 -1.02501 1.36256e-21)
(0.324448 -0.93382 -1.62451e-21)
(0.333223 -0.848463 -1.24389e-21)
(0.342579 -0.768792 -8.56047e-22)
(0.352433 -0.694694 -2.63713e-22)
(0.362703 -0.62599 -1.75534e-21)
(0.373307 -0.562459 1.79305e-22)
(0.384175 -0.503807 3.14028e-22)
(0.395247 -0.449789 -9.14718e-22)
(0.406359 -0.40019 1.94131e-22)
(0.601031 -4.77106 -9.47049e-21)
(0.525257 -4.43416 1.2154e-21)
(0.490656 -4.12228 1.06986e-20)
(0.463583 -3.83558 1.03055e-20)
(0.438355 -3.57145 6.73989e-21)
(0.416762 -3.32679 2.56119e-21)
(0.398584 -3.09922 3.83722e-21)
(0.383272 -2.8868 1.57952e-20)
(0.370481 -2.68794 -9.32516e-21)
(0.359941 -2.50134 3.3473e-22)
(0.351423 -2.32592 2.04809e-21)
(0.344738 -2.16079 7.49959e-21)
(0.339729 -2.00519 -4.95399e-21)
(0.336266 -1.85851 3.30838e-21)
(0.334238 -1.7202 -3.41898e-21)
(0.33355 -1.5898 5.56797e-21)
(0.334115 -1.46688 -1.64868e-21)
(0.335854 -1.3511 5.01998e-23)
(0.33869 -1.24212 2.31612e-21)
(0.34255 -1.13963 1.50674e-21)
(0.34736 -1.04337 -1.5613e-21)
(0.353048 -0.953061 2.03818e-21)
(0.359536 -0.868505 -9.09351e-22)
(0.366745 -0.789518 1.03525e-21)
(0.374587 -0.715992 1.34261e-21)
(0.382972 -0.647771 4.79796e-22)
(0.391817 -0.584597 1.47587e-21)
(0.401048 -0.526228 -5.26349e-22)
(0.410609 -0.472365 -1.83779e-22)
(0.420315 -0.4228 -8.99152e-22)
(0.725614 -4.75416 -6.82936e-21)
(0.641381 -4.42068 -4.47852e-21)
(0.59907 -4.11134 -1.2072e-20)
(0.56498 -3.82703 -2.82328e-20)
(0.533333 -3.56524 9.76902e-21)
(0.505815 -3.32278 5.00541e-22)
(0.48213 -3.09723 -5.45447e-21)
(0.461673 -2.88671 8.25608e-22)
(0.444051 -2.68961 -8.90327e-22)
(0.428959 -2.50466 -1.08633e-20)
(0.416139 -2.3308 4.68386e-21)
(0.40538 -2.16714 7.11136e-21)
(0.396508 -2.01296 1.10109e-22)
(0.38938 -1.86763 2.36545e-21)
(0.383872 -1.73063 5.29401e-21)
(0.379881 -1.60148 -3.4603e-21)
(0.37731 -1.47978 5.86016e-21)
(0.376075 -1.36516 -2.62746e-21)
(0.376094 -1.25729 4.55274e-21)
(0.377286 -1.15586 -3.29901e-21)
(0.379574 -1.0606 1.45912e-21)
(0.382881 -0.971231 3.6165e-21)
(0.387128 -0.887513 1.42836e-22)
(0.392229 -0.809283 -3.23663e-21)
(0.398098 -0.736373 1.8183e-21)
(0.404637 -0.668657 2.1711e-22)
(0.411758 -0.605908 -5.57537e-22)
(0.419386 -0.547845 2.17794e-21)
(0.427461 -0.494196 7.60943e-22)
(0.435776 -0.444724 -7.79642e-22)
(0.849733 -4.73407 1.8293e-20)
(0.757177 -4.4043 -2.09431e-21)
(0.707274 -4.09773 -2.47264e-20)
(0.666286 -3.81603 4.80761e-21)
(0.628332 -3.55674 -5.65855e-21)
(0.594994 -3.31661 4.72126e-21)
(0.5659 -3.09322 8.90047e-21)
(0.540386 -2.88469 1.43557e-20)
(0.518014 -2.68945 -1.43437e-20)
(0.498443 -2.50623 3.56233e-21)
(0.481391 -2.334 -1.92345e-21)
(0.466625 -2.17189 1.41884e-21)
(0.453953 -2.01918 -6.23556e-21)
(0.44322 -1.87526 -1.82298e-22)
(0.434292 -1.73961 8.84126e-21)
(0.427055 -1.61176 -6.04289e-21)
(0.421407 -1.49132 -3.47631e-21)
(0.417255 -1.37791 -2.30614e-21)
(0.414511 -1.2712 4.38543e-21)
(0.413091 -1.17088 8.76092e-22)
(0.412911 -1.07666 -3.93399e-21)
(0.413887 -0.988264 5.14958e-21)
(0.415938 -0.905449 -4.56144e-21)
(0.418973 -0.828004 2.9856e-21)
(0.422903 -0.755782 -1.65803e-21)
(0.427633 -0.688625 1.08757e-21)
(0.433063 -0.626335 7.9946e-22)
(0.439117 -0.568636 -3.55619e-21)
(0.445736 -0.515241 1.55059e-21)
(0.45268 -0.465914 3.96927e-23)
(0.973309 -4.7108 -1.79529e-20)
(0.872582 -4.38503 1.53912e-20)
(0.815213 -4.08147 -2.39885e-20)
(0.767448 -3.80256 4.49021e-20)
(0.723303 -3.54595 -1.19198e-20)
(0.684251 -3.30828 1.49846e-20)
(0.649845 -3.08717 -5.79545e-22)
(0.619361 -2.88074 -2.22264e-21)
(0.592318 -2.68744 -2.47973e-21)
(0.568343 -2.50603 1.41172e-22)
(0.547127 -2.33549 -8.53203e-21)
(0.528416 -2.17499 4.42209e-21)
(0.512006 -2.02381 -4.74813e-21)
(0.497727 -1.88135 -4.23249e-22)
(0.485436 -1.74711 -1.20274e-20)
(0.47501 -1.62062 3.9318e-21)
(0.466339 -1.50148 2.047e-21)
(0.459325 -1.38932 -2.28973e-21)
(0.453873 -1.28381 -2.66596e-22)
(0.449893 -1.18464 -3.30518e-21)
(0.447297 -1.0915 -1.15348e-21)
(0.445995 -1.00413 7.71225e-23)
(0.445897 -0.922252 -2.67964e-21)
(0.446914 -0.845654 -3.8468e-21)
(0.448951 -0.774158 1.67017e-22)
(0.451906 -0.707618 -3.96155e-22)
(0.45568 -0.645828 1.19e-21)
(0.46019 -0.588543 -2.93894e-21)
(0.465376 -0.535452 2.50743e-21)
(0.470971 -0.486326 -5.17454e-21)
(1.09626 -4.68437 -4.57841e-20)
(0.987528 -4.36287 5.31318e-20)
(0.92283 -4.06256 -5.18335e-20)
(0.868414 -3.78664 -1.23822e-20)
(0.818197 -3.53285 -7.21848e-21)
(0.773539 -3.29779 -7.29932e-21)
(0.733916 -3.07907 -6.69479e-21)
(0.698549 -2.87483 -1.76534e-21)
(0.666914 -2.68356 -6.24736e-21)
(0.638605 -2.50403 -1.32055e-21)
(0.613289 -2.33526 8.4466e-21)
(0.590696 -2.17642 -5.47747e-21)
(0.570606 -2.02683 -5.73476e-21)
(0.552838 -1.88589 -8.64252e-21)
(0.53724 -1.75309 1.76189e-20)
(0.523679 -1.628 -6.54448e-21)
(0.51204 -1.51021 2.31833e-21)
(0.502217 -1.39935 -8.12454e-21)
(0.494109 -1.29509 3.06966e-21)
(0.48762 -1.1971 -1.19432e-21)
(0.482657 -1.1051 1.50906e-21)
(0.479124 -1.01879 -5.46303e-22)
(0.476929 -0.937897 4.50985e-21)
(0.475975 -0.862196 -1.60024e-21)
(0.476165 -0.791476 4.25439e-21)
(0.477391 -0.72559 -7.45653e-22)
(0.479545 -0.664358 5.52968e-21)
(0.482543 -0.607513 1.50256e-21)
(0.486326 -0.554786 2.88028e-21)
(0.490593 -0.505916 -9.50416e-21)
(1.21851 -4.65478 7.27756e-20)
(1.10195 -4.33784 -1.45133e-20)
(1.03007 -4.041 2.11953e-20)
(0.969131 -3.76825 -5.83078e-21)
(0.912963 -3.51745 1.99699e-20)
(0.862808 -3.28512 1.72204e-20)
(0.818064 -3.0689 1.83241e-20)
(0.777899 -2.86694 -1.23968e-21)
(0.741747 -2.67778 -1.50695e-20)
(0.709174 -2.50022 2.1984e-20)
(0.679823 -2.33328 -1.05205e-21)
(0.653407 -2.17616 1.39622e-20)
(0.629694 -2.02821 4.67327e-21)
(0.608491 -1.88883 1.78472e-21)
(0.589639 -1.75754 2.76089e-21)
(0.572996 -1.6339 3.38666e-21)
(0.558441 -1.51749 5.28229e-21)
(0.54586 -1.40797 -1.38026e-21)
(0.535148 -1.30499 7.13747e-21)
(0.526201 -1.20824 3.12801e-21)
(0.518921 -1.1174 -6.50235e-21)
(0.513207 -1.0322 1.11571e-20)
(0.508961 -0.952351 -1.45237e-20)
(0.506082 -0.877588 1.36477e-20)
(0.504467 -0.807715 -4.48099e-21)
(0.504006 -0.74253 8.5459e-22)
(0.50458 -0.681884 -5.84039e-21)
(0.506105 -0.625533 3.24948e-21)
(0.50852 -0.573198 1.19158e-21)
(0.511484 -0.524641 -1.53001e-21)
(1.33999 -4.62206 -4.2052e-20)
(1.21577 -4.30995 3.78298e-20)
(1.13686 -4.0168 -1.00493e-20)
(1.06954 -3.74741 2.70853e-20)
(1.00755 -3.49973 2.49446e-21)
(0.952004 -3.27027 4.14984e-21)
(0.902236 -3.05665 -3.83678e-20)
(0.857358 -2.85708 -6.03007e-21)
(0.816764 -2.6701 2.16869e-20)
(0.779994 -2.49457 1.49618e-20)
(0.746669 -2.32952 -2.46574e-20)
(0.716488 -2.17419 1.35812e-20)
(0.689206 -2.02792 -1.31619e-20)
(0.664621 -1.89016 8.38827e-21)
(0.642565 -1.76042 -1.33905e-20)
(0.622892 -1.63826 -9.38697e-21)
(0.605471 -1.52329 8.5979e-22)
(0.590184 -1.41515 -3.8899e-21)
(0.576918 -1.3135 7.23423e-21)
(0.565564 -1.21801 2.66633e-21)
(0.556017 -1.12839 -1.78815e-21)
(0.548171 -1.04433 -5.60575e-22)
(0.541921 -0.965559 1.92454e-21)
(0.537162 -0.891799 -6.44858e-21)
(0.533785 -0.822815 1.08529e-20)
(0.531674 -0.758402 -2.62677e-21)
(0.53071 -0.69839 -1.97251e-22)
(0.5308 -0.642576 9.37781e-21)
(0.531882 -0.590667 1.28173e-21)
(0.533578 -0.542473 -1.33361e-21)
(1.4606 -4.58624 7.63727e-22)
(1.32894 -4.2792 -2.31989e-20)
(1.24315 -3.98996 -1.95736e-20)
(1.1696 -3.7241 -2.92637e-20)
(1.1019 -3.47971 6.36073e-22)
(1.04108 -3.25323 -1.75711e-20)
(0.98638 -3.04231 2.09676e-20)
(0.936871 -2.8452 -1.7859e-21)
(0.891909 -2.6605 1.3929e-20)
(0.851006 -2.48705 -1.21056e-20)
(0.813767 -2.32396 -5.78952e-21)
(0.779875 -2.17047 2.93174e-21)
(0.749076 -2.02595 1.458e-21)
(0.721161 -1.88985 -1.40205e-20)
(0.695952 -1.7617 8.27239e-21)
(0.673297 -1.64108 -3.77965e-21)
(0.65306 -1.52758 1.0623e-20)
(0.635115 -1.42086 -3.35745e-21)
(0.619344 -1.32058 3.555e-21)
(0.605633 -1.2264 7.6169e-22)
(0.59387 -1.13802 5.49129e-21)
(0.583942 -1.05515 -1.16393e-21)
(0.575737 -0.977499 8.70209e-21)
(0.569144 -0.904786 -9.57986e-21)
(0.564048 -0.836745 -3.13729e-21)
(0.560329 -0.77317 2.60567e-21)
(0.557864 -0.713851 -2.17314e-22)
(0.556556 -0.658612 -4.54722e-21)
(0.556344 -0.607181 3.74989e-21)
(0.556805 -0.55938 -4.56717e-21)
(1.58028 -4.54732 7.1074e-20)
(1.44137 -4.24562 1.93906e-20)
(1.34888 -3.9605 2.07349e-20)
(1.26923 -3.69835 2.60349e-20)
(1.19596 -3.45737 3.64164e-20)
(1.12997 -3.23398 -7.41925e-22)
(1.07044 -3.02586 5.18179e-21)
(1.01638 -2.83131 3.40856e-20)
(0.967124 -2.64894 -7.08958e-21)
(0.922152 -2.47766 -1.09228e-20)
(0.881055 -2.31658 1.87321e-20)
(0.843506 -2.16499 2.72037e-21)
(0.80924 -2.02226 3.81693e-22)
(0.778041 -1.88787 4.05583e-21)
(0.749727 -1.76136 6.72929e-21)
(0.724137 -1.64231 -1.30628e-20)
(0.701132 -1.53034 1.0976e-20)
(0.680578 -1.42508 1.85327e-21)
(0.662351 -1.3262 9.84901e-21)
(0.646332 -1.23337 -5.21158e-21)
(0.632401 -1.14628 8.47942e-21)
(0.62044 -1.06463 -8.75935e-21)
(0.610329 -0.988139 8.45588e-21)
(0.601949 -0.91651 1.08686e-21)
(0.595181 -0.849473 -5.495e-21)
(0.589897 -0.786786 -1.76678e-21)
(0.585969 -0.728235 1.05647e-20)
(0.583303 -0.673623 7.68761e-21)
(0.581834 -0.622717 2.08806e-21)
(0.581093 -0.575349 -1.51131e-21)
(1.69894 -4.50534 7.43773e-21)
(1.55301 -4.20922 1.56633e-20)
(1.45398 -3.92842 5.80475e-20)
(1.36839 -3.67013 -9.26829e-20)
(1.28968 -3.43271 -7.89176e-21)
(1.21863 -3.21253 -8.66232e-21)
(1.15436 -3.0073 4.13787e-21)
(1.09584 -2.81538 5.05307e-21)
(1.04235 -2.63542 7.15528e-21)
(0.993369 -2.46637 -1.81923e-20)
(0.948469 -2.30736 -2.72607e-21)
(0.907312 -2.15771 9.8283e-21)
(0.869628 -2.01683 9.46443e-21)
(0.835192 -1.8842 -9.37527e-21)
(0.803818 -1.75938 -8.2019e-21)
(0.77534 -1.64195 1.40815e-20)
(0.749612 -1.53153 8.65552e-21)
(0.726495 -1.42778 -2.19571e-21)
(0.705861 -1.33034 -5.15295e-21)
(0.687581 -1.2389 1.00509e-21)
(0.671531 -1.15314 -1.13034e-20)
(0.657585 -1.07276 1.36372e-20)
(0.645617 -0.997458 -9.14596e-21)
(0.6355 -0.926954 -3.35059e-22)
(0.627106 -0.860966 6.04796e-21)
(0.620303 -0.799222 -1.8023e-21)
(0.614956 -0.741508 -5.45102e-21)
(0.610969 -0.687588 6.76655e-21)
(0.60828 -0.637249 -1.37008e-22)
(0.606374 -0.590373 1.30145e-21)
(1.81651 -4.46033 -5.62368e-21)
(1.66378 -4.17002 -1.66272e-20)
(1.5584 -3.89373 -6.75256e-20)
(1.46702 -3.63947 2.45632e-20)
(1.383 -3.40572 -6.31075e-21)
(1.30701 -3.18885 2.19918e-20)
(1.23809 -2.98661 1.78238e-21)
(1.17517 -2.7974 -2.05756e-20)
(1.11752 -2.61992 3.07063e-20)
(1.06459 -2.45315 -2.64441e-20)
(1.01594 -2.29628 -6.35666e-22)
(0.971227 -2.14863 5.87202e-21)
(0.93017 -2.00964 -9.43903e-21)
(0.892542 -1.87882 1.034e-20)
(0.858152 -1.75573 -1.89622e-20)
(0.826829 -1.63996 -3.75408e-21)
(0.798423 -1.53115 1.11248e-20)
(0.772789 -1.42894 3.20474e-22)
(0.749792 -1.33298 -6.08938e-21)
(0.729299 -1.24297 1.70033e-20)
(0.711178 -1.15858 -9.18156e-21)
(0.695296 -1.0795 -1.17791e-20)
(0.681519 -1.00543 3.81803e-21)
(0.669714 -0.936095 -1.11156e-20)
(0.659743 -0.871193 -2.61736e-21)
(0.651467 -0.810453 -2.87824e-22)
(0.644744 -0.753627 -7.1736e-21)
(0.639477 -0.700475 8.60947e-21)
(0.635609 -0.650759 -4.76893e-21)
(0.632575 -0.604432 5.76718e-21)
(1.93291 -4.4123 -2.68237e-20)
(1.77361 -4.12803 -6.85405e-20)
(1.66207 -3.85644 2.94511e-20)
(1.56505 -3.60635 -2.72229e-20)
(1.47586 -3.3764 -1.76821e-20)
(1.39503 -3.16294 -9.09371e-21)
(1.32156 -2.96378 -3.46041e-20)
(1.25433 -2.77734 2.29329e-20)
(1.19258 -2.60241 -5.3177e-20)
(1.13576 -2.43799 -1.73896e-20)
(1.08341 -2.28331 7.0901e-21)
(1.03518 -2.13771 1.02647e-20)
(0.990794 -2.00067 -5.70052e-22)
(0.950016 -1.87171 -1.76118e-20)
(0.912652 -1.75039 4.11471e-21)
(0.878528 -1.63633 -1.46816e-20)
(0.847486 -1.52916 -9.96001e-21)
(0.819379 -1.42854 -5.61092e-21)
(0.794065 -1.33411 -7.59843e-22)
(0.771404 -1.24557 1.00168e-20)
(0.751259 -1.16258 1.36648e-20)
(0.733489 -1.08484 -4.03501e-21)
(0.717953 -1.01205 -3.90431e-21)
(0.704508 -0.943917 7.45693e-21)
(0.69301 -0.880142 4.00924e-21)
(0.68331 -0.82045 -3.24835e-21)
(0.675258 -0.764569 -3.63571e-21)
(0.668758 -0.712258 4.41531e-22)
(0.663749 -0.663234 3.70477e-21)
(0.659619 -0.6175 5.22125e-21)
(2.04807 -4.36129 -3.38664e-21)
(1.88245 -4.08328 8.61637e-20)
(1.76493 -3.81657 6.05751e-20)
(1.66244 -3.57079 4.34585e-20)
(1.5682 -3.34476 -2.79569e-20)
(1.48265 -3.1348 -5.243e-21)
(1.40471 -2.93878 4.87239e-21)
(1.33324 -2.75521 2.92694e-20)
(1.26746 -2.58288 1.01553e-20)
(1.2068 -2.42087 2.35781e-20)
(1.1508 -2.26843 -3.18291e-20)
(1.0991 -2.12495 3.45499e-21)
(1.05143 -1.98991 1.19388e-20)
(1.00754 -1.86284 6.97495e-21)
(0.967242 -1.74335 1.34169e-20)
(0.930356 -1.63104 -9.61387e-21)
(0.896721 -1.52556 -8.06544e-21)
(0.866183 -1.42656 1.71498e-21)
(0.838595 -1.33371 1.66735e-20)
(0.813812 -1.24667 -2.62669e-20)
(0.791689 -1.16513 9.1243e-21)
(0.772078 -1.08878 -1.48398e-24)
(0.754832 -1.0173 1.64963e-20)
(0.739798 -0.950409 -7.09789e-21)
(0.726825 -0.8878 -4.47651e-22)
(0.715752 -0.829193 -4.50156e-21)
(0.706424 -0.774318 4.27873e-21)
(0.698735 -0.72289 1.03496e-21)
(0.692623 -0.674643 -4.74814e-21)
(0.687428 -0.62956 1.63879e-20)
(2.16191 -4.30733 -9.19654e-20)
(1.99021 -4.03578 -5.18698e-20)
(1.86691 -3.77411 -1.23317e-19)
(1.75911 -3.53279 -5.11514e-20)
(1.65996 -3.31077 4.68464e-20)
(1.5698 -3.10442 -2.47332e-20)
(1.48749 -2.91163 -5.18729e-21)
(1.41185 -2.73097 -1.43568e-20)
(1.3421 -2.56132 2.49304e-20)
(1.27764 -2.40178 -5.56856e-21)
(1.21803 -2.25164 -8.40725e-21)
(1.16291 -2.11032 -8.78279e-22)
(1.11199 -1.97732 -2.87933e-20)
(1.06504 -1.85221 -2.01012e-22)
(1.02184 -1.73459 7.78202e-21)
(0.982236 -1.62408 -8.79183e-22)
(0.946047 -1.52033 -2.63074e-20)
(0.913118 -1.423 2.50699e-20)
(0.883299 -1.33175 -2.3956e-20)
(0.856436 -1.24626 9.2896e-21)
(0.832379 -1.16622 1.31413e-21)
(0.810975 -1.09129 4.5465e-22)
(0.792065 -1.02117 -9.35245e-21)
(0.775492 -0.955566 3.14964e-21)
(0.761094 -0.894165 -5.20697e-23)
(0.748702 -0.836684 1.03207e-21)
(0.738146 -0.782848 -2.26767e-20)
(0.729315 -0.732364 6.20491e-21)
(0.722139 -0.684929 6.58043e-21)
(0.715915 -0.640574 7.55454e-21)
(2.27436 -4.25046 1.78205e-19)
(2.09684 -3.98555 5.52592e-20)
(1.96796 -3.7291 3.12285e-20)
(1.85501 -3.49235 4.84078e-20)
(1.75109 -3.27446 -5.0066e-21)
(1.65642 -3.07178 3.20176e-20)
(1.56982 -2.88229 6.6654e-20)
(1.49008 -2.70462 -8.73488e-21)
(1.41641 -2.53771 3.54918e-21)
(1.34822 -2.38069 6.67616e-20)
(1.28505 -2.23291 -9.4362e-21)
(1.22654 -2.0938 8.74537e-21)
(1.17241 -1.96291 -2.66298e-21)
(1.12243 -1.8398 6.46687e-22)
(1.07638 -1.72409 3.98981e-20)
(1.03409 -1.61542 1.49713e-21)
(0.995381 -1.51344 3.9483e-20)
(0.960102 -1.41783 -5.055e-21)
(0.92809 -1.32823 -8.13695e-21)
(0.89919 -1.24434 1.88117e-20)
(0.873241 -1.16582 -1.65857e-20)
(0.850085 -1.09237 1.82115e-20)
(0.829557 -1.02366 9.67453e-21)
(0.811491 -0.95938 -7.61881e-21)
(0.795715 -0.899235 1.18414e-20)
(0.782049 -0.842928 1.45887e-21)
(0.770315 -0.790175 -4.87553e-21)
(0.760388 -0.740674 2.74592e-21)
(0.752195 -0.694107 1.74742e-20)
(0.744982 -0.650526 2.73705e-21)
(2.38533 -4.19069 -3.08194e-20)
(2.20226 -3.93262 -5.84575e-20)
(2.068 -3.68153 2.20662e-20)
(1.95009 -3.44948 -8.70768e-20)
(1.84153 -3.23581 3.83322e-20)
(1.74245 -3.03688 -6.68922e-20)
(1.65164 -2.85076 -4.01656e-20)
(1.56787 -2.67615 1.14246e-20)
(1.49034 -2.51203 8.81756e-21)
(1.41846 -2.3576 -4.84943e-20)
(1.35177 -2.21222 -1.95156e-20)
(1.28991 -2.07539 8.31058e-21)
(1.23262 -1.94664 -2.31428e-20)
(1.17963 -1.82558 -8.68091e-21)
(1.13077 -1.71184 -5.48786e-21)
(1.08583 -1.60506 -5.39269e-21)
(1.04464 -1.5049 -2.22066e-20)
(1.00705 -1.41104 -1.32013e-20)
(0.972885 -1.32314 2.74094e-21)
(0.941984 -1.24088 4.34771e-21)
(0.914184 -1.16394 4.4464e-21)
(0.889316 -1.09199 -1.53609e-20)
(0.867211 -1.02473 5.74739e-21)
(0.847693 -0.96184 -1.16364e-20)
(0.830582 -0.903002 1.09324e-20)
(0.815689 -0.847919 -1.42929e-20)
(0.802819 -0.796301 4.47833e-21)
(0.791843 -0.747832 -7.0029e-21)
(0.782677 -0.702179 -9.98681e-21)
(0.774518 -0.659427 -9.81495e-22)
(2.49476 -4.12808 -6.59607e-20)
(2.30641 -3.87702 -5.41981e-20)
(2.16699 -3.63143 -4.79854e-20)
(2.04427 -3.40419 -3.18256e-20)
(1.9312 -3.19481 9.95112e-20)
(1.82783 -2.99972 1.23425e-20)
(1.73288 -2.81704 3.81302e-20)
(1.64515 -2.64554 5.48227e-20)
(1.56381 -2.48427 2.40204e-20)
(1.48828 -2.33248 -3.26189e-20)
(1.41811 -2.18958 4.7625e-20)
(1.35295 -2.05507 -4.56291e-20)
(1.29252 -1.92853 4.11205e-20)
(1.23658 -1.80957 4.58049e-21)
(1.18493 -1.69783 9.84456e-21)
(1.13737 -1.59298 3.46331e-21)
(1.09375 -1.49469 3.71599e-20)
(1.05388 -1.40261 -5.48286e-21)
(1.0176 -1.31645 4.81449e-21)
(0.984733 -1.23586 1.54713e-20)
(0.955117 -1.16054 -1.72235e-20)
(0.928576 -1.09016 1.34694e-20)
(0.904931 -1.02439 5.6485e-22)
(0.884001 -0.96293 6.03652e-21)
(0.865595 -0.905451 1.09729e-20)
(0.849514 -0.851647 -1.80176e-21)
(0.835553 -0.801218 1.07184e-20)
(0.82357 -0.753836 1.55581e-20)
(0.813474 -0.70915 -1.69086e-20)
(0.804411 -0.66728 -1.06712e-20)
(2.60258 -4.06266 1.89221e-19)
(2.40922 -3.81877 -2.13664e-20)
(2.26486 -3.57882 3.87793e-20)
(2.1375 -3.35648 6.48147e-20)
(2.02006 -3.15149 -1.78913e-19)
(1.91248 -2.96029 1.8871e-20)
(1.81348 -2.7811 -6.01658e-20)
(1.72184 -2.61278 5.7303e-20)
(1.63674 -2.45443 -4.45454e-20)
(1.55761 -2.30534 2.07898e-20)
(1.484 -2.16496 -7.70654e-20)
(1.41557 -2.03283 3.64558e-21)
(1.35204 -1.90854 -2.22295e-20)
(1.29318 -1.79173 3.4651e-20)
(1.23878 -1.68206 -3.53743e-20)
(1.18865 -1.57918 -1.61785e-21)
(1.14262 -1.48279 -2.66884e-20)
(1.10051 -1.39255 -2.16307e-21)
(1.06215 -1.30816 2.16392e-21)
(1.02735 -1.22928 5.36952e-21)
(0.995955 -1.15562 -3.13339e-20)
(0.967774 -1.08683 -8.84604e-22)
(0.942623 -1.02261 -1.70775e-20)
(0.920315 -0.962627 -3.8393e-21)
(0.90065 -0.90656 -1.02268e-20)
(0.88342 -0.854093 -1.11594e-20)
(0.868406 -0.804915 -1.16491e-20)
(0.855458 -0.758681 1.94637e-20)
(0.844473 -0.715021 5.27725e-21)
(0.834543 -0.67409 -1.06335e-20)
(2.7087 -3.99446 -1.26305e-19)
(2.51064 -3.75791 4.48504e-20)
(2.36156 -3.52371 -6.97002e-20)
(2.22973 -3.30636 9.67486e-21)
(2.10804 -3.10581 9.99455e-20)
(1.99635 -2.91858 -4.93531e-20)
(1.89337 -2.74295 -4.78909e-20)
(1.79787 -2.57787 -3.93704e-20)
(1.70906 -2.42249 2.13834e-21)
(1.62637 -2.27616 2.35817e-20)
(1.54936 -2.13837 -1.53671e-20)
(1.4777 -2.00867 1.43218e-21)
(1.41111 -1.88669 4.52905e-20)
(1.34936 -1.77208 -2.26289e-20)
(1.29225 -1.66451 5.26964e-21)
(1.23958 -1.56366 -1.67745e-20)
(1.19118 -1.4692 6.50991e-21)
(1.14686 -1.38084 1.31673e-20)
(1.10645 -1.29825 1.47318e-20)
(1.06976 -1.22112 -1.59659e-20)
(1.03661 -1.14915 2.05893e-21)
(1.00682 -1.082 1.32785e-20)
(0.980196 -1.01936 2.26131e-20)
(0.95654 -0.960901 6.07944e-21)
(0.935648 -0.906301 -2.33718e-20)
(0.917301 -0.855232 2.70279e-20)
(0.901271 -0.807371 -1.35569e-20)
(0.887394 -0.762353 -1.62199e-20)
(0.875556 -0.719784 -9.88503e-21)
(0.864794 -0.679854 -1.40494e-20)
(2.81307 -3.92353 6.64054e-20)
(2.6106 -3.69446 -5.03288e-20)
(2.45704 -3.46611 2.03141e-20)
(2.3209 -3.25384 9.13748e-20)
(2.19507 -3.0578 2.35874e-20)
(2.07936 -2.87459 -1.83136e-20)
(1.97245 -2.70257 4.40176e-20)
(1.87316 -2.54079 1.16801e-20)
(1.78068 -2.38844 3.78233e-20)
(1.69447 -2.24494 1.96302e-20)
(1.61411 -2.10978 1.54561e-21)
(1.53925 -1.98258 1.13523e-20)
(1.46964 -1.86297 -3.36394e-21)
(1.40504 -1.75061 5.68069e-21)
(1.34525 -1.64519 1.57073e-20)
(1.29009 -1.5464 -8.19872e-21)
(1.23935 -1.45393 2.01158e-20)
(1.19286 -1.36747 1.97662e-20)
(1.15043 -1.28672 -2.19795e-20)
(1.11188 -1.21137 2.27392e-20)
(1.07701 -1.14111 4.71115e-20)
(1.04564 -1.07563 -3.02166e-20)
(1.01756 -1.0146 3.01998e-20)
(0.992584 -0.957717 -2.08991e-20)
(0.97049 -0.904634 -3.01259e-21)
(0.951053 -0.855024 2.25086e-20)
(0.934035 -0.80855 -4.56276e-21)
(0.919261 -0.764824 1.6823e-20)
(0.906602 -0.723421 1.68607e-20)
(0.895036 -0.684557 -3.42883e-20)
(2.91561 -3.8499 -6.31357e-20)
(2.70907 -3.62845 3.1411e-20)
(2.55125 -3.40606 1.03324e-20)
(2.41095 -3.19891 -1.06588e-19)
(2.28109 -3.00744 -5.10017e-20)
(2.16143 -2.8283 3.66268e-20)
(2.05067 -2.65996 -9.62987e-20)
(1.94762 -2.50153 1.11289e-19)
(1.85153 -2.35229 -5.98399e-20)
(1.76185 -2.21167 6.79901e-21)
(1.67816 -2.07922 -1.12314e-20)
(1.60014 -1.95457 -2.94627e-20)
(1.52755 -1.83738 6.06371e-20)
(1.46014 -1.72732 2.15449e-20)
(1.39772 -1.6241 -2.23185e-20)
(1.34009 -1.52741 8.35478e-22)
(1.28706 -1.43696 1.19594e-20)
(1.23843 -1.35244 -2.46215e-20)
(1.19403 -1.27356 5.47668e-21)
(1.15364 -1.2 1.68556e-20)
(1.11709 -1.13149 -6.68689e-21)
(1.08416 -1.06769 1.111e-20)
(1.05465 -1.00831 -2.17459e-20)
(1.02837 -0.953027 3.16772e-20)
(1.00509 -0.901505 7.37915e-21)
(0.984576 -0.85341 -1.9888e-20)
(0.966589 -0.808396 -1.71429e-20)
(0.950941 -0.766046 2.19954e-22)
(0.937487 -0.725892 2.40325e-20)
(0.925137 -0.688171 -5.85619e-21)
(3.01628 -3.77363 -1.62996e-20)
(2.806 -3.55993 -1.15761e-19)
(2.64415 -3.34355 1.35026e-19)
(2.49984 -3.14157 8.61548e-20)
(2.36603 -2.95471 8.01904e-20)
(2.24248 -2.77971 1.99969e-20)
(2.12792 -2.61511 3.03468e-20)
(2.02118 -2.46011 1.49707e-20)
(1.92152 -2.31403 -5.50014e-20)
(1.8284 -2.17636 9.92259e-20)
(1.74143 -2.04668 -7.50671e-20)
(1.6603 -1.92464 -3.55e-21)
(1.58476 -1.80992 1.13356e-20)
(1.51458 -1.70222 -4.36788e-20)
(1.44957 -1.60125 3.80292e-20)
(1.38952 -1.50671 -1.10204e-20)
(1.33423 -1.41831 -2.76813e-20)
(1.28351 -1.33576 1.03554e-20)
(1.23716 -1.25876 -1.98542e-20)
(1.19498 -1.18703 -1.71215e-20)
(1.15677 -1.12026 -1.81027e-20)
(1.12231 -1.05817 4.05349e-21)
(1.09139 -1.00044 2.37938e-21)
(1.06382 -0.946772 -4.36444e-20)
(1.03936 -0.896839 -1.64433e-20)
(1.01778 -0.850306 1.07557e-20)
(0.998835 -0.806819 1.32383e-20)
(0.982322 -0.765933 -1.81439e-20)
(0.968091 -0.727126 -6.89397e-21)
(0.954968 -0.690631 8.71691e-22)
(3.11506 -3.69473 -1.74937e-20)
(2.9014 -3.4889 7.50021e-20)
(2.73572 -3.27858 -2.07943e-20)
(2.58749 -3.08181 -2.50944e-20)
(2.44981 -2.89962 -1.25013e-19)
(2.32244 -2.72881 -2.40083e-20)
(2.20413 -2.56803 4.82756e-20)
(2.09375 -2.41652 -2.91165e-20)
(1.99055 -2.27367 -2.3137e-21)
(1.89405 -2.13901 -5.45034e-21)
(1.80384 -2.01216 2.79938e-20)
(1.71964 -1.8928 -4.44007e-20)
(1.6412 -1.78062 -2.84371e-20)
(1.5683 -1.67533 3.22947e-20)
(1.50073 -1.57665 -1.78543e-20)
(1.4383 -1.4843 -2.06744e-20)
(1.3808 -1.39799 4.41442e-20)
(1.32803 -1.31744 -6.72753e-21)
(1.27979 -1.24235 2.49488e-20)
(1.23585 -1.17245 -2.30079e-20)
(1.19601 -1.10744 -1.8247e-20)
(1.16005 -1.04703 1.55865e-20)
(1.12775 -0.990953 -1.81766e-21)
(1.0989 -0.938894 -1.16776e-20)
(1.07327 -0.89055 1.01224e-20)
(1.05063 -0.845597 -3.16177e-20)
(1.03071 -0.803686 1.92677e-20)
(1.01333 -0.764352 -2.7186e-22)
(0.99833 -0.727001 -2.02034e-20)
(0.98445 -0.691815 3.10518e-20)
(3.21204 -3.61328 6.06709e-20)
(2.9953 -3.41541 -1.5386e-19)
(2.8259 -3.21113 -1.06002e-20)
(2.67382 -3.0196 6.35637e-20)
(2.53233 -2.84214 -1.56433e-20)
(2.4012 -2.6756 -4.03541e-20)
(2.2792 -2.5187 1.91201e-20)
(2.16522 -2.37076 2.01082e-20)
(2.05855 -2.23121 1.62826e-21)
(1.9587 -2.09964 2.27907e-20)
(1.8653 -1.97569 6.88802e-20)
(1.77808 -1.85906 -2.46601e-20)
(1.69678 -1.74947 5.60992e-21)
(1.6212 -1.64665 -1.4221e-20)
(1.55113 -1.55032 5.62465e-20)
(1.48636 -1.46021 -9.53059e-21)
(1.42671 -1.37602 3.1824e-20)
(1.37194 -1.2975 -1.18751e-20)
(1.32184 -1.22434 1.2827e-20)
(1.27619 -1.15627 1.89786e-20)
(1.23477 -1.09301 3.15077e-21)
(1.19735 -1.03429 1.2518e-20)
(1.1637 -0.979826 -1.02889e-20)
(1.1336 -0.92934 2.87272e-20)
(1.10681 -0.882545 -1.16977e-20)
(1.0831 -0.839144 4.27128e-20)
(1.0622 -0.798812 -1.23307e-20)
(1.04393 -0.761088 8.44683e-21)
(1.02818 -0.725292 -1.59671e-20)
(1.0136 -0.691514 3.07135e-20)
(3.30759 -3.52942 -1.39222e-19)
(3.08784 -3.33939 5.47294e-21)
(2.91466 -3.14112 -7.08829e-20)
(2.75873 -2.9549 1.27257e-20)
(2.61346 -2.78226 2.83304e-21)
(2.47863 -2.62008 -5.43494e-20)
(2.35301 -2.46714 -9.64776e-20)
(2.2355 -2.32284 4.67024e-20)
(2.12541 -2.18667 -6.44775e-20)
(2.02227 -2.05825 -3.18693e-20)
(1.92573 -1.93727 -1.72045e-20)
(1.83552 -1.82345 -1.35114e-20)
(1.75142 -1.71651 1.78838e-22)
(1.6732 -1.61622 -4.59152e-20)
(1.60068 -1.52228 2.89142e-20)
(1.53364 -1.43445 -4.68939e-20)
(1.47187 -1.35244 -1.12985e-20)
(1.41516 -1.27596 1.26079e-20)
(1.36327 -1.20476 1.55688e-20)
(1.31597 -1.13853 1.52947e-20)
(1.27303 -1.07703 1.14367e-20)
(1.2342 -1.01996 -2.85149e-20)
(1.19925 -0.96707 2.88047e-20)
(1.16794 -0.91809 -3.02029e-21)
(1.14002 -0.872752 -7.68126e-21)
(1.11525 -0.830788 -3.00783e-20)
(1.09335 -0.791912 -1.58689e-20)
(1.07413 -0.755683 2.94022e-20)
(1.05756 -0.721353 -9.54333e-21)
(1.04228 -0.68907 -9.96427e-21)
(3.40217 -3.4428 6.26238e-20)
(3.17907 -3.26046 7.32073e-21)
(3.00183 -3.06837 -1.49284e-20)
(2.84204 -2.88766 -1.62056e-21)
(2.69309 -2.71998 -2.19889e-20)
(2.55465 -2.56227 7.3252e-20)
(2.42548 -2.41338 -3.32278e-20)
(2.3045 -2.2728 2.18575e-20)
(2.19105 -2.14008 9.3309e-21)
(2.08467 -2.01489 2.92546e-20)
(1.98504 -1.89694 -1.01286e-20)
(1.8919 -1.78598 5.79698e-20)
(1.80504 -1.68177 -4.89026e-21)
(1.72424 -1.58405 3.53802e-20)
(1.64932 -1.49257 -5.74432e-20)
(1.58006 -1.40707 -3.79896e-21)
(1.51624 -1.32726 3.63495e-20)
(1.45764 -1.25288 -2.18133e-20)
(1.40401 -1.18365 -1.52237e-20)
(1.35513 -1.1193 -2.58131e-20)
(1.31073 -1.05954 -2.2235e-20)
(1.27058 -1.00412 2.41899e-20)
(1.23441 -0.952767 -2.22308e-20)
(1.202 -0.905222 5.06854e-21)
(1.17307 -0.861219 1.79599e-20)
(1.14738 -0.820496 1.23072e-20)
(1.12461 -0.782762 1.18152e-20)
(1.10453 -0.747554 8.47132e-21)
(1.08703 -0.714179 -2.30601e-20)
(1.0709 -0.683159 -9.92691e-21)
(4.8905 -0.0289103 8.31799e-22)
(4.88618 -0.15766 7.65929e-21)
(4.87882 -0.285616 2.66831e-20)
(4.86837 -0.413061 1.4368e-20)
(4.85464 -0.540054 -3.15876e-20)
(4.83754 -0.666564 9.44314e-21)
(4.81709 -0.792524 -9.54521e-21)
(4.7933 -0.917855 -2.46456e-20)
(4.7662 -1.04247 6.56353e-20)
(4.73579 -1.16628 -1.57149e-20)
(4.70212 -1.2892 -1.48853e-20)
(4.6652 -1.41115 -3.30532e-20)
(4.62508 -1.53204 -9.57672e-20)
(4.58179 -1.65178 9.09594e-21)
(4.53538 -1.7703 -2.1684e-21)
(4.48587 -1.88752 -3.23647e-20)