/*--------------------------------*- C++ -*----------------------------------*\
  =========                 |
  \\      /  F ield         | OpenFOAM: The Open Source CFD Toolbox
   \\    /   O peration     | Website:  https://openfoam.org
    \\  /    A nd           | Version:  6.0
     \\/     M anipulation  |
\*---------------------------------------------------------------------------*/
FoamFile
{
    version     2.0;
    format      ascii;
    class       surfaceScalarField;
    location    "7.75";
    object      phi;
}
// * * * * * * * * * * * * * * * * * * * * * * * * * * * * * * * * * * * * * //

dimensions      [0 3 -1 0 0 0 0];

internalField   nonuniform List<scalar> 
18940
(
0.000110059
-0.115465
0.115355
0.000518881
-0.101814
0.101405
0.00121644
-0.0918052
0.0911076
0.00217416
-0.0844355
0.0834778
0.00335635
-0.0789631
0.0777809
0.00472497
-0.0748378
0.0734692
0.00624307
-0.0716622
0.0701441
0.00787663
-0.0691524
0.0675188
0.00959526
-0.0671059
0.0653873
0.0113725
-0.0653791
0.0636018
0.0131859
-0.0638702
0.0620568
0.0150167
-0.0625078
0.060677
0.0168493
-0.0612418
0.0594091
0.0186716
-0.0600371
0.0582149
0.0204739
-0.0588692
0.0570668
0.0222491
-0.05772
0.0559448
0.0239916
-0.0565755
0.054833
0.0256972
-0.0554233
0.0537178
0.0273618
-0.0542507
0.052586
-0.0530419
0.0514226
0.0289811
0.000130113
-0.115595
0.000567114
-0.102251
0.00130103
-0.0925391
0.00229966
-0.0854342
0.00352349
-0.080187
0.00493166
-0.0762459
0.00648513
-0.0732157
0.00814841
-0.0708157
0.00989018
-0.0688477
0.0116835
-0.0671724
0.0135056
-0.0656923
0.0153378
-0.06434
0.0171651
-0.0630691
0.0189758
-0.0618478
0.0207609
-0.0606543
0.022514
-0.0594731
0.0242306
-0.0582921
0.0259075
-0.0571002
0.0275418
-0.0558851
-0.0546307
0.0291306
0.00014548
-0.115741
0.000611175
-0.102716
0.00138115
-0.0933091
0.00241906
-0.0864721
0.00368184
-0.0814498
0.00512592
-0.07769
0.00671035
-0.0748001
0.00839829
-0.0725036
0.0101576
-0.070607
0.011961
-0.0689757
0.0137857
-0.067517
0.0156132
-0.0661675
0.017429
-0.0648848
0.0192219
-0.0636407
0.0209838
-0.0624163
0.0227093
-0.0611986
0.0243948
-0.0599775
0.0260381
-0.0587435
0.0276378
-0.0574848
-0.0561851
0.0291922
0.000159083
-0.1159
0.00065249
-0.10321
0.00145718
-0.0941137
0.00253215
-0.087547
0.00383076
-0.0827484
0.00530684
-0.0791661
0.0069176
-0.0764109
0.00862501
-0.074211
0.0103963
-0.0723783
0.0122038
-0.0707833
0.0140249
-0.0693381
0.0158416
-0.0679842
0.0176398
-0.066683
0.0194092
-0.0654101
0.0211426
-0.0641496
0.0228353
-0.0628913
0.0244849
-0.0616271
0.0260904
-0.060349
0.0276517
-0.059046
-0.0577017
0.0291683
0.000171737
-0.116072
0.000691563
-0.103729
0.00152917
-0.0949513
0.0026386
-0.0886565
0.00396966
-0.0840794
0.00547359
-0.08067
0.00710589
-0.0780432
0.00882746
-0.0759326
0.010605
-0.0741558
0.0124108
-0.0725891
0.0142224
-0.0711498
0.0160224
-0.0697841
0.0177973
-0.068458
0.0195377
-0.0671505
0.0212373
-0.0658492
0.0228926
-0.0645465
0.0245021
-0.0632367
0.0260661
-0.0619131
0.0275857
-0.0605656
-0.0591779
0.0290619
0.000183723
-0.116255
0.000728587
-0.104274
0.00159704
-0.0958198
0.00273811
-0.0897975
0.004098
-0.0854393
0.00562548
-0.0821975
0.00727441
-0.0796921
0.00900479
-0.077663
0.0107829
-0.0759339
0.0125812
-0.0743873
0.0143776
-0.0729462
0.0161551
-0.0715617
0.0179014
-0.0702042
0.0196077
-0.0688568
0.0212689
-0.0675104
0.0228824
-0.0661601
0.0244482
-0.0648024
0.0259674
-0.0634323
0.0274426
-0.0620407
-0.0606114
0.028876
0.00019513
-0.116451
0.000763593
-0.104843
0.00166069
-0.0967169
0.00283038
-0.0909672
0.00421534
-0.0868243
0.00576194
-0.0837441
0.00742255
-0.0813527
0.00915639
-0.0793968
0.0109296
-0.0777071
0.0127147
-0.0761724
0.0144902
-0.0747217
0.01624
-0.0733115
0.0179524
-0.0719167
0.0196199
-0.0705243
0.0212384
-0.0691288
0.0228064
-0.0677281
0.024325
-0.066321
0.0257967
-0.064904
0.0272251
-0.0634691
-0.0620003
0.028614
0.00020597
-0.116657
0.000796551
-0.105433
0.00171997
-0.0976403
0.00291518
-0.0921624
0.00432136
-0.0882305
0.0058826
-0.0853054
0.00754992
-0.08302
0.00928193
-0.0811288
0.0110447
-0.0794699
0.0128111
-0.0779389
0.0145605
-0.076471
0.0162774
-0.0750284
0.0179513
-0.0735906
0.0195757
-0.0721487
0.0211474
-0.0707006
0.0226664
-0.0692471
0.0241348
-0.0677893
0.0255564
-0.0663256
0.0269361
-0.0648488
-0.0633433
0.0282791
0.000216229
-0.116873
0.00082741
-0.106045
0.00177479
-0.0985877
0.00299234
-0.09338
0.00441585
-0.089654
0.00598723
-0.0868767
0.00765633
-0.0846891
0.00938131
-0.0828538
0.0111284
-0.0812169
0.0128709
-0.0796815
0.0145891
-0.0781892
0.0162683
-0.0767076
0.0178993
-0.0752215
0.0194764
-0.0737259
0.0209979
-0.0722221
0.0224647
-0.0707139
0.0238801
-0.0692048
0.0252493
-0.0676949
0.0265785
-0.066178
-0.0646388
0.0278741
0.000225878
-0.117099
0.000856131
-0.106675
0.00182509
-0.0995566
0.00306179
-0.0946167
0.00449871
-0.0910909
0.00607577
-0.0884538
0.0077418
-0.0863552
0.00945471
-0.0845667
0.011181
-0.0829432
0.0128947
-0.0813952
0.0145769
-0.0798713
0.0162141
-0.0783449
0.0177979
-0.0768053
0.0193242
-0.0752521
0.020792
-0.0736899
0.0222036
-0.0721255
0.0235635
-0.0705647
0.0248781
-0.0690095
0.0261549
-0.0674548
-0.0658857
0.0274018
0.0002349
-0.117334
0.000882712
-0.107323
0.00187088
-0.100545
0.00312354
-0.0958694
0.00457
-0.0925374
0.00614834
-0.0900321
0.00780658
-0.0880134
0.00950257
-0.0862627
0.0112032
-0.0846438
0.0128835
-0.0830755
0.0145252
-0.0815131
0.0161163
-0.0799359
0.0176493
-0.0783384
0.0191213
-0.076724
0.0205324
-0.075101
0.021886
-0.0734791
0.0231877
-0.0718665
0.0244454
-0.0702671
0.0256679
-0.0686773
-0.0670823
0.0268645
0.000243288
-0.117577
0.000907201
-0.107987
0.00191227
-0.10155
0.00317774
-0.0971348
0.0046299
-0.0939895
0.00620522
-0.0916074
0.00785113
-0.0896593
0.00952558
-0.0879372
0.0111961
-0.0863143
0.0128385
-0.0847179
0.0144359
-0.0831104
0.0159771
-0.0814771
0.017456
-0.0798173
0.0188706
-0.0781386
0.0202222
-0.0764526
0.021515
-0.0747719
0.022756
-0.0731075
0.0239542
-0.0714653
0.0251201
-0.0698432
-0.0682266
0.0262644
0.00025107
-0.117828
0.000929727
-0.108665
0.00194945
-0.10257
0.00322463
-0.09841
0.00467873
-0.0954436
0.00624687
-0.0931756
0.0078761
-0.0912885
0.00952468
-0.0895858
0.0111609
-0.0879505
0.0127616
-0.0863186
0.014311
-0.0846598
0.0157991
-0.0829653
0.017221
-0.0812392
0.0185756
-0.0794931
0.019865
-0.077742
0.0210944
-0.0760014
0.0222719
-0.0742849
0.0234077
-0.0726011
0.0245139
-0.0709494
-0.0693159
0.0256033
0.000258338
-0.118086
0.000950538
-0.109357
0.00198274
-0.103602
0.00326456
-0.0996918
0.00471692
-0.096896
0.00627387
-0.0947325
0.00788232
-0.092897
0.00950104
-0.0912045
0.0110992
-0.0895487
0.0126547
-0.0878742
0.0141531
-0.0861581
0.0155854
-0.0843977
0.0169479
-0.0826016
0.0182401
-0.0807854
0.0194652
-0.0789671
0.0206289
-0.0771651
0.0217399
-0.0753959
0.0228098
-0.073671
0.0238526
-0.0719922
-0.0703464
0.0248831
0.000265315
-0.118352
0.000970066
-0.110062
0.00201262
-0.104644
0.003298
-0.100977
0.00474499
-0.098343
0.00628689
-0.0962744
0.00787074
-0.0944808
0.00945596
-0.0927897
0.0110127
-0.0911054
0.0125202
-0.0893816
0.0139649
-0.0876029
0.0153395
-0.0857722
0.0166407
-0.0839029
0.0178691
-0.0820138
0.0190282
-0.0801261
0.020124
-0.0782609
0.0211656
-0.0764376
0.0221656
-0.074671
0.0231398
-0.0729664
-0.0713124
0.0241058
0.000272461
-0.118624
0.000988976
-0.110779
0.00203967
-0.105695
0.00332545
-0.102263
0.00476349
-0.099781
0.00628667
-0.0977976
0.00784238
-0.0960366
0.00939086
-0.0943382
0.0109034
-0.0926179
0.0123604
-0.0908387
0.0137498
-0.0889923
0.0150651
-0.0870875
0.0163042
-0.085142
0.0174682
-0.0831778
0.0185605
-0.0812185
0.0195873
-0.0792876
0.0205571
-0.0774074
0.0214828
-0.0755967
0.0223819
-0.0738656
-0.0722064
0.023276
0.00028056
-0.118905
0.00100815
-0.111506
0.00206453
-0.106751
0.00334742
-0.103546
0.00477294
-0.101207
0.00627392
-0.0992986
0.00779826
-0.0975609
0.00930716
-0.0958471
0.0107731
-0.0940839
0.012178
-0.0922436
0.0135109
-0.0903252
0.0147666
-0.0883431
0.0159437
-0.086319
0.0170437
-0.0842778
0.0180701
-0.0822449
0.0190282
-0.0802457
0.0199255
-0.0783047
0.0207736
-0.0764448
0.0215908
-0.0746829
-0.073019
0.0224034
0.000290933
-0.119196
0.00102892
-0.112244
0.00208803
-0.107811
0.00336443
-0.104822
0.00477384
-0.102616
0.00624926
-0.100774
0.00773927
-0.0990509
0.00920614
-0.0973139
0.0106238
-0.0955015
0.0119753
-0.0935951
0.0132514
-0.0916013
0.0144478
-0.0895395
0.0155642
-0.0874354
0.0166023
-0.0853159
0.0175654
-0.0832081
0.0184577
-0.081138
0.0192846
-0.0791316
0.0200545
-0.0772147
0.0207834
-0.0754118
-0.0737378
0.0215022
0.000307094
-0.119503
0.00105421
-0.112991
0.00211151
-0.108868
0.00337696
-0.106088
0.00476646
-0.104005
0.00621308
-0.102221
0.00766605
-0.100504
0.00908879
-0.0987367
0.0104566
-0.0968694
0.0117544
-0.0948929
0.012974
-0.0928209
0.0141126
-0.0906782
0.0151708
-0.0884935
0.0161509
-0.0862961
0.0170561
-0.0841132
0.017889
-0.081971
0.0186518
-0.0798944
0.0193454
-0.0779083
0.0199775
-0.0760438
-0.0743568
0.0205965
0.000340341
-0.119843
0.00108817
-0.113739
0.00213538
-0.109915
0.00338462
-0.107337
0.00475049
-0.105371
0.00616535
-0.103635
0.00757886
-0.101917
0.00895565
-0.100113
0.0102726
-0.0981863
0.0115162
-0.0961365
0.0126801
-0.0939848
0.013763
-0.0917611
0.0147669
-0.0894974
0.0156955
-0.0872246
0.0165527
-0.0849705
0.0173417
-0.0827599
0.0180617
-0.0806144
0.018703
-0.0785496
0.0192461
-0.0765869
-0.0748238
0.0197131
0.125278
0.000270312
-0.125548
0.125017
0.000261093
0.124755
0.000261871
0.124489
0.000265912
0.124218
0.000271091
0.123941
0.000276588
0.123659
0.000281907
0.123373
0.000286751
0.123082
0.000290966
0.122787
0.000294484
0.12249
0.000297273
0.122191
0.000299322
0.12189
0.000300618
0.121589
0.000301143
0.121288
0.00030085
0.120988
0.00029962
0.120691
0.000297201
0.120398
0.00029299
0.120113
0.000285443
0.000269832
0.126257
0.000759194
-0.126746
0.125739
0.000778434
0.125199
0.000802142
0.124637
0.000827794
0.124055
0.000853567
0.123453
0.00087865
0.122832
0.000902502
0.122194
0.000924694
0.12154
0.000944943
0.120872
0.000963065
0.12019
0.000978947
0.119497
0.000992511
0.118794
0.0010037
0.118082
0.00101243
0.117365
0.00101862
0.116642
0.00102207
0.115917
0.00102246
0.115191
0.00101916
0.114465
0.00101101
0.000995778
0.126539
0.00132199
-0.127102
0.125929
0.00138807
0.125278
0.00145338
0.124588
0.00151758
0.123862
0.00157971
0.123102
0.00163921
0.122308
0.00169565
0.121485
0.00174863
0.120632
0.00179785
0.119752
0.00184303
0.118847
0.00188401
0.117918
0.00192063
0.116969
0.00195276
0.116002
0.00198029
0.115017
0.00200307
0.114018
0.00202093
0.113007
0.00203362
0.111986
0.00204075
0.110955
0.00204171
0.00203556
0.125876
0.00186852
-0.126422
0.125273
0.00199138
0.124616
0.00211045
0.123907
0.0022258
0.12315
0.00233693
0.122346
0.00244338
0.121497
0.00254476
0.120605
0.00264069
0.119672
0.00273083
0.1187
0.00281486
0.117691
0.00289254
0.116648
0.00296364
0.115573
0.00302798
0.114468
0.00308538
0.113335
0.00313567
0.112178
0.00317869
0.110997
0.00321429
0.109796
0.00324223
0.108575
0.00326215
0.00327369
0.124303
0.00234595
-0.12478
0.123763
0.00253184
0.123161
0.00271228
0.122499
0.00288718
0.12178
0.00305615
0.121005
0.00321871
0.120175
0.00337442
0.119293
0.00352284
0.11836
0.00366356
0.117379
0.00379621
0.116351
0.00392045
0.115279
0.00403598
0.114164
0.00414253
0.11301
0.00423986
0.111818
0.00432777
0.11059
0.00440611
0.10933
0.00447476
0.108038
0.00453353
0.106718
0.0045822
0.00462071
0.12197
0.00272965
-0.122353
0.121519
0.00298208
0.121003
0.00322814
0.120423
0.00346753
0.119779
0.00369976
0.119074
0.00392429
0.118308
0.00414056
0.117483
0.00434806
0.1166
0.00454627
0.115661
0.00473472
0.114669
0.00491298
0.113624
0.00508066
0.112529
0.00523738
0.111386
0.00538283
0.110197
0.00551677
0.108964
0.00563905
0.10769
0.0057495
0.106375
0.00584792
0.105023
0.00593423
0.00600842
0.119069
0.00301403
-0.119353
0.118717
0.00333423
0.118297
0.00364761
0.117811
0.00395367
0.117259
0.0042518
0.116642
0.00454134
0.115961
0.00482165
0.115217
0.00509207
0.114411
0.005352
0.113545
0.00560085
0.11262
0.00583809
0.111638
0.00606321
0.110599
0.00627574
0.109507
0.00647529
0.108362
0.00666158
0.107167
0.00683439
0.105923
0.00699348
0.104632
0.00713868
0.103296
0.00726991
0.00738722
0.115795
0.00320512
-0.115986
0.115536
0.00359259
0.115211
0.0039731
0.114818
0.00434598
0.11436
0.00471051
0.113835
0.00506593
0.113245
0.00541147
0.112591
0.00574639
0.111873
0.00606996
0.111092
0.00638151
0.11025
0.00668039
0.109347
0.00696598
0.108385
0.00723771
0.107366
0.00749513
0.106289
0.0077379
0.105158
0.0079657
0.103973
0.00817825
0.102736
0.00837536
0.101449
0.00855697
0.00872313
0.112315
0.00331518
-0.112425
0.112139
0.00376823
0.111898
0.00421438
0.111591
0.00465283
0.111219
0.00508275
0.110781
0.00550329
0.110279
0.00591359
0.109713
0.00631281
0.109083
0.00670014
0.108389
0.0070748
0.107634
0.00743606
0.106817
0.0077832
0.105939
0.00811556
0.105001
0.00843263
0.104005
0.00873402
0.102952
0.00901928
0.101842
0.0092881
0.100677
0.0095403
0.0994579
0.00977581
0.00999475
0.108765
0.00335908
-0.108809
0.108658
0.00387532
0.108488
0.00438482
0.108254
0.00488668
0.107956
0.00537998
0.107596
0.0058638
0.107172
0.0063372
0.106686
0.00679927
0.106137
0.00724913
0.105526
0.00768592
0.104853
0.00810883
0.104119
0.00851704
0.103325
0.00890986
0.102471
0.00928672
0.101558
0.00964712
0.100586
0.00999057
0.0995578
0.0103167
0.0984727
0.0106254
0.097332
0.0109165
0.0111903
0.105247
0.00335194
-0.105239
0.105193
0.00392866
0.105079
0.00449882
0.104905
0.00506143
0.104669
0.00561553
0.104373
0.00616013
0.104016
0.00669423
0.103598
0.00721688
0.10312
0.00772713
0.102582
0.00822407
0.101984
0.00870682
0.101326
0.0091745
0.10061
0.00962639
0.0998347
0.0100619
0.0990015
0.0104804
0.0981108
0.0108813
0.0971632
0.0112643
0.0961593
0.0116292
0.0950997
0.0119761
0.0123052
0.10183
0.00330782
-0.101786
0.101817
0.00394223
0.101745
0.00457022
0.101616
0.00519075
0.101429
0.0058028
0.101183
0.00640534
0.10088
0.00699735
0.100519
0.00757783
0.100101
0.00814578
0.0996246
0.00870027
0.0990911
0.00924035
0.0985004
0.00976512
0.097853
0.0102739
0.097149
0.0107659
0.0963889
0.0112405
0.0955731
0.0116971
0.094702
0.0121354
0.093776
0.0125552
0.0927957
0.0129564
0.0133398
0.0985613
0.00323894
-0.0984925
0.0985752
0.00392836
0.098534
0.00461141
0.0984377
0.00528702
0.0982864
0.00595414
0.09808
0.00661172
0.0978187
0.00725869
0.0975025
0.00789403
0.0971315
0.00851674
0.096706
0.00912584
0.096226
0.00972034
0.0956917
0.0102994
0.0951035
0.0108621
0.0944614
0.0114079
0.0937658
0.011936
0.0930171
0.0124458
0.0922155
0.0129369
0.0913615
0.0134092
0.0904555
0.0138624
0.0142979
0.0954653
0.00315545
-0.0953818
0.0954963
0.00389739
0.0954748
0.0046329
0.0954009
0.00536091
0.0952747
0.00608033
0.0950963
0.00679008
0.0948659
0.00748909
0.0945836
0.00817633
0.0942496
0.00885077
0.093864
0.00951141
0.0934271
0.0101572
0.092939
0.0107874
0.0924
0.0114012
0.0918103
0.0119977
0.0911701
0.0125762
0.0904798
0.0131362
0.0897397
0.0136771
0.0889501
0.0141988
0.0881119
0.0147006
0.0151852
0.0925525
0.00306536
-0.0924624
0.0925923
0.00385757
0.0925821
0.00464318
0.0925219
0.0054211
0.092412
0.00619023
0.0922526
0.00694946
0.092044
0.00769773
0.0917863
0.00843398
0.0914799
0.00915719
0.091125
0.00986633
0.0907218
0.0105604
0.0902706
0.0112386
0.0897717
0.0119001
0.0892253
0.012544
0.0886318
0.0131697
0.0879914
0.0137766
0.0873046
0.0143639
0.0865716
0.0149317
0.0857938
0.0154785
0.0160085
0.0898229
0.00297472
-0.0897323
0.0898653
0.00381517
0.0898598
0.00464874
0.0898066
0.00547431
0.089706
0.00629077
0.0895585
0.007097
0.0893643
0.00789191
0.0891238
0.00867445
0.0888374
0.0094436
0.0885055
0.0101983
0.0881283
0.0109376
0.0877062
0.0116607
0.0872396
0.0123667
0.0867288
0.0130548
0.0861742
0.0137243
0.0855761
0.0143746
0.084935
0.015005
0.0842512
0.0156155
0.0835267
0.016203
0.0167752
0.0872695
0.00288776
-0.0871826
0.08731
0.00377464
0.0873046
0.00465422
0.0872535
0.00552539
0.0871573
0.00638699
0.0870164
0.0072379
0.0868312
0.00807702
0.0866024
0.0089033
0.0863303
0.00971569
0.0860154
0.0105132
0.0856583
0.0112948
0.0852593
0.0120597
0.0848189
0.0128071
0.0843375
0.0135361
0.0838158
0.0142461
0.0832539
0.0149365
0.0826523
0.0156066
0.0820113
0.0162565
0.0813326
0.0168817
0.0174935
0.0848812
0.00280712
-0.0848006
0.0849171
0.00373874
0.0849088
0.00466253
0.0848568
0.00557736
0.0847618
0.00648206
0.0846242
0.00737548
0.0844447
0.0082565
0.0842239
0.00912408
0.0839625
0.00997715
0.083661
0.0108147
0.08332
0.0116358
0.0829401
0.0124396
0.0825219
0.0132252
0.0820661
0.013992
0.081573
0.0147391
0.0810434
0.0154661
0.0804774
0.0161726
0.0798747
0.0168592
0.079234
0.0175223
0.0181779
0.0826442
0.00273388
-0.082571
0.0826744
0.00370859
0.0826621
0.00467484
0.082608
0.00563146
0.0825128
0.00657725
0.0823773
0.00751102
0.0822021
0.00843168
0.081988
0.00933814
0.0817358
0.0102294
0.0814462
0.0111043
0.08112
0.011962
0.0807578
0.0128017
0.0803605
0.0136226
0.0799286
0.0144238
0.079463
0.0152047
0.0789644
0.0159648
0.078433
0.016704
0.077869
0.0174233
0.077264
0.0181272
0.018855
0.080543
-0.080477
0.00266793
0.0805675
0.00368403
0.0805515
0.00469089
0.0804956
0.00568733
0.0804008
0.0066721
0.0802678
0.007644
0.0800976
0.0086019
0.079891
0.00954472
0.0796489
0.0104714
0.0793723
0.0113809
0.0790619
0.0122724
0.0787187
0.013145
0.0783435
0.0139978
0.0779371
0.0148302
0.0775005
0.0156413
0.0770346
0.0164307
0.0765401
0.0171985
0.0760192
0.0179441
0.0754612
0.0186852
0.0194924
0.127603
1.58484e-05
-0.127619
0.127603
-3.85484e-07
0.127601
1.64672e-06
0.127591
1.05239e-05
0.127568
2.26255e-05
0.127532
3.65367e-05
0.12748
5.13706e-05
0.127414
6.65674e-05
0.127332
8.18048e-05
0.127235
9.68988e-05
0.127123
0.000111729
0.126997
0.000126212
0.126857
0.000140271
0.126703
0.000153832
0.126536
0.000166806
0.126357
0.000179064
0.126167
0.00019039
0.125966
0.00020034
0.125759
0.000207876
0.000210375
0.129556
-0.000167871
-0.129373
0.129704
-0.000148553
0.129823
-0.00011727
0.129912
-7.83383e-05
0.12997
-3.49118e-05
0.129995
1.15841e-05
0.129986
6.01431e-05
0.129943
0.000109932
0.129864
0.000160323
0.12975
0.000210855
0.129601
0.000261165
0.129416
0.000310953
0.129196
0.00035995
0.128942
0.000407897
0.128654
0.000454532
0.128334
0.000499543
0.127982
0.000542536
0.127599
0.000582923
0.127187
0.000619798
0.00065208
0.128766
-0.000554631
-0.128379
0.129101
-0.000484133
0.129391
-0.000406769
0.129636
-0.000323067
0.129835
-0.00023464
0.12999
-0.000142503
0.130097
-4.74687e-05
0.130157
4.96647e-05
0.13017
0.000148161
0.130133
0.00024738
0.130047
0.000346753
0.129913
0.000445768
0.129729
0.000543945
0.129496
0.000640825
0.129214
0.000735955
0.128885
0.00082886
0.128508
0.000919024
0.128086
0.00100586
0.127617
0.00108868
0.00116696
0.126053
-0.00112085
-0.125486
0.126566
-0.000997067
0.127026
-0.000867649
0.127436
-0.000732264
0.127793
-0.000591634
0.128097
-0.000446496
0.128347
-0.000297553
0.128542
-0.000145564
0.128681
8.69645e-06
0.128764
0.000164475
0.12879
0.000321057
0.128758
0.000477757
0.128668
0.000633914
0.12852
0.000788893
0.128314
0.000942067
0.12805
0.00109281
0.127728
0.00124049
0.12735
0.00138448
0.126914
0.00152411
0.00165893
0.122122
-0.0018371
-0.121405
0.122786
-0.00166117
0.123397
-0.00147882
0.123954
-0.00128975
0.124457
-0.00109437
0.124904
-0.000893294
0.125294
-0.000687236
0.125625
-0.000476971
0.125897
-0.000263335
0.126109
-4.71713e-05
0.126259
0.000170678
0.126347
0.000389386
0.126373
0.000608144
0.126336
0.000826162
0.126235
0.00104266
0.126071
0.00125689
0.125844
0.00146809
0.125553
0.00167555
0.125198
0.00187855
0.00207659
0.117511
-0.00267191
-0.116677
0.118296
-0.0024459
0.119029
-0.00221186
0.119709
-0.00196967
0.120334
-0.00171968
0.120904
-0.0014625
0.121415
-0.00119889
0.121868
-0.000929701
0.122261
-0.000655852
0.122592
-0.00037829
0.12286
-9.79757e-05
0.123066
0.000184141
0.123207
0.000467119
0.123283
0.00075004
0.123293
0.001032
0.123238
0.00131212
0.123117
0.00158953
0.122929
0.00186343
0.122674
0.00213301
0.00239766
0.112618
-0.00359549
-0.111694
0.113493
-0.00332174
0.11432
-0.00303808
0.115094
-0.0027445
0.115816
-0.00244136
0.116483
-0.00212934
0.117093
-0.00180927
0.117646
-0.00148211
0.118139
-0.00114888
0.118571
-0.000810637
0.118942
-0.000468463
0.119249
-0.000123424
0.119493
0.000223426
0.119672
0.000571054
0.119785
0.000918446
0.119833
0.00126462
0.119814
0.00160861
0.119728
0.00194951
0.119574
0.00228643
0.00261862
0.107715
-0.0045819
-0.106729
0.108656
-0.00426277
0.10955
-0.00393176
0.110394
-0.00358889
0.111188
-0.00323457
0.111928
-0.00286954
0.112613
-0.00249477
0.113242
-0.00211133
0.113814
-0.00172037
0.114326
-0.00132307
0.114779
-0.000920615
0.115169
-0.000514197
0.115498
-0.000104967
0.115763
0.00030594
0.115964
0.000717419
0.1161
0.00112839
0.116171
0.00153782
0.116176
0.00194469
0.116114
0.00234804
0.00274699
0.102983
-0.00560983
-0.101955
0.103968
-0.00524754
0.104907
-0.00487139
0.1058
-0.00448131
0.106643
-0.00407778
0.107435
-0.00366168
0.108174
-0.00323409
0.108859
-0.00279625
0.109488
-0.00234945
0.11006
-0.00189502
0.110574
-0.00143426
0.111028
-0.000968464
0.111422
-0.000498878
0.111755
-2.67264e-05
0.112026
0.000446805
0.112233
0.00092056
0.112378
0.00139342
0.112458
0.00186431
0.112474
0.00233218
0.00279605
0.0985263
-0.00666247
-0.0974737
0.0995379
-0.00625915
0.100506
-0.00583991
0.10143
-0.0054045
0.102305
-0.00495353
0.103132
-0.00448805
0.103907
-0.00400934
0.10463
-0.00351883
0.105298
-0.003018
0.105911
-0.0025083
0.106468
-0.0019912
0.106968
-0.00146806
0.107409
-0.000940254
0.107792
-0.000409066
0.108114
0.000124241
0.108376
0.000658447
0.108577
0.00119237
0.108717
0.00172487
0.108794
0.00225484
0.00278122
0.0943981
-0.00772705
-0.0933335
0.0954238
-0.00728487
0.0964084
-0.00682447
0.0973493
-0.00634534
0.0982441
-0.00584837
0.0990909
-0.00533484
0.0998879
-0.00480632
0.100634
-0.0042645
0.101327
-0.00371108
0.101966
-0.00314771
0.102551
-0.00257597
0.10308
-0.00199736
0.103553
-0.00141331
0.103969
-0.0008252
0.104328
-0.000234346
0.104628
0.000357974
0.10487
0.000950531
0.105053
0.00154213
0.105176
0.00213162
0.00271787
0.0906151
-0.0087942
-0.089548
0.091646
-0.00831576
0.0926376
-0.00781603
0.0935867
-0.00729447
0.0944908
-0.00675246
0.0953477
-0.00619169
0.0961555
-0.00561414
0.0969129
-0.00502188
0.0976187
-0.00441688
0.098272
-0.00380102
0.098872
-0.00317601
0.0994181
-0.00254346
0.0999097
-0.0019049
0.100346
-0.00126174
0.100727
-0.000615374
0.101052
3.28892e-05
0.101321
0.000681776
0.101533
0.00133006
0.101688
0.00197653
0.00262003
0.0871708
-0.00985749
-0.0861075
0.0882012
-0.00934618
0.0891941
-0.0088089
0.0901453
-0.00824571
0.0910518
-0.00765898
0.0919112
-0.0070511
0.0927218
-0.00642467
0.0934821
-0.00578226
0.0941915
-0.00512623
0.0948491
-0.00445864
0.0954544
-0.00378136
0.0960071
-0.0030961
0.0965066
-0.00240444
0.0969527
-0.00170785
0.0973451
-0.00100774
0.0976835
-0.000305473
0.0979676
0.000397662
0.0981972
0.0011004
0.0983722
0.00180152
0.0024998
0.0840445
-0.0109131
-0.082989
0.085072
-0.0103737
0.0860634
-0.00980026
0.0870131
-0.00919538
0.0879174
-0.00856333
0.0887739
-0.00790758
0.0895809
-0.0072317
0.0903376
-0.00653892
0.0910433
-0.00583196
0.0916978
-0.00511309
0.0923007
-0.00438427
0.0928518
-0.00364726
0.0933511
-0.00290368
0.0937982
-0.00215502
0.0941932
-0.00140272
0.0945359
-0.000648129
0.0948261
0.000107416
0.0950639
0.000862637
0.0952491
0.00161629
0.00236712
0.0812094
-0.0119598
-0.0801627
0.0822344
-0.0113987
0.0832237
-0.0107895
0.0841697
-0.0101414
0.0850684
-0.00946208
0.0859176
-0.00875671
0.0867161
-0.00803019
0.0874636
-0.00728644
0.0881601
-0.00652845
0.0888055
-0.00575857
0.0894001
-0.0049788
0.0899437
-0.00419087
0.0904364
-0.00339639
0.0908782
-0.00259684
0.0912692
-0.00179367
0.0916093
-0.000988242
0.0918986
-0.000181897
0.0921372
0.000624064
0.0923251
0.00142837
0.00222976
0.0786367
-0.0129998
-0.0775966
0.0796624
-0.0124244
0.0806501
-0.0117772
0.0815907
-0.0110821
0.0824805
-0.0103518
0.083318
-0.00959426
0.0841035
-0.00881563
0.0848373
-0.00802028
0.0855201
-0.00721121
0.0861522
-0.00639068
0.0867339
-0.00556056
0.0872655
-0.0047225
0.0877472
-0.00387805
0.088179
-0.00302869
0.0885612
-0.00217583
0.0888938
-0.00132086
0.089177
-0.000465126
0.0894111
0.000390046
0.0895961
0.00124337
0.00209355
0.0762989
-0.0140425
-0.0752562
0.0773308
-0.0134563
0.0783171
-0.0127636
0.0792494
-0.0120143
0.0801258
-0.0112282
0.0809472
-0.0104157
0.0817154
-0.00958383
0.0824318
-0.00873669
0.0830975
-0.00787686
0.083713
-0.00700626
0.084279
-0.00612652
0.0847957
-0.00523915
0.0852633
-0.00434565
0.085682
-0.00344745
0.0860522
-0.00254597
0.0863739
-0.00164262
0.0866475
-0.000738755
0.0868733
0.000164271
0.0870515
0.00106515
0.00196254
0.0741722
-0.0151132
-0.0731015
0.0752165
-0.0145006
0.0761983
-0.0137455
0.0771166
-0.0129326
0.0779739
-0.0120855
0.0787746
-0.0112164
0.0795221
-0.0103313
0.0802184
-0.009433
0.0808647
-0.00852323
0.0814619
-0.00760343
0.0820103
-0.00667492
0.0825103
-0.00573911
0.082962
-0.00479742
0.0833659
-0.0038513
0.0837221
-0.00290219
0.084031
-0.00195151
0.0842929
-0.00100066
0.0845082
-5.10195e-05
0.0846773
0.000896072
0.00183923
0.0722482
-0.0162443
-0.0711171
0.0732968
-0.0155492
0.0742633
-0.0147119
0.0751587
-0.013828
0.0759913
-0.0129181
0.0767678
-0.0119929
0.0774925
-0.011056
0.0781675
-0.010108
0.0787937
-0.00914949
0.0793718
-0.00818147
0.0799019
-0.00720508
0.0803845
-0.00622165
0.0808197
-0.00523261
0.0812078
-0.00423945
0.0815493
-0.00324364
0.0818444
-0.00224666
0.0820937
-0.00124993
0.0822975
-0.000254862
0.0824565
0.000737153
0.00172469
0.0705202
-0.069409
-0.0173555
0.0715347
-0.0165637
0.0724724
-0.0156496
0.0733377
-0.0146933
0.0741432
-0.0137236
0.0748956
-0.0127453
0.0755981
-0.0117584
0.0762522
-0.0107621
0.0768587
-0.00975599
0.0774179
-0.00874062
0.0779299
-0.00771708
0.078395
-0.00668675
0.0788135
-0.00565113
0.0791858
-0.00461176
0.0795124
-0.00357019
0.0797936
-0.00252792
0.0800301
-0.00148644
0.0802225
-0.000447184
0.0803712
0.000588416
0.00161888
0.0236809
0.045503
-0.0441029
-0.025081
0.0222694
0.0470926
-0.0456811
0.0208472
0.0488275
-0.0474054
0.0194152
0.0507368
-0.0493048
0.0179745
0.0528545
-0.0514138
0.0165269
0.0552189
-0.0537713
0.0150746
0.0578736
-0.0564213
0.0136204
0.0608672
-0.0594131
0.012168
0.0642518
-0.0627994
0.0107217
0.06808
-0.0666337
0.00928742
0.0724007
-0.0709664
0.0078726
0.0772533
-0.0758385
0.00648754
0.0826582
-0.0812731
0.00514659
0.088604
-0.0872631
0.00387018
0.09503
-0.0937536
0.00268743
0.101801
-0.100618
0.00163952
0.108672
-0.107624
0.000784228
0.11524
-0.114384
0.000202922
0.12086
-0.120279
0.124586
-0.124383
0.0236553
0.0468968
-0.0250491
0.0222497
0.0484983
0.0208328
0.0502445
0.0194053
0.0521643
0.0179685
0.0542914
0.0165238
0.0566635
0.0150735
0.0593239
0.0136203
0.0623204
0.0121678
0.0657043
0.0107205
0.0695272
0.00928446
0.0738368
0.00786739
0.0786704
0.00648007
0.0840455
0.00513748
0.0899466
0.00386083
0.0963067
0.00268017
0.102981
0.00163772
0.109714
0.000791386
0.116086
0.000216999
0.121434
0.124803
0.0235925
0.0482826
-0.0249783
0.0221944
0.0498964
0.0207844
0.0516544
0.0193634
0.0535854
0.0179321
0.0557226
0.0164923
0.0581034
0.0150459
0.0607703
0.0135956
0.0637707
0.0121452
0.0671548
0.010699
0.0709733
0.0092634
0.0752725
0.00784638
0.0800874
0.00645913
0.0854328
0.0051172
0.0912885
0.00384245
0.0975814
0.00266559
0.104158
0.00162913
0.110751
0.00078995
0.116925
0.000219801
0.122005
0.125023
0.0234931
0.0496589
-0.0248694
0.022104
0.0512855
0.0207026
0.0530558
0.0192895
0.0549984
0.0178656
0.0571465
0.0164324
0.0595367
0.0149917
0.062211
0.0135464
0.065216
0.0120999
0.0686013
0.0106571
0.0724162
0.00922403
0.0767055
0.00780928
0.0815022
0.00642436
0.0868177
0.00508531
0.0926276
0.00381456
0.0988522
0.00264324
0.10533
0.00161389
0.11178
0.00078242
0.117757
0.000218118
0.122569
0.125241
0.0233579
0.0510244
-0.0247234
0.0219792
0.0526642
0.0205878
0.0544471
0.0191842
0.056402
0.0177692
0.0585615
0.0163442
0.0609617
0.014911
0.0636441
0.0134725
0.0666546
0.012032
0.0700417
0.0105944
0.0738538
0.00916614
0.0781337
0.00775587
0.0829124
0.00637552
0.088198
0.00504161
0.0939615
0.00377702
0.100117
0.00261326
0.106493
0.00159275
0.112801
0.000770556
0.118579
0.000214055
0.123125
0.125455
0.0231877
0.052378
-0.0245413
0.0218206
0.0540313
0.0204405
0.0558272
0.0190477
0.0577948
0.0176431
0.0599661
0.0162279
0.0623769
0.0148039
0.0650681
0.0133739
0.0680846
0.0119413
0.0714743
0.010511
0.075284
0.0090896
0.0795551
0.007686
0.084316
0.00631249
0.0895715
0.00498599
0.095288
0.00372982
0.101373
0.00257576
0.107647
0.00156612
0.11381
0.000755102
0.11939
0.000208386
0.123672
0.125663
0.0229834
0.0537189
-0.0243243
0.0216289
0.0553859
0.0202611
0.057195
0.0188804
0.0591755
0.0174874
0.061359
0.0160835
0.0637809
0.0146703
0.0664812
0.0132505
0.0695044
0.0118277
0.0728972
0.0104067
0.076705
0.00899428
0.0809676
0.00759956
0.0857108
0.00623516
0.0909359
0.0049184
0.0966048
0.00367298
0.102618
0.00253089
0.108789
0.00153429
0.114807
0.000736541
0.120187
0.000201578
0.124207
0.125865
0.0227459
0.0550464
-0.0240735
0.0214046
0.0567272
0.02005
0.0585496
0.0186824
0.0605431
0.0173024
0.0627391
0.015911
0.0651722
0.0145102
0.067882
0.0131024
0.0709122
0.0116912
0.0743084
0.0102815
0.0781147
0.00888009
0.0823689
0.00749646
0.0870944
0.00614347
0.0922889
0.00483881
0.0979094
0.00360653
0.103851
0.00247879
0.109917
0.00149753
0.115788
0.000715252
0.12097
0.000193914
0.124728
0.126059
0.0224759
0.0563604
-0.0237899
0.0211482
0.0580548
0.0198075
0.0598904
0.0184538
0.0618968
0.0170878
0.0641051
0.0157104
0.0665495
0.0143234
0.069269
0.0129293
0.0723064
0.0115315
0.0757062
0.010135
0.0795112
0.00874689
0.0837571
0.0073766
0.0884647
0.00603738
0.0936282
0.00474725
0.0991996
0.00353055
0.105067
0.00241961
0.111028
0.00145609
0.116752
0.00069149
0.121734
0.00018554
0.125234
0.126244
0.0221735
0.057661
-0.0234742
0.0208597
0.0593686
0.0195333
0.0612168
0.0181944
0.0632357
0.0168434
0.0654561
0.0154813
0.0679116
0.0141097
0.0706407
0.0127309
0.0736852
0.0113484
0.0770886
0.00996732
0.0808923
0.00859456
0.0851299
0.00723992
0.0898193
0.00591686
0.0949512
0.00464372
0.100473
0.00344513
0.106266
0.00235349
0.11212
0.00141013