/*--------------------------------*- C++ -*----------------------------------*\
  =========                 |
  \\      /  F ield         | OpenFOAM: The Open Source CFD Toolbox
   \\    /   O peration     | Website:  https://openfoam.org
    \\  /    A nd           | Version:  6.0
     \\/     M anipulation  |
\*---------------------------------------------------------------------------*/
FoamFile
{
    version     2.0;
    format      ascii;
    class       volScalarField;
    location    "8";
    object      p;
}
// * * * * * * * * * * * * * * * * * * * * * * * * * * * * * * * * * * * * * //

dimensions      [0 2 -2 0 0 0 0];

internalField   nonuniform List<scalar> 
19200
(
-37.9569
-34.3494
-31.7105
-29.5199
-27.4988
-25.6451
-23.9444
-22.3747
-20.9209
-19.572
-18.3191
-17.1547
-16.0722
-15.0659
-14.1303
-13.2605
-12.4517
-11.6997
-11.0003
-10.3495
-9.74393
-9.18005
-8.65476
-8.16515
-7.70856
-7.28255
-6.8849
-6.51344
-6.16612
-5.84279
-38.2617
-34.6585
-32.0154
-29.8158
-27.7837
-25.9181
-24.2051
-22.6231
-21.1574
-19.7971
-18.5335
-17.3592
-16.2676
-15.2528
-14.3095
-13.4327
-12.6175
-11.8596
-11.1549
-10.4993
-9.88922
-9.32124
-8.79215
-8.29902
-7.83913
-7.41003
-7.00948
-6.6352
-6.28505
-5.95974
-38.5731
-34.9685
-32.32
-30.1113
-28.0682
-26.1906
-24.4652
-22.8709
-21.3933
-20.0216
-18.7474
-17.5631
-16.4624
-15.4392
-14.4883
-13.6044
-12.7829
-12.0193
-11.3092
-10.6488
-10.0343
-9.46226
-8.92942
-8.43279
-7.96964
-7.53748
-7.13404
-6.75695
-6.40397
-6.07673
-38.8882
-35.2798
-32.6246
-30.4065
-28.3522
-26.4624
-24.7246
-23.118
-21.6283
-20.2453
-18.9604
-17.7663
-16.6564
-15.6249
-14.6664
-13.7756
-12.9478
-12.1784
-11.4631
-10.798
-10.1791
-9.60301
-9.06645
-8.56636
-8.09997
-7.66477
-7.25847
-6.87857
-6.52279
-6.19369
-39.2052
-35.592
-32.9294
-30.7014
-28.6356
-26.7335
-24.9831
-23.3641
-21.8625
-20.4681
-19.1726
-17.9686
-16.8496
-15.8098
-14.8437
-13.9461
-13.112
-12.337
-11.6165
-10.9466
-10.3234
-9.74339
-9.20315
-8.69964
-8.23005
-7.79185
-7.3827
-7.00001
-6.64144
-6.31054
-39.5231
-35.9046
-33.234
-30.9958
-28.9183
-27.0037
-25.2407
-23.6092
-22.0956
-20.6898
-19.3836
-18.1698
-17.0418
-15.9938
-15.0202
-14.1157
-13.2755
-12.4948
-11.7693
-11.0947
-10.4673
-9.8833
-9.33943
-8.83254
-8.35979
-7.91861
-7.50664
-7.12119
-6.75985
-6.42721
-39.8413
-36.2173
-33.5383
-31.2895
-29.2001
-27.273
-25.4971
-23.8531
-22.3274
-20.9103
-19.5935
-18.3698
-17.2329
-16.1767
-15.1956
-14.2844
-13.4381
-12.6519
-11.9213
-11.2421
-10.6105
-10.0226
-9.47518
-8.96496
-8.48909
-8.04498
-7.63022
-7.24202
-6.87794
-6.54364
-40.1592
-36.5296
-33.842
-31.5824
-29.4809
-27.541
-25.7523
-24.0957
-22.5579
-21.1294
-19.802
-18.5686
-17.4227
-16.3584
-15.3699
-14.4521
-13.5997
-12.808
-12.0724
-11.3887
-10.7529
-10.1613
-9.6103
-9.09681
-8.61786
-8.17086
-7.75335
-7.36242
-6.99563
-6.65974
-40.4766
-36.8413
-34.1448
-31.8743
-29.7605
-27.8077
-26.006
-24.3367
-22.7868
-21.3469
-20.0089
-18.7658
-17.6111
-16.5387
-15.543
-14.6185
-13.7601
-12.963
-12.2226
-11.5344
-10.8945
-10.2991
-9.74469
-9.22797
-8.74601
-8.29616
-7.87595
-7.48233
-7.11286
-6.77546
-40.7932
-37.152
-34.4465
-32.1648
-30.0386
-28.0728
-26.2581
-24.576
-23.014
-21.5627
-20.2142
-18.9615
-17.7979
-16.7175
-15.7146
-14.7836
-13.9193
-13.1169
-12.3716
-11.679
-11.0351
-10.4361
-9.87822
-9.35835
-8.87342
-8.42078
-7.99791
-7.60164
-7.22953
-6.89071
-41.1085
-37.4615
-34.7468
-32.4539
-30.3151
-28.3362
-26.5083
-24.8135
-23.2393
-21.7767
-20.4177
-19.1553
-17.983
-16.8947
-15.8846
-14.9472
-14.0771
-13.2694
-12.5193
-11.8225
-11.1747
-10.572
-10.0108
-9.48782
-9
-8.54463
-8.11915
-7.72027
-7.34556
-7.0054
-41.4225
-37.7694
-35.0455
-32.7412
-30.5897
-28.5975
-26.7565
-25.0489
-23.4626
-21.9886
-20.6192
-19.3472
-18.1662
-17.0701
-16.0529
-15.1091
-14.2333
-13.4204
-12.6657
-11.9646
-11.3129
-10.7067
-10.1423
-9.61627
-9.12562
-8.66758
-8.23956
-7.83812
-7.46087
-7.11947
-41.7348
-38.0757
-35.3424
-33.0265
-30.8622
-28.8568
-27.0024
-25.282
-23.6836
-22.1983
-20.8184
-19.537
-18.3474
-17.2435
-16.2194
-15.2693
-14.3878
-13.5699
-12.8105
-12.1053
-11.4498
-10.8401
-10.2725
-9.74357
-9.25016
-8.78953
-8.35903
-7.95509
-7.57535
-7.23282
-42.0451
-38.3799
-35.6372
-33.3097
-31.1324
-29.1136
-27.246
-25.5127
-23.9021
-22.4056
-21.0154
-19.7245
-18.5264
-17.4148
-16.3838
-15.4275
-14.5404
-13.7175
-12.9537
-12.2443
-11.5852
-10.9721
-10.4014
-9.86957
-9.37348
-8.91033
-8.47743
-8.07106
-7.68889
-7.34534
-42.3533
-38.682
-35.9298
-33.5904
-31.4002
-29.3679
-27.4869
-25.7408
-24.1181
-22.6103
-21.2098
-19.9096
-18.703
-17.5838
-16.5459
-15.5835
-14.6911
-13.8632
-13.0949
-12.3816
-11.7188
-11.1025
-10.5287
-9.99412
-9.49544
-9.02985
-8.59463
-8.18591
-7.80139
-7.45692
-42.6592
-38.9817
-36.2198
-33.8685
-31.6652
-29.6194
-27.725
-25.966
-24.3312
-22.8122
-21.4015
-20.092
-18.8771
-17.7504
-16.7058
-15.7373
-14.8395
-14.0068
-13.2342
-12.517
-11.8506
-11.231
-10.6544
-10.1171
-9.61585
-9.14793
-8.71048
-8.29947
-7.91269
-7.56744
-42.9626
-39.2788
-36.5072
-34.1439
-31.9273
-29.8679
-27.9601
-26.1883
-24.5414
-23.0113
-21.5903
-20.2716
-19.0484
-17.9143
-16.863
-15.8887
-14.9855
-14.1481
-13.3712
-12.6502
-11.9804
-11.3576
-10.7781
-10.2382
-9.73455
-9.26437
-8.82478
-8.4116
-8.02263
-7.67673
-43.2632
-39.5732
-36.7916
-34.4162
-32.1864
-30.1133
-28.192
-26.4073
-24.7484
-23.2072
-21.7761
-20.4483
-19.2169
-18.0754
-17.0176
-16.0374
-15.129
-14.2869
-13.5059
-12.781
-12.1079
-11.4821
-10.8998
-10.3573
-9.85132
-9.37898
-8.93735
-8.52208
-8.13103
-7.7846
-43.561
-39.8646
-37.073
-34.6853
-32.4421
-30.3553
-28.4206
-26.623
-24.9521
-23.3998
-21.9587
-20.6218
-19.3823
-18.2336
-17.1693
-16.1833
-15.2698
-14.4231
-13.6379
-12.9094
-12.2329
-11.6041
-11.0191
-10.4741
-9.96592
-9.49151
-9.04794
-8.6307
-8.23764
-7.89085
-43.8558
-40.1529
-37.3512
-34.9511
-32.6944
-30.5937
-28.6455
-26.8351
-25.1522
-23.5889
-22.1379
-20.792
-19.5445
-18.3886
-17.318
-16.3263
-15.4077
-14.5564
-13.7672
-13.0351
-12.3553
-11.7235
-11.1359
-10.5885
-10.0781
-9.6017
-9.15629
-8.73716
-8.34221
-7.99519
-44.1476
-40.438
-37.626
-35.2134
-32.943
-30.8285
-28.8667
-27.0435
-25.3487
-23.7745
-22.3136
-20.9588
-19.7033
-18.5403
-17.4634
-16.4661
-15.5425
-14.6868
-13.8935
-13.1578
-12.4748
-11.8401
-11.2498
-10.7001
-10.1876
-9.70925
-9.26207
-8.84116
-8.4444
-8.09727
-44.4363
-40.7199
-37.8973
-35.4719
-33.1877
-31.0593
-29.084
-27.2479
-25.5413
-23.9562
-22.4855
-21.1219
-19.8586
-18.6886
-17.6055
-16.6026
-15.674
-14.8139
-14.0167
-13.2774
-12.5911
-11.9536
-11.3607
-10.8086
-10.294
-9.8138
-9.36493
-8.94231
-8.5438
-8.19667
-44.7222
-40.9983
-38.1649
-35.7265
-33.4284
-31.286
-29.2971
-27.4483
-25.7298
-24.134
-22.6536
-21.2813
-20.0102
-18.8334
-17.744
-16.7357
-15.8022
-14.9377
-14.1365
-13.3936
-12.7042
-12.0637
-11.4682
-10.9138
-10.3971
-9.91501
-9.46447
-9.04019
-8.63996
-8.29289
-45.0052
-41.2734
-38.4287
-35.9771
-33.6649
-31.5083
-29.5059
-27.6444
-25.9142
-24.3077
-22.8177
-21.4368
-20.1581
-18.9744
-17.879
-16.8653
-15.9269
-15.058
-14.2529
-13.5064
-12.8137
-12.1703
-11.5721
-11.0153
-10.4964
-10.0125
-9.56025
-9.13431
-8.73237
-8.3855
-45.2858
-41.5449
-38.6885
-36.2233
-33.8968
-31.7262
-29.7102
-27.836
-26.0942
-24.4772
-22.9777
-21.5884
-20.3021
-19.1117
-18.0103
-16.9912
-16.048
-15.1747
-14.3656
-13.6156
-12.9196
-12.2732
-11.6722
-11.1129
-10.5917
-10.1057
-9.65171
-9.22405
-8.82037
-8.47384
-45.564
-41.8126
-38.9439
-36.4649
-34.124
-31.9392
-29.9098
-28.023
-26.2696
-24.6422
-23.1334
-21.7358
-20.4421
-19.2451
-18.1378
-17.1134
-16.1654
-15.2878
-14.4748
-13.721
-13.0217
-12.3721
-11.7683
-11.2062
-10.6826
-10.1943
-9.73833
-9.30877
-8.90316
-8.5563
-45.8412
-42.0766
-39.1947
-36.7016
-34.3461
-32.1471
-30.1043
-28.2051
-26.4404
-24.8028
-23.2848
-21.879
-20.5781
-19.3746
-18.2615
-17.2319
-16.2792
-15.3973
-14.5803
-13.8228
-13.12
-12.4672
-11.8603
-11.2953
-10.7689
-10.2782
-9.81994
-9.38825
-8.98002
-8.63127
-46.1216
-42.3382
-39.4404
-36.9326
-34.5625
-32.3494
-30.2933
-28.382
-26.6062
-24.9586
-23.4317
-22.0179
-20.7099
-19.5001
-18.3814
-17.3467
-16.3893
-15.5031
-14.6822
-13.921
-13.2146
-12.5584
-11.9482
-11.38
-10.8506
-10.357
-9.89624
-9.4619
-9.05026
-8.70122
-46.4086
-42.5969
-39.6796
-37.1567
-34.7724
-32.5457
-30.4768
-28.5535
-26.767
-25.1096
-23.574
-22.1525
-20.8376
-19.6217
-18.4974
-17.4578
-16.4959
-15.6055
-14.7806
-14.0157
-13.3057
-12.6459
-12.0321
-11.4604
-10.9274
-10.4302
-9.96539
-9.52632
-9.11159
-8.77027
-46.6788
-42.8434
-39.9097
-37.3736
-34.9764
-32.7368
-30.6555
-28.7207
-26.9235
-25.2566
-23.7125
-22.2835
-20.9618
-19.7399
-18.6103
-17.5658
-16.5995
-15.7049
-14.8761
-14.1075
-13.3939
-12.7305
-12.113
-11.5375
-11.0003
-10.4981
-10.0267
-9.5802
-9.16411
-8.82422
-50.5941
-50.5779
-50.5438
-50.5065
-50.4641
-50.414
-50.3555
-50.2885
-50.2129
-50.1286
-50.0357
-49.9342
-49.8241
-49.7056
-49.5789
-49.4441
-49.3014
-49.1509
-48.993
-48.8278
-48.6556
-48.4766
-48.2911
-48.0994
-47.9021
-47.6996
-47.4929
-47.2834
-47.0742
-46.87
-46.6147
-46.6128
-46.5962
-46.5708
-46.5371
-46.4942
-46.4422
-46.3811
-46.3112
-46.2324
-46.145
-46.049
-45.9445
-45.8317
-45.7106
-45.5816
-45.4447
-45.3002
-45.1482
-44.9891
-44.8229
-44.6499
-44.4705
-44.2849
-44.0934
-43.8966
-43.6949
-43.4889
-43.2792
-43.0645
-43.4369
-43.4448
-43.4403
-43.4251
-43.4
-43.3655
-43.3217
-43.2688
-43.207
-43.1364
-43.0572
-42.9695
-42.8734
-42.769
-42.6566
-42.5363
-42.4083
-42.2727
-42.1297
-41.9796
-41.8226
-41.6588
-41.4884
-41.3119
-41.1293
-40.9409
-40.747
-40.5475
-40.3423
-40.13
-40.6152
-40.6298
-40.6337
-40.627
-40.6103
-40.5843
-40.5491
-40.5049
-40.452
-40.3904
-40.3203
-40.2419
-40.1552
-40.0605
-39.9579
-39.8476
-39.7296
-39.6043
-39.4717
-39.3321
-39.1856
-39.0325
-38.8728
-38.7069
-38.5348
-38.3568
-38.1728
-37.9828
-37.7867
-37.5839
-37.9291
-37.9491
-37.9595
-37.9599
-37.9507
-37.9324
-37.9051
-37.8692
-37.8246
-37.7717
-37.7105
-37.6412
-37.5638
-37.4787
-37.3859
-37.2855
-37.1778
-37.0629
-36.9409
-36.8121
-36.6765
-36.5344
-36.3859
-36.2312
-36.0703
-35.9034
-35.7305
-35.5516
-35.3665
-35.175
-35.4183
-35.4423
-35.4577
-35.4638
-35.4607
-35.4488
-35.4283
-35.3993
-35.3621
-35.3169
-35.2636
-35.2025
-35.1337
-35.0574
-34.9737
-34.8827
-34.7846
-34.6795
-34.5676
-34.449
-34.324
-34.1926
-34.0549
-33.9111
-33.7613
-33.6056
-33.444
-33.2764
-33.1029
-32.9232
-33.0944
-33.1214
-33.1403
-33.1505
-33.1519
-33.145
-33.1299
-33.1067
-33.0756
-33.0367
-32.9902
-32.9362
-32.8748
-32.8061
-32.7304
-32.6477
-32.5582
-32.462
-32.3592
-32.2501
-32.1346
-32.0131
-31.8855
-31.752
-31.6127
-31.4676
-31.3168
-31.1603
-30.998
-30.8299
-30.9502
-30.9789
-31
-31.0129
-31.0176
-31.0143
-31.0032
-30.9844
-30.9581
-30.9243
-30.8833
-30.8351
-30.7798
-30.7177
-30.6487
-30.5731
-30.491
-30.4025
-30.3078
-30.2069
-30.1001
-29.9873
-29.8689
-29.7447
-29.6149
-29.4797
-29.3389
-29.1927
-29.041
-28.8838
-28.977
-29.0064
-29.0286
-29.0431
-29.0498
-29.049
-29.0407
-29.0251
-29.0024
-28.9726
-28.9358
-28.8922
-28.8419
-28.785
-28.7217
-28.652
-28.5761
-28.4942
-28.4063
-28.3126
-28.2131
-28.1081
-27.9976
-27.8817
-27.7605
-27.6341
-27.5024
-27.3655
-27.2235
-27.0763
-27.1649
-27.1942
-27.2167
-27.2319
-27.2397
-27.2403
-27.2339
-27.2205
-27.2003
-27.1734
-27.1398
-27.0998
-27.0533
-27.0007
-26.9418
-26.877
-26.8062
-26.7297
-26.6475
-26.5599
-26.4668
-26.3684
-26.2648
-26.1561
-26.0424
-25.9237
-25.8001
-25.6716
-25.5383
-25.4001
-25.5029
-25.5314
-25.5535
-25.5686
-25.5767
-25.5781
-25.5726
-25.5607
-25.5422
-25.5173
-25.4861
-25.4487
-25.4052
-25.3558
-25.3005
-25.2395
-25.1729
-25.1008
-25.0234
-24.9408
-24.853
-24.7602
-24.6626
-24.5601
-24.4529
-24.341
-24.2245
-24.1035
-23.9778
-23.8477
-23.9789
-24.0063
-24.0275
-24.042
-24.0499
-24.0514
-24.0464
-24.0351
-24.0177
-23.9941
-23.9645
-23.929
-23.8878
-23.8408
-23.7883
-23.7304
-23.6671
-23.5986
-23.5251
-23.4466
-23.3633
-23.2753
-23.1827
-23.0855
-22.9839
-22.878
-22.7677
-22.6531
-22.5343
-22.4112
-22.5813
-22.6072
-22.6272
-22.6408
-22.6481
-22.6492
-22.6442
-22.6332
-22.6163
-22.5935
-22.565
-22.5308
-22.4912
-22.4461
-22.3957
-22.3401
-22.2795
-22.214
-22.1436
-22.0686
-21.989
-21.9049
-21.8166
-21.7239
-21.6272
-21.5263
-21.4215
-21.3126
-21.1998
-21.083
-21.2986
-21.3229
-21.3415
-21.354
-21.3604
-21.3609
-21.3555
-21.3444
-21.3277
-21.3053
-21.2774
-21.2441
-21.2056
-21.1619
-21.1131
-21.0594
-21.0009
-20.9377
-20.87
-20.7977
-20.7212
-20.6405
-20.5557
-20.467
-20.3744
-20.278
-20.1778
-20.074
-19.9664
-19.8552
-20.1203
-20.1428
-20.1599
-20.1711
-20.1764
-20.1761
-20.1702
-20.1588
-20.1419
-20.1196
-20.0921
-20.0594
-20.0217
-19.979
-19.9314
-19.8792
-19.8223
-19.761
-19.6953
-19.6255
-19.5515
-19.4736
-19.3919
-19.3065
-19.2174
-19.1249
-19.0289
-18.9295
-18.8266
-18.7204
-19.0362
-19.0571
-19.0725
-19.0824
-19.0867
-19.0854
-19.0788
-19.0669
-19.0497
-19.0274
-19
-18.9676
-18.9304
-18.8885
-18.8418
-18.7907
-18.7352
-18.6754
-18.6114
-18.5435
-18.4717
-18.3962
-18.317
-18.2345
-18.1485
-18.0594
-17.967
-17.8715
-17.7729
-17.6711
-18.0375
-18.0566
-18.0706
-18.0791
-18.0822
-18.08
-18.0726
-18.0601
-18.0426
-18.02
-17.9926
-17.9604
-17.9235
-17.8821
-17.8362
-17.7859
-17.7314
-17.6729
-17.6104
-17.5441
-17.4741
-17.4005
-17.3237
-17.2435
-17.1603
-17.0741
-16.985
-16.893
-16.7982
-16.7005
-17.1159
-17.1334
-17.1458
-17.153
-17.1549
-17.1518
-17.1436
-17.1305
-17.1125
-17.0897
-17.0622
-17.03
-16.9933
-16.9523
-16.9069
-16.8573
-16.8037
-16.7462
-16.6849
-16.6199
-16.5515
-16.4797
-16.4047
-16.3267
-16.2459
-16.1623
-16.0761
-15.9873
-15.8959
-15.802
-16.264
-16.2799
-16.2909
-16.2968
-16.2977
-16.2936
-16.2846
-16.2709
-16.2524
-16.2292
-16.2015
-16.1694
-16.1329
-16.0921
-16.0471
-15.9981
-15.9452
-15.8886
-15.8282
-15.7644
-15.6973
-15.627
-15.5537
-15.4776
-15.3989
-15.3176
-15.234
-15.1481
-15.0599
-14.9694
-15.4753
-15.4896
-15.4993
-15.504
-15.5038
-15.4988
-15.4891
-15.4747
-15.4557
-15.4323
-15.4044
-15.3722
-15.3357
-15.2951
-15.2505
-15.202
-15.1497
-15.0938
-15.0343
-14.9715
-14.9055
-14.8365
-14.7647
-14.6902
-14.6133
-14.5341
-14.4529
-14.3696
-14.2844
-14.1972
-14.7437
-14.7567
-14.765
-14.7686
-14.7674
-14.7615
-14.7511
-14.7362
-14.7167
-14.6929
-14.6649
-14.6326
-14.5962
-14.5557
-14.5114
-14.4633
-14.4116
-14.3562
-14.2975
-14.2356
-14.1706
-14.1027
-14.0321
-13.9591
-13.8838
-13.8065
-13.7273
-13.6465
-13.5642
-13.4801
-14.064
-14.0757
-14.0828
-14.0853
-14.0832
-14.0766
-14.0655
-14.05
-14.0302
-14.0061
-13.9778
-13.9454
-13.909
-13.8688
-13.8247
-13.777
-13.7256
-13.6709
-13.6129
-13.5517
-13.4875
-13.4206
-13.3511
-13.2793
-13.2054
-13.1298
-13.0525
-12.974
-12.8942
-12.8133
-13.4315
-13.442
-13.448
-13.4496
-13.4466
-13.4392
-13.4275
-13.4115
-13.3913
-13.3669
-13.3385
-13.306
-13.2697
-13.2295
-13.1857
-13.1383
-13.0874
-13.0331
-12.9757
-12.9152
-12.8518
-12.7857
-12.7172
-12.6464
-12.5738
-12.4995
-12.424
-12.3475
-12.2702
-12.1923
-12.842
-12.8514
-12.8564
-12.8571
-12.8533
-12.8453
-12.833
-12.8166
-12.796
-12.7713
-12.7427
-12.7102
-12.6739
-12.6339
-12.5903
-12.5432
-12.4926
-12.4389
-12.3819
-12.322
-12.2593
-12.194
-12.1262
-12.0564
-11.9847
-11.9116
-11.8375
-11.7629
-11.688
-11.6131
-12.2917
-12.3001
-12.3042
-12.304
-12.2996
-12.2909
-12.2782
-12.2613
-12.2404
-12.2155
-12.1868
-12.1542
-12.118
-12.0781
-12.0347
-11.9879
-11.9377
-11.8843
-11.8279
-11.7685
-11.7064
-11.6417
-11.5746
-11.5055
-11.4346
-11.3625
-11.2895
-11.2165
-11.1438
-11.0719
-11.7774
-11.7848
-11.7881
-11.7871
-11.782
-11.7728
-11.7595
-11.7423
-11.7211
-11.696
-11.6672
-11.6346
-11.5984
-11.5586
-11.5154
-11.4688
-11.419
-11.366
-11.31
-11.2511
-11.1894
-11.1252
-11.0587
-10.9901
-10.9199
-10.8484
-10.7763
-10.7045
-10.6336
-10.565
-11.296
-11.3025
-11.305
-11.3033
-11.2975
-11.2878
-11.2741
-11.2565
-11.235
-11.2097
-11.1807
-11.1481
-11.1119
-11.0722
-11.0291
-10.9828
-10.9332
-10.8805
-10.8248
-10.7663
-10.705
-10.6412
-10.575
-10.5068
-10.4368
-10.3656
-10.2939
-10.2228
-10.1532
-10.0875
-10.8447
-10.8506
-10.8524
-10.8502
-10.844
-10.8338
-10.8198
-10.8019
-10.7802
-10.7548
-10.7258
-10.6932
-10.6571
-10.6175
-10.5746
-10.5284
-10.4791
-10.4267
-10.3714
-10.3132
-10.2522
-10.1887
-10.1228
-10.0548
-9.98489
-9.91372
-9.84194
-9.7711
-9.70191
-9.63839
-10.4209
-10.4264
-10.428
-10.4256
-10.4192
-10.4091
-10.3951
-10.3773
-10.3559
-10.3308
-10.3021
-10.2699
-10.2343
-10.1953
-10.153
-10.1075
-10.0589
-10.0073
-9.95282
-9.89547
-9.83541
-9.77277
-9.70769
-9.64038
-9.57112
-9.50038
-9.42881
-9.35843
-9.29001
-9.23097
-10.0228
-10.0269
-10.0271
-10.0236
-10.0163
-10.0053
-9.99071
-9.97245
-9.95065
-9.92535
-9.89663
-9.86454
-9.82915
-9.79054
-9.74878
-9.70395
-9.65613
-9.60541
-9.55186
-9.49557
-9.43665
-9.37517
-9.31127
-9.24507
-9.17677
-9.1067
-9.03528
-8.96438
-8.89411
-8.84702
-45.8625
-46.1335
-46.3842
-46.6391
-46.8948
-47.1461
-47.3915
-47.6302
-47.8616
-48.0852
-48.3005
-48.507
-48.7043
-48.8923
-49.0707
-49.2393
-49.3979
-49.5464
-49.6848
-49.8129
-49.9307
-50.0381
-50.1353
-50.2223
-50.2992
-50.3663
-50.4241
-50.4733
-50.5159
-50.5545
-41.8343
-42.1199
-42.3907
-42.6563
-42.917
-43.1709
-43.4175
-43.6566
-43.888
-44.1114
-44.3263
-44.5326
-44.7299
-44.918
-45.0967
-45.2658
-45.4252
-45.5748
-45.7143
-45.8439
-45.9633
-46.0726
-46.1719
-46.261
-46.3403
-46.4097
-46.4696
-46.5202
-46.5619
-46.5936
-38.6181
-38.9061
-39.1831
-39.4514
-39.7123
-39.9658
-40.2117
-40.45
-40.6806
-40.9032
-41.1175
-41.3233
-41.5204
-41.7086
-41.8877
-42.0576
-42.218
-42.3688
-42.5101
-42.6416
-42.7633
-42.8752
-42.9773
-43.0695
-43.1519
-43.2246
-43.2876
-43.3407
-43.3839
-43.4161
-35.7948
-36.0777
-36.3521
-36.6179
-36.8759
-37.1266
-37.3699
-37.6057
-37.8338
-38.0542
-38.2666
-38.4707
-38.6665
-38.8537
-39.0321
-39.2017
-39.3622
-39.5135
-39.6556
-39.7883
-39.9116
-40.0254
-40.1298
-40.2246
-40.3098
-40.3855
-40.4515
-40.5078
-40.5541
-40.5901
-33.1505
-33.4252
-33.6934
-33.9538
-34.2068
-34.4526
-34.6912
-34.9227
-35.1467
-35.3632
-35.5721
-35.773
-35.9659
-36.1506
-36.3269
-36.4948
-36.654
-36.8044
-36.946
-37.0787
-37.2023
-37.3169
-37.4224
-37.5186
-37.6057
-37.6835
-37.7519
-37.8109
-37.8603
-37.8999
-30.7216
-30.9871
-31.2472
-31.5003
-31.7463
-31.9855
-32.2179
-32.4434
-32.6618
-32.873
-33.0769
-33.2732
-33.4619
-33.6427
-33.8156
-33.9804
-34.1369
-34.2851
-34.4249
-34.5562
-34.6789
-34.7929
-34.8982
-34.9947
-35.0824
-35.1612
-35.2311
-35.2918
-35.3435
-35.3858
-28.5128
-28.7685
-29.0193
-29.2638
-29.5017
-29.7332
-29.9582
-30.1766
-30.3883
-30.5931
-30.7909
-30.9816
-31.1649
-31.3408
-31.5091
-31.6697
-31.8225
-31.9674
-32.1042
-32.2329
-32.3535
-32.4658
-32.5697
-32.6653
-32.7525
-32.8312
-32.9013
-32.9628
-33.0156
-33.0596
-26.508
-26.7535
-26.9946
-27.2299
-27.459
-27.6821
-27.8991
-28.1098
-28.3141
-28.5119
-28.7029
-28.8872
-29.0644
-29.2346
-29.3975
-29.5531
-29.7013
-29.8419
-29.9748
-30.1001
-30.2176
-30.3272
-30.4288
-30.5225
-30.6082
-30.6858
-30.7552
-30.8165
-30.8695
-30.9142
-24.6901
-24.9256
-25.1569
-25.3828
-25.6029
-25.8174
-26.026
-26.2287
-26.4252
-26.6155
-26.7995
-26.9769
-27.1476
-27.3116
-27.4686
-27.6187
-27.7617
-27.8974
-28.0259
-28.147
-28.2607
-28.3669
-28.4656
-28.5566
-28.64
-28.7157
-28.7837
-28.8439
-28.8962
-28.9407
-23.042
-23.2677
-23.4894
-23.706
-23.9172
-24.1231
-24.3233
-24.5179
-24.7067
-24.8895
-25.0662
-25.2366
-25.4006
-25.5582
-25.7091
-25.8534
-25.9908
-26.1214
-26.245
-26.3616
-26.4711
-26.5734
-26.6685
-26.7564
-26.837
-26.9102
-26.9761
-27.0345
-27.0855
-27.1292
-21.5467
-21.763
-21.9754
-22.1831
-22.3856
-22.5831
-22.7752
-22.9619
-23.143
-23.3184
-23.4878
-23.6513
-23.8087
-23.9598
-24.1046
-24.2429
-24.3748
-24.5
-24.6186
-24.7304
-24.8355
-24.9337
-25.025
-25.1093
-25.1867
-25.2571
-25.3204
-25.3767
-25.4259
-25.4681
-20.1878
-20.3952
-20.5989
-20.7981
-20.9924
-21.1817
-21.3661
-21.5451
-21.7188
-21.887
-22.0495
-22.2062
-22.3571
-22.5019
-22.6406
-22.7732
-22.8994
-23.0194
-23.1329
-23.2399
-23.3404
-23.4344
-23.5217
-23.6024
-23.6764
-23.7437
-23.8043
-23.8582
-23.9052
-23.9456
-18.9506
-19.1497
-19.3452
-19.5363
-19.7228
-19.9045
-20.0814
-20.2533
-20.42
-20.5813
-20.7371
-20.8874
-21.0319
-21.1706
-21.3035
-21.4304
-21.5512
-21.666
-21.7745
-21.8768
-21.9729
-22.0626
-22.146
-22.223
-22.2935
-22.3577
-22.4153
-22.4666
-22.5113
-22.5497
-17.8217
-18.013
-18.2008
-18.3844
-18.5636
-18.7382
-18.9081
-19.0732
-19.2332
-19.388
-19.5376
-19.6816
-19.8202
-19.9532
-20.0804
-20.2019
-20.3175
-20.4273
-20.531
-20.6288
-20.7205
-20.8061
-20.8855
-20.9589
-21.026
-21.087
-21.1417
-21.1903
-21.2327
-21.2689
-16.7892
-16.9732
-17.1539
-17.3305
-17.5029
-17.6709
-17.8343
-17.993
-18.1468
-18.2955
-18.4391
-18.5774
-18.7103
-18.8378
-18.9597
-19.0761
-19.1868
-19.2917
-19.3909
-19.4843
-19.5718
-19.6534
-19.7291
-19.7989
-19.8627
-19.9206
-19.9725
-20.0184
-20.0584
-20.0924
-15.8427
-16.02
-16.194
-16.3642
-16.5302
-16.692
-16.8494
-17.0021
-17.1501
-17.2931
-17.4311
-17.564
-17.6916
-17.814
-17.9309
-18.0424
-18.1484
-18.2488
-18.3437
-18.4329
-18.5165
-18.5943
-18.6664
-18.7328
-18.7935
-18.8484
-18.8975
-18.9408
-18.9784
-19.0103
-14.9729
-15.1439
-15.3118
-15.476
-15.6363
-15.7923
-15.9441
-16.0913
-16.2339
-16.3716
-16.5044
-16.6321
-16.7548
-16.8723
-16.9845
-17.0915
-17.1931
-17.2893
-17.38
-17.4653
-17.5452
-17.6194
-17.6882
-17.7513
-17.809
-17.861
-17.9074
-17.9483
-17.9837
-18.0135
-14.1718
-14.3371
-14.4993
-14.658
-14.8129
-14.9637
-15.1102
-15.2523
-15.3898
-15.5226
-15.6505
-15.7735
-15.8915
-16.0044
-16.1123
-16.215
-16.3124
-16.4046
-16.4916
-16.5732
-16.6495
-16.7204
-16.7859
-16.8461
-16.9008
-16.9502
-16.9941
-17.0327
-17.0658
-17.0937
-13.4325
-13.5923
-13.7494
-13.903
-14.0529
-14.1988
-14.3405
-14.4779
-14.6106
-14.7388
-14.8621
-14.9807
-15.0943
-15.203
-15.3067
-15.4054
-15.499
-15.5875
-15.6708
-15.749
-15.822
-15.8898
-15.9523
-16.0096
-16.0617
-16.1085
-16.1501
-16.1864
-16.2175
-16.2435
-12.7486
-12.9034
-13.0557
-13.2047
-13.3501
-13.4915
-13.6287
-13.7616
-13.89
-14.0138
-14.1329
-14.2472
-14.3568
-14.4615
-14.5614
-14.6563
-14.7463
-14.8313
-14.9112
-14.9862
-15.0561
-15.1209
-15.1806
-15.2353
-15.2848
-15.3293
-15.3686
-15.4029
-15.4321
-15.4563
-12.1148
-12.2649
-12.4129
-12.5577
-12.6989
-12.8362
-12.9692
-13.098
-13.2222
-13.3419
-13.457
-13.5675
-13.6732
-13.7742
-13.8704
-13.9618
-14.0484
-14.1301
-14.2069
-14.2788
-14.3458
-14.4079
-14.465
-14.5172
-14.5644
-14.6066
-14.6439
-14.6762
-14.7036
-14.7262
-11.5262
-11.672
-11.816
-11.9571
-12.0945
-12.2279
-12.3571
-12.482
-12.6023
-12.7182
-12.8295
-12.9363
-13.0384
-13.1359
-13.2287
-13.3168
-13.4002
-13.4788
-13.5527
-13.6218
-13.6861
-13.7456
-13.8002
-13.8501
-13.8951
-13.9352
-13.9706
-14.0011
-14.0269
-14.0479
-10.9784
-11.1201
-11.2609
-11.3986
-11.5326
-11.6624
-11.788
-11.9092
-12.0259
-12.1382
-12.2459
-12.3492
-12.4479
-12.542
-12.6316
-12.7166
-12.797
-12.8728
-12.9439
-13.0104
-13.0721
-13.1292
-13.1816
-13.2293
-13.2722
-13.3105
-13.344
-13.3729
-13.3971
-13.4167
-10.4672
-10.6054
-10.7436
-10.8785
-11.0093
-11.1358
-11.258
-11.3757
-11.489
-11.5978
-11.7022
-11.8021
-11.8976
-11.9887
-12.0752
-12.1573
-12.2349
-12.308
-12.3765
-12.4405
-12.4999
-12.5547
-12.605
-12.6506
-12.6917
-12.7282
-12.76
-12.7874
-12.8101
-12.8284
-9.98912
-10.1244
-10.2609
-10.3934
-10.5213
-10.6448
-10.7637
-10.8781
-10.9881
-11.0936
-11.1948
-11.2916
-11.3841
-11.4722
-11.5559
-11.6353
-11.7102
-11.7808
-11.8469
-11.9085
-11.9657
-12.0184
-12.0667
-12.1105
-12.1497
-12.1846
-12.2149
-12.2408
-12.2622
-12.2792
-9.5406
-9.67447
-9.81049
-9.94101
-10.0662
-10.1867
-10.3026
-10.4138
-10.5206
-10.623
-10.7211
-10.8149
-10.9045
-10.9898
-11.0708
-11.1475
-11.22
-11.2881
-11.3519
-11.4114
-11.4665
-11.5172
-11.5636
-11.6056
-11.6432
-11.6764
-11.7053
-11.7299
-11.75
-11.7659
-9.11586
-9.25223
-9.38983
-9.51855
-9.64111
-9.75881
-9.87161
-9.97972
-10.0834
-10.1828
-10.278
-10.3689
-10.4557
-10.5384
-10.6168
-10.6911
-10.7612
-10.8271
-10.8887
-10.9461
-10.9992
-11.0481
-11.0927
-11.133
-11.1691
-11.2009
-11.2284
-11.2517
-11.2707
-11.2855
-8.70265
-8.84705
-8.99024
-9.11797
-9.23814
-9.35327
-9.46332
-9.56862
-9.66954
-9.76626
-9.85886
-9.94736
-10.0318
-10.1121
-10.1884
-10.2605
-10.3286
-10.3925
-10.4523
-10.508
-10.5595
-10.6068
-10.65
-10.6889
-10.7237
-10.7543
-10.7807
-10.803
-10.821
-10.835
-8.29738
-8.45254
-8.60558
-8.7345
-8.85301
-8.96588
-9.07357
-9.1765
-9.2751
-9.36959
-9.46004
-9.54648
-9.62893
-9.70738
-9.78183
-9.85226
-9.91867
-9.98105
-10.0394
-10.0937
-10.1439
-10.19
-10.232
-10.2699
-10.3038
-10.3335
-10.3592
-10.3807
-10.3982
-10.4116
-7.98135
-8.14783
-8.29875
-8.42662
-8.5415
-8.64933
-8.75227
-8.85071
-8.94491
-9.0351
-9.12136
-9.2037
-9.28214
-9.35666
-9.42728
-9.494
-9.5568
-9.61568
-9.67064
-9.72167
-9.76876
-9.8119
-9.8511
-9.88635
-9.91765
-9.945
-9.96841
-9.98789
-10.0035
-10.0151
-3.85267
-4.1058
-4.37764
-4.66845
-4.98013
-5.31459
-5.67374
-6.05973
-6.47498
-6.9222
-7.40452
-7.92549
-8.48921
-9.10042
-9.76466
-10.4884
-11.2792
-12.1461
-13.0994
-14.1517
-15.3174
-16.6132
-18.0587
-19.6755
-21.4883
-23.5252
-25.7987
-28.2942
-31.2457
-35.0847
-3.99297
-4.24993
-4.52407
-4.8176
-5.13237
-5.47012
-5.83279
-6.22254
-6.64184
-7.09345
-7.58051
-8.10661
-8.6759
-9.29317
-9.964
-10.6949
-11.4936
-12.369
-13.3317
-14.3941
-15.5708
-16.8787
-18.337
-19.9675
-21.7947
-23.8462
-26.134
-28.642
-31.6004
-35.4362
-4.13426
-4.39506
-4.67154
-4.96785
-5.28578
-5.62689
-5.99314
-6.38673
-6.81016
-7.26622
-7.75809
-8.28941
-8.86436
-9.48778
-10.1653
-10.9035
-11.7101
-12.5942
-13.5663
-14.639
-15.8269
-17.1468
-18.6181
-20.2623
-22.1037
-24.1695
-26.4709
-28.9902
-31.9534
-35.7829
-4.27636
-4.54101
-4.81987
-5.11902
-5.44017
-5.7847
-6.15458
-6.55206
-6.97968
-7.44026
-7.937
-8.4736
-9.05426
-9.68389
-10.3682
-11.1137
-11.9283
-12.8211
-13.8027
-14.8858
-16.0848
-17.4169
-18.9011
-20.559
-22.4145
-24.4944
-26.8091
-29.3397
-32.31
-36.1387
-4.41916
-4.68767
-4.96894
-5.27101
-5.59543
-5.94344
-6.31701
-6.71844
-7.1503
-7.61544
-8.11712
-8.65904
-9.24548
-9.88137
-10.5724
-11.3254
-12.148
-13.0496
-14.0408
-15.1342
-16.3445
-17.6886
-19.1858
-20.8573
-22.7269
-24.8208
-27.1488
-29.6912
-32.6699
-36.5014
-4.56255
-4.83493
-5.11865
-5.42368
-5.75145
-6.10299
-6.4803
-6.88574
-7.32189
-7.79166
-8.29832
-8.84563
-9.43789
-10.0801
-10.778
-11.5384
-12.3692
-13.2796
-14.2803
-15.3842
-16.6058
-17.962
-19.4721
-21.1573
-23.041
-25.1489
-27.4902
-30.0444
-33.0321
-36.8677
-4.70643
-4.98266
-5.26887
-5.57693
-5.90809
-6.26322
-6.64432
-7.05382
-7.49433
-7.96877
-8.48046
-9.0332
-9.63135
-10.2799
-10.9848
-11.7527
-12.5916
-13.5108
-14.5213
-15.6356
-16.8685
-18.2369
-19.76
-21.4587
-23.3565
-25.4785
-27.8332
-30.3991
-33.396
-37.2367
-4.85069
-5.13075
-5.41948
-5.73062
-6.06523
-6.424
-6.80896
-7.22256
-7.66747
-8.14663
-8.6634
-9.22162
-9.82569
-10.4807
-11.1925
-11.968
-12.8151
-13.7432
-14.7634
-15.8882
-17.1324
-18.513
-20.0491
-21.7615
-23.6733
-25.8094
-28.1774
-30.7553
-33.7615
-37.6077
-4.99522
-5.2791
-5.57037
-5.88465
-6.22276
-6.58522
-6.97407
-7.39183
-7.84118
-8.32511
-8.84701
-9.41075
-10.0208
-10.6822
-11.401
-12.1841
-13.0395
-13.9766
-15.0064
-16.1418
-17.3974
-18.7902
-20.3393
-22.0654
-23.9912
-26.1413
-28.5228
-31.1125
-34.1282
-37.9803
-5.13993
-5.42758
-5.72142
-6.0389
-6.38057
-6.74676
-7.13956
-7.56151
-8.01535
-8.50408
-9.03114
-9.60044
-10.2165
-10.8844
-11.6102
-12.4009
-13.2646
-14.2107
-15.2503
-16.3962
-17.6632
-19.0683
-20.6304
-22.3701
-24.31
-26.4741
-28.8689
-31.4706
-34.4957
-38.3538
-5.28473
-5.57612
-5.87255
-6.19327
-6.53856
-6.90852
-7.3053
-7.73149
-8.18984
-8.68341
-9.21566
-9.79056
-10.4126
-11.0871
-11.82
-12.6183
-13.4903
-14.4454
-15.4948
-16.6513
-17.9297
-19.347
-20.9221
-22.6755
-24.6294
-26.8075
-29.2156
-31.8291
-34.8637
-38.7279
-5.42953
-5.72462
-6.02365
-6.34768
-6.69661
-7.07039
-7.47118
-7.90164
-8.36455
-8.86298
-9.40046
-9.98097
-10.6091
-11.2901
-12.0301
-12.8361
-13.7164
-14.6805
-15.7397
-16.9068
-18.1967
-19.6262
-21.2143
-22.9813
-24.9492
-27.1412
-29.5626
-32.1878
-35.2317
-39.102
-5.57428
-5.873
-6.17465
-6.50202
-6.85465
-7.23228
-7.63712
-8.07187
-8.53935
-9.04267
-9.58538
-10.1715
-10.8057
-11.4933
-12.2403
-13.0541
-13.9427
-14.9159
-15.9849
-17.1625
-18.4638
-19.9056
-21.5067
-23.2873
-25.2691
-27.4749
-29.9094
-32.5464
-35.5995
-39.4758
-5.71892
-6.02121
-6.32547
-6.65624
-7.0126
-7.3941
-7.803
-8.24207
-8.71413
-9.22236
-9.77032
-10.3621
-11.0024
-11.6965
-12.4507
-13.2721
-14.169
-15.1513
-16.2301
-17.4183
-18.731
-20.1851
-21.7991
-23.5931
-25.5888
-27.8083
-30.2559
-32.9044
-35.9667
-39.8488
-5.86341
-6.1692
-6.47607
-6.81026
-7.17038
-7.55577
-7.96875
-8.41213
-8.88879
-9.40192
-9.95513
-10.5525
-11.1989
-11.8996
-12.6608
-13.4899
-14.3952
-15.3865
-16.4751
-17.674
-18.9981
-20.4643
-22.0912
-23.8987
-25.9081
-28.1413
-30.6018
-33.2616
-36.3329
-40.2208
-6.00774
-6.31693
-6.6264
-6.96404
-7.32792
-7.71721
-8.13427
-8.58197
-9.06321
-9.58123
-10.1397
-10.7427
-11.3951
-12.1024
-12.8707
-13.7075
-14.6211
-15.6214
-16.7198
-17.9292
-19.2646
-20.743
-22.3827
-24.2036
-26.2267
-28.4734
-30.9467
-33.6177
-36.6978
-40.5914
-6.15191
-6.46439
-6.77643
-7.11754
-7.48519
-7.87836
-8.29948
-8.75147
-9.23728
-9.76017
-10.3238
-10.9325
-11.5909
-12.3047
-13.0801
-13.9245
-14.8465
-15.8558
-16.9639
-18.1838
-19.5306
-21.021
-22.6735
-24.5077
-26.5443
-28.8044
-31.2903
-33.9724
-37.0611
-40.9602
-6.29598
-6.61162
-6.92616
-7.27072
-7.64213
-8.03915
-8.46429
-8.92055
-9.41089
-9.93861
-10.5075
-11.1217
-11.7861
-12.5064
-13.2888
-14.1409
-15.0711
-16.0894
-17.2072
-18.4376
-19.7956
-21.2981
-22.9633
-24.8107
-26.8607
-29.134
-31.6323
-34.3253
-37.4224
-41.3269
-6.44
-6.75865
-7.07561
-7.42358
-7.79869
-8.19951
-8.62862
-9.08908
-9.5839
-10.1164
-10.6904
-11.3101
-11.9806
-12.7073
-13.4967
-14.3563
-15.2948
-16.322
-17.4494
-18.6903
-20.0596
-21.5739
-23.2518
-25.1123
-27.1756
-29.4619
-31.9725
-34.6761
-37.7815
-41.6913
-6.58411
-6.90555
-7.2248
-7.5761
-7.95483
-8.35935
-8.79235
-9.25694
-9.75616
-10.2934
-10.8724
-11.4977
-12.174
-12.9071
-13.7035
-14.5707
-15.5173
-16.5534
-17.6905
-18.9417
-20.3221
-21.8484
-23.5387
-25.4122
-27.4886
-29.7879
-32.3105
-35.0246