/*--------------------------------*- C++ -*----------------------------------*\
  =========                 |
  \\      /  F ield         | OpenFOAM: The Open Source CFD Toolbox
   \\    /   O peration     | Website:  https://openfoam.org
    \\  /    A nd           | Version:  6.0
     \\/     M anipulation  |
\*---------------------------------------------------------------------------*/
FoamFile
{
    version     2.0;
    format      ascii;
    class       volScalarField;
    location    "8";
    object      p;
}
// * * * * * * * * * * * * * * * * * * * * * * * * * * * * * * * * * * * * * //

dimensions      [0 2 -2 0 0 0 0];

internalField   nonuniform List<scalar> 
19200
(
-37.9754
-34.3748
-31.7321
-29.5414
-27.5205
-25.6666
-23.9656
-22.3956
-20.9414
-19.5921
-18.3387
-17.1737
-16.0908
-15.0838
-14.1477
-13.2772
-12.4679
-11.7153
-11.0152
-10.364
-9.75778
-9.19334
-8.66752
-8.17739
-7.72029
-7.29379
-6.89566
-6.52375
-6.17615
-5.85252
-38.2805
-34.6843
-32.0374
-29.8377
-27.8058
-25.94
-24.2267
-22.6444
-21.1782
-19.8175
-18.5534
-17.3785
-16.2863
-15.271
-14.3271
-13.4496
-12.6339
-11.8754
-11.17
-10.5139
-9.90323
-9.33469
-8.80506
-8.3114
-7.851
-7.42141
-7.02037
-6.64564
-6.29521
-5.96959
-38.5924
-34.9947
-32.3424
-30.1336
-28.0907
-26.2128
-24.4871
-22.8925
-21.4144
-20.0423
-18.7675
-17.5827
-16.4814
-15.4576
-14.506
-13.6216
-12.7995
-12.0352
-11.3246
-10.6636
-10.0485
-9.47588
-8.94249
-8.44533
-7.98166
-7.549
-7.14507
-6.76753
-6.41428
-6.08671
-38.908
-35.3064
-32.6475
-30.4292
-28.375
-26.485
-24.7468
-23.1399
-21.6498
-20.2663
-18.9808
-17.7861
-16.6757
-15.6436
-14.6844
-13.793
-12.9645
-12.1945
-11.4787
-10.8129
-10.1934
-9.61679
-9.07967
-8.57905
-8.11214
-7.67644
-7.26964
-6.88929
-6.53323
-6.20378
-39.2254
-35.619
-32.9526
-30.7244
-28.6588
-26.7565
-25.0057
-23.3863
-21.8842
-20.4893
-19.1932
-17.9886
-16.8691
-15.8287
-14.8619
-13.9636
-13.129
-12.3533
-11.6322
-10.9617
-10.338
-9.75733
-9.21653
-8.71248
-8.24237
-7.80365
-7.394
-7.01086
-6.65202
-6.32075
-39.5437
-35.9321
-33.2576
-31.0192
-28.9419
-27.0271
-25.2636
-23.6317
-22.1176
-20.7113
-19.4046
-18.1901
-17.0615
-16.0129
-15.0386
-14.1335
-13.2926
-12.5113
-11.7852
-11.11
-10.482
-9.89739
-9.35296
-8.84552
-8.37225
-7.93056
-7.51808
-7.13217
-6.77056
-6.43753
-39.8622
-36.2452
-33.5623
-31.3133
-29.2241
-27.2966
-25.5204
-23.8759
-22.3497
-20.9321
-19.6147
-18.3904
-17.2528
-16.196
-15.2143
-14.3024
-13.4554
-12.6686
-11.9373
-11.2576
-10.6253
-10.0369
-9.48886
-8.97809
-8.50169
-8.05706
-7.6418
-7.25313
-6.88878
-6.55407
-40.1806
-36.5579
-33.8664
-31.6066
-29.5052
-27.565
-25.7759
-24.1188
-22.5805
-21.1514
-19.8234
-18.5894
-17.4429
-16.3779
-15.3888
-14.4702
-13.6172
-12.8248
-12.0886
-11.4043
-10.7679
-10.1757
-9.62413
-9.11008
-8.6306
-8.18308
-7.76506
-7.37367
-7.00661
-6.67029
-40.4984
-36.87
-34.1696
-31.8988
-29.7851
-27.832
-26.0299
-24.3601
-22.8097
-21.3692
-20.0306
-18.7869
-17.6315
-16.5584
-15.562
-14.6369
-13.7778
-12.9801
-12.239
-11.5502
-10.9097
-10.3137
-9.75866
-9.24138
-8.75888
-8.30851
-7.88779
-7.4937
-7.12396
-6.78611
-40.8153
-37.1811
-34.4717
-32.1898
-30.0636
-28.0975
-26.2823
-24.5998
-23.0372
-21.5853
-20.2362
-18.9828
-17.8185
-16.7375
-15.7338
-14.8021
-13.9372
-13.1341
-12.3881
-11.695
-11.0505
-10.4508
-9.89234
-9.3719
-8.88643
-8.43327
-8.00988
-7.61314
-7.24076
-6.90146
-41.1311
-37.491
-34.7724
-32.4792
-30.3404
-28.3611
-26.5328
-24.8375
-23.2628
-21.7995
-20.4399
-19.1768
-18.0039
-16.9149
-15.9041
-14.9659
-14.0951
-13.2868
-12.5361
-11.8386
-11.1901
-10.5868
-10.0251
-9.50151
-9.01314
-8.55724
-8.13124
-7.73189
-7.35692
-7.01626
-41.4454
-37.7994
-35.0715
-32.7668
-30.6154
-28.6228
-26.7813
-25.0732
-23.4863
-22.0117
-20.6416
-19.369
-18.1873
-17.0904
-16.0726
-15.128
-14.2515
-13.438
-12.6826
-11.9809
-11.3285
-10.7217
-10.1567
-9.6301
-9.13889
-8.68032
-8.25178
-7.84987
-7.47235
-7.13042
-41.7581
-38.106
-35.3687
-33.0525
-30.8882
-28.8824
-27.0276
-25.3066
-23.7076
-22.2216
-20.8411
-19.559
-18.3687
-17.2641
-16.2392
-15.2884
-14.4062
-13.5876
-12.8276
-12.1217
-11.4656
-10.8553
-10.2871
-9.75753
-9.26356
-8.80239
-8.37137
-7.96696
-7.58695
-7.24387
-42.0688
-38.4107
-35.6639
-33.336
-31.1588
-29.1395
-27.2714
-25.5376
-23.9264
-22.4292
-21.0383
-19.7467
-18.5479
-17.4355
-16.4038
-15.4467
-14.559
-13.7354
-12.9709
-12.2609
-11.6011
-10.9874
-10.4161
-9.88367
-9.38701
-8.92332
-8.48989
-8.08305
-7.70062
-7.35648
-42.3774
-38.7131
-35.9568
-33.6171
-31.4269
-29.3941
-27.5126
-25.7659
-24.1426
-22.6341
-21.2329
-19.932
-18.7247
-17.6047
-16.5661
-15.603
-14.7098
-13.8812
-13.1123
-12.3983
-11.7349
-11.1179
-10.5435
-10.0083
-9.5091
-9.04297
-8.60721
-8.19801
-7.81323
-7.46816
-42.6836
-39.0132
-36.2472
-33.8956
-31.6922
-29.6459
-27.751
-25.9914
-24.356
-22.8363
-21.4248
-20.1146
-18.8989
-17.7715
-16.7261
-15.757
-14.8584
-14.025
-13.2517
-12.5338
-11.8668
-11.2466
-10.6693
-10.1314
-9.62964
-9.16116
-8.72317
-8.3117
-7.92465
-7.57877
-42.9873
-39.3107
-36.5349
-34.1712
-31.9546
-29.8947
-27.9864
-26.2139
-24.5664
-23.0356
-21.6139
-20.2944
-19.0705
-17.9356
-16.8836
-15.9085
-15.0046
-14.1664
-13.3889
-12.6671
-11.9967
-11.3733
-10.7932
-10.2526
-9.74846
-9.27772
-8.83759
-8.42394
-8.03471
-7.68815
-43.2883
-39.6054
-36.8197
-34.4439
-32.214
-30.1404
-28.2186
-26.4332
-24.7737
-23.2317
-21.7999
-20.4713
-19.2391
-18.0969
-17.0383
-16.0574
-15.1482
-14.3054
-13.5237
-12.7982
-12.1243
-11.4979
-10.915
-10.3719
-9.86535
-9.39245
-8.95028
-8.53454
-8.14322
-7.79611
-43.5864
-39.8971
-37.1014
-34.7133
-32.47
-30.3827
-28.4474
-26.6492
-24.9775
-23.4245
-21.9827
-20.645
-19.4047
-18.2552
-17.1902
-16.2034
-15.2892
-14.4417
-13.6559
-12.9266
-12.2495
-11.62
-11.0344
-10.4889
-9.98007
-9.5051
-9.06098
-8.64327
-8.24996
-7.90245
-43.8816
-40.1858
-37.3799
-34.9794
-32.7226
-30.6214
-28.6726
-26.8615
-25.1779
-23.6139
-22.1621
-20.8154
-19.5671
-18.4104
-17.339
-16.3465
-15.4272
-14.5752
-13.7853
-13.0524
-12.372
-11.7396
-11.1513
-10.6033
-10.0924
-9.6154
-9.16944
-8.74985
-8.35465
-8.00687
-44.1737
-40.4713
-37.655
-35.242
-32.9714
-30.8564
-28.894
-27.0701
-25.3746
-23.7996
-22.3379
-20.9823
-19.726
-18.5623
-17.4845
-16.4865
-15.5621
-14.7056
-13.9117
-13.1753
-12.4916
-11.8563
-11.2654
-10.715
-10.2019
-9.72306
-9.27534
-8.85396
-8.45695
-8.10905
-44.4627
-40.7534
-37.9266
-35.5008
-33.2165
-31.0875
-29.1116
-27.2748
-25.5674
-23.9816
-22.51
-21.1457
-19.8815
-18.7107
-17.6268
-16.6232
-15.6938
-14.8329
-14.035
-13.295
-12.6081
-11.9699
-11.3763
-10.8237
-10.3085
-9.82772
-9.3783
-8.95522
-8.55648
-8.20853
-44.7488
-41.0322
-38.1945
-35.7557
-33.4574
-31.3144
-29.3249
-27.4754
-25.7561
-24.1595
-22.6783
-21.3052
-20.0333
-18.8556
-17.7655
-16.7564
-15.8221
-14.9568
-14.1549
-13.4113
-12.7212
-12.0801
-11.484
-10.929
-10.4117
-9.92903
-9.47795
-9.05321
-8.65276
-8.30484
-45.0322
-41.3076
-38.4586
-36.0065
-33.6941
-31.537
-29.534
-27.6717
-25.9407
-24.3334
-22.8426
-21.4609
-20.1813
-18.9968
-17.9006
-16.886
-15.9469
-15.0772
-14.2714
-13.5242
-12.8308
-12.1868
-11.588
-11.0306
-10.5111
-10.0266
-9.57382
-9.14744
-8.74528
-8.39754
-45.3131
-41.5794
-38.7187
-36.253
-33.9263
-31.7551
-29.7385
-27.8635
-26.1209
-24.503
-23.0027
-21.6125
-20.3254
-19.1342
-18.032
-17.0121
-16.0681
-15.1941
-14.3843
-13.6335
-12.9368
-12.2897
-11.6882
-11.1282
-10.6065
-10.1199
-9.66537
-9.23727
-8.83338
-8.48592
-45.5916
-41.8474
-38.9744
-36.4949
-34.1538
-31.9684
-29.9382
-28.0507
-26.2965
-24.6683
-23.1586
-21.7601
-20.4656
-19.2677
-18.1596
-17.1344
-16.1856
-15.3072
-14.4935
-13.739
-13.039
-12.3888
-11.7843
-11.2217
-10.6974
-10.2086
-9.75207
-9.32207
-8.91625
-8.56842
-45.8689
-42.1117
-39.2254
-36.7318
-34.3761
-32.1765
-30.1329
-28.233
-26.4675
-24.829
-23.3102
-21.9035
-20.6017
-19.3973
-18.2834
-17.253
-16.2995
-15.4168
-14.5991
-13.8409
-13.1374
-12.4839
-11.8763
-11.3108
-10.7838
-10.2925
-9.83375
-9.40164
-8.99327
-8.6436
-46.1497
-42.3736
-39.4714
-36.963
-34.5927
-32.379
-30.3222
-28.41
-26.6334
-24.9849
-23.4571
-22.0425
-20.7336
-19.523
-18.4034
-17.3678
-16.4097
-15.5227
-14.701
-13.9391
-13.232
-12.5752
-11.9643
-11.3956
-10.8655
-10.3714
-9.91012
-9.47541
-9.06377
-8.71382
-46.4369
-42.6325
-39.7108
-37.1874
-34.8029
-32.5754
-30.5058
-28.5817
-26.7943
-25.1361
-23.5996
-22.1772
-20.8614
-19.6446
-18.5195
-17.479
-16.5164
-15.6252
-14.7995
-14.0339
-13.3232
-12.6627
-12.0483
-11.476
-10.9423
-10.4446
-9.97925
-9.53986
-9.12506
-8.78229
-46.7073
-42.8793
-39.9411
-37.4045
-35.0071
-32.7668
-30.6847
-28.749
-26.951
-25.2833
-23.7382
-22.3083
-20.9857
-19.763
-18.6325
-17.5871
-16.62
-15.7247
-14.8951
-14.1257
-13.4114
-12.7474
-12.1292
-11.553
-11.0152
-10.5125
-10.0405
-9.59356
-9.17692
-8.83504
-50.6261
-50.6099
-50.5758
-50.5385
-50.4961
-50.446
-50.3874
-50.3204
-50.2447
-50.1604
-50.0674
-49.9657
-49.8556
-49.737
-49.6101
-49.4752
-49.3324
-49.1818
-49.0238
-48.8584
-48.686
-48.5069
-48.3212
-48.1294
-47.9319
-47.7292
-47.5223
-47.3126
-47.1032
-46.8987
-46.6547
-46.6527
-46.6361
-46.6107
-46.5769
-46.534
-46.4819
-46.4208
-46.3508
-46.272
-46.1844
-46.0883
-45.9837
-45.8707
-45.7496
-45.6204
-45.4834
-45.3387
-45.1866
-45.0273
-44.8609
-44.6878
-44.5082
-44.3224
-44.1307
-43.9337
-43.7318
-43.5256
-43.3156
-43.1007
-43.4718
-43.4797
-43.4752
-43.46
-43.4349
-43.4004
-43.3565
-43.3036
-43.2417
-43.1711
-43.0918
-43.004
-42.9078
-42.8033
-42.6908
-42.5704
-42.4422
-42.3065
-42.1634
-42.0132
-41.8559
-41.692
-41.5215
-41.3448
-41.162
-40.9734
-40.7793
-40.5796
-40.3742
-40.1617
-40.6492
-40.6639
-40.6678
-40.661
-40.6443
-40.6183
-40.583
-40.5388
-40.4858
-40.4242
-40.354
-40.2755
-40.1888
-40.094
-39.9913
-39.8809
-39.7628
-39.6374
-39.5047
-39.3649
-39.2183
-39.065
-38.9052
-38.7391
-38.5669
-38.3887
-38.2045
-38.0144
-37.818
-37.615
-37.9626
-37.9826
-37.993
-37.9934
-37.9842
-37.9658
-37.9386
-37.9026
-37.858
-37.805
-37.7437
-37.6743
-37.5969
-37.5117
-37.4188
-37.3184
-37.2106
-37.0956
-36.9735
-36.8445
-36.7088
-36.5666
-36.418
-36.2631
-36.102
-35.935
-35.7619
-35.5828
-35.3975
-35.2059
-35.4507
-35.4748
-35.4902
-35.4963
-35.4932
-35.4812
-35.4607
-35.4318
-35.3946
-35.3492
-35.2959
-35.2348
-35.1659
-35.0895
-35.0057
-34.9146
-34.8164
-34.7113
-34.5993
-34.4806
-34.3555
-34.2239
-34.0861
-33.9422
-33.7923
-33.6364
-33.4746
-33.3069
-33.1332
-32.9534
-33.1258
-33.1528
-33.1717
-33.1819
-33.1834
-33.1764
-33.1613
-33.1381
-33.1069
-33.068
-33.0215
-32.9674
-32.906
-32.8373
-32.7615
-32.6787
-32.5891
-32.4928
-32.39
-32.2807
-32.1652
-32.0435
-31.9158
-31.7822
-31.6428
-31.4976
-31.3466
-31.19
-31.0275
-30.8593
-30.9805
-31.0092
-31.0304
-31.0433
-31.048
-31.0447
-31.0335
-31.0148
-30.9884
-30.9546
-30.9136
-30.8653
-30.81
-30.7478
-30.6788
-30.6031
-30.521
-30.4324
-30.3376
-30.2366
-30.1297
-30.0169
-29.8983
-29.774
-29.6441
-29.5087
-29.3679
-29.2215
-29.0696
-28.9123
-29.0062
-29.0356
-29.0579
-29.0724
-29.0791
-29.0783
-29.07
-29.0544
-29.0317
-29.0018
-28.965
-28.9214
-28.8711
-28.8141
-28.7507
-28.681
-28.6051
-28.523
-28.4351
-28.3413
-28.2418
-28.1367
-28.0261
-27.9101
-27.7888
-27.6622
-27.5304
-27.3934
-27.2513
-27.104
-27.1931
-27.2224
-27.2449
-27.2601
-27.2679
-27.2685
-27.2621
-27.2487
-27.2285
-27.2016
-27.168
-27.1279
-27.0814
-27.0287
-26.9698
-26.9049
-26.8341
-26.7575
-26.6753
-26.5876
-26.4944
-26.3959
-26.2923
-26.1835
-26.0697
-25.9509
-25.8272
-25.6986
-25.5652
-25.4269
-25.53
-25.5586
-25.5807
-25.5958
-25.6039
-25.6052
-25.5998
-25.5878
-25.5693
-25.5444
-25.5132
-25.4757
-25.4322
-25.3828
-25.3275
-25.2664
-25.1998
-25.1277
-25.0502
-24.9675
-24.8796
-24.7868
-24.6891
-24.5865
-24.4792
-24.3673
-24.2507
-24.1295
-24.0038
-23.8735
-24.005
-24.0324
-24.0536
-24.0682
-24.0761
-24.0775
-24.0725
-24.0613
-24.0438
-24.0202
-23.9906
-23.9551
-23.9138
-23.8668
-23.8143
-23.7563
-23.693
-23.6245
-23.5509
-23.4724
-23.389
-23.3009
-23.2082
-23.111
-23.0093
-22.9032
-22.7929
-22.6782
-22.5593
-22.4361
-22.6064
-22.6323
-22.6523
-22.6659
-22.6733
-22.6744
-22.6694
-22.6584
-22.6414
-22.6186
-22.5901
-22.5559
-22.5162
-22.4711
-22.4207
-22.3651
-22.3044
-22.2388
-22.1684
-22.0933
-22.0137
-21.9296
-21.8411
-21.7484
-21.6516
-21.5507
-21.4457
-21.3368
-21.2239
-21.107
-21.3228
-21.3471
-21.3656
-21.3781
-21.3846
-21.3851
-21.3797
-21.3686
-21.3518
-21.3294
-21.3015
-21.2682
-21.2297
-21.1859
-21.1371
-21.0834
-21.0249
-20.9616
-20.8938
-20.8215
-20.745
-20.6642
-20.5794
-20.4905
-20.3979
-20.3014
-20.2012
-20.0973
-19.9896
-19.8784
-20.1435
-20.166
-20.1831
-20.1943
-20.1997
-20.1994
-20.1935
-20.182
-20.1651
-20.1428
-20.1153
-20.0826
-20.0448
-20.0021
-19.9545
-19.9022
-19.8453
-19.7839
-19.7182
-19.6483
-19.5743
-19.4964
-19.4146
-19.3291
-19.24
-19.1474
-19.0513
-18.9519
-18.8489
-18.7426
-19.0585
-19.0794
-19.0948
-19.1047
-19.109
-19.1078
-19.1011
-19.0892
-19.072
-19.0497
-19.0223
-18.9899
-18.9526
-18.9106
-18.864
-18.8128
-18.7572
-18.6974
-18.6334
-18.5654
-18.4936
-18.418
-18.3388
-18.2562
-18.1702
-18.081
-17.9886
-17.8931
-17.7944
-17.6925
-18.059
-18.0781
-18.092
-18.1005
-18.1036
-18.1014
-18.0941
-18.0815
-18.064
-18.0414
-18.014
-17.9818
-17.9449
-17.9034
-17.8574
-17.8071
-17.7526
-17.694
-17.6315
-17.5651
-17.4951
-17.4215
-17.3446
-17.2644
-17.1812
-17.0949
-17.0058
-16.9137
-16.8188
-16.7211
-17.1365
-17.154
-17.1664
-17.1736
-17.1755
-17.1724
-17.1642
-17.1511
-17.1331
-17.1102
-17.0827
-17.0505
-17.0138
-16.9727
-16.9273
-16.8777
-16.8241
-16.7665
-16.7051
-16.6401
-16.5717
-16.4998
-16.4248
-16.3468
-16.2659
-16.1823
-16.096
-16.0072
-15.9158
-15.8218
-16.2838
-16.2997
-16.3107
-16.3166
-16.3174
-16.3133
-16.3044
-16.2906
-16.2721
-16.249
-16.2212
-16.1891
-16.1525
-16.1117
-16.0667
-16.0177
-15.9648
-15.908
-15.8477
-15.7839
-15.7167
-15.6463
-15.573
-15.4969
-15.4181
-15.3368
-15.2531
-15.1672
-15.079
-14.9884
-15.4942
-15.5086
-15.5183
-15.5229
-15.5227
-15.5178
-15.508
-15.4937
-15.4747
-15.4512
-15.4233
-15.391
-15.3546
-15.314
-15.2693
-15.2208
-15.1684
-15.1125
-15.053
-14.9901
-14.9241
-14.8551
-14.7832
-14.7087
-14.6317
-14.5525
-14.4712
-14.3879
-14.3027
-14.2155
-14.7619
-14.7749
-14.7832
-14.7868
-14.7856
-14.7798
-14.7693
-14.7544
-14.7349
-14.7111
-14.683
-14.6507
-14.6143
-14.5738
-14.5295
-14.4813
-14.4295
-14.3742
-14.3154
-14.2535
-14.1884
-14.1205
-14.0499
-13.9768
-13.9015
-13.8241
-13.7449
-13.6641
-13.5817
-13.4977
-14.0815
-14.0932
-14.1003
-14.1028
-14.1007
-14.0941
-14.083
-14.0675
-14.0476
-14.0235
-13.9952
-13.9628
-13.9264
-13.8861
-13.842
-13.7942
-13.7429
-13.6881
-13.63
-13.5688
-13.5046
-13.4377
-13.3682
-13.2963
-13.2224
-13.1467
-13.0694
-12.9909
-12.9111
-12.8301
-13.4483
-13.4588
-13.4649
-13.4664
-13.4634
-13.456
-13.4443
-13.4283
-13.4081
-13.3837
-13.3552
-13.3227
-13.2863
-13.2462
-13.2023
-13.1549
-13.1039
-13.0496
-12.9922
-12.9316
-12.8682
-12.8021
-12.7335
-12.6627
-12.59
-12.5157
-12.4402
-12.3637
-12.2864
-12.2085
-12.8581
-12.8675
-12.8726
-12.8732
-12.8695
-12.8614
-12.8491
-12.8326
-12.812
-12.7874
-12.7588
-12.7262
-12.6899
-12.6499
-12.6062
-12.5591
-12.5085
-12.4547
-12.3977
-12.3378
-12.275
-12.2096
-12.1419
-12.072
-12.0003
-11.9272
-11.8531
-11.7784
-11.7035
-11.6286
-12.3072
-12.3156
-12.3197
-12.3195
-12.3151
-12.3064
-12.2936
-12.2767
-12.2558
-12.2309
-12.2022
-12.1696
-12.1333
-12.0934
-12.05
-12.0031
-11.9529
-11.8995
-11.843
-11.7836
-11.7214
-11.6567
-11.5896
-11.5204
-11.4495
-11.3774
-11.3044
-11.2314
-11.1586
-11.0868
-11.7923
-11.7997
-11.803
-11.802
-11.7969
-11.7877
-11.7744
-11.7571
-11.7359
-11.7108
-11.6819
-11.6493
-11.6131
-11.5733
-11.5301
-11.4834
-11.4336
-11.3805
-11.3245
-11.2655
-11.2039
-11.1396
-11.0731
-11.0045
-10.9342
-10.8627
-10.7906
-10.7187
-10.6479
-10.5793
-11.3103
-11.3168
-11.3192
-11.3176
-11.3118
-11.3021
-11.2883
-11.2707
-11.2492
-11.2239
-11.1949
-11.1622
-11.126
-11.0863
-11.0432
-10.9968
-10.9472
-10.8944
-10.8387
-10.7802
-10.7189
-10.655
-10.5888
-10.5205
-10.4505
-10.3793
-10.3076
-10.2365
-10.1669
-10.1013
-10.8585
-10.8643
-10.8661
-10.8639
-10.8577
-10.8475
-10.8335
-10.8156
-10.7939
-10.7685
-10.7394
-10.7068
-10.6706
-10.631
-10.5881
-10.5419
-10.4925
-10.4401
-10.3847
-10.3265
-10.2655
-10.2019
-10.136
-10.0679
-9.99799
-9.92679
-9.85498
-9.78413
-9.71495
-9.65151
-10.4342
-10.4397
-10.4413
-10.4388
-10.4325
-10.4223
-10.4083
-10.3905
-10.3691
-10.3439
-10.3152
-10.283
-10.2473
-10.2083
-10.166
-10.1205
-10.0718
-10.0202
-9.96561
-9.90821
-9.84811
-9.78541
-9.72028
-9.65292
-9.58361
-9.51283
-9.44122
-9.3708
-9.30235
-9.2433
-10.0358
-10.0398
-10.0401
-10.0366
-10.0293
-10.0183
-10.0037
-9.9854
-9.96358
-9.93827
-9.90952
-9.8774
-9.84199
-9.80334
-9.76155
-9.71668
-9.66882
-9.61804
-9.56445
-9.50811
-9.44914
-9.38761
-9.32366
-9.25741
-9.18906
-9.11895
-9.0475
-8.97658
-8.9063
-8.85893
-45.8904
-46.1616
-46.4126
-46.6678
-46.9237
-47.1752
-47.4208
-47.6597
-47.8914
-48.1152
-48.3306
-48.5373
-48.7348
-48.9229
-49.1015
-49.2702
-49.4289
-49.5776
-49.7161
-49.8443
-49.9622
-50.0697
-50.167
-50.2541
-50.3311
-50.3982
-50.456
-50.5053
-50.5479
-50.5865
-41.8702
-42.1561
-42.4272
-42.693
-42.9539
-43.208
-43.4548
-43.6942
-43.9258
-44.1493
-44.3645
-44.5709
-44.7684
-44.9567
-45.1355
-45.3048
-45.4643
-45.614
-45.7537
-45.8833
-46.0028
-46.1123
-46.2116
-46.3008
-46.3801
-46.4496
-46.5095
-46.5602
-46.6018
-46.6336
-38.649
-38.9372
-39.2144
-39.483
-39.7441
-39.9978
-40.2439
-40.4825
-40.7133
-40.936
-41.1505
-41.3565
-41.5538
-41.7422
-41.9214
-42.0914
-42.252
-42.403
-42.5443
-42.6759
-42.7977
-42.9097
-43.0119
-43.1042
-43.1867
-43.2594
-43.3224
-43.3756
-43.4188
-43.4511
-35.8247
-36.1078
-36.3825
-36.6485
-36.9067
-37.1576
-37.4011
-37.6371
-37.8655
-38.0861
-38.2986
-38.503
-38.6989
-38.8863
-39.0648
-39.2345
-39.3952
-39.5466
-39.6888
-39.8217
-39.9451
-40.059
-40.1634
-40.2583
-40.3436
-40.4193
-40.4854
-40.5418
-40.5881
-40.6241
-33.1798
-33.4548
-33.7232
-33.9839
-34.237
-34.4831
-34.7219
-34.9536
-35.1778
-35.3945
-35.6035
-35.8046
-35.9977
-36.1826
-36.359
-36.527
-36.6864
-36.8369
-36.9787
-37.1114
-37.2352
-37.3499
-37.4554
-37.5518
-37.6389
-37.7168
-37.7853
-37.8443
-37.8938
-37.9334
-30.75
-31.0158
-31.276
-31.5293
-31.7756
-32.015
-32.2476
-32.4733
-32.6919
-32.9033
-33.1073
-33.3038
-33.4927
-33.6737
-33.8467
-34.0116
-34.1683
-34.3166
-34.4566
-34.588
-34.7107
-34.8249
-34.9303
-35.0269
-35.1146
-35.1935
-35.2634
-35.3242
-35.3759
-35.4182
-28.5402
-28.7961
-29.0471
-29.2918
-29.53
-29.7617
-29.9869
-30.2055
-30.4174
-30.6224
-30.8204
-31.0112
-31.1947
-31.3707
-31.5392
-31.6999
-31.8528
-31.9978
-32.1347
-32.2636
-32.3842
-32.4966
-32.6007
-32.6964
-32.7836
-32.8624
-32.9325
-32.9941
-33.0469
-33.091
-26.5344
-26.7802
-27.0215
-27.257
-27.4864
-27.7096
-27.9268
-28.1377
-28.3422
-28.5401
-28.7313
-28.9157
-29.0931
-29.2634
-29.4265
-29.5822
-29.7305
-29.8713
-30.0043
-30.1297
-30.2473
-30.3569
-30.4587
-30.5525
-30.6382
-30.7159
-30.7854
-30.8467
-30.8997
-30.9445
-24.7157
-24.9514
-25.1829
-25.4089
-25.6293
-25.8439
-26.0527
-26.2556
-26.4523
-26.6428
-26.8269
-27.0044
-27.1753
-27.3394
-27.4966
-27.6468
-27.7899
-27.9258
-28.0543
-28.1756
-28.2894
-28.3957
-28.4944
-28.5855
-28.669
-28.7447
-28.8127
-28.873
-28.9254
-28.9699
-23.0667
-23.2926
-23.5145
-23.7313
-23.9427
-24.1487
-24.3491
-24.5439
-24.7328
-24.9157
-25.0926
-25.2631
-25.4273
-25.585
-25.7361
-25.8804
-26.018
-26.1487
-26.2724
-26.3891
-26.4987
-26.6011
-26.6963
-26.7842
-26.8649
-26.9382
-27.0041
-27.0626
-27.1136
-27.1573
-21.5705
-21.787
-21.9996
-22.2074
-22.4102
-22.6077
-22.8
-22.9869
-23.1681
-23.3437
-23.5133
-23.6769
-23.8344
-23.9856
-24.1305
-24.269
-24.401
-24.5263
-24.645
-24.7569
-24.862
-24.9603
-25.0517
-25.1361
-25.2136
-25.284
-25.3474
-25.4037
-25.453
-25.4952
-20.2108
-20.4184
-20.6222
-20.8215
-21.016
-21.2055
-21.39
-21.5692
-21.7431
-21.9114
-22.074
-22.2309
-22.3818
-22.5268
-22.6656
-22.7983
-22.9246
-23.0447
-23.1583
-23.2654
-23.366
-23.46
-23.5474
-23.6282
-23.7023
-23.7696
-23.8303
-23.8841
-23.9313
-23.9717
-18.9728
-19.172
-19.3676
-19.5589
-19.7455
-19.9275
-20.1045
-20.2765
-20.4433
-20.6047
-20.7607
-20.9111
-21.0557
-21.1946
-21.3276
-21.4546
-21.5755
-21.6903
-21.799
-21.9014
-21.9975
-22.0873
-22.1707
-22.2478
-22.3184
-22.3826
-22.4403
-22.4916
-22.5364
-22.5748
-17.8431
-18.0345
-18.2224
-18.4062
-18.5855
-18.7603
-18.9304
-19.0956
-19.2557
-19.4106
-19.5603
-19.7045
-19.8432
-19.9762
-20.1036
-20.2252
-20.3409
-20.4507
-20.5545
-20.6524
-20.7441
-20.8298
-20.9093
-20.9827
-21.0499
-21.1109
-21.1657
-21.2144
-21.2567
-21.293
-16.8098
-16.994
-17.1748
-17.3515
-17.524
-17.6922
-17.8557
-18.0145
-18.1684
-18.3173
-18.461
-18.5994
-18.7324
-18.86
-18.982
-19.0985
-19.2092
-19.3143
-19.4135
-19.507
-19.5945
-19.6762
-19.752
-19.8219
-19.8857
-19.9436
-19.9956
-20.0415
-20.0815
-20.1156
-15.8625
-16.0399
-16.2141
-16.3844
-16.5506
-16.7125
-16.87
-17.0229
-17.171
-17.3141
-17.4522
-17.5852
-17.7129
-17.8353
-17.9524
-18.0639
-18.17
-18.2705
-18.3655
-18.4547
-18.5384
-18.6163
-18.6885
-18.7549
-18.8156
-18.8705
-18.9197
-18.963
-19.0007
-19.0326
-14.992
-15.1632
-15.3312
-15.4955
-15.6559
-15.8121
-15.9639
-16.1113
-16.2539
-16.3918
-16.5246
-16.6525
-16.7753
-16.8928
-17.0052
-17.1122
-17.2139
-17.3101
-17.401
-17.4863
-17.5662
-17.6405
-17.7093
-17.7726
-17.8302
-17.8823
-17.9288
-17.9697
-18.005
-18.0349
-14.1902
-14.3556
-14.5179
-14.6768
-14.8317
-14.9827
-15.1293
-15.2715
-15.4091
-15.542
-15.67
-15.7931
-15.9112
-16.0242
-16.1321
-16.2349
-16.3324
-16.4247
-16.5117
-16.5934
-16.6697
-16.7407
-16.8063
-16.8665
-16.9213
-16.9706
-17.0146
-17.0532
-17.0864
-17.1142
-13.4502
-13.6101
-13.7673
-13.921
-14.0711
-14.2171
-14.3589
-14.4963
-14.6292
-14.7574
-14.8809
-14.9995
-15.1133
-15.2221
-15.3258
-15.4246
-15.5182
-15.6068
-15.6902
-15.7684
-15.8415
-15.9093
-15.9719
-16.0292
-16.0813
-16.1281
-16.1697
-16.2061
-16.2372
-16.2632
-12.7657
-12.9206
-13.0729
-13.2221
-13.3675
-13.5091
-13.6464
-13.7794
-13.9079
-14.0317
-14.1509
-14.2654
-14.375
-14.4798
-14.5797
-14.6747
-14.7648
-14.8498
-14.9299
-15.0048
-15.0748
-15.1396
-15.1994
-15.2541
-15.3037
-15.3482
-15.3875
-15.4218
-15.451
-15.4752
-12.1312
-12.2814
-12.4295
-12.5744
-12.7157
-12.8531
-12.9862
-13.1151
-13.2394
-13.3592
-13.4744
-13.5849
-13.6907
-13.7918
-13.888
-13.9795
-14.0662
-14.1479
-14.2248
-14.2968
-14.3638
-14.4259
-14.4831
-14.5353
-14.5825
-14.6247
-14.6621
-14.6944
-14.7218
-14.7444
-11.542
-11.6878
-11.832
-11.9732
-12.1106
-12.2442
-12.3735
-12.4984
-12.6189
-12.7348
-12.8462
-12.953
-13.0552
-13.1528
-13.2456
-13.3338
-13.4172
-13.4959
-13.5699
-13.639
-13.7034
-13.7629
-13.8176
-13.8674
-13.9125
-13.9527
-13.988
-14.0186
-14.0444
-14.0654
-10.9935
-11.1353
-11.2762
-11.4141
-11.5481
-11.678
-11.8037
-11.925
-12.0418
-12.1541
-12.262
-12.3653
-12.4641
-12.5583
-12.6479
-12.733
-12.8135
-12.8893
-12.9604
-13.0269
-13.0887
-13.1459
-13.1983
-13.246
-13.2889
-13.3272
-13.3608
-13.3897
-13.4139
-13.4335
-10.4817
-10.62
-10.7583
-10.8933
-11.0242
-11.1508
-11.2731
-11.3909
-11.5042
-11.6131
-11.7176
-11.8176
-11.9132
-12.0043
-12.0909
-12.1731
-12.2507
-12.3238
-12.3924
-12.4564
-12.5159
-12.5707
-12.621
-12.6667
-12.7078
-12.7442
-12.7762
-12.8035
-12.8262
-12.8445
-10.0031
-10.1384
-10.2751
-10.4077
-10.5357
-10.6592
-10.7782
-10.8927
-11.0028
-11.1084
-11.2096
-11.3065
-11.3991
-11.4872
-11.571
-11.6504
-11.7254
-11.796
-11.8621
-11.9238
-11.981
-12.0338
-12.0821
-12.1259
-12.1652
-12.2
-12.2304
-12.2563
-12.2777
-12.2947
-9.55396
-9.68799
-9.82413
-9.95474
-10.08
-10.2006
-10.3166
-10.4279
-10.5347
-10.6372
-10.7353
-10.8292
-10.9189
-11.0042
-11.0853
-11.1621
-11.2346
-11.3027
-11.3666
-11.4261
-11.4812
-11.532
-11.5784
-11.6204
-11.658
-11.6913
-11.7202
-11.7447
-11.7649
-11.7808
-9.12871
-9.26526
-9.40296
-9.53175
-9.65439
-9.77217
-9.88505
-9.99323
-10.097
-10.1964
-10.2917
-10.3827
-10.4696
-10.5523
-10.6308
-10.7051
-10.7752
-10.8411
-10.9028
-10.9602
-11.0134
-11.0623
-11.1069
-11.1473
-11.1833
-11.2151
-11.2427
-11.2659
-11.285
-11.2998
-8.71511
-8.85981
-9.00302
-9.13076
-9.25101
-9.36621
-9.47632
-9.58169
-9.68268
-9.77946
-9.87211
-9.96067
-10.0451
-10.1255
-10.2018
-10.274
-10.3421
-10.4061
-10.4659
-10.5216
-10.5731
-10.6205
-10.6637
-10.7026
-10.7374
-10.768
-10.7945
-10.8167
-10.8348
-10.8487
-8.30896
-8.46509
-8.61813
-8.74693
-8.86548
-8.97843
-9.08618
-9.18917
-9.28783
-9.38238
-9.47289
-9.55938
-9.64188
-9.72038
-9.79487
-9.86534
-9.93179
-9.9942
-10.0526
-10.1069
-10.1571
-10.2032
-10.2453
-10.2832
-10.3171
-10.3468
-10.3725
-10.394
-10.4115
-10.4249
-7.99
-8.15858
-8.31009
-8.43775
-8.55265
-8.66061
-8.76366
-8.86219
-8.95648
-9.04677
-9.13313
-9.21557
-9.29409
-9.3687
-9.43941
-9.5062
-9.56908
-9.62803
-9.68306
-9.73416
-9.78131
-9.82451
-9.86376
-9.89906
-9.93041
-9.9578
-9.98125
-10.0008
-10.0164
-10.0281
-3.86174
-4.11511
-4.38716
-4.67835
-4.99044
-5.32531
-5.68489
-6.0713
-6.48698
-6.93465
-7.41742
-7.93885
-8.50302
-9.11469
-9.77939
-10.5036
-11.2949
-12.1622
-13.116
-14.1687
-15.3348
-16.6311
-18.0771
-19.6943
-21.5077
-23.5451
-25.8187
-28.3149
-31.271
-35.1025
-4.00218
-4.25933
-4.53369
-4.82761
-5.14279
-5.48096
-5.84405
-6.23424
-6.65398
-7.10604
-7.59356
-8.12012
-8.68988
-9.30762
-9.97892
-10.7103
-11.5094
-12.3853
-13.3485
-14.4113
-15.5885
-16.8968
-18.3557
-19.9866
-21.8144
-23.8664
-26.1544
-28.6631
-31.6261
-35.4543
-4.14362
-4.40456
-4.68126
-4.97797
-5.29632
-5.63786
-6.00453
-6.39856
-6.82244
-7.27896
-7.7713
-8.30308
-8.8785
-9.5024
-10.1804
-10.9191
-11.7261
-12.6107
-13.5833
-14.6565
-15.8448
-17.1652
-18.637
-20.2817
-22.1237
-24.1901
-26.4917
-29.0117
-31.9795
-35.8014
-4.28586
-4.55061
-4.8297
-5.12927
-5.45084
-5.7958
-6.1661
-6.56404
-6.99211
-7.45315
-7.95037
-8.48744
-9.06858
-9.69869
-10.3834
-11.1295
-11.9446
-12.8378
-13.82
-14.9035
-16.1031
-17.4356
-18.9203
-20.5787
-22.4349
-24.5153
-26.8302
-29.3616
-32.3364
-36.1576
-4.42881
-4.69737
-4.97889
-5.28137
-5.60622
-5.95466
-6.32866
-6.73055
-7.16287
-7.62849
-8.13064
-8.67305
-9.25998
-9.89636
-10.5879
-11.3414
-12.1645
-13.0666
-14.0583
-15.1522
-16.363
-17.7077
-19.2054
-20.8774
-22.7476
-24.8421
-27.1703
-29.7134
-32.6967
-36.5206
-4.57236
-4.84472
-5.1287
-5.43416
-5.76236
-6.11433
-6.49209
-6.89798
-7.33461
-7.80485
-8.312
-8.85979
-9.45256
-10.0953
-10.7937
-11.5546
-12.3859
-13.2968
-14.2981
-15.4024
-16.6245
-17.9813
-19.492
-21.1777
-23.062
-25.1705
-27.5121
-30.067
-33.0593
-36.8874
-4.71638
-4.99255
-5.27903
-5.58752
-5.91912
-6.27468
-6.65624
-7.0662
-7.50718
-7.9821
-8.49429
-9.04753
-9.64618
-10.2953
-11.0006
-11.7691
-12.6085
-13.5283
-14.5392
-15.6541
-16.8875
-18.2565
-19.7801
-21.4795
-23.3778
-25.5005
-27.8554
-30.4221
-33.4237
-37.2567
-4.86078
-5.14073
-5.42974
-5.74133
-6.07638
-6.43559
-6.821
-7.23507
-7.68046
-8.16011
-8.67738
-9.23611
-9.8407
-10.4962
-11.2085
-11.9845
-12.8322
-13.7609
-14.7815
-15.9069
-17.1517
-18.5329
-20.0696
-21.7826
-23.695
-25.8317
-28.2001
-30.7786
-33.7895
-37.6281
-5.00545
-5.28916
-5.58073
-5.89546
-6.23403
-6.59693
-6.98624
-7.40447
-7.85431
-8.33873
-8.86114
-9.4254
-10.036
-10.6979
-11.4173
-12.2009
-13.0568
-13.9945
-15.0248
-16.1607
-17.4169
-18.8104
-20.3601
-22.0867
-24.0133
-26.164
-28.5458
-31.1362
-34.1566
-38.0011
-5.1503
-5.43774
-5.73189
-6.04983
-6.39196
-6.75859
-7.15185
-7.57428
-8.02861
-8.51785
-9.04542
-9.61525
-10.2318
-10.9003
-11.6267
-12.4179
-13.2821
-14.2288
-15.2689
-16.4154
-17.683
-19.0887
-20.6514
-22.3918
-24.3324
-26.4971
-28.8923
-31.4947
-34.5245
-38.375
-5.29523
-5.58636
-5.88311
-6.20432
-6.55005
-6.92047
-7.31771
-7.74439
-8.20324
-8.69732
-9.2301
-9.80552
-10.4281
-11.1031
-11.8366
-12.6355
-13.508
-14.4637
-15.5137
-16.6707
-17.9498
-19.3677
-20.9435
-22.6975
-24.6521
-26.8308
-29.2393
-31.8536
-34.8929
-38.7494
-5.44018
-5.73495
-6.03431
-6.35883
-6.70822
-7.08246
-7.48373
-7.91467
-8.37808
-8.87703
-9.41504
-9.99608
-10.6248
-11.3063
-12.0468
-12.8534
-13.7343
-14.6991
-15.7588
-16.9265
-18.217
-19.6472
-21.2359
-23.0036
-24.9722
-27.1648
-29.5866
-32.2127
-35.2613
-39.1239
-5.58506
-5.88342
-6.18541
-6.51329
-6.86638
-7.24447
-7.64978
-8.08503
-8.55301
-9.05686
-9.60011
-10.1868
-10.8215
-11.5097
-12.2573
-13.0716
-13.9608
-14.9346
-16.0042
-17.1825
-18.4844
-19.9269
-21.5286
-23.3098
-25.2924
-27.4989
-29.9338
-32.5715
-35.6295
-39.498
-5.72984
-6.03171
-6.33634
-6.66762
-7.02444
-7.4064
-7.81579
-8.25535
-8.72793
-9.23668
-9.78519
-10.3775
-11.0184
-11.713
-12.4678
-13.2898
-14.1874
-15.1702
-16.2496
-17.4385
-18.7519
-20.2066
-21.8213
-23.616
-25.6124
-27.8327
-30.2807
-32.9299
-35.9971
-39.8714
-5.87446
-6.17977
-6.48703
-6.82175
-7.18233
-7.56819
-7.98165
-8.42554
-8.90272
-9.41638
-9.97014
-10.5681
-11.215
-11.9163
-12.6782
-13.5078
-14.4138
-15.4057
-16.4949
-17.6944
-19.0191
-20.486
-22.1136
-23.9219
-25.932
-28.1659
-30.6268
-33.2875
-36.3636
-40.2437
-6.01891
-6.32758
-6.63745
-6.97563
-7.33999
-7.72974
-8.14729
-8.5955
-9.07727
-9.59583
-10.1548
-10.7584
-11.4114
-12.1193
-12.8882
-13.7256
-14.6398
-15.6408
-16.7398
-17.9499
-19.286
-20.765
-22.4055
-24.2271
-26.2509
-28.4984
-30.9721
-33.644
-36.7289
-40.6147
-6.16322
-6.47513
-6.78759
-7.12923
-7.49736
-7.891
-8.31262
-8.76513
-9.25147
-9.77491
-10.3391
-10.9484
-11.6074
-12.3217
-13.0978
-13.9428
-14.8654
-15.8753
-16.9841
-18.2047
-19.5522
-21.0433
-22.6965
-24.5315
-26.5689
-28.8297
-31.316
-33.999
-37.0925
-40.9838
-6.30741
-6.62243
-6.93742
-7.28253
-7.65441
-8.05191
-8.47755
-8.93433
-9.42521
-9.95348
-10.5229
-11.1377
-11.8027
-12.5236
-13.3067
-14.1594
-15.0902
-16.1091
-17.2276
-18.4587
-19.8175
-21.3206
-22.9866
-24.8347
-26.8856
-29.1596
-31.6584
-34.3522
-37.4542
-41.3509
-6.45156
-6.76953
-7.08696
-7.4355
-7.81108
-8.21238
-8.642
-9.10298
-9.59834
-10.1314
-10.706
-11.3263
-11.9973
-12.7246
-13.5147
-14.375
-15.3141
-16.342
-17.4701
-18.7117
-20.0816
-21.5967
-23.2753
-25.1366
-27.2007
-29.4879
-31.9989
-34.7034
-37.8137
-41.7156
-6.5958
-6.9165
-7.23624
-7.58812
-7.96732
-8.37233
-8.80584
-9.27095
-9.77072
-10.3085
-10.8882
-11.514
-12.1909
-12.9247
-13.7217
-14.5895
-15.5368
-16.5736
-17.7113
-18.9633
-20.3444
-21.8714
-23.5625
-25.4368
-27.5141
-29.8142
-32.3372
-35.0522