/*--------------------------------*- C++ -*----------------------------------*\
  =========                 |
  \\      /  F ield         | OpenFOAM: The Open Source CFD Toolbox
   \\    /   O peration     | Website:  https://openfoam.org
    \\  /    A nd           | Version:  6.0
     \\/     M anipulation  |
\*---------------------------------------------------------------------------*/
FoamFile
{
    version     2.0;
    format      ascii;
    class       volScalarField;
    location    "20.75";
    object      p;
}
// * * * * * * * * * * * * * * * * * * * * * * * * * * * * * * * * * * * * * //

dimensions      [0 2 -2 0 0 0 0];

internalField   nonuniform List<scalar> 
9600
(
-0.389586
-0.382203
-0.37714
-0.37313
-0.369457
-0.366036
-0.36279
-0.359648
-0.356571
-0.353538
-0.350542
-0.347581
-0.34466
-0.341783
-0.338958
-0.336195
-0.333494
-0.33081
-0.328139
-0.326011
-0.395385
-0.387824
-0.38264
-0.378486
-0.37463
-0.370996
-0.367513
-0.364119
-0.36078
-0.357483
-0.354222
-0.351004
-0.347833
-0.344719
-0.341671
-0.338701
-0.335814
-0.332948
-0.330088
-0.327929
-0.402245
-0.394389
-0.388992
-0.384624
-0.380525
-0.376622
-0.372852
-0.369158
-0.365512
-0.361906
-0.358341
-0.354826
-0.351369
-0.347982
-0.344679
-0.341476
-0.338378
-0.335305
-0.332226
-0.33006
-0.410071
-0.401891
-0.396226
-0.391583
-0.38718
-0.382952
-0.378841
-0.374796
-0.370795
-0.366836
-0.362923
-0.359068
-0.355285
-0.351589
-0.347996
-0.344528
-0.341192
-0.337885
-0.334555
-0.332407
-0.418924
-0.410364
-0.404369
-0.39939
-0.394624
-0.390012
-0.385505
-0.381058
-0.376653
-0.372292
-0.367986
-0.363748
-0.359598
-0.355553
-0.351632
-0.347864
-0.344261
-0.340688
-0.337073
-0.334966
-0.428854
-0.419842
-0.413452
-0.408074
-0.402883
-0.397829
-0.392871
-0.387968
-0.383109
-0.378299
-0.373551
-0.368886
-0.364324
-0.359886
-0.355596
-0.351492
-0.347586
-0.343714
-0.339776
-0.337731
-0.439902
-0.43036
-0.423507
-0.417665
-0.411987
-0.406431
-0.400965
-0.395552
-0.390187
-0.384877
-0.379641
-0.3745
-0.36948
-0.364604
-0.359901
-0.355417
-0.351171
-0.34696
-0.342657
-0.340694
-0.452106
-0.44195
-0.434562
-0.428192
-0.421961
-0.415843
-0.409811
-0.403834
-0.39791
-0.392051
-0.386277
-0.380613
-0.375086
-0.369724
-0.36456
-0.35965
-0.35502
-0.350424
-0.345706
-0.343844
-0.465502
-0.454646
-0.446649
-0.43968
-0.432832
-0.426089
-0.419433
-0.412839
-0.406306
-0.399848
-0.393488
-0.387252
-0.381169
-0.37527
-0.369594
-0.364206
-0.359141
-0.354108
-0.348917
-0.347166
-0.480126
-0.468476
-0.459792
-0.452156
-0.444623
-0.437193
-0.429858
-0.422593
-0.415401
-0.408297
-0.401303
-0.394447
-0.387759
-0.381271
-0.375027
-0.369105
-0.363547
-0.358014
-0.352283
-0.350645
-0.496011
-0.483468
-0.474017
-0.465641
-0.457357
-0.449181
-0.44111
-0.433124
-0.425225
-0.41743
-0.409759
-0.402237
-0.394895
-0.387766
-0.380896
-0.374376
-0.368258
-0.36215
-0.355794
-0.354258
-0.513185
-0.499646
-0.489345
-0.480156
-0.471056
-0.462073
-0.453214
-0.444459
-0.435812
-0.427284
-0.418895
-0.410666
-0.402624
-0.3948
-0.387244
-0.380055
-0.373298
-0.366525
-0.359439
-0.35797
-0.53167
-0.517027
-0.50579
-0.495717
-0.485735
-0.475889
-0.466193
-0.456627
-0.447192
-0.437898
-0.428755
-0.419782
-0.410999
-0.402431
-0.394125
-0.386191
-0.378702
-0.37115
-0.363198
-0.361728
-0.551481
-0.53562
-0.523361
-0.512334
-0.501408
-0.490647
-0.480069
-0.469655
-0.459401
-0.449311
-0.43939
-0.429644
-0.420085
-0.410727
-0.401609
-0.392846
-0.384516
-0.376042
-0.367043
-0.365446
-0.57262
-0.555424
-0.542058
-0.530008
-0.518081
-0.506356
-0.494859
-0.483567
-0.472471
-0.461567
-0.45085
-0.440315
-0.429956
-0.419772
-0.409785
-0.400102
-0.3908
-0.381218
-0.370915
-0.368972
-0.595076
-0.576426
-0.561868
-0.548732
-0.535752
-0.523023
-0.510575
-0.498383
-0.48643
-0.474705
-0.463191
-0.451865
-0.440703
-0.429676
-0.418776
-0.408088
-0.397665
-0.386731
-0.374752
-0.372084
-0.618825
-0.598596
-0.582765
-0.568486
-0.554407
-0.540641
-0.52722
-0.514114
-0.501303
-0.488765
-0.47647
-0.464378
-0.452439
-0.44059
-0.428778
-0.417041
-0.405378
-0.392846
-0.3787
-0.374657
-0.643849
-0.62189
-0.604707
-0.589236
-0.574023
-0.559193
-0.544785
-0.530763
-0.517103
-0.503775
-0.490738
-0.477935
-0.465289
-0.452694
-0.440034
-0.427274
-0.414325
-0.399954
-0.382818
-0.375982
-0.670132
-0.646244
-0.627626
-0.610926
-0.594555
-0.578647
-0.563246
-0.548316
-0.533828
-0.519752
-0.50604
-0.492623
-0.479399
-0.466212
-0.452853
-0.439139
-0.424729
-0.407651
-0.385006
-0.371495
-0.697297
-0.671469
-0.651423
-0.633487
-0.615947
-0.598954
-0.58256
-0.566732
-0.551447
-0.536679
-0.522392
-0.508532
-0.49501
-0.481678
-0.468305
-0.454592
-0.439808
-0.420968
-0.393105
-0.370222
-1.17204
-1.16659
-1.15738
-1.14495
-1.12955
-1.11143
-1.09088
-1.06817
-1.04361
-1.01746
-0.990018
-0.96154
-0.932284
-0.902493
-0.87239
-0.842187
-0.812075
-0.782216
-0.75274
-0.724041
-1.12152
-1.11613
-1.10725
-1.09528
-1.08048
-1.06311
-1.04345
-1.02178
-0.998384
-0.97353
-0.947483
-0.920499
-0.892821
-0.86468
-0.83629
-0.807855
-0.779562
-0.751583
-0.72408
-0.697286
-1.07937
-1.07432
-1.06596
-1.0546
-1.0405
-1.02393
-1.00517
-0.984481
-0.962146
-0.938427
-0.913583
-0.887861
-0.861498
-0.834717
-0.807727
-0.780724
-0.753888
-0.727387
-0.701381
-0.676029
-1.03942
-1.03501
-1.02739
-1.01684
-1.00362
-0.987993
-0.970222
-0.950578
-0.929329
-0.906736
-0.883055
-0.858528
-0.833388
-0.807854
-0.782132
-0.756411
-0.730868
-0.705663
-0.680948
-0.65686
-0.99887
-0.995337
-0.988674
-0.979142
-0.966982
-0.952447
-0.935802
-0.917309
-0.897232
-0.875829
-0.85335
-0.830035
-0.806116
-0.781808
-0.757314
-0.732824
-0.70851
-0.684529
-0.661027
-0.638132
-0.958271
-0.955804
-0.950271
-0.941912
-0.930955
-0.917646
-0.90224
-0.884992
-0.866161
-0.845999
-0.824754
-0.802663
-0.779955
-0.756845
-0.733534
-0.710212
-0.68705
-0.664208
-0.641826
-0.620036
-0.918001
-0.916723
-0.912437
-0.905364
-0.895718
-0.883734
-0.869655
-0.853728
-0.836204
-0.81733
-0.797348
-0.776493
-0.754988
-0.733049
-0.710877
-0.688661
-0.666576
-0.644782
-0.623425
-0.60264
-0.878275
-0.878247
-0.875273
-0.869552
-0.861286
-0.850694
-0.838006
-0.823459
-0.807294
-0.789749
-0.771059
-0.751453
-0.731152
-0.710368
-0.6893
-0.668138
-0.647058
-0.626228
-0.605799
-0.585916
-0.839322
-0.840553
-0.838907
-0.834563
-0.827708
-0.818542
-0.807284
-0.794156
-0.779386
-0.763203
-0.745832
-0.727495
-0.708405
-0.688767
-0.668778
-0.648626
-0.628489
-0.60854
-0.588939
-0.569848
-0.801364
-0.803818
-0.803476
-0.800497
-0.795047
-0.787314
-0.777498
-0.765807
-0.752455
-0.737659
-0.721631
-0.704581
-0.686713
-0.668224
-0.649301
-0.630126
-0.610876
-0.591727
-0.572853
-0.554431
-0.764586
-0.768197
-0.769103
-0.767442
-0.763366
-0.757043
-0.748658
-0.738403
-0.726477
-0.713081
-0.698414
-0.682673
-0.666047
-0.648717
-0.630859
-0.612642
-0.594234
-0.57581
-0.557551
-0.539656
-0.729134
-0.733813
-0.735887
-0.735476
-0.732716
-0.727759
-0.720772
-0.711933
-0.701425
-0.689433
-0.676141
-0.66173
-0.64637
-0.630225
-0.613448
-0.596187
-0.578592
-0.560821
-0.543062
-0.525522
-0.695117
-0.700761
-0.703907
-0.704659
-0.703139
-0.699483
-0.693845
-0.686386
-0.677273
-0.666678
-0.654768
-0.641706
-0.627644
-0.612721
-0.597061
-0.580781
-0.563992
-0.54682
-0.529436
-0.512038
-0.662606
-0.669104
-0.673217
-0.675034
-0.674665
-0.672233
-0.667877
-0.661746
-0.653994
-0.644778
-0.63425
-0.622556
-0.609828
-0.596178
-0.581696
-0.566453
-0.5505
-0.533899
-0.516769
-0.499237
-0.63164
-0.638881
-0.64385
-0.646628
-0.647312
-0.646015
-0.642864
-0.637997
-0.631557
-0.623689
-0.614535
-0.604224
-0.592871
-0.58056
-0.567345
-0.553237
-0.538209
-0.522203
-0.505236
-0.487224
-0.602231
-0.610103
-0.615817
-0.619445
-0.621076
-0.620814
-0.618779
-0.615098
-0.609907
-0.603343
-0.595539
-0.586616
-0.576674
-0.565776
-0.553941
-0.54112
-0.527178
-0.511886
-0.495082
-0.476235
-0.574375
-0.58277
-0.589118
-0.593484
-0.595952
-0.596619
-0.595597
-0.593009
-0.588986
-0.583659
-0.57716
-0.569606
-0.561092
-0.551671
-0.541338
-0.529993
-0.517383
-0.503046
-0.486556
-0.466534
-0.548044
-0.556893
-0.563802
-0.56883
-0.572055
-0.57357
-0.573483
-0.571915
-0.568994
-0.564853
-0.559624
-0.55343
-0.54637
-0.538503
-0.529822
-0.520204
-0.509297
-0.496356
-0.480491
-0.458371
-0.523153
-0.532436
-0.539881
-0.545547
-0.54951
-0.551861
-0.552709
-0.552174
-0.550388
-0.547489
-0.543617
-0.538906
-0.533472
-0.527397
-0.520702
-0.513303
-0.504854
-0.494414
-0.480427
-0.45486
-0.499598
-0.508936
-0.516554
-0.522508
-0.526873
-0.529742
-0.531224
-0.531444
-0.530541
-0.528665
-0.525975
-0.522631
-0.518786
-0.514578
-0.510118
-0.505477
-0.50055
-0.49474
-0.487538
-0.467231
-0.410922
-0.481639
-0.550075
-0.616417
-0.680258
-0.741215
-0.798965
-0.853216
-0.903705
-0.950203
-0.992516
-1.03049
-1.06401
-1.093
-1.11742
-1.13727
-1.15261
-1.16348
-1.16999
-1.17249
-0.396005
-0.464064
-0.530032
-0.593833
-0.655115
-0.713546
-0.768829
-0.820694
-0.868895
-0.913221
-0.953492
-0.989567
-1.02134
-1.04876
-1.07178
-1.09042
-1.10474
-1.11483
-1.12078
-1.12286
-0.373872
-0.43987
-0.503965
-0.565941
-0.625468
-0.682232
-0.735945
-0.786346
-0.833195
-0.876286
-0.915446
-0.950538
-0.98146
-1.00815
-1.03059
-1.04878
-1.06279
-1.07269
-1.0786
-1.08071
-0.345774
-0.40989
-0.47228
-0.532673
-0.590746
-0.646189
-0.698719
-0.748076
-0.794023
-0.836354
-0.874894
-0.909505
-0.940083
-0.966561
-0.988911
-1.00714
-1.0213
-1.03146
-1.03774
-1.04028
-0.313871
-0.376042
-0.436667
-0.495453
-0.552081
-0.606246
-0.657669
-0.706088
-0.751269
-0.793004
-0.831115
-0.865458
-0.895924
-0.922439
-0.944966
-0.963504
-0.978089
-0.988789
-0.995698
-0.99896
-0.280268
-0.340424
-0.399215
-0.45634
-0.511486
-0.564358
-0.614678
-0.662187
-0.706649
-0.747855
-0.785624
-0.819806
-0.850285
-0.876979
-0.89984
-0.918856
-0.934048
-0.945473
-0.953211
-0.957388
-0.246571
-0.304653
-0.361543
-0.416943
-0.470553
-0.522083
-0.571262
-0.617832
-0.661559
-0.702232
-0.739667
-0.77371
-0.804239
-0.831161
-0.85442
-0.873989
-0.889878
-0.902128
-0.910806
-0.916018
-0.213912
-0.269875
-0.324809
-0.378426
-0.430439
-0.480568
-0.528544
-0.574115
-0.617049
-0.657135
-0.694188
-0.728051
-0.758596
-0.785724
-0.809368
-0.829491
-0.846089
-0.859188
-0.86884
-0.875134
-0.183024
-0.236848
-0.289795
-0.341591
-0.391961
-0.440633
-0.487346
-0.531851
-0.573919
-0.613341
-0.649935
-0.683541
-0.714027
-0.741291
-0.765258
-0.78588
-0.803141
-0.817055
-0.827659
-0.835023
-0.154326
-0.206017
-0.256973
-0.306936
-0.35564
-0.402821
-0.448222
-0.4916
-0.532731
-0.571411
-0.607457
-0.640714
-0.671049
-0.698354
-0.72255
-0.743583
-0.761426
-0.77608
-0.78757
-0.795949
-0.128008
-0.177592
-0.22658
-0.274723
-0.321762
-0.367439
-0.411499
-0.453706
-0.493841
-0.531705
-0.567122
-0.599937
-0.630021
-0.657264
-0.681585
-0.702922
-0.721243
-0.736538
-0.74882
-0.75813
-0.104096
-0.151613
-0.198679
-0.245041
-0.29044
-0.334621
-0.377332
-0.418341
-0.457437
-0.494427
-0.529141
-0.561432
-0.59117
-0.61825
-0.642588
-0.66412
-0.682807
-0.698631
-0.711597
-0.721733
-0.0825093
-0.128008
-0.173215
-0.217855
-0.261661
-0.304374
-0.345746
-0.385549
-0.423579
-0.459653
-0.493608
-0.525303
-0.554614
-0.581439
-0.605693
-0.627312
-0.646253
-0.662493
-0.676029
-0.686878
-0.0630995
-0.106622
-0.150055
-0.193051
-0.235326
-0.276617
-0.316676
-0.35528
-0.392234
-0.427365
-0.46052
-0.491565
-0.520382
-0.546873
-0.570955
-0.592564
-0.611655
-0.6282
-0.642192
-0.653641
-0.0456759
-0.0872645
-0.129028
-0.170475
-0.211296
-0.251223
-0.290007
-0.327432
-0.363314
-0.397491
-0.429821
-0.460176
-0.488446
-0.514538
-0.538372
-0.559886
-0.579032
-0.595782
-0.610123
-0.62206
-0.0300155
-0.069767
-0.110009
-0.150012
-0.189462
-0.228089
-0.26564
-0.301912
-0.336733
-0.369953
-0.40144
-0.431076
-0.458759
-0.484398
-0.507919
-0.529261
-0.548377
-0.565238
-0.579827
-0.592147
-0.0158252
-0.053882
-0.0928053
-0.131481
-0.169642
-0.207033
-0.243399
-0.278549
-0.312328
-0.344599
-0.37524
-0.404143
-0.431211
-0.45636
-0.479519
-0.500628
-0.519644
-0.536534
-0.551282
-0.563887
-0.00248411
-0.0386123
-0.0764309
-0.113949
-0.15096
-0.187228
-0.222505
-0.256618
-0.28943
-0.320816
-0.350665
-0.378877
-0.405362
-0.43004
-0.452843
-0.473716
-0.492613
-0.509504
-0.524371
-0.537211
0.0110558
-0.022663
-0.0597229
-0.0964324
-0.13259
-0.167963
-0.202332
-0.235562
-0.267538
-0.298152
-0.327305
-0.354905
-0.38087
-0.405127
-0.427611
-0.44827
-0.467061
-0.483955
-0.498934
-0.511995
0.0218286
-0.0125255
-0.0497531
-0.0857947
-0.121096
-0.155478
-0.188748
-0.220842
-0.25169
-0.281206
-0.309308
-0.33592
-0.360971
-0.3844
-0.406152
-0.42618
-0.444449
-0.460933
-0.475618
-0.488501
0.543773
0.554284
0.565165
0.576319
0.587723
0.599351
0.611152
0.623063
0.635008
0.646898
0.658638
0.670138
0.681329
0.692198
0.702845
0.713561
0.724791
0.737204
0.754114
0.781115
0.532336
0.542247
0.552704
0.563383
0.57425
0.585293
0.596461
0.607681
0.618869
0.629929
0.640759
0.651261
0.661361
0.671045
0.680422
0.689806
0.699684
0.710807
0.726618
0.752928
0.518986
0.528152
0.538094
0.548203
0.558423
0.568764
0.579173
0.589568
0.599857
0.609936
0.619696
0.629032
0.637868
0.646194
0.654129
0.662016
0.670395
0.680102
0.694711
0.720195
0.503754
0.512032
0.521372
0.530816
0.540283
0.549807
0.559335
0.568774
0.578025
0.586975
0.595509
0.603517
0.610923
0.617721
0.624049
0.63028
0.637011
0.645169
0.658423
0.682838
0.486675
0.493931
0.502585
0.511272
0.51988
0.528476
0.537004
0.54536
0.553437
0.561116
0.568274
0.574798
0.580613
0.585722
0.590282
0.594704
0.599646
0.606125
0.617886
0.64103
0.467792
0.4739
0.481787
0.489629
0.497278
0.504838
0.51225
0.519403
0.526177
0.532447
0.538085
0.542976
0.547047
0.550314
0.552957
0.555426
0.558444
0.563124
0.573266
0.594966
0.447153
0.451996
0.459043
0.465953
0.472548
0.478969
0.485158
0.490992
0.49634
0.501072
0.505055
0.508173
0.510357
0.511639
0.512224
0.512608
0.51358
0.51635
0.524759
0.544852
0.424809
0.428282
0.434421
0.440321
0.445771
0.450957
0.455822
0.460228
0.464037
0.46711
0.469313
0.470527
0.470694
0.469859
0.468261
0.466439
0.465256
0.466018
0.472588
0.490923
0.400815
0.402827
0.407999
0.412814
0.417036
0.420899
0.424347
0.427227
0.429391
0.430697
0.431004
0.430198
0.428229
0.425161
0.421267
0.417135
0.413702
0.412368
0.417005
0.433439
0.375226
0.375703
0.379857
0.383521
0.38644
0.388903
0.39085
0.392115
0.392541
0.39198
0.39029
0.387361
0.383151
0.37775
0.371464
0.364933
0.359169
0.355669
0.358288
0.372688
0.3481
0.346985
0.350082
0.352538
0.354091
0.355085
0.355459
0.355032
0.353638
0.351126
0.347351
0.342208
0.335671
0.327851
0.319094
0.310094
0.301935
0.29621
0.296741
0.308981
0.319492
0.316751
0.318765
0.319968
0.320102
0.319572
0.318314
0.31613
0.312849
0.308313
0.302381
0.294952
0.286015
0.275709
0.264421
0.252897
0.242298
0.234306
0.232688
0.242653
0.289462
0.285084
0.286005
0.285923
0.284599
0.282504
0.279567
0.275576
0.270353
0.263738
0.255589
0.245817
0.234428
0.221588
0.207727
0.193645
0.180576
0.170289
0.166476
0.174062
0.25807
0.252074
0.25191
0.250526
0.247722
0.244035
0.239387
0.233553
0.226347
0.21761
0.207204
0.195049
0.18117
0.165767
0.14931
0.132655
0.117105
0.104511
0.0984668
0.103581
0.225384
0.217823
0.216603
0.213919
0.209629
0.204339
0.197962
0.19026
0.181045
0.170158
0.157467
0.142905
0.126519
0.108541
0.0894843
0.0702597
0.0522361
0.0373368
0.0290404
0.0316045
0.19147
0.182446
0.180229
0.176271
0.170507
0.163615
0.155502
0.14592
0.134679
0.121625
0.106635
0.0896574
0.0707627
0.0502168
0.0285771
0.00680456
-0.0136695
-0.0308562
-0.0414137
-0.0414629
0.156408
0.146078
0.14297
0.137788
0.130577
0.122095
0.112244
0.100773
0.0874966
0.0722686
0.0549784
0.035591
0.0142027
-0.00888598
-0.033075
-0.0573556
-0.0802404
-0.0996847
-0.1125
-0.115205
0.120362
0.108997
0.105159
0.0987912
0.0901374
0.080059
0.0684595
0.0550855
0.0397637
0.0223596
0.00277637
-0.0190019
-0.0428526
-0.0684411
-0.0951265
-0.121857
-0.147097
-0.168756
-0.183811
-0.189179
0.0827461
0.0712726
0.0671588
0.0596595
0.0495338
0.0378231
0.0244368
0.00913126
-0.00825034
-0.0278294
-0.0496884
-0.0738242
-0.100088
-0.128113
-0.157221
-0.186323
-0.213844
-0.23766
-0.254922
-0.26292
0.0418657
0.0324191
0.0286651
0.0203287
0.00892216
-0.00438064
-0.0195802
-0.0368437
-0.0562941
-0.0780373
-0.102142
-0.128585
-0.157195
-0.187575
-0.219014
-0.250397
-0.280124
-0.306059
-0.32559
-0.336422
0.374138
0.376304
0.384974
0.391028
0.395209
0.398725
0.401849
0.40465
0.407232
0.409728
0.412297
0.41514
0.418507
0.422699
0.428038
0.43481
0.443153
0.452845
0.462857
0.470436
0.404094
0.404056
0.410757
0.416472
0.421069
0.425325
0.429367
0.433188
0.436847
0.440447
0.444124
0.448063
0.4525
0.457726
0.464061
0.471807
0.481125
0.491846
0.503253
0.513238
0.428662
0.428677
0.434865
0.44083
0.446068
0.451112
0.456051
0.460857
0.465561
0.470242
0.475016
0.480047
0.485554
0.491814
0.49914
0.507844
0.518111
0.52982
0.54257
0.554863
0.450172
0.45113
0.457559
0.464023
0.469967
0.475816
0.481644
0.487415
0.493143
0.498887
0.504744
0.510858
0.51743
0.524718
0.533028
0.542676
0.553864
0.566515
0.580515
0.594907
0.46981
0.471891
0.478791
0.485852
0.492537
0.499206
0.50592
0.512642
0.519374
0.52616
0.533079
0.540257
0.547875
0.556172
0.565441
0.576
0.588066
0.601598
0.616756
0.633105
0.487701
0.490944
0.498413
0.506131
0.513588
0.521086
0.528682
0.536338
0.54405
0.55185
0.559803
0.568015
0.576648
0.58592
0.596111
0.607535
0.62042
0.634763
0.650986
0.66917
0.503909
0.508308
0.516377
0.524766
0.532993
0.541311
0.549768
0.55833
0.566989
0.575765
0.58471
0.593914
0.603517
0.613718
0.62478
0.63701
0.650646
0.665717
0.682906
0.7028
0.518454
0.523971
0.532636
0.541679
0.550651
0.559757
0.569039
0.578466
0.588024
0.597725
0.607609
0.617747
0.628261
0.63933
0.651195
0.66416
0.678466
0.694177
0.712224
0.733698
0.531322
0.5379
0.547137
0.556795
0.566469
0.576316
0.586372
0.596606
0.607002
0.617564
0.628317
0.639319
0.650671
0.662529
0.675119
0.688733
0.703618
0.719869
0.738661
0.761576
0.542487
0.550054
0.559823
0.570046
0.580362
0.590889
0.601652
0.612624
0.623783
0.635127
0.646668
0.658448
0.670549
0.683106
0.696325
0.71049
0.72585
0.742533
0.76195
0.78616
0.551917
0.560384
0.570635
0.58136
0.59225
0.603382
0.614776
0.626403
0.638239
0.650273
0.662506
0.674964
0.687711
0.700861
0.714602
0.729205
0.744926
0.761926
0.781841
0.807192
0.559575
0.568842
0.579515
0.590672
0.602056
0.613712
0.625648
0.637838
0.650252
0.662872
0.675689
0.688713
0.70199
0.715614
0.729753
0.744672
0.760629
0.777821
0.798102
0.824435
0.565425
0.575379
0.586406
0.597921
0.609712
0.621799
0.634181
0.646831
0.659716
0.672808
0.686088
0.699554
0.713231
0.727196
0.741601
0.7567
0.772759
0.790012
0.810522
0.837672
0.569431
0.57995
0.591258
0.603047
0.615154
0.627573
0.640298
0.653297
0.666535
0.679976
0.69359
0.707361
0.721299
0.735462
0.749986
0.76512
0.781138
0.798315
0.818913
0.846712
0.571561
0.582513
0.594024
0.606001
0.618325
0.630973
0.643929
0.65716
0.670626
0.684284
0.698093
0.712025
0.726073
0.74028
0.754768
0.769783
0.78561
0.802568
0.82311
0.851386
0.571785
0.583034
0.594663
0.606739
0.619179
0.631946
0.645018
0.658358
0.671921
0.685656
0.699514
0.713453
0.727454
0.741542
0.755831
0.770564
0.786043
0.802635
0.822975
0.851557
0.570081
0.581482
0.593143
0.605226
0.617676
0.63045
0.643518
0.656839
0.670362
0.684031
0.697785
0.711571
0.725358
0.739159
0.753077
0.76736
0.78233
0.798405
0.818395
0.847114
0.566433
0.577838
0.589442
0.601436
0.61379
0.626455
0.639395
0.652565
0.665909
0.679362
0.692855
0.706323
0.719725
0.733062
0.746434
0.760093
0.774386
0.789792
0.809286
0.837987
0.56083
0.57209
0.583544
0.595355
0.607502
0.61994
0.632627
0.645512
0.658534
0.671619
0.684689
0.697671
0.710511
0.723205
0.735849
0.748707
0.762153
0.776733
0.795591
0.824144
0.553273
0.564234
0.575447
0.586977
0.598808
0.6109
0.623206
0.635672
0.648226
0.660789
0.673275
0.685599
0.697701
0.709571
0.721306
0.733181
0.745606
0.759193
0.777232
0.805407
0.361422
0.34319
0.318929
0.293573
0.267688
0.241617
0.215613
0.189772
0.164173
0.138897
0.114023
0.0896212
0.0657574
0.0424911
0.0198753
-0.0020444
-0.0232303
-0.0436535
-0.0632939
-0.0821398
0.361362
0.342704
0.319048
0.293654
0.267557
0.241141
0.214653
0.188253
0.162062
0.136185
0.110714
0.085731
0.0613127
0.0375263
0.0144315
-0.00792042
-0.0294874
-0.0502367
-0.070145
-0.089197
0.364679
0.342741
0.31797
0.291958
0.265317
0.238333
0.211253
0.18426
0.157496
0.131077
0.105107
0.0796777
0.0548698
0.0307564
0.00740098
-0.0151425
-0.0368296
-0.0576265
-0.077509
-0.0964611
0.367739
0.343559
0.317686
0.290867
0.263486
0.235793
0.208024
0.180369
0.152977
0.125978
0.0994814
0.0735866
0.0483803
0.0239389
0.000328327
-0.0223959
-0.0441893
-0.0650183
-0.08486
-0.103701
0.370126
0.344396
0.317493
0.289799
0.261612
0.233165
0.20468
0.176346
0.14832
0.120738
0.0937186
0.0673674
0.0417755
0.0170229
-0.00682265
-0.0297049
-0.0515796
-0.072415
-0.0921902
-0.110895
0.372181
0.345069
0.317088
0.288459
0.259422
0.230192
0.200977
0.171963
0.143312
0.115167
0.0876507
0.0608747
0.0349341
0.00991138
-0.0141245
-0.0371175
-0.0590249
-0.0798175
-0.0994778
-0.118
0.37398
0.345567
0.31648
0.286875
0.256955
0.226919
0.196964
0.167274
0.138012
0.109325
0.0813424
0.0541778
0.0279296
0.00268145
-0.0214977
-0.0445532
-0.0664452
-0.0871485
-0.10665
-0.12495
0.375541
0.3459
0.315711
0.285112
0.25429
0.223436
0.192739
0.16238
0.132526
0.103324
0.0749075
0.0473919
0.0208771
-0.0045535
-0.0288322
-0.0519073
-0.0737431
-0.0943196
-0.113629
-0.13168
0.376932
0.346116
0.314837
0.283243
0.251516
0.219842
0.188411
0.157399
0.126975
0.0972879
0.0684714
0.0406422
0.0138998
-0.0116741
-0.0360146
-0.0590742
-0.0808229
-0.101247
-0.120346
-0.138137
0.378264
0.346311
0.313964
0.281384
0.248758
0.216276
0.184124
0.15248
0.121512
0.0913688
0.0621846
0.0340751
0.00713769
-0.0185488
-0.042924
-0.0659461
-0.0875915
-0.107854
-0.126741
-0.144278
0.37969
0.346635
0.313247
0.279701
0.246194
0.21292
0.180066
0.147812
0.116323
0.0857496
0.0562227
0.0278563
0.000744266
-0.025039
-0.0494389
-0.0724201
-0.0939667
-0.114081
-0.132776
-0.15009
0.381414
0.347293
0.312896
0.27841
0.244045
0.209999
0.176463
0.143616
0.111624
0.0806336
0.0507751
0.0221582
-0.00512779
-0.031014
-0.0554523
-0.0784147
-0.0998931
-0.119897
-0.138449
-0.155596
0.383692
0.348543
0.313172
0.277775
0.242573
0.207772
0.173566
0.140133
0.107638
0.0762266
0.046025
0.0171387
-0.0103483
-0.0363731
-0.0608944
-0.0838915
-0.105364
-0.125329
-0.143813
-0.160876
0.386825
0.350685
0.314371
0.278085
0.24206
0.206508
0.171625
0.137591
0.10457
0.0727035
0.0421155
0.0129065
-0.0148445
-0.0410808
-0.065767
-0.0888891
-0.110453
-0.130482
-0.149008
-0.166099
0.391129
0.354025
0.316784
0.279613
0.242755
0.206429
0.170834
0.136151
0.102541
0.0701466
0.0390864
0.00945793
-0.0186644
-0.0452284
-0.0702038
-0.0935813
-0.115372
-0.135602
-0.154306
-0.171562
0.396871
0.358802
0.32062
0.282531
0.244793
0.207629
0.171241
0.135812
0.101503
0.0684542
0.0367846
0.00658859
-0.0220616
-0.0491167
-0.074549
-0.0983519
-0.120539
-0.141138
-0.160182
-0.177757
0.404157
0.365087
0.325906
0.286824
0.24811
0.209995
0.172683
0.13636
0.101189
0.0673114
0.0348464
0.00388932
-0.0254876
-0.0532348
-0.0793246
-0.10375
-0.126525
-0.147675
-0.167232
-0.185281
0.412735
0.372571
0.332276
0.292069
0.252231
0.213
0.174583
0.137171
0.100932
0.0660097
0.0325281
0.000586197
-0.0297401
-0.0583979
-0.0853565
-0.110606
-0.134157
-0.156033
-0.176261
-0.194922
0.421433
0.379784
0.337964
0.296238
0.254882
0.214137
0.174216
0.135317
0.0976152
0.0612645
0.0263961
-0.00688245
-0.0384872
-0.0683581
-0.0964585
-0.122774
-0.147311
-0.170095
-0.191157
-0.21055
0.427394
0.383298
0.339025
0.294943
0.251275
0.208248
0.166083
0.12499
0.085156
0.0467508
0.00991955
-0.0252161
-0.0585596
-0.09004
-0.119612
-0.147258
-0.172984
-0.196834
-0.218884
-0.239114
-0.100208
-0.117484
-0.133996
-0.149779
-0.164869
-0.179313
-0.193164
-0.206479
-0.219316
-0.231734
-0.24379
-0.255539
-0.267038
-0.278346
-0.28953
-0.300673
-0.311688
-0.32216
-0.332081
-0.327801
-0.107413
-0.124766
-0.141287
-0.157005
-0.171955
-0.186178
-0.199722
-0.212636
-0.224973
-0.236782
-0.248111
-0.259005
-0.269501
-0.279624
-0.289373
-0.298684
-0.307249
-0.314259
-0.318346
-0.309909
-0.114509
-0.131616
-0.147821
-0.163153
-0.177648
-0.19135
-0.204308
-0.216574
-0.228203
-0.239247
-0.249753
-0.259765
-0.269309
-0.278392
-0.286971
-0.294911
-0.301839
-0.307021
-0.309491
-0.304578
-0.121575
-0.138439
-0.154339
-0.16931
-0.183392
-0.196632
-0.209083
-0.220802
-0.231845
-0.242269
-0.25212
-0.26144
-0.270251
-0.27855
-0.286281
-0.293301
-0.299287
-0.303687
-0.30584
-0.303357
-0.128574
-0.145176
-0.160758
-0.175362
-0.18903
-0.201816
-0.213778
-0.224976
-0.235471
-0.245322
-0.25458
-0.263285
-0.271461
-0.279103
-0.286161
-0.292514
-0.297912
-0.301965
-0.304199
-0.303333
-0.135441
-0.151743
-0.166974
-0.181182
-0.194418
-0.206739
-0.218209
-0.228895
-0.238863
-0.248174
-0.256884
-0.265038
-0.272662
-0.279759
-0.286292
-0.292168
-0.297208
-0.301147
-0.303669
-0.304119
-0.14212
-0.158092
-0.172951
-0.186753
-0.199552
-0.211415
-0.222412
-0.232614
-0.242092
-0.250915
-0.259142
-0.266822
-0.273989
-0.280654
-0.286794
-0.292346
-0.297187
-0.30114
-0.304001
-0.305455
-0.14856
-0.164192
-0.178676
-0.192076
-0.204455
-0.215884
-0.226442
-0.236204
-0.245247
-0.253643
-0.261459
-0.268747
-0.275548
-0.281879
-0.287735
-0.293072
-0.297807
-0.301822
-0.304985
-0.307145
-0.154724
-0.170021
-0.184142
-0.197164
-0.209154
-0.220191
-0.230357
-0.239734
-0.248405
-0.256444
-0.263922
-0.270896
-0.277411
-0.283491
-0.28914
-0.294332
-0.299009
-0.30309
-0.306484
-0.309119
-0.16059
-0.175576
-0.189369
-0.202053
-0.213702
-0.224401
-0.234237
-0.243296
-0.251663
-0.259417
-0.26663
-0.273362
-0.279659
-0.285553
-0.291051
-0.296138
-0.300775
-0.304901
-0.308451
-0.311389
-0.166166
-0.180887
-0.194404
-0.20681
-0.218185
-0.228616
-0.238193
-0.247008
-0.255145
-0.262686
-0.269702
-0.276255
-0.282394
-0.288149
-0.293533
-0.298536
-0.303129
-0.307268
-0.310901
-0.314008
-0.1715
-0.186025
-0.199341
-0.211548
-0.222728
-0.232972
-0.242373
-0.251022
-0.259005
-0.266403
-0.273287
-0.279718
-0.285743
-0.291393
-0.296683
-0.301606
-0.306141
-0.310252
-0.313899
-0.317071
-0.176699
-0.19112
-0.204329
-0.216432
-0.227512
-0.23766
-0.246972
-0.255536
-0.26344
-0.270761
-0.277569
-0.283924
-0.289869
-0.295437
-0.300639
-0.305474
-0.309926
-0.313965
-0.317561
-0.320709
-0.181955
-0.196385
-0.209598
-0.221705
-0.232787
-0.242936
-0.252247
-0.260807
-0.268701
-0.276005
-0.282785
-0.289097
-0.294986
-0.300479
-0.30559
-0.310319
-0.314654
-0.318575
-0.322056
-0.325099
-0.187587
-0.202155
-0.215495
-0.227719
-0.23891
-0.249156
-0.25855
-0.267179
-0.275124
-0.282457
-0.289244
-0.295537
-0.301377
-0.306791
-0.311795
-0.31639
-0.320568
-0.324317
-0.327616
-0.330476
-0.194097
-0.208939
-0.22253
-0.234985
-0.246383
-0.256812
-0.266361
-0.275116
-0.283156
-0.29055
-0.29736
-0.303638
-0.309422
-0.314739
-0.319605
-0.324025
-0.327997
-0.331512
-0.334556
-0.337148
-0.202078
-0.217321
-0.231277
-0.24406
-0.255746
-0.266421
-0.276174
-0.285089
-0.293243
-0.300706
-0.307536
-0.313783
-0.319485
-0.32467
-0.329355
-0.333548
-0.337253
-0.340466
-0.343178
-0.345407
-0.212277
-0.228019
-0.242421
-0.255593
-0.267608
-0.278554
-0.288521
-0.297592
-0.305846
-0.313351
-0.320166
-0.326341
-0.331913
-0.336912
-0.341356
-0.345258
-0.348625
-0.351461
-0.353761
-0.355532
-0.228427
-0.244707
-0.259572
-0.273106
-0.285393
-0.296531
-0.306613
-0.315729
-0.32396
-0.331378
-0.338043
-0.344006
-0.349305
-0.35397
-0.358022
-0.361478
-0.364351
-0.36666
-0.368421
-0.369571
-0.257115
-0.273888
-0.289113
-0.302821
-0.315145
-0.326206
-0.336116
-0.344974
-0.352872
-0.359888
-0.366088
-0.371524
-0.376235
-0.38025
-0.383592
-0.38628
-0.388341
-0.389835
-0.390849
-0.391159
-0.389667
-0.37002
-0.356892
-0.347279
-0.339395
-0.332993
-0.327792
-0.323491
-0.319853
-0.316689
-0.313838
-0.311155
-0.30849
-0.305655
-0.302394
-0.298388
-0.292935
-0.283362
-0.265138
-0.24923
-0.388869
-0.370205
-0.357765
-0.348644
-0.341143
-0.335022
-0.33001
-0.325814
-0.322199
-0.318972
-0.315965
-0.31302
-0.309974
-0.306632
-0.302766
-0.298172
-0.2925
-0.284044
-0.2703
-0.262417
-0.387836
-0.370092
-0.358297
-0.349654
-0.34253
-0.336692
-0.331876
-0.327801
-0.324239
-0.321002
-0.31793
-0.314874
-0.311692
-0.308234
-0.304351
-0.299962
-0.294933
-0.288245
-0.278873
-0.276522
-0.386426
-0.369668
-0.358531
-0.350361
-0.343612
-0.338059
-0.333448
-0.329511
-0.326032
-0.322835
-0.319772
-0.316713
-0.313542
-0.310148
-0.306442
-0.302408
-0.298001
-0.292491
-0.285367
-0.284968
-0.384759
-0.368998
-0.358513
-0.350811
-0.344435
-0.339167
-0.33477
-0.330988
-0.327621
-0.324507
-0.321513
-0.318532
-0.315471
-0.312256
-0.308838
-0.305246
-0.301487
-0.296997
-0.291425
-0.291778
-0.382944
-0.368152
-0.358304
-0.351061
-0.345051
-0.34007
-0.335892
-0.33228
-0.329046
-0.326046
-0.323164
-0.32031
-0.317413
-0.314424
-0.311322
-0.308155
-0.304951
-0.301255
-0.296779
-0.297386
-0.381066
-0.367203
-0.35797
-0.351172
-0.34552
-0.340822
-0.336865
-0.33343
-0.330343
-0.327476
-0.324728
-0.322022
-0.319307
-0.316548
-0.313739
-0.310931
-0.308157
-0.305034
-0.301317
-0.301896
-0.379207
-0.366224
-0.357577
-0.351206
-0.3459
-0.341477
-0.337738
-0.334479
-0.331545
-0.328816
-0.326207
-0.323653
-0.321114
-0.318565
-0.316006
-0.313484
-0.311028
-0.308312
-0.305129
-0.305528
-0.377443
-0.365285
-0.357193
-0.351227
-0.34625
-0.342089
-0.338559
-0.335471
-0.332682
-0.330088
-0.327611
-0.325198
-0.322815
-0.320443
-0.318084
-0.315779
-0.313547
-0.311117
-0.308313
-0.308458
-0.375851
-0.36446
-0.356886
-0.351299
-0.346629
-0.342712
-0.339375
-0.336445
-0.333791
-0.331317
-0.328957
-0.326664
-0.324408
-0.322176
-0.319968
-0.317817
-0.315736
-0.3135
-0.310964
-0.310826
-0.374503
-0.363818
-0.356722
-0.351486
-0.347096
-0.343401
-0.340238
-0.337447
-0.334907
-0.332535
-0.330269
-0.328069
-0.32591
-0.323778
-0.321675
-0.319625
-0.317636
-0.315525
-0.313177
-0.31275
-0.373473
-0.363431
-0.35677
-0.351849
-0.347711
-0.344211
-0.341197
-0.338521
-0.336073
-0.333778
-0.33158
-0.329444
-0.327348
-0.32528
-0.323241
-0.321247
-0.319304
-0.317263
-0.315042
-0.314336
-0.372833
-0.363367
-0.357095
-0.352454
-0.348534
-0.345197
-0.342304