/*--------------------------------*- C++ -*----------------------------------*\
  =========                 |
  \\      /  F ield         | OpenFOAM: The Open Source CFD Toolbox
   \\    /   O peration     | Website:  https://openfoam.org
    \\  /    A nd           | Version:  6.0
     \\/     M anipulation  |
\*---------------------------------------------------------------------------*/
FoamFile
{
    version     2.0;
    format      ascii;
    class       volScalarField;
    location    "3.25";
    object      p;
}
// * * * * * * * * * * * * * * * * * * * * * * * * * * * * * * * * * * * * * //

dimensions      [0 2 -2 0 0 0 0];

internalField   nonuniform List<scalar> 
19200
(
-8.99531
-8.08812
-7.42791
-6.88689
-6.39481
-5.95024
-5.54833
-5.18227
-4.84706
-4.53893
-4.25482
-3.99222
-3.74902
-3.52343
-3.31393
-3.11917
-2.93798
-2.76929
-2.61216
-2.46573
-2.3292
-2.20187
-2.08308
-1.97223
-1.86876
-1.77217
-1.682
-1.59776
-1.51896
-1.44586
-9.08849
-8.18208
-7.52105
-6.97806
-6.48344
-6.03597
-5.63095
-5.26165
-4.92317
-4.61179
-4.3245
-4.05881
-3.81263
-3.5842
-3.37199
-3.17467
-2.99105
-2.82008
-2.6608
-2.51234
-2.37391
-2.24479
-2.12432
-2.01188
-1.90692
-1.80892
-1.71743
-1.63189
-1.55179
-1.47785
-9.18404
-8.27683
-7.61445
-7.06936
-6.57213
-6.12171
-5.71353
-5.34097
-4.99919
-4.68454
-4.39405
-4.12525
-3.87609
-3.64481
-3.4299
-3.23002
-3.04399
-2.87074
-2.70932
-2.55885
-2.41854
-2.28765
-2.16551
-2.0515
-1.94506
-1.84568
-1.75288
-1.66607
-1.58468
-1.50993
-9.28042
-8.3721
-7.7081
-7.1608
-6.66087
-6.20745
-5.79607
-5.42021
-5.0751
-4.75715
-4.46344
-4.19153
-3.93938
-3.70526
-3.48765
-3.28521
-3.09678
-2.92127
-2.75773
-2.60527
-2.46309
-2.33045
-2.20666
-2.09111
-1.98321
-1.88246
-1.78837
-1.7003
-1.61764
-1.54211
-9.37735
-8.46778
-7.802
-7.25236
-6.74967
-6.29317
-5.87854
-5.49934
-5.15088
-4.82962
-4.53267
-4.25763
-4.00249
-3.76552
-3.54521
-3.34023
-3.14941
-2.97166
-2.80601
-2.65158
-2.50756
-2.37318
-2.24778
-2.1307
-2.02137
-1.91927
-1.82391
-1.7346
-1.65069
-1.57441
-9.47467
-8.56379
-7.89611
-7.34403
-6.83849
-6.37887
-5.96094
-5.57836
-5.22651
-4.90191
-4.60171
-4.32354
-4.0654
-3.82558
-3.60258
-3.39507
-3.20187
-3.02189
-2.85416
-2.69779
-2.55194
-2.41586
-2.28886
-2.17028
-2.05954
-1.95611
-1.85951
-1.76897
-1.68383
-1.60683
-9.57227
-8.66003
-7.99037
-7.43579
-6.92733
-6.46451
-6.04324
-5.65724
-5.30197
-4.97401
-4.67054
-4.38923
-4.12809
-3.88543
-3.65975
-3.44972
-3.25415
-3.07197
-2.90218
-2.74388
-2.59624
-2.45848
-2.3299
-2.20985
-2.09772
-1.993
-1.89517
-1.80343
-1.71708
-1.6394
-9.67008
-8.75645
-8.08474
-7.52758
-7.01614
-6.55008
-6.12541
-5.73596
-5.37724
-5.04589
-4.73914
-4.45468
-4.19054
-3.94504
-3.71668
-3.50415
-3.30624
-3.12187
-2.95005
-2.78985
-2.64043
-2.50103
-2.3709
-2.2494
-2.13592
-2.02992
-1.9309
-1.83798
-1.75043
-1.6721
-9.76802
-8.85297
-8.17916
-7.61937
-7.10489
-6.63554
-6.20743
-5.81448
-5.45229
-5.11753
-4.80748
-4.51986
-4.25272
-4.00438
-3.77337
-3.55835
-3.35812
-3.17158
-2.99775
-2.83568
-2.68452
-2.54349
-2.41185
-2.28894
-2.17412
-2.06688
-1.96668
-1.87262
-1.7839
-1.70495
-9.86605
-8.94954
-8.2736
-7.71111
-7.19355
-6.72085
-6.28925
-5.89277
-5.52707
-5.18888
-4.87552
-4.58474
-4.3146
-4.06344
-3.82977
-3.61228
-3.40975
-3.22108
-3.04526
-2.88134
-2.72848
-2.58585
-2.45274
-2.32843
-2.21232
-2.10386
-2.00252
-1.90733
-1.81747
-1.73793
-9.96411
-9.04612
-8.36799
-7.80276
-7.28205
-6.80596
-6.37084
-5.97079
-5.60155
-5.25992
-4.94323
-4.64928
-4.37615
-4.12217
-3.88587
-3.66592
-3.46111
-3.27033
-3.09255
-2.92682
-2.77228
-2.6281
-2.49353
-2.36788
-2.2505
-2.14086
-2.0384
-1.9421
-1.85113
-1.77105
-10.0621
-9.14264
-8.46229
-7.89427
-7.37037
-6.89084
-6.45214
-6.04849
-5.67569
-5.33059
-5.01057
-4.71345
-4.43732
-4.18053
-3.94162
-3.71923
-3.51217
-3.3193
-3.13959
-2.97209
-2.8159
-2.67019
-2.53421
-2.40724
-2.28863
-2.17783
-2.0743
-1.97693
-1.88486
-1.80427
-10.1601
-9.23906
-8.55644
-7.98559
-7.45845
-6.97542
-6.53311
-6.12583
-5.74944
-5.40085
-5.0775
-4.7772
-4.49808
-4.2385
-3.99698
-3.77218
-3.56288
-3.36796
-3.18635
-3.0171
-2.8593
-2.7121
-2.57474
-2.44649
-2.32668
-2.21477
-2.11019
-2.01178
-1.91865
-1.83758
-10.2579
-9.33532
-8.6504
-8.07666
-7.54622
-7.05967
-6.6137
-6.20275
-5.82275
-5.47066
-5.14396
-4.84048
-4.55838
-4.29601
-4.0519
-3.82472
-3.61321
-3.41626
-3.23279
-3.06182
-2.90244
-2.75379
-2.61509
-2.48559
-2.36462
-2.25163
-2.14604
-2.04662
-1.95247
-1.87096
-10.3555
-9.43137
-8.7441
-8.16742
-7.63365
-7.14351
-6.69386
-6.2792
-5.89556
-5.53996
-5.2099
-4.90325
-4.61817
-4.35303
-4.10635
-3.87679
-3.66311
-3.46415
-3.27885
-3.1062
-2.94528
-2.79521
-2.6552
-2.52449
-2.40241
-2.28837
-2.1818
-2.08142
-1.98626
-1.90434
-10.4529
-9.52714
-8.83748
-8.25783
-7.72067
-7.2269
-6.77352
-6.35513
-5.96783
-5.6087
-5.27527
-4.96545
-4.6774
-4.4095
-4.16028
-3.92837
-3.71253
-3.5116
-3.32449
-3.15019
-2.98776
-2.83631
-2.69502
-2.56314
-2.43997
-2.32493
-2.21741
-2.11609
-2.01997
-1.93769
-10.55
-9.62259
-8.9305
-8.34782
-7.80721
-7.30978
-6.85262
-6.43047
-6.03949
-5.67681
-5.34002
-5.02703
-4.73602
-4.46537
-4.21361
-3.97938
-3.76141
-3.55853
-3.36965
-3.19373
-3.02982
-2.87702
-2.73449
-2.60147
-2.47724
-2.36123
-2.25282
-2.1506
-2.05354
-1.97094
-10.6467
-9.71766
-9.02309
-8.43732
-7.89323
-7.39207
-6.93111
-6.50516
-6.11048
-5.74425
-5.40408
-5.08793
-4.79397
-4.52059
-4.26632
-4.02978
-3.8097
-3.6049
-3.41426
-3.23675
-3.07138
-2.91726
-2.77353
-2.63941
-2.51417
-2.39723
-2.28795
-2.18487
-2.08692
-2.00403
-10.743
-9.81229
-9.1152
-8.52629
-7.97864
-7.47372
-7.00891
-6.57914
-6.18074
-5.81094
-5.46741
-5.14809
-4.8512
-4.5751
-4.31833
-4.0795
-3.85734
-3.65063
-3.45826
-3.27918
-3.11239
-2.95698
-2.81208
-2.67688
-2.55066
-2.43282
-2.32272
-2.21881
-2.11999
-2.03685
-10.8389
-9.90643
-9.20676
-8.61464
-8.06339
-7.55465
-7.08596
-6.65234
-6.25021
-5.87684
-5.52992
-5.20745
-4.90763
-4.62884
-4.36958
-4.12849
-3.90425
-3.69567
-3.5016
-3.32098
-3.15279
-2.99611
-2.85005
-2.71381
-2.58662
-2.46791
-2.357
-2.2523
-2.15263
-2.06927
-10.9343
-10
-9.29772
-8.70233
-8.14741
-7.6348
-7.16218
-6.72469
-6.31881
-5.94186
-5.59157
-5.26595
-4.96322
-4.68174
-4.42003
-4.17669
-3.95041
-3.73997
-3.54422
-3.36207
-3.1925
-3.03456
-2.88736
-2.75007
-2.62194
-2.50236
-2.39067
-2.28519
-2.18468
-2.10113
-11.0291
-10.093
-9.38801
-8.78927
-8.23061
-7.71408
-7.23751
-6.79612
-6.38648
-6.00595
-5.6523
-5.32354
-5.01791
-4.73377
-4.46963
-4.22406
-3.99576
-3.78348
-3.58606
-3.40239
-3.23143
-3.07224
-2.9239
-2.78557
-2.65649
-2.53605
-2.42358
-2.31732
-2.21598
-2.13222
-11.1235
-10.1854
-9.47757
-8.87539
-8.31292
-7.79242
-7.31185
-6.86655
-6.45314
-6.06905
-5.71205
-5.38018
-5.07166
-4.78488
-4.51832
-4.27056
-4.04025
-3.82615
-3.62706
-3.44187
-3.26954
-3.10908
-2.95959
-2.82021
-2.69016
-2.56884
-2.45557
-2.34851
-2.24628
-2.1623
-11.2174
-10.2772
-9.56635
-8.9606
-8.39424
-7.86972
-7.38513
-6.93591
-6.51873
-6.13108
-5.77075
-5.43578
-5.12442
-4.83502
-4.56608
-4.31614
-4.08385
-3.86793
-3.66719
-3.48049
-3.30677
-3.14505
-2.99438
-2.85391
-2.72285
-2.60059
-2.48646
-2.37855
-2.27535
-2.19107
-11.3109
-10.3683
-9.65424
-9.04481
-8.47448
-7.94588
-7.45725
-7.0041
-6.58317
-6.19197
-5.82833
-5.49031
-5.17612
-4.88415
-4.61284
-4.36075
-4.12651
-3.90881
-3.70643
-3.51823
-3.34312
-3.1801
-3.02822
-2.88661
-2.75447
-2.6312
-2.51611
-2.40722
-2.30288
-2.21816
-11.4041
-10.4585
-9.74111
-9.12789
-8.5535
-8.0208
-7.52812
-7.07105
-6.64638
-6.25166
-5.88475
-5.5437
-5.22674
-4.93222
-4.6586
-4.4044
-4.16823
-3.94878
-3.74479
-3.55509
-3.37858
-3.21425
-3.06113
-2.91832
-2.78502
-2.6606
-2.5444
-2.43435
-2.3286
-2.24306
-11.4972
-10.5479
-9.82682
-9.20967
-8.63118
-8.09435
-7.59763
-7.13665
-6.70827
-6.31008
-5.93993
-5.59591
-5.27622
-4.97922
-4.70333
-4.44706
-4.20902
-3.98784
-3.78227
-3.59111
-3.41323
-3.24758
-3.09319
-2.94913
-2.81457
-2.68889
-2.57142
-2.45998
-2.35236
-2.26524
-11.5916
-10.6367
-9.91115
-9.28992
-8.70728
-8.16634
-7.66561
-7.20078
-6.76875
-6.36713
-5.99381
-5.64687
-5.32451
-5.02508
-4.74699
-4.48873
-4.24885
-4.02602
-3.81892
-3.62634
-3.44713
-3.28019
-3.12453
-2.97919
-2.8433
-2.71622
-2.59727
-2.48405
-2.3737
-2.2843
-11.6884
-10.7245
-9.99356
-9.36819
-8.78153
-8.23659
-7.73193
-7.26332
-6.8277
-6.42273
-6.0463
-5.6965
-5.37156
-5.06977
-4.78955
-4.52936
-4.28775
-4.06332
-3.85477
-3.66085
-3.48038
-3.31225
-3.1554
-3.00881
-2.87157
-2.74292
-2.62198
-2.50585
-2.39131
-2.29935
-11.78
-10.8084
-10.0731
-9.44421
-8.85393
-8.30519
-7.79673
-7.32441
-6.88526
-6.47698
-6.09751
-5.74492
-5.41744
-5.11337
-4.83109
-4.56904
-4.32577
-4.09984
-3.88994
-3.69479
-3.5132
-3.34404
-3.18622
-3.03873
-2.90057
-2.77082
-2.64811
-2.52947
-2.41285
-2.31696
-13.0155
-13.0253
-13.0281
-13.0285
-13.0259
-13.0195
-13.0091
-12.9948
-12.9766
-12.9544
-12.9283
-12.8984
-12.8647
-12.8274
-12.7865
-12.7422
-12.6946
-12.6438
-12.5899
-12.533
-12.4733
-12.411
-12.3461
-12.2788
-12.2093
-12.1379
-12.0646
-11.9901
-11.9147
-11.8412
-12.0072
-12.0213
-12.0292
-12.0328
-12.0323
-12.0276
-12.0188
-12.0059
-11.989
-11.9681
-11.9434
-11.9149
-11.8827
-11.8468
-11.8075
-11.7648
-11.7187
-11.6695
-11.6173
-11.5621
-11.5042
-11.4436
-11.3805
-11.315
-11.2473
-11.1776
-11.1061
-11.033
-10.9586
-10.8834
-11.2044
-11.221
-11.2321
-11.2384
-11.2403
-11.2378
-11.2312
-11.2205
-11.2058
-11.1872
-11.1647
-11.1385
-11.1087
-11.0752
-11.0383
-10.9981
-10.9545
-10.9079
-10.8582
-10.8057
-10.7503
-10.6924
-10.6319
-10.569
-10.5039
-10.4367
-10.3676
-10.2967
-10.224
-10.1495
-10.4926
-10.5109
-10.5243
-10.533
-10.5373
-10.5373
-10.5332
-10.525
-10.5129
-10.4969
-10.4771
-10.4537
-10.4266
-10.396
-10.362
-10.3247
-10.2842
-10.2406
-10.194
-10.1446
-10.0924
-10.0376
-9.98024
-9.92053
-9.85856
-9.79444
-9.72828
-9.66018
-9.59018
-9.51831
-9.81422
-9.83401
-9.84934
-9.8602
-9.86675
-9.86913
-9.86746
-9.86182
-9.8523
-9.83899
-9.82197
-9.80133
-9.77716
-9.74956
-9.71862
-9.68444
-9.64712
-9.60677
-9.56348
-9.51738
-9.46857
-9.41716
-9.36326
-9.30699
-9.24844
-9.18773
-9.12494
-9.06015
-8.99341
-8.92477
-9.17859
-9.19965
-9.21655
-9.2292
-9.2377
-9.24217
-9.2427
-9.23938
-9.23229
-9.2215
-9.20711
-9.1892
-9.16786
-9.14316
-9.11522
-9.08411
-9.04994
-9.0128
-8.97281
-8.93005
-8.88463
-8.83666
-8.78624
-8.73347
-8.67845
-8.62126
-8.56201
-8.50074
-8.43752
-8.37242
-8.58848
-8.6105
-8.62859
-8.64265
-8.65272
-8.65892
-8.66133
-8.66002
-8.65506
-8.64653
-8.63451
-8.61908
-8.60032
-8.57831
-8.55316
-8.52493
-8.49373
-8.45965
-8.42278
-8.38323
-8.34108
-8.29644
-8.2494
-8.20005
-8.14849
-8.0948
-8.03907
-7.98135
-7.92172
-7.86024
-8.04217
-8.06481
-8.08373
-8.0988
-8.11006
-8.11762
-8.12154
-8.12187
-8.1187
-8.11209
-8.10211
-8.08884
-8.07236
-8.05275
-8.03009
-8.00447
-7.97597
-7.94469
-7.91071
-7.87412
-7.83502
-7.79349
-7.74963
-7.70353
-7.65527
-7.60493
-7.55259
-7.49832
-7.44219
-7.38427
-7.5379
-7.56083
-7.58022
-7.59593
-7.60802
-7.61656
-7.62162
-7.62324
-7.62149
-7.61644
-7.60815
-7.59671
-7.58217
-7.56462
-7.54413
-7.52079
-7.49469
-7.46589
-7.4345
-7.40059
-7.36425
-7.32557
-7.28464
-7.24153
-7.19633
-7.14913
-7.09999
-7.04898
-6.99617
-6.94165
-7.07368
-7.0966
-7.11614
-7.13217
-7.14475
-7.15393
-7.15978
-7.16234
-7.16167
-7.15783
-7.1509
-7.14093
-7.128
-7.11217
-7.09353
-7.07214
-7.0481
-7.02147
-6.99234
-6.9608
-6.92692
-6.89079
-6.85249
-6.8121
-6.7697
-6.72537
-6.67917
-6.63118
-6.58147
-6.53012
-6.64716
-6.66981
-6.68923
-6.7053
-6.71807
-6.7276
-6.73394
-6.73713
-6.73722
-6.73429
-6.72839
-6.71958
-6.70792
-6.6935
-6.67637
-6.65662
-6.63432
-6.60955
-6.58238
-6.55289
-6.52116
-6.48727
-6.45131
-6.41334
-6.37345
-6.33171
-6.28819
-6.24295
-6.19607
-6.14764
-6.2558
-6.27797
-6.29705
-6.31293
-6.32564
-6.33526
-6.34182
-6.34537
-6.34596
-6.34365
-6.3385
-6.33056
-6.31989
-6.30658
-6.29069
-6.27227
-6.25142
-6.22819
-6.20268
-6.17496
-6.14508
-6.11314
-6.07922
-6.04339
-6.00572
-5.96629
-5.92516
-5.88241
-5.8381
-5.79232
-5.89698
-5.91851
-5.93706
-5.95255
-5.96502
-5.97452
-5.98109
-5.98478
-5.98563
-5.9837
-5.97905
-5.97173
-5.96181
-5.94935
-5.93442
-5.91707
-5.8974
-5.87546
-5.85133
-5.82509
-5.7968
-5.76654
-5.73439
-5.70041
-5.66469
-5.6273
-5.5883
-5.54776
-5.50576
-5.46236
-5.56806
-5.58882
-5.60672
-5.62168
-5.63374
-5.64296
-5.64937
-5.65301
-5.65394
-5.6522
-5.64785
-5.64094
-5.63154
-5.61971
-5.60551
-5.58901
-5.57028
-5.54938
-5.5264
-5.5014
-5.47444
-5.44561
-5.41498
-5.38261
-5.34859
-5.31298
-5.27585
-5.23728
-5.19732
-5.15606
-5.2665
-5.2864
-5.30355
-5.31787
-5.32941
-5.33822
-5.34433
-5.34779
-5.34863
-5.34692
-5.34271
-5.33604
-5.32699
-5.3156
-5.30195
-5.2861
-5.26811
-5.24805
-5.226
-5.20202
-5.17618
-5.14855
-5.11921
-5.08823
-5.05567
-5.02162
-4.98613
-4.94928
-4.91114
-4.87178
-4.98983
-5.00882
-5.02516
-5.03878
-5.04972
-5.05802
-5.06374
-5.0669
-5.06755
-5.06575
-5.06154
-5.05497
-5.04612
-5.03503
-5.02176
-5.00639
-4.98897
-4.96958
-4.94828
-4.92514
-4.90022
-4.87361
-4.84537
-4.81556
-4.78427
-4.75156
-4.7175
-4.68217
-4.64562
-4.60796
-4.73576
-4.75382
-4.76931
-4.78218
-4.79246
-4.80021
-4.80545
-4.80824
-4.80862
-4.80662
-4.80232
-4.79575
-4.78698
-4.77606
-4.76306
-4.74804
-4.73105
-4.71218
-4.69148
-4.66902
-4.64487
-4.6191
-4.59179
-4.56299
-4.53277
-4.50123
-4.46841
-4.4344
-4.39926
-4.36309
-4.50216
-4.51928
-4.53391
-4.546
-4.5556
-4.56275
-4.56748
-4.56985
-4.56988
-4.56764
-4.56316
-4.55651
-4.54773
-4.53689
-4.52405
-4.50927
-4.49261
-4.47413
-4.45391
-4.43201
-4.40849
-4.38343
-4.35689
-4.32894
-4.29965
-4.26911
-4.23736
-4.20451
-4.1706
-4.13574
-4.28706
-4.30325
-4.31702
-4.32833
-4.33723
-4.34377
-4.34797
-4.34988
-4.34954
-4.34699
-4.34229
-4.3355
-4.32665
-4.31582
-4.30306
-4.28844
-4.27201
-4.25384
-4.234
-4.21254
-4.18954
-4.16507
-4.13918
-4.11196
-4.08346
-4.05377
-4.02296
-3.9911
-3.95827
-3.92457
-4.08867
-4.10395
-4.11688
-4.12743
-4.13564
-4.14155
-4.14521
-4.14665
-4.14591
-4.14304
-4.13808
-4.1311
-4.12214
-4.11127
-4.09854
-4.084
-4.06774
-4.0498
-4.03025
-4.00915
-3.98658
-3.9626
-3.93727
-3.91065
-3.88283
-3.85388
-3.82386
-3.79287
-3.76097
-3.7283
-3.90537
-3.91977
-3.93188
-3.94169
-3.94922
-3.95453
-3.95765
-3.95861
-3.95746
-3.95425
-3.94902
-3.94183
-3.93273
-3.92177
-3.90902
-3.89454
-3.87838
-3.86061
-3.84129
-3.82049
-3.79827
-3.77469
-3.74983
-3.72375
-3.69651
-3.66818
-3.63885
-3.60859
-3.57751
-3.54572
-3.73569
-3.74925
-3.76059
-3.76968
-3.77656
-3.78128
-3.78387
-3.78436
-3.78281
-3.77925
-3.77374
-3.76632
-3.75706
-3.74599
-3.7332
-3.71872
-3.70263
-3.68499
-3.66585
-3.64529
-3.62336
-3.60013
-3.57567
-3.55003
-3.52329
-3.49551
-3.46676
-3.43713
-3.40673
-3.37572
-3.57833
-3.59109
-3.60169
-3.61009
-3.61635
-3.6205
-3.62258
-3.62263
-3.62068
-3.61678
-3.61098
-3.60334
-3.59389
-3.58271
-3.56985
-3.55536
-3.53931
-3.52175
-3.50276
-3.48239
-3.46071
-3.43777
-3.41365
-3.3884
-3.36209
-3.33477
-3.30652
-3.27743
-3.24759
-3.21722
-3.4321
-3.44412
-3.45401
-3.46177
-3.46744
-3.47105
-3.47265
-3.47226
-3.46992
-3.4657
-3.45962
-3.45175
-3.44213
-3.43082
-3.41787
-3.40336
-3.38732
-3.36983
-3.35095
-3.33074
-3.30927
-3.28659
-3.26276
-3.23785
-3.21191
-3.18499
-3.15717
-3.12852
-3.09912
-3.0693
-3.29597
-3.30728
-3.31651
-3.32367
-3.32878
-3.33188
-3.33301
-3.33221
-3.32952
-3.32498
-3.31863
-3.31054
-3.30074
-3.2893
-3.27627
-3.26171
-3.24568
-3.22824
-3.20945
-3.18937
-3.16808
-3.14561
-3.12205
-3.09743
-3.07182
-3.04526
-3.0178
-2.98953
-2.96045
-2.93108
-3.169
-3.17964
-3.18825
-3.19482
-3.1994
-3.20203
-3.20272
-3.20153
-3.19849
-3.19364
-3.18703
-3.17872
-3.16875
-3.15717
-3.14405
-3.12943
-3.11339
-3.09598
-3.07726
-3.05729
-3.03613
-3.01386
-2.99051
-2.96616
-2.94083
-2.91459
-2.88745
-2.85948
-2.8306
-2.8017
-3.05036
-3.06036
-3.06838
-3.07441
-3.07849
-3.08065
-3.08093
-3.07936
-3.07597
-3.07083
-3.06396
-3.05542
-3.04527
-3.03355
-3.02031
-3.00562
-2.98954
-2.97213
-2.95344
-2.93354
-2.91249
-2.89035
-2.86718
-2.84303
-2.81794
-2.79195
-2.76508
-2.73732
-2.70843
-2.68014
-2.9393
-2.94878
-2.95631
-2.96189
-2.96555
-2.96733
-2.96726
-2.96538
-2.96173
-2.95634
-2.94927
-2.94056
-2.93027
-2.91844
-2.90513
-2.8904
-2.8743
-2.8569
-2.83826
-2.81844
-2.7975
-2.7755
-2.75251
-2.72857
-2.70372
-2.67801
-2.6514
-2.62381
-2.59473
-2.56697
-2.83511
-2.84423
-2.85143
-2.85673
-2.86014
-2.86172
-2.86148
-2.85947
-2.85572
-2.85027
-2.84318
-2.83449
-2.82425
-2.81251
-2.79933
-2.78477
-2.76888
-2.75172
-2.73336
-2.71386
-2.69328
-2.67169
-2.64915
-2.62571
-2.60143
-2.57633
-2.55035
-2.52332
-2.49446
-2.46803
-2.73714
-2.74536
-2.75172
-2.75625
-2.75895
-2.75988
-2.75905
-2.75652
-2.75231
-2.74646
-2.73903
-2.73006
-2.7196
-2.70771
-2.69443
-2.67982
-2.66395
-2.64686
-2.62864
-2.60933
-2.58901
-2.56774
-2.54558
-2.52261
-2.49888
-2.47445
-2.4493
-2.42311
-2.39537
-2.37548
-10.507
-10.6378
-10.7619
-10.8873
-11.0125
-11.1359
-11.2571
-11.3756
-11.4912
-11.6037
-11.7127
-11.8181
-11.9197
-12.0174
-12.111
-12.2005
-12.2856
-12.3664
-12.4428
-12.5146
-12.5819
-12.6445
-12.7025
-12.7558
-12.8045
-12.8485
-12.888
-12.9232
-12.9543
-12.983
-9.50758
-9.6426
-9.77239
-9.90017
-10.0259
-10.149
-10.2695
-10.3872
-10.5018
-10.6132
-10.7211
-10.8256
-10.9263
-11.0231
-11.116
-11.2048
-11.2893
-11.3696
-11.4456
-11.5171
-11.5841
-11.6465
-11.7045
-11.7578
-11.8065
-11.8507
-11.8905
-11.9258
-11.9568
-11.9836
-8.71329
-8.84786
-8.97857
-9.10626
-9.23124
-9.35349
-9.47295
-9.5895
-9.70301
-9.81334
-9.92032
-10.0238
-10.1237
-10.2198
-10.3121
-10.4004
-10.4846
-10.5647
-10.6405
-10.7119
-10.7791
-10.8417
-10.9
-10.9538
-11.003
-11.0478
-11.0882
-11.124
-11.1554
-11.1822
-8.01761
-8.14964
-8.27869
-8.40481
-8.52818
-8.64885
-8.76675
-8.88178
-8.99382
-9.10275
-9.20843
-9.31073
-9.40954
-9.50472
-9.59617
-9.68378
-9.76745
-9.8471
-9.92265
-9.99403
-10.0612
-10.1241
-10.1826
-10.2368
-10.2866
-10.3321
-10.3731
-10.4098
-10.4419
-10.4696
-7.36638
-7.49509
-7.62144
-7.74512
-7.86619
-7.98464
-8.10041
-8.21339
-8.32348
-8.43055
-8.53449
-8.63519
-8.73251
-8.82636
-8.91661
-9.00318
-9.08597
-9.1649
-9.23988
-9.31085
-9.37775
-9.44053
-9.49913
-9.55354
-9.60371
-9.64963
-9.69126
-9.72858
-9.76156
-9.79016
-6.76885
-6.89392
-7.01698
-7.13761
-7.2558
-7.37151
-7.48465
-7.59512
-7.70281
-7.80762
-7.90942
-8.0081
-8.10356
-8.19569
-8.28438
-8.36954
-8.45108
-8.52892
-8.60298
-8.67319
-8.73949
-8.80183
-8.86017
-8.91446
-8.96468
-9.01078
-9.05275
-9.09056
-9.12417
-9.15358
-6.22675
-6.34794
-6.46736
-6.58455
-6.69946
-6.81203
-6.92217
-7.02978
-7.13473
-7.23692
-7.33625
-7.43259
-7.52586
-7.61593
-7.70272
-7.78613
-7.86608
-7.94249
-8.01528
-8.08439
-8.14975
-8.21132
-8.26904
-8.32289
-8.37282
-8.4188
-8.46081
-8.49881
-8.53279
-8.56274
-5.73671
-5.8539
-5.96948
-6.08301
-6.19439
-6.30359
-6.41049
-6.51497
-6.61693
-6.71626
-6.81285
-6.9066
-6.9974
-7.08515
-7.16976
-7.25114
-7.32921
-7.40389
-7.47511
-7.54281
-7.60693
-7.6674
-7.7242
-7.77728
-7.82661
-7.87215
-7.91388
-7.95178
-7.98582
-8.01601
-5.29504
-5.4082
-5.51985
-5.62961
-5.73738
-5.84306
-5.94656
-6.04777
-6.14659
-6.24289
-6.33657
-6.42754
-6.51569
-6.60092
-6.68314
-6.76228
-6.83824
-6.91096
-6.98037
-7.0464
-7.10901
-7.16813
-7.22373
-7.27577
-7.32421
-7.36903
-7.41019
-7.44768
-7.48149
-7.51163
-4.89784
-5.007
-5.11476
-5.22073
-5.32483
-5.42697
-5.52703
-5.6249
-5.72049
-5.81368
-5.90436
-5.99244
-6.07781
-6.1604
-6.2401
-6.31684
-6.39054
-6.46112
-6.52854
-6.59272
-6.65362
-6.71117
-6.76535
-6.81611
-6.86343
-6.90728
-6.94762
-6.98446
-7.01777
-7.04758
-4.54105
-4.64632
-4.75023
-4.85248
-4.95295
-5.05156
-5.1482
-5.24274
-5.33508
-5.42514
-5.51279
-5.59793
-5.68049
-5.76035
-5.83746
-5.91171
-5.98305
-6.0514
-6.11669
-6.17889
-6.23793
-6.29376
-6.34635
-6.39567
-6.44168
-6.48435
-6.52368
-6.55964
-6.59223
-6.62147
-4.22064
-4.32214
-4.42234
-4.52095
-4.61788
-4.71304
-4.80631
-4.89757
-4.98672
-5.07367
-5.15831
-5.24053
-5.32026
-5.3974
-5.47188
-5.54362
-5.61254
-5.67859
-5.7417
-5.80183
-5.85892
-5.91292
-5.9638
-6.01154
-6.05611
-6.09747
-6.13562
-6.17054
-6.20224
-6.23072
-3.93276
-4.03064
-4.12727
-4.22238
-4.31588
-4.4077
-4.49771
-4.58579
-4.67182
-4.75573
-4.83741
-4.91677
-4.99371
-5.06816
-5.14003
-5.20925
-5.27576
-5.33949
-5.40038
-5.4584
-5.51348
-5.5656
-5.61471
-5.6608
-5.70382
-5.74378
-5.78064
-5.81441
-5.84507
-5.87266
-3.67384
-3.76826
-3.86147
-3.95324
-4.04346
-4.13206
-4.21893
-4.30393
-4.38697
-4.46794
-4.54675
-4.62332
-4.69754
-4.76935
-4.83866
-4.90541
-4.96952
-5.03095
-5.08963
-5.14554
-5.19861
-5.24882
-5.29614
-5.34053
-5.38197
-5.42045
-5.45596
-5.48849
-5.51803
-5.54461
-3.44059
-3.53172
-3.62168
-3.71026
-3.79736
-3.88289
-3.96675
-4.04882
-4.12898
-4.20713
-4.28319
-4.35706
-4.42865
-4.4979
-4.56472
-4.62904
-4.69082
-4.74999
-4.80651
-4.86033
-4.91141
-4.95973
-5.00524
-5.04793
-5.08777
-5.12476
-5.15887
-5.19011
-5.21847
-5.24399
-3.23005
-3.31805
-3.40493
-3.49049
-3.57463
-3.65725
-3.73825
-3.81752
-3.89493
-3.9704
-4.04381
-4.11509
-4.18416
-4.25093
-4.31534
-4.37734
-4.43685
-4.49383
-4.54824
-4.60003
-4.64917
-4.69562
-4.73936
-4.78036
-4.81861
-4.85409
-4.88681
-4.91674
-4.9439
-4.96832
-3.03957
-3.1246
-3.20856
-3.29126
-3.3726
-3.45248
-3.53077
-3.60738
-3.68219
-3.7551
-3.826
-3.8948
-3.96144
-4.02585
-4.08796
-4.14771
-4.20505
-4.25992
-4.31229
-4.36211
-4.40936
-4.45399
-4.496
-4.53535
-4.57204
-4.60605
-4.63737
-4.66601
-4.69196
-4.71526
-2.86677
-2.94899
-3.03019
-3.11019
-3.1889
-3.26619
-3.34194
-3.41603
-3.48837
-3.55885
-3.62736
-3.69381
-3.75814
-3.8203
-3.88021
-3.93782
-3.99307
-4.04591
-4.09632
-4.14425
-4.18968
-4.23256
-4.2729
-4.31065
-4.34582
-4.37839
-4.40836
-4.43572
-4.46048
-4.48267
-2.70957
-2.78912
-2.86772
-2.94519
-3.02142
-3.09628
-3.16963
-3.24136
-3.31135
-3.37953
-3.44578
-3.51
-3.57215
-3.63216
-3.68997
-3.74553
-3.79879
-3.84971
-3.89825
-3.94437
-3.98805
-4.02926
-4.06798
-4.1042
-4.1379
-4.16908
-4.19773
-4.22386
-4.24746
-4.26857
-2.56613
-2.64313
-2.71929
-2.79439
-2.86831
-2.94089
-3.01199
-3.08148
-3.14927
-3.21527
-3.27937
-3.34149
-3.40156
-3.45954
-3.51536
-3.56897
-3.62034
-3.66942
-3.71617
-3.76057
-3.80259
-3.8422
-3.87939
-3.91414
-3.94644
-3.97628
-4.00367
-4.0286
-4.05108
-4.07114
-2.43482
-2.5094
-2.58327
-2.65617
-2.72792
-2.79837
-2.86736
-2.93476
-3.00047
-3.06441
-3.12648
-3.1866
-3.24471
-3.30075
-3.35468
-3.40646
-3.45603
-3.50336
-3.54843
-3.59119
-3.63162
-3.66971
-3.70544
-3.73879
-3.76976
-3.79834
-3.82452
-3.84831
-3.86972
-3.88877
-2.3142
-2.38648
-2.45823
-2.52909
-2.59883
-2.6673
-2.73431
-2.79975
-2.86349
-2.92548
-2.98563
-3.04387
-3.10011
-3.15432
-3.20647
-3.25649
-3.30437
-3.35005
-3.39351
-3.43472
-3.47366
-3.51031
-3.54466
-3.57668
-3.60638
-3.63376
-3.65879
-3.6815
-3.70189
-3.71998
-2.20298
-2.27308
-2.34291
-2.4119
-2.47979
-2.54641
-2.61157
-2.67515
-2.73705
-2.7972
-2.85552
-2.91197
-2.96646
-3.01894
-3.06939
-3.11777
-3.16403
-3.20815
-3.2501
-3.28985
-3.32737
-3.36266
-3.3957
-3.42648
-3.45499
-3.48122
-3.50517
-3.52686
-3.54628
-3.56346
-2.09998
-2.16805
-2.23619
-2.30349
-2.36969
-2.43459
-2.49802
-2.55986
-2.62001
-2.67841
-2.73502
-2.78977
-2.84259
-2.89344
-2.94229
-2.9891
-3.03385
-3.0765
-3.11702
-3.15538
-3.19158
-3.22559
-3.2574
-3.287
-3.31438
-3.33954
-3.36248
-3.3832
-3.40171
-3.41804
-2.00412
-2.07038
-2.13714
-2.20294
-2.26759
-2.33091
-2.39271
-2.4529
-2.51141
-2.56816
-2.62313
-2.67627
-2.72752
-2.77682
-2.82416
-2.8695
-2.91281
-2.95407
-2.99324
-3.03031
-3.06525
-3.09806
-3.12871
-3.1572
-3.18352
-3.20768
-3.22966
-3.24947
-3.26713
-3.28265
-1.91443
-1.97939
-2.04516
-2.10966
-2.1729
-2.23474
-2.295
-2.35362
-2.41055
-2.46574
-2.51914
-2.57074
-2.62049
-2.66833
-2.71423
-2.75817
-2.80012
-2.84006
-2.87796
-2.91379
-2.94755
-2.97921
-3.00877
-3.03621
-3.06154
-3.08474
-3.10582
-3.12478
-3.14162
-3.15638
-1.82939
-1.89418
-1.95961
-2.02295
-2.08488
-2.14532
-2.20411
-2.26122
-2.31663
-2.37032
-2.42224
-2.47237
-2.52069
-2.56713
-2.61167
-2.65428
-2.69494
-2.73363
-2.77032
-2.805
-2.83764
-2.86822
-2.89675
-2.92321
-2.94759
-2.9699
-2.99012
-3.00828
-3.02437
-3.03841
-1.74505
-1.81117
-1.87737
-1.93987
-2.00066
-2.05986
-2.11732
-2.17307
-2.22712
-2.27946
-2.33005
-2.37888
-2.42593
-2.47114
-2.51447
-2.55592
-2.59545
-2.63305
-2.66869
-2.70236
-2.73403
-2.76369
-2.79133
-2.81694
-2.84051
-2.86206
-2.88156
-2.89903
-2.91448
-2.92791
-1.65755
-1.72673
-1.79533
-1.85773
-1.91779
-1.97605
-2.03246
-2.08713
-2.14009
-2.19135
-2.24087
-2.28865
-2.33466
-2.37886
-2.42122
-2.46171
-2.50033
-2.53704
-2.57183
-2.60467
-2.63556
-2.66447
-2.69141
-2.71635
-2.73929
-2.76024
-2.77919
-2.79615
-2.81112
-2.82412
-1.59121
-1.66806
-1.73764
-1.79925
-1.85806
-1.91476
-1.96953
-2.02254
-2.07382
-2.12338
-2.1712
-2.21727
-2.26158
-2.3041
-2.34479
-2.38363
-2.42062
-2.45573
-2.48895
-2.52027
-2.54967
-2.57714
-2.60267
-2.62627
-2.64792
-2.66762
-2.68538
-2.70121
-2.7151
-2.72709
0.247711
0.222531
0.194766
0.164212
0.130454
0.0930433
0.0514826
0.0051935
-0.0464993
-0.104381
-0.169364
-0.24251
-0.325055
-0.418436
-0.524323
-0.644659
-0.781694
-0.938039
-1.1167
-1.32115
-1.55534
-1.82377
-2.13146
-2.48396
-2.88747
-3.34893
-3.87167
-4.45286
-5.15212
-6.07928
0.192149
0.165391
0.136628
0.104926
0.0698907
0.0311376
-0.0118306
-0.0596052
-0.11287
-0.172418
-0.239173
-0.314207
-0.398768
-0.494309
-0.602517
-0.72535
-0.865079
-1.02433
-1.20614
-1.41398
-1.65182
-1.92417
-2.23604
-2.59293
-3.00097
-3.46703
-3.99424
-4.57936
-5.28092
-6.20666
0.135654
0.107272
0.0774821
0.0445991
0.00824727
-0.0318882
-0.0763057
-0.125609
-0.180492
-0.241756
-0.310333
-0.387308
-0.473943
-0.571704
-0.682294
-0.807689
-0.95018
-1.11241
-1.29743
-1.50874
-1.75031
-2.02664
-2.34274
-2.70406
-3.11665
-3.58723
-4.11869
-4.70737
-5.41054
-6.33415
0.0782762
0.0482268
0.017382
-0.0167148
-0.0544189
-0.0959742
-0.14188
-0.192753
-0.249296
-0.312319
-0.382764
-0.461728
-0.550485
-0.650516
-0.76354
-0.891552
-1.03686
-1.20213
-1.39042
-1.60524
-1.85059
-2.13095
-2.45131
-2.81708
-3.23422
-3.70929
-4.24496
-4.83723
-5.54268
-6.46615
0.0200554
-0.0117035
-0.0436297
-0.0789733
-0.118066
-0.161078
-0.20851
-0.260993
-0.319238
-0.384063
-0.456421
-0.537421
-0.628348
-0.7307
-0.846211
-0.976892
-1.12507
-1.29342
-1.48504
-1.70343
-1.9526
-2.23704
-2.5617
-2.93195
-3.35366
-3.83324
-4.37315
-4.96911
-5.67726
-6.60172
-0.0389663
-0.0724726
-0.105506
-0.142129
-0.182645
-0.227152
-0.276148
-0.330279
-0.390267
-0.456937
-0.531253
-0.614333
-0.70748
-0.812201
-0.930249
-1.06365
-1.21475
-1.38625
-1.58124
-1.80325
-2.0563
-2.34486
-2.67386
-3.04862
-3.47493
-3.95906
-4.50325
-5.10298
-5.81401
-6.73996
-0.098745
-0.134033
-0.168197
-0.206131
-0.248106
-0.294142
-0.344739
-0.400557
-0.462327
-0.530883
-0.607198
-0.692405
-0.787815
-0.894954
-1.01559
-1.15176
-1.30583
-1.48052
-1.67894
-1.90463
-2.1616
-2.45432
-2.78771
-3.16703
-3.59798
-4.08668
-4.63521
-5.23877
-5.9528
-6.88055
-0.159237
-0.196335
-0.231653
-0.270929
-0.314398
-0.361996
-0.414229
-0.471771
-0.53536
-0.605841
-0.684198
-0.771572
-0.869291
-0.978892
-1.10216
-1.24115
-1.39825
-1.57618
-1.77807
-2.00748
-2.26842
-2.56536
-2.90318
-3.28708
-3.7227
-4.21602
-4.76894
-5.37639
-6.09353
-7.02325
-0.220398
-0.259333
-0.295825
-0.336474
-0.381467
-0.430662
-0.484565
-0.543864
-0.60931
-0.681753
-0.762189
-0.851771
-0.95184
-1.06395
-1.18989
-1.33175
-1.49191
-1.67313
-1.87855
-2.11173
-2.37668
-2.67787
-3.02015
-3.40869
-3.84901
-4.34699
-4.90432
-5.51572
-6.23603
-7.16784
-0.282187
-0.322979
-0.360663
-0.402714
-0.449264
-0.500086
-0.55569
-0.616781
-0.684116
-0.758558
-0.84111
-0.932938
-1.0354
-1.15005
-1.27871
-1.42347
-1.58675
-1.7713
-1.98029
-2.21728
-2.48629
-2.79177
-3.13855
-3.53174
-3.9768
-4.47947
-5.04125
-5.65662
-6.38016
-7.31411
-0.344561
-0.387225
-0.426119
-0.4696
-0.517736
-0.570215
-0.62755
-0.690463
-0.75972
-0.836193
-0.920895
-1.015
-1.11989
-1.23712
-1.36854
-1.51625
-1.68268
-1.87061
-2.0832
-2.32404
-2.59715
-2.90695
-3.25827
-3.65615
-4.10597
-4.61334
-5.1796
-5.79897
-6.52575
-7.46188
-0.40748
-0.452028
-0.492145
-0.537082
-0.586833
-0.640996
-0.70009
-0.764852
-0.836061
-0.914594
-1.00148
-1.0979
-1.20524
-1.3251
-1.45931
-1.61001
-1.77963
-1.97096
-2.1872
-2.43193
-2.70916
-3.02333
-3.37921
-3.7818
-4.2364
-4.7485
-5.31924
-5.94261
-6.67264
-7.61097
-0.470908
-0.517345
-0.558696
-0.605114
-0.656504
-0.712375
-0.773252
-0.83989
-0.913075
-0.993697
-1.08279
-1.18156
-1.29139
-1.41389
-1.55093
-1.70465
-1.87749
-2.07227
-2.29219
-2.54084
-2.82223
-3.14078
-3.50125
-3.90858
-4.36797
-4.8848
-5.46003
-6.08741
-6.82068
-7.76123
-0.53481
-0.583133
-0.625725
-0.673647
-0.726699
-0.7843
-0.846981
-0.915516
-0.990701
-1.07343
-1.16476
-1.2659
-1.37825
-1.50343
-1.64333
-1.80009
-1.97618
-2.17444
-2.39807
-2.65066
-2.93624
-3.25921
-3.62428
-4.03636
-4.50056
-5.02211
-5.60183
-6.2332
-6.9697
-7.91247
-0.599158
-0.649355
-0.693188
-0.74263
-0.797362
-0.856711
-0.921216
-0.991668
-1.06887
-1.15374
-1.24732
-1.35085
-1.46573
-1.59362
-1.7364
-1.89623
-2.07561
-2.27738
-2.50474
-2.76131
-3.05109
-3.37849
-3.74819
-4.16502
-4.63402
-5.16031
-5.74449
-6.37983
-7.11956
-8.06454
-0.663945
-0.715998
-0.761068
-0.812038
-0.86846
-0.929562
-0.995899
-1.06828
-1.14752
-1.23453
-1.33038
-1.43632
-1.55377
-1.68438
-1.83006
-1.99299
-2.17568
-2.38097
-2.61209
-2.87265
-3.16667
-3.49851
-3.87284
-4.29443
-4.76824
-5.29924
-5.88787
-6.52716
-7.27008
-8.21727
-0.729151
-0.783034
-0.82933
-0.881839
-0.939954
-1.00281
-1.07098
-1.14529
-1.22657
-1.31574
-1.41387
-1.52224
-1.64226
-1.77562
-1.92422
-2.09027
-2.27628
-2.48511
-2.72001
-2.98459
-3.28284
-3.61915
-3.99811
-4.42446
-4.90306
-5.43876
-6.03182
-6.67503
-7.42112
-8.37051
-0.794737
-0.850407
-0.89791
-0.951962
-1.01178
-1.0764
-1.14641
-1.22265
-1.30596
-1.39728
-1.49771
-1.6085
-1.73111
-1.86722
-2.01876
-2.18795
-2.3773
-2.5897
-2.82839
-3.09699
-3.3995
-3.74026
-4.12387
-4.55497
-5.03835
-5.57872
-6.17618
-6.82327
-7.5725
-8.52408
-0.860707
-0.9181
-0.966778
-1.02236
-1.08386
-1.15024
-1.22208
-1.30025
-1.38561
-1.47909
-1.58181
-1.69503
-1.82023
-1.9591
-2.11359
-2.28592
-2.47863
-2.69461
-2.9371
-3.20974
-3.51651
-3.86174
-4.24998
-4.68583
-5.17396
-5.71898
-6.3208
-6.97173
-7.72406
-8.67782
-0.92707