/*--------------------------------*- C++ -*----------------------------------*\
  =========                 |
  \\      /  F ield         | OpenFOAM: The Open Source CFD Toolbox
   \\    /   O peration     | Website:  https://openfoam.org
    \\  /    A nd           | Version:  6.0
     \\/     M anipulation  |
\*---------------------------------------------------------------------------*/
FoamFile
{
    version     2.0;
    format      ascii;
    class       surfaceScalarField;
    location    "13";
    object      phi;
}
// * * * * * * * * * * * * * * * * * * * * * * * * * * * * * * * * * * * * * //

dimensions      [0 3 -1 0 0 0 0];

internalField   nonuniform List<scalar> 
4670
(
0.00313501
-0.426175
0.42304
0.0100186
-0.390861
0.383978
0.0182716
-0.372651
0.364399
0.0265363
-0.356096
0.347831
0.0342438
-0.33916
0.331453
0.0412545
-0.321653
0.314642
0.0476431
-0.304193
0.297804
0.0535705
-0.287507
0.28158
0.0592201
-0.272072
0.266423
-0.25806
0.252497
0.0647836
0.00329129
-0.429466
0.0101909
-0.397761
0.0182858
-0.380746
0.0262692
-0.364079
0.0336284
-0.346519
0.0402742
-0.328299
0.0463153
-0.310234
0.0519289
-0.293121
0.0573053
-0.277449
-0.263401
0.0626461
0.00340281
-0.432869
0.0102439
-0.404602
0.018104
-0.388606
0.0257336
-0.371709
0.0326825
-0.353468
0.0389127
-0.334529
0.0445644
-0.315886
0.0498268
-0.298384
0.0548939
-0.282516
-0.268484
0.0599766
0.00344605
-0.436315
0.0101642
-0.41132
0.0177239
-0.396166
0.0249351
-0.37892
0.0314148
-0.359948
0.0371773
-0.340292
0.0423937
-0.321102
0.0472637
-0.303253
0.0519813
-0.287233
-0.273271
0.0567685
0.00344369
-0.439759
0.00997221
-0.417848
0.0171689
-0.403363
0.0239052
-0.385656
0.0298616
-0.365904
0.0351008
-0.345531
0.0398226
-0.325824
0.0442374
-0.307668
0.0485437
-0.29154
-0.277715
0.0529882
0.00339178
-0.443151
0.00967234
-0.424129
0.0164535
-0.410144
0.0226715
-0.391874
0.0280677
-0.3713
0.0327438
-0.350207
0.0369157
-0.329996
0.0408005
-0.311553
0.0446142
-0.295353
-0.281754
0.0486528
0.00330089
-0.446451
0.0092834
-0.430112
0.015598
-0.416458
0.0212518
-0.397528
0.0260537
-0.376102
0.0301463
-0.354299
0.033753
-0.333602
0.0370754
-0.314876
0.0403241
-0.298602
-0.285196
0.0437664
0.00318963
-0.449641
0.00884704
-0.435769
0.0146524
-0.422264
0.0196802
-0.402556
0.0238102
-0.380232
0.0272446
-0.357734
0.0302455
-0.336603
0.0330028
-0.317633
0.0356182
-0.301217
-0.28759
0.0380115
0.00309997
-0.452741
0.00844212
-0.441111
0.0137317
-0.427553
0.0181008
-0.406925
0.0214679
-0.383599
0.024051
-0.360317
0.0261424
-0.338694
0.0280073
-0.319498
0.0298089
-0.303019
-0.289203
0.0314227
0.00309407
-0.455835
0.00813085
-0.446148
0.0129515
-0.432374
0.0167499
-0.410723
0.0194443
-0.386294
0.0211588
-0.362032
0.0219985
-0.339534
0.022096
-0.319595
0.0220886
-0.303012
-0.292233
0.025118
0.480667
0.00252209
-0.483189
0.477906
0.00276091
0.475068
0.00283757
0.472294
0.00277455
0.469524
0.00276966
0.466749
0.00277546
0.463986
0.00276249
0.46124
0.00274629
0.458531
0.00270883
0.00269582
0.481755
0.00500347
-0.484237
0.478792
0.00572363
0.475477
0.00615316
0.471892
0.00635979
0.468059
0.00660234
0.464015
0.00681951
0.459789
0.00698861
0.455412
0.00712294
0.450877
0.00724396
0.00742495
0.461537
0.00625641
-0.462789
0.459802
0.00745842
0.457615
0.0083396
0.454982
0.00899263
0.451963
0.00962226
0.44861
0.0101717
0.444968
0.0106309
0.441073
0.0110177
0.436886
0.0114317
0.0119365
0.430622
0.00651085
-0.430876
0.42994
0.00813988
0.428798
0.00948127
0.427193
0.0105985
0.425183
0.0116319
0.42286
0.0124945
0.420244
0.0132465
0.417353
0.0139093
0.414187
0.0145977
0.0154001
0.399439
0.00627965
-0.399208
0.399283
0.00829658
0.398696
0.0100676
0.397707
0.0115878
0.396359
0.01298
0.394751
0.0141019
0.392886
0.0151118
0.390882
0.0159136
0.388682
0.0167974
0.0177883
0.371522
0.00595788
-0.371201
0.371481
0.00833791
0.371047
0.0105017
0.370278
0.0123567
0.369191
0.0140669
0.367933
0.0153598
0.366446
0.0165993
0.365016
0.0173432
0.363476
0.018337
0.019233
0.347565
0.00575709
-0.347365
0.347419
0.00848392
0.346905
0.0110164
0.346107
0.0131541
0.344987
0.0151878
0.343786
0.0165601
0.342361
0.0180242
0.341282
0.0184225
0.34005
0.0195696
0.0197484
0.327182
0.0057526
-0.327178
0.32685
0.0088156
0.326159
0.0117077
0.325212
0.0141007
0.3239
0.0165006
0.322583
0.0178765
0.320956
0.0196512
0.320141
0.019238
0.318952
0.020758
0.0191053
0.309639
0.00595358
-0.30984
0.309117
0.00933749
0.308241
0.0125831
0.307137
0.0152055
0.305601
0.0180365
0.304094
0.0193827
0.302052
0.0216932
0.30137
0.0199205
0.300313
0.0218144
0.0164073
0.294206
-0.294631
0.0063786
0.2935
0.0100439
0.292464
0.0136182
0.291251
0.0164194
0.289578
0.0197092
0.287933
0.0210274
0.285457
0.0241688
0.284286
0.0210921
0.283054
0.0230458
0.00722891
0.494055
-0.00042848
-0.493627
0.494147
-9.20669e-05
0.493877
0.000270249
0.493268
0.000608701
0.492311
0.000957358
0.49101
0.00130095
0.489411
0.00159879
0.487544
0.00186701
0.4854
0.00214449
0.00221099
0.482516
-0.00357358
-0.479371
0.485073
-0.00264894
0.487034
-0.00169134
0.48838
-0.000736968
0.489113
0.000224283
0.489243
0.00117089
0.488795
0.00204716
0.487791
0.00287094
0.486237
0.00369812
0.00421165
0.447108
-0.0083943
-0.442288
0.451363
-0.00690338
0.454997
-0.00532572
0.457981
-0.00372045
0.460323
-0.00211811
0.462034
-0.000539392
0.463119
0.000961583
0.463586
0.0024042
0.46348
0.0038039
0.00490222
0.407721
-0.0138795
-0.402236
0.412674
-0.0118562
0.417018
-0.00967027
0.420747
-0.00744868
0.423876
-0.00524787
0.426417
-0.00308039
0.42837
-0.000991436
0.42975
0.00102418
0.430605
0.00294935
0.00463117
0.374079
-0.0194874
-0.368471
0.379116
-0.0168935
0.383545
-0.0140993
0.387394
-0.0112981
0.390684
-0.00853803
0.393425
-0.00582058
0.395625
-0.00319238
0.397315
-0.000665614
0.398524
0.00174026
0.00394755
0.347075
-0.0250477
-0.341514
0.351932
-0.021751
0.356153
-0.0183198
0.359828
-0.0149734
0.362959
-0.0116691
0.365557
-0.00841836
0.367655
-0.00529043
0.369289
-0.00229985
0.370477
0.000551752
0.00322439
0.325403
-0.0306173
-0.319833
0.329988
-0.0263365
0.333906
-0.0222378
0.33732
-0.0183868
0.340177
-0.014527
0.342502
-0.0107432
0.344358
-0.00714578
0.345782
-0.00372459
0.346786
-0.000452219
0.00264603
0.30753
-0.0362739
-0.301873
0.311883
-0.0306897
0.315512
-0.0258672
0.318648
-0.0215226
0.321211
-0.0170895
0.323244
-0.0127769
0.324836
-0.00873743
0.326021
-0.00490963
0.326802
-0.0012329
0.0022702
0.292341
-0.0414862
-0.287128
0.296575
-0.0349245
0.300002
-0.0292942
0.3028
-0.0243199
0.305036
-0.0193263
0.306798
-0.0145382
0.308145
-0.0100843
0.309103
-0.00586784
0.309668
-0.0017985
0.0020989
0.278907
-0.277916
-0.0424764
0.283204
-0.0392215
0.28703
-0.0331204
0.289259
-0.0265492
0.291024
-0.0210911
0.29252
-0.0160344
0.293631
-0.0111951
0.294352
-0.00658843
0.294687
-0.00213428
0.00215522
0.0564971
0.222689
-0.217051
-0.0621347
0.0505777
0.234517
-0.228597
0.0443725
0.247949
-0.241744
0.0378455
0.263653
-0.257126
0.0309575
0.282853
-0.275965
0.0237031
0.30753
-0.300276
0.0161882
0.340469
-0.332954
0.00882384
0.384059
-0.376695
0.00272366
0.434244
-0.428144
0.475924
-0.4732
0.0560021
0.22829
-0.0616031
0.0501063
0.240412
0.0439223
0.254133
0.0374161
0.27016
0.0305513
0.289718
0.0233301
0.314751
0.0158731
0.347926
0.00861249
0.39132
0.00266036
0.440196
0.478584
0.0552397
0.23382
-0.0607705
0.0494057
0.246246
0.0432764
0.260263
0.0368215
0.276615
0.0300088
0.296531
0.0228482
0.321912
0.0154742
0.3553
0.00833603
0.398458
0.00254083
0.445991
0.481125
0.0544561
0.239301
-0.0599366
0.0486523
0.25205
0.0425546
0.26636
0.036136
0.283033
0.0293705
0.303296
0.0222754
0.329007
0.0149975
0.362578
0.00800264
0.405453
0.00239132
0.451603
0.483516
0.053224
0.244647
-0.0585707
0.0475406
0.257734
0.0415506
0.27235
0.0352327
0.289351
0.0285677
0.309961
0.0215824
0.335992
0.0144377
0.369723
0.00762099
0.41227
0.00222665
0.456997
0.485743
0.0524569
0.250069
-0.0578787
0.0466796
0.263511
0.0406268
0.278403
0.0343004
0.295678
0.0276826
0.316579
0.0207935
0.342881
0.0137966
0.37672
0.00718103
0.418885
0.00203653
0.462142
0.48778
0.0506218
0.255257
-0.0558098
0.0450296
0.269103
0.039158
0.284275
0.033011
0.301824
0.0265632
0.323027
0.0198471
0.349597
0.0130528
0.383514
0.00668415
0.425254
0.00182867
0.466997
0.489608
0.050454
0.261251
-0.0564483
0.0441616
0.275396
0.0379485
0.290488
0.0317212
0.308052
0.0253274
0.329421
0.0187617
0.356163
0.0121886
0.390087
0.00612196
0.43132
0.00158908
0.47153
0.491197
0.0471004
0.267138
-0.0529864
0.0413086
0.281187
0.0357479
0.296049
0.0299075
0.313892
0.0237659
0.335562
0.0174499
0.362479
0.0111762
0.396361
0.0054714
0.437025
0.00132879
0.475672
0.492526
0.0455858
-0.0563646
0.039645
0.0338205
0.0278796
0.0219275
0.0159359
0.0100614
0.00479897
0.00110068
0.0533811
0.169617
-0.16535
-0.0576481
0.04731
0.17878
-0.172708
0.0411785
0.189079
-0.182948
0.0350663
0.201453
-0.195341
0.028924
0.217063
-0.21092
0.0226491
0.238057
-0.231782
0.0161513
0.267901
-0.261404
0.00949778
0.311327
-0.304673
0.00338504
0.370881
-0.364768
0.443563
-0.440178
0.0526352
0.174801
-0.0578192
0.0473531
0.184062
0.0417752
0.194657
0.0359117
0.207317
0.0297649
0.223209
0.0233292
0.244493
0.0165998
0.274631
0.00972866
0.318198
0.00348206
0.377128
0.447045
0.0529996
0.179729
-0.0579273
0.047862
0.189199
0.0423646
0.200155
0.0365189
0.213163
0.0303175
0.229411
0.0237563
0.251054
0.0168608
0.281526
0.00982807
0.325231
0.00347955
0.383476
0.450525
0.0538811
0.184563
-0.0587152
0.048664
0.194416
0.0430674
0.205751
0.037108
0.219122
0.0307768
0.235742
0.0240645
0.257766
0.0170113
0.28858
0.00984337
0.332399
0.00343591
0.389884
0.45396
0.0547974
0.189566
-0.0598006
0.0494215
0.199792
0.0436963
0.211476
0.0376108
0.225207
0.0311456
0.242207
0.0242921
0.26462
0.0170952
0.295776
0.00982026
0.339674
0.00338219
0.396322
0.457343
0.0555807
0.194791
-0.0608055
0.0500482
0.205325
0.044194
0.217331
0.0379895
0.231412
0.0314051
0.248792
0.0244292
0.271596
0.0171175
0.303088
0.00976042
0.347031
0.00331602
0.402766
0.460659
0.0562208
0.200205
-0.0616348
0.0505447
0.211001
0.0445667
0.223309
0.0382504
0.237728
0.03156
0.255482
0.0244821
0.278673
0.0170815
0.310489
0.00966967
0.354443
0.00324502
0.409191
0.463904
0.056686
0.205761
-0.0622417
0.050887
0.2168
0.0448026
0.229393
0.0383917
0.244139
0.0316144
0.262259
0.0244571
0.285831
0.0169936
0.317952
0.0095581
0.361878
0.00316822
0.415581
0.467072
0.0569151
0.211398
-0.0625523
0.0510342
0.222681
0.044876
0.235551
0.0383986
0.250617
0.0315607
0.269097
0.0243504
0.293041
0.016853
0.32545
0.00942694
0.369304
0.0031011
0.421907
0.470173
0.0568819
-0.0625347
0.0509656
0.0447725
0.0382626
0.0313948
0.0241601
0.0166553
0.00926458
0.00302723
-0.155102
0.0524533
-0.062702
-0.150729
0.04419
-0.0485622
-0.14763
0.0387437
-0.0418433
-0.145502
0.0320701
-0.0341978
-0.144123
0.0259892
-0.0273682
-0.143524
0.0198421
-0.0204411
-0.14369
0.0137615
-0.0135952
-0.144636
0.00769924
-0.00675377
-0.146355
0.00170005
1.88475e-05
-0.00417836
-0.148828
0.0066514
-0.16582
0.0455644
-0.161179
0.0395492
-0.157551
0.0351161
-0.155106
0.0296252
-0.153513
0.0243964
-0.15276
0.019089
-0.152809
0.0138103
-0.153657
0.00854687
-0.155285
0.00332809
-0.00179903
-0.157664
-0.176683
0.0392992
-0.172159
0.0350257
-0.168371
0.0313276
-0.165653
0.0269076
-0.163817
0.0225608
-0.162839
0.0181107
-0.162683
0.0136537
-0.163333
0.009197
-0.164769
0.0047643
0.000393071
-0.166961
-0.189404
0.033362
-0.184747
0.0303685
-0.180809
0.0273896
-0.177824
0.0239229
-0.175695
0.0204322
-0.174416
0.0168309
-0.173962
0.0131999
-0.174318
0.00955353
-0.175468
0.00591387
0.00230964
-0.177384
-0.205149
0.0275909
-0.200271
0.0254904
-0.1961
0.023218
-0.192793
0.0206161
-0.190301
0.0179405
-0.188633
0.0151632
-0.18778
0.0123463
-0.187731
0.00950441
-0.188474
0.0066572
0.00382548
-0.18999
-0.22596
0.0217685
-0.220811
0.0203414
-0.216321
0.0187284
-0.212607
0.0169017
-0.209656
0.0149896
-0.207487
0.0129946
-0.206101
0.01096
-0.205495
0.0088982
-0.205661
0.00682395
0.00475144
-0.206587
-0.255367
0.0157318
-0.249878
0.0148527
-0.244982
0.0138323
-0.240765
0.0126842
-0.23724
0.0114647
-0.234432
0.0101873
-0.232349
0.0088769
-0.230994
0.00754304
-0.230363
0.00619288
0.00483544
-0.230447
-0.298435
0.0094936
-0.292634
0.00905162
-0.287329
0.00852733
-0.282592
0.00794677
-0.278447
0.00731986
-0.274921
0.00666094
-0.272023
0.00597946
-0.269762
0.00528177
-0.268135
0.0045664
0.00383377
-0.267134
-0.358876
0.00360148
-0.353289
0.00346391
-0.348056
0.00329493
-0.343239
0.00312985
-0.338861
0.00294124
-0.334942
0.00274252
-0.331495
0.00253239
-0.328529
0.00231547
-0.326048
0.00208563
0.00182189
-0.324036
-0.436576
-0.433113
-0.429818
-0.426688
-0.423746
-0.421004
-0.418472
-0.416156
-0.41407
-0.412249
-0.152016
-0.00980601
0.012994
-0.155846
-0.0152189
0.0190486
-0.160238
-0.0202865
0.0246788
-0.165081
-0.0249287
0.0297718
-0.170223
-0.0290706
0.0342122
-0.175479
-0.0326641
0.0379205
-0.180622
-0.0357788
0.0409215
-0.185382
-0.0386287
0.0433892
-0.190128
-0.0412436
0.045989
-0.0445498
-0.193007
0.047429
-0.160754
-0.00671618
-0.164478
-0.0114947
-0.168753
-0.0160116
-0.173473
-0.0202089
-0.178503
-0.0240405
-0.183677
-0.0274902
-0.188836
-0.0306197
-0.193909
-0.0335558
-0.198712
-0.0364405
-0.0400605
-0.203201
-0.169875
-0.0038024
-0.17344
-0.00792966
-0.177582
-0.0118694
-0.18221
-0.0155808
-0.187213
-0.0190373
-0.192464
-0.0222393
-0.197857
-0.0252274
-0.203333
-0.0280796
-0.20878
-0.0309936
-0.0343842
-0.214456
-0.180044
-0.00114285
-0.183385
-0.00458907
-0.187344
-0.00790963
-0.191848
-0.0110776
-0.196805
-0.0140794
-0.202121
-0.0169235
-0.207713
-0.0196361
-0.213515
-0.0222771
-0.219502
-0.025007
-0.0279874
-0.225898
-0.192266
0.00113298
-0.195248
-0.00160684
-0.198887
-0.0042702
-0.203124
-0.00684052
-0.20789
-0.0093139
-0.213111
-0.0117024
-0.218722
-0.0140249
-0.224668
-0.0163314
-0.230954
-0.0187205
-0.0212301
-0.237712
-0.208274
0.0028194
-0.210675
0.000794164
-0.213755
-0.00118955
-0.21747
-0.00312568
-0.221771
-0.00501275
-0.226612
-0.00686223
-0.23194
-0.00869684
-0.237718
-0.0105534
-0.243957
-0.0124816
-0.0144775
-0.250709
-0.231266
0.00363858
-0.232779
0.00230667
-0.234963
0.000994279
-0.237792
-0.000296462
-0.241237
-0.00156761
-0.245271
-0.0028278
-0.249865
-0.00410328
-0.254999
-0.00541917
-0.260679
-0.00680178
-0.00824028
-0.266916
-0.266797
0.00330162
-0.267083
0.00259274
-0.267982
0.00189342
-0.269489
0.00121034
-0.271585
0.000529203
-0.274266
-0.000147669
-0.277526
-0.000842569
-0.281358
-0.00158704
-0.285769
-0.00239161
-0.00325523
-0.290754
-0.322496
0.00176175
-0.321436
0.00153192
-0.320848
0.00130604
-0.320739
0.00110164
-0.321105
0.000894807
-0.321941
0.000687844
-0.323259
0.000476093
-0.325085
0.000238328
-0.327432
-4.41931e-05
-0.000400166
-0.330287
-0.410487
-0.408955
-0.407649
-0.406547
-0.405652
-0.404965
-0.404488
-0.40425
-0.404294
-0.404695
0.000431936
-0.405127
0.00379822
-0.333653
0.00940648
-0.296362
0.0162215
-0.273731
0.0234984
-0.257986
0.0307822
-0.244996
0.0378527
-0.232969
0.0447243
-0.221328
0.0517041
-0.210181
-0.200275
0.0589728
0.000759527
-0.405886
0.00465133
-0.337545
0.0107955
-0.302506
0.0180809
-0.281017
0.0257292
-0.265634
0.0332744
-0.252541
0.0404883
-0.240183
0.0473344
-0.228174
0.0538597
-0.216706
-0.206211
0.0597952
0.0010974
-0.406983
0.0054954
-0.341943
0.0121337
-0.309144
0.0198307
-0.288714
0.0277938
-0.273597
0.0355742
-0.260321
0.0429649
-0.247574
0.0498895
-0.235098
0.0562325
-0.223049
-0.211702
0.0617236
0.00140666
-0.40839
0.00629752
-0.346834
0.013385
-0.316232
0.0214208
-0.296749
0.0296067
-0.281783
0.0375097
-0.268224
0.0449415
-0.255005
0.0518513
-0.242008
0.0582328
-0.229431
-0.217538
0.0640685
0.00171859
-0.410109
0.00706453
-0.35218
0.0145411
-0.323708
0.0228446
-0.305053
0.0311827
-0.290121
0.0391473
-0.276189
0.0465784
-0.262436
0.0534553
-0.248885
0.0598067
-0.235782
-0.223366
0.0656344
0.0020206
-0.412129
0.00777898
-0.357938
0.0155785
-0.331508
0.024073
-0.313547
0.0324852
-0.298534
0.0404408
-0.284144
0.0478181
-0.269814
0.054637
-0.255704
0.0609705
-0.242115
-0.229262
0.0668674
0.0023142
-0.414444
0.00843396
-0.364058
0.0164838
-0.339558
0.0250917
-0.322155
0.0335056
-0.306947
0.0413906
-0.29203
0.0486641
-0.277087
0.0553785
-0.262418
0.0616326
-0.24837
-0.235131
0.067501
0.00259316
-0.417037
0.00901798
-0.370483
0.0172408
-0.347781
0.025881
-0.330795
0.0342224
-0.315289
0.0419756
-0.299783
0.0490993
-0.284211
0.0556788
-0.268998
0.0618404
-0.254531
-0.240984
0.0676932
0.00286437
-0.419901
0.00953321
-0.377152
0.0178439
-0.356091
0.0264303
-0.339382
0.0346231
-0.323482
0.0421811
-0.307341
0.0491039
-0.291134
0.0555059
-0.2754
0.0615371
-0.260562
-0.246784
0.0673379
0.0031389
0.00996456
0.0182717
0.0267207
0.0346916
0.0419932
0.0486637
0.054844
0.0607043
0.0664165
0.0597079
-1.11317
1.11825
0.0594377
-0.918299
0.91857
0.0590663
-0.792303
0.792675
0.0599287
-0.678846
0.677984
0.0600177
-0.568982
0.568893
0.0593707
-0.469196
0.469843
0.0584854
-0.378929
0.379814
0.0575484
-0.298526
0.299463
0.0566832
-0.227004
0.227869
0.0559786
-0.163487
0.164192
0.0553634
-0.105451
0.106066
0.0546568
-0.0530063
0.0537129
0.0538366
0.000422676
0.000397494
0.053454
0.0394115
-0.0390289
0.0540165
0.0590429
-0.0596054
0.0540249
0.0164912
-0.0164996
0.0529883
-0.0218577
0.0228942
0.0484129
-0.0960797
0.100655
0.0413681
-0.0767813
0.0838262
0.0939978
-0.0905755
0.0532621
-1.10379
0.0516243
-0.916661
0.0514096
-0.792089
0.0527938
-0.68023
0.0538089
-0.569997
0.0540771
-0.469464
0.0540208
-0.378873
0.0538085
-0.298314
0.0535565
-0.226752
0.0533634
-0.163294
0.0531759
-0.105263
0.0528429
-0.0526733
0.0523563
0.000909246
0.0522041
0.0395638
0.0527795
0.0584675
0.0526024
0.0166684
0.0513692
-0.0206246
0.0467046
-0.0914151
0.0399714
-0.070048
0.0970789
0.0466567
-1.09047
0.0435213
-0.913526
0.0434335
-0.792001
0.0453965
-0.682193
0.0473611
-0.571961
0.0485783
-0.470681
0.0493708
-0.379665
0.0498978
-0.298841
0.0502704
-0.227124
0.0505987
-0.163622
0.050851
-0.105516
0.0509095
-0.0527318
0.0507717
0.00104708
0.0508546
0.0394809
0.0514485
0.0578737
0.0511191
0.0169978
0.0497435
-0.019249
0.0450564
-0.086728
0.0386836
-0.0636752
0.099798
0.0399386
-1.07364
0.035481
-0.909068
0.0354
-0.79192
0.037854
-0.684647
0.0407237
-0.574831
0.042902
-0.47286
0.0445597
-0.381323
0.0458405
-0.300122
0.046849
-0.228133
0.047707
-0.16448
0.0484087
-0.106217
0.0488724
-0.0531955
0.0490944
0.000825057
0.0494162
0.039159
0.0500367
0.0572532
0.0495894
0.0174451
0.048123
-0.0177826
0.0434746
-0.0820796
0.0375026
-0.0577032
0.102138
0.0336404
-1.05429
0.0280733
-0.903501
0.0275445
-0.791391
0.0302216
-0.687325
0.0339148
-0.578524
0.037066
-0.476011
0.0396092
-0.383866
0.041659
-0.302171
0.0433146
-0.229788
0.0447099
-0.165875
0.0458677
-0.107375
0.0467461
-0.0540739
0.0473355
0.000235658
0.0478994
0.0385951
0.048557
0.0565956
0.0480269
0.0179752
0.0465182
-0.0162738
0.0419638
-0.0775253
0.0364257
-0.0521651
0.104087
0.0277887
-1.03343
0.0204919
-0.896204
0.0191004
-0.79
0.022072
-0.690296
0.0267707
-0.583223
0.0310298
-0.48027
0.0345217
-0.387358
0.0373687
-0.305018
0.039686
-0.232106
0.0416261
-0.167816
0.0432451
-0.108994
0.0445443
-0.055373
0.0455056
-0.000725623
0.0463146
0.0377861
0.0470218
0.0558884
0.046444
0.018553
0.0449378
-0.0147677
0.0405269
-0.0731143
0.0354489
-0.0470871
0.105635
0.0188463
-1.00851
0.00905065
-0.886409
0.00803909
-0.788988
0.012491
-0.694748
0.018933
-0.589665
0.0246659
-0.486003
0.0292584
-0.39195
0.0329646
-0.308725
0.0359716
-0.235113
0.0384691
-0.170313
0.0405546
-0.11108
0.0422782
-0.0570966
0.0436139
-0.00206135
0.0446717
0.0367284
0.0454431
0.0551169
0.0448517
0.0191445
0.0433891
-0.0133052
0.0391652
-0.0688904
0.0345673
-0.0424892
0.106773
0.00266234
-0.973156
-0.00701014
-0.876736
-0.00528738
-0.790711
0.00180001
-0.701835
0.0105058
-0.598371
0.0179688
-0.493466
0.0238015
-0.397783
0.0284399
-0.313363
0.0321741
-0.238847
0.0352464
-0.173385
0.0378052
-0.113639
0.0399557
-0.0592472
0.0416676
-0.00377324
0.0429791
0.0354169
0.0438316
0.0542645
0.0432597
0.0197164
0.0418778
-0.0119233
0.0378788
-0.0648914
0.0337751
-0.0383856
0.107497
-0.00571143
-0.936022
-0.0139496
-0.868498
-0.0129912
-0.791669
-0.00611101
-0.708716
0.00311208
-0.607594
0.0115559
-0.50191
0.0183972
-0.404624
0.0239027
-0.318868
0.028348
-0.243292
0.0319915
-0.177029
0.0350204
-0.116667
0.0375936
-0.0618203
0.0396788
-0.00585842
0.0412474
0.0338483
0.0421972
0.0533147
0.0416759
0.0202377
0.0404074
-0.0106548
0.0366661
-0.0611502
0.0330662
-0.0347856
0.107803
0.0301653
-0.941069
0.00491914
-0.843252
-0.00620533
-0.780545
-0.00710562
-0.707815
-0.0015512
-0.613148
0.00619585
-0.509657
0.0134364
-0.411865
0.0195552
-0.324987
0.0246066
-0.248344
0.0287758
-0.181198
0.0322532
-0.120145
0.0352285
-0.0647957
0.0376735
-0.00830339
0.0394872
0.0320345
0.0405443
0.0522576
0.0400998
0.0206822
0.0389718
-0.00952677
0.0355333
-0.0577117
0.0324415
-0.0316937
0.107698
0.391841
-0.794304
-0.538606
0.324954
-0.776365
0.261711
-0.717302
0.201441
-0.647545
0.157873
-0.569581
0.129164
-0.480948
0.109058
-0.391758
0.0948362
-0.310766
0.08521
-0.238717
0.0788491
-0.174837
0.0749251
-0.116221
0.0726595
-0.0625301
0.0720734
-0.00771731
0.0728164
0.0312916
0.0747046
0.0503694
0.0744483
0.0209385
0.0723488
-0.00742727
0.0651526
-0.0505155
0.0579845
-0.0245256
0.107656
0.453865
-0.648893
-0.599277
0.357712
-0.680212
0.287975
-0.647564
0.229496
-0.589066
0.183387
-0.523472
0.150533
-0.448094
0.126962
-0.368188
0.109753
-0.293556
0.0977525
-0.226717
0.0896783
-0.166763
0.0846352
-0.111178
0.0817277
-0.0596227
0.0810743
-0.00706382
0.0819851
0.0303807
0.0842093
0.0481452
0.08388
0.0212678
0.0814918
-0.00503914
0.0737131
-0.0427367
0.06645
-0.0172625
0.106611
0.539102
-0.518911
-0.669084
0.43455
-0.57566
0.352642
-0.565656
0.280736
-0.51716
0.221151
-0.463887
0.178005
-0.404947
0.148016
-0.338198
0.126552
-0.272093
0.111525
-0.21169
0.101401
-0.15664
0.095067
-0.104843
0.0914683
-0.056024
0.0907753
-0.00637085
0.0919683
0.0291878
0.0946225
0.045491
0.0943041
0.0215862
0.0916979
-0.00243291
0.0834973
-0.0345362
0.0764326
-0.0101978
0.104108
0.589561
-0.39461
-0.713862
0.472034
-0.458133
0.380237
-0.473859
0.310214
-0.447137
0.252086
-0.405759
0.205326
-0.358187
0.170515
-0.303388
0.145037
-0.246615
0.126732
-0.193385
0.114182
-0.144089
0.10628
-0.0969415
0.101887
-0.0516311
0.101181
-0.00566446
0.102799
0.0275699
0.106014
0.0422756
0.105865
0.0217352
0.103173
0.000258817
0.0948737
-0.0262365
0.0883434
-0.00366757
0.0995987
0.637729
-0.29175
-0.74059
0.531609
-0.352012
0.440149
-0.382399
0.364039
-0.371027
0.296266
-0.337986
0.238986
-0.300907
0.196085
-0.260488
0.16553
-0.216059
0.143587
-0.171442
0.128227
-0.128729
0.118412
-0.0871263
0.11307
-0.0462895
0.112349
-0.00494266
0.114562
0.0253567
0.118496
0.0383413
0.118778
0.0214536
0.116227
0.00281002
0.108273
-0.0182826
0.102676
0.00192946
0.0924564
0.664662
-0.206323
-0.750089
0.565755
-0.253106
0.469669
-0.286313
0.387882
-0.28924
0.320637
-0.270741
0.265056
-0.245325
0.220976
-0.216408
0.187468
-0.182551
0.162207
-0.146182
0.143798
-0.110319
0.131716
-0.0750447
0.125233
-0.0398063
0.124456
-0.0041654
0.127436
0.022376
0.132285
0.033493
0.133368
0.02037
0.131297
0.00488113
0.124219
-0.0112049
0.120027
0.00612143
0.0820601
0.673102
-0.138009
-0.741415
0.591574
-0.171578
0.50649
-0.201229
0.429019
-0.211769
0.362347
-0.204069
0.303958
-0.186937
0.253929
-0.166379
0.213909
-0.142531
0.183492
-0.115765
0.161294
-0.0881216
0.146573
-0.0603235
0.138766
-0.0319992
0.137886
-0.00328499
0.14179
0.018472
0.147789
0.0274932
0.15012
0.0180396
0.14898
0.00602119
0.143322
-0.00554674
0.141079
0.00836416
0.0679064
0.67624
-0.0845811
-0.729669
0.61031
-0.105648
0.535669
-0.126588
0.46132
-0.137419
0.393734
-0.136483
0.334104
-0.127307
0.282303
-0.114578
0.239359
-0.0995873
0.205653
-0.0820592
0.180472
-0.0629407
0.163375
-0.0432257
0.154284
-0.0229089
0.153324
-0.00232454
0.158295
0.0135008
0.165719
0.0200693
0.169735
0.0140236
0.170027
0.00572956
0.166236
-0.00175597
0.166483
0.0081169
0.0496862
0.690111
-0.0408047
-0.733887
0.635361
-0.050898
0.57056
-0.0617877
0.501661
-0.0685206
0.434809
-0.0696304
0.373449
-0.0659468
0.318634
-0.0597635
0.271407
-0.0523602
0.232961
-0.0436125
0.203715
-0.0336955
0.183699
-0.0232089
0.173088
-0.0122984
0.171998
-0.00123403
0.178125
0.00737384
0.187231
0.0109627
0.19324
0.00801471
0.195335
0.0036351
0.193582
-3.71955e-06
0.196637
0.00506205
0.027239
0.738916
-0.779721
0.688018
0.626231
0.55771
0.48808
0.422133
0.362369
0.310009
0.266397
0.232701
0.209492
0.197194
0.19596
0.203333
0.214296
0.222311
0.225946
0.225942
0.231004
0.624691
0.000345995
-0.618658
0.6287
0.00603477
0.630291
0.0120267
0.629397
0.0173132
0.62538
0.0237265
0.61843
0.0279777
0.606555
0.0360432
0.590478
0.0371692
0.563808
0.0497158
0.0324311
0.649852
-0.00302986
-0.646476
0.651869
0.00401783
0.65237
0.0115257
0.650926
0.0187565
0.647653
0.027
0.641694
0.0339369
0.634531
0.043206
0.624561
0.0471397
0.617828
0.056448
0.0509827
0.671447
-0.00418715
-0.670289
0.672186
0.00327793
0.67266
0.0110523
0.672751
0.0186649
0.673138
0.0266135
0.673489
0.0335859
0.675162
0.0415334
0.675484
0.0468176
0.675956
0.0559757
0.0578549
0.688935
-0.0045193
-0.688603
0.689856
0.00235696
0.691575
0.00933409
0.69401
0.016229
0.697352
0.0232715
0.700862
0.0300767
0.704801
0.0375937
0.707514
0.0441044
0.711288
0.0522017
0.0552819
0.697914
-0.00431911
-0.698114
0.698688
0.00158315
0.700455
0.00756712
0.703088
0.0135961
0.706648
0.019711
0.710995
0.02573
0.716756
0.0318328
0.723533
0.0373271
0.732395
0.0433404
0.0470863
0.695247
-0.00368912
-0.695878
0.69583
0.00100022
0.697693
0.00570439
0.700903
0.0103863
0.705595
0.0150192
0.711776
0.0195492
0.719576
0.0240324
0.728582
0.0283207
0.73914
0.0327829
0.0361376
0.686721
-0.00300664
-0.687404
0.68735
0.00037131
0.68932
0.00373413
0.692649
0.007058
0.697345
0.010323
0.703387
0.0135071
0.71082
0.0165993
0.719595
0.0195459
0.729966
0.0224119
0.0246884
0.682118
-0.00217925
-0.682946
0.682495
-5.64058e-06
0.684087
0.00214275
0.686901
0.00424331
0.69095
0.00627459
0.69624
0.00821639
0.702788
0.0100515
0.710573
0.0117615
0.719634
0.0133503
0.0146542
0.695537
-0.00118953
-0.696526
0.695642
-0.000110974
0.696839
0.000945737
0.699116
0.0019658
0.702456
0.00293531
0.706831
0.00384145
0.712209
0.00467278
0.718552
0.00541913
0.725828
0.00607345
0.00659555
0.747383
-0.748572
0.747272
0.748218
0.750183
0.753119
0.75696
0.761633
0.767052
0.773126
0.51157
0.00784799
-0.561894
0.536331
-0.0639829
0.552753
-0.0495423
0.561727
-0.035523
0.571546
-0.0309104
0.582385
-0.0268728
0.592776
-0.0215861
0.602345
-0.0161574
0.611048
-0.0108372
-0.00545493
0.583733
0.000104394
-0.575989
0.592036
-0.0722858
0.603876
-0.0613826
0.611211
-0.0428576
0.616724
-0.0364232
0.623358
-0.0335072
0.630353
-0.0285807
0.636649
-0.0224538
0.642037
-0.0162247
-0.00989442
0.642185
-0.00995907
-0.632122
0.645002
-0.0751026
0.649662
-0.0660428
0.654842
-0.0480378
0.657971
-0.0395521
0.660629
-0.0361651
0.663675
-0.0316262
0.666516
-0.025295
0.668714
-0.0184233
-0.0114693
0.697945
-0.0195919
-0.688313
0.69357
-0.0707271
0.690825
-0.0632982
0.691319
-0.0485318
0.691385
-0.0396177
0.690418
-0.0351984
0.689507
-0.030715
0.688997
-0.0247846
0.688703
-0.0181292
-0.0113699
0.741008
-0.0275784
-0.733022
0.729715
-0.0594341
0.720463
-0.0540456
0.715673
-0.043742
0.712154
-0.0360988
0.708226
-0.0312706
0.704387
-0.0268754
0.701346
-0.021744
0.699271
-0.016054
-0.0102137
0.758336
-0.0304853
-0.75543
0.743762
-0.0448595
0.731063
-0.0413472
0.722509
-0.035188
0.716155
-0.0297446
0.710378
-0.0254936
0.705095
-0.0215922
0.700789
-0.0174384
0.697717
-0.0129813
-0.00837443
0.752876
-0.0261493
-0.757212
0.739021
-0.0310045
0.726503
-0.0288292
0.716809
-0.0254941
0.70919
-0.0221263
0.702724
-0.0190269
0.697158
-0.0160264
0.692657
-0.0129374
0.689388
-0.00971214
-0.00639058
0.743259
-0.0180312
-0.751377
0.731662
-0.0194071
0.720983
-0.0181504
0.711911
-0.0164229
0.704316
-0.0145305
0.69789
-0.0126013
0.6925
-0.0106364
0.688172
-0.00860908
0.684972
-0.00651274
-0.00436401
0.751995
-0.00914214
-0.760884
0.742083
-0.00949509
0.73286
-0.00892754
0.724613
-0.00817565
0.717397
-0.00731542
0.711188
-0.00639208
0.705972
-0.00542051
0.701769
-0.00440572
0.698611
-0.00335475
-0.00227936
0.804339
-0.813481
0.794844
0.785916
0.77774
0.770425
0.764033
0.758612
0.754207
0.750852
0.128898
0.0309944
-0.0327729
0.134456
0.0950582
-0.100616
0.144485
0.161805
-0.171834
0.159601
0.235203
-0.250318
0.181418
0.315313
-0.33713
0.2099
0.406089
-0.434571
0.249061
0.500801
-0.539962
0.294627
0.605782
-0.651348
0.391451
0.678137
-0.774961
0.769092
-0.939536
0.15065
0.0287077
0.157455
0.0882531
0.169784
0.149476
0.187786
0.217201
0.214984
0.288115
0.248719
0.372354
0.301938
0.447583
0.35335
0.554369
0.470289
0.561199
0.663392
0.175916
0.0259105
0.184001
0.0801683
0.199105
0.134371
0.220016
0.196291
0.254017
0.254113
0.292101
0.334271
0.362122
0.377562
0.422815
0.493676
0.536346
0.447668
0.567616
0.205277
0.0226538
0.214475
0.0709702
0.232529
0.116317
0.255721
0.173099
0.296913
0.212921
0.337614
0.29357
0.418293
0.296883
0.488338
0.42363
0.592597
0.343408
0.471901
0.239352
0.0190201
0.249501
0.0608215
0.270115
0.0957024
0.295111
0.148103
0.340832
0.167201
0.385022
0.249379
0.461887
0.220018
0.544083
0.341435
0.629065
0.258426
0.367945
0.278743
0.0150685
0.289832
0.0497327
0.311547
0.0739875
0.339056
0.120594
0.382613
0.123644
0.434452
0.19754
0.494414
0.160056
0.585451
0.250399
0.652898
0.190978
0.265413
0.324154
0.010932
0.33633
0.0375567
0.356883
0.0534345
0.387891
0.089587
0.423638
0.0878962
0.481723
0.139455
0.526215
0.115564
0.611866
0.164748
0.670047
0.132797
0.178248
0.37681
0.00699221
0.389708
0.0246581
0.408059
0.0350839
0.440225
0.0574209
0.469746
0.0583753
0.52436
0.0848411
0.56306
0.0768638
0.631712
0.0960955
0.682296
0.0822135
0.109167
0.438541
0.00344978
0.451093
0.0121067
0.468329
0.0178477
0.49799
0.0277601
0.526276
0.0300893
0.571435
0.0396822
0.609458
0.0388403
0.661393
0.0441608
0.70448
0.0391267
0.0527634
0.511104
0.523211
0.541058
0.568818
0.598908
0.63859
0.67743
0.721591
0.760717
0.0719456
0.0326269
-0.0338106
0.0738447
0.0996449
-0.101544
0.0763466
0.169727
-0.172229