/*--------------------------------*- C++ -*----------------------------------*\
  =========                 |
  \\      /  F ield         | OpenFOAM: The Open Source CFD Toolbox
   \\    /   O peration     | Website:  https://openfoam.org
    \\  /    A nd           | Version:  6.0
     \\/     M anipulation  |
\*---------------------------------------------------------------------------*/
FoamFile
{
    version     2.0;
    format      ascii;
    class       volVectorField;
    location    "10";
    object      U;
}
// * * * * * * * * * * * * * * * * * * * * * * * * * * * * * * * * * * * * * //

dimensions      [0 1 -1 0 0 0 0];

internalField   nonuniform List<vector> 
19200
(
(0.269759 -9.6382 -1.60859e-20)
(0.124852 -9.10445 7.52779e-21)
(0.136037 -8.69044 3.5128e-21)
(0.167404 -8.36399 3.13191e-21)
(0.194356 -8.09996 3.49237e-21)
(0.224086 -7.87872 2.12448e-22)
(0.256043 -7.68606 5.86642e-22)
(0.288356 -7.512 -3.7149e-22)
(0.320044 -7.34961 4.28537e-21)
(0.350495 -7.19428 1.77886e-21)
(0.379278 -7.04307 -9.00474e-24)
(0.40613 -6.89421 2.80627e-21)
(0.430922 -6.74676 4.63354e-21)
(0.453626 -6.60033 -3.14653e-21)
(0.474286 -6.45491 3.99723e-21)
(0.492997 -6.31067 3.44352e-21)
(0.509885 -6.16793 -3.23811e-21)
(0.525097 -6.02706 5.50855e-21)
(0.538789 -5.88841 -3.50887e-21)
(0.551119 -5.75231 1.74596e-21)
(0.562242 -5.61905 2.44977e-21)
(0.57231 -5.48884 -7.99124e-22)
(0.581463 -5.36182 1.07416e-21)
(0.589833 -5.23805 -1.24989e-21)
(0.597536 -5.11749 2.71877e-21)
(0.604677 -5.00004 6.51291e-22)
(0.611338 -4.88549 -4.3537e-22)
(0.617606 -4.77358 2.59429e-22)
(0.623567 -4.66397 6.15551e-22)
(0.629046 -4.55624 2.2739e-21)
(0.522 -9.63138 -3.66449e-21)
(0.364328 -9.11059 2.31669e-20)
(0.365239 -8.7041 -1.22419e-20)
(0.388489 -8.38309 -1.67718e-20)
(0.408915 -8.12319 -7.59993e-21)
(0.433146 -7.90475 -5.42319e-21)
(0.460244 -7.71372 -1.09953e-20)
(0.488078 -7.54034 1.47888e-21)
(0.515494 -7.3779 -2.40416e-21)
(0.541772 -7.22195 -8.59359e-21)
(0.56642 -7.06969 -2.15028e-20)
(0.589143 -6.91951 1.04423e-20)
(0.609802 -6.77055 -3.90543e-21)
(0.628372 -6.62253 1.4729e-21)
(0.64491 -6.47547 -8.92574e-21)
(0.659524 -6.32964 -3.2731e-21)
(0.672356 -6.18536 3.71916e-22)
(0.68357 -6.04304 1.10552e-20)
(0.693335 -5.90305 -5.80738e-21)
(0.701822 -5.76574 -3.21109e-21)
(0.709197 -5.63139 -1.25666e-20)
(0.715617 -5.50022 3.22211e-21)
(0.721227 -5.37237 -2.01727e-21)
(0.726162 -5.24789 3.56769e-21)
(0.730541 -5.12675 -4.45919e-21)
(0.734461 -5.00881 -2.56448e-21)
(0.738001 -4.89388 8.36309e-22)
(0.74125 -4.78165 1.29586e-21)
(0.744329 -4.67175 -2.29055e-21)
(0.74696 -4.56373 1.05349e-21)
(0.774106 -9.61857 -1.74224e-21)
(0.603924 -9.11077 4.72323e-21)
(0.595049 -8.71195 7.43173e-21)
(0.610556 -8.39653 5.83535e-20)
(0.624704 -8.14091 -3.37927e-20)
(0.643598 -7.92534 3.0693e-20)
(0.665928 -7.73601 -2.75874e-20)
(0.68932 -7.56337 1.47775e-20)
(0.712458 -7.40092 -1.399e-20)
(0.734527 -7.24439 -1.51115e-21)
(0.75498 -7.09116 3.51058e-20)
(0.773498 -6.93971 5.86508e-21)
(0.789941 -6.78932 -1.61807e-20)
(0.80429 -6.63978 1.26477e-20)
(0.816618 -6.4912 -2.99045e-23)
(0.827049 -6.34386 5.36602e-21)
(0.835745 -6.19816 3.84154e-21)
(0.842885 -6.0545 1.29359e-20)
(0.848655 -5.91328 -5.68273e-21)
(0.853237 -5.77487 -1.85806e-21)
(0.856807 -5.63955 -4.91173e-21)
(0.859531 -5.50753 2.17757e-20)
(0.861558 -5.37897 -1.81634e-20)
(0.863025 -5.2539 5.87775e-21)
(0.86405 -5.13229 1.35468e-20)
(0.864728 -5.01399 -1.10236e-20)
(0.865129 -4.89878 1.46882e-20)
(0.865347 -4.78635 -1.57634e-21)
(0.865533 -4.67627 -1.65481e-21)
(0.865293 -4.56808 -1.0623e-20)
(1.02581 -9.59948 -5.82314e-20)
(0.843585 -9.10497 -5.00528e-20)
(0.825354 -8.71401 -6.13001e-20)
(0.833468 -8.40435 1.71547e-21)
(0.841584 -8.15309 3.69183e-21)
(0.855298 -7.94047 -6.87821e-20)
(0.87295 -7.75289 -3.40176e-20)
(0.891932 -7.58103 8.91057e-21)
(0.910784 -7.41861 -1.50995e-21)
(0.928604 -7.26156 1.52069e-20)
(0.944801 -7.1074 -5.99054e-20)
(0.959041 -6.95476 -3.72809e-20)
(0.971184 -6.80302 1.38095e-20)
(0.981228 -6.65206 2.74565e-20)
(0.989259 -6.50204 -3.17719e-20)
(0.995425 -6.35331 -4.9724e-21)
(0.999907 -6.20629 -1.87275e-20)
(1.0029 -6.06141 -8.80453e-21)
(1.00461 -5.91909 1.47723e-20)
(1.00523 -5.77969 -1.88603e-20)
(1.00495 -5.64351 1.64012e-20)
(1.00393 -5.51077 -1.9388e-20)
(1.00234 -5.38161 -1.52322e-20)
(1.00031 -5.25607 -1.09213e-20)
(0.997955 -5.1341 1.26375e-20)
(0.995373 -5.01555 -2.24124e-20)
(0.992623 -4.90019 2.32326e-21)
(0.989803 -4.78766 4.0146e-21)
(0.987091 -4.67753 -1.16558e-20)
(0.983961 -4.5693 2.27869e-21)
(1.27703 -9.57403 -3.45178e-20)
(1.08328 -9.09318 4.80422e-21)
(1.05608 -8.71027 4.23294e-20)
(1.05711 -8.4065 4.4283e-20)
(1.05943 -8.15969 3.18732e-20)
(1.06811 -7.95008 1.3166e-20)
(1.08116 -7.76427 8.06284e-21)
(1.09577 -7.59323 9.27599e-20)
(1.11032 -7.43089 -5.54223e-20)
(1.12385 -7.27336 1.55545e-21)
(1.13573 -7.11834 1.32565e-20)
(1.14562 -6.96458 5.71371e-20)
(1.15338 -6.81158 -3.87287e-20)
(1.15903 -6.65929 2.7766e-20)
(1.16268 -6.50794 -3.07638e-20)
(1.1645 -6.35793 5.26367e-20)
(1.1647 -6.20971 -1.54634e-20)
(1.16348 -6.06373 5.64402e-22)
(1.16107 -5.92043 2.48237e-20)
(1.15767 -5.78017 1.73723e-20)
(1.15349 -5.64325 -1.76649e-20)
(1.14869 -5.50991 2.38225e-20)
(1.14345 -5.38027 -1.08304e-20)
(1.13789 -5.25437 1.24806e-20)
(1.13215 -5.13216 1.38357e-20)
(1.12629 -5.01348 6.07588e-21)
(1.12038 -4.89807 1.84869e-20)
(1.11452 -4.78557 -6.60106e-21)
(1.10891 -4.67549 -2.17955e-21)
(1.10288 -4.56735 -9.91371e-21)
(1.52763 -9.54219 -2.50921e-20)
(1.32292 -9.07534 -1.57034e-20)
(1.28713 -8.7007 -4.78872e-20)
(1.28137 -8.40294 -1.24817e-19)
(1.2781 -8.16065 4.16647e-20)
(1.28189 -7.95409 2.7177e-21)
(1.29043 -7.7701 5.73004e-22)
(1.30067 -7.59992 5.60985e-21)
(1.31091 -7.43769 -3.99711e-21)
(1.32011 -7.27974 -7.16981e-20)
(1.3276 -7.12391 2.99812e-20)
(1.33306 -6.96912 5.15117e-20)
(1.33636 -6.81494 1.32118e-22)
(1.33754 -6.66142 1.89359e-20)
(1.33674 -6.50886 4.67489e-20)
(1.33414 -6.35769 -3.21288e-20)
(1.32997 -6.20838 5.62748e-20)
(1.32448 -6.06143 -2.68282e-20)
(1.31789 -5.91727 4.74053e-20)
(1.31043 -5.77627 -3.55288e-20)
(1.3023 -5.63875 1.57749e-20)
(1.29369 -5.50493 4.13443e-20)
(1.28477 -5.37493 2.35984e-21)
(1.27567 -5.24879 -3.81984e-20)
(1.26651 -5.12645 2.09848e-20)
(1.25737 -5.00775 6.3957e-21)
(1.2483 -4.89242 -6.8537e-21)
(1.2394 -4.78006 2.60702e-20)
(1.2309 -4.67016 9.17768e-21)
(1.22197 -4.56222 -8.46274e-21)
(1.77745 -9.50394 7.0667e-20)
(1.56236 -9.05144 -1.15392e-21)
(1.51838 -8.68526 -9.72064e-20)
(1.50612 -8.39362 1.98013e-20)
(1.49747 -8.15591 -2.75358e-20)
(1.4965 -7.95245 2.00104e-20)
(1.50058 -7.77031 -9.51337e-21)
(1.50649 -7.60101 7.98838e-20)
(1.5124 -7.43894 -8.61841e-20)
(1.51721 -7.28062 2.10521e-20)
(1.52027 -7.12406 -1.47514e-20)
(1.52122 -6.96831 1.07564e-20)
(1.51998 -6.81306 -4.76252e-20)
(1.51661 -6.65842 -3.09813e-21)
(1.51126 -6.50475 7.61908e-20)
(1.50417 -6.35254 -5.23735e-20)
(1.49558 -6.20228 -3.30638e-20)
(1.48575 -6.05448 -2.39823e-20)
(1.47493 -5.90959 4.34641e-20)
(1.46336 -5.76799 9.34355e-21)
(1.45125 -5.62998 -4.26295e-20)
(1.4388 -5.4958 5.66902e-20)
(1.42617 -5.36556 -5.11309e-20)
(1.41351 -5.23931 3.37705e-20)
(1.40093 -5.11696 -1.91541e-20)
(1.38851 -4.99836 5.78494e-21)
(1.37628 -4.88321 9.29537e-21)
(1.36435 -4.77111 -4.15866e-20)
(1.35297 -4.6615 1.7841e-20)
(1.34113 -4.55391 2.77159e-22)
(2.02633 -9.45927 -6.92961e-20)
(1.80148 -9.02145 5.34664e-20)
(1.74968 -8.66391 -9.98115e-20)
(1.73122 -8.37849 1.89899e-19)
(1.71739 -8.14543 -5.3082e-20)
(1.7118 -7.94509 7.54846e-20)
(1.71149 -7.76482 5.90889e-20)
(1.71307 -7.59644 -1.0432e-20)
(1.71462 -7.43458 -1.51155e-20)
(1.71501 -7.27594 -1.58684e-22)
(1.71355 -7.11873 -5.81107e-20)
(1.70993 -6.96211 3.02505e-20)
(1.70407 -6.80588 -3.63402e-20)
(1.69606 -6.65023 -2.87509e-21)
(1.68611 -6.49558 -1.0135e-19)
(1.67445 -6.34245 3.31162e-20)
(1.66137 -6.19137 1.90857e-20)
(1.64715 -6.04286 -2.1597e-20)
(1.63205 -5.89737 -2.53174e-21)
(1.61633 -5.75529 -3.29918e-20)
(1.60021 -5.61693 -1.17808e-20)
(1.58389 -5.48252 1.04094e-21)
(1.56754 -5.35216 -2.86769e-20)
(1.55131 -5.22591 -4.25681e-20)
(1.5353 -5.10368 1.81122e-21)
(1.51959 -4.98529 5.99388e-21)
(1.50421 -4.87045 1.339e-20)
(1.48926 -4.75873 -3.30306e-20)
(1.47501 -4.64952 2.81113e-20)
(1.46028 -4.5424 -5.07068e-20)
(2.27411 -9.40819 -1.71236e-19)
(2.04011 -8.98533 1.97267e-19)
(1.98092 -8.63661 -2.08499e-19)
(1.95652 -8.35751 -5.6376e-20)
(1.93773 -8.12914 -3.60278e-20)
(1.92762 -7.93195 -3.92083e-20)
(1.92297 -7.75359 -8.95975e-20)
(1.92024 -7.58616 -7.61379e-21)
(1.91741 -7.42454 -3.59827e-20)
(1.91332 -7.26566 -7.52907e-21)
(1.90728 -7.10787 6.02953e-20)
(1.89901 -6.95046 -3.42447e-20)
(1.88845 -6.79336 -4.04365e-20)
(1.87574 -6.63682 -6.81191e-20)
(1.86111 -6.48132 1.42893e-19)
(1.84482 -6.3274 -5.47503e-20)
(1.8272 -6.17563 2.0413e-20)
(1.80853 -6.02654 -7.606e-20)
(1.78911 -5.88059 2.92254e-20)
(1.7692 -5.73817 -1.1948e-20)
(1.74904 -5.59959 1.50497e-20)
(1.72883 -5.46507 -5.1555e-21)
(1.70874 -5.33473 4.71454e-20)
(1.68893 -5.2086 -1.66761e-20)
(1.6695 -5.08659 4.6196e-20)
(1.65051 -4.96853 -9.40565e-20)
(1.63198 -4.85412 5.99965e-20)
(1.61403 -4.74289 1.65577e-20)
(1.59694 -4.63421 3.10005e-20)
(1.57932 -4.52769 -8.95742e-20)
(2.52063 -9.35073 2.70405e-19)
(2.27812 -8.94309 -4.97364e-20)
(2.21192 -8.60333 8.97154e-20)
(2.18189 -8.33063 -2.54026e-20)
(2.15831 -8.10699 8.90208e-20)
(2.14381 -7.91298 8.42119e-20)
(2.13489 -7.73655 3.99471e-20)
(2.12784 -7.5701 -1.46606e-20)
(2.12061 -7.40878 -9.1163e-20)
(2.11198 -7.24971 1.33234e-19)
(2.1013 -7.09142 -1.02958e-20)
(2.0883 -6.93334 9.34597e-20)
(2.07298 -6.77547 3.38613e-20)
(2.05549 -6.61816 1.2379e-20)
(2.0361 -6.46193 1.94494e-20)
(2.01513 -6.30737 2.70519e-20)
(1.99291 -6.15505 4.49008e-20)
(1.96975 -6.00552 -1.28979e-20)
(1.94597 -5.85925 6.59575e-20)
(1.92184 -5.71663 3.03261e-20)
(1.89761 -5.57796 -6.31394e-20)
(1.87349 -5.44346 1.11909e-19)
(1.84966 -5.31325 -1.47603e-19)
(1.82626 -5.18736 1.39428e-19)
(1.8034 -5.0657 -4.61244e-20)
(1.78114 -4.94809 -1.90185e-20)
(1.75949 -4.83421 -4.93288e-21)
(1.73856 -4.7236 3.39498e-20)
(1.71865 -4.61556 1.21699e-20)
(1.69817 -4.50976 -1.37512e-20)
(2.76573 -9.28691 -1.54003e-19)
(2.51534 -8.8947 1.43748e-19)
(2.44255 -8.56404 -3.89668e-20)
(2.40716 -8.29782 1.11892e-19)
(2.379 -8.07894 1.10413e-20)
(2.36021 -7.88813 2.40102e-20)
(2.34706 -7.71364 -1.91422e-19)
(2.33571 -7.54822 8.93477e-20)
(2.32403 -7.38724 1.2259e-19)
(2.31082 -7.22806 9.29431e-20)
(2.29543 -7.06935 -1.57931e-19)
(2.27764 -6.91069 9.18429e-20)
(2.25747 -6.75218 -9.14906e-20)
(2.23513 -6.59423 6.28491e-20)
(2.21093 -6.4374 -1.0507e-19)
(2.18521 -6.28233 -7.7848e-20)
(2.15834 -6.12961 4.81105e-21)
(2.13065 -5.97978 -3.55339e-20)
(2.10248 -5.83333 6.3113e-20)
(2.07411 -5.69065 2.51325e-20)
(2.04579 -5.55202 -1.64463e-20)
(2.01775 -5.41768 -4.75813e-21)
(1.99017 -5.28773 1.94143e-20)
(1.96318 -5.1622 -6.48054e-20)
(1.9369 -5.04101 1.07472e-19)
(1.91138 -4.92396 -2.61815e-20)
(1.88661 -4.81074 -4.47381e-20)
(1.86273 -4.70085 9.36224e-20)
(1.84004 -4.59357 1.25853e-20)
(1.81673 -4.48863 -1.22829e-20)
(3.00923 -9.21675 6.15585e-21)
(2.75162 -8.84017 -8.00147e-20)
(2.67265 -8.51873 -7.33313e-20)
(2.63218 -8.25903 -1.21389e-19)
(2.59962 -8.04495 4.23064e-21)
(2.57666 -7.85734 -8.70558e-20)
(2.55932 -7.68483 1.02727e-19)
(2.54366 -7.52045 -5.06779e-20)
(2.5275 -7.35988 8.27287e-20)
(2.50965 -7.20065 -6.81922e-20)
(2.4895 -7.04163 -3.49306e-20)
(2.46684 -6.8825 1.9078e-20)
(2.44175 -6.72346 1.03065e-20)
(2.4145 -6.56499 -1.04627e-19)
(2.38543 -6.40772 6.14922e-20)
(2.35491 -6.25228 -3.04052e-20)
(2.32334 -6.0993 8.61555e-20)
(2.29109 -5.94933 -2.83446e-20)
(2.2585 -5.80284 2.9505e-20)
(2.22586 -5.66023 7.31588e-21)
(2.19344 -5.52179 5.01838e-20)
(2.16147 -5.38773 -1.02167e-20)
(2.13013 -5.25817 8.23586e-20)
(2.09956 -5.13312 -9.15862e-20)
(2.06987 -5.01251 -3.10227e-20)
(2.0411 -4.89614 2.5334e-20)
(2.01325 -4.78369 -2.59134e-21)
(1.98645 -4.67465 -6.95014e-20)
(1.961 -4.56825 3.56518e-20)
(1.9349 -4.4643 -3.89031e-20)
(3.25099 -9.14028 2.59925e-19)
(2.9868 -8.7795 6.67463e-20)
(2.90206 -8.46738 8.01175e-20)
(2.8568 -8.21424 1.07862e-19)
(2.82003 -8.00496 1.61827e-19)
(2.79299 -7.82059 -4.90819e-21)
(2.7715 -7.65006 2.3407e-20)
(2.75153 -7.48678 2.73013e-19)
(2.73086 -7.32666 7.85293e-20)
(2.70831 -7.16747 -6.60378e-20)
(2.68332 -7.00822 1.1589e-19)
(2.65572 -6.84873 1.95216e-20)
(2.62566 -6.68929 9.77071e-22)
(2.59344 -6.53045 2.75299e-20)
(2.55943 -6.37287 4.90397e-20)
(2.52407 -6.21722 -1.00656e-19)
(2.48777 -6.06413 8.55263e-20)
(2.45091 -5.91416 1.43415e-20)
(2.41387 -5.76778 8.31365e-20)
(2.37695 -5.62539 -4.5073e-20)
(2.34042 -5.48727 7.41717e-20)
(2.30452 -5.35362 -7.88232e-20)
(2.26942 -5.22457 7.60782e-20)
(2.23527 -5.10013 1.05989e-20)
(2.20218 -4.98022 -5.09933e-20)
(2.17019 -4.86465 -1.66349e-20)
(2.13928 -4.75309 9.741e-20)
(2.10959 -4.645 -1.46997e-20)
(2.08143 -4.53959 1.88242e-20)
(2.05257 -4.43677 -1.20238e-20)
(3.49082 -9.05755 2.62628e-20)
(3.22071 -8.71269 5.80519e-20)
(3.13062 -8.40996 2.36142e-19)
(3.08084 -8.16343 -3.83911e-19)
(3.04004 -7.95896 -3.78917e-20)
(3.00903 -7.77782 -4.1161e-20)
(2.98343 -7.6093 1.82476e-20)
(2.95913 -7.44715 2.42017e-20)
(2.93391 -7.28754 6.08444e-20)
(2.90662 -7.12847 -1.08052e-19)
(2.87672 -6.9691 -2.08897e-20)
(2.84412 -6.80937 5.99441e-20)
(2.80902 -6.64967 6.44733e-20)
(2.77176 -6.49059 -6.43059e-20)
(2.73278 -6.33285 -6.33389e-20)
(2.69252 -6.17713 1.02606e-19)
(2.65145 -6.02408 6.67061e-20)
(2.60997 -5.87427 -1.72515e-20)
(2.56846 -5.72816 -4.24929e-20)
(2.52725 -5.58612 7.63963e-21)
(2.4866 -5.44846 -9.76042e-20)
(2.44676 -5.31537 1.1738e-19)
(2.40791 -5.18695 -8.01422e-20)
(2.37019 -5.06324 -3.35829e-21)
(2.33372 -4.94415 5.26098e-20)
(2.29852 -4.82948 -1.63867e-20)
(2.26458 -4.71892 -4.94571e-20)
(2.23204 -4.61191 7.68059e-21)
(2.20122 -4.50761 -2.04126e-21)
(2.16966 -4.40604 9.40317e-21)
(3.72858 -8.96859 -1.95995e-20)
(3.4532 -8.63976 -6.07684e-20)
(3.35817 -8.34648 -2.71954e-19)
(3.30415 -8.10657 9.74508e-20)
(3.25949 -7.90691 -2.955e-20)
(3.2246 -7.729 9.68076e-20)
(3.19492 -7.56252 7.07257e-21)
(3.16628 -7.40153 -1.10905e-19)
(3.13647 -7.24251 9.45111e-21)
(3.10438 -7.08364 -1.50358e-19)
(3.06952 -6.92425 -5.87813e-21)
(3.03186 -6.76441 3.61492e-20)
(2.99165 -6.60457 -6.2262e-20)
(2.9493 -6.44541 7.05575e-20)
(2.90529 -6.28766 -1.34436e-19)
(2.86011 -6.13203 -3.02451e-20)
(2.81424 -5.97918 8.07614e-20)
(2.76812 -5.82967 -1.00802e-22)
(2.72212 -5.68397 -5.07742e-20)
(2.6766 -5.54245 1.3761e-19)
(2.63184 -5.40539 -7.36511e-20)
(2.58806 -5.27297 -9.85166e-20)
(2.54546 -5.14532 3.27506e-20)
(2.50419 -5.02246 -9.51649e-20)
(2.46436 -4.90429 -2.28716e-20)
(2.42598 -4.79065 -2.90701e-21)
(2.38903 -4.6812 -6.16501e-20)
(2.35368 -4.57538 7.37e-20)
(2.32025 -4.47231 -2.62035e-20)
(2.28604 -4.37214 4.23931e-20)
(3.96409 -8.87345 -9.21005e-20)
(3.68411 -8.56073 -2.43088e-19)
(3.58455 -8.27694 1.17271e-19)
(3.52656 -8.04365 -1.1117e-19)
(3.47821 -7.8488 -8.21265e-20)
(3.43953 -7.67412 -4.72889e-20)
(3.40579 -7.50968 -1.72627e-19)
(3.3728 -7.34991 1.16834e-19)
(3.33837 -7.19154 -2.08347e-19)
(3.30142 -7.03295 -2.88868e-19)
(3.26153 -6.87366 3.74138e-20)
(3.21875 -6.71383 6.17623e-20)
(3.17338 -6.554 -1.08027e-21)
(3.1259 -6.3949 -1.1701e-19)
(3.07682 -6.2373 2.72216e-20)
(3.02668 -6.08192 -1.05231e-19)
(2.97598 -5.92943 -7.53936e-20)
(2.92519 -5.78039 -4.50859e-20)
(2.87471 -5.63525 -8.9262e-21)
(2.82488 -5.49438 7.6481e-20)
(2.77599 -5.35806 1.08979e-19)
(2.72829 -5.22646 -3.2601e-20)
(2.68196 -5.0997 -3.12193e-20)
(2.63715 -4.97779 6.05952e-20)
(2.59396 -4.86068 3.36222e-20)
(2.55243 -4.74816 -2.65948e-20)
(2.51252 -4.63995 -2.95691e-20)
(2.4744 -4.53543 3.3559e-21)
(2.43841 -4.43371 2.63845e-20)
(2.4016 -4.33507 -3.77644e-20)
(4.19719 -8.77218 -1.78438e-20)
(3.91327 -8.47561 3.0666e-19)
(3.80959 -8.20133 2.35554e-19)
(3.7479 -7.97466 1.82553e-19)
(3.69603 -7.7846 -1.17994e-19)
(3.65364 -7.61314 -2.3551e-20)
(3.61587 -7.45077 2.14936e-20)
(3.57851 -7.29225 1.47944e-19)
(3.53941 -7.1346 5.5409e-20)
(3.49754 -6.97641 8.39961e-20)
(3.45258 -6.81733 -1.84665e-19)
(3.40462 -6.65764 1.88874e-20)
(3.35404 -6.49797 7.43633e-20)
(3.30137 -6.33909 4.51391e-20)
(3.24719 -6.18179 9.37117e-20)
(3.19206 -6.02682 -6.37813e-20)
(3.13652 -5.87484 -5.8881e-20)
(3.08105 -5.72642 1.135e-20)
(3.02607 -5.582 1.24671e-19)
(2.97194 -5.44194 -2.00594e-19)
(2.91893 -5.30649 6.97232e-20)
(2.86731 -5.17584 -4.85283e-22)
(2.81726 -5.05009 1.30675e-19)
(2.76892 -4.92927 -5.6477e-20)
(2.72241 -4.81331 -3.02387e-21)
(2.67774 -4.70204 -3.56202e-20)
(2.6349 -4.59517 -3.13631e-20)
(2.59405 -4.49207 6.62008e-21)
(2.55557 -4.39181 -7.69133e-20)
(2.51624 -4.29484 1.12216e-19)
(4.42773 -8.66483 -3.3886e-19)
(4.14052 -8.38444 -1.86342e-19)
(4.03313 -8.11968 -4.74173e-19)
(3.96801 -7.8996 -2.13905e-19)
(3.91278 -7.7143 1.98316e-19)
(3.86674 -7.54606 -1.16152e-19)
(3.82496 -7.38577 -2.75079e-20)
(3.78322 -7.22856 -7.58212e-20)
(3.7394 -7.07171 1.27483e-19)
(3.69258 -6.91401 -1.17472e-19)
(3.64247 -6.75526 1.40677e-20)
(3.58928 -6.59585 -5.68635e-21)
(3.53344 -6.43648 -1.81887e-19)
(3.47555 -6.27797 -7.22473e-21)
(3.41623 -6.12113 4.80439e-20)
(3.35609 -5.96674 -5.27322e-21)
(3.29569 -5.81544 -1.83366e-19)
(3.23554 -5.6678 1.77715e-19)
(3.17607 -5.52426 -1.7364e-19)
(3.11763 -5.38514 6.75231e-20)
(3.06052 -5.25071 9.48041e-21)
(3.00499 -5.12114 3.83571e-21)
(2.95123 -4.99653 -7.03791e-20)
(2.89938 -4.87691 7.04805e-20)
(2.84956 -4.76221 -2.99992e-20)
(2.8018 -4.6523 3.25897e-20)
(2.75605 -4.54687 -1.73672e-19)
(2.71252 -4.44531 4.69991e-20)
(2.67159 -4.34664 5.04239e-20)
(2.62982 -4.25148 5.00028e-20)
(4.65555 -8.55147 6.5905e-19)
(4.3657 -8.28725 2.13781e-19)
(4.25502 -8.03199 1.23711e-19)
(4.18672 -7.81847 1.95107e-19)
(4.12827 -7.63789 -2.44375e-20)
(4.07866 -7.47286 1.44389e-19)
(4.03288 -7.31467 3.18993e-19)
(3.98673 -7.15882 -4.06981e-20)
(3.93817 -7.00284 1.76212e-20)
(3.88633 -6.84574 3.66916e-19)
(3.83103 -6.68745 3.40968e-19)
(3.77255 -6.52846 4.99117e-20)
(3.71142 -6.36955 -1.8166e-20)
(3.64827 -6.21157 -1.54649e-21)
(3.58379 -6.05536 2.55496e-19)
(3.51862 -5.9017 9.84525e-21)
(3.45336 -5.75125 2.68522e-19)
(3.38853 -5.60455 -3.41062e-20)
(3.32456 -5.46203 -5.74475e-20)
(3.26182 -5.32401 1.3352e-19)
(3.20062 -5.19074 -1.21703e-19)
(3.1412 -5.06238 -1.30788e-19)
(3.08374 -4.93903 -1.16933e-20)
(3.0284 -4.82072 -5.76504e-20)
(2.9753 -4.7074 8.71704e-20)
(2.92445 -4.59894 1.0202e-20)
(2.87583 -4.49507 -3.60344e-20)
(2.82967 -4.39516 1.94057e-20)
(2.78636 -4.2982 1.28623e-19)
(2.74222 -4.20499 1.77436e-20)
(4.88047 -8.43215 -1.1338e-19)
(4.58865 -8.18408 -2.14307e-19)
(4.47509 -7.93828 8.69759e-20)
(4.40386 -7.73128 -3.47956e-19)
(4.34234 -7.55538 1.63732e-19)
(4.28922 -7.39354 -2.97773e-19)
(4.23944 -7.23747 -1.93794e-19)
(4.18886 -7.08303 5.34679e-20)
(4.13551 -6.92802 5.17648e-20)
(4.07861 -6.77162 -2.5346e-19)
(4.01807 -6.61392 3.8344e-20)
(3.95427 -6.4555 4.16876e-20)
(3.8878 -6.2972 -1.35582e-19)
(3.81936 -6.13991 -5.34794e-20)
(3.7497 -5.9845 -3.57004e-20)
(3.67949 -5.83174 -3.57092e-20)
(3.60936 -5.6823 -1.47744e-19)
(3.53985 -5.5367 -9.19717e-20)
(3.4714 -5.39535 -1.97155e-20)
(3.40438 -5.25858 7.4449e-20)
(3.3391 -5.12661 1.00285e-19)
(3.2758 -4.99959 -1.08576e-19)
(3.21466 -4.87762 4.0402e-20)
(3.15585 -4.76073 -8.35075e-20)
(3.09948 -4.64889 7.79634e-20)
(3.04557 -4.54198 -1.02518e-19)
(2.99411 -4.43977 3.1813e-20)
(2.94535 -4.34163 -5.01125e-20)
(2.89971 -4.24649 -7.0617e-20)
(2.8533 -4.1554 -6.54667e-21)
(5.10235 -8.30694 -2.3707e-19)
(4.80923 -8.07497 -1.91659e-19)
(4.69319 -7.83859 -1.86909e-19)
(4.61928 -7.63804 -1.36249e-19)
(4.5548 -7.46676 4.16643e-19)
(4.49823 -7.3081 5.74913e-20)
(4.44446 -7.15418 1.74816e-19)
(4.38943 -7.0012 2.64799e-19)
(4.33124 -6.84724 1.26123e-19)
(4.26923 -6.69166 -1.66696e-19)
(4.20341 -6.53468 2.64349e-19)
(4.13424 -6.37699 7.66359e-20)
(4.0624 -6.21945 2.38914e-19)
(3.98866 -6.06302 2.73276e-20)
(3.9138 -5.90858 5.98145e-20)
(3.83855 -5.75689 1.93239e-20)
(3.76356 -5.60861 -7.93429e-22)
(3.68937 -5.46427 -7.05414e-21)
(3.61644 -5.32426 3.1321e-20)
(3.54516 -5.18887 1.05539e-19)
(3.47582 -5.05833 -1.17138e-19)
(3.40866 -4.93278 9.25594e-20)
(3.34387 -4.81231 3.20907e-21)
(3.2816 -4.69695 4.14309e-20)
(3.22197 -4.58668 7.53503e-20)
(3.16502 -4.48143 -1.30175e-20)
(3.11074 -4.38098 7.41814e-20)
(3.05942 -4.2847 1.06615e-19)
(3.01151 -4.19152 -1.15512e-19)
(2.9629 -4.10269 -6.27811e-20)
(5.32104 -8.17593 6.91422e-19)
(5.02728 -7.95999 -7.01421e-20)
(4.90916 -7.73295 1.43902e-19)
(4.83279 -7.53875 2.62783e-19)
(4.76548 -7.37205 -7.4576e-19)
(4.7055 -7.21655 7.91521e-20)
(4.64774 -7.06479 -2.78423e-19)
(4.58823 -6.91335 2.73252e-19)
(4.52517 -6.76053 -2.16058e-19)
(4.45801 -6.6059 1.14843e-19)
(4.38687 -6.44978 -4.1604e-19)
(4.3123 -6.29295 1.56785e-20)
(4.23506 -6.13635 -4.47647e-19)
(4.15599 -5.98095 2.01527e-19)
(4.07594 -5.82763 1.03244e-19)
(3.99564 -5.67718 1.56078e-19)
(3.91579 -5.53023 -1.70001e-19)
(3.83694 -5.3873 -1.34354e-20)
(3.75957 -5.24877 1.32851e-20)
(3.68405 -5.11492 3.68315e-20)
(3.61067 -4.98595 -2.06492e-19)
(3.53967 -4.86199 -6.16602e-21)
(3.47124 -4.74312 -1.14207e-19)
(3.40552 -4.6294 -2.67984e-20)
(3.34265 -4.52081 -6.94413e-20)
(3.28267 -4.4173 -7.54257e-20)
(3.22558 -4.31869 -7.80301e-20)
(3.17172 -4.22439 1.28683e-19)
(3.12158 -4.13328 3.43095e-20)
(3.07088 -4.04686 -6.01713e-20)
(5.53638 -8.03917 -4.60296e-19)
(5.24267 -7.83919 1.56298e-19)
(5.12287 -7.62139 -2.64461e-19)
(5.04425 -7.43345 3.96626e-20)
(4.97421 -7.27125 4.22376e-19)
(4.91084 -7.11889 -2.1245e-19)
(4.84909 -6.96933 -2.19124e-19)
(4.78507 -6.81949 -1.86225e-19)
(4.71711 -6.66792 9.30068e-21)
(4.64475 -6.51434 1.17582e-19)
(4.56825 -6.35923 -8.45813e-20)
(4.48825 -6.20343 4.29477e-21)
(4.4056 -6.04793 1.86623e-19)
(4.3212 -5.89372 1.16022e-19)
(4.23594 -5.7417 3.28258e-20)
(4.15062 -5.59265 -1.0208e-19)
(4.06593 -5.4472 3.85517e-20)
(3.98244 -5.30584 8.38291e-20)
(3.90064 -5.16894 9.2893e-20)
(3.8209 -5.03676 -1.01663e-19)
(3.74351 -4.90948 1.54358e-20)
(3.66869 -4.78724 8.60555e-20)
(3.59664 -4.67009 1.48645e-19)
(3.5275 -4.5581 3.85541e-20)
(3.46139 -4.45126 -1.51536e-19)
(3.39837 -4.34957 1.75597e-19)
(3.33848 -4.2529 -8.76704e-20)
(3.28209 -4.16065 -1.04094e-19)
(3.22977 -4.07173 -6.37678e-20)
(3.17706 -3.98788 -7.71644e-20)
(5.74826 -7.89676 2.424e-19)
(5.45528 -7.71264 -1.79199e-19)
(5.33417 -7.50394 6.84844e-20)
(5.25348 -7.32213 3.54603e-19)
(5.18079 -7.16438 9.5057e-20)
(5.11408 -7.01514 -8.1172e-20)
(5.04833 -6.86781 1.9442e-19)
(4.97977 -6.71964 4.55839e-20)
(4.90686 -6.56943 1.78799e-19)
(4.82928 -6.41705 9.77735e-20)
(4.74739 -6.26309 3.914e-21)
(4.66194 -6.10848 6.03655e-20)
(4.57386 -5.95424 -1.90826e-20)
(4.48413 -5.8014 -1.67227e-19)
(4.39368 -5.65085 -2.42052e-20)
(4.30334 -5.50336 -4.91189e-20)
(4.21383 -5.35956 1.19931e-19)
(4.12573 -5.21992 1.21214e-19)
(4.03953 -5.08479 -1.37621e-19)
(3.9556 -4.95441 1.403e-19)
(3.87423 -4.82897 2.96411e-19)
(3.79563 -4.70855 -1.9065e-19)
(3.71997 -4.59323 1.90318e-19)
(3.64741 -4.48306 -1.33269e-19)
(3.57807 -4.37806 -1.86473e-20)
(3.51202 -4.27825 1.41254e-19)
(3.44931 -4.18357 -2.86419e-20)
(3.39038 -4.09347 1.05362e-19)
(3.33589 -4.00685 1.04233e-19)
(3.28126 -3.92575 -1.85089e-19)
(5.95656 -7.74877 -2.33987e-19)
(5.66499 -7.58039 1.01051e-19)
(5.54293 -7.38062 4.17241e-20)
(5.46032 -7.20482 -4.12624e-19)
(5.38505 -7.05143 -2.11645e-19)
(5.31501 -6.90532 1.56829e-19)
(5.24524 -6.76027 -4.32028e-19)
(5.17213 -6.61385 5.15891e-19)
(5.09424 -6.4651 -2.87862e-19)
(5.0114 -6.31405 3.41631e-20)
(4.92409 -6.1614 -5.41407e-20)
(4.83317 -6.00814 -1.59455e-19)
(4.73967 -5.85534 3.26292e-19)
(4.64461 -5.70403 1.21845e-19)
(4.54898 -5.55512 1.56225e-19)
(4.45365 -5.40936 3.13999e-21)
(4.35935 -5.26736 6.85508e-20)
(4.26669 -5.12959 -1.48719e-19)
(4.17613 -4.99637 3.10589e-20)
(4.08805 -4.86793 1.01016e-19)
(4.00272 -4.74443 -4.25627e-20)
(3.92036 -4.62595 6.90656e-20)
(3.84113 -4.51255 -1.35909e-19)
(3.76516 -4.40429 1.94793e-19)
(3.69258 -4.30119 4.49778e-20)
(3.62347 -4.20333 -1.22639e-19)
(3.55791 -4.11068 -1.05559e-19)
(3.49641 -4.02278 2.09078e-22)
(3.43973 -3.93856 1.44235e-19)
(3.38323 -3.86039 -3.10825e-20)
(6.1612 -7.59527 -6.47217e-20)
(5.87173 -7.44249 -4.20151e-19)
(5.74902 -7.25146 4.96898e-19)
(5.66461 -7.08153 3.32548e-19)
(5.5868 -6.93245 3.28335e-19)
(5.51343 -6.78945 8.97173e-20)
(5.43965 -6.64673 1.34421e-19)
(5.36194 -6.50216 6.71064e-20)
(5.27905 -6.35499 -2.67024e-19)
(5.19093 -6.20541 4.83445e-19)
(5.09819 -6.05423 -3.84489e-19)
(5.00179 -5.90248 -2.53047e-20)
(4.90286 -5.75129 5.50101e-20)
(4.80249 -5.60169 -2.414e-19)
(4.70172 -5.45457 3.7843e-19)
(4.60143 -5.31071 7.12645e-20)
(4.50238 -5.17067 -1.58778e-19)
(4.40519 -5.03491 6.04835e-20)
(4.31031 -4.90374 -1.16704e-19)
(4.21812 -4.77736 -1.02568e-19)
(4.12889 -4.65591 -1.08686e-19)
(4.0428 -4.53947 2.46565e-20)
(3.96002 -4.42808 1.35959e-20)
(3.88065 -4.32179 -2.62361e-19)
(3.80483 -4.22066 -9.91505e-20)
(3.73264 -4.12476 6.38127e-20)
(3.66418 -4.03417 7.87215e-20)
(3.60001 -3.94849 -1.08481e-19)
(3.54106 -3.86673 -4.12507e-20)
(3.48267 -3.79161 3.25092e-21)
(6.3622 -7.43634 -5.61308e-20)
(6.07543 -7.299 2.7214e-19)
(5.95227 -7.11648 -7.7012e-20)
(5.86615 -6.95226 -9.35342e-20)
(5.78584 -6.80743 -5.07245e-19)
(5.70915 -6.66758 -1.10362e-19)
(5.63133 -6.52723 2.06258e-19)
(5.54902 -6.38461 -1.35777e-19)
(5.46109 -6.23914 -1.45418e-20)
(5.36767 -6.09119 -2.69759e-20)
(5.26949 -5.94163 1.45543e-19)
(5.16762 -5.79158 -2.2699e-19)
(5.06328 -5.64216 -1.50192e-19)
(4.95763 -5.49444 1.74811e-19)
(4.85174 -5.3493 -9.87237e-20)
(4.74654 -5.20748 4.66354e-20)
(4.64279 -5.06956 9.40431e-21)
(4.54112 -4.93595 -3.9752e-20)
(4.44198 -4.80695 1.45275e-19)
(4.34574 -4.68274 -1.32197e-19)
(4.25265 -4.56345 -1.0585e-19)
(4.16288 -4.44914 9.22254e-20)
(4.07657 -4.33984 -1.04502e-20)
(3.99384 -4.23559 -6.78091e-20)
(3.91478 -4.13645 5.97287e-20)
(3.83948 -4.04254 -1.84553e-19)
(3.76805 -3.95399 1.12418e-19)
(3.70112 -3.87051 -1.82469e-21)
(3.63978 -3.79117 -1.16226e-19)
(3.57951 -3.71904 1.56336e-19)
(6.55985 -7.2722 2.23827e-19)
(6.27615 -7.15 -5.3042e-19)
(6.15256 -6.97564 -4.40464e-20)
(6.06474 -6.817 2.41239e-19)
(5.98194 -6.67639 -6.07195e-20)
(5.90195 -6.5397 -1.72072e-19)
(5.82008 -6.40182 7.8126e-20)
(5.73314 -6.26125 9.00238e-20)
(5.64017 -6.11763 7.11393e-21)
(5.54143 -5.97144 1.08478e-19)
(5.43781 -5.82368 3.44178e-19)
(5.33049 -5.67549 -1.20125e-19)
(5.22076 -5.52803 3.00439e-20)
(5.10986 -5.38236 -7.91907e-20)
(4.9989 -5.23936 3.00415e-19)
(4.88884 -5.09975 -5.39271e-20)
(4.78046 -4.96409 7.9525e-20)
(4.67437 -4.83277 -1.33369e-19)
(4.57105 -4.70606 7.21254e-20)
(4.47082 -4.58414 1.0856e-19)
(4.37392 -4.4671 1.83885e-20)
(4.28052 -4.35499 7.20229e-20)
(4.19074 -4.24784 -5.91211e-20)
(4.10465 -4.14568 1.64042e-19)
(4.02236 -4.04857 -6.6699e-20)
(3.94393 -3.95665 2.4304e-19)
(3.86948 -3.87012 -7.00844e-20)
(3.79969 -3.78875 4.80416e-20)
(3.73588 -3.71169 -9.05613e-20)
(3.67388 -3.64265 1.51258e-19)
(6.75491 -7.10316 -4.91816e-19)
(6.47407 -6.99535 1.76967e-20)
(6.3497 -6.82881 -2.67559e-19)
(6.26013 -6.67568 4.75624e-20)
(6.17488 -6.53933 1.36749e-20)
(6.09159 -6.40588 -2.26413e-19)
(6.00568 -6.27056 -4.22502e-19)
(5.9141 -6.13215 2.08106e-19)
(5.81608 -5.99052 -2.92714e-19)
(5.71203 -5.84627 -1.52312e-19)
(5.60297 -5.70047 -8.58327e-20)
(5.49022 -5.55432 -6.67857e-20)
(5.37514 -5.409 1.0478e-21)
(5.25904 -5.26555 -2.38169e-19)
(5.14307 -5.12485 1.53135e-19)
(5.02822 -4.98761 -2.51808e-19)
(4.91527 -4.85435 -6.35272e-20)
(4.80485 -4.72546 7.17306e-20)
(4.69741 -4.60116 -2.86526e-20)
(4.59327 -4.48163 8.37835e-20)
(4.49265 -4.36693 6.40368e-20)
(4.39569 -4.25709 -1.59895e-19)
(4.30248 -4.15213 1.59836e-19)
(4.21307 -4.05208 -1.71682e-20)
(4.12753 -3.95698 -4.24655e-20)
(4.0459 -3.86703 -1.67729e-19)
(3.9683 -3.7824 -8.86174e-20)
(3.89542 -3.70284 1.63434e-19)
(3.8286 -3.62791 -5.38314e-20)
(3.76436 -3.56319 -4.91844e-20)
(6.94774 -6.92838 2.14385e-19)
(6.66901 -6.83421 1.92367e-20)
(6.54339 -6.67568 -5.16247e-20)
(6.45203 -6.52832 -1.11382e-20)
(6.36442 -6.39637 -9.07165e-20)
(6.2779 -6.26626 3.06378e-19)
(6.18796 -6.1336 -1.42221e-19)
(6.09175 -5.99748 9.28348e-20)
(5.98867 -5.85796 3.79937e-20)
(5.87932 -5.71581 1.34071e-19)
(5.76484 -5.57214 -5.07356e-20)
(5.64668 -5.42821 2.8626e-19)
(5.5263 -5.28519 -2.42639e-20)
(5.40505 -5.14414 1.81404e-19)
(5.28414 -5.00591 -3.02455e-19)
(5.16457 -4.87119 -2.21539e-20)
(5.04714 -4.74048 1.9212e-19)
(4.93247 -4.61413 -1.1877e-19)
(4.82101 -4.49237 4.86579e-20)
(4.71305 -4.37532 8.2683e-20)
(4.60881 -4.26303 -1.20134e-19)
(4.50838 -4.15551 1.31763e-19)
(4.41184 -4.05277 -1.22834e-19)
(4.31918 -3.95479 2.66406e-20)
(4.23043 -3.86165 9.84079e-20)
(4.14556 -3.77348 6.78801e-20)
(4.06467 -3.69036 6.3492e-20)
(3.98818 -3.61202 4.6841e-20)
(3.91644 -3.53926 -1.26201e-19)
(3.84703 -3.47969 -4.80493e-20)
(9.98736 0.0129562 2.79066e-21)
(9.97716 -0.250119 2.73875e-20)
(9.96066 -0.511577 9.51739e-20)
(9.93809 -0.771828 5.19996e-20)
(9.90903 -1.03099 -1.10528e-19)
(9.87326 -1.28901 3.34189e-20)
(9.83075 -1.54578 -3.4945e-20)
(9.78153 -1.80116 -8.85242e-20)
(9.72562 -2.055 4.66157e-20)
(9.66308 -2.30712 -5.42254e-20)
(9.59394 -2.55737 -5.43277e-20)
(9.51827 -2.80556 -1.16016e-19)
(9.43614 -3.05153 -3.34525e-19)
(9.34761 -3.29512 3.06889e-20)
(9.25277 -3.53616 -1.4343e-20)
(9.15169 -3.77448 -1.06459e-19)
(9.04445 -4.00992 2.26215e-19)
(8.93114 -4.24234 1.23757e-19)
(8.81186 -4.47157 2.37057e-19)
(8.68669 -4.69746 1.16241e-19)
(8.55573 -4.91987 -2.62212e-19)
(8.41909 -5.13865 1.04072e-20)
(8.27688 -5.35367 -5.00135e-19)
(8.1292 -5.56478 7.60332e-19)
(7.97617 -5.77188 -2.49848e-19)
(7.81792 -5.97483 -3.26185e-19)
(7.65458 -6.17356 -4.81838e-20)
(7.48631 -6.36804 -5.40956e-21)
(7.31321 -6.55831 -2.52159e-19)
(7.13593 -6.74449 4.44362e-19)
(9.9598 -0.124531 1.03572e-20)
(9.94158 -0.385892 1.51848e-20)
(9.91614 -0.64559 3.66377e-21)
(9.88393 -0.9038 -1.33356e-19)
(9.84498 -1.16056 -1.19742e-19)
(9.79923 -1.41576 1.05857e-19)
(9.74671 -1.66926 1.30988e-19)