/*--------------------------------*- C++ -*----------------------------------*\
| =========                 |                                                 |
| \\      /  F ield         | OpenFOAM: The Open Source CFD Toolbox           |
|  \\    /   O peration     | Version:  v1912                                 |
|   \\  /    A nd           | Website:  www.openfoam.com                      |
|    \\/     M anipulation  |                                                 |
\*---------------------------------------------------------------------------*/
FoamFile
{
    version     2.0;
    format      ascii;
    class       volVectorField;
    location    "24.5";
    object      U;
}
// * * * * * * * * * * * * * * * * * * * * * * * * * * * * * * * * * * * * * //

dimensions      [0 1 -1 0 0 0 0];


internalField   nonuniform List<vector> 
19200
(
(0.635997 -19.3754 -8.00998e-20)
(0.141148 -18.5821 0)
(0.335289 -17.9712 0)
(0.332984 -17.4945 0)
(0.37226 -17.0812 0)
(0.417087 -16.6968 0)
(0.457387 -16.3233 -1.58016e-20)
(0.494319 -15.952 1.54969e-20)
(0.52785 -15.5802 0)
(0.557763 -15.2084 0)
(0.58423 -14.8387 -2.27572e-20)
(0.607597 -14.4735 1.31783e-21)
(0.628256 -14.1151 2.06333e-20)
(0.646599 -13.7655 0)
(0.662987 -13.4261 1.66697e-20)
(0.677743 -13.098 -9.10686e-22)
(0.691138 -12.7816 -1.51948e-20)
(0.703396 -12.4771 0)
(0.714699 -12.1845 0)
(0.725193 -11.9036 0)
(0.734995 -11.6339 0)
(0.744203 -11.375 0)
(0.752899 -11.1265 9.40691e-21)
(0.76116 -10.8877 -9.2567e-21)
(0.769061 -10.658 0)
(0.776666 -10.4365 0)
(0.784011 -10.2223 -1.44318e-20)
(0.791238 -10.014 1.42127e-20)
(0.798681 -9.81023 0)
(0.805378 -9.60904 0)
(1.14244 -19.3596 -1.04929e-19)
(0.629683 -18.5961 5.29258e-20)
(0.808087 -17.9919 0)
(0.793306 -17.5221 0)
(0.821631 -17.1118 0)
(0.856075 -16.7279 0)
(0.88612 -16.3534 -1.29441e-19)
(0.912777 -15.9803 6.23759e-20)
(0.935986 -15.6062 -1.85856e-21)
(0.955569 -15.232 -3.19977e-21)
(0.971771 -14.8599 -9.45403e-20)
(0.98502 -14.4925 8.72853e-20)
(0.995778 -14.1322 -4.1544e-20)
(1.00449 -13.7809 0)
(1.01156 -13.4401 0)
(1.01733 -13.1108 0)
(1.02209 -12.7934 0)
(1.02605 -12.4881 0)
(1.0294 -12.1948 0)
(1.03227 -11.9132 0)
(1.03476 -11.6431 -2.24243e-20)
(1.03695 -11.3838 0)
(1.03891 -11.1349 -3.79565e-20)
(1.0407 -10.8959 3.73504e-20)
(1.04238 -10.666 -3.3209e-20)
(1.04398 -10.4444 3.26921e-20)
(1.04551 -10.2302 0)
(1.04712 -10.022 2.73312e-20)
(1.04922 -9.8183 -2.69216e-20)
(1.05051 -9.61719 2.5317e-20)
(1.64972 -19.3317 -2.16194e-19)
(1.11876 -18.5975 -9.80062e-20)
(1.28196 -17.9998 5.92116e-21)
(1.25508 -17.5374 8.8349e-20)
(1.2726 -17.1302 0)
(1.29671 -16.747 -1.39234e-19)
(1.31647 -16.3719 7.43785e-20)
(1.33277 -15.9971 1.25518e-19)
(1.34554 -15.621 -5.6422e-20)
(1.35466 -15.2446 -9.99428e-20)
(1.36048 -14.8704 9.80721e-20)
(1.36349 -14.5011 0)
(1.36425 -14.1391 -7.8793e-20)
(1.36324 -13.7864 7.73673e-20)
(1.36092 -13.4445 -6.97946e-20)
(1.35764 -13.1142 0)
(1.35371 -12.796 0)
(1.34933 -12.4901 0)
(1.34469 -12.1964 0)
(1.33989 -11.9145 9.40854e-20)
(1.33504 -11.644 -7.01003e-20)
(1.3302 -11.3845 8.19348e-20)
(1.3254 -11.1355 -8.06097e-20)
(1.32071 -10.8964 -7.16022e-20)
(1.31614 -10.6665 1.3749e-19)
(1.31173 -10.445 -1.28747e-19)
(1.30744 -10.2309 6.18084e-20)
(1.30342 -10.023 0)
(1.30016 -9.81949 2.66505e-20)
(1.29598 -9.61863 0)
(2.15553 -19.2909 -4.23508e-19)
(1.60753 -18.5862 2.13939e-19)
(1.75629 -17.9952 -1.81302e-19)
(1.71789 -17.5403 1.15691e-20)
(1.7248 -17.1364 1.62863e-19)
(1.73862 -16.7541 0)
(1.74808 -16.3784 0)
(1.75393 -16.0023 0)
(1.75615 -15.6244 3.34081e-19)
(1.75471 -15.2461 -6.46193e-21)
(1.75002 -14.8701 -9.86854e-20)
(1.7427 -14.4992 -1.71493e-19)
(1.73336 -14.1358 1.68354e-19)
(1.72256 -13.782 1.46893e-19)
(1.71078 -13.4392 -7.44726e-20)
(1.69841 -13.1082 0)
(1.68574 -12.7896 0)
(1.67299 -12.4833 0)
(1.66032 -12.1894 0)
(1.64785 -11.9073 0)
(1.63564 -11.6368 8.84585e-20)
(1.62373 -11.3773 -8.70095e-20)
(1.61217 -11.1283 0)
(1.60097 -10.8892 -7.22169e-20)
(1.59016 -10.6595 1.38685e-19)
(1.57972 -10.4382 -1.29895e-19)
(1.5696 -10.2245 6.23667e-20)
(1.55996 -10.0169 5.57177e-20)
(1.55134 -9.8138 -1.33854e-19)
(1.54166 -9.61337 -4.9221e-20)
(2.66045 -19.2374 2.17009e-19)
(2.09633 -18.5624 4.09103e-19)
(2.23105 -17.9781 3.78007e-19)
(2.18146 -17.531 1.67092e-19)
(2.17794 -17.1304 3.07137e-19)
(2.1815 -16.7492 4.42317e-22)
(2.18061 -16.3732 2.76704e-19)
(2.17595 -15.9959 3.73599e-19)
(2.16752 -15.6164 1.14177e-19)
(2.15539 -15.2365 2.09208e-19)
(2.14009 -14.859 6.23577e-21)
(2.12234 -14.4867 1.83317e-19)
(2.10283 -14.1223 5.19688e-21)
(2.08217 -13.7676 4.5724e-19)
(2.06088 -13.4242 -4.23781e-19)
(2.03936 -13.0929 2.6595e-19)
(2.01792 -12.774 0)
(1.99677 -12.4676 0)
(1.97607 -12.1737 1.05593e-19)
(1.95589 -11.8917 0)
(1.93631 -11.6213 9.18052e-20)
(1.91734 -11.362 8.32624e-20)
(1.899 -11.1132 -8.19158e-20)
(1.88129 -10.8744 7.49444e-20)
(1.86423 -10.6449 0)
(1.84776 -10.4241 0)
(1.83183 -10.2108 6.16378e-20)
(1.81658 -10.0037 5.78348e-20)
(1.80262 -9.8012 5.13322e-20)
(1.78742 -9.60136 -1.09342e-19)
(3.16395 -19.171 -2.18631e-19)
(2.5848 -18.5259 -4.09102e-19)
(2.70587 -17.9485 -5.61337e-19)
(2.64547 -17.5092 -1.56367e-19)
(2.63167 -17.1122 -2.96601e-19)
(2.62502 -16.7321 1.07388e-20)
(2.61374 -16.3559 -2.68077e-19)
(2.59847 -15.9777 -2.46577e-19)
(2.57929 -15.597 -2.27011e-19)
(2.55637 -15.2157 -4.12792e-19)
(2.53038 -14.837 1.30146e-20)
(2.50211 -14.4637 3.6379e-19)
(2.47235 -14.0984 -1.59638e-19)
(2.44178 -13.7433 1.5872e-19)
(2.41093 -13.3995 4.21838e-19)
(2.38023 -13.0681 -1.34705e-19)
(2.35 -12.7492 0)
(2.32044 -12.443 1.14201e-19)
(2.29168 -12.1493 2.07194e-19)
(2.2638 -11.8676 -2.96343e-19)
(2.23683 -11.5975 9.74913e-20)
(2.21079 -11.3386 2.54201e-19)
(2.18567 -11.0902 7.25485e-20)
(2.16147 -10.8518 -3.00646e-19)
(2.13815 -10.6228 2.15259e-19)
(2.11568 -10.4025 0)
(2.09395 -10.1898 5.29409e-22)
(2.07312 -9.98349 1.13983e-19)
(2.05385 -9.78166 -2.68548e-21)
(2.03312 -9.58262 1.05408e-19)
(3.66583 -19.0916 4.18306e-19)
(3.07273 -18.4767 -4.34519e-19)
(3.18052 -17.9064 0)
(3.10962 -17.475 -3.4999e-19)
(3.08569 -17.0816 -3.10186e-19)
(3.06883 -16.7029 -2.75838e-19)
(3.04713 -16.3267 2.79443e-19)
(3.02118 -15.9478 0)
(2.99115 -15.5661 -2.29635e-19)
(2.95734 -15.1838 0)
(2.92056 -14.804 -3.89469e-19)
(2.8817 -14.43 -3.59777e-19)
(2.84164 -14.0643 -1.65869e-19)
(2.80109 -13.7089 -1.53581e-19)
(2.76065 -13.3651 1.35431e-19)
(2.72076 -13.0338 -4.05029e-19)
(2.68171 -12.7153 0)
(2.64372 -12.4095 -1.14201e-19)
(2.60691 -12.1162 7.36244e-22)
(2.57132 -11.8351 -9.91236e-20)
(2.53698 -11.5655 0)
(2.50388 -11.3071 8.27241e-20)
(2.47199 -11.0593 -2.4711e-19)
(2.44129 -10.8215 5.89369e-22)
(2.41174 -10.5932 6.79093e-20)
(2.38328 -10.3735 -6.51244e-21)
(2.35577 -10.1616 -6.82088e-20)
(2.3294 -9.95616 -2.92896e-19)
(2.30486 -9.7552 5.79651e-20)
(2.27861 -9.55716 0)
(4.16572 -18.9992 -1.04968e-21)
(3.55979 -18.4148 0)
(3.65467 -17.8517 -3.70627e-19)
(3.57358 -17.4283 1.06513e-18)
(3.53965 -17.0387 -1.09662e-20)
(3.51261 -16.6614 2.85754e-19)
(3.48043 -16.2855 5.36076e-19)
(3.44372 -15.9061 -1.59325e-20)
(3.40275 -15.5236 -8.19563e-21)
(3.35797 -15.1405 2.05957e-19)
(3.31032 -14.7602 -3.87079e-19)
(3.2608 -14.3857 5.53661e-19)
(3.21038 -14.0199 -3.25269e-19)
(3.15983 -13.6645 3.19384e-19)
(3.10977 -13.321 -2.79556e-19)
(3.06066 -12.9901 1.49932e-20)
(3.0128 -12.6721 2.55095e-19)
(2.96639 -12.367 0)
(2.92152 -12.0744 1.02271e-19)
(2.87823 -11.794 -2.0583e-19)
(2.83653 -11.5253 1.823e-19)
(2.79637 -11.2676 -8.95535e-21)
(2.75772 -11.0205 -1.67603e-19)
(2.72054 -10.7835 -7.61327e-20)
(2.68479 -10.556 0)
(2.65036 -10.3372 6.73631e-20)
(2.6171 -10.1262 0)
(2.58524 -9.92175 0)
(2.55548 -9.72184 0)
(2.52374 -9.525 0)
(4.6633 -18.8938 -8.90378e-19)
(4.04567 -18.3401 8.35353e-19)
(4.12802 -17.7844 -7.72151e-19)
(4.03702 -17.369 -3.51859e-19)
(3.99323 -16.9833 9.29417e-21)
(3.95601 -16.6077 1.08464e-20)
(3.9133 -16.2322 -2.72601e-19)
(3.86576 -15.8526 0)
(3.81376 -15.4696 0)
(3.75794 -15.0861 -1.38205e-20)
(3.69933 -14.7054 -4.06475e-19)
(3.6391 -14.3308 7.18537e-19)
(3.57828 -13.9651 -1.98642e-20)
(3.51769 -13.6101 -3.21273e-19)
(3.458 -13.2672 2.90049e-19)
(3.39967 -12.937 -2.61262e-19)
(3.343 -12.6198 4.99649e-19)
(3.28817 -12.3156 -2.38759e-19)
(3.23526 -12.024 0)
(3.18429 -11.7445 5.78062e-21)
(3.13523 -11.4767 9.75872e-21)
(3.08804 -11.22 4.0403e-21)
(3.04266 -10.9739 0)
(2.99903 -10.7378 0)
(2.95708 -10.5112 0)
(2.91671 -10.2934 -6.73631e-20)
(2.87775 -10.0836 0)
(2.84044 -9.88029 2.32806e-19)
(2.80552 -9.68158 -1.0464e-20)
(2.76834 -9.48617 -4.43285e-19)
(5.15822 -18.7755 1.33503e-18)
(4.53004 -18.2526 -4.28473e-19)
(4.60022 -17.7045 -4.02688e-19)
(4.49961 -17.2972 0)
(4.44606 -16.9155 0)
(4.39869 -16.5417 0)
(4.34541 -16.1668 0)
(4.28695 -15.7873 -9.9711e-19)
(4.22386 -15.4041 4.80832e-19)
(4.1569 -15.0203 4.2805e-19)
(4.08729 -14.6396 0)
(4.0163 -14.2653 -3.65008e-19)
(3.94504 -13.9 -3.29082e-19)
(3.8744 -13.5457 1.81545e-20)
(3.80507 -13.2036 9.47191e-21)
(3.73752 -12.8744 -2.62869e-19)
(3.67204 -12.5584 2.58283e-19)
(3.60881 -12.2553 -2.27619e-19)
(3.54788 -11.9649 2.23745e-19)
(3.48925 -11.6866 -2.02393e-19)
(3.43287 -11.42 -1.9021e-19)
(3.37867 -11.1644 5.22159e-19)
(3.32658 -10.9194 -5.06308e-19)
(3.27651 -10.6844 3.02825e-19)
(3.22841 -10.459 -2.98051e-19)
(3.18214 -10.2424 0)
(3.13752 -10.0337 0)
(3.09481 -9.8318 -1.20574e-19)
(3.0548 -9.63446 0)
(3.01221 -9.44069 -3.30645e-19)
(5.65016 -18.6443 -4.70976e-19)
(5.01255 -18.1523 -3.41625e-20)
(5.07093 -17.6119 3.75287e-19)
(4.96101 -17.2129 -3.45087e-19)
(4.89782 -16.8352 -3.17489e-19)
(4.84029 -16.4633 6.02437e-19)
(4.7764 -16.0894 -1.84117e-20)
(4.70697 -15.7101 -5.10918e-19)
(4.63269 -15.327 4.83347e-19)
(4.55454 -14.9434 4.18729e-19)
(4.47387 -14.563 -8.10199e-19)
(4.39207 -14.1892 3.69016e-19)
(4.31035 -13.8246 -3.41447e-19)
(4.22965 -13.4713 0)
(4.15069 -13.1303 0)
(4.07393 -12.8024 -5.36952e-19)
(3.99966 -12.4877 2.67234e-19)
(3.92805 -12.1861 -2.23169e-19)
(3.85913 -11.8971 1.16353e-20)
(3.79287 -11.6202 4.89445e-21)
(3.72919 -11.355 3.81669e-19)
(3.66802 -11.1008 1.6904e-19)
(3.60924 -10.8571 -1.76087e-19)
(3.55279 -10.6234 0)
(3.49856 -10.3992 2.85914e-19)
(3.44643 -10.1839 -1.4365e-19)
(3.39619 -9.97675 0)
(3.34815 -9.7763 1.20574e-19)
(3.30311 -9.5805 3.36645e-19)
(3.2552 -9.38859 -1.1829e-19)
(6.13877 -18.5002 4.24519e-19)
(5.49286 -18.0392 -3.42369e-20)
(5.53983 -17.5066 -2.44868e-20)
(5.42087 -17.1159 -3.70731e-19)
(5.34815 -16.7424 6.55772e-19)
(5.28047 -16.3727 -1.1876e-18)
(5.20593 -15.9998 1.12759e-18)
(5.12545 -15.6211 4.95274e-19)
(5.03993 -15.2383 -2.9488e-20)
(4.95052 -14.8551 -2.67807e-20)
(4.85874 -14.4754 -1.37265e-20)
(4.76611 -14.1024 -9.59763e-21)
(4.67392 -13.739 -3.44141e-19)
(4.58316 -13.3869 1.82877e-20)
(4.49457 -13.0474 1.66673e-20)
(4.40862 -12.7211 5.53709e-19)
(4.3256 -12.408 -2.53377e-19)
(4.24564 -12.108 2.35858e-19)
(4.16875 -11.8207 4.29701e-19)
(4.0949 -11.5455 -2.17448e-19)
(4.02397 -11.2818 -1.9146e-19)
(3.95585 -11.0292 1.78958e-19)
(3.89043 -10.787 0)
(3.82762 -10.5548 -3.07159e-19)
(3.76731 -10.3321 1.43432e-20)
(3.70936 -10.1183 1.45678e-19)
(3.65356 -9.91263 2.53702e-19)
(3.60024 -9.71383 -2.49852e-19)
(3.55026 -9.51975 1.10013e-19)
(3.4971 -9.32992 -1.00171e-20)
(6.6237 -18.3434 2.25868e-18)
(5.97063 -17.9133 4.38753e-19)
(6.00654 -17.3886 -3.55471e-19)
(5.87883 -17.0063 7.45035e-19)
(5.79668 -16.6372 1.30212e-18)
(5.71887 -16.2697 -1.90317e-20)
(5.63363 -15.8981 0)
(5.54205 -15.5202 0)
(5.44523 -15.1381 0)
(5.34451 -14.7557 4.36984e-19)
(5.24159 -14.3769 0)
(5.13811 -14.0052 0)
(5.03544 -13.6431 3.45064e-19)
(4.93463 -13.2926 -3.10119e-19)
(4.83643 -12.9549 5.92424e-19)
(4.74132 -12.6304 -5.58342e-19)
(4.64957 -12.3192 7.54058e-19)
(4.5613 -12.0211 -2.50547e-19)
(4.4765 -11.7357 2.22442e-19)
(4.39509 -11.4624 -4.03532e-19)
(4.31694 -11.2005 9.6776e-19)
(4.24193 -10.9496 -3.70864e-19)
(4.16991 -10.7091 4.9974e-19)
(4.10079 -10.4786 -1.74464e-19)
(4.03444 -10.2575 -1.55413e-19)
(3.97072 -10.0453 1.39778e-19)
(3.90941 -9.84143 3.86814e-19)
(3.8509 -9.64444 -2.51687e-19)
(3.79605 -9.45223 1.1593e-19)
(3.73774 -9.26471 -1.09207e-19)
(7.10463 -18.1739 3.86324e-21)
(6.4455 -17.7748 3.89094e-21)
(6.47074 -17.258 7.91028e-19)
(6.33454 -16.8841 -7.00298e-19)
(6.24308 -16.5194 2.42959e-20)
(6.15513 -16.1544 -6.08358e-19)
(6.05917 -15.7843 -5.43358e-19)
(5.95643 -15.4075 1.0499e-18)
(5.84825 -15.0264 0)
(5.73618 -14.6451 -4.36986e-19)
(5.6221 -14.2676 -3.9267e-19)
(5.50776 -13.8973 3.85401e-19)
(5.39462 -13.537 -3.45065e-19)
(5.28377 -13.1885 0)
(5.17599 -12.8527 -2.80585e-19)
(5.07175 -12.5304 8.44161e-19)
(4.97132 -12.2213 -2.56297e-19)
(4.87479 -11.9254 4.67656e-19)
(4.78211 -11.6422 -1.1157e-18)
(4.69319 -11.3709 8.33543e-19)
(4.60788 -11.1112 -9.72505e-19)
(4.52602 -10.8622 3.73166e-19)
(4.44745 -10.6236 -1.69651e-19)
(4.37206 -10.3949 -1.52418e-19)
(4.29972 -10.1756 1.54356e-20)
(4.23029 -9.96523 4.21701e-19)
(4.16354 -9.7632 -5.26314e-19)
(4.09989 -9.56818 2.5349e-19)
(4.04027 -9.37802 -1.15931e-19)
(3.97693 -9.193 1.10968e-19)
(7.58121 -17.9917 -4.07516e-20)
(6.91714 -17.6235 -1.75771e-18)
(6.93206 -17.1148 -1.55822e-18)
(6.78764 -16.7493 2.37558e-20)
(6.68697 -16.3892 -6.45967e-19)
(6.5889 -16.0269 6.3331e-19)
(6.48218 -15.6585 0)
(6.36824 -15.2831 -5.17022e-19)
(6.24866 -14.9033 0)
(6.12521 -14.5234 0)
(5.99994 -14.1474 -3.94578e-19)
(5.87474 -13.779 7.52206e-19)
(5.75114 -13.4208 -3.58253e-19)
(5.63028 -13.0744 6.26714e-19)
(5.51295 -12.741 -1.49557e-18)
(5.39964 -12.4211 5.71562e-19)
(5.29057 -12.1145 0)
(5.18582 -11.821 -7.0891e-19)
(5.08532 -11.5402 4.60949e-19)
(4.98895 -11.2713 0)
(4.89652 -11.0137 -1.96198e-19)
(4.80786 -10.767 0)
(4.7228 -10.5305 1.62565e-19)
(4.64119 -10.3037 -6.42356e-19)
(4.56293 -10.0864 7.49757e-21)
(4.48783 -9.87802 -2.75917e-19)
(4.4157 -9.67802 -2.52754e-19)
(4.34701 -9.48513 2.55262e-19)
(4.28272 -9.29717 -2.293e-19)
(4.21447 -9.11488 2.37606e-19)
(8.0531 -17.7971 0)
(7.3852 -17.4596 0)
(7.39016 -16.959 7.7063e-19)
(7.2378 -16.602 -2.71236e-20)
(7.128 -16.2465 -6.48888e-19)
(7.01983 -15.887 6.36174e-19)
(6.90231 -15.5207 -5.48376e-19)
(6.77713 -15.1469 1.05954e-18)
(6.64611 -14.7687 -4.80568e-19)
(6.51126 -14.3905 -4.2916e-19)
(6.37479 -14.0166 2.46901e-20)
(6.23874 -13.6503 7.55777e-19)
(6.1047 -13.2944 3.19221e-19)
(5.97387 -12.9506 -3.42335e-19)
(5.84704 -12.6199 -5.8479e-19)
(5.7247 -12.3026 5.74461e-19)
(5.60705 -11.9987 2.60415e-19)
(5.49414 -11.708 0)
(5.38588 -11.4297 0)
(5.28211 -11.1634 2.11148e-19)
(5.18263 -10.9084 5.80096e-19)
(5.08723 -10.664 -7.36808e-19)
(4.99572 -10.4298 1.88769e-19)
(4.90795 -10.2052 8.08301e-19)
(4.82381 -9.99002 -1.59414e-19)
(4.74311 -9.78376 0)
(4.66567 -9.58595 2.67021e-19)
(4.59202 -9.39534 0)
(4.52316 -9.20976 2.30946e-19)
(4.45017 -9.03043 -3.56772e-19)
(8.51996 -17.59 -8.7408e-19)
(7.84933 -17.2831 1.77657e-18)
(7.8447 -16.7907 8.01532e-19)
(7.68463 -16.4422 0)
(7.56581 -16.0915 -6.74241e-19)
(7.44754 -15.735 0)
(7.31921 -15.3709 -5.69473e-19)
(7.18276 -14.999 -1.47182e-20)
(7.04028 -14.6227 -1.67617e-20)
(6.894 -14.2466 -4.45113e-19)
(6.74635 -13.875 -4.10994e-19)
(6.59946 -13.5112 -3.79982e-19)
(6.45502 -13.158 0)
(6.31426 -12.8171 3.08286e-19)
(6.17798 -12.4893 -3.38809e-20)
(6.04665 -12.175 -5.77278e-19)
(5.92048 -11.8741 -7.68994e-19)
(5.79947 -11.5862 2.56015e-19)
(5.68351 -11.3109 4.42169e-19)
(5.57241 -11.0474 -1.05885e-18)
(5.46593 -10.795 2.07711e-19)
(5.36384 -10.5533 0)
(5.26595 -10.3215 0)
(5.17208 -10.0994 1.55317e-19)
(5.08212 -9.88651 -4.65082e-19)
(4.99589 -9.68255 0)
(4.91321 -9.48709 -1.33953e-19)
(4.83468 -9.29893 0)
(4.76137 -9.11588 0)
(4.68381 -8.93973 4.61168e-19)
(8.98147 -17.3707 -1.84453e-18)
(8.30919 -17.0942 -8.66734e-19)
(8.29533 -16.61 -8.01536e-19)
(8.12781 -16.27 0)
(8.00005 -15.9241 1.35132e-18)
(7.8717 -15.5708 -6.01471e-19)
(7.73253 -15.2092 6.06109e-19)
(7.58479 -14.8395 5.42478e-19)
(7.43081 -14.4655 4.84702e-19)
(7.27311 -14.0918 8.78082e-19)
(7.11428 -13.7227 -1.38666e-20)
(6.95658 -13.3619 2.15735e-20)
(6.80178 -13.0117 7.26502e-19)
(6.65114 -12.6739 -6.35787e-19)
(6.50547 -12.3493 6.2442e-19)
(6.36523 -12.0382 5.49005e-19)
(6.2306 -11.7406 -1.05052e-18)
(6.10156 -11.456 9.91083e-19)
(5.97796 -11.1837 -4.44463e-19)
(5.85958 -10.9233 4.36995e-19)
(5.74617 -10.6739 9.6621e-21)
(5.63746 -10.4349 7.45132e-19)
(5.53324 -10.2059 -3.57436e-19)
(5.43333 -9.98635 4.82987e-19)
(5.33761 -9.77596 -1.61288e-19)
(5.2459 -9.57447 0)
(5.15806 -9.38152 0)
(5.07473 -9.19596 -3.69721e-19)
(4.99707 -9.01565 4.89845e-19)
(4.91512 -8.84289 1.18295e-19)
(9.4373 -17.1392 1.84988e-18)
(8.76446 -16.8929 0)
(8.74171 -16.4169 7.80503e-19)
(8.56698 -16.0854 -7.65033e-19)
(8.43036 -15.7444 2.76153e-21)
(8.29194 -15.3945 6.03958e-19)
(8.14193 -15.0357 -5.92213e-19)
(7.98286 -14.6685 0)
(7.8174 -14.297 -4.84705e-19)
(7.64827 -13.926 8.6957e-19)
(7.47828 -13.56 -8.53295e-19)
(7.30981 -13.2023 3.61598e-19)
(7.1447 -12.8554 -1.41813e-18)
(6.98424 -12.5211 3.74156e-20)
(6.82925 -12.2 1.22033e-18)
(6.68016 -11.8925 -5.8265e-19)
(6.53714 -11.5984 5.13523e-19)
(6.40013 -11.3172 -7.49672e-19)
(6.26896 -11.0483 -4.46681e-19)
(6.14337 -10.7911 4.39176e-19)
(6.02308 -10.5449 -5.89666e-19)
(5.90781 -10.309 3.83828e-19)
(5.79732 -10.0829 0)
(5.69143 -9.86614 -1.63844e-19)
(5.59 -9.65845 0)
(5.49288 -9.45961 0)
(5.39993 -9.26934 -5.32129e-19)
(5.3119 -9.08656 3.96474e-19)
(5.23 -8.90914 4.71494e-19)
(5.14387 -8.74001 -9.57581e-19)
(9.88712 -16.8956 -8.86334e-19)
(9.21479 -16.6794 9.20692e-19)
(9.18352 -16.2115 7.83642e-19)
(9.00179 -15.8885 -7.6811e-19)
(8.8564 -15.5526 -6.7985e-19)
(8.70793 -15.2062 -6.06374e-19)
(8.54706 -14.8504 3.69363e-20)
(8.37666 -14.486 1.06024e-18)
(8.19969 -14.1174 -5.03535e-19)
(8.01916 -13.7495 0)
(7.83805 -13.3867 0)
(7.65885 -13.0325 7.46319e-19)
(7.48349 -12.6894 -7.32657e-19)
(7.31327 -12.3588 0)
(7.14902 -12.0415 0)
(6.99116 -11.7378 0)
(6.83982 -11.4475 0)
(6.69491 -11.17 0)
(6.55623 -10.9048 -4.48817e-19)
(6.4235 -10.6511 4.41276e-19)
(6.2964 -10.4082 3.92188e-19)
(6.17463 -10.1756 -3.85764e-19)
(6.05793 -9.95258 0)
(5.9461 -9.73884 0)
(5.83902 -9.53405 0)
(5.73654 -9.33805 0)
(5.63856 -9.15064 0)
(5.54588 -8.97081 0)
(5.45986 -8.79648 0)
(5.36975 -8.6312 0)
(10.3306 -16.6402 0)
(9.65988 -16.4537 0)
(9.62042 -15.9939 0)
(9.4319 -15.6794 0)
(9.27781 -15.3486 1.37031e-18)
(9.1193 -15.006 1.25885e-18)
(8.94757 -14.6534 5.97452e-19)
(8.76583 -14.2921 1.61383e-18)
(8.57737 -13.9267 0)
(8.38546 -13.5623 0)
(8.19326 -13.2031 1.64528e-18)
(8.0034 -12.8528 -1.54414e-18)
(7.81785 -12.5136 2.14512e-18)
(7.63795 -12.187 -1.83214e-20)
(7.46453 -11.8739 6.15848e-19)
(7.29797 -11.5743 1.6146e-20)
(7.13838 -11.2879 1.07958e-18)
(6.98565 -11.0144 4.83044e-19)
(6.83953 -10.753 -1.14482e-20)
(6.69971 -10.5031 4.21292e-19)
(6.56586 -10.2638 -4.14302e-19)
(6.43764 -10.0347 0)
(6.31477 -9.81505 3.54977e-19)
(6.19706 -9.60454 3.32934e-19)
(6.08438 -9.40286 3.12549e-19)
(5.97659 -9.20989 2.93674e-19)
(5.87361 -9.02553 5.38549e-19)
(5.77636 -8.84882 -2.35844e-20)
(5.68632 -8.67777 -9.76837e-19)
(5.59247 -8.51657 2.00033e-20)
(10.7675 -16.3731 2.76822e-18)
(10.0994 -16.2161 -9.27548e-19)
(10.0521 -15.7643 8.4538e-19)
(9.85699 -15.4582 -7.24608e-19)
(9.69426 -15.1326 -3.41063e-18)
(9.52573 -14.794 6.56518e-19)
(9.34313 -14.4449 -1.71913e-18)
(9.15006 -14.087 5.54903e-19)
(8.95012 -13.7251 -3.10627e-20)
(8.74687 -13.3644 -9.35342e-19)
(8.54363 -13.0092 -8.09843e-19)
(8.34317 -12.663 7.97849e-19)
(8.14751 -12.3281 -7.15367e-19)
(7.95802 -12.006 6.49024e-19)
(7.7755 -11.6972 -1.25081e-18)
(7.60033 -11.4019 2.23694e-21)
(7.43257 -11.1199 -1.05317e-18)
(7.27209 -10.8505 4.97715e-19)
(7.11859 -10.5932 -2.20953e-20)
(6.97175 -10.3472 -2.20463e-20)
(6.83119 -10.1118 -1.2185e-18)
(6.69656 -9.88638 3.89387e-19)
(6.56758 -9.67034 -7.11599e-19)
(6.44402 -9.46328 1.59206e-21)
(6.32577 -9.26494 -9.25056e-19)
(6.2127 -9.07522 3.09293e-19)
(6.10478 -8.8941 -5.41613e-19)
(6.003 -8.72071 5.33392e-19)
(5.90903 -8.55314 2.4613e-19)
(5.81169 -8.39626 0)
(11.1976 -16.0944 6.44931e-21)
(10.5331 -15.9666 1.77428e-18)
(10.4783 -15.5227 -1.63508e-18)
(10.2767 -15.225 -5.40275e-21)
(10.1054 -14.9048 2.75571e-18)
(9.92686 -14.5702 4.46726e-21)
(9.73341 -14.2249 -1.16555e-18)
(9.52901 -13.8707 -1.06871e-18)
(9.31762 -13.5127 9.84445e-19)
(9.10306 -13.1561 -9.11108e-19)
(8.88887 -12.8052 -8.38498e-19)
(8.67788 -12.4635 0)
(8.4722 -12.1332 6.99424e-19)
(8.2732 -11.8157 -2.02081e-18)
(8.08168 -11.5115 0)
(7.89798 -11.2208 -5.74771e-19)
(7.72214 -10.9433 0)
(7.55397 -10.6784 -1.90567e-21)
(7.39317 -10.4254 -1.06435e-20)
(7.23934 -10.1835 -4.47022e-19)
(7.09212 -9.95221 8.92588e-21)
(6.95112 -9.73071 7.63418e-19)
(6.81604 -9.51848 -9.717e-21)
(6.68666 -9.31511 3.20726e-19)
(6.56285 -9.12033 -9.60491e-19)
(6.44452 -8.9341 0)
(6.33167 -8.75646 0)
(6.22541 -8.58661 -2.6276e-19)
(6.12758 -8.42273 -2.46132e-19)
(6.027 -8.27044 -4.81815e-19)
(11.6205 -15.8043 -1.88176e-18)
(10.9607 -15.7054 -2.63812e-18)
(10.8986 -15.2692 -8.00151e-19)
(10.6908 -14.9799 1.50407e-18)
(10.5109 -14.665 -1.38032e-18)
(10.3224 -14.3349 -1.26796e-18)
(10.1181 -13.9935 1.16556e-18)
(9.90235 -13.6434 1.07602e-18)
(9.67956 -13.2896 0)
(9.45376 -12.9374 9.11117e-19)
(9.22867 -12.5912 0)
(9.00725 -12.2542 0)
(8.79165 -11.9288 0)
(8.58325 -11.6162 6.68226e-19)
(8.38282 -11.317 0)
(8.19069 -11.0311 0)
(8.00684 -10.7583 5.24212e-19)
(7.83107 -10.498 4.8776e-19)
(7.66301 -10.2495 0)
(7.50226 -10.0121 0)
(7.3484 -9.78502 4.0969e-19)
(7.20104 -9.56766 -3.83615e-19)
(7.05987 -9.35945 3.59581e-19)
(6.92464 -9.15999 0)
(6.79526 -8.96903 3.15567e-19)
(6.67164 -8.78654 0)
(6.55384 -8.61263 0)
(6.44307 -8.44657 5.26837e-19)
(6.34139 -8.28664 0)
(6.23777 -8.13926 0)
(12.0361 -15.5031 0)
(11.382 -15.4327 0)
(11.3128 -15.004 1.64681e-18)
(11.0988 -14.723 0)
(10.9104 -14.4137 -6.71931e-19)
(10.7119 -14.088 6.58766e-19)
(10.4968 -13.751 -1.13536e-18)
(10.2698 -13.4052 2.16199e-18)
(10.0356 -13.0559 -3.0812e-20)
(9.79865 -12.7085 -9.17048e-19)
(9.56276 -12.3672 1.66822e-18)
(9.33102 -12.0354 -2.28518e-20)
(9.10561 -11.7152 7.25356e-19)
(8.88791 -11.4077 0)
(8.67869 -11.1137 1.2317e-18)
(8.47822 -10.8329 -1.16106e-18)
(8.28647 -10.565 1.09561e-18)
(8.10316 -10.3096 -9.92916e-19)
(7.92791 -10.0657 9.52594e-19)
(7.76027 -9.83288 4.39503e-19)
(7.5998 -9.61025 1.40835e-21)
(7.44609 -9.39721 3.83619e-19)
(7.29879 -9.19323 -3.59584e-19)
(7.15768 -8.99789 3.38644e-19)
(7.02264 -8.81096 3.18119e-19)
(6.89363 -8.63245 0)
(6.77077 -8.46251 -2.68267e-19)
(6.65536 -8.30049 2.46606e-20)
(6.5497 -8.1448 1.24928e-18)
(6.44306 -8.00269 -2.58352e-19)
(12.4442 -15.1907 9.9517e-19)
(11.7966 -15.1485 -1.72195e-18)
(11.7206 -14.7272 5.16073e-20)
(11.5005 -14.4544 1.56998e-18)
(11.3036 -14.1507 1.39397e-18)
(11.0952 -13.8299 6.19554e-19)
(10.8692 -13.4974 1.17689e-18)
(10.631 -13.1563 1.05164e-18)
(10.3855 -12.8119 -2.9888e-18)
(10.1375 -12.4695 1.86493e-18)
(9.89087 -12.1335 -1.69641e-18)
(9.64892 -11.8071 2.35914e-21)
(9.41382 -11.4923 -7.25363e-19)
(9.18695 -11.1904 -6.74714e-19)
(8.96906 -10.9017 -6.24652e-19)
(8.76038 -10.6262 1.14911e-18)
(8.56081 -10.3635 -1.63977e-18)
(8.37005 -10.113 0)
(8.18767 -9.87405 -4.704e-19)
(8.01319 -9.64591 -4.39507e-19)
(7.84613 -9.42788 -8.13038e-19)
(7.68605 -9.21933 3.95348e-19)
(7.5326 -9.01975 7.06268e-19)
(7.38553 -8.82872 -1.03364e-18)
(7.24474 -8.64604 -3.18122e-19)
(7.11021 -8.47174 -5.86294e-19)
(6.9821 -8.30602 2.95692e-19)
(6.86183 -8.1483 -7.85583e-19)
(6.75182 -7.99715 2.62444e-19)
(6.64188 -7.86057 -2.49165e-19)
(12.845 -14.8675 -3.72899e-20)
(12.2043 -14.8531 8.49146e-19)
(12.1216 -14.4389 1.66322e-18)
(11.8956 -14.1742 -7.82703e-19)
(11.6902 -13.8763 -1.39835e-18)
(11.4717 -13.5604 -1.23873e-18)
(11.235 -13.2328 -5.67775e-19)
(10.9856 -12.8967 -1.08277e-18)
(10.7289 -12.5575 1.0002e-18)
(10.4699 -12.2205 0)
(10.2127 -11.8902 8.4949e-19)
(9.96068 -11.5695 -7.85619e-19)
(9.71604 -11.2605 -7.29632e-19)
(9.48016 -10.9642 6.74721e-19)
(9.25373 -10.6811 -6.2834e-19)
(9.03695 -10.4111 -5.82593e-19)
(8.82969 -10.1537 5.27721e-19)
(8.63157 -9.90842 -5.20134e-19)
(8.44213 -9.67447 0)
(8.26084 -9.45117 0)
(8.08719 -9.23786 0)
(7.92073 -9.03394 7.55276e-19)
(7.76106 -8.83889 -7.43061e-19)
(7.60796 -8.65237 0)
(7.46132 -8.47417 0)
(7.32115 -8.30438 0)
(7.18768 -8.14329 0)
(7.06241 -7.99033 -2.67227e-19)
(6.94788 -7.84416 -4.93455e-19)
(6.8346 -7.71316 2.60791e-19)
(13.2393 -14.5344 9.17698e-19)
(12.6052 -14.5466 -9.46572e-19)
(12.5156 -14.1392 -2.46917e-18)
(12.2838 -13.8825 2.31868e-18)
(12.0698 -13.5905 -6.782e-19)
(11.8413 -13.2799 6.64912e-19)
(11.5938 -12.9575 3.80567e-20)
(11.3333 -12.6267 3.26684e-18)
(11.0654 -12.293 -2.03449e-18)
(10.7956 -11.9618 9.24956e-19)
(10.528 -11.6374 8.54211e-19)
(10.266 -11.3227 7.66696e-19)
(10.012 -11.0197 7.08573e-19)
(9.76729 -10.7294 -6.59191e-19)
(9.53249 -10.4522 1.29332e-18)
(9.30777 -10.1878 6.01635e-19)
(9.09294 -9.93591 5.43938e-19)
(8.88757 -9.69587 -4.9489e-19)
(8.69115 -9.46702 9.48511e-19)
(8.50309 -9.24864 -4.54279e-19)
(8.32285 -9.04011 0)
(8.14991 -8.84084 0)
(7.98388 -8.65039 0)
(7.8245 -8.46845 6.66601e-19)
(7.67171 -8.29492 -6.56092e-19)
(7.52556 -8.13002 0)
(7.38648 -7.97416 0)
(7.25615 -7.82676 2.6723e-19)
(7.13731 -7.68643 -4.95515e-19)
(7.02168 -7.56235 7.66366e-19)
(13.6286 -14.1918 -4.0697e-20)
(12.9998 -14.2284 -9.49716e-19)
(12.902 -13.8277 -1.67307e-18)
(12.6646 -13.5792 -7.87681e-19)
(12.4421 -13.2934 6.79994e-19)
(12.2035 -12.9884 -1.29148e-18)
(11.9453 -12.6716 -1.18367e-18)
(11.6737 -12.3465 -1.08892e-18)
(11.3949 -12.0187 0)
(11.1143 -11.6936 -1.824e-18)
(10.8365 -11.3754 8.84402e-19)
(10.5648 -11.0671 -7.68706e-19)
(10.3016 -10.7704 7.56499e-19)
(10.0482 -10.4862 0)
(9.80519 -10.215 -6.30027e-19)
(9.5727 -9.95644 5.87254e-19)
(9.35046 -9.71016 5.4669e-19)
(9.138 -9.4755 0)
(8.93471 -9.25179 0)
(8.73998 -9.03834 0)
(8.55316 -8.83453 4.15303e-19)
(8.37368 -8.63981 -3.69771e-19)
(8.20106 -8.45379 7.46264e-19)
(8.03496 -8.27621 3.41697e-19)
(7.87521 -8.10714 0)
(7.7219 -7.94703 0)
(7.57568 -7.79642 -2.72243e-19)
(7.43861 -7.65481 8.14972e-19)
(7.31346 -7.52184 0)
(7.19397 -7.40988 0)
(14.012 -13.8373 -1.87831e-18)
(13.3878 -13.8971 9.52626e-19)
(13.2802 -13.504 8.62545e-19)
(13.0374 -13.2648 5.13836e-20)
(12.8067 -12.9854 -6.78004e-19)
(12.5583 -12.6865 1.29149e-18)
(12.2894 -12.3755 0)
(12.0069 -12.0564 0)
(11.7172 -11.7349 0)
(11.426 -11.4163 -9.01317e-19)
(11.1381 -11.1046 2.802e-20)
(10.8569 -10.8028 0)
(10.5847 -10.5126 -7.33478e-19)
(10.3228 -10.2349 0)
(10.0718 -9.96986 0)
(9.8317 -9.7173 -1.15983e-18)
(9.60225 -9.47674 1.58834e-20)
(9.38288 -9.24754 0)
(9.17292 -9.02901 0)
(8.97169 -8.82046 4.33681e-19)
(8.77847 -8.62126 -8.41795e-19)
(8.59259 -8.43086 -1.14843e-18)
(8.41343 -8.24885 7.47379e-19)
(8.24045 -8.07501 -3.41701e-19)
(8.07318 -7.90945 0)
(7.91131 -7.75271 0)
(7.75524 -7.60529 -2.83812e-19)
(7.60654 -7.46719 -2.67363e-19)
(7.46562 -7.34213 4.94344e-19)
(7.32874 -7.24705 -5.13913e-19)
(19.9364 0.122388 9.33393e-20)
(19.9211 -0.402912 1.21601e-19)
(19.8925 -0.925429 3.67534e-19)
(19.8522 -1.44572 4.86174e-19)
(19.7994 -1.96407 -2.48696e-19)
(19.7333 -2.48035 2.4857e-19)
(19.6539 -2.99431 2.22076e-20)
(19.5611 -3.50568 -4.96941e-19)
(19.4551 -4.01416 9.92225e-19)
(19.3358 -4.51946 -1.48839e-18)
(19.2034 -5.02123 9.90839e-19)
(19.058 -5.51915 -1.46383e-18)
(18.8996 -6.01288 -1.48371e-18)
(18.7283 -6.5021 1.05977e-21)
(18.5444 -6.98647 4.48486e-20)
(18.348 -7.46567 0)
(18.1392 -7.93937 9.41392e-19)
(17.9181 -8.40726 1.96716e-18)
(17.685 -8.86902 -1.96509e-18)
(17.44 -9.32435 9.3664e-19)
(17.1833 -9.77294 0)
(16.9151 -10.2145 -2.88694e-18)
(16.6356 -10.6488 3.45129e-21)
(16.345 -11.0754 1.94996e-18)
(16.0435 -11.4943 0)
(15.7314 -11.905 -1.01235e-18)
(15.4088 -12.3076 4.7576e-20)
(15.0765 -12.7018 -9.19128e-19)
(14.7334 -13.0884 9.66674e-19)
(14.3831 -13.4656 1.88215e-18)
(19.8124 -0.37014 0)
(19.7815 -0.890557 -6.1702e-20)
(19.7361 -1.40789 -9.29058e-21)
(19.677 -1.9225 -2.46722e-19)
(19.6046 -2.43463 -4.69751e-19)
(19.5187 -2.94413 4.6975e-19)
(19.4194 -3.45068 4.92978e-19)
(19.3068 -3.95394 0)
(19.1811 -4.45359 -9.37788e-19)
(19.0422 -4.94931 4.82393e-19)
(18.8904 -5.44077 -4.55072e-19)
(18.7257 -5.92762 9.72171e-19)
(18.5484 -6.40953 -4.8126e-19)
(18.3584 -6.88617 -9.33629e-19)
(18.1561 -7.35721 1.91325e-18)
(17.9416 -7.82233 0)
(17.715 -8.28121 -1.90731e-18)
(17.4765 -8.73354 9.3013e-19)
(17.2265 -9.17901 0)
(16.9649 -9.61734 -9.72949e-19)
(16.6921 -10.0482 -1.84872e-18)
(16.4083 -10.4714 2.81849e-18)
(16.1137 -10.8866 -1.8421e-18)
(15.8086 -11.2935 1.84211e-18)
(15.4931 -11.692 0)
(15.1676 -12.0818 1.75944e-18)
(14.832 -12.4628 -8.70589e-19)
(14.4869 -12.8349 9.58665e-19)
(14.1313 -13.1981 0)
(13.7664 -13.552 -9.54724e-19)
(19.5691 -0.186573 0)
(19.5439 -0.698119 0)
(19.5043 -1.20812 -6.96828e-21)
(19.4504 -1.71613 2.09744e-19)
(19.3826 -2.22189 -4.33877e-19)
(19.3011 -2.72509 6.43604e-19)
(19.2061 -3.22539 0)
(19.0977 -3.72242 4.19241e-19)
(18.9759 -4.21584 8.66488e-19)
(18.841 -4.7053 4.458e-19)
(18.6931 -5.19046 -4.1993e-19)
(18.5323 -5.67099 2.7378e-20)
(18.3587 -6.14655 3.90618e-19)
(18.1726 -6.6168 -1.69807e-18)
(17.9741 -7.0814 1.69722e-18)
(17.7634 -7.54004 -8.33329e-19)
(17.5408 -7.99239 -8.59873e-19)
(17.3063 -8.43813 8.59877e-19)
(17.0602 -8.87697 -8.30092e-19)
(16.8027 -9.30859 -8.28866e-19)
(16.5341 -9.73272 0)
(16.2545 -10.1491 -8.80275e-19)
(15.9642 -10.5573 1.70649e-18)
(15.6635 -10.9573 1.70019e-18)
(15.3525 -11.3487 -1.70021e-18)
(15.0315 -11.7314 -5.30338e-20)
(14.7007 -12.105 -1.68975e-18)
(14.3602 -12.4694 2.50632e-18)
(14.0098 -12.8244 1.68195e-18)
(13.65 -13.1692 -8.69285e-19)
(19.2326 -0.209997 0)
(19.2093 -0.71128 0)
(19.1718 -1.21152 -1.02779e-19)
(19.1205 -1.71011 -2.05587e-19)
(19.0553 -2.20662 -1.91987e-19)
(18.9765 -2.70071 1.78409e-19)
(18.8841 -3.19202 3.96794e-19)
(18.7783 -3.68019 -1.2044e-18)
(18.6592 -4.16484 3.96672e-19)
(18.5269 -4.64563 0)
(18.3816 -5.1222 3.83365e-19)
(18.2234 -5.5942 4.09993e-19)
(18.0526 -6.06127 -8.1931e-19)
(17.8692 -6.52309 1.58357e-18)
(17.6735 -6.9793 -2.8395e-20)
(17.4656 -7.42957 2.74828e-20)
(17.2458 -7.87357 -7.87484e-19)