/*--------------------------------*- C++ -*----------------------------------*\
  =========                 |
  \\      /  F ield         | OpenFOAM: The Open Source CFD Toolbox
   \\    /   O peration     | Website:  https://openfoam.org
    \\  /    A nd           | Version:  6.0
     \\/     M anipulation  |
\*---------------------------------------------------------------------------*/
FoamFile
{
    version     2.0;
    format      ascii;
    class       volVectorField;
    location    "19.5";
    object      U;
}
// * * * * * * * * * * * * * * * * * * * * * * * * * * * * * * * * * * * * * //

dimensions      [0 1 -1 0 0 0 0];

internalField   nonuniform List<vector> 
19200
(
(0.269051 -9.59721 -2.15677e-20)
(0.1272 -9.02175 1.03357e-20)
(0.145095 -8.5932 4.87114e-21)
(0.184964 -8.27031 4.38112e-21)
(0.221735 -8.02152 4.93823e-21)
(0.262055 -7.82266 3.01477e-22)
(0.304915 -7.65643 8.5495e-22)
(0.348106 -7.51066 -5.46147e-22)
(0.390397 -7.37702 6.23387e-21)
(0.431003 -7.24991 2.6053e-21)
(0.469376 -7.12581 -3.14584e-23)
(0.505182 -7.00259 4.16129e-21)
(0.538257 -6.87914 6.95489e-21)
(0.568568 -6.75502 -4.75486e-21)
(0.596174 -6.63023 6.07678e-21)
(0.621196 -6.50505 5.2856e-21)
(0.643799 -6.37989 -4.98945e-21)
(0.664174 -6.25525 8.55138e-21)
(0.682523 -6.13163 -5.47167e-21)
(0.69905 -6.00948 2.73132e-21)
(0.713956 -5.88922 3.86647e-21)
(0.727433 -5.77119 -1.27114e-21)
(0.739664 -5.65563 1.71172e-21)
(0.750814 -5.54271 -2.00778e-21)
(0.761037 -5.43246 4.38395e-21)
(0.770467 -5.32484 1.06045e-21)
(0.779217 -5.21967 -7.08282e-22)
(0.787395 -5.11668 4.21204e-22)
(0.795102 -5.01546 1.00956e-21)
(0.802229 -4.91545 3.82195e-21)
(0.52031 -9.59208 -4.96315e-21)
(0.364736 -9.03226 3.19393e-20)
(0.37209 -8.61329 -1.69665e-20)
(0.404008 -8.29735 -2.35202e-20)
(0.434674 -8.05375 -1.07804e-20)
(0.470057 -7.85835 -7.75655e-21)
(0.50868 -7.69409 -1.58381e-20)
(0.548022 -7.5491 2.11827e-21)
(0.586651 -7.41528 -3.46958e-21)
(0.623652 -7.28728 -1.25737e-20)
(0.658408 -7.16174 -3.18808e-20)
(0.690549 -7.03672 1.55955e-20)
(0.719903 -6.91124 -5.86538e-21)
(0.746444 -6.78497 2.21766e-21)
(0.770247 -6.658 -1.36126e-20)
(0.791453 -6.53067 -5.04053e-21)
(0.810251 -6.40345 5.6559e-22)
(0.826851 -6.27686 1.72072e-20)
(0.841475 -6.15142 -9.03087e-21)
(0.854343 -6.02762 -5.01648e-21)
(0.86567 -5.90586 -1.98669e-20)
(0.87566 -5.7865 5.1119e-21)
(0.884499 -5.66978 -3.22612e-21)
(0.892361 -5.55584 5.7367e-21)
(0.899399 -5.44473 -7.20016e-21)
(0.905746 -5.33639 -4.17204e-21)
(0.911506 -5.23062 1.35669e-21)
(0.916791 -5.12712 2.12902e-21)
(0.921736 -5.02544 -3.7567e-21)
(0.926127 -4.92501 1.77759e-21)
(0.771518 -9.58099 -2.3729e-21)
(0.602617 -9.03688 6.50633e-21)
(0.600021 -8.62762 1.02136e-20)
(0.624435 -8.31878 8.19759e-20)
(0.649293 -8.08045 -4.79548e-20)
(0.679929 -7.88855 4.36912e-20)
(0.714418 -7.72628 -3.96799e-20)
(0.749949 -7.58207 2.14534e-20)
(0.784899 -7.44808 -2.05027e-20)
(0.818241 -7.31919 -2.3398e-21)
(0.849296 -7.19225 5.21385e-20)
(0.877672 -7.06547 8.82819e-21)
(0.903195 -6.93802 -2.43749e-20)
(0.925851 -6.80967 1.91118e-20)
(0.945735 -6.6806 -8.59269e-23)
(0.963015 -6.55121 8.22668e-21)
(0.977901 -6.42203 5.92107e-21)
(0.990628 -6.2936 2.01415e-20)
(1.00144 -6.16647 -8.83596e-21)
(1.01057 -6.04113 -2.89097e-21)
(1.01824 -5.918 -7.77785e-21)
(1.02468 -5.79743 3.4689e-20)
(1.03008 -5.67966 -2.90444e-20)
(1.0346 -5.56483 9.41092e-21)
(1.03842 -5.45298 2.18961e-20)
(1.04165 -5.34403 -1.79075e-20)
(1.04439 -5.23777 2.39412e-20)
(1.04677 -5.13388 -2.56281e-21)
(1.04894 -5.03187 -2.71417e-21)
(1.05056 -4.93114 -1.78645e-20)
(1.02242 -9.56366 -7.85571e-20)
(0.840794 -9.03557 -6.93038e-20)
(0.828779 -8.6362 -8.57679e-20)
(0.846109 -8.33457 2.25321e-21)
(0.865452 -8.10157 5.17304e-21)
(0.891522 -7.9132 -9.85624e-20)
(0.921977 -7.75292 -4.90571e-20)
(0.953726 -7.60949 1.29741e-20)
(0.984976 -7.47533 -2.15677e-21)
(1.0146 -7.34556 2.25426e-20)
(1.04187 -7.21724 -8.91134e-20)
(1.06638 -7.08875 -5.60667e-20)
(1.08796 -6.95939 2.07127e-20)
(1.10662 -6.82904 4.18285e-20)
(1.12247 -6.69796 -4.84984e-20)
(1.13572 -6.56663 -7.64688e-21)
(1.14659 -6.43559 -2.89757e-20)
(1.15535 -6.30544 -1.37171e-20)
(1.16226 -6.17674 2.31759e-20)
(1.16757 -6.04999 -2.97054e-20)
(1.17154 -5.92561 2.60208e-20)
(1.17436 -5.80395 -3.08056e-20)
(1.17627 -5.68526 -2.43769e-20)
(1.17742 -5.56966 -1.76013e-20)
(1.17798 -5.45719 2.04375e-20)
(1.17807 -5.34774 -3.6399e-20)
(1.17778 -5.24112 3.78187e-21)
(1.17723 -5.13695 6.58634e-21)
(1.17661 -5.03473 -1.92125e-20)
(1.17544 -4.93383 3.78061e-21)
(1.27292 -9.54 -4.6612e-20)
(1.07924 -9.0283 6.64756e-21)
(1.05829 -8.63899 5.90909e-20)
(1.06892 -8.34467 6.2498e-20)
(1.08302 -8.11705 4.53888e-20)
(1.10469 -7.9322 1.88896e-20)
(1.1312 -7.7739 1.16679e-20)
(1.15919 -7.63124 1.35449e-19)
(1.18672 -7.49691 -8.12105e-20)
(1.21256 -7.36629 2.22652e-21)
(1.23596 -7.23662 1.96238e-20)
(1.2565 -7.10647 8.58206e-20)
(1.27403 -6.97527 -5.84668e-20)
(1.28858 -6.84301 4.22297e-20)
(1.30029 -6.71003 -4.71647e-20)
(1.3094 -6.57685 8.11021e-20)
(1.31616 -6.44408 -2.38947e-20)
(1.32087 -6.31233 8.71171e-22)
(1.3238 -6.18219 3.89607e-20)
(1.32523 -6.05415 2.74928e-20)
(1.32541 -5.92866 -2.79821e-20)
(1.32458 -5.80604 3.79691e-20)
(1.32294 -5.68654 -1.73851e-20)
(1.32068 -5.5703 2.00717e-20)
(1.31796 -5.45732 2.24227e-20)
(1.31488 -5.34751 9.93777e-21)
(1.31155 -5.24064 3.02861e-20)
(1.30806 -5.13632 -1.0715e-20)
(1.30465 -5.034 -3.5076e-21)
(1.30068 -4.93305 -1.66153e-20)
(1.5229 -9.50997 -3.39758e-20)
(1.31785 -9.01502 -2.17251e-20)
(1.28845 -8.63596 -6.70499e-20)
(1.29273 -8.34901 -1.76664e-19)
(1.30185 -8.12679 5.90573e-20)
(1.31929 -7.94546 3.92095e-21)
(1.34193 -7.78913 7.7906e-22)
(1.36618 -7.64723 8.34761e-21)
(1.38995 -7.51274 -5.71591e-21)
(1.41195 -7.38128 -1.06404e-19)
(1.43139 -7.25031 4.45422e-20)
(1.44786 -7.11856 7.73644e-20)
(1.46123 -6.98559 1.53415e-22)
(1.47155 -6.85151 2.88043e-20)
(1.47902 -6.71673 7.1745e-20)
(1.48389 -6.58183 -4.9575e-20)
(1.48645 -6.44745 8.73241e-20)
(1.48702 -6.31424 -4.18965e-20)
(1.48589 -6.18278 7.44641e-20)
(1.48337 -6.05359 -5.60362e-20)
(1.47972 -5.92711 2.49884e-20)
(1.47518 -5.80367 6.60795e-20)
(1.46997 -5.6835 3.98627e-21)
(1.46427 -5.56673 -6.15107e-20)
(1.45824 -5.45337 3.39275e-20)
(1.45199 -5.34331 1.04004e-20)
(1.44559 -5.2363 -1.12198e-20)
(1.43917 -5.13195 4.27804e-20)
(1.43297 -5.02965 1.51883e-20)
(1.42618 -4.92879 -1.41817e-20)
(1.77219 -9.47354 9.59841e-20)
(1.5565 -8.99568 -1.1077e-21)
(1.51914 -8.62702 -1.36314e-19)
(1.51743 -8.34753 2.78753e-20)
(1.5218 -8.13071 -3.94578e-20)
(1.53517 -7.95289 2.84508e-20)
(1.55401 -7.79852 -1.38306e-20)
(1.57453 -7.65736 1.1681e-19)
(1.5945 -7.52272 -1.27044e-19)
(1.61259 -7.39045 3.10781e-20)
(1.62798 -7.25822 -2.22159e-20)
(1.64027 -7.12493 1.62721e-20)
(1.64937 -6.99029 -7.2095e-20)
(1.65537 -6.85448 -4.84364e-21)
(1.65849 -6.71802 1.17099e-19)
(1.65902 -6.58152 -8.06332e-20)
(1.65729 -6.44567 -5.13558e-20)
(1.65364 -6.31112 -3.76415e-20)
(1.6484 -6.17849 6.82245e-20)
(1.64187 -6.04829 1.48252e-20)
(1.63433 -5.92095 -6.77205e-20)
(1.62604 -5.79681 9.05808e-20)
(1.61722 -5.6761 -8.19593e-20)
(1.60806 -5.55894 5.447e-20)
(1.5987 -5.44532 -3.0968e-20)
(1.58926 -5.33512 9.4447e-21)
(1.5798 -5.2281 1.5261e-20)
(1.57044 -5.12383 -6.82199e-20)
(1.56146 -5.02168 2.93422e-20)
(1.55186 -4.92103 4.70159e-22)
(2.02063 -9.43071 -9.43233e-20)
(1.79505 -8.97024 7.41019e-20)
(1.75021 -8.61214 -1.40781e-19)
(1.74285 -8.34015 2.6915e-19)
(1.74273 -8.12874 -7.57956e-20)
(1.75216 -7.95442 1.09119e-19)
(1.76727 -7.80198 8.60447e-20)
(1.78406 -7.66156 -1.50126e-20)
(1.8002 -7.52677 -2.23908e-20)
(1.8143 -7.39372 -3.54596e-22)
(1.82554 -7.26028 -8.71632e-20)
(1.83356 -7.12553 4.54214e-20)
(1.83829 -6.9893 -5.52241e-20)
(1.83986 -6.85188 -4.32447e-21)
(1.83852 -6.71385 -1.55858e-19)
(1.83463 -6.57588 5.09797e-20)
(1.82852 -6.43869 2.9777e-20)
(1.82058 -6.30295 -3.36929e-20)
(1.81115 -6.16929 -3.9393e-21)
(1.80056 -6.03821 -5.21036e-20)
(1.78909 -5.91016 -1.8713e-20)
(1.77702 -5.78546 1.74526e-21)
(1.76456 -5.66434 -4.59632e-20)
(1.75191 -5.5469 -6.86888e-20)
(1.73921 -5.43315 2.87736e-21)
(1.72658 -5.32294 9.72753e-21)
(1.71406 -5.21603 2.18924e-20)
(1.70178 -5.11196 -5.42178e-20)
(1.69003 -5.01006 4.63097e-20)
(1.6776 -4.90977 -8.52302e-20)
(2.26807 -9.38148 -2.33165e-19)
(2.03335 -8.93866 2.75422e-19)
(1.98152 -8.59124 -2.94126e-19)
(1.96887 -8.32679 -8.04066e-20)
(1.96448 -8.12079 -5.20306e-20)
(1.9701 -7.94994 -5.69655e-20)
(1.98154 -7.79942 -1.30319e-19)
(1.9946 -7.65974 -1.09455e-20)
(2.00685 -7.52481 -5.30229e-20)
(2.01689 -7.39101 -1.13226e-20)
(2.0239 -7.25642 9.0781e-20)
(2.02754 -7.12029 -5.12454e-20)
(2.02779 -6.98257 -6.13345e-20)
(2.02482 -6.84366 -1.0436e-19)
(2.01895 -6.70418 2.19815e-19)
(2.01053 -6.56488 -8.47064e-20)
(1.99998 -6.42649 3.1754e-20)
(1.98768 -6.28971 -1.19204e-19)
(1.974 -6.15516 4.58588e-20)
(1.9593 -6.02336 -1.89774e-20)
(1.94387 -5.89473 2.38149e-20)
(1.92798 -5.76961 -8.27433e-21)
(1.91186 -5.6482 7.57844e-20)
(1.8957 -5.53062 -2.69034e-20)
(1.87966 -5.41685 7.49677e-20)
(1.86383 -5.30676 -1.53111e-19)
(1.84825 -5.20007 9.79721e-20)
(1.83306 -5.09632 2.73044e-20)
(1.81855 -4.9948 5.12538e-20)
(1.80333 -4.89499 -1.50533e-19)
(2.51434 -9.32587 3.68205e-19)
(2.27124 -8.90092 -6.89993e-20)
(2.21292 -8.56429 1.26818e-19)
(2.19531 -8.30741 -3.62816e-20)
(2.18688 -8.1068 1.27602e-19)
(2.18882 -7.93939 1.21963e-19)
(2.19663 -7.79076 5.84939e-20)
(2.20595 -7.65181 -2.16727e-20)
(2.21427 -7.51676 -1.3526e-19)
(2.22017 -7.38225 1.98276e-19)
(2.22285 -7.24659 -1.58497e-20)
(2.22202 -7.10916 1.40986e-19)
(2.21768 -6.97006 5.14687e-20)
(2.21009 -6.82977 1.87612e-20)
(2.19958 -6.68899 2.98522e-20)
(2.18657 -6.54849 4.17183e-20)
(2.17149 -6.40906 6.98687e-20)
(2.15477 -6.27138 -2.02847e-20)
(2.1368 -6.13609 1.03794e-19)
(2.11794 -6.0037 4.81388e-20)
(2.0985 -5.87465 -1.00482e-19)
(2.07877 -5.74924 1.7903e-19)
(2.05897 -5.62768 -2.37178e-19)
(2.0393 -5.51008 2.25014e-19)
(2.01991 -5.39642 -7.47011e-20)
(2.00088 -5.28656 -3.10826e-20)
(1.98225 -5.18022 -8.23296e-21)
(1.96417 -5.07691 5.55811e-20)
(1.94694 -4.97588 2.0048e-20)
(1.92892 -4.87668 -2.30794e-20)
(2.75927 -9.26388 -2.09974e-19)
(2.50857 -8.857 2.01746e-19)
(2.44424 -8.53123 -5.50145e-20)
(2.42201 -8.28193 1.59401e-19)
(2.40976 -8.08669 1.57863e-20)
(2.40815 -7.92269 3.53276e-20)
(2.41237 -7.77593 -2.79121e-19)
(2.41794 -7.63771 1.31023e-19)
(2.42228 -7.50256 1.81509e-19)
(2.42395 -7.3674 1.39146e-19)
(2.42221 -7.23072 -2.37403e-19)
(2.4168 -7.09209 1.39015e-19)
(2.40779 -6.95172 -1.39116e-19)
(2.39546 -6.81018 9.65026e-20)
(2.38023 -6.66823 -1.61971e-19)
(2.36255 -6.5267 -1.20987e-19)
(2.34288 -6.38636 7.17654e-21)
(2.32168 -6.24794 -5.60197e-20)
(2.29937 -6.11207 9.93222e-20)
(2.27632 -5.97925 3.98391e-20)
(2.25285 -5.84991 -2.60891e-20)
(2.22926 -5.72436 -7.56852e-21)
(2.20577 -5.60278 3.13549e-20)
(2.18258 -5.4853 -1.04607e-19)
(2.15984 -5.37187 1.74294e-19)
(2.13762 -5.26236 -4.24433e-20)
(2.11596 -5.15648 -7.31254e-20)
(2.095 -5.05372 1.53618e-19)
(2.07507 -4.95331 2.08958e-20)
(2.05429 -4.85485 -2.05504e-20)
(3.0027 -9.19556 8.42613e-21)
(2.74517 -8.80687 -1.11418e-19)
(2.67534 -8.49202 -1.03485e-19)
(2.64881 -8.25031 -1.7283e-19)
(2.63295 -8.0604 6.03525e-21)
(2.6279 -7.89978 -1.26543e-19)
(2.62858 -7.75487 1.49677e-19)
(2.63037 -7.61737 -7.43284e-20)
(2.63066 -7.48215 1.23222e-19)
(2.62804 -7.34638 -1.01246e-19)
(2.62179 -7.20878 -5.2423e-20)
(2.6117 -7.06905 2.88255e-20)
(2.59791 -6.92752 1.56822e-20)
(2.58077 -6.78487 -1.60691e-19)
(2.56074 -6.64191 9.4733e-20)
(2.53831 -6.49948 -4.74095e-20)
(2.51399 -6.3584 1.34395e-19)
(2.48826 -6.2194 -4.45217e-20)
(2.46157 -6.0831 4.6487e-20)
(2.43429 -5.95 1.16293e-20)
(2.40677 -5.82052 8.00416e-20)
(2.3793 -5.69496 -1.62535e-20)
(2.35211 -5.57351 1.3257e-19)
(2.3254 -5.45626 -1.47728e-19)
(2.29931 -5.34319 -5.03579e-20)
(2.27391 -5.23415 4.12744e-20)
(2.24924 -5.12885 -4.13568e-21)
(2.22543 -5.02677 -1.14006e-19)
(2.20284 -4.92708 5.86712e-20)
(2.17933 -4.82951 -6.52974e-20)
(3.24447 -9.12091 3.5522e-19)
(2.98088 -8.75053 9.35099e-20)
(2.90603 -8.44664 1.13287e-19)
(2.87554 -8.21249 1.54326e-19)
(2.85628 -8.02788 2.33277e-19)
(2.84788 -7.87059 -7.09621e-21)
(2.84505 -7.72751 3.39025e-20)
(2.84304 -7.59073 4.02865e-19)
(2.83924 -7.45548 1.16632e-19)
(2.83223 -7.31917 -9.88678e-20)
(2.82137 -7.18071 1.74623e-19)
(2.80651 -7.03999 2.98546e-20)
(2.78786 -6.89745 1.42457e-21)
(2.76582 -6.75382 4.20337e-20)
(2.7409 -6.60999 7.56992e-20)
(2.71366 -6.46683 -1.56481e-19)
(2.68464 -6.32518 1.33396e-19)
(2.65434 -6.18575 2.25268e-20)
(2.62323 -6.04918 1.3135e-19)
(2.5917 -5.91596 -7.13407e-20)
(2.56011 -5.78649 1.18257e-19)
(2.52875 -5.66106 -1.26196e-19)
(2.49785 -5.53986 1.22305e-19)
(2.46762 -5.42298 1.73332e-20)
(2.43819 -5.31038 -8.25373e-20)
(2.40963 -5.20193 -2.71995e-20)
(2.38196 -5.09733 1.59135e-19)
(2.35534 -4.99604 -2.4034e-20)
(2.33013 -4.8972 3.09396e-20)
(2.30392 -4.80064 -2.0238e-20)
(3.48442 -9.03997 3.60508e-20)
(3.21554 -8.68798 8.19394e-20)
(3.13616 -8.39506 3.36083e-19)
(3.10203 -8.16843 -5.49098e-19)
(3.07956 -7.98906 -5.49521e-20)
(3.06792 -7.83507 -5.97244e-20)
(3.06159 -7.69379 2.65287e-20)
(3.05576 -7.55775 3.5795e-20)
(3.04779 -7.4225 9.0605e-20)
(3.03633 -7.2857 -1.61942e-19)
(3.02077 -7.1465 -3.19967e-20)
(3.00104 -7.0049 9.08234e-20)
(2.97743 -6.86147 9.87755e-20)
(2.95041 -6.71702 -9.85654e-20)
(2.92055 -6.57248 -9.82749e-20)
(2.88844 -6.42875 1.5888e-19)
(2.85466 -6.28668 1.04251e-19)
(2.81975 -6.14699 -2.67823e-20)
(2.78419 -6.01031 -6.69703e-20)
(2.7484 -5.87712 1.21771e-20)
(2.71272 -5.74781 -1.55686e-19)
(2.67746 -5.62266 1.87916e-19)
(2.64286 -5.50185 -1.28798e-19)
(2.60911 -5.38546 -5.55648e-21)
(2.57635 -5.27347 8.51912e-20)
(2.54465 -5.16572 -2.66678e-20)
(2.51401 -5.06194 -8.08915e-20)
(2.48461 -4.96155 1.24844e-20)
(2.45681 -4.86367 -3.36567e-21)
(2.42795 -4.76827 1.57869e-20)
(3.72236 -8.95278 -2.65903e-20)
(3.44897 -8.61921 -8.53563e-20)
(3.36554 -8.33724 -3.87203e-19)
(3.32809 -8.1181 1.39165e-19)
(3.30261 -7.94392 -4.28954e-20)
(3.28782 -7.79317 1.40659e-19)
(3.27802 -7.65367 1.03149e-20)
(3.26833 -7.51838 -1.64321e-19)
(3.25613 -7.38316 1.47238e-20)
(3.24012 -7.24597 -2.25207e-19)
(3.21977 -7.1061 -9.14557e-21)
(3.1951 -6.96376 5.49188e-20)
(3.16645 -6.81957 -9.50579e-20)
(3.13437 -6.67445 1.08612e-19)
(3.09949 -6.52936 -2.07761e-19)
(3.06246 -6.38523 -4.74055e-20)
(3.02388 -6.24292 1.25808e-19)
(2.98433 -6.10314 -4.03246e-22)
(2.9443 -5.96651 -8.05181e-20)
(2.90422 -5.83352 2.18406e-19)
(2.86445 -5.70452 -1.17005e-19)
(2.8253 -5.57979 -1.57664e-19)
(2.78699 -5.4595 5.26828e-20)
(2.74973 -5.34373 -1.53746e-19)
(2.71366 -5.23245 -3.72525e-20)
(2.67883 -5.12552 -4.86628e-21)
(2.64525 -5.02267 -1.00885e-19)
(2.6131 -4.92331 1.20635e-19)
(2.58277 -4.82651 -4.31338e-20)
(2.55131 -4.7324 7.10892e-20)
(3.95815 -8.85937 -1.25912e-19)
(3.68101 -8.54423 -3.41937e-19)
(3.59402 -8.27319 1.67188e-19)
(3.55354 -8.06146 -1.59698e-19)
(3.52523 -7.8924 -1.19187e-19)
(3.50738 -7.74485 -6.94584e-20)
(3.49412 -7.60711 -2.54183e-19)
(3.48053 -7.47258 1.7292e-19)
(3.46405 -7.33745 -3.10777e-19)
(3.44341 -7.19993 -4.33595e-19)
(3.41818 -7.05952 5.59578e-20)
(3.38847 -6.91655 9.36902e-20)
(3.3547 -6.77176 -1.32608e-21)
(3.3175 -6.62613 -1.79791e-19)
(3.27755 -6.48066 4.19644e-20)
(3.23554 -6.3363 -1.63834e-19)
(3.19213 -6.1939 -1.18214e-19)
(3.14791 -6.05421 -7.13367e-20)
(3.10339 -5.9178 -1.459e-20)
(3.05902 -5.78515 1.20997e-19)
(3.01516 -5.65661 1.7366e-19)
(2.9721 -5.53245 -5.21901e-20)
(2.9301 -5.41281 -5.03083e-20)
(2.88934 -5.29779 9.77861e-20)
(2.84997 -5.18735 5.45471e-20)
(2.81204 -5.08136 -4.31813e-20)
(2.77554 -4.97955 -4.82721e-20)
(2.74069 -4.88133 5.40691e-21)
(2.70787 -4.78573 4.33917e-20)
(2.67387 -4.69304 -6.32236e-20)
(4.19161 -8.75981 -2.50732e-20)
(3.91148 -8.46306 4.32371e-19)
(3.8214 -8.20289 3.35922e-19)
(3.77821 -7.9985 2.62692e-19)
(3.74725 -7.83448 -1.70587e-19)
(3.72641 -7.69008 -3.42872e-20)
(3.70969 -7.55408 3.11955e-20)
(3.69217 -7.42032 2.19247e-19)
(3.67133 -7.28534 8.27529e-20)
(3.64598 -7.14757 1.26439e-19)
(3.6158 -7.00673 -2.79195e-19)
(3.58096 -6.86327 2.84027e-20)
(3.54201 -6.71804 1.13631e-19)
(3.49961 -6.57205 6.95737e-20)
(3.45453 -6.42637 1.45615e-19)
(3.40751 -6.28195 -9.89075e-20)
(3.35924 -6.13966 -9.22947e-20)
(3.31033 -6.00021 1.75451e-20)
(3.26131 -5.86419 1.9718e-19)
(3.21264 -5.73205 -3.18496e-19)
(3.16468 -5.60412 1.10934e-19)
(3.11774 -5.48066 -8.48307e-22)
(3.07205 -5.36182 2.10294e-19)
(3.02781 -5.24766 -9.09672e-20)
(2.98515 -5.13817 -4.75384e-21)
(2.94413 -5.03323 -5.79211e-20)
(2.90475 -4.93258 -5.11386e-20)
(2.86723 -4.83561 1.08176e-20)
(2.83198 -4.74133 -1.2642e-19)
(2.79551 -4.65022 1.88016e-19)
(4.42258 -8.65412 -4.66721e-19)
(4.14023 -8.37571 -2.63058e-19)
(4.04753 -8.12633 -6.75935e-19)
(4.00192 -7.9292 -3.08329e-19)
(3.96846 -7.77014 2.87264e-19)
(3.94471 -7.62882 -1.70151e-19)
(3.92453 -7.49455 -4.10436e-20)
(3.90304 -7.36159 -1.12809e-19)
(3.87776 -7.22681 1.90158e-19)
(3.84763 -7.0889 -1.76543e-19)
(3.81241 -6.94774 2.12587e-20)
(3.77238 -6.80393 -8.68566e-21)
(3.72816 -6.6584 -2.79195e-19)
(3.68052 -6.51224 -1.19551e-20)
(3.63027 -6.36651 7.38907e-20)
(3.5782 -6.22221 -8.25369e-21)
(3.52504 -6.08019 -2.87177e-19)
(3.47142 -5.94117 2.79485e-19)
(3.4179 -5.8057 -2.74546e-19)
(3.36493 -5.67423 1.07102e-19)
(3.31288 -5.54707 1.50851e-20)
(3.26205 -5.42446 6.14368e-21)
(3.21269 -5.30654 -1.13091e-19)
(3.16498 -5.19337 1.1381e-19)
(3.11905 -5.08495 -4.85578e-20)
(3.07497 -4.98117 5.30488e-20)
(3.03273 -4.88178 -2.8348e-19)
(2.99259 -4.78618 7.6545e-20)
(2.95496 -4.69333 8.26177e-20)
(2.91609 -4.60394 8.38354e-20)
(4.65091 -8.54238 9.09007e-19)
(4.36708 -8.2822 3.03784e-19)
(4.27223 -8.04353 1.77134e-19)
(4.22447 -7.85355 2.80734e-19)
(4.18868 -7.69935 -3.56616e-20)
(4.16207 -7.56106 2.11372e-19)
(4.13842 -7.4285 4.70559e-19)
(4.11291 -7.29636 -5.99698e-20)
(4.08315 -7.16185 2.64738e-20)
(4.04816 -7.02389 5.52691e-19)
(4.00781 -6.88255 5.15502e-19)
(3.96251 -6.73854 7.6085e-20)
(3.91297 -6.59288 -2.81858e-20)
(3.86003 -6.4467 -3.1876e-21)
(3.80456 -6.30112 3.95663e-19)
(3.74742 -6.15711 1.52706e-20)
(3.68935 -6.01555 4.20545e-19)
(3.63102 -5.87711 -5.32269e-20)
(3.57299 -5.74237 -9.09049e-20)
(3.51573 -5.61172 2.11904e-19)
(3.4596 -5.48548 -1.94274e-19)
(3.40491 -5.36386 -2.09297e-19)
(3.35188 -5.24699 -1.88519e-20)
(3.30071 -5.13494 -9.32309e-20)
(3.25154 -5.0277 1.41051e-19)
(3.20442 -4.92518 1.65215e-20)
(3.15935 -4.82717 -5.8981e-20)
(3.11662 -4.73304 3.13811e-20)
(3.07667 -4.64175 2.10851e-19)
(3.03548 -4.55423 2.97095e-20)
(4.87641 -8.42463 -1.56342e-19)
(4.59187 -8.18258 -3.03777e-19)
(4.49532 -7.9545 1.24802e-19)
(4.44569 -7.77154 -5.01091e-19)
(4.40772 -7.6221 2.38083e-19)
(4.37829 -7.48679 -4.35859e-19)
(4.35117 -7.35592 -2.86472e-19)
(4.32159 -7.22464 7.92398e-20)
(4.28727 -7.09047 7.83408e-20)
(4.24734 -6.95257 -3.80788e-19)
(4.2018 -6.81117 5.80752e-20)
(4.15117 -6.66711 6.38632e-20)
(4.09624 -6.52148 -2.07481e-19)
(4.03795 -6.37547 -8.24458e-20)
(3.97725 -6.2302 -5.54325e-20)
(3.915 -6.08668 -5.56364e-20)
(3.85202 -5.94574 -2.31573e-19)
(3.78897 -5.80807 -1.45215e-19)
(3.72645 -5.67421 -3.13058e-20)
(3.6649 -5.54455 1.18163e-19)
(3.6047 -5.41938 1.60174e-19)
(3.54615 -5.29889 -1.73795e-19)
(3.48948 -5.1832 6.4992e-20)
(3.43487 -5.07238 -1.34709e-19)
(3.38246 -4.96643 1.26405e-19)
(3.33232 -4.86528 -1.66385e-19)
(3.28445 -4.76874 5.20144e-20)
(3.23916 -4.67621 -8.16921e-20)
(3.19694 -4.58659 -1.15664e-19)
(3.15352 -4.50108 -1.09739e-20)
(5.09894 -8.30095 -3.27115e-19)
(4.81444 -8.07688 -2.71585e-19)
(4.71664 -7.85924 -2.67837e-19)
(4.66541 -7.68317 -1.97725e-19)
(4.62537 -7.53839 6.05883e-19)
(4.59316 -7.40599 8.46849e-20)
(4.56256 -7.27681 2.57986e-19)
(4.52887 -7.14643 3.93731e-19)
(4.48991 -7.01267 1.89343e-19)
(4.44497 -6.87494 -2.50533e-19)
(4.39417 -6.73362 4.01458e-19)
(4.33814 -6.58967 1.16147e-19)
(4.27779 -6.44425 3.66442e-19)
(4.21412 -6.29858 4.23293e-20)
(4.14814 -6.15381 9.26966e-20)
(4.08078 -6.01094 2.98708e-20)
(4.01288 -5.87081 -9.05132e-22)
(3.94512 -5.73409 -1.09477e-20)
(3.8781 -5.60128 4.9514e-20)
(3.81228 -5.47276 1.67788e-19)
(3.74804 -5.3488 -1.86671e-19)
(3.68565 -5.22957 1.48296e-19)
(3.62535 -5.11519 5.25549e-21)
(3.56732 -5.00572 6.6854e-20)
(3.51169 -4.90116 1.22055e-19)
(3.45853 -4.80148 -2.11216e-20)
(3.40787 -4.70652 1.20879e-19)
(3.36005 -4.61567 1.74418e-19)
(3.31562 -4.52786 -1.89048e-19)
(3.27005 -4.44452 -1.05004e-19)
(5.31835 -8.17139 9.56492e-19)
(5.03462 -7.96514 -9.9089e-20)
(4.93603 -7.75779 2.05848e-19)
(4.88343 -7.58846 3.79744e-19)
(4.84144 -7.44822 -1.08523e-18)
(4.80649 -7.31866 1.1594e-19)
(4.77238 -7.19117 -4.11447e-19)
(4.73452 -7.06173 4.06853e-19)
(4.69086 -6.92848 -3.23037e-19)
(4.64085 -6.79103 1.7394e-19)
(4.58472 -6.64994 -6.30984e-19)
(4.52324 -6.50625 2.28436e-20)
(4.45741 -6.36121 -6.86892e-19)
(4.38833 -6.21607 3.10827e-19)
(4.31706 -6.07198 1.59821e-19)
(4.24459 -5.92995 2.4332e-19)
(4.17176 -5.7908 -2.66587e-19)
(4.09931 -5.65518 -2.13407e-20)
(4.02781 -5.52359 2.11829e-20)
(3.95774 -5.39637 5.88132e-20)
(3.88946 -5.27377 -3.29304e-19)
(3.82326 -5.15594 -9.99088e-21)
(3.75935 -5.04299 -1.83557e-19)
(3.6979 -4.93498 -4.32425e-20)
(3.63907 -4.83192 -1.12468e-19)
(3.58291 -4.7338 -1.22594e-19)
(3.52946 -4.6405 -1.27341e-19)
(3.47914 -4.55144 2.09885e-19)
(3.43253 -4.46554 5.61311e-20)
(3.38489 -4.38453 -1.00571e-19)
(5.53447 -8.03604 -6.36804e-19)
(5.25228 -7.84743 2.21603e-19)
(5.15333 -7.65018 -3.79173e-19)
(5.09958 -7.48741 5.72697e-20)
(5.05573 -7.35159 6.15845e-19)
(5.01807 -7.22482 -3.11355e-19)
(4.98042 -7.09901 -3.24429e-19)
(4.93833 -6.97056 -2.76941e-19)
(4.88992 -6.83791 1.36111e-20)
(4.83476 -6.70087 1.76748e-19)
(4.77325 -6.56015 -1.28509e-19)
(4.70627 -6.4169 5.93768e-21)
(4.63493 -6.27242 2.8648e-19)
(4.56041 -6.12798 1.79126e-19)
(4.48385 -5.98476 5.12813e-20)
(4.40625 -5.84375 -1.59214e-19)
(4.32852 -5.70576 6.01972e-20)
(4.25138 -5.57142 1.31827e-19)
(4.17543 -5.44119 1.47117e-19)
(4.10113 -5.31542 -1.61364e-19)
(4.02885 -5.19432 2.45448e-20)
(3.95885 -5.07802 1.37795e-19)
(3.89135 -4.96663 2.39072e-19)
(3.8265 -4.86018 6.24343e-20)
(3.76446 -4.75871 -2.45101e-19)
(3.7053 -4.66223 2.85023e-19)
(3.64907 -4.57067 -1.42504e-19)
(3.59624 -4.4835 -1.69812e-19)
(3.54749 -4.39962 -1.04332e-19)
(3.49788 -4.32109 -1.28891e-19)
(5.74719 -7.89498 3.36088e-19)
(5.46729 -7.72379 -2.54729e-19)
(5.36838 -7.53642 9.7237e-20)
(5.31368 -7.38002 5.12256e-19)
(5.26805 -7.2485 1.3844e-19)
(5.22767 -7.12447 -1.19337e-19)
(5.18646 -7.00035 2.8691e-19)
(5.14009 -6.87295 6.66869e-20)
(5.08686 -6.74099 2.6759e-19)
(5.0265 -6.6045 1.47281e-19)
(4.95955 -6.46431 5.62011e-21)
(4.88703 -6.32167 9.20478e-20)
(4.81015 -6.17792 -2.92793e-20)
(4.73019 -6.03438 -2.58211e-19)
(4.64832 -5.8922 -3.731e-20)
(4.56562 -5.75239 -7.66758e-20)
(4.483 -5.61572 1.88029e-19)
(4.4012 -5.48282 1.91064e-19)
(4.32082 -5.35413 -2.17919e-19)
(4.24232 -5.22995 2.22558e-19)
(4.16606 -5.11048 4.72862e-19)
(4.09229 -4.99585 -3.05086e-19)
(4.02122 -4.88612 3.0585e-19)
(3.95299 -4.78134 -2.14645e-19)
(3.88774 -4.68154 -3.01817e-20)
(3.82557 -4.58678 2.29152e-19)
(3.76654 -4.49704 -4.6416e-20)
(3.71119 -4.41182 1.71896e-19)
(3.6603 -4.33006 1.705e-19)
(3.60881 -4.25419 -3.08818e-19)
(5.95638 -7.74827 -3.24861e-19)
(5.67953 -7.5943 1.42733e-19)
(5.58105 -7.41654 6.01217e-20)
(5.52554 -7.26631 -5.9668e-19)
(5.4782 -7.13896 -3.0899e-19)
(5.4351 -7.01763 2.30581e-19)
(5.39028 -6.89522 -6.39863e-19)
(5.33959 -6.76894 7.69028e-19)
(5.28148 -6.63778 -4.31635e-19)
(5.21586 -6.50196 5.15453e-20)
(5.14343 -6.36247 -8.14976e-20)
(5.06533 -6.22061 -2.43905e-19)
(4.9829 -6.07778 5.00774e-19)
(4.89748 -5.93531 1.88591e-19)
(4.81033 -5.79437 2.42162e-19)
(4.72254 -5.65593 4.78916e-21)
(4.63505 -5.52076 1.0736e-19)
(4.54862 -5.38946 -2.3429e-19)
(4.46385 -5.26245 4.88697e-20)
(4.38119 -5.14 1.60356e-19)
(4.30098 -5.02229 -6.77491e-20)
(4.22347 -4.90943 1.10741e-19)
(4.14884 -4.80147 -2.18328e-19)
(4.07723 -4.69846 3.13939e-19)
(4.00878 -4.60042 7.30121e-20)
(3.94357 -4.50743 -1.98683e-19)
(3.88171 -4.41956 -1.71805e-19)
(3.82379 -4.33636 -9.82104e-24)
(3.77073 -4.25681 2.35507e-19)
(3.71739 -4.1838 -5.18657e-20)
(6.16198 -7.59599 -9.0249e-20)
(5.8889 -7.45898 -5.99759e-19)
(5.79117 -7.29056 7.13254e-19)
(5.73499 -7.14628 4.81394e-19)
(5.68596 -7.02299 4.7961e-19)
(5.64014 -6.90432 1.32706e-19)
(5.59168 -6.78365 1.99169e-19)
(5.53661 -6.65856 1.00121e-19)
(5.47356 -6.52832 -4.01203e-19)
(5.40263 -6.39333 7.29332e-19)
(5.32468 -6.25469 -5.84762e-19)
(5.24099 -6.11379 -3.94354e-20)
(5.153 -5.97207 8.39248e-20)
(5.06213 -5.83086 -3.73527e-19)
(4.9697 -5.69133 5.87394e-19)
(4.87686 -5.55444 1.11047e-19)
(4.78454 -5.42094 -2.48797e-19)
(4.69352 -5.29139 9.54744e-20)
(4.6044 -5.1662 -1.84358e-19)
(4.51762 -5.04561 -1.62831e-19)
(4.4335 -4.92979 -1.73398e-19)
(4.35228 -4.81881 3.94635e-20)
(4.27411 -4.71272 2.20601e-20)
(4.19914 -4.61155 -4.22649e-19)
(4.12747 -4.51533 -1.60559e-19)
(4.0592 -4.42417 1.03133e-19)
(3.99444 -4.33818 1.2793e-19)
(3.93386 -4.25701 -1.76677e-19)
(3.87851 -4.17974 -6.745e-20)
(3.82327 -4.1097 5.37784e-21)
(6.36397 -7.43821 -7.69533e-20)
(6.09533 -7.31788 3.8841e-19)
(5.99858 -7.15847 -1.10501e-19)
(5.94181 -7.01994 -1.34869e-19)
(5.89111 -6.90061 -7.41167e-19)
(5.84256 -6.78457 -1.63309e-19)
(5.79041 -6.66567 3.05347e-19)
(5.73092 -6.54187 -2.02829e-19)
(5.66289 -6.41267 -2.21587e-20)
(5.58661 -6.27865 -4.06162e-20)
(5.50311 -6.14104 2.21608e-19)
(5.41381 -6.00129 -3.4658e-19)
(5.32026 -5.86086 -2.3079e-19)
(5.22396 -5.7211 2.70053e-19)
(5.12629 -5.58317 -1.53355e-19)
(5.02843 -5.448 7.24901e-20)
(4.93133 -5.31633 1.51806e-20)
(4.83577 -5.18868 -6.25e-20)
(4.74235 -5.06545 2.29957e-19)
(4.6515 -4.94684 -2.09545e-19)
(4.56352 -4.83301 -1.68721e-19)
(4.47863 -4.72401 1.47495e-19)
(4.39696 -4.61987 -1.65832e-20)
(4.31863 -4.52061 -1.09121e-19)
(4.24374 -4.42627 9.64625e-20)
(4.17238 -4.33697 -2.99101e-19)
(4.10466 -4.25287 1.82393e-19)
(4.04129 -4.17372 -2.97595e-21)
(3.98353 -4.09869 -1.8975e-19)
(3.9264 -4.03149 2.60343e-19)
(6.56267 -7.27516 3.11844e-19)
(6.29888 -7.17109 -7.55361e-19)
(6.20314 -7.02027 -6.3869e-20)
(6.14579 -6.88726 3.4966e-19)
(6.09343 -6.77181 -8.87257e-20)
(6.04212 -6.65841 -2.53712e-19)
(5.98626 -6.54134 1.15598e-19)
(5.92229 -6.41891 1.34479e-19)
(5.84924 -6.29089 1.0728e-20)
(5.76758 -6.15801 1.63957e-19)
(5.67851 -6.02161 5.23755e-19)
(5.5836 -5.88319 -1.82968e-19)
(5.48451 -5.74424 4.64308e-20)
(5.38281 -5.60612 -1.22871e-19)
(5.27994 -5.46996 4.66089e-19)
(5.1771 -5.33669 -8.42693e-20)
(5.07528 -5.207 1.24542e-19)
(4.97526 -5.08141 -2.09965e-19)
(4.8776 -4.96025 1.14033e-19)
(4.78274 -4.84375 1.72421e-19)
(4.69096 -4.732 2.94211e-20)
(4.60244 -4.62507 1.15267e-19)
(4.5173 -4.52295 -9.49973e-20)
(4.43564 -4.42566 2.64007e-19)
(4.35753 -4.33324 -1.07663e-19)
(4.28304 -4.24582 3.93572e-19)
(4.2123 -4.16363 -1.13621e-19)
(4.14606 -4.08643 7.82228e-20)
(4.08579 -4.01346 -1.47783e-19)
(4.02692 -3.94923 2.51768e-19)
(6.75882 -7.10714 -6.83194e-19)
(6.49972 -7.01848 2.49208e-20)
(6.40465 -6.8758 -3.8606e-19)
(6.34667 -6.7482 6.9015e-20)
(6.29266 -6.6366 2.01633e-20)
(6.23858 -6.52588 -3.33815e-19)
(6.17898 -6.41071 -6.27365e-19)
(6.1105 -6.28978 3.10747e-19)
(6.0324 -6.16307 -4.39123e-19)
(5.94534 -6.0315 -2.30297e-19)
(5.85069 -5.89649 -1.30696e-19)
(5.75018 -5.75959 -1.0232e-19)
(5.64557 -5.62232 1.83158e-21)
(5.53851 -5.48602 -3.6775e-19)
(5.4305 -5.35182 2.38309e-19)
(5.32275 -5.2206 -3.92785e-19)
(5.21628 -5.09306 -9.97744e-20)
(5.11186 -4.96965 1.12814e-19)
(5.01005 -4.85071 -4.51712e-20)
(4.91126 -4.7364 1.32977e-19)
(4.81574 -4.62683 1.0213e-19)
(4.72366 -4.52202 -2.55663e-19)
(4.63509 -4.42196 2.56275e-19)
(4.55011 -4.32666 -2.75637e-20)
(4.46874 -4.23617 -6.84451e-20)
(4.39102 -4.15063 -2.71406e-19)
(4.3171 -4.07026 -1.43887e-19)
(4.24774 -3.99476 2.6579e-19)
(4.18441 -3.9238 -8.7675e-20)
(4.1232 -3.86405 -8.18378e-20)
(6.95278 -6.9333 2.96958e-19)
(6.69764 -6.85918 2.66312e-20)
(6.60278 -6.72476 -7.41833e-20)
(6.54413 -6.60275 -1.67239e-20)
(6.48854 -6.49511 -1.3329e-19)
(6.43174 -6.38712 4.51784e-19)
(6.36839 -6.27395 -2.11016e-19)
(6.29539 -6.15462 1.38022e-19)
(6.2122 -6.02937 5.65108e-20)
(6.11972 -5.89927 2.02303e-19)
(6.01951 -5.76583 -7.7493e-20)
(5.91341 -5.63064 4.37665e-19)
(5.80331 -5.49523 -3.72828e-20)
(5.69095 -5.36095 2.8041e-19)
(5.57785 -5.22888 -4.7014e-19)
(5.46527 -5.09989 -3.51338e-20)
(5.35424 -4.97464 3.00851e-19)
(5.2455 -4.85355 -1.8705e-19)
(5.13964 -4.73693 7.69939e-20)
(5.03701 -4.62492 1.31283e-19)
(4.93785 -4.5176 -1.91738e-19)
(4.8423 -4.41495 2.10161e-19)
(4.75039 -4.31696 -1.97161e-19)
(4.66213 -4.22361 4.25808e-20)
(4.57749 -4.13493 1.58591e-19)
(4.49644 -4.05108 1.09806e-19)
(4.41908 -3.97211 1.02917e-19)
(4.34591 -3.89774 7.62406e-20)
(4.27726 -3.82906 -2.05468e-19)
(4.21034 -3.77492 -7.99733e-20)
(10.0278 0.012644 3.8861e-21)
(10.0167 -0.251462 3.83628e-20)
(9.99926 -0.513903 1.33324e-19)
(9.97573 -0.775088 7.29697e-20)
(9.94567 -1.03513 -1.54631e-19)
(9.90887 -1.29398 4.68047e-20)
(9.8653 -1.55152 -4.91101e-20)
(9.81499 -1.80762 -1.24204e-19)
(9.75796 -2.06212 6.50585e-20)
(9.69426 -2.31485 -7.58158e-20)
(9.62395 -2.56564 -7.63537e-20)
(9.54709 -2.81432 -1.6248e-19)
(9.46374 -3.06071 -4.68248e-19)
(9.37398 -3.30465 4.28364e-20)
(9.27789 -3.54598 -2.0946e-20)
(9.17554 -3.78453 -1.48085e-19)
(9.06703 -4.02013 3.1666e-19)
(8.95244 -4.25264 1.72687e-19)
(8.83186 -4.48189 3.32163e-19)
(8.7054 -4.70773 1.63257e-19)
(8.57315 -4.93002 -3.65853e-19)
(8.43521 -5.14861 1.42744e-20)
(8.29171 -5.36336 -6.98211e-19)
(8.14275 -5.57414 1.06114e-18)
(7.98845 -5.78082 -3.49282e-19)
(7.82895 -5.9833 -4.54286e-19)
(7.66437 -6.18147 -6.7109e-20)
(7.49488 -6.37531 -7.29754e-21)
(7.32058 -6.56488 -3.50464e-19)
(7.14212 -6.75028 6.18441e-19)
(10.0737 -0.124232 1.48557e-20)
(10.0536 -0.388472 2.18921e-20)
(10.0262 -0.650951 5.41796e-21)
(9.99197 -0.911836 -1.9144e-19)
(9.95085 -1.17116 -1.72036e-19)
(9.90283 -1.42881 1.52222e-19)
(9.84794 -1.68463 1.88321e-19)