/*--------------------------------*- C++ -*----------------------------------*\
  =========                 |
  \\      /  F ield         | OpenFOAM: The Open Source CFD Toolbox
   \\    /   O peration     | Website:  https://openfoam.org
    \\  /    A nd           | Version:  6.0
     \\/     M anipulation  |
\*---------------------------------------------------------------------------*/
FoamFile
{
    version     2.0;
    format      ascii;
    class       surfaceScalarField;
    location    "1";
    object      phi;
}
// * * * * * * * * * * * * * * * * * * * * * * * * * * * * * * * * * * * * * //

dimensions      [0 3 -1 0 0 0 0];

internalField   nonuniform List<scalar> 
4670
(
0.000228735
-0.223047
0.222818
0.00110642
-0.189762
0.188884
0.00246159
-0.163611
0.162256
0.00412205
-0.141852
0.140191
0.00598763
-0.123351
0.121485
0.00801812
-0.107356
0.105325
0.0102106
-0.0933886
0.0911962
0.0125782
-0.0811147
0.0787471
0.015134
-0.0702652
0.0677094
-0.0606158
0.0578685
0.0178813
0.00030425
-0.223351
0.00129817
-0.190756
0.00276955
-0.165083
0.00452807
-0.14361
0.00646978
-0.125293
0.00855891
-0.109445
0.0108004
-0.0956301
0.0132163
-0.0835306
0.0158288
-0.0728777
-0.0634356
0.0186487
0.000382776
-0.223734
0.0014918
-0.191865
0.0030705
-0.166661
0.00491316
-0.145453
0.0069151
-0.127295
0.00904714
-0.111577
0.011324
-0.0979069
0.0137787
-0.0859853
0.0164441
-0.0755431
-0.0663319
0.0193404
0.000456441
-0.224191
0.00167508
-0.193083
0.00334771
-0.168334
0.00525425
-0.14736
0.0072924
-0.129333
0.00944159
-0.113726
0.0117276
-0.100193
0.0141956
-0.0884534
0.0168908
-0.0782384
-0.0692848
0.0198437
0.000527689
-0.224718
0.00184399
-0.1944
0.00358958
-0.17008
0.00553261
-0.149303
0.00757543
-0.131376
0.00970721
-0.115858
0.0119649
-0.102451
0.014406
-0.0908945
0.0170886
-0.080921
-0.0722508
0.0200546
0.000595449
-0.225314
0.00199351
-0.195798
0.00378632
-0.171872
0.0057339
-0.15125
0.00774535
-0.133387
0.00981981
-0.117932
0.0120041
-0.104635
0.0143668
-0.0932572
0.0169792
-0.0835334
-0.0751676
0.0198959
0.000659554
-0.225973
0.00212073
-0.197259
0.00393197
-0.173684
0.00585005
-0.153168
0.00779297
-0.13533
0.00976954
-0.119909
0.0118339
-0.106699
0.0140623
-0.0954856
0.016539
-0.0860101
-0.0779644
0.0193359
0.000720833
-0.226694
0.00222559
-0.198764
0.00402535
-0.175483
0.00587996
-0.155023
0.00771897
-0.137169
0.00956045
-0.12175
0.0114626
-0.108601
0.0135033
-0.0975263
0.0157757
-0.0882825
-0.080564
0.0183753
0.00078545
-0.22748
0.002314
-0.200292
0.0040708
-0.17724
0.00582981
-0.156782
0.0075355
-0.138875
0.00921406
-0.123429
0.0109217
-0.110309
0.0127249
-0.0993295
0.0147126
-0.0902702
-0.0828877
0.0170363
0.000874226
-0.228354
0.00239249
-0.20181
0.00407033
-0.178918
0.00570649
-0.158418
0.00726258
-0.140431
0.00877456
-0.124941
0.0102937
-0.111828
0.0118584
-0.100894
0.0135106
-0.0919224
-0.0848119
0.0154349
0.235061
0.000501495
-0.235562
0.23449
0.00057093
0.233845
0.000645104
0.233135
0.000710006
0.232373
0.000761803
0.231574
0.000798781
0.230754
0.000820085
0.229929
0.000825137
0.229124
0.000804877
0.000770245
0.211226
0.000632734
-0.211357
0.210845
0.000952042
0.210241
0.00124926
0.209436
0.00151498
0.208454
0.00174366
0.207321
0.00193168
0.206064
0.00207699
0.20471
0.00217942
0.203283
0.00223116
0.00224312
0.186756
0.00019392
-0.186318
0.18687
0.000838759
0.18668
0.00143891
0.186209
0.00198561
0.185481
0.00247214
0.184521
0.00289206
0.183357
0.00324086
0.182018
0.00351848
0.180528
0.00372105
0.00385269
0.164032
-0.000654649
-0.163183
0.164534
0.000336132
0.164706
0.0012669
0.164565
0.00212676
0.164131
0.00290658
0.163425
0.00359745
0.162474
0.00419216
0.161305
0.00468784
0.159944
0.00508143
0.0053788
0.144673
-0.00168343
-0.143644
0.145358
-0.000348668
0.14571
0.00091438
0.145745
0.0020919
0.14548
0.00317153
0.144935
0.00414234
0.144133
0.00499457
0.143098
0.00572307
0.141855
0.0063239
0.00680301
0.12897
-0.00269973
-0.127954
0.129652
-0.00102978
0.130009
0.000557228
0.130056
0.00204446
0.129811
0.00341663
0.129293
0.00466085
0.128521
0.00576577
0.127522
0.00672251
0.126321
0.00752497
0.00818294
0.116593
-0.00357839
-0.115714
0.117145
-0.00158166
0.117382
0.000319604
0.117321
0.0021059
0.116978
0.00375906
0.116375
0.00526439
0.115533
0.00660777
0.114476
0.00777982
0.113232
0.00876814
0.00958724
0.10697
-0.00425954
-0.106289
0.10733
-0.0019415
0.107383
0.000266431
0.107147
0.00234246
0.10664
0.00426585
0.105885
0.00601875
0.104908
0.00758527
0.103732
0.00895522
0.102388
0.0101123
0.0110813
0.0994986
-0.00473379
-0.0990243
0.0996546
-0.00209753
0.0995093
0.00041176
0.099082
0.00276975
0.0983943
0.00495349
0.097472
0.00694104
0.096343
0.00871431
0.0950372
0.010261
0.0935798
0.0115697
0.0127387
0.0936465
-0.0933576
-0.00502271
0.0936205
-0.00207158
0.0932991
0.000733203
0.0927043
0.00336449
0.0918612
0.00579666
0.090797
0.00800517
0.089544
0.00996734
0.0881414
0.0116636
0.0866076
0.0131035
0.0145344
0.233506
-0.00083261
-0.232673
0.234268
-0.000762032
0.234915
-0.000647207
0.235429
-0.000513613
0.235801
-0.000372085
0.236027
-0.000226118
0.236108
-8.10372e-05
0.236049
5.90069e-05
0.235864
0.000185537
0.000301284
0.200444
-0.00323836
-0.198038
0.202649
-0.00296739
0.204643
-0.00264064
0.206402
-0.00227268
0.207907
-0.00187766
0.209147
-0.00146546
0.210112
-0.00104639
0.210801
-0.000629748
0.211214
-0.000227205
0.000157924
0.168033
-0.00664421
-0.164627
0.171218
-0.00615239
0.174161
-0.00558344
0.176836
-0.00494828
0.179221
-0.00426254
0.181297
-0.00354185
0.183052
-0.00280083
0.184476
-0.00205356
0.185563
-0.00131499
-0.000596163
0.140477
-0.0105929
-0.136528
0.144206
-0.00988132
0.147682
-0.00906014
0.150879
-0.0081452
0.153773
-0.00715607
0.156344
-0.00611289
0.158578
-0.00503495
0.160465
-0.0039411
0.162001
-0.00285007
-0.00177866
0.119138
-0.0147795
-0.114951
0.123101
-0.013844
0.126801
-0.0127608
0.13021
-0.0115537
0.133305
-0.0102508
0.136069
-0.00887691
0.13849
-0.00745638
0.140562
-0.00601267
0.14228
-0.00456804
-0.00314319
0.103481
-0.0190159
-0.0992446
0.107486
-0.0178491
0.111211
-0.0164859
0.114627
-0.0149696
0.117715
-0.0133386
0.120462
-0.0116241
0.122862
-0.00985577
0.12491
-0.00806093
0.126607
-0.00626475
-0.00449088
0.0923291
-0.0232081
-0.0881368
0.096277
-0.021797
0.0999188
-0.0201277
0.103228
-0.0182784
0.10619
-0.0163007
0.1088
-0.0142339
0.111055
-0.0121112
0.112957
-0.00996279
0.114508
-0.00781607
-0.00569694
0.0844562
-0.02735
-0.0803144
0.0883119
-0.0256527
0.0918205
-0.0236362
0.0949676
-0.0214255
0.0977506
-0.0190838
0.10017
-0.0166533
0.102229
-0.01417
0.103931
-0.011665
0.105282
-0.00916698
-0.00670394
0.0788734
-0.0314761
-0.0747473
0.0826035
-0.0293828
0.0859499
-0.0269826
0.0889147
-0.0243904
0.0915044
-0.0216734
0.0937251
-0.018874
0.0955817
-0.0160266
0.0970792
-0.0131625
0.0982239
-0.0103117
-0.00750431
0.0748073
-0.0709664
-0.035317
0.0783934
-0.0329689
0.0815588
-0.030148
0.0843421
-0.0271736
0.0867521
-0.0240834
0.0887931
-0.020915
0.0904684
-0.017702
0.0917828
-0.0144768
0.0927427
-0.0112716
-0.0081192
0.035479
0.0270739
-0.0217412
-0.0408117
0.0301394
0.0304779
-0.0251383
0.0248699
0.0355908
-0.0303214
0.0197796
0.0434257
-0.0383354
0.0149973
0.0553539
-0.0505717
0.0106503
0.0729992
-0.0686522
0.00683613
0.0979759
-0.0941618
0.00362831
0.131426
-0.128218
0.00118463
0.173217
-0.170774
0.221453
-0.220268
0.0365844
0.0323938
-0.0419044
0.0312363
0.0358261
0.0259262
0.0409009
0.0207506
0.0486014
0.0158305
0.0602739
0.0112962
0.0775335
0.00726651
0.102006
0.00385438
0.134838
0.00126238
0.175809
0.222715
0.0373546
0.0376725
-0.0426333
0.0320297
0.041151
0.0267151
0.0462154
0.0214954
0.0538211
0.0164827
0.0652867
0.0118077
0.0822085
0.00760579
0.106208
0.00402386
0.13842
0.00130626
0.178527
0.224021
0.0377898
0.0428852
-0.0430024
0.0325171
0.0464237
0.0272321
0.0515004
0.0220076
0.0590456
0.0169461
0.0703482
0.0121766
0.086978
0.00784709
0.110537
0.0041352
0.142132
0.00132654
0.181336
0.225348
0.0378881
0.0480098
-0.0430127
0.0326951
0.0516167
0.0274731
0.0567224
0.0222826
0.0642361
0.0172156
0.0754152
0.0123982
0.0917954
0.00798833
0.114947
0.00418942
0.145931
0.00132603
0.184199
0.226674
0.0376405
0.0530247
-0.0426554
0.0325566
0.0567006
0.0274328
0.0618462
0.0223163
0.0693525
0.017288
0.0804435
0.0124697
0.0966138
0.00802717
0.119389
0.00418742
0.149771
0.00130604
0.18708
0.22798
0.037026
0.0579009
-0.0419022
0.0320882
0.0616384
0.0271042
0.0668303
0.0221056
0.0743511
0.0171617
0.0853874
0.0123902
0.101385
0.00796354
0.123816
0.00412806
0.153606
0.00126643
0.189942
0.229246
0.0360073
0.0625827
-0.040689
0.0312719
0.0663738
0.0264824
0.0716197
0.0216511
0.0791825
0.0168391
0.0901994
0.0121623
0.106062
0.00779981
0.128179
0.00401569
0.15739
0.00121045
0.192747
0.230457
0.0345329
0.0669671
-0.0389174
0.0300954
0.0708114
0.0255768
0.0761383
0.0209661
0.0837931
0.0163318
0.0948337
0.0117954
0.110598
0.00754406
0.13243
0.00385727
0.161077
0.00114696
0.195457
0.231604
0.0325179
-0.0365172
0.028582
0.024406
0.0200622
0.0156513
0.0112985
0.0072004
0.00365058
0.00106977
0.00816784
-0.0217547
0.0261341
-0.0125472
0.00475795
-0.0167906
0.0202005
0.0022218
-0.00857109
0.0111072
0.000579424
0.00391144
-0.00226907
-0.000199536
0.0217048
-0.0209259
-0.000289715
0.0456628
-0.0455727
-1.79659e-05
0.076314
-0.0765857
0.000231418
0.113986
-0.114235
0.000200992
0.159117
-0.159087
0.213182
-0.212981
0.0119423
-0.0175097
-0.0161874
0.00819777
-0.013046
0.00514647
-0.00551979
0.00291689
0.00614102
0.00154021
0.0230815
0.00089584
0.0463072
0.000704076
0.0765057
0.000607494
0.114082
0.00034738
0.159377
0.213529
0.0155575
-0.0131706
-0.0198966
0.0115217
-0.00901024
0.00803545
-0.00203353
0.00527714
0.00889932
0.00333002
0.0250286
0.00213111
0.0475061
0.00145752
0.0771793
0.000985601
0.114554
0.000467715
0.159895
0.213997
0.0189503
-0.00865089
-0.02347
0.0146539
-0.00471379
0.0108001
0.00182021
0.00758006
0.0121194
0.00510982
0.0274988
0.0033811
0.0492348
0.00222441
0.078336
0.00136472
0.115414
0.000581236
0.160679
0.214578
0.0221317
-0.00393822
-0.0268444
0.0175928
-0.000174856
0.0134162
0.00599676
0.00978856
0.0157471
0.00684608
0.0304413
0.00461799
0.0514629
0.00299242
0.0799616
0.00174418
0.116662
0.000692009
0.161731
0.21527
0.0250811
0.000954333
-0.0299737
0.0203232
0.00458304
0.015863
0.010457
0.0118766
0.0197335
0.00850917
0.0338087
0.00582175
0.0541504
0.00374911
0.0820342
0.0021198
0.118291
0.000801504
0.163049
0.216072
0.0277704
0.00600141
-0.0328175
0.0228242
0.00952919
0.0181202
0.015161
0.0138216
0.0240322
0.0100767
0.0375535
0.00696992
0.0572572
0.00447829
0.0845258
0.00248447
0.120285
0.000905748
0.164628
0.216977
0.0301739
0.0111714
-0.035344
0.0250745
0.0146286
0.0201679
0.0200677
0.0156037
0.0285964
0.0115292
0.041628
0.00804588
0.0607404
0.00516795
0.0874038
0.00282908
0.122624
0.00100273
0.166454
0.21798
0.0322709
0.0164298
-0.0375293
0.0270554
0.0198441
0.021988
0.0251351
0.0172049
0.0333795
0.0128492
0.0459837
0.00903512
0.0645546
0.00580968
0.0906292
0.00315459
0.125279
0.00109905
0.16851
0.219079
0.0340459
-0.0393573
0.0287517
0.0235654
0.0186096
0.0140216
0.00992398
0.00639141
0.00345241
0.00118873
0.0305852
0.0049527
-0.00940383
0.0339196
0.00114328
-0.00447772
0.036378
-0.00330464
0.000846246
0.0380614
-0.00798131
0.00629796
0.0389694
-0.0125837
0.0116757
0.0390808
-0.0169339
0.0168225
0.038372
-0.0208917
0.0216005
0.0368336
-0.0243417
0.0258801
0.0344796
-0.0271981
0.0295522
-0.0294072
0.0313509
0.0325358
0.023434
0.00171913
0.0260565
-0.00147919
0.0278656
-0.00511376
0.0288187
-0.00893434
0.0289146
-0.0126796
0.028153
-0.0161724
0.0265429
-0.0192815
0.0241126
-0.0219114
0.0209155
-0.024001
-0.0255218
0.0170301
0.0132656
-0.000439242
0.0148929
-0.00310644
0.0157712
-0.00599208
0.0158075
-0.00897061
0.0149848
-0.011857
0.013318
-0.0145056
0.010846
-0.0168096
0.00763287
-0.0186983
0.0037657
-0.0201338
-0.0211068
-0.000649342
-0.00113459
-0.00157373
-0.000553768
-0.00368726
-0.000671259
-0.00587459
-0.00156659
-0.00807528
-0.00325076
-0.0101728
-0.00569203
-0.0120643
-0.00882646
-0.0136751
-0.0125654
-0.0149593
-0.0168028
-0.0158964
-0.0164873
-0.0214223
-0.0207073
-0.00179226
-0.0210441
-0.00335045
-0.022011
-0.00490776
-0.0236506
-0.00643564
-0.0259553
-0.00786811
-0.0288765
-0.00914303
-0.0323369
-0.0102148
-0.0362399
-0.0110563
-0.0404791
-0.0116573
-0.0120207
-0.0449457
-0.0460223
-0.00134262
-0.0469785
-0.00239428
-0.0484664
-0.00341988
-0.0504943
-0.00440768
-0.0530367
-0.00532572
-0.0560383
-0.0061415
-0.0594231
-0.00682992
-0.0631037
-0.00737569
-0.0669883
-0.00777264
-0.00802141
-0.0709876
-0.0773256
-0.000602748
-0.0784841
-0.0012358
-0.0800578
-0.00184615
-0.0820357
-0.00242978
-0.0843865
-0.00297493
-0.087061
-0.00346696
-0.0899978
-0.00389316
-0.0931287
-0.00424478
-0.0963835
-0.00451782
-0.00471096
-0.099694
-0.114853
1.49022e-05
-0.115785
-0.000303213
-0.117021
-0.000610607
-0.118547
-0.000904186
-0.120338
-0.00118375
-0.12236
-0.00144433
-0.124573
-0.00168054
-0.12693
-0.00188804
-0.129382
-0.00206595
-0.00221593
-0.131877
-0.159282
0.000209732
-0.159689
0.000104443
-0.160302
1.9805e-06
-0.161114
-9.2363e-05
-0.162113
-0.000184942
-0.163282
-0.000275381
-0.164599
-0.000362684
-0.166042
-0.000445662
-0.167582
-0.000525971
-0.00061495
-0.169183
-0.212771
-0.212667
-0.212665
-0.212757
-0.212942
-0.213217
-0.21358
-0.214026
-0.214552
-0.215167
0.0275139
-0.0309571
0.0347941
0.0230655
-0.0318565
0.036305
0.0181165
-0.0321767
0.0371257
0.0127802
-0.0320255
0.0373618
0.00714929
-0.0315451
0.037176
0.00127433
-0.0308886
0.0367636
-0.00487696
-0.0301888
0.0363401
-0.0114549
-0.0294305
0.0360084
-0.0186563
-0.028094
0.0352955
-0.0245214
-0.0269537
0.0328187
0.0125525
-0.0264795
0.0076042
-0.0269082
0.00230577
-0.0268783
-0.00323315
-0.0264866
-0.00893516
-0.0258431
-0.0147748
-0.0250489
-0.0207982
-0.0241654
-0.0271171
-0.0231116
-0.0337395
-0.0214717
-0.01835
-0.0399109
-0.00550129
-0.0216275
-0.0106601
-0.0217494
-0.0160106
-0.0215278
-0.021459
-0.0210382
-0.0269456
-0.0203566
-0.0324518
-0.0195427
-0.0380007
-0.0186165
-0.0436135
-0.0174988
-0.0491529
-0.0159323
-0.0135373
-0.0539655
-0.0263162
-0.0167337
-0.0313617
-0.0167039
-0.0364617
-0.0164278
-0.0415427
-0.0159572
-0.0465591
-0.0153402
-0.0514924
-0.0146093
-0.0563397
-0.0137692
-0.0610715
-0.012767
-0.0655345
-0.0114693
-0.00975315
-0.0693187
-0.0495508
-0.0121286
-0.0541889
-0.0120658
-0.0587859
-0.0118309
-0.0632861
-0.0114569
-0.0676555
-0.0109707
-0.0718753
-0.0103895
-0.0759281
-0.00971648
-0.0797727
-0.00892236
-0.0832936
-0.00794845
-0.00677781
-0.0862689
-0.0750385
-0.00807769
-0.0790553
-0.00804902
-0.082982
-0.00790416
-0.0867805
-0.00765846
-0.0904228
-0.00732838
-0.0938876
-0.00692475
-0.0971569
-0.0064472
-0.100195
-0.00588384
-0.10293
-0.00521401
-0.00445424
-0.105253
-0.103023
-0.00474861
-0.106301
-0.00477109
-0.109486
-0.00471915
-0.112547
-0.00459782
-0.115459
-0.00441648
-0.118203
-0.0041801
-0.120761
-0.00388938
-0.123105
-0.00354026
-0.12519
-0.00312854
-0.00267601
-0.126968
-0.134397
-0.00222802
-0.136887
-0.0022814
-0.139312
-0.00229389
-0.141646
-0.00226437
-0.143865
-0.00219697
-0.14595
-0.00209519
-0.147879
-0.00196056
-0.149629
-0.00179006
-0.151171
-0.00158635
-0.00137199
-0.152475
-0.170816
-0.000594411
-0.17246
-0.000638128
-0.174086
-0.000667272
-0.175673
-0.000677362
-0.177197
-0.000672973
-0.178638
-0.000654944
-0.179974
-0.000624142
-0.181184
-0.000579565
-0.182247
-0.000523753
-0.000484985
-0.183134
-0.215761
-0.216399
-0.217066
-0.217744
-0.218417
-0.219072
-0.219696
-0.220275
-0.220799
-0.221284
0.000274557
-0.221559
0.000991857
-0.183851
0.0021128
-0.153596
0.00362993
-0.128485
0.00555009
-0.107174
0.00788147
-0.0886003
0.0106275
-0.0720647
0.0137858
-0.0571238
0.0173608
-0.0434859
-0.0308414
0.0212485
0.000208368
-0.221767
0.000799912
-0.184443
0.00176705
-0.154563
0.00309246
-0.129811
0.00476237
-0.108844
0.00676628
-0.0906042
0.00909508
-0.0743935
0.0117467
-0.0597755
0.0147542
-0.0464934
-0.03442
0.0183328
0.000155648
-0.221923
0.000659681
-0.184947
0.0015299
-0.155434
0.00274541
-0.131026
0.00428614
-0.110384
0.00614495
-0.092463
0.0083281
-0.0765766
0.010855
-0.0623024
0.0137626
-0.049401
-0.0377663
0.0171088
0.000112083
-0.222035
0.000569996
-0.185405
0.00139863
-0.156262
0.00256989
-0.132198
0.00405831
-0.111873
0.0058576
-0.0942623
0.00797947
-0.0786985
0.010446
-0.0647689
0.0132788
-0.0522338
-0.0409706
0.0164831
8.62512e-05
-0.222121
0.000533761
-0.185852
0.00136446
-0.157093
0.00253812
-0.133371
0.00402063
-0.113355
0.0058013
-0.096043
0.00788908
-0.0807863
0.0103006
-0.0671804
0.0130447
-0.0549779
-0.0440345
0.0161086
7.85522e-05
-0.2222
0.000547237
-0.186321
0.00141499
-0.157961
0.0026249
-0.134581
0.00413134
-0.114862
0.00591603
-0.0978277
0.00798186
-0.0828521
0.0103392
-0.0695377
0.01299
-0.0576287
-0.0469604
0.0159159
8.89759e-05
-0.222289
0.00060613
-0.186838
0.0015387
-0.158893
0.00281016
-0.135853
0.00436211
-0.116414
0.00616809
-0.0996336
0.00822491
-0.0849089
0.0105381
-0.0718509
0.0131069
-0.0601975
-0.0497675
0.015914
0.000117176
-0.222406
0.000706164
-0.187427
0.00172509
-0.159912
0.00307702
-0.137205
0.00469127
-0.118028
0.00653437
-0.101477
0.00859896
-0.0869735
0.0108882
-0.0741401
0.0134012
-0.0627105
-0.0524906
0.0161243
0.000166135
-0.222572
0.000845793
-0.188107
0.00196532
-0.161032
0.00340985
-0.138649
0.00509835
-0.119716
0.00699238
-0.103371
0.00908295
-0.0890641
0.0113735
-0.0764307
0.0138656
-0.0652027
-0.0551752
0.0165502
0.000246505
0.00102374
0.00224833
0.0037907
0.00555985
0.00751436
0.00964644
0.0119628
0.0144695
0.0171628
0.028337
-0.170237
0.159781
0.0413473
-0.056358
0.0433477
0.052917
0.00354529
-0.0151149
0.0614059
0.025583
-0.0340719
0.0670071
0.0298534
-0.0354547
0.0705118
0.027782
-0.0312867
0.0726408
0.0242167
-0.0263457
0.0738923
0.0207294
-0.0219808
0.0745763
0.0176506
-0.0183347
0.0748835
0.0149631
-0.0152703
0.0749323
0.0125996
-0.0126484
0.0748002
0.0105103
-0.0103782
0.074538
0.00866378
-0.0084016
0.0741785
0.00704654
-0.006687
0.073742
0.00564485
-0.00520842
0.073242
0.0044573
-0.00395727
0.0726848
0.00345976
-0.00290255
0.0720757
0.00264089
-0.00203172
0.0714189
0.00195526
-0.00129849
0.00121471
-0.000506663
0.0281709
-0.179759
0.040758
-0.0689452
0.052295
-0.00799164
0.060865
0.0170129
0.0665561
0.0241624
0.0701236
0.0242145
0.0722893
0.0220509
0.0735623
0.0194564
0.0742613
0.0169516
0.0745821
0.0146422
0.074646
0.0125357
0.0745318
0.0106245
0.0742909
0.00890467
0.0739561
0.00738127
0.0735481
0.00605292
0.0730798
0.00492556
0.0725576
0.00398192
0.0719867
0.00321183
0.0713713
0.00257065
0.00187829
0.0278788
-0.188297
0.0399231
-0.0809895
0.0513327
-0.0194013
0.0599292
0.00841647
0.065693
0.0183987
0.0693293
0.0205782
0.0715483
0.0198319
0.072863
0.0181417
0.0735985
0.0162161
0.0739554
0.0142853
0.0740579
0.0124332
0.0739865
0.0106959
0.0737934
0.00909774
0.073512
0.00766271
0.0731628
0.00640209
0.0727592
0.00532918
0.0723075
0.00443368
0.0718127
0.00370656
0.0712796
0.00310377
0.0024533
0.0273566
-0.19581
0.0387922
-0.0924251
0.0500135
-0.0306226
0.0585988
-0.000168894
0.0644242
0.0125732
0.0681365
0.0168659
0.0704249
0.0175435
0.0718006
0.016766
0.0725934
0.0154234
0.0730082
0.0138706
0.0731723
0.0122691
0.0731681
0.0107
0.073049
0.00921687
0.0728488
0.00786286
0.0725887
0.0066622
0.0722822
0.00563571
0.0719358
0.00478008
0.0715549
0.00408745
0.0711445
0.00351419
0.00289629
0.0265129
-0.202269
0.0373214
-0.103234
0.0483229
-0.041624
0.0568772
-0.00872314
0.0627597
0.00669074
0.0665562
0.0130695
0.068929
0.0151706
0.0703841
0.0153109
0.0712539
0.0145536
0.0717474
0.0133771
0.0719953
0.0120212
0.072082
0.0106133
0.0720623
0.0092366
0.0719709
0.00795429
0.0718293
0.00680371
0.0716517
0.00581333
0.071445
0.00498685
0.0712148
0.0043176
0.0709668
0.00376224
0.0031646
0.0252816
-0.207654
0.0354735
-0.113425
0.0462492
-0.0523998
0.0547706
-0.0172445
0.0607126
0.000748692
0.0646025
0.00917958
0.0670741
0.0126991
0.0686253
0.0137597
0.0695903
0.0135885
0.0701822
0.0127852
0.070535
0.0116684
0.0707354
0.0104129
0.0708397
0.00913232
0.0708836
0.00791043
0.0708893
0.00679793
0.0708716
0.00583106
0.0708379
0.00502057
0.0707945
0.00436101
0.0707475
0.00380925
0.00321665
0.0235296
-0.211848
0.0331586
-0.123054
0.0437571
-0.0629983
0.0522773
-0.0257647
0.058295
-0.00526904
0.0622912
0.00518342
0.0648753
0.010115
0.0665379
0.0120971
0.0676149
0.0125114
0.0683235
0.0120766
0.0688012
0.0111907
0.069137
0.010077
0.0693889
0.00888044
0.0695937
0.00770567
0.0697745
0.0066171
0.0699466
0.00565894
0.0701183
0.0048489
0.0702965
0.00418285
0.0704879
0.00361781
0.00301222
0.0209866
-0.214459
0.030227
-0.132295
0.0407734
-0.0735447
0.049372
-0.0343633
0.0555067
-0.0114038
0.0596326
0.00105757
0.0623463
0.00740124
0.0641359
0.0103075
0.0653411
0.0113063
0.0661836
0.0112341
0.066805
0.0105693
0.067297
0.00958509
0.067719
0.0084584
0.0681092
0.00731548
0.0684916
0.00623465
0.0688824
0.00526821
0.0692905
0.00444074
0.0697238
0.00374963
0.0701896
0.00315193
0.00251263
0.0181049
-0.215528
0.0269603
-0.14115
0.0373886
-0.083973
0.0460794
-0.043054
0.0523609
-0.0176853
0.05664
-0.00322149
0.0595012
0.00453997
0.0614335
0.00837523
0.0627824
0.00995738
0.0637755
0.010241
0.0645588
0.00978604
0.0652265
0.00891733
0.0658402
0.00784473
0.0664392
0.0067165
0.0670486
0.00562521
0.0676854
0.00463144
0.0683596
0.00376648
0.0690798
0.00302942
0.0698544
0.00237735
0.00168106
0.0168763
-0.216969
0.0244284
-0.148702
0.0341128
-0.0936574
0.0426358
-0.051577
0.0489719
-0.0240214
0.0533722
-0.00762175
0.0563733
0.00153887
0.0584522
0.00629633
0.0599549
0.00845464
0.0611125
0.00908336
0.0620742
0.00882433
0.0629366
0.00805501
0.0637625
0.00701881
0.0645927
0.00588628
0.0654534
0.00476449
0.0663624
0.00372244
0.067331
0.00279794
0.0683684
0.00199196
0.0694842
0.0012616
0.00048268
0.122965
-0.178684
-0.161251
0.106477
-0.132213
0.102308
-0.0894888
0.105084
-0.0543533
0.109846
-0.0287828
0.114381
-0.0121576
0.118023
-0.00210309
0.120729
0.0035909
0.12266
0.00652342
0.12401
0.00773353
0.124941
0.00789364
0.125577
0.00741822
0.12601
0.00658619
0.126302
0.00559418
0.126497
0.00456934
0.126626
0.00359372
0.126708
0.00271539
0.12676
0.00194047
0.126792
0.00122952
0.000469492
0.148388
-0.144534
-0.182538
0.131782
-0.115608
0.125754
-0.0834605
0.126591
-0.0551902
0.130322
-0.0325144
0.134498
-0.0163333
0.138135
-0.00574038
0.140982
0.000743905
0.143089
0.00441668
0.144601
0.00622202
0.145665
0.00682944
0.146406
0.00667677
0.146918
0.00607405
0.14727
0.00524221
0.14751
0.00432927
0.147672
0.00343186
0.14778
0.00260798
0.147849
0.00187106
0.147891
0.0011873
0.00045271
0.179326
-0.113568
-0.210292
0.16219
-0.0984717
0.154511
-0.0757813
0.153197
-0.0538762
0.155387
-0.0347045
0.158751
-0.0196977
0.162072
-0.0090611
0.164874
-0.0020582
0.167057
0.00223351
0.168683
0.00459585
0.169863
0.00564948
0.170706
0.00583352
0.171302
0.00547802
0.171721
0.00482335
0.172014
0.00403678
0.172216
0.00322989
0.172354
0.00246986
0.172446
0.00177912
0.172501
0.00113213
0.000431351
0.215982
-0.0865272
-0.243023
0.198491
-0.0809811
0.189188
-0.0664777
0.185635
-0.0503229
0.185881
-0.0349514
0.187984
-0.0218007
0.190621
-0.0116981
0.193124
-0.00456041
0.195227
0.000129903
0.196882
0.00294072
0.198137
0.00439499
0.199066
0.00490402
0.199745
0.00479956
0.200236
0.0043325
0.200588
0.00368444
0.200838
0.00298008
0.201013
0.00229454
0.201133
0.00165966
0.201204
0.00106054
0.000404029
0.257904
-0.0636638
-0.280767
0.240624
-0.063701
0.229937
-0.0557911
0.224334
-0.0447197
0.222499
-0.0331164
0.223008
-0.0223096
0.224615
-0.0133058
0.226536
-0.00648091
0.228363
-0.00169716
0.229926
0.00137785
0.231189
0.00313225
0.232174
0.00391872
0.232926
0.0040477
0.233491
0.00376745
0.23391
0.00326519
0.234216
0.00267394
0.234436
0.00207468
0.234589
0.0015071
0.234681
0.000968119
0.000368952
0.304667
-0.0449608
-0.32337
0.288503
-0.0475372
0.276977
-0.0442652
0.269709
-0.0374509
0.265906
-0.0293136
0.264653
-0.021057
0.264952
-0.0136042
0.266014
-0.00754346
0.267344
-0.00302678
0.268663
5.89066e-05
0.269842
0.00195291
0.270836
0.00292502
0.271642
0.00324122
0.272279
0.00313038
0.272771
0.00277321
0.273143
0.00230272
0.273415
0.0018019
0.273607
0.00131496
0.273726
0.000849609
0.000324016
0.35675
-0.0300762
-0.371635
0.342393
-0.03318
0.33073
-0.0326021
0.322282
-0.0290023
0.31679
-0.0238221
0.313779
-0.0180462
0.312588
-0.0124134
0.312555
-0.00751012
0.313166
-0.00363816
0.314072
-0.000846964
0.315056
0.000968784
0.315995
0.00198627
0.316827
0.00240915
0.317529
0.0024289
0.318097
0.00220472
0.318542
0.00185802
0.318877
0.00146714
0.319116
0.00107586
0.319266
0.000699143
0.00026688
0.41543
-0.018328
-0.427178
0.403088
-0.0208382
0.391856
-0.02137
0.382698
-0.0198445
0.37585
-0.0169732
0.371217
-0.0134133
0.368484
-0.00968054
0.3672
-0.00622569
0.366914
-0.00335282
0.367252
-0.00118501
0.367929
0.000291572
0.368745
0.00117067
0.369569
0.00158541
0.370324
0.00167394
0.370971
0.00155757
0.371497
0.00133199
0.371903
0.00106116
0.372197
0.000781887
0.372385
0.000510674
0.000195091
0.482703
-0.00875017
-0.492281
0.471994
-0.0101286
0.461318
-0.0106941
0.451718
-0.010245
0.443772
-0.0090267
0.437708
-0.0073492
0.433508
-0.00548036
0.430949
-0.00366666
0.429694
-0.00209787
0.429382
-0.000873312
0.429685
-1.16879e-05
0.430334
0.000521786
0.431128
0.000791558
0.431931
0.000870999
0.432661
0.000827696
0.433276
0.000716459
0.433762
0.000574959
0.434119
0.00042534
0.434351
0.000278718
0.000106429
0.561214
-0.569964
0.551085
0.540391
0.530146
0.52112
0.51377
0.50829
0.504623
0.502525
0.501652
0.50164
0.502162
0.502954
0.503825
0.504653
0.505369
0.505944
0.506369
0.506648
0.195471
-0.00499652
-0.195497
0.194748
-0.00134849
0.193287
0.00219429
0.191055
0.00559674
0.188027
0.0088246
0.184188
0.0118435
0.179534
0.0146221
0.174072
0.0171254
0.167838
0.0193375
0.0211216
0.209371
-0.00436939
-0.209998
0.208311
-0.000289353
0.206797
0.00370916
0.204808
0.00758571
0.202333
0.0112992
0.199368
0.0148085
0.195915
0.0180747
0.19198
0.0210606
0.187558
0.0237596
0.0261417
0.227995
-0.0034648
-0.228899
0.226936
0.000769474
0.225708
0.00493743
0.224292
0.00900144
0.222667
0.0129242
0.220806
0.0166699
0.218675
0.0202057
0.216233
0.0235023
0.213445
0.0265472
0.0292954
0.251002
-0.00249205
-0.251975
0.250099
0.00167262
0.249252
0.0057847
0.248442
0.00981118
0.247647
0.0137187
0.246843
0.0174743
0.246002
0.0210461
0.2451
0.0244047
0.244118
0.0275288
0.0303908
0.278446
-0.00161657
-0.279322
0.277844
0.00227475
0.277506
0.00612294
0.277418
0.00989925
0.277562
0.0135749
0.277914
0.0171221
0.278446
0.0205141
0.279124
0.0237268
0.279914
0.0267391
0.029537
0.311094
-0.000917226
-0.311794
0.31085
0.00251864
0.311054
0.00591943
0.311692
0.00926083
0.312748
0.0125189
0.3142
0.0156707
0.31602
0.018694
0.318178
0.0215684
0.320642
0.0242752
0.0268091
0.350091
-0.000416669
-0.350592
0.35021
0.00239997
0.350941
0.00518874
0.352271
0.00792986
0.354186
0.0106041
0.356664
0.0131929
0.35968
0.0156787
0.363203
0.0180452
0.3672
0.0202777
0.0223742
0.396944
-0.000114209
-0.397247
0.397417
0.00192692
0.398658
0.00394752
0.400655
0.00593306
0.40339
0.00786942
0.40684
0.00974304
0.410977
0.0115412
0.41577
0.013252
0.421183
0.0148651
0.0163788
0.453634
7.40645e-06
-0.453755
0.454447
0.00111372
0.456186
0.00220826
0.458836
0.00328286
0.462376
0.00432956
0.466778
0.00534082
0.47201
0.00630956
0.478033
0.00722909
0.484804
0.00809364
0.00890196
0.523155
-0.523147
0.524268
0.526477
0.529759
0.534089
0.53943
0.545739
0.552969
0.561062
0.172361
-0.0379755
-0.169703
0.176446
-0.0370537
0.180293
-0.0339951
0.183777
-0.0306574
0.186896
-0.0272028
0.189617
-0.0236356
0.191887
-0.0199724
0.193657
-0.0162468
0.194877
-0.0124917
-0.00873897
0.200327
-0.0400323
-0.198271
0.202484
-0.0392105
0.204477
-0.0359879
0.206183
-0.0323636
0.2076
-0.0286199
0.208734
-0.0247692
0.209565
-0.0208038
0.21007
-0.0167513
0.210223
-0.0126447
-0.00851407
0.231559
-0.0405067
-0.231084
0.231743
-0.0393946
0.231806
-0.0360512
0.231734
-0.0322909
0.231534
-0.0284207
0.231229
-0.0244634
0.23082
-0.0203956
0.230303
-0.0162336
0.229666
-0.0120078
-0.00774772
0.264611
-0.0391633
-0.265954
0.262892
-0.0376757
0.26122
-0.034379
0.259634
-0.0307056
0.258133
-0.0269193
0.256719
-0.0230494
0.255398
-0.0190743
0.254169
-0.0150047
0.253029
-0.0108682
-0.0066933
0.299727
-0.0361279
-0.302763
0.296398
-0.0343459
0.293284
-0.0312654
0.290459
-0.0278804
0.287913
-0.0243733
0.285637
-0.020774
0.283637
-0.0170741
0.281917
-0.0132845
0.280479
-0.00942988
-0.00553643
0.338321
-0.0315565
-0.342892
0.333674
-0.0296992
0.329392
-0.0269834
0.325551
-0.0240388
0.322148
-0.0209709
0.31918
-0.0178054
0.316652
-0.0145465
0.314575
-0.0112075
0.312955
-0.00780943
-0.00437544
0.382307
-0.0255864
-0.388277
0.376516
-0.0239082
0.371227
-0.0216946
0.366503
-0.0193154
0.362357
-0.0168247
0.358794
-0.014242
0.355825
-0.0115776
0.353463
-0.00884552
0.351717
-0.0060634
-0.00325029
0.433781
-0.0183306
-0.441037
0.426929
-0.017056
0.420704
-0.0154696
0.415158
-0.01377
0.410316
-0.0119825
0.406195
-0.010121
0.402814
-0.00819605
0.400188
-0.0062196
0.398329
-0.00420526
-0.00216732
0.495346
-0.00982483
-0.503852
0.487418
-0.00912817
0.48023
-0.00828149
0.473834
-0.00737363
0.468266
-0.00641417
0.463555
-0.00541098
0.45973
-0.00437095
0.456812
-0.0033014
0.454817
-0.00221019
-0.00110555
0.570744
-0.580569
0.561616
0.553334
0.54596
0.539546
0.534135
0.529764
0.526463
0.524253
0.126887
0.00622421
-0.0062428
0.126896
0.0181173
-0.0181271
0.12682
0.0288197
-0.0287429
0.126695
0.0379091
-0.0377842
0.12669
0.0462717
-0.0462675
0.127184
0.0554527
-0.0559458
0.128873
0.0670635
-0.0687533
0.132726
0.0848394
-0.0886921
0.14468
0.100642
-0.112596
0.142787
-0.16781
0.148113
0.0061188
0.148338
0.0178914
0.148607
0.0285516
0.148972
0.0375436
0.149676
0.0455676
0.151189
0.0539399
0.154418
0.0638347
0.160892
0.078365
0.175249
0.0862848
0.119766
0.172878
0.0059023
0.173414
0.0173555
0.174182
0.027783
0.175239
0.0364873
0.176881
0.0439254
0.179626
0.051195
0.184527
0.0589334
0.193097
0.0697954
0.206968
0.0724139
0.0956489
0.201776
0.00554649
0.202717
0.0164143
0.204145
0.0263554
0.206095
0.0345376
0.208871
0.0411487
0.212971
0.0470948
0.219337
0.0525677
0.229243
0.0598899
0.242282