/*--------------------------------*- C++ -*----------------------------------*\
  =========                 |
  \\      /  F ield         | OpenFOAM: The Open Source CFD Toolbox
   \\    /   O peration     | Website:  https://openfoam.org
    \\  /    A nd           | Version:  6.0
     \\/     M anipulation  |
\*---------------------------------------------------------------------------*/
FoamFile
{
    version     2.0;
    format      ascii;
    class       surfaceScalarField;
    location    "11.5";
    object      phi;
}
// * * * * * * * * * * * * * * * * * * * * * * * * * * * * * * * * * * * * * //

dimensions      [0 3 -1 0 0 0 0];

internalField   nonuniform List<scalar> 
38030
(
6.19746e-05
-0.160524
0.160462
0.000291707
-0.151511
0.151282
0.0006594
-0.144639
0.144272
0.00113712
-0.139298
0.13882
0.00170031
-0.135034
0.134471
0.00232654
-0.131503
0.130877
0.00299615
-0.128455
0.127786
0.00369255
-0.125716
0.12502
0.00440214
-0.123164
0.122455
0.00511409
-0.120721
0.120009
0.00582009
-0.118335
0.117629
0.00651403
-0.115977
0.115283
0.00719163
-0.113632
0.112954
0.00785013
-0.111293
0.110635
0.00848805
-0.108962
0.108324
0.00910484
-0.106642
0.106025
0.00970073
-0.10434
0.103744
0.0102765
-0.102062
0.101486
0.0108334
-0.0998151
0.0992582
0.011373
-0.0976066
0.097067
0.0118969
-0.0954413
0.0949174
0.0124069
-0.0933236
0.0928136
0.012905
-0.0912564
0.0907583
0.013393
-0.089241
0.088753
0.0138727
-0.0872773
0.0867976
0.0143458
-0.0853638
0.0848907
0.0148136
-0.083497
0.0830291
0.0152773
-0.0816723
0.0812086
0.0157373
-0.0798833
0.0794233
-0.0781221
0.0776659
0.0161935
7.35293e-05
-0.160597
0.000307205
-0.151745
0.000678402
-0.145011
0.00115973
-0.139779
0.00172598
-0.1356
0.00235439
-0.132131
0.00302509
-0.129126
0.00372135
-0.126412
0.00442956
-0.123873
0.00513894
-0.12143
0.00584131
-0.119038
0.00653069
-0.116667
0.00720297
-0.114304
0.00785556
-0.111946
0.00848712
-0.109594
0.00909726
-0.107252
0.00968635
-0.104929
0.0102553
-0.102631
0.0108054
-0.100365
0.0113382
-0.0981394
0.0118555
-0.0959586
0.0123592
-0.0938273
0.0128513
-0.0917484
0.0133335
-0.0897232
0.0138079
-0.0877517
0.0142761
-0.0858319
0.0147395
-0.0839604
0.0151993
-0.0821321
0.0156561
-0.0803401
-0.0785759
0.0161098
8.09188e-05
-0.160678
0.000319773
-0.151984
0.000695073
-0.145386
0.00118018
-0.140264
0.00174948
-0.136169
0.00237988
-0.132762
0.00305132
-0.129798
0.00374702
-0.127108
0.00445336
-0.124579
0.00515967
-0.122137
0.00585789
-0.119736
0.0065422
-0.117351
0.00720867
-0.114971
0.00785488
-0.112592
0.00847965
-0.110218
0.00908273
-0.107855
0.00966463
-0.10551
0.0102263
-0.103192
0.0107693
-0.100908
0.011295
-0.0986652
0.0118055
-0.0964691
0.0123026
-0.0943244
0.0127884
-0.0922341
0.0132646
-0.0901995
0.0137334
-0.0882204
0.0141963
-0.0862949
0.0146551
-0.0844191
0.0151107
-0.0825877
0.0155641
-0.0807934
-0.079027
0.0160152
8.53372e-05
-0.160763
0.000329489
-0.152228
0.000709431
-0.145766
0.00119849
-0.140753
0.00177077
-0.136742
0.00240292
-0.133394
0.00307475
-0.130469
0.00376944
-0.127803
0.00447343
-0.125283
0.00517616
-0.122839
0.00586973
-0.120429
0.00654849
-0.11803
0.00720866
-0.115631
0.00784804
-0.113232
0.00846559
-0.110836
0.00906122
-0.108451
0.00963555
-0.106085
0.0101897
-0.103746
0.0107251
-0.101444
0.0112436
-0.0991836
0.011747
-0.0969725
0.0122372
-0.0948147
0.0127163
-0.0927132
0.0131864
-0.0906695
0.0136492
-0.0886833
0.0141067
-0.0867524
0.0145605
-0.0848729
0.0150118
-0.083039
0.0154615
-0.0812431
-0.0794752
0.0159097
8.8535e-05
-0.160852
0.000337482
-0.152477
0.000722015
-0.14615
0.00121492
-0.141246
0.00178995
-0.137317
0.00242352
-0.134027
0.00309534
-0.131141
0.00378858
-0.128496
0.00448974
-0.125984
0.0051884
-0.123538
0.00587681
-0.121118
0.00654952
-0.118703
0.00720295
-0.116284
0.00783505
-0.113864
0.00844496
-0.111446
0.00903276
-0.109039
0.00959917
-0.106651
0.0101454
-0.104293
0.0106731
-0.101971
0.0111839
-0.0996945
0.0116799
-0.0974685
0.012163
-0.0952978
0.0126353
-0.0931855
0.0130988
-0.0911331
0.0135555
-0.0891401
0.0140074
-0.0872042
0.014456
-0.0853215
0.0149027
-0.0834858
0.0153484
-0.0816888
-0.0799203
0.0157935
9.1098e-05
-0.160943
0.000344318
-0.15273
0.000733161
-0.146539
0.00122964
-0.141742
0.00180711
-0.137894
0.00244174
-0.134662
0.00311312
-0.131813
0.00380443
-0.129187
0.00450227
-0.126682
0.00519635
-0.124232
0.00587912
-0.121801
0.0065453
-0.119369
0.00719152
-0.116931
0.00781591
-0.114488
0.00841779
-0.112048
0.00899737
-0.109618
0.00955552
-0.107209
0.0100936
-0.104831
0.0106131
-0.102491
0.0111161
-0.100197
0.0116044
-0.0979568
0.0120801
-0.0957735
0.0125453
-0.0936507
0.0130021
-0.0915899
0.0134525
-0.0895904
0.0138984
-0.0876501
0.0143415
-0.0857647
0.0147834
-0.0839276
0.015225
-0.0821304
-0.0803621
0.0156668
9.32933e-05
-0.161036
0.000350337
-0.152987
0.000743121
-0.146932
0.00124284
-0.142242
0.00182237
-0.138474
0.00245762
-0.135297
0.00312811
-0.132483
0.003817
-0.129876
0.00451102
-0.127376
0.00520004
-0.124921
0.00587666
-0.122477
0.00653584
-0.120028
0.0071744
-0.117569
0.00779066
-0.115104
0.00838411
-0.112641
0.00895511
-0.110189
0.00950464
-0.107759
0.0100341
-0.10536
0.0105453
-0.103002
0.0110401
-0.100692
0.0115205
-0.0984372
0.0119886
-0.0962416
0.0124465
-0.0941086
0.0128963
-0.0920397
0.01334
-0.0900342
0.0137798
-0.0880899
0.0142173
-0.0862022
0.0146541
-0.0843645
0.0150914
-0.0825676
-0.0808003
0.0155296
9.52391e-05
-0.161132
0.000355727
-0.153248
0.000752067
-0.147328
0.00125462
-0.142745
0.0018358
-0.139055
0.00247124
-0.135933
0.00314034
-0.133152
0.00382633
-0.130562
0.00451603
-0.128066
0.00519946
-0.125605
0.00586946
-0.123147
0.00652117
-0.12068
0.00715162
-0.1182
0.00775932
-0.115712
0.00834395
-0.113226
0.00890601
-0.110751
0.00944661
-0.1083
0.00996728
-0.105881
0.0104698
-0.103505
0.0109561
-0.101179
0.0114284
-0.0989094
0.0118886
-0.0967018
0.0123389
-0.0945589
0.0127814
-0.0924822
0.0132184
-0.0904712
0.0136517
-0.0885232
0.0140833
-0.0866338
0.0145149
-0.084796
0.0149475
-0.0830003
-0.0812347
0.015382
9.70013e-05
-0.161229
0.000360596
-0.153511
0.000760112
-0.147728
0.0012651
-0.14325
0.00184748
-0.139637
0.00248264
-0.136568
0.00314987
-0.133819
0.00383245
-0.131245
0.00451731
-0.128751
0.00519467
-0.126282
0.00585755
-0.12381
0.00650132
-0.121323
0.00712322
-0.118822
0.00772197
-0.116311
0.00829739
-0.113801
0.00885016
-0.111304
0.00938149
-0.108831
0.00989301
-0.106392
0.0103866
-0.103998
0.0108642
-0.101656
0.011328
-0.0993731
0.0117801
-0.0971538
0.0122226
-0.0950014
0.0126577
-0.0929173
0.0130875
-0.090901
0.0135142
-0.0889499
0.0139397
-0.0870593
0.0143657
-0.085222
0.0147935
-0.0834281
-0.0816653
0.0152241
9.86087e-05
-0.161327
0.000365012
-0.153778
0.000767332
-0.14813
0.00127435
-0.143757
0.00185749
-0.14022
0.00249188
-0.137202
0.00315675
-0.134484
0.00383541
-0.131923
0.00451492
-0.12943
0.0051857
-0.126953
0.00584098
-0.124465
0.00647636
-0.121959
0.00708928
-0.119434
0.00767865
-0.1169
0.00824449
-0.114367
0.00878761
-0.111847
0.00930935
-0.109353
0.00981143
-0.106894
0.0102958
-0.104482
0.0107644
-0.102125
0.0112195
-0.0998283
0.0116632
-0.0975975
0.0120977
-0.0954359
0.012525
-0.0933447
0.0129475
-0.0913235
0.0133673
-0.0893697
0.0137864
-0.0874784
0.0142066
-0.0856422
0.0146294
-0.0838509
-0.0820916
0.0150558
0.000100081
-0.161427
0.000369014
-0.154047
0.000773785
-0.148535
0.00128242
-0.144265
0.00186588
-0.140804
0.00249903
-0.137835
0.00316104
-0.135146
0.00383526
-0.132597
0.00450891
-0.130104
0.00517261
-0.127616
0.00581982
-0.125113
0.00644634
-0.122585
0.00704985
-0.120038
0.00762945
-0.11748
0.00818534
-0.114923
0.00871846
-0.11238
0.00923028
-0.109864
0.00972261
-0.107387
0.0101974
-0.104957
0.0106569
-0.102584
0.011103
-0.100274
0.0115381
-0.0980326
0.0119642
-0.095862
0.0123836
-0.0937641
0.0127985
-0.0917384
0.013211
-0.0897823
0.0136235
-0.0878908
0.0140376
-0.0860564
0.0144552
-0.0842685
-0.0825136
0.0148772
0.00010143
-0.161529
0.000372627
-0.154318
0.000779513
-0.148942
0.00128938
-0.144775
0.00187271
-0.141387
0.00250415
-0.138467
0.00316279
-0.135805
0.00383206
-0.133267
0.00449936
-0.130771
0.00515549
-0.128273
0.00579414
-0.125751
0.00641136
-0.123203
0.00700503
-0.120632
0.00757447
-0.118049
0.00812002
-0.115468
0.0086428
-0.112903
0.00914437
-0.110366
0.00962665
-0.107869
0.0100917
-0.105422
0.0105416
-0.103034
0.0109785
-0.100711
0.0114046
-0.0984587
0.0118222
-0.0962795
0.0122333
-0.0941752
0.0126403
-0.0921454
0.0130454
-0.0901874
0.0134508
-0.0882962
0.0138587
-0.0864642
0.0142706
-0.0846804
-0.082931
0.014688
0.000102657
-0.161631
0.000375875
-0.154591
0.000784551
-0.14935
0.00129527
-0.145286
0.00187805
-0.14197
0.0025073
-0.139096
0.00316207
-0.13646
0.0038259
-0.133931
0.00448633
-0.131431
0.0051344
-0.128921
0.00576404
-0.126381
0.00637151
-0.12381
0.00695493
-0.121215
0.0075138
-0.118608
0.00804866
-0.116003
0.00856074
-0.113415
0.00905175
-0.110857
0.00952365
-0.108341
0.00997857
-0.105877
0.0104187
-0.103474
0.0108461
-0.101139
0.0112631
-0.0988757
0.0116717
-0.0966882
0.0120742
-0.0945778
0.012473
-0.0925441
0.0128703
-0.0905847
0.0132684
-0.0886944
0.0136696
-0.0868654
0.0140757
-0.0850866
-0.0833435
0.0144883
0.000103768
-0.161735
0.00037877
-0.154866
0.000788936
-0.149761
0.00130014
-0.145797
0.00188195
-0.142552
0.00250855
-0.139723
0.00315897
-0.13711
0.00381685
-0.134588
0.00446993
-0.132084
0.00510946
-0.12956
0.00572962
-0.127001
0.00632691
-0.124407
0.00689967
-0.121788
0.00744759
-0.119156
0.00797138
-0.116527
0.00847242
-0.113916
0.00895252
-0.111337
0.00941375
-0.108802
0.00985826
-0.106322
0.0102882
-0.103904
0.0107059
-0.101556
0.0111133
-0.0992831
0.0115128
-0.0970876
0.0119064
-0.0949714
0.0122966
-0.0929343
0.0126857
-0.0909737
0.0130761
-0.0890848
0.0134703
-0.0872596
0.0138702
-0.0854865
-0.0837509
0.0142776
0.000104762
-0.16184
0.00038133
-0.155143
0.000792705
-0.150172
0.00130405
-0.146309
0.00188448
-0.143132
0.00250798
-0.140346
0.00315357
-0.137756
0.00380501
-0.13524
0.00445025
-0.13273
0.00508078
-0.130191
0.00569102
-0.127611
0.0062777
-0.124994
0.00683938
-0.122349
0.00737597
-0.119693
0.00788833
-0.117039
0.00837798
-0.114406
0.00884685
-0.111806
0.00929707
-0.109252
0.00973085
-0.106756
0.0101504
-0.104324
0.0105579
-0.101964
0.0109556
-0.0996807
0.0113455
-0.0974775
0.0117299
-0.0953558
0.0121111
-0.0933155
0.0124915
-0.0913542
0.0128739
-0.0894671
0.0132605
-0.0876462
0.0136539
-0.0858799
-0.0841527
0.0140557
0.00010564
-0.161946
0.000383575
-0.155421
0.000795903
-0.150584
0.00130707
-0.14682
0.00188573
-0.143711
0.00250568
-0.140966
0.00314597
-0.138396
0.0037905
-0.135884
0.00442743
-0.133367
0.00504849
-0.130812
0.00564836
-0.128211
0.00622402
-0.12557
0.00677424
-0.1229
0.00729912
-0.120217
0.00779969
-0.11754
0.00827761
-0.114884
0.0087349
-0.112263
0.00917378
-0.109691
0.0095965
-0.107178
0.0100053
-0.104733
0.0104024
-0.102361
0.0107898
-0.100068
0.0111698
-0.0978575
0.0115445
-0.0957305
0.0119163
-0.0936873
0.0122877
-0.0917256
0.0126614
-0.0898408
0.0130401
-0.0880249
0.0134263
-0.0862661
-0.0845487
0.0138222
0.000106399
-0.162052
0.000385525
-0.1557
0.000798585
-0.150997
0.00130927
-0.14733
0.00188579
-0.144287
0.00250176
-0.141582
0.00313628
-0.13903
0.00377343
-0.136522
0.00440158
-0.133995
0.00501274
-0.131423
0.00560183
-0.1288
0.00616606
-0.126134
0.00670443
-0.123438
0.00721723
-0.12073
0.00770566
-0.118028
0.0081715
-0.11535
0.00861688
-0.112709
0.00904407
-0.110118
0.0094554
-0.10759
0.0098531
-0.10513
0.0102394
-0.102747
0.0106163
-0.100445
0.0109859
-0.0982271
0.0113505
-0.0960951
0.0117124
-0.0940492
0.0120741
-0.0920873
0.0124385
-0.0902052
0.0128086
-0.088395
0.0131871
-0.0866447
-0.0849381
0.0135766
0.000107042
-0.162159
0.000387214
-0.15598
0.000800817
-0.151411
0.00131075
-0.14784
0.00188476
-0.144861
0.00249633
-0.142194
0.00312463
-0.139659
0.00375394
-0.137151
0.00437288
-0.134614
0.0049737
-0.132024
0.00555159
-0.129378
0.00610401
-0.126686
0.00663016
-0.123964
0.00713053
-0.121231
0.00760647
-0.118504
0.00805989
-0.115803
0.00849302
-0.113142
0.0089082
-0.110534
0.00930777
-0.107989
0.009694
-0.105517
0.010069
-0.103122
0.010435
-0.100811
0.0107938
-0.098586
0.0111478
-0.0964491
0.0114992
-0.0944005
0.0118506
-0.0924388
0.012205
-0.0905596
0.0125657
-0.0887557
0.0129358
-0.0870148
-0.0853205
0.0133181
0.000107572
-0.162267
0.00038869
-0.156261
0.000802694
-0.151825
0.00131162
-0.148349
0.00188276
-0.145433
0.00248951
-0.142801
0.00311116
-0.14028
0.00373219
-0.137772
0.00434148
-0.135223
0.00493156
-0.132614
0.00549786
-0.129944
0.00603809
-0.127226
0.00655167
-0.124478
0.00703927
-0.121718
0.0075024
-0.118968
0.00794308
-0.116244
0.00836362
-0.113562
0.00876644
-0.110936
0.0091539
-0.108377
0.00952827
-0.105891
0.0098917
-0.103486
0.0102462
-0.101166
0.0105938
-0.0989336
0.0109365
-0.0967918
0.0112767
-0.0947407
0.0116171
-0.0927791
0.0119607
-0.0909033
0.0123111
-0.0891061
0.0126719
-0.0873755
-0.0856948
0.0130462
0.000107995
-0.162375
0.00039002
-0.156543
0.00080433
-0.152239
0.00131201
-0.148857
0.00187994
-0.146
0.00248146
-0.143402
0.00309602
-0.140895
0.00370834
-0.138384
0.00430758
-0.135822
0.00488652
-0.133193
0.00544086
-0.130499
0.00596855
-0.127754
0.00646924
-0.124978
0.00694376
-0.122193
0.00739376
-0.119418
0.00782138
-0.116671
0.00822902
-0.11397
0.00861913
-0.111327
0.00899412
-0.108752
0.00935624
-0.106253
0.00970762
-0.103837
0.0100502
-0.101508
0.010386
-0.0992694
0.0107169
-0.0971227
0.0110452
-0.0950691
0.0113737
-0.0931075
0.0117055
-0.0912351
0.0120445
-0.089445
0.0123947
-0.0877258
-0.0860601
0.01276
0.000108334
-0.162483
0.000391308
-0.156826
0.000805877
-0.152654
0.0013121
-0.149363
0.00187646
-0.146565
0.00247234
-0.143998
0.00307938
-0.141502
0.00368258
-0.138987
0.00427136
-0.136411
0.00483879
-0.13376
0.00538083
-0.131041
0.00589567
-0.128269
0.00638316
-0.125466
0.0068443
-0.122654
0.0072809
-0.119854
0.00769518
-0.117086
0.00808961
-0.114364
0.0084667
-0.111704
0.00882885
-0.109114
0.00917834
-0.106603
0.00951723
-0.104176
0.00984744
-0.101838
0.0101708
-0.0995927
0.0104893
-0.0974412
0.0108049
-0.0953847
0.0111205
-0.0934231
0.0114393
-0.0915539
0.0117655
-0.0897712
0.0121037
-0.088064
-0.0864149
0.0124585
0.000108635
-0.162592
0.000392701
-0.15711
0.000807536
-0.153069
0.00131207
-0.149868
0.00187249
-0.147125
0.00246231
-0.144588
0.00306142
-0.142101
0.00365509
-0.139581
0.00423304
-0.136989
0.00478861
-0.134316
0.00531803
-0.13157
0.00581972
-0.128771
0.00629374
-0.12594
0.00674126
-0.123101
0.0071642
-0.120277
0.00756489
-0.117486
0.00794585
-0.114745
0.00830963
-0.112067
0.00865863
-0.109463
0.0089951
-0.106939
0.00932108
-0.104502
0.0096384
-0.102156
0.0099488
-0.0999031
0.010254
-0.0977464
0.0105562
-0.0956868
0.0108577
-0.0937247
0.0111622
-0.0918583
0.011474
-0.090083
0.0117985
-0.0883885
-0.0867575
0.0121411
0.000108998
-0.162701
0.000394435
-0.157396
0.00080957
-0.153484
0.00131216
-0.15037
0.00186825
-0.147681
0.00245158
-0.145171
0.00304233
-0.142692
0.00362608
-0.140165
0.00419283
-0.137556
0.00473622
-0.134859
0.00525273
-0.132087
0.00574101
-0.129259
0.00620133
-0.1264
0.00663501
-0.123535
0.0070441
-0.120686
0.007431
-0.117873
0.00779829
-0.115113
0.00814851
-0.112418
0.00848408
-0.109798
0.00880721
-0.107262
0.00911987
-0.104815
0.00942382
-0.10246
0.00972067
-0.1002
0.010012
-0.0980378
0.0102997
-0.0959745
0.0105861
-0.0940111
0.0108748
-0.092147
0.0111703
-0.0903786
0.0114789
-0.088697
-0.0870856
0.0118069
0.000109615
-0.16281
0.000396868
-0.157683
0.000812331
-0.153899
0.00131266
-0.150871
0.00186396
-0.148233
0.00244033
-0.145747
0.00302229
-0.143274
0.00359572
-0.140738
0.00415094
-0.138111
0.00468184
-0.13539
0.00518518
-0.13259
0.00565984
-0.129734
0.00610628
-0.126847
0.00652598
-0.123955
0.00692107
-0.121081
0.00729406
-0.118246
0.00764752
-0.115466
0.00798403
-0.112754
0.00830596
-0.11012
0.00861549
-0.107572
0.0089145
-0.105114
0.00920465
-0.10275
0.00948739
-0.100483
0.00976414
-0.0983145
0.0100365
-0.0962469
0.0103066
-0.0942812
0.0105777
-0.0924181
0.0108548
-0.0906557
0.0111447
-0.0889869
-0.0873962
0.0114553
0.000110873
-0.162921
0.000400555
-0.157973
0.000816271
-0.154315
0.00131387
-0.151368
0.00185984
-0.148779
0.00242874
-0.146316
0.00300147
-0.143847
0.0035642
-0.141301
0.00410755
-0.138654
0.00462569
-0.135908
0.00511564
-0.13308
0.00557652
-0.130195
0.00600895
-0.127279
0.00641456
-0.12436
0.0067956
-0.121462
0.00715462
-0.118605
0.00749422
-0.115806
0.00781695
-0.113077
0.00812515
-0.110428
0.00842092
-0.107867
0.00870605
-0.105399
0.00898208
-0.103026
0.00925027
-0.100751
0.0095118
-0.098576
0.00976794
-0.096503
0.0100205
-0.0945337
0.0102723
-0.0926699
0.0105283
-0.0909117
0.0107959
-0.0892545
-0.0876854
0.0110851
0.000113443
-0.163034
0.000406261
-0.158265
0.000821889
-0.154731
0.00131611
-0.151862
0.00185611
-0.149319
0.00241699
-0.146877
0.00298003
-0.14441
0.00353168
-0.141853
0.00406284
-0.139185
0.00456798
-0.136413
0.00504436
-0.133556
0.00549132
-0.130642
0.00590967
-0.127698
0.00630119
-0.124752
0.00666819
-0.121829
0.00701328
-0.11895
0.00733908
-0.116132
0.0076481
-0.113386
0.00794262
-0.110723
0.00822466
-0.108149
0.00849588
-0.10567
0.00875765
-0.103288
0.00901105
-0.101004
0.00925695
-0.0988219
0.00949623
-0.0967423
0.00973012
-0.0947676
0.00996091
-0.0929007
0.010193
-0.0911437
0.0104343
-0.0894958
-0.0879486
0.0106975
0.000118332
-0.163153
0.00041487
-0.158562
0.000829695
-0.155145
0.00131965
-0.152352
0.00185294
-0.149852
0.00240522
-0.147429
0.00295807
-0.144962
0.00349826
-0.142393
0.00401694
-0.139704
0.00450886
-0.136905
0.00497152
-0.134019
0.0054045
-0.131074
0.00580878
-0.128102
0.00618624
-0.125129
0.00653932
-0.122182
0.00687064
-0.119282
0.00718283
-0.116444
0.00747837
-0.113681
0.00775945
-0.111004
0.00802798
-0.108418
0.0082855
-0.105928
0.00853317
-0.103535
0.00877184
-0.101243
0.00900207
-0.0990522
0.00922427
-0.0969645
0.00943903
-0.0949824
0.00964772
-0.0931094
0.00985371
-0.0913497
0.010065
-0.0897071
-0.0881802
0.0102966
0.00012709
-0.16328
0.000427808
-0.158863
0.000840564
-0.155558
0.00132496
-0.152837
0.00185057
-0.150378
0.00239351
-0.147972
0.00293565
-0.145505
0.00346398
-0.142921
0.0039699
-0.14021
0.00444841
-0.137384
0.00489727
-0.134468
0.00531625
-0.131493
0.0057065
-0.128492
0.00607006
-0.125493
0.00640941
-0.122522
0.00672724
-0.119599
0.00702616
-0.116743
0.0073086
-0.113964
0.00757671
-0.111272
0.00783224
-0.108674
0.00807656
-0.106172
0.00831062
-0.103769
0.00853499
-0.101467
0.00874982
-0.099267
0.00895505
-0.0971697
0.00915058
-0.0951779
0.0093367
-0.0932955
0.00951471
-0.0915277
0.00969035
-0.0898827
-0.0883696
0.00987971
0.000144145
-0.163424
0.000448824
-0.159167
0.000856195
-0.155966
0.00133253
-0.153313
0.00184899
-0.150894
0.00238175
-0.148505
0.00291265
-0.146036
0.00342876
-0.143437
0.00392169
-0.140703
0.00438666
-0.137849
0.00482166
-0.134903
0.00522667
-0.131898
0.00560302
-0.128868
0.00595287
-0.125843
0.00627879
-0.122848
0.0065835
-0.119904
0.00686963
-0.117029
0.00713958
-0.114234
0.00739541
-0.111528
0.00763878
-0.108917
0.00787086
-0.106404
0.00809234
-0.103991
0.00830339
-0.101678
0.00850364
-0.0994672
0.00869226
-0.0973583
0.00886812
-0.0953538
0.00902969
-0.0934571
0.00917425
-0.0916723
0.00930196
-0.0900104
-0.0885006
0.00943295
0.000183845
-0.163608
0.000482667
-0.159466
0.000876709
-0.15636
0.00134155
-0.153778
0.00184749
-0.1514
0.00236945
-0.149027
0.00288874
-0.146555
0.00339241
-0.143941
0.0038722
-0.141183
0.00432355
-0.1383
0.00474469
-0.135324
0.00513582
-0.13229
0.00549843
-0.129231
0.00583481
-0.126179
0.00614765
-0.123161
0.00643971
-0.120196
0.00671365
-0.117303
0.00697187
-0.114492
0.0072164
-0.111773
0.00744883
-0.109149
0.00767023
-0.106625
0.00788111
-0.104202
0.0080813
-0.101879
0.00826989
-0.0996558
0.00844509
-0.0975335
0.0086041
-0.0955128
0.00874196
-0.093595
0.00884825
-0.0917786
0.00890758
-0.0900698
-0.0885525
0.00895952
0.166549
0.000131174
-0.16668
0.16644
0.000109115
0.166339
0.000100508
0.166242
9.68375e-05
0.166147
9.54668e-05
0.166051
9.5469e-05
0.165955
9.62338e-05
0.165858
9.73562e-05
0.165759
9.85977e-05
0.165659
9.98418e-05
0.165558
0.000101027
0.165456
0.000102123
0.165353
0.000103122
0.165249
0.000104017
0.165144
0.000104811
0.165039
0.000105503
0.164933
0.000106096
0.164826
0.000106591
0.164719
0.000106984
0.164612
0.000107271
0.164504
0.000107444
0.164397
0.000107483
0.16429
0.000107353
0.164183
0.000106998
0.164076
0.000106305
0.163971
0.000105061
0.163868
0.000102802
0.16377
9.85182e-05
0.163681
8.91093e-05
7.28516e-05
0.16644
0.000323891
-0.166633
0.166239
0.000310765
0.166034
0.000305104
0.165827
0.000304092
0.165617
0.000305474
0.165404
0.000308408
0.165188
0.000312382
0.164968
0.000316948
0.164745
0.000321778
0.164518
0.000326658
0.164288
0.000331458
0.164054
0.000336094
0.163816
0.000340508
0.163576
0.000344671
0.163332
0.00034856
0.163085
0.000352162
0.162836
0.000355468
0.162584
0.000358472
0.16233
0.00036116
0.162074
0.000363521
0.161816
0.000365529
0.161556
0.000367147
0.161295
0.000368304
0.161033
0.000368889
0.160771
0.000368711
0.160508
0.000367434
0.160247
0.00036446
0.159986
0.000358816
0.159727
0.000348454
0.000333666
0.16574
0.000539607
-0.165956
0.165508
0.000542747
0.165265
0.000548422
0.165012
0.000556591
0.164751
0.000566209
0.164483
0.000576747
0.164207
0.000587925
0.163925
0.000599458
0.163636
0.000611095
0.16334
0.00062264
0.163037
0.00063395
0.162728
0.000644922
0.162413
0.000655482
0.162092
0.000665575
0.161766
0.000675164
0.161434
0.000684221
0.161097
0.000692723
0.160754
0.000700657
0.160407
0.000708
0.160056
0.000714732
0.159701
0.00072082
0.159342
0.000726213
0.158979
0.000730831
0.158614
0.000734551
0.158245
0.000737181
0.157874
0.000738423
0.157501
0.000737831
0.157125
0.000734842
0.156745
0.000728457
0.000718937
0.164325
0.000751175
-0.164536
0.164096
0.000771397
0.163852
0.00079192
0.163596
0.000813248
0.163327
0.000835074
0.163047
0.000857119
0.162755
0.000879221
0.162453
0.000901222
0.162142
0.000922955
0.16182
0.000944274
0.161489
0.000965061
0.161149
0.000985223
0.160799
0.00100469
0.160442
0.0010234
0.160075
0.00104131
0.159701
0.00105839
0.159319
0.00107462
0.15893
0.00108996
0.158534
0.00110441
0.15813
0.00111793
0.157721
0.00113049
0.157305
0.00114204
0.156883
0.00115252
0.156456
0.00116182
0.156023
0.00116978
0.155586
0.0011762
0.155143
0.0011808
0.154694
0.00118327
0.15424
0.00118312
0.0011805
0.162227
0.000937923
-0.162413
0.162022
0.000975709
0.161801
0.00101281
0.161565
0.00104969
0.161314
0.00108631
0.161048
0.00112257
0.160769
0.00115835
0.160477
0.00119355
0.160172
0.00122806
0.159854
0.00126177
0.159525
0.00129458
0.159183
0.00132643
0.158831
0.00135724
0.158467
0.00138697
0.158093
0.00141556
0.157708
0.001443
0.157314
0.00146925
0.15691
0.00149429
0.156496
0.0015181
0.156073
0.00154066
0.155642
0.00156195
0.155202
0.00158193
0.154754
0.00160055
0.154298
0.00161773
0.153834
0.00163338
0.153363
0.00164737
0.152884
0.00165954
0.152398
0.00166974
0.151903
0.00167776
0.0016838
0.159537
0.00108813
-0.159687
0.159368
0.00114402
0.159182
0.00119875
0.158979
0.0012526
0.15876
0.00130566
0.158525
0.00135787
0.158274
0.00140915
0.158008
0.00145943
0.157728
0.00150862
0.157433
0.00155664
0.157124
0.00160341
0.156801
0.00164887
0.156466
0.00169294
0.156117
0.0017356
0.155756
0.00177678
0.155382
0.00181648
0.154997
0.00185465
0.1546
0.00189129
0.154192
0.00192638
0.153772
0.0019599
0.153343
0.00199184
0.152902
0.00202218
0.152452
0.0020509
0.151992
0.00207796
0.151522
0.0021033
0.151042
0.00212687
0.150553
0.0021486
0.150054
0.00216845
0.149546
0.00218635
0.00220255
0.156378
0.00119739
-0.156488
0.156251
0.00127175
0.156105
0.00134465
0.155941
0.00141628
0.15576
0.00148668
0.155562
0.00155585
0.155347
0.00162374
0.155117
0.00169026
0.15487
0.00175536
0.154608
0.00181895
0.15433
0.00188098
0.154038
0.00194136
0.15373
0.00200005
0.153409
0.00205699
0.153074
0.00211216
0.152725
0.00216551
0.152362
0.00221703
0.151987
0.00226671
0.151599
0.00231453
0.151198
0.00236048
0.150785
0.00240458
0.150361
0.00244681
0.149924
0.00248718
0.149477
0.00252568
0.149018
0.00256231
0.148548
0.00259706
0.148066
0.00262992
0.147574
0.00266094
0.14707
0.00269011
0.0027177
0.152883
0.00126625
-0.152952
0.152796
0.00135916
0.15269
0.00145041
0.152566
0.00154009
0.152425
0.00162824
0.152266
0.00171486
0.15209
0.0017999
0.151897
0.00188328
0.151687
0.00196494
0.151461
0.00204482
0.151219
0.00212284
0.150962
0.00219893
0.150689
0.00227305
0.150401
0.00234514
0.150098
0.00241516
0.14978
0.00248309
0.149448
0.0025489
0.149102
0.00261258
0.148743
0.00267412
0.14837
0.00273354
0.147983
0.00279084
0.147584
0.00284604
0.147172
0.00289916
0.146748
0.00295024
0.146311
0.0029993
0.145861
0.00304639
0.1454
0.00309154
0.144926
0.00313485
0.14444
0.00317635
0.00321632
0.149174
0.00129832
-0.149206
0.149124
0.00140957
0.149055
0.00151902
0.148968
0.0016267
0.148864
0.00173262
0.148742
0.00183676
0.148603
0.00193908
0.148447
0.0020395
0.148274
0.00213797
0.148084
0.00223439
0.147878
0.00232872
0.147656
0.00242087
0.147419
0.0025108
0.147165
0.00259845
0.146897
0.00268378
0.146613
0.00276676
0.146314
0.00284736
0.146001
0.00292559
0.145674
0.00300143
0.145333
0.00307491
0.144978
0.00314604
0.144609
0.00321487
0.144226
0.00328143
0.143831
0.00334579
0.143422
0.00340802
0.143
0.00346818
0.142566
0.00352638
0.142118
0.00358271
0.141657
0.00363727
0.00369031
0.145355
0.00129878
-0.145356
0.145337
0.00142797
0.145301
0.00155525
0.145247
0.00168061
0.145175
0.00180404
0.145087
0.0019255
0.144981
0.00204494
0.144858
0.00216228
0.144718
0.00227745
0.144562
0.00239038
0.14439
0.00250099
0.144202
0.00260921
0.143998
0.00271499
0.143778
0.00281827
0.143543
0.00291901
0.143292
0.00301717
0.143027
0.00311272
0.142747
0.00320567
0.142452
0.00329603
0.142143
0.0033838
0.14182
0.00346903
0.141483
0.00355176
0.141133
0.00363208
0.140768
0.00371006
0.140391
0.0037858
0.139999
0.00385942
0.139595
0.00393104
0.139177
0.0040008
0.138745
0.00406882
0.00413535
0.141512
0.00127341
-0.141487
0.14152
0.00142001
0.141511
0.00156461
0.141484
0.00170718
0.141441
0.00184768
0.14138
0.00198605
0.141303
0.00212224
0.141209
0.00225615
0.141099
0.00238772
0.140972
0.00251687
0.14083
0.00264351
0.140671
0.00276758
0.140497
0.002889
0.140308
0.00300773
0.140103
0.00312371
0.139883
0.00323691
0.139649
0.0033473
0.1394
0.00345488
0.139136
0.00355966
0.138858
0.00366167
0.138566
0.00376096
0.13826
0.00385759
0.137941
0.00395166
0.137608
0.00404327
0.137261
0.00413257
0.136901
0.00421969
0.136527
0.00430481
0.136139
0.0043881
0.135739
0.0044697
0.00454986
0.13771
0.00122792
-0.137665
0.137739
0.00139134
0.137751
0.00155268
0.137746
0.00171188
0.137725
0.00186891
0.137687
0.00202368
0.137634
0.00217612
0.137564
0.00232614
0.137478
0.00247366
0.137376
0.00261859
0.137259
0.00276085
0.137126
0.00290036
0.136978
0.00303706
0.136815
0.00317087
0.136637
0.00330175
0.136444
0.00342966
0.136237
0.00355457
0.136015
0.00367648
0.135779
0.0037954
0.135529
0.00391137
0.135266
0.00402446
0.134989
0.00413473
0.134698
0.0042423
0.134394
0.00434732
0.134077
0.00444995
0.133746
0.00455037
0.133402
0.0046488
0.133045
0.00474545
0.132674
0.0048405
0.00493422
0.133997
0.00116759
-0.133937
0.134041
0.00134719
0.134069
0.00152466
0.134081
0.00169991
0.134077
0.00187287
0.134058
0.00204347
0.134022
0.00221161
0.133971
0.00237719
0.133905
0.00254013
0.133823
0.00270033
0.133726
0.00285771
0.133614
0.00301218
0.133488
0.00316366
0.133346
0.00331208
0.133191
0.0034574
0.133021
0.00359957
0.132837
0.00373855
0.132639
0.00387435
0.132427
0.00400699
0.132202
0.00413649
0.131964
0.00426292
0.131712
0.0043864
0.131447
0.00450706
0.13117
0.00462505
0.130879
0.00474059
0.130575
0.00485391
0.130259
0.00496526
0.129929
0.00507491
0.129587
0.00518309
0.00529009
0.130405
0.00109698
-0.130334
0.13046
0.00129218
0.1305
0.00148518
0.130524
0.00167587
0.130532
0.00186419
0.130526
0.00205004
0.130504
0.00223331
0.130467
0.00241389
0.130416
0.00259169
0.130349
0.00276662
0.130269
0.00293857
0.130173
0.00310745
0.130064
0.00327318
0.12994
0.00343569
0.129803
0.00359492
0.129651
0.00375082
0.129487
0.00390336
0.129308
0.00405253
0.129117
0.00419834
0.128913
0.00434084
0.128696
0.0044801
0.128466
0.00461624
0.128223
0.00474942
0.127969
0.00487983
0.127701
0.00500772
0.127422
0.00513336
0.12713
0.00525708
0.126826
0.0053792
0.126509
0.00550002
0.00561987
0.126955
0.00101996
-0.126878
0.127017
0.0012302
0.127064
0.00143817
0.127096
0.00164376
0.127113
0.00184688
0.127116
0.00204741
0.127104
0.00224526
0.127077
0.00244029
0.127037
0.00263241
0.126982
0.00282151
0.126913
0.00300748
0.12683
0.00319023
0.126734
0.00336967
0.126624
0.00354572
0.1265
0.00371831
0.126364
0.00388739
0.126214
0.00405292
0.126052
0.00421489
0.125877
0.00437331
0.125689
0.00452822
0.12549
0.00467971
0.125278
0.0048279
0.125055
0.00497296
0.124819
0.00511513
0.124572
0.0052547
0.124314
0.00539199
0.124043
0.0055274
0.123761
0.00566133
0.123467
0.00579419
0.00592634
0.123657
0.000939649
-0.123577
0.123723
0.00116443
0.123774
0.00138688
0.123811
0.00160685
0.123834
0.00182426
0.123842
0.00203897
0.123836
0.00225087
0.123817
0.00245984
0.123783
0.00266575
0.123736
0.0028685
0.123676
0.00306798
0.123602
0.00326407
0.123515
0.00345669
0.123415
0.00364574
0.123302
0.00383115
0.123177
0.00401286
0.123039
0.00419083
0.122889
0.00436502
0.122727
0.00453547
0.122553
0.00470219
0.122367
0.00486528
0.12217
0.00502486
0.121962
0.00518113
0.121743
0.00533435
0.121513
0.00548485
0.121272
0.00563303
0.12102
0.00577936
0.120757
0.00592435
0.120482
0.00606852
0.00621234
0.120516
0.000858509
-0.120435
0.120583
0.0010974
0.120636
0.00133387
0.120675
0.00156779
0.1207
0.00179903
0.120712
0.00202746
0.12071
0.00225296
0.120694
0.00247539
0.120665
0.00269462
0.120623
0.00291055
0.120568
0.00312304
0.1205
0.00333198
0.12042
0.00353728
0.120326
0.00373883
0.120221
0.00393655
0.120104
0.00413036
0.119974
0.00432023
0.119833
0.0045061
0.119681
0.00468799
0.119517
0.00486593
0.119342
0.00503999
0.119157
0.00521031
0.118961
0.00537709
0.118754
0.00554062
0.118538
0.00570127
0.118312
0.00585951
0.118075
0.00601592
0.117828
0.00617114
0.117571
0.00632582
0.00648058
0.11753
0.000778422
-0.11745