/*--------------------------------*- C++ -*----------------------------------*\
| =========                 |                                                 |
| \\      /  F ield         | OpenFOAM: The Open Source CFD Toolbox           |
|  \\    /   O peration     | Version:  v1912                                 |
|   \\  /    A nd           | Website:  www.openfoam.com                      |
|    \\/     M anipulation  |                                                 |
\*---------------------------------------------------------------------------*/
FoamFile
{
    version     2.0;
    format      ascii;
    class       volVectorField;
    location    "33";
    object      U;
}
// * * * * * * * * * * * * * * * * * * * * * * * * * * * * * * * * * * * * * //

dimensions      [0 1 -1 0 0 0 0];


internalField   nonuniform List<vector> 
9600
(
(0.456612 -9.36395 -1.5395e-19)
(0.159598 -8.63644 0)
(0.2414 -8.16374 -9.03579e-20)
(0.319633 -7.84392 0)
(0.386421 -7.60771 0)
(0.454301 -7.41182 -3.17684e-20)
(0.519314 -7.23233 -5.45301e-22)
(0.578338 -7.05708 2.65414e-20)
(0.630605 -6.88076 0)
(0.676149 -6.70194 -4.49908e-20)
(0.715356 -6.52126 0)
(0.74885 -6.34024 -1.82597e-21)
(0.777362 -6.16068 -2.60395e-21)
(0.801643 -5.98426 -3.14164e-20)
(0.822413 -5.81236 2.64852e-20)
(0.840321 -5.64594 -2.60209e-20)
(0.855915 -5.48547 2.31611e-20)
(0.869738 -5.33085 0)
(0.882569 -5.18134 -1.84157e-20)
(0.894131 -5.0354 2.0191e-20)
(0.824626 -9.35344 -3.0795e-19)
(0.502193 -8.66424 1.17641e-20)
(0.567193 -8.20765 1.86133e-19)
(0.633897 -7.89727 -1.58584e-19)
(0.69164 -7.66564 1.56394e-19)
(0.751444 -7.47023 0)
(0.808549 -7.28846 6.05839e-20)
(0.859497 -7.10924 -6.04382e-20)
(0.903449 -6.92807 -1.04806e-19)
(0.940492 -6.7441 1.32512e-19)
(0.971126 -6.55835 -8.60309e-20)
(0.996095 -6.37262 -3.51048e-20)
(1.01624 -6.18883 7.08681e-20)
(1.03241 -6.00874 0)
(1.04537 -5.83376 0)
(1.05582 -5.66482 9.92632e-20)
(1.06432 -5.50238 -1.6829e-19)
(1.07141 -5.34628 0)
(1.07797 -5.19564 0)
(1.08345 -5.04885 -7.77538e-20)
(1.19297 -9.32939 6.36253e-19)
(0.847036 -8.67917 0)
(0.896511 -8.23888 -3.76543e-19)
(0.952421 -7.93805 -3.41221e-19)
(1.00142 -7.71097 0)
(1.05312 -7.51602 5.45052e-19)
(1.10209 -7.33198 -5.14521e-19)
(1.14462 -7.14889 1.00822e-19)
(1.17985 -6.96307 -2.24463e-19)
(1.20798 -6.77423 -3.73162e-19)
(1.22965 -6.58376 5.09299e-19)
(1.24574 -6.3937 -3.14846e-19)
(1.25721 -6.2061 -1.4107e-19)
(1.265 -6.02278 0)
(1.26995 -5.84514 5.51136e-21)
(1.27278 -5.6741 1.0464e-19)
(1.27405 -5.5101 4.52161e-20)
(1.27433 -5.35291 0)
(1.27456 -5.20153 8.19564e-20)
(1.27387 -5.05429 8.39994e-20)
(1.56054 -9.29143 -8.60707e-19)
(1.19354 -8.68097 -4.03193e-19)
(1.2288 -8.25722 3.91107e-19)
(1.27464 -7.96595 6.71842e-19)
(1.31518 -7.74335 -3.26058e-19)
(1.35875 -7.54881 5.76516e-21)
(1.39934 -7.36254 2.53063e-19)
(1.43309 -7.17574 2.29168e-19)
(1.4592 -6.9855 4.19624e-19)
(1.47802 -6.79211 0)
(1.49035 -6.59731 1.61561e-19)
(1.49724 -6.40335 -1.71491e-19)
(1.49976 -6.21239 1.03344e-20)
(1.49894 -6.02628 2.70214e-19)
(1.49569 -5.84642 2.31572e-19)
(1.49076 -5.67372 -3.26877e-19)
(1.48471 -5.50856 1.07648e-19)
(1.47813 -5.35067 -1.75215e-19)
(1.47202 -5.19895 1.74387e-19)
(1.46507 -5.05169 -8.40424e-20)
(1.92704 -9.2395 4.34058e-19)
(1.5414 -8.66947 0)
(1.56365 -8.26241 3.83999e-19)
(1.60005 -7.98063 0)
(1.63237 -7.76242 0)
(1.66772 -7.56826 -2.99589e-19)
(1.69967 -7.37983 -5.35881e-19)
(1.72428 -7.18948 -4.54211e-19)
(1.74089 -6.99511 1.8435e-20)
(1.75001 -6.79753 -1.96215e-19)
(1.75266 -6.59882 0)
(1.75003 -6.40142 -1.61964e-19)
(1.74334 -6.20757 -2.91719e-19)
(1.73372 -6.01914 2.56474e-19)
(1.72212 -5.83752 -7.28825e-19)
(1.70932 -5.66359 1.17949e-19)
(1.69588 -5.4977 9.34436e-20)
(1.68242 -5.33952 -1.927e-19)
(1.66997 -5.18785 -8.41788e-20)
(1.65674 -5.04101 2.51005e-19)
(2.29191 -9.17351 4.18749e-19)
(1.89014 -8.64444 4.15133e-19)
(1.90054 -8.25417 0)
(1.9281 -7.98177 0)
(1.95238 -7.76785 -6.22769e-19)
(1.97942 -7.57405 3.40464e-19)
(2.00244 -7.38355 8.18947e-19)
(2.01756 -7.18988 0)
(2.02427 -6.99169 2.16323e-19)
(2.02333 -6.79032 1.96216e-19)
(2.01596 -6.58817 -3.46557e-19)
(2.00355 -6.38781 5.02552e-19)
(1.98744 -6.19158 1.47437e-19)
(1.96884 -6.00132 0)
(1.94877 -5.81841 1.22694e-19)
(1.92801 -5.64369 5.50644e-19)
(1.90715 -5.47749 -3.28116e-19)
(1.8868 -5.31943 3.68579e-19)
(1.86803 -5.16819 -7.00836e-19)
(1.84852 -5.02222 8.10218e-19)
(2.65462 -9.09343 4.25852e-19)
(2.23925 -8.60569 -2.25472e-18)
(2.23894 -8.23221 0)
(2.25819 -7.96908 0)
(2.27459 -7.75934 0)
(2.29318 -7.56589 -6.04014e-19)
(2.30699 -7.37346 0)
(2.31225 -7.17672 -9.67746e-19)
(2.3087 -6.97508 8.92545e-19)
(2.29736 -6.77036 -8.2884e-19)
(2.27967 -6.56525 0)
(2.25723 -6.36246 0)
(2.2315 -6.16435 0)
(2.20378 -5.97277 -2.8024e-19)
(2.17514 -5.78906 0)
(2.14638 -5.61401 0)
(2.11806 -5.44792 -4.1112e-19)
(2.09084 -5.29038 4.03938e-19)
(2.06583 -5.13996 0)
(2.04007 -4.99532 0)
(3.01464 -8.99928 -1.38544e-18)
(2.58817 -8.55306 8.9759e-19)
(2.57828 -8.19632 0)
(2.58973 -7.94229 0)
(2.59835 -7.73662 0)
(2.60835 -7.54355 5.74471e-19)
(2.61265 -7.34935 -5.76184e-19)
(2.6077 -7.14982 -8.83955e-21)
(2.59352 -6.94514 -8.93581e-19)
(2.57145 -6.73755 8.36619e-19)
(2.54318 -6.52999 -3.77336e-19)
(2.51049 -6.32531 6.55992e-19)
(2.47498 -6.12587 -4.63196e-20)
(2.43803 -5.93349 -5.93344e-19)
(2.40074 -5.74946 -4.99944e-19)
(2.36394 -5.57453 4.9118e-19)
(2.32816 -5.40899 0)
(2.29412 -5.25237 0)
(2.26294 -5.10317 3.55249e-19)
(2.23098 -4.96031 -3.90999e-19)
(3.3714 -8.89107 9.25972e-19)
(2.93633 -8.4864 8.81671e-19)
(2.91794 -8.14626 -1.67099e-18)
(2.92206 -7.90115 7.89239e-19)
(2.923 -7.69946 0)
(2.92422 -7.50681 6.14723e-19)
(2.91871 -7.31103 -5.39496e-19)
(2.9032 -7.10906 1.52454e-18)
(2.87807 -6.90176 -2.3648e-20)
(2.84496 -6.69181 0)
(2.80587 -6.48236 7.6132e-19)
(2.76275 -6.27635 0)
(2.71733 -6.07613 0)
(2.67106 -5.88349 -2.71374e-19)
(2.62508 -5.69963 5.47375e-19)
(2.58021 -5.52529 0)
(2.537 -5.36072 4.29176e-19)
(2.49619 -5.20542 1.78607e-19)
(2.45892 -5.05782 -3.87604e-19)
(2.42087 -4.91722 3.7634e-19)
(3.72435 -8.76888 -9.5362e-19)
(3.28316 -8.4056 8.95998e-19)
(3.25731 -8.08187 -2.55156e-18)
(3.25453 -7.84547 8.02285e-19)
(3.24783 -7.64765 0)
(3.2401 -7.45549 -1.2406e-18)
(3.22448 -7.25837 5.95953e-19)
(3.19806 -7.05432 0)
(3.16166 -6.84488 -4.72939e-19)
(3.11726 -6.63311 -8.20109e-19)
(3.06713 -6.42235 -7.14447e-19)
(3.01341 -6.21558 5.33469e-20)
(2.95797 -6.01516 6.6818e-19)
(2.90232 -5.82279 2.71151e-19)
(2.84763 -5.63962 -3.7851e-20)
(2.79471 -5.46633 -5.10575e-19)
(2.7441 -5.30314 -2.28323e-19)
(2.69658 -5.14956 -2.05819e-19)
(2.65334 -5.00396 5.4895e-19)
(2.60931 -4.86607 -8.18122e-19)
(4.07293 -8.63278 9.53622e-19)
(3.62805 -8.31061 -4.66075e-20)
(3.59576 -8.003 8.20068e-19)
(3.58646 -7.77508 0)
(3.57215 -7.58104 -6.78712e-19)
(3.55527 -7.38947 1.30411e-18)
(3.52922 -7.19127 -1.11441e-18)
(3.49159 -6.98556 1.09665e-18)
(3.44362 -6.77448 -4.44173e-19)
(3.38768 -6.56144 9.01758e-19)
(3.32633 -6.34996 3.90425e-19)
(3.2619 -6.14304 0)
(3.19637 -5.94299 0)
(3.1313 -5.75144 -2.81154e-19)
(3.06788 -5.56946 3.82655e-20)
(3.00692 -5.39768 1.00539e-18)
(2.94895 -5.23631 -2.48737e-19)
(2.8948 -5.08483 8.21302e-19)
(2.8457 -4.9416 1.43657e-19)
(2.79584 -4.80692 -8.35585e-19)
(4.41658 -8.48289 -2.93404e-18)
(3.9704 -8.20139 -9.84595e-19)
(3.93264 -7.90954 -2.62517e-18)
(3.91717 -7.68984 -1.59669e-18)
(3.89524 -7.49952 -7.57276e-19)
(3.86899 -7.30865 -7.40119e-19)
(3.83224 -7.10969 -2.41529e-18)
(3.78308 -6.90274 -4.89708e-20)
(3.72327 -6.69055 -1.94009e-18)
(3.65559 -6.47684 3.02013e-20)
(3.58286 -6.26524 -8.05246e-19)
(3.50762 -6.05877 -7.33668e-19)
(3.43195 -5.85968 6.69648e-19)
(3.35745 -5.6695 -6.12328e-19)
(3.28532 -5.48922 -5.60924e-19)
(3.21635 -5.3194 -5.14741e-19)
(3.15106 -5.16027 -1.38191e-18)
(3.09035 -5.01128 4.91704e-19)
(3.0355 -4.8708 1.19294e-18)
(2.97998 -4.73978 -1.26971e-18)
(4.75476 -8.31935 3.94637e-18)
(4.30961 -8.07793 4.84682e-18)
(4.26729 -7.80143 8.32405e-19)
(4.24595 -7.58967 3.9878e-18)
(4.21638 -7.403 -7.8149e-19)
(4.18055 -7.21299 3.90408e-18)
(4.13279 -7.01359 1.14178e-18)
(4.07184 -6.80588 3.2051e-18)
(3.99995 -6.59314 -9.79574e-19)
(3.92034 -6.37936 2.71182e-18)
(3.83611 -6.16826 1.62195e-18)
(3.74999 -5.96285 1.47794e-18)
(3.66415 -5.7653 -2.00063e-18)
(3.58023 -5.57704 1.87396e-18)
(3.49941 -5.39897 1.1305e-18)
(3.42247 -5.23158 1.03765e-18)
(3.34992 -5.0751 9.54038e-19)
(3.28271 -4.92897 7.33493e-21)
(3.22223 -4.7916 8.09698e-19)
(3.16126 -4.66471 8.42673e-19)
(5.08693 -8.14231 -2.93038e-18)
(4.6451 -7.94027 1.0798e-18)
(4.59907 -7.67864 2.67052e-18)
(4.57212 -7.47453 -3.25313e-18)
(4.53483 -7.29144 7.51703e-19)
(4.4892 -7.10248 -2.61185e-18)
(4.43017 -6.903 1.28001e-18)
(4.35716 -6.69502 -2.14448e-18)
(4.27299 -6.48231 4.89327e-20)
(4.1813 -6.26907 1.1885e-20)
(4.08549 -6.05911 -1.64432e-18)
(3.98846 -5.85536 -7.44268e-19)
(3.89245 -5.65993 1.36835e-18)
(3.79912 -5.47414 8.7189e-21)
(3.70964 -5.29876 -3.70863e-20)
(3.62476 -5.13426 -1.08308e-18)
(3.54497 -4.98083 -4.80887e-19)
(3.47132 -4.83795 -2.70551e-20)
(3.40531 -4.70405 -8.43923e-19)
(3.33912 -4.58183 -4.25565e-19)
(5.4126 -7.95197 0)
(4.97627 -7.78846 -1.99504e-18)
(4.92731 -7.54114 2.36068e-20)
(4.89496 -7.34438 3.24833e-18)
(4.84987 -7.16486 1.35921e-18)
(4.79422 -6.97715 -1.41495e-18)
(4.72367 -6.778 -1.21866e-18)
(4.63837 -6.57026 0)
(4.54175 -6.35817 -9.69691e-19)
(4.43787 -6.1461 9.25386e-19)
(4.33043 -5.93788 -3.89766e-20)
(4.22246 -5.7364 0)
(4.11629 -5.54365 -6.88858e-19)
(4.01358 -5.36084 5.96541e-19)
(3.91547 -5.18865 4.9824e-19)
(3.82266 -5.02747 -6.01678e-19)
(3.73563 -4.87748 -5.21876e-19)
(3.65554 -4.73819 9.06087e-19)
(3.584 -4.60815 -8.36134e-19)
(3.51271 -4.4912 4.40116e-19)
(5.73131 -7.7485 3.02727e-18)
(5.30255 -7.62258 -2.05467e-18)
(5.25136 -7.38898 -1.75305e-18)
(5.21375 -7.19927 8.16046e-19)
(5.16078 -7.02331 -1.58322e-18)
(5.09488 -6.83709 0)
(5.01257 -6.63868 0)
(4.91479 -6.43173 0)
(4.80558 -6.22085 -4.43713e-20)
(4.68945 -6.01057 -1.85713e-18)
(4.57036 -5.80471 8.77037e-19)
(4.45149 -5.60608 7.41559e-19)
(4.33521 -5.41656 6.27363e-19)
(4.22316 -5.23724 -2.57465e-18)
(4.11644 -5.06868 1.22053e-18)
(4.0157 -4.91121 0)
(3.92139 -4.76502 -3.03295e-20)
(3.83474 -4.62964 -1.40541e-18)
(3.7575 -4.50381 -5.67664e-21)
(3.68107 -4.39246 -4.406e-19)
(6.04268 -7.53217 -2.05918e-18)
(5.6234 -7.44276 -1.08323e-18)
(5.57052 -7.22221 8.15796e-19)
(5.5278 -7.03925 -1.43818e-19)
(5.46681 -6.86686 -4.61473e-18)
(5.39046 -6.68241 4.17576e-18)
(5.29619 -6.48519 -4.8768e-20)
(5.18576 -6.27959 1.14337e-18)
(5.06388 -6.07054 1.02573e-18)
(4.93547 -5.86267 9.41707e-19)
(4.80475 -5.65976 8.56846e-19)
(4.67504 -5.46454 1.53108e-18)
(4.54872 -5.27876 -7.3691e-19)
(4.42741 -5.10339 1.90977e-18)
(4.31215 -4.93891 -1.23461e-18)
(4.20351 -4.78556 -5.10605e-19)
(4.1019 -4.64355 2.05095e-18)
(4.00859 -4.51241 1.37007e-18)
(3.92552 -4.39093 -2.78624e-20)
(3.84417 -4.28496 0)
(6.3467 -7.30348 -1.04695e-18)
(5.93841 -7.24918 2.06998e-18)
(5.88415 -7.0409 1.81175e-18)
(5.83634 -6.86438 -1.45783e-19)
(5.76723 -6.69562 -1.56569e-18)
(5.68023 -6.51325 7.05559e-20)
(5.57381 -6.31771 1.31036e-20)
(5.45064 -6.11404 1.16768e-20)
(5.31605 -5.90744 0)
(5.17538 -5.70258 9.20987e-19)
(5.03311 -5.50319 -1.75292e-18)
(4.89263 -5.31189 -7.49969e-19)
(4.75635 -5.13031 7.44522e-19)
(4.62584 -4.95933 -6.53162e-19)
(4.50205 -4.79932 6.04875e-19)
(4.3855 -4.65052 -5.50594e-19)
(4.27658 -4.51313 4.88313e-21)
(4.17669 -4.38653 -4.67678e-19)
(4.08806 -4.26945 -4.31993e-19)
(4.00255 -4.16952 -4.32277e-19)
(6.6437 -7.0629 0)
(6.24733 -7.04177 -1.00913e-18)
(6.19159 -6.84496 9.97551e-19)
(6.13864 -6.67474 1.73996e-18)
(6.06128 -6.50976 -1.57428e-18)
(5.96347 -6.32986 1.3597e-18)
(5.84478 -6.13653 -2.61431e-18)
(5.70881 -5.93539 -2.32117e-18)
(5.56153 -5.73184 -1.01241e-18)
(5.40871 -5.53058 4.43179e-20)
(5.25501 -5.33524 -8.38143e-19)
(5.1039 -5.14831 3.48324e-20)
(4.95776 -4.97129 0)
(4.81804 -4.80495 -1.28118e-18)
(4.68558 -4.64963 6.53858e-19)
(4.56076 -4.50559 0)
(4.44405 -4.37295 -5.11928e-19)
(4.33703 -4.25084 -9.20291e-19)
(4.24194 -4.1389 9.04279e-19)
(4.15124 -4.04971 4.46354e-19)
(6.9333 -6.80965 0)
(6.54955 -6.81982 0)
(6.49213 -6.63434 -1.85011e-18)
(6.43394 -6.47061 -1.59039e-18)
(6.34827 -6.30968 3.2281e-18)
(6.23956 -6.13265 0)
(6.10852 -5.94207 0)
(5.95976 -5.74406 1.16612e-18)
(5.7999 -5.54418 0)
(5.6351 -5.34708 0)
(5.4702 -5.15628 0)
(5.30872 -4.9741 0)
(5.15295 -4.80188 0)
(5.0042 -4.64027 0)
(4.86303 -4.48953 0)
(4.72957 -4.34983 0)
(4.60406 -4.22102 0)
(4.4876 -4.10247 0)
(4.38031 -3.99721 0)
(4.27607 -3.92249 0)
(10.0415 0.087724 1.46937e-19)
(10.0211 -0.307589 2.85873e-19)
(9.98534 -0.70023 -2.93625e-19)
(9.93489 -1.09006 5.85433e-19)
(9.86945 -1.47673 -5.85433e-19)
(9.78889 -1.85975 -5.5316e-19)
(9.69331 -2.23857 -5.5162e-19)
(9.58292 -2.61265 1.73747e-18)
(9.45796 -2.98143 -1.15759e-18)
(9.31869 -3.34437 1.14791e-18)
(9.16538 -3.70091 -1.14791e-18)
(8.99835 -4.05053 1.13945e-18)
(8.81792 -4.39271 -2.25968e-18)
(8.62444 -4.72694 3.32757e-18)
(8.41828 -5.05274 0)
(8.19983 -5.36966 -3.26937e-18)
(7.96949 -5.67727 1.62555e-20)
(7.72777 -5.97522 3.295e-18)
(7.47478 -6.26336 0)
(7.2122 -6.54099 0)
(10.1152 -0.210765 0)
(10.0741 -0.606681 -1.50295e-20)
(10.0161 -0.998806 0)
(9.94213 -1.3868 5.60035e-19)
(9.85226 -1.77025 5.83256e-19)
(9.74673 -2.14853 -1.688e-18)
(9.62584 -2.52103 2.93908e-18)
(9.48994 -2.88711 -1.1602e-18)
(9.3394 -3.24619 -1.10586e-18)
(9.1746 -3.59767 -1.10135e-18)
(8.99597 -3.94098 4.45415e-20)
(8.80395 -4.27559 1.12856e-18)
(8.59899 -4.60096 -5.61029e-18)
(8.38157 -4.91661 -1.17675e-18)
(8.1522 -5.22206 2.24186e-18)
(7.91137 -5.51689 2.23899e-18)
(7.65956 -5.80071 1.13765e-18)
(7.39735 -6.07319 -2.19351e-18)
(7.12484 -6.33407 1.0387e-18)
(6.84297 -6.583 0)
(10.0646 -0.149363 1.32259e-19)
(10.0269 -0.54076 -2.70857e-19)
(9.97183 -0.928991 7.82126e-19)
(9.89979 -1.31336 -5.54156e-19)
(9.81117 -1.69323 -5.28328e-19)
(9.70632 -2.06786 5.51655e-19)
(9.58561 -2.43656 0)
(9.44945 -2.79862 0)
(9.29825 -3.15337 2.09453e-18)
(9.13246 -3.50018 3.12468e-18)
(8.95255 -3.83842 -9.8817e-19)
(8.75902 -4.16751 3.08983e-18)
(8.55239 -4.48688 -9.84019e-19)
(8.33319 -4.796 -3.00954e-18)
(8.10198 -5.09437 1.35463e-20)
(7.85932 -5.38152 1.93171e-18)
(7.60573 -5.65702 -8.7177e-19)
(7.34183 -5.92046 -1.90055e-18)
(7.06793 -6.17146 -1.02678e-18)
(6.78479 -6.40953 1.86792e-18)
(9.89694 -0.112731 0)
(9.86601 -0.494846 2.28297e-19)
(9.81782 -0.874621 2.27354e-19)
(9.75257 -1.25116 -9.34101e-19)
(9.67057 -1.62366 0)
(9.57216 -1.99136 0)
(9.45772 -2.35348 0)
(9.32761 -2.70928 0)
(9.18224 -3.05805 -9.88597e-19)
(9.02207 -3.3991 -9.8485e-19)
(8.84756 -3.73176 0)
(8.65922 -4.05539 1.86191e-18)
(8.45757 -4.36939 -4.60338e-18)
(8.24318 -4.67318 3.70163e-18)
(8.01661 -4.96621 -3.58777e-18)
(7.77843 -5.24795 -8.70579e-19)
(7.52923 -5.51792 1.56277e-19)
(7.26963 -5.77565 1.54691e-19)
(7.00013 -6.02067 -1.77323e-18)
(6.72147 -6.25251 -7.08613e-20)
(9.64299 -0.0992728 0)
(9.61944 -0.469132 -2.25151e-19)
(9.57906 -0.837305 0)
(9.52193 -1.20289 4.50427e-19)
(9.44829 -1.56505 4.29343e-19)
(9.35841 -1.923 3.92468e-19)
(9.25262 -2.27596 0)
(9.13125 -2.62316 0)
(8.99466 -2.96386 0)
(8.84328 -3.29735 0)
(8.67755 -3.62294 8.10795e-19)
(8.49795 -3.93995 8.73652e-19)
(8.30499 -4.24775 8.687e-19)
(8.0992 -4.54572 -8.81962e-19)
(7.88114 -4.83327 -1.51753e-18)
(7.65139 -5.10984 1.72307e-18)
(7.41053 -5.37489 3.34061e-18)
(7.1592 -5.62791 1.62486e-18)
(6.89795 -5.86839 0)
(6.62751 -6.09583 -1.53128e-18)
(9.33548 -0.0904622 4.62646e-20)
(9.31886 -0.446136 0)
(9.28605 -0.800692 -7.5818e-19)
(9.23705 -1.15328 1.85122e-23)
(9.17202 -1.50308 1.61413e-20)
(9.09118 -1.84929 -6.84017e-20)
(8.99481 -2.19116 0)
(8.88318 -2.52792 3.08741e-20)
(8.75663 -2.85883 -7.69709e-19)
(8.61552 -3.18317 1.49961e-18)
(8.46025 -3.50024 -1.56383e-18)
(8.29127 -3.80936 8.54472e-19)
(8.10904 -4.10988 -4.47806e-18)
(7.91407 -4.40116 2.95353e-18)
(7.70689 -4.68259 1.56582e-18)
(7.48805 -4.95359 0)
(7.25812 -5.21357 -2.88996e-18)
(7.01771 -5.462 -6.14573e-20)
(6.76741 -5.69835 -2.84609e-18)
(6.50786 -5.92208 2.95839e-18)
(9.00286 -0.0856215 4.16008e-20)
(8.99186 -0.426293 -8.71549e-20)
(8.9654 -0.766315 7.14613e-19)
(8.92345 -1.10489 -1.40441e-20)
(8.86611 -1.44122 7.14464e-19)
(8.79356 -1.77456 -1.07914e-18)
(8.70603 -2.10414 0)
(8.60374 -2.42924 7.27499e-19)
(8.48699 -2.74913 6.66024e-19)
(8.35609 -3.0631 -7.23428e-19)
(8.21141 -3.37047 1.32342e-18)
(8.05333 -3.67057 2.80597e-18)
(7.88229 -3.96273 -1.3048e-18)
(7.69875 -4.24634 -1.41454e-18)
(7.50321 -4.52077 1.35643e-18)
(7.29618 -4.78541 0)
(7.07822 -5.0397 6.48147e-20)
(6.8499 -5.28306 9.76228e-21)
(6.61178 -5.51493 2.6963e-18)
(6.36448 -5.73478 1.25341e-18)
(8.66623 -0.0843976 0)
(8.65928 -0.410116 6.24361e-21)
(8.63763 -0.735527 -1.45375e-19)
(8.60125 -1.05989 -6.4571e-19)
(8.5502 -1.38245 6.06902e-19)
(8.48462 -1.70248 0)
(8.40469 -2.01927 1.2353e-18)
(8.31062 -2.33212 -1.35721e-21)
(8.20264 -2.64033 -1.88672e-18)
(8.08105 -2.94322 0)
(7.94614 -3.24013 -1.30235e-18)
(7.79829 -3.53041 4.5913e-20)
(7.63788 -3.81343 -3.66063e-18)
(7.46535 -4.08856 6.44625e-21)
(7.28114 -4.3552 1.22694e-18)
(7.08575 -4.61275 0)
(6.8797 -4.86062 -1.20428e-18)
(6.66352 -5.09825 8.66042e-21)
(6.43777 -5.32507 1.19563e-18)
(6.203 -5.54051 -1.23345e-18)
(8.33941 -0.0854308 0)
(8.33506 -0.396776 1.4906e-19)
(8.31679 -0.708046 3.0928e-19)
(8.28453 -1.01854 -5.72412e-19)
(8.23832 -1.32757 -2.46726e-20)
(8.17829 -1.63443 -2.86074e-19)
(8.10458 -1.93846 -1.14519e-18)
(8.01737 -2.23899 5.69341e-19)
(7.91687 -2.53536 2.37669e-20)
(7.80332 -2.82693 5.65935e-19)
(7.67701 -3.11306 5.20926e-19)
(7.53827 -3.39314 2.25625e-18)
(7.38746 -3.66657 1.12858e-18)
(7.22496 -3.93273 2.22908e-18)
(7.05121 -4.19106 -1.11162e-18)
(6.86667 -4.44096 3.8594e-20)
(6.67184 -4.68187 -1.0985e-18)
(6.46722 -4.91321 0)
(6.25335 -5.13442 1.03831e-18)
(6.03073 -5.34491 0)
(8.03025 -0.0876012 6.48867e-20)
(8.02737 -0.385442 -1.90028e-19)
(8.01127 -0.683349 5.21232e-19)
(7.98189 -0.980669 -2.60031e-19)
(7.93927 -1.27675 1.89393e-20)
(7.88351 -1.57093 -2.59876e-19)
(7.81472 -1.86259 5.40302e-19)
(7.73307 -2.15111 -5.17064e-19)
(7.63874 -2.43585 5.17061e-19)
(7.53196 -2.71622 9.9164e-19)
(7.41299 -2.99161 -1.06867e-18)
(7.28212 -3.26145 -4.50019e-20)
(7.13969 -3.52516 -3.09322e-18)
(6.98607 -3.78218 5.35674e-21)
(6.82166 -4.03195 4.01827e-20)
(6.6469 -4.27392 2.00524e-18)
(6.46228 -4.50753 -9.9052e-19)
(6.26828 -4.73222 -9.43432e-19)
(6.06543 -4.94743 -3.73831e-20)
(5.85419 -5.15256 0)
(7.74236 -0.0901667 0)
(7.7401 -0.375493 2.41375e-19)
(7.72527 -0.66096 -8.29916e-19)
(7.69782 -0.945953 -2.20159e-19)
(7.65777 -1.22986 4.92447e-19)
(7.60521 -1.51206 0)
(7.54025 -1.79198 0)
(7.46303 -2.06901 4.70675e-19)
(7.37373 -2.34257 -4.70672e-19)
(7.27256 -2.61211 3.96394e-19)
(7.15974 -2.87706 -4.67638e-19)
(7.03556 -3.13687 9.27362e-19)
(6.90033 -3.391 -1.85013e-18)
(6.7544 -3.63894 1.84056e-18)
(6.59817 -3.88016 3.45914e-20)
(6.43206 -4.11414 -9.4669e-19)
(6.25653 -4.34035 -9.00796e-19)
(6.07208 -4.55825 1.83503e-18)
(5.87923 -4.76727 8.58963e-19)
(5.67844 -4.96679 0)
(7.47653 -0.0926553 1.87268e-21)
(7.47432 -0.366465 1.58454e-19)
(7.46012 -0.640442 3.32702e-19)
(7.43389 -0.914009 2.32889e-19)
(7.39565 -1.18658 2.16014e-19)
(7.34549 -1.4576 2.00926e-19)
(7.2835 -1.72649 0)
(7.20982 -1.99269 -8.30366e-19)
(7.1246 -2.25568 -4.28072e-19)
(7.02804 -2.5149 3.65109e-19)
(6.92036 -2.76985 0)
(6.80183 -3.02001 8.45481e-19)
(6.67275 -3.26489 -2.50051e-18)
(6.53343 -3.504 8.41151e-19)
(6.38428 -3.73686 0)
(6.22571 -3.96299 -7.99728e-19)
(6.05819 -4.18188 -1.61527e-18)
(5.88222 -4.39303 7.94806e-19)
(5.69834 -4.59587 -2.9142e-20)
(5.507 -4.78976 0)
(7.23189 -0.0947685 3.45496e-21)
(7.22937 -0.358012 -1.02547e-19)
(7.21539 -0.621416 1.97885e-19)
(7.1899 -0.884437 -1.30843e-20)
(7.15294 -1.14653 3.9542e-19)
(7.10458 -1.40714 -6.07309e-19)
(7.04491 -1.66576 0)
(6.97407 -1.92185 5.58764e-20)
(6.89219 -2.1749 0)
(6.79947 -2.42441 -8.10685e-19)
(6.69611 -2.6699 0)
(6.58236 -2.91089 -7.48088e-19)
(6.45851 -3.14693 2.31222e-18)
(6.32488 -3.37757 -1.53218e-18)
(6.18185 -3.60238 7.63884e-19)
(6.02982 -3.82093 -6.75757e-19)
(5.86931 -4.03274 7.80704e-19)
(5.70079 -4.23737 -7.75362e-19)
(5.52492 -4.4342 0)
(5.34211 -4.62261 0)
(7.00666 -0.0963847 4.69199e-20)
(7.00365 -0.34991 0)
(6.98963 -0.603578 0)
(6.96458 -0.85687 -3.75929e-19)
(6.92854 -1.10927 -3.50832e-19)
(6.88157 -1.36025 0)
(6.82376 -1.60933 0)
(6.75524 -1.85599 4.97069e-20)
(6.67615 -2.09977 6.94748e-19)
(6.58666 -2.34018 -3.35035e-19)
(6.48697 -2.57678 -3.56977e-19)
(6.37732 -2.80912 1.44206e-18)
(6.25798 -3.0368 -2.14131e-18)
(6.12926 -3.25941 1.38078e-18)
(5.99152 -3.47655 0)
(5.84519 -3.68788 2.77402e-18)
(5.69078 -3.89293 -2.01399e-18)
(5.52881 -4.09138 6.85173e-19)
(5.36006 -4.28252 1.3103e-18)
(5.18492 -4.46579 0)
(6.79877 -0.0974387 -4.03336e-20)
(6.79515 -0.341999 0)
(6.78095 -0.58668 -5.2049e-21)
(6.75615 -0.830983 -3.22779e-19)
(6.72079 -1.07441 1.00022e-18)
(6.67494 -1.31647 -1.66382e-19)
(6.61868 -1.55669 0)
(6.55212 -1.79459 1.3254e-18)
(6.47541 -2.02972 -6.82582e-19)
(6.38871 -2.26164 4.43474e-20)
(6.29221 -2.48991 6.3254e-19)
(6.18613 -2.71415 6.48373e-19)
(6.07073 -2.93395 -1.29296e-18)
(5.94629 -3.14898 -1.26463e-18)
(5.81319 -3.35887 -1.23521e-18)
(5.67182 -3.56339 -1.31451e-18)
(5.52275 -3.76207 1.30554e-18)
(5.36649 -3.95478 -6.23209e-19)
(5.20407 -4.14067 -6.64144e-19)
(5.03579 -4.31938 0)
(6.60598 -0.0979096 3.96267e-20)
(6.60172 -0.334172 -1.48781e-19)
(6.58728 -0.570526 -1.54025e-19)
(6.56264 -0.806493 4.61193e-19)
(6.52784 -1.0416 -1.63792e-19)
(6.48294 -1.27537 -1.53093e-19)
(6.42802 -1.50735 0)
(6.3632 -1.7371 -6.29283e-19)
(6.2886 -1.96418 0)
(6.20439 -2.18817 6.24409e-19)
(6.11073 -2.40867 -1.2032e-18)
(6.00783 -2.6253 5.95598e-19)
(5.89594 -2.83772 -1.18754e-18)
(5.77532 -3.04564 1.22549e-18)
(5.64632 -3.24871 6.67066e-19)
(5.50931 -3.44684 0)
(5.36492 -3.63954 -5.75696e-19)
(5.2136 -3.82706 5.75696e-19)
(5.05683 -4.00816 0)
(4.89456 -4.18321 0)
(6.42618 -0.0978843 0)
(6.42132 -0.326408 1.46176e-19)
(6.40664 -0.554992 4.70686e-21)
(6.38213 -0.783176 -1.50725e-19)
(6.34783 -1.01051 -1.32901e-19)
(6.3038 -1.23654 -1.411e-19)
(6.25013 -1.46083 5.45343e-19)
(6.18692 -1.68296 0)
(6.11428 -1.90251 0)
(6.03237 -2.11909 2.77144e-19)
(5.94135 -2.33231 2.9442e-19)
(5.84142 -2.54184 1.0655e-18)
(5.73277 -2.74734 -5.44422e-19)
(5.61566 -2.94856 5.4442e-19)
(5.4904 -3.14524 5.77973e-19)
(5.35732 -3.33737 3.38215e-20)
(5.21708 -3.5245 -1.06142e-18)
(5.07003 -3.70738 3.77195e-21)
(4.91832 -3.88414 5.24946e-19)
(4.76111 -4.05676 0)
(6.25747 -0.0973658 -3.267e-20)
(6.25207 -0.318675 3.26696e-20)
(6.2372 -0.540017 0)
(6.21285 -0.760945 1.2305e-19)
(6.17907 -0.981026 3.99716e-19)
(6.13591 -1.19983 -5.05179e-19)
(6.08346 -1.41694 -5.35818e-19)
(6.02182 -1.63196 0)
(5.9511 -1.84448 0)
(5.87143 -2.05412 0)
(5.78298 -2.26055 -9.89088e-19)
(5.68591 -2.46342 -6.38908e-20)
(5.5804 -2.66244 -5.01499e-19)
(5.46666 -2.8574 3.00726e-20)
(5.34497 -3.04805 -9.91749e-19)
(5.21554 -3.23456 1.51144e-18)
(5.07909 -3.41647 -1.43205e-18)
(4.93567 -3.59537 4.86128e-19)
(4.78854 -3.76829 9.31887e-19)
(4.63501 -3.94009 0)
(6.09814 -0.0960049 2.93497e-20)
(6.09231 -0.310772 0)
(6.07733 -0.525561 -1.20834e-19)
(6.05321 -0.739935 -2.48989e-19)
(6.01999 -0.953477 1.20682e-19)
(5.97771 -1.16578 9.63692e-19)
(5.92648 -1.37644 0)
(5.86637 -1.58508 -4.64122e-19)
(5.79749 -1.79131 -2.37382e-19)
(5.71998 -1.99479 -4.45941e-19)
(5.63397 -2.19517 -1.78401e-19)
(5.53961 -2.39215 -1.4079e-18)
(5.43705 -2.58546 -9.29284e-19)
(5.32644 -2.77488 9.55948e-19)
(5.20802 -2.96024 9.14991e-19)
(5.0818 -3.14176 -3.87419e-21)
(4.9486 -3.31911 2.98253e-20)
(4.80765 -3.49483 4.47904e-19)
(4.66404 -3.66517 -9.15672e-19)
(4.51107 -3.83995 0)
(5.94661 -0.0943323 -6.13759e-20)
(5.94048 -0.302837 3.02142e-20)
(5.92554 -0.511428 -1.20711e-19)
(5.9018 -0.719719 1.20655e-19)
(5.86926 -0.927315 -3.47015e-19)
(5.82799 -1.13383 -1.08056e-18)
(5.77803 -1.33888 0)
(5.71947 -1.54209 4.91085e-19)
(5.65239 -1.74312 -4.59165e-19)
(5.57691 -1.94161 9.72321e-19)
(5.49312 -2.13725 9.66535e-19)
(5.40113 -2.32973 1.42398e-18)
(5.30108 -2.51879 -9.23979e-19)
(5.19301 -2.70423 4.60234e-19)
(5.07716 -2.88586 -4.52598e-19)
(4.95316 -3.0639 4.52622e-19)
(4.8221 -3.23807 0)
(4.68132 -3.41158 4.09757e-19)
(4.53977 -3.58029 -4.00957e-19)
(4.38244 -3.76622 0)
(7.13814 7.26011 0)
(7.41805 6.97039 0)
(7.68505 6.67109 1.0846e-18)
(7.93986 6.36272 2.01526e-20)
(8.18191 6.04499 -1.1476e-18)
(8.41054 5.71796 0)
(8.62534 5.38204 1.18418e-18)
(8.82597 5.03776 -2.23398e-18)
(9.01212 4.68569 -1.12897e-18)
(9.18349 4.32645 -1.1395e-18)
(9.33982 3.96066 1.13949e-18)
(9.4809 3.58898 -1.15153e-18)
(9.60652 3.21209 5.74411e-19)
(9.71648 2.83071 5.4818e-19)
(9.81064 2.44548 5.50318e-19)
(9.88892 2.05708 -5.84094e-19)
(9.95131 1.66617 5.84095e-19)
(9.99788 1.27345 -2.93221e-19)
(10.0286 0.879319 -1.39266e-19)
(10.0439 0.485126 7.33614e-20)
(7.41258 7.06608 0)
(7.69257 6.77679 -9.93612e-19)
(7.95879 6.47596 -2.12435e-18)
(8.21151 6.16424 3.14141e-18)
(8.45052 5.84197 -2.17851e-18)
(8.67528 5.50959 2.1891e-18)
(8.88533 5.16771 1.19023e-18)
(9.08025 4.81699 -3.3772e-18)
(9.25966 4.45812 1.1048e-18)
(9.42318 4.09182 2.19613e-18)
(9.57053 3.71881 1.08194e-18)
(9.70144 3.33984 1.08879e-18)
(9.81574 2.95571 -1.14901e-18)
(9.91323 2.56715 1.69184e-18)
(9.99363 2.17494 -2.34743e-18)
(10.0568 1.77996 5.79399e-19)
(10.1029 1.383 -5.56719e-19)
(10.1318 0.984889 0)
(10.1435 0.586151 1.51424e-20)
(10.1384 0.187767 0)
(7.26834 6.94026 -1.74938e-18)
(7.55108 6.66837 9.82245e-19)
(7.82128 6.38365 1.79646e-18)
(8.0785 6.08675 8.13109e-19)
(8.32232 5.77825 2.03695e-18)
(8.55221 5.45876 1.99358e-20)
(8.76764 5.12896 -1.02097e-18)
(8.96812 4.78952 -3.0425e-18)
(9.15322 4.44118 3.00366e-18)
(9.32248 4.08465 -3.08334e-18)
(9.47553 3.72067 -1.02721e-18)
(9.61206 3.35001 -2.05511e-18)
(9.73176 2.97349 0)
(9.8344 2.59187 0)
(9.91986 2.20605 0)
(9.98798 1.81693 -5.23819e-19)
(10.0386 1.42535 5.48655e-19)
(10.0716 1.03217 5.25507e-19)
(10.087 0.638105 6.26211e-21)
(10.0848 0.244113 1.31984e-19)
(7.04053 6.68791 1.81694e-18)
(7.31995 6.43466 -1.64979e-18)
(7.58804 6.16831 -1.69345e-19)
(7.84407 5.8894 -1.703e-19)
(8.08748 5.59851 4.28852e-18)
(8.31772 5.29623 -7.11694e-20)
(8.53424 4.9832 3.73378e-21)
(8.73651 4.66006 -2.71192e-18)
(8.92403 4.32751 1.78925e-18)
(9.09634 3.98623 0)
(9.25293 3.63698 9.5971e-19)
(9.39347 3.28062 9.6634e-19)
(9.51768 2.9179 0)
(9.62525 2.54968 0)
(9.71595 2.17676 0)
(9.7896 1.79996 0)
(9.84598 1.4201 -2.16698e-20)
(9.88501 1.03804 4.73109e-19)
(9.90653 0.654601 -2.27176e-19)
(9.91057 0.270724 0)
(6.77766 6.37325 1.53857e-18)
(7.0492 6.13783 0)
(7.31053 5.8895 -4.52949e-18)
(7.56083 5.62868 -1.54386e-18)
(7.79946 5.35588 -1.62246e-18)
(8.02586 5.07166 -1.71994e-18)
(8.23945 4.77661 8.12587e-19)
(8.43969 4.47131 -8.53916e-19)
(8.62604 4.15641 2.37091e-18)
(8.79805 3.83259 -7.76138e-19)
(8.9553 3.50061 0)
(9.0973 3.16121 0)
(9.22366 2.81508 0)
(9.33411 2.46301 0)
(9.42838 2.10581 -1.22564e-18)
(9.50622 1.74429 4.21455e-19)
(9.56741 1.37924 -4.45224e-19)
(9.61179 1.0115 0)
(9.63924 0.64191 2.24047e-19)
(9.64968 0.271362 0)
(6.50262 6.04624 1.31592e-18)
(6.76394 5.82695 -4.7946e-20)
(7.01596 5.59515 2.76798e-18)
(7.25791 5.35119 1.38281e-18)
(7.48911 5.09553 0)
(7.709 4.82867 -1.46846e-18)
(7.917 4.55115 6.83665e-20)
(8.11257 4.26351 -1.49071e-18)
(8.29519 3.96636 2.06202e-18)
(8.46438 3.66033 3.26892e-20)
(8.61971 3.34606 2.80711e-20)
(8.76074 3.02418 -7.43799e-19)
(8.88705 2.69541 1.4587e-18)
(8.99833 2.36053 0)
(9.09431 2.02023 6.84377e-20)
(9.17468 1.67533 7.44719e-19)
(9.23919 1.32662 1.63076e-21)
(9.28765 0.974876 -1.53173e-20)
(9.31993 0.620887 0)
(9.3359 0.265492 -4.61684e-20)
(6.23666 5.7294 0)
(6.48664 5.52408 -4.88662e-20)
(6.72808 5.30678 1.74914e-20)
(6.96024 5.07779 -2.50178e-18)
(7.18245 4.83752 0)
(7.39416 4.58642 1.26521e-18)
(7.59483 4.32498 1.34771e-18)
(7.78392 4.05369 -3.92086e-18)
(7.96093 3.77311 -6.81381e-20)
(8.1254 3.48381 -1.25886e-18)
(8.27689 3.18638 6.93228e-19)
(8.41497 2.88142 -6.40276e-19)
(8.53925 2.56964 -7.03949e-19)
(8.64935 2.25169 0)
(8.74504 1.92831 3.71406e-19)
(8.82609 1.60009 -1.68731e-20)
(8.89214 1.26791 -3.44738e-19)
(8.94296 0.932482 -1.67355e-20)
(8.97844 0.594565 -8.67793e-20)
(8.99842 0.254927 1.73931e-19)
(5.99091 5.43427 0)
(6.22931 5.2408 1.08162e-18)
(6.45977 5.03592 1.61076e-20)
(6.68157 4.81988 -1.09769e-18)
(6.89409 4.59305 0)
(7.09681 4.35582 1.14195e-18)
(7.28918 4.10866 -1.09022e-18)
(7.47073 3.852 -1.20703e-18)
(7.64097 3.58637 2.29571e-18)
(7.79945 3.31228 1.23885e-18)
(7.94576 3.03029 0)
(8.07948 2.74098 6.04213e-19)
(8.20025 2.44499 -4.37081e-21)
(8.30774 2.14294 2.18245e-20)
(8.40154 1.83551 0)
(8.48152 1.52333 -5.94687e-19)
(8.5475 1.207 -3.11573e-19)
(8.59909 0.887336 4.55211e-19)
(8.63616 0.565071 3.06921e-19)
(8.65855 0.240908 -4.10283e-20)
(5.76904 5.16577 0)
(5.99619 4.98228 -9.33984e-19)
(6.21585 4.78796 0)
(6.42735 4.58303 -1.00772e-18)
(6.63011 4.36781 1.98392e-18)
(6.82362 4.14266 -2.02324e-18)
(7.00739 3.90799 3.16613e-18)
(7.18095 3.66423 -3.15693e-18)
(7.34387 3.41185 -2.13292e-18)
(7.49571 3.15133 -1.57307e-18)
(7.63609 2.88321 5.39455e-19)
(7.76461 2.60804 -1.11842e-18)
(7.88093 2.32638 1.86113e-20)
(7.98473 2.03885 1.11174e-18)
(8.07571 1.74602 -2.79684e-19)
(8.15351 1.44863 1.14576e-18)
(8.21802 1.14715 -5.63509e-19)
(8.26909 0.842292 2.59595e-19)
(8.30644 0.534794 -1.48074e-19)
(8.32988 0.225318 0)
(5.5708 4.92429 0)
(5.78733 4.74927 1.8068e-18)
(5.99673 4.56397 8.76324e-19)
(6.19836 4.36859 -9.02112e-19)
(6.39167 4.16341 -1.84797e-18)
(6.57618 3.94876 2.81201e-18)
(6.75144 3.72501 1.12425e-20)
(6.91703 3.49256 -9.16499e-19)
(7.07253 3.25186 1.96779e-18)
(7.21754 3.00337 1.01633e-18)
(7.35169 2.74759 -9.49402e-19)
(7.47463 2.48504 4.98551e-19)
(7.58602 2.21627 2.2484e-20)
(7.68556 1.94182 -5.24628e-19)
(7.77297 1.66229 -2.54208e-19)
(7.84795 1.37824 5.09721e-19)
(7.91029 1.09038 -2.55513e-19)
(7.95986 0.79919 -5.1562e-19)
(7.99651 0.505364 5.97423e-20)