/*--------------------------------*- C++ -*----------------------------------*\
  =========                 |
  \\      /  F ield         | OpenFOAM: The Open Source CFD Toolbox
   \\    /   O peration     | Website:  https://openfoam.org
    \\  /    A nd           | Version:  6.0
     \\/     M anipulation  |
\*---------------------------------------------------------------------------*/
FoamFile
{
    version     2.0;
    format      ascii;
    class       volVectorField;
    location    "17.75";
    object      U;
}
// * * * * * * * * * * * * * * * * * * * * * * * * * * * * * * * * * * * * * //

dimensions      [0 1 -1 0 0 0 0];

internalField   nonuniform List<vector> 
2400
(
(3.83335 -15.7867 -1.7398e-18)
(0.748765 -16.2717 6.34026e-19)
(1.19882 -16.4454 -5.70902e-19)
(1.60368 -16.1496 -3.2685e-19)
(1.74931 -15.7169 -4.9239e-19)
(1.85049 -15.2729 6.57757e-19)
(1.94911 -14.874 2.35659e-19)
(2.044 -14.5377 1.828e-19)
(2.1573 -14.2635 -4.09627e-19)
(2.24908 -14.0617 -2.39801e-20)
(5.12283 -15.6299 1.96865e-18)
(2.06994 -16.4798 -1.13609e-19)
(2.50447 -16.6158 3.52215e-19)
(2.85627 -16.2594 3.11559e-18)
(2.94892 -15.7934 -2.1344e-18)
(3.00307 -15.3329 -1.12685e-19)
(3.06056 -14.9277 -2.20625e-20)
(3.12447 -14.5899 -2.3408e-19)
(3.21717 -14.3165 -3.42692e-19)
(3.26799 -14.1285 -5.26896e-20)
(6.40556 -15.3675 3.46679e-18)
(3.41427 -16.5677 2.70875e-18)
(3.82726 -16.664 -6.91498e-18)
(4.11568 -16.2523 2.03462e-18)
(4.14825 -15.7594 2.89673e-18)
(4.15042 -15.2876 -1.61156e-18)
(4.16334 -14.8797 -1.21771e-18)
(4.1941 -14.5404 9.87205e-19)
(4.26047 -14.2647 -2.07207e-18)
(4.25925 -14.0872 1.81448e-18)
(7.66868 -14.9927 -1.1992e-17)
(4.7696 -16.5266 4.39612e-18)
(5.15431 -16.5844 -4.01915e-18)
(5.37111 -16.1256 1.78854e-18)
(5.33882 -15.614 -1.85727e-18)
(5.28629 -15.1376 2.63314e-18)
(5.25396 -14.7317 1.11839e-18)
(5.25341 -14.3942 -3.76332e-18)
(5.29493 -14.1232 -3.19036e-18)
(5.23922 -13.9761 3.0732e-18)
(8.90124 -14.5032 6.82364e-19)
(6.12123 -16.3535 -1.68675e-18)
(6.47203 -16.3755 -6.34295e-19)
(6.61069 -15.8792 -8.14206e-19)
(6.51069 -15.3585 -4.50126e-18)
(6.40238 -14.8854 6.99936e-19)
(6.3238 -14.4857 -4.031e-19)
(6.28848 -14.1512 3.89427e-18)
(6.29484 -13.8874 -2.65164e-18)
(6.17293 -13.778 -1.43154e-18)
(10.0903 -13.8965 1.04584e-17)
(7.45479 -16.044 -7.52655e-19)
(7.76529 -16.0338 1.11185e-17)
(7.82002 -15.5104 -1.39165e-18)
(7.65087 -14.9916 5.49663e-18)
(7.48916 -14.5316 -6.01553e-19)
(7.36887 -14.146 -2.10654e-20)
(7.30041 -13.82 3.20961e-18)
(7.26466 -13.5715 -1.72582e-18)
(7.06934 -13.5143 2.31523e-18)
(11.2253 -13.1748 -4.06268e-18)
(8.7575 -15.5989 9.62305e-19)
(9.02087 -15.5594 -3.03601e-18)
(8.98463 -15.0177 -2.80111e-18)
(8.74194 -14.5097 -1.31132e-19)
(8.52666 -14.0714 8.33226e-18)
(8.37034 -13.7079 -2.93207e-18)
(8.2764 -13.3978 1.17517e-18)
(8.20021 -13.172 -4.25924e-18)
(7.93084 -13.166 -1.85569e-18)
(12.2973 -12.3421 1.68612e-17)
(10.02 -15.0199 -1.69367e-18)
(10.2299 -14.9534 -1.45932e-17)
(10.0956 -14.3999 7.85592e-19)
(9.7709 -13.9074 2.72463e-18)
(9.49267 -13.4939 -3.91756e-18)
(9.29539 -13.156 -4.65201e-18)
(9.18253 -12.8714 6.92326e-18)
(9.08916 -12.6895 -6.26201e-19)
(8.78391 -12.7691 -4.88387e-18)
(13.2994 -11.4055 -1.36331e-17)
(11.2351 -14.3131 6.5228e-18)
(11.3884 -14.2213 8.90132e-18)
(11.1533 -13.6601 2.25072e-18)
(10.7407 -13.1829 -7.73976e-18)
(10.3842 -12.789 4.73441e-18)
(10.1171 -12.4716 2.67463e-18)
(9.94937 -12.219 5.28745e-18)
(9.823 -12.1172 -3.19584e-18)
(9.51516 -12.358 -4.04574e-18)
(14.2238 -10.3718 4.36155e-18)
(12.3955 -13.4856 -1.69171e-18)
(12.4926 -13.3703 -4.07222e-19)
(12.1611 -12.8046 2.17982e-18)
(11.6673 -12.3397 1.6195e-18)
(11.2342 -11.9567 -1.18233e-18)
(10.8761 -11.6516 -2.17368e-18)
(10.579 -11.4391 3.19429e-18)
(10.2842 -11.4513 -2.69778e-18)
(9.85167 -11.8722 2.13274e-18)
(18.353 3.14283 2.34215e-19)
(18.41 1.6627 7.21616e-19)
(18.3486 0.18816 -2.32065e-18)
(18.1763 -1.27136 2.12786e-18)
(17.8976 -2.70673 8.11428e-19)
(17.5181 -4.11063 1.10276e-17)
(17.0406 -5.47448 -4.29467e-18)
(16.471 -6.7915 -6.40643e-18)
(15.8091 -8.05245 7.36823e-18)
(15.0622 -9.25 -1.27663e-17)
(19.3529 -0.74127 6.43703e-19)
(19.1413 -2.23684 -2.75753e-19)
(18.8027 -3.70933 -1.91161e-18)
(18.3448 -5.14853 5.01621e-18)
(17.774 -6.54319 -1.78294e-18)
(17.0985 -7.88589 1.39555e-17)
(16.3248 -9.16545 -9.0213e-18)
(15.4617 -10.3761 1.36011e-17)
(14.5145 -11.5049 -1.00175e-17)
(13.4918 -12.5475 -5.42693e-18)
(18.8517 -0.720738 -1.19099e-18)
(18.7042 -2.16213 1.31951e-19)
(18.4327 -3.59212 -5.2765e-18)
(18.042 -5.00064 4.02207e-18)
(17.5366 -6.37627 -4.49158e-18)
(16.9235 -7.70979 -8.81643e-18)
(16.2086 -8.98989 -3.1343e-18)
(15.4009 -10.2078 -2.52935e-18)
(14.5066 -11.3512 8.97481e-18)
(13.5355 -12.4104 5.2031e-18)
(17.898 -0.531263 4.97255e-19)
(17.7865 -1.89429 -8.69546e-19)
(17.5593 -3.25358 -1.22215e-18)
(17.2188 -4.60117 -4.94915e-18)
(16.7695 -5.9253 3.13748e-18)
(16.2165 -7.21731 9.14448e-18)
(15.5664 -8.4656 3.77846e-18)
(14.8274 -9.66067 7.91755e-19)
(14.0066 -10.7906 2.24262e-18)
(13.1154 -11.8438 4.83116e-20)
(17.1231 -0.486953 -5.44424e-19)
(17.0071 -1.78548 -2.13547e-18)
(16.7839 -3.08102 2.23067e-19)
(16.4521 -4.3711 3.91298e-18)
(16.02 -5.64064 4.24386e-18)
(15.4891 -6.88602 -2.9479e-18)
(14.8693 -8.09287 -5.40904e-18)
(14.1664 -9.25436 -2.92058e-18)
(13.3906 -10.3575 3.27135e-18)
(12.5549 -11.3913 5.15048e-18)
(16.551 -0.442939 1.17317e-19)
(16.4204 -1.69232 1.7353e-18)
(16.193 -2.93397 -4.08582e-18)
(15.8553 -4.17874 5.06488e-18)
(15.4291 -5.39891 3.08555e-18)
(14.9022 -6.60697 5.94466e-18)
(14.2986 -7.77663 -1.27487e-18)
(13.6116 -8.91453 -3.81303e-18)
(12.8648 -9.99611 9.04396e-18)
(12.0687 -11.0147 -7.95766e-18)
(16.105 -0.391739 2.59193e-19)
(15.9562 -1.60406 -1.94141e-18)
(15.7294 -2.79655 -1.23326e-18)
(15.3775 -4.00827 -2.68186e-18)
(14.9615 -5.1792 -3.87103e-19)
(14.4241 -6.36062 -3.99261e-18)
(13.8369 -7.49215 -2.63587e-18)
(13.1438 -8.62541 -4.66467e-19)
(12.4226 -9.69692 -5.37704e-18)
(11.6529 -10.7133 7.70371e-18)
(15.7287 -0.329276 -2.18423e-19)
(15.5538 -1.51896 1.58199e-18)
(15.3413 -2.66663 -6.98135e-19)
(14.9618 -3.86146 1.53944e-18)
(14.5742 -4.97916 3.75308e-18)
(14.0031 -6.14704 6.35847e-18)
(13.4504 -7.22486 -1.71647e-18)
(12.7082 -8.37791 -6.40128e-18)
(12.0288 -9.44924 1.94911e-18)
(11.2459 -10.5189 -1.19112e-17)
(15.3973 -0.233797 3.08468e-19)
(15.1801 -1.41671 -3.60519e-19)
(15.0039 -2.5276 -3.51508e-18)
(14.5719 -3.73165 1.0637e-18)
(14.2466 -4.79858 -2.54624e-18)
(13.5977 -5.98502 -1.12088e-18)
(13.1233 -6.9851 -7.45042e-19)
(12.2366 -8.20452 2.86434e-18)
(11.6511 -9.24846 2.81847e-18)
(10.7034 -10.5671 2.31469e-18)
(15.1101 -0.175772 -6.63259e-19)
(14.8217 -1.35366 1.14623e-18)
(14.6999 -2.43096 5.57729e-19)
(14.1815 -3.666 1.56355e-18)
(13.9441 -4.7041 -1.61408e-19)
(13.1632 -5.95299 -1.17972e-19)
(12.792 -6.89647 -3.84452e-18)
(11.6437 -8.23402 5.24579e-18)
(11.1877 -9.18348 -3.43872e-18)
(9.85191 -10.9344 1.059e-18)
(11.0861 15.5572 -7.27579e-18)
(12.2982 14.6809 7.52913e-18)
(13.4234 13.6981 -3.72964e-19)
(14.4522 12.6169 -1.25142e-17)
(15.374 11.4456 8.95523e-18)
(16.1813 10.1933 -6.14685e-18)
(16.8666 8.87129 -1.38181e-18)
(17.428 7.49244 -1.27497e-18)
(17.8619 6.06948 2.06379e-18)
(18.1714 4.61604 1.44566e-19)
(14.2079 12.5501 8.70504e-18)
(15.2543 11.5357 1.7495e-18)
(16.2043 10.4269 -8.38656e-18)
(17.0474 9.23022 -8.48994e-18)
(17.7727 7.95382 6.74837e-18)
(18.3732 6.60611 -5.38072e-18)
(18.8413 5.19996 5.92696e-18)
(19.1755 3.74762 -1.65e-18)
(19.3713 2.26489 -4.93023e-18)
(19.4318 0.763154 -3.50587e-19)
(13.5717 11.674 -1.20548e-18)
(14.5841 10.7544 -9.8282e-19)
(15.5098 9.74558 4.43381e-18)
(16.3385 8.65055 4.2831e-18)
(17.0605 7.47435 9.19411e-18)
(17.6689 6.22404 2.89799e-18)
(18.1574 4.91124 -2.11943e-18)
(18.523 3.5477 -4.22509e-18)
(18.7614 2.14665 3.32468e-18)
(18.8718 0.719518 2.29046e-19)
(12.8046 10.9633 2.45683e-18)
(13.7638 10.1218 -5.14882e-18)
(14.6398 9.20008 -1.94524e-18)
(15.4232 8.1964 -8.25032e-18)
(16.1077 7.11313 -4.15211e-18)
(16.6877 5.95612 8.09848e-18)
(17.1597 4.73804 4.92298e-18)
(17.5195 3.46887 -4.1457e-18)
(17.7642 2.16114 1.80379e-19)
(17.8908 0.823548 -1.7115e-19)
(12.416 10.4099 -8.19817e-18)
(13.3266 9.61133 9.05492e-18)
(14.1499 8.74321 -2.29445e-18)
(14.8773 7.79527 4.48006e-18)
(15.5085 6.76891 -3.03091e-18)
(16.0399 5.67019 -4.63298e-18)
(16.4718 4.51528 2.29201e-18)
(16.7981 3.31078 -2.41618e-18)
(17.018 2.07075 -2.23261e-18)
(17.1258 0.799722 9.40788e-19)
(12.1777 10.0154 -1.14832e-18)
(13.0573 9.24939 1.77108e-18)
(13.8443 8.42231 -2.04632e-18)
(14.5259 7.51112 -8.95166e-18)
(15.1121 6.52239 4.72601e-18)
(15.5995 5.46375 7.31409e-19)
(15.9958 4.35613 -4.10228e-18)
(16.2887 3.19866 -1.4084e-18)
(16.4837 2.01069 1.21678e-18)
(16.5678 0.789022 -3.33835e-19)
(11.9865 9.71431 -4.66687e-18)
(12.836 8.98891 -7.32052e-20)
(13.6 8.19784 2.08531e-18)
(14.2481 7.30613 5.13178e-18)
(14.8038 6.34166 1.0426e-18)
(15.2559 5.31195 2.43193e-18)
(15.6272 4.24267 4.59605e-18)
(15.8904 3.12005 -1.96915e-18)
(16.0686 1.9756 1.63798e-18)
(16.1294 0.791775 -5.98617e-19)
(11.8465 9.46112 -1.47449e-18)
(12.6238 8.81741 1.80005e-18)
(13.3557 8.06246 1.80851e-18)
(13.9751 7.17429 -2.39759e-18)
(14.5171 6.22821 -1.27631e-18)
(14.9416 5.22016 -2.81904e-18)
(15.3017 4.18056 2.43931e-19)
(15.5377 3.07907 -6.26899e-19)
(15.7122 1.9696 -3.45907e-18)
(15.7483 0.811289 4.60807e-19)
(11.9337 9.11591 -5.1749e-19)
(12.5338 8.64388 -3.21248e-18)
(13.1659 7.93151 -1.07789e-18)
(13.7288 7.05154 5.35646e-19)
(14.2578 6.14489 -3.31705e-19)
(14.6464 5.16874 2.47099e-18)
(15.0016 4.1635 9.61521e-19)
(15.2046 3.07982 1.41031e-18)
(15.3904 2.00561 1.6276e-18)
(15.3948 0.865931 -6.5867e-19)
(12.3946 8.47495 -2.10479e-18)
(12.788 8.24051 3.55059e-18)
(13.1984 7.55639 -5.52616e-18)
(13.6366 6.7157 -7.69648e-20)
(14.1279 5.88963 4.24844e-18)
(14.4455 4.97142 2.04492e-19)
(14.7803 4.02983 1.75827e-18)
(14.9228 2.98588 -3.58246e-18)
(15.1235 1.97364 -2.7553e-20)
(15.0744 0.866275 3.06855e-19)
(1.52756 12.9259 1.63114e-19)
(1.50622 13.0893 -7.03386e-20)
(1.52208 13.2379 -3.60925e-20)
(1.50846 13.4039 4.68446e-19)
(1.45781 13.6127 -2.15905e-19)
(1.37987 13.9047 -7.25517e-19)
(1.29579 14.3947 7.81727e-19)
(1.39191 15.3313 2.44316e-19)
(1.29712 16.7271 3.31022e-19)
(-2.98764 17.9328 1.53014e-18)
(2.60298 12.7158 4.23314e-19)
(2.57719 12.9633 -1.28666e-18)
(2.58899 13.1706 1.27335e-18)
(2.57752 13.3787 2.51945e-19)
(2.53916 13.6216 -4.86669e-19)
(2.48421 13.9468 5.70886e-19)
(2.44048 14.4719 1.85547e-18)
(2.60987 15.424 -2.35187e-18)
(2.61446 16.8049 3.50006e-20)
(-1.5906 18.2121 -1.74601e-18)
(3.58606 12.6425 1.66662e-18)
(3.59942 12.8733 -2.31111e-18)
(3.63441 13.0765 -9.01313e-19)
(3.64646 13.2928 -6.98194e-20)
(3.63392 13.5536 -8.07172e-19)
(3.60938 13.9039 -3.38606e-19)
(3.6102 14.4583 5.82694e-19)
(3.85316 15.4178 1.6062e-18)
(3.95278 16.7738 1.17332e-18)
(-0.164547 18.3777 -3.07762e-18)
(4.72787 12.2587 1.54789e-18)
(4.71311 12.58 -1.85354e-18)
(4.7329 12.8435 -1.77197e-18)
(4.74693 13.1008 1.11253e-18)
(4.74982 13.3924 5.29032e-18)
(4.75254 13.7706 -1.99705e-18)
(4.79826 14.3508 1.53288e-18)
(5.11366 15.3105 -4.82205e-18)
(5.30337 16.6328 -5.2846e-18)
(1.28129 18.4299 5.9598e-18)
(5.71637 12.0631 1.13773e-18)
(5.74122 12.3452 -7.87742e-19)
(5.78846 12.5928 2.30254e-18)
(5.83308 12.8505 -1.99448e-18)
(5.86595 13.1538 1.40806e-18)
(5.902 13.5501 1.2241e-18)
(5.99534 14.1491 1.20345e-18)
(6.38203 15.1007 8.373e-19)
(6.65544 16.3813 3.08702e-18)
(2.73671 18.3676 2.67719e-18)
(6.86993 11.5013 -3.36871e-18)
(6.84711 11.8931 -9.66761e-19)
(6.87718 12.2043 3.97818e-18)
(6.92957 12.4987 -4.31628e-18)
(6.98304 12.8255 -1.97276e-18)
(7.05046 13.2399 -4.59962e-18)
(7.19235 13.8521 3.21744e-19)
(7.649 14.7873 -4.50564e-18)
(8.00064 16.0185 -5.09952e-19)
(4.19258 18.1902 -8.14895e-18)
(7.84279 11.1308 4.73132e-18)
(7.86077 11.4942 -8.29518e-18)
(7.9216 11.7941 4.5676e-18)
(8.00499 12.086 2.37105e-18)
(8.08677 12.4184 -4.84726e-19)
(8.18787 12.842 6.10997e-18)
(8.37943 13.4597 -4.06101e-18)
(8.90398 14.37 -9.12061e-18)
(9.32618 15.5447 -1.08365e-18)
(5.63749 17.8962 7.55355e-18)
(9.01453 10.3605 -2.18193e-20)
(8.95569 10.8814 3.8858e-18)
(8.98103 11.2601 -1.84646e-18)
(9.06519 11.5834 1.75169e-18)
(9.16763 11.928 1.85669e-18)
(9.30318 12.3571 -2.89072e-18)
(9.54599 12.9728 1.99139e-18)
(10.1365 13.8489 -4.0154e-18)
(10.6237 14.9599 1.16501e-17)
(7.06173 17.4866 -3.64821e-18)
(10.0633 9.77952 -2.11721e-18)
(9.99844 10.3255 -1.13187e-18)
(10.0043 10.7056 5.17464e-18)
(10.0932 11.0196 -7.19329e-18)
(10.2181 11.3604 6.94262e-18)
(10.3882 11.787 -3.43999e-18)
(10.6813 12.3925 -5.76157e-18)
(11.334 13.2248 9.69126e-19)
(11.8771 14.2654 -1.93676e-17)
(8.45242 16.9592 1.38265e-17)
(11.2955 8.98889 5.47216e-18)
(11.0664 9.65218 -5.1156e-18)
(10.9674 10.0866 5.18058e-18)
(11.0613 10.3953 -4.27792e-19)
(11.2213 10.7225 -5.19744e-18)
(11.4299 11.1369 -2.66723e-18)
(11.7724 11.7216 3.0734e-18)
(12.4842 12.4991 7.66948e-18)
(13.079 13.4615 9.05774e-18)
(9.7991 16.3178 -3.43804e-21)
(-6.12561 10.1179 -3.5131e-18)
(-6.38578 9.64193 2.78921e-18)
(-6.56041 9.37724 -1.16822e-18)
(-6.70398 9.29625 2.68236e-18)
(-6.87716 9.26908 2.13557e-18)
(-7.09239 9.26096 3.49793e-18)
(-7.40432 9.35199 4.72141e-18)
(-7.8594 9.88415 2.40308e-18)
(-8.85889 10.8885 3.64011e-18)
(-13.3535 9.80893 -2.19197e-18)
(-5.86459 10.6216 1.98558e-18)
(-6.05944 10.2662 2.21304e-18)
(-6.12312 10.1008 -3.7026e-18)
(-6.18207 10.0537 -1.87079e-18)
(-6.3098 10.0324 -3.20306e-18)
(-6.50614 10.0301 5.90807e-18)
(-6.80737 10.1404 -2.46267e-18)
(-7.22985 10.7097 -5.52826e-18)
(-8.16507 11.7825 -4.04411e-18)
(-12.7079 10.9515 5.56964e-18)
(-5.25623 11.0645 -7.01544e-19)
(-5.48283 10.8394 4.47764e-19)
(-5.5499 10.7429 -4.9003e-18)
(-5.59275 10.7225 3.24319e-18)
(-5.69862 10.7173 2.73301e-18)
(-5.87617 10.7359 -1.83539e-18)
(-6.15891 10.8785 4.98387e-20)
(-6.53862 11.492 9.47617e-18)
(-7.39784 12.6307 9.98112e-19)
(-11.9661 12.0445 -4.57152e-18)
(-4.50926 11.4599 -4.99766e-18)
(-4.74344 11.3207 3.08543e-18)
(-4.82929 11.2768 -8.9104e-19)
(-4.8888 11.2905 2.09451e-18)
(-5.00086 11.3171 -5.85825e-18)
(-5.17525 11.3718 1.62235e-19)
(-5.44392 11.5583 1.19548e-18)
(-5.7779 12.2217 -3.64939e-19)
(-6.55407 13.4229 -6.49602e-19)
(-11.1294 13.0783 5.41197e-18)
(-3.78665 11.8937 4.1269e-18)
(-3.9874 11.7972 1.38044e-19)
(-4.05752 11.7748 -2.36362e-18)
(-4.11642 11.8038 4.13718e-20)
(-4.2301 11.8542 3.95823e-19)
(-4.40234 11.9439 -3.92862e-18)
(-4.65772 12.177 9.26193e-19)
(-4.9437 12.8918 -9.55943e-19)
(-5.6324 14.1498 -1.53003e-19)
(-10.1995 14.0424 -6.97599e-18)
(-2.98654 12.1928 -1.36209e-19)
(-3.16434 12.1649 3.13665e-18)
(-3.22348 12.1859 -2.94221e-18)
(-3.28135 12.2435 2.90055e-19)
(-3.39404 12.3238 -5.55428e-19)
(-3.56188 12.4507 3.27792e-18)
(-3.80169 12.7314 5.75534e-19)
(-4.03621 13.4959 3.76858e-19)
(-4.6333 14.803 2.295e-18)
(-9.17991 14.9277 1.44828e-18)
(-2.18355 12.5153 -2.11053e-18)
(-2.32526 12.5261 2.48675e-18)
(-2.36456 12.5651 1.27238e-19)
(-2.41225 12.635 3.56321e-18)
(-2.51409 12.7355 -2.02813e-18)
(-2.66853 12.894 1.41758e-18)
(-2.88504 13.2192 -1.32059e-18)
(-3.06164 14.0289 2.88934e-18)
(-3.56268 15.375 2.8829e-18)
(-8.07655 15.7257 2.85713e-18)
(-1.26828 12.6661 -1.32097e-18)
(-1.39546 12.7471 1.66114e-18)
(-1.4334 12.8337 -7.91353e-19)
(-1.48282 12.9375 -6.02088e-19)
(-1.57947 13.0699 1.2769e-18)
(-1.72108 13.2647 -2.28016e-18)
(-1.91112 13.6345 -1.56388e-18)
(-2.02508 14.4847 5.26329e-18)
(-2.42602 15.8593 -9.8368e-19)
(-6.89721 16.4308 -3.38023e-18)
(-0.389509 12.8729 -1.35213e-18)
(-0.473446 12.9683 2.83387e-19)
(-0.489669 13.0636 1.84323e-19)
(-0.526129 13.1802 1.20055e-20)
(-0.607592 13.3344 -8.53338e-19)
(-0.729363 13.5609 2.72321e-18)
(-0.88694 13.9725 -2.50433e-18)
(-0.933449 14.8577 -2.66746e-19)
(-1.23269 16.2498 8.69062e-20)
(-5.65001 17.0366 -2.5947e-18)
(0.602408 12.8591 4.08365e-19)
(0.531975 13.0227 6.42941e-20)
(0.519416 13.1683 -1.52665e-19)
(0.484923 13.323 -2.00804e-19)
(0.412439 13.5114 -5.4569e-19)
(0.308537 13.774 4.15604e-19)
(0.184895 14.2271 2.61678e-19)
(0.208206 15.1415 4.6538e-19)
(0.0122109 16.5411 -5.36357e-19)
(-4.34434 17.5395 4.93663e-19)
(-6.05116 9.17115 -3.84445e-18)
(-7.27198 7.67575 1.6776e-18)
(-7.53657 6.78162 -6.8663e-19)
(-8.54013 5.63593 -2.2883e-18)
(-8.81968 4.76401 -1.44111e-18)
(-9.49662 3.71043 -9.79024e-20)
(-9.72933 2.77383 -7.80142e-19)
(-10.1829 1.73485 -2.35077e-19)
(-10.3599 0.765641 -2.90198e-19)
(-10.6313 -0.240419 1.299e-19)
(-6.65093 8.78264 -2.43146e-18)
(-7.4937 7.59055 -1.93445e-18)
(-7.85918 6.67029 -2.53564e-18)
(-8.6435 5.59139 5.17966e-19)
(-8.97989 4.71799 1.06678e-18)
(-9.55743 3.70608 1.66794e-18)
(-9.8334 2.78768 -7.04306e-19)
(-10.234 1.78407 2.32877e-18)
(-10.4351 0.832141 2.36906e-19)
(-10.673 -0.154639 -2.06637e-19)
(-7.02358 8.5123 7.08034e-18)
(-7.6541 7.55516 -9.33847e-19)
(-8.11034 6.64484 4.30163e-18)
(-8.73558 5.64315 1.13831e-18)
(-9.13263 4.74913 -4.16242e-18)
(-9.63245 3.76783 -2.44937e-18)
(-9.9512 2.8466 -9.99579e-19)
(-10.3128 1.86392 4.46933e-19)
(-10.539 0.914391 -1.03021e-18)
(-10.7573 -0.0639165 1.44819e-19)
(-7.24571 8.44275 1.73905e-18)
(-7.80926 7.56146 3.52969e-18)
(-8.30778 6.66469 3.19358e-19)
(-8.84755 5.71831 1.70025e-18)
(-9.27493 4.8094 2.55592e-18)
(-9.72281 3.8511 2.46135e-19)
(-10.0648 2.92235 1.69322e-18)
(-10.3996 1.95423 7.83134e-19)
(-10.642 1.00284 1.25817e-18)
(-10.8497 0.0294801 -1.67169e-19)
(-7.43706 8.43425 5.18595e-18)
(-7.97672 7.57223 -6.03888e-18)
(-8.48014 6.68619 -5.59558e-19)
(-8.97213 5.77385 8.01719e-19)
(-9.40173 4.86479 -1.12499e-18)
(-9.8141 3.92843 -1.93315e-18)
(-10.1598 3.00013 -3.18142e-18)
(-10.4752 2.04749 2.54959e-18)
(-10.7236 1.09874 -2.94476e-19)
(-10.9259 0.132975 -6.87729e-20)
(-7.64891 8.43768 -8.40247e-18)
(-8.17152 7.58319 4.85951e-18)
(-8.66065 6.70529 1.82342e-18)
(-9.11911 5.81093 2.88474e-19)
(-9.53359 4.90868 1.77736e-18)
(-9.91649 3.99064 -2.53685e-18)
(-10.2507 3.06957 -2.35926e-18)
(-10.547 2.13279 -1.57969e-19)
(-10.7901 1.19187 4.8345e-19)
(-10.9852 0.237017 3.42012e-19)
(-7.95642 8.5224 -1.7643e-18)
(-8.46532 7.66401 -1.35907e-18)
(-8.9345 6.78568 -4.63838e-19)
(-9.36469 5.89491 1.88182e-18)
(-9.75462 4.9955 -5.39534e-18)
(-10.1075 4.08663 -1.77915e-18)
(-10.4186 3.1717 2.91215e-18)
(-10.69 2.24619 7.30733e-19)
(-10.9153 1.31326 5.21691e-19)
(-11.0942 0.368517 -2.99101e-19)
(-8.4313 9.02452 -5.16333e-18)
(-8.94894 8.14071 -5.1895e-18)
(-9.41626 7.24056 8.60191e-18)
(-9.83693 6.33054 1.82111e-18)
(-10.2131 5.41362 7.39548e-18)
(-10.5474 4.49087 2.48184e-19)
(-10.8392 3.56276 -2.31909e-18)
(-11.0891 2.62745 3.03094e-18)
(-11.2946 1.68466 -9.62851e-20)
(-11.4538 0.732183 6.86986e-19)
(-9.47976 9.95906 7.16405e-19)
(-10.0331 9.00367 7.71812e-18)
(-10.5211 8.03278 -7.79197e-18)
(-10.951 7.05127 5.02182e-18)
(-11.3249 6.0634 -7.78029e-18)
(-11.6463 5.07103 9.75821e-19)
(-11.9161 4.07523 -2.75831e-18)
(-12.1354 3.07579 1.05228e-18)
(-12.3031 2.07249 1.31203e-19)
(-12.4174 1.06502 -3.65592e-19)
(-13.9002 8.62682 1.91356e-18)
(-14.3506 7.42062 -5.41035e-18)
(-14.7127 6.19784 2.54513e-18)
(-14.9882 4.96752 -2.1928e-18)
(-15.1814 3.73484 9.16795e-19)
(-15.2939 2.50548 4.59141e-18)
(-15.3283 1.2834 5.46681e-19)
(-15.2861 0.0725975 1.29345e-18)
(-15.168 -1.12363 -6.1385e-19)
(-14.9731 -2.30162 -1.51569e-19)
(-10.7026 -1.19186 1.16516e-19)
(-10.7849 -2.16006 -4.9319e-19)
(-10.7228 -3.10071 2.34866e-18)
(-10.6437 -4.04272 -1.5482e-18)
(-10.4635 -4.94873 1.45652e-19)
(-10.2468 -5.81838 -1.27326e-18)
(-9.92405 -6.63697 6.21416e-18)
(-9.5413 -7.44327 4.22835e-19)
(-9.16791 -8.16792 -1.7691e-18)
(-8.86901 -8.52944 3.64679e-18)
(-10.7604 -1.10629 4.45906e-19)
(-10.8293 -2.07262 -1.11303e-18)
(-10.7807 -3.02024 -9.8212e-19)
(-10.6906 -3.96843 -6.76299e-19)
(-10.505 -4.89095 -1.79143e-18)
(-10.2639 -5.78791 -1.32423e-19)
(-9.92775 -6.65185 -3.97355e-19)
(-9.50614 -7.49524 1.60997e-18)
(-8.99151 -8.25611 3.87865e-18)
(-8.44821 -8.82508 -5.3639e-19)
(-10.8633 -1.02108 -3.08149e-19)
(-10.9286 -1.9894 2.33304e-18)
(-10.8977 -2.94342 4.48071e-19)
(-10.8108 -3.89433 -1.59016e-19)
(-10.6373 -4.82396 2.01631e-18)
(-10.4 -5.73363 9.10167e-19)
(-10.0775 -6.61633 1.74073e-18)
(-9.66662 -7.46436 -1.39187e-18)
(-9.13888 -8.23991 -3.21039e-18)
(-8.51085 -8.93566 -7.40738e-18)
(-10.9711 -0.93415 3.92045e-19)
(-11.0378 -1.90717 -1.09557e-18)
(-11.0219 -2.8715 1.34783e-18)
(-10.9409 -3.83237 -3.1252e-18)
(-10.7793 -4.77725 -1.69758e-18)
(-10.5476 -5.70574 -7.2122e-19)
(-10.2342 -6.60782 -3.74958e-18)
(-9.83296 -7.46963 -1.58525e-18)
(-9.32139 -8.27558 8.79805e-20)
(-8.69671 -9.0468 2.43415e-18)
(-11.058 -0.832151 2.0948e-19)
(-11.1297 -1.80656 3.06234e-20)
(-11.1277 -2.77855 9.57242e-19)
(-11.0564 -3.74972 2.80899e-18)
(-10.9079 -4.71135 -4.97268e-19)
(-10.6845 -5.6605 -3.96654e-18)
(-10.3783 -6.58603 6.47577e-18)
(-9.98333 -7.47619 -1.91764e-18)
(-9.4872 -8.32694 -1.54538e-18)
(-8.88615 -9.15567 -6.65973e-19)
(-11.1201 -0.723492 -5.96301e-19)
(-11.195 -1.69393 5.55826e-19)
(-11.2025 -2.6675 1.61124e-18)
(-11.1412 -3.64375 -1.53901e-18)
(-11.0056 -4.61644 3.09561e-18)
(-10.7932 -5.58104 -3.63564e-19)
(-10.4972 -6.52788 3.10652e-19)
(-10.1123 -7.44918 1.73175e-18)
(-9.63228 -8.34431 1.20514e-18)
(-9.05605 -9.22128 4.78343e-19)
(-11.2198 -0.585149 1.03129e-19)
(-11.2883 -1.549 -1.13421e-19)
(-11.2948 -2.51965 2.64183e-18)
(-11.2357 -3.49571 -3.13514e-18)
(-11.1059 -4.47258 -5.44837e-18)
(-10.9009 -5.44544 2.71519e-18)
(-10.6145 -6.40708 -1.3829e-18)
(-10.2419 -7.35263 1.4195e-18)
(-9.77976 -8.28141 3.8985e-18)
(-9.22772 -9.19522 -4.03534e-18)
(-11.562 -0.22927 -1.28275e-19)
(-11.6152 -1.19916 -1.97614e-18)
(-11.6095 -2.176 2.58417e-18)
(-11.5411 -3.15815 1.39791e-18)
(-11.4056 -4.14211 -4.45462e-18)
(-11.1982 -5.12357 -3.38564e-18)
(-10.9142 -6.09758 -3.1615e-19)
(-10.5497 -7.06106 4.2732e-19)
(-10.1023 -8.01296 7.56829e-19)
(-9.57138 -8.95249 -1.64418e-18)
(-12.4743 0.0553752 2.04088e-19)
(-12.4719 -0.955559 2.8752e-18)
(-12.4076 -1.96465 1.00437e-18)
(-12.2793 -2.97074 -3.55016e-18)
(-12.0838 -3.97014 3.33718e-18)
(-11.8184 -4.9593 -4.29217e-18)
(-11.4806 -5.93479 5.53621e-18)
(-11.0692 -6.89491 -6.48459e-18)
(-10.5831 -7.83892 -3.4022e-18)
(-10.0222 -8.76515 -9.32647e-18)
(-14.699 -3.45635 -6.03747e-20)
(-14.3479 -4.58097 -9.63991e-19)
(-13.9215 -5.67436 7.18982e-19)
(-13.4199 -6.73001 7.86435e-19)
(-12.8438 -7.74394 -1.73783e-18)
(-12.194 -8.71038 1.63949e-18)
(-11.4728 -9.62536 -2.05193e-18)
(-10.6837 -10.4857 1.5933e-18)
(-9.83053 -11.2893 -4.06454e-18)
(-8.91638 -12.0331 4.44282e-18)
(-7.94468 -12.7122 6.58503e-18)
(-9.3873 -9.66912 -3.9914e-18)
(-8.95737 -9.87587 -3.61379e-18)
(-8.58733 -10.0916 4.58752e-18)
(-8.387 -10.082 -2.58756e-19)
(-8.18742 -9.97533 4.24841e-18)
(-7.97261 -9.82071 3.23257e-19)
(-7.78782 -9.63563 -3.12697e-18)
(-7.76605 -9.37205 5.20386e-18)
(-8.14018 -8.85681 -8.53851e-19)
(-6.92551 -13.3248 -7.15182e-18)
(-8.67874 -10.5469 1.54646e-17)
(-8.26112 -10.775 -7.77711e-19)
(-7.86175 -10.9622 -4.04513e-18)
(-7.63426 -10.9169 2.84967e-18)
(-7.41167 -10.7721 -5.85999e-18)
(-7.17895 -10.5831 6.12849e-18)
(-6.96702 -10.3773 -4.43611e-18)
(-6.82335 -10.1539 9.90253e-19)
(-6.92506 -9.78941 2.59529e-18)
(-5.86149 -13.8775 4.22533e-18)
(-7.90043 -11.3965 -9.64822e-18)
(-7.48593 -11.6465 3.23184e-18)
(-7.0571 -11.8013 -1.52492e-18)
(-6.80673 -11.7187 2.4963e-18)
(-6.56786 -11.5365 -1.68102e-18)
(-6.32262 -11.3139 -1.48388e-18)
(-6.09704 -11.075 1.64983e-18)
(-5.93809 -10.8129 -3.45788e-18)
(-6.00254 -10.4494 3.95394e-18)
(-4.75765 -14.3668 -9.30528e-18)
(-7.05104 -12.213 9.36057e-19)
(-6.63323 -12.4806 3.21667e-18)
(-6.17762 -12.5974 3.7267e-18)
(-5.9103 -12.4751 -5.58343e-18)
(-5.66091 -12.2569 4.08314e-19)
(-5.4055 -12.0092 -2.20224e-18)
(-5.16413 -11.7651 -4.13605e-18)
(-4.96482 -11.5404 7.59645e-18)
(-4.93285 -11.291 1.8354e-18)
(-3.61604 -14.7932 6.68174e-18)
(-6.13169 -12.9903 1.24778e-18)
(-5.70579 -13.2696 4.16269e-18)
(-5.22826 -13.3417 -2.81982e-19)
(-4.95131 -13.1763 4.33445e-18)
(-4.70077 -12.9199 1.91479e-18)
(-4.45053 -12.6413 4.0594e-18)
(-4.22316 -12.3719 -3.77427e-18)
(-4.04716 -12.1207 -2.48872e-19)
(-3.99563 -11.8661 -2.59207e-18)
(-2.43998 -15.1527 4.65658e-18)
(-5.14238 -13.7194 -4.19553e-18)
(-4.70597 -14.0024 -7.22296e-19)
(-4.21346 -14.0231 -1.18499e-18)
(-3.93472 -13.8124 -1.17961e-18)
(-3.68966 -13.5192 -1.33148e-18)
(-3.44781 -13.2153 1.98332e-18)
(-3.22858 -12.9343 -2.27276e-18)
(-3.04628 -12.6917 1.99009e-18)
(-2.94577 -12.4777 1.42794e-19)
(-1.23213 -15.4429 -8.19793e-18)
(-4.0849 -14.391 -3.05909e-18)
(-3.63781 -14.6686 4.98221e-18)
(-3.13941 -14.6318 -1.58603e-18)
(-2.86825 -14.3741 2.02729e-18)
(-2.63812 -14.0439 -5.40002e-18)
(-2.41585 -13.7125 3.83983e-18)
(-2.21958 -13.4099 -1.25179e-18)
(-2.05651 -13.1454 1.903e-18)
(-1.93867 -12.9147 -1.90977e-18)
(0.00400213 -15.6583 3.79197e-18)
(-2.96163 -14.9939 -1.24543e-18)
(-2.50602 -15.2567 -1.67882e-18)
(-2.01244 -15.1575 -6.26388e-19)
(-1.75808 -14.8529 3.77175e-19)
(-1.54911 -14.4892 8.42529e-19)
(-1.34819 -14.1364 -1.64914e-18)
(-1.16847 -13.8239 9.68121e-19)
(-1.00469 -13.5612 2.46336e-18)
(-0.86304 -13.3476 -1.91317e-18)
(1.26445 -15.7933 2.92698e-18)
(-1.77683 -15.5166 -3.17792e-20)
(-1.31714 -15.756 2.60347e-18)
(-0.840606 -15.5913 -2.04677e-18)
(-0.613242 -15.2408 5.65712e-19)
(-0.433938 -14.8459 -5.90676e-19)
(-0.262951 -14.4731 -2.70228e-19)
(-0.109825 -14.148 -1.4001e-18)
(0.0379622 -13.8755 1.42556e-18)
(0.177359 -13.6558 1.05198e-18)
(2.54362 -15.8392 -5.47122e-19)
(-0.536842 -15.9466 -3.71209e-19)
(-0.0789269 -16.1555 -2.74296e-19)
(0.367956 -15.9246 -8.9302e-19)
(0.559038 -15.531 8.31526e-19)
(0.70273 -15.1094 2.37863e-19)
(0.84081 -14.7222 -5.33519e-19)
(0.968695 -14.3921 3.90757e-20)
(1.10654 -14.1228 -2.39334e-19)
(1.23428 -13.9194 1.5179e-21)
(1.92912 -13.3608 -2.19125e-20)
(1.03344 -10.8645 -6.70293e-21)
(0.416746 -8.35774 1.55505e-20)
(0.477199 -6.68616 -6.09425e-21)
(0.543088 -5.18651 -3.40117e-22)
(0.475041 -3.65143 -1.13846e-21)
(0.422132 -2.40193 2.07167e-22)
(0.363708 -1.50585 -1.67581e-22)
(0.319535 -0.936771 9.67391e-23)
(0.296131 -0.593098 4.54773e-23)
(0.288889 -0.38704 -1.45253e-22)
(0.292994 -0.253631 6.14238e-23)
(0.299711 -0.155299 -5.21968e-23)
(0.305165 -0.0820429 -1.42441e-22)
(0.301371 -0.0275604 2.36117e-23)
(0.299197 0.017236 -5.31022e-23)
(0.296269 0.0356299 2.04734e-23)
(0.295232 0.0601935 1.56225e-23)
(0.317566 0.05812 -2.02314e-23)
(0.338695 0.0584817 -2.19205e-23)
(2.86667 -13.5471 1.39217e-19)
(1.75128 -11.0918 3.97843e-20)
(0.853422 -8.52779 -2.98308e-20)
(0.683973 -6.74817 6.36192e-21)
(0.666149 -5.22305 -8.48325e-21)
(0.555153 -3.68114 -1.183e-21)
(0.455565 -2.40384 -3.68005e-22)
(0.372772 -1.50311 -3.04729e-22)
(0.31536 -0.934629 1.56885e-22)
(0.284626 -0.592503 4.37848e-23)
(0.272183 -0.387657 1.54332e-23)
(0.272521 -0.254795 4.08227e-22)
(0.276206 -0.156301 -5.28709e-22)
(0.279346 -0.0823936 -1.31647e-22)
(0.273515 -0.0274045 1.00548e-22)
(0.270923 0.0172775 7.97643e-23)
(0.268371 0.0356478 -1.62471e-22)
(0.268769 0.0592374 2.20629e-22)
(0.294028 0.0564656 4.72611e-23)
(0.312072 0.0578019 5.21516e-23)
(3.68658 -13.4605 -3.036e-19)
(2.41474 -11.1345 1.20147e-19)
(1.28828 -8.64747 1.39867e-19)
(0.904903 -6.81716 -3.83846e-20)
(0.796214 -5.26356 1.742e-21)
(0.641112 -3.71592 -6.66915e-21)
(0.495346 -2.41417 -4.2319e-22)
(0.385093 -1.50529 -6.94296e-22)
(0.313546 -0.935408 -1.76961e-22)
(0.275102 -0.593383 -1.86565e-22)
(0.257174 -0.388931 -7.88183e-23)
(0.253526 -0.256263 2.08942e-23)
(0.254134 -0.157452 5.51617e-22)
(0.255003 -0.0827974 -2.52176e-22)
(0.247327 -0.027305 -2.38289e-22)
(0.244525 0.0172391 2.44023e-22)
(0.242346 0.0355592 -5.94024e-23)
(0.244398 0.0581189 -1.23339e-22)
(0.271855 0.0548442 -1.78111e-22)
(0.286776 0.0572477 8.73075e-23)
(4.60425 -13.4828 -8.68011e-20)
(3.14012 -11.236 2.40541e-19)
(1.77144 -8.75398 -1.00942e-19)
(1.15764 -6.86716 -1.92711e-20)
(0.937762 -5.28705 1.15616e-20)
(0.732298 -3.74383 -5.44218e-22)
(0.540888 -2.42859 1.67011e-21)
(0.400881 -1.51164 -1.83361e-22)
(0.314148 -0.93893 6.64851e-22)
(0.267585 -0.595687 4.53965e-22)
(0.243888 -0.390825 -9.98633e-22)
(0.236031 -0.258018 1.39902e-22)
(0.233514 -0.158758 -6.90073e-23)
(0.23215 -0.0832744 4.15963e-22)
(0.222819 -0.0272857 1.19369e-22)
(0.219978 0.0171105 -1.78385e-22)
(0.218158 0.0353571 -1.51373e-22)
(0.221999 0.0568607 -2.98183e-22)
(0.250932 0.0532822 2.79189e-22)
(0.262793 0.0568143 -1.84704e-22)
(5.43781 -13.3239 1.16995e-20)
(3.83922 -11.165 1.94215e-20)
(2.26535 -8.7409 1.00038e-20)
(1.42725 -6.85129 4.20777e-20)
(1.08477 -5.27844 1.37436e-20)
(0.8244 -3.761 8.84475e-21)
(0.589843 -2.44571 -2.79529e-21)
(0.419755 -1.52185 5.18316e-22)
(0.317117 -0.945033 3.70043e-22)
(0.262071 -0.599345 5.26917e-22)
(0.232335 -0.393303 -1.06617e-22)
(0.220048 -0.26004 -9.51115e-22)
(0.214357 -0.16022 -1.37023e-22)
(0.210795 -0.0838418 6.88826e-22)
(0.199989 -0.0273658 5.03311e-22)
(0.197238 0.0168856 -2.4165e-22)
(0.195756 0.0350397 6.00951e-22)
(0.201444 0.0554884 9.31919e-23)
(0.231162 0.0518011 9.11692e-23)
(0.240116 0.0564931 -1.66728e-23)
(6.32736 -13.1532 -6.47769e-19)
(4.58473 -11.0215 -9.1531e-20)
(2.78714 -8.64781 6.31915e-20)
(1.71089 -6.80277 -1.10066e-19)
(1.23186 -5.27417 -3.42875e-20)
(0.913697 -3.79315 -2.49417e-20)
(0.64048 -2.47536 3.63394e-21)
(0.441462 -1.53819 5.93642e-22)
(0.322405 -0.953941 -1.01661e-21)
(0.258531 -0.604334 -4.73911e-22)
(0.222515 -0.396327 -3.16658e-22)
(0.205582 -0.262306 8.74402e-22)
(0.196664 -0.161832 -3.88892e-22)
(0.190935 -0.084509 -4.36723e-22)
(0.178816 -0.0275552 -3.42452e-22)
(0.176247 0.0165657 4.35951e-22)
(0.175072 0.0346128 4.35503e-23)
(0.182597 0.0540311 1.77043e-22)
(0.212465 0.0504177 -1.72403e-22)
(0.218746 0.0562722 6.68626e-23)
(7.16822 -12.7797 6.43939e-19)
(5.30654 -10.8222 2.20384e-19)
(3.30955 -8.61752 -6.36303e-21)
(2.00237 -6.85664 1.31354e-19)
(1.38081 -5.37005 -3.72009e-20)
(1.0047 -3.89379 4.24369e-21)
(0.696216 -2.53864 9.25565e-21)
(0.467514 -1.56638 -1.49504e-21)
(0.330318 -0.966866 -2.74347e-21)
(0.256968 -0.610928 1.42074e-22)
(0.214415 -0.399968 -6.46769e-22)