/*--------------------------------*- C++ -*----------------------------------*\
  =========                 |
  \\      /  F ield         | OpenFOAM: The Open Source CFD Toolbox
   \\    /   O peration     | Website:  https://openfoam.org
    \\  /    A nd           | Version:  6.0
     \\/     M anipulation  |
\*---------------------------------------------------------------------------*/
FoamFile
{
    version     2.0;
    format      ascii;
    class       volScalarField;
    location    "1.9985";
    object      p;
}
// * * * * * * * * * * * * * * * * * * * * * * * * * * * * * * * * * * * * * //

dimensions      [0 2 -2 0 0 0 0];

internalField   nonuniform List<scalar> 
19200
(
-8.10579
-7.19352
-6.52664
-5.97765
-5.47934
-5.0314
-4.62932
-4.2664
-3.93754
-3.63875
-3.36667
-3.11843
-2.89159
-2.68402
-2.49386
-2.31949
-2.15945
-2.01243
-1.87727
-1.75293
-1.63846
-1.53302
-1.43584
-1.34621
-1.26351
-1.18714
-1.1166
-1.05132
-0.990746
-0.935283
-8.15827
-7.24728
-6.58033
-6.03029
-5.5305
-5.08081
-4.67682
-4.3119
-3.98103
-3.68024
-3.40621
-3.1561
-2.92746
-2.71819
-2.52642
-2.35053
-2.18905
-2.04069
-1.90427
-1.77874
-1.66315
-1.55666
-1.45847
-1.36791
-1.28431
-1.2071
-1.13576
-1.06969
-1.00828
-0.952416
-8.21343
-7.3021
-6.63454
-6.08334
-5.58201
-5.13053
-4.7246
-4.35767
-4.02477
-3.72198
-3.446
-3.19401
-2.96359
-2.75262
-2.55925
-2.38185
-2.21896
-2.06927
-1.9316
-1.8049
-1.68821
-1.58068
-1.48152
-1.39002
-1.30555
-1.22752
-1.1554
-1.08854
-1.02632
-0.970073
-8.26972
-7.35774
-6.6893
-6.13682
-5.63388
-5.18056
-4.77266
-4.4037
-4.06876
-3.76396
-3.48603
-3.23216
-2.99995
-2.78729
-2.59234
-2.41345
-2.24916
-2.09815
-1.95926
-1.83141
-1.71364
-1.60508
-1.50496
-1.41256
-1.32723
-1.2484
-1.17552
-1.10789
-1.04487
-0.988259
-8.32687
-7.4141
-6.74461
-6.19074
-5.68611
-5.2309
-4.821
-4.44998
-4.11298
-3.80616
-3.52627
-3.27053
-3.03655
-2.82221
-2.62568
-2.44531
-2.27964
-2.12734
-1.98724
-1.85825
-1.73942
-1.62986
-1.5288
-1.4355
-1.34934
-1.26972
-1.1961
-1.12773
-1.06392
-1.00697
-8.38473
-7.4711
-6.80045
-6.2451
-5.7387
-5.28156
-4.86961
-4.49651
-4.15743
-3.84858
-3.56673
-3.30912
-3.07336
-2.85735
-2.65926
-2.47743
-2.31039
-2.15683
-2.01553
-1.88544
-1.76557
-1.65504
-1.55305
-1.45889
-1.3719
-1.29151
-1.21716
-1.14806
-1.08348
-1.02622
-8.44321
-7.52866
-6.85678
-6.29986
-5.79165
-5.33252
-4.91849
-4.54327
-4.2021
-3.8912
-3.60738
-3.3479
-3.11037
-2.89271
-2.69307
-2.50979
-2.34141
-2.18659
-2.04414
-1.91296
-1.79207
-1.68059
-1.57771
-1.4827
-1.39491
-1.31376
-1.2387
-1.16887
-1.10354
-1.04599
-8.50222
-7.58673
-6.91354
-6.35501
-5.84492
-5.38375
-4.96761
-4.59025
-4.24696
-3.934
-3.64822
-3.38686
-3.14757
-2.92826
-2.72708
-2.54238
-2.37267
-2.21662
-2.07302
-1.94078
-1.8189
-1.7065
-1.60274
-1.50691
-1.41834
-1.33645
-1.2607
-1.19018
-1.12411
-1.06628
-8.56171
-7.64524
-6.97071
-6.4105
-5.89849
-5.43525
-5.01695
-4.63742
-4.29199
-3.97696
-3.6892
-3.42598
-3.18493
-2.96398
-2.76128
-2.57517
-2.40415
-2.24689
-2.10217
-1.96889
-1.84605
-1.73273
-1.62812
-1.53148
-1.44215
-1.35956
-1.28314
-1.21194
-1.14515
-1.08707
-8.62163
-7.70416
-7.02824
-6.46631
-5.95232
-5.48696
-5.06647
-4.68474
-4.33716
-4.02005
-3.73031
-3.46521
-3.22242
-2.99985
-2.79563
-2.60813
-2.43583
-2.27738
-2.13156
-1.99727
-1.87348
-1.75928
-1.65385
-1.55643
-1.46636
-1.38307
-1.306
-1.23413
-1.16665
-1.10835
-8.68194
-7.76344
-7.08609
-6.52238
-6.00638
-5.53885
-5.11613
-4.73219
-4.38243
-4.06323
-3.7715
-3.50454
-3.26
-3.03581
-2.83011
-2.64123
-2.46766
-2.30805
-2.16116
-2.02587
-1.90116
-1.78611
-1.67988
-1.58171
-1.49093
-1.40696
-1.32925
-1.25674
-1.18859
-1.13009
-8.74258
-7.82302
-7.14419
-6.57867
-6.06061
-5.59088
-5.16591
-4.77971
-4.42776
-4.10646
-3.81274
-3.54391
-3.29764
-3.07185
-2.86466
-2.67443
-2.49962
-2.33887
-2.19093
-2.05467
-1.92907
-1.81319
-1.70619
-1.60729
-1.51582
-1.4312
-1.35286
-1.27973
-1.21091
-1.15224
-8.8035
-7.88285
-7.20252
-6.63514
-6.11497
-5.643
-5.21574
-4.82727
-4.47311
-4.1497
-3.85398
-3.58329
-3.33529
-3.1079
-2.89926
-2.70769
-2.53165
-2.36978
-2.22082
-2.08362
-1.95715
-1.84047
-1.73272
-1.63312
-1.54099
-1.45574
-1.37681
-1.30306
-1.2336
-1.17477
-8.86465
-7.94289
-7.26102
-6.69173
-6.16942
-5.69517
-5.26559
-4.87482
-4.51843
-4.19289
-3.89518
-3.62263
-3.37291
-3.14394
-2.93385
-2.74096
-2.56372
-2.40076
-2.25079
-2.11268
-1.98537
-1.86791
-1.75943
-1.65916
-1.56639
-1.48054
-1.40104
-1.3267
-1.2566
-1.19762
-8.92597
-8.00309
-7.31963
-6.7484
-6.22389
-5.74733
-5.31539
-4.9223
-4.56366
-4.236
-3.93628
-3.66188
-3.41045
-3.17991
-2.96839
-2.7742
-2.59578
-2.43174
-2.2808
-2.14179
-2.01366
-1.89545
-1.78628
-1.68536
-1.59197
-1.50555
-1.42549
-1.35057
-1.27985
-1.22076
-8.98742
-8.06339
-7.3783
-6.80508
-6.27835
-5.79942
-5.3651
-4.96966
-4.60877
-4.27896
-3.97724
-3.70098
-3.44785
-3.21576
-3.00282
-2.80734
-2.62776
-2.46267
-2.31077
-2.1709
-2.04198
-1.92304
-1.81319
-1.71165
-1.61768
-1.5307
-1.45012
-1.37465
-1.30332
-1.24414
-9.04895
-8.12373
-7.43699
-6.86173
-6.33271
-5.85139
-5.41465
-5.01684
-4.65367
-4.32172
-4.018
-3.73989
-3.48506
-3.25143
-3.03709
-2.84034
-2.65962
-2.49349
-2.34066
-2.19994
-2.07025
-1.95061
-1.84012
-1.73797
-1.64345
-1.55596
-1.47489
-1.39891
-1.32701
-1.26776
-9.11048
-8.18406
-7.49562
-6.91828
-6.38694
-5.90318
-5.46399
-5.06379
-4.69833
-4.36422
-4.05849
-3.77854
-3.52202
-3.28686
-3.07114
-2.87314
-2.69129
-2.52414
-2.3704
-2.22885
-2.09841
-1.97809
-1.86697
-1.76425
-1.6692
-1.58121
-1.49969
-1.42322
-1.3508
-1.2915
-9.17199
-8.24434
-7.55415
-6.97467
-6.44096
-5.95472
-5.51305
-5.11043
-4.74267
-4.4064
-4.09867
-3.81687
-3.55868
-3.32199
-3.1049
-2.90566
-2.7227
-2.55456
-2.39992
-2.25756
-2.12639
-2.0054
-1.89368
-1.7904
-1.69483
-1.60637
-1.5244
-1.44748
-1.37454
-1.31523
-9.23342
-8.30451
-7.61251
-7.03085
-6.49471
-6.00595
-5.56177
-5.15671
-4.78663
-4.44819
-4.13846
-3.85483
-3.59497
-3.35678
-3.13832
-2.93786
-2.7538
-2.58468
-2.42915
-2.28599
-2.1541
-2.03246
-1.92015
-1.81632
-1.72025
-1.63133
-1.54894
-1.47157
-1.39812
-1.33882
-9.29473
-8.36451
-7.67066
-7.08674
-6.54811
-6.0568
-5.61007
-5.20256
-4.83015
-4.48954
-4.17781
-3.89236
-3.63084
-3.39115
-3.17135
-2.96968
-2.78453
-2.61443
-2.45802
-2.31408
-2.18147
-2.05918
-1.94628
-1.84192
-1.74534
-1.65597
-1.57316
-1.49537
-1.42141
-1.36212
-9.35592
-8.42432
-7.72853
-7.14227
-6.60111
-6.10718
-5.65788
-5.2479
-4.87316
-4.53038
-4.21666
-3.92939
-3.66623
-3.42505
-3.20392
-3.00105
-2.81483
-2.64376
-2.48648
-2.34175
-2.20843
-2.08549
-1.97199
-1.86709
-1.77001
-1.68017
-1.59695
-1.51871
-1.44425
-1.38497
-9.41697
-8.48389
-7.78606
-7.19739
-6.65361
-6.15703
-5.70513
-5.29266
-4.91558
-4.57065
-4.25495
-3.96587
-3.70108
-3.45844
-3.23598
-3.03193
-2.84464
-2.67261
-2.51447
-2.36895
-2.23491
-2.11131
-1.9972
-1.89173
-1.79413
-1.70381
-1.62014
-1.54144
-1.46642
-1.40712
-9.47794
-8.5432
-7.84318
-7.25199
-6.70553
-6.20625
-5.75173
-5.33676
-4.95736
-4.61027
-4.2926
-4.00175
-3.73535
-3.49125
-3.2675
-3.06228
-2.87394
-2.70095
-2.54194
-2.39563
-2.26086
-2.13658
-2.02184
-1.91576
-1.81759
-1.72674
-1.64258
-1.56336
-1.4877
-1.42833
-9.53891
-8.6022
-7.89982
-7.30599
-6.75677
-6.25475
-5.79759
-5.38013
-4.9984
-4.64918
-4.32957
-4.03695
-3.76897
-3.52345
-3.29842
-3.09205
-2.90267
-2.72874
-2.56887
-2.42176
-2.28624
-2.16126
-2.04585
-1.93912
-1.84032
-1.74885
-1.6641
-1.58425
-1.50781
-1.44824
-9.59996
-8.66081
-7.95585
-7.35927
-6.80721
-6.30243
-5.84262
-5.42268
-5.03865
-4.68732
-4.36579
-4.07144
-3.80191
-3.555
-3.32872
-3.12122
-2.93083
-2.75597
-2.59524
-2.44733
-2.31106
-2.18536
-2.06923
-1.9618
-1.86228
-1.77009
-1.6846
-1.60395
-1.52648
-1.46639
-9.66139
-8.71897
-8.01113
-7.41167
-6.85673
-6.34916
-5.88672
-5.46432
-5.07802
-4.72461
-4.4012
-4.10517
-3.83412
-3.58586
-3.35836
-3.14978
-2.95839
-2.78264
-2.62108
-2.47238
-2.33536
-2.20891
-2.09205
-1.98386
-1.88353
-1.79049
-1.70412
-1.62245
-1.54351
-1.48224
-9.72438
-8.77685
-8.06543
-7.46295
-6.9051
-6.39477
-5.92974
-5.50492
-5.1164
-4.76097
-4.43573
-4.13806
-3.86554
-3.61598
-3.38732
-3.17769
-2.98536
-2.80875
-2.64639
-2.49695
-2.35919
-2.23202
-2.11441
-2.00542
-1.90422
-1.8102
-1.72275
-1.63969
-1.5585
-1.49536
-9.79027
-8.8343
-8.11823
-7.51268
-6.95205
-6.43907
-5.97154
-5.54438
-5.15369
-4.7963
-4.46929
-4.17004
-3.89611
-3.6453
-3.41553
-3.20492
-3.01171
-2.8343
-2.6712
-2.52107
-2.38265
-2.25482
-2.13651
-2.02674
-1.92463
-1.82948
-1.74049
-1.65506
-1.57023
-1.50481
-9.85142
-8.88821
-8.16859
-7.56062
-6.99761
-6.48219
-6.01225
-5.58282
-5.19003
-4.83072
-4.50198
-4.20119
-3.92591
-3.6739
-3.44308
-3.23153
-3.0375
-2.85935
-2.69559
-2.54486
-2.40589
-2.27754
-2.15873
-2.04846
-1.94581
-1.84992
-1.75957
-1.67209
-1.58535
-1.51613
-10.4261
-10.4477
-10.4631
-10.4771
-10.4889
-10.4977
-10.5034
-10.506
-10.5053
-10.5016
-10.4946
-10.4845
-10.4713
-10.4551
-10.436
-10.4141
-10.3894
-10.3622
-10.3324
-10.3003
-10.2658
-10.2292
-10.1906
-10.1501
-10.1078
-10.0641
-10.019
-9.97307
-9.92674
-9.88275
-9.44133
-9.46665
-9.48669
-9.50339
-9.51682
-9.52687
-9.53358
-9.53701
-9.53723
-9.53427
-9.52816
-9.51893
-9.50666
-9.49144
-9.47336
-9.4525
-9.42896
-9.40283
-9.37423
-9.34326
-9.31003
-9.27467
-9.23731
-9.19807
-9.15712
-9.11462
-9.07077
-9.02581
-8.97997
-8.93376
-8.67918
-8.70615
-8.72864
-8.74723
-8.76222
-8.77371
-8.78182
-8.78662
-8.78822
-8.78666
-8.78196
-8.77418
-8.76341
-8.74974
-8.73324
-8.71401
-8.69213
-8.6677
-8.64083
-8.61161
-8.58016
-8.54659
-8.51102
-8.47358
-8.43438
-8.39356
-8.35127
-8.30762
-8.26269
-8.21649
-8.01991
-8.04767
-8.07148
-8.09146
-8.10785
-8.12077
-8.13033
-8.13663
-8.13977
-8.13978
-8.13671
-8.13059
-8.12154
-8.10964
-8.09497
-8.07761
-8.05766
-8.03519
-8.01032
-7.98314
-7.95375
-7.92226
-7.88877
-7.8534
-7.81625
-7.77744
-7.73706
-7.6952
-7.6519
-7.60721
-7.40471
-7.43293
-7.4576
-7.47863
-7.49617
-7.51032
-7.52118
-7.52885
-7.53343
-7.53497
-7.53345
-7.52895
-7.5216
-7.51148
-7.49865
-7.48319
-7.46518
-7.44473
-7.42191
-7.39682
-7.36957
-7.34023
-7.30893
-7.27575
-7.24079
-7.20415
-7.1659
-7.12612
-7.08486
-7.04217
-6.8404
-6.86885
-6.894
-6.91573
-6.93407
-6.94915
-6.96104
-6.96984
-6.97565
-6.97848
-6.97833
-6.9753
-6.96951
-6.96101
-6.94988
-6.93619
-6.92003
-6.90147
-6.88062
-6.85755
-6.83235
-6.80513
-6.77596
-6.74494
-6.71216
-6.6777
-6.64164
-6.60405
-6.56497
-6.52448
-6.32723
-6.35565
-6.38096
-6.40301
-6.42184
-6.43751
-6.45012
-6.45977
-6.46652
-6.47038
-6.47136
-6.46955
-6.46507
-6.45797
-6.44833
-6.43621
-6.42169
-6.40485
-6.38577
-6.36455
-6.34125
-6.31598
-6.28881
-6.25983
-6.22912
-6.19677
-6.16283
-6.12739
-6.09049
-6.05222
-5.86138
-5.8895
-5.91467
-5.93673
-5.95571
-5.97168
-5.9847
-5.9949
-6.00232
-6.00692
-6.00874
-6.00789
-6.00446
-5.9985
-5.99009
-5.97928
-5.96617
-5.95081
-5.93328
-5.91368
-5.89207
-5.86855
-5.84318
-5.81606
-5.78726
-5.75686
-5.72492
-5.69151
-5.65669
-5.62056
-5.43925
-5.46683
-5.49161
-5.51342
-5.53228
-5.54825
-5.56142
-5.5719
-5.57969
-5.58476
-5.58715
-5.58699
-5.58434
-5.57927
-5.57183
-5.56208
-5.55011
-5.53598
-5.51977
-5.50155
-5.4814
-5.45939
-5.43562
-5.41014
-5.38304
-5.3544
-5.32427
-5.29273
-5.25984
-5.2257
-5.05738
-5.08424
-5.1084
-5.12974
-5.14826
-5.164
-5.17709
-5.18759
-5.19551
-5.20079
-5.20351
-5.20379
-5.20168
-5.19724
-5.19052
-5.18159
-5.17052
-5.15738
-5.14224
-5.12516
-5.10623
-5.08552
-5.0631
-5.03905
-5.01345
-4.98635
-4.95784
-4.92798
-4.89683
-4.86449
-4.71228
-4.73825
-4.76164
-4.78233
-4.80031
-4.81565
-4.82844
-4.83877
-4.8466
-4.85187
-4.85472
-4.85522
-4.85343
-4.8494
-4.84319
-4.83486
-4.82447
-4.81209
-4.79778
-4.78163
-4.7637
-4.74406
-4.72279
-4.69995
-4.67562
-4.64988
-4.62278
-4.5944
-4.56479
-4.53407
-4.40049
-4.42547
-4.44797
-4.46788
-4.48519
-4.49996
-4.51231
-4.52229
-4.52985
-4.53497
-4.53776
-4.5383
-4.53665
-4.53285
-4.52694
-4.51901
-4.5091
-4.49729
-4.48363
-4.4682
-4.45106
-4.43229
-4.41196
-4.39014
-4.36689
-4.3423
-4.31642
-4.28932
-4.26108
-4.23177
-4.11874
-4.14265
-4.16418
-4.18321
-4.19974
-4.21385
-4.22564
-4.23515
-4.24231
-4.24714
-4.24974
-4.25018
-4.24851
-4.24477
-4.23902
-4.23132
-4.22173
-4.21031
-4.19713
-4.18225
-4.16573
-4.14766
-4.12809
-4.1071
-4.08475
-4.06113
-4.03629
-4.0103
-3.98322
-3.95516
-3.86394
-3.88675
-3.90725
-3.92535
-3.94104
-3.95441
-3.96556
-3.9745
-3.98118
-3.98561
-3.98791
-3.98814
-3.98633
-3.98254
-3.97682
-3.96922
-3.95981
-3.94865
-3.93579
-3.92131
-3.90527
-3.88773
-3.86877
-3.84846
-3.82685
-3.80404
-3.78007
-3.75503
-3.72897
-3.70199
-3.63325
-3.65494
-3.67439
-3.69153
-3.70634
-3.71892
-3.72939
-3.73772
-3.74384
-3.74781
-3.74973
-3.74966
-3.74763
-3.74369
-3.73789
-3.7303
-3.72096
-3.70993
-3.69729
-3.68309
-3.66739
-3.65027
-3.63178
-3.61201
-3.59101
-3.56886
-3.54563
-3.52139
-3.4962
-3.47015
-3.42407
-3.44464
-3.46305
-3.47921
-3.49313
-3.50492
-3.51468
-3.52234
-3.52787
-3.53133
-3.53282
-3.53239
-3.53007
-3.52592
-3.51998
-3.5123
-3.50295
-3.49198
-3.47946
-3.46544
-3.44999
-3.43317
-3.41505
-3.39571
-3.3752
-3.3536
-3.33098
-3.30741
-3.28296
-3.25771
-3.23402
-3.25351
-3.27089
-3.2861
-3.29914
-3.31013
-3.31916
-3.32615
-3.33106
-3.33399
-3.33502
-3.3342
-3.33155
-3.32714
-3.321
-3.31319
-3.30376
-3.29278
-3.2803
-3.26639
-3.25111
-3.23451
-3.21668
-3.19767
-3.17755
-3.1564
-3.13428
-3.11127
-3.08745
-3.0629
-3.061
-3.07943
-3.09582
-3.1101
-3.12228
-3.13249
-3.1408
-3.14711
-3.1514
-3.1538
-3.15437
-3.15313
-3.15013
-3.14542
-3.13905
-3.13107
-3.12153
-3.11049
-3.09801
-3.08414
-3.06896
-3.05253
-3.0349
-3.01615
-2.99634
-2.97555
-2.95385
-2.93131
-2.90802
-2.88407
-2.90311
-2.92054
-2.93598
-2.94936
-2.96072
-2.97017
-2.97776
-2.9834
-2.98711
-2.98898
-2.98907
-2.98741
-2.98406
-2.97904
-2.97242
-2.96424
-2.95455
-2.94342
-2.9309
-2.91705
-2.90193
-2.8856
-2.86812
-2.84957
-2.83001
-2.80951
-2.78815
-2.766
-2.74315
-2.71972
-2.75868
-2.77515
-2.78968
-2.80222
-2.81279
-2.82151
-2.82842
-2.83342
-2.83655
-2.83791
-2.83753
-2.83547
-2.83175
-2.82643
-2.81954
-2.81115
-2.80131
-2.79006
-2.77748
-2.76361
-2.74851
-2.73225
-2.71489
-2.69649
-2.67712
-2.65685
-2.63577
-2.61394
-2.59146
-2.56846
-2.62622
-2.64179
-2.65546
-2.66719
-2.67702
-2.68505
-2.69131
-2.69571
-2.69829
-2.69915
-2.69833
-2.69587
-2.6918
-2.68617
-2.67903
-2.67043
-2.66042
-2.64905
-2.63638
-2.62247
-2.60738
-2.59116
-2.57388
-2.5556
-2.53638
-2.5163
-2.49543
-2.47386
-2.45169
-2.42905
-2.50442
-2.51914
-2.53201
-2.54299
-2.55212
-2.5595
-2.56514
-2.56897
-2.57104
-2.57143
-2.57019
-2.56735
-2.56294
-2.55702
-2.54963
-2.54081
-2.53063
-2.51914
-2.50639
-2.49243
-2.47732
-2.46113
-2.44391
-2.42571
-2.40661
-2.38668
-2.36598
-2.34462
-2.32268
-2.30034
-2.39214
-2.40607
-2.41819
-2.42846
-2.43694
-2.44371
-2.44878
-2.45207
-2.45366
-2.45361
-2.45197
-2.44877
-2.44404
-2.43784
-2.43021
-2.4212
-2.41085
-2.39923
-2.38639
-2.37238
-2.35725
-2.34107
-2.32389
-2.30577
-2.28676
-2.26694
-2.24638
-2.22516
-2.20339
-2.18128
-2.28836
-2.30156
-2.31298
-2.32259
-2.33046
-2.33668
-2.34121
-2.344
-2.34514
-2.34468
-2.34267
-2.33913
-2.3341
-2.32764
-2.31978
-2.31058
-2.30008
-2.28834
-2.27541
-2.26134
-2.24619
-2.23002
-2.21287
-2.1948
-2.17588
-2.15615
-2.13568
-2.11457
-2.09289
-2.07096
-2.1922
-2.20471
-2.21549
-2.22449
-2.2318
-2.2375
-2.24153
-2.24386
-2.24458
-2.24374
-2.24138
-2.23753
-2.23223
-2.22553
-2.21746
-2.20808
-2.19744
-2.18558
-2.17257
-2.15845
-2.14327
-2.1271
-2.10998
-2.09196
-2.0731
-2.05345
-2.03305
-2.012
-1.99034
-1.96856
-2.10289
-2.11476
-2.12493
-2.13336
-2.14014
-2.14536
-2.14893
-2.15083
-2.15115
-2.14996
-2.14728
-2.14314
-2.13758
-2.13064
-2.12238
-2.11283
-2.10205
-2.09008
-2.07698
-2.06281
-2.04761
-2.03143
-2.01433
-1.99635
-1.97755
-1.95795
-1.93761
-1.91658
-1.89486
-1.87329
-2.01975
-2.03102
-2.04062
-2.04852
-2.05482
-2.05958
-2.0627
-2.0642
-2.06416
-2.06263
-2.05963
-2.05521
-2.0494
-2.04224
-2.03378
-2.02406
-2.01314
-2.00105
-1.98786
-1.97362
-1.95837
-1.94217
-1.92507
-1.90711
-1.88834
-1.86877
-1.84844
-1.82737
-1.80546
-1.7843
-1.94218
-1.95295
-1.96208
-1.96954
-1.97544
-1.97982
-1.98257
-1.98374
-1.9834
-1.9816
-1.97836
-1.97371
-1.9677
-1.96037
-1.95176
-1.94192
-1.93089
-1.91872
-1.90547
-1.89119
-1.87593
-1.85973
-1.84266
-1.82474
-1.80602
-1.7865
-1.7662
-1.74504
-1.72282
-1.70215
-1.86958
-1.87999
-1.8888
-1.89597
-1.90162
-1.90575
-1.90829
-1.90929
-1.90881
-1.9069
-1.90357
-1.89887
-1.89284
-1.88551
-1.87693
-1.86715
-1.85621
-1.84417
-1.83107
-1.81697
-1.80192
-1.78597
-1.76917
-1.75157
-1.73319
-1.71402
-1.69405
-1.67308
-1.65088
-1.63162
-1.80142
-1.811
-1.81903
-1.82549
-1.83046
-1.83395
-1.83591
-1.83639
-1.83544
-1.8331
-1.82939
-1.82437
-1.81805
-1.81049
-1.80173
-1.79182
-1.78079
-1.7687
-1.75561
-1.74156
-1.72661
-1.71081
-1.69422
-1.67688
-1.65884
-1.6401
-1.62064
-1.60012
-1.5786
-1.56535
-8.04411
-8.15549
-8.26149
-8.36979
-8.4788
-8.58706
-8.69405
-8.79945
-8.90296
-9.00431
-9.10329
-9.19971
-9.29342
-9.38426
-9.47212
-9.55688
-9.63843
-9.71667
-9.79153
-9.86293
-9.93081
-9.99511
-10.0558
-10.1129
-10.1663
-10.2161
-10.2624
-10.3052
-10.345
-10.3832
-7.07511
-7.19073
-7.30232
-7.41288
-7.52234
-7.63025
-7.73646
-7.84084
-7.94321
-8.04339
-8.1412
-8.23648
-8.32909
-8.4189
-8.50578
-8.58963
-8.67033
-8.7478
-8.82196
-8.89273
-8.96006
-9.02388
-9.08417
-9.14089
-9.19404
-9.24363
-9.28971
-9.33233
-9.37159
-9.4077
-6.33452
-6.44963
-6.56198
-6.67229
-6.78085
-6.88764
-6.99262
-7.09567
-7.19668
-7.29551
-7.392
-7.48602
-7.57745
-7.66615
-7.75201
-7.83493
-7.9148
-7.99153
-8.06504
-8.13527
-8.20214
-8.26561
-8.32563
-8.38218
-8.43522
-8.48476
-8.53078
-8.5733
-8.61227
-8.64764
-5.70677
-5.81934
-5.92995
-6.03856
-6.14536
-6.25039
-6.35359
-6.45487
-6.55412
-6.65123
-6.74606
-6.8385
-6.92843
-7.01572
-7.10028
-7.182
-7.26077
-7.33653
-7.40917
-7.47865
-7.54488
-7.60783
-7.66743
-7.72365
-7.77647
-7.82585
-7.87177
-7.9142
-7.95311
-7.98845
-5.13375
-5.24313
-5.35106
-5.45723
-5.56165
-5.66435
-5.76528
-5.86432
-5.96139
-6.05638
-6.14917
-6.23965
-6.3277
-6.41323
-6.49613
-6.5763
-6.65364
-6.72808
-6.79954
-6.86795
-6.93324
-6.99535
-7.05425
-7.10988
-7.16221
-7.2112
-7.25683
-7.29906
-7.33785
-7.37317
-4.62087
-4.72681
-4.8316
-4.93482
-5.03642
-5.13637
-5.23461
-5.33106
-5.4256
-5.51813
-5.60856
-5.69676
-5.78263
-5.86609
-5.94702
-6.02533
-6.10093
-6.17376
-6.24372
-6.31075
-6.37479
-6.43578
-6.49367
-6.54842
-6.59999
-6.64834
-6.69344
-6.73525
-6.77374
-6.80889
-4.16655
-4.26894
-4.37034
-4.47033
-4.5688
-4.66572
-4.76103
-4.85461
-4.94638
-5.03622
-5.12403
-5.20972
-5.29318
-5.37431
-5.45302
-5.52923
-5.60285
-5.67379
-5.74199
-5.80738
-5.86991
-5.92951
-5.98613
-6.03974
-6.09028
-6.13773
-6.18206
-6.22321
-6.26118
-6.29595
-3.76504
-3.86384
-3.96175
-4.05836
-4.15356
-4.24731
-4.33952
-4.43009
-4.51892
-4.60591
-4.69096
-4.77397
-4.85484
-4.93348
-5.0098
-5.08372
-5.15515
-5.22402
-5.29026
-5.3538
-5.41459
-5.47257
-5.5277
-5.57994
-5.62923
-5.67555
-5.71887
-5.75915
-5.79638
-5.83055
-3.41087
-3.50611
-3.60053
-3.69373
-3.78562
-3.87613
-3.96519
-4.05268
-4.13851
-4.22257
-4.30476
-4.385
-4.46319
-4.53923
-4.61305
-4.68455
-4.75367
-4.82032
-4.88445
-4.946
-5.00489
-5.0611
-5.11456
-5.16524
-5.2131
-5.2581
-5.30022
-5.33943
-5.37572
-5.40908
-3.0989
-3.19067
-3.28165
-3.3715
-3.4601
-3.54739
-3.6333
-3.71771
-3.80052
-3.88164
-3.96096
-4.0384
-4.11386
-4.18726
-4.25852
-4.32755
-4.39428
-4.45864
-4.52058
-4.58002
-4.63692
-4.69123
-4.7429
-4.79189
-4.83818
-4.88173
-4.9225
-4.96049
-4.99567
-5.02805
-2.82421
-2.91263
-3.00028
-3.08685
-3.17224
-3.25639
-3.33921
-3.42059
-3.50043
-3.57864
-3.65512
-3.72978
-3.80253
-3.87329
-3.94198
-4.00852
-4.07284
-4.13488
-4.19458
-4.25187
-4.30672
-4.35906
-4.40887
-4.4561
-4.50073
-4.54272
-4.58205
-4.61869
-4.65265
-4.68393
-2.58225
-2.66744
-2.75189
-2.83531
-2.91761
-2.99871
-3.07853
-3.15697
-3.23392
-3.3093
-3.383
-3.45494
-3.52503
-3.59319
-3.65934
-3.72342
-3.78535
-3.84508
-3.90254
-3.95767
-4.01045
-4.06081
-4.10872
-4.15415
-4.19706
-4.23744
-4.27526
-4.31049
-4.34314
-4.37322
-2.36885
-2.45098
-2.53237
-2.61278
-2.69211
-2.77029
-2.84724
-2.92284
-2.99701
-3.06965
-3.14066
-3.20996
-3.27747
-3.3431
-3.40679
-3.46846
-3.52805
-3.5855
-3.64075
-3.69376
-3.74448
-3.79286
-3.83888
-3.8825
-3.92369
-3.96243
-3.99871
-4.03249
-4.06379
-4.09261
-2.18031
-2.25952
-2.33801
-2.41555
-2.49206
-2.56746
-2.64167
-2.71457
-2.78608
-2.85609
-2.92453
-2.99129
-3.05631
-3.11951
-3.18081
-3.24014
-3.29746
-3.3527
-3.4058
-3.45673
-3.50544
-3.55188
-3.59604
-3.63787
-3.67735
-3.71446
-3.7492
-3.78153
-3.81145
-3.83899
-2.01334
-2.08979
-2.16553
-2.24036
-2.31419
-2.38695
-2.45855
-2.52889
-2.59786
-2.66538
-2.73136
-2.79571
-2.85835
-2.91921
-2.97822
-3.03532
-3.09044
-3.14355
-3.19458
-3.24349
-3.29025
-3.33481
-3.37715
-3.41723
-3.45504
-3.49056
-3.52377
-3.55466
-3.58323
-3.60949
-1.86505
-1.93888
-2.01202
-2.08429
-2.1556
-2.22587
-2.29501
-2.36292
-2.4295
-2.49465
-2.55829
-2.62034
-2.68071
-2.73935
-2.79617
-2.85113
-2.90417
-2.95523
-3.00427
-3.05125
-3.09613
-3.13888
-3.17947
-3.21787
-3.25406
-3.28803
-3.31976
-3.34924
-3.37647
-3.40147
-1.73292
-1.80428
-1.87497
-1.94482
-2.01375
-2.08168
-2.14851
-2.21413
-2.27844
-2.34136
-2.40279
-2.46266
-2.52088
-2.5774
-2.63215
-2.68508
-2.73612
-2.78524
-2.83238
-2.87752
-2.92061
-2.96162
-3.00053
-3.03731
-3.07195
-3.10442
-3.13473
-3.16285
-3.18879
-3.21257
-1.61478
-1.68379
-1.75217
-1.81975
-1.88645
-1.95218
-2.01683
-2.08029
-2.14247
-2.20328
-2.26263
-2.32043
-2.37663
-2.43115
-2.48393
-2.53493
-2.58408
-2.63135
-2.6767
-2.72008
-2.76146
-2.80082
-2.83813
-2.87338
-2.90653
-2.93758
-2.96652
-2.99334
-3.01804
-3.04064
-1.50875
-1.57553
-1.64172
-1.70718
-1.77178
-1.83545
-1.89806
-1.9595
-2.01968
-2.0785
-2.13587
-2.19174
-2.24601
-2.29864
-2.34957
-2.39874
-2.4461
-2.49163
-2.53526
-2.57698
-2.61676
-2.65455
-2.69035
-2.72413
-2.75588
-2.78558
-2.81323
-2.83881
-2.86233
-2.88381
-1.41319
-1.47785
-1.542
-1.60546
-1.66811
-1.72984
-1.79054
-1.85008
-1.90837
-1.96532
-2.02085
-2.07487
-2.12734
-2.17818
-2.22735
-2.2748
-2.32048
-2.36435
-2.40638
-2.44654
-2.48479
-2.52111
-2.55548
-2.58788
-2.6183
-2.64672
-2.67314
-2.69755
-2.71996
-2.74037
-1.32671
-1.38935
-1.45158
-1.51318
-1.57401
-1.63394
-1.69285
-1.75061
-1.80713
-1.86231
-1.91609
-1.96839
-2.01914
-2.06831
-2.11582
-2.16164
-2.20573
-2.24805
-2.28856
-2.32724
-2.36406
-2.39899
-2.43202
-2.46312
-2.49229
-2.51951
-2.54477
-2.56808
-2.58944
-2.60885
-1.24808
-1.30882
-1.36926
-1.42913
-1.48827
-1.54652
-1.60375
-1.65984
-1.71469
-1.76822
-1.82035
-1.87101
-1.92016
-1.96773
-2.01369
-2.05798
-2.10057
-2.14143
-2.18052
-2.21781
-2.25328
-2.2869
-2.31866
-2.34855
-2.37654
-2.40263
-2.42682
-2.44909
-2.46946
-2.48793
-1.17624
-1.23518
-1.29398
-1.35227
-1.40984
-1.46653
-1.52219
-1.57671
-1.62999
-1.68196
-1.73253
-1.78166
-1.82929
-1.87537
-1.91985
-1.9627
-2.00388
-2.04336
-2.08111
-2.1171
-2.1513
-2.1837
-2.21428
-2.24302
-2.26992
-2.29495
-2.31813
-2.33944
-2.35888
-2.37648
-1.11024
-1.16748
-1.22485
-1.28169
-1.33781
-1.39305
-1.44726
-1.5003
-1.5521
-1.60259
-1.6517
-1.69938
-1.74558
-1.79024
-1.83334
-1.87484
-1.9147
-1.95288
-1.98937
-2.02414
-2.05715
-2.08841
-2.11788
-2.14555
-2.17142
-2.19547
-2.2177
-2.23811
-2.25669
-2.27347
-1.04925
-1.10494
-1.16109
-1.21665
-1.27145
-1.32535
-1.37818
-1.42984
-1.48025
-1.52934
-1.57707
-1.62338
-1.66822
-1.71155
-1.75335
-1.79357
-1.83218
-1.86915
-1.90446
-1.93808
-1.96999
-2.00016
-2.0286
-2.05527
-2.08018
-2.10331
-2.12466
-2.14423
-2.16201
-2.17802
-0.992492
-1.04701
-1.10225
-1.15668
-1.21028
-1.26293
-1.31446
-1.3648
-1.41388
-1.46165
-1.50806
-1.55307
-1.59662
-1.6387
-1.67926
-1.71827
-1.7557
-1.79153
-1.82572
-1.85826
-1.88912
-1.91828
-1.94574
-1.97148
-1.99548
-2.01775
-2.03827
-2.05705
-2.07408
-2.08938
-0.938882
-0.993022
-1.0478
-1.10123
-1.15373
-1.20519
-1.25549
-1.30457
-1.35238
-1.39888
-1.44404
-1.4878
-1.53014
-1.57102
-1.61041
-1.64828
-1.6846
-1.71934
-1.75249
-1.784
-1.81388
-1.8421
-1.86864
-1.8935
-1.91666
-1.93811
-1.95786
-1.9759
-1.99223
-2.00687
-0.88545
-0.940138
-0.995257
-1.04795
-1.09949
-1.14991
-1.19909
-1.24702
-1.29369
-1.33906
-1.38309
-1.42575
-1.467
-1.50682
-1.54518
-1.58204
-1.61738
-1.65118
-1.6834
-1.71404
-1.74306
-1.77045
-1.79621
-1.82031
-1.84275
-1.86351
-1.8826
-1.90002
-1.91575
-1.92982
-0.828996
-0.88538
-0.942033
-0.994557
-1.04551
-1.09515
-1.14348
-1.19051
-1.23627
-1.28073
-1.32385
-1.36562
-1.40599
-1.44495
-1.48246
-1.51849
-1.55303
-1.58605
-1.61752
-1.64743
-1.67576
-1.70248
-1.7276
-1.75109
-1.77295
-1.79317
-1.81175
-1.82868
-1.84396
-1.85761
-0.787513
-0.850015
-0.907541
-0.959422
-1.00944
-1.05792
-1.10497
-1.1507
-1.19513
-1.23822
-1.27997
-1.32035
-1.35933
-1.39689
-1.43301
-1.46767
-1.50084
-1.5325
-1.56265
-1.59125
-1.61829
-1.64378
-1.66768
-1.68999
-1.71071
-1.72983
-1.74735
-1.76327
-1.77758
-1.79031
0.6876
0.678548
0.667947
0.655697
0.641472
0.624921
0.60565
0.583191
0.556983
0.52636
0.49053
0.448553
0.399311
0.341485
0.27351
0.193542
0.0994111
-0.0114308
-0.141966
-0.295672
-0.476596
-0.689425
-0.939546
-1.23306
-1.57708
-1.97995
-2.44712
-2.97859
-3.63787
-4.54486
0.646366
0.636156
0.624868
0.611822
0.596707
0.579222
0.558975
0.535488
0.508198
0.476432
0.439392
0.396132
0.345527
0.286248
0.21672
0.135089
0.0391687
-0.0736022
-0.206222
-0.362184
-0.545552
-0.76102
-1.01398
-1.31053
-1.65773
-2.06388
-2.53431
-3.06868
-3.72947
-4.63448
0.604112
0.592693
0.580688
0.566817
0.550775
0.532319
0.511058
0.486504
0.458088
0.425133
0.386836
0.342242
0.29022
0.229431
0.158289
0.0749285
-0.0228494
-0.137622
-0.272402
-0.430699
-0.616585
-0.834775
-1.09065
-1.39028
-1.7407
-2.15009
-2.6236
-3.16055
-3.8222
-4.72456
0.560886
0.548209
0.535462
0.520736
0.503735
0.484273
0.461961
0.436302
0.406721
0.372537
0.332939
0.286967
0.233481
0.171131
0.0983241
0.0131799
-0.0865122
-0.203344
-0.340343
-0.501034
-0.689502
-0.910462
-1.1693
-1.47206
-1.82571
-2.23834
-2.71491
-3.25448
-3.91766
-4.81939
0.516724
0.502743
0.489228
0.473615
0.455621
0.435118
0.411718
0.384917
0.354132
0.318677
0.277736
0.23034
0.175342
0.111384
0.0368603
-0.0501204
-0.151782
-0.270729
-0.410005
-0.573146
-0.764252
-0.988041
-1.24989
-1.55582
-1.91275
-2.32865
-2.80834
-3.35065
-4.0158
-4.91802
0.471663
0.456333
0.442024
0.425494
0.406472
0.384893
0.36037
0.332388
0.300359
0.263592
0.221264
0.172399
0.115843
0.0502262
-0.026066
-0.114937
-0.218624
-0.339745
-0.481355
-0.647006
-0.840808
-1.06748
-1.3324
-1.64156
-2.00181
-2.42105
-2.90392
-3.44907
-4.11638
-5.01961
0.425742
0.409024
0.393896
0.376419
0.356336
0.333646
0.307964
0.278764
0.245452
0.207331
0.163574
0.113196
0.055034
-0.0122897
-0.0904012
-0.181216
-0.286983
-0.410333
-0.554333
-0.722555
-0.919113
-1.14874
-1.41679
-1.72923
-2.09287
-2.51549
-3.00163
-3.5497
-4.21932
-5.12385
0.379002
0.360859
0.34489
0.326437
0.30526
0.281425
0.254549
0.224095
0.189462
0.149949
0.10472
0.0527857
-0.00702734
-0.0761058
-0.156086
-0.248896
-0.356795
-0.482427
-0.628878
-0.799723
-0.999105
-1.23175
-1.50298
-1.81877
-2.18585
-2.61193
-3.10139
-3.65248
-4.32452
-5.23055
0.331484
0.311883
0.295051
0.275593
0.25329
0.228278
0.200174
0.168431
0.132441
0.0914964
0.0447568
-0.0087764
-0.0702847
-0.141164
-0.223063
-0.317918
-0.428004
-0.555977
-0.704934
-0.878469
-1.08073
-1.31644
-1.59093
-1.9101
-2.28068
-2.71027
-3.20313
-3.7573
-4.43187
-5.33952
0.283227
0.26214
0.244424
0.223932
0.200473
0.174253
0.144889
0.111822
0.0744395
0.0320276
-0.0162615
-0.0714339
-0.13468
-0.207405
-0.291269
-0.38822
-0.500546
-0.630917
-0.782437
-0.958725
-1.16392
-1.40275
-1.68053
-2.00315
-2.37728
-2.81045
-3.30676
-3.86408
-4.54122
-5.45057
0.234268
0.211671
0.193054
0.171501
0.146855
0.119396
0.0887415
0.0543199
0.0155112
-0.0284033
-0.0782785
-0.135128
-0.200152
-0.274765
-0.360638
-0.45973
-0.574341
-0.707151
-0.861293
-1.04037
-1.24856
-1.49056
-1.77168
-2.09782
-2.47556
-2.91235
-3.41217
-3.97268
-4.65245
-5.56355
0.184646
0.160518
0.140984
0.118344
0.0924838
0.0637582
0.0317833
-0.00402373
-0.04429
-0.0897402
-0.141236
-0.1998
-0.266639
-0.34318
-0.431101
-0.532377
-0.649312
-0.784609
-0.941405
-1.12334
-1.33457
-1.57979
-1.86433
-2.19403
-2.57544
-3.0159
-3.51927
-4.08301
-4.76544
-5.67833
0.134396
0.108723
0.0882581
0.0645065
0.0374056
0.00738699
-0.0259348
-0.0631554
-0.104909
-0.151925
-0.205074
-0.265385
-0.334076
-0.412582
-0.502593
-0.606093
-0.725398
-0.863229
-1.02274
-1.20757
-1.42188
-1.6704
-1.95839
-2.2917
-2.67681
-3.12098
-3.62793
-4.19493
-4.88005
-5.79475
0.0835502
0.0563233
0.0349181
0.0100327
-0.018333
-0.0496682
-0.084361
-0.12302
-0.166287
-0.214897
-0.269729
-0.331819
-0.402396
-0.482903
-0.575041
-0.680804
-0.802531
-0.942939
-1.10522
-1.293
-1.51045
-1.76228
-2.05377
-2.39072
-2.77957
-3.22748
-3.73805
-4.30833
-4.99615
-5.91268
0.0321391
0.00335656
-0.018996
-0.045035
-0.0746862
-0.107358
-0.143442
-0.183562
-0.228365
-0.278595
-0.335136
-0.399036
-0.471528
-0.55407
-0.648372
-0.756438
-0.88062
-1.02366
-1.18875
-1.37951
-1.60014
-1.85531
-2.15035
-2.491
-2.88362
-3.3353
-3.8495
-4.42308
-5.11361
-6.03199
-0.0198112
-0.0501441
-0.073446
-0.100654
-0.131608
-0.165633
-0.203126
-0.244724
-0.291084
-0.342955
-0.401229
-0.466962
-0.541399
-0.626005
-0.722501
-0.832903
-0.959579
-1.10529
-1.27321
-1.467
-1.69082
-1.94941
-2.24804
-2.59241
-2.98883
-3.44431
-3.96216
-4.53905
-5.2323
-6.15254
-0.0722787
-0.104147
-0.128395
-0.156784
-0.189052
-0.224441
-0.263355
-0.306447
-0.354379
-0.407908
-0.467935
-0.535524
-0.611927
-0.69862
-0.79733
-0.9101
-1.0393
-1.18771
-1.35851
-1.55536
-1.78244
-2.04448
-2.34673
-2.69485
-3.09511
-3.5544
-4.07591
-4.65611
-5.35207
-6.27419
-0.125245
-0.158623
-0.183805
-0.213381
-0.246971
-0.28373
-0.324074
-0.368668
-0.418184
-0.473386
-0.535181
-0.604644
-0.683035
-0.771836
-0.872792
-0.987951
-1.11971
-1.27086
-1.44457
-1.64452
-1.87489
-2.14041
-2.44631
-2.79821
-3.20232
-3.66544
-4.19062
-4.77413
-5.47281
-6.3968
-0.178695
-0.213543
-0.239642
-0.270403
-0.305313
-0.343444
-0.385218
-0.431319
-0.482427
-0.539311
-0.60289
-0.674242
-0.75464
-0.845573
-0.948809
-1.0664
-1.20076
-1.35466
-1.53131
-1.73438
-1.96806
-2.2371
-2.54667
-2.90237