/*--------------------------------*- C++ -*----------------------------------*\
  =========                 |
  \\      /  F ield         | OpenFOAM: The Open Source CFD Toolbox
   \\    /   O peration     | Website:  https://openfoam.org
    \\  /    A nd           | Version:  6.0
     \\/     M anipulation  |
\*---------------------------------------------------------------------------*/
FoamFile
{
    version     2.0;
    format      ascii;
    class       volScalarField;
    location    "10.2515";
    object      p;
}
// * * * * * * * * * * * * * * * * * * * * * * * * * * * * * * * * * * * * * //

dimensions      [0 2 -2 0 0 0 0];

internalField   nonuniform List<scalar> 
19200
(
-7.11629
-6.25337
-5.66683
-5.21294
-4.81432
-4.46497
-4.157
-3.88174
-3.6331
-3.40674
-3.19929
-3.00816
-2.83129
-2.66705
-2.51409
-2.37132
-2.23778
-2.1127
-1.99539
-1.88525
-1.78174
-1.68441
-1.59282
-1.50661
-1.42543
-1.34898
-1.277
-1.20921
-1.14537
-1.08537
-7.2982
-6.43455
-5.84574
-5.38837
-4.98561
-4.6317
-4.31892
-4.03874
-3.78515
-3.55387
-3.34159
-3.14574
-2.96429
-2.79563
-2.63842
-2.49156
-2.35413
-2.22532
-2.10446
-1.99093
-1.88422
-1.78383
-1.68935
-1.60038
-1.5166
-1.43768
-1.36335
-1.29333
-1.22729
-1.1655
-7.48504
-6.61916
-6.0275
-5.56644
-5.15937
-4.80075
-4.48304
-4.19779
-3.93913
-3.7028
-3.48557
-3.28488
-3.09875
-2.92556
-2.764
-2.61297
-2.47155
-2.33894
-2.21446
-2.09749
-1.98749
-1.884
-1.78657
-1.69481
-1.60837
-1.52694
-1.45024
-1.37794
-1.30968
-1.24607
-7.67515
-6.80674
-6.21195
-5.74701
-5.33546
-4.97198
-4.64917
-4.35874
-4.09485
-3.85336
-3.63105
-3.42541
-3.23448
-3.05667
-2.89066
-2.73538
-2.58989
-2.4534
-2.32522
-2.20474
-2.09142
-1.98476
-1.88434
-1.78974
-1.7006
-1.61662
-1.53751
-1.4629
-1.39238
-1.32695
-7.86813
-6.99703
-6.39888
-5.92988
-5.51368
-5.14518
-4.81715
-4.52138
-4.25215
-4.00536
-3.77785
-3.56716
-3.37133
-3.18879
-3.01824
-2.85861
-2.70897
-2.56853
-2.4366
-2.31255
-2.19584
-2.08598
-1.98251
-1.88502
-1.79316
-1.7066
-1.62504
-1.54807
-1.47527
-1.408
-8.06364
-7.18975
-6.58809
-6.11486
-5.69386
-5.3202
-4.98679
-4.68556
-4.41085
-4.15864
-3.92581
-3.70994
-3.5091
-3.32173
-3.14656
-2.9825
-2.82863
-2.68417
-2.54842
-2.42075
-2.3006
-2.18748
-2.08093
-1.98053
-1.8859
-1.79672
-1.71268
-1.63335
-1.55823
-1.48912
-8.26141
-7.38468
-6.77937
-6.30175
-5.87581
-5.49684
-5.15792
-4.85108
-4.57076
-4.313
-4.07474
-3.85358
-3.64763
-3.45534
-3.27544
-3.10687
-2.94871
-2.80016
-2.66053
-2.52917
-2.40554
-2.28913
-2.17945
-2.0761
-1.97868
-1.88686
-1.80032
-1.71859
-1.64114
-1.57018
-8.4612
-7.58156
-6.97249
-6.49036
-6.05932
-5.67491
-5.33033
-5.01775
-4.73169
-4.46826
-4.22445
-3.99789
-3.78672
-3.58942
-3.40472
-3.23156
-3.06903
-2.91633
-2.77276
-2.63768
-2.51052
-2.39077
-2.27794
-2.17161
-2.07137
-1.97689
-1.88783
-1.80367
-1.72388
-1.65106
-8.66277
-7.78017
-7.16723
-6.68046
-6.24421
-5.8542
-5.50383
-5.18538
-4.89346
-4.62423
-4.37475
-4.14269
-3.9262
-3.72379
-3.5342
-3.35638
-3.18941
-3.03251
-2.88495
-2.7461
-2.61538
-2.49225
-2.37625
-2.26691
-2.16384
-2.06667
-1.97508
-1.88848
-1.80632
-1.73167
-8.86588
-7.98028
-7.36338
-6.87185
-6.43024
-6.03451
-5.67822
-5.35376
-5.05585
-4.78071
-4.52545
-4.28778
-4.06588
-3.85827
-3.66371
-3.48116
-3.3097
-3.14853
-2.99694
-2.85427
-2.71995
-2.59344
-2.47423
-2.36187
-2.25594
-2.15609
-2.06195
-1.9729
-1.88837
-1.81189
-9.0703
-8.18165
-7.5607
-7.0643
-6.61722
-6.21564
-5.85329
-5.5227
-5.21867
-4.9375
-4.67635
-4.43296
-4.20556
-3.99267
-3.79307
-3.60572
-3.42971
-3.26423
-3.10856
-2.96205
-2.82411
-2.69417
-2.57175
-2.45635
-2.34756
-2.24501
-2.14832
-2.05682
-1.96991
-1.89161
-9.27579
-8.38406
-7.75898
-7.2576
-6.80491
-6.39736
-6.02883
-5.69198
-5.38171
-5.0944
-4.82725
-4.57806
-4.34506
-4.12681
-3.9221
-3.72989
-3.54927
-3.37944
-3.21966
-3.06928
-2.92768
-2.79432
-2.66866
-2.55022
-2.43857
-2.33331
-2.23408
-2.14013
-2.05084
-1.97074
-9.48213
-8.58728
-7.95799
-7.45152
-6.99312
-6.57946
-6.20463
-5.8614
-5.54477
-5.2512
-4.97795
-4.72286
-4.48418
-4.2605
-4.05062
-3.85349
-3.66822
-3.49399
-3.33007
-3.17579
-3.03053
-2.89372
-2.76483
-2.64335
-2.52883
-2.42088
-2.3191
-2.22271
-2.13105
-2.04919
-9.68907
-8.79108
-8.1575
-7.64584
-7.18161
-6.76173
-6.38047
-6.03074
-5.70764
-5.40771
-5.12826
-4.86718
-4.62275
-4.39356
-4.17844
-3.97635
-3.78638
-3.60772
-3.43964
-3.28144
-3.13251
-2.99225
-2.86011
-2.73559
-2.61822
-2.50758
-2.40328
-2.30445
-2.21044
-2.12685
-9.89638
-8.99523
-8.35728
-7.84033
-7.37016
-6.94394
-6.55614
-6.19979
-5.87012
-5.56372
-5.27798
-5.01082
-4.76056
-4.52581
-4.30539
-4.09829
-3.90359
-3.72048
-3.54821
-3.38608
-3.23346
-3.08975
-2.95438
-2.82683
-2.70661
-2.59331
-2.48649
-2.38526
-2.2889
-2.20361
-10.1038
-9.1995
-8.55712
-8.03478
-7.55856
-7.12589
-6.73142
-6.36835
-6.03199
-5.71904
-5.42692
-5.1536
-4.89743
-4.65705
-4.4313
-4.21914
-4.01968
-3.83209
-3.65562
-3.48955
-3.33325
-3.18609
-3.04749
-2.91692
-2.79387
-2.67792
-2.56862
-2.46499
-2.36632
-2.27938
-10.3112
-9.40367
-8.75678
-8.22897
-7.74658
-7.30735
-6.90611
-6.5362
-6.19306
-5.87345
-5.57486
-5.29532
-5.03319
-4.78713
-4.55599
-4.33875
-4.1345
-3.94241
-3.76172
-3.59171
-3.43172
-3.28111
-3.1393
-3.00573
-2.87987
-2.76129
-2.64953
-2.54354
-2.44258
-2.35404
-10.5183
-9.60751
-8.95606
-8.42266
-7.93401
-7.48811
-7.07999
-6.70314
-6.35312
-6.02676
-5.72164
-5.43579
-5.16764
-4.91586
-4.67929
-4.45693
-4.24787
-4.05127
-3.86636
-3.6924
-3.52873
-3.37469
-3.22968
-3.09311
-2.96447
-2.84329
-2.7291
-2.62077
-2.51754
-2.42745
-10.7249
-9.81082
-9.15472
-8.61565
-8.12064
-7.66795
-7.25284
-6.86896
-6.51197
-6.17879
-5.86705
-5.57485
-5.30063
-5.04307
-4.80105
-4.57355
-4.35966
-4.15854
-3.9694
-3.79149
-3.62414
-3.46667
-3.31847
-3.17893
-3.04752
-2.92376
-2.80717
-2.69654
-2.59107
-2.49948
-10.9307
-10.0134
-9.35256
-8.80773
-8.30623
-7.84666
-7.42447
-7.03346
-6.66941
-6.32934
-6.01092
-5.71231
-5.43197
-5.16861
-4.92111
-4.68845
-4.46972
-4.26407
-4.07069
-3.88884
-3.71781
-3.55692
-3.40554
-3.26305
-3.12888
-3.00257
-2.88359
-2.77069
-2.66299
-2.56995
-11.1356
-10.215
-9.54937
-8.99867
-8.4906
-8.02403
-7.59466
-7.19644
-6.82525
-6.47822
-6.15307
-5.848
-5.56151
-5.29233
-5.03932
-4.80149
-4.57792
-4.36773
-4.17012
-3.98432
-3.80962
-3.64531
-3.49075
-3.3453
-3.20839
-3.07953
-2.9582
-2.84303
-2.73313
-2.63866
-11.3395
-10.4155
-9.74495
-9.18827
-8.67351
-8.19985
-7.76321
-7.3577
-6.97931
-6.62525
-6.29333
-5.98177
-5.6891
-5.41407
-5.15555
-4.91255
-4.68412
-4.46939
-4.26755
-4.07781
-3.89943
-3.73171
-3.57397
-3.42556
-3.28591
-3.1545
-3.0308
-2.91337
-2.80124
-2.70537
-11.5421
-10.6146
-9.93909
-9.37632
-8.85476
-8.37392
-7.92992
-7.51704
-7.13139
-6.77027
-6.43153
-6.11345
-5.81459
-5.5337
-5.26967
-5.02149
-4.78822
-4.56896
-4.3629
-4.16921
-3.98716
-3.81601
-3.65508
-3.5037
-3.36127
-3.22729
-3.1012
-2.98149
-2.86708
-2.76978
-11.7434
-10.8123
-10.1316
-9.56259
-9.03413
-8.54601
-8.09459
-7.67427
-7.28132
-6.91309
-6.56751
-6.24291
-5.93785
-5.6511
-5.38157
-5.12822
-4.89012
-4.66635
-4.45607
-4.25845
-4.07272
-3.89813
-3.73398
-3.5796
-3.43436
-3.29775
-3.16922
-3.04715
-2.93035
-2.83156
-11.9433
-11.0083
-10.3223
-9.74688
-9.21139
-8.71592
-8.257
-7.82921
-7.42891
-7.05356
-6.70113
-6.36999
-6.05874
-5.76616
-5.49115
-5.23266
-4.98975
-4.76149
-4.54701
-4.34546
-4.15605
-3.97802
-3.81063
-3.6532
-3.50507
-3.36575
-3.23466
-3.1101
-2.99074
-2.89031
-12.1418
-11.2024
-10.5108
-9.92893
-9.38632
-8.88342
-8.41696
-7.98166
-7.574
-7.19151
-6.83224
-6.49459
-6.17717
-5.87878
-5.59832
-5.33473
-5.08705
-4.85434
-4.63569
-4.43024
-4.23717
-4.05568
-3.88503
-3.7245
-3.57341
-3.43125
-3.29744
-3.17019
-3.04796
-2.94547
-12.339
-11.3944
-10.697
-10.1085
-9.55867
-9.04828
-8.57425
-8.13143
-7.71641
-7.32679
-6.9607
-6.61656
-6.29302
-5.98887
-5.70301
-5.43438
-5.18199
-4.94487
-4.72211
-4.51281
-4.3161
-4.13119
-3.95726
-3.79359
-3.63946
-3.49433
-3.35765
-3.22747
-3.10186
-2.99642
-12.5361
-11.5845
-10.8805
-10.2852
-9.72811
-9.21022
-8.72863
-8.27831
-7.85595
-7.45924
-7.08637
-6.73579
-6.40618
-6.09634
-5.80515
-5.53155
-5.27453
-5.03309
-4.80629
-4.59321
-4.39294
-4.20464
-4.02748
-3.86065
-3.70342
-3.5552
-3.41541
-3.28186
-3.15191
-3.04279
-12.7342
-11.7723
-11.0607
-10.4585
-9.89428
-9.36897
-8.87988
-8.4221
-7.99245
-7.58871
-7.20911
-6.85216
-6.51655
-6.20109
-5.90466
-5.62619
-5.36463
-5.11898
-4.88826
-4.67151
-4.4678
-4.27624
-4.09595
-3.92606
-3.76574
-3.6143
-3.4709
-3.33277
-3.19694
-3.08427
-12.9257
-11.9547
-11.2365
-10.6281
-10.057
-9.52451
-9.028
-8.56283
-8.12593
-7.7152
-7.32893
-6.96568
-6.62415
-6.30317
-6.0016
-5.71835
-5.45237
-5.20263
-4.96812
-4.74785
-4.54089
-4.34629
-4.16316
-3.9906
-3.82772
-3.67366
-3.52705
-3.3849
-3.24556
-3.12807
-16.1684
-16.1454
-16.1128
-16.0755
-16.0328
-15.9839
-15.9288
-15.8673
-15.7995
-15.7254
-15.645
-15.5583
-15.4655
-15.3667
-15.2619
-15.1513
-15.035
-14.9132
-14.7859
-14.6534
-14.5158
-14.3732
-14.2259
-14.0741
-13.9179
-13.7576
-13.5935
-13.426
-13.2558
-13.0856
-15.1294
-15.1113
-15.0845
-15.0512
-15.0114
-14.9651
-14.9123
-14.8531
-14.7875
-14.7155
-14.6374
-14.5531
-14.4626
-14.3663
-14.264
-14.156
-14.0423
-13.9232
-13.7987
-13.669
-13.5342
-13.3946
-13.2503
-13.1014
-12.9482
-12.7909
-12.6298
-12.4651
-12.2973
-12.1267
-14.2876
-14.2733
-14.2513
-14.2222
-14.1863
-14.1438
-14.0948
-14.0394
-13.9777
-13.9097
-13.8355
-13.7552
-13.6689
-13.5768
-13.4788
-13.3751
-13.2659
-13.1512
-13.0313
-12.9062
-12.7761
-12.6411
-12.5014
-12.3573
-12.2088
-12.0561
-11.8995
-11.7392
-11.5753
-11.4078
-13.5229
-13.5123
-13.4944
-13.4696
-13.4382
-13.4002
-13.3558
-13.3051
-13.2482
-13.185
-13.1158
-13.0406
-12.9595
-12.8726
-12.78
-12.6817
-12.578
-12.469
-12.3547
-12.2353
-12.1109
-11.9818
-11.848
-11.7097
-11.567
-11.4202
-11.2694
-11.1147
-10.9562
-10.7941
-12.7799
-12.7728
-12.759
-12.7386
-12.7117
-12.6784
-12.6389
-12.5931
-12.5413
-12.4834
-12.4196
-12.3499
-12.2744
-12.1933
-12.1065
-12.0143
-11.9167
-11.8138
-11.7058
-11.5927
-11.4748
-11.3521
-11.2249
-11.0931
-10.957
-10.8168
-10.6725
-10.5243
-10.3723
-10.2166
-12.0704
-12.0667
-12.0567
-12.0404
-12.0178
-11.9891
-11.9543
-11.9135
-11.8667
-11.8141
-11.7557
-11.6916
-11.6219
-11.5466
-11.4659
-11.3799
-11.2885
-11.192
-11.0905
-10.9841
-10.8729
-10.757
-10.6365
-10.5117
-10.3825
-10.2492
-10.1119
-9.97068
-9.82565
-9.67694
-11.3994
-11.3987
-11.3922
-11.3796
-11.361
-11.3365
-11.3061
-11.2699
-11.228
-11.1805
-11.1273
-11.0686
-11.0045
-10.935
-10.8602
-10.7802
-10.695
-10.6049
-10.5099
-10.4101
-10.3055
-10.1964
-10.0829
-9.96499
-9.84287
-9.71665
-9.58645
-9.45238
-9.31455
-9.17309
-10.7673
-10.7693
-10.7657
-10.7563
-10.7412
-10.7204
-10.6941
-10.6621
-10.6247
-10.5818
-10.5335
-10.4799
-10.421
-10.3569
-10.2878
-10.2136
-10.1344
-10.0504
-9.96165
-9.86821
-9.77021
-9.66775
-9.56093
-9.44988
-9.33468
-9.21546
-9.09233
-8.9654
-8.83477
-8.70057
-10.1742
-10.1784
-10.1772
-10.1706
-10.1585
-10.141
-10.1181
-10.09
-10.0565
-10.0178
-9.97392
-9.92495
-9.87091
-9.81189
-9.74794
-9.67915
-9.60558
-9.52733
-9.44448
-9.35711
-9.26531
-9.16919
-9.06884
-8.96436
-8.85585
-8.74341
-8.62715
-8.50717
-8.38357
-8.25648
-9.61981
-9.6257
-9.62652
-9.62212
-9.61254
-9.5978
-9.57795
-9.55301
-9.52302
-9.48804
-9.44812
-9.40329
-9.35362
-9.29916
-9.23999
-9.17615
-9.10773
-9.03481
-8.95744
-8.87573
-8.78974
-8.69958
-8.60532
-8.50706
-8.40489
-8.29891
-8.18922
-8.0759
-7.95906
-7.83882
-9.10311
-9.11027
-9.11262
-9.11
-9.10245
-9.09
-9.07268
-9.05049
-9.0235
-8.99175
-8.95527
-8.91411
-8.86831
-8.81794
-8.76305
-8.7037
-8.63995
-8.57188
-8.49956
-8.42305
-8.34243
-8.25779
-8.1692
-8.07676
-7.98053
-7.88063
-7.77712
-7.67011
-7.55968
-7.44595
-8.62257
-8.63063
-8.6341
-8.63286
-8.62692
-8.61632
-8.60107
-8.5812
-8.55675
-8.52776
-8.49426
-8.45629
-8.4139
-8.36714
-8.31606
-8.26072
-8.20117
-8.13749
-8.06973
-7.99796
-7.92226
-7.84269
-7.75933
-7.67226
-7.58156
-7.4873
-7.38958
-7.28847
-7.18407
-7.07647
-8.17637
-8.185
-8.18925
-8.18902
-8.18432
-8.17518
-8.16163
-8.14366
-8.12133
-8.09468
-8.06373
-8.02851
-7.98909
-7.94549
-7.89777
-7.84599
-7.79019
-7.73044
-7.66679
-7.59931
-7.52807
-7.45312
-7.37454
-7.2924
-7.20678
-7.11775
-7.02539
-6.92977
-6.83098
-6.72911
-7.76245
-7.77137
-7.77612
-7.7766
-7.77282
-7.76482
-7.75261
-7.73619
-7.71562
-7.69093
-7.66214
-7.62929
-7.59243
-7.55159
-7.50682
-7.45817
-7.4057
-7.34945
-7.28948
-7.22586
-7.15863
-7.08787
-7.01364
-6.936
-6.85503
-6.7708
-6.68337
-6.59282
-6.49923
-6.40268
-7.37864
-7.38764
-7.39265
-7.39359
-7.39047
-7.38333
-7.37217
-7.357
-7.33787
-7.31482
-7.28786
-7.25703
-7.22236
-7.18391
-7.14172
-7.09583
-7.04629
-6.99315
-6.93646
-6.87629
-6.81268
-6.7457
-6.6754
-6.60186
-6.52512
-6.44527
-6.36237
-6.27648
-6.18769
-6.09607
-7.02274
-7.03165
-7.03674
-7.03794
-7.03528
-7.02876
-7.01841
-7.00423
-6.98628
-6.96458
-6.93916
-6.91004
-6.87727
-6.84089
-6.80094
-6.75747
-6.71051
-6.66013
-6.60636
-6.54927
-6.48891
-6.42533
-6.35859
-6.28874
-6.21586
-6.14
-6.06123
-5.97962
-5.89523
-5.80815
-6.6926
-6.70129
-6.70632
-6.70763
-6.70524
-6.69917
-6.68943
-6.67604
-6.65904
-6.63847
-6.61433
-6.58667
-6.55553
-6.52093
-6.48294
-6.44158
-6.3969
-6.34896
-6.29779
-6.24346
-6.186
-6.12547
-6.06194
-5.99544
-5.92605
-5.85383
-5.77883
-5.70112
-5.62077
-5.53787
-6.38614
-6.39452
-6.39938
-6.40068
-6.39843
-6.39267
-6.38337
-6.3706
-6.35438
-6.33473
-6.31168
-6.28525
-6.2555
-6.22246
-6.18617
-6.14667
-6.10401
-6.05822
-6.00937
-5.95749
-5.90264
-5.84486
-5.78421
-5.72075
-5.65452
-5.58559
-5.51402
-5.43988
-5.36323
-5.28416
-6.1014
-6.1094
-6.11402
-6.11521
-6.11301
-6.10743
-6.09847
-6.08617
-6.07058
-6.05169
-6.02955
-6.00419
-5.97564
-5.94395
-5.90915
-5.87128
-5.83039
-5.78653
-5.73973
-5.69006
-5.63754
-5.58224
-5.5242
-5.46347
-5.40011
-5.33418
-5.26572
-5.19483
-5.12155
-5.04599
-5.83654
-5.84411
-5.84843
-5.84947
-5.84724
-5.84175
-5.83303
-5.8211
-5.80601
-5.78777
-5.7664
-5.74194
-5.71443
-5.68392
-5.65042
-5.614
-5.57469
-5.53254
-5.48758
-5.43988
-5.38946
-5.33639
-5.2807
-5.22246
-5.1617
-5.09848
-5.03286
-4.96492
-4.89472
-4.82237
-5.58985
-5.59698
-5.60097
-5.6018
-5.59948
-5.59404
-5.58548
-5.57384
-5.55916
-5.54144
-5.52073
-5.49706
-5.47046
-5.44097
-5.40864
-5.37349
-5.33559
-5.29496
-5.25166
-5.20573
-5.15721
-5.10615
-5.0526
-4.9966
-4.9382
-4.87745
-4.81441
-4.74915
-4.68175
-4.61233
-5.35978
-5.36645
-5.3701
-5.37069
-5.36826
-5.36281
-5.35435
-5.34293
-5.32859
-5.31132
-5.29118
-5.26818
-5.24238
-5.2138
-5.1825
-5.14849
-5.11184
-5.07259
-5.03077
-4.98644
-4.93964
-4.89041
-4.83879
-4.78484
-4.72859
-4.67009
-4.60939
-4.54657
-4.4817
-4.41494
-5.1449
-5.15112
-5.15441
-5.15476
-5.15218
-5.14669
-5.1383
-5.12706
-5.11299
-5.09611
-5.07645
-5.05406
-5.02896
-5.00119
-4.9708
-4.93782
-4.9023
-4.86428
-4.82381
-4.78093
-4.73568
-4.68811
-4.63826
-4.58617
-4.53188
-4.47543
-4.41687
-4.35626
-4.29366
-4.22931
-4.94392
-4.9497
-4.95264
-4.95273
-4.95
-4.94445
-4.9361
-4.92499
-4.91116
-4.89461
-4.87538
-4.85351
-4.82904
-4.802
-4.77243
-4.74037
-4.70587
-4.66897
-4.62972
-4.58816
-4.54433
-4.49828
-4.45004
-4.39966
-4.34717
-4.2926
-4.23598
-4.17737
-4.11681
-4.05462
-4.75566
-4.76102
-4.76362
-4.76346
-4.76057
-4.75494
-4.74661
-4.73562
-4.72198
-4.70572
-4.68687
-4.66548
-4.64156
-4.61517
-4.58635
-4.55513
-4.52156
-4.48568
-4.44754
-4.40718
-4.36465
-4.31999
-4.27323
-4.22442
-4.17359
-4.12074
-4.06591
-4.00912
-3.95035
-3.8901
-4.57909
-4.58403
-4.58629
-4.58588
-4.58282
-4.57711
-4.56878
-4.55787
-4.5444
-4.52839
-4.50988
-4.4889
-4.46549
-4.43968
-4.41153
-4.38107
-4.34834
-4.31338
-4.27626
-4.237
-4.19565
-4.15226
-4.10687
-4.05951
-4.0102
-3.95895
-3.90576
-3.85064
-3.79343
-3.73497
-4.41326
-4.41779
-4.41973
-4.41907
-4.41583
-4.41002
-4.40167
-4.39081
-4.37747
-4.36167
-4.34345
-4.32283
-4.29986
-4.27457
-4.24701
-4.21722
-4.18523
-4.15111
-4.11489
-4.07661
-4.03633
-3.99409
-3.94993
-3.90388
-3.85596
-3.80618
-3.75449
-3.70087
-3.64494
-3.5882
-4.2573
-4.26152
-4.26321
-4.26237
-4.25902
-4.25316
-4.24484
-4.23408
-4.2209
-4.20533
-4.18739
-4.16714
-4.1446
-4.11981
-4.09281
-4.06365
-4.03237
-3.99902
-3.96364
-3.92628
-3.88698
-3.8458
-3.80278
-3.75795
-3.71134
-3.66294
-3.61268
-3.56047
-3.50551
-3.45011
-4.1103
-4.11438
-4.11599
-4.11514
-4.11185
-4.10612
-4.09799
-4.08749
-4.07464
-4.05947
-4.042
-4.02228
-4.00034
-3.97622
-3.94997
-3.92162
-3.89122
-3.85882
-3.82447
-3.78821
-3.7501
-3.71018
-3.6685
-3.62511
-3.58003
-3.53328
-3.48477
-3.43433
-3.38069
-3.32685
-3.97157
-3.97486
-3.9758
-3.97437
-3.9706
-3.9645
-3.95611
-3.94545
-3.93254
-3.91741
-3.90009
-3.88062
-3.85904
-3.83537
-3.80968
-3.78199
-3.75236
-3.72082
-3.68744
-3.65225
-3.61531
-3.57667
-3.53639
-3.49452
-3.45111
-3.40619
-3.35977
-3.31164
-3.26053
-3.21343
-13.6739
-13.8306
-13.9788
-14.1268
-14.273
-14.4158
-14.5547
-14.6893
-14.8193
-14.9444
-15.0643
-15.1787
-15.2876
-15.3907
-15.4878
-15.5789
-15.6636
-15.7421
-15.8141
-15.8795
-15.9382
-15.9903
-16.0356
-16.0741
-16.1058
-16.1307
-16.1488
-16.1604
-16.1657
-16.1662
-12.6344
-12.7953
-12.9492
-13.0996
-13.2464
-13.389
-13.5273
-13.6612
-13.7903
-13.9145
-14.0335
-14.1472
-14.2554
-14.3579
-14.4545
-14.5452
-14.6297
-14.7079
-14.7799
-14.8453
-14.9043
-14.9566
-15.0023
-15.0413
-15.0736
-15.0992
-15.1181
-15.1304
-15.1361
-15.1355
-11.7798
-11.9403
-12.0954
-12.2459
-12.3921
-12.5341
-12.6717
-12.8048
-12.9332
-13.0568
-13.1753
-13.2886
-13.3965
-13.4988
-13.5955
-13.6863
-13.7712
-13.85
-13.9226
-13.989
-14.0489
-14.1024
-14.1495
-14.19
-14.2239
-14.2511
-14.2718
-14.2859
-14.2932
-14.2938
-11.0047
-11.1627
-11.3162
-11.4653
-11.6101
-11.7508
-11.8871
-12.0191
-12.1464
-12.2691
-12.3868
-12.4995
-12.607
-12.7092
-12.8058
-12.8968
-12.9821
-13.0614
-13.1348
-13.2022
-13.2633
-13.3183
-13.3669
-13.4091
-13.445
-13.4744
-13.4973
-13.5137
-13.5235
-13.5266
-10.2618
-10.4163
-10.567
-10.7136
-10.8563
-10.9948
-11.1293
-11.2594
-11.3852
-11.5064
-11.6229
-11.7345
-11.8412
-11.9427
-12.0389
-12.1297
-12.215
-12.2947
-12.3686
-12.4367
-12.4988
-12.555
-12.605
-12.649
-12.6867
-12.7182
-12.7434
-12.7622
-12.7746
-12.7805
-9.56545
-9.7159
-9.86306
-10.0065
-10.1461
-10.2819
-10.4138
-10.5416
-10.6651
-10.7843
-10.899
-11.0091
-11.1144
-11.2148
-11.3102
-11.4004
-11.4853
-11.5648
-11.6388
-11.7073
-11.77
-11.827
-11.8782
-11.9235
-11.9628
-11.9961
-12.0233
-12.0444
-12.0593
-12.068
-8.92111
-9.06715
-9.21021
-9.34984
-9.48592
-9.6184
-9.74714
-9.87201
-9.99287
-10.1096
-10.222
-10.3301
-10.4336
-10.5324
-10.6264
-10.7155
-10.7995
-10.8784
-10.9521
-11.0204
-11.0834
-11.1408
-11.1926
-11.2388
-11.2793
-11.314
-11.3429
-11.366
-11.3831
-11.3943
-8.32823
-8.46958
-8.60821
-8.74364
-8.87578
-9.00452
-9.12974
-9.2513
-9.36906
-9.48289
-9.59265
-9.69822
-9.79947
-9.89627
-9.9885
-10.076
-10.1588
-10.2367
-10.3095
-10.3773
-10.4399
-10.4973
-10.5493
-10.596
-10.6372
-10.6729
-10.7031
-10.7277
-10.7466
-10.7598
-7.78512
-7.92164
-8.05563
-8.18665
-8.31458
-8.43933
-8.56074
-8.67869
-8.79305
-8.90367
-9.01044
-9.11322
-9.21189
-9.30632
-9.39641
-9.48204
-9.56312
-9.63953
-9.71119
-9.778
-9.8399
-9.8968
-9.94864
-9.99534
-10.0369
-10.0731
-10.1041
-10.1297
-10.15
-10.1649
-7.28923
-7.42088
-7.55016
-7.67665
-7.80025
-7.92084
-8.03829
-8.15246
-8.26322
-8.37043
-8.47398
-8.57373
-8.66957
-8.76138
-8.84906
-8.93248
-9.01157
-9.08622
-9.15634
-9.22185
-9.28267
-9.33874
-9.38998
-9.43633
-9.47774
-9.51416
-9.54554
-9.57183
-9.593
-9.60905
-6.83734
-6.96416
-7.08873
-7.2107
-7.32993
-7.44632
-7.55973
-7.67004
-7.7771
-7.88078
-7.98098
-8.07756
-8.1704
-8.25941
-8.34447
-8.42548
-8.50235
-8.57499
-8.64332
-8.70725
-8.76671
-8.82163
-8.87196
-8.91764
-8.9586
-8.99481
-9.02622
-9.05279
-9.07449
-9.09132
-6.42589
-6.54798
-6.66794
-6.78542
-6.90033
-7.01255
-7.12194
-7.22837
-7.3317
-7.43183
-7.52861
-7.62194
-7.71171
-7.79781
-7.88014
-7.95859
-8.0331
-8.10356
-8.1699
-8.23204
-8.28992
-8.34347
-8.39264
-8.43737
-8.47761
-8.51332
-8.54445
-8.57098
-8.59287
-8.61012
-6.05127
-6.16876
-6.28422
-6.39735
-6.50803
-6.61616
-6.72159
-6.8242
-6.92385
-7.02043
-7.11381
-7.20389
-7.29055
-7.37369
-7.45323
-7.52906
-7.6011
-7.66927
-7.73351
-7.79373
-7.84987
-7.90188
-7.9497
-7.99328
-8.03258
-8.06755
-8.09816
-8.12438
-8.14618
-8.16357
-5.70991
-5.82298
-5.93411
-6.04303
-6.14962
-6.25378
-6.35537
-6.45425
-6.5503
-6.6434
-6.73344
-6.82029
-6.90387
-6.98407
-7.0608
-7.13398
-7.20353
-7.26936
-7.33142
-7.38963
-7.44394
-7.49429
-7.54063
-7.58292
-7.62111
-7.65517
-7.68507
-7.71078
-7.73227
-7.74954
-5.39846
-5.5073
-5.61428
-5.71915
-5.82183
-5.92217
-6.02005
-6.11534
-6.2079
-6.29763
-6.3844
-6.46811
-6.54867
-6.62597
-6.69994
-6.77048
-6.83753
-6.90102
-6.96087
-7.01704
-7.06946
-7.11808
-7.16287
-7.20377
-7.24074
-7.27377
-7.30281
-7.32784
-7.34885
-7.36583
-5.1138
-5.21859
-5.32162
-5.42265
-5.52158
-5.61828
-5.71262
-5.80446
-5.89367
-5.98015
-6.06377
-6.14444
-6.22206
-6.29653
-6.36779
-6.43575
-6.50034
-6.5615
-6.61917
-6.67329
-6.7238
-6.77068
-6.81386
-6.85331
-6.88901
-6.92091
-6.949
-6.97325
-6.99364
-7.01019
-4.85309
-4.95403
-5.05329
-5.15067
-5.24605
-5.3393
-5.43026
-5.51882
-5.60484
-5.6882
-5.7688
-5.84654
-5.92132
-5.99307
-6.0617
-6.12715
-6.18934
-6.24822
-6.30374
-6.35583
-6.40446
-6.44958
-6.49116
-6.52914
-6.56352
-6.59425
-6.62133
-6.64472
-6.66441
-6.68042
-4.61375
-4.71103
-4.80673
-4.90066
-4.99269
-5.08266
-5.17044
-5.25588
-5.33886
-5.41925
-5.49696
-5.57189
-5.64396
-5.71308
-5.77918
-5.8422
-5.90208
-5.95875
-6.01217
-6.06229
-6.10907
-6.15246
-6.19244
-6.22896
-6.26201
-6.29156
-6.31759
-6.34008
-6.35901
-6.37441
-4.39348
-4.48727
-4.57962
-4.67031
-4.75918
-4.84607
-4.93084
-5.01333
-5.09342
-5.171
-5.24596
-5.31822
-5.38768
-5.45429
-5.51797
-5.57866
-5.6363
-5.69084
-5.74224
-5.79045
-5.83542
-5.87714
-5.91555
-5.95064
-5.98237
-6.01074
-6.03571
-6.05728
-6.07543
-6.09018
-4.19022
-4.28071
-4.3699
-4.45754
-4.54346
-4.62746
-4.7094
-4.78911
-4.86647
-4.94138
-5.01372
-5.08343
-5.15043
-5.21463
-5.276
-5.33446
-5.38996
-5.44246
-5.49191
-5.53828
-5.58152
-5.62161
-5.6585
-5.69219
-5.72264
-5.74984
-5.77377
-5.79441
-5.81177
-5.82585
-4.00215
-4.08948
-4.17572
-4.26054
-4.3437
-4.42501
-4.50428
-4.58137
-4.65616
-4.72853
-4.7984
-4.86569
-4.93033
-4.99225
-5.05141
-5.10774
-5.1612
-5.21175
-5.25935
-5.30395
-5.34553
-5.38405
-5.41949
-5.45182
-5.48103
-5.5071
-5.53
-5.54974
-5.56631
-5.57971
-3.82763
-3.91196
-3.99548
-4.07768
-4.15829
-4.23708
-4.31386
-4.38849
-4.46084
-4.53081
-4.59833
-4.66332
-4.72572
-4.78548
-4.84254
-4.89685
-4.94837
-4.99706
-5.04288
-5.0858
-5.12579
-5.16282
-5.19686
-5.2279
-5.25591
-5.28089
-5.3028
-5.32166
-5.33745
-5.35019
-3.66517
-3.74667
-3.82772
-3.90754
-3.98579
-4.06224
-4.1367
-4.209
-4.27904
-4.34675
-4.41204
-4.47485
-4.53513
-4.59283
-4.64789
-4.70028
-4.74996
-4.79689
-4.84103
-4.88235
-4.92083
-4.95644
-4.98915
-5.01895
-5.04582
-5.06975
-5.09072
-5.10872
-5.12376
-5.13585
-3.51338
-3.59224
-3.67115
-3.74885
-3.82494
-3.89923
-3.97149
-4.04161
-4.10947
-4.17503
-4.2382
-4.29895
-4.35722
-4.41296
-4.46614
-4.51671
-4.56464
-4.6099
-4.65244
-4.69225
-4.7293
-4.76356
-4.79501
-4.82364
-4.84942
-4.87235
-4.89242
-4.90962
-4.92394
-4.9354
-3.37101
-3.44752
-3.5247
-3.60052
-3.67466
-3.74695
-3.81717
-3.88521
-3.95102
-4.01453
-4.0757
-4.13449
-4.19084
-4.24474
-4.29612
-4.34497
-4.39125
-4.43492
-4.47596
-4.51433
-4.55002
-4.58301
-4.61327
-4.64078
-4.66554
-4.68752
-4.70673
-4.72315
-4.73679
-4.74765
-3.23687
-3.31171
-3.38772
-3.46191
-3.53427
-3.60469
-3.67297
-3.73904
-3.80287
-3.86443
-3.92369
-3.9806
-4.03514
-4.08726
-4.13695
-4.18415
-4.22885
-4.27101
-4.31061
-4.34763
-4.38203
-4.4138
-4.44292
-4.46937
-4.49315
-4.51423
-4.53262
-4.54831
-4.56128
-4.57157
-3.10894
-3.18364
-3.25938
-3.33216
-3.40286
-3.47153
-3.53795
-3.60212
-3.66406
-3.72376
-3.78118
-3.83631
-3.88911
-3.93956
-3.98762
-4.03327
-4.07647
-4.1172
-4.15544
-4.19117
-4.22435
-4.25497
-4.28301
-4.30846
-4.33131
-4.35154
-4.36915
-4.38413
-4.39648
-4.40621
-2.98208
-3.05868
-3.13576
-3.20759
-3.27688
-3.34398
-3.40874
-3.47121
-3.53146
-3.58948
-3.64528
-3.69882
-3.75009
-3.79906
-3.8457
-3.88998
-3.93188
-3.97138
-4.00844
-4.04305
-4.07518
-4.10482
-4.13195
-4.15656
-4.17862
-4.19814
-4.2151
-4.2295
-4.24133
-4.25062
-2.85248
-2.93291
-3.01346
-3.08534
-3.15371
-3.21961
-3.28302
-3.34411
-3.40297
-3.45963
-3.5141
-3.56634
-3.61635
-3.6641
-3.70957
-3.75273
-3.79356
-3.83204
-3.86815
-3.90186
-3.93315
-3.96201
-3.98841
-4.01236
-4.03383
-4.05281
-4.06931
-4.0833
-4.09481
-4.10382
-2.75341
-2.8423
-2.92365
-2.99464
-3.06133
-3.12507
-3.18626
-3.24512
-3.30174
-3.35617
-3.40842
-3.45846
-3.50629
-3.5519
-3.59527
-3.63637
-3.67519
-3.71172
-3.74593
-3.77781
-3.80735
-3.83452
-3.85933
-3.88175
-3.90178
-3.91942
-3.93465
-3.94749
-3.95792
-3.96596
-0.564509
-0.607806
-0.654424
-0.704587
-0.758806
-0.81758
-0.881444
-0.951026
-1.02706
-1.11042
-1.20209
-1.30326
-1.4153
-1.5398
-1.67864
-1.834
-2.00837
-2.20467
-2.42621
-2.67675
-2.96051
-3.28212
-3.64657
-4.05903
-4.52487
-5.04949
-5.63379
-6.27095
-7.01379
-7.96824
-0.634467
-0.6802
-0.72851
-0.780571
-0.836888
-0.897873
-0.964061
-1.0361
-1.11474
-1.20084
-1.29544
-1.3997
-1.51503
-1.64304
-1.78561
-1.94494
-2.12355
-2.32437
-2.55072
-2.80637
-3.09555
-3.42287
-3.79328
-4.21191
-4.68401
-5.21483
-5.80505
-6.44735
-7.19337
-8.147
-0.705242
-0.753454
-0.803481
-0.857473
-0.915924
-0.979159
-1.04771
-1.12225
-1.20353
-1.29244
-1.39
-1.49742
-1.61609
-1.74766
-1.89403
-2.0574
-2.24032
-2.44572
-2.67695
-2.9378
-3.23246
-3.56555
-3.94199
-4.36682
-4.84517
-5.38211
-5.978
-6.62501
-7.37349
-8.32553
-0.776779
-0.827507
-0.879275
-0.93523
-0.99585
-1.06137
-1.13233
-1.2094
-1.29336
-1.38511
-1.48568
-1.5963
-1.71837
-1.85355
-2.00376
-2.17122
-2.3585
-2.56855
-2.80472
-3.0708
-3.371
-3.70991
-4.09241
-4.52345
-5.00804
-5.55105
-6.15255
-6.8043
-7.5559
-8.50836
-0.849029
-0.902308
-0.955839
-1.01379
-1.07661
-1.14445
-1.21784
-1.29749
-1.38418
-1.47881
-1.58243
-1.69629
-1.8218
-1.96064
-2.11475
-2.28635
-2.47804
-2.69278
-2.93395
-3.20532
-3.5111
-3.85587
-4.24445
-4.68172
-5.17257
-5.72165
-6.32878
-6.98537
-7.74051
-8.69452
-0.921942
-0.977801
-1.03312
-1.09309
-1.15815
-1.22834
-1.3042
-1.38646
-1.4759
-1.57345
-1.68018
-1.79731
-1.92631
-2.06886
-2.2269
-2.4027
-2.59885
-2.81834
-3.06454
-3.34125
-3.65266
-4.00333
-4.39803
-4.84157
-5.33869
-5.89387
-6.50666
-7.16814
-7.92699
-8.88305
-0.995468
-1.05393
-1.11105
-1.17307
-1.24039
-1.31297
-1.39134
-1.47624
-1.56848
-1.66898
-1.77884
-1.8993
-2.03182
-2.17811
-2.34014
-2.52018
-2.72084
-2.94512
-3.19641
-3.4785
-3.79558
-4.15219
-4.55304
-5.00287
-5.50629
-6.06759
-6.68607
-7.35249
-8.11517
-9.07358
-1.06956
-1.13064
-1.18957
-1.25367
-1.3233
-1.39829
-1.47919
-1.56676
-1.66183
-1.76532
-1.87834
-2.00216
-2.13825
-2.28833
-2.45438
-2.6387
-2.84391
-3.07303
-3.32945
-3.61696
-3.93976
-4.30233
-4.70937
-5.16551
-5.67525
-6.24269
-6.86689
-7.5383
-8.30489
-9.26583
-1.14416
-1.20787
-1.26864
-1.33485
-1.40679
-1.48423
-1.56769
-1.65796
-1.75588
-1.8624
-1.97862
-2.10583
-2.24552
-2.39942
-2.56953
-2.75817
-2.96797
-3.20196
-3.46355
-3.75653
-4.08507
-4.45365
-4.8669
-5.32937
-5.84544
-6.41904
-7.04897
-7.7254
-8.49595
-9.45953
-1.21923
-1.28558
-1.34819
-1.41653
-1.49083
-1.57072
-1.65677
-1.74978
-1.85058
-1.96015
-2.07959
-2.21022
-2.35354
-2.51129
-2.6855
-2.87849
-3.09292
-3.33182
-3.59861
-3.89708
-4.23139
-4.606
-5.02549
-5.49431
-6.01672
-6.59649
-7.23217
-7.91361
-8.68815
-9.65441
-1.29472
-1.36372
-1.42817
-1.49866
-1.57533
-1.65772
-1.74638
-1.84213
-1.94584
-2.05848
-2.18118
-2.31526
-2.46223
-2.62387
-2.8022
-2.99957
-3.21865
-3.46249
-3.73451
-4.0385
-4.37862
-4.75928
-5.18501
-5.6602
-6.18896
-6.77488
-7.4163
-8.10276
-8.88129
-9.85026
-1.3706
-1.44222
-1.50852
-1.58119
-1.66026
-1.74516
-1.83645
-1.93497
-2.0416
-2.15734
-2.28331
-2.42085
-2.57151
-2.73705
-2.91953
-3.12131
-3.34507
-3.59388
-3.87115
-4.18069
-4.52662
-4.91335
-5.34534
-5.82688
-6.36198
-6.95406
-7.60119
-8.29265
-9.07515
-10.0468
-1.44681
-1.52106
-1.58921
-1.66407
-1.74556
-1.83298
-1.92691
-2.02822
-2.13779
-2.25663
-2.3859
-2.52693
-2.68128
-2.85075
-3.0374
-3.2436
-3.47207
-3.72586
-4.0084
-4.3235
-4.67527
-5.06807
-5.50631
-5.99422
-6.53565
-7.13384
-7.78667
-8.4831
-9.26954
-10.2439
-1.52334
-1.60018
-1.67018
-1.74725
-1.83116
-1.92112
-2.0177
-2.12181
-2.23434
-2.3563
-2.48886
-2.63339
-2.79145
-2.96486
-3.15569
-3.36634
-3.59952
-3.85831
-4.14615
-4.46682
-4.82443
-5.2233
-5.6678
-6.16204
-6.70978
-7.31407
-7.97256
-8.6739
-9.46425
-10.4414
-1.60015
-1.67956
-1.75139
-1.83068
-1.91703
-2.00952
-2.10877
-2.21568
-2.33116
-2.45625
-2.59212
-2.74016
-2.90194
-3.07929
-3.27432
-3.48942
-3.72733
-3.99113
-4.28425
-4.6105
-4.97395
-5.3789
-5.82964
-6.33021
-6.88422
-7.49457
-8.15866
-8.86487
-9.65907
-10.6389
-1.67723
-1.75916
-1.83281
-1.91432
-2.00311
-2.09814
-2.20005
-2.30975
-2.4282
-2.55641
-2.69559
-2.84713
-3.01263
-3.19394
-3.39317
-3.61273
-3.85536
-4.12417
-4.4226
-4.75442
-5.12371
-5.53471
-5.99167
-6.49854
-7.05879
-7.67514
-8.34478
-9.05579
-9.8538
-10.8363
-1.75456
-1.83896
-1.91441
-1.99813
-2.08935
-2.18692
-2.29147
-2.40397
-2.52536
-2.65669
-2.79917
-2.95422
-3.12344
-3.3087
-3.51212
-3.73614
-3.98351
-4.25733
-4.56104
-4.89844
-5.27355
-5.69059
-6.15375
-6.66687
-7.23331
-7.85562
-8.53073
-9.24648
-10.0482
-11.0333
-1.83215
-1.91896
-1.99615
-2.08208
-2.17571
-2.27579
-2.38297
-2.49824
-2.62256
-2.75699
-2.90277
-3.06131
-3.23424
-3.42345
-3.63106
-3.85953
-4.11163
-4.39045
-4.69945
-5.0424
-5.42332
-5.84638
-6.3157
-6.83504
-7.40761
-8.0358
-8.71633
-9.43674
-10.2422
-11.2299
-1.91002
-1.99913
-2.07802
-2.16611
-2.26213
-2.36469
-2.47446
-2.59248
-2.71971
-2.85723
-3.00628
-3.1683
-3.34493
-3.53807
-3.74987
-3.98278
-4.23959
-4.52341
-4.83768
-5.18616
-5.57286
-6.00191
-6.47735
-7.00286
-7.58151
-8.21551
-8.90136
-9.62635
-10.4354
-11.4257
-1.98818
-2.07948
-2.15997
-2.2502
-2.34855
-2.45354
-2.56587
-2.6866
-2.81671
-2.95729
-3.10959
-3.27507
-3.45538
-3.65244
-3.8684
-4.10575
-4.36726
-4.65605
-4.97557
-5.32958
-5.72203
-6.15702
-6.63854
-7.17015
-7.75481