/*--------------------------------*- C++ -*----------------------------------*\
  =========                 |
  \\      /  F ield         | OpenFOAM: The Open Source CFD Toolbox
   \\    /   O peration     | Website:  https://openfoam.org
    \\  /    A nd           | Version:  6.0
     \\/     M anipulation  |
\*---------------------------------------------------------------------------*/
FoamFile
{
    version     2.0;
    format      ascii;
    class       surfaceScalarField;
    location    "10.2515";
    object      phi;
}
// * * * * * * * * * * * * * * * * * * * * * * * * * * * * * * * * * * * * * //

dimensions      [0 3 -1 0 0 0 0];

internalField   nonuniform List<scalar> 
38030
(
2.314e-05
-0.0790231
0.0789999
0.000133865
-0.0720473
0.0719366
0.000332381
-0.0663476
0.0661491
0.000616287
-0.0616928
0.0614089
0.000981503
-0.057886
0.0575208
0.00142222
-0.0547621
0.0543214
0.00193165
-0.0521859
0.0516764
0.00250263
-0.0500478
0.0494768
0.0031279
-0.0482593
0.0476341
0.00380044
-0.0467495
0.046077
0.00451351
-0.0454614
0.0447483
0.00526084
-0.0443493
0.043602
0.00603658
-0.0433768
0.0426011
0.0068354
-0.0425147
0.0417158
0.00765246
-0.0417396
0.0409226
0.00848338
-0.0410331
0.0402022
0.00932427
-0.0403803
0.0395394
0.0101717
-0.0397694
0.038922
0.0110225
-0.0391909
0.0383401
0.0118742
-0.0386375
0.0377858
0.0127245
-0.0381031
0.0372528
0.0135713
-0.0375827
0.0367359
0.014413
-0.0370724
0.0362307
0.0152483
-0.0365688
0.0357335
0.0160758
-0.0360688
0.0352412
0.0168946
-0.0355696
0.0347508
0.0177037
-0.0350686
0.0342595
0.0185021
-0.034563
0.0337646
0.0192887
-0.0340498
0.0332632
-0.0335253
0.0327516
0.0200624
3.21895e-05
-0.0790553
0.000149487
-0.0721646
0.000356645
-0.0665547
0.000651613
-0.0619878
0.00102954
-0.0582639
0.00148394
-0.0552165
0.00200745
-0.0527094
0.00259243
-0.0506327
0.00323127
-0.0488982
0.00391662
-0.0474349
0.00464155
-0.0461863
0.00539955
-0.0451073
0.00618467
-0.0441619
0.00699146
-0.0433215
0.00781501
-0.0425632
0.00865091
-0.041869
0.00949524
-0.0412246
0.0103446
-0.0406187
0.0111959
-0.0400423
0.0120466
-0.0394882
0.0128945
-0.0389509
0.0137377
-0.0384259
0.0145746
-0.0379093
0.0154039
-0.0373981
0.0162246
-0.0368894
0.0170356
-0.0363807
0.0178363
-0.0358692
0.0186257
-0.0353525
0.019403
-0.0348271
-0.0342895
0.0201672
3.68412e-05
-0.0790921
0.000161826
-0.0722896
0.000378729
-0.0667717
0.000685222
-0.0622943
0.00107589
-0.0586546
0.00154368
-0.0556843
0.00208076
-0.0532465
0.00267907
-0.051231
0.00333065
-0.0495498
0.00402787
-0.0481321
0.00476358
-0.046922
0.0055311
-0.0458749
0.00632434
-0.0449552
0.00713778
-0.0441349
0.00796644
-0.0433918
0.00880588
-0.0427084
0.0096522
-0.0420709
0.010502
-0.0414685
0.0113522
-0.0408925
0.0122004
-0.0403364
0.0130445
-0.039795
0.0138825
-0.0392639
0.0147131
-0.0387399
0.0155351
-0.0382201
0.0163475
-0.0377018
0.0171495
-0.0371827
0.0179404
-0.0366602
0.0187196
-0.0361317
0.0194865
-0.035594
-0.035043
0.0202401
4.03865e-05
-0.0791325
0.000172765
-0.0724219
0.000399468
-0.0669984
0.000717434
-0.0626122
0.00112061
-0.0590578
0.00160139
-0.0561651
0.00215146
-0.0537965
0.00276236
-0.0518419
0.00342581
-0.0502132
0.00413392
-0.0488402
0.00487932
-0.0476674
0.00565517
-0.0466507
0.00645528
-0.0457553
0.00727404
-0.0449536
0.00810642
-0.0442242
0.00894798
-0.04355
0.00979482
-0.0429178
0.0106436
-0.0423172
0.0114913
-0.0417402
0.0123355
-0.0411807
0.0131742
-0.0406337
0.0140057
-0.0400954
0.0148286
-0.0395628
0.0156419
-0.0390333
0.0164447
-0.0385046
0.0172364
-0.0379743
0.0180164
-0.0374402
0.0187843
-0.0368996
0.0195395
-0.0363492
-0.035785
0.0202815
4.35091e-05
-0.079176
0.00018295
-0.0725614
0.000419245
-0.0672346
0.000748426
-0.0629414
0.00116374
-0.0594731
0.00165699
-0.0566583
0.0022194
-0.054359
0.00284212
-0.0524647
0.00351654
-0.0508876
0.00423452
-0.0495582
0.00498849
-0.0484214
0.00577149
-0.0474337
0.00657719
-0.046561
0.00739992
-0.0457764
0.00823465
-0.0450589
0.00907692
-0.0443923
0.00992285
-0.0437637
0.0107691
-0.0431635
0.0116129
-0.042584
0.0124517
-0.0420196
0.0132838
-0.0414657
0.0141073
-0.040919
0.0149212
-0.0403767
0.0157245
-0.0398366
0.0165165
-0.0392966
0.0172967
-0.0387545
0.0180647
-0.0382082
0.0188202
-0.0376551
0.0195629
-0.0370919
-0.0365145
0.0202924
4.64162e-05
-0.0792224
0.000192639
-0.0727076
0.00043824
-0.0674802
0.000778281
-0.0632814
0.00120527
-0.0599001
0.00171042
-0.0571635
0.00228447
-0.054933
0.00291818
-0.0530984
0.00360263
-0.0515721
0.00432945
-0.050285
0.00509086
-0.0491828
0.00587978
-0.0482226
0.00668979
-0.047371
0.00751518
-0.0466018
0.00835088
-0.0458946
0.00919247
-0.0452338
0.0100361
-0.0446073
0.0108785
-0.0440059
0.0117169
-0.0434224
0.012549
-0.0428517
0.013373
-0.0422897
0.0141874
-0.0417334
0.014991
-0.0411804
0.0157832
-0.0406288
0.0165633
-0.0400766
0.0173309
-0.0395221
0.0180859
-0.0389632
0.0188281
-0.0383973
0.0195574
-0.0378213
-0.0372307
0.0202736
4.91915e-05
-0.0792716
0.000201948
-0.0728604
0.000456534
-0.0677348
0.000807032
-0.0636319
0.00124519
-0.0603382
0.00176161
-0.0576799
0.00234655
-0.0555179
0.00299039
-0.0537422
0.00368392
-0.0522656
0.0044185
-0.0510196
0.00518621
-0.0499505
0.00597983
-0.0490162
0.00679288
-0.048184
0.0076196
-0.0474285
0.00845492
-0.04673
0.00929446
-0.0460734
0.0101344
-0.0454473
0.0109716
-0.044843
0.0118033
-0.0442541
0.0126274
-0.0436757
0.0134421
-0.0431044
0.014246
-0.0425374
0.0150383
-0.0419727
0.0158182
-0.0414087
0.0165853
-0.0408438
0.0173395
-0.0402763
0.0180806
-0.0397043
0.0188088
-0.0391255
0.0195239
-0.0385364
-0.0379329
0.0202261
5.18668e-05
-0.0793235
0.000210927
-0.0730194
0.000474166
-0.0679981
0.000834682
-0.0639925
0.00128345
-0.060787
0.00181048
-0.0582069
0.00240555
-0.056113
0.00305863
-0.0543953
0.00376023
-0.0529672
0.00450151
-0.0517609
0.00527436
-0.0507234
0.00607146
-0.0498133
0.00688627
-0.0489989
0.00771301
-0.0482552
0.00854664
-0.0475636
0.00938278
-0.0469095
0.0102177
-0.0462822
0.0110484
-0.0456737
0.0118721
-0.0450779
0.0126869
-0.0444905
0.0134911
-0.0439086
0.0142836
-0.0433298
0.0150634
-0.0427525
0.01583
-0.0421753
0.0165833
-0.041597
0.0173231
-0.0410161
0.0180496
-0.0404308
0.0187629
-0.0398388
0.0194633
-0.0392369
-0.0386205
0.020151
5.4458e-05
-0.0793779
0.000219595
-0.0731846
0.000491141
-0.0682696
0.000861216
-0.0643625
0.00132003
-0.0612458
0.00185698
-0.0587439
0.00246135
-0.0567174
0.00312278
-0.0550567
0.00383146
-0.0536759
0.00457833
-0.0525078
0.00535516
-0.0515002
0.00615452
-0.0506127
0.00696983
-0.0498142
0.00779531
-0.0490807
0.00862594
-0.0483942
0.0094574
-0.047741
0.0102861
-0.0471109
0.0111089
-0.0464965
0.0119235
-0.0458924
0.0127278
-0.0452949
0.0135204
-0.0447012
0.0143003
-0.0441096
0.0150666
-0.0435189
0.0158192
-0.0429279
0.0165577
-0.0423356
0.0172824
-0.0417408
0.0179935
-0.0411419
0.0186915
-0.0405367
0.0193766
-0.039922
-0.0392932
0.0200492
5.69677e-05
-0.0794349
0.000227958
-0.0733555
0.000507456
-0.0685491
0.000886613
-0.0647417
0.00135487
-0.0617141
0.00190103
-0.05929
0.0025139
-0.0573303
0.00318274
-0.0557256
0.00389748
-0.0543906
0.00464886
-0.0532592
0.0054285
-0.0522798
0.00622892
-0.0514131
0.00704349
-0.0506287
0.00786645
-0.0499037
0.0086928
-0.0492206
0.00951833
-0.0485665
0.0103395
-0.0479321
0.0111533
-0.0473104
0.0119575
-0.0466966
0.0127503
-0.0460876
0.0135303
-0.0454812
0.0142966
-0.0448759
0.0150486
-0.0442709
0.0157861
-0.0436654
0.0165092
-0.0430587
0.0172181
-0.0424497
0.0179133
-0.0418371
0.0185953
-0.0412187
0.0192647
-0.0405913
-0.0399504
0.0199219
5.93974e-05
-0.0794943
0.000236012
-0.0735322
0.0005231
-0.0688362
0.000910849
-0.0651294
0.00138794
-0.0621912
0.00194258
-0.0598447
0.00256312
-0.0579508
0.00323844
-0.0564009
0.00395822
-0.0551104
0.00471301
-0.054014
0.00549432
-0.0530611
0.00629459
-0.0522134
0.0071072
-0.0514414
0.0079264
-0.0507229
0.00874726
-0.0500414
0.00956564
-0.0493849
0.0103781
-0.0487445
0.0111818
-0.0481141
0.0119746
-0.0474894
0.0127547
-0.0468678
0.0135211
-0.0462476
0.0142729
-0.0456277
0.0150097
-0.0450077
0.0157315
-0.0443872
0.0164384
-0.0437656
0.017131
-0.0431423
0.0178097
-0.0425159
0.0184753
-0.0418844
0.0191286
-0.0412446
-0.0405921
0.0197702
6.17458e-05
-0.079556
0.000243751
-0.0737142
0.000538058
-0.0691305
0.000933901
-0.0655253
0.00141921
-0.0626765
0.0019816
-0.060407
0.00260895
-0.0585781
0.00328982
-0.0570817
0.00401362
-0.0558342
0.00477073
-0.0547711
0.00555257
-0.053843
0.00635152
-0.0530124
0.00716098
-0.0522508
0.00797522
-0.0515371
0.0087894
-0.0508556
0.00959946
-0.050195
0.0104021
-0.0495471
0.0111946
-0.0489066
0.0119749
-0.0482697
0.0127415
-0.0476344
0.0134933
-0.0469994
0.0142298
-0.0463642
0.0149506
-0.0457286
0.015656
-0.0450925
0.0163462
-0.0444558
0.0170218
-0.0438179
0.0176836
-0.0431777
0.0183325
-0.0425333
0.0189694
-0.0418815
-0.0412178
0.0195952
6.40089e-05
-0.0796201
0.000251168
-0.0739013
0.000552317
-0.0694317
0.000955749
-0.0659287
0.00144865
-0.0631694
0.00201805
-0.0609764
0.00265137
-0.0592115
0.00333685
-0.0577672
0.00406365
-0.056561
0.00482201
-0.0555294
0.00560324
-0.0546242
0.00639973
-0.0538088
0.00720486
-0.0530559
0.00801298
-0.0523452
0.00881934
-0.051662
0.00961996
-0.0509956
0.0104117
-0.0503388
0.0111919
-0.0496868
0.0119588
-0.0490366
0.0127109
-0.0483865
0.0134473
-0.0477359
0.0141677
-0.0470845
0.0148719
-0.0464328
0.0155602
-0.0457808
0.0162331
-0.0451287
0.0168913
-0.0444761
0.0175359
-0.0438222
0.0181677
-0.0431651
0.018788
-0.0425018
-0.0418275
0.0193977
6.61846e-05
-0.0796862
0.000258254
-0.0740934
0.000565865
-0.0697393
0.000976378
-0.0663392
0.00147624
-0.0636692
0.0020519
-0.0615521
0.00269036
-0.0598499
0.0033795
-0.0584564
0.0041083
-0.0572898
0.00486684
-0.056288
0.00564637
-0.0554038
0.00643927
-0.0546017
0.00723895
-0.0538556
0.00803983
-0.0531461
0.00883726
-0.0524594
0.0096274
-0.0517857
0.0104072
-0.0511186
0.0111742
-0.0504538
0.0119267
-0.0497891
0.0126635
-0.0491233
0.0133838
-0.0484562
0.0140874
-0.0477881
0.0147742
-0.0471196
0.0154449
-0.0464514
0.0160999
-0.0457837
0.0167404
-0.0451166
0.0173673
-0.0444491
0.0179818
-0.0437797
0.0185853
-0.0431052
-0.0424211
0.0191788
6.82686e-05
-0.0797545
0.000265002
-0.0742901
0.000578694
-0.070053
0.00099578
-0.0667563
0.00150198
-0.0641754
0.00208316
-0.0621333
0.0027259
-0.0604927
0.00341779
-0.0591483
0.00414759
-0.0580196
0.00490526
-0.0570456
0.00568202
-0.0561805
0.00647023
-0.0553899
0.00726337
-0.0546488
0.00805595
-0.0539387
0.0088434
-0.0532468
0.00962204
-0.0525644
0.0103889
-0.0518855
0.0111419
-0.0512068
0.0118792
-0.0505264
0.0125998
-0.0498439
0.0133033
-0.0491596
0.0139893
-0.0484742
0.0146583
-0.0477886
0.0153107
-0.0471038
0.0159475
-0.0464205
0.0165698
-0.0457388
0.0171787
-0.045058
0.0177757
-0.0443767
0.0183621
-0.0436917
-0.0429984
0.0189394
7.02586e-05
-0.0798248
0.000271409
-0.0744913
0.000590801
-0.0703724
0.00101396
-0.0671795
0.00152586
-0.0646873
0.00211183
-0.0627192
0.00275803
-0.0611389
0.00345175
-0.059842
0.00418156
-0.0587494
0.00493735
-0.0578014
0.00571028
-0.0569534
0.00649275
-0.0561724
0.0072783
-0.0554343
0.00806154
-0.0547219
0.00883804
-0.0540233
0.00960423
-0.0533306
0.0103573
-0.0526386
0.0110953
-0.0519447
0.0118166
-0.0512478
0.0125205
-0.0505478
0.0132064
-0.0498455
0.0138743
-0.0491421
0.0145248
-0.0484391
0.0151586
-0.0477376
0.0157766
-0.0470386
0.0163802
-0.0463424
0.0169708
-0.0456487
0.01755
-0.0449558
0.0181193
-0.044261
-0.0435593
0.0186802
7.21501e-05
-0.0798969
0.000277471
-0.0746966
0.00060219
-0.0706971
0.00103092
-0.0676082
0.00154792
-0.0652043
0.00213795
-0.0633093
0.00278677
-0.0617877
0.00348141
-0.0605366
0.00421028
-0.0594783
0.00496318
-0.0585543
0.00573127
-0.0577215
0.00650698
-0.0569481
0.00728395
-0.0562113
0.00805688
-0.0554949
0.00882149
-0.0547879
0.00957435
-0.0540834
0.0103129
-0.0533771
0.0110351
-0.0526669
0.0117397
-0.0519524
0.012426
-0.0512341
0.0130938
-0.0505132
0.0137431
-0.0497915
0.0143745
-0.0490706
0.0149891
-0.0483521
0.0155879
-0.0476374
0.0161725
-0.046927
0.0167444
-0.0462206
0.0173055
-0.0455169
0.0178574
-0.0448129
-0.0441038
0.0184019
7.39398e-05
-0.0799709
0.000283189
-0.0749058
0.000612871
-0.0710268
0.00104669
-0.068042
0.00156817
-0.0657258
0.00216155
-0.0639027
0.00281218
-0.0624383
0.00350686
-0.0612313
0.00423384
-0.0602053
0.00498289
-0.0593034
0.00574516
-0.0584838
0.00651314
-0.0577161
0.00728057
-0.0569787
0.00804228
-0.0562566
0.00879412
-0.0555398
0.00953284
-0.0548221
0.010256
-0.0541002
0.0109617
-0.0533727
0.011649
-0.0526397
0.0123172
-0.0519023
0.0129662
-0.0511622
0.0135964
-0.0504216
0.0142083
-0.0496825
0.0148032
-0.048947
0.0153824
-0.0482166
0.0159475
-0.0474921
0.0165004
-0.0467735
0.017043
-0.0460595
0.0175773
-0.0453472
-0.0446316
0.0181051
7.56254e-05
-0.0800465
0.000288568
-0.0751188
0.000622868
-0.0713611
0.0010613
-0.0684804
0.00158668
-0.0662512
0.00218269
-0.0644987
0.00283433
-0.06309
0.00352817
-0.0619251
0.00425235
-0.0609294
0.0049966
-0.0600476
0.00575211
-0.0592393
0.00651145
-0.0584755
0.00726844
-0.0577357
0.00801808
-0.0570062
0.00875635
-0.0562781
0.00948016
-0.0555459
0.0101872
-0.0548073
0.0108759
-0.0540614
0.0115453
-0.053309
0.0121948
-0.0525518
0.0128246
-0.051792
0.013435
-0.051032
0.014027
-0.0502745
0.0146018
-0.0495217
0.0151608
-0.0487756
0.015706
-0.0480373
0.0162393
-0.0473069
0.0167631
-0.0465833
0.0172794
-0.0458635
-0.0451425
0.0177903
7.72024e-05
-0.0801237
0.000293622
-0.0753352
0.000632216
-0.0716997
0.00107482
-0.068923
0.00160351
-0.0667799
0.00220144
-0.0650966
0.00285329
-0.0637418
0.00354544
-0.0626173
0.00426593
-0.0616499
0.00500449
-0.0607862
0.00575234
-0.0599872
0.00650215
-0.0592253
0.00724788
-0.0584814
0.00798465
-0.057743
0.00870862
-0.057002
0.00941685
-0.0562542
0.0101072
-0.0554976
0.0107783
-0.0547325
0.0114292
-0.0539599
0.0120596
-0.0531823
0.0126697
-0.0524021
0.01326
-0.0516224
0.0138316
-0.0508461
0.0143857
-0.0500759
0.0149241
-0.049314
0.0154488
-0.048562
0.0159621
-0.0478201
0.0164664
-0.0470876
0.0169642
-0.0463613
-0.0456361
0.0174578
7.86697e-05
-0.0802023
0.000298376
-0.0755549
0.000640974
-0.0720423
0.00108732
-0.0693694
0.00161874
-0.0673113
0.0022179
-0.0656957
0.00286918
-0.0643931
0.00355879
-0.0633069
0.00427473
-0.0623659
0.00500672
-0.0615182
0.00574606
-0.0607265
0.00648553
-0.0599647
0.00721922
-0.0592151
0.00794241
-0.0584662
0.00865141
-0.057711
0.00934346
-0.0569462
0.0100166
-0.0561708
0.0106695
-0.0553854
0.0113016
-0.054592
0.0119125
-0.0537932
0.0125026
-0.0529922
0.0130725
-0.0521923
0.0136232
-0.0513968
0.0141563
-0.050609
0.0146735
-0.0498312
0.0151771
-0.0490656
0.0156696
-0.0483126
0.0161538
-0.0475717
0.0166323
-0.0468399
-0.0461117
0.0171079
8.00297e-05
-0.0802824
0.000302875
-0.0757778
0.000649229
-0.0723886
0.0010989
-0.0698191
0.00163248
-0.0678449
0.00223217
-0.0662954
0.0028821
-0.065043
0.00356835
-0.0639931
0.00427889
-0.0630764
0.00500348
-0.0622428
0.00573352
-0.0614565
0.00646189
-0.0606931
0.00718283
-0.0599361
0.00789178
-0.0591751
0.00858523
-0.0584045
0.00926059
-0.0576216
0.00991606
-0.0568262
0.0105505
-0.0560198
0.0111633
-0.0552048
0.0117545
-0.0543843
0.0123243
-0.053562
0.0128734
-0.0527414
0.0134031
-0.0519265
0.0139147
-0.0511206
0.0144103
-0.0503268
0.0148921
-0.0495474
0.015363
-0.0487835
0.015826
-0.0480347
0.0162844
-0.0472983
-0.0465684
0.016741
8.12993e-05
-0.0803637
0.000307202
-0.0760037
0.000657108
-0.0727385
0.0011097
-0.0702717
0.00164485
-0.06838
0.00224437
-0.066895
0.00289216
-0.0656908
0.00357423
-0.0646752
0.00427857
-0.0637808
0.00499497
-0.0629592
0.00571495
-0.0621765
0.00643151
-0.0614097
0.00713906
-0.0606436
0.0078332
-0.0598693
0.00851061
-0.0590819
0.00916886
-0.0582798
0.00980631
-0.0574637
0.010422
-0.0566355
0.0110154
-0.0557982
0.0115866
-0.0549555
0.012136
-0.0541113
0.0126643
-0.0532697
0.0131726
-0.0524348
0.0136625
-0.0516105
0.0141359
-0.0508002
0.0145952
-0.0500067
0.0150435
-0.0492318
0.0154843
-0.0484755
0.0159212
-0.0477352
-0.0470049
0.0163577
8.25207e-05
-0.0804462
0.000311499
-0.0762326
0.000664801
-0.0730918
0.0011199
-0.0707268
0.00165601
-0.0689162
0.00225461
-0.0674936
0.00289947
-0.0663357
0.00357657
-0.0653523
0.00427392
-0.0644781
0.00498138
-0.0636666
0.00569059
-0.0628857
0.0063947
-0.0621138
0.00708828
-0.0613372
0.00776712
-0.0605481
0.00842806
-0.0597428
0.00906888
-0.0589207
0.00968807
-0.0580829
0.0102848
-0.0572322
0.0108588
-0.0563722
0.01141
-0.0555068
0.011939
-0.0546403
0.0124465
-0.0537772
0.0129335
-0.0529219
0.0134015
-0.0520785
0.0138524
-0.0512511
0.0142886
-0.0504429
0.0147133
-0.0496565
0.0151303
-0.0488925
0.015544
-0.0481489
-0.0474194
0.0159586
8.38095e-05
-0.08053
0.000316017
-0.0764648
0.000672577
-0.0734484
0.00112972
-0.0711839
0.00166611
-0.0694525
0.00226301
-0.0680905
0.00290415
-0.0669768
0.00357549
-0.0660236
0.00426508
-0.0651677
0.0049629
-0.0643645
0.00566068
-0.0635835
0.00635176
-0.0628049
0.00703086
-0.0620163
0.00769397
-0.0612112
0.00833812
-0.060387
0.00896126
-0.0595438
0.00956207
-0.0586837
0.0101399
-0.05781
0.0106944
-0.0569267
0.0112258
-0.0560382
0.0117347
-0.0551491
0.0122216
-0.0542641
0.0126876
-0.0533879
0.0131339
-0.0525248
0.0135623
-0.0516794
0.0139749
-0.0508556
0.014375
-0.0500566
0.0147666
-0.0492841
0.0151549
-0.0485372
-0.0478096
0.0155451
8.54216e-05
-0.0806154
0.000321176
-0.0767006
0.000680803
-0.073808
0.00113939
-0.0716425
0.00167528
-0.0699884
0.00226967
-0.0686848
0.00290627
-0.0676134
0.00357107
-0.0666884
0.00425218
-0.0658488
0.00493968
-0.065052
0.00562543
-0.0642692
0.00630294
-0.0634824
0.00696712
-0.0626805
0.00761414
-0.0618582
0.00824125
-0.0610141
0.00884658
-0.0601491
0.00942898
-0.0592661
0.00998789
-0.0583689
0.0105232
-0.057462
0.0110352
-0.0565502
0.0115244
-0.0556383
0.0119913
-0.0547311
0.012437
-0.0538335
0.0128622
-0.0529501
0.0132685
-0.0520857
0.0136577
-0.0512447
0.0140325
-0.0504314
0.0143971
-0.0496488
0.0147574
-0.0488975
-0.0481722
0.0151201
8.78554e-05
-0.0807033
0.000327603
-0.0769403
0.000689927
-0.0741703
0.00114918
-0.0721017
0.00168366
-0.0705229
0.00227465
-0.0692758
0.00290589
-0.0682447
0.00356339
-0.0673459
0.00423533
-0.0665207
0.00491187
-0.0657285
0.00558503
-0.0649424
0.00624849
-0.0641458
0.00689735
-0.0633293
0.007528
-0.0624889
0.00813789
-0.061624
0.00872533
-0.0607366
0.00928938
-0.0598302
0.00982964
-0.0589092
0.0103461
-0.0579785
0.0108392
-0.0570433
0.0113094
-0.0561085
0.0117573
-0.055179
0.0121837
-0.0542598
0.0125892
-0.0533556
0.0129747
-0.0524712
0.0133414
-0.0516114
0.0136913
-0.0507812
0.0140279
-0.0499854
0.0143574
-0.049227
-0.0485034
0.0146887
9.2039e-05
-0.0807953
0.000336271
-0.0771846
0.000700512
-0.0745346
0.00115929
-0.0725605
0.0016913
-0.0710549
0.00227796
-0.0698625
0.00290302
-0.0688697
0.00355249
-0.0679954
0.00421459
-0.0671828
0.00487958
-0.0663935
0.00553964
-0.0656025
0.00618861
-0.0647948
0.00682181
-0.0639625
0.00743585
-0.0631029
0.00802838
-0.0622165
0.00859793
-0.0613061
0.00914376
-0.060376
0.00966565
-0.0594311
0.0101638
-0.0584767
0.0106386
-0.0575181
0.0110907
-0.0565606
0.0115208
-0.0556091
0.0119295
-0.0546685
0.0123172
-0.0537434
0.0126844
-0.0528384
0.0130312
-0.0519583
0.0133584
-0.0511084
0.0136675
-0.0502945
0.0139638
-0.0495233
-0.048799
0.0142593
0.000100421
-0.0808957
0.000349176
-0.0774333
0.000713373
-0.0748988
0.0011699
-0.073017
0.00169814
-0.0715832
0.0022795
-0.0704438
0.00289758
-0.0694878
0.00353834
-0.0686362
0.00418999
-0.0678345
0.00484289
-0.0670464
0.00548937
-0.0662489
0.00612345
-0.0654289
0.00674069
-0.0645798
0.0073379
-0.0637001
0.00791297
-0.0627916
0.00846467
-0.0618578
0.00899243
-0.0609038
0.00949625
-0.0599349
0.0099765
-0.0589569
0.0104338
-0.0579754
0.0108689
-0.0569957
0.0112827
-0.0560229
0.0116757
-0.0550616
0.0120485
-0.0541162
0.012401
-0.0531909
0.0127328
-0.0522901
0.0130427
-0.0514182
0.0133285
-0.0505804
0.0135909
-0.0497857
-0.0490557
0.0138476
0.00012078
-0.0810165
0.000369291
-0.0776818
0.000728793
-0.0752583
0.00118061
-0.0734689
0.00170378
-0.0721063
0.00227898
-0.0710191
0.00288943
-0.0700982
0.00352088
-0.0692676
0.00416153
-0.0684751
0.00480185
-0.0676867
0.0054343
-0.0668814
0.00605314
-0.0660477
0.00665412
-0.0651808
0.00723432
-0.0642803
0.00779185
-0.0633491
0.00832569
-0.0623917
0.00883553
-0.0614136
0.00932155
-0.0604209
0.00978435
-0.0594197
0.0102248
-0.0584158
0.0106439
-0.0574148
0.0110427
-0.0564217
0.0114223
-0.0554412
0.0117836
-0.0544775
0.0121272
-0.0535345
0.0124531
-0.052616
0.0127597
-0.0517248
0.0130403
-0.050861
0.0132809
-0.0500263
-0.0492534
0.0134786
0.0834874
9.03477e-05
-0.0835777
0.0834073
8.01021e-05
0.0833302
7.70582e-05
0.0832536
7.65862e-05
0.0831764
7.72056e-05
0.0830981
7.83418e-05
0.0830184
7.96764e-05
0.0829374
8.10437e-05
0.082855
8.23622e-05
0.0827714
8.36009e-05
0.0826866
8.47463e-05
0.0826009
8.5795e-05
0.0825141
8.6748e-05
0.0824265
8.76032e-05
0.0823381
8.83613e-05
0.0822491
8.90215e-05
0.0821595
8.95844e-05
0.0820695
9.00492e-05
0.0819791
9.04131e-05
0.0818884
9.06754e-05
0.0817976
9.08315e-05
0.0817067
9.08753e-05
0.0816159
9.07937e-05
0.0815253
9.05688e-05
0.0814352
9.01619e-05
0.0813457
8.94998e-05
0.0812572
8.84227e-05
0.0811707
8.65587e-05
0.0810879
8.27384e-05
7.14173e-05
0.0839186
0.00025812
-0.0840864
0.0837445
0.00025415
0.0835671
0.000254458
0.0833864
0.000257281
0.0832022
0.000261423
0.0830143
0.000266303
0.0828224
0.000271532
0.0826266
0.000276845
0.0824269
0.000282074
0.0822234
0.000287122
0.0820162
0.000291936
0.0818055
0.000296483
0.0815915
0.000300742
0.0813744
0.000304698
0.0811544
0.000308341
0.0809318
0.000311663
0.0807067
0.000314658
0.0804794
0.000317321
0.0802502
0.000319641
0.0800193
0.000321614
0.0797869
0.000323224
0.0795533
0.000324457
0.0793188
0.000325283
0.0790837
0.000325657
0.0788484
0.000325507
0.0786132
0.000324701
0.0783786
0.000322999
0.0781452
0.000319919
0.0779136
0.000314361
0.000303181
0.0842154
0.000471988
-0.0844292
0.0839894
0.000480131
0.0837541
0.00048972
0.0835108
0.000500582
0.08326
0.00051222
0.083002
0.000524302
0.082737
0.000536558
0.0824651
0.000548757
0.0821864
0.000560722
0.0819012
0.000572328
0.0816097
0.000583495
0.081312
0.000594163
0.0810084
0.000604286
0.0806993
0.000613832
0.0803849
0.000622773
0.0800655
0.000631091
0.0797413
0.000638765
0.0794129
0.000645784
0.0790804
0.000652127
0.0787442
0.000657779
0.0784047
0.000662718
0.0780623
0.000666914
0.0777172
0.000670329
0.07737
0.000672904
0.0770209
0.000674551
0.0766705
0.000675133
0.0763191
0.000674429
0.0759669
0.000672065
0.0756139
0.000667358
0.000658861
0.0842795
0.000707799
-0.0845153
0.0840294
0.000730301
0.0837663
0.000752789
0.0834914
0.000775471
0.0832054
0.000798232
0.0829088
0.00082093
0.0826019
0.000843413
0.0822851
0.000865525
0.0819587
0.000887119
0.081623
0.000908078
0.0812782
0.000928314
0.0809246
0.000947759
0.0805625
0.000966349
0.0801923
0.000984035
0.0798143
0.00100078
0.0794289
0.00101654
0.0790363
0.00103129
0.0786371
0.00104501
0.0782316
0.00105767
0.0778201
0.00106923
0.0774032
0.00107967
0.0769811
0.00108894
0.0765545
0.00109701
0.0761235
0.00110381
0.0756888
0.00110925
0.0752508
0.00111321
0.0748097
0.00111552
0.0743658
0.00111592
0.0739192
0.00111402
0.00110916
0.0840699
0.000946065
-0.0843082
0.0838156
0.000984606
0.083546
0.00102242
0.0832617
0.0010597
0.0829635
0.00109647
0.0826518
0.00113266
0.082327
0.0011682
0.0819895
0.00120298
0.0816398
0.00123688
0.081278
0.00126981
0.0809047
0.00130169
0.08052
0.00133243
0.0801244
0.00136198
0.0797181
0.00139027
0.0793017
0.00141724
0.0788754
0.00144285
0.0784396
0.00146706
0.0779948
0.00148983
0.0775413
0.00151112
0.0770797
0.00153089
0.0766102
0.0015491
0.0761335
0.00156569
0.0756499
0.00158063
0.0751598
0.00159385
0.0746638
0.00160525
0.0741623
0.00161476
0.0736556
0.00162223
0.073144
0.0016275
0.0726276
0.00163035
0.00163047
0.0835802
0.00117278
-0.0838069
0.083336
0.0012288
0.0830747
0.00128371
0.0827968
0.00133762
0.0825027
0.00139057
0.0821928
0.00144252
0.0818676
0.0014934
0.0815274
0.00154315
0.0811726
0.00159166
0.0808036
0.00163885
0.0804207
0.00168463
0.0800242
0.00172894
0.0796144
0.00177169
0.0791919
0.00181282
0.0787569
0.00185226
0.0783098
0.00188995
0.077851
0.00192585
0.0773809
0.0019599
0.0769
0.00199204
0.0764087
0.00202223
0.0759074
0.00205041
0.0753965
0.00207654
0.0748766
0.00210054
0.0743481
0.00212237
0.0738114
0.00214194
0.073267
0.00215917
0.0727153
0.00217396
0.0721565
0.00218621
0.0715911
0.00219579
0.00220252
0.0828277
0.00137868
-0.0830336
0.0826032
0.00145333
0.0823603
0.00152663
0.0820993
0.00159864
0.0818205
0.00166936
0.0815242
0.00173875
0.0812109
0.00180674
0.0808808
0.00187326
0.0805342
0.00193821
0.0801716
0.00200153
0.0797931
0.00206311
0.0793991
0.00212288
0.0789901
0.00218076
0.0785662
0.00223667
0.0781279
0.00229053
0.0776756
0.00234228
0.0772096
0.00239184
0.0767304
0.00243916
0.0762382
0.00248417
0.0757336
0.00252681
0.075217
0.00256702
0.0746888
0.00260473
0.0741495
0.00263988
0.0735994
0.00267241
0.0730392
0.00270223
0.0724691
0.00272928
0.0718896
0.00275347
0.071301
0.00277473
0.0707038
0.00279298
0.00280811
0.0818439
0.00155826
-0.0820235
0.0816449
0.00165234
0.0814265
0.00174495
0.0811891
0.00183607
0.0809328
0.00192566
0.0806579
0.00201368
0.0803645
0.00210006
0.0800531
0.00218468
0.0797239
0.00226748
0.079377
0.00234835
0.0790129
0.00242722
0.0786318
0.00250397
0.0782341
0.00257853
0.0778199
0.0026508
0.0773898
0.00272071
0.0769439
0.00278816
0.0764826
0.00285308
0.0760064
0.00291539
0.0755156
0.00297501
0.0750105
0.00303188
0.0744916
0.00308592
0.0739593
0.00313705
0.073414
0.00318521
0.0728561
0.00323031
0.072286
0.0032723
0.0717042
0.00331108
0.0711111
0.0033466
0.070507
0.00337879
0.0698924
0.00340758
0.00343288
0.0806666
0.00170888
-0.0808173
0.0804961
0.0018229
0.0803057
0.00193536
0.0800955
0.00204622
0.0798658
0.0021554
0.0796166
0.00226284
0.0793483
0.00236843
0.0790609
0.00247209
0.0787546
0.0025737
0.0784298
0.00267317
0.0780866
0.0027704
0.0777253
0.00286527
0.0773462
0.00295768
0.0769494
0.00304755
0.0765354
0.00313476
0.0761043
0.00321923
0.0756565
0.00330086
0.0751924
0.00337956
0.0747121
0.00345524
0.0742162
0.00352782
0.0737049
0.00359721
0.0731786
0.00366333
0.0726377
0.0037261
0.0720826
0.00378543
0.0715136
0.00384125
0.0709312
0.00389348
0.0703358
0.00394204
0.0697277
0.00398688
0.0691074
0.00402794
0.0040651
0.0793359
0.00183003
-0.079457
0.0791946
0.00196419
0.0790332
0.00209677
0.0788517
0.00222768
0.0786503
0.00235682
0.0784291
0.0024841
0.0781881
0.00260943
0.0779275
0.00273267
0.0776475
0.00285371
0.0773482
0.00297244
0.0770298
0.00308875
0.0766926
0.00320251
0.0763367
0.00331361
0.0759623
0.00342194
0.0755697
0.00352739
0.075159
0.00362985
0.0747307
0.00372922
0.0742849
0.00382538
0.0738218
0.00391825
0.0733419
0.00400772
0.0728455
0.0040937
0.0723327
0.00417608
0.071804
0.00425478
0.0712598
0.0043297
0.0707003
0.00440076
0.0701259
0.00446787
0.0695369
0.00453097
0.0689339
0.00458996
0.068317
0.0046448
0.00469538
0.0778902
0.00192268
-0.0779829
0.0777774
0.00207697
0.0776445
0.00222968
0.0774915
0.00238069
0.0773184
0.00252989
0.0771254
0.00267718
0.0769124
0.00282243
0.0766795
0.00296551
0.076427
0.00310629
0.0761548
0.00324463
0.0758631
0.00338042
0.0755521
0.00351352
0.0752219
0.00364381
0.0748727
0.00377117
0.0745046
0.00389547
0.0741179
0.00401658
0.0737127
0.0041344
0.0732892
0.0042488
0.0728478
0.00435968
0.0723886
0.00446691
0.0719119
0.00457039
0.071418
0.00467002
0.0709071
0.00476568
0.0703795
0.00485727
0.0698356
0.00494471
0.0692756
0.00502788
0.0686998
0.00510672
0.0681087
0.00518114
0.0675024
0.00525106
0.00531637
0.076365
0.00198884
-0.0764311
0.0762789
0.00216304
0.0761729
0.00233569
0.0760469
0.00250665
0.075901
0.0026758
0.0757352
0.00284301
0.0755495
0.00300815
0.0753439
0.00317108
0.0751185
0.00333163
0.0748735
0.00348968
0.0746088
0.00364509
0.0743246
0.00379772
0.074021
0.00394744
0.0736981
0.0040941
0.073356
0.00423757
0.0729948
0.00437772
0.0726148
0.00451442
0.0722161
0.00464753
0.0717988
0.00477695
0.0713632
0.00490253
0.0709094
0.00502416
0.0704377
0.00514172
0.0699483
0.00525509
0.0694414
0.00536416
0.0689173
0.00546882
0.0683762
0.00556897
0.0678184
0.00566451
0.0672442
0.00575535
0.0666539
0.00584141
0.00592256
0.0747913
0.00203111
-0.0748336
0.0747295
0.00222486
0.074648
0.00241712
0.074547
0.00260772
0.0744262
0.00279654
0.0742858
0.00298342
0.0741257
0.00316823
0.073946
0.0033508
0.0737467
0.00353098
0.0735277
0.00370862
0.0732892
0.00388357
0.0730313
0.00405569
0.0727539
0.00422482
0.0724572
0.00439083
0.0721412
0.00455356
0.071806
0.00471287
0.0714518
0.00486863
0.0710787
0.00502068
0.0706867
0.00516891
0.0702761
0.00531317
0.0698469
0.00545332
0.0693994
0.00558925
0.0689336
0.00572082
0.0684499
0.0058479
0.0679483
0.00597038
0.0674291
0.00608814
0.0668926
0.00620108
0.0663388
0.00630909
0.0657681
0.00641209
0.00650994
0.0731958
0.00205242
-0.0732171
0.0731553
0.00226528
0.0730958
0.0024767
0.073017
0.00268653
0.0729189
0.0028946
0.0728015
0.00310077
0.0726649
0.00330487
0.0725089
0.00350676
0.0723337
0.00370625
0.0721391
0.00390319
0.0719252
0.00409743
0.0716921
0.00428881
0.0714398
0.00447718
0.0711682
0.00466237
0.0708775
0.00484424
0.0705678
0.00502264
0.070239
0.00519741
0.0698913
0.00536842
0.0695247
0.0055355
0.0691393
0.00569854
0.0687353
0.00585737
0.0683127
0.00601185
0.0678716
0.00616186
0.0674123
0.00630726
0.0669347
0.0064479
0.0664392
0.00658368
0.0659258
0.00671446
0.0653948
0.00684015
0.0648462
0.00696064
0.00707581
0.0716002
0.0020558
-0.0716036
0.0715782
0.00228725
0.0715376
0.00251733
0.0714782
0.00274588
0.0714001
0.00297272
0.0713032
0.0031977
0.0711874
0.00342064
0.0710528
0.00364138
0.0708993
0.00385976
0.0707269
0.0040756
0.0705356
0.00428874
0.0703254
0.00449901
0.0700963
0.00470627
0.0698483
0.00491034
0.0695815
0.00511107
0.0692958
0.00530831
0.0689913
0.00550188
0.0686681
0.00569166
0.0683261
0.00587747
0.0679655
0.00605918
0.0675862
0.00623663
0.0671884
0.00640967
0.0667721
0.00657816
0.0663374
0.00674194
0.0658844
0.00690089
0.0654133
0.00705485
0.064924
0.00720371
0.0644168
0.00734734
0.0638918
0.00748565
0.00761852
0.0700221
0.00204423
-0.0700106
0.0700157
0.00229373
0.0699911
0.00254193
0.0699483
0.00278864
0.0698873
0.00303371
0.0698081
0.00327696
0.0697105
0.00351821
0.0695946