/*--------------------------------*- C++ -*----------------------------------*\
  =========                 |
  \\      /  F ield         | OpenFOAM: The Open Source CFD Toolbox
   \\    /   O peration     | Website:  https://openfoam.org
    \\  /    A nd           | Version:  6.0
     \\/     M anipulation  |
\*---------------------------------------------------------------------------*/
FoamFile
{
    version     2.0;
    format      ascii;
    class       volScalarField;
    location    "1";
    object      p;
}
// * * * * * * * * * * * * * * * * * * * * * * * * * * * * * * * * * * * * * //

dimensions      [0 2 -2 0 0 0 0];

internalField   nonuniform List<scalar> 
19200
(
-21.9208
-18.3299
-15.7498
-13.6882
-11.8736
-10.3001
-8.94487
-7.77567
-6.7662
-5.89468
-5.14218
-4.4923
-3.93085
-3.44556
-3.02584
-2.66257
-2.34787
-2.07498
-1.83809
-1.63221
-1.45305
-1.29696
-1.16078
-1.04182
-0.937751
-0.846602
-0.766657
-0.696283
-0.634086
-0.580613
-21.9291
-18.3475
-15.7708
-13.7098
-11.8949
-10.3208
-8.96497
-7.79506
-6.78491
-5.91277
-5.15973
-4.50936
-3.94748
-3.46179
-3.0417
-2.67805
-2.36297
-2.08969
-1.85238
-1.64605
-1.46643
-1.30983
-1.17313
-1.05361
-0.948969
-0.857237
-0.776702
-0.705697
-0.642803
-0.588978
-21.9454
-18.3672
-15.7928
-13.7324
-11.9173
-10.3426
-8.9861
-7.81548
-6.80465
-5.93191
-5.17833
-4.52749
-3.96519
-3.47912
-3.05867
-2.69467
-2.37923
-2.10557
-1.86786
-1.66111
-1.48102
-1.32394
-1.18672
-1.06667
-0.961466
-0.869161
-0.788045
-0.716418
-0.652841
-0.598678
-21.9666
-18.3896
-15.8163
-13.7561
-11.9407
-10.3655
-9.0082
-7.83687
-6.82538
-5.95203
-5.19793
-4.54665
-3.98395
-3.49753
-3.07673
-2.7124
-2.39662
-2.1226
-1.88451
-1.67735
-1.49682
-1.33927
-1.20155
-1.08097
-0.975219
-0.882352
-0.800664
-0.728424
-0.664175
-0.60969
-21.9912
-18.4144
-15.8415
-13.7811
-11.9653
-10.3893
-9.03131
-7.85924
-6.84708
-5.97315
-5.21854
-4.56682
-4.00374
-3.51698
-3.09587
-2.73123
-2.41513
-2.14077
-1.90232
-1.69477
-1.51382
-1.35582
-1.21761
-1.09652
-0.990234
-0.896817
-0.814567
-0.741723
-0.67681
-0.622016
-22.0184
-18.4413
-15.8682
-13.8075
-11.991
-10.4142
-9.05542
-7.88259
-6.86974
-5.99522
-5.24011
-4.58797
-4.02454
-3.53745
-3.11605
-2.75112
-2.43472
-2.16006
-1.92127
-1.71334
-1.53199
-1.37355
-1.23488
-1.11329
-1.00649
-0.912535
-0.829735
-0.756295
-0.690729
-0.635638
-22.0476
-18.4701
-15.8966
-13.8352
-12.0178
-10.4402
-9.08051
-7.90687
-6.89333
-6.01821
-5.26261
-4.61007
-4.04629
-3.55891
-3.13723
-2.77204
-2.45537
-2.18041
-1.94131
-1.73303
-1.5513
-1.39245
-1.25333
-1.13126
-1.02395
-0.929474
-0.846135
-0.772108
-0.7059
-0.650526
-22.0785
-18.5005
-15.9263
-13.8641
-12.0458
-10.4672
-9.10654
-7.93206
-6.9178
-6.04208
-5.286
-4.63306
-4.06895
-3.5813
-3.15937
-2.79393
-2.47702
-2.20179
-1.96239
-1.7538
-1.57171
-1.41246
-1.27291
-1.15038
-1.04258
-0.947592
-0.863725
-0.789122
-0.722281
-0.66664
-22.111
-18.5323
-15.9573
-13.8942
-12.0748
-10.4951
-9.13346
-7.9581
-6.94309
-6.06677
-5.31021
-4.65688
-4.09247
-3.60456
-3.18241
-2.81675
-2.49961
-2.22415
-1.98448
-1.77558
-1.59315
-1.43353
-1.29357
-1.17059
-1.06232
-0.966836
-0.882454
-0.807285
-0.739824
-0.683931
-22.1449
-18.5655
-15.9895
-13.9253
-12.1047
-10.5239
-9.1612
-7.98493
-6.96916
-6.09223
-5.33518
-4.68149
-4.11679
-3.62863
-3.20628
-2.84042
-2.52309
-2.2474
-2.00749
-1.79831
-1.61557
-1.45559
-1.31524
-1.19184
-1.08311
-0.987147
-0.902263
-0.82654
-0.758471
-0.702342
-22.18
-18.5998
-16.0229
-13.9574
-12.1355
-10.5535
-9.18969
-8.01247
-6.99592
-6.11837
-5.36085
-4.7068
-4.14182
-3.65345
-3.23091
-2.86488
-2.54737
-2.27149
-2.03136
-1.82193
-1.6389
-1.47859
-1.33787
-1.21406
-1.10489
-1.00846
-0.923086
-0.846821
-0.778156
-0.721811
-22.2163
-18.6352
-16.0571
-13.9904
-12.1672
-10.5838
-9.21885
-8.04065
-7.0233
-6.14513
-5.38714
-4.73273
-4.16749
-3.67892
-3.25622
-2.89004
-2.57238
-2.29634
-2.05601
-1.84635
-1.66305
-1.50243
-1.36136
-1.23716
-1.12757
-1.03069
-0.94485
-0.868057
-0.79881
-0.742266
-22.2535
-18.6716
-16.0923
-14.0241
-12.1995
-10.6148
-9.2486
-8.06938
-7.05123
-6.17243
-5.41397
-4.75921
-4.19373
-3.70498
-3.28213
-2.91583
-2.59803
-2.32185
-2.08135
-1.87148
-1.68793
-1.52703
-1.38563
-1.26107
-1.15108
-1.05377
-0.967473
-0.890168
-0.820351
-0.763629
-22.2917
-18.7088
-16.1282
-14.0586
-12.2324
-10.6463
-9.27884
-8.09858
-7.0796
-6.20017
-5.44124
-4.78615
-4.22043
-3.73152
-3.30855
-2.94214
-2.62424
-2.34793
-2.10728
-1.89723
-1.71347
-1.5523
-1.4106
-1.28569
-1.17532
-1.0776
-0.990867
-0.913066
-0.842695
-0.785815
-22.3306
-18.7468
-16.1649
-14.0937
-12.2659
-10.6782
-9.30949
-8.12816
-7.10833
-6.22826
-5.46887
-4.81346
-4.24752
-3.75846
-3.33538
-2.96888
-2.6509
-2.37449
-2.13371
-1.9235
-1.73954
-1.57813
-1.43615
-1.31092
-1.20019
-1.10208
-1.01493
-0.936655
-0.865747
-0.808732
-22.3703
-18.7854
-16.2021
-14.1292
-12.2997
-10.7105
-9.34045
-8.15801
-7.13732
-6.25661
-5.49676
-4.84103
-4.27488
-3.78569
-3.36252
-2.99596
-2.67791
-2.40141
-2.16053
-1.95019
-1.76605
-1.60442
-1.46218
-1.33666
-1.22559
-1.12711
-1.03957
-0.960832
-0.889403
-0.832278
-22.4105
-18.8246
-16.2398
-14.1652
-12.3339
-10.7431
-9.37162
-8.18805
-7.16648
-6.28512
-5.52481
-4.86878
-4.30243
-3.81311
-3.38987
-3.02326
-2.70516
-2.4286
-2.18763
-1.97717
-1.79287
-1.63106
-1.48858
-1.36278
-1.25139
-1.15258
-1.06466
-0.985482
-0.913551
-0.856343
-22.4514
-18.8644
-16.2779
-14.2014
-12.3683
-10.7758
-9.4029
-8.21817
-7.19571
-6.31369
-5.55292
-4.89659
-4.33005
-3.84063
-3.41732
-3.05067
-2.73254
-2.45593
-2.2149
-2.00433
-1.8199
-1.65791
-1.51522
-1.38916
-1.27748
-1.17834
-1.09007
-1.01048
-0.938068
-0.880808
-22.4928
-18.9046
-16.3164
-14.2379
-12.4029
-10.8086
-9.4342
-8.24828
-7.22491
-6.34223
-5.581
-4.92437
-4.35765
-3.86813
-3.44477
-3.07809
-2.75993
-2.4833
-2.24221
-2.03156
-1.847
-1.68485
-1.54196
-1.41566
-1.30372
-1.20427
-1.11568
-1.03569
-0.962817
-0.905535
-22.5347
-18.9452
-16.3551
-14.2746
-12.4375
-10.8413
-9.4654
-8.27826
-7.25397
-6.37062
-5.60894
-4.95201
-4.38513
-3.89551
-3.47211
-3.10541
-2.78724
-2.51058
-2.26944
-2.05871
-1.87404
-1.71174
-1.56867
-1.44215
-1.32995
-1.23022
-1.14132
-1.06096
-0.987642
-0.930369
-22.5771
-18.9861
-16.3941
-14.3113
-12.472
-10.8739
-9.49642
-8.30803
-7.2828
-6.39878
-5.63664
-4.97943
-4.41238
-3.92268
-3.49924
-3.13253
-2.81434
-2.53765
-2.29647
-2.08567
-1.90089
-1.73845
-1.5952
-1.46846
-1.35601
-1.25601
-1.16682
-1.08611
-1.01236
-0.955129
-22.6202
-19.0275
-16.4332
-14.348
-12.5064
-10.9063
-9.52714
-8.33747
-7.31129
-6.4266
-5.66402
-5.00653
-4.43932
-3.94953
-3.52606
-3.15934
-2.84114
-2.56442
-2.32319
-2.1123
-1.92742
-1.76483
-1.62139
-1.49444
-1.38174
-1.28148
-1.19199
-1.11094
-1.03677
-0.979594
-22.664
-19.0692
-16.4724
-14.3846
-12.5405
-10.9383
-9.55744
-8.36647
-7.33934
-6.45398
-5.69096
-5.03321
-4.46585
-3.97599
-3.55249
-3.18575
-2.86753
-2.59078
-2.34949
-2.13851
-1.9535
-1.79074
-1.64711
-1.51992
-1.40696
-1.30641
-1.21663
-1.13523
-1.06061
-1.0035
-22.709
-19.1114
-16.5117
-14.4209
-12.5742
-10.9698
-9.5872
-8.39492
-7.36684
-6.48083
-5.71739
-5.05938
-4.49189
-4.00197
-3.57844
-3.21169
-2.89345
-2.61665
-2.37528
-2.16419
-1.97902
-1.81607
-1.6722
-1.54475
-1.43148
-1.3306
-1.2405
-1.1587
-1.08359
-1.02654
-22.7553
-19.154
-16.5509
-14.4569
-12.6073
-11.0007
-9.61631
-8.42271
-7.39369
-6.50706
-5.74322
-5.08498
-4.51737
-4.0274
-3.60386
-3.23709
-2.91882
-2.64197
-2.40049
-2.18926
-2.0039
-1.84071
-1.69656
-1.56877
-1.45514
-1.35386
-1.26334
-1.18108
-1.10537
-1.04832
-22.8033
-19.1968
-16.5897
-14.4923
-12.6398
-11.0308
-9.64463
-8.44973
-7.4198
-6.53257
-5.76836
-5.10993
-4.54223
-4.05223
-3.62869
-3.26191
-2.94361
-2.66668
-2.42509
-2.21368
-2.02809
-1.86461
-1.7201
-1.59191
-1.4778
-1.37601
-1.28494
-1.20205
-1.12554
-1.06826
-22.8543
-19.24
-16.6281
-14.5269
-12.6713
-11.0598
-9.67196
-8.47581
-7.44504
-6.55727
-5.79275
-5.13417
-4.56642
-4.07642
-3.6529
-3.28613
-2.9678
-2.6908
-2.44907
-2.23746
-2.05159
-1.88776
-1.74283
-1.61412
-1.49941
-1.39695
-1.30517
-1.22144
-1.14373
-1.08565
-22.9127
-19.2848
-16.6656
-14.5602
-12.7013
-11.0875
-9.69796
-8.5007
-7.46919
-6.58098
-5.81624
-5.15758
-4.58984
-4.0999
-3.67643
-3.3097
-2.99136
-2.7143
-2.47243
-2.26061
-2.07444
-1.91022
-1.76479
-1.63547
-1.52002
-1.4167
-1.32394
-1.23898
-1.1593
-1.09996
-22.982
-19.3311
-16.701
-14.591
-12.7292
-11.1134
-9.72247
-8.52426
-7.49215
-6.60361
-5.83874
-5.18008
-4.61242
-4.12259
-3.69924
-3.33259
-3.01429
-2.73719
-2.49522
-2.2832
-2.09674
-1.93212
-1.78615
-1.65613
-1.53979
-1.43532
-1.34102
-1.25375
-1.17079
-1.11014
-23.0399
-19.3706
-16.7325
-14.6194
-12.7559
-11.1385
-9.74635
-8.54725
-7.51458
-6.62572
-5.86073
-5.20207
-4.6345
-4.1448
-3.72158
-3.35503
-3.03678
-2.75967
-2.51762
-2.30544
-2.11874
-1.95377
-1.80735
-1.67674
-1.55964
-1.45404
-1.35787
-1.26796
-1.18259
-1.11819
-22.9366
-22.9717
-22.9967
-23.0248
-23.0541
-23.0817
-23.1069
-23.1296
-23.1495
-23.1666
-23.1808
-23.1919
-23.1999
-23.205
-23.2072
-23.2066
-23.2033
-23.1974
-23.1891
-23.1785
-23.1657
-23.1511
-23.1347
-23.1169
-23.0981
-23.0787
-23.0595
-23.0421
-23.0294
-23.026
-19.26
-19.3055
-19.3436
-19.3795
-19.4131
-19.4436
-19.471
-19.4953
-19.5165
-19.5347
-19.5499
-19.5621
-19.5711
-19.5773
-19.5806
-19.5812
-19.5791
-19.5744
-19.5673
-19.558
-19.5466
-19.5332
-19.5181
-19.5015
-19.4837
-19.465
-19.4461
-19.4274
-19.4094
-19.3912
-16.5925
-16.6418
-16.6857
-16.7253
-16.7612
-16.7936
-16.8227
-16.8485
-16.8711
-16.8906
-16.9072
-16.9207
-16.9311
-16.9386
-16.9434
-16.9454
-16.9448
-16.9417
-16.9362
-16.9284
-16.9185
-16.9067
-16.893
-16.8778
-16.8611
-16.8432
-16.8243
-16.8044
-16.7833
-16.7601
-14.4496
-14.4992
-14.5445
-14.5855
-14.6225
-14.656
-14.6862
-14.713
-14.7367
-14.7574
-14.775
-14.7895
-14.8011
-14.8098
-14.8158
-14.8191
-14.8199
-14.8181
-14.814
-14.8077
-14.7993
-14.7888
-14.7765
-14.7625
-14.747
-14.7299
-14.7115
-14.6916
-14.6701
-14.6467
-12.5664
-12.6151
-12.6603
-12.7015
-12.7388
-12.7727
-12.8033
-12.8305
-12.8546
-12.8759
-12.8941
-12.9092
-12.9214
-12.9309
-12.9377
-12.9419
-12.9436
-12.9428
-12.9398
-12.9345
-12.9272
-12.9178
-12.9066
-12.8937
-12.8791
-12.8629
-12.8451
-12.8258
-12.8048
-12.7822
-10.9424
-10.9897
-11.0339
-11.0744
-11.1112
-11.1447
-11.1749
-11.2019
-11.2259
-11.2471
-11.2652
-11.2804
-11.2927
-11.3025
-11.3096
-11.3142
-11.3163
-11.3161
-11.3136
-11.309
-11.3023
-11.2937
-11.2832
-11.271
-11.2571
-11.2416
-11.2245
-11.2058
-11.1855
-11.1637
-9.55605
-9.60151
-9.64412
-9.6833
-9.719
-9.75142
-9.78071
-9.80689
-9.83025
-9.85083
-9.86839
-9.88307
-9.89512
-9.9046
-9.91154
-9.91603
-9.91815
-9.918
-9.91568
-9.91126
-9.90485
-9.89655
-9.88643
-9.87459
-9.8611
-9.84602
-9.8294
-9.81124
-9.79152
-9.77042
-8.37359
-8.41693
-8.45758
-8.49497
-8.52906
-8.56001
-8.58792
-8.6129
-8.63516
-8.65467
-8.67125
-8.68509
-8.69639
-8.7052
-8.71156
-8.71555
-8.71727
-8.71679
-8.7142
-8.70961
-8.70309
-8.69473
-8.68463
-8.67285
-8.65948
-8.64457
-8.62818
-8.61033
-8.59103
-8.57047
-7.36602
-7.40707
-7.44551
-7.48084
-7.51303
-7.5422
-7.56843
-7.59192
-7.61279
-7.63088
-7.64617
-7.65887
-7.66911
-7.67693
-7.68239
-7.68557
-7.68656
-7.68543
-7.68228
-7.67719
-7.67025
-7.66154
-7.65116
-7.63917
-7.62566
-7.61068
-7.5943
-7.57655
-7.55745
-7.53722
-6.50833
-6.54699
-6.58309
-6.61621
-6.64634
-6.67354
-6.69794
-6.71971
-6.73896
-6.75546
-6.76925
-6.78059
-6.78955
-6.79617
-6.80051
-6.80265
-6.80268
-6.80067
-6.79672
-6.7909
-6.78331
-6.77403
-6.76314
-6.75073
-6.73687
-6.72162
-6.70505
-6.68722
-6.66814
-6.64802
-5.77831
-5.81454
-5.84827
-5.87913
-5.90711
-5.93228
-5.95473
-5.97473
-5.99222
-6.00697
-6.01918
-6.02904
-6.03658
-6.04186
-6.04494
-6.04591
-6.04483
-6.04179
-6.03688
-6.03019
-6.02179
-6.01178
-6.00024
-5.98724
-5.97288
-5.95722
-5.94032
-5.92224
-5.90303
-5.88286
-5.15649
-5.19033
-5.22172
-5.25034
-5.27618
-5.29929
-5.31981
-5.33796
-5.35361
-5.36663
-5.37722
-5.38554
-5.39162
-5.3955
-5.39725
-5.39696
-5.3947
-5.39055
-5.3846
-5.37694
-5.36764
-5.3568
-5.34451
-5.33084
-5.31588
-5.2997
-5.28237
-5.26396
-5.2445
-5.22418
-4.62606
-4.6576
-4.68672
-4.71315
-4.7369
-4.75801
-4.77663
-4.79294
-4.8068
-4.81811
-4.8271
-4.83388
-4.83848
-4.84095
-4.84137
-4.83981
-4.83634
-4.83106
-4.82404
-4.81537
-4.80514
-4.79344
-4.78035
-4.76595
-4.75034
-4.7336
-4.71579
-4.69698
-4.67721
-4.65666
-4.17259
-4.20194
-4.22891
-4.25325
-4.27499
-4.29419
-4.311
-4.32553
-4.33766
-4.34733
-4.35477
-4.36005
-4.36322
-4.36432
-4.36344
-4.36063
-4.35599
-4.34959
-4.34152
-4.33185
-4.32069
-4.30811
-4.29422
-4.2791
-4.26283
-4.2455
-4.22719
-4.20796
-4.18786
-4.16705
-3.78382
-3.8111
-3.83604
-3.85842
-3.87827
-3.89567
-3.91077
-3.92363
-3.93411
-3.94224
-3.9482
-3.95207
-3.95388
-3.95369
-3.95156
-3.94758
-3.94181
-3.93434
-3.92525
-3.91463
-3.90257
-3.88916
-3.8745
-3.85866
-3.84175
-3.82386
-3.80505
-3.78541
-3.76499
-3.74393
-3.44933
-3.4747
-3.49775
-3.51831
-3.5364
-3.55212
-3.56564
-3.57694
-3.58588
-3.59258
-3.59718
-3.59973
-3.60027
-3.59887
-3.59559
-3.59051
-3.58369
-3.57523
-3.5652
-3.55369
-3.54079
-3.52659
-3.5112
-3.4947
-3.47718
-3.45875
-3.43949
-3.41947
-3.39875
-3.37746
-3.1604
-3.18399
-3.2053
-3.22419
-3.24066
-3.25485
-3.26691
-3.27675
-3.2843
-3.28968
-3.29302
-3.29437
-3.29376
-3.29125
-3.28692
-3.28083
-3.27306
-3.26368
-3.25279
-3.24046
-3.2268
-3.21188
-3.19582
-3.17871
-3.16065
-3.14173
-3.12206
-3.1017
-3.08073
-3.05926
-2.90967
-2.93164
-2.95136
-2.96872
-2.98372
-2.99651
-3.00724
-3.01576
-3.02202
-3.02623
-3.02844
-3.02869
-3.02704
-3.02353
-3.01825
-3.01126
-3.00263
-2.99244
-2.98078
-2.96772
-2.95337
-2.93781
-2.92115
-2.90349
-2.88494
-2.86559
-2.84555
-2.82492
-2.80374
-2.78214
-2.69104
-2.71152
-2.7298
-2.74577
-2.75944
-2.77098
-2.78048
-2.78779
-2.79294
-2.79608
-2.79727
-2.79655
-2.79397
-2.78958
-2.78346
-2.77567
-2.76628
-2.75537
-2.74303
-2.72933
-2.71437
-2.69825
-2.68106
-2.66292
-2.64394
-2.62422
-2.60387
-2.583
-2.56168
-2.54002
-2.49938
-2.51852
-2.53549
-2.55021
-2.56269
-2.5731
-2.58149
-2.58774
-2.59189
-2.59409
-2.59438
-2.5928
-2.5894
-2.58424
-2.57738
-2.56889
-2.55884
-2.54731
-2.53438
-2.52012
-2.50464
-2.48803
-2.47039
-2.45183
-2.43247
-2.41243
-2.39183
-2.37079
-2.34937
-2.32771
-2.33048
-2.3484
-2.3642
-2.37779
-2.3892
-2.39859
-2.40601
-2.41132
-2.41459
-2.41595
-2.41545
-2.41312
-2.409
-2.40317
-2.39568
-2.38659
-2.37598
-2.36391
-2.35048
-2.33575
-2.31982
-2.30279
-2.28476
-2.26584
-2.24617
-2.22585
-2.20505
-2.18386
-2.16241
-2.14082
-2.18079
-2.19762
-2.21236
-2.22495
-2.23541
-2.24391
-2.25045
-2.25493
-2.25743
-2.25806
-2.25687
-2.25389
-2.24916
-2.24275
-2.23472
-2.22512
-2.21403
-2.20152
-2.18766
-2.17254
-2.15624
-2.13886
-2.1205
-2.10128
-2.08133
-2.06078
-2.0398
-2.01852
-1.99707
-1.9756
-2.0474
-2.06325
-2.07705
-2.08874
-2.09836
-2.10606
-2.11183
-2.11559
-2.11742
-2.11742
-2.11563
-2.11209
-2.10684
-2.09994
-2.09145
-2.08143
-2.06995
-2.05707
-2.04286
-2.02742
-2.01081
-1.99314
-1.97451
-1.95503
-1.93484
-1.91409
-1.89295
-1.87159
-1.85017
-1.82889
-1.92789
-1.94286
-1.95581
-1.96671
-1.97559
-1.98259
-1.98768
-1.99081
-1.99205
-1.99151
-1.98921
-1.98519
-1.9795
-1.9722
-1.96333
-1.95296
-1.94115
-1.92798
-1.9135
-1.89779
-1.88094
-1.86303
-1.84418
-1.82448
-1.80408
-1.78314
-1.76185
-1.74042
-1.71902
-1.698
-1.82023
-1.83441
-1.84662
-1.8568
-1.86503
-1.87142
-1.87592
-1.87849
-1.87924
-1.87823
-1.8755
-1.87108
-1.86502
-1.85738
-1.8482
-1.83756
-1.82549
-1.81208
-1.79738
-1.78147
-1.76443
-1.74634
-1.7273
-1.70742
-1.68684
-1.66571
-1.64426
-1.62273
-1.60134
-1.58068
-1.72275
-1.73622
-1.74776
-1.75731
-1.76496
-1.77081
-1.77479
-1.77688
-1.77719
-1.77578
-1.77268
-1.76792
-1.76155
-1.75363
-1.7442
-1.73333
-1.72106
-1.70746
-1.6926
-1.67654
-1.65935
-1.64111
-1.62192
-1.60187
-1.5811
-1.55978
-1.53813
-1.51645
-1.495
-1.47492
-1.63406
-1.6469
-1.65782
-1.66681
-1.67395
-1.67932
-1.68282
-1.68449
-1.68442
-1.68266
-1.67924
-1.67419
-1.66756
-1.6594
-1.64976
-1.6387
-1.62626
-1.61251
-1.59751
-1.58132
-1.564
-1.54564
-1.5263
-1.50609
-1.48513
-1.46356
-1.44162
-1.41966
-1.39797
-1.37878
-1.55299
-1.56531
-1.57575
-1.58429
-1.59103
-1.59601
-1.59915
-1.6005
-1.60014
-1.59812
-1.59446
-1.5892
-1.58239
-1.57407
-1.5643
-1.55312
-1.54058
-1.52675
-1.51167
-1.49541
-1.47803
-1.45959
-1.44016
-1.41983
-1.39868
-1.37685
-1.35456
-1.33213
-1.30993
-1.29204
-1.47853
-1.49049
-1.50061
-1.50886
-1.51537
-1.52013
-1.52308
-1.52428
-1.52382
-1.52171
-1.518
-1.51272
-1.50591
-1.49763
-1.48792
-1.47683
-1.46441
-1.45071
-1.43579
-1.41971
-1.40251
-1.38425
-1.365
-1.34482
-1.32377
-1.30193
-1.27943
-1.2565
-1.23379
-1.2188
-1.40978
-1.42093
-1.43029
-1.43787
-1.44373
-1.4479
-1.45033
-1.45107
-1.45019
-1.44773
-1.44371
-1.43818
-1.43118
-1.42275
-1.41294
-1.4018
-1.38938
-1.37572
-1.36088
-1.34491
-1.32785
-1.30976
-1.29069
-1.27069
-1.2498
-1.22803
-1.20546
-1.18191
-1.15819
-1.14949
-19.8879
-20.0027
-20.1062
-20.2205
-20.3418
-20.4652
-20.5892
-20.7132
-20.8367
-20.9591
-21.0799
-21.1988
-21.3156
-21.4299
-21.5415
-21.6504
-21.7563
-21.8591
-21.9588
-22.0552
-22.1482
-22.2379
-22.3242
-22.4071
-22.4867
-22.5633
-22.6372
-22.7092
-22.7809
-22.8552
-16.2204
-16.3497
-16.4725
-16.5968
-16.7222
-16.8473
-16.9717
-17.0951
-17.2175
-17.3385
-17.4578
-17.5751
-17.6902
-17.803
-17.9132
-18.0208
-18.1254
-18.2271
-18.3256
-18.421
-18.5132
-18.6021
-18.6876
-18.7698
-18.8488
-18.9247
-18.9976
-19.0677
-19.1354
-19.2
-13.5947
-13.7267
-13.8552
-13.9816
-14.1067
-14.2308
-14.3537
-14.4754
-14.5958
-14.7146
-14.8317
-14.9468
-15.0598
-15.1704
-15.2786
-15.3842
-15.487
-15.587
-15.6839
-15.7779
-15.8686
-15.9562
-16.0405
-16.1216
-16.1994
-16.2739
-16.3452
-16.4132
-16.4776
-16.5379
-11.5201
-11.6489
-11.7758
-11.9004
-12.0234
-12.1451
-12.2655
-12.3846
-12.5022
-12.6182
-12.7324
-12.8447
-12.9549
-13.0628
-13.1683
-13.2713
-13.3717
-13.4693
-13.564
-13.6557
-13.7444
-13.83
-13.9125
-13.9918
-14.0678
-14.1405
-14.2099
-14.2758
-14.338
-14.3964
-9.72331
-9.84741
-9.97075
-10.0923
-10.2122
-10.3306
-10.4478
-10.5636
-10.6779
-10.7905
-10.9013
-11.0102
-11.1171
-11.2217
-11.3241
-11.424
-11.5213
-11.616
-11.7079
-11.7969
-11.883
-11.9661
-12.0461
-12.123
-12.1967
-12.2672
-12.3344
-12.3981
-12.4583
-12.5149
-8.19706
-8.31647
-8.43561
-8.55328
-8.66939
-8.78413
-8.89757
-9.0096
-9.12011
-9.22897
-9.33607
-9.44128
-9.54448
-9.64554
-9.74435
-9.84078
-9.93473
-10.0261
-10.1148
-10.2007
-10.2838
-10.364
-10.4412
-10.5153
-10.5864
-10.6543
-10.7189
-10.7802
-10.8381
-10.8926
-6.91483
-7.02967
-7.14439
-7.25787
-7.3699
-7.48064
-7.5901
-7.69817
-7.80473
-7.90967
-8.01287
-8.11422
-8.2136
-8.31089
-8.40597
-8.49875
-8.58912
-8.67697
-8.76223
-8.84481
-8.92463
-9.00163
-9.07573
-9.14687
-9.215
-9.28006
-9.34197
-9.40068
-9.45609
-9.50826
-5.83894
-5.94938
-6.05973
-6.16895
-6.27687
-6.38355
-6.48899
-6.59306
-6.69564
-6.79662
-6.8959
-6.99334
-7.08886
-7.18232
-7.27363
-7.36268
-7.44937
-7.53363
-7.61535
-7.69446
-7.77089
-7.84457
-7.91543
-7.98342
-8.04848
-8.11055
-8.16959
-8.22553
-8.27831
-8.32801
-4.93761
-5.04388
-5.15001
-5.2551
-5.35898
-5.46168
-5.56316
-5.6633
-5.76196
-5.85905
-5.95445
-6.04805
-6.13974
-6.22941
-6.31697
-6.40232
-6.48535
-6.566
-6.64418
-6.7198
-6.79281
-6.86313
-6.93071
-6.99549
-7.05742
-7.11645
-7.17254
-7.22565
-7.27571
-7.32282
-4.1839
-4.28623
-4.38835
-4.48949
-4.58948
-4.68834
-4.78599
-4.88232
-4.9772
-5.07051
-5.16214
-5.252
-5.33998
-5.42596
-5.50986
-5.59158
-5.67104
-5.74815
-5.82283
-5.89502
-5.96464
-6.03165
-6.09597
-6.15756
-6.21638
-6.27238
-6.32552
-6.37578
-6.42309
-6.46757
-3.55435
-3.65297
-3.7513
-3.84868
-3.94497
-4.04015
-4.13415
-4.22682
-4.31806
-4.40775
-4.49578
-4.58204
-4.66644
-4.74887
-4.82924
-4.90747
-4.98346
-5.05714
-5.12844
-5.19729
-5.26363
-5.3274
-5.38855
-5.44703
-5.50281
-5.55583
-5.60608
-5.65353
-5.69813
-5.73998
-3.02873
-3.12384
-3.2186
-3.31243
-3.4052
-3.49689
-3.58741
-3.67661
-3.76438
-3.85061
-3.9352
-4.01804
-4.09902
-4.17806
-4.25506
-4.32994
-4.40261
-4.47301
-4.54107
-4.60672
-4.6699
-4.73056
-4.78865
-4.84413
-4.89697
-4.94713
-4.99458
-5.03931
-5.08127
-5.12056
-2.58977
-2.68157
-2.77296
-2.86343
-2.95288
-3.04126
-3.12847
-3.21438
-3.29887
-3.38182
-3.46314
-3.54272
-3.62047
-3.69628
-3.77008
-3.84177
-3.9113
-3.97858
-4.04354
-4.10614
-4.16632
-4.22402
-4.2792
-4.33183
-4.38186
-4.42928
-4.47406
-4.51618
-4.55561
-4.59245
-2.22281
-2.31148
-2.39969
-2.48699
-2.5733
-2.65855
-2.74264
-2.82543
-2.90681
-2.98667
-3.0649
-3.14141
-3.21608
-3.28885
-3.35962
-3.42831
-3.49485
-3.55917
-3.62122
-3.68094
-3.73827
-3.79317
-3.8456
-3.89553
-3.94292
-3.98775
-4.03
-4.06965
-4.10669
-4.14119
-1.91549
-2.0012
-2.0864
-2.17072
-2.25406
-2.33636
-2.41751
-2.49736
-2.57581
-2.65274
-2.72806
-2.80166
-2.87345
-2.94334
-3.01125
-3.07711
-3.14084
-3.20239
-3.2617
-3.3187
-3.37336
-3.42563
-3.47548
-3.52287
-3.56778
-3.61018
-3.65005
-3.68739
-3.72218
-3.75448
-1.65746
-1.74036
-1.82272
-1.90422
-1.98477
-2.06429
-2.14265
-2.21974
-2.29543
-2.36961
-2.44218
-2.51305
-2.58212
-2.64931
-2.71454
-2.77773
-2.83884
-2.89778
-2.95451
-3.00898
-3.06114
-3.11095
-3.15838
-3.20341
-3.246
-3.28613
-3.32379
-3.35897
-3.39166
-3.42193
-1.44007
-1.5203
-1.59998
-1.67883
-1.75674
-1.83365
-1.9094
-1.98388
-2.05697
-2.12857
-2.19856
-2.26686
-2.33338
-2.39803
-2.46074
-2.52145
-2.58008
-2.63659
-2.69092
-2.74302
-2.79285
-2.84037
-2.88556
-2.92838
-2.96882
-3.00685
-3.04246
-3.07564
-3.1064
-3.13478
-1.25616
-1.33385
-1.411
-1.48735
-1.56279
-1.63723
-1.71054
-1.78257
-1.85322
-1.92238
-1.98996
-2.05585
-2.11997
-2.18224
-2.2426
-2.30097
-2.3573
-2.41154
-2.46362
-2.51352
-2.56118
-2.60658
-2.64968
-2.69047
-2.72892
-2.76501
-2.79873
-2.83008
-2.85905
-2.88569
-1.0998
-1.17508
-1.24984
-1.32385
-1.39697
-1.4691
-1.5401
-1.60984
-1.6782
-1.74508
-1.81038
-1.87401
-1.93588
-1.99593
-2.05408
-2.11028
-2.16446
-2.21658
-2.26658
-2.31442
-2.36008
-2.40351
-2.44469
-2.48359
-2.5202
-2.55451
-2.58649
-2.61615
-2.64349
-2.66855
-0.966122
-1.03911
-1.11163
-1.18343
-1.25438
-1.32435
-1.39319
-1.46077
-1.52698
-1.59172
-1.65488
-1.71639
-1.77616
-1.83412
-1.89021
-1.94438
-1.99656
-2.0467
-2.09476
-2.14071
-2.1845
-2.22611
-2.26552
-2.30269
-2.33762
-2.37028
-2.40068
-2.4288
-2.45464
-2.47825
-0.85111
-0.921922
-0.992343
-1.06209
-1.13101
-1.19895
-1.26577
-1.33133
-1.39552
-1.45824
-1.5194
-1.57892
-1.63672
-1.69273
-1.7469
-1.79916
-1.84948
-1.89779
-1.94405
-1.98824
-2.03031
-2.07024
-2.10801
-2.14359
-2.17697
-2.20813
-2.23707
-2.26379
-2.28828
-2.31058
-0.75148
-0.820232
-0.888706
-0.956544
-1.02357
-1.08962
-1.15454
-1.2182
-1.28049
-1.34132
-1.4006
-1.45825
-1.5142
-1.56839
-1.62075
-1.67125
-1.71982
-1.76643
-1.81103
-1.85358
-1.89406
-1.93244
-1.96871
-2.00283
-2.03479
-2.06458
-2.09219
-2.11763
-2.14089
-2.162
-0.664523
-0.731338
-0.798033
-0.864111
-0.929374
-0.993658
-1.0568
-1.11867
-1.17918
-1.23823
-1.29574
-1.35163
-1.40585
-1.45833
-1.50901
-1.55786
-1.60481
-1.64983
-1.69288
-1.73392
-1.77294
-1.80989
-1.84477
-1.87755
-1.90821
-1.93675
-1.96316
-1.98743
-2.00957
-2.02962
-0.587984
-0.653007
-0.718119
-0.782589
-0.846224
-0.908859
-0.97033
-1.03052
-1.08934
-1.14671
-1.20256
-1.2568
-1.30939
-1.36027
-1.40938
-1.45668
-1.50213
-1.54568
-1.58729
-1.62694
-1.6646
-1.70024
-1.73384
-1.76539
-1.79487
-1.82226
-1.84757
-1.87079
-1.89193
-1.911
-0.519986
-0.58343
-0.6472
-0.710216
-0.772348
-0.833442
-0.893341
-0.951945
-1.00918
-1.06496
-1.11924
-1.17193
-1.22299
-1.27237
-1.32001
-1.36587
-1.40991
-1.45209
-1.49237
-1.53072
-1.56713
-1.60156
-1.63399
-1.66441
-1.6928
-1.71915
-1.74346
-1.76573
-1.78595
-1.80415
-0.458975
-0.521297
-0.584037
-0.645735
-0.70647
-0.766114
-0.824517
-0.881609
-0.937327
-0.991609
-1.04439
-1.09562
-1.14523
-1.19319
-1.23945
-1.28396
-1.32668
-1.36758
-1.40661
-1.44376
-1.479
-1.51231
-1.54366
-1.57304
-1.60043
-1.62582
-1.64921
-1.6706
-1.68999
-1.70741
-0.403249
-0.465374
-0.527529
-0.588007
-0.647415
-0.705669
-0.762634
-0.81827
-0.872538
-0.925383
-0.976748
-1.02658
-1.07483
-1.12146
-1.16641
-1.20965
-1.25113
-1.29083
-1.32871
-1.36474
-1.3989
-1.43116
-1.46151
-1.48992
-1.51639
-1.54091
-1.56346
-1.58406
-1.60269
-1.61939
-0.349235
-0.412348
-0.474699
-0.534155
-0.592354
-0.649328
-0.704967
-0.75927
-0.812217
-0.86376
-0.913849
-0.962433
-1.00947
-1.0549
-1.0987
-1.14082
-1.18123
-1.21988
-1.25675
-1.29181
-1.32504
-1.35641
-1.3859
-1.4135
-1.43919
-1.46296
-1.48482
-1.50475
-1.52276
-1.53886
-0.292813
-0.358615
-0.422386
-0.481327
-0.538637
-0.594593
-0.649162
-0.702392
-0.754274
-0.804766
-0.853821
-0.901391
-0.947433
-0.991905
-1.03476
-1.07597
-1.1155
-1.1533
-1.18935
-1.22362
-1.2561
-1.28675
-1.31556
-1.34252
-1.3676
-1.3908
-1.41212
-1.43155
-1.4491
-1.46478
-0.25286
-0.32563
-0.389877
-0.447725
-0.503806
-0.55839
-0.61153
-0.663317
-0.713744
-0.762766
-0.81034
-0.856424
-0.900979
-0.943966
-0.985349
-1.02509
-1.06317
-1.09955
-1.13421
-1.16711
-1.19826
-1.22761
-1.25517
-1.2809
-1.30482
-1.3269
-1.34714
-1.36555
-1.38213
-1.39689
1.31242
1.30929
1.30352
1.29506
1.28315
1.26685
1.24507
1.2164
1.17913
1.13107
1.06956
0.991311
0.892301
0.767657
0.611512
0.41685
0.175334
-0.122881
-0.489383
-0.937762
-1.48395
-2.14664
-2.94772
-3.9128
-5.07314
-6.46724
-8.12529
-10.0615
-12.5575
-16.1165
1.27359
1.26924
1.26268
1.25331
1.2404
1.22306
1.20019
1.17041
1.13198
1.08275
1.02005
0.940615
0.840427
0.714626
0.55735
0.361584
0.118983
-0.18032
-0.547943
-0.997527
-1.54507
-2.20933
-3.01228
-3.97961
-5.1426
-6.53993
-8.20156
-10.141
-12.637
-16.1885
1.23326
1.22765
1.22028
1.20997
1.19602
1.17761
1.15362
1.12268
1.08306
1.03261
0.968672
0.887982
0.786541
0.659495
0.500985
0.303997
0.0601768
-0.240363
-0.609274
-1.06024
-1.60933
-2.27536
-3.08038
-4.05016
-5.21591
-6.61628
-8.28105
-10.2229
-12.7173
-16.2586
1.19145
1.18452
1.1763
1.16503
1.15001
1.13048
1.10535
1.07321
1.03236
0.980652
0.915435
0.833452
0.730715
0.602376
0.442582
0.244315
-0.000787241
-0.302632
-0.672906
-1.12534
-1.67605
-2.34394
-3.15111
-4.12339
-5.29206
-6.69548
-8.3634
-10.3079
-12.8029
-16.3397
1.14821
1.1399
1.1308
1.11852
1.10239
1.08171
1.05537
1.022
0.979873
0.926852
0.8603
0.776964
0.672866
0.543166
0.382015
0.182394
-0.0640665
-0.367295
-0.739008
-1.19298
-1.74539
-2.4152
-3.22457
-4.19939
-5.37094
-6.77759
-8.44878
-10.3964
-12.8935
-16.4291
1.10361
1.09386
1.08384
1.07053
1.05325
1.03137
1.0038
0.96914
0.925684
0.8713
0.803354
0.718603
0.613075
0.481937
0.319345
0.118281
-0.129637
-0.434352
-0.807611
-1.26323
-1.81745
-2.48928
-3.30096
-4.27841
-5.45294
-6.86285
-8.53744
-10.4884
-12.9881
-16.5242
1.05769
1.04645
1.0355
1.02111
1.00265
0.979533
0.950683
0.914702
0.869875
0.814079
0.744688
0.658463
0.551442
0.418797
0.254688
0.052094
-0.197372
-0.503672
-0.878583
-1.33597
-1.8921
-2.56607
-3.38018
-4.36039
-5.53803
-6.95136
-8.62952
-10.584
-13.0867
-16.6241
1.01053
0.997752
0.985836
0.970344
0.950659
0.926269
0.896102
0.858754
0.812512
0.755258
0.68437
0.596617
0.488041
0.353821
0.188121
-0.0160814
-0.267183
-0.575163
-0.951825
-1.41107
-1.96924
-2.64547
-3.46212
-4.44522
-5.62611
-7.04301
-8.72494
-10.6832
-13.1891
-16.7284
0.962179
0.947817
0.934912
0.918283
0.89734
0.871641
0.840118
0.801363
0.753664
0.694905
0.62247
0.533134
0.422944
0.287084
0.119721
-0.0861705
-0.338993
-0.648745
-1.02726
-1.48848
-2.04878
-2.72738
-3.54669
-4.53281
-5.71707
-7.13769
-8.82355
-10.7857
-13.2951
-16.8368
0.912688
0.896706
0.88279
0.864993
0.842757
0.815713
0.782798
0.742597
0.693399
0.633091
0.559061
0.468088
0.356226
0.218662
0.049564
-0.158093
-0.412723
-0.724339
-1.1048
-1.56809
-2.13065
-2.81173
-3.63383
-4.62307
-5.81084
-7.23531
-8.92526
-10.8915
-13.4046
-16.9488
0.862115
0.84448
0.82953
0.810535
0.786972
0.75855
0.724207
0.682523
0.631785
0.569885
0.494214
0.401554
0.287962
0.148632
-0.0222689
-0.231768
-0.488287
-0.801857
-1.18437
-1.64983
-2.21475
-2.89843
-3.72342
-4.71591
-5.90731
-7.33576
-9.02993
-11.0004
-13.5173
-17.0643
0.810512
0.791195
0.775194
0.754971
0.730049
0.700215
0.664411
0.621207
0.568893
0.50536
0.428002
0.333605
0.218231
0.077074
-0.0956961
-0.30711
-0.565599
-0.88121
-1.26586
-1.7336
-2.30098
-2.98737
-3.81538
-4.81123
-6.00638
-7.43893
-9.13743
-11.1122
-13.6331
-17.1828
0.757929
0.736907
0.719837
0.698359
0.672048
0.640771
0.603474
0.558718
0.50479
0.439585
0.360499
0.264319
0.147111
0.00406993
-0.170633
-0.384033
-0.644569
-0.962307
-1.34919
-1.81931
-2.38925
-3.07846
-3.90959
-4.90892
-6.10792
-7.54468
-9.24763
-11.2269
-13.7517
-17.3043
0.704412
0.681669
0.663517
0.640756
0.613027
0.58028
0.54146
0.49512
0.439547
0.372635
0.29178
0.193774
0.0746826
-0.0702964
-0.246993
-0.462447
-0.725106
-1.04505
-1.43425
-1.90684
-2.47945
-3.17158
-4.00594
-5.00886
-6.21182
-7.65289
-9.36038
-11.3441
-13.8731
-17.4285
0.650005
0.62553
0.606285
0.582218
0.553046
0.518804
0.478435
0.430484
0.373234
0.304581
0.221922
0.122049
0.00102978
-0.145938
-0.324686
-0.542258
-0.80711
-1.12934
-1.52095
-1.9961
-2.57148
-3.26662
-4.10431
-5.11092
-6.31795
-7.76342
-9.47554
-11.4639
-13.9969
-17.5553
0.594746
0.568538
0.548193
0.522801
0.492163
0.456404
0.414465
0.364879
0.305926
0.235503
0.151007
0.0492302
-0.07376
-0.222765
-0.403619
-0.623368
-0.890483
-1.21508
-1.60917
-2.08698
-2.66521
-3.36347
-4.20459
-5.21498
-6.42617
-7.87614
-9.59296
-11.5859
-14.1231
-17.6844
0.53867
0.510737
0.489292
0.462557
0.430438
0.393145
0.349617
0.298376
0.237698
0.165481
0.079119
-0.0245953
-0.149595
-0.300681
-0.483691
-0.705676
-0.975117
-1.30215
-1.69881
-2.17935
-2.76053
-3.462
-4.30664
-5.32091
-6.53635
-7.99089
-9.71249
-11.7102
-14.2515
-17.8157
0.48181
0.452169
0.42963
0.401543
0.36793
0.329093
0.283964
0.231052
0.168633
0.0945999
0.00634716
-0.0993339
-0.226377
-0.379586
-0.564798
-0.789074
-1.0609
-1.39044
-1.78974
-2.2731
-2.85731
-3.56208
-4.41034
-5.42858
-6.64836
-8.10756
-9.83399
-11.8364
-14.3819
-17.9491
0.424193
0.392878
0.36926
0.339818
0.304706
0.26432
0.217582
0.162992
0.0988171
0.0229516
-0.0672129
-0.174886
-0.304005
-0.459373
-0.646833
-0.87345
-1.14773
-1.47983
-1.88185
-2.3681
-2.95543
-3.66359
-4.51555
-5.53786
-6.76205
-8.22598
-9.95732
-11.9645
-14.5143
-18.0843
0.365847
0.332907
0.308234