/*--------------------------------*- C++ -*----------------------------------*\
  =========                 |
  \\      /  F ield         | OpenFOAM: The Open Source CFD Toolbox
   \\    /   O peration     | Website:  https://openfoam.org
    \\  /    A nd           | Version:  6.0
     \\/     M anipulation  |
\*---------------------------------------------------------------------------*/
FoamFile
{
    version     2.0;
    format      ascii;
    class       volScalarField;
    location    "4";
    object      p;
}
// * * * * * * * * * * * * * * * * * * * * * * * * * * * * * * * * * * * * * //

dimensions      [0 2 -2 0 0 0 0];

internalField   nonuniform List<scalar> 
9600
(
-69.9394
-58.2974
-50.0519
-43.5271
-37.8133
-32.8713
-28.6267
-24.9741
-21.8267
-19.113
-16.7711
-14.7478
-12.9973
-11.4806
-10.1642
-9.01993
-8.02352
-7.1534
-6.39157
-5.73501
-70.1157
-58.4843
-50.2335
-43.6957
-37.968
-33.0134
-28.7579
-25.0959
-21.9407
-19.2204
-16.8729
-14.8449
-13.0903
-11.57
-10.2504
-9.10316
-8.10393
-7.23093
-6.46599
-5.80814
-70.3027
-58.6705
-50.4128
-43.8628
-38.1217
-33.1548
-28.8887
-25.2177
-22.0549
-19.3283
-16.9756
-14.943
-13.1846
-11.6608
-10.3382
-9.18807
-8.18615
-7.31035
-6.54241
-5.88344
-70.497
-58.8591
-50.5917
-44.0289
-38.2746
-33.2956
-29.019
-25.3393
-22.1693
-19.4366
-17.0789
-15.042
-13.2799
-11.7529
-10.4274
-9.27461
-8.27015
-7.39166
-6.62086
-5.96101
-70.6956
-59.0496
-50.7706
-44.1945
-38.4268
-33.4359
-29.1491
-25.4608
-22.2838
-19.5454
-17.1828
-15.1419
-13.3763
-11.8463
-10.5181
-9.36283
-8.35599
-7.47495
-6.70145
-6.04094
-70.8967
-59.2416
-50.9496
-44.3595
-38.5784
-33.5755
-29.2786
-25.5821
-22.3982
-19.6543
-17.2871
-15.2425
-13.4737
-11.9409
-10.6102
-9.45266
-8.44364
-7.56022
-6.7842
-6.12331
-71.0993
-59.4342
-51.1286
-44.5238
-38.729
-33.7142
-29.4074
-25.7028
-22.5125
-19.7632
-17.3918
-15.3435
-13.5718
-12.0365
-10.7035
-9.54399
-8.53302
-7.64742
-6.86911
-6.20812
-71.3024
-59.6269
-51.3069
-44.6871
-38.8785
-33.8518
-29.5352
-25.8227
-22.6261
-19.8718
-17.4964
-15.4449
-13.6704
-12.1328
-10.7979
-9.63662
-8.62396
-7.73644
-6.95611
-6.29535
-71.5055
-59.819
-51.4842
-44.8491
-39.0265
-33.988
-29.6617
-25.9416
-22.7389
-19.9798
-17.6006
-15.5461
-13.7692
-12.2296
-10.893
-9.73029
-8.71625
-7.8271
-7.04505
-6.38492
-71.7081
-60.0101
-51.6601
-45.0094
-39.1726
-34.1223
-29.7865
-26.0588
-22.8503
-20.0867
-17.7039
-15.6466
-13.8676
-12.3263
-10.9884
-9.82458
-8.80951
-7.91908
-7.13569
-6.47663
-71.9099
-60.1997
-51.8341
-45.1674
-39.3164
-34.2542
-29.909
-26.174
-22.9598
-20.1919
-17.8058
-15.7461
-13.9651
-12.4225
-11.0835
-9.91895
-8.90324
-8.01192
-7.22763
-6.57013
-72.1108
-60.3876
-52.0058
-45.3228
-39.4574
-34.3833
-30.0288
-26.2866
-23.0669
-20.2949
-17.9057
-15.8436
-14.0611
-12.5173
-11.1777
-10.0127
-8.99678
-8.10503
-7.3203
-6.66487
-72.3107
-60.5733
-52.1747
-45.4751
-39.595
-34.5091
-30.1453
-26.3959
-23.1709
-20.3949
-18.0027
-15.9386
-14.1546
-12.6099
-11.2699
-10.105
-9.08932
-8.19767
-7.41307
-6.76038
-72.5097
-60.7564
-52.3403
-45.6238
-39.7289
-34.631
-30.2579
-26.5015
-23.2711
-20.4911
-18.0961
-16.0299
-14.2446
-12.6992
-11.3591
-10.1946
-9.17965
-8.28871
-7.50502
-6.85625
-72.7074
-60.9363
-52.5021
-45.7684
-39.8585
-34.7486
-30.3661
-26.6026
-23.3669
-20.5829
-18.185
-16.1166
-14.33
-12.7839
-11.4437
-10.2798
-9.26587
-8.37619
-7.59435
-6.95083
-72.9041
-61.1125
-52.6596
-45.9086
-39.9835
-34.8612
-30.4694
-26.6988
-23.4577
-20.6696
-18.2685
-16.1979
-14.4097
-12.8628
-11.5224
-10.3588
-9.34599
-8.45781
-7.67824
-7.03951
-73.1044
-61.287
-52.8125
-46.0435
-40.1028
-34.9682
-30.567
-26.7893
-23.5427
-20.7503
-18.3459
-16.2728
-14.4827
-12.9346
-11.5937
-10.4306
-9.41917
-8.53283
-7.75504
-7.11908
-73.3177
-61.4631
-52.9605
-46.1716
-40.2154
-35.0686
-30.6582
-26.8735
-23.6214
-20.8245
-18.4164
-16.34
-14.5473
-12.9972
-11.6554
-10.4927
-9.48314
-8.59943
-7.82497
-7.19931
-73.5448
-61.6404
-53.1025
-46.2924
-40.3214
-35.1632
-30.7438
-26.9522
-23.6945
-20.8927
-18.4801
-16.3995
-14.6026
-13.0486
-11.7032
-10.538
-9.52673
-8.64301
-7.87752
-7.28643
-73.7437
-61.8045
-53.2376
-46.4081
-40.4235
-35.2545
-30.8265
-27.0277
-23.7641
-20.957
-18.5392
-16.4534
-14.6507
-13.0902
-11.7372
-10.5622
-9.53808
-8.64164
-7.87813
-7.30266
-75.0052
-75.0301
-75.0252
-75.0164
-75.0037
-74.9819
-74.9489
-74.9048
-74.8505
-74.7866
-74.7137
-74.6322
-74.5432
-74.4474
-74.3461
-74.2406
-74.1329
-74.0261
-73.9249
-73.8349
-62.8825
-62.9282
-62.9541
-62.9692
-62.9743
-62.9677
-62.9488
-62.9182
-62.8768
-62.8255
-62.7648
-62.6955
-62.6184
-62.5344
-62.4445
-62.3496
-62.251
-62.1495
-62.0459
-61.9345
-54.098
-54.1571
-54.2013
-54.2314
-54.2484
-54.2528
-54.2453
-54.2264
-54.197
-54.1579
-54.1096
-54.0529
-53.9886
-53.9173
-53.8397
-53.7564
-53.668
-53.574
-53.4735
-53.3629
-47.0949
-47.1579
-47.2081
-47.2443
-47.2672
-47.278
-47.2775
-47.2664
-47.2454
-47.2151
-47.1761
-47.1291
-47.0747
-47.0136
-46.9463
-46.8732
-46.7943
-46.7094
-46.6178
-46.5184
-40.9992
-41.0605
-41.1104
-41.1478
-41.1726
-41.1859
-41.1887
-41.1816
-41.1651
-41.1399
-41.1065
-41.0656
-41.0179
-40.964
-40.9041
-40.8388
-40.768
-40.6918
-40.6097
-40.5212
-35.7721
-35.8292
-35.8762
-35.9117
-35.9355
-35.9486
-35.9517
-35.9454
-35.9304
-35.9072
-35.8765
-35.8389
-35.795
-35.7453
-35.6903
-35.6304
-35.5658
-35.4965
-35.4221
-35.3423
-31.3222
-31.3744
-31.417
-31.449
-31.4701
-31.481
-31.4826
-31.4753
-31.4598
-31.4367
-31.4065
-31.37
-31.3277
-31.2802
-31.2282
-31.1719
-31.1116
-31.0474
-30.979
-30.9061
-27.5241
-27.571
-27.6088
-27.6365
-27.654
-27.6619
-27.6609
-27.6516
-27.6345
-27.6101
-27.5792
-27.5425
-27.5005
-27.4539
-27.4033
-27.3492
-27.2919
-27.2315
-27.1679
-27.1006
-24.2729
-24.3147
-24.3478
-24.3711
-24.3849
-24.3895
-24.3855
-24.3736
-24.3543
-24.3282
-24.2959
-24.2581
-24.2155
-24.1688
-24.1188
-24.066
-24.0107
-23.9534
-23.8936
-23.8311
-21.4836
-21.5207
-21.5493
-21.5686
-21.5786
-21.5799
-21.573
-21.5585
-21.5368
-21.5086
-21.4745
-21.4352
-21.3915
-21.3443
-21.2942
-21.242
-21.1882
-21.1333
-21.0769
-21.0188
-19.0847
-19.1177
-19.1422
-19.1578
-19.1645
-19.1627
-19.153
-19.1359
-19.1118
-19.0815
-19.0454
-19.0045
-18.9595
-18.9112
-18.8607
-18.8087
-18.756
-18.7031
-18.6499
-18.5959
-17.0168
-17.0461
-17.0671
-17.0794
-17.083
-17.0785
-17.0662
-17.0467
-17.0204
-16.9879
-16.95
-16.9073
-16.8607
-16.8112
-16.7599
-16.7077
-16.6557
-16.6045
-16.5544
-16.5047
-15.2303
-15.2564
-15.2743
-15.2837
-15.2847
-15.2776
-15.2631
-15.2413
-15.213
-15.1785
-15.1387
-15.0942
-15.0459
-14.995
-14.9425
-14.8898
-14.8381
-14.7884
-14.7413
-14.6962
-13.6838
-13.7071
-13.7223
-13.7291
-13.7278
-13.7186
-13.7019
-13.6782
-13.6479
-13.6116
-13.5699
-13.5236
-13.4736
-13.421
-13.3671
-13.3133
-13.2615
-13.2129
-13.169
-13.1287
-12.3426
-12.3635
-12.3763
-12.3809
-12.3775
-12.3663
-12.3478
-12.3223
-12.2903
-12.2523
-12.2088
-12.1607
-12.1088
-12.0543
-11.9985
-11.9433
-11.8907
-11.8427
-11.8017
-11.7668
-11.1775
-11.1961
-11.2068
-11.2094
-11.2041
-11.1912
-11.1711
-11.144
-11.1103
-11.0706
-11.0255
-10.9755
-10.9216
-10.865
-10.8069
-10.7495
-10.6953
-10.6469
-10.6086
-10.5795
-10.1637
-10.1803
-10.189
-10.1898
-10.1827
-10.1682
-10.1465
-10.1178
-10.0826
-10.0413
-9.99435
-9.94247
-9.88642
-9.82725
-9.76641
-9.70593
-9.6489
-9.5988
-9.56197
-9.53771
-9.27954
-9.2945
-9.30162
-9.30088
-9.29243
-9.27652
-9.2534
-9.22338
-9.18678
-9.14397
-9.09542
-9.04167
-8.9834
-8.92154
-8.85738
-8.79298
-8.73168
-8.67829
-8.64213
-8.62177
-8.50641
-8.52032
-8.52651
-8.52496
-8.51582
-8.49931
-8.47566
-8.44514
-8.40804
-8.3647
-8.3155
-8.26091
-8.20148
-8.13796
-8.07137
-8.00352
-7.93743
-7.87943
-7.84373
-7.83493
-7.83203
-7.84312
-7.84685
-7.84322
-7.83235
-7.81444
-7.7897
-7.75835
-7.72066
-7.6769
-7.62739
-7.57249
-7.51261
-7.44828
-7.38011
-7.30937
-7.23762
-7.17087
-7.12265
-7.13153
-70.5352
-70.8679
-71.1659
-71.4709
-71.781
-72.0857
-72.3794
-72.6605
-72.9286
-73.1827
-73.422
-73.6458
-73.8538
-74.0459
-74.222
-74.3828
-74.529
-74.6624
-74.7858
-74.9025
-58.4079
-58.7505
-59.075
-59.3949
-59.7098
-60.0149
-60.3075
-60.5868
-60.8526
-61.1044
-61.3418
-61.5643
-61.7716
-61.9636
-62.1404
-62.3023
-62.4496
-62.5827
-62.702
-62.8041
-49.734
-50.0714
-50.3984
-50.7148
-51.0206
-51.3151
-51.5975
-51.8675
-52.1246
-52.3685
-52.5988
-52.8151
-53.0172
-53.2049
-53.3783
-53.5372
-53.6816
-53.8112
-53.9254
-54.0218
-42.934
-43.2548
-43.5678
-43.8696
-44.1598
-44.439
-44.707
-44.9634
-45.2077
-45.4396
-45.6588
-45.8648
-46.0575
-46.2369
-46.4025
-46.5544
-46.6924
-46.8161
-46.925
-47.0185
-37.0854
-37.3861
-37.6805
-37.9649
-38.2384
-38.5013
-38.7535
-38.9946
-39.2244
-39.4423
-39.6482
-39.8418
-40.0228
-40.1912
-40.3468
-40.4894
-40.6188
-40.7349
-40.8373
-40.926
-32.1133
-32.3952
-32.6715
-32.9389
-33.196
-33.4429
-33.6794
-33.9054
-34.1203
-34.324
-34.5163
-34.6969
-34.8656
-35.0224
-35.167
-35.2994
-35.4194
-35.527
-35.6219
-35.704
-27.9057
-28.1711
-28.4312
-28.6829
-28.9248
-29.1568
-29.3787
-29.5904
-29.7914
-29.9817
-30.161
-30.3292
-30.4861
-30.6316
-30.7656
-30.8881
-30.9988
-31.0978
-31.1848
-31.26
-24.3276
-24.5787
-24.8245
-25.0623
-25.2906
-25.5093
-25.7181
-25.9169
-26.1054
-26.2835
-26.4511
-26.608
-26.754
-26.8892
-27.0134
-27.1266
-27.2286
-27.3195
-27.3992
-27.4676
-21.2715
-21.5105
-21.744
-21.9697
-22.1862
-22.3931
-22.5904
-22.7778
-22.9552
-23.1225
-23.2796
-23.4264
-23.5628
-23.6887
-23.8042
-23.909
-24.0032
-24.0868
-24.1597
-24.2219
-18.6529
-18.8816
-19.1048
-19.3201
-19.5263
-19.723
-19.9101
-20.0875
-20.2551
-20.4128
-20.5607
-20.6986
-20.8265
-20.9443
-21.052
-21.1496
-21.2369
-21.314
-21.3808
-21.4376
-16.4028
-16.6228
-16.8373
-17.0439
-17.2412
-17.4289
-17.607
-17.7755
-17.9345
-18.0838
-18.2235
-18.3536
-18.4741
-18.5848
-18.6858
-18.777
-18.8583
-18.9297
-18.9913
-19.0431
-14.4645
-14.6773
-14.8846
-15.0837
-15.2732
-15.453
-15.6231
-15.7838
-15.935
-16.0768
-16.2094
-16.3327
-16.4466
-16.5511
-16.6462
-16.7319
-16.8079
-16.8745
-16.9315
-16.9791
-12.791
-12.9979
-13.1996
-13.3924
-13.575
-13.7475
-13.9104
-14.064
-14.2083
-14.3435
-14.4697
-14.5869
-14.6952
-14.7943
-14.8843
-14.9651
-15.0367
-15.099
-15.152
-15.1959
-11.3434
-11.5457
-11.7431
-11.9306
-12.1068
-12.2727
-12.429
-12.576
-12.7141
-12.8434
-12.9639
-13.0758
-13.1791
-13.2735
-13.3591
-13.4357
-13.5034
-13.562
-13.6116
-13.6523
-10.089
-10.2881
-10.4826
-10.6653
-10.8356
-10.9953
-11.1454
-11.2865
-11.4188
-11.5428
-11.6583
-11.7656
-11.8644
-11.9548
-12.0365
-12.1095
-12.1737
-12.2292
-12.2758
-12.3137
-8.99986
-9.19863
-9.39163
-9.56955
-9.73395
-9.88772
-10.032
-10.1675
-10.2947
-10.4138
-10.5249
-10.628
-10.723
-10.8097
-10.888
-10.9577
-11.0189
-11.0715
-11.1155
-11.1509
-8.04801
-8.25262
-8.4467
-8.61958
-8.7779
-8.92597
-9.06484
-9.19521
-9.31769
-9.43251
-9.53967
-9.63907
-9.73057
-9.81401
-9.88922
-9.95609
-10.0146
-10.0646
-10.1061
-10.1392
-7.20142
-7.41948
-7.61994
-7.78893
-7.94163
-8.08458
-8.21872
-8.34477
-8.46335
-8.57466
-8.67861
-8.77503
-8.86374
-8.94455
-9.01729
-9.08182
-9.13807
-9.18599
-9.22552
-9.25677
-6.45199
-6.68131
-6.89096
-7.05981
-7.2084
-7.34653
-7.47641
-7.59872
-7.71393
-7.82219
-7.9234
-8.01732
-8.10371
-8.18237
-8.2531
-8.31578
-8.37032
-8.41668
-8.4548
-8.48476
-5.91161
-6.13634
-6.32588
-6.48937
-6.63066
-6.75829
-6.87874
-6.99302
-7.10077
-7.20197
-7.29653
-7.38418
-7.46463
-7.53766
-7.60309
-7.66082
-7.71075
-7.75286
-7.78709
-7.81352
-2.26224
-2.81175
-3.4581
-4.20397
-5.06512
-6.0604
-7.21067
-8.54044
-10.0789
-11.8611
-13.9289
-16.3332
-19.136
-22.4143
-26.2673
-30.8249
-36.2019
-42.4913
-50.6568
-62.3727
-2.41791
-2.97157
-3.61962
-4.36796
-5.23226
-6.23115
-7.38558
-8.72017
-10.2643
-12.0529
-14.1284
-16.5416
-19.3552
-22.6461
-26.5145
-31.0905
-36.4891
-42.8008
-50.984
-62.707
-2.57851
-3.13642
-3.78636
-4.53743
-5.40515
-6.40792
-7.56679
-8.90651
-10.4566
-12.2521
-14.3356
-16.7583
-19.5831
-22.8874
-26.7716
-31.3663
-36.7864
-43.1199
-51.3175
-63.0388
-2.74348
-3.30572
-3.95768
-4.71171
-5.58308
-6.58996
-7.75348
-9.09855
-10.6548
-12.4575
-14.5493
-16.9819
-19.8182
-23.1361
-27.0365
-31.6501
-37.0918
-43.4483
-51.6646
-63.3917
-2.91239
-3.47902
-4.13317
-4.89039
-5.76562
-6.7768
-7.94518
-9.29581
-10.8584
-12.6685
-14.7689
-17.2115
-20.0596
-23.3915
-27.3083
-31.9411
-37.4049
-43.7857
-52.0247
-63.7641
-3.0849
-3.65597
-4.31247
-5.07311
-5.95243
-6.96812
-8.14154
-9.49792
-11.0671
-12.8848
-14.994
-17.4469
-20.307
-23.6532
-27.5868
-32.2393
-37.7257
-44.1316
-52.3949
-64.1497
-3.26069
-3.83623
-4.49522
-5.25954
-6.14316
-7.16355
-8.34221
-9.70453
-11.2805
-13.106
-15.2242
-17.6876
-20.5602
-23.9209
-27.8718
-32.5444
-38.0539
-44.485
-52.7731
-64.5446
-3.43953
-4.01953
-4.68116
-5.44936
-6.3375
-7.36277
-8.54683
-9.91525
-11.4982
-13.3317
-15.4591
-17.9333
-20.8185
-24.1942
-28.1626
-32.8558
-38.3886
-44.8453
-53.1584
-64.9477
-3.62125
-4.20569
-4.87005
-5.64234
-6.53517
-7.56546
-8.75505
-10.1297
-11.7197
-13.5613
-15.6982
-18.1833
-21.0814
-24.4723
-28.4586
-33.1727
-38.7293
-45.2118
-53.5501
-65.3578
-3.8058
-4.39459
-5.06174
-5.83829
-6.73594
-7.77134
-8.96655
-10.3475
-11.9447
-13.7946
-15.9409
-18.4372
-21.3483
-24.7546
-28.7591
-33.4944
-39.0751
-45.5836
-53.9474
-65.774
-3.99324
-4.58623
-5.25616
-6.03706
-6.93959
-7.98014
-9.18099
-10.5683
-12.1727
-14.0308
-16.1868
-18.6943
-21.6186
-25.0405
-29.0634
-33.8202
-39.4252
-45.96
-54.3493
-66.1948
-4.18379
-4.78068
-5.45328
-6.23853
-7.1459
-8.19156
-9.39798
-10.7916
-12.4031
-14.2696
-16.4352
-18.954
-21.8917
-25.3293
-29.3708
-34.1492
-39.7788
-46.3399
-54.7547
-66.6193
-4.37781
-4.97816
-5.6531
-6.44254
-7.35462
-8.40521
-9.61709
-11.0168
-12.6355
-14.5102
-16.6855
-19.2156
-22.1667
-25.6202
-29.6804
-34.4806
-40.135
-46.7225
-55.1628
-67.0463
-4.57574
-5.17877
-5.85551
-6.6488
-7.5653
-8.62059
-9.83771
-11.2435
-12.8692
-14.7521
-16.937
-19.4784
-22.4429
-25.9124
-29.9914
-34.8136
-40.4927
-47.1069
-55.5727
-67.475
-4.77805
-5.38256
-6.0602
-6.85681
-7.77731
-8.83698
-10.0591
-11.4708
-13.1033
-14.9943
-17.1887
-19.7415
-22.7194
-26.2048
-30.3027
-35.1469
-40.8512
-47.4921
-55.9836
-67.9047
-4.98469
-5.58873
-6.26604
-7.06533
-7.98948
-9.0533
-10.2803
-11.6977
-13.337
-15.236
-17.4399
-20.004
-22.9953
-26.4967
-30.6134
-35.4797
-41.2091
-47.8773
-56.3949
-68.335
-5.1951
-5.79592
-6.47139
-7.27281
-8.20041
-9.26829
-10.5001
-11.9232
-13.5693
-15.4762
-17.6896
-20.2648
-23.2695
-26.7868
-30.9223
-35.8107
-41.5654
-48.2613
-56.8063
-68.7663
-5.40409
-5.99761
-6.67102
-7.47573
-8.40776
-9.48023
-10.7171
-12.1461
-13.7991
-15.714
-17.9368
-20.5231
-23.5411
-27.0741
-31.2284
-36.1385
-41.9183
-48.6425
-57.2171
-69.2002
-5.60506
-6.18851
-6.86199
-7.67267
-8.6104
-9.688
-10.9304
-12.3655
-14.0254
-15.9483
-18.1804
-20.7778
-23.8088
-27.3574
-31.53
-36.4616
-42.2658
-49.0184
-57.6265
-69.6399
-5.75317
-6.33559
-7.03316
-7.86087
-8.80722
-9.89094
-11.1393
-12.5808
-14.2476
-16.1784
-18.4197
-21.0279
-24.0718
-27.6355
-31.8261
-36.7785
-42.6058
-49.3842
-58.0276
-70.0895
-0.778514
-1.2113
-1.80532
-2.51343
-3.33178
-4.27918
-5.3777
-6.651
-8.12664
-9.83745
-11.8226
-14.129
-16.8136
-19.9462
-23.6178
-27.9481
-33.0429
-38.9951
-46.801
-58.2379
-0.818231
-1.26503
-1.86495
-2.56612
-3.37637
-4.31779
-5.41173
-6.68125
-8.1538
-9.86212
-11.8453
-14.1503
-16.8341
-19.9666
-23.6392
-27.9724
-33.0719
-39.0285
-46.8329
-58.2589
-0.808637
-1.28408
-1.89478
-2.5992
-3.41092
-4.35291
-5.44651
-6.71519
-8.18678
-9.89426
-11.8769
-14.1817
-16.8658
-19.9994
-23.674
-28.0107
-33.1154
-39.0762
-46.8745
-58.2758
-0.813037
-1.2993
-1.91574
-2.62507
-3.44104
-4.38613
-5.48174
-6.75169
-8.22412
-9.93227
-11.9156
-14.2213
-16.9068
-20.0424
-23.7199
-28.0606
-33.1711
-39.1386
-46.9388
-58.3285
-0.8279
-1.31875
-1.93941
-2.65303
-3.47297
-4.42143
-5.51979
-6.79199
-8.26632
-9.97617
-11.9611
-14.2687
-16.9564
-20.0949
-23.7762
-28.1219
-33.2393
-39.2164
-47.0257
-58.4155
-0.84693
-1.34306
-1.96792
-2.68546
-3.50916
-4.46109
-5.56257
-6.83757
-8.31447
-10.0268
-12.0142
-14.3244
-17.0152
-20.1575
-23.8436
-28.1955
-33.3212
-39.3095
-47.1313
-58.527
-0.872791
-1.37431
-2.00274
-2.72375
-3.55107
-4.50654
-5.61139
-6.88956
-8.36949
-10.0848
-12.0753
-14.3889
-17.0836
-20.2305
-23.9225
-28.2819
-33.4172
-39.4179
-47.2537
-58.6583
-0.908703
-1.41466
-2.04577
-2.76968
-3.60027
-4.55916
-5.66739
-6.94892
-8.4322
-10.1509
-12.145
-14.4626
-17.1619
-20.3143
-24.0132
-28.3812
-33.5273
-39.5416
-47.3926
-58.8085
-0.955574
-1.46518
-2.09831
-2.82458
-3.65806
-4.62009
-5.73161
-7.01655
-8.50336
-10.2258
-12.2239
-14.546
-17.2505
-20.4092
-24.1157
-28.4934
-33.6516
-39.6807
-47.5484
-58.9775
-1.01333
-1.52621
-2.16091
-2.88914
-3.72517
-4.6901
-5.80478
-7.09309
-8.58353
-10.3099
-12.3124
-14.6394
-17.3496
-20.5153
-24.2304
-28.6186
-33.7901
-39.8352
-47.7208
-59.1647
-1.0818
-1.59779
-2.23372
-2.96363
-3.80195
-4.76959
-5.8873
-7.17898
-8.67311
-10.4036
-12.4107
-14.743
-17.4595
-20.6328
-24.3572
-28.757
-33.9427
-40.0051
-47.9098
-59.3696
-1.1608
-1.67977
-2.31672
-3.04807
-3.88852
-4.85873
-5.97941
-7.27444
-8.77235
-10.5071
-12.519
-14.8571
-17.5803
-20.7618
-24.4963
-28.9086
-34.1096
-40.1902
-48.115
-59.5917
-1.24993
-1.77186
-2.40967
-3.14237
-3.98483
-4.95753
-6.08114
-7.37955
-8.88132
-10.6205
-12.6376
-14.9816
-17.7121
-20.9023
-24.6476
-29.0732
-34.2905
-40.3904
-48.3363
-59.8306
-1.34872
-1.87364
-2.51226
-3.24625
-4.09069
-5.06586
-6.19241
-7.49424
-8.99999
-10.7437
-12.7663
-15.1167
-17.8548
-21.0543
-24.811
-29.2508
-34.4853
-40.6056
-48.5736
-60.0862
-1.45661
-1.9846
-2.62403
-3.35933
-4.20577
-5.18344
-6.31297
-7.61833
-9.12819
-10.8767
-12.9049
-15.262
-18.0082
-21.2176
-24.9864
-29.4411
-34.6939
-40.8357
-48.8267
-60.3584
-1.573
-2.1042
-2.74448
-3.48116
-4.32969
-5.30993
-6.44253
-7.75153
-9.26567
-11.0192
-13.0533
-15.4175
-18.1722
-21.392
-25.1735
-29.6439
-34.9159
-41.0802
-49.0956
-60.6472
-1.69732
-2.23186
-2.87309
-3.61127
-4.46198
-5.44491
-6.58071
-7.8935
-9.4121
-11.1709
-13.2112
-15.5828
-18.3464
-21.577
-25.3719
-29.8587
-35.1508
-41.3391
-49.3803
-60.9532
-1.82897
-2.36702
-3.00931
-3.74914
-4.60219
-5.58795
-6.72711
-8.04386
-9.56712
-11.3314
-13.3782
-15.7575
-18.5304
-21.7724
-25.5813
-30.0851
-35.398
-41.6114
-49.6809
-61.2775
-1.96737
-2.50909
-3.15258
-3.89423
-4.74979
-5.73854
-6.88122
-8.20212
-9.73026
-11.5003
-13.5538
-15.9412
-18.7238
-21.9776
-25.8008
-30.3223
-35.6565
-41.8961
-49.9969
-61.6221
-2.11203
-2.65758
-3.30244
-4.0461
-4.90437
-5.8963
-7.04269
-8.36795
-9.90119
-11.6772
-13.7377
-16.1335
-18.9261
-22.1921
-26.0302
-30.5696
-35.9253
-42.1906
-50.3246
-61.9899
-0.577419
-0.509275
-0.504055
-0.522153
-0.556072
-0.600856
-0.655099
-0.717774
-0.788288
-0.866133
-0.950875
-1.04211
-1.13942
-1.2424
-1.35066
-1.46381
-1.58145
-1.70318
-1.82862
-1.95746
-1.12136
-1.07155
-1.05694
-1.06843
-1.09803
-1.14042
-1.19344
-1.25566
-1.32623
-1.40451
-1.48997
-1.58213
-1.68054
-1.78477
-1.8944
-2.009
-2.12815
-2.25143
-2.3784
-2.50878
-1.73094
-1.69393
-1.68083
-1.69049
-1.71777
-1.75878
-1.8112
-1.87349
-1.94464
-2.02389
-2.11063
-2.20433
-2.30451
-2.4107
-2.52244
-2.63931
-2.76086
-2.88664
-3.01619
-3.14924
-2.45406
-2.42191
-2.41014
-2.41858
-2.44376
-2.48298
-2.53419
-2.59586
-2.66692
-2.74652
-2.83401
-2.92878
-3.03031
-3.13809
-3.25166
-3.37054
-3.49426
-3.62234
-3.75432
-3.88992
-3.28686
-3.2597
-3.24987
-3.25812
-3.28227
-3.32043
-3.37087
-3.43221
-3.50338
-3.58351
-3.67189
-3.76788
-3.8709
-3.98044
-4.09597
-4.217
-4.34305
-4.47358
-4.60812
-4.74643
-4.24432
-4.2225
-4.21555
-4.22473
-4.24892
-4.28685
-4.33718
-4.3987
-4.4704
-4.55141
-4.641
-4.73851
-4.84334
-4.95492
-5.07271
-5.19621
-5.32488
-5.45816
-5.59557
-5.73691
-5.34974
-5.33271
-5.32898
-5.33981
-5.36482
-5.40322
-5.454
-5.51615
-5.58874
-5.67097
-5.76208
-5.86141
-5.96833
-6.08226
-6.20264
-6.32891
-6.46053
-6.59689
-6.73752
-6.88224
-6.6282
-6.61535
-6.61483
-6.62774
-6.65413
-6.69356
-6.74529
-6.8085
-6.88238
-6.96617
-7.05914
-7.16062
-7.26997
-7.3866
-7.5099
-7.63933
-7.77427
-7.91411
-8.05836
-8.2069
-8.10798
-8.09881
-8.10139
-8.11663
-8.14483
-8.18576
-8.23891
-8.30362
-8.3792
-8.46495
-8.56017
-8.66419
-8.77637
-8.8961
-9.02278
-9.1558
-9.29454
-9.43833
-9.58668
-9.73957
-9.82219
-9.81628
-9.8218
-9.83952
-9.86983
-9.91266
-9.96766
-10.0343
-10.112
-10.2002
-10.2981
-10.4051
-10.5206
-10.6439
-10.7745
-10.9116
-11.0547
-11.203
-11.3561
-11.514
-11.8101
-11.8071
-11.8153
-11.8356
-11.8682
-11.9132
-11.9704
-12.0395
-12.1198
-12.2108
-12.3118
-12.4224
-12.5417
-12.6692
-12.8043
-12.9462
-13.0943
-13.2478
-13.4063
-13.5699
-14.1189
-14.1182
-14.1289
-14.1516
-14.1866
-14.234
-14.2938
-14.3655
-14.4488
-14.5431
-14.6479
-14.7625
-14.8862
-15.0186
-15.1588
-15.3062
-15.4601
-15.6196
-15.7842
-15.9544
-16.8052
-16.8063
-16.8191
-16.8439
-16.8812
-16.9311
-16.9935
-17.0682
-17.1549
-17.2529
-17.3619
-17.4811
-17.6099
-17.7477
-17.8938
-18.0475
-18.2079
-18.3742
-18.546
-18.7237
-19.9387
-19.9408
-19.9549
-19.9813
-20.0205
-20.0727
-20.1378
-20.2156
-20.3058
-20.4079
-20.5214
-20.6457
-20.7801
-20.924
-21.0767
-21.2375
-21.4054
-21.5794
-21.7592
-21.9453
-23.6099
-23.6118
-23.6261
-23.6532
-23.6936
-23.7475
-23.8149
-23.8956
-23.9893
-24.0955
-24.2138
-24.3434
-24.4839
-24.6345
-24.7944
-24.963
-25.1392
-25.3219
-25.5107
-25.7061
-27.9381
-27.938
-27.9508
-27.977
-28.0173
-28.0718
-28.1406
-28.2235
-28.3203
-28.4304
-28.5533
-28.6884
-28.8351
-28.9926
-29.1603
-29.3373
-29.5226
-29.7148
-29.9133
-30.1187
-33.0287
-33.0241
-33.0327
-33.0554
-33.093
-33.1461
-33.2147
-33.2985
-33.3972
-33.5102
-33.6371
-33.7772
-33.9297
-34.094
-34.2694
-34.4549
-34.6495
-34.8517
-35.0604
-35.2761
-38.9739
-38.9601
-38.9588
-38.9732
-39.0045
-39.0531
-39.1189
-39.2014
-39.3001
-39.4144
-39.5437
-39.6873
-39.8445
-40.0146
-40.1966
-40.3896
-40.5929
-40.8055
-41.026
-41.2534
-46.7594
-46.7227
-46.7018
-46.702
-46.723
-46.7641
-46.8244
-46.903
-46.9993
-47.1125
-47.2419
-47.387
-47.547
-47.7211
-47.9083
-48.1078
-48.3198
-48.5455
-48.784
-49.0267
-58.136
-58.0568
-58.0128
-57.9984
-58.0092
-58.0425
-58.0967
-58.1705
-58.2632
-58.374
-58.5024
-58.6476
-58.8092
-58.9866
-59.179
-59.3858
-59.6088
-59.8526
-60.1173
-60.378
-2.08938
-2.22352
-2.35963
-2.49716
-2.63565
-2.77458
-2.91344
-3.05172
-3.18892
-3.32454
-3.4581
-3.58905
-3.71657
-3.8396
-3.95696
-4.06634
-4.16099
-4.22901
-4.25602
-4.24722
-2.64226
-2.77789
-2.91543
-3.0543
-3.19402
-3.33408
-3.47393
-3.61306
-3.75094
-3.88702
-4.02077
-4.15155
-4.27855
-4.40059
-4.51601
-4.62306
-4.71892
-4.79216
-4.81982
-4.83504
-3.28548
-3.42391
-3.56427
-3.706
-3.84859
-3.99151
-4.13423
-4.2762
-4.41689
-4.55571
-4.69208
-4.82533
-4.95461
-5.07878
-5.19626
-5.30557
-5.40507
-5.48731
-5.53919
-5.58573
-4.02886
-4.17002
-4.31318
-4.45774
-4.60319
-4.749
-4.89462
-5.03948
-5.18301
-5.32463
-5.4637
-5.5995
-5.73117
-5.85758
-5.97736
-6.0892
-6.19142
-6.27928
-6.34894
-6.41925
-4.88821
-5.03225
-5.17834
-5.32585
-5.47429
-5.62309
-5.77168
-5.9195
-6.06596
-6.21042
-6.35223
-6.49065
-6.62481
-6.75363
-6.87596
-6.99067
-7.09614
-7.18941
-7.2712
-7.35549
-5.88185
-6.02908
-6.17842
-6.3292
-6.48094
-6.63303
-6.78492
-6.936
-7.08567
-7.23329
-7.37817
-7.51957
-7.65663
-7.78838
-7.91385
-8.03212
-8.14185
-8.24143
-8.33305
-8.42618
-7.03073
-7.18154
-7.33449
-7.48894
-7.64435
-7.80014
-7.95571
-8.11045
-8.26375
-8.41495
-8.56336
-8.70825
-8.84879
-8.98412
-9.11344
-9.23599
-9.3508
-9.45724
-9.55761
-9.65798
-8.35938
-8.51421
-8.67125
-8.82981
-8.98937
-9.14932
-9.30907
-9.46798
-9.62543
-9.78075
-9.93328
-10.0823
-10.227
-10.3667
-10.5006
-10.6282
-10.7489
-10.8624
-10.9709
-11.0782
-9.89659
-10.056
-10.2177
-10.3809
-10.5452
-10.7099
-10.8745
-11.0382
-11.2004
-11.3606
-11.5179
-11.6718
-11.8215
-11.9664
-12.1059
-12.2394
-12.3666
-12.4875
-12.6039
-12.7184
-11.6762
-11.8408
-12.0078
-12.1764
-12.3462
-12.5164
-12.6864
-12.8557
-13.0236
-13.1894
-13.3525
-13.5122
-13.6678
-13.8189
-13.9648
-14.1052
-14.2397
-14.3686
-14.493
-14.6152
-13.7381
-13.9087
-14.0818
-14.2566
-14.4326
-14.6091
-14.7856
-14.9614
-15.1358
-15.3082
-15.478
-15.6446
-15.8073
-15.9656
-16.119
-16.2673
-16.4101
-16.5475
-16.6806
-16.8112
-16.1294
-16.307
-16.487
-16.6689
-16.8521
-17.036
-17.2198
-17.4031
-17.5851
-17.7653
-17.943
-18.1176
-18.2885
-18.4552
-18.6174
-18.7747
-18.9268
-19.0737
-19.2162
-19.3564
-18.9065
-19.0919
-19.2799
-19.4698
-19.6612
-19.8534
-20.0457
-20.2376
-20.4285
-20.6176
-20.8044
-20.9882
-21.1687
-21.3452
-21.5174
-21.685
-21.8476
-22.0051
-22.1581
-22.3089
-22.137
-22.331
-22.5279
-22.7269
-22.9275
-23.129
-23.331
-23.5327
-23.7335
-23.9328
-24.13
-24.3245
-24.5158
-24.7035
-24.8871
-25.0664
-25.2409
-25.4102
-25.575
-25.7377
-25.9074
-26.111
-26.3175
-26.5264
-26.7371
-26.9491
-27.1616
-27.3742
-27.5862
-27.7969
-28.0057
-28.2122
-28.4157
-28.6159
-28.8124
-29.0048
-29.1926
-29.3752
-29.5532
-29.729
-30.33
-30.5436
-30.7604
-30.9798
-31.2013
-31.4244
-31.6484
-31.8728
-32.0968
-32.32
-32.5416
-32.7611
-32.9781
-33.192
-33.4026
-33.6096
-33.8123
-34.0097
-34.2021
-34.3918
-35.4978
-35.7217
-35.9486
-36.1783
-36.4106
-36.645
-36.8808
-37.1175
-37.3542
-37.5904
-37.8255
-38.0589
-38.2901
-38.5187
-38.7444
-38.9668
-39.1854
-39.3989
-39.6067
-39.8112
-41.4852
-41.7176
-41.9525
-42.1911
-42.4331
-42.6781
-42.9253
-43.1739
-43.4232
-43.6723
-43.9208
-44.168
-44.4135
-44.6568
-44.8974
-45.135
-45.3694
-45.6005
-45.8274
-46.0495
-49.2608
-49.4938
-49.7313
-49.9754
-50.225
-50.479
-50.7361
-50.9953
-51.2556
-51.5163
-51.7767
-52.0363
-52.2948
-52.5517
-52.8064
-53.0586
-53.3101
-53.5647
-53.8219
-54.0684
-60.588
-60.8074
-61.0426
-61.2892
-61.5438
-61.804
-62.068
-62.3345
-62.6026
-62.8716
-63.1407
-63.4098
-63.6788
-63.9476
-64.2159
-64.4841
-64.7567
-65.0431
-65.3446
-65.6207
-65.7937
-54.2843
-46.2643
-40.0122
-34.5787
-29.9023
-25.8981
-22.4575
-19.4944
-16.94
-14.7358
-12.8319
-11.1858
-9.76084
-8.52598
-7.45396
-6.5188
-5.69821
-4.99354
-4.41746
-65.9679
-54.4846
-46.4672
-40.2047
-34.7583
-30.0692
-26.0528
-22.601
-19.6278
-17.0646
-14.8527
-12.9422
-11.2906
-9.86136
-8.62348
-7.54994
-6.61632
-5.80586
-5.12397
-4.55543
-66.1558
-54.6801
-46.6631
-40.392
-34.9335
-30.2319
-26.2036
-22.7408
-19.7579
-17.186
-14.9666
-13.0498
-11.3927
-9.95909
-8.71771
-7.64162
-6.70689
-5.89688
-5.21198
-4.62841
-66.3523
-54.8767
-46.8556
-40.5753
-35.1048
-30.3908
-26.3508
-22.8772
-19.8846
-17.3042
-15.0774
-13.1541
-11.4915
-10.053
-8.80741
-7.72767
-6.78997
-5.97691
-5.28526
-4.68891
-66.5534
-55.0741
-47.0461
-40.7556
-35.2731
-30.5467
-26.4949
-23.0106
-20.0084
-17.4195
-15.1853
-13.2555
-11.587
-10.1434
-8.89301
-7.8088
-6.8668
-6.04902
-5.34998
-4.74414
-66.7565
-55.2722
-47.2355
-40.9339
-35.4389
-30.6999
-26.6363
-23.1413
-20.1295
-17.5322
-15.2905
-13.3541
-11.6798
-10.2308
-8.97544
-7.88655
-6.94011
-6.11777
-5.41245
-4.79946
-66.9606
-55.4704
-47.4241
-41.1104
-35.6025
-30.8509
-26.7754
-23.2696
-20.2483
-17.6425
-15.3934
-13.4504
-11.7702
-10.3159
-9.0556
-7.96207
-7.01135
-6.18487
-5.47418
-4.85562
-67.1653
-55.6687
-47.612
-41.2857
-35.7645
-31
-26.9125
-23.3959
-20.3651
-17.751
-15.4945
-13.545
-11.859
-10.3994
-9.13427
-8.03631
-7.08162
-6.25144
-5.5361
-4.91295
-67.3703
-55.8669
-47.7993
-41.4599
-35.9251
-31.1475
-27.048
-23.5206
-20.4803
-17.8579
-15.5941
-13.6382
-11.9465
-10.4817
-9.212
-8.10985
-7.15145
-6.31789
-5.59835
-4.97126
-67.5757
-56.0651
-47.9862
-41.6333
-36.0847
-31.2937
-27.1821
-23.644
-20.5942
-17.9635
-15.6926
-13.7304
-12.0331
-10.5634
-9.28922
-8.18306
-7.22116
-6.38442
-5.66096
-5.03034
-67.7819
-56.2636
-48.1729
-41.8062
-36.2434
-31.439
-27.3152
-23.7663
-20.7071
-18.0683
-15.7903
-13.8219
-12.1192
-10.6447
-9.36621
-8.25619
-7.29092
-6.4511
-5.7239
-5.09004
-67.989
-56.4625
-48.3596
-41.9787
-36.4015
-31.5835
-27.4475
-23.8878
-20.8193
-18.1725
-15.8875
-13.913
-12.2051
-10.7259
-9.44318
-8.32942
-7.36087
-6.51802
-5.78716
-5.15028
-68.1978
-56.6621
-48.5466
-42.1511
-36.5591
-31.7275
-27.5792
-24.0088
-20.9311
-18.2762
-15.9844
-14.004
-12.2909
-10.8071
-9.52033
-8.40291
-7.43112
-6.58525
-5.85079
-5.21106
-68.4084
-56.8626
-48.7338
-42.3234
-36.7165
-31.8711
-27.7105
-24.1294
-21.0425
-18.3798
-16.0812
-14.095
-12.3768
-10.8886
-9.59782
-8.47681
-7.50181
-6.65291
-5.91487
-5.27245
-68.6211
-57.064
-48.9215
-42.4959
-36.8738
-32.0144
-27.8415
-24.2498
-21.1538
-18.4834
-16.1782
-14.1863
-12.4631
-10.9705
-9.67582
-8.55128
-7.5731
-6.72114
-5.97956
-5.33461
-68.8366
-57.2663
-49.1095
-42.6685
-37.0311
-32.1576
-27.9724
-24.3701
-21.2651
-18.5871
-16.2754
-14.278
-12.5499
-11.053
-9.7545
-8.62649
-7.64515
-6.79013
-6.04503
-5.3977
-69.0576
-57.4709
-49.2981
-42.8411
-37.188
-32.3004
-28.1029
-24.4902
-21.3764
-18.6909
-16.373
-14.3701
-12.6373
-11.1363
-9.83402
-8.70259
-7.71814
-6.86005
-6.11147
-5.46193
-69.2899
-57.6801
-49.4872
-43.013
-37.3442
-32.4424
-28.2329
-24.61
-21.4877
-18.795
-16.4709
-14.4627
-12.7254
-11.2203
-9.91446
-8.77972
-7.79221
-6.93108
-6.17908
-5.52751
-69.5343
-57.8936
-49.6763
-43.184
-37.4997
-32.5842
-28.3628
-24.73
-21.5992
-18.8995
-16.5694
-14.5562
-12.8145
-11.3054
-9.99602
-8.85805
-7.86755
-7.00342
-6.24808
-5.59467
-69.7663
-58.1035
-49.8651
-43.3555
-37.6562
-32.7273
-28.4942
-24.8514
-21.7122
-19.0054
-16.6694
-14.6511
-12.905
-11.3921
-10.0792
-8.93802
-7.94455
-7.07742
-6.31882
-5.66377
-3.99638
-2.4736
-1.69198
-1.17964
-0.883366
-0.678513
-0.54268
-0.444478
-0.372442
-0.316794
-0.272319
-0.235086
-0.202462
-0.172578
-0.144463
-0.117986
-0.093657
-0.0722161
-0.0542325
-0.0398761
-0.0289077
-0.0208172
-0.0149905
-0.0108463
-0.0079061
-0.00580703
-0.00429227
-0.00318758
-0.00237474
-0.00177038
-0.00131809
-0.000978438
-0.00072783
-0.000538656
-0.000395123
-0.000270019
-0.00017739
-8.37607e-05
-5.20561e-05
2.93489e-05
-4.08198
-2.52283
-1.73236
-1.20549
-0.900721
-0.689353
-0.548936
-0.447502
-0.3732
-0.315998
-0.270514
-0.232724
-0.199951
-0.170282
-0.142666
-0.11685
-0.093209
-0.0723735
-0.0548538
-0.0408076
-0.030014
-0.0219924
-0.0161599
-0.011961
-0.00893847
-0.0067408
-0.00512258
-0.00391532
-0.00300375
-0.00230865
-0.00177285
-0.00135864
-0.00104211
-0.000793858
-0.000598713
-0.000428131
-0.000294789