/*--------------------------------*- C++ -*----------------------------------*\
| =========                 |                                                 |
| \\      /  F ield         | OpenFOAM: The Open Source CFD Toolbox           |
|  \\    /   O peration     | Version:  v1912                                 |
|   \\  /    A nd           | Website:  www.openfoam.com                      |
|    \\/     M anipulation  |                                                 |
\*---------------------------------------------------------------------------*/
FoamFile
{
    version     2.0;
    format      ascii;
    class       volVectorField;
    location    "14.5";
    object      U;
}
// * * * * * * * * * * * * * * * * * * * * * * * * * * * * * * * * * * * * * //

dimensions      [0 1 -1 0 0 0 0];


internalField   nonuniform List<vector> 
9600
(
(0.457707 -9.40259 -1.50455e-19)
(0.156703 -8.70312 0)
(0.230707 -8.23102 -8.7515e-20)
(0.298818 -7.89729 0)
(0.355472 -7.64014 0)
(0.41337 -7.42072 -3.03453e-20)
(0.468903 -7.21762 -4.55306e-22)
(0.519244 -7.01997 2.50927e-20)
(0.563754 -6.82308 0)
(0.60248 -6.62571 -4.23451e-20)
(0.635769 -6.42843 0)
(0.664166 -6.23259 -1.7381e-21)
(0.68831 -6.03977 -2.53215e-21)
(0.708856 -5.8514 -2.92292e-20)
(0.726431 -5.66864 2.44843e-20)
(0.741601 -5.49224 -2.4055e-20)
(0.75484 -5.32247 2.13061e-20)
(0.766635 -5.15913 0)
(0.77773 -5.00139 -1.68391e-20)
(0.787733 -4.84784 1.85314e-20)
(0.827041 -9.38982 -3.0009e-19)
(0.501477 -8.72544 1.18755e-20)
(0.55855 -8.2674 1.80382e-19)
(0.614564 -7.94194 -1.52476e-19)
(0.661428 -7.68888 1.50372e-19)
(0.710496 -7.46997 0)
(0.757436 -7.26494 5.76917e-20)
(0.799113 -7.06392 -5.7418e-20)
(0.834814 -6.8629 -9.91375e-20)
(0.864634 -6.66115 1.24515e-19)
(0.889014 -6.45956 -8.07714e-20)
(0.908603 -6.25972 -3.26506e-20)
(0.924138 -6.06333 6.60722e-20)
(0.936348 -5.87189 0)
(0.945915 -5.68656 0)
(0.953435 -5.5081 9.14072e-20)
(0.959385 -5.33676 -1.54869e-19)
(0.964268 -5.17226 0)
(0.968904 -5.01368 0)
(0.972639 -4.8595 -7.11683e-20)
(1.19653 -9.36343 6.19714e-19)
(0.84808 -8.73482 0)
(0.889348 -8.29106 -3.63303e-19)
(0.933927 -7.97408 -3.27839e-19)
(0.971278 -7.72518 0)
(1.01151 -7.50683 5.19086e-19)
(1.04966 -7.29998 -4.89044e-19)
(1.08238 -7.09575 9.52679e-20)
(1.10892 -6.89083 -2.12161e-19)
(1.12948 -6.68498 -3.50522e-19)
(1.14461 -6.47945 4.76585e-19)
(1.15509 -6.276 -2.9383e-19)
(1.16174 -6.07645 -1.31073e-19)
(1.16539 -5.88234 0)
(1.16677 -5.69486 5.18662e-21)
(1.16649 -5.51474 9.64719e-20)
(1.16505 -5.34222 4.14036e-20)
(1.16296 -5.17695 0)
(1.16109 -5.01791 7.49183e-20)
(1.15847 -4.8635 7.68974e-20)
(1.56507 -9.32307 -8.3713e-19)
(1.19591 -8.731 -3.89497e-19)
(1.22255 -8.30185 3.78484e-19)
(1.25636 -7.99346 6.44589e-19)
(1.28447 -7.74875 -3.1238e-19)
(1.31584 -7.531 5.06338e-21)
(1.34501 -7.32243 2.40179e-19)
(1.36846 -7.11518 2.16665e-19)
(1.38551 -6.90664 3.94986e-19)
(1.39645 -6.69704 0)
(1.40201 -6.48794 1.50425e-19)
(1.40309 -6.2813 -1.60211e-19)
(1.40062 -6.07902 9.97252e-21)
(1.39551 -5.88268 2.50572e-19)
(1.38854 -5.69347 2.13412e-19)
(1.38036 -5.5121 -3.00951e-19)
(1.37145 -5.33879 9.90727e-20)
(1.36234 -5.17316 -1.60323e-19)
(1.35396 -5.01403 1.59534e-19)
(1.34493 -4.85982 -7.69267e-20)
(1.93234 -9.2687 4.21815e-19)
(1.5447 -8.71388 0)
(1.55776 -8.29957 3.69847e-19)
(1.58137 -7.99981 0)
(1.60046 -7.75928 0)
(1.62292 -7.54218 -2.85287e-19)
(1.64288 -7.33203 -5.07819e-19)
(1.65677 -7.12197 -4.27792e-19)
(1.66398 -6.9101 1.81185e-20)
(1.66499 -6.69712 -1.83712e-19)
(1.66068 -6.48488 0)
(1.65209 -6.27549 -1.50663e-19)
(1.64029 -6.07093 -2.70658e-19)
(1.62624 -5.87281 2.36936e-19)
(1.6108 -5.68231 -6.72387e-19)
(1.59461 -5.50012 1.08838e-19)
(1.57818 -5.32643 8.55771e-20)
(1.56204 -5.16081 -1.7665e-19)
(1.54717 -5.00199 -7.69201e-20)
(1.53171 -4.84841 2.2943e-19)
(2.2978 -9.20023 4.05032e-19)
(1.89394 -8.68325 3.98599e-19)
(1.89448 -8.28397 0)
(1.90841 -7.99284 0)
(1.91868 -7.7565 -5.92393e-19)
(1.93216 -7.54011 3.25549e-19)
(1.94269 -7.32851 7.75685e-19)
(1.9467 -7.1159 0)
(1.94375 -6.90104 2.03235e-19)
(1.93451 -6.68509 1.83712e-19)
(1.92004 -6.47014 -3.22756e-19)
(1.90155 -6.25848 4.6786e-19)
(1.88022 -6.05213 1.36733e-19)
(1.8571 -5.8527 0)
(1.83307 -5.66134 1.13144e-19)
(1.80882 -5.47875 5.0589e-19)
(1.78483 -5.3051 -3.01457e-19)
(1.76167 -5.13989 3.37018e-19)
(1.74035 -4.98176 -6.40232e-19)
(1.71847 -4.82925 7.41153e-19)
(2.66092 -9.11768 4.11284e-19)
(2.24313 -8.63897 -2.17297e-18)
(2.23218 -8.25484 0)
(2.23695 -7.97232 0)
(2.23854 -7.74015 0)
(2.24295 -7.52453 -5.72256e-19)
(2.2438 -7.31168 0)
(2.23763 -7.09679 -9.09811e-19)
(2.2242 -6.87932 8.37288e-19)
(2.20441 -6.66082 -7.75323e-19)
(2.17954 -6.44365 0)
(2.15094 -6.23021 0)
(2.11992 -6.02255 0)
(2.08759 -5.82229 -2.58797e-19)
(2.0549 -5.63055 0)
(2.02254 -5.448 0)
(1.99098 -5.27479 -3.76602e-19)
(1.96084 -5.11039 3.70023e-19)
(1.93313 -4.95334 0)
(1.90487 -4.80235 0)
(3.02116 -9.02105 -1.33871e-18)
(2.59174 -8.5809 8.6392e-19)
(2.57031 -8.21198 0)
(2.56638 -7.93802 0)
(2.55943 -7.71001 0)
(2.55465 -7.49524 5.43664e-19)
(2.54558 -7.28133 -5.44616e-19)
(2.52893 -7.06449 -7.82267e-21)
(2.50472 -6.8448 -8.36441e-19)
(2.47411 -6.62422 7.82221e-19)
(2.43859 -6.40534 -3.51193e-19)
(2.3997 -6.19063 6.08145e-19)
(2.35884 -5.98219 -4.44684e-20)
(2.31722 -5.78159 -5.48404e-19)
(2.27581 -5.58993 -4.59872e-19)
(2.23531 -5.40786 4.51811e-19)
(2.19621 -5.2355 0)
(2.15912 -5.0723 0)
(2.12511 -4.91672 3.24156e-19)
(2.09055 -4.76771 -3.5778e-19)
(3.37796 -8.91039 8.94543e-19)
(2.93922 -8.50894 8.45252e-19)
(2.90829 -8.15522 -1.59893e-18)
(2.8961 -7.88974 7.53647e-19)
(2.88071 -7.66586 0)
(2.86661 -7.45206 5.81708e-19)
(2.84737 -7.23733 -5.07598e-19)
(2.81995 -7.01888 1.43225e-18)
(2.78467 -6.79741 -2.27173e-20)
(2.74299 -6.57525 0)
(2.69662 -6.35517 7.08316e-19)
(2.64727 -6.13974 0)
(2.59648 -5.93103 0)
(2.54549 -5.7306 -2.49745e-19)
(2.49532 -5.53951 5.04503e-19)
(2.44668 -5.35834 0)
(2.40005 -5.18726 3.92973e-19)
(2.35609 -5.02565 1.62678e-19)
(2.31588 -4.87192 -3.54252e-19)
(2.27512 -4.72535 3.43914e-19)
(3.73078 -8.78579 -9.18966e-19)
(3.28499 -8.42302 8.57908e-19)
(3.24553 -8.08442 -2.43787e-18)
(3.2255 -7.82731 7.65171e-19)
(3.20173 -7.60756 0)
(3.17817 -7.39485 -1.17082e-18)
(3.14851 -7.17956 5.62099e-19)
(3.11004 -6.95988 0)
(3.06343 -6.73709 -4.42189e-19)
(3.01044 -6.51386 -7.63655e-19)
(2.95304 -6.29314 -6.62173e-19)
(2.89311 -6.07753 5.12575e-20)
(2.83229 -5.8691 6.18703e-19)
(2.77189 -5.66936 2.49559e-19)
(2.71294 -5.4793 -3.59575e-20)
(2.65618 -5.2995 -4.69334e-19)
(2.60206 -5.13009 -2.09212e-19)
(2.5513 -4.97047 -1.88262e-19)
(2.505 -4.81898 5.00832e-19)
(2.45818 -4.67531 -7.48474e-19)
(4.07906 -8.64734 9.18968e-19)
(3.62847 -8.32309 -4.57644e-20)
(3.58142 -7.99946 7.80912e-19)
(3.55392 -7.75061 0)
(3.52183 -7.53497 -6.41786e-19)
(3.48865 -7.32349 1.23233e-18)
(3.44833 -7.10794 -1.04661e-18)
(3.39854 -6.88743 1.02993e-18)
(3.34035 -6.66382 -4.13746e-19)
(3.27586 -6.44007 8.41607e-19)
(3.20727 -6.21926 3.6288e-19)
(3.13666 -6.00405 0)
(3.06574 -5.79645 0)
(2.9959 -5.59791 -2.58599e-19)
(2.92819 -5.40937 3.6305e-20)
(2.86333 -5.23137 9.23062e-19)
(2.80177 -5.06405 -2.28329e-19)
(2.74429 -4.90679 7.50637e-19)
(2.69201 -4.75791 1.30174e-19)
(2.63929 -4.61762 -7.64436e-19)
(4.42225 -8.49517 -2.82171e-18)
(3.96909 -8.20915 -9.40864e-19)
(3.91534 -7.90029 -2.50234e-18)
(3.88071 -7.65953 -1.51575e-18)
(3.84033 -7.448 -7.17066e-19)
(3.79738 -7.23792 -7.00448e-19)
(3.74615 -7.02242 -2.27159e-18)
(3.68479 -6.80153 -4.69291e-20)
(3.6148 -6.5776 -1.81232e-18)
(3.53863 -6.35389 2.96581e-20)
(3.45874 -6.13358 -7.47625e-19)
(3.37736 -5.91933 -6.7939e-19)
(3.29631 -5.71312 6.18579e-19)
(3.21703 -5.51631 -5.64325e-19)
(3.14057 -5.32977 -5.15845e-19)
(3.06763 -5.15401 -4.72444e-19)
(2.99869 -4.98918 -1.26544e-18)
(2.93456 -4.83467 4.51016e-19)
(2.87645 -4.68877 1.08971e-18)
(2.818 -4.55231 -1.16145e-18)
(4.75981 -8.32942 3.79274e-18)
(4.30626 -8.08123 4.6324e-18)
(4.24668 -7.78684 7.91828e-19)
(4.20523 -7.55401 3.78263e-18)
(4.15656 -7.34659 -7.39041e-19)
(4.10367 -7.13811 3.67661e-18)
(4.0413 -6.92301 1.0703e-18)
(3.96813 -6.70218 2.99927e-18)
(3.88615 -6.47848 -9.14898e-19)
(3.79814 -6.25538 2.52534e-18)
(3.70685 -6.03616 1.50555e-18)
(3.61466 -5.82346 1.36833e-18)
(3.52348 -5.61918 -1.84711e-18)
(3.43476 -5.42463 1.72755e-18)
(3.34957 -5.24058 1.03957e-18)
(3.26861 -5.06749 9.52346e-19)
(3.19233 -4.90555 8.74085e-19)
(3.12164 -4.75414 6.74652e-21)
(3.0578 -4.6116 7.3964e-19)
(2.99385 -4.47944 7.70576e-19)
(5.09123 -8.15029 -2.8123e-18)
(4.63942 -7.93938 1.03243e-18)
(4.57481 -7.65912 2.53887e-18)
(4.5268 -7.43402 -3.08503e-18)
(4.46982 -7.23072 7.12561e-19)
(4.40682 -7.02405 -2.45767e-18)
(4.33309 -6.80972 1.20252e-18)
(4.24792 -6.58945 -2.00537e-18)
(4.15377 -6.36652 4.68772e-20)
(4.05381 -6.14462 1.06745e-20)
(3.95105 -5.92708 -1.52568e-18)
(3.84802 -5.7165 -6.88946e-19)
(3.74671 -5.51472 1.26345e-18)
(3.64859 -5.32293 7.9303e-21)
(3.55471 -5.14184 -3.50156e-20)
(3.46575 -4.97187 -9.94954e-19)
(3.38218 -4.81321 -4.40588e-19)
(3.30498 -4.66527 -2.52624e-20)
(3.23553 -4.52643 -7.71497e-19)
(3.16631 -4.3991 -3.89149e-19)
(5.41601 -7.95795 0)
(4.96801 -7.78367 -1.90475e-18)
(4.89911 -7.51713 2.10106e-20)
(4.84477 -7.29956 3.07392e-18)
(4.77942 -7.10042 1.27872e-18)
(4.70615 -6.89579 -1.33356e-18)
(4.62086 -6.68262 -1.14334e-18)
(4.52349 -6.46342 0)
(4.41704 -6.24183 -9.03002e-19)
(4.30506 -6.02173 8.60591e-19)
(4.1908 -5.80645 -3.71006e-20)
(4.07693 -5.59856 0)
(3.96551 -5.3998 -6.35969e-19)
(3.85802 -5.21128 5.48404e-19)
(3.75548 -5.03361 4.56074e-19)
(3.65855 -4.86717 -5.53841e-19)
(3.56768 -4.71215 -4.78926e-19)
(3.48397 -4.56802 8.29055e-19)
(3.40894 -4.43327 -7.64092e-19)
(3.33459 -4.31132 4.02621e-19)
(5.7337 -7.75259 2.89861e-18)
(5.29147 -7.61419 -1.96039e-18)
(5.21894 -7.36092 -1.66274e-18)
(5.15845 -7.15067 7.70928e-19)
(5.08469 -6.95573 -1.49616e-18)
(5.00098 -6.75341 0)
(4.90395 -6.54184 0)
(4.79423 -6.32421 0)
(4.67538 -6.10455 -4.23324e-20)
(4.55132 -5.88682 -1.72656e-18)
(4.42556 -5.67439 8.14275e-19)
(4.3009 -5.46975 6.85221e-19)
(4.17942 -5.27454 5.77013e-19)
(4.06261 -5.08976 -2.37168e-18)
(3.95145 -4.91594 1.12316e-18)
(3.84655 -4.7534 0)
(3.74836 -4.60236 -2.83732e-20)
(3.65805 -4.46234 -1.28671e-18)
(3.57729 -4.332 -5.28302e-21)
(3.49783 -4.21578 -4.03006e-19)
(6.04395 -7.53451 -1.97294e-18)
(5.60929 -7.43109 -1.03307e-18)
(5.53367 -7.19056 7.69724e-19)
(5.46717 -6.98742 -1.41603e-19)
(5.38494 -6.79675 -4.35057e-18)
(5.29062 -6.59703 3.92422e-18)
(5.18168 -6.38749 -4.79003e-20)
(5.05951 -6.17199 1.06795e-18)
(4.92819 -5.95483 9.55825e-19)
(4.79206 -5.74007 8.74974e-19)
(4.65484 -5.53106 7.94195e-19)
(4.51944 -5.33019 1.41522e-18)
(4.38799 -5.13902 -6.80815e-19)
(4.26194 -4.95844 1.75788e-18)
(4.14223 -4.78889 -1.13608e-18)
(4.0294 -4.63063 -4.67933e-19)
(3.92388 -4.48392 1.88039e-18)
(3.82688 -4.34831 1.25363e-18)
(3.7403 -4.22253 -2.59497e-20)
(3.65595 -4.11186 0)
(6.34674 -7.3042 -1.00202e-18)
(5.92108 -7.23456 1.97157e-18)
(5.84266 -7.00611 1.71581e-18)
(5.77023 -6.80987 -1.43351e-19)
(5.67944 -6.62358 -1.47534e-18)
(5.57438 -6.42679 6.81968e-20)
(5.45341 -6.21976 1.17671e-20)
(5.3187 -6.00694 1.05131e-20)
(5.17491 -5.79288 0)
(5.02675 -5.58167 8.54423e-19)
(4.87815 -5.37661 -1.6257e-18)
(4.73212 -5.18002 -6.9288e-19)
(4.59079 -4.99334 6.87769e-19)
(4.45557 -4.81735 -6.01556e-19)
(4.32734 -4.65245 5.56133e-19)
(4.20658 -4.49887 -5.05371e-19)
(4.09371 -4.35689 4.57162e-21)
(3.99007 -4.22595 -4.28113e-19)
(3.89789 -4.10476 -3.95006e-19)
(3.80939 -4.00028 -3.95525e-19)
(6.64242 -7.06213 0)
(6.22663 -7.02454 -9.58529e-19)
(6.1453 -6.80752 9.47531e-19)
(6.0669 -6.6181 1.64344e-18)
(5.9675 -6.43639 -1.48214e-18)
(5.85158 -6.24292 1.27476e-18)
(5.71849 -6.03893 -2.44942e-18)
(5.57122 -5.82937 -2.16693e-18)
(5.41502 -5.61898 -9.41552e-19)
(5.25493 -5.41188 4.22635e-20)
(5.0951 -5.21129 -7.75842e-19)
(4.93858 -5.0194 3.30419e-20)
(4.78748 -4.83755 0)
(4.64312 -4.66644 -1.17904e-18)
(4.50626 -4.5064 6.02249e-19)
(4.37729 -4.35771 0)
(4.25665 -4.22055 -4.69306e-19)
(4.14587 -4.09419 -8.42315e-19)
(4.04719 -3.9782 8.27659e-19)
(3.95357 -3.88413 4.08461e-19)
(6.93062 -6.80754 0)
(6.52533 -6.80031 0)
(6.44089 -6.59469 -1.75013e-18)
(6.35646 -6.4124 -1.49673e-18)
(6.24844 -6.23556 3.04145e-18)
(6.12162 -6.04584 0)
(5.97638 -5.8454 0)
(5.8166 -5.63968 1.08845e-18)
(5.64809 -5.43355 0)
(5.47626 -5.23111 0)
(5.30542 -5.03545 0)
(5.13867 -4.84865 0)
(4.97805 -4.67189 0)
(4.82474 -4.50575 0)
(4.67927 -4.3505 0)
(4.54178 -4.20633 0)
(4.41256 -4.07317 0)
(4.29261 -3.95047 0)
(4.18222 -3.84096 0)
(4.0758 -3.76058 0)
(10.0073 0.0874606 1.39713e-19)
(9.98812 -0.306547 2.71528e-19)
(9.95372 -0.697992 -2.79197e-19)
(9.90469 -1.08673 5.56737e-19)
(9.84074 -1.47243 -5.56736e-19)
(9.76171 -1.85458 -5.24927e-19)
(9.66771 -2.23267 -5.23531e-19)
(9.55894 -2.60613 1.65314e-18)
(9.43564 -2.97443 -1.10144e-18)
(9.29804 -3.33701 1.09268e-18)
(9.14642 -3.69333 -1.09268e-18)
(8.98109 -4.04286 1.08503e-18)
(8.80237 -4.38509 -2.1527e-18)
(8.61059 -4.71951 3.1678e-18)
(8.40612 -5.04563 0)
(8.18935 -5.36302 -3.11539e-18)
(7.96065 -5.67125 1.45918e-20)
(7.72054 -5.96996 3.14402e-18)
(7.46912 -6.25899 0)
(7.20804 -6.53768 0)
(10.0225 -0.211486 0)
(9.98356 -0.603969 -1.47937e-20)
(9.92807 -0.992844 0)
(9.85671 -1.37778 5.29201e-19)
(9.7697 -1.75837 5.52023e-19)
(9.66721 -2.13404 -1.59542e-18)
(9.54951 -2.50415 2.78369e-18)
(9.41695 -2.8681 -1.09833e-18)
(9.26988 -3.22532 -1.04553e-18)
(9.10867 -3.57521 -1.04145e-18)
(8.93373 -3.91722 4.39391e-20)
(8.74546 -4.25081 1.06971e-18)
(8.54432 -4.57548 -5.31552e-18)
(8.33076 -4.89072 -1.11928e-18)
(8.10526 -5.19609 2.12568e-18)
(7.86832 -5.49115 2.12544e-18)
(7.62038 -5.77554 1.08178e-18)
(7.36201 -6.04891 -2.08219e-18)
(7.09329 -6.31103 9.85007e-19)
(6.81512 -6.56154 0)
(9.92844 -0.151775 1.24767e-19)
(9.89291 -0.538194 -2.55726e-19)
(9.84034 -0.921629 7.3753e-19)
(9.77111 -1.3014 -5.23624e-19)
(9.68561 -1.67689 -4.98438e-19)
(9.58417 -2.04741 5.21361e-19)
(9.46714 -2.41225 0)
(9.3349 -2.77076 0)
(9.18786 -3.12227 1.97736e-18)
(9.02643 -3.46618 2.9502e-18)
(8.85108 -3.80187 -9.31228e-19)
(8.66226 -4.12877 2.91802e-18)
(8.46048 -4.44634 -9.27465e-19)
(8.24625 -4.75406 -2.84242e-18)
(8.02008 -5.05143 1.22115e-20)
(7.78253 -5.33801 1.82277e-18)
(7.5341 -5.61337 -8.19919e-19)
(7.27535 -5.87712 -1.79539e-18)
(7.0066 -6.12888 -9.73709e-19)
(6.72852 -6.36816 1.7661e-18)
(9.73187 -0.11676 0)
(9.70257 -0.492899 2.14517e-19)
(9.65638 -0.866857 2.13552e-19)
(9.59351 -1.23775 -8.78264e-19)
(9.51429 -1.6048 0)
(9.41903 -1.96727 0)
(9.30807 -2.32443 0)
(9.18177 -2.67555 0)
(9.04053 -3.01995 -9.31797e-19)
(8.88476 -3.35696 -9.28398e-19)
(8.71492 -3.68595 0)
(8.53149 -4.00629 1.75322e-18)
(8.33497 -4.31741 -4.33398e-18)
(8.12588 -4.61874 3.48681e-18)
(7.90476 -4.90975 -3.37822e-18)
(7.67218 -5.18994 -8.19884e-19)
(7.42866 -5.45885 1.52656e-19)
(7.17481 -5.716 1.51253e-19)
(6.91109 -5.96098 -1.67328e-18)
(6.6382 -6.19328 -7.0299e-20)
(9.46012 -0.103789 0)
(9.43753 -0.467141 -2.11562e-19)
(9.39851 -0.82891 0)
(9.34318 -1.18822 4.23238e-19)
(9.27176 -1.54425 4.02889e-19)
(9.1845 -1.89625 3.674e-19)
(9.08172 -2.24347 0)
(8.96373 -2.58519 0)
(8.83089 -2.9207 0)
(8.68359 -3.24929 0)
(8.52226 -3.57032 7.60222e-19)
(8.34735 -3.88314 8.21333e-19)
(8.15934 -4.18713 8.17255e-19)
(7.95874 -4.48171 -8.29291e-19)
(7.74609 -4.76632 -1.42101e-18)
(7.52193 -5.0404 1.6216e-18)
(7.28682 -5.30346 3.14263e-18)
(7.04135 -5.55499 1.52849e-18)
(6.78606 -5.79451 0)
(6.52161 -6.02154 -1.43871e-18)
(9.14222 -0.0949089 4.32642e-20)
(9.12597 -0.44382 0)
(9.09393 -0.791668 -7.09352e-19)
(9.04615 -1.13762 1.94969e-23)
(8.98277 -1.48089 1.54893e-20)
(8.904 -1.82072 -6.57717e-20)
(8.81009 -2.15637 0)
(8.70133 -2.48712 2.96928e-20)
(8.57802 -2.81225 -7.20591e-19)
(8.44052 -3.13109 1.40331e-18)
(8.28921 -3.44294 -1.46529e-18)
(8.12451 -3.74718 8.02871e-19)
(7.94686 -4.04317 -4.19247e-18)
(7.75674 -4.33031 2.76491e-18)
(7.55467 -4.60801 1.46908e-18)
(7.34116 -4.87571 0)
(7.11676 -5.13288 -2.7072e-18)
(6.88203 -5.37897 -5.9949e-20)
(6.63755 -5.61351 -2.66754e-18)
(6.38391 -5.83596 2.77721e-18)
(8.80341 -0.0896287 3.88034e-20)
(8.79234 -0.423431 -8.14032e-20)
(8.76621 -0.756599 6.67826e-19)
(8.72502 -1.08836 -1.34442e-20)
(8.66887 -1.41795 6.67676e-19)
(8.59792 -1.74464 -1.00868e-18)
(8.51239 -2.06771 0)
(8.4125 -2.38645 6.80297e-19)
(8.29853 -2.70019 6.21404e-19)
(8.17078 -3.00823 -6.76562e-19)
(8.0296 -3.30993 1.23487e-18)
(7.87536 -3.60464 2.62305e-18)
(7.70848 -3.89173 -1.2173e-18)
(7.52939 -4.17061 -1.32362e-18)
(7.33857 -4.44069 1.2675e-18)
(7.13652 -4.7014 0)
(6.92374 -4.95217 6.22637e-20)
(6.70078 -5.19248 8.85156e-21)
(6.4682 -5.4218 2.52335e-18)
(6.22655 -5.6396 1.17108e-18)
(8.46249 -0.0877234 0)
(8.4552 -0.406521 5.95543e-21)
(8.43361 -0.725004 -1.35206e-19)
(8.39769 -1.04245 -6.02096e-19)
(8.3475 -1.35814 5.65009e-19)
(8.28319 -1.67137 0)
(8.20492 -1.98146 1.1506e-18)
(8.11289 -2.28774 -1.25689e-21)
(8.00733 -2.58954 -1.7584e-18)
(7.88852 -2.88622 0)
(7.75675 -3.17714 -1.21521e-18)
(7.61237 -3.46167 4.39823e-20)
(7.45575 -3.73922 -3.41087e-18)
(7.2873 -4.00919 5.90656e-21)
(7.10745 -4.27101 1.14377e-18)
(6.91667 -4.5241 0)
(6.71546 -4.76792 -1.12307e-18)
(6.50431 -5.00191 7.88122e-21)
(6.28377 -5.22556 1.1152e-18)
(6.05435 -5.4383 -1.15243e-18)
(8.13179 -0.0879639 0)
(8.12699 -0.392338 1.3878e-19)
(8.10863 -0.696615 2.88164e-19)
(8.07668 -1.00012 -5.32333e-19)
(8.03117 -1.30218 -2.35464e-20)
(7.97221 -1.60213 -2.66037e-19)
(7.89996 -1.89932 -1.06509e-18)
(7.81457 -2.19313 5.29453e-19)
(7.71625 -2.48292 2.27136e-20)
(7.60524 -2.76806 5.26297e-19)
(7.48182 -3.04797 4.8348e-19)
(7.34629 -3.32205 2.09858e-18)
(7.19899 -3.58971 1.04986e-18)
(7.04029 -3.85038 2.07323e-18)
(6.87062 -4.10352 -1.03393e-18)
(6.69041 -4.34857 3.69679e-20)
(6.50011 -4.58499 -1.02189e-18)
(6.30023 -4.81222 0)
(6.09128 -5.02976 9.65132e-19)
(5.87371 -5.23702 0)
(7.8184 -0.089333 6.02309e-20)
(7.81506 -0.380123 -1.76293e-19)
(7.79885 -0.670952 4.8387e-19)
(7.76974 -0.96119 -2.41355e-19)
(7.72776 -1.2502 1.79731e-20)
(7.673 -1.53737 -2.41206e-19)
(7.60558 -1.82208 5.01982e-19)
(7.52565 -2.10374 -4.79893e-19)
(7.4334 -2.38175 4.79891e-19)
(7.32903 -2.65553 9.19534e-19)
(7.21279 -2.92451 -9.92879e-19)
(7.08498 -3.18814 -4.28144e-20)
(6.9459 -3.44586 -2.87193e-18)
(6.7959 -3.69713 4.94908e-21)
(6.63538 -3.94143 3.81307e-20)
(6.46475 -4.17822 1.8615e-18)
(6.28447 -4.40699 -9.19481e-19)
(6.09499 -4.6272 -8.74987e-19)
(5.89682 -4.83832 -3.58915e-20)
(5.6904 -5.03978 0)
(7.52565 -0.0911501 0)
(7.52298 -0.369308 2.2376e-19)
(7.5081 -0.647579 -7.69023e-19)
(7.48095 -0.925372 -2.03663e-19)
(7.44157 -1.20209 4.56686e-19)
(7.39003 -1.47716 0)
(7.32645 -1.75 0)
(7.25094 -2.02004 4.36048e-19)
(7.1637 -2.28674 -4.36046e-19)
(7.06489 -2.54954 3.65681e-19)
(6.95477 -2.80791 -4.33214e-19)
(6.83358 -3.06132 8.59063e-19)
(6.70164 -3.30927 -1.71386e-18)
(6.55926 -3.55124 1.70498e-18)
(6.40682 -3.78675 3.29517e-20)
(6.24472 -4.0153 -8.77872e-19)
(6.07341 -4.23637 -8.34453e-19)
(5.89335 -4.44947 1.70084e-18)
(5.70503 -4.65406 7.94979e-19)
(5.50889 -4.84955 0)
(7.25433 -0.0929726 1.76385e-21)
(7.25182 -0.35946 1.46524e-19)
(7.23766 -0.626093 3.0795e-19)
(7.21182 -0.892314 2.15782e-19)
(7.17433 -1.15756 1.9982e-19)
(7.12526 -1.42129 1.85596e-19)
(7.0647 -1.68296 0)
(6.99278 -1.94204 -7.67511e-19)
(6.90966 -2.19801 -3.95915e-19)
(6.81551 -2.45034 3.36434e-19)
(6.71055 -2.69856 0)
(6.59503 -2.94215 7.81863e-19)
(6.46923 -3.18066 -2.31175e-18)
(6.33346 -3.41361 7.77825e-19)
(6.18809 -3.64054 0)
(6.0335 -3.861 -7.38858e-19)
(5.87016 -4.07451 -1.49285e-18)
(5.69851 -4.28058 7.3425e-19)
(5.51908 -4.47869 -2.77502e-20)
(5.3323 -4.66823 0)
(7.00376 -0.0945225 3.2505e-21)
(7.00105 -0.350259 -9.48056e-20)
(6.98722 -0.606142 1.82808e-19)
(6.96223 -0.861647 -1.22849e-20)
(6.92612 -1.11625 3.65271e-19)
(6.87895 -1.36942 -5.61261e-19)
(6.82081 -1.62065 0)
(6.75181 -1.86946 5.2581e-20)
(6.67211 -2.11533 0)
(6.58188 -2.35779 -7.4924e-19)
(6.48131 -2.59638 0)
(6.37064 -2.83064 -6.90329e-19)
(6.25013 -3.06013 2.13501e-18)
(6.1201 -3.28442 -1.41456e-18)
(5.98088 -3.5031 7.05216e-19)
(5.83288 -3.71576 -6.2221e-19)
(5.67656 -3.92195 7.2124e-19)
(5.51238 -4.12124 -7.16266e-19)
(5.34093 -4.31306 0)
(5.16263 -4.49682 0)
(6.7724 -0.0956637 4.33237e-20)
(6.7693 -0.341485 0)
(6.75554 -0.587441 0)
(6.7311 -0.833032 -3.47086e-19)
(6.69601 -1.07776 -3.23554e-19)
(6.65033 -1.32112 0)
(6.59416 -1.56264 0)
(6.5276 -1.80185 4.65995e-20)
(6.45079 -2.03828 6.40533e-19)
(6.36388 -2.27147 -3.08711e-19)
(6.26708 -2.501 -3.29238e-19)
(6.1606 -2.72644 1.33024e-18)
(6.0447 -2.94739 -1.97489e-18)
(5.91966 -3.16346 1.27271e-18)
(5.78583 -3.37428 0)
(5.6436 -3.57951 2.55719e-18)
(5.49346 -3.77871 -1.85532e-18)
(5.33588 -3.97156 6.31424e-19)
(5.17157 -4.15742 1.20643e-18)
(5.00094 -4.33577 0)
(6.55838 -0.0963271 -3.71729e-20)
(6.55477 -0.332982 0)
(6.54093 -0.569756 -4.84495e-21)
(6.51685 -0.806165 -2.97443e-19)
(6.48256 -1.04173 9.22044e-19)
(6.4381 -1.27599 -1.53365e-19)
(6.38358 -1.50848 0)
(6.31909 -1.73875 1.22155e-18)
(6.24477 -1.96636 -6.29316e-19)
(6.16076 -2.19088 4.14284e-20)
(6.06726 -2.41192 5.82504e-19)
(5.96445 -2.62907 5.97208e-19)
(5.85259 -2.84197 -1.19084e-18)
(5.73195 -3.05028 -1.1644e-18)
(5.60287 -3.25366 -1.13679e-18)
(5.46571 -3.45185 -1.21091e-18)
(5.321 -3.64446 1.20247e-18)
(5.16923 -3.83131 -5.73441e-19)
(5.01131 -4.01164 -6.11856e-19)
(4.84756 -4.18513 0)
(6.3597 -0.0964921 3.65214e-20)
(6.35555 -0.324652 -1.37039e-19)
(6.34157 -0.552903 -1.41921e-19)
(6.31774 -0.780785 4.24889e-19)
(6.2841 -1.00784 -1.50988e-19)
(6.24069 -1.23363 -1.41012e-19)
(6.18761 -1.4577 0)
(6.12496 -1.67964 -5.79714e-19)
(6.05284 -1.89902 0)
(5.97143 -2.11545 5.75091e-19)
(5.88086 -2.32854 -1.10763e-18)
(5.78136 -2.53793 5.48113e-19)
(5.67312 -2.74327 -1.09276e-18)
(5.55642 -2.94428 1.12814e-18)
(5.43155 -3.14066 6.14591e-19)
(5.29889 -3.33226 0)
(5.15898 -3.51867 -5.29251e-19)
(5.01228 -3.70004 5.29251e-19)
(4.86007 -3.87532 0)
(4.70241 -4.0448 0)
(6.17445 -0.0962112 0)
(6.16978 -0.31646 1.34639e-19)
(6.15564 -0.536761 4.37053e-21)
(6.13203 -0.756683 -1.38843e-19)
(6.09897 -0.975792 -1.22336e-19)
(6.05653 -1.19366 -1.29902e-19)
(6.00478 -1.40988 5.01915e-19)
(5.94381 -1.62403 0)
(5.87375 -1.83573 0)
(5.79473 -2.04458 2.54976e-19)
(5.7069 -2.25023 2.70991e-19)
(5.61045 -2.45234 9.79819e-19)
(5.50556 -2.6506 -5.00587e-19)
(5.39248 -2.84476 5.00585e-19)
(5.27148 -3.03456 5.31712e-19)
(5.14289 -3.21996 3.13173e-20)
(5.00726 -3.4006 -9.7509e-19)
(4.865 -3.57703 3.63533e-21)
(4.71792 -3.74772 4.82009e-19)
(4.56544 -3.91433 0)
(6.00089 -0.0955216 -3.00782e-20)
(5.99576 -0.308385 3.00779e-20)
(5.98151 -0.521277 0)
(5.95813 -0.73378 1.13278e-19)
(5.92565 -0.945479 3.67959e-19)
(5.88415 -1.15597 -4.64936e-19)
(5.83368 -1.36485 -4.93148e-19)
(5.77436 -1.57173 0)
(5.70628 -1.77625 0)
(5.62957 -1.97802 0)
(5.54438 -2.17673 -9.09499e-19)
(5.45087 -2.37204 -5.90112e-20)
(5.34922 -2.56368 -4.60913e-19)
(5.2396 -2.75142 2.77255e-20)
(5.12228 -2.93506 -9.11128e-19)
(4.99747 -3.11466 1.3885e-18)
(4.86578 -3.28991 -1.31462e-18)
(4.72737 -3.46201 4.46253e-19)
(4.58492 -3.62862 8.5469e-19)
(4.43636 -3.7938 0)
(5.83748 -0.0940936 2.70253e-20)
(5.83198 -0.300242 0)
(5.81768 -0.506419 -1.11237e-19)
(5.79458 -0.712209 -2.29195e-19)
(5.76271 -0.917214 1.11087e-19)
(5.72214 -1.12105 8.86955e-19)
(5.67294 -1.32333 0)
(5.6152 -1.52369 -4.27036e-19)
(5.54902 -1.72177 -2.18337e-19)
(5.47453 -1.91723 -4.10154e-19)
(5.39184 -2.10975 -1.64016e-19)
(5.30111 -2.29903 -1.29435e-18)
(5.20247 -2.48481 -8.54018e-19)
(5.09607 -2.66689 8.78503e-19)
(4.98213 -2.84509 8.40403e-19)
(4.86068 -3.01955 -3.6973e-21)
(4.73238 -3.19009 2.75147e-20)
(4.59674 -3.35866 4.11036e-19)
(4.45791 -3.52243 -8.39818e-19)
(4.3105 -3.68946 0)
(5.68274 -0.0923914 -5.65217e-20)
(5.67698 -0.292136 2.7827e-20)
(5.66276 -0.491977 -1.11162e-19)
(5.64008 -0.691539 1.11114e-19)
(5.60894 -0.890447 -3.19615e-19)
(5.5694 -1.08833 -9.949e-19)
(5.52153 -1.28484 0)
(5.46538 -1.4796 4.51969e-19)
(5.40106 -1.6723 -4.22588e-19)
(5.32864 -1.86259 8.94546e-19)
(5.24825 -2.05017 8.89033e-19)
(5.15998 -2.23476 1.30943e-18)
(5.06395 -2.4161 -8.49465e-19)
(4.96021 -2.59398 4.23064e-19)
(4.84897 -2.76826 -4.15782e-19)
(4.72995 -2.93903 4.15809e-19)
(4.604 -3.10623 0)
(4.46905 -3.27226 3.76115e-19)
(4.33245 -3.43427 -3.67622e-19)
(4.18194 -3.61049 0)
(7.10374 7.22536 0)
(7.38239 6.93712 0)
(7.64826 6.63938 1.03431e-18)
(7.90209 6.33266 1.83302e-20)
(8.14327 6.01665 -1.09649e-18)
(8.37117 5.6914 0)
(8.58538 5.3573 1.12985e-18)
(8.78555 5.01488 -2.1277e-18)
(8.97138 4.6647 -1.0748e-18)
(9.14258 4.30736 -1.08443e-18)
(9.29887 3.94347 1.08443e-18)
(9.44003 3.5737 -1.09546e-18)
(9.56587 3.19868 5.46487e-19)
(9.67623 2.81911 5.20214e-19)
(9.77094 2.43568 5.22183e-19)
(9.84989 2.04904 -5.55405e-19)
(9.91304 1.65983 5.55405e-19)
(9.96046 1.26874 -2.78795e-19)
(9.99213 0.876172 -1.32115e-19)
(10.0085 0.483459 6.97515e-20)
(7.33452 6.99059 0)
(7.61124 6.70383 -9.42775e-19)
(7.87437 6.40577 -2.01693e-18)
(8.12423 6.09708 2.98104e-18)
(8.36063 5.77806 -2.06843e-18)
(8.58304 5.44913 2.07594e-18)
(8.791 5.11087 1.13059e-18)
(8.98412 4.76392 -3.20247e-18)
(9.16202 4.40895 1.04732e-18)
(9.32433 4.04666 2.07922e-18)
(9.47074 3.67774 1.02333e-18)
(9.60099 3.30293 1.02959e-18)
(9.71488 2.92299 -1.08773e-18)
(9.81228 2.53871 1.60003e-18)
(9.89302 2.15078 -2.22328e-18)
(9.95691 1.75998 5.48358e-19)
(10.0039 1.3671 -5.26103e-19)
(10.034 0.972968 0)
(10.0471 0.578101 1.48907e-20)
(10.0437 0.183458 0)
(7.16644 6.84403 -1.65615e-18)
(7.4445 6.57477 9.31989e-19)
(7.71021 6.29302 1.699e-18)
(7.96315 5.99943 7.66027e-19)
(8.20296 5.69459 1.92935e-18)
(8.42911 5.37905 1.81738e-20)
(8.64111 5.05347 -9.66646e-19)
(8.83849 4.71852 -2.8767e-18)
(9.02083 4.37489 2.83808e-18)
(9.18772 4.02328 -2.91403e-18)
(9.33874 3.66439 -9.70382e-19)
(9.4736 3.29897 -1.94081e-18)
(9.59207 2.92784 0)
(9.69383 2.55177 0)
(9.77871 2.17149 0)
(9.84666 1.78788 -4.94272e-19)
(9.89752 1.40178 5.18529e-19)
(9.93124 1.01403 4.9582e-19)
(9.94767 0.625319 6.11554e-21)
(9.94682 0.23658 1.24514e-19)
(6.92732 6.58436 1.72145e-18)
(7.20115 6.3334 -1.55926e-18)
(7.46382 6.06973 -1.64166e-19)
(7.71464 5.79391 -1.65025e-19)
(7.95309 5.5065 4.04572e-18)
(8.17864 5.20807 -6.93605e-20)
(8.39076 4.89925 3.01813e-21)
(8.58895 4.58066 -2.55738e-18)
(8.77271 4.25296 1.6864e-18)
(8.94163 3.91678 0)
(9.09524 3.57288 9.05208e-19)
(9.23318 3.22208 9.11271e-19)
(9.3552 2.86513 0)
(9.46099 2.50277 0)
(9.55028 2.13583 0)
(9.62293 1.76514 0)
(9.67877 1.39145 -2.08771e-20)
(9.71769 1.01559 4.45189e-19)
(9.73955 0.638343 -2.1349e-19)
(9.74431 0.26061 0)
(6.65945 6.26969 1.45268e-18)
(6.92499 6.0361 0)
(7.18044 5.79002 -4.26653e-18)
(7.42506 5.53189 -1.45368e-18)
(7.65821 5.26222 -1.5291e-18)
(7.87937 4.98155 -1.62175e-18)
(8.08798 4.69043 7.6578e-19)
(8.28352 4.38945 -8.0352e-19)
(8.46548 4.0792 2.22796e-18)
(8.63342 3.76036 -7.28513e-19)
(8.78697 3.43365 0)
(8.92567 3.0998 0)
(9.04911 2.75945 0)
(9.15702 2.41335 0)
(9.24916 2.06231 -1.14985e-18)
(9.32529 1.7071 3.95673e-19)
(9.38521 1.34849 -4.18469e-19)
(9.42876 0.987278 0)
(9.45583 0.624257 2.10549e-19)
(9.4663 0.260283 0)
(6.38193 5.9454 1.23699e-18)
(6.63712 5.72756 -4.68919e-20)
(6.88313 5.49767 2.60188e-18)
(7.11921 5.25607 1.2986e-18)
(7.34472 5.00322 0)
(7.55911 4.7396 -1.37988e-18)
(7.76185 4.46572 6.54793e-20)
(7.95241 4.18212 -1.39961e-18)
(8.13031 3.88938 1.93111e-18)
(8.29506 3.58811 3.16541e-20)
(8.44628 3.27895 2.7133e-20)
(8.58356 2.96246 -6.96916e-19)
(8.70647 2.63937 1.36595e-18)
(8.81472 2.31039 0)
(8.90807 1.97621 6.57925e-20)
(8.98621 1.63763 6.9705e-19)
(9.04889 1.29539 1.4925e-21)
(9.09596 0.950238 -1.47322e-20)
(9.12728 0.602935 0)
(9.14271 0.254277 -4.31765e-20)
(6.11358 5.63133 0)
(6.35749 5.42727 -4.77064e-20)
(6.59295 5.21169 1.5977e-20)
(6.81924 4.98487 -2.34491e-18)
(7.03574 4.7472 0)
(7.24192 4.49914 1.18405e-18)
(7.43725 4.24115 1.26246e-18)
(7.62124 3.97372 -3.66967e-18)
(7.7934 3.69738 -6.52558e-20)
(7.95329 3.41267 -1.17586e-18)
(8.10049 3.12018 6.48962e-19)
(8.2346 2.82048 -5.97876e-19)
(8.35525 2.51424 -6.58784e-19)
(8.46206 2.20209 0)
(8.55481 1.88475 3.47891e-19)
(8.63333 1.56278 -1.61574e-20)
(8.69723 1.23701 -3.22064e-19)
(8.74629 0.90816 -1.60286e-20)
(8.78043 0.576938 -8.10605e-20)
(8.79947 0.24408 1.62477e-19)
(5.86436 5.3377 0)
(6.09681 5.14546 1.01077e-18)
(6.32139 4.94226 1.47336e-20)
(6.53743 4.72835 -1.02548e-18)
(6.74433 4.50408 0)
(6.94158 4.26984 1.066e-18)
(7.12868 4.02607 -1.01664e-18)
(7.30517 3.77321 -1.1276e-18)
(7.47058 3.51175 2.14092e-18)
(7.62448 3.24219 1.15716e-18)
(7.76648 2.96507 0)
(7.8962 2.68095 5.63689e-19)
(8.01328 2.39043 -4.01357e-21)
(8.1174 2.09412 2.09476e-20)
(8.20816 1.79269 0)
(8.28545 1.4867 -5.53842e-19)
(8.34913 1.17676 -2.90437e-19)
(8.39879 0.863656 4.24051e-19)
(8.43432 0.548082 2.85939e-19)
(8.45555 0.230711 -3.82836e-20)
(5.6376 5.06895 0)
(5.85892 4.88682 -8.69538e-19)
(6.07283 4.69429 0)
(6.2787 4.49158 -9.38761e-19)
(6.47596 4.279 1.84702e-18)
(6.66413 4.05692 -1.88311e-18)
(6.84275 3.82572 2.94937e-18)
(7.01136 3.58581 -2.9394e-18)
(7.16955 3.33765 -1.98571e-18)
(7.31691 3.08171 -1.46311e-18)
(7.45306 2.8185 5.0207e-19)
(7.57765 2.54855 -1.04135e-18)
(7.69032 2.27239 1.78267e-20)
(7.79078 1.99063 1.0345e-18)
(7.87875 1.7038 -2.60193e-19)
(7.95385 1.41264 1.06649e-18)
(8.01604 1.11759 -5.2419e-19)
(8.06514 0.819311 2.40936e-19)
(8.10089 0.518525 -1.37879e-19)
(8.1231 0.215873 0)
(5.43315 4.82555 0)
(5.64397 4.65211 1.68093e-18)
(5.84773 4.46881 8.13516e-19)
(6.04385 4.27585 -8.38479e-19)
(6.2318 4.07351 -1.71742e-18)
(6.41111 3.86211 2.61282e-18)
(6.58136 3.64199 1.03438e-20)
(6.74214 3.41356 -8.50238e-19)
(6.89304 3.17724 1.82882e-18)
(7.0337 2.93347 9.44967e-19)
(7.16376 2.68273 -8.80843e-19)
(7.28287 2.42553 4.62943e-19)
(7.39073 2.16237 2.13888e-20)
(7.48703 1.89381 -4.8764e-19)
(7.57151 1.62038 -2.36018e-19)
(7.6439 1.34265 4.73238e-19)
(7.70397 1.0613 -2.3722e-19)
(7.75162 0.776775 -4.78735e-19)
(7.7867 0.489742 5.53622e-20)