/*--------------------------------*- C++ -*----------------------------------*\
  =========                 |
  \\      /  F ield         | OpenFOAM: The Open Source CFD Toolbox
   \\    /   O peration     | Website:  https://openfoam.org
    \\  /    A nd           | Version:  6.0
     \\/     M anipulation  |
\*---------------------------------------------------------------------------*/
FoamFile
{
    version     2.0;
    format      ascii;
    class       volVectorField;
    location    "2";
    object      U;
}
// * * * * * * * * * * * * * * * * * * * * * * * * * * * * * * * * * * * * * //

dimensions      [0 1 -1 0 0 0 0];

internalField   nonuniform List<vector> 
19200
(
(0.271083 -9.73296 -1.11888e-20)
(0.117333 -9.26434 5.08634e-21)
(0.109848 -8.82936 2.25878e-21)
(0.116502 -8.42407 1.92406e-21)
(0.114807 -8.04428 2.02342e-21)
(0.113531 -7.68559 1.27853e-22)
(0.113396 -7.34479 2.81405e-22)
(0.113525 -7.01957 -1.62075e-22)
(0.11367 -6.70834 2.14719e-21)
(0.113739 -6.41001 8.60433e-22)
(0.113653 -6.12386 4.22087e-23)
(0.113364 -5.84942 1.26558e-21)
(0.11286 -5.58637 1.92257e-21)
(0.112151 -5.33447 -1.25309e-21)
(0.111264 -5.09352 1.53897e-21)
(0.110234 -4.86332 1.2429e-21)
(0.109103 -4.64363 -1.14607e-21)
(0.107914 -4.43422 1.8585e-21)
(0.106711 -4.23481 -1.15405e-21)
(0.105535 -4.04506 5.65173e-22)
(0.104423 -3.86465 7.47069e-22)
(0.103407 -3.6932 -2.31559e-22)
(0.102511 -3.53033 3.09426e-22)
(0.101756 -3.37564 -3.41225e-22)
(0.101154 -3.22873 7.25399e-22)
(0.100705 -3.08921 1.62142e-22)
(0.100403 -2.9567 -1.10419e-22)
(0.100267 -2.83085 6.6535e-23)
(0.100357 -2.7113 1.48176e-22)
(0.100389 -2.59773 5.20322e-22)
(0.525562 -9.72165 -2.40871e-21)
(0.360343 -9.25858 1.52978e-20)
(0.341638 -8.82531 -7.93355e-21)
(0.337784 -8.42105 -1.0185e-20)
(0.326305 -8.04226 -4.31252e-21)
(0.31581 -7.68433 -2.95377e-21)
(0.306917 -7.34403 -5.7654e-21)
(0.298683 -7.0191 8.21282e-22)
(0.290814 -6.708 -1.29204e-21)
(0.283189 -6.40967 -4.2014e-21)
(0.275712 -6.12345 -9.61589e-21)
(0.268326 -5.84888 4.4736e-21)
(0.261012 -5.58569 -1.61775e-21)
(0.253778 -5.33364 6.06303e-22)
(0.246647 -5.09256 -3.36141e-21)
(0.239652 -4.86225 -1.15329e-21)
(0.23283 -4.6425 1.45735e-22)
(0.226222 -4.43306 3.65997e-21)
(0.219864 -4.23366 -1.95383e-21)
(0.213792 -4.04398 -1.05087e-21)
(0.208034 -3.86367 -3.78359e-21)
(0.202614 -3.69236 9.51727e-22)
(0.197549 -3.52966 -5.63799e-22)
(0.192849 -3.37517 9.63078e-22)
(0.188516 -3.22848 -1.17473e-21)
(0.184542 -3.08918 -6.41301e-22)
(0.180908 -2.95689 2.15025e-22)
(0.177632 -2.83125 3.04546e-22)
(0.174794 -2.71188 -5.47529e-22)
(0.172027 -2.59846 2.31159e-22)
(0.779675 -9.70425 -1.11898e-21)
(0.602853 -9.24668 3.27191e-21)
(0.573111 -8.81527 5.15062e-21)
(0.5589 -8.41231 3.52248e-20)
(0.537728 -8.03479 -1.92852e-20)
(0.518076 -7.67786 1.74733e-20)
(0.500466 -7.33828 -1.47513e-20)
(0.483892 -7.01385 7.45992e-21)
(0.468019 -6.70308 -6.70206e-21)
(0.452702 -6.40496 -4.28889e-22)
(0.43783 -6.11885 1.55773e-20)
(0.423338 -5.84434 2.3666e-21)
(0.409204 -5.58118 -6.57067e-21)
(0.395434 -5.32915 5.08264e-21)
(0.382049 -5.0881 6.46352e-23)
(0.36908 -4.85784 1.96514e-21)
(0.356562 -4.63817 1.36551e-21)
(0.34453 -4.42885 4.27862e-21)
(0.333016 -4.22961 -1.91746e-21)
(0.322048 -4.04013 -6.27856e-22)
(0.311649 -3.86006 -1.46023e-21)
(0.301832 -3.68902 6.22361e-21)
(0.292606 -3.52662 -5.07981e-21)
(0.283971 -3.37245 1.63684e-21)
(0.27592 -3.22608 3.53249e-21)
(0.268432 -3.08713 -2.78373e-21)
(0.261478 -2.95517 3.63305e-21)
(0.255077 -2.82983 -3.98206e-22)
(0.249323 -2.71074 -3.9387e-22)
(0.243764 -2.59757 -2.39418e-21)
(1.03314 -9.68046 -3.95493e-20)
(0.84479 -9.22865 -3.23088e-20)
(0.804142 -8.79933 -3.75526e-20)
(0.779706 -8.39795 1.62835e-21)
(0.74894 -8.02195 2.29822e-21)
(0.720199 -7.66625 -3.73749e-20)
(0.693916 -7.32761 -1.79517e-20)
(0.669028 -7.0039 4.40646e-21)
(0.645166 -6.69365 -8.72515e-22)
(0.622162 -6.39592 6.75202e-21)
(0.599893 -6.11011 -2.63524e-20)
(0.578291 -5.83583 -1.52278e-20)
(0.557332 -5.57287 5.84995e-21)
(0.537019 -5.32103 1.03707e-20)
(0.517374 -5.08017 -1.19699e-20)
(0.498426 -4.85012 -1.78485e-21)
(0.480209 -4.63068 -6.45831e-21)
(0.462752 -4.42163 -2.90322e-21)
(0.446084 -4.22268 4.64537e-21)
(0.430226 -4.03353 -5.80316e-21)
(0.415192 -3.85383 4.80147e-21)
(0.400988 -3.68319 -5.65444e-21)
(0.387613 -3.52121 -4.22649e-21)
(0.375057 -3.36747 -2.88783e-21)
(0.363302 -3.22156 3.27493e-21)
(0.352318 -3.08305 -5.65072e-21)
(0.342062 -2.95154 5.79885e-22)
(0.332551 -2.82662 9.44294e-22)
(0.323896 -2.70791 -2.6549e-21)
(0.315557 -2.59508 5.66782e-22)
(1.28588 -9.65024 -2.35146e-20)
(1.08612 -9.2045 3.09012e-21)
(1.03466 -8.77755 2.65012e-20)
(1.00009 -8.37799 2.62126e-20)
(0.95982 -8.00375 1.79175e-20)
(0.922054 -7.64951 7.09111e-21)
(0.887143 -7.31202 4.14727e-21)
(0.853971 -6.98922 4.53817e-20)
(0.822136 -6.6797 -2.68228e-20)
(0.791454 -6.38255 8.89486e-22)
(0.761792 -6.09721 6.08348e-21)
(0.733078 -5.82335 2.36688e-20)
(0.70529 -5.56075 -1.56299e-20)
(0.678431 -5.30926 1.0677e-20)
(0.652523 -5.06876 -1.12172e-20)
(0.627596 -4.83907 1.86214e-20)
(0.60368 -4.62002 -5.40827e-21)
(0.580802 -4.41137 1.97756e-22)
(0.558986 -4.21287 7.7917e-21)
(0.538246 -4.02419 5.13836e-21)
(0.518588 -3.84498 -5.23818e-21)
(0.50001 -3.67487 6.77265e-21)
(0.482501 -3.51343 -2.92782e-21)
(0.466041 -3.36026 3.35013e-21)
(0.450602 -3.21491 3.51459e-21)
(0.43614 -3.07696 1.43905e-21)
(0.422603 -2.94599 4.35447e-21)
(0.410003 -2.8216 -1.68873e-21)
(0.398466 -2.70337 -5.89245e-22)
(0.387362 -2.59099 -2.27707e-21)
(1.53774 -9.61354 -1.68786e-20)
(1.32674 -9.17424 -1.03871e-20)
(1.26455 -8.74994 -2.95772e-20)
(1.21995 -8.35246 -7.24614e-20)
(1.17025 -7.98022 2.44688e-20)
(1.12352 -7.62766 1.40872e-21)
(1.08003 -7.29153 4.37408e-22)
(1.0386 -6.96984 2.38312e-21)
(0.998813 -6.66123 -2.30418e-21)
(0.960463 -6.36484 -3.19799e-20)
(0.923413 -6.08016 1.34815e-20)
(0.88759 -5.80688 2.14737e-20)
(0.852973 -5.54483 1.6648e-22)
(0.819568 -5.29386 7.30342e-21)
(0.787399 -5.05387 1.6936e-20)
(0.756495 -4.8247 -1.1258e-20)
(0.726885 -4.60618 1.90322e-20)
(0.698593 -4.3981 -8.69519e-21)
(0.671637 -4.20017 1.47933e-20)
(0.646027 -4.0121 -1.08208e-20)
(0.621759 -3.83352 4.67606e-21)
(0.598824 -3.66405 1.14786e-20)
(0.5772 -3.50329 3.54839e-22)
(0.556857 -3.35079 -1.01348e-20)
(0.537756 -3.20612 5.42199e-21)
(0.519841 -3.06884 1.5838e-21)
(0.503045 -2.93854 -1.62106e-21)
(0.487381 -2.81477 6.06882e-21)
(0.472984 -2.69712 1.99975e-21)
(0.459134 -2.58529 -1.94024e-21)
(1.78857 -9.57037 4.63765e-20)
(1.56653 -9.13786 -2.68212e-21)
(1.4937 -8.71652 -5.97479e-20)
(1.43915 -8.32138 1.19695e-20)
(1.3801 -7.95137 -1.49169e-20)
(1.32447 -7.6007 1.17138e-20)
(1.27244 -7.26613 -4.74284e-21)
(1.2228 -6.94575 3.91228e-20)
(1.17508 -6.63824 -4.01783e-20)
(1.12908 -6.3428 9.8561e-21)
(1.08465 -6.05896 -5.91327e-21)
(1.04172 -5.78644 4.24556e-21)
(1.00028 -5.5251 -1.88999e-20)
(0.960331 -5.27482 -9.01747e-22)
(0.921905 -5.03551 2.73516e-20)
(0.885029 -4.80702 -1.87421e-20)
(0.849733 -4.58919 -1.11054e-20)
(0.816037 -4.3818 -7.44728e-21)
(0.783954 -4.1846 1.36568e-20)
(0.753488 -3.99726 2.70568e-21)
(0.724629 -3.81945 -1.23409e-20)
(0.697356 -3.65076 1.5767e-20)
(0.67164 -3.49078 -1.39647e-20)
(0.647438 -3.33907 8.81663e-21)
(0.6247 -3.1952 -4.94379e-21)
(0.603358 -3.05871 1.37822e-21)
(0.583332 -2.92917 2.12981e-21)
(0.564631 -2.80614 -9.68451e-21)
(0.547401 -2.68917 4.08269e-21)
(0.530829 -2.57799 5.4336e-23)
(2.0382 -9.52074 -4.50796e-20)
(1.80533 -9.09538 3.5183e-20)
(1.72198 -8.67729 -5.89909e-20)
(1.65756 -8.28475 1.10552e-19)
(1.58925 -7.91721 -2.9805e-20)
(1.52479 -7.56864 3.92173e-20)
(1.46428 -7.23585 2.96325e-20)
(1.40645 -6.91696 -5.74599e-21)
(1.35082 -6.61075 -6.8215e-21)
(1.29718 -6.31644 2.32925e-22)
(1.24538 -6.03361 -2.43329e-20)
(1.19536 -5.76204 1.27181e-20)
(1.1471 -5.50158 -1.40134e-20)
(1.10062 -5.25216 -1.21069e-21)
(1.05594 -5.01367 -3.62704e-20)
(1.0131 -4.78602 1.18849e-20)
(0.972132 -4.56903 6.18783e-21)
(0.933045 -4.36249 -7.07917e-21)
(0.895852 -4.16615 -8.49701e-22)
(0.860549 -3.97969 -9.94485e-21)
(0.827118 -3.80276 -3.41122e-21)
(0.795532 -3.63497 1.6743e-22)
(0.765748 -3.4759 -7.82728e-21)
(0.737715 -3.32511 -1.10609e-20)
(0.711369 -3.18215 5.36949e-22)
(0.686631 -3.04656 1.49766e-21)
(0.663406 -2.91789 3.17647e-21)
(0.6417 -2.7957 -7.61923e-21)
(0.621666 -2.67951 6.32373e-21)
(0.602398 -2.56908 -1.12178e-20)
(2.28648 -9.46468 -1.12046e-19)
(2.043 -9.04681 1.23823e-19)
(1.94925 -8.63228 -1.24033e-19)
(1.87507 -8.2426 -3.1317e-20)
(1.79758 -7.87776 -1.86087e-20)
(1.72436 -7.53151 -1.95541e-20)
(1.6554 -7.20068 -4.53724e-20)
(1.58942 -6.88348 -4.27529e-21)
(1.52592 -6.57875 -1.693e-20)
(1.46466 -6.28576 -3.12243e-21)
(1.4055 -6.00413 2.44397e-20)
(1.3484 -5.73367 -1.48841e-20)
(1.29333 -5.47427 -1.59368e-20)
(1.24032 -5.22586 -2.49333e-20)
(1.18941 -4.98838 5.11331e-20)
(1.14062 -4.76172 -1.88921e-20)
(1.09399 -4.54571 6.79476e-21)
(1.04953 -4.34017 -2.39935e-20)
(1.00725 -4.14483 9.22068e-21)
(0.967127 -3.95938 -3.42877e-21)
(0.92915 -3.78347 4.50172e-21)
(0.893276 -3.61671 -1.37156e-21)
(0.859453 -3.45868 1.25331e-20)
(0.827619 -3.30892 -4.33091e-21)
(0.797699 -3.16697 1.14992e-20)
(0.769598 -3.03239 -2.29614e-20)
(0.743208 -2.9047 1.43502e-20)
(0.718532 -2.78345 3.64865e-21)
(0.695728 -2.66815 6.71062e-21)
(0.673796 -2.55857 -1.97735e-20)
(2.53323 -9.40222 1.77193e-19)
(2.27939 -8.99218 -3.27027e-20)
(2.17538 -8.58149 5.22785e-20)
(2.09154 -8.19494 -1.41348e-20)
(2.00497 -7.83302 4.89846e-20)
(1.92305 -7.48931 4.35279e-20)
(1.8457 -7.16064 1.93616e-20)
(1.77161 -6.84533 -6.67024e-21)
(1.70025 -6.54226 -4.07021e-20)
(1.6314 -6.25077 5.90357e-20)
(1.56491 -5.97051 -3.35798e-21)
(1.50073 -5.70134 3.81098e-20)
(1.43887 -5.44317 1.30971e-20)
(1.37935 -5.19595 4.9614e-21)
(1.32222 -4.95964 7.14974e-21)
(1.2675 -4.73412 9.59674e-21)
(1.21522 -4.51926 1.49295e-20)
(1.16541 -4.31485 -3.95078e-21)
(1.11805 -4.12065 2.0314e-20)
(1.07314 -3.93635 8.7455e-21)
(1.03064 -3.76159 -1.79872e-20)
(0.990512 -3.59598 3.07352e-20)
(0.952682 -3.4391 -3.9343e-20)
(0.917081 -3.29049 3.60705e-20)
(0.883622 -3.14968 -1.16607e-20)
(0.852195 -3.01621 -4.46909e-21)
(0.822679 -2.88962 -9.38817e-22)
(0.79507 -2.76941 7.96976e-21)
(0.769533 -2.65509 2.71217e-21)
(0.744972 -2.54646 -3.05568e-21)
(2.7783 -9.33339 -1.00687e-19)
(2.51436 -8.9315 8.76147e-20)
(2.40023 -8.52497 -2.32704e-20)
(2.30684 -8.14179 6.37893e-20)
(2.21127 -7.78303 6.17506e-21)
(2.12073 -7.44205 1.09071e-20)
(2.03506 -7.11575 -9.59264e-20)
(1.9529 -6.80251 4.36382e-20)
(1.87371 -6.50128 5.6064e-20)
(1.79728 -6.21147 3.93559e-20)
(1.72347 -5.93278 -6.55686e-20)
(1.65225 -5.66507 3.64774e-20)
(1.58361 -5.4083 -3.54298e-20)
(1.5176 -5.16244 2.2661e-20)
(1.45426 -4.92745 -3.70353e-20)
(1.39362 -4.70324 -2.58669e-20)
(1.33573 -4.48967 2.18361e-21)
(1.28058 -4.28654 -1.06372e-20)
(1.22818 -4.09362 1.94438e-20)
(1.17851 -3.9106 7.34125e-21)
(1.13152 -3.73712 -4.8184e-21)
(1.08716 -3.57279 -1.36798e-21)
(1.04536 -3.41717 4.93439e-21)
(1.00603 -3.26983 -1.6723e-20)
(0.969071 -3.13027 2.67789e-20)
(0.934359 -2.99803 -6.60121e-21)
(0.901758 -2.87263 -1.05457e-20)
(0.871259 -2.75358 2.14415e-20)
(0.843029 -2.64033 2.58178e-21)
(0.815878 -2.53275 -2.81268e-21)
(3.02153 -9.25823 3.45184e-21)
(2.74775 -8.86482 -5.16937e-20)
(2.62365 -8.46272 -4.42154e-20)
(2.52083 -8.08318 -6.93581e-20)
(2.41637 -7.72779 2.24504e-21)
(2.31728 -7.38975 -4.39345e-20)
(2.22334 -7.06601 5.18912e-20)
(2.13315 -6.75503 -2.45996e-20)
(2.04618 -6.45584 3.6041e-20)
(1.9622 -6.16789 -3.09985e-20)
(1.8811 -5.89093 -1.479e-20)
(1.80284 -5.62487 7.71751e-21)
(1.72745 -5.36968 3.95589e-21)
(1.65496 -5.12534 -3.76548e-20)
(1.58544 -4.89184 2.18563e-20)
(1.51891 -4.66908 -9.82907e-21)
(1.45542 -4.45696 2.80929e-20)
(1.39497 -4.25526 -8.79497e-21)
(1.33756 -4.06376 9.00643e-21)
(1.28315 -3.88214 2.07887e-21)
(1.2317 -3.71007 1.39997e-20)
(1.18315 -3.54714 -2.9436e-21)
(1.13742 -3.39292 2.15535e-20)
(1.0944 -3.24695 -2.37435e-20)
(1.05398 -3.10875 -7.66095e-21)
(1.01602 -2.97785 6.09393e-21)
(0.980382 -2.85375 -7.4932e-22)
(0.947038 -2.73595 -1.59199e-20)
(0.91616 -2.62388 7.96404e-21)
(0.886462 -2.51744 -8.5968e-21)
(3.26274 -9.1768 1.6821e-19)
(2.97941 -8.79217 4.19335e-20)
(2.8455 -8.39479 4.75141e-20)
(2.73338 -8.01912 6.00288e-20)
(2.62013 -7.66732 8.6325e-20)
(2.51258 -7.33244 -2.4565e-21)
(2.41042 -7.01144 1.24209e-20)
(2.31225 -6.70291 1.27221e-19)
(2.21753 -6.40594 3.52801e-20)
(2.12604 -6.12004 -2.80631e-20)
(2.03767 -5.845 4.7444e-20)
(1.9524 -5.58075 7.07069e-21)
(1.87028 -5.32731 5.46679e-22)
(1.79134 -5.08467 1.0459e-20)
(1.71566 -4.85281 1.71634e-20)
(1.64327 -4.63168 -3.34613e-20)
(1.57421 -4.42114 2.79492e-20)
(1.50848 -4.22102 4.44855e-21)
(1.44608 -4.03107 2.47357e-20)
(1.38698 -3.851 -1.3341e-20)
(1.33111 -3.68046 2.07474e-20)
(1.27841 -3.51905 -2.14465e-20)
(1.22878 -3.36634 2.01133e-20)
(1.18211 -3.22186 2.39724e-21)
(1.13827 -3.08514 -1.28979e-20)
(1.09712 -2.95567 -3.855e-21)
(1.05849 -2.83298 2.29367e-20)
(1.02235 -2.71654 -3.46722e-21)
(0.98887 -2.60574 4.23463e-21)
(0.956672 -2.50055 -2.59144e-21)
(3.50178 -9.08915 1.6778e-20)
(3.2092 -8.71359 3.45688e-20)
(3.06564 -8.3212 1.33893e-19)
(2.94436 -7.94966 -2.1409e-19)
(2.82243 -7.60167 -1.92068e-20)
(2.7065 -7.27012 -2.11624e-20)
(2.59619 -6.95207 9.50859e-21)
(2.49009 -6.64617 1.1274e-20)
(2.38766 -6.35161 2.68005e-20)
(2.28868 -6.06793 -4.56364e-20)
(2.19307 -5.79499 -7.27846e-21)
(2.10083 -5.53274 2.38503e-20)
(2.01199 -5.28121 2.35135e-20)
(1.92664 -5.04043 -2.3676e-20)
(1.84482 -4.81039 -2.11312e-20)
(1.7666 -4.59103 3.53761e-20)
(1.692 -4.38224 2.14237e-20)
(1.62103 -4.18383 -5.92249e-21)
(1.55368 -3.99558 -1.29317e-20)
(1.48991 -3.81718 2.11507e-21)
(1.42966 -3.6483 -2.71826e-20)
(1.37284 -3.48853 3.19143e-20)
(1.31936 -3.33744 -2.12301e-20)
(1.26909 -3.19457 -6.63524e-22)
(1.22188 -3.05943 1.32073e-20)
(1.17759 -2.93152 -3.96544e-21)
(1.13601 -2.81034 -1.14971e-20)
(1.09713 -2.69535 1.90011e-21)
(1.0611 -2.58592 -4.55925e-22)
(1.02645 -2.48207 2.05047e-21)
(3.73848 -8.99533 -1.32617e-20)
(3.43695 -8.62912 -3.72097e-20)
(3.28394 -8.242 -1.54173e-19)
(3.15363 -7.87481 5.52922e-20)
(3.02314 -7.53084 -1.49731e-20)
(2.89891 -7.20283 5.00096e-20)
(2.78052 -6.8879 3.67694e-21)
(2.66654 -6.58483 -5.00917e-20)
(2.55643 -6.29286 2.47417e-21)
(2.45001 -6.01159 -6.41287e-20)
(2.34719 -5.74092 -1.71175e-21)
(2.248 -5.48085 1.40634e-20)
(2.15249 -5.23141 -2.34391e-20)
(2.06074 -4.99266 2.50417e-20)
(1.97283 -4.7646 -4.66237e-20)
(1.8888 -4.54717 -9.30443e-21)
(1.8087 -4.34026 2.67201e-20)
(1.73252 -4.14372 4.21015e-22)
(1.66026 -3.95729 -1.4582e-20)
(1.59187 -3.7807 3.96879e-20)
(1.52727 -3.6136 -2.12629e-20)
(1.46638 -3.45559 -2.68488e-20)
(1.40909 -3.30624 8.59484e-21)
(1.35526 -3.16509 -2.41861e-20)
(1.30474 -3.03164 -5.41959e-21)
(1.25735 -2.90539 -5.11624e-22)
(1.21288 -2.78583 -1.41974e-20)
(1.17131 -2.67239 1.70693e-20)
(1.13279 -2.56444 -5.78127e-21)
(1.09575 -2.46203 9.35565e-21)
(3.9727 -8.89539 -6.03512e-20)
(3.66252 -8.53882 -1.48692e-19)
(3.50025 -8.15723 6.61364e-20)
(3.36106 -7.79462 -6.06121e-20)
(3.22212 -7.45487 -4.17082e-20)
(3.08969 -7.13059 -2.20957e-20)
(2.96328 -6.81898 -8.11406e-20)
(2.84147 -6.51891 5.36123e-20)
(2.72374 -6.22971 -9.09281e-20)
(2.60991 -5.95103 -1.21256e-19)
(2.49992 -5.68282 1.64697e-20)
(2.39382 -5.42509 2.436e-20)
(2.29167 -5.17793 -1.13326e-21)
(2.19356 -4.94137 -4.22559e-20)
(2.09958 -4.71545 9.67835e-21)
(2.00979 -4.5001 -3.45774e-20)
(1.92422 -4.29524 -2.34848e-20)
(1.84288 -4.1007 -1.30394e-20)
(1.76574 -3.91623 -1.79524e-21)
(1.69276 -3.74157 2.27009e-20)
(1.62386 -3.57637 3.0578e-20)
(1.55895 -3.42024 -8.84883e-21)
(1.49789 -3.27275 -8.02722e-21)
(1.44055 -3.13343 1.5528e-20)
(1.38677 -3.00178 8.27034e-21)
(1.33633 -2.87729 -6.53776e-21)
(1.28904 -2.75945 -6.94573e-21)
(1.24483 -2.64768 8.93336e-22)
(1.20387 -2.54129 5.85645e-21)
(1.1645 -2.44042 -8.43379e-21)
(4.20427 -8.78941 -9.23673e-21)
(3.88577 -8.44273 1.85147e-19)
(3.71444 -8.06692 1.33215e-19)
(3.56652 -7.70913 9.79713e-20)
(3.41925 -7.37379 -6.24301e-20)
(3.27871 -7.05343 -1.19765e-20)
(3.14435 -6.74531 1.13325e-20)
(3.01477 -6.44844 6.73048e-20)
(2.88946 -6.16219 2.38947e-20)
(2.76826 -5.88629 3.43398e-20)
(2.65115 -5.62071 -7.40114e-20)
(2.53817 -5.36551 8.05065e-21)
(2.42942 -5.12078 2.78784e-20)
(2.32499 -4.88659 1.58778e-20)
(2.22499 -4.66297 3.09265e-20)
(2.12947 -4.44987 -2.17747e-20)
(2.03847 -4.24719 -1.84056e-20)
(1.952 -4.05479 4.04847e-21)
(1.87003 -3.87242 3.66954e-20)
(1.79251 -3.69982 -5.75691e-20)
(1.71936 -3.53664 1.98323e-20)
(1.65046 -3.38251 -2.04922e-23)
(1.58569 -3.23698 3.40308e-20)
(1.52489 -3.09959 -1.47276e-20)
(1.46789 -2.96985 -9.63912e-22)
(1.41447 -2.84723 -8.61336e-21)
(1.3644 -2.73123 -7.44849e-21)
(1.31762 -2.62122 1.55075e-21)
(1.27429 -2.51649 -1.7091e-20)
(1.23264 -2.41725 2.48571e-20)
(4.43303 -8.67745 -2.1071e-19)
(4.10655 -8.34092 -1.11521e-19)
(3.92636 -7.97114 -2.6938e-19)
(3.76988 -7.61837 -1.13682e-19)
(3.61441 -7.28764 1.0359e-19)
(3.46584 -6.97138 -5.62024e-20)
(3.32361 -6.66694 -1.15604e-20)
(3.18632 -6.37343 -3.32725e-20)
(3.05348 -6.09032 5.59693e-20)
(2.92496 -5.81738 -4.89906e-20)
(2.80076 -5.55461 5.63329e-21)
(2.68095 -5.30212 -2.11787e-21)
(2.56563 -5.06 -6.54387e-20)
(2.45494 -4.82835 -7.35058e-22)
(2.34895 -4.60718 1.74788e-20)
(2.24775 -4.39648 -1.64195e-21)
(2.15137 -4.19614 -5.77767e-20)
(2.05981 -4.00601 5.45183e-20)
(1.97306 -3.82588 -5.12251e-20)
(1.89104 -3.65546 1.95476e-20)
(1.81367 -3.49442 2.68552e-21)
(1.74084 -3.34239 1.0419e-21)
(1.6724 -3.19894 -1.85521e-20)
(1.6082 -3.0636 1.78899e-20)
(1.54803 -2.93587 -7.51068e-21)
(1.49168 -2.81523 7.78142e-21)
(1.43889 -2.70115 -4.06548e-20)
(1.3896 -2.59301 1.13423e-20)
(1.34395 -2.49005 1.1545e-20)
(1.30011 -2.39255 1.09926e-20)
(4.65883 -8.55958 4.06453e-19)
(4.32471 -8.23344 1.21508e-19)
(4.1359 -7.86994 6.80602e-20)
(3.971 -7.5224 1.0554e-19)
(3.80746 -7.19646 -1.18575e-20)
(3.65096 -6.88447 7.06322e-20)
(3.50093 -6.58389 1.48828e-19)
(3.35599 -6.29393 -1.95285e-20)
(3.21567 -6.01414 7.31685e-21)
(3.07988 -5.74433 1.49973e-19)
(2.94864 -5.48457 1.37153e-19)
(2.82204 -5.23495 1.89327e-20)
(2.70022 -4.99562 -5.87805e-21)
(2.58329 -4.76666 1.23459e-21)
(2.47137 -4.54812 8.72336e-20)
(2.36453 -4.33996 3.34004e-21)
(2.26282 -4.14211 8.46016e-20)
(2.16623 -3.9544 -1.12322e-20)
(2.07473 -3.77662 -1.6815e-20)
(1.98826 -3.60851 3.84112e-20)
(1.90673 -3.44973 -3.34888e-20)
(1.83001 -3.29991 -3.54961e-20)
(1.75795 -3.15864 -2.99609e-21)
(1.69038 -3.02545 -1.44061e-20)
(1.6271 -2.89984 2.18334e-20)
(1.56788 -2.78128 2.54619e-21)
(1.51243 -2.66924 -8.16261e-21)
(1.46069 -2.56307 4.99482e-21)
(1.4128 -2.46198 2.91662e-20)
(1.36683 -2.36631 3.92327e-21)
(4.88152 -8.43587 -7.00942e-20)
(4.54012 -8.12037 -1.24857e-19)
(4.34291 -7.76337 4.72526e-20)
(4.16978 -7.42125 -1.87505e-19)
(3.99828 -7.10028 8.32326e-20)
(3.83395 -6.79274 -1.46082e-19)
(3.67619 -6.49619 -8.88794e-20)
(3.52366 -6.20997 2.45698e-20)
(3.37593 -5.93367 1.97733e-20)
(3.23292 -5.66719 -1.06418e-19)
(3.09469 -5.4106 1.51539e-20)
(2.96136 -5.16404 1.50698e-20)
(2.83307 -4.92766 -5.03386e-20)
(2.70996 -4.70157 -1.87956e-20)
(2.59216 -4.48581 -1.18725e-20)
(2.47974 -4.28036 -1.16647e-20)
(2.37274 -4.08513 -4.61737e-20)
(2.27116 -3.89997 -2.71192e-20)
(2.17497 -3.72468 -5.5646e-21)
(2.0841 -3.55899 2.13896e-20)
(1.99845 -3.40258 2.73985e-20)
(1.91788 -3.25509 -2.9347e-20)
(1.84225 -3.1161 1.04976e-20)
(1.77137 -2.98516 -2.13332e-20)
(1.70503 -2.86176 1.90886e-20)
(1.64298 -2.74538 -2.50883e-20)
(1.58494 -2.63548 7.26212e-21)
(1.53082 -2.53139 -1.19268e-20)
(1.48075 -2.43228 -1.60911e-20)
(1.43272 -2.33855 -1.43858e-21)
(5.10094 -8.30641 -1.46709e-19)
(4.75264 -8.00177 -1.12631e-19)
(4.54728 -7.65149 -1.02615e-19)
(4.36607 -7.31498 -6.89216e-20)
(4.18674 -6.99916 2.12353e-19)
(4.01467 -6.69623 2.67102e-20)
(3.84927 -6.40389 8.1745e-20)
(3.68921 -6.12157 1.17997e-19)
(3.53412 -5.84895 5.23412e-20)
(3.38396 -5.58598 -6.9889e-20)
(3.23879 -5.33274 1.02153e-19)
(3.09878 -5.08942 3.07336e-20)
(2.96408 -4.85617 8.68694e-20)
(2.83485 -4.63311 9.15942e-21)
(2.71122 -4.42028 2.02821e-20)
(2.59327 -4.21768 6.78444e-21)
(2.48104 -4.02522 -9.24403e-22)
(2.37453 -3.84275 -2.43659e-21)
(2.2737 -3.67007 9.21969e-21)
(2.17847 -3.50692 2.97988e-20)
(2.08875 -3.35298 -3.267e-20)
(2.00439 -3.20792 2.47439e-20)
(1.92523 -3.07131 6.64101e-22)
(1.85108 -2.94272 1.05172e-20)
(1.78173 -2.82163 1.85701e-20)
(1.71692 -2.70754 -3.1983e-21)
(1.65634 -2.59989 1.75147e-20)
(1.59989 -2.49799 2.43024e-20)
(1.54771 -2.40096 -2.64472e-20)
(1.49771 -2.30928 -1.39927e-20)
(5.31695 -8.17128 4.20402e-19)
(4.96215 -7.87773 -4.25565e-20)
(4.74888 -7.53437 8.05492e-20)
(4.55977 -7.20364 1.38076e-19)
(4.37272 -6.89311 -3.7847e-19)
(4.193 -6.59497 3.89559e-20)
(4.02003 -6.30701 -1.28669e-19)
(3.85252 -6.02878 1.20568e-19)
(3.69014 -5.76003 -9.35181e-20)
(3.53288 -5.50073 4.4653e-20)
(3.38084 -5.25104 -1.63048e-19)
(3.2342 -5.01113 8.52926e-21)
(3.09315 -4.78118 -1.62154e-19)
(2.95786 -4.56131 7.05685e-20)
(2.82846 -4.35158 3.54084e-20)
(2.70504 -4.15198 5.06717e-20)
(2.58764 -3.96243 -5.28319e-20)
(2.47625 -3.78277 -3.68778e-21)
(2.37083 -3.61282 3.56645e-21)
(2.2713 -3.45232 9.93235e-21)
(2.17755 -3.30097 -5.7071e-20)
(2.08945 -3.15843 -1.45478e-21)
(2.00681 -3.02429 -2.98296e-20)
(1.92944 -2.89813 -6.81271e-21)
(1.85713 -2.77945 -1.71191e-20)
(1.78959 -2.66774 -1.80813e-20)
(1.72652 -2.56244 -1.80598e-20)
(1.66781 -2.46284 3.02093e-20)
(1.6136 -2.36801 7.83389e-21)
(1.56169 -2.27849 -1.34599e-20)
(5.52942 -8.03056 -2.79896e-19)
(5.16853 -7.74833 9.178e-20)
(4.94761 -7.41208 -1.45315e-19)
(4.75074 -7.08728 2.09273e-20)
(4.5561 -6.7822 2.10906e-19)
(4.36883 -6.48901 -1.03776e-19)
(4.18836 -6.20561 -9.98398e-20)
(4.01347 -5.93164 -8.30379e-20)
(3.84386 -5.66694 4.75691e-21)
(3.67956 -5.41151 4.93482e-20)
(3.52072 -5.16553 -3.25815e-20)
(3.36753 -4.92921 3.12097e-21)
(3.22019 -4.70272 6.73624e-20)
(3.0789 -4.48621 4.0232e-20)
(2.9438 -4.27974 1.02382e-20)
(2.81497 -4.08328 -3.29802e-20)
(2.69245 -3.89677 1.24681e-20)
(2.57624 -3.72006 2.56799e-20)
(2.4663 -3.55296 2.68206e-20)
(2.36252 -3.39522 -2.90788e-20)
(2.2648 -3.24655 4.42794e-21)
(2.17299 -3.10662 2.30515e-20)
(2.08692 -2.97504 3.85002e-20)
(2.00637 -2.8514 9.35244e-21)
(1.93113 -2.73521 -3.77353e-20)
(1.86092 -2.62597 4.25412e-20)
(1.79541 -2.52312 -2.11112e-20)
(1.73449 -2.42593 -2.42969e-20)
(1.6783 -2.33341 -1.45385e-20)
(1.62457 -2.24617 -1.73444e-20)
(5.73821 -7.88434 1.45455e-19)
(5.37168 -7.61365 -1.03189e-19)
(5.14336 -7.28466 4.08029e-20)
(4.93889 -6.96594 1.88024e-19)
(4.73675 -6.66646 4.81817e-20)
(4.54201 -6.37839 -3.8544e-20)
(4.35412 -6.09971 9.13313e-20)
(4.17193 -5.8302 2.35321e-20)
(3.99517 -5.56972 7.69296e-20)
(3.82391 -5.31834 4.02231e-20)
(3.65832 -5.07625 2.38909e-21)
(3.49864 -4.84369 2.28751e-20)
(3.3451 -4.62085 -6.90502e-21)
(3.19788 -4.40786 -5.78993e-20)
(3.05713 -4.20479 -8.65512e-21)
(2.92296 -4.01163 -1.57316e-20)
(2.79541 -3.8283 3.72694e-20)
(2.67445 -3.65466 3.6176e-20)
(2.56003 -3.49052 -3.97798e-20)
(2.45207 -3.33564 4.02908e-20)
(2.35043 -3.18974 8.13786e-20)
(2.25496 -3.05251 -5.1297e-20)
(2.16549 -2.92357 4.95321e-20)
(2.08181 -2.80251 -3.42901e-20)
(2.00368 -2.68889 -4.58915e-21)
(1.93082 -2.58219 3.42927e-20)
(1.86292 -2.48189 -7.1009e-21)
(1.79983 -2.38721 2.44882e-20)
(1.74172 -2.29713 2.36883e-20)
(1.68624 -2.2123 -4.19319e-20)
(5.94323 -7.73272 -1.38892e-19)
(5.57151 -7.47377 6.15449e-20)
(5.33603 -7.15218 2.19545e-20)
(5.12408 -6.83966 -2.17295e-19)
(4.91454 -6.54593 -1.04907e-19)
(4.71241 -6.26314 7.47463e-20)
(4.5172 -5.98938 -1.96705e-19)
(4.32778 -5.7245 2.25864e-19)
(4.14394 -5.46843 -1.21601e-19)
(3.96579 -5.22128 1.38995e-20)
(3.79354 -4.98327 -2.2853e-20)
(3.62745 -4.75465 -5.86146e-20)
(3.46777 -4.53561 1.18036e-19)
(3.31469 -4.32631 4.11515e-20)
(3.16839 -4.12679 5.28101e-20)
(3.02896 -3.93707 1.21432e-21)
(2.89643 -3.75704 2.14931e-20)
(2.77078 -3.5866 -4.46147e-20)
(2.65197 -3.42553 9.51139e-21)
(2.53988 -3.27361 2.87385e-20)
(2.43438 -3.13057 -1.19698e-20)
(2.33531 -2.9961 1.81719e-20)
(2.24248 -2.86986 -3.54942e-20)
(2.15569 -2.75146 4.96011e-20)
(2.0747 -2.64045 1.06847e-20)
(1.99923 -2.53637 -3.01546e-20)
(1.92894 -2.43868 -2.49029e-20)
(1.86372 -2.34663 5.9017e-22)
(1.80373 -2.2591 3.33056e-20)
(1.74657 -2.17683 -7.05791e-21)
(6.14441 -7.57577 -3.6966e-20)
(5.76795 -7.32876 -2.34588e-19)
(5.52553 -7.01468 2.7219e-19)
(5.30619 -6.70847 1.73844e-19)
(5.08934 -6.42065 1.62335e-19)
(4.87992 -6.14332 4.04099e-20)
(4.67745 -5.87465 6.10303e-20)
(4.48089 -5.61459 2.9229e-20)
(4.29006 -5.36312 -1.10614e-19)
(4.1051 -5.12038 1.96447e-19)
(3.92627 -4.88663 -1.46898e-19)
(3.75385 -4.66212 -7.49801e-21)
(3.58811 -4.44706 2.10819e-20)
(3.42926 -4.24159 -8.16943e-20)
(3.27748 -4.04579 1.26132e-19)
(3.13287 -3.85964 2.3155e-20)
(2.99544 -3.68306 -4.94907e-20)
(2.86519 -3.51592 1.77192e-20)
(2.74205 -3.35803 -3.44238e-20)
(2.6259 -3.20917 -2.9155e-20)
(2.51659 -3.06906 -2.9695e-20)
(2.41397 -2.93743 6.60382e-21)
(2.31783 -2.81394 3.13419e-21)
(2.22797 -2.69822 -6.69466e-20)
(2.14415 -2.58987 -2.41649e-20)
(2.06607 -2.48844 1.60231e-20)
(1.99342 -2.39343 1.87953e-20)
(1.92606 -2.30407 -2.55382e-20)
(1.86421 -2.21922 -9.3621e-21)
(1.80541 -2.13963 8.07728e-22)
(6.34177 -7.41356 -3.67773e-20)
(5.96098 -7.17869 1.52108e-19)
(5.71173 -6.87218 -4.22642e-20)
(5.4851 -6.57241 -5.05487e-20)
(5.26101 -6.29065 -2.50456e-19)
(5.04437 -6.01896 -4.94081e-20)
(4.83475 -5.75558 9.46713e-20)
(4.63114 -5.50053 -5.82828e-20)
(4.4334 -5.25385 -5.12302e-21)
(4.24172 -5.01571 -1.11598e-20)
(4.0564 -4.78639 5.49574e-20)
(3.87774 -4.56616 -8.49629e-20)
(3.70602 -4.35524 -5.36191e-20)
(3.5415 -4.15378 6.0128e-20)
(3.38433 -3.96184 -3.26148e-20)
(3.23462 -3.7794 1.55084e-20)
(3.09239 -3.60639 2.06326e-21)
(2.95762 -3.44268 -1.21706e-20)
(2.83022 -3.28807 4.19174e-20)
(2.71009 -3.14234 -3.80393e-20)
(2.59705 -3.00525 -2.9103e-20)
(2.49093 -2.8765 2.48256e-20)
(2.39153 -2.7558 -3.06241e-21)
(2.29863 -2.6428 -1.74263e-20)
(2.212 -2.53712 1.4953e-20)
(2.13133 -2.43835 -4.48307e-20)
(2.05631 -2.34604 2.72526e-20)
(1.98681 -2.25943 -4.32226e-22)
(1.92309 -2.17733 -2.66715e-20)
(1.86271 -2.1005 3.58161e-20)
(6.53559 -7.24634 1.29979e-19)
(6.15067 -7.02365 -3.03268e-19)
(5.89454 -6.72471 -2.20263e-20)
(5.66063 -6.43147 1.25179e-19)
(5.42938 -6.15596 -3.01132e-20)
(5.20563 -5.89011 -8.00854e-20)
(4.98895 -5.63221 3.61435e-20)
(4.77838 -5.38237 3.87329e-20)
(4.57383 -5.14066 2.83906e-21)
(4.37553 -4.90731 4.32969e-20)
(4.18381 -4.68261 1.3073e-19)
(3.999 -4.46684 -4.60477e-20)
(3.82142 -4.26023 1.00566e-20)
(3.65131 -4.06293 -2.60284e-20)
(3.48885 -3.87499 1.00377e-19)
(3.33414 -3.69641 -1.7024e-20)
(3.1872 -3.5271 2.48163e-20)
(3.048 -3.36692 -4.00924e-20)
(2.91644 -3.21569 2.10005e-20)
(2.7924 -3.07319 3.0564e-20)
(2.6757 -2.93917 4.85105e-21)
(2.56616 -2.81336 1.91663e-20)
(2.46356 -2.69547 -1.52434e-20)
(2.36767 -2.5852 4.20039e-20)
(2.27825 -2.48217 -1.67056e-20)
(2.19501 -2.38604 5.9304e-20)
(2.11761 -2.29639 -1.70615e-20)
(2.04594 -2.21252 1.12263e-20)
(1.98035 -2.13317 -2.08323e-20)
(1.91846 -2.05924 3.46846e-20)
(6.72665 -7.07439 -2.93037e-19)
(6.33723 -6.86353 1.09662e-20)
(6.07383 -6.57211 -1.40642e-19)
(5.83259 -6.28562 2.45178e-20)
(5.59427 -6.01659 6.12956e-21)
(5.36351 -5.75681 -1.05619e-19)
(5.13989 -5.50461 -1.8834e-19)
(4.92247 -5.26018 8.99334e-20)
(4.71122 -5.02365 -1.23394e-19)
(4.50641 -4.79527 -6.05498e-20)
(4.30839 -4.57537 -3.23873e-20)
(4.11755 -4.36423 -2.4074e-20)
(3.9342 -4.16209 -1.59412e-22)
(3.75861 -3.9691 -8.21889e-20)
(3.59096 -3.78531 4.9457e-20)
(3.43135 -3.61072 -8.07475e-20)
(3.2798 -3.44523 -1.92767e-20)
(3.13627 -3.28871 2.16819e-20)
(3.00065 -3.14096 -8.61553e-21)
(2.8728 -3.00176 2.364e-20)
(2.75254 -2.87088 1.74168e-20)
(2.63965 -2.74805 -4.28366e-20)
(2.53392 -2.633 4.19723e-20)
(2.4351 -2.52543 -4.51226e-21)
(2.34294 -2.42502 -1.07517e-20)
(2.25714 -2.33145 -4.11125e-20)
(2.17734 -2.24433 -2.1089e-20)
(2.10341 -2.16297 3.84988e-20)
(2.0357 -2.08621 -1.26682e-20)
(1.97215 -2.01564 -1.1264e-20)
(6.91533 -6.89692 1.30713e-19)
(6.52053 -6.69751 1.36011e-20)
(6.24931 -6.41411 -2.82758e-20)
(6.00075 -6.13488 -3.87979e-21)
(5.75551 -5.87268 -4.26273e-20)
(5.51791 -5.61922 1.42683e-19)
(5.28748 -5.37293 -6.39647e-20)
(5.06334 -5.1341 4.18601e-20)
(4.84549 -4.90293 1.73931e-20)
(4.63427 -4.67971 5.44252e-20)
(4.43007 -4.46477 -1.85076e-20)
(4.23329 -4.25843 1.05537e-19)
(4.04429 -4.06092 -8.63805e-21)
(3.86333 -3.87239 6.17791e-20)
(3.6906 -3.6929 -9.88705e-20)
(3.5262 -3.52243 -5.84822e-21)
(3.37015 -3.36089 5.98792e-20)
(3.22239 -3.20812 -3.5422e-20)
(3.08282 -3.06395 1.40178e-20)
(2.95126 -2.92815 2.32626e-20)
(2.82754 -2.80047 -3.23497e-20)
(2.71142 -2.68067 3.61183e-20)
(2.60266 -2.56846 -3.18333e-20)
(2.50101 -2.46358 7.25374e-21)
(2.40621 -2.36573 2.49122e-20)
(2.31794 -2.27459 1.66534e-20)
(2.23586 -2.18973 1.52566e-20)
(2.15963 -2.11041 1.08478e-20)
(2.08909 -2.03595 -2.94189e-20)
(2.02284 -1.96884 -1.10164e-20)
(9.81707 0.0131933 1.61867e-21)
(9.81058 -0.24553 1.50755e-20)
(9.79796 -0.502832 5.24215e-20)
(9.77939 -0.759132 2.82444e-20)
(9.75445 -1.01455 -6.17335e-20)
(9.72291 -1.26905 1.84861e-20)
(9.68474 -1.52251 -1.8775e-20)
(9.63997 -1.77481 -4.83081e-20)
(9.5886 -2.02579 2.67639e-20)
(9.53069 -2.27529 -3.05848e-20)
(9.46626 -2.52314 -2.92539e-20)
(9.39537 -2.76918 -6.4614e-20)
(9.31808 -3.01323 -1.87504e-19)
(9.23444 -3.25514 1.75834e-20)
(9.14453 -3.49474 -4.97556e-21)
(9.0484 -3.73186 -6.30721e-20)
(8.94614 -3.96636 1.2698e-19)
(8.83781 -4.19807 7.14499e-20)
(8.7235 -4.42684 1.32046e-19)
(8.6033 -4.65252 6.3431e-20)
(8.47728 -4.87495 -1.51575e-19)
(8.34555 -5.09401 6.8844e-21)
(8.2082 -5.30954 -2.87655e-19)
(8.06534 -5.52142 4.38365e-19)
(7.91706 -5.72951 -1.4196e-19)
(7.76349 -5.9337 -1.91208e-19)
(7.60475 -6.1339 -2.80911e-20)
(7.44098 -6.33007 -3.83146e-21)
(7.27229 -6.52228 -1.49847e-19)
(7.09928 -6.7106 2.61387e-19)
(9.46232 -0.126647 5.50395e-21)
(9.45209 -0.375385 7.69173e-21)
(9.43515 -0.622886 1.40126e-21)