/*--------------------------------*- C++ -*----------------------------------*\
  =========                 |
  \\      /  F ield         | OpenFOAM: The Open Source CFD Toolbox
   \\    /   O peration     | Website:  https://openfoam.org
    \\  /    A nd           | Version:  6.0
     \\/     M anipulation  |
\*---------------------------------------------------------------------------*/
FoamFile
{
    version     2.0;
    format      ascii;
    class       volVectorField;
    location    "28.5";
    object      U;
}
// * * * * * * * * * * * * * * * * * * * * * * * * * * * * * * * * * * * * * //

dimensions      [0 1 -1 0 0 0 0];

internalField   nonuniform List<vector> 
19200
(
(0.268634 -9.58804 -2.77918e-20)
(0.127402 -9.00243 1.36878e-20)
(0.14687 -8.56936 6.48726e-21)
(0.18838 -8.24581 5.86477e-21)
(0.227094 -7.99891 6.64579e-21)
(0.26956 -7.80359 4.07747e-22)
(0.314646 -7.64187 9.58995e-21)
(0.360074 -7.50115 -7.46172e-22)
(0.404561 -7.37278 8.53309e-21)
(0.447281 -7.25095 3.57987e-21)
(0.487659 -7.13199 -4.67739e-23)
(0.525344 -7.0137 5.7574e-21)
(0.560163 -6.8949 9.66161e-21)
(0.592078 -6.77514 -6.62625e-21)
(0.621148 -6.65441 8.49417e-21)
(0.647502 -6.533 7.41299e-21)
(0.671311 -6.41134 -7.01439e-21)
(0.692774 -6.28994 1.20561e-20)
(0.712102 -6.16932 -7.73181e-21)
(0.729509 -6.04998 3.86781e-21)
(0.745206 -5.93235 5.48994e-21)
(0.759393 -5.81678 -1.80907e-21)
(0.772261 -5.70355 2.44018e-21)
(0.783986 -5.59283 -2.86886e-21)
(0.794726 -5.48469 6.27545e-21)
(0.804622 -5.37908 1.52157e-21)
(0.813793 -5.27585 -1.01716e-21)
(0.82235 -5.17471 6.05708e-22)
(0.830416 -5.07525 1.45441e-21)
(0.837911 -4.97687 5.67158e-21)
(0.51967 -9.58324 -6.40671e-21)
(0.364478 -9.01381 4.23294e-20)
(0.373314 -8.59073 -2.25951e-20)
(0.406872 -8.27446 -3.15014e-20)
(0.439541 -8.03297 -1.45162e-20)
(0.477161 -7.84126 -1.04942e-20)
(0.518118 -7.6816 -2.29922e-20)
(0.55981 -7.54169 2.88428e-21)
(0.600745 -7.41313 -4.74497e-21)
(0.639965 -7.29035 -1.72759e-20)
(0.676822 -7.16989 -4.40036e-20)
(0.710928 -7.0497 2.16024e-20)
(0.742102 -6.92877 -8.1493e-21)
(0.770315 -6.80674 3.08921e-21)
(0.795643 -6.68371 -1.90388e-20)
(0.818234 -6.56004 -7.07356e-21)
(0.838284 -6.43619 7.93882e-22)
(0.856014 -6.31274 2.42722e-20)
(0.871654 -6.19021 -1.27591e-20)
(0.885438 -6.06911 -7.10358e-21)
(0.897589 -5.9499 -2.82186e-20)
(0.908319 -5.83292 7.27495e-21)
(0.917827 -5.71844 -4.60256e-21)
(0.926292 -5.60665 8.20035e-21)
(0.933876 -5.49758 -1.03099e-20)
(0.940717 -5.3912 -5.98627e-21)
(0.946927 -5.28732 1.9485e-21)
(0.952619 -5.18563 3.06468e-21)
(0.957951 -5.08567 -5.41342e-21)
(0.962737 -4.98684 2.63965e-21)
(0.770671 -9.57249 -3.06667e-21)
(0.601943 -9.01931 8.62809e-21)
(0.600758 -8.60636 1.3586e-20)
(0.62683 -8.29749 1.09837e-19)
(0.65376 -8.06151 -6.45869e-20)
(0.68673 -7.87344 5.90769e-20)
(0.723665 -7.71585 3.67666e-20)
(0.761659 -7.57674 2.92773e-20)
(0.799024 -7.44798 -2.81042e-20)
(0.834686 -7.32426 -3.24315e-21)
(0.867934 -7.20231 7.19939e-20)
(0.898356 -7.08026 1.22442e-20)
(0.92577 -6.95725 -3.38864e-20)
(0.95016 -6.83303 2.66424e-20)
(0.971624 -6.70778 -1.29234e-22)
(0.990336 -6.58193 1.15388e-20)
(1.00652 -6.45601 8.32853e-21)
(1.02041 -6.33061 2.84165e-20)
(1.03227 -6.20628 -1.24862e-20)
(1.04234 -6.08356 -4.09261e-21)
(1.05087 -5.96288 -1.10523e-20)
(1.05808 -5.84461 4.93996e-20)
(1.06417 -5.72902 -4.14383e-20)
(1.06933 -5.61627 1.34487e-20)
(1.07372 -5.5064 3.13612e-20)
(1.07747 -5.39936 -2.56936e-20)
(1.08069 -5.29494 3.44049e-20)
(1.0835 -5.19282 -3.687e-21)
(1.08608 -5.09249 -3.91176e-21)
(1.08813 -4.99333 -2.65225e-20)
(1.02138 -9.55551 -1.01359e-19)
(0.839749 -9.0189 -9.1922e-20)
(0.829097 -8.61624 -1.14419e-19)
(0.848116 -8.3149 2.99121e-21)
(0.86961 -8.08447 6.95248e-21)
(0.89812 -7.90005 -1.33419e-19)
(0.931133 -7.74452 5.90743e-21)
(0.965458 -7.6062 1.77145e-20)
(0.999231 -7.47724 -2.94475e-21)
(1.03127 -7.35259 3.10392e-20)
(1.06082 -7.22917 -1.23093e-19)
(1.08745 -7.1053 -7.7762e-20)
(1.11099 -6.98026 2.87836e-20)
(1.13144 -6.85392 5.83865e-20)
(1.14892 -6.72655 -6.78602e-20)
(1.16364 -6.59863 -1.07332e-20)
(1.17585 -6.47075 -4.07768e-20)
(1.18581 -6.34352 -1.9358e-20)
(1.1938 -6.21752 3.27904e-20)
(1.20008 -6.09329 -4.21205e-20)
(1.20492 -5.97128 3.69851e-20)
(1.20855 -5.85185 -4.38613e-20)
(1.21117 -5.73526 -3.47887e-20)
(1.21298 -5.62167 -2.51718e-20)
(1.21413 -5.51112 2.92777e-20)
(1.21477 -5.40354 -5.22335e-20)
(1.21498 -5.2987 5.43448e-21)
(1.21489 -5.19627 9.48341e-21)
(1.21471 -5.09569 -2.77047e-20)
(1.21399 -4.99633 5.6077e-21)
(1.27172 -9.53221 -6.0163e-20)
(1.07787 -9.01254 8.81358e-21)
(1.05826 -8.62036 7.88085e-20)
(1.07062 -8.32663 8.38227e-20)
(1.08696 -8.10177 6.11775e-20)
(1.11118 -7.921 2.55755e-20)
(1.14037 -7.76751 3.96957e-20)
(1.17105 -7.62996 1.85068e-19)
(1.2012 -7.5008 -1.11341e-19)
(1.22955 -7.37521 3.04963e-21)
(1.25531 -7.25036 2.70895e-20)
(1.27805 -7.12472 1.19019e-19)
(1.29759 -6.99772 -8.13365e-20)
(1.31398 -6.86935 5.89412e-20)
(1.32737 -6.73995 -6.60435e-20)
(1.33798 -6.61007 1.13866e-19)
(1.34611 -6.48034 -3.36277e-20)
(1.35204 -6.35141 1.22731e-21)
(1.35608 -6.22387 5.51369e-20)
(1.35851 -6.09826 3.90106e-20)
(1.35959 -5.97505 -3.97732e-20)
(1.35958 -5.85458 5.409e-20)
(1.35869 -5.73713 -2.4824e-20)
(1.35711 -5.62283 2.87041e-20)
(1.355 -5.51172 3.2134e-20)
(1.3525 -5.40371 1.42732e-20)
(1.34969 -5.29858 4.35577e-20)
(1.34669 -5.19595 -1.54141e-20)
(1.34374 -5.09525 -5.05027e-21)
(1.34023 -4.99581 -2.46707e-20)
(1.52154 -9.50254 -4.38767e-20)
(1.3162 -9.00018 -2.88216e-20)
(1.28813 -8.61865 -8.94789e-20)
(1.29421 -8.33259 -2.3706e-19)
(1.30566 -8.11333 7.95552e-20)
(1.32577 -7.93619 5.31357e-21)
(1.3512 -7.78471 -5.55239e-20)
(1.37825 -7.64792 1.14436e-20)
(1.40475 -7.51855 -7.80683e-21)
(1.42935 -7.39205 -1.46582e-19)
(1.45123 -7.26579 6.1534e-20)
(1.46996 -7.13844 1.07309e-19)
(1.4854 -7.00955 2.06648e-22)
(1.49761 -6.87923 4.02109e-20)
(1.50679 -6.74791 1.00488e-19)
(1.51319 -6.61619 -6.96245e-20)
(1.51715 -6.48475 1.22972e-19)
(1.51897 -6.35424 -5.91542e-20)
(1.51897 -6.22529 1.05406e-19)
(1.51747 -6.09845 -7.94889e-20)
(1.51474 -5.97417 3.55243e-20)
(1.51104 -5.8528 9.41811e-20)
(1.50659 -5.7346 5.72506e-21)
(1.50159 -5.61972 -8.79872e-20)
(1.4962 -5.50817 4.86185e-20)
(1.49055 -5.39986 1.49327e-20)
(1.48469 -5.29456 -1.61366e-20)
(1.47878 -5.19185 6.1618e-20)
(1.47307 -5.09113 2.19146e-20)
(1.46677 -4.99175 -2.10602e-20)
(1.77069 -9.46648 1.24004e-19)
(1.55462 -8.98176 -1.38413e-21)
(1.51859 -8.61104 -1.81976e-19)
(1.51876 -8.33272 3.73723e-20)
(1.52558 -8.11905 -5.32468e-20)
(1.54173 -7.94553 3.8477e-20)
(1.56348 -7.79604 8.64802e-20)
(1.58691 -7.65998 1.59678e-19)
(1.60971 -7.5304 -1.74382e-19)
(1.63048 -7.403 4.27857e-20)
(1.64838 -7.27538 -3.07538e-20)
(1.663 -7.14638 2.25976e-20)
(1.67422 -7.01569 -1.00356e-19)
(1.68214 -6.88352 -6.78338e-21)
(1.687 -6.75039 1.64068e-19)
(1.6891 -6.61696 -1.13226e-19)
(1.68879 -6.48392 -7.23349e-20)
(1.68641 -6.35198 -5.31881e-20)
(1.68231 -6.22177 9.6579e-20)
(1.67682 -6.09382 2.10501e-20)
(1.67022 -5.96861 -9.63134e-20)
(1.66279 -5.84647 1.29114e-19)
(1.65476 -5.72766 -1.17033e-19)
(1.64631 -5.61232 7.79449e-20)
(1.63761 -5.50046 -4.43809e-20)
(1.62878 -5.39198 1.35687e-20)
(1.61989 -5.28661 2.19599e-20)
(1.61107 -5.18395 -9.82652e-20)
(1.60259 -5.08334 4.23236e-20)
(1.5935 -4.98414 6.99901e-22)
(2.01902 -9.42402 -1.21915e-19)
(1.79299 -8.95725 9.83528e-20)
(1.74951 -8.59747 -1.88131e-19)
(1.74412 -8.32694 3.61331e-19)
(1.74656 -8.11885 -1.02243e-19)
(1.75889 -7.94892 1.47981e-19)
(1.77703 -7.80139 -9.99901e-22)
(1.79684 -7.66605 -2.0469e-20)
(1.8159 -7.53625 -3.07618e-20)
(1.83277 -7.40799 -5.13981e-22)
(1.84659 -7.27905 -1.20611e-19)
(1.85698 -7.14847 6.30116e-20)
(1.86387 -7.01607 -7.6927e-20)
(1.8674 -6.88216 -6.02861e-21)
(1.86784 -6.74734 -2.18412e-19)
(1.86553 -6.61232 7.1592e-20)
(1.86086 -6.47784 4.19753e-20)
(1.85421 -6.3446 -4.75762e-20)
(1.84594 -6.21326 -5.5699e-21)
(1.8364 -6.08436 -7.3945e-20)
(1.82589 -5.95835 -2.6619e-20)
(1.81469 -5.83559 2.50245e-21)
(1.80304 -5.7163 -6.56425e-20)
(1.79112 -5.60063 -9.83042e-20)
(1.7791 -5.48858 4.11588e-21)
(1.7671 -5.38004 1.39696e-20)
(1.75516 -5.27474 3.14925e-20)
(1.74343 -5.17224 -7.81114e-20)
(1.73222 -5.07185 6.68117e-20)
(1.72032 -4.97298 -1.26655e-19)
(2.26636 -9.37517 -3.01443e-19)
(2.03115 -8.9266 3.66013e-19)
(1.98073 -8.57789 -3.93116e-19)
(1.97014 -8.31517 -1.08057e-19)
(1.96844 -8.11266 -7.03209e-20)
(1.97709 -7.94627 -7.7317e-20)
(1.99168 -7.80068 -7.08666e-20)
(2.00786 -7.66604 -1.49269e-20)
(2.02314 -7.53604 -7.27852e-20)
(2.03601 -7.40693 -1.56472e-20)
(2.04566 -7.27673 1.25689e-19)
(2.05173 -7.14464 -7.10687e-20)
(2.05417 -7.01063 -8.54327e-20)
(2.0532 -6.8751 -1.45883e-19)
(2.04911 -6.73872 3.08095e-19)
(2.04231 -6.60225 -1.19061e-19)
(2.0332 -6.46646 4.47486e-20)
(2.02221 -6.33208 -1.68454e-19)
(2.00971 -6.19976 6.49231e-20)
(1.99607 -6.07005 -2.69553e-20)
(1.98161 -5.94339 3.38604e-20)
(1.9666 -5.82013 -1.18077e-20)
(1.9513 -5.70051 1.08281e-19)
(1.9359 -5.58464 -3.85094e-20)
(1.92055 -5.47252 1.07508e-19)
(1.90537 -5.36404 -2.19915e-19)
(1.89039 -5.25892 1.40933e-19)
(1.87577 -5.1567 3.93558e-20)
(1.86182 -5.05666 7.39737e-20)
(1.84714 -4.95824 -2.23733e-19)
(2.51255 -9.31994 4.76046e-19)
(2.26894 -8.88978 -9.16001e-20)
(2.21211 -8.55224 1.69543e-19)
(2.19667 -8.29734 -4.87798e-20)
(2.19106 -8.10038 1.72263e-19)
(2.19616 -7.93751 1.65481e-19)
(2.20724 -7.79382 1.8927e-19)
(2.21979 -7.65986 -1.58239e-20)
(2.23122 -7.52967 -1.85897e-19)
(2.24003 -7.39976 2.73377e-19)
(2.2454 -7.26836 -2.20177e-20)
(2.24703 -7.13485 1.95773e-19)
(2.24493 -6.99932 7.17122e-20)
(2.23934 -6.86229 2.61869e-20)
(2.23064 -6.72448 4.18449e-20)
(2.21925 -6.58671 5.86154e-20)
(2.20564 -6.44976 9.84771e-20)
(2.19023 -6.31439 -2.86812e-20)
(2.17345 -6.18125 1.47024e-19)
(2.15566 -6.05087 6.83767e-20)
(2.13721 -5.92372 -1.42995e-19)
(2.11838 -5.8001 2.55311e-19)
(2.09941 -5.68027 -3.38894e-19)
(2.0805 -5.56433 3.22117e-19)
(2.06182 -5.45227 -1.07118e-19)
(2.04346 -5.34398 -4.46654e-20)
(2.02546 -5.23916 -1.18694e-20)
(2.00796 -5.13734 8.00746e-20)
(1.99131 -5.03776 2.89308e-20)
(1.97385 -4.93992 -3.43061e-20)
(2.75742 -9.25834 -2.71567e-19)
(2.50622 -8.84678 2.68369e-19)
(2.44347 -8.52047 -7.35526e-20)
(2.42354 -8.2734 2.14245e-19)
(2.41424 -8.08195 2.12998e-20)
(2.41592 -7.92256 4.80606e-20)
(2.42353 -7.78073 -3.80383e-19)
(2.43243 -7.64746 -6.81804e-20)
(2.43996 -7.51708 2.49415e-19)
(2.44461 -7.3864 1.92056e-19)
(2.44561 -7.25387 -3.2871e-19)
(2.4427 -7.11904 1.93151e-19)
(2.43595 -6.98211 -1.93871e-19)
(2.42565 -6.84371 1.34976e-19)
(2.41224 -6.70461 -2.27129e-19)
(2.39619 -6.56568 -1.70191e-19)
(2.37799 -6.42774 1.00607e-20)
(2.35811 -6.29153 -7.92449e-20)
(2.337 -6.15772 1.40716e-19)
(2.31503 -6.02683 5.65808e-20)
(2.29255 -5.89932 -3.71165e-20)
(2.26987 -5.7755 -1.07908e-20)
(2.24722 -5.65559 4.48319e-20)
(2.22481 -5.53971 -1.49761e-19)
(2.2028 -5.42784 2.49997e-19)
(2.18126 -5.31984 -6.0951e-20)
(2.16024 -5.21545 -1.05224e-19)
(2.13989 -5.11415 2.21383e-19)
(2.12056 -5.01515 3.01739e-20)
(2.10036 -4.91803 -3.05424e-20)
(3.00082 -9.19039 1.08746e-20)
(2.74282 -8.79757 -1.48032e-19)
(2.67467 -8.48254 -1.38363e-19)
(2.65058 -8.24329 -2.32262e-19)
(2.63781 -8.0573 8.129e-21)
(2.63618 -7.90134 -1.71815e-19)
(2.64037 -7.76135 2.03959e-19)
(2.64559 -7.62874 -2.00707e-20)
(2.64915 -7.49821 1.69492e-19)
(2.64957 -7.36682 -1.3957e-19)
(2.6461 -7.23323 -7.25771e-20)
(2.63854 -7.09716 4.00423e-20)
(2.62703 -6.95896 2.18569e-20)
(2.61194 -6.81932 -2.24768e-19)
(2.59373 -6.67909 1.32851e-19)
(2.57294 -6.53916 -6.67329e-20)
(2.55009 -6.40037 1.89529e-19)
(2.52569 -6.26349 -6.29578e-20)
(2.5002 -6.12916 6.58823e-20)
(2.47401 -5.99793 1.65227e-20)
(2.44749 -5.87021 1.13963e-19)
(2.42094 -5.74632 -2.31704e-20)
(2.3946 -5.62648 1.89506e-19)
(2.36868 -5.51078 -2.11506e-19)
(2.34333 -5.39921 -7.22385e-20)
(2.31864 -5.29165 5.9307e-20)
(2.29462 -5.1878 -5.93713e-21)
(2.27144 -5.08714 -1.64306e-19)
(2.24947 -4.98882 8.46747e-20)
(2.22654 -4.89256 -9.70875e-20)
(3.24257 -9.11611 4.5965e-19)
(2.97857 -8.74213 1.24401e-19)
(2.90553 -8.43841 1.51513e-19)
(2.87762 -8.20694 2.07609e-19)
(2.86159 -8.02637 3.15298e-19)
(2.85676 -7.87378 -9.61517e-21)
(2.85754 -7.7356 4.61574e-20)
(2.85906 -7.60366 3.63482e-19)
(2.8586 -7.473 -7.48187e-20)
(2.85469 -7.34094 -1.36474e-19)
(2.84665 -7.20639 2.41922e-19)
(2.83435 -7.0692 4.15527e-20)
(2.81799 -6.92985 1.98175e-21)
(2.798 -6.78911 5.87526e-20)
(2.77492 -6.6479 1.06201e-19)
(2.74932 -6.50712 -2.2018e-19)
(2.72177 -6.36766 1.88139e-19)
(2.6928 -6.23027 3.1864e-20)
(2.66289 -6.09559 1.86219e-19)
(2.63246 -5.96416 -1.01325e-19)
(2.60188 -5.83638 1.68386e-19)
(2.57144 -5.71257 -1.80041e-19)
(2.54141 -5.59293 1.74828e-19)
(2.51198 -5.47755 2.48549e-20)
(2.4833 -5.36641 -1.18382e-19)
(2.45546 -5.25939 -3.90999e-20)
(2.42846 -5.1562 2.29023e-19)
(2.40248 -5.05629 -3.46301e-20)
(2.3779 -4.95879 4.46531e-20)
(2.35229 -4.86352 -3.00986e-20)
(3.4825 -9.03555 4.6702e-20)
(3.21331 -8.68047 1.09145e-19)
(3.13587 -8.38805 4.50013e-19)
(3.10448 -8.16432 -7.38621e-19)
(3.0854 -7.9891 -7.43451e-20)
(3.07746 -7.83984 -8.10745e-20)
(3.07487 -7.70343 3.61493e-20)
(3.07265 -7.57215 4.90705e-20)
(3.06809 -7.44139 8.27664e-20)
(3.05977 -7.30874 -2.23601e-19)
(3.04707 -7.17331 -4.44345e-20)
(3.02992 -7.03511 1.2626e-19)
(3.00862 -6.89475 1.37848e-19)
(2.98365 -6.75306 -1.37857e-19)
(2.95562 -6.61102 -1.37967e-19)
(2.92515 -6.46958 2.23449e-19)
(2.89284 -6.3296 1.47086e-19)
(2.85926 -6.19186 -3.78126e-20)
(2.82491 -6.057 -9.49179e-20)
(2.79021 -5.92553 1.73187e-20)
(2.75555 -5.79785 -2.21702e-19)
(2.72123 -5.67427 2.68126e-19)
(2.6875 -5.55496 -1.84115e-19)
(2.65456 -5.44002 -7.97749e-21)
(2.62257 -5.32944 1.22214e-19)
(2.59159 -5.22309 -3.83211e-20)
(2.56164 -5.12067 -1.16434e-19)
(2.53289 -5.02163 1.79835e-20)
(2.50575 -4.92506 -4.85641e-21)
(2.4775 -4.83092 2.34816e-20)
(3.72046 -8.94873 -3.43633e-20)
(3.44687 -8.61258 -1.13586e-19)
(3.36554 -8.33143 -5.18523e-19)
(3.33098 -8.11538 1.8717e-19)
(3.30905 -7.94545 -5.80476e-20)
(3.2981 -7.79945 1.91052e-19)
(3.29214 -7.66479 1.40716e-20)
(3.28615 -7.53418 -2.25244e-19)
(3.27743 -7.40336 3.42405e-19)
(3.26461 -7.27018 -3.10964e-19)
(3.24714 -7.13396 -1.2731e-20)
(3.22506 -6.99489 7.6381e-20)
(3.19872 -6.85365 -1.32592e-19)
(3.1687 -6.71117 1.52025e-19)
(3.13565 -6.56847 -2.91558e-19)
(3.10025 -6.42652 -6.67829e-20)
(3.06314 -6.28621 1.77442e-19)
(3.02491 -6.14829 -6.06309e-22)
(2.98609 -6.01341 -1.1422e-19)
(2.94711 -5.88206 3.10381e-19)
(2.90836 -5.75464 -1.66562e-19)
(2.87015 -5.63142 -2.24969e-19)
(2.83272 -5.51258 7.5322e-20)
(2.79629 -5.39822 -2.20226e-19)
(2.76099 -5.28832 -5.34746e-20)
(2.7269 -5.18274 -7.01018e-21)
(2.69402 -5.08121 -1.45235e-19)
(2.66254 -4.98316 1.73873e-19)
(2.63288 -4.88764 -6.22626e-20)
(2.60205 -4.79476 1.0574e-19)
(3.95628 -8.8557 -1.62998e-19)
(3.67908 -8.53846 -4.55221e-19)
(3.59434 -8.26855 2.23963e-19)
(3.55694 -8.0601 -2.15026e-19)
(3.53234 -7.89537 -1.61289e-19)
(3.51846 -7.75258 -9.44925e-20)
(3.50915 -7.61964 -3.47079e-19)
(3.49935 -7.4897 2.37028e-19)
(3.48639 -7.35886 -5.88916e-19)
(3.46898 -7.22523 -2.15829e-19)
(3.44667 -7.08834 7.74616e-20)
(3.41955 -6.94851 1.3028e-19)
(3.3881 -6.80654 -1.78971e-21)
(3.35295 -6.66344 -2.51597e-19)
(3.31482 -6.52024 5.88784e-20)
(3.27444 -6.37796 -2.30634e-19)
(3.23249 -6.23748 -1.6688e-19)
(3.18959 -6.09957 -1.01004e-19)
(3.14627 -5.96483 -2.07708e-20)
(3.103 -5.83377 1.71903e-19)
(3.06016 -5.70675 2.47319e-19)
(3.01805 -5.58404 -7.44792e-20)
(2.97694 -5.46582 -7.19551e-20)
(2.93702 -5.35215 1.40069e-19)
(2.89843 -5.24304 7.82745e-20)
(2.86125 -5.13836 -6.20511e-20)
(2.82546 -5.03784 -6.94853e-20)
(2.79129 -4.94089 7.78515e-21)
(2.75916 -4.84653 6.26342e-20)
(2.7258 -4.75506 -9.40473e-20)
(4.18979 -8.75649 -3.258e-20)
(3.90976 -8.45812 5.75888e-19)
(3.82212 -8.19938 4.50067e-19)
(3.78218 -7.99845 3.53789e-19)
(3.75509 -7.83883 -2.30753e-19)
(3.73835 -7.69919 -4.65855e-20)
(3.72569 -7.56793 4.24941e-20)
(3.71204 -7.43869 3.00616e-19)
(3.69478 -7.30787 1.13921e-19)
(3.67269 -7.17388 2.77262e-19)
(3.64543 -7.03643 -3.87125e-19)
(3.6132 -6.89598 3.94463e-20)
(3.57655 -6.75343 1.58555e-19)
(3.5362 -6.60986 9.74198e-20)
(3.49294 -6.46635 2.0454e-19)
(3.44753 -6.32391 -1.39179e-19)
(3.40071 -6.18345 -1.30297e-19)
(3.35311 -6.0457 2.47688e-20)
(3.3053 -5.91129 2.79688e-19)
(3.25773 -5.78067 -4.52719e-19)
(3.21079 -5.65421 1.57974e-19)
(3.1648 -5.53216 -1.22055e-21)
(3.12001 -5.41468 3.00738e-19)
(3.07661 -5.30184 -1.3028e-19)
(3.03475 -5.19364 -6.80298e-21)
(2.99449 -5.08997 -8.32487e-20)
(2.95583 -4.99057 7.91325e-20)
(2.91901 -4.89483 1.94805e-20)
(2.88447 -4.80176 -8.79924e-20)
(2.84865 -4.71184 3.90178e-19)
(4.42083 -8.65116 -6.049e-19)
(4.13876 -8.37159 -3.50439e-19)
(4.04869 -8.12392 -9.05573e-19)
(4.00651 -7.9304 -4.15404e-19)
(3.97709 -7.77581 3.8873e-19)
(3.95757 -7.63924 -2.31435e-19)
(3.94156 -7.50965 -5.61793e-20)
(3.92401 -7.38111 -1.54771e-19)
(3.90236 -7.25038 2.61774e-19)
(3.87552 -7.11612 -5.97912e-20)
(3.84323 -6.97822 -9.4453e-20)
(3.8058 -6.83729 -1.20887e-20)
(3.76388 -6.69433 -3.89861e-19)
(3.71827 -6.55046 -1.68926e-20)
(3.66982 -6.40681 1.03656e-19)
(3.61936 -6.2644 -1.16357e-20)
(3.56764 -6.12412 -4.05427e-19)
(3.51533 -5.98673 3.95495e-19)
(3.463 -5.8528 -3.89443e-19)
(3.41113 -5.7228 1.52237e-19)
(3.36011 -5.59705 2.14856e-20)
(3.31024 -5.4758 8.76679e-21)
(3.26178 -5.35919 -1.61721e-19)
(3.21492 -5.24731 5.44927e-20)
(3.1698 -5.14014 1.7041e-22)
(3.1265 -5.03758 1.79234e-20)
(3.08499 -4.93941 -4.08092e-19)
(3.04555 -4.845 1.10307e-19)
(3.00865 -4.75333 1.1924e-19)
(2.97044 -4.66511 1.24738e-19)
(4.64923 -8.53976 1.17846e-18)
(4.36589 -8.27888 4.05125e-19)
(4.27387 -8.04218 2.37508e-19)
(4.22975 -7.85595 3.78146e-19)
(4.19816 -7.70627 -4.83052e-20)
(4.17591 -7.57271 2.8751e-19)
(4.15654 -7.44476 6.42866e-19)
(4.13503 -7.31695 -8.21598e-20)
(4.10894 -7.18637 3.64983e-20)
(4.07726 -7.05193 7.64061e-19)
(4.03985 -6.91372 -1.00587e-19)
(3.99715 -6.77246 1.05911e-19)
(3.94989 -6.62925 -3.94197e-20)
(3.89897 -6.48526 -4.61353e-21)
(3.84529 -6.34164 5.55613e-19)
(3.78973 -6.19944 2.14906e-20)
(3.73309 -6.05954 5.93753e-19)
(3.67606 -5.92266 -7.52461e-20)
(3.61922 -5.78939 -1.28971e-19)
(3.56306 -5.66016 3.01246e-19)
(3.50796 -5.53528 -2.768e-19)
(3.45423 -5.41497 3.0384e-19)
(3.40211 -5.29938 1.64092e-19)
(3.3518 -5.18857 -1.33596e-19)
(3.30345 -5.08254 2.02407e-19)
(3.25711 -4.98121 2.37429e-20)
(3.21278 -4.88437 -8.49303e-20)
(3.17077 -4.79141 4.52052e-20)
(3.13155 -4.70126 3.04337e-19)
(3.09103 -4.61488 4.42108e-20)
(4.87484 -8.42235 -2.0268e-19)
(4.591 -8.18002 -4.05008e-19)
(4.4975 -7.95416 1.67413e-19)
(4.45171 -7.77509 -6.75104e-19)
(4.41809 -7.63021 3.22419e-19)
(4.39316 -7.49959 -5.92874e-19)
(4.37041 -7.37327 -3.91522e-19)
(4.34491 -7.24621 1.0868e-19)
(4.31429 -7.11585 1.08089e-19)
(4.27768 -6.98134 -5.26254e-19)
(4.23509 -6.84294 -2.28042e-19)
(4.18704 -6.70151 1.04079e-19)
(4.13439 -6.55822 -2.8964e-19)
(4.0781 -6.41428 -1.15466e-19)
(4.01915 -6.27088 -7.78716e-20)
(3.95848 -6.12907 -7.83487e-20)
(3.89691 -5.98972 -3.27011e-19)
(3.83515 -5.85354 -2.0562e-19)
(3.77381 -5.7211 3.63465e-20)
(3.71336 -5.5928 6.69101e-20)
(3.65419 -5.46894 7.12388e-20)
(3.59661 -5.34972 -2.48096e-19)
(3.54086 -5.23527 9.29645e-20)
(3.48712 -5.12565 -1.93002e-19)
(3.43553 -5.02087 1.81437e-19)
(3.38618 -4.92087 -2.39144e-19)
(3.33906 -4.82547 7.4896e-20)
(3.2945 -4.73407 -1.17742e-19)
(3.25303 -4.64556 -1.66944e-19)
(3.21028 -4.56117 -1.63321e-20)
(5.09748 -8.299 -4.24183e-19)
(4.81392 -8.07506 -3.62127e-19)
(4.7194 -7.85988 -3.59206e-19)
(4.6722 -7.68782 -2.66736e-19)
(4.63669 -7.54762 8.20583e-19)
(4.60912 -7.41988 1.1532e-19)
(4.58297 -7.29516 3.52545e-19)
(4.55341 -7.16889 5.40303e-19)
(4.51819 -7.03882 2.60946e-19)
(4.47659 -6.90435 -3.46294e-19)
(4.42873 -6.7659 5.57191e-19)
(4.37527 -6.62446 -5.42642e-19)
(4.31716 -6.48125 5.11762e-19)
(4.25547 -6.33756 5.93359e-20)
(4.19123 -6.19457 1.30207e-19)
(4.12543 -6.05332 4.20366e-20)
(4.05892 -5.9147 5.28843e-19)
(3.99244 -5.7794 -7.88993e-20)
(3.9266 -5.64795 7.0255e-20)
(3.86188 -5.52075 2.38609e-19)
(3.79866 -5.39806 -2.6596e-19)
(3.73725 -5.28006 2.11734e-19)
(3.67787 -5.16688 7.53641e-21)
(3.62071 -5.05857 9.57958e-20)
(3.56592 -4.95515 1.75188e-19)
(3.51356 -4.85658 -3.03564e-20)
(3.46366 -4.76272 1.74016e-19)
(3.41658 -4.67297 2.51453e-19)
(3.37291 -4.58622 -2.72859e-19)
(3.32801 -4.50398 -1.5627e-19)
(5.31701 -8.16976 1.24088e-18)
(5.03449 -7.96404 -1.32095e-19)
(4.93941 -7.75936 2.76027e-19)
(4.89106 -7.59414 5.1195e-19)
(4.85376 -7.4585 -1.47003e-18)
(4.82358 -7.33356 1.57768e-19)
(4.794 -7.21043 -5.62382e-19)
(4.76032 -7.08499 5.58484e-19)
(4.72044 -6.9553 -4.44989e-19)
(4.67376 -6.82099 2.407e-19)
(4.62057 -6.68264 -8.75627e-19)
(4.56164 -6.54134 2.58763e-20)
(4.49803 -6.3984 -2.8911e-19)
(4.4309 -6.25513 4.35432e-19)
(4.36135 -6.11273 -4.64041e-19)
(4.29041 -5.97224 -2.59223e-20)
(4.21896 -5.83453 -3.76528e-19)
(4.14777 -5.70028 -3.02537e-20)
(4.07745 -5.56999 3.00956e-20)
(4.00847 -5.44403 8.36846e-20)
(3.94122 -5.32266 -4.69255e-19)
(3.876 -5.20603 -1.42835e-20)
(3.81302 -5.09424 -2.62564e-19)
(3.75246 -4.98736 -6.19604e-20)
(3.69446 -4.8854 -1.6143e-19)
(3.63911 -4.78835 -1.76241e-19)
(3.58643 -4.69611 -1.83345e-19)
(3.53685 -4.60812 3.02538e-19)
(3.49101 -4.52324 8.10163e-20)
(3.44406 -4.44331 -1.49683e-19)
(5.53328 -8.03472 -8.26162e-19)
(5.25256 -7.84701 2.95538e-19)
(5.15737 -7.65263 -5.08641e-19)
(5.10808 -7.49406 7.71907e-20)
(5.0691 -7.36284 8.34495e-19)
(5.03631 -7.24063 -4.23681e-19)
(5.00329 -7.1191 -4.43629e-19)
(4.96543 -6.99453 -3.8008e-19)
(4.92081 -6.86532 1.86847e-20)
(4.86899 -6.73128 2.44335e-19)
(4.81039 -6.59318 -1.78378e-19)
(4.74594 -6.4522 8.14483e-21)
(4.6768 -6.30971 5.45617e-19)
(4.6042 -6.16704 -2.76028e-19)
(4.52933 -6.02542 7.21192e-20)
(4.45325 -5.88587 -2.24302e-19)
(4.37688 -5.74925 8.49877e-20)
(4.30099 -5.61622 1.86601e-19)
(4.2262 -5.48725 2.08809e-19)
(4.153 -5.3627 -2.29465e-19)
(4.08174 -5.24278 3.49535e-20)
(4.01273 -5.12764 1.96753e-19)
(3.94616 -5.01738 3.42009e-19)
(3.88221 -4.91203 8.95079e-20)
(3.82102 -4.81162 -3.51786e-19)
(3.76267 -4.71618 4.09726e-19)
(3.70721 -4.62565 -2.05127e-19)
(3.65514 -4.5395 -2.44784e-19)
(3.60716 -4.45661 -1.50587e-19)
(3.55824 -4.37914 -1.91845e-19)
(5.74615 -7.89396 4.36223e-19)
(5.46802 -7.72403 -3.39871e-19)
(5.37313 -7.53971 1.30239e-19)
(5.32309 -7.38758 6.90681e-19)
(5.2825 -7.26065 1.87586e-19)
(5.24712 -7.14112 -1.62473e-19)
(5.2106 -7.02118 3.92129e-19)
(5.16852 -6.89755 9.13085e-20)
(5.11909 -6.76889 3.68713e-19)
(5.06206 -6.63527 2.03683e-19)
(4.99801 -6.49758 7.75283e-21)
(4.92799 -6.35709 1.28171e-19)
(4.85328 -6.21523 -4.08972e-20)
(4.77521 -6.07336 7.09493e-20)
(4.69501 -5.93269 1.94781e-19)
(4.61379 -5.79427 -1.0804e-19)
(4.53252 -5.65892 2.65614e-19)
(4.45195 -5.52727 2.7057e-19)
(4.37273 -5.39978 -3.093e-19)
(4.29532 -5.27677 3.16487e-19)
(4.22009 -5.15845 6.73926e-19)
(4.14731 -5.04494 -4.35616e-19)
(4.07717 -4.9363 4.37541e-19)
(4.00984 -4.83259 -3.07551e-19)
(3.94546 -4.73383 -4.33239e-20)
(3.8841 -4.64008 3.2941e-19)
(3.82585 -4.55133 -6.68013e-20)
(3.77126 -4.46709 2.47792e-19)
(3.72115 -4.38628 2.46088e-19)
(3.67035 -4.31145 -4.59706e-19)
(5.95551 -7.74754 -4.21735e-19)
(5.68073 -7.59515 1.90284e-19)
(5.58652 -7.42061 8.07081e-20)
(5.53591 -7.27472 -8.04689e-19)
(5.49376 -7.15194 -4.18836e-19)
(5.45578 -7.03504 3.13977e-19)
(5.41573 -6.9167 -8.75081e-19)
(5.36936 -6.79406 1.05599e-18)
(5.31506 -6.66608 -5.94924e-19)
(5.25276 -6.53301 7.12995e-20)
(5.1832 -6.39588 -1.12991e-19)
(5.10758 -6.25606 -3.39782e-19)
(5.02729 -6.11502 6.9962e-19)
(4.94373 -5.97413 2.64368e-19)
(4.85821 -5.83462 -2.75149e-19)
(4.77188 -5.6975 6.73688e-21)
(4.68572 -5.56358 1.51654e-19)
(4.60051 -5.43348 -3.3177e-19)
(4.51689 -5.30762 6.93225e-20)
(4.43531 -5.1863 2.28069e-19)
(4.35613 -5.06971 -9.65282e-20)
(4.27961 -4.95794 1.58162e-19)
(4.20593 -4.85104 -3.12325e-19)
(4.13523 -4.74906 4.4988e-19)
(4.06764 -4.65203 1.04835e-19)
(4.00326 -4.56003 -2.85587e-19)
(3.94218 -4.4731 -2.47335e-19)
(3.88502 -4.39084 -3.82521e-23)
(3.83275 -4.31221 3.3989e-19)
(3.7801 -4.24022 -7.7209e-20)
(6.16128 -7.59553 -1.17225e-19)
(5.89059 -7.46042 -8.00844e-19)
(5.79741 -7.29536 9.57151e-19)
(5.74634 -7.15547 6.49367e-19)
(5.70266 -7.03673 6.50222e-19)
(5.66207 -6.9224 1.80889e-19)
(5.61845 -6.80569 2.72424e-19)
(5.56773 -6.68412 1.37523e-19)
(5.50851 -6.55693 -5.5317e-19)
(5.44088 -6.42456 1.00899e-18)
(5.36578 -6.28816 -8.12044e-19)
(5.28452 -6.1492 -5.50663e-20)
(5.19863 -6.00916 1.17177e-19)
(5.10959 -5.86944 -5.23627e-19)
(5.01877 -5.73126 4.57691e-19)
(4.92736 -5.59562 -1.38993e-19)
(4.83635 -5.46331 -3.5147e-19)
(4.74654 -5.33491 1.35248e-19)
(4.65855 -5.21083 -2.61627e-19)
(4.57285 -5.09133 -2.31592e-19)
(4.48977 -4.97658 -2.47156e-19)
(4.40954 -4.86667 5.6353e-20)
(4.33232 -4.76161 3.15953e-20)
(4.25826 -4.66145 -6.0566e-19)
(4.18747 -4.56621 -2.30493e-19)
(4.12002 -4.476 1.48223e-19)
(4.05605 -4.39093 1.84158e-19)
(3.99623 -4.31067 -2.54664e-19)
(3.94168 -4.23428 -9.73507e-20)
(3.88713 -4.16523 7.9923e-21)
(6.36347 -7.43802 -9.97199e-20)
(6.09755 -7.31988 5.18607e-19)
(6.00562 -7.16396 -1.48274e-19)
(5.95417 -7.02984 -1.8181e-19)
(5.90899 -6.91502 -1.00493e-18)
(5.86577 -6.80324 -2.22597e-19)
(5.81854 -6.6882 4.17646e-19)
(5.76341 -6.56778 -2.78622e-19)
(5.69921 -6.4415 -3.06062e-20)
(5.62622 -6.30998 -5.61672e-20)
(5.54553 -6.17449 3.07785e-19)
(5.45863 -6.03656 -4.82768e-19)
(5.36714 -5.89772 -3.2252e-19)
(5.27263 -5.75936 3.785e-19)
(5.17654 -5.6227 -2.15555e-19)
(5.08008 -5.48873 -2.60449e-19)
(4.98427 -5.35818 5.54768e-19)
(4.88991 -5.23164 -8.84848e-20)
(4.79762 -5.10947 3.26432e-19)
(4.70784 -4.99192 -2.98007e-19)
(4.62089 -4.87913 -2.40482e-19)
(4.53699 -4.77116 2.10614e-19)
(4.45628 -4.66803 -2.3697e-20)
(4.37887 -4.56976 -1.56364e-19)
(4.30486 -4.47637 1.3845e-19)
(4.23433 -4.38799 -4.29964e-19)
(4.16739 -4.30478 2.62537e-19)
(4.10479 -4.2265 -4.29073e-21)
(4.04781 -4.1523 -2.73846e-19)
(3.99136 -4.08606 3.87656e-19)
(6.56237 -7.27522 4.05146e-19)
(6.30164 -7.17361 -1.00837e-18)
(6.21099 -7.02639 -8.58455e-20)
(6.15919 -6.89781 4.71826e-19)
(6.11251 -6.78682 -1.20326e-19)
(6.06664 -6.67758 -3.45678e-19)
(6.01574 -6.56425 1.58127e-19)
(5.95617 -6.44508 1.84761e-19)
(5.88693 -6.31985 1.48092e-20)
(5.80854 -6.18934 2.26924e-19)
(5.72225 -6.05494 7.27465e-19)
(5.6297 -5.91824 -2.54806e-19)
(5.53262 -5.78079 6.49442e-20)
(5.43268 -5.64399 -1.72315e-19)
(5.33135 -5.50903 6.55079e-19)
(5.22989 -5.37689 -1.18779e-19)
(5.12934 -5.24827 3.87881e-19)
(5.0305 -5.12373 -1.51582e-19)
(4.93396 -5.0036 1.61864e-19)
(4.84017 -4.88811 2.45274e-19)
(4.74942 -4.77738 4.19525e-20)
(4.66189 -4.67144 1.64617e-19)
(4.57772 -4.57031 -1.3592e-19)
(4.49698 -4.47398 3.78321e-19)
(4.41975 -4.38249 -1.54526e-19)
(4.3461 -4.29597 5.65746e-19)
(4.27614 -4.21465 -1.63541e-19)
(4.21067 -4.13828 1.12749e-19)
(4.15118 -4.06609 -2.13272e-19)
(4.09298 -4.00277 3.74922e-19)
(6.75873 -7.10743 -8.87267e-19)
(6.50304 -7.02148 3.31925e-20)
(6.41335 -6.88249 -5.18589e-19)
(6.36114 -6.75932 9.31545e-20)
(6.31296 -6.65213 2.73709e-20)
(6.26442 -6.54547 -4.5486e-19)
(6.20984 -6.43392 -8.5851e-19)
(6.14577 -6.31612 4.2691e-19)
(6.07146 -6.19207 -6.05444e-19)
(5.98764 -6.06274 -3.18757e-19)
(5.89573 -5.92962 -1.81549e-19)
(5.79754 -5.79434 -1.42627e-19)
(5.6949 -5.65847 2.60869e-21)
(5.58956 -5.52342 -5.15463e-19)
(5.48306 -5.39035 3.35103e-19)
(5.37667 -5.2602 -5.53578e-19)
(5.27145 -5.13368 -1.41003e-19)
(5.16819 -5.01128 1.50696e-19)
(5.06749 -4.89332 1.89909e-19)
(4.96976 -4.78 1.89167e-19)
(4.87527 -4.6714 1.45588e-19)
(4.78419 -4.56756 -3.65103e-19)
(4.69659 -4.46846 3.66618e-19)
(4.61253 -4.3741 -3.94906e-20)
(4.53204 -4.28451 -9.82288e-20)
(4.45516 -4.19985 -3.90121e-19)
(4.38203 -4.12033 -2.07122e-19)
(4.31344 -4.04563 3.83083e-19)
(4.25088 -3.97541 -1.26518e-19)
(4.19031 -3.91663 -1.21894e-19)
(6.95291 -6.93382 3.855e-19)
(6.70155 -6.86263 3.5403e-20)
(6.61235 -6.73197 -9.96002e-20)
(6.55968 -6.61439 -2.26821e-20)
(6.51008 -6.51108 -1.80919e-19)
(6.45891 -6.40705 6.15613e-19)
(6.40062 -6.29737 -2.88745e-19)
(6.33204 -6.18104 1.89501e-19)
(6.25264 -6.05832 7.78284e-20)
(6.16336 -5.93035 2.79954e-19)
(6.06584 -5.79868 -1.07701e-19)
(5.96202 -5.66501 6.09862e-19)
(5.85386 -5.53092 -5.21125e-20)
(5.74317 -5.3978 3.93127e-19)
(5.63154 -5.2668 -6.60993e-19)
(5.5203 -5.13883 -4.96239e-20)
(5.41049 -5.01454 4.25066e-19)
(5.30291 -4.89442 -2.64938e-19)
(5.19814 -4.77875 -1.85852e-19)
(5.09658 -4.66768 -3.19704e-19)
(4.99845 -4.5613 -2.80082e-19)
(4.90389 -4.45959 3.0006e-19)
(4.81294 -4.36253 -2.82082e-19)
(4.72561 -4.27008 6.09876e-20)
(4.64185 -4.1823 2.276e-19)
(4.56162 -4.0993 1.57833e-19)
(4.48504 -4.02117 1.4813e-19)
(4.41261 -3.94758 1.09889e-19)
(4.34467 -3.87967 -2.96487e-19)
(4.27828 -3.82667 -1.19125e-19)
(10.0355 0.0122501 5.05364e-21)
(10.0242 -0.252052 4.99313e-20)
(10.0066 -0.514677 1.73529e-19)
(9.98282 -0.776034 9.49967e-20)
(9.95254 -1.03624 -2.01219e-19)
(9.9155 -1.29524 6.09159e-20)
(9.87169 -1.55292 -6.39464e-20)
(9.82113 -1.80914 -1.61687e-19)
(9.76385 -2.06375 4.13926e-19)
(9.6999 -2.31658 -9.86432e-20)
(9.62933 -2.56746 -9.94173e-20)
(9.5522 -2.81621 -2.11442e-19)
(9.46859 -3.06266 -6.09272e-19)
(9.37856 -3.30665 5.57208e-20)
(9.2822 -3.54801 -2.74172e-20)
(9.17958 -3.78657 -1.92491e-19)
(9.07079 -4.02218 4.11994e-19)
(8.95592 -4.25467 2.24562e-19)
(8.83507 -4.48389 4.32182e-19)
(8.70833 -4.70969 2.12474e-19)
(8.57581 -4.93193 -4.75691e-19)
(8.43761 -5.15045 1.85182e-20)
(8.29383 -5.36511 -9.07815e-19)
(8.14461 -5.57579 1.37962e-18)
(7.99005 -5.78236 -4.54205e-19)
(7.83028 -5.9847 -5.90383e-19)
(7.66545 -6.18272 -8.71799e-20)
(7.49571 -6.3764 -9.40363e-21)
(7.32117 -6.56579 -4.55216e-19)
(7.14248 -6.75101 8.03502e-19)
(10.0955 -0.124411 1.98737e-20)
(10.0751 -0.3892 2.93094e-20)
(10.0472 -0.652204 7.27954e-21)
(10.0125 -0.913592 -2.56133e-19)
(9.97091 -1.17339 -2.30194e-19)
(9.92239 -1.43149 2.0371e-19)
(9.86698 -1.68774 2.52012e-19)