/*--------------------------------*- C++ -*----------------------------------*\
  =========                 |
  \\      /  F ield         | OpenFOAM: The Open Source CFD Toolbox
   \\    /   O peration     | Website:  https://openfoam.org
    \\  /    A nd           | Version:  6.0
     \\/     M anipulation  |
\*---------------------------------------------------------------------------*/
FoamFile
{
    version     2.0;
    format      ascii;
    class       volScalarField;
    location    "17.00325";
    object      p;
}
// * * * * * * * * * * * * * * * * * * * * * * * * * * * * * * * * * * * * * //

dimensions      [0 2 -2 0 0 0 0];

internalField   nonuniform List<scalar> 
2400
(
-40.027
-32.2141
-27.238
-23.4518
-20.174
-17.3914
-15.0674
-13.1208
-11.4739
-10.082
-41.7
-33.707
-28.5291
-24.5639
-21.1423
-18.249
-15.8405
-13.8278
-12.1269
-10.6936
-43.3366
-35.158
-29.777
-25.6344
-22.0725
-19.0729
-16.5843
-14.5093
-12.7576
-11.2869
-44.9205
-36.5548
-30.9705
-26.6529
-22.9545
-19.853
-17.2884
-15.155
-13.3575
-11.8565
-46.4363
-37.8839
-32.0986
-27.61
-23.7802
-20.5811
-17.9437
-15.7544
-13.9148
-12.3902
-47.8705
-39.1328
-33.15
-28.4963
-24.5423
-21.2529
-18.5482
-16.3056
-14.4243
-12.8742
-49.2141
-40.2904
-34.1119
-29.2979
-25.2277
-21.8588
-19.0992
-16.8136
-14.8954
-13.3182
-50.4649
-41.3507
-34.974
-29.9991
-25.8137
-22.3691
-19.5637
-17.2522
-15.3252
-13.7685
-51.6229
-42.3133
-35.7348
-30.5948
-26.2847
-22.7472
-19.8737
-17.524
-15.6217
-14.1964
-52.677
-43.1795
-36.4042
-31.1001
-26.6579
-23.0039
-20.015
-17.5593
-15.6102
-14.2305
-58.3103
-58.1737
-57.914
-57.5508
-57.0941
-56.55
-55.9247
-55.2239
-54.451
-53.6057
-47.3431
-47.3148
-47.1821
-46.9555
-46.6422
-46.2482
-45.7794
-45.2401
-44.6317
-43.9485
-39.3719
-39.3997
-39.3411
-39.2019
-38.9886
-38.7074
-38.3652
-37.9658
-37.5103
-36.9933
-33.3417
-33.3746
-33.3351
-33.228
-33.0599
-32.8382
-32.5712
-32.2642
-31.9211
-31.5373
-28.4976
-28.5119
-28.4639
-28.3583
-28.2028
-28.0047
-27.776
-27.5234
-27.2573
-26.9732
-24.6088
-24.5992
-24.5343
-24.4185
-24.2604
-24.067
-23.8548
-23.6314
-23.419
-23.2109
-21.4582
-21.427
-21.3454
-21.217
-21.0508
-20.8516
-20.6427
-20.4313
-20.2602
-20.1103
-18.8543
-18.8071
-18.7128
-18.5745
-18.3996
-18.1891
-17.9725
-17.7562
-17.6228
-17.5236
-16.6591
-16.6024
-16.5023
-16.3614
-16.1837
-15.9644
-15.7331
-15.4912
-15.383
-15.3627
-14.8041
-14.7332
-14.6251
-14.483
-14.3053
-14.083
-13.8322
-13.5448
-13.3827
-13.4487
-51.9427
-53.1901
-54.3073
-55.2992
-56.1574
-56.8729
-57.4423
-57.8667
-58.15
-58.2971
-40.9496
-42.1172
-43.1808
-44.1328
-44.9653
-45.673
-46.2546
-46.7105
-47.0432
-47.2538
-33.4539
-34.5038
-35.4659
-36.3273
-37.0814
-37.7274
-38.2662
-38.6987
-39.026
-39.2499
-28.1608
-29.0907
-29.9387
-30.6914
-31.3461
-31.9058
-32.3726
-32.7477
-33.0326
-33.2298
-24.0717
-24.8996
-25.6427
-26.2909
-26.8491
-27.3233
-27.7152
-28.0261
-28.2583
-28.4147
-20.8434
-21.5974
-22.2522
-22.807
-23.2802
-23.6797
-24.0051
-24.2577
-24.4408
-24.5574
-18.2245
-18.9332
-19.5191
-19.9945
-20.3964
-20.7338
-21.0033
-21.2074
-21.35
-21.4336
-16.0515
-16.7112
-17.2387
-17.6541
-18.0012
-18.2873
-18.5112
-18.6777
-18.7903
-18.8496
-14.342
-14.8652
-15.2951
-15.6693
-15.9769
-16.2147
-16.3966
-16.5333
-16.6247
-16.6676
-13.2862
-13.5754
-13.7572
-14.0786
-14.3526
-14.5272
-14.6502
-14.7466
-14.8101
-14.8314
-6.87161
-7.91103
-9.16311
-10.6292
-12.3803
-14.5446
-17.3087
-20.9807
-26.6565
-36.0685
-7.39924
-8.50224
-9.81662
-11.3576
-13.2009
-15.4787
-18.3832
-22.2288
-28.1071
-37.7072
-7.93491
-9.1022
-10.4798
-12.0978
-14.0357
-16.4291
-19.4763
-23.4971
-29.5757
-39.355
-8.48063
-9.71149
-11.1517
-12.8475
-14.8812
-17.3914
-20.5823
-24.7789
-31.0571
-41.0125
-9.03276
-10.3279
-11.8313
-13.606
-15.7359
-18.3626
-21.6967
-26.0679
-32.5434
-42.6709
-9.59497
-10.9524
-12.5173
-14.3703
-16.5957
-19.338
-22.8138
-27.3572
-34.0251
-44.3181
-10.1726
-11.5954
-13.2189
-15.1455
-17.4616
-20.3153
-23.9287
-28.639
-35.4924
-45.9424
-10.7763
-12.2547
-13.9258
-15.9201
-18.3244
-21.2864
-25.0326
-29.9034
-36.9339
-47.5316
-11.4656
-12.979
-14.6614
-16.7042
-19.186
-22.2467
-26.1161
-31.1384
-38.3367
-49.0729
-12.2553
-13.6841
-15.357
-17.4658
-20.0289
-23.1812
-27.1649
-32.3283
-39.6829
-50.5513
-2.59684
-3.02365
-3.6769
-4.51599
-5.53065
-6.78837
-8.40931
-10.61
-14.4327
-21.9393
-2.96879
-3.45562
-4.17147
-5.04884
-6.0994
-7.40789
-9.10253
-11.4081
-15.3756
-23.046
-3.2459
-3.83607
-4.63059
-5.5693
-6.68145
-8.06232
-9.84781
-12.2729
-16.3966
-24.2343
-3.59404
-4.24898
-5.10208
-6.10206
-7.28463
-8.74918
-10.6376
-13.1952
-17.4891
-25.5061
-4.00185
-4.70311
-5.60751
-6.66725
-7.92178
-9.47411
-11.4723
-14.1717
-18.6466
-26.8526
-4.43442
-5.18476
-6.1433
-7.26521
-8.59448
-10.2385
-12.3521
-15.2002
-19.8637
-28.2641
-4.88382
-5.68865
-6.70416
-7.89116
-9.29899
-11.0396
-13.2743
-16.2775
-21.1354
-29.7334
-5.35414
-6.21561
-7.28887
-8.54287
-10.0325
-11.874
-14.2351
-17.3995
-22.4568
-31.2546
-5.84543
-6.7643
-7.89581
-9.21846
-10.7926
-12.7387
-15.2307
-18.5612
-23.8226
-32.8223
-6.35333
-7.33123
-8.52215
-9.91534
-11.5766
-13.6304
-16.2569
-19.7572
-25.2258
-34.4305
-1.84095
-1.37773
-1.10125
-0.896334
-0.759295
-0.672671
-0.636719
-0.648447
-0.707809
-0.813975
-2.48996
-2.06727
-1.75184
-1.5205
-1.36444
-1.26676
-1.22585
-1.23769
-1.30147
-1.41574
-3.17085
-2.77234
-2.44662
-2.20175
-2.03215
-1.92716
-1.88406
-1.89878
-1.9698
-2.09528
-4.00514
-3.58979
-3.24709
-2.98504
-2.79906
-2.68339
-2.63511
-2.65048
-2.72748
-2.86397
-5.00329
-4.55711
-4.18756
-3.90123
-3.69459
-3.56433
-3.50764
-3.52123
-3.60276
-3.74994
-6.22477
-5.73794
-5.33187
-5.01258
-4.7785
-4.62769
-4.55764
-4.56542
-4.64852
-4.80462
-7.78404
-7.23854
-6.77978
-6.41307
-6.13868
-5.95564
-5.86188
-5.85476
-5.93169
-6.09045
-9.89035
-9.2564
-8.7171
-8.27779
-7.93995
-7.70331
-7.56619
-7.52633
-7.58131
-7.72887
-13.5725
-12.8061
-12.1452
-11.5959
-11.1597
-10.8366
-10.6253
-10.5244
-10.5318
-10.6435
-20.9012
-19.972
-19.1645
-18.4812
-17.9231
-17.4899
-17.1807
-16.9953
-16.9318
-16.9811
-0.965651
-1.16079
-1.39722
-1.67164
-1.97911
-2.31058
-2.64927
-2.97598
-3.28564
-3.60332
-1.57899
-1.78884
-2.04269
-2.33669
-2.66551
-3.02232
-3.39696
-3.76954
-4.12033
-4.50968
-2.27343
-2.50163
-2.77706
-3.09585
-3.45291
-3.84239
-4.25659
-4.68194
-5.11026
-5.58337
-3.05788
-3.30629
-3.60633
-3.95421
-4.34536
-4.77451
-5.23485
-5.71807
-6.22558
-6.783
-3.96046
-4.23115
-4.55916
-4.94096
-5.37251
-5.8491
-6.36494
-6.91517
-7.50387
-8.14578
-5.03126
-5.32504
-5.6833
-6.10275
-6.57984
-7.11047
-7.69019
-8.31623
-8.99188
-9.72481
-6.32853
-6.64211
-7.02882
-7.48564
-8.00947
-8.5969
-9.24463
-9.95108
-10.7181
-11.5494
-7.96607
-8.28831
-8.69392
-9.18032
-9.7448
-10.3845
-11.097
-11.8816
-12.7395
-13.6719
-10.8536
-11.1597
-11.5616
-12.0572
-12.6438
-13.319
-14.0815
-14.9319
-15.8718
-16.8987
-17.1274
-17.3839
-17.7509
-18.2248
-18.8027
-19.4829
-20.2656
-21.154
-22.1498
-23.2424
-24.4071
-18.0048
-14.6768
-12.4443
-10.5158
-8.8455
-7.40771
-6.15713
-5.0794
-4.19355
-25.6674
-19.1879
-15.748
-13.3971
-11.3578
-9.59098
-8.07468
-6.76778
-5.65541
-4.72426
-27.0229
-20.4468
-16.8818
-14.4032
-12.2463
-10.3785
-8.78069
-7.40999
-6.23979
-5.24063
-28.465
-21.7762
-18.0723
-15.4563
-13.1745
-11.2006
-9.51632
-8.07598
-6.84573
-5.79337
-29.9841
-23.1678
-19.3122
-16.5492
-14.1361
-12.0514
-10.2771
-8.76404
-7.47222
-6.36709
-31.5695
-24.6121
-20.5928
-17.6742
-15.1239
-12.9246
-11.058
-9.47117
-8.11829
-6.96218
-33.2101
-26.0985
-21.9043
-18.8223
-16.1303
-13.8142
-11.8541
-10.1929
-8.77851
-7.57108
-34.8947
-27.616
-23.2361
-19.9841
-17.1471
-14.7131
-12.6597
-10.9248
-9.44988
-8.19264
-36.6092
-29.1521
-24.5771
-21.1497
-18.1658
-15.6141
-13.4686
-11.6613
-10.1274
-8.82293
-38.3306
-30.6913
-25.9156
-22.3094
-19.1781
-16.5098
-14.2738
-12.3959
-10.8049
-9.45589
-6.48673
-3.06529
-1.55539
-0.767174
-0.330048
-0.141375
-0.0759519
-0.0734796
-0.096434
-0.127056
-0.155949
-0.178787
-0.196522
-0.2023
-0.203809
-0.183695
-0.150262
-0.107133
-0.0408633
-0.00603981
-7.03264
-3.42533
-1.74115
-0.891434
-0.416981
-0.199567
-0.116674
-0.102295
-0.116781
-0.141231
-0.165644
-0.185266
-0.20068
-0.204907
-0.205182
-0.18428
-0.150328
-0.106737
-0.0411952
-0.00654239
-7.57647
-3.80749
-1.94531
-1.02044
-0.505463
-0.25759
-0.156194
-0.129793
-0.135991
-0.154525
-0.174705
-0.191307
-0.204553
-0.207338
-0.206453
-0.184834
-0.150407
-0.106394
-0.0416122
-0.00705693
-8.12308
-4.20076
-2.15513
-1.14733
-0.592691
-0.314931
-0.194607
-0.156126
-0.154191
-0.167029
-0.183189
-0.19695
-0.208166
-0.209609
-0.207636
-0.185365
-0.150505
-0.106108
-0.0421083
-0.00758141
-8.65056
-4.56829
-2.34521
-1.26082
-0.674409
-0.370405
-0.231701
-0.181313
-0.171451
-0.178806
-0.191145
-0.202227
-0.21154
-0.211733
-0.208741
-0.18588
-0.15063
-0.105882
-0.0426771
-0.00811363
-9.10978
-4.88916
-2.51913
-1.36881
-0.754667
-0.425353
-0.267862
-0.205486
-0.187849
-0.189915
-0.198613
-0.207165
-0.214692
-0.213722
-0.209774
-0.186383
-0.150784
-0.105719
-0.0433111
-0.00865109
-9.54003
-5.27979
-2.77202
-1.52471
-0.85645
-0.488133
-0.306025
-0.229717
-0.203817
-0.200558
-0.205701
-0.211826
-0.217661
-0.215602
-0.21076
-0.186889
-0.150977
-0.105622
-0.0440035
-0.00919171
-10.2187
-5.97972
-3.23366
-1.78754
-1.00431
-0.569375
-0.350968
-0.256127
-0.22033
-0.21122
-0.212668
-0.216357
-0.220544
-0.217444
-0.211764
-0.187452
-0.151248
-0.105612
-0.0447534
-0.00973532
-11.2203
-6.86716
-3.78495
-2.07911
-1.1618
-0.657024
-0.39933
-0.283759
-0.237136
-0.221855
-0.219522
-0.220776
-0.223355
-0.21926
-0.212796
-0.188086
-0.15161
-0.105699
-0.0455629
-0.0102815
-11.2391
-6.98787
-3.87771
-2.11862
-1.20101
-0.696281
-0.427393
-0.301861
-0.249119
-0.229844
-0.224815
-0.224238
-0.225493
-0.220568
-0.213349
-0.188348
-0.151744
-0.105691
-0.046377
-0.0108103
-9.59494
-6.29009
-3.50896
-1.91214
-1.12097
-0.682547
-0.43145
-0.307967
-0.254831
-0.234384
-0.228087
-0.226462
-0.226579
-0.220889
-0.212618
-0.187429
-0.151056
-0.105217
-0.0474499
-0.011496
-7.84298
-5.49128
-3.18939
-1.77055
-1.07485
-0.695534
-0.461778
-0.334929
-0.275631
-0.249526
-0.238452
-0.233222
-0.230451
-0.222899
-0.212771
-0.186738
-0.150211
-0.104396
-0.0485331
-0.0122864
-6.28086
-4.68195
-2.8835
-1.65277
-1.0256
-0.695651
-0.485942
-0.360406
-0.296295
-0.265197
-0.24953
-0.24055
-0.234639
-0.224999
-0.212789
-0.185743
-0.149054
-0.10336
-0.0495977
-0.0130906
-4.82367
-3.82878
-2.54218
-1.55037
-0.990148
-0.693193
-0.50573
-0.38432
-0.315945
-0.280015
-0.260057
-0.247483
-0.238449
-0.226692
-0.212311
-0.184312
-0.147618
-0.102272
-0.0507843
-0.0139093
-3.65683
-3.05776
-2.19012
-1.43107
-0.947746
-0.6816
-0.516872
-0.404177
-0.333881
-0.293722
-0.269849
-0.253896
-0.241809
-0.227927
-0.211345
-0.182502
-0.145958
-0.101192
-0.0520615
-0.0146961
-2.7704
-2.3946
-1.83357
-1.29792
-0.912849
-0.676252
-0.525322
-0.419915
-0.349393
-0.305879
-0.278554
-0.259541
-0.244592
-0.228634
-0.209913
-0.180371
-0.144109
-0.100138
-0.053345
-0.0153975
-2.14658
-1.90031
-1.54482
-1.17863
-0.877895
-0.667242
-0.526914
-0.429434
-0.361357
-0.316006
-0.285831
-0.264145
-0.246646
-0.228749
-0.208068
-0.178013
-0.142142
-0.0991337
-0.0545447
-0.0159718
-1.75197
-1.57141
-1.33088
-1.07271
-0.840018
-0.658682
-0.529042
-0.436934
-0.370681
-0.32402
-0.291472
-0.267533
-0.247905
-0.22832
-0.205985
-0.175617
-0.140196
-0.0982229
-0.0555654
-0.0164005
-1.52259
-1.37394
-1.19318
-0.99757
-0.810307
-0.651594
-0.529722
-0.440598
-0.375858
-0.328994
-0.295112
-0.269619
-0.248445
-0.227571
-0.204004
-0.173505
-0.138497
-0.0974892
-0.0563076
-0.0166944
-1.41304
-1.27847
-1.12428
-0.957491
-0.792743
-0.646746
-0.529887
-0.442529
-0.378614
-0.33172
-0.297092
-0.27066
-0.248566
-0.22693
-0.202652
-0.172161
-0.137381
-0.097076
-0.056688
-0.0168683
-12.2732
-12.1366
-11.9716
-11.7871
-11.5665
-11.3114
-10.9851
-10.6239
-10.2063
-10.1261
-9.35367
-9.17749
-8.98188
-8.77913
-8.55609
-8.32767
-8.07968
-7.89593
-7.77842
-7.96887
-6.99232
-6.85065
-6.70616
-6.57256
-6.45148
-6.35968
-6.29169
-6.26992
-6.25422
-6.33938
-5.23017
-5.14695
-5.06954
-5.00351
-4.94705
-4.89862
-4.84331
-4.78359
-4.72051
-4.74426
-3.9392
-3.88941
-3.83991
-3.78951
-3.73652
-3.68189
-3.6272
-3.58317
-3.5586
-3.58134
-3.01713
-2.98346
-2.94843
-2.91225
-2.8765
-2.84341
-2.81412
-2.78899
-2.76816
-2.75885
-2.40408
-2.38255
-2.35921
-2.33418
-2.30783
-2.28043
-2.25206
-2.223
-2.19511
-2.17152
-2.01492
-1.99907
-1.98058
-1.95963
-1.93653
-1.91164
-1.88538
-1.85813
-1.8306
-1.80332
-1.78422
-1.77132
-1.75568
-1.73749
-1.71697
-1.69436
-1.66991
-1.64386
-1.61653
-1.58824
-1.67273
-1.6612
-1.64696
-1.63014
-1.6109
-1.58941
-1.56586
-1.54043
-1.51333
-1.48476
-12.2888
-12.6158
-12.0925
-12.1891
-12.4055
-12.4622
-12.4489
-12.4372
-12.4185
-12.3694
-10.7053
-10.8531
-9.93027
-9.66338
-9.8112
-9.86743
-9.79033
-9.69132
-9.60138
-9.49683
-8.69581
-8.65718
-7.68469
-7.27435
-7.37379
-7.48975
-7.45351
-7.34421
-7.23165
-7.11981
-6.61465
-6.54934
-5.76643
-5.37926
-5.43288
-5.56588
-5.5817
-5.50454
-5.4063
-5.31579
-4.82413
-4.8106
-4.31557
-4.0301
-4.03655
-4.12987
-4.16126
-4.12078
-4.05459
-3.99273
-3.46747
-3.49546
-3.25633
-3.09521
-3.07925
-3.12128
-3.1418
-3.12462
-3.08877
-3.0515
-2.55573
-2.5946
-2.51387
-2.45128
-2.44114
-2.45576
-2.46482
-2.45904
-2.44341
-2.42429
-2.01769
-2.05455
-2.04436
-2.03314
-2.03448
-2.0418
-2.04641
-2.04502
-2.03839
-2.02808
-1.73895
-1.77127
-1.78281
-1.78869
-1.79515
-1.80131
-1.8049
-1.80486
-1.80119
-1.79423
-1.6181
-1.64766
-1.66352
-1.67291
-1.68038
-1.68627
-1.68968
-1.69003
-1.68725
-1.68145
0.156051
0.125756
0.0555183
-0.0775833
-0.301331
-0.686703
-1.32137
-2.43152
-4.26304
-8.22083
0.0382518
0.00534288
-0.0674816
-0.205145
-0.432735
-0.826289
-1.45304
-2.58383
-4.28573
-7.68186
-0.0882857
-0.12199
-0.193179
-0.328048
-0.541833
-0.917746
-1.46734
-2.49695
-3.86678
-6.38073
-0.221288
-0.255212
-0.322745
-0.451567
-0.641222
-0.982931
-1.42599
-2.25112
-3.29324
-4.99891
-0.357173
-0.390259
-0.452747
-0.571803
-0.736126
-1.02473
-1.38188
-1.96054
-2.73322
-3.80079
-0.491254
-0.52097
-0.578064
-0.680682
-0.825087
-1.04453
-1.33878
-1.70964
-2.24715
-2.88696
-0.616968
-0.640525
-0.691785
-0.773941
-0.898938
-1.05491
-1.28485
-1.52401
-1.87149
-2.25006
-0.725201
-0.742601
-0.7861
-0.850324
-0.951075
-1.0647
-1.23065
-1.39776
-1.61814
-1.84861
-0.806761
-0.820495
-0.855405
-0.907033
-0.984604
-1.07432
-1.19372
-1.32063
-1.47084
-1.62763
-0.853686
-0.865922
-0.894915
-0.93936
-1.00299
-1.08052
-1.17631
-1.28237
-1.40084
-1.5269
0.913733
0.899507
0.863977
0.789921
0.65146
0.398469
-0.0347783
-0.792816
-2.03955
-4.32164
0.831951
0.816018
0.776356
0.696022
0.549416
0.284525
-0.164956
-0.948322
-2.24725
-4.63616
0.75181
0.734243
0.690646
0.604223
0.449586
0.172967
-0.293199
-1.10191
-2.45235
-4.94741
0.67347
0.654361
0.60706
0.514756
0.352195
0.0639941
-0.419267
-1.25374
-2.65747
-5.25984
0.597062
0.576523
0.525774
0.42781
0.257415
-0.0423085
-0.543124
-1.40378
-2.86228
-5.56569
0.52269
0.500851
0.44693
0.343531
0.165376
-0.145926
-0.664878
-1.55238
-3.07051
-5.87267
0.450441
0.427456
0.370647
0.262029
0.0761706
-0.246897
-0.784578
-1.69915
-3.27684
-6.16402
0.380393
0.356484
0.297087
0.183425
-0.0101376
-0.345348
-0.902711
-1.84762
-3.49343
-6.49445
0.312554
0.287986
0.226381
0.107886
-0.0934561
-0.441456
-1.01888
-1.9973
-3.69499
-6.84524
0.246631
0.221126
0.157436
0.0344037
-0.174667
-0.537061
-1.13987
-2.17509
-3.9607
-7.48512
1.77348
1.77601
1.78428
1.77865
1.73034
1.59276
1.31058
0.830064
-0.0720882
-1.66876
1.68748
1.68736
1.68967
1.67311
1.60773
1.44385
1.11456
0.574064
-0.372017
-2.05711
1.60115
1.59984
1.59821
1.57488
1.50123
1.33122
0.998119
0.46267
-0.417144
-2.04901
1.51435
1.51195
1.50678
1.4781
1.3988
1.22707
0.898302
0.365268
-0.491648
-2.17194
1.42725
1.42345
1.41435
1.37984
1.29355
1.11519
0.778993
0.217535
-0.683852
-2.44637
1.34014
1.33472
1.32133
1.28037
1.18545
0.995514
0.642226
0.0368401
-0.928005
-2.75216
1.2533
1.24617
1.22832
1.18064
1.07655
0.873265
0.501496
-0.144159
-1.16624
-3.05091
1.16699
1.1581
1.13575
1.08134
0.968248
0.751913
0.363947
-0.313896
-1.39046
-3.3556
1.08147
1.07079
1.04396
0.982896
0.861134
0.632348
0.229635
-0.476047
-1.60964
-3.67419
0.996975
0.984506
0.953269
0.885645
0.755454
0.514506
0.0968846
-0.635317
-1.82687
-4.00021
3.53413
3.5593
3.60844
3.67737
3.75706
3.83693
3.90825
3.96597
4.00881
4.03803
3.43763
3.46514
3.51922
3.59565
3.68537
3.77769
3.86355
3.93716
3.99609
4.04119
3.27867
3.30881
3.36838
3.45312
3.55377
3.65935
3.76058
3.85114
3.92607
3.98745
3.08139
3.11293
3.17546
3.26463
3.37096
3.48284
3.58891
3.67937
3.74866
3.80953
2.86509
2.89613
2.95763
3.04475
3.14679
3.25058
3.34285
3.4111
3.44857
3.48543
2.64498
2.67365
2.73027
2.80913
2.89823
2.98303
3.04547
3.05971
3.01725
2.99444
2.43218
2.45704
2.50584
2.57127
2.63862
2.69067
2.7059
2.64364
2.48352
2.35917
2.23391
2.25403
2.29321
2.34221
2.3832
2.39518
2.35519
2.20139
1.86536
1.54931
2.05408
2.06918
2.09784
2.12789
2.1381
2.10091
1.99092
1.73801
1.20325
0.601627
1.89349
1.90327
1.92221
1.93407
1.91359
1.82379
1.62919
1.26417
0.515508
-0.578421
4.04922
4.05294
4.05592
4.05814
4.05953
4.06001
4.05949
4.05783
4.05487
4.05046
4.06696
4.07398
4.07862
4.08194
4.08402
4.08463
4.08361
4.08081
4.07603
4.06908
4.03526
4.04889
4.05863
4.0657
4.07034
4.07235
4.07152
4.06767
4.06057
4.04997
3.87748
3.90095
3.91981
3.93389
3.94361
3.94885
3.94935
3.94489
3.93521
3.92003
3.57262
3.60978
3.64025
3.66315
3.67916
3.68812
3.68976
3.68381
3.66994
3.64778
3.10454
3.16312
3.20984
3.24574
3.2712
3.28593
3.28957
3.2817
3.26189
3.22979
2.49487
2.57981
2.64364
2.69412
2.72997
2.75073
2.75584
2.74482
2.71716
2.67247
1.69904
1.82798
1.91687
1.98783
2.03752
2.06714
2.07616
2.06391
2.02917
1.97086
0.740863
0.913563
1.02591
1.12285
1.19183
1.23453
1.24855
1.23265
1.18487
1.10381
-0.466462
-0.184283
-0.0248491
0.110219
0.19909
0.250704
0.262575
0.234908
0.166305
0.0563261
4.04438
4.03643
4.0264
4.01405
3.9992
3.98166
3.96125
3.93787
3.91144
3.88194
4.0597
4.04768
4.03276
4.01472
3.99335
3.96851
3.94008
3.90792
3.87182
3.83212
4.03561
4.01719
3.99443
3.96706
3.93493
3.89804
3.85612
3.8079
3.75232
3.6953
3.89902
3.87186
3.83812
3.79761
3.75073
3.69802
3.63759
3.56303
3.47326
3.39935
3.61701
3.57708
3.52732
3.46779
3.40056
3.32779
3.24261
3.12485
2.97484
2.88329
3.18517
3.12743
3.05539
2.96924
2.87378
2.77465
2.65787
2.47801
2.23132
2.10557
2.61066
2.53093
2.43113
2.31029
2.17477
2.03547
1.87476
1.61698
1.24155
1.05209
1.88855
1.7813
1.64604
1.47981
1.28779
1.08617
0.86395
0.527414
0.0332427
-0.215601
0.989618
0.842304
0.659798
0.439187
0.183241
-0.0895208
-0.37092
-0.742614
-1.27212
-1.50964
-0.093964
-0.283396
-0.511605
-0.777807
-1.07901
-1.40066
-1.71609
-2.05026
-2.48849
-2.66403
3.80071
3.59998
3.36857
3.09962
2.77776
2.40664
2.00417
1.5973
1.20941
0.861781
0.568699
0.334008
0.160483
0.0362024
-0.0393777
-0.0813432
-0.090213
-0.073798
-0.047179
-0.00978737
3.72497
3.4923
3.272
3.0025
2.66979
2.29152
1.8904
1.49155
1.11589
0.783932
0.506091
0.286769
0.124918
0.0104885
-0.0579359
-0.095701
-0.0985913
-0.0806469
-0.049148
-0.00831046
3.56402
3.31162
3.10586
2.8278
2.4863
2.10821
1.71666
1.33441
0.980899
0.673985
0.420008
0.223256
0.0779636
-0.0221299
-0.0816253
-0.112841
-0.108363
-0.0886808
-0.0497626
-0.00552987
3.28978
3.05583
2.85434
2.5767
2.24535
1.8838
1.51415
1.15834
0.83488
0.558145
0.331951
0.159434
0.0318938
-0.0532788
-0.104374
-0.12804
-0.117414
-0.0957479
-0.0490041
-0.00313231
2.85533
2.69978
2.5109
2.26315
1.96818
1.64214
1.30682
0.985158
0.695667
0.450298
0.251843
0.102062
-0.00867424
-0.0804082
-0.124171
-0.140535
-0.125389
-0.101412
-0.0477955
-0.00159329
2.19185
2.1989
2.07727
1.90057
1.67117
1.3995
1.10888
0.825956
0.5712
0.355894
0.18295
0.053212
-0.0426475
-0.103053
-0.140551
-0.150511
-0.132126
-0.105673
-0.0465349
-0.000775731
1.24082
1.49972
1.54767
1.4974
1.36463
1.16422
0.926166
0.684364
0.463427
0.275767
0.125346
0.0127623
-0.0704149
-0.121521
-0.153702
-0.158355
-0.137586
-0.108662
-0.0453617
-0.000515825
0.0570606
0.628301
0.953868
1.08086
1.0645
0.943476
0.760952
0.5602
0.371147
0.208431
0.0776044
-0.0204261
-0.0929482
-0.136458
-0.164144
-0.164514
-0.141877
-0.11063
-0.0443785
-0.000656196
-1.11202
-0.241427
0.403431
0.710439
0.799378
0.749199
0.616516
0.452809
0.292314
0.151618
0.0377563
-0.0478585
-0.111386
-0.148606
-0.172471
-0.169379
-0.145179
-0.111857
-0.0436229
-0.00103933
-1.85937
-0.837236
0.0468617
0.463096
0.607862
0.601893
0.50276
0.366463
0.228367
0.105421
0.00537946
-0.0700484
-0.126182
-0.158234
-0.178866
-0.172979
-0.147461
-0.112427
-0.0430171
-0.00154715
-1.95538
-0.99297
-0.0605053
0.384083
0.527379
0.533892
0.446623
0.322243
0.194942
0.0809426
-0.0120007
-0.0820486
-0.134162
-0.163348
-0.182002
-0.174541
-0.148283
-0.112267
-0.0426137
-0.0020685
-2.07645
-1.06316
-0.185086
0.296976
0.439743
0.457568
0.383789
0.27291
0.158131
0.0545854
-0.0301837
-0.0942008
-0.141971
-0.168188
-0.184819
-0.175778
-0.148738
-0.111872
-0.0421302
-0.00238764
-2.42003
-1.17386
-0.344624
0.195559
0.352834
0.38284
0.323041
0.224771
0.121617
0.0280046
-0.0487796
-0.106764
-0.150089
-0.173242
-0.187717
-0.176981
-0.149075
-0.111307
-0.0415928
-0.0026897
-2.84346
-1.30205
-0.505095
0.0826877
0.265917
0.309201
0.264908
0.179803
0.088052
0.00380577
-0.0656406
-0.118155
-0.157464
-0.177857
-0.190355
-0.178088
-0.149364
-0.110749
-0.04116
-0.00302302
-3.31241
-1.46299
-0.658742
-0.0369023
0.180436
0.237946
0.209202
0.137226
0.0565485
-0.0187355
-0.0812596
-0.128666
-0.164253
-0.182105
-0.192763
-0.1791
-0.149603
-0.1102
-0.0408339
-0.00338805
-3.79967
-1.65266
-0.803912
-0.159941
0.0954417
0.169216
0.155926
0.0969086
0.026855
-0.0399235
-0.0959178
-0.138518
-0.170606
-0.186079
-0.194992
-0.180031
-0.149792
-0.109649
-0.040601
-0.0037783
-4.30491
-1.87408
-0.945073
-0.283789
0.0105059
0.103024
0.105083
0.058815
-0.0010512
-0.0597826
-0.109644
-0.14774
-0.17655
-0.189797
-0.197054
-0.180887
-0.149936
-0.109102
-0.0404612
-0.00419114
-4.82836
-2.12625
-1.08614
-0.406496
-0.0745127
0.0391886
0.0566154
0.0228593
-0.0272321
-0.0783521
-0.122459
-0.156345
-0.182092
-0.193264
-0.198956
-0.181675
-0.150046
-0.108567
-0.0404178
-0.00462534
-5.37274
-2.41113
-1.23211
-0.527351
-0.159532
-0.0225633
0.0104126
-0.0110773
-0.0517821
-0.095701
-0.134412
-0.164363
-0.187252
-0.196494
-0.200708
-0.182401
-0.150131
-0.108055
-0.0404714
-0.00507934
-5.93086
-2.72614
-1.38714
-0.646857
-0.244546
-0.0825851
-0.0336957
-0.0431357
-0.0748097
-0.111908
-0.145557
-0.171832
-0.192054
-0.1995
-0.202322
-0.183071
-0.1502
-0.107574
-0.040621
-0.00555142
)
;

boundaryField
{
    inlet
    {
        type            freestreamPressure;
        freestreamValue uniform 0;
        supersonic      false;
        value           nonuniform List<scalar> 
40
(
0.156051
0.0382518
-0.0882857
-0.221288
-0.357173
-0.491254
-0.616968
-0.725201
-0.806761
-0.853686
0.913733
0.831951
0.75181
0.67347
0.597062
0.52269
0.450441
0.380393
0.312554
0.246631
1.77348
1.68748
1.60115
1.51435
1.42725
1.34014
1.2533
1.16699
1.08147
0.996975
3.53413
3.43763
3.27867
3.08139
2.86509
2.64498
2.43218
2.23391
2.05408
1.89349
)
;
    }
    outlet
    {
        type            freestreamPressure;
        freestreamValue uniform 0;
        supersonic      false;
        value           nonuniform List<scalar> 
40
(
-1.7383e-05
-2.05458e-05
-2.42665e-05
-2.83508e-05
-3.19893e-05
-3.36638e-05
-3.13863e-05
-2.37561e-05
-1.19536e-05
-1.65097e-06
-5.2549e-06
-5.91944e-06
-6.67157e-06
-7.52193e-06
-8.4801e-06
-9.55404e-06
-1.07497e-05
-1.20713e-05
-1.35165e-05
-1.50585e-05
-1.49834e-06
-1.75049e-06
-1.99216e-06
-2.26289e-06
-2.56621e-06
-2.90147e-06
-3.27245e-06
-3.68541e-06
-4.14767e-06
-4.66769e-06
-4.26506e-08
-3.51679e-07
-5.92915e-07
-6.42121e-07
-5.24173e-07
-3.50692e-07
-2.85026e-07
-4.09832e-07
-6.99548e-07
-1.09279e-06
)
;
    }
    top
    {
        type            symmetryPlane;
    }
    bottom
    {
        type            symmetryPlane;
    }
    cylinder
    {
        type            zeroGradient;
    }
    frontandback
    {
        type            empty;
    }
}


// ************************************************************************* //
