/*--------------------------------*- C++ -*----------------------------------*\
  =========                 |
  \\      /  F ield         | OpenFOAM: The Open Source CFD Toolbox
   \\    /   O peration     | Website:  https://openfoam.org
    \\  /    A nd           | Version:  6.0
     \\/     M anipulation  |
\*---------------------------------------------------------------------------*/
FoamFile
{
    version     2.0;
    format      ascii;
    class       volVectorField;
    location    "17.00325";
    object      U;
}
// * * * * * * * * * * * * * * * * * * * * * * * * * * * * * * * * * * * * * //

dimensions      [0 1 -1 0 0 0 0];

internalField   nonuniform List<vector> 
2400
(
(1.34278 -8.38184 -7.28083e-19)
(0.367015 -7.67555 2.77303e-19)
(0.544564 -7.33372 -2.32822e-19)
(0.76802 -7.0413 -1.32943e-19)
(0.885912 -6.7448 -1.86146e-19)
(0.964705 -6.43216 2.55506e-19)
(1.02455 -6.11396 8.63447e-20)
(1.06875 -5.80547 6.31538e-20)
(1.10521 -5.51721 -1.41602e-19)
(1.13426 -5.25379 -9.15885e-21)
(2.015 -8.32289 8.51026e-19)
(0.994501 -7.77866 -3.5935e-20)
(1.14322 -7.4535 1.68491e-19)
(1.33599 -7.14412 1.272e-18)
(1.42111 -6.82666 -8.64972e-19)
(1.46627 -6.49342 -4.0151e-20)
(1.49341 -6.15805 -1.11573e-20)
(1.50759 -5.83716 -9.33975e-20)
(1.51795 -5.54086 -1.23008e-19)
(1.52305 -5.2741 -1.32989e-20)
(2.68717 -8.21255 1.54681e-18)
(1.63787 -7.82935 1.18555e-18)
(1.75903 -7.51923 -2.975e-18)
(1.91795 -7.19324 8.58023e-19)
(1.96657 -6.85694 1.15762e-18)
(1.97484 -6.50643 -6.47218e-19)
(1.96686 -6.15777 -4.83213e-19)
(1.94954 -5.82831 3.58777e-19)
(1.93298 -5.52739 -7.41579e-19)
(1.91273 -5.26095 6.86766e-19)
(3.35379 -8.04904 -5.33226e-18)
(2.29199 -7.82416 1.93563e-18)
(2.38636 -7.52768 -1.82097e-18)
(2.50816 -7.18617 7.71229e-19)
(2.51681 -6.83385 -7.65487e-19)
(2.48531 -6.46996 1.04719e-18)
(2.44019 -6.11226 3.78923e-19)
(2.39036 -5.77825 -1.46669e-18)
(2.3464 -5.47632 -1.17866e-18)
(2.29971 -5.21451 1.19214e-18)
(4.01087 -7.83156 2.91752e-19)
(2.95174 -7.76066 -7.68327e-19)
(3.01954 -7.47667 -3.2517e-19)
(3.101 -7.12141 -3.74315e-19)
(3.06656 -6.75658 -1.92779e-18)
(2.99284 -6.38362 2.73029e-19)
(2.90893 -6.02126 -1.68321e-19)
(2.82567 -5.68659 1.51583e-18)
(2.75363 -5.3872 -1.03168e-18)
(2.67937 -5.13443 -5.57059e-19)
(4.65326 -7.55945 4.81587e-18)
(3.61107 -7.6367 -3.75805e-19)
(3.65224 -7.36444 5.05297e-18)
(3.69039 -6.99803 -6.68902e-19)
(3.61041 -6.62496 2.35508e-18)
(3.49291 -6.24787 -2.83959e-19)
(3.36929 -5.88564 1.47465e-20)
(3.25201 -5.55425 1.2903e-18)
(3.15095 -5.26056 -6.94548e-19)
(3.04792 -5.02023 9.12914e-19)
(5.2762 -7.23292 -1.90277e-18)
(4.26399 -7.45113 3.91492e-19)
(4.27795 -7.18997 -1.369e-18)
(4.26989 -6.81546 -1.21467e-18)
(4.14235 -6.43897 2.10833e-20)
(3.9803 -6.06337 3.58867e-18)
(3.81739 -5.70682 -1.25009e-18)
(3.66705 -5.38327 4.21991e-19)
(3.5375 -5.09847 -1.72461e-18)
(3.40595 -4.8732 -7.45409e-19)
(5.87514 -6.85299 7.97806e-18)
(4.9048 -7.20352 -1.00249e-18)
(4.89043 -6.95278 -6.96327e-18)
(4.83302 -6.57334 3.6242e-19)
(4.65551 -6.19818 1.23184e-18)
(4.44765 -5.82957 -1.69716e-18)
(4.24585 -5.48425 -1.9886e-18)
(4.06493 -5.17354 2.89993e-18)
(3.91067 -4.90255 -2.64142e-19)
(3.75442 -4.7004 -2.05101e-18)
(6.44606 -6.42129 -6.56202e-18)
(5.52857 -6.89426 3.25367e-18)
(5.48456 -6.65337 4.38756e-18)
(5.37491 -6.27217 1.03524e-18)
(5.14483 -5.90239 -3.53908e-18)
(4.88824 -5.54464 2.124e-18)
(4.64432 -5.21379 1.13514e-18)
(4.43029 -4.91937 2.24207e-18)
(4.25065 -4.67079 -1.40678e-18)
(4.07178 -4.51271 -1.74362e-18)
(6.98429 -5.93904 2.1287e-18)
(6.1302 -6.52435 -8.23576e-19)
(6.05599 -6.29347 -2.2531e-19)
(5.89271 -5.91387 9.90407e-19)
(5.60961 -5.5528 7.32307e-19)
(5.30318 -5.20771 -5.52213e-19)
(5.01233 -4.89127 -9.35864e-19)
(4.75228 -4.61405 1.42011e-18)
(4.52364 -4.3965 -1.15122e-18)
(4.29922 -4.29406 9.79528e-19)
(9.74759 0.828784 1.21184e-19)
(9.72352 0.0564838 3.80631e-19)
(9.63652 -0.706812 -1.20005e-18)
(9.48952 -1.45604 1.10014e-18)
(9.28463 -2.18644 4.34528e-19)
(9.02424 -2.89353 5.63916e-18)
(8.71071 -3.5731 -2.22625e-18)
(8.34757 -4.22103 -3.19889e-18)
(7.93663 -4.83393 3.64444e-18)
(7.48327 -5.40742 -6.3207e-18)
(9.80748 -0.316254 3.36384e-19)
(9.69375 -1.07299 -1.61479e-19)
(9.51367 -1.81371 -1.00149e-18)
(9.27057 -2.53239 2.67286e-18)
(8.9678 -3.22338 -9.36699e-19)
(8.60925 -3.88163 7.28655e-18)
(8.19882 -4.50225 -4.787e-18)
(7.74149 -5.08093 6.97852e-18)
(7.24115 -5.61343 -5.05545e-18)
(6.70337 -6.0962 -2.64e-18)
(9.42591 -0.307414 -6.25572e-19)
(9.34309 -1.02355 4.2256e-20)
(9.19546 -1.72889 -2.72892e-18)
(8.98511 -2.41725 2.07217e-18)
(8.71481 -3.08253 -2.30407e-18)
(8.38794 -3.71923 -4.5394e-18)
(8.00826 -4.32187 -1.59987e-18)
(7.58061 -4.88554 -1.15128e-18)
(7.10933 -5.40516 4.62879e-18)
(6.5997 -5.87609 2.7199e-18)
(8.81169 -0.223556 2.53052e-19)
(8.76062 -0.885185 -4.40226e-19)
(8.64961 -1.54105 -6.13351e-19)
(8.47973 -2.18549 -2.52517e-18)
(8.25311 -2.8125 1.66871e-18)
(7.9721 -3.41691 4.64451e-18)
(7.64056 -3.99314 1.87923e-18)
(7.26208 -4.53633 4.04899e-19)
(6.84124 -5.04094 1.10708e-18)
(6.38333 -5.50192 1.19372e-19)
(8.18988 -0.211596 -2.65904e-19)
(8.15278 -0.819512 -1.04795e-18)
(8.06147 -1.42425 9.24716e-20)
(7.91618 -2.02117 1.97783e-18)
(7.71902 -2.60438 2.1593e-18)
(7.47121 -3.16996 -1.48436e-18)
(7.17689 -3.71208 -2.65346e-18)
(6.83838 -4.22707 -1.41672e-18)
(6.46148 -4.70891 1.54087e-18)
(6.05011 -5.15294 2.4778e-18)
(7.63945 -0.206084 6.39693e-20)
(7.60663 -0.766628 8.51784e-19)
(7.52491 -1.32494 -2.00476e-18)
(7.39354 -1.87765 2.45857e-18)
(7.21538 -2.41865 1.49971e-18)
(6.98996 -2.94615 2.88654e-18)
(6.72298 -3.45324 -6.15226e-19)
(6.41392 -3.93934 -1.79809e-18)
(6.07251 -4.39628 4.22352e-18)
(5.69921 -4.82191 -3.71266e-18)
(7.17317 -0.196028 1.24859e-19)
(7.14005 -0.716103 -9.19372e-19)
(7.0627 -1.23392 -5.95935e-19)
(6.9388 -1.74761 -1.30584e-18)
(6.77318 -2.2501 -1.87017e-19)
(6.56188 -2.74293 -1.89399e-18)
(6.31488 -3.21654 -1.25252e-18)
(6.02543 -3.67685 -2.06652e-19)
(5.71254 -4.10932 -2.50216e-18)
(5.36749 -4.51898 3.50074e-18)
(6.78019 -0.183893 -1.02294e-19)
(6.7449 -0.670014 7.53647e-19)
(6.66966 -1.15322 -3.36532e-19)
(6.54953 -1.6333 7.32454e-19)
(6.39299 -2.10127 1.77569e-18)
(6.18986 -2.56336 3.00679e-18)
(5.95846 -3.00501 -7.99857e-19)
(5.6789 -3.44452 -2.94747e-18)
(5.39062 -3.85458 8.93664e-19)
(5.06112 -4.2569 -5.34784e-18)
(6.44368 -0.166661 1.43969e-19)
(6.40585 -0.625379 -1.71395e-19)
(6.33231 -1.08055 -1.65732e-18)
(6.21388 -1.53352 5.01668e-19)
(6.06509 -1.97268 -1.2103e-18)
(5.86538 -2.40954 -5.32101e-19)
(5.64711 -2.82199 -3.41078e-19)
(5.36614 -3.24712 1.34493e-18)
(5.10022 -3.63822 1.30044e-18)
(4.76123 -4.06224 1.06537e-18)
(6.14752 -0.15439 -3.19608e-19)
(6.10607 -0.588982 5.55686e-19)
(6.03386 -1.02093 2.74321e-19)
(5.91502 -1.4534 7.61743e-19)
(5.77309 -1.87171 -7.9058e-20)
(5.57132 -2.29271 -6.15701e-20)
(5.36324 -2.68412 -1.8658e-18)
(5.06578 -3.10407 2.52321e-18)
(4.8168 -3.47371 -1.62612e-18)
(4.43257 -3.96406 4.86482e-19)
(6.47965 7.68222 -3.67711e-18)
(7.06562 7.15528 3.82023e-18)
(7.60206 6.57864 -2.11988e-19)
(8.08559 5.95764 -6.385e-18)
(8.51229 5.29713 4.61122e-18)
(8.8788 4.60249 -3.18519e-18)
(9.1825 3.8795 -7.12842e-19)
(9.42204 3.13473 -6.69357e-19)
(9.59611 2.37379 1.06641e-18)
(9.70531 1.6041 7.60091e-20)
(7.22652 6.57365 4.29946e-18)
(7.75792 6.03809 8.13943e-19)
(8.23828 5.4534 -4.23094e-18)
(8.66299 4.82439 -4.3538e-18)
(9.02777 4.15609 3.5903e-18)
(9.329 3.4544 -2.8345e-18)
(9.56359 2.72583 3.1355e-18)
(9.72981 1.97752 -8.85817e-19)
(9.82602 1.21636 -2.60753e-18)
(9.85233 0.449475 -1.79362e-19)
(6.79411 5.97917 -7.39012e-19)
(7.30208 5.51152 -5.78331e-19)
(7.76631 4.99541 2.35459e-18)
(8.18174 4.43418 2.16188e-18)
(8.54392 3.8321 4.65217e-18)
(8.84907 3.19454 1.46167e-18)
(9.09381 2.52741 -1.04615e-18)
(9.27559 1.83708 -2.19186e-18)
(9.39228 1.13 1.74634e-18)
(9.44267 0.412862 1.25052e-19)
(6.23168 5.41353 1.0591e-18)
(6.70335 5.00788 -2.41199e-18)
(7.13754 4.55664 -9.34098e-19)
(7.52958 4.06185 -4.01106e-18)
(7.87546 3.52726 -2.09037e-18)
(8.17167 2.95777 3.89488e-18)
(8.41498 2.35856 2.46583e-18)
(8.60258 1.73498 -2.07593e-18)
(8.73228 1.09278 8.87935e-20)
(8.80226 0.437814 -8.74297e-20)
(5.79949 4.89839 -3.72973e-18)
(6.22914 4.53585 4.14895e-18)
(6.62463 4.13131 -1.04677e-18)
(6.98239 3.68562 2.10004e-18)
(7.29934 3.20269 -1.3929e-18)
(7.57238 2.68728 -2.27887e-18)
(7.79861 2.14391 1.07161e-18)
(7.97529 1.57714 -1.14861e-18)
(8.10047 0.992126 -1.09188e-18)
(8.17226 0.393983 4.59603e-19)
(5.46654 4.48608 -5.00694e-19)
(5.85913 4.15568 7.80283e-19)
(6.21802 3.78574 -9.11907e-19)
(6.54182 3.3765 -4.08789e-18)
(6.82891 2.93289 2.18685e-18)
(7.07651 2.45961 3.4423e-19)
(7.28185 1.96047 -1.91377e-18)
(7.44235 1.43954 -6.48586e-19)
(7.55651 0.901673 5.83746e-19)
(7.62239 0.351406 -1.67912e-19)
(5.20152 4.16012 -1.98753e-18)
(5.56441 3.85605 -6.25714e-21)
(5.89252 3.51212 9.0655e-19)
(6.18645 3.13051 2.30551e-18)
(6.44671 2.71797 4.65258e-19)
(6.67088 2.27826 1.11666e-18)
(6.85629 1.81445 2.15096e-18)
(7.00047 1.33054 -9.08274e-19)
(7.10244 0.831342 7.60945e-19)
(7.16003 0.320873 -2.84627e-19)
(4.98046 3.89791 -6.83001e-19)
(5.31595 3.61997 7.79204e-19)
(5.62009 3.29475 7.50845e-19)
(5.89037 2.93428 -1.07968e-18)
(6.12845 2.54726 -5.822e-19)
(6.33268 2.13459 -1.26259e-18)
(6.50103 1.69884 1.13636e-19)
(6.63102 1.2446 -2.78312e-19)
(6.72214 0.776882 -1.6094e-18)
(6.77161 0.299183 2.14783e-19)
(4.80809 3.6768 -2.51036e-19)
(5.09934 3.43452 -1.32334e-18)
(5.37956 3.1222 -5.08177e-19)
(5.63275 2.77907 2.26395e-19)
(5.85331 2.41471 -1.34897e-19)
(6.04058 2.02486 1.1125e-18)
(6.19476 1.612 4.35804e-19)
(6.31339 1.18183 6.39676e-19)
(6.39605 0.739774 7.49957e-19)
(6.43882 0.288809 -3.05111e-19)
(4.74577 3.44576 -9.00541e-19)
(4.96354 3.24055 1.53305e-18)
(5.19501 2.93859 -2.4225e-18)
(5.42839 2.61311 -5.27717e-20)
(5.63043 2.27255 1.92321e-18)
(5.7967 1.90764 9.10618e-20)
(5.9331 1.52007 8.17503e-19)
(6.03833 1.11558 -1.68243e-18)
(6.11157 0.699805 -1.37485e-20)
(6.14687 0.275093 1.4704e-19)
(1.04676 4.51205 5.00565e-20)
(1.00703 4.72504 -1.88272e-20)
(0.97224 4.96577 -1.27186e-20)
(0.924706 5.24967 1.43145e-19)
(0.864726 5.60397 -6.40745e-20)
(0.790939 6.07376 -2.36512e-19)
(0.71058 6.72342 2.76499e-19)
(0.686886 7.60908 9.61034e-20)
(0.550683 8.65937 1.49129e-19)
(-0.787231 9.58949 6.49611e-19)
(1.40029 4.53859 1.29958e-19)
(1.38003 4.76149 -3.8787e-19)
(1.36437 5.01182 3.91158e-19)
(1.34029 5.30646 8.2821e-20)
(1.30987 5.67252 -1.70443e-19)
(1.27466 6.15439 1.88799e-19)
(1.24655 6.81329 6.88383e-19)
(1.29207 7.69367 -8.84682e-19)
(1.23502 8.72275 3.15715e-20)
(-0.0349237 9.68199 -7.75403e-19)
(1.76209 4.53851 5.61962e-19)
(1.76183 4.76924 -7.36203e-19)
(1.76642 5.02684 -2.93371e-19)
(1.76741 5.32952 -2.61659e-20)
(1.76832 5.70435 -3.0007e-19)
(1.77341 6.1947 -1.32813e-19)
(1.79874 6.85813 2.27402e-19)
(1.91254 7.72701 6.38407e-19)
(1.93076 8.72805 4.8931e-19)
(0.726495 9.71221 -1.41779e-18)
(2.13291 4.50081 5.52336e-19)
(2.15219 4.73947 -6.21617e-19)
(2.17739 5.00442 -6.19643e-19)
(2.2044 5.31431 3.5887e-19)
(2.23766 5.69602 1.9043e-18)
(2.28401 6.19179 -7.52958e-19)
(2.36323 6.85523 5.99274e-19)
(2.54375 7.70672 -2.0257e-18)
(2.63284 8.67377 -2.29102e-18)
(1.49182 9.67967 2.70319e-18)
(2.50534 4.43986 4.19116e-19)
(2.54425 4.68291 -2.80687e-19)
(2.59115 4.95106 8.18933e-19)
(2.64574 5.26382 -7.22551e-19)
(2.71286 5.6482 5.47549e-19)
(2.80169 6.14495 4.75829e-19)
(2.93522 6.8031 4.66198e-19)
(3.18059 7.63103 3.62672e-19)
(3.3358 8.55837 1.44769e-18)
(2.25562 9.58339 1.27455e-18)
(2.88699 4.32916 -1.30783e-18)
(2.94305 4.58108 -3.4995e-19)
(3.01022 4.85533 1.48938e-18)
(3.09158 5.17149 -1.64152e-18)
(3.19206 5.55714 -7.64581e-19)
(3.32306 6.05176 -1.88104e-18)
(3.51018 6.69995 9.70423e-20)
(3.8177 7.49855 -2.00424e-18)
(4.03379 8.38104 -2.42102e-19)
(3.01215 9.42308 -3.89516e-18)
(3.25979 4.20797 1.93608e-18)
(3.33385 4.4609 -3.18504e-18)
(3.42291 4.73301 1.75731e-18)
(3.53297 5.04519 8.95476e-19)
(3.66835 5.42606 -2.05062e-19)
(3.8423 5.91308 2.57941e-18)
(4.0825 6.54548 -1.66096e-18)
(4.44925 7.3087 -4.15579e-18)
(4.7206 8.14135 -5.80853e-19)
(3.75559 9.19856 3.5834e-18)
(3.65212 4.01631 -1.28097e-20)
(3.73466 4.28519 1.52325e-18)
(3.83804 4.56399 -7.19498e-19)
(3.97229 4.87529 7.39223e-19)
(4.14019 5.25078 7.51573e-19)
(4.35554 5.72713 -1.24217e-18)
(4.64694 6.33889 8.96118e-19)
(5.06916 7.06121 -2.01159e-18)
(5.38994 7.83992 5.47782e-18)
(4.47989 8.91127 -1.8569e-18)
(4.01639 3.8501 -9.27202e-19)
(4.11259 4.11215 -4.69635e-19)
(4.23432 4.37804 2.08984e-18)
(4.39711 4.67499 -2.99315e-18)
(4.59976 5.03663 2.95162e-18)
(4.85648 5.4959 -1.51051e-18)
(5.19747 6.08096 -2.56134e-18)
(5.67102 6.75644 5.64671e-19)
(6.03517 7.47718 -9.4534e-18)
(5.17946 8.56131 6.81263e-18)
(4.4209 3.59696 2.41657e-18)
(4.49283 3.87364 -2.10942e-18)
(4.61991 4.14516 2.16722e-18)
(4.80882 4.43359 -1.72126e-19)
(5.04401 4.78066 -2.25645e-18)
(5.33989 5.21912 -1.17395e-18)
(5.72775 5.77196 1.3391e-18)
(6.24826 6.39521 3.57677e-18)
(6.65002 7.05488 4.50322e-18)
(5.84772 8.1528 2.03999e-20)
(-1.60546 3.04638 -4.21434e-19)
(-1.75408 3.07675 3.14402e-19)
(-1.91278 3.15789 -1.6176e-19)
(-2.10239 3.27513 3.82422e-19)
(-2.34612 3.43643 3.51794e-19)
(-2.67886 3.67319 6.3556e-19)
(-3.14796 4.04716 1.02314e-18)
(-3.77823 4.68045 6.24876e-19)
(-4.72812 5.51478 1.02989e-18)
(-6.75347 5.77491 -7.49279e-19)
(-1.46215 3.2529 2.74186e-19)
(-1.602 3.31183 3.28477e-19)
(-1.74237 3.41858 -4.96638e-19)
(-1.91751 3.5551 -2.91216e-19)
(-2.14741 3.73628 -5.77685e-19)
(-2.46272 3.99905 1.16236e-18)
(-2.90545 4.40889 -5.56977e-19)
(-3.48836 5.08712 -1.45044e-18)
(-4.36635 5.977 -1.25696e-18)
(-6.3353 6.34044 1.90585e-18)
(-1.26082 3.44184 -7.76733e-20)
(-1.39875 3.53203 8.63126e-20)
(-1.53291 3.66084 -7.96124e-19)
(-1.70059 3.81739 5.31137e-19)
(-1.91953 4.02119 5.32867e-19)
(-2.21729 4.31206 -3.68942e-19)
(-2.63123 4.75806 -9.97613e-21)
(-3.16293 5.47828 2.59379e-18)
(-3.96465 6.41669 4.91467e-19)
(-5.87087 6.8749 -1.49477e-18)
(-1.03292 3.63262 -7.86945e-19)
(-1.16687 3.74425 5.16212e-19)
(-1.29483 3.89025 -1.30865e-19)
(-1.45453 4.06555 4.31694e-19)
(-1.66169 4.29192 -1.17998e-18)
(-1.94066 4.61077 -9.47185e-21)
(-2.32334 5.09182 2.20899e-19)
(-2.80064 5.85045 -4.44636e-22)
(-3.52303 6.83027 -1.28412e-19)
(-5.36218 7.37491 1.99452e-18)
(-0.787346 3.81632 7.06641e-19)
(-0.914324 3.94501 2.68751e-20)
(-1.03383 4.10663 -4.53043e-19)
(-1.18316 4.29978 9.6567e-21)
(-1.37607 4.54776 8.45572e-20)
(-1.63359 4.89339 -8.92876e-19)
(-1.98183 5.40743 2.70485e-19)
(-2.4014 6.20015 -2.91603e-19)
(-3.04189 7.2138 -4.29832e-20)
(-4.81097 7.83635 -2.524e-18)
(-0.523372 3.9842 -1.87925e-20)
(-0.640826 4.12951 6.05517e-19)
(-0.750147 4.30656 -5.91232e-19)
(-0.887232 4.51718 5.81291e-20)
(-1.0636 4.78597 -1.47168e-19)
(-1.29689 5.15704 8.19064e-19)
(-1.60746 5.70169 1.75783e-19)
(-1.96609 6.52362 1.06533e-19)
(-2.52279 7.5632 7.33866e-19)
(-4.21983 8.25516 5.16664e-19)
(-0.240592 4.13355 -4.53925e-19)
(-0.346321 4.29512 5.10032e-19)
(-0.444006 4.4871 2.43433e-20)
(-0.567137 4.71462 8.44846e-19)
(-0.724794 5.00339 -4.99017e-19)
(-0.931248 5.39843 3.81045e-19)
(-1.20103 5.97095 -3.76386e-19)
(-1.4961 6.81699 9.33101e-19)
(-1.96777 7.87436 9.62052e-19)
(-3.59173 8.62757 1.13045e-18)
(0.0597031 4.26296 -3.1063e-19)
(-0.0322318 4.43958 3.73914e-19)
(-0.116727 4.64553 -1.84184e-19)
(-0.224009 4.88909 -1.46609e-19)
(-0.360689 5.19675 3.58284e-19)
(-0.5377 5.61402 -6.29017e-19)
(-0.763857 6.21134 -4.78174e-19)
(-0.993178 7.07606 1.72674e-18)
(-1.37961 8.14335 -3.49643e-19)
(-2.93061 8.95033 -1.30425e-18)
(0.375374 4.37119 -3.35549e-19)
(0.299238 4.56128 7.35388e-20)
(0.229689 4.77998 4.6912e-20)
(0.140332 5.03835 3.84068e-22)
(0.0269828 5.36334 -2.39229e-19)
(-0.118002 5.80067 8.05127e-19)
(-0.297844 6.41934 -8.07886e-19)
(-0.459686 7.29706 -1.14599e-19)
(-0.761334 8.36632 1.55421e-20)
(-2.23979 9.22013 -1.04815e-18)
(0.705019 4.45448 1.10342e-19)
(0.646404 4.65668 1.74629e-20)
(0.593466 4.8871 -3.90204e-20)
(0.524057 5.15911 -5.94651e-20)
(0.436326 5.49984 -1.65208e-19)
(0.325828 5.9548 1.28158e-19)
(0.194702 6.591 8.21301e-20)
(0.101562 7.47577 1.60866e-19)
(-0.116559 8.53959 -2.25622e-19)
(-1.52476 9.43457 2.13076e-19)
(-1.66035 2.75654 -3.50579e-19)
(-1.89443 2.42355 1.47539e-19)
(-2.03553 2.1305 -8.49584e-20)
(-2.19552 1.84179 -8.97084e-20)
(-2.32589 1.55352 -4.31034e-20)
(-2.44639 1.26375 3.01067e-21)
(-2.55096 0.970316 -2.54308e-20)
(-2.64315 0.672489 -2.37835e-20)
(-2.7222 0.369423 -1.48121e-20)
(-2.78824 0.0607871 8.63933e-21)
(-1.86208 2.808 -2.9836e-19)
(-2.05549 2.49552 -1.49381e-19)
(-2.19608 2.19907 -2.5684e-19)
(-2.34567 1.90356 1.70929e-20)
(-2.47201 1.60915 8.37398e-20)
(-2.58904 1.31443 1.10786e-19)
(-2.69161 1.01681 -3.49623e-20)
(-2.78265 0.715532 1.14754e-19)
(-2.86126 0.40932 1.68521e-20)
(-2.92736 0.0975197 -1.22677e-20)
(-2.05963 2.87291 8.40043e-19)
(-2.23182 2.56808 -8.23075e-20)
(-2.37352 2.27031 3.72071e-19)
(-2.51415 1.96962 7.30302e-20)
(-2.63667 1.66983 -3.46504e-19)
(-2.74919 1.36984 -1.74367e-19)
(-2.84853 1.06764 -7.55201e-20)
(-2.9367 0.762369 3.96791e-20)
(-3.01298 0.452559 -8.48671e-20)
(-3.0772 0.137304 1.0834e-20)
(-2.26861 2.97621 2.12237e-19)
(-2.43455 2.66683 4.66437e-19)
(-2.57823 2.36095 2.00102e-20)
(-2.71366 2.05197 1.88313e-19)
(-2.83314 1.74395 2.46023e-19)
(-2.94117 1.43578 2.49969e-20)
(-3.03644 1.12625 1.76506e-19)
(-3.12035 0.814407 7.79349e-20)
(-3.19257 0.498778 1.07467e-19)
(-3.25299 0.178262 -1.7929e-20)
(-2.52509 3.12276 7.93576e-19)
(-2.69169 2.80182 -8.76906e-19)
(-2.83784 2.48142 -7.48963e-20)
(-2.97072 2.15915 9.86974e-20)
(-3.0875 1.83808 -1.2792e-19)
(-3.19101 1.51729 -2.18716e-19)
(-3.28122 1.19616 -3.43765e-19)
(-3.35928 0.873714 2.96837e-19)
(-3.4253 0.548604 -3.09266e-20)
(-3.47934 0.219622 -1.3722e-20)
(-2.87162 3.337 -1.45477e-18)
(-3.04449 2.99513 8.07586e-19)
(-3.19545 2.65202 2.90994e-19)
(-3.3287 2.30809 4.33994e-20)
(-3.44386 1.96555 2.7323e-19)
(-3.54316 1.62405 -3.79421e-19)
(-3.62736 1.28336 -3.32933e-19)
(-3.69762 0.942672 -7.35759e-21)
(-3.75446 0.60087 6.27335e-20)
(-3.79817 0.256809 4.35396e-20)
(-3.3622 3.6761 -4.11338e-19)
(-3.55043 3.2997 -2.30935e-19)
(-3.71279 2.92098 -8.22576e-20)
(-3.85234 2.54185 2.92808e-19)
(-3.96993 2.16409 -9.04416e-19)
(-4.06761 1.78811 -3.35263e-19)
(-4.14661 1.41407 4.53242e-19)
(-4.20825 1.04159 1.051e-19)
(-4.25337 0.669944 7.76883e-20)
(-4.28261 0.298271 -4.62224e-20)
(-4.03413 4.26196 -1.28558e-18)
(-4.25756 3.83621 -1.17029e-18)
(-4.44906 3.40584 1.87569e-18)
(-4.61124 2.97375 3.74876e-19)
(-4.74549 2.54177 1.39324e-18)
(-4.85368 2.11114 3.49113e-20)
(-4.93723 1.68263 -3.87363e-19)
(-4.99752 1.25656 5.14641e-19)
(-5.03566 0.832844 7.87494e-21)
(-5.0525 0.411142 1.26147e-19)
(-5.04903 5.03396 7.56672e-20)
(-5.3294 4.54031 1.89802e-18)
(-5.57039 4.03705 -1.84096e-18)
(-5.77373 3.52777 1.2579e-18)
(-5.94082 3.01479 -1.72678e-18)
(-6.07288 2.50035 2.05529e-19)
(-6.17115 1.98617 -6.01392e-19)
(-6.23685 1.47367 2.11654e-19)
(-6.27114 0.963791 4.00231e-20)
(-6.2747 0.457249 -7.05804e-20)
(-7.12179 5.1811 5.78545e-19)
(-7.43727 4.56816 -1.684e-18)
(-7.70473 3.93803 7.46469e-19)
(-7.92244 3.29585 -5.95939e-19)
(-8.09135 2.64468 2.93416e-19)
(-8.21134 1.98825 1.29102e-18)
(-8.28305 1.32979 1.5694e-19)
(-8.30717 0.672505 3.46296e-19)
(-8.28462 0.019286 -1.78285e-19)
(-8.21572 -0.627144 -4.01495e-20)
(-2.84018 -0.253469 2.0479e-21)
(-2.87658 -0.57312 -2.27231e-20)
(-2.89573 -0.89749 1.66997e-19)
(-2.89563 -1.22518 -1.13305e-19)
(-2.87397 -1.55396 9.71839e-21)
(-2.8278 -1.88087 -1.49247e-19)
(-2.75208 -2.20354 6.67285e-19)
(-2.63908 -2.52128 9.18144e-20)
(-2.48507 -2.82666 -2.65032e-19)
(-2.29931 -3.10119 5.41824e-19)
(-2.97972 -0.220346 2.91895e-20)
(-3.01671 -0.544335 -8.50422e-20)
(-3.03631 -0.87402 -6.84143e-20)
(-3.03613 -1.20828 -6.37275e-20)
(-3.01346 -1.5453 -2.03254e-19)
(-2.96542 -1.88261 -2.85523e-20)
(-2.88851 -2.21781 -1.94768e-20)
(-2.77684 -2.54861 2.95135e-19)
(-2.62317 -2.87116 5.71882e-19)
(-2.43051 -3.18937 -9.89773e-21)
(-3.1282 -0.184213 -2.55458e-20)
(-3.16433 -0.512347 2.21983e-19)
(-3.18359 -0.847003 4.47488e-20)
(-3.18357 -1.18749 -8.48652e-21)
(-3.16151 -1.53252 2.30561e-19)
(-3.11453 -1.8804 1.11718e-19)
(-3.03942 -2.22903 2.54803e-19)
(-2.93194 -2.57563 -1.53545e-19)
(-2.78734 -2.91859 -5.32371e-19)
(-2.60533 -3.26505 -1.37373e-18)
(-3.30067 -0.148231 4.20875e-20)
(-3.33413 -0.481384 -1.07394e-19)
(-3.35147 -0.821506 1.59979e-19)
(-3.35041 -1.16842 -4.03349e-19)
(-3.32824 -1.52145 -2.28903e-19)
(-3.28203 -1.87953 -8.68024e-20)
(-3.20842 -2.24099 -5.9276e-19)
(-3.10376 -2.60352 -2.55077e-19)
(-2.96502 -2.96641 5.62702e-21)
(-2.79181 -3.33307 4.7181e-19)
(-3.52077 -0.114489 3.11125e-20)
(-3.54837 -0.454684 8.66922e-21)
(-3.56045 -0.801629 1.2051e-19)
(-3.55495 -1.15562 4.01985e-19)
(-3.52935 -1.51654 -7.42371e-20)
(-3.48074 -1.88383 -6.76127e-19)
(-3.40588 -2.25636 1.12374e-18)
(-3.30135 -2.6326 -3.51403e-19)
(-3.16463 -3.01204 -3.66687e-19)
(-2.99502 -3.39506 -1.78254e-19)
(-3.82853 -0.0907633 -8.03999e-20)
(-3.84472 -0.442932 9.12034e-20)
(-3.84534 -0.800569 2.4071e-19)
(-3.82879 -1.16433 -2.18516e-19)
(-3.79282 -1.5345 5.57034e-19)
(-3.73493 -1.91102 -5.85121e-20)
(-3.65217 -2.29332 5.61043e-20)
(-3.54148 -2.68056 3.66624e-19)
(-3.40048 -3.07227 2.74673e-19)
(-3.22785 -3.46744 1.50238e-19)
(-4.29616 -0.0744435 1.6374e-20)
(-4.29384 -0.449086 -1.70375e-20)
(-4.27459 -0.8265 4.59768e-19)
(-4.23751 -1.20745 -5.45008e-19)
(-4.18094 -1.59246 -9.61649e-19)
(-4.10298 -1.98182 5.28043e-19)
(-4.00132 -2.37544 -2.56836e-19)
(-3.87351 -2.77305 3.23827e-19)
(-3.71738 -3.17424 9.19547e-19)
(-3.53119 -3.5779 -9.30226e-19)
(-5.0485 -0.00885402 -2.77799e-20)
(-5.0243 -0.427131 -3.86895e-19)
(-4.9792 -0.84417 5.08569e-19)
(-4.91327 -1.26042 2.72705e-19)
(-4.82571 -1.67637 -8.95371e-19)
(-4.7154 -2.09215 -7.28313e-19)
(-4.58113 -2.50801 -8.54938e-20)
(-4.42132 -2.9239 2.84024e-20)
(-4.23436 -3.33967 3.2132e-19)
(-4.01857 -3.75462 -3.11287e-19)
(-6.24761 -0.0446831 3.6225e-20)
(-6.19131 -0.54025 6.22894e-19)
(-6.10604 -1.02924 2.53302e-19)
(-5.99267 -1.51103 -8.09725e-19)
(-5.85142 -1.98543 8.04071e-19)
(-5.6824 -2.45187 -1.12389e-18)
(-5.4855 -2.90997 1.31102e-18)
(-5.26081 -3.35972 -1.57215e-18)
(-5.00792 -3.80102 -8.53916e-19)
(-4.72577 -4.23313 -2.57339e-18)
(-8.09967 -1.26363 -1.7638e-20)
(-7.93857 -1.88427 -2.54942e-19)
(-7.73462 -2.48967 2.06349e-19)
(-7.48898 -3.07614 2.14732e-19)
(-7.20308 -3.64189 -4.67192e-19)
(-6.87841 -4.18447 4.70913e-19)
(-6.51671 -4.70198 -6.29755e-19)
(-6.12005 -5.19294 5.27563e-19)
(-5.69051 -5.65627 -1.30194e-18)
(-5.22912 -6.09012 1.38932e-18)
(-4.73602 -6.49064 2.15435e-18)
(-4.41354 -4.65357 -1.22027e-18)
(-3.77237 -4.16675 -9.85527e-19)
(-3.31337 -3.98128 1.24027e-18)
(-3.02273 -3.86243 -5.13725e-20)
(-2.79307 -3.77761 9.99468e-19)
(-2.58713 -3.70116 2.95436e-20)
(-2.39369 -3.62053 -6.57388e-19)
(-2.21307 -3.533 9.68338e-19)
(-2.08122 -3.42797 -1.87434e-19)
(-4.21803 -6.85366 -2.41104e-18)
(-4.07246 -5.05998 4.77258e-18)
(-3.49482 -4.57301 -3.31354e-19)
(-3.06226 -4.38043 -1.08975e-18)
(-2.78375 -4.25183 7.28249e-19)
(-2.55866 -4.15151 -1.46203e-18)
(-2.35453 -4.05547 1.47852e-18)
(-2.16493 -3.95319 -9.70968e-19)
(-1.99518 -3.84294 2.68614e-19)
(-1.87709 -3.71306 5.4132e-19)
(-3.6744 -7.18319 1.49885e-18)
(-3.70122 -5.45126 -2.92952e-18)
(-3.18389 -4.97049 1.03641e-18)
(-2.776 -4.77169 -4.3917e-19)
(-2.50921 -4.63183 6.88166e-19)
(-2.28951 -4.51377 -4.73719e-19)
(-2.0887 -4.39594 -3.65744e-19)
(-1.90326 -4.27007 3.94216e-19)
(-1.73766 -4.13621 -7.8469e-19)
(-1.61621 -3.98723 8.86583e-19)
(-3.10806 -7.47613 -3.30901e-18)
(-3.29961 -5.82518 3.89308e-19)
(-2.83866 -5.35582 9.73642e-19)
(-2.45374 -5.15057 1.10853e-18)
(-2.19886 -4.99728 -1.70791e-18)
(-1.98643 -4.85876 1.03721e-19)
(-1.79185 -4.71661 -5.81422e-19)
(-1.61348 -4.56553 -9.99186e-19)
(-1.4542 -4.40778 1.87099e-18)
(-1.33228 -4.24062 4.21564e-19)
(-2.52016 -7.73175 2.44252e-18)
(-2.86675 -6.1793 4.66675e-19)
(-2.45793 -5.72514 1.38497e-18)
(-2.09472 -5.51246 -4.94183e-20)
(-1.85242 -5.34345 1.36105e-18)
(-1.64925 -5.18223 6.01232e-19)
(-1.46349 -5.01414 1.13084e-18)
(-1.29477 -4.83709 -1.03083e-18)
(-1.14473 -4.65558 -4.77069e-20)
(-1.02649 -4.47022 -6.47431e-19)
(-1.91273 -7.94812 1.76772e-18)
(-2.40245 -6.51016 -1.52736e-18)
(-2.04138 -6.07387 -2.03936e-19)
(-1.69914 -5.85227 -3.83035e-19)
(-1.47077 -5.66528 -3.67941e-19)
(-1.27957 -5.47947 -3.9404e-19)
(-1.10584 -5.28443 6.02492e-19)
(-0.949966 -5.08146 -6.41627e-19)
(-0.812169 -4.87705 5.62325e-19)
(-0.700926 -4.67413 3.23851e-20)
(-1.28766 -8.12376 -3.15912e-18)
(-1.9068 -6.81412 -1.11323e-18)
(-1.58918 -6.39719 1.85806e-18)
(-1.26784 -6.16484 -5.60953e-19)
(-1.05538 -5.95784 6.76633e-19)
(-0.879237 -5.74618 -1.74378e-18)
(-0.721035 -5.52392 1.24233e-18)
(-0.581369 -5.29572 -3.79085e-19)
(-0.45896 -5.06969 5.37404e-19)
(-0.358346 -4.84993 -5.76622e-19)
(-0.647116 -8.25707 1.46308e-18)
(-1.38048 -7.08715 -4.79065e-19)
(-1.10234 -6.68996 -6.02767e-19)
(-0.802549 -6.44491 -2.33694e-19)
(-0.608605 -6.2163 1.51319e-19)
(-0.451058 -5.97825 2.93616e-19)
(-0.312036 -5.72931 -5.22183e-19)
(-0.191796 -5.47736 3.1521e-19)
(-0.0873915 -5.23171 7.3878e-19)
(-0.000377983 -4.99703 -6.02627e-19)
(0.00663859 -8.34644 1.17459e-18)
(-0.824567 -7.32499 -2.58719e-20)
(-0.582533 -6.94702 9.79071e-19)
(-0.305788 -6.68741 -7.66553e-19)
(-0.133535 -6.4362 2.13767e-19)
(0.00162814 -6.17199 -2.2156e-19)
(0.117762 -5.8977 -8.8696e-20)
(0.215432 -5.62411 -4.51305e-19)
(0.299316 -5.36134 4.55511e-19)
(0.369722 -5.11409 3.32713e-19)
(0.671101 -8.38931 -2.29544e-19)
(-0.240933 -7.52286 -1.63375e-19)
(-0.0323435 -7.16328 -1.07787e-19)
(0.219097 -6.88766 -3.41708e-19)
(0.366062 -6.61355 3.0796e-19)
(0.474945 -6.3242 7.7145e-20)
(0.5646 -6.02661 -1.88312e-19)
(0.636823 -5.73403 1.4388e-20)
(0.697977 -5.45702 -7.58269e-20)
(0.749013 -5.20018 3.15986e-21)
(1.05858 -4.50067 -8.21499e-21)
(0.913786 -3.50924 -2.4642e-21)
(0.910543 -2.84557 5.97355e-21)
(0.906708 -2.29055 -2.53435e-21)
(0.8731 -1.79658 -1.1535e-22)
(0.837377 -1.38477 -4.67138e-22)
(0.799782 -1.0465 1.03622e-22)
(0.765846 -0.776096 -1.4308e-22)
(0.737872 -0.56381 1.12576e-22)
(0.716325 -0.402352 8.46491e-23)
(0.701924 -0.279397 -2.22475e-22)
(0.694243 -0.189514 1.16916e-22)
(0.689308 -0.118647 -9.48288e-23)
(0.692087 -0.0621069 -2.87684e-22)
(0.686399 -0.0115901 4.78838e-23)
(0.680685 0.0483549 -1.16373e-22)
(0.669877 0.0785999 4.45477e-23)
(0.643866 0.124589 3.33008e-23)
(0.687748 0.0934401 -2.22091e-23)
(0.702383 0.0414901 -1.16416e-23)
(1.36362 -4.53359 5.7046e-20)
(1.10686 -3.53942 1.47448e-20)
(1.01657 -2.85715 -1.13247e-20)
(0.970405 -2.29683 2.70444e-21)
(0.909009 -1.79772 -3.84011e-21)
(0.852352 -1.38193 -4.02248e-22)
(0.800889 -1.04274 -1.83295e-22)
(0.757621 -0.772548 -3.14246e-22)
(0.723421 -0.561019 1.19844e-22)
(0.697792 -0.400429 3.10956e-23)
(0.680627 -0.278348 7.85405e-24)
(0.671193 -0.189048 7.41879e-22)
(0.664926 -0.118701 -1.01816e-21)
(0.667 -0.0621843 -2.83513e-22)
(0.659956 -0.0111368 2.14729e-22)
(0.65426 0.0489286 1.74181e-22)
(0.643467 0.0799373 -3.52501e-22)
(0.621488 0.123832 4.37358e-22)
(0.669087 0.0911608 5.35912e-23)
(0.681412 0.0410489 2.99247e-23)
(1.67073 -4.54577 -1.17325e-19)
(1.30714 -3.56528 4.64754e-20)
(1.12815 -2.87135 5.5344e-20)
(1.0364 -2.30545 -1.70667e-20)
(0.946954 -1.80165 5.08421e-22)
(0.86912 -1.38159 -3.36845e-21)
(0.803419 -1.04092 -1.34602e-22)
(0.750676 -0.7705 -6.25967e-22)
(0.710184 -0.559323 -1.94222e-22)
(0.680413 -0.399265 -2.79638e-22)
(0.660428 -0.277802 -1.51674e-22)
(0.649164 -0.188904 3.22402e-23)
(0.641539 -0.118977 1.09062e-21)
(0.642826 -0.0623866 -5.21437e-22)
(0.634479 -0.0108134 -5.37809e-22)
(0.628911 0.049369 5.39098e-22)
(0.618253 0.0810345 -1.24466e-22)
(0.60052 0.122773 -2.41227e-22)
(0.651048 0.0888886 -2.27164e-22)
(0.66114 0.0407144 5.86569e-23)
(1.97834 -4.53949 -3.52912e-20)
(1.51477 -3.58417 9.54567e-20)
(1.24651 -2.88413 -3.95699e-20)
(1.1057 -2.31391 -9.23161e-21)
(0.987465 -1.80713 5.94496e-21)
(0.888127 -1.38341 -4.13305e-22)
(0.807697 -1.04099 1.14838e-21)
(0.74523 -0.769947 -4.57458e-22)
(0.698325 -0.558721 8.64392e-22)
(0.664315 -0.398854 7.96048e-22)
(0.641425 -0.277748 -1.7667e-21)
(0.628238 -0.189073 2.48582e-22)
(0.619204 -0.119465 -1.50556e-22)
(0.619606 -0.0627153 8.5311e-22)
(0.610015 -0.0106329 2.60053e-22)
(0.604682 0.0496618 -3.98359e-22)
(0.594277 0.0818791 -3.27749e-22)
(0.580914 0.121441 -5.84048e-22)
(0.633611 0.0866508 3.75241e-22)
(0.64159 0.0404786 -1.22344e-22)
(2.28482 -4.5113 9.8143e-21)
(1.73036 -3.58539 8.06147e-21)
(1.37244 -2.88585 1.5651e-21)
(1.17858 -2.31699 1.94383e-20)
(1.03054 -1.81179 8.82066e-21)
(0.909544 -1.38652 6.07534e-21)
(0.81395 -1.04266 -2.50919e-21)
(0.741464 -0.770786 7.38855e-22)
(0.687979 -0.559175 5.79163e-22)
(0.649599 -0.399173 9.84871e-22)
(0.623701 -0.27817 -1.74082e-22)
(0.608478 -0.189542 -1.84424e-21)
(0.59797 -0.120155 -3.28626e-22)
(0.597382 -0.0631707 1.41901e-21)
(0.586604 -0.0106069 1.11501e-21)
(0.581604 0.0497947 -5.28475e-22)
(0.571566 0.0824642 1.31016e-21)
(0.562613 0.119867 1.86434e-22)
(0.616759 0.0844709 1.20758e-22)
(0.62279 0.0403318 -1.08722e-23)
(2.58993 -4.44996 -2.96295e-19)
(1.95382 -3.55834 -3.91981e-20)
(1.50497 -2.87283 3.4651e-20)
(1.2541 -2.31478 -5.27831e-20)
(1.07551 -1.81602 -2.32182e-20)
(0.933221 -1.39094 -1.8814e-20)
(0.822271 -1.04578 3.09405e-21)
(0.739494 -0.772898 9.09422e-22)
(0.679245 -0.560612 -1.62706e-21)
(0.636345 -0.400182 -8.87537e-22)
(0.607315 -0.279037 -6.4426e-22)
(0.589937 -0.190291 1.6871e-21)
(0.577875 -0.121031 -7.97253e-22)
(0.576185 -0.0637479 -9.40287e-22)
(0.564281 -0.0107404 -7.59275e-22)
(0.559701 0.049762 9.74065e-22)
(0.550131 0.0827914 9.07293e-23)
(0.545558 0.118087 3.63525e-22)
(0.600485 0.0823678 -2.03284e-22)
(0.604767 0.0402622 4.7066e-23)
(2.89389 -4.35751 3.0153e-19)
(2.18223 -3.52679 9.63465e-20)
(1.64236 -2.87077 -8.19346e-21)
(1.33186 -2.32497 6.96627e-20)
(1.12237 -1.82879 -2.14971e-20)
(0.959307 -1.40022 2.06037e-21)
(0.832824 -1.05159 9.53276e-21)
(0.739425 -0.776675 -1.09059e-21)