/*--------------------------------*- C++ -*----------------------------------*\
  =========                 |
  \\      /  F ield         | OpenFOAM: The Open Source CFD Toolbox
   \\    /   O peration     | Website:  https://openfoam.org
    \\  /    A nd           | Version:  6.0
     \\/     M anipulation  |
\*---------------------------------------------------------------------------*/
FoamFile
{
    version     2.0;
    format      ascii;
    class       volScalarField;
    location    "16.504";
    object      p;
}
// * * * * * * * * * * * * * * * * * * * * * * * * * * * * * * * * * * * * * //

dimensions      [0 2 -2 0 0 0 0];

internalField   nonuniform List<scalar> 
19200
(
-0.398026
-0.393008
-0.389252
-0.386119
-0.383237
-0.380588
-0.378126
-0.3758
-0.373573
-0.371418
-0.369316
-0.367251
-0.365215
-0.363202
-0.361207
-0.359229
-0.357267
-0.355322
-0.353395
-0.351486
-0.349599
-0.347734
-0.345892
-0.344075
-0.342285
-0.340526
-0.338795
-0.337039
-0.335241
-0.333992
-0.401532
-0.3964
-0.392622
-0.389468
-0.386549
-0.383845
-0.381317
-0.378912
-0.376598
-0.374347
-0.372143
-0.369973
-0.367828
-0.365704
-0.363597
-0.361507
-0.359434
-0.357379
-0.355344
-0.353331
-0.351343
-0.34938
-0.347445
-0.345539
-0.343665
-0.341828
-0.340025
-0.338193
-0.336308
-0.335062
-0.405613
-0.400277
-0.396409
-0.393196
-0.390212
-0.387434
-0.38482
-0.382321
-0.379904
-0.377543
-0.375224
-0.372935
-0.370668
-0.36842
-0.366189
-0.363976
-0.36178
-0.359605
-0.357452
-0.355325
-0.353225
-0.351156
-0.349119
-0.347117
-0.345152
-0.343231
-0.341352
-0.339438
-0.337458
-0.336228
-0.410057
-0.404573
-0.400612
-0.397319
-0.394248
-0.391374
-0.388656
-0.386045
-0.383508
-0.381022
-0.378573
-0.37615
-0.373747
-0.371362
-0.368995
-0.366645
-0.364315
-0.362007
-0.359726
-0.357473
-0.355253
-0.353067
-0.35092
-0.348814
-0.346751
-0.34474
-0.342779
-0.340777
-0.338691
-0.337491
-0.414914
-0.409295
-0.40523
-0.401837
-0.39866
-0.395672
-0.392832
-0.390091
-0.387417
-0.38479
-0.382196
-0.379625
-0.377072
-0.374537
-0.372019
-0.36952
-0.367044
-0.364592
-0.36217
-0.359781
-0.357429
-0.355118
-0.352852
-0.350632
-0.348463
-0.346356
-0.344307
-0.34221
-0.340009
-0.338852
-0.420219
-0.414455
-0.41027
-0.40676
-0.403457
-0.400337
-0.397356
-0.394469
-0.391642
-0.388858
-0.386103
-0.383368
-0.380652
-0.377952
-0.37527
-0.37261
-0.369973
-0.367366
-0.364791
-0.362255
-0.35976
-0.357313
-0.354917
-0.352575
-0.350292
-0.34808
-0.345938
-0.343738
-0.341412
-0.340313
-0.425991
-0.420065
-0.415742
-0.412097
-0.40865
-0.405378
-0.40224
-0.399188
-0.396192
-0.393234
-0.390302
-0.387389
-0.384494
-0.381615
-0.378756
-0.37592
-0.373111
-0.370334
-0.367594
-0.364898
-0.362249
-0.359655
-0.357119
-0.354645
-0.352238
-0.349914
-0.347671
-0.345361
-0.3429
-0.341873
-0.432243
-0.426135
-0.421657
-0.417858
-0.414249
-0.410806
-0.407491
-0.404257
-0.401074
-0.397926
-0.394801
-0.391695
-0.388605
-0.385534
-0.382483
-0.379457
-0.376461
-0.373501
-0.370584
-0.367715
-0.3649
-0.362147
-0.359459
-0.356842
-0.354302
-0.351858
-0.349507
-0.347078
-0.34447
-0.34353
-0.438992
-0.432678
-0.428025
-0.424053
-0.420262
-0.41663
-0.41312
-0.409685
-0.406298
-0.402943
-0.399609
-0.396294
-0.392995
-0.389714
-0.386457
-0.383227
-0.380031
-0.376875
-0.373766
-0.370711
-0.367717
-0.364792
-0.361941
-0.35917
-0.356486
-0.353911
-0.351444
-0.348888
-0.346121
-0.345282
-0.446249
-0.439706
-0.434856
-0.430692
-0.426699
-0.422858
-0.419134
-0.415481
-0.411872
-0.408292
-0.404734
-0.401192
-0.397668
-0.394165
-0.390686
-0.387238
-0.383828
-0.380461
-0.377147
-0.373892
-0.370705
-0.367595
-0.364567
-0.361629
-0.358789
-0.356074
-0.353482
-0.350788
-0.347849
-0.347126
-0.454026
-0.447228
-0.442161
-0.437785
-0.433569
-0.4295
-0.425542
-0.421651
-0.417803
-0.413982
-0.410181
-0.406399
-0.402635
-0.398893
-0.395178
-0.391497
-0.387857
-0.384266
-0.380731
-0.377263
-0.373869
-0.370559
-0.367341
-0.364223
-0.361215
-0.358347
-0.355619
-0.352775
-0.349652
-0.349059
-0.462335
-0.455257
-0.44995
-0.44534
-0.440881
-0.436563
-0.432352
-0.428206
-0.424099
-0.42002
-0.415961
-0.411921
-0.407901
-0.403906
-0.39994
-0.396012
-0.392128
-0.388297
-0.384528
-0.38083
-0.377215
-0.37369
-0.370268
-0.366955
-0.363764
-0.36073
-0.357855
-0.354849
-0.351525
-0.351077
-0.471188
-0.463801
-0.458232
-0.453366
-0.448643
-0.444056
-0.439572
-0.435151
-0.430768
-0.426413
-0.422079
-0.417766
-0.413476
-0.409212
-0.404981
-0.400791
-0.396648
-0.392563
-0.388544
-0.384603
-0.380749
-0.376995
-0.373352
-0.369828
-0.36644
-0.363226
-0.360189
-0.357006
-0.353466
-0.353175
-0.480594
-0.472872
-0.467017
-0.461873
-0.456864
-0.451986
-0.447209
-0.442494
-0.437818
-0.43317
-0.428545
-0.423943
-0.419367
-0.41482
-0.41031
-0.405843
-0.401428
-0.397073
-0.39279
-0.388589
-0.384482
-0.380481
-0.3766
-0.372849
-0.369245
-0.365835
-0.362622
-0.359246
-0.35547
-0.355349
-0.490565
-0.482478
-0.476312
-0.470868
-0.465551
-0.460361
-0.455271
-0.450243
-0.445255
-0.440298
-0.435366
-0.43046
-0.425583
-0.42074
-0.415936
-0.411179
-0.406476
-0.401839
-0.397276
-0.3928
-0.388422
-0.384158
-0.380021
-0.376024
-0.372186
-0.368561
-0.365154
-0.361564
-0.357531
-0.357591
-0.50111
-0.492627
-0.486125
-0.480358
-0.474709
-0.469186
-0.463764
-0.458404
-0.453087
-0.447804
-0.44255
-0.437326
-0.432135
-0.426981
-0.42187
-0.416809
-0.411807
-0.406872
-0.402015
-0.397247
-0.392583
-0.388037
-0.383624
-0.37936
-0.375268
-0.371406
-0.367784
-0.363959
-0.359643
-0.359891
-0.512237
-0.503327
-0.496463
-0.490348
-0.484347
-0.478469
-0.472694
-0.466984
-0.461321
-0.455695
-0.450104
-0.444548
-0.43903
-0.433553
-0.428123
-0.422747
-0.417432
-0.412186
-0.40702
-0.401946
-0.396978
-0.392131
-0.387422
-0.382869
-0.378498
-0.374375
-0.370513
-0.366426
-0.3618
-0.362239
-0.523954
-0.514583
-0.507331
-0.500845
-0.494467
-0.488213
-0.482066
-0.475988
-0.469962
-0.46398
-0.458038
-0.452137
-0.446279
-0.440468
-0.434708
-0.429005
-0.423365
-0.417796
-0.412308
-0.406912
-0.401622
-0.396455
-0.391428
-0.386561
-0.381884
-0.377472
-0.373341
-0.368961
-0.36399
-0.364619
-0.536266
-0.526402
-0.518733
-0.511853
-0.505075
-0.498424
-0.491885
-0.485421
-0.479017
-0.472663
-0.466357
-0.4601
-0.453892
-0.447736
-0.441637
-0.435597
-0.429622
-0.423719
-0.417896
-0.412164
-0.406535
-0.401027
-0.395659
-0.39045
-0.385436
-0.380701
-0.376265
-0.371553
-0.366196
-0.367006
-0.549178
-0.538785
-0.530673
-0.523372
-0.516172
-0.509104
-0.502154
-0.495288
-0.48849
-0.481751
-0.47507
-0.468445
-0.461878
-0.455369
-0.448921
-0.442537
-0.436219
-0.429973
-0.423804
-0.417722
-0.411738
-0.405868
-0.400133
-0.394553
-0.389166
-0.384067
-0.379282
-0.374189
-0.368394
-0.369363
-0.56269
-0.551734
-0.54315
-0.535405
-0.527761
-0.520254
-0.512875
-0.505591
-0.498385
-0.49125
-0.484182
-0.477181
-0.470247
-0.463378
-0.456576
-0.449841
-0.443174
-0.436577
-0.430053
-0.42361
-0.417255
-0.411004
-0.404875
-0.39889
-0.393089
-0.387577
-0.382388
-0.376852
-0.370549
-0.37164
-0.576803
-0.565247
-0.556163
-0.54795
-0.539838
-0.531874
-0.524049
-0.516332
-0.508705
-0.501162
-0.493699
-0.486315
-0.479007
-0.471773
-0.464613
-0.457524
-0.450505
-0.443553
-0.436669
-0.429855
-0.423117
-0.416465
-0.409915
-0.403488
-0.397226
-0.391242
-0.385578
-0.379517
-0.372616
-0.373766
-0.591513
-0.57932
-0.569708
-0.561002
-0.552403
-0.543961
-0.535675
-0.527511
-0.519452
-0.511491
-0.503626
-0.495851
-0.488166
-0.480566
-0.473046
-0.465604
-0.458231
-0.450925
-0.443679
-0.436491
-0.42936
-0.422291
-0.415295
-0.408387
-0.401608
-0.395079
-0.388851
-0.382156
-0.374528
-0.375637
-0.606816
-0.593948
-0.583778
-0.574556
-0.565447
-0.556512
-0.547749
-0.539125
-0.530623
-0.522238
-0.513964
-0.505796
-0.497731
-0.489764
-0.481888
-0.474094
-0.466375
-0.458719
-0.451116
-0.443556
-0.43603
-0.428534
-0.42107
-0.413643
-0.406288
-0.399129
-0.392219
-0.384741
-0.376203
-0.377108
-0.622704
-0.60912
-0.598362
-0.588601
-0.578964
-0.569518
-0.560264
-0.55117
-0.542218
-0.533401
-0.524714
-0.516151
-0.507708
-0.499377
-0.491149
-0.483013
-0.474956
-0.466963
-0.459016
-0.451096
-0.443185
-0.435265
-0.427323
-0.419347
-0.411355
-0.403465
-0.395727
-0.387256
-0.377526
-0.377954
-0.63917
-0.624822
-0.613446
-0.603123
-0.592939
-0.582968
-0.573213
-0.563639
-0.55423
-0.544977
-0.535874
-0.526917
-0.518098
-0.509409
-0.500838
-0.492373
-0.483996
-0.475686
-0.46742
-0.459168
-0.450899
-0.442578
-0.43417
-0.425636
-0.416962
-0.408238
-0.399489
-0.389734
-0.378376
-0.377874
-0.656207
-0.641034
-0.629007
-0.618104
-0.607358
-0.59685
-0.586584
-0.576523
-0.566651
-0.556959
-0.54744
-0.53809
-0.5289
-0.519861
-0.510961
-0.502184
-0.493511
-0.484916
-0.476369
-0.467832
-0.45926
-0.450598
-0.441781
-0.432732
-0.423385
-0.413774
-0.403865
-0.392513
-0.37892
-0.376718
-0.673845
-0.657736
-0.645018
-0.633518
-0.622199
-0.611145
-0.600361
-0.589809
-0.57947
-0.569337
-0.559403
-0.549663
-0.540108
-0.53073
-0.521516
-0.512449
-0.503511
-0.494672
-0.4859
-0.477149
-0.468362
-0.459466
-0.450365
-0.440929
-0.431019
-0.42058
-0.409474
-0.396231
-0.37934
-0.373614
-0.692135
-0.674897
-0.661433
-0.649328
-0.637434
-0.625833
-0.614528
-0.603481
-0.592674
-0.582099
-0.571751
-0.561624
-0.551711
-0.542005
-0.532494
-0.523163
-0.513993
-0.504961
-0.496032
-0.487161
-0.478288
-0.469324
-0.460145
-0.450559
-0.44031
-0.429166
-0.41669
-0.400495
-0.377006
-0.362637
-0.710608
-0.692324
-0.678184
-0.665501
-0.653042
-0.640894
-0.629065
-0.617521
-0.606243
-0.595226
-0.584464
-0.573953
-0.563689
-0.553664
-0.54387
-0.534297
-0.524932
-0.515757
-0.506749
-0.497877
-0.489096
-0.480339
-0.471495
-0.462377
-0.452687
-0.442034
-0.429491
-0.411342
-0.381223
-0.355267
-1.18416
-1.18128
-1.1765
-1.17025
-1.16257
-1.15351
-1.14314
-1.13154
-1.11879
-1.10498
-1.09019
-1.07451
-1.05802
-1.0408
-1.02294
-1.00453
-0.985635
-0.966342
-0.946722
-0.926848
-0.906789
-0.88661
-0.866373
-0.846136
-0.825952
-0.805871
-0.785933
-0.766149
-0.746506
-0.727432
-1.14968
-1.14684
-1.14225
-1.13616
-1.12866
-1.1198
-1.10968
-1.09837
-1.08597
-1.07255
-1.05819
-1.04299
-1.02702
-1.01036
-0.993104
-0.97532
-0.957088
-0.938483
-0.919578
-0.900442
-0.88114
-0.861738
-0.842295
-0.822869
-0.803513
-0.78428
-0.765222
-0.746385
-0.72782
-0.70971
-1.12129
-1.11848
-1.11404
-1.10812
-1.10081
-1.09219
-1.08233
-1.07132
-1.05925
-1.0462
-1.03224
-1.01746
-1.00195
-0.985779
-0.96903
-0.951781
-0.934106
-0.916078
-0.897768
-0.879244
-0.860571
-0.84181
-0.823022
-0.804261
-0.785583
-0.767039
-0.74868
-0.730558
-0.712733
-0.695278
-1.09455
-1.09186
-1.08761
-1.08192
-1.07486
-1.06652
-1.05697
-1.0463
-1.03459
-1.02192
-1.00838
-0.994032
-0.978972
-0.963276
-0.947022
-0.930284
-0.913137
-0.895653
-0.877901
-0.859948
-0.841856
-0.823688
-0.805502
-0.787352
-0.769291
-0.75137
-0.733637
-0.716141
-0.698933
-0.682061
-1.06745
-1.06497
-1.06098
-1.05558
-1.04885
-1.04085
-1.03167
-1.02139
-1.01009
-0.997847
-0.984746
-0.970866
-0.956287
-0.941086
-0.925341
-0.909126
-0.892515
-0.875579
-0.858384
-0.840998
-0.823482
-0.805898
-0.788302
-0.770748
-0.753287
-0.73597
-0.718842
-0.701948
-0.685333
-0.669033
-1.04025
-1.03807
-1.03441
-1.02938
-1.02303
-1.01544
-1.00668
-0.996838
-0.985989
-0.974213
-0.961591
-0.948202
-0.934124
-0.919436
-0.904213
-0.888528
-0.872455
-0.856064
-0.839421
-0.822593
-0.80564
-0.788623
-0.771597
-0.754617
-0.737733
-0.720993
-0.704441
-0.68812
-0.67207
-0.656325
-1.01305
-1.01125
-1.008
-1.00339
-0.997486
-0.990351
-0.982065
-0.972705
-0.962349
-0.951076
-0.938964
-0.926091
-0.912537
-0.898376
-0.883685
-0.868538
-0.853005
-0.837156
-0.821058
-0.804777
-0.788372
-0.771904
-0.755429
-0.738998
-0.722664
-0.706471
-0.690466
-0.674687
-0.659174
-0.643959
-0.985881
-0.984521
-0.981733
-0.977602
-0.972187
-0.965557
-0.957786
-0.94895
-0.939124
-0.928386
-0.916813
-0.904482
-0.891471
-0.877855
-0.863709
-0.849106
-0.834116
-0.818809
-0.803251
-0.787508
-0.771639
-0.755704
-0.739758
-0.723855
-0.708045
-0.692374
-0.676885
-0.66162
-0.646615
-0.631905
-0.958785
-0.95791
-0.955629
-0.952019
-0.947138
-0.941053
-0.933836
-0.925559
-0.916296
-0.906122
-0.895114
-0.883349
-0.870901
-0.857845
-0.844256
-0.830205
-0.815763
-0.800998
-0.785978
-0.770764
-0.75542
-0.740003
-0.72457
-0.709173
-0.693863
-0.678686
-0.663687
-0.648907
-0.634381
-0.620146
-0.931833
-0.931477
-0.929735
-0.92668
-0.922366
-0.916857
-0.910223
-0.902533
-0.89386
-0.884276
-0.873857
-0.862677
-0.85081
-0.83833
-0.825309
-0.81182
-0.79793
-0.78371
-0.769224
-0.754535
-0.739706
-0.724794
-0.709856
-0.694945
-0.680112
-0.665405
-0.650868
-0.636543
-0.622468
-0.608679
-0.905099
-0.905284
-0.904103
-0.901624
-0.897899
-0.892989
-0.88696
-0.87988
-0.871817
-0.862844
-0.853033
-0.842456
-0.831186
-0.819295
-0.806854
-0.793934
-0.780604
-0.76693
-0.752978
-0.73881
-0.724488
-0.71007
-0.695612
-0.681169
-0.666791
-0.652528
-0.638426
-0.624527
-0.610872
-0.597499
-0.878658
-0.879393
-0.878784
-0.876893
-0.873769
-0.869472
-0.864064
-0.857608
-0.850173
-0.841826
-0.832637
-0.822677
-0.812017
-0.800727
-0.788877
-0.776535
-0.76377
-0.750646
-0.737228
-0.723579
-0.709758
-0.695824
-0.681834
-0.667841
-0.653898
-0.640055
-0.62636
-0.612858
-0.599592
-0.586603
-0.85258
-0.853864
-0.853828
-0.852529
-0.850012
-0.846334
-0.841553
-0.835732
-0.828932
-0.821221
-0.812666
-0.803334
-0.793295
-0.782616
-0.771365
-0.759609
-0.747415
-0.734846
-0.721965
-0.708833
-0.69551
-0.682053
-0.668519
-0.654961
-0.641433
-0.627986
-0.614671
-0.601536
-0.588626
-0.575987
-0.826931
-0.828756
-0.829286
-0.828572
-0.82666
-0.8236
-0.819448
-0.814262
-0.808102
-0.801032
-0.793117
-0.78442
-0.775009
-0.764949
-0.754305
-0.743143
-0.731526
-0.719517
-0.707177
-0.694564
-0.681737
-0.668752
-0.655665
-0.642529
-0.629399
-0.616326
-0.603363
-0.590562
-0.577972
-0.565648
-0.801771
-0.80412
-0.805202
-0.805063
-0.803744
-0.801294
-0.797766
-0.793212
-0.787691
-0.781263
-0.773989
-0.765931
-0.757152
-0.747717
-0.737687
-0.727125
-0.716092
-0.704649
-0.692854
-0.680763
-0.668433
-0.655919
-0.643273
-0.630548
-0.617798
-0.605077
-0.592438
-0.579938
-0.567632
-0.555581
-0.777151
-0.780002
-0.781616
-0.782034
-0.781294
-0.779442
-0.776525
-0.772595
-0.767706
-0.761915
-0.755281
-0.747861
-0.739717
-0.730909
-0.721497
-0.711541
-0.701099
-0.690229
-0.678985
-0.667422
-0.655593
-0.64355
-0.631342
-0.619021
-0.606639
-0.594247
-0.581904
-0.569669
-0.557604
-0.54578
-0.753117
-0.756444
-0.758565
-0.759517
-0.759336
-0.758062
-0.755741
-0.752422
-0.748155
-0.742992
-0.736991
-0.730206
-0.722696
-0.714516
-0.705726
-0.69638
-0.686535
-0.676244
-0.66556
-0.654532
-0.643211
-0.631643
-0.619875
-0.607954
-0.595928
-0.583848
-0.571772
-0.559763
-0.547892
-0.536242
-0.729704
-0.733478
-0.736078
-0.737538
-0.73789
-0.737173
-0.735429
-0.732703
-0.729042
-0.724496
-0.719118
-0.712961
-0.70608
-0.698527
-0.690359
-0.681627
-0.672384
-0.662681
-0.652566
-0.642084
-0.631281
-0.620197
-0.608874
-0.597354
-0.585678
-0.573894
-0.562057
-0.550234
-0.538502
-0.526962
-0.706941
-0.71113
-0.714179
-0.716118
-0.716977
-0.716791
-0.7156
-0.713446
-0.710373
-0.706428
-0.701661
-0.696122
-0.689862
-0.682932
-0.675384
-0.667269
-0.658634
-0.649526
-0.63999
-0.630067
-0.619794
-0.609209
-0.598343
-0.587231
-0.575905
-0.564407
-0.552783
-0.541101
-0.529446
-0.517934
-0.684851
-0.689421
-0.692886
-0.695273
-0.696609
-0.696927
-0.696264
-0.694657
-0.692151
-0.688788
-0.684615
-0.679681
-0.674032
-0.667719
-0.660789
-0.65329
-0.645267
-0.636763
-0.627818
-0.618467
-0.608744
-0.598675
-0.588285
-0.577596
-0.56663
-0.555413
-0.543982
-0.532394
-0.520742
-0.509158
-0.663447
-0.668365
-0.672214
-0.675016
-0.676798
-0.67759
-0.677426
-0.676342
-0.674378
-0.671575
-0.667979
-0.663632
-0.658583
-0.652877
-0.64656
-0.639676
-0.632268
-0.624375
-0.616032
-0.607271
-0.598117
-0.58859
-0.578702
-0.568463
-0.557876
-0.546948
-0.535695
-0.524158
-0.512422
-0.500636
-0.642739
-0.647972
-0.652171
-0.655356
-0.657552
-0.658787
-0.659092
-0.658502
-0.657054
-0.654788
-0.651746
-0.64797
-0.643504
-0.638394
-0.632681
-0.626409
-0.619617
-0.612341
-0.604614
-0.596461
-0.587901
-0.578945
-0.569595
-0.559841
-0.549669
-0.539054
-0.527981
-0.516453
-0.50454
-0.492378
-0.62273
-0.628245
-0.632761
-0.636296
-0.638874
-0.64052
-0.641264
-0.641139
-0.64018
-0.638424
-0.635913
-0.632686
-0.628786
-0.624256
-0.619138
-0.613471
-0.607295
-0.600641
-0.59354
-0.586014
-0.578075
-0.569727
-0.560958
-0.551742
-0.542037
-0.531783
-0.520912
-0.509369
-0.497175
-0.484412
-0.603418
-0.609184
-0.613985
-0.617838
-0.620765
-0.622791
-0.623943
-0.624252
-0.623753
-0.622481
-0.620474
-0.617774
-0.61442
-0.610454
-0.605917
-0.600847
-0.595282
-0.589254
-0.58279
-0.575909
-0.56862
-0.560919
-0.552785
-0.544173
-0.535012
-0.525196
-0.514588
-0.503034
-0.490462
-0.476797
-0.5848
-0.590786
-0.59584
-0.59998
-0.603225
-0.605598
-0.607127
-0.60784
-0.60777
-0.606953
-0.605425
-0.603226
-0.600395
-0.596974
-0.593002
-0.588518
-0.583559
-0.578156
-0.572336
-0.566118
-0.559508
-0.552499
-0.54506
-0.537134
-0.528619
-0.519361
-0.509131
-0.497629
-0.484624
-0.469676
-0.566865
-0.57304
-0.578317
-0.582711
-0.586241
-0.588929
-0.590801
-0.591885
-0.592213
-0.591819
-0.590739
-0.589012
-0.586678
-0.583778
-0.58035
-0.576435
-0.572069
-0.567285
-0.562112
-0.556568
-0.550663
-0.544386
-0.537708
-0.530559
-0.522819
-0.514287
-0.504627
-0.49334
-0.479966
-0.463362
-0.549604
-0.55594
-0.56141
-0.566027
-0.569809
-0.572779
-0.57496
-0.57638
-0.57707
-0.577065
-0.576399
-0.575111
-0.573242
-0.57083
-0.567918
-0.564546
-0.560751
-0.55657
-0.552033
-0.547163
-0.541972
-0.536458
-0.530593
-0.524313
-0.51749
-0.509892
-0.50108
-0.490309
-0.476834
-0.458244
-0.533009
-0.539501
-0.545155
-0.549987
-0.554012
-0.557251
-0.559729
-0.561473
-0.562513
-0.562882
-0.562617
-0.561755
-0.560337
-0.558403
-0.555997
-0.553159
-0.549931
-0.546351
-0.542454
-0.538268
-0.533812
-0.529094
-0.5241
-0.518783
-0.513035
-0.50663
-0.49907
-0.489354
-0.476294
-0.454715
-0.517048
-0.523713
-0.529571
-0.534635
-0.538922
-0.542454
-0.545253
-0.547348
-0.548768
-0.549547
-0.549722
-0.549331
-0.548416
-0.547019
-0.545185
-0.542957
-0.540379
-0.537493
-0.534339
-0.530951
-0.527357
-0.523578
-0.519621
-0.51547
-0.51107
-0.506284
-0.500704
-0.493252
-0.482201
-0.456195
-0.501632
-0.508251
-0.514097
-0.519182
-0.523523
-0.527143
-0.530063
-0.532313
-0.533922
-0.534926
-0.535362
-0.535272
-0.534698
-0.533686
-0.532285
-0.530542
-0.528509
-0.526235
-0.523768
-0.521154
-0.518439
-0.515664
-0.512868
-0.510088
-0.507359
-0.504742
-0.502143
-0.498959
-0.495224
-0.475712
-0.407481
-0.455247
-0.501724
-0.547524
-0.592461
-0.636369
-0.679131
-0.720639
-0.76079
-0.799486
-0.836638
-0.872164
-0.905988
-0.938042
-0.968264
-0.996602
-1.02301
-1.04745
-1.06988
-1.0903
-1.10867
-1.125
-1.13929
-1.15154
-1.16177
-1.17
-1.17626
-1.18056
-1.1829
-1.18367
-0.399603
-0.44621
-0.491743
-0.536443
-0.580194
-0.62288
-0.664406
-0.704679
-0.743603
-0.78109
-0.817055
-0.85142
-0.884113
-0.915071
-0.944234
-0.971552
-0.996983
-1.02049
-1.04205
-1.06163
-1.07924
-1.09485
-1.10848
-1.12014
-1.12984
-1.13761
-1.14349
-1.14752
-1.14973
-1.1503
-0.388681
-0.434281
-0.478959
-0.522779
-0.565639
-0.607436
-0.648083
-0.687487
-0.725561
-0.762217
-0.797376
-0.83096
-0.862902
-0.893139
-0.921614
-0.948279
-0.973092
-0.996019
-1.01703
-1.03612
-1.05326
-1.06846
-1.08172
-1.09305
-1.10247
-1.11001
-1.11571
-1.11961
-1.12174
-1.12222
-0.374377
-0.419064
-0.462922
-0.505947
-0.548033
-0.589081
-0.629001
-0.667703
-0.705101
-0.741109
-0.77565
-0.808649
-0.840037
-0.869754
-0.897745
-0.92396
-0.94836
-0.970911
-0.991587
-1.01037
-1.02725
-1.04222
-1.05529
-1.06647
-1.07578
-1.08325
-1.08891
-1.0928
-1.09495
-1.09547
-0.357131
-0.400918
-0.44395
-0.486188
-0.527521
-0.567851
-0.607086
-0.645138
-0.681921
-0.717352
-0.751352
-0.783849
-0.814775
-0.844069
-0.871676
-0.897549
-0.921646
-0.943934
-0.964387
-0.982986
-0.99972
-1.01459
-1.02759
-1.03873
-1.04805
-1.05555
-1.06128
-1.06527
-1.06756
-1.06821
-0.337678
-0.380574
-0.422778
-0.46423
-0.50482
-0.544449
-0.583026
-0.620464
-0.656675
-0.691577
-0.725095
-0.757153
-0.787687
-0.816634
-0.843939
-0.869555
-0.893439
-0.915558
-0.935884
-0.954399
-0.971089
-0.98595
-0.998984
-1.0102
-1.01962
-1.02726
-1.03316
-1.03735
-1.03986
-1.04076
-0.31671
-0.35871
-0.400075
-0.440734
-0.480579
-0.519512
-0.557442
-0.59428
-0.629942
-0.664346
-0.697415
-0.729077
-0.759263
-0.787914
-0.814973
-0.840392
-0.864128
-0.886146
-0.906418
-0.924923
-0.941646
-0.956582
-0.969731
-0.9811
-0.990705
-0.998568
-1.00472
-1.00918
-1.012
-1.01323
-0.294837
-0.335927
-0.376436
-0.416286
-0.455373
-0.493601
-0.530878
-0.567118
-0.602235
-0.636149
-0.668783
-0.700065
-0.729927
-0.758308
-0.785152
-0.810409
-0.834035
-0.855995
-0.876259
-0.894803
-0.911612
-0.926677
-0.939997
-0.951578
-0.961431
-0.969575
-0.976037
-0.980847
-0.984034
-0.985654
-0.272582
-0.312744
-0.352378
-0.3914
-0.429711
-0.467217
-0.503828
-0.539458
-0.574022
-0.607442
-0.639639
-0.670542
-0.700085
-0.728204
-0.754844
-0.779954
-0.803489
-0.825412
-0.845691
-0.864302
-0.881227
-0.896455
-0.909982
-0.921812
-0.931953
-0.940422
-0.947242
-0.95244
-0.956045
-0.958106
-0.250375
-0.289592
-0.328331
-0.366506
-0.404023
-0.440788
-0.476715
-0.511719
-0.545716
-0.578627
-0.610376
-0.640892
-0.670107
-0.69796
-0.724392
-0.749354
-0.772799
-0.794689
-0.814991
-0.833678
-0.850731
-0.866137
-0.879889
-0.891988
-0.90244
-0.911259
-0.918464
-0.92408
-0.928133
-0.930668
-0.22855
-0.26681
-0.304639
-0.341951
-0.378655
-0.414663
-0.449888
-0.484247
-0.517658
-0.550044
-0.581328
-0.61144
-0.640312
-0.667883
-0.694096
-0.718897
-0.742243
-0.764091
-0.784409
-0.803168
-0.820347
-0.835931
-0.84991
-0.862283
-0.873053
-0.882231
-0.889834
-0.895883
-0.900401
-0.903428
-0.207365
-0.24466
-0.281568
-0.318004
-0.353882
-0.389116
-0.423623
-0.45732
-0.490128
-0.521969
-0.552769
-0.582457
-0.610967
-0.638236
-0.664208
-0.688831
-0.712058
-0.733847
-0.754165
-0.772981
-0.790272
-0.806022
-0.820219
-0.832858
-0.843942
-0.853476
-0.861475
-0.867958
-0.872945
-0.876472
-0.187003
-0.22333
-0.259311
-0.294864
-0.329907
-0.364356
-0.398132
-0.431154
-0.463342
-0.494621
-0.524917
-0.554161
-0.582286
-0.609231
-0.63494
-0.659359
-0.682443
-0.70415
-0.724444
-0.743294
-0.760677
-0.776573
-0.790969
-0.803858
-0.815239
-0.825117
-0.833502
-0.84041
-0.845859
-0.84988
-0.167588
-0.20295
-0.238004
-0.272672
-0.306875
-0.340534
-0.37357
-0.405905
-0.437461
-0.468162
-0.497937
-0.526717
-0.554436
-0.581034
-0.606455
-0.630646
-0.653561
-0.675158
-0.695401
-0.714259
-0.731705
-0.747721
-0.762291
-0.775406
-0.787062
-0.797262
-0.806013
-0.81333
-0.819225
-0.823727
-0.149198
-0.183601
-0.217733
-0.251518
-0.284882
-0.31775
-0.350043
-0.381685
-0.412599
-0.442711
-0.47195
-0.500249
-0.527543
-0.553772
-0.57888
-0.602817
-0.625536
-0.646995
-0.667158
-0.685993
-0.703474
-0.71958
-0.734294
-0.747606
-0.759509
-0.770005
-0.779097
-0.786797
-0.793118
-0.798081
-0.131869
-0.165325
-0.198543
-0.231453
-0.263984
-0.296064
-0.327615
-0.358562
-0.38883
-0.418345
-0.447038
-0.474841
-0.501693
-0.527533
-0.552307
-0.575965
-0.598461
-0.619755
-0.639808
-0.658591
-0.676075
-0.692239
-0.707066
-0.720542
-0.732662
-0.743422
-0.752826
-0.760882
-0.7676
-0.772998
-0.115611
-0.148133
-0.180449
-0.212495
-0.244204
-0.275503
-0.306318
-0.336574
-0.366195
-0.395109
-0.423248
-0.450546
-0.476941
-0.502375
-0.526796
-0.550153
-0.572403
-0.593503
-0.61342
-0.63212
-0.649576
-0.665766
-0.680673
-0.694281
-0.706584
-0.717576
-0.727259
-0.735638
-0.742723
-0.748527
-0.100409
-0.132011
-0.163441
-0.194638
-0.225538
-0.256071
-0.28616
-0.315731
-0.344709
-0.373023
-0.400604
-0.427389
-0.453317
-0.478332
-0.502382
-0.525419
-0.5474
-0.568284
-0.588036
-0.606626
-0.624024
-0.64021
-0.655164
-0.668872
-0.681323
-0.692514
-0.702442
-0.711112
-0.71853
-0.724708
-0.0862343
-0.116931
-0.14749
-0.177856
-0.207966
-0.237748
-0.267126
-0.296023
-0.324365
-0.352082
-0.379106
-0.405374
-0.430828
-0.455414
-0.47908
-0.501781
-0.523473
-0.544119
-0.563684
-0.582137
-0.59945
-0.615602
-0.630572
-0.644347
-0.656914
-0.668269
-0.678409
-0.687335
-0.695052
-0.701572
-0.0730449
-0.102848
-0.132555
-0.162111
-0.191452
-0.220504
-0.249188
-0.277425
-0.305143
-0.332269
-0.358738
-0.384489
-0.409465
-0.433614
-0.456886
-0.479237
-0.500626
-0.521016
-0.540372
-0.558664
-0.575867
-0.591957
-0.606915
-0.620726
-0.633379
-0.644865
-0.655182
-0.664331
-0.672314
-0.67914
-0.0607916
-0.0897102
-0.118583
-0.147353
-0.17595
-0.204295
-0.232306
-0.259901
-0.287007
-0.313552
-0.339472
-0.364708
-0.389206
-0.412913
-0.435784
-0.457776
-0.478848
-0.498966
-0.518095
-0.536208
-0.553277
-0.569281
-0.5842
-0.598019
-0.610727
-0.622314
-0.632776
-0.642114
-0.65033
-0.657429
-0.0494189
-0.0774553
-0.105516
-0.133526
-0.161407
-0.189073
-0.216434
-0.243407
-0.269916
-0.295892
-0.321271
-0.345997
-0.370017
-0.393282
-0.415747
-0.437372
-0.458119
-0.477952
-0.49684
-0.514755
-0.531671
-0.547567
-0.562423
-0.576225
-0.588959
-0.600618
-0.611196
-0.620692
-0.629107
-0.636446
-0.0388659
-0.066014
-0.093286
-0.120568
-0.147766
-0.174784
-0.201522
-0.227894
-0.253823
-0.279243
-0.304091
-0.328314
-0.35186
-0.374683
-0.396741
-0.417995
-0.438408
-0.457948
-0.476582
-0.494285
-0.511032
-0.526801
-0.541573
-0.555334
-0.568071
-0.579774
-0.590439
-0.600063
-0.608647
-0.616194
-0.0290637
-0.0553038
-0.0818185
-0.108409
-0.134963
-0.161366
-0.187509
-0.213304
-0.238673
-0.263551
-0.28788
-0.311608
-0.334686
-0.357072
-0.378723
-0.399605
-0.41968
-0.438919
-0.457292
-0.474771
-0.491334
-0.50696
-0.52163
-0.53533
-0.548046
-0.559771
-0.570496
-0.580221
-0.588945
-0.596671
-0.0199269
-0.0452349
-0.0710393
-0.0969866
-0.12294
-0.148767
-0.174347
-0.199589
-0.224418
-0.248771
-0.272593
-0.295836
-0.318454
-0.340406
-0.361654
-0.382163
-0.401899
-0.420833
-0.438936
-0.456184
-0.472552
-0.488021
-0.502573
-0.516194
-0.52887
-0.540593
-0.551356
-0.561156
-0.569993
-0.577869
-0.0113456
-0.0357469
-0.0609288
-0.086292
-0.111696
-0.136988
-0.162035
-0.186746
-0.211052
-0.234895
-0.258222
-0.280988
-0.303152
-0.324675
-0.345522
-0.365658
-0.385053
-0.403678
-0.421505
-0.438511
-0.454673
-0.469972
-0.484391
-0.497914
-0.510531
-0.522231
-0.533008
-0.542859
-0.551782
-0.559779
-0.00316499
-0.0267366
-0.0514396
-0.0762902
-0.101196
-0.125991
-0.150531
-0.174732
-0.198529
-0.221872
-0.244713
-0.267011
-0.288728
-0.309827
-0.330275
-0.35004
-0.369093
-0.387406
-0.404953
-0.421711
-0.43766
-0.452778
-0.467051
-0.480464
-0.493005
-0.504664
-0.515434
-0.525313
-0.534298
-0.542392
0.00506527
-0.0174466
-0.0418432
-0.0662991
-0.0907905
-0.115148
-0.139227
-0.162954
-0.186279
-0.209155
-0.231543
-0.253404
-0.274704
-0.295409
-0.315487
-0.334909
-0.353646
-0.371671
-0.388961
-0.405493
-0.421246
-0.436201
-0.450343
-0.463657
-0.476131
-0.487756
-0.498526
-0.508436
-0.517484
-0.525672
0.0146089
-0.00652222
-0.0309689
-0.0553153
-0.0796076
-0.103676
-0.127409
-0.150765
-0.173708
-0.196203
-0.218217
-0.239716
-0.260669
-0.281044
-0.300813
-0.319947
-0.33842
-0.356207
-0.373283
-0.389629
-0.405224
-0.42005
-0.434092
-0.447335
-0.45977
-0.471385
-0.482176
-0.492137
-0.501268
-0.509569
0.0243255
0.000997889
-0.024534
-0.0490003
-0.0732278
-0.0970659
-0.120445
-0.14339
-0.165891
-0.187924
-0.209462
-0.230479
-0.250949
-0.270844
-0.290138
-0.308808
-0.326829
-0.344179
-0.360837
-0.376785
-0.392004
-0.406479
-0.420196
-0.433142
-0.445308
-0.456686
-0.467269
-0.477054
-0.486042
-0.494232
0.535574
0.542598
0.549785
0.557102
0.564548
0.572119
0.579807
0.5876
0.595485
0.603446
0.611466
0.619523
0.627594
0.635653
0.643673
0.651626
0.659487
0.667232
0.674847
0.682329
0.689693
0.696984
0.704282
0.711719
0.719499
0.727919
0.73729
0.747883
0.761506
0.781267
0.528432
0.535195
0.542222
0.549361
0.556607
0.563967
0.571433
0.578992
0.586629
0.594328
0.602069
0.609829
0.617585
0.625309
0.632971
0.640544
0.647999
0.655312
0.662468
0.669463
0.676314
0.683067
0.689806
0.696671
0.703875
0.711728
0.720561
0.730675
0.743932
0.76358
0.520436
0.526889
0.533733
0.540667
0.547683
0.5548
0.562011
0.569302
0.576655
0.584053
0.591476
0.5989
0.606298
0.613641
0.6209
0.628044
0.635043
0.641873
0.648518
0.654973
0.661258
0.667421
0.673551
0.679795
0.686377
0.693625
0.701891
0.711511
0.724417
0.743962
0.511595
0.517689
0.524324
0.531028
0.537784
0.544627
0.551552
0.55854
0.565574
0.572635
0.579701
0.586747
0.593745
0.600664
0.607474
0.614141
0.620636
0.626933
0.633016
0.638881
0.644549
0.650071
0.655542
0.661118
0.667034
0.673635
0.681298
0.690387
0.702875
0.722161
0.501917
0.507606
0.514008
0.520455
0.526922
0.533461
0.540066
0.546718
0.553398
0.560085
0.566756
0.573384
0.57994
0.586393
0.592708
0.598852
0.604795
0.61051
0.615981
0.621205
0.626205
0.631036
0.6358
0.640661
0.645868
0.651781
0.6588
0.66732
0.679335
0.698256
0.491414
0.496651
0.502797
0.508963
0.515112
0.521315
0.527569
0.533853
0.540144
0.546421
0.552659
0.55883
0.564904
0.570846
0.576622
0.582199
0.587542
0.592627
0.597437
0.60197
0.606253
0.610345
0.614355
0.618456
0.622909
0.628093
0.63443
0.64234
0.653836
0.672318
0.480098
0.484838
0.490706
0.496565
0.502367
0.508205
0.514078
0.51996
0.525829
0.531661
0.537429
0.543105
0.548656
0.554046
0.559241
0.564204
0.568903
0.573311
0.577412
0.581207
0.584726
0.588031
0.591241
0.594537
0.598195
0.60261
0.608225
0.61549
0.626422
0.6444
0.467983
0.472184
0.477751
0.483278
0.488706
0.49415
0.499611
0.505061
0.510474
0.515826
0.521089
0.526232
0.531221
0.536019
0.540591
0.544898
0.548907
0.552593
0.555939
0.55895
0.561658
0.564132
0.566497
0.568946
0.571768
0.575376
0.580233
0.586815
0.597142
0.61456
0.455084
0.458706
0.46395
0.469122
0.474148
0.479169
0.484189
0.489176
0.494101
0.49894
0.503663
0.508237
0.512626
0.516794
0.520701
0.52431
0.527587
0.530507
0.533055
0.535237
0.53709
0.538689
0.540167
0.541729
0.543678
0.546441
0.550505
0.556371
0.566054
0.582857
0.441417
0.444421
0.449323
0.454116
0.458714
0.463285
0.467835
0.472329
0.476736
0.481029
0.485178
0.489148
0.492902
0.4964
0.499604
0.502476
0.50498
0.507092
0.508799
0.510111
0.511067
0.511751
0.512302
0.512939
0.513977
0.515862
0.5191
0.524218
0.533222
0.549358
0.426998
0.429349
0.433889
0.438282