/*--------------------------------*- C++ -*----------------------------------*\
  =========                 |
  \\      /  F ield         | OpenFOAM: The Open Source CFD Toolbox
   \\    /   O peration     | Website:  https://openfoam.org
    \\  /    A nd           | Version:  6.0
     \\/     M anipulation  |
\*---------------------------------------------------------------------------*/
FoamFile
{
    version     2.0;
    format      ascii;
    class       surfaceScalarField;
    location    "16.504";
    object      phi;
}
// * * * * * * * * * * * * * * * * * * * * * * * * * * * * * * * * * * * * * //

dimensions      [0 3 -1 0 0 0 0];

internalField   nonuniform List<scalar> 
38030
(
-8.56248e-06
-0.00798248
0.00799104
-2.74517e-05
-0.00734345
0.00736234
-5.45377e-05
-0.00675721
0.0067843
-8.78414e-05
-0.0062208
0.0062541
-0.000125538
-0.00573085
0.00576855
-0.000166077
-0.00528389
0.00532443
-0.000208169
-0.00487651
0.0049186
-0.00025075
-0.00450539
0.00454797
-0.000292958
-0.00416741
0.00420961
-0.000334102
-0.00385959
0.00390074
-0.000373641
-0.0035792
0.00361874
-0.000411166
-0.00332366
0.00336119
-0.000446381
-0.00309063
0.00312584
-0.000479088
-0.00287793
0.00291064
-0.000509181
-0.00268359
0.00271368
-0.000536625
-0.0025058
0.00253324
-0.000561455
-0.00234291
0.00236774
-0.000583762
-0.00219345
0.00221575
-0.000603691
-0.00205606
0.00207599
-0.000621426
-0.00192954
0.00194727
-0.000637189
-0.0018128
0.00182856
-0.000651232
-0.00170487
0.00171891
-0.00066383
-0.00160488
0.00161748
-0.000675275
-0.0015121
0.00152354
-0.000685868
-0.00142583
0.00143642
-0.000695918
-0.00134549
0.00135554
-0.000705729
-0.00127055
0.00128036
-0.000715597
-0.00120055
0.00121042
-0.000725815
-0.00113509
0.0011453
-0.00107374
0.0010846
-0.000736674
-7.56923e-06
-0.00797491
-2.61866e-05
-0.00732483
-5.29173e-05
-0.00673048
-8.55192e-05
-0.0061882
-0.00012212
-0.00569425
-0.000161153
-0.00524486
-0.000201319
-0.00483634
-0.000241549
-0.00446516
-0.000280977
-0.00412798
-0.000318912
-0.00382166
-0.000354816
-0.00354329
-0.000388281
-0.0032902
-0.000419017
-0.00305989
-0.000446834
-0.00285012
-0.00047163
-0.00265879
-0.000493381
-0.00248405
-0.000512131
-0.00232416
-0.000527985
-0.00217759
-0.000541099
-0.00204294
-0.000551674
-0.00191896
-0.000559949
-0.00180452
-0.000566196
-0.00169862
-0.00057071
-0.00160037
-0.000573807
-0.001509
-0.000575815
-0.00142382
-0.000577068
-0.00134424
-0.000577899
-0.00126972
-0.000578632
-0.00119982
-0.000579589
-0.00113413
-0.00107223
-0.000581093
-7.19452e-06
-0.00796772
-2.52418e-05
-0.00730679
-5.11952e-05
-0.00670453
-8.26792e-05
-0.00615671
-0.00011775
-0.00565918
-0.000154803
-0.00520781
-0.000192519
-0.00479863
-0.000229818
-0.00442786
-0.00026583
-0.00409197
-0.000299862
-0.00378763
-0.000331376
-0.00351178
-0.000359967
-0.00326161
-0.000385348
-0.00303451
-0.000407334
-0.00282813
-0.000425829
-0.0026403
-0.000440817
-0.00246906
-0.000452351
-0.00231263
-0.000460546
-0.0021694
-0.00046557
-0.00203792
-0.00046764
-0.00191689
-0.000467012
-0.00180515
-0.000463978
-0.00170165
-0.000458858
-0.00160549
-0.000451993
-0.00151586
-0.000443739
-0.00143207
-0.000434464
-0.00135351
-0.00042453
-0.00127965
-0.000414299
-0.00121005
-0.000404129
-0.0011443
-0.00108198
-0.000394379
-6.95791e-06
-0.00796076
-2.43567e-05
-0.00728939
-4.92792e-05
-0.0066796
-7.93047e-05
-0.00612669
-0.000112443
-0.00562604
-0.000147058
-0.00517319
-0.000181811
-0.00476387
-0.000215611
-0.00439406
-0.000247583
-0.00405999
-0.00027703
-0.00375818
-0.000303415
-0.0034854
-0.000326336
-0.00323869
-0.000345507
-0.00301534
-0.000360747
-0.00281289
-0.000371964
-0.00262908
-0.000379147
-0.00246187
-0.000382358
-0.00230942
-0.000381719
-0.00217004
-0.000377411
-0.00204223
-0.000369664
-0.00192464
-0.000358753
-0.00181606
-0.000344988
-0.00171542
-0.000328714
-0.00162176
-0.000310303
-0.00153428
-0.000290142
-0.00145223
-0.000268633
-0.00137502
-0.000246179
-0.0013021
-0.000223182
-0.00123305
-0.000200043
-0.00116744
-0.00110486
-0.000177168
-6.73314e-06
-0.00795402
-2.34031e-05
-0.00727272
-4.70931e-05
-0.00665591
-7.53629e-05
-0.00609842
-0.000106196
-0.00559521
-0.000137935
-0.00514145
-0.000169227
-0.00473258
-0.000198974
-0.00436431
-0.000226295
-0.00403267
-0.000250494
-0.00373398
-0.000271032
-0.00346486
-0.000287508
-0.00322221
-0.000299639
-0.00300321
-0.000307245
-0.00280528
-0.000310237
-0.00262609
-0.000308608
-0.0024635
-0.000302424
-0.0023156
-0.000291815
-0.00218064
-0.000276973
-0.00205707
-0.000258138
-0.00194347
-0.000235602
-0.0018386
-0.000209696
-0.00174132
-0.000180791
-0.00165067
-0.000149286
-0.00156578
-0.000115608
-0.00148591
-8.01947e-05
-0.00141043
-4.34953e-05
-0.0013388
-5.95901e-06
-0.00127058
3.19618e-05
-0.00120536
-0.0011427
6.9806e-05
-6.48266e-06
-0.00794754
-2.23253e-05
-0.00725687
-4.45918e-05
-0.00663365
-7.08277e-05
-0.00607218
-9.90012e-05
-0.00556703
-0.000127443
-0.00511301
-0.000154793
-0.00470523
-0.000179947
-0.00433916
-0.000202025
-0.0040106
-0.000220329
-0.00371568
-0.000234323
-0.00345086
-0.000243605
-0.00321293
-0.000247893
-0.00299892
-0.000247008
-0.00280617
-0.000240863
-0.00263223
-0.000229453
-0.00247491
-0.000212844
-0.00233221
-0.000191174
-0.00220231
-0.000164639
-0.00208361
-0.000133492
-0.00197462
-9.80378e-05
-0.00187405
-5.86288e-05
-0.00178073
-1.5659e-05
-0.00169364
3.04397e-05
-0.00161188
7.92052e-05
-0.00153468
0.000130153
-0.00146138
0.000182787
-0.00139144
0.000236601
-0.0013244
0.000291085
-0.00125984
-0.00119733
0.000345711
-6.19287e-06
-0.00794135
-2.10975e-05
-0.00724197
-4.17498e-05
-0.006613
-6.56816e-05
-0.00604825
-9.08525e-05
-0.00554186
-0.000115588
-0.00508827
-0.000138526
-0.00468229
-0.000158564
-0.00431912
-0.000174822
-0.00399434
-0.000186605
-0.00370389
-0.000193379
-0.00344409
-0.000194743
-0.00321156
-0.000190417
-0.00300325
-0.00018022
-0.00281637
-0.000164064
-0.00264839
-0.000141944
-0.00249703
-0.000113927
-0.00236022
-8.01516e-05
-0.00223609
-4.0818e-05
-0.00212294
3.81241e-06
-0.00201925
5.34225e-05
-0.00192366
0.000107643
-0.00183495
0.000166056
-0.00175205
0.000228198
-0.00167402
0.000293569
-0.00160005
0.000361638
-0.00152945
0.000431852
-0.00146165
0.000503645
-0.00139619
0.000576435
-0.00133263
-0.00127052
0.000649622
-5.8598e-06
-0.00793549
-1.97085e-05
-0.00722812
-3.85531e-05
-0.00659415
-5.99133e-05
-0.00602689
-8.17446e-05
-0.00552003
-0.000102374
-0.00506764
-0.000120441
-0.00466423
-0.000134851
-0.00430471
-0.000144727
-0.00398446
-0.000149381
-0.00369924
-0.000148282
-0.00344519
-0.000141032
-0.00321881
-0.000127349
-0.00301693
-0.000107053
-0.00283666
-8.00545e-05
-0.00267539
-4.63431e-05
-0.00253074
-5.98473e-06
-0.00240058
4.08852e-05
-0.00228296
9.4065e-05
-0.00217612
0.00015329
-0.00207848
0.000218233
-0.0019886
0.000288511
-0.00190523
0.000363685
-0.00182723
0.000443261
-0.0017536
0.0005267
-0.00168349
0.00061342
-0.00161617
0.000702811
-0.00155104
0.000794236
-0.00148762
0.000887038
-0.00142543
-0.00136401
0.000980529
-5.4823e-06
-0.00793001
-1.81534e-05
-0.00721545
-3.49937e-05
-0.00657731
-5.35144e-05
-0.00600837
-7.16717e-05
-0.00550187
-8.77987e-05
-0.00505152
-0.000100545
-0.00465148
-0.000108824
-0.00429643
-0.000111771
-0.00398151
-0.000108705
-0.0037023
-9.90999e-05
-0.00345479
-8.25632e-05
-0.00323535
-5.8814e-05
-0.00304068
-2.76702e-05
-0.00286781
1.09625e-05
-0.00271402
5.70986e-05
-0.00257688
0.000110679
-0.00245416
0.000171573
-0.00234385
0.000239583
-0.00224413
0.000314445
-0.00215334
0.000395829
-0.00206999
0.00048334
-0.00199274
0.000576522
-0.00192041
0.000674853
-0.00185193
0.000777756
-0.00178639
0.000884598
-0.00172301
0.000994704
-0.00166115
0.00110737
-0.00160028
0.00122184
-0.00153991
-0.0014795
0.00133733
-5.06036e-06
-0.00792495
-1.6429e-05
-0.00720408
-3.10654e-05
-0.00656267
-4.64767e-05
-0.00599296
-6.06252e-05
-0.00548773
-7.18563e-05
-0.00504029
-7.88343e-05
-0.0046445
-8.04884e-05
-0.00429478
-7.59678e-05
-0.00398604
-6.46039e-05
-0.00371367
-4.58806e-05
-0.00347352
-1.94102e-05
-0.00326182
1.50861e-05
-0.00307518
5.77916e-05
-0.00291051
0.000108806
-0.00276504
0.00016815
-0.00263623
0.000235775
-0.00252179
0.000311559
-0.00241964
0.000395315
-0.00232789
0.000486784
-0.00224481
0.000585637
-0.00216884
0.000691477
-0.00209858
0.000803832
-0.00203276
0.00092216
-0.00197026
0.00104585
-0.00191008
0.00117421
-0.00185137
0.0013065
-0.00179344
0.00144195
-0.00173572
0.00157969
-0.00167765
-0.00161866
0.00171885
-4.59342e-06
-0.00792035
-1.45322e-05
-0.00719414
-2.67612e-05
-0.00655045
-3.87894e-05
-0.00598093
-4.85921e-05
-0.00547792
-5.45327e-05
-0.00503435
-5.52969e-05
-0.00464374
-4.98352e-05
-0.00430024
-3.73163e-05
-0.00399855
-1.70888e-05
-0.0037339
1.13506e-05
-0.00350196
4.8381e-05
-0.00329885
9.4277e-05
-0.00312107
0.000149223
-0.00296546
0.000213323
-0.00282914
0.000286609
-0.00270951
0.000369043
-0.00260422
0.000460518
-0.00251111
0.00056086
-0.00242823
0.000669823
-0.00235377
0.000787089
-0.00228611
0.000912262
-0.00222375
0.00104486
-0.00216537
0.00118434
-0.00210973
0.00133004
-0.00205578
0.00148123
-0.00200257
0.00163711
-0.00194933
0.00179681
-0.00189542
0.00195938
-0.00184022
-0.00178308
0.0021238
-4.08051e-06
-0.00791627
-1.24589e-05
-0.00718576
-2.20721e-05
-0.00654083
-3.04387e-05
-0.00597256
-3.55534e-05
-0.00547281
-3.58054e-05
-0.00503409
-2.99083e-05
-0.00464964
-1.68403e-05
-0.00431331
4.20409e-06
-0.0040196
3.38541e-05
-0.00376355
7.25951e-05
-0.0035407
0.000120794
-0.00334705
0.000178718
-0.003179
0.000246551
-0.00303329
0.000324401
-0.00290699
0.000412312
-0.00279742
0.000510259
-0.00270217
0.000618155
-0.00261901
0.000735845
-0.00254592
0.000863104
-0.00248103
0.00099963
-0.00242263
0.00114504
-0.00236916
0.00129886
-0.00231918
0.00146052
-0.00227139
0.00162936
-0.00222461
0.0018046
-0.00217781
0.00198537
-0.0021301
0.00217071
-0.00208076
0.00235958
-0.00202908
-0.00197431
0.0025508
-3.52029e-06
-0.00791275
-1.02034e-05
-0.00717908
-1.69868e-05
-0.00653405
-2.14063e-05
-0.00596814
-2.14842e-05
-0.00547273
-1.56431e-05
-0.00503993
-2.63193e-06
-0.00466265
1.8536e-05
-0.00433448
4.86337e-05
-0.0040497
8.82619e-05
-0.00380317
0.000137882
-0.00359032
0.000197844
-0.00340701
0.000268405
-0.00324956
0.000349742
-0.00311463
0.000441971
-0.00299921
0.000545141
-0.00290059
0.000659246
-0.00281627
0.000784222
-0.00274399
0.000919938
-0.00268163
0.0010662
-0.00262729
0.00122273
-0.00257916
0.00138917
-0.0025356
0.00156505
-0.00249507
0.00174982
-0.00245616
0.0019428
-0.00241759
0.00214318
-0.00237819
0.00235004
-0.00233696
0.00256232
-0.00229304
0.00277886
-0.00224562
-0.0021938
0.00299835
-2.91072e-06
-0.00790984
-7.75897e-06
-0.00717423
-1.14913e-05
-0.00653032
-1.16699e-05
-0.00596797
-6.35324e-06
-0.00547805
5.99427e-06
-0.00505228
2.65802e-05
-0.00468323
5.63483e-05
-0.00436425
9.60318e-05
-0.00408938
0.000146195
-0.00385334
0.000207271
-0.00365139
0.000279583
-0.00347932
0.000363373
-0.00333335
0.000458812
-0.00321007
0.000566011
-0.00310641
0.000685031
-0.00301961
0.000815883
-0.00294713
0.000958526
-0.00288663
0.00111286
-0.00283597
0.00127873
-0.00279316
0.00145589
-0.00275633
0.00164402
-0.00272373
0.0018427
-0.00269374
0.00205136
-0.00266483
0.00226934
-0.00263557
0.00249582
-0.00260467
0.00272982
-0.00257096
0.0029702
-0.00253343
0.00321569
-0.00249111
-0.00244294
0.00346483
-2.2495e-06
-0.00790759
-5.11746e-06
-0.00717136
-5.56952e-06
-0.00652986
-1.20367e-06
-0.00597233
9.87583e-06
-0.00548913
2.91538e-05
-0.00507156
5.77858e-05
-0.00471186
9.66645e-05
-0.00440312
0.000146475
-0.00413919
0.000207737
-0.0039146
0.000280846
-0.0037245
0.000366095
-0.00356457
0.0004637
-0.00343095
0.000573818
-0.00332018
0.000696556
-0.00322915
0.000831978
-0.00315504
0.000980112
-0.00309526
0.00114094
-0.00304746
0.00131441
-0.00300943
0.00150038
-0.00297914
0.00169869
-0.00295463
0.00190904
-0.00293409
0.00213106
-0.00291576
0.00236424
-0.00289801
0.00260793
-0.00287925
0.00286129
-0.00285803
0.00312333
-0.00283299
0.00339284
-0.00280295
0.00366843
-0.00276669
-0.00272297
0.00394847
-1.53385e-06
-0.00790606
-2.26987e-06
-0.00717063
7.96349e-07
-0.00653293
1.00206e-05
-0.00598156
2.72427e-05
-0.00550635
5.38878e-05
-0.00509821
9.105e-05
-0.00474903
0.000139562
-0.00445164
0.000200052
-0.00419968
0.000272988
-0.00398754
0.000358717
-0.00381023
0.000457493
-0.00366335
0.000569498
-0.00354296
0.000694867
-0.00344555
0.000833693
-0.00336798
0.00098604
-0.00330738
0.00115194
-0.00326116
0.00133142
-0.00322693
0.00152443
-0.00320245
0.00173092
-0.00318562
0.00195074
-0.00317446
0.0021837
-0.00316704
0.00242947
-0.00316154
0.00268761
-0.00315615
0.0029575
-0.00314915
0.00323835
-0.00313888
0.00352913
-0.00312378
0.00382861
-0.00310242
0.00413527
-0.00307335
-0.00303503
0.00444732
-7.6103e-07
-0.0079053
7.93021e-07
-0.00717218
7.62459e-06
-0.00653976
2.20317e-05
-0.00599596
4.57884e-05
-0.00553011
8.025e-05
-0.00513267
0.00012644
-0.00479522
0.000185123
-0.00451032
0.000256861
-0.00427142
0.00034206
-0.00407274
0.00044101
-0.00390918
0.000553914
-0.00377625
0.000680913
-0.00366996
0.000822105
-0.00358674
0.000977562
-0.00352343
0.00114733
-0.00347716
0.00133146
-0.00344529
0.00152998
-0.00342544
0.00174289
-0.00341536
0.00197017
-0.00341291
0.00221178
-0.00341606
0.00246756
-0.00342283
0.00273729
-0.00343127
0.00302062
-0.00343947
0.00331701
-0.00344553
0.0036257
-0.00344757
0.00394572
-0.0034438
0.00427578
-0.00343248
0.00461428
-0.00341185
-0.00338004
0.00495929
7.17245e-08
-0.00790537
4.08022e-06
-0.00717619
1.49327e-05
-0.00655061
3.48575e-05
-0.00601589
6.55522e-05
-0.0055608
0.000108292
-0.00517541
0.000164022
-0.00485095
0.000233429
-0.00457973
0.000316998
-0.00435499
0.000415067
-0.0041708
0.000527856
-0.00402197
0.000655509
-0.0039039
0.00079811
-0.00381256
0.000955711
-0.00374435
0.00112835
-0.00369607
0.00131604
-0.00366485
0.00151883
-0.00364808
0.00173675
-0.00364336
0.00196983
-0.00364844
0.00221812
-0.00366119
0.00248161
-0.00367955
0.00276028
-0.00370149
0.003054
-0.00372499
0.00336252
-0.00374799
0.00368542
-0.00376844
0.00402207
-0.00378422
0.00437152
-0.00379325
0.00473251
-0.00379347
0.00510338
-0.00378273
-0.00375872
0.00548206
9.67042e-07
-0.00790634
7.59992e-06
-0.00718282
2.27363e-05
-0.00656575
4.85224e-05
-0.00604167
8.65679e-05
-0.00559885
0.000138059
-0.0052269
0.000203852
-0.00491674
0.000284548
-0.00466042
0.000380549
-0.00445099
0.000492112
-0.00428237
0.000619381
-0.00414924
0.000762425
-0.00404695
0.000921261
-0.00397139
0.00109588
-0.00391896
0.00128626
-0.00388645
0.00149239
-0.00387098
0.00171427
-0.00386996
0.00195193
-0.00388102
0.00220543
-0.00390194
0.00247483
-0.0039306
0.00276022
-0.00396495
0.00306167
-0.00400294
0.00337917
-0.00404249
0.00371263
-0.00408146
0.0040618
-0.0041176
0.00442617
-0.00414859
0.00480493
-0.00417201
0.00519688
-0.00418542
0.00560035
-0.0041862
-0.0041715
0.00601313
1.92675e-06
-0.00790826
1.13584e-05
-0.00719226
3.10475e-05
-0.00658544
6.30448e-05
-0.00607367
0.000108861
-0.00564466
0.000169583
-0.00528762
0.000245971
-0.00499313
0.000338532
-0.00475298
0.000447578
-0.00456003
0.000573276
-0.00440807
0.000715685
-0.00429165
0.000874788
-0.00420605
0.00105052
-0.00414713
0.0012428
-0.00411124
0.00145153
-0.00409518
0.00167663
-0.00409608
0.00191806
-0.00411139
0.00217581
-0.00413878
0.00244994
-0.00417606
0.00274053
-0.00422119
0.00304773
-0.00427214
0.0033717
-0.00432691
0.00371259
-0.00438338
0.00407048
-0.00443935
0.00444533
-0.00449245
0.00483684
-0.0045401
0.0052444
-0.00457956
0.00566694
-0.00460796
0.00610284
-0.0046221
-0.00461848
0.00654982
2.95209e-06
-0.00791121
1.53598e-05
-0.00720466
3.98739e-05
-0.00660995
7.84351e-05
-0.00611223
0.000132443
-0.00569867
0.000202877
-0.00535806
0.000290394
-0.00508065
0.0003954
-0.00485799
0.00051811
-0.00468274
0.000658596
-0.00454855
0.000816823
-0.00444988
0.00099268
-0.00438191
0.00118601
-0.00434046
0.00139663
-0.00432186
0.00162435
-0.0043229
0.00186902
-0.00434075
0.00213051
-0.00437288
0.00240875
-0.00441702
0.00270375
-0.00447106
0.0030156
-0.00453303
0.00334446
-0.00460101
0.00369059
-0.00467304
0.00405429
-0.00474708
0.00443583
-0.0048209
0.00483543
-0.00489205
0.00525309
-0.00495775
0.00568847
-0.00501494
0.00614076
-0.00506025
0.00660848
-0.00508982
-0.00509933
0.00708933
4.04326e-06
-0.00791526
1.96056e-05
-0.00722023
4.92174e-05
-0.00663957
9.46937e-05
-0.00615771
0.000157311
-0.00576129
0.000237933
-0.00543868
0.000337106
-0.00517982
0.00045513
-0.00497601
0.000592121
-0.00481974
0.00074805
-0.00470448
0.000922781
-0.00462461
0.0011161
-0.00457523
0.00132775
-0.00455211
0.00155744
-0.00455155
0.00180488
-0.00457034
0.00206978
-0.00460566
0.00235192
-0.00465502
0.00265113
-0.00471623
0.00296734
-0.00478726
0.00330056
-0.00486626
0.00365097
-0.00495142
0.00401886
-0.00504093
0.00440465
-0.00513287
0.00480884
-0.00522508
0.00523191
-0.00531512
0.00567427
-0.0054001
0.00613597
-0.00547665
0.00661661
-0.00554088
0.00711496
-0.00558818
-0.0056132
0.00762883
5.19969e-06
-0.00792046
2.40947e-05
-0.00723912
5.90745e-05
-0.00667455
0.00011181
-0.00621044
0.000183443
-0.00583292
0.000274713
-0.00552995
0.00038605
-0.00529116
0.000517649
-0.00510761
0.00066952
-0.00497161
0.000841533
-0.00487649
0.00103345
-0.00481653
0.00124496
-0.00478674
0.00147567
-0.00478283
0.0017252
-0.00480108
0.00199312
-0.00483825
0.00227901
-0.00489155
0.00258251
-0.00495853
0.00290331
-0.00503703
0.0032412
-0.00512514
0.00359608
-0.00522114
0.00396805
-0.00532338
0.00435736
-0.00543025
0.00476452
-0.00554002
0.00519018
-0.00565075
0.00563517
-0.00576012
0.00610032
-0.00586525
0.00658626
-0.00596259
0.00709314
-0.00604776
0.00762026
-0.0061153
-0.00615857
0.00816563
6.4199e-06
-0.00792688
2.8825e-05
-0.00726153
6.94371e-05
-0.00671516
0.000129763
-0.00627077
0.000210796
-0.00591395
0.000313146
-0.0056323
0.000437125
-0.00541513
0.000582819
-0.0052533
0.000750135
-0.00513892
0.000938841
-0.0050652
0.0011486
-0.00502628
0.00137899
-0.00501712
0.00162952
-0.00503336
0.00189967
-0.00507123
0.0021889
-0.00512747
0.00249663
-0.00519928
0.00282233
-0.00528423
0.00316552
-0.00538022
0.0035258
-0.00548542
0.00390288
-0.00559822
0.00429668
-0.00571718
0.00470733
-0.00584091
0.00513529
-0.00596797
0.00558131
-0.00609677
0.00604648
-0.00622529
0.00653212
-0.00635089
0.00703957
-0.00647004
0.00756982
-0.00657802
0.00812298
-0.00666846
-0.00673312
0.00869753
7.70407e-06
-0.00793458
3.37967e-05
-0.00728762
8.02963e-05
-0.00676166
0.000148521
-0.00633899
0.000239307
-0.00600474
0.000353128
-0.00574612
0.000490179
-0.00555218
0.000650434
-0.00541356
0.000833702
-0.00532219
0.00103965
-0.00527115
0.00126785
-0.00525448
0.00151777
-0.00526705
0.00178883
-0.00530442
0.00208039
-0.00536279
0.00239176
-0.00543885
0.00272224
-0.00552977
0.00307112
-0.00563311
0.00343771
-0.00574681
0.00382138
-0.00586908
0.00422157
-0.00599842
0.00463794
-0.00613354
0.00507034
-0.00627331
0.00551902
-0.00641665
0.00598463
-0.00656239
0.0064684
-0.00670905
0.00697205
-0.00685454
0.00749773
-0.00699572
0.00804761
-0.00712789
0.00862306
-0.00724391
-0.00733354
0.00922348
9.05876e-06
-0.00794364
3.90206e-05
-0.00731758
9.16481e-05
-0.00681428
0.000168048
-0.00641539
0.000268892
-0.00610558
0.000394519
-0.00587174
0.000545003
-0.00570267
0.000720214
-0.00558877
0.000919859
-0.00552183
0.00114352
-0.00549481
0.00139066
-0.00550163
0.00166068
-0.00553707
0.0019529
-0.00559664
0.00226657
-0.00567646
0.0026009
-0.00577318
0.00295506
-0.00588392
0.00332817
-0.00600623
0.00371935
-0.00613799
0.00412771
-0.00627744
0.00455241
-0.00642312
0.00499272
-0.00657385
0.0054481
-0.00672869
0.00591833
-0.00688688
0.0064037
-0.00704776
0.00690523
-0.00721057
0.00742479
-0.0073741
0.00796524
-0.00753618
0.00853019
-0.00769284
0.00912304
-0.00783676
-0.00795518
0.00974468
1.05085e-05
-0.00795415
4.45308e-05
-0.0073516
0.000103501
-0.00687326
0.000188303
-0.0065002
0.000299447
-0.00621673
0.000437139
-0.00600944
0.000601336
-0.00586687
0.000791802
-0.00577924
0.00100814
-0.00573818
0.00124985
-0.00573652
0.00151632
-0.00576809
0.00180686
-0.00582761
0.00212071
-0.00591049
0.00245707
-0.00601281
0.00281504
-0.00613115
0.00319371
-0.00626259
0.00359209
-0.00640461
0.00400914
-0.00655503
0.00444376
-0.00671206
0.00489484
-0.0068742
0.00536124
-0.00704025
0.00584192
-0.00720936
0.00633602
-0.00738098
0.0068431
-0.00755484
0.00736342
-0.0077309
0.0078984
-0.00790908
0.00845104
-0.00808881
0.00902625
-0.00826806
0.00963026
-0.00844077
-0.00859163
0.0102667
1.21219e-05
-0.00796627
5.04099e-05
-0.00738989
0.000115888
-0.00693873
0.000209243
-0.00659355
0.000330847
-0.00633833
0.000480775
-0.00615936
0.000658866
-0.00604496
0.000864772
-0.00598514
0.001098
-0.00597141
0.00135796
-0.00599647
0.00164396
-0.00605409
0.00195524
-0.00613889
0.00229099
-0.00624625
0.00265036
-0.00637217
0.00303242
-0.00651321
0.0034362
-0.00666638
0.00386068
-0.00682908
0.00430475
-0.0069991
0.00476722
-0.00717454
0.00524681
-0.00735378
0.00574211
-0.00753556
0.00625163
-0.00771889
0.00677384
-0.00790319
0.0073073
-0.0080883
0.00785096
-0.00827456
0.00840471
-0.00846284
0.00897026
-0.00865436
0.00955244
-0.00885023
0.0101604
-0.00904871
-0.00923712
0.0108059
1.41223e-05
-0.00798039
5.68572e-05
-0.00743262
0.000128877
-0.00701075
0.000230817
-0.00669549
0.000362935
-0.00647045
0.000525172
-0.0063216
0.00071723
-0.00623702
0.000938639
-0.00620655
0.0011888
-0.00622157
0.00146703
-0.0062747
0.00177255
-0.00635961
0.00210455
-0.0064709
0.00246219
-0.00660388
0.00284457
-0.00675455
0.00325076
-0.00691941
0.00367983
-0.00709544
0.00413078
-0.00728003
0.00460257
-0.00747089
0.00509408
-0.00766605
0.0056041
-0.0078638
0.00613125
-0.00806271
0.00667395
-0.00826159
0.00723036
-0.00845959
0.00779828
-0.00865621
0.00837524
-0.00885152
0.00895878
-0.00904638
0.00954721
-0.00924279
0.0101416
-0.00944462
0.0107512
-0.0096583
-0.00989663
0.0114107
1.73211e-05
-0.00799771
6.42592e-05
-0.00747956
0.000142527
-0.00708902
0.000252916
-0.00680588
0.0003955
-0.00661303
0.000570023
-0.00649612
0.000776018
-0.00644301
0.00101287
-0.0064434
0.00127985
-0.00648856
0.00157618
-0.00657102
0.00190099
-0.00668443
0.00225342
-0.00682333
0.00263257
-0.00698303
0.00303754
-0.00715951
0.00346742
-0.00734929
0.00392131
-0.00754934
0.00439835
-0.00775707
0.00489766
-0.0079702
0.00541838
-0.00818677
0.00595966
-0.00840508
0.00652062
-0.00862367
0.00710033
-0.0088413
0.0076977
-0.00905696
0.00831136
-0.00926988
0.00893948
-0.00947964
0.00957957
-0.00968646
0.0102282
-0.00989141
0.01088
-0.0100964
0.0115301
-0.0103084
-0.0105503
0.0121838
0.0089917
4.60355e-05
-0.00903774
0.00894661
4.50884e-05
0.00890182
4.47946e-05
0.00885718
4.46402e-05
0.00881271
4.44658e-05
0.0087685
4.42156e-05
0.00872463
4.38678e-05
0.00868121
4.34161e-05
0.00863835
4.28606e-05
0.00859615
4.2205e-05
0.00855469
4.14541e-05
0.00851408
4.06135e-05
0.00847439
3.96896e-05
0.0084357
3.86883e-05
0.00839808
3.76159e-05
0.00836161
3.64781e-05
0.00832633
3.52809e-05
0.0082923
3.40299e-05
0.00825956
3.27302e-05
0.00822818
3.1387e-05
0.00819817
3.00049e-05
0.00816958
2.85887e-05
0.00814244
2.71425e-05
0.00811677
2.56704e-05
0.0080926
2.41746e-05
0.00806995
2.26517e-05
0.00804886
2.10826e-05
0.00802945
1.94077e-05
0.00801204
1.74196e-05
1.43207e-05
0.0102815
0.00016448
-0.0103999
0.0101619
0.000164695
0.0100416
0.000165024
0.00992106
0.000165213
0.0098004
0.000165117
0.00967995
0.000164666
0.00955999
0.000163828
0.00944082
0.000162593
0.00932271
0.000160963
0.00920597
0.000158948
0.00909086
0.000156563
0.00897765
0.000153828
0.00886658
0.000150761
0.00875788
0.000147383
0.00865178
0.000143716
0.00854848
0.00013978
0.00844817
0.000135595
0.00835101
0.000131183
0.00825718
0.000126561
0.00816682
0.000121748
0.00808007
0.000116761
0.00799704
0.000111617
0.00791785
0.000106329
0.00784261
0.00010091
0.00777142
9.53683e-05
0.00770437
8.96988e-05
0.00764158
8.38743e-05
0.00758317
7.78179e-05
0.00752926
7.13338e-05
6.40134e-05
0.0115363
0.00034334
-0.0117152
0.0113547
0.000346326
0.0111711
0.000348637
0.0109861
0.000350208
0.0108002
0.000350968
0.010614
0.000350872
0.010428
0.000349899
0.0102425
0.000348046
0.0100582
0.000345324
0.00987534
0.000341756
0.00969454
0.000337371
0.00951616
0.000332206
0.00934062
0.000326298
0.00916832
0.000319689
0.00899961
0.000312421
0.00883485
0.000304537
0.00867437
0.000296079
0.00851846
0.000287088
0.00836742
0.000277605
0.0082215
0.000267666
0.00808095
0.000257309
0.007946
0.000246567
0.00781686
0.000235472
0.00769372
0.00022405
0.00757676
0.000212323
0.00746616
0.000200303
0.00736205
0.000187982
0.00726455
0.000175322
0.00717364
0.000162239
0.000148634
0.0127467
0.00057189
-0.0129753
0.0125138
0.000579239
0.0122774
0.000585061
0.0120382
0.000589364
0.0117971
0.000592129
0.0115546
0.000593343
0.0113115
0.000593003
0.0110684
0.00059112
0.010826
0.00058772
0.0105849
0.000582842
0.0103458
0.000576534
0.0101091
0.000568851
0.00987556
0.000559855
0.00964563
0.000549611
0.00941987
0.000538188
0.00919875
0.000525654
0.00898275
0.000512079
0.00877231
0.00049753
0.00856784
0.000482074
0.00836973
0.000465773
0.00817835
0.000448689
0.00799404
0.000430878
0.00781712
0.000412395
0.00764788
0.00039329
0.00748659
0.000373611
0.0073335
0.000353397
0.0071888
0.000332681
0.00705263
0.000311486
0.00692504
0.000289836
0.000267792
0.0139046
0.00084039
-0.0141731
0.01363
0.000853855
0.0133502
0.000864876
0.0130661
0.000873479
0.0127786
0.000879667
0.0124885
0.000883449
0.0121966
0.000884837
0.0119039
0.00088386
0.011611
0.000880558
0.0113189
0.000874986
0.0110282
0.000867211
0.0107398
0.000857311
0.0104542
0.000845373
0.0101724
0.000831487
0.0098948
0.000815751
0.00962219
0.000798262
0.00935515
0.000779121
0.00909426
0.000758424
0.00884006
0.000736269
0.00859309
0.000712747
0.00835383
0.000687948
0.00812275
0.000661958
0.00790028
0.000634859
0.00768684
0.000606732
0.0074828
0.000577657
0.00728848
0.000547713
0.00710418
0.000516984
0.0069301
0.000485561
0.00676638
0.000453558
0.000421139
0.0150039
0.00114012
-0.0153037
0.0146962
0.00116158
0.0143815
0.00117963
0.0140607
0.00119426
0.0137349
0.00120548
0.013405
0.00121332
0.013072
0.00121779
0.012737
0.00121894
0.0124007
0.0012168
0.0120642
0.00121147
0.0117284
0.00120301
0.0113942
0.00119153
0.0110625
0.00117713
0.010734
0.00115995
0.0104097
0.00114009
0.0100902
0.00111769
0.00977646
0.00109289
0.00946908
0.00106581
0.00916877
0.00103658
0.00887619
0.00100532
0.00859198
0.000972159
0.00831673
0.00093721
0.008051
0.000900587
0.00779533
0.000862406
0.0075502
0.000822784
0.00731607
0.000781847
0.00709331
0.000739736
0.00688226
0.000696612
0.00668315
0.000652671
0.000608165
0.01604
0.00146332
-0.0163632
0.0157069
0.00149474
0.0153648
0.0015217
0.0150149
0.0015442
0.0146581
0.00156222
0.0142957
0.00157578
0.0139286
0.00158489
0.0135579
0.00158958
0.0131848
0.00158994
0.0128102
0.00158602
0.0124353
0.00157793
0.0120611
0.00156579
0.0116885
0.00154972
0.0113185
0.00152988
0.0109522
0.0015064
0.0105905
0.00147947
0.0102341
0.00144922
0.00988409
0.00141584
0.0095412
0.00137947
0.00920623
0.00134028
0.00887997
0.00129842
0.00856314
0.00125404
0.00825645
0.00120728
0.00796055
0.0011583
0.00767608
0.00110725
0.00740362
0.00105431
0.00714368
0.000999678
0.0068967
0.000943587
0.00666306
0.000886318
0.00082821
0.0170099
0.0018031
-0.0173497
0.0166582
0.00184645
0.0162956
0.00188428
0.0159232
0.00191655
0.0155422
0.00194322
0.0151538
0.00196427
0.0147589
0.0019797
0.014359
0.00198956
0.013955
0.0019939
0.0135482
0.00199279
0.0131398
0.00198635
0.0127309
0.00197471
0.0123226
0.00195801
0.0119161
0.00193641
0.0115124
0.0019101
0.0111126
0.00187927
0.0107177
0.00184409
0.0103288
0.00180478
0.00994671
0.00176151
0.00957252
0.00171448
0.00920707
0.00166387
0.00885124
0.00160987
0.00850587
0.00155264
0.00817179
0.00149238
0.00784976
0.00142928
0.00754051
0.00136356
0.0072447
0.00129549
0.00696293
0.00122536
0.0066957
0.00115355
0.0010805
0.0179117
0.00215338
-0.018262
0.0175476
0.00221062
0.0171706
0.00226128
0.0167819
0.00230524
0.0163827
0.00234244
0.0159741
0.00237283
0.0155574
0.00239638
0.0151339
0.00241312
0.0147047
0.00242308
0.0142711
0.00242634
0.0138345
0.00242301
0.013396
0.00241323
0.0129568
0.00239714
0.0125183
0.00237492
0.0120816
0.00234679
0.011648
0.00231294
0.0112185
0.0022736
0.0107942
0.00222899
0.0103764
0.00217932
0.0099661
0.00212482
0.00956428
0.00206569
0.00917201
0.00200214
0.00879027
0.00193438
0.00842004
0.00186262
0.00806224
0.00178708
0.00771777
0.00170803
0.00738746
0.0016258
0.00707206
0.00154075
0.00677225
0.00145337
0.0013642
0.018745
0.00250887
-0.0191005
0.0183737
0.00258189
0.0179877
0.00264727
0.0175882
0.00270483
0.0171761
0.00275446
0.0167529
0.00279606
0.0163197
0.00282957
0.0158779
0.00285498
0.0154286
0.00287231
0.0149734
0.00288161
0.0145134
0.00288299
0.0140501
0.00287657
0.0135847
0.00286251
0.0131186
0.002841
0.0126531
0.00281226
0.0121896
0.00277651
0.0117292
0.00273399
0.0112732
0.00268494
0.0108229
0.00262962
0.0103795
0.00256826
0.0099441
0.00250109
0.00951791
0.00242833
0.00910207
0.00235022
0.00869772
0.00226697
0.00830595
0.00217885
0.00792783
0.00208615
0.00756439
0.00198924
0.00721656
0.00188858
0.00688521
0.00178473
0.00167838
0.01951
0.00286498
-0.0198662
0.0191364
0.00295558
0.0187461
0.0030375
0.0183404
0.00311051
0.0179205
0.00317442
0.0174874
0.00322909
0.0170426
0.00327441
0.0165873
0.00331032
0.0161227
0.00333681
0.0156505
0.00335391
0.0151718
0.00336168
0.0146881
0.00336026
0.0142008
0.00334979
0.0137113
0.00333046
0.0132211
0.00330249
0.0127315
0.00326612
0.0122439
0.00322161
0.0117596
0.00316922
0.01128
0.0031092
0.0108064
0.00304182
0.0103402
0.00296732
0.00988258
0.00288594
0.0094349
0.0027979
0.00899843
0.00270343
0.00857447
0.00260281
0.00816427
0.00249635
0.00776907
0.00238444
0.00739002
0.00226763
0.00702817
0.00214657
0.00202212
0.0202081
0.00321781
-0.0205609
0.019836
0.00332765
0.0194457
0.00342783
0.0190381
0.00351805
0.0186145
0.00359804
0.018176
0.00366759
0.0177239
0.00372655
0.0172594
0.00377478
0.016784
0.00381224
0.016299
0.00383891
0.0158058
0.00385484
0.015306
0.00386012
0.0148009
0.00385489
0.014292
0.00383934
0.0137808
0.00381366
0.0132688
0.00377812
0.0127575
0.00373298
0.0122482
0.00367849
0.0117424
0.00361495
0.0112417
0.00354261
0.0107473
0.00346172