/*--------------------------------*- C++ -*----------------------------------*\
  =========                 |
  \\      /  F ield         | OpenFOAM: The Open Source CFD Toolbox
   \\    /   O peration     | Website:  https://openfoam.org
    \\  /    A nd           | Version:  6.0
     \\/     M anipulation  |
\*---------------------------------------------------------------------------*/
FoamFile
{
    version     2.0;
    format      ascii;
    class       volVectorField;
    location    "16.504";
    object      U;
}
// * * * * * * * * * * * * * * * * * * * * * * * * * * * * * * * * * * * * * //

dimensions      [0 1 -1 0 0 0 0];

internalField   nonuniform List<vector> 
19200
(
(0.00655293 -0.479203 -4.16474e-22)
(0.00479117 -0.441187 2.30835e-22)
(0.00268121 -0.406275 1.18483e-22)
(0.00023606 -0.374298 1.15706e-22)
(-0.00241312 -0.345057 1.41706e-22)
(-0.00512858 -0.318351 7.13273e-24)
(-0.00781526 -0.29398 2.27182e-22)
(-0.0104053 -0.271753 -2.36878e-23)
(-0.0128498 -0.251486 2.25451e-22)
(-0.0151155 -0.233007 9.8638e-23)
(-0.0171817 -0.216155 -1.0376e-23)
(-0.0190373 -0.200779 1.7596e-22)
(-0.020679 -0.186742 3.32733e-22)
(-0.0221093 -0.173918 -2.42868e-22)
(-0.0233352 -0.162189 3.23489e-22)
(-0.0243673 -0.151449 3.07801e-22)
(-0.0252187 -0.141604 -3.02621e-22)
(-0.0259043 -0.132564 5.53846e-22)
(-0.0264406 -0.124252 -3.71834e-22)
(-0.0268446 -0.116595 1.88462e-22)
(-0.0271339 -0.109532 2.92137e-22)
(-0.027326 -0.103003 -1.05758e-22)
(-0.0274384 -0.0969595 1.44066e-22)
(-0.0274878 -0.0913554 -1.82934e-22)
(-0.0274906 -0.0861517 4.75066e-24)
(-0.0274629 -0.0813126 1.08918e-22)
(-0.02742 -0.0768069 -7.41565e-23)
(-0.0273663 -0.0726072 4.06122e-23)
(-0.0272939 -0.0686881 1.13343e-22)
(-0.0272897 -0.0650259 5.59902e-22)
(0.0191273 -0.478377 -1.00407e-22)
(0.0163589 -0.439774 7.26119e-22)
(0.0133322 -0.404441 -4.05577e-22)
(0.0100712 -0.372176 -6.20881e-22)
(0.00670505 -0.342761 -3.14365e-22)
(0.00336536 -0.315973 -2.39572e-22)
(0.000140238 -0.291596 -5.57521e-22)
(-0.00290927 -0.269422 6.70516e-23)
(-0.00574093 -0.249256 -1.0898e-22)
(-0.00832781 -0.230912 -4.65681e-22)
(-0.0106551 -0.214221 -1.33491e-21)
(-0.0127173 -0.199025 6.94415e-22)
(-0.0145161 -0.185178 -2.79145e-22)
(-0.0160589 -0.172549 1.07277e-22)
(-0.0173572 -0.161015 -7.31548e-22)
(-0.0184256 -0.150467 -2.95703e-22)
(-0.0192811 -0.140805 2.86329e-23)
(-0.0199421 -0.131938 1.11396e-21)
(-0.0204282 -0.123785 -5.78158e-22)
(-0.0207596 -0.116273 -3.33633e-22)
(-0.0209566 -0.109336 -1.49398e-21)
(-0.0210396 -0.102915 3.9709e-22)
(-0.0210283 -0.0969603 -2.68486e-22)
(-0.020942 -0.091425 5.06453e-22)
(-0.0207989 -0.0862696 -2.57249e-22)
(-0.0206175 -0.0814591 -4.18744e-22)
(-0.0204152 -0.0769624 1.30636e-22)
(-0.0201967 -0.0727528 2.39529e-22)
(-0.0199516 -0.0688049 -4.07625e-22)
(-0.0197799 -0.0650977 2.6245e-22)
(0.0316147 -0.477262 -4.7961e-23)
(0.0278202 -0.438089 1.26285e-22)
(0.0238839 -0.402365 2.1731e-22)
(0.0198203 -0.369851 2.14995e-21)
(0.0157551 -0.340301 -1.36873e-21)
(0.0118143 -0.31347 1.26434e-21)
(0.0080794 -0.289123 8.37177e-22)
(0.00460391 -0.267036 7.43882e-22)
(0.00142286 -0.247001 -7.5696e-22)
(-0.00144371 -0.228822 -1.26352e-22)
(-0.00398744 -0.21232 2.1621e-21)
(-0.00620892 -0.197328 4.13316e-22)
(-0.00811546 -0.183694 -1.1632e-21)
(-0.00971952 -0.171281 9.24264e-22)
(-0.0110373 -0.159962 -1.88721e-23)
(-0.0120879 -0.149623 4.55264e-22)
(-0.0128921 -0.14016 3.33448e-22)
(-0.0134722 -0.131479 1.28242e-21)
(-0.0138513 -0.123498 -5.4611e-22)
(-0.0140527 -0.11614 -1.76694e-22)
(-0.0140998 -0.109338 -5.76083e-22)
(-0.0140157 -0.103033 2.74957e-21)
(-0.013823 -0.0971718 -2.39398e-21)
(-0.0135432 -0.0917084 7.70933e-22)
(-0.0131971 -0.0866029 4.52823e-22)
(-0.0128055 -0.0818202 -1.74261e-21)
(-0.0123882 -0.07733 2.40225e-21)
(-0.0119502 -0.0731061 -2.41738e-22)
(-0.0114777 -0.0691227 -2.89029e-22)
(-0.0110868 -0.0653624 -2.52193e-21)
(0.0440458 -0.475848 -1.51251e-21)
(0.0391976 -0.436147 -1.59565e-21)
(0.0343447 -0.40007 -2.14284e-21)
(0.0294859 -0.367346 8.29843e-24)
(0.0247384 -0.337702 1.34828e-22)
(0.020221 -0.310867 -2.98702e-21)
(0.0160066 -0.286587 1.15726e-22)
(0.0121405 -0.264623 4.57398e-22)
(0.00864964 -0.244752 -6.10142e-23)
(0.00554649 -0.226767 9.1684e-22)
(0.00283233 -0.210481 -3.68683e-21)
(0.000500054 -0.195718 -2.55204e-21)
(-0.00146365 -0.182321 9.13679e-22)
(-0.00307672 -0.170145 2.13952e-21)
(-0.00436038 -0.15906 -2.50772e-21)
(-0.00533825 -0.148947 -4.18329e-22)
(-0.00603549 -0.139698 -1.70675e-21)
(-0.00647824 -0.131219 -8.54026e-22)
(-0.00669317 -0.123421 1.55957e-21)
(-0.00670702 -0.116228 -2.06249e-21)
(-0.00654637 -0.10957 1.95743e-21)
(-0.00623731 -0.103387 -2.33517e-21)
(-0.00580521 -0.0976243 -1.97758e-21)
(-0.00527444 -0.0922356 -1.54974e-21)
(-0.00466831 -0.0871805 -4.00203e-22)
(-0.00401027 -0.0824241 -3.44814e-21)
(-0.00332273 -0.0779368 3.70162e-22)
(-0.00261084 -0.0736924 6.95251e-22)
(-0.00185678 -0.0696649 -2.14236e-21)
(-0.00119591 -0.0658409 4.22891e-22)
(0.0564234 -0.474124 -8.79128e-22)
(0.0504975 -0.433951 1.54698e-22)
(0.0447203 -0.397571 1.42715e-21)
(0.0390729 -0.364684 1.63322e-21)
(0.0336605 -0.334989 1.28872e-21)
(0.028592 -0.308191 5.7524e-22)
(0.0239301 -0.284016 9.26339e-22)
(0.0197105 -0.26221 4.70147e-21)
(0.0159511 -0.242535 -2.89814e-21)
(0.0126561 -0.224775 6.06485e-23)
(0.00981899 -0.208732 7.61606e-22)
(0.00742568 -0.194224 3.80853e-21)
(0.00545642 -0.181086 -2.69514e-21)
(0.00388748 -0.169168 2.08208e-21)
(0.00269231 -0.158336 -2.49637e-21)
(0.0018425 -0.148466 4.51764e-21)
(0.00130845 -0.139449 -1.34908e-21)
(0.00105994 -0.131184 5.25954e-23)
(0.00106654 -0.123582 2.56554e-21)
(0.00129793 -0.116564 1.97704e-21)
(0.00172423 -0.110059 -2.01729e-21)
(0.00231619 -0.104005 2.90835e-21)
(0.00304538 -0.0983454 -1.42267e-21)
(0.00388454 -0.0930338 1.68102e-21)
(0.00480761 -0.0880292 2.44788e-21)
(0.00578818 -0.0832969 1.00112e-21)
(0.00680084 -0.0788076 3.10169e-21)
(0.00784047 -0.0745355 -9.82397e-22)
(0.00892965 -0.0704531 -2.53848e-22)
(0.00991059 -0.066553 -2.15663e-21)
(0.0687429 -0.472092 -6.46699e-22)
(0.0617201 -0.43151 -4.70674e-22)
(0.0550141 -0.394881 -1.62556e-21)
(0.0485867 -0.361882 -4.70401e-21)
(0.0425288 -0.332182 1.57468e-21)
(0.0369366 -0.305464 1.24867e-22)
(0.0318611 -0.281434 -1.28563e-21)
(0.0273271 -0.259821 3.19224e-22)
(0.0233424 -0.240376 -1.57934e-22)
(0.0199019 -0.222871 -4.1659e-21)
(0.0169909 -0.207099 1.73751e-21)
(0.0145876 -0.19287 3.34714e-21)
(0.0126655 -0.180014 -2.49216e-23)
(0.0111947 -0.168376 1.38868e-21)
(0.0101431 -0.157816 3.77902e-21)
(0.00947731 -0.148207 -2.75697e-21)
(0.00916307 -0.139435 5.09415e-21)
(0.00916595 -0.131399 -2.61261e-21)
(0.00945161 -0.124005 4.86509e-21)
(0.00998605 -0.117174 -3.82542e-21)
(0.0107359 -0.11083 1.76161e-21)
(0.0116686 -0.104911 5.11466e-21)
(0.0127525 -0.0993596 4.93513e-22)
(0.0139574 -0.0941277 -5.15501e-21)
(0.015254 -0.0891734 3.01155e-21)
(0.0166129 -0.0844623 3.74894e-22)
(0.0180053 -0.0799655 -1.12871e-21)
(0.0194261 -0.0756568 4.36764e-21)
(0.0209034 -0.0715071 1.72499e-21)
(0.0222535 -0.0675161 -1.80705e-21)
(0.0809983 -0.469757 1.89733e-21)
(0.072864 -0.42883 1.11517e-22)
(0.0652292 -0.392013 -3.2982e-21)
(0.0580339 -0.358956 7.09817e-22)
(0.0513524 -0.329301 -1.14758e-21)
(0.0452665 -0.302708 7.6481e-22)
(0.0398138 -0.278864 1.95022e-21)
(0.0350067 -0.257481 3.96145e-21)
(0.0308419 -0.238299 -4.6172e-21)
(0.0273043 -0.221079 1.13294e-21)
(0.0243699 -0.205604 -9.78446e-22)
(0.022009 -0.19168 7.39959e-22)
(0.0201879 -0.179129 -3.31763e-21)
(0.0188703 -0.16779 -3.15524e-22)
(0.0180181 -0.15752 6.15011e-21)
(0.0175928 -0.148189 -4.29884e-21)
(0.0175553 -0.139679 -2.99933e-21)
(0.017867 -0.131884 -2.42871e-21)
(0.0184894 -0.124712 4.34496e-21)
(0.0193847 -0.118076 1.04948e-21)
(0.020516 -0.111903 -4.88297e-21)
(0.0218473 -0.106126 6.8872e-21)
(0.0233435 -0.100688 -6.45074e-21)
(0.0249711 -0.0955381 4.54855e-21)
(0.0266977 -0.0906342 -2.66554e-21)
(0.0284904 -0.0859412 1.85136e-21)
(0.0303168 -0.0814306 1.54692e-21)
(0.0321716 -0.0770757 -6.8715e-21)
(0.0340892 -0.0728446 3.02069e-21)
(0.0358568 -0.0687461 6.72569e-23)
(0.0931834 -0.467123 -1.87294e-21)
(0.0839279 -0.425921 1.60314e-21)
(0.0753687 -0.388979 -3.54291e-21)
(0.0674217 -0.355921 7.02402e-21)
(0.0601422 -0.326364 -2.09318e-21)
(0.0535959 -0.299942 3.33644e-21)
(0.0478052 -0.276325 5.46879e-23)
(0.0427689 -0.25521 -4.4159e-22)
(0.0384715 -0.236324 -8.34795e-22)
(0.0348868 -0.219418 -5.3047e-23)
(0.0319814 -0.204269 -3.62478e-21)
(0.0297169 -0.190673 1.91297e-21)
(0.0280519 -0.178447 -2.5843e-21)
(0.0269433 -0.167428 -1.7859e-22)
(0.0263471 -0.157467 -8.1376e-21)
(0.0262192 -0.148429 2.68461e-21)
(0.0265159 -0.140195 1.77236e-21)
(0.027194 -0.132657 -2.01942e-21)
(0.0282108 -0.125717 -2.2893e-22)
(0.0295248 -0.119289 -3.47871e-21)
(0.0310953 -0.113295 -1.31731e-21)
(0.0328827 -0.107668 1.93398e-22)
(0.0348486 -0.102348 -3.54993e-21)
(0.0369558 -0.0972825 -5.71137e-21)
(0.0391687 -0.0924288 1.96961e-22)
(0.0414503 -0.0877508 -7.39074e-22)
(0.0437643 -0.0832198 2.09622e-21)
(0.0461056 -0.0788083 -5.42438e-21)
(0.0485151 -0.0744807 4.84315e-21)
(0.0507474 -0.0702563 -1.10227e-20)
(0.105292 -0.464193 -4.5617e-21)
(0.0949106 -0.422791 6.29834e-21)
(0.0854367 -0.385792 -7.30031e-21)
(0.0767585 -0.352794 -2.19955e-21)
(0.0689107 -0.323387 -1.5565e-21)
(0.0619408 -0.297184 -1.80931e-21)
(0.0558546 -0.273836 -1.69093e-21)
(0.0506359 -0.253026 -3.00027e-22)
(0.0462559 -0.234469 -1.89112e-21)
(0.0426767 -0.217907 -4.37812e-22)
(0.0398546 -0.203108 3.9019e-21)
(0.0377419 -0.189864 -2.03952e-21)
(0.0362893 -0.177985 -2.75874e-21)
(0.0354465 -0.167304 -5.18455e-21)
(0.0351635 -0.157668 1.13396e-20)
(0.0353907 -0.14894 -4.58871e-21)
(0.0360792 -0.140997 1.81727e-21)
(0.0371812 -0.133727 -7.34282e-21)
(0.0386502 -0.127032 2.86961e-21)
(0.0404406 -0.120822 -1.32586e-21)
(0.0425079 -0.115017 1.61084e-21)
(0.0448088 -0.109547 -6.19134e-22)
(0.0473013 -0.10435 5.96499e-21)
(0.0499448 -0.0993732 -2.18965e-21)
(0.0526997 -0.0945702 6.55381e-21)
(0.0555252 -0.0899044 -1.63679e-21)
(0.0583802 -0.0853468 9.14271e-21)
(0.0612597 -0.0808678 2.86605e-21)
(0.0642118 -0.0764276 5.55719e-21)
(0.066955 -0.0720577 -1.92209e-20)
(0.117318 -0.460974 7.18336e-21)
(0.105812 -0.41945 -1.48195e-21)
(0.0954379 -0.382464 3.22774e-21)
(0.0860543 -0.349587 -9.84151e-22)
(0.0776725 -0.320386 3.5713e-21)
(0.0703199 -0.294451 3.71192e-21)
(0.0639843 -0.271414 4.50309e-21)
(0.0586331 -0.250947 -4.37043e-22)
(0.0542233 -0.232751 -5.04715e-21)
(0.0507045 -0.216561 7.56075e-21)
(0.0480218 -0.202137 -8.10669e-22)
(0.046118 -0.189265 6.02756e-21)
(0.0449354 -0.177753 2.36347e-21)
(0.0444166 -0.167427 8.30506e-22)
(0.0445048 -0.158132 1.44585e-21)
(0.0451448 -0.149728 2.17463e-21)
(0.0462829 -0.142089 3.96331e-21)
(0.0478668 -0.135101 -1.28143e-21)
(0.0498455 -0.128662 6.57111e-21)
(0.0521695 -0.12268 3.31559e-21)
(0.0547909 -0.117074 -7.07986e-21)
(0.0576623 -0.111769 1.33291e-20)
(0.0607382 -0.106702 -1.84568e-20)
(0.063974 -0.101817 1.82762e-20)
(0.0673265 -0.0970665 -6.29701e-21)
(0.07075 -0.0924108 1.14908e-21)
(0.0741991 -0.0878206 -9.29542e-21)
(0.0776681 -0.0832637 5.27667e-21)
(0.0812128 -0.078694 2.05443e-21)
(0.084512 -0.0741582 -2.8479e-21)
(0.129256 -0.457469 -4.09848e-21)
(0.116632 -0.415906 4.75793e-21)
(0.105379 -0.379005 -1.35304e-21)
(0.0953207 -0.346315 4.19717e-21)
(0.0864438 -0.317376 4.39125e-22)
(0.0787539 -0.291757 1.20395e-21)
(0.0722188 -0.269074 -8.87719e-21)
(0.0667887 -0.248985 -1.7355e-21)
(0.062405 -0.231182 6.56203e-21)
(0.0590039 -0.21539 5.5195e-21)
(0.056519 -0.201365 -9.7747e-21)
(0.0548831 -0.188886 6.08322e-21)
(0.0540296 -0.177757 -6.32588e-21)
(0.0538935 -0.167802 4.78885e-21)
(0.0544116 -0.158862 -8.38272e-21)
(0.055523 -0.150795 -6.74344e-21)
(0.0571687 -0.143472 2.12679e-22)
(0.0592918 -0.136777 -3.57528e-21)
(0.0618375 -0.130605 6.18985e-21)
(0.0647523 -0.124862 2.69274e-21)
(0.0679843 -0.119464 -1.75965e-21)
(0.0714828 -0.114333 -5.07889e-22)
(0.075198 -0.109404 2.55546e-21)
(0.0790818 -0.104616 -8.47857e-21)
(0.0830866 -0.0999195 1.47712e-20)
(0.0871622 -0.0952733 -3.56682e-21)
(0.0912576 -0.0906456 -4.57538e-22)
(0.0953668 -0.086001 1.48652e-20)
(0.0995533 -0.0812854 2.36384e-21)
(0.103453 -0.0765628 -2.37703e-21)
(0.141101 -0.453683 1.96408e-22)
(0.127372 -0.412167 -2.43782e-21)
(0.115266 -0.375427 -2.51292e-21)
(0.104571 -0.34299 -4.54421e-21)
(0.0952432 -0.31437 1.78339e-22)
(0.087266 -0.289116 -3.93291e-21)
(0.0805857 -0.266829 4.71423e-21)
(0.0751337 -0.247153 -4.73205e-22)
(0.0708351 -0.229771 4.66847e-21)
(0.067612 -0.214403 -3.70976e-21)
(0.0653856 -0.200797 -2.10558e-21)
(0.0640783 -0.188729 1.23554e-21)
(0.0636144 -0.177999 7.16402e-22)
(0.0639211 -0.168428 -7.98277e-21)
(0.0649284 -0.159855 4.81257e-21)
(0.0665697 -0.152136 -2.69083e-21)
(0.068781 -0.14514 7.67532e-21)
(0.0715009 -0.138748 -2.71604e-21)
(0.0746703 -0.132853 2.89623e-21)
(0.0782322 -0.12736 8.05371e-22)
(0.0821309 -0.122178 5.67048e-21)
(0.0863119 -0.117231 -1.10933e-21)
(0.0907218 -0.112446 1.03201e-20)
(0.0953083 -0.107762 -1.17469e-20)
(0.10002 -0.103125 -4.30811e-21)
(0.104801 -0.0984887 3.66663e-21)
(0.109594 -0.0938205 -2.18277e-22)
(0.114393 -0.0890797 -7.03668e-21)
(0.11927 -0.0842026 5.85253e-21)
(0.123813 -0.0792726 -7.92469e-21)
(0.152847 -0.449621 7.03573e-21)
(0.138034 -0.408241 2.12801e-21)
(0.12511 -0.371741 2.80577e-21)
(0.113819 -0.339623 4.17386e-21)
(0.104091 -0.311379 6.70922e-21)
(0.0958816 -0.286539 -2.25002e-22)
(0.0891148 -0.264687 1.00109e-21)
(0.0837019 -0.245459 9.22959e-21)
(0.0795509 -0.228527 -1.88369e-21)
(0.0765688 -0.213605 -3.90085e-21)
(0.0746642 -0.200436 7.24542e-21)
(0.0737481 -0.188794 1.41345e-21)
(0.0737358 -0.178475 1.87359e-23)
(0.0745462 -0.169299 1.95178e-21)
(0.0761029 -0.161102 3.89253e-21)
(0.078333 -0.15374 -8.60752e-21)
(0.0811677 -0.147078 7.54802e-21)
(0.0845412 -0.140998 1.34992e-21)
(0.0883905 -0.13539 8.42063e-21)
(0.0926549 -0.130154 -4.66209e-21)
(0.0972751 -0.1252 8.28017e-21)
(0.102193 -0.120444 -9.23274e-21)
(0.107352 -0.115814 9.31152e-21)
(0.112695 -0.111242 1.59138e-21)
(0.118166 -0.106669 -6.75742e-21)
(0.123704 -0.102047 -2.50963e-21)
(0.129247 -0.0973376 1.4453e-20)
(0.134785 -0.0924945 1.08728e-20)
(0.1404 -0.0874421 3.0097e-21)
(0.145627 -0.0822852 -2.699e-21)
(0.164491 -0.445289 7.36263e-22)
(0.148622 -0.404138 1.99794e-21)
(0.134919 -0.367956 8.76767e-21)
(0.123083 -0.336225 -1.48286e-20)
(0.11301 -0.308415 -1.66077e-21)
(0.104629 -0.284036 -1.81339e-21)
(0.0978386 -0.262659 7.99785e-22)
(0.09253 -0.243909 1.24282e-21)
(0.0885925 -0.227453 2.27984e-21)
(0.0859176 -0.212996 -6.41052e-21)
(0.0844002 -0.20028 -1.53588e-21)
(0.0839402 -0.189075 3.91608e-21)
(0.0844428 -0.179177 4.7334e-21)
(0.0858192 -0.170402 -4.7393e-21)
(0.0879856 -0.162589 -5.3202e-21)
(0.0908636 -0.155588 8.36172e-21)
(0.0943792 -0.149267 5.99706e-21)
(0.0984626 -0.143504 -1.43857e-21)
(0.103047 -0.138189 -4.17952e-21)
(0.108068 -0.133219 8.34753e-22)
(0.113463 -0.128501 -1.09271e-20)
(0.119171 -0.123948 1.36476e-20)
(0.125131 -0.119481 -9.73441e-21)
(0.131283 -0.115031 -5.69362e-22)
(0.137566 -0.110531 6.94984e-21)
(0.143913 -0.105929 -2.31177e-21)
(0.150254 -0.101182 -7.44611e-21)
(0.156581 -0.0962332 9.31205e-21)
(0.16298 -0.0909943 -3.04413e-22)
(0.168933 -0.0855939 1.97606e-21)
(0.176028 -0.44069 -4.85866e-22)
(0.159139 -0.399864 -1.9999e-21)
(0.144705 -0.364081 -1.01213e-20)
(0.13238 -0.332805 3.69634e-21)
(0.122024 -0.305485 -1.30791e-21)
(0.113537 -0.281614 4.26556e-21)
(0.106792 -0.26075 3.14017e-22)
(0.101657 -0.242508 -5.88845e-21)
(0.0980026 -0.226549 9.29875e-21)
(0.095704 -0.212575 -8.81093e-21)
(0.0946421 -0.200324 -4.94685e-22)
(0.0947048 -0.189565 2.4295e-21)
(0.0957875 -0.180092 -4.40608e-21)
(0.0977928 -0.171722 5.41678e-21)
(0.10063 -0.164293 -1.07445e-20)
(0.104215 -0.157656 -2.80976e-21)
(0.108469 -0.151677 6.96393e-21)
(0.113317 -0.146235 -1.90943e-22)
(0.11869 -0.141217 -5.32994e-21)
(0.12452 -0.136519 1.45124e-20)
(0.130742 -0.132044 -7.80312e-21)
(0.13729 -0.127703 -1.13711e-20)
(0.144102 -0.123412 4.01247e-21)
(0.151113 -0.119094 -1.22434e-20)
(0.158258 -0.114679 -3.25356e-21)
(0.165463 -0.110107 -5.74299e-22)
(0.172652 -0.105328 -9.31151e-21)
(0.179814 -0.100276 1.11221e-20)
(0.187043 -0.0948437 -6.61305e-21)
(0.193762 -0.0891867 8.55015e-21)
(0.187455 -0.43583 -2.4874e-21)
(0.169591 -0.395427 -8.09968e-21)
(0.154481 -0.360125 4.41668e-21)
(0.14173 -0.329373 -4.4622e-21)
(0.131159 -0.302599 -3.61321e-21)
(0.122638 -0.279281 -2.32165e-21)
(0.116011 -0.258964 -8.63225e-21)
(0.111124 -0.241257 6.11392e-21)
(0.107826 -0.225814 -1.61155e-20)
(0.105976 -0.212336 -6.4837e-21)
(0.105441 -0.200558 2.12187e-21)
(0.106095 -0.190248 4.07989e-21)
(0.107824 -0.181201 9.51349e-23)
(0.110523 -0.173235 -8.79785e-21)
(0.114092 -0.166187 2.1062e-21)
(0.118443 -0.159911 -9.05373e-21)
(0.123491 -0.154272 -6.99332e-21)
(0.129158 -0.14915 -4.60703e-21)
(0.135372 -0.14443 -1.25719e-21)
(0.142061 -0.140007 7.73602e-21)
(0.149158 -0.135783 1.19639e-20)
(0.156596 -0.131662 -3.76538e-21)
(0.164307 -0.127558 -3.8865e-21)
(0.172225 -0.123387 7.65752e-21)
(0.180279 -0.119071 4.53893e-21)
(0.18839 -0.114542 -3.60504e-21)
(0.196474 -0.109743 -4.3119e-21)
(0.204517 -0.104595 3.88253e-22)
(0.212621 -0.0989679 4.97719e-21)
(0.220144 -0.0930463 7.55879e-21)
(0.198768 -0.430714 -6.32653e-22)
(0.179982 -0.390834 1.04888e-20)
(0.164261 -0.356096 8.91231e-21)
(0.151155 -0.325935 7.45362e-21)
(0.140445 -0.299763 -4.9944e-21)
(0.131966 -0.277039 -1.0596e-21)
(0.125535 -0.257303 9.16517e-22)
(0.120974 -0.240153 7.84183e-21)
(0.11811 -0.225243 3.15887e-21)
(0.116785 -0.212269 8.08065e-21)
(0.116849 -0.200968 -1.18376e-20)
(0.118166 -0.191106 1.12445e-21)
(0.12061 -0.182481 5.28093e-21)
(0.124066 -0.174912 3.50652e-21)
(0.12843 -0.168238 7.91829e-21)
(0.133604 -0.162314 -5.23723e-21)
(0.139502 -0.157009 -5.43537e-21)
(0.146041 -0.1522 8.71589e-22)
(0.153145 -0.147775 1.26281e-20)
(0.160741 -0.143627 -2.11661e-20)
(0.168759 -0.139656 7.5004e-21)
(0.177131 -0.135764 -1.2046e-22)
(0.185786 -0.131858 1.60041e-20)
(0.194654 -0.127849 -6.9563e-21)
(0.203662 -0.123649 -2.3799e-22)
(0.212724 -0.119183 -4.93559e-21)
(0.221748 -0.114382 4.77679e-21)
(0.230717 -0.109152 1.22325e-21)
(0.239738 -0.103336 -6.06284e-21)
(0.248103 -0.097149 2.2474e-20)
(0.209965 -0.425348 -9.97707e-21)
(0.190319 -0.386092 -6.47248e-21)
(0.17406 -0.352002 -1.7885e-20)
(0.160677 -0.322499 -8.89909e-21)
(0.149909 -0.29698 8.57275e-21)
(0.141556 -0.274892 -5.56249e-21)
(0.135405 -0.255765 -1.57134e-21)
(0.131252 -0.239194 -4.18724e-21)
(0.128903 -0.224828 7.18456e-21)
(0.128181 -0.212364 -1.74909e-21)
(0.128921 -0.201538 -2.84007e-21)
(0.130973 -0.192119 -4.05439e-22)
(0.134201 -0.183907 -1.35875e-20)
(0.138482 -0.176722 -1.01884e-21)
(0.143701 -0.170408 3.61089e-21)
(0.149759 -0.164822 -4.8286e-22)
(0.156561 -0.159835 -1.67664e-20)
(0.164022 -0.155327 1.69488e-20)
(0.172063 -0.151187 -1.75289e-20)
(0.18061 -0.14731 7.03992e-21)
(0.189591 -0.143592 1.01993e-21)
(0.198936 -0.139934 4.45694e-22)
(0.208574 -0.136237 -8.45836e-21)
(0.218433 -0.132406 3.04792e-21)
(0.228434 -0.128344 6.94221e-23)
(0.238489 -0.123964 1.12014e-21)
(0.248494 -0.119187 -2.53013e-20)
(0.258431 -0.113896 6.57483e-21)
(0.268412 -0.107906 7.68936e-21)
(0.277657 -0.101463 1.03923e-20)
(0.221042 -0.419737 1.97651e-20)
(0.200611 -0.381208 7.94529e-21)
(0.183895 -0.347847 4.89676e-21)
(0.170321 -0.319068 7.99604e-21)
(0.159582 -0.294255 -1.12742e-21)
(0.151444 -0.27284 6.89403e-21)
(0.145662 -0.254349 1.6298e-20)
(0.142004 -0.238373 -2.02478e-21)
(0.140254 -0.224559 1.08457e-21)
(0.140217 -0.212605 2.2811e-20)
(0.141711 -0.202248 -2.89363e-21)
(0.144574 -0.193261 3.49463e-21)
(0.148658 -0.185446 -1.52326e-21)
(0.153829 -0.178628 -5.71045e-22)
(0.159968 -0.172653 2.084e-20)
(0.166966 -0.167383 8.09033e-22)
(0.174725 -0.162693 2.45876e-20)
(0.183157 -0.158467 -2.96123e-21)
(0.192179 -0.154596 -5.8644e-21)
(0.201718 -0.150977 1.40354e-20)
(0.211699 -0.147506 -1.36277e-20)
(0.222052 -0.144083 1.52528e-20)
(0.232706 -0.140604 8.63587e-21)
(0.243588 -0.136968 -7.48481e-21)
(0.254617 -0.133067 1.13627e-20)
(0.2657 -0.128804 1.3379e-21)
(0.276725 -0.124082 -5.478e-21)
(0.287669 -0.118764 2.4245e-21)
(0.29865 -0.112627 1.98192e-20)
(0.308811 -0.105948 3.38453e-21)
(0.231998 -0.413885 -3.39143e-21)
(0.210865 -0.376187 -7.80729e-21)
(0.193782 -0.343638 3.54569e-21)
(0.180111 -0.315648 -1.4445e-20)
(0.169497 -0.291587 7.40853e-21)
(0.161669 -0.270881 -1.42337e-20)
(0.156348 -0.253049 -1.01457e-20)
(0.153276 -0.23768 2.86129e-21)
(0.152214 -0.224423 3.40718e-21)
(0.152946 -0.212975 -1.53507e-20)
(0.155276 -0.203077 -7.12288e-21)
(0.159026 -0.194505 3.5779e-21)
(0.164038 -0.187066 -9.82892e-21)
(0.170168 -0.180589 -4.18169e-21)
(0.177288 -0.174925 -3.00174e-21)
(0.185284 -0.169943 -3.09881e-21)
(0.194052 -0.16552 -1.36918e-20)
(0.203501 -0.161548 -9.20337e-21)
(0.213547 -0.157921 1.35715e-21)
(0.224112 -0.154539 3.09189e-21)
(0.235125 -0.151302 3.65033e-21)
(0.246515 -0.148108 -1.25473e-20)
(0.258211 -0.144852 4.94984e-21)
(0.270142 -0.141425 -1.05281e-20)
(0.282225 -0.137712 1.04778e-20)
(0.294364 -0.133599 -1.38816e-20)
(0.306442 -0.128976 4.77792e-21)
(0.318429 -0.123676 -7.1527e-21)
(0.330448 -0.117432 -1.07807e-20)
(0.34156 -0.110553 -1.28757e-21)
(0.242831 -0.407798 -7.24001e-21)
(0.22109 -0.371034 -7.04586e-21)
(0.20374 -0.339379 -7.51866e-21)
(0.190073 -0.312238 -6.14452e-21)
(0.179686 -0.288977 1.89817e-20)
(0.172267 -0.269011 2.95211e-21)
(0.167506 -0.251858 9.06173e-21)
(0.165114 -0.237105 1.47044e-20)
(0.164831 -0.224404 7.67454e-21)
(0.16642 -0.213454 -1.01922e-20)
(0.169668 -0.204 1.79762e-20)
(0.174385 -0.195822 -1.79008e-20)
(0.180399 -0.188731 1.78716e-20)
(0.187556 -0.182564 2.28483e-21)
(0.195721 -0.177177 4.96497e-21)
(0.204772 -0.172444 1.56093e-21)
(0.214602 -0.168251 2.20893e-20)
(0.225112 -0.164494 -3.33924e-21)
(0.236219 -0.161075 3.19569e-21)
(0.247843 -0.157899 1.13872e-20)
(0.259913 -0.154871 -1.29439e-20)
(0.272361 -0.151891 1.08652e-20)
(0.285117 -0.148855 4.98453e-22)
(0.298111 -0.145649 5.27334e-21)
(0.311266 -0.142148 1.00434e-20)
(0.324481 -0.138226 -1.75607e-21)
(0.337635 -0.133753 1.06357e-20)
(0.350695 -0.128528 1.61295e-20)
(0.363787 -0.122235 -1.74939e-20)
(0.375887 -0.11521 -1.26205e-20)
(0.25354 -0.40148 2.1876e-20)
(0.231296 -0.365755 -2.54482e-21)
(0.213787 -0.335071 5.76285e-21)
(0.200234 -0.30884 1.13896e-20)
(0.190182 -0.286421 -3.43797e-20)
(0.183278 -0.267224 3.8982e-21)
(0.179177 -0.250765 -1.46726e-20)
(0.177564 -0.236634 1.55346e-20)
(0.178153 -0.224484 -1.27009e-20)
(0.180689 -0.21402 7.65492e-21)
(0.184941 -0.20499 -2.79762e-20)
(0.190704 -0.19718 3.66059e-22)
(0.197794 -0.190406 -1.06243e-20)
(0.206049 -0.184512 1.60517e-20)
(0.215323 -0.179359 -1.78154e-20)
(0.225488 -0.17483 -1.02563e-21)
(0.236428 -0.170817 -1.59781e-20)
(0.248045 -0.167227 -1.48112e-21)
(0.260248 -0.163968 1.52774e-21)
(0.272959 -0.160953 4.19097e-21)
(0.286107 -0.158096 -2.31744e-20)
(0.299624 -0.155302 -8.27736e-22)
(0.313447 -0.152471 -1.39465e-20)
(0.327511 -0.149487 -3.39956e-21)
(0.341741 -0.146221 -9.25474e-21)
(0.356039 -0.142531 -1.05132e-20)
(0.370283 -0.138267 -1.14889e-20)
(0.384438 -0.133192 1.87177e-20)
(0.398635 -0.126927 5.17697e-21)
(0.411758 -0.119834 -1.20987e-20)
(0.264123 -0.394937 -1.4605e-20)
(0.241492 -0.360352 5.85144e-21)
(0.223943 -0.330717 -1.08627e-20)
(0.210621 -0.305452 1.68384e-21)
(0.201017 -0.283913 1.99385e-20)
(0.194737 -0.26551 -1.04382e-20)
(0.191402 -0.249757 -1.19325e-20)
(0.190668 -0.23625 -1.04313e-20)
(0.192226 -0.224645 3.92975e-22)
(0.195799 -0.21465 7.2525e-21)
(0.201141 -0.206021 -5.79429e-21)
(0.208032 -0.198549 -3.08555e-23)
(0.216276 -0.192055 1.94415e-20)
(0.225699 -0.18639 -1.00842e-20)
(0.236147 -0.181424 3.01554e-21)
(0.247482 -0.177045 -9.13147e-21)
(0.259586 -0.173156 3.49399e-21)
(0.272351 -0.169671 8.09196e-21)
(0.285686 -0.16651 9.79268e-21)
(0.299509 -0.163597 -1.09088e-20)
(0.313749 -0.160854 1.60615e-21)
(0.328343 -0.1582 1.01521e-20)
(0.343232 -0.155541 1.83855e-20)
(0.358356 -0.152767 5.22647e-21)
(0.37365 -0.149745 -2.00155e-20)
(0.389023 -0.146326 2.41929e-20)
(0.404356 -0.142338 -1.22564e-20)
(0.419618 -0.137503 -1.52626e-20)
(0.434943 -0.131367 -9.67716e-21)
(0.449124 -0.124311 -1.55971e-20)
(0.27458 -0.388172 8.01533e-21)
(0.25169 -0.354829 -6.92055e-21)
(0.234228 -0.326316 2.56139e-21)
(0.221259 -0.302069 1.56307e-20)
(0.212222 -0.281446 4.51815e-21)
(0.20668 -0.263857 -4.13315e-21)
(0.20422 -0.24882 1.02146e-20)
(0.204467 -0.235935 2.1236e-21)
(0.207091 -0.224863 1.07891e-20)
(0.211793 -0.215319 6.2373e-21)
(0.218312 -0.207065 1.65523e-22)
(0.226413 -0.199896 4.3411e-21)
(0.235887 -0.193643 -1.44324e-21)
(0.24655 -0.188161 2.63334e-21)
(0.258237 -0.183329 7.69965e-21)
(0.270804 -0.179041 -4.46891e-21)
(0.284123 -0.17521 1.14824e-20)
(0.298082 -0.171759 1.22341e-20)
(0.312583 -0.16862 -1.45146e-20)
(0.327544 -0.16573 1.50955e-20)
(0.342891 -0.163026 3.38677e-20)
(0.358562 -0.16044 -2.24911e-20)
(0.374505 -0.157895 2.35784e-20)
(0.390668 -0.155291 -1.68173e-20)
(0.406998 -0.152504 -2.51731e-21)
(0.423419 -0.149381 1.94743e-20)
(0.43982 -0.145736 -3.85919e-21)
(0.456182 -0.141244 1.55277e-20)
(0.472652 -0.135366 1.59684e-20)
(0.487926 -0.128485 -3.54286e-20)
(0.28491 -0.38119 -7.84756e-21)
(0.261901 -0.349185 3.75327e-21)
(0.244661 -0.321864 1.78731e-21)
(0.232177 -0.298684 -1.855e-20)
(0.223829 -0.279008 -1.03079e-20)
(0.219141 -0.26225 8.148e-21)
(0.217665 -0.247933 -2.39143e-20)
(0.218998 -0.235665 3.03143e-20)
(0.222785 -0.225113 -1.77689e-20)
(0.228709 -0.216 2.21909e-21)
(0.236492 -0.208091 -3.3677e-21)
(0.245884 -0.201192 -1.19388e-20)
(0.256664 -0.195138 2.53261e-20)
(0.268638 -0.189791 1.03356e-20)
(0.281631 -0.185036 -1.06695e-20)
(0.29549 -0.180776 2.67553e-22)
(0.31008 -0.176932 6.5832e-21)
(0.32528 -0.173436 -1.4983e-20)
(0.340988 -0.170231 3.13061e-21)
(0.357114 -0.167269 1.11125e-20)
(0.373584 -0.164502 -4.68783e-21)
(0.390335 -0.161884 8.41034e-21)
(0.407317 -0.159358 -1.67925e-20)
(0.424488 -0.156847 2.5102e-20)
(0.441812 -0.154248 6.33848e-21)
(0.459229 -0.151418 -1.66823e-20)
(0.47665 -0.148166 -1.51851e-20)
(0.494083 -0.144127 -3.20034e-22)
(0.511699 -0.138663 2.15055e-20)
(0.528098 -0.132136 -6.32104e-21)
(0.295113 -0.373995 -2.2246e-21)
(0.272136 -0.343421 -1.73879e-20)
(0.255264 -0.317356 2.13056e-20)
(0.243399 -0.295285 1.52872e-20)
(0.235868 -0.276583 1.62998e-20)
(0.232152 -0.260668 5.03741e-21)
(0.23177 -0.247075 7.56064e-21)
(0.234292 -0.235416 4.0914e-21)
(0.239339 -0.225368 -1.69761e-20)
(0.246576 -0.216662 3.19814e-20)
(0.255707 -0.209071 -2.76367e-20)
(0.26647 -0.202406 -2.23653e-21)
(0.278633 -0.196509 4.11239e-21)
(0.291988 -0.191249 -2.06463e-20)
(0.306353 -0.186517 1.84608e-20)
(0.321567 -0.182222 -5.64022e-21)
(0.337484 -0.178291 -1.53798e-20)
(0.353978 -0.174666 6.37638e-21)
(0.370938 -0.171299 -1.22421e-20)
(0.388268 -0.168155 -1.12982e-20)
(0.405886 -0.165203 -1.26849e-20)
(0.423727 -0.162419 2.95381e-21)
(0.44174 -0.159774 1.97909e-21)
(0.45989 -0.157225 -3.39494e-20)
(0.478153 -0.154702 -1.36039e-20)
(0.496495 -0.152101 8.53912e-21)
(0.514858 -0.149249 1.12012e-20)
(0.533297 -0.145757 -1.57576e-20)
(0.552039 -0.140882 -6.27481e-21)
(0.569591 -0.134931 1.12189e-21)
(0.30519 -0.366587 -1.65029e-21)
(0.28241 -0.337535 1.12395e-20)
(0.266058 -0.312784 -3.25465e-21)
(0.254951 -0.291859 -4.09109e-21)
(0.248363 -0.274152 -2.55124e-20)
(0.245738 -0.25909 -6.1452e-21)
(0.246561 -0.246218 1.17261e-20)
(0.250374 -0.235158 -8.2526e-21)
(0.256777 -0.225598 -1.02529e-21)
(0.265415 -0.217275 -1.69774e-21)
(0.275977 -0.209972 1.05669e-20)
(0.288188 -0.203506 -1.70372e-20)
(0.301804 -0.197728 -1.2032e-20)
(0.316609 -0.19251 1.47488e-20)
(0.332411 -0.187749 -8.82037e-21)
(0.349041 -0.183361 -1.11869e-20)
(0.366346 -0.179275 2.44291e-20)
(0.384191 -0.17544 -3.91233e-21)
(0.402459 -0.171815 1.57771e-20)
(0.421043 -0.168374 -1.45911e-20)
(0.439854 -0.1651 -1.24399e-20)
(0.458819 -0.161987 1.10981e-20)
(0.477879 -0.159037 -1.13292e-21)
(0.496999 -0.156247 -8.8187e-21)
(0.516161 -0.153601 7.99962e-21)
(0.535353 -0.151057 -2.57909e-20)
(0.554558 -0.148511 1.58343e-20)
(0.573902 -0.145601 -2.80601e-22)
(0.593723 -0.141496 -1.74673e-20)
(0.612465 -0.136408 2.84736e-20)
(0.315149 -0.358971 8.16668e-21)
(0.292742 -0.331521 -2.19753e-20)
(0.277065 -0.308133 -2.07531e-21)
(0.266855 -0.288385 1.1564e-20)
(0.261339 -0.27169 -3.18612e-21)
(0.259923 -0.257487 -9.46844e-21)
(0.262059 -0.245331 4.57757e-21)
(0.267264 -0.234858 5.64899e-21)
(0.275114 -0.225766 5.27463e-22)
(0.285238 -0.217803 7.55921e-21)
(0.297309 -0.210759 2.54294e-20)
(0.311039 -0.204462 -8.94327e-21)
(0.326175 -0.198766 2.63776e-21)
(0.342492 -0.193551 -7.04634e-21)
(0.359791 -0.188719 2.69271e-20)
(0.377895 -0.184187 -5.12361e-21)
(0.396647 -0.179891 1.74434e-20)
(0.415905 -0.175778 -7.10646e-21)
(0.435544 -0.171812 7.88199e-21)
(0.45545 -0.167968 1.23828e-20)
(0.475525 -0.164236 2.27408e-21)
(0.495683 -0.160622 8.93096e-21)
(0.515855 -0.157146 -7.66734e-21)
(0.53599 -0.153844 2.16418e-20)
(0.556068 -0.150758 -9.07152e-21)
(0.57608 -0.147939 3.41927e-20)
(0.596037 -0.145413 -9.92135e-21)
(0.616153 -0.142952 7.01833e-21)
(0.636979 -0.139713 -1.35356e-20)
(0.656985 -0.135776 2.70938e-20)
(0.325022 -0.351153 -1.76881e-20)
(0.303161 -0.325368 6.10709e-22)
(0.288306 -0.303381 -1.24935e-20)
(0.279129 -0.284837 2.37403e-21)
(0.274812 -0.269168 7.15103e-22)
(0.274722 -0.255826 -1.27253e-20)
(0.278279 -0.244379 -2.50198e-20)
(0.284973 -0.234479 1.30094e-20)
(0.294358 -0.225835 -1.89999e-20)
(0.306047 -0.218206 -1.06601e-20)
(0.319697 -0.211395 -6.42405e-21)
(0.335011 -0.205236 -5.49053e-21)
(0.351725 -0.199593 2.93922e-22)
(0.369608 -0.19435 -2.0552e-20)
(0.388455 -0.189414 1.45666e-20)
(0.408085 -0.184705 -2.41337e-20)
(0.428336 -0.18016 -6.45975e-21)
(0.449065 -0.175726 7.17047e-21)
(0.470142 -0.171363 9.36883e-21)
(0.491451 -0.167044 9.79657e-21)
(0.512886 -0.162752 7.80473e-21)
(0.534354 -0.158488 -1.99648e-20)
(0.55577 -0.154271 2.07562e-20)