/*--------------------------------*- C++ -*----------------------------------*\
  =========                 |
  \\      /  F ield         | OpenFOAM: The Open Source CFD Toolbox
   \\    /   O peration     | Website:  https://openfoam.org
    \\  /    A nd           | Version:  6.0
     \\/     M anipulation  |
\*---------------------------------------------------------------------------*/
FoamFile
{
    version     2.0;
    format      ascii;
    class       surfaceScalarField;
    location    "20.265";
    object      phi;
}
// * * * * * * * * * * * * * * * * * * * * * * * * * * * * * * * * * * * * * //

dimensions      [0 3 -1 0 0 0 0];

internalField   nonuniform List<scalar> 
4670
(
-0.000185227
-0.0216331
0.0218184
-0.000506785
-0.0167256
0.0170472
-0.000840989
-0.0130808
0.013415
-0.00111975
-0.0103841
0.0106628
-0.00130942
-0.00838419
0.00857387
-0.00139973
-0.00688681
0.00697712
-0.00139679
-0.00574522
0.00574228
-0.00131861
-0.00485052
0.00477234
-0.00119223
-0.00412256
0.00399617
-0.00350362
0.00336264
-0.00105124
-0.000169289
-0.0214639
-0.000438311
-0.0164566
-0.000678037
-0.0128411
-0.000819645
-0.0102425
-0.000830261
-0.00837358
-0.000700587
-0.00701649
-0.00043799
-0.00600781
-6.26723e-05
-0.00522583
0.000394221
-0.00457946
-0.00400164
0.000892236
-0.000144974
-0.0213189
-0.000334531
-0.016267
-0.000439244
-0.0127364
-0.000391919
-0.0102898
-0.000161159
-0.00860434
0.000261838
-0.00743949
0.000869827
-0.0066158
0.00164213
-0.00599813
0.00254462
-0.00548194
-0.0049863
0.00352928
-0.000110873
-0.021208
-0.000194609
-0.0161833
-0.000125308
-0.0128057
0.000159436
-0.0105745
0.000687741
-0.00913264
0.00146749
-0.00821923
0.00249257
-0.00764089
0.00374408
-0.00724964
0.00518746
-0.00692532
-0.00656687
0.00676803
-6.58729e-05
-0.0211421
-1.61178e-05
-0.0162331
0.000266708
-0.0130885
0.000836046
-0.0111439
0.00171352
-0.0100101
0.00290408
-0.0094098
0.00440258
-0.00913939
0.00619401
-0.00904107
0.00824756
-0.00897887
-0.00882477
0.0105055
-8.25019e-06
-0.0211339
0.000205339
-0.0164467
0.000743727
-0.0136269
0.00164624
-0.0120464
0.0029232
-0.0112871
0.00457235
-0.0110589
0.00658663
-0.0111537
0.00895539
-0.0114098
0.0116567
-0.0116802
-0.011805
0.0146369
6.41446e-05
-0.021198
0.000475096
-0.0168576
0.00131459
-0.0144664
0.00260236
-0.0133342
0.00433161
-0.0130163
0.00648605
-0.0132134
0.00904972
-0.0137173
0.0120118
-0.0143719
0.0153627
-0.0150311
-0.0155072
0.019065
0.000153196
-0.0213512
0.000796992
-0.0175014
0.00198511
-0.0156545
0.00371309
-0.0150621
0.00595148
-0.0152547
0.00866186
-0.0159238
0.0118079
-0.0168633
0.0153657
-0.0179298
0.0193334
-0.0189987
-0.0198938
0.0237199
0.000259779
-0.021611
0.00117023
-0.0184119
0.00275146
-0.0172357
0.00497279
-0.0172835
0.00777994
-0.0180619
0.0111071
-0.019251
0.0148855
-0.0206417
0.0190545
-0.0220988
0.0235972
-0.0235415
-0.024937
0.0286404
0.000383726
-0.0219947
0.00158537
-0.0196135
0.0035907
-0.0192411
0.00634483
-0.0200376
0.00977533
-0.0214924
0.0138014
-0.0232771
0.0183355
-0.0251757
0.0232751
-0.0270384
0.028504
-0.0287703
-0.030405
0.0339721
0.0302353
0.001187
-0.0314223
0.0290436
0.0011917
0.0278741
0.00116953
0.0267522
0.00112186
0.0257002
0.00105206
0.0247359
0.000964239
0.0238735
0.000862425
0.0231236
0.000749948
0.0224946
0.000628966
0.000499861
0.0402314
0.00370849
-0.0427529
0.0375913
0.0038318
0.0349031
0.00385778
0.0322341
0.0037908
0.0296469
0.00363926
0.0271969
0.00341422
0.0249319
0.00312751
0.0228919
0.00278994
0.0211106
0.00241029
0.00199691
0.0490398
0.00687947
-0.0522108
0.0455992
0.00727241
0.0419821
0.00747493
0.0382842
0.00748868
0.0346
0.00732345
0.0310188
0.00699538
0.0276225
0.0065239
0.0244845
0.0059279
0.0216713
0.00522348
0.00442715
0.0563159
0.0102221
-0.0596586
0.0525512
0.0110371
0.048462
0.0115642
0.0441563
0.0117943
0.039748
0.0117317
0.0353514
0.011392
0.031077
0.0107983
0.0270309
0.00997405
0.0233165
0.00893788
0.00770605
0.062006
0.0134226
-0.0652064
0.0582538
0.0147892
0.0540372
0.0157808
0.0494612
0.0163704
0.0446443
0.0165486
0.0397129
0.0163234
0.0347959
0.0157153
0.0300238
0.0147461
0.0255355
0.0134261
0.0117492
0.0662278
0.0162997
-0.0691049
0.0627057
0.0183113
0.0586055
0.019881
0.054017
0.020959
0.0490497
0.0215158
0.0438279
0.0215453
0.0384839
0.0210592
0.0331582
0.0200719
0.0280132
0.0185711
0.0164854
0.0691841
0.0187724
-0.0716568
0.066013
0.0214824
0.0621858
0.0237082
0.0577694
0.0253753
0.0528543
0.0264309
0.0475496
0.02685
0.0419751
0.0266337
0.036259
0.025788
0.0305613
0.0242688
0.0218709
0.0711016
0.0208286
-0.0731577
0.0683303
0.0242537
0.0648621
0.0271764
0.0607391
0.0294984
0.0560274
0.0311425
0.0508129
0.0320645
0.0451891
0.0322575
0.0392446
0.0317324
0.0330848
0.0304287
0.0279172
0.0721909
0.0224981
-0.0738604
0.0698187
0.0266259
0.0667429
0.0302522
0.062983
0.0332582
0.0585819
0.0355436
0.053601
0.0370455
0.0481033
0.0377552
0.0421183
0.0377174
0.0356092
0.0369379
0.034756
0.0726218
-0.073959
0.0238354
0.0706154
0.0286322
0.0679265
0.0329412
0.0645585
0.0366262
0.0605364
0.0395658
0.0559039
0.0416779
0.0507076
0.0429515
0.0449435
0.0434816
0.0384172
0.0434642
0.0427682
0.0367873
-0.000324718
-0.0364626
0.0369098
-0.000122476
0.0368254
8.44408e-05
0.036537
0.000288402
0.0360538
0.000483146
0.035391
0.000662788
0.0345691
0.000821887
0.0336135
0.000955682
0.0325533
0.00106012
0.00113101
0.0509576
-0.00149833
-0.049784
0.0517047
-0.000869626
0.0520136
-0.000224424
0.0518786
0.000423396
0.0513037
0.00105804
0.0503038
0.00166268
0.0489055
0.00222021
0.0471469
0.0027143
0.0450768
0.00313017
0.0034549
0.058988
-0.00346636
-0.0570199
0.060441
-0.00232268
0.0613522
-0.00113557
0.0616998
7.5758e-05
0.0614719
0.00128597
0.0606685
0.00246604
0.0593039
0.00358488
0.0574072
0.004611
0.0550231
0.00551425
0.00626716
0.0629778
-0.00607158
-0.0603726
0.0650613
-0.00440619
0.0665818
-0.00265605
0.0675013
-0.000843738
0.0677904
0.000996897
0.0674309
0.0028255
0.0664184
0.00459736
0.064764
0.00626548
0.0624954
0.00778278
0.00910405
0.0644385
-0.00913714
-0.061373
0.0670193
-0.00698694
0.0690608
-0.00469757
0.0705116
-0.00229448
0.0713286
0.000179907
0.071479
0.00267505
0.0709418
0.00513454
0.0697093
0.00749799
0.0677891
0.00970294
0.0116868
0.0644293
-0.0125117
-0.0610547
0.0673749
-0.00993257
0.069821
-0.00714364
0.0717057
-0.00417917
0.072979
-0.00109347
0.0736009
0.00205324
0.0735399
0.00519551
0.0727746
0.00826329
0.0712949
0.0111827
0.0138767
0.0636515
-0.0160931
-0.0600701
0.0668594
-0.0131405
0.0695997
-0.00988397
0.0718062
-0.00638562
0.0734309
-0.00271826
0.0744351
0.00104904
0.0747851
0.00484551
0.0744521
0.00859631
0.0734137
0.0122211
0.0156336
0.0625528
-0.0198446
-0.0588013
0.0659532
-0.0165408
0.0688907
-0.0128215
0.0713088
-0.00880375
0.0731736
-0.00458307
0.0744556
-0.000232876
0.0751246
0.00417651
0.07515
0.00857082
0.0745027
0.0128685
0.0169786
0.0614375
-0.023789
-0.0574931
0.0649592
-0.0200626
0.0679941
-0.0158564
0.070518
-0.0113276
0.0725192
-0.00658427
0.0739799
-0.00169356
0.074875
0.00328136
0.0751748
0.00827104
0.0748471
0.0131962
0.0179652
0.060497
-0.0564359
-0.0278501
0.0640404
-0.023606
0.0670549
-0.0188708
0.0695896
-0.0138624
0.0716438
-0.00863842
0.0732033
-0.00325306
0.0742449
0.00223971
0.0747398
0.00777622
0.0746555
0.0132804
0.0186617
0.0423556
0.0134344
-0.00815422
-0.0476357
0.0369909
0.0141706
-0.00880598
0.0315431
0.0150458
-0.00959801
0.0260288
0.0161073
-0.010593
0.0204919
0.017414
-0.011877
0.0150266
0.0190168
-0.0135515
0.00981306
0.0209218
-0.0157083
0.00516903
0.0230158
-0.0183718
0.00162082
0.0249364
-0.0213882
0.0258545
-0.0242337
0.042126
0.0186873
-0.0473789
0.0367871
0.0195095
0.0313642
0.0204686
0.0258743
0.0215972
0.0203615
0.0229268
0.0149209
0.0244574
0.00973378
0.0261089
0.00511917
0.0276304
0.00160151
0.0284541
0.027456
0.0415232
0.0238828
-0.0467187
0.0362414
0.0247913
0.0308771
0.025833
0.0254484
0.0270259
0.0200009
0.0283742
0.0146315
0.0298269
0.00952253
0.0312179
0.00499144
0.0321615
0.00155325
0.0318923
0.0290092
0.0405508
0.0289928
-0.0456609
0.0353558
0.0299863
0.0300826
0.0311062
0.0247515
0.0323571
0.0194106
0.0337151
0.0141591
0.0350784
0.00918039
0.0361965
0.00478739
0.0365545
0.00147789
0.0352018
0.0304871
0.0392114
0.033992
-0.0442106
0.0341317
0.035066
0.0289816
0.0362562
0.0237845
0.0375542
0.0185918
0.0389078
0.0135055
0.0401647
0.00870949
0.0409926
0.00450906
0.0407549
0.00137667
0.0383341
0.0318638
0.0375047
0.0388564
-0.0423691
0.0325682
0.0400025
0.027574
0.0412504
0.0225484
0.0425798
0.0175465
0.0439097
0.0126736
0.0450375
0.0081131
0.0455531
0.00415928
0.0447087
0.00125102
0.0412424
0.0331148
0.0354234
0.0435615
-0.0401285
0.03066
0.0447658
0.0258571
0.0460534
0.0210433
0.0473935
0.0162773
0.0486758
0.0116676
0.0496472
0.00739601
0.0498247
0.00374204
0.0483627
0.00110291
0.0438815
0.0342177
0.0329483
0.0480753
-0.0374621
0.0283954
0.0493188
0.0238269
0.0506218
0.0192706
0.0519498
0.0147889
0.0531575
0.0104942
0.0539419
0.0065652
0.0537537
0.00326292
0.051665
0.00093499
0.0462095
0.0351527
0.0300332
0.0523609
-0.0343188
0.0257532
0.0535989
0.0214807
0.0548943
0.0172358
0.0561946
0.0130908
0.0573025
0.00916422
0.0578685
0.00563105
0.0572869
0.00272988
0.0545662
0.00075118
0.0481882
0.0359039
0.0266273
-0.0307023
0.0227331
0.0188261
0.0149507
0.0111985
0.00769399
0.00460827
0.0021545
0.000558699
0.0246364
-0.0358146
0.0400836
-0.0289054
0.0206521
-0.0356158
0.0396001
0.0168112
-0.0350827
0.0389236
0.0131377
-0.0340411
0.0377146
0.00970582
-0.0321658
0.0355977
0.00661297
-0.028982
0.0320749
0.00397328
-0.0238409
0.0264806
0.00190763
-0.0158999
0.0179656
0.000537226
-0.00411595
0.00548635
0.0128187
-0.0122815
0.0280677
-0.0314895
-0.0323928
0.0237943
-0.0313424
0.0196066
-0.0308951
0.0155458
-0.0299803
0.0116852
-0.0283052
0.00812773
-0.0254245
0.00500414
-0.0207173
0.00247288
-0.0133686
0.000723055
-0.00236612
0.0135418
0.0310813
-0.0270111
-0.0355596
0.0265815
-0.0268426
0.0221129
-0.0264265
0.0177266
-0.0255939
0.013496
-0.0240747
0.00952757
-0.0214561
0.00596665
-0.0171564
0.00300594
-0.0104079
0.000899202
-0.000259385
0.014441
0.033711
-0.022364
-0.0383581
0.0290182
-0.0221498
0.0243184
-0.0217267
0.0196599
-0.0209355
0.0151144
-0.0195291
0.0107895
-0.0171312
0.00684227
-0.0132092
0.00349547
-0.00706113
0.00106263
0.00217346
0.0155036
0.0359964
-0.0175567
-0.0408037
0.0311303
-0.0172838
0.0262321
-0.0168284
0.0213432
-0.0160465
0.0165304
-0.0147163
0.0119005
-0.0125013
0.00761868
-0.00892732
0.00393283
-0.00337529
0.00120984
0.00489645
0.0167135
0.0379441
-0.0126051
-0.0428956
0.0329253
-0.012265
0.0278575
-0.0117606
0.0227748
-0.0109639
0.0177383
-0.00967983
0.0128523
-0.00761527
0.00828712
-0.00436217
0.00431141
0.000600415
0.00133795
0.00786991
0.0180514
0.0395485
-0.00753084
-0.0446227
0.0344014
-0.00711799
0.0291932
-0.00655232
0.023952
-0.00572271
0.0187334
-0.00446118
0.0136384
-0.00252033
0.00884104
0.000435224
0.0046261
0.00481536
0.00144465
0.0110514
0.019496
0.0408006
-0.00235975
-0.0459717
0.0355527
-0.00187013
0.030235
-0.00123461
0.0248709
-0.000358572
0.0195111
0.000898642
0.0142539
0.00273687
0.00927528
0.0054138
0.0048729
0.00921774
0.00152813
0.0143961
0.0210242
0.0416911
0.00287903
-0.0469299
0.0363725
0.00344846
0.0309778
0.00416007
0.0255269
0.00509231
0.0200671
0.00635852
0.0146942
0.00810974
0.00958582
0.0105222
0.00504893
0.0137546
0.00158722
0.0178578
0.0226114
0.0422123
-0.0474875
0.0368548
0.0314168
0.0259162
0.0203976
0.0149559
0.00976974
0.0051526
0.00162226
0.04423
0.0213519
-0.0254982
0.0477325
0.0174162
-0.0209187
0.0506458
0.0129848
-0.0158981
0.0530187
0.0082309
-0.0106038
0.0548392
0.00329933
-0.00511988
0.0560786
-0.00170921
0.000469815
0.056698
-0.00669272
0.00607329
0.0566559
-0.0115376
0.0115797
0.0559144
-0.0161186
0.0168601
-0.0203019
0.054446
0.0217703
0.0434639
0.0174881
0.0468721
0.014008
0.0497311
0.0101258
0.0520035
0.00595843
0.0536679
0.00163499
0.0546949
-0.00273619
0.0550497
-0.00704755
0.0546983
-0.0111861
0.0536138
-0.0150341
-0.0184721
0.051784
0.0425071
0.0139046
0.0456924
0.0108226
0.0483507
0.00746751
0.0504085
0.00390067
0.051822
0.000221494
0.052555
-0.00346925
0.052576
-0.00706854
0.0518609
-0.010471
0.0503986
-0.0135719
-0.0162711
0.0481976
0.0410245
0.0105947
0.0439052
0.00794197
0.0462523
0.00512038
0.0479865
0.00216643
0.0490539
-0.000845887
0.049416
-0.00383136
0.0490476
-0.00670014
0.0479385
-0.00936187
0.046097
-0.0117304
-0.0137289
0.0435548
0.0385907
0.00760165
0.0411003
0.00543236
0.043051
0.00316967
0.0443748
0.000842646
0.0450223
-0.00149341
0.0449624
-0.00377147
0.0441825
-0.00592016
0.0426899
-0.00786928
0.0405146
-0.00955511
-0.0109253
0.0377109
0.034675
0.00500152
0.0367465
0.00336087
0.0382367
0.00167943
0.0390968
-1.74112e-05
0.0392927
-0.00168931
0.038809
-0.00328782
0.037651
-0.00476215
0.0358459
-0.00606419
0.0334438
-0.00715295
-0.00799827
0.0305168
0.0286017
0.00288045
0.0301784
0.00178418
0.0311777
0.000680083
0.0315726
-0.000412342
0.0313498
-0.00146648
0.0305137
-0.00245167
0.0290885
-0.00333696
0.0271189
-0.00409462
0.0246691
-0.00470312
-0.00514936
0.0218202
0.0195328
0.00131316
0.0205906
0.000726403
0.0211239
0.000146785
0.0211265
-0.000414905
0.0206048
-0.000944771
0.0195806
-0.00142751
0.0180922
-0.00184852
0.0161933
-0.0021957
0.0139512
-0.00246107
-0.00264187
0.0114437
0.00645354
0.000345974
0.00702079
0.000159153
0.00718785
-2.0271e-05
0.0069631
-0.000190159
0.0063647
-0.00034637
0.00542164
-0.000484455
0.00417359
-0.00060047
0.00266944
-0.000691539
0.000964758
-0.000756388
-0.000796398
-0.000880716
-0.0119355
-0.0117764
-0.0117967
-0.0119868
-0.0123332
-0.0128176
-0.0134181
-0.0141096
-0.014866
-0.0156624
0.0522433
-0.0239697
0.0261724
0.0493224
-0.0269614
0.0298823
0.0457337
-0.0292009
0.0327895
0.0415608
-0.0306386
0.0348115
0.0369129
-0.0312846
0.0359325
0.0319067
-0.0312084
0.0362146
0.0266349
-0.030518
0.0357898
0.0211145
-0.0292944
0.0348148
0.0152277
-0.0274057
0.0332925
-0.0239236
0.00846136
0.03069
0.04922
-0.0214057
0.0459606
-0.023702
0.042078
-0.0253183
0.0376744
-0.026235
0.0328707
-0.0264809
0.0277868
-0.0261244
0.0225132
-0.0252444
0.0170828
-0.023864
0.0114989
-0.0218218
-0.0185247
0.00609989
0.0452919
-0.0185
0.0417451
-0.0201552
0.0376509
-0.021224
0.0331264
-0.0217106
0.0283004
-0.0216548
0.0232953
-0.0211193
0.0182103
-0.0201594
0.013121
-0.0187747
0.00814314
-0.016844
-0.0140699
0.0036884
0.0403697
-0.0153148
0.0366278
-0.0164133
0.0324392
-0.0170354
0.0279295
-0.0172009
0.0232284
-0.0169538
0.0184567
-0.0163475
0.0137185
-0.0154212
0.00911374
-0.0141699
0.00479077
-0.012521
-0.0103491
0.00106991
0.0343562
-0.0119601
0.0305532
-0.0126104
0.0264195
-0.0129017
0.0220803
-0.0128616
0.0176579
-0.0125314
0.0132637
-0.0119534
0.00899701
-0.0111546
0.00495851
-0.0101314
0.00128389
-0.00884637
-0.00725741
-0.00180776
0.0271539
-0.00859716
0.0234647
-0.00892122
0.0195638
-0.00900077
0.0155655
-0.00886331
0.0115765
-0.00854237
0.00769144
-0.00806833
0.00399534
-0.00745847
0.000574366
-0.00671048
-0.00246549
-0.00580651
-0.00473762
-0.00498528
0.0186615
-0.0054385
0.0152979
-0.0055576
0.0118297
-0.00553259
0.00835168
-0.00538529
0.00494814
-0.00513883
0.00169182
-0.00481202
-0.00135246
-0.00441419
-0.00411971
-0.00394322
-0.00653578
-0.00339045
-0.00275608
-0.00851732
0.00874783
-0.00274262
0.0059519
-0.00276167
0.00313313
-0.00271383
0.000360407
-0.00261257
-0.00230792
-0.0024705
-0.00482313
-0.00229681
-0.00714217
-0.00209515
-0.00922207
-0.00186332
-0.0110158
-0.00159675
-0.00129668
-0.0124752
-0.00281282
-0.000810515
-0.00477068
-0.000803808
-0.00670585
-0.000778652
-0.00857777
-0.000740653
-0.0103543
-0.000693993
-0.0120097
-0.000641346
-0.0135216
-0.000583312
-0.0148664
-0.00051845
-0.0160184
-0.000444758
-0.000363781
-0.0169513
-0.0164729
-0.0172768
-0.0180554
-0.0187961
-0.0194901
-0.0201314
-0.0207147
-0.0212332
-0.0216779
-0.0220417
0.000263296
-0.022305
0.000963235
-0.0176513
0.00206508
-0.013577
0.00356025
-0.0100125
0.00544791
-0.00687295
0.00772455
-0.00408439
0.0103772
-0.00158271
0.0133732
0.000692353
0.0166666
0.00280654
0.00484888
0.020279
0.0001764
-0.0224814
0.000651745
-0.0181266
0.00141152
-0.0143368
0.00245369
-0.0110547
0.00377815
-0.00819741
0.00538173
-0.00568798
0.00725866
-0.00345964
0.00940879
-0.00145777
0.0118691
0.000346226
0.00191399
0.014804
9.46126e-05
-0.022576
0.000368833
-0.0184008
0.000829656
-0.0147976
0.00148834
-0.0117133
0.0023563
-0.00906537
0.00344464
-0.00677632
0.00476728
-0.00478228
0.00634734
-0.00303783
0.00822306
-0.0015295
-0.00029787
0.0104349
2.25642e-05
-0.0225986
0.000123393
-0.0185017
0.000332114
-0.0150063
0.00067442
-0.0120556
0.00117283
-0.00956377
0.00184815
-0.00745163
0.00272194
-0.00565607
0.00381818
-0.00413407
0.00515875
-0.00287007
-0.00188039
0.00674128
-3.88885e-05
-0.0225597
-8.29582e-05
-0.0184576
-8.11284e-05
-0.0150082
4.9421e-06
-0.0121417
0.000205261
-0.00976409
0.000544073
-0.00779044
0.00104162
-0.00615362
0.00171386
-0.00480631
0.00256711
-0.00372332
-0.0028996
0.00358631
-8.98421e-05
-0.0224698
-0.0002508
-0.0182966
-0.000412826
-0.0148461
-0.000527717
-0.0120268
-0.00056155
-0.00973026
-0.000490835
-0.00786116
-0.000300364
-0.00634409
1.69244e-05
-0.00512359
0.000457042
-0.00416344
-0.00344289
0.00100033
-0.000130304
-0.0223395
-0.000380314
-0.0180466
-0.000663908
-0.0145625
-0.000925655
-0.0117651
-0.00113019
-0.00952573
-0.00125674
-0.0077346
-0.00129585
-0.00630499
-0.00124774
-0.0051717
-0.00112275
-0.00428843
-0.00362341
-0.000942224
-0.000159938
-0.0221796
-0.000470704
-0.0177359
-0.00083294
-0.0142003
-0.00118597
-0.011412
-0.00149432
-0.00921739
-0.00174046
-0.00748846
-0.00192014
-0.0061253
-0.00203936
-0.00505249
-0.00211289
-0.0042149
-0.00357299
-0.00216332
-0.000178072
-0.0220015
-0.000520699
-0.0173932
-0.000917763
-0.0138032
-0.00130458
-0.0110252
-0.00164605
-0.00887592
-0.00192767
-0.00720684
-0.0021496
-0.00590337
-0.00232255
-0.00487954
-0.00246521
-0.00407223
-0.0034359
-0.00260229
-0.00018315
-0.00052921
-0.000917422
-0.00127981
-0.00158186
-0.00181158
-0.00197267
-0.00207987
-0.00215593
-0.0022292
-0.000830985
-0.00934916
0.00912891
0.00188744
-0.0118029
0.00908445
0.00560061
-0.0135608
0.00984764
0.00987658
-0.0161849
0.011909
0.0143754
-0.0184928
0.013994
0.0188027
-0.0197839
0.0153566
0.0230565
-0.019665
0.0154113
0.0270744
-0.0176025
0.0135846
0.0308644
-0.0133577
0.00956764
0.0344379
-0.0074124
0.00383893
0.0378427
-0.00138588
-0.00201886
0.041061
0.00198439
-0.0052027
0.044082
-0.00191734
-0.00110367
0.0465844
-0.0127151
0.0102128
0.0484842
-0.0336574
0.0317575
0.0496169
-0.0420417
0.040909
0.0506874
-0.0380036
0.0369331
0.0517115
0.000116653
-0.00114078
0.0535937
0.0436412
-0.0455234
0.0166472
-0.0182953
0.00164405
-0.010101
0.00455467
-0.0147135
0.00831615
-0.0173223
0.0124818
-0.0203506
0.0167799
-0.022791
0.0209634
-0.0239674
0.0249601
-0.0236617
0.0287365
-0.021379
0.0323222
-0.0169433
0.035743
-0.0108332
0.0390452
-0.00468808
0.0421924
-0.00116288
0.0451304
-0.00485528
0.0475109
-0.0150957
0.0492185
-0.035365
0.050134
-0.0429572
0.0509952
-0.0388648
0.0519229
-0.000811095
0.0538735
0.0416906
0.0149353
0.00494885
-0.0115205
0.0080284
-0.017793
0.0117752
-0.0210691
0.0157416
-0.0243169
0.019745
-0.0267944
0.0235994
-0.0278218
0.0272639
-0.0273261
0.0307329
-0.024848
0.034054
-0.0202645
0.0372654
-0.0140446
0.0404105
-0.00783315
0.043436
-0.0041884
0.0462491
-0.00766838
0.0484828
-0.0173294
0.0499948
-0.036877
0.0507066
-0.0436691
0.0513739
-0.039532
0.0522179
-0.0016551
0.0542385
0.03967
0.0131477
0.00894793
-0.0137004
0.0121487
-0.0209938
0.0157969
-0.0247173
0.0194753
-0.0279954
0.0231014
-0.0304204
0.0265583
-0.0312788
0.0298349
-0.0306027
0.0329499
-0.027963
0.0359642
-0.0232787
0.0389245
-0.0170049
0.0418699
-0.0107786
0.0447328
-0.00705127
0.0473881
-0.0103237
0.0494583
-0.0193995
0.05078
-0.0381987
0.051311
-0.0442001
0.0518087
-0.0400298
0.0525879
-0.00243429
0.0546827
0.0375753
0.011271
0.0134765
-0.0166714
0.0167224
-0.0242397
0.0201649
-0.0281598
0.0234684
-0.0312989
0.0266493
-0.0336013
0.0296609
-0.0342904
0.0325167
-0.0334586
0.0352533
-0.0306996
0.0379389
-0.0259643
0.0406244
-0.0196904
0.0433431
-0.0134974
0.0460153
-0.00972347
0.0484913
-0.0127997
0.0503916
-0.0212998
0.0515383
-0.0393454
0.0519204
-0.0445822
0.0522819
-0.0403913
0.0530212
-0.00317354
0.0551967
0.0353998
0.0092904
0.0183431
-0.0203776
0.0215272
-0.0274238
0.0246381
-0.0312707
0.0274848
-0.0341456
0.0301716
-0.0362881
0.0327134
-0.0368323
0.0351399
-0.035885
0.0374973
-0.033057
0.0398544
-0.0283213
0.0422613
-0.0220974
0.0447437
-0.0159797
0.0472124
-0.0121921
0.0495008
-0.0150881
0.0512359
-0.0230349
0.0522323
-0.0403419
0.052506
-0.0448559
0.0527727
-0.0406579
0.0535032
-0.00390411
0.0557701
0.0331329
0.00718874
0.0233233
-0.0246359
0.0263074
-0.0304079
0.0289553
-0.0339186
0.0312773
-0.0364676
0.0334454
-0.0384562
0.0355189
-0.0389058
0.0375326
-0.0378988
0.0395338
-0.0350582
0.0415846
-0.0303721
0.0437296
-0.0242424
0.0459845
-0.0182346
0.048253
-0.0144606
0.0503595
-0.0171946
0.0519454
-0.0246208
0.0528253
-0.0412217
0.0530379
-0.0450684
0.0532585
-0.0408786
0.0540177
-0.00466332
0.056391
0.0307596
0.00494627
0.02816
-0.029076
0.0307705
-0.0330184
0.0328409
-0.0359891
0.034597
-0.0382236
0.0362522
-0.0401114
0.0378872
-0.0405408
0.0395303
-0.0395418
0.0412208
-0.0367487
0.0430086
-0.0321599
0.0449277
-0.0261615
0.0469821
-0.020289
0.04907
-0.0165485
0.0510143
-0.0191388
0.0524778
-0.0260844
0.0532824
-0.0420263
0.0534871
-0.0452732
0.0537164
-0.0411078
0.054547
-0.00549394
0.0570463
0.0282602
0.00254037
0.0326864
-0.033122
0.0346752
-0.0350072
0.036068
-0.0373819
0.0372445
-0.0394002
0.0384203
-0.0412872
0.0396687
-0.0417892
0.0410011
-0.0408743
0.0424421
-0.0381897
0.0440246
-0.0337425
0.0457681
-0.027905
0.0476632
-0.0221841
0.049604
-0.0184892
0.0514179
-0.0209528
0.0527957
-0.0274622
0.0535731
-0.0428037
0.0538273
-0.0455274
0.0541241
-0.0414045
0.055073
-0.00644289
0.0577226
0.0256106
-5.44432e-05
0.0369753
-0.0361253
0.0379613
-0.0359932
0.0385418
-0.0379624
0.0391421
-0.0400005
0.0398791
-0.0420241
0.0407968
-0.0427069
0.0418797
-0.0419571
0.0431326
-0.0394426
0.0445688
-0.0351786
0.0461898
-0.0295261
0.0479724
-0.0239666
0.0498064
-0.0203232
0.051531
-0.0226775
0.0528676
-0.0287987
0.0536715
-0.0436076
0.0540372
-0.0458931
0.0544613
-0.0418286
0.0555809
-0.00756249
0.0584054
0.0227861
-0.00286733
0.118246
-0.027662
-0.12671
0.113776
-0.0315228
0.11112
-0.0353065
0.109391
-0.038271
0.108016
-0.0406494
0.106925
-0.0416158
0.106046
-0.041078
0.105423
-0.0388202
0.105174
-0.0349292
0.105451
-0.0298028
0.106378
-0.0248946
0.107885
-0.0218299
0.109539
-0.0243312
0.110647
-0.0299069
0.110339
-0.043299
0.108656
-0.0442105
0.106514
-0.0396868
0.105932
-0.00698073
0.109128
0.0195902
-0.00590908
0.165586
-0.017145
-0.176103
0.157392
-0.0233291
0.151539
-0.0294528
0.147216
-0.033948
0.143698
-0.0371317
0.140801
-0.0387189
0.138387
-0.0386634
0.136446
-0.0368802
0.135065
-0.0335473
0.134361
-0.029099
0.134434
-0.0249675
0.135162
-0.0225586
0.136065
-0.025234
0.136414
-0.0302559
0.135249
-0.042134
0.132744
-0.0417048
0.12971
-0.0366536
0.128678
-0.0059481
0.131828
0.0164401
-0.00888129
0.21679
-0.00658139
-0.227354
0.207732
-0.0142708
0.199891
-0.021612
0.193353
-0.0274099
0.187738
-0.0315169
0.182908
-0.033889
0.178765
-0.0345205
0.175296
-0.0334109
0.172567
-0.0308179
0.17066
-0.0271924
0.169629
-0.0239369
0.169297
-0.0222257
0.16913
-0.0250677
0.16841
-0.0295351
0.166128
-0.0398529
0.162659
-0.0382357
0.158663
-0.0326577
0.157146
-0.00443036
0.160048
0.0135378
-0.0115061
0.268236
0.00188699
-0.276705
0.260381
-0.00641553
0.252524
-0.0137549
0.245123
-0.0200094
0.238304
-0.0246974
0.232108
-0.0276934
0.226575
-0.0289872
0.221764
-0.0286006
0.217775
-0.0268281
0.214674
-0.0240911
0.212468
-0.0217313
0.21092
-0.020678
0.209462
-0.0236099
0.207428
-0.027501
0.203836
-0.0362609
0.199357
-0.0337567
0.194462
-0.0277626
0.192546
-0.0025146
0.194977
0.0111067
-0.0134278
0.317777
0.00719021
-0.32308
0.312114
-0.000752936
0.305793
-0.00743363
0.299067
-0.0132835
0.292344
-0.017974
0.285866
-0.0212153
0.279806
-0.0229273
0.274321
-0.0231155
0.269569
-0.0220767
0.265634
-0.0201561
0.262487
-0.0185845
0.259846
-0.0180365
0.257116
-0.0208798
0.25374
-0.0241252
0.248827
-0.031348
0.243454
-0.0283841
0.237925
-0.0222337
0.235862
-0.000450695
0.23768
0.00928835
-0.0142652
0.366454
0.00936931
-0.368633
0.363037
0.0026637
0.35869
-0.00308658
0.353476
-0.00806948
0.347765
-0.0122625
0.341919
-0.0153696
0.336207
-0.017215
0.330843
-0.0177518
0.326023
-0.0172567
0.321848
-0.0159807
0.318256
-0.0149931
0.314941
-0.0147216
0.31128
-0.0172186
0.306866
-0.019711
0.300913
-0.0253952
0.294974
-0.0224449
0.289287
-0.0165467
0.287492
0.00134392
0.288768
0.00801319
-0.0137262
0.417284
0.00911595
-0.417031
0.415798
0.00414992
0.413167
-0.000455601
0.409516
-0.00441789
0.405067
-0.00781387
0.40018
-0.0104826
0.395189
-0.0122237
0.390356
-0.0129191
0.385888
-0.0127886
0.381901
-0.0119942
0.378306
-0.0113979
0.374801
-0.011217
0.370721
-0.013138
0.365825
-0.0148149
0.359373
-0.0189431
0.353346
-0.0164187
0.348073
-0.0112733
0.347024
0.00239307
0.348118
0.00691912
-0.0117501
0.473686
0.0071608
-0.471731
0.473838
0.00399759
0.472615
0.000768189
0.470257
-0.00206016
0.466931
-0.00448806
0.462918
-0.00646979
0.458566
-0.00787137
0.454193
-0.00854588
0.450029
-0.0086244
0.446228
-0.00819372
0.442698
-0.00786783
0.4392
-0.00771887
0.435033
-0.00897097
0.430129
-0.00991086
0.42371
-0.0125247
0.418003
-0.0107112
0.413558
-0.0068286
0.413549
0.00240173
0.415014
0.00545466
-0.0085748
0.539476
0.00402063
-0.536336
0.540977
0.00249701
0.540937
0.000808145
0.539589
-0.000712917
0.53712
-0.00201839
0.533753
-0.00310263
0.529796
-0.00391461
0.525604
-0.00435408
0.52145
-0.0044703
0.517553
-0.00429681
0.513846
-0.00416085
0.510199
-0.0040714
0.505908
-0.00468021
0.501074
-0.00507738
0.494865
-0.00631567
0.489529
-0.00537482
0.485914
-0.00321389
0.486855
0.00146152
0.489122
0.0031867
-0.00459543
0.619839
-0.615818
0.622336
0.623144
0.622431
0.620413
0.61731
0.613395
0.609041
0.604571
0.600274
0.596113
0.592042
0.587362
0.582284
0.575969
0.570594
0.56738
0.568842
0.572028
0.167688
0.0228527
-0.166705
0.167893
0.028427
0.167138
0.0336959
0.165237
0.0385269
0.162023
0.0427797
0.157382
0.0463197
0.151296
0.0490374
0.143901
0.0508766
0.135556
0.0518084
0.051615
0.191945
0.0208789
-0.189971
0.193608
0.0267642
0.194813
0.0324914
0.195388
0.0379514
0.195148
0.0430194
0.193906
0.0475617
0.191495
0.0514492
0.187789
0.0545826
0.182666
0.0569307
0.0581783
0.217667
0.0183556
-0.215144
0.220307
0.0241242
0.22297
0.0298288
0.225524
0.0353975
0.227796
0.0407469
0.229575
0.0457829
0.230622
0.0504027
0.230707
0.0544972
0.229654
0.0579837
0.0604784
0.24618
0.0156926
-0.243517
0.249236
0.0210682
0.252643
0.0264218
0.256333
0.0317076
0.260208
0.0368721
0.264138
0.0418527
0.267963
0.046578
0.271493
0.0509675
0.274521
0.0549553
0.058295
0.278547
0.0130363
-0.27589
0.281774
0.0178413
0.285562
0.0226335
0.28989
0.0273797
0.294718
0.0320441
0.299983
0.0365872
0.305595
0.040966
0.31143
0.0451329
0.317344
0.0490411
0.052559
0.315567
0.0104153
-0.312946
0.318891
0.0145169
0.322918
0.0186069
0.327638
0.022659
0.333036
0.0266461
0.339083
0.0305401
0.345738
0.0343118
0.35294
0.0379302
0.360618
0.0413632
0.0445443
0.35815
0.00783648
-0.355571
0.361553
0.011114
0.365779
0.0143808
0.370822
0.017616
0.37667
0.0207981
0.383305
0.0239055
0.3907
0.0269165
0.398821
0.0298094
0.407622
0.0325619
0.0351355
0.407708
0.00528347
-0.405155
0.411208
0.00761388
0.415653
0.00993642
0.421033
0.0122356
0.427335
0.014496
0.434539
0.0167018
0.442618
0.0188378
0.451538
0.0208886
0.461261
0.0228391
0.0246656
0.466376
0.00270539
-0.463798
0.470036
0.00395317
0.474775
0.00519732
0.480582
0.00642922
0.487438
0.00764023
0.495318
0.0088217
0.50419
0.00996515
0.514017
0.0110622
0.524751
0.0121047
0.0130808
0.537564
-0.534858
0.541517
0.546714
0.553143
0.560784
0.569605
0.57957
0.590633
0.602737
0.143471
-0.0302005
-0.141121
0.146323
-0.0264573
0.149285
-0.0218335
0.152263
-0.0168398
0.155181
-0.0115568
0.157996
-0.00606842
0.160648
-0.000411606
0.163053
0.00537084
0.165112
0.0112211
0.0170692
0.170897
-0.0318696
-0.169228
0.172721
-0.0282809
0.17465
-0.0237633
0.176687
-0.0188763
0.178811
-0.0136812
0.18101
-0.00826747
0.183268
-0.00266905
0.185551
0.0030876
0.187809
0.00896295
0.0149069
0.202224
-0.0323275
-0.201766
0.202871
-0.0289278
0.203652
-0.0245438
0.204602
-0.0198267
0.205766
-0.0148452
0.207161
-0.00966232
0.208797
-0.00430549
0.21068
0.00120492
0.212803
0.00684054
0.0125655
0.23731
-0.0314792
-0.238158
0.236648
-0.0282661
0.236253
-0.0241486
0.236157
-0.0197312
0.236407
-0.0150945
0.237026
-0.0102821
0.238034
-0.00531283
0.239444
-0.000205816
0.241271
0.00501428
0.0103189
0.276098
-0.0293219
-0.278255
0.274169
-0.0263365
0.272645
-0.0226251
0.271571
-0.0186568
0.270978
-0.0145016
0.270888
-0.0101921
0.271318
-0.0057435
0.272286
-0.00117381
0.273807
0.00349415
0.00823512
0.31918
-0.0258754
-0.322626
0.316074
-0.0232303
0.313499
-0.0200504
0.311505
-0.0166629
0.310119
-0.0131155
0.30936
-0.00943312
0.309247
-0.00563039
0.309797
-0.00172413
0.311026
0.00226526
0.00631559
0.367603
-0.0211761
-0.372302
0.363385
-0.0190121
0.359813
-0.0164788
0.356936
-0.0137858
0.354782
-0.0109615
0.353373
-0.00802423
0.35273
-0.00498753
0.352873
-0.00186636
0.353816
0.00132222
0.00455987
0.422805
-0.0152732
-0.428708
0.417519
-0.0137259
0.412984
-0.0119439
0.409247
-0.0100488
0.406342
-0.0080562
0.404296
-0.00597846
0.403135
-0.0038264
0.40288
-0.00161165
0.403549
0.000653029
0.00295402
0.486921
-0.00820585
-0.493988
0.480585
-0.00738998
0.475096
-0.00645485
0.470505
-0.00545749
0.466853
-0.00440483
0.464178
-0.00330335
0.462511
-0.00215932
0.461879
-0.000979365
0.462303
0.000229317
0.0014591
0.563319
-0.571525
0.555929
0.549474
0.544017
0.539612
0.536308
0.534149
0.53317
0.533399
0.126775
0.00232154
-0.00223037
0.126518
0.00704241
-0.00678616
0.126103
0.0121652
-0.0117504
0.125532
0.0180719
-0.0175007
0.124859
0.0251211
-0.0244478
0.12414
0.0343628
-0.0336436
0.123837
0.0456869
-0.0453845
0.124113
0.0634188
-0.0636947
0.128859
0.0813776
-0.0861237
0.120804