/*--------------------------------*- C++ -*----------------------------------*\
  =========                 |
  \\      /  F ield         | OpenFOAM: The Open Source CFD Toolbox
   \\    /   O peration     | Website:  https://openfoam.org
    \\  /    A nd           | Version:  6.0
     \\/     M anipulation  |
\*---------------------------------------------------------------------------*/
FoamFile
{
    version     2.0;
    format      ascii;
    class       surfaceScalarField;
    location    "19.75";
    object      phi;
}
// * * * * * * * * * * * * * * * * * * * * * * * * * * * * * * * * * * * * * //

dimensions      [0 3 -1 0 0 0 0];

internalField   nonuniform List<scalar> 
18940
(
-2.58674e-05
-0.0116845
0.0117104
-8.25668e-05
-0.0102755
0.0103322
-0.000159017
-0.00904592
0.00912237
-0.00024655
-0.00797677
0.0080643
-0.000338404
-0.00704915
0.007141
-0.000429526
-0.00624522
0.00633634
-0.000516264
-0.00554865
0.00563539
-0.000596091
-0.0049448
0.00502463
-0.000667395
-0.00442069
0.00449199
-0.000729306
-0.0039649
0.00402681
-0.000781562
-0.00356752
0.00361977
-0.000824402
-0.00321993
0.00326277
-0.000858471
-0.00291473
0.00294879
-0.000884741
-0.00264558
0.00267185
-0.000904439
-0.00240711
0.00242681
-0.000918977
-0.00219478
0.00220932
-0.000929881
-0.00200484
0.00201574
-0.00093872
-0.00183419
0.00184303
-0.000947087
-0.00168022
0.00168859
-0.00154065
0.00155015
-0.000956594
-2.39929e-05
-0.0116605
-7.85008e-05
-0.010221
-0.000151065
-0.00897335
-0.000232506
-0.00789533
-0.000315928
-0.00696573
-0.000396239
-0.0061649
-0.000469784
-0.0054751
-0.000534058
-0.00488053
-0.000587488
-0.00436726
-0.000629252
-0.00392314
-0.000659154
-0.00353762
-0.000677508
-0.00320157
-0.000685056
-0.00290718
-0.000682885
-0.00264775
-0.000672364
-0.00241763
-0.000655072
-0.00221207
-0.000632728
-0.00202718
-0.00060712
-0.0018598
-0.000580079
-0.00170726
-0.00156726
-0.000553471
-2.27338e-05
-0.0116378
-7.38612e-05
-0.0101699
-0.000140717
-0.0089065
-0.000213841
-0.0078222
-0.000286203
-0.00689336
-0.000352662
-0.00609845
-0.000409554
-0.00541821
-0.000454391
-0.00483569
-0.000485625
-0.00433602
-0.000502471
-0.00390629
-0.000504777
-0.00353531
-0.000492919
-0.00321343
-0.000467717
-0.00293238
-0.000430368
-0.0026851
-0.00038238
-0.00246562
-0.000325513
-0.00226894
-0.000261709
-0.00209099
-0.000193021
-0.00192848
-0.00012158
-0.0017787
-0.00163925
-4.95841e-05
-2.13895e-05
-0.0116164
-6.82792e-05
-0.010123
-0.000127889
-0.00884689
-0.000190642
-0.00775945
-0.000249443
-0.00683456
-0.000299131
-0.00604876
-0.000336052
-0.00538129
-0.000357736
-0.00481401
-0.000362654
-0.0043311
-0.000350046
-0.0039189
-0.000319784
-0.00356557
-0.000272283
-0.00326093
-0.00020842
-0.00299624
-0.000129482
-0.00276404
-3.71116e-05
-0.00255799
6.67486e-05
-0.0023728
0.000179913
-0.00220415
0.000300022
-0.00204859
0.00042458
-0.00190326
-0.00176564
0.000550968
-1.97923e-05
-0.0115966
-6.1596e-05
-0.0100812
-0.000112524
-0.00879596
-0.000162959
-0.00770902
-0.000205807
-0.00679171
-0.000235932
-0.00601863
-0.000249715
-0.00536751
-0.000244714
-0.00481901
-0.000219425
-0.00435639
-0.000173097
-0.00396523
-0.000105609
-0.00363306
-1.73852e-05
-0.00334916
9.06664e-05
-0.00310429
0.000217198
-0.00289057
0.000360457
-0.00270125
0.000518325
-0.00253067
0.000688363
-0.00237419
0.000867874
-0.00222811
0.00105393
-0.00208932
-0.00195512
0.00124341
-1.78978e-05
-0.0115787
-5.37504e-05
-0.0100453
-9.45913e-05
-0.00875512
-0.00013082
-0.00767279
-0.000155403
-0.00676713
-0.000163279
-0.00601076
-0.000150897
-0.00537989
-0.000115869
-0.00485403
-5.67168e-05
-0.00441555
2.73062e-05
-0.00404925
0.000136333
-0.00374209
0.000269958
-0.00348278
0.000427282
-0.00326162
0.000606937
-0.00307022
0.000807098
-0.00290141
0.0010255
-0.00274907
0.00125945
-0.00260814
0.0015059
-0.00247456
0.00176145
-0.00234486
-0.00221602
0.00202235
-1.56891e-05
-0.011563
-4.47067e-05
-0.0100163
-7.40548e-05
-0.00872577
-9.42121e-05
-0.00765263
-9.82663e-05
-0.00676308
-8.12857e-05
-0.00602774
-3.98328e-05
-0.00542134
2.83983e-05
-0.00492226
0.000124842
-0.00451199
0.000250239
-0.00417465
0.00040475
-0.0038966
0.00058802
-0.00366605
0.000799202
-0.0034728
0.00103696
-0.00330798
0.00129945
-0.0031639
0.00158431
-0.00303392
0.00188864
-0.00291247
0.00220903
-0.00279495
0.00254156
-0.0026774
-0.00255626
0.0028818
-1.31539e-05
-0.0115499
-3.4426e-05
-0.00999502
-5.08534e-05
-0.00870934
-5.30643e-05
-0.00765042
-3.43383e-05
-0.0067818
1.00629e-05
-0.00607214
8.34092e-05
-0.00549469
0.000187881
-0.00502674
0.000324841
-0.00464895
0.00049501
-0.00434482
0.000698583
-0.00410017
0.000935282
-0.00390275
0.00120436
-0.00374188
0.00150457
-0.0036082
0.00183415
-0.00349347
0.00219069
-0.00339046
0.00257115
-0.00329294
0.00297182
-0.00319562
0.00338823
-0.00309381
-0.00298321
0.00381518
-1.02764e-05
-0.0115396
-2.28546e-05
-0.00998244
-2.48885e-05
-0.00870731
-7.23919e-06
-0.00766807
3.65418e-05
-0.00682558
0.000110926
-0.00614652
0.000218948
-0.00560271
0.000362607
-0.0051704
0.000543145
-0.00482949
0.000761236
-0.00456291
0.0010171
-0.00435603
0.00131055
-0.0041962
0.00164097
-0.0040723
0.00200731
-0.00397453
0.00240793
-0.00389409
0.00284053
-0.00382307
0.00330203
-0.00375444
0.00378847
-0.00368206
0.00429489
-0.00360023
-0.00350359
0.00481527
-7.03414e-06
-0.0115326
-9.91853e-06
-0.00997955
3.97775e-06
-0.00872121
4.34669e-05
-0.00770756
0.000114636
-0.00689675
0.000221605
-0.00625349
0.000367097
-0.0057482
0.000552852
-0.00535615
0.000779928
-0.00505656
0.0010489
-0.00483188
0.00135997
-0.00466711
0.00171304
-0.00454927
0.00210767
-0.00446694
0.00254304
-0.0044099
0.00301778
-0.00436883
0.00352982
-0.00433511
0.0040762
-0.00430082
0.00465287
-0.00425873
0.00525446
-0.00420182
-0.00412325
0.00587413
-3.39821e-06
-0.0115292
4.47209e-06
-0.00998742
3.59145e-05
-0.00875265
9.93092e-05
-0.00777095
0.000200286
-0.00699773
0.000342522
-0.00639573
0.000528335
-0.00593402
0.00075912
-0.00558694
0.00103566
-0.0053331
0.00135835
-0.00515456
0.00172731
-0.00503607
0.00214248
-0.00496444
0.0026036
-0.00492806
0.00311013
-0.00491643
0.00366108
-0.00491977
0.00425478
-0.00492881
0.00488861
-0.00493466
0.00555866
-0.00492877
0.00625932
-0.00490249
-0.00484695
0.00698302
6.62836e-07
-0.0115298
2.0415e-05
-0.0100072
7.11037e-05
-0.00880334
0.000160564
-0.00786041
0.000293869
-0.00713103
0.000474156
-0.00657602
0.000703245
-0.00616311
0.000982082
-0.00586577
0.00131107
-0.00566209
0.00169029
-0.00553379
0.00211969
-0.00546547
0.00259916
-0.0054439
0.00312854
-0.00545744
0.00370758
-0.00549547
0.00433577
-0.00554796
0.00501203
-0.00560508
0.00573436
-0.00565698
0.00649929
-0.00569369
0.00730132
-0.00570452
-0.00567796
0.00813234
5.18013e-06
-0.011535
3.80031e-05
-0.01004
0.000109715
-0.00887505
0.000227487
-0.00797819
0.000395735
-0.00729928
0.000616967
-0.00679725
0.000892408
-0.00643855
0.00122245
-0.00619581
0.00160698
-0.00604662
0.00204566
-0.00597246
0.00253806
-0.00595788
0.00308388
-0.00598972
0.00368293
-0.00605649
0.00433518
-0.00614772
0.0050406
-0.00625338
0.00579889
-0.00636337
0.00660897
-0.00646706
0.0074683
-0.00655303
0.00837198
-0.0066082
-0.00661768
0.0093117
1.01794e-05
-0.0115452
5.731e-05
-0.0100871
0.000151873
-0.00896961
0.000300256
-0.00812657
0.000506121
-0.00750515
0.000771269
-0.0070624
0.00109625
-0.00676352
0.00148079
-0.00658036
0.00192416
-0.00648999
0.00242541
-0.00647371
0.00298357
-0.00651604
0.00359789
-0.00660404
0.00426792
-0.00672652
0.00499365
-0.00687345
0.00577544
-0.00703517
0.0066138
-0.00720173
0.00750891
-0.00736218
0.00845977
-0.00750388
0.0094628
-0.00761124
-0.00766507
0.0105102
1.56784e-05
-0.0115609
7.83774e-05
-0.0101498
0.000197628
-0.00908886
0.00037891
-0.00830785
0.000625055
-0.00775129
0.000937092
-0.00737443
0.00131483
-0.00714126
0.00175729
-0.00702281
0.00226298
-0.00699569
0.0028302
-0.00704093
0.00345725
-0.00714308
0.00414262
-0.00728941
0.00488527
-0.00746917
0.0056848
-0.00767298
0.00654163
-0.007892
0.00745697
-0.00811706
0.00843244
-0.00833765
0.00946922
-0.00854066
0.0105662
-0.00870824
-0.00881608
0.0117172
2.16895e-05
-0.0115826
0.00010121
-0.0102293
0.000246927
-0.00923458
0.000463294
-0.00852422
0.00075225
-0.00804025
0.00111402
-0.0077362
0.00154765
-0.0075749
0.0020514
-0.00752656
0.002623
-0.00756729
0.00325989
-0.00767782
0.00395944
-0.00784263
0.00471914
-0.0080491
0.0055369
-0.00828694
0.00641141
-0.00854749
0.00734248
-0.00882307
0.00833142
-0.009106
0.00938112
-0.00938734
0.0104955
-0.00965503
0.0116775
-0.00989021
-0.0100628
0.0129242
2.82321e-05
-0.0116108
0.000125781
-0.0103269
0.000299599
-0.0094084
0.000553008
-0.00877763
0.000887019
-0.00837426
0.00130104
-0.00815023
0.00179337
-0.00806723
0.00236153
-0.00809472
0.00300249
-0.00820825
0.00371285
-0.00838818
0.00448898
-0.00861876
0.00532721
-0.00888733
0.00622407
-0.0091838
0.00717668
-0.0095001
0.00818331
-0.00982971
0.00924419
-0.0101669
0.0103623
-0.0105055
0.0115441
-0.0108368
0.012798
-0.0111441
-0.0113923
0.0141275
3.53703e-05
-0.0116462
0.000152067
-0.0104436
0.000355356
-0.00961169
0.000647381
-0.00906965
0.00102821
-0.00875509
0.00149645
-0.00861846
0.00204966
-0.00862045
0.00268471
-0.00872977
0.00339791
-0.00892144
0.00418515
-0.00917542
0.00504199
-0.0094756
0.0059637
-0.00980904
0.00694538
-0.0101655
0.00798222
-0.0105369
0.00907001
-0.0109175
0.0102061
-0.011303
0.011391
-0.0116904
0.012631
-0.0120768
0.0139404
-0.0124535
-0.0127904
0.0153384
4.33786e-05
-0.0116895
0.000180155
-0.0105804
0.000413822
-0.00984535
0.000745463
-0.00940129
0.00117419
-0.00918382
0.00169778
-0.00914205
0.00231309
-0.00923575
0.00301637
-0.00943305
0.00380345
-0.00970853
0.00466981
-0.0100418
0.00561057
-0.0104164
0.00662052
-0.010819
0.00769395
-0.0112389
0.00882463
-0.0116676
0.0100058
-0.0120987
0.0112308
-0.0125279
0.0124941
-0.0129537
0.0137953
-0.013378
0.0151494
-0.0138075
-0.0142579
0.016617
5.34024e-05
-0.0117429
0.000210365
-0.0107373
0.000474489
-0.0101095
0.000846002
-0.0097728
0.00132288
-0.0096607
0.00190192
-0.00972108
0.0025792
-0.00991303
0.0033504
-0.0102043
0.00421098
-0.0105691
0.00515627
-0.0109871
0.00618159
-0.0114417
0.00728221
-0.0119196
0.00845331
-0.01241
0.00968979
-0.0129041
0.010986
-0.0133949
0.0123353
-0.0138772
0.0137296
-0.0143481
0.0151575
-0.0148059
0.016608
-0.015258
-0.015745
0.018095
0.0139402
0.00015194
-0.0140922
0.0137891
0.000151159
0.0136384
0.00015064
0.0134888
0.000149618
0.0133409
0.000147877
0.0131956
0.000145369
0.0130535
0.000142109
0.0129153
0.000138143
0.0127818
0.00013353
0.0126534
0.000128338
0.0125308
0.000122635
0.0124143
0.000116486
0.0123044
0.000109955
0.0122013
0.000103097
0.0121053
9.59629e-05
0.0120167
8.85904e-05
0.0119357
8.0997e-05
0.0118626
7.31465e-05
0.0117978
6.4797e-05
5.48337e-05
0.0167399
0.000528062
-0.017116
0.0163573
0.000533786
0.015971
0.000536962
0.0155833
0.000537261
0.0151966
0.000534549
0.0148132
0.000528839
0.014435
0.000520229
0.0140643
0.000508875
0.0137029
0.00049497
0.0133525
0.000478728
0.0130147
0.000460373
0.0126911
0.000440127
0.0123829
0.000418202
0.0120912
0.000394798
0.011817
0.000370091
0.0115614
0.000344239
0.011325
0.000317362
0.0111086
0.000289525
0.0109128
0.000260636
0.0002303
0.0194129
0.00107195
-0.0199568
0.0188543
0.00109239
0.0182851
0.00110613
0.0177092
0.00111315
0.0171303
0.00111346
0.016552
0.00110719
0.0159776
0.00109458
0.0154106
0.00107591
0.014854
0.00105157
0.0143108
0.00102195
0.0137837
0.000987492
0.0132751
0.000948629
0.0127876
0.000905789
0.012323
0.000859373
0.0118833
0.000809759
0.0114703
0.000757293
0.0110853
0.0007023
0.0107298
0.000645091
0.0104044
0.000585962
0.000525257
0.0219167
0.00173616
-0.0225809
0.0212286
0.00178047
0.0205215
0.00181318
0.0198004
0.00183431
0.0190699
0.00184394
0.0183348
0.0018423
0.0175997
0.0018297
0.016869
0.00180659
0.016147
0.00177352
0.0154379
0.0017311
0.0147454
0.00167999
0.0140731
0.00162088
0.0134245
0.00155444
0.0128025
0.00148131
0.0122102
0.00140212
0.01165
0.00131745
0.0111244
0.0012279
0.0106354
0.0011341
0.0101846
0.00103681
0.000937008
0.0242221
0.00248042
-0.0249664
0.0234442
0.00255843
0.0226379
0.00261944
0.0218089
0.00266336
0.0209626
0.0026902
0.0201047
0.00270017
0.0192408
0.00269363
0.0183763
0.00267114
0.0175164
0.00263337
0.0166664
0.00258111
0.0158311
0.00251526
0.0150153
0.00243674
0.0142232
0.00234647
0.0134592
0.00224536
0.012727
0.00213428
0.0120304
0.00201406
0.0113727
0.00188559
0.010757
0.00174986
0.0101857
0.00160811
0.00146196
0.026312
0.00327106
-0.0271026
0.0254777
0.00339269
0.0246055
0.00349173
0.023701
0.00356778
0.0227705
0.00362069
0.0218202
0.00365051
0.0208563
0.00365757
0.019885
0.0036424
0.0189126
0.00360577
0.0179451
0.0035486
0.0169884
0.00347195
0.0160482
0.00337697
0.0151299
0.0032648
0.0142387
0.00313659
0.0133795
0.00299341
0.0125572
0.00283635
0.0117763
0.00266651
0.011041
0.00248521
0.0103549
0.00229419
0.00209577
0.0281789
0.00408032
-0.0289881
0.0273164
0.00425516
0.0264063
0.00440185
0.0254545
0.00451958
0.0244673
0.00460784
0.0234514
0.00466647
0.0224133
0.00469558
0.0213601
0.00469563
0.0202985
0.00466735
0.0192354
0.00461171
0.0181775
0.00452989
0.0171313
0.00442318
0.0161032
0.00429291
0.0150993
0.0041404
0.0141259
0.00396689
0.0131886
0.00377357
0.0122934
0.00356171
0.0114458
0.00333284
0.0106509
0.00308911
0.00283362
0.0298232
0.00488588
-0.0306287
0.0289555
0.00512279
0.0280312
0.00532623
0.0270558
0.00549489
0.0260359
0.00562782
0.0249779
0.00572443
0.0238889
0.00578457
0.0227761
0.00580845
0.0216468
0.00579666
0.0205084
0.00575014
0.0193682
0.00567009
0.0182335
0.00555786
0.0171115
0.0054149
0.0160093
0.00524262
0.0149338
0.00504231
0.0138923
0.00481515
0.0128916
0.00456235
0.011939
0.00428547
0.0110412
0.00398692
0.00367054
0.0312514
0.0056703
-0.0320358
0.0303971
0.00597708
0.0294778
0.00624556
0.0284988
0.00647381
0.0274664
0.00666029
0.0263869
0.00680393
0.0252673
0.00690414
0.024115
0.00696077
0.0229374
0.00697419
0.0217424
0.00694514
0.0205378
0.00687475
0.0193313
0.00676438
0.0181307
0.00661549
0.0169438
0.00642948
0.0157786
0.00620755
0.014643
0.0059507
0.0135456
0.0056598
0.012495
0.00533605
0.0115001
0.0049818
0.00460155
0.0324745
0.00642047
-0.0332247
0.0316479
0.00680374
0.0307489
0.00714448
0.0297827
0.00744005
0.0287547
0.0076883
0.0276711
0.00788752
0.0265387
0.00803657
0.0253646
0.00813485
0.0241565
0.00818233
0.0229221
0.0081795
0.0216695
0.00812732
0.0204069
0.00802703
0.0191424
0.00788002
0.0178842
0.00768761
0.016641
0.00745078
0.0154216
0.00717007
0.0142358
0.00684566
0.013094
0.00647787
0.0120074
0.00606835
0.0056219
0.0335065
0.00712711
-0.0342132
0.0327181
0.00759215
0.0318515
0.00801114
0.0309108
0.00838073
0.0299011
0.00869801
0.028828
0.0089606
0.0276979
0.0091667
0.0265176
0.00931514
0.0252945
0.00940541
0.0240363
0.00943763
0.0227512
0.00941246
0.0214472
0.009331
0.0201328
0.00919449
0.0188163
0.00900407
0.0175067
0.00876039
0.0162134
0.00846333
0.0149472
0.00811186
0.0137204
0.00770467
0.0125471
0.00724172
0.00672728
0.0343633
0.00778415
-0.0350203
0.0336205
0.00833493
0.0327947
0.00883691
0.0318895
0.00928598
0.030909
0.00967849
0.0298583
0.0100113
0.0287432
0.0102818
0.02757
0.0104883
0.0263457
0.0106297
0.0250778
0.0107055
0.0237741
0.0107162
0.0224427
0.0106625
0.0210916
0.0105455
0.0197294
0.0103663
0.0183648
0.010125
0.0170074
0.00982068
0.0156687
0.0094506
0.0143626
0.00901078
0.0131064
0.0084979
0.00791405
0.0350613
0.00838826
-0.0356654
0.0343688
0.00902744
0.0335899
0.00961585
0.0327272
0.0101487
0.0317843
0.0106214
0.0307654
0.0110302
0.0296756
0.0113716
0.0285207
0.0116432
0.0273072
0.0118432
0.026042
0.0119707
0.0247325
0.0120256
0.0233864
0.0120086
0.0220115
0.0119204
0.0206158
0.011762
0.0192075
0.0115333
0.0177958
0.0112323
0.0163922
0.0108542
0.0150118
0.0103911
0.0136757
0.00983407
0.00917971
0.0356175
0.0089383
-0.0361676
0.0349776
0.00966734
0.0342491
0.0103444
0.0334338
0.010964
0.0325344
0.0115208
0.0315545
0.0120101
0.0304983
0.0124278
0.0293709
0.0127706
0.0281782
0.0130359
0.0269265
0.0132224
0.0256227
0.0133295
0.0242738
0.0133574
0.0228872
0.0133071
0.0214699
0.0131793
0.0200293
0.0129739
0.0185735
0.0126882
0.0171128
0.012315
0.0156627
0.0118412
0.0142479
0.0112489
0.0105235
0.036048
0.00943483
-0.0365446
0.0354613
0.0102541
0.0347847
0.011021
0.0340196
0.0117291
0.0331677
0.0123726
0.0322318
0.012946
0.0312155
0.0134441
0.0301231
0.013863
0.0289596
0.0141995
0.0277307
0.0144512
0.0264428
0.0146174
0.0251021
0.014698
0.0237152
0.014694
0.0222882
0.0146063
0.020827
0.0144351
0.0193377
0.0141775
0.0178282
0.0138244
0.0163128
0.0133566
0.0148187
0.012743
0.0119474
0.0363682
0.00987972
-0.0368131
0.0358335
0.0107887
0.0352091
0.0116454
0.0344952
0.012443
0.0336931
0.0131747
0.0328047
0.0138343
0.0318328
0.0144161
0.0307809
0.0149149
0.0296534
0.0153269
0.0284553
0.0156493
0.0271921
0.0158806
0.0258696
0.0160206
0.0244933
0.0160703
0.0230682
0.0160314
0.0215986
0.0159048
0.0200876
0.0156885
0.0185394
0.0153726
0.0169637
0.0149323
0.0153878
0.0143189
0.0134579
0.0365919
0.0102758
-0.036988
0.0361075
0.0112732
0.0355339
0.012219
0.0348711
0.0131058
0.0341195
0.0139263
0.0332805
0.0146734
0.0323559
0.0153406
0.0313488
0.0159221
0.0302626
0.0164131
0.0291018
0.0168101
0.0278712
0.0171112
0.0265757
0.017316
0.0252202
0.0174258
0.0238086
0.017443
0.0223432
0.0173702
0.0208241
0.0172075
0.0192497
0.016947
0.0176213
0.0165607
0.0159594
0.0159808
0.0150692
0.036732
0.0106264
-0.0370827
0.0362949
0.0117103
0.0357701
0.0127438
0.0351571
0.0137188
0.0344558
0.0146276
0.0336667
0.0154625
0.0327913
0.016216
0.0318318
0.0168816
0.030791
0.0174539
0.0296727
0.0179284
0.0284811
0.0183029
0.0272206
0.0185766
0.0258953
0.018751
0.0245084
0.0188299
0.0230607
0.0188179
0.0215493
0.018719
0.0199659
0.0185304
0.0182982
0.0182284
0.016547
0.017732
0.0168103
0.0367993
0.0109355
-0.0371084
0.0364062
0.0121035
0.0359275
0.0132224
0.0353623
0.0142841
0.0347099
0.01528
0.0339706
0.0162018
0.033145
0.0170415
0.0322348
0.0177918
0.0312424
0.0184463
0.0301708
0.019
0.0290237
0.0194499
0.0278051
0.0197951
0.0265188
0.0200374
0.0251673
0.0201813
0.0237511
0.0202341
0.0222655
0.0202045
0.0206974
0.0200985
0.0190184
0.0199074
0.0171894
0.019561
0.0187418
0.0368026
-0.0370741
0.011207
0.0364498
0.0124563
0.036014
0.0136582
0.0354938
0.0148042
0.0348885
0.0158853
0.0341978
0.0168926
0.0334218
0.0178175
0.0325619
0.0186518
0.0316197
0.0193885
0.030598
0.0200218
0.0294999
0.020548
0.0283291
0.0209659
0.0270892
0.0212772
0.0257831
0.0214874
0.0244115
0.0216057
0.0229709
0.0216451
0.0214491
0.0216204
0.0198145
0.021542
0.0179934
0.021382
0.0209902
0.0154682
-3.98637e-05
-0.0154284
0.0154983
-3.00936e-05
0.0155164
-1.80421e-05
0.0155215
-5.18816e-06
0.0155136
7.92376e-06
0.0154926
2.10305e-05
0.0154586
3.39672e-05
0.015412
4.66131e-05
0.0153531
5.88677e-05
0.0152825
7.064e-05
0.0152007
8.1844e-05
0.0151083
9.2399e-05
0.015006
0.000102229
0.0148948
0.000111263
0.0147753
0.000119437
0.0146486
0.000126688
0.0145157
0.000132946
0.0143776
0.000138102
0.0142357
0.000141901
0.000143524
0.0200803
-0.000187536
-0.0199327
0.0201955
-0.000145219
0.0202781
-0.000100702
0.0203279
-5.4957e-05
0.0203445
-8.67014e-06
0.0203279
3.76657e-05
0.0202782
8.36434e-05
0.0201959
0.000128904
0.0200816
0.000173117
0.0199363
0.000215965
0.019761
0.000257141
0.0195571
0.000296349
0.019326
0.000333304
0.0190695
0.000367738
0.0187896
0.000399397
0.0184882
0.000428039
0.0181677
0.000453424
0.0178305
0.000475281
0.0174792
0.000493237
0.000506707
0.0236352
-0.000447217
-0.0233756
0.0238476
-0.000357617
0.0240126
-0.000265698
0.0241298
-0.000172126
0.0241987
-7.76033e-05
0.0242192
1.72073e-05
0.0241912
0.00011166
0.024115
0.000205121
0.0239911
0.000296963
0.0238205
0.000386559
0.0236044
0.000473288
0.0233442
0.000556535
0.0230418
0.000635702
0.0226993
0.000710211
0.0223192
0.000779512
0.0219042
0.00084308
0.0214572
0.000900417
0.0209814
0.000951038
0.0204802
0.000994442
0.00103013
0.0263205
-0.000816363
-0.0259513
0.0266332
-0.000670317
0.0268886
-0.00052112
0.0270859
-0.000369439
0.0272244
-0.000216046
0.0273033
-6.17691e-05
0.0273225
9.25152e-05
0.0272817
0.000245889
0.0271813
0.0003974
0.0270218
0.00054607
0.0268041
0.000690905
0.0265298
0.000830902
0.0262004
0.000965069
0.0258182
0.00109243
0.0253856
0.00121206
0.0249057
0.00132305
0.0243815
0.00142455
0.0238168
0.00151578
0.0232153
0.00159599
0.00166452
0.0282949
-0.00128806
-0.0278232
0.0287048
-0.00108029
0.0290517
-0.000867928
0.029334
-0.00065174
0.0295505
-0.000432612
0.0297003
-0.000211534
0.0297824
1.0397e-05
0.0297963
0.000231987
0.0297417
0.000451957
0.0296189
0.000668959
0.0294282
0.000881594
0.0291706
0.00108843
0.0288477
0.00128804
0.0284611
0.00147898
0.0280133
0.00165987
0.027507
0.00182937
0.0269454
0.00198618
0.026332
0.00212911
0.0256709
0.00225707
0.00236907
0.0296956
-0.00185235
-0.0291313
0.0301958
-0.00158049
0.03063
-0.00130212
0.0309963
-0.00101812
0.0312932
-0.000729461
0.0315189
-0.000437278
0.0316722
-0.000142862
0.0317519
0.000152336
0.0317571
0.000446719
0.0316875
0.00073857
0.031543
0.00102608
0.0313241
0.00130737
0.0310315
0.00158054
0.0306669
0.00184368
0.0302319
0.00209488
0.0297289
0.0023323
0.0291609
0.00255416
0.0285313
0.00275878
0.0278438
0.0029446
0.00311019
0.03064
-0.00249764
-0.0299947
0.0312209
-0.00216146
0.0317354
-0.00181654
0.032181
-0.00146378
0.0325558
-0.0011042
0.0328575
-0.000739016
0.0330843
-0.000369681
0.0332345
2.1207e-06
0.0333068
0.00037449
0.0333
0.000745353
0.0332136
0.00111249
0.0330474
0.0014736
0.0328016
0.00182628
0.0324772
0.00216813
0.0320753
0.00249674
0.0315979
0.00280973
0.0310473
0.00310478
0.0304264
0.00337967
0.0297387
0.0036323
0.00386072
0.0312272
-0.00321187
-0.030513
0.0318784
-0.00281267
0.0324642
-0.00240232
0.032982
-0.00198161
0.0334293
-0.0015515
0.0338036
-0.00111323
0.0341023
-0.000668382
0.0343232
-0.000218856
0.0344646
0.000233166
0.0345246
0.00068526
0.0345023
0.00113482
0.0343968
0.00157911
0.0342078
0.00201528
0.0339355
0.00244044
0.0335805
0.00285168
0.0331442
0.00324607
0.0326282
0.00362076
0.0320349
0.00397295
0.0313673
0.00429997
0.00459927
0.03154
-0.00398326
-0.0307686
0.0322507
-0.00352346
0.0328984
-0.00304999
0.0334802
-0.00256336
0.033993
-0.00206436
0.034434
-0.0015542
0.0348002
-0.00103457
0.0350889
-0.000507564
0.0352977
2.43314e-05
0.0354246
0.000558358
0.0354679
0.00109154
0.0354263
0.00162072
0.0352989
0.00214265
0.0350854
0.00265398
0.0347858
0.0031513
0.0344006
0.00363121
0.0339311
0.0040903
0.0333788
0.00452522
0.0327461
0.0049327
0.00530957
0.0316459
-0.00480095
-0.0308282
0.0324062
-0.00428376
0.0331065
-0.00375031
0.0337438
-0.00320061
0.0343146
-0.00263514
0.0348154
-0.00205507
0.0352431
-0.00146219
0.0355944
-0.000858862
0.0358666
-0.000247879
0.0360573
0.000367658
0.0361644
0.000984411
0.0361863
0.00159887
0.0361215
0.00220739
0.0359693
0.00280622
0.035729
0.00339155
0.0354007
0.0039595
0.0349849
0.00450616
0.0344824
0.00502766
0.033895
0.00552015
0.00597985
0.0315998
-0.00565535
-0.0307454
0.0324007
-0.00508461
0.0331452
-0.0044949
0.03383
-0.0038854
0.0344511
-0.00325623
0.0350046
-0.00260853
0.0354867
-0.00194434
0.0358942
-0.00126634
0.036224
-0.000577682
0.0364735
0.000118173
0.0366403
0.00081755
0.0367226
0.00151662
0.0367186
0.00221141
0.036627
0.00289784
0.0364468
0.00357174
0.0361774
0.00422884
0.0358188
0.00486481
0.0353712
0.00547526
0.0348355
0.00605584
0.00660217
0.0314451
-0.00653834
-0.0305621
0.032279
-0.00591852
0.0330607
-0.00527659
0.0337859
-0.00461063
0.0344501
-0.00392044
0.0350489
-0.00320734
0.0355783
-0.00247378
0.0360349
-0.00172291
0.0364155
-0.000958315
0.0367175
-0.000183823
0.0369385
0.000596589
0.0370763
0.00137882
0.037129
0.00215866
0.0370951
0.00293177
0.0369732
0.0036937
0.0367621
0.00443987
0.0364614
0.00516558
0.0360706
0.00586606
0.03559
0.00653644
0.00717184
0.0312158
-0.00744344
-0.0303107
0.032077
-0.0067797
0.0328901
-0.00608969
0.0336497
-0.00537026
0.0343505
-0.00462123
0.0349877
-0.00384449
0.0355571
-0.00304321
0.0360554
-0.00222119
0.0364796
-0.00138252
0.0368271
-0.000531359
0.0370956
0.00032806
0.037283
0.00119145
0.0373872
0.00205442
0.0374065
0.0029125
0.0373392
0.00376101
0.0371839
0.00459518
0.0369395
0.00541002
0.0366051
0.00620043
0.0361804
0.00696113
0.00768678
0.0309385
-0.00836605
-0.0300159
0.0318231
-0.00766435
0.0326635
-0.00693004
0.0334525
-0.00615922
0.0341838
-0.00535257
0.0348525
-0.0045132
0.0354547
-0.00364539
0.0359873
-0.00275377
0.0364476
-0.00184288
0.0368335
-0.000917198
0.0371426
1.88925e-05
0.0373731
0.000961012
0.0375228
0.00190471
0.0375899
0.00284543
0.0375725
0.00377841
0.0374689
0.00469873
0.0372777
0.00560122
0.0369976
0.0064805
0.0366278
0.00733101
0.00814698
0.0306338
-0.00930372
-0.0296961
0.0315402
-0.00857075
0.0324049
-0.00779479
0.0332188
-0.00697308
0.0339749
-0.00610867
0.0346685
-0.00520678
0.0352962
-0.00427318
0.0358558
-0.0033133
0.036345
-0.00233209
0.036762
-0.00133419
0.0371049
-0.000323986
0.0373717
0.000694145
0.0375606
0.00171579
0.0376697
0.00273641
0.0376968
0.00375123
0.0376403
0.00475527
0.0374983
0.00574325
0.0372692
0.00670962
0.0369516
0.00764857
0.00855401
0.0303182
-0.0102568
-0.0293651
0.0312467
-0.0094993
0.0321338
-0.00868186
0.032968
-0.0078073
0.0337428
-0.00688344
0.0344544
-0.0059184
0.0351007
-0.00491948
0.0356801
-0.00389271
0.0361912
-0.00284321
0.0366326
-0.00177553
0.0370026
-0.000693979
0.0372995
0.000397237
0.0375214
0.00149382
0.0376665
0.00259132
0.0377328
0.00368502
0.0377181
0.00476994
0.0376205
0.00584078
0.0374383
0.00689188
0.0371696
0.00791725
0.00891057
0.0300055
-0.01123
-0.0290323
0.0309585
-0.0104523
0.0318654
-0.0095888
0.0327145
-0.00865638
0.0335012
-0.00767008
0.0342237
-0.00664099
0.0348817
-0.00557738
0.0354743
-0.00448538
0.036001
-0.00336985
0.0364605
-0.00223508
0.0368516
-0.00108507
0.0371727
7.61766e-05
0.0374219
0.00124456
0.0375975
0.00241578
0.0376973
0.00358522
0.0377192
0.00474797
0.0376613
0.00589872
0.0375214
0.0070318
0.0372975
0.00814109
0.00922011
0.0297096
-0.012236
-0.0287037
0.0306897
-0.0114324
0.0316116
-0.0105107
0.0324678
-0.00951261
0.0332585
-0.00846072
0.0339849
-0.00736738
0.0346479
-0.00624046
0.035248
-0.00508542
0.0357846
-0.0039065
0.036257
-0.00270749
0.036664
-0.00149202
0.037004
-0.000263827
0.0372753
0.000973219
0.0374761
0.00221497
0.0376044
0.00345697
0.037658
0.00469438
0.0376347
0.00592196
0.0375325
0.00713403
0.0373491
0.00832444
0.00948658
0.0294516
-0.0132985
-0.0283891
0.0304538
-0.0124346
0.0313792
-0.0114361
0.0322318
-0.0103652
0.0330179
-0.0092468
0.0337414
-0.00809087
0.0344042
-0.00690324
0.0350068
-0.00568804
0.035549
-0.00444868
0.0360299
-0.0031884
0.0364483
-0.00191047
0.0368028
-0.000618334
0.0370917
0.000684324
0.0373132
0.00199353
0.0374652
0.00330497
0.0375456
0.00461392
0.0375524
0.00591521
0.0374832
0.0072032
0.0373359
0.00847173
0.00971413
0.0292615
-0.0281271
-0.0144329
0.0302595
-0.0134326
0.0311668
-0.0123434
0.0320033
-0.0112017
0.0327773
-0.0100208
0.0334929
-0.00880647
0.0341515
-0.00756189
0.0347534
-0.00628988
0.0352978
-0.00499315
0.035784
-0.00367451
0.0362104
-0.00233694
0.0365758
-0.000983694
0.0368784
0.000381734
0.0371164
0.00175551
0.0372879
0.00313346
0.0373909
0.00451095
0.0374232
0.00588291
0.0373826
0.00724377
0.037267
0.00858738
0.00990704
0.0224127
0.00536058
-0.00404535
-0.0237279
0.0210866
0.0055235
-0.00419741
0.0197494
0.00569985
-0.00436266
0.0184011
0.00589219
-0.00454388
0.0170419
0.00610359
-0.0047444
0.0156725
0.00633749
-0.00496808
0.0142942
0.00659783
-0.00521952
0.0129091
0.00688909
-0.00550404
0.0115207
0.00721606
-0.00582762
0.0101338
0.00758357
-0.00619666
0.00875541
0.00799601
-0.00661763
0.00739528
0.00845658
-0.00709645
0.00606658
0.00896619
-0.0076375
0.00478694
0.00952201
-0.00824236
0.00357947
0.0101154
-0.00890794
0.00247411
0.0107295
-0.00962413
0.00150911
0.0113357
-0.0103707
0.000732648
0.0118898
-0.0111133
0.0002049
0.0123265
-0.0117988
0.0125527
-0.0123478
0.0223973
0.00667406
-0.0237108
0.0210728
0.00684796
0.0197372
0.00703549
0.0183903
0.00723906
0.0170325
0.00746147
0.0156642
0.0077057
0.014287
0.0079751
0.0129028
0.00827324
0.0115151
0.00860376
0.0101288
0.0089699
0.00875084
0.00937395
0.00739103
0.00981639
0.00606261
0.0102946
0.00478326
0.0108014
0.00357622
0.0113224
0.00247155
0.0118342
0.00150755
0.0122997
0.000732404
0.0126649
0.000205722
0.0128532
0.0127585
0.0223336
0.00798384
-0.0236434
0.0210128
0.00816879
0.0196807
0.00836759
0.0183373
0.00858245
0.0169829
0.00881592
0.015618
0.00907055
0.0142441
0.00934905
0.0128632
0.00965412
0.0114787
0.00998822
0.0100956
0.010353
0.00872097
0.0107486
0.00736448
0.0111729
0.0060395
0.0116196
0.00476375
0.0120771
0.0035605
0.0125257
0.0024598
0.0129349
0.00149983
0.0132597
0.00072845
0.0134363
0.000204622
0.0133771
0.0129631
0.022222
0.00928799
-0.0235262
0.0209067
0.00948407
0.0195802
0.00969417
0.0182422
0.00992036
0.0168933
0.0101649
0.0155339
0.0104299
0.0141655
0.0107174
0.0127903
0.0110294
0.0114116
0.0113669
0.0100344
0.0117302
0.00866576
0.0121172
0.00731561
0.012523
0.00599722
0.012938
0.00472837
0.013346
0.00353228
0.0137218
0.00243886
0.0140283
0.00148605
0.0142125
0.000721175
0.0142012
0.000202341
0.0138959
0.0131654
0.0220629
0.0105847
-0.0233596
0.020755
0.0107919
0.0194358
0.0110134
0.0181053
0.0112508
0.0167638
0.0115064
0.0154121
0.0117817
0.0140514
0.0120781
0.0126841
0.0123967
0.0113136
0.0127374
0.00994496
0.0130989
0.00858526
0.0134769
0.00724442
0.0138639
0.0059358
0.0142466
0.00467714
0.0146046
0.00349159
0.0149073
0.00240883
0.015111
0.00146637
0.0151549
0.000710795
0.0149568
0.000199087
0.0144076
0.0133645
0.0218567
0.0118722
-0.0231442
0.020558
0.0120907
0.019248
0.0123233
0.0179268
0.012572
0.0165947
0.0128384
0.0152526
0.0131238
0.0139019
0.0134288
0.0125449
0.0137537
0.011185
0.0140973
0.00982751
0.0144564
0.00847952
0.0148249
0.00715098
0.0151924
0.00585529
0.0155423
0.00461013
0.0158498
0.00343851
0.016079
0.00236979
0.0161798
0.00144088
0.0160838
0.000697425
0.0157002
0.000194934
0.0149101
0.0135594
0.021604
0.0131489
-0.0228807
0.0203161
0.0133785
0.0190171
0.0136224
0.017707
0.0138821
0.0163862
0.0141591
0.0150558
0.0144542
0.0137171
0.0147675
0.0123726
0.0150982
0.0110259
0.015444
0.00968211
0.0158001
0.00834862