/*--------------------------------*- C++ -*----------------------------------*\
  =========                 |
  \\      /  F ield         | OpenFOAM: The Open Source CFD Toolbox
   \\    /   O peration     | Website:  https://openfoam.org
    \\  /    A nd           | Version:  6.0
     \\/     M anipulation  |
\*---------------------------------------------------------------------------*/
FoamFile
{
    version     2.0;
    format      ascii;
    class       volScalarField;
    location    "7";
    object      p;
}
// * * * * * * * * * * * * * * * * * * * * * * * * * * * * * * * * * * * * * //

dimensions      [0 2 -2 0 0 0 0];

internalField   nonuniform List<scalar> 
2400
(
-7.37328
-5.51252
-4.4931
-3.81474
-3.24845
-2.77436
-2.38045
-2.05002
-1.76992
-1.53522
-7.92029
-6.02053
-4.954
-4.22886
-3.61929
-3.1069
-2.68012
-2.32179
-2.01787
-1.76372
-8.4826
-6.53995
-5.42301
-4.64834
-3.99335
-3.44123
-2.98072
-2.5941
-2.26634
-1.99315
-9.05499
-7.0663
-5.8957
-5.06884
-4.3665
-3.77343
-3.27861
-2.86357
-2.51223
-2.22078
-9.63206
-7.59455
-6.36732
-5.48581
-4.73441
-4.09941
-3.56988
-3.12646
-2.75196
-2.44314
-10.2084
-8.11956
-6.83299
-5.89467
-5.09282
-4.41522
-3.85082
-3.37915
-2.9818
-2.65589
-10.7792
-8.63625
-7.28781
-6.29082
-5.43754
-4.71718
-4.11832
-3.61899
-3.1991
-2.85604
-11.3402
-9.14004
-7.72701
-6.66963
-5.76413
-5.00103
-4.36835
-3.84231
-3.40122
-3.04524
-11.8877
-9.62671
-8.14638
-7.0271
-6.06855
-5.26199
-4.59439
-4.04033
-3.57989
-3.22229
-12.4135
-10.0914
-8.54291
-7.36132
-6.34963
-5.49874
-4.79337
-4.20668
-3.7236
-3.35614
-15.6269
-15.523
-15.3594
-15.1418
-14.8733
-14.5573
-14.1978
-13.7991
-13.3658
-12.9027
-12.7913
-12.7271
-12.6088
-12.4395
-12.222
-11.9594
-11.6551
-11.3128
-10.9362
-10.5282
-10.7082
-10.6779
-10.6001
-10.4762
-10.3087
-10.1002
-9.85358
-9.57187
-9.258
-8.91429
-9.1024
-9.09126
-9.03886
-8.94618
-8.81522
-8.64835
-8.44808
-8.21693
-7.95759
-7.67192
-7.78814
-7.78459
-7.74519
-7.67083
-7.56332
-7.42477
-7.25759
-7.06429
-6.84766
-6.60912
-6.73027
-6.72766
-6.69355
-6.62884
-6.53521
-6.41466
-6.26972
-6.10305
-5.91809
-5.71614
-5.88374
-5.87909
-5.84627
-5.78619
-5.70045
-5.59091
-5.46034
-5.31163
-5.14947
-4.97509
-5.19906
-5.19175
-5.15875
-5.10096
-5.01979
-4.91696
-4.79542
-4.65829
-4.51235
-4.35775
-4.63633
-4.62724
-4.59453
-4.53899
-4.46172
-4.36416
-4.2491
-4.11967
-3.98623
-3.84735
-4.17277
-4.16026
-4.12666
-4.07259
-3.9987
-3.90597
-3.79613
-3.67151
-3.54414
-3.42067
-13.3446
-13.8076
-14.2258
-14.599
-14.9219
-15.1896
-15.3989
-15.5477
-15.6353
-15.6616
-10.4698
-10.9108
-11.3146
-11.6776
-11.9951
-12.2635
-12.4796
-12.6415
-12.7481
-12.7981
-8.44467
-8.85121
-9.22693
-9.567
-9.86755
-10.1255
-10.3383
-10.5042
-10.6217
-10.6899
-6.99464
-7.36166
-7.7024
-8.01198
-8.28691
-8.52473
-8.72348
-8.88159
-8.99793
-9.07164
-5.88156
-6.21062
-6.51644
-6.79424
-7.04099
-7.25477
-7.43412
-7.57785
-7.68512
-7.7553
-5.02719
-5.32381
-5.59849
-5.84678
-6.06662
-6.25669
-6.41585
-6.54329
-6.63841
-6.7008
-4.36222
-4.63391
-4.88323
-5.10579
-5.30171
-5.47044
-5.61106
-5.72306
-5.80603
-5.85963
-3.82759
-4.07857
-4.30889
-4.51086
-4.68682
-4.83755
-4.9626
-5.06163
-5.13424
-5.1801
-3.40144
-3.62364
-3.83552
-4.02194
-4.18164
-4.3168
-4.42864
-4.51705
-4.5814
-4.62122
-3.1326
-3.31512
-3.48717
-3.65377
-3.79514
-3.91044
-4.00472
-4.07901
-4.13225
-4.1636
-0.728979
-0.885087
-1.09098
-1.35372
-1.70098
-2.17764
-2.84263
-3.77958
-5.26521
-7.68648
-0.945865
-1.12334
-1.3499
-1.63729
-2.01452
-2.52738
-3.23612
-4.22496
-5.76765
-8.23812
-1.17016
-1.36986
-1.61779
-1.93084
-2.33924
-2.88962
-3.64349
-4.68542
-6.28563
-8.80462
-1.40106
-1.62342
-1.8931
-2.23253
-2.67298
-3.26185
-4.0618
-5.15764
-6.81606
-9.3843
-1.63796
-1.88288
-2.17425
-2.54043
-3.0135
-3.64147
-4.48805
-5.63811
-7.35469
-9.97205
-1.88048
-2.14716
-2.45956
-2.85246
-3.35829
-4.02558
-4.91893
-6.12294
-7.89678
-10.5621
-2.12796
-2.41467
-2.7468
-3.16596
-3.70441
-4.41085
-5.35061
-6.6078
-8.43735
-11.1488
-2.37973
-2.68322
-3.03288
-3.47763
-4.04837
-4.79347
-5.77884
-7.08783
-8.97099
-11.7263
-2.63222
-2.94768
-3.31268
-3.78327
-4.38623
-5.16919
-6.19893
-7.55786
-9.49213
-12.289
-2.88059
-3.19483
-3.57862
-4.07884
-4.71403
-5.53359
-6.60598
-8.01214
-9.99409
-12.8307
0.808432
0.784844
0.728869
0.640461
0.502773
0.284742
-0.056738
-0.592194
-1.61159
-3.61014
0.72439
0.69262
0.622392
0.521586
0.370656
0.135559
-0.228452
-0.793031
-1.84674
-3.87535
0.621538
0.580707
0.498421
0.384817
0.218923
-0.0352061
-0.423927
-1.02012
-2.11057
-4.17057
0.499528
0.449889
0.356218
0.228908
0.0464713
-0.228442
-0.643855
-1.27407
-2.40453
-4.4999
0.361872
0.302353
0.196461
0.0540556
-0.146685
-0.44433
-0.888606
-1.55532
-2.72877
-4.86297
0.210099
0.138965
0.019618
-0.139315
-0.360146
-0.682578
-1.15801
-1.86374
-3.08294
-5.25874
0.045078
-0.0395809
-0.173692
-0.350581
-0.593281
-0.942588
-1.45151
-2.19881
-3.46644
-5.68631
-0.132336
-0.232383
-0.382581
-0.578864
-0.845202
-1.22345
-1.7682
-2.55958
-3.87825
-6.14458
-0.321187
-0.438373
-0.605952
-0.823047
-1.11475
-1.52396
-2.10677
-2.94466
-4.31696
-6.63213
-0.520443
-0.656386
-0.842578
-1.08187
-1.4006
-1.84268
-2.46566
-3.35219
-4.78031
-7.14709
0.909292
0.998176
1.05348
1.09066
1.11372
1.1248
1.12593
1.11875
1.10451
1.08408
0.867213
0.95382
1.01537
1.05847
1.08583
1.09989
1.10286
1.09653
1.08228
1.06108
0.823164
0.907886
0.971961
1.01819
1.04822
1.0643
1.06856
1.06278
1.04834
1.02619
0.74472
0.833625
0.902802
0.95375
0.987886
1.00727
1.01392
1.00958
0.995651
0.973066
0.617348
0.714414
0.791553
0.849619
0.889974
0.91453
0.925212
0.923742
0.911511
0.889439
0.413596
0.522863
0.61125
0.679482
0.728882
0.761229
0.778358
0.78195
0.773389
0.753568
0.0918974
0.218708
0.323116
0.405977
0.468607
0.512693
0.539989
0.552141
0.550524
0.535983
-0.417051
-0.265955
-0.139107
-0.0355865
0.0459838
0.107268
0.149996
0.175775
0.185948
0.181333
-1.40262
-1.2202
-1.06441
-0.934221
-0.827967
-0.743841
-0.680063
-0.63513
-0.607837
-0.59695
-3.36443
-3.15006
-2.96597
-2.8099
-2.67954
-2.5728
-2.48782
-2.42335
-2.37847
-2.35047
1.05791
1.02616
0.98853
0.944432
0.893158
0.83411
0.766838
0.691965
0.615089
0.532374
1.03341
0.999551
0.959164
0.91169
0.85641
0.792606
0.719379
0.636767
0.548601
0.446033
0.996808
0.960464
0.916784
0.865173
0.804859
0.734999
0.6545
0.562757
0.460659
0.340465
0.942261
0.903575
0.85658
0.800671
0.735025
0.658716
0.570592
0.469688
0.355068
0.22035
0.85794
0.817444
0.767463
0.707398
0.636371
0.553371
0.457174
0.346526
0.219608
0.0714288
0.72286
0.681812
0.629854
0.566367
0.490425
0.400911
0.296495
0.175662
0.0362623
-0.125485
0.508807
0.469697
0.417973
0.352976
0.273705
0.17891
0.0671583
-0.0632514
-0.214514
-0.389585
0.16221
0.129409
0.0820947
0.0194803
-0.0595597
-0.15637
-0.272531
-0.409881
-0.570632
-0.757224
-0.601149
-0.620801
-0.65695
-0.710589
-0.782924
-0.875498
-0.990108
-1.12897
-1.29461
-1.4886
-2.33353
-2.3346
-2.35435
-2.39347
-2.45325
-2.53549
-2.6425
-2.77742
-2.94344
-3.13984
-3.35924
-1.71083
-0.971307
-0.590468
-0.312404
-0.102954
0.0555752
0.179842
0.276875
0.339365
-3.61327
-1.96235
-1.21178
-0.815563
-0.521556
-0.297466
-0.126535
0.00683946
0.108481
0.178693
-3.90223
-2.24398
-1.47887
-1.06439
-0.75169
-0.510152
-0.323697
-0.176852
-0.062674
0.0233002
-4.22556
-2.55574
-1.77222
-1.33619
-1.00175
-0.739759
-0.534658
-0.370837
-0.240246
-0.136923
-4.58271
-2.89727
-2.09144
-1.63052
-1.2713
-0.986016
-0.759613
-0.576338
-0.42731
-0.306207
-4.97314
-3.26803
-2.43602
-1.94687
-1.55993
-1.24876
-0.998815
-0.794242
-0.625479
-0.48627
-5.3961
-3.66718
-2.80515
-2.28451
-1.867
-1.52753
-1.25208
-1.0247
-0.835185
-0.677501
-5.8507
-4.09353
-3.19755
-2.64219
-2.19138
-1.82134
-1.51859
-1.26708
-1.05594
-0.879393
-6.33549
-4.54534
-3.61134
-3.01807
-2.53131
-2.12857
-1.79689
-1.52007
-1.28654
-1.0908
-6.84601
-5.01975
-4.04418
-3.40986
-2.88459
-2.44712
-2.085
-1.78182
-1.52526
-1.31009
-0.945106
-0.44167
-0.265138
-0.163412
-0.119311
-0.107085
-0.11312
-0.130513
-0.156594
-0.19265
-0.238157
-0.272843
-0.263766
-0.207952
-0.136166
-0.0770724
-0.0387157
-0.0170978
-0.00649315
-2.13361e-05
-1.13652
-0.545994
-0.330128
-0.208739
-0.150337
-0.128801
-0.128204
-0.140468
-0.162131
-0.193698
-0.234462
-0.265844
-0.256827
-0.203786
-0.134934
-0.0774908
-0.0396347
-0.0179216
-0.00701759
-0.000127975
-1.33164
-0.657195
-0.397313
-0.255053
-0.181835
-0.150555
-0.143159
-0.150253
-0.167535
-0.194751
-0.231006
-0.259287
-0.250378
-0.199997
-0.13393
-0.0780182
-0.0405957
-0.0187574
-0.00754316
-0.00023984
-1.52927
-0.77525
-0.466997
-0.302463
-0.213969
-0.172498
-0.158097
-0.159961
-0.172893
-0.195889
-0.227865
-0.253236
-0.244452
-0.196593
-0.133148
-0.0786507
-0.041597
-0.0196044
-0.00806954
-0.000358004
-1.72583
-0.897377
-0.537863
-0.350339
-0.246581
-0.194642
-0.173072
-0.169656
-0.178269
-0.197173
-0.225089
-0.247726
-0.239065
-0.193573
-0.132581
-0.0793835
-0.0426369
-0.0204624
-0.00859727
-0.000483665
-1.91431
-1.01989
-0.608821
-0.398221
-0.279492
-0.216946
-0.188088
-0.179368
-0.183706
-0.198646
-0.222711
-0.242772
-0.234217
-0.190925
-0.132217
-0.0802086
-0.0437117
-0.0213302
-0.00912621
-0.000617623
-2.09657
-1.15163
-0.686972
-0.449621
-0.31418
-0.240058
-0.203453
-0.189263
-0.189311
-0.200381
-0.220787
-0.238421
-0.229934
-0.188656
-0.132051
-0.0811201
-0.0448174
-0.0222058
-0.00965571
-0.000760384
-2.30413
-1.32149
-0.789522
-0.512987
-0.354676
-0.266005
-0.220204
-0.199879
-0.195356
-0.202512
-0.219407
-0.234795
-0.226355
-0.186867
-0.132134
-0.0821357
-0.0459558
-0.0230865
-0.0101838
-0.000911557
-2.54244
-1.52039
-0.90926
-0.584942
-0.400211
-0.294885
-0.238535
-0.21134
-0.201876
-0.204975
-0.21843
-0.231761
-0.223442
-0.185601
-0.132523
-0.0832929
-0.0471461
-0.0239806
-0.0107136
-0.00107312
-2.61365
-1.60656
-0.966003
-0.625065
-0.431032
-0.316656
-0.253137
-0.220829
-0.207417
-0.206979
-0.217064
-0.228108
-0.219829
-0.183832
-0.132676
-0.0843975
-0.0483663
-0.0249151
-0.0112662
-0.00125817
-2.42632
-1.55667
-0.945382
-0.624426
-0.441875
-0.328495
-0.262645
-0.227941
-0.212164
-0.208629
-0.214205
-0.220806
-0.211491
-0.178353
-0.131107
-0.0852915
-0.0500279
-0.0263364
-0.0121201
-0.00156757
-2.20033
-1.50455
-0.952108
-0.64659
-0.472
-0.357656
-0.285935
-0.24504
-0.223626
-0.214722
-0.214731
-0.216362
-0.20518
-0.173733
-0.129527
-0.085919
-0.051504
-0.0277229
-0.0130049
-0.00188027
-1.93656
-1.42177
-0.950872
-0.663414
-0.497387
-0.385901
-0.310505
-0.263863
-0.236756
-0.222344
-0.216715
-0.213262
-0.199789
-0.169398
-0.127789
-0.0863144
-0.0528599
-0.0291007
-0.0139187
-0.00221427
-1.66982
-1.31275
-0.937297
-0.677552
-0.519807
-0.412419
-0.335269
-0.283565
-0.250898
-0.230968
-0.219604
-0.210907
-0.194861
-0.165276
-0.126171
-0.0868537
-0.0543928
-0.0306411
-0.0149367
-0.00260025
-1.43229
-1.19063
-0.908126
-0.68595
-0.538772
-0.43625
-0.359395
-0.303896
-0.266022
-0.240663
-0.223644
-0.209754
-0.190952
-0.161831
-0.124944
-0.0876335
-0.0561055
-0.0323202
-0.01604
-0.0030306
-1.23311
-1.0707
-0.867267
-0.687438
-0.554467
-0.457196
-0.381884
-0.324084
-0.281731
-0.251261
-0.228885
-0.210062
-0.188425
-0.159354
-0.124226
-0.0886367
-0.0579283
-0.0340749
-0.0171921
-0.00349181
-1.07792
-0.966479
-0.822503
-0.682272
-0.566182
-0.474919
-0.40178
-0.343028
-0.29726
-0.262289
-0.235069
-0.211758
-0.187341
-0.157934
-0.124053
-0.0898321
-0.0597925
-0.0358375
-0.0183495
-0.00396619
-0.965286
-0.88468
-0.781153
-0.672721
-0.573496
-0.488984
-0.418321
-0.359529
-0.311504
-0.272926
-0.241612
-0.214461
-0.187506
-0.157497
-0.124378
-0.0911425
-0.0615921
-0.0375052
-0.0194429
-0.00442389
-0.890551
-0.827598
-0.748962
-0.66251
-0.577041
-0.498938
-0.430713
-0.372314
-0.323022
-0.281927
-0.247535
-0.217438
-0.188434
-0.157751
-0.125001
-0.092383
-0.0631374
-0.0389104
-0.0203596
-0.00481679
-0.851237
-0.796627
-0.730382
-0.655668
-0.578332
-0.504454
-0.437914
-0.379887
-0.330027
-0.287581
-0.25142
-0.219591
-0.189342
-0.158176
-0.125547
-0.0932259
-0.0641225
-0.0397961
-0.0209273
-0.00506953
-3.55504
-3.52451
-3.47717
-3.41345
-3.33335
-3.23729
-3.12412
-2.9963
-2.85166
-2.7414
-2.88009
-2.84738
-2.80435
-2.75222
-2.69191
-2.62531
-2.55372
-2.48394
-2.41595
-2.3796
-2.35239
-2.32763
-2.29839
-2.2661
-2.23173
-2.1964
-2.15981
-2.123
-2.08125
-2.05021
-1.93583
-1.91932
-1.90028
-1.87918
-1.85612
-1.83104
-1.80351
-1.77452
-1.74417
-1.72334
-1.6119
-1.60035
-1.58675
-1.57137
-1.55449
-1.53647
-1.51769
-1.49887
-1.48012
-1.46522
-1.36811
-1.36026
-1.35088
-1.34015
-1.3283
-1.3155
-1.3019
-1.28763
-1.27281
-1.25904
-1.1901
-1.18459
-1.17771
-1.16956
-1.16028
-1.14999
-1.13881
-1.12691
-1.11445
-1.10207
-1.06496
-1.06082
-1.05544
-1.04887
-1.04123
-1.03259
-1.02307
-1.01277
-1.00179
-0.990399
-0.98328
-0.979897
-0.975355
-0.969705
-0.963013
-0.955352
-0.946799
-0.937439
-0.927354
-0.916685
-0.940941
-0.937935
-0.933831
-0.928667
-0.922484
-0.915331
-0.907263
-0.898336
-0.888614
-0.878165
-2.95062
-3.12505
-3.1752
-3.27749
-3.37814
-3.44985
-3.50188
-3.53988
-3.56251
-3.56786
-2.63471
-2.76697
-2.72984
-2.75608
-2.82076
-2.86756
-2.89242
-2.90552
-2.90902
-2.90092
-2.26339
-2.36368
-2.30589
-2.29665
-2.33753
-2.3731
-2.38715
-2.3883
-2.38284
-2.37107
-1.90511
-1.98402
-1.93596
-1.91477
-1.93578
-1.96005
-1.96902
-1.96663
-1.95939
-1.94922
-1.5988
-1.65643
-1.62701
-1.60796
-1.61621
-1.63029
-1.63624
-1.63437
-1.62877
-1.6213
-1.35191
-1.38923
-1.37619
-1.36602
-1.36997
-1.37803
-1.38234
-1.38206
-1.37903
-1.37433
-1.16446
-1.18761
-1.18565
-1.18396
-1.18801
-1.19357
-1.1971
-1.19798
-1.19685
-1.19419
-1.03334
-1.04864
-1.05253
-1.05567
-1.06033
-1.0649
-1.06803
-1.06944
-1.06931
-1.0678
-0.950692
-0.961964
-0.968059
-0.97297
-0.977699
-0.981741
-0.984606
-0.98616
-0.986433
-0.985466
-0.908983
-0.918571
-0.92526
-0.930594
-0.935188
-0.938933
-0.941625
-0.943175
-0.943572
-0.942825
-0.170643
-0.178134
-0.195237
-0.227695
-0.27893
-0.368249
-0.504163
-0.761094
-1.15584
-2.08983
-0.216278
-0.225112
-0.244439
-0.28046
-0.336547
-0.432635
-0.574807
-0.838842
-1.2233
-2.00759
-0.266404
-0.27603
-0.296721
-0.334683
-0.392531
-0.48933
-0.626809
-0.868551
-1.2007
-1.76497
-0.32046
-0.330613
-0.352299
-0.391026
-0.449066
-0.541301
-0.669404
-0.868701
-1.14282
-1.52722
-0.377175
-0.387433
-0.409538
-0.447479
-0.504098
-0.58706
-0.702783
-0.85668
-1.07584
-1.33845
-0.434459
-0.444291
-0.46592
-0.501404
-0.554305
-0.625467
-0.724978
-0.841986
-1.00791
-1.1891
-0.489327
-0.498317
-0.518412
-0.550229
-0.597019
-0.656416
-0.73712
-0.82683
-0.945388
-1.06854
-0.538052
-0.546015
-0.563741
-0.591337
-0.630781
-0.679671
-0.742446
-0.811298
-0.893579
-0.976283
-0.57638
-0.583336
-0.59851
-0.622063
-0.654744
-0.695003
-0.743845
-0.79722
-0.855972
-0.913792
-0.599233
-0.605474
-0.618824
-0.639581
-0.667881
-0.702679
-0.743492
-0.787946
-0.834849
-0.880686
0.100395
0.100101
0.099882
0.0973822
0.0913971
0.0761598
0.0445431
-0.0169501
-0.148358
-0.38382
0.0731243
0.0721263
0.0701467
0.0647128
0.0543363
0.0324467
-0.00951027
-0.0865775
-0.247145
-0.528773
0.0459424
0.0442521
0.0405412
0.0321736
0.0174251
-0.0112497
-0.0635437
-0.156798
-0.346988
-0.676612
0.0189263
0.0165659
0.0111714
-0.000114123
-0.0191925
-0.0547883
-0.11733
-0.227496
-0.447374
-0.827151
-0.00785149
-0.0108499
-0.0178643
-0.0320365
-0.0553867
-0.0980381
-0.170665
-0.298625
-0.547713
-0.980691
-0.0343238
-0.0379176
-0.0464759
-0.0634878
-0.0910453
-0.140876
-0.223386
-0.370193
-0.64733
-1.13828
-0.0604263
-0.0645547
-0.0745662
-0.0943535
-0.126057
-0.18317
-0.275373
-0.442216
-0.745507
-1.30183
-0.0860977
-0.0906617
-0.102004
-0.124475
-0.160274
-0.224753
-0.326562
-0.514667
-0.841595
-1.47504
-0.111311
-0.11622
-0.12877
-0.153828
-0.193699
-0.265608
-0.377166
-0.587748
-0.935458
-1.65944
-0.136155
-0.141611
-0.155517
-0.18322
-0.227291
-0.306462
-0.427987
-0.661524
-1.03222
-1.87545
0.360993
0.366555
0.381718
0.405947
0.440298
0.484804
0.54295
0.611546
0.704388
0.769256
0.336845
0.341786
0.355558
0.377158
0.40756
0.446155
0.496235
0.552421
0.629441
0.680061
0.312219
0.316795
0.329342
0.348505
0.37511
0.407893
0.449642
0.493243
0.55264
0.589633
0.287055
0.291217
0.302488
0.319267
0.342238
0.369569
0.403489
0.43576
0.477336
0.494115
0.261378
0.265029
0.274889
0.28917
0.308394
0.330193
0.356059
0.376842
0.39853
0.389065
0.235252
0.238326
0.246659
0.258319
0.273614
0.289643
0.306878
0.315364
0.31495
0.27544
0.208746
0.211197
0.217918
0.226863
0.238081
0.248139
0.256228
0.251738
0.227596
0.154788
0.181929
0.183724
0.188765
0.194922
0.201949
0.205883
0.20444
0.186459
0.137251
0.0278734
0.154879
0.15599
0.159302
0.162613
0.165357
0.163033
0.151752
0.119785
0.0442559
-0.104713
0.127674
0.128086
0.129637
0.130057
0.128455
0.119739
0.0983756
0.0519074
-0.0510829
-0.242232
0.788314
0.793742
0.804888
0.821632
0.842996
0.86743
0.893236
0.918653
0.942163
0.962088
0.768002
0.774203
0.787002
0.80628
0.831038
0.859681
0.890435
0.921246
0.950406
0.97544
0.733785
0.741083
0.756236
0.77921
0.809076
0.844254
0.882929
0.922641
0.961364
0.995168
0.690036
0.698392
0.715878
0.742652
0.777987
0.820486
0.868457
0.919123
0.970086
1.01523
0.640408
0.649545
0.668852
0.698753
0.738838
0.788087
0.845222
0.907446
0.972147
1.03036
0.588075
0.597592
0.617948
0.649823
0.693181
0.74753
0.812305
0.885132
0.963709
1.03581
0.535654
0.545132
0.565702
0.598218
0.642993
0.700099
0.769893
0.850782
0.941667
1.02688
0.485118
0.494218
0.514297
0.546195
0.590511
0.647753
0.719262
0.804251
0.903933
0.998489
0.437775
0.446275
0.465414
0.495749
0.538064
0.59301
0.66277
0.746817
0.849851
0.945685
0.394247
0.401681
0.419335
0.447226
0.486287
0.53698
0.602135
0.68022
0.779828
0.865379
0.972101
0.97546
0.978084
0.980304
0.982173
0.983638
0.98466
0.985224
0.98532
0.984937
0.988956
0.992842
0.995199
0.99718
0.998934
1.00029
1.00114
1.00148
1.0013
1.00058
1.01517
1.02016
1.0222
1.02388
1.0255
1.0267
1.0273
1.02728
1.02663
1.02535
1.04425
1.05096
1.05289
1.05437
1.05594
1.057
1.05727
1.05677
1.0555
1.05346
1.07102
1.08023
1.08257
1.08417
1.08583
1.08675
1.08662
1.08548
1.08338
1.08034
1.09153
1.10444
1.10806
1.11028
1.11223
1.11298
1.11224
1.11015
1.1068
1.10225
1.10244
1.12087
1.12723
1.13097
1.13362
1.13426
1.13271
1.12922
1.12399
1.11712
1.09988
1.12655
1.13807
1.14491
1.14905
1.14983
1.14734
1.14204
1.13429
1.12432
1.07816
1.11526
1.13516
1.14779
1.15533
1.15748
1.15467
1.14759
1.1368
1.12266
1.04035
1.09686
1.12977
1.14932
1.15968
1.16178
1.15682
1.14595
1.12994
1.10923
0.984062
0.982683
0.980786
0.97836
0.975392
0.971871
0.967787
0.963126
0.957883
0.952096
0.999299
0.997449
0.995009
0.991964
0.988303
0.984017
0.979102
0.973542
0.967323
0.960743
1.0234
1.02076
1.01741
1.01332
1.00848
1.00287
0.996504
0.989319
0.981234
0.973076
1.0506
1.04692
1.04238
1.03696
1.03064
1.02341
1.01525
1.00599
0.995345
0.984823
1.07633
1.07134
1.06537
1.05836
1.05026
1.04101
1.03052
1.01836
1.00394
0.989822
1.0965
1.08957
1.0814
1.07191
1.06097
1.04847
1.03419
1.01728
0.99672
0.977593
1.10869
1.09868
1.08702
1.07354
1.05802
1.04032
1.02009
0.995484
0.964688
0.938005
1.11223
1.09803
1.08155
1.06249
1.04041
1.01508
0.985819
0.949208
0.901906
0.863226
1.10534
1.08484
1.06084
1.03282
1.00007
0.962123
0.91828
0.86419
0.79534
0.742679
1.08392
1.0538
1.01831
0.976623
0.927827
0.871328
0.80702
0.733047
0.647849
0.58735
0.936711
0.8989
0.845479
0.775266
0.688466
0.58665
0.472503
0.351111
0.2251
0.0824475
-0.0807498
-0.206915
-0.219097
-0.134318
-0.03961
0.0139517
0.0304467
0.0275187
0.0179734
0.00505496
0.945425
0.899529
0.835238
0.754816
0.659846
0.552506
0.43676
0.318473
0.194897
0.0444658
-0.134003
-0.267805
-0.273089
-0.172984
-0.0631261
0.00103783
0.0236305
0.0240223
0.0163673
0.004722
0.958695
0.899104
0.818229
0.723425
0.617368
0.503391
0.387017
0.273419
0.153374
-0.00341846
-0.196403
-0.339554
-0.339842
-0.22341
-0.095152
-0.0171094
0.013838
0.0189334
0.0139813
0.00424713
0.970697
0.893123
0.794568
0.685914
0.570069
0.451708
0.336392
0.226585
0.10947
-0.0472575
-0.243212
-0.389627
-0.388594
-0.26381
-0.123449
-0.0345259
0.00385985
0.013546
0.0113703
0.00373027
0.972775
0.874845
0.761317
0.641935
0.519726
0.400261
0.287542
0.181249
0.0681174
-0.0819872
-0.270079
-0.412403
-0.411991
-0.287396
-0.143416
-0.0486422
-0.00497552
0.00852424
0.00883971
0.00322523
0.956506
0.838621
0.714949
0.589316
0.465455
0.348661
0.240685
0.139356
0.0324329
-0.106889
-0.281191
-0.414885
-0.41569
-0.296756
-0.155477
-0.0591277
-0.0122897
0.00412433
0.0065316
0.00275849
0.913947
0.779613
0.652862
0.527653
0.408092
0.297971
0.197083
0.102372
0.00318783
-0.123765
-0.282346
-0.405611
-0.407597
-0.296806
-0.161715
-0.066564
-0.0181524
0.000389245
0.00449546
0.0023402
0.837102
0.694271
0.574019
0.457537
0.348398
0.2486
0.156914
0.0702585
-0.0203158
-0.134951
-0.278554
-0.391507
-0.394176
-0.291828
-0.164217
-0.0717213
-0.02278
-0.00272027
0.00274125
0.00197527
0.721764
0.582476
0.481246
0.381726
0.287832
0.200852
0.119682
0.0419277
-0.0397482
-0.142847
-0.273182
-0.376849
-0.379671
-0.28487
-0.164609
-0.0752615
-0.0263792
-0.00525331
0.00126685
0.00166825
0.578232
0.454876
0.389206
0.310993
0.233265
0.158535
0.0867164
0.0164699
-0.0577917
-0.150485
-0.267637
-0.361455
-0.364073
-0.276549
-0.163535
-0.0776196
-0.0292312
-0.00738237
-1.09706e-05
0.00139008
0.461676
0.364174
0.33683
0.27374
0.205322
0.136586
0.0683937
0.000115357
-0.0717265
-0.156972
-0.260763
-0.343552
-0.345866
-0.266083
-0.160937
-0.0791315
-0.0316927
-0.0093054
-0.00114298
0.00109505
0.385245
0.296439
0.286039
0.232065
0.171374
0.109705
0.04723
-0.0162924
-0.0838628
-0.16411
-0.260884
-0.336862
-0.336653
-0.259101
-0.157869
-0.0788735
-0.0325462
-0.0102212
-0.00176159
0.00093885
0.287728
0.222677
0.22899
0.18793
0.136076
0.0819683
0.0255612
-0.0326925
-0.0954622
-0.170803
-0.261537
-0.331812
-0.328938
-0.252464
-0.154314
-0.077995
-0.0329625
-0.0109139
-0.00228595
0.000816708
0.175699
0.148862
0.170065
0.144365
0.1022
0.0558813
0.00554746
-0.0475945
-0.105709
-0.176078
-0.260733
-0.325655
-0.320877
-0.246132
-0.151176
-0.077358
-0.0334701
-0.0116297
-0.00281092
0.000701775
0.0494559
0.0742754
0.10958
0.100825
0.0690969
0.0307304
-0.0134401
-0.0614852
-0.114975
-0.180304
-0.25886
-0.318615
-0.312408
-0.239942
-0.148377
-0.0769632
-0.0340896
-0.0123827
-0.0033429
0.000590657
-0.0902883
-0.00202581
0.048092
0.0571906
0.0366142
0.00629725
-0.0316448
-0.0745771
-0.12343
-0.183705
-0.256279
-0.311147
-0.303844
-0.233914
-0.145791
-0.0766992
-0.0347602
-0.0131475
-0.00387297
0.000484313
-0.242353
-0.0810485
-0.0139097
0.0134603
0.00472836
-0.0174364
-0.0491029
-0.086921
-0.131146
-0.1864
-0.253156
-0.303443
-0.295351
-0.228114
-0.143409
-0.0765414
-0.0354669
-0.013918
-0.00439936
0.000381881
-0.405359
-0.163764
-0.0761621
-0.030393
-0.0266532
-0.0405327
-0.0658796
-0.0985886
-0.138214
-0.188511
-0.249633
-0.295629
-0.287016
-0.222589
-0.141249
-0.0764982
-0.0362143
-0.0146969
-0.00492352
0.000281605
-0.57787
-0.251028
-0.138637
-0.0744248
-0.057672
-0.0630914
-0.08207
-0.109675
-0.144739
-0.190172
-0.245864
-0.287841
-0.278922
-0.217372
-0.139322
-0.0765735
-0.037005
-0.0154859
-0.00544657
0.000182021
-0.758365
-0.343509
-0.20151
-0.11872
-0.0884954
-0.085231
-0.0977799
-0.120282
-0.150831
-0.191511
-0.241995
-0.280208
-0.271149
-0.212485
-0.137627
-0.0767658
-0.0378391
-0.0162862
-0.0059697
8.14956e-05
)
;

boundaryField
{
    inlet
    {
        type            freestreamPressure;
        freestreamValue uniform 0;
        supersonic      false;
        value           nonuniform List<scalar> 
40
(
-0.170643
-0.216278
-0.266404
-0.32046
-0.377175
-0.434459
-0.489327
-0.538052
-0.57638
-0.599233
0.100395
0.0731243
0.0459424
0.0189263
-0.00785149
-0.0343238
-0.0604263
-0.0860977
-0.111311
-0.136155
0.360993
0.336845
0.312219
0.287055
0.261378
0.235252
0.208746
0.181929
0.154879
0.127674
0.788314
0.768002
0.733785
0.690036
0.640408
0.588075
0.535654
0.485118
0.437775
0.394247
)
;
    }
    outlet
    {
        type            freestreamPressure;
        freestreamValue uniform 0;
        supersonic      false;
        value           nonuniform List<scalar> 
40
(
-9.19917e-07
-1.02743e-06
-1.10064e-06
-1.14028e-06
-1.12162e-06
-1.02152e-06
-8.28759e-07
-5.55336e-07
-2.54078e-07
-3.30828e-08
-1.55474e-08
-9.20567e-08
-1.70015e-07
-2.49669e-07
-3.31287e-07
-4.14811e-07
-4.99953e-07
-5.85855e-07
-6.73191e-07
-7.69041e-07
8.25602e-07
7.11181e-07
6.20194e-07
5.33382e-07
4.4857e-07
3.66874e-07
2.88041e-07
2.1113e-07
1.35411e-07
6.00557e-08
6.57521e-08
4.79662e-07
9.76377e-07
1.34744e-06
1.5361e-06
1.56741e-06
1.49113e-06
1.35632e-06
1.20348e-06
1.03553e-06
)
;
    }
    top
    {
        type            symmetryPlane;
    }
    bottom
    {
        type            symmetryPlane;
    }
    cylinder
    {
        type            zeroGradient;
    }
    frontandback
    {
        type            empty;
    }
}


// ************************************************************************* //
