/*--------------------------------*- C++ -*----------------------------------*\
  =========                 |
  \\      /  F ield         | OpenFOAM: The Open Source CFD Toolbox
   \\    /   O peration     | Website:  https://openfoam.org
    \\  /    A nd           | Version:  6.0
     \\/     M anipulation  |
\*---------------------------------------------------------------------------*/
FoamFile
{
    version     2.0;
    format      ascii;
    class       volVectorField;
    location    "4";
    object      U;
}
// * * * * * * * * * * * * * * * * * * * * * * * * * * * * * * * * * * * * * //

dimensions      [0 1 -1 0 0 0 0];

internalField   nonuniform List<vector> 
19200
(
(0.816542 -19.4795 -8.15695e-20)
(0.221928 -18.6758 3.92087e-20)
(0.209094 -17.9281 1.77987e-20)
(0.243112 -17.2255 1.54736e-20)
(0.24074 -16.5623 1.66167e-20)
(0.237566 -15.9293 1.02909e-21)
(0.23686 -15.3211 2.25554e-20)
(0.235922 -14.7348 -1.47067e-21)
(0.234437 -14.1693 1.87004e-20)
(0.232543 -13.6236 7.58564e-21)
(0.230282 -13.0976 2.7723e-22)
(0.227701 -12.5908 1.14521e-20)
(0.224866 -12.1031 1.78004e-20)
(0.221845 -11.634 -1.17547e-20)
(0.218697 -11.1832 1.45692e-20)
(0.215472 -10.75 1.19493e-20)
(0.21221 -10.3341 -1.11028e-20)
(0.208944 -9.93479 1.8192e-20)
(0.205702 -9.55156 -1.13834e-20)
(0.202511 -9.18383 5.59702e-21)
(0.199396 -8.83102 7.47275e-21)
(0.196382 -8.49252 -2.33904e-21)
(0.193497 -8.16772 3.13346e-21)
(0.190768 -7.85598 -3.47359e-21)
(0.188216 -7.55661 -1.34792e-22)
(0.185845 -7.26891 1.65574e-21)
(0.183627 -6.99212 -1.13455e-21)
(0.181693 -6.7255 6.81682e-22)
(0.180458 -6.46837 1.52336e-21)
(0.178679 -6.22017 5.6198e-21)
(1.32492 -19.4502 -1.77116e-20)
(0.711683 -18.666 1.18342e-19)
(0.679532 -17.9215 -6.22923e-20)
(0.695001 -17.2197 -8.19189e-20)
(0.675206 -16.5576 -3.55391e-20)
(0.655439 -15.9253 -2.4718e-20)
(0.63878 -15.3173 -5.2501e-20)
(0.622458 -14.731 6.9509e-21)
(0.606128 -14.1653 -1.1022e-20)
(0.589915 -13.6195 -3.68972e-20)
(0.573853 -13.0933 -8.65368e-20)
(0.557984 -12.5865 4.08047e-20)
(0.542367 -12.0986 -1.49591e-20)
(0.527062 -11.6295 5.63592e-21)
(0.512116 -11.1786 -3.18575e-20)
(0.497564 -10.7455 -1.10977e-20)
(0.483432 -10.3296 1.38358e-21)
(0.469738 -9.9304 3.57886e-20)
(0.456494 -9.54726 -1.91412e-20)
(0.44371 -9.17964 -1.03655e-20)
(0.431394 -8.82697 -3.77735e-20)
(0.419559 -8.48865 9.5437e-21)
(0.408214 -8.16406 -5.6801e-21)
(0.397371 -7.85256 9.74811e-21)
(0.387036 -7.55347 -4.29145e-21)
(0.377192 -7.26607 -6.53246e-21)
(0.367793 -6.98959 2.19473e-21)
(0.358979 -6.72326 3.11116e-21)
(0.351223 -6.46634 -5.59976e-21)
(0.343056 -6.21824 2.46571e-21)
(1.83366 -19.4089 -8.21674e-21)
(1.20081 -18.6434 2.45899e-20)
(1.14947 -17.9023 3.96534e-20)
(1.1466 -17.2019 2.82926e-19)
(1.10949 -16.5414 -1.58148e-19)
(1.07318 -15.9102 1.44303e-19)
(1.0406 -15.3028 8.66208e-20)
(1.00891 -14.7169 6.42278e-20)
(0.977739 -14.1515 -5.85573e-20)
(0.947202 -13.6059 -4.25425e-21)
(0.917333 -13.08 1.39913e-19)
(0.888169 -12.5733 2.17861e-20)
(0.859767 -12.0858 -6.0792e-20)
(0.832174 -11.6169 4.72618e-20)
(0.805428 -11.1664 5.26598e-22)
(0.779551 -10.7336 1.87427e-20)
(0.754552 -10.318 1.30831e-20)
(0.730434 -9.91914 4.17047e-20)
(0.707193 -9.53636 -1.86896e-20)
(0.684821 -9.16912 -6.13986e-21)
(0.663313 -8.81684 -1.45158e-20)
(0.642664 -8.47893 6.23297e-20)
(0.62287 -8.15478 -5.1092e-20)
(0.603926 -7.84374 1.64749e-20)
(0.585823 -7.54514 6.76252e-21)
(0.568524 -7.25826 -2.82769e-20)
(0.55196 -6.98231 3.69404e-20)
(0.536284 -6.71648 -4.04739e-21)
(0.522017 -6.45997 -4.01116e-21)
(0.507448 -6.2122 -2.56086e-20)
(2.34042 -19.3545 -2.87928e-19)
(1.68856 -18.6083 -2.50495e-19)
(1.61843 -17.871 -2.97372e-19)
(1.59751 -17.1723 1.16754e-20)
(1.54326 -16.5139 1.85369e-20)
(1.4905 -15.8841 -3.11272e-19)
(1.44204 -15.2778 1.55262e-20)
(1.395 -14.6927 3.80623e-20)
(1.349 -14.128 -7.34016e-21)
(1.30415 -13.583 6.0273e-20)
(1.26048 -13.0576 -2.36488e-19)
(1.21802 -12.5515 -1.39355e-19)
(1.17684 -12.0646 5.33928e-20)
(1.13697 -11.5964 9.71909e-20)
(1.09843 -11.1464 -1.1261e-19)
(1.06123 -10.7143 -1.6967e-20)
(1.02538 -10.2994 -6.218e-20)
(0.990849 -9.90112 -2.81783e-20)
(0.957622 -9.51897 4.55868e-20)
(0.925677 -9.15235 -5.72033e-20)
(0.89499 -8.8007 4.77555e-20)
(0.865543 -8.46343 -5.63806e-20)
(0.837315 -8.13995 -4.23319e-20)
(0.810288 -7.82959 -2.90966e-20)
(0.78444 -7.53171 -8.89053e-21)
(0.759706 -7.24553 -5.71227e-20)
(0.736005 -6.97031 5.88748e-21)
(0.713491 -6.7052 9.55122e-21)
(0.692733 -6.4493 -2.68327e-20)
(0.671757 -6.20208 6.16029e-21)
(2.84574 -19.2874 -1.7038e-19)
(2.17523 -18.5607 2.40422e-20)
(2.08637 -17.8275 2.08335e-19)
(2.04752 -17.1311 2.10142e-19)
(1.97624 -16.475 1.46683e-19)
(1.90711 -15.8472 5.91456e-20)
(1.84282 -15.2422 8.92541e-20)
(1.78046 -14.6584 3.9041e-19)
(1.71965 -14.0947 -2.32702e-19)
(1.6605 -13.5507 7.55267e-21)
(1.60303 -13.0262 5.40072e-20)
(1.5473 -12.5211 2.15459e-19)
(1.49335 -12.0351 -1.43512e-19)
(1.44122 -11.5678 9.9364e-20)
(1.3909 -11.1188 -1.05745e-19)
(1.34241 -10.6876 1.77305e-19)
(1.29572 -10.2736 -5.16871e-20)
(1.25079 -9.8763 1.93448e-21)
(1.2076 -9.49504 7.6095e-20)
(1.1661 -9.12931 5.07086e-20)
(1.12626 -8.77853 -5.17678e-20)
(1.08804 -8.44215 6.73168e-20)
(1.0514 -8.11955 -2.91893e-20)
(1.01631 -7.8101 3.35413e-20)
(0.98274 -7.51312 4.27461e-20)
(0.950603 -7.22788 1.44585e-20)
(0.919793 -6.95359 4.3772e-20)
(0.890476 -6.6894 -1.7153e-20)
(0.863254 -6.43433 -5.987e-21)
(0.835877 -6.18788 -2.42454e-20)
(3.34907 -19.2072 -1.22323e-19)
(2.66042 -18.5007 -7.94308e-20)
(2.553 -17.772 -2.32385e-19)
(2.49634 -17.0781 -5.82813e-19)
(2.40815 -16.4249 1.97683e-19)
(2.32272 -15.7993 1.18254e-20)
(2.24266 -15.1963 -1.23546e-19)
(2.16502 -14.614 2.08718e-20)
(2.08943 -14.0517 -1.93415e-20)
(2.01599 -13.509 -2.82816e-19)
(1.94476 -12.9859 1.19532e-19)
(1.87578 -12.4821 1.94389e-19)
(1.80909 -11.9973 1.22945e-21)
(1.74471 -11.5313 6.76339e-20)
(1.68265 -11.0836 1.59378e-19)
(1.62288 -10.6536 -1.0701e-19)
(1.56538 -10.2409 1.82374e-19)
(1.51009 -9.84472 -8.41808e-20)
(1.45696 -9.46462 1.44028e-19)
(1.40593 -9.10003 -1.06073e-19)
(1.35696 -8.75037 4.59912e-20)
(1.30999 -8.41509 1.13678e-19)
(1.26497 -8.0936 3.58961e-21)
(1.22185 -7.78526 -1.01125e-19)
(1.18059 -7.48941 5.53217e-20)
(1.14108 -7.20531 5.91548e-21)
(1.1032 -6.93218 -1.62491e-20)
(1.06712 -6.66909 6.0643e-20)
(1.03347 -6.41506 1.99064e-20)
(0.999704 -6.16961 -2.06132e-20)
(3.85019 -19.1141 3.38363e-19)
(3.14395 -18.4282 -1.61906e-20)
(3.01808 -17.7045 -4.68518e-19)
(2.94372 -17.0136 9.54421e-20)
(2.83873 -16.3636 -1.22436e-19)
(2.73708 -15.7407 9.5351e-20)
(2.64129 -15.1398 1.93318e-19)
(2.54842 -14.5595 3.34239e-19)
(2.45807 -13.999 -3.48961e-19)
(2.37039 -13.4581 8.60004e-20)
(2.28543 -12.9366 -5.3603e-20)
(2.20322 -12.4344 3.86538e-20)
(2.12381 -11.9513 -1.73159e-19)
(2.04723 -11.4869 -9.00262e-21)
(1.97345 -11.0407 2.56768e-19)
(1.90245 -10.6123 -1.76886e-19)
(1.83416 -10.2011 -1.0631e-19)
(1.76854 -9.80638 -7.22247e-20)
(1.7055 -9.42772 1.323e-19)
(1.64498 -9.06451 2.64564e-20)
(1.58691 -8.71621 -1.21299e-19)
(1.53123 -8.38227 1.55471e-19)
(1.47786 -8.0621 -1.38297e-19)
(1.42676 -7.7551 8.73922e-20)
(1.37784 -7.46059 -4.9245e-20)
(1.331 -7.17783 3.00422e-20)
(1.28609 -6.90605 2.108e-20)
(1.24329 -6.6443 -9.64045e-20)
(1.20325 -6.3915 4.05495e-20)
(1.16313 -6.14726 4.88919e-22)
(4.34873 -19.0081 -3.2858e-19)
(3.62548 -18.3432 2.6854e-19)
(3.48134 -17.6249 -4.65764e-19)
(3.38938 -16.9375 8.83135e-19)
(3.26768 -16.2911 -2.41797e-19)
(3.1499 -15.6712 3.25802e-19)
(3.03844 -15.0729 -1.02634e-20)
(2.93038 -14.4949 -4.81022e-20)
(2.82533 -13.9366 -5.93469e-20)
(2.72344 -13.3978 1.53331e-21)
(2.62478 -12.8783 -2.17445e-19)
(2.52939 -12.3781 1.14375e-19)
(2.43731 -11.897 -1.28489e-19)
(2.34855 -11.4345 -1.10207e-20)
(2.2631 -10.9903 -3.39715e-19)
(2.1809 -10.5637 1.11834e-19)
(2.10189 -10.1543 5.91055e-20)
(2.02597 -9.76133 -6.79879e-20)
(1.95307 -9.38436 -8.22136e-21)
(1.88309 -9.0228 -9.66774e-20)
(1.81597 -8.6761 -3.33107e-20)
(1.7516 -8.34372 1.63201e-21)
(1.68993 -8.02511 -7.70825e-20)
(1.63088 -7.71965 -1.0928e-19)
(1.57436 -7.42668 5.37675e-21)
(1.52024 -7.14548 -1.21075e-20)
(1.46835 -6.87523 3.14088e-20)
(1.41888 -6.61501 -7.52493e-20)
(1.3725 -6.36366 6.23591e-20)
(1.32605 -6.12086 -1.1622e-19)
(4.84437 -18.8891 -8.12441e-19)
(4.10473 -18.2458 9.5239e-19)
(3.9425 -17.5334 -9.74169e-19)
(3.83304 -16.8498 -2.52425e-19)
(3.69475 -16.2074 -1.53012e-19)
(3.56091 -15.591 -1.6373e-19)
(3.43385 -14.9957 -1.49173e-19)
(3.31065 -14.4204 -3.53739e-20)
(3.19094 -13.8646 -1.46253e-19)
(3.07489 -13.3282 -2.70986e-20)
(2.96258 -12.8112 2.19692e-19)
(2.85405 -12.3133 -1.32416e-19)
(2.74935 -11.8345 -1.44734e-19)
(2.64848 -11.3743 -2.30683e-19)
(2.5514 -10.9322 4.7698e-19)
(2.45805 -10.5078 -1.77664e-19)
(2.36835 -10.1005 6.45281e-20)
(2.28219 -9.70958 -2.30149e-19)
(2.19947 -9.33458 8.89593e-20)
(2.12009 -8.97491 -3.32625e-20)
(2.04395 -8.63004 4.39223e-20)
(1.97096 -8.29946 -1.3224e-20)
(1.90103 -7.98261 1.22791e-19)
(1.83407 -7.67891 -4.2441e-20)
(1.76999 -7.3877 1.13126e-19)
(1.70864 -7.10825 -1.85172e-20)
(1.64982 -6.83976 1.41239e-19)
(1.59375 -6.58125 3.56579e-20)
(1.54109 -6.33155 6.52565e-20)
(1.48836 -6.09042 -2.03224e-19)
(5.33679 -18.7574 1.28343e-18)
(4.58137 -18.1361 -2.48847e-19)
(4.40125 -17.43 4.1361e-19)
(4.27442 -16.7507 -1.13144e-19)
(4.11965 -16.1127 3.97029e-19)
(3.96983 -15.5001 3.59987e-19)
(3.82724 -14.9081 3.93969e-19)
(3.68897 -14.3359 -2.86121e-20)
(3.55466 -13.7831 -3.53779e-19)
(3.4245 -13.2495 5.16685e-19)
(3.29859 -12.7352 -3.14666e-20)
(3.17698 -12.24 3.41954e-19)
(3.05971 -11.7638 1.19358e-19)
(2.94678 -11.3062 4.52374e-20)
(2.83814 -10.8667 6.56324e-20)
(2.7337 -10.4447 8.9829e-20)
(2.63336 -10.0398 1.41238e-19)
(2.53702 -9.65118 -3.785e-20)
(2.44453 -9.2784 1.95223e-19)
(2.3558 -8.92087 8.45567e-20)
(2.2707 -8.57809 -1.74419e-19)
(2.18913 -8.24953 2.9941e-19)
(2.11099 -7.93466 -3.84109e-19)
(2.03618 -7.63293 3.5238e-19)
(1.96459 -7.34367 -1.14055e-19)
(1.89607 -7.06617 2.29495e-20)
(1.83039 -6.79964 -1.39756e-19)
(1.76777 -6.54305 7.79558e-20)
(1.7089 -6.2952 2.62386e-20)
(1.64994 -6.05596 -3.11707e-20)
(5.82564 -18.6128 -7.2712e-19)
(5.0551 -18.014 6.74945e-19)
(4.85729 -17.3147 -1.81641e-19)
(4.71323 -16.6401 5.0691e-19)
(4.5421 -16.0069 5.00479e-20)
(4.3764 -15.3985 9.21161e-20)
(4.21836 -14.8102 -8.01415e-19)
(4.06507 -14.2415 -1.36466e-19)
(3.91623 -13.692 4.83017e-19)
(3.77203 -13.1616 3.45585e-19)
(3.63258 -12.6504 -5.81667e-19)
(3.49795 -12.1582 3.27795e-19)
(3.36818 -11.685 -3.2131e-19)
(3.24325 -11.2303 2.08525e-19)
(3.1231 -10.7936 -3.44258e-19)
(3.00764 -10.3745 -2.4301e-19)
(2.89674 -9.97216 1.99027e-20)
(2.79027 -9.58615 -1.01627e-19)
(2.68808 -9.21586 1.85659e-19)
(2.59005 -8.86074 7.07846e-20)
(2.49604 -8.52027 -4.65172e-20)
(2.40595 -8.19395 -1.31048e-20)
(2.31966 -7.88129 4.78671e-20)
(2.23706 -7.58171 -1.6294e-19)
(2.15803 -7.29461 2.59909e-19)
(2.08239 -7.01928 -6.44594e-20)
(2.00992 -6.7549 -3.06688e-21)
(1.94083 -6.50044 2.07132e-19)
(1.87581 -6.25461 2.43372e-20)
(1.81069 -6.01749 -2.90483e-20)
(6.3106 -18.4556 2.75258e-20)
(5.5256 -17.8796 -3.93281e-19)
(5.31033 -17.1876 -3.43266e-19)
(5.14919 -16.5181 -5.51625e-19)
(4.96181 -15.8901 1.91382e-20)
(4.78034 -15.2863 -3.63756e-19)
(4.60692 -14.7021 4.32464e-19)
(4.4387 -14.1372 -4.37399e-20)
(4.27539 -13.5914 3.12518e-19)
(4.11722 -13.0645 -2.68759e-19)
(3.9643 -12.5568 -1.30181e-19)
(3.81673 -12.0681 6.90038e-20)
(3.67453 -11.5981 3.59709e-20)
(3.53768 -11.1467 -3.46335e-19)
(3.4061 -10.7132 2.01928e-19)
(3.27968 -10.297 -9.19859e-20)
(3.15828 -9.89769 2.64298e-19)
(3.04175 -9.51454 -8.33241e-20)
(2.92993 -9.147 8.54306e-20)
(2.82267 -8.79453 2.00673e-20)
(2.71983 -8.45662 1.34508e-19)
(2.62127 -8.13278 -2.83209e-20)
(2.52689 -7.82252 2.07956e-19)
(2.43656 -7.52532 -2.29876e-19)
(2.35015 -7.24058 -7.42323e-20)
(2.26746 -6.96759 5.87949e-20)
(2.18827 -6.70557 -6.76883e-21)
(2.11279 -6.45344 -9.62333e-20)
(2.04171 -6.20984 7.60207e-20)
(1.9705 -5.97504 -8.67625e-20)
(6.79134 -18.2859 1.21311e-18)
(5.99255 -17.7331 3.18028e-19)
(5.76007 -17.0488 3.70456e-19)
(5.58199 -16.3848 4.76485e-19)
(5.37851 -15.7624 6.98166e-19)
(5.18137 -15.1635 -2.11029e-20)
(4.99267 -14.5839 1.02427e-19)
(4.80959 -14.0232 7.08255e-19)
(4.6319 -13.4814 -1.48472e-19)
(4.45983 -12.9584 -2.45542e-19)
(4.29353 -12.4545 4.19071e-19)
(4.13309 -11.9695 6.41181e-20)
(3.97854 -11.5032 4.27592e-21)
(3.82984 -11.0553 9.51356e-20)
(3.68692 -10.6253 1.58181e-19)
(3.54962 -10.2125 -3.11699e-19)
(3.41781 -9.81642 2.61757e-19)
(3.29129 -9.43641 4.17281e-20)
(3.16991 -9.07188 2.34805e-19)
(3.05349 -8.72231 -1.27452e-19)
(2.94187 -8.38719 1.98266e-19)
(2.83493 -8.06605 -2.058e-19)
(2.73252 -7.75842 1.92935e-19)
(2.63453 -7.46379 2.27573e-20)
(2.5408 -7.18159 -1.24254e-19)
(2.45115 -6.91115 -3.67047e-20)
(2.36531 -6.65168 2.1898e-19)
(2.28351 -6.40207 1.56539e-19)
(2.20646 -6.16091 4.00531e-20)
(2.12925 -5.92865 -2.53541e-20)
(7.26753 -18.1036 1.19986e-19)
(6.45565 -17.5745 2.64606e-19)
(6.20621 -16.8984 1.05003e-18)
(6.01136 -16.2403 -1.69954e-18)
(5.79192 -15.6238 -1.5688e-19)
(5.57923 -15.0303 -1.74221e-19)
(5.37534 -14.4555 7.80508e-20)
(5.1775 -13.8994 9.4139e-20)
(4.9855 -13.362 1.50555e-19)
(4.79962 -12.8433 -3.98394e-19)
(4.62003 -12.3436 -6.62345e-20)
(4.44681 -11.8627 2.11584e-19)
(4.27999 -11.4004 2.12816e-19)
(4.11954 -10.9563 -2.15572e-19)
(3.96535 -10.5301 -1.96008e-19)
(3.81727 -10.1209 3.27627e-19)
(3.67512 -9.72839 2.00246e-19)
(3.53871 -9.35179 -5.59231e-20)
(3.40784 -8.99054 -1.22586e-19)
(3.28233 -8.64412 1.97299e-20)
(3.16202 -8.31203 -2.59187e-19)
(3.04676 -7.99381 3.04355e-19)
(2.93639 -7.68901 -2.02942e-19)
(2.83081 -7.39716 -6.14607e-21)
(2.72985 -7.1177 1.25751e-19)
(2.6333 -6.84999 -3.78785e-20)
(2.54089 -6.59326 -1.09107e-19)
(2.45288 -6.34636 1.34028e-19)
(2.36994 -6.10785 -3.98936e-21)
(2.28682 -5.87835 1.97528e-20)
(7.73885 -17.909 -9.52105e-20)
(6.91457 -17.4039 -2.84776e-19)
(6.64845 -16.7363 -1.20688e-18)
(6.437 -16.0846 4.36166e-19)
(6.20174 -15.4744 -1.21845e-19)
(5.97362 -14.8866 4.06795e-19)
(5.75465 -14.3171 2.9637e-20)
(5.54215 -13.7659 -4.25604e-19)
(5.33595 -13.2333 6.30102e-19)
(5.13636 -12.7193 -5.56546e-19)
(4.94356 -12.2241 -1.60604e-20)
(4.75765 -11.7476 1.24909e-19)
(4.57867 -11.2896 -2.1126e-19)
(4.40656 -10.8498 2.2786e-19)
(4.2412 -10.4276 -4.28301e-19)
(4.08243 -10.0224 -8.69835e-20)
(3.93003 -9.63367 2.48303e-19)
(3.7838 -9.26074 3.25852e-21)
(3.64354 -8.90303 -1.37836e-19)
(3.50903 -8.56001 3.75166e-19)
(3.3801 -8.23118 -2.01621e-19)
(3.25659 -7.91611 -2.55102e-19)
(3.13835 -7.61436 8.17685e-20)
(3.02525 -7.32548 -2.29503e-19)
(2.91713 -7.04895 -5.10199e-20)
(2.81376 -6.78416 -4.58136e-21)
(2.71488 -6.53036 -1.32988e-19)
(2.62075 -6.28637 1.60475e-19)
(2.53202 -6.05068 -8.50964e-20)
(2.44312 -5.82421 9.1134e-20)
(8.20497 -17.7022 -4.30402e-19)
(7.36902 -17.2214 -1.1313e-18)
(7.08649 -16.5628 5.16465e-19)
(6.85863 -15.9178 -4.79231e-19)
(6.60772 -15.3143 -3.38945e-19)
(6.36429 -14.7326 -1.83885e-19)
(6.13036 -14.1687 -6.76714e-19)
(5.9033 -13.6229 4.51852e-19)
(5.68299 -13.0954 -1.07378e-18)
(5.46979 -12.5864 -3.64178e-19)
(5.26389 -12.096 1.4244e-19)
(5.06541 -11.6243 2.15739e-19)
(4.87436 -11.171 -9.12024e-21)
(4.6907 -10.7356 -3.83248e-19)
(4.51427 -10.3178 8.81849e-20)
(4.34489 -9.91693 -3.19255e-19)
(4.18235 -9.5323 -2.18796e-19)
(4.02641 -9.16332 -1.22346e-19)
(3.87683 -8.80941 -1.72652e-20)
(3.73341 -8.47003 2.13636e-19)
(3.59595 -8.14471 2.88693e-19)
(3.46427 -7.83301 -8.36108e-20)
(3.33824 -7.53452 -7.52608e-20)
(3.21769 -7.24882 1.46343e-19)
(3.10249 -6.97541 7.79175e-20)
(2.9924 -6.71372 -6.1528e-20)
(2.88714 -6.46303 -6.46728e-20)
(2.78699 -6.22213 8.51426e-21)
(2.69259 -5.98948 6.31511e-20)
(2.598 -5.76622 8.01428e-20)
(8.66558 -17.4833 -6.97716e-20)
(7.81869 -17.0271 1.40774e-18)
(7.52006 -16.378 1.03593e-18)
(7.27596 -15.74 7.77669e-19)
(7.00956 -15.1436 -5.00318e-19)
(6.75097 -14.5684 -9.76765e-20)
(6.50219 -14.0104 9.30487e-20)
(6.26068 -13.4703 5.66501e-19)
(6.02639 -12.9484 2.04804e-19)
(5.79969 -12.4447 4.81338e-19)
(5.5808 -11.9596 -6.48312e-19)
(5.36985 -11.4929 7.04079e-20)
(5.16685 -11.0446 2.49513e-19)
(4.97173 -10.6141 1.43491e-19)
(4.78435 -10.201 2.83382e-19)
(4.60448 -9.80459 -1.99323e-19)
(4.43189 -9.42434 -1.70694e-19)
(4.26633 -9.05959 3.75962e-20)
(4.10754 -8.70974 3.42633e-19)
(3.9553 -8.37426 -5.3971e-19)
(3.80939 -8.05267 1.86468e-19)
(3.66964 -7.74456 -1.89647e-22)
(3.53588 -7.44954 3.19348e-19)
(3.40798 -7.16721 -1.38847e-19)
(3.28578 -6.89712 -9.29245e-21)
(3.16905 -6.63872 -8.01684e-20)
(3.05751 -6.39131 7.50721e-20)
(2.95144 -6.1537 1.79118e-20)
(2.85147 -5.92426 -7.42419e-20)
(2.75133 -5.70444 2.38043e-19)
(9.12037 -17.2524 -1.51532e-18)
(8.26328 -16.8212 -8.48495e-19)
(7.94885 -16.1818 -2.09113e-18)
(7.68873 -15.5514 -9.01091e-19)
(7.407 -14.9624 8.2999e-19)
(7.13338 -14.394 -4.60792e-19)
(6.86988 -13.8424 -9.71554e-20)
(6.61406 -13.3084 -2.81789e-19)
(6.36589 -12.7923 4.75191e-19)
(6.12581 -12.2944 -1.03131e-19)
(5.89405 -11.8148 -1.60164e-19)
(5.67075 -11.3536 -1.88989e-20)
(5.45592 -10.9105 -5.86706e-19)
(5.24947 -10.4851 -8.9102e-21)
(5.05124 -10.077 1.57972e-19)
(4.86099 -9.68546 -1.47904e-20)
(4.67847 -9.30987 -5.32949e-19)
(4.50339 -8.94961 5.05251e-19)
(4.33549 -8.60407 -4.7643e-19)
(4.17452 -8.27273 1.82195e-19)
(4.02026 -7.95512 2.50534e-20)
(3.87252 -7.65083 9.87918e-21)
(3.73113 -7.35949 -1.73086e-19)
(3.59595 -7.08074 5.43081e-20)
(3.46684 -6.81415 -7.44182e-22)
(3.34356 -6.55922 1.59497e-20)
(3.22582 -6.31528 -3.73423e-19)
(3.11394 -6.08112 1.05267e-19)
(3.00854 -5.85509 1.05919e-19)
(2.90298 -5.63895 1.03711e-19)
(9.56903 -17.0097 2.92254e-18)
(8.7025 -16.6038 9.33428e-19)
(8.3726 -15.9746 5.30009e-19)
(8.09664 -15.352 8.32003e-19)
(7.79975 -14.7707 -9.69504e-20)
(7.51126 -14.2095 5.75452e-19)
(7.23318 -13.6646 1.23295e-18)
(6.96317 -13.1371 -1.62474e-19)
(6.70126 -12.6272 6.17965e-20)
(6.44792 -12.1354 1.29545e-18)
(6.20342 -11.6617 -1.77511e-19)
(5.9679 -11.2062 1.66489e-19)
(5.74135 -10.7688 -5.31976e-20)
(5.5237 -10.3489 8.98474e-21)
(5.31474 -9.94603 7.91028e-19)
(5.11423 -9.5596 3.06077e-20)
(4.92189 -9.18895 7.77864e-19)
(4.7374 -8.83344 -1.04031e-19)
(4.5605 -8.49248 -1.55624e-19)
(4.3909 -8.16552 3.56527e-19)
(4.22838 -7.85212 -3.11446e-19)
(4.07274 -7.55187 3.36618e-19)
(3.9238 -7.26443 1.73753e-19)
(3.78144 -6.98945 -1.33285e-19)
(3.6455 -6.72655 2.01783e-19)
(3.51575 -6.47527 2.33504e-20)
(3.39193 -6.23498 -7.35146e-20)
(3.27435 -6.00447 4.66516e-20)
(3.16363 -5.78204 2.64197e-19)
(3.05282 -5.56979 3.72933e-20)
(10.0113 -16.7554 -5.036e-19)
(9.13607 -16.375 -9.51535e-19)
(8.79103 -15.7563 3.67203e-19)
(8.49944 -15.1419 -1.47544e-18)
(8.18757 -14.5688 6.66924e-19)
(7.88436 -14.0151 -1.18768e-18)
(7.59184 -13.4773 -7.36979e-19)
(7.30777 -12.9565 2.04342e-19)
(7.03226 -12.4533 1.71393e-19)
(6.7658 -11.9678 -9.1252e-19)
(6.50869 -11.5004 -3.74214e-19)
(6.26107 -11.0511 1.57469e-19)
(6.02296 -10.6195 -4.46867e-19)
(5.79422 -10.2054 -1.68787e-19)
(5.57467 -9.80812 -1.07836e-19)
(5.36402 -9.42709 -1.06603e-19)
(5.16197 -9.06165 -4.23087e-19)
(4.96819 -8.71115 -2.49862e-19)
(4.78239 -8.37501 5.20868e-20)
(4.60427 -8.05269 7.96698e-20)
(4.43359 -7.74373 7.60372e-20)
(4.27013 -7.44775 -2.71431e-19)
(4.11374 -7.16441 9.64652e-20)
(3.96427 -6.8934 -1.96619e-19)
(3.82159 -6.63439 1.74122e-19)
(3.68547 -6.38695 -2.29859e-19)
(3.55565 -6.15049 6.49585e-20)
(3.43249 -5.9238 -1.08879e-19)
(3.31658 -5.70516 -1.44584e-19)
(3.20068 -5.49703 -1.36976e-20)
(10.4468 -16.4896 -1.04915e-18)
(9.56371 -16.135 -8.52963e-19)
(9.20387 -15.5272 -7.96344e-19)
(8.89684 -14.9213 -5.46935e-19)
(8.57017 -14.3566 1.6957e-18)
(8.2524 -13.8108 2.18392e-19)
(7.94559 -13.2804 6.72484e-19)
(7.64761 -12.7669 9.85818e-19)
(7.35864 -12.2706 4.46038e-19)
(7.07921 -11.7919 -5.9729e-19)
(6.80963 -11.3311 8.89461e-19)
(6.55007 -10.8881 -8.55056e-19)
(6.30051 -10.4628 7.70157e-19)
(6.06084 -10.0548 8.18678e-20)
(5.83082 -9.66335 1.82634e-19)
(5.61016 -9.28799 6.08445e-20)
(5.39853 -8.92802 6.86097e-19)
(5.19558 -8.58281 -1.01599e-19)
(5.00099 -8.25174 8.44523e-20)
(4.81445 -7.93429 2.74179e-19)
(4.63571 -7.63001 -3.01004e-19)
(4.46453 -7.33851 2.27247e-19)
(4.30077 -7.05949 5.40186e-21)
(4.14428 -6.79267 9.59608e-20)
(3.99493 -6.53773 1.68444e-19)
(3.85253 -6.29431 -2.93687e-20)
(3.71681 -6.06187 1.57724e-19)
(3.58818 -5.83918 2.16007e-19)
(3.46721 -5.62454 -2.36032e-19)
(3.34638 -5.42076 -1.28706e-19)
(10.8753 -16.2125 3.01063e-18)
(9.98518 -15.884 -3.18604e-19)
(9.61085 -15.2873 6.20194e-19)
(9.2886 -14.6902 1.0875e-18)
(8.94729 -14.1344 -3.01895e-18)
(8.61513 -13.5968 3.13462e-19)
(8.29419 -13.0742 -1.05981e-18)
(7.98246 -12.5682 1.00503e-18)
(7.68017 -12.0792 -7.87405e-19)
(7.38792 -11.6076 3.86104e-19)
(7.10603 -11.1537 -1.41388e-18)
(6.83467 -10.7175 6.24595e-20)
(6.57383 -10.2988 -4.13856e-19)
(6.32336 -9.89705 6.28728e-19)
(6.08301 -9.5118 -6.47429e-19)
(5.85248 -9.14239 -3.48325e-20)
(5.63139 -8.78816 -4.8096e-19)
(5.41939 -8.44847 -3.31738e-20)
(5.21612 -8.12273 3.18844e-20)
(5.02127 -7.81039 9.07672e-20)
(4.83456 -7.51101 -5.22258e-19)
(4.65576 -7.22423 -1.30078e-20)
(4.48471 -6.94974 -2.72077e-19)
(4.32128 -6.68729 -6.23768e-20)
(4.16535 -6.43662 -1.54934e-19)
(4.01674 -6.19741 -1.62376e-19)
(3.87522 -5.96917 -1.60065e-19)
(3.74121 -5.75069 2.69323e-19)
(3.61532 -5.54023 6.89746e-20)
(3.48975 -5.34102 -1.22541e-19)
(11.2966 -15.9242 -2.00332e-18)
(10.4002 -15.6221 6.92944e-19)
(10.0117 -15.0368 -1.12205e-18)
(9.67444 -14.4489 1.65216e-19)
(9.31869 -13.9021 1.68503e-18)
(8.9723 -13.3731 -8.38632e-19)
(8.6374 -12.8587 -8.20466e-19)
(8.31207 -12.3606 -6.9141e-19)
(7.99663 -11.8792 3.95467e-20)
(7.69171 -11.4151 4.20106e-19)
(7.39767 -10.9685 -2.83305e-19)
(7.11467 -10.5393 2.56398e-20)
(6.8427 -10.1274 8.10437e-19)
(6.58158 -9.73237 -4.03141e-19)
(6.33106 -9.35355 9.22565e-20)
(6.09078 -8.99035 -2.97769e-19)
(5.86038 -8.64212 1.12742e-19)
(5.63945 -8.30821 2.34495e-19)
(5.42762 -7.98802 2.43696e-19)
(5.22457 -7.68103 -2.65264e-19)
(5.02999 -7.38679 4.1604e-20)
(4.84365 -7.10493 2.09658e-19)
(4.66539 -6.83519 3.49172e-19)
(4.49508 -6.57733 8.27106e-20)
(4.33264 -6.33113 -3.39349e-19)
(4.17789 -6.09632 3.80114e-19)
(4.03065 -5.87248 -1.88607e-19)
(3.89138 -5.65839 -2.14496e-19)
(3.7607 -5.45231 -1.27643e-19)
(3.63057 -5.25792 -1.56568e-19)
(11.7105 -15.625 1.03982e-18)
(10.8087 -15.3494 -7.81075e-19)
(10.4063 -14.7759 3.0985e-19)
(10.0541 -14.1973 1.46951e-18)
(9.6841 -13.66 3.81885e-19)
(9.32366 -13.14 -3.12728e-19)
(8.97495 -12.6341 7.46642e-19)
(8.63619 -12.1442 1.90477e-19)
(8.30777 -11.6708 6.44953e-19)
(7.99036 -11.2145 3.42417e-19)
(7.68434 -10.7755 1.84861e-20)
(7.38987 -10.3537 1.99173e-19)
(7.10693 -9.94896 -6.10582e-20)
(6.83533 -9.56081 1.0185e-19)
(6.57478 -9.18869 2.671e-19)
(6.32491 -8.83196 -1.41603e-19)
(6.08532 -8.48997 3.35972e-19)
(5.85559 -8.16208 3.27563e-19)
(5.63532 -7.84769 -3.6109e-19)
(5.42417 -7.54627 3.65969e-19)
(5.22181 -7.25738 7.37793e-19)
(5.02802 -6.98067 -4.64778e-19)
(4.84262 -6.71588 4.46159e-19)
(4.6655 -6.46281 -3.09646e-19)
(4.4966 -6.22128 -4.06479e-20)
(4.33577 -5.99109 3.042e-19)
(4.18288 -5.77185 -6.37649e-20)
(4.03843 -5.56235 2.14437e-19)
(3.90307 -5.36089 2.05277e-19)
(3.76859 -5.1716 -3.80447e-19)
(12.1168 -15.315 -9.94823e-19)
(11.2102 -15.0662 4.58743e-19)
(10.7942 -14.5045 1.70992e-19)
(10.4274 -13.9357 -1.69656e-18)
(10.0433 -13.4082 -8.35002e-19)
(9.66895 -12.8975 6.02813e-19)
(9.30662 -12.4005 -1.61097e-18)
(8.95461 -11.9191 1.87367e-18)
(8.61338 -11.4541 -1.02217e-18)
(8.28366 -11.0059 1.18366e-19)
(7.96583 -10.5748 -1.94904e-19)
(7.66007 -10.1607 -5.11445e-19)
(7.36633 -9.7634 1.03497e-18)
(7.08441 -9.38246 3.6479e-19)
(6.814 -9.0173 -3.83814e-19)
(6.55469 -8.6673 1.03162e-20)
(6.30606 -8.3318 1.92759e-19)
(6.06766 -8.01015 -4.032e-19)
(5.83907 -7.70178 8.57798e-20)
(5.61992 -7.40615 2.59251e-19)
(5.40988 -7.12282 -1.09351e-19)
(5.20871 -6.85146 1.63189e-19)
(5.01622 -6.59183 -3.19506e-19)
(4.83233 -6.34375 4.42912e-19)
(4.65699 -6.10709 9.30044e-20)
(4.49012 -5.88171 -2.67795e-19)
(4.33161 -5.66729 -2.17879e-19)
(4.18204 -5.46263 6.67003e-21)
(4.04207 -5.26605 2.88534e-19)
(3.90338 -5.0822 -6.31388e-20)
(12.5154 -14.9943 -2.67436e-19)
(11.6047 -14.7725 -1.7765e-18)
(11.1753 -14.223 2.08799e-18)
(10.794 -13.6642 1.35573e-18)
(10.3959 -13.1468 1.28865e-18)
(10.0079 -12.6457 3.27972e-19)
(9.63214 -12.1579 4.98659e-19)
(9.26707 -11.6855 2.41038e-19)
(8.91323 -11.2292 -9.31091e-19)
(8.57138 -10.7895 1.66614e-18)
(8.24194 -10.3666 -1.26382e-18)
(7.92507 -9.96047 -6.82377e-20)
(7.62072 -9.57091 1.82214e-19)
(7.32867 -9.19744 -7.21832e-19)
(7.04856 -8.8395 6.21952e-19)
(6.77997 -8.49646 -1.86535e-19)
(6.52245 -8.16767 -4.43723e-19)
(6.27551 -7.85249 1.58728e-19)
(6.03873 -7.55034 -3.10334e-19)
(5.81169 -7.2607 -2.6296e-19)
(5.59406 -6.98313 -2.66589e-19)
(5.38557 -6.71731 5.93243e-20)
(5.18605 -6.46302 2.63935e-20)
(4.9954 -6.22011 -5.95223e-19)
(4.81362 -5.98851 -2.11955e-19)
(4.64066 -5.76815 1.42221e-19)
(4.47651 -5.55877 1.63854e-19)
(4.32181 -5.35921 -2.22267e-19)
(4.17722 -5.1678 -8.04065e-20)
(4.03436 -4.98961 5.75743e-21)
(12.9065 -14.6634 -2.58489e-19)
(11.992 -14.4686 1.15173e-18)
(11.5492 -13.9313 -3.2471e-19)
(11.1536 -13.3828 -3.92468e-19)
(10.7419 -12.8759 -1.98455e-18)
(10.3403 -12.3848 -4.02726e-19)
(9.95126 -11.9066 7.6875e-19)
(9.57331 -11.4435 -4.8384e-19)
(9.20706 -10.9962 -4.49971e-20)
(8.85329 -10.5653 -9.4909e-20)
(8.51245 -10.1509 4.73884e-19)
(8.18468 -9.75312 -7.35179e-19)
(7.86992 -9.37157 -4.68727e-19)
(7.56792 -9.00585 5.29964e-19)
(7.2783 -8.65538 -2.89341e-19)
(7.0006 -8.31953 -3.33119e-19)
(6.73434 -7.99767 6.98318e-19)
(6.47902 -7.68916 -1.09906e-19)
(6.23417 -7.39342 3.75685e-19)
(5.99936 -7.10995 -3.41423e-19)
(5.77422 -6.83832 -2.59861e-19)
(5.55849 -6.57821 2.22159e-19)
(5.35196 -6.32942 -2.81107e-20)
(5.15456 -6.09185 -1.54073e-19)
(4.96631 -5.86547 1.31881e-19)
(4.78722 -5.65032 -3.90615e-19)
(4.61735 -5.44624 2.38045e-19)
(4.45744 -5.25207 -3.84666e-21)
(4.30818 -5.0661 -2.2776e-19)
(4.16134 -4.89359 3.21668e-19)
(13.2907 -14.3228 9.27574e-19)
(12.3724 -14.1547 -2.27761e-18)
(11.9158 -13.6297 -1.71917e-19)
(11.506 -13.0917 9.72321e-19)
(11.0807 -12.5955 -2.36592e-19)
(10.6658 -12.1148 -6.4474e-19)
(10.2637 -11.6466 2.9113e-19)
(9.87308 -11.1932 3.19279e-19)
(9.49463 -10.7553 2.34645e-20)
(9.12917 -10.3335 3.65761e-19)
(8.77714 -9.92803 1.12025e-18)
(8.43869 -9.53878 -3.95611e-19)
(8.11373 -9.16553 8.80444e-20)
(7.80199 -8.8078 -2.29894e-19)
(7.50305 -8.46503 8.86153e-19)
(7.21644 -8.13661 -1.51772e-19)
(6.94162 -7.82187 4.84367e-19)
(6.67806 -7.52022 -1.80225e-19)
(6.42528 -7.23107 1.87353e-19)
(6.18281 -6.95393 2.72707e-19)
(5.95027 -6.68838 4.28691e-20)
(5.72734 -6.43412 1.69875e-19)
(5.51383 -6.19097 -1.34068e-19)
(5.30966 -5.95886 3.69266e-19)
(5.11487 -5.73787 -1.46036e-19)
(4.92953 -5.52815 5.14021e-19)
(4.75387 -5.32966 -1.48244e-19)
(4.58873 -5.14127 9.60515e-20)
(4.43491 -4.96121 -1.77525e-19)
(4.28447 -4.79534 3.10225e-19)
(13.6691 -13.973 -2.07773e-18)
(12.7462 -13.8303 8.17816e-20)
(12.275 -13.3176 -1.0807e-18)
(11.8508 -12.7907 1.89761e-19)
(11.4122 -12.3058 4.99112e-20)
(10.9841 -11.836 -8.46655e-19)
(10.5692 -11.3782 -1.53496e-18)
(10.1661 -10.9348 7.40739e-19)
(9.77575 -10.5067 -1.02717e-18)
(9.39883 -10.0944 -5.11851e-19)
(9.03584 -9.69803 -2.77465e-19)
(8.68694 -9.31764 -2.0708e-19)
(8.35201 -8.95294 -1.53618e-21)
(8.03074 -8.60345 -7.19632e-19)
(7.7227 -8.26862 4.34884e-19)
(7.42736 -7.94781 -7.14664e-19)
(7.14416 -7.6404 -1.71718e-19)
(6.87256 -7.34577 1.81485e-19)
(6.612 -7.06336 2.20293e-19)
(6.362 -6.79267 2.09138e-19)
(6.12214 -6.5333 1.53812e-19)
(5.89207 -6.28496 -3.78113e-19)
(5.67156 -6.04749 3.6827e-19)
(5.4605 -5.82089 -4.00515e-20)
(5.25891 -5.60531 -9.35289e-20)
(5.06697 -5.40111 -3.54674e-19)
(4.88508 -5.20841 -1.80185e-19)
(4.71435 -5.02619 3.28188e-19)
(4.55548 -4.85348 -1.09037e-19)
(4.40112 -4.69812 -1.01338e-19)
(14.0408 -13.6119 9.2305e-19)
(13.1127 -13.4941 9.88777e-20)
(12.6264 -12.995 -2.14019e-19)
(12.1878 -12.4802 -3.31365e-20)
(11.736 -12.0072 -3.37934e-19)
(11.2952 -11.5487 1.14457e-18)
(10.8677 -11.1017 -5.19254e-19)
(10.4524 -10.6687 3.42147e-19)
(10.0503 -10.2507 1.42298e-19)
(9.66218 -9.84811 4.56932e-19)
(9.28849 -9.46121 -1.58623e-19)
(8.92936 -9.08996 9.08001e-19)
(8.58468 -8.73405 -7.47718e-20)
(8.25411 -8.39304 5.39578e-19)
(7.93717 -8.06634 -8.69398e-19)
(7.63332 -7.75335 -5.14065e-20)
(7.34196 -7.45343 5.29373e-19)
(7.06249 -7.16598 -3.14161e-19)
(6.79434 -6.89042 -2.1433e-19)
(6.53699 -6.62627 -3.54743e-19)
(6.28996 -6.37313 -2.91246e-19)
(6.05285 -6.13071 3.19066e-19)
(5.82536 -5.89884 -2.77459e-19)
(5.60728 -5.67754 6.39086e-20)
(5.39853 -5.46706 2.16089e-19)
(5.19918 -5.26786 1.43155e-19)
(5.00971 -5.08021 1.28686e-19)
(4.83105 -4.90384 9.12536e-20)
(4.66298 -4.74046 -2.48255e-19)
(4.50079 -4.59904 -9.73184e-20)
(19.6152 0.303163 1.12896e-20)
(19.6104 -0.213802 1.06083e-19)
(19.5925 -0.728727 3.68685e-19)
(19.5628 -1.24195 1.98994e-19)
(19.5207 -1.75361 -4.32938e-19)
(19.4657 -2.26359 1.29839e-19)
(19.3974 -2.77164 -1.32466e-19)
(19.316 -3.27752 -3.39935e-19)
(19.2215 -3.78095 8.95475e-19)
(19.114 -4.28163 -2.14056e-19)
(18.9934 -4.77924 -2.06296e-19)
(18.8599 -5.27345 -4.53365e-19)
(18.7135 -5.76393 -1.31527e-18)
(18.5544 -6.25038 1.22648e-19)
(18.3827 -6.73245 -3.84868e-20)
(18.1984 -7.20982 -4.39379e-19)
(18.0018 -7.68219 8.92295e-19)
(17.793 -8.14922 5.00307e-19)
(17.5721 -8.61062 9.31524e-19)
(17.3393 -9.06607 4.49833e-19)
(17.0948 -9.51527 -1.06457e-18)
(16.8387 -9.95794 4.70244e-20)
(16.5712 -10.3938 -2.02778e-18)
(16.2925 -10.8225 3.09023e-18)
(16.0029 -11.2439 -1.00429e-18)
(15.7025 -11.6577 -1.34854e-18)
(15.3916 -12.0638 -2.00664e-19)
(15.0707 -12.462 -2.86584e-20)
(14.739 -12.8528 -1.06123e-18)
(14.4001 -13.2346 1.85124e-18)
(18.9472 -0.270644 4.08772e-20)
(18.9287 -0.768797 5.75829e-20)
(18.8966 -1.26476 1.10471e-20)
(18.8518 -1.75873 -5.23812e-19)
(18.7945 -2.25087 -4.68002e-19)
(18.7245 -2.74105 4.10717e-19)
(18.6418 -3.22897 5.09893e-19)