/*--------------------------------*- C++ -*----------------------------------*\
| =========                 |                                                 |
| \\      /  F ield         | OpenFOAM: The Open Source CFD Toolbox           |
|  \\    /   O peration     | Version:  v1912                                 |
|   \\  /    A nd           | Website:  www.openfoam.com                      |
|    \\/     M anipulation  |                                                 |
\*---------------------------------------------------------------------------*/
FoamFile
{
    version     2.0;
    format      ascii;
    class       volVectorField;
    location    "37.5";
    object      U;
}
// * * * * * * * * * * * * * * * * * * * * * * * * * * * * * * * * * * * * * //

dimensions      [0 1 -1 0 0 0 0];


internalField   nonuniform List<vector> 
9600
(
(0.456579 -9.36282 -1.54058e-19)
(0.159681 -8.63445 0)
(0.24171 -8.1617 -9.04453e-20)
(0.320235 -7.84225 0)
(0.387318 -7.60662 0)
(0.45549 -7.41139 -3.18125e-20)
(0.52078 -7.23256 -5.47889e-22)
(0.580057 -7.05794 2.65864e-20)
(0.632551 -6.88221 0)
(0.678294 -6.70393 -4.50739e-20)
(0.717674 -6.52372 0)
(0.751315 -6.34312 -1.82836e-21)
(0.779953 -6.16394 -2.60579e-21)
(0.804342 -5.98787 -3.14867e-20)
(0.825204 -5.81628 2.65504e-20)
(0.84319 -5.65014 -2.60849e-20)
(0.858851 -5.48994 2.3222e-20)
(0.87273 -5.33558 0)
(0.885609 -5.1863 -1.84687e-20)
(0.897215 -5.04058 2.02468e-20)
(0.824554 -9.35237 -3.08191e-19)
(0.502211 -8.66241 1.17608e-20)
(0.56744 -8.20582 1.86309e-19)
(0.634451 -7.89585 -1.58771e-19)
(0.69251 -7.66481 1.56579e-19)
(0.752626 -7.47007 0)
(0.810027 -7.28895 6.06735e-20)
(0.861245 -7.11034 -6.05314e-20)
(0.905437 -6.92974 -1.04982e-19)
(0.94269 -6.74628 1.32763e-19)
(0.973506 -6.56098 -8.61961e-20)
(0.99863 -6.37565 -3.51829e-20)
(1.01891 -6.19222 7.10205e-20)
(1.03519 -6.01246 0)
(1.04825 -5.83778 0)
(1.05878 -5.66912 9.95194e-20)
(1.06735 -5.50693 -1.68729e-19)
(1.07451 -5.35107 0)
(1.08112 -5.20066 0)
(1.08665 -5.05407 -7.79761e-20)
(1.19287 -9.32839 6.36758e-19)
(0.847001 -8.67751 0)
(0.896711 -8.23728 -3.76946e-19)
(0.952946 -7.93688 -3.41629e-19)
(1.00228 -7.71041 0)
(1.05432 -7.51612 5.45849e-19)
(1.1036 -7.33272 -5.15304e-19)
(1.14641 -7.15023 1.00996e-19)
(1.1819 -6.96495 -2.24842e-19)
(1.21025 -6.77659 -3.73868e-19)
(1.2321 -6.58655 5.10324e-19)
(1.24836 -6.39687 -3.15507e-19)
(1.25997 -6.20962 -1.41386e-19)
(1.26787 -6.0266 0)
(1.27292 -5.84924 5.52028e-21)
(1.27584 -5.67847 1.04905e-19)
(1.27719 -5.51471 4.53409e-20)
(1.27754 -5.35775 0)
(1.27783 -5.20659 8.21885e-20)
(1.27718 -5.05956 8.42359e-20)
(1.56041 -9.29049 -8.61424e-19)
(1.19346 -8.67946 -4.03609e-19)
(1.22897 -8.25584 3.91493e-19)
(1.27516 -7.96503 6.72673e-19)
(1.31606 -7.74304 -3.26474e-19)
(1.35997 -7.54916 5.7854e-21)
(1.4009 -7.36352 2.53459e-19)
(1.43494 -7.17729 2.29554e-19)
(1.46132 -6.98757 4.20387e-19)
(1.48037 -6.79464 0)
(1.49289 -6.60025 1.6191e-19)
(1.49994 -6.40665 -1.71844e-19)
(1.5026 -6.21601 1.0344e-20)
(1.50191 -6.03019 2.70836e-19)
(1.49877 -5.8506 2.32153e-19)
(1.49393 -5.67815 -3.27711e-19)
(1.48796 -5.51322 1.07924e-19)
(1.48146 -5.35556 -1.75703e-19)
(1.4754 -5.20405 1.74873e-19)
(1.46851 -5.05699 -8.42793e-20)
(1.92688 -9.23863 4.3443e-19)
(1.5413 -8.66813 0)
(1.56381 -8.26125 3.84429e-19)
(1.60058 -7.97995 0)
(1.63327 -7.76237 0)
(1.669 -7.56885 -3.00025e-19)
(1.70129 -7.38103 -5.36739e-19)
(1.72621 -7.19124 -4.55025e-19)
(1.74309 -6.99736 1.8443e-20)
(1.75244 -6.80021 -1.96602e-19)
(1.75529 -6.60189 0)
(1.75283 -6.40483 -1.62318e-19)
(1.74629 -6.21129 -2.92382e-19)
(1.7368 -6.02314 2.57095e-19)
(1.72531 -5.84177 -7.30624e-19)
(1.7126 -5.66808 1.1824e-19)
(1.69925 -5.50241 9.36999e-20)
(1.68586 -5.34445 -1.9322e-19)
(1.67348 -5.19297 -8.4417e-20)
(1.66031 -5.04633 2.51722e-19)
(2.29173 -9.17271 4.19163e-19)
(1.89002 -8.64326 4.15631e-19)
(1.9007 -8.25321 0)
(1.92865 -7.98134 0)
(1.95333 -7.76804 -6.23692e-19)
(1.98075 -7.57487 3.40915e-19)
(2.00414 -7.38497 8.20267e-19)
(2.01958 -7.19183 0)
(2.02656 -6.99411 2.16727e-19)
(2.02586 -6.79315 1.96603e-19)
(2.0187 -6.59136 -3.47299e-19)
(2.00646 -6.39133 5.03634e-19)
(1.9905 -6.19538 1.47774e-19)
(1.97203 -6.00538 0)
(1.95207 -5.82271 1.22998e-19)
(1.93141 -5.64822 5.52078e-19)
(1.91063 -5.48223 -3.28969e-19)
(1.89036 -5.32438 3.69605e-19)
(1.87168 -5.17333 -7.02812e-19)
(1.85223 -5.02755 8.12489e-19)
(2.65443 -9.09271 4.26291e-19)
(2.23912 -8.60467 -2.25719e-18)
(2.23912 -8.23147 0)
(2.25878 -7.96888 0)
(2.2756 -7.75976 0)
(2.2946 -7.56693 -6.04977e-19)
(2.30879 -7.37508 0)
(2.31437 -7.17884 -9.69519e-19)
(2.3111 -6.97765 8.94242e-19)
(2.3 -6.77332 -8.30488e-19)
(2.28252 -6.56855 0)
(2.26025 -6.36606 0)
(2.23468 -6.16822 0)
(2.20709 -5.97689 -2.80914e-19)
(2.17856 -5.7934 0)
(2.1499 -5.61857 0)
(2.12167 -5.45268 -4.1223e-19)
(2.09454 -5.29534 4.05029e-19)
(2.0696 -5.14511 0)
(2.04391 -5.00065 0)
(3.01444 -8.99863 -1.38684e-18)
(2.58805 -8.5522 8.98603e-19)
(2.57848 -8.19578 0)
(2.59037 -7.9423 0)
(2.59944 -7.73726 0)
(2.60986 -7.54479 5.75408e-19)
(2.61455 -7.35114 -5.77142e-19)
(2.60993 -7.1521 -8.86888e-21)
(2.59604 -6.94784 -8.95333e-19)
(2.57421 -6.74061 8.38293e-19)
(2.54615 -6.53338 -3.78144e-19)
(2.51363 -6.32898 6.57483e-19)
(2.47828 -6.12979 -4.63698e-20)
(2.44146 -5.93765 -5.9475e-19)
(2.40429 -5.75384 -5.01214e-19)
(2.36759 -5.57912 4.92427e-19)
(2.33191 -5.41376 0)
(2.29795 -5.25733 0)
(2.26685 -5.10832 3.56259e-19)
(2.23497 -4.96563 -3.92079e-19)
(3.3712 -8.89049 9.26916e-19)
(2.93623 -8.48569 8.82765e-19)
(2.91819 -8.14592 -1.67315e-18)
(2.92277 -7.90138 7.90309e-19)
(2.92418 -7.7003 0)
(2.92584 -7.50824 6.15722e-19)
(2.92073 -7.31299 -5.40466e-19)
(2.90555 -7.11148 1.52736e-18)
(2.88071 -6.90458 -2.36738e-20)
(2.84785 -6.69497 0)
(2.80896 -6.48583 7.62956e-19)
(2.76601 -6.28007 0)
(2.72075 -6.0801 0)
(2.67461 -5.88768 -2.72055e-19)
(2.62875 -5.70403 5.48722e-19)
(2.58399 -5.52989 0)
(2.54088 -5.3655 4.30334e-19)
(2.50016 -5.21037 1.79124e-19)
(2.46298 -5.06296 -3.88677e-19)
(2.425 -4.92252 3.77398e-19)
(3.72416 -8.76837 -9.54657e-19)
(3.28309 -8.40505 8.97141e-19)
(3.25762 -8.08171 -2.55497e-18)
(3.25533 -7.84589 8.03399e-19)
(3.24912 -7.64869 0)
(3.24184 -7.4571 -1.24271e-18)
(3.22662 -7.26048 5.96977e-19)
(3.20055 -7.05687 0)
(3.16443 -6.84781 -4.73877e-19)
(3.12028 -6.63635 -8.21845e-19)
(3.07035 -6.42587 -7.16066e-19)
(3.01681 -6.21935 5.34038e-20)
(2.96152 -6.01915 6.69716e-19)
(2.90601 -5.827 2.71831e-19)
(2.85143 -5.64402 -3.79032e-20)
(2.79862 -5.47092 -5.11875e-19)
(2.74811 -5.30791 -2.2893e-19)
(2.70069 -5.1545 -2.06382e-19)
(2.65754 -5.00907 5.50507e-19)
(2.61358 -4.87135 -8.20373e-19)
(4.07274 -8.63234 9.5466e-19)
(3.62801 -8.3102 -4.66312e-20)
(3.59614 -8.00302 8.21242e-19)
(3.58736 -7.77568 0)
(3.57356 -7.58225 -6.79825e-19)
(3.55714 -7.39123 1.30627e-18)
(3.5315 -7.19352 -1.11646e-18)
(3.49421 -6.98822 1.09867e-18)
(3.44653 -6.77749 -4.45104e-19)
(3.39083 -6.56475 9.03596e-19)
(3.32968 -6.35353 3.91273e-19)
(3.26543 -6.14684 0)
(3.20005 -5.947 0)
(3.13512 -5.75565 -2.81861e-19)
(3.07182 -5.57386 3.83196e-20)
(3.01098 -5.40226 1.00799e-18)
(2.95311 -5.24106 -2.4938e-19)
(2.89905 -5.08975 8.23565e-19)
(2.85004 -4.94668 1.44104e-19)
(2.80026 -4.81215 -8.37878e-19)
(4.41641 -8.48252 -2.93739e-18)
(3.97041 -8.20111 -9.85901e-19)
(3.9331 -7.90973 -2.62885e-18)
(3.91818 -7.69062 -1.59912e-18)
(3.89678 -7.50089 -7.58481e-19)
(3.871 -7.31056 -7.41308e-19)
(3.83466 -7.11205 -2.41963e-18)
(3.78585 -6.90549 -4.90278e-20)
(3.72633 -6.69363 -1.94398e-18)
(3.65888 -6.4802 3.02151e-20)
(3.58635 -6.26884 -8.07015e-19)
(3.51128 -6.06259 -7.35342e-19)
(3.43576 -5.8637 6.71231e-19)
(3.36141 -5.67371 -6.13822e-19)
(3.2894 -5.49361 -5.62335e-19)
(3.22054 -5.32396 -5.16072e-19)
(3.15536 -5.16499 -1.38561e-18)
(3.09474 -5.01616 4.92985e-19)
(3.03999 -4.87583 1.19625e-18)
(2.98455 -4.74496 -1.2732e-18)
(4.7546 -8.31904 3.95095e-18)
(4.30969 -8.07779 4.85323e-18)
(4.26785 -7.80178 8.33621e-19)
(4.24709 -7.59061 3.99395e-18)
(4.21805 -7.40451 -7.82761e-19)
(4.1827 -7.21502 3.91093e-18)
(4.13536 -7.01605 1.14395e-18)
(4.07475 -6.8087 3.21134e-18)
(4.00315 -6.59627 -9.81542e-19)
(3.92377 -6.38275 2.71751e-18)
(3.83975 -6.17188 1.62553e-18)
(3.7538 -5.96667 1.48131e-18)
(3.66811 -5.76931 -2.00538e-18)
(3.58433 -5.58123 1.87852e-18)
(3.50363 -5.40333 1.13334e-18)
(3.42681 -5.2361 1.04033e-18)
(3.35436 -5.07978 9.56565e-19)
(3.28725 -4.9338 7.35158e-21)
(3.22686 -4.79657 8.11938e-19)
(3.16598 -4.66984 8.44994e-19)
(5.0868 -8.14206 -2.93391e-18)
(4.64524 -7.94025 1.08121e-18)
(4.59973 -7.67913 2.67445e-18)
(4.57338 -7.47561 -3.25817e-18)
(4.53665 -7.29308 7.52877e-19)
(4.49151 -7.10461 -2.61649e-18)
(4.4329 -6.90555 1.28235e-18)
(4.36023 -6.69791 -2.1487e-18)
(4.27634 -6.48547 4.89901e-20)
(4.18488 -6.27248 1.192e-20)
(4.08927 -6.06272 -1.64796e-18)
(3.9924 -5.85917 -7.45972e-19)
(3.89654 -5.66392 1.3716e-18)
(3.80335 -5.47829 8.74152e-21)
(3.71399 -5.30309 -3.71439e-20)
(3.62923 -5.13874 -1.08584e-18)
(3.54955 -4.98546 -4.8216e-19)
(3.47601 -4.84272 -2.71054e-20)
(3.41009 -4.70896 -8.46231e-19)
(3.34399 -4.58689 -4.26736e-19)
(5.4125 -7.95178 0)
(4.97649 -7.78855 -1.99774e-18)
(4.92809 -7.54177 2.36824e-20)
(4.89636 -7.34559 3.25354e-18)
(4.85185 -7.16661 1.36163e-18)
(4.79669 -6.97937 -1.41739e-18)
(4.72655 -6.78061 -1.22093e-18)
(4.64159 -6.57319 0)
(4.54525 -6.36135 -9.7172e-19)
(4.44159 -6.14951 9.2736e-19)
(4.33434 -5.94148 -3.9029e-20)
(4.22654 -5.74018 0)
(4.12052 -5.5476 -6.90492e-19)
(4.01795 -5.36496 5.98041e-19)
(3.91996 -5.19293 4.99571e-19)
(3.82727 -5.03189 -6.03164e-19)
(3.74035 -4.88205 -5.23224e-19)
(3.66037 -4.7429 9.08529e-19)
(3.58893 -4.61299 -8.38431e-19)
(3.51772 -4.49618 4.41318e-19)
(5.73122 -7.74836 3.0311e-18)
(5.30285 -7.62278 -2.05748e-18)
(5.25225 -7.38972 -1.75574e-18)
(5.2153 -7.20059 8.17395e-19)
(5.16291 -7.02515 -1.58582e-18)
(5.09752 -6.83938 0)
(5.01562 -6.64134 0)
(4.91817 -6.43469 0)
(4.80923 -6.22405 -4.44284e-20)
(4.69332 -6.01397 -1.86111e-18)
(4.57441 -5.80829 8.78952e-19)
(4.45571 -5.60983 7.43293e-19)
(4.33957 -5.42046 6.28929e-19)
(4.22766 -5.2413 -2.58095e-18)
(4.12107 -5.0729 1.22356e-18)
(4.02045 -4.91557 0)
(3.92625 -4.76952 -3.03843e-20)
(3.8397 -4.63427 -1.40916e-18)
(3.76256 -4.50857 -5.68775e-21)
(3.68622 -4.39736 -4.41805e-19)
(6.04263 -7.53209 -2.06174e-18)
(5.62378 -7.44305 -1.08473e-18)
(5.57154 -7.22306 8.17173e-19)
(5.52949 -7.04067 -1.43879e-19)
(5.46911 -6.86878 -4.62264e-18)
(5.39327 -6.68475 4.18331e-18)
(5.2994 -6.48788 -4.87911e-20)
(5.1893 -6.28255 1.14564e-18)
(5.06768 -6.07372 1.02785e-18)
(4.93949 -5.86604 9.43738e-19)
(4.80895 -5.66329 8.5876e-19)
(4.67939 -5.46823 1.53464e-18)
(4.55322 -5.2826 -7.38636e-19)
(4.43205 -5.10739 1.91448e-18)
(4.31691 -4.94305 -1.23767e-18)
(4.20839 -4.78984 -5.11947e-19)
(4.10689 -4.64797 2.05631e-18)
(4.01369 -4.51695 1.37376e-18)
(3.93073 -4.39559 -2.79162e-20)
(3.84946 -4.28975 0)
(6.34668 -7.30345 -1.04829e-18)
(5.93888 -7.24956 2.07291e-18)
(5.8853 -7.04184 1.81462e-18)
(5.8382 -6.86588 -1.45851e-19)
(5.76969 -6.6976 -1.56839e-18)
(5.6832 -6.51563 7.06224e-20)
(5.57718 -6.32041 1.31425e-20)
(5.45433 -6.11699 1.17107e-20)
(5.32 -5.91059 0)
(5.17954 -5.7059 9.23014e-19)
(5.03744 -5.50667 -1.7568e-18)
(4.89712 -5.31552 -7.51726e-19)
(4.76098 -5.13409 7.46267e-19)
(4.6306 -4.96324 -6.54761e-19)
(4.50694 -4.80337 6.06391e-19)
(4.39051 -4.65471 -5.52008e-19)
(4.28171 -4.51745 4.89201e-21)
(4.18193 -4.39098 -4.68929e-19)
(4.0934 -4.27401 -4.33169e-19)
(4.00798 -4.17421 -4.33459e-19)
(6.64373 -7.06291 0)
(6.2479 -7.04223 -1.01064e-18)
(6.19289 -6.84599 9.9904e-19)
(6.14065 -6.6763 1.74284e-18)
(6.06392 -6.51179 -1.57703e-18)
(5.96661 -6.33225 1.36225e-18)
(5.84832 -6.13922 -2.61927e-18)
(5.71266 -5.93831 -2.32583e-18)
(5.56563 -5.73494 -1.01456e-18)
(5.41301 -5.53384 4.43756e-20)
(5.25948 -5.33864 -8.40049e-19)
(5.10852 -5.15185 3.48826e-20)
(4.96251 -4.97497 0)
(4.82293 -4.80877 -1.28435e-18)
(4.6906 -4.65359 6.55454e-19)
(4.5659 -4.50968 0)
(4.44931 -4.37716 -5.13268e-19)
(4.34239 -4.25518 -9.2276e-19)
(4.2474 -4.14336 9.06705e-19)
(4.15679 -4.0543 4.47569e-19)
(6.93336 -6.8097 0)
(6.55021 -6.82035 0)
(6.49357 -6.63543 -1.85309e-18)
(6.43611 -6.47222 -1.59319e-18)
(6.35108 -6.31173 3.23368e-18)
(6.24287 -6.13505 0)
(6.11222 -5.94474 0)
(5.96377 -5.74694 1.16846e-18)
(5.80415 -5.54723 0)
(5.63953 -5.35027 0)
(5.4748 -5.1596 0)
(5.31347 -4.97755 0)
(5.15784 -4.80546 0)
(5.00922 -4.64398 0)
(4.86817 -4.49337 0)
(4.73482 -4.35379 0)
(4.60943 -4.22512 0)
(4.49307 -4.10668 0)
(4.38586 -4.00155 0)
(4.28169 -3.92698 0)
(10.0425 0.0877323 1.4715e-19)
(10.022 -0.307618 2.86297e-19)
(9.98625 -0.700293 -2.94052e-19)
(9.93575 -1.09015 5.86283e-19)
(9.87027 -1.47685 -5.86282e-19)
(9.78967 -1.85989 -5.53997e-19)
(9.69404 -2.23874 -5.52452e-19)
(9.58361 -2.61283 1.73997e-18)
(9.4586 -2.98163 -1.15925e-18)
(9.31928 -3.34458 1.14955e-18)
(9.16592 -3.70113 -1.14955e-18)
(8.99884 -4.05075 1.14107e-18)
(8.81836 -4.39292 -2.26285e-18)
(8.62483 -4.72715 3.33231e-18)
(8.41862 -5.05294 0)
(8.20012 -5.36984 -3.27394e-18)
(7.96973 -5.67744 1.63041e-20)
(7.72797 -5.97537 3.29948e-18)
(7.47493 -6.26347 0)
(7.2123 -6.54107 0)
(10.1179 -0.210741 0)
(10.0766 -0.606756 -1.50363e-20)
(10.0187 -0.998974 0)
(9.94457 -1.38706 5.60949e-19)
(9.85462 -1.77058 5.84182e-19)
(9.74901 -2.14894 -1.69075e-18)
(9.62802 -2.52151 2.94369e-18)
(9.49202 -2.88765 -1.16203e-18)
(9.34138 -3.24678 -1.10765e-18)
(9.17648 -3.5983 -1.10313e-18)
(8.99774 -3.94166 4.45585e-20)
(8.80561 -4.27629 1.1303e-18)
(8.60054 -4.60168 -5.61904e-18)
(8.38301 -4.91734 -1.17846e-18)
(8.15352 -5.22279 2.24531e-18)
(7.91258 -5.51761 2.24237e-18)
(7.66066 -5.80142 1.13931e-18)
(7.39834 -6.07387 -2.19682e-18)
(7.12572 -6.3347 1.04029e-18)
(6.84374 -6.58359 0)
(10.0685 -0.14929 1.32481e-19)
(10.0307 -0.540829 -2.71306e-19)
(9.97557 -0.929196 7.8345e-19)
(9.90345 -1.3137 -5.55061e-19)
(9.81474 -1.69368 -5.29215e-19)
(9.70979 -2.06844 5.52554e-19)
(9.58898 -2.43724 0)
(9.4527 -2.7994 0)
(9.30138 -3.15425 2.09801e-18)
(9.13547 -3.50113 3.12986e-18)
(8.95543 -3.83945 -9.89862e-19)
(8.76177 -4.1686 3.09493e-18)
(8.555 -4.48802 -9.857e-19)
(8.33566 -4.79718 -3.01451e-18)
(8.1043 -5.09558 1.35852e-20)
(7.86148 -5.38274 1.93495e-18)
(7.60775 -5.65824 -8.73316e-19)
(7.3437 -5.92167 -1.90368e-18)
(7.06966 -6.17264 -1.02836e-18)
(6.78637 -6.41067 1.87095e-18)
(9.90161 -0.112614 0)
(9.87064 -0.494896 2.28706e-19)
(9.8224 -0.874836 2.27764e-19)
(9.75707 -1.25153 -9.35761e-19)
(9.67499 -1.62419 0)
(9.5765 -1.99204 0)
(9.46196 -2.3543 0)
(9.33174 -2.71023 0)
(9.18625 -3.05912 -9.90285e-19)
(9.02595 -3.40028 -9.86528e-19)
(8.85131 -3.73304 0)
(8.66283 -4.05677 1.86515e-18)
(8.46104 -4.37085 -4.6114e-18)
(8.2465 -4.67471 3.70803e-18)
(8.01976 -4.96778 -3.59401e-18)
(7.78143 -5.24957 -8.72091e-19)
(7.53207 -5.51957 1.56379e-19)
(7.2723 -5.77731 1.54788e-19)
(7.00264 -6.02233 -1.77621e-18)
(6.72381 -6.25415 -7.08761e-20)
(9.64813 -0.0991432 0)
(9.62456 -0.469184 -2.25556e-19)
(9.58414 -0.837537 0)
(9.52697 -1.2033 4.51235e-19)
(9.45326 -1.56563 4.30131e-19)
(9.36331 -1.92375 3.93216e-19)
(9.25744 -2.27686 0)
(9.13597 -2.62422 0)
(8.99928 -2.96506 0)
(8.84778 -3.29869 0)
(8.68193 -3.6244 8.12305e-19)
(8.5022 -3.94154 8.7521e-19)
(8.30909 -4.24944 8.70233e-19)
(8.10316 -4.5475 -8.83531e-19)
(7.88494 -4.83514 -1.52041e-18)
(7.65503 -5.11177 1.7261e-18)
(7.41402 -5.37688 3.34652e-18)
(7.16251 -5.62994 1.62774e-18)
(6.9011 -5.87044 0)
(6.63048 -6.09789 -1.53405e-18)
(9.34089 -0.0903371 4.63543e-20)
(9.32426 -0.446198 0)
(9.29143 -0.800941 -7.59639e-19)
(9.2424 -1.15371 1.83958e-23)
(9.17732 -1.50369 1.61596e-20)
(9.09643 -1.85009 -6.84758e-20)
(8.99999 -2.19213 0)
(8.88828 -2.52905 3.09073e-20)
(8.76164 -2.86012 -7.71177e-19)
(8.62043 -3.18462 1.50249e-18)
(8.46505 -3.50183 -1.56677e-18)
(8.29595 -3.81109 8.56008e-19)
(8.1136 -4.11174 -4.4866e-18)
(7.91849 -4.40313 2.95918e-18)
(7.71116 -4.68467 1.56871e-18)
(7.49217 -4.95575 0)
(7.26209 -5.21581 -2.89544e-18)
(7.02152 -5.46431 -6.14991e-20)
(6.77105 -5.7007 -2.85144e-18)
(6.51134 -5.92446 2.96382e-18)
(9.00841 -0.0855118 4.16847e-20)
(8.99742 -0.426373 -8.73272e-20)
(8.97095 -0.766583 7.16013e-19)
(8.92898 -1.10535 -1.40609e-20)
(8.87161 -1.44187 7.15865e-19)
(8.79903 -1.77539 -1.08125e-18)
(8.71144 -2.10515 0)
(8.60909 -2.43042 7.28911e-19)
(8.49226 -2.75048 6.67364e-19)
(8.36128 -3.06462 -7.24831e-19)
(8.2165 -3.37215 1.32608e-18)
(8.05831 -3.67239 2.81145e-18)
(7.88716 -3.9647 -1.30743e-18)
(7.70349 -4.24844 -1.41727e-18)
(7.50782 -4.52298 1.3591e-18)
(7.30066 -4.78774 0)
(7.08255 -5.04212 6.48868e-20)
(6.85407 -5.28556 9.78888e-21)
(6.6158 -5.51751 2.70149e-18)
(6.36834 -5.73741 1.25589e-18)
(8.67189 -0.0843099 0)
(8.66495 -0.410218 6.25167e-21)
(8.64331 -0.73582 -1.45682e-19)
(8.60692 -1.06037 -6.47021e-19)
(8.55584 -1.38312 6.08164e-19)
(8.49023 -1.70334 0)
(8.41026 -2.02032 1.23785e-18)
(8.31613 -2.33334 -1.36015e-21)
(8.20809 -2.64173 -1.89058e-18)
(8.08642 -2.94479 0)
(7.95143 -3.24187 -1.30497e-18)
(7.80348 -3.53231 4.59668e-20)
(7.64297 -3.81548 -3.66815e-18)
(7.47032 -4.09075 6.4621e-21)
(7.28599 -4.35752 1.22945e-18)
(7.09047 -4.6152 0)
(6.88429 -4.86318 -1.20673e-18)
(6.66797 -5.10091 8.68321e-21)
(6.44208 -5.32782 1.19805e-18)
(6.20716 -5.54333 -1.23589e-18)
(8.34517 -0.0853677 0)
(8.34084 -0.396903 1.4937e-19)
(8.32257 -0.708365 3.09916e-19)
(8.2903 -1.01905 -5.73622e-19)
(8.24408 -1.32827 -2.47042e-20)
(8.18402 -1.63532 -2.86679e-19)
(8.11028 -1.93954 -1.14761e-18)
(8.02301 -2.24025 5.70545e-19)
(7.92245 -2.5368 2.37963e-20)
(7.80883 -2.82855 5.67132e-19)
(7.68245 -3.11486 5.22061e-19)
(7.54362 -3.39511 2.26101e-18)
(7.39271 -3.66869 1.13096e-18)
(7.23011 -3.93501 2.23379e-18)
(7.05625 -4.19347 -1.11397e-18)
(6.87159 -4.44351 3.8639e-20)
(6.67663 -4.68454 -1.10082e-18)
(6.47188 -4.91599 0)
(6.25787 -5.1373 1.04053e-18)
(6.03512 -5.34789 0)
(8.03613 -0.0875625 6.50279e-20)
(8.03326 -0.385596 -1.90445e-19)
(8.01717 -0.683697 5.22365e-19)
(7.98779 -0.981211 -2.60597e-19)
(7.94515 -1.27748 1.89663e-20)
(7.88936 -1.57186 -2.60442e-19)
(7.82053 -1.86371 5.41461e-19)
(7.73883 -2.15241 -5.18191e-19)
(7.64445 -2.43734 5.18188e-19)
(7.5376 -2.71789 9.9383e-19)
(7.41856 -2.99346 -1.07097e-18)
(7.28761 -3.26347 -4.50635e-20)
(7.14509 -3.52735 -3.09993e-18)
(6.99136 -3.78453 5.36881e-21)
(6.82685 -4.03445 4.02405e-20)
(6.65198 -4.27656 2.0096e-18)
(6.46724 -4.5103 -9.92676e-19)
(6.27312 -4.73511 -9.45515e-19)
(6.07013 -4.95044 -3.74243e-20)
(5.85876 -5.15566 0)
(7.74838 -0.0901503 0)
(7.74613 -0.375673 2.4191e-19)
(7.7313 -0.661337 -8.3177e-19)
(7.70384 -0.946527 -2.20663e-19)
(7.66377 -1.23063 4.93534e-19)
(7.61119 -1.51303 0)
(7.54619 -1.79314 0)
(7.46893 -2.07036 4.71729e-19)
(7.37958 -2.34412 -4.71727e-19)
(7.27833 -2.61384 3.97338e-19)
(7.16544 -2.87896 -4.68686e-19)
(7.04118 -3.13895 9.29442e-19)
(6.90586 -3.39326 -1.85428e-18)
(6.75984 -3.64136 1.84469e-18)
(6.6035 -3.88274 3.4637e-20)
(6.43728 -4.11687 -9.48782e-19)
(6.26164 -4.34322 -9.02818e-19)
(6.07707 -4.56124 1.83912e-18)
(5.88409 -4.77038 8.60918e-19)
(5.68317 -4.97002 0)
(7.48271 -0.0926583 1.87574e-21)
(7.4805 -0.366668 1.5882e-19)
(7.46631 -0.640847 3.33457e-19)
(7.44007 -0.914616 2.3341e-19)
(7.40181 -1.18739 2.1651e-19)
(7.35162 -1.45861 2.01396e-19)
(7.28959 -1.72769 0)
(7.21586 -1.9941 -8.32293e-19)
(7.13058 -2.25727 -4.29055e-19)
(7.03396 -2.51669 3.65995e-19)
(6.92621 -2.77182 0)
(6.80759 -3.02216 8.47427e-19)
(6.67841 -3.26721 -2.50629e-18)
(6.539 -3.50649 8.43088e-19)
(6.38975 -3.73951 0)
(6.23106 -3.9658 -8.01595e-19)
(6.06343 -4.18484 -1.61902e-18)
(5.88734 -4.39613 7.96663e-19)
(5.70334 -4.5991 -2.91806e-20)
(5.51188 -4.79311 0)
(7.23824 -0.0947879 3.46071e-21)
(7.23573 -0.358237 -1.02784e-19)
(7.22174 -0.621848 1.98348e-19)
(7.19624 -0.885075 -1.31068e-20)
(7.15926 -1.14737 3.96346e-19)
(7.11086 -1.40819 -6.08721e-19)
(7.05116 -1.66701 0)
(6.98026 -1.9233 5.59691e-20)
(6.89832 -2.17655 0)
(6.80553 -2.42625 -8.12568e-19)
(6.70209 -2.67193 0)
(6.58826 -2.91311 -7.49867e-19)
(6.46432 -3.14933 2.31767e-18)
(6.33059 -3.38015 -1.53579e-18)
(6.18745 -3.60512 7.65687e-19)
(6.03531 -3.82383 -6.77415e-19)
(5.87468 -4.0358 7.82528e-19)
(5.70605 -4.24057 -7.77175e-19)
(5.53005 -4.43754 0)
(5.34712 -4.62607 0)
(7.0132 -0.0964176 4.70306e-20)
(7.01019 -0.350155 0)
(6.99616 -0.604035 0)
(6.97109 -0.857539 -3.76817e-19)
(6.93502 -1.11015 -3.51676e-19)
(6.88801 -1.36134 0)
(6.83016 -1.61062 0)
(6.76159 -1.85749 4.97945e-20)
(6.68243 -2.10147 6.96425e-19)
(6.59287 -2.34208 -3.35851e-19)
(6.4931 -2.57888 -3.57833e-19)
(6.38337 -2.81141 1.4455e-18)
(6.26393 -3.03927 -2.14644e-18)
(6.1351 -3.26206 1.38412e-18)
(5.99726 -3.47937 0)
(5.85081 -3.69087 2.78072e-18)
(5.69629 -3.89609 -2.0189e-18)
(5.5342 -4.09469 6.86834e-19)
(5.36532 -4.28597 1.31352e-18)
(5.19006 -4.46938 0)
(6.80549 -0.0974823 -4.0432e-20)
(6.80186 -0.34226 0)
(6.78765 -0.587159 -5.21506e-21)
(6.76283 -0.83168 -3.23567e-19)
(6.72744 -1.07532 1.00264e-18)
(6.68155 -1.3176 -1.66786e-19)
(6.62524 -1.55803 0)
(6.55863 -1.79614 1.32862e-18)
(6.48185 -2.03148 -6.84229e-19)
(6.39508 -2.2636 4.44298e-20)
(6.29849 -2.49208 6.34096e-19)
(6.19232 -2.7165 6.4996e-19)
(6.07682 -2.9365 -1.29613e-18)
(5.95228 -3.15171 -1.26775e-18)
(5.81906 -3.36178 -1.23827e-18)
(5.67757 -3.56647 -1.31772e-18)
(5.52838 -3.76532 1.30874e-18)
(5.372 -3.9582 -6.24754e-19)
(5.20946 -4.14423 -6.6576e-19)
(5.04105 -4.32309 0)
(6.61287 -0.0979615 3.97233e-20)
(6.60861 -0.334448 -1.49148e-19)
(6.59415 -0.571025 -1.54403e-19)
(6.56949 -0.807215 4.62325e-19)
(6.53465 -1.04254 -1.64189e-19)
(6.48971 -1.27653 -1.53469e-19)
(6.43474 -1.50873 0)
(6.36986 -1.7387 -6.30824e-19)
(6.29519 -1.96599 0)
(6.2109 -2.19019 6.25942e-19)
(6.11715 -2.41089 -1.20618e-18)
(6.01416 -2.62773 5.97079e-19)
(5.90217 -2.84034 -1.19049e-18)
(5.78144 -3.04844 1.22852e-18)
(5.65232 -3.25171 6.68687e-19)
(5.51519 -3.45001 0)
(5.37067 -3.64289 -5.77146e-19)
(5.21923 -3.83057 5.77146e-19)
(5.06233 -4.01183 0)
(4.89994 -4.18704 0)
(6.43322 -0.0979426 0)
(6.42836 -0.326695 1.46537e-19)
(6.41366 -0.555508 4.71641e-21)
(6.38913 -0.783921 -1.51095e-19)
(6.35479 -1.01148 -1.33234e-19)
(6.31072 -1.23774 -1.41451e-19)
(6.257 -1.46225 5.46708e-19)
(6.19372 -1.6846 0)
(6.12101 -1.90437 0)
(6.03902 -2.12116 2.77838e-19)
(5.94791 -2.33459 2.95151e-19)
(5.84788 -2.54432 1.06819e-18)
(5.73913 -2.75002 -5.45797e-19)
(5.62191 -2.95144 5.45795e-19)
(5.49653 -3.14831 5.79416e-19)
(5.36332 -3.34063 3.38926e-20)
(5.22295 -3.52793 -1.06412e-18)
(5.07577 -3.71099 3.77594e-21)
(4.92393 -3.88792 5.26294e-19)
(4.76659 -4.06071 0)
(6.26465 -0.0974285 -3.27518e-20)
(6.25925 -0.318971 3.27514e-20)
(6.24436 -0.540547 0)
(6.21998 -0.761708 1.2336e-19)
(6.18616 -0.982021 4.00715e-19)
(6.14296 -1.20106 -5.06451e-19)
(6.09046 -1.4184 -5.37159e-19)
(6.02875 -1.63363 0)
(5.95795 -1.84637 0)
(5.8782 -2.05624 0)
(5.78966 -2.26288 -9.91605e-19)
(5.69248 -2.46596 -6.40294e-20)
(5.58687 -2.66518 -5.02779e-19)
(5.47302 -2.86034 3.01393e-20)
(5.3512 -3.05119 -9.94293e-19)
(5.22164 -3.23789 1.51531e-18)
(5.08506 -3.41998 -1.43577e-18)
(4.9415 -3.59907 4.87387e-19)
(4.79424 -3.77216 9.34332e-19)
(4.64057 -3.94415 0)
(6.10545 -0.0960694 2.94237e-20)
(6.0996 -0.311075 0)
(6.08461 -0.526102 -1.21139e-19)
(6.06046 -0.740713 -2.49615e-19)
(6.02719 -0.954492 1.20986e-19)
(5.98487 -1.16703 9.66126e-19)
(5.93358 -1.37792 0)
(5.8734 -1.58679 -4.65302e-19)
(5.80445 -1.79325 -2.37986e-19)
(5.72686 -1.99695 -4.47083e-19)
(5.64075 -2.19755 -1.78873e-19)
(5.54629 -2.39474 -1.4115e-18)
(5.44362 -2.58825 -9.31672e-19)
(5.33289 -2.77788 9.58397e-19)
(5.21435 -2.96344 9.17359e-19)
(5.088 -3.14516 -3.87943e-21)
(4.95465 -3.32269 2.9891e-20)
(4.81356 -3.49861 4.49076e-19)
(4.66981 -3.66914 -9.18075e-19)
(4.51669 -3.84412 0)
(5.954 -0.0943972 -6.15307e-20)
(5.94786 -0.303144 3.02905e-20)
(5.93291 -0.511978 -1.21016e-19)
(5.90913 -0.720509 1.20959e-19)
(5.87656 -0.928346 -3.47894e-19)
(5.83523 -1.1351 -1.0833e-18)
(5.78522 -1.34038 0)
(5.72659 -1.54383 4.92329e-19)
(5.65943 -1.74509 -4.60337e-19)
(5.58386 -1.94381 9.74796e-19)
(5.49997 -2.13967 9.69001e-19)
(5.40788 -2.33237 1.42763e-18)
(5.30772 -2.52165 -9.26358e-19)
(5.19953 -2.70729 4.61421e-19)
(5.08355 -2.88913 -4.53775e-19)
(4.95941 -3.06736 4.53798e-19)
(4.82821 -3.24173 0)
(4.68727 -3.41544 4.10843e-19)
(4.54558 -3.58434 -4.02034e-19)
(4.38806 -3.77054 0)
(7.13913 7.26111 0)
(7.41907 6.97135 0)
(7.68611 6.672 1.08608e-18)
(7.94095 6.36358 2.02081e-20)
(8.18302 6.0458 -1.1491e-18)
(8.41168 5.71873 0)
(8.62649 5.38275 1.18578e-18)
(8.82713 5.03842 -2.23711e-18)
(9.01329 4.6863 -1.13057e-18)
(9.18467 4.327 -1.14112e-18)
(9.34101 3.96116 1.14112e-18)
(9.48208 3.58942 -1.15319e-18)
(9.60769 3.21248 5.75236e-19)
(9.71764 2.83104 5.49006e-19)
(9.81178 2.44577 5.5115e-19)
(9.89005 2.05732 -5.84942e-19)
(9.95241 1.66636 5.84943e-19)
(9.99896 1.27359 -2.93647e-19)
(10.0296 0.87941 -1.39478e-19)
(10.0449 0.485175 7.34682e-20)
(7.41479 7.06822 0)
(7.69488 6.77886 -9.95108e-19)
(7.96119 6.47795 -2.12751e-18)
(8.214 6.16615 3.14613e-18)
(8.45308 5.84379 -2.18175e-18)
(8.67791 5.51132 2.19243e-18)
(8.88802 5.16934 1.19199e-18)
(9.083 4.81851 -3.38235e-18)
(9.26245 4.45953 1.1065e-18)
(9.42601 4.09311 2.19959e-18)
(9.57338 3.71998 1.08368e-18)
(9.70431 3.34089 1.09054e-18)
(9.81863 2.95665 -1.15082e-18)
(9.91612 2.56797 1.69456e-18)
(9.99651 2.17564 -2.3511e-18)
(10.0597 1.78054 5.80317e-19)
(10.1057 1.38346 -5.57626e-19)
(10.1346 0.985233 0)
(10.1463 0.586385 1.51496e-20)
(10.1411 0.187894 0)
(7.2712 6.94294 -1.75213e-18)
(7.55408 6.67099 9.83723e-19)
(7.82441 6.38619 1.79933e-18)
(8.08175 6.0892 8.14503e-19)
(8.32569 5.7806 2.04012e-18)
(8.55568 5.46101 1.99892e-20)
(8.77122 5.13109 -1.02257e-18)
(8.97179 4.79153 -3.04739e-18)
(9.15697 4.44305 3.00855e-18)
(9.3263 4.08639 -3.08834e-18)
(9.47941 3.72227 -1.02889e-18)
(9.61599 3.35146 -2.05849e-18)
(9.73572 2.97478 0)
(9.8384 2.59301 0)
(9.92388 2.20703 0)
(9.992 1.81776 -5.24695e-19)
(10.0426 1.42603 5.49546e-19)
(10.0756 1.03269 5.26386e-19)
(10.091 0.638472 6.26628e-21)
(10.0887 0.244331 1.32205e-19)
(7.04367 6.69075 1.81975e-18)
(7.32326 6.43745 -1.65246e-18)
(7.5915 6.17103 -1.69489e-19)
(7.84768 5.89205 -1.70447e-19)
(8.09123 5.60106 4.2957e-18)
(8.32161 5.29868 -7.12177e-20)
(8.53826 4.98553 3.75515e-21)
(8.74065 4.66228 -2.71649e-18)
(8.92828 4.32959 1.7923e-18)
(9.10068 3.98817 0)
(9.25737 3.63878 9.61323e-19)
(9.39799 3.28226 9.6797e-19)
(9.52226 2.91939 0)
(9.62988 2.551 0)
(9.72063 2.17791 0)
(9.7943 1.80094 0)
(9.85071 1.42091 -2.16924e-20)
(9.88974 1.03868 4.73938e-19)
(9.91126 0.655063 -2.27583e-19)
(9.91527 0.271013 0)
(6.78091 6.37604 1.54111e-18)
(7.05263 6.14059 0)
(7.31412 5.89221 -4.53729e-18)
(7.56458 5.63132 -1.54654e-18)
(7.80337 5.35844 -1.62522e-18)
(8.02992 5.07413 -1.72284e-18)
(8.24366 4.77898 8.13974e-19)
(8.44403 4.47357 -8.55411e-19)
(8.63051 4.15854 2.37516e-18)
(8.80264 3.83459 -7.77556e-19)
(8.96 3.50246 0)
(9.1021 3.16291 0)
(9.22854 2.81663 0)
(9.33906 2.4644 0)
(9.4334 2.10703 -1.2279e-18)
(9.51129 1.74533 4.22222e-19)
(9.57252 1.3801 -4.46019e-19)
(9.61693 1.01218 0)
(9.6444 0.642407 2.24448e-19)
(9.65484 0.271675 0)
(6.50592 6.04892 1.31827e-18)
(6.76741 5.8296 -4.79715e-20)
(7.01961 5.59777 2.77292e-18)
(7.26172 5.35376 1.38532e-18)
(7.49308 5.09803 0)
(7.71312 4.83109 -1.4711e-18)
(7.92128 4.55347 6.84473e-20)
(8.11699 4.26573 -1.49342e-18)
(8.29975 3.96846 2.06594e-18)
(8.46907 3.6623 3.27173e-20)
(8.62452 3.3479 2.80964e-20)
(8.76566 3.02587 -7.45198e-19)
(8.89207 2.69696 1.46147e-18)
(9.00344 2.36191 0)
(9.09949 2.02144 6.85116e-20)
(9.17994 1.67638 7.46143e-19)
(9.2445 1.32749 1.63495e-21)
(9.293 0.975559 -1.53335e-20)
(9.32531 0.621386 0)
(9.3413 0.265804 -4.62579e-20)
(6.24001 5.73198 0)
(6.49016 5.52664 -4.88949e-20)
(6.73178 5.30931 1.75367e-20)
(6.96409 5.08027 -2.50647e-18)
(7.18647 4.83994 0)
(7.39834 4.58877 1.26764e-18)
(7.59916 4.32723 1.35026e-18)
(7.7884 4.05585 -3.92837e-18)
(7.96555 3.77516 -6.82188e-20)
(8.13015 3.48574 -1.26136e-18)
(8.28176 3.18817 6.94552e-19)
(8.41996 2.88308 -6.41549e-19)
(8.54434 2.57115 -7.05299e-19)
(8.65454 2.25304 0)
(8.75031 1.9295 3.72107e-19)
(8.83144 1.60111 -1.68933e-20)
(8.89756 1.26875 -3.45417e-19)
(8.94843 0.933149 -1.67554e-20)
(8.98395 0.595049 -8.69506e-20)
(9.00396 0.255225 1.74274e-19)
(5.99436 5.4368 0)
(6.23293 5.24331 1.08375e-18)
(6.46355 5.03839 1.61487e-20)
(6.68551 4.82231 -1.09987e-18)
(6.8982 4.59541 0)
(7.10106 4.35812 1.14424e-18)
(7.29359 4.11087 -1.09244e-18)
(7.47528 3.85412 -1.20941e-18)
(7.64566 3.58838 2.30037e-18)
(7.80427 3.31417 1.2413e-18)
(7.9507 3.03205 0)
(8.08454 2.74261 6.05432e-19)
(8.20542 2.44647 -4.38149e-21)
(8.313 2.14427 2.18484e-20)
(8.40689 1.83668 0)
(8.48694 1.52432 -5.95918e-19)
(8.553 1.20782 -3.12209e-19)
(8.60464 0.88798 4.56149e-19)
(8.64176 0.565533 3.07553e-19)
(8.66418 0.241184 -4.11107e-20)
(5.77264 5.16831 0)
(5.99995 4.98479 -9.3594e-19)
(6.21977 4.79043 0)
(6.43143 4.58545 -1.00981e-18)
(6.63434 4.37017 1.98807e-18)
(6.828 4.14494 -2.02749e-18)
(7.01191 3.91019 3.17268e-18)
(7.18562 3.66633 -3.16351e-18)
(7.34867 3.41384 -2.13737e-18)
(7.50064 3.1532 -1.5764e-18)
(7.64113 2.88495 5.40585e-19)
(7.76977 2.60964 -1.12075e-18)
(7.8862 2.32784 1.86326e-20)
(7.99009 2.04015 1.11407e-18)
(8.08116 1.74716 -2.80273e-19)
(8.15903 1.4496 1.14815e-18)
(8.22361 1.14795 -5.64696e-19)
(8.27473 0.842914 2.60161e-19)
(8.31213 0.535232 -1.48381e-19)
(8.33561 0.22557 0)
(5.57458 4.92689 0)
(5.79128 4.75183 1.81063e-18)
(6.00083 4.56649 8.78239e-19)
(6.20261 4.37106 -9.04048e-19)
(6.39607 4.16581 -1.85193e-18)
(6.58072 3.95107 2.81806e-18)
(6.75613 3.72723 1.12693e-20)
(6.92185 3.49468 -9.18518e-19)
(7.07748 3.25386 1.97201e-18)
(7.22261 3.00525 1.01849e-18)
(7.35688 2.74934 -9.51488e-19)
(7.47993 2.48665 4.99631e-19)
(7.59142 2.21772 2.25146e-20)
(7.69105 1.94312 -5.25748e-19)
(7.77854 1.66342 -2.5476e-19)
(7.8536 1.3792 5.10828e-19)
(7.916 1.09116 -2.56068e-19)
(7.96563 0.799793 -5.16739e-19)
(8.00232 0.505782 5.98757e-20)
(8.02583 0.209774 6.47487e-20)