/*--------------------------------*- C++ -*----------------------------------*\
| =========                 |                                                 |
| \\      /  F ield         | OpenFOAM: The Open Source CFD Toolbox           |
|  \\    /   O peration     | Version:  v1912                                 |
|   \\  /    A nd           | Website:  www.openfoam.com                      |
|    \\/     M anipulation  |                                                 |
\*---------------------------------------------------------------------------*/
FoamFile
{
    version     2.0;
    format      ascii;
    class       surfaceScalarField;
    location    "4.5";
    object      phi;
}
// * * * * * * * * * * * * * * * * * * * * * * * * * * * * * * * * * * * * * //

dimensions      [0 3 -1 0 0 0 0];
oriented        oriented;


internalField   nonuniform List<scalar> 
18940
(
8.42711e-05
-0.23934
0.239256
0.000394935
-0.224408
0.224098
0.000864819
-0.212124
0.211654
0.00143699
-0.201582
0.20101
0.00206506
-0.192136
0.191508
0.00271366
-0.183367
0.182718
0.00335793
-0.175047
0.174403
0.00398201
-0.167069
0.166445
0.00457711
-0.15939
0.158795
0.00513956
-0.151999
0.151437
0.00566933
-0.144904
0.144375
0.00616885
-0.138116
0.137616
0.00664212
-0.131643
0.13117
0.00709411
-0.12549
0.125038
0.0075302
-0.119655
0.119218
0.00795566
-0.114128
0.113703
0.00837513
-0.108897
0.108478
0.00879192
-0.103942
0.103525
0.00920739
-0.0992392
0.0988237
-0.0947658
0.0943525
0.00962066
0.00010013
-0.23944
0.00041817
-0.224726
0.000894622
-0.2126
0.00147177
-0.202159
0.00210284
-0.192767
0.00275236
-0.184016
0.00339568
-0.175691
0.0040173
-0.167691
0.00460886
-0.159981
0.00516714
-0.152558
0.00569249
-0.14543
0.00618765
-0.138611
0.00665691
-0.132112
0.00710547
-0.125938
0.00753899
-0.120088
0.00796306
-0.114552
0.00838269
-0.109317
0.00880162
-0.104361
0.00922168
-0.0996593
-0.0951865
0.00964238
0.000114636
-0.239555
0.000440055
-0.225052
0.000922496
-0.213083
0.00150456
-0.202741
0.00213857
-0.193401
0.0027888
-0.184667
0.0034308
-0.176333
0.00404951
-0.16831
0.00463706
-0.160569
0.00519072
-0.153111
0.00571125
-0.14595
0.00620171
-0.139102
0.00666665
-0.132577
0.00711153
-0.126383
0.00754225
-0.120519
0.00796472
-0.114975
0.00838433
-0.109736
0.00880527
-0.104782
0.00922983
-0.100084
-0.0956147
0.00965799
0.000122303
-0.239677
0.00045683
-0.225386
0.000946866
-0.213573
0.00153448
-0.203329
0.00217149
-0.194038
0.00282214
-0.185317
0.00346235
-0.176973
0.00407761
-0.168925
0.00466062
-0.161152
0.00520915
-0.15366
0.0057244
-0.146466
0.00620976
-0.139587
0.00667005
-0.133038
0.00711092
-0.126824
0.00753855
-0.120946
0.00795914
-0.115396
0.00837849
-0.110156
0.00880126
-0.105204
0.00923024
-0.100513
-0.0960503
0.00966587
0.000128405
-0.239806
0.000471494
-0.225729
0.000969078
-0.21407
0.00156201
-0.203922
0.0022016
-0.194678
0.00285213
-0.185968
0.00348993
-0.177611
0.00410106
-0.169536
0.00467886
-0.16173
0.00522164
-0.154203
0.00573104
-0.146975
0.0062108
-0.140067
0.00666596
-0.133493
0.00710241
-0.127261
0.00752653
-0.12137
0.00794486
-0.115814
0.00836359
-0.110574
0.00878792
-0.105629
0.00922119
-0.100946
-0.0964934
0.00966435
0.000133317
-0.239939
0.000484302
-0.22608
0.000989174
-0.214575
0.00158707
-0.20452
0.0022287
-0.19532
0.00287841
-0.186617
0.00351302
-0.178245
0.00411924
-0.170142
0.00469105
-0.162301
0.00522733
-0.154739
0.0057302
-0.147478
0.00620371
-0.14054
0.00665315
-0.133942
0.00708461
-0.127692
0.00750469
-0.121791
0.00792022
-0.116229
0.00833784
-0.110992
0.00876331
-0.106054
0.00920063
-0.101383
-0.0969442
0.00965135
0.000137625
-0.240076
0.000495884
-0.226439
0.00100754
-0.215087
0.0016098
-0.205122
0.00225271
-0.195963
0.00290075
-0.187266
0.00353125
-0.178876
0.00413162
-0.170743
0.00469651
-0.162866
0.00522542
-0.155268
0.00572092
-0.147973
0.0061874
-0.141007
0.00663038
-0.134385
0.00705613
-0.128118
0.00747143
-0.122206
0.00788342
-0.116641
0.00829921
-0.111408
0.00872518
-0.10648
0.00916606
-0.101824
-0.0974022
0.00962413
0.000141463
-0.240218
0.000506456
-0.226804
0.00102432
-0.215605
0.00163022
-0.205728
0.00227353
-0.196606
0.00291891
-0.187911
0.00354426
-0.179501
0.00413772
-0.171336
0.00469464
-0.163423
0.00521516
-0.155788
0.00570229
-0.14846
0.00616079
-0.141465
0.00659638
-0.134821
0.00701548
-0.128537
0.00742503
-0.122615
0.00783249
-0.117049
0.00824543
-0.111821
0.00867092
-0.106906
0.00911456
-0.102268
-0.0978671
0.00957944
0.000144917
-0.240363
0.000516182
-0.227175
0.00103969
-0.216128
0.00164842
-0.206336
0.00229114
-0.197249
0.00293274
-0.188552
0.00355177
-0.18012
0.00413713
-0.171922
0.00468491
-0.163971
0.00519585
-0.156299
0.00567347
-0.148938
0.00612285
-0.141915
0.00654991
-0.135248
0.00696118
-0.128948
0.00736376
-0.123018
0.00776535
-0.11745
0.00817403
-0.11223
0.00859766
-0.107329
0.0090428
-0.102713
-0.0983378
0.00951351
0.000148024
-0.240511
0.000525184
-0.227552
0.00105378
-0.216657
0.00166448
-0.206947
0.00230552
-0.19789
0.00294215
-0.189189
0.00355361
-0.180732
0.00412958
-0.172497
0.0046669
-0.164508
0.00516695
-0.156799
0.00563373
-0.149405
0.00607265
-0.142353
0.0064898
-0.135665
0.0068918
-0.12935
0.00728584
-0.123412
0.00767986
-0.117844
0.00808244
-0.112632
0.00850228
-0.107749
0.0089471
-0.103158
-0.0988128
0.0094221
0.000150835
-0.240662
0.000533609
-0.227935
0.00106679
-0.21719
0.00167855
-0.207559
0.00231677
-0.198528
0.00294716
-0.18982
0.00354971
-0.181334
0.0041149
-0.173063
0.00464035
-0.165034
0.00512806
-0.157287
0.00558252
-0.149859
0.00600944
-0.14278
0.00641506
-0.136071
0.00680606
-0.129741
0.00718965
-0.123796
0.00757393
-0.118229
0.00796801
-0.113026
0.00838152
-0.108163
0.0088235
-0.1036
-0.0992899
0.00930058
0.000153415
-0.240815
0.000541658
-0.228323
0.00107893
-0.217727
0.00169084
-0.208171
0.00232507
-0.199162
0.00294791
-0.190442
0.00354015
-0.181926
0.00409313
-0.173616
0.00460521
-0.165546
0.00507902
-0.157761
0.00551953
-0.1503
0.00593272
-0.143194
0.00632496
-0.136463
0.00670291
-0.130119
0.00707375
-0.124166
0.00744567
-0.118601
0.00782823
-0.113409
0.00823208
-0.108566
0.00866787
-0.104036
-0.099766
0.00914403
0.000155945
-0.240971
0.000549502
-0.228717
0.00109056
-0.218268
0.00170173
-0.208782
0.00233074
-0.199791
0.00294466
-0.191056
0.00352518
-0.182507
0.00406447
-0.174155
0.00456165
-0.166043
0.00501996
-0.158219
0.00544477
-0.150725
0.00584235
-0.143591
0.00621914
-0.13684
0.00658172
-0.130482
0.00693711
-0.124522
0.00729348
-0.118957
0.00766077
-0.113776
0.00805071
-0.108956
0.00847587
-0.104461
-0.100237
0.00894691
0.000158964
-0.24113
0.000558308
-0.229116
0.00110244
-0.218812
0.00171174
-0.209391
0.00233422
-0.200414
0.00293784
-0.19166
0.00350521
-0.183074
0.00402937
-0.174679
0.00451014
-0.166524
0.00495133
-0.15866
0.0053587
-0.151132
0.00573871
-0.143971
0.00609781
-0.137199
0.0064424
-0.130826
0.00677922
-0.124859
0.00711624
-0.119294
0.00746358
-0.114123
0.00783404
-0.109327
0.00824236
-0.104869
-0.100697
0.00870207
0.000163306
-0.241293
0.000569637
-0.229522
0.00111542
-0.219358
0.00172142
-0.209997
0.002336
-0.201028
0.00292795
-0.192252
0.00348082
-0.183627
0.00398848
-0.175187
0.00445145
-0.166987
0.00487404
-0.159083
0.00526232
-0.15152
0.00562285
-0.144332
0.00596201
-0.137538
0.00628588
-0.13115
0.00660071
-0.125174
0.00691395
-0.119607
0.00723557
-0.114445
0.00757923
-0.10967
0.007962
-0.105252
-0.101136
0.00840147
0.000169862
-0.241463
0.000583305
-0.229936
0.00112992
-0.219905
0.00173127
-0.210599
0.00233661
-0.201634
0.00291559
-0.192831
0.00345271
-0.184164
0.00394267
-0.175677
0.00438665
-0.167431
0.0047894
-0.159486
0.00515721
-0.151888
0.00549666
-0.144671
0.00581391
-0.137855
0.00611456
-0.131451
0.00640411
-0.125463
0.00668906
-0.119892
0.00697866
-0.114735
0.00728685
-0.109979
0.00763349
-0.105599
-0.101545
0.008042
0.000179853
-0.241643
0.000600552
-0.230356
0.00114661
-0.220451
0.00174199
-0.211194
0.00233677
-0.202228
0.0029015
-0.193396
0.00342171
-0.184684
0.00389296
-0.176148
0.00431705
-0.167855
0.00469909
-0.159868
0.0050455
-0.152235
0.00536274
-0.144988
0.00565664
-0.138149
0.00593215
-0.131726
0.00619376
-0.125725
0.00644662
-0.120145
0.0066985
-0.114986
0.00696264
-0.110243
0.00726164
-0.105898
-0.101909
0.00762585
0.000195685
-0.241839
0.000623856
-0.230785
0.00116761
-0.220995
0.00175493
-0.211781
0.00233729
-0.202811
0.00288629
-0.193945
0.00338849
-0.185187
0.00384029
-0.1766
0.00424401
-0.168259
0.00460504
-0.160229
0.00492979
-0.152559
0.00522445
-0.145283
0.00549426
-0.138419
0.00574326
-0.131975
0.00597457
-0.125956
0.00619151
-0.120362
0.00639951
-0.115194
0.00660869
-0.110452
0.00684067
-0.10613
-0.102203
0.00713461
0.000225386
-0.242064
0.000661437
-0.231221
0.00119706
-0.22153
0.00177118
-0.212355
0.00233821
-0.203378
0.0028699
-0.194476
0.00335326
-0.18567
0.00378529
-0.177032
0.0041688
-0.168642
0.00450937
-0.160569
0.00481335
-0.152863
0.00508652
-0.145556
0.00533327
-0.138666
0.00555622
-0.132198
0.00575623
-0.126156
0.00593322
-0.120539
0.00608717
-0.115348
0.00621915
-0.110584
0.00634242
-0.106253
-0.102381
0.00652028
0.000288524
-0.242353
0.000725627
-0.231658
0.00123352
-0.222038
0.00178802
-0.21291
0.00233763
-0.203927
0.00285128
-0.19499
0.00331561
-0.186134
0.00372815
-0.177444
0.00409223
-0.169006
0.00441381
-0.160891
0.00469935
-0.153149
0.00495448
-0.145811
0.00518303
-0.138894
0.00538643
-0.132402
0.00556317
-0.126333
0.00570819
-0.120684
0.00581139
-0.115452
0.00585447
-0.110627
0.0058206
-0.106219
-0.102383
0.00582319
0.245713
0.000226225
-0.245939
0.245516
0.000196628
0.245331
0.000185305
0.245149
0.000181553
0.244968
0.000181258
0.244786
0.000182072
0.244602
0.000183715
0.244417
0.000185414
0.24423
0.00018671
0.244043
0.000187445
0.243855
0.000187547
0.243668
0.000186988
0.243482
0.000185728
0.243299
0.000183706
0.243118
0.000180743
0.242941
0.000176555
0.242771
0.000170015
0.242611
0.000160662
0.242471
0.00013985
0.000118143
0.238619
0.000494945
-0.238888
0.238325
0.000490514
0.238017
0.000493753
0.237695
0.000502899
0.237362
0.000514687
0.237018
0.000525871
0.236664
0.000538097
0.2363
0.000549244
0.235928
0.000558784
0.235549
0.000566596
0.235164
0.000572563
0.234774
0.000576612
0.234381
0.000578678
0.233986
0.000578669
0.233591
0.000576324
0.233196
0.00057128
0.232804
0.000561953
0.232417
0.000547189
0.232034
0.000523233
0.000494368
0.230228
0.000724945
-0.230458
0.22996
0.000758933
0.229661
0.000792678
0.229336
0.000827847
0.228987
0.000863547
0.228616
0.000897179
0.228225
0.000928813
0.227817
0.000957829
0.227392
0.000983774
0.226952
0.00100643
0.226499
0.00102567
0.226034
0.00104141
0.225559
0.00105357
0.225075
0.00106208
0.224585
0.00106673
0.224089
0.00106731
0.223588
0.00106306
0.223081
0.00105411
0.222565
0.00103893
0.00102158
0.220871
0.000878883
-0.221025
0.220676
0.000954253
0.220444
0.00102511
0.220178
0.00109367
0.219881
0.00116047
0.219555
0.00122335
0.219201
0.00128203
0.218823
0.00133625
0.218421
0.00138566
0.217998
0.00143001
0.217554
0.00146917
0.217092
0.00150305
0.216614
0.00153162
0.216122
0.00155488
0.215616
0.00157283
0.215097
0.00158552
0.214568
0.00159284
0.214026
0.00159521
0.213473
0.00159212
0.0015849
0.210966
0.000948155
-0.211035
0.210855
0.00106506
0.210705
0.00117533
0.210518
0.00128076
0.210296
0.00138232
0.210041
0.00147833
0.209754
0.00156841
0.209438
0.00165229
0.209094
0.00172963
0.208724
0.00180016
0.20833
0.00186373
0.207912
0.00192027
0.207474
0.0019698
0.207017
0.00201242
0.206541
0.00204828
0.206049
0.00207767
0.205541
0.00210082
0.205018
0.0021183
0.20448
0.00213022
0.0021375
0.200874
0.000940893
-0.200867
0.20084
0.00109864
0.200767
0.00124856
0.200656
0.00139193
0.200509
0.00152965
0.200327
0.00166039
0.200111
0.00178373
0.199864
0.0018993
0.199587
0.00200672
0.199282
0.00210571
0.198949
0.0021961
0.198592
0.0022778
0.198211
0.00235086
0.197808
0.00241547
0.197384
0.00247191
0.196941
0.00252065
0.19648
0.00256221
0.196001
0.0025974
0.195504
0.00262682
0.00265155
0.190898
0.000873273
-0.190831
0.190927
0.00107058
0.190916
0.00125926
0.190868
0.00144015
0.190783
0.00161394
0.190664
0.0017795
0.190512
0.00193634
0.190327
0.00208401
0.190112
0.00222207
0.189867
0.00235019
0.189595
0.00246817
0.189297
0.00257589
0.188974
0.00267342
0.188629
0.00276099
0.188262
0.00283902
0.187874
0.00290814
0.187467
0.00296916
0.187042
0.00302316
0.186597
0.00307114
0.00311439
0.181254
0.000762977
-0.181144
0.181326
0.000998165
0.181361
0.00122417
0.18136
0.00144144
0.181324
0.00165036
0.181253
0.00184994
0.18115
0.00203962
0.181015
0.00221884
0.18085
0.00238709
0.180656
0.00254399
0.180435
0.00268925
0.180188
0.00282273
0.179917
0.0029445
0.179623
0.0030548
0.179308
0.00315418
0.178973
0.00324343
0.178619
0.00332362
0.178246
0.00339617
0.177854
0.00346249
0.00352418
0.172073
0.000625696
-0.171935
0.172174
0.000897083
0.172239
0.00115884
0.172269
0.00141104
0.172266
0.00165384
0.17223
0.00188627
0.172161
0.00210768
0.172063
0.00231743
0.171935
0.0025149
0.171779
0.00269963
0.171597
0.00287126
0.171391
0.00302958
0.17116
0.00317462
0.170909
0.00330666
0.170636
0.00342628
0.170345
0.00353446
0.170037
0.00363256
0.16971
0.00372237
0.169367
0.00380582
0.00388501
0.163424
0.000474126
-0.163273
0.163541
0.00078005
0.163624
0.00107611
0.163673
0.00136187
0.16369
0.00163725
0.163675
0.00190128
0.163629
0.00215323
0.163554
0.00239232
0.163451
0.00261786
0.163322
0.00282926
0.163167
0.00302607
0.162988
0.00320799
0.162788
0.00337499
0.162567
0.00352729
0.162328
0.00366554
0.162072
0.00379086
0.161799
0.00390489
0.161512
0.0040099
0.161209
0.00410848
0.00420343
0.155335
0.000316811
-0.155177
0.155458
0.000656889
0.155548
0.000985995
0.155606
0.00130406
0.155632
0.00161086
0.155628
0.00190538
0.155595
0.00218673
0.155533
0.00245404
0.155444
0.0027065
0.15533
0.00294342
0.155192
0.00316419
0.155032
0.00336842
0.154851
0.00355591
0.154651
0.00372685
0.154435
0.00388185
0.154203
0.00402213
0.153959
0.00414964
0.153701
0.00426714
0.153432
0.00437815
0.00448646
0.147802
0.00016059
-0.147646
0.147924
0.000534698
0.148015
0.000895725
0.148073
0.00124511
0.148102
0.00158241
0.148101
0.00190647
0.148071
0.00221628
0.148014
0.00251086
0.147932
0.00278928
0.147824
0.00305068
0.147694
0.00329433
0.147543
0.00351963
0.147373
0.00372624
0.147185
0.00391418
0.146983
0.00408397
0.146769
0.00423683
0.146543
0.00437498
0.146309
0.0045017
0.146065
0.00462175
0.0047402
0.140807
9.48083e-06
-0.140656
0.140923
0.000418516
0.141009
0.000810146
0.141064
0.00119024
0.141089
0.00155737
0.141085
0.00191028
0.141053
0.00224786
0.140995
0.00256899
0.140912
0.0028726
0.140805
0.00315767
0.140676
0.00342327
0.140527
0.00366861
0.14036
0.00389312
0.140178
0.00409655
0.139982
0.0042792
0.139777
0.00444217
0.139564
0.00458781
0.139346
0.00471992
0.139123
0.00484482
0.00496912
0.134319
-0.000128399
-0.134181
0.134429
0.000308844
0.134506
0.000732439
0.134554
0.00114283
0.134572
0.00153939
0.134561
0.00192076
0.134523
0.00228565
0.13446
0.00263282
0.134371
0.00296106
0.13426
0.00326918
0.134127
0.00355605
0.133975
0.00382062
0.133806
0.004062
0.133623
0.00427961
0.133429
0.00447332
0.133227
0.00464394
0.133021
0.00479368
0.132814
0.00492667
0.132608
0.00505122
0.00517542
0.128311
-0.000257367
-0.128182
0.128411
0.000209727
0.128478
0.00066454
0.128516
0.0011051
0.128525
0.00153089
0.128505
0.00194045
0.128458
0.00233235
0.128386
0.00270523
0.128289
0.00305771
0.12817
0.00338844
0.12803
0.00369606
0.127871
0.00397924
0.127697
0.00423671
0.127509
0.0044674
0.127312
0.00467061
0.127109
0.00484652
0.126906
0.00499675
0.126707
0.00512536
0.126516
0.00524289
0.00535826
0.12275
-0.000376202
-0.122631
0.122838
0.000121549
0.122895
0.000607501
0.122922
0.00107814
0.12292
0.00153309
0.122889
0.00197071
0.122832
0.00238942
0.12275
0.00278774
0.122643
0.00316417
0.122515
0.00351716
0.122365
0.00384513
0.122198
0.00414643
0.122016
0.00441938
0.121821
0.00466232
0.121618
0.00487371
0.121411
0.00505279
0.121208
0.00519991
0.121015
0.00531823
0.120838
0.00542002
0.00551234
0.117602
-0.00048424
-0.117494
0.11768
4.42016e-05
0.117726
0.000561541
0.117742
0.00106217
0.117728
0.00154627
0.117687
0.0020118
0.11762
0.0024571
0.117527
0.00288058
0.11741
0.00328062
0.117272
0.0036555
0.117114
0.00400341
0.116938
0.00432241
0.116747
0.00461035
0.116544
0.00486491
0.116334
0.0050835
0.116123
0.00526395
0.115919
0.00540459
0.11573
0.00550657
0.115567
0.00558291
0.00562812
0.112842
-0.000582005
-0.112744
0.112908
-2.2191e-05
0.112944
0.000525779
0.112949
0.00105652
0.112926
0.00156963
0.112875
0.0020628
0.112798
0.00253428
0.112696
0.00298245
0.112571
0.00340558
0.112425
0.00380179
0.112259
0.00416908
0.112076
0.00450522
0.111879
0.00480765
0.111671
0.00507333
0.111456
0.00529851
0.11124
0.00547905
0.111035
0.00561033
0.110852
0.00568923
0.110702
0.00573252
0.0057035
0.108439
-0.000670591
-0.108351
0.108496
-7.88386e-05
0.108523
0.000498547
0.108521
0.00105928
0.108489
0.00160099
0.108431
0.00212115
0.108347
0.00261805
0.108239
0.00309007
0.10811
0.00353537
0.107959
0.00395199
0.107791
0.00433774
0.107606
0.00469019
0.107407
0.0050064
0.107198
0.0052827
0.106982
0.00551427
0.106767
0.00569449
0.106562
0.00581521
0.106389
0.00586207
0.106263
0.00585791
0.00574799
0.104368
-0.104287
-0.000751009
0.104418
-0.000129157
0.104439
0.000477564
0.104431
0.00106737
0.104395
0.00163678
0.104333
0.00218272
0.104248
0.0027037
0.10414
0.00319815
0.104011
0.00366417
0.103863
0.00409969
0.103698
0.00450245
0.103519
0.00486986
0.103326
0.00519878
0.103124
0.00548506
0.102915
0.00572309
0.102706
0.00590406
0.102504
0.00601704
0.102335
0.00603104
0.102235
0.00595743
0.00559996
0.246982
4.26694e-05
-0.247025
0.246986
-3.82372e-06
0.247003
-1.77866e-05
0.247022
-1.82287e-05
0.247034
-1.20506e-05
0.247037
-2.82904e-06
0.247028
8.41444e-06
0.247007
2.0726e-05
0.246974
3.33667e-05
0.246928
4.59268e-05
0.24687
5.81672e-05
0.2468
7.0144e-05
0.246718
8.183e-05
0.246625
9.2712e-05
0.246523
0.000102427
0.246412
0.000110979
0.246294
0.000117769
0.246172
0.000122384
0.246053
0.000119036
0.000113726
0.238983
-0.000212488
-0.238728
0.239201
-0.000221555
0.239396
-0.000212719
0.239568
-0.000190615
0.239717
-0.000160781
0.239841
-0.000127181
0.23994
-9.07216e-05
0.240013
-5.23761e-05
0.24006
-1.32311e-05
0.24008
2.57071e-05
0.240074
6.40028e-05
0.240041
0.00010321
0.239981
0.000142553
0.239894
0.000179571
0.239782
0.000214068
0.239647
0.000246328
0.239489
0.000275555
0.23931
0.000301236
0.239109
0.000319814
0.000335405
0.228389
-0.000685174
-0.227916
0.228813
-0.000645898
0.229199
-0.000598526
0.22955
-0.000541931
0.229867
-0.000478157
0.230151
-0.000410374
0.230399
-0.00033945
0.230613
-0.000266116
0.230791
-0.000191296
0.230933
-0.000116642
0.231045
-4.72328e-05
0.231121
2.74105e-05
0.231157
0.000106336
0.231158
0.00017831
0.231125
0.000247002
0.231058
0.000313276
0.230958
0.000375917
0.230825
0.000434388
0.230658
0.000486867
0.000534658
0.216682
-0.00130642
-0.216061
0.217261
-0.00122419
0.217799
-0.00113688
0.2183
-0.00104276
0.218763
-0.000941817
0.219189
-0.000836324
0.219577
-0.000727239
0.219926
-0.00061543
0.220237
-0.000501984
0.220509
-0.000388179
0.220736
-0.000274945
0.220924
-0.000160148
0.221073
-4.28124e-05
0.221184
6.76365e-05
0.221256
0.000174552
0.221288
0.000281211
0.221281
0.000383172
0.221235
0.000480559
0.221149
0.000572389
0.000658642
0.204788
-0.00202531
-0.204069
0.20547
-0.00190581
0.206114
-0.00178118
0.206722
-0.00165023
0.207292
-0.00151228
0.207825
-0.00136895
0.208319
-0.00122128
0.208774
-0.00107023
0.209188
-0.000916824
0.209562
-0.000761958
0.209894
-0.000606362
0.210184
-0.000450319
0.210435
-0.000294327
0.210644
-0.000141267
0.210815
3.5366e-06
0.210941
0.000154895
0.211027
0.000297891
0.211071
0.000436633
0.211073
0.000569809
0.000696981
0.193226
-0.00280225
-0.192449
0.19397
-0.00264992
0.19468
-0.00249115
0.195355
-0.00232537
0.195995
-0.00215194
0.196598
-0.00197212
0.197163
-0.00178699
0.197691
-0.00159762
0.198179
-0.00140508
0.198627
-0.00121035
0.199036
-0.00101442
0.199403
-0.000818109
0.199731
-0.000622207
0.200018
-0.000428178
0.200259
-0.000237434
0.200465
-5.13806e-05
0.200628
0.000135273
0.200749
0.000315646
0.200828
0.000490292
0.000658762
0.182277
-0.00360833
-0.18147
0.183053
-0.00342652
0.183798
-0.00323649
0.184511
-0.00303813
0.18519
-0.00283107
0.185835
-0.00261649
0.186443
-0.00239555
0.187015
-0.00216946
0.187549
-0.00193942
0.188046
-0.00170655
0.188503
-0.00147194
0.188922
-0.00123658
0.189301
-0.00100139
0.18964
-0.000767473
0.189939
-0.00053614
0.190196
-0.000308086
0.190415
-8.4542e-05
0.190595
0.000136357
0.190733
0.00035203
0.000560858
0.172064
-0.00442414
-0.171248
0.172853
-0.00421544
0.173613
-0.00399655
0.174342
-0.00376758
0.17504
-0.00352858
0.175704
-0.0032808
0.176334
-0.0030256
0.176929
-0.00276436
0.177488
-0.0024984
0.178011
-0.00222899
0.178496
-0.00195728
0.178944
-0.00168439
0.179354
-0.00141135
0.179725
-0.00113924
0.180059
-0.000869235
0.180353
-0.000602131
0.180607
-0.000338789
0.180825
-8.1533e-05
0.181004
0.000172759
0.000421343
0.162614
-0.00523788
-0.1618
0.163403
-0.0050044
0.164165
-0.0047585
0.164898
-0.00450045
0.1656
-0.00423077
0.16627
-0.003951
0.166907
-0.00366274
0.16751
-0.00336757
0.168079
-0.00306698
0.168612
-0.00276234
0.16911
-0.00245493
0.169572
-0.00214593
0.169997
-0.00183647
0.170385
-0.00152765
0.170736
-0.00122059
0.171051
-0.000916232
0.171327
-0.000615437
0.171565
-0.000319187
0.17177
-3.23049e-05
0.000255954
0.153899
-0.00604345
-0.153093
0.154682
-0.00578704
0.155439
-0.00551556
0.156168
-0.00522942
0.156867
-0.00492983
0.157534
-0.00461878
0.15817
-0.00429818
0.158772
-0.00396986
0.159341
-0.00363551
0.159875
-0.00329662
0.160375
-0.00295454
0.160839
-0.00261054
0.161269
-0.0022658
0.161662
-0.00192146
0.16202
-0.00157864
0.162343
-0.00123839
0.162629
-0.000901724
0.162879
-0.00056982
0.163091
-0.000244332
7.49074e-05
0.145867
-0.00683889
-0.145072
0.146642
-0.00656138
0.147391
-0.00626533
0.148114
-0.00595151
0.148806
-0.0056222
0.149467
-0.00528001
0.150096
-0.00492727
0.150693
-0.0045661
0.151255
-0.0041984
0.151785
-0.00382579
0.15228
-0.00344969
0.152741
-0.00307142
0.153167
-0.0026922
0.153559
-0.00231321
0.153916
-0.0019356
0.154238
-0.00156049
0.154525
-0.00118897
0.154777
-0.000822139
0.154994
-0.000461267
-0.000108191
0.138461
-0.00762513
-0.137674
0.139228
-0.00732863
0.139971
-0.00700852
0.140686
-0.00666667
0.141371
-0.00630711
0.142024
-0.00593327
0.142645
-0.00554796
0.143233
-0.00515372
0.143787
-0.00475266
0.144308
-0.00434648
0.144795
-0.00393666
0.145248
-0.00352454
0.145667
-0.00311136
0.146052
-0.0026983
0.146403
-0.00228657
0.14672
-0.0018773
0.147002
-0.00147164
0.147251
-0.00107073
0.147466
-0.000675813
-0.000288533
0.131622
-0.00840525
-0.130842
0.132385
-0.00809242
0.133125
-0.00774783
0.133835
-0.00737653
0.134513
-0.00698525
0.135158
-0.00657841
0.135769
-0.0061595
0.136347
-0.00573152
0.136891
-0.00529674
0.137402
-0.00485691
0.137879
-0.00441348
0.138322
-0.00396775
0.138731
-0.00352093
0.139107
-0.00307421
0.139449
-0.00262878
0.139758
-0.00218582
0.140033
-0.00174654
0.140274
-0.00131212
0.140482
-0.000883664
-0.000462318
0.125301
-0.00918413
-0.124522
0.126066
-0.00885808
0.126806
-0.00848687
0.127512
-0.00808302
0.128184
-0.00765731
0.128821
-0.00721528
0.129423
-0.00676127
0.12999
-0.00629868
0.130523
-0.00582981
0.131022
-0.00535627
0.131488
-0.00487934
0.131921
-0.00440021
0.13232
-0.00392002
0.132685
-0.0034399
0.133018
-0.00296105
0.133317
-0.00248469
0.133582
-0.00201204
0.133814
-0.0015444
0.134014
-0.00108303
-0.000629692
0.119456
-0.00996823
-0.118672
0.12023
-0.00963165
0.120971
-0.00922841
0.121675
-0.00878675
0.122341
-0.00832266
0.122968
-0.0078428
0.123559
-0.00735227
0.124115
-0.00685455
0.124637
-0.00635157
0.125125
-0.00584453
0.12558
-0.00533442
0.126002
-0.0048222
0.126391
-0.00430886
0.126747
-0.00379553
0.127069
-0.00328338
0.127358
-0.00277367
0.127613
-0.00226771
0.127836
-0.00176689
0.128026
-0.00127264
-0.000786605
0.114055
-0.0107658
-0.113257
0.114841
-0.0104176
0.115584
-0.00997212
0.116283
-0.00948546
0.116939
-0.00897869
0.117555
-0.00845895
0.118134
-0.0079315
0.118679
-0.00739908
0.11919
-0.00686268
0.119668
-0.00632282
0.120114
-0.00578003
0.120527
-0.00523502
0.120907
-0.00468869
0.121253
-0.00414212
0.121566
-0.00359654
0.121846
-0.00305329
0.122092
-0.0025138
0.122305
-0.00197955
0.122484
-0.00145211
-0.000933158
0.109065
-0.0115886
-0.108243
0.109864
-0.0112161
0.110604
-0.0107124
0.111293
-0.0101739
0.111936
-0.00962181
0.112539
-0.00906231
0.113107
-0.00849945
0.113642
-0.00793399
0.114145
-0.00736549
0.114616
-0.00679365
0.115054
-0.00621861
0.11546
-0.00564087
0.115833
-0.00506134
0.116172
-0.00448117
0.116477
-0.00390171
0.116748
-0.00332443
0.116985
-0.00275089
0.117188
-0.00218274
0.117358
-0.00162166
-0.00106952
0.104453
-0.0124589
-0.103583
0.105257
-0.01202
0.105984
-0.0114395
0.106658
-0.0108473
0.107287
-0.0102513
0.10788
-0.00965513
0.10844
-0.00906004
0.10897
-0.00846373
0.109469
-0.00786428
0.109936
-0.00726082
0.110371
-0.0066533
0.110772
-0.00604226
0.11114
-0.00542876
0.111473
-0.00481415
0.111771
-0.00419998
0.112034
-0.00358788
0.112263
-0.0029796
0.112457
-0.00237691
0.112617
-0.0017817
-0.00119604
0.100179
-0.0133853
-0.0992523
0.100962
-0.012803
0.101668
-0.0121459
0.102329
-0.0115086
0.102953
-0.0108748
0.103544
-0.0102463
0.104105
-0.00962137
0.104637
-0.00899501
0.105137
-0.00836427
0.105604
-0.00772816
0.106038
-0.00708682
0.106436
-0.00644105
0.1068
-0.00579221
0.107128
-0.00514192
0.10742
-0.00449196
0.107676
-0.00384416
0.107897
-0.00320039
0.108082
-0.0025626
0.108233
-0.00193282
-0.00131345
0.0961623
-0.0953829
-0.0141647
0.0968842
-0.0135249
0.0975987
-0.0128604
0.0982719
-0.0121817
0.0989093
-0.0115123
0.099514
-0.0108511
0.100086
-0.0101935
0.100625
-0.00953399
0.10113
-0.00886907
0.101599
-0.00819759
0.102032
-0.00751995
0.102429
-0.00683735
0.102788
-0.00615144
0.10311
-0.00546411
0.103396
-0.00477734
0.103645
-0.00409311
0.103858
-0.00341341
0.104035
-0.00274023
0.104178
-0.00207571
-0.00142251
0.0145564
0.078613
-0.0778377
-0.0153317
0.0138006
0.0829401
-0.0821843
0.0130582
0.0875244
-0.086782
0.0123223
0.0923774
-0.0916415
0.0115862
0.0975145
-0.0967783
0.0108437
0.102957
-0.102214
0.0100894
0.108734
-0.10798
0.00931882
0.11489
-0.114119
0.00852802
0.121479
-0.120688
0.00771397
0.12857
-0.127756
0.00687443
0.136251
-0.135411
0.00600829
0.144622
-0.143755
0.00511635
0.153798
-0.152907
0.00420282
0.163906
-0.162993
0.00327792
0.175065
-0.17414
0.0023621
0.187359
-0.186443
0.00149262
0.200787
-0.199917
0.000733176
0.215167
-0.214408
0.000176156
0.229894
-0.229337
0.243613
-0.243436
0.0148131
0.079411
-0.0156112
0.0140351
0.0837182
0.0132711
0.0882884
0.0125144
0.0931341
0.0117585
0.0982704
0.0109972
0.103718
0.010225
0.109506
0.0094371
0.115678
0.00862965
0.122286
0.00779947
0.129401
0.00694434
0.137106
0.00606333
0.145503
0.00515761
0.154704
0.00423199
0.164832
0.00329764
0.175999
0.00237629
0.18828
0.00150649
0.201656
0.000751398
0.215922
0.000207258
0.230438
0.24382
0.0150374
0.0802296
-0.015856
0.0142393
0.0845164
0.0134556
0.0890721
0.0126801
0.0939096
0.0119062
0.0990443
0.0111277
0.104496
0.0103392
0.110295
0.00953579
0.116481
0.00871338
0.123108
0.00786878
0.130245
0.00699983
0.137975
0.00610574
0.146397
0.00518802
0.155622
0.00425204
0.165768
0.0033097
0.176941
0.0023836
0.189206
0.001513
0.202527
0.000760813
0.216674
0.000218473
0.23098
0.244038
0.0152293
0.0810664
-0.0160661
0.014413
0.0853327
0.0136118
0.0898733
0.0128193
0.0947021
0.0120292
0.0998344
0.0112354
0.10529
0.0104323
0.111098
0.00961496
0.117298
0.00877928
0.123944
0.00792199
0.131103
0.00704095
0.138856
0.00613552
0.147302
0.00520752
0.15655
0.00426275
0.166713
0.00331375
0.17789
0.00238376
0.190136
0.00151244
0.203398
0.000762166
0.217425
0.000221707
0.231521
0.24426
0.0153889
0.0819194
-0.016242
0.0145566
0.086165
0.0137396
0.0906902
0.012932
0.0955097
0.0121274
0.100639
0.0113198
0.106098
0.0105037
0.111914
0.00967415
0.118128
0.00882684
0.124791
0.00795853
0.131971
0.00706709
0.139748
0.00615202
0.148217
0.00521539
0.157487
0.00426343
0.167665
0.00330922
0.178845
0.00237661
0.191069
0.00150556
0.204269
0.000757944
0.218172
0.000220897
0.232058
0.244481
0.0155172
0.0827869
-0.0163847
0.0146704
0.0870118
0.0138394
0.0915212
0.0130182
0.096331
0.0122007
0.101457
0.0113809
0.106917
0.0105534
0.112742
0.00971311
0.118968
0.00885577
0.125649
0.00797808
0.132849
0.00707792
0.140648
0.00615492
0.14914
0.0052114
0.15843
0.00425399
0.168622
0.00329628
0.179802
0.00236269
0.192002
0.00149348
0.205139
0.00074997
0.218916
0.000217798
0.23259
0.244699
0.015615
0.0836674
-0.0164955
0.0147553
0.0878715
0.0139116
0.0923648
0.0130783
0.0971643
0.0122493
0.102286
0.0114188
0.107748
0.0105813
0.113579
0.00973176
0.119818
0.00886597
0.126515
0.00798052
0.133734
0.00707334
0.141555
0.00614416
0.150069
0.00519552
0.159379
0.00423445
0.169583
0.00327504
0.180762
0.00234222
0.192935
0.00147646
0.206004
0.000738628
0.219654
0.000212919
0.233116
0.244912
0.0156832
0.0845598
-0.0165755
0.0148117
0.088743
0.0139566
0.0932199
0.0131124
0.0980085
0.0122731
0.103125
0.0114332
0.108588
0.0105872
0.114425
0.00972998
0.120675
0.0088573
0.127387
0.00796574
0.134626
0.00705324
0.142467
0.00611965
0.151003
0.00516773
0.160331
0.00420486
0.170546
0.0032456
0.181721
0.00231535
0.193865
0.0014548
0.206865
0.000724332
0.220384
0.000206785
0.233633
0.245118
0.0157225
0.0854633
-0.0166261
0.01484
0.0896255
0.0139745
0.0940854
0.0131204
0.0988626
0.0122722
0.103973
0.0114242
0.109436
0.010571
0.115278
0.00970756
0.121538
0.00882957
0.128265
0.00793358
0.135522
0.00701753
0.143383
0.00608136
0.151939
0.00512804
0.161284
0.00416529
0.171509
0.00320811
0.182678
0.00228232
0.194791
0.0014288
0.207718
0.000707494
0.221105
0.00019977
0.234141
0.245318
0.0157335
0.0863779
-0.0166481
0.0148405
0.0905186
0.0139651
0.0949608
0.0131021
0.0997256
0.012246
0.104829
0.0113911
0.110291
0.0105322
0.116137
0.00966415
0.122407
0.00878251
0.129147
0.00788384
0.13642
0.00696606
0.144301
0.0060292
0.152876
0.00507643
0.162237
0.00411579
0.172469
0.0031627
0.183631
0.00224335
0.19571
0.00139877
0.208563
0.000688447