/*--------------------------------*- C++ -*----------------------------------*\
| =========                 |                                                 |
| \\      /  F ield         | OpenFOAM: The Open Source CFD Toolbox           |
|  \\    /   O peration     | Version:  v1912                                 |
|   \\  /    A nd           | Website:  www.openfoam.com                      |
|    \\/     M anipulation  |                                                 |
\*---------------------------------------------------------------------------*/
FoamFile
{
    version     2.0;
    format      ascii;
    class       volScalarField;
    location    "34";
    object      p;
}
// * * * * * * * * * * * * * * * * * * * * * * * * * * * * * * * * * * * * * //

dimensions      [0 2 -2 0 0 0 0];


internalField   nonuniform List<scalar> 
9600
(
-41.4375
-36.1704
-32.9413
-30.2019
-27.6949
-25.4272
-23.3702
-21.496
-19.7872
-18.2298
-16.8114
-15.5198
-14.3436
-13.272
-12.295
-11.403
-10.5877
-9.84101
-9.15551
-8.52899
-42.1927
-36.9082
-33.6434
-30.8614
-28.3095
-25.9979
-23.8998
-21.9881
-20.2456
-18.6585
-17.2138
-15.8992
-14.7029
-13.6136
-12.6208
-11.7147
-10.8867
-10.1284
-9.43186
-8.79615
-42.9496
-37.6421
-34.3401
-31.5153
-28.9184
-26.5628
-24.4235
-22.4744
-20.6985
-19.0818
-17.6113
-16.274
-15.0578
-13.9509
-12.9426
-12.0226
-11.1821
-10.4122
-9.70467
-9.05996
-43.7049
-38.3716
-35.031
-32.1627
-29.5204
-27.1207
-24.9403
-22.954
-21.1449
-19.499
-18.0029
-16.6433
-15.4075
-14.2834
-13.2598
-12.3262
-11.4733
-10.6919
-9.97353
-9.32008
-44.4558
-39.0952
-35.7151
-32.8027
-30.1147
-27.6707
-25.4493
-23.4259
-21.584
-19.9093
-18.388
-17.0064
-15.7515
-14.6105
-13.5719
-12.6249
-11.7598
-10.9672
-10.2381
-9.57626
-45.2002
-39.8114
-36.3912
-33.434
-30.7
-28.2118
-25.9495
-23.8894
-22.0149
-20.3118
-18.7658
-17.3628
-16.089
-14.9315
-13.8783
-12.9182
-12.0413
-11.2376
-10.498
-9.8282
-45.9363
-40.5189
-37.0581
-34.0556
-31.2754
-28.7429
-26.44
-24.3435
-22.437
-20.7059
-19.1357
-17.7116
-16.4195
-15.2459
-14.1785
-13.2057
-12.3172
-11.5028
-10.753
-10.0756
-46.6626
-41.2162
-37.7144
-34.6664
-31.8399
-29.2632
-26.9199
-24.7873
-22.8492
-21.0908
-19.4968
-18.0521
-16.7422
-15.553
-14.4718
-13.4867
-12.5871
-11.7622
-11.0026
-10.3183
-47.3777
-41.9021
-38.359
-35.2652
-32.3923
-29.7716
-27.3882
-25.22
-23.2508
-21.4655
-19.8484
-18.3837
-17.0565
-15.8522
-14.7576
-13.7606
-12.8504
-12.0155
-11.2464
-10.5558
-48.0803
-42.5753
-38.9907
-35.8509
-32.9316
-30.2672
-27.844
-25.6407
-23.641
-21.8294
-20.1896
-18.7056
-17.3615
-16.1426
-15.0352
-14.0268
-13.1064
-12.262
-11.484
-10.7877
-48.7695
-43.2347
-39.6086
-36.4225
-33.4569
-30.7489
-28.2865
-26.0486
-24.0189
-22.1816
-20.5198
-19.0168
-17.6565
-16.4235
-15.3037
-14.2846
-13.3544
-12.501
-11.7147
-11.0135
-49.4442
-43.8794
-40.2115
-36.9792
-33.9673
-31.2161
-28.7147
-26.4427
-24.3837
-22.5212
-20.838
-19.3167
-17.9406
-16.694
-15.5624
-14.5329
-13.5937
-12.7318
-11.9377
-11.2323
-50.1037
-44.5085
-40.7987
-37.5199
-34.4619
-31.6678
-29.1279
-26.8224
-24.7345
-22.8474
-21.1432
-19.6041
-18.2127
-16.953
-15.8101
-14.7708
-13.823
-12.9533
-12.1521
-11.4434
-50.7475
-45.1212
-41.3692
-38.0439
-34.94
-32.1032
-29.5254
-27.1868
-25.0707
-23.1595
-21.4348
-19.8782
-18.472
-17.1995
-16.0456
-14.997
-14.0412
-13.1643
-12.3568
-11.6461
-51.375
-45.7166
-41.9222
-38.5504
-35.4007
-32.5217
-29.9064
-27.5354
-25.3914
-23.4566
-21.7119
-20.1382
-18.7172
-17.4321
-16.2675
-15.2096
-14.2461
-13.3625
-12.5496
-11.8386
-51.9857
-46.294
-42.4571
-39.0388
-35.8435
-32.9227
-30.2705
-27.8675
-25.6963
-23.7382
-21.9737
-20.3831
-18.9476
-17.6499
-16.4745
-15.4074
-14.436
-13.5458
-12.7278
-12.0154
-52.5809
-46.8533
-42.9732
-39.5084
-36.2678
-33.3056
-30.617
-28.1827
-25.9847
-24.0038
-22.2197
-20.6123
-19.1622
-17.8519
-16.6655
-15.5893
-14.6105
-13.7142
-12.8902
-12.1733
-53.165
-47.3957
-43.4696
-39.9581
-36.6726
-33.6696
-30.9455
-28.4805
-26.2563
-24.253
-22.4495
-20.8249
-19.3598
-18.0362
-16.8383
-15.7528
-14.767
-13.8649
-13.036
-12.3235
-53.7401
-47.9205
-43.9449
-40.3868
-37.0575
-34.015
-31.2562
-28.7615
-26.5118
-24.4863
-22.6633
-21.0213
-19.5401
-18.2015
-16.9896
-15.8912
-14.8934
-13.9806
-13.1504
-12.4702
-54.2842
-48.4202
-44.398
-40.7952
-37.4239
-34.3433
-31.5509
-29.0273
-26.7528
-24.7057
-22.8636
-21.2039
-19.7058
-18.3504
-17.121
-16.003
-14.9816
-14.0433
-13.2022
-12.5282
-59.7132
-59.6818
-59.6128
-59.5207
-59.4049
-59.2628
-59.0939
-58.8988
-58.6779
-58.4319
-58.1613
-57.8666
-57.5485
-57.2077
-56.845
-56.4611
-56.0574
-55.6353
-55.1978
-54.748
-53.3677
-53.3651
-53.3295
-53.2664
-53.1767
-53.0597
-52.9158
-52.7455
-52.5498
-52.329
-52.0839
-51.8151
-51.5232
-51.2088
-50.8726
-50.5151
-50.1372
-49.7393
-49.3218
-48.8828
-48.7288
-48.7505
-48.7429
-48.7067
-48.6432
-48.5531
-48.4372
-48.296
-48.1302
-47.9403
-47.727
-47.4908
-47.2322
-46.9518
-46.6501
-46.3276
-45.9845
-45.6209
-45.2365
-44.8294
-44.5043
-44.5436
-44.5564
-44.5422
-44.5019
-44.4365
-44.3468
-44.2332
-44.0962
-43.9365
-43.7546
-43.551
-43.3261
-43.0806
-42.8146
-42.5287
-42.2228
-41.897
-41.551
-41.1839
-40.5989
-40.648
-40.6733
-40.6741
-40.6506
-40.6038
-40.5343
-40.4427
-40.3293
-40.1947
-40.0395
-39.864
-39.6689
-39.4543
-39.2209
-38.9686
-38.6978
-38.4082
-38.0998
-37.772
-37.092
-37.1453
-37.177
-37.1863
-37.1734
-37.139
-37.0836
-37.0078
-36.9119
-36.7965
-36.6621
-36.5091
-36.3381
-36.1493
-35.9431
-35.7198
-35.4795
-35.222
-34.9473
-34.6546
-33.9744
-34.0276
-34.0612
-34.0742
-34.0668
-34.0396
-33.9931
-33.9278
-33.8441
-33.7426
-33.6236
-33.4877
-33.3353
-33.1669
-32.9828
-32.7832
-32.5684
-32.3381
-32.0922
-31.8301
-31.2092
-31.2596
-31.2918
-31.3052
-31.2997
-31.276
-31.2345
-31.1757
-31.1
-31.0079
-30.8999
-30.7765
-30.6382
-30.4855
-30.3187
-30.1382
-29.9441
-29.7364
-29.5149
-29.2789
-28.7565
-28.8025
-28.8316
-28.8432
-28.8373
-28.8146
-28.7754
-28.7203
-28.6495
-28.5637
-28.4633
-28.349
-28.2211
-28.0803
-27.927
-27.7617
-27.5845
-27.3955
-27.1944
-26.9806
-26.5767
-26.6176
-26.6426
-26.6513
-26.6438
-26.6206
-26.5821
-26.5287
-26.4609
-26.3792
-26.2841
-26.1761
-26.056
-25.9243
-25.7815
-25.6282
-25.4648
-25.2914
-25.1076
-24.9129
-24.6327
-24.6683
-24.6889
-24.6943
-24.6846
-24.6601
-24.6213
-24.5686
-24.5025
-24.4234
-24.3319
-24.2286
-24.1142
-23.9894
-23.8549
-23.7114
-23.5593
-23.399
-23.2303
-23.0524
-22.8915
-22.922
-22.9385
-22.9405
-22.9283
-22.9022
-22.8627
-22.81
-22.7448
-22.6674
-22.5785
-22.4787
-22.3686
-22.2492
-22.1213
-21.9856
-21.843
-21.694
-21.5385
-21.3758
-21.325
-21.3509
-21.3634
-21.3622
-21.3476
-21.3199
-21.2794
-21.2266
-21.1618
-21.0856
-20.9986
-20.9013
-20.7947
-20.6794
-20.5567
-20.4274
-20.2928
-20.1536
-20.0101
-19.8616
-19.9093
-19.9311
-19.94
-19.936
-19.9192
-19.8899
-19.8485
-19.7954
-19.7309
-19.6556
-19.57
-19.4747
-19.3707
-19.2587
-19.14
-19.0159
-18.888
-18.7572
-18.6249
-18.4899
-18.6247
-18.6428
-18.6486
-18.642
-18.6232
-18.5926
-18.5504
-18.497
-18.4328
-18.3582
-18.2737
-18.18
-18.078
-17.9686
-17.853
-17.7329
-17.6103
-17.4867
-17.3648
-17.2432
-17.4546
-17.4694
-17.4723
-17.4635
-17.4431
-17.4113
-17.3684
-17.3148
-17.2508
-17.1768
-17.0933
-17.0009
-16.9004
-16.7928
-16.6795
-16.5622
-16.4435
-16.3257
-16.2133
-16.1048
-16.3853
-16.3971
-16.3976
-16.3868
-16.3648
-16.332
-16.2886
-16.2348
-16.1709
-16.0974
-16.0147
-15.9232
-15.8238
-15.7174
-15.6053
-15.4894
-15.373
-15.2589
-15.1545
-15.0578
-15.4048
-15.4142
-15.4128
-15.4005
-15.3775
-15.344
-15.3002
-15.2464
-15.1828
-15.1099
-15.0278
-14.9372
-14.8385
-14.7327
-14.6209
-14.5051
-14.389
-14.2763
-14.1789
-14.0912
-14.502
-14.51
-14.5076
-14.4948
-14.4718
-14.4386
-14.3956
-14.3428
-14.2806
-14.2093
-14.129
-14.0403
-13.9435
-13.8393
-13.7286
-13.613
-13.4961
-13.3831
-13.2925
-13.2188
-13.6717
-13.6765
-13.6715
-13.6569
-13.6328
-13.5992
-13.5564
-13.5046
-13.4439
-13.3745
-13.2966
-13.2106
-13.1167
-13.0152
-12.9067
-12.7922
-12.6735
-12.5559
-12.4588
-12.4093
-53.4487
-54.0214
-54.5571
-55.0779
-55.5809
-56.0601
-56.5127
-56.9376
-57.3338
-57.7006
-58.0372
-58.3431
-58.618
-58.8615
-59.0731
-59.2527
-59.4013
-59.52
-59.6108
-59.6755
-46.9697
-47.5478
-48.098
-48.6259
-49.1311
-49.6112
-50.0647
-50.491
-50.8894
-51.2592
-51.5999
-51.9113
-52.1936
-52.4474
-52.6706
-52.8627
-53.0243
-53.1557
-53.2575
-53.3284
-42.3309
-42.8968
-43.4392
-43.9583
-44.454
-44.9257
-45.3725
-45.7938
-46.189
-46.5573
-46.8978
-47.2104
-47.4946
-47.7493
-47.9757
-48.1739
-48.3438
-48.4849
-48.5971
-48.6787
-38.2125
-38.7533
-39.2745
-39.7742
-40.2518
-40.707
-41.1393
-41.548
-41.9324
-42.292
-42.6255
-42.9323
-43.2134
-43.4683
-43.6971
-43.8996
-44.0754
-44.2241
-44.3454
-44.4389
-34.54
-35.0509
-35.5448
-36.0191
-36.473
-36.9059
-37.3174
-37.7068
-38.0734
-38.4167
-38.7372
-39.0345
-39.3072
-39.5555
-39.7794
-39.9788
-40.1533
-40.3026
-40.4269
-40.5258
-31.3461
-31.8257
-32.2899
-32.7363
-33.1637
-33.5715
-33.9594
-34.3267
-34.673
-34.998
-35.3015
-35.5829
-35.8416
-36.0777
-36.2917
-36.4831
-36.6513
-36.7964
-36.9183
-37.017
-28.5783
-29.0272
-29.462
-29.8802
-30.2807
-30.6628
-31.0262
-31.3704
-31.6949
-31.9995
-32.2838
-32.5476
-32.7904
-33.0122
-33.2125
-33.3932
-33.5526
-33.6903
-33.8064
-33.9013
-26.1701
-26.5903
-26.9971
-27.3884
-27.763
-28.1203
-28.4598
-28.7812
-29.084
-29.368
-29.6329
-29.8786
-30.105
-30.3118
-30.4992
-30.6655
-30.8144
-30.9431
-31.0516
-31.1404
-24.0628
-24.4567
-24.8379
-25.2044
-25.5549
-25.889
-26.206
-26.5057
-26.7878
-27.0521
-27.2984
-27.5266
-27.7366
-27.9285
-28.102
-28.2572
-28.3929
-28.5116
-28.6118
-28.6935
-22.2063
-22.5766
-22.9347
-23.2787
-23.6073
-23.92
-24.2163
-24.496
-24.7588
-25.0047
-25.2336
-25.4453
-25.6399
-25.8173
-25.9775
-26.1203
-26.2457
-26.354
-26.4456
-26.5199
-20.5593
-20.9084
-21.2459
-21.5698
-21.8786
-22.1719
-22.4493
-22.7106
-22.9558
-23.1847
-23.3975
-23.594
-23.7743
-23.9384
-24.0862
-24.2176
-24.3328
-24.4317
-24.5149
-24.582
-19.0879
-19.4183
-19.7377
-20.0437
-20.3347
-20.6103
-20.8705
-21.1151
-21.3441
-21.5576
-21.7557
-21.9383
-22.1056
-22.2574
-22.3939
-22.515
-22.6207
-22.7113
-22.7863
-22.8467
-17.7653
-18.0793
-18.383
-18.673
-18.948
-19.2076
-19.452
-19.6813
-19.8955
-20.0949
-20.2796
-20.4495
-20.6049
-20.7457
-20.872
-20.9836
-21.0807
-21.1633
-21.231
-21.2854
-16.5699
-16.8696
-17.1597
-17.4357
-17.6961
-17.941
-18.171
-18.3861
-18.5868
-18.7733
-18.9456
-19.1041
-19.2487
-19.3795
-19.4965
-19.5996
-19.689
-19.7647
-19.8269
-19.8747
-15.4846
-15.7721
-16.0508
-16.3142
-16.5611
-16.7924
-17.0089
-17.211
-17.399
-17.5736
-17.7347
-17.8827
-18.0175
-18.1392
-18.2478
-18.3433
-18.4257
-18.495
-18.5513
-18.5943
-14.4946
-14.7736
-15.0432
-15.2948
-15.5288
-15.7473
-15.9511
-16.1408
-16.3171
-16.4805
-16.6313
-16.7696
-16.8955
-17.0089
-17.11
-17.1985
-17.2746
-17.3382
-17.3894
-17.4281
-13.5824
-13.8603
-14.1248
-14.365
-14.5865
-14.7926
-14.9842
-15.1622
-15.3275
-15.4807
-15.622
-15.7515
-15.8693
-15.9753
-16.0695
-16.1518
-16.2223
-16.2808
-16.3275
-16.3622
-12.7272
-13.0094
-13.2751
-13.5061
-13.7156
-13.9102
-14.0906
-14.2582
-14.4138
-14.558
-14.6912
-14.8132
-14.9242
-15.0239
-15.1125
-15.1896
-15.2555
-15.3099
-15.3529
-15.3846
-11.9423
-12.2152
-12.4818
-12.7079
-12.9074
-13.0907
-13.2607
-13.4188
-13.5657
-13.7021
-13.8281
-13.9437
-14.0489
-14.1434
-14.2273
-14.3003
-14.3625
-14.4137
-14.454
-14.4835
-11.3535
-11.6038
-11.8311
-12.0473
-12.2352
-12.4007
-12.5543
-12.6982
-12.8319
-12.9558
-13.0703
-13.1753
-13.2706
-13.356
-13.4314
-13.4968
-13.5521
-13.5972
-13.6319
-13.6564
-5.97131
-6.46149
-6.99881
-7.58023
-8.21221
-8.90216
-9.65775
-10.4885
-11.4065
-12.4275
-13.572
-14.8668
-16.3473
-18.0596
-20.0639
-22.4392
-25.2667
-28.5684
-32.5635
-38.5574
-6.24091
-6.74453
-7.29228
-7.88567
-8.53132
-9.23633
-10.0085
-10.8576
-11.7961
-12.8398
-14.0097
-15.333
-16.8454
-18.5934
-20.6376
-23.0568
-25.9311
-29.2793
-33.3127
-39.3276
-6.51195
-7.02901
-7.58731
-8.19291
-8.85248
-9.57281
-10.3619
-11.2296
-12.1887
-13.2556
-14.4512
-15.8032
-17.3479
-19.1321
-21.2164
-23.6795
-26.6001
-29.9938
-34.0637
-40.0949
-6.78394
-7.31439
-7.88333
-8.50134
-9.17505
-9.91091
-10.717
-11.6036
-12.5837
-13.6738
-14.8953
-16.2764
-17.8536
-19.6741
-21.7987
-24.3056
-27.2724
-30.7113
-34.8188
-40.8711
-7.05645
-7.60021
-8.17985
-8.81048
-9.49854
-10.2501
-11.0735
-11.9791
-12.9803
-14.0938
-15.3415
-16.7518
-18.3616
-20.2185
-22.3834
-24.9342
-27.947
-31.4312
-35.577
-41.6536
-7.3291
-7.88604
-8.47646
-9.11992
-9.82251
-10.59
-11.4307
-12.3555
-13.378
-14.5151
-15.7891
-17.2287
-18.8713
-20.7648
-22.97
-25.5646
-28.6233
-32.1526
-36.3364
-42.4382
-7.60158
-8.17155
-8.77278
-9.42926
-10.1465
-10.93
-11.7883
-12.7324
-13.7762
-14.9371
-16.2375
-17.7065
-19.382
-21.312
-23.5577
-26.196
-29.3003
-32.8743
-37.0954
-43.2226
-7.87364
-8.45642
-9.0685
-9.73815
-10.4703
-11.2699
-12.1457
-13.1093
-14.1745
-15.3592
-16.686
-18.1846
-19.8929
-21.8595
-24.1455
-26.8274
-29.9771
-33.5953
-37.8529
-44.0054
-8.14513
-8.74047
-9.36337
-10.0463
-10.7934
-11.6092
-12.5027
-13.4857
-14.5723
-15.7807
-17.134
-18.6621
-20.4033
-22.4064
-24.7325
-27.4577
-30.6525
-34.3143
-38.6076
-44.7851
-8.416
-9.02359
-9.65723
-10.3536
-11.1156
-11.9476
-12.8587
-13.8611
-14.9692
-16.2013
-17.581
-19.1384
-20.9124
-22.9519
-25.318
-28.0861
-31.3254
-35.0303
-39.3582
-45.5602
-8.68637
-9.3058
-9.95002
-10.6598
-11.4368
-12.2849
-13.2135
-14.2352
-15.3645
-16.6202
-18.0261
-19.6128
-21.4194
-23.4951
-25.9008
-28.7115
-31.9947
-35.7419
-40.1034
-46.3293
-8.95652
-9.58727
-10.2418
-10.9649
-11.7567
-12.6207
-13.5667
-14.6074
-15.7578
-17.037
-18.4689
-20.0846
-21.9235
-24.035
-26.48
-29.3328
-32.6593
-36.4479
-40.8418
-47.0908
-9.22694
-9.8683
-10.5327
-11.2688
-12.0753
-12.9549
-13.9179
-14.9774
-16.1486
-17.4508
-18.9085
-20.553
-22.4239
-24.5709
-27.0547
-29.9489
-33.3179
-37.1472
-41.5722
-47.8435
-9.49834
-10.1493
-10.8228
-11.5716
-12.3922
-13.287
-14.2667
-15.3446
-16.5362
-17.8612
-19.3443
-21.017
-22.9196
-25.1016
-27.6237
-30.5587
-33.9695
-37.8385
-42.2933
-48.5861
-9.77148
-10.4306
-11.1122
-11.8729
-12.707
-13.6165
-14.6124
-15.7082
-16.9199
-18.2672
-19.7753
-21.476
-23.4097
-25.6262
-28.1859
-31.161
-34.6127
-38.5206
-43.0039
-49.3174
-10.0473
-10.7124
-11.4006
-12.1723
-13.0192
-13.9428
-14.9543
-16.0677
-17.2989
-18.6681
-20.2006
-21.9288
-23.8931
-26.1435
-28.7403
-31.7546
-35.2462
-39.192
-43.7028
-50.0365
-10.3256
-10.9935
-11.6864
-12.4683
-13.3276
-14.2648
-15.2915
-16.4218
-17.6722
-19.0628
-20.6194
-22.3744
-24.3688
-26.6525
-29.2854
-32.3381
-35.8687
-39.8516
-44.389
-50.7426
-10.6056
-11.2715
-11.9673
-12.7592
-13.6307
-14.5813
-15.6228
-16.7698
-18.0388
-19.4504
-21.0304
-22.8119
-24.8356
-27.1518
-29.8202
-32.9101
-36.4785
-40.4976
-45.0614
-51.4359
-10.88
-11.538
-12.237
-13.0414
-13.9265
-14.8906
-15.9468
-17.1103
-18.3976
-19.8297
-21.4327
-23.2399
-25.2923
-27.6402
-30.3429
-33.4691
-37.0741
-41.1283
-45.7186
-52.1178
-11.13
-11.773
-12.4912
-13.3161
-14.2155
-15.1925
-16.2631
-17.4426
-18.7478
-20.1998
-21.8252
-23.6574
-25.7378
-28.1165
-30.8524
-34.0133
-37.6531
-41.7404
-46.3562
-52.7898
-1.57045
-1.82482
-2.17324
-2.56286
-2.98232
-3.43701
-3.93327
-4.47705
-5.07587
-5.74002
-6.48345
-7.32521
-8.29141
-9.41808
-10.756
-12.3794
-14.3777
-16.8118
-19.9893
-25.3855
-1.72298
-1.9937
-2.36044
-2.7559
-3.1787
-3.63866
-4.14175
-4.69352
-5.30166
-5.97671
-6.73289
-7.58956
-8.57329
-9.7206
-11.0829
-12.7348
-14.7658
-17.2351
-20.4447
-25.8546
-1.86967
-2.16441
-2.54423
-2.94775
-3.37822
-3.84649
-4.35844
-4.91981
-5.53865
-6.22583
-6.99592
-7.86866
-8.87108
-10.0402
-11.428
-13.1094
-15.1739
-17.6784
-20.9193
-26.3377
-2.03853
-2.34405
-2.73201
-3.1442
-3.58381
-4.06154
-4.58345
-5.15554
-5.7862
-6.4866
-7.27166
-8.16152
-9.18367
-10.3757
-11.79
-13.502
-15.6008
-18.1419
-21.4174
-26.8533
-2.21865
-2.53122
-2.92697
-3.34806
-3.79709
-4.28474
-4.81724
-5.40086
-6.04421
-6.75876
-7.55974
-8.46769
-9.51057
-10.7265
-12.1684
-13.9121
-16.0465
-18.6256
-21.9383
-27.3982
-2.40424
-2.72537
-3.1294
-3.55954
-4.01828
-4.5163
-5.05999
-5.65583
-6.31263
-7.04214
-7.85992
-8.7869
-9.85151
-11.0924
-12.563
-14.3396
-16.5107
-19.1291
-22.4803
-27.9671
-2.5968
-2.92738
-3.3396
-3.77882
-4.24754
-4.75635
-5.31176
-5.92042
-6.59136
-7.33658
-8.17198
-9.11887
-10.2062
-11.473
-12.9734
-14.784
-16.9931
-19.6517
-23.0423
-28.5577
-2.79775
-3.13775
-3.55794
-4.00622
-4.48513
-5.00505
-5.5726
-6.19459
-6.88026
-7.64188
-8.49564
-9.46327
-10.5741
-11.8679
-13.3992
-15.2448
-17.493
-20.193
-23.6237
-29.1689
-3.00685
-3.35633
-3.78446
-4.24184
-4.73109
-5.26241
-5.84246
-6.47823
-7.17918
-7.95781
-8.83064
-9.81978
-10.9551
-12.2767
-13.8398
-15.7215
-18.0098
-20.7522
-24.2237
-29.7996
-3.22352
-3.58278
-4.01895
-4.48554
-4.98531
-5.52827
-6.12117
-6.77115
-7.48787
-8.28409
-9.17664
-10.188
-11.3485
-12.6989
-14.2948
-16.2136
-18.5429
-21.3286
-24.8416
-30.4488
-3.44732
-3.81676
-4.2611
-4.73703
-5.24752
-5.80241
-6.40849
-7.07309
-7.80606
-8.62041
-9.5333
-10.5676
-11.7541
-13.1341
-14.7636
-16.7204
-19.0917
-21.9215
-25.4765
-31.1154
-3.67788
-4.05788
-4.51055
-4.99597
-5.51741
-6.0845
-6.70409
-7.38369
-8.13336
-8.96637
-9.90019
-10.9581
-12.1713
-13.5817
-15.2457
-17.2413
-19.6555
-22.5301
-26.1275
-31.7984
-3.91473
-4.30566
-4.76685
-5.26195
-5.79458
-6.37414
-7.00757
-7.70256
-8.46937
-9.32154
-10.2768
-11.359
-12.5996
-14.0411
-15.7404
-17.7757
-20.2335
-23.1536
-26.7938
-32.4968
-4.15734
-4.55958
-5.02949
-5.53449
-6.07856
-6.67089
-7.31849
-8.02923
-8.81362
-9.68542
-10.6628
-11.7697
-13.0384
-14.5117
-16.2471
-18.3229
-20.825
-23.7912
-27.4746
-33.2097
-4.40518
-4.81908
-5.29795
-5.81308
-6.36886
-6.97426
-7.63634
-8.36321
-9.16558
-10.0575
-11.0574
-12.1897
-13.4871
-14.9929
-16.765
-18.882
-21.4292
-24.442
-28.1689
-33.9362
-4.65769
-5.08361
-5.57166
-6.09717
-6.66495
-7.2837
-7.9606
-8.70396
-9.52471
-10.4372
-11.4601
-12.6184
-13.9451
-15.484
-17.2936
-19.4524
-22.0452
-25.1053
-28.8759
-34.6756
-4.91433
-5.35259
-5.85004
-6.3862
-6.96625
-7.59866
-8.29071
-9.0509
-9.89041
-10.8238
-11.8703
-13.055
-14.4116
-15.9843
-17.8318
-20.0331
-22.6721
-25.78
-29.5949
-35.4273
-5.17454
-5.62542
-6.13252
-6.6796
-7.27221
-7.91858
-8.62608
-9.40344
-10.2621
-11.2169
-12.2873
-13.4989
-14.8859
-16.4928
-18.379
-20.6233
-23.309
-26.4651
-30.325
-36.191
-5.43778
-5.90155
-6.41852
-6.97678
-7.58224
-8.24286
-8.96611
-9.76097
-10.6391
-11.6157
-12.7104
-13.9494
-15.3672
-17.0089
-18.9341
-21.2219
-23.9547
-27.1594
-31.065
-36.9672
-5.70354
-6.18043
-6.70748
-7.2772
-7.89579
-8.57095
-9.31025
-10.1229
-11.0209
-12.0195
-13.139
-14.4058
-15.8548
-17.5316
-19.4963
-21.8278
-24.608
-27.8612
-31.8124
-37.7568
-1.32342
-1.11769
-0.964776
-0.828879
-0.709603
-0.604407
-0.512177
-0.432121
-0.363738
-0.306671
-0.260653
-0.225474
-0.200962
-0.186972
-0.183355
-0.189915
-0.206469
-0.233167
-0.270037
-0.317007
-1.65361
-1.47111
-1.31423
-1.17313
-1.04906
-0.939424
-0.843258
-0.759758
-0.68841
-0.628838
-0.580759
-0.543952
-0.518232
-0.503443
-0.499435
-0.506044
-0.523128
-0.550693
-0.588721
-0.637152
-1.98676
-1.81213
-1.65528
-1.51306
-1.38688
-1.27508
-1.17698
-1.09188
-1.01932
-0.958924
-0.910426
-0.873601
-0.848264
-0.834252
-0.831415
-0.839607
-0.858711
-0.888684
-0.929456
-0.981004
-2.37124
-2.19498
-2.03513
-1.88998
-1.76024
-1.64497
-1.54368
-1.45581
-1.38096
-1.31879
-1.26902
-1.23142
-1.20581
-1.19202
-1.18989
-1.19927
-1.22006
-1.25217
-1.2955
-1.35003
-2.79087
-2.61221
-2.44844
-2.29938
-2.16546
-2.04617
-1.94117
-1.85004
-1.77243
-1.70803
-1.65658
-1.61786
-1.59168
-1.57786
-1.57624
-1.58668
-1.60904
-1.64323
-1.68913
-1.74672
-3.24328
-3.06145
-2.89356
-2.74021
-2.60188
-2.47836
-2.36946
-2.27486
-2.1943
-2.1275
-2.07422
-2.03426
-2.00741
-1.9935
-1.99237
-2.00388
-2.02788
-2.06424
-2.11284
-2.17358
-3.73466
-3.54817
-3.37542
-3.2172
-3.07402
-2.94588
-2.83273
-2.73434
-2.65052
-2.58104
-2.52569
-2.48426
-2.45656
-2.44244
-2.44172
-2.45424
-2.47988
-2.51847
-2.56989
-2.63406
-4.27183
-4.07919
-3.90051
-3.73655
-3.58782
-3.45447
-3.33651
-3.23384
-3.1463
-3.07371
-3.01589
-2.97266
-2.94383
-2.92925
-2.92874
-2.94215
-2.96934
-3.01014
-3.0644
-3.13208
-4.86251
-4.66229
-4.47645
-4.30568
-4.1505
-4.01112
-3.88763
-3.77999
-3.68811
-3.61185
-3.55105
-3.50555
-3.47519
-3.45979
-3.45921
-3.47327
-3.50183
-3.54472
-3.60178
-3.67299
-5.51687
-5.3075
-5.11308
-4.93424
-4.77146
-4.62502
-4.49506
-4.38159
-4.28457
-4.20389
-4.13943
-4.09104
-4.05857
-4.04187
-4.04077
-4.05512
-4.08475
-4.1295
-4.18919
-4.26384
-6.24866
-6.02834
-5.82368
-5.63521
-5.46343
-5.30863
-5.17098
-5.05056
-4.94734
-4.86126
-4.79223
-4.74011
-4.70477
-4.68606
-4.68382
-4.6979
-4.72814
-4.77434
-4.83633
-4.91417
-7.0766
-6.84323
-6.62632
-6.42634
-6.24379
-6.07897
-5.9321
-5.80326
-5.69247
-5.59972
-5.5249
-5.46793
-5.42868
-5.40699
-5.40273
-5.41574
-5.44586
-5.49286
-5.5566
-5.63715
-8.02644
-7.77749
-7.54589
-7.33207
-7.13655
-6.95963
-6.80155
-6.66242
-6.5423
-6.44118
-6.35901
-6.29569
-6.2511
-6.22513
-6.21762
-6.22842
-6.25735
-6.3042
-6.36879
-6.45126
-9.13368
-8.86607
-8.61681
-8.3863
-8.17505
-7.98341
-7.81162
-7.65982
-7.52808
-7.41643
-7.32481
-7.25316
-7.20138
-7.16933
-7.15689
-7.16389
-7.19017
-7.23546
-7.29959
-7.38276
-10.4485
-10.1586
-9.88802
-9.6373
-9.40696
-9.19733
-9.0087
-8.84122
-8.69498
-8.57
-8.46627
-8.38373
-8.32228
-8.2818
-8.26216
-8.26321
-8.28477
-8.32654
-8.38834
-8.47041
-12.0445
-11.7278
-11.4317
-11.1566
-10.9031
-10.6715
-10.4623
-10.2755
-10.1112
-9.96941
-9.85022
-9.75353
-9.67926
-9.6273
-9.59752
-9.58977
-9.60386
-9.63948
-9.6964
-9.77489
-14.0105
-13.6624
-13.336
-13.032
-12.751
-12.4933
-12.2593
-12.0491
-11.8628
-11.7005
-11.5621
-11.4477
-11.357
-11.2902
-11.2469
-11.2271
-11.2306
-11.2572
-11.3065
-11.3785
-16.408
-16.0245
-15.6638
-15.3269
-15.0145
-14.7271
-14.4648
-14.2279
-14.0163
-13.83
-13.6692
-13.5338
-13.4237
-13.3389
-13.2793
-13.2447
-13.235
-13.2501
-13.2895
-13.3525
-19.5471
-19.1239
-18.7244
-18.3512
-18.0046
-17.6846
-17.3911
-17.1243
-16.8841
-16.6704
-16.4834
-16.3229
-16.189
-16.0816
-16.0005
-15.9457
-15.917
-15.9149
-15.939
-15.9873
-24.8854
-24.4174
-23.9836
-23.5811
-23.2077
-22.8624
-22.5449
-22.2549
-21.9925
-21.7576
-21.5503
-21.3706
-21.2186
-21.0945
-20.9982
-20.9299
-20.8902
-20.8815
-20.9051
-20.9507
-0.373914
-0.440448
-0.516569
-0.602194
-0.697236
-0.801587
-0.915114
-1.03765
-1.16899
-1.30884
-1.45685
-1.61248
-1.77494
-1.94302
-2.11505
-2.28876
-2.4597
-2.61805
-2.74845
-2.87712
-0.695931
-0.764728
-0.843471
-0.932047
-1.03035
-1.13825
-1.25559
-1.38219
-1.5178
-1.66213
-1.81474
-1.97511
-2.14245
-2.3156
-2.49294
-2.67284
-2.85352
-3.02726
-3.17881
-3.34983
-1.04325
-1.11587
-1.19881
-1.29193
-1.39511
-1.5082
-1.63103
-1.76338
-1.90501
-2.05556
-2.21462
-2.38163
-2.55585
-2.73623
-2.92144
-3.11027
-3.30177
-3.49154
-3.67384
-3.87854
-1.41569
-1.49215
-1.57933
-1.6771
-1.7853
-1.90378
-2.03233
-2.17074
-2.31871
-2.4759
-2.64186
-2.81605
-2.99776
-3.18609
-3.37996
-3.57849
-3.7809
-3.98486
-4.19084
-4.41919
-1.81587
-1.89632
-1.98796
-2.09062
-2.20414
-2.32834
-2.46301
-2.6079
-2.76272
-2.9271
-3.10061
-3.28272
-3.47277
-3.66998
-3.87355
-4.08285
-4.29728
-4.51578
-4.74099
-4.98605
-2.2466
-2.33134
-2.42776
-2.53569
-2.65496
-2.78537
-2.9267
-3.07869
-3.24102
-3.41335
-3.59524
-3.78619
-3.98561
-4.19286
-4.40732
-4.62856
-4.8562
-5.09001
-5.33274
-5.59224
-2.71105
-2.80032
-2.90185
-3.01543
-3.14089
-3.27801
-3.42657
-3.58629
-3.75686
-3.93793
-4.12909
-4.32987
-4.53976
-4.75821
-4.98475
-5.21908
-5.46101
-5.71073
-5.97045
-6.24462
-3.21317
-3.30725
-3.41417
-3.53375
-3.66581
-3.81013
-3.96648
-4.13458
-4.31412
-4.50475
-4.70609
-4.91772
-5.13916
-5.36998
-5.60979
-5.85837
-6.11564
-6.38191
-6.65876
-6.94866
-3.75835
-3.85734
-3.96987
-4.09575
-4.23478
-4.38676
-4.55143
-4.72852
-4.91774
-5.11875
-5.33117
-5.55463
-5.78871
-6.03304
-6.28729
-6.55127
-6.82495
-7.1086
-7.40323
-7.71021
-4.35345
-4.45738
-4.57572
-4.70808
-4.85438
-5.01439
-5.18786
-5.37451
-5.57406
-5.78618
-6.01054
-6.24678
-6.49452
-6.75343
-7.02323
-7.30375
-7.59493
-7.89693
-8.21032
-8.53589
-5.00787
-5.11669
-5.24067
-5.3797
-5.53343
-5.70171
-5.88432
-6.08097
-6.29139
-6.51527
-6.75229
-7.00213
-7.26444
-7.53892
-7.82531
-8.12343
-8.43317
-8.75457
-9.08786
-9.43355
-5.73456
-5.84797
-5.97746
-6.12284
-6.284
-6.4606
-6.6525
-6.85941
-7.08106
-7.31714
-7.56738
-7.83147
-8.1091
-8.39997
-8.70382
-9.02047
-9.34975
-9.69155
-10.0459
-10.4132
-6.55168
-6.66904
-6.80352
-6.95485
-7.12293
-7.30782
-7.50897
-7.726
-7.95888
-8.20732
-8.47107
-8.74979
-9.04321
-9.35102
-9.67297
-10.0089
-10.3585
-10.7216
-11.098
-11.4881
-7.48508
-7.60532
-7.74383
-7.90034
-8.07462
-8.2667
-8.47738
-8.70363
-8.94737
-9.2079
-9.48496
-9.77828
-10.0876
-10.4125
-10.7529
-11.1084
-11.4788
-11.8637
-12.2629
-12.6767
-8.57291
-8.69435
-8.8353
-8.99553
-9.17488
-9.37285
-9.58886
-9.82553
-10.0799
-10.3516
-10.6412
-10.9485
-11.2734
-11.6153
-11.9738
-12.3489
-12.74
-13.1469
-13.5691
-14.007
-9.87507
-9.99517
-10.1361
-10.2978
-10.48
-10.6825
-10.9046
-11.1466
-11.4086
-11.6911
-11.9925
-12.3132
-12.6527
-13.0103
-13.3859
-13.7793
-14.1904
-14.6185
-15.0632
-15.5246
-11.473
-11.5886
-11.7267
-11.8871
-12.0696
-12.2738
-12.4994
-12.7464
-13.0146
-13.304
-13.6156
-13.9479
-14.2993
-14.6691
-15.0583
-15.4677
-15.8967
-16.3445
-16.81
-17.2933
-13.4372
-13.5453
-13.6775
-13.8333
-14.0116
-14.2128
-14.437
-14.6841
-14.9539
-15.2457
-15.5589
-15.8939
-16.2522
-16.6345
-17.0388
-17.464
-17.9097
-18.3754
-18.8602
-19.3632
-16.0578
-16.1499
-16.2659
-16.4072
-16.5753
-16.7693
-16.9884
-17.2321
-17.5002
-17.7923
-18.1077
-18.4462
-18.808
-19.1937
-19.6031
-20.0355
-20.4909
-20.9699
-21.4723
-21.9934
-20.9928
-21.0654
-21.1687
-21.3005
-21.4596
-21.6454
-21.8573
-22.0949
-22.3579
-22.6459
-22.9587
-23.2963
-23.6589
-24.0467
-24.4597
-24.8981
-25.3628
-25.8578
-26.3856
-26.9285
-27.4422
-22.5249
-19.8838
-17.7944
-16.0028
-14.4604
-13.105
-11.8917
-10.7932
-9.79154
-8.87356
-8.02951
-7.25174
-6.53397
-5.87098
-5.25818
-4.69028
-4.16166
-3.68077
-3.27646
-27.9836
-23.0725
-20.4199
-18.3104
-16.4951
-14.9272
-13.5458
-12.3071
-11.1845
-10.1603
-9.22166
-8.35903
-7.56487
-6.83307
-6.15855
-5.53685
-4.96318
-4.43512
-3.96579
-3.56345
-28.5534
-23.6388
-20.9731
-18.8423
-17.002
-15.4074
-13.9991
-12.7341
-11.5865
-10.5391
-9.57927
-8.69756
-7.88653
-7.14007
-6.45308
-5.82101
-5.23919
-4.70531
-4.2289
-3.80713
-29.1474
-24.2245
-21.5434
-19.3899
-17.523
-15.9004
-14.464
-13.1718
-11.9985
-10.9271
-9.94531
-9.04379
-8.21503
-7.45281
-6.75183
-6.10725
-5.51416
-4.96959
-4.48026
-4.03984
-29.7626
-24.829
-22.1301
-19.9526
-18.0575
-16.4055
-14.9399
-13.6195
-12.4195
-11.3233
-10.3189
-9.39685
-8.54957
-7.7707
-7.05466
-6.39634
-5.7905
-5.23362
-4.73056
-4.27407
-30.3974
-25.4526
-22.7315
-20.5293
-18.6048
-16.922
-15.4261
-14.0764
-12.8489
-11.7272
-10.6994
-9.75609
-8.8896
-8.09336
-7.36154
-6.68875
-6.06953
-5.5
-4.98375
-4.51324
-31.0507
-26.0941
-23.347
-21.1191
-19.164
-17.4492
-15.9217
-14.5419
-13.2859
-12.138
-11.0861
-10.121
-9.2348
-8.42072
-7.67272
-6.98517
-6.35247
-5.77049
-5.24173
-4.75861
-31.7211
-26.7513
-23.9765
-21.7212
-19.7341
-17.9861
-16.4261
-15.015
-13.7299
-12.555
-11.4786
-10.4912
-9.58486
-8.75264
-7.98825
-7.28587
-6.63976
-6.04562
-5.50493
-5.01012
-32.4074
-27.423
-24.6192
-22.3347
-20.3144
-18.532
-16.9383
-15.4952
-14.1802
-12.9777
-11.8762
-10.8662
-9.93945
-9.0889
-8.30805
-7.59086
-6.93147
-6.32539
-5.77318
-5.26726
-33.1083
-28.1077
-25.2741
-22.9588
-20.9039
-19.0859
-17.4576
-15.9817
-14.636
-13.4055
-12.2785
-11.2455
-10.2982
-9.42918
-8.63183
-7.89986
-7.22731
-6.60946
-6.04598
-5.52932
-33.8226
-28.8046
-25.9401
-23.5925
-21.5016
-19.6471
-17.9832
-16.4736
-15.0967
-13.8376
-12.6848
-11.6286
-10.6605
-9.77302
-8.95916
-8.21247
-7.52682
-6.89729
-6.32268
-5.79551
-34.5492
-29.5124
-26.616
-24.2347
-22.1067
-20.2144
-18.514
-16.9701
-15.5614
-14.2734
-13.0945
-12.0148
-11.0259
-10.1199
-9.28953
-8.52814
-7.82944
-7.18826
-6.60259
-6.06505
-35.287
-30.2301
-27.3008
-24.8844
-22.718
-20.787
-19.0493
-17.4703
-16.0294
-14.7121
-13.5068
-12.4037
-11.3938
-10.4692
-9.62233
-8.84627
-8.13454
-7.48171
-6.88499
-6.33717
-36.0349
-30.9564
-27.9933
-25.5403
-23.3344
-21.3638
-19.588
-17.9734
-16.4998
-15.1529
-13.9211
-12.7943
-11.7635
-10.8203
-9.95695
-9.16623
-8.44147
-7.77696
-7.16918
-6.61115
-36.7917
-31.6902
-28.6921
-26.2014
-23.9549
-21.9437
-20.1292
-18.4785
-16.9718
-15.595
-14.3366
-13.1861
-12.1343
-11.1725
-10.2927
-9.48737
-8.74957
-8.07335
-7.45448
-6.88632
-37.5563
-32.4302
-29.3961
-26.8664
-24.5783
-22.5258
-20.6719
-18.9846
-17.4445
-16.0377
-14.7525
-13.5783
-12.5055
-11.5252
-10.629
-9.80902
-9.05819
-8.37023
-7.74025
-7.16202
-38.3282
-33.1751
-30.1039
-27.5341
-25.2034
-23.1087
-21.2149
-19.4906
-17.9169
-16.48
-15.168
-13.9701
-12.8764
-11.8777
-10.9651
-10.1305
-9.36671
-8.66698
-8.02586
-7.43766
-39.1089
-33.9246
-30.8141
-28.2029
-25.8287
-23.6912
-21.757
-19.9955
-18.3881
-16.921
-15.5823
-14.3608
-13.2463
-12.2291
-11.3003
-10.4512
-9.67446
-8.96297
-8.31071
-7.71267
-39.8986
-34.6774
-31.5246
-28.871
-26.4529
-24.2722
-22.2973
-20.4984
-18.8572
-17.36
-15.9945
-14.7496
-13.6144
-12.579
-11.6339
-10.7705
-9.98083
-9.25761
-8.59425
-7.98655
-40.6844
-35.4286
-32.2339
-29.5376
-27.0753
-24.8512
-22.8353
-20.9988
-19.3238
-17.7965
-16.4044
-15.1361
-13.9803
-12.9268
-11.9657
-11.0879
-10.2854
-9.55045
-8.87602
-8.25885
-6.74156
-4.6445
-3.29143
-2.25209
-1.52267
-0.987152
-0.602741
-0.329933
-0.140579
-0.0130608
0.0691156
0.118506
0.144593
0.154493
0.153466
0.145356
0.132953
0.118241
0.102619
0.0870458
0.0721617
0.0583749
0.0459189
0.0349134
0.0253774
0.0172935
0.0105648
0.00513311
0.000821586
-0.00238651
-0.00477083
-0.00620033
-0.00716054
-0.00719442
-0.00721756
-0.00613473
-0.00568197
-0.00362028
-0.00310883
7.40983e-05
-6.99613
-4.82609
-3.43715
-2.36684
-1.61342
-1.06056
-0.662629
-0.379411
-0.181839
-0.0477187
0.0398619
0.0937391
0.123594
0.136687
0.13838
0.132597
0.122187
0.109183
0.095023
0.0807005
0.066884
0.0540053
0.0423193
0.0319645
0.0229745