/*--------------------------------*- C++ -*----------------------------------*\
| =========                 |                                                 |
| \\      /  F ield         | OpenFOAM: The Open Source CFD Toolbox           |
|  \\    /   O peration     | Version:  v1912                                 |
|   \\  /    A nd           | Website:  www.openfoam.com                      |
|    \\/     M anipulation  |                                                 |
\*---------------------------------------------------------------------------*/
FoamFile
{
    version     2.0;
    format      ascii;
    class       volScalarField;
    location    "70";
    object      p;
}
// * * * * * * * * * * * * * * * * * * * * * * * * * * * * * * * * * * * * * //

dimensions      [0 2 -2 0 0 0 0];


internalField   nonuniform List<scalar> 
9600
(
-41.4881
-36.2234
-32.9967
-30.2596
-27.7543
-25.4875
-23.431
-21.5568
-19.8475
-18.2894
-16.8699
-15.5771
-14.3996
-13.3266
-12.348
-11.4544
-10.6374
-9.88911
-9.20194
-8.57374
-42.2482
-36.9659
-33.7032
-30.9233
-28.3728
-26.0619
-23.964
-22.052
-20.3088
-18.7207
-17.2748
-15.9589
-14.761
-13.6701
-12.6756
-11.7678
-10.9381
-10.178
-9.47971
-8.84223
-43.0099
-37.7044
-34.4044
-31.5813
-28.9855
-26.6303
-24.491
-22.5413
-20.7645
-19.1466
-17.6746
-16.3358
-15.1179
-14.0093
-12.9992
-12.0774
-11.235
-10.4633
-9.7539
-9.10733
-43.77
-38.4385
-35.0997
-32.2329
-29.5913
-27.1917
-25.011
-23.0238
-21.2136
-19.5663
-18.0686
-16.7072
-15.4696
-14.3437
-13.3181
-12.3826
-11.5277
-10.7444
-10.0241
-9.3687
-44.5257
-39.1667
-35.788
-32.8768
-30.1893
-27.7451
-25.5231
-23.4987
-21.6553
-19.979
-18.4559
-17.0725
-15.8155
-14.6726
-13.6319
-12.6828
-11.8157
-11.021
-10.2899
-9.62607
-45.2747
-39.8874
-36.4683
-33.5121
-30.7782
-28.2896
-26.0264
-23.9649
-22.0889
-20.3839
-18.8359
-17.4308
-16.1549
-14.9953
-13.9399
-12.9777
-12.0986
-11.2928
-10.5511
-9.87917
-46.0153
-40.5992
-37.1393
-34.1375
-31.3572
-28.824
-26.5199
-24.4217
-22.5134
-20.7803
-19.2079
-17.7816
-16.4872
-15.3114
-14.2416
-13.2665
-12.3759
-11.5592
-10.8072
-10.1277
-46.746
-41.3008
-37.7996
-34.752
-31.9251
-29.3474
-27.0026
-24.8682
-22.928
-21.1673
-19.571
-18.124
-16.8117
-15.6201
-14.5364
-13.5489
-12.647
-11.8198
-11.0579
-10.3714
-47.4654
-41.9908
-38.4481
-35.3544
-32.4808
-29.8588
-27.4737
-25.3034
-23.332
-21.5442
-19.9246
-18.4574
-17.1276
-15.9208
-14.8236
-13.8242
-12.9115
-12.0742
-11.3028
-10.6099
-48.1723
-42.668
-39.0837
-35.9436
-33.0234
-30.3573
-27.9322
-25.7266
-23.7244
-21.9101
-20.2677
-18.781
-17.4342
-16.2126
-15.1026
-14.0917
-13.1687
-12.3218
-11.5414
-10.8428
-48.8656
-43.3314
-39.7052
-36.5187
-33.5518
-30.842
-28.3772
-26.1368
-24.1044
-22.2642
-20.5996
-19.0939
-17.7307
-16.4949
-15.3724
-14.3506
-13.4179
-12.5619
-11.773
-11.0694
-49.5443
-43.9799
-40.3117
-37.0786
-34.0652
-31.3118
-28.8079
-26.5332
-24.4712
-22.6057
-20.9195
-19.3952
-18.0162
-16.7667
-15.6323
-14.6001
-13.6581
-12.7936
-11.9969
-11.2891
-50.2077
-44.6126
-40.9023
-37.6224
-34.5627
-31.7661
-29.2235
-26.915
-24.8239
-22.9337
-21.2264
-19.6841
-18.2897
-17.027
-15.8812
-14.839
-13.8885
-13.0161
-12.2122
-11.501
-50.8551
-45.2288
-41.4761
-38.1494
-35.0434
-32.204
-29.6232
-27.2814
-25.1619
-23.2474
-21.5194
-19.9596
-18.5502
-17.2746
-16.1177
-15.0662
-14.1075
-13.2279
-12.4177
-11.7045
-51.4862
-45.8277
-42.0323
-38.6589
-35.5068
-32.6248
-30.0063
-27.6318
-25.4844
-23.5461
-21.7979
-20.2208
-18.7966
-17.5083
-16.3405
-15.2797
-14.3132
-13.4268
-12.6112
-11.8976
-52.1003
-46.4083
-42.5702
-39.15
-35.9521
-33.0281
-30.3724
-27.9658
-25.7908
-23.8291
-22.061
-20.4669
-19.028
-17.7271
-16.5484
-15.4782
-14.5039
-13.6108
-12.79
-12.075
-52.6988
-46.9708
-43.0891
-39.6223
-36.3787
-33.413
-30.7207
-28.2826
-26.0807
-24.096
-22.3082
-20.6971
-19.2436
-17.9299
-16.7402
-15.6609
-14.6791
-13.7798
-12.953
-12.2334
-53.2861
-47.5161
-43.5883
-40.0744
-36.7857
-33.7791
-31.0509
-28.582
-26.3537
-24.3464
-22.539
-20.9108
-19.442
-18.115
-16.9137
-15.825
-14.836
-13.9311
-13.0993
-12.3841
-53.8641
-48.0437
-44.0662
-40.5055
-37.1727
-34.1263
-31.3633
-28.8644
-26.6104
-24.5809
-22.7539
-21.108
-19.6231
-18.2809
-17.0655
-15.9638
-14.9628
-14.047
-13.2139
-12.5314
-54.4111
-48.5461
-44.5217
-40.916
-37.5411
-34.4562
-31.6595
-29.1315
-26.8526
-24.8013
-22.955
-21.2914
-19.7894
-18.4303
-17.1973
-16.0759
-15.0512
-14.1096
-13.2656
-12.5893
-59.868
-59.8365
-59.7672
-59.6747
-59.5584
-59.4156
-59.2459
-59.0498
-58.8279
-58.5807
-58.3087
-58.0126
-57.6929
-57.3504
-56.9858
-56.6
-56.1941
-55.7697
-55.3298
-54.8775
-53.519
-53.5164
-53.4806
-53.4173
-53.3271
-53.2096
-53.0649
-52.8939
-52.6972
-52.4754
-52.2291
-51.9589
-51.6655
-51.3495
-51.0116
-50.6523
-50.2724
-49.8724
-49.4527
-49.0113
-48.8746
-48.8963
-48.8888
-48.8524
-48.7886
-48.6981
-48.5817
-48.4398
-48.2732
-48.0824
-47.868
-47.6306
-47.3708
-47.089
-46.7858
-46.4616
-46.1167
-45.7512
-45.3647
-44.9554
-44.6437
-44.6832
-44.6961
-44.6818
-44.6413
-44.5757
-44.4855
-44.3714
-44.2338
-44.0734
-43.8906
-43.686
-43.46
-43.2132
-42.946
-42.6586
-42.3512
-42.0237
-41.6758
-41.3068
-40.7315
-40.7809
-40.8064
-40.8071
-40.7836
-40.7366
-40.6668
-40.5747
-40.4609
-40.3257
-40.1697
-39.9935
-39.7973
-39.5818
-39.3472
-39.0937
-38.8215
-38.5305
-38.2205
-37.891
-37.218
-37.2715
-37.3034
-37.3128
-37.2999
-37.2653
-37.2097
-37.1335
-37.0373
-36.9214
-36.7864
-36.6327
-36.4609
-36.2712
-36.0641
-35.8397
-35.5982
-35.3395
-35.0633
-34.7692
-34.0941
-34.1476
-34.1813
-34.1944
-34.187
-34.1597
-34.1131
-34.0475
-33.9635
-33.8615
-33.742
-33.6055
-33.4524
-33.2833
-33.0983
-32.8979
-32.682
-32.4506
-32.2035
-31.9401
-31.323
-31.3736
-31.406
-31.4194
-31.414
-31.3902
-31.3485
-31.2895
-31.2135
-31.121
-31.0126
-30.8887
-30.7498
-30.5964
-30.4289
-30.2476
-30.0527
-29.844
-29.6214
-29.3843
-28.8648
-28.911
-28.9402
-28.9518
-28.946
-28.9232
-28.8839
-28.8286
-28.7576
-28.6714
-28.5707
-28.4558
-28.3274
-28.186
-28.0321
-27.8661
-27.6881
-27.4983
-27.2962
-27.0815
-26.6798
-26.7208
-26.7459
-26.7547
-26.7472
-26.724
-26.6853
-26.6318
-26.5637
-26.4817
-26.3862
-26.2779
-26.1573
-26.025
-25.8817
-25.7278
-25.5637
-25.3895
-25.205
-25.0094
-24.7308
-24.7666
-24.7873
-24.7928
-24.783
-24.7585
-24.7196
-24.6667
-24.6003
-24.5209
-24.4291
-24.3255
-24.2107
-24.0854
-23.9504
-23.8063
-23.6536
-23.4927
-23.3233
-23.1446
-22.985
-23.0156
-23.0321
-23.0342
-23.022
-22.9958
-22.9562
-22.9034
-22.8379
-22.7603
-22.6711
-22.5709
-22.4605
-22.3406
-22.2122
-22.0761
-21.933
-21.7834
-21.6273
-21.464
-21.4139
-21.44
-21.4525
-21.4514
-21.4368
-21.409
-21.3684
-21.3154
-21.2504
-21.174
-21.0867
-20.9891
-20.8821
-20.7664
-20.6433
-20.5136
-20.3785
-20.2388
-20.0948
-19.9458
-19.9939
-20.0158
-20.0248
-20.0208
-20.004
-19.9746
-19.9331
-19.8799
-19.8152
-19.7396
-19.6538
-19.5582
-19.4538
-19.3415
-19.2224
-19.0979
-18.9696
-18.8384
-18.7057
-18.5703
-18.7052
-18.7233
-18.7292
-18.7226
-18.7038
-18.6731
-18.6308
-18.5773
-18.5129
-18.438
-18.3533
-18.2594
-18.157
-18.0472
-17.9314
-17.8109
-17.6879
-17.564
-17.4418
-17.3198
-17.5311
-17.5459
-17.5489
-17.5401
-17.5196
-17.4877
-17.4448
-17.391
-17.3268
-17.2526
-17.1689
-17.0763
-16.9755
-16.8676
-16.7539
-16.6363
-16.5173
-16.3992
-16.2866
-16.1779
-16.4579
-16.4697
-16.4702
-16.4594
-16.4374
-16.4046
-16.361
-16.3071
-16.2431
-16.1694
-16.0864
-15.9947
-15.895
-15.7883
-15.6759
-15.5597
-15.443
-15.3287
-15.2242
-15.1273
-15.4736
-15.483
-15.4816
-15.4693
-15.4463
-15.4127
-15.3689
-15.3149
-15.2512
-15.1781
-15.0958
-15.0049
-14.906
-14.7999
-14.6879
-14.5717
-14.4553
-14.3425
-14.245
-14.1573
-14.5672
-14.5752
-14.5728
-14.5601
-14.5369
-14.5037
-14.4606
-14.4077
-14.3454
-14.2739
-14.1935
-14.1045
-14.0074
-13.903
-13.792
-13.6761
-13.559
-13.4458
-13.3552
-13.2816
-13.7334
-13.7382
-13.7332
-13.7186
-13.6945
-13.6608
-13.618
-13.5661
-13.5052
-13.4357
-13.3576
-13.2714
-13.1772
-13.0756
-12.9668
-12.852
-12.733
-12.6151
-12.518
-12.4688
-53.5743
-54.1498
-54.6882
-55.2116
-55.717
-56.1986
-56.6533
-57.0802
-57.4783
-57.8468
-58.1849
-58.4922
-58.7684
-59.013
-59.2254
-59.4058
-59.555
-59.6742
-59.7653
-59.8303
-47.0911
-47.672
-48.2248
-48.7553
-49.2629
-49.7453
-50.201
-50.6293
-51.0296
-51.4011
-51.7434
-52.0563
-52.3399
-52.5949
-52.8191
-53.012
-53.1743
-53.3062
-53.4084
-53.4796
-42.4466
-43.0152
-43.5602
-44.0818
-44.5799
-45.0538
-45.5028
-45.9261
-46.3231
-46.6931
-47.0353
-47.3493
-47.6348
-47.8906
-48.118
-48.3171
-48.4878
-48.6296
-48.7422
-48.8243
-38.3223
-38.8657
-39.3894
-39.8915
-40.3714
-40.8288
-41.2631
-41.6737
-42.0599
-42.4212
-42.7562
-43.0644
-43.3468
-43.6029
-43.8328
-44.0362
-44.2128
-44.3622
-44.4841
-44.578
-34.6443
-35.1576
-35.6539
-36.1305
-36.5865
-37.0214
-37.4349
-37.8261
-38.1944
-38.5393
-38.8613
-39.1599
-39.4339
-39.6833
-39.9083
-40.1085
-40.2838
-40.4339
-40.5587
-40.6581
-31.4455
-31.9274
-32.3938
-32.8423
-33.2716
-33.6814
-34.071
-34.4401
-34.7879
-35.1144
-35.4193
-35.702
-35.9618
-36.199
-36.4139
-36.6062
-36.7753
-36.9209
-37.0434
-37.1426
-28.6735
-29.1245
-29.5613
-29.9814
-30.3837
-30.7676
-31.1326
-31.4784
-31.8044
-32.1103
-32.3959
-32.6608
-32.9047
-33.1275
-33.3287
-33.5102
-33.6704
-33.8086
-33.9253
-34.0206
-26.2614
-26.6835
-27.0922
-27.4853
-27.8616
-28.2205
-28.5615
-28.8843
-29.1884
-29.4736
-29.7397
-29.9865
-30.2138
-30.4216
-30.6098
-30.7769
-30.9264
-31.0556
-31.1647
-31.2539
-24.1506
-24.5462
-24.9291
-25.2973
-25.6494
-25.9849
-26.3033
-26.6043
-26.8876
-27.153
-27.4004
-27.6295
-27.8405
-28.0331
-28.2074
-28.3633
-28.4995
-28.6187
-28.7194
-28.8014
-22.2908
-22.6626
-23.0223
-23.3678
-23.6979
-24.0119
-24.3095
-24.5903
-24.8543
-25.1012
-25.331
-25.5436
-25.739
-25.9171
-26.078
-26.2214
-26.3473
-26.4561
-26.548
-26.6227
-20.6405
-20.9911
-21.3301
-21.6553
-21.9655
-22.2599
-22.5385
-22.8009
-23.0471
-23.277
-23.4906
-23.6879
-23.869
-24.0337
-24.182
-24.314
-24.4297
-24.5289
-24.6125
-24.6799
-19.166
-19.4978
-19.8186
-20.1258
-20.418
-20.6947
-20.9559
-21.2015
-21.4314
-21.6458
-21.8446
-22.028
-22.1959
-22.3483
-22.4853
-22.6069
-22.7131
-22.8039
-22.8793
-22.9399
-17.8403
-18.1556
-18.4605
-18.7517
-19.0278
-19.2884
-19.5338
-19.7639
-19.979
-20.1791
-20.3645
-20.5351
-20.6911
-20.8324
-20.9591
-21.0712
-21.1687
-21.2516
-21.3196
-21.3742
-16.6418
-16.9427
-17.234
-17.5111
-17.7725
-18.0183
-18.2492
-18.4651
-18.6665
-18.8537
-19.0267
-19.1857
-19.3309
-19.4621
-19.5795
-19.6831
-19.7728
-19.8487
-19.9112
-19.9592
-15.5535
-15.8421
-16.1219
-16.3863
-16.6341
-16.8663
-17.0836
-17.2864
-17.4751
-17.6503
-17.812
-17.9605
-18.0957
-18.2179
-18.3269
-18.4227
-18.5054
-18.575
-18.6315
-18.6747
-14.5606
-14.8407
-15.1113
-15.3638
-15.5987
-15.8179
-16.0224
-16.2127
-16.3896
-16.5536
-16.7049
-16.8437
-16.97
-17.0838
-17.1851
-17.274
-17.3504
-17.4142
-17.4655
-17.5044
-13.6454
-13.9245
-14.1899
-14.4309
-14.6531
-14.86
-15.0522
-15.2307
-15.3966
-15.5503
-15.692
-15.8219
-15.9401
-16.0464
-16.1409
-16.2235
-16.2942
-16.353
-16.3998
-16.4347
-12.7874
-13.0706
-13.3373
-13.569
-13.7792
-13.9743
-14.1554
-14.3234
-14.4795
-14.6241
-14.7577
-14.8801
-14.9914
-15.0915
-15.1803
-15.2577
-15.3237
-15.3783
-15.4215
-15.4533
-11.9999
-12.2737
-12.541
-12.7679
-12.968
-13.1517
-13.3223
-13.4808
-13.6281
-13.7648
-13.8912
-14.0072
-14.1126
-14.2074
-14.2915
-14.3648
-14.4271
-14.4785
-14.519
-14.5486
-11.4092
-11.66
-11.8878
-12.1046
-12.293
-12.459
-12.613
-12.7572
-12.8913
-13.0155
-13.1302
-13.2355
-13.331
-13.4167
-13.4923
-13.5579
-13.6134
-13.6586
-13.6934
-13.718
-6.00724
-6.49861
-7.03706
-7.61953
-8.25245
-8.94323
-9.69953
-10.5308
-11.4492
-12.4704
-13.6149
-14.9096
-16.3898
-18.1018
-20.106
-22.4815
-25.3097
-28.6128
-32.6102
-38.6062
-6.27789
-6.7828
-7.33177
-7.92631
-8.57302
-9.27898
-10.052
-10.9018
-11.8407
-12.8849
-14.0549
-15.3782
-16.8906
-18.6386
-20.6828
-23.1025
-25.9778
-29.3277
-33.3636
-39.3807
-6.54997
-7.06842
-7.62803
-8.23487
-8.89562
-9.61703
-10.407
-11.2756
-12.2354
-13.3027
-14.4987
-15.851
-17.3958
-19.1802
-21.2648
-23.7286
-26.6505
-30.0461
-34.1188
-40.1524
-6.82299
-7.35492
-7.92525
-8.54462
-9.21961
-9.95667
-10.7639
-11.6514
-12.6323
-13.7231
-14.9452
-16.3267
-17.9042
-19.7251
-21.8502
-24.3581
-27.3264
-30.7675
-34.8781
-40.9328
-7.0965
-7.64183
-8.22297
-8.85505
-9.5445
-10.2974
-11.122
-12.0287
-13.0308
-14.1452
-15.3936
-16.8045
-18.4149
-20.2724
-22.4381
-24.9901
-28.0046
-31.4914
-35.6404
-41.7196
-7.37014
-7.92874
-8.52075
-9.16576
-9.86986
-10.6387
-11.4808
-12.4069
-13.4305
-14.5686
-15.8435
-17.2839
-18.9272
-20.8215
-23.0278
-25.6239
-28.6846
-32.2166
-36.4039
-42.5085
-7.64359
-8.21531
-8.81822
-9.47635
-10.1953
-10.9803
-11.84
-12.7856
-13.8306
-14.9926
-16.2941
-17.7641
-19.4405
-21.3716
-23.6185
-26.2586
-29.3652
-32.9422
-37.1669
-43.2971
-7.9166
-8.50122
-9.11506
-9.78647
-10.5203
-11.3216
-12.1991
-13.1641
-14.2308
-15.4167
-16.7448
-18.2445
-19.9541
-21.9219
-24.2094
-26.8932
-30.0455
-33.667
-37.9284
-44.084
-8.18901
-8.78628
-9.41103
-10.0958
-10.8448
-11.6623
-12.5576
-13.5422
-14.6304
-15.8403
-17.195
-18.7244
-20.467
-22.4716
-24.7995
-27.5269
-30.7245
-34.3898
-38.6871
-44.8678
-8.46079
-9.07039
-9.70597
-10.4043
-11.1683
-12.0022
-12.9152
-13.9193
-15.0291
-16.2629
-17.6441
-19.2031
-20.9786
-23.0198
-25.3879
-28.1585
-31.4009
-35.1094
-39.4416
-45.647
-8.73204
-9.35358
-9.99983
-10.7117
-11.4907
-12.3408
-13.2715
-14.295
-15.4262
-16.6838
-18.0914
-19.6798
-21.4882
-23.5657
-25.9737
-28.7871
-32.0736
-35.8247
-40.1907
-46.42
-9.00307
-9.636
-10.2926
-11.0179
-11.8119
-12.678
-13.6262
-14.6689
-15.8213
-17.1024
-18.5363
-20.1539
-21.9947
-24.1084
-26.5558
-29.4115
-32.7416
-36.5344
-40.9329
-47.1854
-9.27434
-9.91796
-10.5845
-11.323
-12.1317
-13.0135
-13.9788
-15.0405
-16.2139
-17.5182
-18.9779
-20.6244
-22.4975
-24.6468
-27.1333
-30.0307
-33.4036
-37.2373
-41.6671
-47.942
-9.54659
-10.1999
-10.8757
-11.6268
-12.4498
-13.3469
-14.329
-15.4092
-16.6032
-17.9304
-19.4157
-21.0907
-22.9956
-25.1801
-27.7052
-30.6436
-34.0584
-37.932
-42.3918
-48.6883
-9.82058
-10.4821
-11.1661
-11.9293
-12.7658
-13.6778
-14.6762
-15.7744
-16.9885
-18.3382
-19.8487
-21.5518
-23.488
-25.7073
-28.2702
-31.2489
-34.7048
-38.6175
-43.106
-49.4233
-10.0973
-10.7648
-11.4554
-12.2297
-13.0792
-14.0054
-15.0195
-16.1354
-17.3692
-18.7409
-20.276
-22.0067
-23.9738
-26.2271
-28.8272
-31.8454
-35.3415
-39.2923
-43.8083
-50.1459
-10.3764
-11.0469
-11.7423
-12.5268
-13.3888
-14.3286
-15.3581
-16.4911
-17.7441
-19.1374
-20.6966
-22.4544
-24.4517
-26.7385
-29.375
-32.4318
-35.967
-39.9551
-44.4979
-50.8555
-10.6574
-11.3259
-12.0243
-12.8188
-13.6931
-14.6465
-15.6908
-16.8405
-18.1123
-19.5267
-21.1096
-22.8939
-24.9207
-27.2402
-29.9123
-33.0066
-36.5799
-40.6043
-45.1736
-51.5521
-10.9329
-11.5935
-12.2951
-13.1022
-13.9901
-14.957
-16.0161
-17.1825
-18.4727
-19.9077
-21.5137
-23.3239
-25.3796
-27.731
-30.4376
-33.5682
-37.1783
-41.238
-45.834
-52.2372
-11.1842
-11.8297
-12.5503
-13.3781
-14.2803
-15.2602
-16.3337
-17.5162
-18.8244
-20.2794
-21.908
-23.7434
-25.8271
-28.2095
-30.9495
-34.1151
-37.7601
-41.8532
-46.4746
-52.9124
-1.58529
-1.83923
-2.18711
-2.57603
-2.99458
-3.44812
-3.94296
-4.48502
-5.0818
-5.74356
-6.48424
-7.32287
-8.28559
-9.40844
-10.7423
-12.3616
-14.3558
-16.7863
-19.9615
-25.3562
-1.73847
-2.00885
-2.3752
-2.77007
-3.19205
-3.65093
-4.15269
-4.70283
-5.30902
-5.98178
-6.7353
-7.58896
-8.56932
-9.71295
-11.0713
-12.7192
-14.7464
-17.2124
-20.4198
-25.8284
-1.88601
-2.18047
-2.55998
-2.96299
-3.39272
-3.85999
-4.37069
-4.93052
-5.5475
-6.23249
-7.00004
-7.86988
-8.86905
-10.0346
-11.4187
-13.0963
-15.1571
-17.6586
-20.8975
-26.3147
-2.05584
-2.36113
-2.74885
-3.16059
-3.59952
-4.07634
-4.59707
-5.16771
-5.79661
-6.49492
-7.27755
-8.16463
-9.18366
-10.3723
-11.783
-13.4914
-15.5868
-18.125
-21.3987
-26.8336
-2.23699
-2.54937
-2.94493
-3.36565
-3.81407
-4.30088
-4.83229
-5.41455
-6.05624
-6.7688
-7.56746
-8.47276
-9.51266
-10.7253
-12.1638
-13.9041
-16.0352
-18.6117
-21.9229
-27.3819
-2.42361
-2.74462
-3.14853
-3.57837
-4.03658
-4.53384
-5.07653
-5.6711
-6.32634
-7.05398
-7.86955
-8.794
-9.85577
-11.0935
-12.5609
-14.3342
-16.5024
-19.1183
-22.4683
-27.9543
-2.61725
-2.94777
-3.35993
-3.79892
-4.2672
-4.77534
-5.32984
-5.93732
-6.6068
-7.35026
-8.18357
-9.12806
-10.2126
-11.4766
-12.9739
-14.7814
-16.9877
-19.6441
-23.0337
-28.5486
-2.81928
-3.15929
-3.5795
-4.02763
-4.50617
-5.02551
-5.59225
-6.21316
-6.89748
-7.65745
-8.50926
-9.47462
-10.5829
-11.8739
-13.4023
-15.2451
-17.4907
-20.1887
-23.6186
-29.1635
-3.02948
-3.37904
-3.80727
-4.26458
-4.75355
-5.28437
-5.86371
-6.49851
-7.19822
-7.97532
-8.84633
-9.83334
-10.9662
-12.2853
-13.8456
-15.7247
-18.0106
-20.7513
-24.2223
-29.798
-3.24726
-3.60669
-4.04302
-4.50962
-5.0092
-5.55178
-6.14406
-6.79319
-7.50878
-8.3036
-9.19446
-10.2039
-11.3621
-12.7101
-14.3034
-16.2198
-18.547
-21.3312
-24.8439
-30.4511
-3.47219
-3.84187
-4.28646
-4.76248
-5.27288
-5.82747
-6.43305
-7.0969
-7.82886
-8.64194
-9.55328
-10.5858
-11.7702
-13.1479
-14.775
-16.7297
-19.0991
-21.9276
-25.4826
-31.1217
-3.70387
-4.08419
-4.53719
-5.0228
-5.54424
-6.11114
-6.73033
-7.4093
-8.1581
-8.98997
-9.92237
-10.9786
-12.1899
-13.5982
-15.26
-17.2537
-19.6662
-22.5398
-26.1374
-31.8087
-3.94184
-4.33319
-4.79479
-5.29016
-5.82289
-6.40237
-7.03552
-7.72999
-8.49606
-9.34722
-10.3013
-11.3819
-12.6208
-14.0603
-15.7577
-17.7913
-20.2477
-23.167
-26.8077
-32.5112
-4.18558
-4.58832
-5.05873
-5.5641
-6.10837
-6.70073
-7.34815
-8.05851
-8.84228
-9.71322
-10.6894
-11.795
-13.0622
-14.5338
-16.2674
-18.3417
-20.8427
-23.8084
-27.4924
-33.2283
-4.43454
-4.84904
-5.32849
-5.84409
-6.40017
-7.0057
-7.66773
-8.39435
-9.19623
-10.0874
-11.0863
-12.2175
-13.5135
-15.0178
-16.7884
-18.9041
-21.4504
-24.463
-28.1907
-33.9591
-4.68817
-5.11479
-5.6035
-6.12957
-6.69775
-7.31675
-7.99373
-8.73695
-9.55736
-10.4692
-11.4914
-12.6486
-13.9741
-15.5117
-17.32
-19.4778
-22.0699
-25.1301
-28.9018
-34.7027
-4.94592
-5.38497
-5.88318
-6.42
-7.00056
-7.63333
-8.32557
-9.08576
-9.92507
-10.8581
-11.9039
-13.0877
-14.4433
-16.0148
-17.8613
-20.0618
-22.7005
-25.8087
-29.625
-35.4587
-5.20723
-5.659
-6.16696
-6.71478
-7.30801
-7.95486
-8.66267
-9.44017
-10.2988
-11.2533
-12.3232
-13.5342
-14.9203
-16.5263
-18.4116
-20.6554
-23.341
-26.4977
-30.3591
-36.2267
-5.47156
-5.93632
-6.45423
-7.01334
-7.61953
-8.28075
-9.00444
-9.79957
-10.6778
-11.6542
-12.7486
-13.9871
-15.4043
-17.0453
-18.9699
-21.2573
-23.9904
-27.1959
-31.1034
-37.0073
-5.73841
-6.21638
-6.74447
-7.31514
-7.93456
-8.61044
-9.3503
-10.1634
-11.0615
-12.0602
-13.1796
-14.446
-15.8946
-17.571
-19.5352
-21.8667
-24.6473
-27.9016
-31.8549
-37.8012
-1.3375
-1.13077
-0.976981
-0.840243
-0.720165
-0.614208
-0.521258
-0.44052
-0.371494
-0.313821
-0.267235
-0.231524
-0.206518
-0.19208
-0.188075
-0.194287
-0.210502
-0.236847
-0.273511
-0.320265
-1.6673
-1.48386
-1.32609
-1.18413
-1.05922
-0.94879
-0.851872
-0.76766
-0.695641
-0.635438
-0.58677
-0.549414
-0.523187
-0.507938
-0.503523
-0.509769
-0.526518
-0.553786
-0.591667
-0.639822
-1.99977
-1.82421
-1.66646
-1.52335
-1.39631
-1.2837
-1.18482
-1.09899
-1.02574
-0.9647
-0.915599
-0.878215
-0.852364
-0.837887
-0.834637
-0.84246
-0.861238
-0.890919
-0.931358
-0.982817
-2.38344
-2.20621
-2.04542
-1.89935
-1.76873
-1.65261
-1.55052
-1.4619
-1.38634
-1.3235
-1.27311
-1.23495
-1.20881
-1.19455
-1.19199
-1.20101
-1.22147
-1.25331
-1.29639
-1.35076
-2.80209
-2.6224
-2.45764
-2.30762
-2.17278
-2.05261
-1.94678
-1.85486
-1.77651
-1.71142
-1.65934
-1.62003
-1.59331
-1.57901
-1.57696
-1.58702
-1.60906
-1.64298
-1.68866
-1.74607
-3.25327
-3.07035
-2.90141
-2.74706
-2.60776
-2.48332
-2.37355
-2.27814
-2.1968
-2.12929
-2.07535
-2.03477
-2.00737
-1.99296
-1.9914
-2.00252
-2.02619
-2.06229
-2.11068
-2.17132
-3.74315
-3.5555
-3.38164
-3.22236
-3.07816
-2.94906
-2.83499
-2.73575
-2.65113
-2.5809
-2.52485
-2.48279
-2.45452
-2.43988
-2.43871
-2.45084
-2.47615
-2.51448
-2.56569
-2.62976
-4.27852
-4.08465
-3.90479
-3.73971
-3.5899
-3.45553
-3.33661
-3.23304
-3.14465
-3.07128
-3.01274
-2.96885
-2.93943
-2.92431
-2.92334
-2.93635
-2.9632
-3.00374
-3.05781
-3.12537
-4.86707
-4.66554
-4.47844
-4.30648
-4.15016
-4.00971
-3.8852
-3.77662
-3.68385
-3.60677
-3.54521
-3.49902
-3.46804
-3.45209
-3.45102
-3.46467
-3.49289
-3.53551
-3.59238
-3.66348
-5.51895
-5.30818
-5.11243
-4.93231
-4.76833
-4.62076
-4.48973
-4.37525
-4.27729
-4.19575
-4.13049
-4.08138
-4.04826
-4.03097
-4.02937
-4.04329
-4.07257
-4.11704
-4.17655
-4.25108
-6.24788
-6.02608
-5.81999
-5.63018
-5.45711
-5.30111
-5.16233
-5.04084
-4.93663
-4.84963
-4.77976
-4.72688
-4.69085
-4.67153
-4.66876
-4.68239
-4.71226
-4.75818
-4.81997
-4.8977
-7.0726
-6.83764
-6.61921
-6.41779
-6.23388
-6.06778
-5.91969
-5.78972
-5.67789
-5.58416
-5.50846
-5.45068
-5.41069
-5.38836
-5.38354
-5.39608
-5.42581
-5.47251
-5.53604
-5.61648
-8.01883
-7.76818
-7.53496
-7.31961
-7.12263
-6.94434
-6.78497
-6.64464
-6.5234
-6.42125
-6.33812
-6.27394
-6.22858
-6.20192
-6.19381
-6.20411
-6.23263
-6.27916
-6.34353
-6.42587
-9.12213
-8.8527
-8.60171
-8.36955
-8.15675
-7.96364
-7.79046
-7.63737
-7.50444
-7.39168
-7.29905
-7.22647
-7.17386
-7.14107
-7.12799
-7.13445
-7.16027
-7.20522
-7.26911
-7.35214
-10.4328
-10.1409
-9.86845
-9.61596
-9.38394
-9.17274
-8.98263
-8.81376
-8.66623
-8.54006
-8.43523
-8.35169
-8.28933
-8.24805
-8.22771
-8.22817
-8.24923
-8.29062
-8.35214
-8.43405
-12.0244
-11.7056
-11.4075
-11.1305
-10.8752
-10.6419
-10.4311
-10.2427
-10.077
-9.93399
-9.81361
-9.71583
-9.64057
-9.58773
-9.55718
-9.54877
-9.5623
-9.59749
-9.65408
-9.73237
-13.9863
-13.6358
-13.3073
-13.0012
-12.7182
-12.4587
-12.2229
-12.0111
-11.8233
-11.6595
-11.5198
-11.4042
-11.3125
-11.2446
-11.2005
-11.1799
-11.1828
-11.2089
-11.2577
-11.3295
-16.38
-15.994
-15.6309
-15.2917
-14.9773
-14.6878
-14.4236
-14.1848
-13.9715
-13.7838
-13.6215
-13.4847
-13.3734
-13.2875
-13.2269
-13.1914
-13.181
-13.1954
-13.2344
-13.297
-19.5165
-19.0906
-18.6886
-18.3129
-17.9639
-17.6417
-17.3462
-17.0774
-16.8353
-16.62
-16.4313
-16.2693
-16.1341
-16.0254
-15.9432
-15.8874
-15.8579
-15.8551
-15.8786
-15.9265
-24.8531
-24.3823
-23.9458
-23.5407
-23.1648
-22.8171
-22.4973
-22.2052
-21.9408
-21.7041
-21.495
-21.3137
-21.1602
-21.0347
-20.9372
-20.8678
-20.8271
-20.8176
-20.8404
-20.8855
-0.377026
-0.443469
-0.519557
-0.605208
-0.700337
-0.804839
-0.918584
-1.04141
-1.1731
-1.31339
-1.46189
-1.61809
-1.78119
-1.94997
-2.12276
-2.2973
-2.4691
-2.62836
-2.75971
-2.88956
-0.69846
-0.767182
-0.845912
-0.934537
-1.03295
-1.14103
-1.25863
-1.38555
-1.52156
-1.66635
-1.81951
-1.98049
-2.14852
-2.32242
-2.50059
-2.68138
-2.86301
-3.03776
-3.19042
-3.36275
-1.04496
-1.11753
-1.20048
-1.29368
-1.397
-1.5103
-1.63341
-1.76612
-1.90818
-2.05925
-2.2189
-2.38657
-2.56152
-2.74272
-2.92881
-3.1186
-3.31111
-3.50199
-3.68549
-3.89157
-1.41633
-1.49276
-1.57998
-1.67785
-1.78622
-1.90494
-2.03382
-2.17261
-2.32106
-2.4788
-2.6454
-2.82031
-3.00281
-3.19201
-3.38682
-3.58638
-3.78989
-3.99503
-4.2023
-4.43209
-1.81517
-1.89561
-1.9873
-2.09008
-2.20381
-2.32828
-2.46331
-2.60864
-2.76398
-2.92896
-3.10316
-3.28603
-3.47693
-3.67508
-3.87966
-4.09007
-4.30567
-4.52545
-4.75204
-4.99859
-2.24425
-2.32898
-2.42548
-2.53356
-2.65306
-2.78379
-2.92551
-3.07797
-3.24088
-3.41385
-3.59648
-3.78826
-3.9886
-4.19685
-4.41239
-4.63481
-4.86372
-5.0989
-5.34309
-5.60416
-2.70673
-2.79598
-2.8976
-3.01136
-3.13708
-3.27455
-3.42354
-3.58378
-3.75496
-3.93674
-4.12869
-4.33036
-4.54123
-4.76075
-4.98846
-5.22406
-5.46734
-5.71851
-5.97979
-6.25561
-3.20638
-3.30053
-3.40758
-3.52736
-3.65972
-3.80442
-3.96123
-4.1299
-4.31009
-4.50148
-4.70368
-4.91625
-5.13875
-5.37071
-5.61177
-5.8617
-6.12041
-6.38823
-6.66673
-6.95837
-3.74879
-3.84784
-3.96052
-4.08662
-4.22598
-4.37837
-4.54355
-4.72125
-4.91118
-5.11299
-5.32633
-5.55081
-5.78601
-6.03155
-6.28713
-6.55255
-6.82777
-7.11306
-7.40943
-7.71826
-4.34067
-4.44467
-4.56318
-4.69578
-4.84242
-5.00288
-5.17689
-5.3642
-5.5645
-5.77749
-6.00282
-6.24013
-6.48906
-6.74927
-7.02049
-7.30253
-7.59534
-7.89909
-8.21432
-8.54184
-4.99139
-5.10028
-5.22442
-5.36373
-5.51783
-5.68659
-5.86978
-6.06713
-6.27835
-6.50314
-6.7412
-6.99218
-7.25575
-7.53161
-7.8195
-8.11922
-8.4307
-8.75393
-9.08919
-9.43694
-5.71387
-5.82736
-5.95703
-6.10269
-6.26426
-6.44138
-6.63388
-6.84152
-7.06401
-7.30105
-7.55238
-7.81769
-8.09665
-8.38897
-8.6944
-9.01275
-9.34386
-9.68761
-10.044
-10.4135
-6.52627
-6.64371
-6.77838
-6.93001
-7.09851
-7.28396
-7.4857
-7.70349
-7.93726
-8.18673
-8.45162
-8.73162
-9.02643
-9.33577
-9.65938
-9.99707
-10.3486
-10.7137
-11.0923
-11.4847
-7.45442
-7.57473
-7.71344
-7.87026
-8.04496
-8.23754
-8.44879
-8.67594
-8.92064
-9.18223
-9.46049
-9.75513
-10.0659
-10.3924
-10.7345
-11.0919
-11.4644
-11.8514
-12.2529
-12.6691
-8.5365
-8.658
-8.79912
-8.95966
-9.13943
-9.33797
-9.55481
-9.79219
-10.0475
-10.3203
-10.6111
-10.9198
-11.2462
-11.5898
-11.9502
-12.3271
-12.7204
-13.1295
-13.5541
-13.9945
-9.83246
-9.9526
-10.0937
-10.2556
-10.4383
-10.6413
-10.8642
-11.1071
-11.37
-11.6536
-11.9562
-12.2784
-12.6195
-12.9788
-13.3563
-13.7517
-14.165
-14.5955
-15.0427
-15.5068
-11.4239
-11.5395
-11.6777
-11.8384
-12.0212
-12.2259
-12.4523
-12.7001
-12.9693
-13.2599
-13.5728
-13.9066
-14.2596
-14.6311
-15.0224
-15.4338
-15.8651
-16.3153
-16.7834
-17.2694
-13.3815
-13.4895
-13.6218
-13.7779
-13.9566
-14.1583
-14.3832
-14.6312
-14.9019
-15.1949
-15.5095
-15.8459
-16.2058
-16.5898
-16.9962
-17.4236
-17.8715
-18.3397
-18.8272
-19.3331
-15.9967
-16.0886
-16.2046
-16.3461
-16.5144
-16.7088
-16.9284
-17.173
-17.442
-17.7352
-18.0519
-18.3919
-18.7553
-19.1428
-19.5541
-19.9888
-20.4465
-20.928
-21.4332
-21.9571
-20.9273
-20.9996
-21.1029
-21.2348
-21.3942
-21.5803
-21.7927
-22.031
-22.2949
-22.584
-22.8981
-23.2371
-23.6013
-23.9909
-24.4059
-24.8464
-25.3135
-25.8111
-26.3416
-26.8874
-27.4043
-22.4918
-19.8567
-17.7735
-15.9877
-14.4506
-13.0999
-11.8907
-10.7958
-9.79709
-8.88156
-8.0395
-7.26328
-6.5467
-5.88455
-5.27231
-4.70473
-4.17622
-3.69528
-3.29088
-27.949
-23.0426
-20.396
-18.2925
-16.4829
-14.9202
-13.5435
-12.3087
-11.1895
-10.1681
-9.23181
-8.37104
-7.57833
-6.84761
-6.17386
-5.55263
-4.97921
-4.45121
-3.98176
-3.57928
-28.5223
-23.6123
-20.9525
-18.8276
-16.9929
-15.4033
-13.9995
-12.7383
-11.594
-10.5493
-9.59166
-8.71168
-7.90198
-7.1565
-6.47018
-5.83851
-5.25687
-4.72296
-4.24638
-3.82439
-29.12
-24.2016
-21.5263
-19.3786
-17.5171
-15.8994
-14.4673
-13.1788
-12.0085
-10.9397
-9.96
-9.0601
-8.23255
-7.4712
-6.77078
-6.12651
-5.53352
-4.98885
-4.49926
-4.05853
-29.739
-24.8098
-22.1166
-19.9447
-18.055
-16.4077
-14.9462
-13.6293
-12.4322
-11.3385
-10.336
-9.41541
-8.56922
-7.79109
-7.07552
-6.4174
-5.81157
-5.25451
-4.75113
-4.29425
-30.3778
-25.4375
-22.7217
-20.525
-18.6057
-16.9274
-15.4355
-14.0891
-12.8644
-11.7449
-10.7189
-9.77695
-8.91142
-8.11581
-7.38434
-6.71166
-6.09236
-5.52257
-5.0059
-4.53493
-31.0352
-26.083
-23.341
-21.1185
-19.1683
-17.4579
-15.9343
-14.5576
-13.3042
-12.1584
-11.1082
-10.1442
-9.25884
-8.44526
-7.6975
-7.00996
-6.37708
-5.79475
-5.2655
-4.78185
-31.7098
-26.7444
-23.9745
-21.7244
-19.7421
-17.9983
-16.4419
-15.0338
-13.7511
-12.5781
-11.5032
-10.5168
-9.61116
-8.77931
-8.01505
-7.31257
-6.66618
-6.07159
-5.53034
-5.03492
-32.4005
-27.4203
-24.6212
-22.3419
-20.3261
-18.5477
-16.9574
-15.5172
-14.2043
-13.0036
-11.9034
-10.8942
-9.96803
-9.11774
-8.33688
-7.61948
-6.95971
-6.35311
-5.80025
-5.29364
-33.1059
-28.1094
-25.2803
-22.97
-20.9194
-19.1053
-17.4801
-16.0068
-14.6631
-13.4342
-12.3083
-11.276
-10.3291
-9.46019
-8.66272
-7.93043
-7.25739
-6.63893
-6.07472
-5.55729
-33.8248
-28.8107
-25.9506
-23.6077
-21.521
-19.67
-18.0091
-16.5019
-15.1268
-13.8691
-12.7172
-11.6616
-10.6937
-9.80622
-8.99211
-8.24499
-7.55876
-6.92852
-6.35311
-5.82509
-34.556
-29.523
-26.6309
-24.254
-22.13
-20.241
-18.5434
-17.0016
-15.5946
-14.3077
-13.1296
-12.0503
-11.0615
-10.1553
-9.32455
-8.56262
-7.86323
-7.22125
-6.6347
-6.09622
-35.2985
-30.2453
-27.3201
-24.9079
-22.7452
-20.8173
-19.0822
-17.5052
-16.0656
-14.7493
-13.5446
-12.4416
-11.4317
-10.5068
-9.65943
-8.88271
-8.17019
-7.51646
-6.91878
-6.36994
-36.0511
-30.9763
-28.017
-25.5681
-23.3657
-21.3979
-19.6244
-18.0116
-16.5391
-15.1929
-13.9615
-12.8348
-11.8037
-10.8601
-9.99611
-9.20462
-8.47896
-7.81346
-7.20463
-6.64551
-36.8128
-31.7148
-28.7203
-26.2334
-23.9902
-21.9816
-20.1692
-18.5199
-17.0142
-15.638
-14.3797
-13.2291
-12.1769
-11.2145
-10.3339
-9.52769
-8.78889
-8.11159
-7.49159
-6.92224
-37.5823
-32.4594
-29.4288
-26.9028
-24.6176
-22.5675
-20.7154
-19.0293
-17.4899
-16.0835
-14.7982
-13.6237
-12.5504
-11.5694
-10.6722
-9.85126
-9.09933
-8.41019
-7.77898
-7.19949
-38.3592
-33.2091
-30.1412
-27.5748
-25.2468
-23.1542
-21.2619
-19.5386
-17.9654
-16.5286
-15.2164
-14.018
-12.9236
-11.924
-11.0103
-10.1747
-9.40963
-8.70864
-8.0662
-7.47665
-39.1448
-33.9634
-30.8559
-28.2478
-25.8761
-23.7405
-21.8075
-20.0467
-18.4396
-16.9724
-15.6333
-14.4111
-13.2957
-12.2776
-11.3475
-10.4973
-9.71914
-9.00629
-8.35263
-7.75315
-39.9393
-34.721
-31.5709
-28.9202
-26.5043
-24.3252
-22.3513
-20.5528
-18.9117
-17.4142
-16.0481
-14.8023
-13.6661
-12.6295
-11.6831
-10.8184
-10.0272
-9.30256
-8.63771
-8.02849
-40.7301
-35.4769
-32.2848
-29.5911
-27.1307
-24.9079
-22.8927
-21.0565
-19.3812
-17.8534
-16.4605
-15.1911
-14.0342
-12.9793
-12.0168
-11.1376
-10.3335
-9.597
-8.92099
-8.30222
-6.78092
-4.67484
-3.31454
-2.26895
-1.53435
-0.994817
-0.607266
-0.332119
-0.141055
-0.0123318
0.0706759
0.1206
0.147026
0.157111
0.156168
0.14807
0.135632
0.120852
0.105141
0.0894657
0.0744716
0.0605694
0.0479953
0.0368692
0.0272122
0.019004
0.012151
0.00658833
0.00214649
-0.00120377
-0.00372518
-0.00531044
-0.00640695
-0.00660487
-0.00673827
-0.00581281
-0.00540472
-0.00348916
-0.00294545
3.74533e-05
-7.03662
-4.85723
-3.46081
-2.38412
-1.62541
-1.06846
-0.667337
-0.381743
-0.182436
-0.0470898
0.0413395
0.0957643
0.125971
0.139258
0.141046
0.135282
0.124843
0.111777
0.0975329
0.0831123
0.0691884
0.0561966
0.0443944
0.0339201