/*--------------------------------*- C++ -*----------------------------------*\
| =========                 |                                                 |
| \\      /  F ield         | OpenFOAM: The Open Source CFD Toolbox           |
|  \\    /   O peration     | Version:  v1912                                 |
|   \\  /    A nd           | Website:  www.openfoam.com                      |
|    \\/     M anipulation  |                                                 |
\*---------------------------------------------------------------------------*/
FoamFile
{
    version     2.0;
    format      ascii;
    class       volVectorField;
    location    "19";
    object      U;
}
// * * * * * * * * * * * * * * * * * * * * * * * * * * * * * * * * * * * * * //

dimensions      [0 1 -1 0 0 0 0];


internalField   nonuniform List<vector> 
19200
(
(0.00654109 -0.478822 -2.68612e-22)
(0.00478629 -0.440157 0)
(0.00270931 -0.404693 0)
(0.000299286 -0.372244 0)
(-0.00230526 -0.3426 0)
(-0.00496754 -0.315551 0)
(-0.00759468 -0.290889 -8.44722e-23)
(-0.0101201 -0.268417 8.32037e-23)
(-0.012496 -0.247945 0)
(-0.01469 -0.229297 0)
(-0.0166822 -0.212307 -1.55284e-22)
(-0.0184622 -0.196822 8.56236e-25)
(-0.0200272 -0.182701 1.49772e-22)
(-0.0213801 -0.169815 0)
(-0.0225285 -0.158046 1.42891e-22)
(-0.0234831 -0.147285 -7.73638e-25)
(-0.0242575 -0.137434 -1.37888e-22)
(-0.0248668 -0.128406 0)
(-0.0253277 -0.120118 0)
(-0.0256573 -0.1125 0)
(-0.0258735 -0.105486 0)
(-0.0259939 -0.0990174 0)
(-0.0260361 -0.0930427 1.21563e-22)
(-0.0260171 -0.0875152 -1.19836e-22)
(-0.025953 -0.0823939 0)
(-0.0258603 -0.0776423 0)
(-0.0257546 -0.0732286 -2.25067e-22)
(-0.0256405 -0.0691246 2.21979e-22)
(-0.0255074 -0.065304 0)
(-0.0254399 -0.0617415 0)
(0.0191066 -0.478003 -3.6202e-22)
(0.0163313 -0.438768 1.92629e-22)
(0.0133285 -0.402894 0)
(0.0100973 -0.370167 0)
(0.00677343 -0.340358 0)
(0.00348694 -0.313235 0)
(0.000323368 -0.288574 -6.84596e-22)
(-0.0026579 -0.266161 3.35799e-22)
(-0.00541594 -0.245794 -2.51778e-24)
(-0.00792497 -0.227285 -1.92094e-24)
(-0.0101711 -0.21046 -6.2804e-22)
(-0.0121497 -0.195158 6.14888e-22)
(-0.0138631 -0.18123 -3.01902e-22)
(-0.0153192 -0.168541 0)
(-0.0165301 -0.156969 0)
(-0.0175108 -0.146401 0)
(-0.0182785 -0.136735 0)
(-0.018852 -0.127879 0)
(-0.0192513 -0.119752 0)
(-0.0194966 -0.112277 0)
(-0.0196085 -0.10539 -2.55805e-22)
(-0.0196076 -0.0990289 0)
(-0.0195137 -0.0931421 -4.88686e-22)
(-0.0193461 -0.0876826 4.81745e-22)
(-0.0191232 -0.0826088 -4.6983e-22)
(-0.0188635 -0.0778846 4.63269e-22)
(-0.0185847 -0.0734785 0)
(-0.0182917 -0.069363 4.43379e-22)
(-0.0179706 -0.0655114 -4.37351e-22)
(-0.0177175 -0.0618999 4.7136e-22)
(0.0315846 -0.476898 -7.34852e-22)
(0.0277702 -0.43711 -3.84782e-22)
(0.02385 -0.400858 3.40539e-24)
(0.0198111 -0.367893 3.70591e-22)
(0.0157856 -0.337959 0)
(0.011898 -0.310802 -7.03574e-22)
(0.00822634 -0.286178 3.4831e-22)
(0.0048224 -0.263859 6.78113e-22)
(0.00171959 -0.24363 -3.35587e-22)
(-0.00106339 -0.22529 -6.45349e-22)
(-0.00351932 -0.208658 6.35566e-22)
(-0.00564969 -0.193562 0)
(-0.00746263 -0.17985 -6.05188e-22)
(-0.00897123 -0.16738 5.96048e-22)
(-0.0101923 -0.156024 -5.84112e-22)
(-0.0111453 -0.145666 0)
(-0.0118515 -0.1362 0)
(-0.0123337 -0.127532 0)
(-0.012615 -0.119577 0)
(-0.0127191 -0.112256 1.04451e-21)
(-0.0126697 -0.105504 -7.73519e-22)
(-0.01249 -0.0992576 1.00262e-21)
(-0.0122027 -0.093464 -9.88266e-22)
(-0.0118297 -0.0880756 -9.63108e-22)
(-0.0113916 -0.0830508 1.89377e-21)
(-0.0109093 -0.0783536 -1.85696e-21)
(-0.010403 -0.0739532 9.13105e-22)
(-0.00987786 -0.0698228 0)
(-0.00931544 -0.0659359 4.38826e-22)
(-0.00882357 -0.0622707 0)
(0.0440067 -0.475495 -1.47799e-21)
(0.0391265 -0.435197 7.87685e-22)
(0.0342824 -0.398607 -7.60365e-22)
(0.0294433 -0.365447 6.07619e-24)
(0.0247332 -0.33543 7.32563e-22)
(0.0202687 -0.308279 0)
(0.0161191 -0.28373 0)
(0.0123275 -0.26154 0)
(0.0089191 -0.24148 2.00239e-21)
(0.00590482 -0.223341 -4.2649e-24)
(0.00328465 -0.206928 -6.41703e-22)
(0.00105044 -0.192066 -1.24771e-21)
(-0.000812016 -0.178593 1.22882e-21)
(-0.00232139 -0.166362 1.19479e-21)
(-0.00349955 -0.155242 -5.92698e-22)
(-0.00437063 -0.145111 0)
(-0.00496026 -0.135861 0)
(-0.00529498 -0.127394 0)
(-0.00540177 -0.119623 0)
(-0.0053077 -0.112467 0)
(-0.0050396 -0.105859 1.0296e-21)
(-0.0046238 -0.0997337 -1.01475e-21)
(-0.00408589 -0.094038 0)
(-0.0034504 -0.0887234 -9.68293e-22)
(-0.0027407 -0.0837481 1.90374e-21)
(-0.00198032 -0.0790762 -1.86631e-21)
(-0.00119234 -0.0746778 9.17599e-22)
(-0.000382912 -0.0705266 8.94428e-22)
(0.000471934 -0.0665959 -2.19895e-21)
(0.00125411 -0.0628693 -9.51123e-22)
(0.0563758 -0.473784 7.41746e-22)
(0.0504067 -0.433035 1.59391e-21)
(0.0446317 -0.396158 1.55575e-21)
(0.0389993 -0.362849 7.52244e-22)
(0.033622 -0.332793 1.48009e-21)
(0.028606 -0.305689 8.7772e-24)
(0.0240102 -0.281255 1.42547e-21)
(0.0198678 -0.25923 2.08189e-21)
(0.0161947 -0.239373 6.86662e-22)
(0.0129934 -0.221463 1.32843e-21)
(0.010256 -0.205298 1.13299e-23)
(0.00796716 -0.190694 1.26832e-21)
(0.00610623 -0.177484 1.03782e-23)
(0.00464864 -0.165514 3.63455e-21)
(0.00356716 -0.154649 -3.55546e-21)
(0.00283278 -0.144763 2.32452e-21)
(0.0024154 -0.135745 0)
(0.00228438 -0.127493 0)
(0.0024089 -0.119918 1.08914e-21)
(0.00275834 -0.112938 0)
(0.00330251 -0.106481 1.04339e-21)
(0.00401188 -0.100485 1.01486e-21)
(0.0048578 -0.0948915 -1.00033e-21)
(0.00581283 -0.0896532 9.798e-22)
(0.0068508 -0.0847274 0)
(0.00794527 -0.0800784 0)
(0.00907011 -0.0756767 9.22125e-22)
(0.0102186 -0.0714965 9.03877e-22)
(0.0114192 -0.0675097 8.78143e-22)
(0.0125344 -0.063708 -1.91171e-21)
(0.0686875 -0.471766 -7.56389e-22)
(0.0616114 -0.430629 -1.59391e-21)
(0.0549017 -0.393522 -2.33527e-21)
(0.0484848 -0.360116 -7.55319e-22)
(0.0424597 -0.330069 -1.47378e-21)
(0.0369196 -0.303056 1.4751e-23)
(0.0319113 -0.278776 -1.4204e-21)
(0.0274569 -0.256952 -1.389e-21)
(0.023562 -0.237332 -1.35836e-21)
(0.0202196 -0.219682 -2.65947e-21)
(0.0174134 -0.203793 2.37931e-23)
(0.0151205 -0.189473 2.56601e-21)
(0.0133132 -0.176548 -1.23158e-21)
(0.0119608 -0.16486 1.23776e-21)
(0.0110305 -0.154269 3.57904e-21)
(0.0104882 -0.144645 -1.16156e-21)
(0.010299 -0.135874 0)
(0.0104283 -0.127852 1.12239e-21)
(0.010841 -0.120485 2.18791e-21)
(0.0115031 -0.113692 -3.20562e-21)
(0.0123807 -0.107396 1.05804e-21)
(0.013441 -0.101535 3.07173e-21)
(0.0146522 -0.0960491 9.9361e-22)
(0.0159837 -0.0908896 -3.92522e-21)
(0.0174064 -0.0860134 2.89736e-21)
(0.0188907 -0.0813847 0)
(0.0204073 -0.0769743 5.07422e-24)
(0.0219497 -0.0727565 1.81099e-21)
(0.0235506 -0.0687017 -5.97697e-24)
(0.0250439 -0.0648094 1.92329e-21)
(0.0809357 -0.469445 1.52333e-21)
(0.0727391 -0.427988 -1.63923e-21)
(0.0650955 -0.390711 0)
(0.0579066 -0.357263 -1.56227e-21)
(0.0512558 -0.327276 -1.50923e-21)
(0.0452216 -0.300399 -1.47932e-21)
(0.0398371 -0.276315 1.45309e-21)
(0.0351116 -0.25473 0)
(0.0310397 -0.23538 -1.39166e-21)
(0.027604 -0.218021 0)
(0.0247791 -0.202435 -2.64267e-21)
(0.022534 -0.188423 -2.58303e-21)
(0.0208337 -0.175806 -1.25552e-21)
(0.0196409 -0.164421 -1.2275e-21)
(0.0189169 -0.154122 1.20289e-21)
(0.0186224 -0.144778 -3.54059e-21)
(0.0187179 -0.13627 0)
(0.0191641 -0.128491 -1.12239e-21)
(0.0199221 -0.121346 9.28112e-24)
(0.0209539 -0.114749 -1.07408e-21)
(0.0222222 -0.108624 0)
(0.0236907 -0.102905 1.02869e-21)
(0.025324 -0.0975314 -3.03479e-21)
(0.0270885 -0.0924535 6.512e-24)
(0.0289517 -0.0876272 9.65278e-22)
(0.0308805 -0.083016 -1.22554e-23)
(0.0328421 -0.0785912 -9.39204e-22)
(0.0348297 -0.0743266 -4.55235e-21)
(0.0368808 -0.0701904 9.00908e-22)
(0.0388006 -0.0661901 0)
(0.093114 -0.466826 -1.2629e-23)
(0.0837885 -0.425119 0)
(0.0752164 -0.387738 -1.60386e-21)
(0.0672721 -0.354307 4.72883e-21)
(0.0600214 -0.324431 -1.80401e-23)
(0.0535263 -0.297738 1.49584e-21)
(0.0478045 -0.273891 2.9388e-21)
(0.0428517 -0.252583 -1.15019e-23)
(0.0386498 -0.233536 -1.45434e-23)
(0.0351707 -0.216498 1.36305e-21)
(0.032379 -0.201243 -2.67684e-21)
(0.0302351 -0.187563 3.92194e-21)
(0.0286962 -0.175276 -2.54259e-21)
(0.0277183 -0.164214 2.50419e-21)
(0.0272565 -0.154226 -2.42748e-21)
(0.0272662 -0.145178 1.89428e-23)
(0.027703 -0.136947 2.33677e-21)
(0.028523 -0.129426 0)
(0.0296833 -0.122514 1.10815e-21)
(0.0311419 -0.116125 -2.18286e-21)
(0.0328579 -0.11018 2.11843e-21)
(0.0347913 -0.10461 -1.55507e-23)
(0.0369033 -0.0993548 -2.04263e-21)
(0.0391567 -0.0943615 -9.92474e-22)
(0.0415156 -0.0895851 0)
(0.0439431 -0.0849886 9.5773e-22)
(0.046402 -0.0805429 0)
(0.0488854 -0.0762207 0)
(0.0514361 -0.0719869 0)
(0.0538293 -0.067858 0)
(0.105216 -0.463912 -3.20622e-21)
(0.0947585 -0.422032 3.38371e-21)
(0.0852686 -0.384614 -3.29997e-21)
(0.0765899 -0.35126 -1.58568e-21)
(0.0687691 -0.32155 -4.77977e-24)
(0.06185 -0.295089 1.78363e-23)
(0.0558334 -0.271522 -1.4776e-21)
(0.0506998 -0.250528 0)
(0.0464177 -0.231818 0)
(0.0429472 -0.215131 -3.0641e-23)
(0.0402425 -0.200232 -2.71948e-21)
(0.0382546 -0.186909 5.29541e-21)
(0.0369328 -0.174972 -2.17397e-23)
(0.036226 -0.164251 -2.53322e-21)
(0.0360832 -0.154591 2.4778e-21)
(0.0364539 -0.145855 -2.39641e-21)
(0.0372888 -0.137917 4.70167e-21)
(0.0385395 -0.130666 -2.30628e-21)
(0.0401591 -0.124 0)
(0.0421014 -0.117829 1.87589e-23)
(0.0443218 -0.112074 1.71923e-23)
(0.0467766 -0.106662 -1.88289e-25)
(0.0494235 -0.10153 0)
(0.0522214 -0.0966248 0)
(0.0551308 -0.091899 0)
(0.0581104 -0.0873144 -9.57729e-22)
(0.0611187 -0.0828413 0)
(0.0641481 -0.0784505 3.67131e-21)
(0.0672477 -0.0741021 -1.90663e-23)
(0.07016 -0.0698236 -7.81933e-21)
(0.117236 -0.46071 4.80393e-21)
(0.105649 -0.418735 -1.68711e-21)
(0.095257 -0.38135 -1.72865e-21)
(0.08587 -0.348136 0)
(0.0775135 -0.318648 0)
(0.0702115 -0.292467 0)
(0.0639461 -0.269224 0)
(0.0586814 -0.248582 -5.90894e-21)
(0.0543717 -0.230242 2.89238e-21)
(0.0509642 -0.213933 2.79198e-21)
(0.0484022 -0.199415 0)
(0.046627 -0.18647 -2.66173e-21)
(0.0455795 -0.174903 -2.60336e-21)
(0.0452012 -0.164541 2.27103e-23)
(0.0454345 -0.155226 2.52813e-23)
(0.0462234 -0.146816 -2.42213e-21)
(0.0475136 -0.139184 2.386e-21)
(0.0492521 -0.132216 -2.30956e-21)
(0.0513875 -0.125807 2.27552e-21)
(0.0538702 -0.119867 -2.20317e-21)
(0.0566513 -0.11431 -2.17217e-21)
(0.0596837 -0.109064 6.3144e-21)
(0.062921 -0.104063 -6.22375e-21)
(0.0663185 -0.0992495 4.02525e-21)
(0.0698326 -0.0945756 -3.96855e-21)
(0.0734177 -0.090001 0)
(0.0770271 -0.0854945 0)
(0.0806525 -0.0810244 -1.85964e-21)
(0.0843499 -0.0765445 0)
(0.0878257 -0.0720953 -5.90935e-21)
(0.129168 -0.457222 -1.68318e-21)
(0.116459 -0.415236 -2.38269e-23)
(0.105188 -0.377957 1.65382e-21)
(0.0951239 -0.344949 -1.64324e-21)
(0.0862712 -0.315739 -1.63125e-21)
(0.0786317 -0.289888 3.1714e-21)
(0.0721674 -0.26701 -3.94513e-23)
(0.066825 -0.246756 -3.01786e-21)
(0.0625432 -0.228817 2.93617e-21)
(0.0592559 -0.212915 2.83855e-21)
(0.0568946 -0.198801 -5.59827e-21)
(0.0553905 -0.186254 2.73394e-21)
(0.0546757 -0.175075 -2.66678e-21)
(0.0546841 -0.165088 0)
(0.0553517 -0.156131 0)
(0.0566165 -0.14806 -4.92486e-21)
(0.0584191 -0.140747 2.43767e-21)
(0.0607022 -0.134074 -2.33504e-21)
(0.0634101 -0.127934 2.102e-23)
(0.0664891 -0.122234 -7.94939e-25)
(0.0698868 -0.116886 4.36436e-21)
(0.0735521 -0.111814 2.10364e-21)
(0.077435 -0.106951 -2.10938e-21)
(0.0814867 -0.102235 0)
(0.0856594 -0.0976157 3.96609e-21)
(0.0899027 -0.0930502 -1.95615e-21)
(0.0941645 -0.0885057 0)
(0.0984356 -0.0839464 1.85963e-21)
(0.102779 -0.0793185 5.47345e-21)
(0.106862 -0.0746774 -1.98018e-21)
(0.141007 -0.453453 1.59287e-21)
(0.127192 -0.411543 -2.48918e-23)
(0.115069 -0.374445 -1.90214e-23)
(0.104365 -0.341709 -1.68953e-21)
(0.0950606 -0.312835 3.25055e-21)
(0.0871338 -0.287363 -6.35391e-21)
(0.080525 -0.264893 6.22934e-21)
(0.0751618 -0.245063 3.02827e-21)
(0.0709668 -0.227554 -2.89278e-23)
(0.0678595 -0.212082 -2.82901e-23)
(0.0657592 -0.198394 -3.42163e-23)
(0.0645865 -0.186263 5.63274e-24)
(0.0642644 -0.175489 -2.70288e-21)
(0.064719 -0.165889 2.59189e-23)
(0.0658794 -0.157302 2.52869e-23)
(0.0676782 -0.149583 4.97824e-21)
(0.0700505 -0.142599 -2.41526e-21)
(0.0729347 -0.136231 2.35678e-21)
(0.076271 -0.13037 4.60195e-21)
(0.0800018 -0.12492 -2.28934e-21)
(0.0840712 -0.119791 -2.19219e-21)
(0.0884241 -0.114903 2.14098e-21)
(0.0930069 -0.110185 0)
(0.0977666 -0.105574 -4.08669e-21)
(0.102651 -0.101013 3.39806e-23)
(0.107605 -0.096458 1.98479e-21)
(0.11257 -0.0918723 3.82253e-21)
(0.117536 -0.0872157 -3.77008e-21)
(0.122572 -0.0824244 1.8369e-21)
(0.127304 -0.0775711 3.36372e-23)
(0.152747 -0.449409 8.51745e-21)
(0.137847 -0.407664 1.84833e-21)
(0.124908 -0.370825 -1.72621e-21)
(0.113608 -0.338428 3.4423e-21)
(0.103902 -0.309947 6.68985e-21)
(0.0957434 -0.284904 1.26785e-23)
(0.0890487 -0.262881 0)
(0.0837259 -0.243509 0)
(0.0796798 -0.226459 0)
(0.0768154 -0.211441 2.96404e-21)
(0.0750388 -0.198196 0)
(0.0742598 -0.186497 0)
(0.0743919 -0.176138 2.74265e-21)
(0.0753531 -0.166937 -2.64002e-21)
(0.0770659 -0.158731 5.17358e-21)
(0.0794567 -0.151371 -5.07262e-21)
(0.082456 -0.144724 7.36448e-21)
(0.0859973 -0.13867 -2.40748e-21)
(0.0900173 -0.133098 2.35048e-21)
(0.0944546 -0.127907 -4.53663e-21)
(0.0992495 -0.123006 1.11325e-20)
(0.104344 -0.118312 -4.36249e-21)
(0.10968 -0.113749 6.34629e-21)
(0.1152 -0.10925 -2.11639e-21)
(0.120849 -0.104754 -2.03189e-21)
(0.126564 -0.100213 1.98344e-21)
(0.132282 -0.0955855 5.78777e-21)
(0.137991 -0.0908257 -3.79553e-21)
(0.143768 -0.0858576 1.85123e-21)
(0.14919 -0.0807729 -2.0303e-21)
(0.164383 -0.445094 7.1947e-23)
(0.148429 -0.403609 7.38018e-23)
(0.134716 -0.367106 3.61665e-21)
(0.122869 -0.335116 -3.47022e-21)
(0.112818 -0.307085 5.04382e-23)
(0.104488 -0.282518 -3.28431e-21)
(0.0977712 -0.260982 -3.21265e-21)
(0.0925537 -0.2421 6.34002e-21)
(0.0887226 -0.225534 0)
(0.0861668 -0.210989 -2.96405e-21)
(0.0847793 -0.198205 -2.89536e-21)
(0.0844583 -0.186948 2.85147e-21)
(0.0851076 -0.177015 -2.74265e-21)
(0.086637 -0.16822 0)
(0.0889621 -0.160399 -2.57479e-21)
(0.0920034 -0.153404 7.67486e-21)
(0.0956864 -0.147101 -2.47347e-21)
(0.0999405 -0.141367 4.85382e-21)
(0.104698 -0.13609 -1.18062e-20)
(0.109895 -0.131167 9.2178e-21)
(0.115469 -0.126504 -1.12235e-20)
(0.121356 -0.122013 4.4059e-21)
(0.127497 -0.117615 -2.12847e-21)
(0.133829 -0.113238 -2.07585e-21)
(0.140293 -0.108816 5.50441e-23)
(0.146821 -0.104295 5.98158e-21)
(0.153341 -0.0996288 -7.77072e-21)
(0.159841 -0.0947632 3.82185e-21)
(0.166403 -0.0896078 -1.85123e-21)
(0.172555 -0.0842751 2.06194e-21)
(0.175912 -0.440514 5.21213e-24)
(0.158941 -0.399382 -7.49933e-21)
(0.144505 -0.363295 -7.24866e-21)
(0.132167 -0.331782 -1.56094e-23)
(0.121833 -0.304259 -3.44725e-21)
(0.113398 -0.280213 3.39637e-21)
(0.106727 -0.259203 0)
(0.101685 -0.240838 -3.17562e-21)
(0.098138 -0.224779 0)
(0.0959599 -0.210725 0)
(0.0950294 -0.198412 -2.9419e-21)
(0.0952327 -0.187607 5.76167e-21)
(0.0964638 -0.178104 -2.821e-21)
(0.0986241 -0.169718 5.43044e-21)
(0.101622 -0.162286 -1.32764e-20)
(0.105372 -0.155658 5.20811e-21)
(0.109795 -0.1497 0)
(0.114817 -0.144289 -7.32331e-21)
(0.120365 -0.139311 4.811e-21)
(0.126374 -0.134662 0)
(0.132776 -0.130244 -2.28336e-21)
(0.139507 -0.125967 0)
(0.146501 -0.121746 2.12527e-21)
(0.153696 -0.117503 -8.42309e-21)
(0.161024 -0.113166 2.07164e-23)
(0.168413 -0.108674 -3.99486e-21)
(0.175784 -0.103977 -3.8847e-21)
(0.18312 -0.0990075 3.84904e-21)
(0.190513 -0.0936585 -3.73595e-21)
(0.197434 -0.0880651 4.03923e-21)
(0.187331 -0.435676 0)
(0.169388 -0.394989 0)
(0.154287 -0.359403 3.70768e-21)
(0.141521 -0.328434 -5.8968e-23)
(0.130974 -0.301474 -3.51567e-21)
(0.122505 -0.277995 3.46378e-21)
(0.115954 -0.257544 -3.33269e-21)
(0.11116 -0.239725 6.57711e-21)
(0.107971 -0.224192 -3.20588e-21)
(0.106243 -0.210641 -3.07332e-21)
(0.10584 -0.198808 3.58746e-23)
(0.106636 -0.188458 5.85594e-21)
(0.108515 -0.179386 2.79779e-21)
(0.11137 -0.171408 -2.78431e-21)
(0.115101 -0.164361 -5.36342e-21)
(0.119619 -0.158097 5.28303e-21)
(0.124838 -0.152482 2.57314e-21)
(0.13068 -0.147393 0)
(0.137071 -0.142716 0)
(0.14394 -0.138345 2.37185e-21)
(0.151219 -0.134179 6.84886e-21)
(0.15884 -0.130124 -8.94776e-21)
(0.166736 -0.126091 2.21812e-21)
(0.174839 -0.121996 1.06363e-20)
(0.183078 -0.117759 -2.10401e-21)
(0.191375 -0.113312 0)
(0.199643 -0.108595 3.95134e-21)
(0.207862 -0.103529 0)
(0.216128 -0.0979857 3.76029e-21)
(0.223857 -0.0921243 -6.10334e-21)
(0.198641 -0.430581 -3.63172e-21)
(0.179776 -0.390435 7.91461e-21)
(0.164074 -0.355438 3.85328e-21)
(0.150953 -0.32508 0)
(0.140268 -0.298737 -3.64802e-21)
(0.131844 -0.275868 0)
(0.12549 -0.256009 -3.4526e-21)
(0.121023 -0.238758 1.09216e-23)
(0.118269 -0.223766 -4.96194e-23)
(0.117066 -0.210728 -3.17641e-21)
(0.117264 -0.199378 -3.08875e-21)
(0.118724 -0.189482 -3.0033e-21)
(0.121319 -0.180837 0)
(0.124932 -0.173261 2.80278e-21)
(0.129459 -0.166592 -6.93747e-23)
(0.134802 -0.160683 -5.36186e-21)
(0.140871 -0.155404 -7.72283e-21)
(0.147586 -0.150631 2.53516e-21)
(0.154868 -0.146251 4.87404e-21)
(0.162644 -0.142157 -1.19176e-20)
(0.170845 -0.138246 2.33764e-21)
(0.179401 -0.134422 0)
(0.188242 -0.130589 0)
(0.197296 -0.126657 2.13133e-21)
(0.20649 -0.122539 -6.3073e-21)
(0.215738 -0.118155 0)
(0.224947 -0.113436 -1.98321e-21)
(0.234092 -0.108289 0)
(0.243276 -0.102557 0)
(0.251849 -0.0964279 8.30776e-21)
(0.209839 -0.425234 -7.59583e-21)
(0.190115 -0.385733 -3.96019e-21)
(0.17388 -0.351405 -3.85329e-21)
(0.160487 -0.321723 0)
(0.149745 -0.296051 7.37466e-21)
(0.141448 -0.273832 -3.56283e-21)
(0.135376 -0.254594 3.49728e-21)
(0.131318 -0.237933 3.41301e-21)
(0.12908 -0.223494 3.32956e-21)
(0.128481 -0.210973 6.36146e-21)
(0.129356 -0.200105 -4.79923e-23)
(0.131552 -0.190658 4.05527e-23)
(0.134932 -0.18243 5.92812e-21)
(0.13937 -0.175243 -5.68685e-21)
(0.144754 -0.168937 5.60125e-21)
(0.150979 -0.16337 5.37308e-21)
(0.157954 -0.158411 -1.05162e-20)
(0.16559 -0.153942 1.02582e-20)
(0.17381 -0.14985 -4.93758e-21)
(0.182538 -0.146028 4.86527e-21)
(0.191702 -0.142373 3.08574e-23)
(0.201231 -0.138784 9.14837e-21)
(0.211054 -0.135162 -4.47978e-21)
(0.221099 -0.13141 6.48569e-21)
(0.231286 -0.127431 -2.14607e-21)
(0.241527 -0.123135 0)
(0.251718 -0.118441 0)
(0.261831 -0.113235 -5.81021e-21)
(0.271973 -0.107332 7.66802e-21)
(0.281427 -0.100944 2.05163e-21)
(0.220922 -0.41964 7.72948e-21)
(0.200412 -0.380886 0)
(0.183724 -0.347308 3.95787e-21)
(0.170145 -0.31837 -3.90116e-21)
(0.159435 -0.293419 8.22173e-23)
(0.151355 -0.271887 3.63767e-21)
(0.145652 -0.253298 -3.58344e-21)
(0.142091 -0.237241 0)
(0.140454 -0.223363 -3.32957e-21)
(0.140541 -0.21136 6.48984e-21)
(0.142171 -0.200968 -6.39145e-21)
(0.145178 -0.191959 3.06926e-21)
(0.149414 -0.184133 -1.1984e-20)
(0.154744 -0.177316 7.99995e-23)
(0.161046 -0.171353 1.13102e-20)
(0.168212 -0.166105 -5.53194e-21)
(0.176143 -0.161446 5.30068e-21)
(0.18475 -0.157261 -7.79638e-21)
(0.193951 -0.15344 -5.00461e-21)
(0.20367 -0.149878 4.93133e-21)
(0.213833 -0.146472 -7.09329e-21)
(0.22437 -0.14312 4.65977e-21)
(0.235208 -0.139719 0)
(0.246275 -0.136163 -2.17806e-21)
(0.25749 -0.132348 0)
(0.268758 -0.12817 0)
(0.279968 -0.123534 -8.04234e-21)
(0.291088 -0.118302 5.96847e-21)
(0.302227 -0.112255 7.66997e-21)
(0.312598 -0.10563 -1.67419e-20)
(0.231887 -0.413803 -3.94094e-21)
(0.210677 -0.375901 4.24078e-21)
(0.193622 -0.343156 4.04926e-21)
(0.179951 -0.315024 -3.99124e-21)
(0.169369 -0.290842 -3.80888e-21)
(0.161601 -0.270032 -3.71587e-21)
(0.156362 -0.252114 5.04751e-23)
(0.153388 -0.236674 7.06244e-21)
(0.15244 -0.223361 -3.45373e-21)
(0.153298 -0.211872 0)
(0.155764 -0.201945 0)
(0.15966 -0.193357 6.23732e-21)
(0.164824 -0.185911 -6.14289e-21)
(0.171112 -0.179439 0)
(0.178396 -0.173791 0)
(0.186559 -0.168833 0)
(0.195499 -0.164445 0)
(0.205123 -0.160515 0)
(0.215345 -0.15694 -5.07539e-21)
(0.22609 -0.153617 5.00107e-21)
(0.237283 -0.150446 4.78833e-21)
(0.248854 -0.147325 -4.71922e-21)
(0.260734 -0.144149 0)
(0.272847 -0.140805 0)
(0.285115 -0.13718 0)
(0.297438 -0.133156 0)
(0.309699 -0.12862 0)
(0.32186 -0.123409 0)
(0.334035 -0.117258 0)
(0.345358 -0.110434 0)
(0.242729 -0.407727 0)
(0.220917 -0.370782 0)
(0.203593 -0.338951 0)
(0.189932 -0.311687 0)
(0.179581 -0.288319 7.96848e-21)
(0.172225 -0.268262 7.73596e-21)
(0.167547 -0.251033 3.82227e-21)
(0.165256 -0.23622 1.09208e-20)
(0.165088 -0.223472 0)
(0.166804 -0.212488 0)
(0.170189 -0.203011 1.32081e-20)
(0.175051 -0.194821 -1.28021e-20)
(0.181218 -0.18773 1.86945e-20)
(0.188534 -0.181571 1.04915e-23)
(0.196862 -0.176202 5.90225e-21)
(0.20608 -0.171496 9.13596e-23)
(0.21608 -0.167339 1.11065e-20)
(0.226764 -0.163627 5.30671e-21)
(0.238045 -0.160261 1.15703e-24)
(0.249846 -0.157146 4.99868e-21)
(0.262095 -0.154186 -4.926e-21)
(0.274721 -0.151281 0)
(0.287658 -0.148326 4.63766e-21)
(0.300833 -0.145206 4.50225e-21)
(0.314169 -0.141795 4.37225e-21)
(0.327566 -0.137965 4.24861e-21)
(0.340901 -0.133582 8.16943e-21)
(0.354133 -0.128451 -1.23781e-22)
(0.367377 -0.122256 -1.55931e-20)
(0.379687 -0.115288 -2.13774e-22)
(0.253447 -0.40142 1.26138e-20)
(0.231138 -0.365536 -4.45409e-21)
(0.213656 -0.334697 4.41275e-21)
(0.200114 -0.308358 -4.22023e-21)
(0.190102 -0.285846 -2.01233e-20)
(0.183264 -0.26657 4.11758e-21)
(0.179249 -0.250047 -1.12773e-20)
(0.177739 -0.235865 3.86968e-21)
(0.178444 -0.223677 -1.29652e-22)
(0.181108 -0.213185 -6.98692e-21)
(0.185498 -0.204138 -6.5419e-21)
(0.191407 -0.196322 6.57513e-21)
(0.198651 -0.189551 -6.27047e-21)
(0.207064 -0.183668 6.20624e-21)
(0.2165 -0.178537 -1.19032e-20)
(0.226831 -0.174037 1.0119e-22)
(0.23794 -0.170063 -1.11145e-20)
(0.249728 -0.166518 5.38843e-21)
(0.262104 -0.163313 1.00557e-24)
(0.274989 -0.16036 -8.06192e-23)
(0.288312 -0.157572 -1.49143e-20)
(0.302005 -0.154855 4.84892e-21)
(0.316005 -0.152107 -9.3359e-21)
(0.330246 -0.149211 5.44498e-23)
(0.344653 -0.146037 -1.30977e-20)
(0.35913 -0.142443 4.355e-21)
(0.373552 -0.138274 -8.23428e-21)
(0.387877 -0.133297 8.1213e-21)
(0.402221 -0.127138 3.91321e-21)
(0.415553 -0.120104 0)
(0.264038 -0.394886 2.19368e-22)
(0.241351 -0.360166 9.14921e-21)
(0.22383 -0.330393 -8.65692e-21)
(0.210524 -0.305035 -2.03847e-22)
(0.200964 -0.283417 1.6503e-20)
(0.194754 -0.264948 1.83393e-22)
(0.191509 -0.249141 -7.85078e-21)
(0.190879 -0.235592 -7.44744e-21)
(0.192555 -0.223956 7.22401e-21)
(0.196258 -0.213941 -7.15447e-21)
(0.201739 -0.2053 -6.79536e-21)
(0.208776 -0.197826 0)
(0.217173 -0.191339 6.40197e-21)
(0.226754 -0.18569 -1.88187e-20)
(0.237363 -0.180747 0)
(0.248864 -0.176399 -5.82753e-21)
(0.261134 -0.17255 0)
(0.274069 -0.169112 -9.44533e-23)
(0.287573 -0.166005 -2.23073e-25)
(0.301567 -0.163154 -5.23539e-21)
(0.315979 -0.160482 4.03429e-24)
(0.330745 -0.157905 9.75869e-21)
(0.345805 -0.15533 -7.11846e-23)
(0.361101 -0.152645 4.53706e-21)
(0.376568 -0.149719 -1.34373e-20)
(0.392115 -0.146399 0)
(0.407622 -0.142511 0)
(0.42305 -0.13778 -4.07165e-21)
(0.438517 -0.131759 -3.91322e-21)
(0.452905 -0.124767 -8.71761e-21)
(0.274502 -0.388132 -8.69412e-21)
(0.251565 -0.354672 -1.37428e-20)
(0.234134 -0.326039 -4.56506e-21)
(0.221188 -0.301714 8.60748e-21)
(0.2122 -0.281026 -8.34829e-21)
(0.206732 -0.263381 -8.09608e-21)
(0.204363 -0.248301 7.85083e-21)
(0.204718 -0.235382 7.78307e-21)
(0.207462 -0.224286 0)
(0.212296 -0.214728 7.15452e-21)
(0.218955 -0.206468 0)
(0.227202 -0.199302 0)
(0.236829 -0.19306 0)
(0.247649 -0.187596 6.31619e-21)
(0.259497 -0.182789 0)
(0.272227 -0.178534 0)
(0.285711 -0.174743 5.75512e-21)
(0.299836 -0.17134 5.57816e-21)
(0.314505 -0.168256 0)
(0.329632 -0.165428 0)
(0.345145 -0.162793 5.15545e-21)
(0.360984 -0.160285 -4.9919e-21)
(0.377092 -0.157823 4.83261e-21)
(0.393422 -0.155311 0)
(0.409918 -0.152622 4.47166e-21)
(0.426506 -0.149603 0)
(0.443076 -0.146062 0)
(0.459599 -0.141681 8.17102e-21)
(0.476205 -0.135929 0)
(0.491683 -0.12912 0)
(0.284839 -0.381159 0)
(0.261792 -0.349058 0)
(0.244588 -0.321632 9.09421e-21)
(0.232133 -0.298387 0)
(0.22384 -0.278658 -4.29004e-21)
(0.21923 -0.261856 4.2267e-21)
(0.217849 -0.247505 -8.05677e-21)
(0.219292 -0.235212 1.59188e-20)
(0.223201 -0.224643 2.17701e-23)
(0.229258 -0.215521 -7.46742e-21)
(0.237182 -0.207612 1.43291e-20)
(0.246721 -0.20072 1.51541e-23)
(0.257654 -0.194679 6.78371e-21)
(0.269785 -0.189353 0)
(0.282937 -0.184625 1.26109e-20)
(0.296958 -0.180399 -1.2206e-20)
(0.31171 -0.176595 1.19294e-20)
(0.327074 -0.173147 -1.13504e-20)
(0.342944 -0.169996 1.11889e-20)
(0.359233 -0.167095 5.41772e-21)
(0.375864 -0.164397 8.84583e-23)
(0.392776 -0.161855 4.99193e-21)
(0.409917 -0.159413 -4.83264e-21)
(0.427247 -0.156994 4.74583e-21)
(0.444729 -0.154494 4.58659e-21)
(0.462305 -0.151771 0)
(0.479888 -0.14863 -4.14994e-21)
(0.497475 -0.14471 2.18483e-22)
(0.515219 -0.139385 1.98853e-20)
(0.531817 -0.132939 -4.26487e-21)
(0.295048 -0.373973 4.81805e-21)
(0.272043 -0.343322 -9.77648e-21)
(0.255213 -0.317166 8.31784e-23)
(0.243384 -0.295044 9.34178e-21)
(0.235912 -0.2763 8.86304e-21)
(0.232279 -0.260352 4.35752e-21)
(0.231996 -0.246733 8.41051e-21)
(0.234631 -0.235056 8.16574e-21)
(0.239803 -0.224999 -2.33027e-20)
(0.247175 -0.216289 1.50807e-20)
(0.256448 -0.208702 -1.46214e-20)
(0.267359 -0.202047 1.49044e-22)
(0.279674 -0.196167 -6.78375e-21)
(0.293185 -0.19093 -6.70506e-21)
(0.307709 -0.186226 -6.36302e-21)
(0.323082 -0.181966 1.24546e-20)
(0.339159 -0.178076 -1.81305e-20)
(0.355814 -0.174497 0)
(0.372933 -0.171183 -5.59607e-21)
(0.39042 -0.168098 -5.41775e-21)
(0.408194 -0.165214 -1.04851e-20)
(0.426189 -0.162504 5.16548e-21)
(0.444354 -0.15994 9.79883e-21)
(0.462653 -0.157482 -1.44055e-20)
(0.481064 -0.155059 -4.58661e-21)
(0.499555 -0.152566 -8.82065e-21)
(0.518069 -0.149829 4.41718e-21)
(0.536653 -0.146466 -1.22867e-20)
(0.555512 -0.141744 4.08845e-21)
(0.573259 -0.13589 -4.26056e-21)
(0.305132 -0.366575 1.96387e-22)
(0.282334 -0.337462 4.81366e-21)
(0.266031 -0.312634 9.8075e-21)
(0.254966 -0.29167 -4.61534e-21)
(0.248444 -0.273932 -9.08068e-21)
(0.245906 -0.258846 -8.60925e-21)
(0.246832 -0.245956 -4.11869e-21)
(0.250762 -0.234886 -8.14312e-21)
(0.257292 -0.225321 8.06309e-21)
(0.266066 -0.217001 0)
(0.276771 -0.209706 7.3891e-21)
(0.289131 -0.203254 -7.15354e-21)
(0.302899 -0.197495 -7.07283e-21)
(0.317859 -0.192302 6.7051e-21)
(0.333819 -0.187571 -6.62591e-21)
(0.350606 -0.183217 -6.28515e-21)
(0.368068 -0.179172 5.96863e-21)
(0.386071 -0.175382 -6.00118e-21)
(0.404493 -0.171808 0)
(0.423229 -0.168424 0)
(0.442191 -0.165213 0)
(0.461302 -0.162171 1.03204e-20)
(0.480505 -0.159299 -1.01726e-20)
(0.499764 -0.156597 0)
(0.519064 -0.154048 0)
(0.538392 -0.151612 0)
(0.557735 -0.149184 0)
(0.57721 -0.14641 -4.18955e-21)
(0.597135 -0.142477 -7.91232e-21)
(0.616064 -0.137505 4.29669e-21)
(0.315097 -0.358968 5.09508e-21)
(0.292683 -0.331472 -5.20034e-21)
(0.277061 -0.30802 -1.47292e-20)
(0.266901 -0.288244 1.45858e-20)
(0.261458 -0.271529 -4.61017e-21)
(0.260134 -0.25731 4.54211e-21)
(0.262378 -0.245144 1.803e-22)
(0.267702 -0.234668 2.53839e-20)
(0.275682 -0.225577 -1.62908e-20)
(0.285944 -0.217621 7.97887e-21)
(0.298159 -0.210589 7.71885e-21)
(0.312038 -0.204309 7.32241e-21)
(0.327326 -0.198634 7.0867e-21)
(0.343798 -0.193446 -6.8572e-21)
(0.361253 -0.188644 1.35092e-20)
(0.379513 -0.184148 6.53682e-21)
(0.398419 -0.179891 6.20796e-21)
(0.417831 -0.175822 -6.01553e-21)
(0.43762 -0.171904 1.17476e-20)
(0.457673 -0.168114 -5.73552e-21)
(0.477892 -0.164441 0)
(0.498189 -0.160892 0)
(0.518495 -0.157489 0)
(0.538761 -0.154268 9.79976e-21)
(0.558963 -0.151273 -9.66171e-21)
(0.579096 -0.148557 0)
(0.599175 -0.146147 0)
(0.619404 -0.143829 4.18957e-21)
(0.640313 -0.140784 -7.88327e-21)
(0.6605 -0.136985 1.27158e-20)
(0.324978 -0.351159 6.91635e-23)
(0.303119 -0.325341 -5.33977e-21)
(0.288327 -0.303302 -1.03163e-20)
(0.279208 -0.284741 -4.85226e-21)
(0.27497 -0.269061 4.83896e-21)
(0.274977 -0.255711 -9.3319e-21)
(0.278646 -0.244262 -8.81394e-21)
(0.285463 -0.234364 -8.52633e-21)
(0.294981 -0.225726 0)
(0.306809 -0.218109 -1.59754e-20)
(0.320605 -0.211314 8.04782e-21)
(0.336068 -0.205175 -7.48238e-21)
(0.352935 -0.199555 7.52665e-21)
(0.370971 -0.194339 0)
(0.389972 -0.189434 -6.76566e-21)
(0.409756 -0.184761 6.68713e-21)
(0.430159 -0.180254 6.47166e-21)
(0.451038 -0.175862 0)
(0.472261 -0.171546 0)
(0.493713 -0.167277 0)
(0.515286 -0.163039 5.67901e-21)
(0.536887 -0.158834 -5.25969e-21)
(0.558429 -0.154681 1.06001e-20)
(0.579842 -0.150626 5.13191e-21)
(0.601075 -0.146744 0)
(0.622089 -0.143163 0)
(0.642863 -0.14007 -4.24547e-21)
(0.663629 -0.137474 1.29963e-20)
(0.685228 -0.134665 0)
(0.706657 -0.131716 0)
(0.334836 -0.343119 -1.02548e-20)
(0.313675 -0.319023 5.48092e-21)
(0.299841 -0.298443 5.14212e-21)
(0.291895 -0.281128 9.6024e-23)
(0.288988 -0.266497 -4.7193e-21)
(0.290444 -0.254015 9.33198e-21)
(0.295643 -0.243272 0)
(0.304047 -0.233934 0)
(0.315186 -0.225727 0)
(0.328653 -0.218423 -8.1772e-21)
(0.344093 -0.211837 1.61632e-22)
(0.361194 -0.205812 0)
(0.379685 -0.200221 -7.38304e-21)
(0.399328 -0.194955 0)
(0.419913 -0.189926 0)
(0.441255 -0.185058 -1.33863e-20)
(0.463193 -0.180288 1.27477e-22)
(0.485584 -0.175563 0)
(0.508299 -0.170838 0)
(0.531228 -0.166076 5.88039e-21)
(0.554269 -0.161247 -1.14739e-20)
(0.577335 -0.156328 -1.65097e-20)
(0.600345 -0.151309 1.08575e-20)
(0.623226 -0.146191 -5.13194e-21)
(0.645912 -0.141 0)
(0.668329 -0.135819 0)
(0.690373 -0.130816 -4.55845e-21)
(0.712137 -0.126029 -4.31328e-21)
(0.734475 -0.120956 7.70033e-21)
(0.756987 -0.116917 -8.28726e-21)
(0.541054 -0.00585909 8.06571e-22)
(0.537971 -0.0199772 1.06298e-21)
(0.534557 -0.0338837 3.18458e-21)
(0.530812 -0.0476107 4.21092e-21)
(0.526726 -0.0611625 -2.12049e-21)
(0.522308 -0.0745355 2.0971e-21)
(0.51757 -0.0877244 4.0565e-23)
(0.512524 -0.100724 -4.15863e-21)
(0.507183 -0.113529 8.06277e-21)
(0.50156 -0.126134 -1.21038e-20)
(0.495666 -0.138538 7.87107e-21)
(0.489513 -0.150736 -1.172e-20)
(0.483113 -0.162726 -1.14783e-20)
(0.476476 -0.174506 1.27675e-22)
(0.469612 -0.186076 1.75131e-22)
(0.462532 -0.197434 0)
(0.455243 -0.20858 7.13184e-21)
(0.447754 -0.219514 1.40517e-20)
(0.440074 -0.230236 -1.38385e-20)
(0.432209 -0.240746 6.64105e-21)
(0.424167 -0.251046 0)
(0.415954 -0.261135 -1.90966e-20)
(0.407575 -0.271016 2.95152e-22)