/*--------------------------------*- C++ -*----------------------------------*\
| =========                 |                                                 |
| \\      /  F ield         | OpenFOAM: The Open Source CFD Toolbox           |
|  \\    /   O peration     | Version:  v1912                                 |
|   \\  /    A nd           | Website:  www.openfoam.com                      |
|    \\/     M anipulation  |                                                 |
\*---------------------------------------------------------------------------*/
FoamFile
{
    version     2.0;
    format      ascii;
    class       volScalarField;
    location    "9";
    object      p;
}
// * * * * * * * * * * * * * * * * * * * * * * * * * * * * * * * * * * * * * //

dimensions      [0 2 -2 0 0 0 0];


internalField   nonuniform List<scalar> 
19200
(
-0.410947
-0.405913
-0.40222
-0.399076
-0.396161
-0.393468
-0.390955
-0.388572
-0.386283
-0.384064
-0.381895
-0.379764
-0.377659
-0.375577
-0.373512
-0.371463
-0.369429
-0.367411
-0.36541
-0.363428
-0.361465
-0.359523
-0.357605
-0.355711
-0.353842
-0.352005
-0.350199
-0.348364
-0.34647
-0.345137
-0.414179
-0.409052
-0.405352
-0.402198
-0.399255
-0.396517
-0.393944
-0.391488
-0.389117
-0.386806
-0.384538
-0.382302
-0.380089
-0.377895
-0.375716
-0.373553
-0.371405
-0.369273
-0.367159
-0.365066
-0.362994
-0.360947
-0.358926
-0.356933
-0.354969
-0.353042
-0.35115
-0.349226
-0.34723
-0.34588
-0.418003
-0.412677
-0.408905
-0.405703
-0.402704
-0.399899
-0.397248
-0.394703
-0.392233
-0.389815
-0.387435
-0.385081
-0.382747
-0.380428
-0.378124
-0.375835
-0.373561
-0.371304
-0.369067
-0.366853
-0.364663
-0.362502
-0.36037
-0.35827
-0.356204
-0.354181
-0.352199
-0.350179
-0.34807
-0.346709
-0.422197
-0.416729
-0.412879
-0.409607
-0.406529
-0.403636
-0.400887
-0.398235
-0.395649
-0.39311
-0.390601
-0.388115
-0.385645
-0.38319
-0.380747
-0.378319
-0.375907
-0.373514
-0.371143
-0.368798
-0.366481
-0.364195
-0.361944
-0.359729
-0.357554
-0.355427
-0.35335
-0.351229
-0.348989
-0.34761
-0.426814
-0.421216
-0.417277
-0.413914
-0.410736
-0.407736
-0.40487
-0.402093
-0.399375
-0.396697
-0.394046
-0.391413
-0.388793
-0.386187
-0.383593
-0.381014
-0.378452
-0.375911
-0.373395
-0.370907
-0.368452
-0.366033
-0.363654
-0.361316
-0.359023
-0.356787
-0.354607
-0.352376
-0.34998
-0.348527
-0.43189
-0.426151
-0.422104
-0.418632
-0.415336
-0.412208
-0.409207
-0.406288
-0.403421
-0.400588
-0.397778
-0.394983
-0.3922
-0.389429
-0.38667
-0.383926
-0.381202
-0.378501
-0.375828
-0.373187
-0.370583
-0.368021
-0.365505
-0.363036
-0.36062
-0.35827
-0.355988
-0.353647
-0.351125
-0.349739
-0.437447
-0.431544
-0.427373
-0.423772
-0.420338
-0.417064
-0.41391
-0.41083
-0.407797
-0.404793
-0.401808
-0.398836
-0.395874
-0.392924
-0.389986
-0.387065
-0.384165
-0.381292
-0.378449
-0.375644
-0.37288
-0.370165
-0.367501
-0.364893
-0.362346
-0.359877
-0.357486
-0.355027
-0.352376
-0.351086
-0.4435
-0.437408
-0.433095
-0.429345
-0.425753
-0.422314
-0.418987
-0.415729
-0.412512
-0.40932
-0.406145
-0.40298
-0.399824
-0.39668
-0.39355
-0.390437
-0.387349
-0.384289
-0.381265
-0.378283
-0.375348
-0.372467
-0.369646
-0.366888
-0.364201
-0.361604
-0.359097
-0.356514
-0.353714
-0.352502
-0.450065
-0.443754
-0.43928
-0.435363
-0.431592
-0.427967
-0.424449
-0.420994
-0.417575
-0.414179
-0.410796
-0.407423
-0.404058
-0.400706
-0.397368
-0.39405
-0.390759
-0.3875
-0.384281
-0.381109
-0.37799
-0.374932
-0.371941
-0.369023
-0.366186
-0.363451
-0.360821
-0.358104
-0.355142
-0.354008
-0.457154
-0.450594
-0.445939
-0.441833
-0.437864
-0.434034
-0.430305
-0.426633
-0.422995
-0.419377
-0.41577
-0.412173
-0.408584
-0.405008
-0.401448
-0.397911
-0.394403
-0.390932
-0.387504
-0.384128
-0.380812
-0.377564
-0.374391
-0.3713
-0.368301
-0.365418
-0.362656
-0.359796
-0.356656
-0.355611
-0.464781
-0.457938
-0.453084
-0.448768
-0.444578
-0.440522
-0.436562
-0.432656
-0.428781
-0.424923
-0.421076
-0.417238
-0.413409
-0.409595
-0.405799
-0.402028
-0.398289
-0.39459
-0.390939
-0.387346
-0.383819
-0.380367
-0.376999
-0.373722
-0.370548
-0.367507
-0.364602
-0.361586
-0.358256
-0.35731
-0.472958
-0.465796
-0.460724
-0.456176
-0.451743
-0.447441
-0.44323
-0.43907
-0.434939
-0.430824
-0.42672
-0.422625
-0.418542
-0.414474
-0.410427
-0.406407
-0.402423
-0.398483
-0.394595
-0.39077
-0.387017
-0.383346
-0.379769
-0.376292
-0.37293
-0.369717
-0.366658
-0.363475
-0.359938
-0.359106
-0.481699
-0.474176
-0.468869
-0.464067
-0.459368
-0.454798
-0.450316
-0.445883
-0.441477
-0.437088
-0.43271
-0.428344
-0.42399
-0.419654
-0.415341
-0.411058
-0.406815
-0.402618
-0.398479
-0.394407
-0.390413
-0.386509
-0.382706
-0.379015
-0.375449
-0.37205
-0.368823
-0.365459
-0.361701
-0.360993
-0.491016
-0.483085
-0.477529
-0.472447
-0.46746
-0.4626
-0.457827
-0.453101
-0.448403
-0.443722
-0.439055
-0.4344
-0.429761
-0.425142
-0.420549
-0.41599
-0.411473
-0.407006
-0.4026
-0.398266
-0.394016
-0.389862
-0.385817
-0.381894
-0.378109
-0.374507
-0.371099
-0.367538
-0.36354
-0.362968
-0.500928
-0.492526
-0.486712
-0.481326
-0.476026
-0.470855
-0.46577
-0.460732
-0.455723
-0.450734
-0.445761
-0.440803
-0.435864
-0.430949
-0.426062
-0.421212
-0.416407
-0.411656
-0.406969
-0.402358
-0.397835
-0.393415
-0.389111
-0.384938
-0.380914
-0.377093
-0.373485
-0.369708
-0.36545
-0.365024
-0.511453
-0.502488
-0.496435
-0.49071
-0.485072
-0.479568
-0.474151
-0.468782
-0.463445
-0.458131
-0.452836
-0.447561
-0.442308
-0.437082
-0.431889
-0.426736
-0.42163
-0.41658
-0.411598
-0.406694
-0.401882
-0.397177
-0.392596
-0.388152
-0.38387
-0.379808
-0.375981
-0.371967
-0.367427
-0.367152
-0.522578
-0.512977
-0.506714
-0.500606
-0.494605
-0.488745
-0.482975
-0.477257
-0.471574
-0.465918
-0.460287
-0.45468
-0.449101
-0.443553
-0.438041
-0.432572
-0.427152
-0.421792
-0.416499
-0.411288
-0.40617
-0.401163
-0.396283
-0.391548
-0.386984
-0.382657
-0.378586
-0.374311
-0.36946
-0.369341
-0.534251
-0.524153
-0.517459
-0.511006
-0.504627
-0.49839
-0.492247
-0.48616
-0.480115
-0.474103
-0.468122
-0.462171
-0.456252
-0.45037
-0.444528
-0.438732
-0.432988
-0.427304
-0.421689
-0.416154
-0.410714
-0.405385
-0.400185
-0.395134
-0.390262
-0.385643
-0.3813
-0.376731
-0.371538
-0.371573
-0.54651
-0.535898
-0.528754
-0.521921
-0.515142
-0.508506
-0.50197
-0.495498
-0.489074
-0.482691
-0.476347
-0.470039
-0.463771
-0.457545
-0.451363
-0.445231
-0.439152
-0.433133
-0.427183
-0.421311
-0.415532
-0.409861
-0.404318
-0.398925
-0.393714
-0.388769
-0.38412
-0.37922
-0.373645
-0.373823
-0.559339
-0.548225
-0.540601
-0.533354
-0.526152
-0.519095
-0.512148
-0.505273
-0.498456
-0.491688
-0.484968
-0.478294
-0.471667
-0.465087
-0.458558
-0.452081
-0.445659
-0.439296
-0.433
-0.426778
-0.420643
-0.41461
-0.4087
-0.402935
-0.397351
-0.392041
-0.387041
-0.381762
-0.375754
-0.376055
-0.572733
-0.561147
-0.552995
-0.545302
-0.537655
-0.530158
-0.522782
-0.515488
-0.508262
-0.501098
-0.493992
-0.486942
-0.479947
-0.473008
-0.466125
-0.459297
-0.452526
-0.445813
-0.439162
-0.432578
-0.426072
-0.419658
-0.413354
-0.407183
-0.401185
-0.395462
-0.390057
-0.384338
-0.377831
-0.378217
-0.586741
-0.574629
-0.565929
-0.557764
-0.549651
-0.541694
-0.53387
-0.526143
-0.518496
-0.510924
-0.503422
-0.495989
-0.488621
-0.481317
-0.474076
-0.466894
-0.45977
-0.452703
-0.445691
-0.438738
-0.431848
-0.425033
-0.418309
-0.411696
-0.405237
-0.399041
-0.393161
-0.386922
-0.379826
-0.380234
-0.601364
-0.588663
-0.579398
-0.570737
-0.562135
-0.5537
-0.545413
-0.537237
-0.529158
-0.521168
-0.513263
-0.50544
-0.497695
-0.490024
-0.482424
-0.474888
-0.467412
-0.45999
-0.452616
-0.445289
-0.438007
-0.430775
-0.423605
-0.416512
-0.409537
-0.402797
-0.396352
-0.389484
-0.381672
-0.382001
-0.616592
-0.603245
-0.593395
-0.584214
-0.575101
-0.56617
-0.557404
-0.548768
-0.540246
-0.531831
-0.523517
-0.5153
-0.507176
-0.499138
-0.49118
-0.483294
-0.475471
-0.467699
-0.459969
-0.452269
-0.444593
-0.436935
-0.429298
-0.421687
-0.414136
-0.406766
-0.399639
-0.391992
-0.383283
-0.383368
-0.632412
-0.618366
-0.607909
-0.598183
-0.58854
-0.579096
-0.569838
-0.560731
-0.551757
-0.54291
-0.534183
-0.525571
-0.517068
-0.508666
-0.500356
-0.492128
-0.483967
-0.475858
-0.467784
-0.459726
-0.451665
-0.443584
-0.435469
-0.427309
-0.419123
-0.411021
-0.403064
-0.394429
-0.38454
-0.384103
-0.648814
-0.634013
-0.622921
-0.612631
-0.602438
-0.592467
-0.582706
-0.573118
-0.563686
-0.554402
-0.545259
-0.536252
-0.527372
-0.518612
-0.50996
-0.501401
-0.49292
-0.484496
-0.476103
-0.467713
-0.459295
-0.450814
-0.442234
-0.433517
-0.424648
-0.415712
-0.406742
-0.396824
-0.385321
-0.383902
-0.665791
-0.650164
-0.638412
-0.627536
-0.616779
-0.606269
-0.595995
-0.585919
-0.576023
-0.566299
-0.556739
-0.547338
-0.538087
-0.528977
-0.519995
-0.511125
-0.502348
-0.493639
-0.484967
-0.476293
-0.467573
-0.458751
-0.449764
-0.440533
-0.43099
-0.421165
-0.41103
-0.399517
-0.38579
-0.382604
-0.683368
-0.666802
-0.65435
-0.642874
-0.631542
-0.620484
-0.60969
-0.59912
-0.588757
-0.578591
-0.568615
-0.558823
-0.549207
-0.539757
-0.530461
-0.521302
-0.51226
-0.503308
-0.494411
-0.485525
-0.476592
-0.467538
-0.458268
-0.448652
-0.438547
-0.42789
-0.416552
-0.403152
-0.386142
-0.379303
-0.701596
-0.683893
-0.67069
-0.658607
-0.646697
-0.635089
-0.623772
-0.612706
-0.601873
-0.591265
-0.580874
-0.570695
-0.560721
-0.550942
-0.541349
-0.531925
-0.522654
-0.513508
-0.504456
-0.495453
-0.486436
-0.477318
-0.467973
-0.458209
-0.447765
-0.436402
-0.423689
-0.407344
-0.383738
-0.367957
-0.719994
-0.701251
-0.687364
-0.6747
-0.662223
-0.650066
-0.638224
-0.626659
-0.615354
-0.604301
-0.593496
-0.582933
-0.572606
-0.562509
-0.552633
-0.542968
-0.533502
-0.524215
-0.515087
-0.506085
-0.497164
-0.488257
-0.479253
-0.469963
-0.460087
-0.44922
-0.43644
-0.418115
-0.38774
-0.359983
-1.18948
-1.18678
-1.18217
-1.1761
-1.1686
-1.15971
-1.14951
-1.13808
-1.12551
-1.11186
-1.09723
-1.0817
-1.06537
-1.0483
-1.03059
-1.01232
-0.993569
-0.974411
-0.954921
-0.935173
-0.915235
-0.895172
-0.875046
-0.854915
-0.834831
-0.814844
-0.794995
-0.775294
-0.755729
-0.736742
-1.15449
-1.15181
-1.1474
-1.14149
-1.13416
-1.12547
-1.11552
-1.10438
-1.09215
-1.07889
-1.0647
-1.04965
-1.03384
-1.01733
-1.00022
-0.982587
-0.964498
-0.946032
-0.927261
-0.908254
-0.889079
-0.869797
-0.850471
-0.831155
-0.811906
-0.792775
-0.773814
-0.75507
-0.736592
-0.718558
-1.12643
-1.12379
-1.11952
-1.11378
-1.10664
-1.09818
-1.08849
-1.07765
-1.06574
-1.05284
-1.03904
-1.02442
-1.00906
-0.99304
-0.976436
-0.959328
-0.941791
-0.923898
-0.905719
-0.887321
-0.868769
-0.850126
-0.83145
-0.812798
-0.794223
-0.775778
-0.757515
-0.739484
-0.721746
-0.704376
-1.09975
-1.09722
-1.09314
-1.08762
-1.08073
-1.07255
-1.06317
-1.05266
-1.04111
-1.0286
-1.01521
-1.00102
-0.986108
-0.970559
-0.954448
-0.93785
-0.92084
-0.903489
-0.885866
-0.868037
-0.850067
-0.832016
-0.813941
-0.795899
-0.777943
-0.760121
-0.742485
-0.725081
-0.707962
-0.691176
-1.07264
-1.07033
-1.06651
-1.06128
-1.05471
-1.04687
-1.03786
-1.02774
-1.01659
-1.00451
-0.991561
-0.977832
-0.963401
-0.948346
-0.932743
-0.916667
-0.900192
-0.883387
-0.866322
-0.84906
-0.831665
-0.814198
-0.796714
-0.779269
-0.761913
-0.744697
-0.727666
-0.710865
-0.69434
-0.678128
-1.04545
-1.04344
-1.03995
-1.03508
-1.02889
-1.02146
-1.01286
-1.00318
-0.992486
-0.980866
-0.968396
-0.955157
-0.941227
-0.926682
-0.9116
-0.896054
-0.880116
-0.863856
-0.847342
-0.830637
-0.813805
-0.796905
-0.779992
-0.763121
-0.746342
-0.729704
-0.71325
-0.697024
-0.681065
-0.66541
-1.01827
-1.01663
-1.01354
-1.00909
-1.00334
-0.996367
-0.988239
-0.979036
-0.968835
-0.957714
-0.945753
-0.93303
-0.919621
-0.905604
-0.891053
-0.876043
-0.860644
-0.844927
-0.828957
-0.812799
-0.796515
-0.780164
-0.763802
-0.747481
-0.731253
-0.715163
-0.699256
-0.683574
-0.668154
-0.653029
-0.991096
-0.989892
-0.987262
-0.983288
-0.97803
-0.971558
-0.963943
-0.955261
-0.945588
-0.935002
-0.923578
-0.911395
-0.898529
-0.885055
-0.871049
-0.856582
-0.841726
-0.82655
-0.81112
-0.7955
-0.779752
-0.763934
-0.748103
-0.73231
-0.716606
-0.701038
-0.68565
-0.670483
-0.655572
-0.640953
-0.963994
-0.963272
-0.961145
-0.957689
-0.952963
-0.947033
-0.939968
-0.931843
-0.922731
-0.912708
-0.901848
-0.890229
-0.877924
-0.86501
-0.85156
-0.837645
-0.823336
-0.808702
-0.793809
-0.77872
-0.763496
-0.748197
-0.732878
-0.717592
-0.702389
-0.687317
-0.67242
-0.657738
-0.643308
-0.629166
-0.937033
-0.936826
-0.935234
-0.93233
-0.928167
-0.922809
-0.916325
-0.908785
-0.90026
-0.890825
-0.880552
-0.869517
-0.857793
-0.845453
-0.83257
-0.819216
-0.80546
-0.79137
-0.777011
-0.762446
-0.747738
-0.732944
-0.718121
-0.703322
-0.688597
-0.673995
-0.659561
-0.645336
-0.631357
-0.617662
-0.910287
-0.910617
-0.909582
-0.907249
-0.903671
-0.898909
-0.893027
-0.886094
-0.878178
-0.869351
-0.859684
-0.84925
-0.838121
-0.826369
-0.814065
-0.80128
-0.788082
-0.774538
-0.760713
-0.74667
-0.732469
-0.718169
-0.703827
-0.689496
-0.675227
-0.66107
-0.647071
-0.633273
-0.619715
-0.606438
-0.883832
-0.884706
-0.884238
-0.88249
-0.87951
-0.875357
-0.870092
-0.86378
-0.856488
-0.848284
-0.839238
-0.829419
-0.818898
-0.807746
-0.796032
-0.783824
-0.77119
-0.758196
-0.744905
-0.73138
-0.717681
-0.703866
-0.689991
-0.676111
-0.662277
-0.648541
-0.63495
-0.621549
-0.608381
-0.595488
-0.857738
-0.859157
-0.859257
-0.858096
-0.855718
-0.85218
-0.847539
-0.841857
-0.835198
-0.827627
-0.819211
-0.810018
-0.800116
-0.789573
-0.778457
-0.766834
-0.754771
-0.74233
-0.729576
-0.716568
-0.703367
-0.690029
-0.676611
-0.663166
-0.649748
-0.636408
-0.623198
-0.610164
-0.597352
-0.58481
-0.832074
-0.834027
-0.834688
-0.834108
-0.83233
-0.829405
-0.825388
-0.820338
-0.814316
-0.807383
-0.799603
-0.791043
-0.781767
-0.77184
-0.76133
-0.750299
-0.738812
-0.72693
-0.714716
-0.702227
-0.689521
-0.676656
-0.663684
-0.650662
-0.637641
-0.624675
-0.611816
-0.599117
-0.586627
-0.574399
-0.806897
-0.809369
-0.810577
-0.810565
-0.809376
-0.807057
-0.803659
-0.799237
-0.793849
-0.787554
-0.780413
-0.772488
-0.763842
-0.754538
-0.744638
-0.734206
-0.723301
-0.711985
-0.700315
-0.688347
-0.676138
-0.663742
-0.651212
-0.6386
-0.62596
-0.613346
-0.600811
-0.588412
-0.576205
-0.56425
-0.782262
-0.78523
-0.786964
-0.787504
-0.786888
-0.78516
-0.78237
-0.778567
-0.773807
-0.768145
-0.76164
-0.754349
-0.746335
-0.737655
-0.728372
-0.718543
-0.708227
-0.697482
-0.686362
-0.674921
-0.663213
-0.651287
-0.639194
-0.626985
-0.614712
-0.602427
-0.590188
-0.578053
-0.566087
-0.554358
-0.758213
-0.761651
-0.763885
-0.764953
-0.76489
-0.763736
-0.761537
-0.75834
-0.754196
-0.749159
-0.743283
-0.736623
-0.729238
-0.721184
-0.712519
-0.703298
-0.693577
-0.68341
-0.672847
-0.661941
-0.650738
-0.639287
-0.627633
-0.615823
-0.603905
-0.591932
-0.579958
-0.56805
-0.556276
-0.54472
-0.734785
-0.738664
-0.741371
-0.742941
-0.743406
-0.742803
-0.741175
-0.738566
-0.735024
-0.730598
-0.725341
-0.719305
-0.712545
-0.705115
-0.697068
-0.688458
-0.679337
-0.669755
-0.659759
-0.649396
-0.63871
-0.627741
-0.616532
-0.605121
-0.593553
-0.581874
-0.570139
-0.558414
-0.546778
-0.53533
-0.71201
-0.716296
-0.719446
-0.721489
-0.722454
-0.722377
-0.721296
-0.719254
-0.716294
-0.712464
-0.707813
-0.70239
-0.696248
-0.689436
-0.682007
-0.67401
-0.665494
-0.656504
-0.647085
-0.637278
-0.627121
-0.616648
-0.605894
-0.594891
-0.583672
-0.572277
-0.560754
-0.549168
-0.537606
-0.526185
-0.689907
-0.694569
-0.698129
-0.700613
-0.702049
-0.702469
-0.70191
-0.70041
-0.698011
-0.694758
-0.690696
-0.685874
-0.680338
-0.674139
-0.667323
-0.659939
-0.652031
-0.643642
-0.63481
-0.625574
-0.615963
-0.606005
-0.595725
-0.585143
-0.574282
-0.563167
-0.551834
-0.540341
-0.528779
-0.517282
-0.668492
-0.673495
-0.677432
-0.680326
-0.682202
-0.68309
-0.683024
-0.68204
-0.680178
-0.67748
-0.673988
-0.669749
-0.664808
-0.659211
-0.653003
-0.64623
-0.638933
-0.631151
-0.622919
-0.614269
-0.605225
-0.595806
-0.586026
-0.575892
-0.565408
-0.554581
-0.543424
-0.531978
-0.52033
-0.508625
-0.647774
-0.653086
-0.657366
-0.660636
-0.66292
-0.664245
-0.664642
-0.664146
-0.662795
-0.660627
-0.657685
-0.65401
-0.649647
-0.644641
-0.639033
-0.632867
-0.626181
-0.619012
-0.611392
-0.603346
-0.594893
-0.586043
-0.576798
-0.567149
-0.557077
-0.546561
-0.535581
-0.524142
-0.512311
-0.500226
-0.627756
-0.633343
-0.637935
-0.641549
-0.644207
-0.645937
-0.646767
-0.646731
-0.645862
-0.644198
-0.641781
-0.63865
-0.634847
-0.630416
-0.625397
-0.619832
-0.613757
-0.607206
-0.600208
-0.592785
-0.58495
-0.576704
-0.568038
-0.558924
-0.549318
-0.53916
-0.52838
-0.516922
-0.504805
-0.492111
-0.608436
-0.614269
-0.619139
-0.623065
-0.626067
-0.62817
-0.629401
-0.629793
-0.629377
-0.628191
-0.626273
-0.623662
-0.6204
-0.616527
-0.612083
-0.607109
-0.601641
-0.595711
-0.589345
-0.582563
-0.575374
-0.567773
-0.559738
-0.551225
-0.542161
-0.532439
-0.521919
-0.510447
-0.497947
-0.484342
-0.589811
-0.595857
-0.600975
-0.605181
-0.608495
-0.61094
-0.612542
-0.613331
-0.613339
-0.612601
-0.611155
-0.60904
-0.606294
-0.60296
-0.599076
-0.594682
-0.589814
-0.584503
-0.578777
-0.572654
-0.566139
-0.559226
-0.551884
-0.544054
-0.535633
-0.526468
-0.516324
-0.5049
-0.491961
-0.477063
-0.571869
-0.5781
-0.583435
-0.587889
-0.591482
-0.594235
-0.596175
-0.597328
-0.597728
-0.597407
-0.596403
-0.594754
-0.592499
-0.589679
-0.586333
-0.582502
-0.578222
-0.573525
-0.56844
-0.562986
-0.557172
-0.550987
-0.544402
-0.537346
-0.529699
-0.521257
-0.511682
-0.50047
-0.487157
-0.470588
-0.554602
-0.560988
-0.566509
-0.571181
-0.57502
-0.578049
-0.580292
-0.581776
-0.582532
-0.582593
-0.581997
-0.58078
-0.578983
-0.576646
-0.57381
-0.570515
-0.5668
-0.5627
-0.558246
-0.55346
-0.548355
-0.542929
-0.537153
-0.530963
-0.52423
-0.516722
-0.507995
-0.497298
-0.483882
-0.465321
-0.538001
-0.544536
-0.550236
-0.555115
-0.55919
-0.562483
-0.565015
-0.566816
-0.567914
-0.568344
-0.56814
-0.567342
-0.565989
-0.564122
-0.561784
-0.559017
-0.555861
-0.552355
-0.548533
-0.544425
-0.540049
-0.535412
-0.530503
-0.525272
-0.519611
-0.513295
-0.505821
-0.496183
-0.483203
-0.461705
-0.522044
-0.528746
-0.534645
-0.539751
-0.544083
-0.547661
-0.550509
-0.552653
-0.554125
-0.554957
-0.555186
-0.554851
-0.553994
-0.552656
-0.550882
-0.548716
-0.546202
-0.543381
-0.540294
-0.536975
-0.533453
-0.529748
-0.525867
-0.521796
-0.51748
-0.512781
-0.507289
-0.499937
-0.489021
-0.463147
-0.506643
-0.513308
-0.5192
-0.524334
-0.528726
-0.532397
-0.535371
-0.537675
-0.53934
-0.540401
-0.540895
-0.540864
-0.540351
-0.539401
-0.538063
-0.536386
-0.53442
-0.532213
-0.529816
-0.527274
-0.524633
-0.521933
-0.519214
-0.516513
-0.513867
-0.511334
-0.508824
-0.505775
-0.502151
-0.482289
-0.409472
-0.457227
-0.503712
-0.54956
-0.594623
-0.638745
-0.681558
-0.723008
-0.763146
-0.801874
-0.839083
-0.874683
-0.908593
-0.940745
-0.971075
-0.999528
-1.02606
-1.05063
-1.0732
-1.09376
-1.11229
-1.12877
-1.14322
-1.15564
-1.16603
-1.17443
-1.18086
-1.18534
-1.18786
-1.18881
-0.401712
-0.448282
-0.49378
-0.538435
-0.582108
-0.624664
-0.666171
-0.70656
-0.745574
-0.783133
-0.819172
-0.853617
-0.886396
-0.917445
-0.946707
-0.974131
-0.999675
-1.0233
-1.04498
-1.0647
-1.08244
-1.0982
-1.11198
-1.12379
-1.13365
-1.14158
-1.14763
-1.15182
-1.1542
-1.15494
-0.390887
-0.436464
-0.481133
-0.524955
-0.567827
-0.609646
-0.650348
-0.689778
-0.727887
-0.764593
-0.799812
-0.83347
-0.865494
-0.895821
-0.924396
-0.951168
-0.976096
-0.999145
-1.02029
-1.03951
-1.05679
-1.07214
-1.08555
-1.09703
-1.10661
-1.11432
-1.12018
-1.12424
-1.12654
-1.12719
-0.376686
-0.421351
-0.465199
-0.508226
-0.550326
-0.591398
-0.63135
-0.670084
-0.707522
-0.743581
-0.778183
-0.811252
-0.842721
-0.872527
-0.900614
-0.926935
-0.951448
-0.974118
-0.994921
-1.01384
-1.03085
-1.04597
-1.05919
-1.07052
-1.07999
-1.08761
-1.09343
-1.09749
-1.09981
-1.10049
-0.359552
-0.403315
-0.446332
-0.488565
-0.529903
-0.570247
-0.609505
-0.64759
-0.684416
-0.719895
-0.753954
-0.786519
-0.817523
-0.846902
-0.874603
-0.900578
-0.924784
-0.947188
-0.967764
-0.986492
-1.00336
-1.01837
-1.03151
-1.04281
-1.05227
-1.05993
-1.06582
-1.06997
-1.07242
-1.07324
-0.34022
-0.383088
-0.425274
-0.466718
-0.507309
-0.546949
-0.585547
-0.623013
-0.65926
-0.694212
-0.727785
-0.759908
-0.790515
-0.819543
-0.846938
-0.872651
-0.896641
-0.918872
-0.939317
-0.957956
-0.974777
-0.989774
-1.00295
-1.01431
-1.02388
-1.03167
-1.03773
-1.04207
-1.04474
-1.0458
-0.319379
-0.361349
-0.402694
-0.443341
-0.483184
-0.522124
-0.560071
-0.596934
-0.63263
-0.667079
-0.700198
-0.731919
-0.762175
-0.790902
-0.818047
-0.843558
-0.867395
-0.88952
-0.909906
-0.928531
-0.94538
-0.960448
-0.973733
-0.985243
-0.994993
-1.003
-1.0093
-1.01393
-1.0169
-1.01828
-0.29764
-0.338697
-0.379183
-0.419018
-0.4581
-0.49633
-0.53362
-0.56988
-0.605027
-0.638978
-0.671661
-0.702998
-0.732924
-0.761377
-0.788301
-0.813645
-0.837367
-0.859429
-0.879801
-0.89846
-0.91539
-0.930582
-0.944033
-0.95575
-0.965743
-0.974031
-0.98064
-0.9856
-0.988939
-0.990713
-0.275524
-0.31565
-0.355257
-0.394261
-0.432563
-0.470068
-0.506687
-0.542333
-0.576923
-0.610376
-0.642616
-0.673569
-0.70317
-0.731356
-0.758071
-0.783262
-0.806887
-0.828906
-0.849288
-0.868008
-0.885048
-0.900397
-0.91405
-0.926011
-0.936287
-0.944895
-0.951857
-0.9572
-0.960953
-0.963164
-0.253458
-0.292637
-0.331346
-0.3695
-0.407003
-0.443764
-0.479694
-0.51471
-0.548728
-0.581668
-0.613454
-0.644015
-0.673284
-0.701197
-0.727698
-0.752736
-0.776265
-0.798245
-0.818644
-0.837434
-0.854597
-0.870117
-0.883989
-0.896213
-0.906795
-0.915746
-0.923088
-0.928845
-0.933041
-0.935721
-0.231777
-0.269996
-0.307792
-0.345079
-0.381766
-0.417765
-0.45299
-0.487357
-0.520784
-0.553194
-0.58451
-0.614662
-0.643582
-0.671208
-0.697483
-0.722355
-0.745777
-0.76771
-0.788119
-0.806975
-0.824257
-0.839949
-0.854043
-0.866534
-0.877428
-0.886733
-0.894467
-0.900651
-0.905306
-0.908474
-0.210735
-0.247986
-0.284858
-0.321266
-0.357124
-0.392346
-0.426848
-0.460549
-0.493369
-0.525229
-0.556056
-0.585778
-0.61433
-0.641649
-0.667678
-0.692365
-0.715663
-0.73753
-0.757932
-0.776839
-0.794227
-0.810079
-0.824384
-0.837136
-0.848336
-0.857992
-0.866117
-0.872728
-0.877847
-0.881509
-0.190515
-0.226796
-0.262739
-0.29826
-0.333279
-0.367713
-0.401481
-0.434502
-0.466697
-0.49799
-0.528309
-0.557582
-0.585744
-0.612733
-0.638493
-0.662971
-0.68612
-0.707899
-0.728271
-0.747206
-0.764678
-0.78067
-0.795167
-0.808163
-0.819654
-0.829647
-0.838151
-0.845182
-0.850757
-0.854907
-0.171241
-0.206554
-0.241567
-0.2762
-0.310377
-0.344016
-0.377041
-0.409371
-0.440929
-0.471641
-0.501434
-0.530238
-0.557989
-0.584626
-0.610092
-0.634335
-0.65731
-0.678972
-0.699288
-0.718224
-0.735754
-0.751859
-0.766524
-0.779738
-0.791499
-0.801807
-0.810671
-0.818103
-0.824119
-0.828744
-0.152987
-0.18734
-0.221428
-0.255176
-0.288511
-0.321355
-0.353633
-0.385267
-0.416179
-0.446298
-0.47555
-0.503869
-0.531189
-0.557452
-0.582601
-0.606585
-0.629357
-0.650876
-0.671105
-0.690013
-0.707572
-0.72376
-0.738562
-0.751967
-0.763968
-0.774565
-0.783764
-0.791574
-0.798008
-0.803088
-0.135791
-0.169195
-0.202367
-0.235237
-0.267736
-0.29979
-0.331322
-0.362258
-0.392521
-0.422038
-0.45074
-0.478559
-0.505432
-0.531301
-0.556111
-0.57981
-0.602355
-0.623702
-0.643817
-0.662665
-0.680221
-0.696462
-0.71137
-0.724933
-0.737144
-0.747999
-0.757503
-0.765661
-0.772486
-0.777995
-0.119661
-0.152129
-0.184397
-0.216402
-0.248075
-0.279346
-0.31014
-0.34038
-0.369993
-0.398906
-0.42705
-0.454359
-0.480772
-0.506231
-0.530681
-0.554075
-0.576368
-0.597517
-0.617488
-0.636249
-0.653771
-0.670032
-0.685014
-0.698703
-0.711089
-0.72217
-0.731946
-0.740422
-0.747607
-0.753516
-0.104584
-0.13613
-0.167509
-0.198663
-0.229526
-0.260027
-0.290092
-0.319645
-0.348612
-0.376921
-0.404503
-0.431296
-0.457238
-0.482272
-0.506348
-0.529417
-0.551436
-0.572364
-0.592166
-0.61081
-0.628269
-0.644519
-0.659542
-0.673324
-0.685854
-0.697126
-0.707141
-0.715901
-0.723413
-0.729689
-0.0905281
-0.121167
-0.151674
-0.181994
-0.212065
-0.241814
-0.271164
-0.300041
-0.328369
-0.356078
-0.3831
-0.409372
-0.434836
-0.459437
-0.483125
-0.505853
-0.527579
-0.548264
-0.567873
-0.586375
-0.603743
-0.619954
-0.634988
-0.64883
-0.66147
-0.672901
-0.68312
-0.69213
-0.699935
-0.706546
-0.0774528
-0.107197
-0.13685
-0.166358
-0.195657
-0.224674
-0.253329
-0.281543
-0.309244
-0.336359
-0.362823
-0.388575
-0.413558
-0.437718
-0.461008
-0.483382
-0.504799
-0.525223
-0.544619
-0.562956
-0.580209
-0.596353
-0.611369
-0.625242
-0.63796
-0.649517
-0.659907
-0.669133
-0.677198
-0.684109
-0.0653085
-0.0941658
-0.122983
-0.151703
-0.180257
-0.208565
-0.236545
-0.264116
-0.291202
-0.317733
-0.343646
-0.36888
-0.39338
-0.417096
-0.43998
-0.46199
-0.483087
-0.503234
-0.522399
-0.540552
-0.557667
-0.573719
-0.588691
-0.602567
-0.615334
-0.626985
-0.637516
-0.646925
-0.655215
-0.662393
-0.0540398
-0.0820129
-0.110016
-0.137975
-0.165811
-0.193439
-0.220767
-0.247713
-0.274201
-0.300161
-0.32553
-0.350251
-0.37427
-0.39754
-0.420015
-0.441655
-0.462421
-0.48228
-0.501199
-0.519151
-0.536108
-0.552048
-0.566952
-0.580805
-0.593593
-0.60531
-0.61595
-0.625511
-0.633994
-0.641406
-0.0435858
-0.0706684
-0.0978813
-0.12511
-0.152262
-0.17924
-0.205944
-0.232287
-0.258194
-0.283596
-0.308431
-0.332646
-0.356189
-0.379014
-0.401078
-0.422343
-0.442772
-0.462333
-0.480994
-0.498732
-0.515516
-0.531324
-0.546139
-0.559946
-0.572731
-0.584487
-0.595208
-0.604891
-0.613537
-0.621151
-0.0338772
-0.0600497
-0.0865036
-0.11304
-0.139547
-0.165908
-0.192016
-0.217781
-0.243126
-0.267984
-0.292299
-0.316016
-0.339089
-0.361472
-0.383127
-0.404015
-0.424103
-0.44336
-0.461755
-0.479268
-0.495865
-0.511526
-0.526234
-0.539974
-0.552733
-0.564504
-0.57528
-0.585059
-0.593839
-0.601625
-0.0248285
-0.0500657
-0.0758079
-0.1017
-0.127605
-0.15339
-0.178934
-0.204144
-0.228947
-0.253279
-0.277085
-0.300316
-0.322925
-0.344873
-0.366121
-0.386633
-0.406377
-0.425325
-0.443445
-0.460729
-0.477129
-0.492628
-0.507213
-0.520869
-0.533583
-0.545348
-0.556155
-0.566004
-0.574892
-0.582822
-0.0163303
-0.0406549
-0.0657725
-0.0910797
-0.116435
-0.141684
-0.166694
-0.191374
-0.215653
-0.239473
-0.262782
-0.285534
-0.307688
-0.329204
-0.350047
-0.370183
-0.389582
-0.408216
-0.426053
-0.443102
-0.459295
-0.47462
-0.489067
-0.502621
-0.51527
-0.527006
-0.537823
-0.547716
-0.556685
-0.564732
-0.00823206
-0.0317242
-0.056361
-0.0811546
-0.106011
-0.130764
-0.155267
-0.179435
-0.203205
-0.226524
-0.249346
-0.271628
-0.293332
-0.314422
-0.334863
-0.354624
-0.373677
-0.392001
-0.409551
-0.426361
-0.442333
-0.45747
-0.471765
-0.485202
-0.49777
-0.509459
-0.520264
-0.53018
-0.539206
-0.547343
-8.1479e-05
-0.0225405
-0.0468749
-0.0712715
-0.0957123
-0.120027
-0.144068
-0.167761
-0.191056
-0.213907
-0.236273
-0.258115
-0.279399
-0.300091
-0.320159
-0.339571
-0.358304
-0.376349
-0.393639
-0.410237
-0.425989
-0.440947
-0.455103
-0.468434
-0.480929
-0.492578
-0.503375
-0.513316
-0.522399
-0.530624
0.00944966
-0.0116561
-0.0360576
-0.0603465
-0.0845832
-0.108606
-0.132299
-0.15562
-0.178532
-0.201
-0.222989
-0.244468
-0.265403
-0.285762
-0.305516
-0.324633
-0.343087
-0.360858
-0.377817
-0.394411
-0.410015
-0.424833
-0.438886
-0.452145
-0.464596
-0.476232
-0.487047
-0.497035
-0.506196
-0.51453
0.0194182
-0.00373182
-0.0292332
-0.0536723
-0.0778494
-0.101646
-0.124994
-0.147913
-0.170393
-0.192408
-0.213934
-0.234942
-0.255406
-0.275296
-0.294585
-0.313243
-0.331232
-0.34844
-0.364446
-0.381306
-0.39667
-0.411164
-0.424911
-0.437889
-0.450087
-0.461498
-0.472117
-0.481941
-0.490968
-0.4992
0.52739
0.534432
0.541642
0.548988
0.556466
0.564069
0.571792
0.579622
0.587547
0.595551
0.603615
0.61172
0.619842
0.627955
0.636033
0.644048
0.651973
0.659787
0.667474
0.675031
0.682475
0.689847
0.69723
0.704753
0.712618
0.721123
0.73058
0.741238
0.75483
0.774833
0.520359
0.527155
0.534208
0.541377
0.548657
0.556052
0.563556
0.571156
0.578836
0.586581
0.59437
0.602183
0.609994
0.617777
0.625502
0.63314
0.640665
0.648052
0.655285
0.662361
0.669296
0.676136
0.682965
0.68992
0.697213
0.705154
0.714075
0.724257
0.737486
0.757377
0.512472
0.518973
0.525845
0.532811
0.539863
0.547019
0.554272
0.561606
0.569006
0.576454
0.58393
0.591409
0.598867
0.606273
0.613599
0.620813
0.627887
0.634796
0.641522
0.648064
0.654438
0.660693
0.666917
0.673256
0.679931
0.68727
0.695628
0.705317
0.718195
0.73799
0.503736
0.509897
0.516562
0.523299
0.530094
0.536979
0.543948
0.550983
0.558067
0.565181
0.572304
0.57941
0.586471
0.593458
0.600339
0.607082
0.613656
0.620037
0.626206
0.632163
0.637924
0.643543
0.649113
0.654787
0.660801
0.667497
0.675254
0.684414
0.696876
0.716415
0.494161
0.499935
0.50637
0.512852
0.519361
0.525944
0.532597
0.539299
0.546033
0.552776
0.559508
0.5662
0.572823
0.579347
0.585738
0.591962
0.597989
0.603792
0.609355
0.614675
0.619773
0.624706
0.629573
0.634537
0.639845
0.645856
0.652972
0.661565
0.673556
0.692732
0.483757
0.489101
0.495283
0.501483
0.507677
0.513928
0.520233
0.52657
0.532918
0.539255
0.545557
0.551796
0.557941
0.563959
0.569815
0.575475
0.580908
0.586085
0.590991
0.595626
0.600012
0.60421
0.608327
0.612534
0.617092
0.622378
0.628814
0.6368
0.648274
0.667012
0.472538
0.477409
0.483314
0.489208
0.495058
0.500947
0.506873
0.512812
0.51874
0.524636
0.530472
0.536219
0.541845
0.547315
0.552594
0.557646
0.562437
0.566942
0.571144
0.575045
0.578671
0.582087
0.585408
0.588815
0.592581
0.597101
0.602818
0.61016
0.621074
0.639308
0.460517
0.464873
0.47048
0.476043
0.481521
0.487018
0.492536
0.498045
0.503521
0.50894
0.514274
0.519492
0.52456
0.529442
0.534101
0.538501
0.542607
0.546394
0.549847
0.552967
0.555787
0.558376
0.560856
0.563419
0.566353
0.570068
0.57503
0.581692
0.592004
0.609676
0.447708
0.451512
0.456799
0.462007
0.467085
0.472163
0.477242
0.482291
0.487282
0.492191
0.496988
0.50164
0.506113
0.510367
0.514366
0.518072
0.521451
0.524476
0.527134
0.52943
0.531399
0.533117
0.534714
0.536394
0.538458
0.541331
0.545501
0.551449
0.561122
0.578177
0.434129
0.437342
0.442289
0.447119
0.451771
0.456401
0.461014
0.465572
0.470048
0.474415
0.478641
0.482693
0.486533
0.490123
0.493422
0.496394
0.499004
0.501226
0.503047
0.504476