/*--------------------------------*- C++ -*----------------------------------*\
  =========                 |
  \\      /  F ield         | OpenFOAM: The Open Source CFD Toolbox
   \\    /   O peration     | Website:  https://openfoam.org
    \\  /    A nd           | Version:  6.0
     \\/     M anipulation  |
\*---------------------------------------------------------------------------*/
FoamFile
{
    version     2.0;
    format      ascii;
    class       surfaceScalarField;
    location    "6";
    object      phi;
}
// * * * * * * * * * * * * * * * * * * * * * * * * * * * * * * * * * * * * * //

dimensions      [0 3 -1 0 0 0 0];

internalField   nonuniform List<scalar> 
18940
(
9.61215e-05
-0.475812
0.475716
0.000511657
-0.45001
0.449595
0.00109251
-0.427527
0.426946
0.00172977
-0.406452
0.405814
0.00236952
-0.386643
0.386003
0.00298473
-0.367744
0.367129
0.00356468
-0.349635
0.349055
0.00410877
-0.332332
0.331788
0.00462138
-0.315866
0.315353
0.00510841
-0.300251
0.299764
0.00557551
-0.285481
0.285014
0.00602735
-0.271533
0.271081
0.00646764
-0.258374
0.257934
0.00689966
-0.245969
0.245537
0.00732691
-0.234277
0.233849
0.00775371
-0.223256
0.222829
0.00818523
-0.212857
0.212425
0.00862635
-0.203019
0.202578
0.00907958
-0.193673
0.193219
-0.184741
0.184277
0.00954358
0.000132686
-0.475945
0.000552171
-0.45043
0.00113044
-0.428105
0.00176528
-0.407086
0.00240025
-0.387278
0.00300884
-0.368353
0.00358166
-0.350208
0.00411888
-0.332869
0.00462521
-0.316372
0.00510682
-0.300733
0.00556941
-0.285944
0.00601762
-0.271981
0.00645501
-0.258812
0.00688464
-0.246398
0.00730978
-0.234702
0.00773472
-0.223681
0.0081648
-0.213287
0.00860559
-0.20346
0.00906079
-0.194128
-0.185211
0.00953031
0.000166116
-0.476111
0.000590111
-0.450854
0.00116464
-0.42868
0.00179517
-0.407717
0.00242463
-0.387908
0.00302627
-0.368954
0.00359147
-0.350773
0.0041212
-0.333399
0.00462069
-0.316872
0.00509633
-0.301209
0.00555396
-0.286401
0.00599817
-0.272425
0.00643241
-0.259246
0.00685946
-0.246825
0.0072824
-0.235125
0.00770535
-0.224104
0.00813387
-0.213715
0.00857415
-0.203901
0.00903102
-0.194585
-0.185685
0.00950595
0.00017653
-0.476288
0.000613083
-0.45129
0.00119027
-0.429257
0.00181787
-0.408345
0.00244164
-0.388531
0.00303589
-0.369548
0.00359295
-0.35133
0.00411459
-0.33392
0.00460664
-0.317364
0.00507577
-0.301678
0.00552796
-0.286854
0.0059678
-0.272865
0.0063986
-0.259677
0.00682293
-0.24725
0.00724359
-0.235545
0.00766457
-0.224525
0.00809155
-0.214142
0.00853135
-0.20434
0.00899004
-0.195043
-0.186166
0.00947082
0.000187557
-0.476475
0.000631931
-0.451735
0.00121062
-0.429835
0.00183467
-0.408969
0.00245189
-0.389149
0.00303794
-0.370135
0.0035861
-0.351878
0.00409892
-0.334433
0.00458278
-0.317848
0.00504471
-0.30214
0.00549085
-0.2873
0.00592581
-0.2733
0.00635279
-0.260104
0.00677415
-0.247671
0.00719242
-0.235964
0.00761141
-0.224944
0.0080369
-0.214568
0.00847633
-0.20478
0.00893709
-0.195504
-0.186653
0.00942425
0.000192941
-0.476668
0.000643858
-0.452186
0.00122428
-0.430416
0.00184476
-0.409589
0.00245487
-0.389759
0.00303189
-0.370712
0.00357026
-0.352416
0.00407337
-0.334936
0.00454817
-0.318322
0.00500208
-0.302594
0.00544141
-0.287739
0.00587084
-0.273729
0.00629349
-0.260526
0.00671153
-0.248089
0.00712721
-0.236379
0.00754411
-0.22536
0.00796812
-0.214992
0.00840729
-0.205219
0.00887034
-0.195967
-0.187147
0.00936436
0.00019808
-0.476866
0.000653228
-0.452641
0.00123353
-0.430996
0.00184916
-0.410205
0.00245102
-0.390361
0.00301788
-0.371278
0.00354533
-0.352944
0.00403763
-0.335429
0.0045023
-0.318787
0.00494713
-0.303038
0.00537867
-0.288171
0.00580167
-0.274152
0.00621923
-0.260944
0.00663335
-0.248503
0.00704602
-0.236792
0.00746059
-0.225775
0.00788297
-0.215414
0.0083218
-0.205658
0.00878724
-0.196433
-0.187649
0.0092885
0.000201155
-0.477067
0.000659108
-0.453099
0.0012381
-0.431575
0.00184778
-0.410814
0.00244024
-0.390953
0.00299571
-0.371834
0.00351099
-0.353459
0.00399117
-0.335909
0.00444442
-0.31924
0.00487888
-0.303473
0.00530135
-0.288593
0.00571674
-0.274568
0.00612814
-0.261355
0.00653744
-0.248912
0.00694638
-0.237201
0.00735807
-0.226187
0.00777839
-0.215834
0.00821657
-0.206096
0.00868422
-0.1969
-0.188157
0.00919287
0.000203584
-0.477271
0.000663003
-0.453558
0.00123913
-0.432151
0.00184135
-0.411417
0.00242295
-0.391535
0.00296559
-0.372377
0.00346721
-0.353961
0.00393378
-0.336375
0.00437403
-0.319681
0.00479652
-0.303895
0.00520831
-0.289005
0.00561448
-0.274974
0.00601821
-0.261759
0.00642132
-0.249315
0.00682534
-0.237605
0.00723313
-0.226595
0.00765052
-0.216252
0.00808727
-0.206533
0.00855652
-0.19737
-0.188673
0.00907231
0.000205009
-0.477476
0.000664797
-0.454018
0.00123677
-0.432723
0.00183012
-0.41201
0.0023994
-0.392104
0.00292767
-0.372905
0.00341401
-0.354447
0.00386524
-0.336826
0.00429067
-0.320106
0.00469926
-0.304304
0.00509836
-0.289404
0.00549326
-0.275369
0.00588726
-0.262153
0.00628219
-0.24971
0.00667945
-0.238002
0.00708165
-0.226997
0.00749453
-0.216665
0.00792837
-0.206967
0.00839785
-0.197839
-0.189195
0.00891986
0.000206027
-0.477682
0.000665274
-0.454477
0.0012318
-0.43329
0.00181481
-0.412593
0.0023702
-0.392659
0.00288243
-0.373417
0.00335171
-0.354916
0.00378567
-0.33726
0.00419417
-0.320515
0.00458659
-0.304696
0.00497055
-0.289788
0.00535156
-0.27575
0.00573314
-0.262535
0.00611721
-0.250094
0.00650505
-0.23839
0.00689908
-0.227391
0.00730495
-0.217071
0.0077334
-0.207395
0.00820075
-0.198306
-0.189722
0.00872715
0.000206882
-0.477889
0.000664912
-0.454935
0.00122482
-0.43385
0.00179613
-0.413164
0.00233609
-0.393199
0.00283055
-0.373911
0.00328086
-0.355367
0.00369543
-0.337675
0.00408465
-0.320904
0.00445824
-0.30507
0.00482411
-0.290154
0.00518805
-0.276114
0.0055538
-0.2629
0.00592345
-0.250464
0.00629831
-0.238765
0.00668061
-0.227773
0.00707592
-0.217466
0.00749547
-0.207815
0.00795737
-0.198768
-0.190249
0.00848498
0.000208292
-0.478097
0.00066475
-0.455392
0.00121693
-0.434402
0.00177516
-0.413722
0.00229811
-0.393722
0.00277304
-0.374386
0.00320243
-0.355796
0.0035954
-0.338068
0.00396277
-0.321271
0.00431455
-0.305422
0.00465885
-0.290498
0.00500174
-0.276457
0.00534728
-0.263246
0.00569782
-0.250815
0.00605484
-0.239122
0.00642054
-0.228139
0.0068005
-0.217846
0.0072065
-0.208221
0.00765834
-0.19922
-0.190773
0.00818193
0.000211158
-0.478308
0.000666019
-0.455847
0.00120929
-0.434945
0.00175303
-0.414266
0.00225746
-0.394227
0.00271122
-0.37484
0.00311782
-0.356203
0.00348703
-0.338437
0.00382998
-0.321614
0.00415679
-0.305749
0.00447567
-0.290817
0.0047928
-0.276774
0.00511252
-0.263566
0.00543755
-0.25114
0.0057697
-0.239454
0.00611143
-0.22848
0.00646857
-0.218203
0.00685347
-0.208605
0.00728745
-0.199654
-0.191285
0.00779975
0.000216708
-0.478525
0.000670038
-0.4563
0.001203
-0.435478
0.00173093
-0.414794
0.0022156
-0.394711
0.0026468
-0.375271
0.00302897
-0.356585
0.00337247
-0.338781
0.00368859
-0.32193
0.00398742
-0.306047
0.00427705
-0.291107
0.00456354
-0.27706
0.00485117
-0.263853
0.00514279
-0.251431
0.00544041
-0.239752
0.00574677
-0.228787
0.00606813
-0.218524
0.0064178
-0.208955
0.00681969
-0.200056
-0.191779
0.00731369
0.000226011
-0.478751
0.000677596
-0.456752
0.00119903
-0.436
0.00171031
-0.415305
0.00217443
-0.395175
0.00258201
-0.375679
0.0029384
-0.356941
0.00325446
-0.339097
0.00354162
-0.322217
0.00380975
-0.306315
0.00406664
-0.291363
0.00431801
-0.277312
0.00456781
-0.264103
0.00481851
-0.251682
0.00507157
-0.240005
0.00532908
-0.229044
0.00559694
-0.218792
0.0058902
-0.209248
0.00623973
-0.200406
-0.192243
0.00670361
0.000239751
-0.478991
0.000689954
-0.457202
0.00119981
-0.436509
0.00169394
-0.4158
0.00213664
-0.395618
0.00251957
-0.376062
0.00284907
-0.357271
0.00313644
-0.339384
0.00339297
-0.322474
0.00362805
-0.306551
0.00384882
-0.291584
0.00406046
-0.277523
0.00426655
-0.264309
0.00446921
-0.251885
0.00466937
-0.240205
0.00486782
-0.229243
0.0050686
-0.218993
0.00528657
-0.209466
0.00555957
-0.200679
-0.192623
0.00594014
0.000260548
-0.479251
0.000713332
-0.457655
0.00121162
-0.437008
0.0016861
-0.416274
0.00210505
-0.396037
0.002462
-0.376419
0.00276405
-0.357573
0.00302255
-0.339643
0.00324818
-0.3227
0.00344921
-0.306752
0.00363134
-0.291766
0.00379823
-0.27769
0.00395211
-0.264463
0.00409442
-0.252027
0.00422644
-0.240337
0.00435016
-0.229366
0.00446987
-0.219113
0.00459521
-0.209592
0.00475067
-0.200834
-0.192802
0.00492887
0.000302847
-0.479554
0.000762578
-0.458114
0.0012418
-0.437487
0.00168935
-0.416722
0.00208079
-0.396429
0.00241078
-0.376749
0.00268608
-0.357848
0.00291742
-0.339874
0.00311449
-0.322897
0.00328407
-0.306921
0.00342961
-0.291912
0.00355158
-0.277812
0.00364791
-0.264559
0.00371501
-0.252094
0.00374931
-0.240371
0.00374945
-0.229367
0.00371825
-0.219081
0.0036654
-0.209539
0.00362062
-0.200789
-0.192818
0.00363677
0.000406565
-0.479961
0.000843211
-0.458551
0.00128496
-0.437929
0.00169985
-0.417137
0.00206267
-0.396791
0.00236672
-0.377053
0.00261762
-0.358099
0.00282534
-0.340082
0.00299889
-0.32307
0.00314404
-0.307066
0.00326266
-0.29203
0.00335242
-0.277902
0.00340633
-0.264613
0.00341195
-0.2521
0.00334983
-0.240309
0.00319094
-0.229208
0.00289649
-0.218787
0.00244123
-0.209084
0.00192563
-0.200274
-0.193055
0.00216319
0.483521
0.000314152
-0.483835
0.483263
0.000257469
0.483029
0.000234771
0.482805
0.000223797
0.482588
0.000217086
0.482376
0.000212094
0.482167
0.000208514
0.481961
0.000205916
0.481758
0.00020371
0.481556
0.000201524
0.481357
0.000198925
0.481161
0.000195993
0.480969
0.000192076
0.480781
0.000188076
0.480599
0.000181703
0.480423
0.000176089
0.480261
0.000162167
0.48011
0.00015058
0.480009
0.000101428
4.81586e-05
0.465131
0.000577412
-0.465394
0.464838
0.000550925
0.464534
0.000538554
0.464219
0.000538221
0.463894
0.000542904
0.463558
0.000547932
0.463214
0.00055276
0.462862
0.000557272
0.462505
0.000560983
0.462143
0.000563448
0.461778
0.000564167
0.46141
0.000563206
0.461043
0.000559889
0.460676
0.000555215
0.46031
0.000546907
0.45995
0.000536195
0.459596
0.000516313
0.459253
0.000493533
0.458905
0.000449113
0.000402671
0.444605
0.000729841
-0.444758
0.444409
0.000747658
0.44418
0.000766949
0.443927
0.000791579
0.44365
0.000819229
0.443353
0.00084561
0.443036
0.000869566
0.442702
0.000890961
0.442354
0.000909535
0.441992
0.000924976
0.441619
0.000936925
0.441237
0.000945353
0.440847
0.000949837
0.440451
0.000951803
0.440049
0.000948601
0.439645
0.000940141
0.439235
0.000926737
0.438818
0.000910409
0.438383
0.000884213
0.000856793
0.42268
0.000778245
-0.422729
0.42259
0.000838139
0.422462
0.000894569
0.422304
0.000950162
0.422117
0.00100541
0.421905
0.00105762
0.421669
0.00110559
0.421411
0.00114899
0.421133
0.00118757
0.420837
0.00122116
0.420525
0.00124938
0.420198
0.00127241
0.419857
0.00129047
0.419506
0.00130279
0.419145
0.00130986
0.418771
0.00131392
0.418385
0.00131262
0.417987
0.00130866
0.41757
0.0013006
0.00129064
0.401002
0.00074831
-0.400973
0.400994
0.000846242
0.40095
0.000938491
0.400875
0.00102607
0.40077
0.0011102
0.400638
0.00118946
0.400481
0.00126291
0.4003
0.00133006
0.400097
0.00139056
0.399873
0.00144424
0.399632
0.00149076
0.399374
0.00153034
0.399101
0.00156384
0.398813
0.0015902
0.398513
0.00160982
0.3982
0.00162713
0.397872
0.00164071
0.39753
0.00165109
0.39717
0.00166028
0.00166928
0.380169
0.000669581
-0.38009
0.380213
0.000801807
0.380225
0.000927138
0.380205
0.00104561
0.380157
0.00115825
0.380082
0.00126428
0.379982
0.00136296
0.379859
0.0014537
0.379713
0.00153607
0.379548
0.00160973
0.379364
0.00167462
0.379163
0.00173128
0.378948
0.00177866
0.37872
0.00181837
0.378476
0.00185315
0.378221
0.0018828
0.377953
0.00190879
0.37767
0.00193355
0.377371
0.00195926
0.00198767
0.360469
0.000567248
-0.360366
0.36054
0.000730872
0.36058
0.000886774
0.360591
0.00103444
0.360575
0.00117447
0.360533
0.00130625
0.360467
0.00142915
0.360378
0.00154248
0.360268
0.00164574
0.36014
0.00173842
0.359994
0.00182049
0.359832
0.00189268
0.359657
0.00195384
0.35947
0.0020054
0.359272
0.00205151
0.359062
0.00209229
0.358842
0.00212883
0.35861
0.00216576
0.358363
0.00220596
0.00225207
0.34202
0.000459236
-0.341912
0.342099
0.000652152
0.342149
0.000836643
0.342171
0.00101187
0.342168
0.00117798
0.34214
0.00133436
0.342089
0.00148033
0.342016
0.00161516
0.341924
0.00173806
0.341813
0.0018486
0.341687
0.00194698
0.341548
0.00203194
0.341397
0.00210448
0.341235
0.00216781
0.341064
0.00222209
0.340887
0.00226963
0.340702
0.002314
0.340507
0.00235979
0.340302
0.00241135
0.00247248
0.324812
0.000356507
-0.324709
0.324887
0.000577247
0.324935
0.000788885
0.324956
0.00099036
0.324953
0.00118147
0.324926
0.0013615
0.324876
0.00152962
0.324807
0.00168499
0.324718
0.00182657
0.324613
0.00195374
0.324493
0.00206677
0.324361
0.00216396
0.324219
0.00224605
0.32407
0.00231688
0.323916
0.00237683
0.323757
0.00242787
0.323596
0.00247581
0.323429
0.00252611
0.323256
0.00258498
0.00265796
0.308768
0.000264855
-0.308677
0.308833
0.000512428
0.308872
0.000750259
0.308885
0.000977112
0.308874
0.0011925
0.30884
0.00139553
0.308784
0.00158522
0.308709
0.00176048
0.308615
0.00192017
0.308505
0.00206349
0.308383
0.00218925
0.30825
0.00229709
0.308107
0.00238847
0.307961
0.00246375
0.307812
0.00252513
0.307664
0.00257595
0.307517
0.00262265
0.307371
0.00267216
0.307223
0.00273338
0.00281449
0.293787
0.000186787
-0.293709
0.293839
0.000460617
0.293865
0.000724089
0.293867
0.000975814
0.293844
0.00121509
0.293799
0.00144079
0.293732
0.00165183
0.293646
0.00184668
0.293542
0.00202418
0.293422
0.00218313
0.29329
0.00232133
0.293148
0.002439
0.292999
0.00253729
0.292848
0.00261466
0.292699
0.00267464
0.292555
0.00272036
0.292417
0.00276033
0.292287
0.00280236
0.29216
0.00285981
0.00294428
0.279765
0.000123066
-0.279701
0.279803
0.000422849
0.279815
0.000711684
0.279803
0.00098807
0.279767
0.0012511
0.279708
0.00149944
0.279628
0.00173181
0.279529
0.00194635
0.279411
0.0021416
0.279278
0.00231602
0.279132
0.00246712
0.278978
0.00259353
0.278818
0.00269717
0.278658
0.00277494
0.278502
0.00283043
0.278357
0.00286559
0.278224
0.00289274
0.278108
0.00291852
0.278003
0.00296458
0.00304567
0.266603
7.36047e-05
-0.266554
0.266627
0.000399187
0.266625
0.000713259
0.266599
0.00101425
0.266549
0.00130104
0.266477
0.00157218
0.266382
0.00182605
0.266268
0.00206064
0.266135
0.00227423
0.265988
0.0024638
0.265827
0.00262773
0.265657
0.00276408
0.265481
0.00287229
0.265309
0.00294775
0.265142
0.0029965
0.264993
0.00301504
0.264863
0.00302281
0.264761
0.00302023
0.26468
0.00304569
0.00311265
0.254214
3.78054e-05
-0.254178
0.254224
0.000389059
0.254209
0.000728288
0.25417
0.00105388
0.254106
0.00136455
0.25402
0.00165872
0.253911
0.00193442
0.253782
0.0021895
0.253635
0.00242198
0.253471
0.00262753
0.253293
0.00280522
0.253106
0.0029513
0.252914
0.00306424
0.252726
0.00313639
0.252546
0.00317649
0.252389
0.00317159
0.252258
0.00315354
0.252174
0.00310504
0.25212
0.0030993
0.0031329
0.24252
1.44339e-05
-0.242496
0.242517
0.000391213
0.24249
0.000755518
0.242438
0.00110573
0.242362
0.00144041
0.242263
0.00175788
0.242142
0.00205587
0.241999
0.00233199
0.241837
0.00258397
0.241658
0.00280696
0.241464
0.00299915
0.24126
0.0031555
0.24105
0.00327452
0.240843
0.00334284
0.240646
0.0033736
0.24048
0.00333793
0.240344
0.0032888
0.24028
0.00316892
0.240259
0.00312095
0.00308257
0.231453
1.41527e-06
-0.23144
0.23144
0.000403583
0.231403
0.000792896
0.231341
0.00116774
0.231255
0.00152662
0.231145
0.00186765
0.231012
0.00218844
0.230858
0.00248635
0.230684
0.00275826
0.230491
0.00299958
0.230282
0.00320837
0.230061
0.00337628
0.229833
0.00350255
0.229608
0.00356801
0.229391
0.00359027
0.229213
0.00351671
0.229068
0.00343333
0.22903
0.00320686
0.229041
0.00310977
0.00291607
0.220961
-4.17844e-06
-0.220955
0.220941
0.000423337
0.220896
0.000837614
0.220827
0.0012371
0.220733
0.00162029
0.220616
0.00198506
0.220475
0.00232899
0.220312
0.00264909
0.220129
0.00294166
0.219926
0.00320261
0.219705
0.00342882
0.219472
0.00360992
0.219228
0.00374604
0.218985
0.00381082
0.218748
0.00382729
0.218555
0.00371062
0.218396
0.0035914
0.218393
0.00321073
0.218428
0.00307456
0.00255692
0.211003
-5.93417e-06
-0.211001
0.21098
0.000446885
0.210931
0.000885958
0.210858
0.0013099
0.210761
0.00171723
0.210641
0.00210558
0.210497
0.00247249
0.210332
0.00281483
0.210145
0.00312839
0.209939
0.00340898
0.209714
0.0036534
0.209475
0.00384947
0.209223
0.00399774
0.208968
0.00406552
0.208714
0.00408125
0.208502
0.00392246
0.208326
0.0037682
0.208369
0.00316712
0.208428
0.00301549
0.00190156
0.201551
-7.91217e-06
-0.201549
0.201528
0.000469692
0.201482
0.000932749
0.201411
0.00138024
0.201318
0.00181071
0.201202
0.00222159
0.201064
0.00261025
0.200905
0.00297355
0.200726
0.0033075
0.200528
0.00360687
0.200313
0.00386881
0.200082
0.00408046
0.199837
0.00424246
0.199585
0.00431729
0.199328
0.00433921
0.199099
0.00415058
0.198892
0.0039753
0.198965
0.0030946
0.199117
0.00286327
0.000744929
0.192584
-0.192578
-1.38805e-05
0.192567
0.000486687
0.192528
0.000971533
0.192468
0.00144012
0.192388
0.00189103
0.192288
0.00232165
0.192169
0.00272919
0.192032
0.00311019
0.191878
0.0034614
0.191708
0.00377737
0.191522
0.00405436
0.191323
0.00427977
0.19111
0.00445529
0.190887
0.00454026
0.190652
0.00457423
0.190423
0.00437957
0.190181
0.00421724
0.190134
0.00314189
0.190318
0.00267867
-0.00199206
0.485132
0.000125121
-0.485257
0.485095
3.72137e-05
0.485085
9.42814e-06
0.485082
2.82621e-06
0.485078
4.22386e-06
0.485068
9.88331e-06
0.485049
1.91443e-05
0.485018
3.10523e-05
0.484974
4.44521e-05
0.484915
5.84621e-05
0.484843
7.23405e-05
0.484757
8.58135e-05
0.484659
9.82164e-05
0.484549
0.000109878
0.48443
0.000119251
0.484302
0.000128148
0.484171
0.000130988
0.484036
0.000134069
0.483923
0.00011333
8.80135e-05
0.464839
-0.000180953
-0.464533
0.465098
-0.000221577
0.465339
-0.000231439
0.465558
-0.00021583
0.46575
-0.000187926
0.465915
-0.000154868
0.466052
-0.000117932
0.466161
-7.77717e-05
0.466241
-3.56311e-05
0.466292
7.25167e-06
0.466314
4.97636e-05
0.466309
9.13586e-05
0.466276
0.000131108
0.466217
0.000169006
0.466133
0.000203303
0.466026
0.000234807
0.465898
0.000258868
0.465754
0.00027802
0.465586
0.000281302
0.000280037
0.441386
-0.000738837
-0.440828
0.441885
-0.000720745
0.442343
-0.000689099
0.442766
-0.000638863
0.443154
-0.00057569
0.443505
-0.000506323
0.44382
-0.000433194
0.4441
-0.000357166
0.444343
-0.000279311
0.444551
-0.000200814
0.444724
-0.000122876
0.444862
-4.62509e-05
0.444965
2.80494e-05
0.445034
9.96342e-05
0.44507
0.00016704
0.445075
0.000230237
0.445047
0.000286537
0.444988
0.000336956
0.444891
0.000378296
0.000413643
0.417122
-0.00141605
-0.416445
0.417752
-0.00135055
0.418338
-0.0012758
0.418888
-0.00118859
0.419402
-0.00109
0.419881
-0.000984418
0.420322
-0.000874502
0.420726
-0.000761586
0.421094
-0.000646825
0.421424
-0.000531413
0.421718
-0.000416577
0.421975
-0.000303242
0.422196
-0.000192447
0.42238
-8.48012e-05
0.422529
1.85241e-05
0.422642
0.000117177
0.422718
0.000209644
0.422759
0.000296163
0.422762
0.000375522
0.000447057
0.39401
-0.00214128
-0.393285
0.394698
-0.00203794
0.395347
-0.00192529
0.395961
-0.00180268
0.396541
-0.00166996
0.397086
-0.00152974
0.397596
-0.00138442
0.398071
-0.00123574
0.398509
-0.00108514
0.398911
-0.000933861
0.399278
-0.000783165
0.399609
-0.000634063
0.399904
-0.000487576
0.400163
-0.000344412
0.400388
-0.000205544
0.400576
-7.14578e-05
0.400729
5.67986e-05
0.400846
0.000178988
0.400927
0.000294431
0.000401792
0.372501
-0.00287666
-0.371766
0.373205
-0.00274168
0.373875
-0.0025957
0.374512
-0.0024397
0.375116
-0.00227384
0.375687
-0.00210008
0.376223
-0.0019207
0.376725
-0.0017377
0.377192
-0.00155276
0.377626
-0.00136724
0.378025
-0.0011824
0.37839
-0.000999275
0.378722
-0.000818833
0.379019
-0.000641805
0.379282
-0.000469054
0.379512
-0.000301131
0.379708
-0.000138886
0.37987
1.72716e-05
0.379997
0.00016689
0.000308761
0.352639
-0.00360329
-0.351912
0.353337
-0.00344004
0.354005
-0.00326337
0.354641
-0.0030753
0.355244
-0.00287685
0.355814
-0.00267013
0.35635
-0.00245756
0.356854
-0.00224134
0.357325
-0.00202332
0.357762
-0.00180499
0.358168
-0.00158758
0.35854
-0.00137209
0.358881
-0.00115943
0.359189
-0.00095031
0.359466
-0.000745499
0.35971
-0.000545558
0.359923
-0.000351223
0.360103
-0.000162918
0.360251
1.89168e-05
0.000193194
0.334325
-0.00431352
-0.333615
0.335008
-0.00412358
0.335662
-0.00391734
0.336285
-0.00369763
0.336875
-0.00346659
0.337431
-0.00322696
0.337955
-0.00298149
0.338447
-0.00273262
0.338906
-0.00248236
0.339333
-0.00223223
0.339729
-0.00198344
0.340094
-0.00173692
0.340428
-0.00149349
0.340731
-0.00125378
0.341004
-0.00101846
0.341247
-0.000788071
0.341459
-0.000563264
0.34164
-0.000344489
0.341791
-0.000132217
7.25163e-05
0.317397
-0.00500635
-0.316704
0.318063
-0.00479026
0.3187
-0.00455446
0.319305
-0.00430267
0.319877
-0.00403833
0.320415
-0.00376523
0.320921
-0.00348663
0.321393
-0.00320524
0.321834
-0.00292315
0.322244
-0.00264189
0.322623
-0.0023626
0.322972
-0.00208609
0.323291
-0.00181301
0.323582
-0.00154389
0.323842
-0.0012793
0.324074
-0.00101971
0.324276
-0.000765726
0.32445
-0.000517805
0.324594
-0.000276477
-4.27736e-05
0.301683
-0.00568435
-0.301005
0.302335
-0.00544201
0.302956
-0.00517575
0.303544
-0.00489042
0.304097
-0.00459139
0.304615
-0.00428375
0.3051
-0.0039714
0.305552
-0.00365726
0.305973
-0.0033435
0.306362
-0.00303159
0.306722
-0.00272249
0.307053
-0.0024168
0.307355
-0.00211497
0.307628
-0.00181738
0.307874
-0.00152447
0.30809
-0.00123662
0.308279
-0.000954412
0.30844
-0.000678311
0.308572
-0.000408914
-0.000147253
0.287032
-0.00635186
-0.286365
0.287673
-0.00608274
0.288281
-0.00578411
0.288854
-0.0054628
0.289389
-0.00512699
0.289889
-0.00478332
0.290354
-0.00443627
0.290786
-0.00408901
0.291186
-0.00374366
0.291556
-0.00340149
0.291896
-0.00306316
0.292208
-0.00272898
0.292493
-0.00239914
0.292749
-0.00207381
0.292978
-0.0017533
0.293179
-0.00143788
0.293353
-0.00112811
0.293499
-0.000824483
0.293618
-0.000527642
-0.000238663
0.273317
-0.00701415
-0.272655
0.273952
-0.0067174
0.274551
-0.00638324
0.27511
-0.00602242
0.27563
-0.00564711
0.276113
-0.00526552
0.276559
-0.00488264
0.276972
-0.00450177
0.277353
-0.00412486
0.277704
-0.00375278
0.278027
-0.00338575
0.278322
-0.00302368
0.278589
-0.00266644
0.278829
-0.00231397
0.279042
-0.00196638
0.279228
-0.00162389
0.279387
-0.00128699
0.279519
-0.000956236
0.279623
-0.000632337
-0.000316416
0.260434
-0.00767757
-0.25977
0.261068
-0.00735201
0.261663
-0.0069773
0.262212
-0.00657213
0.262719
-0.00615391
0.263186
-0.00573203
0.263615
-0.00531187
0.26401
-0.0048968
0.264373
-0.00448831
0.264707
-0.0040866
0.265013
-0.00369134
0.265291
-0.00330192
0.265542
-0.00291783
0.265767
-0.0025387
0.265965
-0.00216446
0.266136
-0.00179526
0.266281
-0.00143157
0.266399
-0.00107398
0.26649
-0.000723273
-0.000380647
0.248302
-0.00835016
-0.247629
0.248944
-0.00799393
0.249537
-0.00757084
0.25008
-0.00711476
0.250575
-0.00664909
0.251027
-0.00618364
0.251439
-0.00572426
0.251816
-0.00527416
0.252162
-0.00483392
0.252478
-0.00440288
0.252767
-0.00397992
0.253029
-0.00356378
0.253264
-0.00315346
0.253474
-0.00274826
0.253657
-0.0023479
0.253814
-0.00195246
0.253945
-0.00156236
0.254049
-0.00117825
0.254127
-0.000800994
-0.000431887
0.236861
-0.00904344
-0.236168
0.237518
-0.00865137
0.238115
-0.00816776
0.238652
-0.00765182
0.239135
-0.00713192
0.239569
-0.00661806
0.239962
-0.00611698
0.240319
-0.00563101
0.240644
-0.00515916
0.240941
-0.00469951
0.241211
-0.0042499
0.241455
-0.00380823
0.241675
-0.00337281
0.241869
-0.00294255
0.242038
-0.00251698
0.242182
-0.00209605
0.242299
-0.00168016
0.242391
-0.00127
0.242457
-0.000866568
-0.000471269
0.226075
-0.00977765
-0.225341
0.226754
-0.00933058
0.227353
-0.00876692
0.22788
-0.00817905
0.228343
-0.00759476
0.228752
-0.00702654
0.229117
-0.00648212
0.229447
-0.00596084
0.229747
-0.00545903
0.23002
-0.00497307
0.23027
-0.00449933
0.230496
-0.00403448
0.230699
-0.00357603
0.230879
-0.00312246
0.231035
-0.00267308
0.231167
-0.00222774
0.231273
-0.00178687
0.231355
-0.00135127
0.23141
-0.000922055
-0.000500842
0.215924
-0.0105915
-0.21511
0.216622
-0.0100288
0.217207
-0.00935208
0.217707
-0.00867884
0.218131
-0.0080188
0.218497
-0.00739292
0.218824
-0.0068082
0.219119
-0.00625648
0.21939
-0.00572987
0.21964
-0.00522265
0.21987
-0.00472929
0.22008
-0.00424494
0.22027
-0.00376634
0.22044
-0.00329162
0.220586
-0.00281997
0.22071
-0.0023513
0.220809
-0.00188614
0.220883
-0.0014255
0.220932
-0.000970694
-0.000523632
0.206377
-0.0115335
-0.205435
0.207066
-0.0107184
0.207595
-0.00988067
0.208033
-0.00911691
0.208394
-0.00838017
0.208705
-0.00770391
0.208988
-0.00709044
0.20925
-0.00651921
0.209497
-0.00597682
0.20973
-0.00545548
0.209949
-0.00494782
0.210151
-0.00444773
0.210336
-0.00395145
0.210502
-0.00345711
0.210646
-0.00296405
0.210767
-0.00247243
0.210864
-0.00198304
0.210936
-0.0014972
0.210982
-0.00101654
-0.000543371
0.197343
-0.0125007
-0.196376
0.197932
-0.011307
0.198354
-0.0103023
0.198699
-0.00946267
0.198997
-0.0086776
0.199267
-0.00797445
0.199525
-0.00734755
0.199774
-0.00676827
0.200015
-0.00621854
0.200248
-0.00568838
0.20047
-0.00516934
0.200677
-0.00465487
0.200867
-0.00414127
0.201037
-0.00362706
0.201185
-0.003112
0.201309
-0.00259671
0.201408
-0.00208235
0.201482
-0.00157065
0.201529
-0.00106357
-0.000563947
0.188489
-0.188479
-0.0125103
0.188852
-0.0116707
0.189282
-0.0107318
0.18957
-0.00975049
0.189856
-0.00896349
0.190149
-0.00826784
0.190428
-0.00762669
0.190696
-0.00703569
0.190956
-0.00647859
0.191206
-0.00593874
0.191443
-0.00540598
0.191662
-0.00487449
0.191862
-0.00434117
0.19204
-0.00380495
0.192194
-0.00326613
0.192323
-0.00272581
0.192426
-0.0021856
0.192503
-0.00164757
0.192554
-0.00111392
-0.000588018
0.0116688
0.174764
-0.174225
-0.0122084
0.0111298
0.183719
-0.18318
0.0105858
0.193064
-0.19252
0.0100332
0.202839
-0.202286
0.00947122
0.21309
-0.212528
0.00890039
0.223869
-0.223298
0.00832145
0.235231
-0.234652
0.00773406
0.24723
-0.246643
0.00713638
0.259928
-0.25933
0.00652494
0.273394
-0.272782
0.00589492
0.287716
-0.287086
0.00524049
0.303015
-0.30236
0.0045554
0.319448
-0.318763
0.00383407
0.337231
-0.336509
0.003074
0.356629
-0.355869
0.0022804
0.377951
-0.377157
0.00147577
0.401523
-0.400718
0.000718922
0.427467
-0.426711
0.000146809
0.454573
-0.454001
0.481092
-0.480945
0.0118947
0.175322
-0.0124521
0.0113403
0.184273
0.0107827
0.193622
0.0102175
0.203404
0.00964311
0.213664
0.00905973
0.224452
0.0084678
0.235823
0.00786694
0.247831
0.00725539
0.26054
0.00662987
0.274019
0.00598574
0.288361
0.00531739
0.303683
0.00461887
0.320147
0.00388525
0.337964
0.00311517
0.357399
0.00231592
0.37875
0.00151306
0.402326
0.000768967
0.428211
0.00020647
0.455135
0.481298
0.0120962
0.175896
-0.01267
0.0115276
0.184842
0.0109576
0.194192
0.0103811
0.203981
0.00979573
0.21425
0.00920122
0.225047
0.00859773
0.236426
0.00798481
0.248444
0.00736076
0.261164
0.00672248
0.274658
0.00606551
0.289017
0.0053845
0.304364
0.00467382
0.320858
0.00392907
0.338709
0.00314987
0.358178
0.00234494
0.379555
0.00154091
0.40313
0.000797851
0.428955
0.000229419
0.455704
0.481528
0.0122723
0.176484
-0.0128611
0.0116913
0.185423
0.0111105
0.194773
0.0105242
0.204567
0.00992924
0.214844
0.00932501
0.225651
0.00871137
0.23704
0.00808777
0.249068
0.00745258
0.261799
0.00680282
0.275307
0.00613424
0.289686
0.0054417
0.305056
0.00471987
0.321579
0.00396474
0.339464
0.00317645
0.358966
0.00236449
0.380367
0.00155606
0.403938
0.000810328
0.4297
0.000239513
0.456275
0.481767
0.0124237
0.177086
-0.0130257
0.0118317
0.186015
0.0112416
0.195363
0.0106467
0.205162
0.0100436
0.215448
0.00943098
0.226264
0.0088085
0.237662
0.00817552
0.249701
0.00753046
0.262444
0.00687044
0.275967
0.0061914
0.290365
0.00548839
0.305759
0.00475635
0.322311
0.00399154
0.340229
0.00319451
0.359763
0.00237539
0.381186
0.00156251
0.404751
0.000815765
0.430447
0.000244558
0.456846
0.482012
0.0125516
0.1777
-0.0131655
0.0119499
0.186616
0.0113517
0.195961
0.0107494
0.205764
0.0101392
0.216058
0.00951932
0.226884
0.00888916
0.238292
0.00824795
0.250342
0.00759414
0.263098
0.00692499
0.276636
0.00623658
0.291053
0.00552417
0.306472
0.00478288
0.323053
0.00400933
0.341003
0.0032045
0.360568
0.00237925
0.382011
0.00156307
0.405567
0.000816623
0.431193
0.000246522
0.457416
0.482258
0.0126579
0.178325
-0.0132827
0.0120474
0.187227
0.0114418
0.196567
0.0108331
0.206373
0.0102167
0.216674
0.00959047
0.22751
0.00895357
0.238929
0.00830514
0.25099
0.0076436
0.263759
0.00696636
0.277314
0.00626964
0.29175
0.00554887
0.307193
0.00479943
0.323802
0.00401827
0.341784
0.00320689
0.361379
0.00237687
0.382841
0.00155864
0.406386
0.000813403
0.431939
0.000245639
0.457984
0.482504
0.0127447
0.17896
-0.0133799
0.0121259
0.187846
0.0115136
0.197179
0.010899
0.206987
0.010277
0.217296
0.0096451
0.228142
0.0090022
0.239572
0.00834733
0.251645
0.00767897
0.264428
0.00699459
0.277998
0.00629058
0.292454
0.00556252
0.307921
0.00480607
0.324559
0.00401852
0.342571
0.00320188
0.362196
0.00236839
0.383675
0.0015493
0.407205
0.000806214
0.432682
0.000242346
0.458547
0.482746
0.0128143
0.179606
-0.0134598
0.0121874
0.188472
0.0115685
0.197798
0.0109481
0.207608
0.0103208
0.217924
0.00968364
0.228779
0.0090353
0.24022
0.00837469
0.252306
0.0077003
0.265102
0.00700968
0.278689
0.00629936
0.293165
0.00556512
0.308655
0.00480284
0.325321
0.00401014
0.343364
0.00318955
0.363017
0.00235396
0.38451
0.00153532
0.408023
0.000795647
0.433421
0.000237286
0.459106
0.482984
0.01287
0.180262
-0.0135262
0.0122344
0.189108
0.0116084
0.198424
0.010982
0.208234
0.0103492
0.218556
0.00970682
0.229421
0.00905327
0.240874
0.00838736
0.252972
0.00770758
0.265782
0.00701154
0.279385
0.00629589
0.29388
0.00555657
0.309394
0.00478967
0.326088
0.00399315
0.34416
0.00317
0.36384
0.00233376
0.385347
0.00151704
0.40884
0.00078221
0.434156
0.000230886
0.459657
0.483214
0.0129137
0.18093
-0.0135822
0.0122682
0.189754
0.0116341
0.199058
0.0110009
0.208867
0.0103621
0.219195
0.00971439
0.230069
0.00905577
0.241533
0.00838499
0.253642
0.00770046
0.266466
0.00699984