/*--------------------------------*- C++ -*----------------------------------*\
| =========                 |                                                 |
| \\      /  F ield         | OpenFOAM: The Open Source CFD Toolbox           |
|  \\    /   O peration     | Version:  v1912                                 |
|   \\  /    A nd           | Website:  www.openfoam.com                      |
|    \\/     M anipulation  |                                                 |
\*---------------------------------------------------------------------------*/
FoamFile
{
    version     2.0;
    format      ascii;
    class       volScalarField;
    location    "49";
    object      p;
}
// * * * * * * * * * * * * * * * * * * * * * * * * * * * * * * * * * * * * * //

dimensions      [0 2 -2 0 0 0 0];


internalField   nonuniform List<scalar> 
9600
(
-41.4828
-36.2179
-32.9909
-30.2535
-27.748
-25.4812
-23.4246
-21.5504
-19.8412
-18.2831
-16.8638
-15.5711
-14.3937
-13.3208
-12.3424
-11.449
-10.6322
-9.88405
-9.19706
-8.56903
-42.2424
-36.9599
-33.6969
-30.9167
-28.3661
-26.0552
-23.9572
-22.0453
-20.3022
-18.7142
-17.2684
-15.9526
-14.7549
-13.6641
-12.6698
-11.7622
-10.9327
-10.1728
-9.47468
-8.83738
-43.0036
-37.6979
-34.3976
-31.5744
-28.9784
-26.6232
-24.4839
-22.5343
-20.7575
-19.1398
-17.668
-16.3293
-15.1116
-14.0032
-12.9932
-12.0716
-11.2294
-10.4579
-9.74872
-9.10234
-43.7632
-38.4315
-35.0924
-32.2255
-29.5838
-27.1842
-25.0035
-23.0165
-21.2063
-19.5592
-18.0616
-16.7005
-15.4631
-14.3373
-13.312
-12.3766
-11.522
-10.7389
-10.0188
-9.36358
-44.5183
-39.1591
-35.7804
-32.869
-30.1814
-27.7373
-25.5153
-23.491
-21.6478
-19.9716
-18.4487
-17.0655
-15.8088
-14.666
-13.6256
-12.6767
-11.8098
-11.0154
-10.2845
-9.62083
-45.2668
-39.8793
-36.4602
-33.5038
-30.77
-28.2813
-26.0183
-23.9569
-22.081
-20.3763
-18.8285
-17.4236
-16.148
-14.9886
-13.9334
-12.9714
-12.0926
-11.2869
-10.5455
-9.8738
-46.007
-40.5907
-37.1307
-34.1289
-31.3486
-28.8154
-26.5114
-24.4135
-22.5053
-20.7725
-19.2003
-17.7742
-16.48
-15.3045
-14.2349
-13.2601
-12.3697
-11.5532
-10.8015
-10.1222
-46.7372
-41.2918
-37.7906
-34.7429
-31.9161
-29.3385
-26.9939
-24.8596
-22.9197
-21.1592
-19.5632
-18.1164
-16.8043
-15.613
-14.5296
-13.5423
-12.6407
-11.8137
-11.0521
-10.3658
-47.4562
-41.9814
-38.4387
-35.3449
-32.4714
-29.8496
-27.4646
-25.2946
-23.3234
-21.5359
-19.9165
-18.4496
-17.1201
-15.9135
-14.8167
-13.8175
-12.9051
-12.068
-11.2969
-10.6042
-48.1626
-42.6582
-39.0738
-35.9338
-33.0136
-30.3478
-27.9229
-25.7175
-23.7156
-21.9016
-20.2595
-18.773
-17.4265
-16.2052
-15.0955
-14.0848
-13.1621
-12.3155
-11.5354
-10.837
-48.8554
-43.3211
-39.695
-36.5085
-33.5418
-30.8321
-28.3676
-26.1274
-24.0954
-22.2555
-20.5912
-19.0857
-17.7228
-16.4874
-15.3652
-14.3436
-13.4112
-12.5554
-11.7669
-11.0635
-49.5337
-43.9692
-40.3011
-37.068
-34.0548
-31.3017
-28.7981
-26.5236
-24.4619
-22.5968
-20.9108
-19.3869
-18.0082
-16.759
-15.6249
-14.593
-13.6513
-12.7871
-11.9907
-11.2831
-50.1966
-44.6016
-40.8913
-37.6116
-34.552
-31.7557
-29.2134
-26.9052
-24.8145
-22.9245
-21.2176
-19.6756
-18.2816
-17.0192
-15.8736
-14.8318
-13.8815
-13.0094
-12.2059
-11.4949
-50.8437
-45.2174
-41.4647
-38.1382
-35.0324
-32.1933
-29.6128
-27.2714
-25.1522
-23.2381
-21.5105
-19.951
-18.5419
-17.2666
-16.1101
-15.0588
-14.1005
-13.2212
-12.4112
-11.6983
-51.4744
-45.8159
-42.0206
-38.6473
-35.4955
-32.6139
-29.9957
-27.6216
-25.4745
-23.5366
-21.7888
-20.212
-18.7882
-17.5002
-16.3328
-15.2723
-14.3061
-13.42
-12.6047
-11.8914
-52.0882
-46.3962
-42.5582
-39.1382
-35.9406
-33.0169
-30.3616
-27.9553
-25.7808
-23.8195
-22.0518
-20.458
-19.0195
-17.7189
-16.5406
-15.4707
-14.4967
-13.604
-12.7834
-12.0687
-52.6863
-46.9583
-43.0768
-39.6102
-36.3669
-33.4016
-30.7097
-28.272
-26.0705
-24.0862
-22.2989
-20.6881
-19.2349
-17.9216
-16.7323
-15.6533
-14.6718
-13.7729
-12.9464
-12.2271
-53.2732
-47.5033
-43.5757
-40.0621
-36.7737
-33.7675
-31.0398
-28.5712
-26.3434
-24.3365
-22.5295
-20.9017
-19.4333
-18.1066
-16.9058
-15.8173
-14.8287
-13.9241
-13.0926
-12.3777
-53.8509
-48.0306
-44.0533
-40.4929
-37.1605
-34.1145
-31.352
-28.8535
-26.6
-24.5708
-22.7443
-21.0988
-19.6143
-18.2724
-17.0575
-15.9561
-14.9555
-14.04
-13.2072
-12.5249
-54.3976
-48.5327
-44.5086
-40.9032
-37.5286
-34.4442
-31.648
-29.1205
-26.842
-24.7912
-22.9453
-21.2821
-19.7806
-18.4218
-17.1892
-16.0682
-15.0438
-14.1026
-13.2589
-12.5829
-59.8515
-59.82
-59.7508
-59.6584
-59.5421
-59.3994
-59.2298
-59.0338
-58.812
-58.5649
-58.293
-57.997
-57.6775
-57.3352
-56.9708
-56.5852
-56.1795
-55.7554
-55.3158
-54.8638
-53.5029
-53.5003
-53.4645
-53.4012
-53.3111
-53.1936
-53.0491
-52.8781
-52.6815
-52.4598
-52.2136
-51.9436
-51.6504
-51.3346
-50.9968
-50.6377
-50.258
-49.8582
-49.4388
-48.9976
-48.859
-48.8808
-48.8733
-48.8369
-48.7731
-48.6827
-48.5663
-48.4245
-48.258
-48.0673
-47.853
-47.6158
-47.356
-47.0744
-46.7714
-46.4474
-46.1027
-45.7374
-45.3511
-44.942
-44.6288
-44.6683
-44.6812
-44.667
-44.6265
-44.5609
-44.4707
-44.3567
-44.2192
-44.0588
-43.8761
-43.6716
-43.4458
-43.1991
-42.932
-42.6448
-42.3375
-42.0102
-41.6626
-41.2938
-40.7174
-40.7668
-40.7922
-40.793
-40.7694
-40.7225
-40.6527
-40.5607
-40.4469
-40.3118
-40.1559
-39.9797
-39.7837
-39.5683
-39.3338
-39.0804
-38.8084
-38.5175
-38.2077
-37.8783
-37.2046
-37.2581
-37.29
-37.2994
-37.2865
-37.2519
-37.1963
-37.1202
-37.0239
-36.9081
-36.7732
-36.6196
-36.4478
-36.2583
-36.0512
-35.827
-35.5856
-35.327
-35.051
-34.7571
-34.0814
-34.1348
-34.1685
-34.1816
-34.1743
-34.147
-34.1003
-34.0348
-33.9508
-33.8488
-33.7294
-33.593
-33.44
-33.2709
-33.0861
-32.8857
-32.6699
-32.4387
-32.1917
-31.9285
-31.3109
-31.3615
-31.3939
-31.4073
-31.4018
-31.3781
-31.3364
-31.2774
-31.2014
-31.109
-31.0006
-30.8768
-30.738
-30.5846
-30.4172
-30.236
-30.0411
-29.8326
-29.6101
-29.3731
-28.8533
-28.8994
-28.9286
-28.9403
-28.9345
-28.9117
-28.8724
-28.8171
-28.7461
-28.66
-28.5593
-28.4445
-28.3161
-28.1748
-28.021
-27.855
-27.6771
-27.4874
-27.2854
-27.0707
-26.6688
-26.7098
-26.735
-26.7437
-26.7363
-26.713
-26.6744
-26.6208
-26.5528
-26.4708
-26.3754
-26.2671
-26.1465
-26.0143
-25.8711
-25.7172
-25.5532
-25.3791
-25.1946
-24.9992
-24.7204
-24.7561
-24.7769
-24.7823
-24.7726
-24.748
-24.7091
-24.6563
-24.5899
-24.5106
-24.4188
-24.3152
-24.2004
-24.0752
-23.9403
-23.7962
-23.6436
-23.4827
-23.3134
-23.1348
-22.975
-23.0057
-23.0222
-23.0243
-23.012
-22.9859
-22.9462
-22.8935
-22.828
-22.7504
-22.6612
-22.5611
-22.4507
-22.3309
-22.2026
-22.0665
-21.9234
-21.7739
-21.6179
-21.4546
-21.4045
-21.4305
-21.4431
-21.4419
-21.4273
-21.3995
-21.3589
-21.306
-21.241
-21.1646
-21.0773
-20.9798
-20.8728
-20.7572
-20.6341
-20.5044
-20.3694
-20.2297
-20.0859
-19.9368
-19.9849
-20.0068
-20.0158
-20.0118
-19.995
-19.9656
-19.9242
-19.8709
-19.8063
-19.7307
-19.6449
-19.5494
-19.445
-19.3327
-19.2137
-19.0892
-18.9609
-18.8298
-18.6971
-18.5618
-18.6966
-18.7148
-18.7206
-18.714
-18.6952
-18.6646
-18.6223
-18.5688
-18.5044
-18.4296
-18.3449
-18.251
-18.1486
-18.0389
-17.9231
-17.8026
-17.6797
-17.5558
-17.4336
-17.3117
-17.5229
-17.5378
-17.5408
-17.5319
-17.5115
-17.4796
-17.4367
-17.3829
-17.3188
-17.2446
-17.1609
-17.0683
-16.9675
-16.8597
-16.7461
-16.6284
-16.5095
-16.3914
-16.2788
-16.1701
-16.4502
-16.462
-16.4625
-16.4517
-16.4298
-16.3969
-16.3533
-16.2994
-16.2354
-16.1617
-16.0788
-15.9872
-15.8875
-15.7808
-15.6684
-15.5522
-15.4356
-15.3213
-15.2168
-15.1199
-15.4663
-15.4757
-15.4743
-15.462
-15.439
-15.4054
-15.3616
-15.3077
-15.244
-15.1708
-15.0886
-14.9978
-14.8989
-14.7928
-14.6808
-14.5647
-14.4483
-14.3355
-14.238
-14.1503
-14.5603
-14.5683
-14.5659
-14.5531
-14.53
-14.4968
-14.4537
-14.4009
-14.3386
-14.267
-14.1866
-14.0977
-14.0007
-13.8962
-13.7853
-13.6694
-13.5524
-13.4392
-13.3486
-13.275
-13.7268
-13.7316
-13.7267
-13.7121
-13.6879
-13.6543
-13.6115
-13.5596
-13.4987
-13.4292
-13.3512
-13.265
-13.1708
-13.0692
-12.9604
-12.8457
-12.7268
-12.6089
-12.5118
-12.4625
-53.5609
-54.1362
-54.6743
-55.1974
-55.7026
-56.1838
-56.6383
-57.065
-57.4629
-57.8312
-58.1692
-58.4763
-58.7524
-58.9969
-59.2092
-59.3895
-59.5387
-59.6578
-59.7488
-59.8138
-47.0782
-47.6588
-48.2113
-48.7416
-49.2489
-49.7311
-50.1865
-50.6146
-51.0147
-51.386
-51.7282
-52.0409
-52.3243
-52.5792
-52.8033
-52.9961
-53.1583
-53.2902
-53.3923
-53.4635
-42.4343
-43.0026
-43.5473
-44.0686
-44.5665
-45.0402
-45.4889
-45.912
-46.3088
-46.6787
-47.0206
-47.3345
-47.6199
-47.8755
-48.1028
-48.3019
-48.4724
-48.6142
-48.7268
-48.8088
-38.3106
-38.8537
-39.3772
-39.879
-40.3586
-40.8158
-41.2499
-41.6603
-42.0463
-42.4074
-42.7423
-43.0503
-43.3326
-43.5886
-43.8183
-44.0217
-44.1982
-44.3475
-44.4693
-44.5632
-34.6332
-35.1463
-35.6423
-36.1187
-36.5744
-37.0092
-37.4224
-37.8134
-38.1815
-38.5262
-38.8481
-39.1466
-39.4204
-39.6697
-39.8946
-40.0947
-40.2699
-40.4199
-40.5447
-40.644
-31.435
-31.9166
-32.3828
-32.831
-33.2602
-33.6697
-34.0592
-34.428
-34.7757
-35.102
-35.4067
-35.6893
-35.949
-36.1861
-36.4009
-36.5931
-36.7621
-36.9077
-37.0301
-37.1293
-28.6634
-29.1142
-29.5507
-29.9707
-30.3727
-30.7564
-31.1213
-31.4669
-31.7927
-32.0985
-32.384
-32.6488
-32.8926
-33.1152
-33.3163
-33.4978
-33.6578
-33.796
-33.9126
-34.0079
-26.2517
-26.6736
-27.0821
-27.475
-27.8511
-28.2098
-28.5507
-28.8733
-29.1773
-29.4624
-29.7284
-29.975
-30.2023
-30.4099
-30.598
-30.765
-30.9145
-31.0437
-31.1526
-31.2418
-24.1412
-24.5367
-24.9195
-25.2874
-25.6393
-25.9747
-26.2929
-26.5938
-26.877
-27.1423
-27.3895
-27.6186
-27.8294
-28.022
-28.1961
-28.352
-28.4882
-28.6073
-28.7079
-28.79
-22.2818
-22.6535
-23.013
-23.3584
-23.6883
-24.0021
-24.2996
-24.5803
-24.8441
-25.0909
-25.3206
-25.5332
-25.7285
-25.9065
-26.0673
-26.2107
-26.3365
-26.4452
-26.5371
-26.6118
-20.6318
-20.9823
-21.3212
-21.6462
-21.9562
-22.2506
-22.529
-22.7913
-23.0374
-23.2672
-23.4807
-23.6779
-23.8589
-24.0235
-24.1719
-24.3038
-24.4194
-24.5186
-24.6021
-24.6695
-19.1577
-19.4894
-19.81
-20.117
-20.4091
-20.6858
-20.9469
-21.1923
-21.4222
-21.6364
-21.8352
-22.0185
-22.1863
-22.3387
-22.4756
-22.5972
-22.7033
-22.7941
-22.8694
-22.93
-17.8323
-18.1475
-18.4523
-18.7434
-19.0193
-19.2798
-19.5251
-19.7551
-19.9701
-20.1702
-20.3555
-20.526
-20.6819
-20.8232
-20.9499
-21.0619
-21.1594
-21.2422
-21.3102
-21.3648
-16.6342
-16.935
-17.2261
-17.5031
-17.7644
-18.0101
-18.2409
-18.4567
-18.6581
-18.8451
-19.0181
-19.1771
-19.3222
-19.4534
-19.5707
-19.6742
-19.7639
-19.8398
-19.9022
-19.9502
-15.5462
-15.8347
-16.1144
-16.3787
-16.6264
-16.8585
-17.0757
-17.2784
-17.4671
-17.6421
-17.8038
-17.9522
-18.0874
-18.2095
-18.3185
-18.4143
-18.4969
-18.5665
-18.6229
-18.6662
-14.5536
-14.8336
-15.1041
-15.3564
-15.5913
-15.8104
-16.0148
-16.2051
-16.3819
-16.5458
-16.6971
-16.8358
-16.9621
-17.0758
-17.1772
-17.266
-17.3423
-17.4061
-17.4575
-17.4963
-13.6387
-13.9177
-14.183
-14.4239
-14.6461
-14.8528
-15.045
-15.2235
-15.3893
-15.5429
-15.6846
-15.8145
-15.9326
-16.0389
-16.1333
-16.2159
-16.2866
-16.3453
-16.3921
-16.427
-12.781
-13.0641
-13.3307
-13.5623
-13.7725
-13.9675
-14.1485
-14.3165
-14.4725
-14.6171
-14.7506
-14.873
-14.9843
-15.0843
-15.1731
-15.2505
-15.3165
-15.3711
-15.4142
-15.446
-11.9938
-12.2675
-12.5348
-12.7615
-12.9616
-13.1453
-13.3158
-13.4742
-13.6215
-13.7582
-13.8845
-14.0004
-14.1059
-14.2007
-14.2847
-14.358
-14.4203
-14.4717
-14.5121
-14.5417
-11.4033
-11.6541
-11.8818
-12.0986
-12.2869
-12.4528
-12.6068
-12.751
-12.885
-13.0091
-13.1239
-13.2291
-13.3246
-13.4103
-13.4859
-13.5514
-13.6069
-13.6521
-13.6869
-13.7114
-6.00346
-6.4947
-7.03303
-7.61539
-8.24822
-8.93891
-9.69513
-10.5263
-11.4447
-12.4659
-13.6104
-14.9051
-16.3854
-18.0974
-20.1015
-22.477
-25.3052
-28.6081
-32.6053
-38.6011
-6.274
-6.77877
-7.32761
-7.92203
-8.56862
-9.27449
-10.0474
-10.8971
-11.836
-12.8801
-14.0502
-15.3735
-16.8858
-18.6338
-20.6781
-23.0977
-25.9729
-29.3226
-33.3583
-39.3751
-6.54597
-7.06427
-7.62374
-8.23045
-8.89107
-9.61236
-10.4023
-11.2707
-12.2305
-13.2978
-14.4937
-15.846
-17.3908
-19.1751
-21.2597
-23.7235
-26.6452
-30.0406
-34.113
-40.1463
-6.81887
-7.35064
-7.92083
-8.54005
-9.21491
-9.95184
-10.7589
-11.6464
-12.6272
-13.7179
-14.9399
-16.3214
-17.8989
-19.7197
-21.8448
-24.3526
-27.3207
-30.7616
-34.8718
-40.9263
-7.09228
-7.63744
-8.21842
-8.85035
-9.53965
-10.2924
-11.1168
-12.0235
-13.0255
-14.1398
-15.3881
-16.799
-18.4093
-20.2667
-22.4323
-24.9842
-27.9986
-31.485
-35.6337
-41.7126
-7.36581
-7.92424
-8.51608
-9.16092
-9.86486
-10.6336
-11.4755
-12.4015
-13.4249
-14.5629
-15.8377
-17.2781
-18.9213
-20.8155
-23.0217
-25.6176
-28.6781
-32.2099
-36.3968
-42.501
-7.63916
-8.21069
-8.81343
-9.47137
-10.1901
-10.975
-11.8345
-12.7799
-13.8249
-14.9868
-16.2881
-17.758
-19.4344
-21.3653
-23.6121
-26.2519
-29.3584
-32.935
-37.1594
-43.2892
-7.91206
-8.49649
-9.11015
-9.78136
-10.515
-11.3161
-12.1934
-13.1583
-14.2248
-15.4106
-16.7386
-18.2382
-19.9476
-21.9153
-24.2026
-26.8863
-30.0383
-33.6594
-37.9204
-44.0757
-8.18438
-8.78145
-9.406
-10.0906
-10.8393
-11.6567
-12.5518
-13.5362
-14.6243
-15.834
-17.1886
-18.7178
-20.4603
-22.4647
-24.7924
-27.5196
-30.7168
-34.3818
-38.6787
-44.8591
-8.45606
-9.06545
-9.70082
-10.3989
-11.1627
-11.9964
-12.9092
-13.9131
-15.0228
-16.2564
-17.6374
-19.1962
-20.9716
-23.0126
-25.3805
-28.1509
-31.3929
-35.1011
-39.4328
-45.6378
-8.72722
-9.34853
-9.99456
-10.7062
-11.485
-12.3349
-13.2654
-14.2887
-15.4197
-16.677
-18.0845
-19.6727
-21.4809
-23.5582
-25.9659
-28.7791
-32.0653
-35.816
-40.1814
-46.4104
-8.99815
-9.63085
-10.2873
-11.0123
-11.8061
-12.672
-13.6199
-14.6624
-15.8146
-17.0955
-18.5291
-20.1465
-21.9872
-24.1006
-26.5478
-29.4032
-32.7329
-36.5253
-40.9233
-47.1754
-9.26933
-9.91271
-10.5791
-11.3172
-12.1257
-13.0073
-13.9724
-15.0338
-16.2069
-17.511
-18.9706
-20.6169
-22.4897
-24.6388
-27.125
-30.0221
-33.3945
-37.2277
-41.657
-47.9315
-9.54149
-10.1945
-10.8701
-11.621
-12.4437
-13.3406
-14.3224
-15.4024
-16.5961
-17.923
-19.4081
-21.0829
-22.9876
-25.1718
-27.6965
-30.6346
-34.049
-37.9221
-42.3814
-48.6775
-9.81539
-10.4766
-11.1604
-11.9233
-12.7596
-13.6713
-14.6694
-15.7674
-16.9813
-18.3307
-19.8409
-21.5438
-23.4797
-25.6987
-28.2612
-31.2396
-34.6951
-38.6072
-43.0951
-49.412
-10.092
-10.7593
-11.4496
-12.2236
-13.0729
-13.9988
-15.0126
-16.1282
-17.3617
-18.7332
-20.268
-21.9985
-23.9652
-26.2183
-28.818
-31.8358
-35.3314
-39.2817
-43.7971
-50.1342
-10.3711
-11.0413
-11.7364
-12.5206
-13.3823
-14.3219
-15.351
-16.4837
-17.7365
-19.1294
-20.6884
-22.446
-24.4429
-26.7294
-29.3655
-32.4218
-35.9566
-39.9441
-44.4864
-50.8435
-10.6519
-11.3202
-12.0182
-12.8125
-13.6865
-14.6395
-15.6836
-16.833
-18.1045
-19.5186
-21.1012
-22.8852
-24.9117
-27.2309
-29.9025
-32.9963
-36.5691
-40.593
-45.1616
-51.5398
-10.9273
-11.5876
-12.2889
-13.0957
-13.9833
-14.95
-16.0088
-17.1748
-18.4647
-19.8994
-21.5051
-23.315
-25.3703
-27.7213
-30.4276
-33.5577
-37.1673
-41.2264
-45.8217
-52.2245
-11.1785
-11.8237
-12.544
-13.3715
-14.2734
-15.253
-16.3262
-17.5084
-18.8163
-20.271
-21.8992
-23.7342
-25.8177
-28.1996
-30.9392
-34.1043
-37.7488
-41.8412
-46.4621
-52.8993
-1.58377
-1.83776
-2.1857
-2.57469
-2.99334
-3.44701
-3.942
-4.48425
-5.08125
-5.74327
-6.48425
-7.32321
-8.2863
-9.40957
-10.7439
-12.3636
-14.3583
-16.7892
-19.9646
-25.3595
-1.73689
-2.0073
-2.37369
-2.76863
-3.1907
-3.6497
-4.15159
-4.70192
-5.30832
-5.98132
-6.73513
-7.58912
-8.56984
-9.71386
-11.0726
-12.721
-14.7486
-17.2149
-20.4226
-25.8313
-1.88433
-2.17882
-2.55837
-2.96143
-3.39124
-3.85863
-4.36946
-4.92946
-5.54664
-6.23186
-6.99969
-7.86984
-8.86936
-10.0353
-11.4198
-13.0978
-15.159
-17.6608
-20.8999
-26.3172
-2.05405
-2.35937
-2.74712
-3.15891
-3.59791
-4.07483
-4.59569
-5.16649
-5.79557
-6.49412
-7.27701
-8.16438
-9.18375
-10.3727
-11.7839
-13.4926
-15.5884
-18.1269
-21.4008
-26.8358
-2.23509
-2.5475
-2.94308
-3.36384
-3.81233
-4.29923
-4.83076
-5.41317
-6.05503
-6.76781
-7.56672
-8.4723
-9.51253
-10.7256
-12.1644
-13.9051
-16.0366
-18.6133
-21.9247
-27.3838
-2.42161
-2.74263
-3.14655
-3.57642
-4.03469
-4.53203
-5.07484
-5.66954
-6.32495
-7.05279
-7.86861
-8.79333
-9.8554
-11.0935
-12.5613
-14.3349
-16.5034
-19.1195
-22.4697
-27.9558
-2.61513
-2.94566
-3.35783
-3.79684
-4.26517
-4.77338
-5.32798
-5.93559
-6.60522
-7.34888
-8.18242
-9.12717
-10.212
-11.4763
-12.974
-14.7818
-16.9884
-19.6451
-23.0347
-28.5497
-2.81704
-3.15706
-3.57727
-4.02541
-4.50399
-5.0234
-5.59022
-6.21125
-6.89572
-7.65587
-8.50789
-9.4735
-10.5821
-11.8734
-13.4021
-15.2452
-17.491
-20.1893
-23.6193
-29.1642
-3.02713
-3.37668
-3.8049
-4.26222
-4.75122
-5.2821
-5.86151
-6.49642
-7.19626
-7.97353
-8.84473
-9.83198
-10.9651
-12.2844
-13.8451
-15.7245
-18.0107
-20.7515
-24.2225
-29.7983
-3.24479
-3.6042
-4.04052
-4.50712
-5.00672
-5.54934
-6.14169
-6.79091
-7.50663
-8.30159
-9.19263
-10.2023
-11.3608
-12.709
-14.3026
-16.2192
-18.5467
-21.331
-24.8437
-30.451
-3.4696
-3.83925
-4.28382
-4.75983
-5.27024
-5.82487
-6.43049
-7.09443
-7.8265
-8.63972
-9.55122
-10.5839
-11.7686
-13.1465
-14.7739
-16.7288
-19.0984
-21.9271
-25.482
-31.1211
-3.70116
-4.08145
-4.53441
-5.02
-5.54144
-6.10836
-6.7276
-7.40664
-8.15553
-8.98752
-9.92008
-10.9765
-12.188
-13.5965
-15.2586
-17.2525
-19.6652
-22.5389
-26.1365
-31.8077
-3.93901
-4.33031
-4.79187
-5.28721
-5.81993
-6.39942
-7.0326
-7.72713
-8.49328
-9.34455
-10.2987
-11.3795
-12.6186
-14.0584
-15.7559
-17.7897
-20.2463
-23.1657
-26.8063
-32.5098
-4.18263
-4.58531
-5.05567
-5.561
-6.10525
-6.6976
-7.34505
-8.05545
-8.83929
-9.71032
-10.6867
-11.7924
-13.0597
-14.5315
-16.2653
-18.3398
-20.8409
-23.8066
-27.4906
-33.2264
-4.43147
-4.84591
-5.32529
-5.84084
-6.39689
-7.0024
-7.66445
-8.39109
-9.19303
-10.0843
-11.0833
-12.2146
-13.5108
-15.0152
-16.786
-18.9018
-21.4482
-24.4609
-28.1885
-33.9567
-4.68498
-5.11152
-5.60016
-6.12618
-6.69431
-7.31329
-7.99026
-8.7335
-9.55394
-10.4659
-11.4881
-12.6455
-13.9711
-15.5089
-17.3172
-19.4752
-22.0674
-25.1276
-28.8992
-34.7
-4.94261
-5.38157
-5.8797
-6.41645
-6.99695
-7.62969
-8.32191
-9.0821
-9.92144
-10.8545
-11.9003
-13.0843
-14.44
-16.0117
-17.8583
-20.0589
-22.6976
-25.8057
-29.6218
-35.4555
-5.2038
-5.65548
-6.16334
-6.71108
-7.30425
-7.95105
-8.65883
-9.43631
-10.2949
-11.2495
-12.3194
-13.5305
-14.9167
-16.5228
-18.4082
-20.652
-23.3377
-26.4943
-30.3556
-36.223
-5.46801
-5.93267
-6.45048
-7.0095
-7.61561
-8.27676
-9.00041
-9.79551
-10.6737
-11.6502
-12.7446
-13.9832
-15.4004
-17.0415
-18.9661
-21.2536
-23.9867
-27.1921
-31.0994
-37.0031
-5.73474
-6.2126
-6.74058
-7.31114
-7.93048
-8.60628
-9.34609
-10.1591
-11.0573
-12.056
-13.1753
-14.4418
-15.8904
-17.5668
-19.5312
-21.8626
-24.6432
-27.8974
-31.8505
-37.7966
-1.33606
-1.12944
-0.975745
-0.839097
-0.719105
-0.61323
-0.520356
-0.439692
-0.370735
-0.313126
-0.266601
-0.230946
-0.205993
-0.191603
-0.187638
-0.193889
-0.210144
-0.23653
-0.273202
-0.319986
-1.66591
-1.48256
-1.32489
-1.18302
-1.0582
-0.947859
-0.851021
-0.766886
-0.694939
-0.634804
-0.586199
-0.548901
-0.522728
-0.507528
-0.503156
-0.509442
-0.52623
-0.553528
-0.591388
-0.639605
-1.99845
-1.82299
-1.66534
-1.52232
-1.39537
-1.28285
-1.18406
-1.09831
-1.02512
-0.964154
-0.915119
-0.877794
-0.851998
-0.83757
-0.834365
-0.842228
-0.86104
-0.890755
-0.931269
-0.982705
-2.38221
-2.20508
-2.04439
-1.89842
-1.7679
-1.65187
-1.54986
-1.46133
-1.38584
-1.32307
-1.27275
-1.23464
-1.20856
-1.19435
-1.19184
-1.2009
-1.2214
-1.25326
-1.29638
-1.35077
-2.80097
-2.62138
-2.45673
-2.30681
-2.17208
-2.052
-1.94625
-1.85442
-1.77615
-1.71114
-1.65912
-1.61987
-1.59321
-1.57896
-1.57696
-1.58706
-1.60913
-1.64308
-1.68879
-1.74622
-3.25228
-3.06948
-2.90065
-2.7464
-2.60721
-2.48287
-2.37319
-2.27786
-2.19661
-2.12917
-2.0753
-2.03479
-2.00745
-1.9931
-1.99158
-2.00274
-2.02645
-2.06258
-2.11099
-2.17164
-3.74232
-3.55479
-3.38106
-3.22189
-3.0778
-2.9488
-2.83483
-2.73568
-2.65114
-2.58099
-2.52502
-2.48302
-2.45482
-2.44024
-2.43911
-2.45129
-2.47663
-2.51499
-2.56622
-2.6303
-4.27789
-4.08415
-3.90442
-3.73945
-3.58976
-3.4555
-3.33668
-3.2332
-3.14491
-3.07162
-3.01316
-2.96934
-2.93998
-2.92492
-2.924
-2.93705
-2.96394
-3.00451
-3.0586
-3.12617
-4.86667
-4.66527
-4.47831
-4.30648
-4.15028
-4.00994
-3.88555
-3.77706
-3.68439
-3.60739
-3.54592
-3.49981
-3.46889
-3.453
-3.45198
-3.46567
-3.49393
-3.53658
-3.59347
-3.66458
-5.51881
-5.30819
-5.11258
-4.9326
-4.76875
-4.6213
-4.49038
-4.37602
-4.27816
-4.19671
-4.13153
-4.0825
-4.04945
-4.03222
-4.03067
-4.04464
-4.07396
-4.11846
-4.17799
-4.25254
-6.24805
-6.02641
-5.82048
-5.6308
-5.45788
-5.302
-5.16334
-5.04196
-4.93786
-4.85097
-4.78118
-4.72838
-4.69243
-4.67317
-4.67046
-4.68414
-4.71405
-4.75999
-4.82181
-4.89955
-7.07312
-6.83833
-6.62006
-6.4188
-6.23503
-6.06906
-5.92111
-5.79126
-5.67954
-5.58591
-5.51031
-5.45261
-5.41271
-5.39045
-5.38569
-5.39827
-5.42804
-5.47478
-5.53833
-5.61878
-8.01974
-7.76926
-7.53622
-7.32104
-7.12421
-6.94607
-6.78683
-6.64663
-6.52552
-6.42347
-6.34045
-6.27636
-6.23108
-6.2045
-6.19645
-6.2068
-6.23537
-6.28193
-6.34632
-6.42868
-9.12346
-8.85422
-8.60342
-8.37143
-8.1588
-7.96585
-7.79282
-7.63987
-7.50707
-7.39442
-7.3019
-7.22942
-7.1769
-7.14419
-7.13117
-7.13769
-7.16357
-7.20855
-7.27246
-7.35551
-10.4346
-10.1428
-9.87064
-9.61834
-9.3865
-9.17547
-8.98551
-8.81679
-8.6694
-8.54336
-8.43865
-8.35521
-8.29295
-8.25176
-8.2315
-8.23202
-8.25313
-8.29456
-8.35611
-8.43804
-12.0267
-11.7081
-11.4102
-11.1334
-10.8782
-10.6452
-10.4345
-10.2463
-10.0808
-9.93788
-9.81762
-9.71996
-9.64481
-9.59207
-9.5616
-9.55326
-9.56685
-9.60208
-9.65871
-9.73702
-13.989
-13.6388
-13.3105
-13.0046
-12.7218
-12.4625
-12.2269
-12.0153
-11.8276
-11.664
-11.5245
-11.4089
-11.3173
-11.2496
-11.2055
-11.1851
-11.1881
-11.2141
-11.2631
-11.3348
-16.3831
-15.9974
-15.6345
-15.2956
-14.9813
-14.6921
-14.4281
-14.1895
-13.9764
-13.7888
-13.6267
-13.4901
-13.3789
-13.2931
-13.2326
-13.1972
-13.1869
-13.2014
-13.2404
-13.303
-19.5198
-19.0943
-18.6925
-18.3171
-17.9684
-17.6464
-17.3511
-17.0826
-16.8407
-16.6255
-16.437
-16.2752
-16.14
-16.0315
-15.9495
-15.8938
-15.8644
-15.8616
-15.8852
-15.9331
-24.8567
-24.3861
-23.9499
-23.5451
-23.1695
-22.8221
-22.5025
-22.2107
-21.9464
-21.7099
-21.501
-21.3199
-21.1666
-21.0412
-20.9438
-20.8745
-20.834
-20.8245
-20.8475
-20.8926
-0.376764
-0.443218
-0.51931
-0.604958
-0.700078
-0.804564
-0.918285
-1.04108
-1.17273
-1.31297
-1.46142
-1.61757
-1.7806
-1.9493
-2.12201
-2.29646
-2.46816
-2.62733
-2.75858
-2.8883
-0.698263
-0.766994
-0.845725
-0.934344
-1.03275
-1.14081
-1.25838
-1.38526
-1.52123
-1.66597
-1.81907
-1.97999
-2.14794
-2.32177
-2.49985
-2.68054
-2.86207
-3.03671
-3.18925
-3.36144
-1.04485
-1.11743
-1.20038
-1.29357
-1.39687
-1.51015
-1.63323
-1.76591
-1.90792
-2.05893
-2.21851
-2.38612
-2.56099
-2.7421
-2.9281
-3.11778
-3.31019
-3.50094
-3.68432
-3.89025
-1.41634
-1.49277
-1.57999
-1.67784
-1.7862
-1.90489
-2.03373
-2.17249
-2.32089
-2.47857
-2.6451
-2.81993
-3.00235
-3.19145
-3.38616
-3.58562
-3.78901
-3.99402
-4.20115
-4.43079
-1.81532
-1.89576
-1.98745
-2.09022
-2.20392
-2.32837
-2.46336
-2.60864
-2.76392
-2.92884
-3.10296
-3.28575
-3.47657
-3.67462
-3.87909
-4.08937
-4.30486
-4.5245
-4.75094
-4.99733
-2.24458
-2.32931
-2.4258
-2.53387
-2.65335
-2.78404
-2.92572
-3.07813
-3.24097
-3.41388
-3.59643
-3.78812
-3.98836
-4.1965
-4.41193
-4.63423
-4.863
-5.09803
-5.34207
-5.60297
-2.70727
-2.79653
-2.89814
-3.01188
-3.13757
-3.275
-3.42395
-3.58413
-3.75525
-3.93695
-4.12882
-4.33039
-4.54115
-4.76056
-4.98815
-5.22361
-5.46675
-5.71776
-5.97887
-6.25452
-3.2072
-3.30133
-3.40836
-3.52813
-3.66045
-3.80511
-3.96188
-4.13048
-4.31061
-4.50192
-4.70402
-4.91649
-5.13888
-5.37072
-5.61164
-5.86143
-6.11998
-6.38764
-6.66596
-6.95742
-3.7499
-3.84894
-3.96161
-4.08768
-4.22701
-4.37935
-4.54448
-4.72211
-4.91196
-5.11369
-5.32694
-5.5513
-5.78638
-6.0318
-6.28723
-6.5525
-6.82755
-7.11267
-7.40886
-7.71748
-4.34212
-4.44612
-4.56461
-4.69718
-4.84379
-5.0042
-5.17815
-5.36539
-5.56561
-5.77851
-6.00373
-6.24093
-6.48973
-6.74981
-7.02087
-7.30275
-7.59539
-7.89894
-8.21398
-8.54129
-4.99324
-5.10213
-5.22625
-5.36553
-5.51959
-5.6883
-5.87143
-6.0687
-6.27983
-6.50453
-6.74247
-6.99333
-7.25677
-7.53248
-7.82021
-8.11976
-8.43105
-8.75409
-9.08914
-9.43667
-5.71618
-5.82966
-5.9593
-6.10494
-6.26647
-6.44353
-6.63596
-6.84353
-7.06592
-7.30287
-7.55408
-7.81925
-8.09807
-8.39024
-8.6955
-9.01367
-9.34458
-9.68812
-10.0443
-10.4135
-6.52908
-6.64652
-6.78117
-6.93276
-7.10121
-7.28661
-7.48828
-7.70599
-7.93967
-8.18903
-8.45379
-8.73365
-9.02832
-9.33749
-9.66093
-9.99842
-10.3497
-10.7147
-11.093
-11.4852
-7.45779
-7.5781
-7.71679
-7.87357
-8.04823
-8.24076
-8.45194
-8.679
-8.9236
-9.18507
-9.4632
-9.7577
-10.0683
-10.3947
-10.7366
-11.0938
-11.466
-11.8528
-12.2541
-12.67
-8.54049
-8.66198
-8.80309
-8.96359
-9.14332
-9.3418
-9.55855
-9.79585
-10.0511
-10.3237
-10.6144
-10.923
-11.2492
-11.5926
-11.9528
-12.3296
-12.7226
-13.1315
-13.5558
-13.996
-9.83712
-9.95725
-10.0983
-10.2603
-10.4429
-10.6458
-10.8686
-11.1114
-11.3742
-11.6577
-11.9602
-12.2822
-12.6231
-12.9823
-13.3595
-13.7548
-14.1678
-14.5981
-15.045
-15.5088
-11.4292
-11.5448
-11.683
-11.8437
-12.0265
-12.2312
-12.4575
-12.7052
-12.9742
-13.2648
-13.5774
-13.9111
-14.2639
-14.6353
-15.0263
-15.4375
-15.8686
-16.3185
-16.7864
-17.2721
-13.3876
-13.4956
-13.6278
-13.7839
-13.9626
-14.1643
-14.3891
-14.637
-14.9076
-15.2004
-15.5149
-15.8511
-16.2109
-16.5947
-17.0009
-17.428
-17.8757
-18.3437
-18.8309
-19.3364
-16.0033
-16.0953
-16.2113
-16.3528
-16.521
-16.7154
-16.935
-17.1794
-17.4483
-17.7414
-18.058
-18.3978
-18.7611
-19.1483
-19.5595
-19.9939
-20.4514
-20.9326
-21.4375
-21.9611
-20.9344
-21.0068
-21.1101
-21.2419
-21.4013
-21.5874
-21.7997
-22.038
-22.3017
-22.5907
-22.9046
-23.2435
-23.6075
-23.9969
-24.4118
-24.852
-25.3189
-25.8162
-26.3465
-26.8919
-27.4084
-22.4954
-19.8597
-17.7758
-15.9894
-14.4518
-13.1006
-11.8909
-10.7956
-9.79659
-8.8808
-8.03852
-7.26214
-6.54542
-5.88318
-5.27088
-4.70326
-4.17474
-3.6938
-3.28941
-27.9528
-23.0459
-20.3987
-18.2945
-16.4843
-14.921
-13.5438
-12.3087
-11.1891
-10.1674
-9.23081
-8.36984
-7.57698
-6.84614
-6.1723
-5.55102
-4.97758
-4.44957
-3.98013
-3.57766
-28.5257
-23.6153
-20.9548
-18.8293
-16.994
-15.4039
-13.9995
-12.738
-11.5933
-10.5483
-9.59042
-8.71026
-7.90042
-7.15483
-6.46844
-5.83672
-5.25505
-4.72115
-4.24459
-3.82262
-29.123
-24.2042
-21.5282
-19.3799
-17.5178
-15.8996
-14.4671
-13.1781
-12.0075
-10.9384
-9.95852
-9.05844
-8.23076
-7.46932
-6.76884
-6.12454
-5.53153
-4.98687
-4.49731
-4.05661
-29.7416
-24.812
-22.1182
-19.9456
-18.0553
-16.4075
-14.9456
-13.6283
-12.431
-11.337
-10.3343
-9.41351
-8.5672
-7.789
-7.07337
-6.41523
-5.8094
-5.25236
-4.74901
-4.29216
-30.38
-25.4392
-22.7228
-20.5256
-18.6057
-16.927
-15.4346
-14.0879
-12.8628
-11.7431
-10.7169
-9.77481
-8.90918
-8.1135
-7.38199
-6.70929
-6.09
-5.52023
-5.00361
-4.53269
-31.0369
-26.0843
-23.3417
-21.1187
-19.168
-17.4571
-15.933
-14.556
-13.3024
-12.1563
-11.1059
-10.1418
-9.25636
-8.44272
-7.69493
-7.00739
-6.37452
-5.79223
-5.26304
-4.77944
-31.7112
-26.7452
-23.9748
-21.7242
-19.7414
-17.9971
-16.4403
-15.0319
-13.7489
-12.5758
-11.5006
-10.5142
-9.60843
-8.77655
-8.01227
-7.3098
-6.66344
-6.0689
-5.5277
-5.03234
-32.4014
-27.4207
-24.6211
-22.3412
-20.325
-18.5461
-16.9555
-15.5149
-14.2018
-13.0009
-11.9006
-10.8913
-9.96507
-9.11474
-8.33389
-7.6165
-6.95677
-6.35022
-5.79744
-5.2909
-33.1062
-28.1093
-25.2797
-22.9689
-20.9179
-19.1033
-17.4778
-16.0042
-14.6603
-13.4312
-12.3052
-11.2728
-10.3258
-9.45696
-8.6595
-7.92724
-7.25426
-6.63586
-6.07173
-5.55438
-33.8246
-28.8101
-25.9495
-23.6062
-21.5191
-19.6677
-18.0064
-16.4989
-15.1237
-13.8658
-12.7139
-11.6581
-10.6903
-9.80276
-8.98867
-8.2416
-7.55543
-6.92526
-6.34993
-5.822
-34.5554
-29.522
-26.6294
-24.2521
-22.1276
-20.2383
-18.5404
-16.9984
-15.5911
-14.3041
-13.1259
-12.0466
-11.0578
-10.1516
-9.32089
-8.55902
-7.8597
-7.21781
-6.63134
-6.09297
-35.2974
-30.2438
-27.3181
-24.9055
-22.7424
-20.8142
-19.0788
-17.5015
-16.0618
-14.7454
-13.5406
-12.4377
-11.4278
-10.5029
-9.65555
-8.8789
-8.16646
-7.51283
-6.91524
-6.36652
-36.0495
-30.9743
-28.0145
-25.5652
-23.3624
-21.3943
-19.6207
-18.0076
-16.535
-15.1888
-13.9573
-12.8305
-11.7995
-10.8559
-9.99201
-9.2006
-8.47503
-7.80964
-7.20092
-6.64191
-36.8106
-31.7123
-28.7174
-26.2301
-23.9865
-21.9777
-20.165
-18.5156
-17.0097
-15.6335
-14.3751
-13.2246
-12.1724
-11.2101
-10.3296
-9.52346
-8.78477
-8.10758
-7.4877
-6.91848
-37.5796
-32.4564
-29.4255
-26.899
-24.6135
-22.5631
-20.7108
-19.0246
-17.4852
-16.0787
-14.7934
-13.619
-12.5457
-11.5647
-10.6677
-9.84683
-9.09502
-8.406
-7.77492
-7.19556
-38.356
-33.2056
-30.1373
-27.5705
-25.2422
-23.1494
-21.2569
-19.5335
-17.9603
-16.5235
-15.2113
-14.013
-12.9187
-11.9191
-11.0056
-10.17
-9.40513
-8.70426
-8.06196
-7.47256
-39.141
-33.9593
-30.8515
-28.2431
-25.8711
-23.7353
-21.8022
-20.0413
-18.4342
-16.967
-15.6279
-14.4058
-13.2905
-12.2725
-11.3425
-10.4924
-9.71445
-9.00174
-8.34823
-7.7489
-39.9351
-34.7164
-31.5661
-28.9151
-26.4989
-24.3196
-22.3456
-20.5471
-18.9059
-17.4085
-16.0425
-14.7967
-13.6606
-12.6242
-11.678
-10.8133
-10.0224
-9.29784
-8.63315
-8.02409
-40.7253
-35.4718
-32.2794
-29.5855
-27.1249
-24.9019
-22.8867
-21.0504
-19.3752
-17.8474
-16.4546
-15.1853
-14.0285
-12.9738
-12.0114
-11.1323
-10.3284
-9.5921
-8.91626
-8.29766
-6.77679
-4.67167
-3.31215
-2.26722
-1.53318
-0.99407
-0.606855
-0.331957
-0.141076
-0.0124816
0.0704382
0.120306
0.146697
0.156763
0.155812
0.147714
0.135279
0.120508
0.104807
0.0891436
0.0741622
0.0602733
0.0477129
0.0366007
0.0269577
0.0187637
0.0119249
0.00637675
0.00194938
-0.0013856
-0.00389232
-0.00546091
-0.00654282
-0.00672155
-0.00684127
-0.00589209
-0.00547313
-0.00352611
-0.00297965
4.88718e-05
-7.03237
-4.85398
-3.45835
-2.38235
-1.6242
-1.06769
-0.666906
-0.381566
-0.182444
-0.0472287
0.0411108
0.0954782
0.125648
0.138916
0.140693
0.134929
0.124493
0.111434
0.0972002
0.0827912
0.0688795
0.0559009
0.044112
0.0336515
0.024556
0.01682