/*--------------------------------*- C++ -*----------------------------------*\
| =========                 |                                                 |
| \\      /  F ield         | OpenFOAM: The Open Source CFD Toolbox           |
|  \\    /   O peration     | Version:  v1912                                 |
|   \\  /    A nd           | Website:  www.openfoam.com                      |
|    \\/     M anipulation  |                                                 |
\*---------------------------------------------------------------------------*/
FoamFile
{
    version     2.0;
    format      ascii;
    class       volVectorField;
    location    "49";
    object      U;
}
// * * * * * * * * * * * * * * * * * * * * * * * * * * * * * * * * * * * * * //

dimensions      [0 1 -1 0 0 0 0];


internalField   nonuniform List<vector> 
9600
(
(0.456551 -9.36183 -1.54153e-19)
(0.159754 -8.63272 0)
(0.241979 -8.15992 -9.05225e-20)
(0.320759 -7.8408 0)
(0.388099 -7.60567 0)
(0.456526 -7.41101 -3.18514e-20)
(0.522057 -7.23276 -5.50142e-22)
(0.581556 -7.0587 2.66261e-20)
(0.634247 -6.88347 0)
(0.680163 -6.70565 -4.51471e-20)
(0.719693 -6.52586 0)
(0.753463 -6.34563 -1.83044e-21)
(0.782211 -6.16678 -2.60739e-21)
(0.806694 -5.99101 -3.15487e-20)
(0.827636 -5.81969 2.66079e-20)
(0.84569 -5.65381 -2.61414e-20)
(0.861408 -5.49384 2.32758e-20)
(0.875338 -5.33969 0)
(0.888259 -5.19062 -1.85156e-20)
(0.899902 -5.04509 2.02963e-20)
(0.824492 -9.35144 -3.08404e-19)
(0.502227 -8.66082 1.17579e-20)
(0.567655 -8.20424 1.86465e-19)
(0.634934 -7.89462 -1.58936e-19)
(0.693268 -7.6641 1.56742e-19)
(0.753656 -7.46993 0)
(0.811315 -7.28938 6.07524e-20)
(0.862769 -7.11131 -6.06134e-20)
(0.907169 -6.93119 -1.05138e-19)
(0.944605 -6.74817 1.32984e-19)
(0.975579 -6.56327 -8.63416e-20)
(1.00084 -6.37829 -3.52516e-20)
(1.02123 -6.19518 7.11548e-20)
(1.03761 -6.0157 0)
(1.05076 -5.84127 0)
(1.06136 -5.67285 9.97457e-20)
(1.06999 -5.51089 -1.69115e-19)
(1.07721 -5.35524 0)
(1.08386 -5.20503 0)
(1.08944 -5.05863 -7.81727e-20)
(1.19278 -9.32751 6.37203e-19)
(0.846971 -8.67605 0)
(0.896886 -8.23588 -3.77301e-19)
(0.953403 -7.93587 -3.41989e-19)
(1.00303 -7.70992 0)
(1.05536 -7.5162 5.4655e-19)
(1.10492 -7.33336 -5.15993e-19)
(1.14798 -7.1514 1.01149e-19)
(1.18368 -6.96659 -2.25177e-19)
(1.21222 -6.77865 -3.74491e-19)
(1.23424 -6.58898 5.11228e-19)
(1.25063 -6.39964 -3.1609e-19)
(1.26237 -6.21268 -1.41665e-19)
(1.27038 -6.02993 0)
(1.27551 -5.85282 5.52804e-21)
(1.27851 -5.68227 1.05139e-19)
(1.27992 -5.51872 4.54511e-20)
(1.28033 -5.36197 0)
(1.28067 -5.211 8.23934e-20)
(1.28008 -5.06415 8.44449e-20)
(1.56029 -9.28968 -8.62056e-19)
(1.19339 -8.67815 -4.03976e-19)
(1.22912 -8.25463 3.91832e-19)
(1.2756 -7.96423 6.73404e-19)
(1.31682 -7.74278 -3.26841e-19)
(1.36104 -7.54947 5.80302e-21)
(1.40225 -7.36437 2.53808e-19)
(1.43656 -7.17865 2.29894e-19)
(1.46316 -6.98938 4.21058e-19)
(1.48241 -6.79684 0)
(1.4951 -6.60281 1.62218e-19)
(1.5023 -6.40952 -1.72153e-19)
(1.50508 -6.21917 1.03524e-20)
(1.5045 -6.0336 2.71385e-19)
(1.50145 -5.85424 2.32666e-19)
(1.49669 -5.68201 -3.28447e-19)
(1.49079 -5.51728 1.08167e-19)
(1.48435 -5.35982 -1.76133e-19)
(1.47835 -5.20849 1.75301e-19)
(1.47152 -5.06161 -8.44887e-20)
(1.92674 -9.23788 4.34758e-19)
(1.54121 -8.66696 0)
(1.56394 -8.26023 3.84808e-19)
(1.60103 -7.97937 0)
(1.63406 -7.76232 0)
(1.67011 -7.56937 -3.00408e-19)
(1.7027 -7.38208 -5.37493e-19)
(1.72789 -7.19277 -4.5574e-19)
(1.745 -6.99933 1.845e-20)
(1.75456 -6.80256 -1.96943e-19)
(1.75758 -6.60457 0)
(1.75527 -6.4078 -1.62629e-19)
(1.74886 -6.21453 -2.92966e-19)
(1.73948 -6.02662 2.57642e-19)
(1.72808 -5.84547 -7.32209e-19)
(1.71546 -5.67198 1.18496e-19)
(1.70218 -5.50651 9.3926e-20)
(1.68886 -5.34873 -1.93679e-19)
(1.67654 -5.19744 -8.46272e-20)
(1.66343 -5.05096 2.52356e-19)
(2.29158 -9.17202 4.19528e-19)
(1.88992 -8.64223 4.16069e-19)
(1.90084 -8.25239 0)
(1.92912 -7.98096 0)
(1.95416 -7.76821 -6.24504e-19)
(1.98192 -7.57559 3.41312e-19)
(2.00562 -7.3862 8.21428e-19)
(2.02133 -7.19352 0)
(2.02856 -6.99622 2.17082e-19)
(2.02807 -6.79562 1.96944e-19)
(2.02108 -6.59414 -3.47951e-19)
(2.00899 -6.39438 5.04587e-19)
(1.99316 -6.19868 1.4807e-19)
(1.9748 -6.00892 0)
(1.95494 -5.82646 1.23266e-19)
(1.93438 -5.65216 5.53342e-19)
(1.91367 -5.48636 -3.29721e-19)
(1.89347 -5.32868 3.70509e-19)
(1.87485 -5.17781 -7.04555e-19)
(1.85546 -5.03219 8.14494e-19)
(2.65427 -9.09208 4.26677e-19)
(2.23901 -8.60379 -2.25935e-18)
(2.23927 -8.23083 0)
(2.2593 -7.9687 0)
(2.27648 -7.76013 0)
(2.29584 -7.56784 -6.05824e-19)
(2.31035 -7.37648 0)
(2.31622 -7.18069 -9.71077e-19)
(2.31319 -6.97989 8.95734e-19)
(2.3023 -6.7759 -8.31937e-19)
(2.285 -6.57142 0)
(2.26289 -6.36919 0)
(2.23744 -6.17159 0)
(2.20997 -5.98048 -2.81508e-19)
(2.18154 -5.79719 0)
(2.15297 -5.62254 0)
(2.12482 -5.45683 -4.13208e-19)
(2.09776 -5.29966 4.0599e-19)
(2.07289 -5.1496 0)
(2.04726 -5.00529 0)
(3.01427 -8.99806 -1.38808e-18)
(2.58795 -8.55145 8.99494e-19)
(2.57867 -8.19531 0)
(2.59093 -7.94232 0)
(2.60039 -7.73782 0)
(2.61118 -7.54588 5.76231e-19)
(2.6162 -7.35271 -5.77984e-19)
(2.61187 -7.15409 -8.89438e-21)
(2.59823 -6.95019 -8.96873e-19)
(2.57661 -6.74329 8.39764e-19)
(2.54874 -6.53633 -3.78854e-19)
(2.51637 -6.33217 6.58795e-19)
(2.48115 -6.13321 -4.64137e-20)
(2.44445 -5.94127 -5.95987e-19)
(2.40738 -5.75765 -5.02331e-19)
(2.37077 -5.5831 4.93525e-19)
(2.33517 -5.41792 0)
(2.30129 -5.26165 0)
(2.27026 -5.1128 3.57149e-19)
(2.23844 -4.97026 -3.93032e-19)
(3.37103 -8.88999 9.27745e-19)
(2.93614 -8.48508 8.83726e-19)
(2.91841 -8.14562 -1.67505e-18)
(2.9234 -7.90157 7.9125e-19)
(2.92521 -7.70104 0)
(2.92726 -7.50949 6.16601e-19)
(2.92248 -7.3147 -5.41318e-19)
(2.9076 -7.1136 1.52983e-18)
(2.88301 -6.90704 -2.36962e-20)
(2.85036 -6.69773 0)
(2.81166 -6.48884 7.64394e-19)
(2.76886 -6.28332 0)
(2.72373 -6.08355 0)
(2.67771 -5.89133 -2.72653e-19)
(2.63195 -5.70786 5.49907e-19)
(2.58729 -5.53388 0)
(2.54426 -5.36966 4.31353e-19)
(2.50361 -5.21469 1.7958e-19)
(2.46651 -5.06743 -3.89622e-19)
(2.4286 -4.92713 3.78332e-19)
(3.72399 -8.76793 -9.55568e-19)
(3.28302 -8.40457 8.98144e-19)
(3.2579 -8.08158 -2.55797e-18)
(3.25603 -7.84626 8.04378e-19)
(3.25024 -7.64959 0)
(3.24336 -7.4585 -1.24456e-18)
(3.22848 -7.26233 5.97876e-19)
(3.20271 -7.0591 0)
(3.16685 -6.85035 -4.74701e-19)
(3.1229 -6.63918 -8.23369e-19)
(3.07315 -6.42894 -7.17488e-19)
(3.01977 -6.22264 5.34535e-20)
(2.96462 -6.02264 6.71065e-19)
(2.90922 -5.83066 2.72429e-19)
(2.85475 -5.64786 -3.79487e-20)
(2.80203 -5.47491 -5.13018e-19)
(2.75161 -5.31207 -2.29464e-19)
(2.70427 -5.1588 -2.06877e-19)
(2.66119 -5.01351 5.51878e-19)
(2.61731 -4.87594 -8.22356e-19)
(4.07258 -8.63196 9.55571e-19)
(3.62799 -8.30985 -4.66519e-20)
(3.59648 -8.00304 8.22273e-19)
(3.58814 -7.77621 0)
(3.57478 -7.58331 -6.80801e-19)
(3.55877 -7.39277 1.30817e-18)
(3.53348 -7.19549 -1.11827e-18)
(3.4965 -6.99054 1.10045e-18)
(3.44906 -6.78011 -4.45921e-19)
(3.39358 -6.56763 9.0521e-19)
(3.33261 -6.35664 3.92018e-19)
(3.2685 -6.15015 0)
(3.20326 -5.9505 0)
(3.13845 -5.75932 -2.82482e-19)
(3.07526 -5.57769 3.83669e-20)
(3.01451 -5.40624 1.01027e-18)
(2.95673 -5.2452 -2.49946e-19)
(2.90275 -5.09403 8.25557e-19)
(2.85382 -4.95109 1.44499e-19)
(2.80411 -4.81671 -8.39898e-19)
(4.41626 -8.48219 -2.94034e-18)
(3.97043 -8.20088 -9.87046e-19)
(3.93351 -7.9099 -2.63208e-18)
(3.91906 -7.6913 -1.60125e-18)
(3.89811 -7.50208 -7.59539e-19)
(3.87275 -7.31222 -7.42351e-19)
(3.83677 -7.11412 -2.42343e-18)
(3.78826 -6.90789 -4.90774e-20)
(3.72899 -6.69631 -1.94739e-18)
(3.66175 -6.48312 3.02272e-20)
(3.58939 -6.27198 -8.08568e-19)
(3.51448 -6.06592 -7.36812e-19)
(3.43909 -5.8672 6.72621e-19)
(3.36485 -5.67737 -6.15136e-19)
(3.29295 -5.49743 -5.63575e-19)
(3.22419 -5.32793 -5.17242e-19)
(3.1591 -5.1691 -1.38886e-18)
(3.09857 -5.02041 4.94111e-19)
(3.04389 -4.88021 1.19916e-18)
(2.98853 -4.74948 -1.27627e-18)
(4.75446 -8.31877 3.95498e-18)
(4.30975 -8.07766 4.85884e-18)
(4.26834 -7.80209 8.34688e-19)
(4.24807 -7.59143 3.99934e-18)
(4.21951 -7.40583 -7.83875e-19)
(4.18458 -7.21679 3.91694e-18)
(4.1376 -7.0182 1.14584e-18)
(4.07729 -6.81117 3.21682e-18)
(4.00594 -6.599 -9.8327e-19)
(3.92676 -6.3857 2.7225e-18)
(3.84291 -6.17503 1.62866e-18)
(3.75711 -5.97 1.48428e-18)
(3.67155 -5.7728 -2.00956e-18)
(3.58789 -5.58488 1.88252e-18)
(3.5073 -5.40712 1.13584e-18)
(3.43058 -5.24004 1.04269e-18)
(3.35822 -5.08385 9.58788e-19)
(3.2912 -4.93801 7.36598e-21)
(3.2309 -4.80091 8.13911e-19)
(3.17009 -4.6743 8.47038e-19)
(5.08668 -8.14185 -2.937e-18)
(4.64536 -7.94023 1.08245e-18)
(4.60031 -7.67956 2.6779e-18)
(4.57448 -7.47655 -3.26258e-18)
(4.53824 -7.29452 7.53908e-19)
(4.49352 -7.10648 -2.62056e-18)
(4.43527 -6.90777 1.28439e-18)
(4.3629 -6.70042 -2.1524e-18)
(4.27926 -6.48824 4.90401e-20)
(4.188 -6.27545 1.19504e-20)
(4.09255 -6.06587 -1.65115e-18)
(3.99583 -5.86249 -7.47469e-19)
(3.9001 -5.66739 1.37445e-18)
(3.80703 -5.48192 8.76111e-21)
(3.71778 -5.30685 -3.71942e-20)
(3.63312 -5.14264 -1.08826e-18)
(3.55354 -4.9895 -4.83279e-19)
(3.48008 -4.84688 -2.71492e-20)
(3.41425 -4.71324 -8.48261e-19)
(3.34822 -4.59129 -4.27767e-19)
(5.4124 -7.95161 0)
(4.97667 -7.78864 -2.0001e-18)
(4.92877 -7.54232 2.3748e-20)
(4.89758 -7.34664 3.25812e-18)
(4.85357 -7.16814 1.36375e-18)
(4.79884 -6.98131 -1.41953e-18)
(4.72907 -6.78288 -1.22293e-18)
(4.6444 -6.57574 0)
(4.54829 -6.36413 -9.735e-19)
(4.44484 -6.15248 9.29092e-19)
(4.33775 -5.94462 -3.90747e-20)
(4.2301 -5.74348 0)
(4.12421 -5.55105 -6.91928e-19)
(4.02175 -5.36854 5.9936e-19)
(3.92387 -5.19665 5.00741e-19)
(3.83128 -5.03574 -6.0447e-19)
(3.74446 -4.88603 -5.24408e-19)
(3.66457 -4.74699 9.10676e-19)
(3.59321 -4.6172 -8.40452e-19)
(3.52208 -4.50051 4.42375e-19)
(5.73116 -7.74824 3.03446e-18)
(5.3031 -7.62295 -2.05995e-18)
(5.25303 -7.39038 -1.75811e-18)
(5.21665 -7.20174 8.18577e-19)
(5.16477 -7.02677 -1.58811e-18)
(5.09981 -6.84138 0)
(5.01827 -6.64365 0)
(4.92111 -6.43726 0)
(4.81241 -6.22683 -4.44781e-20)
(4.69669 -6.01693 -1.8646e-18)
(4.57794 -5.8114 8.80633e-19)
(4.45938 -5.61309 7.44816e-19)
(4.34337 -5.42387 6.30303e-19)
(4.23158 -5.24483 -2.58647e-18)
(4.1251 -5.07656 1.22622e-18)
(4.02458 -4.91936 0)
(3.93048 -4.77344 -3.04322e-20)
(3.84402 -4.6383 -1.41246e-18)
(3.76697 -4.51271 -5.69733e-21)
(3.69071 -4.40162 -4.42865e-19)
(6.04259 -7.53202 -2.06399e-18)
(5.62411 -7.44331 -1.08603e-18)
(5.57244 -7.22381 8.18379e-19)
(5.53097 -7.0419 -1.43932e-19)
(5.47111 -6.87046 -4.62957e-18)
(5.39571 -6.6868 4.18992e-18)
(5.3022 -6.49022 -4.88113e-20)
(5.19238 -6.28513 1.14764e-18)
(5.07099 -6.07649 1.0297e-18)
(4.94298 -5.86897 9.45519e-19)
(4.8126 -5.66637 8.60439e-19)
(4.68318 -5.47145 1.53776e-18)
(4.55713 -5.28595 -7.4015e-19)
(4.43608 -5.11086 1.91862e-18)
(4.32106 -4.94666 -1.24035e-18)
(4.21264 -4.79357 -5.13127e-19)
(4.11124 -4.65181 2.06102e-18)
(4.01813 -4.52091 1.377e-18)
(3.93526 -4.39966 -2.79631e-20)
(3.85406 -4.29393 0)
(6.34667 -7.30342 -1.04946e-18)
(5.93929 -7.2499 2.07547e-18)
(5.88631 -7.04267 1.81712e-18)
(5.83981 -6.86719 -1.45909e-19)
(5.77184 -6.69933 -1.57076e-18)
(5.68579 -6.51771 7.06803e-20)
(5.58013 -6.32276 1.31763e-20)
(5.45755 -6.11956 1.174e-20)
(5.32344 -5.91333 0)
(5.18316 -5.70879 9.24792e-19)
(5.04121 -5.5097 -1.76021e-18)
(4.90103 -5.31868 -7.53267e-19)
(4.76501 -5.13737 7.47798e-19)
(4.63475 -4.96665 -6.56164e-19)
(4.5112 -4.8069 6.07722e-19)
(4.39488 -4.65836 -5.53251e-19)
(4.28618 -4.52122 4.89962e-21)
(4.18648 -4.39486 -4.70028e-19)
(4.09805 -4.27799 -4.34202e-19)
(4.0127 -4.1783 -4.34499e-19)
(6.64375 -7.06292 0)
(6.2484 -7.04264 -1.01196e-18)
(6.19401 -6.84688 1.00034e-18)
(6.14241 -6.67767 1.74536e-18)
(6.06621 -6.51355 -1.57944e-18)
(5.96935 -6.33435 1.36449e-18)
(5.8514 -6.14156 -2.62361e-18)
(5.71601 -5.94085 -2.32991e-18)
(5.5692 -5.73765 -1.01645e-18)
(5.41675 -5.53668 4.44257e-20)
(5.26337 -5.34161 -8.41721e-19)
(5.11255 -5.15494 3.49263e-20)
(4.96666 -4.97818 0)
(4.82719 -4.81209 -1.28713e-18)
(4.69496 -4.65703 6.56855e-19)
(4.57038 -4.51324 0)
(4.45388 -4.38084 -5.14444e-19)
(4.34706 -4.25896 -9.2493e-19)
(4.25216 -4.14724 9.08837e-19)
(4.16162 -4.0583 4.48637e-19)
(6.93342 -6.80974 0)
(6.5508 -6.82082 0)
(6.49482 -6.63638 -1.8557e-18)
(6.43801 -6.47363 -1.59564e-18)
(6.35352 -6.31352 3.23856e-18)
(6.24575 -6.13715 0)
(6.11545 -5.94706 0)
(5.96726 -5.74945 1.17051e-18)
(5.80785 -5.54988 0)
(5.6434 -5.35305 0)
(5.47881 -5.1625 0)
(5.31761 -4.98056 0)
(5.16209 -4.80858 0)
(5.01358 -4.64721 0)
(4.87265 -4.49671 0)
(4.7394 -4.35725 0)
(4.6141 -4.22868 0)
(4.49782 -4.11035 0)
(4.3907 -4.00532 0)
(4.28658 -3.93089 0)
(10.0434 0.0877395 1.47337e-19)
(10.0229 -0.307643 2.86669e-19)
(9.98704 -0.700349 -2.94425e-19)
(9.93651 -1.09023 5.87026e-19)
(9.87099 -1.47696 -5.87025e-19)
(9.79035 -1.86002 -5.54728e-19)
(9.69468 -2.23888 -5.5318e-19)
(9.58421 -2.61299 1.74215e-18)
(9.45916 -2.9818 -1.16071e-18)
(9.31979 -3.34476 1.15098e-18)
(9.16639 -3.70131 -1.15098e-18)
(8.99926 -4.05094 1.14248e-18)
(8.81874 -4.39311 -2.26563e-18)
(8.62517 -4.72733 3.33645e-18)
(8.41892 -5.05311 0)
(8.20038 -5.37 -3.27794e-18)
(7.96995 -5.67758 1.63462e-20)
(7.72814 -5.97549 3.3034e-18)
(7.47506 -6.26357 0)
(7.2124 -6.54115 0)
(10.1202 -0.210721 0)
(10.0789 -0.606821 -1.50422e-20)
(10.0209 -0.999121 0)
(9.9467 -1.38728 5.61748e-19)
(9.85668 -1.77088 5.84991e-19)
(9.75099 -2.1493 -1.69315e-18)
(9.62992 -2.52192 2.94771e-18)
(9.49384 -2.88812 -1.16364e-18)
(9.34311 -3.24729 -1.10921e-18)
(9.17812 -3.59886 -1.10468e-18)
(8.99929 -3.94224 4.45733e-20)
(8.80706 -4.2769 1.13183e-18)
(8.60189 -4.60231 -5.62669e-18)
(8.38427 -4.91797 -1.17995e-18)
(8.15468 -5.22343 2.24833e-18)
(7.91364 -5.51824 2.24532e-18)
(7.66162 -5.80203 1.14076e-18)
(7.39921 -6.07445 -2.19971e-18)
(7.12649 -6.33526 1.04169e-18)
(6.84442 -6.5841 0)
(10.0718 -0.149227 1.32676e-19)
(10.034 -0.540889 -2.71698e-19)
(9.97883 -0.929375 7.84606e-19)
(9.90665 -1.31399 -5.55852e-19)
(9.81786 -1.69409 -5.2999e-19)
(9.71282 -2.06894 5.53339e-19)
(9.59192 -2.43784 0)
(9.45554 -2.80009 0)
(9.30412 -3.15501 2.10105e-18)
(9.1381 -3.50197 3.13439e-18)
(8.95794 -3.84035 -9.91342e-19)
(8.76416 -4.16955 3.0994e-18)
(8.55727 -4.48902 -9.8717e-19)
(8.3378 -4.79821 -3.01886e-18)
(8.10632 -5.09663 1.3619e-20)
(7.86338 -5.38381 1.93779e-18)
(7.60952 -5.65931 -8.74668e-19)
(7.34533 -5.92272 -1.90642e-18)
(7.07116 -6.17368 -1.02974e-18)
(6.78774 -6.41167 1.87361e-18)
(9.90568 -0.112512 0)
(9.87467 -0.494941 2.29065e-19)
(9.82638 -0.875023 2.28123e-19)
(9.76099 -1.25186 -9.37212e-19)
(9.67885 -1.62465 0)
(9.58028 -1.99262 0)
(9.46565 -2.35501 0)
(9.33533 -2.71106 0)
(9.18975 -3.06006 -9.91761e-19)
(9.02934 -3.40131 -9.87995e-19)
(8.85458 -3.73416 0)
(8.66598 -4.05797 1.86798e-18)
(8.46406 -4.37212 -4.61841e-18)
(8.24939 -4.67603 3.71362e-18)
(8.02252 -4.96916 -3.59947e-18)
(7.78405 -5.25098 -8.73414e-19)
(7.53454 -5.521 1.56468e-19)
(7.27463 -5.77876 1.54872e-19)
(7.00482 -6.02378 -1.77882e-18)
(6.72585 -6.25559 -7.08892e-20)
(9.65261 -0.099031 0)
(9.62901 -0.46923 -2.25909e-19)
(9.58857 -0.837739 0)
(9.53135 -1.20365 4.51942e-19)
(9.45759 -1.56614 4.3082e-19)
(9.36758 -1.9244 3.93871e-19)
(9.26163 -2.27765 0)
(9.14008 -2.62514 0)
(9.0033 -2.96611 0)
(8.85171 -3.29986 0)
(8.68574 -3.62569 8.13625e-19)
(8.5059 -3.94292 8.76573e-19)
(8.31267 -4.25091 8.71574e-19)
(8.1066 -4.54906 -8.84903e-19)
(7.88826 -4.83676 -1.52294e-18)
(7.65821 -5.11346 1.72874e-18)
(7.41705 -5.37861 3.35169e-18)
(7.1654 -5.6317 1.63026e-18)
(6.90384 -5.87223 0)
(6.63308 -6.09969 -1.53648e-18)
(9.34559 -0.0902291 4.64328e-20)
(9.32896 -0.446253 0)
(9.29611 -0.801158 -7.60916e-19)
(9.24705 -1.15409 1.82731e-23)
(9.18194 -1.50423 1.61755e-20)
(9.101 -1.85078 -6.85404e-20)
(9.0045 -2.19297 0)
(8.89273 -2.53004 3.09363e-20)
(8.76601 -2.86125 -7.72461e-19)
(8.62471 -3.18588 1.50501e-18)
(8.46924 -3.50322 -1.56935e-18)
(8.30003 -3.8126 8.57353e-19)
(8.11756 -4.11335 -4.49407e-18)
(7.92234 -4.40485 2.96412e-18)
(7.71489 -4.68647 1.57124e-18)
(7.49577 -4.95764 0)
(7.26555 -5.21777 -2.90023e-18)
(7.02484 -5.46631 -6.15357e-20)
(6.77423 -5.70275 -2.85613e-18)
(6.51437 -5.92654 2.96857e-18)
(9.01325 -0.0854173 4.17582e-20)
(9.00226 -0.426443 -8.7478e-20)
(8.97579 -0.766818 7.17239e-19)
(8.9338 -1.10574 -1.40754e-20)
(8.87641 -1.44243 7.17091e-19)
(8.80378 -1.77611 -1.0831e-18)
(8.71615 -2.10603 0)
(8.61374 -2.43146 7.30147e-19)
(8.49685 -2.75166 6.68537e-19)
(8.36579 -3.06594 -7.26058e-19)
(8.22093 -3.37361 1.3284e-18)
(8.06265 -3.67398 2.81624e-18)
(7.89139 -3.96641 -1.30973e-18)
(7.70762 -4.25026 -1.41965e-18)
(7.51183 -4.52492 1.36144e-18)
(7.30455 -4.78977 0)
(7.08632 -5.04423 6.49495e-20)
(6.85771 -5.28775 9.81186e-21)
(6.61931 -5.51975 2.70603e-18)
(6.37171 -5.7397 1.25806e-18)
(8.67682 -0.0842347 0)
(8.66989 -0.410308 6.2587e-21)
(8.64824 -0.736075 -1.4595e-19)
(8.61184 -1.06079 -6.48167e-19)
(8.56075 -1.38371 6.09269e-19)
(8.49512 -1.70409 0)
(8.41511 -2.02123 1.24008e-18)
(8.32093 -2.33441 -1.36267e-21)
(8.21283 -2.64295 -1.89396e-18)
(8.09109 -2.94617 0)
(7.95603 -3.24339 -1.30726e-18)
(7.808 -3.53397 4.60137e-20)
(7.6474 -3.81727 -3.67474e-18)
(7.47465 -4.09266 6.47572e-21)
(7.29022 -4.35955 1.23164e-18)
(7.09459 -4.61733 0)
(6.88829 -4.86541 -1.20887e-18)
(6.67185 -5.10322 8.70287e-21)
(6.44583 -5.33021 1.20017e-18)
(6.21078 -5.54579 -1.23803e-18)
(8.35018 -0.0853141 0)
(8.34586 -0.397016 1.49641e-19)
(8.3276 -0.708644 3.10471e-19)
(8.29533 -1.0195 -5.74681e-19)
(8.24909 -1.32888 -2.47316e-20)
(8.18901 -1.6361 -2.87209e-19)
(8.11523 -1.94048 -1.14973e-18)
(8.02792 -2.24136 5.716e-19)
(7.92731 -2.53807 2.3822e-20)
(7.81363 -2.82997 5.68179e-19)
(7.68718 -3.11642 5.23055e-19)
(7.54828 -3.39682 2.26518e-18)
(7.39728 -3.67054 1.13304e-18)
(7.23459 -3.93698 2.23791e-18)
(7.06063 -4.19558 -1.11602e-18)
(6.87588 -4.44573 3.86784e-20)
(6.68081 -4.68687 -1.10284e-18)
(6.47594 -4.91841 0)
(6.26181 -5.13982 1.04248e-18)
(6.03894 -5.35047 0)
(8.04124 -0.0875303 6.51514e-20)
(8.03839 -0.385731 -1.9081e-19)
(8.0223 -0.684001 5.23356e-19)
(7.99291 -0.981684 -2.61092e-19)
(7.95026 -1.27812 1.89899e-20)
(7.89445 -1.57267 -2.60938e-19)
(7.82559 -1.86469 5.42476e-19)
(7.74385 -2.15355 -5.19178e-19)
(7.64942 -2.43864 5.19175e-19)
(7.54252 -2.71935 9.95748e-19)
(7.42341 -2.99507 -1.07297e-18)
(7.29238 -3.26523 -4.5117e-20)
(7.14978 -3.52925 -3.1058e-18)
(6.99597 -3.78657 5.37916e-21)
(6.83137 -4.03662 4.02907e-20)
(6.6564 -4.27885 2.01342e-18)
(6.47156 -4.51271 -9.94565e-19)
(6.27732 -4.73763 -9.4734e-19)
(6.07423 -4.95305 -3.74603e-20)
(5.86275 -5.15837 0)
(7.75361 -0.0901376 0)
(7.75137 -0.375831 2.42379e-19)
(7.73655 -0.661666 -8.33393e-19)
(7.70908 -0.947028 -2.21105e-19)
(7.669 -1.2313 4.94485e-19)
(7.61639 -1.51387 0)
(7.55137 -1.79415 0)
(7.47406 -2.07154 4.72653e-19)
(7.38466 -2.34546 -4.7265e-19)
(7.28336 -2.61534 3.98166e-19)
(7.17041 -2.88063 -4.69604e-19)
(7.04607 -3.14076 9.31264e-19)
(6.91068 -3.39522 -1.85792e-18)
(6.76457 -3.64347 1.84831e-18)
(6.60814 -3.88498 3.46768e-20)
(6.44182 -4.11924 -9.50615e-19)
(6.26608 -4.34571 -9.04591e-19)
(6.08141 -4.56385 1.8427e-18)
(5.88832 -4.7731 8.62632e-19)
(5.68729 -4.97283 0)
(7.48808 -0.0926626 1.8784e-21)
(7.48589 -0.366847 1.5914e-19)
(7.47169 -0.641201 3.34119e-19)
(7.44544 -0.915145 2.33866e-19)
(7.40717 -1.1881 2.16943e-19)
(7.35695 -1.45948 2.01809e-19)
(7.29489 -1.72874 0)
(7.22111 -1.99532 -8.3398e-19)
(7.13579 -2.25866 -4.29917e-19)
(7.0391 -2.51824 3.66771e-19)
(6.93129 -2.77354 0)
(6.8126 -3.02403 8.49132e-19)
(6.68335 -3.26924 -2.51135e-18)
(6.54385 -3.50866 8.44785e-19)
(6.39451 -3.74183 0)
(6.23573 -3.96825 -8.03231e-19)
(6.068 -4.18742 -1.62231e-18)
(5.8918 -4.39883 7.98291e-19)
(5.70769 -4.60191 -2.92143e-20)
(5.51612 -4.79602 0)
(7.24377 -0.0948065 3.46571e-21)
(7.24126 -0.358435 -1.02992e-19)
(7.22727 -0.622225 1.98754e-19)
(7.20176 -0.885633 -1.31264e-20)
(7.16476 -1.14811 3.97157e-19)
(7.11633 -1.40911 -6.09958e-19)
(7.05659 -1.6681 0)
(6.98565 -1.92457 5.60499e-20)
(6.90366 -2.17799 0)
(6.8108 -2.42786 -8.14218e-19)
(6.7073 -2.6737 0)
(6.5934 -2.91504 -7.51426e-19)
(6.46937 -3.15142 2.32244e-18)
(6.33556 -3.38239 -1.53896e-18)
(6.19232 -3.60751 7.67267e-19)
(6.04009 -3.82636 -6.7887e-19)
(5.87936 -4.03846 7.84127e-19)
(5.71063 -4.24336 -7.78765e-19)
(5.53452 -4.44045 0)
(5.35148 -4.62909 0)
(7.01889 -0.0964479 4.71277e-20)
(7.01587 -0.350369 0)
(7.00184 -0.604434 0)
(6.97676 -0.858123 -3.77595e-19)
(6.94067 -1.11091 -3.52416e-19)
(6.89363 -1.36229 0)
(6.83574 -1.61175 0)
(6.76711 -1.8588 4.98708e-20)
(6.6879 -2.10296 6.97895e-19)
(6.59828 -2.34374 -3.36567e-19)
(6.49844 -2.5807 -3.58584e-19)
(6.38863 -2.8134 1.44853e-18)
(6.26911 -3.04142 -2.15094e-18)
(6.14019 -3.26437 1.38705e-18)
(6.00226 -3.48183 0)
(5.85571 -3.69348 2.78659e-18)
(5.70109 -3.89884 -2.02321e-18)
(5.53889 -4.09757 6.8829e-19)
(5.36991 -4.28898 1.31634e-18)
(5.19454 -4.4725 0)
(6.81133 -0.0975219 -4.05182e-20)
(6.80771 -0.342489 0)
(6.79349 -0.587578 -5.22392e-21)
(6.76865 -0.832288 -3.24257e-19)
(6.73323 -1.07612 1.00477e-18)
(6.68731 -1.31858 -1.6714e-19)
(6.63095 -1.5592 0)
(6.56429 -1.7975 1.33144e-18)
(6.48746 -2.03301 -6.85674e-19)
(6.40062 -2.26531 4.45017e-20)
(6.30396 -2.49396 6.35461e-19)
(6.19771 -2.71856 6.51352e-19)
(6.08212 -2.93871 -1.2989e-18)
(5.95749 -3.15409 -1.27048e-18)
(5.82417 -3.36432 -1.24096e-18)
(5.68258 -3.56916 -1.32053e-18)
(5.53329 -3.76815 1.31154e-18)
(5.3768 -3.96117 -6.26111e-19)
(5.21415 -4.14734 -6.67178e-19)
(5.04563 -4.32632 0)
(6.61886 -0.0980084 3.9808e-20)
(6.6146 -0.334689 -1.4947e-19)
(6.60013 -0.571461 -1.54734e-19)
(6.57545 -0.807845 4.63317e-19)
(6.54058 -1.04336 -1.64537e-19)
(6.4956 -1.27755 -1.53799e-19)
(6.44059 -1.50994 0)
(6.37565 -1.74009 -6.32175e-19)
(6.30093 -1.96757 0)
(6.21656 -2.19194 6.27287e-19)
(6.12274 -2.41283 -1.2088e-18)
(6.01967 -2.62984 5.98378e-19)
(5.90759 -2.84262 -1.19308e-18)
(5.78677 -3.05089 1.23117e-18)
(5.65755 -3.25431 6.70108e-19)
(5.52031 -3.45277 0)
(5.37569 -3.6458 -5.78418e-19)
(5.22413 -3.83363 5.78418e-19)
(5.06712 -4.01503 0)
(4.90462 -4.19038 0)
(6.43936 -0.097995 0)
(6.43448 -0.326947 1.46853e-19)
(6.41978 -0.555958 4.72472e-21)
(6.39522 -0.78457 -1.5142e-19)
(6.36086 -1.01233 -1.33526e-19)
(6.31675 -1.23878 -1.41759e-19)
(6.26297 -1.46349 5.47906e-19)
(6.19964 -1.68603 0)
(6.12687 -1.90599 0)
(6.04481 -2.12296 2.78448e-19)
(5.95362 -2.33658 2.95791e-19)
(5.8535 -2.54649 1.07056e-18)
(5.74466 -2.75236 -5.47003e-19)
(5.62734 -2.95395 5.47002e-19)
(5.50186 -3.15098 5.80682e-19)
(5.36854 -3.34346 3.39545e-20)
(5.22806 -3.53092 -1.0665e-18)
(5.08076 -3.71414 3.77934e-21)
(4.92882 -3.89121 5.27478e-19)
(4.77136 -4.06414 0)
(6.27091 -0.0974848 -3.28235e-20)
(6.26549 -0.319231 3.28231e-20)
(6.25059 -0.54101 0)
(6.22619 -0.762374 1.23632e-19)
(6.19234 -0.982888 4.01592e-19)
(6.1491 -1.20212 -5.07568e-19)
(6.09654 -1.41966 -5.38336e-19)
(6.03478 -1.6351 0)
(5.96392 -1.84803 0)
(5.8841 -2.05808 0)
(5.79547 -2.26491 -9.93815e-19)
(5.69821 -2.46817 -6.41502e-20)
(5.5925 -2.66757 -5.03903e-19)
(5.47855 -2.8629 3.01975e-20)
(5.35663 -3.05392 -9.96527e-19)
(5.22696 -3.24078 1.51871e-18)
(5.09026 -3.42304 -1.43903e-18)
(4.94658 -3.60229 4.88493e-19)
(4.79921 -3.77553 9.36481e-19)
(4.64542 -3.94768 0)
(6.1118 -0.0961274 2.94887e-20)
(6.10595 -0.31134 0)
(6.09094 -0.526574 -1.21406e-19)
(6.06676 -0.741392 -2.50165e-19)
(6.03347 -0.955376 1.21254e-19)
(5.9911 -1.16812 9.68263e-19)
(5.93976 -1.37921 0)
(5.87952 -1.58828 -4.66338e-19)
(5.81051 -1.79493 -2.38517e-19)
(5.73284 -1.99882 -4.48087e-19)
(5.64666 -2.19962 -1.79288e-19)
(5.5521 -2.397 -1.41467e-18)
(5.44934 -2.59069 -9.3377e-19)
(5.33851 -2.78049 9.60549e-19)
(5.21985 -2.96622 9.1944e-19)
(5.09339 -3.14811 -3.88395e-21)
(4.95993 -3.3258 2.99482e-20)
(4.8187 -3.5019 4.50105e-19)
(4.67484 -3.67258 -9.20186e-19)
(4.52158 -3.84776 0)
(5.96044 -0.0944555 -6.16667e-20)
(5.95429 -0.303413 3.03575e-20)
(5.93932 -0.512457 -1.21283e-19)
(5.91552 -0.721199 1.21227e-19)
(5.88291 -0.929246 -3.48666e-19)
(5.84154 -1.13621 -1.0857e-18)
(5.79147 -1.3417 0)
(5.73278 -1.54535 4.93423e-19)
(5.66556 -1.74681 -4.61367e-19)
(5.58991 -1.94572 9.7697e-19)
(5.50594 -2.14178 9.71168e-19)
(5.41376 -2.33467 1.43083e-18)
(5.3135 -2.52413 -9.2845e-19)
(5.20521 -2.70996 4.62465e-19)
(5.08912 -2.89197 -4.54809e-19)
(4.96485 -3.07038 4.54833e-19)
(4.83353 -3.24492 0)
(4.69244 -3.41881 4.11798e-19)
(4.55064 -3.58787 -4.02982e-19)
(4.39295 -3.77431 0)
(7.14 7.26198 0)
(7.41997 6.97218 0)
(7.68703 6.6728 1.08737e-18)
(7.9419 6.36434 2.02566e-20)
(8.184 6.04652 -1.15041e-18)
(8.41267 5.71939 0)
(8.6275 5.38338 1.18717e-18)
(8.82815 5.039 -2.23985e-18)
(9.01432 4.68683 -1.13196e-18)
(9.1857 4.32748 -1.14254e-18)
(9.34204 3.96159 1.14254e-18)
(9.48311 3.58981 -1.15463e-18)
(9.60871 3.21282 5.75956e-19)
(9.71866 2.83134 5.49728e-19)
(9.81278 2.44601 5.51876e-19)
(9.89103 2.05752 -5.85684e-19)
(9.95338 1.66652 5.85684e-19)
(9.9999 1.27371 -2.9402e-19)
(10.0305 0.87949 -1.39663e-19)
(10.0458 0.485217 7.35615e-20)
(7.41672 7.07008 0)
(7.6969 6.78067 -9.96415e-19)
(7.96328 6.47969 -2.13027e-18)
(8.21617 6.16782 3.15025e-18)
(8.45531 5.84537 -2.18459e-18)
(8.68021 5.51282 2.19535e-18)
(8.89037 5.17075 1.19352e-18)
(9.08539 4.81983 -3.38685e-18)
(9.26488 4.46076 1.10798e-18)
(9.42848 4.09424 2.2026e-18)
(9.57587 3.72101 1.08519e-18)
(9.70682 3.34181 1.09207e-18)
(9.82115 2.95747 -1.1524e-18)
(9.91864 2.56868 1.69693e-18)
(9.99902 2.17624 -2.3543e-18)
(10.0622 1.78104 5.81119e-19)
(10.1082 1.38386 -5.58418e-19)
(10.1371 0.985533 0)
(10.1487 0.586588 1.51559e-20)
(10.1435 0.188003 0)
(7.27369 6.94528 -1.75453e-18)
(7.55668 6.67327 9.85016e-19)
(7.82713 6.3884 1.80185e-18)
(8.08458 6.09133 8.15721e-19)
(8.32862 5.78265 2.04289e-18)
(8.55871 5.46296 2.00359e-20)
(8.77433 5.13294 -1.02397e-18)
(8.97499 4.79328 -3.05167e-18)
(9.16023 4.44468 3.01283e-18)
(9.32963 4.0879 -3.09271e-18)
(9.48279 3.72366 -1.03036e-18)
(9.61941 3.35272 -2.06145e-18)
(9.73918 2.97591 0)
(9.84188 2.594 0)
(9.92737 2.20789 0)
(9.9955 1.81848 -5.25459e-19)
(10.0461 1.42661 5.50325e-19)
(10.0791 1.03314 5.27155e-19)
(10.0944 0.638792 6.2699e-21)
(10.0921 0.244521 1.32399e-19)
(7.0464 6.69322 1.82221e-18)
(7.32613 6.43987 -1.6548e-18)
(7.59451 6.1734 -1.69614e-19)
(7.85082 5.89434 -1.70575e-19)
(8.0945 5.60328 4.30198e-18)
(8.325 5.30081 -7.12595e-20)
(8.54176 4.98757 3.77382e-21)
(8.74425 4.66421 -2.72049e-18)
(8.93198 4.33141 1.79496e-18)
(9.10447 3.98986 0)
(9.26123 3.64034 9.62733e-19)
(9.40191 3.28369 9.69396e-19)
(9.52625 2.92068 0)
(9.63392 2.55215 0)
(9.7247 2.17891 0)
(9.7984 1.8018 0)
(9.85482 1.42161 -2.17121e-20)
(9.89385 1.03923 4.74662e-19)
(9.91537 0.655464 -2.27938e-19)
(9.91937 0.271264 0)
(6.78373 6.37847 1.54333e-18)
(7.0556 6.14298 0)
(7.31724 5.89456 -4.54412e-18)
(7.56784 5.63361 -1.54888e-18)
(7.80677 5.36067 -1.62764e-18)
(8.03346 5.07628 -1.72538e-18)
(8.24732 4.78103 8.15187e-19)
(8.44781 4.47553 -8.56718e-19)
(8.6344 4.1604 2.37888e-18)
(8.80663 3.83633 -7.78796e-19)
(8.96409 3.50408 0)
(9.10627 3.16439 0)
(9.23279 2.81797 0)
(9.34338 2.4656 0)
(9.43777 2.10808 -1.22987e-18)
(9.51571 1.74623 4.22892e-19)
(9.57697 1.38084 -4.46714e-19)
(9.62141 1.01277 0)
(9.64888 0.642838 2.24799e-19)
(9.65932 0.271946 0)
(6.50879 6.05125 1.32033e-18)
(6.77043 5.83191 -4.79935e-20)
(7.02277 5.60004 2.77725e-18)
(7.26503 5.35598 1.38751e-18)
(7.49654 5.10019 0)
(7.71671 4.83319 -1.4734e-18)
(7.925 4.55549 6.85176e-20)
(8.12084 4.26766 -1.49579e-18)
(8.30372 3.97029 2.06936e-18)
(8.47315 3.66402 3.27418e-20)
(8.62871 3.3495 2.81183e-20)
(8.76994 3.02734 -7.46421e-19)
(8.89644 2.6983 1.4639e-18)
(9.00788 2.36311 0)
(9.10401 2.0225 6.8576e-20)
(9.18451 1.67728 7.47388e-19)
(9.24912 1.32824 1.63861e-21)
(9.29765 0.976153 -1.53476e-20)
(9.32999 0.621819 0)
(9.346 0.266075 -4.63362e-20)
(6.24293 5.73423 0)
(6.49323 5.52886 -4.89197e-20)
(6.73499 5.3115 1.75764e-20)
(6.96745 5.08243 -2.51058e-18)
(7.18997 4.84204 0)
(7.40198 4.5908 1.26976e-18)
(7.60292 4.32919 1.35248e-18)
(7.79229 4.05773 -3.93495e-18)
(7.96956 3.77694 -6.8289e-20)
(8.13428 3.48742 -1.26354e-18)
(8.286 3.18974 6.95709e-19)
(8.42429 2.88453 -6.42662e-19)
(8.54877 2.57246 -7.0648e-19)
(8.65905 2.25422 0)
(8.7549 1.93053 3.72721e-19)
(8.8361 1.602 -1.69108e-20)
(8.90227 1.26949 -3.46011e-19)
(8.95319 0.933729 -1.67727e-20)
(8.98875 0.595469 -8.71005e-20)
(9.00878 0.255483 1.74574e-19)
(5.99736 5.439 0)
(6.23607 5.24548 1.08562e-18)
(6.46684 5.04054 1.61846e-20)
(6.68894 4.82442 -1.10177e-18)
(6.90176 4.59747 0)
(7.10476 4.36011 1.14624e-18)
(7.29742 4.11279 -1.09438e-18)
(7.47924 3.85596 -1.2115e-18)
(7.64974 3.59012 2.30445e-18)
(7.80846 3.31581 1.24344e-18)
(7.955 3.03358 0)
(8.08894 2.74402 6.06498e-19)
(8.20991 2.44775 -4.39082e-21)
(8.31758 2.14542 2.18692e-20)
(8.41154 1.83769 0)
(8.49167 1.52519 -5.96995e-19)
(8.55778 1.20854 -3.12765e-19)
(8.60947 0.888539 4.5697e-19)
(8.64663 0.565933 3.08105e-19)
(8.66909 0.241423 -4.11828e-20)
(5.77576 5.17051 0)
(6.00322 4.98697 -9.37653e-19)
(6.22318 4.79258 0)
(6.43497 4.58756 -1.01163e-18)
(6.63802 4.37222 1.9917e-18)
(6.83181 4.14693 -2.0312e-18)
(7.01585 3.9121 3.17841e-18)
(7.18968 3.66815 -3.16927e-18)
(7.35284 3.41557 -2.14126e-18)
(7.50492 3.15483 -1.57932e-18)
(7.64552 2.88647 5.41573e-19)
(7.77426 2.61104 -1.12278e-18)
(7.89077 2.32911 1.86511e-20)
(7.99475 2.04128 1.11612e-18)
(8.08589 1.74815 -2.80788e-19)
(8.16383 1.45044 1.15025e-18)
(8.22847 1.14864 -5.65736e-19)
(8.27965 0.843452 2.60657e-19)
(8.31709 0.535612 -1.4865e-19)
(8.3406 0.225788 0)
(5.57787 4.92914 0)
(5.79471 4.75406 1.81398e-18)
(6.0044 4.56868 8.79916e-19)
(6.20631 4.37319 -9.05743e-19)
(6.3999 4.16788 -1.85541e-18)
(6.58468 3.95308 2.82336e-18)
(6.76021 3.72915 1.12927e-20)
(6.92605 3.49651 -9.20285e-19)
(7.08179 3.2556 1.9757e-18)
(7.22703 3.00688 1.02038e-18)
(7.36139 2.75085 -9.53315e-19)
(7.48454 2.48804 5.00577e-19)
(7.59612 2.21898 2.25412e-20)
(7.69583 1.94424 -5.26728e-19)
(7.78339 1.6644 -2.55243e-19)
(7.85852 1.38004 5.11797e-19)
(7.92097 1.09184 -2.56554e-19)
(7.97065 0.800316 -5.17718e-19)
(8.00738 0.506144 5.99925e-20)
(8.03092 0.209972 6.48716e-20)
(5.40146 4.71284 0)