/*--------------------------------*- C++ -*----------------------------------*\
| =========                 |                                                 |
| \\      /  F ield         | OpenFOAM: The Open Source CFD Toolbox           |
|  \\    /   O peration     | Version:  v1912                                 |
|   \\  /    A nd           | Website:  www.openfoam.com                      |
|    \\/     M anipulation  |                                                 |
\*---------------------------------------------------------------------------*/
FoamFile
{
    version     2.0;
    format      ascii;
    class       volScalarField;
    location    "5";
    object      p;
}
// * * * * * * * * * * * * * * * * * * * * * * * * * * * * * * * * * * * * * //

dimensions      [0 2 -2 0 0 0 0];


internalField   nonuniform List<scalar> 
9600
(
-35.0756
-29.5818
-26.1687
-23.2571
-20.6704
-18.4032
-16.4135
-14.6616
-13.1178
-11.7572
-10.5576
-9.49926
-8.56486
-7.73898
-7.00808
-6.36034
-5.78549
-5.27408
-4.81756
-4.41486
-35.3551
-29.8608
-26.4356
-23.5072
-20.9028
-18.6185
-16.613
-14.8469
-13.2907
-11.9193
-10.7103
-9.6439
-8.70249
-7.87047
-7.13413
-6.48152
-5.90224
-5.38661
-4.92593
-4.52047
-35.6393
-30.1387
-26.7007
-23.7556
-21.1334
-18.8321
-16.8108
-15.0307
-13.4623
-12.0802
-10.8621
-9.78778
-8.83954
-8.00155
-7.25992
-6.60256
-6.01895
-5.49919
-5.03442
-4.62633
-35.926
-30.4164
-26.9645
-24.0023
-21.3623
-19.0438
-17.0069
-15.2129
-13.6323
-12.2398
-11.0127
-9.93076
-8.97587
-8.13208
-7.38533
-6.72337
-6.13556
-5.61175
-5.14299
-4.73242
-36.2132
-30.6934
-27.2267
-24.2472
-21.5891
-19.2535
-17.201
-15.3932
-13.8007
-12.398
-11.1622
-10.0727
-9.11138
-8.26198
-7.51027
-6.84387
-6.252
-5.72426
-5.25162
-4.83873
-36.5
-30.9697
-27.4871
-24.49
-21.8137
-19.4609
-17.3929
-15.5715
-13.9673
-12.5546
-11.3102
-10.2134
-9.24587
-8.39107
-7.63461
-6.96396
-6.36819
-5.83666
-5.36028
-4.94529
-36.7858
-31.2447
-27.7451
-24.7303
-22.0357
-19.6657
-17.5823
-15.7475
-14.1317
-12.7092
-11.4565
-10.3527
-9.37916
-8.51918
-7.75818
-7.08348
-6.48401
-5.94886
-5.46891
-5.05206
-37.0698
-31.5177
-28.0007
-24.9679
-22.2549
-19.8677
-17.7689
-15.9209
-14.2938
-12.8616
-11.6009
-10.4903
-9.51099
-8.64606
-7.88076
-7.20225
-6.59929
-6.06073
-5.5774
-5.15897
-37.3516
-31.7881
-28.2534
-25.2023
-22.4709
-20.0665
-17.9525
-16.0913
-14.4531
-13.0116
-11.743
-10.6259
-9.64106
-8.77144
-8.00207
-7.32
-6.71381
-6.17206
-5.6856
-5.26587
-37.6308
-32.0556
-28.5029
-25.4333
-22.6833
-20.2617
-18.1326
-16.2585
-14.6093
-13.1587
-11.8826
-10.7592
-9.76901
-8.89494
-8.12177
-7.4364
-6.82724
-6.28257
-5.79323
-5.37255
-37.9069
-32.3196
-28.7488
-25.6604
-22.8917
-20.453
-18.3089
-16.422
-14.7621
-13.3026
-12.0191
-10.8896
-9.89442
-9.01614
-8.23942
-7.55101
-6.93917
-6.39187
-5.89993
-5.47864
-38.1797
-32.5799
-28.9908
-25.8833
-23.0958
-20.6399
-18.481
-16.5814
-14.911
-13.4428
-12.1522
-11.0168
-10.0168
-9.13454
-8.35452
-7.66334
-7.0491
-6.49946
-6.00522
-5.58366
-38.449
-32.8361
-29.2283
-26.1015
-23.2951
-20.8222
-18.6484
-16.7364
-15.0557
-13.579
-12.2814
-11.1403
-10.1356
-9.24957
-8.46644
-7.77273
-7.15638
-6.60473
-6.10849
-5.6871
-38.7147
-33.088
-29.4611
-26.3147
-23.4893
-20.9993
-18.8108
-16.8865
-15.1956
-13.7105
-12.4061
-11.2595
-10.2503
-9.36054
-8.57446
-7.8784
-7.26018
-6.70682
-6.20896
-5.7883
-38.9768
-33.3351
-29.6887
-26.5225
-23.6779
-21.1709
-18.9679
-17.0314
-15.3304
-13.8371
-12.526
-11.3738
-10.3601
-9.46674
-8.67773
-7.97937
-7.35939
-6.80452
-6.30536
-5.88589
-39.235
-33.577
-29.9106
-26.7246
-23.8608
-21.3367
-19.1192
-17.1707
-15.4598
-13.9584
-12.6405
-11.4829
-10.4647
-9.56753
-8.77548
-8.07472
-7.45292
-6.8966
-6.39615
-5.97719
-39.491
-33.8139
-30.1266
-26.9204
-24.0373
-21.4961
-19.2644
-17.304
-15.5834
-14.0739
-12.7494
-11.5862
-10.5633
-9.66227
-8.86699
-8.16372
-7.54014
-6.98246
-6.48024
-6.06052
-39.7494
-34.0473
-30.3356
-27.1088
-24.2065
-21.6487
-19.403
-17.4311
-15.7009
-14.1835
-12.8523
-11.6834
-10.6556
-9.7502
-8.95123
-8.24505
-7.61941
-7.06001
-6.55573
-6.13904
-40.0129
-34.2772
-30.536
-27.2886
-24.3681
-21.7943
-19.5351
-17.552
-15.8125
-14.2874
-12.9495
-11.7747
-10.7414
-9.83092
-9.02712
-8.31636
-7.68603
-7.12151
-6.61504
-6.21148
-40.2593
-34.495
-30.7278
-27.4606
-24.5232
-21.9342
-19.6619
-17.668
-15.9195
-14.3867
-13.0421
-11.8613
-10.8222
-9.90602
-9.09614
-8.37827
-7.73853
-7.1632
-6.65263
-6.24885
-42.481
-42.486
-42.4677
-42.4398
-42.4011
-42.3488
-42.2827
-42.2031
-42.1107
-42.0059
-41.8891
-41.7609
-41.6221
-41.4733
-41.3153
-41.149
-40.9758
-40.7976
-40.6174
-40.4387
-36.4934
-36.5162
-36.52
-36.5102
-36.4864
-36.4478
-36.3949
-36.3284
-36.2488
-36.1567
-36.0527
-35.9373
-35.8113
-35.6752
-35.5297
-35.3755
-35.2134
-35.0441
-34.8685
-34.6857
-32.4588
-32.4939
-32.5121
-32.5149
-32.5028
-32.4763
-32.436
-32.3828
-32.3169
-32.2391
-32.1498
-32.0496
-31.939
-31.8187
-31.6892
-31.5511
-31.4047
-31.2504
-31.0878
-30.9148
-28.9251
-28.9668
-28.9938
-29.0063
-29.0045
-28.9889
-28.9603
-28.9193
-28.8663
-28.8018
-28.7263
-28.6403
-28.5444
-28.4391
-28.3247
-28.2018
-28.0706
-27.9312
-27.7834
-27.6267
-25.7724
-25.8169
-25.8483
-25.8666
-25.8714
-25.8631
-25.8426
-25.8105
-25.7671
-25.7128
-25.6482
-25.5738
-25.4901
-25.3974
-25.2962
-25.187
-25.0698
-24.9449
-24.8123
-24.672
-23.0242
-23.0688
-23.1016
-23.1223
-23.1303
-23.1261
-23.1105
-23.0841
-23.0471
-23
-22.9434
-22.8775
-22.8031
-22.7203
-22.6298
-22.5317
-22.4264
-22.3141
-22.1947
-22.0684
-20.6413
-20.6841
-20.716
-20.7367
-20.7455
-20.743
-20.7298
-20.7065
-20.6735
-20.631
-20.5796
-20.5198
-20.452
-20.3766
-20.2941
-20.2047
-20.1089
-20.0068
-19.8983
-19.7837
-18.575
-18.6148
-18.6444
-18.6635
-18.6715
-18.669
-18.6565
-18.6345
-18.6034
-18.5635
-18.5154
-18.4594
-18.3961
-18.3259
-18.2492
-18.1665
-18.078
-17.9839
-17.8843
-17.7793
-16.7821
-16.8184
-16.845
-16.8616
-16.8678
-16.8642
-16.8512
-16.8292
-16.7987
-16.76
-16.7136
-16.6599
-16.5995
-16.5328
-16.4603
-16.3824
-16.2995
-16.2118
-16.1193
-16.0221
-15.2241
-15.2566
-15.2799
-15.2937
-15.2976
-15.2922
-15.278
-15.2553
-15.2245
-15.1861
-15.1404
-15.0879
-15.0292
-14.9648
-14.8952
-14.8208
-14.7421
-14.6594
-14.5727
-14.4821
-13.8668
-13.8957
-13.9156
-13.9264
-13.9279
-13.9205
-13.9047
-13.8808
-13.8493
-13.8104
-13.7648
-13.7128
-13.6551
-13.5921
-13.5243
-13.4525
-13.377
-13.2982
-13.2163
-13.1312
-12.6809
-12.7062
-12.723
-12.7309
-12.7299
-12.7204
-12.7029
-12.6777
-12.6451
-12.6056
-12.5596
-12.5076
-12.4502
-12.388
-12.3215
-12.2514
-12.1783
-12.1027
-12.0248
-11.9447
-11.6413
-11.6634
-11.6771
-11.6823
-11.679
-11.6675
-11.6482
-11.6216
-11.5879
-11.5475
-11.5009
-11.4487
-11.3912
-11.3293
-11.2635
-11.1946
-11.1234
-11.0503
-10.9759
-10.9003
-10.7267
-10.7459
-10.7569
-10.7596
-10.7541
-10.7407
-10.7199
-10.6919
-10.657
-10.6157
-10.5684
-10.5157
-10.458
-10.3961
-10.3306
-10.2624
-10.1924
-10.1214
-10.0501
-9.97864
-9.91921
-9.93586
-9.94442
-9.94491
-9.93743
-9.92234
-9.90001
-9.87071
-9.83477
-9.79258
-9.74458
-9.69124
-9.63315
-9.57095
-9.50544
-9.43755
-9.36832
-9.2989
-9.23036
-9.16297
-9.20473
-9.2183
-9.22459
-9.22312
-9.21387
-9.19723
-9.17353
-9.14305
-9.1061
-9.06305
-9.0143
-8.96034
-8.9017
-8.83905
-8.77319
-8.70515
-8.63616
-8.56769
-8.50141
-8.4381
-8.56891
-8.58046
-8.58479
-8.58152
-8.57066
-8.55258
-8.52761
-8.49603
-8.45811
-8.4142
-8.36468
-8.31
-8.25067
-8.18732
-8.12075
-8.05205
-7.9826
-7.91425
-7.84932
-7.78941
-8.00176
-8.01163
-8.01436
-8.00961
-7.99741
-7.97816
-7.95218
-7.91969
-7.88097
-7.83634
-7.78614
-7.73079
-7.67074
-7.60658
-7.53907
-7.46929
-7.39873
-7.32975
-7.26531
-7.20713
-7.49326
-7.50205
-7.50387
-7.49829
-7.4854
-7.46564
-7.43932
-7.40665
-7.36787
-7.32327
-7.27319
-7.21797
-7.15803
-7.09388
-7.02617
-6.95592
-6.88457
-6.8152
-6.75192
-6.69755
-7.03745
-7.04366
-7.04353
-7.03618
-7.02173
-7.00076
-6.97357
-6.94035
-6.90129
-6.85666
-6.80675
-6.75187
-6.69234
-6.62859
-6.56109
-6.49065
-6.41827
-6.34714
-6.28122
-6.23817
-38.458
-38.789
-39.0967
-39.4029
-39.7042
-39.9944
-40.2714
-40.5343
-40.7825
-41.0151
-41.2315
-41.4311
-41.6134
-41.7784
-41.9259
-42.0563
-42.17
-42.2677
-42.3513
-42.4227
-32.4367
-32.775
-33.0974
-33.4105
-33.7132
-34.0029
-34.2789
-34.5407
-34.7878
-35.02
-35.2367
-35.4374
-35.6214
-35.7884
-35.9388
-36.0727
-36.1902
-36.2914
-36.3764
-36.4442
-28.4381
-28.7695
-29.0887
-29.3963
-29.6919
-29.9748
-30.2446
-30.5009
-30.7432
-30.971
-31.1846
-31.3845
-31.5684
-31.736
-31.8879
-32.0239
-32.1441
-32.2481
-32.3357
-32.4063
-25.0153
-25.3317
-25.6383
-25.9341
-26.2182
-26.4904
-26.7506
-26.9985
-27.2337
-27.4557
-27.6635
-27.856
-28.0344
-28.1979
-28.3473
-28.482
-28.6016
-28.7059
-28.7947
-28.8681
-22.0289
-22.3276
-22.6181
-22.8991
-23.1692
-23.428
-23.6756
-23.9115
-24.1353
-24.3464
-24.5442
-24.7286
-24.8998
-25.0583
-25.2032
-25.3339
-25.4505
-25.5527
-25.6404
-25.714
-19.4771
-19.7582
-20.0322
-20.2974
-20.5524
-20.7969
-21.0308
-21.2537
-21.4652
-21.6648
-21.8523
-22.0276
-22.1905
-22.3408
-22.4777
-22.6016
-22.7131
-22.8112
-22.8957
-22.967
-17.3006
-17.5651
-17.823
-18.0728
-18.313
-18.5434
-18.7637
-18.9736
-19.1727
-19.3606
-19.5372
-19.7023
-19.8555
-19.9968
-20.1259
-20.2426
-20.3467
-20.4393
-20.5193
-20.5869
-15.4371
-15.6864
-15.9295
-16.1649
-16.3913
-16.6083
-16.8157
-17.0131
-17.2003
-17.3769
-17.5426
-17.6974
-17.8409
-17.9732
-18.094
-18.2033
-18.3008
-18.3864
-18.4611
-18.5242
-13.8358
-14.0714
-14.3012
-14.5236
-14.7373
-14.942
-15.1375
-15.3235
-15.4995
-15.6654
-15.8209
-15.9659
-16.1002
-16.2238
-16.3366
-16.4383
-16.5291
-16.6087
-16.6772
-16.7354
-12.4543
-12.6778
-12.8957
-13.1065
-13.3089
-13.5026
-13.6873
-13.8627
-14.0285
-14.1845
-14.3306
-14.4666
-14.5924
-14.7079
-14.813
-14.9077
-14.9919
-15.0655
-15.1285
-15.1817
-11.2572
-11.4701
-11.6776
-11.8782
-12.0705
-12.2543
-12.4292
-12.5951
-12.7517
-12.8988
-13.0363
-13.164
-13.282
-13.3901
-13.4882
-13.5763
-13.6544
-13.7225
-13.7807
-13.8286
-10.2155
-10.419
-10.6175
-10.8092
-10.9926
-11.1675
-11.3337
-11.4909
-11.6391
-11.7781
-11.9078
-12.0281
-12.139
-12.2404
-12.3321
-12.4143
-12.4868
-12.5497
-12.603
-12.6468
-9.30509
-9.50047
-9.69135
-9.8752
-10.0507
-10.2175
-10.3758
-10.5253
-10.6659
-10.7976
-10.9202
-11.0338
-11.1383
-11.2335
-11.3196
-11.3963
-11.4638
-11.522
-11.571
-11.611
-8.50617
-8.69452
-8.87908
-9.05618
-9.22448
-9.38413
-9.53519
-9.67758
-9.81128
-9.93627
-10.0525
-10.1601
-10.2587
-10.3485
-10.4294
-10.5013
-10.5643
-10.6183
-10.6633
-10.6996
-7.80225
-7.98479
-8.16434
-8.33551
-8.49729
-8.6503
-8.79474
-8.93062
-9.058
-9.17693
-9.28742
-9.38943
-9.48289
-9.56776
-9.644
-9.71156
-9.77043
-9.82063
-9.86217
-9.89516
-7.1793
-7.35813
-7.53412
-7.69987
-7.85554
-8.00236
-8.14063
-8.27044
-8.39199
-8.50536
-8.61056
-8.70755
-8.79627
-8.87667
-8.94869
-9.0123
-9.06748
-9.11425
-9.15264
-9.18281
-6.62269
-6.80223
-6.97695
-7.13754
-7.28727
-7.42825
-7.56071
-7.68488
-7.80104
-7.9093
-8.00967
-8.1021
-8.18651
-8.26284
-8.33105
-8.39108
-8.44292
-8.48658
-8.5221
-8.5496
-6.114
-6.29939
-6.47687
-6.63332
-6.77761
-6.91333
-7.04064
-7.15986
-7.27135
-7.37524
-7.47149
-7.56006
-7.64084
-7.71378
-7.7788
-7.83585
-7.88493
-7.92602
-7.95916
-7.98444
-5.64818
-5.83885
-6.02178
-6.17664
-6.3167
-6.4477
-6.57049
-6.68545
-6.79295
-6.89311
-6.9859
-7.07124
-7.14902
-7.21915
-7.28159
-7.33627
-7.38317
-7.42229
-7.45363
-7.4773
-5.30247
-5.49566
-5.66693
-5.81623
-5.94973
-6.07229
-6.18703
-6.29466
-6.39521
-6.48873
-6.5752
-6.65453
-6.72662
-6.79138
-6.84877
-6.89875
-6.94131
-6.97643
-7.00413
-7.02447
-1.85802
-2.15546
-2.49672
-2.88183
-3.31811
-3.81381
-4.37785
-5.02082
-5.75563
-6.59806
-7.56764
-8.68874
-9.992
-11.5159
-13.3097
-15.439
-17.9742
-20.9408
-24.549
-30.253
-2.02108
-2.32397
-2.66851
-3.05763
-3.49865
-3.99966
-4.56966
-5.21943
-5.96204
-6.81344
-7.79339
-8.9265
-10.2437
-11.7837
-13.596
-15.7461
-18.3043
-21.2944
-24.9225
-30.6346
-2.18715
-2.49563
-2.84362
-3.23697
-3.68296
-4.1895
-4.76571
-5.42253
-6.17319
-7.03386
-8.02447
-9.16991
-10.5013
-12.0578
-13.8889
-16.06
-18.6409
-21.6538
-25.3008
-31.017
-2.35581
-2.66997
-3.02154
-3.41931
-3.87048
-4.38275
-4.96537
-5.62943
-6.38837
-7.25851
-8.26003
-9.41804
-10.764
-12.3371
-14.1872
-16.3796
-18.9834
-22.0193
-25.6863
-31.4117
-2.52671
-2.84661
-3.20189
-3.60427
-4.0608
-4.57899
-5.16819
-5.83968
-6.60706
-7.48685
-8.49946
-9.67022
-11.0308
-12.6208
-14.4901
-16.704
-19.3309
-22.3904
-26.0782
-31.8163
-2.69958
-3.02527
-3.38438
-3.79157
-4.25365
-4.77793
-5.37388
-6.05296
-6.82895
-7.71856
-8.74241
-9.9261
-11.3016
-12.9086
-14.7972
-17.0326
-19.6829
-22.7661
-26.4748
-32.2272
-2.87416
-3.20567
-3.56872
-3.9809
-4.44871
-4.97924
-5.5821
-6.26893
-7.05367
-7.95326
-8.98852
-10.1853
-11.5758
-13.2
-15.1081
-17.3653
-20.039
-23.1459
-26.8753
-32.6427
-3.05025
-3.38756
-3.75462
-4.17196
-4.64566
-5.18258
-5.79248
-6.48718
-7.28081
-8.19051
-9.23732
-10.4473
-11.853
-13.4945
-15.4223
-17.7013
-20.3985
-23.5293
-27.2792
-33.062
-3.22767
-3.57074
-3.94187
-4.3645
-4.84421
-5.38763
-6.00465
-6.70733
-7.50995
-8.42985
-9.4883
-10.7117
-12.1326
-13.7916
-15.7391
-18.04
-20.7607
-23.9155
-27.6854
-33.4838
-3.40636
-3.75506
-4.13027
-4.55828
-5.04409
-5.59406
-6.21828
-6.92899
-7.74065
-8.67082
-9.74099
-10.9778
-12.4141
-14.0906
-16.0578
-18.3807
-21.1249
-24.3035
-28.0933
-33.9073
-3.58632
-3.94044
-4.31966
-4.7531
-5.24502
-5.80157
-6.43299
-7.15174
-7.97247
-8.91292
-9.99484
-11.2451
-12.6968
-14.3908
-16.3779
-18.7226
-21.4903
-24.6926
-28.5017
-34.3314
-3.76761
-4.12685
-4.50991
-4.94873
-5.44672
-6.00978
-6.64837
-7.37512
-8.20489
-9.15562
-10.2493
-11.513
-12.9801
-14.6917
-16.6985
-19.065
-21.8561
-25.082
-28.91
-34.755
-3.95038
-4.31426
-4.70086
-5.1449
-5.64883
-6.21828
-6.86392
-7.59861
-8.43736
-9.39834
-10.5037
-11.7808
-13.2633
-14.9925
-17.019
-19.4072
-22.2214
-25.4708
-29.3171
-35.1772
-4.13481
-4.50257
-4.89224
-5.34123
-5.85086
-6.42652
-7.07909
-7.8216
-8.66928
-9.64044
-10.7575
-12.048
-13.5458
-15.2924
-17.3386
-19.7483
-22.5855
-25.8581
-29.7223
-35.5973
-4.32093
-4.6915
-5.08354
-5.53708
-6.05215
-6.63381
-7.29316
-8.04341
-8.89993
-9.88121
-11.0099
-12.3137
-13.8268
-15.5907
-17.6564
-20.0875
-22.9474
-26.2431
-30.1248
-36.0145
-4.50842
-4.88023
-5.27376
-5.73143
-6.25169
-6.83923
-7.50528
-8.26322
-9.12855
-10.1199
-11.2602
-12.5773
-14.1055
-15.8867
-17.9716
-20.4239
-23.3062
-26.6247
-30.5239
-36.4282
-4.69603
-5.06688
-5.46105
-5.92268
-6.44816
-7.04162
-7.71445
-8.48015
-9.35432
-10.3558
-11.5076
-12.8379
-14.3812
-16.1794
-18.2835
-20.7565
-23.661
-27.0021
-30.9193
-36.8383
-4.88033
-5.24749
-5.64228
-6.10866
-6.64
-7.2398
-7.91969
-8.69335
-9.57648
-10.5881
-11.7514
-13.0948
-14.653
-16.4681
-18.591
-21.0845
-24.0105
-27.3737
-31.3104
-37.2451
-5.05241
-5.41443
-5.8129
-6.28691
-6.82563
-7.4326
-8.12011
-8.90206
-9.79432
-10.8161
-11.9908
-13.3472
-14.9201
-16.7518
-18.8931
-21.4067
-24.3537
-27.7383
-31.6963
-37.65
-5.19162
-5.55271
-5.96973
-6.45788
-7.00552
-7.62025
-8.31577
-9.1062
-10.0076
-11.0395
-12.2256
-13.5947
-15.1821
-17.03
-19.1893
-21.7224
-24.6896
-28.0941
-32.0732
-38.0553
0.292551
0.0789396
-0.213798
-0.549073
-0.92596
-1.35302
-1.83875
-2.39196
-3.02315
-3.74524
-4.57418
-5.52996
-6.63797
-7.9308
-9.45175
-11.2618
-13.4343
-16.0133
-19.222
-24.6519
0.230827
0.0125176
-0.284418
-0.617636
-0.992265
-1.41854
-1.90432
-2.45809
-3.0904
-3.81424
-4.6457
-5.60489
-6.71743
-8.01617
-9.54468
-11.3641
-13.5479
-16.1391
-19.361
-24.787
0.180082
-0.0495697
-0.349897
-0.684287
-1.06016
-1.4879
-1.97521
-2.53068
-3.16504
-3.89147
-4.7262
-5.68955
-6.80736
-8.11276
-9.64959
-11.4792
-13.6743
-16.2772
-19.5119
-24.9284
0.121169
-0.112857
-0.415439
-0.752451
-1.13102
-1.56132
-2.05113
-2.60921
-3.24646
-3.97623
-4.81494
-5.78313
-6.90687
-8.21959
-9.7654
-11.6058
-13.8134
-16.429
-19.6783
-25.0946
0.055925
-0.180445
-0.485311
-0.825134
-1.20662
-1.63985
-2.13268
-2.69397
-3.33474
-4.06848
-4.9118
-5.88546
-7.01579
-8.33647
-9.89196
-11.744
-13.965
-16.5947
-19.8604
-25.2831
-0.0141399
-0.253466
-0.560761
-0.903364
-1.28784
-1.72423
-2.22042
-2.78535
-3.43013
-4.16838
-5.01688
-5.99661
-7.13416
-8.46351
-10.0294
-11.8939
-14.1292
-16.7742
-20.0572
-25.4894
-0.0904449
-0.332956
-0.642514
-0.987802
-1.37532
-1.81502
-2.31482
-2.88371
-3.53288
-4.27609
-5.13027
-6.11664
-7.26203
-8.60072
-10.1778
-12.0555
-14.3061
-16.9673
-20.2682
-25.7117
-0.174102
-0.419632
-0.731232
-1.07908
-1.46962
-1.91269
-2.41625
-2.98933
-3.64321
-4.39175
-5.25207
-6.24559
-7.39939
-8.74805
-10.3369
-12.2287
-14.4953
-17.1737
-20.4932
-25.9495
-0.265312
-0.513783
-0.827289
-1.1776
-1.57112
-2.01759
-2.525
-3.10245
-3.76128
-4.51549
-5.38235
-6.38347
-7.54621
-8.90545
-10.5069
-12.4134
-14.6968
-17.3934
-20.7321
-26.2022
-0.363973
-0.615449
-0.930803
-1.28352
-1.68001
-2.12991
-2.64125
-3.22321
-3.88722
-4.64739
-5.52113
-6.53029
-7.70248
-9.07287
-10.6875
-12.6094
-14.9105
-17.626
-20.9846
-26.4692
-0.469934
-0.724545
-1.04173
-1.39684
-1.79631
-2.24969
-2.76506
-3.35168
-4.02107
-4.78745
-5.66842
-6.68602
-7.86813
-9.25021
-10.8786
-12.8166
-15.1361
-17.8712
-21.2503
-26.7501
-0.582973
-0.84088
-1.15992
-1.51745
-1.91995
-2.37689
-2.89639
-3.4878
-4.16277
-4.93562
-5.82413
-6.85055
-8.04303
-9.43732
-11.08
-13.0348
-15.3733
-18.1288
-21.5288
-27.0442
-0.702785
-0.964178
-1.28514
-1.64514
-2.05077
-2.51135
-3.0351
-3.63147
-4.31221
-5.0918
-5.98815
-7.02376
-8.22703
-9.63402
-11.2916
-13.2638
-15.6219
-18.3985
-21.8199
-27.3513
-0.829006
-1.0941
-1.41708
-1.77966
-2.18851
-2.65287
-3.18101
-3.78251
-4.46923
-5.25579
-6.16029
-7.20545
-8.41993
-9.84009
-11.5132
-13.5032
-15.8817
-18.6799
-22.1231
-27.6709
-0.961244
-1.23027
-1.55538
-1.92067
-2.33289
-2.80117
-3.33387
-3.94067
-4.63359
-5.42737
-6.34032
-7.39537
-8.62146
-10.0553
-11.7443
-13.7529
-16.1522
-18.9727
-22.4382
-28.0027
-1.09909
-1.37229
-1.69968
-2.06782
-2.48357
-2.95594
-3.49336
-4.10567
-4.805
-5.60627
-6.52796
-7.59324
-8.83134
-10.2792
-11.9847
-14.0123
-16.4331
-19.2765
-22.7649
-28.3464
-1.24214
-1.51974
-1.84957
-2.22072
-2.64018
-3.11682
-3.65916
-4.27718
-4.98315
-5.79215
-6.72288
-7.79873
-9.04921
-10.5116
-12.234
-14.2812
-16.7239
-19.5909
-23.1028
-28.7019
-1.38997
-1.67221
-2.00465
-2.379
-2.80236
-3.28346
-3.83092
-4.45486
-5.1677
-5.98469
-6.92474
-8.01147
-9.27469
-10.752
-12.4918
-14.559
-17.0242
-19.9152
-23.4515
-29.0694
-1.54216
-1.82927
-2.16448
-2.54222
-2.96968
-3.45544
-4.00823
-4.6383
-5.35824
-6.18348
-7.13312
-8.23104
-9.50733
-10.9999
-12.7574
-14.845
-17.3334
-20.2489
-23.8104
-29.45
-1.69835
-1.99053
-2.3287
-2.71003
-3.1418
-3.63244
-4.19076
-4.82719
-5.55447
-6.3882
-7.34771
-8.45712
-9.74679
-11.2549
-13.0305
-15.139
-17.6507
-20.5913
-24.1773
-29.845
0.399859
0.472342
0.510383
0.537364
0.554876
0.563371
0.561234
0.548169
0.52227
0.499999
0.466876
0.425903
0.37823
0.324378
0.26469
0.199467
0.129002
0.0535866
-0.0264907
-0.110992
0.136579
0.196246
0.236663
0.265558
0.283925
0.293172
0.29271
0.28258
0.264407
0.236184
0.201814
0.160667
0.112809
0.0585988
-0.00163272
-0.0675723
-0.138917
-0.21536
-0.296595
-0.382382
-0.147435
-0.0927105
-0.0526362
-0.0237227
-0.00552011
0.00295913
0.00161133
-0.00918821
-0.028266
-0.0560245
-0.0912434
-0.133515
-0.182601
-0.238185
-0.299951
-0.367584
-0.440775
-0.519211
-0.602576
-0.690635
-0.483439
-0.429953
-0.389429
-0.359963
-0.341173
-0.332421
-0.333606
-0.344306
-0.363702
-0.391216
-0.426657
-0.469567
-0.519553
-0.576263
-0.639368
-0.708544
-0.783472
-0.863826
-0.94928
-1.0396
-0.864272
-0.812271
-0.771623
-0.74176
-0.722466
-0.71332
-0.714139
-0.724522
-0.743869
-0.771636
-0.807529
-0.851136
-0.902073
-0.959979
-1.02451
-1.09534
-1.17213
-1.25453
-1.34223
-1.43498
-1.29361
-1.24291
-1.20254
-1.1726
-1.15309
-1.14376
-1.14444
-1.15475
-1.17421
-1.20239
-1.23899
-1.2835
-1.33558
-1.39489
-1.46107
-1.53377
-1.61266
-1.69737
-1.78757
-1.88304
-1.78027
-1.7303
-1.69019
-1.66027
-1.64067
-1.63129
-1.63195
-1.64237
-1.66214
-1.69088
-1.72831
-1.77382
-1.82723
-1.88813
-1.95615
-2.03095
-2.11217
-2.19944
-2.29241
-2.39088
-2.33366
-2.28388
-2.24381
-2.21382
-2.19412
-2.18469
-2.18539
-2.19599
-2.21617
-2.24553
-2.28367
-2.33052
-2.38541
-2.44806
-2.51811
-2.59521
-2.67899
-2.76907
-2.86509
-2.96686
-2.9644
-2.91432
-2.87397
-2.8437
-2.82377
-2.8142
-2.81491
-2.82569
-2.84629
-2.87635
-2.91551
-2.96361
-3.02004
-3.08456
-3.15681
-3.23641
-3.32298
-3.41612
-3.51546
-3.62086
-3.68538
-3.63441
-3.59335
-3.56248
-3.54208
-3.53219
-3.53276
-3.54364
-3.5646
-3.59534
-3.6355
-3.68472
-3.74299
-3.80951
-3.8841
-3.96638
-4.05595
-4.1524
-4.25534
-4.36466
-4.51247
-4.45994
-4.41757
-4.38563
-4.36436
-4.35383
-4.35402
-4.3648
-4.38598
-4.41728
-4.45839
-4.50893
-4.56867
-4.63738
-4.71442
-4.79952
-4.89228
-4.99223
-5.09902
-5.21256
-5.4655
-5.41057
-5.36616
-5.33248
-5.30977
-5.29812
-5.29752
-5.30786
-5.32896
-5.36059
-5.40246
-5.4542
-5.51546
-5.58618
-5.66574
-5.75371
-5.84975
-5.95338
-6.0642
-6.1822
-6.56969
-6.51128
-6.46385
-6.42754
-6.40261
-6.38914
-6.38713
-6.39648
-6.41705
-6.44861
-6.4909
-6.54358
-6.60622
-6.67851
-6.76071
-6.85154
-6.95085
-7.05819
-7.17313
-7.29571
-7.85735
-7.79415
-7.74243
-7.70232
-7.67409
-7.65781
-7.65351
-7.6611
-7.68044
-7.71131
-7.75346
-7.80659
-7.87032
-7.94412
-8.0277
-8.12181
-8.22433
-8.33525
-8.45417
-8.58125
-9.37146
-9.30175
-9.24408
-9.19861
-9.16563
-9.14524
-9.13744
-9.14217
-9.15927
-9.18853
-9.22971
-9.28251
-9.3466
-9.42151
-9.5066
-9.60162
-9.70757
-9.82211
-9.94465
-10.076
-11.1726
-11.0941
-11.0283
-10.9754
-10.9359
-10.9097
-10.8969
-10.8973
-10.9109
-10.9373
-10.9763
-11.0277
-11.0912
-11.1662
-11.2523
-11.3487
-11.4551
-11.5721
-11.699
-11.8348
-13.3332
-13.2432
-13.1668
-13.1045
-13.0566
-13.0228
-13.0032
-12.9976
-13.006
-13.0281
-13.0637
-13.1125
-13.1742
-13.2484
-13.3346
-13.4324
-13.5413
-13.6611
-13.7907
-13.9291
-15.8959
-15.7923
-15.7036
-15.6301
-15.5718
-15.528
-15.4992
-15.4854
-15.4865
-15.5023
-15.5324
-15.5766
-15.6344
-15.7056
-15.7896
-15.8859
-15.9937
-16.1122
-16.2409
-16.3801
-19.0918
-18.9706
-18.8631
-18.7718
-18.6976
-18.6411
-18.6015
-18.5782
-18.5709
-18.5791
-18.6027
-18.6412
-18.6943
-18.7618
-18.843
-18.9375
-19.045
-19.1655
-19.2985
-19.4408
-24.4787
-24.3292
-24.2047
-24.1016
-24.0174
-23.9514
-23.9029
-23.8715
-23.8567
-23.8583
-23.8759
-23.9091
-23.9579
-24.0218
-24.1006
-24.194
-24.3023
-24.4278
-24.5715
-24.7218
-0.199697
-0.292122
-0.388113
-0.487389
-0.589688
-0.694725
-0.802208
-0.911827
-1.02326
-1.13615
-1.25012
-1.36475
-1.47947
-1.59353
-1.70586
-1.81488
-1.91752
-2.00682
-2.06596
-2.09912
-0.472525
-0.566474
-0.664069
-0.765003
-0.868998
-0.975757
-1.08497
-1.19632
-1.30947
-1.42403
-1.53962
-1.65576
-1.77188
-1.88719
-2.00053
-2.11065
-2.21626
-2.31126
-2.3793
-2.44221
-0.78321
-0.87971
-0.979978
-1.08369
-1.19055
-1.30026
-1.41249
-1.52692
-1.64317
-1.76088
-1.87962
-1.9989
-2.11816
-2.23662
-2.35326
-2.46709
-2.57737
-2.68034
-2.76778
-2.8571
-1.13463
-1.23371
-1.33671
-1.44327
-1.55309
-1.66585
-1.78122
-1.89885
-2.01837
-2.13938
-2.26145
-2.38408
-2.5067
-2.62859
-2.74887
-2.86673
-2.98148
-3.09074
-3.19219
-3.29908
-1.53263
-1.63449
-1.74041
-1.85001
-1.963
-2.07904
-2.19777
-2.31884
-2.44186
-2.56643
-2.69211
-2.81839
-2.94472
-3.07043
-3.19479
-3.31717
-3.43693
-3.55262
-3.66461
-3.7824
-1.98361
-2.08855
-2.1977
-2.31069
-2.42719
-2.54685
-2.66931
-2.79421
-2.92115
-3.04971
-3.17944
-3.30987
-3.44044
-3.57057
-3.69965
-3.82719
-3.9527
-4.07545
-4.19663
-4.32244
-2.49469
-2.60304
-2.71577
-2.8325
-2.95289
-3.07658
-3.2032
-3.33238
-3.4637
-3.59674
-3.73107
-3.86621
-4.00164
-4.13685
-4.27133
-4.4047
-4.53662
-4.66685
-4.79663
-4.92978
-3.07424
-3.18634
-3.30302
-3.42388
-3.54858
-3.67674
-3.80798
-3.94192
-4.07814
-4.21623
-4.35575
-4.49623
-4.6372
-4.7782
-4.91881
-5.05874
-5.19773
-5.33579
-5.47398
-5.61461
-3.73214
-3.84836
-3.96938
-4.0948
-4.22425
-4.35736
-4.49373
-4.63298
-4.77468
-4.91843
-5.06379
-5.21032
-5.35757
-5.50514
-5.65266
-5.79989
-5.94665
-6.09302
-6.23977
-6.38838
-4.4802
-4.60091
-4.72668
-4.85709
-4.99177
-5.13033
-5.27238
-5.41751
-5.56532
-5.7154
-5.8673
-6.02063
-6.17495
-6.32989
-6.48514
-6.64047
-6.79574
-6.951
-7.10678
-7.26408
-5.33269
-5.45825
-5.58917
-5.725
-5.86537
-6.0099
-6.15817
-6.30979
-6.46435
-6.62143
-6.78062
-6.94151
-7.10371
-7.26686
-7.43068
-7.59494
-7.7595
-7.92434
-8.08979
-8.25663
-6.3072
-6.43792
-6.57433
-6.71597
-6.86247
-7.01344
-7.16846
-7.32714
-7.48907
-7.65383
-7.82101
-7.99023
-8.1611
-8.33329
-8.5065
-8.68052
-8.85519
-9.03037
-9.20626
-9.38357
-7.42577
-7.56186
-7.70401
-7.85175
-8.00472
-8.16252
-8.32474
-8.49098
-8.66082
-8.83386
-9.0097
-9.18794
-9.36822
-9.5502
-9.7336
-9.91819
-10.1038
-10.2901
-10.4772
-10.6659
-8.71637
-8.85786
-9.00584
-9.15983
-9.31947
-9.48435
-9.65407
-9.82823
-10.0064
-10.1882
-10.3732
-10.561
-10.7513
-10.9438
-11.138
-11.3339
-11.5311
-11.7292
-11.9284
-12.1293
-10.2161
-10.3628
-10.5165
-10.6767
-10.843
-11.015
-11.1923
-11.3745
-11.5612
-11.7519
-11.9464
-12.1442
-12.3449
-12.5482
-12.7539
-12.9615
-13.1709
-13.3815
-13.5933
-13.807
-11.9794
-12.1309
-12.29
-12.4558
-12.6282
-12.8068
-12.9913
-13.1813
-13.3763
-13.5759
-13.7798
-13.9875
-14.1987
-14.413
-14.6302
-14.8499
-15.0717
-15.2952
-15.5199
-15.7466
-14.0766
-14.2315
-14.3942
-14.5638
-14.7406
-14.9245
-15.1152
-15.3121
-15.5147
-15.7226
-15.9353
-16.1524
-16.3735
-16.5984
-16.8267
-17.0581
-17.2924
-17.5287
-17.7663
-18.0056
-16.5287
-16.6849
-16.8496
-17.0237
-17.2062
-17.3962
-17.5931
-17.7967
-18.0063
-18.2217
-18.4424
-18.6681
-18.8985
-19.1332
-19.3719
-19.6142
-19.86
-20.1088
-20.3595
-20.6111
-19.587
-19.741
-19.9043
-20.0776
-20.2606
-20.4523
-20.6521
-20.8592
-21.0731
-21.2935
-21.5197
-21.7515
-21.9886
-22.2307
-22.4775
-22.7285
-22.9841
-23.245
-23.5113
-23.7773
-24.8512
-24.9953
-25.1547
-25.327
-25.5101
-25.7028
-25.9041
-26.1132
-26.3296
-26.5527
-26.7822
-27.0179
-27.2594
-27.5069
-27.7603
-28.0195
-28.2858
-28.5637
-28.8554
-29.1418
-29.3767
-24.0342
-20.863
-18.2471
-15.9756
-14.0228
-12.3321
-10.8563
-9.56256
-8.42517
-7.42326
-6.53933
-5.75852
-5.06802
-4.45676
-3.91493
-3.43271
-3.00088
-2.62182
-2.31023
-29.6216
-24.29
-21.1144
-18.4881
-16.2043
-14.2385
-12.5349
-11.0469
-9.74168
-8.59395
-7.58282
-6.69084
-5.90319
-5.20714
-4.59175
-4.04732
-3.56463
-3.13771
-2.77296
-2.46714
-29.878
-24.5478
-21.3669
-18.7301
-16.434
-14.455
-12.7384
-11.2379
-9.92118
-8.76303
-7.74264
-6.84255
-6.04795
-5.34609
-4.726
-4.17794
-3.69287
-3.26511
-2.89863
-2.58233
-30.1424
-24.8094
-21.6213
-18.9735
-16.6645
-14.6721
-12.9422
-11.4291
-10.1007
-8.93204
-7.9022
-6.99376
-6.19183
-5.48359
-4.85792
-4.30494
-3.81554
-3.38364
-3.01102
-2.68387
-30.4124
-25.0744
-21.8779
-19.2183
-16.8961
-14.8899
-13.1464
-11.6205
-10.2803
-9.10078
-8.06128
-7.14423
-6.33464
-5.61954
-4.98766
-4.42895
-3.93417
-3.49685
-3.11729
-2.78119
-30.6864
-25.3426
-22.1365
-19.4646
-17.1286
-15.1082
-13.3508
-11.8118
-10.4596
-9.26916
-8.21979
-7.2939
-6.47637
-5.7541
-5.11566
-4.55085
-4.05035
-3.60743
-3.22133
-2.87789
-30.9638
-25.6135
-22.3972
-19.7123
-17.362
-15.327
-13.5555
-12.0032
-10.6387
-9.43715
-8.37776
-7.44286
-6.61723
-5.88764
-5.2425
-4.67152
-4.16533
-3.71702
-3.32494
-2.97535
-31.244
-25.8868
-22.6597
-19.9612
-17.5963
-15.5464
-13.7604
-12.1946
-10.8176
-9.60479
-8.53526
-7.59127
-6.75747
-6.02051
-5.36869
-4.79161
-4.27989
-3.82648
-3.42893
-3.07401
-31.5268
-26.1623
-22.9239
-20.2114
-17.8313
-15.7661
-13.9655
-12.3859
-10.9963
-9.77212
-8.69238
-7.73926
-6.8973
-6.15301
-5.49458
-4.91153
-4.39447
-3.93621
-3.53356
-3.17385
-31.8119
-26.4399
-23.1896
-20.4627
-18.067
-15.9863
-14.1706
-12.5771
-11.1749
-9.9392
-8.84922
-7.88697
-7.03688
-6.28533
-5.62039
-5.03151
-4.50927
-4.04635
-3.63884
-3.27473
-32.0992
-26.7193
-23.4568
-20.7149
-18.3034
-16.2067
-14.3759
-12.7683
-11.3532
-10.1061
-9.00584
-8.03449
-7.17632
-6.41759
-5.74625
-5.15165
-4.62436
-4.15689
-3.74469
-3.37643
-32.3888
-27.0004
-23.7253
-20.9681
-18.5402
-16.4274
-14.5812
-12.9594
-11.5314
-10.2727
-9.16226
-8.18186
-7.31569
-6.54986
-5.8722
-5.27199
-4.73973
-4.26778
-3.85099
-3.47875
-32.6805
-27.2832
-23.9949
-21.222
-18.7775
-16.6482
-14.7864
-13.1503
-11.7094
-10.4392
-9.31851
-8.32911
-7.45499
-6.68215
-5.99826
-5.39251
-4.85535
-4.37895
-3.95762
-3.58154
-32.9745
-27.5676
-24.2657
-21.4765
-19.0151
-16.869
-14.9915
-13.341
-11.8871
-10.6054
-9.47455
-8.47621
-7.59424
-6.81445
-6.12441
-5.51318
-4.97116
-4.49033
-4.06449
-3.68469
-33.2707
-27.8534
-24.5374
-21.7316
-19.2528
-17.0898
-15.1964
-13.5314
-12.0645
-10.7713
-9.63036
-8.62316
-7.7334
-6.94675
-6.25063
-5.63398
-5.08713
-4.60188
-4.17155
-3.78813
-33.569
-28.1404
-24.8098
-21.987
-19.4905
-17.3104
-15.401
-13.7214
-12.2416
-10.9369
-9.78591
-8.76992
-7.87245
-7.07902
-6.37689
-5.75487
-5.20323
-4.71356
-4.27876
-3.89183
-33.8704
-28.4286
-25.0827
-22.2425
-19.728
-17.5305
-15.605
-13.9109
-12.4181
-11.102
-9.94112
-8.91644
-8.01137
-7.21124
-6.50316
-5.87585
-5.31946
-4.82537
-4.38613
-3.99578
-34.1773
-28.7185
-25.3558
-22.4975
-19.9648
-17.7498
-15.8082
-14.0995
-12.5939
-11.2666
-10.0958
-9.06257
-8.15002
-7.34331
-6.62939
-5.99685
-5.43576
-4.93729
-4.49365
-4.10001
-34.4912
-29.0103
-25.6282
-22.7516
-20.2005
-17.968
-16.0103
-14.2872
-12.7689
-11.4304
-10.2499
-9.20824
-8.28832
-7.47514
-6.75549
-6.11783
-5.5521
-5.0493
-4.60131
-4.20453
-34.8001
-29.3002
-25.8991
-23.0047
-20.4357
-18.1858
-16.2121
-14.4746
-12.9435
-11.5939
-10.4038
-9.35374
-8.42654
-7.60697
-6.88166
-6.23893
-5.66862
-5.1615
-4.70924
-4.30946
-3.31772
-2.23309
-1.61934
-1.18706
-0.92146
-0.732291
-0.60689
-0.518777
-0.458316
-0.415725
-0.385465
-0.363061
-0.345372
-0.329853
-0.314268
-0.296523
-0.274949
-0.248635
-0.218197
-0.185246
-0.152283
-0.121486
-0.0944518
-0.0719057
-0.0538594
-0.0398518
-0.0292162
-0.0212575
-0.0153588
-0.0110154
-0.00783528
-0.00551817
-0.00384206
-0.00263277
-0.00177401
-0.0011521
-0.000734032
-0.000394365
-0.00022953
4.12543e-05
-3.42656
-2.30165
-1.67703
-1.22786
-0.952158
-0.754395
-0.622673
-0.529578
-0.46525
-0.419599
-0.386908
-0.362563
-0.343333