/*--------------------------------*- C++ -*----------------------------------*\
  =========                 |
  \\      /  F ield         | OpenFOAM: The Open Source CFD Toolbox
   \\    /   O peration     | Website:  https://openfoam.org
    \\  /    A nd           | Version:  6.0
     \\/     M anipulation  |
\*---------------------------------------------------------------------------*/
FoamFile
{
    version     2.0;
    format      ascii;
    class       volVectorField;
    location    "10";
    object      U;
}
// * * * * * * * * * * * * * * * * * * * * * * * * * * * * * * * * * * * * * //

dimensions      [0 1 -1 0 0 0 0];

internalField   nonuniform List<vector> 
9600
(
(0.00963552 -0.468682 -2.34928e-22)
(0.00589798 -0.414429 -3.22023e-22)
(0.00181698 -0.367039 9.10832e-23)
(-0.00250715 -0.325819 -2.92673e-22)
(-0.00679016 -0.290057 1.58362e-22)
(-0.0107788 -0.259078 -1.71717e-22)
(-0.01434 -0.23226 -3.71682e-22)
(-0.0174115 -0.209041 3.90293e-22)
(-0.019975 -0.188925 1.90616e-22)
(-0.0220421 -0.171472 -2.58135e-21)
(-0.0236459 -0.156298 1.6035e-21)
(-0.0248327 -0.143072 -1.5166e-21)
(-0.0256572 -0.131506 -7.74029e-22)
(-0.0261784 -0.121357 1.20141e-21)
(-0.0264571 -0.112416 -8.01359e-22)
(-0.0265546 -0.104506 -4.74584e-22)
(-0.0265294 -0.0974824 1.09739e-21)
(-0.0264233 -0.0912226 -1.24837e-21)
(-0.02626 -0.085624 -3.69754e-22)
(-0.0261921 -0.0805991 -9.72e-22)
(0.028007 -0.466911 -2.89974e-21)
(0.0221163 -0.411569 -2.0641e-21)
(0.0162429 -0.363576 1.05111e-21)
(0.0104637 -0.322112 -1.724e-21)
(0.00502975 -0.286371 3.62294e-22)
(0.000158328 -0.255598 -5.82369e-22)
(-0.00405227 -0.229109 2.96283e-21)
(-0.00757192 -0.206297 6.92354e-23)
(-0.0104106 -0.186626 -2.27534e-21)
(-0.0126057 -0.169629 3.37239e-21)
(-0.0142125 -0.1549 1.97055e-21)
(-0.0152971 -0.142087 -1.13838e-22)
(-0.0159318 -0.130892 2.93576e-21)
(-0.0161914 -0.121059 -1.36866e-22)
(-0.0161507 -0.11237 1.39341e-21)
(-0.015884 -0.104646 4.13357e-21)
(-0.0154624 -0.0977375 -5.77774e-21)
(-0.0149345 -0.0915231 2.71221e-21)
(-0.0143235 -0.0858992 -1.49656e-21)
(-0.0138194 -0.0807846 3.60259e-21)
(0.0462162 -0.464481 4.65919e-21)
(0.038123 -0.408182 4.28449e-21)
(0.0304871 -0.359719 -6.81406e-21)
(0.0233265 -0.318144 -3.83936e-21)
(0.0168463 -0.282546 3.23869e-21)
(0.0112211 -0.252087 6.90306e-21)
(0.00650887 -0.226024 -9.17825e-21)
(0.00270325 -0.203703 2.79598e-21)
(-0.000237809 -0.184551 -5.21188e-21)
(-0.00237961 -0.168074 -4.2928e-21)
(-0.00380182 -0.153843 4.15611e-21)
(-0.00459206 -0.14149 -2.44483e-21)
(-0.0048415 -0.130703 -7.86897e-21)
(-0.00464174 -0.121213 4.62328e-21)
(-0.0040829 -0.112797 -1.58023e-21)
(-0.00325389 -0.105269 -2.09367e-22)
(-0.00223951 -0.0984773 1.87396e-21)
(-0.00109583 -0.0922987 4.69696e-21)
(0.00015643 -0.0866279 -6.8656e-21)
(0.00127809 -0.0813936 6.54394e-21)
(0.0642782 -0.461399 -2.6455e-21)
(0.0539377 -0.404319 1.4436e-21)
(0.0445671 -0.355544 2.16312e-21)
(0.036103 -0.314001 3.82847e-21)
(0.0286892 -0.278673 -1.05423e-21)
(0.0224479 -0.248641 1.71355e-21)
(0.0173897 -0.223102 -1.04575e-21)
(0.0134669 -0.201356 2.88087e-21)
(0.0106018 -0.182797 7.65138e-21)
(0.00869845 -0.166902 -4.64523e-21)
(0.00765099 -0.153223 -3.09003e-21)
(0.00734896 -0.141376 -4.08755e-21)
(0.00768114 -0.131033 -1.87993e-21)
(0.00853806 -0.121916 4.11585e-21)
(0.00981326 -0.113793 -2.75621e-21)
(0.011402 -0.106471 -1.08557e-20)
(0.0132041 -0.099794 8.8256e-21)
(0.0151555 -0.0936379 -1.28859e-20)
(0.01724 -0.087892 -1.03321e-21)
(0.0191568 -0.0824988 -9.5941e-22)
(0.0821818 -0.457673 -3.42361e-21)
(0.0695685 -0.400021 -7.82005e-21)
(0.058505 -0.351115 1.02597e-20)
(0.0488273 -0.309759 -2.94928e-21)
(0.0406038 -0.274836 -1.06944e-20)
(0.0338942 -0.245346 -2.08538e-22)
(0.0286544 -0.220429 -4.7271e-21)
(0.0247902 -0.199341 -1.49231e-21)
(0.0221846 -0.181446 -4.85723e-21)
(0.0207088 -0.166195 1.26465e-20)
(0.0202287 -0.153121 -1.85469e-20)
(0.0206099 -0.141823 5.05948e-21)
(0.0217202 -0.131961 -9.90473e-21)
(0.0234315 -0.123246 1.43683e-20)
(0.0256201 -0.115435 -1.45857e-20)
(0.0281643 -0.108328 8.31519e-21)
(0.0309468 -0.101766 -5.27545e-21)
(0.0338954 -0.0956162 -2.06017e-22)
(0.0369994 -0.089762 6.931e-21)
(0.039884 -0.0841633 -3.53658e-22)
(0.0999116 -0.45332 1.0699e-21)
(0.0850233 -0.395331 7.58836e-21)
(0.0723289 -0.34649 5.48719e-21)
(0.0615445 -0.305487 -4.22836e-21)
(0.0526496 -0.271107 1.15486e-20)
(0.0456315 -0.242276 1.76866e-21)
(0.0403843 -0.218077 -2.1936e-22)
(0.0367623 -0.197729 -7.75402e-21)
(0.0346056 -0.180565 1.2232e-21)
(0.0337501 -0.166015 1.19557e-20)
(0.034032 -0.153595 -6.62112e-21)
(0.0352922 -0.142889 1.29027e-20)
(0.0373767 -0.133544 -3.49518e-21)
(0.0401382 -0.125258 -3.63807e-21)
(0.0434353 -0.117781 8.21997e-21)
(0.0471281 -0.110901 1.01564e-20)
(0.0510811 -0.104451 -5.9469e-21)
(0.0552126 -0.0982929 1.31258e-20)
(0.059519 -0.0922939 -1.51465e-20)
(0.0635383 -0.0864377 2.44042e-20)
(0.117453 -0.448362 8.2573e-21)
(0.100314 -0.390287 -1.24042e-20)
(0.0860746 -0.341722 -1.26027e-20)
(0.0743108 -0.301245 1.50081e-20)
(0.0648998 -0.26755 -4.77711e-21)
(0.0577471 -0.239491 -9.01666e-21)
(0.0526781 -0.216103 9.52821e-21)
(0.0494903 -0.19657 6.38317e-22)
(0.0479781 -0.180199 4.12952e-21)
(0.0479395 -0.166402 -1.44379e-20)
(0.0491801 -0.15468 8.17446e-21)
(0.051515 -0.144604 -7.38317e-21)
(0.0547684 -0.135809 2.23105e-20)
(0.0587737 -0.127982 -1.28531e-20)
(0.0633711 -0.12086 1.07733e-21)
(0.0684022 -0.11422 -2.2678e-21)
(0.0737114 -0.107886 -2.64591e-21)
(0.0792073 -0.101705 1.29949e-20)
(0.0848937 -0.0955254 1.32203e-21)
(0.0902078 -0.0893572 -3.6453e-21)
(0.134793 -0.442818 -1.20666e-20)
(0.115459 -0.384928 8.57662e-21)
(0.0997866 -0.336858 1.93299e-21)
(0.0871936 -0.297084 -5.4721e-22)
(0.0774412 -0.264215 -1.62192e-22)
(0.0703436 -0.23704 6.72136e-21)
(0.0656508 -0.214548 -1.87904e-20)
(0.0630991 -0.195897 -2.62624e-21)
(0.0624333 -0.180372 -5.43953e-21)
(0.0634122 -0.167371 6.21452e-21)
(0.0658095 -0.156383 2.73231e-22)
(0.0694143 -0.146969 8.40691e-21)
(0.074029 -0.138754 6.76511e-24)
(0.0794677 -0.131413 -2.27959e-20)
(0.0855528 -0.124669 -6.51651e-21)
(0.0921068 -0.118287 2.35132e-20)
(0.098953 -0.112076 -9.30803e-21)
(0.105989 -0.105865 -2.6133e-21)
(0.113227 -0.0994709 6.14929e-21)
(0.119988 -0.0929374 2.76698e-21)
(0.15192 -0.436709 7.75991e-21)
(0.13048 -0.37929 -9.32189e-21)
(0.113518 -0.331941 -1.59115e-20)
(0.100272 -0.293049 -2.76592e-21)
(0.090374 -0.261143 -8.42186e-21)
(0.0835386 -0.234953 -2.51035e-21)
(0.0794338 -0.213435 -1.04822e-20)
(0.0777298 -0.19572 2.11988e-20)
(0.0781195 -0.181082 -9.65727e-21)
(0.0803203 -0.168908 -5.60113e-21)
(0.0840734 -0.158679 -3.38134e-21)
(0.0891416 -0.149951 8.28145e-21)
(0.0953062 -0.142338 -5.74388e-23)
(0.102363 -0.135507 -3.73762e-21)
(0.110116 -0.129165 -8.68422e-21)
(0.118371 -0.123063 -1.10227e-20)
(0.126928 -0.11699 1.59741e-20)
(0.135672 -0.110748 7.64076e-21)
(0.144625 -0.104116 -2.99051e-20)
(0.152977 -0.0971703 2.94366e-20)
(0.168828 -0.430054 -8.26742e-21)
(0.145407 -0.373405 2.30306e-20)
(0.127331 -0.327008 -1.94646e-20)
(0.113635 -0.289173 1.3038e-20)
(0.103811 -0.25836 1.88635e-20)
(0.0974635 -0.23325 -7.93432e-21)
(0.0941728 -0.212768 -5.09263e-22)
(0.0935392 -0.196031 2.20207e-21)
(0.0952006 -0.182303 1.02254e-20)
(0.0988314 -0.17097 -1.11309e-20)
(0.10414 -0.16151 -7.96022e-21)
(0.110862 -0.153476 8.03415e-21)
(0.118759 -0.146479 -8.67796e-22)
(0.12761 -0.140175 1.62606e-21)
(0.137204 -0.134258 2.08309e-20)
(0.147327 -0.12846 -1.0727e-20)
(0.157758 -0.122549 2.10755e-21)
(0.168371 -0.116291 -1.58031e-20)
(0.179192 -0.10941 4.44912e-20)
(0.18927 -0.102019 -3.30438e-20)
(0.185511 -0.422874 1.17143e-20)
(0.160277 -0.367301 3.09398e-21)
(0.141295 -0.322089 8.20021e-21)
(0.127383 -0.285482 -9.64952e-21)
(0.117876 -0.255882 1.75661e-21)
(0.112262 -0.231931 2.20988e-20)
(0.110027 -0.212532 -4.44769e-21)
(0.110697 -0.196794 2.03137e-20)
(0.113853 -0.183983 -1.46373e-20)
(0.119126 -0.173485 8.30478e-21)
(0.126188 -0.164783 2.27607e-20)
(0.134751 -0.157435 -6.88656e-21)
(0.144557 -0.151049 1.37825e-20)
(0.155368 -0.145278 -3.45539e-21)
(0.166961 -0.139805 -2.08372e-20)
(0.179106 -0.13434 3.0448e-20)
(0.191562 -0.128625 -8.8954e-21)
(0.20419 -0.122381 3.55651e-20)
(0.217024 -0.11526 6.2677e-21)
(0.228951 -0.107412 -6.01755e-20)
(0.201966 -0.415186 -3.72055e-20)
(0.175129 -0.361006 7.71952e-21)
(0.15549 -0.317207 -6.11473e-21)
(0.141625 -0.281991 -2.41539e-20)
(0.132703 -0.253712 -4.95408e-21)
(0.128087 -0.230983 -5.10544e-21)
(0.127164 -0.212695 -1.38759e-21)
(0.129383 -0.197958 -1.37849e-20)
(0.134265 -0.186044 -7.9157e-21)
(0.141393 -0.17635 -2.30542e-21)
(0.150407 -0.168371 -6.02055e-21)
(0.160992 -0.161673 1.11536e-20)
(0.172871 -0.155873 8.51285e-21)
(0.185794 -0.150625 -4.03191e-20)
(0.199528 -0.145602 1.81056e-20)
(0.21383 -0.140497 -2.10914e-20)
(0.228443 -0.135022 -1.43537e-20)
(0.243217 -0.128844 1.24696e-20)
(0.258193 -0.121521 7.43104e-21)
(0.272083 -0.113234 -1.86562e-20)
(0.218193 -0.407012 4.89039e-20)
(0.190011 -0.35454 2.92077e-20)
(0.170001 -0.312379 1.61842e-20)
(0.156477 -0.278704 1.71679e-20)
(0.148432 -0.25184 -8.52162e-21)
(0.145098 -0.230378 5.1224e-20)
(0.145759 -0.213209 -2.40394e-20)
(0.149783 -0.19945 5.12696e-20)
(0.156627 -0.188388 -2.1579e-20)
(0.165827 -0.179439 4.27252e-20)
(0.176988 -0.172114 2.27297e-20)
(0.189769 -0.166001 1.51422e-20)
(0.203874 -0.160732 -3.8449e-20)
(0.219044 -0.155968 3.55387e-20)
(0.235038 -0.151383 -9.69056e-21)
(0.251608 -0.146658 3.073e-20)
(0.268484 -0.141474 8.42269e-21)
(0.285512 -0.135434 4.27927e-20)
(0.302742 -0.127981 -9.19785e-21)
(0.318697 -0.119319 -1.16424e-21)
(0.234196 -0.398368 -2.56653e-20)
(0.204976 -0.347921 1.7018e-20)
(0.184918 -0.307613 4.59447e-21)
(0.17206 -0.275616 -2.95135e-20)
(0.165209 -0.250243 -3.53548e-21)
(0.163459 -0.230074 -1.70731e-21)
(0.165988 -0.214009 7.98888e-21)
(0.17208 -0.201183 -1.41267e-20)
(0.18113 -0.190901 5.08731e-21)
(0.192622 -0.182605 8.25867e-21)
(0.206124 -0.175834 -1.27882e-20)
(0.221267 -0.170201 -9.65645e-21)
(0.237738 -0.165364 5.71376e-21)
(0.255268 -0.161007 -1.23473e-20)
(0.273614 -0.156816 3.89756e-20)
(0.292529 -0.152469 -4.26551e-20)
(0.31174 -0.147626 -3.03461e-20)
(0.331099 -0.141818 4.45258e-20)
(0.350671 -0.134351 -1.76016e-20)
(0.368782 -0.125433 -3.06356e-20)
(0.249978 -0.389271 -1.37267e-20)
(0.220077 -0.34116 -1.86253e-20)
(0.200335 -0.302906 -4.9805e-21)
(0.188497 -0.27271 3.22779e-20)
(0.183175 -0.248884 -1.5034e-20)
(0.183327 -0.230015 2.63763e-21)
(0.18802 -0.21502 -4.8767e-20)
(0.196454 -0.203056 6.99576e-21)
(0.207956 -0.193457 -1.42687e-20)
(0.221961 -0.185693 1.2685e-20)
(0.237996 -0.179337 -3.08202e-20)
(0.255661 -0.174036 1.40707e-20)
(0.274625 -0.169486 -2.27777e-20)
(0.294609 -0.165405 1.50178e-20)
(0.315369 -0.16151 1.15359e-20)
(0.336666 -0.157499 -9.48379e-21)
(0.358239 -0.153024 -5.15297e-20)
(0.37996 -0.147553 2.9941e-20)
(0.401932 -0.140232 -1.37719e-20)
(0.422276 -0.131248 7.19551e-21)
(0.265549 -0.379735 5.23277e-20)
(0.235376 -0.334261 -1.24104e-20)
(0.216347 -0.298246 -2.06244e-20)
(0.205907 -0.269952 9.85837e-21)
(0.20247 -0.247713 1.5124e-20)
(0.204852 -0.230133 -2.2893e-20)
(0.212011 -0.216154 1.63641e-20)
(0.223062 -0.204964 -2.46317e-20)
(0.237267 -0.195928 3.46664e-20)
(0.254007 -0.188549 -3.89765e-20)
(0.272766 -0.182435 1.95426e-20)
(0.293112 -0.177275 -2.75117e-21)
(0.314689 -0.172808 -3.23825e-21)
(0.337203 -0.168804 -2.79162e-20)
(0.360412 -0.165031 4.51096e-20)
(0.384088 -0.161234 -1.15054e-21)
(0.407993 -0.157099 -4.20297e-21)
(0.432049 -0.152054 -4.83366e-22)
(0.456433 -0.145076 -1.70455e-21)
(0.479076 -0.136301 -2.19771e-20)
(0.280917 -0.369773 -4.3937e-20)
(0.250931 -0.327219 -7.25792e-21)
(0.23305 -0.293607 -1.00152e-20)
(0.224406 -0.267296 -7.09441e-20)
(0.223219 -0.246665 -4.25252e-20)
(0.228164 -0.230344 5.27221e-20)
(0.238092 -0.217314 -2.01617e-20)
(0.252037 -0.206797 1.10877e-20)
(0.269193 -0.19819 1.89656e-20)
(0.288889 -0.191032 5.47908e-21)
(0.310565 -0.184967 1.49697e-20)
(0.333753 -0.17972 -7.19472e-21)
(0.358065 -0.17508 2.45311e-20)
(0.383188 -0.170875 -2.00249e-20)
(0.40887 -0.166945 9.55212e-21)
(0.434895 -0.163123 -6.48017e-20)
(0.461056 -0.159181 4.38708e-20)
(0.487352 -0.154582 3.07804e-20)
(0.514109 -0.148165 -1.72574e-20)
(0.539117 -0.139976 -2.22483e-20)
(0.2961 -0.359392 2.01535e-20)
(0.266808 -0.320018 2.09529e-20)
(0.250531 -0.288947 1.86985e-20)
(0.244095 -0.264677 6.66034e-20)
(0.245526 -0.245655 -6.77142e-20)
(0.253366 -0.230553 1.91973e-20)
(0.266363 -0.218395 2.88543e-22)
(0.283468 -0.208442 -2.48144e-20)
(0.303815 -0.200131 2.656e-20)
(0.326682 -0.193029 -6.266e-21)
(0.351466 -0.186813 -9.16044e-21)
(0.377662 -0.181239 -5.60508e-21)
(0.404849 -0.176136 1.16145e-20)
(0.432681 -0.171385 4.56326e-22)
(0.460886 -0.166903 -2.29532e-20)
(0.48924 -0.16264 -2.9758e-20)
(0.517558 -0.158533 2.00889e-20)
(0.545936 -0.154208 1.47831e-20)
(0.574965 -0.148476 -3.14059e-20)
(0.602445 -0.141295 7.89089e-21)
(0.311138 -0.348603 -3.00772e-21)
(0.283077 -0.312626 -4.73799e-20)
(0.268871 -0.284201 -5.09262e-21)
(0.265056 -0.26201 -4.54036e-22)
(0.269472 -0.244582 1.15677e-20)
(0.280529 -0.230645 4.91256e-20)
(0.296876 -0.219277 -1.42766e-20)
(0.31739 -0.209785 -2.57972e-20)
(0.341147 -0.201645 2.22716e-21)
(0.367383 -0.194455 1.24082e-20)
(0.395458 -0.187915 -1.33333e-20)
(0.424835 -0.181801 -1.62763e-20)
(0.45506 -0.175957 -6.43561e-21)
(0.485754 -0.170287 1.24679e-20)
(0.5166 -0.164752 9.78609e-21)
(0.54733 -0.159393 5.04817e-20)
(0.577712 -0.154333 1.34393e-20)
(0.607871 -0.149452 -1.70451e-20)
(0.63878 -0.1437 1.90036e-20)
(0.668733 -0.137341 3.57301e-20)
(0.326101 -0.337375 1.51919e-20)
(0.299807 -0.304966 4.68499e-20)
(0.28813 -0.279275 6.55222e-21)
(0.287344 -0.259185 -6.32891e-21)
(0.295101 -0.243322 4.15456e-20)
(0.30968 -0.230488 -1.17911e-20)
(0.329634 -0.219824 -1.65392e-20)
(0.353771 -0.210698 4.59583e-20)
(0.381122 -0.202628 -3.06164e-20)
(0.410887 -0.195246 1.6067e-20)
(0.442406 -0.188272 -2.0985e-21)
(0.47513 -0.181491 -4.36889e-21)
(0.508598 -0.174738 -2.20101e-20)
(0.542423 -0.167892 5.87861e-20)
(0.576274 -0.160872 -7.28272e-20)
(0.609844 -0.153679 3.63862e-20)
(0.642823 -0.146411 -1.11629e-20)
(0.675172 -0.138984 -2.68003e-21)
(0.707823 -0.130652 3.79258e-20)
(0.739884 -0.123296 -7.2559e-20)
(0.561118 -0.00784086 4.46417e-21)
(0.554326 -0.0295688 -1.36937e-21)
(0.546726 -0.0507338 -7.38882e-21)
(0.538371 -0.0713488 1.974e-20)
(0.529301 -0.091404 -2.20463e-20)
(0.519575 -0.110887 -9.70947e-21)
(0.509252 -0.12979 7.41389e-21)
(0.498389 -0.148107 9.94669e-21)
(0.487039 -0.16584 -7.68976e-21)
(0.475252 -0.182991 7.05086e-21)
(0.463074 -0.19957 -8.39043e-22)
(0.450544 -0.215586 -2.0384e-22)
(0.437698 -0.231052 -4.51456e-21)
(0.424568 -0.245984 2.14783e-20)
(0.411179 -0.260397 -2.01937e-20)
(0.397555 -0.27431 1.37783e-20)
(0.383713 -0.287739 -1.78749e-20)
(0.369668 -0.300709 -1.51348e-20)
(0.355435 -0.313261 -2.51886e-21)
(0.340994 -0.325471 1.60812e-21)
(0.678367 0.000321083 -9.34436e-22)
(0.662736 -0.0253405 -5.72987e-21)
(0.645952 -0.0497925 1.15546e-20)
(0.628192 -0.0730173 1.83137e-20)
(0.609605 -0.0949981 -5.08704e-21)
(0.590346 -0.115727 -2.40409e-20)
(0.570567 -0.135208 4.13022e-20)
(0.550412 -0.153459 -8.89813e-21)
(0.530017 -0.170512 -4.62679e-20)
(0.509509 -0.186407 2.11958e-20)
(0.489002 -0.201199 6.3198e-21)
(0.468598 -0.214948 3.85985e-20)
(0.448386 -0.227726 -7.22199e-20)
(0.428443 -0.239608 2.39641e-21)
(0.408831 -0.250675 1.73751e-20)
(0.3896 -0.261012 2.6269e-20)
(0.370788 -0.270708 4.41078e-20)
(0.35242 -0.279854 -1.65918e-20)
(0.334502 -0.288553 -3.24521e-20)
(0.316998 -0.296908 3.32347e-20)
(0.789438 0.0188628 3.84772e-21)
(0.767646 -0.0102924 -4.42734e-21)
(0.744289 -0.0378608 3.41742e-21)
(0.719616 -0.0637738 -8.80624e-21)
(0.693859 -0.0879844 1.12213e-20)
(0.667248 -0.110467 2.6648e-20)
(0.64001 -0.131217 -2.91195e-20)
(0.612362 -0.150253 4.28566e-21)
(0.584514 -0.167611 1.84492e-20)
(0.55666 -0.183347 3.74078e-20)
(0.52898 -0.197536 -8.92315e-21)
(0.501638 -0.210267 6.03248e-20)
(0.474778 -0.221644 2.45453e-21)
(0.448526 -0.231783 -6.14532e-20)
(0.422988 -0.240809 -7.55608e-21)
(0.398253 -0.248856 -1.56556e-20)
(0.374386 -0.256064 -3.11813e-20)
(0.351434 -0.262575 -1.52413e-20)
(0.329418 -0.268533 -2.38711e-20)
(0.308326 -0.274067 2.8015e-20)
(0.892735 0.0420859 -7.97617e-22)
(0.866869 0.00996683 2.30286e-21)
(0.839001 -0.0203681 -3.0631e-21)
(0.80942 -0.0488028 -1.72314e-20)
(0.778408 -0.0752525 -6.9725e-21)
(0.746252 -0.0996613 -9.49596e-21)
(0.713234 -0.122002 3.37475e-20)
(0.679633 -0.142275 -1.08425e-21)
(0.645718 -0.160508 -3.03959e-20)
(0.611744 -0.176754 1.383e-21)
(0.577951 -0.191088 -1.77821e-20)
(0.54456 -0.203611 3.79892e-21)
(0.511771 -0.214443 -8.40568e-20)
(0.479762 -0.223722 4.10208e-20)
(0.448688 -0.231603 -2.4532e-20)
(0.418678 -0.238253 -7.96827e-21)
(0.389836 -0.243848 -8.85648e-20)
(0.362243 -0.248568 8.1217e-20)
(0.335949 -0.252593 -3.80451e-20)
(0.310981 -0.256085 -2.2786e-20)
(0.987214 0.0672878 4.10499e-22)
(0.95897 0.032786 -5.6944e-21)
(0.928288 0.000130396 8.20768e-21)
(0.895472 -0.0305217 1.03865e-20)
(0.860832 -0.0590458 -1.23343e-20)
(0.824688 -0.0853505 3.85288e-20)
(0.787365 -0.109377 -1.12921e-20)
(0.749185 -0.131098 -4.18785e-22)
(0.710464 -0.15052 -1.66527e-20)
(0.671509 -0.167679 3.65139e-20)
(0.632612 -0.18264 2.53227e-20)
(0.594046 -0.1955 1.33082e-20)
(0.556065 -0.20638 7.5e-21)
(0.518897 -0.215428 -2.71887e-20)
(0.482746 -0.222814 1.67993e-20)
(0.447786 -0.228725 6.05396e-20)
(0.414166 -0.233366 6.00173e-20)
(0.382008 -0.236944 -4.24711e-20)
(0.351405 -0.239669 1.46965e-20)
(0.322422 -0.241738 -5.18236e-21)
(1.07231 0.0929579 1.12807e-21)
(1.04307 0.0566693 -1.46314e-21)
(1.01098 0.0221838 -8.12291e-21)
(0.976338 -0.0103049 3.83511e-21)
(0.939462 -0.0406348 -1.83445e-22)
(0.900691 -0.0686771 3.54641e-21)
(0.86037 -0.0943374 -1.92806e-20)
(0.818851 -0.117556 1.41136e-20)
(0.776484 -0.138309 -2.77107e-20)
(0.733617 -0.156606 3.00858e-20)
(0.690583 -0.172493 -4.55664e-21)
(0.647703 -0.18605 1.29703e-20)
(0.605275 -0.19739 -4.17199e-20)
(0.563577 -0.206657 -1.58891e-20)
(0.522858 -0.214027 4.26955e-20)
(0.483342 -0.219699 -3.06123e-20)
(0.445224 -0.223892 -4.31062e-20)
(0.408671 -0.226839 2.24707e-20)
(0.373825 -0.228776 -1.42893e-20)
(0.3408 -0.229925 3.99003e-20)
(1.14783 0.117923 -8.76921e-22)
(1.11871 0.0804245 4.05702e-21)
(1.08636 0.0446086 2.3815e-21)
(1.05106 0.0106994 -2.605e-21)
(1.01313 -0.0211071 1.29223e-20)
(0.972905 -0.0506468 -3.51747e-20)
(0.930735 -0.0777891 1.99816e-20)
(0.886987 -0.102439 -1.51477e-20)
(0.842033 -0.124537 1.427e-21)
(0.796246 -0.144063 -2.22553e-20)
(0.749993 -0.161034 3.40052e-20)
(0.70363 -0.175505 7.95173e-20)
(0.657497 -0.187572 -7.79327e-20)
(0.611912 -0.197367 -5.52903e-20)
(0.567169 -0.20506 -3.15352e-20)
(0.523537 -0.210854 2.17497e-20)
(0.481256 -0.21498 -2.412e-20)
(0.440544 -0.217688 1.29836e-21)
(0.401594 -0.219237 5.11816e-20)
(0.364578 -0.219876 5.55914e-22)
(1.21391 0.141354 -4.77501e-22)
(1.18577 0.10318 3.00181e-21)
(1.15407 0.0665147 8.87135e-22)
(1.11908 0.031606 -1.61529e-20)
(1.08108 -0.00132154 1.84016e-20)
(1.0404 -0.0320722 -1.60413e-20)
(0.997377 -0.0604812 4.42858e-20)
(0.952383 -0.0864179 -5.28024e-21)
(0.905797 -0.109788 -2.28806e-20)
(0.858005 -0.130534 3.84833e-21)
(0.809394 -0.148641 -5.79787e-21)
(0.760348 -0.164135 -2.26666e-20)
(0.711236 -0.177083 -4.84052e-20)
(0.662412 -0.187601 -2.0745e-20)
(0.614206 -0.195844 4.58802e-20)
(0.566928 -0.202012 -3.2488e-20)
(0.520861 -0.206343 -1.94278e-20)
(0.47627 -0.209103 -2.83145e-20)
(0.433406 -0.210573 4.21804e-21)
(0.392504 -0.211026 3.25621e-21)
(1.27091 0.162725 4.00349e-22)
(1.24439 0.124352 3.38773e-22)
(1.21406 0.0872806 -5.5079e-22)
(1.18014 0.0517757 -4.73651e-21)
(1.14288 0.0180838 -1.05436e-20)
(1.10258 -0.0135726 -7.53633e-21)
(1.05956 -0.0429988 -3.29155e-20)
(1.01418 -0.0700305 3.00921e-20)
(0.966817 -0.0945378 -1.74893e-20)
(0.917852 -0.116428 3.80042e-20)
(0.867685 -0.135648 -6.75976e-21)
(0.816713 -0.15219 6.1125e-20)
(0.765327 -0.16609 3.95743e-20)
(0.713906 -0.177437 7.8017e-20)
(0.662808 -0.186367 -5.42066e-20)
(0.612374 -0.193072 4.60948e-20)
(0.562925 -0.197791 -9.83137e-21)
(0.51477 -0.200807 3.06408e-20)
(0.468215 -0.202426 3.22094e-20)
(0.423567 -0.20295 -4.48373e-20)
(1.31935 0.181738 -3.08937e-21)
(1.29493 0.143576 -1.83816e-22)
(1.2665 0.106492 1.11138e-20)
(1.23423 0.070761 -9.92852e-21)
(1.19835 0.0366447 6.28259e-21)
(1.15912 0.00438604 2.40355e-20)
(1.11683 -0.0257949 -8.20295e-21)
(1.07181 -0.0537043 -7.32728e-21)
(1.02441 -0.0791789 -9.96753e-21)
(0.975024 -0.10209 1.72395e-20)
(0.924036 -0.122348 -2.28029e-20)
(0.87185 -0.139905 4.05447e-20)
(0.818866 -0.154765 -3.98791e-20)
(0.765477 -0.16698 1.15796e-20)
(0.71206 -0.176664 1.73602e-20)
(0.658976 -0.183993 1.30744e-20)
(0.60657 -0.189208 -2.41266e-20)
(0.555187 -0.192609 -3.66958e-20)
(0.505183 -0.194534 1.3125e-20)
(0.456948 -0.195324 3.82947e-21)
(1.35989 0.198265 3.35561e-21)
(1.33787 0.160655 8.95642e-21)
(1.3117 0.123896 -2.01745e-20)
(1.28153 0.088266 -1.57296e-20)
(1.24753 0.0540362 -8.24289e-21)
(1.20991 0.021463 -2.20541e-20)
(1.16893 -0.0092137 1.56145e-20)
(1.12489 -0.0377754 1.89235e-20)
(1.07812 -0.064029 -4.20044e-20)
(1.02897 -0.0878118 2.10379e-20)
(0.977832 -0.108997 1.99196e-20)
(0.925092 -0.127498 4.65725e-20)
(0.871153 -0.143277 -3.29657e-20)
(0.816409 -0.156351 4.62204e-20)
(0.761242 -0.166801 -4.23765e-20)
(0.706021 -0.174783 -5.63567e-21)
(0.6511 -0.180536 -1.09e-20)
(0.596842 -0.184381 4.80695e-20)
(0.543645 -0.186702 1.29217e-20)
(0.491984 -0.187899 -1.40679e-20)
(1.39323 0.212305 -3.03409e-21)
(1.37378 0.175518 1.91007e-21)
(1.35012 0.139363 1.33889e-20)
(1.32234 0.104115 1.39992e-21)
(1.29058 0.0700463 1.91139e-20)
(1.25499 0.037421 1.57605e-20)
(1.2158 0.00649276 -1.36315e-20)
(1.17326 -0.0225004 -1.94735e-20)
(1.12766 -0.0493401 1.50574e-20)
(1.07933 -0.0738327 1.30552e-20)
(1.02863 -0.0958152 -1.12789e-20)
(0.975945 -0.115162 3.18257e-20)
(0.921653 -0.131793 -7.31925e-20)
(0.866144 -0.14568 1.70531e-20)
(0.809792 -0.156868 1.88898e-20)
(0.752955 -0.165484 -3.3368e-20)
(0.695978 -0.17176 -6.615e-20)
(0.639214 -0.176044 2.19202e-20)
(0.583083 -0.178785 -1.81864e-20)
(0.528141 -0.180478 -1.62392e-20)
(1.4201 0.223946 -1.40559e-21)
(1.40328 0.188192 1.30924e-21)
(1.38225 0.152864 -6.58168e-21)
(1.35705 0.118229 -3.77346e-21)
(1.32777 0.0845545 -1.40464e-21)
(1.29453 0.0521081 -1.49877e-20)
(1.25748 0.0211501 4.05813e-20)
(1.21684 -0.00806764 7.83386e-22)
(1.17288 -0.0353064 -2.54105e-22)
(1.12586 -0.0603456 -3.43989e-20)
(1.07614 -0.0829892 3.43678e-20)
(1.02405 -0.103072 -1.8473e-20)
(0.969964 -0.120469 3.43941e-20)
(0.914253 -0.135104 -5.19173e-20)
(0.857271 -0.146974 -1.68719e-21)
(0.799348 -0.15617 -3.16672e-20)
(0.740792 -0.162907 5.84425e-20)
(0.681915 -0.167562 -1.37434e-20)
(0.623111 -0.170675 -7.22777e-21)
(0.565002 -0.172898 -3.38395e-20)
(1.44122 0.233338 4.25445e-21)
(1.42701 0.198768 -2.84029e-22)
(1.40864 0.164436 8.64683e-21)
(1.38612 0.130598 -8.83707e-21)
(1.35946 0.0975118 1.04646e-20)
(1.32876 0.0654411 -6.60389e-21)
(1.29412 0.0346481 -2.31271e-20)
(1.25571 0.00539276 8.79473e-21)
(1.21374 -0.0220714 8.96141e-21)
(1.16845 -0.0475016 -1.24115e-20)
(1.12015 -0.0706719 1.35371e-21)
(1.06915 -0.0913794 -1.80322e-21)
(1.01579 -0.109452 -3.61982e-20)
(0.960409 -0.124761 3.94957e-20)
(0.903342 -0.137246 2.00986e-20)
(0.844874 -0.146946 7.33711e-20)
(0.785247 -0.154045 -1.04139e-19)
(0.72468 -0.158944 2.69555e-20)
(0.663473 -0.162298 6.31199e-20)
(0.60226 -0.165012 4.99973e-20)
(1.45728 0.240671 -3.31376e-21)
(1.4456 0.207385 2.51646e-21)
(1.42985 0.174172 -3.092e-21)
(1.41 0.141269 -2.00774e-20)
(1.38604 0.108925 2.01261e-20)
(1.35799 0.0773918 6.95511e-21)
(1.32594 0.0469293 1.83057e-21)
(1.28998 0.0177995 1.92533e-20)
(1.25029 -0.00973477 -4.44187e-20)
(1.20706 -0.0354139 3.45992e-20)
(1.16057 -0.0589866 -3.74061e-21)
(1.11108 -0.0802142 5.6268e-20)
(1.0589 -0.0988775 -7.09798e-20)
(1.00436 -0.114792 7.60533e-23)
(0.947743 -0.127828 -3.75527e-20)
(0.889283 -0.137952 5.17963e-21)
(0.829132 -0.145293 6.34558e-20)
(0.767358 -0.150254 -5.21666e-20)
(0.70405 -0.15362 -1.42869e-20)
(0.639724 -0.156688 -8.61106e-20)
(1.46894 0.246154 9.60164e-22)
(1.45964 0.214211 1.11054e-22)
(1.44641 0.182197 -7.54426e-21)
(1.42919 0.150331 3.06077e-21)
(1.40791 0.118845 6.95535e-21)
(1.38257 0.0879789 9.96002e-21)
(1.35319 0.057983 -3.90319e-21)
(1.31984 0.0291169 9.67757e-21)
(1.28263 0.00164682 -1.7597e-20)
(1.24173 -0.0241567 -2.38344e-20)
(1.19735 -0.0480219 -8.75466e-21)
(1.14974 -0.0696782 -4.40185e-21)
(1.09917 -0.088862 -9.18836e-21)
(1.04592 -0.105328 -6.24866e-21)
(0.990271 -0.118869 1.44e-20)
(0.932388 -0.129355 -1.88226e-21)
(0.872317 -0.136821 -5.64641e-20)
(0.809915 -0.141626 -1.0757e-20)
(0.744888 -0.144665 5.65195e-20)
(0.677349 -0.147802 2.80286e-20)
(1.47677 0.250001 1.37834e-22)
(1.46969 0.219427 2.13639e-21)
(1.45885 0.188661 -1.3059e-22)
(1.44414 0.157901 7.80326e-21)
(1.42549 0.127359 -1.54909e-20)
(1.40284 0.097259 -1.66953e-20)
(1.37616 0.0678399 2.2852e-20)
(1.3455 0.0393525 -1.52348e-20)
(1.31092 0.0120608 -1.26231e-21)
(1.27254 -0.0137597 1.69623e-20)
(1.23053 -0.0378227 2.90287e-24)
(1.1851 -0.0598316 3.05627e-20)
(1.13649 -0.0794821 -1.37532e-20)
(1.08498 -0.0964693 -1.72222e-20)
(1.03078 -0.1105 -4.44393e-20)
(0.974058 -0.121327 -4.75228e-21)
(0.914744 -0.128838 -4.13735e-20)
(0.852449 -0.133262 2.43697e-20)
(0.786264 -0.135516 3.82004e-20)
(0.715331 -0.138216 -2.16198e-20)
(1.48131 0.252425 -2.03895e-21)
(1.47626 0.223213 4.40947e-21)
(1.46763 0.193707 7.5522e-21)
(1.45531 0.164086 -8.30108e-21)
(1.43917 0.13454 1.29511e-20)
(1.41914 0.105275 -4.49793e-21)
(1.39516 0.0765126 -5.54568e-21)
(1.36722 0.0484909 -4.09765e-21)
(1.33534 0.0214666 -4.36636e-22)
(1.29961 -0.00428578 -3.38818e-20)
(1.26015 -0.0284727 3.19719e-21)
(1.21714 -0.050778 1.7066e-20)
(1.17081 -0.0708643 3.64459e-20)
(1.12139 -0.0883724 6.28424e-20)
(1.06912 -0.102924 -7.96315e-21)
(1.01413 -0.114136 7.12187e-20)
(0.956331 -0.121697 -3.01514e-20)
(0.895105 -0.125573 4.11954e-20)
(0.828723 -0.126435 2.40749e-20)
(0.754401 -0.127684 -1.2551e-20)
(1.48299 0.253637 8.66292e-22)
(1.47978 0.225733 -2.29892e-21)
(1.47319 0.197453 -1.67879e-20)
(1.46308 0.168953 -1.40012e-20)
(1.44932 0.140402 1.69715e-20)
(1.43179 0.111983 2.55415e-20)
(1.41043 0.0838992 1.84805e-21)
(1.38517 0.0563717 -1.48323e-20)
(1.356 0.0296443 -2.06314e-20)
(1.32297 0.00398402 9.30061e-21)
(1.28617 -0.020314 -2.33321e-21)
(1.24574 -0.0429228 -6.19678e-20)
(1.20188 -0.0634811 -6.13617e-20)
(1.15484 -0.0815852 2.31891e-20)
(1.10485 -0.0967812 2.7812e-20)
(1.0521 -0.10856 -2.3146e-21)
(0.996548 -0.116384 -2.18194e-20)
(0.937583 -0.119818 -1.7427e-20)
(0.872729 -0.11876 -2.07023e-20)
(0.79627 -0.116564 3.54132e-20)
(1.4822 0.253847 -2.85419e-21)
(1.48061 0.227244 4.99906e-21)
(1.47586 0.200192 3.05322e-21)
(1.46779 0.172823 5.06055e-21)
(1.45626 0.145281 -1.9541e-20)
(1.44112 0.117727 -2.40157e-20)
(1.42228 0.0903407 -5.46945e-21)
(1.39963 0.0633214 2.98297e-20)
(1.37315 0.0368947 -1.70079e-20)
(1.34284 0.0113142 7.02043e-21)
(1.30874 -0.0131318 -2.74904e-20)
(1.27098 -0.0361154 5.29577e-20)
(1.22972 -0.0572631 -5.15663e-20)
(1.18521 -0.0761442 -1.2719e-20)
(1.13772 -0.0922559 -1.57635e-20)
(1.08753 -0.105004 -1.92414e-21)
(1.03478 -0.113701 -2.60179e-20)
(0.97925 -0.117577 3.27066e-20)
(0.918496 -0.115546 1.81064e-20)
(0.843814 -0.109135 -9.24791e-20)
(0.445432 0.42836 1.72341e-20)
(0.4629 0.411552 -2.66299e-20)
(0.479319 0.39383 1.19011e-20)
(0.494658 0.375196 -1.72338e-20)
(0.508841 0.355678 3.33399e-21)
(0.52181 0.335341 -2.15965e-20)
(0.53352 0.314268 -5.39223e-21)
(0.543934 0.292547 -2.46516e-20)
(0.553023 0.270268 -1.88699e-21)
(0.560768 0.247527 9.79053e-21)
(0.567161 0.224417 1.28338e-20)
(0.572201 0.201033 -2.15078e-20)
(0.575898 0.177469 1.10491e-20)
(0.578271 0.153816 3.30518e-20)
(0.579349 0.130162 -5.64683e-21)
(0.579166 0.10659 -1.98466e-20)
(0.577767 0.0831785 2.69832e-20)
(0.575204 0.0599965 -1.66221e-20)
(0.571551 0.0371002 -2.54176e-21)
(0.566885 0.0145086 -1.80782e-21)
(0.579988 0.551044 1.26411e-20)
(0.604428 0.532177 -3.5606e-20)
(0.627205 0.511497 -1.62339e-20)
(0.648226 0.489108 1.49633e-20)
(0.667362 0.465116 -1.01671e-20)
(0.684494 0.439657 1.9549e-20)
(0.699519 0.412887 3.89221e-21)
(0.712354 0.384975 -3.24551e-20)
(0.722933 0.356099 1.09005e-20)
(0.73121 0.326443 9.49434e-21)
(0.737162 0.296196 3.27071e-20)
(0.740786 0.265548 -2.72353e-20)
(0.742101 0.234688 -1.51207e-20)
(0.741149 0.203801 3.31104e-20)
(0.737991 0.173067 -1.93058e-20)
(0.732707 0.142655 4.01136e-21)
(0.725397 0.112725 -1.29616e-20)
(0.71618 0.0834211 -4.79796e-22)
(0.705195 0.0548641 -6.45809e-21)
(0.692578 0.0271401 1.62772e-21)
(0.687001 0.641162 3.68127e-21)
(0.716835 0.622204 -6.39556e-22)
(0.744709 0.600756 4.03146e-20)
(0.770451 0.576976 -1.19164e-20)
(0.79388 0.551023 1.56571e-20)
(0.814826 0.523075 -9.55599e-21)
(0.833139 0.493332 -9.65991e-21)
(0.848691 0.462006 -4.74426e-20)
(0.861376 0.429325 5.30247e-20)
(0.871115 0.395527 -3.41338e-20)
(0.877856 0.360856 -1.59598e-20)
(0.881577 0.325562 -2.6904e-20)
(0.882285 0.289895 1.45391e-20)
(0.880015 0.254103 -1.6107e-20)
(0.874832 0.21843 1.19417e-20)
(0.866831 0.183109 -2.6546e-20)
(0.856129 0.148362 2.76045e-20)
(0.842872 0.114392 1.14943e-20)
(0.827229 0.081383 -2.16689e-21)
(0.809376 0.0494902 2.45232e-21)
(0.771796 0.704254 -2.02285e-21)
(0.805748 0.686355 -1.62107e-21)
(0.837646 0.665504 1.03811e-20)
(0.867256 0.641873 -2.06825e-20)
(0.894349 0.615638 4.15046e-20)
(0.918713 0.586998 1.53625e-20)
(0.940155 0.55617 2.68318e-21)
(0.958505 0.523389 -3.571e-21)
(0.97362 0.488903 4.45102e-20)
(0.985383 0.452977 1.97655e-20)
(0.993708 0.415884 4.00839e-20)
(0.998543 0.377907 -9.6186e-21)
(0.999869 0.339333 -4.01199e-21)
(0.997699 0.300448 -1.33932e-20)
(0.992083 0.261536 8.99972e-21)
(0.983104 0.222876 1.36038e-20)
(0.970876 0.184733 -2.30107e-20)
(0.955545 0.14736 9.01692e-21)
(0.937286 0.110989 5.40775e-22)
(0.916295 0.0758315 1.43451e-21)
(0.838539 0.745314 1.94073e-20)