/*--------------------------------*- C++ -*----------------------------------*\
  =========                 |
  \\      /  F ield         | OpenFOAM: The Open Source CFD Toolbox
   \\    /   O peration     | Website:  https://openfoam.org
    \\  /    A nd           | Version:  6.0
     \\/     M anipulation  |
\*---------------------------------------------------------------------------*/
FoamFile
{
    version     2.0;
    format      ascii;
    class       volVectorField;
    location    "7.2485";
    object      U;
}
// * * * * * * * * * * * * * * * * * * * * * * * * * * * * * * * * * * * * * //

dimensions      [0 1 -1 0 0 0 0];

internalField   nonuniform List<vector> 
19200
(
(0.0985985 -4.74949 -7.07909e-21)
(0.0609521 -4.34516 3.59359e-21)
(0.066952 -4.01478 1.68269e-21)
(0.0817742 -3.74526 1.49928e-21)
(0.0992417 -3.52512 1.69258e-21)
(0.120825 -3.34467 1.188e-22)
(0.145937 -3.196 2.43848e-21)
(0.173658 -3.07272 -1.72447e-22)
(0.203291 -2.96965 2.17931e-21)
(0.23425 -2.88262 9.24555e-22)
(0.266016 -2.8083 1.04658e-24)
(0.298151 -2.74401 1.49111e-21)
(0.330285 -2.68762 2.4936e-21)
(0.362113 -2.63742 -1.71121e-21)
(0.393388 -2.59206 2.23e-21)
(0.423908 -2.55045 1.95977e-21)
(0.453519 -2.51173 -1.85121e-21)
(0.482102 -2.47523 3.215e-21)
(0.50957 -2.44042 -2.05731e-21)
(0.535865 -2.40685 1.04641e-21)
(0.560948 -2.37421 1.4894e-21)
(0.584804 -2.34221 -4.82778e-22)
(0.607431 -2.31064 6.56294e-22)
(0.628839 -2.2793 -7.76658e-22)
(0.649051 -2.24801 1.60146e-24)
(0.66809 -2.21663 4.25054e-22)
(0.685987 -2.18502 -2.74291e-22)
(0.702772 -2.15305 1.73543e-22)
(0.718486 -2.12056 4.01936e-22)
(0.733139 -2.08738 1.69549e-21)
(0.223196 -4.74699 -1.65651e-21)
(0.1756 -4.34891 1.11863e-20)
(0.173594 -4.02371 -5.92571e-21)
(0.182108 -3.7589 -8.16469e-21)
(0.194634 -3.54306 -3.71716e-21)
(0.212331 -3.3664 -2.70549e-21)
(0.234366 -3.22098 -5.8986e-21)
(0.259621 -3.10042 7.37387e-22)
(0.287247 -2.99956 -1.26795e-21)
(0.316534 -2.91428 -4.50789e-21)
(0.346871 -2.84127 -1.1511e-20)
(0.377745 -2.77791 5.69505e-21)
(0.408731 -2.72209 -2.12495e-21)
(0.439481 -2.67216 8.10687e-22)
(0.469715 -2.6268 -5.1102e-21)
(0.499209 -2.58495 -1.91869e-21)
(0.527792 -2.5458 2.1562e-22)
(0.555332 -2.5087 6.66285e-21)
(0.581737 -2.47314 -3.49818e-21)
(0.606943 -2.43873 -1.96402e-21)
(0.630912 -2.40514 -7.84758e-21)
(0.653627 -2.37213 2.03254e-21)
(0.675087 -2.33949 -1.31045e-21)
(0.695306 -2.30705 2.33351e-21)
(0.714307 -2.27465 -1.08237e-21)
(0.732119 -2.24213 -1.7032e-21)
(0.748772 -2.20938 5.58616e-22)
(0.764302 -2.17625 8.69073e-22)
(0.778774 -2.1426 -1.56119e-21)
(0.79216 -2.10822 8.38083e-22)
(0.347475 -4.74161 -8.18247e-22)
(0.290213 -4.35005 2.5372e-21)
(0.280593 -4.03028 3.70712e-21)
(0.283129 -3.77042 2.89144e-20)
(0.290977 -3.55906 -1.69071e-20)
(0.305002 -3.3863 1.56035e-20)
(0.32413 -3.2442 9.67374e-21)
(0.347054 -3.12639 7.63554e-21)
(0.372774 -3.02775 -7.47328e-21)
(0.400462 -2.94419 -9.1465e-22)
(0.429416 -2.87247 1.92812e-20)
(0.459053 -2.80998 3.30581e-21)
(0.488893 -2.7547 -9.06059e-21)
(0.51855 -2.70498 7.23061e-21)
(0.547712 -2.65956 -9.25167e-23)
(0.576138 -2.61742 3.16916e-21)
(0.603638 -2.57779 2.37148e-21)
(0.630076 -2.54004 7.9742e-21)
(0.65535 -2.5037 -3.54217e-21)
(0.679396 -2.46839 -1.17303e-21)
(0.702176 -2.43383 -3.19072e-21)
(0.723673 -2.39978 1.41919e-20)
(0.74389 -2.36606 -1.19217e-20)
(0.762843 -2.33252 3.94643e-21)
(0.780559 -2.299 1.85977e-21)
(0.79707 -2.26536 -7.45214e-21)
(0.812408 -2.23148 1.0064e-20)
(0.826615 -2.19724 -1.11026e-21)
(0.839777 -2.16245 -1.15944e-21)
(0.851826 -2.12692 -8.42018e-21)
(0.471592 -4.73323 -2.67112e-20)
(0.404944 -4.34858 -2.46266e-20)
(0.388007 -4.03452 -3.05321e-20)
(0.384846 -3.77981 1.04163e-21)
(0.388262 -3.57308 1.8061e-21)
(0.398821 -3.40432 -3.54862e-20)
(0.415209 -3.26559 1.55416e-21)
(0.435934 -3.15054 4.65487e-21)
(0.459845 -3.05412 -7.80505e-22)
(0.486001 -2.97227 8.3256e-21)
(0.513612 -2.90178 -3.35281e-20)
(0.542028 -2.84013 -2.14225e-20)
(0.570719 -2.78532 7.94218e-21)
(0.599261 -2.73576 1.63015e-20)
(0.627316 -2.69023 -1.91048e-20)
(0.654625 -2.64775 -3.08455e-21)
(0.680986 -2.60758 -1.15896e-20)
(0.706255 -2.56914 -5.60382e-21)
(0.730328 -2.53197 9.44821e-21)
(0.75314 -2.49574 -1.22689e-20)
(0.774653 -2.46018 1.07399e-20)
(0.794855 -2.42508 -1.28387e-20)
(0.813752 -2.39028 -1.03106e-20)
(0.831362 -2.35564 -7.41506e-21)
(0.847719 -2.321 -2.18962e-21)
(0.862856 -2.28626 -1.56205e-20)
(0.876809 -2.25129 1.60858e-21)
(0.889628 -2.21595 2.86938e-21)
(0.901418 -2.18007 -8.41427e-21)
(0.912064 -2.14345 1.77404e-21)
(0.595513 -4.72178 -1.62173e-20)
(0.519798 -4.34446 2.32653e-21)
(0.495836 -4.03641 2.13622e-20)
(0.487251 -3.78705 2.28234e-20)
(0.486474 -3.58508 1.64775e-20)
(0.493768 -3.42039 6.82297e-21)
(0.50758 -3.28507 1.07538e-20)
(0.52623 -3.17281 5.05227e-20)
(0.548425 -3.07858 -3.04938e-20)
(0.573111 -2.9984 8.11221e-22)
(0.599413 -2.92911 7.46474e-21)
(0.626618 -2.86824 3.32299e-20)
(0.65415 -2.81384 -2.29917e-20)
(0.681549 -2.76439 1.67994e-20)
(0.708457 -2.71869 -1.90529e-20)
(0.734595 -2.67582 3.28441e-20)
(0.759754 -2.63507 -9.85691e-21)
(0.783785 -2.59589 3.23596e-22)
(0.806583 -2.55788 1.63737e-20)
(0.828083 -2.5207 1.15837e-20)
(0.848252 -2.48412 -1.191e-20)
(0.86708 -2.44796 1.63057e-20)
(0.884579 -2.41207 -7.59835e-21)
(0.900772 -2.37632 8.74368e-21)
(0.915695 -2.3406 1.17887e-20)
(0.929391 -2.30477 4.38318e-21)
(0.941891 -2.26874 1.34517e-20)
(0.95326 -2.23235 -4.67931e-21)
(0.963619 -2.19543 -1.61991e-21)
(0.972802 -2.15778 -8.18149e-21)
(0.719173 -4.70725 -1.19662e-20)
(0.634743 -4.33767 -8.09776e-21)
(0.604059 -4.0359 -2.46895e-20)
(0.590323 -3.79209 -6.47902e-20)
(0.585592 -3.59499 2.19464e-20)
(0.589819 -3.43446 1.42803e-21)
(0.601213 -3.30257 -1.53721e-20)
(0.617909 -3.19308 3.35261e-21)
(0.638473 -3.10103 -2.10077e-21)
(0.661744 -3.02247 -4.12835e-20)
(0.686766 -2.95434 1.75127e-20)
(0.712764 -2.8942 3.07203e-20)
(0.73912 -2.84016 1.44915e-22)
(0.765344 -2.79075 1.17591e-20)
(0.791056 -2.74483 2.94995e-20)
(0.815965 -2.70153 -2.04733e-20)
(0.839856 -2.66015 3.66068e-20)
(0.862576 -2.62021 -1.76142e-20)
(0.884021 -2.58131 3.19565e-20)
(0.90413 -2.54316 -2.40589e-20)
(0.922874 -2.50556 1.09323e-20)
(0.94025 -2.46833 2.91589e-20)
(0.956273 -2.43136 1.84683e-21)
(0.970976 -2.39452 -2.7311e-20)
(0.984397 -2.35773 1.55989e-20)
(0.996582 -2.32085 1.9017e-21)
(1.00757 -2.28379 -5.05412e-21)
(1.01743 -2.2464 1.96905e-20)
(1.0263 -2.2085 7.00085e-21)
(1.03397 -2.16989 -7.088e-21)
(0.842503 -4.68962 3.34816e-20)
(0.749731 -4.32819 -1.16348e-21)
(0.712644 -4.03296 -5.09561e-20)
(0.694034 -3.79487 1.02275e-20)
(0.685588 -3.60276 -1.47493e-20)
(0.686943 -3.44643 1.06895e-20)
(0.696073 -3.318 2.44787e-20)
(0.710931 -3.21127 4.52484e-20)
(0.729945 -3.12136 -4.96838e-20)
(0.751849 -3.0444 1.22613e-20)
(0.775611 -2.97736 -8.89875e-21)
(0.8004 -2.91789 6.66198e-21)
(0.825557 -2.86416 -2.93043e-20)
(0.850567 -2.81475 -1.85367e-21)
(0.87503 -2.76856 4.92384e-20)
(0.898648 -2.72476 -3.39848e-20)
(0.921199 -2.68273 -2.17727e-20)
(0.942532 -2.64199 -1.62204e-20)
(0.962545 -2.60219 2.99399e-20)
(0.981183 -2.56306 6.618e-21)
(0.998421 -2.52442 -3.00181e-20)
(1.01427 -2.48614 4.07902e-20)
(1.02874 -2.44809 -3.69447e-20)
(1.04187 -2.41019 2.4975e-20)
(1.05373 -2.37235 -1.41133e-20)
(1.06434 -2.33446 9.44987e-21)
(1.07375 -2.29641 7.18296e-21)
(1.08205 -2.25807 -3.18858e-20)
(1.08939 -2.21925 1.39145e-20)
(1.09549 -2.17975 3.17782e-22)
(0.96543 -4.66891 -3.33798e-20)
(0.864711 -4.31599 2.80508e-20)
(0.821549 -4.02756 -5.30627e-20)
(0.798349 -3.79535 1.02117e-19)
(0.786426 -3.60832 -2.89803e-20)
(0.785104 -3.45624 4.20704e-20)
(0.79212 -3.33126 1.30721e-22)
(0.80525 -3.22729 -5.65286e-21)
(0.822787 -3.13948 -9.00856e-21)
(0.843367 -3.06405 -2.16274e-22)
(0.865883 -2.99806 -3.57175e-20)
(0.889454 -2.93921 1.85194e-20)
(0.913384 -2.88573 -2.31021e-20)
(0.937133 -2.83626 -1.79141e-21)
(0.960291 -2.78976 -6.65559e-20)
(0.98255 -2.74544 2.17756e-20)
(1.00369 -2.70271 1.31258e-20)
(1.02356 -2.66115 -1.46693e-20)
(1.04206 -2.62043 -1.68987e-21)
(1.05914 -2.58031 -2.34846e-20)
(1.07479 -2.54065 -8.56133e-21)
(1.08902 -2.50131 8.79554e-22)
(1.10187 -2.46221 -2.12563e-20)
(1.11337 -2.42327 -3.1937e-20)
(1.12358 -2.38441 1.28712e-21)
(1.13256 -2.34555 -3.54744e-21)
(1.14035 -2.30658 1.04213e-20)
(1.14703 -2.26735 -2.60029e-20)
(1.15279 -2.22766 2.2342e-20)
(1.15729 -2.18735 -4.56237e-20)
(1.08788 -4.64512 -8.42632e-20)
(0.979628 -4.30105 1.05313e-19)
(0.930731 -4.01966 -1.13081e-19)
(0.903229 -3.79348 -3.06731e-20)
(0.888069 -3.61161 -2.03489e-20)
(0.88426 -3.4638 -2.2113e-20)
(0.889307 -3.34228 -2.04539e-20)
(0.900814 -3.24103 -4.32954e-21)
(0.916942 -3.15528 -2.10988e-20)
(0.936233 -3.08135 -5.22045e-21)
(0.957511 -3.01634 3.74581e-20)
(0.979847 -2.95805 -2.13449e-20)
(1.00252 -2.90477 -2.63375e-20)
(1.02495 -2.85519 -4.52017e-20)
(1.04674 -2.80833 9.58651e-20)
(1.06757 -2.76345 -3.75559e-20)
(1.08722 -2.72001 1.41367e-20)
(1.10554 -2.67761 -5.36182e-20)
(1.12245 -2.63595 2.04936e-20)
(1.13789 -2.59485 -8.79693e-21)
(1.15188 -2.55417 1.08221e-20)
(1.16442 -2.51379 -4.11918e-21)
(1.17557 -2.47366 3.5889e-20)
(1.18537 -2.43372 -1.29062e-20)
(1.19388 -2.39389 3.58093e-20)
(1.20116 -2.35411 -7.09874e-21)
(1.20727 -2.31426 4.74826e-20)
(1.2123 -2.2742 1.33538e-20)
(1.21645 -2.23373 2.54101e-20)
(1.2193 -2.19268 -8.23899e-20)
(1.20978 -4.61824 1.33611e-19)
(1.09442 -4.28336 -2.65538e-20)
(1.04014 -4.00922 4.81274e-20)
(1.00863 -3.78919 -1.42908e-20)
(0.990471 -3.61254 5.01095e-20)
(0.984364 -3.46904 4.84068e-20)
(0.987585 -3.35097 5.60104e-20)
(0.997566 -3.2524 -4.86359e-21)
(1.01235 -3.16867 -5.54423e-20)
(1.03038 -3.09617 8.20116e-20)
(1.05042 -3.0321 -6.84989e-21)
(1.0715 -2.97431 6.01706e-20)
(1.09286 -2.92117 2.21574e-20)
(1.11394 -2.87144 8.03315e-21)
(1.13429 -2.82419 1.37613e-20)
(1.15362 -2.77872 1.8541e-20)
(1.17169 -2.73454 3.16984e-20)
(1.18839 -2.69128 -9.31297e-21)
(1.20361 -2.6487 4.78593e-20)
(1.21734 -2.60662 2.25979e-20)
(1.22958 -2.56492 -4.75354e-20)
(1.24036 -2.52354 8.50928e-20)
(1.24973 -2.48242 -1.13746e-19)
(1.25776 -2.4415 1.09131e-19)
(1.26451 -2.40075 -3.64631e-20)
(1.27005 -2.3601 6.90031e-21)
(1.27444 -2.31944 -4.93352e-20)
(1.27777 -2.27863 2.76285e-20)
(1.28026 -2.23744 1.01775e-20)
(1.28145 -2.19575 -1.29501e-20)
(1.33105 -4.58829 -7.75267e-20)
(1.20903 -4.2629 7.89068e-20)
(1.14972 -3.9962 -2.17137e-20)
(1.1145 -3.78244 6.35389e-20)
(1.09358 -3.61107 6.07508e-21)
(1.08536 -3.47187 1.45758e-20)
(1.08689 -3.35723 -1.13601e-19)
(1.09544 -3.26131 -2.00885e-20)
(1.10893 -3.17955 7.56695e-20)
(1.12572 -3.10843 5.95141e-20)
(1.14452 -3.04523 -1.01916e-19)
(1.16431 -2.98789 6.05254e-20)
(1.18433 -2.93485 -6.12316e-20)
(1.20398 -2.88492 4.35227e-20)
(1.22283 -2.83724 -7.28107e-20)
(1.24057 -2.79116 -5.54761e-20)
(1.257 -2.74622 3.23161e-21)
(1.27198 -2.70211 -2.63975e-20)
(1.28544 -2.6586 4.7091e-20)
(1.29737 -2.61555 1.88184e-20)
(1.30778 -2.57287 -1.24821e-20)
(1.31672 -2.53051 -3.81997e-21)
(1.32425 -2.48843 1.53829e-20)
(1.33045 -2.4466 -5.11841e-20)
(1.33538 -2.40498 8.70333e-20)
(1.33913 -2.36351 -2.11113e-20)
(1.34175 -2.3221 -1.85546e-21)
(1.34335 -2.28061 7.8413e-20)
(1.34417 -2.2388 1.09088e-20)
(1.34366 -2.19655 -1.13968e-20)
(1.45162 -4.55529 2.14526e-21)
(1.3234 -4.23965 -4.36958e-20)
(1.25943 -3.98057 -4.15533e-20)
(1.22079 -3.77317 -6.84267e-20)
(1.19735 -3.60712 1.8529e-21)
(1.1872 -3.47223 -5.12593e-20)
(1.18717 -3.36099 6.11124e-20)
(1.19437 -3.26767 -5.39309e-21)
(1.20662 -3.18782 5.24944e-20)
(1.22218 -3.11801 -4.26952e-20)
(1.23973 -3.05563 -2.28612e-20)
(1.2582 -2.99869 1.26002e-20)
(1.27682 -2.9457 6.90457e-21)
(1.29498 -2.89554 -7.27367e-20)
(1.31225 -2.8474 4.35108e-20)
(1.32833 -2.80069 -2.24867e-20)
(1.34302 -2.75499 6.32763e-20)
(1.3562 -2.71002 -2.12782e-20)
(1.36782 -2.6656 2.26811e-20)
(1.37786 -2.62161 5.5369e-21)
(1.38637 -2.57797 3.9345e-20)
(1.3934 -2.53467 -8.04208e-21)
(1.39902 -2.49168 6.61804e-20)
(1.40332 -2.44898 -7.38284e-20)
(1.40639 -2.40655 -2.52385e-20)
(1.4083 -2.36433 2.10269e-20)
(1.40912 -2.32226 -1.67713e-21)
(1.40896 -2.28016 -3.75325e-20)
(1.40808 -2.23779 3.07891e-20)
(1.40586 -2.19508 -3.76013e-20)
(1.57141 -4.51923 1.33342e-19)
(1.43746 -4.21361 3.82692e-20)
(1.3692 -3.96229 4.5297e-20)
(1.32744 -3.76134 6.33424e-20)
(1.30172 -3.60063 9.56384e-20)
(1.28982 -3.47004 -2.37779e-21)
(1.28835 -3.36215 1.38398e-20)
(1.29429 -3.27138 1.13516e-19)
(1.30532 -3.19339 -2.31537e-20)
(1.31967 -3.12484 -4.28216e-20)
(1.33594 -3.06322 7.758e-20)
(1.35306 -3.00663 1.36826e-20)
(1.37022 -2.95364 9.83706e-22)
(1.38682 -2.90322 1.91325e-20)
(1.40244 -2.8546 3.5535e-20)
(1.41677 -2.80724 -7.43412e-20)
(1.42964 -2.76078 6.39383e-20)
(1.44094 -2.71497 1.12228e-20)
(1.45063 -2.66965 6.44792e-20)
(1.45871 -2.62473 -3.48238e-20)
(1.46525 -2.58019 5.91919e-20)
(1.47029 -2.53599 -6.32873e-20)
(1.47394 -2.49214 6.21812e-20)
(1.47629 -2.44863 8.96934e-21)
(1.47744 -2.40546 -4.22318e-20)
(1.47747 -2.36257 -1.41832e-20)
(1.47645 -2.31989 8.35347e-20)
(1.47451 -2.27727 6.13085e-20)
(1.47193 -2.23444 1.66039e-20)
(1.46799 -2.19137 -1.2001e-20)
(1.69035 -4.48013 1.425e-20)
(1.55115 -4.18475 3.37824e-20)
(1.47896 -3.94134 1.36706e-19)
(1.43439 -3.74689 -2.24781e-19)
(1.40662 -3.59154 -2.26719e-20)
(1.39314 -3.46521 -2.4376e-20)
(1.39036 -3.36065 1.12945e-20)
(1.3951 -3.27237 1.63108e-20)
(1.40497 -3.19617 2.65942e-20)
(1.4181 -3.12882 -7.13512e-20)
(1.43307 -3.0679 -1.46437e-20)
(1.44879 -3.01161 4.1886e-20)
(1.46443 -2.95859 4.62598e-20)
(1.4794 -2.90788 -4.57662e-20)
(1.49328 -2.85876 -4.64253e-20)
(1.50579 -2.81076 7.56463e-20)
(1.51675 -2.76354 5.07757e-20)
(1.52609 -2.71689 -1.24211e-20)
(1.53376 -2.6707 -3.28207e-20)
(1.53981 -2.6249 6.49371e-21)
(1.54428 -2.57948 -7.85151e-20)
(1.54728 -2.53444 9.60835e-20)
(1.5489 -2.48979 -6.61728e-20)
(1.54925 -2.44554 -2.94945e-21)
(1.54843 -2.40169 4.48942e-20)
(1.54655 -2.3582 -1.39646e-20)
(1.54367 -2.31501 -4.28719e-20)
(1.53993 -2.27195 5.32501e-20)
(1.53562 -2.22875 -1.38055e-21)
(1.52996 -2.18541 9.75073e-21)
(1.80836 -4.43802 -9.77093e-21)
(1.66439 -4.15307 -3.42929e-20)
(1.58867 -3.91767 -1.58833e-19)
(1.54158 -3.72977 5.76839e-20)
(1.51199 -3.57977 -1.79824e-20)
(1.4971 -3.45768 6.04529e-20)
(1.49312 -3.35638 4.79035e-21)
(1.49673 -3.27054 -7.15343e-20)
(1.50545 -3.19607 1.10774e-19)
(1.51737 -3.12986 -1.00908e-19)
(1.53101 -3.06959 -4.39552e-21)
(1.54527 -3.01355 2.56805e-20)
(1.55933 -2.96047 -4.4134e-20)
(1.5726 -2.90944 5.20184e-20)
(1.58466 -2.85982 -9.95485e-20)
(1.59526 -2.81117 -2.31933e-20)
(1.60423 -2.7632 6.18902e-20)
(1.61151 -2.71575 7.03432e-23)
(1.61709 -2.66872 -4.04739e-20)
(1.62102 -2.62208 1.1119e-19)
(1.62338 -2.57583 -5.99561e-20)
(1.62426 -2.53 -8.15187e-20)
(1.62379 -2.48461 2.73997e-20)
(1.62208 -2.43969 -8.10516e-20)
(1.61927 -2.39524 -1.99e-20)
(1.61543 -2.35124 -2.62242e-21)
(1.61067 -2.30762 -5.47628e-20)
(1.60512 -2.26422 6.56447e-20)
(1.59908 -2.22074 -3.69027e-20)
(1.59171 -2.17723 4.35513e-20)
(1.92537 -4.3929 -4.93292e-20)
(1.77712 -4.11856 -1.41352e-19)
(1.69825 -3.89126 6.96956e-20)
(1.64894 -3.70995 -6.80351e-20)
(1.61776 -3.56528 -5.0206e-20)
(1.60162 -3.44739 -2.97894e-20)
(1.59655 -3.34929 -1.114e-19)
(1.59909 -3.26582 7.67814e-20)
(1.60668 -3.193 -1.92787e-19)
(1.61737 -3.12788 -7.1899e-20)
(1.62965 -3.06821 2.55482e-20)
(1.6424 -3.01239 4.38671e-20)
(1.65481 -2.95921 -5.11216e-22)
(1.66629 -2.90785 -8.61659e-20)
(1.67646 -2.85772 2.04514e-20)
(1.68506 -2.80842 -8.11773e-20)
(1.69196 -2.75973 -5.91231e-20)
(1.6971 -2.7115 -3.62435e-20)
(1.70051 -2.66367 -7.52765e-21)
(1.70225 -2.61623 6.23362e-20)
(1.70241 -2.56921 9.02837e-20)
(1.70112 -2.52266 -2.74142e-20)
(1.6985 -2.4766 -2.70991e-20)
(1.6947 -2.43109 5.25107e-20)
(1.68984 -2.38612 2.9332e-20)
(1.68403 -2.34169 -2.34985e-20)
(1.67736 -2.29773 -2.66718e-20)
(1.66999 -2.25408 3.00373e-21)
(1.66224 -2.21041 2.80705e-20)
(1.65316 -2.16684 3.87857e-20)
(2.0413 -4.34479 -9.46314e-21)
(1.88928 -4.0812 1.81417e-19)
(1.80763 -3.86209 1.42263e-19)
(1.7564 -3.68736 1.11635e-19)
(1.72386 -3.548 -7.35103e-20)
(1.70663 -3.43425 -1.47757e-20)
(1.70055 -3.33929 1.30613e-20)
(1.70208 -3.25811 9.87483e-20)
(1.70856 -3.1869 3.75563e-20)
(1.71799 -3.12279 9.23902e-20)
(1.72886 -3.06368 -1.3126e-19)
(1.74005 -3.00803 1.31233e-20)
(1.75074 -2.95475 5.45951e-20)
(1.76036 -2.90304 3.44285e-20)
(1.76855 -2.8524 7.2642e-20)
(1.77506 -2.80248 -4.96324e-20)
(1.7798 -2.75309 -4.68099e-20)
(1.78273 -2.70411 8.65821e-21)
(1.7839 -2.65553 1.02574e-19)
(1.78337 -2.60735 -1.66539e-19)
(1.78128 -2.55962 5.83785e-20)
(1.77775 -2.5124 -4.13921e-22)
(1.77294 -2.46575 1.13221e-19)
(1.76699 -2.41972 -4.90017e-20)
(1.76005 -2.37433 -2.59072e-21)
(1.75224 -2.32955 -3.20621e-20)
(1.74365 -2.28535 3.06181e-20)
(1.73445 -2.24155 7.5454e-21)
(1.72499 -2.1978 -3.46844e-20)
(1.71422 -2.15428 1.18311e-19)
(2.15607 -4.29371 -1.84167e-19)
(2.00078 -4.041 -1.10882e-19)
(1.91675 -3.83011 -2.87263e-19)
(1.86389 -3.66197 -1.33045e-19)
(1.8302 -3.52787 1.25395e-19)
(1.81203 -3.4182 -7.52002e-20)
(1.80504 -3.32631 -1.93373e-20)
(1.8056 -3.24737 -5.1239e-20)
(1.81097 -3.17768 8.82702e-20)
(1.81913 -3.11454 -2.09107e-20)
(1.82855 -3.05594 -3.29015e-20)
(1.83811 -3.00044 -4.08421e-21)
(1.847 -2.94701 -1.3732e-19)
(1.85468 -2.89497 -6.37407e-21)
(1.8608 -2.84382 3.67123e-20)
(1.86515 -2.7933 -4.58479e-21)
(1.86765 -2.74324 -1.48048e-19)
(1.86829 -2.69356 1.4542e-19)
(1.86713 -2.64427 -1.44558e-19)
(1.86427 -2.59541 5.69518e-20)
(1.85986 -2.54703 8.1455e-21)
(1.85404 -2.49923 3.17487e-21)
(1.84698 -2.45206 -6.18855e-20)
(1.83885 -2.4056 2.12434e-20)
(1.8298 -2.35985 -6.28741e-24)
(1.81997 -2.31484 7.14717e-21)
(1.80945 -2.27049 -1.60303e-19)
(1.79842 -2.22665 4.33206e-20)
(1.78725 -2.18292 4.71092e-20)
(1.77482 -2.13956 5.34343e-20)
(2.26961 -4.23969 3.61545e-19)
(2.11156 -3.99795 1.28653e-19)
(2.02552 -3.79532 7.65054e-20)
(1.97134 -3.63374 1.22057e-19)
(1.93671 -3.50485 -1.53115e-20)
(1.91773 -3.39919 9.49748e-20)
(1.90993 -3.31029 2.1374e-19)
(1.90954 -3.2335 -2.6963e-20)
(1.91381 -3.16528 1.31604e-20)
(1.92067 -3.10305 2.62895e-19)
(1.92858 -3.04492 -3.47426e-20)
(1.93644 -2.98953 3.78471e-20)
(1.94346 -2.93597 -1.432e-20)
(1.94912 -2.88357 -2.07205e-21)
(1.9531 -2.83195 2.01304e-19)
(1.9552 -2.78085 7.74232e-21)
(1.95538 -2.73016 2.19185e-19)
(1.95365 -2.67983 -2.72933e-20)
(1.95009 -2.62989 -4.85489e-20)
(1.94484 -2.5804 1.14083e-19)
(1.93805 -2.53146 -1.05261e-19)
(1.92988 -2.48313 1.16355e-19)
(1.92054 -2.43553 6.3379e-20)
(1.91018 -2.38871 -5.18271e-20)
(1.899 -2.34271 7.93633e-20)
(1.88712 -2.29754 9.51315e-21)
(1.87465 -2.25316 -3.40072e-20)
(1.8618 -2.20937 1.80015e-20)
(1.84893 -2.16579 1.22177e-19)
(1.83487 -2.1227 1.90769e-20)
(2.38184 -4.18275 -6.22736e-20)
(2.22154 -3.95205 -1.30248e-19)
(2.13389 -3.75768 5.49001e-20)
(2.07866 -3.60263 -2.20302e-19)
(2.04331 -3.47889 1.06495e-19)
(2.02366 -3.37715 -1.97026e-19)
(2.0151 -3.29116 -1.31722e-19)
(2.0138 -3.21644 3.71561e-20)
(2.01695 -3.14963 3.79412e-20)
(2.02247 -3.08826 -1.82215e-19)
(2.02883 -3.03055 -7.9997e-20)
(2.03493 -2.97527 3.7624e-20)
(2.04001 -2.92155 -1.03711e-19)
(2.04356 -2.86883 -4.18329e-20)
(2.04531 -2.81674 -2.84549e-20)
(2.04508 -2.7651 -2.86981e-20)
(2.04286 -2.71382 -1.22376e-19)
(2.03869 -2.66289 -7.75511e-20)
(2.03267 -2.61237 1.36797e-20)
(2.02496 -2.56233 2.5645e-20)
(2.01573 -2.51288 2.78861e-20)
(2.00518 -2.46412 -9.64017e-20)
(1.9935 -2.41615 3.66568e-20)
(1.98089 -2.36906 -7.59368e-20)
(1.96753 -2.3229 7.23523e-20)
(1.95359 -2.27768 -9.52746e-20)
(1.93917 -2.23336 3.03762e-20)
(1.92449 -2.18974 -4.73249e-20)
(1.90995 -2.14641 -6.79441e-20)
(1.89428 -2.10372 -6.98781e-21)
(2.49269 -4.12292 -1.32931e-19)
(2.33066 -3.9033 -1.18747e-19)
(2.24178 -3.71718 -1.17513e-19)
(2.18579 -3.5686 -8.87442e-20)
(2.14989 -3.44992 2.74273e-19)
(2.1297 -3.35202 3.93035e-20)
(2.12046 -3.26886 1.20371e-19)
(2.11827 -3.19614 1.86456e-19)
(2.12029 -3.13067 9.10863e-20)
(2.12443 -3.07011 -1.2169e-19)
(2.12917 -3.01281 1.99376e-19)
(2.13344 -2.95761 -1.95124e-19)
(2.13649 -2.90374 1.86685e-19)
(2.13787 -2.8507 2.24764e-20)
(2.1373 -2.79818 4.8574e-20)
(2.13467 -2.74604 1.60671e-20)
(2.12998 -2.69422 2.00214e-19)
(2.1233 -2.64276 -2.99312e-20)
(2.11476 -2.59171 2.73015e-20)
(2.10453 -2.54119 9.24506e-20)
(2.09282 -2.49131 -1.03725e-19)
(2.07983 -2.44219 8.34425e-20)
(2.06577 -2.39394 3.38841e-21)
(2.05087 -2.34667 3.83793e-20)
(2.03532 -2.30042 7.07242e-20)
(2.01928 -2.25524 -1.20563e-20)
(2.0029 -2.21108 7.0799e-20)
(1.98639 -2.16776 1.03383e-19)
(1.97019 -2.1248 -1.12334e-19)
(1.95296 -2.08262 -6.97303e-20)
(2.60207 -4.06022 3.92027e-19)
(2.43883 -3.8517 -4.43486e-20)
(2.3491 -3.6738 9.17898e-20)
(2.29263 -3.53162 1.70041e-19)
(2.25639 -3.41791 -4.95296e-19)
(2.23576 -3.32376 5.45117e-20)
(2.22589 -3.24333 -1.93031e-19)
(2.22282 -3.17254 1.96084e-19)
(2.22369 -3.10834 -1.57133e-19)
(2.22641 -3.04855 8.60103e-20)
(2.22948 -2.99163 -3.14732e-19)
(2.23184 -2.93651 8.60966e-21)
(2.2328 -2.8825 -1.06833e-19)
(2.23191 -2.82916 1.62654e-19)
(2.22896 -2.77624 -1.74125e-19)
(2.22385 -2.72365 -9.23233e-21)
(2.21661 -2.67135 -1.43967e-19)
(2.20736 -2.61941 -1.23005e-20)
(2.19624 -2.56791 1.23633e-20)
(2.18345 -2.51698 3.28694e-20)
(2.1692 -2.46675 -1.85824e-19)
(2.15373 -2.41734 -5.79246e-21)
(2.13727 -2.36889 -1.05332e-19)
(2.12004 -2.32151 -2.46656e-20)
(2.10226 -2.27527 -6.54307e-20)
(2.08411 -2.23022 -7.20329e-20)
(2.06575 -2.18633 -7.57357e-20)
(2.04741 -2.1434 1.25366e-19)
(2.02957 -2.10094 3.39578e-20)
(2.0108 -2.05942 -6.76748e-20)
(2.70992 -3.99468 -2.61601e-19)
(2.54599 -3.79726 9.82181e-20)
(2.45581 -3.62753 -1.6978e-19)
(2.39912 -3.49166 2.52946e-20)
(2.3627 -3.38282 2.83249e-19)
(2.34174 -3.2923 -1.44816e-19)
(2.33129 -3.21452 -1.55545e-19)
(2.32734 -3.14558 -1.32884e-19)
(2.32703 -3.08261 6.0426e-21)
(2.32828 -3.02355 8.70388e-20)
(2.32961 -2.96698 -6.42557e-20)
(2.33 -2.91194 2.28859e-21)
(2.32878 -2.8578 2.03432e-19)
(2.32556 -2.80419 -1.03767e-19)
(2.32014 -2.75092 2.78013e-20)
(2.31249 -2.69792 -8.58384e-20)
(2.30265 -2.64521 3.29567e-20)
(2.29076 -2.59286 7.18984e-20)
(2.27701 -2.54099 8.27481e-20)
(2.26161 -2.48972 -9.09645e-20)
(2.24479 -2.43921 1.30343e-20)
(2.22681 -2.3896 7.92356e-20)
(2.2079 -2.34102 1.38377e-19)
(2.18831 -2.29361 3.72866e-20)
(2.16827 -2.24745 -1.44669e-19)
(2.14799 -2.2026 1.69493e-19)
(2.12762 -2.15907 -8.51866e-20)
(2.10745 -2.11665 -1.02598e-19)
(2.08797 -2.07481 -6.32861e-20)
(2.06771 -2.03409 -8.76095e-20)
(2.81617 -3.92633 1.40291e-19)
(2.65208 -3.73999 -1.13571e-19)
(2.56182 -3.57836 4.35618e-20)
(2.50517 -3.44869 2.34881e-19)
(2.46874 -3.3446 6.48972e-20)
(2.44753 -3.25761 -5.6018e-20)
(2.43652 -3.18239 1.36714e-19)
(2.4317 -3.11522 3.15942e-20)
(2.43018 -3.05342 1.32976e-19)
(2.42991 -2.99506 7.38726e-20)
(2.42944 -2.93884 3.36929e-21)
(2.42778 -2.88387 4.76264e-20)
(2.42431 -2.82963 -1.51673e-20)
(2.41868 -2.77579 2.66945e-20)
(2.41074 -2.72221 7.54052e-20)
(2.40047 -2.66887 -4.18062e-20)
(2.38797 -2.61581 1.0451e-19)
(2.3734 -2.56313 1.07049e-19)
(2.35697 -2.51095 -1.22867e-19)
(2.33892 -2.45943 1.26893e-19)
(2.3195 -2.40872 2.72261e-19)
(2.29897 -2.35897 -1.77001e-19)
(2.27758 -2.31034 1.79602e-19)
(2.25561 -2.26295 -1.26184e-19)
(2.23328 -2.21694 -1.81602e-20)
(2.21083 -2.17237 1.37909e-19)
(2.18843 -2.12928 -2.78884e-20)
(2.1664 -2.08747 1.04823e-19)
(2.14529 -2.04637 1.04947e-19)
(2.12357 -2.00659 -2.1102e-19)
(2.92074 -3.85522 -1.35677e-19)
(2.75703 -3.67992 6.48294e-20)
(2.66707 -3.52627 2.69343e-20)
(2.61071 -3.40267 -2.7628e-19)
(2.57439 -3.3032 -1.45182e-19)
(2.55301 -3.21964 1.10455e-19)
(2.54148 -3.14688 -3.11043e-19)
(2.53577 -3.08143 3.80195e-19)
(2.533 -3.02075 -2.15585e-19)
(2.53116 -2.96307 2.58844e-20)
(2.52882 -2.90718 -4.09183e-20)
(2.52504 -2.85231 -1.27614e-19)
(2.51926 -2.79798 2.66364e-19)
(2.51115 -2.74395 1.02187e-19)
(2.50061 -2.69013 -1.05877e-19)
(2.48767 -2.63651 3.06046e-21)
(2.47246 -2.58317 6.04856e-20)
(2.45517 -2.53023 -1.31818e-19)
(2.43603 -2.47783 2.81186e-20)
(2.4153 -2.42613 9.27994e-20)
(2.39325 -2.37529 -3.85493e-20)
(2.37015 -2.32548 6.50125e-20)
(2.34627 -2.27685 -1.2849e-19)
(2.32188 -2.22956 1.87504e-19)
(2.29724 -2.18373 4.44976e-20)
(2.27258 -2.13949 -1.20031e-19)
(2.24811 -2.09689 -1.04893e-19)
(2.22418 -2.05577 3.24833e-23)
(2.20142 -2.01553 1.46201e-19)
(2.17826 -1.97684 -3.5663e-20)
(3.02359 -3.78136 -3.7303e-20)
(2.86081 -3.61704 -2.73505e-19)
(2.77151 -3.47125 3.28661e-19)
(2.71563 -3.35357 2.25305e-19)
(2.67956 -3.25859 2.2821e-19)
(2.65806 -3.17834 6.51127e-20)
(2.64602 -3.10796 9.79588e-20)
(2.6394 -3.04416 5.08238e-20)
(2.63535 -2.98457 -2.02616e-19)
(2.63188 -2.92754 3.74297e-19)
(2.62761 -2.87199 -3.06233e-19)
(2.62165 -2.81723 -2.07009e-20)
(2.61348 -2.76286 4.54965e-20)
(2.60283 -2.70869 -2.04467e-19)
(2.58964 -2.65468 1.80117e-19)
(2.57398 -2.60085 -5.41625e-20)
(2.55601 -2.54731 -1.40503e-19)
(2.53596 -2.49419 5.49815e-20)
(2.51408 -2.44165 -1.05912e-19)
(2.49066 -2.38986 -9.42758e-20)
(2.46597 -2.33897 -1.01824e-19)
(2.44029 -2.28916 2.32439e-20)
(2.41391 -2.2406 1.38055e-20)
(2.3871 -2.19343 -2.54452e-19)
(2.36012 -2.14782 -9.77389e-20)
(2.33322 -2.10391 6.29348e-20)
(2.30663 -2.06183 7.89238e-20)
(2.28073 -2.02144 -1.09285e-19)
(2.25626 -1.98215 -4.1992e-20)
(2.23167 -1.9447 4.22999e-21)
(3.12469 -3.70479 -3.22357e-20)
(2.9634 -3.55136 1.7701e-19)
(2.87509 -3.41326 -5.0553e-20)
(2.81987 -3.30133 -6.24638e-20)
(2.78413 -3.21071 -3.55571e-19)
(2.76255 -3.13368 -7.93085e-20)
(2.75001 -3.0656 1.52319e-19)
(2.74247 -3.00339 -1.01681e-19)
(2.7371 -2.94485 -1.10588e-20)
(2.73194 -2.88847 -2.03557e-20)
(2.72568 -2.83326 1.16047e-19)
(2.71747 -2.77864 -1.84776e-19)
(2.70685 -2.72428 -1.24997e-19)
(2.69359 -2.67003 1.48028e-19)
(2.6777 -2.61589 -8.52319e-20)
(2.65927 -2.56193 -1.03605e-19)
(2.63851 -2.50827 2.22845e-19)
(2.61568 -2.45506 -3.52079e-20)
(2.59105 -2.40247 1.33641e-19)
(2.56492 -2.35067 -1.22923e-19)
(2.53759 -2.29981 -1.00239e-19)
(2.50935 -2.25007 8.76985e-20)
(2.48047 -2.20162 -9.77826e-21)
(2.45124 -2.15461 -6.64526e-20)
(2.42192 -2.10922 5.88691e-20)
(2.39276 -2.06563 -1.84812e-19)
(2.36399 -2.02402 1.13017e-19)
(2.33605 -1.98435 -1.7775e-21)
(2.3098 -1.94603 -1.19589e-19)
(2.28375 -1.90989 1.82178e-19)
(3.22414 -3.62557 1.34475e-19)
(3.06483 -3.48289 -3.49505e-19)
(2.97773 -3.35226 -2.96782e-20)
(2.9233 -3.24592 1.6723e-19)
(2.88796 -3.15953 -4.38151e-20)
(2.86635 -3.08561 -1.24868e-19)
(2.85331 -3.01976 5.90791e-20)
(2.84482 -2.95911 6.90893e-20)
(2.83808 -2.90159 5.97168e-21)
(2.83119 -2.84585 8.65403e-20)
(2.82287 -2.79101 2.79275e-19)
(2.81235 -2.73656 -9.86462e-20)
(2.79922 -2.68224 2.59382e-20)
(2.78331 -2.62798 -6.8035e-20)
(2.76466 -2.57379 2.6188e-19)
(2.74343 -2.51979 -4.74762e-20)
(2.71986 -2.4661 1.58137e-19)
(2.69422 -2.41289 -6.18844e-20)
(2.66684 -2.36034 6.70425e-20)
(2.63801 -2.30861 1.02028e-19)
(2.60806 -2.25787 1.76401e-20)
(2.57727 -2.20828 6.95078e-20)
(2.54594 -2.15999 -5.78993e-20)
(2.51432 -2.11317 1.6196e-19)
(2.48268 -2.06799 -6.65605e-20)
(2.45126 -2.02464 2.45366e-19)
(2.42028 -1.9834 -7.10476e-20)
(2.39021 -1.9443 4.93553e-20)
(2.36207 -1.90682 -9.35715e-20)
(2.33457 -1.872 1.77669e-19)
(3.3223 -3.54383 -2.96523e-19)
(3.16523 -3.41157 1.1039e-20)
(3.07937 -3.28814 -1.82839e-19)
(3.02577 -3.18725 3.3642e-20)
(2.99089 -3.105 9.48942e-21)
(2.96928 -3.03412 -1.66704e-19)
(2.95575 -2.97044 -3.16331e-19)
(2.9463 -2.91129 1.59475e-19)
(2.93816 -2.85479 -2.27976e-19)
(2.92948 -2.79969 -1.21632e-19)
(2.91905 -2.74523 -7.00772e-20)
(2.90616 -2.691 -5.69393e-20)
(2.89045 -2.63679 1.67368e-21)
(2.87184 -2.58258 -2.05576e-19)
(2.8504 -2.52843 1.36652e-19)
(2.82634 -2.47447 -2.25081e-19)
(2.79993 -2.42085 -5.74781e-20)
(2.77149 -2.36774 6.2822e-20)
(2.74136 -2.31533 7.95968e-20)
(2.70986 -2.26378 8.00542e-20)
(2.67731 -2.21324 6.17328e-20)
(2.64403 -2.16387 -1.55471e-19)
(2.61029 -2.11582 1.57688e-19)
(2.57635 -2.06921 -1.68383e-20)
(2.54246 -2.02422 -4.27434e-20)
(2.50883 -1.98102 -1.70438e-19)
(2.47564 -1.9399 -9.10195e-20)
(2.44332 -1.90095 1.69113e-19)
(2.41297 -1.86379 -5.54678e-20)
(2.38372 -1.83036 -5.79148e-20)
(3.41962 -3.45923 1.28815e-19)
(3.2646 -3.33698 1.18978e-20)
(3.17983 -3.22071 -3.60294e-20)
(3.1271 -3.12526 -8.07528e-21)
(3.09276 -3.0471 -6.65247e-20)
(3.07121 -2.97921 2.25322e-19)
(3.05721 -2.91765 -1.07175e-19)
(3.04677 -2.85997 7.04617e-20)
(3.03719 -2.80446 2.94177e-20)
(3.02667 -2.75001 1.07897e-19)
(3.01407 -2.69597 -4.24007e-20)
(2.99875 -2.642 2.40262e-19)
(2.98042 -2.58797 -2.0911e-20)
(2.95906 -2.53389 1.58802e-19)
(2.93479 -2.47986 -2.68832e-19)
(2.90788 -2.42604 -2.09344e-20)
(2.87862 -2.37258 1.76279e-19)
(2.84738 -2.31969 -1.10274e-19)
(2.81451 -2.26753 -7.80061e-20)
(2.78037 -2.21626 -1.35106e-19)
(2.74528 -2.16603 -1.19588e-19)
(2.70957 -2.11699 1.2854e-19)
(2.67352 -2.06926 -1.21911e-19)
(2.6374 -2.02295 2.66179e-20)
(2.60144 -1.97817 9.93934e-20)
(2.56584 -1.93507 6.92584e-20)
(2.53074 -1.89378 6.60639e-20)
(2.49637 -1.85427 4.89282e-20)
(2.46333 -1.81662 -1.32347e-19)
(2.43119 -1.78412 -5.70769e-20)
(5.01464 -0.0292102 1.90387e-21)
(5.00695 -0.161101 1.89055e-20)
(4.99614 -0.292018 6.56162e-20)
(4.98219 -0.422242 3.58865e-20)
(4.96488 -0.551832 -7.57968e-20)
(4.94416 -0.680752 2.29622e-20)
(4.92003 -0.808939 -2.40711e-20)
(4.89251 -0.936312 -6.07471e-20)
(4.86163 -1.06279 1.54536e-19)
(4.82742 -1.18827 -3.68369e-20)
(4.78992 -1.31268 -3.72184e-20)
(4.74916 -1.43594 -7.85221e-20)
(4.70519 -1.55794 -2.24769e-19)
(4.65805 -1.67862 2.08024e-20)
(4.60779 -1.79789 -1.02612e-20)
(4.55446 -1.91567 -6.99028e-20)
(4.49809 -2.03189 1.50138e-19)
(4.43875 -2.14646 8.12534e-20)
(4.37648 -2.25932 1.55554e-19)
(4.31134 -2.37039 7.59557e-20)
(4.24339 -2.4796 -1.69516e-19)
(4.17269 -2.58689 6.77652e-21)
(4.09928 -2.69219 -3.19595e-19)
(4.02325 -2.79544 4.84775e-19)
(3.94463 -2.89657 -1.58984e-19)
(3.86352 -2.99554 -2.04491e-19)
(3.77996 -3.0923 -2.87353e-20)
(3.69404 -3.18683 -1.73353e-21)
(3.60586 -3.2792 -1.53337e-19)
(3.51536 -3.36979 2.72817e-19)
(5.04659 -0.0581432 7.92689e-21)
(5.03293 -0.190294 1.17275e-20)