/*--------------------------------*- C++ -*----------------------------------*\
  =========                 |
  \\      /  F ield         | OpenFOAM: The Open Source CFD Toolbox
   \\    /   O peration     | Website:  https://openfoam.org
    \\  /    A nd           | Version:  6.0
     \\/     M anipulation  |
\*---------------------------------------------------------------------------*/
FoamFile
{
    version     2.0;
    format      ascii;
    class       volVectorField;
    location    "3";
    object      U;
}
// * * * * * * * * * * * * * * * * * * * * * * * * * * * * * * * * * * * * * //

dimensions      [0 1 -1 0 0 0 0];

internalField   nonuniform List<vector> 
19200
(
(0.00651519 -0.477623 -4.5827e-22)
(0.00468502 -0.437614 2.54339e-22)
(0.00251787 -0.401665 1.30873e-22)
(5.84127e-05 -0.369454 1.27665e-22)
(-0.00254623 -0.340658 1.56587e-22)
(-0.00515077 -0.31497 8.21186e-24)
(-0.00765656 -0.292101 2.50757e-22)
(-0.00999479 -0.271782 -2.57157e-23)
(-0.0121175 -0.253763 2.48623e-22)
(-0.0139934 -0.237815 1.08902e-22)
(-0.0156043 -0.223729 -1.0889e-23)
(-0.0169418 -0.211311 1.93728e-22)
(-0.0180057 -0.200386 3.64672e-22)
(-0.0188013 -0.190794 -2.65534e-22)
(-0.0193385 -0.182391 3.54019e-22)
(-0.0196308 -0.175044 3.35966e-22)
(-0.019694 -0.168634 -3.29563e-22)
(-0.0195459 -0.163052 6.02283e-22)
(-0.0192056 -0.158202 -4.03241e-22)
(-0.018693 -0.153995 2.0474e-22)
(-0.0180285 -0.150352 3.16009e-22)
(-0.0172326 -0.1472 -1.13549e-22)
(-0.0163259 -0.14447 1.54725e-22)
(-0.0153284 -0.142096 -1.95767e-22)
(-0.0142599 -0.140015 4.93112e-24)
(-0.0131408 -0.138189 1.16182e-22)
(-0.0119903 -0.136587 -7.86462e-23)
(-0.0108155 -0.135186 4.37006e-23)
(-0.00960862 -0.133959 1.20022e-22)
(-0.00847592 -0.13288 5.89566e-22)
(0.0190535 -0.47678 -1.12202e-22)
(0.0161959 -0.436183 8.04605e-22)
(0.0131488 -0.399839 -4.4882e-22)
(0.00995222 -0.367382 -6.88097e-22)
(0.00674224 -0.338465 -3.48209e-22)
(0.00365147 -0.312756 -2.65723e-22)
(0.000766201 -0.289946 -6.16936e-22)
(-0.00185613 -0.269748 7.3941e-23)
(-0.0041778 -0.2519 -1.2168e-22)
(-0.00617676 -0.236159 -5.15361e-22)
(-0.00784309 -0.222306 -1.47358e-21)
(-0.00917611 -0.210139 7.65954e-22)
(-0.0101821 -0.199476 -3.06501e-22)
(-0.0108725 -0.190152 1.17789e-22)
(-0.0112628 -0.182015 -8.03294e-22)
(-0.0113713 -0.174931 -3.24042e-22)
(-0.0112184 -0.168775 3.15855e-23)
(-0.0108259 -0.163437 1.21695e-21)
(-0.0102164 -0.158815 -6.31727e-22)
(-0.00941341 -0.15482 -3.64369e-22)
(-0.0084402 -0.15137 -1.62245e-21)
(-0.00732027 -0.148391 4.3073e-22)
(-0.00607665 -0.145813 -2.90923e-22)
(-0.00473206 -0.143567 5.46778e-22)
(-0.0033086 -0.141593 -2.76037e-22)
(-0.00182891 -0.139847 -4.4842e-22)
(-0.000315161 -0.138302 1.40435e-22)
(0.00122595 -0.136933 2.54334e-22)
(0.00280629 -0.135714 -4.34945e-22)
(0.00430147 -0.13462 2.78249e-22)
(0.0315054 -0.475664 -5.42961e-23)
(0.0276041 -0.434525 1.44003e-22)
(0.0236897 -0.397834 2.41198e-22)
(0.0197766 -0.365185 2.39335e-21)
(0.0159873 -0.336197 -1.52336e-21)
(0.0124425 -0.310514 1.40838e-21)
(0.00921584 -0.287804 9.31249e-22)
(0.00635284 -0.267766 8.25121e-22)
(0.00388022 -0.25012 -8.41733e-22)
(0.00181009 -0.234615 -1.40838e-22)
(0.00014345 -0.221021 2.39825e-21)
(-0.00112703 -0.209128 4.57308e-22)
(-0.00201481 -0.198747 -1.28295e-21)
(-0.00253783 -0.189708 1.02124e-21)
(-0.00271731 -0.181854 -2.17561e-23)
(-0.00257674 -0.175045 5.01127e-22)
(-0.00214116 -0.169155 3.69125e-22)
(-0.00143665 -0.164069 1.40715e-21)
(-0.000489831 -0.159685 -6.01222e-22)
(0.00067247 -0.155908 -1.95063e-22)
(0.00202354 -0.152657 -6.29856e-22)
(0.0035369 -0.149855 2.99224e-21)
(0.00518657 -0.147432 -2.59962e-21)
(0.00694744 -0.145317 8.40269e-22)
(0.00879476 -0.143448 4.86104e-22)
(0.0107032 -0.141781 -1.8747e-21)
(0.012648 -0.140287 2.58223e-21)
(0.0146219 -0.138944 -2.62391e-22)
(0.0166424 -0.137723 -3.09967e-22)
(0.018563 -0.136604 -2.68158e-21)
(0.0439026 -0.474267 -1.68964e-21)
(0.0389353 -0.432654 -1.78148e-21)
(0.0341534 -0.395676 -2.39673e-21)
(0.0295386 -0.36289 1.16225e-23)
(0.0251953 -0.333884 1.48986e-22)
(0.0212296 -0.308273 -3.33702e-21)
(0.017701 -0.285706 1.28391e-22)
(0.0146419 -0.265864 5.08208e-22)
(0.0120672 -0.248455 -6.79704e-23)
(0.00997835 -0.233216 1.01872e-21)
(0.00836679 -0.219906 -4.10351e-21)
(0.00721666 -0.20831 -2.83686e-21)
(0.00650691 -0.198231 1.01628e-21)
(0.00621279 -0.189494 2.37151e-21)
(0.00630706 -0.181937 -2.78137e-21)
(0.00676078 -0.175418 -4.64531e-22)
(0.00754401 -0.169805 -1.88436e-21)
(0.00862624 -0.164982 -9.43268e-22)
(0.00997681 -0.160842 1.71403e-21)
(0.0115651 -0.157291 -2.26681e-21)
(0.013361 -0.154243 2.14052e-21)
(0.0153346 -0.151623 -2.55558e-21)
(0.0174568 -0.149356 -2.15997e-21)
(0.0196999 -0.147372 -1.68236e-21)
(0.0220368 -0.145608 -4.39711e-22)
(0.0244392 -0.144019 -3.73357e-21)
(0.0268787 -0.142571 3.99215e-22)
(0.0293488 -0.141245 7.48312e-22)
(0.031872 -0.14001 -2.29745e-21)
(0.034277 -0.138853 4.55484e-22)
(0.0562493 -0.472578 -9.88753e-22)
(0.050199 -0.430576 1.725e-22)
(0.0445497 -0.393381 1.60006e-21)
(0.0392482 -0.36052 1.83685e-21)
(0.0343768 -0.33155 1.44558e-21)
(0.0300243 -0.30606 6.43409e-22)
(0.0262343 -0.28368 1.03826e-21)
(0.0230247 -0.264072 5.26924e-21)
(0.0203975 -0.246934 -3.24524e-21)
(0.0183428 -0.231989 6.78232e-23)
(0.0168419 -0.218989 8.51165e-22)
(0.0158697 -0.207712 4.24794e-21)
(0.0153973 -0.197956 -3.00753e-21)
(0.0153928 -0.189538 2.32009e-21)
(0.0158226 -0.182294 -2.77882e-21)
(0.0166521 -0.176077 5.01544e-21)
(0.0178464 -0.170753 -1.50091e-21)
(0.0193702 -0.166202 5.72534e-23)
(0.0211887 -0.162315 2.83801e-21)
(0.0232675 -0.158996 2.17637e-21)
(0.0255727 -0.156156 -2.22296e-21)
(0.0280707 -0.153719 3.19724e-21)
(0.0307295 -0.15161 -1.56164e-21)
(0.033518 -0.14976 1.84082e-21)
(0.0364066 -0.1481 2.66665e-21)
(0.0393641 -0.146583 1.08417e-21)
(0.0423587 -0.145178 3.35672e-21)
(0.0453835 -0.143858 -1.06962e-21)
(0.0484681 -0.142597 -2.86019e-22)
(0.0514117 -0.141386 -2.31941e-21)
(0.0685424 -0.470599 -7.31668e-22)
(0.0613986 -0.428297 -5.31301e-22)
(0.0548867 -0.390962 -1.83364e-21)
(0.0489161 -0.358092 -5.30064e-21)
(0.0435444 -0.329216 1.77449e-21)
(0.038841 -0.303898 1.39828e-22)
(0.0348315 -0.281749 -1.44858e-21)
(0.0315182 -0.262415 3.62751e-22)
(0.0288891 -0.24558 -1.76718e-22)
(0.026922 -0.230959 -4.67955e-21)
(0.0255874 -0.218296 1.95484e-21)
(0.0248507 -0.207361 3.75537e-21)
(0.0246744 -0.197945 -2.4351e-23)
(0.0250194 -0.189863 1.55668e-21)
(0.0258453 -0.182947 4.22174e-21)
(0.0271118 -0.177045 -3.07214e-21)
(0.0287785 -0.17202 5.67522e-21)
(0.0308057 -0.16775 -2.90033e-21)
(0.0331541 -0.164124 5.40481e-21)
(0.0357852 -0.161043 -4.23737e-21)
(0.0386614 -0.158416 1.95369e-21)
(0.0417456 -0.156165 5.64653e-21)
(0.0450021 -0.154216 5.34539e-22)
(0.0483966 -0.152496 -5.66358e-21)
(0.0518963 -0.150941 3.30755e-21)
(0.0554664 -0.149494 4.13044e-22)
(0.0590717 -0.148123 -1.22589e-21)
(0.0627058 -0.146801 4.75369e-21)
(0.0664055 -0.145498 1.86179e-21)
(0.0699373 -0.144217 -1.9492e-21)
(0.0807771 -0.468334 2.14723e-21)
(0.0725362 -0.425826 1.22358e-22)
(0.0651716 -0.388432 -3.73652e-21)
(0.0585535 -0.355623 7.98317e-22)
(0.0527126 -0.3269 -1.29723e-21)
(0.0476964 -0.301807 8.62953e-22)
(0.0435114 -0.279933 2.20991e-21)
(0.0401426 -0.260912 4.47888e-21)
(0.0375632 -0.244415 -5.214e-21)
(0.0357379 -0.230148 1.27992e-21)
(0.0346255 -0.217846 -1.1006e-21)
(0.0341816 -0.207274 8.33604e-22)
(0.0343599 -0.198218 -3.7265e-21)
(0.0351132 -0.190488 -3.46625e-22)
(0.0363947 -0.183913 6.90131e-21)
(0.0381578 -0.178337 -4.8187e-21)
(0.0403569 -0.173622 -3.34841e-21)
(0.042947 -0.169643 -2.70432e-21)
(0.0458847 -0.166285 4.85463e-21)
(0.0491273 -0.163448 1.16869e-21)
(0.0526333 -0.161039 -5.42138e-21)
(0.0563621 -0.158977 7.64098e-21)
(0.0602743 -0.157188 -7.13908e-21)
(0.0643323 -0.1556 5.02834e-21)
(0.0684992 -0.154143 -2.93612e-21)
(0.0727361 -0.152763 2.0396e-21)
(0.0770044 -0.15142 1.69188e-21)
(0.0812982 -0.150086 -7.50708e-21)
(0.0856619 -0.148726 3.30171e-21)
(0.0898266 -0.147356 7.67492e-23)
(0.0929484 -0.465787 -2.131e-21)
(0.0836135 -0.423171 1.81846e-21)
(0.0754122 -0.3858 -4.03201e-21)
(0.0681728 -0.353124 7.98452e-21)
(0.0618972 -0.324619 -2.37917e-21)
(0.0566095 -0.299804 3.79035e-21)
(0.0522952 -0.278252 7.03306e-23)
(0.048921 -0.259583 -4.97069e-22)
(0.0464443 -0.243457 -9.47616e-22)
(0.0448156 -0.229572 -6.04564e-23)
(0.043982 -0.217655 -4.10389e-21)
(0.0438882 -0.207467 2.15984e-21)
(0.0444789 -0.198788 -2.91765e-21)
(0.0456989 -0.191426 -2.02202e-22)
(0.0474942 -0.185204 -9.16218e-21)
(0.0498121 -0.179966 3.01875e-21)
(0.0526012 -0.175571 1.9919e-21)
(0.055812 -0.17189 -2.26134e-21)
(0.0593962 -0.168807 -2.55931e-22)
(0.0633069 -0.16622 -3.89469e-21)
(0.0674986 -0.164033 -1.47391e-21)
(0.0719272 -0.162164 2.13929e-22)
(0.0765498 -0.160536 -3.95334e-21)
(0.0813241 -0.159078 -6.33291e-21)
(0.0862101 -0.157719 2.1964e-22)
(0.0911648 -0.156399 -8.06451e-22)
(0.0961451 -0.155078 2.30785e-21)
(0.101145 -0.15372 -5.95699e-21)
(0.106218 -0.152288 5.30397e-21)
(0.111055 -0.150809 -1.20286e-20)
(0.105051 -0.462963 -5.21957e-21)
(0.0946326 -0.420338 7.19693e-21)
(0.0856165 -0.383078 -8.34879e-21)
(0.0777872 -0.35061 -2.50701e-21)
(0.0711157 -0.322385 -1.77946e-21)
(0.0656011 -0.297902 -2.05855e-21)
(0.0612065 -0.276718 -1.92393e-21)
(0.0578793 -0.25844 -3.42702e-22)
(0.0555596 -0.242719 -2.1445e-21)
(0.0541838 -0.229243 -5.10798e-22)
(0.0536858 -0.217736 4.41894e-21)
(0.0539997 -0.20795 -2.31807e-21)
(0.0550604 -0.199665 -3.13651e-21)
(0.0568045 -0.192683 -5.873e-21)
(0.0591707 -0.186827 1.28288e-20)
(0.0620999 -0.181937 -5.19214e-21)
(0.0655353 -0.177869 2.05067e-21)
(0.0694221 -0.174494 -8.26547e-21)
(0.0737075 -0.171692 3.22045e-21)
(0.0783403 -0.16936 -1.48895e-21)
(0.0832712 -0.1674 1.80379e-21)
(0.0884519 -0.165726 -7.02193e-22)
(0.0938352 -0.164261 6.66685e-21)
(0.0993757 -0.162931 -2.44694e-21)
(0.105029 -0.161668 7.27674e-21)
(0.110748 -0.160406 -1.78662e-21)
(0.116485 -0.159097 1.01219e-20)
(0.122234 -0.157707 3.14619e-21)
(0.128056 -0.156184 6.09905e-21)
(0.1336 -0.154575 -2.10834e-20)
(0.117081 -0.459865 8.22792e-21)
(0.105596 -0.417334 -1.69159e-21)
(0.0957933 -0.380274 3.68314e-21)
(0.0874111 -0.348089 -1.12998e-21)
(0.0803871 -0.320209 4.0865e-21)
(0.074694 -0.296113 4.24531e-21)
(0.0702713 -0.275343 5.15243e-21)
(0.0670456 -0.257495 -5.01617e-22)
(0.0649395 -0.24221 -5.75274e-21)
(0.0638737 -0.22917 8.61468e-21)
(0.0637692 -0.218093 -9.20638e-22)
(0.0645484 -0.208728 6.86565e-21)
(0.0661365 -0.200851 2.68602e-21)
(0.0684614 -0.194262 9.43176e-22)
(0.0714546 -0.188781 1.66043e-21)
(0.0750503 -0.184247 2.46627e-21)
(0.0791861 -0.180514 4.49175e-21)
(0.083802 -0.17745 -1.44665e-21)
(0.0888408 -0.174936 7.41824e-21)
(0.094247 -0.172863 3.73677e-21)
(0.0999671 -0.171133 -7.97595e-21)
(0.105949 -0.169657 1.4971e-20)
(0.112141 -0.168355 -2.06984e-20)
(0.118494 -0.167155 2.04745e-20)
(0.124959 -0.165981 -7.04175e-21)
(0.131485 -0.164774 1.28645e-21)
(0.138019 -0.163474 -1.03405e-20)
(0.144555 -0.16204 5.86229e-21)
(0.151161 -0.160411 2.27674e-21)
(0.157443 -0.158651 -3.1468e-21)
(0.129034 -0.456496 -4.71898e-21)
(0.116506 -0.414167 5.47923e-21)
(0.105952 -0.377395 -1.55731e-21)
(0.0970599 -0.34557 4.83288e-21)
(0.0897318 -0.3181 4.99685e-22)
(0.0839129 -0.294445 1.38612e-21)
(0.0795175 -0.274135 -1.01809e-20)
(0.0764508 -0.256754 -1.97848e-21)
(0.0746167 -0.241935 7.51288e-21)
(0.0739198 -0.229356 6.32371e-21)
(0.0742674 -0.218729 -1.11771e-20)
(0.0755701 -0.209801 6.95088e-21)
(0.0777428 -0.202344 -7.22466e-21)
(0.0807047 -0.196158 5.47013e-21)
(0.0843796 -0.191061 -9.54132e-21)
(0.0886954 -0.186889 -7.67313e-21)
(0.0935838 -0.183496 2.50464e-22)
(0.0989798 -0.180748 -4.05673e-21)
(0.104821 -0.178525 7.0358e-21)
(0.111049 -0.176715 3.04208e-21)
(0.117605 -0.175218 -1.99231e-21)
(0.124434 -0.173943 -5.82622e-22)
(0.131479 -0.172806 2.87147e-21)
(0.138688 -0.171732 -9.51773e-21)
(0.146007 -0.170649 1.65945e-20)
(0.153379 -0.169489 -4.00468e-21)
(0.160746 -0.168194 -5.02423e-22)
(0.168102 -0.166706 1.65786e-20)
(0.175524 -0.164957 2.61307e-21)
(0.182567 -0.163025 -2.62996e-21)
(0.140905 -0.452861 2.12299e-22)
(0.127368 -0.41084 -2.8009e-21)
(0.116105 -0.374449 -2.90407e-21)
(0.106751 -0.34306 -5.22392e-21)
(0.0991719 -0.316065 1.95045e-22)
(0.0932841 -0.292905 -4.51707e-21)
(0.0889753 -0.273098 5.41141e-21)
(0.0861279 -0.25622 -5.30373e-22)
(0.0846264 -0.241897 5.36067e-21)
(0.084359 -0.2298 -4.24945e-21)
(0.0852185 -0.219641 -2.41757e-21)
(0.0871032 -0.211162 1.41404e-21)
(0.0899177 -0.204136 8.18059e-22)
(0.0935722 -0.19836 -9.12512e-21)
(0.0979828 -0.193651 5.50671e-21)
(0.103071 -0.189845 -3.08079e-21)
(0.108762 -0.186796 8.76403e-21)
(0.114986 -0.184367 -3.09831e-21)
(0.121678 -0.182437 3.31285e-21)
(0.128772 -0.180893 9.10489e-22)
(0.136208 -0.179632 6.44042e-21)
(0.143925 -0.17856 -1.26391e-21)
(0.151864 -0.17759 1.16767e-20)
(0.159968 -0.176643 -1.32669e-20)
(0.168179 -0.175648 -4.84079e-21)
(0.176432 -0.174531 4.12061e-21)
(0.184666 -0.173235 -2.47819e-22)
(0.192872 -0.171687 -7.87054e-21)
(0.201135 -0.169803 6.54736e-21)
(0.208961 -0.167682 -8.81014e-21)
(0.15269 -0.448963 8.14238e-21)
(0.138185 -0.407359 2.47373e-21)
(0.126261 -0.37144 3.24027e-21)
(0.116501 -0.340565 4.8364e-21)
(0.108731 -0.314108 7.75051e-21)
(0.102836 -0.291496 -2.4982e-22)
(0.0986765 -0.272235 1.15085e-21)
(0.0961119 -0.255893 1.06509e-20)
(0.0950064 -0.242091 -2.16829e-21)
(0.0952307 -0.230498 -4.48153e-21)
(0.0966629 -0.22082 8.33942e-21)
(0.0991889 -0.212802 1.6264e-21)
(0.102702 -0.206213 3.15167e-23)
(0.107105 -0.20085 2.23976e-21)
(0.112304 -0.196532 4.47164e-21)
(0.118214 -0.193093 -9.87366e-21)
(0.124756 -0.190387 8.65548e-21)
(0.131855 -0.188278 1.55564e-21)
(0.13944 -0.186642 9.63019e-21)
(0.147443 -0.185364 -5.3149e-21)
(0.155798 -0.184341 9.45027e-21)
(0.164443 -0.183474 -1.05065e-20)
(0.173313 -0.182674 1.05962e-20)
(0.182347 -0.181857 1.79429e-21)
(0.191482 -0.180947 -7.65326e-21)
(0.20065 -0.179873 -2.8273e-21)
(0.209779 -0.178568 1.63196e-20)
(0.218861 -0.176954 1.22557e-20)
(0.227989 -0.174922 3.39222e-21)
(0.236614 -0.172597 -3.00675e-21)
(0.164386 -0.444805 8.62615e-22)
(0.148962 -0.403728 2.32799e-21)
(0.136435 -0.368372 1.01663e-20)
(0.12633 -0.338088 -1.71712e-20)
(0.118433 -0.312232 -1.92015e-21)
(0.112597 -0.290218 -2.08756e-21)
(0.108655 -0.271543 9.27023e-22)
(0.10644 -0.255768 1.45165e-21)
(0.105796 -0.242511 2.63651e-21)
(0.106576 -0.231438 -7.38848e-21)
(0.108643 -0.222254 -1.76847e-21)
(0.111871 -0.214702 4.52849e-21)
(0.11614 -0.208553 5.46164e-21)
(0.121345 -0.203605 -5.4528e-21)
(0.127384 -0.199676 -6.10701e-21)
(0.134166 -0.196602 9.61431e-21)
(0.141605 -0.194237 6.89519e-21)
(0.149622 -0.192444 -1.63879e-21)
(0.158141 -0.191099 -4.78449e-21)
(0.167091 -0.190088 9.68605e-22)
(0.176402 -0.189302 -1.24917e-20)
(0.186008 -0.188642 1.56087e-20)
(0.195841 -0.188013 -1.11105e-20)
(0.205836 -0.187329 -6.4138e-22)
(0.215926 -0.186506 7.93038e-21)
(0.226036 -0.185474 -2.62029e-21)
(0.236085 -0.184157 -8.41775e-21)
(0.246067 -0.182472 1.05244e-20)
(0.256078 -0.180284 -3.31215e-22)
(0.265513 -0.177739 2.23097e-21)
(0.175989 -0.440391 -5.58988e-22)
(0.159705 -0.399951 -2.31735e-21)
(0.146639 -0.36525 -1.17541e-20)
(0.136257 -0.335631 4.29087e-21)
(0.128305 -0.310437 -1.51591e-21)
(0.1226 -0.28907 4.95808e-21)
(0.118945 -0.271018 3.70018e-22)
(0.11715 -0.25584 -6.81175e-21)
(0.117036 -0.243148 1.07711e-20)
(0.118439 -0.232607 -1.01906e-20)
(0.121205 -0.223925 -5.7199e-22)
(0.125194 -0.216842 2.81383e-21)
(0.130277 -0.211133 -5.08209e-21)
(0.136338 -0.206595 6.26153e-21)
(0.143268 -0.20305 -1.23913e-20)
(0.150968 -0.200334 -3.23339e-21)
(0.159348 -0.198302 8.03716e-21)
(0.168323 -0.196819 -2.03105e-22)
(0.177814 -0.195761 -6.11951e-21)
(0.187745 -0.195011 1.66901e-20)
(0.198044 -0.194461 -8.97919e-21)
(0.208641 -0.194008 -1.30453e-20)
(0.219466 -0.193554 4.59093e-21)
(0.230449 -0.193007 -1.40046e-20)
(0.241517 -0.192277 -3.70736e-21)
(0.252592 -0.191286 -6.41576e-22)
(0.263584 -0.18996 -1.05882e-20)
(0.274483 -0.188198 1.26488e-20)
(0.285393 -0.185848 -7.48641e-21)
(0.295646 -0.183071 9.65858e-21)
(0.187496 -0.435724 -2.90407e-21)
(0.170419 -0.396031 -9.43571e-21)
(0.156887 -0.362075 5.14293e-21)
(0.146304 -0.333194 -5.20153e-21)
(0.138372 -0.308721 -4.19267e-21)
(0.132875 -0.288047 -2.69232e-21)
(0.129584 -0.270654 -1.00251e-20)
(0.128282 -0.256096 7.09895e-21)
(0.12877 -0.243986 -1.87006e-20)
(0.130863 -0.233988 -7.52019e-21)
(0.134392 -0.22581 2.46174e-21)
(0.139204 -0.219196 4.72847e-21)
(0.145159 -0.213921 1.0682e-22)
(0.15213 -0.209785 -1.01782e-20)
(0.16 -0.206613 2.43985e-21)
(0.168665 -0.204244 -1.04744e-20)
(0.178027 -0.202533 -8.07701e-21)
(0.187997 -0.201349 -5.31421e-21)
(0.198493 -0.200568 -1.43691e-21)
(0.209436 -0.200073 8.93813e-21)
(0.220751 -0.199755 1.37895e-20)
(0.232364 -0.199508 -4.33635e-21)
(0.244202 -0.19923 -4.48214e-21)
(0.256193 -0.198824 8.81034e-21)
(0.26826 -0.198193 5.19856e-21)
(0.280317 -0.197252 -4.1385e-21)
(0.292269 -0.195921 -4.93914e-21)
(0.304098 -0.194082 4.55709e-22)
(0.315918 -0.191566 5.65368e-21)
(0.326998 -0.188554 8.5588e-21)
(0.198904 -0.430808 -7.37614e-22)
(0.18111 -0.39197 1.22476e-20)
(0.167193 -0.358847 1.04004e-20)
(0.156492 -0.330776 8.68302e-21)
(0.148664 -0.30708 -5.81857e-21)
(0.143456 -0.287142 -1.23174e-21)
(0.140608 -0.270439 1.06024e-21)
(0.139877 -0.256523 9.12225e-21)
(0.14104 -0.245008 3.66835e-21)
(0.143893 -0.235559 9.38147e-21)
(0.148253 -0.227884 -1.37539e-20)
(0.15395 -0.221732 1.30375e-21)
(0.160834 -0.216881 6.12854e-21)
(0.168768 -0.213134 4.07649e-21)
(0.177627 -0.210319 9.18741e-21)
(0.187299 -0.208279 -6.08352e-21)
(0.197682 -0.206874 -6.29732e-21)
(0.208682 -0.205973 1.00875e-21)
(0.220213 -0.205453 1.4633e-20)
(0.232193 -0.205202 -2.44933e-20)
(0.244545 -0.205107 8.67758e-21)
(0.257193 -0.205062 -1.34065e-22)
(0.270062 -0.204961 1.84728e-20)
(0.283075 -0.204701 -8.02166e-21)
(0.296154 -0.20418 -2.86e-22)
(0.309205 -0.2033 -5.68161e-21)
(0.322126 -0.201971 5.49671e-21)
(0.334899 -0.200067 1.40283e-21)
(0.347636 -0.197383 -6.92475e-21)
(0.359549 -0.194139 2.55722e-20)
(0.210209 -0.425646 -1.16654e-20)
(0.191786 -0.387771 -7.56246e-21)
(0.177573 -0.355568 -2.08799e-20)
(0.166843 -0.328376 -1.03846e-20)
(0.159208 -0.305509 1.00008e-20)
(0.154375 -0.286346 -6.48144e-21)
(0.152054 -0.270361 -1.83678e-21)
(0.151975 -0.257106 -4.87266e-21)
(0.153889 -0.246194 8.37287e-21)
(0.157576 -0.237294 -2.04451e-21)
(0.162833 -0.230118 -3.31437e-21)
(0.169478 -0.224417 -4.69978e-22)
(0.177349 -0.219973 -1.58091e-20)
(0.186298 -0.216597 -1.18038e-21)
(0.196192 -0.214118 4.20017e-21)
(0.206914 -0.212385 -5.69285e-22)
(0.218353 -0.211261 -1.9494e-20)
(0.230414 -0.210619 1.96993e-20)
(0.243005 -0.210342 -2.03678e-20)
(0.256044 -0.210316 8.18131e-21)
(0.269449 -0.210432 1.1872e-21)
(0.283145 -0.210581 5.11083e-22)
(0.297055 -0.210656 -9.81322e-21)
(0.311099 -0.210547 3.53778e-21)
(0.325196 -0.210144 7.24329e-23)
(0.339249 -0.209341 1.29645e-21)
(0.353147 -0.208035 -2.91692e-20)
(0.366867 -0.20608 7.60533e-21)
(0.380531 -0.203245 8.84183e-21)
(0.393278 -0.199775 1.18232e-20)
(0.221411 -0.420241 2.3128e-20)
(0.202454 -0.383436 9.28612e-21)
(0.188042 -0.352236 5.72366e-21)
(0.17738 -0.325987 9.33951e-21)
(0.170032 -0.304001 -1.31218e-21)
(0.165667 -0.285649 8.04782e-21)
(0.163962 -0.270405 1.9011e-20)
(0.164616 -0.257823 -2.35836e-21)
(0.167362 -0.247519 1.27166e-21)
(0.171955 -0.239165 2.659e-20)
(0.178178 -0.232477 -3.37596e-21)
(0.185835 -0.227211 4.0815e-21)
(0.19475 -0.223155 -1.77706e-21)
(0.204766 -0.220124 -6.62913e-22)
(0.215742 -0.217953 2.42868e-20)
(0.227552 -0.216498 9.407e-22)
(0.240082 -0.215625 2.86453e-20)
(0.253231 -0.215214 -3.43991e-21)
(0.266904 -0.215151 -6.83235e-21)
(0.281015 -0.215327 1.63496e-20)
(0.295485 -0.215633 -1.58484e-20)
(0.310235 -0.215964 1.77423e-20)
(0.325188 -0.216208 1.00392e-20)
(0.340264 -0.216253 -8.67684e-21)
(0.355379 -0.21598 1.32005e-20)
(0.370433 -0.215272 1.56344e-21)
(0.385309 -0.214014 -6.32848e-21)
(0.39998 -0.212037 2.84417e-21)
(0.414573 -0.209074 2.28714e-20)
(0.428154 -0.2054 3.88934e-21)
(0.232506 -0.414597 -3.9694e-21)
(0.213121 -0.378964 -9.13376e-21)
(0.198615 -0.348849 4.14833e-21)
(0.188126 -0.323606 -1.68857e-20)
(0.181165 -0.302545 8.65729e-21)
(0.177365 -0.285036 -1.66244e-20)
(0.176366 -0.270553 -1.18443e-20)
(0.177841 -0.258653 3.34342e-21)
(0.181499 -0.248957 3.97879e-21)
(0.187074 -0.241141 -1.79138e-20)
(0.194333 -0.234926 -8.31081e-21)
(0.203065 -0.230075 4.18116e-21)
(0.213082 -0.226381 -1.14693e-20)
(0.224216 -0.223664 -4.87959e-21)
(0.236318 -0.221768 -3.50087e-21)
(0.249255 -0.220553 -3.6116e-21)
(0.262906 -0.219895 -1.59854e-20)
(0.277166 -0.219677 -1.07384e-20)
(0.291937 -0.219792 1.58917e-21)
(0.307133 -0.220137 3.61156e-21)
(0.322671 -0.220608 4.26664e-21)
(0.338473 -0.2211 -1.46405e-20)
(0.354464 -0.221503 5.78042e-21)
(0.370563 -0.2217 -1.22675e-20)
(0.386689 -0.221568 1.22061e-20)
(0.402736 -0.220977 -1.61543e-20)
(0.418583 -0.219798 5.54551e-21)
(0.434202 -0.217836 -8.31108e-21)
(0.44972 -0.214782 -1.25003e-20)
(0.464133 -0.21094 -1.47184e-21)
(0.243491 -0.408717 -8.47996e-21)
(0.223794 -0.374357 -8.24851e-21)
(0.20931 -0.345403 -8.79513e-21)
(0.199104 -0.321224 -7.1842e-21)
(0.192637 -0.30113 2.21935e-20)
(0.1895 -0.284491 3.45021e-21)
(0.189303 -0.270785 1.05902e-20)
(0.191689 -0.259572 1.71821e-20)
(0.19634 -0.250479 8.96552e-21)
(0.202975 -0.243188 -1.1908e-20)
(0.21134 -0.237428 2.10074e-20)
(0.221211 -0.232965 -2.09165e-20)
(0.232386 -0.229602 2.08907e-20)
(0.244689 -0.227164 2.67752e-21)
(0.25796 -0.225503 5.80767e-21)
(0.272059 -0.224486 1.83168e-21)
(0.28686 -0.223996 2.58374e-20)
(0.302251 -0.223925 -3.90416e-21)
(0.318134 -0.224174 3.74447e-21)
(0.334417 -0.224645 1.33179e-20)
(0.351021 -0.225243 -1.51415e-20)
(0.367866 -0.225867 1.27112e-20)
(0.38488 -0.226411 5.93017e-22)
(0.401985 -0.226755 6.16987e-21)
(0.419101 -0.226771 1.17438e-20)
(0.436124 -0.226321 -2.04172e-21)
(0.452928 -0.225258 1.23983e-20)
(0.469482 -0.223359 1.87785e-20)
(0.485919 -0.220265 -2.03667e-20)
(0.50116 -0.216308 -1.45416e-20)
(0.254366 -0.402604 2.56137e-20)
(0.234483 -0.369614 -2.97967e-21)
(0.220141 -0.341894 6.74267e-21)
(0.210335 -0.318832 1.33209e-20)
(0.204473 -0.299742 -4.02003e-20)
(0.202106 -0.283996 4.55912e-21)
(0.202808 -0.271077 -1.71499e-20)
(0.206195 -0.260552 1.81634e-20)
(0.211924 -0.252054 -1.48488e-20)
(0.219695 -0.245272 8.94946e-21)
(0.229236 -0.239942 -3.27086e-20)
(0.240309 -0.235839 4.24165e-22)
(0.2527 -0.23277 -1.24297e-20)
(0.266221 -0.23057 1.87911e-20)
(0.280703 -0.229098 -2.08514e-20)
(0.295999 -0.228229 -1.19272e-21)
(0.311975 -0.227854 -1.87115e-20)
(0.328516 -0.227876 -1.74399e-21)
(0.345518 -0.228203 1.80171e-21)
(0.36289 -0.228748 4.90995e-21)
(0.380549 -0.229423 -2.71769e-20)
(0.39842 -0.230138 -9.70661e-22)
(0.416432 -0.230791 -1.63517e-20)
(0.434513 -0.231267 -3.97241e-21)
(0.452587 -0.231435 -1.08333e-20)
(0.470554 -0.231148 -1.22991e-20)
(0.488288 -0.230244 -1.34277e-20)
(0.505759 -0.228466 2.19061e-20)
(0.523102 -0.2254 6.06411e-21)
(0.539164 -0.2214 -1.39818e-20)
(0.265129 -0.396261 -1.70996e-20)
(0.245194 -0.364734 6.84736e-21)
(0.231126 -0.338317 -1.27059e-20)
(0.221843 -0.316419 1.97093e-21)
(0.216702 -0.298365 2.33127e-20)
(0.215212 -0.28353 -1.22047e-20)
(0.216913 -0.271404 -1.39494e-20)
(0.221392 -0.261563 -1.21939e-20)
(0.228284 -0.253647 4.56434e-22)
(0.237268 -0.247355 8.48025e-21)
(0.248055 -0.242428 -6.77708e-21)
(0.260393 -0.23865 -4.01524e-23)
(0.274055 -0.235836 2.27616e-20)
(0.288842 -0.23383 -1.18081e-20)
(0.304577 -0.232496 3.5363e-21)
(0.321102 -0.23172 -1.07013e-20)
(0.338279 -0.231401 4.09734e-21)
(0.355985 -0.231451 9.4802e-21)
(0.374113 -0.23179 1.15007e-20)
(0.392569 -0.232342 -1.28064e-20)
(0.41127 -0.233031 1.86803e-21)
(0.430141 -0.233779 1.19247e-20)
(0.449116 -0.234495 2.15878e-20)
(0.468131 -0.235073 6.15533e-21)
(0.487116 -0.235383 -2.35191e-20)
(0.505981 -0.235275 2.84088e-20)
(0.524603 -0.234575 -1.43913e-20)
(0.542958 -0.232989 -1.79119e-20)
(0.561188 -0.230038 -1.13366e-20)
(0.578066 -0.226089 -1.80469e-20)
(0.275777 -0.38969 9.37147e-21)
(0.255936 -0.359714 -8.09476e-21)
(0.24228 -0.334662 2.99728e-21)
(0.233649 -0.313973 1.82716e-20)
(0.229348 -0.296981 5.27912e-21)
(0.228845 -0.283069 -4.8324e-21)
(0.231646 -0.271738 1.19399e-20)
(0.23731 -0.262573 2.48006e-21)
(0.24545 -0.255223 1.26157e-20)
(0.255722 -0.249396 7.2939e-21)
(0.267824 -0.244843 1.93357e-22)
(0.281488 -0.241355 5.08081e-21)
(0.296475 -0.238755 -1.68885e-21)
(0.312576 -0.236893 3.08339e-21)
(0.329602 -0.235645 9.03006e-21)
(0.347389 -0.234902 -5.24224e-21)
(0.365791 -0.234573 1.3481e-20)
(0.384678 -0.23458 1.43672e-20)
(0.403937 -0.234854 -1.70505e-20)
(0.423472 -0.235333 1.77411e-20)
(0.443196 -0.235955 3.98217e-20)
(0.463038 -0.236658 -2.64519e-20)
(0.482934 -0.237367 2.77509e-20)
(0.502828 -0.237993 -1.97799e-20)
(0.522663 -0.238416 -2.96827e-21)
(0.54236 -0.238492 2.29331e-20)
(0.56181 -0.238036 -4.54453e-21)
(0.581002 -0.23672 1.82678e-20)
(0.600092 -0.23399 1.87696e-20)
(0.617778 -0.230216 -4.13429e-20)
(0.286309 -0.382894 -9.1741e-21)
(0.266718 -0.354553 4.38342e-21)
(0.253619 -0.330922 2.09319e-21)
(0.245774 -0.311477 -2.16695e-20)
(0.242436 -0.295567 -1.20431e-20)
(0.243031 -0.282586 9.51869e-21)
(0.247034 -0.272047 -2.79445e-20)
(0.253975 -0.263546 3.54303e-20)
(0.263444 -0.256744 -2.07783e-20)
(0.27508 -0.251356 2.59863e-21)
(0.288564 -0.247144 -3.9379e-21)
(0.303612 -0.243908 -1.39823e-20)
(0.319976 -0.241478 2.96641e-20)
(0.337435 -0.239714 1.21195e-20)
(0.355791 -0.238495 -1.25081e-20)
(0.374871 -0.237724 3.13419e-22)
(0.394521 -0.237317 7.73085e-21)
(0.414605 -0.237205 -1.7601e-20)
(0.435003 -0.23733 3.67845e-21)
(0.455613 -0.237643 1.30726e-20)
(0.476346 -0.238099 -5.50745e-21)
(0.497128 -0.238655 9.90395e-21)
(0.5179 -0.239259 -1.97722e-20)
(0.538611 -0.239845 2.95872e-20)
(0.559218 -0.240317 7.48469e-21)
(0.579663 -0.240548 -1.96668e-20)
(0.599858 -0.240359 -1.79075e-20)
(0.619817 -0.239392 -3.65254e-22)
(0.639725 -0.23701 2.54091e-20)
(0.65821 -0.233564 -7.31459e-21)
(0.296724 -0.375874 -2.60587e-21)
(0.277549 -0.349244 -2.028e-20)
(0.265158 -0.327084 2.48623e-20)
(0.258238 -0.308913 1.78381e-20)
(0.255986 -0.2941 1.9024e-20)
(0.257791 -0.282053 5.87667e-21)
(0.263096 -0.272298 8.82657e-21)
(0.271404 -0.264446 4.77448e-21)
(0.282284 -0.258168 -1.98491e-20)
(0.295356 -0.253192 3.73908e-20)
(0.310284 -0.249288 -3.23351e-20)
(0.326773 -0.246265 -2.62865e-21)
(0.344563 -0.243963 4.80816e-21)
(0.363421 -0.242247 -2.42038e-20)
(0.383143 -0.241006 2.16484e-20)
(0.403546 -0.240147 -6.6178e-21)
(0.424469 -0.239593 -1.80572e-20)
(0.445767 -0.239285 7.49525e-21)
(0.467315 -0.239172 -1.4389e-20)
(0.489003 -0.239219 -1.32907e-20)
(0.510736 -0.239396 -1.49334e-20)
(0.532437 -0.239678 3.48036e-21)
(0.554045 -0.240042 2.34217e-21)
(0.575513 -0.240454 -4.00406e-20)
(0.596812 -0.240857 -1.60656e-20)
(0.617903 -0.241159 1.00786e-20)
(0.638732 -0.241213 1.32463e-20)
(0.659357 -0.240652 -1.86263e-20)
(0.680022 -0.238755 -7.41315e-21)
(0.699294 -0.235825 1.233e-21)
(0.307023 -0.368632 -1.9316e-21)
(0.288439 -0.343782 1.31093e-20)
(0.276916 -0.323134 -3.80177e-21)
(0.271058 -0.306258 -4.77928e-21)
(0.270016 -0.29255 -2.9748e-20)
(0.273143 -0.281434 -7.17846e-21)
(0.279849 -0.272453 1.36686e-20)
(0.289613 -0.26523 -9.6413e-21)
(0.301981 -0.259452 -1.20355e-21)
(0.316556 -0.254858 -1.98755e-21)
(0.332987 -0.251229 1.23692e-20)
(0.350968 -0.248382 -1.9934e-20)
(0.370227 -0.246167 -1.40882e-20)
(0.390522 -0.244455 1.72819e-20)
(0.411642 -0.243141 -1.03425e-20)
(0.433395 -0.242139 -1.31341e-20)
(0.455613 -0.241378 2.8682e-20)
(0.478147 -0.240801 -4.59928e-21)
(0.500862 -0.240367 1.85515e-20)
(0.523641 -0.240047 -1.71534e-20)
(0.546382 -0.239822 -1.46412e-20)
(0.569 -0.239686 1.30738e-20)
(0.591425 -0.239641 -1.32842e-21)
(0.613612 -0.23969 -1.04006e-20)
(0.635535 -0.239826 9.44399e-21)
(0.657174 -0.240024 -3.04958e-20)
(0.67851 -0.240204 1.87212e-20)
(0.69967 -0.240044 -3.24295e-22)
(0.721006 -0.238761 -2.07277e-20)
(0.741057 -0.236583 3.36948e-20)
(0.317211 -0.36117 9.4914e-21)
(0.299405 -0.338159 -2.55638e-20)
(0.288907 -0.319053 -2.42273e-21)
(0.284251 -0.303487 1.34516e-20)
(0.284542 -0.290887 -3.69859e-21)
(0.289099 -0.280695 -1.10348e-20)
(0.297302 -0.272471 5.31664e-21)
(0.308605 -0.265856 6.58103e-21)
(0.322535 -0.260551 6.10693e-22)
(0.338675 -0.256307 8.82109e-21)
(0.356664 -0.252919 2.97196e-20)
(0.376181 -0.250213 -1.04452e-20)
(0.396945 -0.248046 3.0852e-21)
(0.418709 -0.246299 -8.26443e-21)
(0.441251 -0.244871 3.15415e-20)
(0.464377 -0.243681 -6.01473e-21)
(0.487912 -0.242662 2.04583e-20)
(0.511701 -0.241759 -8.34863e-21)
(0.535606 -0.240934 9.25644e-21)
(0.559502 -0.240158 1.45579e-20)
(0.583279 -0.239419 2.67754e-21)
(0.606841 -0.238718 1.05115e-20)
(0.63011 -0.238074 -9.03584e-21)
(0.653026 -0.23752 2.55051e-20)
(0.675557 -0.237103 -1.07044e-20)
(0.697687 -0.236881 4.04094e-20)
(0.719418 -0.236901 -1.17312e-20)
(0.740958 -0.236976 8.34647e-21)
(0.762851 -0.236343 -1.60954e-20)
(0.783703 -0.23513 3.22565e-20)
(0.327322 -0.353493 -2.05198e-20)
(0.310473 -0.33236 7.16742e-22)
(0.30115 -0.314814 -1.45166e-20)
(0.297828 -0.300567 2.75295e-21)
(0.299571 -0.289073 8.38166e-22)
(0.305664 -0.279793 -1.47931e-20)
(0.315458 -0.272308 -2.91424e-20)
(0.328381 -0.266276 1.51563e-20)
(0.34394 -0.261415 -2.2146e-20)
(0.361703 -0.25749 -1.24396e-20)
(0.381294 -0.254309 -7.50513e-21)
(0.402384 -0.251709 -6.40239e-21)
(0.424682 -0.249557 3.4093e-22)
(0.447934 -0.247741 -2.40401e-20)
(0.471915 -0.246167 1.70429e-20)
(0.496427 -0.244757 -2.82714e-20)
(0.521292 -0.243447 -7.58246e-21)
(0.546353 -0.242183 8.39605e-21)
(0.57147 -0.240924 1.09819e-20)
(0.596516 -0.239638 1.14861e-20)
(0.621377 -0.238307 9.16845e-21)
(0.645951 -0.236925 -2.34658e-20)
(0.670146 -0.235508 2.43829e-20)
(0.693885 -0.234091 -2.58537e-21)
(0.717109 -0.232744 -6.87407e-21)
(0.739771 -0.231589 -2.8125e-20)
(0.761839 -0.230812 -1.52672e-20)
(0.783539 -0.230426 2.83794e-20)
(0.805686 -0.22979 -9.42091e-21)
(0.827275 -0.22919 -9.96726e-21)