/*--------------------------------*- C++ -*----------------------------------*\
| =========                 |                                                 |
| \\      /  F ield         | OpenFOAM: The Open Source CFD Toolbox           |
|  \\    /   O peration     | Version:  v1912                                 |
|   \\  /    A nd           | Website:  www.openfoam.com                      |
|    \\/     M anipulation  |                                                 |
\*---------------------------------------------------------------------------*/
FoamFile
{
    version     2.0;
    format      ascii;
    class       surfaceScalarField;
    location    "3";
    object      phi;
}
// * * * * * * * * * * * * * * * * * * * * * * * * * * * * * * * * * * * * * //

dimensions      [0 3 -1 0 0 0 0];
oriented        oriented;


internalField   nonuniform List<scalar> 
18940
(
1.27022e-05
-0.239966
0.239953
0.000149856
-0.224739
0.224601
0.00037731
-0.21134
0.211113
0.000665153
-0.199309
0.199021
0.000984723
-0.188256
0.187936
0.00131467
-0.17791
0.17758
0.00163969
-0.168124
0.167799
0.00195016
-0.158825
0.158515
0.00224109
-0.149984
0.149693
0.00251091
-0.141589
0.141319
0.00276051
-0.133635
0.133386
0.00299243
-0.126123
0.125891
0.00321026
-0.119044
0.118827
0.00341812
-0.112391
0.112183
0.00362017
-0.106148
0.105946
0.0038202
-0.100295
0.100095
0.00402117
-0.0948104
0.0946095
0.00422475
-0.0896694
0.0894659
0.004431
-0.0848471
0.0846408
-0.0803192
0.0801118
0.00463843
2.81562e-05
-0.239994
0.000172856
-0.224883
0.000408659
-0.211576
0.00070378
-0.199604
0.00103034
-0.188582
0.0013664
-0.178246
0.00169663
-0.168454
0.00201158
-0.15914
0.0023065
-0.150279
0.0025801
-0.141862
0.00283352
-0.133889
0.00306956
-0.126359
0.00329205
-0.119267
0.00350536
-0.112604
0.00371396
-0.106356
0.00392198
-0.100503
0.00413272
-0.0950212
0.00434823
-0.089885
0.00456891
-0.0850677
-0.0805438
0.00479351
4.24959e-05
-0.240036
0.000195189
-0.225036
0.000438862
-0.21182
0.000741923
-0.199907
0.00107577
-0.188916
0.00141808
-0.178588
0.00175348
-0.168789
0.00207277
-0.15946
0.00237148
-0.150578
0.00264863
-0.142139
0.00290566
-0.134146
0.00314559
-0.126599
0.00337251
-0.119494
0.00359105
-0.112823
0.00380597
-0.106571
0.00402174
-0.100719
0.00424203
-0.0952415
0.00446927
-0.0901122
0.00470422
-0.0853027
-0.0807855
0.00494589
5.00721e-05
-0.240087
0.000212776
-0.225199
0.000466225
-0.212073
0.000778377
-0.200219
0.00112001
-0.189258
0.00146865
-0.178937
0.00180912
-0.16913
0.0021325
-0.159783
0.0024347
-0.15088
0.0027151
-0.14242
0.00297541
-0.134406
0.00321892
-0.126842
0.00344995
-0.119725
0.00367337
-0.113046
0.00389425
-0.106792
0.00411739
-0.100942
0.00434687
-0.0954709
0.00458552
-0.0903508
0.00483445
-0.0855516
-0.081044
0.00509296
5.62397e-05
-0.240143
0.000228674
-0.225371
0.000492179
-0.212337
0.000813554
-0.20054
0.00116293
-0.189607
0.00151769
-0.179291
0.00186287
-0.169475
0.00218993
-0.16011
0.00249518
-0.151185
0.00277836
-0.142703
0.00304148
-0.134669
0.0032881
-0.127089
0.00352275
-0.11996
0.00375055
-0.113274
0.00397687
-0.107019
0.00420685
-0.101172
0.004445
-0.0957091
0.00469457
-0.0906004
0.00495709
-0.0858141
-0.081319
0.00523209
6.13499e-05
-0.240204
0.000243109
-0.225553
0.00051672
-0.21261
0.000847283
-0.200871
0.00120417
-0.189964
0.00156467
-0.179652
0.00191405
-0.169824
0.00224422
-0.16044
0.00255191
-0.151493
0.00283724
-0.142988
0.00310256
-0.134935
0.00335167
-0.127338
0.00358931
-0.120197
0.00382085
-0.113506
0.00405191
-0.10725
0.00428804
-0.101408
0.00453417
-0.0959552
0.00479405
-0.0908603
0.00506966
-0.0860898
-0.0816102
0.00536086
6.59893e-05
-0.24027
0.000256694
-0.225744
0.000540184
-0.212894
0.000879616
-0.20121
0.00124354
-0.190328
0.00160916
-0.180018
0.00196207
-0.170177
0.0022946
-0.160773
0.00260396
-0.151802
0.00289068
-0.143275
0.00315742
-0.135201
0.00340823
-0.127589
0.00364806
-0.120437
0.00388249
-0.11374
0.00411743
-0.107485
0.0043588
-0.10165
0.00461202
-0.0962084
0.0048814
-0.0911297
0.00516946
-0.0863778
-0.0819172
0.00547647
7.02871e-05
-0.24034
0.000269625
-0.225943
0.000562668
-0.213187
0.000910495
-0.201558
0.00128082
-0.190698
0.0016508
-0.180388
0.00200638
-0.170533
0.00234037
-0.161107
0.00265048
-0.152112
0.00293764
-0.143562
0.00320486
-0.135469
0.00345642
-0.12784
0.00369745
-0.120678
0.00393373
-0.113977
0.00417144
-0.107722
0.00441691
-0.101895
0.00467607
-0.0964676
0.00495386
-0.0914075
0.00525345
-0.0866774
-0.0822394
0.00557562
7.43258e-05
-0.240415
0.00028205
-0.226151
0.000584272
-0.213489
0.000939904
-0.201914
0.00131585
-0.191074
0.00168928
-0.180761
0.00204652
-0.17089
0.00238093
-0.161441
0.0026907
-0.152422
0.00297722
-0.143849
0.0032438
-0.135735
0.00349495
-0.128091
0.00373599
-0.120919
0.00397285
-0.114213
0.00421197
-0.107961
0.00446008
-0.102143
0.0047237
-0.0967312
0.00500848
-0.0916922
0.00531834
-0.0869873
-0.0825757
0.00565468
7.81401e-05
-0.240493
0.000294079
-0.226367
0.000605086
-0.2138
0.000967837
-0.202277
0.0013485
-0.191455
0.00172433
-0.181137
0.00208213
-0.171248
0.00241577
-0.161775
0.002724
-0.15273
0.00300861
-0.144133
0.00327325
-0.136
0.00352266
-0.128341
0.00376228
-0.121159
0.0039982
-0.114449
0.00423707
-0.1082
0.00448601
-0.102392
0.00475219
-0.0969974
0.00504209
-0.0919821
0.00536052
-0.0873057
-0.0829249
0.00570966
8.17837e-05
-0.240575
0.000305844
-0.226591
0.000625236
-0.21412
0.000994345
-0.202646
0.00137872
-0.191839
0.00175582
-0.181514
0.00211294
-0.171605
0.00244453
-0.162106
0.00274986
-0.153036
0.00303117
-0.144415
0.00329243
-0.136261
0.00353855
-0.128587
0.00377511
-0.121395
0.00400827
-0.114682
0.00424486
-0.108437
0.00449241
-0.10264
0.00475875
-0.0972637
0.00505133
-0.0922747
0.0053761
-0.0876305
-0.0832849
0.00573617
8.53397e-05
-0.24066
0.000317541
-0.226823
0.000644912
-0.214447
0.00101955
-0.20302
0.00140656
-0.192226
0.00178371
-0.181891
0.00213884
-0.17196
0.002467
-0.162435
0.00276799
-0.153337
0.00304449
-0.144691
0.00330075
-0.136517
0.00354188
-0.128828
0.0037735
-0.121627
0.00400178
-0.114911
0.0042337
-0.108669
0.0044771
-0.102883
0.00474055
-0.0975272
0.00503263
-0.0925668
0.0053607
-0.0879586
-0.0836534
0.00572913
8.89971e-05
-0.240749
0.000329489
-0.227063
0.000664417
-0.214782
0.00104368
-0.2034
0.00143215
-0.192615
0.00180807
-0.182267
0.00215985
-0.172312
0.00248316
-0.162758
0.00277832
-0.153632
0.00304841
-0.144961
0.00329797
-0.136767
0.00353224
-0.129062
0.00375683
-0.121851
0.00397786
-0.115132
0.00420229
-0.108893
0.0044382
-0.103119
0.0046949
-0.0977839
0.00498226
-0.0928542
0.00530941
-0.0882857
-0.0840263
0.00568238
9.31185e-05
-0.240842
0.000342207
-0.227312
0.0006842
-0.215124
0.00106706
-0.203782
0.00145577
-0.193003
0.0018291
-0.18264
0.00217616
-0.172659
0.00249318
-0.163075
0.002781
-0.15392
0.00304309
-0.145223
0.00328422
-0.137008
0.00350969
-0.129288
0.00372504
-0.122067
0.0039362
-0.115343
0.00414993
-0.109107
0.00437443
-0.103343
0.00461958
-0.098029
0.00489667
-0.0931313
0.00521696
-0.088606
-0.0843981
0.00558876
9.83673e-05
-0.24094
0.000356466
-0.227571
0.000704833
-0.215472
0.00109012
-0.204168
0.00147772
-0.193391
0.00184713
-0.18301
0.0021881
-0.173
0.00249745
-0.163384
0.00277651
-0.154199
0.00302908
-0.145476
0.00326012
-0.137239
0.00347492
-0.129502
0.00367882
-0.122271
0.00387739
-0.115541
0.00407698
-0.109307
0.00428554
-0.103552
0.00451334
-0.0982568
0.00477297
-0.0933909
0.00507817
-0.0889112
-0.0847605
0.00544054
0.000105734
-0.241046
0.000373146
-0.227838
0.000726871
-0.215826
0.00111325
-0.204554
0.00149841
-0.193776
0.00186256
-0.183374
0.00219613
-0.173333
0.00249654
-0.163685
0.00276557
-0.154468
0.00300732
-0.145718
0.00322685
-0.137459
0.00342935
-0.129705
0.00361986
-0.122461
0.00380337
-0.115725
0.00398547
-0.109489
0.0041734
-0.10374
0.00437722
-0.0984606
0.0046105
-0.0936242
0.0048899
-0.0891906
-0.0851028
0.00523215
0.000116423
-0.241163
0.000393174
-0.228115
0.000750951
-0.216184
0.00113701
-0.20494
0.00151831
-0.194158
0.00187586
-0.183731
0.0022008
-0.173658
0.00249115
-0.163975
0.00274913
-0.154726
0.00297907
-0.145948
0.00318607
-0.137666
0.00337515
-0.129894
0.00355089
-0.122637
0.0037175
-0.115892
0.00387947
-0.109651
0.00404272
-0.103903
0.00421623
-0.0986342
0.00441361
-0.0938215
0.00465469
-0.0894317
-0.0854102
0.00496214
0.000132477
-0.241295
0.000418756
-0.228401
0.000778697
-0.216544
0.00116238
-0.205324
0.00153802
-0.194533
0.00188746
-0.184081
0.00220256
-0.173973
0.00248193
-0.164254
0.00272817
-0.154972
0.00294579
-0.146165
0.00313986
-0.13786
0.00331512
-0.130069
0.00347554
-0.122797
0.00362435
-0.11604
0.00376449
-0.109791
0.00389994
-0.104039
0.00403747
-0.0987717
0.00418873
-0.0939728
0.00437447
-0.0896174
-0.0856613
0.00462555
0.000161134
-0.241456
0.000456114
-0.228696
0.000813126
-0.216901
0.00119033
-0.205701
0.00155766
-0.194901
0.00189729
-0.184421
0.00220148
-0.174278
0.00246925
-0.164522
0.00270353
-0.155206
0.00290898
-0.146371
0.00309063
-0.138041
0.00325291
-0.130232
0.0033991
-0.122944
0.00353113
-0.116172
0.00364984
-0.109909
0.00375593
-0.104145
0.00385135
-0.0988671
0.00394035
-0.0940618
0.00403833
-0.0897154
-0.0858218
0.00419888
0.000222876
-0.241679
0.000510896
-0.228984
0.000853707
-0.217243
0.00121881
-0.206066
0.0015753
-0.195257
0.0019039
-0.184749
0.00219658
-0.17457
0.00245261
-0.164778
0.00267525
-0.155429
0.00286941
-0.146565
0.00304023
-0.138212
0.0031921
-0.130383
0.00332799
-0.123079
0.00344903
-0.116293
0.00355425
-0.110015
0.00364053
-0.104231
0.00370195
-0.0989285
0.00372629
-0.0940861
0.00369989
-0.089689
-0.0858326
0.00371068
0.24403
0.00017881
-0.244209
0.243882
0.000148166
0.243746
0.000136482
0.243613
0.000132544
0.243482
0.0001317
0.24335
0.000131929
0.243217
0.000132751
0.243083
0.000133666
0.242949
0.000134318
0.242814
0.0001345
0.24268
0.000134097
0.242547
0.00013306
0.242416
0.000131337
0.242287
0.000128865
0.242162
0.000125479
0.242041
0.000120951
0.241926
0.000114224
0.241822
0.000104757
0.241738
8.3298e-05
5.91746e-05
0.233821
0.000358988
-0.234001
0.233619
0.000350174
0.233405
0.000350554
0.23318
0.000357142
0.232946
0.000365849
0.232703
0.000374581
0.232453
0.000382998
0.232196
0.000390654
0.231933
0.000397138
0.231666
0.000402146
0.231394
0.000405489
0.23112
0.000407038
0.230845
0.000406678
0.230569
0.000404275
0.230295
0.000399565
0.230024
0.000392219
0.229757
0.000381089
0.229496
0.000365908
0.229238
0.000341202
0.000313296
0.222794
0.00049172
-0.222927
0.222628
0.000516133
0.222436
0.000542595
0.222222
0.000570704
0.22199
0.000598625
0.221739
0.000624838
0.221473
0.000649025
0.221193
0.000670877
0.2209
0.000690059
0.220596
0.000706278
0.220282
0.000719329
0.21996
0.000729075
0.219631
0.000735388
0.219298
0.000738147
0.21896
0.000737134
0.21862
0.000732149
0.218279
0.000722486
0.217936
0.000708265
0.217591
0.000686795
0.000660526
0.211311
0.000556167
-0.211376
0.211211
0.000616163
0.21108
0.000673885
0.210921
0.000729472
0.210737
0.000782643
0.210529
0.000832414
0.2103
0.000878414
0.210051
0.000920348
0.209783
0.000957903
0.209498
0.000990815
0.209199
0.00101889
0.208886
0.00104198
0.208561
0.00106001
0.208226
0.00107289
0.207883
0.00108054
0.207532
0.00108293
0.207175
0.00107978
0.206812
0.00107141
0.206442
0.00105656
0.00103645
0.19973
0.000552257
-0.199726
0.199699
0.000647107
0.199636
0.000737511
0.199542
0.000823216
0.19942
0.000904656
0.199271
0.000981188
0.199097
0.00105239
0.198899
0.00111791
0.19868
0.00117741
0.19844
0.00123062
0.198182
0.00127733
0.197906
0.00131742
0.197615
0.0013508
0.197311
0.00137748
0.196994
0.00139749
0.196666
0.00141098
0.196328
0.00141796
0.19598
0.00141897
0.195623
0.00141352
0.00140262
0.188321
0.000488787
-0.188258
0.188351
0.000617589
0.188348
0.000740613
0.188314
0.000857233
0.18825
0.000968059
0.188159
0.00107263
0.188041
0.0011705
0.187898
0.00126122
0.187731
0.00134443
0.187541
0.0014198
0.187332
0.00148711
0.187103
0.00154622
0.186857
0.00159707
0.186594
0.00163972
0.186317
0.0016743
0.186027
0.00170112
0.185725
0.00172044
0.185411
0.00173301
0.185086
0.00173881
0.00173898
0.1773
0.000379806
-0.177192
0.177377
0.000541224
0.177421
0.00069605
0.177435
0.000843295
0.17742
0.000983469
0.177376
0.00111618
0.177306
0.00124094
0.17721
0.00135725
0.17709
0.00146466
0.176947
0.0015628
0.176782
0.00165141
0.176598
0.00173033
0.176396
0.00179949
0.176177
0.00185899
0.175942
0.00190907
0.175693
0.00195014
0.175431
0.00198273
0.175156
0.00200777
0.174869
0.00202563
0.00203766
0.166812
0.000238997
-0.166671
0.166921
0.000432054
0.166999
0.000617521
0.167048
0.000794536
0.167068
0.0009634
0.167061
0.00112371
0.167027
0.00127493
0.166967
0.00141648
0.166884
0.00154783
0.166778
0.00166857
0.166651
0.00177836
0.166505
0.00187701
0.16634
0.00196444
0.166158
0.00204076
0.165961
0.00210628
0.165749
0.00216156
0.165525
0.00220732
0.165288
0.00224472
0.165039
0.00227452
0.00229836
0.156936
7.71819e-05
-0.156774
0.157066
0.000302178
0.157166
0.000517116
0.157238
0.000722894
0.157282
0.000919559
0.157299
0.00110668
0.15729
0.00128363
0.157257
0.00144975
0.1572
0.00160443
0.157122
0.00174718
0.157022
0.0018776
0.156904
0.00199542
0.156768
0.00210053
0.156615
0.00219305
0.156448
0.00227333
0.156268
0.00234204
0.156075
0.00240013
0.155871
0.00244902
0.155655
0.00248991
0.00252483
0.147709
-9.2275e-05
-0.147539
0.147851
0.000159805
0.147963
0.000404762
0.148048
0.000638222
0.148106
0.000861799
0.148138
0.00107494
0.148144
0.00127685
0.148127
0.0014668
0.148088
0.0016441
0.148027
0.00180815
0.147946
0.00195846
0.147846
0.00209468
0.14773
0.00221663
0.147599
0.0023244
0.147454
0.00241836
0.147297
0.00249929
0.147129
0.00256835
0.14695
0.00262727
0.146762
0.00267778
0.0027225
0.139137
-0.000263128
-0.138966
0.139285
1.17784e-05
0.139401
0.000288255
0.139492
0.000548028
0.139555
0.000797899
0.139594
0.0010364
0.139608
0.00126264
0.139599
0.00147578
0.139568
0.00167504
0.139517
0.00185971
0.139446
0.00202917
0.139358
0.00218298
0.139253
0.00232085
0.139135
0.0024428
0.139004
0.00254918
0.138863
0.00264083
0.138712
0.0027191
0.138553
0.00278612
0.138387
0.00284426
0.00289693
0.131212
-0.000435318
-0.13104
0.131353
-0.000129348
0.131471
0.000169997
0.131561
0.000457971
0.131625
0.000733678
0.131665
0.000997113
0.13168
0.00124727
0.131673
0.00148316
0.131644
0.00170388
0.131595
0.0019086
0.131527
0.0020966
0.131443
0.00226727
0.131344
0.00242019
0.131231
0.00255525
0.131108
0.0026727
0.130975
0.0027734
0.130836
0.00285884
0.13069
0.00293161
0.13054
0.00299479
0.00305301
0.123901
-0.000602158
-0.123734
0.124039
-0.000267119
0.124152
5.66655e-05
0.124238
0.000372326
0.124298
0.000673616
0.124333
0.000961789
0.124345
0.00123561
0.124334
0.00149396
0.124302
0.00173582
0.124251
0.00196021
0.124181
0.00216627
0.124095
0.00235319
0.123995
0.0025204
0.123883
0.00266756
0.12376
0.00279476
0.123631
0.00290275
0.123497
0.00299307
0.12336
0.00306879
0.123221
0.00313374
0.00319433
0.117179
-0.000762152
-0.117019
0.117311
-0.00039896
0.117416
-4.82693e-05
0.117495
0.000293662
0.117548
0.000620878
0.117576
0.000933809
0.11758
0.00123125
0.117562
0.00151197
0.117523
0.00177479
0.117465
0.00201862
0.117388
0.00224238
0.117297
0.00244511
0.117191
0.00262596
0.117074
0.00278434
0.116949
0.00292001
0.116818
0.00303351
0.116685
0.00312616
0.116552
0.00320156
0.116422
0.00326409
0.00332284
0.111013
-0.00091395
-0.110862
0.111137
-0.000522474
0.111232
-0.000143508
0.111302
0.000224209
0.111345
0.000577741
0.111363
0.000915603
0.111357
0.00123677
0.11133
0.00153986
0.111281
0.00182359
0.111213
0.0020867
0.111127
0.00232795
0.111026
0.00254613
0.110912
0.00274012
0.110787
0.00290893
0.110655
0.0030519
0.11052
0.00316912
0.110385
0.00326139
0.110253
0.00333265
0.11013
0.00338722
0.0034385
0.105369
-0.00105635
-0.105226
0.105482
-0.000635977
0.105567
-0.000228783
0.105626
0.000165781
0.105658
0.000545771
0.105665
0.000908779
0.105648
0.0012538
0.105608
0.00157931
0.105548
0.0018839
0.105468
0.00216618
0.105372
0.00242472
0.10526
0.00265805
0.105135
0.00286473
0.105001
0.00304333
0.10486
0.00319256
0.104717
0.00331181
0.104578
0.0034009
0.104447
0.0034637
0.104331
0.00350295
0.00353867
0.100212
-0.00118853
-0.100079
0.100314
-0.000738722
0.100389
-0.00030318
0.100435
0.000119066
0.100455
0.00052577
0.10045
0.00091405
0.100421
0.00128299
0.100369
0.00163087
0.100297
0.0019562
0.100206
0.00225746
0.100098
0.00253303
0.0999744
0.0027812
0.099839
0.00300014
0.0996944
0.00318794
0.0995444
0.00334254
0.0993939
0.00346228
0.0992492
0.00354556
0.0991175
0.00359543
0.0990094
0.0036111
0.00361951
0.095509
-0.00131008
-0.0953875
0.0956008
-0.000830466
0.0956639
-0.000366282
0.095699
8.39407e-05
0.0957072
0.000517614
0.0956902
0.000931022
0.0956494
0.00132377
0.0955865
0.00169379
0.0955031
0.00203955
0.0954012
0.00235941
0.0952826
0.00265157
0.0951497
0.0029141
0.0950051
0.00314481
0.0948518
0.00334124
0.0946938
0.00350046
0.0945367
0.0036194
0.0943877
0.00369454
0.0942566
0.00372657
0.0941548
0.00371289
0.00368818
0.0912278
-0.00142104
-0.0911168
0.0913092
-0.000911898
0.0913622
-0.000419209
0.0913857
6.03648e-05
0.0913838
0.000519513
0.0913571
0.000957774
0.0913069
0.00137399
0.091235
0.00176562
0.0911434
0.00213118
0.0910339
0.00246892
0.0909085
0.00277692
0.0907696
0.00305305
0.0906196
0.00329483
0.0904616
0.00349925
0.0902995
0.00366253
0.0901391
0.00377984
0.0899883
0.00384532
0.089862
0.00385282
0.0897725
0.00380241
0.00377166
0.0873339
-0.0872332
-0.0015218
0.0874057
-0.000983629
0.0874536
-0.000467179
0.0874631
5.08476e-05
0.0874569
0.000525789
0.0874234
0.000991249
0.0873672
0.00143013
0.0872905
0.00184232
0.0871952
0.00222656
0.0870831
0.00258101
0.0869564
0.00290362
0.0868173
0.00319217
0.0866681
0.003444
0.0865117
0.00365567
0.0863516
0.00382263
0.086193
0.00393844
0.0860436
0.00399474
0.0859208
0.00397557
0.0858397
0.00388356
0.00377869
0.244655
2.82082e-05
-0.244683
0.244677
-2.21134e-05
0.244713
-3.57129e-05
0.244748
-3.58441e-05
0.244781
-3.25094e-05
0.244806
-2.56127e-05
0.244823
-1.63987e-05
0.244829
-6.00361e-06
0.244824
4.82877e-06
0.244808
1.56375e-05
0.244782
2.61409e-05
0.244746
3.62012e-05
0.2447
4.57525e-05
0.244645
5.48767e-05
0.244582
6.34118e-05
0.244511
7.09466e-05
0.244434
7.65971e-05
0.244354
8.0014e-05
0.244279
7.56642e-05
6.95837e-05
0.233205
-0.000226734
-0.23295
0.233429
-0.000245861
0.233634
-0.000240894
0.23382
-0.000222562
0.233989
-0.000200781
0.234138
-0.000174632
0.234267
-0.0001452
0.234374
-0.000113638
0.23446
-8.09092e-05
0.234523
-4.78173e-05
0.234565
-1.50583e-05
0.234584
1.67789e-05
0.234582
4.77265e-05
0.234558
7.87008e-05
0.234513
0.000108835
0.234447
0.000136941
0.234362
0.000161334
0.23426
0.000182166
0.234139
0.00019633
0.00020796
0.220141
-0.000671973
-0.219696
0.220545
-0.00064951
0.220916
-0.000612537
0.221261
-0.000566597
0.221577
-0.000517549
0.221867
-0.000464003
0.222128
-0.000406943
0.222362
-0.00034727
0.222567
-0.000285843
0.222743
-0.000223485
0.222889
-0.000161122
0.223006
-0.00010059
0.223097
-4.35748e-05
0.223159
1.67238e-05
0.223192
7.65714e-05
0.223194
0.000134721
0.223169
0.00018656
0.223116
0.000234813
0.223035
0.000277588
0.000316025
0.206685
-0.00123653
-0.20612
0.207214
-0.00117841
0.207711
-0.00110932
0.208178
-0.00103394
0.208616
-0.000955242
0.209023
-0.00087158
0.2094
-0.000783989
0.209746
-0.000693346
0.210061
-0.000600514
0.210344
-0.000506421
0.210595
-0.000412045
0.210813
-0.000318384
0.210995
-0.000225745
0.211145
-0.000132974
0.211261
-4.03396e-05
0.211349
4.75898e-05
0.211405
0.000130303
0.211428
0.000211777
0.211418
0.000287577
0.00035835
0.193524
-0.0018741
-0.192887
0.194132
-0.0017861
0.194711
-0.00168796
0.195261
-0.00158428
0.195782
-0.00147647
0.196274
-0.00136294
0.196734
-0.00124478
0.197164
-0.00112291
0.197562
-0.000998242
0.197927
-0.00087171
0.198259
-0.000744197
0.198557
-0.000616453
0.198821
-0.000489062
0.19905
-0.000362335
0.199246
-0.000236929
0.199409
-0.000115094
0.199542
-2.64264e-06
0.199638
0.000116284
0.199699
0.000226262
0.000331113
0.181
-0.00255124
-0.180323
0.181652
-0.00243783
0.182278
-0.00231389
0.182877
-0.00218396
0.18345
-0.00204871
0.183994
-0.00190678
0.184508
-0.0017593
0.184992
-0.00160727
0.185446
-0.00145167
0.185868
-0.00129347
0.186257
-0.0011336
0.186613
-0.000972916
0.186937
-0.000812249
0.187227
-0.000652306
0.187484
-0.000493936
0.187707
-0.000338366
0.187891
-0.000186902
0.188049
-4.19154e-05
0.188171
0.000104709
0.00024406
0.16927
-0.00324531
-0.168576
0.169942
-0.00310987
0.170591
-0.00296297
0.171216
-0.00280893
0.171816
-0.00264809
0.172388
-0.00247947
0.172933
-0.00230425
0.17345
-0.00212354
0.173936
-0.00193842
0.174393
-0.00174994
0.174818
-0.00155911
0.175212
-0.00136692
0.175575
-0.0011743
0.175904
-0.000982115
0.176202
-0.000791266
0.176466
-0.000602716
0.176697
-0.000417703
0.176892
-0.000236959
0.177058
-6.18396e-05
0.000110945
0.158381
-0.00394261
-0.157683
0.159059
-0.00378777
0.159716
-0.00362019
0.160351
-0.00344388
0.160962
-0.00325908
0.161548
-0.00306525
0.162107
-0.0028637
0.162639
-0.00265568
0.163143
-0.00244238
0.163618
-0.00222496
0.164064
-0.00200453
0.164479
-0.00178215
0.164863
-0.00155885
0.165217
-0.00133561
0.165539
-0.00111339
0.165829
-0.000893195
0.166088
-0.000676116
0.166314
-0.000462908
0.166506
-0.000254303
-5.34954e-05
0.148314
-0.00463624
-0.147621
0.148991
-0.00446412
0.149648
-0.00427764
0.150285
-0.00408042
0.150899
-0.00387285
0.151488
-0.00365488
0.152053
-0.00342802
0.152591
-0.00319369
0.153101
-0.00295322
0.153584
-0.00270789
0.154039
-0.00245891
0.154464
-0.00220741
0.15486
-0.00195452
0.155225
-0.00170129
0.155561
-0.00144878
0.155866
-0.00119804
0.15614
-0.000950103
0.156383
-0.000705929
0.156595
-0.000466353
-0.000232971
0.139026
-0.00532424
-0.138338
0.139698
-0.00513665
0.140353
-0.00493254
0.140988
-0.00471527
0.141601
-0.00448556
0.14219
-0.00424399
0.142754
-0.00399232
0.143293
-0.00373219
0.143805
-0.00346511
0.144289
-0.00319248
0.144746
-0.00291559
0.145174
-0.00263569
0.145574
-0.00235394
0.145944
-0.0020715
0.146285
-0.00178949
0.146596
-0.00150902
0.146877
-0.00123117
0.147128
-0.000956969
0.147349
-0.000687309
-0.000423522
0.13046
-0.00600802
-0.129776
0.13113
-0.00580665
0.131783
-0.00558572
0.132417
-0.00534858
0.133028
-0.00509674
0.133615
-0.00483146
0.134178
-0.00455488
0.134715
-0.00426891
0.135225
-0.00397529
0.135708
-0.00367551
0.136163
-0.00337098
0.136591
-0.00306298
0.136989
-0.00275276
0.137359
-0.00244155
0.1377
-0.00213051
0.138012
-0.00182081
0.138295
-0.00151362
0.138548
-0.00121004
0.138771
-0.00091107
-0.000617989
0.122565
-0.00669122
-0.121881
0.123236
-0.00647783
0.12389
-0.00624019
0.124524
-0.00598254
0.125135
-0.00570772
0.125722
-0.00541788
0.126282
-0.00511565
0.126817
-0.0048033
0.127324
-0.00448275
0.127804
-0.00415562
0.128257
-0.00382335
0.128681
-0.00348728
0.129077
-0.00314869
0.129444
-0.00280882
0.129783
-0.00246893
0.130092
-0.00213023
0.130372
-0.00179394
0.130624
-0.00146128
0.130846
-0.00113336
-0.0008116
0.115292
-0.00737897
-0.114604
0.115969
-0.00715538
0.116629
-0.00690006
0.117267
-0.00662
0.117879
-0.00632033
0.118466
-0.00600427
0.119025
-0.00567508
0.119557
-0.00533543
0.120062
-0.00498735
0.120539
-0.00463247
0.120988
-0.00427222
0.121408
-0.0039079
0.1218
-0.00354079
0.122164
-0.00317218
0.122498
-0.00280334
0.122803
-0.00243556
0.12308
-0.00207013
0.123327
-0.00170836
0.123545
-0.00135151
-0.00100109
0.108602
-0.00807727
-0.107904
0.109292
-0.00784511
0.109961
-0.00756909
0.110604
-0.00726307
0.111219
-0.00693559
0.111806
-0.00659106
0.112364
-0.0062334
0.112894
-0.00586551
0.113396
-0.00548934
0.11387
-0.00510636
0.114316
-0.00471784
0.114733
-0.00432501
0.115121
-0.00392912
0.115481
-0.00353145
0.115811
-0.00313333
0.116111
-0.00273611
0.116382
-0.00234119
0.116624
-0.00194997
0.116836
-0.00156384
-0.00118441
0.102462
-0.0087925
-0.101746
0.103169
-0.008552
0.103849
-0.00824915
0.104497
-0.00791183
0.105115
-0.00755291
0.105701
-0.00717772
0.106258
-0.00679049
0.106787
-0.00639392
0.107287
-0.00598948
0.107759
-0.00557824
0.108202
-0.00516123
0.108617
-0.00473955
0.109002
-0.00431441
0.109358
-0.00388713
0.109684
-0.0034591
0.109979
-0.00303179
0.110245
-0.0026067
0.11048
-0.00218538
0.110686
-0.00176936
-0.00136036
0.0968403
-0.0095305
-0.0961023
0.0975663
-0.00927801
0.0982555
-0.00893835
0.0989073
-0.00856364
0.0995247
-0.00817032
0.10011
-0.00776348
0.100667
-0.0073468
0.101195
-0.00692194
0.101695
-0.00648948
0.102166
-0.00604995
0.102609
-0.00560412
0.103023
-0.005153
0.103406
-0.00469783
0.103759
-0.00424002
0.104081
-0.00378112
0.104372
-0.00332272
0.104632
-0.0028665
0.104861
-0.00241414
0.105059
-0.00196735
-0.00152802
0.0917061
-0.0102968
-0.0909398
0.0924479
-0.0100198
0.0931402
-0.00963057
0.0937909
-0.00921442
0.094407
-0.00878642
0.0949928
-0.00834927
0.0955507
-0.0079047
0.0960813
-0.00745254
0.0965842
-0.00699235
0.0970584
-0.0065242
0.0975031
-0.00604873
0.0979171
-0.00556704
0.0982998
-0.00508054
0.0986506
-0.00459086
0.0989692
-0.00409971
0.0992555
-0.00360892
0.0995093
-0.00312033
0.0997309
-0.0026358
0.0999208
-0.00215721
-0.00168664
0.0870179
-0.0111016
-0.0862131
0.0877658
-0.0107678
0.0884539
-0.0103186
0.0891027
-0.00986322
0.0897205
-0.00940422
0.0903113
-0.00894007
0.0908762
-0.00846958
0.0914142
-0.00799062
0.0919239
-0.00750206
0.0924037
-0.00700392
0.092852
-0.00649709
0.0932679
-0.00598295
0.0936506
-0.00546323
0.0939996
-0.00493985
0.0943147
-0.00441479
0.0945958
-0.00389009
0.0948433
-0.00336775
0.0950573
-0.00284983
0.0952385
-0.00233837
-0.00183567
0.0827236
-0.0119427
-0.0818825
0.0834569
-0.011501
0.0841418
-0.0110035
0.0847983
-0.0105197
0.0854292
-0.0100352
0.0860352
-0.00954606
0.0866149
-0.00904924
0.0871659
-0.00854161
0.0876859
-0.00802206
0.088173
-0.00749108
0.088626
-0.00695005
0.0890439
-0.00640083
0.0894262
-0.00584554
0.0897727
-0.0052864
0.0900836
-0.00472566
0.090359
-0.00416552
0.0905994
-0.00360816
0.0908054
-0.00305577
0.0909775
-0.00251053
-0.00197496
0.0787263
-0.0780277
-0.0126413
0.0794343
-0.0122091
0.0801535
-0.0117226
0.080847
-0.0112133
0.0815113
-0.0106994
0.0821451
-0.0101799
0.0827465
-0.00965063
0.0833136
-0.00910869
0.0838447
-0.00855323
0.0843388
-0.00798516
0.0847951
-0.00740636
0.0852134
-0.00681909
0.0855937
-0.0062258
0.0859362
-0.00562894
0.0862415
-0.00503095
0.0865101
-0.00443416
0.0867428
-0.00384084
0.0869403
-0.00325326
0.0871034
-0.00267366
-0.00210469
0.0108897
0.062223
-0.0615498
-0.0115629
0.0102593
0.0667963
-0.0661659
0.00966489
0.0717137
-0.0711193
0.00909824
0.0769815
-0.0764149
0.00855076
0.0826068
-0.0820593
0.00801384
0.0885997
-0.0880628
0.00747928
0.0949778
-0.0944433
0.00693964
0.101768
-0.101229
0.00638843
0.10901
-0.108459
0.00582019
0.116758
-0.11619
0.00523042
0.125082
-0.124492
0.00461567
0.134071
-0.133456
0.00397386
0.143833
-0.143191
0.00330519
0.154495
-0.153827
0.0026142
0.166198
-0.165507
0.00191345
0.179077
-0.178377
0.00123011
0.193236
-0.192553
0.000616103
0.208671
-0.208057
0.000148368
0.225068
-0.2246
0.241482
-0.241334
0.0112475
0.0629253
-0.0119498
0.0105881
0.0674556
0.00996522
0.0723366
0.009371
0.0775757
0.00879708
0.0831807
0.00823499
0.0891618
0.00767652
0.0955363
0.00711415
0.102331
0.0065412
0.109583
0.005952
0.117347
0.00534195
0.125692
0.0047076
0.134705
0.00404709
0.144494
0.00336117
0.155181
0.00265528
0.166904
0.00194333
0.179789
0.00125381
0.193925
0.000638112
0.209287
0.000180521
0.225525
0.241663
0.0115767
0.0636546
-0.012306
0.0108903
0.0681421
0.0102407
0.0729862
0.00962053
0.0781959
0.00902169
0.0837795
0.00843583
0.0897477
0.00785481
0.0961173
0.00727102
0.102914
0.00667765
0.110177
0.00606889
0.117956
0.00543999
0.126321
0.00478755
0.135358
0.0041099
0.145171
0.00340826
0.155883
0.00268881
0.167623
0.00196636
0.180512
0.00127026
0.194622
0.000652052
0.209905
0.000192516
0.225985
0.241855
0.0118772
0.0644088
-0.0126315
0.0111657
0.0688536
0.0104912
0.0736607
0.00984676
0.0788403
0.0092245
0.0844018
0.0086163
0.0903559
0.00801407
0.0967195
0.00741018
0.103518
0.00679772
0.110789
0.00617072
0.118583
0.00552438
0.126967
0.00485526
0.136027
0.00416188
0.145865
0.00344585
0.156599
0.00271397
0.168355
0.00198185
0.181244
0.0012795
0.195324
0.000658337
0.210526
0.000197131
0.226446
0.242053
0.0121491
0.0651861
-0.0129263
0.0114142
0.0695885
0.0107166
0.0743583
0.0100495
0.0795075
0.00940528
0.085046
0.00877612
0.0909851
0.00815402
0.0973416
0.00753135
0.104141
0.00690112
0.111419
0.00625725
0.119227
0.00559485
0.12763
0.00491049
0.136711
0.00420285
0.146572
0.00347386
0.157328
0.0027309
0.169098
0.00199033
0.181985
0.00128273
0.196032
0.000659438
0.211149
0.000198169
0.226907
0.242251
0.0123925
0.0659845
-0.0131909
0.0116361
0.0703449
0.0109169
0.0750775
0.0102285
0.0801958
0.00956383
0.0857107
0.00891508
0.0916338
0.00827443
0.0979823
0.00763429
0.104781
0.00698761
0.112066
0.00632825
0.119886
0.00565122
0.128307
0.00495312
0.137409
0.00423275
0.147293
0.0034924
0.158068
0.00273996
0.16985
0.00199246
0.182732
0.00128101
0.196743
0.00065683
0.211773
0.000196747
0.227367
0.242447
0.0126077
0.0668025
-0.0134257
0.0118312
0.0711214
0.0110919
0.0758168
0.0103838
0.0809039
0.00969999
0.0863945
0.00903297
0.0923008
0.00837508
0.0986402
0.00771879
0.105437
0.00705702
0.112728
0.00638356
0.12056
0.00569338
0.128997
0.00498307
0.13812
0.00425158
0.148024
0.00350151
0.158818
0.00274126
0.170611
0.00198846
0.183485
0.00127468
0.197457
0.000651044
0.212397
0.000193575
0.227825
0.242641
0.012795
0.0676388
-0.0136312
0.0119998
0.0719165
0.0112417
0.0765748
0.0105152
0.0816305
0.00981349
0.0870962
0.00912951
0.0929848
0.0084557
0.099314
0.00778459
0.106109
0.00710912
0.113403
0.00642301
0.121246
0.00572119
0.129699
0.00500026
0.138841
0.00425932
0.148765
0.00350125
0.159576
0.00273492
0.171377
0.00197851
0.184241
0.00126402
0.198171
0.000642521
0.213019
0.000189224
0.228278
0.24283
0.0129545
0.0684923
-0.013808
0.0121416
0.0727294
0.011366
0.0773505
0.0106221
0.0823743
0.00990388
0.0878145
0.00920425
0.0936845
0.00851587
0.100002
0.00783135
0.106793
0.00714362
0.114091
0.00644638
0.121943
0.00573451
0.130411
0.00500463
0.13957
0.00425596
0.149514
0.00349167
0.160341
0.00272106
0.172148
0.00196283
0.184999
0.00124935
0.198885
0.000631666
0.213636
0.000184077
0.228726
0.243014