/*--------------------------------*- C++ -*----------------------------------*\
| =========                 |                                                 |
| \\      /  F ield         | OpenFOAM: The Open Source CFD Toolbox           |
|  \\    /   O peration     | Version:  v1912                                 |
|   \\  /    A nd           | Website:  www.openfoam.com                      |
|    \\/     M anipulation  |                                                 |
\*---------------------------------------------------------------------------*/
FoamFile
{
    version     2.0;
    format      ascii;
    class       volVectorField;
    location    "3";
    object      U;
}
// * * * * * * * * * * * * * * * * * * * * * * * * * * * * * * * * * * * * * //

dimensions      [0 1 -1 0 0 0 0];


internalField   nonuniform List<vector> 
9600
(
(0.463724 -9.5928 -1.1405e-19)
(0.140367 -8.98752 0)
(0.171001 -8.44892 -5.95802e-20)
(0.182753 -7.96602 0)
(0.183399 -7.52309 0)
(0.186393 -7.10882 -1.75033e-20)
(0.189736 -6.71726 7.86494e-23)
(0.192108 -6.34544 1.28725e-20)
(0.193466 -5.99202 0)
(0.193902 -5.65648 -2.05462e-20)
(0.193532 -5.33865 0)
(0.192522 -5.03838 -9.50766e-22)
(0.191057 -4.75546 -1.63082e-21)
(0.189321 -4.48945 -1.23412e-20)
(0.187482 -4.23976 9.5804e-21)
(0.185664 -4.00563 -9.41246e-21)
(0.183938 -3.78615 7.84232e-21)
(0.182475 -3.58039 0)
(0.181706 -3.38737 -5.77494e-21)
(0.180663 -3.20615 6.4913e-21)
(0.839441 -9.56801 -2.22285e-19)
(0.493963 -8.98057 1.23135e-20)
(0.50399 -8.44486 1.23995e-19)
(0.497212 -7.96425 -9.57791e-20)
(0.480834 -7.52289 9.44597e-20)
(0.46781 -7.10921 0)
(0.455937 -6.7176 3.21898e-20)
(0.443804 -6.34537 -3.12903e-20)
(0.431336 -5.99137 -5.12267e-20)
(0.418626 -5.65522 5.93245e-20)
(0.4058 -5.33684 -3.81186e-20)
(0.393031 -5.03614 -1.37486e-20)
(0.380504 -4.75293 2.86353e-20)
(0.368396 -4.48681 0)
(0.356858 -4.23717 0)
(0.345988 -4.00322 3.40192e-20)
(0.335821 -3.78405 -5.71497e-20)
(0.326524 -3.57864 0)
(0.318566 -3.38592 0)
(0.310723 -3.20498 -2.39263e-20)
(1.21438 -9.52916 4.59215e-19)
(0.847119 -8.96009 0)
(0.83687 -8.42794 -2.40688e-19)
(0.811803 -7.9503 -2.06598e-19)
(0.778543 -7.51113 0)
(0.749556 -7.09863 2.93565e-19)
(0.722466 -6.70752 -2.69963e-19)
(0.695792 -6.33543 4.84254e-20)
(0.669447 -5.98138 -1.09348e-19)
(0.643537 -5.64513 -1.67095e-19)
(0.618205 -5.32669 2.16758e-19)
(0.593636 -5.02604 -1.29203e-19)
(0.570021 -4.743 -5.4514e-20)
(0.547527 -4.47721 0)
(0.526289 -4.22804 2.43667e-21)
(0.506379 -3.9947 3.64019e-20)
(0.487796 -3.77622 1.423e-20)
(0.470694 -3.57155 0)
(0.455574 -3.37951 2.51698e-20)
(0.440937 -3.1992 2.56315e-20)
(1.58737 -9.47595 -6.14231e-19)
(1.19919 -8.92609 -2.63105e-19)
(1.16907 -8.39829 2.58885e-19)
(1.12602 -7.9243 4.00265e-19)
(1.07606 -7.48793 -1.91e-19)
(1.03118 -7.07716 9.14401e-22)
(0.988891 -6.6871 1.30391e-19)
(0.947657 -6.31567 1.12152e-19)
(0.9074 -5.96209 1.93963e-19)
(0.868252 -5.62625 0)
(0.830382 -5.30825 6.43774e-20)
(0.793991 -5.00811 -7.15803e-20)
(0.759276 -4.72571 6.08656e-21)
(0.7264 -4.46068 1.01665e-19)
(0.69548 -4.2124 7.97921e-20)
(0.666559 -3.98007 -1.11139e-19)
(0.639602 -3.76269 3.63567e-20)
(0.614746 -3.55913 -5.44497e-20)
(0.592511 -3.36814 5.38938e-20)
(0.571107 -3.18883 -2.56276e-20)
(1.95811 -9.40846 3.07708e-19)
(1.5499 -8.87868 0)
(1.50024 -8.35596 2.41893e-19)
(1.43946 -7.88624 0)
(1.37295 -7.45325 0)
(1.31226 -7.04476 -1.62885e-19)
(1.25479 -6.65629 -2.73361e-19)
(1.19899 -6.28605 -2.12679e-19)
(1.1448 -5.93347 1.38331e-20)
(1.09239 -5.59856 -8.4733e-20)
(1.04197 -5.28149 0)
(0.993748 -4.98236 -6.37927e-20)
(0.94794 -4.70105 -1.10634e-19)
(0.904701 -4.43721 9.14592e-20)
(0.864133 -4.19025 -2.54842e-19)
(0.82625 -3.95932 4.13909e-20)
(0.790977 -3.74343 2.93503e-20)
(0.758437 -3.54137 -6.13293e-20)
(0.729154 -3.3518 -2.55613e-20)
(0.701037 -3.17386 7.43508e-20)
(2.32601 -9.3267 2.82508e-19)
(1.89875 -8.81788 2.55166e-19)
(1.8299 -8.30099 0)
(1.75166 -7.83617 0)
(1.66877 -7.40711 -3.36118e-19)
(1.59236 -7.00145 1.96063e-19)
(1.51974 -6.6151 4.16417e-19)
(1.44938 -6.24659 0)
(1.38125 -5.89554 9.8034e-20)
(1.31558 -5.56207 8.47329e-20)
(1.2526 -5.24643 -1.38981e-19)
(1.19256 -4.94878 2.00381e-19)
(1.13568 -4.66902 5.55895e-20)
(1.08212 -4.40682 0)
(1.03195 -4.16159 4.2603e-20)
(0.985168 -3.93248 1.80723e-19)
(0.941658 -3.71846 -1.07671e-19)
(0.901521 -3.51828 1.12287e-19)
(0.86528 -3.33049 -2.10332e-19)
(0.83053 -3.15429 2.4158e-19)
(2.69057 -9.23077 2.83735e-19)
(2.24529 -8.74375 -1.45967e-18)
(2.15762 -8.23341 0)
(2.06219 -7.7741 0)
(1.96309 -7.34953 0)
(1.87105 -6.94723 -3.11042e-19)
(1.78332 -6.56354 0)
(1.69841 -6.1973 -4.46134e-19)
(1.61635 -5.8483 3.9851e-19)
(1.53742 -5.51679 -3.55382e-19)
(1.4619 -5.2031 0)
(1.39008 -4.9074 0)
(1.32217 -4.62965 0)
(1.25833 -4.36953 -9.93293e-20)
(1.19863 -4.12644 0)
(1.14303 -3.89954 0)
(1.09137 -3.68779 -1.28528e-19)
(1.04375 -3.48987 1.26283e-19)
(1.00066 -3.30423 0)
(0.959383 -3.13014 0)
(3.05123 -9.12078 -9.37477e-19)
(2.58901 -8.65635 5.72955e-19)
(2.48293 -8.15328 0)
(2.37059 -7.70007 0)
(2.25547 -7.28053 0)
(2.1479 -6.88213 2.90512e-19)
(2.04511 -6.50163 -2.87903e-19)
(1.94568 -6.13819 -1.56685e-21)
(1.84971 -5.79178 -3.8816e-19)
(1.75755 -5.46276 3.56768e-19)
(1.66953 -5.15151 -1.50623e-19)
(1.58595 -4.85827 2.46653e-19)
(1.50706 -4.58299 -2.66477e-20)
(1.43301 -4.32537 -2.13065e-19)
(1.36386 -4.08484 -1.66653e-19)
(1.29954 -3.86055 1.63732e-19)
(1.23985 -3.65145 0)
(1.18486 -3.45617 0)
(1.13506 -3.27304 1.03533e-19)
(1.08738 -3.10146 -1.16261e-19)
(3.40746 -8.99688 6.25414e-19)
(2.92943 -8.55578 5.39176e-19)
(2.80538 -8.06066 -9.96289e-19)
(2.67642 -7.61413 4.57392e-19)
(2.54546 -7.20015 0)
(2.42246 -6.80618 3.1292e-19)
(2.30468 -6.42941 -2.53428e-19)
(2.19077 -6.06931 7.00137e-19)
(2.08093 -5.72603 -1.47515e-20)
(1.97558 -5.40002 0)
(1.8751 -5.09173 3.02532e-19)
(1.77983 -4.80142 0)
(1.69003 -4.52906 0)
(1.60586 -4.27439 -9.10672e-20)
(1.52735 -4.03683 1.88152e-19)
(1.45441 -3.81555 0)
(1.38681 -3.60948 1.32454e-19)
(1.32459 -3.41721 5.00015e-20)
(1.26823 -3.23696 -1.15802e-19)
(1.21431 -3.06826 1.08862e-19)
(3.75873 -8.85922 -6.30598e-19)
(3.26606 -8.44213 5.4184e-19)
(3.12449 -7.95564 -1.50016e-18)
(2.97922 -7.51634 4.59798e-19)
(2.83261 -7.10845 0)
(2.6943 -6.71943 -6.12683e-19)
(2.56159 -6.34692 2.91465e-19)
(2.43327 -5.99071 0)
(2.30961 -5.65109 -2.03293e-19)
(2.19112 -5.32863 -3.30838e-19)
(2.07825 -5.02381 -2.6787e-19)
(1.97137 -4.73691 3.15387e-20)
(1.87074 -4.46794 2.47112e-19)
(1.77653 -4.21664 9.10518e-20)
(1.68877 -3.98245 -1.93966e-20)
(1.60733 -3.76456 -1.67963e-19)
(1.53196 -3.56191 -7.10771e-20)
(1.46267 -3.37303 -6.22888e-20)
(1.39992 -3.19603 1.58107e-19)
(1.33993 -3.03059 -2.40949e-19)
(4.10451 -8.708 6.306e-19)
(3.5984 -8.31556 -3.9451e-20)
(3.43981 -7.8383 4.6187e-19)
(3.27853 -7.40677 0)
(3.11648 -7.00547 -3.4606e-19)
(2.96298 -6.62193 6.57669e-19)
(2.81543 -6.25423 -5.13454e-19)
(2.67276 -5.90245 5.05281e-19)
(2.53536 -5.56704 -1.80768e-19)
(2.40381 -5.24865 3.77635e-19)
(2.27862 -4.94781 1.53196e-19)
(2.16021 -4.66481 0)
(2.04886 -4.39969 0)
(1.94472 -4.15219 -9.33123e-20)
(1.84782 -3.92177 1.94254e-20)
(1.75801 -3.70765 3.23629e-19)
(1.675 -3.50879 -7.97468e-20)
(1.5988 -3.32366 2.43631e-19)
(1.52984 -3.15028 3.56291e-20)
(1.464 -2.9885 -2.45327e-19)
(4.44429 -8.54343 -1.90624e-18)
(3.92599 -8.1762 -5.89516e-19)
(3.75086 -7.70877 -1.50911e-18)
(3.5739 -7.28551 -8.67344e-19)
(3.39661 -6.89131 -3.97076e-19)
(3.22805 -6.51377 -3.84523e-19)
(3.06577 -6.15141 -1.14202e-18)
(2.90883 -5.8046 -2.99721e-20)
(2.75777 -5.47395 -8.26104e-19)
(2.61325 -5.16016 2.258e-20)
(2.47586 -4.86381 -3.11502e-19)
(2.34602 -4.58521 -2.72112e-19)
(2.22405 -4.32438 2.38565e-19)
(2.1101 -4.08109 -2.09936e-19)
(2.00417 -3.85484 -1.85441e-19)
(1.90612 -3.64487 -1.64426e-19)
(1.81563 -3.45015 -4.23616e-19)
(1.73269 -3.26916 1.55398e-19)
(1.65771 -3.09977 3.48918e-19)
(1.58624 -2.94205 -3.70475e-19)
(4.77757 -8.36573 2.54871e-18)
(4.24834 -8.02422 2.90238e-18)
(4.0572 -7.56717 4.64208e-19)
(3.86488 -7.15266 2.14622e-18)
(3.67256 -6.76605 -4.05445e-19)
(3.48908 -6.39503 1.88793e-18)
(3.31217 -6.03855 5.13874e-19)
(3.14107 -5.69726 1.40558e-18)
(2.97645 -5.37191 -4.16656e-19)
(2.81908 -5.06326 1.10142e-18)
(2.66959 -4.77191 6.25509e-19)
(2.52846 -4.49817 5.4662e-19)
(2.39599 -4.24209 -7.06773e-19)
(2.27234 -4.00343 6.45472e-19)
(2.15751 -3.78172 3.73056e-19)
(2.05135 -3.57626 3.30977e-19)
(1.95352 -3.38606 2.94753e-19)
(1.864 -3.20955 2.03233e-21)
(1.78321 -3.04454 2.35877e-19)
(1.70638 -2.89128 2.43646e-19)
(5.10388 -8.17516 -1.86225e-18)
(4.56502 -7.85983 6.5828e-19)
(4.35838 -7.41363 1.49325e-18)
(4.151 -7.00834 -1.7504e-18)
(3.94386 -6.62981 3.99519e-19)
(3.74562 -6.26582 -1.25063e-18)
(3.55422 -5.91576 6.00137e-19)
(3.36908 -5.58054 -9.31984e-19)
(3.19103 -5.26103 2.9875e-20)
(3.02093 -4.95804 2.58207e-21)
(2.85948 -4.67219 -6.30462e-19)
(2.70718 -4.4038 -2.74508e-19)
(2.56435 -4.15289 4.83997e-19)
(2.43113 -3.91927 2.18105e-21)
(2.30754 -3.70248 -1.79814e-20)
(2.19338 -3.50187 -3.50998e-19)
(2.08834 -3.31652 -1.48416e-19)
(1.9924 -3.14487 -1.1572e-20)
(1.906 -2.98461 -2.49378e-19)
(1.82407 -2.83624 -1.22959e-19)
(5.42277 -7.97195 0)
(4.87557 -7.68319 -1.18458e-18)
(4.65395 -7.2483 4.95235e-21)
(4.43183 -6.85267 1.7033e-18)
(4.21008 -6.48269 6.49576e-19)
(3.99725 -6.12626 -6.97249e-19)
(3.79149 -5.78316 -5.58573e-19)
(3.59246 -5.45457 0)
(3.40112 -5.14143 -3.95035e-19)
(3.21844 -4.84463 3.69232e-19)
(3.04519 -4.56478 -2.15505e-20)
(2.88188 -4.30219 0)
(2.72883 -4.05689 -2.43125e-19)
(2.58618 -3.82868 1.95366e-19)
(2.45393 -3.61716 1.50747e-19)
(2.33189 -3.42172 -2.01926e-19)
(2.21974 -3.24154 -1.65791e-19)
(2.11751 -3.07508 2.71277e-19)
(2.02567 -2.91997 -2.4365e-19)
(1.93891 -2.77695 1.27376e-19)
(5.73384 -7.75637 1.88342e-18)
(5.17958 -7.49451 -1.21626e-18)
(4.94346 -7.07134 -9.51545e-19)
(4.7069 -6.6858 4.1994e-19)
(4.47077 -6.32485 -8.15299e-19)
(4.24351 -5.97649 0)
(4.02356 -5.6409 0)
(3.8108 -5.31947 0)
(3.60635 -5.01326 -2.55676e-20)
(3.41127 -4.72315 -7.3724e-19)
(3.22639 -4.44979 3.4039e-19)
(3.05224 -4.19345 2.65556e-19)
(2.88913 -3.95417 2.06915e-19)
(2.7372 -3.73175 -8.73516e-19)
(2.59641 -3.5258 4.06579e-19)
(2.46659 -3.33582 0)
(2.34742 -3.16108 -1.32674e-20)
(2.23896 -3.00013 -4.24901e-19)
(2.14178 -2.85053 -1.77853e-21)
(2.05041 -2.71328 -1.27395e-19)
(6.03679 -7.52874 -1.29304e-18)
(5.47665 -7.29402 -6.40586e-19)
(5.22646 -6.88292 4.10923e-19)
(4.97576 -6.50787 -1.21843e-19)
(4.72547 -6.15643 -2.29882e-18)
(4.48398 -5.81667 1.97879e-18)
(4.25003 -5.48914 -3.89083e-20)
(4.02372 -5.17542 4.9092e-19)
(3.80635 -4.87665 4.23184e-19)
(3.59908 -4.59376 3.70313e-19)
(3.40278 -4.32735 3.23315e-19)
(3.21799 -4.07771 5.51036e-19)
(3.04501 -3.84484 -2.63012e-19)
(2.88394 -3.62853 6.3809e-19)
(2.73475 -3.42846 -4.10401e-19)
(2.59723 -3.24418 -1.57168e-19)
(2.47109 -3.07511 6.3593e-19)
(2.35643 -2.91992 4.0709e-19)
(2.25398 -2.77613 -1.16269e-20)
(2.15825 -2.6449 0)
(6.33164 -7.28958 -6.50707e-19)
(5.76651 -7.08197 1.20096e-18)
(5.5025 -6.68318 9.69345e-19)
(5.23792 -6.31901 -1.22337e-19)
(4.9737 -5.97757 -7.76907e-19)
(4.7182 -5.64696 4.96265e-20)
(4.47045 -5.32804 2.83911e-21)
(4.23082 -5.02258 2.58728e-21)
(4.00076 -4.7318 0)
(3.78154 -4.45662 3.53068e-19)
(3.57405 -4.19763 -6.68191e-19)
(3.37885 -3.95509 -2.67682e-19)
(3.19621 -3.72899 2.64972e-19)
(3.02619 -3.51911 -2.20374e-19)
(2.86872 -3.32516 1.97247e-19)
(2.72358 -3.14677 -1.74296e-19)
(2.59048 -2.98353 1.51435e-21)
(2.46962 -2.83426 -1.40105e-19)
(2.36199 -2.69646 -1.26166e-19)
(2.26233 -2.57174 -1.24837e-19)
(6.61878 -7.03938 0)
(6.04904 -6.85835 -5.65442e-19)
(5.77114 -6.47216 5.58964e-19)
(5.4929 -6.11936 8.97282e-19)
(5.215 -5.78847 -7.71624e-19)
(4.94572 -5.46757 6.2219e-19)
(4.68441 -5.15783 -1.18326e-18)
(4.43172 -4.8612 -9.89522e-19)
(4.18925 -4.57892 -4.04755e-19)
(3.95835 -4.31193 2.54382e-20)
(3.73995 -4.06081 -3.08974e-19)
(3.5346 -3.82577 1.83013e-20)
(3.34255 -3.60676 0)
(3.16378 -3.40357 -4.24685e-19)
(2.99816 -3.2159 2.19998e-19)
(2.84542 -3.04348 0)
(2.70526 -2.88601 -1.57513e-19)
(2.5779 -2.74241 -2.72556e-19)
(2.46452 -2.61063 2.67813e-19)
(2.36067 -2.49403 1.28846e-19)
(6.89791 -6.77742 0)
(6.32378 -6.62256 0)
(6.03184 -6.24984 -9.77775e-19)
(5.74016 -5.90918 -7.74017e-19)
(5.44891 -5.58948 1.60209e-18)
(5.16614 -5.27888 0)
(4.89157 -4.97888 0)
(4.6261 -4.6916 4.96012e-19)
(4.37152 -4.41834 0)
(4.12926 -4.16002 0)
(3.90027 -3.91718 0)
(3.68511 -3.69 0)
(3.48396 -3.47838 0)
(3.29675 -3.28208 0)
(3.12323 -3.10079 0)
(2.96304 -2.93423 0)
(2.81583 -2.78203 0)
(2.6815 -2.64328 0)
(2.56021 -2.51749 0)
(2.449 -2.41016 0)
(9.77055 0.0865487 8.44952e-20)
(9.75976 -0.298538 1.62021e-19)
(9.73421 -0.681709 -1.69074e-19)
(9.69443 -1.06284 3.38201e-19)
(9.64011 -1.44165 -3.38201e-19)
(9.57102 -1.81767 -3.09961e-19)
(9.48726 -2.19039 -3.09786e-19)
(9.38898 -2.55928 1.01223e-18)
(9.27638 -2.92381 -6.74694e-19)
(9.14964 -3.28345 6.72813e-19)
(9.00899 -3.63765 -6.72814e-19)
(8.85468 -3.98591 6.71025e-19)
(8.68698 -4.3277 -1.33781e-18)
(8.50619 -4.66253 1.9504e-18)
(8.31262 -4.98993 0)
(8.1066 -5.30943 -1.93748e-18)
(7.88847 -5.62064 3.51819e-21)
(7.65868 -5.92317 1.9859e-18)
(7.41732 -6.21688 0)
(7.16593 -6.50106 0)
(9.35603 -0.215157 0)
(9.33259 -0.582525 -1.3143e-20)
(9.29397 -0.947611 0)
(9.24083 -1.31012 2.93481e-19)
(9.17339 -1.66973 3.13886e-19)
(9.09159 -2.02596 -8.89356e-19)
(8.99567 -2.37827 1.60028e-18)
(8.88586 -2.7261 -6.27183e-19)
(8.7624 -3.06895 -5.85962e-19)
(8.62553 -3.40627 -5.85176e-19)
(8.47554 -3.73758 3.94803e-20)
(8.31272 -4.06236 6.2113e-19)
(8.13741 -4.38015 -3.06867e-18)
(7.94993 -4.6905 -6.80128e-19)
(7.75064 -4.99297 1.23889e-18)
(7.5399 -5.28716 1.25707e-18)
(7.31806 -5.57271 6.52774e-19)
(7.08552 -5.84928 -1.22839e-18)
(6.84229 -6.11667 5.71941e-19)
(6.58897 -6.37438 0)
(8.91477 -0.166521 6.71954e-20)
(8.89538 -0.515185 -1.39587e-19)
(8.86111 -0.862249 3.95676e-19)
(8.81245 -1.20717 -2.89908e-19)
(8.74971 -1.54948 -2.69773e-19)
(8.67292 -1.8886 2.90235e-19)
(8.58237 -2.22399 0)
(8.4783 -2.55508 0)
(8.36097 -2.88134 1.08405e-18)
(8.23063 -3.20227 1.62038e-18)
(8.0876 -3.51735 -4.96986e-19)
(7.93217 -3.82609 1.60823e-18)
(7.76469 -4.12804 -4.96255e-19)
(7.58549 -4.42275 -1.56657e-18)
(7.39492 -4.70979 2.91428e-21)
(7.19336 -4.98876 9.90225e-19)
(6.98114 -5.25929 -4.22959e-19)
(6.75864 -5.52102 -9.88743e-19)
(6.52606 -5.77365 -5.65389e-19)
(6.28379 -6.01663 9.8169e-19)
(8.45438 -0.143349 0)
(8.43902 -0.472692 1.08279e-19)
(8.40944 -0.800954 1.07445e-19)
(8.366 -1.12752 -4.49269e-19)
(8.30893 -1.45182 0)
(8.23827 -1.77327 0)
(8.15432 -2.09132 0)
(8.05728 -2.40542 0)
(7.9474 -2.71503 -4.98377e-19)
(7.82495 -3.01964 -4.97775e-19)
(7.69022 -3.31873 0)
(7.5435 -3.61184 9.23532e-19)
(7.38513 -3.89849 -2.27711e-18)
(7.21543 -4.17823 1.84643e-18)
(7.03476 -4.45065 -1.77653e-18)
(6.84348 -4.71533 -4.31909e-19)
(6.64194 -4.97188 1.2464e-19)
(6.4305 -5.21992 1.24319e-19)
(6.20949 -5.45912 -9.04568e-19)
(5.97921 -5.68894 -6.46172e-20)
(7.98973 -0.136455 0)
(7.97782 -0.446383 -1.06788e-19)
(7.95248 -0.755607 0)
(7.91398 -1.06353 2.14322e-19)
(7.86246 -1.36956 1.99814e-19)
(7.79794 -1.67311 1.75053e-19)
(7.7207 -1.97364 0)
(7.63091 -2.27062 0)
(7.52881 -2.56351 0)
(7.41462 -2.85181 0)
(7.28862 -3.13501 3.73721e-19)
(7.15109 -3.41265 4.21694e-19)
(7.00234 -3.68425 4.24376e-19)
(6.84269 -3.94937 -4.27139e-19)
(6.67247 -4.20758 -6.83711e-19)
(6.49202 -4.45847 8.45579e-19)
(6.3017 -4.70165 1.62672e-18)
(6.10186 -4.93672 7.89921e-19)
(5.89288 -5.16334 0)
(5.67502 -5.381 -7.28002e-19)
(7.53215 -0.130248 2.0036e-20)
(7.52329 -0.421178 0)
(7.50182 -0.711686 -3.32916e-19)
(7.46794 -1.00123 -2.74609e-22)
(7.42171 -1.28921 1.03141e-20)
(7.36316 -1.57508 -4.57153e-20)
(7.29252 -1.85831 0)
(7.20995 -2.13838 2.07572e-20)
(7.11564 -2.41478 -3.44464e-19)
(7.0098 -2.68702 6.66922e-19)
(6.89268 -2.95461 -7.12012e-19)
(6.76453 -3.21709 4.08484e-19)
(6.62564 -3.474 -2.01136e-18)
(6.4763 -3.7249 1.32466e-18)
(6.31682 -3.96937 7.29907e-19)
(6.14754 -4.20699 0)
(5.96878 -4.43739 -1.3105e-18)
(5.7809 -4.66014 -4.75724e-20)
(5.58426 -4.87492 -1.30063e-18)
(5.37913 -5.08124 1.38754e-18)
(7.09031 -0.125352 1.71975e-20)
(7.0839 -0.397992 -3.6926e-20)
(7.06567 -0.670427 3.07165e-19)
(7.03578 -0.942159 -8.57397e-21)
(6.99425 -1.21263 3.08107e-19)
(6.94111 -1.4813 -4.67585e-19)
(6.87655 -1.74767 0)
(6.8007 -2.01126 3.1874e-19)
(6.71373 -2.27157 2.80227e-19)
(6.61582 -2.52813 -3.18203e-19)
(6.50719 -2.78048 5.58908e-19)
(6.38808 -3.02816 1.22643e-18)
(6.25873 -3.27074 -5.49898e-19)
(6.11942 -3.50779 -6.29687e-19)
(5.97045 -3.7389 5.89058e-19)
(5.81211 -3.96366 0)
(5.64472 -4.18169 4.22744e-20)
(5.46863 -4.39259 2.25393e-21)
(5.28417 -4.59603 1.20171e-18)
(5.09161 -4.79152 5.42735e-19)
(6.66999 -0.122096 0)
(6.66539 -0.377383 3.72129e-21)
(6.64973 -0.632621 -5.68479e-20)
(6.62314 -0.887355 -2.66505e-19)
(6.5856 -1.14106 2.43682e-19)
(6.53717 -1.39324 0)
(6.47797 -1.64342 5.02472e-19)
(6.40815 -1.89113 -1.3446e-22)
(6.32783 -2.13592 -7.77808e-19)
(6.23717 -2.37734 0)
(6.13638 -2.61494 -5.50013e-19)
(6.02566 -2.8483 2.87877e-20)
(5.90523 -3.077 -1.50877e-18)
(5.77536 -3.30062 1.53835e-21)
(5.6363 -3.51878 5.10497e-19)
(5.48835 -3.73107 0)
(5.3318 -3.93713 -5.05017e-19)
(5.16696 -4.13657 2.08104e-21)
(4.99418 -4.32906 5.02943e-19)
(4.8137 -4.51413 -5.34096e-19)
(6.27443 -0.119883 0)
(6.27108 -0.358872 5.95557e-20)
(6.25741 -0.597924 1.25651e-19)
(6.23348 -0.836615 -2.24784e-19)
(6.19929 -1.07446 -1.46002e-20)
(6.15486 -1.311 -1.12605e-19)
(6.10034 -1.54579 -4.52937e-19)
(6.03582 -1.77839 2.25111e-19)
(5.96142 -2.00838 1.45216e-20)
(5.87728 -2.23532 2.24448e-19)
(5.78358 -2.4588 1.99281e-19)
(5.6805 -2.67842 8.9932e-19)
(5.56826 -2.89378 4.51379e-19)
(5.44708 -3.10449 8.89374e-19)
(5.31721 -3.31018 -4.43946e-19)
(5.17892 -3.51048 2.38354e-20)
(5.03249 -3.70501 -4.40588e-19)
(4.87821 -3.89341 0)
(4.71642 -4.07535 4.11147e-19)
(4.54734 -4.25039 0)
(5.90507 -0.118295 2.44506e-20)
(5.90251 -0.342069 -7.0882e-20)
(5.89034 -0.565992 1.97421e-19)
(5.86855 -0.789664 -9.84933e-20)
(5.83713 -1.01263 1.02601e-20)
(5.79612 -1.23447 -9.85823e-20)
(5.74563 -1.45476 2.09448e-19)
(5.68574 -1.6731 -1.9695e-19)
(5.61655 -1.88908 1.9695e-19)
(5.53821 -2.1023 3.72167e-19)
(5.45086 -2.31238 -4.1664e-19)
(5.35467 -2.51893 -2.52323e-20)
(5.24984 -2.7216 -1.19369e-18)
(5.13657 -2.92 1.45661e-21)
(5.01511 -3.11378 2.16148e-20)
(4.88569 -3.3026 7.741e-19)
(4.74859 -3.4861 -3.82542e-19)
(4.6041 -3.66393 -3.58965e-19)
(4.45251 -3.83577 -2.35702e-20)
(4.29406 -4.0012 0)
(5.56206 -0.11707 0)
(5.55999 -0.326639 8.88058e-20)
(5.54895 -0.536535 -3.03363e-19)
(5.52886 -0.746248 -7.80538e-20)
(5.49974 -0.955348 1.83638e-19)
(5.46162 -1.16345 0)
(5.4146 -1.37017 0)
(5.35874 -1.57514 1.73105e-19)
(5.29414 -1.77796 -1.73104e-19)
(5.22093 -1.97828 1.34189e-19)
(5.13923 -2.17573 -1.72357e-19)
(5.04922 -2.36995 3.42513e-19)
(4.95105 -2.5606 -6.83705e-19)
(4.84494 -2.74734 6.8094e-19)
(4.7311 -2.92983 1.99775e-20)
(4.60976 -3.10775 -3.58125e-19)
(4.48119 -3.28077 -3.3485e-19)
(4.34567 -3.44855 6.89529e-19)
(4.20348 -3.61079 3.14609e-19)
(4.05486 -3.76707 0)
(5.24492 -0.11603 9.33087e-22)
(5.24308 -0.312536 5.54659e-20)
(5.23279 -0.509399 1.19066e-19)
(5.21411 -0.706143 8.52301e-20)
(5.18691 -0.902359 7.6656e-20)
(5.15126 -1.09769 6.93341e-20)
(5.10722 -1.29177 0)
(5.05488 -1.48426 -2.91305e-19)
(4.99431 -1.6748 -1.52515e-19)
(4.92563 -1.86304 1.20322e-19)
(4.84896 -2.04865 0)
(4.76444 -2.23129 3.01891e-19)
(4.67225 -2.41065 -8.88842e-19)
(4.57258 -2.5864 3.00561e-19)
(4.46561 -2.75826 0)
(4.3516 -2.9259 -2.81887e-19)
(4.23078 -3.08902 -5.7455e-19)
(4.10343 -3.24732 2.80272e-19)
(3.96984 -3.40049 -1.65923e-20)
(3.83026 -3.54812 0)
(4.95251 -0.115062 1.65631e-21)
(4.95079 -0.299599 -3.56902e-20)
(4.94113 -0.48437 6.80034e-20)
(4.92355 -0.669101 -6.13585e-21)
(4.89796 -0.853389 1.36174e-19)
(4.8644 -1.03688 -2.1155e-19)
(4.82295 -1.21924 0)
(4.77367 -1.40014 2.71106e-20)
(4.71663 -1.57924 0)
(4.65195 -1.75623 -2.84802e-19)
(4.57974 -1.93079 0)
(4.50014 -2.10261 -2.55358e-19)
(4.4133 -2.27141 8.01419e-19)
(4.31939 -2.43688 -5.3046e-19)
(4.21862 -2.59876 2.64507e-19)
(4.11121 -2.75675 -2.22091e-19)
(3.9974 -2.9106 2.75378e-19)
(3.87747 -3.06 -2.73725e-19)
(3.75172 -3.20468 0)
(3.62042 -3.34422 0)
(4.68369 -0.114091 1.58475e-20)
(4.682 -0.287532 0)
(4.67279 -0.461208 0)
(4.65609 -0.634881 -1.27677e-19)
(4.63184 -0.808161 -1.16346e-19)
(4.60008 -0.980711 0)
(4.56087 -1.15222 0)
(4.51427 -1.32238 2.29965e-20)
(4.46036 -1.49088 2.30877e-19)
(4.39922 -1.65743 -1.09914e-19)
(4.33098 -1.82172 -1.20055e-19)
(4.25575 -1.98348 4.88652e-19)
(4.17369 -2.14243 -7.23758e-19)
(4.08496 -2.29832 4.61333e-19)
(3.98976 -2.45089 0)
(3.88829 -2.59989 9.34073e-19)
(3.7808 -2.74509 -6.70715e-19)
(3.66759 -2.88621 2.30224e-19)
(3.54895 -3.023 4.34075e-19)
(3.4252 -3.15506 0)
(4.43714 -0.113087 -1.2998e-20)
(4.43538 -0.276319 0)
(4.4265 -0.43982 -2.25522e-21)
(4.41051 -0.603298 -1.04646e-19)
(4.38741 -0.766423 3.27983e-19)
(4.35719 -0.928882 -5.45224e-20)
(4.31993 -1.09038 0)
(4.27569 -1.25062 4.35538e-19)
(4.22452 -1.40932 -2.26834e-19)
(4.16653 -1.5662 1.96785e-20)
(4.10182 -1.72099 2.05173e-19)
(4.03051 -1.87342 2.12428e-19)
(3.95273 -2.02325 -4.23481e-19)
(3.86865 -2.17024 -4.12267e-19)
(3.77844 -2.31417 -3.99274e-19)
(3.68232 -2.45482 -4.35934e-19)
(3.58053 -2.59201 4.32777e-19)
(3.47336 -2.72548 -2.03326e-19)
(3.36116 -2.85504 -2.23146e-19)
(3.24429 -2.98027 0)
(4.21148 -0.112036 1.27702e-20)
(4.20958 -0.265892 -4.71414e-20)
(4.20093 -0.420037 -4.94146e-20)
(4.18554 -0.574139 1.48148e-19)
(4.1634 -0.727919 -5.36418e-20)
(4.13452 -0.881089 -4.9132e-20)
(4.09897 -1.03336 0)
(4.0568 -1.18447 -2.04334e-19)
(4.00808 -1.33414 0)
(3.9529 -1.4821 2.02648e-19)
(3.89136 -1.62811 -3.86284e-19)
(3.82356 -1.77193 1.90635e-19)
(3.74965 -1.91334 -3.79881e-19)
(3.66975 -2.05211 3.96742e-19)
(3.58405 -2.18807 2.2182e-19)
(3.49275 -2.32103 0)
(3.39608 -2.45084 -1.83083e-19)
(3.29435 -2.57731 1.83084e-19)
(3.18793 -2.70033 0)
(3.07731 -2.81947 0)
(4.00534 -0.110938 0)
(4.00325 -0.256183 4.63159e-20)
(3.99476 -0.401717 1.87763e-21)
(3.97988 -0.547208 -4.83433e-20)
(3.95856 -0.692407 -4.12434e-20)
(3.93086 -0.837038 -4.44727e-20)
(3.89682 -0.980835 1.70619e-19)
(3.85652 -1.12354 0)
(3.81 -1.2649 0)
(3.75736 -1.40467 8.71358e-20)
(3.69869 -1.54261 9.43364e-20)
(3.6341 -1.67852 3.31476e-19)
(3.5637 -1.81217 -1.70393e-19)
(3.48762 -1.94339 1.70394e-19)
(3.40602 -2.07203 1.84598e-19)
(3.31909 -2.19793 1.36183e-20)
(3.22706 -2.32102 -3.29965e-19)
(3.13022 -2.44111 1.53235e-21)
(3.02901 -2.55831 1.62663e-19)
(2.92398 -2.67208 0)
(3.81741 -0.109753 -1.00953e-20)
(3.8151 -0.247135 1.00952e-20)
(3.80672 -0.3848 0)
(3.79225 -0.522389 3.76876e-20)
(3.77165 -0.659753 1.24709e-19)
(3.74501 -0.796585 -1.55849e-19)
(3.71235 -0.932632 -1.67639e-19)
(3.67374 -1.06766 0)
(3.62924 -1.20142 0)
(3.57894 -1.3337 0)
(3.52292 -1.46428 -3.03341e-19)
(3.46128 -1.59296 -2.48628e-20)
(3.39412 -1.71955 -1.54068e-19)
(3.32156 -1.84389 1.14928e-20)
(3.24374 -1.96586 -3.03569e-19)
(3.16081 -2.08535 4.64929e-19)
(3.07302 -2.20235 -4.33424e-19)
(2.98057 -2.31672 1.47816e-19)
(2.88408 -2.42884 2.79448e-19)
(2.7839 -2.53764 0)
(3.64634 -0.108311 8.90684e-21)
(3.64381 -0.238646 0)
(3.63552 -0.369278 -3.69993e-20)
(3.62142 -0.499743 -7.67983e-20)
(3.60145 -0.630102 3.69794e-20)
(3.57576 -0.759951 2.95593e-19)
(3.54436 -0.889068 0)
(3.50729 -1.01724 -1.41215e-19)
(3.46463 -1.14424 -7.24718e-20)
(3.41645 -1.26986 -1.34323e-19)
(3.36284 -1.3939 -5.03742e-20)
(3.30387 -1.51618 -4.28168e-19)
(3.23965 -1.63654 -2.81427e-19)
(3.17027 -1.75483 2.91495e-19)
(3.09583 -1.87096 2.75491e-19)
(3.01645 -1.98486 -1.59319e-21)
(2.93236 -2.0966 1.1469e-20)
(2.8436 -2.2061 1.33795e-19)
(2.75117 -2.31418 -2.74585e-19)
(2.65472 -2.41825 0)
(3.49075 -0.106828 -1.86108e-20)
(3.48803 -0.230623 9.14474e-21)
(3.47987 -0.354822 -3.66494e-20)
(3.46613 -0.478991 3.66405e-20)
(3.44681 -0.602897 -1.04749e-19)
(3.42212 -0.72641 -3.2841e-19)
(3.39195 -0.849336 0)
(3.35636 -0.971448 1.4983e-19)
(3.31544 -1.09254 -1.38074e-19)
(3.26924 -1.2124 2.95698e-19)
(3.21785 -1.33086 2.93299e-19)
(3.16132 -1.44774 4.29804e-19)
(3.09973 -1.56289 -2.76817e-19)
(3.03314 -1.67618 1.3767e-19)
(2.96163 -1.78755 -1.34426e-19)
(2.88525 -1.89694 1.34445e-19)
(2.80414 -2.00447 0)
(2.71815 -2.11018 1.17458e-19)
(2.62909 -2.2154 -1.13647e-19)
(2.53498 -2.31617 0)
(6.86509 6.98587 0)
(7.13593 6.70847 0)
(7.39478 6.42221 6.23064e-19)
(7.6423 6.12731 9.37733e-21)
(7.87801 5.82339 -6.79541e-19)
(8.10128 5.51053 0)
(8.31173 5.18907 6.97424e-19)
(8.50904 4.85947 -1.27758e-18)
(8.69291 4.52223 -6.44919e-19)
(8.86304 4.17789 -6.50527e-19)
(9.01915 3.82699 6.50525e-19)
(9.16101 3.47013 -6.57248e-19)
(9.28841 3.1079 3.27841e-19)
(9.40115 2.74091 3.02534e-19)
(9.49909 2.36978 3.03859e-19)
(9.58208 1.9951 -3.33914e-19)
(9.65006 1.61747 3.33914e-19)
(9.70303 1.23752 -1.67936e-19)
(9.74096 0.855623 -7.73212e-20)
(9.76416 0.473042 4.20392e-20)
(6.757 6.42882 0)
(7.01199 6.16366 -5.16785e-19)
(7.25476 5.88887 -1.13047e-18)
(7.48585 5.60478 1.65799e-18)
(7.70526 5.31144 -1.16983e-18)
(7.91245 5.00925 1.16123e-18)
(8.10703 4.69867 6.56591e-19)
(8.28867 4.38021 -1.8035e-18)
(8.45703 4.05438 5.85577e-19)
(8.61179 3.72174 1.14972e-18)
(8.75266 3.38284 5.59423e-19)
(8.87938 3.03829 5.63093e-19)
(8.99175 2.68871 -6.09071e-19)
(9.08956 2.33475 8.83806e-19)
(9.17261 1.97706 -1.25856e-18)
(9.24079 1.61624 3.07496e-19)
(9.29402 1.25288 -2.88897e-19)
(9.33229 0.88762 0)
(9.35551 0.520876 1.31449e-20)
(9.36364 0.153458 0)
(6.36634 6.07524 -8.63604e-19)
(6.6119 5.83227 5.10872e-19)
(6.8466 5.57911 8.8486e-19)
(7.07042 5.31611 3.73504e-19)
(7.28322 5.04361 1.05099e-18)
(7.4845 4.76214 9.49583e-21)
(7.67389 4.47223 -5.24593e-19)
(7.85103 4.17435 -1.54486e-18)
(8.01556 3.86902 1.5103e-18)
(8.16714 3.55679 -1.56548e-18)
(8.30547 3.23821 -5.20846e-19)
(8.43028 2.91387 -1.03812e-18)
(8.54138 2.58436 0)
(8.63858 2.25023 0)
(8.72163 1.91206 0)
(8.79031 1.57047 -2.64427e-19)
(8.84449 1.22611 2.84454e-19)
(8.88413 0.879659 2.65563e-19)
(8.90914 0.531656 5.04093e-21)
(8.91934 0.182824 6.68625e-20)
(5.98396 5.69254 9.13683e-19)
(6.21745 5.46931 -7.91482e-19)
(6.44134 5.23609 -1.23275e-19)
(6.65533 4.99318 -1.23752e-19)
(6.85915 4.74095 2.04636e-18)
(7.05228 4.47992 -5.26085e-20)
(7.23437 4.21057 -9.04934e-22)
(7.40503 3.93335 -1.30726e-18)
(7.56391 3.64875 8.56454e-19)
(7.71068 3.35729 0)
(7.84501 3.0595 4.71868e-19)
(7.96663 2.75591 4.75352e-19)
(8.07521 2.44705 0)
(8.17053 2.13343 0)
(8.25245 1.81563 0)
(8.32081 1.49429 0)
(8.37548 1.17006 -1.5281e-20)
(8.41631 0.843601 2.27959e-19)
(8.44315 0.515467 -1.07296e-19)
(8.45575 0.186301 0)
(5.62108 5.30801 7.20383e-19)
(5.84129 5.1022 0)
(6.05287 4.88691 -2.06504e-18)
(6.2555 4.66234 -7.07056e-19)
(6.44877 4.42885 -7.58508e-19)
(6.63222 4.18689 -8.18824e-19)
(6.80547 3.93689 3.79804e-19)
(6.96815 3.67926 -3.99653e-19)
(7.11991 3.41446 1.07284e-18)
(7.26042 3.14295 -3.46331e-19)
(7.38934 2.86521 0)
(7.50639 2.58173 0)
(7.61126 2.29303 0)
(7.70371 1.99968 0)
(7.78357 1.70225 -5.54196e-19)
(7.85066 1.40133 1.93312e-19)
(7.90486 1.09747 -2.0975e-19)
(7.94603 0.791102 0)
(7.97397 0.482911 1.05819e-19)
(7.98844 0.173526 0)
(5.27585 4.94284 5.6775e-19)
(5.48266 4.75267 -3.38013e-20)
(5.68165 4.55357 1.21278e-18)
(5.8725 4.34573 6.01835e-19)
(6.05477 4.12942 0)
(6.228 3.90508 -6.5299e-19)
(6.39185 3.67308 4.30977e-20)
(6.54594 3.4338 -6.60095e-19)
(6.68994 3.18766 8.74091e-19)
(6.82351 2.93506 2.2532e-20)
(6.94634 2.67646 1.85307e-20)
(7.05814 2.41232 -3.24682e-19)
(7.15863 2.14313 6.30474e-19)
(7.24758 1.86939 0)
(7.32478 1.59165 4.49563e-20)
(7.39006 1.3104 3.2355e-19)
(7.44315 1.02615 9.52461e-22)
(7.484 0.739383 -9.8607e-21)
(7.5126 0.450644 0)
(7.52857 0.160557 -1.99635e-20)
(4.95275 4.60118 0)
(5.14649 4.425 -3.41031e-20)
(5.33311 4.24046 8.0166e-21)
(5.51227 4.04772 -1.04192e-18)
(5.68353 3.84703 0)
(5.84648 3.63878 5.22187e-19)
(6.00077 3.42329 5.72016e-19)
(6.14605 3.20093 -1.63701e-18)
(6.28199 2.97204 -4.29883e-20)
(6.40829 2.73703 -5.11979e-19)
(6.52464 2.49629 2.95597e-19)
(6.63076 2.25025 -2.615e-19)
(6.72639 1.99936 -3.01104e-19)
(6.8113 1.74408 0)
(6.88528 1.48487 1.62621e-19)
(6.94813 1.22221 -1.07358e-20)
(6.99968 0.956568 -1.45119e-19)
(7.03971 0.688532 -1.06986e-20)
(7.06822 0.41852 -3.66487e-20)
(7.08504 0.147012 7.35892e-20)
(4.65324 4.2839 0)
(4.83455 4.12025 4.20937e-19)
(5.0093 3.94883 7.45955e-21)
(5.17718 3.76973 -4.28388e-19)
(5.33778 3.58321 0)
(5.49068 3.38959 4.4934e-19)
(5.63557 3.18918 -4.19029e-19)
(5.77212 2.98229 -4.86127e-19)
(5.90003 2.76925 8.99468e-19)
(6.01899 2.55042 5.03835e-19)
(6.12872 2.32616 0)
(6.22897 2.09687 2.42171e-19)
(6.31948 1.86296 -2.30067e-21)
(6.40002 1.62484 1.30109e-20)
(6.47039 1.38294 0)
(6.5304 1.1377 -2.34882e-19)
(6.57989 0.889584 -1.25798e-19)
(6.61869 0.639065 1.81538e-19)
(6.64667 0.386663 1.23084e-19)
(6.66368 0.132786 -1.70082e-20)
(4.37657 3.9906 0)
(4.54623 3.8383 -3.36611e-19)
(4.70982 3.67876 0)
(4.86706 3.51207 -3.75652e-19)
(5.01752 3.33845 7.32337e-19)
(5.16085 3.15818 -7.51365e-19)
(5.29674 2.97153 1.20141e-18)
(5.42489 2.7788 -1.19366e-18)
(5.545 2.58029 -8.10436e-19)
(5.65681 2.37631 -5.90664e-19)
(5.76003 2.16722 2.054e-19)
(5.85444 1.95336 -4.33033e-19)
(5.93978 1.73512 1.06174e-20)
(6.01585 1.51287 4.28778e-19)
(6.08245 1.28702 -1.07997e-19)
(6.1394 1.05798 4.47851e-19)
(6.18653 0.826176 -2.18372e-19)
(6.22371 0.592032 9.64062e-20)
(6.25082 0.356007 -5.88457e-20)
(6.26764 0.118563 0)
(4.12132 3.71997 0)
(4.28019 3.57805 6.43591e-19)
(4.43344 3.42937 3.04146e-19)
(4.58076 3.27404 -3.19132e-19)
(4.72178 3.11222 -6.60713e-19)
(4.85614 2.94418 1.01011e-18)
(4.98357 2.77016 5.61142e-21)
(5.10378 2.59041 -3.2301e-19)
(5.21651 2.40522 7.22104e-19)
(5.32148 2.21488 3.78819e-19)
(5.41847 2.01972 -3.41207e-19)
(5.50722 1.82006 1.83482e-19)
(5.58753 1.61624 1.26731e-20)
(5.65919 1.40864 -1.98101e-19)
(5.72201 1.19761 -9.44533e-20)
(5.77582 0.983543 1.89658e-19)
(5.82047 0.766828 -9.52043e-20)
(5.85582 0.547866 -1.93336e-19)