/*--------------------------------*- C++ -*----------------------------------*\
  =========                 |
  \\      /  F ield         | OpenFOAM: The Open Source CFD Toolbox
   \\    /   O peration     | Website:  https://openfoam.org
    \\  /    A nd           | Version:  6.0
     \\/     M anipulation  |
\*---------------------------------------------------------------------------*/
FoamFile
{
    version     2.0;
    format      ascii;
    class       surfaceScalarField;
    location    "14";
    object      phi;
}
// * * * * * * * * * * * * * * * * * * * * * * * * * * * * * * * * * * * * * //

dimensions      [0 3 -1 0 0 0 0];

internalField   nonuniform List<scalar> 
4670
(
0.00688122
-0.813461
0.80658
0.01818
-0.820463
0.809165
0.0294058
-0.811921
0.800696
0.0395535
-0.783623
0.773475
0.0488689
-0.751863
0.742547
0.0577994
-0.721629
0.712698
0.0666917
-0.694789
0.685897
0.0757435
-0.671836
0.662784
0.0851505
-0.652706
0.643299
-0.637238
0.627141
0.0952474
0.00695971
-0.820421
0.0178137
-0.831317
0.028374
-0.822482
0.0378214
-0.79307
0.046469
-0.76051
0.0547857
-0.729946
0.0631018
-0.703105
0.0715783
-0.680312
0.0803854
-0.661513
-0.646651
0.0897988
0.00680996
-0.827231
0.0170464
-0.841554
0.0268011
-0.832236
0.0353749
-0.801644
0.0431607
-0.768296
0.0506533
-0.737438
0.0581605
-0.710612
0.0657821
-0.687934
0.073612
-0.669343
-0.654865
0.081826
0.00645233
-0.833683
0.0159251
-0.851027
0.0247538
-0.841065
0.0323411
-0.809231
0.0391329
-0.775088
0.0456534
-0.743959
0.0522378
-0.717197
0.0590178
-0.694714
0.0661196
-0.676444
-0.66246
0.0737146
0.00589318
-0.839576
0.0144459
-0.859579
0.0222596
-0.848879
0.0287949
-0.815766
0.0345049
-0.780798
0.039876
-0.74933
0.0452301
-0.722551
0.0507979
-0.700281
0.0569057
-0.682552
-0.669504
0.0639499
0.00516265
-0.844739
0.0126534
-0.86707
0.0193271
-0.855553
0.0247348
-0.821174
0.0293566
-0.78542
0.0336025
-0.753576
0.0376553
-0.726604
0.0417325
-0.704359
0.0464744
-0.687294
-0.675962
0.0529322
0.00433111
-0.84907
0.0106603
-0.873399
0.016037
-0.860929
0.0201
-0.825237
0.0234508
-0.788771
0.0265839
-0.756709
0.0295962
-0.729616
0.0323902
-0.707153
0.0352617
-0.690166
-0.679392
0.0386909
0.00354414
-0.852614
0.00876269
-0.878618
0.0127738
-0.86494
0.0152227
-0.827686
0.0167847
-0.790333
0.0182151
-0.758139
0.0200249
-0.731426
0.0221161
-0.709244
0.0232935
-0.691343
-0.675547
0.0194494
0.0029548
-0.855569
0.00727598
-0.882939
0.0101152
-0.86778
0.011047
-0.828618
0.0105085
-0.789794
0.00902052
-0.756651
0.00732967
-0.729735
0.00659068
-0.708505
0.00709454
-0.691847
-0.672399
0.00394643
0.00270228
-0.858271
0.00636199
-0.886599
0.00842959
-0.869847
0.00849041
-0.828678
0.00669526
-0.787999
0.00275646
-0.752712
-0.00404221
-0.722936
-0.0134084
-0.699139
-0.0193549
-0.6859
-0.697225
0.0054704
0.886528
0.00463735
-0.891166
0.882025
0.00450325
0.877731
0.00429397
0.873754
0.00397695
0.870168
0.00358631
0.867037
0.00313129
0.864347
0.00268934
0.862061
0.00228581
0.86007
0.00199099
0.00179922
0.918797
0.00771811
-0.921878
0.915236
0.00806464
0.911404
0.00812568
0.90747
0.00791046
0.903572
0.00748494
0.899827
0.00687573
0.896301
0.00621598
0.893003
0.00558401
0.889833
0.0051607
0.00503327
0.886646
0.00860025
-0.887528
0.885217
0.00949347
0.883387
0.00995614
0.881332
0.00996516
0.879196
0.00962081
0.877102
0.00896953
0.875155
0.00816315
0.873363
0.0073762
0.871674
0.00684954
0.0068602
0.834872
0.00883241
-0.835104
0.834196
0.01017
0.833154
0.0109981
0.831993
0.0111257
0.830807
0.0108072
0.829798
0.00997851
0.829045
0.00891625
0.82865
0.00777117
0.828626
0.00687334
0.00680767
0.790677
0.00943252
-0.791277
0.789758
0.0110895
0.78847
0.0122856
0.787268
0.0123279
0.786064
0.0120114
0.785323
0.0107188
0.784928
0.00931161
0.785258
0.00744173
0.786373
0.00575761
0.00518195
0.755505
0.0107282
-0.756801
0.754038
0.012557
0.752059
0.0142647
0.750454
0.0139331
0.748629
0.0138364
0.747782
0.0115656
0.747132
0.0099615
0.747903
0.00667105
0.749532
0.00412806
0.00200184
0.726745
0.0127514
-0.728768
0.724769
0.0145334
0.721976
0.0170571
0.720006
0.015903
0.717126
0.0167162
0.71609
0.0126014
0.714507
0.0115448
0.716309
0.00486879
0.717654
0.00278316
-0.00327988
0.70216
0.0154713
-0.70488
0.699833
0.0168602
0.696265
0.0206252
0.694219
0.0179485
0.689986
0.0209499
0.688803
0.0137843
0.68497
0.0153775
0.689016
0.000822646
0.689888
0.00191118
-0.0125304
0.680368
0.0189586
-0.683855
0.677816
0.0194118
0.673593
0.0248486
0.671825
0.0197167
0.666381
0.0263939
0.665137
0.0150279
0.657681
0.0228338
0.662891
-0.00438707
0.665517
-0.000715216
-0.0329136
0.660896
-0.665474
0.0235367
0.658031
0.022277
0.653286
0.0295931
0.651885
0.0211182
0.645842
0.0324369
0.644472
0.0163978
0.633764
0.0335414
0.633953
-0.00457616
0.635576
-0.00233732
-0.0945626
0.907286
-0.00180693
-0.905479
0.90857
-0.00128441
0.909086
-0.000515149
0.908713
0.000372475
0.907423
0.00129025
0.905299
0.00212367
0.902448
0.00285142
0.899032
0.00341552
0.895199
0.00383319
0.00403338
0.908406
-0.00855677
-0.901656
0.914246
-0.00712469
0.919059
-0.00532721
0.92271
-0.00327932
0.925155
-0.00115481
0.926445
0.000833914
0.926658
0.00263824
0.925901
0.00417284
0.924268
0.00546607
0.00642354
0.855267
-0.0172445
-0.846579
0.863138
-0.0149956
0.869956
-0.0121453
0.875595
-0.00891827
0.880077
-0.00563698
0.883477
-0.00256594
0.885859
0.00025623
0.887277
0.00275467
0.887806
0.00493743
0.00670126
0.799747
-0.0262885
-0.790703
0.807979
-0.0232277
0.815038
-0.019204
0.820841
-0.0147214
0.825523
-0.0103187
0.829209
-0.00625229
0.831932
-0.0024668
0.833771
0.000915944
0.83478
0.00392852
0.00637699
0.759918
-0.0354736
-0.750733
0.76803
-0.0313397
0.774634
-0.0258079
0.779871
-0.0199588
0.784023
-0.0144706
0.787196
-0.0094249
0.789385
-0.0046561
0.790742
-0.000441338
0.791302
0.00336917
0.00640136
0.730653
-0.0453106
-0.720816
0.738672
-0.0393581
0.744612
-0.0317486
0.749211
-0.024558
0.752807
-0.0180657
0.75534
-0.011958
0.75682
-0.00613631
0.757517
-0.00113855
0.757412
0.0034747
0.00701173
0.707324
-0.0564747
-0.69616
0.715255
-0.0472892
0.72041
-0.0369034
0.72454
-0.0286888
0.727726
-0.0212514
0.729656
-0.0138877
0.730491
-0.00697194
0.73062
-0.00126732
0.729911
0.00418384
0.00815463
0.687642
-0.0685305
-0.675587
0.695281
-0.054928
0.699775
-0.0413968
0.703595
-0.0325093
0.706306
-0.0239619
0.707614
-0.0151961
0.707935
-0.00729264
0.707654
-0.000986757
0.706451
0.00538688
0.00972625
0.670719
-0.0766172
-0.662633
0.677483
-0.0616913
0.682744
-0.0466583
0.686044
-0.0358091
0.687636
-0.0255537
0.688201
-0.0157615
0.688103
-0.0071946
0.687518
-0.000401562
0.685846
0.00705859
0.0117171
0.655612
-0.66825
-0.0639799
0.657194
-0.0632727
0.670669
-0.0601333
0.67281
-0.0379503
0.67176
-0.0245032
0.671476
-0.0154778
0.671154
-0.00687289
0.670306
0.000446522
0.668134
0.00923032
0.0143773
0.0533059
0.581438
-0.580205
-0.0545384
0.0504498
0.597093
-0.594237
0.046429
0.613024
-0.609003
0.0414775
0.630642
-0.625691
0.0356573
0.651089
-0.645269
0.0288674
0.676142
-0.669352
0.0209229
0.710366
-0.702421
0.0119238
0.762678
-0.753678
0.00348495
0.828337
-0.819898
0.874313
-0.870829
0.0567014
0.584804
-0.0600677
0.0525213
0.601274
0.0476265
0.617918
0.0421133
0.636155
0.0359282
0.657274
0.0289017
0.683168
0.0208188
0.718449
0.0118024
0.771694
0.0034979
0.836642
0.877811
0.0556425
0.587198
-0.0580366
0.0522179
0.604698
0.0478123
0.622324
0.0424819
0.641486
0.0362592
0.663497
0.029089
0.690339
0.0208598
0.726678
0.0117745
0.780779
0.00350434
0.844912
0.881316
0.0624234
0.592941
-0.0681663
0.0565685
0.610553
0.0504738
0.628419
0.0440548
0.647905
0.0371399
0.670412
0.0295292
0.697949
0.0210297
0.735177
0.0118197
0.789989
0.00353922
0.853192
0.884855
0.060087
0.595432
-0.0625782
0.0561792
0.614461
0.0511247
0.633473
0.0449641
0.654065
0.0378901
0.677486
0.0299907
0.705849
0.0212319
0.743936
0.011874
0.799347
0.00357092
0.861495
0.888426
0.0688207
0.602342
-0.0757309
0.0616422
0.621639
0.0542573
0.640858
0.046684
0.661639
0.0388146
0.685355
0.0304509
0.714212
0.0214089
0.752978
0.0119217
0.808834
0.0036053
0.869812
0.892031
0.0653043
0.603078
-0.0660403
0.0610622
0.625882
0.054873
0.647047
0.0474898
0.669022
0.0394173
0.693428
0.0307484
0.722881
0.0214558
0.762271
0.0118576
0.818433
0.0035732
0.878096
0.895604
0.0785163
0.612778
-0.0882156
0.0674103
0.636987
0.0573248
0.657133
0.0484243
0.677922
0.0397486
0.702103
0.0307335
0.731897
0.0212595
0.771745
0.0116678
0.828024
0.00349276
0.886271
0.899097
0.076814
0.621549
-0.0855848
0.0658895
0.647912
0.0572712
0.665751
0.0487489
0.686445
0.0396684
0.711184
0.0302701
0.741295
0.0206885
0.781326
0.0112194
0.837493
0.00330188
0.894189
0.902399
0.0823523
-0.129053
0.0676315
0.0577959
0.0480808
0.0384485
0.0290106
0.0196337
0.0105478
0.00308012
0.0973747
0.536744
-0.550488
-0.0836314
0.0848262
0.549393
-0.536845
0.0699545
0.557671
-0.5428
0.0570635
0.569071
-0.55618
0.0462583
0.583691
-0.572886
0.0366645
0.60164
-0.592046
0.0273902
0.626408
-0.617134
0.0176017
0.667763
-0.657974
0.00718373
0.732338
-0.72192
0.821254
-0.81407
0.0814753
0.546229
-0.0909601
0.0739691
0.556899
0.0655163
0.566124
0.0563013
0.578286
0.0469264
0.593066
0.0375781
0.610989
0.0280527
0.635934
0.017883
0.677933
0.00722326
0.742997
0.828477
0.0736442
0.557725
-0.0851404
0.0667455
0.563798
0.0600947
0.572775
0.0529947
0.585386
0.0452543
0.600806
0.0368484
0.619394
0.0276978
0.645084
0.0175751
0.688055
0.00693472
0.753638
0.835412
0.0694147
0.563247
-0.0749367
0.0634874
0.569725
0.0570155
0.579247
0.0502928
0.592108
0.0431911
0.607908
0.0354278
0.627158
0.0267241
0.653788
0.0168424
0.697937
0.00644841
0.764032
0.841861
0.0658128
0.566141
-0.0687068
0.0608452
0.574693
0.0548664
0.585226
0.0484043
0.598571
0.0415392
0.614773
0.0340496
0.634647
0.0256039
0.662233
0.0159437
0.707597
0.00588786
0.774088
0.847748
0.062461
0.569033
-0.0653523
0.0580524
0.579101
0.0527237
0.590555
0.046752
0.604542
0.0401912
0.621334
0.0328947
0.641944
0.0245928
0.670535
0.0150918
0.717098
0.00536298
0.783816
0.853111
0.0593355
0.572095
-0.0623978
0.0553376
0.583099
0.0505153
0.595377
0.045022
0.610035
0.0388379
0.627518
0.0318022
0.648979
0.0236682
0.678669
0.0143165
0.72645
0.00489799
0.793235
0.858009
0.0578792
0.575349
-0.0611336
0.0538533
0.587125
0.0491136
0.600117
0.0437627
0.615386
0.0377434
0.633537
0.0308654
0.655858
0.0228655
0.686669
0.013664
0.735651
0.00452389
0.802375
0.862533
0.0554498
0.577771
-0.0578718
0.0520078
0.590567
0.0476646
0.60446
0.0425864
0.620465
0.0367687
0.639355
0.0300451
0.662581
0.022167
0.694547
0.0131014
0.744717
0.00422645
0.81125
0.86676
0.0556763
-0.0581103
0.0520063
0.0474632
0.0422371
0.0363233
0.0295525
0.0216787
0.0127171
0.00406889
-0.492667
0.101608
-0.159429
-0.486353
0.0623291
-0.0686436
-0.482678
0.0576885
-0.061363
-0.487056
0.0237689
-0.0193909
-0.487455
0.0190606
-0.0186618
-0.491177
-0.000869081
0.00459135
-0.493816
-0.00750385
0.0101424
-0.499002
-0.0213766
0.0265625
-0.504551
-0.0285524
0.0341022
-0.0372894
-0.511623
0.0443613
-0.51322
0.0779833
-0.505982
0.0550919
-0.49755
0.0492559
-0.499988
0.0262072
-0.499665
0.0187377
-0.503171
0.00263619
-0.505805
-0.00486899
-0.510746
-0.0164362
-0.515973
-0.0233248
-0.0308957
-0.522367
-0.527963
0.0631462
-0.522613
0.0497419
-0.514872
0.0415152
-0.515194
0.0265289
-0.514556
0.0181
-0.517493
0.00557354
-0.5202
-0.00216263
-0.52491
-0.0117261
-0.530016
-0.0182188
-0.0247925
-0.536119
-0.545078
0.0520444
-0.539235
0.0438993
-0.533399
0.0356786
-0.532247
0.0253777
-0.531497
0.0173495
-0.533682
0.00775824
-0.536347
0.00050238
-0.540775
-0.00729793
-0.545787
-0.0132065
-0.0188409
-0.551739
-0.563687
0.0428458
-0.557203
0.037415
-0.552302
0.0307778
-0.550293
0.0233688
-0.549464
0.0165197
-0.550944
0.00923914
-0.553433
0.00299064
-0.557507
-0.00322348
-0.562381
-0.00833302
-0.0130306
-0.568191
-0.583718
0.034517
-0.577049
0.0307459
-0.572239
0.0259687
-0.569573
0.0207027
-0.568461
0.0154072
-0.569257
0.0100355
-0.571362
0.00509498
-0.574939
0.000353857
-0.579505
-0.00376743
-0.00749461
-0.585041
-0.608934
0.0263167
-0.602038
0.0238504
-0.5968
0.020731
-0.593337
0.017239
-0.591517
0.0135874
-0.59139
0.00990894
-0.592697
0.00640166
-0.595412
0.00306832
-0.599244
6.53113e-05
-0.00264145
-0.604097
-0.649146
0.0174883
-0.641417
0.0161209
-0.635096
0.0144107
-0.630302
0.0124448
-0.627068
0.0103534
-0.62538
0.00822067
-0.625125
0.00614652
-0.626223
0.00416714
-0.628497
0.00233924
0.000678621
-0.631817
-0.712085
0.00765329
-0.703141
0.00717696
-0.695324
0.00659457
-0.688793
0.00591339
-0.683598
0.00515827
-0.679748
0.00437037
-0.677187
0.00358566
-0.675849
0.00282948
-0.67562
0.00211009
0.00140673
-0.676348
-0.806417
-0.79924
-0.792646
-0.786732
-0.781574
-0.777204
-0.773618
-0.770788
-0.768678
-0.767272
-0.518542
-0.041903
0.0488217
-0.525561
-0.046506
0.0535252
-0.532487
-0.0494692
0.0563946
-0.539398
-0.0516187
0.0585298
-0.546428
-0.0524453
0.0594755
-0.554149
-0.0514409
0.0591619
-0.560859
-0.0494185
0.0561288
-0.560389
-0.04689
0.0464204
-0.563176
-0.0415858
0.0443726
-0.0334126
-0.579275
0.0495118
-0.528808
-0.0354622
-0.535479
-0.039835
-0.542148
-0.0428001
-0.548857
-0.0449093
-0.555538
-0.0457648
-0.561804
-0.0451746
-0.567119
-0.0441034
-0.57123
-0.0427798
-0.574356
-0.0384593
-0.0324802
-0.575288
-0.542446
-0.0291352
-0.549084
-0.0331965
-0.555828
-0.0360565
-0.56264
-0.0380978
-0.569328
-0.0390769
-0.575408
-0.0390939
-0.580858
-0.0386533
-0.586109
-0.0375292
-0.589668
-0.0348998
-0.0328701
-0.589279
-0.558066
-0.0228084
-0.564783
-0.0264796
-0.571681
-0.0291579
-0.578666
-0.031113
-0.585505
-0.0322378
-0.591894
-0.032705
-0.597901
-0.032646
-0.603537
-0.0318929
-0.607641
-0.0307966
-0.0310564
-0.609454
-0.574528
-0.0164709
-0.581338
-0.0196695
-0.588403
-0.0220935
-0.595593
-0.0239231
-0.6027
-0.0251307
-0.609564
-0.0258407
-0.616154
-0.0260561
-0.622212
-0.0258354
-0.627203
-0.0258047
-0.0269537
-0.631306
-0.591261
-0.0102504
-0.598051
-0.01288
-0.605194
-0.0149498
-0.612553
-0.0165646
-0.619957
-0.0177269
-0.627293
-0.018504
-0.634435
-0.0189138
-0.641124
-0.0191469
-0.647228
-0.0197005
-0.021052
-0.65313
-0.609786
-0.00456135
-0.616148
-0.00651856
-0.622994
-0.00810377
-0.630192
-0.00936687
-0.637603
-0.0103155
-0.645117
-0.0109904
-0.652582
-0.0114479
-0.65984
-0.0118891
-0.666917
-0.0126235
-0.0138576
-0.674112
-0.63608
-0.000298766
-0.641083
-0.00151578
-0.646697
-0.00248945
-0.652806
-0.00325843
-0.659294
-0.00382671
-0.666055
-0.00422997
-0.672972
-0.00453101
-0.67998
-0.00488075
-0.687144
-0.00545969
-0.00636277
-0.694639
-0.677887
0.00124038
-0.680151
0.000748181
-0.683027
0.000386293
-0.686425
0.000139301
-0.690235
-1.62207e-05
-0.694374
-9.13307e-05
-0.698778
-0.000126842
-0.703465
-0.000193637
-0.708534
-0.000391253
-0.000822552
-0.714074
-0.766031
-0.765283
-0.764897
-0.764757
-0.764774
-0.764865
-0.764992
-0.765185
-0.765577
-0.766399
0.000645568
-0.767045
0.00677774
-0.720206
0.0149085
-0.70277
0.0226256
-0.681829
0.0290211
-0.659525
0.0337882
-0.636073
0.0368405
-0.612507
0.0380823
-0.59052
0.0348161
-0.572022
-0.553893
0.00943345
0.00132197
-0.768367
0.00824064
-0.727125
0.0169964
-0.711525
0.0252978
-0.69013
0.0323769
-0.666604
0.0382928
-0.641989
0.043588
-0.617802
0.0485956
-0.595528
0.0519384
-0.575365
-0.556054
0.0540995
0.00206972
-0.770437
0.0098662
-0.734921
0.0193496
-0.721009
0.028358
-0.699139
0.0362915
-0.674538
0.0431984
-0.648896
0.0490896
-0.623693
0.0535392
-0.599978
0.0564893
-0.578315
-0.559198
0.0596332
0.00286462
-0.773301
0.0115785
-0.743635
0.0217822
-0.731212
0.0314718
-0.708828
0.0401879
-0.683254
0.048112
-0.65682
0.0556724
-0.631253
0.0635467
-0.607852
0.0725624
-0.587331
-0.569958
0.0833225
0.00370183
-0.777003
0.0132768
-0.75321
0.0241393
-0.742075
0.0344097
-0.719099
0.0437103
-0.692555
0.0522055
-0.665316
0.0601816
-0.63923
0.067876
-0.615546
0.0753713
-0.594826
-0.577006
0.0824198
0.00453247
-0.781535
0.0148749
-0.763552
0.0262685
-0.753468
0.0369913
-0.729821
0.0467978
-0.702361
0.0559739
-0.674492
0.064957
-0.648213
0.074152
-0.624741
0.0837683
-0.604442
-0.587035
0.0937974
0.00531753
-0.786853
0.016278
-0.774513
0.0280396
-0.76523
0.0390355
-0.740817
0.0491162
-0.712442
0.0585652
-0.683941
0.067697
-0.657344
0.0766625
-0.633707
0.0854038
-0.613184
-0.5953
0.0936683
0.00601692
-0.79287
0.0174216
-0.785917
0.0293605
-0.777169
0.0404487
-0.751906
0.0506716
-0.722665
0.0604
-0.693669
0.0700241
-0.666968
0.0798031
-0.643486
0.0898801
-0.623261
-0.605804
0.100384
0.00661018
-0.79948
0.0182488
-0.797556
0.0301443
-0.789065
0.0410946
-0.762856
0.0511865
-0.732756
0.0608119
-0.703295
0.0703306
-0.676487
0.0799478
-0.653103
0.0897641
-0.633077
-0.615914
0.0998741
0.00709977
0.0187085
0.0303395
0.0409585
0.0507493
0.0601531
0.0695625
0.0792436
0.089465
0.100692
0.0392137
-2.98395
3.03998
0.0283321
-2.48425
2.49513
0.0280999
-1.97691
1.97714
0.0232035
-1.64528
1.65017
0.0282761
-1.308
1.30293
0.0323914
-0.988006
0.983891
0.0335304
-0.733173
0.732034
0.0341366
-0.529558
0.528952
0.034402
-0.374701
0.374435
0.0345044
-0.258162
0.258059
0.0342768
-0.167239
0.167466
0.0335535
-0.0947778
0.0955011
0.0325343
-0.0268653
0.0278846
0.031806
0.0237993
-0.0230709
0.0323218
0.0652906
-0.0658065
0.033561
0.065802
-0.0670411
0.035369
0.0627587
-0.0645667
0.0365703
0.038669
-0.0398704
0.0328911
-0.0104595
0.0141388
0.0607268
-0.0568187
0.0296175
-2.92376
0.00923973
-2.46387
0.00922155
-1.97689
0.00879093
-1.64484
0.0163011
-1.31551
0.0236064
-0.995311
0.0269647
-0.736532
0.0290992
-0.531693
0.0304856
-0.376087
0.0313827
-0.259059
0.0317301
-0.167586
0.0314507
-0.0944984
0.0307968
-0.0262114
0.0303651
0.024231
0.0310736
0.0645821
0.0323047
0.0645708
0.0339724
0.0610908
0.0348789
0.0377626
0.0311017
-0.0066824
0.0645019
0.0170516
-2.85899
-0.00927465
-2.43755
-0.00931246
-1.97685
-0.00550788
-1.64865
0.00465032
-1.32567
0.014822
-1.00548
0.0203817
-0.742091
0.0240238
-0.535335
0.02653
-0.378593
0.0282296
-0.260759
0.0291664
-0.168523
0.0293527
-0.0946848
0.0290817
-0.0259404
0.0289479
0.0243648
0.0298291
0.0637009
0.0310415
0.0633584
0.0325818
0.0595505
0.0332359
0.0371086
0.0294355
-0.00288202
0.0680999
0.00619718
-2.79147
-0.0226982
-2.40865
-0.0237831
-1.97577
-0.0181413
-1.65429
-0.00638034
-1.33743
0.00607075
-1.01793
0.01377
-0.749791
0.0189189
-0.540484
0.02255
-0.382225
0.0250625
-0.263271
0.0266021
-0.170063
0.0272719
-0.0953546
0.0273963
-0.0260648
0.0275577
0.0242035
0.028592
0.0626665
0.0297786
0.0621719
0.0312069
0.0581222
0.0316509
0.0366646
0.0278944
0.000874442
0.0714836
-0.00259152
-2.72493
-0.0289517
-2.38229
-0.0340279
-1.97069
-0.0299465
-1.65837
-0.0176366
-1.34974
-0.00299497
-1.03258
0.00703919
-0.759825
0.01378
-0.547225
0.0185569
-0.387001
0.021896
-0.26661
0.0240507
-0.172217
0.025218
-0.0965219
0.0257457
-0.0265926
0.0261966
0.0237526
0.027366
0.0614971
0.028523
0.0610149
0.0298566
0.0567886
0.0301321
0.0363891
0.0264789
0.0045276
0.0746209
-0.00663675
-2.66536
-0.0368539
-2.35207
-0.0494231
-1.95812
-0.0467226
-1.66107
-0.0319491
-1.36451
-0.0133055
-1.05122
-2.35739e-05
-0.773107
0.00857466
-0.555823
0.0145531
-0.39298
0.0187403
-0.270797
0.0215228
-0.175
0.0231978
-0.0981968
0.0241332
-0.0275281
0.0248661
0.0230197
0.0261547
0.0602086
0.0272816
0.059888
0.0285386
0.0555316
0.0286854
0.0362422
0.0251873
0.00802567
0.0774851
-0.0338863
-2.59278
-0.0780387
-2.30792
-0.086377
-1.94978
-0.0751372
-1.67231
-0.0515597
-1.38809
-0.0255153
-1.07726
-0.00759859
-0.791023
0.00325159
-0.566673
0.0105251
-0.400253
0.015596
-0.275868
0.0190225
-0.178426
0.021214
-0.100388
0.0225592
-0.0288732
0.0235664
0.0220125
0.0249613
0.0588137
0.0260605
0.0587888
0.0272595
0.0543326
0.0273152
0.0361865
0.0240166
0.0113243
0.0800539
-0.107598
-2.46574
-0.14614
-2.26938
-0.133461
-1.96246
-0.106814
-1.69896
-0.0716887
-1.42322
-0.0378993
-1.11105
-0.0153244
-0.813598
-0.00213295
-0.579865
0.00647922
-0.408866
0.0124629
-0.281852
0.01655
-0.182513
0.0192654
-0.103104
0.021021
-0.0306289
0.0222959
0.0207376
0.0237882
0.0573213
0.024865
0.0577119
0.0260244
0.0531732
0.026024
0.0361869
0.0229623
0.0143859
0.0823089
-0.120966
-2.34082
-0.142587
-2.24776
-0.1346
-1.97045
-0.111989
-1.72157
-0.0787372
-1.45647
-0.0456927
-1.1441
-0.0218792
-0.837412
-0.00717367
-0.59457
0.00255911
-0.418598
0.00939707
-0.28869
0.014132
-0.187248
0.0173653
-0.106337
0.0195245
-0.0327881
0.0210577
0.0192045
0.0226398
0.0557392
0.0237006
0.0566512
0.0248376
0.0520363
0.0248128
0.0362117
0.0220188
0.01718
0.0842352
0.229245
-2.5646
0.0890153
-2.10753
-0.00709949
-1.87434
-0.0457612
-1.68291
-0.0566055
-1.44562
-0.0449188
-1.15578
-0.0260336
-0.856297
-0.0113147
-0.609289
-0.000981711
-0.428931
0.00652438
-0.296196
0.0118495
-0.192573
0.015566
-0.110054
0.0181038
-0.0353259
0.0198718
0.0174365
0.0215261
0.0540848
0.0225788
0.0555985
0.0236966
0.0509185
0.0236834
0.0362249
0.021188
0.0196755
0.0858294
0.69579
-2.01606
-1.24433
0.541806
-1.95355
0.548182
-1.88071
0.406252
-1.54098
0.253369
-1.29274
0.157198
-1.05961
0.108483
-0.807582
0.0771994
-0.578005
0.0574537
-0.409186
0.046686
-0.285428
0.0406826
-0.18657
0.0368885
-0.10626
0.0349958
-0.0334331
0.0348872
0.017545
0.0369649
0.0520071
0.0391635
0.0533999
0.0412566
0.0488254
0.041295
0.0361864
0.036702
0.0242685
0.0883676
1.00042
-1.64662
-1.36986
0.760678
-1.7138
0.521311
-1.64135
0.381494
-1.40116
0.266315
-1.17756
0.18036
-0.973658
0.124945
-0.752167
0.0895881
-0.542649
0.0662034
-0.385801
0.0526109
-0.271836
0.0449919
-0.178951
0.0402518
-0.101519
0.038063
-0.0312443
0.0380188
0.0175892
0.0403962
0.0496297
0.042881
0.0509151
0.045094
0.0466125
0.0451473
0.0361331
0.0408014
0.0286144
0.0902829
1.17677
-1.27345
-1.54993
0.849499
-1.38654
0.621273
-1.41312
0.483746
-1.26363
0.349493
-1.04331
0.231018
-0.855184
0.151654
-0.672803
0.1053
-0.496294
0.0761098
-0.356611
0.0587039
-0.25443
0.0490894
-0.169337
0.0433647
-0.0957947
0.040959
-0.0288385
0.0410855
0.0174627
0.0438602
0.046855
0.0466832
0.0480922
0.0491243
0.0441714
0.0493122
0.0359452
0.045638
0.0322886
0.0910718
1.23527
-0.914905
-1.59381
0.942624
-1.09389
0.686047
-1.15654
0.496215
-1.0738
0.367945
-0.915039
0.257992
-0.745231
0.172306
-0.587117
0.119391
-0.443378
0.0862071
-0.323427
0.0649942
-0.233217
0.0529401
-0.157283
0.0461166
-0.0889712
0.043582
-0.0263039
0.0440284
0.0170163
0.0473449
0.0435384
0.0506275
0.0448095
0.0534372
0.0413617
0.0540175
0.0353649
0.0515596
0.0347465
0.0901054
1.30679
-0.678885
-1.54281
1.02971
-0.816816
0.768648
-0.895478
0.598117
-0.903271
0.460267
-0.777188
0.317552
-0.602516
0.203951
-0.473516
0.136337
-0.375764
0.0971103
-0.284201
0.0716268
-0.207733
0.0565706
-0.142226
0.0484535
-0.0808541
0.0458631
-0.0237135
0.0468329
0.0160465
0.050896
0.0394753
0.0548294
0.0408761
0.0582303
0.0379608
0.0595854
0.0340099
0.0589149
0.035417
0.086587
1.32418
-0.483377
-1.51968
1.05998
-0.552624
0.828222
-0.663717
0.611862
-0.686911
0.423953
-0.58928
0.294654
-0.473216
0.209643
-0.388506
0.150369
-0.31649
0.108376
-0.242208
0.0786758
-0.178033
0.0601845
-0.123735
0.0504877
-0.0711573
0.0478377
-0.0210634
0.0495641
0.01432
0.0546305
0.034409
0.0594999
0.0360066
0.0638044
0.0336564
0.066421
0.0313933
0.0680306
0.0338073
0.0795758
1.26623
-0.308107
-1.4415
1.07759
-0.363981
0.86512
-0.451245
0.645822
-0.467613
0.4839
-0.427358
0.370939
-0.360255
0.269356
-0.286923
0.182959
-0.230093
0.123863
-0.183112
0.0869479
-0.141118
0.0645005
-0.101288
0.0527524
-0.0594093
0.0498134
-0.0181244
0.0524575
0.0116759
0.0587926
0.0280739
0.0649722
0.029827
0.070569
0.0280595
0.0749528
0.0270095
0.0791987
0.0295615
0.068093
1.1559
-0.179325
-1.28468
1.00554
-0.213625
0.807531
-0.253237
0.611982
-0.272063
0.455109
-0.270486
0.333514
-0.238659
0.24303
-0.196439
0.1773
-0.164364
0.130908
-0.13672
0.0965957
-0.106805
0.0713905
-0.0760823
0.0566262
-0.044645
0.052619
-0.0141172
0.0560556
0.00823929
0.0638431
0.0202864
0.071724
0.0219461
0.079029
0.0207545
0.0855835
0.020455
0.0927073
0.0224377
0.0513189
1.05852
-0.0837986
-1.15405
0.940295
-0.0953976
0.804108
-0.11705
0.668531
-0.136487
0.539594
-0.141548
0.427298
-0.126363
0.33341
-0.102551
0.251072
-0.082025
0.180493
-0.0661407
0.125065
-0.0513774
0.0862427
-0.0372604
0.0642369
-0.0226393
0.0575089
-0.00738919
0.0612352
0.00451298
0.0705127
0.0110089
0.0803846
0.0120743
0.0897446
0.0113945
0.0986735
0.0115261
0.108809
0.0123023
0.0287841
1.05048
-1.13428
0.955087
0.838037
0.70155
0.560002
0.433639
0.331087
0.249062
0.182922
0.131544
0.0942839
0.0716446
0.0642554
0.0687684
0.0797773
0.0918516
0.103246
0.114772
0.127075
1.47495
-0.00326761
-1.44815
1.49597
0.0012597
1.507
0.0185619
1.51344
0.014683
1.5078
0.0380686
1.49586
0.0283431
1.46394
0.0654547
1.41785
0.0415215
1.33401
0.0814961
-0.00488189
1.54961
-0.021637
-1.53124
1.56062
-0.00974567
1.56831
0.0108728
1.56382
0.0191718
1.55554
0.0463433
1.52854
0.0553469
1.50304
0.0909501
1.45943
0.0851319
1.43706
0.103864
0.0623218
1.55905
-0.0255948
-1.55509
1.55999
-0.0106891
1.56043
0.0104357
1.55497
0.0246295
1.55242
0.048892
1.54896
0.0588145
1.55911
0.0807947
1.56756
0.0766855
1.57995
0.0914702
0.0923409
1.49253
-0.0243596
-1.49376
1.49313
-0.0112939
1.49958
0.00398393
1.50912
0.0150896
1.52851
0.0295047
1.55012
0.0372078
1.57635
0.0545617
1.58749
0.0655421
1.59103
0.0879332
0.0895607
1.45643
-0.0253199
-1.45547
1.46083
-0.0156982
1.47024
-0.00542824
1.48074
0.00459783
1.49255
0.0176936
1.49869
0.0310688
1.50483
0.0484161
1.5101
0.060273
1.52637
0.0716615
0.0731239
1.43203
-0.022717
-1.43463
1.4305
-0.0141704
1.42986
-0.00479
1.42934
0.00512157
1.43139
0.015638
1.43768
0.0247825
1.45283
0.0332615
1.47405
0.0390563
1.49914
0.0465706
0.0525818
1.34429
-0.0160157
-1.35099
1.34022
-0.0101005
1.3397
-0.00426682
1.34358
0.00123311
1.35278
0.00644246
1.36632
0.0112414
1.38315
0.0164345
1.40068
0.0215268
1.41972
0.0275295
0.0307957
1.22084
-0.0105928
-1.22626
1.21823
-0.00748959
1.21837
-0.00440326
1.22094
-0.00134624
1.22568
0.00170946
1.23221
0.00470886
1.24102
0.0076277
1.25238
0.0101657
1.26735
0.0125527
0.0134734
1.12301
-0.00524977
-1.12835
1.11938
-0.00386159
1.11747
-0.00249437
1.11731
-0.00118783
1.119
2.4179e-05
1.12259
0.00111169
1.12815
0.00206561
1.13545
0.00286771
1.14442
0.00358524
0.00384467
1.12833
-1.13358
1.12447
1.12197
1.12078
1.12081
1.12192
1.12399
1.12685
1.13044
1.13025
0.320033
-1.51427
1.2037
-0.136718
1.26928
-0.125713
1.28747
-0.0561376
1.30462
-0.0416613
1.3303
-0.0411564
1.35849
-0.0350565
1.38746
-0.0285227
1.41702
-0.0203363
-0.0167477
1.33033
0.210082
-1.22038
1.36152
-0.167906
1.39022
-0.154413
1.41382
-0.0797442
1.42535
-0.0531841
1.44257
-0.0583845
1.4653
-0.0577797
1.48844
-0.0516637
1.51122
-0.0431141
-0.036773
1.44465
0.181566
-1.41613
1.47814
-0.201393
1.48931
-0.165585
1.49944
-0.0898721
1.50828
-0.0620295
1.51676
-0.0668592
1.52827
-0.0692979
1.54016
-0.063554
1.5498
-0.0527454
-0.0420692
1.50274
0.146168
-1.46734
1.49641
-0.195067
1.49192
-0.161093
1.49429
-0.0922433
1.49736
-0.0650943
1.49763
-0.0671332
1.49792
-0.0695888
1.49799
-0.0636172
1.49691
-0.0516716
-0.0389193
1.53795
0.118203
-1.50998
1.50583
-0.162951
1.48529
-0.140548
1.48339
-0.0903514
1.48261
-0.0643139
1.47689
-0.0614083
1.46946
-0.0621622
1.46294
-0.0570917
1.45832
-0.0470533
-0.0360675
1.5724
0.0890673
-1.54327
1.52908
-0.119624
1.49663
-0.108106
1.4848
-0.0785177
1.47909
-0.0586016
1.46978
-0.0521003
1.45787
-0.050253
1.44714
-0.0463634
1.4395
-0.0394114
-0.0311986
1.53336
0.0459398
-1.49024
1.48708
-0.0733405
1.44849
-0.0695202
1.42667
-0.0566987
1.41366
-0.0455826
1.40085
-0.0392971
1.38635
-0.0357508
1.37217
-0.0321879
1.36025
-0.027489
-0.0219364
1.39652
0.00790981
-1.35849
1.36007
-0.0368899
1.32721
-0.0366591
1.30355
-0.0330403
1.28656
-0.0285908
1.2721
-0.0248353
1.25827
-0.0219149
1.2454
-0.0193188
1.23452
-0.0166114
-0.0136806
1.25581
-0.00300491
-1.24489
1.23389
-0.0149708
1.2125
-0.0152754
1.19404
-0.0145804
1.17871
-0.013262
1.16568
-0.011805
1.15422
-0.0104469
1.14408
-0.00918642
1.13541
-0.00793263
-0.00662358
1.23766
-1.24067
1.22269
1.20741
1.19283
1.17957
1.16777
1.15732
1.14813
1.1402
0.133354
0.0778581
-0.0832358
0.151773
0.238998
-0.257416
0.188062
0.423635
-0.459924
0.235571
0.643447
-0.690956
0.284612
0.858205
-0.907246
0.337732
1.04365
-1.09677
0.445115
1.23867
-1.34605
0.604444
1.59145
-1.75078
0.870209
1.80952
-2.07529
1.85
-2.49406
0.156204
0.0710929
0.176785
0.218417
0.21875
0.38167
0.278018
0.58418
0.344969
0.791253
0.409642
0.978981
0.532975
1.11533
0.710327
1.4141
0.976014
1.54384
1.60563
0.182782
0.0624431
0.206067
0.195132
0.253489
0.334248
0.32598
0.511688
0.418553
0.69868
0.502272
0.895261
0.652451
0.965156
0.850226
1.21632
1.06044
1.33362
1.24994
0.213472
0.052108
0.239417
0.169187
0.291951
0.281714
0.368627
0.435012
0.500699
0.566608
0.606397
0.789563
0.751094
0.820459
1.00854
0.95888
1.22196
1.1202
1.00456
0.249777
0.0398971
0.275712
0.143252
0.336842
0.220584
0.409141
0.362713
0.550186
0.425563
0.724769
0.614981
0.831175
0.714053
1.09703
0.693023
1.39632
0.820912
0.890897
0.291724
0.0282827
0.319742
0.115234
0.376787
0.163539
0.464836
0.274664
0.559826
0.330572
0.768095
0.406712
0.930918
0.551229
1.11581
0.508136
1.37802
0.558701
0.725648
0.33855
0.0223403
0.371094
0.0826901
0.413425
0.121208
0.506608
0.181481
0.59428
0.242901
0.743372
0.25762
0.954542
0.340059
1.09493
0.367751
1.29694
0.356686
0.532354
0.392106
0.0172484
0.422592
0.0522037
0.464506
0.0792942
0.535188
0.110799
0.63552
0.142569
0.725416
0.167724
0.885359
0.180116
1.02707
0.22604
1.18523
0.198527
0.359089
0.450839
0.00869323
0.477234
0.0258085
0.51874
0.037788
0.573617
0.0559223
0.653001
0.0631845
0.735029
0.0856965
0.8371
0.0780454
0.963185
0.0999538
1.0827
0.0790103
0.196899
0.518357
0.544166
0.581954
0.637876
0.701061
0.786757
0.864803
0.964757
1.04377
0.0739809
0.0923854
-0.0954994
0.0810868
0.283753
-0.290859
0.0888803
0.488615
-0.496408
0.0927398
0.682922
-0.686782
0.0931057
0.845705
-0.846071
0.0965876
1.02333
-1.02682
0.101039
1.30511
-1.30957
0.105725
1.65762
-1.66231
0.10377
2.11932
-2.11737
2.71812
-2.66889
0.0736337
0.0895815
0.0800867
0.2773
0.0873019
0.4814
0.0906286
0.679596
0.089711
0.846622
0.0915869
1.02146
0.0936718
1.30303
0.0951512
1.65615
0.0977512
2.11672
2.7558
0.0732513