/*--------------------------------*- C++ -*----------------------------------*\
| =========                 |                                                 |
| \\      /  F ield         | OpenFOAM: The Open Source CFD Toolbox           |
|  \\    /   O peration     | Version:  v1912                                 |
|   \\  /    A nd           | Website:  www.openfoam.com                      |
|    \\/     M anipulation  |                                                 |
\*---------------------------------------------------------------------------*/
FoamFile
{
    version     2.0;
    format      ascii;
    class       volScalarField;
    location    "68";
    object      p;
}
// * * * * * * * * * * * * * * * * * * * * * * * * * * * * * * * * * * * * * //

dimensions      [0 2 -2 0 0 0 0];


internalField   nonuniform List<scalar> 
9600
(
-41.4881
-36.2233
-32.9966
-30.2595
-27.7542
-25.4874
-23.4309
-21.5567
-19.8474
-18.2893
-16.8698
-15.577
-14.3995
-13.3265
-12.3479
-11.4543
-10.6374
-9.88904
-9.20188
-8.57367
-42.2481
-36.9658
-33.7031
-30.9232
-28.3727
-26.0618
-23.9639
-22.0519
-20.3087
-18.7206
-17.2748
-15.9588
-14.7609
-13.67
-12.6755
-11.7678
-10.938
-10.1779
-9.47964
-8.84216
-43.0098
-37.7043
-34.4043
-31.5812
-28.9854
-26.6302
-24.4909
-22.5412
-20.7644
-19.1465
-17.6745
-16.3357
-15.1178
-14.0093
-12.9991
-12.0773
-11.2349
-10.4632
-9.75383
-9.10726
-43.7699
-38.4384
-35.0995
-32.2327
-29.5912
-27.1916
-25.0109
-23.0237
-21.2135
-19.5662
-18.0685
-16.7071
-15.4695
-14.3436
-13.318
-12.3825
-11.5276
-10.7443
-10.024
-9.36863
-44.5256
-39.1665
-35.7879
-32.8767
-30.1891
-27.745
-25.523
-23.4986
-21.6552
-19.9789
-18.4558
-17.0724
-15.8154
-14.6725
-13.6318
-12.6827
-11.8156
-11.021
-10.2898
-9.626
-45.2746
-39.8872
-36.4682
-33.5119
-30.7781
-28.2894
-26.0263
-23.9648
-22.0887
-20.3838
-18.8358
-17.4307
-16.1548
-14.9952
-13.9398
-12.9776
-12.0985
-11.2927
-10.551
-9.87909
-46.0152
-40.5991
-37.1392
-34.1374
-31.3571
-28.8239
-26.5197
-24.4216
-22.5133
-20.7802
-19.2078
-17.7815
-16.4871
-15.3113
-14.2415
-13.2664
-12.3758
-11.5591
-10.8071
-10.1276
-46.7459
-41.3006
-37.7995
-34.7518
-31.9249
-29.3473
-27.0025
-24.8681
-22.9279
-21.1672
-19.5709
-18.1239
-16.8115
-15.62
-14.5363
-13.5488
-12.6469
-11.8197
-11.0578
-10.3713
-47.4653
-41.9906
-38.448
-35.3542
-32.4806
-29.8587
-27.4735
-25.3033
-23.3319
-21.5441
-19.9245
-18.4573
-17.1275
-15.9206
-14.8235
-13.8241
-12.9114
-12.0741
-11.3027
-10.6098
-48.1722
-42.6679
-39.0835
-35.9435
-33.0232
-30.3572
-27.932
-25.7264
-23.7243
-21.91
-20.2676
-18.7808
-17.4341
-16.2125
-15.1025
-14.0916
-13.1686
-12.3217
-11.5413
-10.8427
-48.8654
-43.3312
-39.7051
-36.5185
-33.5517
-30.8418
-28.3771
-26.1366
-24.1043
-22.2641
-20.5995
-19.0937
-17.7306
-16.4948
-15.3723
-14.3505
-13.4178
-12.5618
-11.773
-11.0694
-49.5441
-43.9797
-40.3116
-37.0784
-34.065
-31.3117
-28.8078
-26.533
-24.4711
-22.6056
-20.9193
-19.3951
-18.0161
-16.7666
-15.6322
-14.6
-13.658
-12.7935
-11.9968
-11.289
-50.2075
-44.6125
-40.9021
-37.6223
-34.5625
-31.7659
-29.2233
-26.9148
-24.8238
-22.9335
-21.2262
-19.684
-18.2896
-17.0269
-15.881
-14.8389
-13.8884
-13.016
-12.2121
-11.5009
-50.855
-45.2287
-41.4759
-38.1493
-35.0433
-32.2038
-29.623
-27.2812
-25.1617
-23.2472
-21.5193
-19.9595
-18.5501
-17.2745
-16.1176
-15.066
-14.1074
-13.2278
-12.4176
-11.7044
-51.486
-45.8275
-42.0321
-38.6587
-35.5066
-32.6247
-30.0062
-27.6317
-25.4842
-23.5459
-21.7977
-20.2207
-18.7965
-17.5082
-16.3404
-15.2796
-14.3131
-13.4267
-12.6111
-11.8975
-52.1001
-46.4081
-42.57
-39.1499
-35.9519
-33.0279
-30.3722
-27.9656
-25.7907
-23.829
-22.0609
-20.4668
-19.0279
-17.727
-16.5483
-15.4781
-14.5038
-13.6107
-12.7899
-12.0749
-52.6986
-46.9706
-43.0889
-39.6221
-36.3785
-33.4129
-30.7206
-28.2824
-26.0805
-24.0959
-22.3081
-20.697
-19.2434
-17.9298
-16.7401
-15.6608
-14.679
-13.7797
-12.9529
-12.2333
-53.2858
-47.5159
-43.5881
-40.0743
-36.7855
-33.7789
-31.0508
-28.5818
-26.3536
-24.3463
-22.5389
-20.9106
-19.4419
-18.1148
-16.9136
-15.8248
-14.8359
-13.931
-13.0992
-12.3841
-53.8639
-48.0435
-44.066
-40.5053
-37.1725
-34.1261
-31.3631
-28.8642
-26.6103
-24.5807
-22.7538
-21.1079
-19.623
-18.2807
-17.0654
-15.9637
-14.9627
-14.0469
-13.2138
-12.5313
-54.4109
-48.5459
-44.5215
-40.9158
-37.5409
-34.456
-31.6594
-29.1314
-26.8524
-24.8012
-22.9549
-21.2912
-19.7893
-18.4301
-17.1972
-16.0758
-15.0511
-14.1095
-13.2655
-12.5892
-59.8677
-59.8362
-59.7669
-59.6745
-59.5581
-59.4154
-59.2457
-59.0496
-58.8277
-58.5805
-58.3085
-58.0123
-57.6926
-57.3501
-56.9856
-56.5997
-56.1938
-55.7695
-55.3296
-54.8773
-53.5187
-53.5161
-53.4804
-53.417
-53.3268
-53.2093
-53.0647
-52.8937
-52.6969
-52.4751
-52.2288
-51.9587
-51.6653
-51.3493
-51.0114
-50.6521
-50.2722
-49.8721
-49.4525
-49.0111
-48.8743
-48.8961
-48.8885
-48.8522
-48.7883
-48.6979
-48.5814
-48.4396
-48.2729
-48.0822
-47.8678
-47.6304
-47.3705
-47.0888
-46.7856
-46.4614
-46.1165
-45.751
-45.3645
-44.9552
-44.6434
-44.683
-44.6958
-44.6816
-44.6411
-44.5754
-44.4853
-44.3711
-44.2336
-44.0731
-43.8903
-43.6857
-43.4598
-43.213
-42.9458
-42.6584
-42.351
-42.0235
-41.6756
-41.3066
-40.7313
-40.7807
-40.8061
-40.8069
-40.7833
-40.7364
-40.6666
-40.5745
-40.4606
-40.3255
-40.1695
-39.9932
-39.7971
-39.5816
-39.347
-39.0935
-38.8213
-38.5303
-38.2203
-37.8908
-37.2178
-37.2713
-37.3032
-37.3126
-37.2997
-37.2651
-37.2095
-37.1333
-37.0371
-36.9212
-36.7862
-36.6325
-36.4607
-36.271
-36.0639
-35.8395
-35.598
-35.3393
-35.0631
-34.769
-34.0939
-34.1474
-34.1811
-34.1942
-34.1868
-34.1595
-34.1129
-34.0473
-33.9633
-33.8613
-33.7418
-33.6053
-33.4523
-33.2831
-33.0982
-32.8977
-32.6818
-32.4504
-32.2033
-31.94
-31.3228
-31.3734
-31.4058
-31.4192
-31.4138
-31.39
-31.3484
-31.2893
-31.2133
-31.1209
-31.0124
-30.8885
-30.7496
-30.5962
-30.4287
-30.2474
-30.0525
-29.8438
-29.6212
-29.3841
-28.8646
-28.9108
-28.94
-28.9517
-28.9459
-28.9231
-28.8838
-28.8284
-28.7574
-28.6712
-28.5705
-28.4556
-28.3273
-28.1859
-28.032
-27.8659
-27.6879
-27.4981
-27.2961
-27.0813
-26.6796
-26.7206
-26.7458
-26.7545
-26.7471
-26.7238
-26.6852
-26.6316
-26.5636
-26.4815
-26.3861
-26.2777
-26.1571
-26.0249
-25.8815
-25.7276
-25.5635
-25.3894
-25.2048
-25.0092
-24.7306
-24.7664
-24.7872
-24.7926
-24.7829
-24.7583
-24.7194
-24.6665
-24.6002
-24.5208
-24.429
-24.3253
-24.2105
-24.0853
-23.9503
-23.8062
-23.6535
-23.4925
-23.3231
-23.1445
-22.9848
-23.0155
-23.032
-23.0341
-23.0218
-22.9957
-22.956
-22.9032
-22.8378
-22.7601
-22.6709
-22.5707
-22.4603
-22.3405
-22.2121
-22.0759
-21.9328
-21.7832
-21.6272
-21.4638
-21.4138
-21.4398
-21.4524
-21.4513
-21.4366
-21.4088
-21.3682
-21.3153
-21.2503
-21.1739
-21.0865
-20.989
-20.8819
-20.7663
-20.6431
-20.5134
-20.3784
-20.2386
-20.0947
-19.9456
-19.9938
-20.0157
-20.0247
-20.0207
-20.0038
-19.9745
-19.933
-19.8797
-19.8151
-19.7395
-19.6536
-19.5581
-19.4537
-19.3414
-19.2223
-19.0978
-18.9694
-18.8383
-18.7056
-18.5702
-18.705
-18.7232
-18.729
-18.7225
-18.7037
-18.673
-18.6307
-18.5771
-18.5127
-18.4379
-18.3532
-18.2593
-18.1569
-18.0471
-17.9312
-17.8107
-17.6878
-17.5639
-17.4417
-17.3197
-17.5309
-17.5458
-17.5488
-17.5399
-17.5195
-17.4876
-17.4447
-17.3909
-17.3267
-17.2525
-17.1688
-17.0761
-16.9754
-16.8675
-16.7538
-16.6362
-16.5172
-16.3991
-16.2864
-16.1778
-16.4577
-16.4696
-16.4701
-16.4593
-16.4373
-16.4044
-16.3609
-16.307
-16.243
-16.1693
-16.0863
-15.9946
-15.8949
-15.7882
-15.6758
-15.5596
-15.4429
-15.3286
-15.2241
-15.1272
-15.4735
-15.4829
-15.4815
-15.4692
-15.4462
-15.4126
-15.3687
-15.3148
-15.2511
-15.178
-15.0957
-15.0048
-14.9059
-14.7998
-14.6878
-14.5716
-14.4552
-14.3424
-14.2449
-14.1572
-14.5671
-14.5751
-14.5727
-14.56
-14.5368
-14.5036
-14.4605
-14.4076
-14.3453
-14.2738
-14.1934
-14.1044
-14.0073
-13.9029
-13.7919
-13.676
-13.5589
-13.4457
-13.3551
-13.2815
-13.7333
-13.7381
-13.7331
-13.7185
-13.6944
-13.6608
-13.6179
-13.566
-13.5051
-13.4356
-13.3575
-13.2713
-13.1772
-13.0755
-12.9667
-12.8519
-12.733
-12.615
-12.518
-12.4687
-53.5741
-54.1496
-54.688
-55.2114
-55.7168
-56.1983
-56.6531
-57.0799
-57.478
-57.8465
-58.1847
-58.492
-58.7681
-59.0128
-59.2252
-59.4056
-59.5548
-59.6739
-59.765
-59.83
-47.0909
-47.6718
-48.2246
-48.7551
-49.2627
-49.7451
-50.2008
-50.6291
-51.0293
-51.4009
-51.7432
-52.056
-52.3396
-52.5946
-52.8188
-53.0118
-53.174
-53.306
-53.4082
-53.4793
-42.4464
-43.015
-43.56
-44.0816
-44.5797
-45.0536
-45.5026
-45.9259
-46.3229
-46.6929
-47.035
-47.349
-47.6346
-47.8903
-48.1177
-48.3169
-48.4875
-48.6293
-48.742
-48.824
-38.3221
-38.8655
-39.3892
-39.8913
-40.3712
-40.8286
-41.2629
-41.6735
-42.0597
-42.421
-42.7559
-43.0642
-43.3466
-43.6027
-43.8325
-44.036
-44.2126
-44.3619
-44.4838
-44.5777
-34.6441
-35.1574
-35.6537
-36.1303
-36.5863
-37.0212
-37.4347
-37.8259
-38.1942
-38.5391
-38.8611
-39.1597
-39.4337
-39.6831
-39.908
-40.1083
-40.2836
-40.4337
-40.5585
-40.6579
-31.4454
-31.9272
-32.3936
-32.8421
-33.2715
-33.6812
-34.0709
-34.4399
-34.7877
-35.1142
-35.4191
-35.7018
-35.9616
-36.1988
-36.4137
-36.606
-36.7751
-36.9207
-37.0432
-37.1424
-28.6733
-29.1243
-29.5611
-29.9812
-30.3835
-30.7674
-31.1325
-31.4782
-31.8042
-32.1101
-32.3957
-32.6606
-32.9046
-33.1273
-33.3285
-33.51
-33.6702
-33.8084
-33.9251
-34.0204
-26.2613
-26.6833
-27.092
-27.4851
-27.8614
-28.2203
-28.5613
-28.8841
-29.1882
-29.4735
-29.7396
-29.9863
-30.2137
-30.4214
-30.6096
-30.7767
-30.9262
-31.0554
-31.1645
-31.2537
-24.1504
-24.5461
-24.929
-25.2971
-25.6492
-25.9847
-26.3031
-26.6041
-26.8874
-27.1528
-27.4002
-27.6294
-27.8403
-28.0329
-28.2072
-28.3631
-28.4993
-28.6185
-28.7192
-28.8013
-22.2906
-22.6625
-23.0222
-23.3677
-23.6977
-24.0117
-24.3093
-24.5902
-24.8541
-25.101
-25.3308
-25.5434
-25.7388
-25.917
-26.0778
-26.2212
-26.3472
-26.4559
-26.5479
-26.6225
-20.6403
-20.991
-21.33
-21.6552
-21.9653
-22.2598
-22.5383
-22.8007
-23.0469
-23.2768
-23.4904
-23.6878
-23.8688
-24.0335
-24.1819
-24.3139
-24.4295
-24.5288
-24.6124
-24.6798
-19.1658
-19.4977
-19.8184
-20.1256
-20.4178
-20.6946
-20.9558
-21.2014
-21.4313
-21.6456
-21.8445
-22.0278
-22.1957
-22.3482
-22.4852
-22.6068
-22.7129
-22.8038
-22.8791
-22.9398
-17.8402
-18.1555
-18.4604
-18.7516
-19.0276
-19.2883
-19.5336
-19.7638
-19.9789
-20.179
-20.3644
-20.535
-20.691
-20.8323
-20.959
-21.0711
-21.1686
-21.2514
-21.3194
-21.3741
-16.6417
-16.9426
-17.2339
-17.511
-17.7723
-18.0182
-18.249
-18.465
-18.6664
-18.8535
-19.0266
-19.1856
-19.3307
-19.462
-19.5794
-19.6829
-19.7726
-19.8486
-19.9111
-19.959
-15.5534
-15.842
-16.1218
-16.3862
-16.634
-16.8662
-17.0835
-17.2862
-17.475
-17.6501
-17.8119
-17.9603
-18.0956
-18.2178
-18.3267
-18.4226
-18.5053
-18.5749
-18.6313
-18.6746
-14.5605
-14.8406
-15.1112
-15.3636
-15.5986
-15.8178
-16.0223
-16.2126
-16.3895
-16.5535
-16.7048
-16.8435
-16.9698
-17.0837
-17.185
-17.2739
-17.3502
-17.4141
-17.4654
-17.5043
-13.6453
-13.9244
-14.1898
-14.4308
-14.653
-14.8598
-15.0521
-15.2306
-15.3965
-15.5501
-15.6919
-15.8218
-15.94
-16.0463
-16.1408
-16.2234
-16.2941
-16.3528
-16.3997
-16.4346
-12.7873
-13.0705
-13.3372
-13.5688
-13.7791
-13.9742
-14.1553
-14.3233
-14.4794
-14.624
-14.7576
-14.88
-14.9913
-15.0914
-15.1801
-15.2576
-15.3236
-15.3782
-15.4214
-15.4532
-11.9998
-12.2736
-12.5409
-12.7678
-12.9679
-13.1516
-13.3222
-13.4807
-13.628
-13.7647
-13.8911
-14.0071
-14.1125
-14.2073
-14.2914
-14.3647
-14.427
-14.4784
-14.5189
-14.5485
-11.4091
-11.6599
-11.8877
-12.1045
-12.2929
-12.4589
-12.6129
-12.7571
-12.8912
-13.0154
-13.1301
-13.2354
-13.3309
-13.4166
-13.4922
-13.5578
-13.6133
-13.6585
-13.6934
-13.7179
-6.00719
-6.49855
-7.037
-7.61946
-8.25239
-8.94317
-9.69946
-10.5307
-11.4491
-12.4704
-13.6149
-14.9095
-16.3898
-18.1018
-20.1059
-22.4814
-25.3096
-28.6127
-32.6101
-38.6061
-6.27784
-6.78274
-7.33171
-7.92624
-8.57295
-9.27892
-10.0519
-10.9017
-11.8407
-12.8848
-14.0549
-15.3782
-16.8905
-18.6385
-20.6828
-23.1024
-25.9777
-29.3276
-33.3636
-39.3806
-6.54991
-7.06835
-7.62797
-8.23481
-8.89555
-9.61696
-10.407
-11.2755
-12.2353
-13.3027
-14.4986
-15.8509
-17.3957
-19.1801
-21.2647
-23.7285
-26.6504
-30.046
-34.1187
-40.1523
-6.82293
-7.35485
-7.92519
-8.54455
-9.21954
-9.95659
-10.7638
-11.6514
-12.6322
-13.723
-14.9451
-16.3266
-17.9041
-19.725
-21.8501
-24.358
-27.3263
-30.7675
-34.878
-40.9327
-7.09644
-7.64176
-8.2229
-8.85498
-9.54443
-10.2973
-11.1219
-12.0286
-13.0308
-14.1451
-15.3936
-16.8044
-18.4148
-20.2723
-22.438
-24.99
-28.0045
-31.4913
-35.6403
-41.7195
-7.37008
-7.92868
-8.52068
-9.16569
-9.86978
-10.6387
-11.4807
-12.4068
-13.4304
-14.5685
-15.8434
-17.2838
-18.9271
-20.8214
-23.0277
-25.6238
-28.6845
-32.2165
-36.4038
-42.5083
-7.64352
-8.21524
-8.81815
-9.47627
-10.1952
-10.9802
-11.8399
-12.7855
-13.8305
-14.9925
-16.294
-17.764
-19.4404
-21.3715
-23.6184
-26.2585
-29.3651
-32.9421
-37.1668
-43.297
-7.91653
-8.50115
-9.11499
-9.78639
-10.5202
-11.3215
-12.199
-13.164
-14.2307
-15.4166
-16.7447
-18.2444
-19.954
-21.9218
-24.2093
-26.8931
-30.0454
-33.6669
-37.9283
-44.0839
-8.18894
-8.78621
-9.41096
-10.0958
-10.8447
-11.6622
-12.5575
-13.5421
-14.6304
-15.8402
-17.1949
-18.7243
-20.4669
-22.4715
-24.7994
-27.5268
-30.7243
-34.3897
-38.687
-44.8677
-8.46072
-9.07032
-9.70589
-10.4042
-11.1682
-12.0021
-12.9151
-13.9192
-15.029
-16.2628
-17.644
-19.203
-20.9785
-23.0197
-25.3878
-28.1584
-31.4007
-35.1093
-39.4415
-45.6468
-8.73197
-9.3535
-9.99975
-10.7116
-11.4906
-12.3407
-13.2714
-14.2949
-15.4261
-16.6837
-18.0913
-19.6797
-21.488
-23.5656
-25.9735
-28.787
-32.0735
-35.8246
-40.1905
-46.4198
-9.00299
-9.63593
-10.2926
-11.0178
-11.8118
-12.6779
-13.6261
-14.6688
-15.8212
-17.1023
-18.5361
-20.1538
-21.9946
-24.1082
-26.5557
-29.4114
-32.7414
-36.5343
-40.9328
-47.1853
-9.27427
-9.91788
-10.5845
-11.3229
-12.1316
-13.0134
-13.9787
-15.0404
-16.2137
-17.5181
-18.9778
-20.6243
-22.4974
-24.6467
-27.1332
-30.0306
-33.4034
-37.2371
-41.6669
-47.9418
-9.54652
-10.1998
-10.8756
-11.6267
-12.4497
-13.3469
-14.3289
-15.4091
-16.603
-17.9303
-19.4156
-21.0906
-22.9955
-25.18
-27.705
-30.6435
-34.0583
-37.9319
-42.3916
-48.6881
-9.8205
-10.482
-11.166
-11.9292
-12.7657
-13.6777
-14.6761
-15.7743
-16.9884
-18.3381
-19.8485
-21.5517
-23.4879
-25.7071
-28.27
-31.2488
-34.7047
-38.6173
-43.1058
-49.4231
-10.0972
-10.7647
-11.4553
-12.2296
-13.0792
-14.0053
-15.0194
-16.1353
-17.369
-18.7408
-20.2759
-22.0066
-23.9736
-26.227
-28.8271
-31.8452
-35.3413
-39.2921
-43.8081
-50.1457
-10.3764
-11.0468
-11.7422
-12.5267
-13.3887
-14.3285
-15.3579
-16.491
-17.744
-19.1372
-20.6965
-22.4543
-24.4516
-26.7384
-29.3749
-32.4316
-35.9669
-39.955
-44.4978
-50.8553
-10.6573
-11.3258
-12.0242
-12.8187
-13.693
-14.6463
-15.6906
-16.8404
-18.1122
-19.5265
-21.1094
-22.8938
-24.9206
-27.2401
-29.9121
-33.0064
-36.5797
-40.6041
-45.1734
-51.5519
-10.9328
-11.5934
-12.295
-13.1021
-13.99
-14.9569
-16.016
-17.1823
-18.4726
-19.9075
-21.5136
-23.3238
-25.3794
-27.7308
-30.4374
-33.5681
-37.1781
-41.2379
-45.8338
-52.237
-11.1841
-11.8296
-12.5502
-13.378
-14.2802
-15.2601
-16.3336
-17.5161
-18.8243
-20.2793
-21.9078
-23.7432
-25.827
-28.2093
-30.9494
-34.1149
-37.76
-41.853
-46.4744
-52.9122
-1.58527
-1.83921
-2.18709
-2.57602
-2.99457
-3.44811
-3.94295
-4.48502
-5.0818
-5.74356
-6.48425
-7.32289
-8.28561
-9.40847
-10.7424
-12.3616
-14.3559
-16.7864
-19.9615
-25.3563
-1.73846
-2.00883
-2.37518
-2.77005
-3.19204
-3.65092
-4.15268
-4.70283
-5.30902
-5.98178
-6.73531
-7.58898
-8.56934
-9.71297
-11.0713
-12.7193
-14.7465
-17.2124
-20.4199
-25.8284
-1.88599
-2.18045
-2.55996
-2.96297
-3.3927
-3.85998
-4.37068
-4.93051
-5.5475
-6.23249
-7.00004
-7.86989
-8.86907
-10.0347
-11.4187
-13.0964
-15.1572
-17.6586
-20.8975
-26.3147
-2.05582
-2.36111
-2.74883
-3.16057
-3.5995
-4.07632
-4.59706
-5.1677
-5.7966
-6.49492
-7.27755
-8.16463
-9.18367
-10.3723
-11.783
-13.4914
-15.5868
-18.125
-21.3988
-26.8336
-2.23696
-2.54935
-2.94491
-3.36562
-3.81405
-4.30086
-4.83228
-5.41454
-6.05623
-6.7688
-7.56746
-8.47276
-9.51267
-10.7254
-12.1639
-13.9041
-16.0353
-18.6117
-21.9229
-27.3819
-2.42359
-2.7446
-3.1485
-3.57834
-4.03656
-4.53382
-5.07651
-5.67108
-6.32632
-7.05397
-7.86955
-8.794
-9.85577
-11.0936
-12.561
-14.3343
-16.5024
-19.1183
-22.4683
-27.9544
-2.61722
-2.94774
-3.35991
-3.79889
-4.26717
-4.77531
-5.32981
-5.9373
-6.60678
-7.35025
-8.18356
-9.12806
-10.2126
-11.4766
-12.9739
-14.7814
-16.9877
-19.6442
-23.0337
-28.5486
-2.81925
-3.15926
-3.57947
-4.0276
-4.50614
-5.02549
-5.59222
-6.21314
-6.89746
-7.65744
-8.50925
-9.47462
-10.5829
-11.8739
-13.4023
-15.2451
-17.4907
-20.1887
-23.6186
-29.1635
-3.02945
-3.37901
-3.80723
-4.26455
-4.75352
-5.28435
-5.86368
-6.49849
-7.1982
-7.9753
-8.84631
-9.83333
-10.9662
-12.2853
-13.8456
-15.7247
-18.0107
-20.7513
-24.2223
-29.798
-3.24723
-3.60665
-4.04299
-4.50959
-5.00917
-5.55175
-6.14403
-6.79316
-7.50876
-8.30358
-9.19444
-10.2038
-11.3621
-12.7101
-14.3034
-16.2198
-18.547
-21.3312
-24.8439
-30.4511
-3.47215
-3.84184
-4.28642
-4.76244
-5.27284
-5.82744
-6.43301
-7.09687
-7.82883
-8.64192
-9.55325
-10.5857
-11.7702
-13.1479
-14.775
-16.7296
-19.0991
-21.9276
-25.4826
-31.1217
-3.70383
-4.08416
-4.53716
-5.02276
-5.5442
-6.1111
-6.73029
-7.40927
-8.15806
-8.98993
-9.92234
-10.9786
-12.1899
-13.5981
-15.26
-17.2537
-19.6662
-22.5398
-26.1374
-31.8087
-3.9418
-4.33315
-4.79475
-5.29012
-5.82285
-6.40233
-7.03548
-7.72996
-8.49602
-9.34719
-10.3012
-11.3818
-12.6207
-14.0603
-15.7577
-17.7913
-20.2477
-23.167
-26.8077
-32.5112
-4.18554
-4.58828
-5.05869
-5.56406
-6.10833
-6.70068
-7.34811
-8.05847
-8.84224
-9.71318
-10.6894
-11.795
-13.0621
-14.5337
-16.2673
-18.3416
-20.8426
-23.8084
-27.4924
-33.2283
-4.4345
-4.849
-5.32845
-5.84404
-6.40012
-7.00565
-7.66769
-8.3943
-9.19619
-10.0874
-11.0863
-12.2174
-13.5135
-15.0178
-16.7884
-18.9041
-21.4503
-24.463
-28.1907
-33.959
-4.68813
-5.11474
-5.60345
-6.12953
-6.6977
-7.3167
-7.99368
-8.73691
-9.55731
-10.4692
-11.4913
-12.6486
-13.9741
-15.5117
-17.3199
-19.4777
-22.0699
-25.1301
-28.9018
-34.7027
-4.94587
-5.38492
-5.88313
-6.41995
-7.0005
-7.63328
-8.32551
-9.08571
-9.92502
-10.858
-11.9038
-13.0877
-14.4432
-16.0148
-17.8613
-20.0618
-22.7005
-25.8087
-29.6249
-35.4587
-5.20718
-5.65895
-6.1669
-6.71473
-7.30796
-7.95481
-8.66262
-9.44012
-10.2987
-11.2532
-12.3231
-13.5341
-14.9202
-16.5263
-18.4116
-20.6553
-23.341
-26.4977
-30.3591
-36.2267
-5.47151
-5.93627
-6.45418
-7.01329
-7.61947
-8.28069
-9.00438
-9.79951
-10.6777
-11.6542
-12.7486
-13.9871
-15.4042
-17.0452
-18.9698
-21.2573
-23.9903
-27.1959
-31.1033
-37.0072
-5.73835
-6.21633
-6.74441
-7.31508
-7.9345
-8.61037
-9.35024
-10.1633
-11.0615
-12.0602
-13.1795
-14.4459
-15.8945
-17.5709
-19.5352
-21.8666
-24.6473
-27.9016
-31.8549
-37.8012
-1.33748
-1.13076
-0.976969
-0.840232
-0.720156
-0.614201
-0.521252
-0.440515
-0.371491
-0.313819
-0.267234
-0.231524
-0.206518
-0.192082
-0.188077
-0.194291
-0.210506
-0.236852
-0.273517
-0.320271
-1.66729
-1.48385
-1.32608
-1.18412
-1.05921
-0.948784
-0.851867
-0.767656
-0.695639
-0.635437
-0.58677
-0.549415
-0.523189
-0.507941
-0.503527
-0.509774
-0.526524
-0.553792
-0.591674
-0.63983
-1.99976
-1.8242
-1.66645
-1.52334
-1.3963
-1.2837
-1.18482
-1.09899
-1.02574
-0.9647
-0.915601
-0.878218
-0.852368
-0.837892
-0.834643
-0.842467
-0.861245
-0.890927
-0.931366
-0.982826
-2.38343
-2.2062
-2.04541
-1.89934
-1.76873
-1.65261
-1.55052
-1.4619
-1.38635
-1.32351
-1.27312
-1.23495
-1.20882
-1.19455
-1.192
-1.20102
-1.22148
-1.25332
-1.2964
-1.35077
-2.80208
-2.62239
-2.45763
-2.30762
-2.17278
-2.05261
-1.94678
-1.85486
-1.77652
-1.71143
-1.65934
-1.62004
-1.59332
-1.57902
-1.57697
-1.58703
-1.60907
-1.643
-1.68867
-1.74609
-3.25326
-3.07035
-2.90141
-2.74706
-2.60776
-2.48333
-2.37355
-2.27814
-2.19681
-2.1293
-2.07536
-2.03478
-2.00738
-1.99298
-1.99141
-2.00253
-2.02621
-2.06231
-2.1107
-2.17133
-3.74315
-3.5555
-3.38164
-3.22236
-3.07817
-2.94907
-2.835
-2.73576
-2.65114
-2.58091
-2.52486
-2.4828
-2.45454
-2.4399
-2.43873
-2.45086
-2.47617
-2.5145
-2.56571
-2.62978
-4.27852
-4.08465
-3.9048
-3.73971
-3.58991
-3.45554
-3.33663
-3.23305
-3.14467
-3.0713
-3.01276
-2.96887
-2.93945
-2.92434
-2.92336
-2.93638
-2.96323
-3.00376
-3.05783
-3.1254
-4.86708
-4.66555
-4.47845
-4.30649
-4.15017
-4.00972
-3.88522
-3.77664
-3.68387
-3.60679
-3.54524
-3.49905
-3.46806
-3.45211
-3.45104
-3.4647
-3.49292
-3.53554
-3.59241
-3.66351
-5.51896
-5.30819
-5.11244
-4.93233
-4.76835
-4.62078
-4.48975
-4.37528
-4.27732
-4.19578
-4.13052
-4.08141
-4.04829
-4.031
-4.0294
-4.04332
-4.07261
-4.11708
-4.17658
-4.25112
-6.2479
-6.02609
-5.82001
-5.6302
-5.45714
-5.30113
-5.16235
-5.04087
-4.93666
-4.84967
-4.77979
-4.72691
-4.69089
-4.67157
-4.6688
-4.68243
-4.7123
-4.75822
-4.82002
-4.89775
-7.07262
-6.83766
-6.61923
-6.41782
-6.23391
-6.06781
-5.91973
-5.78976
-5.67793
-5.5842
-5.5085
-5.45072
-5.41074
-5.38841
-5.38359
-5.39613
-5.42585
-5.47256
-5.53609
-5.61653
-8.01886
-7.76821
-7.53499
-7.31965
-7.12267
-6.94438
-6.78501
-6.64468
-6.52345
-6.4213
-6.33818
-6.27399
-6.22864
-6.20198
-6.19387
-6.20416
-6.23269
-6.27922
-6.34359
-6.42593
-9.12216
-8.85273
-8.60175
-8.36959
-8.15679
-7.96369
-7.79051
-7.63743
-7.5045
-7.39174
-7.29911
-7.22654
-7.17392
-7.14114
-7.12805
-7.13451
-7.16034
-7.20529
-7.26918
-7.3522
-10.4328
-10.1409
-9.8685
-9.61601
-9.384
-9.1728
-8.98269
-8.81382
-8.66629
-8.54012
-8.4353
-8.35176
-8.28941
-8.24813
-8.22779
-8.22825
-8.24931
-8.2907
-8.35222
-8.43413
-12.0245
-11.7057
-11.4075
-11.1305
-10.8752
-10.642
-10.4311
-10.2428
-10.0771
-9.93407
-9.81369
-9.71591
-9.64066
-9.58782
-9.55727
-9.54886
-9.56239
-9.59758
-9.65417
-9.73246
-13.9863
-13.6359
-13.3074
-13.0013
-12.7183
-12.4588
-12.223
-12.0112
-11.8234
-11.6596
-11.5199
-11.4043
-11.3126
-11.2447
-11.2006
-11.18
-11.1829
-11.209
-11.2578
-11.3296
-16.3801
-15.9941
-15.631
-15.2918
-14.9773
-14.6879
-14.4237
-14.1849
-13.9716
-13.7839
-13.6216
-13.4848
-13.3735
-13.2876
-13.227
-13.1915
-13.1811
-13.1956
-13.2345
-13.2971
-19.5165
-19.0907
-18.6887
-18.313
-17.964
-17.6418
-17.3463
-17.0775
-16.8354
-16.6201
-16.4314
-16.2695
-16.1342
-16.0255
-15.9434
-15.8875
-15.8581
-15.8552
-15.8787
-15.9266
-24.8532
-24.3823
-23.9459
-23.5408
-23.1649
-22.8172
-22.4974
-22.2053
-21.9409
-21.7042
-21.4951
-21.3138
-21.1603
-21.0348
-20.9373
-20.8679
-20.8273
-20.8177
-20.8406
-20.8857
-0.377032
-0.443476
-0.519564
-0.605214
-0.700344
-0.804846
-0.918591
-1.04141
-1.17311
-1.31339
-1.46189
-1.6181
-1.7812
-1.94997
-2.12276
-2.29729
-2.46909
-2.62836
-2.7597
-2.88955
-0.698467
-0.76719
-0.84592
-0.934545
-1.03296
-1.14104
-1.25863
-1.38555
-1.52156
-1.66635
-1.81951
-1.9805
-2.14852
-2.32242
-2.50059
-2.68138
-2.86301
-3.03775
-3.19041
-3.36274
-1.04497
-1.11754
-1.20049
-1.29369
-1.39701
-1.51031
-1.63342
-1.76613
-1.90819
-2.05925
-2.2189
-2.38657
-2.56152
-2.74272
-2.92881
-3.1186
-3.31111
-3.50198
-3.68548
-3.89156
-1.41634
-1.49277
-1.57999
-1.67786
-1.78623
-1.90495
-2.03383
-2.17262
-2.32107
-2.47881
-2.64541
-2.82031
-3.00282
-3.19201
-3.38682
-3.58638
-3.78989
-3.99503
-4.2023
-4.43209
-1.81518
-1.89562
-1.98731
-2.0901
-2.20382
-2.3283
-2.46332
-2.60865
-2.76399
-2.92897
-3.10316
-3.28604
-3.47694
-3.67509
-3.87967
-4.09007
-4.30567
-4.52545
-4.75203
-4.99858
-2.24426
-2.329
-2.4255
-2.53358
-2.65308
-2.7838
-2.92553
-3.07799
-3.24089
-3.41387
-3.59649
-3.78827
-3.9886
-4.19685
-4.4124
-4.63482
-4.86372
-5.0989
-5.34309
-5.60415
-2.70675
-2.796
-2.89762
-3.01138
-3.1371
-3.27457
-3.42356
-3.5838
-3.75498
-3.93676
-4.12871
-4.33038
-4.54124
-4.76076
-4.98847
-5.22406
-5.46734
-5.71851
-5.97978
-6.2556
-3.20641
-3.30055
-3.4076
-3.52739
-3.65974
-3.80444
-3.96126
-4.12992
-4.31012
-4.5015
-4.7037
-4.91627
-5.13876
-5.37072
-5.61178
-5.86171
-6.12042
-6.38823
-6.66673
-6.95837
-3.74882
-3.84787
-3.96055
-4.08665
-4.22601
-4.3784
-4.54358
-4.72128
-4.9112
-5.11302
-5.32635
-5.55083
-5.78603
-6.03157
-6.28715
-6.55256
-6.82778
-7.11307
-7.40944
-7.71826
-4.3407
-4.44471
-4.56321
-4.69582
-4.84246
-5.00291
-5.17693
-5.36423
-5.56453
-5.77752
-6.00285
-6.24016
-6.48909
-6.7493
-7.02051
-7.30255
-7.59536
-7.8991
-8.21433
-8.54185
-4.99143
-5.10033
-5.22446
-5.36378
-5.51787
-5.68663
-5.86982
-6.06716
-6.27839
-6.50318
-6.74123
-6.99221
-7.25578
-7.53164
-7.81952
-8.11925
-8.43072
-8.75395
-9.0892
-9.43695
-5.71392
-5.82741
-5.95708
-6.10274
-6.26431
-6.44143
-6.63393
-6.84157
-7.06405
-7.3011
-7.55243
-7.81773
-8.09668
-8.389
-8.69443
-9.01278
-9.34388
-9.68763
-10.044
-10.4135
-6.52633
-6.64377
-6.77844
-6.93007
-7.09857
-7.28402
-7.48576
-7.70355
-7.93732
-8.18678
-8.45167
-8.73166
-9.02647
-9.33581
-9.65942
-9.9971
-10.3486
-10.7138
-11.0924
-11.4847
-7.45448
-7.5748
-7.71351
-7.87033
-8.04503
-8.23761
-8.44885
-8.67601
-8.9207
-9.18229
-9.46055
-9.75519
-10.0659
-10.3925
-10.7346
-11.092
-11.4644
-11.8515
-12.253
-12.6692
-8.53658
-8.65808
-8.7992
-8.95974
-9.13951
-9.33805
-9.55488
-9.79226
-10.0476
-10.3203
-10.6112
-10.9199
-11.2463
-11.5898
-11.9502
-12.3272
-12.7205
-13.1296
-13.5542
-13.9946
-9.83255
-9.95269
-10.0938
-10.2557
-10.4384
-10.6414
-10.8643
-11.1071
-11.3701
-11.6536
-11.9563
-12.2784
-12.6195
-12.9789
-13.3563
-13.7518
-14.165
-14.5955
-15.0427
-15.5068
-11.424
-11.5396
-11.6778
-11.8385
-12.0213
-12.226
-12.4524
-12.7002
-12.9694
-13.26
-13.5728
-13.9067
-14.2597
-14.6312
-15.0224
-15.4339
-15.8652
-16.3154
-16.7835
-17.2695
-13.3817
-13.4896
-13.6219
-13.778
-13.9567
-14.1585
-14.3834
-14.6313
-14.9021
-15.195
-15.5096
-15.846
-16.2059
-16.5899
-16.9963
-17.4237
-17.8716
-18.3398
-18.8273
-19.3331
-15.9968
-16.0888
-16.2048
-16.3462
-16.5145
-16.7089
-16.9286
-17.1731
-17.4421
-17.7353
-18.052
-18.392
-18.7554
-19.1429
-19.5543
-19.9889
-20.4466
-20.9281
-21.4333
-21.9572
-20.9274
-20.9998
-21.103
-21.2349
-21.3943
-21.5804
-21.7929
-22.0312
-22.295
-22.5841
-22.8982
-23.2372
-23.6014
-23.991
-24.406
-24.8465
-25.3136
-25.8112
-26.3417
-26.8875
-27.4044
-22.4919
-19.8568
-17.7735
-15.9877
-14.4507
-13.1
-11.8908
-10.7958
-9.7971
-8.88156
-8.03949
-7.26328
-6.54669
-5.88454
-5.2723
-4.70471
-4.17621
-3.69527
-3.29086
-27.9491
-23.0427
-20.3961
-18.2925
-16.483
-14.9202
-13.5435
-12.3088
-11.1895
-10.1681
-9.23181
-8.37103
-7.57833
-6.8476
-6.17384
-5.55262
-4.9792
-4.4512
-3.98175
-3.57926
-28.5224
-23.6124
-20.9526
-18.8277
-16.9929
-15.4034
-13.9995
-12.7384
-11.594
-10.5493
-9.59165
-8.71167
-7.90197
-7.15649
-6.47017
-5.83849
-5.25685
-4.72295
-4.24636
-3.82437
-29.1201
-24.2017
-21.5263
-19.3786
-17.5171
-15.8994
-14.4673
-13.1788
-12.0085
-10.9397
-9.95999
-9.06008
-8.23253
-7.47118
-6.77076
-6.12649
-5.5335
-4.98883
-4.49925
-4.05851
-29.739
-24.8099
-22.1167
-19.9447
-18.055
-16.4077
-14.9462
-13.6293
-12.4322
-11.3385
-10.336
-9.41539
-8.5692
-7.79107
-7.0755
-6.41738
-5.81155
-5.25449
-4.75111
-4.29423
-30.3778
-25.4375
-22.7217
-20.525
-18.6057
-16.9275
-15.4355
-14.0891
-12.8643
-11.7449
-10.7189
-9.77693
-8.9114
-8.11579
-7.38432
-6.71163
-6.09233
-5.52254
-5.00588
-4.53491
-31.0352
-26.083
-23.341
-21.1185
-19.1684
-17.4579
-15.9343
-14.5576
-13.3042
-12.1583
-11.1081
-10.1442
-9.25881
-8.44523
-7.69747
-7.00993
-6.37705
-5.79472
-5.26548
-4.78182
-31.7099
-26.7444
-23.9745
-21.7244
-19.7421
-17.9983
-16.4419
-15.0338
-13.7511
-12.5781
-11.5031
-10.5168
-9.61112
-8.77928
-8.01502
-7.31254
-6.66615
-6.07156
-5.53031
-5.03489
-32.4005
-27.4203
-24.6212
-22.3419
-20.3261
-18.5477
-16.9574
-15.5171
-14.2043
-13.0036
-11.9034
-10.8942
-9.968
-9.1177
-8.33685
-7.61944
-6.95968
-6.35307
-5.80022
-5.29361
-33.1059
-28.1094
-25.2803
-22.97
-20.9194
-19.1052
-17.4801
-16.0067
-14.6631
-13.4341
-12.3083
-11.276
-10.329
-9.46015
-8.66268
-7.93039
-7.25736
-6.63889
-6.07469
-5.55726
-33.8248
-28.8107
-25.9505
-23.6077
-21.521
-19.67
-18.0091
-16.5018
-15.1268
-13.8691
-12.7172
-11.6615
-10.6937
-9.80618
-8.99207
-8.24495
-7.55872
-6.92848
-6.35307
-5.82505
-34.556
-29.523
-26.6308
-24.254
-22.13
-20.241
-18.5434
-17.0016
-15.5945
-14.3077
-13.1295
-12.0503
-11.0614
-10.1552
-9.3245
-8.56258
-7.86319
-7.22121
-6.63466
-6.09618
-35.2985
-30.2453
-27.32
-24.9079
-22.7452
-20.8173
-19.0822
-17.5051
-16.0656
-14.7492
-13.5445
-12.4416
-11.4317
-10.5067
-9.65938
-8.88266
-8.17014
-7.51642
-6.91873
-6.3699
-36.0511
-30.9763
-28.0169
-25.568
-23.3656
-21.3978
-19.6244
-18.0115
-16.5391
-15.1929
-13.9615
-12.8347
-11.8037
-10.86
-9.99606
-9.20457
-8.47891
-7.81342
-7.20458
-6.64546
-36.8128
-31.7147
-28.7203
-26.2334
-23.9901
-21.9816
-20.1691
-18.5199
-17.0141
-15.6379
-14.3796
-13.229
-12.1768
-11.2145
-10.3339
-9.52764
-8.78884
-8.11154
-7.49153
-6.92219
-37.5823
-32.4594
-29.4288
-26.9027
-24.6176
-22.5674
-20.7153
-19.0292
-17.4899
-16.0834
-14.7982
-13.6237
-12.5504
-11.5693
-10.6722
-9.8512
-9.09928
-8.41014
-7.77893
-7.19944
-38.3591
-33.2091
-30.1411
-27.5747
-25.2467
-23.1541
-21.2618
-19.5385
-17.9653
-16.5285
-15.2163
-14.0179
-12.9236
-11.9239
-11.0103
-10.1746
-9.40957
-8.70858
-8.06614
-7.47659
-39.1447
-33.9633
-30.8558
-28.2478
-25.876
-23.7404
-21.8074
-20.0466
-18.4395
-16.9724
-15.6332
-14.411
-13.2957
-12.2775
-11.3474
-10.4972
-9.71908
-9.00623
-8.35257
-7.7531
-39.9393
-34.7209
-31.5709
-28.9202
-26.5042
-24.3251
-22.3512
-20.5527
-18.9116
-17.4141
-16.048
-14.8022
-13.666
-12.6294
-11.6831
-10.8183
-10.0272
-9.3025
-8.63765
-8.02844
-40.7301
-35.4768
-32.2847
-29.591
-27.1306
-24.9078
-22.8926
-21.0564
-19.3811
-17.8533
-16.4604
-15.191
-14.0341
-12.9792
-12.0167
-11.1375
-10.3334
-9.59693
-8.92092
-8.30215
-6.78087
-4.6748
-3.31452
-2.26893
-1.53434
-0.994813
-0.607268
-0.332124
-0.141063
-0.0123417
0.0706647
0.120588
0.147014
0.157098
0.156156
0.148059
0.13562
0.120841
0.10513
0.0894557
0.0744621
0.0605604
0.0479869
0.0368614
0.027205
0.0189974
0.0121449
0.00658278
0.00214147
-0.00120826
-0.00372917
-0.00531392
-0.00640997
-0.0066074
-0.00674041
-0.00581445
-0.00540609
-0.00348998
-0.00294612
3.74923e-05
-7.03657
-4.85719
-3.46078
-2.3841
-1.6254
-1.06845
-0.667339
-0.381749
-0.182444
-0.0470996
0.0413285
0.0957526
0.125959
0.139246
0.141034
0.13527
0.124831
0.111766
0.0975223
0.0831022
0.0691789
0.0561877
0.044386
0.0339123
0.0248035
0.017054
0.0105821