/*--------------------------------*- C++ -*----------------------------------*\
  =========                 |
  \\      /  F ield         | OpenFOAM: The Open Source CFD Toolbox
   \\    /   O peration     | Website:  https://openfoam.org
    \\  /    A nd           | Version:  6.0
     \\/     M anipulation  |
\*---------------------------------------------------------------------------*/
FoamFile
{
    version     2.0;
    format      ascii;
    class       surfaceScalarField;
    location    "24.01";
    object      phi;
}
// * * * * * * * * * * * * * * * * * * * * * * * * * * * * * * * * * * * * * //

dimensions      [0 3 -1 0 0 0 0];

internalField   nonuniform List<scalar> 
4670
(
-0.000187357
-0.0216655
0.0218528
-0.000514196
-0.0167991
0.017126
-0.000856161
-0.0131815
0.0135235
-0.00114466
-0.0105026
0.0107911
-0.00134565
-0.00851381
0.0087148
-0.00144855
-0.00702243
0.00712533
-0.00145925
-0.00588286
0.00589355
-0.00139555
-0.00498697
0.00492327
-0.0012843
-0.0042552
0.00414394
-0.00363027
0.00350492
-0.00115894
-0.000172286
-0.0214932
-0.000448509
-0.0165229
-0.000698675
-0.0129314
-0.000853317
-0.010348
-0.000879097
-0.00848803
-0.00076637
-0.00713516
-0.000522239
-0.00612699
-0.000166679
-0.00534253
0.000269386
-0.00469126
-0.00410663
0.000745739
-0.000148566
-0.0213446
-0.000346668
-0.0163248
-0.000463719
-0.0128143
-0.000431789
-0.0103799
-0.000218967
-0.00870085
0.000183924
-0.00753805
0.000769935
-0.006713
0.00151864
-0.00609123
0.00239618
-0.0055688
-0.0050653
0.00335486
-0.000114777
-0.0212299
-0.000207799
-0.0162318
-0.000151917
-0.0128702
0.000116062
-0.0106479
0.000624803
-0.00920959
0.00138259
-0.00829584
0.00238365
-0.00771406
0.00360935
-0.00731693
0.00502544
-0.0069849
-0.00661751
0.00657766
-6.98288e-05
-0.02116
-2.95527e-05
-0.0162721
0.000239531
-0.0131393
0.000791662
-0.0112
0.00164903
-0.010067
0.00281703
-0.00946384
0.00429087
-0.00918789
0.00605587
-0.00908194
0.00808158
-0.00901061
-0.00884663
0.0103107
-1.20564e-05
-0.021148
0.000192307
-0.0164764
0.000717253
-0.0136642
0.00160289
-0.0120857
0.00286013
-0.0113242
0.00448717
-0.0110909
0.00647737
-0.0111781
0.00882046
-0.011425
0.011495
-0.0116851
-0.0117993
0.0144477
6.06224e-05
-0.0212086
0.000462915
-0.0168787
0.00128972
-0.014491
0.00256154
-0.0133575
0.00427214
-0.0130348
0.00640574
-0.0132245
0.00894684
-0.0137192
0.0118851
-0.0143633
0.0152113
-0.0150113
-0.0154767
0.0188887
0.000150025
-0.0213586
0.000785914
-0.0175146
0.0019624
-0.0156675
0.00367573
-0.0150708
0.00589707
-0.0152561
0.00858848
-0.0159159
0.0117141
-0.0168448
0.0152506
-0.0178999
0.0191967
-0.0189574
-0.0198419
0.0235618
0.000256972
-0.0216156
0.00116034
-0.018418
0.00273114
-0.0172383
0.0049394
-0.0172791
0.00773145
-0.0180482
0.011042
-0.0192265
0.0148027
-0.0206055
0.0189535
-0.0220507
0.023478
-0.0234819
-0.0248676
0.0285037
0.000381256
-0.0219968
0.00157665
-0.0196134
0.00357282
-0.0192345
0.00631563
-0.0200219
0.0097333
-0.0214659
0.0137456
-0.0232388
0.0182655
-0.0251254
0.0231909
-0.0269761
0.0284058
-0.0286968
-0.0303221
0.0338603
0.0302241
0.00118637
-0.0314105
0.0290332
0.00119089
0.0278647
0.00116854
0.026744
0.00112069
0.0256933
0.00105073
0.0247305
0.00096275
0.0238697
0.000860796
0.0231215
0.000748174
0.0224945
0.000627019
0.000497682
0.0402021
0.00370708
-0.0427228
0.0375632
0.00382977
0.0348766
0.0038551
0.0322099
0.00378745
0.0296254
0.00363523
0.0271786
0.00340952
0.0249172
0.00312217
0.0228815
0.00278393
0.0211049
0.00240353
0.00198925
0.0489966
0.00687787
-0.0521674
0.0455568
0.00726962
0.0419411
0.00747079
0.0382454
0.0074831
0.0345643
0.00731636
0.030987
0.00698677
0.0275955
0.00651375
0.0244632
0.00591615
0.0216568
0.00520996
0.00441158
0.0562631
0.0102213
-0.0596065
0.0524982
0.0110345
0.0484095
0.0115595
0.0441054
0.0117872
0.0396997
0.011722
0.0353069
0.0113796
0.0310375
0.0107831
0.0269978
0.0099559
0.0232913
0.00891649
0.00768097
0.0619474
0.0134237
-0.0651497
0.0581939
0.014788
0.0539766
0.0157767
0.0494009
0.016363
0.0445855
0.0165374
0.0396571
0.0163081
0.0347446
0.0156956
0.0299787
0.0147217
0.0254986
0.0133966
0.0117138
0.0661666
0.0163036
-0.0690465
0.0626419
0.0183126
0.0585397
0.0198789
0.0539501
0.0209526
0.0489829
0.0215045
0.0437627
0.0215284
0.0384221
0.0210362
0.0331017
0.0200421
0.0279645
0.0185338
0.0164395
0.0691226
0.01878
-0.0715989
0.0659479
0.0214873
0.0621175
0.0237093
0.0576985
0.0253716
0.0527819
0.0264211
0.0474771
0.0268332
0.0419044
0.0266089
0.0361923
0.0257542
0.030501
0.024225
0.0218151
0.0710414
0.0208403
-0.0731017
0.0682657
0.024263
0.0647933
0.0271818
0.0606664
0.0294985
0.0559517
0.0311358
0.0507353
0.0320495
0.0451114
0.0322328
0.0391691
0.0316966
0.0330139
0.0303802
0.027853
0.0721331
0.0225143
-0.073807
0.0697561
0.0266399
0.0666752
0.0302627
0.0629104
0.0332633
0.0585048
0.0355414
0.0535204
0.037034
0.0480208
0.0377324
0.0420358
0.0376815
0.0355293
0.0368867
0.0346855
0.0725669
-0.0739087
0.023856
0.0705555
0.0286513
0.0678611
0.0329571
0.0644874
0.0366369
0.0604597
0.039569
0.0558224
0.0416713
0.0506225
0.0429323
0.0448564
0.0434476
0.0383307
0.0434125
0.0426941
0.0367749
-0.000324606
-0.0364503
0.0368972
-0.000122357
0.0368127
8.45561e-05
0.0365242
0.000288498
0.036041
0.000483207
0.0353782
0.000662793
0.0345564
0.000821812
0.0336009
0.000955504
0.032541
0.00105982
0.00113055
0.05093
-0.00149776
-0.0497568
0.0516767
-0.000869009
0.051985
-0.000223778
0.0518495
0.000424032
0.051274
0.00105862
0.0502737
0.00166314
0.048875
0.00222048
0.0471162
0.00271429
0.0450463
0.00312978
0.00345406
0.0589522
-0.00346506
-0.0569849
0.0604044
-0.00232122
0.0613146
-0.00113399
0.0616613
7.74046e-05
0.0614323
0.0012876
0.0606279
0.00246756
0.0592622
0.00358615
0.0573646
0.00461185
0.0549799
0.00551448
0.00626659
0.0629385
-0.00606937
-0.0603342
0.065021
-0.00440367
0.0665402
-0.00265325
0.0674583
-0.000840724
0.0677459
0.00100003
0.0673849
0.00282862
0.0663707
0.00460027
0.0647146
0.00626794
0.0624446
0.0077845
0.0091047
0.0643985
-0.00913399
-0.0613339
0.0669781
-0.00698328
0.0690183
-0.00469343
0.0704675
-0.0022899
0.0712827
0.000184825
0.0714311
0.00268015
0.0708918
0.00513961
0.069657
0.00750272
0.0677346
0.00970695
0.0116896
0.06439
-0.0125077
-0.0610163
0.0673346
-0.0099278
0.0697793
-0.00713814
0.0716623
-0.00417298
0.0729338
-0.00108667
0.0735535
0.00206052
0.0734901
0.00520304
0.072722
0.00827073
0.0712394
0.0111896
0.0138825
0.0636138
-0.0160883
-0.0600332
0.0668207
-0.0131347
0.0695597
-0.00987719
0.0717646
-0.00637787
0.0733875
-0.00270958
0.0743895
0.00105853
0.0747369
0.0048556
0.074401
0.00860666
0.0733593
0.0122313
0.0156429
0.062517
-0.0198391
-0.0587661
0.0659163
-0.0165341
0.0688527
-0.0128136
0.0712694
-0.00879455
0.0731324
-0.00457263
0.0744122
-0.00022126
0.0750787
0.00418913
0.0751012
0.00858413
0.0744505
0.012882
0.0169916
0.0614034
-0.0237828
-0.0574597
0.0649244
-0.020055
0.0679582
-0.0158474
0.0704808
-0.0113171
0.0724804
-0.00657221
0.0739391
-0.00167997
0.0748318
0.00329638
0.0751287
0.00828723
0.0747976
0.0132131
0.0179822
0.0604646
-0.0564039
-0.0278435
0.0640074
-0.0235977
0.0670209
-0.018861
0.0695545
-0.0138507
0.0716073
-0.00862493
0.073165
-0.00323768
0.0742044
0.00225694
0.0746965
0.00779511
0.074609
0.0133006
0.0186826
0.0423553
0.0134042
-0.00812411
-0.0476354
0.0369907
0.0141392
-0.00877461
0.0315429
0.0150131
-0.00956532
0.0260286
0.0160733
-0.010559
0.0204917
0.0173789
-0.0118419
0.0150264
0.0189811
-0.0135158
0.00981294
0.0208868
-0.0156733
0.00516895
0.0229837
-0.0183397
0.00162079
0.0249113
-0.0213631
0.0258428
-0.024222
0.0421253
0.0186571
-0.0473782
0.0367865
0.0194781
0.0313637
0.0204359
0.0258739
0.0215631
0.0203612
0.0228916
0.0149206
0.0244217
0.00973359
0.0260738
0.00511906
0.0275982
0.00160147
0.0284289
0.0274443
0.0415222
0.0238525
-0.0467175
0.0362405
0.0247598
0.0308762
0.0258001
0.0254477
0.0269917
0.0200004
0.0283389
0.0146311
0.029791
0.00952226
0.0311826
0.0049913
0.0321292
0.00155321
0.031867
0.0289975
0.0405493
0.0289624
-0.0456592
0.0353544
0.0299546
0.0300814
0.0310731
0.0247505
0.0323227
0.0194098
0.0336795
0.0141585
0.0350423
0.00918003
0.0361611
0.00478721
0.036522
0.00147785
0.0351763
0.0304753
0.0392094
0.0339614
-0.0442084
0.0341299
0.0350341
0.0289801
0.0362229
0.0237832
0.0375195
0.0185908
0.038872
0.0135048
0.0401282
0.00870902
0.0409568
0.00450883
0.0407222
0.00137661
0.0383086
0.0318519
0.0375022
0.0388256
-0.0423663
0.032566
0.0399703
0.027572
0.0412168
0.0225467
0.0425448
0.0175452
0.0438736
0.0126727
0.0450007
0.00811252
0.045517
0.004159
0.0446757
0.00125096
0.0412166
0.0331029
0.0354204
0.0435304
-0.0401252
0.0306573
0.0447333
0.0258548
0.0460194
0.0210414
0.0473582
0.0162757
0.0486392
0.0116665
0.04961
0.0073953
0.0497882
0.0037417
0.0483293
0.00110283
0.0438555
0.0342057
0.0329448
0.0480438
-0.0374582
0.0283921
0.0492859
0.0238241
0.0505875
0.0192683
0.051914
0.014787
0.0531204
0.0104928
0.0539042
0.00656435
0.0537167
0.00326252
0.0516312
0.000934896
0.0461831
0.0351406
0.0300291
0.0523292
-0.0343144
0.0257494
0.0535657
0.0214773
0.0548596
0.017233
0.0561583
0.0130886
0.0572648
0.00916259
0.0578301
0.00563004
0.0572492
0.00272941
0.0545318
0.000751074
0.0481615
0.0358917
0.0266227
-0.0306975
0.0227287
0.0188222
0.0149473
0.0111958
0.00769207
0.0046071
0.00215397
0.00055858
0.0246398
-0.0358459
0.0401149
-0.0289088
0.0206554
-0.0356487
0.0396331
0.0168142
-0.0351173
0.0389585
0.0131401
-0.0340774
0.0377515
0.00970752
-0.0322034
0.035636
0.00661397
-0.0290203
0.0321138
0.00397369
-0.0238782
0.0265185
0.00190767
-0.0159334
0.0179994
0.00053716
-0.00414141
0.00551191
0.0128074
-0.0122703
0.0280708
-0.0315207
-0.032396
0.0237971
-0.031375
0.0196091
-0.0309293
0.0155478
-0.0300161
0.0116867
-0.0283423
0.00812863
-0.0254622
0.00500453
-0.0207541
0.00247294
-0.0134018
0.000723
-0.00239147
0.0135304
0.031084
-0.0270421
-0.0355626
0.026584
-0.026875
0.0221151
-0.0264604
0.0177283
-0.0256293
0.0134973
-0.0241113
0.00952835
-0.0214933
0.00596699
-0.0171927
0.00300599
-0.0104408
0.000899156
-0.000284636
0.0144296
0.0337134
-0.0223947
-0.0383608
0.0290204
-0.022182
0.0243202
-0.0217603
0.0196614
-0.0209705
0.0151154
-0.0195654
0.0107901
-0.017168
0.00684256
-0.0132451
0.00349551
-0.00709377
0.00106259
0.00214829
0.0154922
0.0359985
-0.0175872
-0.040806
0.0311322
-0.0173157
0.0262336
-0.0168617
0.0213444
-0.0160813
0.0165313
-0.0147522
0.0119011
-0.0125378
0.00761891
-0.008963
0.00393287
-0.00340772
0.0012098
0.00487135
0.016702
0.0379457
-0.0126355
-0.0428975
0.0329268
-0.0122967
0.0278587
-0.0117936
0.0227758
-0.0109983
0.017739
-0.00971544
0.0128527
-0.00765144
0.00828729
-0.00439761
0.00431143
0.000568141
0.00133791
0.00784487
0.0180399
0.0395497
-0.00756107
-0.0446241
0.0344025
-0.00714953
0.0291941
-0.00658522
0.0239528
-0.00575696
0.0187339
-0.00449657
0.0136387
-0.00255629
0.00884116
0.000399975
0.00462609
0.00478321
0.00144461
0.0110263
0.0194845
0.0408015
-0.00238991
-0.0459726
0.0355535
-0.00190157
0.0302357
-0.00126739
0.0248714
-0.000392675
0.0195114
0.000863407
0.014254
0.00270107
0.00927534
0.00537868
0.00487288
0.00918567
0.00152809
0.0143711
0.0210126
0.0416916
0.00284892
-0.0469304
0.0363729
0.00341708
0.0309782
0.00412737
0.0255272
0.00505829
0.0200672
0.00632338
0.0146942
0.00807404
0.00958582
0.0104871
0.00504888
0.0137226
0.00158719
0.0178328
0.0225998
0.0422124
-0.0474876
0.0368549
0.0314169
0.0259162
0.0203976
0.0149558
0.00976967
0.00515254
0.00162222
0.0442618
0.0213571
-0.0255039
0.0477652
0.0174226
-0.020926
0.0506795
0.0129923
-0.0159067
0.0530539
0.00823935
-0.0106137
0.0548762
0.00330849
-0.00513086
0.0561179
-0.00169972
0.000458073
0.05674
-0.00668347
0.00606131
0.0567011
-0.0115293
0.0115683
0.0559632
-0.0161124
0.0168503
-0.0202991
0.0544987
0.0217636
0.0434976
0.0174925
0.0469068
0.0140134
0.049767
0.010132
0.0520411
0.0059653
0.0537074
0.0016422
0.0547367
-0.00272904
0.0550943
-0.00704103
0.0547459
-0.011181
0.0536648
-0.0150313
-0.0184727
0.0518384
0.0425428
0.0139083
0.0457292
0.0108269
0.0483889
0.00747239
0.0504483
0.00390587
0.0518638
0.000226711
0.0525992
-0.00346441
0.0526228
-0.00706461
0.0519105
-0.0104687
0.0504511
-0.0135719
-0.0162743
0.0482527
0.0410622
0.0105975
0.043944
0.00794519
0.0462925
0.00512385
0.0480285
0.00216995
0.0490978
-0.000842597
0.049462
-0.00382866
0.0490959
-0.0066985
0.047989
-0.00936181
0.0461497
-0.0117325
-0.0137339
0.0436092
0.03863
0.00760357
0.0411407
0.00543445
0.0430927
0.00317179
0.0444181
0.000844628
0.0450673
-0.00149181
0.0450092
-0.00377055
0.0442309
-0.00592027
0.0427399
-0.00787081
0.0405659
-0.00955847
-0.0109309
0.0377629
0.0347148
0.00500259
0.0367873
0.00336195
0.0382787
0.00168042
0.03914
-1.66674e-05
0.0393372
-0.00168898
0.0388547
-0.00328812
0.0376978
-0.00476333
0.0358935
-0.00606648
0.0334916
-0.00715659
-0.00800345
0.0305642
0.0286402
0.00288083
0.0302177
0.00178449
0.0312178
0.000680263
0.0316135
-0.000412396
0.0313914
-0.00146688
0.0305559
-0.00245254
0.029131
-0.00333845
0.0271613
-0.00409683
0.0247109
-0.00470617
-0.00515331
0.0218608
0.0195671
0.00131314
0.0206253
0.000726319
0.021159
0.000146595
0.0211618
-0.00041525
0.0206403
-0.000945326
0.0196161
-0.00142834
0.0181273
-0.00184966
0.0162276
-0.0021972
0.0139844
-0.00246296
-0.00264416
0.0114753
0.00647918
0.000345874
0.00704648
0.000159026
0.00721351
-2.04386e-05
0.00698864
-0.000190381
0.00638997
-0.000346661
0.00544647
-0.000484828
0.00419774
-0.000600936
0.00269265
-0.000692103
0.000986738
-0.000757051
-0.00079715
-0.000860269
-0.0119244
-0.0117654
-0.0117858
-0.0119762
-0.0123228
-0.0128077
-0.0134086
-0.0141007
-0.0148578
-0.0156549
0.0522999
-0.0239717
0.0261705
0.0493827
-0.0269698
0.0298871
0.045797
-0.0292174
0.0328032
0.0416257
-0.030665
0.0348363
0.0369775
-0.0313223
0.0359705
0.0319686
-0.0312594
0.0362684
0.0266909
-0.0305843
0.035862
0.021161
-0.0293785
0.0349084
0.01526
-0.0275102
0.0334112
-0.02405
0.00847373
0.0308363
0.0492776
-0.0214109
0.0460207
-0.023713
0.0421397
-0.0253364
0.037736
-0.0262613
0.0329302
-0.0265165
0.0278415
-0.0261708
0.0225603
-0.0253031
0.0171188
-0.023937
0.0115198
-0.0219111
-0.0186318
0.00610158
0.0453491
-0.0185073
0.0418036
-0.0201675
0.0377094
-0.0212421
0.0331832
-0.0217352
0.0283534
-0.0216867
0.0233421
-0.0211594
0.0182481
-0.0202091
0.0131468
-0.0188357
0.00815359
-0.0169179
-0.014158
0.00367978
0.040425
-0.0153232
0.0366831
-0.0164256
0.032493
-0.017052
0.0279802
-0.0172223
0.023274
-0.0169806
0.018495
-0.0163804
0.0137471
-0.0154613
0.00912995
-0.0142186
0.00479164
-0.0125796
-0.0104186
0.00105222
0.0344079
-0.0119682
0.0306036
-0.0126213
0.0264673
-0.0129157
0.0221238
-0.0128788
0.0176955
-0.0125522
0.0132934
-0.0119784
0.00901686
-0.0111847
0.00496613
-0.0101678
0.00127671
-0.00889019
-0.00730934
-0.00183252
0.0272
-0.00860404
0.0235086
-0.00892987
0.0196042
-0.00901126
0.0156011
-0.00887574
0.0116059
-0.00855699
0.00771312
-0.00808559
0.00400752
-0.00747908
0.000575077
-0.00673538
-0.00247849
-0.00583662
-0.00477345
-0.00501439
0.0187001
-0.00544339
0.0153337
-0.00556341
0.0118618
-0.00553934
0.00837901
-0.005393
0.00496968
-0.00514765
0.00170637
-0.00482228
-0.00134631
-0.0044264
-0.00412363
-0.00395806
-0.00655168
-0.00340857
-0.00277787
-0.00854726
0.00877718
-0.00274529
0.00597846
-0.00276469
0.00315629
-0.00271717
0.000379538
-0.00261625
-0.00229352
-0.00247459
-0.0048143
-0.0023015
-0.00713997
-0.00210073
-0.00922783
-0.0018702
-0.0110311
-0.00160532
-0.00130722
-0.0125017
-0.00279422
-0.000811349
-0.00475421
-0.000804696
-0.0066918
-0.000779579
-0.00856644
-0.000741616
-0.010346
-0.000695014
-0.012005
-0.000642483
-0.0135211
-0.000584674
-0.0148711
-0.000520187
-0.0160294
-0.000447025
-0.000366701
-0.0169699
-0.0164663
-0.017271
-0.0180505
-0.0187922
-0.0194872
-0.0201296
-0.0207143
-0.0212345
-0.0216815
-0.0220482
0.00026688
-0.0223151
0.000975677
-0.0176787
0.00209038
-0.0136164
0.00360147
-0.0100584
0.00550747
-0.00692039
0.00780438
-0.00412942
0.0104788
-0.00162225
0.0134981
0.000660534
0.0168159
0.00278375
0.0048354
0.0204542
0.000180554
-0.0224957
0.000665711
-0.0181639
0.00143945
-0.0143902
0.00249879
-0.0111177
0.00384295
-0.00826455
0.00546829
-0.00575477
0.00736863
-0.00352258
0.00954341
-0.00151424
0.0120291
0.000298017
0.0018751
0.0149894
9.9115e-05
-0.0225948
0.000383583
-0.0184483
0.000858742
-0.0148653
0.00153488
-0.0117938
0.00242278
-0.00915245
0.00353306
-0.00686505
0.00487923
-0.00486875
0.00648396
-0.00311898
0.008385
-0.00160302
-0.000362105
0.0106222
2.71078e-05
-0.0226219
0.000137955
-0.0185592
0.000360473
-0.0150878
0.000719436
-0.0121528
0.00123679
-0.00966981
0.00193293
-0.00756119
0.00282907
-0.00576489
0.00394883
-0.00423873
0.00531368
-0.00296788
-0.00196929
0.00692086
-3.46532e-05
-0.0225872
-6.96555e-05
-0.0185242
-5.55257e-05
-0.015102
4.52797e-05
-0.0122536
0.000262314
-0.00988684
0.000619519
-0.0079184
0.00113689
-0.00628226
0.00183015
-0.00493199
0.00270538
-0.00384311
-0.00301116
0.00374726
-8.626e-05
-0.022501
-0.000239791
-0.0183707
-0.000391914
-0.0149498
-0.00049504
-0.0121505
-0.000515549
-0.00986633
-0.000430125
-0.00800382
-0.000223682
-0.00648871
0.00011073
-0.0052664
0.000568999
-0.00430138
-0.00357349
0.00113132
-0.00012767
-0.0223733
-0.000372469
-0.0181259
-0.000649297
-0.014673
-0.000903111
-0.0118967
-0.00109868
-0.00967076
-0.00121529
-0.00788721
-0.00124347
-0.00646052
-0.00118347
-0.0053264
-0.00104565
-0.0044392
-0.00376772
-0.000851412
-0.000158462
-0.0222148
-0.000466624
-0.0178177
-0.00082573
-0.0143139
-0.00117525
-0.0115471
-0.00147966
-0.00936634
-0.00172139
-0.00764549
-0.0018961
-0.00628582
-0.0020097
-0.0052128
-0.00207694
-0.00437196
-0.00372428
-0.00212038
-0.000177849
-0.022037
-0.000520645
-0.0174749
-0.000918416
-0.0139161
-0.00130638
-0.0111592
-0.00164925
-0.00902347
-0.00193237
-0.00736237
-0.00215573
-0.00606246
-0.00232993
-0.00503861
-0.00247356
-0.00422833
-0.00358659
-0.00261125
-0.000184156
-0.000533079
-0.000925723
-0.00129378
-0.00160246
-0.0018395
-0.0020084
-0.00212373
-0.00220812
-0.00228979
-0.000986946
-0.00992815
0.00975616
0.001706
-0.0117448
0.00905182
0.00542789
-0.0122331
0.00851121
0.00976355
-0.0131074
0.0087717
0.0143835
-0.0136102
0.00899019
0.0189884
-0.0137644
0.00915955
0.023446
-0.0141012
0.00964358
0.0276371
-0.0148547
0.0106635
0.0314888
-0.0164328
0.0125811
0.0349369
-0.0182663
0.0148182
0.0379736
-0.020404
0.0173672
0.0406025
-0.0199561
0.0173273
0.0429645
-0.017051
0.0146889
0.0450775
-0.00813521
0.00602222
0.0472328
0.00508544
-0.00724069
0.0492547
0.0111521
-0.013174
0.0514052
0.0120829
-0.0142334
0.0527871
-0.02376
0.0223781
0.0534409
-0.0477259
0.0470721
-0.0173367
0.0168256
0.00143365
-0.0106161
0.00431364
-0.0146247
0.00809423
-0.0160137
0.0123498
-0.017363
0.0168189
-0.0180793
0.0212409
-0.0181863
0.0254981
-0.0183584
0.0294811
-0.0188376
0.0331171
-0.0200688
0.0363455
-0.0214947
0.0391599
-0.0232183
0.0415795
-0.0223757
0.0437598
-0.0192314
0.0457478
-0.0101232
0.0478536
0.00297967
0.0498711
0.0091346
0.0520259
0.00992811
0.0533399
-0.0250741
0.0538358
-0.0482218
-0.0177689
0.00469765
-0.0119589
0.00774165
-0.0176687
0.0115161
-0.0197882
0.0155973
-0.0214442
0.0198121
-0.022294
0.0239534
-0.0223277
0.0279224
-0.0223274
0.0316221
-0.0225374
0.0349811
-0.0234279
0.0379426
-0.0244561
0.0405003
-0.0257761
0.0426865
-0.0245619
0.0446666
-0.0212115
0.0465134
-0.01197
0.0485509
0.000942142
0.0505476
0.00713791
0.0526936
0.00778214
0.0539458
-0.0263263
0.0543065
-0.0485825
-0.0181488
0.00867176
-0.014053
0.0118331
-0.0208301
0.0155157
-0.0234708
0.0193281
-0.0252565
0.023195
-0.0261609
0.0269727
-0.0261054
0.0305825
-0.0259372
0.033941
-0.0258959
0.0369786
-0.0264655
0.0396417
-0.0271191
0.0419236
-0.028058
0.0438661
-0.0265043
0.0456398
-0.0229852
0.0473391
-0.0136693
0.0492967
-0.00101547
0.051261
0.00517363
0.053389
0.00565407
0.0545895
-0.0275267
0.054843
-0.0488361
-0.0185065
0.0131915
-0.0169338
0.0163958
-0.0240344
0.0198787
-0.0269537
0.0233294
-0.0287072
0.0267695
-0.029601
0.0301204
-0.0294564
0.0333216
-0.0291384
0.0363021
-0.0288764
0.0389935
-0.0291569
0.0413448
-0.0294705
0.0433483
-0.0300615
0.0450516
-0.0282077
0.0466259
-0.0245595
0.0481825
-0.0152258
0.0500569
-0.00288986
0.0519835
0.00324698
0.05409
0.00354755
0.0552543
-0.028691
0.0554344
-0.0490161
-0.0188755
0.0180643
-0.0205504
0.0212075
-0.0271775
0.0243642
-0.0301105
0.0273666
-0.0317096
0.0303205
-0.0325549
0.0332053
-0.0323412
0.0359732
-0.0319063
0.0385619
-0.0314651
0.0409035
-0.0314984
0.0429486
-0.0315156
0.0446876
-0.0318005
0.0461711
-0.0296911
0.0475664
-0.0259548
0.0489964
-0.0166559
0.0507939
-0.00468737
0.0526855
0.00135537
0.0547734
0.00145964
0.0559228
-0.0298403
0.0560686
-0.049162
-0.0192928
0.023063
-0.0247247
0.0260101
-0.0301246
0.0287098
-0.0328102
0.0311922
-0.034192
0.0336266
-0.0349894
0.036034
-0.0347485
0.0383707
-0.034243
0.0405783
-0.0336727
0.0425878
-0.0335079
0.0443506
-0.0332784
0.0458548
-0.0333047
0.0471515
-0.0309878
0.0484006
-0.0272039
0.0497316
-0.0179869
0.0514686
-0.00642435
0.0533362
-0.000512217
0.0554157
-0.000619889
0.0565773
-0.0310019
0.0567331
-0.0493178
-0.0197987
0.027927
-0.0290899
0.030508
-0.0327055
0.0326369
-0.0349391
0.0345558
-0.0361109
0.0364703
-0.0369039
0.03842
-0.0366982
0.0403558
-0.0361788
0.0422172
-0.0355341
0.0439331
-0.0352238
0.0454545
-0.0347998
0.046768
-0.0346183
0.047923
-0.0321428
0.0490696
-0.0283504
0.0503393
-0.0192567
0.0520419
-0.0081269
0.0539051
-0.00237547
0.055994
-0.00270879
0.0572004
-0.0322083
0.0574152
-0.0495326
-0.0204365
0.0324869
-0.0330731
0.0344562
-0.0346748
0.0359144
-0.0363973
0.0372541
-0.0374505
0.0386773
-0.0383272
0.0402142
-0.038235
0.0418007
-0.0377653
0.0433695
-0.0371028
0.0448459
-0.0367002
0.0461801
-0.036134
0.0473578
-0.035796
0.0484253
-0.0332102
0.0495212
-0.0294463
0.050775
-0.0205105
0.0524773
-0.00982919
0.0543636
-0.00426182
0.0564868
-0.00483197
0.0577761
-0.0334975
0.0581023
-0.0498589
-0.0212516
0.0368149
-0.0360277
0.037793
-0.0356529
0.0384443
-0.0370486
0.0392037
-0.0382099
0.0401705
-0.039294
0.0413441
-0.0394086
0.042637
-0.0390583
0.0439709
-0.0384367
0.0452672
-0.0379964
0.0464735
-0.0373404
0.0475753
-0.0368977
0.0486138
-0.0342487
0.0497145
-0.030547
0.0510028
-0.0217989
0.0527429
-0.0115692
0.0546868
-0.0062057
0.056874
-0.00701924
0.058288
-0.0349115
0.0587818
-0.0503526
-0.0222921
0.117849
-0.02743
-0.126447
0.113256
-0.0310593
0.110557
-0.0343502
0.108948
-0.0366002
0.107911
-0.0382574
0.107378
-0.0388751
0.10719
-0.0388708
0.10722
-0.0384662
0.107292
-0.0380684
0.107264
-0.0373128
0.106997
-0.036631
0.106531
-0.0337829
0.10605
-0.0300655
0.105913
-0.0216619
0.106888
-0.0125447
0.108616
-0.00793282
0.111094
-0.00949806
0.111867
-0.0356842
0.110219
-0.0487045
-0.0217622
0.165208
-0.016815
-0.175823
0.156924
-0.0227752
0.151064
-0.0284901
0.146893
-0.0324294
0.143736
-0.0351
0.141402
-0.0365416
0.139664
-0.0371326
0.13833
-0.0371324
0.137193
-0.0369308
0.136076
-0.0361957
0.134822
-0.0353773
0.133468
-0.0324292
0.132177
-0.0287737
0.131374
-0.0208594
0.13181
-0.0129804
0.133141
-0.00926387
0.135234
-0.0115916
0.135439
-0.0358892
0.132966
-0.0462315
-0.0207549
0.21648
-0.00619461
-0.227101
0.207379
-0.0136732
0.199577
-0.0206889
0.193226
-0.026078
0.187982
-0.0298555
0.18369
-0.0322499
0.180158
-0.0336004
0.177185
-0.0341598
0.17456
-0.0343058
0.172095
-0.0337306
0.169628
-0.0329105
0.167203
-0.030004
0.16495
-0.0265205
0.163346
-0.0192556
0.163059
-0.0126934
0.163765
-0.00996985
0.165163
-0.0129897
0.164518
-0.0352443
0.161047
-0.0427605
-0.0191552
0.268033
0.00228617
-0.276513
0.26019
-0.00583074
0.252424
-0.0129225
0.245243
-0.018897
0.238791
-0.0234036
0.233078
-0.0265372
0.228041
-0.0285632
0.223555
-0.0296741
0.219469
-0.0302193
0.21563
-0.0298923
0.21191
-0.0291904
0.208385
-0.0264789
0.205155
-0.0232901
0.202736
-0.016837
0.201623
-0.0115809
0.201522
-0.0098684
0.201899
-0.0133665
0.200109
-0.0334547
0.195534
-0.0381848
-0.016894
0.317691
0.00756192
-0.322966
0.312093
-0.000232891
0.305906
-0.00673611
0.299421
-0.0124115
0.293046
-0.0170287
0.286974
-0.0204652
0.281266
-0.0228557
0.275902
-0.0243097
0.270825
-0.0251424
0.26597
-0.0250374
0.261276
-0.024496
0.256892
-0.0220949
0.252901
-0.0192988
0.249855
-0.0137911
0.247994
-0.00971977
0.247042
-0.00891711
0.246183
-0.012507
0.243031
-0.0303025
0.237378
-0.0325325
-0.0140024
0.366474
0.00968441
-0.368597
0.363156
0.00308497
0.358969
-0.00254852
0.353993
-0.00743573
0.34859
-0.0116253
0.34306
-0.0149356
0.337555
-0.0173508
0.332124
-0.0188786
0.326781
-0.0197999
0.321554
-0.01981
0.316449
-0.0193908
0.311711
-0.0173567
0.307413
-0.0150009
0.30414
-0.0105183
0.301842
-0.00742205
0.300226
-0.0073005
0.298189
-0.0104705
0.293652
-0.0257657
0.287159
-0.0260387
-0.0106708
0.417393
0.00935766
-0.417066
0.416018
0.00445943
0.413548
-7.78111e-05
0.410109
-0.00399705
0.405908
-0.00742458
0.401242
-0.0102696
0.396333
-0.0124414
0.391297
-0.0138432
0.386193
-0.0146953
0.381123
-0.0147397
0.376134
-0.014402
0.371555
-0.0127781
0.367444
-0.0108894
0.364397
-0.00747158
0.362114
-0.00513952
0.360211
-0.0053974
0.357424
-0.00768319
0.351756
-0.0200981
0.344876
-0.0191582
-0.00726599
0.473863
0.00732276
-0.471828
0.474125
0.00419735
0.473046
0.00100199
0.470862
-0.00181299
0.467716
-0.00427928
0.463836
-0.00638922
0.459469
-0.00807466
0.454819
-0.00919258
0.449995
-0.00987189
0.445182
-0.0099268
0.440458
-0.009678
0.436214
-0.00853427
0.432498
-0.00717254
0.429881
-0.00485534
0.427936
-0.00319422
0.426092
-0.00355383
0.423195
-0.00478604
0.416848
-0.0137512
0.410115
-0.0124248
-0.00423667
0.539706
0.00410243
-0.536486
0.541308
0.00259507
0.541391
0.000919165
0.540179
-0.000600605
0.537831
-0.00193127
0.534526
-0.00308382
0.530488
-0.004037
0.525985
-0.00469007
0.521201
-0.00508747
0.516408
-0.00513352
0.511727
-0.0049978
0.507597
-0.00440423
0.50409
-0.00366471
0.501721
-0.00248723
0.500093
-0.0015658
0.498367
-0.00182756
0.495818
-0.00223755
0.489151
-0.00708427
0.482855
-0.00612891
-0.00187356
0.620113
-0.61601
0.622708
0.623627
0.623026
0.621095
0.618011
0.613974
0.609284
0.604197
0.599063
0.594065
0.589661
0.585997
0.583509
0.581944
0.580116
0.577878
0.570794
0.564665
0.167578
0.0228806
-0.166602
0.167774
0.0284549
0.167009
0.0337225
0.165095
0.0385504
0.161866
0.042798
0.157207
0.0463302
0.151102
0.0490373
0.143687
0.0508633
0.13532
0.0517789
0.0515672
0.191838
0.0209123
-0.189869
0.193493
0.0267992
0.194689
0.0325271
0.195252
0.0379866
0.194998
0.0430525
0.193738
0.0475905
0.191304
0.0514714
0.187572
0.0545953
0.18242
0.0569305
0.0581637
0.217565
0.0183922
-0.215045
0.2202
0.0241635
0.222857
0.0298703
0.225403
0.0354408
0.227665
0.040791
0.229429
0.0458263
0.230456
0.0504438
0.230518
0.0545337
0.229436
0.0580129
0.0604987
0.246087
0.0157301
-0.243424
0.249141
0.0211089
0.252546
0.0264657
0.256232
0.0317545
0.260101
0.0369216
0.264023
0.0419043
0.267836
0.0466307
0.27135
0.05102
0.274357
0.0550059
0.0583424
0.278467
0.0130725
-0.275809
0.281695
0.0178808
0.285484
0.0226765
0.289812
0.0274262
0.29464
0.0320941
0.299904
0.0366405
0.305512
0.0410223
0.31134
0.0451918
0.317245
0.0491017
0.0526208
0.315507
0.0104479
-0.312882
0.318835
0.0145527
0.322866
0.0186459
0.32759
0.0227014
0.332992
0.0266921
0.339043
0.0305897
0.3457
0.0343651
0.352905
0.037987
0.360584
0.0414233
0.0446077
0.358116
0.00786347
-0.355532
0.361525
0.0111435
0.365758
0.0144131
0.370808
0.0176512
0.376664
0.0208364
0.383306
0.023947
0.39071
0.0269614
0.39884
0.0298577
0.407649
0.0326137
0.0351908
0.407703
0.00530288
-0.405142
0.411211
0.00763513
0.415665
0.00995966
0.421055
0.012261
0.427368
0.0145236
0.434583
0.0167319
0.442674
0.0188704
0.451607
0.0209239
0.461344
0.0228771
0.0247064
0.466398
0.0027157
-0.463811
0.470069
0.00396445
0.474819
0.00520966
0.480637
0.00644272
0.487506
0.00765496
0.4954
0.00883777
0.504288
0.00998263
0.514131
0.0110812
0.524882
0.0121253
0.013103
0.537609
-0.534893
0.541573
0.546783
0.553226
0.560881
0.569718
0.579701
0.590782
0.602907
0.143405
-0.0301921
-0.141056
0.146253
-0.0264458
0.149212
-0.0218203
0.152187
-0.0168249
0.155102
-0.0115398
0.157913
-0.00604935
0.160561
-0.000390382
0.162961
0.00539419
0.165016
0.0112464
0.0170961
0.170822
-0.031859
-0.169155
0.172643
-0.0282667
0.17457
-0.0237475
0.176604
-0.0188588
0.178726
-0.0136617
0.180922
-0.00824578
0.183177
-0.00264502
0.185457
0.00311407
0.187711
0.00899188
0.0149382
0.202141
-0.0323152
-0.201685
0.202786
-0.0289119
0.203565
-0.0245263
0.204514
-0.0198076
0.205676
-0.0148242
0.20707
-0.00963913
0.208704
-0.00427989
0.210585
0.00123311
0.212706
0.00687147
0.0125993
0.237221
-0.031466
-0.23807
0.236558
-0.0282497
0.236163
-0.0241306
0.236067
-0.0197117
0.236316
-0.0150732
0.236935
-0.0102585
0.237942
-0.00528689
0.239353
-0.000177273
0.241178
0.00504563
0.0103532
0.276009
-0.0293087
-0.278166
0.27408
-0.0263208
0.272557
-0.0226079
0.271483
-0.0186381
0.270891
-0.014481
0.270802
-0.0101694
0.271234
-0.00571857
0.272203
-0.00114638
0.273724
0.00352429
0.00826819
0.319096
-0.0258633
-0.322541
0.315991
-0.0232162
0.313418
-0.0200349
0.311426
-0.016646
0.310042
-0.0130969
0.309285
-0.00941271
0.309175
-0.00560793
0.309728
-0.00169942
0.31096
0.00229241
0.00634541
0.36753
-0.021166
-0.372227
0.363314
-0.0190006
0.359745
-0.0164661
0.356871
-0.0137718
0.354721
-0.0109462
0.353315
-0.00800736
0.352676
-0.00496897
0.352823
-0.00184595
0.353771
0.00134465
0.00458449
0.422748
-0.0152659
-0.428649
0.417465
-0.0137176
0.412934
-0.0119347
0.409201
-0.0100387
0.4063
-0.00804512
0.404259
-0.00596628
0.403103
-0.00381302
0.402854
-0.00159695
0.403529
0.000669169
0.00297173
0.486882
-0.00820184
-0.493946
0.48055
-0.00738551
0.475065
-0.00644992
0.470479
-0.00545207
0.466833
-0.00439888
0.464163
-0.00329683
0.462502
-0.00215217
0.461877
-0.000971529
0.462308
0.000237903
0.00146851
0.563294
-0.571495
0.555908
0.549458
0.544006
0.539607
0.53631
0.534158
0.533187
0.533425
0.126774
0.00231423
-0.00222273
0.126517
0.00701993
-0.00676262
0.1261
0.0121276
-0.0117109
0.125526
0.0180199
-0.017446
0.124849
0.0250559
-0.024379
0.124125
0.0342862
-0.0335621
0.123816
0.0456022
-0.0452931
0.124084
0.0633261
-0.0635938
0.128815
0.0812894
-0.0860209
0.120707
-0.132948