/*--------------------------------*- C++ -*----------------------------------*\
  =========                 |
  \\      /  F ield         | OpenFOAM: The Open Source CFD Toolbox
   \\    /   O peration     | Website:  https://openfoam.org
    \\  /    A nd           | Version:  6.0
     \\/     M anipulation  |
\*---------------------------------------------------------------------------*/
FoamFile
{
    version     2.0;
    format      ascii;
    class       surfaceScalarField;
    location    "17.1";
    object      phi;
}
// * * * * * * * * * * * * * * * * * * * * * * * * * * * * * * * * * * * * * //

dimensions      [0 3 -1 0 0 0 0];

internalField   nonuniform List<scalar> 
18940
(
0.000452515
-0.473079
0.472627
0.00165049
-0.450143
0.448945
0.00322197
-0.433511
0.431939
0.00492102
-0.41874
0.417041
0.00661744
-0.404698
0.403002
0.00824693
-0.390761
0.389132
0.00978581
-0.376851
0.375312
0.0112344
-0.363136
0.361687
0.0126049
-0.34981
0.348439
0.0139131
-0.337021
0.335713
0.0151742
-0.32486
0.323599
0.0164008
-0.313364
0.312137
0.0176023
-0.302533
0.301331
0.0187857
-0.292346
0.291163
0.0199559
-0.282772
0.281602
0.0211177
-0.273773
0.272611
0.0222766
-0.265305
0.264146
0.0234389
-0.257311
0.256149
0.024611
-0.249709
0.248537
-0.242384
0.241197
0.025798
0.000492932
-0.473572
0.00169269
-0.451343
0.00325119
-0.435069
0.00493092
-0.420419
0.0066012
-0.406369
0.00820004
-0.39236
0.0097065
-0.378358
0.0111227
-0.364552
0.0124618
-0.351149
0.0137401
-0.3383
0.0149731
-0.326093
0.0161731
-0.314564
0.0173494
-0.303709
0.0185083
-0.293505
0.0196546
-0.283919
0.0207925
-0.274911
0.0219271
-0.26644
0.0230651
-0.258449
0.0242136
-0.250858
-0.243549
0.025379
0.000529229
-0.474101
0.00172904
-0.452542
0.00327096
-0.436611
0.00492702
-0.422075
0.00656813
-0.40801
0.00813386
-0.393926
0.00960548
-0.379829
0.0109869
-0.365933
0.0122924
-0.352454
0.0135388
-0.339546
0.0147417
-0.327296
0.0159133
-0.315735
0.0170627
-0.304858
0.0181957
-0.294639
0.0193167
-0.28504
0.0204293
-0.276023
0.0215383
-0.267549
0.0226506
-0.259561
0.0237741
-0.251981
-0.244692
0.0249168
0.000541291
-0.474642
0.0017468
-0.453748
0.00327601
-0.43814
0.00490749
-0.423707
0.00651714
-0.409619
0.00804742
-0.395456
0.00948194
-0.381264
0.0108264
-0.367278
0.0120962
-0.353724
0.0133088
-0.340759
0.0144798
-0.328467
0.0156214
-0.316877
0.0167424
-0.305979
0.0178483
-0.295744
0.0189429
-0.286134
0.0200293
-0.27711
0.0211122
-0.268631
0.0221984
-0.260648
0.0232966
-0.253079
-0.245813
0.0244173
0.000552651
-0.475195
0.00175698
-0.454952
0.00327004
-0.439653
0.00487412
-0.425311
0.00644945
-0.411195
0.00794165
-0.396949
0.00933666
-0.382659
0.0106419
-0.368583
0.0118739
-0.354956
0.0130506
-0.341935
0.0141879
-0.329604
0.0152979
-0.317987
0.0163891
-0.307071
0.0174667
-0.296822
0.0185339
-0.287201
0.0195936
-0.27817
0.0206501
-0.269688
0.0217102
-0.261708
0.0227839
-0.254153
-0.246912
0.0238837
0.000557103
-0.475752
0.0017568
-0.456152
0.00325171
-0.441148
0.00482635
-0.426886
0.00636493
-0.412733
0.00781653
-0.3984
0.0091696
-0.384012
0.0104334
-0.369847
0.0116254
-0.356148
0.0127642
-0.343074
0.0138659
-0.330706
0.0149425
-0.319064
0.0160023
-0.30813
0.0170504
-0.29787
0.0180895
-0.288241
0.0191221
-0.279202
0.0201521
-0.270718
0.0211865
-0.262742
0.0222364
-0.255203
-0.247993
0.0233167
0.000559935
-0.476312
0.00175064
-0.457343
0.00322352
-0.442621
0.00476556
-0.428428
0.00626457
-0.414232
0.00767288
-0.399808
0.00898145
-0.385321
0.0102013
-0.371067
0.0113509
-0.357298
0.0124496
-0.344173
0.0135135
-0.33177
0.0145548
-0.320105
0.0155816
-0.309157
0.0165987
-0.298887
0.0176086
-0.28925
0.0186135
-0.280207
0.0196169
-0.271721
0.020626
-0.263751
0.0216529
-0.25623
-0.249055
0.0227151
0.000559382
-0.476872
0.00173773
-0.458521
0.0031855
-0.444069
0.00469212
-0.429934
0.00614883
-0.415689
0.00751118
-0.401171
0.00877264
-0.386582
0.00994592
-0.37224
0.0110507
-0.358402
0.0121067
-0.345229
0.0131304
-0.332793
0.014134
-0.321108
0.0151256
-0.310149
0.0161098
-0.299871
0.0170892
-0.29023
0.0180654
-0.281183
0.0190419
-0.272698
0.0200258
-0.264735
0.0210303
-0.257234
-0.2501
0.0220755
0.000556841
-0.477428
0.00171969
-0.459684
0.00313911
-0.445488
0.00460727
-0.431403
0.00601882
-0.417101
0.00733244
-0.402484
0.00854404
-0.387794
0.00966803
-0.373364
0.0107251
-0.359459
0.0117356
-0.346239
0.0127161
-0.333774
0.0136791
-0.322071
0.0146327
-0.311102
0.0155815
-0.30082
0.0165281
-0.291176
0.017474
-0.282129
0.0184224
-0.273646
0.0193806
-0.265693
0.0203627
-0.258216
-0.251129
0.0213916
0.000552029
-0.47798
0.00169664
-0.460829
0.00308494
-0.446877
0.0045119
-0.432829
0.00587558
-0.418464
0.00713772
-0.403747
0.00829664
-0.388953
0.00936839
-0.374436
0.0103747
-0.360466
0.0113363
-0.347201
0.0122703
-0.334708
0.0131891
-0.32299
0.014101
-0.312014
0.015011
-0.30173
0.0159215
-0.292087
0.0168341
-0.283042
0.017752
-0.274564
0.0186825
-0.266624
0.0196409
-0.259175
-0.252141
0.0206531
0.000545601
-0.478526
0.00166965
-0.461953
0.00302429
-0.448231
0.00440747
-0.434213
0.00572065
-0.419777
0.00692858
-0.404954
0.00803192
-0.390056
0.00904831
-0.375452
0.0100004
-0.361418
0.0109095
-0.34811
0.0117928
-0.335591
0.012663
-0.32386
0.0135288
-0.31288
0.0143952
-0.302597
0.015265
-0.292957
0.01614
-0.283917
0.0170232
-0.275447
0.0179223
-0.267523
0.0188536
-0.260106
-0.253135
0.0198471
0.00053792
-0.479064
0.00163956
-0.463054
0.00295841
-0.44955
0.0042956
-0.43555
0.00555587
-0.421038
0.00670699
-0.406106
0.00775186
-0.391101
0.00870961
-0.37641
0.00960372
-0.362312
0.0104559
-0.348962
0.0112837
-0.336419
0.0121001
-0.324677
0.012914
-0.313694
0.013731
-0.303414
0.0145542
-0.29378
0.0153857
-0.284748
0.0162287
-0.27629
0.0170911
-0.268385
0.0179904
-0.261005
-0.254104
0.0189597
0.000529849
-0.479594
0.00160786
-0.464132
0.00288916
-0.450831
0.00417839
-0.436839
0.00538362
-0.422243
0.00647549
-0.407197
0.00745915
-0.392084
0.00835503
-0.377306
0.00918729
-0.363144
0.00997787
-0.349753
0.0107444
-0.337185
0.0115002
-0.325433
0.0122547
-0.314448
0.0130141
-0.304173
0.0137825
-0.294548
0.0145628
-0.285529
0.0153586
-0.277086
0.0161781
-0.269205
0.0170395
-0.261867
-0.255039
0.0179749
0.000522483
-0.480116
0.00157631
-0.465186
0.00281855
-0.452074
0.00405818
-0.438079
0.00520656
-0.423391
0.00623717
-0.408228
0.00715723
-0.393004
0.00798833
-0.378137
0.00875504
-0.363911
0.00947928
-0.350477
0.0101785
-0.337885
0.010866
-0.32612
0.0115513
-0.315134
0.0122416
-0.304863
0.0129424
-0.295249
0.0136583
-0.286244
0.0143947
-0.277823
0.0151606
-0.269971
0.0159739
-0.26268
-0.255933
0.0168672
0.000517282
-0.480634
0.00154682
-0.466216
0.00274867
-0.453275
0.00393746
-0.439267
0.00502783
-0.424482
0.00599578
-0.409196
0.0068504
-0.393859
0.00761427
-0.378901
0.00831217
-0.364609
0.00896579
-0.351131
0.00959211
-0.338511
0.0102037
-0.326732
0.01081
-0.31574
0.011418
-0.305471
0.0120338
-0.295865
0.0126638
-0.286874
0.013316
-0.278475
0.0140023
-0.270657
0.0147453
-0.263423
-0.256787
0.0155996
0.000515615
-0.481149
0.00152085
-0.467221
0.00268158
-0.454436
0.00381924
-0.440405
0.00485133
-0.425514
0.00575598
-0.410101
0.00654398
-0.394647
0.00723874
-0.379596
0.00786504
-0.365235
0.00844407
-0.35171
0.00899214
-0.339059
0.00952123
-0.327261
0.01004
-0.316259
0.0105547
-0.305986
0.0110703
-0.296381
0.0115918
-0.287396
0.012127
-0.27901
0.0126926
-0.271223
0.0133271
-0.264057
-0.257587
0.014127
0.000518524
-0.481668
0.00150041
-0.468203
0.00262096
-0.455557
0.00370804
-0.441492
0.00468202
-0.426488
0.00552334
-0.410942
0.00624446
-0.395368
0.00686935
-0.38022
0.00742226
-0.365788
0.00792317
-0.35221
0.00838713
-0.339523
0.00882516
-0.327699
0.00924561
-0.316679
0.00965508
-0.306396
0.0100586
-0.296784
0.0104596
-0.287797
0.0108623
-0.279413
0.0112805
-0.271641
0.0117587
-0.264536
-0.258186
0.0123571
0.000528973
-0.482197
0.00149259
-0.469166
0.00257444
-0.456639
0.00360993
-0.442528
0.00452501
-0.427403
0.00530336
-0.41172
0.00595891
-0.396024
0.0065156
-0.380777
0.00699634
-0.366269
0.00741876
-0.352633
0.0077948
-0.339899
0.00813214
-0.328036
0.00843643
-0.316983
0.00871365
-0.306673
0.00897216
-0.297043
0.00922317
-0.288048
0.00947781
-0.279667
0.00974017
-0.271903
0.0100032
-0.264799
-0.258307
0.010125
0.000561628
-0.482758
0.00151296
-0.470118
0.00255038
-0.457676
0.00352884
-0.443506
0.00438333
-0.428257
0.00510024
-0.412437
0.0056939
-0.396617
0.00618761
-0.381271
0.0066026
-0.366684
0.00695362
-0.352984
0.00724814
-0.340194
0.00748725
-0.328275
0.00766748
-0.317164
0.00778388
-0.306789
0.00783484
-0.297094
0.00782797
-0.288041
0.00778327
-0.279623
0.00772937
-0.271849
0.00768943
-0.264759
-0.258239
0.00762084
0.00065664
-0.483415
0.00156744
-0.471028
0.00254383
-0.458652
0.0034617
-0.444424
0.00425716
-0.429053
0.00491681
-0.413097
0.0054548
-0.397155
0.00589388
-0.38171
0.00625426
-0.367044
0.00654891
-0.353279
0.00678242
-0.340427
0.00695089
-0.328444
0.00704185
-0.317255
0.00703311
-0.30678
0.00689011
-0.296951
0.0065614
-0.287712
0.00598205
-0.279043
0.00513531
-0.271003
0.00430069
-0.263924
-0.259119
0.00518091
0.490905
0.000512054
-0.491417
0.490449
0.000456629
0.490013
0.000435653
0.489587
0.000426008
0.489167
0.000419707
0.488753
0.000414902
0.488341
0.000411334
0.487933
0.000408602
0.487526
0.000406176
0.487123
0.000403772
0.486722
0.000401081
0.486323
0.000398313
0.485928
0.000394975
0.485536
0.000392088
0.485149
0.000387572
0.484764
0.000384791
0.484389
0.000374842
0.484021
0.000368426
0.483695
0.00032577
0.000279832
0.484643
0.0010577
-0.485189
0.484054
0.00104522
0.483444
0.00104612
0.482812
0.00105807
0.482159
0.00107312
0.481486
0.00108732
0.480797
0.00110024
0.480094
0.00111191
0.479378
0.00112205
0.478651
0.00113044
0.477916
0.00113687
0.477172
0.00114174
0.476422
0.00114479
0.475667
0.00114726
0.474907
0.00114748
0.474144
0.00114757
0.473378
0.00114101
0.472613
0.00113363
0.471831
0.00110734
0.00108285
0.472488
0.00143081
-0.472861
0.472049
0.00148339
0.47156
0.00153521
0.471028
0.00159041
0.470455
0.00164583
0.469845
0.00169773
0.4692
0.00174506
0.468524
0.00178791
0.46782
0.00182632
0.46709
0.00186034
0.466337
0.00189003
0.465562
0.00191597
0.464769
0.00193834
0.463957
0.00195875
0.463129
0.0019762
0.462284
0.00199209
0.46142
0.00200538
0.460534
0.00201935
0.459613
0.00202887
0.002043
0.455911
0.00159993
-0.45608
0.455675
0.00171872
0.45538
0.0018307
0.455031
0.00193881
0.454634
0.00204286
0.454191
0.00214062
0.453705
0.00223101
0.453179
0.00231394
0.452616
0.00238953
0.452018
0.00245804
0.451389
0.00251975
0.450729
0.00257544
0.450042
0.002626
0.449328
0.00267243
0.448588
0.00271584
0.447821
0.00275889
0.447025
0.00280152
0.446198
0.00284714
0.445331
0.00289552
0.0029499
0.437711
0.00160485
-0.437716
0.437644
0.00178605
0.437517
0.00195738
0.437336
0.00212002
0.437104
0.00227462
0.436825
0.0024202
0.4365
0.00255594
0.436132
0.00268159
0.435725
0.0027972
0.43528
0.00290311
0.4348
0.00299974
0.434287
0.00308812
0.433743
0.0031697
0.43317
0.00324575
0.432567
0.00331821
0.431935
0.00339109
0.431271
0.00346601
0.430572
0.00354597
0.429834
0.0036335
0.00373115
0.41939
0.00150486
-0.41929
0.419432
0.00174342
0.41942
0.00197015
0.419355
0.00218511
0.41924
0.0023889
0.41908
0.00258104
0.418874
0.00276096
0.418628
0.0029283
0.418342
0.003083
0.41802
0.00322533
0.417664
0.00335592
0.417276
0.00347606
0.416858
0.00358684
0.416413
0.00369093
0.41594
0.00379179
0.415438
0.00389256
0.414907
0.00399706
0.414343
0.00410984
0.413742
0.00423499
0.00437609
0.401809
0.00135317
-0.401658
0.401908
0.00164442
0.401956
0.00192228
0.401955
0.00218621
0.401908
0.0024364
0.401816
0.00267248
0.401683
0.00289395
0.401511
0.00310032
0.401303
0.00329144
0.401061
0.00346741
0.400788
0.0036289
0.400486
0.00377736
0.400159
0.0039141
0.399808
0.00404211
0.399434
0.0041661
0.399036
0.00429018
0.398614
0.00441934
0.398163
0.00456024
0.397679
0.00471882
0.00490018
0.38539
0.00118797
-0.385225
0.385507
0.00152814
0.385575
0.00185351
0.385598
0.00216313
0.385578
0.0024568
0.385516
0.00273401
0.385416
0.00299419
0.38528
0.00323671
0.38511
0.00346118
0.38491
0.00366754
0.384682
0.00385652
0.384431
0.00402877
0.384158
0.00418659
0.383867
0.00433388
0.383558
0.00447471
0.383233
0.00461493
0.382891
0.00476188
0.382527
0.00492399
0.382136
0.00510976
0.00532638
0.370243
0.00103241
-0.370087
0.370352
0.0014187
0.370417
0.0017888
0.370439
0.00214147
0.370419
0.00247616
0.370361
0.00279215
0.370267
0.00308867
0.370139
0.00336487
0.36998
0.00362006
0.369793
0.00385381
0.369583
0.00406677
0.369353
0.00425914
0.369106
0.00443325
0.368847
0.00459336
0.368577
0.00474439
0.368299
0.00489299
0.368012
0.00504915
0.367712
0.00522385
0.367393
0.00542891
0.00567489
0.35631
0.000898137
-0.356176
0.3564
0.00132857
0.356447
0.00174144
0.356454
0.00213527
0.356421
0.00250924
0.35635
0.00286231
0.356245
0.00319353
0.356109
0.0035016
0.355943
0.00378563
0.355752
0.00404459
0.355541
0.00427849
0.355312
0.00448732
0.355072
0.0046739
0.354824
0.00484078
0.354574
0.00499455
0.354324
0.00514287
0.354075
0.00529843
0.353824
0.00547534
0.353562
0.00569018
0.00595868
0.343465
0.000789327
-0.343356
0.343531
0.00126259
0.343555
0.00171696
0.34354
0.00215074
0.343486
0.00256288
0.343397
0.00295201
0.343273
0.00331698
0.343119
0.00365586
0.342937
0.0039676
0.342731
0.00425024
0.342506
0.00450338
0.342268
0.00472586
0.342021
0.00492096
0.341773
0.00508896
0.341529
0.00523861
0.341295
0.00537671
0.341072
0.00552063
0.340861
0.00568702
0.340651
0.00589993
0.0061826
0.331567
0.000705963
-0.331483
0.331608
0.00122125
0.331609
0.00171635
0.33157
0.00218937
0.331494
0.0026391
0.331382
0.00306382
0.331237
0.00346217
0.331061
0.00383151
0.330858
0.0041706
0.330632
0.00447618
0.330388
0.00474793
0.330132
0.00498184
0.32987
0.00518274
0.329612
0.00534662
0.329365
0.0054857
0.32914
0.00560223
0.328938
0.00572235
0.328763
0.00586174
0.328605
0.00605814
0.00634383
0.320484
0.000646072
-0.320424
0.320502
0.0012029
0.32048
0.00173829
0.32042
0.00225022
0.320321
0.00273735
0.320188
0.00319761
0.32002
0.00362949
0.319822
0.00402948
0.319596
0.00439643
0.319348
0.00472473
0.319081
0.00501521
0.318803
0.00525985
0.31852
0.00546536
0.318247
0.0056197
0.317989
0.00574327
0.317767
0.00582482
0.317581
0.00590852
0.317444
0.00599782
0.317343
0.00616001
0.00643187
0.310106
0.000607121
-0.310067
0.310103
0.00120523
0.310061
0.0017807
0.30998
0.0023314
0.309861
0.00285598
0.309707
0.00335204
0.309518
0.00381794
0.309299
0.00424923
0.30905
0.00464503
0.308778
0.0049969
0.308486
0.00530753
0.308183
0.00556242
0.307875
0.00577327
0.307581
0.00591349
0.307306
0.00601893
0.307081
0.0060492
0.306904
0.00608546
0.306812
0.00608995
0.306774
0.0061977
0.00642591
0.30034
0.00058679
-0.30032
0.30032
0.00122605
0.300259
0.00184145
0.300159
0.0024309
0.300022
0.00299313
0.299849
0.00352542
0.299641
0.00402613
0.2994
0.00448968
0.299129
0.00491578
0.298834
0.0052928
0.298515
0.00562577
0.298186
0.00589159
0.297849
0.00611088
0.297529
0.00623298
0.297226
0.00632155
0.296995
0.00628041
0.296817
0.00626369
0.296777
0.00613005
0.29681
0.00616437
0.00628565
0.291113
0.000583361
-0.29111
0.291076
0.00126368
0.290998
0.00191887
0.290882
0.00254704
0.290728
0.00314713
0.290537
0.00371617
0.290311
0.00425255
0.290051
0.00474962
0.289759
0.00520757
0.289441
0.00561153
0.289096
0.00597034
0.288739
0.00624899
0.288368
0.00648167
0.288017
0.00658344
0.287677
0.00666154
0.287433
0.00652458
0.287238
0.00645873
0.287262
0.00610661
0.28736
0.00606594
0.00593315
0.282363
0.000595837
-0.282375
0.282309
0.00131712
0.282216
0.00201183
0.282085
0.00267854
0.281915
0.00331658
0.281709
0.00392274
0.281466
0.00449555
0.281188
0.00502722
0.280877
0.00551872
0.280537
0.00595185
0.280167
0.00633968
0.279782
0.0066342
0.279377
0.00688732
0.27899
0.00696962
0.278602
0.00705003
0.278335
0.00679177
0.278103
0.00669049
0.278214
0.00599547
0.278346
0.00593445
0.00523544
0.274035
0.000623653
-0.274063
0.273967
0.00138553
0.273859
0.0021191
0.273714
0.00282377
0.273531
0.00349942
0.273312
0.0041426
0.273055
0.00475203
0.272763
0.00531889
0.272437
0.00584508
0.27208
0.00630892
0.271691
0.00672861
0.271283
0.00704269
0.270846
0.00732358
0.270424
0.00739161
0.269981
0.00749376
0.269673
0.00709981
0.269372
0.00699116
0.269611
0.00575657
0.269762
0.00578356
0.00399453
0.266078
0.0006663
-0.266121
0.265996
0.00146745
0.265877
0.00223811
0.265722
0.002979
0.265531
0.00369074
0.265304
0.00436957
0.265041
0.00501447
0.264745
0.0056155
0.264414
0.0061761
0.264052
0.00667071
0.263657
0.00712341
0.26324
0.00745979
0.262789
0.00777419
0.262345
0.00783646
0.261856
0.00798204
0.26149
0.00746641
0.261067
0.00741389
0.261385
0.0054381
0.261688
0.00548108
0.00175836
0.258438
-0.258496
0.00072492
0.258343
0.00156182
0.258216
0.00236556
0.258056
0.00313856
0.257865
0.00388238
0.257641
0.00459293
0.257386
0.0052695
0.257101
0.00590079
0.256785
0.00649232
0.25644
0.00701519
0.256065
0.00749876
0.255667
0.00785762
0.255235
0.00820683
0.254797
0.00827383
0.254303
0.00847576
0.253881
0.00788866
0.253315
0.00798058
0.253353
0.00539953
0.253663
0.00517136
-0.00369774
0.494892
0.000121205
-0.495013
0.494846
4.55283e-05
0.494815
3.17438e-05
0.494775
3.96662e-05
0.49472
5.49538e-05
0.494646
7.44011e-05
0.494548
9.71582e-05
0.494426
0.000122072
0.494279
0.000147834
0.494105
0.000173463
0.493907
0.000198158
0.493685
0.000221611
0.493442
0.00024314
0.493179
0.000263076
0.492899
0.000279883
0.492604
0.000295412
0.4923
0.000304092
0.491987
0.000312249
0.491692
0.000295936
0.000274056
0.48593
-0.000375728
-0.485433
0.486353
-0.000378011
0.486732
-0.000347435
0.487062
-0.000289534
0.487336
-0.000219318
0.487554
-0.000144003
0.487717
-6.53258e-05
0.487823
1.56669e-05
0.487874
9.74016e-05
0.487869
0.000178372
0.48781
0.00025726
0.487698
0.000333369
0.487535
0.00040568
0.487324
0.000474143
0.487067
0.000537007
0.486768
0.000595055
0.486428
0.000643676
0.486055
0.000685378
0.485642
0.000709231
0.000726893
0.46836
-0.0013083
-0.467428
0.469204
-0.00122112
0.469974
-0.00111774
0.470677
-0.000992996
0.471312
-0.000854292
0.471877
-0.00070901
0.472372
-0.000560419
0.472798
-0.000410054
0.473155
-0.000259504
0.473444
-0.000110382
0.473665
3.57564e-05
0.473821
0.000177898
0.473912
0.000314866
0.47394
0.000446161
0.473906
0.000570272
0.473814
0.000687094
0.473664
0.000794
0.473457
0.000891948
0.473189
0.000977773
0.00105511
0.447111
-0.00248841
-0.445931
0.448213
-0.00232278
0.449239
-0.00214397
0.450195
-0.00194906
0.451082
-0.00174098
0.451898
-0.00152507
0.452643
-0.00130515
0.453316
-0.0010835
0.453919
-0.000862009
0.454451
-0.000642421
0.454913
-0.000426422
0.455306
-0.000215279
0.455631
-1.02479e-05
0.455889
0.000187902
0.456082
0.000377934
0.456209
0.000559394
0.456273
0.000730861
0.456272
0.000892446
0.456207
0.00104301
0.00118226
0.425898
-0.00378686
-0.424599
0.427128
-0.00355342
0.428289
-0.00330506
0.429382
-0.00304214
0.430408
-0.00276659
0.431365
-0.00248238
0.432254
-0.00219336
0.433073
-0.00190249
0.433823
-0.0016121
0.434504
-0.00132415
0.435118
-0.00104041
0.435665
-0.000762268
0.436146
-0.000490992
0.436561
-0.000227463
0.436912
2.72966e-05
0.437199
0.000272691
0.437422
0.000507786
0.437582
0.000732154
0.43768
0.000945226
0.00114587
0.406086
-0.00512307
-0.404749
0.407361
-0.00482912
0.408573
-0.00451665
0.409719
-0.00418837
0.410799
-0.00384703
0.411814
-0.00349648
0.412761
-0.00314078
0.413642
-0.00278338
0.414457
-0.00242703
0.415207
-0.00207392
0.415892
-0.00172587
0.416514
-0.00138427
0.417073
-0.00105033
0.417571
-0.000724924
0.418007
-0.000408917
0.418383
-0.000102954
0.418698
0.000192231
0.418954
0.000476036
0.419151
0.000748147
0.00100745
0.388099
-0.00645261
-0.38677
0.389372
-0.00610204
0.390584
-0.0057283
0.391731
-0.00533603
0.392814
-0.00492959
0.393831
-0.00451369
0.394783
-0.00409287
0.395671
-0.00367101
0.396495
-0.0032512
0.397257
-0.00283581
0.397958
-0.00242664
0.398598
-0.00202502
0.39918
-0.00163202
0.399704
-0.00124841
0.40017
-0.000874907
0.400579
-0.000512119
0.400932
-0.000160649
0.401229
0.000178896
0.401471
0.000506269
0.000820372
0.371923
-0.00775573
-0.37062
0.373171
-0.00734985
0.374358
-0.00691525
0.37548
-0.00645862
0.376537
-0.00598651
0.377529
-0.00550509
0.378455
-0.00501964
0.379319
-0.00453443
0.380121
-0.00405284
0.380862
-0.00357731
0.381545
-0.00310956
0.382171
-0.00265074
0.38274
-0.00220169
0.383255
-0.00176303
0.383715
-0.00133527
0.384122
-0.000918917
0.384476
-0.000514453
0.384777
-0.000122478
0.385027
0.000256744
0.000622075
0.357343
-0.00902796
-0.35607
0.358559
-0.0085662
0.359713
-0.00806904
0.3608
-0.00754586
0.36182
-0.00700616
0.362773
-0.00645798
0.36366
-0.00590742
0.364485
-0.00535915
0.365249
-0.00481673
0.365954
-0.00428258
0.366603
-0.0037582
0.367197
-0.00324441
0.367737
-0.00274177
0.368224
-0.00225059
0.36866
-0.00177117
0.369045
-0.00130386
0.36938
-0.000849039
0.369664
-0.000407286
0.3699
2.10796e-05
0.000434869
0.344096
-0.0102733
-0.342851
0.345283
-0.00975349
0.346404
-0.00918994
0.347455
-0.00859618
0.348434
-0.00798573
0.349345
-0.00736866
0.350189
-0.00675178
0.35097
-0.00614017
0.351691
-0.0055375
0.352354
-0.00494595
0.352963
-0.00436655
0.353518
-0.00379969
0.354022
-0.00324549
0.354475
-0.00270389
0.354879
-0.00217492
0.355234
-0.00165872
0.35554
-0.00115557
0.355799
-0.000666041
0.35601
-0.000190526
0.000269727
0.331945
-0.0115
-0.330718
0.33311
-0.0109181
0.334202
-0.0102819
0.335217
-0.00961167
0.336158
-0.00892627
0.337027
-0.0082375
0.337827
-0.00755267
0.338565
-0.00687726
0.339242
-0.00621485
0.339863
-0.00556705
0.340431
-0.00493422
0.340947
-0.0043161
0.341414
-0.00371222
0.341832
-0.00312208
0.342202
-0.00254534
0.342526
-0.00198194
0.342802
-0.00143204
0.343032
-0.000896233
0.343217
-0.000374993
0.000130336
0.320697
-0.0127183
-0.319479
0.321847
-0.0120681
0.322915
-0.0113496
0.323898
-0.0105952
0.324802
-0.00982989
0.325631
-0.00906612
0.32639
-0.00831149
0.327084
-0.00757195
0.32772
-0.00685058
0.328301
-0.00614796
0.32883
-0.00546346
0.32931
-0.00479599
0.329742
-0.00414435
0.330128
-0.00350745
0.330467
-0.00288457
0.33076
-0.00227541
0.331008
-0.00168006
0.331211
-0.00109909
0.331369
-0.000533138
1.63286e-05
0.310206
-0.0139403
-0.308984
0.311349
-0.0132116
0.312397
-0.0123969
0.31335
-0.0115491
0.314219
-0.0106985
0.315009
-0.00985594
0.315727
-0.00902973
0.316381
-0.00822619
0.316978
-0.00744713
0.317521
-0.0066915
0.318015
-0.00595741
0.318462
-0.00524276
0.318863
-0.00454541
0.319219
-0.00386356
0.319531
-0.00319609
0.319798
-0.00254247
0.320021
-0.00190272
0.320199
-0.00127745
0.320333
-0.000667496
-7.44984e-05
0.300362
-0.0151798
-0.299122
0.301506
-0.0143561
0.302536
-0.0134266
0.303462
-0.0124753
0.304297
-0.0115332
0.305048
-0.0106075
0.305727
-0.00970831
0.306342
-0.00884164
0.306902
-0.00800673
0.307411
-0.00720035
0.307873
-0.00641921
0.30829
-0.00565985
0.308663
-0.00491898
0.308994
-0.00419406
0.309281
-0.00348353
0.309525
-0.00278664
0.309726
-0.00210339
0.309883
-0.00143449
0.309996
-0.000780997
-0.000144828
0.291091
-0.0164553
-0.289816
0.29224
-0.0155054
0.293253
-0.0144391
0.294153
-0.0133753
0.294954
-0.0123339
0.295666
-0.0113199
0.296305
-0.0103472
0.296882
-0.00941912
0.297406
-0.00853073
0.297882
-0.00767642
0.298314
-0.00685126
0.298705
-0.00605003
0.299054
-0.00526807
0.299362
-0.00450205
0.299628
-0.00374999
0.299852
-0.00301099
0.300034
-0.00228503
0.300173
-0.001573
0.300268
-0.000876261
-0.000197083
0.282352
-0.017799
-0.281008
0.283503
-0.0166569
0.284496
-0.0154314
0.28537
-0.0142497
0.286133
-0.0130973
0.286802
-0.0119889
0.287399
-0.010944
0.287938
-0.00995767
0.288426
-0.00901887
0.28887
-0.00812025
0.289273
-0.00725487
0.289638
-0.00641516
0.289965
-0.00559484
0.290253
-0.00478986
0.290501
-0.0039979
0.290708
-0.00321793
0.290873
-0.00244998
0.290995
-0.00169517
0.291074
-0.000955282
-0.000233069
0.274117
-0.0192731
-0.272643
0.275265
-0.0178055
0.27623
-0.0163959
0.277075
-0.0150951
0.277793
-0.0138146
0.27841
-0.0126057
0.278959
-0.0114933
0.279455
-0.0104539
0.279906
-0.00946933
0.280317
-0.00853141
0.280693
-0.00763075
0.281034
-0.00675663
0.28134
-0.0059011
0.28161
-0.00505951
0.281841
-0.00422931
0.282033
-0.00340942
0.282183
-0.00260002
0.28229
-0.00180258
0.282354
-0.00101939
-0.000253879
0.266346
-0.0209439
-0.264675
0.267501
-0.0189608
0.268426
-0.0173206
0.269224
-0.0158934
0.26988
-0.0144705
0.270435
-0.0131607
0.27093
-0.0119882
0.27138
-0.0109035
0.271791
-0.00988061
0.27217
-0.00891049
0.27252
-0.00798051
0.27284
-0.00707655
0.273128
-0.00618914
0.273381
-0.00531325
0.273598
-0.00444629
0.273776
-0.00358727
0.273913
-0.00273665
0.274007
-0.00189637
0.274057
-0.00106942
-0.000260097
0.258988
-0.0226034
-0.257328
0.260175
-0.0201483
0.261064
-0.0182093
0.261756
-0.0165857
0.262326
-0.0150408
0.26282
-0.0136541
0.263259
-0.0124271
0.263659
-0.0113041
0.264032
-0.0102535
0.264382
-0.00926019
0.264708
-0.00830689
0.265009
-0.00737724
0.265281
-0.00646089
0.26552
-0.0055526
0.265724
-0.00464994
0.265889
-0.00375223
0.266012
-0.00286039
0.266093
-0.00197691
0.266129
-0.00110555
-0.000251836
0.251893
-0.252002
-0.0224945
0.253095
-0.021351
0.254185
-0.0192994
0.254644
-0.0170445
0.255071
-0.015468
0.255532
-0.0141144
0.255932
-0.0128272
0.256282
-0.0116548
0.256617
-0.0105877
0.256939
-0.00958241
0.257242
-0.00861036
0.257522
-0.00765708
0.257775
-0.00671352
0.257996
-0.00577412
0.258183
-0.00483645
0.258331
-0.0039004
0.258438
-0.00296754
0.258502
-0.00204096
0.258522
-0.00112503
-0.000226599
0.0248867
0.227733
-0.226665
-0.0259552
0.0237895
0.234898
-0.233801
0.0226649
0.242316
-0.241191
0.0215124
0.250028
-0.248876
0.0203324
0.258085
-0.256905
0.0191255
0.266535
-0.265328
0.0178914
0.275428
-0.274194
0.0166281
0.284816
-0.283553
0.0153313
0.294763
-0.293466
0.0139943
0.305353
-0.304017
0.012609
0.316712
-0.315326
0.0111658
0.329024
-0.327581
0.00965494
0.342562
-0.341051
0.00806997
0.3577
-0.356115
0.00641338
0.374907
-0.373251
0.00470844
0.394679
-0.392974
0.00301921
0.417365
-0.415676
0.00148216
0.442663
-0.441126
0.000351196
0.46796
-0.466829
0.48855
-0.488199
0.0249285
0.228806
-0.0260016
0.023828
0.235999
0.0227007
0.243443
0.0215454
0.251183
0.0203619
0.259268
0.0191506
0.267746
0.0179113
0.276667
0.0166419
0.286086
0.0153383
0.296067
0.0139943
0.306697
0.0126018
0.318104
0.0111518
0.330474
0.00963505
0.344079
0.00804602
0.359289
0.00638898
0.376564
0.00468999
0.396378
0.00301663
0.419039
0.0015078
0.444171
0.000403085
0.469065
0.488953
0.0249388
0.229883
-0.0260158
0.0238358
0.237102
0.0227071
0.244572
0.0215505
0.25234
0.0203652
0.260454
0.0191514
0.26896
0.0179087
0.27791
0.0166351
0.28736
0.0153267
0.297375
0.0139775
0.308047
0.0125798
0.319502
0.0111248
0.331929
0.00960395
0.3456
0.00801261
0.36088
0.0063566
0.37822
0.00466416
0.39807
0.00300454
0.420698
0.00151365
0.445662
0.000417981
0.47016
0.489371
0.024916
0.230962
-0.025995
0.0238128
0.238205
0.0226846
0.2457
0.0215286
0.253496
0.0203434
0.261639
0.019129
0.270174
0.0178848
0.279154
0.0166088
0.288635
0.0152974
0.298687
0.0139448
0.309399
0.0125435
0.320903
0.0110852
0.333388
0.00956178
0.347123
0.00796947
0.362473
0.00631511
0.379875
0.00462839
0.399757
0.00297955
0.422347
0.0015031
0.447139
0.000419856
0.471244
0.489791
0.0248597
0.232041
-0.0259379
0.0237588
0.239306
0.0226335
0.246825
0.0214802
0.254649
0.0202972
0.262822
0.019084
0.271388
0.01784
0.280398
0.0165634
0.289912
0.0152506
0.3
0.0138962
0.310754
0.0124929
0.322306
0.0110327
0.334848
0.00950812
0.348647
0.00791597
0.364065
0.00626406
0.381527
0.00458328
0.401438
0.00294533
0.423985
0.00148483
0.448599
0.000417127
0.472311
0.490208
0.0247725
0.233115
-0.0258473
0.0236762
0.240402
0.0225559
0.247946
0.0214072
0.255798
0.020228
0.264001
0.0190177
0.272598
0.0177755
0.28164
0.0164997
0.291188
0.0151869
0.301312
0.013832
0.312109
0.012428
0.32371
0.0109673
0.336309
0.00944286
0.350172
0.00785216
0.365655
0.006204
0.383175
0.00453057
0.403111
0.00290503
0.425611
0.00146207
0.450042
0.000411282
0.473362
0.490619
0.0246565
0.234185
-0.0257259
0.0235669
0.241492
0.0224535
0.249059
0.0213111
0.25694
0.0201373
0.265175
0.0189312
0.273804
0.0176921
0.28288
0.0164184
0.292462
0.0151068
0.302624
0.0137526
0.313463
0.0123492
0.325114
0.0108892
0.337769
0.00936617
0.351695
0.00777835
0.367243
0.00613552
0.384818
0.00447114
0.404775
0.00285958
0.427222
0.00143522
0.451467
0.000402545
0.474395
0.491022
0.0245191
0.235248
-0.0255819
0.0234371
0.242574
0.0223315
0.250165
0.0211963
0.258075
0.0200286
0.266342
0.0188273
0.275005
0.0175919
0.284115
0.0163209
0.293733
0.0150113
0.303933
0.0136586
0.314816
0.0122567
0.326516
0.0107986
0.339227
0.00927827
0.353215
0.00769475
0.368827
0.00605882
0.386454
0.00440512
0.406429
0.00280899
0.428818
0.00140436
0.452871
0.000391363
0.475408
0.491413
0.0243607
0.236303
-0.0254159
0.0232875
0.243647
0.0221907
0.251261
0.0210635
0.259203
0.0199025
0.267503
0.0187067
0.276201
0.0174755
0.285346
0.0162077
0.295
0.0149008
0.30524
0.0135504
0.316166
0.0121508
0.327915
0.0106956
0.340682
0.00917921
0.354731
0.00760141
0.370405
0.00597393
0.388081
0.00433255
0.40807
0.00275343
0.430397
0.00136999
0.454255
0.000378355
0.476399
0.491791
0.0241975
0.237351
-0.0252459
0.0231318
0.244713
0.0220424
0.252351
0.0209215
0.260324
0.0197656
0.268659
0.0185739
0.277393
0.017346
0.286574
0.0160808
0.296266
0.0147762
0.306545
0.0134282
0.317514
0.0120316
0.329312
0.0105801
0.342133
0.00906887
0.356243
0.00749818
0.371975
0.00588076
0.389699
0.00425343
0.409698
0.00269309
0.431958
0.00133248
0.455615
0.000363895
0.477368
0.492155
0.0240191
0.238392
-0.02506
0.0229614
0.24577
0.0218796
0.253433
0.0207653
0.261438
0.0196146
0.26981
0.0184268
0.278581
0.0172019
0.287799
0.0159392
0.297528
0.0146369
0.307847
0.0132917
0.318859
0.0118986
0.330705
0.0104517
0.34358
0.00894684
0.357748
0.00738481
0.373537
0.00577921
0.391304
0.00416787
0.411309
0.00262829
0.433497
0.00129237
0.456951
0.000348444
0.478312
0.492504
0.0238694
0.239432
-0.024909
0.0228124
0.246827
0.0217305
0.254515
0.0206151
0.262553
0.0194629
0.270962
0.0182736
0.27977
0.0170476
0.289025
0.0157848
0.298791
0.0144834
0.309149
0.0131404
0.320202
0.011751
0.332095
0.0103097
0.345022
0.00881247
0.359245
0.00726077
0.375089
0.00566895
0.392896