/*--------------------------------*- C++ -*----------------------------------*\
  =========                 |
  \\      /  F ield         | OpenFOAM: The Open Source CFD Toolbox
   \\    /   O peration     | Website:  https://openfoam.org
    \\  /    A nd           | Version:  6.0
     \\/     M anipulation  |
\*---------------------------------------------------------------------------*/
FoamFile
{
    version     2.0;
    format      ascii;
    class       volScalarField;
    location    "2";
    object      p;
}
// * * * * * * * * * * * * * * * * * * * * * * * * * * * * * * * * * * * * * //

dimensions      [0 2 -2 0 0 0 0];

internalField   nonuniform List<scalar> 
19200
(
-0.430424
-0.426141
-0.422541
-0.419164
-0.41575
-0.412314
-0.40884
-0.405308
-0.4017
-0.398008
-0.394225
-0.390352
-0.386388
-0.382336
-0.378202
-0.373988
-0.369701
-0.365344
-0.360925
-0.35645
-0.351926
-0.347357
-0.342745
-0.338091
-0.333405
-0.328707
-0.323995
-0.319199
-0.314299
-0.310103
-0.435559
-0.431055
-0.427361
-0.423905
-0.420405
-0.416871
-0.413293
-0.409648
-0.405924
-0.40211
-0.398201
-0.394199
-0.390103
-0.385918
-0.381648
-0.377298
-0.372874
-0.36838
-0.363824
-0.359212
-0.354553
-0.34985
-0.345105
-0.340321
-0.335509
-0.330688
-0.325861
-0.32094
-0.315897
-0.311684
-0.441491
-0.436656
-0.432786
-0.429205
-0.425582
-0.421924
-0.41822
-0.414445
-0.410586
-0.406635
-0.402588
-0.398444
-0.394207
-0.389879
-0.385465
-0.380971
-0.376403
-0.371766
-0.367067
-0.362313
-0.357514
-0.352673
-0.347794
-0.342879
-0.33794
-0.332998
-0.328056
-0.323012
-0.317824
-0.313621
-0.447997
-0.442868
-0.438806
-0.435069
-0.431295
-0.427488
-0.423634
-0.419709
-0.415699
-0.411595
-0.407394
-0.403097
-0.398706
-0.394224
-0.389658
-0.385011
-0.380291
-0.375503
-0.370656
-0.365756
-0.360812
-0.355831
-0.350816
-0.345768
-0.3407
-0.335636
-0.330579
-0.325411
-0.320074
-0.315909
-0.455116
-0.449691
-0.445415
-0.441495
-0.437543
-0.433563
-0.429538
-0.425444
-0.421264
-0.416991
-0.412623
-0.408159
-0.403603
-0.398957
-0.394227
-0.389419
-0.384539
-0.379595
-0.374592
-0.369541
-0.364448
-0.359323
-0.354168
-0.348987
-0.343787
-0.3386
-0.333428
-0.328132
-0.322643
-0.31854
-0.46287
-0.457125
-0.452609
-0.448481
-0.444327
-0.440151
-0.435935
-0.431651
-0.427284
-0.422827
-0.418277
-0.413633
-0.408899
-0.404078
-0.399175
-0.394196
-0.389149
-0.384039
-0.378875
-0.373665
-0.368417
-0.363143
-0.357844
-0.352526
-0.347196
-0.341882
-0.336596
-0.331172
-0.325524
-0.321507
-0.47126
-0.465168
-0.460387
-0.456026
-0.451647
-0.447252
-0.442824
-0.438332
-0.433761
-0.429104
-0.424356
-0.419519
-0.414595
-0.409587
-0.404501
-0.399342
-0.394118
-0.388835
-0.383501
-0.378125
-0.372716
-0.367284
-0.361837
-0.356376
-0.350912
-0.345474
-0.340071
-0.334517
-0.328706
-0.324798
-0.480286
-0.473815
-0.468745
-0.464128
-0.459501
-0.454866
-0.450205
-0.445486
-0.440694
-0.43582
-0.430861
-0.425817
-0.42069
-0.415483
-0.410203
-0.404854
-0.399444
-0.393979
-0.388468
-0.382919
-0.377341
-0.371746
-0.366142
-0.360535
-0.35493
-0.349364
-0.343844
-0.338154
-0.332175
-0.328395
-0.489943
-0.483064
-0.477679
-0.472784
-0.467886
-0.46299
-0.458075
-0.45311
-0.448079
-0.442972
-0.437787
-0.432522
-0.42718
-0.421764
-0.416278
-0.410729
-0.405123
-0.399468
-0.39377
-0.38804
-0.382287
-0.376522
-0.370755
-0.364993
-0.359246
-0.353544
-0.347903
-0.342073
-0.335917
-0.332282
-0.500225
-0.492909
-0.487186
-0.481989
-0.476798
-0.471619
-0.466431
-0.461202
-0.455914
-0.450559
-0.445132
-0.439633
-0.434064
-0.428426
-0.422724
-0.416964
-0.411152
-0.405296
-0.399403
-0.393482
-0.387544
-0.381601
-0.375665
-0.369741
-0.363843
-0.358006
-0.352236
-0.346262
-0.339918
-0.336443
-0.511124
-0.503343
-0.497258
-0.491739
-0.486233
-0.48075
-0.475269
-0.469757
-0.464196
-0.458576
-0.452893
-0.447147
-0.441336
-0.435464
-0.429535
-0.423553
-0.417525
-0.411458
-0.40536
-0.399239
-0.393107
-0.386976
-0.380859
-0.374767
-0.368709
-0.36273
-0.356828
-0.350702
-0.344162
-0.340856
-0.522632
-0.51436
-0.50789
-0.502026
-0.496184
-0.490377
-0.484584
-0.478771
-0.472919
-0.467019
-0.461066
-0.455058
-0.448994
-0.442876
-0.436707
-0.430493
-0.424238
-0.417949
-0.411635
-0.405305
-0.398969
-0.392641
-0.386333
-0.38006
-0.373834
-0.367702
-0.361665
-0.355374
-0.348632
-0.345505
-0.534739
-0.52595
-0.519073
-0.512844
-0.506645
-0.500494
-0.49437
-0.488239
-0.48208
-0.475885
-0.469647
-0.463363
-0.457032
-0.450656
-0.444236
-0.437777
-0.431284
-0.424764
-0.418223
-0.411673
-0.405123
-0.398586
-0.392077
-0.385611
-0.379206
-0.372908
-0.366727
-0.360266
-0.353307
-0.35037
-0.547434
-0.538104
-0.530799
-0.524184
-0.517609
-0.511094
-0.504622
-0.498155
-0.491673
-0.485167
-0.478629
-0.472056
-0.465446
-0.458798
-0.452116
-0.445401
-0.438659
-0.431896
-0.425119
-0.418336
-0.411561
-0.404805
-0.398083
-0.39141
-0.384811
-0.378337
-0.371997
-0.365359
-0.358168
-0.355427
-0.560705
-0.550812
-0.543059
-0.536038
-0.529067
-0.522171
-0.515332
-0.508512
-0.501692
-0.49486
-0.488008
-0.481133
-0.47423
-0.467299
-0.460342
-0.453361
-0.446359
-0.439341
-0.432315
-0.42529
-0.418276
-0.411288
-0.40434
-0.397449
-0.39064
-0.383977
-0.377464
-0.370636
-0.363202
-0.360655
-0.57454
-0.564062
-0.55584
-0.548395
-0.541011
-0.533715
-0.526492
-0.519304
-0.51213
-0.504958
-0.497778
-0.490587
-0.483379
-0.476154
-0.468911
-0.461651
-0.454378
-0.447095
-0.439808
-0.432527
-0.425262
-0.418027
-0.410838
-0.403713
-0.396679
-0.389809
-0.383109
-0.376071
-0.368391
-0.366032
-0.588924
-0.57784
-0.569132
-0.561245
-0.553428
-0.545716
-0.538093
-0.530521
-0.522979
-0.515452
-0.507932
-0.500413
-0.492889
-0.485357
-0.477818
-0.470269
-0.462713
-0.455152
-0.447593
-0.440042
-0.432511
-0.425014
-0.417567
-0.410189
-0.40291
-0.395807
-0.388898
-0.381628
-0.37367
-0.371503
-0.603844
-0.592134
-0.582921
-0.574574
-0.566308
-0.558163
-0.550125
-0.542155
-0.534229
-0.526335
-0.518463
-0.510603
-0.502752
-0.494904
-0.487057
-0.479208
-0.471359
-0.463509
-0.455665
-0.447832
-0.44002
-0.432243
-0.42452
-0.416867
-0.409319
-0.401959
-0.394807
-0.387275
-0.379004
-0.377006
-0.619284
-0.606928
-0.597193
-0.58837
-0.579638
-0.571044
-0.562575
-0.554193
-0.545872
-0.537598
-0.529361
-0.521151
-0.512962
-0.504787
-0.496623
-0.488465
-0.480311
-0.472162
-0.46402
-0.455891
-0.447783
-0.43971
-0.431689
-0.423739
-0.415896
-0.40825
-0.400825
-0.392992
-0.384369
-0.382512
-0.635229
-0.622208
-0.611933
-0.602617
-0.593404
-0.584345
-0.575433
-0.566625
-0.557896
-0.549231
-0.540618
-0.532048
-0.523512
-0.515001
-0.50651
-0.498033
-0.489566
-0.481106
-0.472656
-0.464217
-0.455797
-0.447408
-0.439067
-0.430793
-0.422624
-0.414656
-0.40692
-0.398745
-0.389722
-0.387969
-0.651659
-0.637955
-0.627124
-0.6173
-0.60759
-0.598053
-0.588683
-0.579437
-0.570289
-0.561223
-0.552225
-0.543286
-0.534393
-0.525539
-0.516713
-0.507908
-0.499119
-0.49034
-0.48157
-0.472809
-0.464061
-0.455336
-0.446649
-0.43802
-0.429487
-0.421155
-0.413058
-0.404486
-0.395005
-0.393302
-0.668557
-0.654152
-0.642748
-0.632401
-0.62218
-0.612152
-0.602312
-0.592617
-0.583039
-0.573562
-0.564171
-0.554854
-0.545598
-0.536392
-0.527225
-0.518086
-0.508967
-0.499861
-0.490762
-0.481666
-0.472574
-0.463493
-0.454435
-0.445416
-0.436476
-0.427725
-0.419204
-0.410165
-0.400144
-0.398418
-0.685902
-0.670776
-0.658785
-0.647899
-0.637154
-0.626622
-0.616302
-0.606148
-0.596132
-0.586235
-0.576443
-0.566741
-0.557116
-0.547553
-0.538039
-0.528561
-0.519109
-0.50967
-0.500235
-0.490794
-0.481345
-0.471888
-0.46243
-0.452984
-0.443586
-0.434351
-0.425325
-0.415722
-0.405049
-0.403187
-0.703672
-0.687807
-0.675211
-0.663774
-0.652492
-0.641446
-0.630636
-0.620013
-0.60955
-0.599228
-0.589028
-0.578936
-0.568937
-0.559013
-0.549149
-0.539331
-0.529542
-0.519769
-0.509994
-0.500204
-0.490388
-0.480539
-0.470657
-0.460745
-0.450832
-0.441034
-0.4314
-0.421102
-0.409613
-0.407451
-0.721847
-0.705219
-0.692001
-0.68
-0.66817
-0.656601
-0.645292
-0.634194
-0.623278
-0.612523
-0.601911
-0.591426
-0.581048
-0.570762
-0.560548
-0.55039
-0.540268
-0.530161
-0.52005
-0.509912
-0.499729
-0.489483
-0.479159
-0.468747
-0.45826
-0.447809
-0.437437
-0.426264
-0.413711
-0.410986
-0.740405
-0.722985
-0.709128
-0.69655
-0.684164
-0.672063
-0.660248
-0.648669
-0.637295
-0.626103
-0.615076
-0.604193
-0.593438
-0.582789
-0.572227
-0.561733
-0.551284
-0.540854
-0.530418
-0.519947
-0.50941
-0.498775
-0.488011
-0.477082
-0.465976
-0.454779
-0.443512
-0.431217
-0.417228
-0.413524
-0.759328
-0.741071
-0.726556
-0.713393
-0.700443
-0.687805
-0.67548
-0.663415
-0.651578
-0.639947
-0.628501
-0.617221
-0.606087
-0.595078
-0.584173
-0.573352
-0.562587
-0.551852
-0.541115
-0.53034
-0.519485
-0.508503
-0.497336
-0.485919
-0.474195
-0.462203
-0.449917
-0.436247
-0.420318
-0.414954
-0.778634
-0.75945
-0.744247
-0.730493
-0.716975
-0.703798
-0.69096
-0.678407
-0.666105
-0.654032
-0.642166
-0.630488
-0.618975
-0.60761
-0.596369
-0.585231
-0.574169
-0.563155
-0.552154
-0.541125
-0.530016
-0.518765
-0.50729
-0.495482
-0.483223
-0.470476
-0.457134
-0.441842
-0.423091
-0.414516
-0.798367
-0.778078
-0.762148
-0.747804
-0.733726
-0.720012
-0.706662
-0.69362
-0.680852
-0.668335
-0.656048
-0.64397
-0.632081
-0.620362
-0.608792
-0.59735
-0.586012
-0.574751
-0.563534
-0.55232
-0.541057
-0.52967
-0.518053
-0.506047
-0.493435
-0.480033
-0.465477
-0.447662
-0.423378
-0.407389
-0.818028
-0.796742
-0.78017
-0.765275
-0.750655
-0.736412
-0.722553
-0.709022
-0.695787
-0.682824
-0.670113
-0.657635
-0.645369
-0.633297
-0.621403
-0.609668
-0.598074
-0.5866
-0.575223
-0.563915
-0.55264
-0.541341
-0.52993
-0.518256
-0.506078
-0.493083
-0.478513
-0.45923
-0.429879
-0.404498
-1.20484
-1.20794
-1.20903
-1.20856
-1.20653
-1.20298
-1.19796
-1.19153
-1.18376
-1.1747
-1.16444
-1.15305
-1.1406
-1.12716
-1.11281
-1.09763
-1.08168
-1.06505
-1.04779
-1.03
-1.01172
-0.993032
-0.973996
-0.954673
-0.935121
-0.915392
-0.895536
-0.875568
-0.855478
-0.835719
-1.17229
-1.17526
-1.17638
-1.1759
-1.17386
-1.17033
-1.16536
-1.15903
-1.1514
-1.14253
-1.13251
-1.12139
-1.10926
-1.09618
-1.08223
-1.06748
-1.05201
-1.03588
-1.01916
-1.00193
-0.984246
-0.966177
-0.947785
-0.929131
-0.910274
-0.891273
-0.872184
-0.853061
-0.833959
-0.81508
-1.14493
-1.14782
-1.14898
-1.14855
-1.14658
-1.14315
-1.13831
-1.13214
-1.12469
-1.11605
-1.10629
-1.09547
-1.08365
-1.07092
-1.05735
-1.043
-1.02794
-1.01226
-0.996008
-0.979264
-0.962089
-0.944548
-0.926702
-0.908612
-0.890337
-0.871934
-0.853463
-0.834981
-0.816553
-0.798269
-1.1186
-1.12152
-1.12277
-1.12247
-1.12067
-1.11743
-1.1128
-1.10685
-1.09966
-1.09131
-1.08185
-1.07136
-1.05991
-1.04755
-1.03436
-1.02042
-1.0058
-0.990559
-0.974771
-0.958504
-0.941821
-0.924786
-0.907458
-0.889899
-0.872165
-0.854315
-0.836405
-0.81849
-0.800627
-0.782879
-1.09142
-1.09447
-1.09591
-1.09583
-1.09427
-1.09129
-1.08695
-1.08131
-1.07445
-1.06645
-1.05736
-1.04726
-1.0362
-1.02426
-1.01151
-0.998015
-0.983849
-0.96908
-0.953776
-0.938003
-0.921825
-0.905304
-0.8885
-0.871471
-0.854277
-0.836973
-0.819614
-0.802252
-0.784938
-0.767724
-1.0637
-1.06697
-1.06867
-1.06888
-1.06764
-1.065
-1.06102
-1.05576
-1.0493
-1.0417
-1.03304
-1.02337
-1.01276
-1.00128
-0.988996
-0.975981
-0.962302
-0.948027
-0.933224
-0.917958
-0.902292
-0.886288
-0.870007
-0.853505
-0.836842
-0.820071
-0.803247
-0.78642
-0.769638
-0.752949
-1.03558
-1.03915
-1.04119
-1.04175
-1.0409
-1.03866
-1.0351
-1.03028
-1.02427
-1.01714
-1.00895
-0.999757
-0.989636
-0.978651
-0.966871
-0.954364
-0.941197
-0.927436
-0.91315
-0.898401
-0.883254
-0.86777
-0.852009
-0.836029
-0.819886
-0.803635
-0.78733
-0.771021
-0.754753
-0.738573
-1.00714
-1.01107
-1.0135
-1.01448
-1.01406
-1.01228
-1.00919
-1.00486
-0.999344
-0.992719
-0.985042
-0.976374
-0.966779
-0.956326
-0.94508
-0.933108
-0.920475
-0.907248
-0.893493
-0.879273
-0.864652
-0.849691
-0.83445
-0.818986
-0.803356
-0.787614
-0.771814
-0.756006
-0.740234
-0.724546
-0.978501
-0.982832
-0.985684
-0.987117
-0.987168
-0.985884
-0.983308
-0.979498
-0.974523
-0.968444
-0.961319
-0.953207
-0.944172
-0.93428
-0.923595
-0.912182
-0.900105
-0.887429
-0.874219
-0.860539
-0.846452
-0.832018
-0.817296
-0.802345
-0.78722
-0.771976
-0.756668
-0.741345
-0.726051
-0.710836
-0.949771
-0.954528
-0.957835
-0.959746
-0.960299
-0.959534
-0.957496
-0.954241
-0.949833
-0.944331
-0.937787
-0.930259
-0.92181
-0.912504
-0.902403
-0.891569
-0.880066
-0.867957
-0.855307
-0.842178
-0.828631
-0.814728
-0.800526
-0.786084
-0.771457
-0.756701
-0.74187
-0.727017
-0.712184
-0.697422
-0.921077
-0.92627
-0.930044
-0.932449
-0.933519
-0.933291
-0.931809
-0.929128
-0.92531
-0.920405
-0.914462
-0.907539
-0.899696
-0.890994
-0.881495
-0.871259
-0.860346
-0.848819
-0.83674
-0.824171
-0.811172
-0.797803
-0.784121
-0.770184
-0.756048
-0.74177
-0.727404
-0.713003
-0.698611
-0.684282
-0.892541
-0.898166
-0.902409
-0.905312
-0.906906
-0.907222
-0.906305
-0.90421
-0.900991
-0.896693
-0.891363
-0.885058
-0.877835
-0.869753
-0.86087
-0.851245
-0.840936
-0.830004
-0.818507
-0.806507
-0.794061
-0.781229
-0.768067
-0.754632
-0.740981
-0.727169
-0.713253
-0.699286
-0.685316
-0.671398
-0.86428
-0.870327
-0.875029
-0.878423
-0.880535
-0.881394
-0.881043
-0.879533
-0.876913
-0.873225
-0.868514
-0.862833
-0.856238
-0.848785
-0.84053
-0.831526
-0.821832
-0.811503
-0.800598
-0.789174
-0.777287
-0.764995
-0.752352
-0.739416
-0.726242
-0.712886
-0.699403
-0.685852
-0.672282
-0.658752
-0.836402
-0.842852
-0.847996
-0.851865
-0.854481
-0.855872
-0.856077
-0.855143
-0.853116
-0.850034
-0.84594
-0.840884
-0.834921
-0.828101
-0.820478
-0.812104
-0.803031
-0.793314
-0.783008
-0.772166
-0.760842
-0.749093
-0.73697
-0.724529
-0.711824
-0.69891
-0.685845
-0.672688
-0.659495
-0.646327
-0.809004
-0.815831
-0.821391
-0.825712
-0.828812
-0.830715
-0.831459
-0.831086
-0.829638
-0.827152
-0.823668
-0.819233
-0.813898
-0.807712
-0.800723
-0.79298
-0.784534
-0.775434
-0.765731
-0.755477
-0.744722
-0.733518
-0.721915
-0.709965
-0.697721
-0.685237
-0.672571
-0.659787
-0.646944
-0.63411
-0.782167
-0.78934
-0.795288
-0.800031
-0.803587
-0.805978
-0.807236
-0.807403
-0.806517
-0.804611
-0.801725
-0.797902
-0.793188
-0.787629
-0.781272
-0.77416
-0.766341
-0.757861
-0.748767
-0.739106
-0.728923
-0.718267
-0.707185
-0.695723
-0.683932
-0.671865
-0.659581
-0.647145
-0.634623
-0.622088
-0.755957
-0.763444
-0.769745
-0.774878
-0.778858
-0.781706
-0.783452
-0.784134
-0.783787
-0.782443
-0.780137
-0.776911
-0.772807
-0.767867
-0.762133
-0.755649
-0.748456
-0.740597
-0.732114
-0.723049
-0.713444
-0.70334
-0.69278
-0.681806
-0.670463
-0.658802
-0.64688
-0.634765
-0.622526
-0.610249
-0.730428
-0.738192
-0.744811
-0.750299
-0.75467
-0.757942
-0.760146
-0.761316
-0.761482
-0.760676
-0.75893
-0.756282
-0.75277
-0.748435
-0.743315
-0.73745
-0.730879
-0.72364
-0.715769
-0.707305
-0.698282
-0.688737
-0.678704
-0.668219
-0.657322
-0.646057
-0.634478
-0.622652
-0.610655
-0.598584
-0.705619
-0.713625
-0.720526
-0.726333
-0.731058
-0.734722
-0.737352
-0.738979
-0.739631
-0.739336
-0.738125
-0.736032
-0.733093
-0.729345
-0.724825
-0.719569
-0.713613
-0.70699
-0.699733
-0.691873
-0.683438
-0.674459
-0.664961
-0.654973
-0.644523
-0.633648
-0.622394
-0.610823
-0.599016
-0.587087
-0.681562
-0.689774
-0.696921
-0.70301
-0.708056
-0.712077
-0.7151
-0.717151
-0.718257
-0.718444
-0.71774
-0.716177
-0.713788
-0.710607
-0.70667
-0.702011
-0.69666
-0.690649
-0.684003
-0.67675
-0.668912
-0.660509
-0.65156
-0.642079
-0.632085
-0.621599
-0.610654
-0.599301
-0.587627
-0.575756
-0.658277
-0.666661
-0.674018
-0.680356
-0.685687
-0.690032
-0.693413
-0.695855
-0.697383
-0.698019
-0.697792
-0.696729
-0.694864
-0.692228
-0.688855
-0.684776
-0.68002
-0.674612
-0.668577
-0.661935
-0.654702
-0.64689
-0.638507
-0.629554
-0.620032
-0.609942
-0.599295
-0.588127
-0.576515
-0.564594
-0.635777
-0.644299
-0.651833
-0.658386
-0.663969
-0.668604
-0.672309
-0.675107
-0.677021
-0.678074
-0.678291
-0.6777
-0.676331
-0.674216
-0.671385
-0.667869
-0.663692
-0.658879
-0.65345
-0.647422
-0.640805
-0.633602
-0.625808
-0.61741
-0.608387
-0.598714
-0.588369
-0.577355
-0.565728
-0.553614
-0.614067
-0.622697
-0.630376
-0.637111
-0.642913
-0.647805
-0.6518
-0.654919
-0.657184
-0.658619
-0.659248
-0.659097
-0.658196
-0.656574
-0.654262
-0.651287
-0.647673
-0.643444
-0.638618
-0.633207
-0.627217
-0.620642
-0.613467
-0.605661
-0.597179
-0.587962
-0.577942
-0.567064
-0.555337
-0.542843
-0.593148
-0.601856
-0.609651
-0.616536
-0.622528
-0.627642
-0.631892
-0.635298
-0.63788
-0.639663
-0.64067
-0.640928
-0.640465
-0.639309
-0.63749
-0.635033
-0.631964
-0.628306
-0.624075
-0.619284
-0.613931
-0.608007
-0.601486
-0.594321
-0.58644
-0.577744
-0.5681
-0.557365
-0.545461
-0.532339
-0.573012
-0.581773
-0.589655
-0.596664
-0.602813
-0.608119
-0.612591
-0.616248
-0.619113
-0.621211
-0.622563
-0.623197
-0.623141
-0.622421
-0.621067
-0.619104
-0.61656
-0.613458
-0.609815
-0.605641
-0.600937
-0.595687
-0.58986
-0.583395
-0.576196
-0.568118
-0.558951
-0.548417
-0.536292
-0.522233
-0.55365
-0.562437
-0.57038
-0.577482
-0.583759
-0.589224
-0.593882
-0.597756
-0.600869
-0.603245
-0.604908
-0.605884
-0.6062
-0.605883
-0.604963
-0.603466
-0.601422
-0.598855
-0.595786
-0.592225
-0.588173
-0.583619
-0.578526
-0.572829
-0.566411
-0.559089
-0.55056
-0.54037
-0.528087
-0.512799
-0.535052
-0.543842
-0.551818
-0.558987
-0.565363
-0.570952
-0.575763
-0.579819
-0.583144
-0.585763
-0.587699
-0.588978
-0.589628
-0.589677
-0.589153
-0.588087
-0.586511
-0.584451
-0.58193
-0.578963
-0.575558
-0.571707
-0.56738
-0.562512
-0.556985
-0.550587
-0.54293
-0.533345
-0.521134
-0.504374
-0.517204
-0.526
-0.534012
-0.541245
-0.547713
-0.553421
-0.558377
-0.562606
-0.566134
-0.568983
-0.571178
-0.572746
-0.573714
-0.574111
-0.573969
-0.57332
-0.572198
-0.570633
-0.568651
-0.566275
-0.56352
-0.560387
-0.55686
-0.552889
-0.548371
-0.543104
-0.53665
-0.528118
-0.516399
-0.497335
-0.500069
-0.508897
-0.51697
-0.524294
-0.530881
-0.536733
-0.541863
-0.546297
-0.55006
-0.553175
-0.555668
-0.557566
-0.558897
-0.559694
-0.55999
-0.559821
-0.559221
-0.558225
-0.556865
-0.555172
-0.553169
-0.550871
-0.548278
-0.545368
-0.542084
-0.538293
-0.533639
-0.527163
-0.517262
-0.494633
-0.483543
-0.492165
-0.500063
-0.507245
-0.51372
-0.519493
-0.524578
-0.529004
-0.532794
-0.535972
-0.538566
-0.540605
-0.542121
-0.543148
-0.543725
-0.54389
-0.543684
-0.543149
-0.542327
-0.54126
-0.539987
-0.538545
-0.536964
-0.535272
-0.533494
-0.531669
-0.529722
-0.527121
-0.523722
-0.506932
-0.302438
-0.35099
-0.398534
-0.445672
-0.492222
-0.538019
-0.582947
-0.6269
-0.669771
-0.711462
-0.75188
-0.790938
-0.828554
-0.864652
-0.899164
-0.932024
-0.963173
-0.99256
-1.02014
-1.04587
-1.06972
-1.09167
-1.11171
-1.12982
-1.14599
-1.16024
-1.17257
-1.18295
-1.1914
-1.19825
-0.297402
-0.344861
-0.391518
-0.43761
-0.483024
-0.527647
-0.571384
-0.614141
-0.655821
-0.696333
-0.735588
-0.773501
-0.809996
-0.845001
-0.878447
-0.910274
-0.940426
-0.968852
-0.995509
-1.02036
-1.04338
-1.06454
-1.08384
-1.10126
-1.11682
-1.1305
-1.14232
-1.15231
-1.16048
-1.16699
-0.288763
-0.33523
-0.381045
-0.426266
-0.470794
-0.514531
-0.557389
-0.599276
-0.6401
-0.679772
-0.718207
-0.755324
-0.791047
-0.825305
-0.858033
-0.889172
-0.918667
-0.946468
-0.972534
-0.99683
-1.01933
-1.04001
-1.05887
-1.07589
-1.09109
-1.10445
-1.116
-1.12576
-1.13375
-1.14006
-0.276616
-0.322153
-0.367125
-0.411525
-0.45525
-0.498206
-0.540302
-0.581449
-0.621557
-0.660538
-0.698309
-0.734791
-0.769908
-0.803591
-0.835777
-0.866406
-0.895425
-0.922784
-0.948444
-0.97237
-0.994535
-1.01492
-1.03352
-1.05032
-1.06532
-1.07853
-1.08995
-1.09962
-1.10755
-1.11381
-0.261614
-0.306212
-0.350312
-0.393873
-0.436791
-0.478969
-0.520318
-0.560749
-0.600173
-0.638504
-0.675659
-0.71156
-0.746134
-0.779312
-0.811029
-0.841229
-0.869857
-0.896865
-0.922214
-0.945869
-0.967805
-0.988
-1.00644
-1.02312
-1.03804
-1.0512
-1.06261
-1.0723
-1.08027
-1.08657
-0.244492
-0.288139
-0.331345
-0.37405
-0.416148
-0.457545
-0.498151
-0.537876
-0.576634
-0.614338
-0.650909
-0.686269
-0.720343
-0.753065
-0.78437
-0.814202
-0.842505
-0.869234
-0.894348
-0.917812
-0.939599
-0.959689
-0.978064
-0.994715
-1.00964
-1.02284
-1.03433
-1.04412
-1.05222
-1.05869
-0.225939
-0.268618
-0.310907
-0.352733
-0.393993
-0.434594
-0.474447
-0.513463
-0.551557
-0.588644
-0.624644
-0.65948
-0.69308
-0.725375
-0.756303
-0.785805
-0.813827
-0.840324
-0.865254
-0.888583
-0.910281
-0.930324
-0.948696
-0.965382
-0.980379
-0.99369
-1.00533
-1.0153
-1.02362
-1.03032
-0.206562
-0.248251
-0.289595
-0.330515
-0.370913
-0.410697
-0.449779
-0.488071
-0.52549
-0.561952
-0.597379
-0.631693
-0.664824
-0.696702
-0.727264
-0.756454
-0.784216
-0.810506
-0.83528
-0.858503
-0.880144
-0.900177
-0.918583
-0.935347
-0.950464
-0.963936
-0.975771
-0.98598
-0.994567
-1.00157
-0.18687
-0.227546
-0.267919
-0.307909
-0.34742
-0.386362
-0.424649
-0.462198
-0.498923
-0.534745
-0.569585
-0.603367
-0.63602
-0.667476
-0.697671
-0.726549
-0.754055
-0.780143
-0.804769
-0.827898
-0.849495
-0.869534
-0.887993
-0.904857
-0.920121
-0.933783
-0.945849
-0.956327
-0.965222
-0.972567
-0.16727
-0.206914
-0.246297
-0.285334
-0.323934
-0.362012
-0.399483
-0.436265
-0.472277
-0.507438
-0.541673
-0.574905
-0.607065
-0.638084
-0.6679
-0.696455
-0.723696
-0.749574
-0.774047
-0.797077
-0.818628
-0.838673
-0.857189
-0.874161
-0.889582
-0.903448
-0.915759
-0.926523
-0.935746
-0.943454
-0.148077
-0.186678
-0.225053
-0.263121
-0.300793
-0.337988
-0.374624
-0.41062
-0.445898
-0.480378
-0.513986
-0.546649
-0.578295
-0.608858
-0.638276
-0.666491
-0.693448
-0.719101
-0.743405
-0.76632
-0.787812
-0.807852
-0.826416
-0.843491
-0.859064
-0.873132
-0.88569
-0.896742
-0.906295
-0.914371
-0.129522
-0.167074
-0.204435
-0.241523
-0.278255
-0.314554
-0.350339
-0.385534
-0.42006
-0.453841
-0.486804
-0.518876
-0.549988
-0.580074
-0.609072
-0.636924
-0.663577
-0.688982
-0.713094
-0.735874
-0.757286
-0.7773
-0.795894
-0.813052
-0.828763
-0.843018
-0.85581
-0.867141
-0.877015
-0.88545
-0.11177
-0.148274
-0.184617
-0.220721
-0.256509
-0.291904
-0.32683
-0.361213
-0.394975
-0.428042
-0.460343
-0.491807
-0.522365
-0.551953
-0.580509
-0.607975
-0.634299
-0.65943
-0.683325
-0.705944
-0.72725
-0.747213
-0.765811
-0.783028
-0.79885
-0.813267
-0.826273
-0.837863
-0.84804
-0.856817
-0.0949262
-0.130388
-0.165718
-0.200841
-0.235684
-0.270175
-0.30424
-0.337804
-0.370795
-0.40314
-0.434767
-0.465607
-0.495594
-0.524664
-0.552756
-0.579813
-0.605783
-0.630616
-0.654266
-0.676695
-0.697867
-0.717752
-0.736326
-0.75357
-0.769473
-0.784023
-0.797212
-0.809035
-0.819491
-0.828587
-0.0790502
-0.113482
-0.147808
-0.181958
-0.215863
-0.249454
-0.28266
-0.315408
-0.347626
-0.379241
-0.410186
-0.440391
-0.469793
-0.498328
-0.525937
-0.552564
-0.578156
-0.602664
-0.626043
-0.648255
-0.669264
-0.689041
-0.707561
-0.724803
-0.740754
-0.755404
-0.768745
-0.780769
-0.791472
-0.800862
-0.0641677
-0.0975843
-0.13092
-0.164109
-0.197088
-0.22979
-0.262145
-0.294081
-0.325528
-0.356414
-0.386673
-0.416237
-0.445043
-0.47303
-0.50014
-0.526317
-0.551509
-0.575669
-0.598751
-0.620717
-0.641536
-0.661176
-0.679612
-0.696821
-0.71279
-0.727507
-0.740966
-0.753157
-0.764076
-0.773727
-0.0502783
-0.0826967
-0.115058
-0.147303
-0.179371
-0.211198
-0.242714
-0.273848
-0.304531
-0.334693
-0.364267
-0.393187
-0.421392
-0.448822
-0.475419
-0.501131
-0.525906
-0.549696
-0.572458
-0.594154
-0.614754
-0.634229
-0.652552
-0.669698
-0.685653
-0.700407
-0.71395
-0.726274
-0.737374
-0.747252
-0.0373623
-0.0688002
-0.100206
-0.131525
-0.1627
-0.193669
-0.224362
-0.25471
-0.28464
-0.314086
-0.342981
-0.37126
-0.398863
-0.425731
-0.451808
-0.477041
-0.501384
-0.524788
-0.54721
-0.568613
-0.58897
-0.608252
-0.626433
-0.643487
-0.659399
-0.674157
-0.687753
-0.700176
-0.711421
-0.721492
-0.0253866
-0.0558604
-0.0863287
-0.116743
-0.147047
-0.177179
-0.207069
-0.236646
-0.26584
-0.294582
-0.322807
-0.350451
-0.377454
-0.40376
-0.429313
-0.454062
-0.477961
-0.500965
-0.523031
-0.544124
-0.564216
-0.583281
-0.601293
-0.618226
-0.634064
-0.648797
-0.662413
-0.674903
-0.68626
-0.696488
-0.0143088
-0.043832
-0.0733818
-0.102912
-0.132369
-0.161687
-0.190797
-0.219624
-0.248099
-0.276154
-0.303722
-0.330741
-0.357151
-0.382898
-0.407927
-0.432188
-0.455636
-0.478231
-0.499929
-0.520697
-0.540506
-0.559333
-0.577151
-0.593937
-0.609675
-0.624352
-0.637957
-0.650481
-0.661919
-0.67227
-0.00408024
-0.0326615
-0.0613113
-0.089982
-0.118617
-0.147147
-0.175501
-0.203601
-0.231378
-0.258764
-0.285691
-0.312098
-0.337925
-0.36312
-0.387628
-0.411401
-0.434396
-0.456574
-0.477895
-0.498324
-0.517838
-0.536409
-0.554014
-0.57063
-0.58624
-0.600834
-0.6144
-0.626929
-0.638414
-0.648857
0.00535396
-0.0222892
-0.0500576
-0.0778935
-0.105734
-0.133505
-0.161129
-0.188528
-0.21563
-0.242367
-0.268672
-0.294482
-0.31974
-0.344392
-0.368386
-0.391674
-0.414216
-0.435974
-0.45691
-0.476992
-0.496197
-0.514499
-0.531873
-0.548298
-0.563759
-0.578245
-0.591746
-0.604252
-0.615757
-0.62626
0.014049
-0.0126483
-0.0395559
-0.0665842
-0.0936599
-0.120702
-0.147625
-0.17435
-0.200802
-0.226912
-0.252616
-0.277849
-0.302551
-0.326672
-0.350161
-0.372971
-0.395063
-0.416401
-0.436948
-0.456676
-0.475562
-0.493581
-0.510711
-0.526929
-0.542222
-0.55658
-0.569992
-0.58245
-0.593947
-0.604482
0.0220687
-0.00366058
-0.029733
-0.055984
-0.0823286
-0.108674
-0.134928
-0.161007
-0.186836
-0.212344
-0.237469
-0.262143
-0.286308
-0.309913
-0.332907
-0.355247
-0.376895
-0.397815
-0.417973
-0.437343
-0.455903
-0.473631
-0.490504
-0.506501
-0.521611
-0.535822
-0.549127
-0.561515
-0.572981
-0.583522
0.0294846
0.00475403
-0.0205172
-0.0460304
-0.0716812
-0.097366
-0.122983
-0.148446
-0.17368
-0.198614
-0.223182
-0.247319
-0.270965
-0.294069
-0.316581
-0.33846
-0.35967
-0.380177
-0.399947
-0.418958
-0.437189
-0.45462
-0.471227
-0.486992
-0.501905
-0.515955
-0.529135
-0.541434
-0.552847
-0.563371
0.0363873
0.0126436
-0.0119032
-0.0367206
-0.0617188
-0.0867787
-0.11179
-0.136666
-0.161331
-0.185715
-0.209749
-0.233369
-0.256514
-0.279131
-0.301172
-0.322598
-0.343376
-0.363472
-0.382856
-0.401507
-0.419405
-0.436531
-0.452864
-0.468388
-0.483092
-0.496967
-0.510005
-0.522196
-0.533534
-0.544018
0.0428982
0.0200885
-0.00384966
-0.0280275
-0.0524109
-0.0768776
-0.101308
-0.125622
-0.149741
-0.173597
-0.197119
-0.220239
-0.242899
-0.265043
-0.286625
-0.307607
-0.327959
-0.347649
-0.36665
-0.384941
-0.402505
-0.419325
-0.43538
-0.450655
-0.465141
-0.47883
-0.491712
-0.50378
-0.515026
-0.52545
0.0494328
0.0278473
0.00438603
-0.0192461
-0.0430845
-0.0670124
-0.09091
-0.114705
-0.138325
-0.161697
-0.184749
-0.207411
-0.229625
-0.251334
-0.272491
-0.293064
-0.313023
-0.332338
-0.350984
-0.368943
-0.386199
-0.402737
-0.418537
-0.433587
-0.447875
-0.461394
-0.474135
-0.486091
-0.497255
-0.507626
0.0571931
0.037257
0.0139883
-0.00934456
-0.0328335
-0.0563638
-0.0798482
-0.103238
-0.126468
-0.149463
-0.172142
-0.194436
-0.216284
-0.237629
-0.258429
-0.278653
-0.298274
-0.317266
-0.335607
-0.35328
-0.370274
-0.386571
-0.402157
-0.417017
-0.431142
-0.444525
-0.457157
-0.469031
-0.480142
-0.490488
0.0649786
0.0431503
0.0189337
-0.00436091
-0.0276311
-0.050796
-0.0738227
-0.096732
-0.119482
-0.141997
-0.164197
-0.186006
-0.207361
-0.228205
-0.248497
-0.268209
-0.287316
-0.305798
-0.323635
-0.340815
-0.357329
-0.373163
-0.388305
-0.402743
-0.416468
-0.429473
-0.441754
-0.453304
-0.464119
-0.474199
0.544455
0.551881
0.559493
0.567264
0.575198
0.583291
0.591535
0.599923
0.608443
0.617083
0.625828
0.634662
0.643566
0.652518
0.661494
0.670468
0.679417
0.688321
0.697166
0.70595
0.714689
0.723422
0.732221
0.741196
0.750524
0.760466
0.77129
0.7832
0.797938
0.818572
0.538827
0.546062
0.553561
0.561207
0.569
0.576944
0.585033
0.593256
0.601602
0.610057
0.618607
0.627232
0.635913
0.644626
0.653344
0.662042
0.670692
0.679275
0.687775
0.696186
0.704523
0.712828
0.72117
0.729669
0.738507
0.747962
0.758313
0.769796
0.784214
0.804786
0.53233
0.539323
0.546684
0.554178
0.561799
0.569562
0.577461
0.585485
0.59362
0.601854
0.610168
0.618544
0.626959
0.635387
0.643801
0.652172
0.660474
0.668683
0.676784
0.68477
0.692653
0.700473
0.708307
0.716277
0.724581
0.733506
0.743355
0.754393
0.768502
0.789018
0.524973
0.531673
0.538873
0.546189
0.553608
0.561157
0.568833
0.576623
0.584511
0.592485
0.600525
0.60861
0.616715
0.624813
0.632875
0.640871
0.648773
0.656557
0.664207
0.671714
0.67909
0.686376
0.69365
0.701045
0.708767
0.717122
0.726429
0.736987
0.750719
0.771024
0.516763
0.523124
0.530138
0.537249
0.544436
0.55174
0.559161
0.566681
0.574288
0.581963
0.589689
0.597441
0.605193
0.612914
0.620576
0.628148
0.635601
0.642909
0.650055
0.657031
0.663848
0.670548
0.677212
0.683984
0.69108
0.69882
0.707547
0.717583
0.730885
0.750876
0.50771
0.513684
0.520487
0.527369
0.534293
0.541322
0.548454
0.555673
0.562961
0.570302
0.577673
0.58505
0.592404
0.599704
0.60692
0.614021
0.620976
0.627758
0.634348
0.64074
0.646945
0.653007
0.659013
0.665115
0.67154
0.678624
0.686729
0.696205
0.709032
0.728638
0.497823
0.503363
0.509933
0.516558
0.523192
0.529914
0.536727
0.543611
0.550546
0.557514
0.564492
0.571453
0.578366
0.585202
0.591928
0.598512
0.604922
0.611127
0.617111
0.622864
0.628406
0.633778
0.639079
0.644466
0.650178
0.656564
0.664006
0.672886
0.685195
0.704353
0.487112
0.492173
0.498486
0.50483
0.511145
0.517531
0.523994
0.530509
0.537057
0.543617
0.550163
0.556668
0.563101
0.569431
0.575624
0.581646
0.587463
0.593044
0.598369
0.603435
0.608259
0.612895
0.617446
0.622074
0.627029
0.632676
0.639419
0.647664
0.659414
0.67807
0.47559
0.480128
0.486162
0.4922
0.498167
0.504189
0.510271
0.516387
0.522514
0.528629
0.534708
0.54072
0.546635
0.552418
0.558035
0.56345
0.568626
0.573534
0.578154
0.582483
0.586544
0.5904
0.594154
0.59798
0.602138
0.607006
0.613011
0.620588
0.63174
0.649841
0.463273
0.467247
0.47298
0.478687
0.48428
0.489907
0.495579
0.501264
0.506937
0.512576
0.518152
0.523636
0.528994
0.534191
0.539189
0.543952
0.548444
0.552635
0.556506
0.560053
0.563309
0.566338
0.569254
0.572234
0.575552
0.579603
0.584836
0.59171
0.602228
0.619724
0.450178
0.45355
0.458962
0.464315
0.469506
0.474711
0.479943
0.485167