/*--------------------------------*- C++ -*----------------------------------*\
  =========                 |
  \\      /  F ield         | OpenFOAM: The Open Source CFD Toolbox
   \\    /   O peration     | Website:  https://openfoam.org
    \\  /    A nd           | Version:  6.0
     \\/     M anipulation  |
\*---------------------------------------------------------------------------*/
FoamFile
{
    version     2.0;
    format      ascii;
    class       surfaceScalarField;
    location    "10";
    object      phi;
}
// * * * * * * * * * * * * * * * * * * * * * * * * * * * * * * * * * * * * * //

dimensions      [0 3 -1 0 0 0 0];

internalField   nonuniform List<scalar> 
38030
(
4.27044e-05
-0.283115
0.283072
0.000261083
-0.271066
0.270848
0.000602566
-0.261349
0.261008
0.00102443
-0.253085
0.252663
0.00149646
-0.245749
0.245277
0.0019949
-0.238957
0.238459
0.00250201
-0.232476
0.231969
0.00300561
-0.226181
0.225677
0.00349793
-0.220012
0.21952
0.00397456
-0.21395
0.213473
0.00443353
-0.207995
0.207536
0.00487454
-0.202159
0.201718
0.00529841
-0.196458
0.196034
0.00570656
-0.190905
0.190497
0.00610073
-0.185513
0.185118
0.00648274
-0.180289
0.179907
0.00685434
-0.175238
0.174867
0.00721717
-0.170364
0.170001
0.00757269
-0.165664
0.165309
0.00792226
-0.161138
0.160789
0.0082671
-0.156782
0.156437
0.00860844
-0.15259
0.152249
0.00894749
-0.148556
0.148217
0.00928548
-0.144673
0.144335
0.00962369
-0.140929
0.140591
0.00996331
-0.137315
0.136976
0.0103053
-0.133817
0.133475
0.0106502
-0.130419
0.130074
0.0109976
-0.127105
0.126757
-0.123856
0.123507
0.0113461
6.01429e-05
-0.283175
0.000281377
-0.271288
0.00062361
-0.261692
0.0010458
-0.253507
0.00151713
-0.24622
0.002014
-0.239454
0.00251885
-0.232981
0.00301957
-0.226682
0.00350851
-0.220501
0.00398141
-0.214423
0.00443643
-0.20845
0.00487341
-0.202596
0.00529325
-0.196878
0.00569747
-0.191309
0.00608786
-0.185903
0.00646626
-0.180667
0.00683446
-0.175606
0.00719408
-0.170723
0.00754657
-0.166017
0.00789325
-0.161485
0.00823534
-0.157124
0.00857401
-0.152929
0.00891047
-0.148893
0.00924596
-0.145008
0.00958178
-0.141265
0.0099192
-0.137653
0.0102593
-0.134157
0.0106028
-0.130763
0.0109494
-0.127452
-0.124204
0.011298
7.58845e-05
-0.283251
0.000300388
-0.271512
0.000642529
-0.262034
0.0010647
-0.253929
0.00153545
-0.246691
0.00203081
-0.239949
0.00253329
-0.233483
0.00303094
-0.227179
0.00351627
-0.220986
0.00398516
-0.214891
0.00443596
-0.208901
0.00486862
-0.203029
0.00528418
-0.197293
0.00568421
-0.191709
0.00607056
-0.186289
0.00644513
-0.181042
0.0068097
-0.175971
0.00716588
-0.171079
0.00751513
-0.166366
0.00785873
-0.161829
0.00819787
-0.157463
0.00853369
-0.153265
0.00886736
-0.149226
0.00920015
-0.145341
0.00953337
-0.141598
0.00986836
-0.137988
0.0102063
-0.134495
0.0105481
-0.131105
0.0108937
-0.127797
-0.124553
0.0112422
8.20534e-05
-0.283333
0.000312457
-0.271742
0.000657327
-0.262379
0.00108054
-0.254352
0.00155107
-0.247161
0.00204501
-0.240443
0.00254505
-0.233983
0.00303945
-0.227674
0.00352093
-0.221468
0.00398558
-0.215356
0.0044319
-0.209347
0.00486
-0.203457
0.00527101
-0.197704
0.00566662
-0.192105
0.00604872
-0.186671
0.00641923
-0.181412
0.00677995
-0.176332
0.00713251
-0.171432
0.00747832
-0.166712
0.00781866
-0.162169
0.00815466
-0.157799
0.00848744
-0.153598
0.00881815
-0.149557
0.00914804
-0.145671
0.00947847
-0.141929
0.00981083
-0.13832
0.0101465
-0.134831
0.0104863
-0.131444
0.0108307
-0.128141
-0.124901
0.0111789
8.67605e-05
-0.28342
0.000322009
-0.271978
0.00066969
-0.262726
0.001094
-0.254776
0.00156427
-0.247632
0.00205671
-0.240936
0.00255416
-0.234481
0.00304511
-0.228165
0.00352251
-0.221945
0.00398265
-0.215816
0.00442424
-0.209788
0.00484752
-0.20388
0.00525375
-0.198111
0.00564468
-0.192496
0.00602229
-0.187049
0.00638852
-0.181778
0.00674519
-0.176688
0.00709391
-0.171781
0.0074361
-0.167054
0.00777298
-0.162506
0.00810566
-0.158132
0.00843523
-0.153927
0.00876281
-0.149885
0.00908963
-0.145998
0.00941708
-0.142256
0.00974661
-0.13865
0.0100797
-0.135164
0.0104174
-0.131782
0.0107604
-0.128484
-0.125249
0.0111081
8.98651e-05
-0.28351
0.000329126
-0.272217
0.000679628
-0.263077
0.00110514
-0.255202
0.00157511
-0.248102
0.00206591
-0.241426
0.00256058
-0.234976
0.00304785
-0.228652
0.00352092
-0.222418
0.00397631
-0.216272
0.0044129
-0.210225
0.00483111
-0.204298
0.0052323
-0.198512
0.00561833
-0.192882
0.00599121
-0.187422
0.00635294
-0.18214
0.00670534
-0.177041
0.00705003
-0.172125
0.0073884
-0.167392
0.00772164
-0.162839
0.00805084
-0.158461
0.00837703
-0.154253
0.0087013
-0.150209
0.00902487
-0.146321
0.00934916
-0.142581
0.00967569
-0.138976
0.010006
-0.135494
0.0103415
-0.132118
0.0106828
-0.128826
-0.125596
0.0110298
9.23775e-05
-0.283602
0.000334925
-0.272459
0.000687841
-0.26343
0.00111434
-0.255628
0.0015838
-0.248571
0.00207272
-0.241915
0.00256437
-0.235467
0.0030477
-0.229135
0.00351617
-0.222887
0.00396654
-0.216722
0.00439787
-0.210656
0.00481075
-0.204711
0.00520665
-0.198908
0.00558752
-0.193263
0.00595544
-0.18779
0.00631244
-0.182497
0.00666036
-0.177389
0.0070008
-0.172466
0.00733516
-0.167727
0.00766458
-0.163169
0.00799011
-0.158787
0.00831275
-0.154576
0.00863355
-0.15053
0.00895372
-0.146641
0.00927467
-0.142902
0.00959801
-0.1393
0.00992541
-0.135822
0.0102584
-0.132451
0.0105979
-0.129165
-0.125942
0.0109441
9.43961e-05
-0.283696
0.000339661
-0.272705
0.000694583
-0.263785
0.00112177
-0.256056
0.00159046
-0.24904
0.00207723
-0.242402
0.00256557
-0.235955
0.00304468
-0.229614
0.00350827
-0.22335
0.00395334
-0.217167
0.00437913
-0.211082
0.0047864
-0.205119
0.00517675
-0.199298
0.00555221
-0.193638
0.00591493
-0.188153
0.00626696
-0.182849
0.00661017
-0.177732
0.00694616
-0.172802
0.0072763
-0.168057
0.00760171
-0.163494
0.0079234
-0.159108
0.00824232
-0.154895
0.00855948
-0.150847
0.00887607
-0.146958
0.00919352
-0.143219
0.00951349
-0.13962
0.00983778
-0.136146
0.0101681
-0.132781
0.0105056
-0.129503
-0.126287
0.0108508
9.61002e-05
-0.283793
0.000343614
-0.272952
0.000700128
-0.264141
0.00112765
-0.256483
0.00159524
-0.249507
0.00207956
-0.242886
0.00256426
-0.23644
0.00303884
-0.230089
0.00349725
-0.223809
0.00393671
-0.217607
0.00435668
-0.211502
0.00475806
-0.20552
0.00514259
-0.199683
0.00551238
-0.194008
0.00586963
-0.18851
0.00621646
-0.183196
0.00655472
-0.17807
0.00688604
-0.173133
0.00721174
-0.168383
0.00753294
-0.163815
0.0078506
-0.159426
0.00816562
-0.15521
0.00847898
-0.15116
0.00879183
-0.147271
0.00910561
-0.143533
0.00942203
-0.139936
0.00974302
-0.136467
0.0100705
-0.133108
0.0104058
-0.129838
-0.126631
0.0107499
9.75374e-05
-0.28389
0.000346913
-0.273202
0.000704625
-0.264499
0.00113213
-0.256911
0.00159827
-0.249974
0.00207977
-0.243368
0.00256051
-0.236921
0.00303024
-0.230559
0.00348314
-0.224262
0.00391668
-0.21804
0.00433052
-0.211916
0.00472572
-0.205915
0.00510414
-0.200061
0.00546799
-0.194372
0.00581952
-0.188861
0.00616087
-0.183537
0.00649394
-0.178403
0.00682034
-0.173459
0.00714138
-0.168704
0.00745816
-0.164132
0.00777159
-0.15974
0.00808253
-0.155521
0.0083919
-0.15147
0.00870083
-0.14758
0.00901076
-0.143843
0.00932345
-0.140249
0.00964095
-0.136784
0.00996535
-0.133433
0.0102984
-0.130171
-0.126974
0.0106412
9.87542e-05
-0.283989
0.000349649
-0.273453
0.000708202
-0.264857
0.00113532
-0.257338
0.00159965
-0.250438
0.00207799
-0.243846
0.00255442
-0.237397
0.00301893
-0.231023
0.00346598
-0.224709
0.00389328
-0.218467
0.00430068
-0.212323
0.0046894
-0.206304
0.00506141
-0.200433
0.00541902
-0.19473
0.00576454
-0.189207
0.00610015
-0.183873
0.00642775
-0.178731
0.00674897
-0.173781
0.00706512
-0.16902
0.00737724
-0.164444
0.00768622
-0.160049
0.00799287
-0.155827
0.00829806
-0.151775
0.00860289
-0.147885
0.00890877
-0.144149
0.00921754
-0.140557
0.00953135
-0.137098
0.00985251
-0.133754
0.0101831
-0.130502
-0.127315
0.0105244
9.97738e-05
-0.284089
0.000351878
-0.273705
0.000710947
-0.265217
0.00113733
-0.257764
0.0015995
-0.2509
0.0020743
-0.244321
0.00254604
-0.237869
0.00300498
-0.231482
0.00344585
-0.22515
0.00386658
-0.218888
0.0042672
-0.212724
0.00464912
-0.206686
0.00501441
-0.200798
0.00536547
-0.195081
0.00570468
-0.189546
0.00603424
-0.184202
0.00635609
-0.179053
0.00667185
-0.174096
0.00698282
-0.169331
0.00729003
-0.164751
0.00759432
-0.160353
0.00789645
-0.15613
0.00819725
-0.152076
0.00849776
-0.148185
0.0087994
-0.14445
0.00910402
-0.140862
0.00941393
-0.137408
0.00973162
-0.134072
0.0100595
-0.13083
-0.127655
0.0103993
0.000100604
-0.284189
0.000353655
-0.273958
0.000712936
-0.265576
0.00113826
-0.25819
0.00159789
-0.25136
0.00206879
-0.244792
0.00253547
-0.238336
0.00298848
-0.231935
0.00342282
-0.225584
0.00383662
-0.219302
0.00423014
-0.213118
0.00460491
-0.207061
0.00496316
-0.201157
0.00530734
-0.195425
0.00563991
-0.189879
0.0059631
-0.184526
0.00627888
-0.179368
0.00658887
-0.174406
0.00689435
-0.169636
0.00719636
-0.165053
0.00749568
-0.160652
0.00779304
-0.156427
0.0080892
-0.152372
0.00838516
-0.148481
0.00868231
-0.144747
0.00898256
-0.141162
0.00928831
-0.137714
0.0096023
-0.134386
0.00992723
-0.131155
-0.127993
0.0102653
0.000101255
-0.28429
0.000355012
-0.274211
0.000714243
-0.265935
0.00113819
-0.258613
0.00159494
-0.251816
0.00206156
-0.245259
0.00252282
-0.238797
0.00296954
-0.232382
0.00339697
-0.226011
0.00380349
-0.219708
0.00418955
-0.213504
0.00455684
-0.207428
0.00490769
-0.201507
0.00524465
-0.195762
0.00557023
-0.190204
0.0058867
-0.184842
0.00619606
-0.179678
0.00649992
-0.17471
0.00679958
-0.169936
0.00709605
-0.16535
0.00739009
-0.160946
0.00768237
-0.156719
0.0079736
-0.152663
0.00826474
-0.148772
0.00855713
-0.14504
0.00885272
-0.141458
0.00915403
-0.138015
0.00946404
-0.134696
0.0097858
-0.131476
-0.128329
0.0101219
0.000101729
-0.284392
0.000355993
-0.274466
0.000714944
-0.266294
0.00113722
-0.259036
0.00159074
-0.25227
0.00205272
-0.245721
0.0025082
-0.239253
0.00294825
-0.232822
0.00336841
-0.226432
0.0037673
-0.220107
0.00414554
-0.213882
0.00450498
-0.207787
0.00484807
-0.20185
0.00517743
-0.196091
0.00549565
-0.190522
0.00580502
-0.185151
0.00610757
-0.17998
0.00640491
-0.175008
0.00669836
-0.170229
0.0069889
-0.16564
0.00727728
-0.161235
0.00756413
-0.157006
0.0078501
-0.152949
0.00813608
-0.149058
0.0084234
-0.145327
0.00871401
-0.141748
0.00901054
-0.138312
0.00931623
-0.135001
0.0096345
-0.131795
-0.128663
0.00996848
0.000102034
-0.284494
0.000356647
-0.27472
0.000715122
-0.266652
0.00113545
-0.259456
0.00158542
-0.25272
0.00204241
-0.246177
0.00249173
-0.239702
0.00292475
-0.233255
0.00333728
-0.226844
0.00372816
-0.220498
0.00409822
-0.214252
0.00444943
-0.208139
0.00478438
-0.202185
0.00510576
-0.196412
0.00541621
-0.190833
0.00571807
-0.185453
0.00601337
-0.180276
0.00630376
-0.175298
0.00659056
-0.170516
0.00687473
-0.165925
0.00715701
-0.161517
0.007438
-0.157287
0.00771831
-0.153229
0.00799874
-0.149339
0.0082806
-0.145609
0.00856582
-0.142034
0.00885717
-0.138603
0.00915811
-0.135302
0.0094725
-0.132109
-0.128995
0.009804
0.000102176
-0.284596
0.000357033
-0.274975
0.000714884
-0.26701
0.00113301
-0.259874
0.00157911
-0.253166
0.00203076
-0.246629
0.00247356
-0.240145
0.0028992
-0.233681
0.00330373
-0.227249
0.00368623
-0.220881
0.00404773
-0.214613
0.00439034
-0.208481
0.00471675
-0.202512
0.00502974
-0.196725
0.00533198
-0.191135
0.00562588
-0.185747
0.00591346
-0.180563
0.00619641
-0.175581
0.00647605
-0.170796
0.00675334
-0.166202
0.00702902
-0.161793
0.00730365
-0.157562
0.00757779
-0.153504
0.00785219
-0.149613
0.00812809
-0.145885
0.00840743
-0.142313
0.00869307
-0.138889
0.00898875
-0.135598
0.00929877
-0.132419
-0.129323
0.00962739
0.000102171
-0.284699
0.00035723
-0.27523
0.000714349
-0.267367
0.00113005
-0.26029
0.00157197
-0.253608
0.00201794
-0.247075
0.00245388
-0.240581
0.00287177
-0.234098
0.00326794
-0.227645
0.0036417
-0.221254
0.00399425
-0.214966
0.00432787
-0.208815
0.00464533
-0.202829
0.0049495
-0.19703
0.00524309
-0.191429
0.00552853
-0.186033
0.00580789
-0.180843
0.00608286
-0.175856
0.00635476
-0.171068
0.00662458
-0.166472
0.00689304
-0.162061
0.00716069
-0.157829
0.00742804
-0.153771
0.00769581
-0.149881
0.00796514
-0.146154
0.008238
-0.142586
0.00851731
-0.139168
0.00880708
-0.135888
0.0091121
-0.132724
-0.129649
0.00943732
0.000102055
-0.284801
0.000357356
-0.275486
0.000713682
-0.267724
0.00112674
-0.260703
0.00156419
-0.254045
0.00200415
-0.247515
0.00243289
-0.241009
0.00284268
-0.234508
0.00323013
-0.228032
0.00359478
-0.221619
0.00393801
-0.215309
0.00426226
-0.209139
0.00457036
-0.203137
0.00486526
-0.197325
0.00514973
-0.191713
0.00542621
-0.186309
0.00569678
-0.181113
0.00596316
-0.176122
0.00622666
-0.171331
0.00648831
-0.166733
0.00674882
-0.162322
0.00700875
-0.158089
0.00726857
-0.154031
0.00752895
-0.150141
0.00779098
-0.146416
0.00805659
-0.142851
0.00832878
-0.13944
0.00861181
-0.136171
0.00891101
-0.133023
-0.12997
0.00923211
0.000101879
-0.284903
0.000357558
-0.275741
0.000713074
-0.268079
0.00112329
-0.261113
0.00155597
-0.254478
0.00198961
-0.247949
0.00241081
-0.241431
0.00281217
-0.23491
0.00319056
-0.228411
0.00354574
-0.221974
0.00387928
-0.215643
0.00419375
-0.209454
0.00449209
-0.203436
0.00477729
-0.19761
0.00505215
-0.191988
0.00531912
-0.186576
0.0055803
-0.181374
0.0058374
-0.176379
0.00609178
-0.171586
0.00634447
-0.166986
0.0065962
-0.162573
0.00684752
-0.158341
0.00709891
-0.154282
0.00735097
-0.150393
0.00760476
-0.14667
0.00786214
-0.143109
0.00812618
-0.139704
0.00840139
-0.136446
0.00869367
-0.133315
-0.130286
0.00900965
0.000101744
-0.285004
0.000358048
-0.275998
0.000712767
-0.268434
0.00111994
-0.26152
0.00154757
-0.254906
0.00197457
-0.248376
0.00238791
-0.241844
0.00278051
-0.235302
0.00314949
-0.22878
0.00349487
-0.22232
0.00381838
-0.215966
0.00412269
-0.209758
0.00441088
-0.203724
0.00468595
-0.197885
0.00495069
-0.192253
0.00520758
-0.186833
0.00545873
-0.181625
0.00570586
-0.176627
0.00595032
-0.17183
0.00619316
-0.167229
0.00643514
-0.162815
0.00667681
-0.158582
0.00691865
-0.154524
0.00716123
-0.150636
0.00740556
-0.146914
0.00765346
-0.143357
0.00790803
-0.139959
0.00817402
-0.136712
0.00845791
-0.133599
-0.130595
0.00876744
0.000101812
-0.285106
0.000359108
-0.276255
0.000713069
-0.268788
0.001117
-0.261924
0.00153928
-0.255328
0.00195933
-0.248796
0.00236449
-0.242249
0.00274799
-0.235686
0.00310726
-0.229139
0.00344251
-0.222655
0.00375565
-0.216279
0.00404948
-0.210052
0.00432712
-0.204002
0.00459161
-0.198149
0.00484577
-0.192507
0.00509205
-0.187079
0.00533255
-0.181866
0.00556897
-0.176863
0.00580266
-0.172064
0.00603467
-0.167461
0.00626578
-0.163046
0.00649656
-0.158813
0.0067275
-0.154755
0.00695916
-0.150867
0.00719252
-0.147148
0.00742936
-0.143594
0.00767281
-0.140202
0.00792781
-0.136967
0.0082015
-0.133873
-0.130897
0.00850278
0.00010237
-0.285208
0.000361164
-0.276514
0.000714387
-0.269141
0.00111483
-0.262325
0.00153144
-0.255745
0.00194419
-0.249209
0.00234084
-0.242646
0.00271494
-0.23606
0.00306418
-0.229488
0.00338901
-0.22298
0.00369149
-0.216582
0.00397454
-0.210335
0.0042413
-0.204268
0.00449485
-0.198403
0.00473801
-0.19275
0.00497317
-0.187314
0.00520239
-0.182095
0.00542735
-0.177088
0.00564937
-0.172286
0.00586949
-0.167681
0.00608849
-0.163265
0.00630696
-0.159031
0.00652538
-0.154973
0.00674436
-0.151086
0.00696484
-0.147368
0.0071886
-0.143817
0.00741881
-0.140432
0.00766061
-0.137209
0.00792177
-0.134134
-0.131187
0.00821236
0.000103888
-0.285312
0.000364848
-0.276775
0.000717254
-0.269494
0.00111386
-0.262721
0.00152442
-0.256155
0.00192951
-0.249614
0.0023173
-0.243033
0.00268167
-0.236424
0.00302061
-0.229827
0.00333475
-0.223294
0.00362633
-0.216873
0.00389834
-0.210607
0.00415398
-0.204524
0.00439631
-0.198645
0.00462809
-0.192982
0.00485171
-0.187538
0.00506911
-0.182313
0.00528191
-0.177301
0.00549138
-0.172495
0.00569851
-0.167888
0.00590404
-0.163471
0.00610855
-0.159236
0.00631254
-0.155177
0.0065166
-0.15129
0.0067217
-0.147573
0.00692967
-0.144025
0.00714373
-0.140647
0.00736922
-0.137434
0.00761441
-0.134379
-0.131464
0.00789084
0.000107145
-0.285419
0.000371012
-0.277038
0.000722253
-0.269845
0.00111451
-0.263114
0.00151856
-0.256559
0.00191558
-0.250011
0.00229417
-0.243412
0.00264852
-0.236778
0.00297689
-0.230155
0.00328014
-0.223597
0.00356064
-0.217154
0.00382146
-0.210868
0.00406579
-0.204768
0.00429671
-0.198876
0.00451689
-0.193202
0.00472863
-0.18775
0.0049338
-0.182518
0.00513387
-0.177501
0.00533001
-0.172691
0.0055231
-0.168081
0.0057138
-0.163662
0.00590261
-0.159425
0.00608995
-0.155365
0.00627637
-0.151477
0.00646283
-0.14776
0.00665121
-0.144214
0.00684484
-0.14084
0.0070492
-0.137639
0.00727305
-0.134603
-0.131722
0.00753096
0.0001132
-0.285533
0.000380508
-0.277306
0.000729859
-0.270194
0.00111714
-0.263501
0.0015142
-0.256956
0.00190275
-0.250399
0.00227176
-0.243781
0.0026158
-0.237123
0.00293338
-0.230473
0.00322557
-0.223889
0.00349488
-0.217423
0.00374443
-0.211117
0.00397742
-0.205001
0.00419687
-0.199096
0.00440537
-0.193411
0.0046051
-0.18795
0.0047978
-0.18271
0.00498479
-0.177688
0.00516705
-0.172874
0.00534528
-0.168259
0.00551997
-0.163836
0.00569143
-0.159596
0.00585992
-0.155533
0.00602578
-0.151643
0.00618983
-0.147924
0.00635384
-0.144378
0.00652128
-0.141008
0.00669799
-0.137815
0.0068939
-0.134799
-0.131955
0.00712783
0.000123186
-0.285656
0.000394096
-0.277577
0.000740709
-0.270541
0.00112234
-0.263883
0.00151184
-0.257346
0.00189137
-0.250779
0.00225036
-0.24414
0.00258376
-0.237456
0.00289034
-0.23078
0.00317137
-0.22417
0.00342947
-0.217681
0.00366779
-0.211355
0.00388954
-0.205223
0.00409764
-0.199304
0.0042946
-0.193608
0.00448244
-0.188137
0.00466272
-0.182891
0.00483656
-0.177862
0.00500471
-0.173042
0.00516759
-0.168422
0.0053254
-0.163994
0.00547818
-0.159749
0.00562584
-0.155681
0.00576841
-0.151785
0.00590633
-0.148062
0.00604113
-0.144513
0.00617628
-0.141143
0.00631814
-0.137957
0.00647847
-0.13496
-0.132152
0.0066755
0.000138844
-0.285795
0.000414109
-0.277852
0.000756894
-0.270884
0.0011314
-0.264257
0.0015121
-0.257726
0.0018817
-0.251148
0.00223008
-0.244488
0.00255247
-0.237778
0.00284789
-0.231075
0.00311774
-0.22444
0.00336471
-0.217928
0.00359199
-0.211583
0.00380275
-0.205434
0.00399984
-0.199501
0.00418565
-0.193793
0.00436203
-0.188314
0.00453034
-0.183059
0.00469143
-0.178023
0.00484573
-0.173196
0.00499327
-0.16857
0.00513379
-0.164135
0.00526676
-0.159882
0.00539154
-0.155806
0.0055075
-0.151901
0.00561452
-0.148169
0.0057138
-0.144612
0.00580879
-0.141238
0.00590524
-0.138054
0.00601319
-0.135067
-0.13228
0.00614036
0.00016748
-0.285962
0.000447909
-0.278132
0.000782139
-0.271218
0.00114543
-0.26462
0.00151497
-0.258096
0.00187347
-0.251507
0.00221064
-0.244826
0.00252178
-0.238089
0.00280598
-0.231359
0.00306474
-0.224699
0.00330079
-0.218164
0.00351735
-0.211799
0.00371754
-0.205634
0.00390417
-0.199687
0.00407951
-0.193969
0.00424526
-0.188479
0.00440255
-0.183216
0.00455198
-0.178172
0.00469359
-0.173338
0.00482692
-0.168703
0.00495098
-0.164259
0.00506426
-0.159995
0.00516472
-0.155906
0.00525002
-0.151987
0.005318
-0.148237
0.00536779
-0.144662
0.00540095
-0.141271
0.00542163
-0.138074
0.00543947
-0.135085
-0.132308
0.00546816
0.000233046
-0.286195
0.000502045
-0.278401
0.000815426
-0.271531
0.00116252
-0.264967
0.00151906
-0.258453
0.00186583
-0.251854
0.00219163
-0.245151
0.00249152
-0.238389
0.00276461
-0.231632
0.00301249
-0.224947
0.00323794
-0.21839
0.00344421
-0.212005
0.00363441
-0.205824
0.0038113
-0.199864
0.00397707
-0.194134
0.00413333
-0.188636
0.00428109
-0.183364
0.00442072
-0.178312
0.00455203
-0.173469
0.00467415
-0.168825
0.00478546
-0.16437
0.00488339
-0.160093
0.00496408
-0.155987
0.0050221
-0.152045
0.00505013
-0.148265
0.0050387
-0.14465
0.00497643
-0.141209
0.00485342
-0.137951
0.00468303
-0.134915
-0.132298
0.00467316
0.288813
0.00016211
-0.288975
0.288688
0.000124296
0.28858
0.000108358
0.28848
0.000100062
0.288385
9.50635e-05
0.288293
9.23359e-05
0.288201
9.12073e-05
0.28811
9.10607e-05
0.288019
9.14327e-05
0.287927
9.2051e-05
0.287834
9.27497e-05
0.287741
9.34321e-05
0.287647
9.40499e-05
0.287552
9.45698e-05
0.287457
9.49801e-05
0.287362
9.52712e-05
0.287266
9.54427e-05
0.287171
9.54932e-05
0.287075
9.54118e-05
0.28698
9.51938e-05
0.286885
9.48156e-05
0.286791
9.42437e-05
0.286698
9.33958e-05
0.286606
9.21863e-05
0.286515
9.03094e-05
0.286428
8.76031e-05
0.286345
8.23093e-05
0.286271
7.47538e-05
0.28622
5.09745e-05
2.44425e-05
0.284295
0.00033292
-0.284466
0.284113
0.00030645
0.28393
0.000291745
0.283745
0.000284959
0.283558
0.000281679
0.28337
0.000280517
0.28318
0.000281048
0.282988
0.000282795
0.282794
0.000285278
0.282598
0.000288129
0.2824
0.000291126
0.282199
0.000294117
0.281996
0.000296992
0.281791
0.000299684
0.281584
0.000302141
0.281375
0.000304326
0.281164
0.000306218
0.280952
0.000307797
0.280738
0.000309036
0.280524
0.000309908
0.280308
0.00031036
0.280092
0.000310322
0.279876
0.000309643
0.27966
0.000308135
0.279445
0.000305316
0.279232
0.000300777
0.279021
0.000292562
0.278815
0.000280621
0.278609
0.000257247
0.000232311
0.278922
0.000490407
-0.27908
0.278745
0.00048341
0.278556
0.000480525
0.278359
0.000482454
0.278154
0.000486974
0.277941
0.000492828
0.277723
0.000499669
0.277498
0.000507251
0.277268
0.00051527
0.277033
0.000523444
0.276792
0.000531564
0.276547
0.000539486
0.276297
0.000547101
0.276042
0.000554325
0.275783
0.000561097
0.27552
0.000567373
0.275253
0.000573112
0.274983
0.000578291
0.274709
0.00058287
0.274432
0.000586811
0.274152
0.000590054
0.27387
0.000592505
0.273586
0.000594001
0.2733
0.000594336
0.273012
0.000593057
0.272723
0.000589786
0.272432
0.000583296
0.272139
0.000573666
0.271839
0.000557927
0.000539646
0.272651
0.000620606
-0.272781
0.272502
0.000631764
0.272339
0.000643758
0.272164
0.00065781
0.271977
0.000673286
0.271781
0.000689424
0.271574
0.000705901
0.271359
0.000722554
0.271135
0.000739185
0.270903
0.000755592
0.270663
0.000771602
0.270415
0.000787086
0.270161
0.000801948
0.269899
0.000816111
0.26963
0.000829521
0.269356
0.000842128
0.269075
0.000853904
0.268788
0.000864814
0.268496
0.000874836
0.268199
0.000883932
0.267897
0.000892048
0.267591
0.00089911
0.26728
0.000904985
0.266964
0.000909512
0.266645
0.000912379
0.266322
0.000913348
0.265993
0.000911779
0.265659
0.000907699
0.265317
0.000899865
0.000889356
0.265718
0.000712706
-0.26581
0.265609
0.000740666
0.265484
0.000768107
0.265346
0.000795918
0.265195
0.000824129
0.265032
0.000852406
0.264858
0.000880498
0.264672
0.000908257
0.264476
0.000935539
0.264269
0.000962186
0.264053
0.000988063
0.263827
0.00101305
0.263592
0.00103708
0.263348
0.00106006
0.263095
0.00108194
0.262835
0.0011027
0.262566
0.00112231
0.26229
0.00114074
0.262007
0.00115797
0.261717
0.001174
0.26142
0.00118879
0.261117
0.0012023
0.260808
0.00121446
0.260492
0.00122518
0.26017
0.00123427
0.259842
0.00124163
0.259507
0.00124695
0.259164
0.00125023
0.258813
0.00125098
0.00124979
0.258345
0.000764202
-0.258397
0.258278
0.000808164
0.258195
0.000851009
0.258098
0.00089327
0.257987
0.000935142
0.257863
0.000976532
0.257726
0.00101727
0.257577
0.00105724
0.257416
0.0010963
0.257244
0.00113436
0.257061
0.00117128
0.256867
0.00120696
0.256663
0.00124134
0.256448
0.00127434
0.256224
0.00130593
0.255991
0.00133606
0.255748
0.00136472
0.255497
0.00139191
0.255238
0.00141762
0.25497
0.00144185
0.254694
0.00146462
0.25441
0.00148593
0.254119
0.00150575
0.25382
0.00152408
0.253514
0.00154086
0.253199
0.00155606
0.252877
0.00156959
0.252545
0.00158152
0.252204
0.00159173
0.00160072
0.250753
0.000778845
-0.250768
0.250723
0.000838217
0.250678
0.000896157
0.250619
0.000952938
0.250545
0.00100875
0.250458
0.0010636
0.250358
0.0011174
0.250245
0.00117002
0.25012
0.00122138
0.249983
0.00127137
0.249834
0.0013199
0.249674
0.00136687
0.249503
0.00141221
0.249322
0.00145586
0.24913
0.00149778
0.248928
0.00153795
0.248717
0.00157636
0.248495
0.001613
0.248265
0.00164791
0.248026
0.0016811
0.247778
0.00171263
0.247521
0.00174253
0.247256
0.00177086
0.246983
0.00179766
0.2467
0.00182299
0.24641
0.00184692
0.24611
0.00186947
0.2458
0.00189082
0.245481
0.001911
0.00193047
0.24313
0.000763448
-0.243115
0.243131
0.000837631
0.243117
0.000910163
0.243089
0.000981161
0.243047
0.00105077
0.242991
0.00111902
0.242923
0.00118585
0.242842
0.00125118
0.242748
0.00131491
0.242642
0.00137694
0.242525
0.0014372
0.242396
0.00149561
0.242257
0.00155209
0.242106
0.00160658
0.241945
0.00165906
0.241773
0.00170949
0.241591
0.00175788
0.2414
0.00180425
0.2412
0.00184862
0.24099
0.00189108
0.24077
0.00193167
0.240543
0.00197051
0.240306
0.0020077
0.24006
0.00204336
0.239805
0.00207762
0.239542
0.00211064
0.239269
0.00214256
0.238986
0.00217362
0.238693
0.00220394
0.00223394
0.235619
0.000725605
-0.235581
0.235643
0.00081395
0.235653
0.000900471
0.235649
0.00098519
0.235631
0.0010682
0.235601
0.00114953
0.235557
0.00122914
0.235502
0.00130694
0.235434
0.00138284
0.235354
0.00145677
0.235262
0.00152862
0.23516
0.00159832
0.235046
0.00166582
0.234921
0.00173105
0.234787
0.00179399
0.234641
0.0018546
0.234486
0.00191291
0.234322
0.00196893
0.234148
0.00202273
0.233964
0.00207439
0.233772
0.00212403
0.233571
0.00217177
0.233361
0.0022178
0.233142
0.00226229
0.232914
0.00230547
0.232677
0.00234757
0.232431
0.00238883
0.232175
0.00242953
0.231909
0.0024699
0.00251029
0.228319
0.00067242
-0.228265
0.228358
0.000774271
0.228385
0.000874151
0.228398
0.000972024
0.228398
0.00106794
0.228386
0.00116191
0.228361
0.00125388
0.228324
0.00134378
0.228275
0.00143151
0.228215
0.00151698
0.228144
0.00160012
0.228061
0.00168084
0.227968
0.00175906
0.227864
0.00183474
0.22775
0.00190785
0.227627
0.00197837
0.227493
0.00204631
0.22735
0.00211172
0.227198
0.00217466
0.227038
0.00223525
0.226868
0.00229363
0.22669
0.00234999
0.226503
0.00240455
0.226308
0.00245758
0.226104
0.00250937
0.225891
0.00256024
0.225669
0.00261052
0.225438
0.00266056
0.225198
0.00271066
0.00276116
0.221289
0.000609913
-0.221226
0.221338
0.000724655
0.221375
0.000837293
0.2214
0.000947752
0.221411
0.00105605
0.221411
0.00116216
0.221399
0.00126604
0.221375
0.0013676
0.22134
0.00146673
0.221294
0.00156335
0.221236
0.00165738
0.221168
0.00174872
0.22109
0.00183729
0.221002
0.00192306
0.220904
0.00200597
0.220796
0.002086
0.220679
0.00216318
0.220553
0.00223755
0.220419
0.00230921
0.220276
0.00237829
0.220125
0.00244497
0.219965
0.00250948
0.219798
0.00257209
0.219622
0.00263316
0.219438
0.00269304
0.219246
0.00275217
0.219046
0.00281095
0.218837
0.00286984
0.218618
0.0029292
0.0029894
0.214561
0.000542854
-0.214494
0.214616
0.000669929
0.214659
0.000794777
0.214689
0.000917293
0.214708
0.00103746
0.214714
0.00115525
0.21471
0.00127058
0.214694
0.00138335
0.214667
0.00149346
0.21463
0.00160082
0.214582
0.00170532
0.214524
0.00180686
0.214456
0.00190538
0.214378
0.00200081
0.214291
0.00209309
0.214195
0.00218221
0.21409
0.00226819
0.213976
0.00235108
0.213854
0.00243096
0.213725
0.002508
0.213587
0.00258243
0.213442
0.0026545
0.21329
0.00272456
0.21313
0.00279302
0.212963
0.00286035
0.212788
0.00292706
0.212605
0.0029937
0.212414
0.00306081
0.212214
0.00312886
0.00319827
0.208146
0.000474785
-0.208078
0.208203
0.000613712
0.208247
0.000750295
0.20828
0.000884401
0.208302
0.00101599
0.208312
0.00114501
0.208311
0.00127137
0.208299
0.00139494
0.208277
0.00151563
0.208245
0.00163332
0.208202
0.00174791
0.20815
0.00185927
0.208088
0.00196733
0.208017
0.00207202
0.207936
0.00217325
0.207848
0.00227103
0.20775
0.00236535
0.207645
0.00245626
0.207532
0.00254388
0.207412
0.00262834
0.207284
0.00270991
0.20715
0.0027889
0.207009
0.00286572
0.206861
0.00294086
0.206707
0.00301487
0.206545
0.00308841
0.206377
0.00316215
0.206201
0.00323676
0.206017
0.00331286
0.00339092
0.202041
0.000408192
-0.201974
0.202096
0.000558569
0.20214
0.000706482
0.202172
0.000851781
0.202194
0.00099441
0.202205
0.00113428
0.202205
0.0012713
0.202194
0.00140532
0.202174
0.00153623
0.202143
0.00166391
0.202103
0.00178822
0.202053
0.00190905
0.201994
0.00202629
0.201926
0.00213985
0.20185
0.00224967
0.201765
0.00235569
0.201673
0.00245792
0.201572
0.0025564
0.201465
0.00265122
0.201351
0.00274258
0.20123
0.0028307
0.201103
0.00291595
0.20097
0.0029988
0.200831
0.00307983
0.200686
0.00315971
0.200535
0.00323922
0.200378
0.00331921
0.200215
0.00340053
0.200043
0.00348396
0.0035701
0.196232
0.000344704
-0.196168
0.196284
0.000506198
0.196326
0.000665111
0.196356
0.000821278
0.196376
0.000974621
0.196385
0.00112504
0.196384
0.0012724
0.196373
0.00141657
0.196352
0.00155741
0.196321
0.00169476
0.196281
0.0018285
0.196231
0.00195849
0.196173
0.0020846
0.196106
0.00220673
0.196031
0.00232478
0.195948
0.00243869
0.195857
0.00254844
0.19576
0.00265406
0.195655
0.00275563
0.195544
0.00285333
0.195428
0.00294742
0.195305
0.00303828
0.195178
0.00312642
0.195045
0.00321251
0.194907
0.00329737
0.194765
0.00338194
0.194617
0.00346725
0.194463
0.0035544
0.194302
0.00364438
0.003738
0.190703
0.00028529
-0.190643
0.190751
0.000457636
0.190789
0.000627284
0.190816
0.000794056
0.190833
0.000957855
0.19084
0.00111856
0.190836
0.00127602
0.190823
0.00143009
0.190799
0.0015806
0.190767
0.0017274
0.190725
0.00187033
0.190674
0.00200923
0.190615
0.00214396
0.190547
0.00227438
0.190472
0.00240038
0.190388
0.00252188
0.190298
0.00263881
0.190201
0.00275119
0.190097
0.00285909
0.189988
0.00296265
0.189873
0.00306214
0.189754
0.00315795
0.189629
0.00325066
0.189501
0.00334099
0.189368
0.00342988
0.189232
0.00351848
0.189091
0.00360809
0.188945
0.00370008
0.188794
0.00379577
0.00389624
0.185434
0.000230444
-0.18538
0.185479
0.000413434
0.185512
0.000593608
0.185536
0.000770779
0.185549
0.000944829
0.185552
0.00111562
0.185545
0.00128299
0.185528
0.00144676
0.185502
0.00160676
0.185466
0.00176281
0.185422
0.00191473
0.185369
0.00206235
0.185307
0.0022055
0.185238
0.00234401
0.18516
0.00247774
0.185076
0.00260657
0.184984
0.00273042
0.184886
0.00284925
0.184782
0.0029631
0.184673
0.00307208
0.184558
0.00317644
0.18444
0.00327659
0.184317
0.0033731
0.184191
0.00346679
0.184062
0.00355874
0.183931
0.00365028
0.183796
0.00374304
0.183657
0.00383875
0.183514
0.00393918