/*--------------------------------*- C++ -*----------------------------------*\
  =========                 |
  \\      /  F ield         | OpenFOAM: The Open Source CFD Toolbox
   \\    /   O peration     | Website:  https://openfoam.org
    \\  /    A nd           | Version:  6.0
     \\/     M anipulation  |
\*---------------------------------------------------------------------------*/
FoamFile
{
    version     2.0;
    format      ascii;
    class       volVectorField;
    location    "10";
    object      U;
}
// * * * * * * * * * * * * * * * * * * * * * * * * * * * * * * * * * * * * * //

dimensions      [0 1 -1 0 0 0 0];

internalField   nonuniform List<vector> 
19200
(
(0.65433 -16.9796 -4.77631e-20)
(0.206656 -16.2575 2.22773e-20)
(0.211771 -15.6707 1.03161e-20)
(0.259849 -15.1717 9.13756e-21)
(0.282052 -14.7297 1.00645e-20)
(0.304062 -14.321 6.00047e-22)
(0.327546 -13.9315 1.6128e-21)
(0.349726 -13.5536 -1.0292e-21)
(0.369947 -13.1835 1.199e-20)
(0.388147 -12.8199 4.93254e-21)
(0.404335 -12.4628 1.85312e-23)
(0.418617 -12.113 7.68045e-21)
(0.431167 -11.7712 1.24991e-20)
(0.44219 -11.4383 -8.43156e-21)
(0.451891 -11.115 1.06216e-20)
(0.460462 -10.8017 9.0452e-21)
(0.468078 -10.4989 -8.48829e-21)
(0.47489 -10.2065 1.43088e-20)
(0.481029 -9.92463 -9.08784e-21)
(0.486606 -9.65313 4.49921e-21)
(0.491719 -9.39178 6.25241e-21)
(0.49645 -9.14026 -2.03026e-21)
(0.500876 -8.89819 2.72394e-21)
(0.505069 -8.6651 -3.13849e-21)
(0.509094 -8.44041 6.78184e-21)
(0.513002 -8.22343 1.60051e-21)
(0.516821 -8.01337 -1.08135e-21)
(0.520658 -7.80932 6.38946e-22)
(0.524734 -7.61029 1.50815e-21)
(0.528235 -7.4152 5.50651e-21)
(1.09784 -16.9598 -1.06777e-20)
(0.633593 -16.2596 6.80319e-20)
(0.623851 -15.6802 -3.59251e-20)
(0.658937 -15.1849 -4.86286e-20)
(0.669607 -14.7455 -2.17614e-20)
(0.680889 -14.3379 -1.53747e-20)
(0.694062 -13.9485 -3.09725e-20)
(0.706169 -13.5698 4.23249e-21)
(0.71648 -13.1986 -6.77009e-21)
(0.724916 -12.8337 -2.38301e-20)
(0.731502 -12.4754 -5.85551e-20)
(0.736372 -12.1242 2.81824e-20)
(0.739733 -11.7812 -1.05089e-20)
(0.741815 -11.4471 3.95722e-21)
(0.742844 -11.1229 -2.35181e-20)
(0.743027 -10.8088 -8.51796e-21)
(0.742547 -10.5052 9.86411e-22)
(0.741558 -10.2122 2.84581e-20)
(0.740187 -9.92988 -1.50063e-20)
(0.738542 -9.65798 -8.25353e-21)
(0.736709 -9.39631 -3.18441e-20)
(0.734764 -9.14455 8.13716e-21)
(0.73277 -8.90231 -5.03108e-21)
(0.730787 -8.66913 8.85159e-21)
(0.728865 -8.44443 -1.10393e-20)
(0.727037 -8.22752 -6.28321e-21)
(0.725309 -8.01759 2.05783e-21)
(0.723791 -7.8137 3.14197e-21)
(0.722764 -7.61479 -5.55713e-21)
(0.721181 -7.41978 2.49729e-21)
(1.54175 -16.9295 -5.00368e-21)
(1.06053 -16.2507 1.36565e-20)
(1.0363 -15.6788 2.19931e-20)
(1.05872 -15.1876 1.68305e-19)
(1.05802 -14.7509 -9.63949e-20)
(1.05865 -14.3447 8.74764e-20)
(1.06153 -13.9555 -7.76663e-20)
(1.06353 -13.5765 4.11668e-20)
(1.06388 -13.2044 -3.84091e-20)
(1.06249 -12.8385 -3.73157e-21)
(1.0594 -12.479 9.49585e-20)
(1.05479 -12.1267 1.5571e-20)
(1.04889 -11.7827 -4.31503e-20)
(1.04197 -11.4479 3.35927e-20)
(1.03428 -11.1228 6.69585e-23)
(1.02603 -10.8082 1.4017e-20)
(1.01742 -10.5041 9.91817e-21)
(1.0086 -10.2108 3.31382e-20)
(0.99969 -9.92815 -1.45866e-20)
(0.990801 -9.65605 -4.76578e-21)
(0.982007 -9.39425 -1.23217e-20)
(0.973373 -9.14243 5.43717e-20)
(0.964951 -8.90021 -4.52031e-20)
(0.956787 -8.66712 1.45684e-20)
(0.948918 -8.44257 3.32913e-20)
(0.941356 -8.22589 -2.69452e-20)
(0.934086 -8.01625 3.57206e-20)
(0.927224 -7.81269 -3.82968e-21)
(0.921101 -7.61408 -3.98784e-21)
(0.914406 -7.41932 -2.53235e-20)
(1.98433 -16.888 -1.70291e-19)
(1.48688 -16.2309 -1.45629e-19)
(1.4487 -15.6667 -1.7654e-19)
(1.45884 -15.1798 5.30929e-21)
(1.44699 -14.7462 1.0784e-20)
(1.43706 -14.3415 -1.93475e-19)
(1.42966 -13.9528 -9.5033e-20)
(1.42154 -13.5735 2.46661e-20)
(1.41188 -13.2009 -4.33247e-21)
(1.40059 -12.8341 4.10719e-20)
(1.38777 -12.4737 -1.61153e-19)
(1.37361 -12.1207 -9.87585e-20)
(1.3584 -11.776 3.68602e-20)
(1.34243 -11.4405 7.16908e-20)
(1.32597 -11.115 -8.28591e-20)
(1.30926 -10.7999 -1.28181e-20)
(1.29248 -10.4956 -4.81252e-20)
(1.2758 -10.2022 -2.23921e-20)
(1.25934 -9.91946 3.73548e-20)
(1.2432 -9.64737 -4.74507e-20)
(1.22743 -9.38564 4.09888e-20)
(1.2121 -9.13395 -4.83792e-20)
(1.19725 -8.89191 -3.76139e-20)
(1.1829 -8.65907 -2.6798e-20)
(1.16909 -8.43484 3.08676e-20)
(1.1558 -8.21855 -5.44068e-20)
(1.14301 -8.00937 5.64536e-21)
(1.13082 -7.8063 9.60176e-21)
(1.11961 -7.60816 -2.76835e-20)
(1.10779 -7.41385 5.5654e-21)
(2.42586 -16.8353 -1.00419e-19)
(1.91282 -16.2002 1.40244e-20)
(1.86101 -15.6439 1.22102e-19)
(1.85911 -15.1615 1.26047e-19)
(1.83628 -14.7311 8.99726e-20)
(1.81586 -14.3283 3.69317e-20)
(1.7982 -13.9402 2.23578e-20)
(1.77993 -13.5609 2.53929e-19)
(1.76021 -13.1879 -1.5147e-19)
(1.73898 -12.8206 4.44733e-21)
(1.71636 -12.4596 3.5867e-20)
(1.6926 -12.106 1.51296e-19)
(1.66803 -11.7608 -1.01901e-19)
(1.64297 -11.425 7.23858e-20)
(1.6177 -11.0992 -7.93527e-20)
(1.59249 -10.7841 1.35246e-19)
(1.56753 -10.4797 -3.95549e-20)
(1.54298 -10.1864 1.47916e-21)
(1.51895 -9.9038 6.23313e-20)
(1.49554 -9.63191 4.32436e-20)
(1.4728 -9.37044 -4.39373e-20)
(1.45077 -9.11906 5.87998e-20)
(1.42949 -8.87739 -2.6428e-20)
(1.40897 -8.64497 3.04743e-20)
(1.38922 -8.42122 3.34711e-20)
(1.37022 -8.20548 1.4491e-20)
(1.35191 -7.99692 4.39957e-20)
(1.33442 -7.7945 -1.60531e-20)
(1.31816 -7.597 -5.31576e-21)
(1.30119 -7.40334 -2.35046e-20)
(2.86595 -16.7713 -7.25263e-20)
(2.33807 -16.1586 -4.54131e-20)
(2.27298 -15.6105 -1.37031e-19)
(2.25926 -15.1328 -3.53221e-19)
(2.2256 -14.7058 1.18203e-19)
(2.19477 -14.305 7.54e-21)
(2.16687 -13.9178 1.78032e-21)
(2.13844 -13.5387 1.46479e-20)
(2.10861 -13.1655 -1.14123e-20)
(2.07738 -12.7979 -1.91668e-19)
(2.04491 -12.4366 8.01875e-20)
(2.01151 -12.0826 1.35773e-19)
(1.97753 -11.7372 3.92177e-22)
(1.94334 -11.4013 4.91007e-20)
(1.90925 -11.0756 1.19978e-19)
(1.87552 -10.7605 -8.20621e-20)
(1.84235 -10.4564 1.42659e-19)
(1.80992 -10.1633 -6.76059e-20)
(1.77832 -9.88115 1.18353e-19)
(1.74764 -9.60968 -8.84659e-20)
(1.71792 -9.34867 3.89905e-20)
(1.68921 -9.09778 1.01006e-19)
(1.6615 -8.85665 5.24205e-21)
(1.63482 -8.62481 -9.26672e-20)
(1.60915 -8.40171 5.056e-20)
(1.58446 -8.18668 1.52337e-20)
(1.56066 -7.97889 -1.62678e-20)
(1.53789 -7.7773 6.14166e-20)
(1.5166 -7.58061 2.13391e-20)
(1.4945 -7.38779 -1.99925e-20)
(3.30438 -16.6959 2.03502e-19)
(2.76243 -16.1062 -4.3818e-21)
(2.68438 -15.5664 -2.76737e-19)
(2.65907 -15.0936 5.65775e-20)
(2.61472 -14.6702 -7.6505e-20)
(2.57355 -14.2715 5.67276e-20)
(2.53541 -13.8854 -2.61437e-20)
(2.49679 -13.5068 2.16797e-19)
(2.45683 -13.1337 -2.31499e-19)
(2.41555 -12.766 5.65974e-20)
(2.37319 -12.4046 -3.84551e-20)
(2.3301 -12.0506 2.78794e-20)
(2.28668 -11.7052 -1.23997e-19)
(2.24332 -11.3694 -7.82158e-21)
(2.20038 -11.044 1.94238e-19)
(2.15811 -10.7293 -1.33596e-19)
(2.11674 -10.4257 -8.35081e-20)
(2.07642 -10.1331 -5.96982e-20)
(2.03725 -9.85152 1.08068e-19)
(1.99931 -9.58067 2.28675e-20)
(1.96262 -9.3203 -1.04632e-19)
(1.92722 -9.0701 1.37866e-19)
(1.89311 -8.82968 -1.24081e-19)
(1.86027 -8.59859 8.10619e-20)
(1.82871 -8.3763 -4.60037e-20)
(1.79834 -8.16214 1.35452e-20)
(1.76908 -7.95529 2.16883e-20)
(1.74108 -7.75469 -9.76008e-20)
(1.7148 -7.55898 4.16074e-20)
(1.68756 -7.36719 5.71985e-22)
(3.74085 -16.6093 -1.98362e-19)
(3.18563 -16.0427 1.53773e-19)
(3.09498 -15.5116 -2.80899e-19)
(3.05827 -15.0439 5.33247e-19)
(3.00337 -14.6243 -1.47924e-19)
(2.95191 -14.2279 2.06732e-19)
(2.90355 -13.8431 1.6015e-19)
(2.85472 -13.4652 -2.92459e-20)
(2.80459 -13.0924 -4.00645e-20)
(2.75323 -12.7249 9.15064e-24)
(2.70093 -12.3636 -1.51856e-19)
(2.64811 -12.0099 7.93581e-20)
(2.59522 -11.6648 -9.35202e-20)
(2.54268 -11.3294 -7.54403e-21)
(2.49087 -11.0045 -2.57312e-19)
(2.44007 -10.6905 8.42454e-20)
(2.39049 -10.3875 4.74975e-20)
(2.34228 -10.0957 -5.40785e-20)
(2.29555 -9.8149 -6.40176e-21)
(2.25035 -9.54488 -8.10808e-20)
(2.20671 -9.28536 -2.86982e-20)
(2.16464 -9.03603 2.27197e-21)
(2.12413 -8.79649 -6.91511e-20)
(2.08517 -8.56633 -1.01739e-19)
(2.04772 -8.345 4.49017e-21)
(2.01172 -8.13187 1.40533e-20)
(1.97703 -7.92612 3.13624e-20)
(1.94383 -7.72666 -7.68508e-20)
(1.9126 -7.53209 6.50134e-20)
(1.88026 -7.34154 -1.16706e-19)
(4.17506 -16.5113 -4.88144e-19)
(3.60739 -15.9683 5.59278e-19)
(3.5045 -15.4461 -5.84691e-19)
(3.45661 -14.9837 -1.56347e-19)
(3.39127 -14.5681 -9.79098e-20)
(3.32959 -14.1742 -1.06237e-19)
(3.27102 -13.7909 -2.43294e-19)
(3.21196 -13.4139 -2.11941e-20)
(3.15163 -13.0417 -9.64299e-20)
(3.09015 -12.6746 -1.89814e-20)
(3.02788 -12.3137 1.56399e-19)
(2.9653 -11.9604 -8.99168e-20)
(2.90292 -11.616 -1.03786e-19)
(2.84119 -11.2813 -1.72674e-19)
(2.7805 -10.9571 3.60945e-19)
(2.72116 -10.644 -1.37183e-19)
(2.66337 -10.3419 5.08901e-20)
(2.60729 -10.0511 -1.87843e-19)
(2.55301 -9.77132 7.23955e-20)
(2.50057 -9.50233 -2.8926e-20)
(2.45 -9.24386 3.69223e-20)
(2.40128 -8.99557 -1.21282e-20)
(2.3544 -8.7571 1.12481e-19)
(2.30933 -8.52802 -3.95303e-20)
(2.26604 -8.30782 1.08893e-19)
(2.22442 -8.09588 -2.20726e-19)
(2.18435 -7.89138 1.40087e-19)
(2.14599 -7.69323 3.79589e-20)
(2.10986 -7.49997 7.05683e-20)
(2.07244 -7.31086 -2.04771e-19)
(4.60672 -16.4022 7.70283e-19)
(4.02744 -15.8829 -1.42416e-19)
(3.91267 -15.3699 2.51248e-19)
(3.85381 -14.913 -6.98854e-20)
(3.77817 -14.5015 2.45228e-19)
(3.70632 -14.1104 2.28709e-19)
(3.63755 -13.7288 1.06325e-19)
(3.56825 -13.3528 -3.85464e-20)
(3.49768 -12.9815 -2.40025e-19)
(3.42605 -12.6151 3.50289e-19)
(3.35378 -12.2549 -2.54923e-20)
(3.28142 -11.9024 2.41172e-19)
(3.20953 -11.5587 8.6581e-20)
(3.1386 -11.225 3.19412e-20)
(3.06904 -10.9019 4.86646e-20)
(3.00116 -10.5898 6.80449e-20)
(2.93518 -10.289 1.11398e-19)
(2.87125 -9.99934 -3.15424e-20)
(2.80943 -9.72078 1.61519e-19)
(2.74978 -9.45303 7.32461e-20)
(2.69229 -9.1958 -1.52089e-19)
(2.63695 -8.94875 2.67922e-19)
(2.58372 -8.71152 -3.51143e-19)
(2.53258 -8.48369 3.29325e-19)
(2.48347 -8.26478 -1.08413e-19)
(2.43628 -8.05417 -4.40874e-20)
(2.39086 -7.85109 -1.08143e-20)
(2.34741 -7.65441 7.8508e-20)
(2.30644 -7.46262 2.76815e-20)
(2.26397 -7.27515 -3.12608e-20)
(5.03556 -16.2818 -4.36403e-19)
(4.44549 -15.7866 4.02234e-19)
(4.31923 -15.283 -1.08616e-19)
(4.24959 -14.8317 3.08695e-19)
(4.16379 -14.4246 3.06756e-20)
(4.08183 -14.0364 6.27944e-20)
(4.00286 -13.6567 -5.14442e-19)
(3.92331 -13.2821 2.38219e-19)
(3.84248 -12.9118 3.22922e-19)
(3.76067 -12.5463 2.40274e-19)
(3.67838 -12.1871 -4.07383e-19)
(3.59623 -11.8356 2.34758e-19)
(3.51482 -11.4931 -2.32696e-19)
(3.43469 -11.1605 1.57346e-19)
(3.35626 -10.8387 -2.62801e-19)
(3.27986 -10.528 -1.923e-19)
(3.20571 -10.2286 1.26449e-20)
(3.13394 -9.94041 -8.60365e-20)
(3.06462 -9.6633 1.53475e-19)
(2.99778 -9.397 6.07264e-20)
(2.93341 -9.14121 -3.96888e-20)
(2.87147 -8.89559 -1.13058e-20)
(2.81193 -8.65977 4.55159e-20)
(2.75475 -8.43336 -1.52628e-19)
(2.69986 -8.21589 2.50327e-19)
(2.64714 -8.00678 -6.12822e-20)
(2.59642 -7.80526 -1.02917e-19)
(2.54793 -7.6102 2.13689e-19)
(2.50218 -7.42005 2.78692e-20)
(2.45472 -7.23442 -2.82407e-20)
(5.46126 -16.1503 1.82802e-20)
(4.86127 -15.6794 -2.26924e-19)
(4.72388 -15.1854 -2.03957e-19)
(4.64369 -14.74 -3.35646e-19)
(4.54784 -14.3374 1.21881e-20)
(4.45583 -13.9522 -2.33969e-19)
(4.36668 -13.5746 2.76318e-19)
(4.27687 -13.2016 -1.35513e-19)
(4.18576 -12.8326 2.14703e-19)
(4.09375 -12.4684 -1.79268e-19)
(4.00143 -12.1104 -9.00634e-20)
(3.90947 -11.7602 4.88678e-20)
(3.81854 -11.419 2.61736e-20)
(3.72922 -11.088 -2.61625e-19)
(3.64194 -10.7677 1.53171e-19)
(3.55704 -10.4586 -7.41351e-20)
(3.47474 -10.1609 2.11105e-19)
(3.39516 -9.87435 -6.87447e-20)
(3.31837 -9.59892 7.10953e-20)
(3.24438 -9.33428 1.7569e-20)
(3.17315 -9.08012 1.19237e-19)
(3.10466 -8.83611 -2.44039e-20)
(3.03884 -8.60188 1.93159e-19)
(2.97566 -8.37706 -2.14641e-19)
(2.91502 -8.16119 -7.20591e-20)
(2.85681 -7.95372 5.83203e-20)
(2.80085 -7.75392 -6.35355e-21)
(2.74738 -7.56064 -1.57964e-19)
(2.69692 -7.37228 8.03184e-20)
(2.64453 -7.18871 -8.76563e-20)
(5.88354 -16.0077 7.31372e-19)
(5.27448 -15.5613 1.85821e-19)
(5.12634 -15.0771 2.2219e-19)
(5.03581 -14.6377 2.93585e-19)
(4.93004 -14.2398 4.37685e-19)
(4.82804 -13.8579 -1.37472e-20)
(4.72874 -13.4826 6.36365e-20)
(4.62865 -13.1115 7.16167e-19)
(4.52726 -12.744 2.04254e-19)
(4.42503 -12.3813 -1.70296e-19)
(4.32266 -12.0248 2.95604e-19)
(4.22089 -11.6762 4.85066e-20)
(4.12046 -11.3366 2.33193e-21)
(4.02195 -11.0073 6.93405e-20)
(3.92584 -10.6889 1.21169e-19)
(3.83247 -10.3817 -2.46386e-19)
(3.74205 -10.0858 2.08664e-19)
(3.65471 -9.80119 3.44042e-20)
(3.57048 -9.52765 1.9918e-19)
(3.48937 -9.26489 -1.08217e-19)
(3.41133 -9.01257 1.75443e-19)
(3.33632 -8.77035 -1.85692e-19)
(3.26427 -8.53789 1.77843e-19)
(3.19512 -8.31481 2.39675e-20)
(3.12879 -8.1007 -1.18298e-19)
(3.06514 -7.89503 -3.77309e-20)
(3.00399 -7.69709 2.21492e-19)
(2.9456 -7.50574 -3.35518e-20)
(2.8905 -7.31935 4.21723e-20)
(2.83326 -7.13802 -2.65864e-20)
(6.30212 -15.8541 7.25982e-20)
(5.68483 -15.4323 1.59203e-19)
(5.52634 -14.9581 6.44992e-19)
(5.42569 -14.525 -1.04617e-18)
(5.31013 -14.1318 -1.01158e-19)
(5.19819 -13.7534 -1.10851e-19)
(5.08874 -13.3807 4.88801e-20)
(4.97838 -13.0116 6.23264e-20)
(4.86669 -12.646 1.56895e-19)
(4.75424 -12.2851 -2.77098e-19)
(4.64182 -11.9304 -5.1498e-20)
(4.53025 -11.5835 1.51005e-19)
(4.42032 -11.246 1.59813e-19)
(4.31265 -10.9186 -1.60318e-19)
(4.20774 -10.6023 -1.5509e-19)
(4.10594 -10.2972 2.52462e-19)
(4.00744 -10.0034 1.61604e-19)
(3.91236 -9.72097 -4.28692e-20)
(3.82074 -9.44955 -1.02229e-19)
(3.73256 -9.18886 1.7684e-20)
(3.64776 -8.93858 -2.30205e-19)
(3.56627 -8.69834 2.74977e-19)
(3.48803 -8.46782 -1.86851e-19)
(3.41296 -8.24666 -7.35493e-21)
(3.34098 -8.03446 1.20792e-19)
(3.27194 -7.83074 -3.74639e-20)
(3.20566 -7.63482 -1.11799e-19)
(3.14243 -7.44555 1.75455e-20)
(3.08277 -7.26127 -4.73157e-21)
(3.02075 -7.0824 2.05807e-20)
(6.7167 -15.6897 -5.60771e-20)
(6.09205 -15.2926 -1.68975e-19)
(5.92359 -14.8286 -7.41068e-19)
(5.81303 -14.4018 2.65731e-19)
(5.6878 -14.0136 -7.854e-20)
(5.56599 -13.6389 2.57462e-19)
(5.44642 -13.269 1.84887e-20)
(5.32579 -12.9022 -2.87458e-19)
(5.2038 -12.5387 2.18173e-20)
(5.08112 -12.1797 -3.84559e-19)
(4.95866 -11.8271 -1.39329e-20)
(4.8373 -11.4824 9.03883e-20)
(4.71789 -11.147 -1.55472e-19)
(4.60109 -10.822 1.73463e-19)
(4.48742 -10.5079 -3.29914e-19)
(4.37721 -10.2052 -7.2592e-20)
(4.27068 -9.91382 1.9608e-19)
(4.16792 -9.63372 9.58803e-23)
(4.06896 -9.36464 -1.2016e-19)
(3.97375 -9.10625 3.25175e-19)
(3.88223 -8.85819 -1.7406e-19)
(3.79432 -8.62013 -2.30149e-19)
(3.70993 -8.39173 7.59426e-20)
(3.62899 -8.17265 -2.18712e-19)
(3.55141 -7.96252 -5.16814e-20)
(3.47704 -7.76089 -6.18926e-21)
(3.40568 -7.56714 -1.37985e-19)
(3.33769 -7.3801 1.65239e-19)
(3.27356 -7.1981 -5.8011e-20)
(3.20685 -7.02189 9.3432e-20)
(7.127 -15.5144 -2.5692e-19)
(6.49584 -15.1422 -6.70508e-19)
(6.31781 -14.6884 3.17769e-19)
(6.19755 -14.2682 -2.98099e-19)
(6.06279 -13.8852 -2.18121e-19)
(5.93117 -13.5143 -1.23185e-19)
(5.8015 -13.1473 -4.48919e-19)
(5.67061 -12.7831 3.02162e-19)
(5.53831 -12.4219 -5.32554e-19)
(5.40541 -12.0653 -7.32811e-19)
(5.27291 -11.715 9.596e-20)
(5.14179 -11.3727 1.54728e-19)
(5.01293 -11.0398 -3.56333e-21)
(4.88704 -10.7173 -2.88394e-19)
(4.76464 -10.4058 6.67603e-20)
(4.64608 -10.1057 -2.54247e-19)
(4.53156 -9.81699 -1.80481e-19)
(4.42117 -9.5395 -1.06368e-19)
(4.31492 -9.27297 -1.99373e-20)
(4.21274 -9.01708 1.8105e-19)
(4.11455 -8.77146 2.55155e-19)
(4.02027 -8.53577 -7.57517e-20)
(3.92979 -8.30966 -7.13421e-20)
(3.84302 -8.09283 1.38705e-19)
(3.75989 -7.88492 7.63854e-20)
(3.68024 -7.68554 -6.02725e-20)
(3.60389 -7.49409 -6.60701e-20)
(3.5312 -7.30943 7.73482e-21)
(3.46269 -7.12986 5.81834e-20)
(3.3914 -6.95653 -8.34399e-20)
(7.53272 -15.3284 -4.76333e-20)
(6.89592 -14.9812 8.39722e-19)
(6.70871 -14.5378 6.35876e-19)
(6.57897 -14.1242 4.88106e-19)
(6.4348 -13.7465 -3.14285e-19)
(6.29343 -13.3796 -6.23717e-20)
(6.15369 -13.0159 5.79266e-20)
(6.01255 -12.6544 3.80494e-19)
(5.86995 -12.2959 1.41154e-19)
(5.72685 -11.9419 2.11765e-19)
(5.58434 -11.5942 -4.6231e-19)
(5.44347 -11.2545 4.81043e-20)
(5.3052 -10.9244 1.83879e-19)
(5.17025 -10.6047 1.09833e-19)
(5.03918 -10.2961 2.25735e-19)
(4.91232 -9.99888 -1.5449e-19)
(4.78987 -9.71301 -1.40473e-19)
(4.67191 -9.43834 2.79572e-20)
(4.55842 -9.1746 2.9336e-19)
(4.44933 -8.92142 -4.70005e-19)
(4.34453 -8.67843 1.63072e-19)
(4.24393 -8.44529 -9.67926e-22)
(4.14741 -8.22166 2.99407e-19)
(4.05488 -8.00724 -1.29625e-19)
(3.96625 -7.80171 -7.27792e-21)
(3.88138 -7.60472 -7.99554e-20)
(3.80008 -7.41573 -7.01649e-20)
(3.72278 -7.23359 1.47495e-20)
(3.64998 -7.05661 -1.68669e-19)
(3.57423 -6.88636 2.45028e-19)
(7.9336 -15.1318 -9.31125e-19)
(7.29202 -14.8095 -5.08566e-19)
(7.09603 -14.3768 -1.28011e-18)
(6.95702 -13.9699 -5.68255e-19)
(6.80355 -13.5977 5.24832e-19)
(6.6525 -13.235 -3.0227e-19)
(6.50272 -12.8747 -6.85611e-20)
(6.35134 -12.5163 -1.93227e-19)
(6.19847 -12.1607 3.2384e-19)
(6.04518 -11.8095 -2.95377e-19)
(5.89267 -11.4647 3.5683e-20)
(5.7421 -11.128 -1.40965e-20)
(5.59445 -10.8009 -4.43984e-19)
(5.45051 -10.4843 -1.52398e-20)
(5.31081 -10.1788 1.17643e-19)
(5.17571 -9.88469 -1.22247e-20)
(5.04539 -9.60191 -4.36025e-19)
(4.91992 -9.3303 4.20373e-19)
(4.79925 -9.06956 -4.07327e-19)
(4.68331 -8.8193 1.57675e-19)
(4.57197 -8.57915 2.19996e-20)
(4.4651 -8.34876 8.94423e-21)
(4.36259 -8.12778 -1.6083e-19)
(4.26435 -7.91595 1.59633e-19)
(4.17028 -7.71296 -6.77893e-20)
(4.08024 -7.5185 7.265e-20)
(3.99407 -7.33211 -3.84614e-19)
(3.91223 -7.15263 1.05006e-19)
(3.83525 -6.97841 1.11047e-19)
(3.75515 -6.81144 1.08306e-19)
(8.32935 -14.9248 1.80327e-18)
(7.68386 -14.6275 5.75698e-19)
(7.47949 -14.2054 3.30036e-19)
(7.33141 -13.8054 5.19301e-19)
(7.16877 -13.4388 -6.39449e-20)
(7.0081 -13.0805 3.74877e-19)
(6.84832 -12.7238 8.2022e-19)
(6.68672 -12.3687 -1.05808e-19)
(6.52359 -12.0162 4.34416e-20)
(6.36013 -11.6682 9.16446e-19)
(6.19767 -11.3265 8.48812e-19)
(6.03743 -10.9931 1.22191e-19)
(5.88047 -10.6693 -4.32367e-20)
(5.72757 -10.3561 -1.431e-21)
(5.57931 -10.054 6.15291e-19)
(5.43604 -9.7632 2.37749e-20)
(5.29792 -9.48376 6.36515e-19)
(5.165 -9.21544 -8.19974e-20)
(5.03722 -8.95791 -1.33991e-19)
(4.91449 -8.71078 3.10293e-19)
(4.79666 -8.47368 -2.80429e-19)
(4.68359 -8.24622 -3.00306e-19)
(4.57515 -8.02808 -2.67886e-20)
(4.47125 -7.819 -1.298e-19)
(4.37179 -7.6187 1.95863e-19)
(4.27664 -7.42694 2.27625e-20)
(4.18566 -7.24328 -7.86037e-20)
(4.09936 -7.06662 4.38854e-20)
(4.01829 -6.8953 2.80873e-19)
(3.93399 -6.73184 3.85118e-20)
(8.7197 -14.7074 -3.10277e-19)
(8.07118 -14.4351 -5.78351e-19)
(7.85882 -14.0237 2.30106e-19)
(7.70187 -13.6307 -9.22404e-19)
(7.53018 -13.2698 4.27784e-19)
(7.35995 -12.9161 -7.72269e-19)
(7.1902 -12.5633 -4.9492e-19)
(7.01841 -12.2117 1.36254e-19)
(6.84505 -11.8627 1.26832e-19)
(6.67146 -11.518 -6.34929e-19)
(6.49908 -11.1799 9.51628e-20)
(6.32923 -10.85 1.00841e-19)
(6.163 -10.5298 -3.31094e-19)
(6.00122 -10.2201 -1.29206e-19)
(5.84447 -9.92164 -8.54154e-20)
(5.69308 -9.63449 -8.52357e-20)
(5.54723 -9.35861 -3.48365e-19)
(5.40693 -9.0938 -2.14485e-19)
(5.27212 -8.8397 -4.52667e-20)
(5.14266 -8.59592 1.72545e-19)
(5.0184 -8.36205 2.29665e-19)
(4.89919 -8.13772 -2.47888e-19)
(4.78488 -7.92261 9.11378e-20)
(4.67537 -7.71645 -1.88037e-19)
(4.57057 -7.51901 1.73229e-19)
(4.47037 -7.33009 -2.28089e-19)
(4.37463 -7.14932 6.91838e-20)
(4.28395 -6.97562 -1.10633e-19)
(4.19889 -6.80736 -1.53583e-19)
(4.11053 -6.64762 -1.42209e-20)
(9.10438 -14.4798 -6.45244e-19)
(8.45371 -14.2325 -5.15364e-19)
(8.23377 -13.8319 -4.96119e-19)
(8.06814 -13.4459 -3.54036e-19)
(7.8875 -13.0908 1.08548e-18)
(7.70777 -12.7419 1.46328e-19)
(7.52809 -12.3932 4.46295e-19)
(7.34615 -12.0455 6.68901e-19)
(7.16259 -11.7001 3.14018e-19)
(6.97891 -11.3591 -4.15719e-19)
(6.79666 -11.0247 6.47867e-19)
(6.61725 -10.6986 1.89301e-19)
(6.44182 -10.3823 5.78393e-19)
(6.27123 -10.0765 6.46911e-20)
(6.10606 -9.78191 1.42693e-19)
(5.94664 -9.4986 4.61282e-20)
(5.79313 -9.22653 -3.40963e-21)
(5.64552 -8.96544 -1.68985e-20)
(5.50374 -8.71499 7.24488e-20)
(5.36762 -8.47475 2.42689e-19)
(5.237 -8.24432 -2.68487e-19)
(5.1117 -8.02332 2.09878e-19)
(4.99157 -7.81141 6.58269e-21)
(4.8765 -7.60836 9.25849e-20)
(4.76642 -7.41395 1.66949e-19)
(4.66121 -7.22802 -2.90135e-20)
(4.56077 -7.05028 1.62497e-19)
(4.46578 -6.87968 2.30745e-19)
(4.37681 -6.71464 -2.50405e-19)
(4.28454 -6.55885 -1.34298e-19)
(9.48317 -14.2421 1.86921e-18)
(8.83122 -14.0197 -1.88759e-19)
(8.60406 -13.6299 3.81889e-19)
(8.42993 -13.2511 6.89051e-19)
(8.24045 -12.902 -1.93657e-18)
(8.0513 -12.558 2.0312e-19)
(7.86173 -12.2137 -7.08056e-19)
(7.66967 -11.87 6.85529e-19)
(7.47595 -11.5286 -5.40213e-19)
(7.28222 -11.1916 2.81376e-19)
(7.09017 -10.8612 -1.02069e-18)
(6.90127 -10.5392 4.16237e-20)
(6.71671 -10.2269 -1.08031e-18)
(6.53739 -9.92533 4.82323e-19)
(6.36387 -9.63483 2.46797e-19)
(6.1965 -9.35561 3.6853e-19)
(6.0354 -9.08757 -3.97906e-19)
(5.88057 -8.83043 -3.02455e-20)
(5.73188 -8.58383 2.96673e-20)
(5.58918 -8.34734 8.3611e-20)
(5.45225 -8.12055 -4.70127e-19)
(5.32092 -7.90305 -1.3514e-20)
(5.19502 -7.69455 -2.56443e-19)
(5.07445 -7.49477 -6.00356e-20)
(4.95912 -7.30356 -1.53647e-19)
(4.84893 -7.12078 -1.65411e-19)
(4.74385 -6.94622 -1.69068e-19)
(4.64459 -6.77887 2.79787e-19)
(4.55181 -6.61721 7.38054e-20)
(4.45578 -6.46558 -1.28107e-19)
(9.85582 -13.9945 -1.24357e-18)
(9.20347 -13.797 4.18547e-19)
(8.96947 -13.418 -6.9801e-19)
(8.787 -13.0464 1.04499e-19)
(8.58877 -12.7034 1.09057e-18)
(8.39025 -12.3645 -5.46025e-19)
(8.19084 -12.0247 -5.52234e-19)
(7.9887 -11.6853 -4.68677e-19)
(7.78487 -11.3482 2.45442e-20)
(7.58116 -11.0154 2.92126e-19)
(7.37936 -10.6894 -2.06788e-19)
(7.18104 -10.3717 1.26189e-20)
(6.98744 -10.0639 4.48105e-19)
(6.79947 -9.76663 2.7719e-19)
(6.6177 -9.4805 7.65354e-20)
(6.44246 -9.20559 -2.40108e-19)
(6.27386 -8.94179 9.04795e-20)
(6.11187 -8.68881 1.95523e-19)
(5.95636 -8.44627 2.12734e-19)
(5.80713 -8.21372 -2.32653e-19)
(5.66396 -7.99075 3.60834e-20)
(5.52665 -7.77697 1.93802e-19)
(5.39503 -7.57204 3.32149e-19)
(5.26898 -7.37573 8.40665e-20)
(5.14843 -7.18789 -3.343e-19)
(5.03331 -7.00843 3.84329e-19)
(4.92361 -6.83721 -1.9152e-19)
(4.82014 -6.67326 -2.2497e-19)
(4.72362 -6.51514 -1.36958e-19)
(4.624 -6.36788 -1.63714e-19)
(10.2222 -13.7371 6.49761e-19)
(9.57026 -13.5644 -4.7684e-19)
(9.32974 -13.1962 1.84184e-19)
(9.13907 -12.8318 9.25319e-19)
(8.93219 -12.495 2.44859e-19)
(8.72437 -12.1615 -2.06865e-19)
(8.51516 -11.8265 4.93754e-19)
(8.30299 -11.4916 1.18439e-19)
(8.0891 -11.159 4.43829e-19)
(7.87546 -10.8308 2.40801e-19)
(7.664 -10.5093 9.94058e-21)
(7.45635 -10.1963 1.46103e-19)
(7.2538 -9.8931 -4.5949e-20)
(7.05726 -9.60052 -3.97822e-19)
(6.86734 -9.31899 -5.84149e-20)
(6.68432 -9.04862 -1.14971e-19)
(6.50831 -8.78927 2.78229e-19)
(6.33925 -8.54065 2.7912e-19)
(6.17698 -8.30235 -3.14981e-19)
(6.02129 -8.07394 3.20149e-19)
(5.87193 -7.85498 6.69451e-19)
(5.72869 -7.64508 -4.28422e-19)
(5.59137 -7.44392 4.23525e-19)
(5.45987 -7.25126 -2.9621e-19)
(5.33413 -7.06696 -4.07125e-20)
(5.21408 -6.89101 3.07895e-19)
(5.09977 -6.7233 -6.29259e-20)
(4.99213 -6.56292 2.26615e-19)
(4.89193 -6.40852 2.22314e-19)
(4.7889 -6.26594 -3.93534e-19)
(10.582 -13.47 -6.25477e-19)
(9.93139 -13.3221 2.71041e-19)
(9.68462 -12.9646 1.09017e-19)
(9.48589 -12.6074 -1.07199e-18)
(9.27044 -12.277 -5.42226e-19)
(9.05336 -11.949 3.97624e-19)
(8.83442 -11.619 -1.08431e-18)
(8.61227 -11.289 1.28288e-18)
(8.38838 -10.9612 -7.11196e-19)
(8.1649 -10.6378 8.39641e-20)
(7.94386 -10.3212 -1.34192e-19)
(7.72697 -10.0131 -3.82818e-19)
(7.51557 -9.71479 7.79433e-19)
(7.31058 -9.42708 2.86993e-19)
(7.1126 -9.15038 3.67708e-19)
(6.9219 -8.88476 7.23226e-21)
(6.73858 -8.63007 1.58596e-19)
(6.56253 -8.38599 -3.42277e-19)
(6.39358 -8.15213 7.13969e-20)
(6.23149 -7.92802 2.28933e-19)
(6.07599 -7.71325 -9.69982e-20)
(5.92684 -7.50741 1.53822e-19)
(5.78385 -7.31018 -3.02432e-19)
(5.6469 -7.12133 4.29356e-19)
(5.51594 -6.94076 9.69041e-20)
(5.39094 -6.76849 -2.67784e-19)
(5.27199 -6.60448 -2.27464e-19)
(5.16014 -6.44784 1.71949e-21)
(5.05625 -6.29741 3.07937e-19)
(4.94984 -6.15987 -6.57534e-20)
(10.9353 -13.1935 -1.71962e-19)
(10.2867 -13.0702 -1.10264e-18)
(10.0339 -12.7232 1.29951e-18)
(9.82719 -12.3734 8.59811e-19)
(9.60324 -12.0495 8.37616e-19)
(9.37698 -11.7272 2.23321e-19)
(9.14834 -11.4025 3.36004e-19)
(8.91629 -11.0776 1.65418e-19)
(8.68248 -10.7548 -6.5536e-19)
(8.44924 -10.4366 1.18026e-18)
(8.21871 -10.1251 -9.26185e-19)
(7.99269 -9.82217 -5.8868e-20)
(7.77255 -9.52902 1.31884e-19)
(7.55922 -9.24643 -5.67026e-19)
(7.35329 -8.97478 8.86828e-19)
(7.15503 -8.71412 1.6553e-19)
(6.96449 -8.46427 -3.66725e-19)
(6.78155 -8.22492 1.37564e-19)
(6.606 -7.99564 -2.66484e-19)
(6.43757 -7.77601 -2.3238e-19)
(6.27598 -7.56557 -2.43539e-19)
(6.12096 -7.36393 5.50476e-20)
(5.9723 -7.17079 2.87265e-20)
(5.82988 -6.98592 -5.76788e-19)
(5.69365 -6.80924 -2.15016e-19)
(5.56361 -6.6408 1.39525e-19)
(5.43993 -6.48065 1.69432e-19)
(5.32374 -6.32796 -2.3276e-19)
(5.21596 -6.18173 -8.7564e-20)
(5.10609 -6.04942 6.3265e-21)
(11.2821 -12.9076 -1.53628e-19)
(10.6359 -12.8088 7.14515e-19)
(10.3772 -12.4723 -2.01927e-19)
(10.1627 -12.1298 -2.44366e-19)
(9.93031 -11.8125 -1.29052e-18)
(9.69492 -11.4962 -2.75282e-19)
(9.45665 -11.177 5.14512e-19)
(9.21476 -10.8575 -3.35069e-19)
(8.97111 -10.5401 -3.49063e-20)
(8.72821 -10.2272 -6.6501e-20)
(8.48832 -9.92116 3.49952e-19)
(8.25329 -9.62365 -5.43462e-19)
(8.02453 -9.3359 -3.561e-19)
(7.803 -9.05867 4.11502e-19)
(7.58925 -8.79228 -2.30428e-19)
(7.38354 -8.53677 1.08944e-19)
(7.18589 -8.29195 2.08711e-20)
(6.99616 -8.05748 -9.17869e-20)
(6.8141 -7.83295 3.29018e-19)
(6.6394 -7.61791 -2.98878e-19)
(6.47177 -7.41194 -2.36452e-19)
(6.3109 -7.21464 2.05434e-19)
(6.15658 -7.02572 -2.38866e-20)
(6.00866 -6.84496 -1.48633e-19)
(5.86712 -6.67232 1.30238e-19)
(5.73196 -6.50791 -3.98047e-19)
(5.60342 -6.35183 2.4248e-19)
(5.48274 -6.20331 -3.9715e-21)
(5.37091 -6.06141 -2.46155e-19)
(5.25766 -5.93413 3.30671e-19)
(11.623 -12.6131 5.89568e-19)
(10.9794 -12.5381 -1.39365e-18)
(10.7144 -12.2118 -1.12624e-19)
(10.4921 -11.8766 6.18708e-19)
(10.2513 -11.5662 -1.53287e-19)
(10.0069 -11.256 -4.30736e-19)
(9.75905 -10.9426 1.93765e-19)
(9.50739 -10.6287 2.20626e-19)
(9.25401 -10.317 1.68281e-20)
(9.00157 -10.0098 2.6185e-19)
(8.75244 -9.70948 8.23853e-19)
(8.50854 -9.41766 -2.8774e-19)
(8.27132 -9.13557 6.98747e-20)
(8.04172 -8.86391 -1.8449e-19)
(7.8203 -8.60299 7.00048e-19)
(7.60728 -8.35282 -1.24657e-19)
(7.40265 -8.11318 1.82073e-19)
(7.20623 -7.88374 -3.04155e-19)
(7.01775 -7.66408 1.62972e-19)
(6.83686 -7.45375 2.43591e-19)
(6.66323 -7.25234 4.05832e-20)
(6.49652 -7.05947 1.59162e-19)
(6.33651 -6.87486 -1.29391e-19)
(6.18303 -6.69833 3.5814e-19)
(6.03606 -6.52988 -1.44645e-19)
(5.89567 -6.36973 5.22706e-19)
(5.7622 -6.21806 -1.50741e-19)
(5.63703 -6.07404 1.02043e-19)
(5.52129 -5.93681 -1.91627e-19)
(5.40519 -5.81551 3.19175e-19)
(11.9591 -12.3103 -1.30092e-18)
(11.3173 -12.2578 4.79816e-20)
(11.0454 -11.9414 -6.87649e-19)
(10.815 -11.6138 1.21118e-19)
(10.566 -11.3105 3.43059e-20)
(10.3126 -11.0068 -5.64543e-19)
(10.0553 -10.6995 -1.04479e-18)
(9.79395 -10.3916 5.10621e-19)
(9.53096 -10.0858 -7.14649e-19)
(9.2691 -9.78465 -3.67351e-19)
(9.01088 -9.49026 -2.049e-19)
(8.75826 -9.20439 -1.56896e-19)
(8.51273 -8.92819 1.32931e-21)
(8.27522 -8.66232 -5.57533e-19)
(8.04628 -8.40706 3.52543e-19)
(7.8261 -8.16239 -5.80365e-19)
(7.61464 -7.92809 -1.45098e-19)
(7.41168 -7.70381 1.6271e-19)
(7.21689 -7.48911 -6.54782e-20)
(7.0299 -7.28356 1.86855e-19)
(6.85032 -7.08675 1.41752e-19)
(6.67778 -6.89831 -3.52617e-19)
(6.51198 -6.71799 3.49819e-19)
(6.35273 -6.54565 -3.77969e-20)
(6.19997 -6.38139 -9.1881e-20)
(6.0538 -6.22557 -3.59803e-19)
(5.91479 -6.07845 -1.88459e-19)
(5.78459 -5.93924 3.46465e-19)
(5.66425 -5.80819 -1.14682e-19)
(5.54467 -5.69762 -1.03825e-19)
(12.2899 -11.9975 5.70381e-19)
(11.6492 -11.9665 5.37663e-20)
(11.3696 -11.6608 -1.32892e-19)
(11.1312 -11.3416 -2.64397e-20)
(10.8741 -11.0459 -2.25753e-19)
(10.6118 -10.7489 7.64001e-19)
(10.3452 -10.4481 -3.51529e-19)
(10.0743 -10.1464 2.29865e-19)
(9.80183 -9.84689 9.40439e-20)
(9.53071 -9.55193 3.23526e-19)
(9.26353 -9.26378 -1.19739e-19)
(9.00236 -8.9841 6.77723e-19)
(8.74868 -8.71401 -5.6894e-20)
(8.50343 -8.45414 4.22038e-19)
(8.26713 -8.20472 -6.98338e-19)
(8.03996 -7.96572 -4.88207e-20)
(7.82183 -7.73689 4.38316e-19)
(7.61249 -7.51786 -2.68788e-19)
(7.41156 -7.30821 1.09352e-19)
(7.21861 -7.10748 1.84587e-19)
(7.03321 -6.91524 -2.64536e-19)
(6.85492 -6.73115 2.91406e-19)
(6.68334 -6.55492 -2.67385e-19)
(6.51816 -6.38647 5.85587e-20)
(6.35913 -6.22593 2.12541e-19)
(6.2062 -6.07373 1.45305e-19)
(6.05989 -5.93015 1.34099e-19)
(5.92154 -5.7951 9.83692e-20)
(5.79089 -5.67217 -2.65423e-19)
(5.66157 -5.57602 -1.00889e-19)
(17.3398 0.207074 7.10605e-21)
(17.3307 -0.249881 6.87782e-20)
(17.3101 -0.704719 2.39043e-19)
(17.2791 -1.15782 1.30134e-19)
(17.2371 -1.60933 -2.78663e-19)
(17.1836 -2.05913 8.40388e-20)
(17.1184 -2.50702 -8.72513e-20)
(17.0417 -2.95279 -2.21939e-19)
(16.9533 -3.39618 1.18627e-19)
(16.8534 -3.83692 -1.3721e-19)
(16.742 -4.27473 -1.35833e-19)
(16.6193 -4.70932 -2.92973e-19)
(16.4852 -5.1404 -8.47401e-19)
(16.34 -5.56769 7.79285e-20)
(16.1837 -5.9909 -3.2801e-20)
(16.0164 -6.40973 -2.74518e-19)
(15.8382 -6.82392 5.75035e-19)
(15.6494 -7.23319 3.17382e-19)
(15.45 -7.63726 6.03548e-19)
(15.2402 -8.03586 2.95079e-19)
(15.0202 -8.42873 -6.75561e-19)
(14.7901 -8.81562 2.75605e-20)
(14.55 -9.19628 -1.29152e-18)
(14.3002 -9.57047 1.9657e-18)
(14.0409 -9.93796 -6.44381e-19)
(13.7723 -10.2986 -8.5036e-19)
(13.4945 -10.6521 -1.27272e-19)
(13.208 -10.9985 -1.67417e-20)
(12.9123 -11.3381 -6.65043e-19)
(12.6102 -11.6699 1.16633e-18)
(17.063 -0.230063 2.57794e-20)
(17.0403 -0.678313 3.73371e-20)
(17.0053 -1.12427 8.46056e-21)
(16.9588 -1.56812 -3.31508e-19)
(16.9008 -2.01 -2.97309e-19)
(16.8314 -2.44973 2.62223e-19)
(16.7504 -2.88707 3.24914e-19)
(16.658 -3.32175 1.72504e-19)