/*--------------------------------*- C++ -*----------------------------------*\
  =========                 |
  \\      /  F ield         | OpenFOAM: The Open Source CFD Toolbox
   \\    /   O peration     | Website:  https://openfoam.org
    \\  /    A nd           | Version:  6.0
     \\/     M anipulation  |
\*---------------------------------------------------------------------------*/
FoamFile
{
    version     2.0;
    format      ascii;
    class       volVectorField;
    location    "10.5";
    object      U;
}
// * * * * * * * * * * * * * * * * * * * * * * * * * * * * * * * * * * * * * //

dimensions      [0 1 -1 0 0 0 0];

internalField   nonuniform List<vector> 
19200
(
(0.269494 -9.63451 -2.05887e-20)
(0.124943 -9.0973 9.83393e-21)
(0.137026 -8.68242 4.60737e-21)
(0.169213 -8.35682 4.12282e-21)
(0.197122 -8.09473 4.61418e-21)
(0.227896 -7.87606 2.81595e-22)
(0.26092 -7.68632 7.81016e-22)
(0.294292 -7.51529 -4.95832e-22)
(0.327007 -7.35594 5.72806e-21)
(0.358438 -7.20356 2.38379e-21)
(0.388144 -7.05515 -1.3248e-23)
(0.415856 -6.90893 3.7778e-21)
(0.441442 -6.76393 6.2534e-21)
(0.464875 -6.61977 -4.25512e-21)
(0.4862 -6.47644 5.41606e-21)
(0.505515 -6.33412 4.67529e-21)
(0.522951 -6.19316 -4.40315e-21)
(0.538658 -6.05391 7.50341e-21)
(0.552797 -5.91676 -4.78633e-21)
(0.565531 -5.78206 2.38491e-21)
(0.577019 -5.6501 3.35132e-21)
(0.587417 -5.5211 -1.09457e-21)
(0.596869 -5.39522 1.47289e-21)
(0.605509 -5.27252 -1.71596e-21)
(0.61346 -5.15299 3.73667e-21)
(0.620826 -5.0365 8.96157e-22)
(0.627693 -4.92288 -5.99382e-22)
(0.63415 -4.81185 3.5761e-22)
(0.640294 -4.70305 8.48934e-22)
(0.645965 -4.59605 3.19708e-21)
(0.521647 -9.62788 -4.69482e-21)
(0.364253 -9.10388 3.02766e-20)
(0.36605 -8.69672 -1.60557e-20)
(0.390148 -8.3767 -2.20842e-20)
(0.411583 -8.11885 -1.00442e-20)
(0.436922 -7.90303 -7.19083e-21)
(0.465155 -7.71495 -1.46221e-20)
(0.494115 -7.54461 1.97003e-21)
(0.522623 -7.38519 -3.21192e-21)
(0.549942 -7.23216 -1.15155e-20)
(0.575568 -7.08267 -2.88975e-20)
(0.599199 -6.93507 1.40659e-20)
(0.620695 -6.78852 -5.27115e-21)
(0.640033 -6.6427 1.99146e-21)
(0.657269 -6.49769 -1.20977e-20)
(0.672516 -6.35372 -4.44537e-21)
(0.685923 -6.21117 5.05408e-22)
(0.697655 -6.07043 1.50631e-20)
(0.707889 -5.9319 -7.92179e-21)
(0.716799 -5.79594 -4.38646e-21)
(0.724556 -5.66285 -1.7195e-20)
(0.731322 -5.53286 4.41411e-21)
(0.737247 -5.40611 -2.7674e-21)
(0.742468 -5.28268 4.89973e-21)
(0.747106 -5.16254 -6.12993e-21)
(0.751266 -5.04555 -3.52901e-21)
(0.755024 -4.93152 1.15181e-21)
(0.758474 -4.82015 1.78615e-21)
(0.761749 -4.71105 -3.15999e-21)
(0.764581 -4.60375 1.48175e-21)
(0.773673 -9.61524 -2.23342e-21)
(0.603706 -9.10451 6.17285e-21)
(0.595714 -8.70521 9.73938e-21)
(0.612105 -8.39094 7.68514e-20)
(0.627317 -8.13744 -4.46649e-20)
(0.647385 -7.92456 4.06818e-20)
(0.67092 -7.73819 -3.66846e-20)
(0.695506 -7.5686 1.97094e-20)
(0.7198 -7.40915 -1.87137e-20)
(0.742967 -7.25551 -2.03492e-21)
(0.76445 -7.10499 4.71886e-20)
(0.783923 -6.95608 7.90563e-21)
(0.801244 -6.80805 -2.18462e-20)
(0.816396 -6.66067 1.71074e-20)
(0.829452 -6.51406 -4.34586e-23)
(0.840544 -6.36854 7.28623e-21)
(0.849838 -6.22451 5.22574e-21)
(0.857518 -6.08238 1.76279e-20)
(0.863775 -5.94259 -7.75307e-21)
(0.868798 -5.80548 -2.53816e-21)
(0.872767 -5.67138 -6.72262e-21)
(0.875852 -5.54051 2.98412e-20)
(0.878208 -5.41303 -2.49188e-20)
(0.879974 -5.28898 8.07278e-21)
(0.881272 -5.16834 1.86259e-20)
(0.882201 -5.05097 -1.51711e-20)
(0.882832 -4.93664 2.02333e-20)
(0.883263 -4.82505 -2.17362e-21)
(0.883655 -4.71575 -2.28336e-21)
(0.883626 -4.60828 -1.49425e-20)
(1.02531 -9.59633 -7.458e-20)
(0.843247 -9.09916 -6.54412e-20)
(0.825907 -8.70791 -8.04746e-20)
(0.834946 -8.39954 2.24647e-21)
(0.844186 -8.15049 4.87382e-21)
(0.859144 -7.94061 -9.12229e-20)
(0.87807 -7.75601 -4.52482e-20)
(0.898313 -7.58719 1.18877e-20)
(0.918383 -7.42775 -2.01548e-21)
(0.937358 -7.27355 2.04005e-20)
(0.954634 -7.12206 -8.05387e-20)
(0.969873 -6.97191 -5.0252e-20)
(0.982932 -6.82247 1.86411e-20)
(0.99381 -6.67361 3.71629e-20)
(1.0026 -6.52552 -4.30741e-20)
(1.00945 -6.37855 -6.75446e-21)
(1.01455 -6.23315 -2.54809e-20)
(1.01811 -6.08976 -1.20003e-20)
(1.02032 -5.94881 2.01651e-20)
(1.0214 -5.81068 -2.57809e-20)
(1.02152 -5.67569 2.24507e-20)
(1.02088 -5.54406 -2.65692e-20)
(1.01963 -5.41595 -2.09017e-20)
(1.01791 -5.2914 -1.50031e-20)
(1.01585 -5.17038 1.73783e-20)
(1.01353 -5.05273 -3.08508e-20)
(1.01102 -4.93823 3.20053e-21)
(1.00842 -4.82653 5.53598e-21)
(1.00593 -4.71716 -1.60849e-20)
(1.00302 -4.60964 3.20636e-21)
(1.27647 -9.57107 -4.4215e-20)
(1.08285 -9.08782 6.27993e-21)
(1.05656 -8.70482 5.55586e-20)
(1.05856 -8.40246 5.83498e-20)
(1.06206 -8.15795 4.2144e-20)
(1.07206 -7.95113 1.74637e-20)
(1.08646 -7.76832 1.07282e-20)
(1.10239 -7.60031 1.23796e-19)
(1.11822 -7.44092 -7.41411e-20)
(1.13296 -7.2862 2.08096e-21)
(1.14596 -7.1338 1.78165e-20)
(1.15689 -6.98248 7.70131e-20)
(1.1656 -6.83171 -5.23083e-20)
(1.17212 -6.68147 3.75807e-20)
(1.17656 -6.532 -4.17235e-20)
(1.17909 -6.3837 7.15104e-20)
(1.17992 -6.23704 -2.1041e-20)
(1.17928 -6.09251 7.6859e-22)
(1.17738 -5.95053 3.38917e-20)
(1.17446 -5.8115 2.37548e-20)
(1.1707 -5.67574 -2.41827e-20)
(1.16629 -5.54347 3.26556e-20)
(1.1614 -5.41485 -1.48658e-20)
(1.15617 -5.28992 1.71474e-20)
(1.15072 -5.16863 1.903e-20)
(1.14514 -5.05083 8.36589e-21)
(1.13948 -4.93626 2.54761e-20)
(1.13385 -4.82457 -9.10266e-21)
(1.12847 -4.71525 -3.00954e-21)
(1.12267 -4.6078 -1.39504e-20)
(1.52701 -9.53942 -3.21502e-20)
(1.32241 -9.07045 -2.0531e-20)
(1.28756 -8.69589 -6.28731e-20)
(1.28283 -8.39967 -1.64512e-19)
(1.28081 -8.15976 5.50697e-20)
(1.28599 -7.95603 3.60659e-21)
(1.29594 -7.77505 7.58195e-22)
(1.30757 -7.60788 7.50041e-21)
(1.31915 -7.44857 -5.33624e-21)
(1.32961 -7.29339 -9.62092e-20)
(1.33828 -7.14014 4.03097e-20)
(1.34481 -6.98772 6.94368e-20)
(1.3491 -6.83573 1.76269e-22)
(1.35117 -6.6842 2.56322e-20)
(1.35117 -6.53346 6.34123e-20)
(1.3493 -6.38394 -4.36567e-20)
(1.34579 -6.23615 7.65973e-20)
(1.34089 -6.09059 -3.65757e-20)
(1.33483 -5.94771 6.47314e-20)
(1.32785 -5.80791 -4.85785e-20)
(1.32016 -5.6715 2.15984e-20)
(1.31195 -5.53872 5.66884e-20)
(1.30339 -5.40971 3.24604e-21)
(1.29462 -5.28451 -5.24892e-20)
(1.28577 -5.16307 2.88665e-20)
(1.27692 -5.04523 8.80737e-21)
(1.26811 -4.93072 -9.44548e-21)
(1.25946 -4.81916 3.59615e-20)
(1.25119 -4.71 1.26686e-20)
(1.24249 -4.60275 -1.19102e-20)
(1.77679 -9.50135 9.05685e-20)
(1.5618 -9.047 -1.46705e-21)
(1.51878 -8.68108 -1.27647e-19)
(1.50762 -8.39111 2.60852e-20)
(1.5003 -8.15586 -3.64319e-20)
(1.50079 -7.95526 2.65229e-20)
(1.50635 -7.77613 -1.26633e-20)
(1.51372 -7.60983 1.06635e-19)
(1.52102 -7.45065 -1.15363e-19)
(1.52715 -7.29505 2.82388e-20)
(1.53141 -7.14102 -1.98553e-20)
(1.53348 -6.98759 1.45085e-20)
(1.53325 -6.83445 -6.43448e-20)
(1.5308 -6.68175 -4.20057e-21)
(1.52628 -6.52984 1.03367e-19)
(1.51993 -6.37923 -7.11616e-20)
(1.51201 -6.23044 -4.50089e-20)
(1.50279 -6.08399 -3.27085e-20)
(1.49251 -5.94034 5.93538e-20)
(1.48143 -5.79989 1.27815e-20)
(1.46977 -5.66297 -5.83779e-20)
(1.45773 -5.5298 7.77366e-20)
(1.44548 -5.40052 -7.01902e-20)
(1.43316 -5.27517 4.6415e-20)
(1.4209 -5.1537 -2.63501e-20)
(1.40877 -5.03594 7.96846e-21)
(1.39681 -4.9216 1.28139e-20)
(1.38513 -4.81028 -5.73698e-20)
(1.374 -4.7014 2.46325e-20)
(1.3624 -4.59448 3.90513e-22)
(2.02564 -9.45687 -8.88316e-20)
(1.80089 -9.01745 6.99192e-20)
(1.75011 -8.66036 -1.31145e-19)
(1.7328 -8.37673 2.50338e-19)
(1.72038 -8.1462 -7.0212e-20)
(1.71631 -7.94874 1.00206e-19)
(1.71756 -7.77149 7.86785e-20)
(1.72066 -7.60609 -1.39057e-20)
(1.72367 -7.44708 -2.02427e-20)
(1.72541 -7.29112 -2.22184e-22)
(1.7252 -7.13638 -7.81976e-20)
(1.72273 -6.98202 4.07801e-20)
(1.71791 -6.82784 -4.91167e-20)
(1.71084 -6.67407 -3.88925e-21)
(1.70173 -6.52113 -1.37515e-19)
(1.69084 -6.36955 4.49982e-20)
(1.67844 -6.21989 2.59919e-20)
(1.66484 -6.07267 -2.94468e-20)
(1.65029 -5.92839 -3.45554e-21)
(1.63507 -5.78743 -4.51231e-20)
(1.61941 -5.65011 -1.61353e-20)
(1.6035 -5.51668 1.43093e-21)
(1.58754 -5.38726 -3.93713e-20)
(1.57166 -5.26189 -5.85114e-20)
(1.55598 -5.1405 2.49045e-21)
(1.54057 -5.02293 8.25666e-21)
(1.52547 -4.90888 1.84589e-20)
(1.51078 -4.79792 -4.55726e-20)
(1.49679 -4.68943 3.88148e-20)
(1.4823 -4.58297 -7.13858e-20)
(2.2734 -9.40598 -2.19527e-19)
(2.03952 -8.98179 2.58153e-19)
(1.98139 -8.63368 -2.73963e-19)
(1.95822 -8.35649 -7.43639e-20)
(1.9409 -8.13071 -4.7706e-20)
(1.93241 -7.93643 -5.2074e-20)
(1.92939 -7.76108 -1.1929e-19)
(1.92824 -7.5966 -1.01497e-20)
(1.92691 -7.4378 -4.81661e-20)
(1.92422 -7.28154 -1.01193e-20)
(1.91948 -7.12616 8.11625e-20)
(1.91238 -6.97096 -4.61564e-20)
(1.90289 -6.81586 -5.46507e-20)
(1.89114 -6.66113 -9.22731e-20)
(1.87736 -6.50728 1.93901e-19)
(1.86185 -6.35486 -7.44287e-20)
(1.84492 -6.20446 2.77959e-20)
(1.82688 -6.05663 -1.03746e-19)
(1.80803 -5.91184 3.99122e-20)
(1.78863 -5.7705 -1.63477e-20)
(1.76893 -5.63293 2.06085e-20)
(1.74914 -5.49936 -7.07421e-21)
(1.72945 -5.36992 6.4741e-20)
(1.70999 -5.24465 -2.29251e-20)
(1.69089 -5.12347 6.35717e-20)
(1.67221 -5.00621 -1.29556e-19)
(1.65397 -4.89256 8.27148e-20)
(1.6363 -4.78208 2.28468e-20)
(1.61947 -4.6741 4.28075e-20)
(1.60211 -4.56823 -1.26119e-19)
(2.51991 -9.34871 3.46666e-19)
(2.27754 -8.93999 -6.50457e-20)
(2.21247 -8.60101 1.17908e-19)
(2.18374 -8.33033 -3.35136e-20)
(2.16173 -8.10934 1.17796e-19)
(2.14891 -7.91826 1.11818e-19)
(2.14168 -7.74483 5.3222e-20)
(2.13628 -7.58131 -1.95914e-20)
(2.1306 -7.42275 -1.22109e-19)
(2.12342 -7.26626 1.78856e-19)
(2.11407 -7.11032 -1.38847e-20)
(2.10227 -6.95438 1.26053e-19)
(2.08803 -6.79845 4.57716e-20)
(2.07152 -6.6429 1.67556e-20)
(2.053 -6.48826 2.63937e-20)
(2.03282 -6.33515 3.67681e-20)
(2.0113 -6.18415 6.11459e-20)
(1.98878 -6.03583 -1.75975e-20)
(1.96557 -5.89068 9.01017e-20)
(1.94196 -5.74911 4.14946e-20)
(1.9182 -5.61141 -8.64975e-20)
(1.89451 -5.47784 1.53502e-19)
(1.87108 -5.3485 -2.027e-19)
(1.84805 -5.22345 1.91688e-19)
(1.82553 -5.10259 -6.34766e-20)
(1.80358 -4.98576 -2.62004e-20)
(1.78222 -4.87263 -6.80387e-21)
(1.76157 -4.76274 4.68486e-20)
(1.74194 -4.6554 1.68071e-20)
(1.72172 -4.55024 -1.93645e-20)
(2.765 -9.28507 -1.97466e-19)
(2.5148 -8.89204 1.88213e-19)
(2.44321 -8.56233 -5.12067e-20)
(2.4092 -8.29822 1.47588e-19)
(2.38268 -8.08205 1.46061e-20)
(2.36566 -7.89418 3.19292e-20)
(2.35427 -7.72268 -2.54933e-19)
(2.34462 -7.56015 1.19318e-19)
(2.33455 -7.40189 1.64183e-19)
(2.32282 -7.24523 1.2484e-19)
(2.30879 -7.08882 -2.12588e-19)
(2.29222 -6.93224 1.23911e-19)
(2.27316 -6.77561 -1.23683e-19)
(2.25181 -6.61935 8.51595e-20)
(2.2285 -6.46407 -1.42612e-19)
(2.20358 -6.31039 -1.05871e-19)
(2.17741 -6.15894 6.53566e-21)
(2.15037 -6.01029 -4.84934e-20)
(2.12277 -5.86492 8.62259e-20)
(2.09493 -5.72324 3.43869e-20)
(2.06709 -5.58556 -2.25284e-20)
(2.03949 -5.45211 -6.52686e-21)
(2.0123 -5.32301 2.66684e-20)
(1.98569 -5.19829 -8.90993e-20)
(1.95976 -5.07788 1.47923e-19)
(1.93456 -4.96159 -3.60662e-20)
(1.9101 -4.8491 -6.16902e-20)
(1.8865 -4.73992 1.29206e-19)
(1.86409 -4.63332 1.73805e-20)
(1.84105 -4.52901 -1.72985e-20)
(3.00851 -9.2151 7.89103e-21)
(2.75113 -8.83794 -1.04688e-19)
(2.67344 -8.5176 -9.63633e-20)
(2.63444 -8.26012 -1.60103e-19)
(2.60361 -8.04878 5.59375e-21)
(2.5825 -7.86414 -1.15636e-19)
(2.56699 -7.69459 1.36802e-19)
(2.55309 -7.53308 -6.76755e-20)
(2.53858 -7.37517 1.10858e-19)
(2.52225 -7.2184 -9.15312e-20)
(2.50348 -7.06162 -4.70153e-20)
(2.48207 -6.90451 2.57362e-20)
(2.45811 -6.74729 1.39339e-20)
(2.43186 -6.59046 -1.41772e-19)
(2.40368 -6.43467 8.34661e-20)
(2.37396 -6.28057 -4.13636e-20)
(2.34311 -6.12882 1.1736e-19)
(2.31151 -5.97998 -3.86759e-20)
(2.27949 -5.83454 4.03168e-20)
(2.24739 -5.6929 1.00116e-20)
(2.21545 -5.55537 6.87664e-20)
(2.18393 -5.42218 -1.4013e-20)
(2.15299 -5.29343 1.13127e-19)
(2.1228 -5.16918 -1.25928e-19)
(2.09346 -5.04933 -4.27007e-20)
(2.06503 -4.93369 3.49045e-20)
(2.03749 -4.82196 -3.5719e-21)
(2.01098 -4.71361 -9.59216e-20)
(1.98582 -4.60787 4.92425e-20)
(1.95999 -4.50455 -5.47921e-20)
(3.25027 -9.13881 3.33363e-19)
(2.98639 -8.7777 8.73842e-20)
(2.90301 -8.46682 1.05301e-19)
(2.85931 -8.21599 1.42335e-19)
(2.82436 -8.0095 2.14264e-19)
(2.79924 -7.82809 -6.51424e-21)
(2.77965 -7.66051 3.11555e-20)
(2.76149 -7.50005 3.64805e-19)
(2.74252 -7.34255 1.05209e-19)
(2.72153 -7.18576 -8.87037e-20)
(2.69794 -7.02868 1.56041e-19)
(2.67162 -6.87115 2.63623e-20)
(2.64269 -6.71347 1.31921e-21)
(2.61148 -6.55622 3.72895e-20)
(2.57838 -6.40006 6.6577e-20)
(2.54382 -6.2457 -1.36909e-19)
(2.50824 -6.09379 1.16509e-19)
(2.47204 -5.94491 1.95719e-20)
(2.43558 -5.79954 1.1362e-19)
(2.3992 -5.65809 -6.16735e-20)
(2.36316 -5.52085 1.01642e-19)
(2.3277 -5.38805 -1.08146e-19)
(2.29301 -5.25979 1.04503e-19)
(2.25925 -5.13612 1.45805e-20)
(2.22652 -5.01695 -7.01897e-20)
(2.19487 -4.90209 -2.2922e-20)
(2.16427 -4.79122 1.34337e-19)
(2.13488 -4.68382 -2.0288e-20)
(2.10702 -4.57905 2.60019e-20)
(2.07844 -4.47684 -1.69328e-20)
(3.49013 -9.05626 3.36999e-20)
(3.2204 -8.7113 7.60578e-20)
(3.13176 -8.40996 3.10574e-19)
(3.08364 -8.16582 -5.06591e-19)
(3.04474 -7.96418 -5.01983e-20)
(3.01573 -7.786 -5.46662e-20)
(2.99209 -7.6204 2.4298e-20)
(2.96966 -7.46102 3.23497e-20)
(2.94618 -7.30399 8.15373e-20)
(2.92047 -7.14725 -1.45157e-19)
(2.89201 -6.98999 -2.81649e-20)
(2.8607 -6.83216 8.08939e-20)
(2.82674 -6.67415 8.72223e-20)
(2.7905 -6.51661 -8.71308e-20)
(2.75243 -6.36024 -8.60202e-20)
(2.71299 -6.20576 1.39528e-19)
(2.67264 -6.05385 9.08866e-20)
(2.63181 -5.90509 -2.35222e-20)
(2.5909 -5.75995 -5.80659e-20)
(2.55022 -5.61882 1.04601e-20)
(2.51006 -5.48202 -1.33759e-19)
(2.47067 -5.34973 1.61057e-19)
(2.43224 -5.22209 -1.10088e-19)
(2.39492 -5.09912 -4.6216e-21)
(2.35881 -4.98074 7.24224e-20)
(2.32395 -4.86677 -2.2579e-20)
(2.29033 -4.75689 -6.82078e-20)
(2.25809 -4.65054 1.06015e-20)
(2.22759 -4.54688 -2.81905e-21)
(2.1963 -4.44592 1.32448e-20)
(3.72791 -8.96748 -2.51198e-20)
(3.45301 -8.63878 -7.95766e-20)
(3.35953 -8.34702 -3.57689e-19)
(3.30726 -8.10957 1.28574e-19)
(3.2646 -7.91277 -3.91509e-20)
(3.23178 -7.73782 1.28598e-19)
(3.20413 -7.57423 9.42199e-21)
(3.17741 -7.41597 -1.48252e-19)
(3.14938 -7.25947 1.27164e-20)
(3.1189 -7.10287 -2.0199e-19)
(3.08549 -6.94553 -7.93598e-21)
(3.04914 -6.78752 4.87942e-20)
(3.01008 -6.62932 -8.42079e-20)
(2.96876 -6.47163 9.5638e-20)
(2.92566 -6.3152 -1.82538e-19)
(2.88129 -6.16077 -4.1163e-20)
(2.83615 -6.00901 1.1002e-19)
(2.79068 -5.86052 -1.47936e-22)
(2.74528 -5.71575 -6.94103e-20)
(2.7003 -5.57511 1.88344e-19)
(2.65603 -5.43887 -1.00921e-19)
(2.61271 -5.30724 -1.35178e-19)
(2.57054 -5.18034 4.49912e-20)
(2.52966 -5.05819 -1.30878e-19)
(2.49019 -4.94072 -3.14901e-20)
(2.45216 -4.82776 -4.00719e-21)
(2.41554 -4.71898 -8.50284e-20)
(2.3805 -4.6138 1.01729e-19)
(2.34739 -4.51135 -3.61949e-20)
(2.31346 -4.41177 5.97178e-20)
(3.96346 -8.87251 -1.18135e-19)
(3.68405 -8.56014 -3.18377e-19)
(3.58614 -8.27799 1.54264e-19)
(3.53001 -8.04724 -1.46762e-19)
(3.48375 -7.85527 -1.0881e-19)
(3.44722 -7.68354 -6.28793e-20)
(3.41557 -7.52196 -2.30132e-19)
(3.38455 -7.36487 1.56169e-19)
(3.35193 -7.20896 -2.7926e-19)
(3.31662 -7.05259 -3.88147e-19)
(3.27821 -6.89529 5.03512e-20)
(3.23674 -6.73722 8.33581e-20)
(3.19254 -6.57897 -1.44057e-21)
(3.14608 -6.42128 -1.58583e-19)
(3.09791 -6.26495 3.69575e-20)
(3.04859 -6.11072 -1.43164e-19)
(2.99862 -5.95928 -1.02752e-19)
(2.94849 -5.81121 -6.1557e-20)
(2.8986 -5.66698 -1.22229e-20)
(2.84931 -5.52696 1.04667e-19)
(2.80092 -5.39143 1.49356e-19)
(2.75368 -5.2606 -4.47355e-20)
(2.70777 -5.13456 -4.28945e-20)
(2.66336 -5.01335 8.33371e-20)
(2.62055 -4.89691 4.62884e-20)
(2.57937 -4.78506 -3.66471e-20)
(2.53979 -4.67749 -4.07824e-20)
(2.50199 -4.5736 4.63272e-21)
(2.46632 -4.47249 3.64454e-20)
(2.4298 -4.37443 -5.32049e-20)
(4.19661 -8.77141 -2.29433e-20)
(3.91336 -8.4754 4.01733e-19)
(3.81145 -8.20288 3.09871e-19)
(3.75173 -7.97882 2.41039e-19)
(3.70203 -7.79165 -1.56282e-19)
(3.66186 -7.62313 -3.12904e-20)
(3.62624 -7.46358 2.86157e-20)
(3.59091 -7.3077 1.9778e-19)
(3.55365 -7.15245 7.42766e-20)
(3.51345 -6.99641 1.12891e-19)
(3.46997 -6.83925 -2.48743e-19)
(3.42333 -6.68127 2.54744e-20)
(3.37392 -6.52311 1.0059e-19)
(3.32229 -6.36558 6.11949e-20)
(3.26901 -6.2095 1.27302e-19)
(3.2147 -6.05564 -8.67537e-20)
(3.15989 -5.90468 -8.02488e-20)
(3.10508 -5.75719 1.54752e-20)
(3.05069 -5.61364 1.70425e-19)
(2.9971 -5.4744 -2.74577e-19)
(2.9446 -5.33972 9.55527e-20)
(2.89344 -5.20981 -6.6801e-22)
(2.84382 -5.08477 1.79536e-19)
(2.79588 -4.96462 -7.767e-20)
(2.74975 -4.84931 -4.16078e-21)
(2.70544 -4.73869 -4.90858e-20)
(2.66293 -4.63244 -4.32568e-20)
(2.62241 -4.52996 9.1381e-21)
(2.58425 -4.43029 -1.06243e-19)
(2.54521 -4.3339 1.58087e-19)
(4.42721 -8.66423 -4.34944e-19)
(4.14079 -8.3846 -2.44135e-19)
(4.03528 -8.12171 -6.23749e-19)
(3.97223 -7.90429 -2.82486e-19)
(3.91926 -7.72189 2.62717e-19)
(3.87553 -7.55658 -1.54415e-19)
(3.83595 -7.39907 -3.67188e-20)
(3.79627 -7.24444 -1.01397e-19)
(3.75434 -7.08992 1.70882e-19)
(3.7092 -6.93431 -1.57871e-19)
(3.6606 -6.77742 1.89462e-20)
(3.60873 -6.61966 -7.67831e-21)
(3.55406 -6.46175 -2.46129e-19)
(3.49721 -6.30453 -9.84581e-21)
(3.4388 -6.14887 6.52202e-20)
(3.37947 -5.99554 -7.17885e-21)
(3.3198 -5.84522 -2.49908e-19)
(3.26031 -5.69847 2.42573e-19)
(3.20143 -5.55577 -2.37369e-19)
(3.14353 -5.41744 9.24267e-20)
(3.08693 -5.28376 1.29936e-20)
(3.03186 -5.15491 5.26311e-21)
(2.97853 -5.03098 -9.66934e-20)
(2.92709 -4.91201 9.69395e-20)
(2.87766 -4.79795 -4.13011e-20)
(2.83025 -4.68866 4.49111e-20)
(2.78484 -4.58384 -2.39537e-19)
(2.74164 -4.48288 6.48786e-20)
(2.70105 -4.38478 6.96564e-20)
(2.65957 -4.29019 7.044e-20)
(4.65508 -8.55103 8.46041e-19)
(4.36615 -8.28776 2.80265e-19)
(4.25747 -8.03447 1.6281e-19)
(4.19135 -7.82366 2.5762e-19)
(4.13526 -7.646 -3.23949e-20)
(4.08803 -7.48387 1.91947e-19)
(4.04452 -7.32842 4.2535e-19)
(4.00047 -7.17509 -5.43809e-20)
(3.95381 -7.02139 2.36371e-20)
(3.90368 -6.86631 4.93198e-19)
(3.8499 -6.70981 4.59305e-19)
(3.79275 -6.55241 6.73978e-20)
(3.73279 -6.39489 -2.46024e-20)
(3.67067 -6.23816 -2.14694e-21)
(3.6071 -6.08308 3.47017e-19)
(3.54274 -5.93044 1.33922e-20)
(3.4782 -5.78092 3.65976e-19)
(3.41402 -5.63509 -4.65322e-20)
(3.35065 -5.49337 -7.85371e-20)
(3.28846 -5.35612 1.82774e-19)
(3.22777 -5.22358 -1.66825e-19)
(3.16881 -5.09591 -1.79484e-19)
(3.11179 -4.97322 -1.60663e-20)
(3.05686 -4.85554 -7.92965e-20)
(3.00414 -4.74284 1.20013e-19)
(2.95365 -4.63498 1.40588e-20)
(2.90538 -4.5317 -4.96999e-20)
(2.85955 -4.43237 2.67903e-20)
(2.81658 -4.33597 1.77676e-19)
(2.77274 -4.24333 2.5e-20)
(4.88007 -8.43186 -1.45546e-19)
(4.58931 -8.18492 -2.80895e-19)
(4.47787 -7.9412 1.14487e-19)
(4.40893 -7.73695 -4.59483e-19)
(4.34986 -7.56397 2.16985e-19)
(4.29919 -7.40499 -3.9585e-19)
(4.25174 -7.25162 -2.58459e-19)
(4.2033 -7.09965 7.14836e-20)
(4.15188 -6.94684 6.94748e-20)
(4.0967 -6.7924 -3.40626e-19)
(4.03769 -6.63643 5.1659e-20)
(3.97522 -6.47953 5.63145e-20)
(3.90991 -6.32258 -1.83436e-19)
(3.84251 -6.16648 -7.25071e-20)
(3.77375 -6.01215 -4.84982e-20)
(3.70435 -5.86037 -4.85886e-20)
(3.63494 -5.71182 -2.01381e-19)
(3.56608 -5.56705 -1.25573e-19)
(3.49822 -5.42649 -2.69599e-20)
(3.43175 -5.29046 1.01915e-19)
(3.36698 -5.15919 1.37473e-19)
(3.30415 -5.03284 -1.49008e-19)
(3.24346 -4.91151 5.55124e-20)
(3.18506 -4.79523 -1.14858e-19)
(3.12907 -4.68399 1.07342e-19)
(3.07552 -4.57767 -1.41275e-19)
(3.02441 -4.47603 4.3877e-20)
(2.97599 -4.37845 -6.91753e-20)
(2.9307 -4.28386 -9.75472e-20)
(2.88458 -4.19332 -9.22421e-21)
(5.10203 -8.30681 -3.04354e-19)
(4.81011 -8.07614 -2.51208e-19)
(4.69631 -7.84192 -2.46e-19)
(4.6248 -7.64414 -1.80053e-19)
(4.56287 -7.47579 5.52167e-19)
(4.50882 -7.31996 7.64738e-20)
(4.45743 -7.16868 2.3312e-19)
(4.40458 -7.01812 3.54128e-19)
(4.34835 -6.8663 1.69159e-19)
(4.28807 -6.71262 -2.24037e-19)
(4.22378 -6.5573 3.56239e-19)
(4.15594 -6.40106 1.0344e-19)
(4.08527 -6.24482 3.23304e-19)
(4.01255 -6.08953 3.70664e-20)
(3.9386 -5.93612 8.12498e-20)
(3.86415 -5.78537 2.62831e-20)
(3.78987 -5.63795 -1.06118e-21)
(3.71633 -5.49441 -9.62219e-21)
(3.644 -5.35515 4.28205e-20)
(3.57327 -5.22048 1.4449e-19)
(3.50444 -5.09062 -1.60563e-19)
(3.43775 -4.96572 1.27034e-19)
(3.3734 -4.84587 4.41256e-21)
(3.31154 -4.7311 5.6986e-20)
(3.2523 -4.62142 1.03743e-19)
(3.19572 -4.51673 -1.79385e-20)
(3.14179 -4.41683 1.02313e-19)
(3.0908 -4.3211 1.47156e-19)
(3.04325 -4.22845 -1.59561e-19)
(2.99494 -4.14016 -8.84492e-20)
(5.3208 -8.17593 8.87872e-19)
(5.02839 -7.96146 -9.19156e-20)
(4.91265 -7.73666 1.89366e-19)
(4.83879 -7.54527 3.47128e-19)
(4.77412 -7.38148 -9.88409e-19)
(4.71673 -7.22877 1.05234e-19)
(4.6614 -7.07961 -3.71327e-19)
(4.6041 -6.93051 3.65484e-19)
(4.54302 -6.77978 -2.8969e-19)
(4.47761 -6.62697 1.54446e-19)
(4.408 -6.47245 -5.60606e-19)
(4.33476 -6.31703 2.10998e-20)
(4.25868 -6.16166 -6.05795e-19)
(4.18063 -6.00735 2.73254e-19)
(4.10147 -5.85502 1.40231e-19)
(4.02198 -5.70546 2.12394e-19)
(3.94284 -5.55935 -2.31735e-19)
(3.86464 -5.41719 -1.83529e-20)
(3.78785 -5.27938 1.81721e-20)
(3.71288 -5.14623 5.04363e-20)
(3.64001 -5.01791 -2.83057e-19)
(3.56948 -4.89458 -8.46655e-21)
(3.5015 -4.77632 -1.5692e-19)
(3.4362 -4.66317 -3.68597e-20)
(3.37372 -4.55514 -9.56068e-20)
(3.3141 -4.45217 -1.0394e-19)
(3.25737 -4.35411 -1.07617e-19)
(3.20385 -4.26033 1.77621e-19)
(3.15407 -4.16974 4.73901e-20)
(3.10367 -4.08385 -8.47725e-20)
(5.53623 -8.03931 -5.91082e-19)
(5.24402 -7.84095 2.04875e-19)
(5.12673 -7.62545 -3.48095e-19)
(5.05074 -7.44034 5.23883e-20)
(4.98343 -7.28104 5.5991e-19)
(4.92273 -7.13143 -2.82466e-19)
(4.86346 -6.98441 -2.92299e-19)
(4.80168 -6.83686 -2.49056e-19)
(4.73571 -6.6873 1.24482e-20)
(4.66511 -6.53549 1.58033e-19)
(4.59014 -6.38192 -1.13988e-19)
(4.51147 -6.22746 5.75748e-21)
(4.42997 -6.07314 2.52568e-19)
(4.34659 -5.91998 1.57328e-19)
(4.26222 -5.7689 4.46157e-20)
(4.17768 -5.62071 -1.38919e-19)
(4.0937 -5.47605 5.25394e-20)
(4.01086 -5.33543 1.14435e-19)
(3.92965 -5.19923 1.27013e-19)
(3.85045 -5.06772 -1.39178e-19)
(3.77357 -4.94108 2.11554e-20)
(3.69923 -4.81945 1.18108e-19)
(3.62763 -4.70289 2.04242e-19)
(3.55891 -4.59146 5.30332e-20)
(3.49319 -4.48517 -2.08629e-19)
(3.43055 -4.384 2.41975e-19)
(3.37101 -4.28784 -1.20914e-19)
(3.31496 -4.19611 -1.43675e-19)
(3.263 -4.10769 -8.80781e-20)
(3.21059 -4.02437 -1.08713e-19)
(5.7482 -7.89703 3.11342e-19)
(5.45688 -7.71467 -2.34954e-19)
(5.33843 -7.50833 9.00552e-20)
(5.26048 -7.32938 4.68415e-19)
(5.19061 -7.17449 1.25999e-19)
(5.12663 -7.02796 -1.07955e-19)
(5.0634 -6.88312 2.5927e-19)
(4.99712 -6.73717 6.08791e-20)
(4.92622 -6.5889 2.3976e-19)
(4.8504 -6.43822 1.31437e-19)
(4.77004 -6.28574 5.2537e-21)
(4.68591 -6.13241 8.15214e-20)
(4.59898 -5.9793 -2.58248e-20)
(4.51025 -5.82746 -2.2677e-19)
(4.42068 -5.67781 -3.28675e-20)
(4.33112 -5.53114 -6.68496e-20)
(4.24232 -5.3881 1.63487e-19)
(4.15486 -5.24918 1.65497e-19)
(4.06925 -5.11472 -1.88168e-19)
(3.98587 -4.985 1.9207e-19)
(3.905 -4.86017 4.06331e-19)
(3.82688 -4.74034 -2.61654e-19)
(3.75168 -4.6256 2.61495e-19)
(3.67954 -4.51597 -1.83296e-19)
(3.6106 -4.4115 -2.5672e-20)
(3.54492 -4.3122 1.94644e-19)
(3.48256 -4.21802 -3.95027e-20)
(3.42397 -4.12841 1.4542e-19)
(3.36985 -4.04227 1.43959e-19)
(3.31553 -3.96169 -2.6079e-19)
(5.95659 -7.74917 -3.00572e-19)
(5.66687 -7.58268 1.32414e-19)
(5.5476 -7.38532 5.49431e-20)
(5.46785 -7.21238 -5.45113e-19)
(5.39549 -7.06183 -2.80599e-19)
(5.32823 -6.91838 2.08581e-19)
(5.26104 -6.77575 -5.76323e-19)
(5.19022 -6.63149 6.90111e-19)
(5.11436 -6.48462 -3.86069e-19)
(5.03329 -6.3352 4.59302e-20)
(4.94751 -6.18397 -7.29126e-20)
(4.8579 -6.03194 -2.1539e-19)
(4.76553 -5.88021 4.41597e-19)
(4.67147 -5.72986 1.65261e-19)
(4.57671 -5.5818 2.12227e-19)
(4.48216 -5.43683 4.26852e-21)
(4.38856 -5.29556 9.34425e-20)
(4.29652 -5.15848 -2.03044e-19)
(4.20655 -5.02592 4.24542e-20)
(4.11902 -4.89811 1.38297e-19)
(4.0342 -4.7752 -5.83412e-20)
(3.95232 -4.6573 9.47947e-20)
(3.87354 -4.54446 -1.86736e-19)
(3.798 -4.43672 2.67917e-19)
(3.72582 -4.33414 6.19232e-20)
(3.65709 -4.23676 -1.68992e-19)
(3.59188 -4.1446 -1.45574e-19)
(3.53072 -4.05717 2.95184e-22)
(3.47441 -3.9734 1.99209e-19)
(3.41822 -3.89575 -4.37929e-20)
(6.16134 -7.59579 -8.31706e-20)
(5.87388 -7.44502 -5.5109e-19)
(5.7541 -7.25644 6.54117e-19)
(5.67267 -7.08936 4.39373e-19)
(5.59786 -6.94309 4.35333e-19)
(5.52734 -6.80271 1.19391e-19)
(5.45617 -6.66235 1.79326e-19)
(5.38079 -6.51987 8.97778e-20)
(5.29993 -6.37451 -3.58187e-19)
(5.21358 -6.2265 6.49991e-19)
(5.12236 -6.07666 -5.1824e-19)
(5.02727 -5.92609 -3.42292e-20)
(4.92947 -5.77593 7.44196e-20)
(4.83008 -5.62723 -3.27413e-19)
(4.73017 -5.48094 5.14137e-19)
(4.63065 -5.33783 9.69825e-20)
(4.53229 -5.19849 -2.16439e-19)
(4.43572 -5.0634 8.25882e-20)
(4.34143 -4.93285 -1.59552e-19)
(4.24979 -4.80708 -1.40422e-19)
(4.16107 -4.68622 -1.48992e-19)
(4.07546 -4.57033 3.38394e-20)
(3.99313 -4.45949 1.86842e-20)
(3.9142 -4.35372 -3.60842e-19)
(3.83878 -4.25308 -1.36501e-19)
(3.76697 -4.15765 8.79288e-20)
(3.69885 -4.06753 1.0856e-19)
(3.63503 -3.9823 -1.49718e-19)
(3.57644 -3.90097 -5.69687e-20)
(3.51836 -3.82637 4.57247e-21)
(6.36245 -7.43697 -7.20233e-20)
(6.07787 -7.30175 3.5694e-19)
(5.95778 -7.1217 -1.01376e-19)
(5.87475 -6.96034 -1.23534e-19)
(5.79752 -6.81829 -6.72568e-19)
(5.72376 -6.68099 -1.46867e-19)
(5.64858 -6.54294 2.75144e-19)
(5.56862 -6.40233 -1.81665e-19)
(5.48274 -6.25862 -1.95292e-20)
(5.39108 -6.11216 -3.62626e-20)
(5.29441 -5.96389 1.9619e-19)
(5.19385 -5.81496 -3.06582e-19)
(5.09062 -5.66652 -2.03289e-19)
(4.98594 -5.51967 2.37072e-19)
(4.8809 -5.37531 -1.34135e-19)
(4.77645 -5.23421 6.34559e-20)
(4.67339 -5.09696 1.28419e-20)
(4.57235 -4.96399 -5.42672e-20)
(4.47379 -4.8356 1.98634e-19)
(4.37809 -4.71198 -1.80973e-19)
(4.28551 -4.59326 -1.45098e-19)
(4.19623 -4.47949 1.2657e-19)
(4.11038 -4.37071 -1.43541e-20)
(4.02807 -4.26697 -9.32581e-20)
(3.94942 -4.16831 8.2226e-20)
(3.87449 -4.07486 -2.54289e-19)
(3.80342 -3.98676 1.55028e-19)
(3.73682 -3.90371 -2.51935e-21)
(3.67584 -3.82479 -1.60505e-19)
(3.61588 -3.75315 2.20298e-19)
(6.56021 -7.27294 2.8762e-19)
(6.27888 -7.15294 -6.95578e-19)
(6.15851 -6.9811 -5.804e-20)
(6.07389 -6.82528 3.18773e-19)
(5.99427 -6.68741 -8.05113e-20)
(5.91725 -6.55323 -2.28917e-19)
(5.83806 -6.41758 1.04216e-19)
(5.75349 -6.27895 1.20452e-19)
(5.66257 -6.137 9.54675e-21)
(5.5656 -5.99226 1.45874e-19)
(5.46348 -5.84573 4.63935e-19)
(5.35744 -5.6986 -1.62219e-19)
(5.24882 -5.55208 4.06835e-20)
(5.13888 -5.40723 -1.07428e-19)
(5.02876 -5.26498 4.08141e-19)
(4.91945 -5.12606 -7.34013e-20)
(4.81174 -4.99104 1.08404e-19)
(4.70628 -4.86033 -1.82085e-19)
(4.60353 -4.73421 9.86115e-20)
(4.50384 -4.61286 1.48628e-19)
(4.40746 -4.49637 2.52104e-20)
(4.31455 -4.3848 9.88458e-20)
(4.22522 -4.27816 -8.12279e-20)
(4.13957 -4.17649 2.25605e-19)
(4.05768 -4.07985 -9.18173e-20)
(3.97962 -3.98837 3.34862e-19)
(3.90552 -3.90228 -9.66454e-20)
(3.83607 -3.82132 6.62954e-20)
(3.77261 -3.74464 -1.2506e-19)
(3.71091 -3.67608 2.13146e-19)
(6.75539 -7.10399 -6.31823e-19)
(6.4771 -6.99848 2.31771e-20)
(6.3561 -6.83446 -3.524e-19)
(6.26985 -6.68414 6.28553e-20)
(6.18785 -6.55048 1.8147e-20)
(6.10759 -6.41947 -3.01213e-19)
(6.02439 -6.28632 -5.63761e-19)
(5.9352 -6.14979 2.78434e-19)
(5.83923 -6.00976 -3.92608e-19)
(5.73694 -5.86688 -2.04825e-19)
(5.62938 -5.72226 -1.15704e-19)
(5.5179 -5.57712 -9.02303e-20)
(5.40391 -5.43268 1.43262e-21)
(5.28875 -5.29002 -3.2299e-19)
(5.17361 -5.15004 2.08091e-19)
(5.0595 -5.01345 -3.42706e-19)
(4.94723 -4.88081 -8.66106e-20)
(4.83742 -4.7525 9.79268e-20)
(4.73055 -4.62878 -3.91689e-20)
(4.62695 -4.50979 1.14703e-19)
(4.52685 -4.39562 8.77817e-20)
(4.43037 -4.2863 -2.19433e-19)
(4.33762 -4.18185 2.19587e-19)
(4.24865 -4.08227 -2.36108e-20)
(4.16351 -3.98764 -5.8455e-20)
(4.08225 -3.89812 -2.3109e-19)
(4.005 -3.81392 -1.22191e-19)
(3.93245 -3.73475 2.25525e-19)
(3.86598 -3.66018 -7.43441e-20)
(3.80202 -3.59596 -6.93165e-20)
(6.94834 -6.92929 2.75345e-19)
(6.67235 -6.8375 2.51674e-20)
(6.55023 -6.6815 -6.79645e-20)
(6.46232 -6.53693 -1.47671e-20)
(6.37804 -6.40762 -1.20348e-19)
(6.29459 -6.27988 4.07599e-19)
(6.20741 -6.14931 -1.89758e-19)
(6.1136 -6.015 1.24162e-19)
(6.01258 -5.87703 5.09244e-20)
(5.90497 -5.73618 1.80268e-19)
(5.79198 -5.59363 -6.841e-20)
(5.67508 -5.45066 3.86685e-19)
(5.55577 -5.30848 -3.28427e-20)
(5.43545 -5.16818 2.4603e-19)
(5.31536 -5.03063 -4.10967e-19)
(5.19652 -4.89653 -3.01825e-20)
(5.07975 -4.76642 2.61885e-19)
(4.96569 -4.64063 -1.62156e-19)
(4.8548 -4.51942 6.65287e-20)
(4.74739 -4.40289 1.13198e-19)
(4.64366 -4.29112 -1.64682e-19)
(4.54372 -4.18411 1.8081e-19)
(4.44763 -4.08184 -1.68754e-19)
(4.3554 -3.98434 3.66327e-20)
(4.26704 -3.89164 1.35459e-19)
(4.18254 -3.8039 9.35203e-20)
(4.10199 -3.72119 8.75389e-20)
(4.02581 -3.64324 6.463e-20)
(3.95438 -3.57086 -1.74265e-19)
(3.8852 -3.51188 -6.77096e-20)
(9.99156 0.0126618 3.58595e-21)
(9.98127 -0.250521 3.52107e-20)
(9.96467 -0.51208 1.22361e-19)
(9.94201 -0.772428 6.68644e-20)
(9.91286 -1.03168 -1.42087e-19)
(9.87698 -1.28979 4.29649e-20)
(9.83437 -1.54664 -4.49409e-20)
(9.78503 -1.8021 -1.1383e-19)
(9.72901 -2.056 5.99138e-20)
(9.66635 -2.3082 -6.9705e-20)
(9.5971 -2.5585 -6.98687e-20)
(9.52131 -2.80675 -1.49157e-19)
(9.43905 -3.05277 -4.30068e-19)
(9.3504 -3.2964 3.94439e-20)
(9.25544 -3.53747 -1.85105e-20)
(9.15423 -3.77582 -1.36789e-19)
(9.04686 -4.01129 2.90826e-19)
(8.93342 -4.24372 1.5906e-19)
(8.814 -4.47295 3.04791e-19)
(8.6887 -4.69885 1.49486e-19)
(8.55761 -4.92125 -3.37005e-19)
(8.42084 -5.14002 1.33556e-20)
(8.27849 -5.35501 -6.42823e-19)
(8.13068 -5.5661 9.77226e-19)
(7.97752 -5.77316 -3.21168e-19)
(7.81914 -5.97607 -4.19152e-19)
(7.65567 -6.17476 -6.1915e-20)
(7.48728 -6.36917 -6.92974e-21)
(7.31405 -6.55938 -3.2396e-19)
(7.13664 -6.74549 5.70964e-19)
(9.97158 -0.124742 1.35909e-20)
(9.95319 -0.386402 1.99355e-20)
(9.92756 -0.646388 4.82133e-21)
(9.89516 -0.904878 -1.75008e-19)
(9.85599 -1.1619 -1.57155e-19)
(9.81002 -1.41736 1.38943e-19)
(9.75728 -1.67111 1.71929e-19)
(9.69781 -1.92299 9.01082e-20)