/*--------------------------------*- C++ -*----------------------------------*\
  =========                 |
  \\      /  F ield         | OpenFOAM: The Open Source CFD Toolbox
   \\    /   O peration     | Website:  https://openfoam.org
    \\  /    A nd           | Version:  6.0
     \\/     M anipulation  |
\*---------------------------------------------------------------------------*/
FoamFile
{
    version     2.0;
    format      ascii;
    class       volScalarField;
    location    "5.0015";
    object      p;
}
// * * * * * * * * * * * * * * * * * * * * * * * * * * * * * * * * * * * * * //

dimensions      [0 2 -2 0 0 0 0];

internalField   nonuniform List<scalar> 
2400
(
-117.582
-86.9937
-67.4191
-53.2172
-42.0936
-33.4855
-26.8458
-21.6719
-17.5915
-14.4262
-118.459
-87.7515
-68.0716
-53.7964
-42.6269
-33.99
-27.33
-22.1384
-18.0424
-14.8716
-119.298
-88.4671
-68.6866
-54.3444
-43.1345
-34.4735
-27.7978
-22.5932
-18.4871
-15.3165
-120.086
-89.1341
-69.2585
-54.8558
-43.6101
-34.9277
-28.2385
-23.0244
-18.9159
-15.7577
-120.804
-89.7385
-69.7768
-55.3231
-44.05
-35.3511
-28.6493
-23.4253
-19.3184
-16.1823
-121.441
-90.2647
-70.2233
-55.7291
-44.4424
-35.7415
-29.0374
-23.8064
-19.6987
-16.5783
-121.996
-90.7018
-70.5762
-56.0428
-44.7523
-36.0691
-29.3894
-24.1768
-20.0833
-16.9776
-122.479
-91.0501
-70.8241
-56.236
-44.9278
-36.2564
-29.6132
-24.4593
-20.4512
-17.4577
-122.891
-91.3199
-70.9794
-56.3131
-44.9489
-36.234
-29.5668
-24.4451
-20.5958
-17.9213
-123.206
-91.5191
-71.0713
-56.3162
-44.8668
-36.0498
-29.2573
-24.023
-20.1645
-17.6282
-124.124
-124.193
-124.172
-124.105
-124.012
-123.9
-123.776
-123.647
-123.519
-123.383
-91.6677
-91.7813
-91.8372
-91.8557
-91.8486
-91.8239
-91.7891
-91.7504
-91.7067
-91.6415
-70.9465
-71.0505
-71.1122
-71.1419
-71.1481
-71.1408
-71.1311
-71.1265
-71.1249
-71.1161
-56.2046
-56.2722
-56.3017
-56.301
-56.2801
-56.2512
-56.2298
-56.2256
-56.2462
-56.2856
-44.836
-44.8633
-44.8534
-44.8134
-44.757
-44.6955
-44.652
-44.6381
-44.6755
-44.7604
-36.0904
-36.0834
-36.0388
-35.9629
-35.8724
-35.7757
-35.7068
-35.676
-35.7284
-35.8538
-29.3439
-29.3106
-29.2385
-29.1331
-29.0113
-28.8753
-28.7756
-28.7163
-28.7889
-28.9452
-24.0787
-24.0281
-23.9373
-23.8118
-23.6643
-23.4878
-23.3456
-23.2352
-23.3399
-23.5373
-19.921
-19.8614
-19.7625
-19.6315
-19.4717
-19.2661
-19.073
-18.8783
-18.988
-19.3042
-16.6629
-16.584
-16.4708
-16.3351
-16.1664
-15.9455
-15.6952
-15.391
-15.3382
-15.7672
-117.465
-118.584
-119.59
-120.511
-121.345
-122.077
-122.697
-123.205
-123.61
-123.917
-85.5505
-86.5443
-87.4658
-88.3127
-89.0745
-89.7416
-90.3116
-90.7869
-91.1717
-91.4673
-65.6449
-66.5257
-67.3493
-68.0984
-68.7596
-69.3303
-69.8138
-70.2151
-70.5366
-70.7807
-51.6818
-52.4792
-53.2169
-53.8736
-54.4395
-54.9187
-55.3184
-55.644
-55.8981
-56.0842
-40.9571
-41.6984
-42.3674
-42.9436
-43.4278
-43.8317
-44.1628
-44.4257
-44.623
-44.759
-32.708
-33.4252
-34.0443
-34.5504
-34.9654
-35.3094
-35.5866
-35.8
-35.9527
-36.0492
-26.3175
-27.0426
-27.632
-28.0793
-28.4381
-28.7348
-28.9688
-29.1436
-29.2625
-29.3299
-21.3099
-22.0322
-22.5984
-23.0075
-23.329
-23.5892
-23.7889
-23.9364
-24.0335
-24.0828
-17.5144
-18.1026
-18.5823
-18.9777
-19.2848
-19.5113
-19.6794
-19.8081
-19.8943
-19.9352
-15.1161
-15.3829
-15.5602
-15.9323
-16.2337
-16.4041
-16.5164
-16.6107
-16.6754
-16.6981
-8.86099
-11.6821
-15.3666
-20.0366
-26.0052
-33.7133
-43.6777
-56.5373
-74.9221
-105.15
-9.23244
-12.0879
-15.7976
-20.4995
-26.5104
-34.2737
-44.3123
-57.2747
-75.8002
-106.193
-9.64431
-12.5343
-16.2699
-21.0064
-27.0625
-34.8843
-45.0015
-58.0714
-76.7364
-107.278
-10.0999
-13.0211
-16.7808
-21.5533
-27.6572
-35.5404
-45.7402
-58.9234
-77.7345
-108.427
-10.592
-13.5482
-17.3336
-22.1431
-28.2947
-36.2393
-46.5228
-59.823
-78.7876
-109.641
-11.1121
-14.1023
-17.9153
-22.7652
-28.9671
-36.9747
-47.3434
-60.7638
-79.8863
-110.905
-11.6807
-14.7139
-18.55
-23.4323
-29.6781
-37.745
-48.1969
-61.7371
-81.0197
-112.206
-12.2865
-15.351
-19.2047
-24.1206
-30.4133
-38.54
-49.0735
-62.7309
-82.1743
-113.531
-13.0568
-16.1127
-19.9267
-24.8474
-31.1753
-39.3534
-49.9598
-63.729
-83.3342
-114.865
-13.9297
-16.8276
-20.6035
-25.5711
-31.9463
-40.1686
-50.8381
-64.711
-84.4736
-116.19
-7.29064
-9.36398
-12.5598
-16.93
-22.6121
-29.9648
-39.4443
-51.5822
-68.8488
-97.5862
-7.7287
-9.92267
-13.1386
-17.443
-23.045
-30.3382
-39.7841
-51.9166
-69.2213
-98.0569
-7.58348
-10.0471
-13.4223
-17.7864
-23.4024
-30.6974
-40.1487
-52.3016
-69.6568
-98.582
-7.48083
-10.0612
-13.5346
-17.9766
-23.6573
-31.0055
-40.5043
-52.7117
-70.1469
-99.1845
-7.51817
-10.1368
-13.6514
-18.1398
-23.8765
-31.286
-40.8504
-53.137
-70.6812
-99.8585
-7.63041
-10.2842
-13.8295
-18.3474
-24.123
-31.5829
-41.2121
-53.5869
-71.2568
-100.591
-7.7833
-10.4779
-14.0567
-18.6045
-24.4154
-31.9208
-41.6121
-54.077
-71.8798
-101.379
-7.98192
-10.7129
-14.3227
-18.9021
-24.7511
-32.304
-42.0591
-54.6173
-72.5576
-102.225
-8.23106
-10.9918
-14.6279
-19.2381
-25.1269
-32.7303
-42.5531
-55.2094
-73.2938
-103.136
-8.52804
-11.3171
-14.9769
-19.6165
-25.5448
-33.2002
-43.0933
-55.8516
-74.0861
-104.115
-5.57749
-5.07326
-5.00761
-5.17553
-5.39063
-5.6466
-5.94562
-6.28743
-6.68546
-7.1248
-8.45989
-8.05139
-7.85825
-7.95527
-8.13412
-8.38974
-8.6948
-9.04912
-9.45594
-9.90209
-11.9521
-11.6436
-11.4597
-11.5088
-11.6591
-11.9081
-12.2177
-12.5849
-13.0038
-13.463
-16.4588
-16.1807
-16.0284
-16.0525
-16.1841
-16.4216
-16.731
-17.1061
-17.535
-18.0076
-22.23
-21.9743
-21.8461
-21.8623
-21.9889
-22.2212
-22.534
-22.9184
-23.361
-23.8517
-29.6455
-29.4211
-29.3143
-29.3342
-29.466
-29.7027
-30.0264
-30.4266
-30.8903
-31.4076
-39.1651
-38.9687
-38.8798
-38.9076
-39.0486
-39.2959
-39.6368
-40.0603
-40.5548
-41.1104
-51.314
-51.1219
-51.0333
-51.0603
-51.2051
-51.4626
-51.8235
-52.2776
-52.8143
-53.4215
-68.5346
-68.2982
-68.1751
-68.1806
-68.3166
-68.579
-68.9609
-69.4536
-70.0437
-70.7103
-97.1327
-96.7918
-96.597
-96.5559
-96.6659
-96.922
-97.318
-97.8458
-98.4857
-99.196
-7.59458
-8.07404
-8.56102
-9.05058
-9.53748
-9.98127
-10.3047
-10.5105
-10.7919
-11.0803
-10.379
-10.8685
-11.3654
-11.859
-12.3384
-12.7768
-13.1385
-13.394
-13.5506
-13.6911
-13.953
-14.4579
-14.9709
-15.4787
-15.9677
-16.4181
-16.8133
-17.1271
-17.3299
-17.4787
-18.5121
-19.0335
-19.5634
-20.088
-20.5931
-21.0625
-21.4842
-21.842
-22.122
-22.3591
-24.3765
-24.9202
-25.4733
-26.0222
-26.5533
-27.0519
-27.5063
-27.9078
-28.2598
-28.5885
-31.9628
-32.5395
-33.1271
-33.7129
-34.2841
-34.827
-35.3302
-35.7897
-36.2162
-36.6314
-41.7092
-42.3322
-42.969
-43.6073
-44.2354
-44.8406
-45.4134
-45.9523
-46.4691
-46.9814
-54.0773
-54.7586
-55.458
-56.1646
-56.8668
-57.5537
-58.2185
-58.8619
-59.4939
-60.1262
-71.4216
-72.1614
-72.9271
-73.7088
-74.494
-75.2737
-76.0454
-76.8133
-77.5825
-78.3484
-99.9243
-100.698
-101.514
-102.355
-103.208
-104.065
-104.93
-105.811
-106.705
-107.575
-108.369
-79.0902
-60.7544
-47.4943
-37.0484
-28.9249
-22.6296
-17.7213
-13.9425
-11.0738
-109.17
-79.8143
-61.3713
-48.0067
-37.4728
-29.2817
-22.9451
-18.0232
-14.2104
-11.2205
-110.003
-80.547
-61.9935
-48.5302
-37.9171
-29.6676
-23.29
-18.3293
-14.4539
-11.4014
-110.873
-81.2994
-62.6289
-49.07
-38.3838
-30.0818
-23.6681
-18.6799
-14.7773
-11.7113
-111.777
-82.0733
-63.2812
-49.6279
-38.8715
-30.518
-24.0656
-19.0457
-15.1117
-12.0297
-112.712
-82.8679
-63.9496
-50.2027
-39.3788
-30.9765
-24.4887
-19.4416
-15.4811
-12.3806
-113.677
-83.6819
-64.6319
-50.7915
-39.9022
-31.4525
-24.929
-19.8519
-15.8606
-12.7384
-114.672
-84.5129
-65.3253
-51.3912
-40.4393
-31.9459
-25.39
-20.2857
-16.2665
-13.1248
-115.681
-85.3545
-66.0269
-51.9994
-40.9871
-32.4524
-25.866
-20.7364
-16.6933
-13.5394
-116.667
-86.1909
-66.731
-52.6127
-41.5424
-32.969
-26.3545
-21.2018
-17.139
-13.9788
-6.98947
-2.59829
-1.57501
-0.982093
-0.720493
-0.581502
-0.497289
-0.427099
-0.352652
-0.26875
-0.186583
-0.118594
-0.0702031
-0.0393365
-0.0210656
-0.0107881
-0.00522345
-0.00229772
-0.000870663
1.49793e-05
-7.46084
-2.82774
-1.64478
-1.02578
-0.731897
-0.579926
-0.488922
-0.416718
-0.343983
-0.264143
-0.185998
-0.120517
-0.0730827
-0.042193
-0.0234576
-0.0126006
-0.00649636
-0.00311297
-0.00132108
-9.59122e-05
-7.94892
-3.09365
-1.73156
-1.07669
-0.748925
-0.581861
-0.483526
-0.408847
-0.337231
-0.260794
-0.186148
-0.122846
-0.0761714
-0.0451484
-0.0258917
-0.0144296
-0.00777381
-0.00393083
-0.00177116
-0.000208621
-8.47278
-3.38445
-1.82448
-1.13039
-0.770861
-0.587333
-0.481095
-0.403453
-0.332356
-0.258667
-0.187001
-0.125557
-0.0794565
-0.0481963
-0.0283646
-0.0162728
-0.00905574
-0.00475004
-0.0022216
-0.000323162
-9.00331
-3.65649
-1.90204
-1.17971
-0.796069
-0.596022
-0.48144
-0.400406
-0.329274
-0.257712
-0.188524
-0.128628
-0.0829251
-0.0513302
-0.0308733
-0.0181287
-0.0103414
-0.00557022
-0.00267242
-0.000439954
-9.46423
-3.89154
-1.97405
-1.2306
-0.826204
-0.608203
-0.484411
-0.399529
-0.327852
-0.257847
-0.190666
-0.132028
-0.0865591
-0.0545409
-0.0334135
-0.0199953
-0.0116299
-0.00639098
-0.0031236
-0.000559382
-9.93016
-4.25165
-2.13563
-1.3188
-0.87187
-0.627047
-0.49096
-0.401096
-0.328155
-0.259075
-0.193411
-0.135732
-0.09034
-0.0578157
-0.035977
-0.0218677
-0.0129188
-0.00721114
-0.00357479
-0.000681703
-10.8694
-5.03903
-2.49819
-1.47992
-0.945506
-0.658086
-0.503657
-0.406353
-0.33086
-0.261786
-0.196968
-0.13984
-0.0943032
-0.0611612
-0.0385599
-0.0237401
-0.0142033
-0.00802816
-0.00402495
-0.000806885
-12.4163
-6.07778
-2.93378
-1.65383
-1.02811
-0.696856
-0.521272
-0.414902
-0.335953
-0.266167
-0.201579
-0.144543
-0.098573
-0.0646485
-0.0412
-0.0256319
-0.0154929
-0.00884599
-0.00447557
-0.000935802
-12.3818
-6.21406
-2.9742
-1.65273
-1.04612
-0.712044
-0.528129
-0.41785
-0.3379
-0.26882
-0.205373
-0.148971
-0.102842
-0.0682379
-0.0439536
-0.0276103
-0.0168375
-0.00969233
-0.00493839
-0.00107322
-9.53132
-5.43493
-2.63187
-1.47377
-0.984212
-0.688952
-0.512254
-0.405307
-0.328247
-0.263097
-0.204249
-0.151572
-0.107313
-0.0729275
-0.0479465
-0.0306133
-0.0189068
-0.0109843
-0.00563254
-0.00128412
-7.03814
-4.61159
-2.43841
-1.3891
-0.957281
-0.691636
-0.515718
-0.406323
-0.328944
-0.264916
-0.207863
-0.156719
-0.113046
-0.0782966
-0.0523957
-0.0339828
-0.0212747
-0.0125045
-0.00646794
-0.00152959
-5.30537
-3.8425
-2.2566
-1.3252
-0.922581
-0.688681
-0.521055
-0.410336
-0.332474
-0.269028
-0.212951
-0.162635
-0.119169
-0.0839273
-0.05708
-0.0375711
-0.0238272
-0.0141629
-0.00738581
-0.00180077
-3.95056
-3.12962
-2.07227
-1.30167
-0.905718
-0.686335
-0.528885
-0.417673
-0.338515
-0.275015
-0.21945
-0.169664
-0.12622
-0.090336
-0.0623885
-0.0416298
-0.0267105
-0.0160343
-0.00841854
-0.00210972
-3.06836
-2.56481
-1.85226
-1.24483
-0.882827
-0.681184
-0.537956
-0.428897
-0.348073
-0.283721
-0.227974
-0.178146
-0.134328
-0.0975309
-0.0682844
-0.0461167
-0.0298919
-0.018098
-0.00955483
-0.00245289
-2.41347
-2.08017
-1.61683
-1.1835
-0.877812
-0.68618
-0.550067
-0.443367
-0.361004
-0.295179
-0.238557
-0.188033
-0.143349
-0.105338
-0.0746124
-0.0509152
-0.0332921
-0.0203057
-0.0107691
-0.00282272
-1.93464
-1.71952
-1.41922
-1.11176
-0.861503
-0.685568
-0.558646
-0.45764
-0.375786
-0.308612
-0.25066
-0.198918
-0.152949
-0.113474
-0.0811429
-0.0558517
-0.0367888
-0.0225781
-0.0120181
-0.00320623
-1.60942
-1.46142
-1.25958
-1.04225
-0.846206
-0.69042
-0.570295
-0.472896
-0.391519
-0.322896
-0.263261
-0.209974
-0.162482
-0.121424
-0.0874721
-0.0606222
-0.0401664
-0.0247746
-0.0132243
-0.00357955
-1.40127
-1.29148
-1.14806
-0.987613
-0.830589
-0.693028
-0.579526
-0.485341
-0.40507
-0.335639
-0.27452
-0.219748
-0.17081
-0.128299
-0.0929133
-0.0647148
-0.0430633
-0.0266597
-0.014258
-0.00390231
-1.29454
-1.20288
-1.08773
-0.955835
-0.820237
-0.694373
-0.58552
-0.493245
-0.413719
-0.343916
-0.281854
-0.226081
-0.176176
-0.132708
-0.0963925
-0.0673302
-0.0449152
-0.0278666
-0.0149165
-0.00411019
-12.5893
-12.413
-12.21
-12.006
-11.7567
-11.4751
-11.0722
-10.6179
-10.0411
-10.0011
-8.6382
-8.42117
-8.18379
-7.94614
-7.67545
-7.39741
-7.07856
-6.85283
-6.72156
-6.98964
-6.03154
-5.88911
-5.74201
-5.60565
-5.48086
-5.39103
-5.33449
-5.33285
-5.33104
-5.38229
-4.48048
-4.41284
-4.34724
-4.2893
-4.23776
-4.18949
-4.12773
-4.04744
-3.95138
-3.9162
-3.43374
-3.39365
-3.35006
-3.30214
-3.24886
-3.19118
-3.13205
-3.08172
-3.0484
-3.04811
-2.65224
-2.62981
-2.60505
-2.57856
-2.55191
-2.52684
-2.50389
-2.48262
-2.46091
-2.44488
-2.10911
-2.10108
-2.09059
-2.0777
-2.06262
-2.04545
-2.02625
-2.00555
-1.98444
-1.96707
-1.74249
-1.74124
-1.73701
-1.72997
-1.72038
-1.70856
-1.69488
-1.67971
-1.6634
-1.64699
-1.51281
-1.51528
-1.51471
-1.51127
-1.50514
-1.49652
-1.48562
-1.47268
-1.45797
-1.44192
-1.39844
-1.4021
-1.4028
-1.40065
-1.39579
-1.38838
-1.37858
-1.36658
-1.35256
-1.33674
-13.1949
-13.3201
-12.502
-12.6246
-12.8792
-12.9057
-12.8508
-12.8158
-12.783
-12.7187
-10.6616
-10.63
-9.38694
-9.05797
-9.24359
-9.29444
-9.18157
-9.05354
-8.94335
-8.81653
-7.86646
-7.72058
-6.64678
-6.21154
-6.34368
-6.49117
-6.46819
-6.36652
-6.26226
-6.157
-5.47274
-5.41967
-4.75873
-4.44252
-4.52825
-4.68771
-4.7328
-4.68519
-4.61404
-4.54676
-3.84577
-3.90704
-3.59209
-3.40664
-3.43682
-3.53346
-3.57747
-3.55902
-3.51592
-3.47313
-2.77637
-2.86645
-2.7433
-2.64965
-2.6499
-2.69094
-2.71653
-2.71349
-2.69496
-2.67347
-2.05334
-2.12788
-2.09689
-2.06651
-2.07036
-2.09237
-2.11107
-2.11894
-2.11883
-2.115
-1.58694
-1.6421
-1.65275
-1.65925
-1.67505
-1.6956
-1.71396
-1.72726
-1.73584
-1.74073
-1.31418
-1.3576
-1.38429
-1.40665
-1.42927
-1.45119
-1.47047
-1.48622
-1.49841
-1.50722
-1.18889
-1.22928
-1.26069
-1.2871
-1.31122
-1.33327
-1.35262
-1.36886
-1.38188
-1.39172
0.899309
0.876229
0.826023
0.724219
0.553789
0.247552
-0.242211
-1.12492
-2.67665
-7.39152
0.780183
0.753149
0.696751
0.584398
0.400839
0.0701835
-0.43458
-1.42606
-2.90835
-6.95288
0.649382
0.619897
0.560656
0.442275
0.260226
-0.0826603
-0.545758
-1.55551
-2.80588
-5.44223
0.508548
0.477392
0.417124
0.295372
0.123607
-0.216351
-0.625764
-1.49176
-2.5223
-3.98145
0.360915
0.329881
0.26954
0.150493
-0.0134057
-0.317364
-0.697046
-1.29092
-2.08377
-2.90184
0.211823
0.18384
0.123844
0.0172088
-0.142397
-0.377417
-0.713184
-1.06442
-1.61767
-2.18397
0.0699062
0.0466923
-0.0103439
-0.0987224
-0.242784
-0.407719
-0.668749
-0.900906
-1.27782
-1.69684
-0.0538927
-0.0731046
-0.12258
-0.194036
-0.310227
-0.434441
-0.626614
-0.818283
-1.08375
-1.37573
-0.14918
-0.165915
-0.206534
-0.266635
-0.358575
-0.466129
-0.614416
-0.778985
-0.973906
-1.17861
-0.205288
-0.220757
-0.255865
-0.310231
-0.389357
-0.488351
-0.613013
-0.754914
-0.912574
-1.07787
1.60789
1.60714
1.60583
1.58975
1.54846
1.44326
1.26301
0.83143
0.235304
-2.63245
1.53645
1.53333
1.52668
1.50137
1.44771
1.3212
1.11678
0.638493
-0.0180579
-2.8335
1.4652
1.45977
1.44794
1.41356
1.3476
1.20023
0.970195
0.448171
-0.279679
-3.0596
1.39438
1.38674
1.36989
1.32669
1.24845
1.08082
0.823601
0.260794
-0.551376
-3.32337
1.32422
1.31448
1.29282
1.24106
1.15056
0.963315
0.677256
0.0766125
-0.82743
-3.59553
1.25491
1.24322
1.21698
1.15698
1.05419
0.847958
0.531424
-0.104361
-1.11501
-3.88576
1.18663
1.17316
1.1426
1.07466
0.95957
0.734866
0.386386
-0.281247
-1.40257
-4.15658
1.11956
1.10455
1.06993
0.994366
0.866933
0.62405
0.242388
-0.456294
-1.70656
-4.513
1.0538
1.03754
0.99921
0.916317
0.776502
0.515438
0.100392
-0.629926
-1.97917
-4.97063
0.989143
0.971397
0.929444
0.839674
0.687795
0.408202
-0.0415126
-0.822344
-2.28
-5.96745
2.27544
2.29699
2.34777
2.42227
2.51307
2.60351
2.65928
2.606
1.35951
-2.97186
2.21597
2.23521
2.28121
2.34669
2.42244
2.48885
2.49257
2.39576
1.20185
-3.27162
2.15451
2.17185
2.21293
2.26917
2.33034
2.37878
2.35904
2.2903
1.47963
-2.37786
2.09104
2.10645
2.14268
2.19026
2.23846
2.27273
2.241
2.18756
1.64708
-1.91544
2.02569
2.03902
2.07024
2.10926
2.14491
2.16385
2.11541
2.02544
1.56052
-1.88362
1.9587
1.96982
1.99582
2.02604
2.04883
2.04954
1.97855
1.82278
1.35877
-1.94206
1.89029
1.89912
1.91974
1.94092
1.95061
1.93105
1.83688
1.6155
1.14798
-2.00034
1.82074
1.82721
1.84236
1.8543
1.85095
1.81029
1.69474
1.41611
0.93927
-2.09701
1.75031
1.75437
1.76401
1.76662
1.75043
1.68836
1.55222
1.22093
0.717802
-2.24928
1.67926
1.68092
1.68505
1.6783
1.64948
1.56585
1.40833
1.02603
0.481032
-2.43872
3.11622
3.12263
3.13497
3.15213
3.17112
3.18748
3.19595
3.19001
3.1619
3.10217
3.09234
3.1022
3.12149
3.14882
3.18082
3.21222
3.23683
3.24541
3.22886
3.17097
3.0461
3.06117
3.09099
3.13402
3.18656
3.24246
3.29422
3.32907
3.33513
3.28458
2.97784
2.99853
3.03978
3.10025
3.17604
3.26057
3.34498
3.41452
3.45231
3.42062
2.89042
2.91604
2.9675
3.04387
3.14138
3.25327
3.3695
3.47475
3.54258
3.53655
2.78897
2.81808
2.87699
2.96538
3.07988
3.21391
3.35603
3.48294
3.54971
3.54044
2.6796
2.71038
2.77326
2.86839
2.99306
3.14191
3.30244
3.41704
3.38874
3.28967
2.56815
2.59885
2.66221
2.75835
2.88501
3.03932
3.22017
3.33011
3.06014
2.56032
2.45934
2.48857
2.54966
2.6416
2.76112
2.90148
3.05888
3.12893
2.55067
1.36013
2.35617
2.38247
2.43931
2.5235
2.63014
2.75073
2.88321
2.92517
1.94851
-0.625615
3.04016
3.01028
2.97499
2.93585
2.89319
2.84671
2.79617
2.74149
2.68271
2.61986
3.10582
3.07166
3.02939
2.98317
2.93334
2.87909
2.81996
2.75593
2.68715
2.61375
3.22074
3.17904
3.12332
3.06387
3.00123
2.93345
2.85973
2.7802
2.69514
2.60478
3.37701
3.32712
3.25555
3.18234
3.10742
3.02765
2.94245
2.85243
2.75806
2.65955
3.55558
3.50489
3.42812
3.34916
3.26575
3.17508
3.07693
2.97152
2.85893
2.73919
3.63119
3.5815
3.50748
3.42276
3.32597
3.21789
3.09912
2.9702
2.83141
2.68297
3.45546
3.40361
3.32029
3.22485
3.11774
2.99887
2.86406
2.71256
2.54283
2.35442
2.68739
2.70108
2.67211
2.62427
2.52832
2.39554
2.22225
2.0163
1.77289
1.49319
1.57488
1.74567
1.65466
1.50243
1.26432
1.01522
0.726252
0.407987
0.0364876
-0.381513
-0.8652
-0.804887
-1.1586
-1.43895
-1.75234
-2.03947
-2.37162
-2.73559
-3.16311
-3.6363
2.55303
2.48232
2.40788
2.32989
2.24855
2.16409
2.07678
1.98687
1.89466
1.80031
2.5359
2.45382
2.36779
2.27812
2.18517
2.08931
1.99096
1.89059
1.78884
1.68616
2.50937
2.40929
2.30506
2.19734
2.08693
1.97477
1.86196
1.74964
1.63868
1.52787
2.55696
2.45021
2.33904
2.22303
2.10184
1.97561
1.84519
1.71106
1.5693
1.41108
2.61232
2.47816
2.33626
2.18664
2.03094
1.87137
1.70545
1.52133
1.30843
1.09557
2.52444
2.35394
2.16883
1.97101
1.77116
1.57594
1.35615
1.04655
0.642686
0.347208
2.14586
1.91294
1.64909
1.35967
1.0773
0.828072
0.53036
-0.00919297
-0.786207
-1.18064
1.17963
0.833169
0.443637
0.0102847
-0.41901
-0.768473
-1.13046
-1.87855
-3.08015
-3.54708
-0.833363
-1.30558
-1.81078
-2.36473
-2.94003
-3.41944
-3.78655
-4.49753
-5.87951
-6.293
-4.13599
-4.64132
-5.16181
-5.70813
-6.2821
-6.80252
-7.12793
-7.47592
-8.50555
-8.86315
1.56647
1.15279
0.738463
0.34528
-0.0144846
-0.309602
-0.485173
-0.483735
-0.328519
-0.134376
0.00510576
0.0748745
0.0969058
0.0927533
0.0770672
0.0584755
0.0412006
0.0265347
0.0146195
0.00410669
1.43251
0.958605
0.546035
0.133508
-0.253806
-0.558781
-0.718099
-0.674977
-0.465417
-0.22063
-0.0447523
0.0463888
0.0800135
0.0823771
0.0705626
0.0543759
0.0386559
0.0250312
0.0138525
0.00390118
1.23346
0.711071
0.400888
-0.0566993
-0.482095
-0.816952
-0.993408
-0.928648
-0.660997
-0.348745
-0.119877
0.00361547
0.0548909
0.0669901
0.0608694
0.0482171
0.0347994
0.0227374
0.012669
0.00358729
0.995982
0.451088
0.298742
-0.201499
-0.596725
-0.930689
-1.12758
-1.0742
-0.794386
-0.451039
-0.1878
-0.0383768
0.0289655
0.0505628
0.0502589
0.0413527
0.0304439
0.020123
0.0113069
0.00322656
0.649494
0.0864206
0.0925104
-0.326413
-0.641177
-0.935563
-1.12262
-1.08649
-0.831756
-0.500001
-0.231816
-0.0709487
0.00655839
0.0353868
0.040047
0.0345792
0.0260778
0.0174764
0.00991476
0.00285734
0.0370232
-0.260941
-0.136389
-0.435114
-0.674193
-0.901955
-1.05263
-1.02449
-0.80578
-0.507186
-0.253673
-0.0933025
-0.0113359
0.0222546
0.030808
0.0282921
0.0219623
0.0149585
0.00857803
0.00250207
-0.979463
-0.481334
-0.362724
-0.54275
-0.700025
-0.857894
-0.965421
-0.937147
-0.752052
-0.491566
-0.260902
-0.107733
-0.0251997
0.0112146
0.0227074
0.0226497
0.0182173
0.0126489
0.00734139
0.00217264
-2.52568
-0.883324
-0.631579
-0.655243
-0.727289
-0.82034
-0.886929
-0.852731
-0.69333
-0.467132
-0.260192
-0.116829
-0.0358763
0.00205874
0.0157464
0.0177064
0.0148975
0.0105867
0.00622836
0.00187585
-4.23056
-1.54263
-0.867757
-0.753038
-0.752153
-0.791
-0.824104
-0.782364
-0.640861
-0.442014
-0.256061
-0.122598
-0.0440909
-0.00540987
0.00990647
0.0134868
0.0120285
0.00878914
0.00524947
0.00161547
-4.96648
-1.99604
-0.974105
-0.797502
-0.75653
-0.756986
-0.765177
-0.717606
-0.591858
-0.417015
-0.249941
-0.126009
-0.0504414
-0.0116281
0.00485273
0.00975721
0.00946618
0.00717924
0.00437105
0.00137977
-4.09824
-1.99847
-0.952115
-0.76775
-0.728999
-0.711832
-0.704367
-0.652443
-0.541519
-0.389431
-0.240876
-0.127282
-0.0556478
-0.0172737
0.000174173
0.00635635
0.00719521
0.00579996
0.00363968
0.00117298
-3.67895
-1.96308
-1.0352
-0.781361
-0.733761
-0.696298
-0.676849
-0.619811
-0.512877
-0.370211
-0.231388
-0.124659
-0.0565895
-0.0194641
-0.00206322
0.00453561
0.00588325
0.00495288
0.00316969
0.00104109
-3.8222
-1.93366
-1.13139
-0.792748
-0.734822
-0.680683
-0.652174
-0.592526
-0.488968
-0.353065
-0.221725
-0.120975
-0.0564785
-0.020898
-0.00383657
0.00296936
0.00469884
0.00416152
0.00272138
0.000918943
-4.12086
-1.90339
-1.21695
-0.806309
-0.73224
-0.663944
-0.627135
-0.565775
-0.466546
-0.338022
-0.213911
-0.118463
-0.0569687
-0.0226011
-0.00571996
0.00136147
0.00350024
0.00336635
0.0022732
0.000800024
-4.481
-1.91268
-1.28642
-0.822085
-0.727506
-0.64728
-0.60269
-0.539838
-0.445055
-0.324232
-0.20738
-0.116907
-0.0580263
-0.0245969
-0.00774171
-0.000307493
0.00227673
0.00256254
0.00182328
0.000683277
-4.82699
-1.94717
-1.34154
-0.840277
-0.721956
-0.631442
-0.579628
-0.51555
-0.425022
-0.311621
-0.201736
-0.115927
-0.0594048
-0.0267501
-0.00983369
-0.00200518
0.00104284
0.00175588
0.00137356
0.000568799
-5.18754
-2.01367
-1.38871
-0.861336
-0.716813
-0.616982
-0.558378
-0.493262
-0.406749
-0.30033
-0.196962
-0.115455
-0.0610443
-0.0290241
-0.0119764
-0.00372204
-0.000197093
0.00094809
0.000924548
0.000456276
-5.57514
-2.10609
-1.43129
-0.885597
-0.713174
-0.604379
-0.539273
-0.473149
-0.390334
-0.290411
-0.193087
-0.115502
-0.0629518
-0.0314225
-0.0141717
-0.00545894
-0.0014435
0.000138918
0.000476034
0.000345176
-6.01942
-2.23493
-1.47371
-0.913408
-0.712004
-0.594038
-0.522592
-0.455354
-0.375826
-0.281855
-0.190091
-0.11606
-0.0651235
-0.033945
-0.0164201
-0.00721629
-0.00269676
-0.000671896
2.76885e-05
0.000234932
-6.50381
-2.39993
-1.51988
-0.945207
-0.71416
-0.586308
-0.508546
-0.439984
-0.363262
-0.274643
-0.187935
-0.1171
-0.0675456
-0.0365853
-0.018719
-0.00899316
-0.00395669
-0.00148442
-0.000420768
0.000124971
)
;

boundaryField
{
    inlet
    {
        type            freestreamPressure;
        freestreamValue uniform 0;
        supersonic      false;
        value           nonuniform List<scalar> 
40
(
0.899309
0.780183
0.649382
0.508548
0.360915
0.211823
0.0699062
-0.0538927
-0.14918
-0.205288
1.60789
1.53645
1.4652
1.39438
1.32422
1.25491
1.18663
1.11956
1.0538
0.989143
2.27544
2.21597
2.15451
2.09104
2.02569
1.9587
1.89029
1.82074
1.75031
1.67926
3.11622
3.09234
3.0461
2.97784
2.89042
2.78897
2.6796
2.56815
2.45934
2.35617
)
;
    }
    outlet
    {
        type            freestreamPressure;
        freestreamValue uniform 0;
        supersonic      false;
        value           nonuniform List<scalar> 
40
(
-8.09692e-08
-9.07164e-08
-9.82886e-08
-1.02938e-07
-1.02471e-07
-9.46498e-08
-7.80042e-08
-5.3111e-08
-2.46393e-08
-3.23585e-09
1.10591e-09
-7.02526e-09
-1.51369e-08
-2.31921e-08
-3.11825e-08
-3.90974e-08
-4.69167e-08
-5.46038e-08
-6.21841e-08
-6.99024e-08
8.59432e-08
7.69102e-08
6.83091e-08
5.97485e-08
5.11896e-08
4.26783e-08
3.4233e-08
2.58545e-08
1.754e-08
9.28555e-09
4.90592e-09
3.64189e-08
7.59328e-08
1.07743e-07
1.2657e-07
1.33219e-07
1.30785e-07
1.22711e-07
1.11942e-07
9.9446e-08
)
;
    }
    top
    {
        type            symmetryPlane;
    }
    bottom
    {
        type            symmetryPlane;
    }
    cylinder
    {
        type            zeroGradient;
    }
    frontandback
    {
        type            empty;
    }
}


// ************************************************************************* //
