/*--------------------------------*- C++ -*----------------------------------*\
| =========                 |                                                 |
| \\      /  F ield         | OpenFOAM: The Open Source CFD Toolbox           |
|  \\    /   O peration     | Version:  v1912                                 |
|   \\  /    A nd           | Website:  www.openfoam.com                      |
|    \\/     M anipulation  |                                                 |
\*---------------------------------------------------------------------------*/
FoamFile
{
    version     2.0;
    format      ascii;
    class       volVectorField;
    location    "21";
    object      U;
}
// * * * * * * * * * * * * * * * * * * * * * * * * * * * * * * * * * * * * * //

dimensions      [0 1 -1 0 0 0 0];


internalField   nonuniform List<vector> 
19200
(
(0.00654142 -0.478885 -2.65452e-22)
(0.00478449 -0.440305 0)
(0.00270156 -0.404891 0)
(0.000283198 -0.372463 0)
(-0.00233139 -0.342815 0)
(-0.00500488 -0.315741 0)
(-0.00764388 -0.291036 -8.34309e-23)
(-0.0101814 -0.268503 8.21781e-23)
(-0.0125693 -0.247958 0)
(-0.014775 -0.229223 0)
(-0.0167784 -0.212136 -1.53326e-22)
(-0.0185688 -0.196545 8.56046e-25)
(-0.0201433 -0.18231 1.47873e-22)
(-0.0215048 -0.169303 0)
(-0.0226607 -0.157405 1.41048e-22)
(-0.0236218 -0.146511 -7.73825e-25)
(-0.0244016 -0.136522 -1.361e-22)
(-0.0250151 -0.127351 0)
(-0.0254791 -0.118917 0)
(-0.0258108 -0.11115 0)
(-0.0260278 -0.103984 0)
(-0.0261481 -0.0973613 0)
(-0.026189 -0.0912306 1.19922e-22)
(-0.0261676 -0.0855457 -1.18219e-22)
(-0.0261002 -0.0802658 0)
(-0.026003 -0.0753547 0)
(-0.0258918 -0.0707808 -2.21962e-22)
(-0.0257713 -0.0665162 2.18916e-22)
(-0.0256306 -0.0625348 0)
(-0.0255546 -0.0588116 0)
(0.0191084 -0.478064 -3.5769e-22)
(0.0163327 -0.438911 1.90335e-22)
(0.0133242 -0.403085 0)
(0.0100841 -0.370377 0)
(0.00674877 -0.340563 0)
(0.00344904 -0.313414 0)
(0.000271094 -0.288709 -6.76068e-22)
(-0.00272519 -0.266236 3.31619e-22)
(-0.00549847 -0.245795 -2.47962e-24)
(-0.00802259 -0.227201 -1.9206e-24)
(-0.0102834 -0.21028 -6.20057e-22)
(-0.0122761 -0.194872 6.07025e-22)
(-0.0140028 -0.180831 -2.9803e-22)
(-0.0154713 -0.168022 0)
(-0.0166936 -0.156323 0)
(-0.0176845 -0.145622 0)
(-0.0184613 -0.13582 0)
(-0.0190429 -0.126824 0)
(-0.0194489 -0.118551 0)
(-0.0196999 -0.11093 0)
(-0.0198163 -0.103892 -2.52323e-22)
(-0.0198186 -0.0973784 0)
(-0.0197268 -0.0913375 -4.81981e-22)
(-0.0195601 -0.0857223 4.75135e-22)
(-0.019337 -0.0804918 -4.63304e-22)
(-0.0190759 -0.0756099 4.56834e-22)
(-0.0187945 -0.0710456 0)
(-0.0184978 -0.0667715 4.37107e-22)
(-0.0181719 -0.0627612 -4.31164e-22)
(-0.0179127 -0.0589909 4.64645e-22)
(0.0315878 -0.476957 -7.2602e-22)
(0.0277745 -0.437247 -3.80115e-22)
(0.0238488 -0.401041 3.39972e-24)
(0.0198001 -0.368094 3.66061e-22)
(0.0157617 -0.338154 0)
(0.0118587 -0.31097 -6.94795e-22)
(0.00817014 -0.286301 3.44023e-22)
(0.00474823 -0.263922 6.69599e-22)
(0.00162695 -0.243619 -3.31282e-22)
(-0.00117459 -0.225195 -6.37092e-22)
(-0.00364884 -0.208467 6.27434e-22)
(-0.00579702 -0.193267 0)
(-0.00762706 -0.179443 -5.97297e-22)
(-0.00915189 -0.166854 5.88276e-22)
(-0.0103882 -0.155373 -5.76382e-22)
(-0.0113553 -0.144885 0)
(-0.0120746 -0.135284 0)
(-0.0125685 -0.126477 0)
(-0.0128603 -0.118378 0)
(-0.0129738 -0.110913 1.03024e-21)
(-0.0129324 -0.104012 -7.62939e-22)
(-0.0127596 -0.0976151 9.88741e-22)
(-0.0124778 -0.0916694 -9.74583e-22)
(-0.012109 -0.0861275 -9.49596e-22)
(-0.011674 -0.080948 1.86711e-21)
(-0.0111934 -0.0760953 -1.83066e-21)
(-0.0106876 -0.0715389 9.00128e-22)
(-0.0101617 -0.0672522 0)
(-0.00959718 -0.0632088 4.32434e-22)
(-0.00910202 -0.0593873 0)
(0.0440112 -0.475552 -1.46009e-21)
(0.0391332 -0.435329 7.78153e-22)
(0.0342837 -0.398782 -7.51006e-22)
(0.029434 -0.365637 6.06649e-24)
(0.0247094 -0.335612 7.23481e-22)
(0.0202272 -0.308433 0)
(0.016058 -0.283839 0)
(0.0122454 -0.261589 0)
(0.00881528 -0.241456 1.97679e-21)
(0.00577893 -0.223232 -4.26531e-24)
(0.00313679 -0.206726 -6.33426e-22)
(0.000881002 -0.19176 -1.2314e-21)
(-0.00100239 -0.178177 1.21276e-21)
(-0.00253187 -0.165829 1.17896e-21)
(-0.00372916 -0.154586 -5.84831e-22)
(-0.00461828 -0.144327 0)
(-0.00522478 -0.134944 0)
(-0.00557513 -0.12634 0)
(-0.00569629 -0.118428 0)
(-0.00561528 -0.111129 0)
(-0.00535892 -0.104374 1.01525e-21)
(-0.00495353 -0.0981012 -1.0006e-21)
(-0.00442469 -0.0922558 0)
(-0.00379692 -0.0867901 -9.54507e-22)
(-0.00309361 -0.0816625 1.87654e-21)
(-0.00233825 -0.0768376 -1.83946e-21)
(-0.00155393 -0.0722857 9.04355e-22)
(-0.000746746 -0.0679808 8.81341e-22)
(0.000107228 -0.0638963 -2.16673e-21)
(0.000889834 -0.0600162 -9.37091e-22)
(0.0563815 -0.473838 7.32791e-22)
(0.0504156 -0.43316 1.57437e-21)
(0.044635 -0.396323 1.53652e-21)
(0.0389908 -0.363027 7.42867e-22)
(0.0335973 -0.332962 1.46147e-21)
(0.0285614 -0.305829 8.62662e-24)
(0.0239432 -0.281349 1.40742e-21)
(0.0197767 -0.259264 2.0553e-21)
(0.0160786 -0.239335 6.77765e-22)
(0.0128516 -0.221342 1.31119e-21)
(0.0100886 -0.205084 1.11929e-23)
(0.00777438 -0.190378 1.25174e-21)
(0.00588865 -0.177059 1.02462e-23)
(0.00440705 -0.164974 3.58609e-21)
(0.00330252 -0.153988 -3.50769e-21)
(0.00254617 -0.143976 2.29308e-21)
(0.00210802 -0.134827 0)
(0.00195748 -0.12644 0)
(0.0020638 -0.118727 1.074e-21)
(0.00239638 -0.111606 0)
(0.00292508 -0.105006 1.02865e-21)
(0.00362036 -0.0988641 1.00043e-21)
(0.0044536 -0.0931238 -9.86104e-22)
(0.00539737 -0.087737 9.65627e-22)
(0.00642548 -0.0826616 0)
(0.00751153 -0.0778623 0)
(0.00862938 -0.0733098 9.08489e-22)
(0.00977231 -0.0689787 8.90413e-22)
(0.0109687 -0.0648411 8.65075e-22)
(0.0120812 -0.0608888 -1.88314e-21)
(0.0686941 -0.471817 -7.47192e-22)
(0.061622 -0.430747 -1.57437e-21)
(0.0549063 -0.393676 -2.30636e-21)
(0.0484765 -0.360281 -7.45797e-22)
(0.0424332 -0.330223 -1.45518e-21)
(0.0368708 -0.30318 1.45908e-23)
(0.0318373 -0.278854 -1.40235e-21)
(0.0273557 -0.256971 -1.37123e-21)
(0.0234323 -0.237278 -1.34086e-21)
(0.0200607 -0.219547 -2.62485e-21)
(0.0172252 -0.203566 2.35223e-23)
(0.0149031 -0.189146 2.53215e-21)
(0.0130671 -0.176114 -1.21522e-21)
(0.0116869 -0.164313 1.22112e-21)
(0.0107295 -0.153603 3.53059e-21)
(0.0101613 -0.143855 -1.14591e-21)
(0.00994747 -0.134956 0)
(0.0100533 -0.126802 1.10677e-21)
(0.010444 -0.1193 2.15708e-21)
(0.0110853 -0.112368 -3.16052e-21)
(0.0119437 -0.105932 1.04305e-21)
(0.0129862 -0.0999278 3.02755e-21)
(0.014181 -0.0942978 9.78959e-22)
(0.0154977 -0.0889927 -3.86827e-21)
(0.016907 -0.0839698 2.85491e-21)
(0.0183794 -0.0791937 0)
(0.0198856 -0.0746355 4.82931e-24)
(0.0214191 -0.0702698 1.78356e-21)
(0.0230124 -0.0660671 -5.98451e-24)
(0.0244999 -0.0620272 1.89414e-21)
(0.0809431 -0.469494 1.50467e-21)
(0.072751 -0.428098 -1.61914e-21)
(0.0651006 -0.390854 0)
(0.0578975 -0.357414 -1.54272e-21)
(0.0512264 -0.327414 -1.49015e-21)
(0.0451675 -0.300506 -1.46041e-21)
(0.0397548 -0.276375 1.43459e-21)
(0.034999 -0.254732 0)
(0.0308952 -0.23531 -1.3736e-21)
(0.0274267 -0.21787 0)
(0.0245688 -0.202194 -2.60789e-21)
(0.0222907 -0.188084 -2.54876e-21)
(0.0205579 -0.175362 -1.23877e-21)
(0.0193332 -0.163866 -1.21099e-21)
(0.0185784 -0.153451 1.18633e-21)
(0.018254 -0.143986 -3.49219e-21)
(0.0183209 -0.135352 0)
(0.0187397 -0.127444 -1.10677e-21)
(0.0194718 -0.120166 9.02998e-24)
(0.0204791 -0.113434 -1.05888e-21)
(0.0217244 -0.107172 0)
(0.0231712 -0.101313 1.01362e-21)
(0.0247845 -0.0957983 -2.99072e-21)
(0.0265305 -0.0905778 6.27027e-24)
(0.0283767 -0.0856079 9.50775e-22)
(0.0302901 -0.0808525 -1.22918e-23)
(0.0322378 -0.0762831 -9.25356e-22)
(0.0342131 -0.0718736 -4.48335e-21)
(0.0362533 -0.0675928 8.87155e-22)
(0.0381638 -0.0634483 0)
(0.093122 -0.466871 -1.24778e-23)
(0.0838011 -0.425221 0)
(0.0752214 -0.387868 -1.58386e-21)
(0.0672612 -0.354442 4.66972e-21)
(0.0599881 -0.324552 -1.78839e-23)
(0.0534656 -0.297827 1.47678e-21)
(0.0477128 -0.273933 2.90111e-21)
(0.0427264 -0.252566 -1.1495e-23)
(0.0384892 -0.233449 -1.44046e-23)
(0.0349737 -0.216332 1.34512e-21)
(0.0321453 -0.200987 -2.64139e-21)
(0.0299646 -0.187212 3.86988e-21)
(0.0283893 -0.174822 -2.50828e-21)
(0.0273756 -0.163651 2.4704e-21)
(0.0268791 -0.15355 -2.39413e-21)
(0.0268551 -0.144383 1.89833e-23)
(0.0272593 -0.13603 2.30437e-21)
(0.0280481 -0.128382 0)
(0.0291786 -0.121341 1.09222e-21)
(0.0306089 -0.11482 -2.15174e-21)
(0.0322981 -0.108741 2.08767e-21)
(0.0342062 -0.103034 -1.55967e-23)
(0.0362945 -0.0976413 -2.0127e-21)
(0.0385257 -0.0925086 -9.77808e-22)
(0.040864 -0.087592 0)
(0.0432724 -0.0828545 9.43208e-22)
(0.045714 -0.0782676 0)
(0.0481815 -0.073804 0)
(0.0507178 -0.0694289 0)
(0.0530983 -0.0651592 0)
(0.105225 -0.463954 -3.16713e-21)
(0.0947713 -0.422125 3.34205e-21)
(0.0852726 -0.384731 -3.25901e-21)
(0.0765762 -0.35138 -1.56583e-21)
(0.0687307 -0.321653 -4.64767e-24)
(0.0617816 -0.295159 1.76823e-23)
(0.055731 -0.271545 -1.45869e-21)
(0.0505605 -0.250493 0)
(0.0462397 -0.231713 0)
(0.0427292 -0.214948 -3.03927e-23)
(0.039984 -0.199961 -2.68365e-21)
(0.0379556 -0.186544 5.22454e-21)
(0.0365937 -0.174508 -2.17684e-23)
(0.0358473 -0.16368 -2.49894e-21)
(0.0356658 -0.15391 2.44374e-21)
(0.0359989 -0.145058 -2.36303e-21)
(0.0367974 -0.137001 4.63586e-21)
(0.0380131 -0.129626 -2.27384e-21)
(0.0395991 -0.122834 0)
(0.0415093 -0.116535 1.85581e-23)
(0.0436991 -0.110649 1.72415e-23)
(0.046125 -0.105103 5.70151e-26)
(0.0487444 -0.0998375 0)
(0.0515165 -0.0947963 0)
(0.0544016 -0.0899337 0)
(0.0573587 -0.0852117 -9.43207e-22)
(0.0603461 -0.0806008 0)
(0.0633561 -0.0760721 3.61423e-21)
(0.0664378 -0.071586 -1.91222e-23)
(0.0693339 -0.0671702 -7.69713e-21)
(0.117245 -0.460748 4.74537e-21)
(0.105661 -0.418818 -1.66641e-21)
(0.0952592 -0.381453 -1.70741e-21)
(0.0858525 -0.348239 0)
(0.0774689 -0.318732 0)
(0.070134 -0.292518 0)
(0.0638315 -0.269227 0)
(0.0585267 -0.248526 -5.83263e-21)
(0.0541748 -0.230117 2.85493e-21)
(0.0507239 -0.213732 2.75535e-21)
(0.0481177 -0.199129 0)
(0.0462983 -0.186092 -2.62618e-21)
(0.0452069 -0.174428 -2.56806e-21)
(0.0447852 -0.163962 2.27468e-23)
(0.044976 -0.154539 2.50636e-23)
(0.0457236 -0.146017 -2.38828e-21)
(0.0469736 -0.138269 2.35266e-21)
(0.0486733 -0.131181 -2.27661e-21)
(0.0507715 -0.12465 2.24305e-21)
(0.0532183 -0.118584 -2.17133e-21)
(0.0559652 -0.1129 -2.14031e-21)
(0.0589649 -0.107524 6.22084e-21)
(0.0621712 -0.102392 -6.13106e-21)
(0.0655393 -0.0974465 3.9643e-21)
(0.0690257 -0.0926395 -3.90846e-21)
(0.0725846 -0.087931 0)
(0.0761697 -0.0832903 0)
(0.0797723 -0.0786859 -1.83051e-21)
(0.0834482 -0.0740719 0)
(0.0869044 -0.0694891 -5.81616e-21)
(0.129177 -0.457256 -1.66294e-21)
(0.116471 -0.415309 -2.37277e-23)
(0.105187 -0.378046 1.63322e-21)
(0.0951016 -0.345034 -1.62269e-21)
(0.0862191 -0.315803 -1.61078e-21)
(0.0785439 -0.289917 3.13135e-21)
(0.0720394 -0.266992 -3.91862e-23)
(0.0666536 -0.24668 -2.97906e-21)
(0.0623262 -0.228673 2.89822e-21)
(0.0589919 -0.212695 2.80118e-21)
(0.0565828 -0.198498 -5.52442e-21)
(0.0550309 -0.185862 2.69744e-21)
(0.0542685 -0.174588 -2.63081e-21)
(0.0542299 -0.1645 0)
(0.0548513 -0.155438 0)
(0.056071 -0.147259 -4.85607e-21)
(0.0578299 -0.139833 2.4037e-21)
(0.0600705 -0.133043 -2.30141e-21)
(0.0627374 -0.126785 2.10733e-23)
(0.065777 -0.120962 -5.63032e-25)
(0.069137 -0.115491 4.30021e-21)
(0.0727661 -0.110294 2.07212e-21)
(0.0766145 -0.105303 -2.07796e-21)
(0.0806333 -0.100459 0)
(0.0847748 -0.0957099 3.90512e-21)
(0.0889886 -0.0910142 -1.92629e-21)
(0.0932226 -0.0863392 0)
(0.0974675 -0.0816492 1.83051e-21)
(0.101786 -0.076891 5.38645e-21)
(0.105846 -0.0721201 -1.94867e-21)
(0.141015 -0.453483 1.5733e-21)
(0.127201 -0.411606 -2.47853e-23)
(0.115064 -0.37452 -1.89608e-23)
(0.104336 -0.341776 -1.66867e-21)
(0.0949997 -0.312878 3.20983e-21)
(0.0870343 -0.287371 -6.27357e-21)
(0.0803821 -0.264852 6.15025e-21)
(0.0749723 -0.244964 2.98924e-21)
(0.0707282 -0.227389 -2.89174e-23)
(0.0675705 -0.211843 -2.82923e-23)
(0.0654189 -0.198074 -3.39888e-23)
(0.0641948 -0.185856 5.39087e-24)
(0.0638215 -0.174989 -2.66646e-21)
(0.0642255 -0.165292 2.59574e-23)
(0.0653363 -0.156603 2.53312e-23)
(0.0670864 -0.148778 4.90906e-21)
(0.0694114 -0.141685 -2.38123e-21)
(0.0722496 -0.135204 2.3232e-21)
(0.0755415 -0.129229 4.53521e-21)
(0.0792296 -0.123661 -2.25628e-21)
(0.0832577 -0.118412 -2.15991e-21)
(0.0875711 -0.113402 2.10911e-21)
(0.092116 -0.108561 0)
(0.0968396 -0.103825 -4.02416e-21)
(0.10169 -0.0991386 3.40572e-23)
(0.10661 -0.094457 1.95419e-21)
(0.111545 -0.0897446 3.76238e-21)
(0.116481 -0.084961 -3.71075e-21)
(0.121489 -0.0800433 1.80742e-21)
(0.126195 -0.0750638 3.34464e-23)
(0.152755 -0.449435 8.41521e-21)
(0.137855 -0.407716 1.8262e-21)
(0.124899 -0.370884 -1.70483e-21)
(0.113572 -0.338476 3.40003e-21)
(0.103831 -0.309969 6.60666e-21)
(0.0956308 -0.284889 1.24784e-23)
(0.0888897 -0.262818 0)
(0.0835168 -0.243388 0)
(0.0794185 -0.226272 0)
(0.0765001 -0.211181 2.92554e-21)
(0.0746689 -0.197858 0)
(0.073835 -0.186074 0)
(0.0739125 -0.175625 2.70581e-21)
(0.0748197 -0.16633 -2.60389e-21)
(0.0764793 -0.158025 5.10236e-21)
(0.0788181 -0.150563 -5.0022e-21)
(0.0817667 -0.143811 7.26029e-21)
(0.0852588 -0.137648 -2.37353e-21)
(0.0892311 -0.131965 2.31656e-21)
(0.0936223 -0.12666 -4.46998e-21)
(0.0983729 -0.121643 1.0968e-20)
(0.103424 -0.116831 -4.29766e-21)
(0.108719 -0.112149 6.25e-21)
(0.1142 -0.107529 -2.08469e-21)
(0.119812 -0.102912 -2.00089e-21)
(0.125491 -0.0982474 1.95248e-21)
(0.131175 -0.0934973 5.69638e-21)
(0.136852 -0.0886144 -3.73554e-21)
(0.142597 -0.0835236 1.82149e-21)
(0.14799 -0.0783165 -1.99825e-21)
(0.164391 -0.445116 7.14315e-23)
(0.148434 -0.40365 7.32977e-23)
(0.134702 -0.367149 3.57293e-21)
(0.122825 -0.335144 -3.42757e-21)
(0.112736 -0.307086 5.01398e-23)
(0.104361 -0.28248 -3.24326e-21)
(0.0975946 -0.260896 -3.17206e-21)
(0.0923239 -0.241956 6.25987e-21)
(0.0884371 -0.225325 0)
(0.0858242 -0.210709 -2.92554e-21)
(0.0843787 -0.197848 -2.85721e-21)
(0.0839995 -0.186509 2.8139e-21)
(0.0845908 -0.176488 -2.70582e-21)
(0.086063 -0.167602 0)
(0.0883316 -0.159687 -2.53892e-21)
(0.0913177 -0.152593 7.56857e-21)
(0.0949469 -0.146188 -2.43863e-21)
(0.0991486 -0.140349 4.78426e-21)
(0.103856 -0.134965 -1.16358e-20)
(0.109004 -0.129932 9.08314e-21)
(0.114529 -0.125157 -1.10576e-20)
(0.120371 -0.120553 4.34036e-21)
(0.126468 -0.11604 -2.09627e-21)
(0.132759 -0.111546 -2.04369e-21)
(0.139182 -0.107006 5.47882e-23)
(0.145671 -0.102366 5.88804e-21)
(0.152155 -0.0975808 -7.64816e-21)
(0.158619 -0.092596 3.76124e-21)
(0.165147 -0.0873216 -1.82149e-21)
(0.171268 -0.0818704 2.02926e-21)
(0.175918 -0.440531 5.15492e-24)
(0.158942 -0.399412 -7.40997e-21)
(0.144484 -0.363322 -7.16105e-21)
(0.132113 -0.33179 -1.54532e-23)
(0.121738 -0.304237 -3.40485e-21)
(0.113255 -0.280152 3.35459e-21)
(0.106532 -0.259092 0)
(0.101433 -0.240671 -3.13545e-21)
(0.0978272 -0.224548 0)
(0.0955887 -0.210424 0)
(0.0945971 -0.198036 -2.90335e-21)
(0.094739 -0.187151 5.68571e-21)
(0.0959091 -0.177564 -2.78358e-21)
(0.0980089 -0.16909 5.35661e-21)
(0.100947 -0.161566 -1.30947e-20)
(0.104639 -0.154843 5.13639e-21)
(0.109006 -0.148787 0)
(0.113972 -0.143275 -7.21866e-21)
(0.119467 -0.138194 4.74213e-21)
(0.125423 -0.13344 0)
(0.131775 -0.128914 -2.24963e-21)
(0.138458 -0.124527 0)
(0.145406 -0.120195 2.09269e-21)
(0.152556 -0.115839 -8.29401e-21)
(0.159841 -0.111389 2.07367e-23)
(0.167189 -0.106783 -3.93198e-21)
(0.174521 -0.10197 -3.82266e-21)
(0.18182 -0.0968848 3.78785e-21)
(0.189176 -0.0914206 -3.6756e-21)
(0.196063 -0.0857123 3.97401e-21)
(0.187335 -0.435689 0)
(0.169384 -0.395008 0)
(0.154258 -0.359413 3.66331e-21)
(0.141457 -0.328422 -5.86526e-23)
(0.130865 -0.30143 -3.47283e-21)
(0.122346 -0.27791 3.42156e-21)
(0.115738 -0.257409 -3.29125e-21)
(0.110885 -0.239534 6.49529e-21)
(0.107634 -0.223937 -3.16554e-21)
(0.105842 -0.210318 -3.03378e-21)
(0.105375 -0.198412 3.58817e-23)
(0.106107 -0.187985 5.77922e-21)
(0.107922 -0.178832 2.75995e-21)
(0.110713 -0.170769 -2.74726e-21)
(0.114383 -0.163634 -5.2899e-21)
(0.118839 -0.157279 5.21061e-21)
(0.123998 -0.15157 2.53724e-21)
(0.129783 -0.146384 0)
(0.136117 -0.141608 0)
(0.142932 -0.137135 2.33736e-21)
(0.150159 -0.132865 6.74732e-21)
(0.15773 -0.128705 -8.81401e-21)
(0.165577 -0.124565 2.18535e-21)
(0.173633 -0.120362 1.04733e-20)
(0.181828 -0.116015 -2.07176e-21)
(0.190081 -0.111457 0)
(0.198308 -0.106629 3.88879e-21)
(0.206487 -0.101451 0)
(0.214716 -0.0957964 3.69945e-21)
(0.222408 -0.0898237 -6.00462e-21)
(0.198644 -0.43059 -3.58927e-21)
(0.179768 -0.390443 7.82278e-21)
(0.164037 -0.355431 3.80821e-21)
(0.150877 -0.325048 0)
(0.140144 -0.29867 -3.6045e-21)
(0.131665 -0.275758 0)
(0.125253 -0.255849 -3.41054e-21)
(0.120723 -0.238542 1.07431e-23)
(0.117904 -0.223488 -4.94122e-23)
(0.116635 -0.210383 -3.13633e-21)
(0.116766 -0.198962 -3.04928e-21)
(0.118158 -0.188992 -2.96442e-21)
(0.120686 -0.180268 0)
(0.124234 -0.17261 2.76496e-21)
(0.128696 -0.165856 -6.94558e-23)
(0.133975 -0.15986 -5.28878e-21)
(0.139983 -0.154491 -7.61475e-21)
(0.146637 -0.149625 2.49977e-21)
(0.153861 -0.14515 4.80379e-21)
(0.161581 -0.140959 -1.17446e-20)
(0.169728 -0.136949 2.30364e-21)
(0.178231 -0.133024 0)
(0.187021 -0.129088 0)
(0.196027 -0.125052 2.09834e-21)
(0.205174 -0.120828 -6.21001e-21)
(0.214378 -0.116338 0)
(0.223544 -0.111512 -1.95181e-21)
(0.232648 -0.106256 0)
(0.241792 -0.100417 0)
(0.250327 -0.0941798 8.17526e-21)
(0.209839 -0.425238 -7.50945e-21)
(0.190101 -0.385729 -3.91424e-21)
(0.173834 -0.351382 -3.80823e-21)
(0.160398 -0.321672 0)
(0.149604 -0.295962 7.28723e-21)
(0.14125 -0.273698 -3.5199e-21)
(0.135116 -0.25441 3.45516e-21)
(0.130992 -0.237692 3.37142e-21)
(0.128687 -0.223192 3.28849e-21)
(0.128019 -0.210606 6.28112e-21)
(0.128824 -0.199669 -4.78184e-23)
(0.13095 -0.19015 4.05827e-23)
(0.134261 -0.181846 5.85118e-21)
(0.138631 -0.17458 -5.61097e-21)
(0.143947 -0.168193 5.52651e-21)
(0.150107 -0.162542 5.2993e-21)
(0.157017 -0.157497 -1.03707e-20)
(0.164591 -0.15294 1.01148e-20)
(0.172751 -0.148757 -4.86676e-21)
(0.18142 -0.144842 4.79549e-21)
(0.190528 -0.141092 3.09076e-23)
(0.200004 -0.137406 9.01243e-21)
(0.209775 -0.133687 -4.41274e-21)
(0.21977 -0.129835 6.3863e-21)
(0.22991 -0.125754 -2.11333e-21)
(0.240105 -0.121356 0)
(0.250252 -0.116558 0)
(0.260324 -0.111248 -5.71646e-21)
(0.270425 -0.10524 7.54458e-21)
(0.279839 -0.0987481 2.01845e-21)
(0.220919 -0.41964 7.64252e-21)
(0.200391 -0.380871 0)
(0.183667 -0.347269 3.91226e-21)
(0.170042 -0.318298 -3.8562e-21)
(0.159277 -0.293307 8.18523e-23)
(0.151137 -0.27173 3.59438e-21)
(0.145369 -0.253089 -3.54079e-21)
(0.141739 -0.236976 0)
(0.140031 -0.223039 -3.2885e-21)
(0.140047 -0.210972 6.40867e-21)
(0.141604 -0.200512 -6.31152e-21)
(0.14454 -0.191433 3.02973e-21)
(0.148704 -0.183534 -1.18289e-20)
(0.153963 -0.176641 8.00574e-23)
(0.160196 -0.1706 1.11595e-20)
(0.167294 -0.165272 -5.45767e-21)
(0.17516 -0.160531 5.22736e-21)
(0.183703 -0.156262 -7.68814e-21)
(0.192842 -0.152354 -4.93328e-21)
(0.202501 -0.148704 4.86103e-21)
(0.212607 -0.145207 -6.9893e-21)
(0.223089 -0.141763 4.59135e-21)
(0.233875 -0.138268 0)
(0.244891 -0.134618 -2.14487e-21)
(0.256057 -0.130705 0)
(0.267279 -0.126429 0)
(0.278445 -0.121693 -7.91459e-21)
(0.289523 -0.116361 5.87387e-21)
(0.300621 -0.110213 7.54594e-21)
(0.310952 -0.103487 -1.64739e-20)
(0.231882 -0.413799 -3.89716e-21)
(0.210649 -0.375874 4.19368e-21)
(0.193554 -0.3431 4.00328e-21)
(0.179833 -0.314933 -3.94591e-21)
(0.169193 -0.290708 -3.76461e-21)
(0.161361 -0.269851 -3.67224e-21)
(0.156054 -0.251881 5.03992e-23)
(0.153009 -0.236386 6.97797e-21)
(0.151987 -0.223013 -3.41216e-21)
(0.152771 -0.211461 0)
(0.155163 -0.201469 0)
(0.158984 -0.192813 6.158e-21)
(0.164074 -0.185297 -6.06477e-21)
(0.17029 -0.178753 0)
(0.177503 -0.17303 0)
(0.185597 -0.167995 0)
(0.19447 -0.163528 0)
(0.204028 -0.159519 0)
(0.214188 -0.155861 -5.00358e-21)
(0.224872 -0.152454 4.93031e-21)
(0.236007 -0.149198 4.71846e-21)
(0.247523 -0.145989 -4.65036e-21)
(0.259349 -0.142724 0)
(0.271412 -0.139289 0)
(0.283631 -0.135571 0)
(0.295908 -0.131453 0)
(0.308125 -0.126822 0)
(0.320245 -0.121514 0)
(0.332378 -0.115266 0)
(0.343662 -0.108344 0)
(0.242722 -0.407719 0)
(0.22088 -0.370745 0)
(0.203513 -0.33888 0)
(0.189798 -0.311576 0)
(0.179386 -0.288163 7.87862e-21)
(0.171963 -0.268058 7.64767e-21)
(0.167214 -0.250777 3.77869e-21)
(0.164849 -0.235908 1.07928e-20)
(0.164604 -0.223101 0)
(0.166244 -0.212055 0)
(0.169553 -0.202515 1.30457e-20)
(0.174339 -0.19426 -1.26423e-20)
(0.18043 -0.187101 1.84583e-20)
(0.187672 -0.180873 1.02409e-23)
(0.195928 -0.175432 5.82564e-21)
(0.205075 -0.170653 9.11767e-23)
(0.215006 -0.166422 1.09578e-20)
(0.225624 -0.162633 5.23346e-21)
(0.236842 -0.159189 9.3004e-25)
(0.248583 -0.155994 4.92744e-21)
(0.260772 -0.152953 -4.85579e-21)
(0.273343 -0.149966 0)
(0.286227 -0.146926 4.56918e-21)
(0.299351 -0.143719 4.43473e-21)
(0.312639 -0.140221 4.30567e-21)
(0.325991 -0.136301 4.18298e-21)
(0.339282 -0.131827 8.04039e-21)
(0.352474 -0.126603 -1.23599e-22)
(0.365678 -0.120314 -1.53426e-20)
(0.37795 -0.113251 -2.13606e-22)
(0.253436 -0.401407 1.248e-20)
(0.231094 -0.365489 -4.4063e-21)
(0.213563 -0.33461 4.36563e-21)
(0.199964 -0.308228 -4.17413e-21)
(0.189886 -0.285669 -1.9898e-20)
(0.182978 -0.266344 4.07265e-21)
(0.17889 -0.249768 -1.1147e-20)
(0.177302 -0.23553 3.82628e-21)
(0.17793 -0.223284 -1.29366e-22)
(0.180516 -0.212732 -6.90399e-21)
(0.184827 -0.203623 -6.4608e-21)
(0.190658 -0.195743 6.49477e-21)
(0.197825 -0.188907 -6.19157e-21)
(0.206163 -0.182958 6.1278e-21)
(0.215526 -0.177758 -1.17497e-20)
(0.225785 -0.173188 1.0078e-22)
(0.236825 -0.169143 -1.09654e-20)
(0.248546 -0.165526 5.31499e-21)
(0.260858 -0.162247 5.87116e-25)
(0.273682 -0.15922 -8.06716e-23)
(0.286947 -0.156355 -1.47024e-20)
(0.300585 -0.15356 4.77933e-21)
(0.314532 -0.150731 -9.19864e-21)
(0.328723 -0.147754 5.4168e-23)
(0.343084 -0.144497 -1.28978e-20)
(0.357516 -0.140817 4.28907e-21)
(0.371897 -0.136561 -8.10474e-21)
(0.386182 -0.131496 7.99353e-21)
(0.400488 -0.125246 3.85028e-21)
(0.413783 -0.118121 0)
(0.264024 -0.394869 2.18824e-22)
(0.241298 -0.360108 9.05304e-21)
(0.223724 -0.330292 -8.56314e-21)
(0.210356 -0.304888 -2.03293e-22)
(0.200728 -0.283221 1.63216e-20)
(0.194444 -0.2647 1.82867e-22)
(0.191122 -0.24884 -7.76292e-21)
(0.190414 -0.235235 -7.36155e-21)
(0.19201 -0.223541 7.13953e-21)
(0.195632 -0.213467 -7.07087e-21)
(0.201033 -0.204767 -6.71352e-21)
(0.207992 -0.19723 0)
(0.21631 -0.190681 6.32238e-21)
(0.225815 -0.184967 -1.85836e-20)
(0.23635 -0.179959 0)
(0.247779 -0.175545 -5.75159e-21)
(0.25998 -0.171628 0)
(0.272847 -0.168122 -9.41229e-23)
(0.286288 -0.164946 -4.13775e-25)
(0.300221 -0.162024 -5.16351e-21)
(0.314575 -0.159279 4.20043e-24)
(0.329286 -0.156629 9.6189e-21)
(0.344295 -0.153979 -7.10561e-23)
(0.359543 -0.151218 4.46901e-21)
(0.374964 -0.148213 -1.32363e-20)
(0.390469 -0.144813 0)
(0.405936 -0.140842 0)
(0.421327 -0.136026 -4.00753e-21)
(0.436758 -0.129919 -3.85029e-21)
(0.451112 -0.122839 -8.58185e-21)
(0.274485 -0.388111 -8.60419e-21)
(0.251503 -0.354605 -1.35985e-20)
(0.234014 -0.325924 -4.51762e-21)
(0.221003 -0.301549 8.51484e-21)
(0.211942 -0.28081 -8.2573e-21)
(0.206397 -0.263113 -8.00668e-21)
(0.20395 -0.247978 7.76296e-21)
(0.204224 -0.235004 7.69623e-21)
(0.206886 -0.223851 0)
(0.211638 -0.214236 7.07091e-21)
(0.218215 -0.205916 0)
(0.226382 -0.198691 0)
(0.23593 -0.192387 0)
(0.246673 -0.186862 6.23761e-21)
(0.258447 -0.181992 0)
(0.271105 -0.177674 0)
(0.284519 -0.173819 5.67974e-21)
(0.298578 -0.170351 5.50389e-21)
(0.313183 -0.167201 0)
(0.32825 -0.164307 0)
(0.343707 -0.161605 5.0842e-21)
(0.359492 -0.159027 -4.92167e-21)
(0.375551 -0.156496 4.76339e-21)
(0.391833 -0.153912 0)
(0.408287 -0.15115 4.4046e-21)
(0.424835 -0.148054 0)
(0.441368 -0.144436 0)
(0.457856 -0.139975 8.04265e-21)
(0.47443 -0.13414 0)
(0.489876 -0.127247 0)
(0.284818 -0.381135 0)
(0.26172 -0.348982 0)
(0.244454 -0.321504 8.99934e-21)
(0.231929 -0.298207 0)
(0.22356 -0.278425 -4.24424e-21)
(0.21887 -0.261568 4.18159e-21)
(0.217408 -0.247163 -7.9683e-21)
(0.218768 -0.234814 1.57442e-20)
(0.222594 -0.224189 2.16481e-23)
(0.228568 -0.21501 -7.38302e-21)
(0.236409 -0.207044 1.41632e-20)
(0.245867 -0.200093 1.50128e-23)
(0.256721 -0.193994 6.70323e-21)
(0.268774 -0.188608 0)
(0.281853 -0.18382 1.24549e-20)
(0.295801 -0.179534 -1.20524e-20)
(0.310484 -0.175669 1.1778e-20)
(0.325782 -0.172159 -1.12014e-20)
(0.341591 -0.168947 1.10419e-20)
(0.35782 -0.165983 5.34523e-21)
(0.374396 -0.163222 8.82778e-23)
(0.391256 -0.160616 4.92169e-21)
(0.408349 -0.158108 -4.76341e-21)
(0.425635 -0.155623 4.67747e-21)
(0.443076 -0.153054 4.51924e-21)
(0.460616 -0.15026 0)
(0.478165 -0.147047 -4.08478e-21)
(0.495721 -0.143051 2.18116e-22)
(0.513436 -0.137648 1.95689e-20)
(0.530007 -0.131121 -4.19672e-21)
(0.295024 -0.373946 4.77221e-21)
(0.271962 -0.343237 -9.67919e-21)
(0.255065 -0.317026 8.29724e-23)
(0.243161 -0.294849 9.24761e-21)
(0.23561 -0.27605 8.77089e-21)
(0.231895 -0.260046 4.31214e-21)
(0.231528 -0.246372 8.32138e-21)
(0.234078 -0.23464 8.078e-21)
(0.239165 -0.224527 -2.30449e-20)
(0.246452 -0.215762 1.49117e-20)
(0.255642 -0.208118 -1.44549e-20)
(0.266472 -0.201407 1.4874e-22)
(0.278708 -0.19547 -6.70328e-21)
(0.292142 -0.190175 -6.62554e-21)
(0.306592 -0.185414 -6.28497e-21)
(0.321894 -0.181096 1.23005e-20)
(0.337903 -0.177148 -1.79029e-20)
(0.354493 -0.17351 0)
(0.371551 -0.170138 -5.52252e-21)
(0.388981 -0.166994 -5.34526e-21)
(0.406701 -0.16405 -1.03421e-20)
(0.424646 -0.16128 5.09501e-21)
(0.442766 -0.158656 9.66e-21)
(0.461024 -0.156136 -1.42003e-20)
(0.479397 -0.15365 -4.51926e-21)
(0.497854 -0.151092 -8.68796e-21)
(0.516339 -0.148288 4.35168e-21)
(0.534897 -0.144854 -1.20938e-20)
(0.553732 -0.140059 4.02491e-21)
(0.571455 -0.134128 -4.19262e-21)
(0.305104 -0.366544 1.96205e-22)
(0.282243 -0.337369 4.76513e-21)
(0.265867 -0.312483 9.71141e-21)
(0.254723 -0.291461 -4.56835e-21)
(0.24812 -0.273666 -8.98815e-21)
(0.245497 -0.258524 -8.51867e-21)
(0.246337 -0.245579 -4.07427e-21)
(0.25018 -0.234453 -8.0555e-21)
(0.256623 -0.224834 7.97663e-21)
(0.265313 -0.216458 0)
(0.275935 -0.209108 7.30572e-21)
(0.288212 -0.202601 -7.07149e-21)
(0.301902 -0.196787 -6.99182e-21)
(0.316786 -0.191538 6.62558e-21)
(0.332672 -0.186752 -6.5474e-21)
(0.349389 -0.182342 -6.20803e-21)
(0.366785 -0.178242 5.89274e-21)
(0.384724 -0.174396 -5.92626e-21)
(0.403087 -0.170767 0)
(0.421769 -0.167327 0)
(0.440679 -0.16406 0)
(0.459743 -0.160962 1.01793e-20)
(0.478903 -0.158034 -1.00335e-20)
(0.498124 -0.155274 0)
(0.51739 -0.152668 0)
(0.536689 -0.150173 0)
(0.556006 -0.147683 0)
(0.575459 -0.144845 -4.12515e-21)
(0.595366 -0.140843 -7.78585e-21)
(0.614278 -0.135799 4.22845e-21)
(0.315066 -0.358934 5.04909e-21)
(0.292581 -0.331373 -5.15115e-21)
(0.276882 -0.307858 -1.4585e-20)
(0.26664 -0.288023 1.44438e-20)
(0.261111 -0.271249 -4.56382e-21)
(0.259699 -0.256973 4.49645e-21)
(0.261855 -0.244752 1.80073e-22)
(0.267091 -0.23422 2.51195e-20)
(0.274984 -0.225075 -1.61177e-20)
(0.28516 -0.217064 7.89358e-21)
(0.297292 -0.209979 7.63496e-21)
(0.31109 -0.203644 7.24001e-21)
(0.3263 -0.197916 7.00563e-21)
(0.342696 -0.192674 -6.77738e-21)
(0.360079 -0.187819 1.3352e-20)
(0.378271 -0.183269 6.45942e-21)
(0.397113 -0.178959 6.13183e-21)
(0.416463 -0.174837 -5.94051e-21)
(0.436195 -0.170867 1.15998e-20)
(0.456197 -0.167023 -5.66272e-21)
(0.476367 -0.163298 0)
(0.496621 -0.159696 0)
(0.516887 -0.15624 0)
(0.537118 -0.152966 9.66291e-21)
(0.557289 -0.149918 -9.52679e-21)
(0.577398 -0.147148 0)
(0.597456 -0.144683 0)
(0.617669 -0.142307 4.12517e-21)
(0.638566 -0.1392 -7.75679e-21)
(0.658741 -0.135335 1.25117e-20)
(0.324942 -0.351123 6.91748e-23)
(0.303007 -0.325236 -5.29044e-21)
(0.288133 -0.303132 -1.02197e-20)
(0.278927 -0.284509 -4.80492e-21)
(0.2746 -0.26877 4.79236e-21)
(0.274517 -0.255362 -9.2403e-21)
(0.278096 -0.243857 -8.72419e-21)
(0.284824 -0.233904 -8.43811e-21)
(0.294254 -0.225212 0)
(0.305997 -0.217542 -1.58047e-20)
(0.319709 -0.210693 7.96357e-21)
(0.335092 -0.204501 -7.39978e-21)
(0.351881 -0.198829 7.44514e-21)
(0.369844 -0.193562 0)
(0.388775 -0.188605 -6.68699e-21)
(0.408492 -0.18388 6.60958e-21)
(0.428834 -0.179322 6.39534e-21)
(0.449654 -0.174879 0)
(0.470824 -0.170512 0)
(0.492226 -0.166192 0)
(0.513755 -0.161904 5.60736e-21)
(0.535315 -0.157648 -5.18917e-21)
(0.556822 -0.153446 1.0461e-20)
(0.578204 -0.149341 5.06358e-21)
(0.599412 -0.145409 0)
(0.620405 -0.141778 0)
(0.641164 -0.138636 -4.18015e-21)
(0.661919 -0.135988 1.28033e-20)
(0.683513 -0.133125 0)
(0.704938 -0.130117 0)
(0.334796 -0.343081 -1.01628e-20)
(0.313554 -0.318912 5.43149e-21)
(0.299632 -0.298265 5.09376e-21)
(0.291595 -0.280887 9.58593e-23)
(0.288596 -0.266196 -4.67281e-21)
(0.289959 -0.253655 9.24038e-21)
(0.295067 -0.242856 0)
(0.303381 -0.233463 0)
(0.314432 -0.225202 0)
(0.327813 -0.217846 -8.09166e-21)
(0.34317 -0.211208 1.61482e-22)
(0.360192 -0.205132 0)
(0.378607 -0.199489 -7.30167e-21)
(0.398178 -0.194173 0)
(0.418695 -0.189094 0)
(0.439974 -0.184176 -1.32312e-20)
(0.461853 -0.179357 1.27412e-22)
(0.484188 -0.174583 0)
(0.506854 -0.169808 0)
(0.529737 -0.164997 5.80767e-21)
(0.552738 -0.160119 -1.13306e-20)
(0.575769 -0.155152 -1.62983e-20)
(0.598748 -0.150085 1.07187e-20)
(0.621603 -0.144919 -5.06361e-21)
(0.644269 -0.139681 0)
(0.66667 -0.134453 0)
(0.688705 -0.129403 -4.49323e-21)
(0.710465 -0.124569 -4.249e-21)
(0.732804 -0.119446 7.57335e-21)
(0.755322 -0.115353 -8.15061e-21)
(0.540962 -0.00585742 8.02832e-22)
(0.537877 -0.0199731 1.05791e-21)
(0.534463 -0.0338772 3.16927e-21)
(0.530716 -0.0476016 4.1903e-21)
(0.526629 -0.0611508 -2.11019e-21)
(0.522211 -0.0745213 2.08664e-21)
(0.517473 -0.0877077 4.04743e-23)
(0.512427 -0.100705 -4.13753e-21)
(0.507087 -0.113507 8.01959e-21)
(0.501464 -0.12611 -1.20391e-20)
(0.495571 -0.138511 7.82734e-21)
(0.489419 -0.150707 -1.16543e-20)
(0.483021 -0.162695 -1.14119e-20)
(0.476385 -0.174473 1.27936e-22)
(0.469523 -0.186041 1.75214e-22)
(0.462444 -0.197397 0)
(0.455157 -0.208541 7.08685e-21)
(0.447671 -0.219474 1.3961e-20)
(0.439993 -0.230194 -1.37475e-20)
(0.432131 -0.240704 6.59545e-21)
(0.424092 -0.251002 0)