/*--------------------------------*- C++ -*----------------------------------*\
  =========                 |
  \\      /  F ield         | OpenFOAM: The Open Source CFD Toolbox
   \\    /   O peration     | Website:  https://openfoam.org
    \\  /    A nd           | Version:  6.0
     \\/     M anipulation  |
\*---------------------------------------------------------------------------*/
FoamFile
{
    version     2.0;
    format      ascii;
    class       volScalarField;
    location    "27";
    object      p;
}
// * * * * * * * * * * * * * * * * * * * * * * * * * * * * * * * * * * * * * //

dimensions      [0 2 -2 0 0 0 0];

internalField   nonuniform List<scalar> 
19200
(
-41.4837
-37.9236
-35.3558
-33.2362
-31.2748
-29.4649
-27.7908
-26.2307
-24.7704
-23.4005
-22.1139
-20.905
-19.7688
-18.7012
-17.6982
-16.7561
-15.8713
-15.0404
-14.26
-13.527
-12.8383
-12.1909
-11.582
-11.0091
-10.4697
-9.96156
-9.48262
-9.03093
-8.60465
-8.20308
-41.9664
-38.4073
-35.8304
-33.6959
-31.7171
-29.8885
-28.1952
-26.6159
-25.137
-23.7492
-22.4458
-21.221
-20.0702
-18.989
-17.9735
-17.0199
-16.1246
-15.2841
-14.4949
-13.7538
-13.0575
-12.4032
-11.788
-11.2091
-10.6642
-10.1508
-9.66701
-9.21062
-8.77972
-8.37446
-42.4543
-38.8904
-36.3032
-34.1538
-32.1574
-30.31
-28.5975
-26.999
-25.5014
-24.0958
-22.7754
-21.5349
-20.3694
-19.2747
-18.2467
-17.2818
-16.376
-15.5259
-14.728
-13.9788
-13.2752
-12.6141
-11.9925
-11.4077
-10.8573
-10.3387
-9.85002
-9.38894
-8.95342
-8.54453
-42.9443
-39.3733
-36.7746
-34.6099
-32.5957
-30.7293
-28.9973
-27.3796
-25.8633
-24.4398
-23.1026
-21.8463
-20.6662
-19.5581
-18.5178
-17.5415
-16.6254
-15.7658
-14.9592
-14.2021
-13.4911
-12.8232
-12.1953
-11.6047
-11.0487
-10.5251
-10.0315
-9.56574
-9.12561
-8.71318
-43.4344
-39.8555
-37.2444
-35.0638
-33.0317
-31.1461
-29.3946
-27.7575
-26.2224
-24.781
-23.427
-22.1551
-20.9604
-19.8389
-18.7864
-17.7989
-16.8725
-16.0035
-15.1883
-14.4233
-13.705
-13.0304
-12.3963
-11.7999
-11.2385
-10.7097
-10.2113
-9.74089
-9.29618
-8.88029
-43.9236
-40.3362
-37.7121
-35.5155
-33.465
-31.5601
-29.7889
-28.1324
-26.5785
-25.1193
-23.7485
-22.4609
-21.2518
-20.117
-19.0523
-18.0537
-17.1171
-16.2389
-15.4151
-14.6423
-13.9168
-13.2356
-12.5953
-11.9931
-11.4264
-10.8925
-10.3894
-9.91429
-9.46502
-9.04576
-44.411
-40.8149
-38.1776
-35.9644
-33.8955
-31.9711
-30.1801
-28.5041
-26.9314
-25.4543
-24.0668
-22.7636
-21.5401
-20.3921
-19.3154
-18.3057
-17.3591
-16.4716
-15.6395
-14.8589
-14.1264
-13.4385
-12.7922
-12.1844
-11.6123
-11.0734
-10.5655
-10.0858
-9.63201
-9.20949
-44.896
-41.2911
-38.6403
-36.4104
-34.3228
-32.3787
-30.5678
-28.8723
-27.2808
-25.7858
-24.3816
-23.0629
-21.8252
-20.6641
-19.5754
-18.5548
-17.5982
-16.7017
-15.8612
-15.073
-14.3335
-13.6392
-12.9868
-12.3734
-11.796
-11.2522
-10.7396
-10.2554
-9.79706
-9.37139
-45.3782
-41.7644
-39.0998
-36.853
-34.7465
-32.7827
-30.9518
-29.2367
-27.6263
-26.1136
-24.6927
-23.3586
-22.1067
-20.9327
-19.8321
-18.8007
-17.8343
-16.9288
-16.0802
-15.2845
-14.538
-13.8373
-13.179
-12.5601
-11.9775
-11.4289
-10.9116
-10.4228
-9.96008
-9.53137
-45.857
-42.2343
-39.5559
-37.2919
-35.1664
-33.1827
-31.3318
-29.597
-27.9678
-26.4373
-24.9999
-23.6505
-22.3845
-21.1976
-20.0854
-19.0433
-18.0673
-17.1529
-16.2962
-15.4931
-14.7398
-14.0328
-13.3687
-12.7443
-12.1567
-11.6032
-11.0814
-10.5881
-10.121
-9.68933
-46.3322
-42.7004
-40.008
-37.7268
-35.5822
-33.5784
-31.7074
-29.953
-28.3051
-26.7568
-25.3029
-23.9383
-22.6584
-21.4588
-20.3349
-19.2824
-18.2968
-17.3737
-16.509
-15.6986
-14.9387
-14.2255
-13.5557
-12.9259
-12.3333
-11.7751
-11.2488
-10.7511
-10.2796
-9.84519
-46.8033
-43.1624
-40.4559
-38.1574
-35.9935
-33.9696
-32.0785
-30.3044
-28.6377
-27.0719
-25.6015
-24.2218
-22.9282
-21.716
-20.5807
-19.5178
-18.5227
-17.591
-16.7185
-15.901
-15.1345
-14.4152
-13.7398
-13.1048
-12.5072
-11.9444
-11.4137
-10.9117
-10.4359
-9.99887
-47.2699
-43.6199
-40.8992
-38.5832
-36.3999
-34.3559
-32.4446
-30.6509
-28.9655
-27.3821
-25.8955
-24.5009
-23.1935
-21.9689
-20.8223
-19.7492
-18.7448
-17.8048
-16.9246
-16.1
-15.327
-14.6019
-13.9209
-13.2808
-12.6784
-12.1111
-11.576
-11.0697
-10.5898
-10.1503
-47.7317
-44.0725
-41.3375
-39.004
-36.8013
-34.7371
-32.8056
-30.9923
-29.2883
-27.6874
-26.1847
-24.7752
-23.4543
-22.2174
-21.0597
-19.9765
-18.963
-18.0147
-17.1269
-16.2954
-15.5162
-14.7852
-14.0988
-13.4537
-12.8466
-12.2749
-11.7356
-11.2252
-10.7412
-10.2993
-48.1883
-44.52
-41.7707
-39.4195
-37.1973
-35.1128
-33.1612
-31.3284
-29.6057
-27.9875
-26.4687
-25.0446
-23.7103
-22.4613
-21.2927
-20.1995
-19.1771
-18.2206
-17.3254
-16.4872
-15.7017
-14.965
-14.2734
-13.6234
-13.0117
-12.4357
-11.8924
-11.3778
-10.8898
-10.4458
-48.6396
-44.9621
-42.1983
-39.8294
-37.5876
-35.4829
-33.5111
-31.6587
-29.9176
-28.2821
-26.7474
-25.3088
-23.9614
-22.7004
-21.5209
-20.418
-19.3867
-18.4222
-17.5198
-16.675
-15.8835
-15.1412
-14.4444
-13.7897
-13.1736
-12.5933
-12.0461
-11.5276
-11.0358
-10.5898
-49.0851
-45.3984
-42.6202
-40.2334
-37.972
-35.847
-33.855
-31.9832
-30.2237
-28.5711
-27.0207
-25.5676
-24.2072
-22.9344
-21.7443
-20.6318
-19.5919
-18.6195
-17.71
-16.8587
-16.0612
-15.3135
-14.6118
-13.9523
-13.3319
-12.7477
-12.1966
-11.6743
-11.1787
-10.7309
-49.5247
-45.8288
-43.036
-40.6313
-38.3502
-36.2049
-34.1928
-32.3016
-30.5238
-28.8542
-27.2881
-25.8209
-24.4476
-23.1632
-21.9626
-20.8407
-19.7923
-18.8122
-17.8957
-17.038
-16.2348
-15.4818
-14.7751
-14.1112
-13.4866
-12.8984
-12.3437
-11.8177
-11.3185
-10.8692
-49.9582
-46.2529
-43.4455
-41.0228
-38.722
-36.5563
-34.5241
-32.6136
-30.8176
-29.1312
-27.5497
-26.0684
-24.6824
-23.3866
-22.1757
-21.0445
-19.9877
-19.0001
-18.0767
-17.2128
-16.4039
-15.6457
-14.9343
-14.2659
-13.6373
-13.0454
-12.4871
-11.9576
-11.455
-11.0043
-50.3853
-46.6707
-43.8485
-41.4077
-39.0871
-36.9011
-34.8488
-32.919
-31.105
-29.4019
-27.8051
-26.3099
-24.9114
-23.6043
-22.3833
-21.243
-20.178
-19.183
-18.2529
-17.3828
-16.5683
-15.805
-15.089
-14.4164
-13.7838
-13.1882
-12.6266
-12.0937
-11.5878
-11.136
-50.806
-47.0819
-44.2447
-41.7857
-39.4453
-37.2389
-35.1666
-33.2177
-31.3857
-29.6661
-28.0542
-26.5453
-25.1345
-23.8163
-22.5853
-21.4361
-20.3629
-19.3606
-18.4239
-17.5479
-16.7279
-15.9596
-15.2389
-14.5621
-13.9257
-13.3267
-12.7618
-12.2257
-11.7166
-11.2639
-51.2201
-47.4863
-44.6341
-42.1567
-39.7963
-37.5696
-35.4773
-33.5094
-31.6596
-29.9236
-28.2968
-26.7744
-25.3514
-24.0223
-22.7816
-21.6235
-20.5424
-19.5329
-18.5896
-17.7077
-16.8823
-16.1091
-15.3839
-14.703
-14.0628
-13.4603
-12.8923
-12.3532
-11.8411
-11.3876
-51.6279
-47.884
-45.0164
-42.5205
-40.14
-37.8929
-35.7808
-33.7939
-31.9265
-30.1743
-28.5327
-26.9971
-25.5621
-24.2223
-22.9719
-21.8051
-20.7162
-19.6996
-18.7499
-17.862
-17.0313
-16.2532
-15.5235
-14.8385
-14.1947
-13.5888
-13.0178
-12.4757
-11.9607
-11.5065
-52.0294
-48.2747
-45.3914
-42.8767
-40.4761
-38.2086
-36.0767
-34.0711
-32.1862
-30.4179
-28.7619
-27.2131
-25.7664
-24.416
-23.1561
-21.9808
-20.8841
-19.8605
-18.9045
-18.0108
-17.1747
-16.3917
-15.6575
-14.9684
-14.3208
-13.7117
-13.1376
-12.5927
-12.0748
-11.6204
-52.4248
-48.6584
-45.7589
-43.2253
-40.8043
-38.5165
-36.3649
-34.3406
-32.4385
-30.6545
-28.9841
-27.4225
-25.9642
-24.6035
-23.3342
-22.1505
-21.0462
-20.0157
-19.0533
-18.1538
-17.3123
-16.5243
-15.7856
-15.0923
-14.4409
-13.8283
-13.2512
-12.7034
-12.1829
-11.7285
-52.8144
-49.0347
-46.1186
-43.5657
-41.1245
-38.8163
-36.6451
-34.6025
-32.6833
-30.8838
-29.1994
-27.6251
-26.1555
-24.7846
-23.5062
-22.3142
-21.2024
-20.165
-19.1962
-18.2909
-17.444
-16.6509
-15.9075
-15.2099
-14.5545
-13.9382
-13.3579
-12.8071
-12.2838
-11.8287
-53.1992
-49.4038
-46.4701
-43.8979
-41.4361
-39.1077
-36.9171
-34.8563
-32.9204
-31.1056
-29.4075
-27.8209
-26.3402
-24.9593
-23.672
-22.4719
-21.3527
-20.3085
-19.3334
-18.4222
-17.5697
-16.7715
-16.0232
-15.321
-14.6613
-14.0412
-13.4574
-12.9035
-12.3767
-11.919
-53.5838
-49.7669
-46.8131
-44.2208
-41.7386
-39.3901
-37.1804
-35.1018
-33.1495
-31.3198
-29.6083
-28.0097
-26.5182
-25.1277
-23.8316
-22.6235
-21.4971
-20.4461
-19.4648
-18.5476
-17.6896
-16.886
-16.1325
-15.4253
-14.761
-14.1367
-13.5494
-12.9919
-12.4612
-12.0041
-53.9714
-50.1236
-47.146
-44.5334
-42.0313
-39.6633
-37.4349
-35.3389
-33.3706
-31.5265
-29.8019
-28.1916
-26.6897
-25.2897
-23.9851
-22.7693
-21.6358
-20.5782
-19.5906
-18.6675
-17.8037
-16.9945
-16.2355
-15.5228
-14.853
-14.2234
-13.6305
-13.0672
-12.5341
-12.09
-54.3383
-50.4643
-47.4661
-44.8352
-42.3146
-39.928
-37.6816
-35.5686
-33.5847
-31.7264
-29.9891
-28.3674
-26.8552
-25.4461
-24.1333
-22.9099
-21.7694
-20.7054
-19.7117
-18.7827
-17.9131
-17.0981
-16.3331
-15.6142
-14.9377
-14.3005
-13.6977
-13.1237
-12.5884
-12.1483
-59.5811
-59.5671
-59.5317
-59.49
-59.4401
-59.3795
-59.3072
-59.2233
-59.1277
-59.0204
-58.9013
-58.7703
-58.6278
-58.4736
-58.3081
-58.1312
-57.9433
-57.7444
-57.5348
-57.3146
-57.0842
-56.8436
-56.5932
-56.3334
-56.0644
-55.7869
-55.5016
-55.2101
-54.9154
-54.6221
-55.5049
-55.5067
-55.4904
-55.4622
-55.4226
-55.3707
-55.3066
-55.2303
-55.1421
-55.0421
-54.9302
-54.8066
-54.6714
-54.5248
-54.3668
-54.1976
-54.0175
-53.8265
-53.6249
-53.4128
-53.1904
-52.958
-52.7159
-52.4642
-52.2033
-51.9337
-51.6557
-51.37
-51.0771
-50.7756
-52.1684
-52.1822
-52.1804
-52.1648
-52.1363
-52.0953
-52.0419
-51.9765
-51.8991
-51.8099
-51.709
-51.5966
-51.4727
-51.3376
-51.1913
-51.034
-50.8658
-50.687
-50.4977
-50.298
-50.0882
-49.8685
-49.639
-49.3999
-49.1516
-48.8941
-48.6277
-48.3524
-48.0678
-47.7727
-49.1396
-49.1626
-49.1717
-49.1671
-49.1498
-49.12
-49.0782
-49.0245
-48.959
-48.882
-48.7935
-48.6937
-48.5828
-48.4608
-48.3279
-48.1843
-48.0301
-47.8654
-47.6905
-47.5054
-47.3104
-47.1055
-46.891
-46.667
-46.4337
-46.1911
-45.9393
-45.6782
-45.4075
-45.1267
-46.2136
-46.2439
-46.2618
-46.2669
-46.2595
-46.2402
-46.2091
-46.1665
-46.1125
-46.0473
-45.971
-45.8838
-45.7857
-45.6769
-45.5576
-45.4278
-45.2878
-45.1377
-44.9775
-44.8076
-44.6279
-44.4386
-44.2399
-44.0318
-43.8145
-43.5881
-43.3524
-43.1075
-42.8531
-42.589
-43.4434
-43.4795
-43.5043
-43.517
-43.5179
-43.5073
-43.4855
-43.4526
-43.4087
-43.354
-43.2887
-43.2129
-43.1266
-43.0301
-42.9235
-42.8068
-42.6802
-42.5439
-42.398
-42.2426
-42.0778
-41.9037
-41.7204
-41.5281
-41.3268
-41.1165
-40.8972
-40.6689
-40.4315
-40.1846
-40.8515
-40.8917
-40.9214
-40.9398
-40.947
-40.9432
-40.9288
-40.9038
-40.8683
-40.8225
-40.7666
-40.7006
-40.6247
-40.539
-40.4435
-40.3386
-40.2241
-40.1004
-39.9674
-39.8254
-39.6743
-39.5144
-39.3457
-39.1682
-38.9821
-38.7873
-38.5838
-38.3716
-38.1506
-37.9207
-38.4384
-38.481
-38.5137
-38.5359
-38.5475
-38.5488
-38.5399
-38.521
-38.4921
-38.4535
-38.4052
-38.3474
-38.2801
-38.2035
-38.1177
-38.0228
-37.9189
-37.8061
-37.6846
-37.5545
-37.4157
-37.2686
-37.113
-36.9491
-36.7768
-36.5964
-36.4076
-36.2105
-36.0051
-35.7912
-36.2004
-36.2439
-36.2783
-36.3027
-36.3171
-36.3217
-36.3168
-36.3023
-36.2785
-36.2453
-36.203
-36.1517
-36.0914
-36.0223
-35.9444
-35.858
-35.763
-35.6596
-35.5479
-35.4281
-35.3001
-35.1641
-35.0202
-34.8683
-34.7087
-34.5411
-34.3657
-34.1825
-33.9913
-33.7922
-34.1309
-34.1743
-34.209
-34.2343
-34.2501
-34.2568
-34.2544
-34.243
-34.2227
-34.1937
-34.1559
-34.1096
-34.0548
-33.9916
-33.9202
-33.8407
-33.7531
-33.6576
-33.5542
-33.4431
-33.3244
-33.1981
-33.0643
-32.9231
-32.7744
-32.6184
-32.455
-32.2842
-32.1059
-31.9201
-32.2203
-32.2627
-32.2968
-32.322
-32.3384
-32.346
-32.345
-32.3355
-32.3176
-32.2914
-32.257
-32.2145
-32.1639
-32.1054
-32.0392
-31.9652
-31.8837
-31.7946
-31.6982
-31.5945
-31.4836
-31.3656
-31.2406
-31.1085
-30.9695
-30.8236
-30.6708
-30.511
-30.3442
-30.1704
-30.4575
-30.4982
-30.531
-30.5555
-30.5715
-30.5793
-30.5789
-30.5705
-30.5541
-30.5298
-30.4977
-30.4579
-30.4105
-30.3557
-30.2935
-30.224
-30.1473
-30.0636
-29.9729
-29.8754
-29.7711
-29.6601
-29.5426
-29.4185
-29.2879
-29.1509
-29.0073
-28.8573
-28.7007
-28.5376
-28.8305
-28.8692
-28.9003
-28.9235
-28.9387
-28.946
-28.9457
-28.9376
-28.922
-28.8989
-28.8684
-28.8305
-28.7855
-28.7335
-28.6744
-28.6084
-28.5357
-28.4563
-28.3704
-28.278
-28.1793
-28.0744
-27.9632
-27.846
-27.7227
-27.5934
-27.4581
-27.3167
-27.1692
-27.0155
-27.3276
-27.364
-27.3932
-27.4148
-27.4288
-27.4353
-27.4345
-27.4264
-27.411
-27.3886
-27.3591
-27.3226
-27.2794
-27.2294
-27.1728
-27.1096
-27.0401
-26.9643
-26.8823
-26.7942
-26.7002
-26.6003
-26.4947
-26.3834
-26.2664
-26.1439
-26.0158
-25.8821
-25.7426
-25.5975
-25.9375
-25.9714
-25.9985
-26.0184
-26.031
-26.0365
-26.0349
-26.0264
-26.011
-25.9888
-25.9599
-25.9244
-25.8824
-25.834
-25.7793
-25.7185
-25.6515
-25.5786
-25.4999
-25.4155
-25.3254
-25.2299
-25.1291
-25.0229
-24.9115
-24.7949
-24.6732
-24.5463
-24.4141
-24.2766
-24.6494
-24.681
-24.706
-24.724
-24.7351
-24.7394
-24.737
-24.7279
-24.7122
-24.69
-24.6615
-24.6266
-24.5855
-24.5383
-24.4852
-24.4261
-24.3613
-24.2908
-24.2149
-24.1335
-24.0469
-23.9551
-23.8584
-23.7567
-23.6502
-23.5389
-23.4229
-23.3022
-23.1765
-23.046
-23.4538
-23.483
-23.5059
-23.5221
-23.5317
-23.5348
-23.5314
-23.5216
-23.5055
-23.4832
-23.4548
-23.4203
-23.3799
-23.3337
-23.2817
-23.2242
-23.1611
-23.0927
-23.0191
-22.9404
-22.8567
-22.7682
-22.6751
-22.5773
-22.4752
-22.3686
-22.2578
-22.1426
-22.0229
-21.8987
-22.3417
-22.3688
-22.3896
-22.4041
-22.4122
-22.414
-22.4096
-22.3991
-22.3825
-22.36
-22.3316
-22.2974
-22.2575
-22.212
-22.1611
-22.1048
-22.0433
-21.9766
-21.905
-21.8286
-21.7475
-21.6619
-21.5719
-21.4777
-21.3794
-21.2771
-21.1709
-21.0608
-20.9467
-20.8284
-21.3054
-21.3303
-21.3492
-21.362
-21.3687
-21.3693
-21.3639
-21.3527
-21.3356
-21.3128
-21.2844
-21.2503
-21.2109
-21.166
-21.1159
-21.0607
-21.0005
-20.9354
-20.8656
-20.7912
-20.7123
-20.6292
-20.5421
-20.451
-20.3562
-20.2577
-20.1558
-20.0504
-19.9415
-19.8287
-20.3377
-20.3606
-20.3777
-20.3889
-20.3942
-20.3937
-20.3874
-20.3755
-20.3579
-20.3348
-20.3063
-20.2724
-20.2333
-20.189
-20.1397
-20.0854
-20.0264
-19.9626
-19.8944
-19.8217
-19.7449
-19.6641
-19.5794
-19.4911
-19.3994
-19.3045
-19.2065
-19.1055
-19.0014
-18.894
-19.4323
-19.4534
-19.4689
-19.4786
-19.4826
-19.481
-19.4739
-19.4613
-19.4433
-19.4199
-19.3913
-19.3576
-19.3187
-19.2749
-19.2263
-19.1729
-19.1148
-19.0523
-18.9855
-18.9145
-18.8394
-18.7606
-18.6782
-18.5925
-18.5036
-18.4119
-18.3175
-18.2206
-18.1211
-18.0188
-18.5838
-18.6031
-18.6171
-18.6254
-18.6283
-18.6257
-18.6178
-18.6046
-18.5862
-18.5626
-18.5339
-18.5002
-18.4617
-18.4184
-18.3703
-18.3177
-18.2606
-18.1992
-18.1337
-18.0641
-17.9907
-17.9137
-17.8333
-17.7498
-17.6634
-17.5746
-17.4835
-17.3904
-17.2954
-17.1982
-17.7871
-17.8049
-17.8174
-17.8245
-17.8263
-17.8229
-17.8142
-17.8005
-17.7816
-17.7578
-17.7291
-17.6956
-17.6573
-17.6144
-17.5669
-17.5151
-17.4589
-17.3985
-17.3341
-17.2659
-17.1939
-17.1185
-17.0399
-16.9584
-16.8743
-16.788
-16.6999
-16.6104
-16.5197
-16.4275
-17.0379
-17.0542
-17.0654
-17.0714
-17.0723
-17.068
-17.0587
-17.0445
-17.0253
-17.0014
-16.9726
-16.9392
-16.9012
-16.8587
-16.8118
-16.7607
-16.7053
-16.6459
-16.5826
-16.5155
-16.4449
-16.3709
-16.2939
-16.2141
-16.132
-16.0479
-15.9625
-15.8763
-15.7897
-15.7025
-16.3324
-16.3474
-16.3574
-16.3623
-16.3623
-16.3573
-16.3474
-16.3327
-16.3133
-16.2892
-16.2605
-16.2272
-16.1895
-16.1474
-16.1011
-16.0506
-15.996
-15.9375
-15.8752
-15.8092
-15.7398
-15.6671
-15.5915
-15.5132
-15.4327
-15.3505
-15.2674
-15.1841
-15.1014
-15.0194
-15.6671
-15.6808
-15.6897
-15.6937
-15.6928
-15.6871
-15.6768
-15.6617
-15.642
-15.6178
-15.5891
-15.556
-15.5185
-15.4768
-15.431
-15.3811
-15.3273
-15.2696
-15.2082
-15.1433
-15.0749
-15.0034
-14.9289
-14.8518
-14.7726
-14.692
-14.6106
-14.5297
-14.4506
-14.3739
-15.0389
-15.0515
-15.0593
-15.0624
-15.0608
-15.0545
-15.0436
-15.0282
-15.0082
-14.9839
-14.9552
-14.9222
-14.885
-14.8436
-14.7982
-14.7489
-14.6957
-14.6387
-14.5781
-14.514
-14.4466
-14.3759
-14.3024
-14.2262
-14.148
-14.0682
-13.988
-13.9088
-13.8324
-13.7606
-14.4452
-14.4568
-14.4638
-14.4662
-14.464
-14.4572
-14.446
-14.4303
-14.4103
-14.3859
-14.3573
-14.3244
-14.2875
-14.2465
-14.2016
-14.1528
-14.1002
-14.0439
-13.9841
-13.9207
-13.8541
-13.7842
-13.7114
-13.636
-13.5582
-13.479
-13.3992
-13.3209
-13.2464
-13.1782
-13.8829
-13.894
-13.9006
-13.9028
-13.9004
-13.8937
-13.8825
-13.8671
-13.8474
-13.8234
-13.7954
-13.7632
-13.7271
-13.687
-13.6431
-13.5954
-13.544
-13.489
-13.4304
-13.3685
-13.3033
-13.2348
-13.1634
-13.0892
-13.0126
-12.9341
-12.8548
-12.7774
-12.705
-12.6433
-13.3505
-13.3598
-13.3649
-13.3657
-13.3622
-13.3545
-13.3427
-13.3268
-13.3069
-13.2829
-13.255
-13.2233
-13.1877
-13.1484
-13.1054
-13.0589
-13.0088
-12.9553
-12.8984
-12.8382
-12.7748
-12.7083
-12.6389
-12.5665
-12.4915
-12.4143
-12.3352
-12.2571
-12.1819
-12.1355
-53.3169
-53.6829
-54.0252
-54.3688
-54.7104
-55.0449
-55.3705
-55.6865
-55.9924
-56.2874
-56.571
-56.8429
-57.1025
-57.3497
-57.5843
-57.8059
-58.0144
-58.2098
-58.3918
-58.5604
-58.7156
-58.8573
-58.9856
-59.1006
-59.2023
-59.2911
-59.3675
-59.4323
-59.4872
-59.5352
-49.1748
-49.5552
-49.9175
-50.2719
-50.6185
-50.9556
-51.2825
-51.5991
-51.905
-52.2
-52.4836
-52.7556
-53.0156
-53.2634
-53.4987
-53.7215
-53.9314
-54.1284
-54.3124
-54.4832
-54.6409
-54.7854
-54.9167
-55.0348
-55.1399
-55.2322
-55.3118
-55.3791
-55.4343
-55.4764
-45.779
-46.161
-46.5292
-46.8858
-47.2323
-47.5687
-47.8947
-48.2104
-48.5155
-48.8097
-49.0929
-49.3647
-49.6249
-49.8733
-50.1096
-50.3337
-50.5454
-50.7446
-50.9312
-51.1051
-51.2662
-51.4145
-51.55
-51.6726
-51.7825
-51.8795
-51.9639
-52.0354
-52.0939
-52.1383
-42.7381
-43.1134
-43.4776
-43.8306
-44.1731
-44.5057
-44.8283
-45.1407
-45.4428
-45.7344
-46.0152
-46.2852
-46.5439
-46.7913
-47.0272
-47.2513
-47.4636
-47.6638
-47.852
-48.0279
-48.1916
-48.3429
-48.4818
-48.6084
-48.7224
-48.8241
-48.9131
-48.9895
-49.0531
-49.1032
-39.8599
-40.2246
-40.5803
-40.9259
-41.2615
-41.5875
-41.9038
-42.2104
-42.5071
-42.7937
-43.07
-43.3358
-43.591
-43.8354
-44.0687
-44.2909
-44.5017
-44.7011
-44.889
-45.0652
-45.2297
-45.3824
-45.5232
-45.6521
-45.7691
-45.874
-45.9668
-46.0474
-46.1156
-46.1711
-37.1952
-37.5476
-37.8924
-38.2279
-38.554
-38.871
-39.1789
-39.4774
-39.7665
-40.046
-40.3157
-40.5754
-40.825
-41.0643
-41.2932
-41.5114
-41.7189
-41.9155
-42.1012
-42.2758
-42.4392
-42.5914
-42.7323
-42.8619
-42.98
-43.0866
-43.1817
-43.2651
-43.3366
-43.3962
-34.7574
-35.0965
-35.4286
-35.7524
-36.0674
-36.3737
-36.6714
-36.9603
-37.2402
-37.511
-37.7725
-38.0245
-38.2669
-38.4995
-38.7222
-38.9349
-39.1374
-39.3295
-39.5113
-39.6825
-39.8432
-39.9932
-40.1325
-40.261
-40.3786
-40.4853
-40.581
-40.6656
-40.739
-40.8011
-32.5349
-32.86
-33.1788
-33.4898
-33.7926
-34.0874
-34.3739
-34.6521
-34.9218
-35.1829
-35.435
-35.6782
-35.9123
-36.1371
-36.3525
-36.5583
-36.7544
-36.9408
-37.1173
-37.2839
-37.4404
-37.5868
-37.723
-37.849
-37.9647
-38.07
-38.1648
-38.2492
-38.323
-38.3862
-30.5119
-30.8231
-31.1283
-31.4263
-31.7166
-31.9993
-32.2742
-32.5412
-32.8001
-33.0508
-33.2931
-33.5268
-33.7518
-33.968
-34.1753
-34.3735
-34.5624
-34.7421
-34.9125
-35.0733
-35.2247
-35.3664
-35.4985
-35.6208
-35.7334
-35.8361
-35.929
-36.0119
-36.0849
-36.1478
-28.6712
-28.9687
-29.2605
-29.5455
-29.8234
-30.094
-30.3572
-30.6129
-30.8609
-31.1011
-31.3332
-31.5572
-31.7728
-31.9801
-32.1788
-32.3689
-32.5502
-32.7227
-32.8862
-33.0408
-33.1863
-33.3226
-33.4498
-33.5677
-33.6764
-33.7757
-33.8657
-33.9462
-34.0174
-34.079
-26.9945
-27.2788
-27.5577
-27.8301
-28.0958
-28.3546
-28.6064
-28.851
-29.0882
-29.3179
-29.5399
-29.7542
-29.9605
-30.1587
-30.3488
-30.5306
-30.704
-30.8691
-31.0256
-31.1735
-31.3128
-31.4433
-31.5652
-31.6782
-31.7824
-31.8778
-31.9642
-32.0418
-32.1103
-32.17
-25.4641
-25.7358
-26.0024
-26.2628
-26.5168
-26.7642
-27.005
-27.2388
-27.4656
-27.6852
-27.8974
-28.1021
-28.2992
-28.4886
-28.6701
-28.8438
-29.0094
-29.167
-29.3164
-29.4576
-29.5905
-29.7151
-29.8314
-29.9393
-30.0388
-30.1298
-30.2124
-30.2865
-30.3521
-30.4092
-24.0634
-24.3233
-24.5783
-24.8273
-25.0702
-25.3069
-25.5372
-25.7608
-25.9776
-26.1875
-26.3903
-26.5858
-26.7741
-26.9549
-27.1282
-27.2938
-27.4518
-27.6021
-27.7445
-27.8791
-28.0057
-28.1244
-28.2352
-28.3379
-28.4325
-28.5191
-28.5976
-28.668
-28.7304
-28.7846
-22.7778
-23.0266
-23.2706
-23.509
-23.7415
-23.9681
-24.1884
-24.4024
-24.6097
-24.8104
-25.0043
-25.1911
-25.3709
-25.5436
-25.7089
-25.867
-26.0176
-26.1608
-26.2965
-26.4247
-26.5452
-26.6581
-26.7634
-26.8609
-26.9508
-27.033
-27.1074
-27.1741
-27.233
-27.2843
-21.594
-21.8325
-22.0663
-22.2947
-22.5175
-22.7346
-22.9456
-23.1505
-23.349
-23.5411
-23.7265
-23.9051
-24.0769
-24.2418
-24.3997
-24.5505
-24.6942
-24.8307
-24.9599
-25.0819
-25.1966
-25.3039
-25.4039
-25.4965
-25.5817
-25.6595
-25.7299
-25.7929
-25.8486
-25.8968
-20.5006
-20.7294
-20.9538
-21.173
-21.3867
-21.5949
-21.7973
-21.9937
-22.184
-22.3679
-22.5454
-22.7163
-22.8806
-23.0382
-23.189
-23.333
-23.47
-23.6002
-23.7233
-23.8395
-23.9486
-24.0506
-24.1456
-24.2334
-24.3142
-24.3878
-24.4544
-24.5138
-24.5661
-24.6114
-19.4877
-19.7076
-19.9231
-20.1337
-20.3391
-20.5391
-20.7334
-20.9219
-21.1044
-21.2807
-21.4508
-21.6145
-21.7717
-21.9224
-22.0666
-22.2041
-22.335
-22.4592
-22.5766
-22.6872
-22.7911
-22.8881
-22.9783
-23.0617
-23.1382
-23.2079
-23.2707
-23.3267
-23.3759
-23.4183
-18.5468
-18.7582
-18.9656
-19.1682
-19.3658
-19.5582
-19.745
-19.9262
-20.1014
-20.2706
-20.4338
-20.5907
-20.7413
-20.8856
-21.0236
-21.1551
-21.2801
-21.3986
-21.5107
-21.6161
-21.715
-21.8074
-21.8931
-21.9722
-22.0448
-22.1107
-22.1701
-22.2229
-22.2691
-22.3088
-17.6703
-17.8739
-18.0737
-18.269
-18.4594
-18.6447
-18.8246
-18.9989
-19.1674
-19.33
-19.4866
-19.6372
-19.7816
-19.9199
-20.052
-20.1778
-20.2974
-20.4107
-20.5176
-20.6182
-20.7125
-20.8004
-20.882
-20.9572
-21.026
-21.0884
-21.1445
-21.1942
-21.2376
-21.2747
-16.8519
-17.0482
-17.241
-17.4295
-17.6133
-17.7921
-17.9655
-18.1333
-18.2955
-18.4519
-18.6024
-18.747
-18.8857
-19.0183
-19.1449
-19.2654
-19.3799
-19.4882
-19.5904
-19.6865
-19.7765
-19.8602
-19.9379
-20.0093
-20.0746
-20.1338
-20.1868
-20.2337
-20.2745
-20.3092
-16.0859
-16.2753
-16.4618
-16.6441
-16.8219
-16.9945
-17.1619
-17.3238
-17.48
-17.6306
-17.7754
-17.9144
-18.0475
-18.1748
-18.2963
-18.4118
-18.5214
-18.6251
-18.7229
-18.8148
-18.9006
-18.9806
-19.0545
-19.1225
-19.1846
-19.2407
-19.2908
-19.335
-19.3734
-19.4058
-15.3674
-15.5505
-15.7311
-15.9079
-16.08
-16.2471
-16.4088
-16.5651
-16.7158
-16.8608
-17.0002
-17.1339
-17.2619
-17.3842
-17.5007
-17.6116
-17.7167
-17.8161
-17.9097
-17.9975
-18.0796
-18.1559
-18.2265
-18.2912
-18.3502
-18.4035
-18.451
-18.4927
-18.5288
-18.5592
-14.6921
-14.8692
-15.0448
-15.2166
-15.3836
-15.5454
-15.7018
-15.8528
-15.9982
-16.138
-16.2723
-16.4009
-16.5241
-16.6416
-16.7536
-16.8601
-16.9609
-17.0562
-17.1459
-17.23
-17.3086
-17.3815
-17.4488
-17.5106
-17.5667
-17.6173
-17.6624
-17.7018
-17.7358
-17.7642
-14.0557
-14.2273
-14.3988
-14.5663
-14.7286
-14.8855
-15.037
-15.1829
-15.3233
-15.4581
-15.5875
-15.7115
-15.83
-15.9431
-16.0508
-16.153
-16.2499
-16.3413
-16.4274
-16.508
-16.5832
-16.653
-16.7173
-16.7763
-16.8298
-16.8779
-16.9206
-16.958
-16.99
-17.0167
-13.4548
-13.6216
-13.79
-13.9538
-14.1118
-14.2641
-14.4109
-14.552
-14.6876
-14.8177
-14.9424
-15.0619
-15.176
-15.2849
-15.3885
-15.4868
-15.5799
-15.6678
-15.7504
-15.8277
-15.8998
-15.9666
-16.0282
-16.0845
-16.1356
-16.1814
-16.222
-16.2574
-16.2876
-16.3126
-12.8858
-13.0496
-13.2164
-13.3769
-13.5308
-13.6788
-13.821
-13.9575
-14.0884
-14.214
-14.3343
-14.4494
-14.5594
-14.6642
-14.7639
-14.8586
-14.9481
-15.0325
-15.1119
-15.1861
-15.2553
-15.3193
-15.3783
-15.4321
-15.4809
-15.5245
-15.5631
-15.5967
-15.6252
-15.6487
-12.342
-12.5073
-12.6751
-12.8328
-12.9827
-13.1265
-13.2642
-13.3961
-13.5226
-13.6438
-13.7598
-13.8709
-13.9769
-14.0779
-14.174
-14.2651
-14.3513
-14.4325
-14.5088
-14.5802
-14.6466
-14.708
-14.7645
-14.816
-14.8626
-14.9043
-14.941
-14.9728
-14.9998
-15.0218
-11.8097
-11.9822
-12.1561
-12.312
-12.4582
-12.5981
-12.7318
-12.8596
-12.982
-13.0993
-13.2117
-13.3191
-13.4217
-13.5194
-13.6123
-13.7004
-13.7837
-13.8622
-13.9359
-14.0048
-14.0688
-14.1281
-14.1825
-14.2321
-14.2769
-14.3169
-14.3521
-14.3825
-14.4082
-14.4291
-11.2892
-11.4685
-11.653
-11.8101
-11.9536
-12.09
-12.2201
-12.3443
-12.4633
-12.5772
-12.6863
-12.7907
-12.8903
-12.9852
-13.0754
-13.161
-13.2418
-13.318
-13.3895
-13.4563
-13.5185
-13.576
-13.6287
-13.6768
-13.7203
-13.759
-13.7931
-13.8225
-13.8472
-13.8674
-10.8789
-11.0631
-11.2423
-11.3989
-11.5377
-11.6671
-11.7906
-11.9087
-12.0215
-12.1295
-12.2328
-12.3316
-12.4257
-12.5153
-12.6003
-12.6809
-12.7569
-12.8284
-12.8954
-12.9579
-13.0159
-13.0694
-13.1185
-13.1631
-13.2032
-13.2388
-13.27
-13.2968
-13.3191
-13.337
-5.75851
-6.0738
-6.40762
-6.75988
-7.13234
-7.5267
-7.94464
-8.38802
-8.85901
-9.36008
-9.8941
-10.4644
-11.075
-11.7304
-12.4363
-13.1993
-14.0274
-14.9301
-15.9188
-17.0074
-18.212
-19.5517
-21.0486
-22.727
-24.6144
-26.7398
-29.1146
-31.7187
-34.7716
-38.6785
-5.93788
-6.25904
-6.59694
-6.95385
-7.33149
-7.73137
-8.15515
-8.60477
-9.08243
-9.59064
-10.1323
-10.7108
-11.3302
-11.9952
-12.7113
-13.4853
-14.3252
-15.2408
-16.2434
-17.347
-18.5677
-19.9249
-21.4403
-23.1384
-25.0462
-27.1923
-29.5872
-32.2088
-35.2725
-39.1785
-6.11787
-6.44491
-6.78692
-7.14855
-7.53145
-7.93691
-8.36662
-8.82255
-9.30696
-9.82239
-10.3718
-10.9586
-11.5869
-12.2614
-12.9879
-13.773
-14.625
-15.5535
-16.5701
-17.6888
-18.9259
-20.3005
-21.8346
-23.5524
-25.4804
-27.6468
-30.061
-32.6988
-35.771
-39.6729
-6.2983
-6.6312
-6.97737
-7.34377
-7.73199
-8.1431
-8.57879
-9.0411
-9.53231
-10.055
-10.6122
-11.2074
-11.8447
-12.5289
-13.2657
-14.062
-14.926
-15.8676
-16.8983
-18.0322
-19.2856
-20.6778
-22.2305
-23.9679
-25.916
-28.1024
-30.5355
-33.1895
-36.2723
-40.1758
-6.47902
-6.81778
-7.16813
-7.53938
-7.93298
-8.34979
-8.79152
-9.26026
-9.75834
-10.2884
-10.8535
-11.4571
-12.1034
-12.7972
-13.5445
-14.3521
-15.2283
-16.1829
-17.2277
-18.3768
-19.6467
-21.0564
-22.6277
-24.3846
-26.3528
-28.5591
-31.011
-33.6814
-36.7764
-40.6848
-6.65992
-7.00451
-7.35908
-7.73523
-8.13427
-8.55684
-9.00466
-9.47989
-9.98489
-10.5223
-11.0953
-11.7074
-12.3628
-13.0664
-13.8242
-14.6431
-15.5315
-16.4992
-17.5583
-18.7226
-20.0089
-21.4361
-23.0261
-24.8025
-26.7907
-29.0168
-31.4875
-34.1745
-37.282
-41.1967
-6.84088
-7.19126
-7.55007
-7.93119
-8.33573
-8.7641
-9.21807
-9.69983
-10.2118
-10.7567
-11.3376
-11.9582
-12.6228
-13.3362
-14.1046
-14.9348
-15.8354
-16.8164
-17.8896
-19.0693
-20.372
-21.8168
-23.4254
-25.2213
-27.2294
-29.4754
-31.9648
-34.6682
-37.7884
-41.7103
-7.02177
-7.37789
-7.74096
-8.12711
-8.5372
-8.97143
-9.43159
-9.91994
-10.4389
-10.9913
-11.5802
-12.2094
-12.8831
-13.6064
-14.3854
-15.227
-16.1399
-17.1341
-18.2216
-19.4166
-20.7358
-22.1982
-23.8254
-25.6407
-27.6688
-29.9345
-32.4427
-35.1625
-38.2954
-42.2249
-7.20249
-7.5643
-7.93164
-8.32287
-8.73856
-9.1787
-9.64508
-10.1401
-10.6661
-11.226
-11.823
-12.4607
-13.1437
-13.8769
-14.6664
-15.5195
-16.4447
-17.4522
-18.554
-19.7644
-21.1
-22.58
-24.2259
-26.0606
-28.1085
-30.3939
-32.9207
-35.6569
-38.8025
-42.7399
-7.38293
-7.75035
-8.12198
-8.51834
-8.93969
-9.38576
-9.85842
-10.36
-10.8932
-11.4606
-12.0657
-12.7121
-13.4042
-14.1474
-14.9476
-15.8121
-16.7497
-17.7704
-18.8865
-20.1123
-21.4644
-22.962
-24.6264
-26.4805
-28.5482
-30.8532
-33.3985
-36.151
-39.3094
-43.2547
-7.56299
-7.93595
-8.31188
-8.71342
-9.14045
-9.5925
-10.0715
-10.5798
-11.12
-11.695
-12.3082
-12.9632
-13.6646
-14.4177
-15.2286
-16.1046
-17.0545
-18.0886
-19.219
-20.4602
-21.8288
-23.3439
-25.0269
-26.9002
-28.9877
-31.3122
-33.8758
-36.6444
-39.8155
-43.7687
-7.7426
-8.12101
-8.50122
-8.90799
-9.34076
-9.79881
-10.2841
-10.7991
-11.3465
-11.9291
-12.5503
-13.214
-13.9247
-14.6877
-15.5093
-16.3968
-17.359
-18.4064
-19.5512
-20.8077
-22.1928
-23.7255
-25.4269
-27.3195
-29.4265
-31.7704
-34.3523
-37.1368
-40.3203
-44.2814
-7.92168
-8.30544
-8.68994
-9.10197
-9.5405
-10.0046
-10.4962
-11.0179
-11.5725
-12.1627
-12.792
-13.4644
-14.1843
-14.9573
-15.7895
-16.6885
-17.6631
-18.7237
-19.8828
-21.1547
-22.5562
-24.1064
-25.8262
-27.738
-29.8644
-32.2275
-34.8274
-37.6278
-40.8234
-44.7923
-8.10019
-8.48917
-8.87794
-9.29528
-9.7396
-10.2097
-10.7077
-11.2361
-11.7978
-12.3956
-13.033
-13.714
-14.4432
-15.2261
-16.069
-16.9794
-17.9664
-19.0403
-20.2136
-21.5008
-22.9187
-24.4863
-26.2245
-28.1553
-30.3011
-32.6832
-35.301
-38.1168
-41.3245
-45.301
-8.27807
-8.67218
-9.06519
-9.48786
-9.93797
-10.4141
-10.9184
-11.4536
-12.0224
-12.6278
-13.2733
-13.9629
-14.7013
-15.4941
-16.3476
-17.2695
-18.2687
-19.3559
-20.5434
-21.8459
-23.2802
-24.8651
-26.6216
-28.5713
-30.7362
-33.1371
-35.7725
-38.6036
-41.823
-45.8069
-8.45535
-8.85442
-9.25164
-9.67965
-10.1356
-10.6177
-11.1284
-11.6702
-12.2461
-12.859
-13.5126
-14.2108
-14.9584
-15.761
-16.6251
-17.5584
-18.5699
-19.6702
-20.872
-22.1897
-23.6402
-25.2424
-27.017
-28.9855
-31.1694
-33.5889
-36.2416
-39.0877
-42.3186
-46.3097
-8.63202
-9.03592
-9.43728
-9.87064
-10.3323
-10.8205
-11.3374
-11.8859
-12.4689
-13.0893
-13.7508
-14.4575
-15.2143
-16.0267
-16.9014
-17.846
-18.8697
-19.9831
-21.199
-22.5319
-23.9985
-25.6179
-27.4105
-29.3976
-31.6003
-34.0382
-36.708
-39.5688
-42.8109
-46.809
-8.80817
-9.2167
-9.62213
-10.0608
-10.5283
-11.0224
-11.5455
-12.1006
-12.6905
-13.3183
-13.9878
-14.703
-15.4688
-16.291
-17.1761
-18.132
-19.1678
-20.2943
-21.5243
-22.8722
-24.3549
-25.9913
-27.8018
-29.8073
-32.0287
-34.4847
-37.1712
-40.0464
-43.2995
-47.3044
-8.9839
-9.39685
-9.80623
-10.2502
-10.7233
-11.2232
-11.7525
-12.3141
-12.9109
-13.5461
-14.2234
-14.947
-15.7218
-16.5537
-17.4492
-18.4162
-19.4641
-20.6036
-21.8475
-23.2104
-24.7091
-26.3624
-28.1906
-30.2144
-32.4541
-34.9279
-37.631
-40.5202
-43.7839
-47.7955
-9.15938
-9.57648
-9.98963
-10.4387
-10.9174
-11.4231
-11.9584
-12.5263
-13.1299
-13.7723
-14.4574
-15.1893
-15.973
-16.8144
-17.7203
-18.6984
-19.7583
-20.9107
-22.1684
-23.5461
-25.0607
-26.7308
-28.5765
-30.6183
-32.8762
-35.3676