/*--------------------------------*- C++ -*----------------------------------*\
| =========                 |                                                 |
| \\      /  F ield         | OpenFOAM: The Open Source CFD Toolbox           |
|  \\    /   O peration     | Version:  v1912                                 |
|   \\  /    A nd           | Website:  www.openfoam.com                      |
|    \\/     M anipulation  |                                                 |
\*---------------------------------------------------------------------------*/
FoamFile
{
    version     2.0;
    format      ascii;
    class       volScalarField;
    location    "5.5";
    object      p;
}
// * * * * * * * * * * * * * * * * * * * * * * * * * * * * * * * * * * * * * //

dimensions      [0 2 -2 0 0 0 0];


internalField   nonuniform List<scalar> 
19200
(
-134.086
-116.737
-107.701
-97.9587
-89.4139
-81.6879
-74.6747
-68.3134
-62.5405
-57.2984
-52.5362
-48.2079
-44.2717
-40.6898
-37.4282
-34.456
-31.7456
-29.2721
-27.0129
-24.9479
-23.0589
-21.3297
-19.7454
-18.2931
-16.9607
-15.7379
-14.6151
-13.5832
-12.6339
-11.7679
-134.285
-116.978
-107.945
-98.1863
-89.6343
-81.8989
-74.8745
-68.5027
-62.7203
-57.4697
-52.6999
-48.3647
-44.4224
-40.8351
-37.5685
-34.5919
-31.8775
-29.4002
-27.1376
-25.0695
-23.1776
-21.4456
-19.8588
-18.404
-17.0694
-15.8443
-14.7193
-13.6852
-12.7333
-11.8666
-134.503
-117.215
-108.181
-98.4146
-89.8521
-82.1072
-75.0724
-68.6905
-62.8988
-57.6399
-52.8626
-48.5208
-44.5725
-40.9798
-37.7085
-34.7275
-32.0091
-29.5282
-27.2623
-25.1911
-23.2963
-21.5617
-19.9724
-18.5152
-17.1781
-15.9508
-14.8237
-13.7872
-12.8328
-11.9653
-134.736
-117.454
-108.415
-98.6428
-90.0685
-82.3134
-75.2685
-68.8766
-63.0759
-57.8088
-53.0242
-48.6759
-44.7218
-41.1239
-37.8479
-34.8627
-32.1404
-29.656
-27.3868
-25.3125
-23.415
-21.6777
-20.0858
-18.6262
-17.2869
-16.0574
-14.9281
-13.8893
-12.9322
-12.064
-134.977
-117.694
-108.648
-98.8702
-90.2838
-82.5182
-75.463
-69.0614
-63.2517
-57.9766
-53.1848
-48.8301
-44.8704
-41.2674
-37.9868
-34.9975
-32.2714
-29.7835
-27.511
-25.4338
-23.5335
-21.7936
-20.1993
-18.7373
-17.3957
-16.164
-15.0325
-13.9913
-13.0316
-12.1626
-135.223
-117.936
-108.882
-99.0967
-90.4983
-82.7216
-75.656
-69.2447
-63.4262
-58.1432
-53.3444
-48.9835
-45.0181
-41.4102
-38.1251
-35.1317
-32.4019
-29.9106
-27.635
-25.5549
-23.6518
-21.9093
-20.3126
-18.8483
-17.5045
-16.2705
-15.1369
-14.0933
-13.131
-12.2613
-135.471
-118.179
-109.115
-99.3224
-90.7117
-82.9238
-75.8477
-69.4267
-63.5994
-58.3086
-53.5029
-49.1358
-45.165
-41.5522
-38.2627
-35.2653
-32.5319
-30.0373
-27.7587
-25.6757
-23.7699
-22.025
-20.4259
-18.9593
-17.6133
-16.3771
-15.2413
-14.1954
-13.2304
-12.36
-135.72
-118.422
-109.349
-99.547
-90.9239
-83.1247
-76.038
-69.6072
-63.7712
-58.4726
-53.6601
-49.287
-45.3109
-41.6934
-38.3996
-35.3983
-32.6614
-30.1635
-27.8819
-25.7961
-23.8878
-22.1404
-20.539
-19.0702
-17.722
-16.4837
-15.3458
-14.2975
-13.3298
-12.4588
-135.97
-118.666
-109.582
-99.7705
-91.1349
-83.3242
-76.2267
-69.7862
-63.9416
-58.6354
-53.8161
-49.4371
-45.4558
-41.8336
-38.5356
-35.5306
-32.7902
-30.2892
-28.0047
-25.9162
-24.0054
-22.2557
-20.652
-19.1811
-17.8307
-16.5904
-15.4503
-14.3997
-13.4294
-12.5577
-136.22
-118.909
-109.814
-99.9927
-91.3445
-83.5221
-76.4139
-69.9636
-64.1104
-58.7966
-53.9707
-49.5859
-45.5995
-41.9727
-38.6707
-35.662
-32.9183
-30.4143
-28.127
-26.0359
-24.1227
-22.3707
-20.7649
-19.2919
-17.9395
-16.6971
-15.5551
-14.5021
-13.5292
-12.6568
-136.468
-119.151
-110.046
-100.213
-91.5525
-83.7183
-76.5992
-70.1393
-64.2775
-58.9562
-54.1238
-49.7333
-45.7418
-42.1107
-38.8047
-35.7925
-33.0456
-30.5386
-28.2486
-26.1551
-24.2396
-22.4854
-20.8776
-19.4026
-18.0483
-16.8041
-15.66
-14.6049
-13.6294
-12.7563
-136.716
-119.392
-110.276
-100.432
-91.7587
-83.9126
-76.7827
-70.3131
-64.4428
-59.1141
-54.2753
-49.8792
-45.8828
-42.2473
-38.9375
-35.9219
-33.1719
-30.6621
-28.3696
-26.2737
-24.356
-22.5998
-20.9901
-19.5133
-18.1572
-16.9112
-15.7654
-14.7081
-13.7302
-12.8565
-136.962
-119.631
-110.504
-100.649
-91.9628
-84.1049
-76.9641
-70.4849
-64.6061
-59.2701
-54.4249
-50.0233
-46.0221
-42.3825
-39.069
-36.05
-33.2971
-30.7846
-28.4897
-26.3916
-24.4718
-22.7138
-21.1023
-19.6238
-18.2661
-17.0185
-15.8711
-14.812
-13.8318
-12.9578
-137.207
-119.869
-110.731
-100.864
-92.1649
-84.2949
-77.1433
-70.6544
-64.7672
-59.4239
-54.5725
-50.1655
-46.1597
-42.5159
-39.1989
-36.1768
-33.421
-30.906
-28.6087
-26.5086
-24.587
-22.8272
-21.2141
-19.7341
-18.3751
-17.1261
-15.9772
-14.9165
-13.9342
-13.0602
-137.45
-120.104
-110.955
-101.077
-92.3645
-84.4825
-77.32
-70.8215
-64.9259
-59.5755
-54.7179
-50.3056
-46.2952
-42.6475
-39.327
-36.3018
-33.5434
-31.026
-28.7266
-26.6245
-24.7011
-22.9398
-21.3253
-19.8441
-18.4838
-17.2336
-16.0836
-15.0214
-14.0373
-13.1634
-137.691
-120.338
-111.178
-101.287
-92.5615
-84.6675
-77.4941
-70.9859
-65.0821
-59.7245
-54.8609
-50.4434
-46.4285
-42.7769
-39.4531
-36.425
-33.664
-31.1443
-28.8429
-26.7391
-24.8142
-23.0515
-21.4358
-19.9535
-18.5922
-17.3411
-16.1901
-15.1266
-14.141
-13.2672
-137.929
-120.569
-111.398
-101.494
-92.7558
-84.8497
-77.6653
-71.1476
-65.2355
-59.8709
-55.0012
-50.5786
-46.5593
-42.904
-39.5769
-36.5459
-33.7825
-31.2607
-28.9574
-26.852
-24.9258
-23.1619
-21.5452
-20.0621
-18.7
-17.4482
-16.2965
-15.2321
-14.245
-13.3715
-138.166
-120.798
-111.615
-101.699
-92.9472
-85.0288
-77.8335
-71.3061
-65.3858
-60.0142
-55.1386
-50.7109
-46.6874
-43.0283
-39.698
-36.6644
-33.8986
-31.3748
-29.0699
-26.963
-25.0355
-23.2707
-21.6533
-20.1695
-18.807
-17.5548
-16.4027
-15.3376
-14.3494
-13.4763
-138.401
-121.025
-111.83
-101.901
-93.1355
-85.2048
-77.9984
-71.4615
-65.5329
-60.1543
-55.2728
-50.8401
-46.8123
-43.1497
-39.8163
-36.78
-34.012
-31.4863
-29.1797
-27.0716
-25.1431
-23.3775
-21.7595
-20.2754
-18.9126
-17.6604
-16.5082
-15.4429
-14.454
-13.5816
-138.634
-121.25
-112.043
-102.099
-93.3206
-85.3774
-78.1599
-71.6133
-65.6765
-60.291
-55.4036
-50.9659
-46.9339
-43.2677
-39.9313
-36.8924
-34.1222
-31.5946
-29.2866
-27.1773
-25.2479
-23.4817
-21.8633
-20.3791
-19.0165
-17.7645
-16.6127
-15.5476
-14.5583
-13.687
-138.865
-121.472
-112.252
-102.295
-93.5022
-85.5464
-78.3177
-71.7614
-65.8164
-60.4239
-55.5306
-51.088
-47.0518
-43.382
-40.0426
-37.0011
-34.2287
-31.6994
-29.3899
-27.2795
-25.3493
-23.5826
-21.9642
-20.4801
-19.1179
-17.8666
-16.7156
-15.6512
-14.6621
-13.7922
-139.095
-121.692
-112.459
-102.488
-93.6802
-85.7117
-78.4716
-71.9056
-65.9523
-60.5529
-55.6537
-51.2062
-47.1658
-43.4924
-40.1499
-37.1058
-34.3312
-31.8001
-29.4892
-27.3776
-25.4467
-23.6797
-22.0612
-20.5776
-19.2161
-17.9658
-16.8161
-15.753
-14.7647
-13.8965
-139.326
-121.911
-112.664
-102.677
-93.8545
-85.8729
-78.6215
-72.0456
-66.0841
-60.6776
-55.7726
-51.3201
-47.2754
-43.5984
-40.2528
-37.2061
-34.4292
-31.8961
-29.5837
-27.471
-25.5393
-23.7719
-22.1536
-20.6704
-19.3099
-18.0611
-16.9132
-15.8521
-14.8653
-13.9995
-139.557
-122.127
-112.865
-102.863
-94.0248
-86.03
-78.767
-72.1813
-66.2115
-60.798
-55.8871
-51.4296
-47.3806
-43.6999
-40.351
-37.3015
-34.5222
-31.987
-29.6729
-27.5588
-25.6262
-23.8583
-22.24
-20.7574
-19.398
-18.1509
-17.0054
-15.9469
-14.9626
-14.0999
-139.789
-122.341
-113.064
-103.045
-94.191
-86.1827
-78.9081
-72.3125
-66.3343
-60.9139
-55.9971
-51.5345
-47.4812
-43.7967
-40.4444
-37.3919
-34.6099
-32.0724
-29.7562
-27.6404
-25.7066
-23.9379
-22.3192
-20.8369
-19.4786
-18.2332
-17.0903
-16.0351
-15.054
-14.1954
-140.023
-122.553
-113.26
-103.224
-94.3524
-86.3304
-79.0443
-72.4388
-66.4524
-61.0251
-56.1024
-51.6348
-47.5771
-43.8886
-40.5328
-37.477
-34.692
-32.1518
-29.8331
-27.7153
-25.7796
-24.0096
-22.3901
-20.9077
-19.5499
-18.306
-17.1656
-16.114
-15.137
-14.2826
-140.268
-122.764
-113.453
-103.399
-94.5084
-86.4722
-79.1746
-72.5596
-66.5651
-61.131
-56.2027
-51.7301
-47.6679
-43.9754
-40.6159
-37.5567
-34.7684
-32.2251
-29.9034
-27.7828
-25.8446
-24.0724
-22.4513
-20.9679
-19.6102
-18.3675
-17.2298
-16.1829
-15.2116
-14.3618
-140.545
-122.978
-113.639
-103.57
-94.6586
-86.607
-79.2983
-72.6741
-66.6719
-61.2315
-56.2977
-51.8203
-47.7538
-44.0573
-40.6939
-37.631
-34.8391
-32.2921
-29.9669
-27.8426
-25.9009
-24.1253
-22.5011
-21.0151
-19.6558
-18.4133
-17.2784
-16.2374
-15.2742
-14.4353
-140.861
-123.19
-113.811
-103.734
-94.804
-86.7363
-79.4164
-72.7837
-66.7743
-61.3276
-56.3884
-51.9063
-47.8354
-44.1348
-40.7676
-37.7007
-34.9048
-32.3538
-30.0242
-27.8954
-25.9489
-24.168
-22.5381
-21.0462
-19.6811
-18.4334
-17.2948
-16.2521
-15.2935
-14.4773
-141.126
-123.38
-113.974
-103.886
-94.946
-86.864
-79.5332
-72.8921
-66.8755
-61.4226
-56.4779
-51.9908
-47.9154
-44.2105
-40.839
-37.7679
-34.9677
-32.4121
-30.0778
-27.9437
-25.9911
-24.2034
-22.5654
-21.0637
-19.6865
-18.4236
-17.264
-16.1944
-15.2175
-14.4081
-143.382
-143.363
-143.306
-143.265
-143.237
-143.208
-143.175
-143.136
-143.091
-143.041
-142.984
-142.922
-142.853
-142.778
-142.697
-142.611
-142.519
-142.422
-142.321
-142.214
-142.104
-141.991
-141.875
-141.757
-141.638
-141.52
-141.408
-141.305
-141.224
-141.173
-125.521
-125.549
-125.557
-125.556
-125.55
-125.537
-125.517
-125.489
-125.454
-125.413
-125.364
-125.31
-125.249
-125.181
-125.108
-125.029
-124.945
-124.855
-124.76
-124.662
-124.558
-124.452
-124.342
-124.23
-124.116
-124.001
-123.886
-123.77
-123.654
-123.527
-115.916
-115.956
-115.986
-116
-116.004
-115.999
-115.987
-115.968
-115.941
-115.908
-115.868
-115.821
-115.768
-115.709
-115.645
-115.574
-115.498
-115.417
-115.332
-115.241
-115.147
-115.049
-114.948
-114.844
-114.737
-114.628
-114.517
-114.401
-114.278
-114.138
-105.551
-105.597
-105.628
-105.65
-105.664
-105.67
-105.669
-105.66
-105.643
-105.619
-105.589
-105.552
-105.508
-105.459
-105.403
-105.342
-105.275
-105.203
-105.126
-105.045
-104.959
-104.868
-104.774
-104.676
-104.575
-104.469
-104.359
-104.246
-104.129
-104.009
-96.4329
-96.4779
-96.5158
-96.5454
-96.5661
-96.578
-96.5819
-96.5782
-96.5672
-96.5493
-96.5246
-96.4935
-96.4563
-96.413
-96.3641
-96.3097
-96.2501
-96.1856
-96.1163
-96.0426
-95.9645
-95.8824
-95.7964
-95.7065
-95.6129
-95.5154
-95.414
-95.3084
-95.1977
-95.0794
-88.1902
-88.2392
-88.2819
-88.3156
-88.3398
-88.3553
-88.3629
-88.3631
-88.3563
-88.3427
-88.3227
-88.2963
-88.2641
-88.2261
-88.1826
-88.1338
-88.0801
-88.0216
-87.9585
-87.8911
-87.8196
-87.744
-87.6646
-87.5814
-87.4943
-87.4033
-87.308
-87.208
-87.1021
-86.9887
-80.7453
-80.7936
-80.836
-80.8699
-80.8949
-80.9117
-80.921
-80.9232
-80.9187
-80.9076
-80.8903
-80.8669
-80.8379
-80.8033
-80.7635
-80.7187
-80.6691
-80.6149
-80.5564
-80.4938
-80.4272
-80.3568
-80.2827
-80.2048
-80.1232
-80.0377
-79.9479
-79.8536
-79.7538
-79.648
-74.027
-74.0728
-74.1132
-74.146
-74.1705
-74.1871
-74.1967
-74.1994
-74.1957
-74.1857
-74.1696
-74.1478
-74.1205
-74.088
-74.0504
-74.0081
-73.9612
-73.91
-73.8547
-73.7955
-73.7326
-73.6661
-73.5961
-73.5226
-73.4455
-73.3648
-73.2801
-73.1912
-73.0976
-72.9988
-67.9602
-68.0035
-68.0415
-68.0723
-68.0954
-68.111
-68.1198
-68.1221
-68.1182
-68.1082
-68.0924
-68.0711
-68.0445
-68.013
-67.9766
-67.9357
-67.8905
-67.8412
-67.7881
-67.7313
-67.671
-67.6074
-67.5406
-67.4705
-67.3972
-67.3206
-67.2404
-67.1564
-67.0681
-66.9753
-62.4766
-62.5175
-62.5528
-62.5812
-62.6022
-62.6162
-62.6236
-62.6248
-62.62
-62.6094
-62.5932
-62.5717
-62.5452
-62.5138
-62.4779
-62.4377
-62.3934
-62.3452
-62.2935
-62.2383
-62.1799
-62.1185
-62.0541
-61.9868
-61.9165
-61.8434
-61.767
-61.6874
-61.6039
-61.5164
-57.5151
-57.553
-57.5857
-57.6115
-57.6301
-57.6421
-57.6478
-57.6475
-57.6414
-57.6298
-57.6128
-57.5906
-57.5637
-57.532
-57.4961
-57.456
-57.412
-57.3644
-57.3134
-57.2593
-57.2022
-57.1424
-57.0798
-57.0148
-56.9472
-56.877
-56.804
-56.7282
-56.6489
-56.5662
-53.0202
-53.055
-53.0849
-53.1079
-53.1242
-53.134
-53.1379
-53.1359
-53.1284
-53.1154
-53.0973
-53.0743
-53.0466
-53.0144
-52.9781
-52.9377
-52.8937
-52.8463
-52.7957
-52.7422
-52.686
-52.6274
-52.5663
-52.5031
-52.4377
-52.3701
-52.3002
-52.2278
-52.1525
-52.0742
-48.9422
-48.9742
-49.0012
-49.0216
-49.0354
-49.0431
-49.0451
-49.0414
-49.0323
-49.018
-48.9987
-48.9747
-48.946
-48.9131
-48.8762
-48.8354
-48.7912
-48.7437
-48.6932
-48.64
-48.5844
-48.5266
-48.4668
-48.4051
-48.3416
-48.2764
-48.2092
-48.1401
-48.0685
-47.9942
-45.237
-45.2665
-45.2908
-45.3088
-45.3203
-45.326
-45.3261
-45.3208
-45.3102
-45.2945
-45.2739
-45.2488
-45.2192
-45.1854
-45.1478
-45.1065
-45.0618
-45.014
-44.9635
-44.9105
-44.8552
-44.798
-44.7392
-44.6788
-44.617
-44.5539
-44.4894
-44.4233
-44.3553
-44.2849
-41.8683
-41.8936
-41.9153
-41.931
-41.9405
-41.9442
-41.9426
-41.9356
-41.9236
-41.9066
-41.8848
-41.8585
-41.828
-41.7933
-41.7549
-41.713
-41.6678
-41.6197
-41.5689
-41.5159
-41.4608
-41.4041
-41.346
-41.2867
-41.2265
-41.1654
-41.1033
-41.0403
-40.9756
-40.9091
-38.7981
-38.8211
-38.8407
-38.8544
-38.8619
-38.8639
-38.8606
-38.8521
-38.8387
-38.8204
-38.7975
-38.7701
-38.7386
-38.7031
-38.6639
-38.6213
-38.5755
-38.527
-38.4759
-38.4227
-38.3677
-38.3113
-38.2537
-38.1954
-38.1366
-38.0773
-38.0177
-37.9575
-37.8963
-37.8337
-35.9985
-36.0194
-36.037
-36.0487
-36.0545
-36.0549
-36.0501
-36.0402
-36.0255
-36.006
-35.982
-35.9537
-35.9212
-35.8849
-35.8449
-35.8016
-35.7552
-35.7061
-35.6546
-35.6012
-35.5461
-35.4898
-35.4327
-35.3752
-35.3175
-35.26
-35.2027
-35.1455
-35.0878
-35.0291
-33.4434
-33.4634
-33.4777
-33.4874
-33.4917
-33.4906
-33.4844
-33.4733
-33.4574
-33.4368
-33.4118
-33.3825
-33.3492
-33.312
-33.2713
-33.2273
-33.1803
-33.1306
-33.0787
-33.0248
-32.9695
-32.9132
-32.8563
-32.7994
-32.7428
-32.6869
-32.6318
-32.5775
-32.5234
-32.469
-31.1082
-31.1261
-31.139
-31.1472
-31.15
-31.1476
-31.1401
-31.1278
-31.1108
-31.0892
-31.0632
-31.0331
-30.9989
-30.961
-30.9195
-30.8748
-30.8271
-30.7769
-30.7244
-30.6701
-30.6144
-30.5579
-30.5011
-30.4446
-30.3888
-30.3344
-30.2814
-30.23
-30.1797
-30.1296
-28.9723
-28.9887
-29.0002
-29.0069
-29.0084
-29.0047
-28.9961
-28.9827
-28.9647
-28.9422
-28.9154
-28.8844
-28.8494
-28.8108
-28.7686
-28.7232
-28.6749
-28.624
-28.5709
-28.516
-28.4598
-28.403
-28.346
-28.2896
-28.2345
-28.1812
-28.1303
-28.0818
-28.0353
-27.9901
-27.0174
-27.0324
-27.0426
-27.0479
-27.0481
-27.0433
-27.0336
-27.0193
-27.0004
-26.977
-26.9494
-26.9177
-26.882
-26.8427
-26.7998
-26.7537
-26.7047
-26.6532
-26.5994
-26.5438
-26.487
-26.4296
-26.3723
-26.3158
-26.2609
-26.2086
-26.1594
-26.1138
-26.0715
-26.0315
-25.2266
-25.2403
-25.2493
-25.2534
-25.2525
-25.2467
-25.2361
-25.2209
-25.2012
-25.177
-25.1487
-25.1163
-25.08
-25.0399
-24.9964
-24.9497
-24.9
-24.8477
-24.7932
-24.7369
-24.6793
-24.6212
-24.5631
-24.5062
-24.4512
-24.3994
-24.3517
-24.3089
-24.2709
-24.2367
-23.5852
-23.5977
-23.6056
-23.6086
-23.6067
-23.5999
-23.5885
-23.5725
-23.552
-23.5272
-23.4982
-23.4652
-23.4282
-23.3876
-23.3435
-23.2961
-23.2457
-23.1927
-23.1374
-23.0802
-23.0217
-22.9626
-22.9036
-22.8457
-22.7902
-22.7385
-22.6919
-22.6515
-22.6181
-22.5904
-22.0797
-22.0911
-22.098
-22.1
-22.0972
-22.0896
-22.0774
-22.0607
-22.0396
-22.0141
-21.9845
-21.9509
-21.9134
-21.8722
-21.8274
-21.7794
-21.7284
-21.6746
-21.6185
-21.5603
-21.5008
-21.4404
-21.3801
-21.321
-21.2644
-21.212
-21.1658
-21.1275
-21.0989
-21.0783
-20.6981
-20.7085
-20.7145
-20.7156
-20.712
-20.7036
-20.6908
-20.6734
-20.6516
-20.6256
-20.5954
-20.5613
-20.5232
-20.4815
-20.4362
-20.3876
-20.3359
-20.2814
-20.2243
-20.1651
-20.1043
-20.0426
-19.9807
-19.9198
-19.8615
-19.8076
-19.761
-19.724
-19.7001
-19.6878
-19.4296
-19.4391
-19.4442
-19.4445
-19.4401
-19.4311
-19.4175
-19.3995
-19.3772
-19.3506
-19.3199
-19.2852
-19.2467
-19.2044
-19.1585
-19.1093
-19.0569
-19.0016
-18.9436
-18.8833
-18.8212
-18.7577
-18.6939
-18.6307
-18.5699
-18.5136
-18.4652
-18.4283
-18.4089
-18.4058
-18.2644
-18.273
-18.2773
-18.2768
-18.2717
-18.2619
-18.2477
-18.2291
-18.2061
-18.179
-18.1477
-18.1125
-18.0733
-18.0305
-17.984
-17.9341
-17.8809
-17.8247
-17.7656
-17.704
-17.6403
-17.575
-17.5087
-17.4427
-17.3783
-17.3183
-17.2663
-17.2273
-17.2105
-17.2167
-17.1936
-17.2014
-17.2049
-17.2039
-17.1983
-17.1881
-17.1733
-17.1542
-17.1308
-17.1032
-17.0715
-17.0358
-16.9962
-16.9528
-16.9058
-16.8552
-16.8013
-16.7442
-16.684
-16.6211
-16.5558
-16.4883
-16.4194
-16.3499
-16.2812
-16.2158
-16.1579
-16.114
-16.0963
-16.1075
-16.2082
-16.216
-16.2193
-16.2186
-16.2131
-16.203
-16.1885
-16.1695
-16.1464
-16.119
-16.0876
-16.0522
-16.0128
-15.9697
-15.9229
-15.8725
-15.8187
-15.7616
-15.7014
-15.6381
-15.5721
-15.5035
-15.4329
-15.3608
-15.2882
-15.2174
-15.1524
-15.1016
-15.081
-15.0984
-15.3022
-15.3084
-15.3135
-15.3095
-15.3024
-15.2912
-15.2756
-15.2559
-15.2321
-15.2042
-15.1724
-15.1368
-15.0973
-15.0542
-15.0076
-14.9574
-14.9039
-14.8472
-14.7873
-14.7244
-14.6586
-14.5902
-14.5192
-14.4461
-14.3713
-14.2965
-14.2241
-14.1648
-14.1385
-14.2014
-137.522
-137.781
-137.984
-138.221
-138.489
-138.764
-139.038
-139.308
-139.573
-139.834
-140.088
-140.334
-140.572
-140.801
-141.021
-141.231
-141.432
-141.623
-141.804
-141.976
-142.137
-142.289
-142.431
-142.563
-142.687
-142.803
-142.914
-143.024
-143.138
-143.263
-119.546
-119.857
-120.143
-120.431
-120.721
-121.009
-121.291
-121.565
-121.834
-122.095
-122.348
-122.594
-122.832
-123.06
-123.28
-123.49
-123.691
-123.883
-124.065
-124.238
-124.4
-124.554
-124.697
-124.832
-124.957
-125.075
-125.184
-125.286
-125.38
-125.46
-109.966
-110.298
-110.605
-110.9
-111.19
-111.476
-111.755
-112.027
-112.293
-112.552
-112.803
-113.046
-113.282
-113.508
-113.727
-113.936
-114.137
-114.329
-114.512
-114.685
-114.848
-115.002
-115.146
-115.279
-115.404
-115.52
-115.627
-115.723
-115.808
-115.874
-99.6297
-99.9455
-100.26
-100.561
-100.851
-101.133
-101.408
-101.675
-101.936
-102.188
-102.433
-102.67
-102.898
-103.117
-103.327
-103.529
-103.722
-103.907
-104.086
-104.257
-104.418
-104.572
-104.718
-104.854
-104.98
-105.095
-105.202
-105.3
-105.39
-105.474
-90.6989
-91.0102
-91.3169
-91.6123
-91.8966
-92.1725
-92.4412
-92.7028
-92.9572
-93.2043
-93.4439
-93.676
-93.9005
-94.1171
-94.3259
-94.5267
-94.719
-94.902
-95.0743
-95.2377
-95.3921
-95.5366
-95.6704
-95.7978
-95.9181
-96.0294
-96.1313
-96.2241
-96.3073
-96.3787
-82.6848
-82.9796
-83.2712
-83.555
-83.8293
-84.0955
-84.3545
-84.6065
-84.8513
-85.0888
-85.3189
-85.5415
-85.7565
-85.9637
-86.1629
-86.354
-86.5364
-86.7098
-86.8742
-87.0302
-87.1777
-87.3165
-87.4479
-87.5713
-87.6891
-87.798
-87.8976
-87.9871
-88.0662
-88.1345
-75.4751
-75.7558
-76.0345
-76.3067
-76.5706
-76.8266
-77.0755
-77.3175
-77.5525
-77.7802
-78.0007
-78.2137
-78.4193
-78.6173
-78.8076
-78.9898
-79.164
-79.3301
-79.4881
-79.6382
-79.7805
-79.9151
-80.0418
-80.1598
-80.2667
-80.3667
-80.4623
-80.5484
-80.6243
-80.6904
-68.9969
-69.2654
-69.5322
-69.7931
-70.0462
-70.2919
-70.5307
-70.7627
-70.9878
-71.2058
-71.4168
-71.6205
-71.817
-72.006
-72.1876
-72.3615
-72.5278
-72.6864
-72.8372
-72.9803
-73.1157
-73.2433
-73.363
-73.4746
-73.5782
-73.6737
-73.7587
-73.8386
-73.9112
-73.9746
-63.1667
-63.424
-63.6794
-63.9291
-64.1717
-64.4073
-64.6362
-64.8585
-65.0741
-65.2828
-65.4845
-65.6792
-65.8667
-66.0471
-66.2201
-66.3859
-66.5441
-66.695
-66.8383
-66.9741
-67.1024
-67.2231
-67.3362
-67.4417
-67.5394
-67.6293
-67.711
-67.7841
-67.8501
-67.9102
-57.9084
-58.1553
-58.4
-58.6395
-58.8722
-59.0982
-59.3179
-59.5311
-59.7377
-59.9375
-60.1305
-60.3166
-60.4957
-60.6678
-60.8328
-60.9907
-61.1413
-61.2847
-61.4208
-61.5497
-61.6712
-61.7855
-61.8924
-61.9919
-62.0839
-62.1684
-62.2454
-62.3147
-62.3759
-62.4297
-53.1564
-53.3939
-53.629
-53.859
-54.0827
-54.3
-54.511
-54.7158
-54.914
-55.1056
-55.2905
-55.4686
-55.64
-55.8044
-55.9619
-56.1124
-56.2559
-56.3923
-56.5217
-56.644
-56.7593
-56.8674
-56.9684
-57.0623
-57.1489
-57.2284
-57.3006
-57.3655
-57.423
-57.4729
-48.8541
-49.083
-49.3096
-49.5311
-49.7464
-49.9557
-50.1589
-50.3558
-50.5464
-50.7305
-50.9079
-51.0787
-51.2428
-51.4001
-51.5506
-51.6944
-51.8313
-51.9613
-52.0844
-52.2007
-52.3101
-52.4126
-52.5082
-52.5968
-52.6785
-52.7532
-52.8209
-52.8816
-52.9352
-52.9819
-44.952
-45.1734
-45.3922
-45.606
-45.8139
-46.0159
-46.2119
-46.4017
-46.5853
-46.7624
-46.933
-47.097
-47.2545
-47.4053
-47.5494
-47.687
-47.8178
-47.9419
-48.0593
-48.1701
-48.2741
-48.3714
-48.462
-48.5458
-48.6229
-48.6932
-48.7568
-48.8136
-48.8636
-48.9067
-41.4074
-41.622
-41.8338
-42.0407
-42.242
-42.4373
-42.6268
-42.8102
-42.9873
-43.1581
-43.3224
-43.4802
-43.6316
-43.7764
-43.9148
-44.0466
-44.1718
-44.2906
-44.4028
-44.5084
-44.6075
-44.7001
-44.7861
-44.8656
-44.9385
-45.0049
-45.0647
-45.118
-45.1646
-45.2046
-38.183
-38.3914
-38.597
-38.7978
-38.993
-39.1824
-39.3659
-39.5434
-39.7147
-39.8796
-40.0382
-40.1903
-40.3361
-40.4754
-40.6084
-40.735
-40.8552
-40.969
-41.0764
-41.1774
-41.272
-41.3603
-41.4422
-41.5176
-41.5868
-41.6495
-41.7059
-41.756
-41.7997
-41.8373
-35.2459
-35.4489
-35.6489
-35.8442
-36.034
-36.2181
-36.3963
-36.5683
-36.7342
-36.8938
-37.047
-37.194
-37.3346
-37.4689
-37.5969
-37.7187
-37.8342
-37.9435
-38.0465
-38.1433
-38.2338
-38.3182
-38.3963
-38.4682
-38.5338
-38.5933
-38.6466
-38.6938
-38.7348
-38.7698
-32.5676
-32.7657
-32.9609
-33.1513
-33.3363
-33.5155
-33.6887
-33.8559
-34.0168
-34.1714
-34.3198
-34.4618
-34.5977
-34.7273
-34.8508
-34.9682
-35.0794
-35.1845
-35.2835
-35.3764
-35.4632
-35.544
-35.6187
-35.6873
-35.7498
-35.8063
-35.8568
-35.9014
-35.9399
-35.9725
-30.1228
-30.3166
-30.5074
-30.6936
-30.8742
-31.049
-31.2178
-31.3804
-31.5367
-31.6867
-31.8305
-31.9681
-32.0995
-32.2248
-32.3441
-32.4573
-32.5646
-32.6658
-32.7611
-32.8505
-32.9339
-33.0114
-33.0829
-33.1486
-33.2083
-33.2621
-33.31
-33.3522
-33.3884
-33.419
-27.8891
-28.079
-28.266
-28.4485
-28.6254
-28.7962
-28.9608
-29.1192
-29.2712
-29.4169
-29.5564
-29.6897
-29.817
-29.9383
-30.0536
-30.163
-30.2666
-30.3644
-30.4563
-30.5424
-30.6226
-30.6971
-30.7658
-30.8287
-30.8858
-30.9372
-30.9828
-31.0227
-31.0569
-31.0856
-25.8465
-26.0329
-26.2169
-26.3962
-26.5697
-26.7369
-26.8977
-27.052
-27.2
-27.3416
-27.477
-27.6064
-27.7298
-27.8472
-27.9589
-28.0648
-28.165
-28.2594
-28.3482
-28.4313
-28.5087
-28.5804
-28.6465
-28.7069
-28.7617
-28.8108
-28.8543
-28.8922
-28.9245
-28.9514
-23.977
-24.1606
-24.3421
-24.519
-24.6894
-24.8532
-25.0104
-25.1609
-25.305
-25.4427
-25.5743
-25.6999
-25.8195
-25.9335
-26.0417
-26.1443
-26.2413
-26.3327
-26.4186
-26.4989
-26.5737
-26.6429
-26.7066
-26.7647
-26.8173
-26.8644
-26.9059
-26.942
-26.9726
-26.9979
-22.2647
-22.4459
-22.6259
-22.8008
-22.9686
-23.1292
-23.2828
-23.4297
-23.57
-23.704
-23.8319
-23.9538
-24.07
-24.1806
-24.2856
-24.3851
-24.4791
-24.5678
-24.6509
-24.7287
-24.801
-24.868
-24.9295
-24.9855
-25.0362
-25.0814
-25.1212
-25.1556
-25.1847
-25.2085
-20.6947
-20.8743
-21.0539
-21.2275
-21.3928
-21.5503
-21.7006
-21.8439
-21.9805
-22.1108
-22.2351
-22.3536
-22.4665
-22.5739
-22.6759
-22.7726
-22.8639
-22.9499
-23.0306
-23.106
-23.1762
-23.241
-23.3005
-23.3546
-23.4035
-23.447
-23.4852
-23.5181
-23.5458
-23.5682
-19.2533
-19.4325
-19.6133
-19.7862
-19.9491
-20.1036
-20.2505
-20.3902
-20.5232
-20.65
-20.7709
-20.8861
-20.9959
-21.1004
-21.1996
-21.2935
-21.3823
-21.466
-21.5444
-21.6177
-21.6858
-21.7487
-21.8063
-21.8588
-21.906
-21.948
-21.9847
-22.0163
-22.0426
-22.0638
-17.9283
-18.1088
-18.2928
-18.4655
-18.6259
-18.7773
-18.9208
-19.0569
-19.1864
-19.3097
-19.4274
-19.5396
-19.6465
-19.7482
-19.8448
-19.9363
-20.0228
-20.1042
-20.1805
-20.2518
-20.318
-20.3792
-20.4352
-20.486
-20.5317
-20.5723
-20.6077
-20.638
-20.6631
-20.6833
-16.7079
-16.8938
-17.0835
-17.2559
-17.4134
-17.5616
-17.7016
-17.8341
-17.9601
-18.0801
-18.1947
-18.304
-18.4081
-18.5073
-18.6014
-18.6906
-18.7749
-18.8543
-18.9287
-18.9981
-19.0626
-19.122
-19.1765
-19.2259
-19.2702
-19.3094
-19.3436
-19.3727
-19.3967
-19.4157
-15.5769
-15.7783
-15.9779
-16.1489
-16.3028
-16.4474
-16.5839
-16.7127
-16.8352
-16.9521
-17.0636
-17.1701
-17.2717
-17.3684
-17.4602
-17.5472
-17.6294
-17.7068
-17.7794
-17.8471
-17.9099
-17.9677
-18.0207
-18.0687
-18.1117
-18.1497
-18.1827
-18.2106
-18.2335
-18.2515
-14.5066
-14.7415
-14.9592
-15.1283
-15.2778
-15.419
-15.552
-15.6774
-15.7968
-15.9108
-16.0198
-16.124
-16.2234
-16.318
-16.4079
-16.4931
-16.5737
-16.6495
-16.7205
-16.7868
-16.8484
-16.9051
-16.9569
-17.0038
-17.0458
-17.0829
-17.115
-17.1421
-17.1642
-17.1814
-13.4727
-13.7574
-14.0041
-14.1747
-14.3211
-14.4593
-14.5893
-14.712
-14.8291
-14.9411
-15.0484
-15.151
-15.249
-15.3423
-15.431
-15.5152
-15.5948
-15.6697
-15.74
-15.8056
-15.8664
-15.9226
-15.9739
-16.0204
-16.0621
-16.0988
-16.1306
-16.1574
-16.1793
-16.1962
-12.6077
-12.9431
-13.1961
-13.3659
-13.5075
-13.6386
-13.7621
-13.8794
-13.9914
-14.0989
-14.2018
-14.3002
-14.3941
-14.4836
-14.5685
-14.649
-14.7251
-14.7966
-14.8636
-14.926
-14.9839
-15.0371
-15.0857
-15.1296
-15.1688
-15.2032
-15.2327
-15.2575
-15.2773
-15.2923
-7.76293
-8.55243
-9.41938
-10.3646
-11.396
-12.5219
-13.751
-15.0929
-16.5583
-18.1589
-19.9081
-21.8205
-23.9127
-26.2029
-28.7119
-31.4627
-34.4816
-37.7984
-41.447
-45.4665
-49.9025
-54.8078
-60.2447
-66.2875
-73.0203
-80.5305
-88.9829
-98.7149
-107.906
-125.487
-7.91407
-8.70727
-9.57548
-10.5226
-11.5562
-12.6846
-13.9164
-15.2611
-16.7296
-18.3336
-20.0864
-22.0028
-24.0993
-26.3943
-28.9084
-31.6648
-34.6899
-38.0135
-41.6697
-45.6978
-50.1433
-55.0593
-60.5083
-66.5647
-73.3129
-80.8406
-89.3091
-99.0549
-108.248
-125.806
-8.06785
-8.8647
-9.73416
-10.6832
-11.7192
-12.8501
-14.0846
-15.4323
-16.904
-18.5115
-20.2681
-22.1887
-24.2896
-26.5895
-29.1089
-31.8712
-34.9027
-38.2334
-41.8975
-45.9345
-50.3898
-55.3169
-60.7782
-66.8483
-73.6117
-81.1563
-89.6407
-99.3919
-108.588
-126.102
-8.22402
-9.02438
-9.89507
-10.8461
-11.8845
-13.018
-14.2552
-15.606
-17.0809
-18.692
-20.4525
-22.3772
-24.4827
-26.7875
-29.3124
-32.0807
-35.1187
-38.4567
-42.1288
-46.1746
-50.64
-55.5782
-61.0519
-67.1356
-73.9137
-81.4738
-89.9732
-99.7325
-108.936
-126.428
-8.38234
-9.1861
-10.058
-11.011
-12.0519
-13.188
-14.4281
-15.7819
-17.2601
-18.8748
-20.6392
-22.5682
-24.6784
-26.9882
-29.5185
-32.2928
-35.3375
-38.6827
-42.3629
-46.4177
-50.893
-55.8424
-61.3284
-67.4256
-74.2181
-81.7934
-90.3081
-100.079
-109.295
-126.782
-8.54258
-9.34965
-10.2228
-11.1779
-12.2213
-13.3601
-14.603
-15.9599
-17.4416
-19.0599
-20.8283
-22.7616
-24.8764
-27.1913
-29.7272
-32.5075
-35.5589
-38.9114
-42.5997
-46.6635
-51.1489
-56.1094
-61.6079
-67.7186
-74.5257
-82.1163
-90.6469
-100.431
-109.662
-127.149
-8.70452
-9.51481
-10.3892
-11.3465
-12.3925
-13.5341
-14.7799
-16.14
-17.6251
-19.2471
-21.0196
-22.9572
-25.0768
-27.3969
-29.9384
-32.7248
-35.7829
-39.1429
-42.8394
-46.9123
-51.4078
-56.3796
-61.8905
-68.015
-74.8369
-82.4432
-90.99
-100.789
-110.033
-127.524
-8.86797
-9.68139
-10.5571
-11.5167
-12.5654
-13.7097
-14.9586
-16.3219
-17.8105
-19.4363
-21.2129
-23.155
-25.2794
-27.6047
-30.1518
-32.9445
-36.0094
-39.3769
-43.0817
-47.1638
-51.6695
-56.6527
-62.1762
-68.3147
-75.1517
-82.774
-91.3372
-101.151
-110.409
-127.906
-9.03273
-9.8492
-10.7263
-11.6882
-12.7397
-13.8869
-15.1389
-16.5055
-17.9976
-19.6273
-21.408
-23.3546
-25.4839
-27.8145
-30.3674
-33.1664
-36.2382
-39.6132
-43.3264
-47.4179
-51.9339
-56.9286
-62.4649
-68.6174
-75.4698
-83.1083
-91.6881
-101.518
-110.789
-128.295
-9.19863
-10.0181
-10.8966
-11.861
-12.9153
-14.0655
-15.3206
-16.6906
-18.1864
-19.82
-21.6049
-23.5561
-25.6903
-28.0262
-30.585
-33.3903
-36.469
-39.8518
-43.5735
-47.6743
-52.2008
-57.2071
-62.7564
-68.9231
-75.791
-83.4459
-92.0425
-101.889
-111.174
-128.688
-9.36552
-10.1879
-11.0678
-12.0348
-13.0921
-14.2454
-15.5037
-16.8771
-18.3766
-20.0142
-21.8034
-23.7591
-25.8983
-28.2397
-30.8043
-33.6161
-36.7019
-40.0923
-43.8226
-47.9329
-52.47
-57.488
-63.0503
-69.2315
-76.1151
-83.7866
-92.4002
-102.264
-111.562
-129.087
-9.5333
-10.3585
-11.24
-12.2097
-13.27
-14.4265
-15.688
-17.0649
-18.5681
-20.2098
-22.0033
-23.9637
-26.1079
-28.4547
-31.0253
-33.8436
-36.9364
-40.3347
-44.0736
-48.1935
-52.7413
-57.7712
-63.3467
-69.5424
-76.4418
-84.1302
-92.7608
-102.642
-111.954
-129.488
-9.70189
-10.5298
-11.4129
-12.3854
-13.4489
-14.6086
-15.8735
-17.254
-18.761
-20.4066
-22.2045
-24.1697
-26.319
-28.6713
-31.2478
-34.0726
-37.1726
-40.5788
-44.3264
-48.4559
-53.0145
-58.0563
-63.6451
-69.8555
-76.7709
-84.4763
-93.1239
-103.023
-112.349
-129.893
-9.87125
-10.7018
-11.5865
-12.562
-13.6288
-14.7917
-16.06
-17.4441
-18.955
-20.6047
-22.407
-24.3769
-26.5312
-28.8891
-31.4716
-34.3029
-37.4102
-40.8243
-44.5806
-48.7199
-53.2893
-58.3432
-63.9454
-70.1706
-77.1021
-84.8246
-93.4893
-103.406
-112.746
-130.3
-10.0414
-10.8745
-11.7609
-12.7394
-13.8096
-14.9758
-16.2476
-17.6353
-19.15
-20.8039
-22.6106
-24.5852
-26.7447
-29.108
-31.6966
-34.5345
-37.6489
-41.071
-44.8362
-48.9853
-53.5655
-58.6316
-64.2473
-70.4873
-77.4351
-85.1747
-93.8565
-103.791
-113.145
-130.709
-10.2124
-11.048
-11.9361
-12.9178
-13.9913
-15.1609
-16.4362
-17.8276
-19.3461
-21.0041
-22.8152
-24.7945
-26.9591
-29.328
-31.9226
-34.767
-37.8887
-41.3188
-45.0928
-49.2517
-53.8429
-58.9212
-64.5504
-70.8055
-77.7695
-85.5264
-94.2253
-104.178
-113.545
-131.12
-10.3845
-11.2223
-12.1121
-13.0971
-14.1741
-15.3471
-16.6258
-18.0208
-19.5432
-21.2052
-23.0206
-25.0047
-27.1743
-29.5487
-32.1493
-35.0004
-38.1293
-41.5673
-45.3502
-49.519
-54.1212
-59.2117
-64.8546
-71.1247
-78.1051
-85.8793
-94.5952
-104.566
-113.947
-131.531
-10.5579
-11.3978
-12.2893
-13.2775
-14.3579
-15.5343
-16.8164
-18.215
-19.7411
-21.4072
-23.2269
-25.2155
-27.3902
-29.7701
-32.3766
-35.2342
-38.3704
-41.8164
-45.6081
-49.7868
-54.4001
-59.5029
-65.1595
-71.4447
-78.4415
-86.233
-94.9659
-104.956
-114.349
-131.943
-10.7329
-11.5746
-12.4677
-13.4591
-14.5429
-15.7225
-17.008
-18.41
-19.9399
-21.6098
-23.4337
-25.4269
-27.6066
-29.9918
-32.6043
-35.4684
-38.6117
-42.0657
-45.8664
-50.055
-54.6793
-59.7945
-65.4647
-71.765
-78.7784
-86.5873
-95.3372
-105.345
-114.752
-132.356
-10.91
-11.7531
-12.6477
-13.6422
-14.7292
-15.9119
-17.2006
-18.6059
-20.1393
-21.813