/*--------------------------------*- C++ -*----------------------------------*\
  =========                 |
  \\      /  F ield         | OpenFOAM: The Open Source CFD Toolbox
   \\    /   O peration     | Website:  https://openfoam.org
    \\  /    A nd           | Version:  6.0
     \\/     M anipulation  |
\*---------------------------------------------------------------------------*/
FoamFile
{
    version     2.0;
    format      ascii;
    class       volVectorField;
    location    "11.75";
    object      U;
}
// * * * * * * * * * * * * * * * * * * * * * * * * * * * * * * * * * * * * * //

dimensions      [0 1 -1 0 0 0 0];

internalField   nonuniform List<vector> 
2400
(
(3.93128 -16.1398 -1.28073e-18)
(0.544302 -16.1497 4.58303e-19)
(0.819398 -15.7478 -3.82526e-19)
(1.10636 -15.0207 -2.11282e-19)
(1.16707 -14.2719 -3.04644e-19)
(1.20317 -13.5687 4.06305e-19)
(1.24509 -12.9375 1.39924e-19)
(1.28945 -12.3869 1.01141e-19)
(1.34916 -11.9136 -2.25556e-19)
(1.38591 -11.5101 -1.27961e-20)
(5.21978 -15.8869 1.46165e-18)
(1.83516 -16.2296 -6.60351e-20)
(2.06323 -15.8072 2.61391e-19)
(2.27813 -15.0449 2.02797e-18)
(2.27084 -14.2819 -1.35025e-18)
(2.24583 -13.5733 -7.15459e-20)
(2.23372 -12.9418 -1.35378e-20)
(2.23351 -12.394 -1.39802e-19)
(2.25675 -11.9258 -1.92782e-19)
(2.24943 -11.5373 -2.07531e-20)
(6.48998 -15.5313 2.54467e-18)
(3.13368 -16.2003 1.87992e-18)
(3.3121 -15.7591 -4.64594e-18)
(3.44912 -14.9674 1.32346e-18)
(3.37001 -14.1965 1.7885e-18)
(3.28121 -13.4877 -9.92006e-19)
(3.21318 -12.8597 -7.19288e-19)
(3.16728 -12.3156 5.5099e-19)
(3.15169 -11.8505 -1.13091e-18)
(3.09291 -11.4733 9.95414e-19)
(7.73082 -15.0703 -8.7782e-18)
(4.4307 -16.0569 3.00141e-18)
(4.55596 -15.6009 -2.72763e-18)
(4.6106 -14.7877 1.15621e-18)
(4.45746 -14.0161 -1.15547e-18)
(4.30371 -13.3136 1.57376e-18)
(4.17974 -12.6947 5.97675e-19)
(4.0897 -12.1597 -2.16704e-18)
(4.03686 -11.7057 -1.74524e-18)
(3.92695 -11.3571 1.68298e-18)
(8.93335 -14.5045 5.24167e-19)
(5.71438 -15.7989 -1.16113e-18)
(5.78413 -15.3323 -4.38845e-19)
(5.75313 -14.5059 -5.46188e-19)
(5.52496 -13.7419 -2.8106e-18)
(5.30605 -13.0523 4.20452e-19)
(5.12561 -12.4468 -2.37455e-19)
(4.98955 -11.9225 2.20031e-18)
(4.89443 -11.4811 -1.48776e-18)
(4.72632 -11.1654 -7.71909e-19)
(10.087 -13.8341 7.57799e-18)
(6.97367 -15.4244 -5.2377e-19)
(6.98502 -14.9521 7.37815e-18)
(6.86573 -14.1218 -9.40302e-19)
(6.56293 -13.3743 3.38451e-18)
(6.28136 -12.7065 -3.81682e-19)
(6.04788 -12.1219 4.43776e-21)
(5.86721 -11.6143 1.83365e-18)
(5.72614 -11.1926 -9.76462e-19)
(5.49591 -10.9212 1.22919e-18)
(11.183 -13.0624 -2.98175e-18)
(8.19806 -14.9348 6.04526e-19)
(8.14779 -14.4611 -2.02832e-18)
(7.93668 -13.6347 -1.72576e-18)
(7.55784 -12.9119 -1.06024e-20)
(7.21509 -12.2738 5.02232e-18)
(6.93376 -11.7179 -1.75281e-18)
(6.71495 -11.2333 6.14652e-19)
(6.53046 -10.8361 -2.39213e-18)
(6.23779 -10.6097 -9.73428e-19)
(12.2139 -12.1939 1.21166e-17)
(9.37971 -14.3323 -1.32922e-18)
(9.26467 -13.8608 -9.78841e-18)
(8.95771 -13.0449 5.1173e-19)
(8.49835 -12.3522 1.68888e-18)
(8.08967 -11.7487 -2.35842e-18)
(7.75934 -11.2267 -2.71e-18)
(7.50943 -10.7737 3.9686e-18)
(7.29875 -10.4169 -3.65112e-19)
(6.96875 -10.2615 -2.66645e-18)
(13.1734 -11.2349 -9.83709e-18)
(10.5122 -13.6216 4.5535e-18)
(10.3313 -13.1555 5.9963e-18)
(9.92714 -12.3551 1.43565e-18)
(9.38381 -11.6944 -4.80986e-18)
(8.89935 -11.1241 2.86567e-18)
(8.50176 -10.6335 1.54391e-18)
(8.19894 -10.2164 2.98975e-18)
(7.95381 -9.92508 -1.84553e-18)
(7.6104 -9.89636 -2.2318e-18)
(14.0541 -10.1912 3.14515e-18)
(11.5886 -12.8084 -1.17489e-18)
(11.3438 -12.351 -3.25644e-19)
(10.8463 -11.5705 1.34724e-18)
(10.2243 -10.9417 9.74769e-19)
(9.6655 -10.4 -7.24994e-19)
(9.18579 -9.93576 -1.24956e-18)
(8.77858 -9.55917 1.84064e-18)
(8.4053 -9.35695 -1.49834e-18)
(7.96546 -9.46754 1.20058e-18)
(17.6699 2.95927 1.65741e-19)
(17.7727 1.54682 5.20341e-19)
(17.7633 0.134145 -1.64484e-18)
(17.6463 -1.27002 1.51385e-18)
(17.4244 -2.65722 5.92472e-19)
(17.1011 -4.01998 7.86877e-18)
(16.6781 -5.35014 -3.10055e-18)
(16.1602 -6.64056 -4.56143e-18)
(15.5477 -7.88297 5.27995e-18)
(14.8473 -9.06989 -9.15885e-18)
(17.8395 -0.84166 4.31897e-19)
(17.6645 -2.228 -2.0064e-19)
(17.3756 -3.59471 -1.29016e-18)
(16.9779 -4.9329 3.4229e-18)
(16.4762 -6.23318 -1.21015e-18)
(15.876 -7.48873 9.48288e-18)
(15.1823 -8.69016 -6.22662e-18)
(14.4016 -9.83192 9.24334e-18)
(13.5388 -10.9034 -6.80077e-18)
(12.6002 -11.9005 -3.63029e-18)
(17.0673 -0.758891 -7.89303e-19)
(16.9368 -2.07626 6.41768e-20)
(16.697 -3.38154 -3.46199e-18)
(16.3508 -4.66618 2.62981e-18)
(15.9018 -5.92088 -2.94871e-18)
(15.3547 -7.13779 -5.82564e-18)
(14.7143 -8.30788 -2.078e-18)
(13.9872 -9.42361 -1.55379e-18)
(13.1786 -10.4754 6.02947e-18)
(12.2958 -11.4549 3.57427e-18)
(15.9705 -0.545968 3.1819e-19)
(15.8728 -1.77479 -5.5393e-19)
(15.6739 -2.99712 -7.74934e-19)
(15.3746 -4.20616 -3.17643e-18)
(14.9787 -5.39224 2.08263e-18)
(14.4893 -6.54836 5.89399e-18)
(13.9118 -7.66539 2.3943e-18)
(13.2519 -8.73571 5.14172e-19)
(12.5158 -9.75003 1.42914e-18)
(11.7119 -10.6987 1.16352e-19)
(15.0169 -0.505663 -3.34241e-19)
(14.9214 -1.65721 -1.31383e-18)
(14.7331 -2.80294 1.2021e-19)
(14.4494 -3.94009 2.46314e-18)
(14.0772 -5.05649 2.69116e-18)
(13.6161 -6.14935 -1.86513e-18)
(13.0746 -7.20724 -3.35989e-18)
(12.4558 -8.22551 -1.82196e-18)
(11.7687 -9.19377 1.99444e-18)
(11.0226 -10.1032 3.23317e-18)
(14.2357 -0.46971 7.81958e-20)
(14.1345 -1.55748 1.05616e-18)
(13.9506 -2.63663 -2.48482e-18)
(13.6714 -3.71291 3.04959e-18)
(13.3148 -4.766 1.86492e-18)
(12.8682 -5.80449 3.61046e-18)
(12.3524 -6.80828 -7.72971e-19)
(11.7589 -7.78363 -2.30108e-18)
(11.1091 -8.71128 5.42763e-18)
(10.4077 -9.5876 -4.81965e-18)
(13.5854 -0.42622 1.54095e-19)
(13.4752 -1.46122 -1.13032e-18)
(13.2979 -2.48089 -7.32637e-19)
(13.0161 -3.50704 -1.60353e-18)
(12.6769 -4.50043 -2.29997e-19)
(12.2329 -5.49433 -2.34178e-18)
(11.742 -6.44607 -1.56006e-18)
(11.156 -7.39356 -2.56156e-19)
(10.5404 -8.28911 -3.1894e-18)
(9.87077 -9.14415 4.50503e-18)
(13.0311 -0.378898 -1.24627e-19)
(12.9066 -1.37265 9.16587e-19)
(12.7431 -2.33981 -4.09308e-19)
(12.4492 -3.32776 8.88225e-19)
(12.1372 -4.26283 2.15179e-18)
(11.6786 -5.22217 3.6684e-18)
(11.2233 -6.11535 -9.68861e-19)
(10.6133 -7.05301 -3.62917e-18)
(10.0424 -7.92398 1.12306e-18)
(9.37216 -8.79631 -6.83034e-18)
(12.5508 -0.312755 1.72918e-19)
(12.404 -1.27828 -2.06069e-19)
(12.265 -2.20376 -1.97074e-18)
(11.9451 -3.1711 5.96674e-19)
(11.6771 -4.05561 -1.45173e-18)
(11.1769 -4.99983 -6.46509e-19)
(10.7798 -5.82628 -4.00013e-19)
(10.0845 -6.78178 1.66541e-18)
(9.58902 -7.6176 1.57107e-18)
(8.81088 -8.63587 1.35178e-18)
(12.1337 -0.270805 -3.64942e-19)
(11.9495 -1.21274 6.31021e-19)
(11.8408 -2.10258 3.18794e-19)
(11.4762 -3.06574 8.61482e-19)
(11.2619 -3.91676 -8.54956e-20)
(10.6881 -4.87593 -6.52107e-20)
(10.3585 -5.65179 -2.09074e-18)
(9.50443 -6.65956 2.8904e-18)
(9.10063 -7.41927 -1.89984e-18)
(8.05642 -8.71688 6.12331e-19)
(10.5941 14.7888 -5.26191e-18)
(11.7358 13.9354 5.43897e-18)
(12.7978 12.9865 -3.00465e-19)
(13.773 11.95 -8.92596e-18)
(14.6533 10.8331 6.41174e-18)
(15.4325 9.64384 -4.39807e-18)
(16.1043 8.39138 -9.81163e-19)
(16.6663 7.0864 -9.13812e-19)
(17.1148 5.73892 1.46124e-18)
(17.4508 4.36047 1.03638e-19)
(13.2036 11.6689 5.92698e-18)
(14.1404 10.678 1.1397e-18)
(14.9881 9.60747 -5.69837e-18)
(15.7388 8.46397 -5.76288e-18)
(16.385 7.25477 4.68072e-18)
(16.9214 5.98748 -3.68493e-18)
(17.3427 4.67281 4.04431e-18)
(17.6471 3.32087 -1.14167e-18)
(17.8313 1.94437 -3.34829e-18)
(17.8965 0.552375 -2.32063e-19)
(12.4376 10.8598 -9.39945e-19)
(13.3331 9.9581 -7.57906e-19)
(14.1482 8.98139 3.03266e-18)
(14.8749 7.93343 2.83685e-18)
(15.5065 6.81941 6.07148e-18)
(16.0377 5.64623 1.89146e-18)
(16.464 4.4237 -1.37509e-18)
(16.7825 3.16159 -2.80192e-18)
(16.9902 1.87055 2.21293e-18)
(17.0857 0.560164 1.55512e-19)
(11.5269 10.1199 1.49174e-18)
(12.3671 9.30313 -3.30275e-18)
(13.1324 8.41805 -1.25582e-18)
(13.8159 7.46495 -5.2932e-18)
(14.4125 6.44736 -2.68869e-18)
(14.9177 5.37184 5.09626e-18)
(15.3286 4.24853 3.15068e-18)
(15.6416 3.08579 -2.65409e-18)
(15.8545 1.89353 1.13244e-19)
(15.9643 0.679455 -1.09822e-19)
(10.9283 9.446 -5.13811e-18)
(11.7128 8.68626 5.6286e-18)
(12.4224 7.86558 -1.4213e-18)
(13.0514 6.97881 2.77208e-18)
(13.599 6.02918 -1.84502e-18)
(14.0613 5.02417 -2.924e-18)
(14.4379 3.97537 1.38547e-18)
(14.7232 2.88899 -1.47757e-18)
(14.9171 1.7755 -1.38332e-18)
(15.0143 0.639988 5.79583e-19)
(10.4668 8.90672 -6.82325e-19)
(11.2097 8.19478 1.06084e-18)
(11.8746 7.42707 -1.2402e-18)
(12.4558 6.59113 -5.38612e-18)
(12.9597 5.69377 2.86155e-18)
(13.3823 4.74424 4.41595e-19)
(13.7274 3.75552 -2.45413e-18)
(13.985 2.7301 -8.3026e-19)
(14.1595 1.68089 7.35242e-19)
(14.2402 0.609005 -2.08646e-19)
(10.0731 8.46544 -2.71255e-18)
(10.7824 7.80275 -1.75459e-20)
(11.4149 7.07967 1.20348e-18)
(11.9578 6.28062 3.0119e-18)
(12.4273 5.4247 5.95723e-19)
(12.8163 4.52111 1.42528e-18)
(13.1368 3.58293 2.71517e-18)
(13.3693 2.60741 -1.14731e-18)
(13.5293 1.61292 9.48084e-19)
(13.5936 0.593942 -3.53181e-19)
(9.73562 8.09738 -9.202e-19)
(10.3937 7.50318 1.02432e-18)
(10.9975 6.81528 9.76286e-19)
(11.5116 6.03912 -1.39091e-18)
(11.9587 5.21752 -7.34441e-19)
(12.3207 4.35151 -1.59704e-18)
(12.6249 3.45379 1.37335e-19)
(12.8353 2.51637 -3.50231e-19)
(12.9888 1.56716 -1.98726e-18)
(13.0361 0.590545 2.63316e-19)
(9.5524 7.73093 -3.44799e-19)
(10.0888 7.25536 -1.75315e-18)
(10.6313 6.59701 -6.7065e-19)
(11.1123 5.84301 2.76477e-19)
(11.5422 5.06278 -1.67293e-19)
(11.8771 4.23414 1.39591e-18)
(12.1703 3.37273 5.39285e-19)
(12.3592 2.46618 7.78577e-19)
(12.5151 1.55624 9.13499e-19)
(12.544 0.613318 -3.68703e-19)
(9.67531 7.22202 -1.15962e-18)
(10.0371 6.89505 1.93418e-18)
(10.4316 6.25657 -2.9938e-18)
(10.8467 5.54274 -7.92896e-20)
(11.2456 4.82382 2.31038e-18)
(11.534 4.04588 1.06935e-19)
(11.8029 3.2353 9.60825e-19)
(11.9567 2.37065 -1.96712e-18)
(12.1133 1.51128 -1.47437e-20)
(12.1131 0.606778 1.68655e-19)
(0.990949 10.7299 8.52769e-20)
(0.982009 11.0996 -3.83986e-20)
(1.0119 11.4997 -2.2587e-20)
(1.02093 11.9526 2.73797e-19)
(1.01251 12.4759 -1.21432e-19)
(0.989329 13.0985 -4.52538e-19)
(0.967505 13.8957 5.13995e-19)
(1.13204 15.0008 1.69918e-19)
(1.14943 16.3022 2.48762e-19)
(-2.86808 17.403 1.14972e-18)
(1.87737 10.6011 2.14378e-19)
(1.89023 11.0085 -6.98387e-19)
(1.94147 11.4344 7.05658e-19)
(1.97924 11.9063 1.45836e-19)
(2.00841 12.4453 -2.96967e-19)
(2.03217 13.0843 3.42203e-19)
(2.07153 13.8992 1.22401e-18)
(2.31995 15.0042 -1.58548e-18)
(2.43243 16.2911 3.79407e-20)
(-1.50248 17.6304 -1.32206e-18)
(2.72645 10.5174 8.82503e-19)
(2.77431 10.9168 -1.24265e-18)
(2.85704 11.3344 -5.13931e-19)
(2.93301 11.8035 -4.74314e-20)
(3.00643 12.3453 -5.0615e-19)
(3.08134 12.9925 -2.32905e-19)
(3.18446 13.8184 3.89481e-19)
(3.51643 14.915 1.08489e-18)
(3.72107 16.1781 8.27202e-19)
(-0.117093 17.749 -2.3029e-18)
(3.64361 10.2427 8.29381e-19)
(3.69839 10.6822 -9.93974e-19)
(3.79555 11.1261 -1.02579e-18)
(3.89921 11.6113 5.93682e-19)
(4.01075 12.1633 3.1806e-18)
(4.13421 12.8188 -1.25004e-18)
(4.3006 13.6511 1.00439e-18)
(4.71436 14.732 -3.32925e-18)
(5.00747 15.9634 -3.70953e-18)
(1.27945 17.7596 4.45284e-18)
(4.47886 10.0576 5.92976e-19)
(4.567 10.4719 -4.4992e-19)
(4.69917 10.8947 1.28667e-18)
(4.84593 11.3667 -1.16494e-18)
(5.00422 11.9127 8.49277e-19)
(5.18031 12.5669 7.58967e-19)
(5.41169 13.398 7.62784e-19)
(5.90569 14.4552 5.43571e-19)
(6.28262 15.6472 2.2085e-18)
(2.67812 17.6614 1.99713e-18)
(5.39796 9.62324 -1.7629e-18)
(5.47762 10.0936 -5.47203e-19)
(5.61921 10.5478 2.25873e-18)
(5.79342 11.0329 -2.50802e-18)
(5.99002 11.5818 -1.21059e-18)
(6.21534 12.2341 -2.91561e-18)
(6.5108 13.0585 1.62634e-19)
(7.0827 14.0843 -3.06631e-18)
(7.53907 15.2297 -3.80753e-19)
(4.07033 17.4542 -6.02261e-18)
(6.19815 9.31422 2.50533e-18)
(6.31258 9.75766 -4.59491e-18)
(6.49307 10.1843 2.543e-18)
(6.71112 10.6483 1.35269e-18)
(6.95284 11.183 -2.95298e-19)
(7.22968 11.824 3.89473e-18)
(7.58953 12.6339 -2.56584e-18)
(8.23674 13.6201 -6.19314e-18)
(8.76649 14.712 -8.19798e-19)
(5.44625 17.1371 5.53548e-18)
(7.13236 8.69525 -4.54994e-20)
(7.20872 9.23515 2.12971e-18)
(7.37804 9.70829 -1.03643e-18)
(7.61425 10.1816 1.04737e-18)
(7.89133 10.7094 1.12699e-18)
(8.21678 11.3367 -1.81229e-18)
(8.6398 12.1253 1.30534e-18)
(9.35915 13.0637 -2.79467e-18)
(9.95764 14.0951 7.98443e-18)
(6.79691 16.7117 -2.70862e-18)
(7.93474 8.26392 -1.16136e-18)
(8.02705 8.78633 -6.83162e-19)
(8.2114 9.22408 2.90966e-18)
(8.47762 9.66607 -4.24303e-18)
(8.79458 10.1704 4.20405e-18)
(9.16861 10.7753 -2.14484e-18)
(9.65296 11.5348 -3.68621e-18)
(10.4402 12.4166 7.49867e-19)
(11.1 13.3813 -1.34373e-17)
(8.11183 16.177 1.00759e-17)
(8.92073 7.57027 2.95017e-18)
(8.8841 8.18957 -2.82828e-18)
(9.0091 8.66484 2.9632e-18)
(9.29659 9.09112 -2.22796e-19)
(9.65464 9.56876 -3.15208e-18)
(10.0757 10.1442 -1.6595e-18)
(10.6188 10.8652 1.93329e-18)
(11.4701 11.6811 5.07548e-18)
(12.1876 12.5716 6.28481e-18)
(9.38159 15.5375 -6.11194e-21)
(-5.93197 8.38606 -1.76467e-18)
(-6.29039 8.2505 1.43762e-18)
(-6.6005 8.33932 -6.53508e-19)
(-6.92396 8.57531 1.51337e-18)
(-7.29402 8.86718 1.31331e-18)
(-7.71558 9.19807 2.24272e-18)
(-8.21569 9.62347 3.27237e-18)
(-8.76012 10.3886 1.79265e-18)
(-9.59615 11.3403 2.79194e-18)
(-13.5411 9.86796 -1.77683e-18)
(-5.62373 8.81196 1.02534e-18)
(-5.91538 8.78547 1.23781e-18)
(-6.12173 8.95404 -1.99241e-18)
(-6.36159 9.22526 -1.05193e-18)
(-6.67326 9.53803 -1.95963e-18)
(-7.05233 9.89397 3.7886e-18)
(-7.51497 10.3563 -1.71786e-18)
(-8.00603 11.1677 -4.07827e-18)
(-8.77904 12.1837 -3.14648e-18)
(-12.8178 10.9693 4.50029e-18)
(-5.04791 9.17185 -3.1131e-19)
(-5.34372 9.2589 2.58825e-19)
(-5.53173 9.48939 -2.72994e-18)
(-5.73838 9.79364 1.85627e-18)
(-6.009 10.1348 1.65839e-18)
(-6.34601 10.5244 -1.17097e-18)
(-6.7656 11.0297 1.76024e-20)
(-7.19579 11.889 6.86536e-18)
(-7.8965 12.9656 9.37681e-19)
(-12.0052 12.0117 -3.6293e-18)
(-4.38044 9.51667 -2.49281e-18)
(-4.66015 9.67149 1.66466e-18)
(-4.83746 9.94375 -4.27892e-19)
(-5.03052 10.2804 1.25675e-18)
(-5.27741 10.6562 -3.56115e-18)
(-5.58189 11.0857 2.11878e-20)
(-5.96045 11.6382 7.22799e-19)
(-6.32692 12.5459 -2.24192e-19)
(-6.94938 13.6789 -4.24449e-19)
(-11.1071 12.9878 4.3214e-18)
(-3.70575 9.85771 2.05199e-18)
(-3.94613 10.0535 9.64966e-20)
(-4.09437 10.3502 -1.31644e-18)
(-4.26475 10.709 4.3789e-21)
(-4.48632 11.1141 2.63005e-19)
(-4.75986 11.581 -2.46574e-18)
(-5.09801 12.1799 6.74212e-19)
(-5.3989 13.1337 -6.42001e-19)
(-5.9392 14.3173 -9.03572e-20)
(-10.1268 13.8896 -5.50733e-18)
(-2.99333 10.1283 -6.21359e-20)
(-3.19507 10.3694 1.68631e-18)
(-3.31283 10.6938 -1.61288e-18)
(-3.45624 11.0755 1.69654e-19)
(-3.64791 11.5082 -3.33031e-19)
(-3.88729 12.01 2.0939e-18)
(-4.18229 12.6526 4.0847e-19)
(-4.4145 13.6483 2.93225e-19)
(-4.86874 14.875 1.67663e-18)
(-9.06895 14.7098 1.12596e-18)
(-2.25575 10.376 -1.08888e-18)
(-2.41704 10.6514 1.30086e-18)
(-2.50382 10.9932 6.75662e-20)
(-2.61747 11.3896 2.09078e-18)
(-2.77456 11.8429 -1.21016e-18)
(-2.97462 12.3739 8.94911e-19)
(-3.22124 13.0552 -8.82584e-19)
(-3.38015 14.0864 2.07233e-18)
(-3.74448 15.3471 2.07044e-18)
(-7.9398 15.4419 2.21371e-18)
(-1.46502 10.5304 -6.86722e-19)
(-1.59243 10.8455 8.72165e-19)
(-1.65449 11.2127 -4.29349e-19)
(-1.74194 11.6306 -3.40775e-19)
(-1.86548 12.1075 7.91765e-19)
(-2.02496 12.667 -1.42027e-18)
(-2.21998 13.384 -1.04579e-18)
(-2.30182 14.4443 3.67542e-18)
(-2.57259 15.7297 -7.06756e-19)
(-6.74725 16.0816 -2.61859e-18)
(-0.67195 10.6763 -6.83063e-19)
(-0.75705 11.008 1.56095e-19)
(-0.787762 11.3838 1.09699e-19)
(-0.843689 11.8122 7.56499e-21)
(-0.929753 12.3053 -5.26043e-19)
(-1.04521 12.8883 1.72337e-18)
(-1.18478 13.6361 -1.66266e-18)
(-1.18631 14.7186 -2.1123e-19)
(-1.36191 16.0187 5.01986e-20)
(-5.49879 16.6239 -1.98588e-18)
(0.168005 10.6999 2.10081e-19)
(0.115887 11.0645 3.78177e-20)
(0.111314 11.4637 -8.24547e-20)
(0.0841647 11.9121 -1.18537e-19)
(0.0341101 12.4254 -3.38379e-19)
(-0.0373069 13.0317 2.57828e-19)
(-0.119774 13.8072 1.72413e-19)
(-0.0392318 14.905 3.19169e-19)
(-0.117752 16.211 -3.98683e-19)
(-4.20362 17.0663 3.87139e-19)
(-5.98007 7.65187 -1.85799e-18)
(-6.94879 6.48696 8.37905e-19)
(-7.2662 5.77299 -3.85828e-19)
(-8.02971 4.87574 -1.06733e-18)
(-8.32049 4.15135 -6.66871e-19)
(-8.83174 3.30451 -3.91926e-20)
(-9.04893 2.52035 -3.76648e-19)
(-9.37828 1.66864 -1.35153e-19)
(-9.51838 0.850037 -1.47083e-19)
(-9.69674 0.00639314 6.81735e-20)
(-6.61425 7.56476 -1.3377e-18)
(-7.32573 6.62519 -9.62408e-19)
(-7.72031 5.86533 -1.38595e-18)
(-8.34886 4.99864 2.30608e-19)
(-8.68653 4.24706 5.70088e-19)
(-9.14166 3.40629 8.80893e-19)
(-9.39248 2.60813 -3.57432e-19)
(-9.69344 1.75444 1.18562e-18)
(-9.85042 0.92151 1.27913e-19)
(-10.0085 0.0655991 -1.07051e-19)
(-7.09053 7.62655 3.85422e-18)
(-7.6775 6.82717 -4.93571e-19)
(-8.14328 6.04995 2.24619e-18)
(-8.68633 5.20627 5.85228e-19)
(-9.07243 4.41462 -2.26344e-18)
(-9.49061 3.56482 -1.31247e-18)
(-9.77584 2.73768 -5.47756e-19)
(-10.0599 1.86918 2.53571e-19)
(-10.2364 1.01144 -5.7419e-19)
(-10.3844 0.134271 7.82963e-20)
(-7.49042 7.84682 9.37732e-19)
(-8.05521 7.07554 2.06349e-18)
(-8.56372 6.28324 1.55315e-19)
(-9.0716 5.44579 9.83545e-19)
(-9.48976 4.61706 1.44837e-18)
(-9.89019 3.74985 1.43099e-19)
(-10.2003 2.88766 1.00579e-18)
(-10.4769 1.99592 4.5969e-19)
(-10.6691 1.10619 7.08862e-19)
(-10.8135 0.20075 -9.91853e-20)
(-7.89736 8.12901 3.1695e-18)
(-8.47061 7.34943 -3.68215e-18)
(-9.0022 6.53809 -3.46813e-19)
(-9.50098 5.69269 4.92702e-19)
(-9.93705 4.83371 -6.62182e-19)
(-10.3319 3.94608 -1.17692e-18)
(-10.657 3.05055 -1.92444e-18)
(-10.9323 2.13264 1.57947e-18)
(-11.1354 1.20956 -1.76203e-19)
(-11.2802 0.273199 -5.21429e-20)
(-8.34435 8.44332 -5.44856e-18)
(-8.93257 7.64419 3.12645e-18)
(-9.47787 6.80923 1.18315e-18)
(-9.97777 5.94368 1.78212e-19)
(-10.4229 5.05561 1.19178e-18)
(-10.8169 4.14304 -1.71097e-18)
(-11.1491 3.21524 -1.57094e-18)
(-11.4241 2.26854 -7.86604e-20)
(-11.6324 1.31181 3.12459e-19)
(-11.7774 0.343029 2.16953e-19)
(-8.87015 8.83745 -1.3111e-18)
(-9.476 8.00712 -9.20071e-19)
(-10.0325 7.14016 -3.26961e-19)
(-10.5369 6.24312 1.28023e-18)
(-10.9863 5.32102 -3.75247e-18)
(-11.3796 4.37615 -1.32174e-18)
(-11.7127 3.41317 2.01426e-18)
(-11.9851 2.43283 4.94245e-19)
(-12.1925 1.43989 3.56419e-19)
(-12.3343 0.435329 -2.06206e-19)
(-9.45785 9.55815 -3.89033e-18)
(-10.0977 8.6842 -3.88774e-18)
(-10.6796 7.77378 6.3747e-18)
(-11.2033 6.83308 1.33252e-18)
(-11.6676 5.86654 5.40662e-18)
(-12.0716 4.87754 1.57963e-19)
(-12.4134 3.86929 -1.66921e-18)
(-12.6916 2.84391 2.19811e-18)
(-12.9036 1.80438 -4.28499e-20)
(-13.0477 0.7529 5.07533e-19)
(-10.3445 10.4434 4.44093e-19)
(-11.0245 9.50016 5.88638e-18)
(-11.6355 8.52097 -5.96055e-18)
(-12.18 7.51011 3.97519e-18)
(-12.657 6.47342 -6.00493e-18)
(-13.0668 5.41425 7.56969e-19)
(-13.4081 4.33644 -2.15799e-18)
(-13.6801 3.24265 8.07259e-19)
(-13.8809 2.13595 1.20116e-19)
(-14.0083 1.0195 -2.76787e-19)
(-14.1697 8.71574 1.57597e-18)
(-14.703 7.5263 -4.44139e-18)
(-15.1472 6.30724 2.07393e-18)
(-15.5005 5.06708 -1.79659e-18)
(-15.7654 3.81191 7.69621e-19)
(-15.9413 2.54824 3.81974e-18)
(-16.0294 1.28164 4.5972e-19)
(-16.03 0.0176641 1.07378e-18)
(-15.9432 -1.23855 -5.19595e-19)
(-15.7678 -2.4815 -1.2557e-19)
(-9.73308 -0.80857 5.30704e-20)
(-9.75747 -1.63263 -2.39243e-19)
(-9.67374 -2.43977 1.19061e-18)
(-9.56121 -3.2444 -7.75482e-19)
(-9.36905 -4.02325 6.75794e-20)
(-9.13652 -4.77215 -6.62726e-19)
(-8.81717 -5.48032 3.13552e-18)
(-8.43308 -6.1774 2.63442e-19)
(-8.03705 -6.83363 -9.32361e-19)
(-7.69564 -7.24624 1.89217e-18)
(-10.0517 -0.773207 2.31761e-19)
(-10.0637 -1.61941 -5.85898e-19)
(-9.98145 -2.45326 -5.00693e-19)
(-9.85479 -3.28322 -3.58854e-19)
(-9.64885 -4.09215 -9.68805e-19)
(-9.39091 -4.87621 -9.37172e-20)
(-9.05554 -5.62934 -1.79552e-19)
(-8.64813 -6.3633 9.41355e-19)
(-8.16198 -7.04532 2.04057e-18)
(-7.64868 -7.59531 -2.10941e-19)
(-10.4384 -0.73342 -1.6806e-19)
(-10.4455 -1.60648 1.29375e-18)
(-10.3691 -2.46917 2.36981e-19)
(-10.2376 -3.32534 -8.38821e-20)
(-10.0298 -4.16237 1.097e-18)
(-9.76267 -4.97802 5.10961e-19)
(-9.42303 -5.76718 9.93559e-19)
(-9.01177 -6.52631 -6.95883e-19)
(-8.51003 -7.23198 -1.77621e-18)
(-7.9309 -7.87494 -4.12519e-18)
(-10.8769 -0.701093 2.29448e-19)
(-10.8819 -1.60703 -6.17013e-19)
(-10.8095 -2.50484 7.73591e-19)
(-10.6736 -3.395 -1.84363e-18)
(-10.463 -4.26799 -9.87155e-19)
(-10.1869 -5.12139 -3.98987e-19)
(-9.83826 -5.94834 -2.1851e-18)
(-9.41698 -6.73959 -8.94703e-19)
(-8.90997 -7.48325 1.85449e-20)
(-8.31716 -8.18982 1.382e-18)
(-11.351 -0.664347 1.38165e-19)
(-11.3561 -1.60562 3.03503e-20)
(-11.2864 -2.54143 5.63027e-19)
(-11.1473 -3.47008 1.69803e-18)
(-10.9333 -4.38409 -3.06244e-19)
(-10.6482 -5.2798 -2.44246e-18)
(-10.2878 -6.14925 3.94535e-18)
(-9.85161 -6.98357 -1.16293e-18)
(-9.33367 -7.77781 -9.93057e-19)
(-8.73367 -8.54061 -4.18097e-19)
(-11.8515 -0.630425 -3.81332e-19)
(-11.856 -1.60774 3.74384e-19)
(-11.7865 -2.58203 1.01569e-18)
(-11.6441 -3.55024 -9.50496e-19)
(-11.4258 -4.50611 2.06146e-18)
(-11.1322 -5.44482 -2.37729e-19)
(-10.7604 -6.35872 2.07516e-19)
(-10.3096 -7.24106 1.10132e-18)
(-9.77814 -8.08911 7.16825e-19)
(-9.16747 -8.90579 3.39663e-19)
(-12.4061 -0.576056 7.14374e-20)
(-12.4063 -1.59139 -7.52033e-20)
(-12.3324 -2.60542 1.81349e-18)
(-12.1834 -3.61419 -2.1505e-18)
(-11.9576 -4.61216 -3.60837e-18)
(-11.6538 -5.59394 1.89092e-18)
(-11.2701 -6.55286 -9.2513e-19)
(-10.8057 -7.4837 9.64912e-19)
(-10.2607 -8.38376 2.60941e-18)
(-9.63698 -9.25199 -2.60334e-18)
(-13.1205 -0.30653 -9.92468e-20)
(-13.1193 -1.36959 -1.4646e-18)
(-13.0426 -2.43195 1.89435e-18)
(-12.889 -3.48923 9.75317e-19)
(-12.6568 -4.5362 -3.18555e-18)
(-12.3449 -5.56739 -2.42853e-18)
(-11.9521 -6.57706 -2.82457e-19)
(-11.4779 -7.5608 1.80466e-19)
(-10.9229 -8.51552 6.41872e-19)
(-10.289 -9.43819 -1.00521e-18)
(-14.0589 -0.101502 1.50461e-19)
(-14.0308 -1.22314 2.20995e-18)
(-13.9237 -2.3393 7.86976e-19)
(-13.7365 -3.44653 -2.73344e-18)
(-13.4685 -4.53899 2.56132e-18)
(-13.119 -5.61162 -3.33621e-18)
(-12.6882 -6.65923 4.1455e-18)
(-12.1768 -7.67813 -4.73973e-18)
(-11.5861 -8.665 -2.48374e-18)
(-10.9177 -9.61563 -6.87013e-18)
(-15.5015 -3.70438 -5.09464e-20)
(-15.1464 -4.89899 -7.90788e-19)
(-14.7056 -6.06244 6.0246e-19)
(-14.1797 -7.18716 6.43804e-19)
(-13.5708 -8.26808 -1.41018e-18)
(-12.8808 -9.29863 1.31606e-18)
(-12.1133 -10.2739 -1.70421e-18)
(-11.2725 -11.1896 1.30812e-18)
(-10.363 -12.0421 -3.25494e-18)
(-9.38823 -12.8264 3.5678e-18)
(-8.35231 -13.5355 5.21508e-18)
(-10.1745 -10.5233 -2.94877e-18)
(-9.57841 -10.3236 -2.47303e-18)
(-8.93722 -10.0847 3.13137e-18)
(-8.48057 -9.69038 -1.2534e-19)
(-8.05611 -9.27876 2.60019e-18)
(-7.64762 -8.88223 1.52564e-19)
(-7.28411 -8.50621 -1.7577e-18)
(-7.05899 -8.10788 2.76852e-18)
(-7.1088 -7.57693 -4.84529e-19)
(-7.26559 -14.1656 -5.62372e-18)
(-9.35867 -11.3829 1.13731e-17)
(-8.79426 -11.1642 -6.53858e-19)
(-8.16552 -10.8746 -2.69306e-18)
(-7.72491 -10.4351 1.81236e-18)
(-7.31594 -9.98093 -3.57677e-18)
(-6.92316 -9.54698 3.60653e-18)
(-6.56849 -9.14489 -2.43686e-18)
(-6.2911 -8.76533 6.04864e-19)
(-6.1869 -8.32777 1.36684e-18)
(-6.13284 -14.7219 3.3788e-18)
(-8.47736 -12.1912 -6.93793e-18)
(-7.94133 -11.956 2.38142e-18)
(-7.32762 -11.6166 -1.02479e-18)
(-6.90756 -11.134 1.59489e-18)
(-6.52034 -10.6398 -1.02882e-18)
(-6.14962 -10.1687 -8.89686e-19)
(-5.81521 -9.72845 9.1057e-19)
(-5.55104 -9.30525 -1.84374e-18)
(-5.44416 -8.84318 2.05728e-18)
(-4.96022 -15.1991 -7.1969e-18)
(-7.53158 -12.9439 7.46771e-19)
(-7.02329 -12.6922 2.25593e-18)
(-6.42864 -12.3029 2.392e-18)
(-6.03413 -11.779 -3.62331e-18)
(-5.67301 -11.2486 2.51688e-19)
(-5.32525 -10.7496 -1.24827e-18)
(-5.00653 -10.2959 -2.26315e-18)
(-4.73693 -9.88956 4.13474e-18)
(-4.58651 -9.49422 9.14397e-19)
(-3.75218 -15.5972 5.18741e-18)
(-6.52577 -13.6359 9.09075e-19)
(-6.04452 -13.3671 2.90733e-18)
(-5.47375 -12.9274 -1.38209e-19)
(-5.11037 -12.363 2.78641e-18)
(-4.78225 -11.7968 1.18488e-18)
(-4.46833 -11.266 2.35653e-18)
(-4.18566 -10.7825 -2.13153e-18)
(-3.95044 -10.3455 -1.13171e-19)
(-3.81016 -9.92889 -1.32857e-18)
(-2.51407 -15.9122 3.54306e-18)
(-5.46249 -14.261 -3.0487e-18)
(-5.0091 -13.9735 -4.83458e-19)
(-4.46783 -13.4829 -7.58812e-19)
(-4.14065 -12.8802 -7.38609e-19)
(-3.84932 -12.2821 -8.08252e-19)
(-3.57014 -11.7272 1.16192e-18)
(-3.31812 -11.2298 -1.26595e-18)
(-3.10043 -10.7937 1.10364e-18)
(-2.94946 -10.4001 6.9506e-20)
(-1.251 -16.1424 -6.24939e-18)
(-4.34621 -14.813 -2.14104e-18)
(-3.92213 -14.5048 3.46112e-18)
(-3.41684 -13.9633 -1.04553e-18)
(-3.13189 -13.3239 1.27803e-18)
(-2.88371 -12.6957 -3.26423e-18)
(-2.64719 -12.1152 2.27333e-18)
(-2.43635 -11.5949 -7.08977e-19)
(-2.25215 -11.1353 1.01839e-18)
(-2.1148 -10.7189 -1.03355e-18)
(0.0314664 -16.2844 2.87954e-18)
(-3.18112 -15.285 -8.78227e-19)
(-2.78892 -14.9542 -1.13918e-18)
(-2.32666 -14.3626 -4.18892e-19)
(-2.08926 -13.6898 2.57895e-19)
(-1.88749 -13.0364 5.30912e-19)
(-1.69377 -12.4381 -9.57421e-19)
(-1.51909 -11.9079 5.55857e-19)
(-1.35789 -11.4469 1.33243e-18)
(-1.22664 -11.0409 -1.03504e-18)
(1.32752 -16.3349 2.19594e-18)
(-1.97279 -15.6701 -3.6502e-20)
(-1.61593 -15.3153 1.74712e-18)
(-1.20452 -14.6751 -1.34682e-18)
(-1.02083 -13.9722 3.58976e-19)
(-0.870866 -13.2969 -3.67717e-19)
(-0.725681 -12.6821 -1.57419e-19)
(-0.593808 -12.1392 -7.8383e-19)
(-0.465388 -11.6667 7.83403e-19)
(-0.358663 -11.2499 5.54102e-19)
(2.63038 -16.2886 -4.21585e-19)
(-0.727893 -15.9608 -2.74343e-19)
(-0.410281 -15.5818 -1.88977e-19)
(-0.0574246 -14.8961 -5.83131e-19)
(0.0674098 -14.1678 5.18022e-19)
(0.162503 -13.4763 1.35298e-19)
(0.258103 -12.8519 -3.14089e-19)
(0.348684 -12.3055 2.44368e-20)
(0.446903 -11.8357 -1.2751e-19)
(0.526892 -11.432 3.4733e-21)
(0.981961 -10.3024 -1.08231e-20)
(0.303676 -7.58442 -2.00626e-21)
(0.13309 -5.41994 5.73727e-21)
(0.393307 -4.07585 -2.18294e-21)
(0.443816 -2.92088 -6.45851e-23)
(0.476504 -2.06241 -3.64599e-22)
(0.502583 -1.44291 6.6154e-23)
(0.51433 -0.986565 -5.24039e-23)
(0.521203 -0.648484 3.12529e-23)
(0.522862 -0.393217 1.69051e-23)
(0.523399 -0.195342 -5.27692e-23)
(0.522786 -0.0500111 1.41997e-23)
(0.535988 0.0341491 -1.30984e-23)
(0.553349 0.040595 -8.24516e-24)
(0.580007 0.00888497 1.00581e-24)
(0.573911 -0.0570908 8.82368e-24)
(0.542727 -0.0722229 -3.44393e-24)
(0.480232 -0.114346 -2.02384e-24)
(0.331887 0.0235747 -1.96575e-23)
(0.339726 0.201915 -4.35295e-23)
(1.72112 -10.4114 7.50588e-20)
(0.815664 -7.72967 1.59407e-20)
(0.389205 -5.50436 -1.13458e-20)
(0.514129 -4.11355 2.26682e-21)
(0.527213 -2.95894 -3.03433e-21)
(0.522505 -2.08093 -3.86206e-22)
(0.523024 -1.45197 -1.3051e-22)
(0.519674 -0.991633 -1.0809e-22)
(0.516973 -0.65133 5.21666e-23)
(0.512543 -0.394866 1.37605e-23)
(0.509594 -0.196488 9.7201e-24)
(0.507728 -0.0515162 1.21219e-22)
(0.520531 0.0318701 -1.04217e-22)
(0.537596 0.0382745 5.70992e-25)
(0.561572 0.0078601 -3.41182e-24)
(0.553787 -0.055063 -1.17355e-23)
(0.519569 -0.0681842 2.80018e-23)
(0.459403 -0.106239 8.5169e-24)
(0.310834 0.0287824 4.32997e-23)
(0.332013 0.201359 9.84609e-23)
(2.4172 -10.3793 -1.41245e-19)
(1.32308 -7.81003 6.32902e-20)
(0.663795 -5.59058 5.39086e-20)
(0.645288 -4.1611 -1.40817e-20)
(0.614349 -3.00139 6.90357e-22)
(0.573038 -2.10529 -2.40327e-21)
(0.546002 -1.46463 -1.57055e-22)
(0.526586 -0.999195 -2.73698e-22)
(0.514058 -0.655965 -7.20856e-23)
(0.503431 -0.397813 -7.39127e-23)
(0.496904 -0.198601 -2.39348e-23)
(0.493708 -0.0536375 1.24623e-23)
(0.505937 0.0294162 9.51613e-23)
(0.522495 0.0361808 -2.60168e-23)
(0.543909 0.00722679 3.23894e-23)
(0.534715 -0.0527405 -2.67471e-23)
(0.498113 -0.0640905 1.6744e-24)
(0.440543 -0.098316 -7.95874e-24)
(0.292729 0.0333945 -1.33967e-22)
(0.326326 0.200308 1.43849e-22)
(3.15096 -10.3715 -4.14164e-20)
(1.85695 -7.88701 1.03311e-19)
(0.965101 -5.66538 -4.06223e-20)
(0.789908 -4.20141 -7.23183e-21)
(0.705854 -3.0394 4.41142e-21)
(0.628023 -2.13194 -2.10345e-22)
(0.5719 -1.48017 6.71274e-22)
(0.535269 -1.00911 -8.1503e-23)
(0.512575 -0.662378 2.81034e-22)
(0.495602 -0.402053 1.84463e-22)
(0.485366 -0.201666 -4.01854e-22)
(0.480723 -0.0563477 6.17689e-23)
(0.492199 0.0268155 6.24983e-24)
(0.508075 0.0343106 5.15493e-23)
(0.527071 0.00694402 -1.22306e-23)
(0.516739 -0.050191 2.04436e-23)
(0.478347 -0.0600037 1.46433e-23)
(0.423579 -0.0906399 -1.96314e-23)
(0.2774 0.0374081 1.87704e-22)
(0.32244 0.198799 -3.06729e-22)
(3.8538 -10.269 1.50818e-20)
(2.39806 -7.88195 1.35858e-20)
(1.28832 -5.68424 5.55549e-21)
(0.945865 -4.21314 1.57685e-20)
(0.799358 -3.06514 5.66376e-21)
(0.685863 -2.15796 3.69852e-21)
(0.600555 -1.49783 -1.24742e-21)
(0.545813 -1.02111 2.54743e-22)
(0.512599 -0.670479 1.55071e-22)
(0.489109 -0.407551 2.31127e-22)
(0.475002 -0.205652 -6.24459e-23)
(0.468767 -0.0596166 -2.9638e-22)
(0.47931 0.0240894 4.31379e-23)
(0.494364 0.0326527 1.05254e-22)
(0.511102 0.00696791 -2.6432e-23)
(0.499888 -0.047478 1.83557e-23)
(0.460234 -0.0559786 -7.25926e-23)
(0.408414 -0.0832648 1.35377e-24)
(0.264654 0.0408292 5.85627e-23)
(0.320139 0.196873 -2.31817e-23)
(4.57336 -10.1179 -3.58299e-19)
(2.96108 -7.79615 -4.79387e-20)
(1.62879 -5.65089 2.23226e-20)
(1.10745 -4.2113 -4.18325e-20)
(0.891053 -3.09193 -1.46013e-20)
(0.744517 -2.18889 -1.10164e-20)
(0.631603 -1.51898 1.65754e-21)
(0.55824 -1.03526 2.9448e-22)
(0.514159 -0.680181 -5.11536e-22)
(0.483977 -0.414236 -2.07432e-22)
(0.465819 -0.210499 -9.83678e-23)
(0.457829 -0.0633966 3.39968e-22)
(0.46727 0.0212631 -8.32262e-23)
(0.481392 0.0311954 -2.5075e-23)
(0.496041 0.0072559 1.14843e-23)
(0.484176 -0.0446588 -3.23871e-23)
(0.443722 -0.0520619 1.78256e-24)
(0.394937 -0.0762354 -4.64237e-24)
(0.254285 0.0436722 -1.38346e-22)
(0.319218 0.194575 1.02936e-22)
(5.27603 -9.85176 3.64337e-19)
(3.52346 -7.69926 1.10417e-19)
(1.97755 -5.67241 -1.21097e-22)
(1.2738 -4.27318 5.23615e-20)
(0.982457 -3.16316 -1.51203e-20)
(0.805176 -2.24263 1.74503e-21)
(0.665837 -1.54925 4.39518e-21)
(0.572849 -1.05305 -6.94052e-22)
(0.51731 -0.691851 -1.41606e-21)
(0.480213 -0.422186 8.42182e-23)