/*--------------------------------*- C++ -*----------------------------------*\
  =========                 |
  \\      /  F ield         | OpenFOAM: The Open Source CFD Toolbox
   \\    /   O peration     | Website:  https://openfoam.org
    \\  /    A nd           | Version:  6.0
     \\/     M anipulation  |
\*---------------------------------------------------------------------------*/
FoamFile
{
    version     2.0;
    format      ascii;
    class       volScalarField;
    location    "4.249";
    object      p;
}
// * * * * * * * * * * * * * * * * * * * * * * * * * * * * * * * * * * * * * //

dimensions      [0 2 -2 0 0 0 0];

internalField   nonuniform List<scalar> 
19200
(
-8.95335
-8.05505
-7.41409
-6.89492
-6.42557
-6.00337
-5.62257
-5.27581
-4.95786
-4.66484
-4.39371
-4.142
-3.90773
-3.68925
-3.48517
-3.29432
-3.11566
-2.94829
-2.7914
-2.64428
-2.50626
-2.37674
-2.25518
-2.14108
-2.03398
-1.93343
-1.83906
-1.75045
-1.66714
-1.58933
-9.08181
-8.18377
-7.54139
-7.01956
-6.5469
-6.12099
-5.73621
-5.38536
-5.06326
-4.76612
-4.49093
-4.23528
-3.99719
-3.77505
-3.56748
-3.3733
-3.19148
-3.02112
-2.86142
-2.71163
-2.5711
-2.43922
-2.31544
-2.19925
-2.09018
-1.98778
-1.89167
-1.80138
-1.7164
-1.6374
-9.21295
-8.31362
-7.66927
-7.14462
-6.66856
-6.23886
-5.85005
-5.49504
-5.16874
-4.86743
-4.58814
-4.32851
-4.08658
-3.86075
-3.64966
-3.45213
-3.26714
-3.09379
-2.93126
-2.77882
-2.63579
-2.50155
-2.37556
-2.25728
-2.14625
-2.04201
-1.94416
-1.85219
-1.76555
-1.68538
-9.34518
-8.44426
-7.79768
-7.27009
-6.79052
-6.35694
-5.96403
-5.6048
-5.27424
-4.96871
-4.68528
-4.42163
-4.17582
-3.94628
-3.73165
-3.53077
-3.3426
-3.16626
-3.0009
-2.8458
-2.70027
-2.56369
-2.43549
-2.31514
-2.20215
-2.09608
-1.99652
-1.90288
-1.81459
-1.73327
-9.4782
-8.57555
-7.92656
-7.39589
-6.91271
-6.47518
-6.07809
-5.71457
-5.37971
-5.0699
-4.7823
-4.51458
-4.26487
-4.0316
-3.81341
-3.60916
-3.41782
-3.23847
-3.0703
-2.91255
-2.76453
-2.62562
-2.49522
-2.37281
-2.25788
-2.15
-2.04872
-1.95343
-1.86349
-1.78107
-9.6118
-8.70735
-8.05582
-7.52196
-7.03509
-6.59351
-6.19218
-5.82431
-5.48508
-5.17095
-4.87912
-4.60732
-4.35368
-4.11665
-3.8949
-3.68727
-3.49275
-3.31041
-3.13942
-2.97903
-2.82854
-2.6873
-2.55473
-2.43027
-2.31342
-2.20373
-2.10076
-2.00383
-1.91226
-1.82876
-9.74583
-8.83953
-8.18538
-7.64824
-7.15758
-6.71188
-6.30623
-5.93394
-5.59029
-5.2718
-4.97571
-4.69978
-4.44219
-4.20139
-3.97607
-3.76506
-3.56735
-3.38202
-3.20823
-3.04521
-2.89226
-2.74873
-2.61399
-2.48751
-2.36876
-2.25728
-2.15264
-2.05408
-1.9609
-1.87634
-9.88017
-8.97199
-8.31514
-7.77463
-7.28011
-6.83022
-6.42018
-6.04342
-5.69529
-5.37238
-5.07199
-4.79192
-4.53035
-4.28577
-4.05685
-3.84247
-3.64158
-3.45326
-3.27668
-3.11106
-2.95567
-2.80985
-2.67298
-2.54449
-2.42385
-2.31062
-2.20432
-2.10416
-2.00938
-1.92381
-10.0147
-9.10462
-8.44502
-7.90107
-7.4026
-6.94844
-6.53395
-6.15266
-5.8
-5.47264
-5.16791
-4.88366
-4.6181
-4.36972
-4.13722
-3.91945
-3.71539
-3.5241
-3.34474
-3.17653
-3.01872
-2.87063
-2.73165
-2.60118
-2.47869
-2.36372
-2.25579
-2.15404
-2.0577
-1.97115
-10.1494
-9.23733
-8.57492
-8.02746
-7.52498
-7.06649
-6.64747
-6.26159
-5.90436
-5.5725
-5.26341
-4.97495
-4.70538
-4.45319
-4.21709
-3.99595
-3.78873
-3.59449
-3.41237
-3.24158
-3.08137
-2.93106
-2.78999
-2.65757
-2.53325
-2.41656
-2.30703
-2.20372
-2.10583
-2.01834
-10.284
-9.37003
-8.70475
-8.15373
-7.64717
-7.18427
-6.76068
-6.37015
-6.00829
-5.67189
-5.3584
-5.06572
-4.79212
-4.53612
-4.29643
-4.07192
-3.86154
-3.66436
-3.47951
-3.30617
-3.1436
-2.99108
-2.84796
-2.71362
-2.5875
-2.46912
-2.35801
-2.25317
-2.15375
-2.06537
-10.4186
-9.50262
-8.83443
-8.27978
-7.76907
-7.30171
-6.87347
-6.47824
-6.11171
-5.77074
-5.45282
-5.1559
-4.87826
-4.61844
-4.37517
-4.14729
-3.93378
-3.73368
-3.54611
-3.37025
-3.20534
-3.05064
-2.9055
-2.76928
-2.6414
-2.52137
-2.4087
-2.30236
-2.20144
-2.1122
-10.5531
-9.63502
-8.96387
-8.40552
-7.89061
-7.41872
-6.98578
-6.5858
-6.21455
-5.86897
-5.5466
-5.24542
-4.96373
-4.7001
-4.45324
-4.22201
-4.00538
-3.80238
-3.61213
-3.43377
-3.26655
-3.10971
-2.96258
-2.82451
-2.6949
-2.57326
-2.45907
-2.35125
-2.24887
-2.15881
-10.6872
-9.76713
-9.09298
-8.53088
-8.0117
-7.53522
-7.09753
-6.69274
-6.31674
-5.96652
-5.63967
-5.33421
-5.04847
-4.78102
-4.53058
-4.29602
-4.07629
-3.87041
-3.67749
-3.49668
-3.32717
-3.16823
-3.01914
-2.87926
-2.74796
-2.62474
-2.50908
-2.39981
-2.29598
-2.20515
-10.821
-9.89886
-9.22166
-8.65576
-8.13225
-7.65112
-7.20861
-6.79898
-6.41818
-6.06329
-5.73194
-5.42219
-5.13239
-4.86113
-4.60712
-4.36924
-4.14643
-3.9377
-3.74214
-3.5589
-3.38715
-3.22613
-3.07513
-2.93347
-2.80052
-2.67577
-2.55867
-2.44797
-2.34274
-2.25118
-10.9544
-10.0301
-9.34983
-8.78007
-8.25217
-7.76632
-7.31896
-6.90443
-6.5188
-6.1592
-5.82334
-5.50929
-5.21544
-4.94036
-4.6828
-4.44161
-4.21574
-4.00418
-3.80602
-3.62037
-3.44641
-3.28336
-3.13048
-2.98708
-2.85252
-2.72627
-2.60778
-2.49571
-2.38909
-2.29684
-11.0872
-10.1608
-9.47741
-8.90372
-8.37136
-7.88075
-7.42847
-7.009
-6.6185
-6.25419
-5.91379
-5.59544
-5.29752
-5.01864
-4.75754
-4.51306
-4.28415
-4.06979
-3.86905
-3.68103
-3.50489
-3.33984
-3.18512
-3.04002
-2.9039
-2.7762
-2.65635
-2.54296
-2.435
-2.3421
-11.2194
-10.2909
-9.60429
-9.02662
-8.48975
-7.99431
-7.53706
-7.11261
-6.71722
-6.34815
-6.00321
-5.68054
-5.37857
-5.0959
-4.83127
-4.58352
-4.35159
-4.13446
-3.93116
-3.74081
-3.56252
-3.3955
-3.23897
-3.09221
-2.95455
-2.82544
-2.70429
-2.58961
-2.48036
-2.38688
-11.351
-10.4203
-9.73039
-9.14868
-8.60723
-8.10691
-7.64464
-7.21517
-6.81485
-6.44102
-6.09152
-5.76454
-5.45851
-5.17205
-4.90391
-4.65292
-4.41799
-4.19811
-3.99229
-3.79961
-3.61921
-3.45025
-3.29195
-3.14356
-3.0044
-2.87392
-2.75149
-2.63557
-2.52506
-2.43104
-11.4817
-10.5488
-9.85563
-9.2698
-8.72371
-8.21845
-7.75112
-7.31659
-6.91131
-6.53269
-6.17863
-5.84734
-5.53727
-5.24704
-4.9754
-4.72118
-4.48328
-4.26067
-4.05235
-3.85738
-3.67489
-3.50401
-3.34396
-3.19397
-3.05334
-2.9215
-2.79784
-2.68072
-2.56897
-2.47445
-11.6116
-10.6765
-9.97991
-9.3899
-8.83909
-8.32883
-7.85639
-7.41677
-7.00651
-6.6231
-6.26448
-5.92888
-5.61477
-5.32079
-5.04568
-4.78825
-4.5474
-4.32207
-4.11127
-3.91404
-3.72947
-3.55669
-3.39491
-3.24333
-3.10124
-2.96808
-2.8432
-2.72489
-2.61193
-2.51695
-11.7406
-10.8032
-10.1032
-9.50888
-8.95328
-8.43796
-7.96036
-7.51562
-7.10037
-6.71216
-6.34897
-6.00908
-5.69095
-5.39324
-5.11467
-4.85406
-4.61028
-4.38227
-4.169
-3.96951
-3.78288
-3.60821
-3.4447
-3.29153
-3.148
-3.01351
-2.88742
-2.76794
-2.65375
-2.5583
-11.8688
-10.9288
-10.2253
-9.62664
-9.06617
-8.54573
-8.06293
-7.61305
-7.19279
-6.79978
-6.43204
-6.08786
-5.76574
-5.46432
-5.18232
-4.91855
-4.67187
-4.44119
-4.22548
-4.02375
-3.83505
-3.6585
-3.49324
-3.33848
-3.19348
-3.05765
-2.93033
-2.80965
-2.69419
-2.59825
-11.996
-11.0535
-10.3462
-9.74306
-9.17765
-8.65203
-8.164
-7.70895
-7.28368
-6.88588
-6.5136
-6.16516
-5.83908
-5.53398
-5.24858
-4.98168
-4.73212
-4.4988
-4.28066
-4.0767
-3.88594
-3.70749
-3.54048
-3.3841
-3.23759
-3.10036
-2.97176
-2.84981
-2.73298
-2.63649
-12.1223
-11.1769
-10.4658
-9.85804
-9.28758
-8.75673
-8.26345
-7.80322
-7.37295
-6.97037
-6.59358
-6.24092
-5.9109
-5.60216
-5.31341
-5.04342
-4.79102
-4.55509
-4.33454
-4.12835
-3.93554
-3.75518
-3.58638
-3.42832
-3.28023
-3.14152
-3.01153
-2.88819
-2.76982
-2.67263
-12.248
-11.2991
-10.5839
-9.97141
-9.39583
-8.85972
-8.36117
-7.89577
-7.46051
-7.05318
-6.67191
-6.31506
-5.98116
-5.66883
-5.37677
-5.10373
-4.84854
-4.61003
-4.38711
-4.17871
-3.98385
-3.80156
-3.63095
-3.47116
-3.3214
-3.18108
-3.04954
-2.92462
-2.80442
-2.70612
-12.373
-11.42
-10.7003
-10.083
-9.50225
-8.96084
-8.45702
-7.98647
-7.54626
-7.13421
-6.74851
-6.38754
-6.0498
-5.73394
-5.43863
-5.16261
-4.90468
-4.66364
-4.43839
-4.22783
-4.03094
-3.84674
-3.67429
-3.51272
-3.36121
-3.21915
-3.0859
-2.95916
-2.83662
-2.73634
-12.4988
-11.5397
-10.8149
-10.1926
-9.60658
-9.0599
-8.55084
-8.0752
-7.63007
-7.21338
-6.82331
-6.45826
-6.11677
-5.79745
-5.49896
-5.22004
-4.95943
-4.71595
-4.48843
-4.27577
-4.0769
-3.89081
-3.71655
-3.55317
-3.39983
-3.2559
-3.12071
-2.99172
-2.86592
-2.76299
-12.6265
-11.658
-10.927
-10.2996
-9.70854
-9.15668
-8.64248
-8.16181
-7.71185
-7.29057
-6.89621
-6.52717
-6.182
-5.85929
-5.55772
-5.27597
-5.01279
-4.76695
-4.53726
-4.3226
-4.12185
-3.93398
-3.75798
-3.59285
-3.43769
-3.29173
-3.15407
-3.02163
-2.89114
-2.78572
-12.7484
-11.7718
-11.0357
-10.4039
-9.80809
-9.25127
-8.73204
-8.24641
-7.79169
-7.36589
-6.9673
-6.59434
-6.24557
-5.91957
-5.61499
-5.33051
-5.06484
-4.81674
-4.585
-4.36846
-4.166
-3.97655
-3.79907
-3.63255
-3.47603
-3.32857
-3.18872
-3.05335
-2.92065
-2.81133
-14.5823
-14.5829
-14.5756
-14.5652
-14.5509
-14.5321
-14.5087
-14.4805
-14.4476
-14.41
-14.3678
-14.3211
-14.2698
-14.2141
-14.1542
-14.09
-14.0219
-13.9498
-13.8739
-13.7944
-13.7114
-13.625
-13.5354
-13.4428
-13.3473
-13.2491
-13.1486
-13.046
-12.9421
-12.8394
-13.5579
-13.5631
-13.5612
-13.5542
-13.5425
-13.5257
-13.5041
-13.4776
-13.4464
-13.4105
-13.37
-13.325
-13.2755
-13.2216
-13.1636
-13.1014
-13.0352
-12.9651
-12.8913
-12.8139
-12.733
-12.6488
-12.5613
-12.4709
-12.3776
-12.2816
-12.1832
-12.0826
-11.98
-11.876
-12.7354
-12.7435
-12.7454
-12.7417
-12.7328
-12.7189
-12.7
-12.6763
-12.6479
-12.6148
-12.5772
-12.535
-12.4885
-12.4377
-12.3827
-12.3236
-12.2606
-12.1937
-12.1231
-12.049
-11.9714
-11.8904
-11.8063
-11.7192
-11.6292
-11.5364
-11.4411
-11.3433
-11.2432
-11.1407
-11.9959
-12.0064
-12.0112
-12.0106
-12.0049
-11.9941
-11.9784
-11.958
-11.9329
-11.9033
-11.8691
-11.8305
-11.7875
-11.7404
-11.6891
-11.6338
-11.5746
-11.5117
-11.4451
-11.3749
-11.3013
-11.2244
-11.1444
-11.0613
-10.9753
-10.8865
-10.7951
-10.7011
-10.6046
-10.5056
-11.2838
-11.2965
-11.304
-11.3063
-11.3036
-11.296
-11.2836
-11.2666
-11.245
-11.2188
-11.1883
-11.1534
-11.1143
-11.0711
-11.0238
-10.9726
-10.9176
-10.8589
-10.7965
-10.7307
-10.6615
-10.589
-10.5134
-10.4348
-10.3533
-10.269
-10.1819
-10.0923
-10.0001
-9.90548
-10.61
-10.6247
-10.6346
-10.6395
-10.6395
-10.6348
-10.6255
-10.6116
-10.5933
-10.5707
-10.5437
-10.5125
-10.4772
-10.4379
-10.3946
-10.3475
-10.2967
-10.2422
-10.1842
-10.1228
-10.0581
-9.99016
-9.91916
-9.84516
-9.76829
-9.68864
-9.6063
-9.52135
-9.43385
-9.34387
-9.97845
-9.99482
-10.0066
-10.0137
-10.0161
-10.014
-10.0074
-9.99639
-9.98114
-9.96165
-9.93798
-9.91022
-9.87848
-9.84285
-9.8034
-9.76022
-9.71343
-9.6631
-9.60934
-9.55225
-9.49193
-9.42848
-9.362
-9.2926
-9.22036
-9.14539
-9.06776
-8.98756
-8.90485
-8.81971
-9.3885
-9.40615
-9.41944
-9.42826
-9.43263
-9.43263
-9.42835
-9.41988
-9.40729
-9.39061
-9.3699
-9.34525
-9.31676
-9.28451
-9.24857
-9.20904
-9.166
-9.11954
-9.06976
-9.01674
-8.9606
-8.9014
-8.83927
-8.77428
-8.70652
-8.6361
-8.56307
-8.48753
-8.40955
-8.3292
-8.83935
-8.85788
-8.87229
-8.88242
-8.88831
-8.89002
-8.88764
-8.88125
-8.87091
-8.85664
-8.83849
-8.81655
-8.79093
-8.76169
-8.7289
-8.69265
-8.65302
-8.6101
-8.56396
-8.51471
-8.46243
-8.4072
-8.34913
-8.28829
-8.22477
-8.15865
-8.09002
-8.01894
-7.9455
-7.86977
-8.32982
-8.34888
-8.364
-8.37506
-8.38206
-8.38508
-8.38419
-8.37947
-8.37097
-8.35869
-8.34269
-8.32308
-8.29993
-8.2733
-8.24327
-8.20992
-8.17332
-8.13356
-8.09071
-8.04486
-7.99609
-7.9445
-7.89015
-7.83314
-7.77355
-7.71145
-7.64692
-7.58004
-7.51087
-7.43952
-7.85821
-7.87747
-7.89297
-7.9046
-7.91236
-7.91631
-7.91654
-7.91312
-7.90606
-7.89538
-7.88116
-7.86348
-7.84241
-7.81801
-7.79036
-7.75952
-7.72557
-7.68859
-7.64865
-7.60583
-7.56021
-7.51188
-7.46091
-7.40739
-7.35138
-7.29297
-7.23223
-7.16923
-7.10405
-7.03676
-7.42248
-7.44166
-7.45726
-7.46915
-7.47735
-7.48192
-7.48293
-7.48046
-7.4745
-7.46508
-7.45228
-7.43617
-7.41682
-7.39429
-7.36864
-7.33995
-7.30829
-7.27372
-7.23632
-7.19617
-7.15335
-7.10792
-7.05997
-7.00958
-6.95681
-6.90175
-6.84446
-6.78502
-6.72349
-6.65996
-7.02037
-7.03925
-7.05469
-7.0666
-7.07497
-7.07988
-7.0814
-7.07958
-7.07443
-7.06596
-7.05427
-7.03941
-7.02146
-7.00047
-6.97649
-6.94961
-6.91989
-6.88739
-6.85219
-6.81437
-6.77399
-6.73113
-6.68586
-6.63826
-6.58839
-6.53634
-6.48217
-6.42595
-6.36775
-6.30765
-6.64951
-6.66791
-6.68302
-6.69473
-6.70307
-6.70809
-6.70988
-6.70847
-6.70387
-6.69609
-6.68524
-6.67136
-6.65452
-6.63477
-6.61218
-6.5868
-6.55872
-6.52798
-6.49467
-6.45885
-6.4206
-6.37998
-6.33707
-6.29194
-6.24465
-6.19529
-6.14392
-6.09061
-6.03541
-5.97843
-6.30752
-6.32531
-6.33993
-6.3513
-6.35943
-6.36439
-6.36625
-6.36506
-6.3608
-6.3535
-6.34325
-6.33011
-6.31414
-6.29539
-6.27392
-6.24979
-6.22307
-6.19383
-6.16212
-6.12803
-6.09162
-6.05295
-6.0121
-5.96914
-5.92414
-5.87716
-5.82829
-5.77758
-5.7251
-5.67093
-5.99206
-6.00913
-6.02317
-6.03407
-6.04187
-6.04663
-6.04843
-6.04729
-6.0432
-6.03619
-6.02637
-6.01378
-5.99847
-5.9805
-5.95994
-5.93683
-5.91125
-5.88325
-5.85291
-5.8203
-5.78546
-5.74849
-5.70944
-5.66838
-5.62539
-5.58053
-5.53387
-5.48548
-5.43543
-5.3838
-5.70087
-5.71718
-5.73055
-5.74091
-5.74829
-5.75275
-5.75437
-5.75316
-5.74909
-5.74225
-5.7327
-5.72049
-5.70569
-5.68833
-5.66849
-5.64621
-5.62157
-5.59462
-5.56543
-5.53407
-5.5006
-5.46509
-5.4276
-5.38821
-5.34698
-5.30399
-5.2593
-5.21298
-5.1651
-5.11575
-5.43184
-5.44735
-5.46001
-5.46978
-5.47667
-5.48075
-5.48211
-5.48073
-5.4766
-5.46981
-5.46041
-5.44847
-5.43403
-5.41714
-5.39787
-5.37627
-5.3524
-5.32632
-5.29811
-5.26782
-5.23552
-5.20127
-5.16515
-5.12721
-5.08753
-5.04618
-5.00323
-4.95874
-4.9128
-4.86549
-5.18299
-5.19768
-5.20962
-5.21876
-5.22512
-5.22878
-5.22982
-5.2282
-5.22393
-5.21711
-5.20778
-5.196
-5.18182
-5.16529
-5.14646
-5.1254
-5.10217
-5.07683
-5.04944
-5.02006
-4.98877
-4.95562
-4.92068
-4.88402
-4.8457
-4.80579
-4.76437
-4.72151
-4.67728
-4.6318
-4.95249
-4.96636
-4.97757
-4.98607
-4.99188
-4.9951
-4.99577
-4.99387
-4.98942
-4.98251
-4.97318
-4.96149
-4.94748
-4.93121
-4.91274
-4.89212
-4.86941
-4.84468
-4.81799
-4.7894
-4.75897
-4.72677
-4.69286
-4.65731
-4.62019
-4.58155
-4.54148
-4.50006
-4.45736
-4.41351
-4.73866
-4.75173
-4.76222
-4.77008
-4.77535
-4.7781
-4.77838
-4.77618
-4.77152
-4.76447
-4.75509
-4.74343
-4.72953
-4.71346
-4.69526
-4.67499
-4.65272
-4.62851
-4.60241
-4.57449
-4.54482
-4.51344
-4.48044
-4.44587
-4.40979
-4.37228
-4.3334
-4.29324
-4.25189
-4.20949
-4.53998
-4.55228
-4.56206
-4.5693
-4.57402
-4.57631
-4.57621
-4.57368
-4.56878
-4.56157
-4.55211
-4.54044
-4.52661
-4.51067
-4.49269
-4.47271
-4.4508
-4.42703
-4.40144
-4.3741
-4.34508
-4.31443
-4.28222
-4.24852
-4.21337
-4.17684
-4.13902
-4.09997
-4.05979
-4.01866
-4.35508
-4.36663
-4.37574
-4.38238
-4.38657
-4.3884
-4.38791
-4.38506
-4.37991
-4.37252
-4.36295
-4.35124
-4.33745
-4.32161
-4.30379
-4.28405
-4.26245
-4.23904
-4.21389
-4.18706
-4.15861
-4.12861
-4.0971
-4.06416
-4.02983
-3.99418
-3.95728
-3.9192
-3.88003
-3.84002
-4.18271
-4.19355
-4.20202
-4.20807
-4.21175
-4.21315
-4.21228
-4.20911
-4.20371
-4.19614
-4.18645
-4.17469
-4.16089
-4.14513
-4.12744
-4.1079
-4.08655
-4.06347
-4.0387
-4.01231
-3.98437
-3.95492
-3.92404
-3.89178
-3.85819
-3.82332
-3.78723
-3.75
-3.71168
-3.67262
-4.02175
-4.03193
-4.03978
-4.04528
-4.04848
-4.04946
-4.04822
-4.04474
-4.0391
-4.03134
-4.02153
-4.00969
-3.99589
-3.98017
-3.96259
-3.94321
-3.92209
-3.89928
-3.87484
-3.84885
-3.82135
-3.79241
-3.76209
-3.73044
-3.69751
-3.66335
-3.62799
-3.59149
-3.55386
-3.51563
-3.8712
-3.88074
-3.88801
-3.89299
-3.89572
-3.8963
-3.8947
-3.89093
-3.88503
-3.87709
-3.86714
-3.85523
-3.8414
-3.82571
-3.80821
-3.78896
-3.76802
-3.74545
-3.7213
-3.69565
-3.66855
-3.64006
-3.61023
-3.57913
-3.5468
-3.51327
-3.47855
-3.4427
-3.4056
-3.36818
-3.73018
-3.73911
-3.74583
-3.7503
-3.7526
-3.75278
-3.75084
-3.74676
-3.74062
-3.73248
-3.72239
-3.71037
-3.69649
-3.6808
-3.66335
-3.64419
-3.62339
-3.601
-3.57709
-3.55172
-3.52494
-3.49683
-3.46743
-3.4368
-3.40499
-3.372
-3.33785
-3.30254
-3.26573
-3.22917
-3.59786
-3.6063
-3.61256
-3.61663
-3.61856
-3.61844
-3.61621
-3.6119
-3.60558
-3.5973
-3.5871
-3.57503
-3.56113
-3.54546
-3.52807
-3.50902
-3.48837
-3.46617
-3.44249
-3.41738
-3.39092
-3.36316
-3.33417
-3.30399
-3.27268
-3.24023
-3.20663
-3.17181
-3.13507
-3.09915
-3.47341
-3.48152
-3.48751
-3.49134
-3.49311
-3.49284
-3.49051
-3.48615
-3.47984
-3.4716
-3.4615
-3.44956
-3.43585
-3.42041
-3.4033
-3.38457
-3.36428
-3.3425
-3.31929
-3.2947
-3.26881
-3.24167
-3.21336
-3.18393
-3.15343
-3.12187
-3.08922
-3.05531
-3.01907
-2.98443
-3.35615
-3.36333
-3.36846
-3.37153
-3.3726
-3.37169
-3.36882
-3.36399
-3.35728
-3.34873
-3.33837
-3.32627
-3.31245
-3.29699
-3.27992
-3.26131
-3.24121
-3.21969
-3.19681
-3.17263
-3.14721
-3.12064
-3.09296
-3.06426
-3.0346
-3.00402
-2.97255
-2.93992
-2.9052
-2.87743
-12.0007
-12.1442
-12.2802
-12.4168
-12.5526
-12.686
-12.8165
-12.9436
-13.0672
-13.1869
-13.3025
-13.4138
-13.5206
-13.6227
-13.7201
-13.8125
-13.8999
-13.9823
-14.0594
-14.1312
-14.1978
-14.2589
-14.3146
-14.365
-14.4098
-14.4494
-14.4836
-14.5127
-14.537
-14.5581
-10.9815
-11.1291
-11.2708
-11.4099
-11.5462
-11.6794
-11.8092
-11.9355
-12.0581
-12.1769
-12.2915
-12.4019
-12.5078
-12.6092
-12.706
-12.7978
-12.8848
-12.9668
-13.0436
-13.1153
-13.1818
-13.2429
-13.2988
-13.3493
-13.3945
-13.4344
-13.469
-13.4985
-13.5229
-13.5424
-10.1596
-10.3068
-10.4495
-10.5885
-10.7242
-10.8566
-10.9855
-11.1108
-11.2325
-11.3503
-11.4641
-11.5738
-11.6791
-11.78
-11.8764
-11.968
-12.0549
-12.1369
-12.214
-12.286
-12.3529
-12.4146
-12.4712
-12.5225
-12.5686
-12.6095
-12.6452
-12.6757
-12.7009
-12.7208
-9.4268
-9.57145
-9.71249
-9.85
-9.98416
-10.115
-10.2424
-10.3664
-10.4867
-10.6033
-10.716
-10.8247
-10.9292
-11.0294
-11.1252
-11.2165
-11.3032
-11.3852
-11.4623
-11.5346
-11.602
-11.6644
-11.7217
-11.774
-11.8212
-11.8632
-11.9002
-11.9319
-11.9585
-11.9799
-8.73265
-8.87387
-9.01215
-9.1472
-9.27905
-9.40769
-9.53306
-9.65505
-9.77354
-9.88841
-9.99953
-10.1068
-10.21
-10.3091
-10.404
-10.4946
-10.5807
-10.6623
-10.7393
-10.8116
-10.8791
-10.9419
-10.9997
-11.0527
-11.1008
-11.1439
-11.182
-11.2151
-11.2431
-11.2661
-8.08892
-8.22629
-8.36113
-8.49303
-8.62192
-8.74777
-8.87049
-8.98998
-9.10612
-9.21879
-9.32787
-9.43324
-9.53479
-9.63239
-9.72595
-9.81535
-9.90051
-9.98133
-10.0577
-10.1297
-10.197
-10.2598
-10.3178
-10.3712
-10.4198
-10.4637
-10.5027
-10.5369
-10.5662
-10.5906
-7.49896
-7.63219
-7.76317
-7.89143
-8.01689
-8.13948
-8.25912
-8.37568
-8.48905
-8.59911
-8.70575
-8.80885
-8.9083
-9.00399
-9.09581
-9.18367
-9.26747
-9.34712
-9.42256
-9.49369
-9.56048
-9.62284
-9.68074
-9.73412
-9.78295
-9.8272
-9.86682
-9.90179
-9.93208
-9.95768
-6.96072
-7.08962
-7.21647
-7.34081
-7.46253
-7.58156
-7.69779
-7.81111
-7.9214
-8.02853
-8.13241
-8.23291
-8.32993
-8.42336
-8.51311
-8.59907
-8.68115
-8.75928
-8.83338
-8.90337
-8.9692
-9.03081
-9.08815
-9.14116
-9.18982
-9.23409
-9.27394
-9.30933
-9.34025
-9.36668
-6.47141
-6.59593
-6.71853
-6.83879
-6.9566
-7.07187
-7.1845
-7.29437
-7.40135
-7.50534
-7.60622
-7.70389
-7.79823
-7.88914
-7.97654
-8.06032
-8.1404
-8.21671
-8.28916
-8.35769
-8.42225
-8.48276
-8.5392
-8.59151
-8.63965
-8.68359
-8.7233
-8.75876
-8.78994
-8.81686
-6.02781
-6.14793
-6.26626
-6.3824
-6.49623
-6.60766
-6.71659
-6.82289
-6.92646
-7.02716
-7.1249
-7.21957
-7.31106
-7.39928
-7.48413
-7.56553
-7.64339
-7.71764
-7.7882
-7.85502
-7.91803
-7.97719
-8.03243
-8.08374
-8.13105
-8.17436
-8.21362
-8.24882
-8.27994
-8.307
-5.62623
-5.74204
-5.85615
-5.96819
-6.07805
-6.18564
-6.29085
-6.39357
-6.49366
-6.59103
-6.68555
-6.77714
-6.86569
-6.9511
-7.03328
-7.11216
-7.18765
-7.25968
-7.32818
-7.39309
-7.45436
-7.51194
-7.56577
-7.61583
-7.66209
-7.7045
-7.74304
-7.77771
-7.80848
-7.83537
-5.2629
-5.37452
-5.48451
-5.59254
-5.6985
-5.80231
-5.90385
-6.003
-6.09964
-6.19367
-6.28498
-6.37346
-6.45903
-6.54158
-6.62104
-6.69732
-6.77035
-6.84005
-6.90638
-6.96926
-7.02864
-7.08449
-7.13675
-7.18539
-7.23038
-7.2717
-7.30932
-7.34323
-7.37341
-7.39988
-4.9341
-5.04167
-5.14768
-5.25182
-5.35401
-5.45413
-5.55208
-5.64775
-5.74101
-5.83175
-5.91988
-6.00529
-6.08789
-6.16759
-6.24431
-6.31797
-6.3885
-6.45583
-6.51992
-6.58069
-6.6381
-6.69212
-6.74269
-6.78979
-6.83338
-6.87346
-6.90999
-6.94296
-6.97236
-6.99823
-4.63628
-4.73997
-4.84216
-4.94258
-5.04112
-5.13769
-5.23218
-5.32447
-5.41445
-5.502
-5.58702
-5.66942
-5.7491
-5.82599
-5.9
-5.97105
-6.03909
-6.10405
-6.16587
-6.2245
-6.2799
-6.33203
-6.38085
-6.42632
-6.46844
-6.50716
-6.54248
-6.5744
-6.60289
-6.62798
-4.36614
-4.46612
-4.56467
-4.66153
-4.75659
-4.84977
-4.94094
-5.02999
-5.1168
-5.20126
-5.28328
-5.36276
-5.43962
-5.51376
-5.58511
-5.65361
-5.71919
-5.7818
-5.84138
-5.89788
-5.95126
-6.00148
-6.04851
-6.09233
-6.1329
-6.17022
-6.20426
-6.23503
-6.26251
-6.28672
-4.12065
-4.21712
-4.3122
-4.40567
-4.49743
-4.58737
-4.67538
-4.76133
-4.84512
-4.92663
-5.00577
-5.08244
-5.15655
-5.22804
-5.29682
-5.36284
-5.42602
-5.48633
-5.5437
-5.5981
-5.64948
-5.69781
-5.74306
-5.78521
-5.82423
-5.86011
-5.89284
-5.9224
-5.94881
-5.97208
-3.8971
-3.99021
-4.08201
-4.17227
-4.2609
-4.34778
-4.43279
-4.51581
-4.59672
-4.67541
-4.75179
-4.82576
-4.89725
-4.96619
-5.03249
-5.09611
-5.15698
-5.21505
-5.27029
-5.32263
-5.37206
-5.41853
-5.46203
-5.50252
-5.54
-5.57444
-5.60584
-5.63419
-5.65948
-5.68176
-3.69301
-3.78295
-3.87164
-3.95888
-4.04455
-4.12855
-4.21072
-4.29096
-4.36913
-4.44515
-4.5189
-4.59031
-4.65929
-4.72578
-4.78971
-4.85103
-4.90967
-4.96559
-5.01876
-5.06912
-5.11665
-5.16133
-5.20311
-5.24199
-5.27794
-5.31096
-5.34104
-5.36817
-5.39236
-5.41363
-3.50622
-3.59312
-3.67888
-3.76328
-3.84619
-3.92746
-4.00697
-4.08457
-4.16017
-4.23364
-4.3049
-4.37387
-4.44047
-4.50463
-4.56629
-4.6254
-4.68191
-4.73578
-4.78696
-4.83542
-4.88112
-4.92405
-4.96419
-5.0015
-5.03598
-5.06761
-5.0964
-5.12233
-5.14542
-5.16567
-3.33476
-3.41879
-3.5018
-3.58353
-3.66384
-3.74257
-3.81957
-3.8947
-3.96785
-4.03892
-4.10782
-4.17447
-4.2388
-4.30074
-4.36024
-4.41726
-4.47173
-4.52363
-4.57292
-4.61956
-4.66352
-4.70478
-4.74332
-4.77913
-4.81218
-4.84248
-4.87002
-4.89478
-4.91679
-4.93606
-3.17693
-3.25822
-3.33865
-3.4179
-3.49579
-3.57214
-3.64678
-3.71959
-3.79044
-3.85923
-3.92589
-3.99034
-4.05252
-4.11236
-4.16981
-4.22483
-4.27737
-4.3274
-4.37488
-4.41979
-4.46208
-4.50176
-4.53878
-4.57315
-4.60484
-4.63385
-4.66018
-4.68383
-4.70479
-4.7231
-3.03117
-3.10986
-3.18791
-3.26487
-3.34051
-3.41464
-3.48708
-3.55769
-3.62637
-3.69302
-3.75756
-3.81993
-3.88006
-3.9379
-3.99341
-4.04654
-4.09725
-4.1455
-4.19127
-4.23452
-4.27524
-4.3134
-4.34898
-4.38198
-4.41237
-4.44016
-4.46534
-4.48791
-4.50788
-4.52527
-2.8961
-2.97234
-3.04822
-3.12309
-3.19666
-3.26872
-3.3391
-3.40766
-3.47428
-3.53889
-3.60143
-3.66182
-3.72002
-3.77597
-3.82964
-3.88097
-3.92994
-3.97652
-4.02067
-4.06236
-4.10158
-4.13831
-4.17252
-4.20422
-4.23338
-4.26001
-4.28409
-4.30564
-4.32466
-4.34117
-2.77043
-2.84438
-2.91839
-2.99138
-3.06304
-3.1332
-3.20164
-3.26825
-3.33294
-3.39563
-3.45627
-3.51479
-3.57116
-3.62532
-3.67724
-3.72688
-3.77421
-3.81919
-3.86181
-3.90203
-3.93984
-3.97521
-4.00814
-4.0386
-4.0666
-4.09213
-4.11519
-4.13577
-4.15388
-4.16956
-2.653
-2.7249
-2.79739
-2.86872
-2.93866
-3.00705
-3.07368
-3.13846
-3.20131
-3.26218
-3.32102
-3.37777
-3.4324
-3.48486
-3.53513
-3.58317
-3.62895
-3.67243
-3.7136
-3.75243
-3.7889
-3.823
-3.85471
-3.88402
-3.91092
-3.93542
-3.9575
-3.97717
-3.99443
-4.00932
-2.54273
-2.61316
-2.6846
-2.7545
-2.82287
-2.8896
-2.95452
-3.01755
-3.07865
-3.13778
-3.19489
-3.24996
-3.30293
-3.35378
-3.40248
-3.44899
-3.49329
-3.53535
-3.57515
-3.61266
-3.64787
-3.68075
-3.71131
-3.73952
-3.76539
-3.7889
-3.81006
-3.82886
-3.84532
-3.85945
-2.43786
-2.50815
-2.57927
-2.64792
-2.71483
-2.78001
-2.84329
-2.90464
-2.96406
-3.02152
-3.07699
-3.13044
-3.18184
-3.23116
-3.27837
-3.32343
-3.36634
-3.40705
-3.44554
-3.48181
-3.51582
-3.54757
-3.57704
-3.60422
-3.6291
-3.65169
-3.67198
-3.68996
-3.70566
-3.71908
-2.33384
-2.40569
-2.47786
-2.54564
-2.6113
-2.67511
-2.73691
-2.79675
-2.85467
-2.91064
-2.96465
-3.01667
-3.06668
-3.11464
-3.16054
-3.20435
-3.24603
-3.28557
-3.32294
-3.35812
-3.39111
-3.42187
-3.45041
-3.47671
-3.50076
-3.52256
-3.54212
-3.55942
-3.57447
-3.58731
-2.22695
-2.30208
-2.37713
-2.4449
-2.50977
-2.57253
-2.63317
-2.6918
-2.7485
-2.80327
-2.8561
-2.90696
-2.95583
-3.00269
-3.04751
-3.09028
-3.13096
-3.16954
-3.20599
-3.2403
-3.27245
-3.30243
-3.33023
-3.35583
-3.37923
-3.40043
-3.41942
-3.43621
-3.45081
-3.46322
-2.14623
-2.22925
-2.30511
-2.37201
-2.43544
-2.49637
-2.55509
-2.6118
-2.66655
-2.71937
-2.77024
-2.81915
-2.86609
-2.91103
-2.95396
-2.99486
-3.03371
-3.07049
-3.10519
-3.1378
-3.16829
-3.19667
-3.22292
-3.24704
-3.26903
-3.28887
-3.30658
-3.32216
-3.33561
-3.34695
-0.108238
-0.142739
-0.180263
-0.220996
-0.26543
-0.314054
-0.367391
-0.426054
-0.490755
-0.562322
-0.641715
-0.730047
-0.828612
-0.938916
-1.0627
-1.20199
-1.35913
-1.53681
-1.73814
-1.96665
-2.22636
-2.52176
-2.85782
-3.23983
-3.67359
-4.16532
-4.71727
-5.32472
-6.04374
-6.98449
-0.17176
-0.20821
-0.246991
-0.289156
-0.335181
-0.385478
-0.440573
-0.501091
-0.567755
-0.641404
-0.723007
-0.813692
-0.914768
-1.02775
-1.15441
-1.29679
-1.45723
-1.63847
-1.84361
-2.07622
-2.34032
-2.64039
-2.98137
-3.36854
-3.80758
-4.30461
-4.86168
-5.4736
-6.19533
-7.13495
-0.236169
-0.274614
-0.314683
-0.358314
-0.40597
-0.457983
-0.514878
-0.577296
-0.645973
-0.721754
-0.805621
-0.898716
-1.00236
-1.11809
-1.24769
-1.39321
-1.55703
-1.7419
-1.95093
-2.18772
-2.45626
-2.76107
-3.10705
-3.4994
-3.94373
-4.44597
-5.00792
-5.62393
-6.34766
-7.28539
-0.301405
-0.341889
-0.383273
-0.428403
-0.477727
-0.531495
-0.59023
-0.654591
-0.725323
-0.803281
-0.88946
-0.985013
-1.09128
-1.20981
-1.34239
-1.49112
-1.65837
-1.84692
-2.05991
-2.30092
-2.57397
-2.88356
-3.23456
-3.63211
-4.08173
-4.58916
-5.15594
-5.77605
-6.50244
-7.44031
-0.367423
-0.409985
-0.45271
-0.499373
-0.550403
-0.605964
-0.666579
-0.732924
-0.805753
-0.885933
-0.97447
-1.07253
-1.18146
-1.30284
-1.43847
-1.59045
-1.76119
-1.95348
-2.17047
-2.41575
-2.69336
-3.00777
-3.36383
-3.76662
-4.22153
-4.73416
-5.3058
-5.93012
-6.6596
-7.59872
-0.434177
-0.478853
-0.522944
-0.571174
-0.623946
-0.681337
-0.743871
-0.812238
-0.887207
-0.969652
-1.06059
-1.1612
-1.27285
-1.39712
-1.53585
-1.69114
-1.86543
-2.0615
-2.28254
-2.53216
-2.81437
-3.13365
-3.4948
-3.90285
-4.36309
-4.88095
-5.45748
-6.08608
-6.81883
-7.75972
-0.50162
-0.548439
-0.593919
-0.643749
-0.698298
-0.757555
-0.822043
-0.892473
-0.96962
-1.05437
-1.14775
-1.25096
-1.36537
-1.49259
-1.63446
-1.79311
-1.97099
-2.1709
-2.39605
-2.65004
-2.9369
-3.26109
-3.62738
-4.04073
-4.50633
-5.02945
-5.61092
-6.24386
-6.97998
-7.92293
-0.569703
-0.618692
-0.665581
-0.717041
-0.773402
-0.834558
-0.901037
-0.973564
-1.05293
-1.14002
-1.23589
-1.34174
-1.45896
-1.58916
-1.73422
-1.89627
-2.07779
-2.28159
-2.51089
-2.76931
-3.06087
-3.39001
-3.76147
-4.18016
-4.65114
-5.17955
-5.766
-6.40333
-7.14293
-8.08812
-0.63838
-0.689558
-0.737876
-0.790996
-0.8492
-0.912288
-0.98079
-1.05545
-1.13706
-1.22654
-1.32493
-1.43345
-1.55352
-1.68676
-1.83504
-2.00055
-2.18575
-2.39349
-2.62698
-2.88986
-3.18616
-3.5203
-3.89697
-4.32101
-4.79741
-5.33113
-5.9226
-6.56435
-7.3075
-8.25504
-0.707604
-0.760986
-0.810749
-0.865559
-0.925637
-0.990686
-1.06124
-1.13806
-1.22196
-1.31386
-1.4148
-1.52604
-1.64899
-1.78529
-1.93685
-2.10585
-2.29478
-2.50649
-2.74423
-3.01162
-3.31269
-3.65185
-4.03376
-4.46319
-4.94502
-5.48408
-6.08058
-6.72679
-7.4735
-8.42345
-0.777333
-0.832929
-0.884149
-0.940675
-1.00266
-1.0697
-1.14233
-1.22135
-1.30756
-1.4019
-1.50544
-1.61942
-1.74529
-1.8847
-2.03956
-2.21208
-2.40478
-2.62051
-2.86252
-3.13445
-3.44034
-3.78455
-4.17172
-4.60656
-5.09384
-5.63825
-6.23979
-6.89046
-7.64076
-8.59315
-0.847524
-0.905337
-0.958026
-1.01629
-1.0802
-1.14926
-1.224
-1.30523
-1.39379
-1.4906
-1.59675
-1.71351
-1.84233
-1.98487
-2.14308
-2.31916
-2.51565
-2.73543
-2.98175
-3.25826
-3.56898
-3.91827
-4.31073
-4.751
-5.24375
-5.79351
-6.40009
-7.05522
-7.8091
-8.76394
-0.918139
-0.978167
-1.03233
-1.09236
-1.15822
-1.22932
-1.30619
-1.38966
-1.48058
-1.57989
-1.68868
-1.80824
-1.94004
-2.08575
-2.24732
-2.42699
-2.62731
-2.85116
-3.10181
-3.38293
-3.69851
-4.05291
-4.45067
-4.89637
-5.39459
-5.9497
-6.56131
-7.22088
-7.97834
-8.93563
-0.989145
-1.05138
-1.10702
-1.16884
-1.23667
-1.30981
-1.38883
-1.47456
-1.56786
-1.66969
-1.78115
-1.90353
-2.03832
-2.18722
-2.35219
-2.53548
-2.73964
-2.96759
-3.22262
-3.50836
-3.82883
-4.18834
-4.59141
-5.04255
-5.54623
-6.10668
-6.7233
-7.38729
-8.14829
-9.10804
-1.06051
-1.12493
-1.18205
-1.24566
-1.31548
-1.3907
-1.47187
-1.55988
-1.65557
-1.75993
-1.87407
-1.9993
-2.1371
-2.28921
-2.45759
-2.64451
-2.85255
-3.08463
-3.34404
-3.63442
-3.95979
-4.32442
-4.73281
-5.18939
-5.69852
-6.26428
-6.88588
-7.55426
-8.31877
-9.28097
-1.13222
-1.1988
-1.25738
-1.32281
-1.39462
-1.47191
-1.55525
-1.64554
-1.74364
-1.85053
-1.96736
-2.09544
-2.23628
-2.39161
-2.56342
-2.754
-2.96593
-3.20215
-3.46595
-3.761
-4.09126
-4.46102
-4.87473
-5.33674
-5.8513
-6.42236
-7.0489
-7.72162
-8.48962
-9.45424
-1.20426
-1.27295
-1.33298
-1.40022
-1.47403
-1.55339
-1.6389
-1.73147
-1.83198
-1.94142
-2.06095
-2.19188
-2.33576
-2.49432
-2.66957
-2.86381
-3.07964
-3.32002
-3.58823
-3.88794
-4.22311
-4.59801
-5.01703
-5.48445
-6.00442
-6.58074
-7.21219
-7.8892
-8.66063
-9.62767
-1.27662
-1.34737
-1.40882
-1.47786
-1.55367
-1.63509
-1.72276
-1.8176
-1.92051
-2.0325
-2.15472
-2.28852
-2.43544
-2.59724
-2.77594
-2.97385
-3.19359
-3.43813
-3.71076
-4.01513
-4.35521
-4.73524
-5.15956
-5.63238
-6.15772
-6.73925
-7.37556
-8.05681
-8.83164
-9.80107
-1.34931
-1.42205
-1.48486
-1.5557
-1.63347
-1.71694
-1.80675
-1.90385
-2.00916
-2.12368
-2.24859
-2.38526
-2.53522
-2.70025
-2.88241
-3.08399
-3.30766
-3.55636
-3.83341
-4.14245
-4.48743
-4.87258
-5.30217
-5.78035
-6.31104
-6.89774
-7.53885
-8.22429
-9.00245
-9.97426
-1.42233
-1.49695
-1.56108
-1.63367
-1.71338
-1.79887
-1.89079
-1.99013
-2.09781
-2.21485
-2.34245
-2.48197
-2.63497
-2.80325
-2.98885
-3.19413
-3.42172
-3.67459