/*--------------------------------*- C++ -*----------------------------------*\
| =========                 |                                                 |
| \\      /  F ield         | OpenFOAM: The Open Source CFD Toolbox           |
|  \\    /   O peration     | Version:  v1912                                 |
|   \\  /    A nd           | Website:  www.openfoam.com                      |
|    \\/     M anipulation  |                                                 |
\*---------------------------------------------------------------------------*/
FoamFile
{
    version     2.0;
    format      ascii;
    class       volVectorField;
    location    "37";
    object      U;
}
// * * * * * * * * * * * * * * * * * * * * * * * * * * * * * * * * * * * * * //

dimensions      [0 1 -1 0 0 0 0];


internalField   nonuniform List<vector> 
9600
(
(0.456582 -9.36291 -1.54049e-19)
(0.159675 -8.63461 0)
(0.241685 -8.16186 -9.04382e-20)
(0.320186 -7.84239 0)
(0.387245 -7.60671 0)
(0.455394 -7.41142 -3.18089e-20)
(0.520661 -7.23254 -5.47678e-22)
(0.579918 -7.05787 2.65827e-20)
(0.632393 -6.88209 0)
(0.67812 -6.70376 -4.50671e-20)
(0.717486 -6.52352 0)
(0.751115 -6.34289 -1.82817e-21)
(0.779743 -6.16368 -2.60564e-21)
(0.804123 -5.98757 -3.14809e-20)
(0.824977 -5.81596 2.6545e-20)
(0.842957 -5.6498 -2.60796e-20)
(0.858612 -5.48958 2.3217e-20)
(0.872487 -5.33519 0)
(0.885363 -5.1859 -1.84644e-20)
(0.896965 -5.04016 2.02423e-20)
(0.82456 -9.35246 -3.08171e-19)
(0.50221 -8.66256 1.17611e-20)
(0.56742 -8.20597 1.86295e-19)
(0.634406 -7.89597 -1.58756e-19)
(0.692439 -7.66488 1.56564e-19)
(0.75253 -7.47008 0)
(0.809907 -7.28891 6.06662e-20)
(0.861103 -7.11025 -6.05238e-20)
(0.905276 -6.9296 -1.04968e-19)
(0.942512 -6.7461 1.32742e-19)
(0.973312 -6.56077 -8.61826e-20)
(0.998424 -6.3754 -3.51765e-20)
(1.01869 -6.19195 7.1008e-20)
(1.03496 -6.01216 0)
(1.04801 -5.83745 0)
(1.05854 -5.66877 9.94985e-20)
(1.0671 -5.50656 -1.68693e-19)
(1.07426 -5.35068 0)
(1.08086 -5.20025 0)
(1.08639 -5.05365 -7.79579e-20)
(1.19288 -9.32847 6.36717e-19)
(0.847004 -8.67764 0)
(0.896695 -8.23741 -3.76913e-19)
(0.952903 -7.93698 -3.41596e-19)
(1.00221 -7.71045 0)
(1.05422 -7.51611 5.45784e-19)
(1.10348 -7.33266 -5.1524e-19)
(1.14627 -7.15012 1.00982e-19)
(1.18173 -6.9648 -2.24811e-19)
(1.21006 -6.7764 -3.73811e-19)
(1.23191 -6.58633 5.1024e-19)
(1.24814 -6.39661 -3.15453e-19)
(1.25974 -6.20933 -1.41361e-19)
(1.26764 -6.02629 0)
(1.27268 -5.84891 5.51955e-21)
(1.27559 -5.67812 1.04883e-19)
(1.27693 -5.51433 4.53307e-20)
(1.27728 -5.35736 0)
(1.27756 -5.20618 8.21695e-20)
(1.27692 -5.05913 8.42165e-20)
(1.56042 -9.29057 -8.61366e-19)
(1.19347 -8.67958 -4.03575e-19)
(1.22895 -8.25595 3.91461e-19)
(1.27511 -7.9651 6.72605e-19)
(1.31598 -7.74307 -3.2644e-19)
(1.35988 -7.54913 5.78375e-21)
(1.40077 -7.36344 2.53427e-19)
(1.43479 -7.17717 2.29523e-19)
(1.46115 -6.9874 4.20324e-19)
(1.48018 -6.79443 0)
(1.49269 -6.60001 1.61881e-19)
(1.49972 -6.40638 -1.71815e-19)
(1.50237 -6.21572 1.03433e-20)
(1.50167 -6.02987 2.70785e-19)
(1.49852 -5.85026 2.32106e-19)
(1.49367 -5.67779 -3.27643e-19)
(1.4877 -5.51284 1.07901e-19)
(1.48119 -5.35516 -1.75663e-19)
(1.47513 -5.20364 1.74833e-19)
(1.46824 -5.05656 -8.42599e-20)
(1.92689 -9.2387 4.344e-19)
(1.54131 -8.66824 0)
(1.56379 -8.26134 3.84394e-19)
(1.60053 -7.98001 0)
(1.6332 -7.76237 0)
(1.66889 -7.5688 -2.99989e-19)
(1.70116 -7.38093 -5.36669e-19)
(1.72606 -7.1911 -4.54958e-19)
(1.74291 -6.99718 1.84423e-20)
(1.75225 -6.8 -1.96571e-19)
(1.75507 -6.60164 0)
(1.7526 -6.40455 -1.62289e-19)
(1.74605 -6.21099 -2.92328e-19)
(1.73655 -6.02281 2.57045e-19)
(1.72505 -5.84142 -7.30477e-19)
(1.71234 -5.66771 1.18216e-19)
(1.69898 -5.50202 9.36789e-20)
(1.68559 -5.34405 -1.93178e-19)
(1.67319 -5.19256 -8.43975e-20)
(1.66002 -5.0459 2.51663e-19)
(2.29174 -9.17278 4.19129e-19)
(1.89003 -8.64336 4.15591e-19)
(1.90069 -8.25329 0)
(1.9286 -7.98137 0)
(1.95325 -7.76802 -6.23617e-19)
(1.98065 -7.5748 3.40878e-19)
(2.004 -7.38485 8.20159e-19)
(2.01941 -7.19167 0)
(2.02638 -6.99392 2.16694e-19)
(2.02566 -6.79292 1.96571e-19)
(2.01848 -6.5911 -3.47238e-19)
(2.00622 -6.39104 5.03546e-19)
(1.99025 -6.19507 1.47747e-19)
(1.97177 -6.00505 0)
(1.9518 -5.82236 1.22973e-19)
(1.93114 -5.64785 5.51961e-19)
(1.91035 -5.48185 -3.28899e-19)
(1.89007 -5.32397 3.69521e-19)
(1.87138 -5.17291 -7.0265e-19)
(1.85193 -5.02712 8.12303e-19)
(2.65445 -9.09277 4.26255e-19)
(2.23913 -8.60476 -2.25698e-18)
(2.23911 -8.23153 0)
(2.25874 -7.96889 0)
(2.27552 -7.75973 0)
(2.29448 -7.56685 -6.04899e-19)
(2.30864 -7.37494 0)
(2.3142 -7.17867 -9.69374e-19)
(2.31091 -6.97744 8.94104e-19)
(2.29978 -6.77308 -8.30353e-19)
(2.28229 -6.56828 0)
(2.26001 -6.36576 0)
(2.23442 -6.1679 0)
(2.20682 -5.97656 -2.80859e-19)
(2.17828 -5.79305 0)
(2.14961 -5.6182 0)
(2.12138 -5.4523 -4.12139e-19)
(2.09424 -5.29493 4.04939e-19)
(2.0693 -5.14469 0)
(2.0436 -5.00022 0)
(3.01446 -8.99868 -1.38673e-18)
(2.58806 -8.55227 8.98521e-19)
(2.57847 -8.19582 0)
(2.59032 -7.9423 0)
(2.59935 -7.73721 0)
(2.60974 -7.54469 5.75331e-19)
(2.61439 -7.351 -5.77064e-19)
(2.60975 -7.15192 -8.86649e-21)
(2.59584 -6.94762 -8.9519e-19)
(2.57398 -6.74037 8.38156e-19)
(2.54591 -6.53311 -3.78078e-19)
(2.51338 -6.32868 6.57362e-19)
(2.47801 -6.12947 -4.63658e-20)
(2.44118 -5.93731 -5.94636e-19)
(2.404 -5.75348 -5.0111e-19)
(2.36729 -5.57874 4.92325e-19)
(2.33161 -5.41338 0)
(2.29764 -5.25693 0)
(2.26653 -5.1079 3.56176e-19)
(2.23464 -4.9652 -3.91991e-19)
(3.37122 -8.89054 9.26839e-19)
(2.93624 -8.48575 8.82676e-19)
(2.91817 -8.14595 -1.67297e-18)
(2.92272 -7.90136 7.90222e-19)
(2.92408 -7.70023 0)
(2.92571 -7.50812 6.15641e-19)
(2.92056 -7.31283 -5.40387e-19)
(2.90536 -7.11128 1.52713e-18)
(2.88049 -6.90435 -2.36717e-20)
(2.84762 -6.69471 0)
(2.80871 -6.48554 7.62823e-19)
(2.76575 -6.27977 0)
(2.72047 -6.07977 0)
(2.67432 -5.88734 -2.71999e-19)
(2.62845 -5.70367 5.48612e-19)
(2.58369 -5.52951 0)
(2.54057 -5.36511 4.30239e-19)
(2.49984 -5.20997 1.79082e-19)
(2.46265 -5.06254 -3.88589e-19)
(2.42467 -4.92209 3.77312e-19)
(3.72417 -8.76841 -9.54573e-19)
(3.28309 -8.40509 8.97048e-19)
(3.2576 -8.08173 -2.55469e-18)
(3.25526 -7.84586 8.03308e-19)
(3.24901 -7.6486 0)
(3.2417 -7.45697 -1.24254e-18)
(3.22644 -7.26031 5.96893e-19)
(3.20034 -7.05667 0)
(3.1642 -6.84757 -4.73801e-19)
(3.12003 -6.63609 -8.21703e-19)
(3.07009 -6.42558 -7.15934e-19)
(3.01653 -6.21904 5.33992e-20)
(2.96124 -6.01883 6.6959e-19)
(2.90571 -5.82665 2.71775e-19)
(2.85112 -5.64367 -3.78989e-20)
(2.79831 -5.47054 -5.11768e-19)
(2.74779 -5.30753 -2.2888e-19)
(2.70035 -5.1541 -2.06336e-19)
(2.6572 -5.00865 5.50379e-19)
(2.61324 -4.87092 -8.20189e-19)
(4.07276 -8.63238 9.54575e-19)
(3.62802 -8.31024 -4.66293e-20)
(3.59611 -8.00302 8.21146e-19)
(3.58729 -7.77563 0)
(3.57344 -7.58216 -6.79734e-19)
(3.55698 -7.39109 1.3061e-18)
(3.53132 -7.19334 -1.11629e-18)
(3.494 -6.988 1.09851e-18)
(3.44629 -6.77724 -4.45028e-19)
(3.39058 -6.56448 9.03446e-19)
(3.32941 -6.35324 3.91204e-19)
(3.26514 -6.14653 0)
(3.19975 -5.94667 0)
(3.13481 -5.75531 -2.81803e-19)
(3.0715 -5.5735 3.83152e-20)
(3.01065 -5.40188 1.00777e-18)
(2.95277 -5.24067 -2.49327e-19)
(2.89871 -5.08935 8.2338e-19)
(2.84969 -4.94626 1.44068e-19)
(2.7999 -4.81173 -8.3769e-19)
(4.41642 -8.48255 -2.93712e-18)
(3.97041 -8.20114 -9.85794e-19)
(3.93307 -7.90972 -2.62855e-18)
(3.9181 -7.69056 -1.59892e-18)
(3.89665 -7.50078 -7.58383e-19)
(3.87084 -7.3104 -7.41211e-19)
(3.83446 -7.11186 -2.41927e-18)
(3.78563 -6.90527 -4.90231e-20)
(3.72608 -6.69338 -1.94366e-18)
(3.65861 -6.47993 3.0214e-20)
(3.58607 -6.26855 -8.06871e-19)
(3.51099 -6.06228 -7.35205e-19)
(3.43545 -5.86337 6.71101e-19)
(3.36108 -5.67337 -6.137e-19)
(3.28907 -5.49325 -5.62219e-19)
(3.2202 -5.32359 -5.15963e-19)
(3.15501 -5.16461 -1.38531e-18)
(3.09439 -5.01576 4.9288e-19)
(3.03962 -4.87542 1.19598e-18)
(2.98418 -4.74454 -1.27291e-18)
(4.75461 -8.31906 3.95058e-18)
(4.30968 -8.0778 4.8527e-18)
(4.26781 -7.80175 8.33522e-19)
(4.24699 -7.59053 3.99345e-18)
(4.21791 -7.40439 -7.82657e-19)
(4.18253 -7.21485 3.91037e-18)
(4.13515 -7.01585 1.14377e-18)
(4.07452 -6.80848 3.21083e-18)
(4.00289 -6.59601 -9.81382e-19)
(3.92349 -6.38247 2.71704e-18)
(3.83945 -6.17159 1.62523e-18)
(3.75349 -5.96636 1.48104e-18)
(3.66779 -5.76898 -2.005e-18)
(3.58399 -5.58089 1.87814e-18)
(3.50329 -5.40297 1.13311e-18)
(3.42645 -5.23574 1.04011e-18)
(3.354 -5.0794 9.56358e-19)
(3.28688 -4.93341 7.35021e-21)
(3.22648 -4.79617 8.11755e-19)
(3.1656 -4.66942 8.44804e-19)
(5.08681 -8.14208 -2.93362e-18)
(4.64523 -7.94025 1.08109e-18)
(4.59968 -7.67909 2.67413e-18)
(4.57328 -7.47552 -3.25776e-18)
(4.5365 -7.29295 7.52781e-19)
(4.49132 -7.10444 -2.61611e-18)
(4.43268 -6.90534 1.28215e-18)
(4.35998 -6.69767 -2.14835e-18)
(4.27607 -6.48522 4.89854e-20)
(4.18459 -6.2722 1.19171e-20)
(4.08896 -6.06243 -1.64766e-18)
(3.99208 -5.85886 -7.45833e-19)
(3.89621 -5.66359 1.37133e-18)
(3.803 -5.47796 8.73965e-21)
(3.71364 -5.30273 -3.71392e-20)
(3.62887 -5.13838 -1.08561e-18)
(3.54918 -4.98509 -4.82056e-19)
(3.47563 -4.84234 -2.71013e-20)
(3.4097 -4.70856 -8.46042e-19)
(3.34359 -4.58648 -4.2664e-19)
(5.4125 -7.95179 0)
(4.97647 -7.78855 -1.99752e-18)
(4.92803 -7.54172 2.36762e-20)
(4.89624 -7.34549 3.25312e-18)
(4.85169 -7.16647 1.36143e-18)
(4.79649 -6.97919 -1.41719e-18)
(4.72632 -6.7804 -1.22075e-18)
(4.64133 -6.57295 0)
(4.54496 -6.36109 -9.71554e-19)
(4.44129 -6.14923 9.27199e-19)
(4.33402 -5.94119 -3.90248e-20)
(4.22621 -5.73988 0)
(4.12018 -5.54728 -6.90359e-19)
(4.01759 -5.36462 5.97919e-19)
(3.9196 -5.19258 4.99462e-19)
(3.82689 -5.03153 -6.03043e-19)
(3.73997 -4.88168 -5.23113e-19)
(3.65997 -4.74251 9.08329e-19)
(3.58853 -4.6126 -8.38243e-19)
(3.51731 -4.49577 4.41219e-19)
(5.73123 -7.74837 3.03079e-18)
(5.30282 -7.62276 -2.05725e-18)
(5.25218 -7.38966 -1.75552e-18)
(5.21517 -7.20048 8.17285e-19)
(5.16274 -7.025 -1.58561e-18)
(5.0973 -6.8392 0)
(5.01537 -6.64112 0)
(4.91789 -6.43445 0)
(4.80894 -6.22379 -4.44237e-20)
(4.69301 -6.01369 -1.86078e-18)
(4.57408 -5.808 8.78796e-19)
(4.45536 -5.60952 7.43151e-19)
(4.33922 -5.42015 6.288e-19)
(4.2273 -5.24097 -2.58043e-18)
(4.12069 -5.07255 1.22331e-18)
(4.02006 -4.91522 0)
(3.92586 -4.76916 -3.03799e-20)
(3.8393 -4.63389 -1.40885e-18)
(3.76215 -4.50818 -5.68683e-21)
(3.68581 -4.39696 -4.41706e-19)
(6.04263 -7.53209 -2.06153e-18)
(5.62375 -7.44303 -1.0846e-18)
(5.57146 -7.223 8.17061e-19)
(5.52935 -7.04055 -1.43874e-19)
(5.46892 -6.86863 -4.622e-18)
(5.39304 -6.68456 4.18269e-18)
(5.29914 -6.48766 -4.87892e-20)
(5.18901 -6.28231 1.14546e-18)
(5.06738 -6.07346 1.02767e-18)
(4.93916 -5.86576 9.43572e-19)
(4.80861 -5.66301 8.58603e-19)
(4.67904 -5.46793 1.53435e-18)
(4.55285 -5.28229 -7.38495e-19)
(4.43167 -5.10706 1.91409e-18)
(4.31652 -4.94271 -1.23742e-18)
(4.20799 -4.7895 -5.11837e-19)
(4.10649 -4.64761 2.05587e-18)
(4.01328 -4.51658 1.37346e-18)
(3.9303 -4.39522 -2.79119e-20)
(3.84903 -4.28936 0)
(6.34668 -7.30345 -1.04818e-18)
(5.93884 -7.24953 2.07267e-18)
(5.88521 -7.04177 1.81438e-18)
(5.83804 -6.86576 -1.45845e-19)
(5.76949 -6.69744 -1.56817e-18)
(5.68296 -6.51544 7.0617e-20)
(5.57691 -6.32019 1.31394e-20)
(5.45403 -6.11675 1.17079e-20)
(5.31968 -5.91033 0)
(5.1792 -5.70563 9.22849e-19)
(5.03709 -5.50639 -1.75648e-18)
(4.89675 -5.31522 -7.51582e-19)
(4.7606 -5.13378 7.46124e-19)
(4.63021 -4.96292 -6.5463e-19)
(4.50654 -4.80304 6.06267e-19)
(4.3901 -4.65437 -5.51892e-19)
(4.2813 -4.5171 4.89126e-21)
(4.1815 -4.39062 -4.68826e-19)
(4.09297 -4.27364 -4.33072e-19)
(4.00754 -4.17383 -4.33362e-19)
(6.64373 -7.06291 0)
(6.24786 -7.0422 -1.01052e-18)
(6.19278 -6.8459 9.98919e-19)
(6.14049 -6.67618 1.7426e-18)
(6.0637 -6.51162 -1.57681e-18)
(5.96636 -6.33206 1.36205e-18)
(5.84803 -6.139 -2.61887e-18)
(5.71235 -5.93807 -2.32545e-18)
(5.5653 -5.73469 -1.01439e-18)
(5.41266 -5.53358 4.43709e-20)
(5.25912 -5.33837 -8.39894e-19)
(5.10815 -5.15156 3.48785e-20)
(4.96213 -4.97467 0)
(4.82253 -4.80846 -1.28409e-18)
(4.69019 -4.65327 6.55323e-19)
(4.56549 -4.50935 0)
(4.44888 -4.37682 -5.13158e-19)
(4.34195 -4.25483 -9.22558e-19)
(4.24696 -4.143 9.06506e-19)
(4.15634 -4.05393 4.47469e-19)
(6.93336 -6.80969 0)
(6.55016 -6.82031 0)
(6.49345 -6.63534 -1.85285e-18)
(6.43594 -6.47209 -1.59296e-18)
(6.35085 -6.31157 3.23322e-18)
(6.2426 -6.13486 0)
(6.11192 -5.94452 0)
(5.96344 -5.74671 1.16827e-18)
(5.8038 -5.54698 0)
(5.63917 -5.35001 0)
(5.47443 -5.15933 0)
(5.31309 -4.97727 0)
(5.15744 -4.80517 0)
(5.00881 -4.64368 0)
(4.86775 -4.49306 0)
(4.73439 -4.35347 0)
(4.60899 -4.22478 0)
(4.49262 -4.10634 0)
(4.38541 -4.0012 0)
(4.28123 -3.92661 0)
(10.0424 0.0877316 1.47133e-19)
(10.022 -0.307616 2.86263e-19)
(9.98617 -0.700288 -2.94017e-19)
(9.93568 -1.09014 5.86214e-19)
(9.87021 -1.47684 -5.86213e-19)
(9.7896 -1.85988 -5.53928e-19)
(9.69398 -2.23872 -5.52384e-19)
(9.58355 -2.61282 1.73976e-18)
(9.45855 -2.98161 -1.15912e-18)
(9.31923 -3.34456 1.14941e-18)
(9.16588 -3.70111 -1.14942e-18)
(8.9988 -4.05073 1.14093e-18)
(8.81832 -4.39291 -2.2626e-18)
(8.6248 -4.72713 3.33192e-18)
(8.41859 -5.05292 0)
(8.2001 -5.36983 -3.27357e-18)
(7.96971 -5.67742 1.63001e-20)
(7.72795 -5.97535 3.29911e-18)
(7.47492 -6.26346 0)
(7.21229 -6.54107 0)
(10.1176 -0.210743 0)
(10.0764 -0.60675 -1.50358e-20)
(10.0185 -0.998961 0)
(9.94437 -1.38704 5.60874e-19)
(9.85443 -1.77056 5.84107e-19)
(9.74882 -2.14891 -1.69052e-18)
(9.62785 -2.52147 2.94331e-18)
(9.49185 -2.88761 -1.16188e-18)
(9.34122 -3.24673 -1.1075e-18)
(9.17633 -3.59825 -1.10298e-18)
(8.9976 -3.9416 4.45571e-20)
(8.80547 -4.27623 1.13016e-18)
(8.60041 -4.60162 -5.61833e-18)
(8.3829 -4.91728 -1.17832e-18)
(8.15341 -5.22273 2.24503e-18)
(7.91248 -5.51756 2.24209e-18)
(7.66057 -5.80136 1.13917e-18)
(7.39826 -6.07381 -2.19655e-18)
(7.12565 -6.33465 1.04016e-18)
(6.84368 -6.58354 0)
(10.0682 -0.149296 1.32463e-19)
(10.0304 -0.540823 -2.71269e-19)
(9.97527 -0.929179 7.83342e-19)
(9.90316 -1.31367 -5.54988e-19)
(9.81445 -1.69365 -5.29142e-19)
(9.70951 -2.06839 5.5248e-19)
(9.58871 -2.43719 0)
(9.45244 -2.79934 0)
(9.30113 -3.15417 2.09773e-18)
(9.13523 -3.50106 3.12943e-18)
(8.9552 -3.83937 -9.89724e-19)
(8.76155 -4.16851 3.09452e-18)
(8.55479 -4.48793 -9.85563e-19)
(8.33546 -4.79709 -3.01411e-18)
(8.10411 -5.09548 1.3582e-20)
(7.86131 -5.38264 1.93469e-18)
(7.60759 -5.65814 -8.7319e-19)
(7.34355 -5.92157 -1.90343e-18)
(7.06952 -6.17255 -1.02823e-18)
(6.78624 -6.41058 1.87071e-18)
(9.90123 -0.112623 0)
(9.87026 -0.494892 2.28673e-19)
(9.82202 -0.874818 2.27731e-19)
(9.75671 -1.2515 -9.35626e-19)
(9.67463 -1.62415 0)
(9.57615 -1.99198 0)
(9.46161 -2.35423 0)
(9.3314 -2.71015 0)
(9.18593 -3.05904 -9.90147e-19)
(9.02564 -3.40019 -9.86391e-19)
(8.851 -3.73294 0)
(8.66254 -4.05666 1.86488e-18)
(8.46076 -4.37073 -4.61075e-18)
(8.24623 -4.67458 3.7075e-18)
(8.01951 -4.96766 -3.5935e-18)
(7.78119 -5.24944 -8.71968e-19)
(7.53184 -5.51943 1.56371e-19)
(7.27209 -5.77717 1.5478e-19)
(7.00243 -6.0222 -1.77597e-18)
(6.72362 -6.25402 -7.0875e-20)
(9.64772 -0.0991537 0)
(9.62414 -0.46918 -2.25523e-19)
(9.58373 -0.837518 0)
(9.52656 -1.20327 4.51169e-19)
(9.45286 -1.56559 4.30067e-19)
(9.36292 -1.92369 3.93155e-19)
(9.25705 -2.27679 0)
(9.13558 -2.62413 0)
(8.9989 -2.96497 0)
(8.84742 -3.29858 0)
(8.68158 -3.62429 8.12181e-19)
(8.50185 -3.94141 8.75083e-19)
(8.30876 -4.2493 8.70107e-19)
(8.10284 -4.54736 -8.83403e-19)
(7.88463 -4.83498 -1.52018e-18)
(7.65474 -5.11162 1.72585e-18)
(7.41373 -5.37672 3.34604e-18)
(7.16225 -5.62977 1.6275e-18)
(6.90085 -5.87027 0)
(6.63024 -6.09773 -1.53383e-18)
(9.34045 -0.0903473 4.6347e-20)
(9.32383 -0.446193 0)
(9.29099 -0.800921 -7.5952e-19)
(9.24196 -1.15368 1.8404e-23)
(9.17689 -1.50364 1.61581e-20)
(9.096 -1.85002 -6.84698e-20)
(8.99957 -2.19205 0)
(8.88787 -2.52896 3.09046e-20)
(8.76123 -2.86002 -7.71057e-19)
(8.62003 -3.1845 1.50226e-18)
(8.46466 -3.5017 -1.56653e-18)
(8.29557 -3.81095 8.55883e-19)
(8.11323 -4.11159 -4.4859e-18)
(7.91813 -4.40297 2.95872e-18)
(7.71081 -4.6845 1.56847e-18)
(7.49184 -4.95558 0)
(7.26177 -5.21563 -2.89499e-18)
(7.02121 -5.46412 -6.14957e-20)
(6.77076 -5.70051 -2.85101e-18)
(6.51105 -5.92427 2.96338e-18)
(9.00796 -0.0855207 4.16779e-20)
(8.99697 -0.426366 -8.73131e-20)
(8.9705 -0.766562 7.15899e-19)
(8.92853 -1.10531 -1.40595e-20)
(8.87117 -1.44182 7.15751e-19)
(8.79858 -1.77532 -1.08108e-18)
(8.711 -2.10507 0)
(8.60866 -2.43033 7.28796e-19)
(8.49183 -2.75037 6.67255e-19)
(8.36086 -3.0645 -7.24716e-19)
(8.21608 -3.37201 1.32586e-18)
(8.05791 -3.67224 2.811e-18)
(7.88676 -3.96454 -1.30721e-18)
(7.70311 -4.24827 -1.41704e-18)
(7.50744 -4.5228 1.35888e-18)
(7.30029 -4.78755 0)
(7.0822 -5.04193 6.48809e-20)
(6.85374 -5.28536 9.78669e-21)
(6.61548 -5.5173 2.70106e-18)
(6.36803 -5.7372 1.25569e-18)
(8.67143 -0.084317 0)
(8.66449 -0.410209 6.25102e-21)
(8.64285 -0.735796 -1.45657e-19)
(8.60646 -1.06033 -6.46914e-19)
(8.55538 -1.38306 6.08061e-19)
(8.48978 -1.70327 0)
(8.40981 -2.02023 1.23764e-18)
(8.31569 -2.33324 -1.35991e-21)
(8.20765 -2.64162 -1.89027e-18)
(8.08598 -2.94467 0)
(7.951 -3.24173 -1.30475e-18)
(7.80306 -3.53216 4.59625e-20)
(7.64256 -3.81531 -3.66754e-18)
(7.46992 -4.09058 6.46079e-21)
(7.2856 -4.35734 1.22924e-18)
(7.09009 -4.615 0)
(6.88391 -4.86297 -1.20653e-18)
(6.66761 -5.10069 8.68133e-21)
(6.44173 -5.32759 1.19785e-18)
(6.20682 -5.5431 -1.23569e-18)
(8.3447 -0.0853728 0)
(8.34037 -0.396893 1.49344e-19)
(8.3221 -0.708339 3.09864e-19)
(8.28983 -1.01901 -5.73523e-19)
(8.24361 -1.32821 -2.47016e-20)
(8.18356 -1.63525 -2.8663e-19)
(8.10981 -1.93945 -1.14741e-18)
(8.02256 -2.24015 5.70447e-19)
(7.922 -2.53669 2.37939e-20)
(7.80838 -2.82842 5.67034e-19)
(7.68201 -3.11471 5.21968e-19)
(7.54319 -3.39495 2.26063e-18)
(7.39228 -3.66852 1.13077e-18)
(7.22969 -3.93482 2.2334e-18)
(7.05584 -4.19328 -1.11378e-18)
(6.87119 -4.4433 3.86354e-20)
(6.67624 -4.68432 -1.10063e-18)
(6.4715 -4.91576 0)
(6.2575 -5.13707 1.04035e-18)
(6.03476 -5.34764 0)
(8.03565 -0.0875656 6.50163e-20)
(8.03278 -0.385583 -1.9041e-19)
(8.01669 -0.683669 5.22272e-19)
(7.98731 -0.981167 -2.6055e-19)
(7.94467 -1.27742 1.89641e-20)
(7.88888 -1.57179 -2.60396e-19)
(7.82006 -1.86362 5.41366e-19)
(7.73837 -2.15231 -5.18099e-19)
(7.64399 -2.43722 5.18096e-19)
(7.53714 -2.71775 9.93651e-19)
(7.4181 -2.99331 -1.07078e-18)
(7.28716 -3.26331 -4.50585e-20)
(7.14465 -3.52717 -3.09938e-18)
(6.99093 -3.78434 5.36781e-21)
(6.82643 -4.03424 4.02358e-20)
(6.65157 -4.27634 2.00925e-18)
(6.46684 -4.51007 -9.925e-19)
(6.27272 -4.73488 -9.45344e-19)
(6.06975 -4.95019 -3.74209e-20)
(5.85839 -5.15541 0)
(7.74789 -0.0901516 0)
(7.74564 -0.375658 2.41867e-19)
(7.73081 -0.661306 -8.31618e-19)
(7.70335 -0.946481 -2.20622e-19)
(7.66329 -1.23056 4.93445e-19)
(7.6107 -1.51295 0)
(7.54571 -1.79304 0)
(7.46845 -2.07025 4.71643e-19)
(7.3791 -2.34399 -4.7164e-19)
(7.27786 -2.6137 3.97261e-19)
(7.16498 -2.87881 -4.68601e-19)
(7.04072 -3.13878 9.29272e-19)
(6.90541 -3.39307 -1.85394e-18)
(6.7594 -3.64116 1.84436e-18)
(6.60307 -3.88253 3.46333e-20)
(6.43685 -4.11664 -9.48611e-19)
(6.26122 -4.34298 -9.02653e-19)
(6.07666 -4.561 1.83878e-18)
(5.8837 -4.77013 8.60758e-19)
(5.68278 -4.96976 0)
(7.48221 -0.092658 1.87549e-21)
(7.48 -0.366652 1.5879e-19)
(7.4658 -0.640814 3.33395e-19)
(7.43956 -0.914566 2.33368e-19)
(7.40131 -1.18733 2.16469e-19)
(7.35112 -1.45852 2.01358e-19)
(7.28909 -1.72759 0)
(7.21537 -1.99398 -8.32135e-19)
(7.1301 -2.25714 -4.28975e-19)
(7.03347 -2.51654 3.65922e-19)
(6.92573 -2.77166 0)
(6.80712 -3.02199 8.47268e-19)
(6.67795 -3.26703 -2.50582e-18)
(6.53855 -3.50629 8.42929e-19)
(6.3893 -3.7393 0)
(6.23063 -3.96557 -8.01442e-19)
(6.06301 -4.1846 -1.61872e-18)
(5.88692 -4.39588 7.96511e-19)
(5.70293 -4.59884 -2.91774e-20)
(5.51148 -4.79283 0)
(7.23773 -0.0947863 3.46024e-21)
(7.23521 -0.358219 -1.02764e-19)
(7.22122 -0.621813 1.9831e-19)
(7.19573 -0.885024 -1.31049e-20)
(7.15874 -1.1473 3.9627e-19)
(7.11035 -1.40811 -6.08606e-19)
(7.05065 -1.66691 0)
(6.97975 -1.92318 5.59616e-20)
(6.89782 -2.17641 0)
(6.80503 -2.4261 -8.12413e-19)
(6.7016 -2.67177 0)
(6.58778 -2.91293 -7.49721e-19)
(6.46385 -3.14913 2.31722e-18)
(6.33012 -3.37994 -1.5355e-18)
(6.18699 -3.6049 7.65539e-19)
(6.03487 -3.8236 -6.7728e-19)
(5.87425 -4.03555 7.82379e-19)
(5.70562 -4.24031 -7.77027e-19)
(5.52964 -4.43727 0)
(5.34671 -4.62579 0)
(7.01267 -0.0964149 4.70216e-20)
(7.00965 -0.350135 0)
(6.99563 -0.603997 0)
(6.97056 -0.857485 -3.76744e-19)
(6.93449 -1.11007 -3.51607e-19)
(6.88749 -1.36125 0)
(6.82964 -1.61052 0)
(6.76107 -1.85737 4.97874e-20)
(6.68192 -2.10133 6.96287e-19)
(6.59237 -2.34193 -3.35784e-19)
(6.4926 -2.5787 -3.57763e-19)
(6.38287 -2.81123 1.44522e-18)
(6.26344 -3.03907 -2.14602e-18)
(6.13463 -3.26184 1.38384e-18)
(5.99679 -3.47914 0)
(5.85036 -3.69063 2.78017e-18)
(5.69584 -3.89583 -2.0185e-18)
(5.53376 -4.09442 6.86698e-19)
(5.3649 -4.28569 1.31325e-18)
(5.18964 -4.46909 0)
(6.80494 -0.0974787 -4.04239e-20)
(6.80132 -0.342239 0)
(6.78711 -0.58712 -5.21424e-21)
(6.76229 -0.831623 -3.23502e-19)
(6.7269 -1.07525 1.00244e-18)
(6.68101 -1.31751 -1.66753e-19)
(6.62471 -1.55792 0)
(6.5581 -1.79602 1.32835e-18)
(6.48133 -2.03134 -6.84094e-19)
(6.39456 -2.26344 4.44231e-20)
(6.29798 -2.4919 6.33969e-19)
(6.19182 -2.71631 6.4983e-19)
(6.07632 -2.93629 -1.29587e-18)
(5.95179 -3.15149 -1.26749e-18)
(5.81858 -3.36155 -1.23802e-18)
(5.6771 -3.56622 -1.31746e-18)
(5.52793 -3.76506 1.30848e-18)
(5.37155 -3.95792 -6.24628e-19)
(5.20902 -4.14394 -6.65628e-19)
(5.04062 -4.32278 0)
(6.61231 -0.0979572 3.97154e-20)
(6.60805 -0.334425 -1.49118e-19)
(6.5936 -0.570985 -1.54372e-19)
(6.56893 -0.807156 4.62232e-19)
(6.5341 -1.04246 -1.64156e-19)
(6.48916 -1.27644 -1.53438e-19)
(6.43419 -1.50862 0)
(6.36932 -1.73857 -6.30698e-19)
(6.29466 -1.96584 0)
(6.21037 -2.19002 6.25817e-19)
(6.11663 -2.41071 -1.20594e-18)
(6.01365 -2.62753 5.96958e-19)
(5.90166 -2.84013 -1.19025e-18)
(5.78094 -3.04822 1.22827e-18)
(5.65183 -3.25146 6.68554e-19)
(5.51472 -3.44975 0)
(5.37021 -3.64262 -5.77027e-19)
(5.21878 -3.83029 5.77027e-19)
(5.06188 -4.01153 0)
(4.8995 -4.18673 0)
(6.43265 -0.0979378 0)
(6.42778 -0.326672 1.46507e-19)
(6.41309 -0.555466 4.71563e-21)
(6.38856 -0.78386 -1.51065e-19)
(6.35423 -1.0114 -1.33206e-19)
(6.31016 -1.23764 -1.41422e-19)
(6.25644 -1.46214 5.46596e-19)
(6.19317 -1.68447 0)
(6.12046 -1.90422 0)
(6.03848 -2.12099 2.77781e-19)
(5.94738 -2.33441 2.95091e-19)
(5.84735 -2.54412 1.06797e-18)
(5.73861 -2.7498 -5.45684e-19)
(5.6214 -2.95121 5.45682e-19)
(5.49603 -3.14806 5.79298e-19)
(5.36283 -3.34036 3.38868e-20)
(5.22247 -3.52765 -1.0639e-18)
(5.0753 -3.7107 3.7756e-21)
(4.92348 -3.88761 5.26184e-19)
(4.76615 -4.06038 0)
(6.26407 -0.0974233 -3.2745e-20)
(6.25866 -0.318947 3.27446e-20)
(6.24378 -0.540503 0)
(6.2194 -0.761646 1.23334e-19)
(6.18559 -0.98194 4.00633e-19)
(6.14239 -1.20096 -5.06347e-19)
(6.08989 -1.41828 -5.37049e-19)
(6.02818 -1.6335 0)
(5.95739 -1.84622 0)
(5.87765 -2.05607 0)
(5.78912 -2.26269 -9.91398e-19)
(5.69195 -2.46575 -6.40181e-20)
(5.58635 -2.66496 -5.02674e-19)
(5.4725 -2.8601 3.01339e-20)
(5.35069 -3.05093 -9.94084e-19)
(5.22115 -3.23762 1.51499e-18)
(5.08458 -3.4197 -1.43546e-18)
(4.94103 -3.59876 4.87284e-19)
(4.79378 -3.77184 9.34132e-19)
(4.64012 -3.94382 0)
(6.10485 -0.0960641 2.94176e-20)
(6.09901 -0.31105 0)
(6.08402 -0.526058 -1.21113e-19)
(6.05987 -0.74065 -2.49564e-19)
(6.02661 -0.954409 1.20961e-19)
(5.98429 -1.16693 9.65926e-19)
(5.933 -1.3778 0)
(5.87283 -1.58665 -4.65205e-19)
(5.80389 -1.79309 -2.37937e-19)
(5.7263 -1.99677 -4.46989e-19)
(5.6402 -2.19735 -1.78834e-19)
(5.54574 -2.39453 -1.41121e-18)
(5.44309 -2.58803 -9.31476e-19)
(5.33237 -2.77764 9.58196e-19)
(5.21383 -2.96318 9.17165e-19)
(5.08749 -3.14488 -3.87898e-21)
(4.95416 -3.3224 2.98856e-20)
(4.81308 -3.4983 4.48979e-19)
(4.66934 -3.66881 -9.17878e-19)
(4.51623 -3.84378 0)
(5.9534 -0.0943918 -6.1518e-20)
(5.94726 -0.303119 3.02842e-20)
(5.93231 -0.511933 -1.2099e-19)
(5.90854 -0.720445 1.20934e-19)
(5.87597 -0.928263 -3.47821e-19)
(5.83464 -1.135 -1.08307e-18)
(5.78463 -1.34026 0)
(5.72601 -1.54369 4.92227e-19)
(5.65886 -1.74493 -4.60241e-19)
(5.58329 -1.94363 9.74593e-19)
(5.49942 -2.13947 9.68799e-19)
(5.40733 -2.33216 1.42733e-18)
(5.30718 -2.52142 -9.26163e-19)
(5.199 -2.70704 4.61324e-19)
(5.08303 -2.88886 -4.53678e-19)
(4.9589 -3.06708 4.53702e-19)
(4.82772 -3.24144 0)
(4.68678 -3.41513 4.10753e-19)
(4.54511 -3.58401 -4.01946e-19)
(4.38761 -3.77019 0)
(7.13905 7.26103 0)
(7.41899 6.97127 0)
(7.68602 6.67193 1.08595e-18)
(7.94086 6.36351 2.02036e-20)
(8.18293 6.04574 -1.14898e-18)
(8.41159 5.71866 0)
(8.6264 5.3827 1.18565e-18)
(8.82704 5.03837 -2.23686e-18)
(9.0132 4.68625 -1.13043e-18)
(9.18457 4.32695 -1.14099e-18)
(9.34091 3.96111 1.14099e-18)
(9.48198 3.58939 -1.15305e-18)
(9.60759 3.21245 5.75168e-19)
(9.71755 2.83102 5.48939e-19)
(9.81169 2.44574 5.51082e-19)
(9.88995 2.0573 -5.84873e-19)
(9.95232 1.66634 5.84874e-19)
(9.99887 1.27358 -2.93613e-19)
(10.0295 0.879403 -1.39461e-19)
(10.0449 0.485171 7.34595e-20)
(7.41461 7.06804 0)
(7.6947 6.7787 -9.94986e-19)
(7.96099 6.47779 -2.12725e-18)
(8.2138 6.166 3.14574e-18)
(8.45287 5.84364 -2.18149e-18)
(8.6777 5.51118 2.19216e-18)
(8.88781 5.1692 1.19184e-18)
(9.08277 4.81839 -3.38193e-18)
(9.26222 4.45942 1.10636e-18)
(9.42578 4.09301 2.1993e-18)
(9.57315 3.71989 1.08354e-18)
(9.70408 3.34081 1.0904e-18)
(9.81839 2.95657 -1.15067e-18)
(9.91588 2.5679 1.69434e-18)
(9.99627 2.17558 -2.3508e-18)
(10.0595 1.78049 5.80242e-19)
(10.1055 1.38342 -5.57552e-19)
(10.1344 0.985205 0)
(10.1461 0.586366 1.5149e-20)
(10.1409 0.187883 0)
(7.27097 6.94272 -1.75191e-18)
(7.55383 6.67078 9.83603e-19)
(7.82415 6.38598 1.7991e-18)
(8.08149 6.089 8.14389e-19)
(8.32541 5.78041 2.03986e-18)
(8.5554 5.46083 1.99849e-20)
(8.77092 5.13091 -1.02244e-18)
(8.97149 4.79137 -3.04699e-18)
(9.15666 4.4429 3.00815e-18)
(9.32599 4.08625 -3.08793e-18)
(9.4791 3.72214 -1.02875e-18)
(9.61567 3.35134 -2.05822e-18)
(9.7354 2.97468 0)
(9.83807 2.59291 0)
(9.92355 2.20695 0)
(9.99167 1.81769 -5.24623e-19)
(10.0423 1.42597 5.49473e-19)
(10.0753 1.03265 5.26314e-19)
(10.0907 0.638442 6.26594e-21)
(10.0884 0.244313 1.32187e-19)
(7.04341 6.69052 1.81952e-18)
(7.32299 6.43722 -1.65224e-18)
(7.59122 6.17081 -1.69478e-19)
(7.84739 5.89183 -1.70435e-19)
(8.09093 5.60085 4.29511e-18)
(8.3213 5.29848 -7.12138e-20)
(8.53793 4.98534 3.75342e-21)
(8.74031 4.6621 -2.71612e-18)
(8.92794 4.32943 1.79205e-18)
(9.10033 3.98801 0)
(9.25701 3.63863 9.61191e-19)
(9.39762 3.28213 9.67837e-19)
(9.52189 2.91927 0)
(9.62951 2.55089 0)
(9.72025 2.17782 0)
(9.79392 1.80086 0)
(9.85033 1.42084 -2.16905e-20)
(9.88935 1.03862 4.7387e-19)
(9.91087 0.655025 -2.27549e-19)
(9.91489 0.270989 0)
(6.78065 6.37582 1.5409e-18)
(7.05235 6.14036 0)
(7.31383 5.89199 -4.53666e-18)
(7.56428 5.6311 -1.54632e-18)
(7.80306 5.35823 -1.625e-18)
(8.02959 5.07393 -1.7226e-18)
(8.24332 4.77878 8.13861e-19)
(8.44368 4.47338 -8.55289e-19)
(8.63014 4.15837 2.37482e-18)
(8.80227 3.83443 -7.7744e-19)
(8.95962 3.50231 0)
(9.10171 3.16277 0)
(9.22815 2.8165 0)
(9.33866 2.46429 0)
(9.43299 2.10693 -1.22771e-18)
(9.51088 1.74524 4.22159e-19)
(9.57211 1.38003 -4.45954e-19)
(9.61652 1.01212 0)
(9.64398 0.642366 2.24415e-19)
(9.65442 0.271649 0)
(6.50565 6.04871 1.31808e-18)
(6.76713 5.82939 -4.79694e-20)
(7.01931 5.59756 2.77252e-18)
(7.26141 5.35355 1.38511e-18)
(7.49276 5.09782 0)
(7.71279 4.83089 -1.47088e-18)
(7.92093 4.55328 6.84407e-20)
(8.11663 4.26555 -1.4932e-18)
(8.29938 3.96829 2.06562e-18)
(8.46869 3.66214 3.2715e-20)
(8.62413 3.34775 2.80943e-20)
(8.76526 3.02573 -7.45084e-19)
(8.89166 2.69683 1.46125e-18)
(9.00302 2.3618 0)
(9.09907 2.02134 6.85057e-20)
(9.17951 1.67629 7.46026e-19)
(9.24407 1.32742 1.63461e-21)
(9.29256 0.975504 -1.53322e-20)
(9.32487 0.621346 0)
(9.34086 0.265779 -4.62506e-20)
(6.23974 5.73177 0)
(6.48988 5.52643 -4.88926e-20)
(6.73148 5.3091 1.7533e-20)
(6.96378 5.08007 -2.50609e-18)
(7.18615 4.83974 0)
(7.398 4.58858 1.26744e-18)
(7.59881 4.32705 1.35005e-18)
(7.78803 4.05568 -3.92776e-18)
(7.96518 3.77499 -6.82122e-20)
(8.12977 3.48558 -1.26115e-18)
(8.28137 3.18803 6.94443e-19)
(8.41955 2.88295 -6.41445e-19)
(8.54393 2.57102 -7.05189e-19)
(8.65412 2.25293 0)
(8.74988 1.9294 3.7205e-19)
(8.83101 1.60103 -1.68916e-20)
(8.89712 1.26869 -3.45362e-19)
(8.94799 0.933095 -1.67538e-20)
(8.98351 0.59501 -8.69366e-20)
(9.00351 0.255201 1.74246e-19)
(5.99408 5.4366 0)
(6.23263 5.2431 1.08358e-18)
(6.46324 5.03819 1.61454e-20)
(6.68519 4.82211 -1.09969e-18)
(6.89786 4.59522 0)
(7.10072 4.35793 1.14405e-18)
(7.29323 4.11069 -1.09226e-18)
(7.47491 3.85395 -1.20922e-18)
(7.64528 3.58821 2.29999e-18)
(7.80388 3.31401 1.2411e-18)
(7.9503 3.03191 0)
(8.08413 2.74248 6.05332e-19)
(8.205 2.44635 -4.38062e-21)
(8.31258 2.14416 2.18465e-20)
(8.40646 1.83658 0)
(8.4865 1.52424 -5.95817e-19)
(8.55255 1.20775 -3.12157e-19)
(8.60419 0.887928 4.56072e-19)
(8.6413 0.565495 3.07501e-19)
(8.66373 0.241162 -4.1104e-20)
(5.77234 5.1681 0)
(5.99964 4.98459 -9.3578e-19)
(6.21945 4.79023 0)
(6.4311 4.58526 -1.00964e-18)
(6.634 4.36998 1.98773e-18)
(6.82764 4.14476 -2.02714e-18)
(7.01155 3.91001 3.17214e-18)
(7.18524 3.66616 -3.16297e-18)
(7.34828 3.41368 -2.137e-18)
(7.50024 3.15305 -1.57613e-18)
(7.64072 2.88481 5.40492e-19)
(7.76935 2.60951 -1.12056e-18)
(7.88577 2.32772 1.86309e-20)
(7.98965 2.04004 1.11388e-18)
(8.08072 1.74707 -2.80225e-19)
(8.15858 1.44952 1.14796e-18)
(8.22315 1.14788 -5.64599e-19)
(8.27427 0.842863 2.60115e-19)
(8.31167 0.535197 -1.48356e-19)
(8.33515 0.22555 0)
(5.57427 4.92668 0)
(5.79096 4.75162 1.81032e-18)
(6.0005 4.56628 8.78082e-19)
(6.20227 4.37086 -9.03889e-19)
(6.39571 4.16561 -1.85161e-18)
(6.58035 3.95088 2.81757e-18)
(6.75575 3.72705 1.12671e-20)
(6.92146 3.49451 -9.18352e-19)
(7.07708 3.2537 1.97167e-18)
(7.2222 3.0051 1.01831e-18)
(7.35646 2.74919 -9.51317e-19)
(7.4795 2.48652 4.99543e-19)
(7.59098 2.2176 2.25121e-20)
(7.6906 1.94301 -5.25656e-19)
(7.77809 1.66333 -2.54715e-19)
(7.85314 1.37912 5.10737e-19)
(7.91554 1.0911 -2.56023e-19)
(7.96516 0.799744 -5.16647e-19)
(8.00185 0.505748 5.98647e-20)
(8.02535 0.209756 6.47372e-20)
(5.39765 4.71028 0)