/*--------------------------------*- C++ -*----------------------------------*\
  =========                 |
  \\      /  F ield         | OpenFOAM: The Open Source CFD Toolbox
   \\    /   O peration     | Website:  https://openfoam.org
    \\  /    A nd           | Version:  6.0
     \\/     M anipulation  |
\*---------------------------------------------------------------------------*/
FoamFile
{
    version     2.0;
    format      ascii;
    class       volScalarField;
    location    "4.248";
    object      p;
}
// * * * * * * * * * * * * * * * * * * * * * * * * * * * * * * * * * * * * * //

dimensions      [0 2 -2 0 0 0 0];

internalField   nonuniform List<scalar> 
19200
(
-0.425538
-0.420318
-0.416493
-0.41334
-0.410441
-0.407766
-0.405263
-0.402875
-0.400565
-0.398307
-0.396082
-0.393879
-0.391691
-0.389514
-0.387345
-0.385186
-0.383037
-0.3809
-0.378778
-0.376672
-0.374586
-0.37252
-0.370478
-0.368461
-0.366472
-0.364517
-0.362591
-0.360636
-0.358634
-0.357213
-0.431557
-0.426098
-0.42216
-0.418911
-0.415909
-0.413123
-0.410502
-0.407992
-0.405557
-0.403172
-0.40082
-0.39849
-0.396176
-0.393875
-0.391586
-0.38931
-0.387048
-0.384803
-0.382578
-0.380374
-0.378195
-0.376043
-0.373921
-0.37183
-0.369773
-0.367759
-0.365782
-0.363773
-0.361701
-0.360325
-0.438167
-0.432384
-0.428268
-0.424887
-0.421754
-0.418835
-0.416078
-0.413429
-0.410853
-0.408326
-0.405832
-0.403361
-0.400908
-0.39847
-0.396047
-0.393641
-0.391254
-0.388888
-0.386547
-0.384234
-0.381952
-0.379704
-0.377492
-0.375317
-0.373185
-0.371103
-0.36907
-0.366997
-0.364845
-0.363526
-0.445153
-0.439105
-0.434809
-0.431276
-0.42799
-0.424916
-0.422004
-0.419199
-0.416465
-0.413779
-0.411127
-0.408499
-0.405892
-0.403302
-0.400732
-0.398182
-0.395656
-0.393157
-0.390688
-0.388254
-0.385857
-0.383501
-0.381188
-0.37892
-0.376702
-0.374545
-0.372446
-0.370303
-0.36806
-0.36681
-0.452556
-0.446261
-0.441776
-0.438072
-0.434614
-0.431368
-0.428282
-0.425302
-0.422393
-0.419533
-0.416707
-0.413907
-0.41113
-0.408374
-0.405642
-0.402934
-0.400256
-0.39761
-0.395001
-0.392432
-0.389909
-0.387435
-0.385011
-0.382641
-0.380326
-0.378084
-0.375911
-0.373687
-0.371342
-0.370174
-0.460401
-0.453855
-0.449168
-0.445277
-0.44163
-0.438193
-0.434917
-0.431745
-0.428644
-0.425592
-0.422576
-0.419588
-0.416626
-0.413689
-0.41078
-0.407901
-0.405056
-0.402249
-0.399486
-0.396771
-0.394109
-0.391504
-0.388959
-0.386474
-0.384056
-0.381719
-0.379465
-0.37715
-0.37469
-0.373615
-0.468702
-0.461891
-0.456988
-0.452895
-0.449042
-0.445397
-0.441912
-0.438531
-0.435221
-0.43196
-0.428738
-0.425547
-0.422385
-0.419252
-0.416151
-0.413085
-0.410059
-0.407078
-0.404147
-0.401271
-0.398455
-0.395705
-0.393026
-0.390416
-0.387883
-0.385443
-0.383099
-0.380684
-0.378097
-0.377127
-0.477465
-0.470376
-0.465242
-0.46093
-0.456853
-0.452984
-0.449272
-0.445665
-0.442128
-0.438643
-0.435199
-0.431788
-0.42841
-0.425066
-0.421758
-0.41849
-0.415269
-0.412098
-0.408985
-0.405934
-0.402951
-0.400043
-0.397214
-0.394467
-0.391805
-0.389252
-0.386808
-0.384281
-0.381557
-0.380704
-0.4867
-0.479316
-0.473935
-0.469387
-0.46507
-0.460957
-0.457002
-0.453151
-0.449371
-0.445645
-0.441962
-0.438316
-0.434706
-0.431135
-0.427605
-0.424121
-0.420689
-0.417315
-0.414004
-0.410764
-0.4076
-0.40452
-0.401529
-0.39863
-0.39583
-0.393148
-0.390592
-0.387942
-0.385065
-0.384341
-0.496413
-0.488716
-0.483072
-0.478272
-0.473697
-0.469323
-0.465107
-0.460994
-0.456955
-0.452971
-0.449032
-0.445135
-0.441279
-0.437465
-0.433698
-0.429983
-0.426325
-0.422731
-0.419209
-0.415764
-0.412404
-0.409137
-0.40597
-0.402906
-0.399953
-0.397134
-0.394453
-0.391667
-0.38862
-0.388036
-0.506612
-0.498584
-0.49266
-0.48759
-0.482739
-0.478087
-0.473591
-0.469199
-0.464883
-0.460624
-0.456415
-0.452251
-0.448133
-0.444062
-0.440043
-0.436081
-0.432182
-0.428354
-0.424604
-0.42094
-0.417368
-0.413899
-0.410539
-0.407296
-0.404173
-0.401206
-0.398388
-0.395451
-0.39222
-0.391783
-0.517305
-0.508926
-0.502704
-0.497346
-0.492201
-0.487251
-0.482458
-0.477771
-0.473161
-0.468612
-0.464116
-0.45967
-0.455274
-0.450931
-0.446645
-0.442422
-0.438268
-0.434191
-0.430198
-0.426298
-0.422499
-0.418811
-0.415242
-0.411801
-0.408497
-0.405363
-0.402399
-0.399294
-0.395862
-0.395582
-0.528499
-0.519749
-0.51321
-0.507546
-0.502087
-0.496823
-0.491715
-0.486715
-0.481794
-0.476938
-0.47214
-0.467397
-0.462709
-0.458079
-0.453512
-0.449014
-0.44459
-0.440249
-0.435999
-0.431848
-0.427805
-0.423881
-0.420086
-0.41643
-0.412926
-0.409609
-0.406484
-0.403197
-0.399544
-0.39943
-0.540201
-0.531059
-0.524183
-0.518195
-0.512404
-0.506806
-0.501365
-0.496034
-0.490787
-0.485609
-0.480493
-0.475438
-0.470444
-0.465515
-0.460653
-0.455865
-0.451158
-0.446539
-0.442016
-0.437598
-0.433295
-0.429118
-0.42508
-0.421189
-0.417464
-0.413949
-0.410643
-0.407159
-0.403264
-0.403324
-0.55242
-0.542862
-0.53563
-0.529298
-0.523155
-0.517204
-0.511413
-0.505735
-0.500144
-0.494629
-0.489182
-0.483801
-0.478488
-0.473246
-0.468077
-0.462987
-0.457982
-0.453071
-0.44826
-0.443559
-0.438979
-0.434532
-0.430231
-0.426087
-0.422121
-0.418386
-0.41488
-0.411182
-0.407026
-0.407261
-0.565161
-0.555164
-0.547554
-0.540858
-0.534345
-0.528023
-0.521863
-0.515821
-0.509872
-0.504004
-0.498212
-0.492493
-0.486849
-0.481281
-0.475792
-0.470388
-0.465074
-0.459856
-0.454743
-0.449744
-0.44487
-0.440134
-0.43555
-0.431131
-0.426901
-0.422921
-0.419196
-0.415257
-0.410824
-0.411237
-0.578433
-0.567969
-0.559961
-0.552881
-0.545977
-0.539265
-0.53272
-0.526297
-0.519975
-0.513741
-0.507591
-0.501522
-0.495534
-0.48963
-0.483811
-0.478081
-0.472445
-0.466908
-0.461479
-0.456166
-0.45098
-0.445935
-0.441046
-0.436328
-0.431807
-0.427552
-0.423575
-0.419365
-0.414621
-0.415217
-0.592239
-0.581283
-0.572853
-0.565368
-0.558055
-0.550934
-0.543986
-0.537168
-0.530458
-0.523845
-0.517325
-0.510894
-0.504553
-0.498302
-0.492142
-0.486076
-0.480107
-0.47424
-0.468481
-0.462838
-0.457323
-0.451948
-0.446731
-0.441688
-0.436848
-0.432287
-0.42802
-0.423501
-0.4184
-0.419167
-0.606585
-0.595108
-0.586233
-0.578323
-0.57058
-0.563033
-0.555666
-0.548437
-0.541326
-0.534322
-0.527421
-0.520619
-0.513914
-0.507307
-0.500797
-0.494386
-0.488075
-0.481866
-0.475765
-0.469778
-0.463915
-0.45819
-0.452621
-0.447224
-0.442034
-0.437132
-0.43254
-0.427667
-0.422164
-0.423081
-0.621472
-0.609445
-0.600102
-0.591746
-0.583554
-0.575563
-0.567761
-0.560107
-0.552583
-0.545177
-0.537884
-0.530701
-0.523625
-0.516655
-0.509788
-0.503023
-0.496361
-0.489801
-0.483346
-0.477001
-0.470774
-0.464679
-0.458731
-0.452951
-0.447372
-0.442089
-0.437127
-0.431851
-0.42589
-0.426928
-0.636902
-0.624294
-0.614459
-0.605636
-0.596976
-0.588525
-0.580272
-0.572181
-0.564231
-0.556413
-0.54872
-0.541149
-0.533694
-0.526353
-0.519123
-0.511999
-0.50498
-0.498061
-0.491243
-0.484528
-0.477921
-0.471434
-0.465081
-0.458882
-0.452874
-0.44716
-0.441771
-0.436029
-0.429542
-0.430654
-0.652872
-0.639653
-0.629302
-0.619992
-0.610845
-0.601916
-0.5932
-0.584659
-0.576273
-0.568033
-0.559933
-0.551965
-0.544127
-0.536411
-0.528813
-0.521326
-0.513945
-0.506662
-0.499474
-0.492379
-0.485379
-0.478479
-0.471694
-0.465039
-0.458554
-0.452349
-0.446463
-0.440173
-0.433067
-0.434184
-0.669379
-0.655517
-0.644625
-0.634807
-0.625156
-0.615735
-0.606541
-0.597538
-0.588707
-0.580038
-0.571522
-0.563154
-0.554927
-0.546834
-0.538866
-0.531015
-0.52327
-0.515622
-0.508062
-0.500581
-0.493176
-0.485848
-0.478603
-0.471453
-0.464435
-0.457667
-0.451194
-0.444247
-0.436392
-0.437404
-0.686417
-0.671878
-0.66042
-0.650075
-0.639902
-0.629973
-0.62029
-0.610816
-0.60153
-0.592424
-0.583489
-0.574716
-0.566099
-0.557627
-0.54929
-0.541077
-0.532972
-0.524962
-0.517031
-0.509165
-0.501352
-0.493583
-0.485856
-0.478172
-0.470562
-0.463144
-0.455968
-0.448217
-0.43943
-0.440166
-0.703979
-0.688725
-0.676675
-0.665782
-0.655071
-0.644622
-0.634439
-0.624483
-0.614737
-0.605189
-0.595829
-0.58665
-0.577641
-0.568793
-0.560091
-0.551521
-0.543064
-0.534701
-0.526411
-0.51817
-0.509954
-0.501744
-0.493522
-0.485272
-0.47701
-0.468845
-0.460822
-0.452061
-0.442065
-0.442247
-0.722054
-0.706043
-0.693373
-0.681914
-0.67065
-0.659669
-0.648975
-0.638532
-0.628318
-0.618323
-0.608537
-0.598951
-0.589554
-0.580333
-0.571273
-0.562356
-0.553561
-0.544864
-0.536234
-0.52764
-0.519046
-0.510414
-0.501706
-0.492879
-0.483917
-0.474905
-0.465861
-0.455811
-0.444184
-0.443363
-0.740636
-0.723809
-0.710491
-0.698449
-0.68662
-0.675096
-0.663885
-0.652947
-0.642262
-0.631818
-0.621605
-0.611613
-0.60183
-0.592243
-0.582835
-0.573587
-0.564474
-0.555468
-0.546532
-0.537627
-0.528702
-0.519702
-0.51056
-0.501196
-0.491543
-0.481632
-0.471425
-0.459794
-0.445961
-0.443388
-0.759752
-0.742003
-0.727998
-0.71536
-0.702956
-0.690883
-0.679149
-0.667714
-0.656554
-0.645659
-0.635019
-0.624623
-0.61446
-0.604515
-0.594772
-0.585211
-0.575805
-0.566526
-0.557333
-0.548179
-0.539005
-0.529735
-0.520273
-0.510491
-0.50025
-0.489495
-0.478089
-0.464597
-0.44755
-0.441471
-0.779452
-0.76059
-0.745847
-0.732607
-0.719629
-0.707007
-0.694749
-0.682813
-0.671178
-0.659832
-0.648766
-0.637968
-0.627429
-0.617135
-0.60707
-0.597215
-0.587546
-0.578036
-0.568647
-0.559331
-0.550025
-0.540641
-0.531055
-0.521079
-0.510463
-0.498983
-0.486212
-0.469842
-0.446441
-0.431965
-0.799262
-0.779374
-0.763966
-0.750154
-0.736614
-0.723446
-0.710664
-0.698226
-0.686113
-0.674315
-0.662822
-0.651624
-0.640713
-0.630075
-0.619699
-0.609568
-0.599665
-0.589969
-0.580453
-0.571082
-0.561811
-0.55257
-0.543254
-0.533682
-0.523568
-0.512541
-0.499718
-0.481538
-0.451927
-0.426424
-1.26785
-1.26665
-1.26345
-1.25871
-1.25244
-1.24469
-1.23553
-1.22504
-1.21328
-1.20036
-1.18634
-1.17131
-1.15536
-1.13857
-1.12102
-1.1028
-1.08398
-1.06465
-1.04487
-1.02473
-1.0043
-0.983651
-0.962839
-0.941929
-0.920978
-0.900038
-0.879155
-0.858343
-0.83759
-0.817331
-1.23335
-1.23212
-1.22906
-1.22441
-1.21825
-1.21064
-1.20167
-1.1914
-1.17992
-1.16732
-1.15367
-1.13906
-1.12357
-1.10727
-1.09026
-1.07261
-1.05439
-1.03569
-1.01658
-0.997128
-0.977408
-0.957486
-0.937424
-0.917284
-0.897122
-0.876995
-0.856958
-0.83706
-0.817356
-0.798033
-1.20472
-1.20348
-1.20053
-1.19602
-1.19001
-1.1826
-1.17384
-1.16383
-1.15265
-1.14036
-1.12707
-1.11285
-1.09777
-1.08192
-1.06537
-1.04822
-1.03052
-1.01236
-0.993806
-0.974933
-0.955808
-0.936495
-0.917057
-0.897554
-0.878043
-0.85858
-0.83922
-0.820017
-0.801033
-0.782348
-1.17752
-1.17638
-1.17359
-1.16928
-1.16351
-1.15635
-1.14788
-1.13818
-1.12733
-1.11541
-1.1025
-1.08868
-1.07403
-1.05863
-1.04255
-1.02588
-1.00869
-0.991045
-0.973026
-0.954699
-0.936132
-0.917388
-0.89853
-0.879617
-0.860704
-0.841846
-0.823096
-0.804504
-0.786125
-0.768011
-1.14974
-1.1488
-1.14626
-1.14223
-1.13677
-1.12995
-1.12184
-1.11251
-1.10205
-1.09054
-1.07807
-1.0647
-1.05051
-1.03559
-1.02001
-1.00385
-0.987171
-0.97006
-0.952582
-0.934805
-0.916797
-0.898621
-0.880338
-0.862005
-0.843679
-0.825412
-0.807254
-0.789253
-0.771457
-0.753907
-1.12166
-1.12102
-1.11881
-1.11514
-1.11007
-1.10365
-1.09595
-1.08706
-1.07705
-1.06601
-1.05401
-1.04113
-1.02745
-1.01303
-0.99797
-0.98233
-0.966188
-0.949615
-0.932682
-0.915456
-0.898003
-0.880386
-0.862665
-0.844899
-0.827141
-0.809442
-0.791853
-0.774419
-0.757182
-0.740183
-1.0934
-1.09313
-1.09134
-1.0881
-1.08347
-1.07752
-1.0703
-1.0619
-1.05239
-1.04186
-1.03039
-1.01803
-1.00488
-0.991002
-0.976477
-0.961379
-0.945781
-0.929756
-0.913371
-0.896695
-0.879791
-0.862725
-0.845554
-0.828336
-0.811125
-0.793973
-0.776928
-0.760035
-0.743333
-0.726863
-1.06499
-1.06517
-1.06385
-1.0611
-1.05698
-1.05154
-1.04486
-1.03699
-1.02803
-1.01806
-1.00714
-0.995349
-0.982756
-0.96944
-0.955477
-0.940939
-0.9259
-0.910431
-0.894601
-0.878474
-0.862118
-0.845593
-0.828959
-0.812275
-0.795594
-0.778968
-0.762443
-0.746067
-0.729876
-0.713912
-1.03651
-1.03718
-1.03638
-1.03416
-1.03059
-1.02572
-1.01961
-1.01233
-1.00396
-0.99458
-0.984255
-0.973053
-0.96105
-0.948321
-0.93494
-0.920981
-0.906516
-0.891614
-0.876343
-0.860768
-0.844955
-0.828965
-0.81286
-0.796695
-0.780527
-0.764406
-0.748381
-0.732498
-0.716795
-0.701313
-1.00804
-1.00925
-1.00899
-1.00735
-1.00437
-1.00009
-0.99459
-0.987925
-0.980178
-0.971421
-0.961717
-0.951135
-0.939747
-0.927628
-0.914851
-0.901488
-0.887609
-0.873284
-0.858579
-0.843559
-0.828289
-0.812829
-0.797242
-0.781586
-0.765914
-0.75028
-0.734733
-0.71932
-0.704079
-0.689055
-0.979697
-0.98145
-0.981769
-0.980718
-0.978344
-0.974692
-0.96982
-0.963795
-0.956696
-0.948587
-0.939527
-0.929587
-0.918837
-0.907349
-0.895194
-0.882443
-0.869165
-0.855427
-0.841294
-0.826832
-0.812104
-0.797172
-0.782096
-0.766937
-0.751748
-0.736582
-0.721492
-0.706525
-0.691723
-0.67713
-0.951568
-0.953874
-0.954775
-0.954326
-0.952572
-0.949556
-0.945331
-0.939964
-0.933529
-0.926083
-0.917687
-0.908407
-0.898313
-0.887473
-0.875956
-0.863831
-0.851165
-0.838024
-0.824472
-0.810573
-0.796389
-0.781982
-0.767413
-0.75274
-0.738019
-0.723305
-0.708651
-0.694107
-0.679717
-0.66553
-0.923746
-0.926602
-0.928081
-0.928234
-0.927103
-0.924727
-0.921156
-0.916456
-0.910692
-0.903921
-0.8962
-0.887595
-0.87817
-0.867992
-0.857126
-0.845639
-0.833597
-0.821063
-0.8081
-0.794769
-0.781133
-0.767251
-0.753184
-0.73899
-0.724724
-0.710445
-0.696205
-0.68206
-0.668056
-0.654245
-0.896313
-0.899706
-0.901754
-0.902501
-0.901987
-0.900248
-0.897329
-0.893295
-0.888205
-0.882113
-0.875075
-0.867152
-0.858405
-0.848898
-0.838693
-0.827855
-0.816447
-0.80453
-0.792165
-0.77941
-0.766326
-0.752971
-0.739403
-0.72568
-0.711859
-0.697997
-0.684151
-0.670378
-0.656731
-0.643266
-0.869347
-0.873258
-0.875856
-0.877183
-0.877272
-0.876157
-0.873883
-0.870507
-0.866088
-0.860674
-0.854319
-0.84708
-0.839015
-0.830185
-0.820649
-0.810469
-0.799704
-0.788414
-0.776655
-0.764484
-0.751958
-0.739133
-0.726064
-0.712808
-0.699421
-0.685961
-0.672487
-0.65906
-0.645737
-0.632582
-0.842916
-0.847319
-0.850443
-0.852327
-0.853001
-0.852493
-0.850847
-0.848119
-0.84436
-0.839617
-0.83394
-0.827382
-0.82
-0.811849
-0.802987
-0.793471
-0.783358
-0.772703
-0.76156
-0.749982
-0.738022
-0.725732
-0.713164
-0.700373
-0.687412
-0.67434
-0.661215
-0.648103
-0.635069
-0.622186
-0.817081
-0.821943
-0.825565
-0.827978
-0.82921
-0.829288
-0.828251
-0.826152
-0.823039
-0.818954
-0.813945
-0.808062
-0.801358
-0.793886
-0.7857
-0.776852
-0.767397
-0.757385
-0.746867
-0.735892
-0.724508
-0.712761
-0.700701
-0.688375
-0.675836
-0.663138
-0.65034
-0.637512
-0.624726
-0.612066
-0.791888
-0.797176
-0.801262
-0.804174
-0.805935
-0.80657
-0.806118
-0.804627
-0.802141
-0.798697
-0.794341
-0.789123
-0.783091
-0.776293
-0.768781
-0.760603
-0.751811
-0.74245
-0.732567
-0.722205
-0.711408
-0.700217
-0.688674
-0.67682
-0.664701
-0.652366
-0.639874
-0.627295
-0.614708
-0.602214
-0.767376
-0.773054
-0.777569
-0.780944
-0.783201
-0.784364
-0.78447
-0.783562
-0.781678
-0.778855
-0.775137
-0.770568
-0.765196
-0.759065
-0.752223
-0.744715
-0.736588
-0.727884
-0.718645
-0.70891
-0.698715
-0.688095
-0.677083
-0.665712
-0.654018
-0.642042
-0.629835
-0.617467
-0.605023
-0.592621
-0.743572
-0.749604
-0.754511
-0.758314
-0.761034
-0.762693
-0.763325
-0.762971
-0.761663
-0.759437
-0.756335
-0.752399
-0.747672
-0.742198
-0.736018
-0.729177
-0.721716
-0.713675
-0.70509
-0.695996
-0.68642
-0.676391
-0.665931
-0.655061
-0.643804
-0.632188
-0.620251
-0.608053
-0.595686
-0.583282
-0.720498
-0.726846
-0.732109
-0.736304
-0.739452
-0.741573
-0.742699
-0.742867
-0.742106
-0.740451
-0.737942
-0.734617
-0.730518
-0.725685
-0.720158
-0.713978
-0.707183
-0.699809
-0.691888
-0.683448
-0.674513
-0.665099
-0.655218
-0.644877
-0.63408
-0.622836
-0.61116
-0.599094
-0.586725
-0.574197
-0.698164
-0.704794
-0.710376
-0.714928
-0.718468
-0.721016
-0.722603
-0.72326
-0.723015
-0.721902
-0.719958
-0.717221
-0.713729
-0.709521
-0.704634
-0.699107
-0.692974
-0.68627
-0.679022
-0.671253
-0.66298
-0.65421
-0.644943
-0.635169
-0.62487
-0.614024
-0.602614
-0.590646
-0.578186
-0.565372
-0.676578
-0.683454
-0.689322
-0.694196
-0.698092
-0.701033
-0.703045
-0.704156
-0.704395
-0.703793
-0.702386
-0.700211
-0.697303
-0.693699
-0.689436
-0.68455
-0.679076
-0.673042
-0.666474
-0.659391
-0.651804
-0.643712
-0.635102
-0.625945
-0.616198
-0.605799
-0.594682
-0.582792
-0.570147
-0.556833
-0.655741
-0.662831
-0.66895
-0.674111
-0.678331
-0.681628
-0.68403
-0.685561
-0.68625
-0.686128
-0.685228
-0.683586
-0.681235
-0.678214
-0.674557
-0.6703
-0.665474
-0.660108
-0.654226
-0.647844
-0.640969
-0.633591
-0.625689
-0.617214
-0.608093
-0.59822
-0.587458
-0.575655
-0.562736
-0.548635
-0.63565
-0.642922
-0.64926
-0.654676
-0.659184
-0.662804
-0.66556
-0.667477
-0.668583
-0.668907
-0.668482
-0.667342
-0.665523
-0.663059
-0.659987
-0.656341
-0.652153
-0.64745
-0.642257
-0.636589
-0.630449
-0.623826
-0.616688
-0.608973
-0.600579
-0.591351
-0.581059
-0.56941
-0.556166
-0.540916
-0.616297
-0.623719
-0.630244
-0.63588
-0.640642
-0.644549
-0.647623
-0.64989
-0.651376
-0.652111
-0.652127
-0.651457
-0.650136
-0.648201
-0.645688
-0.642631
-0.639062
-0.635012
-0.630504
-0.625556
-0.620172
-0.61434
-0.608027
-0.601161
-0.593619
-0.585199
-0.575569
-0.564237
-0.550735
-0.533981
-0.597672
-0.605216
-0.611895
-0.617719
-0.622702
-0.62686
-0.630216
-0.632795
-0.634624
-0.635733
-0.636151
-0.635913
-0.635054
-0.633612
-0.631624
-0.629124
-0.626148
-0.622727
-0.61889
-0.614655
-0.610032
-0.605017
-0.599577
-0.593646
-0.587094
-0.579687
-0.570994
-0.560279
-0.546783
-0.528206
-0.579767
-0.587428
-0.594256
-0.600259
-0.605452
-0.60985
-0.613475
-0.616353
-0.61851
-0.619976
-0.62078
-0.620958
-0.620546
-0.619582
-0.618103
-0.616148
-0.613753
-0.610955
-0.607784
-0.604267
-0.60042
-0.596248
-0.591734
-0.586825
-0.581411
-0.575267
-0.5679
-0.558324
-0.54532
-0.523927
-0.562546
-0.570344
-0.57734
-0.583544
-0.588969
-0.593629
-0.597546
-0.60075
-0.603265
-0.605121
-0.606349
-0.606985
-0.607067
-0.606633
-0.605724
-0.60438
-0.602642
-0.600549
-0.598139
-0.595443
-0.592488
-0.589291
-0.585855
-0.58216
-0.578144
-0.573663
-0.568315
-0.561031
-0.550022
-0.524339
-0.545913
-0.553615
-0.56055
-0.566728
-0.572163
-0.576868
-0.580867
-0.584189
-0.586861
-0.588913
-0.590378
-0.591294
-0.5917
-0.591638
-0.591153
-0.590291
-0.589099
-0.587624
-0.585913
-0.584011
-0.581961
-0.579802
-0.577571
-0.575299
-0.573018
-0.570776
-0.568482
-0.565541
-0.561824
-0.542477
-0.433743
-0.482984
-0.530985
-0.578361
-0.624928
-0.670518
-0.715012
-0.758299
-0.800275
-0.84084
-0.879904
-0.917381
-0.953194
-0.987271
-1.01955
-1.04997
-1.07847
-1.10502
-1.12959
-1.15213
-1.17263
-1.19108
-1.20747
-1.2218
-1.23408
-1.24433
-1.25257
-1.25879
-1.26301
-1.26559
-0.426425
-0.474517
-0.521584
-0.56787
-0.61326
-0.657634
-0.700898
-0.742954
-0.783706
-0.823062
-0.860935
-0.897247
-0.931923
-0.964895
-0.9961
-1.02548
-1.053
-1.0786
-1.10226
-1.12394
-1.14364
-1.16134
-1.17704
-1.19074
-1.20245
-1.2122
-1.22001
-1.22591
-1.22994
-1.23227
-0.415731
-0.462813
-0.509025
-0.554431
-0.598926
-0.64241
-0.68479
-0.725973
-0.765869
-0.804388
-0.841449
-0.876973
-0.910888
-0.943129
-0.973635
-1.00235
-1.02923
-1.05424
-1.07734
-1.09851
-1.11773
-1.13499
-1.15029
-1.16364
-1.17504
-1.18453
-1.19213
-1.19787
-1.20178
-1.20398
-0.401428
-0.447586
-0.492966
-0.537565
-0.581275
-0.623997
-0.665637
-0.706106
-0.745313
-0.783172
-0.819602
-0.854527
-0.887876
-0.919584
-0.949591
-0.977843
-1.0043
-1.02891
-1.05165
-1.07251
-1.09145
-1.10847
-1.12356
-1.13674
-1.14801
-1.15741
-1.16495
-1.17066
-1.17458
-1.17679
-0.384035
-0.429273
-0.473808
-0.517598
-0.560535
-0.602516
-0.643452
-0.68325
-0.721822
-0.759083
-0.794954
-0.829358
-0.862225
-0.893491
-0.923095
-0.950985
-0.977116
-1.00145
-1.02395
-1.04461
-1.06339
-1.08028
-1.09529
-1.10843
-1.11969
-1.12911
-1.1367
-1.1425
-1.14654
-1.14888
-0.364316
-0.408635
-0.452312
-0.495288
-0.537452
-0.578705
-0.618953
-0.658108
-0.696081
-0.732788
-0.768149
-0.80209
-0.834539
-0.865432
-0.894709
-0.922318
-0.948213
-0.972356
-0.994714
-1.01526
-1.03398
-1.05086
-1.06589
-1.07908
-1.09044
-1.09998
-1.10773
-1.11372
-1.11798
-1.12055
-0.342993
-0.386381
-0.429185
-0.471332
-0.512714
-0.553234
-0.592799
-0.63132
-0.66871
-0.704884
-0.739765
-0.773275
-0.805345
-0.83591
-0.86491
-0.892293
-0.918012
-0.942029
-0.964309
-0.984826
-1.00356
-1.02049
-1.03562
-1.04895
-1.06048
-1.07023
-1.07823
-1.0845
-1.08905
-1.09196
-0.320705
-0.363144
-0.405051
-0.446348
-0.48693
-0.526702
-0.565573
-0.603454
-0.640258
-0.675903
-0.710309
-0.7434
-0.775108
-0.805366
-0.834114
-0.861301
-0.886878
-0.910806
-0.933049
-0.953579
-0.972374
-0.989416
-1.0047
-1.01822
-1.02999
-1.04001
-1.04831
-1.05492
-1.05985
-1.06315
-0.298002
-0.339468
-0.380455
-0.420879
-0.460639
-0.499642
-0.5378
-0.575024
-0.61123
-0.646334
-0.680258
-0.712927
-0.744271
-0.774225
-0.802728
-0.829728
-0.855177
-0.879032
-0.901259
-0.921825
-0.940707
-0.957887
-0.973356
-0.987108
-0.999147
-1.00948
-1.01813
-1.02512
-1.03046
-1.0342
-0.275328
-0.315804
-0.355849
-0.395377
-0.434292
-0.472505
-0.509929
-0.546476
-0.582064
-0.61661
-0.650037
-0.68227
-0.713238
-0.742878
-0.771129
-0.797937
-0.823254
-0.847037
-0.869248
-0.889855
-0.908833
-0.926162
-0.941829
-0.955828
-0.968158
-0.978829
-0.987853
-0.995249
-1.00103
-1.00525
-0.253036
-0.292507
-0.331592
-0.370206
-0.408258
-0.44566
-0.482328
-0.518178
-0.553127
-0.587094
-0.620003
-0.65178
-0.682354
-0.711662
-0.739643
-0.766244
-0.791416
-0.815113
-0.837298
-0.857937
-0.877003
-0.894476
-0.91034
-0.924585
-0.937211
-0.948223
-0.95763
-0.965447
-0.971691
-0.976398
-0.231391
-0.269848
-0.307962
-0.345648
-0.382821
-0.419396
-0.455291
-0.490424
-0.524714
-0.558082
-0.590451
-0.62175
-0.651907
-0.680861
-0.70855
-0.734921
-0.759924
-0.783515
-0.805653
-0.826305
-0.845442
-0.863042
-0.879088
-0.893569
-0.906481
-0.917827
-0.927613
-0.93585
-0.942555
-0.947755
-0.210584
-0.248024
-0.28516
-0.321911
-0.358195
-0.393931
-0.42904
-0.463441
-0.497055
-0.529804
-0.561614
-0.592412
-0.622129
-0.650704
-0.678075
-0.70419
-0.728999
-0.752456
-0.774521
-0.79516
-0.814343
-0.832047
-0.848253
-0.862948
-0.876126
-0.887789
-0.897938
-0.906583
-0.913737
-0.919423
-0.190743
-0.227169
-0.263328
-0.299141
-0.334532
-0.369424
-0.403738
-0.437396
-0.470321
-0.502436
-0.533668
-0.563945
-0.593201
-0.621372
-0.648401
-0.674233
-0.698819
-0.722113
-0.744075
-0.764671
-0.78387
-0.801648
-0.817985
-0.832867
-0.846286
-0.858239
-0.868727
-0.877758
-0.88534
-0.891495
-0.171946
-0.207366
-0.242552
-0.277432
-0.311932
-0.345978
-0.379494
-0.412404
-0.444632
-0.476102
-0.506742
-0.536481
-0.565256
-0.593003
-0.619664
-0.645187
-0.669522
-0.692624
-0.714453
-0.734974
-0.754157
-0.771977
-0.788413
-0.803449
-0.817076
-0.829288
-0.840085
-0.849472
-0.857457
-0.864055
-0.154233
-0.188658
-0.222881
-0.256835
-0.290451
-0.323656
-0.356378
-0.388539
-0.420066
-0.450884
-0.480921
-0.510111
-0.538387
-0.565691
-0.591964
-0.617153
-0.64121
-0.664091
-0.685757
-0.706172
-0.725306
-0.743134
-0.759635
-0.774791
-0.788592
-0.801029
-0.812101
-0.821811
-0.830166
-0.837178
-0.137612
-0.171055
-0.204329
-0.23737
-0.270112
-0.302487
-0.334421
-0.365838
-0.396665
-0.426829
-0.456259
-0.484889
-0.512655
-0.539499
-0.565365
-0.590199
-0.613955
-0.636589
-0.658063
-0.678342
-0.697395
-0.715198
-0.731729
-0.74697
-0.760908
-0.773535
-0.784846
-0.794845
-0.803535
-0.810927
-0.122068
-0.154546
-0.186885
-0.219028
-0.250913
-0.282471
-0.313629
-0.344311
-0.374443
-0.403955
-0.432776
-0.460842
-0.48809
-0.514462
-0.539905
-0.564367
-0.5878
-0.610164
-0.63142
-0.651534
-0.670477
-0.688223
-0.70475
-0.72004
-0.73408
-0.746861
-0.758377
-0.768627
-0.777617
-0.785354
-0.107571
-0.139097
-0.170519
-0.201783
-0.232829
-0.263588
-0.293985
-0.323945
-0.353393
-0.382259
-0.410474
-0.437974
-0.464699
-0.490592
-0.5156
-0.539674
-0.562768
-0.58484
-0.605856
-0.62578
-0.644585
-0.662244
-0.678736
-0.694043
-0.70815
-0.721049
-0.732733
-0.7432
-0.752453
-0.760498
-0.0940788
-0.124666
-0.155188
-0.185594
-0.215823
-0.245804
-0.27546
-0.304713
-0.33349
-0.361719
-0.389335
-0.416272
-0.442472
-0.467881
-0.492446
-0.516121
-0.53886
-0.560625
-0.58138
-0.601092
-0.619734
-0.63728
-0.653708
-0.669
-0.683143
-0.696126
-0.707943
-0.718591
-0.728071
-0.736386
-0.0815408
-0.111197
-0.140838
-0.170409
-0.199846
-0.229073
-0.258009
-0.286576
-0.314698
-0.342303
-0.369328
-0.395708
-0.421386
-0.446309
-0.470427
-0.493694
-0.516068
-0.537512
-0.557989
-0.57747
-0.595928
-0.613337
-0.629675
-0.644924
-0.659072
-0.672109
-0.684025
-0.694819
-0.704489
-0.713039
-0.0699005
-0.0986277
-0.127408
-0.156171
-0.184844
-0.213344
-0.241586
-0.269487
-0.296971
-0.323969
-0.350414
-0.376245
-0.401407
-0.425846
-0.449515
-0.472371
-0.494372
-0.515484
-0.535671
-0.554905
-0.573159
-0.590409
-0.606633
-0.621815
-0.635941
-0.649
-0.660986
-0.671892
-0.681719
-0.690468
-0.0590978
-0.0868884
-0.114831
-0.142815
-0.170755
-0.198559
-0.226134
-0.253393
-0.280261
-0.306667
-0.332546
-0.35784
-0.382492
-0.406453
-0.429675
-0.452118
-0.473742
-0.494514
-0.514401
-0.533375
-0.55141
-0.568483
-0.584572
-0.599663
-0.613742
-0.626798
-0.638823
-0.649811
-0.659762
-0.668678
-0.0490612
-0.0758959
-0.103029
-0.130269
-0.157513
-0.184655
-0.211592
-0.238235
-0.264509
-0.290342
-0.315672
-0.340441
-0.364594
-0.388082
-0.410862
-0.432893
-0.454139
-0.474567
-0.494147
-0.51285
-0.530654
-0.547534
-0.563472
-0.578452
-0.592462
-0.60549
-0.617529
-0.628571
-0.638617
-0.647669
-0.0397073
-0.0655609
-0.0919274
-0.118468
-0.145059
-0.171576
-0.197907
-0.223962
-0.249664
-0.274944
-0.299742
-0.324
-0.347666
-0.370692
-0.393035
-0.414657
-0.435525
-0.455607
-0.474874
-0.4933
-0.510862
-0.527538
-0.54331
-0.558162
-0.572083
-0.585062
-0.59709
-0.608162
-0.618276
-0.627435
-0.0309311
-0.0558275
-0.0815153
-0.107407
-0.133391
-0.159323
-0.185079
-0.21057
-0.235722
-0.260469
-0.28475
-0.308511
-0.331699
-0.35427
-0.376182
-0.397399
-0.417889
-0.437622
-0.456571
-0.474711
-0.492022
-0.508482
-0.524073
-0.538781
-0.552595
-0.565504
-0.577499
-0.588575
-0.598731
-0.607968
-0.0225778
-0.0465991
-0.0717455
-0.0970552
-0.122476
-0.147859
-0.173065
-0.198013
-0.222633
-0.246862
-0.270641
-0.293915
-0.316636
-0.338761
-0.360247
-0.381062
-0.401176
-0.42056
-0.439188
-0.457039
-0.474092
-0.490327
-0.505727
-0.520279
-0.53397
-0.546791
-0.558734
-0.569793
-0.579967
-0.589258
-0.014162
-0.0370719
-0.0618467
-0.0866845
-0.111623
-0.136514
-0.16122
-0.185668
-0.209797
-0.233547
-0.256861
-0.279686
-0.301976
-0.323687
-0.34478
-0.365224
-0.384991
-0.404053
-0.422386
-0.439971
-0.456788
-0.472818
-0.488044
-0.502454
-0.516036
-0.528781
-0.540679
-0.551727
-0.561923
-0.571268
-0.0043979
-0.0258489
-0.0506008
-0.0752458
-0.0999131
-0.124464
-0.14879
-0.17285
-0.196592
-0.21996
-0.242899
-0.265359
-0.287293
-0.30866
-0.329424
-0.349557
-0.369031
-0.387821
-0.405907
-0.42327
-0.439892
-0.455754
-0.470842
-0.485142
-0.498644
-0.511339
-0.52322
-0.534281
-0.544521
-0.553942
0.00514704
-0.0184435
-0.0442183
-0.0688941
-0.0934065
-0.117645
-0.141554
-0.165154
-0.188422
-0.211307
-0.233756
-0.25572
-0.277155
-0.298021
-0.318286
-0.337924
-0.356911
-0.375227
-0.392852
-0.409772
-0.425971
-0.441434
-0.456146
-0.470098
-0.483279
-0.495683
-0.507304
-0.518137
-0.528181
-0.537439
0.529443
0.536528
0.543786
0.551178
0.558704
0.56636
0.574136
0.582022
0.590004
0.598068
0.606195
0.614365
0.622554
0.630735
0.63888
0.646961
0.654952
0.662828
0.670575
0.678189
0.685684
0.693103
0.700525
0.708084
0.715984
0.724526
0.734023
0.744749
0.758531
0.77852
0.521975
0.528797
0.535895
0.543109
0.550434
0.557878
0.565433
0.573085
0.58082
0.588622
0.596472
0.604346
0.61222
0.620066
0.627854
0.635555
0.64314
0.650585
0.657872
0.665
0.671981
0.678861
0.685724
0.69271
0.700034
0.708008
0.716967
0.727213
0.740634
0.760516
0.513647
0.520156
0.527069
0.534078
0.541173
0.548373
0.555673
0.563057
0.570509
0.578012
0.585544
0.593081
0.600597
0.608062
0.615446
0.622717
0.629846
0.636807
0.643583
0.65017
0.656584
0.662872
0.669125
0.675488
0.682189
0.689557
0.697948
0.707701
0.720774
0.74056
0.504467
0.510614
0.517319
0.524096
0.53093
0.537856
0.544868
0.55195
0.559083
0.566248
0.573423
0.580581
0.587696
0.594736
0.601669
0.608463
0.615087
0.621514
0.627727
0.633721
0.639516
0.645161
0.650753
0.656445
0.662478
0.669197
0.676983
0.686207
0.698865
0.718399
0.494445
0.500182
0.506653
0.513173
0.519717
0.526337
0.53303
0.539775
0.546553
0.553343
0.560121
0.566861
0.573532
0.580103
0.58654
0.59281
0.59888
0.604723
0.610321
0.615672
0.620795
0.625747
0.630628
0.635602
0.640921
0.64695
0.654091
0.662745
0.674933
0.694111
0.483592
0.488872
0.495087
0.501324
0.507547
0.513831
0.520172
0.526547
0.532934
0.539312
0.545655
0.551935
0.558122
0.564182
0.570078
0.575777
0.581245
0.586455
0.591388
0.596045
0.600448
0.604657
0.608779
0.612988
0.61755
0.622845
0.629302
0.637348
0.649019
0.667766
0.47192
0.476699
0.482633
0.488562
0.494437
0.500354
0.506311
0.512282
0.518243
0.524173
0.530044
0.535827
0.541488
0.546994
0.552305
0.557388
0.562207
0.566736
0.570957
0.574871
0.578505
0.581922
0.585238
0.588637
0.592398
0.596921
0.602654
0.610052
0.621163
0.639415
0.459442
0.463677
0.469309
0.474904
0.480403
0.485922
0.491464
0.496999
0.502501
0.507948
0.51331
0.518557
0.523654
0.528563
0.533247
0.537668
0.541794
0.545596
0.549057
0.552181
0.554999
0.557578
0.560043
0.562589
0.565509
0.569219
0.574191
0.580906
0.591416
0.609116
0.446174
0.449822
0.455131
0.460368
0.465462
0.470554
0.475651
0.480719
0.485731
0.49066
0.495478
0.500152
0.504645
0.508918
0.512932
0.516651
0.520039
0.523068
0.525725
0.528013
0.529967
0.531665
0.533237
0.534889
0.536929
0.53979
0.543965
0.549963
0.559832
0.576927
0.43213
0.435153
0.440117
0.444973
0.449635
0.454273
0.458897
0.463467
0.467956
0.472336
0.476575
0.480639
0.48449
0.488088
0.491394
0.494369
0.496977
0.499192
0.501
0.502408
0.503458
0.504232
0.50487
0.50559
0.506712
0.508689
0.512034
0.517282
0.526474
0.542913
0.417327
0.419689
0.424289
0.42874
0.432944
0.437102
0.441223
0.445268
0.449204
0.453002
0.456629
0.460049
0.463223
0.46611
0.468669
0.470861
0.472649