/*--------------------------------*- C++ -*----------------------------------*\
  =========                 |
  \\      /  F ield         | OpenFOAM: The Open Source CFD Toolbox
   \\    /   O peration     | Website:  https://openfoam.org
    \\  /    A nd           | Version:  6.0
     \\/     M anipulation  |
\*---------------------------------------------------------------------------*/
FoamFile
{
    version     2.0;
    format      ascii;
    class       volScalarField;
    location    "1.25";
    object      p;
}
// * * * * * * * * * * * * * * * * * * * * * * * * * * * * * * * * * * * * * //

dimensions      [0 2 -2 0 0 0 0];

internalField   nonuniform List<scalar> 
2400
(
-0.402021
-0.384401
-0.367842
-0.350032
-0.330268
-0.30913
-0.287244
-0.265217
-0.243709
-0.223352
-0.420483
-0.401243
-0.383371
-0.364257
-0.343128
-0.320604
-0.297332
-0.273894
-0.250959
-0.229741
-0.445991
-0.424251
-0.404557
-0.383853
-0.361181
-0.337157
-0.312406
-0.287442
-0.262928
-0.240894
-0.478238
-0.453207
-0.431191
-0.408591
-0.384167
-0.358489
-0.332134
-0.305503
-0.279231
-0.256366
-0.516791
-0.487742
-0.462914
-0.438088
-0.411661
-0.384132
-0.355999
-0.327508
-0.299229
-0.275409
-0.56108
-0.527358
-0.499248
-0.47185
-0.443137
-0.413508
-0.383359
-0.352746
-0.322101
-0.297005
-0.610423
-0.571461
-0.539632
-0.50931
-0.477991
-0.445962
-0.41351
-0.38046
-0.346968
-0.319968
-0.664053
-0.61937
-0.583428
-0.54983
-0.515546
-0.480736
-0.445569
-0.409581
-0.372399
-0.342392
-0.721094
-0.670313
-0.629946
-0.592772
-0.555192
-0.517199
-0.478724
-0.438719
-0.395864
-0.360528
-0.780298
-0.723314
-0.678386
-0.637512
-0.596622
-0.555645
-0.51428
-0.470881
-0.423181
-0.380932
-1.1535
-1.15965
-1.15149
-1.13071
-1.09901
-1.05818
-1.01006
-0.956451
-0.899074
-0.839671
-1.0596
-1.06601
-1.05918
-1.04062
-1.01196
-0.974907
-0.931207
-0.882582
-0.830678
-0.777079
-0.972374
-0.9816
-0.978246
-0.963637
-0.939258
-0.906716
-0.867661
-0.823743
-0.776575
-0.727652
-0.885827
-0.898878
-0.900004
-0.890289
-0.871019
-0.843617
-0.809584
-0.770461
-0.727779
-0.683009
-0.79948
-0.816118
-0.821658
-0.816929
-0.802974
-0.78098
-0.752217
-0.718027
-0.679798
-0.638928
-0.717149
-0.736568
-0.745846
-0.745594
-0.736618
-0.719847
-0.696275
-0.666953
-0.633001
-0.595662
-0.641223
-0.662444
-0.674522
-0.677912
-0.673233
-0.661186
-0.642477
-0.617794
-0.587813
-0.553514
-0.572593
-0.59479
-0.60879
-0.614962
-0.613815
-0.605898
-0.591694
-0.571471
-0.545135
-0.512866
-0.511165
-0.533794
-0.549109
-0.557457
-0.559321
-0.555226
-0.545589
-0.530383
-0.508349
-0.476868
-0.456926
-0.47869
-0.49407
-0.503419
-0.507259
-0.506224
-0.500951
-0.491743
-0.477259
-0.452568
-0.270153
-0.409245
-0.542256
-0.666897
-0.780742
-0.881701
-0.968126
-1.03885
-1.0932
-1.13113
-0.232282
-0.361945
-0.486233
-0.602803
-0.709368
-0.803962
-0.885033
-0.951482
-1.00269
-1.03855
-0.176755
-0.297948
-0.414876
-0.525212
-0.626758
-0.717607
-0.796216
-0.861454
-0.912624
-0.949486
-0.11898
-0.231375
-0.340684
-0.444656
-0.541187
-0.628449
-0.70493
-0.769472
-0.821303
-0.860046
-0.0673283
-0.17062
-0.271893
-0.368942
-0.45977
-0.542676
-0.616232
-0.67931
-0.731115
-0.771186
-0.0243316
-0.118916
-0.21236
-0.302411
-0.387205
-0.465212
-0.535124
-0.595894
-0.646756
-0.687223
0.0103936
-0.0762818
-0.162581
-0.245978
-0.324801
-0.397736
-0.463613
-0.521481
-0.570639
-0.610618
0.0387082
-0.0404838
-0.120493
-0.197906
-0.271222
-0.339344
-0.401229
-0.456022
-0.503096
-0.542022
0.0619365
-0.0099119
-0.0844445
-0.156623
-0.225044
-0.288778
-0.346889
-0.398639
-0.443488
-0.48106
0.073085
0.00575272
-0.0640174
-0.130478
-0.193212
-0.251622
-0.304863
-0.352353
-0.393694
-0.428601
0.552767
0.576354
0.602052
0.628929
0.656649
0.684696
0.712171
0.738412
0.768522
0.815248
0.534293
0.555947
0.579973
0.604913
0.630256
0.655395
0.679298
0.701187
0.726281
0.768387
0.508132
0.526822
0.548309
0.570337
0.592157
0.613095
0.632033
0.648189
0.667011
0.703283
0.474527
0.489315
0.507464
0.525661
0.542876
0.5584
0.571074
0.580224
0.591621
0.620908
0.433806
0.443889
0.458003
0.471535
0.483165
0.492179
0.497433
0.498466
0.501446
0.522759
0.38637
0.39113
0.400655
0.408802
0.413995
0.415561
0.412426
0.404438
0.398223
0.410733
0.332706
0.331748
0.336308
0.338495
0.336557
0.329929
0.317651
0.299979
0.284027
0.287093
0.273491
0.266676
0.266093
0.261872
0.252267
0.236898
0.214967
0.187215
0.16123
0.154419
0.209406
0.197272
0.191576
0.180514
0.162801
0.138325
0.106466
0.0685016
0.0324568
0.0155514
0.139094
0.124247
0.11368
0.0955745
0.0697383
0.0361316
-0.00563983
-0.0536587
-0.0995696
-0.126711
0.324828
0.322404
0.326336
0.326897
0.32479
0.322167
0.321531
0.327005
0.343964
0.370108
0.37999
0.379661
0.386386
0.391563
0.394833
0.397875
0.402752
0.41305
0.434554
0.467191
0.426667
0.430795
0.441145
0.451086
0.459836
0.468581
0.47898
0.494083
0.519884
0.558342
0.467081
0.47602
0.490159
0.504569
0.518448
0.532601
0.548268
0.567925
0.597602
0.641065
0.501109
0.514543
0.532276
0.55075
0.569267
0.588334
0.608781
0.632494
0.665423
0.712958
0.528343
0.545719
0.566623
0.588596
0.611091
0.634364
0.658868
0.685907
0.721266
0.771818
0.548457
0.569032
0.592504
0.617262
0.642904
0.669483
0.697096
0.726512
0.763312
0.815716
0.561153
0.584035
0.609346
0.636056
0.663882
0.692696
0.722289
0.752942
0.790038
0.843057
0.56619
0.590381
0.616709
0.644456
0.673395
0.70325
0.733538
0.764138
0.800277
0.852627
0.563413
0.587847
0.614313
0.642123
0.671038
0.70065
0.730247
0.759392
0.793231
0.843565
0.274627
0.220882
0.161907
0.103875
0.0471612
-0.00764926
-0.0597206
-0.108523
-0.153705
-0.194996
0.273374
0.216587
0.154928
0.0928567
0.0319933
-0.026704
-0.0823717
-0.134342
-0.18212
-0.225334
0.267646
0.204702
0.138799
0.0728787
0.00853077
-0.0531991
-0.111371
-0.165215
-0.214154
-0.257773
0.26058
0.191725
0.121244
0.0512511
-0.0166857
-0.0813764
-0.14179
-0.197091
-0.246659
-0.290079
0.25222
0.177793
0.10262
0.0285306
-0.0428492
-0.110198
-0.17241
-0.228611
-0.278185
-0.32076
0.243603
0.163714
0.0839204
0.0059957
-0.0683929
-0.137851
-0.201242
-0.257708
-0.306686
-0.347911
0.237371
0.152447
0.0684341
-0.0128569
-0.0897407
-0.160805
-0.224939
-0.281353
-0.329586
-0.369519
0.238011
0.148754
0.0610572
-0.0232235
-0.102391
-0.175055
-0.240159
-0.297001
-0.345228
-0.384857
0.250264
0.156464
0.0645041
-0.0237021
-0.106437
-0.182303
-0.250256
-0.309616
-0.360066
-0.401668
0.269641
0.168633
0.0694106
-0.0260019
-0.115803
-0.198479
-0.272861
-0.338159
-0.39398
-0.440308
-0.232244
-0.26538
-0.294478
-0.319733
-0.341411
-0.359797
-0.375143
-0.387192
-0.394797
-0.390495
-0.263785
-0.297337
-0.326026
-0.349995
-0.369423
-0.384426
-0.39501
-0.400619
-0.399863
-0.38793
-0.295874
-0.328299
-0.355119
-0.376519
-0.392718
-0.403887
-0.410149
-0.41139
-0.407272
-0.396184
-0.327205
-0.357911
-0.382379
-0.400918
-0.413887
-0.42164
-0.424544
-0.422923
-0.417029
-0.40626
-0.356306
-0.384774
-0.406525
-0.422049
-0.431895
-0.436623
-0.436848
-0.433171
-0.426059
-0.415316
-0.381523
-0.40758
-0.426661
-0.439445
-0.446667
-0.449062
-0.447384
-0.442376
-0.43457
-0.424003
-0.40149
-0.425652
-0.442787
-0.453723
-0.459309
-0.460379
-0.45773
-0.452113
-0.444051
-0.433703
-0.416385
-0.440004
-0.456622
-0.467135
-0.472421
-0.473327
-0.47062
-0.464967
-0.456887
-0.446615
-0.434936
-0.460085
-0.478025
-0.489643
-0.495815
-0.497339
-0.494949
-0.489267
-0.480755
-0.469747
-0.477379
-0.50571
-0.52603
-0.539239
-0.546249
-0.547902
-0.544908
-0.537891
-0.527368
-0.513657
-0.496782
-0.456582
-0.434455
-0.421198
-0.410419
-0.399806
-0.387356
-0.370098
-0.344415
-0.318247
-0.478455
-0.441875
-0.420824
-0.407267
-0.395596
-0.383817
-0.370334
-0.353018
-0.329885
-0.309455
-0.459255
-0.426408
-0.406526
-0.392748
-0.380338
-0.367753
-0.353877
-0.337437
-0.317853
-0.301748
-0.440165
-0.411015
-0.392319
-0.378332
-0.365169
-0.351705
-0.337192
-0.32088
-0.302843
-0.288049
-0.422329
-0.396643
-0.379065
-0.36486
-0.350931
-0.336543
-0.321279
-0.304793
-0.287454
-0.272691
-0.40691
-0.38429
-0.367678
-0.353212
-0.3385
-0.323147
-0.30703
-0.290119
-0.272915
-0.257549
-0.395051
-0.374947
-0.359069
-0.344254
-0.328709
-0.312334
-0.295246
-0.277656
-0.260132
-0.243839
-0.387836
-0.369552
-0.354094
-0.338804
-0.322354
-0.304893
-0.286727
-0.26825
-0.250064
-0.232718
-0.386224
-0.368934
-0.353517
-0.337588
-0.320145
-0.301529
-0.282199
-0.262668
-0.243561
-0.225151
-0.390892
-0.37374
-0.357951
-0.341192
-0.322651
-0.302813
-0.282241
-0.26152
-0.241294
-0.221873
-0.161271
-0.0410003
9.61081e-05
0.0194374
0.0192169
0.0149101
0.0103788
0.00679198
0.00431645
0.00267291
0.00163511
0.000999849
0.00060168
0.00033423
0.000173839
0.000111967
9.62804e-05
8.42683e-05
6.39101e-05
2.59492e-05
-0.16909
-0.0434058
-0.00197136
0.0178537
0.0181011
0.0140997
0.00977506
0.00633189
0.00395872
0.0023943
0.00141843
0.000832214
0.000474983
0.00024141
0.00010726
6.51403e-05
6.3917e-05
6.31028e-05
5.18942e-05
2.23205e-05
-0.183312
-0.0493766
-0.00608734
0.0151121
0.0164212
0.0130181
0.00904375
0.00581334
0.00357356
0.00210223
0.0011945
0.000658922
0.000343963
0.000146856
4.05184e-05
1.80399e-05
3.06129e-05
4.06379e-05
3.87342e-05
1.82057e-05
-0.203179
-0.0589152
-0.0121929
0.0112137
0.0141687
0.0116599
0.00818189
0.00523436
0.00316022
0.00179592
0.000962928
0.000480727
0.000209541
5.07878e-05
-2.6583e-05
-2.94969e-05
-3.45797e-06
1.72663e-05
2.47757e-05
1.37406e-05
-0.227526
-0.0718888
-0.0201537
0.00619915
0.0113438
0.0100212
0.00718714
0.00459336
0.00271715
0.0014745
0.000723419
0.000298328
7.26161e-05
-4.66884e-05
-9.43695e-05
-7.75067e-05
-3.79946e-05
-6.59432e-06
1.04045e-05
9.10348e-06
-0.254743
-0.0879519
-0.029735
0.000177401
0.0079792
0.00811507
0.00606473
0.0038919
0.00224469
0.00113834
0.000476432
0.000112678
-6.59834e-05
-0.000145506
-0.000163076
-0.000125938
-7.26842e-05
-3.05624e-05
-4.04159e-06
4.4417e-06
-0.283221
-0.107112
-0.0410166
-0.00688
0.00405302
0.00593391
0.00481303
0.00313016
0.00174404
0.000788852
0.000222946
-7.58149e-05
-0.000206017
-0.000245422
-0.000232537
-0.000174734
-0.00010752
-5.46326e-05
-1.85497e-05
-2.37833e-07
-0.312366
-0.130865
-0.0551923
-0.015638
-0.000799912
0.00329282
0.00334378
0.00226778
0.0011977
0.000418721
-4.02254e-05
-0.000268809
-0.000348282
-0.00034668
-0.000302819
-0.000223974
-0.000142581
-7.88561e-05
-3.31428e-05
-4.93942e-06
-0.339199
-0.158783
-0.0724748
-0.0264556
-0.00693397
-6.55529e-05
0.00149782
0.00121455
0.000557133
2.54343e-06
-0.00032637
-0.000473321
-0.000496343
-0.000450961
-0.00037471
-0.000274036
-0.000178043
-0.000103299
-4.78351e-05
-9.6639e-06
-0.346019
-0.1765
-0.084299
-0.0347407
-0.0121138
-0.00312437
-0.000290263
0.000145079
-0.000111651
-0.000436027
-0.000627341
-0.000686322
-0.000648684
-0.000557449
-0.000447661
-0.000324352
-0.000213304
-0.000127344
-6.2147e-05
-1.42411e-05
-0.322102
-0.175897
-0.0837973
-0.0350132
-0.0125285
-0.00353192
-0.000719455
-0.000294069
-0.000526208
-0.000798228
-0.000929336
-0.00092842
-0.000836217
-0.000696366
-0.000546558
-0.000393474
-0.000261308
-0.000159251
-8.05919e-05
-1.9994e-05
-0.290286
-0.173713
-0.0887623
-0.0423937
-0.0192467
-0.00837409
-0.00390247
-0.00234886
-0.00186795
-0.00169126
-0.00153867
-0.00135079
-0.001131
-0.000900703
-0.000686462
-0.000488241
-0.000324366
-0.000199465
-0.000103098
-2.67411e-05
-0.251556
-0.164225
-0.0908011
-0.0484408
-0.0257945
-0.013615
-0.00756687
-0.00480085
-0.00349777
-0.00277931
-0.00227485
-0.0018541
-0.00147685
-0.00113753
-0.000847047
-0.000596217
-0.000395318
-0.000244063
-0.000127824
-3.40944e-05
-0.208402
-0.148326
-0.0893888
-0.0521995
-0.0309749
-0.0183501
-0.0111702
-0.00735195
-0.00526513
-0.00399341
-0.00310948
-0.00242879
-0.00187233
-0.0014083
-0.00103017
-0.000719103
-0.000475631
-0.000294031
-0.000155348
-4.22969e-05
-0.165265
-0.1279
-0.0846541
-0.0538381
-0.0347792
-0.022482
-0.0146634
-0.00998521
-0.00716431
-0.00533395
-0.00404497
-0.00307696
-0.0023186
-0.00171339
-0.00123579
-0.000856667
-0.000565144
-0.000349193
-0.000185511
-5.13345e-05
-0.126191
-0.105543
-0.07684
-0.0532126
-0.036999
-0.0257052
-0.0178109
-0.0125661
-0.00912154
-0.00676132
-0.00506052
-0.0037871
-0.00280872
-0.0020481
-0.00146078
-0.00100662
-0.000662363
-0.00040862
-0.000217727
-6.10495e-05
-0.0935169
-0.0838481
-0.0668824
-0.0504296
-0.0375683
-0.0277854
-0.0203364
-0.0148893
-0.0110042
-0.00819223
-0.00610527
-0.00452816
-0.00332332
-0.00239996
-0.0016971
-0.00116359
-0.000763846
-0.000470299
-0.00025085
-7.10924e-05
-0.0680131
-0.0649437
-0.0563744
-0.0461525
-0.0367454
-0.0287372
-0.0220843
-0.016766
-0.0126567
-0.00951141
-0.00709839
-0.00524557
-0.00382625
-0.00274507
-0.0019291
-0.0013173
-0.000863027
-0.000530384
-0.000282849
-8.08236e-05
-0.049978
-0.0505234
-0.0472441
-0.0416116
-0.0351629
-0.0288379
-0.0230694
-0.0180706
-0.0139208
-0.0105751
-0.00792524
-0.00585485
-0.00425834
-0.00304324
-0.00213002
-0.00145026
-0.000948708
-0.000582234
-0.000310311
-8.91836e-05
-0.0400214
-0.0421841
-0.0415396
-0.0384487
-0.0338202
-0.0286079
-0.0234703
-0.0187573
-0.0146486
-0.0112151
-0.00843548
-0.00623711
-0.0045323
-0.00323343
-0.00225863
-0.0015354
-0.00100355
-0.000615423
-0.000327838
-9.45255e-05
-0.381291
-0.397288
-0.407996
-0.4137
-0.414912
-0.412446
-0.407556
-0.4022
-0.399705
-0.410529
-0.296239
-0.309938
-0.320426
-0.328039
-0.333249
-0.336658
-0.338943
-0.340748
-0.342103
-0.347754
-0.22748
-0.238906
-0.248462
-0.256294
-0.26253
-0.267259
-0.270521
-0.272391
-0.272891
-0.275997
-0.170269
-0.179465
-0.187369
-0.194023
-0.199477
-0.203801
-0.20711
-0.209587
-0.211358
-0.214175
-0.123785
-0.13124
-0.137836
-0.143603
-0.14858
-0.152813
-0.156344
-0.159209
-0.161412
-0.163631
-0.0868945
-0.0930087
-0.0985313
-0.103473
-0.107847
-0.111668
-0.114954
-0.117725
-0.120008
-0.122083
-0.0583198
-0.0633788
-0.0680116
-0.0722195
-0.0760075
-0.079384
-0.0823619
-0.0849536
-0.0871774
-0.0891425
-0.0371222
-0.0413881
-0.0453313
-0.0489489
-0.0522408
-0.0552099
-0.0578612
-0.0602025
-0.0622481
-0.0640428
-0.0225993
-0.0263075
-0.0297547
-0.0329353
-0.0358466
-0.0384889
-0.0408654
-0.0429826
-0.0448496
-0.0464822
-0.0148355
-0.0182081
-0.0213521
-0.024262
-0.0269363
-0.0293757
-0.0315827
-0.0335612
-0.0353155
-0.0368498
0.0555549
-0.00650463
-0.0696834
-0.124502
-0.17477
-0.221418
-0.263632
-0.30091
-0.333045
-0.359877
0.0312863
-0.0163681
-0.0644965
-0.104988
-0.141292
-0.175292
-0.206467
-0.234237
-0.258455
-0.279115
0.0146251
-0.0229981
-0.0580281
-0.0873829
-0.113547
-0.137956
-0.160437
-0.180622
-0.198457
-0.21404
0.00591819
-0.0227179
-0.046827
-0.0671404
-0.085754
-0.10331
-0.119619
-0.134467
-0.147822
-0.159738
0.00450878
-0.016233
-0.0325931
-0.0466388
-0.0600096
-0.0728569
-0.0849114
-0.0960296
-0.1062
-0.115445
0.00829713
-0.00628477
-0.0176699
-0.0277701
-0.0376558
-0.04729
-0.0564228
-0.0649506
-0.0728675
-0.0801819
0.0143441
0.00407132
-0.00422448
-0.0118525
-0.0194128
-0.0268302
-0.0339285
-0.0406358
-0.0469404
-0.0528381
0.0205895
0.0131191
0.00671208
0.000635775
-0.00539396
-0.011316
-0.0170279
-0.0224803
-0.0276555
-0.0325409
0.0257486
0.01994
0.0146213
0.00948352
0.00441021
-0.000564378
-0.00538483
-0.0100165
-0.01444
-0.0186394
0.0288251
0.0237534
0.0188999
0.014193
0.00958781
0.00509582
0.000745664
-0.0034386
-0.00743932
-0.0112425
0.23155
0.232815
0.235525
0.239549
0.244944
0.250258
0.255427
0.251571
0.236792
0.151994
0.224875
0.225718
0.227477
0.229897
0.232671
0.234132
0.233128
0.221053
0.19286
0.110681
0.216803
0.217188
0.217887
0.218526
0.218513
0.216122
0.209552
0.191764
0.15758
0.0877173
0.207207
0.20708
0.20663
0.205404
0.202616
0.196685
0.185498
0.164345
0.128044
0.0683715
0.196112
0.195458
0.193876
0.190873
0.185608
0.176788
0.162379
0.139719
0.104135
0.0534865
0.183771
0.18263
0.180045
0.175535
0.168339
0.157514
0.141431
0.118823
0.0863386
0.0446264
0.170766
0.16923
0.165875
0.160274
0.151846
0.139987
0.123634
0.102344
0.0742841
0.0407944
0.158103
0.156303
0.152471
0.146262
0.137301
0.125271
0.10964
0.0903843
0.0668004
0.0400602
0.147296
0.145366
0.141332
0.134929
0.125954
0.114296
0.0997832
0.0825735
0.0625922
0.0407294
0.140462
0.138492
0.134422
0.128039
0.119237
0.108013
0.0943747
0.0785406
0.0606944
0.0415412
0.258252
0.260462
0.265774
0.274278
0.287385
0.305097
0.331476
0.366268
0.419258
0.490211
0.256575
0.258737
0.263917
0.2722
0.284959
0.302118
0.327655
0.360997
0.41152
0.478177
0.254676
0.256785
0.26181
0.269831
0.282169
0.29863
0.323099
0.354444
0.401591
0.461813
0.252564
0.254615
0.259467
0.267188
0.279033
0.294659
0.317841
0.346655
0.389589
0.441208
0.250252
0.252242
0.256903
0.264288
0.275571
0.290237
0.31192
0.337688
0.375662
0.416447
0.247752
0.249678
0.254133
0.261152
0.271805
0.285398
0.305373
0.327615
0.359975
0.387585
0.24508
0.246944
0.251183
0.257811
0.267775
0.280207
0.298278
0.316578
0.342762
0.354718
0.242251
0.244064
0.248093
0.254326
0.263566
0.274793
0.290805
0.304852
0.32437
0.317919
0.239279
0.241049
0.244872
0.250704
0.259178
0.269156
0.282916
0.292403
0.304537
0.276051
0.236156
0.237816
0.241325
0.246602
0.254069
0.262478
0.273343
0.277697
0.280685
0.226821
0.262333
0.26466
0.269984
0.278417
0.290762
0.306497
0.328239
0.349463
0.378244
0.368914
0.262917
0.265289
0.270775
0.279477
0.292376
0.309
0.332626
0.357413
0.393055
0.403628
0.26329
0.265652
0.271179
0.279963
0.293121
0.310222
0.33495
0.362428
0.402835
0.430092
0.263457
0.265812
0.271375
0.280236
0.293621
0.311172
0.336849
0.366787
0.411372
0.452178
0.263409
0.26576
0.271356
0.280284
0.293857
0.311813
0.338287
0.370398
0.418616
0.470393
0.263136
0.26548
0.271089
0.280051
0.293741
0.311997
0.339045
0.372897
0.42405
0.484465
0.262631
0.264963
0.270561
0.279516
0.293246
0.311676
0.339062
0.374164
0.427476
0.494302
0.261892
0.264203
0.269767
0.278675
0.292364
0.310835
0.338323
0.37416
0.428791
0.499854
0.260915
0.263199
0.268704
0.277521
0.291094
0.309461
0.336817
0.372853
0.427896
0.501053
0.259701
0.261951
0.267372
0.276055
0.289433
0.307548
0.334534
0.370224
0.424726
0.497845
0.21041
0.208964
0.205991
0.201287
0.194664
0.185972
0.175023
0.161786
0.146152
0.128496
0.215314
0.214009
0.211288
0.206904
0.200582
0.192068
0.180999
0.167241
0.150395
0.130901
0.222795
0.221766
0.21956
0.21588
0.210311
0.202422
0.19152
0.177239
0.158555
0.135922
0.23111
0.230486
0.229074
0.226543
0.222335
0.215795
0.205805
0.191541
0.171002
0.144338
0.239088
0.238965
0.238578
0.237597
0.235378
0.231037
0.223076
0.209885
0.188335
0.157248
0.24605
0.246469
0.247237
0.248073
0.248349
0.24699
0.242349
0.231614
0.210936
0.175765
0.251701
0.252648
0.25459
0.257333
0.260394
0.262591
0.262479
0.255666
0.238463
0.200154
0.256011
0.257428
0.260467
0.265039
0.27092
0.276958
0.282276
0.280883
0.26984
0.228726
0.259111
0.260915
0.264894
0.271076
0.279563
0.289389
0.300508
0.306097
0.304153
0.260044
0.261211
0.263317
0.268061
0.275554
0.286268
0.299502
0.316366
0.330201
0.342403
0.303763
0.116144
0.111077
0.106056
0.101085
0.0961349
0.0912097
0.0863326
0.0815287
0.0768184
0.0722194
0.116807
0.111053
0.105433
0.0999208
0.0944249
0.0889351
0.0834866
0.0781158
0.0728499
0.0677113
0.118526
0.111257
0.104281
0.0975934
0.0909782
0.0843784
0.0778411
0.0714207
0.065152
0.0590599
0.122087
0.112349
0.103086
0.0944781
0.0860944
0.0777656
0.0695445
0.0615136
0.0537199
0.0461881
0.128609
0.115235
0.102407
0.0908791
0.0799017
0.0690685
0.0584124
0.0480612
0.0380849
0.0285068
0.139697
0.121368
0.103204
0.0873549
0.0726968
0.0583663
0.0443118
0.0307356
0.0177486
0.00536736
0.157366
0.132951
0.107155
0.0850881
0.0652794
0.0460798
0.0273099
0.00930588
-0.00777514
-0.0239466
0.182645
0.151409
0.11561
0.0853964
0.0586919
0.0328205
0.0076544
-0.0162638
-0.0387725
-0.0599459
0.215654
0.176495
0.129353
0.0898475
0.0542979
0.0195748
-0.013954
-0.0455835
-0.0751478
-0.102654
0.255466
0.204735
0.14637
0.0957271
0.0482153
0.00223816
-0.0413626
-0.0820622
-0.119685
-0.154078
0.0677479
0.0634187
0.0592442
0.055235
0.0513972
0.0477353
0.0442577
0.0409699
0.0378715
0.034961
0.0627207
0.0578969
0.0532566
0.0488134
0.0445792
0.0405632
0.0367688
0.0331979
0.0298509
0.0267139
0.0531667
0.0474928
0.042056
0.0368708
0.0319461
0.0272882
0.0229033
0.0187934
0.0149553
0.0113492
0.0389393
0.0319928
0.0253659
0.0190721
0.0131203
0.00751545
0.00225706
-0.00265765
-0.00723376
-0.0115593
0.0193411
0.0106014
0.00230164
-0.00554797
-0.0129392
-0.0198674
-0.0263387
-0.0323663
-0.0379681
-0.043388
-0.00641008
-0.0175823
-0.0281467
-0.0381088
-0.0474831
-0.0562886
-0.0645463
-0.0722775
-0.0794757
-0.0868498
-0.0392411
-0.0536739
-0.0672491
-0.0799729
-0.0918692
-0.102998
-0.113474
-0.123493
-0.133169
-0.144492
-0.0798703
-0.0986258
-0.116295
-0.132959
-0.14867
-0.16344
-0.177256
-0.190175
-0.202401
-0.218641
-0.128113
-0.151592
-0.173255
-0.193385
-0.212387
-0.230772
-0.249088
-0.267724
-0.286864
-0.310511
-0.185109
-0.212712
-0.236949
-0.25805
-0.27648
-0.293031
-0.309022
-0.326526
-0.350449
-0.388879
0.0283145
0.0200924
0.0142413
0.0107388
0.00894852
0.00807874
0.00756061
0.00709396
0.00653395
0.00583836
0.00504053
0.00420343
0.00338731
0.00263746
0.00198407
0.00144004
0.00100072
0.000646058
0.000357697
0.000110731
0.0192403
0.011751
0.00780563
0.0064072
0.00627381
0.00652561
0.00673303
0.00669095
0.00633229
0.00571002
0.00493169
0.00409987
0.00328966
0.0025498
0.00191096
0.00138406
0.000960895
0.000619318
0.000343113
0.00010686
0.00231314
-0.0032017
-0.00303524
-0.000411778
0.00230582
0.00436376
0.00568026
0.00622872
0.00611103
0.00555631
0.00478358
0.00394691
0.00313983
0.00241402
0.00179755
0.00129669
0.000898448
0.000577887
0.000320945
0.000100823
-0.0227748
-0.0239569
-0.0166672
-0.00812752
-0.00176825
0.00240376
0.00490054
0.00596828
0.00599387
0.00543776
0.00463204
0.00377251
0.00296356
0.00225401
0.00166416
0.00119402
0.000825624
0.000530127
0.000295469
9.36134e-05
-0.0568052
-0.0496399
-0.0315073
-0.0154458
-0.0050838
0.00119134
0.00466909
0.00601228
0.00601268
0.00536588
0.00448634
0.00358891
0.0027753
0.00208403
0.0015235
0.00108668
0.000750074
0.00048086
0.000269212
8.59697e-05
-0.100051
-0.0787612
-0.0460973
-0.0214788
-0.00710339
0.00099133
0.00503754
0.00633413
0.00613851
0.00532497
0.00434298
0.00340064
0.00258344
0.00191313
0.00138365
0.000980998
0.000676117
0.000433006
0.000243801
7.84121e-05
-0.150228
-0.108767
-0.0592277
-0.0257203
-0.00759045
0.0017888
0.00588165
0.00683348
0.00631574
0.00528991
0.00419488
0.00320965
0.00239344
0.00174704
0.00124943
0.000880588
0.000606267
0.000388346
0.000220115
7.12317e-05
-0.201597
-0.136132
-0.0697929
-0.0278028
-0.00648426
0.00344548
0.00706743
0.0074416
0.00651737
0.00525498
0.00404612
0.00302301
0.00221203
0.00159087
0.00112453
0.000787912
0.000542098
0.000347821
0.000198562
6.46124e-05
-0.249334
-0.157848
-0.0766882
-0.0272524
-0.00366641
0.00595292
0.00860413
0.00818138
0.00676509
0.00523888
0.00391173
0.00285173
0.00204647
0.00144902
0.00101164
0.00070448
0.000484469
0.000311805
0.00017932
5.86816e-05
-0.290324
-0.170425
-0.0785953
-0.024366
-0.000114665
0.00842795
0.00989649
0.00868972
0.00685083
0.00512707
0.00372942
0.00266195
0.00187822
0.00131118
0.000904862
0.000627024
0.000431892
0.000279611
0.000162215
5.34531e-05
-0.307026
-0.167728
-0.0773598
-0.0245676
-0.00115581
0.00717332
0.00876831
0.00779871
0.00618519
0.0046356
0.00336923
0.00239948
0.00168876
0.00117429
0.00080683
0.000559879
0.00038896
0.000254801
0.000149519
4.96427e-05
-0.304445
-0.152866
-0.0665842
-0.0175104
0.00270687
0.00901591
0.00949768
0.00798412
0.00613743
0.00450517
0.00322662
0.0022725
0.0015854
0.00109303
0.000745153
0.000516129
0.000360553
0.000238553
0.000141418
4.72669e-05
-0.286521
-0.130851
-0.0515978
-0.00816347
0.0076149
0.0113018
0.0104086
0.0082437
0.00612188
0.00439133
0.00309456
0.0021533
0.0014876
0.00101534
0.000685537
0.000473447
0.000332661
0.000222633
0.000133597
4.50439e-05
-0.26361
-0.110972
-0.0390422
-0.00067349
0.0113243
0.0129057
0.0109626
0.0083265
0.00602171
0.0042376
0.00294397
0.00202591
0.00138625
0.000936011
0.000625079
0.000430259
0.000304437
0.000206482
0.000125666
4.28361e-05
-0.239518
-0.0936176
-0.0286495
0.00528686
0.0141246
0.0140314
0.0112816
0.00829752
0.00586852
0.00405818
0.00278044
0.00189203
0.00128149
0.000854682
0.000563411
0.000386341
0.000275782
0.000190059
0.000117601
4.06281e-05
-0.216002
-0.0781693
-0.0196034
0.0102887
0.0163661
0.01487
0.0114618
0.00820264
0.0056839
0.00386321
0.00260872
0.00175395
0.00117442
0.000771826
0.000500734
0.000341822
0.000246782
0.00017341
0.000109415
3.84139e-05
-0.19485
-0.0648996
-0.0119723
0.0143317
0.0180723
0.015437
0.0115109
0.00804512
0.0054695
0.00365368
0.00242932
0.00161211
0.00106536
0.000687549
0.000437071
0.000296744
0.0002175
0.000156586
0.000101133
3.61938e-05
-0.177704
-0.0542608
-0.00603565
0.0173021
0.0192089
0.0157203
0.0114244
0.00782301
0.00522469
0.00342936
0.00224205
0.00146647
0.000954306
0.000601781
0.000372355
0.000251097
0.000187958
0.000139597
9.27484e-05
3.39589e-05
-0.165855
-0.0465793
-0.00197771
0.0191519
0.0197733
0.0157231
0.0112047
0.00753856
0.00495021
0.00319078
0.00204706
0.00131631
0.000840567
0.000514415
0.00030675
0.000204994
0.000158017
0.000122125
8.39815e-05
3.16039e-05
-0.160212
-0.0420975
8.895e-05
0.0198675
0.0197742
0.0154516
0.0108556
0.00719444
0.00464708
0.00293848
0.00184466
0.00116098
0.000723309
0.000425254
0.000240454
0.000158599
0.000127548
0.000103817
7.44999e-05
2.89948e-05
)
;

boundaryField
{
    inlet
    {
        type            freestreamPressure;
        freestreamValue uniform 0;
        supersonic      false;
        value           nonuniform List<scalar> 
40
(
0.23155
0.224875
0.216803
0.207207
0.196112
0.183771
0.170766
0.158103
0.147296
0.140462
0.258252
0.256575
0.254676
0.252564
0.250252
0.247752
0.24508
0.242251
0.239279
0.236156
0.262333
0.262917
0.26329
0.263457
0.263409
0.263136
0.262631
0.261892
0.260915
0.259701
0.21041
0.215314
0.222795
0.23111
0.239088
0.24605
0.251701
0.256011
0.259111
0.261211
)
;
    }
    outlet
    {
        type            freestreamPressure;
        freestreamValue uniform 0;
        supersonic      false;
        value           nonuniform List<scalar> 
40
(
-3.81441e-14
-4.82165e-14
-5.55184e-14
-5.88506e-14
-5.69031e-14
-4.91252e-14
-3.66531e-14
-2.21955e-14
-9.15978e-15
-1.11712e-15
4.82329e-14
4.17853e-14
3.42897e-14
2.62193e-14
1.75663e-14
8.63993e-15
-4.64798e-16
-9.66152e-15
-1.88364e-14
-2.75334e-14
7.4333e-14
7.23586e-14
7.05727e-14
6.877e-14
6.68828e-14
6.48399e-14
6.26108e-14
6.01693e-14
5.72454e-14
5.32667e-14
4.11671e-15
2.97907e-14
5.90571e-14
7.97641e-14
8.94847e-14
9.10413e-14
8.83553e-14
8.41754e-14
8.03533e-14
7.72511e-14
)
;
    }
    top
    {
        type            symmetryPlane;
    }
    bottom
    {
        type            symmetryPlane;
    }
    cylinder
    {
        type            zeroGradient;
    }
    frontandback
    {
        type            empty;
    }
}


// ************************************************************************* //
