/*--------------------------------*- C++ -*----------------------------------*\
| =========                 |                                                 |
| \\      /  F ield         | OpenFOAM: The Open Source CFD Toolbox           |
|  \\    /   O peration     | Version:  v1912                                 |
|   \\  /    A nd           | Website:  www.openfoam.com                      |
|    \\/     M anipulation  |                                                 |
\*---------------------------------------------------------------------------*/
FoamFile
{
    version     2.0;
    format      ascii;
    class       surfaceScalarField;
    location    "69";
    object      phi;
}
// * * * * * * * * * * * * * * * * * * * * * * * * * * * * * * * * * * * * * //

dimensions      [0 3 -1 0 0 0 0];
oriented        oriented;


internalField   nonuniform List<scalar> 
18940
(
0.000358493
-0.234358
0.234
0.00137982
-0.216315
0.215294
0.00288451
-0.20478
0.203275
0.00470201
-0.197
0.195183
0.00670142
-0.191249
0.189249
0.00878097
-0.186458
0.184379
0.0108668
-0.182041
0.179955
0.0129095
-0.1777
0.175658
0.0148788
-0.173313
0.171343
0.0167594
-0.168849
0.166969
0.0185465
-0.164331
0.162544
0.0202425
-0.159801
0.158105
0.0218546
-0.155306
0.153694
0.0233925
-0.15089
0.149352
0.0248675
-0.14659
0.145115
0.0262912
-0.14243
0.141006
0.0276751
-0.138422
0.137038
0.0290298
-0.134565
0.13321
0.0303637
-0.130837
0.129503
-0.1272
0.125882
0.031682
0.000381924
-0.23474
0.00142314
-0.217356
0.00293856
-0.206296
0.00476037
-0.198822
0.00675423
-0.193242
0.00881844
-0.188523
0.0108804
-0.184103
0.0128923
-0.179712
0.0148257
-0.175246
0.0166672
-0.170691
0.0184134
-0.166077
0.0200683
-0.161456
0.0216399
-0.156877
0.0231387
-0.152389
0.0245762
-0.148028
0.0259646
-0.143818
0.0273155
-0.139773
0.0286398
-0.135889
0.0299465
-0.132144
-0.128495
0.0312414
0.000403353
-0.235144
0.0014608
-0.218414
0.00298494
-0.20782
0.0048073
-0.200644
0.00679196
-0.195227
0.00883717
-0.190568
0.0108716
-0.186137
0.0128492
-0.18169
0.0147436
-0.17714
0.0165431
-0.17249
0.0182461
-0.16778
0.0198578
-0.163067
0.0213871
-0.158407
0.0228451
-0.153847
0.0242438
-0.149427
0.0255955
-0.14517
0.0269122
-0.14109
0.0282048
-0.137182
0.029483
-0.133422
-0.129766
0.0307533
0.000417231
-0.235561
0.00148973
-0.219486
0.00302173
-0.209352
0.00484207
-0.202465
0.00681417
-0.197199
0.00883682
-0.192591
0.0108402
-0.188141
0.0127802
-0.18363
0.0146327
-0.178993
0.0163876
-0.174245
0.0180452
-0.169438
0.0196118
-0.164634
0.0210971
-0.159892
0.022513
-0.155263
0.0238717
-0.150785
0.0251857
-0.146484
0.0264669
-0.142371
0.0277269
-0.138442
0.0289755
-0.134671
-0.131011
0.0302205
0.000428504
-0.235989
0.00151326
-0.220571
0.00305028
-0.210889
0.00486533
-0.20428
0.00682131
-0.199155
0.00881783
-0.194587
0.0107868
-0.19011
0.0126861
-0.185529
0.0144938
-0.180801
0.0162018
-0.175953
0.0178119
-0.171048
0.0193315
-0.166153
0.0207715
-0.161332
0.0221439
-0.156635
0.0234615
-0.152103
0.0247366
-0.147759
0.0259814
-0.143616
0.0272078
-0.139668
0.0284261
-0.135889
-0.132229
0.029645
0.000437599
-0.236427
0.00153181
-0.221665
0.00307084
-0.212428
0.00487733
-0.206086
0.0068137
-0.201091
0.00878061
-0.196554
0.0107118
-0.192041
0.0125675
-0.187385
0.0143277
-0.182561
0.0159864
-0.177612
0.017547
-0.172609
0.0190181
-0.167625
0.0204113
-0.162725
0.0217391
-0.157963
0.0230143
-0.153378
0.0242496
-0.148994
0.0254571
-0.144824
0.0266489
-0.14086
0.027836
-0.137076
-0.133422
0.0290281
0.000445082
-0.236872
0.00154606
-0.222766
0.00308399
-0.213966
0.00487854
-0.207881
0.00679183
-0.203005
0.00872575
-0.198488
0.010616
-0.193931
0.0124251
-0.189194
0.0141353
-0.184271
0.0157426
-0.179219
0.0172518
-0.174118
0.0186727
-0.169045
0.0200176
-0.16407
0.0212996
-0.159245
0.0225314
-0.15461
0.0237257
-0.150189
0.0248948
-0.145993
0.026051
-0.142016
0.0272059
-0.138231
-0.134586
0.0283703
0.000451107
-0.237323
0.00155633
-0.223872
0.00309012
-0.215499
0.00486944
-0.20966
0.00675629
-0.204892
0.00865392
-0.200386
0.0105002
-0.195777
0.01226
-0.190954
0.0139177
-0.185929
0.0154714
-0.180773
0.0169273
-0.175574
0.0182965
-0.170415
0.0195917
-0.165365
0.0208265
-0.16048
0.0220136
-0.155797
0.0231658
-0.151341
0.0242952
-0.147122
0.0254144
-0.143135
0.0265359
-0.139352
-0.135722
0.0276715
0.000455782
-0.237779
0.0015629
-0.224979
0.00308968
-0.217026
0.0048506
-0.211421
0.00670774
-0.206749
0.00856594
-0.202244
0.0103653
-0.197577
0.0120731
-0.192661
0.0136761
-0.187532
0.0151741
-0.182271
0.0165749
-0.176975
0.0178905
-0.17173
0.0191346
-0.166609
0.0203207
-0.161666
0.0214617
-0.156938
0.0225702
-0.152449
0.0236584
-0.14821
0.024739
-0.144216
0.0258254
-0.140439
-0.136827
0.0269308
0.000459179
-0.238238
0.00156606
-0.226086
0.00308316
-0.218543
0.00482266
-0.21316
0.00664701
-0.208573
0.0084628
-0.20406
0.0102125
-0.199326
0.0118658
-0.194315
0.0134117
-0.189078
0.014852
-0.183711
0.0161958
-0.178318
0.0174562
-0.172991
0.0186473
-0.1678
0.019783
-0.162802
0.0208763
-0.158031
0.0219393
-0.153512
0.0229842
-0.149255
0.0240242
-0.145256
0.0250732
-0.141488
-0.1379
0.0261464
0.000461404
-0.238699
0.00156616
-0.22719
0.00307111
-0.220048
0.00478638
-0.214876
0.00657503
-0.210362
0.00834561
-0.20583
0.0100431
-0.201024
0.0116395
-0.195911
0.0131262
-0.190564
0.0145067
-0.185092
0.0157916
-0.179603
0.0169949
-0.174194
0.0181312
-0.168937
0.0192146
-0.163885
0.0202579
-0.159075
0.0212732
-0.154528
0.0222724
-0.150254
0.0232688
-0.146252
0.0242776
-0.142497
-0.138938
0.0253156
0.000462614
-0.239162
0.00156365
-0.228291
0.00305423
-0.221539
0.00474266
-0.216564
0.00649293
-0.212112
0.00821572
-0.207553
0.0098585
-0.202667
0.0113959
-0.197449
0.0128214
-0.19199
0.0141402
-0.18641
0.0153643
-0.180827
0.0165084
-0.175338
0.0175877
-0.170016
0.0186165
-0.164914
0.0196074
-0.160066
0.0205721
-0.155492
0.0215224
-0.151205
0.0224716
-0.147201
0.0234362
-0.143461
-0.139937
0.0244353
0.000463087
-0.239625
0.00155913
-0.229387
0.00303337
-0.223013
0.00469257
-0.218223
0.006402
-0.213821
0.00807466
-0.209226
0.00966061
-0.204253
0.011137
-0.198925
0.0124993
-0.193352
0.0137546
-0.187666
0.0149159
-0.181989
0.0159988
-0.176421
0.0170189
-0.171036
0.0179903
-0.165885
0.0189258
-0.161001
0.0198365
-0.156403
0.0207339
-0.152102
0.0216315
-0.148099
0.0225469
-0.144377
-0.140892
0.0235016
0.000463303
-0.240088
0.00155348
-0.230478
0.00300959
-0.224469
0.00463736
-0.219851
0.00630372
-0.215488
0.00792418
-0.210846
0.00945143
-0.20578
0.0108651
-0.200339
0.0121627
-0.19465
0.0133528
-0.188856
0.0144495
-0.183085
0.015469
-0.17744
0.0164271
-0.171994
0.0173382
-0.166796
0.0182145
-0.161877
0.0190669
-0.157255
0.0199064
-0.152942
0.0207464
-0.148939
0.0216055
-0.145236
-0.141795
0.0225082
0.000464063
-0.240553
0.00154785
-0.231561
0.0029841
-0.225905
0.00457839
-0.221445
0.00619969
-0.217109
0.00776618
-0.212412
0.00923321
-0.207247
0.0105828
-0.201688
0.0118144
-0.195881
0.012938
-0.189979
0.0139686
-0.184116
0.0149227
-0.178395
0.0158163
-0.172888
0.0166635
-0.167644
0.0174762
-0.16269
0.0182648
-0.158044
0.0190396
-0.153716
0.0198134
-0.149713
0.0206057
-0.146028
-0.142636
0.0214468
0.000466514
-0.241019
0.00154355
-0.232638
0.00295812
-0.22732
0.00451703
-0.223004
0.00609162
-0.218684
0.00760275
-0.213924
0.00900844
-0.208653
0.010293
-0.202973
0.0114579
-0.197046
0.0125142
-0.191036
0.0134777
-0.185079
0.014365
-0.179282
0.0151919
-0.173715
0.0159721
-0.168424
0.0167169
-0.163435
0.0174357
-0.158763
0.0181375
-0.154418
0.0188343
-0.150409
0.0195468
-0.146741
-0.143403
0.0203139
0.000472047
-0.241491
0.00154189
-0.233708
0.00293295
-0.228711
0.00445483
-0.224526
0.00598136
-0.22021
0.00743609
-0.215378
0.00877976
-0.209996
0.00999905
-0.204192
0.0110971
-0.198144
0.012086
-0.192025
0.0129819
-0.185975
0.0138016
-0.180102
0.0145604
-0.174474
0.0152713
-0.169135
0.0159446
-0.164108
0.0165887
-0.159407
0.0172111
-0.155041
0.0178218
-0.15102
0.0184413
-0.14736
-0.144071
0.0191098
0.000482994
-0.241974
0.00154551
-0.234771
0.00291108
-0.230077
0.00439391
-0.226009
0.00587086
-0.221687
0.0072683
-0.216776
0.0085497
-0.211278
0.00970401
-0.205346
0.0107359
-0.199176
0.0116583
-0.192947
0.0124875
-0.186805
0.0132396
-0.180854
0.0139292
-0.175163
0.0145681
-0.169773
0.0151653
-0.164705
0.0157284
-0.15997
0.0162638
-0.155576
0.0167779
-0.151534
0.0172835
-0.147866
-0.144592
0.0178047
0.000506932
-0.242481
0.00156162
-0.235826
0.00289656
-0.231412
0.00433619
-0.227449
0.00576137
-0.223112
0.0071008
-0.218115
0.0083203
-0.212497
0.00941086
-0.206437
0.0103785
-0.200144
0.011237
-0.193806
0.0120023
-0.18757
0.0126896
-0.181541
0.0133114
-0.175785
0.0138768
-0.170339
0.0143917
-0.16522
0.0148598
-0.160438
0.0152829
-0.155999
0.0156599
-0.151911
0.0159952
-0.148201
-0.144948
0.0163509
0.000563979
-0.243045
0.00159852
-0.23686
0.00288914
-0.232702
0.00428048
-0.22884
0.00565242
-0.224484
0.00693401
-0.219397
0.00809286
-0.213656
0.00912191
-0.207466
0.0100288
-0.201051
0.0108279
-0.194605
0.0115353
-0.188277
0.0121655
-0.182171
0.0127291
-0.176349
0.0132318
-0.170842
0.0136732
-0.165662
0.0140459
-0.160811
0.0143332
-0.156286
0.0145088
-0.152087
0.0145678
-0.14826
-0.14512
0.0147396
0.250731
0.00041522
-0.251146
0.250342
0.000388866
0.249961
0.000381602
0.249579
0.000381738
0.249194
0.000384688
0.248805
0.000389105
0.248411
0.000394263
0.248011
0.000399572
0.247607
0.000404642
0.247197
0.00040927
0.246784
0.000413355
0.246367
0.00041687
0.245947
0.000419803
0.245525
0.000422129
0.245102
0.000423719
0.244677
0.000424371
0.244254
0.000423039
0.243835
0.000419173
0.243431
0.00040357
0.000386486
0.252708
0.00102397
-0.253316
0.252063
0.00103321
0.25139
0.00105433
0.250691
0.00108134
0.249966
0.00110972
0.249217
0.00113811
0.248445
0.00116605
0.247652
0.00119302
0.246838
0.00121862
0.246004
0.00124259
0.245153
0.00126481
0.244284
0.00128526
0.2434
0.00130394
0.242502
0.00132084
0.24159
0.00133581
0.240665
0.00134866
0.23973
0.00135829
0.238785
0.00136441
0.237828
0.00136076
0.001354
0.251493
0.00159619
-0.252065
0.250856
0.00167016
0.250166
0.00174433
0.249428
0.00181961
0.248644
0.00189365
0.247817
0.00196522
0.246949
0.00203399
0.246042
0.00209975
0.245098
0.00216225
0.24412
0.00222132
0.243108
0.00227691
0.242064
0.00232909
0.24099
0.00237793
0.239887
0.00242353
0.238757
0.00246591
0.2376
0.00250513
0.236418
0.00254064
0.23521
0.00257269
0.233972
0.00259891
0.00262347
0.24739
0.0020398
-0.247833
0.246876
0.00218345
0.246298
0.00232247
0.24566
0.00245831
0.244963
0.00259032
0.24421
0.00271768
0.243404
0.00284008
0.242547
0.00295736
0.24164
0.00306936
0.240685
0.003176
0.239685
0.00327732
0.23864
0.00337346
0.237554
0.0034646
0.236426
0.00355102
0.235259
0.00363301
0.234053
0.00371095
0.232809
0.00378489
0.231526
0.00385549
0.230203
0.00392203
0.00398651
0.241143
0.00231895
-0.241422
0.240792
0.00253393
0.240373
0.00274213
0.239887
0.0029444
0.239336
0.0031407
0.238723
0.00333056
0.23805
0.00351367
0.237317
0.00368982
0.236528
0.00385889
0.235683
0.00402084
0.234784
0.00417577
0.233834
0.00432386
0.232833
0.00446543
0.231783
0.00460095
0.230685
0.00473098
0.22954
0.0048562
0.228348
0.0049772
0.227108
0.00509495
0.225821
0.00520961
0.00532285
0.233546
0.00244232
-0.233669
0.233352
0.00272792
0.233088
0.00300559
0.232757
0.00327564
0.232359
0.00353807
0.231897
0.00379261
0.231372
0.00403893
0.230785
0.00427678
0.230138
0.00450602
0.229432
0.00472664
0.228669
0.00493874
0.227851
0.00514256
0.226977
0.00533853
0.226051
0.00552731
0.225072
0.00570969
0.224042
0.00588669
0.22296
0.00605938
0.221826
0.00622915
0.220638
0.00639685
0.00656433
0.225302
0.00244046
-0.2253
0.225236
0.00279414
0.225102
0.00313913
0.224903
0.00347537
0.224638
0.00380279
0.224309
0.00412111
0.223918
0.00442999
0.223466
0.00472915
0.222953
0.00501842
0.222382
0.00529776
0.221754
0.00556726
0.221069
0.0058272
0.22033
0.00607812
0.219536
0.0063208
0.218689
0.00655631
0.21779
0.00678603
0.216838
0.00701151
0.215833
0.00723466
0.214772
0.00745701
0.00768073
0.21694
0.00234961
-0.216849
0.216966
0.0027678
0.216929
0.00317672
0.216828
0.00357605
0.216665
0.0039656
0.216441
0.00434505
0.216157
0.00471402
0.215814
0.00507217
0.215414
0.00541929
0.214956
0.00575527
0.214443
0.00608018
0.213876
0.00639433
0.213256
0.0066983
0.212584
0.00699302
0.21186
0.0072798
0.211086
0.0075604
0.21026
0.00783694
0.209383
0.00811192
0.208452
0.00838771
0.008667
0.208807
0.00220308
-0.208661
0.208893
0.002682
0.208919
0.00315108
0.208885
0.00360987
0.208792
0.00405805
0.208642
0.00449522
0.208435
0.00492096
0.208173
0.00533485
0.207855
0.00573659
0.207485
0.00612602
0.207062
0.00650316
0.206588
0.00686826
0.206064
0.00722195
0.205492
0.00756523
0.204872
0.00789968
0.204205
0.00822741
0.203491
0.00855119
0.202728
0.00887429
0.201916
0.00920016
0.00953233
0.201104
0.00202788
-0.200929
0.201222
0.00256395
0.201283
0.0030896
0.201289
0.00360429
0.201239
0.00410758
0.201136
0.004599
0.200979
0.00507802
0.200769
0.00554417
0.200509
0.00599703
0.200198
0.00643635
0.19984
0.00686205
0.199434
0.0072743
0.198982
0.00767369
0.198486
0.00806125
0.197947
0.00843877
0.197365
0.00880869
0.196742
0.00917454
0.196076
0.00954048
0.195365
0.00991146
0.0102923
0.193923
0.00184387
-0.193739
0.194053
0.00243398
0.19413
0.00301309
0.194153
0.00358053
0.194125
0.00413578
0.194046
0.00467826
0.193917
0.00520737
0.193738
0.0057225
0.193512
0.00622316
0.19324
0.00670892
0.192922
0.00717959
0.192561
0.00763518
0.192159
0.00807616
0.191716
0.00850348
0.191236
0.00891907
0.190719
0.00932559
0.190166
0.00972747
0.189577
0.0101298
0.188949
0.0105397
0.0109637
0.187288
0.00166448
-0.187108
0.187416
0.00230611
0.187493
0.00293615
0.187519
0.00355376
0.187497
0.00415832
0.187426
0.00474918
0.187308
0.00532561
0.187143
0.00588693
0.186934
0.00643247
0.186681
0.00696166
0.186387
0.00747408
0.186052
0.00796954
0.18568
0.00844828
0.185273
0.00891101
0.184832
0.0093597
0.184361
0.00979693
0.18386
0.0102283
0.18333
0.0106594
0.182769
0.011101
0.0115615
0.181178
0.00149803
-0.181012
0.181295
0.00218934
0.181363
0.00286831
0.181383
0.00353401
0.181355
0.00418578
0.181282
0.00482285
0.181163
0.0054444
0.181
0.00604961
0.180795
0.00663765
0.180549
0.00720776
0.180264
0.00775928
0.179941
0.00829166
0.179585
0.00880486
0.179197
0.00929908
0.17878
0.00977619
0.178339
0.0102382
0.177875
0.0106921
0.177391
0.0111434
0.176884
0.0116084
0.0120966
0.175552
0.00134935
-0.175403
0.175653
0.00208883
0.175706
0.00281516
0.175712
0.00352739
0.175673
0.00422473
0.17559
0.00490632
0.175463
0.00557125
0.175294
0.00621854
0.175084
0.00684723
0.174836
0.0074563
0.17455
0.00804481
0.17423
0.00861181
0.173878
0.00915678
0.173498
0.00967919
0.173094
0.0101806
0.17267
0.0106616
0.172231
0.0111311
0.171783
0.0115922
0.17132
0.0120712
0.012575
0.170357
0.00122073
-0.170228
0.170438
0.00200726
0.170474
0.00277971
0.170464
0.00353718
0.17041
0.00427877
0.170313
0.00500354
0.170174
0.00571046
0.169994
0.00639844
0.169775
0.00706633
0.169518
0.00771288
0.169226
0.00833682
0.168901
0.00893671
0.168546
0.00951146
0.168166
0.0100595
0.167765
0.0105817
0.16735
0.0110764
0.166927
0.0115546
0.166506
0.0120129
0.166082
0.0124952
0.0129953
0.165538
0.00111294
-0.16543
0.1656
0.00194544
0.165616
0.00276295
0.165589
0.00356455
0.165519
0.00434927
0.165406
0.00511608
0.165253
0.00586385
0.16506
0.00659137
0.164829
0.00729733
0.164561
0.00798022
0.16426
0.00863843
0.163926
0.00927003
0.163565
0.00987321
0.163179
0.0104451
0.162775
0.0109857
0.162362
0.0114893
0.161947
0.0119698
0.16155
0.0124102
0.161161
0.0128839
0.0133454
0.161043
0.00102546
-0.160955
0.161085
0.00190289
0.161084
0.00276445
0.161039
0.00360913
0.160953
0.00443592
0.160825
0.00524368
0.160658
0.00603122
0.160452
0.00679723
0.160209
0.00754021
0.159931
0.00825847
0.159619
0.00895006
0.159277
0.00961253
0.158906
0.0102434
0.158513
0.0108382
0.158103
0.0113957
0.157688
0.0119048
0.157276
0.0123819
0.156899
0.0127872
0.15654
0.0132424
0.0135996
0.156825
0.000956476
-0.156756
0.156849
0.00187805
0.156831
0.00278249
0.156771
0.0036691
0.156671
0.00453674
0.15653
0.00538423
0.156351
0.00621032
0.156135
0.00701361
0.155882
0.00779248
0.155596
0.00854505
0.155277
0.00926909
0.154928
0.00996174
0.154551
0.0106198
0.154152
0.0112375
0.153736
0.0118117
0.153316
0.0123247
0.152904
0.0127942
0.152548
0.0131429
0.152214
0.0135763
0.0137266
0.15284
0.000904023
-0.152788
0.15285
0.00186807
0.152819
0.00281387
0.152747
0.00374085
0.152636
0.00464771
0.152487
0.00553328
0.152301
0.00639627
0.15208
0.00723521
0.151824
0.00804838
0.151535
0.00883377
0.151215
0.00958897
0.150866
0.0103108
0.15049
0.0109956
0.150091
0.0116363
0.149674
0.0122287
0.149252
0.0127474
0.148836
0.0132103
0.148501
0.0134775
0.148208
0.0138693
0.0136746
0.149051
-0.149013
0.000866544
0.14905
0.001869
0.14901
0.00285418
0.148931
0.00381931
0.148816
0.00476301
0.148665
0.00568421
0.148479
0.00658164
0.148261
0.00745377
0.14801
0.00829884
0.147729
0.00911472
0.147419
0.00989899
0.147082
0.0106482
0.146719
0.0113587
0.146333
0.0120224
0.145926
0.0126351
0.145509
0.013165
0.145085
0.0136338
0.144734
0.0138285
0.144476
0.0141272
0.0130312
0.254371
7.4085e-05
-0.254445
0.254334
3.64022e-05
0.254302
3.25751e-05
0.25426
4.15141e-05
0.254204
5.59519e-05
0.254131
7.38102e-05
0.254037
9.37862e-05
0.253922
0.000114756
0.253786
0.000135904
0.253629
0.000156725
0.253453
0.000176777
0.253257
0.000195782
0.253043
0.000214238
0.252809
0.000233207
0.252559
0.000250498
0.252293
0.000265676
0.252015
0.000278342
0.251726
0.000288407
0.251436
0.000290007
0.00029002
0.256238
-0.000241595
-0.255922
0.256492
-0.0002176
0.256701
-0.00017665
0.256866
-0.000122825
0.256984
-6.26367e-05
0.257057
1.30864e-06
0.257083
6.78688e-05
0.257061
0.000135953
0.256993
0.000204636
0.256876
0.000272981
0.256713
0.000339747
0.256506
0.000403686
0.256256
0.000463555
0.255958
0.000531065
0.255616
0.000592764
0.255232
0.000649924
0.254808
0.00070239
0.254346
0.00075009
0.253848
0.000788371
0.000821455
0.251676
-0.000898484
-0.251019
0.252259
-0.00080154
0.252778
-0.000694744
0.253233
-0.000578264
0.253626
-0.000455615
0.253956
-0.000329038
0.254224
-0.000199682
0.254429
-6.89507e-05
0.25457
6.31637e-05
0.254647
0.000196077
0.254661
0.000325956
0.254612
0.00045243
0.254498
0.000577797
0.254326
0.000702919
0.254095
0.000823844
0.253805
0.000939756
0.253457
0.00105019
0.253052
0.00115502
0.252589
0.00125231
0.00134486
0.243357
-0.00183445
-0.242421
0.24422
-0.00166473
0.245013
-0.00148774
0.245738
-0.00130273
0.246394
-0.0011114
0.24698
-0.000915533
0.247497
-0.000716493
0.247944
-0.000515537
0.24832
-0.000313357
0.248623
-0.000107172
0.248855
9.47905e-05
0.249017
0.000289586
0.249109
0.0004863
0.249132
0.000679992
0.249086
0.000869595
0.248972
0.0010542
0.248789
0.00123306
0.248538
0.00140581
0.248219
0.0015714
0.00173037
0.233274
-0.00296939
-0.232139
0.234341
-0.00273143
0.235339
-0.00248595
0.236269
-0.00223252
0.23713
-0.00197207
0.23792
-0.0017061
0.23864
-0.00143601
0.239287
-0.00116305
0.239862
-0.000888156
0.240367
-0.000612122
0.2408
-0.000338179
0.241157
-6.77312e-05
0.241442
0.000201288
0.241655
0.00046697
0.241796
0.000728923
0.241864
0.000985703
0.241861
0.00123658
0.241786
0.00148096
0.241639
0.00171802
0.0019477
0.222717
-0.00423088
-0.221456
0.223915
-0.00392955
0.225049
-0.00361914
0.226116
-0.00329979
0.227116
-0.00297232
0.228048
-0.00263817
0.228911
-0.00229889
0.229704
-0.00195596
0.230427
-0.00161081
0.231079
-0.0012648
0.231661
-0.000919491
0.232169
-0.000576165
0.232606
-0.00023569
0.232973
0.000100405
0.233268
0.000433593
0.233491
0.000762758
0.233642
0.00108523
0.233722
0.00140093
0.233731
0.00170924
0.0020099
0.212472
-0.00556128
-0.211141
0.213743
-0.00520078
0.214953
-0.00482908
0.2161
-0.00444684
0.217183
-0.00405509
0.2182
-0.00365546
0.219151
-0.00324975
0.220035
-0.0028397
0.220851
-0.00242697
0.221599
-0.002013
0.222279
-0.00159921
0.222889
-0.00118701
0.223431
-0.000777189
0.223902
-0.000370488
0.22431
2.54332e-05
0.224646
0.000426822
0.224913
0.000818602
0.22511
0.00120305
0.22524
0.0015801
0.00194934
0.202948
-0.0069188
-0.201591
0.20425
-0.00650245
0.205493
-0.0060725
0.206677
-0.00562999
0.207798
-0.0051764
0.208856
-0.00471374
0.209851
-0.00424415
0.210781
-0.00376963
0.211646
-0.00329204
0.212446
-0.00281299
0.21318
-0.00233395
0.21385
-0.0018563
0.214454
-0.0013811
0.214992
-0.000909319
0.21546
-0.000442315
0.215873
1.37727e-05
0.216214
0.000477389
0.216491
0.000926235
0.216703
0.00136852
0.0018029
0.194306
-0.00827561
-0.19295
0.19561
-0.00780595
0.196857
-0.00731999
0.198047
-0.00681909
0.199176
-0.0063054
0.200243
-0.00578153
0.201249
-0.00525002
0.202193
-0.00471322
0.203074
-0.00417318
0.203893
-0.00363168
0.204649
-0.00309027
0.205343
-0.00255027
0.205975
-0.00201286
0.206544
-0.00147897
0.207052
-0.00095001
0.207493
-0.000427288
0.20788
9.07117e-05
0.208201
0.000604518
0.208462
0.00110817
0.00160396
0.186553
-0.00961495
-0.185214
0.187841
-0.00909394
0.189075
-0.00855345
0.190251
-0.00799521
0.191368
-0.00742237
0.192425
-0.00683837
0.193421
-0.00624628
0.194356
-0.00564878
0.195231
-0.00504818
0.196046
-0.00444638
0.196801
-0.00384494
0.197496
-0.00324517
0.198131
-0.00264824
0.198707
-0.00205509
0.199224
-0.00146674
0.199681
-0.000884085
0.200079
-0.000307865
0.200421
0.000262346
0.200704
0.000825568
0.0013793
0.179617
-0.0109281
-0.178303
0.18088
-0.0103575
0.18209
-0.00976324
0.183243
-0.00914787
0.184336
-0.00851608
0.18537
-0.00787238
0.186344
-0.00722041
0.187259
-0.00656327
0.188114
-0.00590349
0.188911
-0.00524302
0.189649
-0.00458342
0.19033
-0.00392595
0.190954
-0.00327169
0.19152
-0.00262156
0.19203
-0.00197639
0.192483
-0.00133708
0.192879
-0.000704117
0.193222
-8.04497e-05
0.193508
0.00053927
0.00114823
0.173392
-0.0122121
-0.172108
0.174628
-0.0115936
0.175811
-0.0109457
0.176936
-0.0102726
0.178001
-0.0095814
0.179006
-0.00887783
0.179952
-0.00816619
0.180839
-0.00745
0.181667
-0.00673196
0.182438
-0.00601405
0.183153
-0.00529772
0.183811
-0.00458414
0.184413
-0.00387426
0.184961
-0.00316895
0.185453
-0.00246898
0.185891
-0.00177517
0.186276
-0.00108827
0.186605
-0.000409854
0.186884
0.000260257
0.000923858
0.16777
-0.0134677
-0.166515
0.168981
-0.0128037
0.170136
-0.0121014
0.171233
-0.0113691
0.172269
-0.0106173
0.173244
-0.00985319
0.174159
-0.0090816
0.175016
-0.00830654
0.175815
-0.00753081
0.176557
-0.00675627
0.177244
-0.00598424
0.177875
-0.00521571
0.178452
-0.0044515
0.178976
-0.00369239
0.179446
-0.00293907
0.179863
-0.00219236
0.180228
-0.00145274
0.180539
-0.000720923
0.180803
-3.69692e-06
0.00071454
0.162651
-0.0146988
-0.16142
0.16384
-0.0139925
0.164972
-0.0132339
0.166043
-0.0124398
0.167051
-0.0116257
0.167998
-0.0107995
0.168883
-0.00996708
0.169709
-0.00913287
0.170478
-0.0082996
0.171191
-0.0074689
0.171849
-0.00664185
0.172452
-0.0058192
0.173002
-0.00500161
0.173499
-0.00418971
0.173945
-0.00338415
0.174338
-0.00258565
0.17468
-0.00179487
0.174972
-0.00101312
0.175211
-0.000242211
0.000521898
0.157951
-0.0159119
-0.156738
0.159126
-0.0151676
0.160241
-0.0143487
0.161291
-0.013489
0.162274
-0.0126094
0.163193
-0.0117186
0.16405
-0.0108237
0.164847
-0.00992956
0.165586
-0.00903852
0.166269
-0.00815187
0.166897
-0.00727029
0.167472
-0.0063942
0.167994
-0.00552402
0.168465
-0.0046602
0.168884
-0.0038033
0.169252
-0.00295401
0.169571
-0.00211307
0.169839
-0.00128144
0.170057
-0.000460246
0.000350776
0.153608
-0.0171198
-0.1524
0.15478
-0.0163394
0.155884
-0.0154529
0.156917
-0.0145216
0.157878
-0.0135708
0.158771
-0.0126111
0.159598
-0.0116513
0.160365
-0.010696
0.161073
-0.00974695
0.161726
-0.00880462
0.162325
-0.00786914
0.162871
-0.00694043
0.163365
-0.00601854
0.163809
-0.00510372
0.164202
-0.00419643
0.164545
-0.00329725
0.164839
-0.00240695
0.165084
-0.00152634
0.16528
-0.000656628
0.000201227
0.149576
-0.0183515
-0.148344
0.15076
-0.0175233
0.151859
-0.0165527
0.152878
-0.01554
0.153816
-0.0145086
0.154678
-0.013474
0.155474
-0.0124467
0.156207
-0.0114296
0.156883
-0.0104228
0.157504
-0.00942576
0.158073
-0.00843761
0.15859
-0.00745755
0.159057
-0.0064852
0.159473
-0.00552055
0.159841
-0.00456393
0.16016
-0.00361589
0.16043
-0.00267716
0.160652
-0.00174862
0.160827
-0.000831266
7.25723e-05
0.145825
-0.0196716
-0.144505
0.147042
-0.0187409
0.148138
-0.0176488
0.149137
-0.016539
0.150043
-0.0154146
0.150868
-0.0142989
0.151625
-0.0132033
0.152321
-0.0121257
0.152962
-0.0110633
0.15355
-0.0100139
0.154087
-0.00897526
0.154576
-0.00794578
0.155015
-0.0069246
0.155406
-0.00591154
0.155749
-0.00490684
0.156044
-0.00391104
0.156292
-0.00292491
0.156493
-0.00194952
0.156647
-0.00098584
-3.58156e-05
0.142371
-0.0211501
-0.140892
0.14362
-0.0199899
0.144694
-0.0187229
0.145651
-0.0174959
0.146508
-0.0162721
0.147285
-0.0150752
0.147996
-0.0139142
0.148651
-0.0127808
0.149255
-0.0116673
0.14981
-0.0105691
0.150317
-0.00948289
0.150778
-0.00840631
0.151192
-0.00733817
0.151558
-0.00627823
0.151878
-0.00522677
0.152152
-0.00418442
0.152379
-0.00315202
0.15256
-0.00213075
0.152696
-0.00112209
-0.000127607
0.139284
-0.137866
-0.0225686
0.140447
-0.0211522
0.141481
-0.0197569
0.142358
-0.0183729
0.143147
-0.0170614
0.143871
-0.0157989
0.144536
-0.0145794
0.145151
-0.0133955
0.14572
-0.0122362
0.146244
-0.0110934
0.146724
-0.00996249
0.147158
-0.00884085
0.147547
-0.00772738
0.147891
-0.00662196
0.148189
-0.00552507
0.148442
-0.00443748
0.148651
-0.00336016
0.148814
-0.00229413
0.148933
-0.00124096
-0.000208141
0.0308459
0.112055
-0.110571
-0.0323306
0.0293339
0.115057
-0.113545
0.0277918
0.118192
-0.11665
0.0262161
0.121482
-0.119906
0.0246034
0.12496
-0.123348
0.022951
0.128669
-0.127017
0.0212568
0.132666
-0.130972
0.0195194
0.137032
-0.135294
0.0177383
0.141869
-0.140087
0.0159136
0.147309
-0.145484
0.0140473
0.153513
-0.151647
0.0121436
0.160669
-0.158765
0.0102113
0.168977
-0.167045
0.00826725
0.178626
-0.176682
0.00634129
0.18974
-0.187814
0.00448361
0.202281
-0.200423
0.00277404
0.215913
-0.214204
0.00133315
0.22978
-0.228339
0.000330371
0.242097
-0.241094
0.249729
-0.249399
0.0306564
0.113532
-0.0321335
0.0291521
0.116562
0.0276178
0.119726
0.0260501
0.12305
0.0244457
0.126565
0.0228018
0.130313
0.021116
0.134352
0.0193868
0.138761
0.0176136
0.143642
0.0157967
0.149126
0.0139378
0.155372
0.0120418
0.162565
0.0101179
0.170901
0.0081838
0.180561
0.00627049
0.191653
0.00442968
0.204122
0.00274266
0.2176
0.00132946
0.231193
0.000354129
0.243072
0.250084
0.030425
0.115
-0.0318922
0.0289305
0.118056
0.0274063
0.12125
0.0258489
0.124607
0.0242549
0.128159
0.0226215
0.131946
0.0209463
0.136027
0.0192277
0.140479
0.0174647
0.145405
0.0156578
0.150933
0.013809
0.157221
0.0119231
0.164451
0.01001
0.172814
0.00808826
0.182482
0.00618976
0.193551
0.00436724
0.205944
0.00270253
0.219265
0.00131402
0.232581
0.000357198
0.244029
0.250441
0.0301532
0.116455
-0.0316085
0.0286708
0.119539
0.0271588
0.122762
0.0256137
0.126152
0.0240322
0.12974
0.0224114
0.133567
0.0207488
0.13769
0.0190428
0.142186
0.0172923
0.147155
0.0154976
0.152727
0.013661
0.159058
0.0117875
0.166324
0.00988761
0.174714
0.00798034
0.18439
0.00609854
0.195433
0.00429566
0.207747
0.00265365
0.220907
0.00128927
0.233946
0.000352127
0.244966
0.250793
0.0298435
0.117896
-0.031285
0.0283749
0.121007
0.026877
0.12426
0.0253461
0.127683
0.0237789
0.131307
0.0221725
0.135174
0.0205245
0.139338
0.0188329
0.143877
0.0170968
0.148891
0.0153165
0.154508
0.0134941
0.16088
0.0116353
0.168183
0.00975065
0.176599
0.00786002
0.18628
0.00599693
0.197296
0.00421552
0.209529
0.00259778
0.222525
0.00125879
0.235285
0.000343201
0.245882
0.251136
0.0294983
0.119322
-0.0309244
0.0280451
0.12246
0.0265628
0.125742
0.0250477
0.129198
0.0234964
0.132859
0.0219061
0.136764
0.0202742
0.14097
0.0185988
0.145552
0.0168789
0.150611
0.0151148
0.156272
0.0133088
0.162686
0.0114666
0.170025
0.00959939
0.178466
0.00772752
0.188152
0.0058853
0.199138
0.00412745
0.211286
0.00253591
0.224116
0.00122397
0.236597
0.000331589
0.246774
0.251468
0.0291203
0.120732
-0.0305301
0.0276838
0.123897
0.0262183
0.127208
0.0247202
0.130696
0.0231861
0.134393
0.0216132
0.138337
0.0199989
0.142584
0.0183413
0.14721
0.0166393
0.152313
0.0148932
0.158018
0.0131055
0.164474
0.0112818
0.171849
0.00943412
0.180313
0.00758316
0.190003
0.00576397
0.200958
0.00403183
0.213019
0.00246847
0.22568
0.00118536
0.23788
0.000317997
0.247642
0.251786
0.0287126
0.122125
-0.0301054
0.0272934
0.125316
0.0258455
0.128656
0.0243653
0.132176
0.0228495
0.135909
0.0212951
0.139891
0.0196996
0.14418
0.0180612
0.148849
0.0163786
0.153996
0.0146522
0.159744
0.0128844
0.166242
0.0110813
0.173652
0.00925513
0.18214
0.0074272
0.191831
0.00563322
0.202752
0.00392893
0.214723
0.00239582
0.227213
0.00114347
0.239132
0.000303028
0.248482
0.252089
0.028278
0.123501
-0.0296537
0.0268763
0.126718
0.0254463
0.130086
0.0239845
0.133638
0.0224876
0.137405
0.0209526
0.141426
0.0193771
0.145755
0.017759
0.150467
0.0160972
0.155658
0.014392
0.16145
0.012646
0.167988
0.0108654
0.175433
0.00906266
0.183942
0.00725988
0.193634
0.0054933
0.204518
0.00381907
0.216397
0.00231833
0.228713
0.00109878
0.240352
0.000287098
0.249294
0.252376
0.0278193
0.12486
-0.0291787
0.0264345
0.128103
0.0250224
0.131498
0.0235791
0.135081
0.0221014
0.138883
0.0205865
0.142941
0.0190318
0.14731
0.0174352
0.152063
0.0157955
0.157297
0.014113
0.163132
0.0123904
0.16971
0.0106341
0.177189
0.00885692
0.18572
0.00708143
0.195409
0.00534446
0.206255
0.00370253
0.218039
0.00223637
0.23018
0.00105167
0.241536
0.000270453
0.250075
0.252646
0.0273389
0.126205
-0.0286835
0.0259699
0.129472
0.0245748
0.132893
0.0231498
0.136506
0.0216915
0.140341
0.0201971
0.144436
0.0186639
0.148843
0.0170898
0.153637
0.0154735
0.158913
0.0138153
0.16479
0.0121178
0.171408
0.0103877
0.178919
0.00863807
0.187469
0.00689204
0.197155
0.00518694
0.20796
0.00357959
0.219646
0.00215021
0.231609
0.00100239
0.242684
0.000253252
0.250824
0.252899
0.0268383
0.127537
-0.0281706
0.0254833
0.130827
0.024104
0.134272
0.0226966
0.137914
0.0212577
0.14178
0.0197841
0.145909
0.0182733
0.150354
0.0167228
0.155188
0.0151312
0.160505
0.0134988
0.166423
0.0118281
0.173078
0.0101261
0.180621
0.0084062
0.189189
0.00669185
0.19887
0.00502094
0.209631