/*--------------------------------*- C++ -*----------------------------------*\
  =========                 |
  \\      /  F ield         | OpenFOAM: The Open Source CFD Toolbox
   \\    /   O peration     | Website:  https://openfoam.org
    \\  /    A nd           | Version:  6.0
     \\/     M anipulation  |
\*---------------------------------------------------------------------------*/
FoamFile
{
    version     2.0;
    format      ascii;
    class       surfaceScalarField;
    location    "21";
    object      phi;
}
// * * * * * * * * * * * * * * * * * * * * * * * * * * * * * * * * * * * * * //

dimensions      [0 3 -1 0 0 0 0];

internalField   nonuniform List<scalar> 
18940
(
0.000521388
-0.472496
0.471975
0.00186925
-0.449932
0.448584
0.00362923
-0.434212
0.432452
0.00552881
-0.420429
0.418529
0.00742306
-0.407275
0.405381
0.0092406
-0.394082
0.392264
0.0109555
-0.380782
0.379067
0.0125688
-0.367574
0.36596
0.0140943
-0.354685
0.353159
0.0155502
-0.342288
0.340832
0.0169536
-0.330491
0.329087
0.0183188
-0.319342
0.317977
0.0196564
-0.308848
0.30751
0.020974
-0.298989
0.297672
0.0222769
-0.289735
0.288432
0.0235699
-0.281046
0.279753
0.0248581
-0.27288
0.271592
0.026148
-0.265181
0.263891
0.0274458
-0.257867
0.256569
-0.25082
0.249508
0.0287574
0.000562324
-0.473059
0.00191107
-0.451281
0.0036554
-0.435956
0.00553164
-0.422305
0.0073948
-0.409138
0.00917623
-0.395863
0.0108531
-0.382458
0.0124283
-0.369149
0.013917
-0.356173
0.0153378
-0.343709
0.016708
-0.331861
0.0180419
-0.320676
0.0193495
-0.310155
0.0206381
-0.300278
0.0219125
-0.291009
0.0231769
-0.28231
0.0244362
-0.274139
0.0256968
-0.266442
0.0269658
-0.259136
-0.252105
0.0282502
0.000598965
-0.473658
0.00194644
-0.452628
0.00367109
-0.437681
0.0055192
-0.424153
0.00734786
-0.410967
0.00909038
-0.397605
0.0107265
-0.384095
0.0122611
-0.370684
0.0137105
-0.357623
0.0150939
-0.345092
0.0164289
-0.333196
0.0177293
-0.321976
0.0190052
-0.311431
0.0202631
-0.301536
0.0215074
-0.292253
0.0227417
-0.283544
0.0239706
-0.275368
0.0252004
-0.267672
0.026439
-0.260375
-0.253361
0.0276951
0.000611147
-0.474269
0.00196256
-0.45398
0.00367095
-0.439389
0.00548961
-0.425972
0.00728113
-0.412759
0.00898211
-0.399306
0.0105749
-0.385687
0.0120664
-0.372175
0.0134743
-0.35903
0.0148183
-0.346436
0.0161161
-0.334494
0.0173814
-0.323242
0.0186239
-0.312674
0.0198497
-0.302762
0.0210627
-0.293466
0.022266
-0.284748
0.0234638
-0.276566
0.0246624
-0.26887
0.0258705
-0.261583
-0.254589
0.0270991
0.00062239
-0.474891
0.00197047
-0.455328
0.00365874
-0.441077
0.00544478
-0.427758
0.00719597
-0.41451
0.0088525
-0.400963
0.0103993
-0.387234
0.0118454
-0.373621
0.0132094
-0.360394
0.0145118
-0.347738
0.0157703
-0.335752
0.0169987
-0.32447
0.0182063
-0.313881
0.0193987
-0.303954
0.0205795
-0.294647
0.0217512
-0.285919
0.0229177
-0.277732
0.0240854
-0.270038
0.0252638
-0.262761
-0.255792
0.0264663
0.000626482
-0.475518
0.00196739
-0.456669
0.00363316
-0.442743
0.00538417
-0.429509
0.00709232
-0.416218
0.00870163
-0.402572
0.0101999
-0.388732
0.011598
-0.375019
0.0129158
-0.361712
0.0141744
-0.348997
0.0153917
-0.33697
0.0165813
-0.32566
0.0177523
-0.315052
0.0189101
-0.305112
0.0200577
-0.295795
0.0211975
-0.287059
0.0223327
-0.278868
0.0234699
-0.271175
0.0246197
-0.263911
-0.25697
0.0257978
0.000628699
-0.476146
0.0019577
-0.457998
0.00359673
-0.444382
0.00530927
-0.431222
0.00697128
-0.41788
0.00853045
-0.404131
0.00997738
-0.390179
0.0113248
-0.376367
0.012594
-0.362981
0.0138064
-0.350209
0.0149802
-0.338144
0.0161289
-0.326808
0.0172614
-0.316185
0.0183831
-0.306234
0.0194966
-0.296908
0.0206038
-0.288166
0.0217078
-0.279972
0.022815
-0.272282
0.0239373
-0.265033
-0.258125
0.0250928
0.000627289
-0.476774
0.00194067
-0.459311
0.00354956
-0.445991
0.00522051
-0.432893
0.00683343
-0.419493
0.00833959
-0.405638
0.00973239
-0.391572
0.0110265
-0.377661
0.0122443
-0.364199
0.0134078
-0.351373
0.0145354
-0.339271
0.0156407
-0.327914
0.0167326
-0.317277
0.0178163
-0.307317
0.0188941
-0.297986
0.0199678
-0.28924
0.0210402
-0.281044
0.0221178
-0.27336
0.0232134
-0.266129
-0.25926
0.0243477
0.000623645
-0.477397
0.00191792
-0.460605
0.00349315
-0.447566
0.00511925
-0.434519
0.00668
-0.421054
0.0081302
-0.407088
0.00946595
-0.392908
0.0107038
-0.378899
0.0118672
-0.365363
0.0129788
-0.352485
0.0140572
-0.34035
0.015116
-0.328972
0.0161643
-0.318325
0.0172071
-0.30836
0.018247
-0.299026
0.0192854
-0.290278
0.0203252
-0.282084
0.0213728
-0.274408
0.0224419
-0.267198
-0.260374
0.023556
0.00061749
-0.478015
0.00188965
-0.461878
0.00342819
-0.449105
0.00500649
-0.436097
0.00651218
-0.422559
0.0079035
-0.408479
0.00917923
-0.394184
0.0103577
-0.380077
0.0114635
-0.366468
0.0125197
-0.353541
0.0135452
-0.341375
0.0145538
-0.329981
0.0155545
-0.319326
0.0165528
-0.309358
0.0175512
-0.300024
0.0185513
-0.291279
0.0195558
-0.283088
0.0205715
-0.275423
0.0216129
-0.26824
-0.261468
0.0227068
0.000609488
-0.478624
0.00185696
-0.463125
0.00335608
-0.450604
0.00488382
-0.437625
0.00633169
-0.424007
0.00766127
-0.409809
0.00887393
-0.395396
0.00998978
-0.381193
0.0110343
-0.367513
0.0120311
-0.354538
0.0129994
-0.342343
0.0139531
-0.330935
0.0149016
-0.320274
0.0158503
-0.310307
0.0168023
-0.300976
0.0177594
-0.292236
0.0187243
-0.284053
0.0197039
-0.276403
0.0207143
-0.26925
-0.262539
0.0217859
0.000600033
-0.479224
0.00182077
-0.464346
0.00327818
-0.452061
0.00475304
-0.4391
0.00614057
-0.425395
0.00740568
-0.411074
0.00855227
-0.396543
0.00960203
-0.382243
0.0105813
-0.368492
0.0115142
-0.355471
0.0124202
-0.343249
0.0133133
-0.331828
0.0142033
-0.321164
0.0150962
-0.3112
0.0159956
-0.301876
0.0169034
-0.293143
0.0178227
-0.284972
0.0187609
-0.277341
0.0197349
-0.270224
-0.263583
0.0207783
0.000590014
-0.479814
0.00178264
-0.465538
0.0031965
-0.453475
0.00461645
-0.44052
0.00594143
-0.42672
0.00713959
-0.412272
0.00821725
-0.397621
0.00919755
-0.383223
0.0101075
-0.369402
0.0109715
-0.356335
0.011809
-0.344087
0.0126343
-0.332653
0.0134577
-0.321988
0.0142861
-0.312028
0.0151239
-0.302713
0.0159742
-0.293994
0.0168407
-0.285839
0.017731
-0.278231
0.0186625
-0.271156
-0.264587
0.0196671
0.000580561
-0.480395
0.00174444
-0.466702
0.00311321
-0.454844
0.00447658
-0.441883
0.00573721
-0.42798
0.00686638
-0.413401
0.00787268
-0.398627
0.00878051
-0.384131
0.0096173
-0.370239
0.0104074
-0.357125
0.0111699
-0.344849
0.0119191
-0.333402
0.0126655
-0.322734
0.0134169
-0.31278
0.0141793
-0.303476
0.0149579
-0.294772
0.0157584
-0.286639
0.0165894
-0.279063
0.0174681
-0.272034
-0.265545
0.0184257
0.000573174
-0.480968
0.00170819
-0.467837
0.00303058
-0.456166
0.00433621
-0.443189
0.00553137
-0.429176
0.00659017
-0.41446
0.00752326
-0.39956
0.00835611
-0.384964
0.00911635
-0.370999
0.00982798
-0.357836
0.0105096
-0.345531
0.0111748
-0.334068
0.0118337
-0.323393
0.0124939
-0.31344
0.0131622
-0.304144
0.0138456
-0.295456
0.014553
-0.287347
0.0152965
-0.279806
0.0160986
-0.272836
-0.266461
0.0170152
0.000569281
-0.481537
0.00167547
-0.468944
0.00295087
-0.457442
0.00419861
-0.444436
0.00532818
-0.430305
0.00631609
-0.415448
0.00717486
-0.400419
0.00793082
-0.38572
0.00861159
-0.37168
0.00924056
-0.358465
0.0098356
-0.346126
0.0104097
-0.334642
0.0109721
-0.323955
0.0115296
-0.313997
0.0120876
-0.304702
0.0126517
-0.29602
0.0132303
-0.287925
0.0138412
-0.280417
0.014525
-0.27352
-0.267321
0.0153848
0.000569991
-0.482107
0.00164846
-0.470022
0.00287803
-0.458671
0.00406865
-0.445627
0.00513302
-0.431369
0.00605022
-0.416365
0.00683461
-0.401203
0.00751305
-0.386398
0.00811252
-0.372279
0.00865508
-0.359008
0.00915717
-0.346628
0.00963072
-0.335115
0.0100848
-0.324409
0.0105266
-0.314439
0.0109618
-0.305137
0.0113943
-0.296452
0.0118284
-0.28836
0.0122784
-0.280867
0.0127911
-0.274033
-0.267957
0.0134272
0.000578336
-0.482686
0.00163439
-0.471078
0.00281992
-0.459857
0.00395272
-0.44676
0.00495142
-0.432368
0.00579864
-0.417212
0.00651032
-0.401915
0.00711328
-0.387001
0.00763299
-0.372799
0.00808889
-0.359464
0.00849398
-0.347033
0.00885649
-0.335478
0.00918246
-0.324735
0.00947852
-0.314735
0.00975426
-0.305413
0.0100227
-0.296721
0.0102966
-0.288633
0.0105795
-0.28115
0.0108587
-0.274312
-0.268062
0.0109635
0.000609027
-0.483295
0.00164899
-0.472118
0.0027851
-0.460993
0.00385501
-0.44783
0.00478678
-0.4333
0.00556604
-0.417992
0.00620928
-0.402558
0.00674264
-0.387534
0.00718979
-0.373246
0.007567
-0.359841
0.00788235
-0.347348
0.00813685
-0.335732
0.00832653
-0.324925
0.0084459
-0.314855
0.00849351
-0.305461
0.00847862
-0.296706
0.00842495
-0.28858
0.00836609
-0.281091
0.00832566
-0.274271
-0.267975
0.00823861
0.00070227
-0.483997
0.00169824
-0.473114
0.0027687
-0.462064
0.00377261
-0.448834
0.00463953
-0.434167
0.00535563
-0.418708
0.00593738
-0.40314
0.00641042
-0.388008
0.00679727
-0.373633
0.00711227
-0.360156
0.00736036
-0.347597
0.00753721
-0.335909
0.00762909
-0.325017
0.00761182
-0.314837
0.00744784
-0.305297
0.00708121
-0.296339
0.00644208
-0.287941
0.00551648
-0.280166
0.0046232
-0.273378
-0.269001
0.00564876
0.492203
0.000548544
-0.492751
0.491709
0.000493302
0.491237
0.000472586
0.490774
0.000463129
0.490317
0.000456834
0.489865
0.000452001
0.489416
0.000448375
0.488971
0.000445532
0.488528
0.000442972
0.488087
0.000440453
0.48765
0.000437689
0.487215
0.000434903
0.486783
0.000431628
0.486354
0.000428922
0.485929
0.000424754
0.485507
0.000422513
0.485094
0.000413329
0.484686
0.00040795
0.484319
0.000366572
0.000322102
0.487978
0.00114378
-0.488573
0.487337
0.00113391
0.486672
0.00113723
0.485984
0.00115139
0.485273
0.00116832
0.484541
0.00118412
0.483791
0.00119841
0.483025
0.00121126
0.482245
0.00122245
0.481454
0.0012318
0.480652
0.00123917
0.479842
0.00124502
0.479025
0.00124916
0.478201
0.00125291
0.477371
0.00125471
0.476537
0.00125682
0.475697
0.00125282
0.474857
0.00124845
0.473997
0.00122572
0.00120556
0.477123
0.00155218
-0.477531
0.476645
0.00161131
0.476113
0.00166921
0.475535
0.00173007
0.474912
0.00179059
0.474249
0.00184711
0.473549
0.00189865
0.472815
0.00194532
0.47205
0.00198723
0.471258
0.00202453
0.470439
0.00205735
0.469598
0.00208639
0.468735
0.00211197
0.467852
0.00213575
0.46695
0.00215704
0.466029
0.00217749
0.465086
0.0021959
0.464119
0.00221574
0.463112
0.00223222
0.00225447
0.461281
0.00173637
-0.461465
0.461026
0.00186622
0.460707
0.00198856
0.46033
0.00210641
0.459901
0.00221944
0.459423
0.00232552
0.458898
0.00242361
0.45833
0.00251367
0.457721
0.0025959
0.457075
0.00267066
0.456394
0.00273836
0.45568
0.00279992
0.454936
0.00285637
0.454163
0.00290903
0.45336
0.00295918
0.452528
0.00300957
0.451664
0.00306054
0.450764
0.00311569
0.449821
0.003175
0.00324187
0.44349
0.00174015
-0.443494
0.44342
0.00193689
0.443285
0.0021229
0.443092
0.00229937
0.442845
0.0024669
0.442546
0.00262455
0.442198
0.00277156
0.441804
0.00290774
0.441367
0.00303323
0.440889
0.00314848
0.440373
0.00325406
0.439822
0.00335118
0.439237
0.00344143
0.438619
0.00352654
0.43797
0.00360869
0.437287
0.00369196
0.436569
0.00377849
0.435813
0.00387171
0.435014
0.00397428
0.00408903
0.425431
0.00162946
-0.42532
0.42548
0.00188773
0.42547
0.00213314
0.425403
0.00236577
0.425284
0.00258614
0.425115
0.00279385
0.424898
0.00298837
0.424636
0.00316939
0.424332
0.00333696
0.423989
0.00349147
0.42361
0.0036337
0.423196
0.00376511
0.42275
0.00388719
0.422274
0.00400285
0.421767
0.00411579
0.421229
0.00422971
0.420658
0.0043489
0.420052
0.00447832
0.419404
0.0046224
0.0047851
0.408072
0.00146325
-0.407906
0.408182
0.00177799
0.408237
0.00207817
0.408239
0.00236323
0.408192
0.00263331
0.408098
0.00288809
0.407959
0.00312712
0.407779
0.00334997
0.407559
0.00355655
0.407303
0.00374711
0.407014
0.00392251
0.406695
0.00408433
0.406348
0.00423437
0.405975
0.00437592
0.405577
0.00451395
0.405153
0.00465326
0.404703
0.00479954
0.404221
0.00495991
0.403703
0.00514088
0.00534798
0.391886
0.00128352
-0.391706
0.392013
0.00165066
0.39209
0.00200165
0.392117
0.00233555
0.392099
0.00265208
0.392036
0.00295079
0.391932
0.00323115
0.391789
0.00349255
0.391611
0.00373469
0.391401
0.00395764
0.391161
0.00416225
0.390896
0.00434954
0.390608
0.00452209
0.3903
0.00468407
0.389974
0.00484024
0.38963
0.00499713
0.389266
0.00516284
0.38888
0.00534654
0.388463
0.00555749
0.00580353
0.376997
0.00111545
-0.376829
0.377116
0.00153194
0.377187
0.00193074
0.377212
0.00231058
0.377193
0.00267087
0.377133
0.0030109
0.377034
0.00332993
0.376899
0.0036271
0.376732
0.00390185
0.376536
0.00415382
0.376315
0.00438376
0.376072
0.00459223
0.375812
0.00478195
0.375539
0.00495737
0.375255
0.00512423
0.374962
0.0052901
0.374659
0.00546581
0.374342
0.00566337
0.374004
0.0058957
0.00617423
0.363346
0.000971447
-0.363202
0.363443
0.00143517
0.363494
0.00187965
0.363501
0.00230339
0.363466
0.00270551
0.363392
0.00308498
0.363281
0.00344084
0.363137
0.00377178
0.362961
0.004077
0.36276
0.00435547
0.362536
0.00460744
0.362295
0.00483304
0.362042
0.00503544
0.361781
0.00521764
0.361519
0.00538708
0.361256
0.00555232
0.360995
0.00572726
0.360731
0.00592739
0.360456
0.00617072
0.00647432
0.350796
0.000855699
-0.350681
0.350866
0.00136524
0.350892
0.00185404
0.350875
0.00232035
0.350817
0.0027631
0.350721
0.00318085
0.35059
0.00357247
0.350426
0.00393598
0.350232
0.0042704
0.350014
0.00457364
0.349776
0.00484566
0.349524
0.0050852
0.349263
0.00529599
0.349002
0.00547867
0.348746
0.00564304
0.348502
0.00579676
0.34827
0.00595883
0.34805
0.00614769
0.347831
0.0063893
0.00670899
0.339197
0.000767831
-0.33911
0.33924
0.0013223
0.33924
0.00185459
0.339198
0.0023627
0.339115
0.00284543
0.338995
0.00330092
0.33884
0.00372789
0.338652
0.00412351
0.338436
0.00448672
0.338196
0.00481384
0.337936
0.00510514
0.337665
0.00535611
0.337389
0.00557231
0.337118
0.00574955
0.336859
0.00590174
0.336625
0.00603147
0.336416
0.00616732
0.336237
0.00632704
0.336075
0.00655109
0.00687498
0.328411
0.000705373
-0.328349
0.328429
0.00130426
0.328404
0.00187955
0.328338
0.00242908
0.328232
0.00295155
0.328088
0.00344469
0.327909
0.00390715
0.327697
0.00433504
0.327456
0.00472753
0.327192
0.00507833
0.326908
0.00538905
0.326614
0.00565036
0.326315
0.00587067
0.326028
0.00603645
0.325759
0.00617097
0.325529
0.0062619
0.325338
0.00635773
0.325202
0.00646327
0.325103
0.00665043
0.00696073
0.318321
0.000665307
-0.318281
0.318317
0.00130833
0.31827
0.00192638
0.318182
0.00251716
0.318054
0.00307942
0.317888
0.00361047
0.317687
0.00410895
0.317452
0.00456978
0.317187
0.00499264
0.316897
0.00536788
0.316587
0.00569955
0.316267
0.00597057
0.315941
0.00619589
0.315633
0.00634478
0.315345
0.0064589
0.315114
0.00649284
0.314935
0.00653664
0.314848
0.00655024
0.31482
0.00667834
0.00694367
0.308834
0.00064497
-0.308814
0.308811
0.00133201
0.308745
0.00199266
0.308637
0.00262466
0.30849
0.00322689
0.308304
0.00379631
0.308081
0.00433167
0.307824
0.00482643
0.307536
0.00528128
0.307221
0.0056825
0.306883
0.00603769
0.306535
0.00631893
0.306178
0.00655279
0.305843
0.00667986
0.305526
0.00677528
0.30529
0.0067294
0.305111
0.00671558
0.305082
0.00657887
0.305133
0.00662714
0.00678036
0.299876
0.000642566
-0.299874
0.299835
0.00137356
0.299751
0.00207667
0.299626
0.00274984
0.29946
0.00339228
0.299256
0.00400059
0.299014
0.00457376
0.298737
0.00510379
0.298425
0.0055924
0.298086
0.00602154
0.29772
0.00640404
0.297342
0.00669731
0.296949
0.00694555
0.296581
0.00704756
0.296224
0.00713203
0.295976
0.00697797
0.29578
0.00691185
0.295822
0.00653604
0.295946
0.00650369
0.00638705
0.291385
0.00065735
-0.2914
0.291327
0.00143222
0.291226
0.00217749
0.291084
0.00289162
0.290902
0.00357435
0.290681
0.00422198
0.290421
0.00483378
0.290124
0.00540025
0.289792
0.00592455
0.28943
0.00638391
0.289036
0.00679742
0.288628
0.00710578
0.288197
0.00737661
0.287791
0.00745356
0.28738
0.00754237
0.287109
0.00724962
0.286872
0.0071483
0.287015
0.00639356
0.287174
0.00634411
0.00562088
0.283307
0.000689293
-0.283339
0.283232
0.00150766
0.283115
0.00229433
0.282958
0.00304876
0.282761
0.0037714
0.282524
0.00445825
0.282249
0.00510896
0.281937
0.00571256
0.281588
0.00627384
0.281206
0.00676517
0.280791
0.00721302
0.280356
0.00754032
0.279891
0.0078423
0.279445
0.00789903
0.278972
0.00801522
0.278657
0.00756479
0.278343
0.0074628
0.278631
0.00610495
0.278812
0.00616355
0.00426713
0.275586
0.000738585
-0.275636
0.275495
0.00159899
0.275364
0.00242513
0.275195
0.00321795
0.274987
0.00397887
0.274742
0.00470351
0.274459
0.00539199
0.27414
0.00603175
0.273784
0.00662983
0.273396
0.00715335
0.272972
0.00763707
0.272526
0.00798633
0.272042
0.00832623
0.271569
0.00837157
0.271044
0.00854052
0.270664
0.00794498
0.270209
0.00791723
0.27059
0.00572397
0.270939
0.00581482
0.00182806
0.268163
-0.268232
0.000807342
0.268056
0.00170595
0.267914
0.0025672
0.267738
0.00339397
0.267528
0.00418893
0.267284
0.00494721
0.267006
0.00566954
0.266697
0.00634146
0.266354
0.00697281
0.265981
0.00752598
0.265575
0.00804352
0.265146
0.00841534
0.264677
0.00879484
0.264208
0.00884054
0.263672
0.00907693
0.263226
0.00839037
0.262607
0.00853691
0.262679
0.00565153
0.263039
0.00545502
-0.00413384
0.496614
0.000117612
-0.496732
0.49657
4.45336e-05
0.496536
3.36274e-05
0.496492
4.45067e-05
0.496429
6.26532e-05
0.496344
8.49291e-05
0.496234
0.000110441
0.496096
0.000137978
0.495929
0.000166216
0.495735
0.000194168
0.495514
0.000221021
0.495268
0.000246448
0.494998
0.000269763
0.494707
0.000291306
0.494397
0.00030955
0.494071
0.000326355
0.493735
0.000336148
0.493389
0.000345252
0.49306
0.000329744
0.000308494
0.489467
-0.000422712
-0.488927
0.489929
-0.000417128
0.490341
-0.000378368
0.490697
-0.000311957
0.490993
-0.000233188
0.491227
-0.00014938
0.4914
-6.23536e-05
0.491511
2.67804e-05
0.491561
0.000116391
0.49155
0.000204914
0.49148
0.000290988
0.491353
0.000373886
0.49117
0.00045258
0.490934
0.000527013
0.490648
0.00059544
0.490316
0.000658633
0.48994
0.000711991
0.489528
0.000758019
0.489071
0.000785795
0.000807031
0.47268
-0.00143514
-0.471668
0.473597
-0.00133406
0.474435
-0.00121632
0.4752
-0.00107673
0.47589
-0.000923005
0.476503
-0.000762672
0.47704
-0.000599155
0.477501
-0.000434123
0.477887
-0.000269267
0.478198
-0.000106287
0.478436
5.3197e-05
0.478601
0.000208125
0.478697
0.000357292
0.478723
0.000500181
0.478684
0.00063528
0.47858
0.000762457
0.478413
0.000879098
0.478185
0.000986159
0.47789
0.00108047
0.00116579
0.451714
-0.00271886
-0.45043
0.452913
-0.00253333
0.45403
-0.00233392
0.455071
-0.00211779
0.456037
-0.00188816
0.456925
-0.00165058
0.457734
-0.0014091
0.458467
-0.00116621
0.459121
-0.000923914
0.459699
-0.000684072
0.460201
-0.000448452
0.460627
-0.00021838
0.46098
4.84711e-06
0.461259
0.000220435
0.461467
0.000427136
0.461605
0.00062447
0.461674
0.000811035
0.461673
0.000986928
0.461602
0.00115101
0.00130307
0.430626
-0.00413273
-0.429212
0.431966
-0.00387365
0.433231
-0.00359862
0.434421
-0.00330822
0.435538
-0.00300475
0.43658
-0.00269245
0.437546
-0.00237549
0.438437
-0.00205705
0.439253
-0.00173962
0.439994
-0.0014253
0.440661
-0.00111594
0.441256
-0.000813029
0.441779
-0.000517843
0.44223
-0.000231301
0.442612
4.55666e-05
0.442924
0.000312142
0.443168
0.000567516
0.443344
0.000811213
0.443452
0.0010427
0.00126087
0.410951
-0.00558793
-0.409496
0.41234
-0.00526276
0.413659
-0.00491769
0.414907
-0.0045558
0.416082
-0.00418028
0.417185
-0.0037954
0.418216
-0.00340559
0.419173
-0.00301454
0.420059
-0.00262522
0.420873
-0.00223995
0.421618
-0.00186067
0.422294
-0.00148883
0.422902
-0.00112566
0.423442
-0.00077207
0.423917
-0.000428919
0.424326
-9.68636e-05
0.42467
0.000223392
0.42495
0.000531184
0.425166
0.000826248
0.00110746
0.393172
-0.00703556
-0.391724
0.394557
-0.00664821
0.395876
-0.00623593
0.397124
-0.00580384
0.3983
-0.00535696
0.399405
-0.00490052
0.400439
-0.00443951
0.401403
-0.0039781
0.402297
-0.0035196
0.403124
-0.00306654
0.403884
-0.00262083
0.404579
-0.00218384
0.40521
-0.00175665
0.405778
-0.00134006
0.406284
-0.000934759
0.406728
-0.000541351
0.407112
-0.000160403
0.407436
0.000207419
0.4077
0.000561912
0.000901964
0.377275
-0.00845405
-0.375857
0.378633
-0.00800571
0.379923
-0.00752639
0.381143
-0.00702351
0.38229
-0.00650452
0.383366
-0.00597627
0.384371
-0.00544454
0.385307
-0.00491395
0.386175
-0.00438808
0.386978
-0.00386956
0.387718
-0.00336018
0.388395
-0.00286113
0.389012
-0.00237324
0.389569
-0.00189708
0.390067
-0.00143316
0.390508
-0.000981966
0.390891
-0.000543924
0.391218
-0.000119685
0.39149
0.000290524
0.000685535
0.363026
-0.00983872
-0.361641
0.364348
-0.00932853
0.365602
-0.00878006
0.366782
-0.0082038
0.367888
-0.00761048
0.368921
-0.007009
0.369883
-0.00640599
0.370775
-0.00580647
0.371601
-0.00521427
0.372364
-0.00463195
0.373064
-0.00406104
0.373706
-0.00350237
0.374289
-0.00295642
0.374815
-0.00242348
0.375286
-0.00190377
0.375702
-0.00139762
0.376063
-0.000905336
0.376371
-0.00042755
0.376626
3.54478e-05
0.000482432
0.350139
-0.0111941
-0.348783
0.351429
-0.0106194
0.352647
-0.00999738
0.353786
-0.00934314
0.354848
-0.00867194
0.355833
-0.00799485
0.356747
-0.00731924
0.357591
-0.00665051
0.358369
-0.0059926
0.359085
-0.00534779
0.359741
-0.00471713
0.360339
-0.00410092
0.360882
-0.00349916
0.36137
-0.00291171
0.361805
-0.0023385
0.362187
-0.00177963
0.362517
-0.00123531
0.362796
-0.000706139
0.363024
-0.000192497
0.000304319
0.338357
-0.0125293
-0.337022
0.339623
-0.0118855
0.340808
-0.0111826
0.341909
-0.0104438
0.342927
-0.0096901
0.343867
-0.00893436
0.344732
-0.00818436
0.345527
-0.00744593
0.346258
-0.00672291
0.346927
-0.00601694
0.347538
-0.00532829
0.348093
-0.00465653
0.348595
-0.00400104
0.349045
-0.00336115
0.349443
-0.00273639
0.34979
-0.00212665
0.350086
-0.00153201
0.350333
-0.000953064
0.350531
-0.000390308
0.000154854
0.327476
-0.0138557
-0.32615
0.328726
-0.0131354
0.329884
-0.0123408
0.330949
-0.0115087
0.331926
-0.0106672
0.332821
-0.00982926
0.33364
-0.00900291
0.334388
-0.00819448
0.335072
-0.00740727
0.335697
-0.00664176
0.336266
-0.0058971
0.336781
-0.00517195
0.337245
-0.00446487
0.337659
-0.00377454
0.338022
-0.00310005
0.338337
-0.00244103
0.338602
-0.00179747
0.338819
-0.00116999
0.338988
-0.000559214
3.32856e-05
0.317341
-0.0151864
-0.316011
0.318584
-0.0143777
0.319719
-0.0134756
0.32075
-0.0125403
0.321688
-0.0116051
0.32254
-0.0106809
0.323313
-0.00977635
0.324017
-0.00889818
0.324658
-0.00804832
0.325241
-0.00722537
0.325771
-0.0064271
0.32625
-0.00565103
0.32668
-0.00489469
0.327062
-0.00415597
0.327395
-0.00343351
0.327681
-0.00272667
0.327919
-0.00203539
0.328109
-0.00136031
0.328252
-0.000702292
-6.3109e-05
0.307841
-0.0165365
-0.306491
0.309083
-0.0156199
0.310197
-0.0145894
0.311196
-0.01354
0.312096
-0.0125047
0.312905
-0.0114898
0.313634
-0.0105056
0.314295
-0.00955884
0.314895
-0.00864854
0.31544
-0.00777083
0.315935
-0.00692187
0.316382
-0.00609774
0.316782
-0.00529467
0.317136
-0.00450971
0.317443
-0.00374102
0.317704
-0.00298772
0.317918
-0.00224972
0.318086
-0.00152778
0.318207
-0.000823015
-0.000137526
0.298899
-0.0179259
-0.29751
0.300144
-0.0168649
0.301236
-0.0156816
0.302205
-0.0145091
0.303066
-0.0133657
0.303831
-0.0122546
0.304516
-0.0111906
0.305135
-0.0101777
0.305696
-0.00920979
0.306206
-0.00828059
0.306669
-0.00738446
0.307086
-0.00651553
0.30746
-0.00566849
0.30779
-0.00483951
0.308075
-0.0040263
0.308315
-0.00322782
0.30851
-0.00244396
0.308657
-0.00167567
0.308759
-0.000924433
-0.00019277
0.290474
-0.0193897
-0.28901
0.291717
-0.0181081
0.292784
-0.0167484
0.293723
-0.0154486
0.294542
-0.014185
0.295259
-0.0129715
0.295898
-0.0118298
0.296475
-0.0107544
0.296998
-0.0097326
0.297473
-0.00875598
0.297906
-0.00781692
0.298297
-0.00690692
0.298648
-0.0060189
0.298956
-0.00514822
0.299222
-0.00429225
0.299444
-0.00344975
0.299621
-0.00262073
0.299752
-0.00180639
0.299836
-0.00100871
-0.000230768
0.282538
-0.0209942
-0.280933
0.283772
-0.0193423
0.284806
-0.017782
0.285714
-0.0163567
0.286484
-0.014955
0.287145
-0.0136327
0.287734
-0.0124188
0.288267
-0.0112869
0.28875
-0.0102159
0.289191
-0.00919717
0.289595
-0.0082204
0.289961
-0.00727364
0.29029
-0.00634791
0.29058
-0.00543796
0.290829
-0.00454089
0.291034
-0.00365543
0.291195
-0.00278172
0.29131
-0.00192139
0.291379
-0.00107699
-0.000252379
0.275047
-0.0228035
-0.273237
0.276286
-0.020582
0.27728
-0.0187753
0.27814
-0.0172176
0.278848
-0.0156621
0.279445
-0.0142302
0.279978
-0.0129516
0.280462
-0.0117707
0.280904
-0.010658
0.281311
-0.00960434
0.281686
-0.00859598
0.28203
-0.00761717
0.282339
-0.00665719
0.282612
-0.00571036
0.282845
-0.00477373
0.283035
-0.0038461
0.283181
-0.0029279
0.283281
-0.00202127
0.283334
-0.00112956
-0.00025764
0.267949
-0.0245745
-0.266178
0.26924
-0.0218728
0.270209
-0.0197452
0.270961
-0.0179688
0.271578
-0.0162797
0.272112
-0.0147641
0.272585
-0.0134247
0.273015
-0.0122005
0.273414
-0.0110571
0.273788
-0.00997808
0.274137
-0.00894455
0.274458
-0.00793818
0.274748
-0.00694723
0.275003
-0.00596573
0.27522
-0.00499083
0.275396
-0.00402161
0.275527
-0.00305896
0.275611
-0.00210563
0.275647
-0.00116587
-0.000245931
0.261117
-0.261306
-0.0243854
0.262466
-0.0232218
0.263689
-0.0209678
0.264176
-0.0184562
0.264627
-0.0167304
0.265121
-0.0152582
0.265547
-0.0138508
0.265916
-0.0125694
0.266267
-0.011408
0.266606
-0.0103171
0.266926
-0.00926415
0.26722
-0.00823294
0.267487
-0.00721343
0.26772
-0.00619915
0.267916
-0.00518709
0.268072
-0.00417689
0.268183
-0.00317017
0.268247
-0.0021703
0.268264
-0.00118222
-0.000213735
0.0275109
0.234899
-0.233725
-0.0286841
0.0263032
0.241765
-0.240558
0.0250637
0.248868
-0.247628
0.0237923
0.256248
-0.254977
0.0224895
0.263956
-0.262654
0.021156
0.272041
-0.270707
0.0197913
0.280549
-0.279185
0.0183931
0.289534
-0.288135
0.0169567
0.299057
-0.29762
0.0154752
0.309206
-0.307724
0.0139399
0.32011
-0.318575
0.0123406
0.331969
-0.33037
0.0106672
0.345074
-0.343401
0.00891298
0.359833
-0.358079
0.00708106
0.376762
-0.37493
0.00519761
0.3964
-0.394517
0.00333388
0.419124
-0.41726
0.00164064
0.444567
-0.442874
0.000395175
0.46987
-0.468624
0.489753
-0.489358
0.0275156
0.236074
-0.0286909
0.0263071
0.242974
0.0250672
0.250108
0.023795
0.25752
0.0224907
0.265261
0.0211546
0.273377
0.0197863
0.281917
0.0183836
0.290936
0.0169421
0.300498
0.0154551
0.310693
0.0139143
0.321651
0.0123097
0.333574
0.010632
0.346752
0.00887534
0.36159
0.00704477
0.378592
0.00516935
0.398276
0.00332397
0.420969
0.0016618
0.446229
0.000445512
0.471086
0.490199
0.027488
0.237251
-0.0286649
0.0262794
0.244182
0.0250401
0.251347
0.0237687
0.258792
0.0224645
0.266565
0.0211278
0.274714
0.0197579
0.283287
0.0183527
0.292341
0.016908
0.301943
0.0154175
0.312183
0.013873
0.323196
0.0122652
0.335181
0.0105851
0.348432
0.00882786
0.363347
0.00700022
0.38042
0.00513354
0.400142
0.00330451
0.422798
0.00166325
0.447871
0.000458826
0.47229
0.490657
0.0274266
0.238427
-0.028603
0.0262199
0.245389
0.0249833
0.252583
0.0237145
0.26006
0.0224124
0.267867
0.0210768
0.276049
0.0197072
0.284657
0.0183015
0.293747
0.0168555
0.303389
0.0153633
0.313675
0.0138169
0.324742
0.0122075
0.336791
0.0105266
0.350113
0.00877025
0.365104
0.00694628
0.382244
0.0050876
0.402001
0.00327203
0.424614
0.00164826
0.449494
0.000459091
0.47348
0.491116
0.0273303
0.2396
-0.0285034
0.0261283
0.246591
0.0248969
0.253815
0.023633
0.261324
0.0223349
0.269165
0.0210025
0.277381
0.019635
0.286024
0.0182304
0.295152
0.0167849
0.304834
0.0152926
0.315168
0.013746
0.326289
0.0121365
0.3384
0.0104562
0.351793
0.00870198
0.366858
0.00688253
0.384063
0.00503217
0.403851
0.00323022
0.426416
0.00162546
0.451099
0.000454784
0.47465
0.491571
0.0272023
0.240767
-0.0283693
0.0260074
0.247786
0.0247834
0.255039
0.0235262
0.262581
0.0222341
0.270457
0.0209065
0.278709
0.0195426
0.287388
0.0181406
0.296554
0.0166969
0.306278
0.0152059
0.316659
0.0136604
0.327834
0.0120522
0.340009
0.0103739
0.353471
0.0086231
0.368609
0.00680956
0.385877
0.00496898
0.405692
0.00318225
0.428203
0.00159816
0.452683
0.000447364
0.475801
0.492019
0.0270442
0.241926
-0.028203
0.0258588
0.248971
0.0246442
0.256253
0.0233957
0.26383
0.0221111
0.271742
0.0207897
0.280031
0.0194309
0.288747
0.0180328
0.297952
0.0165921
0.307719
0.0151036
0.318147
0.0135604
0.329377
0.0119548
0.341614
0.0102799
0.355146
0.00853395
0.370355
0.00672795
0.387683
0.00489893
0.407521
0.00312906
0.429972
0.00156675
0.454246
0.000437048
0.476931
0.492456
0.0268652
0.243075
-0.0280146
0.0256901
0.250147
0.0244858
0.257458
0.0232467
0.265069
0.0219702
0.273018
0.0206556
0.281345
0.0193022
0.290101
0.0179086
0.299346
0.0164716
0.309156
0.0149864
0.319632
0.0134465
0.330917
0.0118446
0.343216
0.0101743
0.356816
0.00843474
0.372094
0.00663791
0.38948
0.00482214
0.409337
0.00307065
0.431724
0.00153131
0.455785
0.00042428
0.478038
0.49288
0.026664
0.244214
-0.0278026
0.0255007
0.25131
0.024308
0.258651
0.0230793
0.266298
0.0218117
0.274286
0.0205045
0.282652
0.0191572
0.291448
0.0177686
0.300734
0.0163359
0.310589
0.0148547
0.321113
0.0133189
0.332453
0.0117217
0.344813
0.0100573
0.358481
0.00832551
0.373826
0.00653945
0.391266
0.00473863
0.411138
0.00300717
0.433455
0.00149229
0.4573
0.000409667
0.47912
0.49329
0.0264616
0.245343
-0.0275906
0.0253082
0.252463
0.0241249
0.259834
0.0229045
0.267518
0.0216438
0.275546
0.0203422
0.283954
0.0189995
0.29279
0.017615
0.302119
0.0161861
0.312017
0.0147089
0.322591
0.0131777
0.333984
0.011586
0.346405
0.00992865
0.360138
0.00820608
0.375549
0.00643243
0.393039
0.00464835
0.412922
0.00293876
0.435165
0.00145008
0.458788
0.000393571
0.480177
0.493683
0.026241
0.246461
-0.0273592
0.0250989
0.253605
0.0239262
0.261006
0.0227148
0.26873
0.0214613
0.2768
0.0201654
0.28525
0.0188272
0.294129
0.0174465
0.3035
0.0160215
0.313443
0.0145485
0.324064
0.0130223
0.33551
0.011437
0.34799
0.0097879
0.361787
0.00807611
0.37726
0.00631669
0.394799
0.00455138
0.414687
0.00286572
0.436851
0.00140514
0.460249
0.00037644
0.481206
0.49406
0.0260599
0.247576
-0.0271747
0.0249197
0.254746
0.0237477
0.262178
0.0225359
0.269941
0.0212813
0.278055
0.0199844
0.286547
0.0186459
0.295467
0.0172658
0.30488
0.0158426
0.314866
0.014373
0.325533
0.012852
0.337031
0.0112739
0.349569
0.0096343
0.363427
0.007935
0.37896
0.00619182
0.396542
0.00444743
0.416431
0.00278784
0.43851