/*--------------------------------*- C++ -*----------------------------------*\
  =========                 |
  \\      /  F ield         | OpenFOAM: The Open Source CFD Toolbox
   \\    /   O peration     | Website:  https://openfoam.org
    \\  /    A nd           | Version:  6.0
     \\/     M anipulation  |
\*---------------------------------------------------------------------------*/
FoamFile
{
    version     2.0;
    format      ascii;
    class       volVectorField;
    location    "18";
    object      U;
}
// * * * * * * * * * * * * * * * * * * * * * * * * * * * * * * * * * * * * * //

dimensions      [0 1 -1 0 0 0 0];

internalField   nonuniform List<vector> 
2400
(
(3.18734 -14.108 -1.15369e-18)
(0.629017 -14.1272 4.16478e-19)
(0.973569 -14.0622 -3.63545e-19)
(1.32047 -13.6804 -2.05684e-19)
(1.44298 -13.1961 -3.02537e-19)
(1.52045 -12.6971 4.04777e-19)
(1.59293 -12.2323 1.4229e-19)
(1.66015 -11.8239 2.24238e-19)
(1.7361 -11.4753 -2.409e-19)
(1.79969 -11.1857 -1.4149e-20)
(4.33153 -13.9623 1.3151e-18)
(1.77436 -14.2902 -6.81583e-20)
(2.09334 -14.2047 2.35989e-19)
(2.38797 -13.7741 1.96472e-18)
(2.45673 -13.2598 -1.33198e-18)
(2.48448 -12.7434 -6.89876e-20)
(2.51242 -12.2701 -1.41121e-20)
(2.54303 -11.8586 -1.95296e-20)
(2.59078 -11.5093 -2.03433e-19)
(2.61782 -11.2271 -2.80429e-20)
(5.46971 -13.7245 2.32393e-18)
(2.9395 -14.3513 1.7649e-18)
(3.22913 -14.2437 -4.44341e-18)
(3.46341 -13.7688 1.28924e-18)
(3.47255 -13.2303 1.79338e-18)
(3.44662 -12.7021 -9.95773e-19)
(3.42755 -12.2248 -7.42617e-19)
(3.42058 -11.8127 -3.26837e-19)
(3.43835 -11.4633 -6.5925e-19)
(3.42246 -11.1892 1.0745e-18)
(6.591 -13.39 -8.0291e-18)
(4.11438 -14.3039 2.85693e-18)
(4.37031 -14.1751 -2.61006e-18)
(4.53744 -13.6622 1.13541e-18)
(4.48267 -13.1067 -1.15721e-18)
(4.40039 -12.573 1.61346e-18)
(4.33308 -12.097 6.53298e-19)
(4.28909 -11.6882 -2.2732e-18)
(4.27719 -11.3438 -1.6708e-18)
(4.21588 -11.0908 1.82438e-18)
(7.68674 -12.9574 4.58553e-19)
(5.2874 -14.1456 -1.10488e-18)
(5.50589 -13.9974 -4.22649e-19)
(5.60039 -13.4543 -5.27025e-19)
(5.47893 -12.8899 -2.82278e-18)
(5.33893 -12.358 4.28289e-19)
(5.22229 -11.8882 -2.47458e-19)
(5.13943 -11.485 2.34202e-18)
(5.09292 -11.1489 -1.15296e-18)
(4.9792 -10.9243 -8.30817e-19)
(8.74613 -12.4253 3.85331e-18)
(6.44656 -13.8731 3.93702e-19)
(6.62349 -13.7083 7.18518e-18)
(6.64073 -13.1436 -9.08916e-19)
(6.45128 -12.5799 3.435e-18)
(6.25482 -12.0585 -3.8359e-19)
(6.09128 -11.6021 -3.9472e-21)
(5.9701 -11.2096 1.94327e-18)
(5.884 -10.887 -1.04166e-18)
(5.7119 -10.7 2.4894e-18)
(9.76032 -11.7953 -2.74701e-18)
(7.58094 -13.4868 3.37843e-18)
(7.71171 -13.3077 -1.96295e-18)
(7.64633 -12.7292 -1.758e-18)
(7.38616 -12.1749 -4.7482e-20)
(7.13383 -11.6728 5.17382e-18)
(6.92804 -11.2377 -1.81122e-18)
(6.77466 -10.8625 6.87324e-19)
(6.651 -10.5592 -2.56848e-18)
(6.42035 -10.4119 -1.82222e-18)
(10.7213 -11.0707 1.13669e-17)
(8.68186 -12.9877 -2.24986e-18)
(8.76194 -12.7963 1.61194e-18)
(8.60818 -12.2106 5.0496e-19)
(8.27154 -11.6715 1.71898e-18)
(7.95781 -11.1938 -2.43394e-18)
(7.70805 -10.7852 -2.85805e-18)
(7.52881 -10.435 4.21973e-18)
(7.38348 -10.1657 -3.83202e-19)
(7.11763 -10.0827 -2.91907e-18)
(11.6228 -10.2568 -9.22603e-18)
(9.74266 -12.38 4.35076e-18)
(9.7693 -12.1779 -2.54664e-18)
(9.52421 -11.5899 1.43795e-18)
(9.10639 -11.0685 -4.8945e-18)
(8.72067 -10.614 2.9604e-18)
(8.40837 -10.2295 1.63781e-18)
(8.18138 -9.90864 3.21743e-18)
(8.00548 -9.69986 -1.96257e-18)
(7.72608 -9.74024 -2.43052e-18)
(12.4574 -9.35841 2.95799e-18)
(10.7563 -11.6688 -1.12287e-18)
(10.7297 -11.4582 5.48736e-18)
(10.3955 -10.8722 5.8531e-18)
(9.90076 -10.3685 1.01366e-18)
(9.44352 -9.9322 -7.4585e-19)
(9.05283 -9.56531 -1.33228e-18)
(8.72549 -9.27779 1.96386e-18)
(8.42411 -9.1544 -1.63271e-18)
(8.04681 -9.33548 1.29809e-18)
(16.2341 2.48001 1.59382e-19)
(16.2768 1.17706 4.95339e-19)
(16.2152 -0.119822 -1.58016e-18)
(16.0547 -1.40224 1.15695e-18)
(15.7988 -2.66237 5.60277e-19)
(15.4519 -3.89321 7.51314e-18)
(15.0162 -5.08747 -2.94154e-18)
(14.4971 -6.23854 -4.34662e-18)
(13.8949 -7.33909 1.09733e-17)
(13.2167 -8.38206 -8.66728e-18)
(16.7905 -0.640806 4.26804e-19)
(16.6121 -1.94049 -1.91316e-19)
(16.3236 -3.21926 -5.25641e-18)
(15.9309 -4.46788 3.35525e-18)
(15.439 -5.67702 -1.18903e-18)
(14.8548 -6.83947 9.29912e-18)
(14.1833 -7.94619 -6.0531e-18)
(13.4324 -8.9913 9.04062e-18)
(12.6067 -9.96463 -8.80375e-18)
(11.7138 -10.8618 -3.56399e-18)
(16.2364 -0.630756 -7.84528e-19)
(16.1108 -1.87386 7.49771e-20)
(15.8783 -3.10542 -1.81576e-18)
(15.5422 -4.31644 2.63277e-18)
(15.1064 -5.49721 -2.94377e-18)
(14.5765 -6.63954 -5.79348e-18)
(13.9576 -7.73399 -2.05969e-18)
(13.2571 -8.7727 -9.75779e-18)
(12.4806 -9.74575 5.93024e-18)
(11.6366 -10.6448 3.46776e-18)
(15.2921 -0.466089 3.2173e-19)
(15.2029 -1.63105 -5.6159e-19)
(15.0146 -2.79111 -1.02307e-18)
(14.7286 -3.939 -3.20945e-18)
(14.3486 -5.06468 2.06756e-18)
(13.8785 -6.1608 5.93641e-18)
(13.3236 -7.2176 -2.03098e-18)
(12.6906 -8.2272 5.15722e-19)
(11.9861 -9.17978 1.44583e-18)
(11.2189 -10.0654 1.96018e-18)
(14.4691 -0.435031 -3.45267e-19)
(14.3819 -1.53177 -1.35651e-18)
(14.2041 -2.62472 -1.53311e-18)
(13.9337 -3.71063 2.51335e-18)
(13.5773 -4.77723 2.73532e-18)
(13.1354 -5.82122 -1.8965e-18)
(12.6164 -6.8308 -2.85629e-19)
(12.0241 -7.80094 -1.86275e-18)
(11.3681 -8.72069 2.06473e-18)
(10.658 -9.58086 -5.56374e-18)
(13.8191 -0.405169 7.72434e-20)
(13.7238 -1.44717 1.09695e-18)
(13.5469 -2.48269 -1.66729e-18)
(13.2782 -3.5169 3.18874e-18)
(12.9339 -4.52972 1.94571e-18)
(12.5036 -5.52898 1.09789e-18)
(12.0069 -6.49457 -8.0404e-19)
(11.4371 -7.43212 -2.39613e-18)
(10.8153 -8.32189 5.66774e-18)
(10.1471 -9.15981 -5.61213e-19)
(13.2943 -0.367228 1.6203e-19)
(13.1877 -1.36518 -1.2044e-18)
(13.0132 -2.35002 -1.18546e-18)
(12.7393 -3.34288 -1.68383e-18)
(12.4073 -4.30499 -2.42525e-19)
(11.9764 -5.26875 -2.46731e-18)
(11.4996 -6.19176 -1.64635e-18)
(10.9339 -7.11102 -2.83154e-19)
(10.3419 -7.9784 7.4844e-19)
(9.702 -8.80437 4.77171e-18)
(12.8504 -0.323962 -1.34304e-19)
(12.729 -1.28866 9.79495e-19)
(12.564 -2.2289 -1.4073e-18)
(12.2769 -3.19176 9.52556e-19)
(11.9665 -4.10369 2.3183e-18)
(11.5197 -5.04144 3.94422e-18)
(11.0719 -5.91465 -1.05434e-18)
(10.4804 -6.83346 -3.93307e-18)
(9.9275 -7.68605 -1.06289e-18)
(9.28515 -8.53775 -7.32011e-18)
(12.4634 -0.26172 1.88445e-19)
(12.3201 -1.20497 -2.22058e-19)
(12.1755 -2.11018 -1.61084e-18)
(11.8627 -3.05973 6.52016e-19)
(11.5906 -3.92796 -1.56973e-18)
(11.1028 -4.85835 -1.00254e-18)
(10.7057 -5.67206 -4.50857e-19)
(10.0294 -6.61786 -6.09505e-18)
(9.54456 -7.44468 1.72434e-18)
(8.79635 -8.45219 1.43163e-18)
(12.1249 -0.222547 -4.03139e-19)
(11.9444 -1.14772 1.98001e-19)
(11.8275 -2.02351 3.43654e-19)
(11.4702 -2.97553 9.54005e-19)
(11.2478 -3.81729 -8.01126e-19)
(10.686 -4.76971 -7.26283e-20)
(10.3506 -5.53989 -2.34138e-18)
(9.51452 -6.54605 2.96577e-18)
(9.11505 -7.30437 -2.09581e-18)
(8.10604 -8.60528 6.48669e-19)
(9.99262 13.5459 -4.94283e-18)
(11.0399 12.7462 5.11847e-18)
(12.0096 11.8555 5.51618e-18)
(12.8944 10.8816 -8.4975e-18)
(13.6861 9.83182 6.09799e-18)
(14.3787 8.71469 -4.19106e-18)
(14.9665 7.53977 -9.39769e-19)
(15.4474 6.31831 -8.72284e-19)
(15.8186 5.06052 1.40344e-18)
(16.082 3.77843 9.89516e-20)
(12.3389 10.9879 5.71907e-18)
(13.2423 10.0924 1.12643e-18)
(14.0614 9.11522 -7.58307e-18)
(14.7876 8.06292 -5.61743e-18)
(15.4124 6.94257 4.51955e-18)
(15.9303 5.76246 -3.58673e-18)
(16.3353 4.53347 3.95166e-18)
(16.6258 3.26661 -1.10661e-18)
(16.7981 1.97464 -3.28408e-18)
(16.8541 0.667771 -2.30711e-19)
(11.7068 10.1364 -8.47695e-19)
(12.5743 9.3324 -6.83742e-19)
(13.3671 8.45053 -7.94244e-18)
(14.0766 7.49439 5.92348e-18)
(14.6949 6.46896 6.00386e-18)
(15.2163 5.3813 1.88644e-18)
(15.6359 4.24152 -1.37208e-18)
(15.9504 3.05975 -2.77508e-18)
(16.1562 1.84693 2.19118e-18)
(16.2522 0.613065 1.52885e-19)
(10.9228 9.41766 1.52786e-18)
(11.7372 8.69262 -3.28311e-18)
(12.4821 7.89662 -1.24754e-18)
(13.1499 7.02944 -3.07496e-18)
(13.7351 6.09441 -9.28192e-18)
(14.2328 5.09814 5.16558e-18)
(14.6396 4.05093 3.17479e-18)
(14.9515 2.96141 -2.67366e-18)
(15.1659 1.83963 1.15465e-19)
(15.2797 0.69356 -1.10872e-19)
(10.4523 8.82178 -5.16198e-18)
(11.2136 8.1445 5.69935e-18)
(11.9042 7.40399 -1.44213e-18)
(12.5182 6.59434 2.8271e-18)
(13.0544 5.71853 1.22333e-18)
(13.5092 4.78414 -2.96032e-18)
(13.8811 3.80294 1.43764e-18)
(14.1652 2.78134 -1.5237e-18)
(14.3599 1.7298 -1.41912e-18)
(14.4609 0.653698 5.97102e-19)
(10.1276 8.3757 -7.08779e-19)
(10.8505 7.73534 1.09642e-18)
(11.4983 7.03734 -1.27285e-18)
(12.0653 6.26804 -5.57697e-18)
(12.5574 5.43412 8.32381e-19)
(12.9719 4.54518 -7.53454e-20)
(13.311 3.61435 -2.55966e-18)
(13.5657 2.64417 -8.73959e-19)
(13.7387 1.64752 7.64578e-19)
(13.821 0.625799 -2.13218e-19)
(9.86196 8.02407 -2.84893e-18)
(10.5536 7.42349 -3.3381e-20)
(11.1708 6.76045 1.27552e-18)
(11.7009 6.01769 3.16462e-18)
(12.1591 5.21496 6.37669e-19)
(12.5401 4.36217 1.52273e-18)
(12.8535 3.47249 2.85506e-18)
(13.0824 2.54294 -1.21623e-18)
(13.2388 1.59185 1.01105e-18)
(13.303 0.61405 -3.72695e-19)
(9.63934 7.73009 4.76074e-18)
(10.2784 7.19292 2.50285e-18)
(10.8658 6.55842 1.08025e-18)
(11.3682 5.82962 -1.47232e-18)
(11.8048 5.05229 -7.83148e-19)
(12.1599 4.22885 -1.71003e-18)
(12.4567 3.37162 1.49293e-19)
(12.6636 2.47202 -3.80299e-19)
(12.8118 1.55807 -2.12827e-18)
(12.859 0.614528 2.83222e-19)
(9.56292 7.41034 -3.31476e-19)
(10.0777 6.99278 -2.97561e-18)
(10.5974 6.38547 -1.29383e-18)
(11.0647 5.672 3.16283e-19)
(11.4845 4.92973 -1.9396e-19)
(11.8133 4.13824 1.18026e-18)
(12.0986 3.31179 5.84969e-19)
(12.2843 2.43704 8.54259e-19)
(12.4334 1.5561 9.92591e-19)
(12.4626 0.639828 -4.01751e-19)
(9.76415 6.93186 2.74113e-18)
(10.119 6.66677 2.08688e-18)
(10.4851 6.07873 -3.09374e-18)
(10.8806 5.40013 -6.05048e-20)
(11.2691 4.71463 2.55009e-18)
(11.5519 3.96986 1.0471e-19)
(11.8125 3.19019 3.26904e-19)
(11.9626 2.35302 -2.16578e-18)
(12.1115 1.51818 -1.66444e-20)
(12.1117 0.63565 1.86172e-19)
(1.37477 10.1735 9.1402e-20)
(1.34465 10.4197 -3.95007e-20)
(1.34457 10.6704 -2.17124e-20)
(1.32097 10.9441 2.72186e-19)
(1.27169 11.2646 -1.24264e-19)
(1.20054 11.6792 -4.32513e-19)
(1.1227 12.2977 4.77437e-19)
(1.19436 13.3103 3.29329e-19)
(1.07813 14.684 2.17319e-19)
(-2.36983 15.9055 3.73399e-19)
(2.20535 10.0639 2.35707e-19)
(2.18944 10.3544 -7.326e-19)
(2.20109 10.6397 7.30892e-19)
(2.19379 10.9422 1.47548e-19)
(2.1679 11.2887 -2.91303e-19)
(2.12951 11.7296 3.38596e-19)
(2.10134 12.3749 1.1421e-18)
(2.25149 13.3952 2.42529e-19)
(2.23509 14.7524 2.92176e-20)
(-1.12764 16.1308 -1.63762e-18)
(2.99753 10.0064 9.48036e-19)
(3.01161 10.2955 -1.32323e-18)
(3.04719 10.5808 -5.24682e-19)
(3.06785 10.8898 -4.32295e-20)
(3.07428 11.2494 -4.90227e-19)
(3.07473 11.7089 -2.1174e-19)
(3.10024 12.3745 3.62426e-19)
(3.32935 13.3941 2.08587e-18)
(3.40895 14.7252 7.50769e-19)
(0.137085 16.2548 -2.60911e-18)
(3.87056 9.75409 8.89166e-19)
(3.88603 10.0915 -1.06854e-18)
(3.92767 10.413 -1.04553e-18)
(3.96527 10.7495 6.38962e-19)
(3.99783 11.1311 3.16994e-18)
(4.03493 11.6104 -1.21743e-18)
(4.11423 12.2928 9.50402e-19)
(4.42095 13.3045 -2.00592e-18)
(4.59171 14.6011 1.91116e-18)
(1.4159 16.2774 3.97692e-18)
(4.66 9.59862 6.5326e-19)
(4.70652 9.91752 -4.64232e-19)
(4.77697 10.2272 1.35162e-18)
(4.84934 10.5611 -1.18698e-18)
(4.91898 10.9483 8.54494e-19)
(4.99858 11.4379 7.48758e-19)
(5.13464 12.1293 -9.78766e-19)
(5.51804 13.1249 5.29428e-19)
(5.77432 14.3789 2.8968e-18)
(2.70001 16.1973 1.80454e-18)
(5.54727 9.18971 -1.94945e-18)
(5.58079 9.57371 -5.69739e-19)
(5.65359 9.92532 2.36108e-18)
(5.74448 10.2841 -2.58491e-18)
(5.84274 10.6868 -1.20077e-18)
(5.96191 11.1869 -2.84863e-18)
(6.15448 11.8823 -1.77054e-18)
(6.61254 12.8539 -2.88636e-18)
(6.94871 14.0581 -8.47392e-19)
(3.98076 16.0141 -5.48853e-18)
(6.31498 8.91132 2.76695e-18)
(6.38276 9.27493 -4.9101e-18)
(6.48883 9.60992 2.71094e-18)
(6.61655 9.95899 1.41299e-18)
(6.75199 10.3596 -2.99191e-19)
(6.91442 10.8607 2.25679e-18)
(7.1648 11.5521 -2.52043e-18)
(7.69519 12.4913 -2.46336e-18)
(8.10428 13.6384 -7.38586e-19)
(5.24847 15.7264 5.07145e-18)
(7.22672 8.32356 -2.0367e-20)
(7.25372 8.79218 2.30242e-18)
(7.34355 9.18291 -1.10015e-18)
(7.48219 9.55257 1.0738e-18)
(7.64546 9.95861 -1.60671e-18)
(7.84917 10.4582 -1.80177e-18)
(8.15691 11.1389 1.13788e-18)
(8.75672 12.0371 -2.6433e-18)
(9.23271 13.1204 7.58679e-18)
(6.49392 15.3358 -2.49424e-18)
(8.01683 7.91805 -1.25993e-18)
(8.05726 8.37914 -6.90768e-19)
(8.15348 8.74857 3.10267e-18)
(8.3147 9.09847 -4.38577e-18)
(8.51131 9.4928 9.30432e-19)
(8.75738 9.9821 -2.1498e-18)
(9.12137 10.6439 -7.55461e-19)
(9.78653 11.4922 6.72264e-19)
(10.3212 12.5051 -1.2737e-17)
(7.70669 14.8407 9.35208e-18)
(8.98262 7.27242 3.24727e-18)
(8.89871 7.83061 -3.79335e-18)
(8.93069 8.24333 3.65704e-19)
(9.10734 8.58669 -1.18258e-18)
(9.34042 8.96487 -2.024e-18)
(9.62869 9.43598 1.58423e-18)
(10.0473 10.0693 1.92729e-18)
(10.774 10.8579 4.93243e-18)
(11.3622 11.7937 5.97962e-18)
(8.87694 14.2456 3.87893e-21)
(-4.83207 7.79349 -1.80399e-18)
(-5.07938 7.56294 1.44395e-18)
(-5.27598 7.49117 3.30806e-19)
(-5.46554 7.53228 1.43938e-18)
(-5.68999 7.61246 1.17986e-18)
(-5.97043 7.72867 2.99487e-19)
(-6.36355 7.96312 2.74072e-18)
(-6.90725 8.59748 1.44385e-18)
(-7.94901 9.59992 2.22586e-18)
(-11.7942 8.92008 -1.40725e-18)
(-4.58247 8.20999 1.0331e-18)
(-4.78177 8.0691 1.18766e-18)
(-4.89795 8.06893 -1.05365e-18)
(-5.02619 8.13839 2.9026e-19)
(-5.21349 8.23096 5.24656e-19)
(-5.47235 8.36331 2.91967e-18)
(-5.84677 8.62736 -3.35489e-18)
(-6.34956 9.3069 -3.31822e-18)
(-7.32168 10.3799 -2.51031e-18)
(-11.1833 9.91584 3.57447e-18)
(-4.07865 8.55854 -3.48333e-19)
(-4.29374 8.5186 2.46777e-19)
(-4.40835 8.57486 -2.64229e-18)
(-4.52406 8.67341 1.76256e-18)
(-4.69305 8.78901 9.46634e-19)
(-4.93227 8.94906 -1.04026e-18)
(-5.28294 9.25127 -3.12584e-19)
(-5.737 9.97904 5.69963e-18)
(-6.62969 11.1179 6.92192e-19)
(-10.489 10.8647 -2.90398e-18)
(-3.489 8.8973 -2.59974e-18)
(-3.70138 8.91758 1.65285e-18)
(-3.81976 9.01151 -4.60961e-19)
(-3.93909 9.13944 1.172e-18)
(-4.10494 9.28603 -6.67968e-19)
(-4.33338 9.48217 -1.26767e-18)
(-4.66225 9.82889 1.09706e-18)
(-5.06442 10.6067 1.29236e-18)
(-5.87159 11.8064 -3.71466e-19)
(-9.71368 11.7592 3.51073e-18)
(-2.89384 9.23849 2.15922e-18)
(-3.08288 9.29608 7.98759e-20)
(-3.18704 9.41335 -1.29078e-18)
(-3.29975 9.56192 1.89062e-20)
(-3.45886 9.73516 2.27275e-19)
(-3.67612 9.96616 2.92385e-19)
(-3.9823 10.3579 2.07346e-18)
(-4.32966 11.1845 -4.58677e-18)
(-5.04688 12.438 2.93022e-19)
(-8.85925 12.5911 -4.50226e-18)
(-2.25831 9.51167 -6.89346e-20)
(-2.42429 9.61233 1.6995e-18)
(-2.51304 9.75891 -1.60813e-18)
(-2.6157 9.93188 1.6088e-19)
(-2.76376 10.133 -3.19342e-19)
(-2.96599 10.3988 1.89915e-18)
(-3.24565 10.8348 1.32724e-18)
(-3.53395 11.7068 2.30639e-19)
(-4.15708 13.0058 7.2495e-19)
(-7.92951 13.3528 9.30004e-19)
(-1.59718 9.76454 -1.1352e-18)
(-1.73708 9.90049 1.34627e-18)
(-1.80859 10.0681 6.87677e-20)
(-1.89781 10.259 2.01161e-18)
(-2.02986 10.4831 -1.15496e-18)
(-2.2114 10.78 8.26248e-19)
(-2.45847 11.2571 -3.5978e-19)
(-2.68208 12.1692 8.81424e-19)
(-3.20708 13.5036 -1.98119e-18)
(-6.92967 14.0375 1.86776e-18)
(-0.878567 9.92588 -7.17597e-19)
(-0.997273 10.1033 9.0793e-19)
(-1.05708 10.3014 -4.37641e-19)
(-1.13613 10.5191 -3.38161e-19)
(-1.25304 10.7717 7.44358e-19)
(-1.41243 11.1016 -1.32989e-18)
(-1.62334 11.619 -9.3847e-19)
(-1.77805 12.5659 2.26816e-18)
(-2.20185 13.9256 -1.29789e-18)
(-5.86676 14.64 -1.71767e-18)
(-0.15756 10.0847 -7.33844e-19)
(-0.245254 10.2828 1.58915e-19)
(-0.285163 10.495 1.05185e-19)
(-0.347127 10.7287 6.29843e-21)
(-0.443341 11.0032 -4.96786e-19)
(-0.57575 11.3623 1.60694e-18)
(-0.745553 11.9164 -1.51179e-18)
(-0.82729 12.892 -1.7578e-18)
(-1.1486 14.2665 4.81664e-20)
(-4.74724 15.155 -1.25971e-18)
(0.617237 10.1226 2.2452e-19)
(0.552354 10.358 3.68103e-20)
(0.527289 10.6007 -8.51836e-20)
(0.479877 10.8623 -1.16443e-19)
(0.40335 11.1647 -3.21192e-19)
(0.298591 11.5546 2.45597e-19)
(0.172297 12.1435 1.57207e-19)
(0.165856 13.1414 1.14849e-19)
(-0.0521637 14.521 -3.46934e-19)
(-3.57976 15.5789 9.47728e-19)
(-4.82747 7.07255 -1.93464e-18)
(-5.72025 5.9865 8.68081e-19)
(-5.97698 5.29263 -4.66382e-19)
(-6.66693 4.45522 -1.1191e-18)
(-6.93606 3.75869 -6.99437e-19)
(-7.39708 2.97402 -4.49304e-20)
(-7.61827 2.23261 -1.21976e-20)
(-7.92076 1.44628 -1.238e-19)
(-8.07999 0.679348 -1.45052e-19)
(-8.25425 -0.10052 6.59596e-20)
(-5.31971 6.90608 -3.21249e-18)
(-5.96169 6.01659 -9.78463e-19)
(-6.27826 5.30312 -9.87586e-19)
(-6.84312 4.49225 2.49978e-19)
(-7.13968 3.78984 5.47392e-19)
(-7.55077 3.0171 1.02453e-18)
(-7.79082 2.27972 -3.52042e-19)
(-8.0712 1.50298 1.16451e-18)
(-8.24016 0.739337 1.21398e-19)
(-8.40234 -0.0383478 -1.04253e-19)
(-5.6618 6.81757 3.72152e-18)
(-6.16552 6.06853 -6.82764e-19)
(-6.53793 5.35836 2.20668e-18)
(-7.01231 4.58143 5.753e-19)
(-7.3393 3.86529 -2.15012e-18)
(-7.7113 3.09864 -1.25787e-18)
(-7.9718 2.35603 -5.15234e-19)
(-8.2367 1.58142 2.3379e-19)
(-8.41824 0.814128 -5.34903e-19)
(-8.57538 0.0326617 7.43888e-20)
(-5.91151 6.85563 -3.38153e-18)
(-6.3709 6.14936 1.89844e-18)
(-6.77294 5.43857 1.59674e-19)
(-7.19759 4.68684 9.02693e-19)
(-7.54123 3.95751 1.34168e-18)
(-7.8863 3.19468 1.19884e-19)
(-8.15876 2.44328 9.01653e-19)
(-8.41257 1.66786 4.15136e-19)
(-8.60314 0.894299 6.56198e-19)
(-8.75843 0.107366 -8.92001e-20)
(-6.15465 6.93954 2.09737e-18)
(-6.59941 6.24061 -3.29961e-18)
(-7.00876 5.52574 -3.05222e-19)
(-7.4049 4.78723 4.3456e-19)
(-7.75028 4.05007 2.01813e-18)
(-8.07553 3.29146 -1.04001e-18)
(-8.34945 2.53396 -1.70516e-18)
(-8.59363 1.7589 1.37955e-18)
(-8.78724 0.980773 -1.57346e-19)
(-8.94104 0.190226 -4.05847e-20)
(-6.43988 7.05193 -4.7144e-18)
(-6.87717 6.34864 2.7133e-18)
(-7.28175 5.62664 1.0167e-18)
(-7.65792 4.889 1.58346e-19)
(-7.99468 4.14464 -6.86022e-19)
(-8.30178 3.38642 -1.41885e-18)
(-8.56755 2.62362 -1.31184e-18)
(-8.79931 1.84797 -7.94873e-20)
(-8.98771 1.06612 2.65983e-19)
(-9.13565 0.273051 1.87272e-19)
(-6.83932 7.2654 -1.04526e-18)
(-7.27468 6.54346 -7.68217e-19)
(-7.67206 5.80407 -2.65049e-19)
(-8.03297 5.05261 1.05855e-18)
(-8.35579 4.29312 4.50092e-19)
(-8.64379 3.52467 -1.03369e-18)
(-8.89349 2.75038 1.64297e-18)
(-9.10709 1.96711 4.08617e-19)
(-9.28059 1.17698 2.93146e-19)
(-9.41404 0.377479 -1.68901e-19)
(-7.41304 7.85799 -3.09129e-18)
(-7.86883 7.09658 -3.07061e-18)
(-8.27724 6.31928 5.0627e-18)
(-8.6413 5.53156 -1.87561e-18)
(-8.96237 4.73633 4.28439e-18)
(-9.24282 3.9349 1.36944e-19)
(-9.48242 3.12839 -1.328e-18)
(-9.68227 2.31589 1.74065e-18)
(-9.8409 1.49759 -4.52008e-20)
(-9.95771 0.672262 3.9884e-19)
(-8.51114 8.78644 3.88842e-19)
(-9.01134 7.94782 4.63523e-18)
(-9.45105 7.09221 2.75952e-18)
(-9.83524 6.2245 3.04174e-18)
(-10.1658 5.3485 -4.63113e-18)
(-10.445 4.46667 5.78413e-19)
(-10.674 3.5807 -1.64408e-18)
(-10.8539 2.69133 6.19837e-19)
(-10.9845 1.7991 8.34828e-20)
(-11.065 0.9044 -2.14546e-19)
(-12.3182 7.88513 1.20809e-18)
(-12.7555 6.82484 -3.42896e-18)
(-13.1134 5.74499 -1.63978e-18)
(-13.3915 4.65396 -1.36285e-18)
(-13.5931 3.55646 5.85493e-19)
(-13.7191 2.45812 2.87471e-18)
(-13.7715 1.36306 3.43967e-19)
(-13.7515 0.275517 8.0497e-19)
(-13.6602 -0.800931 -3.87454e-19)
(-13.4971 -1.86252 -9.42385e-20)
(-8.32324 -0.862635 5.59863e-20)
(-8.36595 -1.62702 -1.1918e-19)
(-8.3264 -2.38167 1.1876e-18)
(-8.24821 -3.13112 -7.81837e-19)
(-8.10623 -3.86174 5.12311e-19)
(-7.91901 -4.56474 -6.6313e-19)
(-7.65863 -5.23376 3.19872e-18)
(-7.32915 -5.89039 4.10346e-19)
(-6.98035 -6.50774 -9.38885e-19)
(-6.67903 -6.90277 1.93198e-18)
(-8.4773 -0.806488 2.25923e-19)
(-8.51677 -1.57801 -3.98335e-19)
(-8.48251 -2.3432 -8.18287e-19)
(-8.40138 -3.1041 -3.49767e-19)
(-8.25478 -3.85062 -9.29441e-19)
(-8.05528 -4.57616 1.25199e-19)
(-7.7888 -5.27729 -1.9418e-19)
(-7.45056 -5.96183 1.61791e-18)
(-7.03332 -6.60327 2.05979e-18)
(-6.57387 -7.12918 -2.50371e-19)
(-8.66043 -0.745043 -1.59326e-19)
(-8.70247 -1.52709 1.21893e-18)
(-8.67821 -2.30503 8.04733e-19)
(-8.60208 -3.07876 -8.03307e-20)
(-8.46188 -3.84049 1.06022e-18)
(-8.26494 -4.58596 4.78484e-19)
(-8.00425 -5.31184 9.40161e-19)
(-7.67529 -6.01352 -1.18645e-18)
(-7.26036 -6.67126 -1.74276e-18)
(-6.76144 -7.2762 -4.06856e-18)
(-8.85284 -0.680363 2.08672e-19)
(-8.89942 -1.47388 -5.75499e-19)
(-8.88498 -2.26624 9.60305e-19)
(-8.81527 -3.05615 -1.68659e-18)
(-8.68273 -3.83753 -9.16087e-19)
(-8.49027 -4.60693 -3.94037e-19)
(-8.23336 -5.35923 -2.04875e-18)
(-7.90826 -6.0851 7.78047e-19)
(-7.50259 -6.77363 -3.50859e-19)
(-7.0105 -7.4337 1.34976e-18)
(-9.04179 -0.604941 1.16924e-19)
(-9.09306 -1.40749 2.00397e-20)
(-9.08732 -2.21219 -1.13457e-20)
(-9.02507 -3.01738 1.53649e-18)
(-8.90124 -3.8183 -2.74106e-19)
(-8.71536 -4.61142 -1.87973e-18)
(-8.46314 -5.39059 3.60565e-18)
(-8.14081 -6.14717 -1.07233e-18)
(-7.74166 -6.87605 -3.43034e-18)
(-7.26222 -7.58469 -3.39751e-18)
(-9.2359 -0.527202 -3.28511e-19)
(-9.28743 -1.33589 3.14445e-19)
(-9.28544 -2.14953 1.8366e-18)
(-9.2278 -2.96644 -8.465e-19)
(-9.11046 -3.78292 1.76254e-18)
(-8.93079 -4.59534 1.20589e-18)
(-8.68433 -5.39785 -1.80198e-18)
(-8.36705 -6.18413 9.943e-19)
(-7.97514 -6.95149 6.88892e-19)
(-7.50737 -7.70256 2.1996e-18)
(-9.50307 -0.429883 5.84055e-20)
(-9.5451 -1.24535 -6.34934e-20)
(-9.53657 -2.06697 1.6391e-18)
(-9.47452 -2.89326 -1.79005e-18)
(-9.35529 -3.72143 -3.09874e-18)
(-9.17538 -4.54809 1.57201e-18)
(-8.93042 -5.36852 3.32563e-18)
(-8.61658 -6.17845 8.33726e-19)
(-8.23099 -6.97581 2.29256e-18)
(-7.77288 -7.76008 1.91522e-18)
(-10.0298 -0.159448 -7.61594e-20)
(-10.0548 -0.996726 -1.15682e-18)
(-10.0299 -1.83854 6.34291e-19)
(-9.95275 -2.68363 8.11776e-19)
(-9.82017 -3.52986 -2.60463e-18)
(-9.62902 -4.37434 -1.99443e-18)
(-9.37575 -5.21366 -1.68631e-18)
(-9.05732 -6.04502 -1.75564e-18)
(-8.67138 -6.8668 5.07081e-19)
(-8.21676 -7.6773 -9.3516e-19)
(-11.093 0.00938158 1.1845e-19)
(-11.0678 -0.884525 1.71381e-18)
(-10.988 -1.77496 2.32265e-18)
(-10.8527 -2.66074 -2.13126e-18)
(-10.66 -3.53948 2.01698e-18)
(-10.4084 -4.40846 -2.62872e-18)
(-10.0962 -5.26513 3.33189e-18)
(-9.72253 -6.1077 3.49246e-18)
(-9.28634 -6.93514 -7.48942e-19)
(-8.78688 -7.74537 -5.71691e-18)
(-13.2607 -2.90445 -3.82096e-20)
(-12.9535 -3.91981 -5.99591e-19)
(-12.5776 -4.90814 8.35659e-19)
(-12.134 -5.86343 6.49642e-19)
(-11.6237 -6.78254 -1.08338e-18)
(-11.0484 -7.66061 1.03235e-18)
(-10.4102 -8.49429 -1.30965e-18)
(-9.71223 -9.28054 1.02968e-18)
(-8.95769 -10.0173 -6.23924e-18)
(-8.1488 -10.7013 2.837e-18)
(-7.28778 -11.3272 4.23057e-18)
(-8.22431 -8.53367 -2.48413e-18)
(-7.69312 -8.4727 -2.1794e-18)
(-7.24266 -8.5283 -1.51628e-18)
(-6.96521 -8.4374 -1.40158e-19)
(-6.70539 -8.28089 2.44435e-18)
(-6.4391 -8.08859 1.63704e-19)
(-6.18987 -7.87546 -1.741e-18)
(-6.04189 -7.61946 2.82957e-18)
(-6.17028 -7.21219 -4.73139e-19)
(-6.38394 -11.8918 -4.61412e-18)
(-7.5993 -9.29608 9.63159e-18)
(-7.10084 -9.2459 1.28545e-18)
(-6.6419 -9.27324 -2.41577e-18)
(-6.35362 -9.14826 1.67145e-18)
(-6.08349 -8.95473 -3.39193e-18)
(-5.80939 -8.72817 3.50099e-18)
(-5.55113 -8.48998 -2.46944e-18)
(-5.34692 -8.24553 5.75745e-19)
(-5.31553 -7.92406 1.41951e-18)
(-5.43873 -12.4009 2.75622e-18)
(-6.91416 -10.0302 -5.97534e-18)
(-6.44148 -9.99296 -5.82946e-18)
(-5.97406 -9.98945 -9.20399e-19)
(-5.67845 -9.82872 1.47961e-18)
(-5.40437 -9.59769 -9.88057e-19)
(-5.13014 -9.33576 -8.53124e-19)
(-4.87387 -9.06361 9.27918e-19)
(-4.66853 -8.78322 -1.92083e-18)
(-4.61968 -8.44631 2.17585e-18)
(-4.45698 -12.8499 -6.04537e-18)
(-6.16836 -10.7315 -6.5311e-19)
(-5.71611 -10.7062 1.97571e-18)
(-5.24203 -10.6679 2.2381e-18)
(-4.94386 -10.4694 -3.3659e-18)
(-4.67108 -10.2017 2.3738e-19)
(-4.39937 -9.9101 -1.26135e-18)
(-4.14342 -9.6211 -2.32611e-18)
(-3.9249 -9.34917 4.27428e-18)
(-3.82621 -9.06985 1.00707e-18)
(-3.44061 -13.239 4.3641e-18)
(-5.36245 -11.3947 1.17749e-19)
(-4.92643 -11.3786 2.5913e-18)
(-4.44927 -11.3009 -1.51871e-19)
(-4.15464 -11.0619 2.61696e-18)
(-3.891 -10.7556 1.14422e-18)
(-3.63294 -10.4306 2.35227e-18)
(-3.39594 -10.1137 -2.16722e-18)
(-3.19872 -9.81734 -1.32433e-19)
(-3.09446 -9.52781 -1.74852e-18)
(-2.39308 -13.5643 5.53191e-18)
(-4.49703 -12.0125 -2.67556e-18)
(-4.07441 -12.0012 -4.36013e-19)
(-3.59918 -11.8794 -7.19441e-19)
(-3.31434 -11.5983 -7.0746e-19)
(-3.06554 -11.2544 -7.86179e-19)
(-2.82457 -10.8999 1.16427e-18)
(-2.60492 -10.5638 -1.30708e-18)
(-2.41746 -10.2615 1.14245e-18)
(-2.29502 -9.98742 6.58718e-20)
(-1.31719 -13.8236 -5.38947e-18)
(-3.57367 -12.5773 -1.93787e-18)
(-3.16323 -12.5656 3.15153e-18)
(-2.69648 -12.3954 -9.81448e-19)
(-2.4289 -12.0708 1.22896e-18)
(-2.20255 -11.6894 -3.22225e-18)
(-1.98696 -11.3048 2.27799e-18)
(-1.79427 -10.9452 -7.28591e-19)
(-1.62943 -10.6227 5.58269e-19)
(-1.50612 -10.3333 -1.09712e-18)
(-0.216627 -14.0128 2.49202e-18)
(-2.59477 -13.0803 -7.96845e-19)
(-2.19686 -13.0624 -1.05142e-18)
(-1.74632 -12.8406 -3.91945e-19)
(-1.50333 -12.4728 2.39446e-19)
(-1.30501 -12.0568 5.12863e-19)
(-1.11766 -11.6469 -9.71471e-19)
(-0.950218 -11.2713 5.70289e-19)
(-0.800565 -10.9416 9.31415e-19)
(-0.674722 -10.655 -1.10509e-18)
(0.904731 -14.1277 1.93306e-18)
(-1.56396 -13.5129 -2.63332e-20)
(-1.18062 -13.4831 1.63752e-18)
(-0.755275 -13.2076 -1.27694e-18)
(-0.54497 -12.7978 3.49633e-19)
(-0.381566 -12.3498 -3.62331e-19)
(-0.22876 -11.917 -1.60061e-19)
(-0.0927035 -11.526 -1.17421e-19)
(0.0340863 -11.1853 8.2969e-19)
(0.148229 -10.8908 6.05003e-19)
(2.04177 -14.1619 -3.65971e-19)
(-0.48667 -13.865 -2.45102e-19)
(-0.121062 -13.819 -1.74737e-19)
(0.269706 -13.4896 -5.58022e-19)
(0.439801 -13.0406 5.10199e-19)
(0.563009 -12.5649 1.40107e-19)
(0.677998 -12.1142 -3.19847e-19)
(0.781932 -11.7137 -8.94847e-20)
(0.886745 -11.3701 -1.38307e-19)
(0.982627 -11.081 1.9822e-21)
(1.52896 -10.3502 -1.24775e-20)
(0.887234 -8.21482 -3.57432e-21)
(0.566373 -6.35583 8.59137e-21)
(0.641821 -5.08862 -3.43429e-21)
(0.620467 -3.87705 -1.34261e-22)
(0.569346 -2.76885 2.8193e-22)
(0.526156 -1.90782 -6.62885e-23)
(0.476969 -1.27201 -8.244e-23)
(0.441851 -0.833434 5.18566e-23)
(0.417584 -0.542756 3.10854e-23)
(0.406837 -0.354502 -8.91625e-23)
(0.406568 -0.231822 4.17966e-23)
(0.409494 -0.147225 -3.47135e-23)
(0.41323 -0.086391 -9.15791e-23)
(0.40651 -0.0407352 1.64541e-23)
(0.397296 0.00346802 -4.07754e-23)
(0.386959 0.0269102 1.56251e-23)
(0.374791 0.05635 1.26744e-23)
(0.386681 0.0633795 -1.70225e-23)
(0.41478 0.0621567 -1.76509e-23)
(2.233 -10.4495 8.15137e-20)
(1.40546 -8.34809 2.18914e-20)
(0.863693 -6.4448 -1.63904e-20)
(0.792353 -5.1202 3.54335e-21)
(0.71505 -3.90154 -4.71732e-21)
(0.624128 -2.78077 1.93428e-21)
(0.547728 -1.9071 3.25519e-22)
(0.479436 -1.26928 -1.66604e-22)
(0.43276 -0.831091 7.51125e-23)
(0.40168 -0.541558 1.96813e-23)
(0.386612 -0.354497 6.65012e-24)
(0.383616 -0.232436 2.72107e-22)
(0.384395 -0.147843 -3.6149e-22)
(0.386323 -0.0864167 -3.52567e-22)
(0.377631 -0.0400185 7.26667e-23)
(0.367611 0.00425241 6.07626e-23)
(0.357369 0.0277442 -1.26438e-22)
(0.346484 0.0562467 1.80038e-22)
(0.362568 0.0618447 3.96613e-23)
(0.388923 0.0612 4.18903e-23)
(2.90384 -10.4272 -1.71746e-19)
(1.91258 -8.40832 6.91803e-20)
(1.17323 -6.52305 7.73523e-20)
(0.954591 -5.16001 -2.15494e-20)
(0.814833 -3.93023 1.05266e-21)
(0.683932 -2.79917 3.54778e-21)
(0.573282 -1.91196 8.15474e-22)
(0.484268 -1.27006 -3.88397e-22)
(0.425556 -0.830985 -9.80347e-23)
(0.387447 -0.54165 -1.14234e-22)
(0.367869 -0.355185 -5.41507e-23)
(0.361991 -0.233405 1.31247e-23)
(0.360568 -0.148625 3.82026e-22)
(0.360687 -0.0864829 2.76227e-22)
(0.350182 -0.0393316 -1.78105e-22)
(0.339622 0.00497275 1.84562e-22)
(0.329548 0.0284717 -4.73855e-23)
(0.320306 0.0559223 -1.01842e-22)
(0.339979 0.0602449 -1.47968e-22)
(0.364305 0.0603273 6.94908e-23)
(3.60288 -10.4146 -4.96945e-20)
(2.44593 -8.4661 1.34773e-19)
(1.5097 -6.58555 -5.59324e-20)
(1.13394 -5.18877 -1.09182e-20)
(0.921246 -3.95118 6.63641e-21)
(0.748521 -2.81795 5.15429e-22)
(0.603046 -1.9207 -1.21363e-21)
(0.491752 -1.27401 -1.18419e-22)
(0.420377 -0.833034 3.94668e-22)
(0.374974 -0.542996 2.99379e-22)
(0.350668 -0.356537 -6.61305e-22)
(0.341739 -0.234715 9.30517e-23)
(0.338049 -0.149572 -5.01017e-23)
(0.336357 -0.0866079 -1.40917e-23)
(0.324203 -0.0387038 8.68366e-23)
(0.313341 0.00560905 -1.35452e-22)
(0.303502 0.029074 -1.17836e-22)
(0.296181 0.0553896 -2.42671e-22)
(0.318783 0.0586132 2.30925e-22)
(0.340891 0.0595436 -1.46843e-22)
(4.2773 -10.3189 9.70855e-21)
(2.98144 -8.43586 1.19361e-20)
(1.86339 -6.58059 5.30353e-21)
(1.32605 -5.18038 2.37141e-20)
(1.03152 -3.95477 8.1926e-21)
(0.815671 -2.83338 -5.16078e-21)
(0.636307 -1.93215 1.05863e-21)
(0.501921 -1.28079 3.30088e-22)
(0.417302 -0.837099 2.32221e-22)
(0.364321 -0.545541 3.58236e-22)
(0.335056 -0.358519 -6.9077e-23)
(0.322898 -0.236349 -6.55605e-22)
(0.316872 -0.150684 -1.03741e-22)
(0.313364 -0.0868089 -2.84635e-22)
(0.299722 -0.0381611 3.73108e-22)
(0.288763 0.00614488 -1.833e-22)
(0.279219 0.0295383 4.66893e-22)
(0.274013 0.0546674 7.56066e-23)
(0.298861 0.0569802 7.48573e-23)
(0.31866 0.0588495 -1.25591e-23)
(4.9641 -10.1652 -3.87243e-19)
(3.53867 -8.32464 -5.33974e-20)
(2.23376 -6.51831 3.65041e-20)
(1.5259 -5.1536 -6.24973e-20)
(1.14173 -3.96045 -2.08223e-20)
(0.88299 -2.85639 9.48275e-21)
(0.672277 -1.94986 -3.33998e-21)
(0.514754 -1.29105 3.93373e-22)
(0.416367 -0.843182 -6.71549e-22)
(0.355525 -0.549234 -3.22245e-22)
(0.321062 -0.361089 -2.23053e-22)
(0.30549 -0.238283 6.04213e-22)
(0.29706 -0.151958 -2.75264e-22)
(0.291732 -0.087098 -8.84361e-22)
(0.276756 -0.0377223 -2.52199e-22)
(0.265868 0.00657044 3.32687e-22)
(0.256664 0.0298591 3.48556e-23)
(0.253689 0.0537802 1.43547e-22)
(0.280109 0.0553733 -1.42472e-22)
(0.297598 0.0582423 5.27405e-23)
(5.63949 -9.90193 -7.19441e-19)
(4.09339 -8.20017 1.28024e-19)
(2.61019 -6.50966 -4.3948e-21)
(1.73184 -5.19789 7.64912e-20)
(1.25379 -4.02596 -2.21349e-20)
(0.952746 -2.91561 -8.34525e-21)
(0.712411 -1.98406 -7.63522e-22)
(0.530894 -1.3076 -9.21859e-22)
(0.417722 -0.851966 -1.84606e-21)
(0.348614 -0.554246 8.7487e-23)
(0.308705 -0.364286 -4.52357e-22)
(0.289532 -0.240526 7.56108e-22)