/*--------------------------------*- C++ -*----------------------------------*\
  =========                 |
  \\      /  F ield         | OpenFOAM: The Open Source CFD Toolbox
   \\    /   O peration     | Website:  https://openfoam.org
    \\  /    A nd           | Version:  6.0
     \\/     M anipulation  |
\*---------------------------------------------------------------------------*/
FoamFile
{
    version     2.0;
    format      ascii;
    class       volScalarField;
    location    "12";
    object      p;
}
// * * * * * * * * * * * * * * * * * * * * * * * * * * * * * * * * * * * * * //

dimensions      [0 2 -2 0 0 0 0];

internalField   nonuniform List<scalar> 
2400
(
-92.8055
-74.897
-62.8138
-53.4541
-45.5493
-38.9806
-33.5625
-29.052
-25.2436
-22.0281
-94.9335
-76.7571
-64.4043
-54.8331
-46.7779
-40.1036
-34.6078
-30.0346
-26.1716
-22.9181
-96.9766
-78.5319
-65.9149
-56.1388
-47.9396
-41.1656
-35.5975
-30.966
-27.0532
-23.7682
-98.9097
-80.2034
-67.3303
-57.3573
-49.0207
-42.1511
-36.5135
-31.8277
-27.8739
-24.5744
-100.707
-81.7501
-68.6333
-58.4757
-50.0124
-43.0541
-37.3492
-32.6085
-28.6186
-25.3187
-102.35
-83.1503
-69.8012
-59.4732
-50.9003
-43.8712
-38.1123
-33.3214
-29.2924
-25.9825
-103.829
-84.3878
-70.8083
-60.3153
-51.6451
-44.5681
-38.787
-33.9773
-29.9277
-26.6027
-105.152
-85.46
-71.6403
-60.97
-52.1891
-45.0564
-39.2638
-34.4791
-30.4954
-27.2837
-106.328
-86.3791
-72.3094
-61.442
-52.5107
-45.258
-39.3757
-34.572
-30.7363
-27.9134
-107.35
-87.1618
-72.8509
-61.7814
-52.6726
-45.2352
-39.1432
-34.1407
-30.2344
-27.5554
-112.738
-112.594
-112.307
-111.917
-111.445
-110.905
-110.306
-109.656
-108.956
-108.199
-90.689
-90.6778
-90.5557
-90.344
-90.0585
-89.7111
-89.3124
-88.8674
-88.3748
-87.8175
-75.1679
-75.196
-75.1368
-75.0034
-74.8097
-74.5692
-74.2949
-73.9942
-73.6659
-73.2953
-63.5204
-63.5227
-63.4517
-63.3188
-63.1397
-62.9299
-62.7076
-62.4844
-62.2667
-62.0435
-54.143
-54.0986
-53.9896
-53.8267
-53.6295
-53.4133
-53.2053
-53.0197
-52.8783
-52.7741
-46.549
-46.4593
-46.3104
-46.111
-45.8858
-45.6457
-45.4332
-45.2603
-45.1771
-45.1727
-40.3308
-40.2036
-40.0204
-39.7871
-39.5315
-39.2546
-39.022
-38.8383
-38.8125
-38.8906
-35.1473
-34.9923
-34.784
-34.5252
-34.2433
-33.9202
-33.6463
-33.4141
-33.4583
-33.6305
-30.7526
-30.579
-30.3575
-30.0902
-29.7975
-29.4364
-29.1034
-28.766
-28.8451
-29.2129
-27.0257
-26.8201
-26.5772
-26.3048
-26.0068
-25.6257
-25.2197
-24.7308
-24.625
-25.2026
-103.929
-105.647
-107.187
-108.555
-109.739
-110.723
-111.502
-112.083
-112.475
-112.692
-82.1183
-83.6966
-85.1369
-86.4235
-87.5411
-88.4819
-89.2474
-89.8439
-90.2798
-90.5607
-67.5078
-68.9183
-70.2106
-71.3572
-72.343
-73.1692
-73.8438
-74.3751
-74.7694
-75.032
-56.9835
-58.2472
-59.3934
-60.3903
-61.2292
-61.9214
-62.4802
-62.9137
-63.2274
-63.4272
-48.6488
-49.806
-50.8294
-51.6869
-52.3875
-52.9557
-53.4062
-53.7445
-53.9756
-54.1061
-41.9127
-43.016
-43.9463
-44.6776
-45.2544
-45.7174
-46.0763
-46.3332
-46.4932
-46.5632
-36.3508
-37.4475
-38.3132
-38.9343
-39.4076
-39.7855
-40.0691
-40.2596
-40.363
-40.3859
-31.7109
-32.7789
-33.5719
-34.1055
-34.5049
-34.8164
-35.0381
-35.1778
-35.2414
-35.232
-28.0787
-28.9443
-29.5346
-29.9913
-30.3445
-30.5915
-30.751
-30.8495
-30.887
-30.858
-25.7592
-26.26
-26.3204
-26.6606
-26.9748
-27.1245
-27.1869
-27.2239
-27.2238
-27.1652
-16.591
-19.3784
-22.7043
-26.5829
-31.1548
-36.6513
-43.378
-51.8153
-63.9246
-83.4236
-17.1529
-20.0239
-23.4244
-27.3929
-32.0773
-37.714
-44.6178
-53.2802
-65.6624
-85.4277
-17.7514
-20.7038
-24.1776
-28.2376
-33.0368
-38.8157
-45.899
-54.7884
-67.4389
-87.453
-18.3951
-21.4196
-24.9619
-29.1139
-34.03
-39.9532
-47.2177
-56.3359
-69.2547
-89.513
-19.0795
-22.179
-25.7899
-30.0335
-35.0643
-41.1289
-48.5722
-57.918
-71.1044
-91.6043
-19.7823
-22.956
-26.6406
-30.982
-36.1306
-42.3368
-49.9575
-59.5281
-72.9781
-93.7141
-20.5387
-23.8064
-27.5611
-31.9876
-37.2409
-43.5791
-51.3695
-61.1577
-74.864
-95.8283
-21.3345
-24.6909
-28.5102
-33.0196
-38.3775
-44.8446
-52.7974
-62.7938
-76.7465
-97.9302
-22.3947
-25.795
-29.5824
-34.116
-39.5512
-46.1285
-54.227
-64.4171
-78.6057
-100.002
-23.7476
-26.9249
-30.6213
-35.2142
-40.7368
-47.4092
-55.6344
-66.0008
-80.4108
-102.016
-12.2926
-13.8895
-16.2841
-19.3735
-23.0679
-27.4691
-32.7766
-39.3149
-48.892
-65.5747
-13.0274
-14.7746
-17.2344
-20.2993
-23.9586
-28.3603
-33.7176
-40.3637
-50.1233
-67.0491
-13.1466
-15.2287
-17.8918
-21.0577
-24.7819
-29.2521
-34.7023
-41.4852
-51.4459
-68.6171
-13.3599
-15.6016
-18.3977
-21.6807
-25.5198
-30.1094
-35.6946
-42.6483
-52.839
-70.2767
-13.7321
-16.0441
-18.9182
-22.2907
-26.2383
-30.9559
-36.6938
-43.8408
-54.286
-72.0096
-14.1551
-16.5415
-19.4894
-22.9407
-26.9855
-31.8251
-37.7177
-45.0673
-55.7796
-73.7983
-14.5863
-17.0596
-20.0879
-23.6222
-27.7659
-32.7284
-38.7779
-46.3349
-57.3196
-75.6345
-15.0422
-17.5987
-20.7052
-24.3251
-28.5727
-33.6635
-39.8757
-47.6459
-58.9069
-77.5164
-15.5322
-18.1644
-21.3443
-25.0499
-29.4044
-34.6282
-41.0089
-48.9985
-60.5408
-79.4443
-16.0536
-18.7602
-22.0116
-25.8024
-30.2645
-35.6236
-42.1764
-50.3898
-62.2166
-81.4167
-10.1396
-9.22536
-8.84442
-8.72493
-8.70589
-8.74878
-8.86214
-9.03791
-9.29093
-9.60618
-12.6219
-11.8494
-11.3223
-11.1178
-11.0393
-11.0637
-11.1682
-11.3453
-11.5997
-11.9179
-15.3004
-14.6455
-14.1219
-13.8621
-13.7364
-13.7389
-13.8338
-14.0138
-14.2739
-14.6028
-18.4981
-17.8516
-17.3435
-17.044
-16.8808
-16.8557
-16.936
-17.1139
-17.3788
-17.7205
-22.2455
-21.5821
-21.0689
-20.7353
-20.5432
-20.4931
-20.5602
-20.7364
-21.009
-21.3685
-26.6567
-25.9724
-25.4372
-25.0675
-24.8469
-24.7727
-24.8277
-25.0032
-25.2867
-25.669
-31.9267
-31.1988
-30.6184
-30.199
-29.9371
-29.8295
-29.8647
-30.0334
-30.3247
-30.7292
-38.3694
-37.5487
-36.8795
-36.3761
-36.0418
-35.8745
-35.8665
-36.0094
-36.2934
-36.7086
-47.7668
-46.7757
-45.9504
-45.3071
-44.8505
-44.5795
-44.4888
-44.5719
-44.8187
-45.2148
-64.1826
-62.953
-61.9181
-61.0885
-60.4672
-60.0527
-59.8411
-59.827
-59.9983
-60.3289
-9.97402
-10.3774
-10.8163
-11.2893
-11.7944
-12.2995
-12.737
-13.1043
-13.5521
-13.9506
-12.2932
-12.7109
-13.168
-13.6571
-14.1699
-14.6861
-15.1774
-15.6121
-15.9636
-16.2715
-14.9929
-15.4319
-15.9147
-16.4316
-16.9716
-17.5199
-18.0641
-18.5755
-19.0042
-19.386
-18.1299
-18.5951
-19.1095
-19.6625
-20.2429
-20.8385
-21.4389
-22.0233
-22.5665
-23.0966
-21.8042
-22.3041
-22.8603
-23.4621
-24.0989
-24.7595
-25.4323
-26.1031
-26.7674
-27.4508
-26.1383
-26.6823
-27.2921
-27.9573
-28.668
-29.4134
-30.1821
-30.9647
-31.7652
-32.6052
-31.2347
-31.8278
-32.4989
-33.2385
-34.0369
-34.8841
-35.77
-36.6888
-37.6462
-38.6581
-37.2411
-37.8755
-38.6037
-39.4168
-40.3054
-41.2601
-42.2733
-43.3422
-44.4717
-45.672
-45.74
-46.3834
-47.14
-48.0016
-48.958
-50.0013
-51.1271
-52.3368
-53.6344
-55.0195
-60.7827
-61.3774
-62.1083
-62.9636
-63.9329
-65.0094
-66.1936
-67.492
-68.9073
-70.4204
-71.996
-56.4828
-46.9465
-39.7358
-33.5055
-28.1952
-23.7048
-19.8924
-16.7074
-14.0546
-73.6868
-58.0287
-48.2926
-40.8825
-34.4762
-29.0213
-24.4233
-20.5406
-17.2762
-14.4636
-75.5031
-59.6669
-49.7158
-42.1029
-35.5247
-29.9347
-25.2358
-21.2718
-17.9195
-15.031
-77.4372
-61.397
-51.2148
-43.395
-36.6479
-30.9293
-26.1377
-22.1079
-18.7069
-15.7955
-79.4767
-63.2095
-52.7824
-44.751
-37.8352
-31.9891
-27.1039
-23.0051
-19.5486
-16.5984
-81.6056
-65.0916
-54.407
-46.1595
-39.0751
-33.1029
-28.1255
-23.9588
-20.4459
-17.4503
-83.8072
-67.0277
-56.0739
-47.6062
-40.3533
-34.2556
-29.1851
-24.946
-21.3683
-18.3169
-86.0626
-69.0007
-57.7669
-49.0757
-41.6556
-35.4352
-30.274
-25.9642
-22.3239
-19.2211
-88.3452
-70.9896
-59.4684
-50.552
-42.9667
-36.6264
-31.3768
-26.9983
-23.2991
-20.1534
-90.611
-72.9668
-61.1594
-52.019
-44.2714
-37.8147
-32.4793
-28.0344
-24.2806
-21.1004
-13.677
-5.81834
-2.65923
-1.29202
-0.49245
-0.158443
-0.0365977
-0.0142876
-0.0270669
-0.0449158
-0.0502392
-0.0391239
-0.00321549
0.0388932
0.0856136
0.0924417
0.0794397
0.0127227
-0.0900781
-0.0808427
-14.5386
-6.47106
-2.96427
-1.46621
-0.6127
-0.230262
-0.0833811
-0.0457957
-0.0485028
-0.0594803
-0.0602299
-0.0461213
-0.00873722
0.0339604
0.0802387
0.0876351
0.0752475
0.0121711
-0.0857697
-0.0760264
-15.3857
-7.15033
-3.30818
-1.6516
-0.736349
-0.30363
-0.129526
-0.0762592
-0.069023
-0.0734116
-0.0698829
-0.053034
-0.0143449
0.0288919
0.0748017
0.0829093
0.0712211
0.0117762
-0.0815017
-0.071321
-16.2499
-7.83202
-3.65015
-1.82647
-0.854737
-0.376477
-0.17491
-0.105805
-0.0887533
-0.0867934
-0.0792444
-0.0598803
-0.020034
0.0237085
0.0693285
0.0782727
0.067359
0.0115044
-0.0773078
-0.0667464
-17.0905
-8.43093
-3.92921
-1.9659
-0.959472
-0.446494
-0.219098
-0.134385
-0.10774
-0.0996735
-0.0883416
-0.0666664
-0.0257931
0.0184337
0.0638425
0.073732
0.0636566
0.011323
-0.0732159
-0.062318
-17.7833
-8.9052
-4.1688
-2.09952
-1.0658
-0.518522
-0.263263
-0.162239
-0.126053
-0.112082
-0.0971818
-0.0733825
-0.0316004
0.0130956
0.0583671
0.0692924
0.0601076
0.0112016
-0.0692494
-0.0580481
-18.4109
-9.54978
-4.60109
-2.35362
-1.22711
-0.610665
-0.312992
-0.191097
-0.14428
-0.124255
-0.105869
-0.0800686
-0.0374562
0.00771465
0.0529236
0.0649643
0.0567089
0.0111143
-0.0654295
-0.0539473
-19.6506
-10.9322
-5.501
-2.84071
-1.4849
-0.739468
-0.375488
-0.224008
-0.163755
-0.136867
-0.11479
-0.0869584
-0.043479
0.00224283
0.0475206
0.060762
0.0534769
0.0110626
-0.0617786
-0.050025
-21.7584
-12.77
-6.59642
-3.37839
-1.74861
-0.874869
-0.443142
-0.259036
-0.184016
-0.149862
-0.124001
-0.0941348
-0.049753
-0.00337565
0.0421178
0.0566693
0.0504025
0.0110385
-0.0582964
-0.0462857
-21.715
-12.9492
-6.77156
-3.41183
-1.77357
-0.919563
-0.478067
-0.280318
-0.197709
-0.159201
-0.13092
-0.0998123
-0.0552204
-0.00863935
0.0367614
0.0525581
0.0473154
0.0108969
-0.0548829
-0.0426906
-17.5741
-11.3092
-6.01291
-2.96158
-1.57109
-0.86964
-0.474676
-0.283316
-0.201418
-0.162159
-0.13334
-0.102423
-0.0596453
-0.0146067
0.0293019
0.0463928
0.0426142
0.0103364
-0.0499473
-0.0377631
-13.5432
-9.48658
-5.30888
-2.65357
-1.43453
-0.852671
-0.504756
-0.31375
-0.224514
-0.178924
-0.145329
-0.111167
-0.0675311
-0.0223419
0.0204693
0.0387676
0.0364256
0.0089808
-0.0445233
-0.0317931
-10.3772
-7.76872
-4.65343
-2.42794
-1.32414
-0.821602
-0.524733
-0.342383
-0.247739
-0.196702
-0.158655
-0.121016
-0.0760926
-0.0305257
0.0111574
0.0305058
0.0296778
0.00717627
-0.03916
-0.0257445
-7.59911
-6.08806
-3.9675
-2.23767
-1.25483
-0.795879
-0.539148
-0.369685
-0.270592
-0.213951
-0.171759
-0.130984
-0.0850867
-0.0394484
0.00101768
0.0214953
0.0224942
0.00507499
-0.0337029
-0.0198045
-5.54057
-4.67907
-3.28805
-1.99795
-1.17226
-0.763624
-0.542852
-0.391459
-0.292072
-0.230665
-0.184696
-0.14116
-0.0945295
-0.0490416
-0.00974044
0.0119157
0.0150486
0.00269256
-0.0283368
-0.0142627
-4.02616
-3.47331
-2.59194
-1.73149
-1.11531
-0.757253
-0.549198
-0.408525
-0.311329
-0.246566
-0.19723
-0.151352
-0.104187
-0.0590095
-0.0207465
0.0020463
0.0075532
6.83871e-05
-0.0233174
-0.00940171
-2.9537
-2.60105
-2.07589
-1.52137
-1.05613
-0.737499
-0.543086
-0.417036
-0.326971
-0.26113
-0.20892
-0.161099
-0.113622
-0.0689109
-0.0315307
-0.00770205
0.000305458
-0.00267543
-0.0188897
-0.0054473
-2.29773
-2.0465
-1.70241
-1.32392
-0.980924
-0.721524
-0.547371
-0.428832
-0.341167
-0.273682
-0.218959
-0.169702
-0.122208
-0.0781048
-0.0414368
-0.0167148
-0.00627645
-0.00533187
-0.0152793
-0.00253638
-1.93418
-1.726
-1.47213
-1.19622
-0.932407
-0.711571
-0.547063
-0.430843
-0.346129
-0.280346
-0.22564
-0.176177
-0.129084
-0.0856684
-0.0495351
-0.0241162
-0.0116053
-0.00759895
-0.0126586
-0.000700224
-1.76673
-1.57732
-1.36289
-1.1317
-0.903646
-0.703532
-0.547235
-0.433704
-0.350407
-0.28508
-0.229996
-0.180219
-0.13334
-0.0903726
-0.0545322
-0.0286909
-0.0148418
-0.00904395
-0.01113
0.000120026
-21.935
-21.5925
-21.2217
-20.8649
-20.4607
-20.0051
-19.3816
-18.6864
-17.9179
-18.0622
-16.0472
-15.6049
-15.141
-14.7015
-14.2234
-13.7435
-13.2037
-12.8448
-12.6963
-13.3295
-11.3716
-11.0204
-10.6773
-10.3804
-10.123
-9.95111
-9.85897
-9.90447
-9.99586
-10.2905
-8.18036
-7.99238
-7.83181
-7.7145
-7.63335
-7.58239
-7.51577
-7.42011
-7.29658
-7.35448
-5.9868
-5.88927
-5.80044
-5.71305
-5.61582
-5.50525
-5.38285
-5.28108
-5.23629
-5.31749
-4.38003
-4.31267
-4.24456
-4.17393
-4.10441
-4.04412
-3.99931
-3.97232
-3.95972
-3.97223
-3.31651
-3.27901
-3.2412
-3.20282
-3.16447
-3.12614
-3.08659
-3.04466
-3.00418
-2.97465
-2.6748
-2.65084
-2.62323
-2.5919
-2.55717
-2.51964
-2.48022
-2.43991
-2.40068
-2.36378
-2.30755
-2.28923
-2.26684
-2.24068
-2.21113
-2.17861
-2.14352
-2.10619
-2.06716
-2.02683
-2.1385
-2.12249
-2.10241
-2.07848
-2.05095
-2.02008
-1.98618
-1.94955
-1.91052
-1.86944
-23.2976
-24.039
-22.7138
-22.6289
-22.8629
-22.8146
-22.6425
-22.5023
-22.3739
-22.2046
-20.1365
-20.1341
-18.1242
-17.41
-17.5397
-17.5172
-17.2495
-16.9599
-16.7028
-16.4218
-15.9936
-15.4558
-13.3331
-12.4283
-12.5365
-12.6845
-12.5414
-12.2625
-11.9798
-11.6961
-11.6929
-11.1595
-9.44263
-8.64208
-8.74087
-8.99582
-9.00944
-8.82856
-8.59905
-8.38351
-8.161
-7.8673
-6.74795
-6.1514
-6.18437
-6.40119
-6.47965
-6.39319
-6.24324
-6.10258
-5.54055
-5.45946
-4.87877
-4.51285
-4.48455
-4.59358
-4.65352
-4.62062
-4.53898
-4.45395
-3.75524
-3.77882
-3.56461
-3.40516
-3.37523
-3.41122
-3.43807
-3.42914
-3.39566
-3.35541
-2.7178
-2.77114
-2.73465
-2.69917
-2.69515
-2.70959
-2.72182
-2.72226
-2.71203
-2.69535
-2.21912
-2.27528
-2.29485
-2.30302
-2.31285
-2.32404
-2.33218
-2.33452
-2.33073
-2.32152
-2.02745
-2.08366
-2.11327
-2.12871
-2.14048
-2.15066
-2.15764
-2.16004
-2.15751
-2.15024
0.573473
0.527342
0.419845
0.207344
-0.167507
-0.846706
-1.95905
-3.91799
-7.3441
-14.9769
0.406508
0.35628
0.244227
0.0239772
-0.358948
-1.05116
-2.18337
-4.2018
-7.4033
-13.9059
0.227388
0.17583
0.0666282
-0.147871
-0.506364
-1.16239
-2.17285
-4.03785
-6.59814
-11.3735
0.0397371
-0.0125007
-0.114908
-0.317613
-0.628328
-1.22002
-2.01273
-3.53652
-5.46627
-8.67952
-0.1508
-0.20309
-0.295277
-0.483302
-0.736862
-1.23846
-1.8338
-2.90259
-4.30329
-6.28427
-0.337503
-0.386591
-0.467841
-0.630948
-0.841769
-1.21688
-1.68446
-2.34104
-3.27796
-4.45193
-0.512559
-0.551647
-0.624222
-0.750502
-0.933332
-1.1832
-1.54431
-1.93887
-2.51738
-3.19335
-0.663478
-0.689636
-0.752284
-0.844571
-0.994367
-1.16156
-1.41926
-1.68007
-2.03504
-2.42642
-0.775512
-0.793559
-0.843572
-0.914511
-1.0284
-1.15541
-1.33642
-1.53004
-1.76919
-2.02956
-0.838346
-0.853836
-0.894379
-0.955091
-1.04631
-1.15639
-1.29877
-1.45933
-1.64702
-1.85967
1.64957
1.62899
1.57487
1.45078
1.19891
0.738032
-0.0762512
-1.44479
-3.91636
-9.72058
1.53313
1.50971
1.449
1.3156
1.05152
0.573281
-0.258216
-1.66645
-4.12458
-9.95919
1.41903
1.39292
1.32601
1.18359
0.907899
0.411362
-0.437428
-1.89087
-4.34619
-10.2197
1.30755
1.27891
1.20625
1.05506
0.768348
0.25272
-0.613078
-2.11773
-4.59248
-10.5365
1.19887
1.1679
1.08995
0.93027
0.633043
0.0975327
-0.785029
-2.34477
-4.84849
-10.8568
1.09318
1.06008
0.977325
0.809442
0.502035
-0.0541483
-0.954269
-2.57212
-5.13428
-11.1889
0.990587
0.9556
0.868511
0.692744
0.37526
-0.202129
-1.12157
-2.79215
-5.43341
-11.4445
0.891212
0.854646
0.763657
0.580304
0.252547
-0.346359
-1.29133
-3.00867
-5.8086
-11.7732
0.795082
0.75735
0.662969
0.472289
0.133402
-0.486864
-1.46496
-3.2168
-6.19174
-12.1841
0.701777
0.662685
0.565324
0.3681
0.0169709
-0.628162
-1.66098
-3.48649
-6.74101
-13.3797
2.86038
2.87144
2.89277
2.88322
2.77375
2.46117
1.85844
0.489859
-2.84475
-8.63427
2.74166
2.74786
2.75865
2.72906
2.58812
2.21188
1.50939
0.101149
-3.28846
-9.26835
2.62162
2.62493
2.62796
2.58531
2.43266
2.05306
1.37132
0.152651
-2.74459
-8.35783
2.50024
2.50102
2.49747
2.44518
2.28755
1.92266
1.27934
0.20616
-2.36745
-8.01849
2.37789
2.37583
2.36549
2.30358
2.13778
1.77519
1.12618
0.0518625
-2.47509
-8.22677
2.25504
2.24992
2.23233
2.15989
1.98082
1.60485
0.914835
-0.238085
-2.78448
-8.49541
2.13218
2.12391
2.09884
2.01543
1.8205
1.42509
0.691451
-0.533714
-3.06337
-8.7015
2.00977
1.99834
1.96577
1.87156
1.66083
1.24726
0.483865
-0.785754
-3.28686
-8.91833
1.88826
1.87371
1.83373
1.72915
1.50374
1.07439
0.292177
-1.00907
-3.49672
-9.18048
1.76806
1.75045
1.70326
1.58875
1.34973
0.905068
0.107153
-1.22601
-3.70924
-9.46507
4.97331
4.99744
5.04402
5.10858
5.18197
5.25395
5.31659
5.36492
5.39574
5.40482
4.88067
4.9104
4.9681
5.04861
5.14181
5.23637
5.32289
5.39461
5.4453
5.46519
4.71995
4.75726
4.82989
4.93175
5.05125
5.17567
5.29458
5.3985
5.4748
5.51713
4.50798
4.55181
4.63725
4.75763
4.9003
5.04944
5.18793
5.29927
5.36888
5.41108
4.26183
4.30914
4.4008
4.52794
4.67461
4.82287
4.95393
5.03577
5.02637
4.99221
3.9986
4.04578
4.13675
4.26123
4.4031
4.54206
4.62364
4.54453
4.28418
4.07784
3.73353
3.77729
3.86066
3.96901
4.07978
4.17038
4.16585
3.87869
3.24253
2.6792
3.47832
3.51603
3.58673
3.67087
3.737
3.76432
3.66522
3.1051
1.86778
0.632172
3.24087
3.27091
3.32501
3.37774
3.38502
3.31575
3.08976
2.25511
0.323039
-1.87822
3.02463
3.0464
3.08423
3.10458
3.04983
2.86165
2.46637
1.34971
-1.36095
-5.23619
5.3957
5.38959
5.38083
5.36978
5.35642
5.34058
5.32216
5.30113
5.27747
5.25121
5.46077
5.45147
5.43668
5.41957
5.4002
5.37811
5.35319
5.32549
5.29512
5.26219
5.55129
5.54486
5.52826
5.50853
5.48562
5.45896
5.42853
5.39449
5.35695
5.31606
5.49233
5.49208
5.48114
5.46442
5.44166
5.41293
5.37838
5.33817
5.29246
5.2414
5.12163
5.14044
5.14489
5.13947
5.1231
5.09587
5.05759
5.00862
4.94942
4.88037
4.29189
4.35655
4.37767
4.37799
4.35716
4.3205
4.26774
4.19977
4.11623
4.01711
2.93561
3.04207
3.05389
3.0542
3.03179
2.99375
2.92996
2.84032
2.72064
2.57157
0.875515
1.10428
1.16821
1.20886
1.18269
1.12252
1.01586
0.870559
0.675168
0.4332
-1.66531
-1.26801
-1.26336
-1.29647
-1.42359
-1.55561
-1.73387
-1.95007
-2.23294
-2.57324
-5.37333
-4.95292
-5.05367
-5.09425
-5.21529
-5.32417
-5.49559
-5.71363
-6.01055
-6.36855
5.22237
5.19106
5.15736
5.12144
5.08344
5.04355
5.00199
4.95899
4.91481
4.86939
5.22684
5.1893
5.14979
5.10857
5.06591
5.02206
4.97731
4.93202
4.88612
4.83682
5.27194
5.22476
5.17464
5.12174
5.06625
5.00837
4.94806
4.88436
4.81473
4.73804
5.18498
5.12295
5.05519
4.98286
4.90826
4.83105
4.74244
4.62776
4.48886
4.37866
4.80073
4.7084
4.60269
4.49076
4.38649
4.28792
4.14628
3.88992
3.55347
3.40958
3.90036
3.76047
3.59373
3.41571
3.26532
3.15069
2.95389
2.46975
1.74856
1.49776
2.3937
2.18213
1.92614
1.63799
1.37974
1.19926
0.936837
0.204421
-1.01549
-1.47609
0.154269
-0.157865
-0.521569
-0.945574
-1.37353
-1.70153
-2.0427
-2.92711
-4.52039
-5.11601
-2.951
-3.3515
-3.79539
-4.30941
-4.8746
-5.36685
-5.75705
-6.55277
-8.16149
-8.66603
-6.76753
-7.18928
-7.64627
-8.15348
-8.71957
-9.27378
-9.6774
-10.1365
-11.2837
-11.6526
4.74942
4.51322
4.26249
3.86797
3.34119
2.76983
2.21821
1.71234
1.26951
0.900555
0.618428
0.419667
0.30071
0.234607
0.22021
0.213449
0.183284
0.137694
0.000698933
-0.0861568
4.69115
4.46066
4.26488
3.76981
3.1858
2.61654
2.0815
1.59038
1.16266
0.811398
0.548519
0.366344
0.262664
0.208921
0.207707
0.211269
0.188748
0.145214
-0.0180847
-0.108224
4.53676
4.26983
4.09727
3.50666
2.92251
2.38361
1.87784
1.41484
1.01653
0.695535
0.461285
0.302919
0.219051
0.182133
0.198344
0.211112
0.194799
0.143679
-0.0510177
-0.132627
4.20923
3.9357
3.74042
3.16377
2.62312
2.12443
1.65707
1.23305
0.872301
0.585873
0.381048
0.246212
0.181471
0.160945
0.190531
0.207367
0.194568
0.128959
-0.0847348
-0.149773
3.54616
3.47676
3.21306
2.76254
2.29811
1.85749
1.4407
1.06223
0.74132
0.488835
0.31117
0.197593
0.149585
0.14276
0.181641
0.19975
0.18837
0.107983
-0.110296
-0.15823
2.2012
2.69383
2.47416
2.25576
1.93369
1.58538
1.23341
0.905192
0.624529
0.404198
0.251125
0.156293
0.122746
0.1271
0.172293
0.18987
0.178618
0.0872627
-0.126054
-0.159546
-0.0964804
1.33869
1.5497
1.6571
1.54422
1.31766
1.04083
0.764785
0.522949
0.331995
0.200624
0.121991
0.1007
0.113702
0.162852
0.179044
0.167457
0.0699518
-0.13357
-0.156088
-3.01884
-0.468188
0.547451
1.04614
1.16008
1.06359
0.864564
0.639989
0.434787
0.270475
0.158255
0.0935806
0.0825213
0.102058
0.15357
0.168328
0.156411
0.0567477
-0.135296
-0.150016
-5.77649
-2.18434
-0.309741
0.542123
0.830534
0.841536
0.709804
0.530811
0.358342
0.217691
0.122332
0.0697113
0.06723
0.0918352
0.144794
0.158407
0.146251
0.047059
-0.133536
-0.142851
-7.1061
-3.09187
-0.761918
0.26607
0.610107
0.680313
0.590521
0.443884
0.29681
0.175196
0.0936703
0.0508477
0.0550675
0.0832014
0.136683
0.149143
0.136843
0.0397125
-0.129951
-0.135439
-6.53142
-3.05577
-0.840132
0.233102
0.53042
0.612163
0.53593
0.402427
0.267487
0.155277
0.0806853
0.042591
0.0493541
0.0778123
0.129979
0.141115
0.129074
0.0348541
-0.125872
-0.129231
-6.3172
-2.86723
-1.00263
0.15307
0.432559
0.524893
0.467892
0.350755
0.230796
0.130592
0.0650106
0.0333378
0.0441019
0.0745223
0.126309
0.136294
0.123696
0.0310427
-0.123385
-0.124793
-6.87229
-2.81836
-1.22873
0.0290505
0.339827
0.439786
0.402483
0.300274
0.193941
0.105141
0.0485062
0.0235429
0.0386748
0.0714611
0.122898
0.131707
0.118348
0.0273582
-0.120821
-0.120253
-7.627
-2.86023
-1.42626
-0.129995
0.246211
0.35554
0.33948
0.253264
0.160261
0.0821385
0.0335928
0.0145681
0.0334523
0.0681709
0.119115
0.12697
0.113079
0.024185
-0.117827
-0.115543
-8.44683
-3.03724
-1.58825
-0.304774
0.152114
0.275106
0.278944
0.208806
0.128695
0.0607514
0.019758
0.00615327
0.0283284
0.0646233
0.114973
0.122097
0.107892
0.0214854
-0.114454
-0.110694
-9.23633
-3.30046
-1.72551
-0.482411
0.0538886
0.198149
0.220827
0.166661
0.0988775
0.0405507
0.00663081
-0.00194409
0.0232037
0.0608539
0.110565
0.117157
0.102803
0.0191935
-0.110798
-0.105752
-10.0407
-3.65266
-1.86167
-0.655254
-0.0490156
0.124153
0.165122
0.126713
0.0707474
0.0214796
-0.00585168
-0.00978053
0.0180465
0.0568699
0.10593
0.112186
0.0978349
0.0172778
-0.106915
-0.100754
-10.8838
-4.07979
-2.00986
-0.819517
-0.155862
0.052302
0.111745
0.0888169
0.0442132
0.00348386
-0.0177227
-0.017381
0.0128402
0.052672
0.101088
0.107207
0.0930033
0.0157092
-0.102854
-0.0957332
-11.8007
-4.59693
-2.18654
-0.976611
-0.265446
-0.0181833
0.0605288
0.0528071
0.0191538
-0.0135208
-0.0290382
-0.0247814
0.00756877
0.0482671
0.0960675
0.102244
0.0883215
0.0144527
-0.0986633
-0.090722
-12.7551
-5.18654
-2.40073
-1.13131
-0.377259
-0.0880966
0.0112103
0.0185053
-0.00456086
-0.0296241
-0.0398581
-0.0320184
0.00221925
0.0436686
0.0908989
0.0973158
0.0837982
0.0134698
-0.0943901
-0.0857496
)
;

boundaryField
{
    inlet
    {
        type            freestreamPressure;
        freestreamValue uniform 0;
        supersonic      false;
        value           nonuniform List<scalar> 
40
(
0.573473
0.406508
0.227388
0.0397371
-0.1508
-0.337503
-0.512559
-0.663478
-0.775512
-0.838346
1.64957
1.53313
1.41903
1.30755
1.19887
1.09318
0.990587
0.891212
0.795082
0.701777
2.86038
2.74166
2.62162
2.50024
2.37789
2.25504
2.13218
2.00977
1.88826
1.76806
4.97331
4.88067
4.71995
4.50798
4.26183
3.9986
3.73353
3.47832
3.24087
3.02463
)
;
    }
    outlet
    {
        type            freestreamPressure;
        freestreamValue uniform 0;
        supersonic      false;
        value           nonuniform List<scalar> 
40
(
-0.0015852
-0.00121799
-0.000869759
-0.000564928
-0.000325011
-0.000158884
-6.13223e-05
-1.59972e-05
-1.74988e-06
3.57883e-08
-0.00370622
-0.00361066
-0.00346908
-0.00328952
-0.0030809
-0.00285231
-0.00261243
-0.00236903
-0.00212852
-0.00189491
-0.00207525
-0.00235296
-0.0026332
-0.00290275
-0.00315074
-0.00336687
-0.00354144
-0.00366644
-0.00373653
-0.00374948
-1.73558e-12
-1.8444e-07
-3.39544e-06
-2.27579e-05
-8.74982e-05
-0.000233342
-0.000484246
-0.000838653
-0.00126548
-0.00171683
)
;
    }
    top
    {
        type            symmetryPlane;
    }
    bottom
    {
        type            symmetryPlane;
    }
    cylinder
    {
        type            zeroGradient;
    }
    frontandback
    {
        type            empty;
    }
}


// ************************************************************************* //
