/*--------------------------------*- C++ -*----------------------------------*\
  =========                 |
  \\      /  F ield         | OpenFOAM: The Open Source CFD Toolbox
   \\    /   O peration     | Website:  https://openfoam.org
    \\  /    A nd           | Version:  6.0
     \\/     M anipulation  |
\*---------------------------------------------------------------------------*/
FoamFile
{
    version     2.0;
    format      ascii;
    class       volVectorField;
    location    "19";
    object      U;
}
// * * * * * * * * * * * * * * * * * * * * * * * * * * * * * * * * * * * * * //

dimensions      [0 1 -1 0 0 0 0];

internalField   nonuniform List<vector> 
19200
(
(0.0986108 -4.74714 -5.76797e-21)
(0.06091 -4.33832 2.84665e-21)
(0.0668904 -4.00362 1.31846e-21)
(0.0818613 -3.72988 1.1613e-21)
(0.0995597 -3.50558 1.29728e-21)
(0.121446 -3.32104 9.3414e-23)
(0.146933 -3.16834 1.83789e-21)
(0.17509 -3.0411 -1.23304e-22)
(0.205217 -2.93415 1.61572e-21)
(0.23672 -2.84336 6.81627e-22)
(0.269082 -2.76541 8.44654e-24)
(0.30186 -2.69765 1.08143e-21)
(0.334685 -2.63795 1.778e-21)
(0.367251 -2.58463 -1.20777e-21)
(0.399308 -2.53635 1.5677e-21)
(0.430658 -2.49202 1.36119e-21)
(0.461143 -2.45081 -1.27568e-21)
(0.490642 -2.41202 2.19686e-21)
(0.519069 -2.37512 -1.39284e-21)
(0.546361 -2.33968 7.08578e-22)
(0.572481 -2.30537 9.94493e-22)
(0.597408 -2.27189 -3.15504e-22)
(0.621138 -2.23904 4.28402e-22)
(0.643678 -2.2066 -5.00682e-22)
(0.665045 -2.17443 1.11277e-21)
(0.685261 -2.14236 2.70599e-22)
(0.70435 -2.11024 -1.71502e-22)
(0.72234 -2.07793 1.12265e-22)
(0.739262 -2.04527 2.49723e-22)
(0.755115 -2.01206 1.00046e-21)
(0.223153 -4.74464 -1.34902e-21)
(0.175411 -4.34214 8.85936e-21)
(0.173317 -4.0127 -4.65461e-21)
(0.181918 -3.74375 -6.33603e-21)
(0.194617 -3.52384 -2.84763e-21)
(0.21256 -3.34317 -2.05755e-21)
(0.234908 -3.19379 -4.44239e-21)
(0.260538 -3.06934 5.55096e-22)
(0.288593 -2.96467 -9.58279e-22)
(0.318359 -2.87569 -3.33618e-21)
(0.349224 -2.79912 -8.39513e-21)
(0.380673 -2.73235 4.12107e-21)
(0.412282 -2.6733 -1.51912e-21)
(0.443702 -2.62032 5.7776e-22)
(0.474653 -2.5721 -3.60538e-21)
(0.50491 -2.52761 -1.33922e-21)
(0.534302 -2.48603 1.52766e-22)
(0.562696 -2.44672 4.58588e-21)
(0.589998 -2.40915 -2.40538e-21)
(0.616142 -2.37293 -1.34382e-21)
(0.641088 -2.33774 -5.27996e-21)
(0.664817 -2.30332 1.36057e-21)
(0.687324 -2.26947 -8.71884e-22)
(0.70862 -2.236 1.5364e-21)
(0.728723 -2.20276 -1.89524e-21)
(0.747658 -2.16961 -1.0957e-21)
(0.765452 -2.13639 3.62096e-22)
(0.782137 -2.10297 5.46056e-22)
(0.797766 -2.06918 -9.91818e-22)
(0.812304 -2.0348 5.06381e-22)
(0.347378 -4.73928 -6.69019e-22)
(0.289882 -4.34338 2.05052e-21)
(0.280106 -4.01946 2.9454e-21)
(0.282669 -3.75555 2.2496e-20)
(0.290632 -3.54021 -1.30142e-20)
(0.304843 -3.36351 1.19697e-20)
(0.324223 -3.21753 7.35262e-21)
(0.347458 -3.09589 5.72013e-21)
(0.373539 -2.99351 -5.56646e-21)
(0.401636 -2.90632 -6.58691e-22)
(0.431047 -2.83109 1.41352e-20)
(0.461188 -2.76527 2.38983e-21)
(0.491579 -2.70681 -6.5074e-21)
(0.521834 -2.65411 5.1875e-21)
(0.551644 -2.60591 -6.57123e-23)
(0.580763 -2.5612 2.23401e-21)
(0.609005 -2.5192 1.67744e-21)
(0.63623 -2.4793 5.52966e-21)
(0.662337 -2.44102 -2.46598e-21)
(0.687258 -2.40398 -8.17718e-22)
(0.710953 -2.36788 -2.17309e-21)
(0.733403 -2.33249 9.5485e-21)
(0.754608 -2.29762 -7.96715e-21)
(0.77458 -2.26311 2.64981e-21)
(0.793341 -2.2288 5.9764e-21)
(0.81092 -2.19457 -4.84956e-21)
(0.827343 -2.16028 6.52705e-21)
(0.842651 -2.12577 -7.32237e-22)
(0.856917 -2.09087 -7.46237e-22)
(0.870067 -2.05539 -5.12611e-21)
(0.471442 -4.73093 -2.18571e-20)
(0.404477 -4.34204 -1.95263e-20)
(0.387317 -4.02394 -2.39729e-20)
(0.384126 -3.76527 8.73191e-22)
(0.387598 -3.55464 1.39748e-21)
(0.398283 -3.38202 -2.7154e-20)
(0.41486 -3.23948 1.19455e-21)
(0.435826 -3.12068 3.48601e-21)
(0.460027 -3.02057 -5.93766e-22)
(0.48652 -2.93515 6.13443e-21)
(0.514514 -2.86122 -2.46592e-20)
(0.543358 -2.79629 -1.55936e-20)
(0.572524 -2.73837 5.78594e-21)
(0.60159 -2.68589 1.16897e-20)
(0.630219 -2.63764 -1.36737e-20)
(0.658148 -2.59265 -2.19824e-21)
(0.68518 -2.55019 -8.15341e-21)
(0.711166 -2.50966 -3.92486e-21)
(0.736004 -2.47062 6.53546e-21)
(0.759624 -2.43272 -8.45989e-21)
(0.781987 -2.39569 7.31142e-21)
(0.803079 -2.35931 -8.73345e-21)
(0.822901 -2.32341 -6.96409e-21)
(0.841471 -2.28785 -4.93637e-21)
(0.858814 -2.25248 5.75809e-21)
(0.874961 -2.21719 -1.03072e-20)
(0.889943 -2.18183 1.05126e-21)
(0.903806 -2.14627 1.86535e-21)
(0.916643 -2.11032 -5.42461e-21)
(0.928337 -2.07377 1.11357e-21)
(0.595313 -4.71952 -1.33197e-20)
(0.519202 -4.33808 1.84081e-21)
(0.494955 -4.02608 1.68426e-20)
(0.486282 -3.77288 1.7845e-20)
(0.485504 -3.56709 1.2741e-20)
(0.49286 -3.39863 5.22144e-21)
(0.506794 -3.25956 8.19284e-21)
(0.525615 -3.1436 3.81239e-20)
(0.548026 -3.04575 -2.28936e-20)
(0.572971 -2.96206 6.16837e-22)
(0.599577 -2.88939 5.53435e-21)
(0.627131 -2.8253 2.43119e-20)
(0.655059 -2.76785 -1.67514e-20)
(0.682904 -2.71554 1.21441e-20)
(0.710306 -2.66718 -1.36704e-20)
(0.73699 -2.62186 2.338e-20)
(0.762745 -2.57888 -7.01408e-21)
(0.787421 -2.53768 2.22248e-22)
(0.810911 -2.49785 1.14381e-20)
(0.833151 -2.45907 7.9919e-21)
(0.854102 -2.42108 -8.21634e-21)
(0.873754 -2.3837 1.1165e-20)
(0.892113 -2.34677 -5.17281e-21)
(0.909203 -2.31015 5.9169e-21)
(0.925052 -2.27373 6.54027e-21)
(0.939697 -2.2374 2.89176e-21)
(0.953169 -2.20101 8.85728e-21)
(0.965523 -2.16443 -3.10439e-21)
(0.97687 -2.12747 -1.11596e-21)
(0.987046 -2.08991 -5.12459e-21)
(0.718927 -4.70505 -9.8391e-21)
(0.634027 -4.33147 -6.48038e-21)
(0.603 -4.02587 -1.9509e-20)
(0.589119 -3.77831 -5.06243e-20)
(0.584327 -3.57749 1.71e-20)
(0.588553 -3.41325 1.0899e-21)
(0.599999 -3.27769 -1.17571e-20)
(0.616792 -3.16456 2.53759e-21)
(0.637494 -3.06895 -1.60396e-21)
(0.660943 -2.98694 -3.07892e-20)
(0.686185 -2.91548 1.30494e-20)
(0.712449 -2.85217 2.26343e-20)
(0.739118 -2.79514 1.37423e-22)
(0.765705 -2.74293 8.56207e-21)
(0.79183 -2.69442 2.12518e-20)
(0.817205 -2.64872 -1.4636e-20)
(0.841614 -2.60517 2.60446e-20)
(0.864903 -2.56327 -1.24149e-20)
(0.886968 -2.52261 2.24526e-20)
(0.907744 -2.48292 -1.67799e-20)
(0.927201 -2.44396 7.61236e-21)
(0.945332 -2.40557 2.00814e-20)
(0.96215 -2.3676 1.20032e-21)
(0.977682 -2.32995 -1.85775e-20)
(0.991966 -2.2925 1.03601e-20)
(1.00504 -2.25515 3.22662e-21)
(1.01694 -2.21777 -3.3514e-21)
(1.02772 -2.18022 1.30935e-20)
(1.03752 -2.14229 4.58152e-21)
(1.04613 -2.1038 -4.47208e-21)
(0.842215 -4.68749 2.74514e-20)
(0.748906 -4.32218 -1.09739e-21)
(0.711419 -4.02326 -4.03495e-20)
(0.69261 -3.78152 8.01412e-21)
(0.684042 -3.58577 -1.14321e-20)
(0.68533 -3.42581 8.30166e-21)
(0.69444 -3.29376 1.88229e-20)
(0.709316 -3.18347 3.44148e-20)
(0.728385 -3.09005 -3.74843e-20)
(0.750383 -3.00968 9.22794e-21)
(0.774278 -2.93937 -6.57605e-21)
(0.799245 -2.87679 4.91161e-21)
(0.824628 -2.82012 -2.14841e-20)
(0.849914 -2.76796 -1.28222e-21)
(0.874706 -2.71923 3.56406e-20)
(0.898707 -2.67311 -2.45033e-20)
(0.921696 -2.62896 -1.55258e-20)
(0.94352 -2.58631 -1.14512e-20)
(0.964077 -2.54481 2.12005e-20)
(0.983308 -2.50419 4.63924e-21)
(1.00119 -2.46426 -2.09152e-20)
(1.01772 -2.42485 2.82951e-20)
(1.03291 -2.38587 -2.54757e-20)
(1.04682 -2.34719 1.71433e-20)
(1.05946 -2.30874 -9.61688e-21)
(1.0709 -2.2704 3.06828e-21)
(1.08117 -2.23207 4.82262e-21)
(1.09033 -2.19359 -2.13404e-20)
(1.09853 -2.15477 9.31012e-21)
(1.10552 -2.1154 2.16617e-22)
(0.965104 -4.66685 -2.74135e-20)
(0.863788 -4.3102 2.24908e-20)
(0.820175 -4.0182 -4.19707e-20)
(0.796721 -3.78245 8.02749e-20)
(0.784615 -3.59187 -2.26197e-20)
(0.783156 -3.43623 3.24981e-20)
(0.790076 -3.3077 9.37843e-23)
(0.803142 -3.20021 -4.32816e-21)
(0.820648 -3.10895 -6.81283e-21)
(0.841231 -3.03017 -1.4441e-22)
(0.86379 -2.96096 -2.66468e-20)
(0.887446 -2.89904 1.37427e-20)
(0.911511 -2.84268 -1.69983e-20)
(0.935447 -2.79051 -1.32591e-21)
(0.958846 -2.74152 -4.83501e-20)
(0.981402 -2.69493 1.57611e-20)
(1.00289 -2.65015 9.41807e-21)
(1.02317 -2.60673 -1.0463e-20)
(1.04214 -2.56436 -1.20126e-21)
(1.05974 -2.52281 -1.66041e-20)
(1.07596 -2.4819 -6.02536e-21)
(1.09081 -2.44149 5.98525e-22)
(1.10431 -2.4015 -1.4783e-20)
(1.11651 -2.36183 -2.2013e-20)
(1.12745 -2.3224 8.93901e-22)
(1.13719 -2.28312 3.31476e-21)
(1.14577 -2.24388 7.06945e-21)
(1.15326 -2.20454 -1.75513e-20)
(1.15983 -2.16488 1.5e-20)
(1.16515 -2.12472 -2.93848e-20)
(1.08752 -4.64314 -6.94347e-20)
(0.978619 -4.2955 8.43349e-20)
(0.929222 -4.01067 -8.97633e-20)
(0.901412 -3.78104 -2.40597e-20)
(0.886006 -3.5957 -1.58475e-20)
(0.88199 -3.44441 -1.70502e-20)
(0.886861 -3.3194 -1.57083e-20)
(0.898217 -3.21468 -3.35511e-21)
(0.914223 -3.12554 -1.59878e-20)
(0.933423 -3.0483 -4.00596e-21)
(0.954648 -2.98012 2.78934e-20)
(0.976974 -2.91882 -1.59758e-20)
(0.999681 -2.8627 -1.95421e-20)
(1.02221 -2.81048 -3.31827e-20)
(1.04415 -2.76119 7.00072e-20)
(1.06519 -2.71409 -2.73067e-20)
(1.08511 -2.66864 1.02043e-20)
(1.10376 -2.62443 -3.84001e-20)
(1.12105 -2.58119 1.45956e-20)
(1.13694 -2.5387 -6.22975e-21)
(1.15142 -2.49681 7.6359e-21)
(1.16451 -2.45542 -2.92988e-21)
(1.17624 -2.41444 2.50542e-20)
(1.18666 -2.37381 -8.98753e-21)
(1.19584 -2.33344 2.46669e-20)
(1.20383 -2.29327 -5.05261e-20)
(1.21066 -2.25318 3.24675e-20)
(1.21644 -2.21304 9.01217e-21)
(1.22133 -2.17261 1.71238e-20)
(1.22495 -2.13173 -5.3501e-20)
(1.20939 -4.61635 1.10171e-19)
(1.09334 -4.27806 -2.13484e-20)
(1.03851 -4.0006 3.80786e-20)
(1.00664 -3.77723 -1.1267e-20)
(0.988172 -3.59721 3.92285e-20)
(0.981783 -3.45028 3.757e-20)
(0.984743 -3.32878 4.31931e-20)
(0.994484 -3.2268 -3.71511e-21)
(1.00905 -3.13972 -4.2055e-20)
(1.02689 -3.06396 6.19629e-20)
(1.04677 -2.99676 -5.05509e-21)
(1.06774 -2.93601 4.49453e-20)
(1.08905 -2.88008 1.6417e-20)
(1.11012 -2.82776 5.9461e-21)
(1.13053 -2.77812 1.02097e-20)
(1.14998 -2.73049 1.35354e-20)
(1.16823 -2.68435 2.29874e-20)
(1.18517 -2.63935 -6.6821e-21)
(1.2007 -2.59522 3.42745e-20)
(1.2148 -2.5518 1.60717e-20)
(1.22745 -2.50895 -3.37089e-20)
(1.2387 -2.4666 5.99335e-20)
(1.24859 -2.42467 -7.97441e-20)
(1.25718 -2.3831 7.62147e-20)
(1.26454 -2.34185 -2.5355e-20)
(1.27071 -2.30084 -1.04441e-20)
(1.27577 -2.25996 -2.88601e-21)
(1.27979 -2.21907 1.89486e-20)
(1.28297 -2.17795 6.95081e-21)
(1.28487 -2.13644 -8.49937e-21)
(1.33064 -4.5865 -6.407e-20)
(1.20789 -4.25786 6.32934e-20)
(1.148 -3.98797 -1.73087e-20)
(1.11235 -3.77097 5.02776e-20)
(1.09106 -3.59631 4.74154e-21)
(1.08248 -3.45375 1.12849e-20)
(1.08366 -3.33573 -8.78552e-20)
(1.09188 -3.23645 -1.53411e-20)
(1.10505 -3.15138 5.77081e-20)
(1.12154 -3.07705 4.50657e-20)
(1.14008 -3.01077 -7.67108e-20)
(1.15967 -2.95051 4.52749e-20)
(1.17952 -2.89473 -4.55887e-20)
(1.19907 -2.84226 3.21937e-20)
(1.21788 -2.79225 -5.34616e-20)
(1.23565 -2.74405 -4.04922e-20)
(1.25216 -2.6972 2.44623e-21)
(1.2673 -2.65139 -1.9023e-20)
(1.28099 -2.60639 3.39716e-20)
(1.2932 -2.56205 1.34276e-20)
(1.30396 -2.51827 -8.91095e-21)
(1.3133 -2.47497 -2.75201e-21)
(1.32128 -2.43213 1.07919e-20)
(1.32797 -2.38969 -3.58305e-20)
(1.33344 -2.3476 6.08249e-20)
(1.33777 -2.3058 -1.4721e-20)
(1.34099 -2.2642 -2.5581e-20)
(1.34322 -2.22265 5.40453e-20)
(1.34467 -2.18091 7.42571e-21)
(1.34482 -2.13886 -7.49937e-21)
(1.4512 -4.5536 1.64618e-21)
(1.32221 -4.23488 -3.51823e-20)
(1.25761 -3.97274 -3.32279e-20)
(1.2185 -3.76221 -5.40953e-20)
(1.19462 -3.59293 1.3814e-21)
(1.18403 -3.45475 -3.98469e-20)
(1.18356 -3.34018 4.73187e-20)
(1.19033 -3.24354 -4.0779e-21)
(1.20214 -3.16043 4.00224e-20)
(1.21731 -3.08746 -3.24651e-20)
(1.23449 -3.02204 -1.72898e-20)
(1.25264 -2.96223 9.44911e-21)
(1.27099 -2.90654 5.13815e-21)
(1.28895 -2.85389 -5.38348e-20)
(1.30608 -2.80347 3.21307e-20)
(1.32209 -2.75468 -1.64935e-20)
(1.33679 -2.70713 4.61949e-20)
(1.35004 -2.66051 -1.54462e-20)
(1.3618 -2.61464 1.64589e-20)
(1.37206 -2.5694 3.94748e-21)
(1.38084 -2.52471 2.81226e-20)
(1.38819 -2.48052 -5.76256e-21)
(1.3942 -2.4368 4.68317e-20)
(1.39893 -2.39353 -5.20375e-20)
(1.40247 -2.35067 -1.76374e-20)
(1.40489 -2.30815 1.46689e-20)
(1.40625 -2.2659 -1.3781e-21)
(1.40667 -2.22376 -4.08588e-20)
(1.40637 -2.18148 2.12694e-20)
(1.40476 -2.13898 -2.48808e-20)
(1.57098 -4.51765 1.10376e-19)
(1.43624 -4.20911 3.09375e-20)
(1.36731 -3.95487 3.61622e-20)
(1.32503 -3.75087 5.02584e-20)
(1.29879 -3.58702 7.52217e-20)
(1.28636 -3.45319 -1.7826e-21)
(1.28436 -3.34203 1.07647e-20)
(1.28975 -3.24799 8.75351e-20)
(1.30026 -3.16677 -1.77748e-20)
(1.3141 -3.0951 -3.25095e-20)
(1.32989 -3.03049 5.86982e-20)
(1.34658 -2.97106 1.02556e-20)
(1.36336 -2.91543 8.09931e-22)
(1.37965 -2.86256 1.42581e-20)
(1.39503 -2.8117 2.63194e-20)
(1.4092 -2.76233 -5.47015e-20)
(1.42199 -2.71406 4.68788e-20)
(1.43327 -2.66664 8.22588e-21)
(1.44302 -2.61993 4.6727e-20)
(1.45124 -2.57381 -2.51009e-20)
(1.45797 -2.52825 4.25188e-20)
(1.46327 -2.4832 -4.51927e-20)
(1.46724 -2.43867 4.4274e-20)
(1.46995 -2.39462 6.28297e-21)
(1.47152 -2.35105 -2.97837e-20)
(1.472 -2.30788 -9.91376e-21)
(1.47147 -2.26506 5.84573e-20)
(1.47005 -2.22241 -8.73161e-21)
(1.46798 -2.17968 1.15608e-20)
(1.46461 -2.13682 -7.94832e-21)
(1.68992 -4.47866 1.18629e-20)
(1.54991 -4.18053 2.72521e-20)
(1.47702 -3.93432 1.09099e-19)
(1.43186 -3.73692 -1.78295e-19)
(1.40351 -3.57849 -1.77917e-20)
(1.38941 -3.44898 -1.9001e-20)
(1.38599 -3.34119 8.82946e-21)
(1.39008 -3.24968 1.27054e-20)
(1.3993 -3.1703 2.04012e-20)
(1.41181 -3.09987 -5.43104e-20)
(1.42618 -3.03601 -1.0994e-20)
(1.44135 -2.97693 3.16862e-20)
(1.45651 -2.92131 3.46672e-20)
(1.47107 -2.86819 -3.41287e-20)
(1.48461 -2.81689 -3.42691e-20)
(1.49686 -2.76691 5.58983e-20)
(1.50765 -2.71793 3.72899e-20)
(1.51688 -2.66974 -9.06207e-21)
(1.52454 -2.6222 -2.38338e-20)
(1.53064 -2.57524 4.74468e-21)
(1.53524 -2.52884 -5.64764e-20)
(1.53843 -2.483 6.89436e-20)
(1.5403 -2.4377 -4.72549e-20)
(1.54095 -2.39295 -2.05404e-21)
(1.54049 -2.34873 3.18819e-20)
(1.539 -2.305 -9.82831e-21)
(1.53656 -2.26168 -3.00312e-20)
(1.53329 -2.21861 4.76137e-21)
(1.52944 -2.17552 -1.08318e-21)
(1.5243 -2.1324 6.55658e-21)
(1.80793 -4.43665 -8.08874e-21)
(1.66314 -4.14912 -2.76149e-20)
(1.58668 -3.91105 -1.26902e-19)
(1.53895 -3.72029 4.58828e-20)
(1.5087 -3.56728 -1.41344e-20)
(1.49309 -3.44207 4.75125e-20)
(1.48837 -3.33758 3.79157e-21)
(1.49122 -3.24855 -5.51915e-20)
(1.49917 -3.17094 8.51713e-20)
(1.51034 -3.10169 -7.71e-20)
(1.52327 -3.03852 -3.29143e-21)
(1.53687 -2.97973 1.94334e-20)
(1.55034 -2.9241 -3.31172e-20)
(1.56308 -2.87072 3.8888e-20)
(1.57471 -2.81896 -7.39742e-20)
(1.58495 -2.76838 -1.70475e-20)
(1.59365 -2.7187 4.5687e-20)
(1.60075 -2.66975 1.77642e-22)
(1.60623 -2.62141 -2.9387e-20)
(1.61014 -2.57366 8.07184e-20)
(1.61255 -2.52648 -4.34608e-20)
(1.61356 -2.47989 -5.86658e-20)
(1.61328 -2.43389 1.96049e-20)
(1.61182 -2.3885 -5.78079e-20)
(1.6093 -2.34372 -1.40861e-20)
(1.60581 -2.2995 -1.79824e-21)
(1.60143 -2.25577 -3.85626e-20)
(1.59629 -2.21237 4.6171e-20)
(1.59068 -2.16902 -1.65051e-20)
(1.58377 -2.12574 2.93014e-20)
(1.92495 -4.39164 -4.10748e-20)
(1.77588 -4.11488 -1.14237e-19)
(1.69623 -3.88504 5.57877e-20)
(1.64622 -3.70094 -5.41839e-20)
(1.6143 -3.55333 -3.95141e-20)
(1.59734 -3.43236 -2.32439e-20)
(1.59141 -3.33112 -8.67538e-20)
(1.59307 -3.2445 5.94965e-20)
(1.59978 -3.16859 -1.48438e-19)
(1.60959 -3.10046 -5.49247e-20)
(1.62104 -3.03794 1.95573e-20)
(1.63301 -2.97941 3.3246e-20)
(1.64471 -2.92373 -4.67976e-22)
(1.65557 -2.87007 -6.45276e-20)
(1.66519 -2.81784 1.52829e-20)
(1.67334 -2.76668 -6.0184e-20)
(1.67988 -2.71632 -4.35353e-20)
(1.68476 -2.66664 -2.64947e-20)
(1.68799 -2.61755 -5.34777e-21)
(1.68964 -2.56905 4.55073e-20)
(1.68979 -2.52114 6.54566e-20)
(1.68856 -2.47386 -1.97928e-20)
(1.68608 -2.42723 -1.95085e-20)
(1.68246 -2.38128 3.76536e-20)
(1.67785 -2.33601 2.08852e-20)
(1.67233 -2.29138 -1.67355e-20)
(1.666 -2.24734 -1.89111e-20)
(1.65899 -2.20371 2.16485e-21)
(1.6516 -2.16018 1.69204e-20)
(1.64295 -2.11685 -2.6349e-20)
(2.04089 -4.34364 -7.75223e-21)
(1.88804 -4.0778 1.46778e-19)
(1.80559 -3.85624 1.14121e-19)
(1.7536 -3.67882 8.87947e-20)
(1.72022 -3.53657 -5.82015e-20)
(1.70207 -3.41979 -1.16024e-20)
(1.69502 -3.32174 1.01996e-20)
(1.69555 -3.23746 7.66334e-20)
(1.70101 -3.16319 2.89214e-20)
(1.70945 -3.09612 7.07554e-20)
(1.71937 -3.03419 -1.00111e-19)
(1.72965 -2.97589 9.99679e-21)
(1.73952 -2.92014 4.12075e-20)
(1.74841 -2.86618 2.58697e-20)
(1.75595 -2.8135 5.41533e-20)
(1.76192 -2.76176 -3.70152e-20)
(1.76621 -2.71075 -3.45755e-20)
(1.7688 -2.66037 6.42863e-21)
(1.76971 -2.61058 7.52055e-20)
(1.76902 -2.56138 -1.21544e-19)
(1.76685 -2.51281 4.24957e-20)
(1.76332 -2.4649 -2.67552e-22)
(1.75859 -2.41772 8.16036e-20)
(1.75278 -2.37129 -3.52312e-20)
(1.74603 -2.32561 -1.91408e-21)
(1.73847 -2.28067 -2.28785e-20)
(1.73017 -2.2364 2.17972e-20)
(1.72129 -2.19264 5.34579e-21)
(1.71214 -2.14904 -2.44387e-20)
(1.70177 -2.10576 1.11427e-19)
(2.15568 -4.29267 -1.53034e-19)
(1.99957 -4.03786 -8.9728e-20)
(1.91469 -3.82464 -2.30598e-19)
(1.86101 -3.65387 -1.05969e-19)
(1.82639 -3.51695 9.9364e-20)
(1.80719 -3.4043 -5.90644e-20)
(1.79912 -3.30935 -1.51042e-20)
(1.79854 -3.22734 -3.97061e-20)
(1.80277 -3.15464 6.82944e-20)
(1.80981 -3.08858 -1.61435e-20)
(1.81814 -3.0272 -2.52449e-20)
(1.82668 -2.9691 -3.08021e-21)
(1.83463 -2.91326 -1.03691e-19)
(1.84147 -2.85901 -4.59722e-21)
(1.84685 -2.80588 2.75881e-20)
(1.85056 -2.75359 -3.45428e-21)
(1.85253 -2.70196 -1.09775e-19)
(1.85274 -2.65093 1.07388e-19)
(1.85125 -2.60048 -1.06265e-19)
(1.84817 -2.55064 4.1741e-20)
(1.84362 -2.50147 5.95901e-21)
(1.83774 -2.45302 2.28381e-21)
(1.83071 -2.40535 -4.48164e-20)
(1.82267 -2.35851 1.53261e-20)
(1.81377 -2.31252 -3.9561e-23)
(1.80414 -2.26736 5.11352e-21)
(1.79386 -2.22297 -1.14219e-19)
(1.78311 -2.17917 3.09186e-20)
(1.77222 -2.13562 3.33847e-20)
(1.76014 -2.0925 3.62181e-20)
(2.26925 -4.23876 3.00555e-19)
(2.11038 -3.99506 1.03871e-19)
(2.02347 -3.7902 6.14217e-20)
(1.96838 -3.62607 9.74173e-20)
(1.93273 -3.49441 -1.20521e-20)
(1.91262 -3.38581 7.48166e-20)
(1.90359 -3.2939 1.67209e-19)
(1.90194 -3.21407 -2.10075e-20)
(1.90493 -3.14288 1.02377e-20)
(1.91053 -3.07778 2.02082e-19)
(1.91724 -3.01691 -2.67096e-20)
(1.92396 -2.95898 2.88685e-20)
(1.92993 -2.90305 -1.07814e-20)
(1.93464 -2.84851 -1.37403e-21)
(1.93777 -2.79495 1.51026e-19)
(1.93914 -2.74213 5.78353e-21)
(1.9387 -2.68992 1.62842e-19)
(1.93647 -2.63829 -2.02371e-20)
(1.93252 -2.58725 -3.57578e-20)
(1.92697 -2.53683 8.37635e-20)
(1.91998 -2.48713 -7.68321e-20)
(1.91172 -2.4382 8.4733e-20)
(1.90234 -2.39013 4.59601e-20)
(1.89203 -2.34298 -3.73484e-20)
(1.88095 -2.29676 5.71987e-20)
(1.86924 -2.25147 6.8701e-21)
(1.85698 -2.20705 -2.42406e-20)
(1.84437 -2.16333 1.29915e-20)
(1.83174 -2.11992 8.67815e-20)
(1.81799 -2.07708 1.29966e-20)
(2.38151 -4.18192 -5.1784e-20)
(2.2204 -3.9494 -1.05436e-19)
(2.13183 -3.7529 4.41316e-20)
(2.07563 -3.59536 -1.76013e-19)
(2.03915 -3.4689 8.44935e-20)
(2.01824 -3.36427 -1.55353e-19)
(2.00834 -3.27531 -1.03091e-19)
(2.00565 -3.1976 2.90144e-20)
(2.00738 -3.12785 2.92395e-20)
(2.01151 -3.06365 -1.40478e-19)
(2.01653 -3.00327 -6.1279e-20)
(2.02137 -2.94548 2.86653e-20)
(2.02528 -2.88945 -7.8718e-20)
(2.02778 -2.83463 -3.15626e-20)
(2.02858 -2.78067 -2.13343e-20)
(2.02754 -2.72736 -2.14238e-20)
(2.02462 -2.67462 -9.10763e-20)
(2.01987 -2.62244 -5.73478e-20)
(2.01339 -2.57086 1.02233e-20)
(2.00533 -2.51994 1.88866e-20)
(1.99585 -2.46978 2.04046e-20)
(1.98514 -2.42046 -7.03635e-20)
(1.97339 -2.37207 2.66667e-20)
(1.96078 -2.32467 -5.5e-20)
(1.9475 -2.27831 5.21982e-20)
(1.93368 -2.23299 -6.85705e-20)
(1.91943 -2.18866 2.17269e-20)
(1.90496 -2.14512 -3.38807e-20)
(1.89062 -2.10197 -4.84224e-20)
(1.87523 -2.05952 -4.74518e-21)
(2.49238 -4.12218 -1.10773e-19)
(2.32955 -3.90087 -9.6368e-20)
(2.23972 -3.71271 -9.44952e-20)
(2.18268 -3.56172 -7.081e-20)
(2.14555 -3.44036 2.17957e-19)
(2.12398 -3.33961 3.09865e-20)
(2.11326 -3.25351 9.45104e-20)
(2.10953 -3.17785 1.45482e-19)
(2.11 -3.10949 7.05271e-20)
(2.11262 -3.04614 -9.39997e-20)
(2.11589 -2.98621 1.52885e-19)
(2.11877 -2.92856 -1.49014e-19)
(2.12055 -2.87244 1.41862e-19)
(2.12076 -2.81736 1.70156e-20)
(2.11916 -2.76302 3.65948e-20)
(2.11562 -2.70926 1.21487e-20)
(2.11015 -2.65605 1.4937e-19)
(2.10282 -2.60338 -2.22589e-20)
(2.09376 -2.55133 2.02333e-20)
(2.08313 -2.49998 6.8055e-20)
(2.07111 -2.44943 -7.61632e-20)
(2.05792 -2.39979 6.10032e-20)
(2.04376 -2.35115 2.48181e-21)
(2.02882 -2.30361 2.78761e-20)
(2.0133 -2.2572 5.11766e-20)
(1.99736 -2.21194 -8.67513e-21)
(1.98112 -2.16779 5.0856e-20)
(1.96479 -2.12455 7.39696e-20)
(1.94876 -2.08177 -8.02787e-20)
(1.93178 -2.03984 -4.77467e-20)
(2.6018 -4.05957 3.26648e-19)
(2.43776 -3.84949 -3.61267e-20)
(2.34704 -3.66964 7.40236e-20)
(2.28944 -3.52509 1.35933e-19)
(2.25186 -3.40876 -3.93865e-19)
(2.22972 -3.31179 4.31895e-20)
(2.21823 -3.22847 -1.51535e-19)
(2.21349 -3.15477 1.5322e-19)
(2.21266 -3.08773 -1.22212e-19)
(2.21372 -3.02521 6.62338e-20)
(2.21519 -2.96571 -2.41735e-19)
(2.21605 -2.90819 6.79702e-21)
(2.21561 -2.85198 -8.10442e-20)
(2.21346 -2.79666 1.23257e-19)
(2.20938 -2.74198 -1.3126e-19)
(2.20328 -2.68783 -6.85098e-21)
(2.1952 -2.63419 -1.07479e-19)
(2.18523 -2.58111 -9.16385e-21)
(2.17352 -2.52865 9.18139e-21)
(2.16027 -2.47694 2.41647e-20)
(2.14568 -2.42608 -1.36702e-19)
(2.12997 -2.3762 -4.21458e-21)
(2.11336 -2.3274 -7.69041e-20)
(2.09606 -2.27979 -1.78974e-20)
(2.07829 -2.23341 -4.73821e-20)
(2.06021 -2.18831 -5.198e-20)
(2.04196 -2.14444 -5.44356e-20)
(2.02378 -2.1016 9.01167e-20)
(2.00608 -2.05933 2.43407e-20)
(1.98753 -2.01805 -4.64544e-20)
(2.70969 -3.99411 -2.18023e-19)
(2.54497 -3.79525 7.98101e-20)
(2.45374 -3.62364 -1.36832e-19)
(2.39583 -3.48547 2.01956e-20)
(2.35796 -3.37404 2.25212e-19)
(2.33536 -3.28075 -1.14543e-19)
(2.32315 -3.20012 -1.22306e-19)
(2.31738 -3.12832 -1.03863e-19)
(2.31524 -3.06255 4.72209e-21)
(2.31469 -3.00081 6.7357e-20)
(2.31429 -2.94171 -4.93062e-20)
(2.31305 -2.88433 1.85147e-21)
(2.31033 -2.82805 1.54984e-19)
(2.30575 -2.77253 -7.87842e-20)
(2.29911 -2.71755 2.09221e-20)
(2.29039 -2.66306 -6.44763e-20)
(2.27963 -2.60906 2.47337e-20)
(2.26696 -2.55562 5.35273e-20)
(2.25257 -2.50284 6.14186e-20)
(2.23666 -2.45085 -6.72906e-20)
(2.21946 -2.39976 9.52432e-21)
(2.20119 -2.34971 5.81548e-20)
(2.1821 -2.30083 1.01101e-19)
(2.16242 -2.25322 2.71536e-20)
(2.14236 -2.20695 -1.05127e-19)
(2.12213 -2.16208 1.22693e-19)
(2.10186 -2.11859 -6.15449e-20)
(2.08182 -2.07627 -7.38462e-20)
(2.06245 -2.03462 -4.5371e-20)
(2.04239 -1.99412 -6.02443e-20)
(2.81597 -3.92585 1.1701e-19)
(2.65109 -3.73816 -9.22364e-20)
(2.55974 -3.57473 3.52806e-20)
(2.50178 -3.4428 1.88347e-19)
(2.46377 -3.33616 5.17513e-20)
(2.44079 -3.24645 -4.42755e-20)
(2.42788 -3.16841 1.07647e-19)
(2.42108 -3.09843 2.49382e-20)
(2.41759 -3.03388 1.03636e-19)
(2.41538 -2.9729 5.72206e-20)
(2.41305 -2.91421 2.73364e-21)
(2.40965 -2.85696 3.65209e-20)
(2.40458 -2.80064 -1.15508e-20)
(2.39749 -2.74495 2.02443e-20)
(2.38824 -2.68973 5.70604e-20)
(2.37682 -2.63495 -3.14319e-20)
(2.36333 -2.58066 7.83567e-20)
(2.34793 -2.52695 7.98588e-20)
(2.33081 -2.47392 -9.12378e-20)
(2.31221 -2.42172 9.40643e-20)
(2.29236 -2.37048 2.00827e-19)
(2.27152 -2.32034 -1.30143e-19)
(2.24993 -2.27144 1.31582e-19)
(2.22783 -2.2239 -9.21412e-20)
(2.20547 -2.17781 -1.32209e-20)
(2.18305 -2.13324 1.00045e-19)
(2.16073 -2.0902 -2.02298e-20)
(2.13881 -2.0485 7.55258e-20)
(2.11779 -2.0076 7.53762e-20)
(2.09624 -1.96803 -1.45516e-19)
(2.92058 -3.8548 -1.13105e-19)
(2.75609 -3.67825 5.28961e-20)
(2.66497 -3.52287 2.16522e-20)
(2.6072 -3.39705 -2.21667e-19)
(2.56918 -3.29508 -1.15643e-19)
(2.54588 -3.20883 8.75055e-20)
(2.5323 -3.1333 -2.44919e-19)
(2.52447 -3.06508 2.97784e-19)
(2.51958 -3.00171 -1.67902e-19)
(2.51567 -2.94146 2.00294e-20)
(2.51135 -2.88317 -3.16357e-20)
(2.50571 -2.82608 -9.77768e-20)
(2.49821 -2.76975 2.03507e-19)
(2.48855 -2.71393 7.75964e-20)
(2.47663 -2.65852 -8.01428e-20)
(2.46247 -2.60353 2.378e-21)
(2.44621 -2.54902 4.54622e-20)
(2.42802 -2.49511 -9.8433e-20)
(2.40815 -2.44191 2.10358e-20)
(2.38682 -2.38958 6.8887e-20)
(2.36432 -2.33827 -2.84437e-20)
(2.34088 -2.28811 4.77978e-20)
(2.31677 -2.23925 -9.4197e-20)
(2.29224 -2.19183 1.37118e-19)
(2.26755 -2.14597 3.23559e-20)
(2.24291 -2.10175 -8.72389e-20)
(2.21851 -2.05923 -7.58699e-20)
(2.19468 -2.01823 2.04666e-22)
(2.17199 -1.97819 1.0534e-19)
(2.14898 -1.9397 -2.45784e-20)
(3.02346 -3.78101 -3.10121e-20)
(2.8599 -3.61552 -2.22246e-19)
(2.76939 -3.46805 2.65559e-19)
(2.71199 -3.3482 1.80877e-19)
(2.67409 -3.25075 1.81971e-19)
(2.65052 -3.16786 5.1539e-20)
(2.63628 -3.09476 7.72186e-20)
(2.62739 -3.02824 3.99016e-20)
(2.62108 -2.96601 -1.57792e-19)
(2.6154 -2.90648 2.90418e-19)
(2.60902 -2.84859 -2.36208e-19)
(2.60109 -2.79168 -1.56622e-20)
(2.59111 -2.73537 3.49808e-20)
(2.57881 -2.67948 -1.55483e-19)
(2.56416 -2.62395 1.36542e-19)
(2.54721 -2.56881 -4.08379e-20)
(2.52813 -2.51416 -1.05592e-19)
(2.50714 -2.46013 4.11155e-20)
(2.48449 -2.40685 -7.89821e-20)
(2.46043 -2.35448 -6.99831e-20)
(2.43525 -2.30316 -7.52953e-20)
(2.40921 -2.25305 1.71217e-20)
(2.38258 -2.2043 1.01106e-20)
(2.35562 -2.15705 -1.86325e-19)
(2.32857 -2.11143 -7.12189e-20)
(2.30168 -2.06758 4.59047e-20)
(2.27515 -2.0256 5.72431e-20)
(2.24936 -1.98535 -7.9019e-20)
(2.22495 -1.94625 -3.02109e-20)
(2.20048 -1.90899 2.93755e-21)
(3.1246 -3.7045 -2.7025e-20)
(2.96252 -3.54997 1.43845e-19)
(2.87292 -3.41023 -4.08303e-20)
(2.81607 -3.29619 -5.01999e-20)
(2.77836 -3.20314 -2.83721e-19)
(2.75458 -3.1235 -6.26871e-20)
(2.73968 -3.05275 1.20306e-19)
(2.72972 -2.98788 -7.96568e-20)
(2.72194 -2.92676 -8.521e-21)
(2.71444 -2.86794 -1.5776e-20)
(2.70595 -2.81046 8.94422e-20)
(2.69566 -2.75376 -1.42065e-19)
(2.68312 -2.69752 -9.56177e-20)
(2.66814 -2.64162 1.12708e-19)
(2.65071 -2.58603 -6.46028e-20)
(2.63093 -2.53083 -7.8106e-20)
(2.60901 -2.47613 1.67564e-19)
(2.58519 -2.42206 -2.63385e-20)
(2.55974 -2.36879 9.96462e-20)
(2.53296 -2.31645 -9.14938e-20)
(2.50511 -2.26521 -7.42727e-20)
(2.47648 -2.21522 6.47136e-20)
(2.44734 -2.16662 -7.24833e-21)
(2.41794 -2.11957 -4.87653e-20)
(2.38855 -2.07422 4.30159e-20)
(2.35939 -2.03072 -1.34588e-19)
(2.33069 -1.98923 8.21483e-20)
(2.30285 -1.94972 -1.27923e-21)
(2.27666 -1.91161 -8.62806e-20)
(2.25072 -1.87564 1.26244e-19)
(3.22408 -3.62533 1.12265e-19)
(3.06397 -3.48161 -2.84655e-19)
(2.97551 -3.34939 -2.38811e-20)
(2.91933 -3.24097 1.34444e-19)
(2.88188 -3.15219 -3.50563e-20)
(2.8579 -3.07572 -9.90413e-20)
(2.84235 -3.00724 4.6785e-20)
(2.83129 -2.94398 5.42604e-20)
(2.822 -2.88396 4.68546e-21)
(2.81264 -2.82584 6.72615e-20)
(2.80197 -2.76879 2.15748e-19)
(2.78927 -2.71234 -7.60573e-20)
(2.77413 -2.65623 1.98298e-20)
(2.75641 -2.60038 -5.17062e-20)
(2.73615 -2.54481 1.98894e-19)
(2.71352 -2.48963 -3.58153e-20)
(2.68873 -2.43496 1.191e-19)
(2.66207 -2.38096 -4.63447e-20)
(2.63383 -2.32778 5.00934e-20)
(2.60432 -2.27557 7.58988e-20)
(2.57383 -2.22449 1.30452e-20)
(2.54264 -2.17469 5.13368e-20)
(2.51102 -2.1263 -4.26041e-20)
(2.47922 -2.07947 1.18923e-19)
(2.4475 -2.03436 -4.8717e-20)
(2.41608 -1.99115 1.78963e-19)
(2.38517 -1.95007 -5.17236e-20)
(2.35521 -1.91116 3.57576e-20)
(2.32713 -1.87391 -6.75736e-20)
(2.29974 -1.83926 1.23274e-19)
(3.32226 -3.54363 -2.4797e-19)
(3.16437 -3.41039 9.01066e-21)
(3.07707 -3.28541 -1.47746e-19)
(3.0216 -3.18247 2.70728e-20)
(2.98447 -3.09787 7.52323e-21)
(2.96034 -3.02448 -1.32411e-19)
(2.94414 -2.95824 -2.49646e-19)
(2.93196 -2.89654 1.25258e-19)
(2.92113 -2.83759 -1.78239e-19)
(2.90985 -2.78019 -9.4518e-20)
(2.89695 -2.7236 -5.41453e-20)
(2.88177 -2.66744 -4.38642e-20)
(2.86398 -2.61151 1.26941e-21)
(2.84348 -2.55579 -1.56897e-19)
(2.82037 -2.50033 1.03781e-19)
(2.79485 -2.44526 -1.70302e-19)
(2.76718 -2.39072 -4.32232e-20)
(2.73768 -2.33688 4.72202e-20)
(2.70667 -2.28389 5.95802e-20)
(2.67445 -2.23191 5.96803e-20)
(2.64135 -2.18109 4.5798e-20)
(2.60764 -2.13155 -1.14998e-19)
(2.57361 -2.08343 1.16331e-19)
(2.53949 -2.03686 -1.23871e-20)
(2.50551 -1.99198 -3.13496e-20)
(2.47187 -1.94896 -1.24464e-19)
(2.43875 -1.90806 -6.62074e-20)
(2.40654 -1.86934 1.22743e-19)
(2.37628 -1.83246 -4.01619e-20)
(2.34715 -1.79919 -4.02296e-20)
(3.41961 -3.45906 1.07844e-19)
(3.26373 -3.33587 9.77671e-21)
(3.17743 -3.21809 -2.92263e-20)
(3.1227 -3.12062 -6.38075e-21)
(3.08596 -3.04016 -5.31163e-20)
(3.06173 -2.96981 1.78931e-19)
(3.0449 -2.90574 -8.46758e-20)
(3.03159 -2.84558 5.54712e-20)
(3.01918 -2.78769 2.31324e-20)
(3.00593 -2.73102 8.40298e-20)
(2.99075 -2.67493 -3.27572e-20)
(2.97305 -2.6191 1.85099e-19)
(2.95255 -2.56343 -1.60511e-20)
(2.92923 -2.50791 1.21256e-19)
(2.90324 -2.45265 -2.04262e-19)
(2.87481 -2.39778 -1.57267e-20)
(2.84426 -2.34348 1.33038e-19)
(2.81193 -2.2899 -8.27936e-20)
(2.77815 -2.23722 -5.83803e-20)
(2.74327 -2.18557 -1.00722e-19)
(2.7076 -2.1351 -8.87261e-20)
(2.67146 -2.08593 9.53093e-20)
(2.6351 -2.03818 -8.98878e-20)
(2.59878 -1.99194 1.96888e-20)
(2.56273 -1.94731 7.29242e-20)
(2.52711 -1.90443 5.06035e-20)
(2.49207 -1.8634 4.81551e-20)
(2.45781 -1.8242 3.54887e-20)
(2.42488 -1.78689 -9.59051e-20)
(2.3929 -1.75454 -3.96157e-20)
(5.01191 -0.0291492 1.59339e-21)
(5.00441 -0.160973 1.57897e-20)
(4.99378 -0.291834 5.48119e-20)
(4.98001 -0.42201 2.99689e-20)
(4.96288 -0.551561 -6.3366e-20)
(4.94233 -0.680451 1.91898e-20)
(4.91836 -0.808614 -2.01001e-20)
(4.89101 -0.935972 -5.07568e-20)
(4.86028 -1.06244 1.29291e-19)
(4.82622 -1.18792 -3.08232e-20)
(4.78886 -1.31234 -3.10896e-20)
(4.74824 -1.4356 -6.56846e-20)
(4.7044 -1.55762 -1.88088e-19)
(4.65738 -1.67831 1.74209e-20)
(4.60723 -1.7976 -8.46688e-21)
(4.55399 -1.91541 -5.86315e-20)
(4.49772 -2.03164 1.2565e-19)
(4.43846 -2.14624 6.80758e-20)
(4.37627 -2.25913 1.30122e-19)
(4.31119 -2.37022 6.34755e-20)
(4.2433 -2.47945 -1.41993e-19)
(4.17264 -2.58676 5.71596e-21)
(4.09927 -2.69208 -2.6755e-19)
(4.02326 -2.79533 4.05846e-19)
(3.94467 -2.89648 -1.32994e-19)
(3.86356 -2.99545 -1.71225e-19)
(3.78001 -3.09221 -2.39948e-20)
(3.69408 -3.18673 -1.41298e-21)
(3.60589 -3.27909 -1.28286e-19)
(3.51538 -3.36966 2.28241e-19)
(5.03721 -0.0583746 6.45543e-21)
(5.02402 -0.190292 9.53588e-21)
(5.00713 -0.32111 2.374e-21)