/*--------------------------------*- C++ -*----------------------------------*\
  =========                 |
  \\      /  F ield         | OpenFOAM: The Open Source CFD Toolbox
   \\    /   O peration     | Website:  https://openfoam.org
    \\  /    A nd           | Version:  6.0
     \\/     M anipulation  |
\*---------------------------------------------------------------------------*/
FoamFile
{
    version     2.0;
    format      ascii;
    class       volScalarField;
    location    "3.752";
    object      p;
}
// * * * * * * * * * * * * * * * * * * * * * * * * * * * * * * * * * * * * * //

dimensions      [0 2 -2 0 0 0 0];

internalField   nonuniform List<scalar> 
19200
(
-0.431541
-0.426405
-0.422597
-0.419418
-0.416466
-0.413713
-0.411114
-0.408615
-0.406181
-0.403789
-0.401421
-0.399067
-0.39672
-0.394376
-0.392035
-0.389696
-0.387362
-0.385032
-0.382711
-0.380399
-0.378099
-0.375813
-0.373544
-0.371295
-0.369068
-0.366868
-0.364692
-0.362477
-0.360208
-0.358531
-0.437796
-0.432417
-0.428493
-0.425216
-0.422158
-0.419293
-0.416576
-0.413955
-0.411396
-0.408877
-0.406381
-0.403901
-0.401428
-0.398961
-0.396499
-0.394042
-0.391592
-0.389152
-0.386724
-0.384311
-0.381914
-0.379537
-0.377182
-0.374852
-0.37255
-0.370282
-0.368044
-0.365764
-0.363412
-0.361772
-0.444662
-0.438949
-0.434842
-0.43143
-0.428239
-0.425238
-0.422384
-0.419623
-0.416923
-0.414261
-0.411624
-0.409002
-0.40639
-0.403786
-0.401189
-0.398601
-0.396025
-0.393462
-0.390916
-0.38839
-0.385886
-0.383408
-0.380957
-0.378537
-0.376151
-0.373807
-0.371503
-0.369148
-0.366702
-0.365112
-0.45192
-0.445932
-0.441637
-0.438067
-0.43472
-0.431563
-0.428551
-0.425632
-0.422773
-0.419952
-0.417157
-0.414378
-0.411611
-0.408855
-0.406109
-0.403377
-0.40066
-0.397962
-0.395286
-0.392635
-0.390013
-0.387422
-0.384867
-0.382346
-0.379866
-0.377439
-0.37506
-0.372624
-0.370074
-0.368546
-0.459612
-0.453362
-0.44887
-0.445124
-0.4416
-0.438267
-0.435079
-0.431984
-0.428948
-0.425952
-0.422982
-0.42003
-0.417093
-0.41417
-0.411262
-0.408372
-0.405501
-0.402654
-0.399835
-0.397048
-0.394296
-0.391583
-0.38891
-0.386282
-0.383698
-0.381177
-0.378716
-0.376188
-0.373523
-0.372072
-0.467762
-0.461245
-0.456541
-0.4526
-0.448881
-0.445354
-0.441972
-0.438682
-0.435453
-0.432264
-0.429103
-0.425963
-0.422841
-0.419737
-0.416651
-0.413588
-0.410549
-0.40754
-0.404565
-0.401628
-0.398733
-0.395885
-0.393087
-0.390338
-0.387644
-0.385021
-0.38247
-0.379841
-0.377048
-0.375686
-0.476381
-0.469583
-0.464652
-0.4605
-0.456568
-0.452828
-0.449234
-0.445732
-0.442292
-0.438894
-0.435526
-0.432181
-0.428859
-0.425557
-0.422279
-0.419028
-0.415808
-0.412622
-0.409477
-0.406376
-0.403324
-0.400327
-0.397389
-0.394509
-0.391695
-0.388962
-0.386312
-0.383575
-0.380643
-0.379382
-0.485476
-0.478381
-0.473206
-0.468826
-0.464664
-0.460693
-0.456868
-0.453137
-0.449469
-0.445844
-0.442252
-0.438688
-0.435149
-0.431635
-0.42815
-0.424696
-0.421279
-0.417902
-0.414572
-0.411293
-0.408072
-0.404912
-0.401821
-0.398798
-0.395848
-0.392995
-0.390238
-0.38738
-0.384299
-0.383152
-0.495052
-0.487642
-0.482207
-0.477582
-0.473172
-0.468952
-0.464878
-0.4609
-0.456986
-0.453118
-0.449287
-0.445486
-0.441715
-0.437974
-0.434266
-0.430595
-0.426966
-0.423384
-0.419855
-0.416384
-0.412979
-0.409644
-0.406386
-0.403206
-0.400112
-0.397124
-0.394248
-0.391257
-0.388013
-0.386991
-0.505115
-0.497371
-0.491659
-0.486772
-0.482094
-0.477607
-0.473267
-0.469024
-0.464848
-0.46072
-0.456632
-0.45258
-0.448561
-0.444577
-0.440632
-0.436728
-0.432873
-0.429071
-0.425328
-0.421651
-0.418047
-0.414522
-0.411084
-0.407735
-0.404482
-0.40135
-0.398342
-0.395208
-0.391783
-0.390898
-0.51567
-0.507573
-0.501566
-0.496398
-0.491435
-0.486662
-0.482038
-0.477513
-0.473057
-0.468653
-0.464293
-0.459972
-0.455691
-0.451449
-0.447251
-0.443101
-0.439005
-0.434968
-0.430996
-0.427098
-0.42328
-0.419549
-0.415914
-0.412382
-0.408956
-0.405671
-0.40252
-0.399227
-0.395608
-0.394866
-0.526722
-0.518251
-0.51193
-0.506464
-0.501198
-0.496121
-0.491195
-0.486369
-0.481616
-0.47692
-0.472272
-0.467668
-0.463109
-0.458595
-0.45413
-0.449719
-0.445367
-0.441081
-0.436866
-0.432731
-0.428684
-0.424732
-0.420885
-0.41715
-0.413538
-0.410081
-0.406779
-0.403312
-0.399483
-0.398892
-0.538275
-0.52941
-0.522757
-0.516973
-0.511385
-0.505986
-0.500739
-0.495596
-0.49053
-0.485525
-0.480573
-0.475672
-0.47082
-0.46602
-0.461275
-0.456589
-0.451967
-0.447417
-0.442944
-0.438557
-0.434265
-0.430076
-0.426
-0.422047
-0.41823
-0.414586
-0.411119
-0.407463
-0.403406
-0.402976
-0.550334
-0.541054
-0.534049
-0.52793
-0.522
-0.516259
-0.510674
-0.505197
-0.499801
-0.494472
-0.489202
-0.483989
-0.478831
-0.473731
-0.468692
-0.463717
-0.458813
-0.453984
-0.449239
-0.444584
-0.440031
-0.435588
-0.431266
-0.427076
-0.423035
-0.419188
-0.415535
-0.411677
-0.407371
-0.407111
-0.562904
-0.553186
-0.54581
-0.539335
-0.533045
-0.526945
-0.521004
-0.515175
-0.509433
-0.503765
-0.498163
-0.492624
-0.487148
-0.481735
-0.476389
-0.471113
-0.465912
-0.460791
-0.455759
-0.450822
-0.445991
-0.441276
-0.436691
-0.432245
-0.42796
-0.423889
-0.420031
-0.415955
-0.411382
-0.411292
-0.575989
-0.565809
-0.558042
-0.551192
-0.544523
-0.538044
-0.53173
-0.525534
-0.519431
-0.513409
-0.507461
-0.501584
-0.495777
-0.490039
-0.484375
-0.478785
-0.473275
-0.467849
-0.462514
-0.457279
-0.452154
-0.44715
-0.44228
-0.437558
-0.433007
-0.428688
-0.424607
-0.420285
-0.415431
-0.415509
-0.589593
-0.578928
-0.570747
-0.563503
-0.556435
-0.549561
-0.542856
-0.536276
-0.529798
-0.523409
-0.517103
-0.510875
-0.504725
-0.498652
-0.492657
-0.486742
-0.48091
-0.475167
-0.469517
-0.463968
-0.45853
-0.453217
-0.448042
-0.44302
-0.438177
-0.433582
-0.429246
-0.424649
-0.419477
-0.419728
-0.603719
-0.592543
-0.583928
-0.57627
-0.568785
-0.561496
-0.554384
-0.547406
-0.540539
-0.53377
-0.527093
-0.520503
-0.514
-0.50758
-0.501244
-0.494994
-0.48883
-0.482757
-0.476777
-0.4709
-0.465133
-0.45949
-0.453987
-0.44864
-0.443477
-0.438573
-0.433946
-0.429038
-0.423505
-0.423917
-0.61837
-0.606656
-0.597585
-0.589493
-0.581572
-0.573852
-0.566317
-0.558926
-0.551656
-0.544495
-0.537436
-0.530475
-0.523607
-0.516832
-0.510147
-0.503551
-0.497045
-0.49063
-0.484309
-0.478088
-0.471975
-0.465983
-0.460128
-0.454428
-0.448914
-0.44367
-0.438716
-0.433453
-0.427516
-0.428065
-0.633546
-0.621266
-0.611717
-0.603172
-0.594796
-0.586628
-0.578655
-0.570837
-0.563152
-0.555588
-0.548137
-0.540794
-0.533555
-0.526415
-0.519372
-0.512423
-0.505567
-0.4988
-0.492126
-0.485548
-0.479072
-0.47271
-0.466479
-0.460396
-0.454495
-0.44887
-0.443547
-0.437881
-0.431487
-0.432144
-0.649246
-0.636372
-0.626322
-0.617304
-0.608455
-0.599823
-0.591398
-0.58314
-0.575028
-0.56705
-0.559198
-0.551465
-0.543846
-0.536336
-0.528929
-0.52162
-0.514405
-0.50728
-0.500244
-0.493296
-0.486441
-0.479689
-0.473055
-0.466555
-0.460228
-0.454174
-0.448426
-0.442296
-0.435377
-0.436095
-0.665465
-0.651968
-0.641395
-0.631885
-0.622546
-0.613434
-0.604543
-0.595833
-0.587283
-0.578882
-0.57062
-0.562491
-0.554486
-0.546599
-0.538824
-0.531151
-0.523573
-0.516084
-0.508678
-0.501351
-0.494104
-0.486942
-0.479877
-0.472925
-0.466123
-0.459582
-0.45334
-0.446667
-0.439132
-0.439839
-0.682197
-0.66805
-0.65693
-0.646909
-0.637062
-0.627454
-0.618084
-0.608911
-0.599914
-0.591081
-0.582403
-0.573871
-0.565476
-0.557211
-0.549064
-0.541025
-0.533084
-0.525228
-0.517449
-0.509737
-0.502087
-0.494497
-0.486975
-0.479531
-0.472202
-0.465102
-0.458277
-0.450953
-0.442677
-0.443263
-0.699436
-0.684606
-0.672916
-0.662363
-0.651992
-0.641876
-0.632014
-0.622368
-0.612915
-0.603644
-0.594544
-0.585605
-0.576818
-0.568172
-0.559654
-0.551251
-0.542949
-0.53473
-0.52658
-0.518482
-0.510423
-0.502395
-0.494393
-0.486419
-0.478501
-0.470758
-0.463238
-0.455119
-0.44592
-0.446216
-0.717172
-0.701624
-0.689339
-0.678237
-0.667326
-0.656687
-0.646324
-0.636195
-0.62628
-0.616564
-0.607039
-0.597691
-0.588512
-0.579486
-0.570601
-0.561839
-0.553182
-0.544609
-0.536096
-0.527621
-0.519159
-0.51069
-0.502195
-0.493659
-0.485094
-0.476612
-0.468255
-0.45914
-0.448747
-0.448477
-0.735394
-0.719086
-0.70618
-0.694511
-0.683045
-0.671873
-0.660999
-0.650381
-0.639997
-0.629834
-0.61988
-0.610124
-0.600553
-0.591153
-0.581906
-0.572795
-0.563796
-0.554883
-0.546027
-0.537196
-0.528353
-0.519461
-0.51048
-0.50137
-0.492113
-0.482793
-0.473428
-0.463045
-0.451045
-0.449765
-0.754094
-0.73697
-0.723415
-0.711163
-0.699132
-0.687417
-0.676024
-0.664912
-0.654055
-0.643442
-0.633059
-0.622895
-0.612936
-0.603166
-0.593568
-0.58412
-0.574798
-0.565571
-0.556404
-0.547255
-0.538077
-0.528813
-0.519397
-0.509751
-0.499809
-0.489601
-0.479092
-0.467155
-0.452986
-0.44996
-0.773297
-0.755253
-0.741013
-0.728165
-0.71556
-0.703297
-0.691382
-0.679771
-0.668439
-0.657374
-0.646562
-0.635992
-0.625648
-0.615516
-0.605577
-0.59581
-0.586189
-0.576681
-0.567248
-0.557844
-0.548409
-0.538869
-0.529129
-0.519063
-0.508536
-0.497493
-0.485804
-0.47204
-0.454718
-0.448226
-0.793053
-0.773901
-0.758925
-0.745478
-0.732301
-0.71949
-0.707052
-0.694941
-0.683133
-0.671615
-0.660375
-0.649399
-0.638676
-0.628188
-0.61792
-0.607852
-0.597958
-0.58821
-0.578572
-0.568995
-0.559418
-0.549753
-0.53988
-0.529615
-0.518711
-0.50695
-0.493916
-0.47733
-0.453787
-0.439054
-0.812885
-0.792714
-0.777079
-0.763064
-0.749328
-0.735973
-0.723012
-0.710399
-0.698114
-0.686142
-0.674472
-0.663092
-0.65199
-0.641152
-0.630564
-0.620211
-0.610073
-0.600128
-0.59035
-0.580706
-0.571149
-0.561614
-0.551995
-0.542115
-0.531698
-0.52038
-0.507298
-0.488961
-0.459408
-0.433928
-1.26825
-1.2678
-1.26535
-1.26134
-1.25579
-1.24875
-1.24029
-1.23048
-1.21939
-1.2071
-1.1937
-1.17927
-1.1639
-1.14765
-1.13062
-1.11288
-1.09452
-1.07562
-1.05624
-1.03646
-1.01637
-0.996012
-0.975468
-0.954793
-0.934046
-0.913278
-0.892534
-0.871829
-0.851149
-0.830934
-1.23399
-1.23349
-1.23116
-1.22723
-1.22177
-1.21486
-1.20656
-1.19696
-1.18613
-1.17414
-1.1611
-1.14706
-1.13212
-1.11635
-1.09983
-1.08265
-1.06487
-1.04658
-1.02785
-1.00874
-0.989334
-0.969694
-0.949882
-0.929961
-0.909987
-0.890016
-0.870104
-0.850299
-0.830656
-0.811365
-1.20549
-1.20497
-1.20274
-1.19893
-1.19362
-1.18689
-1.1788
-1.16944
-1.15888
-1.14721
-1.1345
-1.12084
-1.1063
-1.09096
-1.0749
-1.0582
-1.04093
-1.02316
-1.00497
-0.986433
-0.967609
-0.948566
-0.929367
-0.910072
-0.890737
-0.871419
-0.852172
-0.833053
-0.814122
-0.795461
-1.17835
-1.17792
-1.17584
-1.17223
-1.16714
-1.16066
-1.15285
-1.14379
-1.13355
-1.12223
-1.1099
-1.09664
-1.08252
-1.06762
-1.05201
-1.03578
-1.01901
-1.00175
-0.984084
-0.966081
-0.947807
-0.929325
-0.910697
-0.891982
-0.873236
-0.854515
-0.835871
-0.817355
-0.799022
-0.780925
-1.15058
-1.15035
-1.14851
-1.14517
-1.14038
-1.13422
-1.12676
-1.11807
-1.10822
-1.09731
-1.0854
-1.07258
-1.05892
-1.04449
-1.02937
-1.01365
-0.997379
-0.980646
-0.963517
-0.946058
-0.928337
-0.910415
-0.892355
-0.874213
-0.856048
-0.837911
-0.819853
-0.801923
-0.784168
-0.766631
-1.12246
-1.12252
-1.12101
-1.11802
-1.11361
-1.10785
-1.1008
-1.09253
-1.08313
-1.07268
-1.06124
-1.04891
-1.03574
-1.02181
-1.00721
-0.992004
-0.976265
-0.960067
-0.943479
-0.926567
-0.909396
-0.892029
-0.874526
-0.856946
-0.839344
-0.821772
-0.80428
-0.786913
-0.769714
-0.752723
-1.09413
-1.09455
-1.09344
-1.09088
-1.08691
-1.08161
-1.07503
-1.06725
-1.05835
-1.0484
-1.03748
-1.02567
-1.01303
-0.999636
-0.98557
-0.970904
-0.955708
-0.940055
-0.924012
-0.907647
-0.891024
-0.874205
-0.85725
-0.840217
-0.823161
-0.806133
-0.789183
-0.772355
-0.75569
-0.739226
-1.06561
-1.06647
-1.06582
-1.06374
-1.06027
-1.05548
-1.04942
-1.04218
-1.03382
-1.02443
-1.01407
-1.00281
-0.990732
-0.977902
-0.964397
-0.95029
-0.935653
-0.920556
-0.905067
-0.889252
-0.873175
-0.856898
-0.840481
-0.823982
-0.807456
-0.790954
-0.774525
-0.758214
-0.742059
-0.726102
-1.03698
-1.03833
-1.03819
-1.03663
-1.03371
-1.02948
-1.02399
-1.01732
-1.00955
-1.00075
-0.99098
-0.980314
-0.968824
-0.956582
-0.943661
-0.930133
-0.916069
-0.90154
-0.886612
-0.871352
-0.855821
-0.840082
-0.824196
-0.80822
-0.792208
-0.776213
-0.760285
-0.744469
-0.728803
-0.713329
-1.00835
-1.01021
-1.01062
-1.00962
-1.00728
-1.00364
-0.998753
-0.992698
-0.985544
-0.977361
-0.968212
-0.958164
-0.947289
-0.935659
-0.923343
-0.910413
-0.896939
-0.88299
-0.868632
-0.85393
-0.838946
-0.823743
-0.808379
-0.792914
-0.777403
-0.761899
-0.746452
-0.731109
-0.715909
-0.700896
-0.97982
-0.982217
-0.983181
-0.982769
-0.981025
-0.977997
-0.97374
-0.96832
-0.961809
-0.95427
-0.945763
-0.936357
-0.926121
-0.915122
-0.903431
-0.891116
-0.878247
-0.864889
-0.851109
-0.83697
-0.822535
-0.807865
-0.793019
-0.778056
-0.763032
-0.748001
-0.733016
-0.718124
-0.703368
-0.688791
-0.951494
-0.95443
-0.955961
-0.956139
-0.955006
-0.952604
-0.948987
-0.944219
-0.938365
-0.931485
-0.92364
-0.914893
-0.905313
-0.894964
-0.883914
-0.872229
-0.859976
-0.847221
-0.834027
-0.820458
-0.806574
-0.792436
-0.778103
-0.763633
-0.749084
-0.734512
-0.719969
-0.705507
-0.691169
-0.677003
-0.923469
-0.926939
-0.929033
-0.9298
-0.929276
-0.927504
-0.924532
-0.920421
-0.915233
-0.909023
-0.90185
-0.893775
-0.884864
-0.875177
-0.864781
-0.853738
-0.842114
-0.829971
-0.817373
-0.80438
-0.791051
-0.777446
-0.763622
-0.749639
-0.735555
-0.721425
-0.707305
-0.693249
-0.679304
-0.665521
-0.895834
-0.899823
-0.902468
-0.903812
-0.903891
-0.902742
-0.900412
-0.896958
-0.892437
-0.886901
-0.880405
-0.873009
-0.864773
-0.855759
-0.846025
-0.835635
-0.824649
-0.813129
-0.801134
-0.788724
-0.775955
-0.762885
-0.74957
-0.736069
-0.722438
-0.708736
-0.695019
-0.681344
-0.667763
-0.654334
-0.868666
-0.873152
-0.876329
-0.878235
-0.878901
-0.878363
-0.876666
-0.873861
-0.87
-0.865134
-0.859315
-0.852598
-0.845042
-0.836704
-0.82764
-0.817909
-0.807571
-0.796682
-0.7853
-0.773481
-0.761278
-0.748747
-0.735941
-0.722917
-0.709732
-0.696442
-0.683107
-0.669787
-0.656541
-0.643431
-0.842036
-0.846992
-0.850675
-0.853119
-0.854352
-0.854408
-0.853326
-0.851156
-0.847945
-0.84374
-0.838591
-0.83255
-0.825673
-0.818011
-0.80962
-0.800555
-0.79087
-0.780621
-0.76986
-0.75864
-0.747011
-0.735025
-0.722731
-0.710184
-0.697436
-0.684545
-0.67157
-0.658577
-0.64563
-0.632803
-0.816002
-0.821398
-0.825558
-0.828512
-0.830286
-0.83091
-0.830423
-0.828868
-0.826291
-0.822733
-0.818243
-0.812871
-0.806666
-0.799679
-0.791961
-0.783564
-0.774538
-0.764935
-0.754804
-0.744193
-0.733148
-0.721714
-0.709939
-0.697869
-0.685554
-0.673049
-0.660414
-0.647716
-0.635029
-0.622437
-0.790617
-0.796417
-0.801021
-0.804453
-0.806737
-0.807902
-0.807983
-0.807021
-0.805056
-0.802128
-0.798282
-0.793565
-0.788024
-0.781706
-0.774659
-0.76693
-0.758567
-0.749617
-0.740124
-0.730132
-0.719681
-0.708811
-0.697562
-0.685975
-0.674093
-0.661965
-0.649648
-0.637212
-0.624738
-0.612324
-0.765919
-0.772088
-0.7771
-0.780975
-0.783735
-0.78541
-0.786031
-0.785635
-0.784257
-0.781937
-0.778717
-0.774639
-0.76975
-0.764092
-0.757709
-0.750646
-0.742947
-0.734655
-0.725808
-0.716446
-0.706603
-0.696312
-0.685603
-0.674509
-0.663064
-0.651308
-0.639291
-0.62708
-0.614763
-0.602456
-0.74194
-0.74844
-0.753823
-0.758105
-0.761308
-0.763458
-0.764587
-0.764726
-0.763909
-0.762172
-0.759554
-0.756098
-0.751843
-0.746832
-0.741106
-0.734704
-0.727669
-0.720038
-0.711847
-0.703127
-0.693907
-0.684212
-0.674063
-0.66348
-0.652484
-0.641101
-0.629368
-0.617344
-0.60512
-0.592828
-0.718699
-0.725494
-0.731211
-0.735864
-0.739474
-0.742066
-0.743669
-0.744311
-0.744023
-0.742841
-0.740802
-0.737944
-0.734305
-0.729925
-0.724843
-0.719096
-0.712722
-0.705755
-0.698226
-0.690162
-0.681583
-0.672507
-0.662944
-0.652898
-0.642373
-0.631374
-0.619917
-0.608042
-0.595835
-0.583438
-0.696209
-0.703263
-0.709278
-0.714266
-0.718247
-0.721247
-0.723289
-0.7244
-0.72461
-0.723953
-0.722465
-0.720179
-0.717134
-0.713367
-0.708914
-0.703811
-0.698093
-0.691791
-0.684931
-0.677536
-0.66962
-0.66119
-0.652245
-0.642772
-0.632754
-0.622166
-0.610991
-0.599232
-0.586955
-0.574296
-0.674477
-0.681755
-0.688033
-0.69332
-0.697637
-0.701009
-0.703455
-0.705001
-0.705676
-0.705514
-0.704545
-0.702805
-0.700329
-0.697152
-0.693311
-0.68884
-0.68377
-0.678131
-0.671947
-0.665234
-0.658002
-0.650249
-0.641963
-0.633113
-0.623653
-0.613524
-0.602656
-0.590994
-0.578556
-0.565424
-0.653502
-0.660972
-0.667479
-0.673032
-0.677651
-0.68136
-0.684176
-0.686121
-0.687228
-0.687526
-0.687046
-0.685822
-0.683888
-0.681278
-0.67803
-0.674174
-0.669742
-0.664762
-0.659256
-0.653238
-0.646713
-0.639673
-0.632093
-0.623927
-0.615099
-0.605505
-0.595006
-0.58345
-0.570763
-0.556878
-0.63328
-0.640911
-0.647615
-0.653401
-0.658289
-0.662302
-0.665452
-0.667763
-0.669267
-0.669992
-0.669968
-0.669229
-0.667808
-0.66574
-0.663061
-0.659802
-0.655995
-0.651667
-0.64684
-0.641526
-0.63573
-0.629439
-0.622621
-0.615214
-0.607116
-0.598171
-0.588155
-0.576771
-0.563785
-0.548796
-0.613803
-0.621564
-0.628434
-0.63442
-0.639544
-0.643824
-0.647271
-0.649912
-0.651776
-0.652892
-0.65329
-0.653002
-0.652062
-0.650506
-0.648368
-0.645682
-0.64248
-0.638791
-0.634637
-0.630033
-0.624983
-0.619476
-0.613476
-0.606913
-0.599665
-0.591531
-0.582182
-0.571131
-0.557914
-0.541475
-0.595062
-0.602925
-0.60993
-0.616085
-0.621411
-0.625923
-0.629631
-0.632563
-0.634749
-0.636219
-0.636999
-0.637125
-0.636629
-0.635548
-0.633917
-0.631771
-0.629146
-0.626071
-0.622573
-0.61867
-0.61437
-0.609668
-0.604532
-0.598896
-0.592631
-0.585506
-0.577094
-0.566669
-0.553479
-0.535285
-0.577047
-0.585009
-0.592144
-0.598461
-0.60398
-0.608712
-0.612669
-0.615879
-0.618374
-0.62018
-0.621329
-0.621851
-0.621783
-0.621161
-0.620022
-0.618404
-0.616344
-0.613875
-0.611028
-0.607827
-0.60429
-0.600418
-0.596195
-0.59157
-0.586432
-0.580558
-0.573463
-0.564174
-0.551486
-0.530571
-0.559723
-0.567805
-0.575091
-0.581592
-0.587325
-0.5923
-0.596529
-0.600046
-0.60288
-0.605058
-0.606612
-0.607574
-0.607981
-0.607871
-0.607283
-0.606259
-0.604837
-0.603057
-0.600953
-0.598556
-0.595894
-0.592982
-0.589822
-0.586394
-0.582635
-0.578403
-0.573301
-0.566277
-0.555566
-0.530488
-0.542993
-0.550959
-0.558164
-0.56462
-0.570342
-0.575339
-0.579628
-0.583242
-0.586211
-0.588563
-0.59033
-0.59155
-0.592259
-0.592499
-0.592314
-0.591749
-0.59085
-0.589664
-0.588236
-0.58661
-0.58483
-0.582932
-0.580953
-0.578922
-0.57687
-0.574842
-0.572748
-0.570002
-0.566467
-0.547653
-0.417926
-0.467314
-0.515496
-0.563087
-0.609901
-0.655769
-0.700574
-0.744205
-0.786557
-0.827531
-0.867035
-0.904983
-0.941296
-0.975901
-1.00873
-1.03973
-1.06883
-1.09601
-1.12121
-1.14442
-1.16561
-1.18476
-1.20186
-1.21692
-1.22995
-1.24094
-1.24993
-1.25691
-1.26189
-1.26523
-0.410958
-0.459202
-0.506454
-0.552959
-0.598598
-0.643254
-0.686832
-0.729233
-0.770363
-0.810129
-0.848444
-0.885228
-0.920404
-0.953901
-0.985657
-1.01561
-1.04372
-1.06994
-1.09424
-1.11659
-1.13697
-1.15536
-1.17177
-1.18619
-1.19863
-1.20911
-1.21767
-1.22431
-1.22908
-1.23216
-0.40055
-0.447785
-0.494181
-0.539804
-0.584548
-0.628312
-0.671004
-0.712531
-0.752802
-0.791729
-0.829229
-0.865221
-0.899633
-0.932395
-0.963447
-0.992732
-1.0202
-1.04582
-1.06956
-1.09138
-1.11127
-1.12922
-1.14522
-1.15928
-1.17141
-1.18163
-1.18996
-1.19643
-1.20108
-1.20402
-0.386524
-0.432831
-0.478392
-0.523203
-0.567157
-0.610154
-0.652101
-0.692908
-0.732485
-0.770745
-0.807608
-0.842994
-0.876831
-0.909052
-0.939596
-0.968409
-0.995446
-1.02067
-1.04404
-1.06554
-1.08514
-1.10284
-1.11863
-1.13251
-1.1445
-1.15461
-1.16287
-1.16931
-1.17396
-1.1769
-0.369427
-0.414807
-0.459515
-0.503511
-0.546684
-0.588933
-0.630167
-0.670294
-0.709227
-0.74688
-0.783173
-0.818027
-0.851371
-0.883139
-0.913269
-0.94171
-0.968415
-0.993345
-1.01647
-1.03775
-1.05719
-1.07475
-1.09045
-1.10427
-1.11624
-1.12637
-1.13468
-1.14119
-1.14595
-1.14901
-0.350022
-0.394474
-0.438316
-0.481488
-0.523878
-0.565387
-0.605924
-0.645397
-0.683719
-0.720805
-0.756575
-0.790951
-0.823863
-0.855244
-0.885033
-0.913179
-0.939636
-0.964363
-0.987327
-1.0085
-1.02786
-1.04539
-1.06109
-1.07496
-1.08701
-1.09725
-1.10571
-1.11241
-1.11737
-1.12065
-0.32903
-0.372541
-0.415499
-0.457831
-0.499428
-0.540193
-0.580033
-0.618859
-0.656583
-0.693122
-0.728394
-0.762324
-0.79484
-0.825877
-0.855374
-0.883278
-0.909544
-0.934129
-0.956999
-0.978124
-0.997481
-1.01506
-1.03084
-1.04484
-1.05705
-1.06748
-1.07617
-1.08313
-1.08839
-1.09199
-0.307091
-0.349642
-0.391691
-0.433161
-0.473944
-0.513947
-0.553079
-0.591249
-0.628372
-0.664364
-0.699145
-0.732638
-0.764773
-0.795484
-0.824712
-0.852403
-0.878509
-0.902988
-0.925803
-0.946923
-0.966325
-0.983991
-0.999912
-1.01408
-1.02651
-1.03721
-1.04619
-1.05348
-1.05909
-1.06307
-0.284749
-0.326317
-0.367434
-0.408016
-0.447964
-0.487184
-0.525587
-0.563085
-0.599592
-0.635026
-0.669306
-0.702357
-0.73411
-0.764497
-0.793461
-0.820945
-0.846903
-0.87129
-0.894067
-0.915204
-0.934673
-0.952458
-0.968545
-0.982929
-0.995614
-1.00661
-1.01592
-1.02358
-1.02959
-1.03401
-0.262447
-0.303013
-0.343175
-0.382849
-0.421937
-0.460352
-0.498005
-0.53481
-0.570681
-0.605538
-0.639302
-0.671897
-0.703254
-0.733307
-0.761997
-0.78927
-0.815075
-0.839367
-0.862108
-0.883263
-0.902807
-0.920719
-0.936984
-0.951595
-0.964552
-0.975862
-0.985534
-0.993583
-1.00003
-1.0049
-0.240533
-0.280083
-0.319274
-0.35802
-0.39623
-0.433819
-0.470701
-0.506791
-0.542006
-0.576265
-0.609491
-0.64161
-0.672552
-0.702253
-0.730653
-0.757697
-0.783334
-0.807518
-0.830209
-0.851374
-0.870984
-0.889017
-0.905457
-0.920295
-0.933527
-0.945156
-0.955191
-0.963644
-0.970529
-0.975878
-0.219267
-0.257793
-0.296001
-0.333807
-0.371125
-0.407872
-0.443965
-0.479321
-0.513859
-0.5475
-0.580167
-0.611788
-0.642294
-0.67162
-0.699707
-0.726499
-0.751945
-0.775999
-0.79862
-0.819774
-0.839432
-0.85757
-0.87417
-0.889221
-0.902717
-0.914658
-0.92505
-0.933903
-0.941229
-0.947055
-0.198838
-0.236337
-0.273557
-0.310416
-0.346831
-0.382725
-0.418016
-0.452624
-0.486469
-0.519473
-0.551562
-0.582663
-0.61271
-0.641637
-0.669386
-0.6959
-0.721129
-0.745025
-0.76755
-0.788667
-0.808347
-0.826565
-0.843303
-0.858546
-0.872285
-0.884519
-0.895251
-0.904491
-0.912246
-0.918539
-0.17937
-0.215847
-0.252079
-0.287988
-0.323499
-0.358534
-0.393015
-0.426865
-0.460004
-0.492357
-0.52385
-0.554413
-0.583979
-0.612484
-0.639869
-0.666079
-0.691062
-0.714772
-0.73717
-0.758221
-0.777893
-0.796162
-0.813007
-0.828414
-0.84237
-0.854871
-0.86592
-0.875523
-0.883686
-0.890427
-0.16094
-0.196402
-0.231652
-0.266616
-0.301224
-0.3354
-0.36907
-0.402156
-0.434583
-0.466274
-0.497159
-0.527167
-0.556233
-0.584294
-0.611292
-0.637171
-0.661881
-0.685376
-0.707617
-0.72857
-0.748202
-0.766489
-0.78341
-0.798948
-0.813089
-0.825827
-0.837162
-0.847099
-0.855643
-0.862806
-0.143584
-0.178042
-0.21232
-0.246349
-0.280061
-0.313384
-0.346246
-0.378569
-0.41028
-0.441305
-0.471572
-0.501013
-0.529564
-0.557163
-0.583752
-0.609278
-0.633689
-0.656941
-0.678996
-0.699819
-0.719379
-0.737651
-0.754613
-0.770247
-0.784538
-0.797478
-0.809067
-0.819305
-0.828196
-0.83575
-0.127308
-0.160778
-0.194097
-0.227203
-0.260031
-0.292512
-0.324574
-0.35614
-0.387138
-0.417494
-0.447139
-0.476006
-0.50403
-0.531152
-0.557315
-0.582466
-0.606556
-0.629541
-0.651382
-0.672047
-0.691503
-0.709727
-0.726695
-0.742389
-0.756794
-0.7699
-0.781705
-0.792209
-0.801412
-0.809324
-0.112097
-0.144594
-0.176971
-0.20917
-0.24113
-0.272784
-0.304058
-0.334878
-0.365169
-0.39486
-0.423882
-0.45217
-0.479661
-0.506295
-0.532017
-0.556777
-0.580526
-0.603221
-0.624824
-0.645303
-0.664627
-0.682771
-0.699713
-0.715432
-0.729914
-0.74315
-0.755135
-0.765867
-0.775347
-0.783581
-0.0979197
-0.129459
-0.16091
-0.192222
-0.223334
-0.254179
-0.284682
-0.314768
-0.344364
-0.373397
-0.4018
-0.429509
-0.456462
-0.482601
-0.507872
-0.532227
-0.555618
-0.578004
-0.599348
-0.619617
-0.638782
-0.656817
-0.673702
-0.689414
-0.70394
-0.71727
-0.729399
-0.740324
-0.750043
-0.758561
-0.0847338
-0.115327
-0.145872
-0.176317
-0.206604
-0.236662
-0.266414
-0.295784
-0.324697
-0.353083
-0.380873
-0.408006
-0.434422
-0.460062
-0.484876
-0.508815
-0.531836
-0.553897
-0.574963
-0.595
-0.613982
-0.631883
-0.648682
-0.664358
-0.678896
-0.692288
-0.704527
-0.715608
-0.72553
-0.734296
-0.0724893
-0.102145
-0.131801
-0.161404
-0.19089
-0.220185
-0.249209
-0.277883
-0.306131
-0.333882
-0.361071
-0.387635
-0.413516
-0.438657
-0.46301
-0.486528
-0.509168
-0.530891
-0.551663
-0.571452
-0.590229
-0.607972
-0.62466
-0.640272
-0.654794
-0.668217
-0.680534
-0.691738
-0.701827
-0.710805
-0.0611287
-0.0898503
-0.118637
-0.147423
-0.176137
-0.204698
-0.233019
-0.261018
-0.28862
-0.315753
-0.342352
-0.368357
-0.393709
-0.418355
-0.442247
-0.46534
-0.487593
-0.508969
-0.529435
-0.548959
-0.567514
-0.58508
-0.601634
-0.617158
-0.631638
-0.645063
-0.657426
-0.668721
-0.678945
-0.6881
-0.050593
-0.0783722
-0.106313
-0.134312
-0.162285
-0.190141
-0.217786
-0.245136
-0.272113
-0.298646
-0.324671
-0.350128
-0.37496
-0.399117
-0.42255
-0.445218
-0.46708
-0.488102
-0.508252
-0.5275
-0.54582
-0.56319
-0.579592
-0.595006
-0.609419
-0.622821
-0.635203
-0.646559
-0.656885
-0.666185
-0.0408119
-0.0676279
-0.094752
-0.121997
-0.149264
-0.176449
-0.203449
-0.230175
-0.256551
-0.282505
-0.307973
-0.332897
-0.357221
-0.380896
-0.403876
-0.426121
-0.447591
-0.468256
-0.488084
-0.507046
-0.525118
-0.54228
-0.558513
-0.573798
-0.588123
-0.601478
-0.613853
-0.625243
-0.635644
-0.645058
-0.0317048
-0.0575309
-0.0838779
-0.110413
-0.137016
-0.163568
-0.189954
-0.216085
-0.241884
-0.26728
-0.292211
-0.316617
-0.340447
-0.36365
-0.386185
-0.40801
-0.429091
-0.449396
-0.468897
-0.487566
-0.505381
-0.522324
-0.538374
-0.553514
-0.567732
-0.581019
-0.593365
-0.604764
-0.615213
-0.624714
-0.0231673
-0.0480263
-0.0736828
-0.0995564
-0.125541
-0.151498
-0.177301
-0.202862
-0.228107
-0.252965
-0.277376
-0.301281
-0.324627
-0.347369
-0.369463
-0.390873
-0.411565
-0.431509
-0.450679
-0.469048
-0.486598
-0.503309
-0.519162
-0.534142
-0.548235
-0.561433
-0.573727
-0.585112
-0.595583
-0.605144
-0.0150513
-0.0390199
-0.0641187
-0.0893961
-0.114805
-0.140201
-0.165448
-0.190462
-0.215171
-0.239509
-0.263415
-0.286831
-0.309706
-0.331995
-0.353657
-0.374655
-0.39496
-0.414545
-0.433381
-0.451448
-0.468726
-0.485197
-0.500843
-0.515649
-0.529603
-0.542696
-0.55492
-0.566269
-0.576741
-0.586337
-0.00687783
-0.0297098
-0.054415
-0.0792045
-0.104116
-0.129011
-0.15375
-0.178259
-0.202475
-0.226333
-0.249774
-0.27274
-0.29518
-0.317051
-0.338312
-0.358931
-0.378878
-0.39813
-0.41666
-0.434449
-0.451477
-0.467729
-0.483187
-0.497836
-0.511664
-0.524663
-0.536826
-0.548147
-0.558623
-0.568255
0.00262927
-0.0187039
-0.0433548
-0.0679304
-0.0925564
-0.117098
-0.141452
-0.165571
-0.189399
-0.212877
-0.235944
-0.258543
-0.280626
-0.302148
-0.323074
-0.343372
-0.363018
-0.381988
-0.40026
-0.417814
-0.434634
-0.450705
-0.46601
-0.480534
-0.494267
-0.507201
-0.51933
-0.530648
-0.541153
-0.550843
0.0119212
-0.011506
-0.0371615
-0.0617497
-0.0862048
-0.110421
-0.134347
-0.158001
-0.181353
-0.204347
-0.226925
-0.249029
-0.270612
-0.291632
-0.312055
-0.331853
-0.351005
-0.369492
-0.387293
-0.404394
-0.420779
-0.436437
-0.451352
-0.465513
-0.47891
-0.491537
-0.503389
-0.514462
-0.524752
-0.534261
0.532869
0.540029
0.547366
0.554841
0.562454
0.570202
0.578075
0.586064
0.594156
0.602337
0.610589
0.61889
0.627217
0.635544
0.643843
0.652088
0.660251
0.668309
0.676248
0.684062
0.691767
0.699403
0.70705
0.714836
0.722964
0.731727
0.741433
0.752345
0.766287
0.786402
0.525579
0.532486
0.539669
0.546973
0.554394
0.561939
0.5696
0.577366
0.585221
0.593151
0.601136
0.609153
0.617178
0.625183
0.633139
0.641018
0.648791
0.656433
0.663928
0.671271
0.678477
0.685591
0.692693
0.69992
0.707483
0.71569
0.724867
0.73531
0.748897
0.768913
0.517428
0.52403
0.531036
0.538142
0.545341
0.552651
0.560067
0.567574
0.575157
0.582797
0.590475
0.598166
0.605845
0.613482
0.621049
0.628512
0.635845
0.643019
0.650017
0.656835
0.663489
0.670025
0.676532
0.68315
0.690102
0.697712
0.706332
0.716289
0.729534
0.749464
0.508424
0.514673
0.521476
0.528358
0.535304
0.542348
0.549486
0.5567
0.563973
0.571285
0.578616
0.585941
0.593231
0.600456
0.607586
0.614587
0.621428
0.628083
0.634533
0.640773
0.646823
0.652732
0.658591
0.664551
0.670847
0.67782
0.685843
0.695278
0.708115
0.7278
0.498575
0.504422
0.510998
0.51763
0.524294
0.531041
0.537867
0.544753
0.55168
0.558628
0.565573
0.57249
0.579349
0.586119
0.592765
0.599256
0.605557
0.611642
0.617492
0.623104
0.628499
0.633729
0.638891
0.644146
0.649739
0.656032
0.663419
0.67229
0.684664
0.704001
0.487892
0.493291
0.499616
0.505972
0.512323
0.518742
0.525224
0.531748
0.538294
0.54484
0.551362
0.557831
0.564218
0.570487
0.576606
0.582538
0.588252
0.593718
0.598918
0.603853
0.608541
0.613042
0.617457
0.621959
0.626806
0.632377
0.639087
0.647357
0.659221
0.678135
0.476386
0.481293
0.487343
0.493397
0.499408
0.505466
0.511573
0.517702
0.523832
0.52994
0.536001
0.541983
0.547856
0.553583
0.559128
0.564457
0.569536
0.574335
0.578839
0.583044
0.586978
0.590699
0.594321
0.598024
0.602083
0.606889
0.612884
0.620514
0.631824
0.650253
0.464072
0.468441
0.474195
0.479923
0.485563
0.491232
0.496932
0.502634
0.508315
0.51395
0.519512
0.524969
0.530287
0.535429
0.540359
0.545041
0.549438
0.553524
0.557282
0.560711
0.56384
0.566735
0.569519
0.572381
0.575609
0.579613
0.584854
0.591808
0.602523
0.620408
0.450964
0.454754
0.46019
0.465566
0.470808
0.476058
0.481322
0.486566
0.491764
0.496891
0.501918
0.506812
0.511536
0.516054
0.520328
0.524318
0.52799
0.531317
0.534281
0.536888
0.539166
0.541192
0.543094
0.545074
0.547432
0.550595
0.555047
0.56129
0.571371
0.588659
0.437076
0.440249
0.445346
0.450346
0.455163
0.459966
0.464764
0.469519
0.474203
0.478789
0.483246
0.48754
0.491634
0.495489
0.499065
0.502323
0.505227
0.507751
0.50988
0.511619
0.513005
0.514119
0.515099
0.516156
0.517605
0.519891
0.52352
0.529019
0.538429
0.555069
0.422427
0.424945
0.429683
0.434284
0.43865
0.442979
0.447282
0.451518
0.455657
0.45967
0.463525
0.467185
0.470613
0.473768
0.476608
0.479094
0.48119