/*--------------------------------*- C++ -*----------------------------------*\
  =========                 |
  \\      /  F ield         | OpenFOAM: The Open Source CFD Toolbox
   \\    /   O peration     | Website:  https://openfoam.org
    \\  /    A nd           | Version:  6.0
     \\/     M anipulation  |
\*---------------------------------------------------------------------------*/
FoamFile
{
    version     2.0;
    format      ascii;
    class       surfaceScalarField;
    location    "3.752";
    object      phi;
}
// * * * * * * * * * * * * * * * * * * * * * * * * * * * * * * * * * * * * * //

dimensions      [0 3 -1 0 0 0 0];

internalField   nonuniform List<scalar> 
38030
(
-8.15942e-06
-0.0079316
0.00793975
-2.56117e-05
-0.00721304
0.00723049
-5.00476e-05
-0.0065655
0.00658993
-7.93748e-05
-0.00598323
0.00601256
-0.000111703
-0.00546065
0.00549297
-0.000145449
-0.00499239
0.00502614
-0.000179316
-0.00457344
0.00460731
-0.000212249
-0.00419914
0.00423207
-0.000243401
-0.0038652
0.00389635
-0.000272105
-0.00356767
0.00359638
-0.000297847
-0.00330294
0.00332869
-0.000320245
-0.00306772
0.00309012
-0.000339032
-0.002859
0.00287778
-0.000354041
-0.00267404
0.00268905
-0.000365188
-0.00251038
0.00252153
-0.000372469
-0.00236576
0.00237304
-0.000375946
-0.00223815
0.00224162
-0.000375738
-0.00212569
0.00212548
-0.000372017
-0.00202673
0.00202301
-0.000364999
-0.00193977
0.00193275
-0.000354938
-0.00186344
0.00185338
-0.000342121
-0.00179652
0.0017837
-0.000326861
-0.00173782
0.00172256
-0.000309488
-0.00168622
0.00166884
-0.000290359
-0.00164067
0.00162154
-0.000269835
-0.00160047
0.00157995
-0.000248291
-0.0015651
0.00154356
-0.000226091
-0.00153415
0.00151195
-0.000203602
-0.00150714
0.00148465
-0.0014836
0.00146119
-0.000181192
-6.91259e-06
-0.00792468
-2.33941e-05
-0.00719656
-4.63975e-05
-0.00654249
-7.36194e-05
-0.00595601
-0.000103164
-0.0054311
-0.000133466
-0.00496209
-0.000163245
-0.00454366
-0.000191463
-0.00417092
-0.000217288
-0.00383938
-0.000240068
-0.00354489
-0.000259303
-0.00328371
-0.000274622
-0.0030524
-0.000285771
-0.00284785
-0.000292593
-0.00266722
-0.000295016
-0.00250796
-0.000293048
-0.00236773
-0.00028676
-0.00224443
-0.000276286
-0.00213617
-0.000261809
-0.00204121
-0.000243559
-0.00195802
-0.000221805
-0.00188519
-0.000196849
-0.00182148
-0.000169017
-0.00176566
-0.000138664
-0.00171657
-0.000106158
-0.00167318
-7.19057e-05
-0.00163473
-3.63088e-05
-0.0016007
2.25081e-07
-0.00157068
3.72984e-05
-0.00154421
-0.0015208
7.45025e-05
-6.28146e-06
-0.0079184
-2.14976e-05
-0.00718134
-4.26522e-05
-0.00652134
-6.73598e-05
-0.0059313
-9.36937e-05
-0.00540477
-0.000120085
-0.00493569
-0.00014526
-0.00451848
-0.000168192
-0.00414799
-0.000188061
-0.00381951
-0.000204229
-0.00352872
-0.000216207
-0.00327173
-0.000223636
-0.00304497
-0.000226272
-0.00284521
-0.000223968
-0.00266953
-0.000216663
-0.00251526
-0.000204372
-0.00238002
-0.000187177
-0.00226163
-0.000165223
-0.00215812
-0.000138704
-0.00206773
-0.000107865
-0.00198886
-7.29897e-05
-0.00192007
-3.43973e-05
-0.00186007
7.56892e-06
-0.00180762
5.25435e-05
-0.00176154
0.000100123
-0.00172076
0.00014988
-0.00168448
0.000201353
-0.00165217
0.000254096
-0.00162342
0.000307666
-0.00159778
-0.00157475
0.000361615
-5.79004e-06
-0.00791261
-1.96711e-05
-0.00716746
-3.87376e-05
-0.00650227
-6.06086e-05
-0.00590943
-8.33513e-05
-0.00538203
-0.000105398
-0.00491365
-0.000125481
-0.0044984
-0.000142585
-0.00413089
-0.000155904
-0.00380619
-0.000164809
-0.00351982
-0.000168823
-0.00326772
-0.000167598
-0.0030462
-0.0001609
-0.00285191
-0.000148589
-0.00268184
-0.000130613
-0.00253324
-0.000106994
-0.00240364
-7.78231e-05
-0.0022908
-4.32524e-05
-0.00219269
-3.48899e-06
-0.00210749
4.12101e-05
-0.00203355
9.05437e-05
-0.0019694
0.000144174
-0.0019137
0.000201737
-0.00186519
0.000262857
-0.00182266
0.000327111
-0.00178501
0.000394021
-0.00175139
0.000463094
-0.00172124
0.000533809
-0.00169414
0.000605675
-0.00166965
-0.00164727
0.000678192
-5.31508e-06
-0.0079073
-1.77949e-05
-0.00715498
-3.45942e-05
-0.00648547
-5.33602e-05
-0.00589066
-7.2173e-05
-0.00536321
-8.94757e-05
-0.00489635
-0.000104013
-0.00448386
-0.000114782
-0.00412012
-0.00012099
-0.00379998
-0.000122021
-0.00351879
-0.000117409
-0.00327233
-0.000106818
-0.00305679
-9.00194e-05
-0.00286871
-6.68825e-05
-0.00270497
-3.73605e-05
-0.00256276
-1.48222e-06
-0.00243952
4.06554e-05
-0.00233294
8.88935e-05
-0.00224093
0.000143016
-0.00216161
0.000202754
-0.00209329
0.000267788
-0.00203443
0.000337755
-0.00198367
0.000412285
-0.00193971
0.000490958
-0.00190134
0.000573361
-0.00186741
0.000658964
-0.001837
0.00074722
-0.0018095
0.000837551
-0.00178447
0.000929393
-0.00176149
-0.00174006
0.00102218
-4.82152e-06
-0.00790247
-1.5821e-05
-0.00714398
-3.01918e-05
-0.0064711
-4.56133e-05
-0.00587524
-6.01882e-05
-0.00534864
-7.23785e-05
-0.00488415
-8.09468e-05
-0.0044753
-8.49066e-05
-0.00411616
-8.34808e-05
-0.00380141
-7.60679e-05
-0.0035262
-6.22146e-05
-0.00328618
-4.15936e-05
-0.00307741
-1.39858e-05
-0.00289632
2.07335e-05
-0.00273969
6.2606e-05
-0.00260463
0.000111599
-0.00248851
0.00016761
-0.00238895
0.000230477
-0.0023038
0.000299976
-0.00223111
0.000375828
-0.00216914
0.000457702
-0.00211631
0.000545214
-0.00207118
0.000637964
-0.00203246
0.000735519
-0.00199889
0.000837416
-0.00196931
0.000943123
-0.0019427
0.00105202
-0.00191839
0.00116347
-0.00189592
0.00127684
-0.00187486
-0.00185469
0.00139148
-4.29757e-06
-0.00789818
-1.373e-05
-0.00713455
-2.55179e-05
-0.00645931
-3.7372e-05
-0.00586339
-4.74229e-05
-0.00533859
-5.41575e-05
-0.00487742
-5.63611e-05
-0.00447309
-5.30683e-05
-0.00411945
-4.35206e-05
-0.00381095
-2.71332e-05
-0.00354259
-3.46626e-06
-0.00330985
2.77964e-05
-0.00310867
6.68656e-05
-0.00293539
0.00011386
-0.00278669
0.000168817
-0.00265959
0.000231702
-0.00255139
0.000302409
-0.00245966
0.000380773
-0.00238216
0.000466566
-0.00231691
0.000559503
-0.00226208
0.000659241
-0.00221605
0.000765389
-0.00217733
0.000877505
-0.00214458
0.000995144
-0.00211653
0.00111779
-0.00209196
0.00124488
-0.00206979
0.00137576
-0.00204927
0.00150971
-0.00202988
0.00164603
-0.00201117
-0.00199262
0.00178395
-3.74083e-06
-0.00789444
-1.15159e-05
-0.00712678
-2.057e-05
-0.00645026
-2.86445e-05
-0.00585531
-3.39011e-05
-0.00533333
-3.48562e-05
-0.00487647
-3.03231e-05
-0.00447762
-1.93615e-05
-0.00413041
-1.23536e-06
-0.00382908
2.4621e-05
-0.00356845
5.86314e-05
-0.00334386
0.0001011
-0.00315114
0.000152227
-0.00298651
0.000212127
-0.00284659
0.000280834
-0.0027283
0.00035831
-0.00262887
0.000444451
-0.0025458
0.00053909
-0.0024768
0.000641997
-0.00241981
0.000752884
-0.00237297
0.000871401
-0.00233456
0.000997141
-0.00230307
0.00112965
-0.00227709
0.00126842
-0.0022553
0.00141294
-0.00223648
0.00156259
-0.00221944
0.00171667
-0.00220335
0.0018744
-0.00218761
0.00203496
-0.00217172
-0.00215516
0.00219749
-3.15144e-06
-0.00789128
-9.17855e-06
-0.00712075
-1.53499e-05
-0.00644409
-1.94391e-05
-0.00585123
-1.96419e-05
-0.00533313
-1.4509e-05
-0.0048816
-2.88596e-06
-0.00448925
1.61378e-05
-0.00414944
4.32716e-05
-0.00385621
7.90585e-05
-0.00360423
0.000123904
-0.00338871
0.000178096
-0.00320533
0.000241827
-0.00305024
0.000315204
-0.00291996
0.000398256
-0.00281135
0.000490947
-0.00272156
0.000593175
-0.00264802
0.000704774
-0.0025884
0.000825517
-0.00254056
0.000955115
-0.00250257
0.00109321
-0.00247266
0.00123939
-0.00244924
0.00139316
-0.00243086
0.00155402
-0.00241616
0.00172138
-0.00240383
0.00189463
-0.00239269
0.002073
-0.00238172
0.00225564
-0.00237025
0.00244161
-0.0023577
-0.00234349
0.00262995
-2.53038e-06
-0.00788875
-6.71859e-06
-0.00711656
-9.85968e-06
-0.00644095
-9.76149e-06
-0.00585132
-4.65813e-06
-0.00533823
6.861e-06
-0.00489312
2.5913e-05
-0.0045083
5.33738e-05
-0.0041769
8.99217e-05
-0.00389276
0.000136073
-0.00365038
0.00019221
-0.00344484
0.000258605
-0.00327173
0.000335436
-0.00312708
0.000422803
-0.00300733
0.000520733
-0.00290928
0.000629189
-0.00283002
0.000748072
-0.00276691
0.000877222
-0.00271755
0.00101642
-0.00267975
0.00116537
-0.00265152
0.00132374
-0.00263102
0.00149108
-0.00261658
0.00166689
-0.00260668
0.00185064
-0.00259991
0.0020417
-0.0025949
0.00223943
-0.00259042
0.00244303
-0.00258532
0.00265156
-0.00257878
0.00286399
-0.00257013
-0.00255871
0.00307921
-1.87787e-06
-0.00788688
-4.13596e-06
-0.0071143
-4.09883e-06
-0.00644098
3.87308e-07
-0.00585581
1.10456e-05
-0.00534889
2.92428e-05
-0.00491131
5.60533e-05
-0.00453511
9.23129e-05
-0.00421316
0.000138664
-0.00393911
0.00019559
-0.00370731
0.000263448
-0.0035127
0.000342488
-0.00335077
0.000432874
-0.00321746
0.000534694
-0.00310915
0.000647971
-0.00302256
0.00077267
-0.00295472
0.000908696
-0.00290293
0.0010559
-0.00286475
0.00121406
-0.00283792
0.00138291
-0.00282037
0.00156209
-0.00281021
0.00175119
-0.00280568
0.00194969
-0.00280518
0.00215701
-0.00280722
0.00237252
-0.00281041
0.00259548
-0.00281338
0.00282511
-0.00281495
0.00306038
-0.00281405
0.00330017
-0.00280992
-0.00280174
0.0035432
-1.19347e-06
-0.00788568
-1.4288e-06
-0.00711407
1.93634e-06
-0.00644435
1.10122e-05
-0.00586489
2.74741e-05
-0.00536535
5.26388e-05
-0.00493648
8.75322e-05
-0.00457
0.000132944
-0.00425857
0.000189474
-0.00399564
0.00025757
-0.00377541
0.000337555
-0.00359269
0.000429654
-0.00344287
0.000534011
-0.00332182
0.000650701
-0.00322584
0.000779742
-0.0031516
0.000921095
-0.00309607
0.00107467
-0.00305651
0.00124033
-0.00303041
0.00141787
-0.00301546
0.00160704
-0.00300953
0.00180748
-0.00301065
0.0020188
-0.003017
0.00224048
-0.00302686
0.00247192
-0.00303866
0.00271245
-0.00305094
0.0029613
-0.00306224
0.00321762
-0.00307126
0.00348035
-0.00307679
0.00374824
-0.00307781
-0.00307342
0.00401992
-4.76228e-07
-0.00788521
1.40694e-06
-0.00711595
8.25334e-06
-0.0064512
2.21245e-05
-0.00587876
4.46411e-05
-0.00538787
7.70644e-05
-0.0049689
0.000120365
-0.0046133
0.000175279
-0.00431349
0.000242359
-0.00406272
0.000322006
-0.00385505
0.000414509
-0.00368519
0.000520058
-0.00354841
0.000638774
-0.00344053
0.000770713
-0.00335778
0.000915883
-0.00329677
0.00107424
-0.00325443
0.00124571
-0.00322798
0.00143015
-0.00321485
0.00162739
-0.00321269
0.00183717
-0.00321931
0.00205919
-0.00323267
0.00229305
-0.00325086
0.00253825
-0.00327207
0.00279421
-0.00329462
0.00306019
-0.00331692
0.00333543
-0.00333747
0.00361895
-0.00335478
0.00390971
-0.00336754
0.00420635
-0.00337444
-0.00337441
0.00450733
2.7569e-07
-0.00788548
4.37688e-06
-0.00712005
1.48634e-05
-0.00646168
3.37411e-05
-0.00589763
6.25696e-05
-0.0054167
0.000102547
-0.00500888
0.000154581
-0.00466534
0.000219349
-0.00437825
0.000297347
-0.00414072
0.000388926
-0.00394663
0.000494326
-0.00379059
0.000613703
-0.00366779
0.000747143
-0.00357397
0.000894679
-0.00350532
0.0010563
-0.00345839
0.00123197
-0.0034301
0.0014216
-0.0034176
0.00162506
-0.00341832
0.0018422
-0.00342983
0.0020728
-0.00344991
0.00231658
-0.00347645
0.00257316
-0.00350744
0.00284208
-0.00354099
0.00312276
-0.0035753
0.00341449
-0.00360865
0.00371641
-0.00363939
0.00402754
-0.00366591
0.00434674
-0.00368674
0.00467261
-0.00370031
-0.00370523
0.00500343
1.06449e-06
-0.00788655
7.48854e-06
-0.00712648
2.17808e-05
-0.00647597
4.58841e-05
-0.00592174
8.12894e-05
-0.0054521
0.000129124
-0.00505671
0.000190226
-0.00472644
0.000265205
-0.00445323
0.000354493
-0.00423001
0.000458382
-0.00405052
0.000577059
-0.00390927
0.000710632
-0.00380136
0.000859147
-0.00372249
0.00102261
-0.00366878
0.00120098
-0.00363677
0.00139421
-0.00362333
0.00160221
-0.0036256
0.00182487
-0.00364097
0.00206204
-0.00366701
0.00231354
-0.00370141
0.00257912
-0.00374202
0.00285845
-0.00378677
0.00315112
-0.00383366
0.00345657
-0.00388075
0.0037741
-0.00392618
0.00410284
-0.00396814
0.0044418
-0.00400487
0.0047897
-0.00403464
0.0051451
-0.00405571
-0.00406628
0.00550615
1.89294e-06
-0.00788844
1.07505e-05
-0.00713533
2.9022e-05
-0.00649425
5.8579e-05
-0.00595129
0.000100835
-0.00549436
0.00015684
-0.00511272
0.000227353
-0.00479695
0.000312909
-0.00453879
0.000413866
-0.00433096
0.000530451
-0.00416711
0.000662787
-0.0040416
0.000810925
-0.0039495
0.000974863
-0.00388643
0.00115456
-0.00384848
0.00134996
-0.00383216
0.00156097
-0.00383434
0.00178751
-0.00385214
0.00202946
-0.00388293
0.00228671
-0.00392425
0.00255908
-0.00397379
0.00284638
-0.00402933
0.00314834
-0.00408873
0.00346459
-0.00414991
0.00379465
-0.0042108
0.00413784
-0.00426938
0.00449334
-0.00432363
0.00486007
-0.0043716
0.00523676
-0.00441133
0.00562183
-0.00444078
-0.00445785
0.00601339
2.7638e-06
-0.0078912
1.41719e-05
-0.00714674
3.66046e-05
-0.00651668
7.18528e-05
-0.00598654
0.000121245
-0.00554375
0.000185743
-0.00517722
0.000266022
-0.00487723
0.00036253
-0.0046353
0.000475547
-0.00444398
0.000605223
-0.00429678
0.000751608
-0.00418799
0.000914688
-0.00411258
0.0010944
-0.00406614
0.00129065
-0.00404473
0.00150333
-0.00404485
0.00173233
-0.00406334
0.00197754
-0.00409735
0.00223884
-0.00414423
0.00251612
-0.00420153
0.00280925
-0.00426691
0.00311807
-0.00433815
0.00344237
-0.00441304
0.00378187
-0.00448941
0.00413614
-0.00456508
0.00450462
-0.00463786
0.00488651
-0.00470552
0.00528077
-0.00476586
0.00568609
-0.00481666
0.00610084
-0.00485552
-0.00488
0.00652299
3.67992e-06
-0.00789488
1.77618e-05
-0.00716082
4.45457e-05
-0.00654346
8.57324e-05
-0.00602773
0.000142555
-0.00560057
0.000215881
-0.00525054
0.000306289
-0.00496764
0.000414137
-0.00474315
0.000539617
-0.00456946
0.00068279
-0.00443995
0.000843628
-0.00434883
0.00102204
-0.00429099
0.00121788
-0.00426198
0.001431
-0.00425785
0.00166124
-0.00427508
0.00190842
-0.00431053
0.00217241
-0.00436134
0.00245307
-0.00442489
0.0027503
-0.00449875
0.00306397
-0.00458059
0.00339399
-0.00466817
0.00374021
-0.00475926
0.00410244
-0.00485163
0.00448035
-0.00494299
0.00487349
-0.005031
0.00528117
-0.00511321
0.00570244
-0.00518712
0.00613598
-0.0052502
0.00658015
-0.00529969
-0.00533264
0.00703278
4.644e-06
-0.00789953
2.15284e-05
-0.00717771
5.28611e-05
-0.00657479
0.000100241
-0.00607511
0.000164798
-0.00566513
0.000247293
-0.00533304
0.000348204
-0.00506855
0.00046779
-0.00486273
0.000606144
-0.00470782
0.000763236
-0.00459705
0.000938944
-0.00452453
0.00113309
-0.00448513
0.00134544
-0.00447434
0.00157577
-0.00448818
0.00182384
-0.00452315
0.00208942
-0.0045761
0.0023723
-0.00464422
0.00267233
-0.00472492
0.00298937
-0.00481579
0.00332333
-0.00491455
0.00367413
-0.00501897
0.00404171
-0.00512684
0.00442597
-0.00523589
0.00482673
-0.00534375
0.00524367
-0.00544794
0.00567626
-0.0055458
0.00612368
-0.00563454
0.00658471
-0.00571124
0.0070577
-0.00577267
-0.00581534
0.0075404
5.65798e-06
-0.00790519
2.54784e-05
-0.00719753
6.15631e-05
-0.00661088
0.000115398
-0.00612894
0.000187997
-0.00573773
0.000280009
-0.00542505
0.000391801
-0.00518034
0.000523528
-0.00499446
0.000675177
-0.00485947
0.000846617
-0.00476849
0.00103763
-0.00471554
0.00124793
-0.00469543
0.00147719
-0.00470361
0.0017251
-0.00473608
0.00199131
-0.00478935
0.00227551
-0.0048603
0.00257742
-0.00494614
0.00289683
-0.00504432
0.00323356
-0.00515252
0.0035875
-0.00526849
0.0039586
-0.00539008
0.00434687
-0.00551511
0.00475231
-0.00564133
0.0051749
-0.00576634
0.0056145
-0.00588754
0.0060708
-0.00600209
0.00654317
-0.00610691
0.00703057
-0.00619864
0.00753141
-0.00627351
-0.00632735
0.00804341
6.72325e-06
-0.00791191
2.96164e-05
-0.00722042
7.06599e-05
-0.00665192
0.000131213
-0.0061895
0.000212164
-0.00581868
0.00031404
-0.00552693
0.000437093
-0.0053034
0.000581362
-0.00513873
0.000746728
-0.00502483
0.00093295
-0.00495471
0.0011397
-0.00492229
0.00136659
-0.00492232
0.00161319
-0.00495021
0.00187906
-0.00500195
0.00216376
-0.00507405
0.00246686
-0.00516341
0.00278799
-0.00526727
0.00312684
-0.00538317
0.00348315
-0.00550883
0.00385678
-0.00564212
0.00424768
-0.00578098
0.00465588
-0.00592331
0.0050815
-0.00606695
0.00552469
-0.00620952
0.00598553
-0.00634838
0.00646397
-0.00648054
0.00695969
-0.00660263
0.0074719
-0.00671085
0.00799918
-0.00680079
-0.00686748
0.00853931
7.84024e-06
-0.00791975
3.39445e-05
-0.00724653
8.01549e-05
-0.00669813
0.000147689
-0.00625703
0.000237298
-0.00590829
0.000349379
-0.00563901
0.00048406
-0.00543808
0.000641265
-0.00529593
0.000820759
-0.00520433
0.00102219
-0.00515614
0.00124512
-0.00514523
0.00148905
-0.00516625
0.00175342
-0.00521458
0.00203768
-0.00528621
0.00234126
-0.00537762
0.0026636
-0.00548575
0.0030042
-0.00560787
0.00336261
-0.00574158
0.00373849
-0.00588471
0.00413159
-0.00603522
0.0045418
-0.00619119
0.00496918
-0.00635069
0.00541389
-0.00651167
0.00587626
-0.00667188
0.00635662
-0.00682874
0.00685528
-0.0069792
0.00737228
-0.00711963
0.00790724
-0.00724581
0.00845906
-0.00735261
-0.00743407
0.00902566
9.00868e-06
-0.00792876
3.84628e-05
-0.00727598
9.00466e-05
-0.00674972
0.000164818
-0.0063318
0.000263379
-0.00600685
0.000385988
-0.00576162
0.000532648
-0.00558474
0.000703159
-0.00546644
0.000897173
-0.00539834
0.00111422
-0.00537319
0.00135376
-0.00538476
0.00161515
-0.00542764
0.00189775
-0.00549718
0.00220084
-0.0055893
0.00252372
-0.00570051
0.0028657
-0.00582773
0.00322611
-0.00596828
0.00360436
-0.00611983
0.00399991
-0.00628026
0.0044124
-0.00644771
0.00484159
-0.00662038
0.00528746
-0.00679655
0.00575021
-0.00697441
0.00623025
-0.00715193
0.00672821
-0.0073267
0.00724476
-0.00749575
0.00778048
-0.00765535
0.00833555
-0.00780088
0.0089094
-0.00792646
-0.00802491
0.00950023
1.02276e-05
-0.00793899
4.31709e-05
-0.00730892
0.00010033
-0.00680688
0.000182583
-0.00641406
0.00029037
-0.00611464
0.000423805
-0.00589505
0.000582759
-0.00574369
0.000766911
-0.00565059
0.000975797
-0.00560723
0.00120884
-0.00560623
0.00146536
-0.00564129
0.00174464
-0.00570692
0.00204587
-0.00579841
0.00236824
-0.00591167
0.00271089
-0.00604316
0.00307297
-0.00618981
0.00345365
-0.00634896
0.00385212
-0.0065183
0.00426767
-0.00669582
0.00469971
-0.00687974
0.00514779
-0.00706846
0.00561173
-0.0072605
0.00609164
-0.00745432
0.00658795
-0.00764825
0.00710149
-0.00784023
0.00763333
-0.00802759
0.0081847
-0.00820672
0.00875659
-0.00837277
0.00934923
-0.0085191
-0.00863707
0.0099614
1.14979e-05
-0.00795048
4.80712e-05
-0.0073455
0.000111
-0.00686981
0.000200959
-0.00650401
0.000318216
-0.00623189
0.000462735
-0.00603957
0.000634252
-0.00591521
0.000832327
-0.00584867
0.00105638
-0.00583128
0.00130571
-0.00585557
0.00157955
-0.00591513
0.00187706
-0.00600442
0.00219731
-0.00611866
0.00253937
-0.00625373
0.00290224
-0.00640603
0.00328493
-0.00657249
0.00368641
-0.00675044
0.00410568
-0.00693757
0.00454178
-0.00713192
0.00499385
-0.00733181
0.00546116
-0.00753578
0.00594323
-0.00774257
0.00643991
-0.00795099
0.00695148
-0.00815982
0.0074788
-0.00836755
0.00802328
-0.00857207
0.00858684
-0.00877028
0.00917155
-0.00895748
0.00977891
-0.00912646
-0.00926681
0.0104086
1.28271e-05
-0.00796331
5.31775e-05
-0.00738585
0.000122059
-0.00693869
0.000219919
-0.00660187
0.000346845
-0.00635882
0.000502651
-0.00619538
0.000686939
-0.0060995
0.000899144
-0.00606087
0.00113857
-0.0060707
0.00140442
-0.00612142
0.00169582
-0.00620652
0.0020118
-0.0063204
0.00235136
-0.00645823
0.00271344
-0.00661581
0.00309694
-0.00678953
0.00350071
-0.00697627
0.00392358
-0.00717331
0.00436435
-0.00737834
0.00482181
-0.00758939
0.00529481
-0.0078048
0.00578225
-0.00802322
0.00628324
-0.00824355
0.00679716
-0.00846492
0.0073239
-0.00868656
0.007864
-0.00890766
0.00841895
-0.00912702
0.00899122
-0.00934255
0.00958417
-0.00955043
0.0102012
-0.0097435
-0.00990922
0.0108436
1.42412e-05
-0.00797755
5.85278e-05
-0.00743013
0.000133523
-0.00701368
0.000239432
-0.00670778
0.000376168
-0.00649555
0.000543395
-0.00636261
0.000740582
-0.00629668
0.000967039
-0.00628733
0.00122196
-0.00632562
0.00150443
-0.00640389
0.00181348
-0.00651557
0.00214806
-0.00665498
0.00250707
-0.00681724
0.00288937
-0.00699811
0.00329375
-0.00719392
0.00371898
-0.0074015
0.00416377
-0.00761809
0.00462676
-0.00784133
0.00510658
-0.0080692
0.00560177
-0.00829999
0.0061109
-0.00853235
0.00663257
-0.00876523
0.00716557
-0.00899791
0.00770902
-0.00923001
0.00826274
-0.00946137
0.00882761
-0.00969189
0.00940612
-0.00992106
0.0100027
-0.010147
0.0106233
-0.0103641
-0.0105579
0.011272
1.58108e-05
-0.00799336
6.42097e-05
-0.00747853
0.000145431
-0.0070949
0.000259468
-0.00682182
0.000406077
-0.00664216
0.000584777
-0.00654131
0.0007949
-0.0065068
0.00103563
-0.00652806
0.00130603
-0.00659603
0.0016051
-0.00670296
0.00193175
-0.00684222
0.00228486
-0.00700809
0.00266326
-0.00719563
0.00306572
-0.00740057
0.00349102
-0.00761921
0.00393784
-0.00784832
0.00440486
-0.00808511
0.00489066
-0.00832713
0.00539377
-0.0085723
0.00591261
-0.00881883
0.0064455
-0.00906524
0.00699064
-0.00931038
0.0075462
-0.00955347
0.00811038
-0.00979419
0.00868172
-0.0100327
0.00925961
-0.0102698
0.00984515
-0.0105066
0.0104425
-0.0107443
0.01106
-0.0109817
-0.0112073
0.0117094
1.77628e-05
-0.00801112
7.04284e-05
-0.0075312
0.000157861
-0.00718234
0.000279989
-0.00694395
0.000436436
-0.00679861
0.000626571
-0.00673144
0.000849569
-0.0067298
0.00110447
-0.00678296
0.00139022
-0.00688178
0.0017057
-0.00701843
0.00204972
-0.00718624
0.00242107
-0.00737944
0.00281852
-0.00759308
0.00324082
-0.00782287
0.00368669
-0.00806508
0.00415484
-0.00831647
0.00464396
-0.00857423
0.00515269
-0.00883587
0.00567963
-0.00909925
0.00622329
-0.00936249
0.00678203
-0.00962397
0.00735401
-0.00988236
0.00793715
-0.0101366
0.008529
-0.010386
0.00912683
-0.0106305
0.00972782
-0.0108708
0.0103298
-0.0111086
0.0109332
-0.0113477
0.011546
-0.0115945
-0.0118621
0.0122008
2.0911e-05
-0.00803204
7.75739e-05
-0.00758786
0.00017088
-0.00727564
0.000300898
-0.00707397
0.000467053
-0.00696476
0.000668497
-0.00693288
0.000904219
-0.00696552
0.00117309
-0.00705184
0.00147392
-0.0071826
0.00180545
-0.00734996
0.00216639
-0.00754719
0.00255545
-0.00776851
0.00297134
-0.00800897
0.00341275
-0.00826428
0.0038784
-0.00853074
0.00436705
-0.00880512
0.00487746
-0.00908464
0.00540843
-0.00936684
0.00595879
-0.00964961
0.00652739
-0.00993108
0.00711306
-0.0102096
0.00771461
-0.0104839
0.00833071
-0.0107527
0.00895978
-0.0110151
0.00959977
-0.0112705
0.010248
-0.011519
0.0109007
-0.0117613
0.0115522
-0.0119992
0.012197
-0.0122393
-0.0125034
0.0128383
0.00907328
4.52534e-05
-0.00911853
0.00902882
4.44524e-05
0.00898451
4.43165e-05
0.00894018
4.4329e-05
0.00889585
4.43272e-05
0.0088516
4.42516e-05
0.00880752
4.40782e-05
0.00876372
4.37991e-05
0.0087203
4.34168e-05
0.00867737
4.29374e-05
0.008635
4.2367e-05
0.00859329
4.17079e-05
0.00855233
4.09625e-05
0.00851219
4.01354e-05
0.00847296
3.9232e-05
0.0084347
3.82577e-05
0.00839749
3.72181e-05
0.00836137
3.61186e-05
0.0083264
3.49642e-05
0.00829264
3.37603e-05
0.00826013
3.25117e-05
0.00822891
3.12231e-05
0.00819901
2.9899e-05
0.00817047
2.85438e-05
0.00814331
2.71596e-05
0.00811756
2.57431e-05
0.00809329
2.4275e-05
0.00807059
2.26944e-05
0.0080498
2.07916e-05
1.77663e-05
0.0105038
0.000160817
-0.0106194
0.0103867
0.000161592
0.0102685
0.000162509
0.0101495
0.000163312
0.01003
0.000163849
0.0099102
0.000164043
0.00979043
0.000163854
0.00967095
0.000163273
0.00955206
0.000162307
0.00943403
0.000160967
0.00931713
0.000159267
0.00920162
0.000157217
0.00908776
0.00015483
0.00897577
0.00015212
0.0088659
0.000149106
0.00875835
0.000145808
0.00865332
0.000142243
0.00855101
0.000138431
0.00845158
0.00013439
0.00835521
0.000130137
0.00826203
0.000125691
0.00817219
0.000121066
0.00808581
0.000116278
0.00800301
0.00011134
0.00792391
0.000106258
0.00784863
0.000101029
0.00777728
9.56234e-05
0.00771001
8.99626e-05
0.00764696
8.38463e-05
7.68609e-05
0.0118802
0.00033431
-0.0120537
0.0117033
0.000338477
0.0115238
0.000342025
0.0113422
0.000344884
0.0111591
0.000346975
0.0109749
0.000348241
0.0107901
0.000348655
0.0106051
0.000348213
0.0104205
0.000346929
0.0102366
0.000344827
0.010054
0.000341923
0.00987297
0.00033824
0.00969399
0.000333808
0.00951745
0.000328658
0.00934373
0.000322826
0.00917319
0.000316351
0.00900616
0.000309271
0.00884297
0.000301622
0.00868391
0.000293443
0.00852928
0.00028477
0.00837933
0.000275638
0.00823432
0.00026608
0.00809447
0.000256128
0.00796
0.000245807
0.00783112
0.00023514
0.00770801
0.000224136
0.00759085
0.000212784
0.00747977
0.000201044
0.0073748
0.000188823
0.000176014
0.0131943
0.000554713
-0.0134147
0.0129688
0.000564015
0.0127389
0.000571889
0.0125055
0.000578334
0.0122691
0.000583319
0.0120306
0.000586818
0.0117904
0.00058882
0.0115493
0.000589339
0.0113078
0.000588402
0.0110666
0.000586033
0.0108263
0.000582262
0.0105874
0.000577127
0.0103505
0.000570674
0.0101162
0.000562958
0.00988499
0.000554036
0.00965738
0.000543967
0.00943384
0.000532813
0.00921482
0.000520634
0.00900078
0.000507492
0.0087921
0.000493445
0.00858919
0.000478552
0.0083924
0.000462867
0.00820208
0.000446444
0.00801856
0.00042933
0.00784213
0.000411571
0.00767306
0.000393203
0.0075116
0.000374253
0.0073579
0.000354739
0.00721205
0.000334671
0.000314099
0.0144398
0.000812077
-0.0146972
0.0141755
0.000828367
0.013905
0.000842372
0.0136292
0.0008541
0.013349
0.000863546
0.0130651
0.000870697
0.0127784
0.000875564
0.0124896
0.000878174
0.0121994
0.000878562
0.0119087
0.000876761
0.0116181
0.00087281
0.0113285
0.000866761
0.0110405
0.000858683
0.0107548
0.00084865
0.0104721
0.000836743
0.010193
0.000823045
0.00991817
0.000807642
0.00964818
0.000790622
0.0093836
0.000772071
0.00912497
0.000752074
0.00887281
0.000730715
0.0086276
0.000708074
0.00838982
0.000684231
0.00815989
0.00065926
0.00793822
0.000633238
0.00772518
0.000606237
0.00752111
0.000578332
0.00732624
0.000549603
0.00714077
0.000520145
0.000490102
0.0156118
0.00109756
-0.0158973
0.0153174
0.00112277
0.015015
0.0011448
0.0147054
0.00116362
0.0143897
0.00117924
0.0140688
0.00119166
0.0137435
0.00120088
0.0134147
0.00120694
0.0130834
0.0012099
0.0127503
0.00120977
0.0124165
0.00120662
0.0120828
0.0012005
0.01175
0.00119151
0.0114189
0.00117973
0.0110904
0.00116528
0.0107651
0.00114825
0.010444
0.00112877
0.0101277
0.00110693
0.00981691
0.00108287
0.00951229
0.00105669
0.00921451
0.00102849
0.00892419
0.0009984
0.00864191
0.000966512
0.00836823
0.000932936
0.00810369
0.000897782
0.00784876
0.000861164
0.00760388
0.000823209
0.00736943
0.000784059
0.00714569
0.000743885
0.000702906
0.0167069
0.00140335
-0.0170126
0.0163902
0.00143945
0.0160636
0.00147142
0.015728
0.00149922
0.0153844
0.00152283
0.0150338
0.00154224
0.0146772
0.00155746
0.0143156
0.00156853
0.01395
0.00157549
0.0135814
0.00157837
0.0132108
0.00157723
0.0128392
0.00157214
0.0124675
0.00156321
0.0120967
0.00155054
0.0117277
0.00153426
0.0113614
0.00151451
0.0109988
0.0014914
0.0106406
0.0014651
0.0102878
0.00143572
0.00994104
0.00140343
0.0096012
0.00136834
0.009269
0.0013306
0.00894517
0.00129034
0.00863041
0.0012477
0.00832537
0.00120282
0.00803067
0.00115587
0.00774687
0.00110701
0.00747447
0.00105645
0.00721391
0.00100445
0.000951287
0.0177232
0.00172257
-0.0180424
0.0173911
0.0017715
0.0170472
0.00181535
0.0166924
0.00185403
0.0163277
0.00188749
0.0159543
0.0019157
0.0155731
0.00193866
0.0151852
0.00195641
0.0147917
0.00196897
0.0143937
0.00197636
0.0139923
0.00197864
0.0135886
0.00197588
0.0131836
0.0019682
0.0127784
0.00195573
0.012374
0.0019386
0.0119716
0.00191696
0.011572
0.00189097
0.0111763
0.00186079
0.0107855
0.0018266
0.0104003
0.00178854
0.0100219
0.00174678
0.00965103
0.00170148
0.00928857
0.0016528
0.00893536
0.00160091
0.0085922
0.00154598
0.00825986
0.00148821
0.00793904
0.00142783
0.00763039
0.0013651
0.0073345
0.00130035
0.00123395
0.0186601
0.00204924
-0.0189868
0.0183187
0.00211289
0.0179636
0.00217051
0.0175957
0.00222195
0.017216
0.00226712
0.0168258
0.00230597
0.016426
0.00233847
0.0160177
0.00236465
0.0156022
0.0023845
0.0151805
0.00239802
0.0147539
0.00240525
0.0143235
0.00240629
0.0138905
0.00240124
0.013456
0.00239023
0.0130211
0.00237343
0.0125871
0.00235098
0.012155
0.00232307
0.0117259
0.00228988
0.0113009
0.00225158
0.0108811
0.00220837
0.0104675
0.00216042
0.010061
0.00210792
0.0096628
0.00205103
0.00927375
0.00198995
0.00889485
0.00192489
0.00852699
0.00185606
0.00817107
0.00178375
0.00782789
0.00170828
0.00749819
0.00163005
0.00154953
0.0195183
0.00237821
-0.0198472
0.0191728
0.00245837
0.0188117
0.00253155
0.0184361
0.00259758
0.0180469
0.0026563
0.0176453
0.0027076
0.0172323
0.00275147
0.0168091
0.00278785
0.0163769
0.00281673
0.0159368
0.00283807
0.0154902
0.00285191
0.0150381
0.00285832
0.014582
0.0028574
0.0141229
0.0028493
0.0136622
0.00283417
0.013201
0.00281217
0.0127405
0.0027835
0.0122821
0.00274835
0.0118267
0.00270691
0.0113757
0.00265939
0.0109302
0.00260597
0.0104912
0.00254685
0.0100601
0.00248221
0.00963775
0.00241226
0.00922543
0.0023372
0.00882419
0.00225731
0.00843507
0.00217287
0.00805906
0.00208428
0.00769709
0.00199202
0.00189666
0.020299
0.00270508
-0.0206259
0.019954
0.00280341
0.0195916
0.00289387
0.019213
0.00297621
0.0188191
0.00305023
0.0184109
0.00311578
0.0179896
0.00317277
0.0175563
0.00322114
0.0171122
0.00326081
0.0166586
0.0032917
0.0161967
0.00331384
0.0157277
0.00332728
0.015253
0.00333212
0.0147738
0.00332847
0.0142915
0.00331649
0.0138073
0.00329635
0.0133226
0.00326824
0.0128386
0.00323237
0.0123565
0.00318894
0.0118778
0.00313815
0.0114036
0.0030802
0.0109351
0.00301528
0.0104738
0.00294358
0.0100207
0.00286529
0.0095773
0.00278063
0.00914475
0.00268986
0.00872431
0.00259331
0.00831717
0.00249141
0.00792447
0.00238473
0.00227395
0.0210046
0.00302618
-0.0213257
0.0206638
0.00314419
0.0203042
0.0032535
0.0199267
0.00335378
0.0195321
0.00344476
0.0191217
0.00352623
0.0186964
0.00359807
0.0182574
0.00366015
0.0178058
0.00371234
0.017343
0.00375453
0.0168702
0.00378669
0.0163886
0.00380886
0.0158996
0.00382111
0.0154045
0.00382354
0.0149047
0.00381629
0.0144015
0.00379954
0.0138963
0.00377346
0.0133904
0.00373827
0.0128852
0.00369415
0.012382
0.00364133
0.0118822
0.00357998
0.0113872
0.00351029
0.0108984
0.00343243
0.0104171
0.00334657
0.00994482
0.00325291
0.00948299
0.00315169
0.00903307
0.00304323
0.00859648
0.00292801
0.00817455
0.00280665
0.00267999
0.021638
0.00333849
-0.0219503
0.0213047
0.00347753
0.0209511
0.00360709
0.0205781
0.00372678
0.0201866