/*--------------------------------*- C++ -*----------------------------------*\
  =========                 |
  \\      /  F ield         | OpenFOAM: The Open Source CFD Toolbox
   \\    /   O peration     | Website:  https://openfoam.org
    \\  /    A nd           | Version:  6.0
     \\/     M anipulation  |
\*---------------------------------------------------------------------------*/
FoamFile
{
    version     2.0;
    format      ascii;
    class       volVectorField;
    location    "3.752";
    object      U;
}
// * * * * * * * * * * * * * * * * * * * * * * * * * * * * * * * * * * * * * //

dimensions      [0 1 -1 0 0 0 0];

internalField   nonuniform List<vector> 
19200
(
(0.00651601 -0.476134 -4.52137e-22)
(0.0047456 -0.433308 2.50816e-22)
(0.0027264 -0.394674 1.29013e-22)
(0.00046448 -0.359899 1.25824e-22)
(-0.00191315 -0.328651 1.54375e-22)
(-0.00427343 -0.300616 8.11043e-24)
(-0.00652758 -0.2755 2.47344e-22)
(-0.00861447 -0.253031 -2.54086e-23)
(-0.010492 -0.232955 2.45476e-22)
(-0.0121333 -0.215042 1.07583e-22)
(-0.0135237 -0.199079 -1.09025e-23)
(-0.0146578 -0.184871 1.91599e-22)
(-0.015537 -0.172243 3.61353e-22)
(-0.0161685 -0.161034 -2.63384e-22)
(-0.0165635 -0.151097 3.5146e-22)
(-0.0167361 -0.142299 3.34165e-22)
(-0.016703 -0.134522 -3.28014e-22)
(-0.016482 -0.127655 6.00422e-22)
(-0.0160926 -0.121602 -4.02386e-22)
(-0.0155543 -0.116273 2.04397e-22)
(-0.0148874 -0.111589 3.16295e-22)
(-0.0141119 -0.107477 -1.13934e-22)
(-0.0132477 -0.103866 1.55291e-22)
(-0.0123141 -0.100691 -1.9704e-22)
(-0.0113297 -0.0978889 5.30467e-24)
(-0.0103135 -0.0954197 1.17567e-22)
(-0.0092833 -0.0932509 -7.95187e-23)
(-0.00824568 -0.0913589 4.40993e-23)
(-0.0071933 -0.089715 1.21777e-22)
(-0.0062229 -0.0882915 6.00658e-22)
(0.0190172 -0.475341 -1.10774e-22)
(0.0161484 -0.432005 7.93722e-22)
(0.0131811 -0.393031 -4.42559e-22)
(0.0101167 -0.35805 -6.78467e-22)
(0.00707121 -0.326709 -3.43395e-22)
(0.00416511 -0.298672 -2.62155e-22)
(0.00147493 -0.273627 -6.08866e-22)
(-0.000949414 -0.251284 7.29173e-23)
(-0.00307593 -0.231379 -1.19993e-22)
(-0.00488699 -0.213667 -5.09066e-22)
(-0.00637611 -0.197928 -1.45804e-21)
(-0.00754527 -0.183959 7.58564e-22)
(-0.00840281 -0.171578 -3.03775e-22)
(-0.00896187 -0.160617 1.16763e-22)
(-0.0092391 -0.150926 -7.98025e-22)
(-0.00925371 -0.142368 -3.22522e-22)
(-0.00902673 -0.134819 3.13057e-23)
(-0.00858037 -0.128169 1.214e-21)
(-0.00793756 -0.122317 -6.2972e-22)
(-0.00712159 -0.117171 -3.63514e-22)
(-0.00615569 -0.11265 -1.62481e-21)
(-0.00506293 -0.10868 4.31752e-22)
(-0.00386585 -0.105191 -2.92396e-22)
(-0.00258653 -0.102113 5.50599e-22)
(-0.00124608 -0.0993871 -2.78806e-22)
(0.000134118 -0.0969682 -4.53682e-22)
(0.00153317 -0.0948273 1.41814e-22)
(0.00294481 -0.0929394 2.58552e-22)
(0.00437976 -0.0912765 -4.41499e-22)
(0.00572434 -0.0898128 2.84372e-22)
(0.0314343 -0.474277 -5.36445e-23)
(0.0274532 -0.430475 1.42476e-22)
(0.0235504 -0.391212 2.37998e-22)
(0.0197021 -0.35608 2.36071e-21)
(0.0160116 -0.3247 -1.5029e-21)
(0.0125877 -0.296709 1.38939e-21)
(0.00949476 -0.271778 9.18937e-22)
(0.00677096 -0.249602 8.1491e-22)
(0.00443753 -0.229902 -8.32076e-22)
(0.00250238 -0.212424 -1.39962e-22)
(0.000963189 -0.196937 2.3736e-21)
(-0.00018994 -0.183232 4.53471e-22)
(-0.000972481 -0.17112 -1.27217e-21)
(-0.00140397 -0.160429 1.01281e-21)
(-0.00150684 -0.151002 -2.21047e-23)
(-0.00130551 -0.1427 4.98225e-22)
(-0.000825747 -0.135395 3.67208e-22)
(-9.40738e-05 -0.128974 1.4038e-21)
(0.000862609 -0.123333 -5.99112e-22)
(0.00201738 -0.118379 -1.94229e-22)
(0.0033436 -0.114029 -6.31084e-22)
(0.00481509 -0.110208 3.0037e-21)
(0.00640621 -0.106843 -2.61267e-21)
(0.00809237 -0.103867 8.44355e-22)
(0.00984962 -0.101217 4.92392e-22)
(0.0116538 -0.0988482 -1.89578e-21)
(0.0134812 -0.0967313 2.61472e-21)
(0.015325 -0.0948415 -2.64998e-22)
(0.0172007 -0.0931506 -3.14734e-22)
(0.0189739 -0.091637 -2.7354e-21)
(0.0437991 -0.47293 -1.66875e-21)
(0.0386857 -0.428731 -1.75791e-21)
(0.0338468 -0.389239 -2.36475e-21)
(0.0292278 -0.354014 1.1618e-23)
(0.0249146 -0.322646 1.46887e-22)
(0.0210022 -0.294752 -3.29391e-21)
(0.0175414 -0.269979 1.26498e-22)
(0.0145576 -0.248009 5.02116e-22)
(0.0120606 -0.22855 -6.69306e-23)
(0.010048 -0.211338 1.00826e-21)
(0.00850797 -0.196133 -4.06227e-21)
(0.00742237 -0.182719 -2.81252e-21)
(0.00676818 -0.170899 1.0068e-21)
(0.00651913 -0.160497 2.35571e-21)
(0.00664677 -0.151353 -2.76304e-21)
(0.00712123 -0.143323 -4.62008e-22)
(0.00791183 -0.136277 -1.87681e-21)
(0.00898754 -0.130097 -9.40876e-22)
(0.0103174 -0.124678 1.71296e-21)
(0.0118705 -0.119925 -2.26737e-21)
(0.0136168 -0.115753 2.14607e-21)
(0.0155266 -0.112086 -2.56229e-21)
(0.017571 -0.108852 -2.1711e-21)
(0.0197226 -0.105979 -1.69581e-21)
(0.021955 -0.103406 -4.41099e-22)
(0.0242409 -0.101087 -3.77473e-21)
(0.026553 -0.0989883 4.03973e-22)
(0.0288847 -0.0970893 7.60354e-22)
(0.031256 -0.0953597 -2.34079e-21)
(0.033509 -0.0937832 4.59828e-22)
(0.0561154 -0.471291 -9.76944e-22)
(0.0498548 -0.426778 1.70121e-22)
(0.0440799 -0.387125 1.57901e-21)
(0.0387034 -0.351869 1.81283e-21)
(0.0337907 -0.32057 1.4268e-21)
(0.0294204 -0.292822 6.35119e-22)
(0.025628 -0.268253 1.02531e-21)
(0.0224251 -0.24653 5.20784e-21)
(0.0198092 -0.227349 -3.20789e-21)
(0.0177666 -0.210435 6.66267e-23)
(0.0162757 -0.19554 8.41837e-22)
(0.0153095 -0.182441 4.21042e-21)
(0.0148371 -0.170937 -2.98267e-21)
(0.0148252 -0.160846 2.30348e-21)
(0.015239 -0.152003 -2.76274e-21)
(0.016043 -0.144262 4.99098e-21)
(0.0172015 -0.137488 -1.49389e-21)
(0.0186788 -0.131562 5.69207e-23)
(0.0204396 -0.126376 2.83569e-21)
(0.0224493 -0.121834 2.18008e-21)
(0.0246737 -0.117847 -2.22678e-21)
(0.0270795 -0.11434 3.2089e-21)
(0.0296347 -0.111238 -1.57148e-21)
(0.0323085 -0.108472 1.85332e-21)
(0.0350718 -0.105977 2.69322e-21)
(0.037894 -0.103704 1.10016e-21)
(0.0407446 -0.101621 3.40933e-21)
(0.0436162 -0.0997029 -1.07832e-21)
(0.0465351 -0.0979219 -2.84499e-22)
(0.0493157 -0.0962678 -2.36166e-21)
(0.0683798 -0.469359 -7.22897e-22)
(0.0609636 -0.424619 -5.24677e-22)
(0.054257 -0.384882 -1.80992e-21)
(0.0481392 -0.34966 -5.2319e-21)
(0.0426524 -0.318489 1.7514e-21)
(0.0378567 -0.290938 1.38153e-22)
(0.0337709 -0.26662 -1.43077e-21)
(0.0303915 -0.245185 3.59123e-22)
(0.0277026 -0.226317 -1.74015e-22)
(0.0256787 -0.209734 -4.63152e-21)
(0.0242877 -0.195178 1.93427e-21)
(0.0234932 -0.182421 3.72126e-21)
(0.0232561 -0.171255 -2.47937e-23)
(0.0235358 -0.161494 1.54508e-21)
(0.024291 -0.15297 4.19728e-21)
(0.0254803 -0.145533 -3.05768e-21)
(0.0270628 -0.139046 5.65423e-21)
(0.0289979 -0.133387 -2.89432e-21)
(0.0312461 -0.128445 5.40047e-21)
(0.0337686 -0.124122 -4.23866e-21)
(0.0365274 -0.120329 1.95609e-21)
(0.0394854 -0.116985 5.67214e-21)
(0.042607 -0.114021 5.45687e-22)
(0.0458581 -0.111361 -5.70464e-21)
(0.049206 -0.108946 3.33635e-21)
(0.0526168 -0.106718 4.18262e-22)
(0.056056 -0.104644 -1.2447e-21)
(0.0595166 -0.102699 4.83175e-21)
(0.0630313 -0.100852 1.90253e-21)
(0.0663835 -0.0991033 -1.98465e-21)
(0.0805874 -0.467138 2.1207e-21)
(0.0720133 -0.422261 1.19861e-22)
(0.0643849 -0.382518 -3.68863e-21)
(0.0575459 -0.347399 7.87993e-22)
(0.0515135 -0.316416 -1.28102e-21)
(0.0463278 -0.289117 8.51515e-22)
(0.0419891 -0.265096 2.18242e-21)
(0.0384778 -0.24399 4.42692e-21)
(0.0357635 -0.225473 -5.15672e-21)
(0.0338083 -0.209252 1.26555e-21)
(0.0325688 -0.195064 -1.09106e-21)
(0.031999 -0.182672 8.26977e-22)
(0.032051 -0.171866 -3.69636e-21)
(0.0326767 -0.162456 -3.45974e-22)
(0.033828 -0.154268 6.86175e-21)
(0.0354577 -0.147151 -4.79135e-21)
(0.0375192 -0.140965 -3.33649e-21)
(0.0399673 -0.135584 -2.70168e-21)
(0.0427578 -0.130898 4.84739e-21)
(0.0458476 -0.126803 1.17091e-21)
(0.049195 -0.12321 -5.43335e-21)
(0.0527593 -0.120038 7.67222e-21)
(0.056501 -0.117212 -7.17593e-21)
(0.0603823 -0.114663 5.06668e-21)
(0.0643667 -0.112323 -2.96111e-21)
(0.0684159 -0.110138 2.06384e-21)
(0.0724918 -0.108068 1.72049e-21)
(0.0765877 -0.106086 -7.62798e-21)
(0.0807428 -0.104159 3.35922e-21)
(0.084707 -0.102298 7.86701e-23)
(0.0927328 -0.464633 -2.10449e-21)
(0.083005 -0.41971 1.796e-21)
(0.0744702 -0.380042 -3.97996e-21)
(0.0669348 -0.345098 7.88178e-21)
(0.0603895 -0.314365 -2.34874e-21)
(0.0548524 -0.287372 3.74381e-21)
(0.0503042 -0.263695 7.03536e-23)
(0.0467078 -0.24296 -4.90502e-22)
(0.0440178 -0.22483 -9.37654e-22)
(0.0421826 -0.209002 -6.03243e-23)
(0.0411474 -0.195209 -4.06525e-21)
(0.0408559 -0.183208 2.13951e-21)
(0.0412512 -0.172783 -2.89493e-21)
(0.0422773 -0.163741 -1.99832e-22)
(0.0438793 -0.155907 -9.10836e-21)
(0.0460037 -0.149124 3.00089e-21)
(0.0485985 -0.143251 1.98605e-21)
(0.0516135 -0.138162 -2.2546e-21)
(0.0549998 -0.13374 -2.54484e-22)
(0.0587102 -0.129883 -3.89401e-21)
(0.0626989 -0.126499 -1.47599e-21)
(0.0669212 -0.123503 2.17801e-22)
(0.0713342 -0.120821 -3.97143e-21)
(0.0758957 -0.118382 -6.38087e-21)
(0.0805654 -0.116119 2.18743e-22)
(0.0853008 -0.113971 -8.16249e-22)
(0.0900594 -0.1119 2.34036e-21)
(0.0948341 -0.109871 -6.05465e-21)
(0.099672 -0.107848 5.40307e-21)
(0.104285 -0.105855 -1.2273e-20)
(0.104811 -0.461845 -5.15434e-21)
(0.0939396 -0.416972 7.10476e-21)
(0.0845199 -0.377463 -8.24052e-21)
(0.0763183 -0.342766 -2.47487e-21)
(0.069297 -0.312347 -1.75737e-21)
(0.063451 -0.285714 -2.03373e-21)
(0.0587399 -0.262429 -1.90098e-21)
(0.0551081 -0.242106 -3.37764e-22)
(0.052494 -0.224397 -2.12071e-21)
(0.0508321 -0.208994 -5.05156e-22)
(0.0500554 -0.195621 4.3795e-21)
(0.0500967 -0.184033 -2.29388e-21)
(0.05089 -0.174009 -3.1095e-21)
(0.0523711 -0.165353 -5.83288e-21)
(0.0544781 -0.157887 1.27489e-20)
(0.057151 -0.151453 -5.16448e-21)
(0.0603325 -0.145906 2.0422e-21)
(0.0639671 -0.141118 -8.24669e-21)
(0.0680015 -0.136972 3.21412e-21)
(0.0723841 -0.133362 -1.49121e-21)
(0.077065 -0.130192 1.80362e-21)
(0.0819955 -0.127379 -7.04568e-22)
(0.0871284 -0.124845 6.70345e-21)
(0.0924178 -0.122518 -2.4637e-21)
(0.0978192 -0.120331 7.34946e-21)
(0.103286 -0.11822 -1.82369e-21)
(0.10877 -0.11614 1.02527e-20)
(0.114265 -0.114056 3.20844e-21)
(0.119824 -0.111919 6.22932e-21)
(0.125118 -0.109773 -2.15056e-20)
(0.116816 -0.45878 8.12483e-21)
(0.104819 -0.414054 -1.67023e-21)
(0.0945419 -0.374788 3.63535e-21)
(0.0857097 -0.340412 -1.11542e-21)
(0.0782543 -0.31037 4.03426e-21)
(0.072146 -0.284152 4.19277e-21)
(0.0673221 -0.261307 5.09047e-21)
(0.0637076 -0.241435 -4.96274e-22)
(0.0612238 -0.224182 -5.69107e-21)
(0.0597905 -0.209233 8.52342e-21)
(0.0593278 -0.196305 -9.1456e-22)
(0.0597575 -0.185151 6.80178e-21)
(0.0610041 -0.175546 2.66372e-21)
(0.0629951 -0.167292 9.34323e-22)
(0.065661 -0.160208 1.64681e-21)
(0.0689359 -0.154134 2.45038e-21)
(0.0727564 -0.148925 4.47158e-21)
(0.0770623 -0.144448 -1.44449e-21)
(0.0817955 -0.140586 7.40513e-21)
(0.0869002 -0.13723 3.74e-21)
(0.0923223 -0.134284 -7.98764e-21)
(0.098009 -0.131659 1.5022e-20)
(0.103909 -0.129276 -2.08026e-20)
(0.109972 -0.127064 2.06121e-20)
(0.116149 -0.12495 -7.1001e-21)
(0.122389 -0.122875 1.29241e-21)
(0.128639 -0.120783 -1.04788e-20)
(0.134891 -0.118633 5.9428e-21)
(0.141207 -0.116369 2.31835e-21)
(0.147214 -0.114048 -3.20596e-21)
(0.128744 -0.455439 -4.65843e-21)
(0.115645 -0.41096 5.40665e-21)
(0.104545 -0.372023 -1.53678e-21)
(0.0951234 -0.338042 4.76908e-21)
(0.0872811 -0.308441 4.93599e-22)
(0.0809617 -0.282693 1.3696e-21)
(0.0760792 -0.260333 -1.0056e-20)
(0.0725379 -0.240952 -1.95641e-21)
(0.0702414 -0.224188 7.42865e-21)
(0.0690941 -0.209719 6.25837e-21)
(0.0690028 -0.19726 -1.10668e-20)
(0.0698779 -0.186559 6.8877e-21)
(0.0716339 -0.177389 -7.1621e-21)
(0.0741897 -0.16955 5.43019e-21)
(0.0774687 -0.16286 -9.48012e-21)
(0.0813981 -0.157156 -7.63508e-21)
(0.0859094 -0.152293 2.43032e-22)
(0.0909369 -0.148137 -4.05e-21)
(0.0964181 -0.144567 7.01748e-21)
(0.102293 -0.141474 3.0427e-21)
(0.108503 -0.138757 -1.99162e-21)
(0.114992 -0.136326 -5.81434e-22)
(0.121704 -0.1341 2.89168e-21)
(0.128584 -0.132003 -9.58093e-21)
(0.13558 -0.129965 1.67356e-20)
(0.142633 -0.127921 -4.03509e-21)
(0.149687 -0.125815 -5.17741e-22)
(0.156731 -0.12359 1.68313e-20)
(0.163836 -0.121184 2.67637e-21)
(0.17058 -0.118668 -2.6725e-21)
(0.140589 -0.451827 2.10495e-22)
(0.126421 -0.407695 -2.76482e-21)
(0.114538 -0.369174 -2.86499e-21)
(0.104575 -0.335662 -5.15546e-21)
(0.0963985 -0.306566 1.93076e-22)
(0.0899241 -0.281342 -4.46127e-21)
(0.0850412 -0.259512 5.34457e-21)
(0.0816327 -0.240659 -5.24439e-22)
(0.0795836 -0.224414 5.30234e-21)
(0.0787822 -0.21045 -4.20138e-21)
(0.0791216 -0.19848 -2.39255e-21)
(0.0805003 -0.188248 1.40076e-21)
(0.0828226 -0.179526 8.10856e-22)
(0.0859988 -0.172113 -9.05813e-21)
(0.0899446 -0.165826 5.46726e-21)
(0.0945809 -0.160501 -3.06546e-21)
(0.0998334 -0.155992 8.72203e-21)
(0.105632 -0.152162 -3.08868e-21)
(0.111908 -0.148891 3.30299e-21)
(0.1186 -0.146067 9.11121e-22)
(0.125643 -0.143586 6.44848e-21)
(0.132977 -0.141356 -1.26317e-21)
(0.140543 -0.139291 1.17324e-20)
(0.148282 -0.137313 -1.33401e-20)
(0.156136 -0.135352 -4.88422e-21)
(0.164041 -0.133336 4.16496e-21)
(0.171934 -0.131212 -2.43663e-22)
(0.179803 -0.128907 -7.99208e-21)
(0.187726 -0.126344 6.658e-21)
(0.195231 -0.123615 -8.97421e-21)
(0.152348 -0.447946 8.03413e-21)
(0.137149 -0.404264 2.43963e-21)
(0.124532 -0.366246 3.1968e-21)
(0.114082 -0.333278 4.77109e-21)
(0.105629 -0.30475 7.64897e-21)
(0.099061 -0.2801 -2.47409e-22)
(0.0942405 -0.258844 1.13588e-21)
(0.0910282 -0.240554 1.05235e-20)
(0.0892896 -0.224856 -2.14223e-21)
(0.0888966 -0.21142 -4.43436e-21)
(0.0897279 -0.199955 8.25435e-21)
(0.0916699 -0.190206 1.6123e-21)
(0.0946164 -0.181943 2.93755e-23)
(0.0984688 -0.174963 2.21974e-21)
(0.103135 -0.169084 4.43927e-21)
(0.10853 -0.164143 -9.81551e-21)
(0.114574 -0.159992 8.60857e-21)
(0.12119 -0.156494 1.54823e-21)
(0.128308 -0.153526 9.6088e-21)
(0.13586 -0.150976 -5.30672e-21)
(0.143778 -0.148737 9.45416e-21)
(0.152 -0.146713 -1.05283e-20)
(0.16046 -0.144816 1.06324e-20)
(0.169096 -0.142963 1.81615e-21)
(0.177845 -0.141079 -7.7027e-21)
(0.186637 -0.139094 -2.86335e-21)
(0.195402 -0.136945 1.65069e-20)
(0.204126 -0.134556 1.24143e-20)
(0.212894 -0.131824 3.44414e-21)
(0.221182 -0.128867 -3.06493e-21)
(0.164016 -0.443802 8.50005e-22)
(0.147835 -0.400671 2.29517e-21)
(0.134539 -0.363243 1.00277e-20)
(0.123662 -0.330893 -1.69402e-20)
(0.114997 -0.302993 -1.89521e-21)
(0.108402 -0.27897 -2.06133e-21)
(0.103711 -0.258327 9.14571e-22)
(0.100762 -0.240633 1.4328e-21)
(0.0994006 -0.225507 2.60631e-21)
(0.0994812 -0.212617 -7.30891e-21)
(0.100868 -0.201673 -1.7534e-21)
(0.103434 -0.192415 4.48176e-21)
(0.107064 -0.184616 5.41431e-21)
(0.111649 -0.178074 -5.40672e-21)
(0.11709 -0.172607 -6.06956e-21)
(0.123294 -0.168051 9.54565e-21)
(0.130177 -0.164258 6.85886e-21)
(0.137658 -0.161092 -1.62801e-21)
(0.145661 -0.158431 -4.7696e-21)
(0.154115 -0.156157 9.66843e-22)
(0.162949 -0.154164 -1.2496e-20)
(0.172095 -0.152353 1.56293e-20)
(0.181486 -0.150629 -1.1142e-20)
(0.191054 -0.148907 -6.52236e-22)
(0.200732 -0.147105 7.97562e-21)
(0.210445 -0.145153 -2.6437e-21)
(0.220111 -0.142979 -8.52059e-21)
(0.22972 -0.140501 1.06571e-20)
(0.239358 -0.137593 -3.382e-22)
(0.248444 -0.134392 2.26907e-21)
(0.17559 -0.439396 -5.52053e-22)
(0.158482 -0.396921 -2.28588e-21)
(0.14457 -0.36017 -1.15924e-20)
(0.133334 -0.328509 4.23215e-21)
(0.124528 -0.301297 -1.49634e-21)
(0.117977 -0.277948 4.89166e-21)
(0.113488 -0.257958 3.64467e-22)
(0.110874 -0.240888 -6.73056e-21)
(0.10996 -0.226356 1.06445e-20)
(0.110582 -0.214028 -1.00759e-20)
(0.112589 -0.203613 -5.67591e-22)
(0.115843 -0.194853 2.78534e-21)
(0.120216 -0.187521 -5.03559e-21)
(0.12559 -0.181416 6.20911e-21)
(0.131859 -0.176357 -1.22971e-20)
(0.138924 -0.172183 -3.21845e-21)
(0.146693 -0.168746 7.98289e-21)
(0.155082 -0.165911 -2.09406e-22)
(0.164012 -0.163553 -6.10907e-21)
(0.173406 -0.161557 1.66576e-20)
(0.183192 -0.159813 -8.9586e-21)
(0.193298 -0.158218 -1.30544e-20)
(0.203653 -0.156675 4.60458e-21)
(0.214186 -0.155092 -1.40694e-20)
(0.224824 -0.153381 -3.74073e-21)
(0.235486 -0.151465 -6.57538e-22)
(0.246083 -0.14927 -1.07139e-20)
(0.256599 -0.1467 1.27947e-20)
(0.267129 -0.143611 -7.60254e-21)
(0.277029 -0.140154 9.81653e-21)
(0.187066 -0.434733 -2.86251e-21)
(0.169095 -0.393017 -9.30232e-21)
(0.154638 -0.357028 5.07095e-21)
(0.143119 -0.326128 -5.12899e-21)
(0.134249 -0.299662 -4.13748e-21)
(0.127819 -0.277033 -2.6584e-21)
(0.123609 -0.257729 -9.89802e-21)
(0.121405 -0.241309 7.01087e-21)
(0.121011 -0.22739 -1.84781e-20)
(0.122246 -0.215635 -7.43783e-21)
(0.124942 -0.205755 2.43155e-21)
(0.128948 -0.197494 4.67886e-21)
(0.134124 -0.190626 1.09395e-22)
(0.140345 -0.184952 -1.00886e-20)
(0.147495 -0.180295 2.41846e-21)
(0.155469 -0.176495 -1.04024e-20)
(0.164171 -0.173405 -8.03468e-21)
(0.173511 -0.170893 -5.29831e-21)
(0.183405 -0.168835 -1.44495e-21)
(0.193776 -0.167113 8.90318e-21)
(0.204547 -0.165618 1.37713e-20)
(0.215643 -0.164243 -4.33727e-21)
(0.226991 -0.162886 -4.49336e-21)
(0.238516 -0.16145 8.838e-21)
(0.250141 -0.159841 5.23105e-21)
(0.261777 -0.157971 -4.16224e-21)
(0.273329 -0.155763 -4.98587e-21)
(0.284774 -0.153104 4.51663e-22)
(0.296216 -0.14983 5.73956e-21)
(0.306944 -0.146114 8.69184e-21)
(0.19844 -0.429817 -7.27118e-22)
(0.17968 -0.388962 1.20711e-20)
(0.164758 -0.353821 1.02526e-20)
(0.153037 -0.32375 8.56285e-21)
(0.144186 -0.298084 -5.73842e-21)
(0.137962 -0.276217 -1.21541e-21)
(0.134112 -0.257632 1.04607e-21)
(0.132398 -0.241885 9.00782e-21)
(0.132601 -0.228591 3.62469e-21)
(0.134521 -0.217417 9.27468e-21)
(0.137976 -0.208073 -1.36022e-20)
(0.142799 -0.200306 1.28824e-21)
(0.148842 -0.193894 6.06749e-21)
(0.155967 -0.188641 4.03978e-21)
(0.164051 -0.184373 9.11849e-21)
(0.172983 -0.180933 -6.0325e-21)
(0.182661 -0.178177 -6.2609e-21)
(0.192991 -0.175976 9.97839e-22)
(0.203886 -0.174206 1.45747e-20)
(0.215266 -0.172752 -2.44233e-20)
(0.22705 -0.171501 8.65559e-21)
(0.239163 -0.170346 -1.37608e-22)
(0.251528 -0.169181 1.85049e-20)
(0.264067 -0.167902 -8.03562e-21)
(0.276699 -0.166407 -2.77132e-22)
(0.28933 -0.164599 -5.719e-21)
(0.301855 -0.162389 5.53633e-21)
(0.31425 -0.159653 1.41632e-21)
(0.326619 -0.156194 -7.0288e-21)
(0.338191 -0.152223 2.59522e-20)
(0.209709 -0.424651 -1.14952e-20)
(0.190244 -0.384761 -7.45262e-21)
(0.174945 -0.35055 -2.05818e-20)
(0.163111 -0.321374 -1.02396e-20)
(0.154369 -0.296561 9.86252e-21)
(0.148438 -0.275495 -6.39568e-21)
(0.145035 -0.257656 -1.81351e-21)
(0.143894 -0.2426 -4.81283e-21)
(0.144774 -0.229942 8.26883e-21)
(0.147456 -0.21935 -2.01924e-21)
(0.151742 -0.210538 -3.27481e-21)
(0.157451 -0.203256 -4.65749e-22)
(0.164421 -0.197287 -1.56567e-20)
(0.172508 -0.192438 -1.17871e-21)
(0.181579 -0.18854 4.15832e-21)
(0.191517 -0.185439 -5.63946e-22)
(0.202213 -0.182998 -1.93648e-20)
(0.213571 -0.181088 1.95845e-20)
(0.225499 -0.17959 -2.02747e-20)
(0.237914 -0.178389 8.14905e-21)
(0.250736 -0.177374 1.18255e-21)
(0.263887 -0.176436 5.12194e-22)
(0.277287 -0.175465 -9.81469e-21)
(0.290857 -0.174352 3.54766e-21)
(0.304512 -0.172985 7.72444e-23)
(0.318153 -0.171259 1.30733e-21)
(0.331668 -0.169071 -2.94164e-20)
(0.345028 -0.166276 7.64238e-21)
(0.358344 -0.162651 8.93623e-21)
(0.370769 -0.15843 1.20022e-20)
(0.220872 -0.419239 2.27878e-20)
(0.200794 -0.380414 9.15198e-21)
(0.185212 -0.347214 5.6418e-21)
(0.173364 -0.318998 9.20747e-21)
(0.164826 -0.295086 -1.29478e-21)
(0.159283 -0.274857 7.93933e-21)
(0.156417 -0.257788 1.87628e-20)
(0.155937 -0.243436 -2.32729e-21)
(0.157577 -0.231419 1.25567e-21)
(0.1611 -0.221407 2.62788e-20)
(0.16629 -0.213118 -3.33426e-21)
(0.172952 -0.206307 4.03667e-21)
(0.180915 -0.200761 -1.7622e-21)
(0.190021 -0.196294 -6.65358e-22)
(0.200132 -0.192739 2.40712e-20)
(0.211121 -0.189952 9.32154e-22)
(0.222876 -0.187797 2.84454e-20)
(0.235296 -0.186151 -3.41208e-21)
(0.248286 -0.184901 -6.80028e-21)
(0.26176 -0.183933 1.62813e-20)
(0.275638 -0.183139 -1.58141e-20)
(0.28984 -0.182409 1.77117e-20)
(0.304287 -0.181632 1.00395e-20)
(0.318898 -0.180691 -8.7039e-21)
(0.333586 -0.179469 1.32346e-20)
(0.348248 -0.177847 1.56558e-21)
(0.362764 -0.175709 -6.39496e-21)
(0.377103 -0.172887 2.83018e-21)
(0.391377 -0.16912 2.31229e-20)
(0.404666 -0.164675 3.9446e-21)
(0.231925 -0.413585 -3.91086e-21)
(0.211336 -0.375926 -9.00053e-21)
(0.195578 -0.343816 4.08908e-21)
(0.183818 -0.316619 -1.66463e-20)
(0.175588 -0.293653 8.53777e-21)
(0.17053 -0.274291 -1.63993e-20)
(0.168297 -0.258013 -1.16903e-20)
(0.168568 -0.244375 3.2998e-21)
(0.171054 -0.232998 3.93337e-21)
(0.175499 -0.223559 -1.76964e-20)
(0.181668 -0.215779 -8.2157e-21)
(0.189355 -0.209419 4.13713e-21)
(0.198373 -0.204272 -1.1348e-20)
(0.208557 -0.200156 -4.83267e-21)
(0.219758 -0.196914 -3.47096e-21)
(0.231844 -0.194404 -3.58285e-21)
(0.244697 -0.1925 -1.58708e-20)
(0.25821 -0.191085 -1.06801e-20)
(0.272286 -0.190048 1.56983e-21)
(0.286839 -0.189284 3.59355e-21)
(0.301785 -0.188688 4.259e-21)
(0.317046 -0.18815 -1.46103e-20)
(0.332544 -0.18756 5.77851e-21)
(0.348198 -0.186797 -1.22788e-20)
(0.36392 -0.185735 1.22484e-20)
(0.379605 -0.184243 -1.62134e-20)
(0.395127 -0.182191 5.59622e-21)
(0.410451 -0.179382 -8.35642e-21)
(0.425692 -0.175514 -1.26228e-20)
(0.439852 -0.170881 -1.49422e-21)
(0.242866 -0.407693 -8.35375e-21)
(0.22188 -0.371298 -8.12757e-21)
(0.206057 -0.340352 -8.66922e-21)
(0.194497 -0.314232 -7.08483e-21)
(0.186682 -0.292252 2.18863e-20)
(0.182215 -0.273786 3.40459e-21)
(0.180713 -0.258313 1.04502e-20)
(0.181828 -0.245393 1.69619e-20)
(0.185249 -0.234654 8.85671e-21)
(0.190697 -0.225775 -1.17622e-20)
(0.197923 -0.218486 2.07693e-20)
(0.206704 -0.212552 -2.06842e-20)
(0.216843 -0.207772 2.06716e-20)
(0.228162 -0.203973 2.65177e-21)
(0.240505 -0.201004 5.75305e-21)
(0.253732 -0.198731 1.8112e-21)
(0.267719 -0.197033 2.56395e-20)
(0.282354 -0.195803 -3.87514e-21)
(0.297538 -0.194938 3.72118e-21)
(0.313182 -0.194339 1.32611e-20)
(0.329203 -0.193905 -1.50831e-20)
(0.345524 -0.193535 1.26845e-20)
(0.362067 -0.193117 5.94802e-22)
(0.378755 -0.19253 6.17252e-21)
(0.395503 -0.191641 1.17711e-20)
(0.412203 -0.190309 -2.04956e-21)
(0.428727 -0.188385 1.24714e-20)
(0.445036 -0.185643 1.89486e-20)
(0.461249 -0.181727 -2.05444e-20)
(0.476288 -0.176963 -1.47197e-20)
(0.253694 -0.401567 2.52352e-20)
(0.232432 -0.36653 -2.93586e-21)
(0.216666 -0.336821 6.64579e-21)
(0.205425 -0.31183 1.31338e-20)
(0.198139 -0.290873 -3.9646e-20)
(0.194369 -0.273325 4.49749e-21)
(0.193701 -0.258667 -1.69248e-20)
(0.195757 -0.246467 1.79322e-20)
(0.200203 -0.236357 -1.4662e-20)
(0.206738 -0.228023 8.84632e-21)
(0.215097 -0.2212 -3.23311e-20)
(0.225044 -0.215662 4.1204e-22)
(0.236367 -0.211215 -1.23066e-20)
(0.24888 -0.207693 1.8602e-20)
(0.262415 -0.204951 -2.06555e-20)
(0.276827 -0.202864 -1.1842e-21)
(0.291982 -0.201322 -1.85696e-20)
(0.307767 -0.200223 -1.73375e-21)
(0.324077 -0.199475 1.79323e-21)
(0.340821 -0.198987 4.89458e-21)
(0.357917 -0.19867 -2.70679e-20)
(0.375288 -0.198428 -9.7215e-22)
(0.392861 -0.198156 -1.63275e-20)
(0.410564 -0.197735 -3.975e-21)
(0.428315 -0.197027 -1.0856e-20)
(0.446011 -0.195883 -1.23491e-20)
(0.463521 -0.194136 -1.35207e-20)
(0.480807 -0.191524 2.20301e-20)
(0.497991 -0.187635 6.11309e-21)
(0.513914 -0.182814 -1.41424e-20)
(0.264407 -0.395209 -1.6847e-20)
(0.243001 -0.361623 6.74768e-21)
(0.227423 -0.333219 -1.25253e-20)
(0.216625 -0.309405 1.94281e-21)
(0.209986 -0.289503 2.29947e-20)
(0.207026 -0.272891 -1.20399e-20)
(0.207296 -0.259055 -1.37692e-20)
(0.210391 -0.247571 -1.20375e-20)
(0.215951 -0.238077 4.4924e-22)
(0.223658 -0.230267 8.37602e-21)
(0.233229 -0.223885 -6.70004e-21)
(0.244412 -0.218709 -4.37488e-23)
(0.256984 -0.214555 2.25206e-20)
(0.270747 -0.211264 -1.16854e-20)
(0.285525 -0.208699 3.50669e-21)
(0.301163 -0.206743 -1.06086e-20)
(0.317522 -0.205295 4.06055e-21)
(0.334481 -0.204263 9.41123e-21)
(0.351933 -0.203566 1.14325e-20)
(0.369783 -0.203125 -1.27361e-20)
(0.387948 -0.202861 1.86063e-21)
(0.406355 -0.202691 1.18886e-20)
(0.424933 -0.202521 2.15595e-20)
(0.443618 -0.202239 6.16444e-21)
(0.462335 -0.201709 -2.3538e-20)
(0.480991 -0.200776 2.84863e-20)
(0.499457 -0.199257 -1.44361e-20)
(0.517699 -0.196852 -1.80138e-20)
(0.535848 -0.193082 -1.14298e-20)
(0.552659 -0.188305 -1.82424e-20)
(0.275002 -0.388624 9.23592e-21)
(0.253597 -0.356577 -7.97842e-21)
(0.238343 -0.32954 2.95305e-21)
(0.22812 -0.306946 1.80182e-20)
(0.22225 -0.288127 5.20793e-21)
(0.220215 -0.272463 -4.76822e-21)
(0.22153 -0.259452 1.17827e-20)
(0.225762 -0.248675 2.44449e-21)
(0.232528 -0.239781 1.24593e-20)
(0.241491 -0.232473 7.20575e-21)
(0.25235 -0.2265 1.89617e-22)
(0.264839 -0.22165 5.02368e-21)
(0.278723 -0.217747 -1.67072e-21)
(0.293793 -0.214638 3.05204e-21)
(0.309863 -0.212195 8.94378e-21)
(0.32677 -0.210309 -5.19719e-21)
(0.344366 -0.208888 1.33726e-20)
(0.362525 -0.207851 1.42661e-20)
(0.381134 -0.207128 -1.6948e-20)
(0.400094 -0.206652 1.76365e-20)
(0.419322 -0.206361 3.9651e-20)
(0.438743 -0.206186 -2.63606e-20)
(0.458294 -0.20605 2.76954e-20)
(0.477915 -0.205856 -1.97541e-20)
(0.497546 -0.205479 -2.97163e-21)
(0.517106 -0.204765 2.29815e-20)
(0.536478 -0.203522 -4.54568e-21)
(0.555641 -0.201412 1.83717e-20)
(0.574738 -0.197875 1.89214e-20)
(0.592444 -0.193272 -4.17246e-20)
(0.28548 -0.381814 -9.04213e-21)
(0.264228 -0.35139 4.32065e-21)
(0.249446 -0.325778 2.06353e-21)
(0.239932 -0.304442 -2.13736e-20)
(0.234958 -0.286725 -1.18826e-20)
(0.233963 -0.272018 9.3949e-21)
(0.236431 -0.259828 -2.75889e-20)
(0.241898 -0.249748 3.499e-20)
(0.249961 -0.241435 -2.05246e-20)
(0.260262 -0.234602 2.56768e-21)
(0.272484 -0.229006 -3.8886e-21)
(0.286348 -0.224444 -1.38306e-20)
(0.301605 -0.220747 2.93486e-20)
(0.318037 -0.21777 1.20022e-20)
(0.335448 -0.215393 -1.23855e-20)
(0.353664 -0.213514 3.09034e-22)
(0.372533 -0.21205 7.66661e-21)
(0.391918 -0.210929 -1.74742e-20)
(0.411701 -0.210092 3.64856e-21)
(0.431779 -0.209488 1.29977e-20)
(0.452063 -0.209067 -5.47896e-21)
(0.472478 -0.208784 9.877e-21)
(0.492964 -0.208583 -1.9728e-20)
(0.513469 -0.20839 2.95551e-20)
(0.533947 -0.208105 7.50443e-21)
(0.554334 -0.207589 -1.96867e-20)
(0.574538 -0.206653 -1.79806e-20)
(0.594563 -0.204926 -4.05023e-22)
(0.61458 -0.201759 2.55571e-20)
(0.633182 -0.197493 -7.38699e-21)
(0.295839 -0.374781 -2.56784e-21)
(0.274905 -0.34606 -2.00036e-20)
(0.260746 -0.321923 2.45233e-20)
(0.252083 -0.301875 1.75999e-20)
(0.248132 -0.285277 1.87759e-20)
(0.248295 -0.27153 5.80441e-21)
(0.252022 -0.260155 8.71635e-21)
(0.258822 -0.250756 4.71755e-21)
(0.268271 -0.243002 -1.96117e-20)
(0.27999 -0.236614 3.69517e-20)
(0.293647 -0.231362 -3.19742e-20)
(0.308951 -0.22705 -2.60399e-21)
(0.325641 -0.223515 4.75444e-21)
(0.343487 -0.220621 -2.397e-20)
(0.362284 -0.218254 2.14444e-20)
(0.381851 -0.216321 -6.55652e-21)
(0.402027 -0.214743 -1.79098e-20)
(0.422668 -0.213457 7.44517e-21)
(0.443648 -0.212415 -1.42907e-20)
(0.464856 -0.211576 -1.32148e-20)
(0.486198 -0.210909 -1.48684e-20)
(0.507596 -0.210387 3.46829e-21)
(0.528986 -0.209983 2.34696e-21)
(0.550323 -0.209657 -3.99875e-20)
(0.571572 -0.209344 -1.60847e-20)
(0.592694 -0.208946 1.00711e-20)
(0.613626 -0.2083 1.3283e-20)
(0.634422 -0.207023 -1.87001e-20)
(0.655308 -0.204374 -7.46906e-21)
(0.674807 -0.200647 1.24591e-21)
(0.30608 -0.367528 -1.90209e-21)
(0.28564 -0.340581 1.29304e-20)
(0.272264 -0.317963 -3.74892e-21)
(0.264593 -0.299226 -4.71305e-21)
(0.261794 -0.283756 -2.93672e-20)
(0.263231 -0.270968 -7.08842e-21)
(0.268322 -0.260397 1.35024e-20)
(0.276551 -0.251661 -9.52455e-21)
(0.28747 -0.244441 -1.18944e-21)
(0.300684 -0.23847 -1.96289e-21)
(0.315846 -0.233527 1.22318e-20)
(0.33265 -0.229425 -1.97175e-20)
(0.350825 -0.22601 -1.39428e-20)
(0.370133 -0.223153 1.71116e-20)
(0.39036 -0.220746 -1.02471e-20)
(0.411317 -0.2187 -1.30235e-20)
(0.432835 -0.216944 2.84499e-20)
(0.454764 -0.215418 -4.56286e-21)
(0.476969 -0.214082 1.84375e-20)
(0.499332 -0.212902 -1.70493e-20)
(0.521751 -0.21186 -1.45752e-20)
(0.544138 -0.210949 1.30245e-20)
(0.566425 -0.210166 -1.31655e-21)
(0.588563 -0.209511 -1.0383e-20)
(0.610524 -0.208972 9.44046e-21)
(0.632287 -0.208514 -3.05379e-20)
(0.653828 -0.208045 1.87494e-20)
(0.67527 -0.207223 -3.25534e-22)
(0.696951 -0.205238 -2.08508e-20)
(0.717355 -0.202303 3.39092e-20)
(0.31621 -0.360056 9.36724e-21)
(0.296448 -0.334946 -2.52268e-20)
(0.284016 -0.31388 -2.39079e-21)
(0.277479 -0.296472 1.32823e-20)
(0.27596 -0.282134 -3.65498e-21)
(0.278786 -0.270298 -1.08997e-20)
(0.285343 -0.260517 5.25618e-21)
(0.295093 -0.252422 6.50567e-21)
(0.307564 -0.245709 6.04918e-22)
(0.322344 -0.240124 8.72371e-21)
(0.339073 -0.235456 2.93991e-20)
(0.357432 -0.231528 -1.03323e-20)
(0.377141 -0.228195 3.05676e-21)
(0.397952 -0.225334 -8.18846e-21)
(0.419645 -0.222843 3.12519e-20)
(0.442026 -0.220637 -5.96394e-21)
(0.464918 -0.218648 2.02984e-20)
(0.488167 -0.216821 -8.29076e-21)
(0.511632 -0.215115 9.19887e-21)
(0.535188 -0.213501 1.44811e-20)
(0.558723 -0.211965 2.6693e-21)
(0.582141 -0.210508 1.0478e-20)
(0.605359 -0.209146 -9.01983e-21)
(0.628318 -0.207911 2.54694e-20)
(0.650983 -0.206847 -1.07013e-20)
(0.673337 -0.206005 4.04557e-20)
(0.695381 -0.205425 -1.17454e-20)
(0.717319 -0.2049 8.3776e-21)
(0.739694 -0.203631 -1.61827e-20)
(0.761042 -0.201724 3.24313e-20)
(0.32626 -0.352372 -2.02563e-20)
(0.307358 -0.329142 7.05365e-22)
(0.296021 -0.309649 -1.4336e-20)
(0.290756 -0.293581 2.72051e-21)
(0.29064 -0.280376 8.26855e-22)
(0.294967 -0.269483 -1.46203e-20)
(0.303092 -0.260473 -2.88002e-20)
(0.31445 -0.252995 1.49825e-20)
(0.32855 -0.246761 -2.18941e-20)
(0.344962 -0.24153 -1.23028e-20)
(0.363313 -0.237103 -7.42545e-21)
(0.383272 -0.233315 -6.34165e-21)
(0.404553 -0.230029 3.41125e-22)
(0.426899 -0.227129 -2.38124e-20)
(0.450086 -0.224519 1.69033e-20)
(0.473914 -0.222119 -2.80372e-20)
(0.498206 -0.219863 -7.52602e-21)
(0.522803 -0.217695 8.339e-21)
(0.547563 -0.215573 1.09158e-20)
(0.572358 -0.213464 1.14304e-20)
(0.597071 -0.211348 9.13406e-21)
(0.621598 -0.209219 -2.3391e-20)
(0.645845 -0.207092 2.43298e-20)
(0.669732 -0.205002 -2.57802e-21)
(0.693198 -0.203017 -6.8712e-21)
(0.716194 -0.201259 -2.81571e-20)
(0.738685 -0.199909 -1.53066e-20)
(0.760901 -0.198972 2.84641e-20)
(0.783672 -0.197763 -9.45539e-21)
(0.805923 -0.196534 -9.99934e-21)