/*--------------------------------*- C++ -*----------------------------------*\
| =========                 |                                                 |
| \\      /  F ield         | OpenFOAM: The Open Source CFD Toolbox           |
|  \\    /   O peration     | Version:  v1912                                 |
|   \\  /    A nd           | Website:  www.openfoam.com                      |
|    \\/     M anipulation  |                                                 |
\*---------------------------------------------------------------------------*/
FoamFile
{
    version     2.0;
    format      ascii;
    class       volScalarField;
    location    "14.5";
    object      p;
}
// * * * * * * * * * * * * * * * * * * * * * * * * * * * * * * * * * * * * * //

dimensions      [0 2 -2 0 0 0 0];


internalField   nonuniform List<scalar> 
9600
(
-40.515
-35.2019
-31.9287
-29.1463
-26.6104
-24.3266
-22.2649
-20.3957
-18.6998
-17.1617
-15.7673
-14.5033
-13.3575
-12.3182
-11.3746
-10.5169
-9.73637
-9.02468
-8.37409
-7.78266
-41.1741
-35.8472
-32.543
-29.7234
-27.1482
-24.8262
-22.7287
-20.8269
-19.102
-17.5382
-16.1214
-14.8378
-13.6748
-12.6204
-11.6635
-10.794
-10.0027
-9.28118
-8.62123
-8.02218
-41.8359
-36.4896
-33.153
-30.296
-27.6814
-25.3209
-23.1877
-21.2535
-19.4997
-17.9106
-16.4716
-15.1687
-13.9888
-12.9195
-11.9495
-11.0682
-10.2664
-9.53508
-8.86583
-8.25933
-42.4974
-37.1289
-33.7584
-30.8635
-28.2091
-25.8102
-23.6412
-21.6748
-19.8923
-18.2781
-16.8172
-15.4953
-14.2988
-13.2149
-12.232
-11.3392
-10.527
-9.78597
-9.10752
-8.49381
-43.156
-37.7638
-34.3584
-31.4249
-28.7305
-26.293
-24.0883
-22.0899
-20.2791
-18.6401
-17.1577
-15.8171
-14.6042
-13.5061
-12.5105
-11.6064
-10.784
-10.0335
-9.34597
-8.72536
-43.8096
-38.3929
-34.9521
-31.9794
-29.2448
-26.7686
-24.5284
-22.4981
-20.6593
-18.9959
-17.4924
-16.1334
-14.9046
-13.7925
-12.7846
-11.8695
-11.0371
-10.2773
-9.58087
-8.95373
-44.4567
-39.015
-35.5383
-32.5259
-29.7509
-27.236
-24.9605
-22.8986
-21.0322
-19.3448
-17.8205
-16.4436
-15.1993
-14.0736
-13.0536
-12.1279
-11.2858
-10.5169
-9.81191
-9.17866
-45.096
-39.6289
-36.116
-33.0636
-30.2479
-27.6945
-25.3838
-23.2907
-21.397
-19.6861
-18.1415
-16.7471
-15.4876
-14.3487
-13.3171
-12.3811
-11.5297
-10.752
-10.0387
-9.39986
-45.7263
-40.2334
-36.6841
-33.5913
-30.735
-28.1431
-25.7975
-23.6736
-21.7531
-20.019
-18.4546
-17.0431
-15.7689
-14.6173
-13.5745
-12.6285
-11.7682
-10.9821
-10.2609
-9.61698
-46.3464
-40.8276
-37.2415
-34.1083
-31.2112
-28.5811
-26.2008
-24.0464
-22.0995
-20.3429
-18.7591
-17.331
-16.0426
-14.8786
-13.825
-12.8695
-12.0007
-11.2067
-10.478
-9.8296
-46.9554
-41.4103
-37.7874
-34.6135
-31.6757
-29.0074
-26.5929
-24.4085
-22.4357
-20.6568
-19.0542
-17.61
-16.3078
-15.1319
-14.068
-13.1034
-12.2265
-11.425
-10.6893
-10.0371
-47.5524
-41.9808
-38.3209
-35.1061
-32.1276
-29.4214
-26.973
-24.7589
-22.7607
-20.9602
-19.3391
-17.8793
-16.5637
-15.3763
-14.3025
-13.3293
-12.4449
-11.6363
-10.8942
-10.2388
-48.137
-42.5383
-38.8411
-35.5853
-32.5662
-29.8223
-27.3403
-25.0971
-23.0738
-21.2521
-19.613
-18.138
-16.8094
-15.6109
-14.5276
-13.5463
-12.6547
-11.8397
-11.0917
-10.4338
-48.7085
-43.082
-39.3473
-36.0503
-32.9907
-30.2094
-27.6942
-25.4222
-23.3744
-21.5319
-19.8752
-18.3852
-17.0439
-15.8346
-14.7421
-13.753
-12.8548
-12.0339
-11.2806
-10.6216
-49.2665
-43.6113
-39.8387
-36.5005
-33.4005
-30.5821
-28.034
-25.7337
-23.6618
-21.7988
-20.1248
-18.6201
-17.2663
-16.0463
-14.9447
-13.9479
-13.0433
-12.2168
-11.4591
-10.8001
-49.8105
-44.1252
-40.3146
-36.9353
-33.795
-30.9397
-28.3592
-26.031
-23.9354
-22.0523
-20.3612
-18.842
-17.4758
-16.2451
-15.1343
-14.1297
-13.2186
-12.3866
-11.6246
-10.9647
-50.3419
-44.6239
-40.7746
-37.3539
-34.1735
-31.2817
-28.6693
-26.3137
-24.1948
-22.2919
-20.5839
-19.0502
-17.6714
-16.4299
-15.3099
-14.2975
-13.3802
-12.5431
-11.7759
-11.1123
-50.865
-45.1085
-41.2176
-37.7554
-34.5351
-31.6074
-28.9638
-26.5814
-24.4396
-22.5172
-20.7924
-19.244
-17.8522
-16.5993
-15.4694
-14.449
-13.5256
-12.6836
-11.912
-11.2523
-51.382
-45.5784
-41.6422
-38.1384
-34.8795
-31.9169
-29.2429
-26.8344
-24.6704
-22.7288
-20.9871
-19.4236
-18.018
-16.7521
-15.6101
-14.5787
-13.6449
-12.7931
-12.0199
-11.3883
-51.871
-46.026
-42.0474
-38.5038
-35.2078
-32.2116
-29.5081
-27.0744
-24.8887
-22.9283
-21.17
-19.5912
-18.1711
-16.8908
-15.7338
-14.6855
-13.7312
-12.8571
-12.0746
-11.4479
-56.7536
-56.7249
-56.6614
-56.5775
-56.4725
-56.3438
-56.1908
-56.0141
-55.8142
-55.5917
-55.347
-55.0808
-54.7937
-54.4864
-54.1597
-53.8145
-53.452
-53.0738
-52.6829
-52.2826
-50.4759
-50.4742
-50.442
-50.3851
-50.3041
-50.1983
-50.0681
-49.914
-49.7369
-49.5372
-49.3157
-49.0729
-48.8094
-48.5259
-48.2231
-47.9016
-47.5621
-47.2053
-46.8316
-46.4391
-45.9467
-45.9671
-45.9606
-45.9281
-45.8706
-45.789
-45.6839
-45.5559
-45.4057
-45.2337
-45.0407
-44.8271
-44.5935
-44.3405
-44.0686
-43.7782
-43.4698
-43.1434
-42.7987
-42.434
-41.8486
-41.8848
-41.8967
-41.884
-41.8474
-41.788
-41.7063
-41.6031
-41.4787
-41.3338
-41.1688
-40.9843
-40.7808
-40.5588
-40.3187
-40.0608
-39.7854
-39.4924
-39.1816
-38.8522
-38.0785
-38.1233
-38.1463
-38.147
-38.1255
-38.0826
-38.0191
-37.9355
-37.8321
-37.7095
-37.5683
-37.4089
-37.2317
-37.0373
-36.8259
-36.5979
-36.3534
-36.0925
-35.8149
-35.5202
-34.7054
-34.7538
-34.7825
-34.7908
-34.7787
-34.7469
-34.6959
-34.6263
-34.5385
-34.433
-34.3103
-34.1708
-34.015
-33.8433
-33.6561
-33.4536
-33.2361
-33.0034
-32.7554
-32.4918
-31.7152
-31.7635
-31.7939
-31.8055
-31.7983
-31.7729
-31.7298
-31.6695
-31.5925
-31.4993
-31.3902
-31.2657
-31.1265
-30.9727
-30.8049
-30.6234
-30.4282
-30.2194
-29.9968
-29.76
-29.0698
-29.1156
-29.1447
-29.1565
-29.151
-29.1286
-29.0899
-29.0354
-28.9654
-28.8805
-28.7811
-28.6676
-28.5407
-28.4007
-28.2482
-28.0833
-27.9063
-27.7173
-27.516
-27.302
-26.7293
-26.7711
-26.7973
-26.8075
-26.8016
-26.78
-26.7434
-26.692
-26.6263
-26.5469
-26.4541
-26.3485
-26.2307
-26.1011
-25.9603
-25.8087
-25.6464
-25.4736
-25.2902
-25.0956
-24.655
-24.6921
-24.7147
-24.7222
-24.7147
-24.6926
-24.6564
-24.6065
-24.5433
-24.4673
-24.3791
-24.2791
-24.1679
-24.0462
-23.9145
-23.7733
-23.6229
-23.4636
-23.2953
-23.1173
-22.8107
-22.843
-22.8615
-22.866
-22.8563
-22.833
-22.7964
-22.7469
-22.6851
-22.6113
-22.5261
-22.43
-22.3238
-22.208
-22.0833
-21.9505
-21.8099
-21.6619
-21.5065
-21.343
-21.1643
-21.192
-21.2067
-21.208
-21.196
-21.171
-21.1336
-21.0841
-21.0229
-20.9504
-20.8673
-20.7741
-20.6715
-20.5602
-20.4411
-20.3149
-20.1825
-20.0441
-19.9001
-19.7497
-19.6885
-19.712
-19.723
-19.7212
-19.7069
-19.6804
-19.642
-19.5921
-19.5312
-19.4596
-19.3779
-19.2868
-19.1869
-19.0791
-18.9643
-18.8435
-18.7178
-18.5878
-18.454
-18.3157
-18.3599
-18.3796
-18.3873
-18.3828
-18.3664
-18.3383
-18.299
-18.2486
-18.1877
-18.1167
-18.0361
-17.9465
-17.8487
-17.7436
-17.6322
-17.5156
-17.3954
-17.2726
-17.1482
-17.0215
-17.1592
-17.1754
-17.1801
-17.1732
-17.1549
-17.1255
-17.0853
-17.0345
-16.9736
-16.9031
-16.8233
-16.7349
-16.6387
-16.5355
-16.4266
-16.3133
-16.1975
-16.0806
-15.965
-15.8496
-16.0699
-16.083
-16.0851
-16.0761
-16.0561
-16.0255
-15.9845
-15.9334
-15.8726
-15.8023
-15.7232
-15.6358
-15.5407
-15.439
-15.3318
-15.2207
-15.108
-14.9958
-14.8881
-14.7839
-15.0784
-15.0888
-15.0886
-15.0777
-15.0563
-15.0246
-14.9829
-14.9314
-14.8706
-14.8006
-14.722
-14.6352
-14.5409
-14.4399
-14.3336
-14.2235
-14.1125
-14.0033
-13.902
-13.8076
-14.173
-14.1811
-14.1791
-14.1668
-14.1443
-14.1118
-14.0697
-14.0181
-13.9574
-13.8877
-13.8095
-13.7232
-13.6294
-13.5288
-13.4226
-13.3124
-13.2014
-13.0932
-12.9973
-12.9101
-13.3425
-13.3494
-13.3464
-13.3336
-13.311
-13.2787
-13.2372
-13.1864
-13.1268
-13.0585
-12.9818
-12.8971
-12.8048
-12.7056
-12.6002
-12.4901
-12.3785
-12.2699
-12.1795
-12.1037
-12.5816
-12.5854
-12.58
-12.5654
-12.5417
-12.509
-12.4675
-12.4174
-12.3589
-12.2922
-12.2175
-12.1351
-12.0453
-11.9484
-11.8449
-11.7358
-11.6226
-11.5102
-11.4143
-11.3595
-51.0272
-51.5464
-52.0313
-52.5041
-52.9618
-53.3984
-53.8111
-54.1989
-54.561
-54.8964
-55.2043
-55.4844
-55.7362
-55.9598
-56.1549
-56.3211
-56.4588
-56.5691
-56.6543
-56.7161
-44.6323
-45.1576
-45.6573
-46.1374
-46.5973
-47.0347
-47.4481
-47.837
-48.2008
-48.5387
-48.8502
-49.1348
-49.3926
-49.6237
-49.8286
-50.006
-50.1553
-50.277
-50.3716
-50.4381
-40.1078
-40.6222
-41.1155
-41.5878
-42.0391
-42.4687
-42.8759
-43.2599
-43.6203
-43.957
-44.2683
-44.554
-44.8144
-45.0489
-45.2562
-45.4374
-45.593
-45.7225
-45.8257
-45.9008
-36.1088
-36.6007
-37.075
-37.5299
-37.9649
-38.3796
-38.7737
-39.1465
-39.4973
-39.8253
-40.1302
-40.4105
-40.6676
-40.9009
-41.1099
-41.2948
-41.4556
-41.5917
-41.7029
-41.7886
-32.5498
-33.0147
-33.4644
-33.8966
-34.3102
-34.7049
-35.0802
-35.4356
-35.7703
-36.0837
-36.3762
-36.6481
-36.8975
-37.1245
-37.3292
-37.5114
-37.6709
-37.8076
-37.9212
-38.0117
-29.4581
-29.8949
-30.318
-30.7251
-31.1149
-31.4871
-31.8413
-32.1768
-32.4932
-32.7902
-33.0677
-33.3252
-33.5619
-33.7778
-33.9736
-34.1488
-34.3027
-34.4353
-34.5467
-34.6369
-26.7815
-27.1908
-27.5875
-27.9694
-28.3352
-28.6844
-29.0166
-29.3314
-29.6284
-29.9072
-30.1675
-30.4091
-30.6316
-30.8348
-31.018
-31.1837
-31.3297
-31.4556
-31.5618
-31.6485
-24.4556
-24.8392
-25.2109
-25.5687
-25.9114
-26.2384
-26.5493
-26.8438
-27.1213
-27.3817
-27.6247
-27.8501
-28.0578
-28.2476
-28.4196
-28.5719
-28.7085
-28.8265
-28.9258
-29.0071
-22.4241
-22.7842
-23.1331
-23.4687
-23.7899
-24.0962
-24.387
-24.6622
-24.9212
-25.164
-25.3903
-25.6001
-25.7931
-25.9695
-26.1289
-26.2715
-26.396
-26.505
-26.597
-26.6718
-20.639
-20.978
-21.3062
-21.6218
-21.9235
-22.2108
-22.4831
-22.7404
-22.9822
-23.2086
-23.4193
-23.6143
-23.7935
-23.9569
-24.1044
-24.2359
-24.3514
-24.4508
-24.5349
-24.6031
-19.0602
-19.3804
-19.6903
-19.988
-20.2721
-20.542
-20.7975
-21.0384
-21.2645
-21.4757
-21.6721
-21.8535
-22.0199
-22.1713
-22.3077
-22.429
-22.5352
-22.6262
-22.7027
-22.7643
-17.6551
-17.9586
-18.2525
-18.5342
-18.8025
-19.0568
-19.2969
-19.5229
-19.7346
-19.932
-20.1152
-20.2842
-20.4389
-20.5794
-20.7056
-20.8175
-20.9152
-20.9987
-21.0678
-21.1233
-16.3972
-16.6861
-16.966
-17.2337
-17.4877
-17.7278
-17.954
-18.1663
-18.3648
-18.5496
-18.7208
-18.8785
-19.0226
-19.1531
-19.2701
-19.3735
-19.4634
-19.5398
-19.6024
-19.6523
-15.2651
-15.5412
-15.8092
-16.0646
-16.3057
-16.5328
-16.7462
-16.946
-17.1324
-17.3057
-17.4659
-17.6133
-17.7477
-17.8693
-17.9779
-18.0737
-18.1566
-18.2266
-18.284
-18.3282
-14.2417
-14.507
-14.7651
-15.0095
-15.2387
-15.4537
-15.6552
-15.8433
-16.0186
-16.1813
-16.3315
-16.4695
-16.5952
-16.7086
-16.8097
-16.8986
-16.9752
-17.0395
-17.0916
-17.1314
-13.3122
-13.5702
-13.8205
-14.0545
-14.2725
-14.4762
-14.6664
-14.8436
-15.0084
-15.1613
-15.3023
-15.4316
-15.5493
-15.6554
-15.7497
-15.8323
-15.9032
-15.9624
-16.0098
-16.0456
-12.4595
-12.7169
-12.9632
-13.1873
-13.3943
-13.5871
-13.7666
-13.9335
-14.0886
-14.2323
-14.3649
-14.4864
-14.5969
-14.6963
-14.7845
-14.8615
-14.9273
-14.9819
-15.0252
-15.0571
-11.663
-11.9252
-12.1736
-12.3897
-12.5862
-12.7689
-12.9387
-13.0964
-13.2429
-13.3788
-13.5041
-13.619
-13.7234
-13.8172
-13.9004
-13.9728
-14.0344
-14.0852
-14.1253
-14.1548
-10.9315
-11.1881
-11.4389
-11.6512
-11.839
-12.012
-12.1727
-12.3222
-12.4612
-12.5901
-12.7092
-12.8185
-12.9177
-13.0069
-13.0858
-13.1545
-13.2129
-13.2608
-13.2984
-13.3257
-10.3815
-10.6217
-10.8401
-11.0435
-11.2208
-11.3782
-11.5244
-11.6611
-11.7883
-11.906
-12.0147
-12.1144
-12.2046
-12.2855
-12.3568
-12.4185
-12.4705
-12.5128
-12.5453
-12.568
-5.38256
-5.84614
-6.35751
-6.91428
-7.52319
-8.19191
-8.92847
-9.74266
-10.6469
-11.6571
-12.7935
-14.0825
-15.5586
-17.2662
-19.2626
-21.6233
-24.4256
-27.6895
-31.6311
-37.5804
-5.63171
-6.10686
-6.62695
-7.19382
-7.81432
-8.49587
-9.2466
-10.0766
-10.9984
-12.0283
-13.1869
-14.5009
-16.0051
-17.7442
-19.776
-22.1758
-25.0198
-28.3252
-32.3009
-38.2681
-5.88259
-6.36936
-6.89829
-7.47548
-8.10783
-8.80244
-9.56761
-10.4136
-11.3534
-12.4033
-13.5843
-14.9236
-16.4562
-18.2273
-20.2948
-22.7336
-25.6188
-28.9647
-32.9727
-38.9535
-6.13475
-6.6331
-7.17096
-7.75868
-8.40309
-9.11098
-9.89078
-10.753
-11.7109
-12.7811
-13.9848
-15.3495
-16.9108
-18.7141
-20.8173
-23.295
-26.2213
-29.6076
-33.6491
-39.6482
-6.38775
-6.89763
-7.44451
-8.04298
-8.69965
-9.421
-10.2156
-11.0943
-12.0705
-13.161
-14.3876
-15.778
-17.3681
-19.2036
-21.3426
-23.8593
-26.8266
-30.2533
-34.3291
-40.3498
-6.64124
-7.16257
-7.71856
-8.32797
-8.9971
-9.73208
-10.5417
-11.4369
-12.4315
-13.5427
-14.7922
-16.2085
-17.8275
-19.6953
-21.8701
-24.4259
-27.4341
-30.9011
-35.0109
-41.0543
-6.89493
-7.42758
-7.99274
-8.61329
-9.29504
-10.0438
-10.8685
-11.7805
-12.7936
-13.9255
-15.1982
-16.6403
-18.2883
-20.1886
-22.3992
-24.9939
-28.0429
-31.55
-35.6932
-41.7595
-7.14858
-7.69239
-8.26675
-8.89861
-9.59313
-10.3558
-11.1957
-12.1245
-13.1563
-14.3088
-15.6047
-17.0728
-18.7499
-20.6826
-22.9291
-25.5626
-28.6521
-32.1988
-36.3747
-42.464
-7.40204
-7.9568
-8.54036
-9.18365
-9.89106
-10.6677
-11.5228
-12.4684
-13.5189
-14.6923
-16.0114
-17.5054
-19.2116
-21.1767
-23.4589
-26.131
-29.2607
-32.8466
-37.0545
-43.1666
-7.65527
-8.2207
-8.8134
-9.46822
-10.1886
-10.9791
-11.8496
-12.812
-13.8811
-15.0752
-16.4175
-17.9374
-19.6726
-21.6699
-23.9877
-26.6981
-29.8677
-33.4922
-37.7313
-43.8657
-7.90836
-8.48409
-9.0858
-9.75217
-10.4854
-11.2899
-12.1755
-13.1547
-14.2424
-15.4571
-16.8224
-18.3682
-20.1322
-22.1616
-24.5147
-27.2631
-30.472
-34.1346
-38.4038
-44.5602
-8.16157
-8.74712
-9.35757
-10.0354
-10.7815
-11.5997
-12.5003
-13.4961
-14.6021
-15.8374
-17.2256
-18.7969
-20.5896
-22.6509
-25.0389
-27.8249
-31.0726
-34.7725
-39.0709
-45.2485
-8.41531
-9.01001
-9.62877
-10.3178
-11.0764
-11.9082
-12.8236
-13.8357
-14.9599
-16.2154
-17.6262
-19.223
-21.044
-23.1368
-25.5594
-28.3824
-31.6683
-35.405
-39.7313
-45.9295
-8.67021
-9.27306
-9.89945
-10.5993
-11.3701
-12.215
-13.1448
-14.1729
-15.315
-16.5904
-18.0236
-19.6454
-21.4945
-23.6185
-26.0753
-28.9348
-32.2581
-36.0307
-40.3839
-46.602
-8.92686
-9.53645
-10.1695
-10.8795
-11.662
-12.5195
-13.4633
-14.5071
-15.6667
-16.9617
-18.417
-20.0635
-21.9402
-24.0949
-26.5854
-29.4807
-32.8408
-36.6486
-41.0276
-47.265
-9.18593
-9.80013
-10.4384
-11.1578
-11.9512
-12.821
-13.7784
-14.8374
-16.0141
-17.3285
-18.8054
-20.4762
-22.3802
-24.5651
-27.0886
-30.0191
-33.4152
-37.2574
-41.6613
-47.9175
-9.44688
-10.0627
-10.7045
-11.4325
-12.2367
-13.1182
-14.089
-15.1629
-16.3565
-17.6897
-19.1879
-20.8826
-22.8133
-25.0279
-27.5838
-30.5487
-33.9799
-37.8559
-42.2841
-48.559
-9.70822
-10.3211
-10.9651
-11.7019
-12.5168
-13.4102
-14.394
-15.4826
-16.6927
-18.0445
-19.5636
-21.2817
-23.2387
-25.4823
-28.0698
-31.0682
-34.5334
-38.4425
-42.8949
-49.1896
-9.96167
-10.5667
-11.2141
-11.9624
-12.7896
-13.6951
-14.692
-15.7954
-17.0218
-18.3918
-19.9313
-21.6724
-23.6549
-25.9269
-28.5452
-31.5761
-35.0743
-39.0154
-43.4927
-49.8109
-10.1869
-10.7804
-11.4474
-12.2152
-13.0556
-13.9729
-14.9829
-16.1006
-17.343
-18.7309
-20.2903
-22.0538
-24.0612
-26.3607
-29.0088
-32.0708
-35.6004
-39.5716
-44.0732
-50.4245
-1.40045
-1.65984
-2.01427
-2.41221
-2.84375
-3.31495
-3.83264
-4.40327
-5.03492
-5.73835
-6.52788
-7.42266
-8.44863
-9.64102
-11.049
-12.7438
-14.8106
-17.3044
-20.5185
-25.9384
-1.53872
-1.81259
-2.18245
-2.5842
-3.01754
-3.49248
-4.01536
-4.59228
-5.23144
-5.94384
-6.74402
-7.65145
-8.69245
-9.90273
-11.3319
-13.0517
-15.1472
-17.672
-20.9141
-26.3442
-1.66833
-1.96448
-2.34561
-2.75391
-3.19349
-3.67521
-4.20532
-4.79009
-5.43809
-6.16063
-6.97256
-7.89371
-8.95082
-10.1801
-11.6316
-13.3773
-15.5021
-18.0576
-21.327
-26.762
-1.81747
-2.12334
-2.51139
-2.92706
-3.37439
-3.86409
-4.40253
-4.99629
-5.65421
-6.38792
-7.2126
-8.14845
-9.22263
-10.4718
-11.9465
-13.7191
-15.8741
-18.4616
-21.7613
-27.2104
-1.97691
-2.28888
-2.68351
-3.10673
-3.56207
-4.06016
-4.60756
-5.21106
-5.87975
-6.62551
-7.46382
-8.41527
-9.50745
-10.7775
-12.2765
-14.0769
-16.2632
-18.8841
-22.2168
-27.6862
-2.14143
-2.46083
-2.86245
-3.29334
-3.7569
-4.26378
-4.82069
-5.43457
-6.11473
-6.87329
-7.72606
-8.69397
-9.80506
-11.0969
-12.6211
-14.4505
-16.6693
-19.3247
-22.6915
-28.1844
-2.3126
-2.64016
-3.04865
-3.48717
-3.95918
-4.47521
-5.04207
-5.66688
-6.35912
-7.13117
-7.99914
-8.98433
-10.1152
-11.4298
-12.9803
-14.8397
-17.092
-19.783
-23.1846
-28.7026
-2.4918
-2.82744
-3.24255
-3.68866
-4.16924
-4.69468
-5.27185
-5.90802
-6.61288
-7.39904
-8.28289
-9.28611
-10.4376
-11.7759
-13.3535
-15.2439
-17.5307
-20.2583
-23.6956
-29.2398
-2.67893
-3.02264
-3.44429
-3.89798
-4.38725
-4.92229
-5.51007
-6.15799
-6.87594
-7.67675
-8.57711
-9.59906
-10.7719
-12.1347
-13.7404
-15.6627
-17.9851
-20.7502
-24.2237
-29.7952
-2.87351
-3.22551
-3.65375
-4.11508
-4.61315
-5.15801
-5.75666
-6.41669
-7.14815
-7.96412
-8.88157
-9.9229
-11.1178
-12.5059
-14.1405
-16.0957
-18.4545
-21.258
-24.7684
-30.3677
-3.07515
-3.43578
-3.8707
-4.33974
-4.84677
-5.40165
-6.01145
-6.68393
-7.42931
-8.26091
-9.19599
-10.2573
-11.4751
-12.8892
-14.5535
-16.5424
-18.9384
-21.7811
-25.3289
-30.9564
-3.28353
-3.65309
-4.09481
-4.5717
-5.08786
-5.65298
-6.2742
-6.95944
-7.71914
-8.56681
-9.52005
-10.602
-11.8431
-13.284
-14.9789
-17.0022
-19.4363
-22.3188
-25.9044
-31.5603
-3.49821
-3.87704
-4.3257
-4.81058
-5.33607
-5.91167
-6.54458
-7.24291
-8.01729
-8.88149
-9.85337
-10.9564
-12.2217
-13.69
-15.4161
-17.4746
-19.9475
-22.8704
-26.4942
-32.1788
-3.71872
-4.10713
-4.56292
-5.05598
-5.59102
-6.17733
-6.82221
-7.53395
-8.32338
-9.20452
-10.1955
-11.3203
-12.6101
-14.1066
-15.8646
-17.959
-20.4713
-23.4353
-27.0976
-32.8109
-3.94455
-4.34287
-4.80597
-5.30742
-5.85224
-6.44952
-7.10666
-7.83213
-8.63697
-9.53545
-10.546
-11.693
-13.0081
-14.5332
-16.3237
-18.4547
-21.0071
-24.0127
-27.7138
-33.4559
-4.17519
-4.58374
-5.05436
-5.56441
-6.11926
-6.72778
-7.39746
-8.13697
-8.95758
-9.87379
-10.9044
-12.074
-13.4148
-14.9692
-16.7929
-18.9611
-21.5541
-24.6018
-28.3421
-34.1132
-4.41012
-4.82918
-5.30754
-5.82644
-6.39157
-7.0116
-7.6941
-8.44797
-9.28468
-10.219
-11.2701
-12.4628
-13.8298
-15.414
-17.2714
-19.4774
-22.1116
-25.2019
-28.9819
-34.7824
-4.64882
-5.07868
-5.56498
-6.09297
-6.66866
-7.30047
-7.99608
-8.7646
-9.61775
-10.5706
-11.6424
-12.8587
-14.2525
-15.8669
-17.7586
-20.0028
-22.6786
-25.812
-29.6324
-35.4632
-4.89078
-5.33167
-5.82614
-6.36348
-6.94998
-7.59383
-8.30283
-9.08631
-9.95621
-10.9278
-12.0209
-13.2611
-14.682
-16.3271
-18.2535
-20.5363
-23.2542
-26.4311
-30.2926
-36.1563
-5.13553
-5.58768
-6.09052
-6.63745
-7.23504
-7.89121
-8.61386
-9.41258
-10.2995
-11.2903
-12.4049
-13.6694
-15.1178
-16.794
-18.7553
-21.0771
-23.8372
-27.0575
-30.96
-36.8628
-1.17206
-0.988046
-0.853984
-0.736234
-0.634291
-0.545632
-0.469189
-0.404193
-0.350159
-0.306732
-0.273643
-0.250663
-0.237603
-0.234259
-0.240272
-0.255391
-0.280307
-0.314579
-0.357988
-0.41046
-1.50522
-1.34296
-1.2052
-1.0829
-0.976796
-0.884358
-0.80461
-0.736758
-0.680292
-0.634834
-0.600091
-0.575823
-0.561825
-0.557901
-0.563783
-0.579261
-0.604523
-0.639572
-0.68386
-0.737573
-1.84666
-1.69202
-1.5546
-1.43151
-1.32371
-1.22955
-1.14829
-1.07924
-1.02192
-0.975955
-0.941056
-0.916977
-0.903506
-0.900444
-0.907573
-0.924751
-0.951974
-0.988995
-1.03606
-1.09262
-2.24138
-2.08586
-1.94615
-1.82068
-1.7099
-1.61282
-1.52891
-1.4576
-1.39844
-1.35109
-1.31526
-1.29069
-1.27716
-1.27447
-1.28243
-1.30089
-1.32978
-1.3689
-1.41821
-1.47746
-2.67445
-2.51752
-2.37483
-2.24626
-2.13205
-2.03167
-1.94472
-1.87075
-1.80939
-1.76031
-1.72324
-1.69791
-1.6841
-1.68162
-1.69026
-1.70988
-1.74035
-1.7815
-1.83316
-1.89521
-3.14471
-2.98576
-2.84002
-2.70811
-2.59038
-2.48659
-2.39651
-2.31979
-2.25612
-2.20521
-2.1668
-2.14065
-2.12654
-2.12426
-2.13361
-2.15443
-2.18657
-2.22985
-2.28406
-2.34918
-3.65899
-3.49667
-3.34728
-3.21158
-3.09001
-2.98255
-2.88908
-2.80936
-2.74316
-2.69022
-2.65031
-2.62319
-2.60866
-2.6065
-2.61652
-2.63855
-2.67241
-2.71791
-2.77486
-2.84325
-4.22461
-4.0576
-3.90362
-3.76341
-3.63744
-3.52581
-3.42851
-3.3454
-3.27629
-3.22099
-3.17927
-3.15092
-3.13574
-3.13353
-3.1441
-3.16725
-3.20281
-3.25056
-3.3103
-3.38187
-4.84983
-4.67683
-4.51717
-4.37153
-4.24037
-4.1239
-4.02217
-3.9351
-3.86258
-3.80444
-3.76049
-3.73054
-3.7144
-3.71186
-3.72274
-3.74685
-3.78399
-3.83395
-3.89651
-3.97157
-5.54531
-5.3649
-5.19829
-5.04609
-4.90876
-4.78655
-4.67957
-4.5878
-4.51118
-4.44956
-4.4028
-4.37073
-4.35315
-4.34989
-4.36074
-4.38552
-4.42402
-4.47602
-4.5413
-4.61981
-6.32518
-6.13571
-5.96065
-5.8005
-5.65573
-5.52663
-5.41333
-5.31587
-5.23422
-5.16829
-5.11793
-5.08301
-5.06334
-5.05876
-5.06906
-5.09406
-5.13354
-5.18727
-5.25503
-5.33683
-7.20832
-7.00788
-6.82252
-6.65272
-6.49893
-6.36145
-6.24045
-6.13601
-6.04812
-5.97673
-5.92172
-5.88296
-5.8603
-5.85356
-5.86256
-5.88709
-5.92695
-5.98188
-6.05166
-6.13636
-8.22031
-8.00656
-7.8087
-7.62712
-7.46232
-7.31458
-7.1841
-7.071
-6.9753
-6.89695
-6.83588
-6.79197
-6.76507
-6.75502
-6.76163
-6.78472
-6.82405
-6.87935
-6.95041
-7.03734
-9.39592
-9.16608
-8.95299
-8.75704
-8.57872
-8.41835
-8.27615
-8.15224
-8.04667
-7.95943
-7.89045
-7.83963
-7.80684
-7.7919
-7.79465
-7.8149
-7.85241
-7.90688
-7.97808
-8.06618
-10.7838
-10.5345
-10.3029
-10.0894
-9.89446
-9.71852
-9.56177
-9.42436
-9.30634
-9.20771
-9.12844
-9.06842
-9.02753
-9.00562
-9.00251
-9.01802
-9.05189
-9.1038
-9.17349
-9.26119
-12.4545
-12.1818
-11.9277
-11.6929
-11.4777
-11.2827
-11.108
-10.9538
-10.8201
-10.707
-10.6145
-10.5423
-10.4906
-10.459
-10.4474
-10.4556
-10.4834
-10.5304
-10.5964
-10.6815
-14.4929
-14.1923
-13.9116
-13.6513
-13.412
-13.1941
-12.9977
-12.8232
-12.6704
-12.5395
-12.4304
-12.343
-12.2773
-12.233
-12.21
-12.2082
-12.2273
-12.267
-12.3269
-12.4071
-16.954
-16.6222
-16.3111
-16.0219
-15.7551
-15.5111
-15.2901
-15.0923
-14.9176
-14.7661
-14.6377
-14.5324
-14.4502
-14.3908
-14.3542
-14.3402
-14.3485
-14.3791
-14.4314
-14.5044
-20.1343
-19.767
-19.4212
-19.0994
-18.802
-18.529
-18.2804
-18.0561
-17.8561
-17.6804
-17.5289
-17.4016
-17.2984
-17.2191
-17.1637
-17.1319
-17.1236
-17.139
-17.1776
-17.2376
-25.4994
-25.0904
-24.7136
-24.3658
-24.0448
-23.7498
-23.4802
-23.2359
-23.0168
-22.8229
-22.6541
-22.5105
-22.3922
-22.2991
-22.2313
-22.1887
-22.1721
-22.1836
-22.2243
-22.2838
-0.471709
-0.541404
-0.619472
-0.705773
-0.800163
-0.902478
-1.01253
-1.13012
-1.255
-1.38687
-1.52535
-1.66995
-1.81991
-1.9741
-2.13098
-2.2884
-2.44198
-2.58225
-2.69378
-2.79892
-0.800456
-0.872114
-0.952441
-1.04127
-1.13843
-1.24375
-1.35703
-1.47803
-1.60649
-1.74207
-1.88436
-2.03284
-2.18676
-2.34502
-2.50608
-2.66838
-2.83017
-2.9838
-3.11358
-3.25824
-1.15864
-1.23376
-1.31786
-1.41076
-1.51227
-1.6222
-1.74034
-1.86642
-2.00017
-2.14123
-2.28916
-2.44342
-2.6033
-2.7678
-2.93563
-3.10562
-3.27684
-3.4449
-3.60339
-3.78036
-1.5466
-1.62519
-1.71311
-1.81017
-1.91616
-2.03088
-2.15409
-2.28552
-2.42485
-2.57173
-2.7257
-2.88621
-3.05259
-3.22395
-3.39925
-3.57763
-3.7583
-3.93887
-4.11927
-4.3189
-1.96758
-2.0498
-2.14174
-2.24319
-2.35395
-2.47377
-2.6024
-2.73957
-2.88493
-3.03813
-3.19869
-3.36611
-3.53972
-3.71879
-3.90249
-4.09022
-4.28135
-4.47475
-4.67269
-4.88792
-2.42504
-2.51118
-2.60748
-2.7137
-2.82963
-2.95502
-3.0896
-3.23307
-3.38509
-3.5453
-3.71323
-3.88839
-4.0702
-4.25802
-4.45122
-4.6494
-4.85213
-5.05911
-5.27289
-5.50121
-2.92278
-3.01313
-3.11412
-3.2255
-3.34705
-3.47849
-3.61956
-3.76995
-3.92931
-4.09728
-4.27342
-4.45726
-4.64827
-4.84593
-5.04976
-5.25945
-5.4748
-5.69593
-5.92498
-6.16639
-3.46549
-3.56032
-3.66632
-3.78323
-3.91082
-4.0488
-4.19692
-4.35485
-4.52226
-4.69878
-4.88399
-5.07746
-5.27872
-5.48732
-5.70289
-5.92519
-6.15414
-6.39002
-6.63438
-6.88976
-4.0592
-4.15873
-4.26997
-4.39273
-4.52674
-4.67175
-4.82745
-4.99355
-5.16971
-5.35556
-5.55071
-5.75477
-5.96731
-6.18795
-6.41637
-6.65238
-6.89594
-7.14732
-7.40754
-7.67807
-4.71156
-4.81596
-4.93257
-5.0614
-5.20218
-5.3546
-5.51839
-5.69323
-5.87879
-6.07472
-6.28066
-6.49623
-6.72104
-6.95476
-7.19711
-7.44792
-7.70713
-7.97492
-8.25189
-8.53892
-5.43261
-5.54145
-5.66386
-5.79892
-5.94667
-6.10682
-6.27908
-6.46312
-6.65864
-6.86531
-7.08278
-7.31069
-7.54869
-7.79646
-8.05375
-8.32038
-8.59627
-8.88145
-9.17622
-9.48118
-6.23595
-6.34938
-6.47677
-6.6183
-6.77313
-6.94104
-7.12192
-7.31546
-7.52134
-7.73924
-7.96882
-8.20975
-8.46169
-8.72434
-8.99745
-9.28083
-9.57435
-9.87789
-10.1916
-10.5158
-7.14015
-7.25768
-7.39
-7.53696
-7.69926
-7.87448
-8.06386
-8.26695
-8.48336
-8.71274
-8.95477
-9.20913
-9.47552
-9.75364
-10.0432
-10.3441
-10.656
-10.9788
-11.3123
-11.6571
-8.17122
-8.29192
-8.4285
-8.58044
-8.74731
-8.93088
-9.12863
-9.34114
-9.56772
-9.80832
-10.0627
-10.3305
-10.6115
-10.9054
-11.2118
-11.5306
-11.8614
-12.204
-12.5582
-12.9243
-9.36697
-9.48931
-9.62867
-9.78462
-9.95674
-10.1451
-10.3505
-10.5723
-10.8076
-11.0586
-11.3248
-11.6058
-11.9012
-12.2107
-12.5338
-12.8704
-13.2202
-13.5828
-13.9578
-14.3456
-10.7859
-10.9077
-11.0477
-11.2055
-11.3811
-11.5739
-11.7837
-12.0098
-12.2549
-12.5162
-12.7936
-13.087
-13.396
-13.7199
-14.0586
-14.4121
-14.7802
-15.1622
-15.5577
-15.9669
-12.5071
-12.6257
-12.7637
-12.9209
-13.0971
-13.2923
-13.5059
-13.7375
-13.9878
-14.2567
-14.5439
-14.8473
-15.1671
-15.5018
-15.8535
-16.222
-16.6066
-17.0066
-17.4211
-17.85
-14.5961
-14.7082
-14.8401
-14.9923
-15.165
-15.3579
-15.5708
-15.8033
-16.0549
-16.3249
-16.6133
-16.9214
-17.2488
-17.5967
-17.9623
-18.3452
-18.7451
-19.1616
-19.5938
-20.0407
-17.3168
-17.4147
-17.5352
-17.6786
-17.8444
-18.0322
-18.2415
-18.4719
-18.723
-18.9943
-19.2853
-19.596
-19.9267
-20.2776
-20.6483
-21.0384
-21.4476
-21.8768
-22.3258
-22.7896
-22.3361
-22.4158
-22.5236
-22.6573
-22.8152
-22.9962
-23.1997
-23.4252
-23.6723
-23.9407
-24.2303
-24.5408
-24.8726
-25.2258
-25.6003
-25.9963
-26.4148
-26.8598
-27.3338
-27.8188
-28.2701
-23.2599
-20.5017
-18.2937
-16.3899
-14.7464
-13.3023
-12.013
-10.8506
-9.79634
-8.83605
-7.95898
-7.15642
-6.42111
-5.74683
-5.12811
-4.55871
-4.03229
-3.55666
-3.15776
-28.7456
-23.743
-20.9752
-18.7492
-16.8242
-15.1578
-13.6905
-12.3784
-11.1945
-10.1202
-9.14165
-8.24823
-7.43135
-6.68386
-5.99971
-5.37348
-4.79954
-4.27483
-3.81167
-3.41552
-29.2464
-24.2416
-21.4625
-19.2176
-17.2703
-15.5801
-14.0887
-12.7532
-11.5471
-10.4522
-9.45498
-8.54483
-7.71322
-6.95302
-6.25813
-5.62306
-5.04229
-4.51294
-4.04385
-3.62992
-29.7684
-24.7567
-21.9638
-19.6987
-17.728
-16.0127
-14.4963
-13.1366
-11.9076
-10.7916
-9.77511
-8.84761
-8.00053
-7.22663
-6.51959
-5.8737
-5.28321
-4.74462
-4.26399
-3.83292
-30.3087
-25.2874
-22.479
-20.1923
-18.1967
-16.4553
-14.9129
-13.5281
-12.2756
-11.1378
-10.1013
-9.15587
-8.29264
-7.50423
-6.7841
-6.12624
-5.52464
-4.97525
-4.48231
-4.03663
-30.8651
-25.8329
-23.0074
-20.6978
-18.6759
-16.9073
-15.3379
-13.9272
-12.6503
-11.49
-10.4332
-9.46912
-8.58915
-7.78563
-7.05177
-6.3813
-5.76804
-5.20756
-4.70284
-4.24458
-31.4366
-26.393
-23.5478
-21.2144
-19.165
-17.368
-15.7707
-14.3333
-13.0314
-11.848
-10.7701
-9.78703
-8.8899
-8.07087
-7.32295
-6.63967
-6.01467
-5.44335
-4.92755
-4.45809
-32.0227
-26.9677
-24.0988
-21.7413
-19.6633
-17.8368
-16.2106
-14.7457
-13.4181
-12.2112
-11.1118
-10.1093
-9.19472
-8.35997
-7.59786
-6.90172
-6.26512
-5.68324
-5.15696
-4.67723
-32.6223
-27.555
-24.6606
-22.2776
-20.1701
-18.313
-16.6571
-15.164
-13.8101
-12.5791
-11.4578
-10.4357
-9.50344
-8.65284
-7.8765
-7.16757
-6.51953
-5.92736
-5.39102
-4.90162
-33.2345
-28.1537
-25.2326
-22.8227
-20.6845
-18.796
-17.1095
-15.5875
-14.2068
-12.9513
-11.8079
-10.7658
-9.81577
-8.94928
-8.15873
-7.4371
-6.77775
-6.17547
-5.62933
-5.13066
-33.8583
-28.7627
-25.814
-23.3758
-21.206
-19.285
-17.5672
-16.0156
-14.6077
-13.3272
-12.1614
-11.0993
-10.1314
-9.24897
-8.44425
-7.70999
-7.03943
-6.42716
-5.87139
-5.36369
-34.4927
-29.3811
-26.404
-23.9362
-21.7335
-19.7794
-18.0294
-16.4477
-15.012
-13.7064
-12.518
-11.4358
-10.4499
-9.55153
-8.73267
-7.98584
-7.30414
-6.68192
-6.11662
-5.60004
-35.1369
-30.008
-27.0017
-24.503
-22.2665
-20.2782
-18.4955
-16.8832
-15.4193
-14.0883
-12.8771
-11.7746
-10.7707
-9.85649
-9.02352
-8.26417
-7.57136
-6.93922
-6.36441
-5.83908
-35.7899
-30.6426
-27.606
-25.0752
-22.8039
-20.7807
-18.9646
-17.3212
-15.8289
-14.4722
-13.2382
-12.1153
-11.0935
-10.1633
-9.31629
-8.54446
-7.84057
-7.1985
-6.61419
-6.08019
-36.4509
-31.2836
-28.2159
-25.652
-23.345
-21.2861
-19.4361
-17.7611
-16.2401
-14.8576
-13.6005
-12.4573
-11.4175
-10.4715
-9.61047
-8.82618
-8.11123
-7.45921
-6.8654
-6.32282
-37.119
-31.9302
-28.8305
-26.2324
-23.8887
-21.7934
-19.9089
-18.202
-16.6521
-15.2437
-13.9636
-12.8
-11.7423
-10.7805
-9.90549
-9.1088
-8.3828
-7.72081
-7.11749
-6.56643
-37.7939
-32.5813
-29.4486
-26.8153
-24.434
-22.3018
-20.3823
-18.6433
-17.0642
-15.6298
-14.3267
-13.1429
-12.0673
-11.0898
-10.2008
-9.39177
-8.65476
-7.98279
-7.36996
-6.8105
-38.4774
-33.2369
-30.0689
-27.3992
-24.9797
-22.81
-20.8552
-19.0838
-17.4756
-16.0152
-14.6891
-13.4851
-12.3918
-11.3986
-10.4958
-9.67453
-8.92654
-8.24461
-7.62229
-7.05458
-39.1699
-33.8959
-30.6897
-27.9828
-25.5247
-23.3171
-21.3269
-19.523
-17.8855
-16.3991
-15.0502
-13.8261
-12.7152
-11.7065
-10.79
-9.95653
-9.19765
-8.50578
-7.87401
-7.29823
-39.8588
-34.5535
-31.3097
-28.5653
-26.0685
-23.8229
-21.797
-19.9605
-18.2938
-16.7815
-15.4097
-14.1657
-13.0372
-12.0131
-11.0831
-10.2375
-9.46771
-8.76593
-8.12475
-7.54109
-6.10674
-4.19271
-2.98399
-2.06859
-1.44026
-0.982736
-0.658902
-0.430953
-0.27418
-0.169422
-0.102693
-0.0631616
-0.0429252
-0.0359505
-0.0378583
-0.0453907
-0.0561919
-0.0685636
-0.08127
-0.0934623
-0.104472
-0.113879
-0.121236
-0.126314
-0.128698
-0.128219
-0.124528
-0.117455
-0.107048
-0.0931804
-0.0768579
-0.0578784
-0.0386985
-0.0193371
-0.00256714
0.00959276
0.0194182
0.0160944
0.0208444
-0.0118591
-6.33764
-4.35692
-3.11752
-2.17373
-1.52383
-1.05048
-0.71423
-0.476712
-0.312348
-0.201478
-0.129759
-0.0860862
-0.062381
-0.0524692
-0.0518774
-0.0572716
-0.0662401
-0.0770381
-0.088393
-0.0994261
-0.109444