/*--------------------------------*- C++ -*----------------------------------*\
  =========                 |
  \\      /  F ield         | OpenFOAM: The Open Source CFD Toolbox
   \\    /   O peration     | Website:  https://openfoam.org
    \\  /    A nd           | Version:  6.0
     \\/     M anipulation  |
\*---------------------------------------------------------------------------*/
FoamFile
{
    version     2.0;
    format      ascii;
    class       volScalarField;
    location    "13.75";
    object      p;
}
// * * * * * * * * * * * * * * * * * * * * * * * * * * * * * * * * * * * * * //

dimensions      [0 2 -2 0 0 0 0];

internalField   nonuniform List<scalar> 
19200
(
-91.2745
-83.1147
-77.0344
-71.906
-67.1202
-62.689
-58.5958
-54.8028
-51.2833
-48.0174
-44.9872
-42.1761
-39.5686
-37.1498
-34.9057
-32.823
-30.8889
-29.0918
-27.4206
-25.8653
-24.4163
-23.0652
-21.8041
-20.6257
-19.5235
-18.4917
-17.525
-16.6185
-15.7678
-14.972
-91.8166
-83.6665
-77.5767
-72.4281
-67.6188
-63.1632
-59.0458
-55.2296
-51.6883
-48.4023
-45.3538
-42.5261
-39.9035
-37.4712
-35.2148
-33.1209
-31.1767
-29.3703
-27.6907
-26.1275
-24.6713
-23.3134
-22.0459
-20.8615
-19.7536
-18.7164
-17.7446
-16.833
-15.9771
-15.1776
-92.3684
-84.2155
-78.1139
-72.9458
-68.1132
-63.6333
-59.4919
-55.6526
-52.0897
-48.7838
-45.7171
-42.873
-40.2356
-37.7898
-35.5213
-33.4164
-31.4622
-29.6466
-27.9586
-26.3876
-24.9242
-23.5596
-22.2858
-21.0954
-19.9819
-18.9394
-17.9624
-17.0458
-16.1847
-15.3816
-92.9248
-84.7638
-78.6478
-73.4593
-68.6035
-64.0993
-59.9339
-56.0716
-52.4873
-49.1617
-46.077
-43.2166
-40.5645
-38.1054
-35.8249
-33.7091
-31.745
-29.9204
-28.2241
-26.6454
-25.1749
-23.8036
-22.5235
-21.3273
-20.2082
-19.1604
-18.1783
-17.2566
-16.3903
-15.5839
-93.4822
-85.3108
-79.1783
-73.969
-69.0895
-64.5609
-60.3716
-56.4864
-52.8808
-49.5356
-46.4332
-43.5566
-40.89
-38.4179
-36.1255
-33.999
-32.0251
-30.1916
-28.487
-26.9008
-25.4232
-24.0454
-22.7591
-21.557
-20.4324
-19.3793
-18.3922
-17.4654
-16.5941
-15.7843
-94.0384
-85.8556
-79.7056
-74.4746
-69.5713
-65.0182
-60.8048
-56.8969
-53.2701
-49.9055
-46.7854
-43.8929
-41.2119
-38.7269
-36.4228
-34.2857
-32.3022
-30.4599
-28.7472
-27.1535
-25.669
-24.2846
-22.9923
-21.7845
-20.6544
-19.596
-18.6039
-17.6721
-16.7957
-15.9827
-94.592
-86.3973
-80.229
-74.9759
-70.0485
-65.4708
-61.2334
-57.3028
-53.6549
-50.271
-47.1334
-44.2252
-41.5301
-39.0322
-36.7167
-34.5691
-32.5762
-30.7252
-29.0045
-27.4034
-25.912
-24.5213
-23.223
-22.0094
-20.874
-19.8105
-18.8133
-17.8766
-16.9952
-16.1792
-95.1421
-86.9352
-80.7483
-75.4726
-70.5208
-65.9184
-61.6571
-57.7038
-54.035
-50.632
-47.4771
-44.5533
-41.8442
-39.3338
-37.0069
-34.8491
-32.8467
-30.9872
-29.2587
-27.6504
-26.1522
-24.7552
-23.451
-22.2319
-21.0911
-20.0225
-19.0205
-18.0787
-17.1924
-16.3737
-95.6881
-87.4688
-81.2628
-75.9644
-70.988
-66.3609
-62.0755
-58.0997
-54.4101
-50.9881
-47.8161
-44.877
-42.154
-39.6312
-37.2932
-35.1252
-33.1137
-31.2458
-29.5096
-27.8941
-26.3894
-24.9862
-23.6761
-22.4516
-21.3056
-20.232
-19.2252
-18.2786
-17.3874
-16.566
-96.2291
-87.9974
-81.7722
-76.4508
-71.4497
-66.7978
-62.4885
-58.4902
-54.7799
-51.3392
-48.1503
-45.1959
-42.4594
-39.9244
-37.5753
-35.3975
-33.377
-31.5008
-29.7571
-28.1346
-26.6234
-25.2141
-23.8984
-22.6684
-21.5173
-20.4389
-19.4273
-18.476
-17.58
-16.7562
-96.7649
-88.5205
-82.276
-76.9314
-71.9057
-67.2289
-62.8958
-58.8751
-55.1443
-51.6849
-48.4793
-45.51
-42.76
-40.213
-37.8532
-35.6656
-33.6363
-31.752
-30.0008
-28.3716
-26.854
-25.4388
-24.1175
-22.8823
-21.7262
-20.643
-19.6269
-18.6708
-17.7702
-16.9442
-97.2948
-89.0378
-82.7738
-77.406
-72.3555
-67.6539
-63.2969
-59.254
-55.5029
-52.0251
-48.803
-45.8189
-43.0557
-40.4969
-38.1265
-35.9293
-33.8913
-31.9992
-30.2408
-28.6048
-27.0811
-25.6601
-24.3334
-23.0931
-21.9322
-20.8443
-19.8237
-18.8631
-17.9579
-17.1299
-97.8185
-89.5489
-83.2653
-77.8741
-72.7988
-68.0724
-63.6917
-59.6268
-55.8554
-52.3594
-49.121
-46.1223
-43.3462
-40.7758
-38.395
-36.1885
-34.142
-32.2421
-30.4766
-28.8342
-27.3044
-25.8778
-24.5458
-23.3006
-22.135
-21.0427
-20.0178
-19.0526
-18.1431
-17.3133
-98.3356
-90.0533
-83.75
-78.3355
-73.2353
-68.4842
-64.0799
-59.993
-56.2016
-52.6876
-49.4331
-46.4201
-43.6312
-41.0494
-38.6584
-36.4427
-34.388
-32.4806
-30.7082
-29.0594
-27.5237
-26.0917
-24.7546
-23.5046
-22.3345
-21.2379
-20.2088
-19.2394
-18.3256
-17.4943
-98.8458
-90.5507
-84.2278
-78.7898
-73.6647
-68.889
-64.4612
-60.3525
-56.5413
-53.0095
-49.739
-46.7119
-43.9105
-41.3175
-38.9165
-36.6919
-34.629
-32.7143
-30.9352
-29.2802
-27.7389
-26.3016
-24.9596
-23.705
-22.5306
-21.4299
-20.3969
-19.4233
-18.5055
-17.673
-99.3487
-91.0408
-84.6981
-79.2367
-74.0868
-69.2864
-64.8352
-60.7049
-56.8741
-53.3247
-50.0385
-46.9975
-44.1837
-41.5798
-39.1691
-36.9357
-34.8649
-32.943
-31.1574
-29.4964
-27.9496
-26.5072
-25.1606
-23.9016
-22.723
-21.6184
-20.5816
-19.6042
-18.6826
-17.8492
-99.8441
-91.5235
-85.1609
-79.6759
-74.5012
-69.6763
-65.2018
-61.05
-57.1997
-53.6329
-50.3313
-47.2766
-44.4507
-41.8361
-39.4157
-37.1738
-35.0953
-33.1664
-31.3744
-29.7077
-28.1555
-26.7083
-25.3571
-24.0939
-22.9115
-21.8033
-20.763
-19.7819
-18.8567
-18.0228
-100.332
-91.9983
-85.6159
-80.1073
-74.9077
-70.0583
-65.5607
-61.3876
-57.518
-53.934
-50.6172
-47.549
-44.7112
-42.086
-39.6562
-37.4059
-35.3199
-33.3842
-31.586
-29.9137
-28.3564
-26.9045
-25.549
-24.2819
-23.0958
-21.9842
-20.9407
-19.9563
-19.0278
-18.1936
-100.812
-92.4653
-86.0628
-80.5305
-75.306
-70.4322
-65.9115
-61.7173
-57.8287
-54.2277
-50.8958
-47.8144
-44.9648
-42.3292
-39.8903
-37.6317
-35.5383
-33.596
-31.7919
-30.1141
-28.5518
-27.0954
-25.7359
-24.465
-23.2755
-22.1609
-21.1144
-20.1269
-19.1955
-18.3616
-101.284
-92.9242
-86.5014
-80.9453
-75.696
-70.7978
-66.2542
-62.0389
-58.1314
-54.5136
-51.1669
-48.0724
-45.2114
-42.5656
-40.1176
-37.851
-35.7503
-33.8015
-31.9915
-30.3084
-28.7414
-27.2807
-25.9173
-24.6429
-23.4503
-22.3328
-21.2838
-20.2936
-19.3597
-18.5264
-101.748
-93.3749
-86.9317
-81.3516
-76.0773
-71.1548
-66.5884
-62.3522
-58.426
-54.7917
-51.4303
-48.3229
-45.4505
-42.7947
-40.3378
-38.0632
-35.9555
-34.0003
-32.1845
-30.4963
-28.9247
-27.4598
-26.0926
-24.815
-23.6195
-22.4996
-21.4483
-20.4558
-19.5197
-18.6877
-102.205
-93.8175
-87.3535
-81.7493
-76.4499
-71.503
-66.9138
-62.657
-58.7123
-55.0615
-51.6858
-48.5657
-45.6821
-43.0164
-40.5507
-38.2683
-36.1535
-34.192
-32.3706
-30.6772
-29.101
-27.6321
-26.2614
-24.9807
-23.7826
-22.6604
-21.6073
-20.6129
-19.6752
-18.8448
-102.654
-94.252
-87.7668
-82.138
-76.8134
-71.8421
-67.2303
-62.953
-58.99
-55.323
-51.933
-48.8004
-45.9058
-43.2303
-40.7559
-38.4657
-36.344
-34.3762
-32.5491
-30.8507
-29.27
-27.7971
-26.4229
-25.1393
-23.9387
-22.8147
-21.7601
-20.7643
-19.8255
-18.9973
-103.097
-94.6784
-88.1712
-82.5176
-77.1676
-72.172
-67.5377
-63.24
-59.2589
-55.576
-52.1719
-49.0269
-46.1214
-43.4363
-40.9533
-38.6554
-36.5266
-34.5525
-32.7197
-31.0162
-29.4309
-27.9539
-26.5763
-25.2897
-24.0869
-22.9612
-21.9056
-20.909
-19.9698
-19.1452
-103.534
-95.0964
-88.5666
-82.8879
-77.5123
-72.4924
-67.8358
-63.5179
-59.5189
-55.8202
-52.4024
-49.2452
-46.329
-43.6342
-41.1427
-38.837
-36.7012
-34.7207
-32.8821
-31.1732
-29.5831
-28.1019
-26.7206
-25.431
-24.2258
-23.0985
-22.0419
-21.045
-20.1064
-19.287
-103.965
-95.5057
-88.9526
-83.2485
-77.8473
-72.803
-68.1242
-63.7864
-59.7698
-56.0557
-52.6242
-49.4551
-46.5283
-43.8241
-41.3239
-39.0105
-36.8676
-34.8805
-33.0358
-31.3213
-29.7261
-28.2403
-26.855
-25.562
-24.354
-23.2248
-22.1672
-21.1699
-20.2325
-19.4173
-104.393
-95.9076
-89.3291
-83.5991
-78.1718
-73.1032
-68.4024
-64.0451
-60.0113
-56.282
-52.8373
-49.6565
-46.7192
-44.0057
-41.4971
-39.1758
-37.0257
-35.0318
-33.1807
-31.4602
-29.8595
-28.3686
-26.9786
-25.6817
-24.4706
-23.3393
-22.2808
-21.2836
-20.3468
-19.5333
-104.83
-96.3058
-89.6955
-83.9379
-78.4846
-73.392
-68.6697
-64.2934
-60.2429
-56.499
-53.0414
-49.8493
-46.9018
-44.1791
-41.662
-39.3329
-37.1754
-35.1745
-33.3167
-31.5898
-29.9827
-28.4858
-27.0903
-25.7885
-24.5735
-23.4399
-22.3811
-21.385
-20.4512
-19.6501
-105.279
-96.6992
-90.0492
-84.2633
-78.7851
-73.6696
-68.9266
-64.532
-60.4653
-56.7073
-53.2372
-50.0339
-47.0765
-44.3448
-41.8194
-39.4825
-37.3175
-35.3093
-33.4444
-31.7103
-30.096
-28.5918
-27.1888
-25.8795
-24.6575
-23.518
-22.4544
-21.4563
-20.5335
-19.7763
-105.692
-97.0691
-90.3864
-84.5757
-79.0753
-73.9385
-69.1757
-64.7633
-60.6809
-56.9089
-53.4265
-50.2123
-47.2452
-44.5044
-41.9707
-39.626
-37.4534
-35.4378
-33.5654
-31.8236
-30.2013
-28.6884
-27.2758
-25.9556
-24.721
-23.5659
-22.482
-21.4635
-20.5398
-19.8004
-110.955
-110.944
-110.901
-110.856
-110.808
-110.749
-110.679
-110.597
-110.502
-110.395
-110.276
-110.144
-110
-109.844
-109.676
-109.496
-109.304
-109.101
-108.886
-108.661
-108.425
-108.179
-107.923
-107.658
-107.384
-107.102
-106.815
-106.525
-106.238
-105.961
-102.071
-102.086
-102.077
-102.056
-102.025
-101.981
-101.924
-101.853
-101.77
-101.674
-101.565
-101.444
-101.31
-101.164
-101.006
-100.837
-100.656
-100.463
-100.26
-100.045
-99.8204
-99.5852
-99.3401
-99.0855
-98.822
-98.5501
-98.271
-97.9852
-97.6935
-97.3906
-94.9654
-94.9987
-95.0135
-95.0121
-94.9965
-94.9671
-94.9241
-94.8678
-94.7985
-94.7166
-94.6221
-94.5153
-94.3962
-94.2652
-94.1224
-93.9679
-93.8021
-93.6251
-93.4372
-93.2386
-93.0295
-92.8101
-92.5809
-92.3419
-92.0936
-91.836
-91.5694
-91.2932
-91.0065
-90.7052
-88.6865
-88.7309
-88.7597
-88.7724
-88.7702
-88.7543
-88.725
-88.6828
-88.6278
-88.5604
-88.4807
-88.3888
-88.2851
-88.1697
-88.0428
-87.9046
-87.7554
-87.5952
-87.4243
-87.243
-87.0514
-86.8497
-86.6381
-86.4167
-86.1856
-85.9449
-85.6943
-85.4333
-85.161
-84.8758
-82.7412
-82.7926
-82.8305
-82.8536
-82.8624
-82.8577
-82.8401
-82.8099
-82.7674
-82.7127
-82.6462
-82.568
-82.4783
-82.3773
-82.2652
-82.1423
-82.0087
-81.8646
-81.7101
-81.5455
-81.371
-81.1866
-80.9925
-80.7888
-80.5754
-80.3523
-80.1192
-79.8758
-79.6215
-79.3553
-77.2141
-77.2697
-77.3134
-77.3436
-77.3601
-77.3636
-77.3548
-77.3339
-77.3012
-77.2568
-77.201
-77.1341
-77.0562
-76.9675
-76.8682
-76.7585
-76.6386
-76.5086
-76.3688
-76.2193
-76.0602
-75.8917
-75.7138
-75.5266
-75.3299
-75.1238
-74.9081
-74.6823
-74.4461
-74.1987
-72.1256
-72.1832
-72.2299
-72.264
-72.2853
-72.2942
-72.2914
-72.2771
-72.2515
-72.2148
-72.1673
-72.1091
-72.0405
-71.9616
-71.8727
-71.7739
-71.6654
-71.5474
-71.42
-71.2834
-71.1377
-70.983
-70.8194
-70.6469
-70.4654
-70.2749
-70.0751
-69.8658
-69.6466
-69.4171
-67.4512
-67.5088
-67.5562
-67.5919
-67.6154
-67.6274
-67.6283
-67.6182
-67.5974
-67.566
-67.5244
-67.4727
-67.4111
-67.3397
-67.2589
-67.1687
-67.0693
-66.9609
-66.8437
-66.7179
-66.5834
-66.4405
-66.2891
-66.1293
-65.9611
-65.7843
-65.5989
-65.4044
-65.2008
-64.9875
-63.1632
-63.2192
-63.2657
-63.3011
-63.3253
-63.3384
-63.341
-63.3333
-63.3154
-63.2875
-63.2498
-63.2026
-63.146
-63.0802
-63.0054
-62.9218
-62.8295
-62.7288
-62.6198
-62.5026
-62.3774
-62.2442
-62.1031
-61.9542
-61.7974
-61.6326
-61.4597
-61.2784
-61.0885
-60.8898
-59.2321
-59.2856
-59.3301
-59.3641
-59.3875
-59.4005
-59.4035
-59.3967
-59.3802
-59.3543
-59.3191
-59.2748
-59.2216
-59.1598
-59.0894
-59.0107
-58.9239
-58.8291
-58.7265
-58.6163
-58.4986
-58.3735
-58.241
-58.1013
-57.9542
-57.7997
-57.6377
-57.4679
-57.2902
-57.1043
-55.6272
-55.6776
-55.7193
-55.7512
-55.773
-55.7849
-55.7874
-55.7805
-55.7644
-55.7394
-55.7055
-55.6631
-55.6121
-55.553
-55.4858
-55.4107
-55.328
-55.2378
-55.1403
-55.0356
-54.924
-54.8055
-54.6802
-54.5482
-54.4094
-54.2638
-54.1112
-53.9516
-53.7846
-53.6099
-52.3181
-52.3651
-52.4038
-52.433
-52.4527
-52.463
-52.4643
-52.4567
-52.4404
-52.4155
-52.3821
-52.3406
-52.2911
-52.2338
-52.1688
-52.0964
-52.0167
-51.93
-51.8365
-51.7363
-51.6296
-51.5166
-51.3973
-51.2718
-51.1401
-51.0022
-50.858
-50.7073
-50.5497
-50.3851
-49.2762
-49.3197
-49.3551
-49.3816
-49.3989
-49.4073
-49.4071
-49.3983
-49.3813
-49.356
-49.3227
-49.2816
-49.2329
-49.1767
-49.1132
-49.0428
-48.9654
-48.8815
-48.7911
-48.6945
-48.5919
-48.4834
-48.3691
-48.2492
-48.1237
-47.9926
-47.8557
-47.7129
-47.5639
-47.4084
-46.4751
-46.5152
-46.5474
-46.571
-46.5858
-46.5922
-46.5903
-46.5802
-46.5622
-46.5363
-46.5027
-46.4616
-46.4133
-46.3578
-46.2954
-46.2263
-46.1508
-46.069
-45.9811
-45.8874
-45.7882
-45.6835
-45.5736
-45.4586
-45.3385
-45.2133
-45.083
-44.9474
-44.8061
-44.6589
-43.891
-43.9277
-43.9568
-43.9776
-43.9901
-43.9944
-43.9908
-43.9793
-43.9601
-43.9335
-43.8994
-43.8582
-43.8099
-43.7549
-43.6932
-43.6252
-43.551
-43.4709
-43.3851
-43.2938
-43.1974
-43.096
-42.9898
-42.879
-42.7638
-42.644
-42.5197
-42.3907
-42.2566
-42.117
-41.5025
-41.5361
-41.5622
-41.5804
-41.5906
-41.5929
-41.5876
-41.5747
-41.5544
-41.5269
-41.4923
-41.4507
-41.4024
-41.3476
-41.2865
-41.2192
-41.1461
-41.0674
-40.9832
-40.894
-40.8
-40.7014
-40.5985
-40.4915
-40.3806
-40.2658
-40.147
-40.0242
-39.8968
-39.7645
-39.2907
-39.3213
-39.3448
-39.3605
-39.3685
-39.369
-39.362
-39.3478
-39.3264
-39.298
-39.2628
-39.2208
-39.1725
-39.1178
-39.057
-38.9903
-38.9181
-38.8405
-38.7578
-38.6703
-38.5783
-38.4822
-38.3821
-38.2785
-38.1715
-38.0612
-37.9476
-37.8306
-37.7097
-37.5844
-37.2388
-37.2667
-37.2876
-37.3011
-37.3071
-37.3058
-37.2973
-37.2818
-37.2594
-37.2302
-37.1944
-37.1521
-37.1035
-37.0489
-36.9884
-36.9222
-36.8507
-36.774
-36.6925
-36.6065
-36.5163
-36.4222
-36.3247
-36.2241
-36.1206
-36.0145
-35.9058
-35.7944
-35.6798
-35.5614
-35.332
-35.3574
-35.376
-35.3874
-35.3915
-35.3886
-35.3787
-35.3621
-35.3387
-35.3087
-35.2723
-35.2297
-35.181
-35.1264
-35.0661
-35.0003
-34.9294
-34.8535
-34.773
-34.6882
-34.5995
-34.5073
-34.4119
-34.314
-34.2137
-34.1114
-34.0073
-33.9013
-33.793
-33.6815
-33.5571
-33.5802
-33.5968
-33.6062
-33.6087
-33.6043
-33.5931
-33.5754
-33.5511
-33.5205
-33.4836
-33.4406
-33.3917
-33.3371
-33.277
-33.2116
-33.1411
-33.0659
-32.9862
-32.9025
-32.815
-32.7244
-32.6309
-32.5352
-32.4378
-32.3391
-32.2393
-32.1386
-32.0365
-31.9321
-31.9026
-31.9237
-31.9382
-31.9459
-31.9469
-31.9411
-31.9288
-31.9101
-31.885
-31.8537
-31.8164
-31.7731
-31.7241
-31.6695
-31.6095
-31.5444
-31.4743
-31.3997
-31.3207
-31.2378
-31.1514
-31.062
-30.9701
-30.8764
-30.7814
-30.6858
-30.5902
-30.4946
-30.3988
-30.3017
-30.3582
-30.3773
-30.3901
-30.3962
-30.3957
-30.3887
-30.3754
-30.3558
-30.33
-30.2982
-30.2604
-30.2169
-30.1678
-30.1132
-30.0533
-29.9884
-29.9187
-29.8445
-29.7661
-29.6839
-29.5983
-29.5099
-29.4192
-29.327
-29.2341
-29.1413
-29.0494
-28.9587
-28.8693
-28.78
-28.9146
-28.932
-28.9431
-28.9478
-28.946
-28.9379
-28.9236
-28.9032
-28.8768
-28.8445
-28.8064
-28.7626
-28.7134
-28.6588
-28.5991
-28.5344
-28.465
-28.3912
-28.3132
-28.2315
-28.1465
-28.0588
-27.969
-27.8779
-27.7866
-27.696
-27.6074
-27.5214
-27.4386
-27.3575
-27.5638
-27.5795
-27.5891
-27.5924
-27.5895
-27.5804
-27.5653
-27.5442
-27.5172
-27.4844
-27.446
-27.4021
-27.3528
-27.2982
-27.2386
-27.1741
-27.1049
-27.0314
-26.9538
-26.8725
-26.7878
-26.7005
-26.6112
-26.5209
-26.4305
-26.3415
-26.2556
-26.1739
-26.0979
-26.0257
-26.2982
-26.3124
-26.3207
-26.3228
-26.3188
-26.3088
-26.2929
-26.2712
-26.2437
-26.2105
-26.1719
-26.1278
-26.0784
-26.0239
-25.9644
-25.9
-25.8311
-25.7578
-25.6804
-25.5993
-25.5149
-25.4278
-25.3386
-25.2484
-25.1584
-25.0702
-24.9862
-24.908
-24.8389
-24.7765
-25.1114
-25.1242
-25.1312
-25.1322
-25.1272
-25.1164
-25.0997
-25.0774
-25.0495
-25.016
-24.9771
-24.9329
-24.8834
-24.8289
-24.7695
-24.7053
-24.6365
-24.5634
-24.4862
-24.4051
-24.3207
-24.2334
-24.144
-24.0534
-23.963
-23.8747
-23.7913
-23.7156
-23.653
-23.6012
-23.9975
-24.0089
-24.0147
-24.0146
-24.0087
-23.9971
-23.9798
-23.9569
-23.9285
-23.8946
-23.8554
-23.811
-23.7615
-23.7069
-23.6475
-23.5833
-23.5146
-23.4415
-23.3642
-23.2831
-23.1984
-23.1106
-23.0205
-22.9288
-22.837
-22.7472
-22.663
-22.588
-22.5308
-22.4888
-22.9508
-22.9613
-22.9662
-22.9653
-22.9587
-22.9464
-22.9286
-22.9053
-22.8766
-22.8425
-22.8031
-22.7586
-22.709
-22.6545
-22.595
-22.5309
-22.4622
-22.389
-22.3117
-22.2303
-22.1452
-22.0567
-21.9654
-21.8721
-21.7781
-21.6854
-21.5981
-21.5216
-21.4688
-21.4362
-21.9661
-21.9761
-21.9806
-21.9795
-21.9728
-21.9606
-21.943
-21.9199
-21.8915
-21.8579
-21.8191
-21.7752
-21.7263
-21.6726
-21.614
-21.5507
-21.4829
-21.4106
-21.334
-21.2533
-21.1688
-21.0806
-20.9891
-20.8951
-20.7993
-20.7037
-20.6117
-20.5309
-20.4811
-20.4687
-21.0401
-21.048
-21.0506
-21.0479
-21.0399
-21.0266
-21.0081
-20.9846
-20.9559
-20.9223
-20.8837
-20.8403
-20.792
-20.7391
-20.6816
-20.6196
-20.5531
-20.4824
-20.4074
-20.3283
-20.2452
-20.1584
-20.0679
-19.9743
-19.8778
-19.7796
-19.6812
-19.5897
-19.5221
-19.5385
-103.104
-103.538
-103.931
-104.335
-104.745
-105.15
-105.545
-105.931
-106.305
-106.667
-107.017
-107.353
-107.674
-107.981
-108.274
-108.551
-108.813
-109.059
-109.29
-109.505
-109.705
-109.889
-110.057
-110.211
-110.35
-110.474
-110.586
-110.687
-110.78
-110.87
-94.1054
-94.5653
-94.9994
-95.4268
-95.8484
-96.2601
-96.66
-97.0478
-97.4235
-97.7867
-98.1367
-98.4732
-98.7957
-99.1039
-99.3976
-99.6764
-99.9404
-100.189
-100.423
-100.641
-100.844
-101.032
-101.205
-101.363
-101.507
-101.636
-101.751
-101.854
-101.944
-102.018
-86.9393
-87.4054
-87.8539
-88.2882
-88.7106
-89.1212
-89.5198
-89.9062
-90.2803
-90.6419
-90.9906
-91.326
-91.6479
-91.956
-92.25
-92.5298
-92.7952
-93.046
-93.2822
-93.5037
-93.7104
-93.9024
-94.0798
-94.2426
-94.3909
-94.5249
-94.6446
-94.7498
-94.8399
-94.9123
-80.6976
-81.1547
-81.5986
-82.0281
-82.4445
-82.849
-83.2418
-83.6227
-83.9915
-84.3481
-84.6922
-85.0235
-85.3418
-85.6468
-85.9384
-86.2163
-86.4805
-86.7307
-86.9669
-87.189
-87.397
-87.5908
-87.7705
-87.9361
-88.0875
-88.2248
-88.3478
-88.4562
-88.5495
-88.6267
-74.8848
-75.3264
-75.7581
-76.177
-76.5833
-76.9779
-77.3611
-77.7329
-78.0929
-78.4412
-78.7773
-79.1012
-79.4126
-79.7114
-79.9974
-80.2703
-80.5302
-80.7767
-81.01
-81.2298
-81.4361
-81.6289
-81.8082
-81.9739
-82.1259
-82.2643
-82.3888
-82.4992
-82.5952
-82.6763
-69.5674
-69.9917
-70.4078
-70.8127
-71.2057
-71.5875
-71.9583
-72.3181
-72.6666
-73.0038
-73.3294
-73.6433
-73.9453
-74.2352
-74.5129
-74.7783
-75.0312
-75.2715
-75.4992
-75.714
-75.9161
-76.1053
-76.2815
-76.4448
-76.595
-76.7322
-76.8561
-76.9666
-77.0634
-77.1463
-64.7435
-65.1496
-65.5487
-65.9376
-66.3155
-66.6826
-67.0392
-67.3853
-67.7206
-68.0451
-68.3585
-68.6607
-68.9515
-69.2309
-69.4986
-69.7545
-69.9986
-70.2307
-70.4508
-70.6587
-70.8545
-71.038
-71.2092
-71.368
-71.5145
-71.6484
-71.7698
-71.8785
-71.9743
-72.057
-60.3667
-60.7548
-61.1363
-61.5085
-61.8703
-62.222
-62.5638
-62.8954
-63.2167
-63.5276
-63.828
-64.1176
-64.3963
-64.6641
-64.9207
-65.1661
-65.4002
-65.623
-65.8342
-66.0339
-66.222
-66.3984
-66.5631
-66.7161
-66.8573
-66.9866
-67.1039
-67.2093
-67.3025
-67.3834
-56.3913
-56.7618
-57.1262
-57.4817
-57.8276
-58.1639
-58.4906
-58.8077
-59.1149
-59.4121
-59.6991
-59.9758
-60.2422
-60.4979
-60.7431
-60.9775
-61.2011
-61.4138
-61.6155
-61.8063
-61.9859
-62.1545
-62.3119
-62.4581
-62.593
-62.7167
-62.829
-62.93
-63.0195
-63.0975
-52.7744
-53.1283
-53.4762
-53.8158
-54.1462
-54.4675
-54.7797
-55.0826
-55.376
-55.6597
-55.9336
-56.1976
-56.4516
-56.6955
-56.9292
-57.1525
-57.3655
-57.5681
-57.7602
-57.9417
-58.1126
-58.273
-58.4227
-58.5617
-58.6899
-58.8075
-58.9142
-59.0101
-59.0952
-59.1694
-49.4759
-49.8142
-50.1466
-50.4711
-50.7869
-51.094
-51.3923
-51.6817
-51.9618
-52.2326
-52.494
-52.7458
-52.9879
-53.2202
-53.4427
-53.6553
-53.858
-54.0506
-54.2331
-54.4056
-54.5679
-54.72
-54.8619
-54.9936
-55.115
-55.2262
-55.3271
-55.4178
-55.4981
-55.5681
-46.4595
-46.7833
-47.1014
-47.4119
-47.714
-48.0078
-48.2931
-48.5696
-48.8373
-49.0959
-49.3454
-49.5856
-49.8164
-50.0378
-50.2497
-50.452
-50.6447
-50.8277
-51.0011
-51.1648
-51.3187
-51.4628
-51.5972
-51.7217
-51.8365
-51.9414
-52.0365
-52.1218
-52.1972
-52.2629
-43.6933
-44.0038
-44.3086
-44.6061
-44.8956
-45.177
-45.4501
-45.7148
-45.9708
-46.2181
-46.4564
-46.6857
-46.9059
-47.117
-47.3188
-47.5115
-47.6948
-47.8688
-48.0335
-48.1889
-48.3348
-48.4713
-48.5985
-48.7162
-48.8245
-48.9234
-49.0128
-49.0929
-49.1635
-49.2248
-41.1494
-41.4477
-41.7404
-42.026
-42.3039
-42.5738
-42.8357
-43.0894
-43.3346
-43.5712
-43.7991
-44.0183
-44.2286
-44.4301
-44.6226
-44.8062
-44.9807
-45.1463
-45.3029
-45.4504
-45.5888
-45.7182
-45.8386
-45.9498
-46.052
-46.1452
-46.2293
-46.3043
-46.3704
-46.4275
-38.804
-39.0911
-39.3727
-39.6474
-39.9145
-40.174
-40.4256
-40.669
-40.9042
-41.131
-41.3493
-41.559
-41.7601
-41.9526
-42.1364
-42.3116
-42.478
-42.6357
-42.7847
-42.9249
-43.0564
-43.1791
-43.2931
-43.3984
-43.4949
-43.5827
-43.6617
-43.7321
-43.7938
-43.8469
-36.6363
-36.9132
-37.1846
-37.4493
-37.7067
-37.9565
-38.1986
-38.4326
-38.6585
-38.8762
-39.0855
-39.2865
-39.4791
-39.6633
-39.839
-40.0063
-40.1652
-40.3155
-40.4575
-40.591
-40.716
-40.8325
-40.9406
-41.0403
-41.1315
-41.2143
-41.2887
-41.3547
-41.4124
-41.4618
-34.6284
-34.896
-35.1582
-35.4138
-35.6623
-35.9032
-36.1365
-36.3618
-36.5792
-36.7884
-36.9894
-37.1823
-37.3669
-37.5433
-37.7116
-37.8716
-38.0234
-38.167
-38.3024
-38.4297
-38.5487
-38.6595
-38.7622
-38.8567
-38.943
-39.0212
-39.0913
-39.1533
-39.2072
-39.2531
-32.765
-33.024
-33.2779
-33.5252
-33.7655
-33.9983
-34.2234
-34.4407
-34.6501
-34.8514
-35.0447
-35.23
-35.4073
-35.5765
-35.7377
-35.891
-36.0363
-36.1736
-36.303
-36.4244
-36.5379
-36.6434
-36.7411
-36.8308
-36.9126
-36.9865
-37.0526
-37.1109
-37.1613
-37.2041
-31.0325
-31.2838
-31.53
-31.7699
-32.0027
-32.228
-32.4457
-32.6555
-32.8574
-33.0514
-33.2375
-33.4157
-33.586
-33.7485
-33.9032
-34.0502
-34.1894
-34.3209
-34.4446
-34.5607
-34.669
-34.7697
-34.8626
-34.9479
-35.0256
-35.0956
-35.158
-35.2129
-35.2601
-35.2999
-29.4193
-29.6635
-29.9029
-30.136
-30.362
-30.5804
-30.7911
-30.9939
-31.1888
-31.3759
-31.5552
-31.7267
-31.8906
-32.0468
-32.1954
-32.3365
-32.4701
-32.5961
-32.7146
-32.8257
-32.9292
-33.0253
-33.114
-33.1952
-33.269
-33.3354
-33.3944
-33.4461
-33.4904
-33.5275
-27.9148
-28.1526
-28.386
-28.6131
-28.8329
-29.0449
-29.249
-29.4452
-29.6336
-29.8141
-29.987
-30.1522
-30.31
-30.4603
-30.6032
-30.7388
-30.867
-30.988
-31.1016
-31.208
-31.3071
-31.399
-31.4837
-31.5611
-31.6314
-31.6944
-31.7503
-31.799
-31.8407
-31.8753
-26.51
-26.742
-26.9701
-27.192
-27.406
-27.612
-27.81
-28
-28.182
-28.3564
-28.5231
-28.6825
-28.8345
-28.9792
-29.1167
-29.2471
-29.3704
-29.4866
-29.5957
-29.6977
-29.7927
-29.8807
-29.9616
-30.0355
-30.1025
-30.1624
-30.2154
-30.2615
-30.3006
-30.3329
-25.1961
-25.4231
-25.6471
-25.8644
-26.0732
-26.2736
-26.4656
-26.6496
-26.8256
-26.994
-27.155
-27.3087
-27.4552
-27.5947
-27.7271
-27.8526
-27.9712
-28.0829
-28.1878
-28.2858
-28.3769
-28.4612
-28.5387
-28.6094
-28.6733
-28.7303
-28.7807
-28.8242
-28.8611
-28.8913
-23.9657
-24.1884
-24.4096
-24.623
-24.827
-25.0219
-25.2083
-25.3864
-25.5566
-25.7193
-25.8747
-26.023
-26.1643
-26.2988
-26.4265
-26.5474
-26.6616
-26.7692
-26.87
-26.9642
-27.0518
-27.1327
-27.207
-27.2746
-27.3356
-27.3901
-27.4379
-27.4792
-27.5139
-27.5421
-22.8118
-23.0314
-23.2511
-23.4614
-23.6607
-23.8503
-24.0312
-24.2036
-24.3682
-24.5253
-24.6754
-24.8185
-24.9549
-25.0847
-25.2079
-25.3245
-25.4346
-25.5382
-25.6353
-25.726
-25.8101
-25.8879
-25.9591
-26.024
-26.0823
-26.1343
-26.1798
-26.219
-26.2517
-26.2782
-21.7276
-21.9472
-22.1674
-22.3747
-22.5693
-22.7536
-22.9289
-23.0957
-23.2547
-23.4064
-23.5513
-23.6895
-23.8212
-23.9465
-24.0654
-24.1779
-24.2841
-24.3839
-24.4775
-24.5648
-24.6458
-24.7205
-24.789
-24.8512
-24.907
-24.9567
-25.0001
-25.0372
-25.0681
-25.0929
-20.7008
-20.9283
-21.1529
-21.3571
-21.5466
-21.7256
-21.8952
-22.0563
-22.2098
-22.3564
-22.4963
-22.6299
-22.7571
-22.8781
-22.9929
-23.1016
-23.2041
-23.3005
-23.3908
-23.4749
-23.5529
-23.6249
-23.6907
-23.7503
-23.8039
-23.8514
-23.8927
-23.928
-23.9572
-23.9804
-19.7094
-19.9546
-20.1916
-20.394
-20.5783
-20.752
-20.9163
-21.0723
-21.2209
-21.3628
-21.4985
-21.6279
-21.7513
-21.8687
-21.9801
-22.0855
-22.185
-22.2785
-22.366
-22.4475
-22.5231
-22.5927
-22.6564
-22.7141
-22.7658
-22.8115
-22.8513
-22.8851
-22.9129
-22.9349
-18.7607
-19.0192
-19.2738
-19.4793
-19.6593
-19.8277
-19.9871
-20.1382
-20.2824
-20.4202
-20.5521
-20.6781
-20.7982
-20.9125
-21.021
-21.1237
-21.2205
-21.3116
-21.3968
-21.4763
-21.5499
-21.6178
-21.6798
-21.736
-21.7863
-21.8308
-21.8695
-21.9024
-21.9294
-21.9507
-18.0183
-18.271
-18.5082
-18.7144
-18.8873
-19.0438
-19.1932
-19.3356
-19.4713
-19.601
-19.7252
-19.8439
-19.9569
-20.0644
-20.1663
-20.2625
-20.3533
-20.4384
-20.518
-20.5921
-20.6606
-20.7235
-20.7809
-20.8327
-20.879
-20.9197
-20.9549
-20.9845
-21.0086
-21.0272
-11.4058
-12.1056
-12.8542
-13.6512
-14.5007
-15.407
-16.3743
-17.4071
-18.5106
-19.6906
-20.9533
-22.3061
-23.7572
-25.3158
-26.9927
-28.8005
-30.7536
-32.8694
-35.1682
-37.6744
-40.417
-43.431
-46.7576
-50.445
-54.5507
-59.1417
-64.2539
-69.8667
-76.5224
-85.1699
-11.6329
-12.3389
-13.0913
-13.8928
-14.7475
-15.6593
-16.6325
-17.6717
-18.782
-19.9693
-21.2401
-22.6014
-24.0618
-25.6305
-27.3184
-29.138
-31.1042
-33.2343
-35.5487
-38.072
-40.8334
-43.868
-47.2171
-50.9289
-55.0604
-59.6785
-64.8176
-70.4538
-77.1221
-85.7649
-11.861
-12.5733
-13.3294
-14.1356
-14.9955
-15.9129
-16.8921
-17.9377
-19.055
-20.2498
-21.5286
-22.8987
-24.3685
-25.9474
-27.6464
-29.4782
-31.4576
-33.602
-35.9323
-38.4729
-41.2534
-44.3087
-47.6805
-51.4165
-55.5738
-60.2183
-65.383
-71.0403
-77.7167
-86.3468
-12.0897
-12.8082
-13.5682
-14.379
-15.2443
-16.1674
-17.1526
-18.2048
-19.3291
-20.5314
-21.8183
-23.1973
-24.6765
-26.2658
-27.976
-29.82
-31.8126
-33.9716
-36.3178
-38.8758
-41.6753
-44.7516
-48.1459
-51.9062
-56.0889
-60.7592
-65.9488
-71.6277
-78.3168
-86.9442
-12.319
-13.0435
-13.8074
-14.623
-15.4937
-16.4225
-17.4139
-18.4726
-19.604
-20.814
-22.1091
-23.4969
-24.9858
-26.5854
-28.3069
-30.1631
-32.1691
-34.3427
-36.7048
-39.2803
-42.0989
-45.1959
-48.6128
-52.3972
-56.6053
-61.3013
-66.5158
-72.2171
-78.9225
-87.5543
-12.5485
-13.279
-14.0468
-14.8673
-15.7435
-16.6782
-17.6757
-18.7411
-19.8796
-21.0973
-22.4007
-23.7974
-25.2959
-26.906
-28.6388
-30.5074
-32.5268
-34.7151
-37.0931
-39.6861
-42.5239
-45.6417
-49.0811
-52.8897
-57.1231
-61.8448
-67.0844
-72.8083
-79.5312
-88.1703
-12.7782
-13.5145
-14.2863
-15.1117
-15.9935
-16.9341
-17.9379
-19.01
-20.1558
-21.3812
-22.6929
-24.0986
-25.6069
-27.2275
-28.9717
-30.8527
-32.8856
-35.0885
-37.4827
-40.0932
-42.9501
-46.0888
-49.5507
-53.3835
-57.6422
-62.3898
-67.6544
-73.4009
-80.1415
-88.7894
-13.0077
-13.7499
-14.5256
-15.3561
-16.2435
-17.1901
-18.2003
-19.2792
-20.4322
-21.6654
-22.9856
-24.4004
-25.9184
-27.5496
-29.3053
-31.1986
-33.2451
-35.4628
-37.8731
-40.5013
-43.3774
-46.537
-50.0215
-53.8783
-58.1624
-62.9358
-68.2255
-73.9947
-80.7531
-89.4109
-13.2371
-13.985
-14.7647
-15.6003
-16.4935
-17.4461
-18.4627
-19.5484
-20.7087
-21.9498
-23.2785
-24.7023
-26.2302
-27.872
-29.6392
-31.5451
-33.6052
-35.8378
-38.2642
-40.91
-43.8054
-46.9859
-50.493
-54.374
-58.6834
-63.4826
-68.7973
-74.5892
-81.3656
-90.034
-13.4661
-14.2195
-15.0032
-15.8441
-16.7431
-17.7018
-18.7249
-19.8175
-20.9852
-22.2342
-23.5714
-25.0044
-26.5422
-28.1947
-29.9734
-31.8919
-33.9656
-36.213
-38.6556
-41.3191
-44.2338
-47.4353
-50.965
-54.8701
-59.2048
-64.0298
-69.3696
-75.184
-81.9786
-90.6579
-13.6946
-14.4534
-15.2412
-16.0874
-16.9923
-17.9572
-18.9867
-20.0863
-21.2615
-22.5184
-23.8642
-25.3064
-26.8541
-28.5173
-30.3076
-32.2387
-34.3261
-36.5884
-39.0472
-41.7285
-44.6624
-47.8848
-51.4372
-55.3665
-59.7264
-64.5771
-69.9418
-75.7788
-82.5913
-91.2818
-13.9225
-14.6865
-15.4784
-16.33
-17.2409
-18.212
-19.2481
-20.3547
-21.5374
-22.8023
-24.1566
-25.6081
-27.1657
-28.8397
-30.6417
-32.5853
-34.6864
-36.9636
-39.4387
-42.1377
-45.0909
-48.3343
-51.9093
-55.8626
-60.2478
-65.124
-70.5135
-76.3729
-83.2033
-91.9049
-14.1496
-14.9188
-15.7147
-16.5718
-17.4887
-18.4662
-19.5089
-20.6226
-21.8127
-23.0857
-24.4486
-25.9094
-27.4769
-29.1616
-30.9753
-32.9315
-35.0463
-37.3384
-39.8298
-42.5465
-45.519
-48.7834
-52.3809
-56.3583
-60.7685
-65.6702
-71.0844
-76.9659
-83.814
-92.5265
-14.3759
-15.1501
-15.9501
-16.8128
-17.7359
-18.7196
-19.7691
-20.8897
-22.0874
-23.3685
-24.74
-26.21
-27.7875
-29.483
-31.3082
-33.2771
-35.4056
-37.7126
-40.2203
-42.9546
-45.9465
-49.2317
-52.8517
-56.853
-61.2883
-66.2153
-71.6539
-77.5574
-84.4229
-93.1462
-14.6014
-15.3804
-16.1845
-17.0529
-17.9821
-18.9723
-20.0284
-21.1561
-22.3614
-23.6505
-25.0306
-26.5099
-28.0973
-29.8035
-31.6404
-33.6218
-35.764
-38.0859
-40.6098
-43.3619
-46.3729
-49.679
-53.3215
-57.3466
-61.8067
-66.7589
-72.2217
-78.1468
-85.0294
-93.7633
-14.8261
-15.6097
-16.4179
-17.292
-18.2275
-19.224
-20.2868
-21.4217
-22.6345
-23.9316
-25.3203
-26.8088
-28.4062
-30.1231
-31.9715
-33.9655
-36.1213
-38.4581
-40.9981
-43.7678
-46.7981
-50.125
-53.7898
-57.8386
-62.3234
-67.3005
-72.7873
-78.7337
-85.6331
-94.3774
-15.0499
-15.838
-16.6503
-17.5302
-18.4719
-19.4748
-20.5444
-21.6863
-22.9066
-24.2117
-25.609
-27.1066
-28.7139
-30.4414
-32.3014
-34.3079
-36.4773
-38.8288
-41.385
-44.1723
-47.2216
-50.5692
-54.2562
-58.3287
-62.838
-67.8397
-73.3502
-79.3177
-86.2336
-94.988
-15.2731
-16.0654
-16.8817
-17.7675
-18.7154
-19.7248
-20.8009
-21.9499
-23.1776
-24.4907
-25.8965
-27.4032
-29.0203
-30.7584
-32.6298
-34.6487
-36.8317
-39.1979
-41.7701
-44.5749
-47.6433
-51.0114
-54.7206
-58.8164
-63.35
-68.3762
-73.9101
-79.8983
-86.8303
-95.5945
-15.4957
-16.292
-17.1123
-18.004
-18.9581
-19.9738
-21.0565
-22.2124
-23.4476
-24.7685
-26.1826
-27.6984
-29.3251
-31.0737
-32.9565
-34.9878
-37.1841
-39.565
-42.1532
-44.9753
-48.0626
-51.4512
-55.1824
-59.3015
-63.8592
-68.9095
-74.4665
-80.4751
-87.4229
-96.1967
-15.7182
-16.5182
-17.3423
-18.2397
-19.2
-20.2219
-21.3111
-22.4739
-23.7162
-25.0449
-26.4673
-27.9919
-29.6283
-31.3873
-33.2813
-35.3248
-37.5345
-39.9299
-42.5339
-45.3733
-48.4794
-51.8883
-55.6412
-59.7834
-64.365
-69.4393
-75.0191
-81.0476
-88.0109
-96.794
-15.9407