/*--------------------------------*- C++ -*----------------------------------*\
  =========                 |
  \\      /  F ield         | OpenFOAM: The Open Source CFD Toolbox
   \\    /   O peration     | Website:  https://openfoam.org
    \\  /    A nd           | Version:  6.0
     \\/     M anipulation  |
\*---------------------------------------------------------------------------*/
FoamFile
{
    version     2.0;
    format      ascii;
    class       surfaceScalarField;
    location    "4.0005";
    object      phi;
}
// * * * * * * * * * * * * * * * * * * * * * * * * * * * * * * * * * * * * * //

dimensions      [0 3 -1 0 0 0 0];

internalField   nonuniform List<scalar> 
38030
(
2.06267e-05
-0.0802849
0.0802643
0.000110727
-0.0753249
0.0752348
0.000262507
-0.0712164
0.0710646
0.000469257
-0.0677948
0.067588
0.00072496
-0.0649227
0.064667
0.00102337
-0.062486
0.0621876
0.00135822
-0.0603925
0.0600576
0.00172347
-0.058568
0.0582028
0.0021134
-0.0569538
0.0565639
0.00252274
-0.0555033
0.0550939
0.00294673
-0.05418
0.053756
0.00338112
-0.0529554
0.052521
0.00382217
-0.0518075
0.0513665
0.00426668
-0.0507194
0.0502749
0.00471191
-0.0496782
0.049233
0.00515558
-0.0486742
0.0482305
0.00559583
-0.0477
0.0472598
0.00603116
-0.0467503
0.046315
0.00646042
-0.0458211
0.0453919
0.00688273
-0.0449095
0.0444872
0.00729747
-0.0440132
0.0435985
0.00770423
-0.0431307
0.042724
0.00810273
-0.0422608
0.0418623
0.00849284
-0.0414026
0.0410125
0.00887451
-0.0405552
0.0401735
0.00924773
-0.0397178
0.0393446
0.0096125
-0.0388896
0.0385249
0.00996875
-0.0380699
0.0377137
0.0103163
-0.0372577
0.0369101
-0.0364518
0.0361132
0.0106549
2.79231e-05
-0.0803128
0.000120024
-0.075417
0.000273847
-0.0713702
0.000483607
-0.0680045
0.000742959
-0.065182
0.00104533
-0.0627884
0.0013842
-0.0607313
0.00175328
-0.0589371
0.0021467
-0.0573472
0.00255909
-0.0559157
0.00298558
-0.0546064
0.00342188
-0.0533917
0.00386424
-0.0522499
0.00430944
-0.0511646
0.00475475
-0.0501236
0.00519793
-0.0491174
0.00563716
-0.0481393
0.00607099
-0.0471842
0.00649832
-0.0462485
0.00691835
-0.0453295
0.00733052
-0.0444254
0.00773448
-0.0435347
0.00813003
-0.0426564
0.00851712
-0.0417897
0.00889576
-0.0409338
0.00926601
-0.040088
0.00962793
-0.0392516
0.00998155
-0.0384235
0.0103268
-0.0376029
-0.0367884
0.0106634
3.08299e-05
-0.0803437
0.000126167
-0.0755123
0.000283318
-0.0715273
0.000496812
-0.068218
0.000760196
-0.0654454
0.0010667
-0.0630949
0.00140961
-0.0610742
0.00178247
-0.05931
0.00217928
-0.057744
0.00259456
-0.0563309
0.00302336
-0.0550353
0.00346137
-0.0538297
0.0039048
-0.0526933
0.00435045
-0.0516103
0.0047956
-0.0505687
0.00523805
-0.0495598
0.00567602
-0.0485772
0.00610811
-0.0476163
0.00653329
-0.0466736
0.00695083
-0.045747
0.00736023
-0.0448348
0.00776121
-0.0439357
0.00815367
-0.0430489
0.00853761
-0.0421736
0.0089131
-0.0413093
0.00928029
-0.0404552
0.00963932
-0.0396106
0.00999026
-0.0387745
0.0103331
-0.0379458
-0.037123
0.0106677
3.26395e-05
-0.0803763
0.000131034
-0.0756107
0.000291775
-0.0716881
0.000509243
-0.0684355
0.000776809
-0.065713
0.00108751
-0.0634056
0.00143444
-0.0614212
0.00181101
-0.0596865
0.00221108
-0.0581441
0.00262907
-0.0567489
0.00306
-0.0554662
0.00349948
-0.0542692
0.00394375
-0.0531376
0.0043896
-0.0520561
0.00483435
-0.0510135
0.00527581
-0.0500013
0.00571227
-0.0490137
0.00614239
-0.0480464
0.00656519
-0.0470964
0.00698001
-0.0461619
0.00738643
-0.0452412
0.00778426
-0.0443335
0.00817346
-0.0434381
0.00855411
-0.0425543
0.00892635
-0.0416815
0.00929039
-0.0408193
0.00964645
-0.0399666
0.00999468
-0.0391227
0.0103352
-0.0382862
-0.0374556
0.0106678
3.4045e-05
-0.0804103
0.00013528
-0.075712
0.00029962
-0.0718524
0.00052112
-0.068657
0.000792903
-0.0659848
0.00110779
-0.0637205
0.00145869
-0.0617721
0.00183885
-0.0600667
0.00224202
-0.0585473
0.00266254
-0.0571694
0.00309538
-0.055899
0.00353611
-0.0547099
0.00398097
-0.0535824
0.00442676
-0.0525019
0.00487083
-0.0514575
0.00531105
-0.0504415
0.00574574
-0.0494484
0.00617364
-0.0484743
0.00659382
-0.0475166
0.00700571
-0.0465737
0.00740896
-0.0456445
0.00780345
-0.044728
0.00818923
-0.0438238
0.00856643
-0.0429315
0.00893529
-0.0420504
0.00929608
-0.04118
0.00964909
-0.0403197
0.00999457
-0.0394682
0.0103326
-0.0386243
-0.0377863
0.0106633
3.52634e-05
-0.0804456
0.000139184
-0.0758159
0.000307068
-0.0720203
0.000532578
-0.0688825
0.000808546
-0.0662607
0.00112756
-0.0640395
0.00148232
-0.0621268
0.00186594
-0.0604503
0.00227205
-0.0589534
0.0026949
-0.0575923
0.0031294
-0.0563335
0.00357114
-0.0551516
0.00401632
-0.0540276
0.00446177
-0.0529474
0.0049049
-0.0519007
0.0053436
-0.0508802
0.00577625
-0.049881
0.00620167
-0.0488997
0.00661899
-0.047934
0.00702771
-0.0469825
0.00742757
-0.0460443
0.00781853
-0.045119
0.0082007
-0.044206
0.00857432
-0.0433051
0.00893967
-0.0424157
0.0092971
-0.0415375
0.009647
-0.0406695
0.00998966
-0.0398109
0.0103253
-0.03896
-0.038115
0.010654
3.63875e-05
-0.080482
0.000142884
-0.0759224
0.000314236
-0.0721917
0.000543696
-0.0691119
0.00082378
-0.0665408
0.00114682
-0.0643626
0.00150532
-0.0624853
0.00189224
-0.0608372
0.00230109
-0.0593622
0.00272604
-0.0580172
0.00316197
-0.0567694
0.00360444
-0.0555941
0.00404966
-0.0544728
0.0044945
-0.0533922
0.00493639
-0.0523425
0.00537328
-0.0513171
0.00580362
-0.0503114
0.00622628
-0.0493223
0.00664048
-0.0483482
0.00704578
-0.0473878
0.00744201
-0.0464405
0.0078292
-0.0455062
0.00820757
-0.0445844
0.00857742
-0.0436749
0.00893913
-0.0427774
0.00929314
-0.0418915
0.00963984
-0.0410163
0.00997964
-0.0401507
0.0103128
-0.0392931
-0.0384416
0.0106395
3.74568e-05
-0.0805194
0.00014645
-0.0760314
0.000321192
-0.0723664
0.000554523
-0.0693453
0.00083863
-0.0668249
0.00116558
-0.0646895
0.00152767
-0.0628474
0.0019177
-0.0612273
0.00232907
-0.0597736
0.00275589
-0.0584441
0.00319298
-0.0572065
0.0036359
-0.056037
0.00408087
-0.0549178
0.00452479
-0.0538361
0.00496514
-0.0527829
0.00539993
-0.0517519
0.00582766
-0.0507391
0.00624727
-0.049742
0.00665807
-0.048759
0.0070597
-0.0477894
0.00745204
-0.0468329
0.00783524
-0.0458894
0.00820959
-0.0449587
0.00857551
-0.0440408
0.00893344
-0.0431354
0.00928388
-0.0422419
0.00962731
-0.0413597
0.00996417
-0.0404875
0.0102948
-0.0396238
-0.0387663
0.0106195
3.84931e-05
-0.0805579
0.000149916
-0.0761428
0.000327974
-0.0725445
0.000565088
-0.0695824
0.000853107
-0.0671129
0.00118383
-0.0650202
0.00154935
-0.063213
0.00194229
-0.0616202
0.00235595
-0.0601872
0.00278436
-0.0588725
0.00322233
-0.0576445
0.0036654
-0.0564801
0.00410982
-0.0553622
0.00455251
-0.0542788
0.004991
-0.0532214
0.00542337
-0.0521843
0.00584819
-0.0511639
0.00626447
-0.0501582
0.00667159
-0.0491661
0.00706927
-0.0481871
0.00745748
-0.0472211
0.00783646
-0.0462683
0.00820658
-0.0453289
0.00856836
-0.0444026
0.00892233
-0.0434894
0.00926905
-0.0425886
0.00960909
-0.0416997
0.00994293
-0.0408214
0.0102711
-0.0399519
-0.039089
0.0105937
3.95043e-05
-0.0805974
0.000153304
-0.0762566
0.000334602
-0.0727258
0.000575403
-0.0698232
0.000867214
-0.0674048
0.00120156
-0.0653546
0.00157031
-0.0635817
0.00196594
-0.0620158
0.00238164
-0.0606029
0.00281138
-0.0593022
0.00324993
-0.0580831
0.00369283
-0.056923
0.00413637
-0.0558058
0.0045775
-0.0547199
0.00501382
-0.0536577
0.00544345
-0.0526139
0.00586504
-0.0515855
0.00627768
-0.0505709
0.00668083
-0.0495692
0.00707428
-0.0485805
0.0074581
-0.0476049
0.00783261
-0.0466428
0.00819827
-0.0456945
0.00855567
-0.04476
0.00890549
-0.0438392
0.00924834
-0.0429315
0.00958483
-0.0420362
0.00991559
-0.0411521
0.0102411
-0.0402774
-0.0394096
0.0105617
4.04961e-05
-0.0806379
0.000156623
-0.0763727
0.000341086
-0.0729102
0.000585474
-0.0700676
0.000880946
-0.0677002
0.00121874
-0.0656924
0.00159053
-0.0639535
0.00198862
-0.0624139
0.0024061
-0.0610204
0.00283687
-0.059733
0.00327569
-0.0585219
0.0037181
-0.0573654
0.00416042
-0.0562481
0.00459965
-0.0551592
0.00503344
-0.0540915
0.00546
-0.0530405
0.00587804
-0.0520036
0.00628672
-0.0509796
0.00668558
-0.0499681
0.00707451
-0.0489694
0.00745366
-0.0479841
0.00782341
-0.0470126
0.00818434
-0.0460554
0.00853714
-0.0451128
0.00888256
-0.0441846
0.00922134
-0.0432703
0.00955417
-0.042369
0.00988172
-0.0414797
0.0102045
-0.0406002
-0.039728
0.010523
4.14711e-05
-0.0806794
0.000159876
-0.0764911
0.000347431
-0.0730978
0.000595301
-0.0703155
0.000894298
-0.0679992
0.00123538
-0.0660334
0.00160999
-0.0643281
0.00201029
-0.0628142
0.00242926
-0.0614394
0.00286076
-0.0601645
0.00329951
-0.0589606
0.00374109
-0.057807
0.00418184
-0.0566888
0.00461882
-0.0555962
0.00504973
-0.0545224
0.00547287
-0.0534636
0.00588701
-0.0524177
0.0062914
-0.0513839
0.00668566
-0.0503624
0.00706976
-0.0493535
0.00744392
-0.0483582
0.00780864
-0.0473773
0.00816457
-0.0464114
0.00851249
-0.0454607
0.00885326
-0.0445254
0.00918775
-0.0436048
0.00951672
-0.042698
0.00984089
-0.0418038
0.0101609
-0.0409202
-0.0400443
0.0104772
4.24286e-05
-0.0807218
0.000163067
-0.0766118
0.000353636
-0.0732883
0.000604883
-0.0705667
0.000907262
-0.0683016
0.00125144
-0.0663776
0.00162866
-0.0647053
0.0020309
-0.0632165
0.00245107
-0.0618596
0.00288298
-0.0605964
0.00332133
-0.059399
0.00376172
-0.0582474
0.00420054
-0.0571277
0.0046349
-0.0560305
0.00506257
-0.0549501
0.00548192
-0.053883
0.00589182
-0.0528276
0.00629157
-0.0517837
0.00668089
-0.0507517
0.00705982
-0.0497325
0.00742869
-0.0487271
0.00778806
-0.0477367
0.00813867
-0.046762
0.00848142
-0.0458035
0.00881728
-0.0448612
0.00914719
-0.0439347
0.00947207
-0.0430229
0.0097927
-0.0421245
0.0101098
-0.0412373
-0.0403583
0.0104238
4.33689e-05
-0.0807652
0.000166192
-0.0767346
0.000359702
-0.0734819
0.000614218
-0.0708212
0.000919832
-0.0686072
0.00126692
-0.0667247
0.00164651
-0.0650849
0.00205043
-0.0636204
0.00247149
-0.0622806
0.00290347
-0.0610284
0.00334107
-0.0598366
0.0037799
-0.0586862
0.00421641
-0.0575642
0.00464778
-0.0564619
0.00507184
-0.0553741
0.00548704
-0.0542982
0.00589232
-0.0532329
0.00628709
-0.0521785
0.00667112
-0.0511357
0.00704454
-0.0501059
0.00740777
-0.0490903
0.00776145
-0.0480904
0.00810644
-0.047107
0.0084437
-0.0461408
0.00877432
-0.0451918
0.00909936
-0.0442597
0.00941987
-0.0433434
0.00973672
-0.0424413
0.0100506
-0.0415512
-0.04067
0.0103623
4.42901e-05
-0.0808095
0.000169251
-0.0768595
0.000365627
-0.0736782
0.000623303
-0.0710789
0.000932004
-0.0689159
0.00128181
-0.0670745
0.00166352
-0.0654666
0.00206884
-0.0640257
0.00249048
-0.0627023
0.00292218
-0.0614601
0.00335866
-0.0602731
0.00379557
-0.0591231
0.00422939
-0.057998
0.00465738
-0.0568899
0.00507745
-0.0557942
0.00548812
-0.0547088
0.00588842
-0.0536332
0.00627782
-0.0525679
0.0066562
-0.0515141
0.00702375
-0.0504734
0.00738098
-0.0494476
0.00772863
-0.048438
0.00806762
-0.047446
0.00839904
-0.0464722
0.00872406
-0.0455169
0.00904391
-0.0445796
0.00935971
-0.0436592
0.00967252
-0.0427541
0.00998315
-0.0418618
-0.0409791
0.0102923
4.51916e-05
-0.0808547
0.000172244
-0.0769866
0.000371414
-0.0738774
0.000632144
-0.0713396
0.000943779
-0.0692276
0.0012961
-0.0674268
0.00167969
-0.0658502
0.0020861
-0.0644321
0.00250799
-0.0631242
0.00293907
-0.0618911
0.00337406
-0.0607081
0.00380865
-0.0595577
0.0042394
-0.0584287
0.00466362
-0.0573141
0.00507931
-0.0562099
0.00548507
-0.0551146
0.00588001
-0.0540281
0.00626368
-0.0529515
0.00663603
-0.0518864
0.00699734
-0.0508348
0.00734819
-0.0497984
0.00768941
-0.0487792
0.00802202
-0.0477786
0.00834721
-0.0467974
0.00866628
-0.0458359
0.00898055
-0.0448938
0.00929131
-0.04397
0.00959974
-0.0430626
0.00990677
-0.0421689
-0.0412853
0.010213
4.60702e-05
-0.0809008
0.00017517
-0.0771157
0.000377067
-0.0740793
0.000640748
-0.0716033
0.000955164
-0.069542
0.00130979
-0.0677815
0.001695
-0.0662354
0.00210221
-0.0648393
0.00252401
-0.063546
0.0029541
-0.0623212
0.00338722
-0.0611412
0.00381911
-0.0599896
0.00424639
-0.058856
0.00466646
-0.0577341
0.00507738
-0.0566208
0.00547785
-0.055515
0.00586704
-0.0544173
0.00624459
-0.0533291
0.00661053
-0.0522524
0.00696522
-0.0511894
0.00730929
-0.0501425
0.00764367
-0.0491136
0.00796946
-0.0481044
0.00828797
-0.0471159
0.00860061
-0.0461486
0.00890885
-0.0452021
0.00921411
-0.0442752
0.00951769
-0.0433661
0.00982064
-0.0424718
-0.0415884
0.0101237
4.69235e-05
-0.0809477
0.000178029
-0.0772468
0.000382595
-0.0742839
0.000649131
-0.0718698
0.000966176
-0.069859
0.0013229
-0.0681382
0.00170945
-0.066622
0.00211715
-0.065247
0.00253852
-0.0639673
0.00296724
-0.0627499
0.00339811
-0.061572
0.00382692
-0.0604184
0.00425034
-0.0592794
0.00466586
-0.0581497
0.00507163
-0.0570266
0.00546642
-0.0559098
0.00584949
-0.0548004
0.00622055
-0.0537002
0.0065797
-0.0526115
0.00692735
-0.0515371
0.00726423
-0.0504794
0.00759131
-0.0494407
0.0079098
-0.0484229
0.0082211
-0.0474272
0.00852675
-0.0464542
0.00882836
-0.0455037
0.00912751
-0.0445744
0.00942566
-0.0436643
0.00972402
-0.0427702
-0.0418878
0.0100235
4.77498e-05
-0.0809954
0.00018083
-0.0773799
0.000388018
-0.0744911
0.000657318
-0.0721391
0.000976839
-0.0701785
0.00133543
-0.0684968
0.00172306
-0.0670096
0.00213092
-0.0656549
0.0025515
-0.0643879
0.00297849
-0.0631769
0.00340672
-0.0620003
0.00383205
-0.0608437
0.00425122
-0.0596986
0.00466181
-0.0585602
0.00506205
-0.0574268
0.00545079
-0.0562986
0.00582737
-0.055177
0.00619157
-0.0540644
0.00654355
-0.0529635
0.00688378
-0.0518773
0.00721304
-0.0508086
0.00753235
-0.04976
0.00784302
-0.0487335
0.00814653
-0.0477307
0.00844455
-0.0467522
0.00873885
-0.045798
0.00903119
-0.0448667
0.00932324
-0.0439563
0.00961641
-0.0430634
-0.0421832
0.00991172
4.85447e-05
-0.081044
0.000183582
-0.0775149
0.000393367
-0.0747008
0.00066535
-0.0724111
0.000987191
-0.0705004
0.00134743
-0.068857
0.00173583
-0.067398
0.00214352
-0.0660626
0.00256295
-0.0648073
0.00298783
-0.0636018
0.00341304
-0.0624255
0.0038345
-0.0612652
0.00424905
-0.0601132
0.00465433
-0.0589655
0.00504867
-0.0578212
0.00543101
-0.0566809
0.00580075
-0.0555467
0.00615774
-0.0544213
0.00650219
-0.0533079
0.00683462
-0.0522097
0.00715584
-0.0511299
0.00746693
-0.0500711
0.00776924
-0.0490358
0.00806434
-0.0480258
0.00835402
-0.0470419
0.00864023
-0.0460842
0.00892495
-0.0451514
0.00921007
-0.0442415
0.00949726
-0.0433505
-0.0424736
0.00978771
4.93072e-05
-0.0810933
0.000186309
-0.0776519
0.000398689
-0.0749132
0.000673286
-0.0726857
0.000997282
-0.0708244
0.00135892
-0.0692187
0.00174779
-0.0677869
0.00215496
-0.0664698
0.00257287
-0.0652252
0.00299525
-0.0640242
0.00341706
-0.0628473
0.00383428
-0.0616824
0.00424383
-0.0605227
0.00464345
-0.0593651
0.00503156
-0.0582093
0.00540715
-0.0570565
0.00576973
-0.0559093
0.00611919
-0.0547708
0.00645579
-0.0536445
0.00678007
-0.052534
0.00709287
-0.0514427
0.0073953
-0.0503735
0.00768871
-0.0493292
0.00797476
-0.0483118
0.00825534
-0.0473225
0.00853257
-0.0463614
0.00880866
-0.0454275
0.00908583
-0.0445186
0.00936603
-0.0436307
-0.0427583
0.00965068
5.00398e-05
-0.0811433
0.000189053
-0.0777909
0.000404062
-0.0751282
0.000681206
-0.0729629
0.00100718
-0.0711503
0.00136994
-0.0695814
0.00175896
-0.0681759
0.00216525
-0.066876
0.00258125
-0.0656412
0.00300077
-0.0644437
0.00341879
-0.0632653
0.0038314
-0.062095
0.0042356
-0.0609269
0.00462922
-0.0597588
0.00501077
-0.0585908
0.00537933
-0.0574251
0.00573446
-0.0562644
0.00607611
-0.0551125
0.00640458
-0.053973
0.00672043
-0.0528499
0.0070245
-0.0517467
0.00731786
-0.0506669
0.00760189
-0.0496133
0.00787826
-0.0485882
0.00814893
-0.0475932
0.00841617
-0.0466286
0.00868248
-0.0456939
0.00895041
-0.0447866
0.00922231
-0.0439026
-0.0430359
0.00949993
5.07592e-05
-0.0811941
0.000191894
-0.0779321
0.000409601
-0.0753459
0.000689222
-0.0732425
0.00101697
-0.0714781
0.00138055
-0.069945
0.00176936
-0.0685647
0.00217438
-0.0672811
0.0025881
-0.066055
0.00300436
-0.06486
0.00341823
-0.0636792
0.00382587
-0.0625027
0.00422439
-0.0613254
0.0046117
-0.0601461
0.0049864
-0.0589655
0.00534766
-0.0577863
0.00569511
-0.0566119
0.00602875
-0.0554461
0.00634888
-0.0542932
0.0066561
-0.0531571
0.00695119
-0.0520418
0.0072352
-0.0509509
0.00750945
-0.0498875
0.00777555
-0.0488543
0.00803551
-0.0478531
0.00829171
-0.0468848
0.0085469
-0.045949
0.00880402
-0.0450437
0.00906595
-0.0441646
-0.0433048
0.00933492
5.15084e-05
-0.0812456
0.00019497
-0.0780755
0.00041548
-0.0755664
0.000697481
-0.0735245
0.00102674
-0.0718073
0.0013908
-0.0703091
0.00177901
-0.0689529
0.00218237
-0.0676844
0.0025934
-0.066466
0.00300602
-0.0652726
0.00341538
-0.0640886
0.00381772
-0.062905
0.00421024
-0.061718
0.00459095
-0.0605268
0.00495856
-0.0593331
0.00531231
-0.0581401
0.00565189
-0.0569514
0.00597736
-0.0557716
0.00628906
-0.0546048
0.00658753
-0.0534556
0.00687355
-0.0523278
0.00714807
-0.0512254
0.00741229
-0.0501518
0.00766772
-0.0491097
0.00791628
-0.0481017
0.00816038
-0.0471289
0.00840296
-0.0461916
0.00864742
-0.0452881
0.00889726
-0.0444144
-0.043563
0.0091554
5.24043e-05
-0.081298
0.000198528
-0.0782217
0.000421954
-0.0757899
0.000706168
-0.0738087
0.0010366
-0.0721378
0.00140072
-0.0706732
0.00178791
-0.0693401
0.00218918
-0.0680857
0.00259713
-0.0668739
0.00300574
-0.0656812
0.00341022
-0.064493
0.00380693
-0.0633017
0.00419315
-0.0621042
0.00456702
-0.0609007
0.00492732
-0.0596934
0.00527339
-0.0584861
0.00560499
-0.0572831
0.00592224
-0.0560888
0.00622548
-0.0549081
0.00651527
-0.0537454
0.00679229
-0.0526048
0.00705739
-0.0514905
0.0073116
-0.050406
0.00755623
-0.0493544
0.00779297
-0.0483384
0.00802409
-0.04736
0.00825258
-0.0464201
0.00848225
-0.0455178
0.00871738
-0.0446495
-0.0438075
0.00896187
5.37055e-05
-0.0813517
0.000202983
-0.0783709
0.000429371
-0.0760163
0.000715493
-0.0740948
0.00104664
-0.0724689
0.00141035
-0.0710369
0.00179603
-0.0697258
0.00219479
-0.0684845
0.00259925
-0.0672784
0.00300346
-0.0660854
0.00340272
-0.0648923
0.00379348
-0.0636925
0.00417314
-0.0624839
0.00453993
-0.0612675
0.00489274
-0.0600463
0.00523101
-0.0588244
0.00555459
-0.0576066
0.00586364
-0.0563979
0.00615854
-0.055203
0.00643982
-0.0540266
0.00670813
-0.0528732
0.00696418
-0.0517466
0.00720879
-0.0506506
0.00744295
-0.0495885
0.00766797
-0.0485634
0.00788573
-0.0475778
0.00809899
-0.0466334
0.00831168
-0.0457305
0.008529
-0.0448669
-0.0440348
0.00875629
5.59139e-05
-0.0814076
0.000208957
-0.078524
0.000438157
-0.0762455
0.000725664
-0.0743823
0.00105692
-0.0728002
0.00141965
-0.0713996
0.00180334
-0.0701095
0.00219913
-0.0688802
0.00259969
-0.067679
0.00299912
-0.0664848
0.00339282
-0.065286
0.00377733
-0.064077
0.00415017
-0.0628567
0.00450967
-0.061627
0.00485485
-0.0603914
0.00518524
-0.0591548
0.00550078
-0.0579222
0.00580172
-0.0566988
0.00608849
-0.0554898
0.00636162
-0.0542998
0.00662173
-0.0531333
0.00686942
-0.0519943
0.00710529
-0.0508864
0.00732998
-0.0498132
0.00754427
-0.0487777
0.00774932
-0.0477829
0.00794715
-0.0468312
0.00814123
-0.0459246
0.00833737
-0.045063
-0.0442405
0.00854316
5.9963e-05
-0.0814676
0.000217413
-0.0786814
0.000448852
-0.0764769
0.000736868
-0.0746703
0.00106745
-0.0731308
0.00142855
-0.0717607
0.00180971
-0.0704906
0.00220208
-0.0692726
0.00259833
-0.0680752
0.00299263
-0.0668791
0.00338044
-0.0656738
0.0037584
-0.0644549
0.00412416
-0.0632224
0.00447618
-0.061979
0.00481358
-0.0607288
0.00513603
-0.0594772
0.00544358
-0.0582297
0.00573655
-0.0569918
0.00601545
-0.0557687
0.0062809
-0.0545652
0.00653349
-0.0533859
0.00677379
-0.0522346
0.00700227
-0.0511149
0.00721924
-0.0500302
0.0074249
-0.0489834
0.0076195
-0.0479775
0.00780363
-0.0470153
0.00797906
-0.0461
0.00815079
-0.0452347
-0.04442
0.00833019
6.83079e-05
-0.0815359
0.000230342
-0.0788435
0.000462252
-0.0767088
0.000749232
-0.0749573
0.00107811
-0.0734596
0.00143688
-0.0721195
0.00181499
-0.0708687
0.0022035
-0.0696611
0.00259506
-0.0684668
0.00298385
-0.0672679
0.00336544
-0.0660554
0.00373657
-0.0648261
0.004095
-0.0635809
0.00443933
-0.0623233
0.00476882
-0.0610583
0.00508326
-0.0597917
0.00538283
-0.0585293
0.00566796
-0.0572769
0.0059393
-0.05604
0.00619754
-0.0548235
0.00644339
-0.0536317
0.0066775
-0.0524687
0.00690034
-0.0513378
0.00711212
-0.050242
0.00731271
-0.049184
0.00750148
-0.0481662
0.00767716
-0.047191
0.00783767
-0.0462605
0.00798381
-0.0453809
-0.0445688
0.00813268
8.87351e-05
-0.0816246
0.000250716
-0.0790054
0.000478624
-0.0769367
0.000762331
-0.075241
0.00108843
-0.0737857
0.00144428
-0.0724753
0.00181891
-0.0712434
0.00220317
-0.0700454
0.00258968
-0.0688533
0.00297263
-0.0676509
0.00334768
-0.0664304
0.00371168
-0.0651901
0.00406253
-0.0639317
0.00439896
-0.0626597
0.00472037
-0.0613797
0.00502669
-0.060098
0.00531824
-0.0588208
0.0055956
-0.0575543
0.00585954
-0.0563039
0.00611094
-0.0550749
0.0063507
-0.0538715
0.00657972
-0.0526977
0.0067988
-0.0515568
0.00700863
-0.0504518
0.00720961
-0.0493849
0.00740159
-0.0483582
0.0075829
-0.0473723
0.0077468
-0.0464244
0.00787868
-0.0455128
-0.0446683
0.00797815
0.0832821
6.95669e-05
-0.0833517
0.0832233
5.88186e-05
0.083168
5.52649e-05
0.0831138
5.42756e-05
0.0830594
5.43688e-05
0.0830044
5.49623e-05
0.0829487
5.5744e-05
0.0828921
5.65578e-05
0.0828348
5.73374e-05
0.0827767
5.80558e-05
0.082718
5.8693e-05
0.0826588
5.92327e-05
0.0825991
5.9672e-05
0.0825391
6.00184e-05
0.0824788
6.02773e-05
0.0824184
6.0451e-05
0.0823578
6.05425e-05
0.0822973
6.05537e-05
0.0822368
6.04838e-05
0.0821765
6.03342e-05
0.0821164
6.01029e-05
0.0820566
5.97854e-05
0.0819972
5.93702e-05
0.0819384
5.88413e-05
0.0818802
5.81615e-05
0.0818229
5.72576e-05
0.081767
5.59685e-05
0.0817131
5.39197e-05
0.0816631
4.99407e-05
3.84946e-05
0.083182
0.00018777
-0.0833002
0.083059
0.000181785
0.0829342
0.000180072
0.0828076
0.00018087
0.082679
0.000182975
0.0825482
0.000185787
0.082415
0.000188929
0.0822794
0.000192151
0.0821414
0.000195318
0.0820011
0.000198344
0.0818587
0.000201152
0.0817142
0.000203696
0.0815679
0.00020595
0.08142
0.000207918
0.0812707
0.000209598
0.0811202
0.000210992
0.0809686
0.000212101
0.0808162
0.000212929
0.0806632
0.000213474
0.0805098
0.000213737
0.0803562
0.000213711
0.0802026
0.000213389
0.0800493
0.000212749
0.0798963
0.000211753
0.0797442
0.000210336
0.0795931
0.000208372
0.0794434
0.000205622
0.0792957
0.000201613
0.0791504
0.000195257
0.000183446
0.0828934
0.000332884
-0.0830385
0.0827385
0.000336666
0.0825767
0.00034187
0.0824092
0.00034833
0.0822367
0.000355545
0.0820593
0.000363162
0.0818773
0.000370919
0.0816908
0.000378612
0.0815
0.000386098
0.0813051
0.000393266
0.0811063
0.000400013
0.0809037
0.00040626
0.0806977
0.000411971
0.0804885
0.00041713
0.0802763
0.000421728
0.0800616
0.000425757
0.0798445
0.000429216
0.0796253
0.000432105
0.0794043
0.00043442
0.0791819
0.000436162
0.0789583
0.000437323
0.0787338
0.000437892
0.0785087
0.000437844
0.0782833
0.000437139
0.0780579
0.000435704
0.0778329
0.000433418
0.0776084
0.000430076
0.0773847
0.000425322
0.0771615
0.000418504
0.000408221
0.0823649
0.00048823
-0.0825203
0.0821982
0.000503346
0.0820217
0.000518381
0.0818365
0.000533565
0.0816432
0.000548781
0.0814425
0.000563868
0.0812348
0.000578686
0.0810203
0.000593102
0.0807994
0.000607008
0.0805723
0.000620307
0.0803395
0.000632884
0.0801011
0.000644656
0.0798574
0.00065559
0.0796089
0.000665649
0.0793558
0.000674813
0.0790985
0.000683068
0.0788373
0.000690408
0.0785726
0.000696826
0.0783047
0.000702321
0.078034
0.000706889
0.0777608
0.000710524
0.0774855
0.000713216
0.0772084
0.000714944
0.0769298
0.000715674
0.0766502
0.000715349
0.0763697
0.000713877
0.0760887
0.000711115
0.0758072
0.000706848
0.0755249
0.000700723
0.000692136
0.0815858
0.000640065
-0.0817377
0.0814215
0.000667655
0.0812455
0.000694388
0.0810586
0.0007205
0.0808614
0.000746
0.0806544
0.00077082
0.0804382
0.00079489
0.0802132
0.000818135
0.0799797
0.000840479
0.0797382
0.000861828
0.079489
0.000882094
0.0792324
0.000901205
0.0789689
0.000919111
0.0786988
0.000935773
0.0784224
0.000951164
0.0781402
0.000965265
0.0778526
0.000978064
0.0775598
0.000989552
0.0772624
0.000999725
0.0769607
0.00100858
0.0766552
0.00101611
0.0763461
0.00102231
0.0760339
0.00102716
0.0757189
0.00103065
0.0754015
0.00103274
0.075082
0.00103337
0.0747606
0.00103247
0.0744376
0.00102991
0.0741127
0.00102555
0.00101914
0.0805682
0.000778701
-0.0807069
0.0804161
0.000819795
0.0802509
0.000859578
0.0800732
0.000898205
0.0798835
0.000935701
0.0796823
0.000972024
0.07947
0.00100714
0.0792472
0.00104099
0.0790141
0.00107352
0.0787713
0.00110465
0.0785191
0.0011343
0.0782579
0.00116239
0.0779882
0.00118888
0.0777102
0.00121374
0.0774244
0.00123692
0.0771313
0.00125841
0.0768312
0.00127819
0.0765245
0.00129624
0.0762116
0.00131256
0.0758931
0.00132715
0.0755692
0.00134
0.0752404
0.00135111
0.0749071
0.00136047
0.0745696
0.00136808
0.0742284
0.00137393
0.0738838
0.00137799
0.0735361
0.00138023
0.0731854
0.00138061
0.0728318
0.0013791
0.00137561
0.0793392
0.000898001
-0.0794585
0.0792056
0.000953464
0.0790578
0.0010073
0.0788965
0.00105959
0.0787218
0.00111034
0.0785343
0.0011595
0.0783344
0.00120703
0.0781225
0.0012529
0.077899
0.00129705
0.0776643
0.00133939
0.0774187
0.00137983
0.0771628
0.00141832
0.0768969
0.00145481
0.0766213
0.00148926
0.0763366
0.00152163
0.0760431
0.00155189
0.0757413
0.00158003
0.0754315
0.00160601
0.0751142
0.00162985
0.0747899
0.00165152
0.0744588
0.00167103
0.0741216
0.00168838
0.0737785
0.00170357
0.0734299
0.00171662
0.0730764
0.00172752
0.0727181
0.00173627
0.0723554
0.0017429
0.0719886
0.00174741
0.0716179
0.00174981
0.00175013
0.077934
0.000994626
-0.0780306
0.0778223
0.00106511
0.0776959
0.00113372
0.077555
0.00120049
0.0774
0.00126539
0.0772311
0.00132835
0.0770488
0.00138933
0.0768535
0.00144827
0.0766454
0.00150511
0.076425
0.00155976
0.0761927
0.00161213
0.0759489
0.00166217
0.0756939
0.00170982
0.0754281
0.00175504
0.075152
0.00179777
0.0748659
0.00183799
0.0745702
0.00187566
0.0742655
0.00191078
0.073952
0.00194331
0.0736303
0.00197327
0.0733006
0.00200064
0.0729636
0.00202543
0.0726195
0.00204765
0.0722688
0.00206732
0.0719119
0.00208445
0.0715491
0.00209908
0.0711807
0.00211124
0.0708072
0.00212097
0.0704286
0.00212834
0.00213338
0.0763902
0.00106734
-0.0764629
0.076302
0.00115326
0.0761986
0.00123713
0.0760802
0.00131892
0.075947
0.00139857
0.0757994
0.00147599
0.0756376
0.00155112
0.075462
0.00162387
0.0752729
0.00169419
0.0750707
0.00176196
0.0748557
0.00182711
0.0746283
0.00188958
0.0743888
0.0019493
0.0741376
0.00200621
0.0738752
0.00206025
0.0736018
0.00211138
0.0733179
0.00215957
0.0730238
0.0022048
0.0727201
0.00224704
0.0724071
0.00228628
0.0720852
0.00232253
0.0717548
0.00235579
0.0714164
0.00238608
0.0710703
0.00241341
0.0707169
0.00243782
0.0703567
0.00245935
0.0699898
0.00247806
0.0696168
0.00249401
0.0692379
0.00250729
0.00251795
0.074745
0.00111642
-0.0747941
0.0746803
0.00121802
0.0746
0.0013174
0.0745044
0.00141451
0.0743937
0.00150927
0.0742681
0.00160157
0.074128
0.00169129
0.0739735
0.00177835
0.073805
0.00186265
0.0736229
0.00194411
0.0734273
0.00202265
0.0732187
0.00209818
0.0729974
0.00217062
0.0727637
0.0022399
0.072518
0.00230595
0.0722607
0.00236873
0.071992
0.00242819
0.0717125
0.0024843
0.0714225
0.00253704
0.0711224
0.00258639
0.0708126
0.00263235
0.0704935
0.00267492
0.0701654
0.00271412
0.0698289
0.00274998
0.0694842
0.00278254
0.0691317
0.00281185
0.0687718
0.00283797
0.0684048
0.00286099
0.068031
0.00288101
0.00289812
0.0730329
0.00114321
-0.0730597
0.0729904
0.00126055
0.0729323
0.00137553
0.0728587
0.00148809
0.0727698
0.00159811
0.072666
0.00170546
0.0725472
0.00181001
0.0724139
0.00191163
0.0722663
0.00201025
0.0721047
0.00210577
0.0719293
0.00219808
0.0717404
0.00228707
0.0715383
0.00237266
0.0713235
0.00245477
0.0710961
0.00253332
0.0708566
0.00260826
0.0706052
0.00267953
0.0703424
0.0027471
0.0700686
0.00281092
0.069784
0.00287099
0.069489
0.00292729
0.0691841
0.00297982
0.0688696
0.00302861
0.0685459
0.00307368
0.0682134
0.00311508
0.0678724
0.00315286
0.0675232
0.00318711
0.0671663
0.00321791
0.0668019
0.00324538
0.00326961
0.0712844
0.00114972
-0.0712909
0.0712622
0.00128272
0.0712244
0.00141326
0.0711713
0.00154124
0.0711029
0.00166651
0.0710194
0.00178894
0.070921
0.00190839
0.070808
0.0020247
0.0706804
0.00213777
0.0705387
0.0022475
0.070383
0.00235375
0.0702137
0.00245642
0.0700309
0.00255541
0.0698351
0.00265062
0.0696265
0.00274197
0.0694053
0.00282939
0.069172
0.00291282
0.0689269
0.00299222
0.0686703
0.00306753
0.0684026
0.00313874
0.068124
0.00320583
0.067835
0.0032688
0.067536
0.00332767
0.0672272
0.00338245
0.0669091
0.00343321
0.0665819
0.00348
0.0662461
0.00352291
0.065902
0.00356204
0.0655499
0.0035975
0.00362943
0.0695255
0.00113837
-0.0695142
0.0695214
0.00128687
0.0695018
0.0014328
0.069467
0.00157605
0.0694171
0.00171646
0.0693521
0.00185388
0.0692723
0.00198816
0.0691779
0.00211913
0.069069
0.00224664
0.068946
0.00237058
0.0688089
0.0024908
0.0686581
0.0026072
0.0684939
0.00271966
0.0683164
0.00282808
0.068126
0.00293236
0.067923
0.00303243
0.0677076
0.00312821
0.0674802
0.00321964
0.067241
0.00330668
0.0669905
0.00338928
0.0667289
0.00346744
0.0664565
0.00354115
0.0661738
0.00361042
0.065881
0.00367526
0.0655784
0.00373574
0.0652665
0.0037919
0.0649456
0.00384385
0.0646159
0.0038917
0.0642779
0.00393556
0.00397558
0.0677781
0.00111174
-0.0677515
0.0677895
0.00127549
0.0677857
0.0014366
0.0677668
0.00159491
0.067733
0.00175026
0.0676844
0.00190248
0.0676211
0.00205142
0.0675434
0.0021969
0.0674513
0.0023387
0.0673451
0.00247673
0.0672251
0.00261083
0.0670914
0.0027409
0.0669443
0.00286679
0.066784
0.00298839
0.0666107
0.0031056
0.0664248
0.00321833
0.0662265
0.0033265
0.0660161
0.00343003
0.0657939
0.00352888
0.0655602
0.003623
0.0653153
0.00371236
0.0650595
0.00379695
0.0647931
0.00387678
0.0645165
0.00395187
0.06423
0.00402227
0.0639339
0.00408803
0.0636285
0.00414926
0.0633141
0.00420605
0.0629911
0.00425857
0.00430696
0.0660595
0.00107245
-0.0660202
0.0660838
0.00125118
0.0660932
0.00142718
0.0660879
0.0016003
0.0660678
0.00177033
0.0660332
0.00193711
0.0659841
0.00210046
0.0659209
0.00226017
0.0658435
0.00241605
0.0657523
0.00256796
0.0656473
0.00271577
0.0655289
0.00285933
0.0653972
0.0029985
0.0652524
0.00313316
0.0650948
0.00326319
0.0649247
0.00338849
0.0647422
0.00350897
0.0645477
0.00362455
0.0643414
0.00373517
0.0641236
0.00384077
0.0638947