/*--------------------------------*- C++ -*----------------------------------*\
| =========                 |                                                 |
| \\      /  F ield         | OpenFOAM: The Open Source CFD Toolbox           |
|  \\    /   O peration     | Version:  v1912                                 |
|   \\  /    A nd           | Website:  www.openfoam.com                      |
|    \\/     M anipulation  |                                                 |
\*---------------------------------------------------------------------------*/
FoamFile
{
    version     2.0;
    format      ascii;
    class       volScalarField;
    location    "41";
    object      p;
}
// * * * * * * * * * * * * * * * * * * * * * * * * * * * * * * * * * * * * * //

dimensions      [0 2 -2 0 0 0 0];


internalField   nonuniform List<scalar> 
9600
(
-41.4702
-36.2047
-32.9771
-30.2392
-27.7333
-25.4661
-23.4094
-21.5353
-19.8261
-18.2683
-16.8492
-15.5568
-14.3798
-13.3073
-12.3292
-11.4362
-10.6198
-9.87208
-9.1855
-8.5579
-42.2285
-36.9455
-33.682
-30.9013
-28.3504
-26.0393
-23.9413
-22.0294
-20.2864
-18.6987
-17.2532
-15.9378
-14.7404
-13.6501
-12.6562
-11.749
-10.9199
-10.1604
-9.46277
-8.82591
-42.9885
-37.6824
-34.3816
-31.5579
-28.9617
-26.6064
-24.4671
-22.5176
-20.7411
-19.1237
-17.6522
-16.3139
-15.0966
-13.9887
-12.9791
-12.058
-11.2163
-10.4452
-9.73647
-9.09056
-43.747
-38.4148
-35.0753
-32.208
-29.5662
-27.1666
-24.986
-22.9991
-21.1892
-19.5425
-18.0453
-16.6846
-15.4476
-14.3224
-13.2975
-12.3626
-11.5084
-10.7258
-10.0062
-9.35149
-44.5009
-39.1413
-35.7622
-32.8505
-30.1628
-27.7188
-25.497
-23.4729
-21.63
-19.9543
-18.4319
-17.0491
-15.7928
-14.6506
-13.6106
-12.6623
-11.7959
-11.002
-10.2716
-9.60843
-45.2483
-39.8605
-36.441
-33.4844
-30.7505
-28.262
-25.9992
-23.9382
-22.0627
-20.3584
-18.8111
-17.4067
-16.1316
-14.9727
-13.9181
-12.9566
-12.0783
-11.2732
-10.5323
-9.86112
-45.9873
-40.5707
-37.1105
-34.1085
-31.3282
-28.7953
-26.4916
-24.394
-22.4863
-20.754
-19.1823
-17.7568
-16.4632
-15.2882
-14.2192
-13.245
-12.3551
-11.5392
-10.788
-10.1093
-46.7164
-41.2708
-37.7694
-34.7216
-31.8949
-29.3176
-26.9733
-24.8395
-22.9001
-21.1402
-19.5447
-18.0985
-16.787
-15.5963
-14.5135
-13.5269
-12.6258
-11.7994
-11.0383
-10.3526
-47.4343
-41.9593
-38.4165
-35.3228
-32.4494
-29.8279
-27.4434
-25.2739
-23.3032
-21.5163
-19.8976
-18.4313
-17.1024
-15.8965
-14.8002
-13.8017
-12.8899
-12.0534
-11.2828
-10.5907
-48.1397
-42.6351
-39.0507
-35.9107
-32.9908
-30.3254
-27.9009
-25.6961
-23.6948
-21.8815
-20.2401
-18.7543
-17.4084
-16.1878
-15.0787
-14.0687
-13.1466
-12.3006
-11.5211
-10.8233
-48.8315
-43.2971
-39.671
-36.4846
-33.5182
-30.809
-28.3451
-26.1055
-24.0741
-22.2349
-20.5713
-19.0666
-17.7044
-16.4696
-15.3481
-14.3272
-13.3954
-12.5403
-11.7524
-11.0496
-49.5088
-43.9443
-40.2762
-37.0433
-34.0305
-31.2779
-28.7749
-26.5011
-24.4402
-22.5757
-20.8906
-19.3674
-17.9894
-16.7409
-15.6075
-14.5763
-13.6353
-12.7717
-11.9759
-11.269
-50.1708
-44.5757
-40.8655
-37.5861
-34.527
-31.7312
-29.1896
-26.8822
-24.7922
-22.9031
-21.1969
-19.6558
-18.2624
-17.0008
-15.856
-14.8149
-13.8653
-12.9938
-12.1909
-11.4806
-50.817
-45.1907
-41.4382
-38.112
-35.0067
-32.1682
-29.5885
-27.2479
-25.1296
-23.2162
-21.4894
-19.9308
-18.5225
-17.248
-16.0922
-15.0416
-14.084
-13.2054
-12.3961
-11.6838
-51.4467
-45.7883
-41.9932
-38.6204
-35.4692
-32.5883
-29.9709
-27.5977
-25.4514
-23.5144
-21.7674
-20.1915
-18.7685
-17.4813
-16.3146
-15.2549
-14.2894
-13.404
-12.5894
-11.8767
-52.0597
-46.3678
-42.5301
-39.1106
-35.9136
-32.9907
-30.3363
-27.9309
-25.7573
-23.7969
-22.0301
-20.4372
-18.9995
-17.6997
-16.5222
-15.4531
-14.4798
-13.5878
-12.768
-12.0539
-52.657
-46.9291
-43.048
-39.5819
-36.3394
-33.3749
-30.684
-28.2472
-26.0467
-24.0633
-22.2769
-20.667
-19.2147
-17.9022
-16.7138
-15.6355
-14.6548
-13.7566
-12.9308
-12.2121
-53.2431
-47.4734
-43.5462
-40.0332
-36.7456
-33.7403
-31.0135
-28.546
-26.3192
-24.3133
-22.5073
-20.8803
-19.4129
-18.087
-16.887
-15.7994
-14.8116
-13.9076
-13.0769
-12.3627
-53.8201
-48
-44.0232
-40.4634
-37.1319
-34.0868
-31.3253
-28.8279
-26.5754
-24.5473
-22.7218
-21.0773
-19.5937
-18.2527
-17.0386
-15.938
-14.9382
-14.0235
-13.1914
-12.5097
-54.3661
-48.5014
-44.4778
-40.8732
-37.4995
-34.4162
-31.621
-29.0946
-26.8172
-24.7674
-22.9226
-21.2603
-19.7598
-18.4019
-17.1702
-16.0501
-15.0265
-14.0861
-13.2432
-12.5677
-59.8131
-59.7816
-59.7124
-59.6201
-59.5039
-59.3614
-59.192
-58.9962
-58.7747
-58.5279
-58.2564
-57.9608
-57.6417
-57.2998
-56.9358
-56.5507
-56.1456
-55.722
-55.283
-54.8316
-53.4653
-53.4627
-53.427
-53.3638
-53.2737
-53.1564
-53.012
-52.8413
-52.6449
-52.4234
-52.1776
-51.9079
-51.615
-51.2996
-50.9623
-50.6036
-50.2244
-49.8251
-49.4063
-48.9657
-48.8228
-48.8446
-48.837
-48.8007
-48.737
-48.6467
-48.5304
-48.3888
-48.2225
-48.032
-47.818
-47.581
-47.3216
-47.0403
-46.7377
-46.4141
-46.0698
-45.705
-45.3192
-44.9107
-44.5942
-44.6337
-44.6465
-44.6323
-44.5919
-44.5263
-44.4363
-44.3223
-44.185
-44.0248
-43.8423
-43.6381
-43.4125
-43.1662
-42.8994
-42.6125
-42.3056
-41.9787
-41.6315
-41.2632
-40.6845
-40.7338
-40.7592
-40.7599
-40.7364
-40.6895
-40.6198
-40.5279
-40.4142
-40.2792
-40.1235
-39.9475
-39.7518
-39.5366
-39.3024
-39.0494
-38.7776
-38.4871
-38.1777
-37.8488
-37.1733
-37.2267
-37.2586
-37.268
-37.255
-37.2205
-37.165
-37.0889
-36.9928
-36.8771
-36.7423
-36.5889
-36.4173
-36.228
-36.0212
-35.7972
-35.5561
-35.2978
-35.0222
-34.7286
-34.0516
-34.105
-34.1387
-34.1518
-34.1444
-34.1171
-34.0705
-34.005
-33.9211
-33.8193
-33.7
-33.5637
-33.4109
-33.242
-33.0574
-32.8572
-32.6417
-32.4107
-32.164
-31.9011
-31.2826
-31.3332
-31.3655
-31.3789
-31.3735
-31.3497
-31.3081
-31.2491
-31.1732
-31.0809
-30.9726
-30.8489
-30.7102
-30.5571
-30.3898
-30.2088
-30.0142
-29.8059
-29.5836
-29.3469
-28.8264
-28.8725
-28.9017
-28.9133
-28.9075
-28.8847
-28.8455
-28.7902
-28.7192
-28.6332
-28.5326
-28.4179
-28.2897
-28.1486
-27.9949
-27.8291
-27.6514
-27.4618
-27.2601
-27.0457
-26.6432
-26.6842
-26.7093
-26.718
-26.7106
-26.6873
-26.6487
-26.5952
-26.5273
-26.4453
-26.35
-26.2418
-26.1214
-25.9893
-25.8462
-25.6925
-25.5286
-25.3547
-25.1704
-24.9752
-24.696
-24.7317
-24.7524
-24.7579
-24.7481
-24.7236
-24.6847
-24.6319
-24.5656
-24.4863
-24.3946
-24.2911
-24.1765
-24.0514
-23.9166
-23.7727
-23.6202
-23.4595
-23.2903
-23.1119
-22.9518
-22.9824
-22.9989
-23.001
-22.9888
-22.9626
-22.923
-22.8703
-22.8049
-22.7274
-22.6382
-22.5382
-22.4279
-22.3082
-22.18
-22.044
-21.9011
-21.7517
-21.5958
-21.4327
-21.3824
-21.4084
-21.4209
-21.4198
-21.4052
-21.3774
-21.3368
-21.2839
-21.219
-21.1427
-21.0554
-20.958
-20.8511
-20.7356
-20.6126
-20.483
-20.3481
-20.2086
-20.0648
-19.9159
-19.9639
-19.9858
-19.9948
-19.9907
-19.9739
-19.9446
-19.9031
-19.8499
-19.7853
-19.7099
-19.6241
-19.5286
-19.4243
-19.3121
-19.1932
-19.0689
-18.9406
-18.8096
-18.6771
-18.5418
-18.6766
-18.6948
-18.7006
-18.694
-18.6752
-18.6446
-18.6023
-18.5488
-18.4845
-18.4097
-18.3251
-18.2313
-18.129
-18.0194
-17.9036
-17.7832
-17.6604
-17.5366
-17.4145
-17.2927
-17.504
-17.5187
-17.5218
-17.5129
-17.4925
-17.4606
-17.4177
-17.364
-17.2999
-17.2258
-17.1421
-17.0496
-16.9489
-16.8411
-16.7276
-16.61
-16.4912
-16.3731
-16.2606
-16.152
-16.4321
-16.4439
-16.4445
-16.4337
-16.4117
-16.3789
-16.3353
-16.2815
-16.2175
-16.1439
-16.061
-15.9694
-15.8698
-15.7632
-15.6509
-15.5348
-15.4182
-15.3039
-15.1995
-15.1026
-15.4492
-15.4586
-15.4572
-15.4449
-15.4219
-15.3884
-15.3445
-15.2906
-15.227
-15.1539
-15.0717
-14.9809
-14.8821
-14.7761
-14.6642
-14.5481
-14.4318
-14.3191
-14.2216
-14.1339
-14.5441
-14.5521
-14.5497
-14.5369
-14.5138
-14.4806
-14.4375
-14.3847
-14.3225
-14.251
-14.1706
-14.0817
-13.9848
-13.8804
-13.7695
-13.6538
-13.5367
-13.4236
-13.333
-13.2594
-13.7115
-13.7163
-13.7114
-13.6968
-13.6726
-13.639
-13.5962
-13.5443
-13.4835
-13.414
-13.336
-13.2499
-13.1558
-13.0542
-12.9455
-12.8308
-12.712
-12.5941
-12.4971
-12.4478
-53.5297
-54.1043
-54.6417
-55.1642
-55.6687
-56.1494
-56.6034
-57.0296
-57.427
-57.7949
-58.1325
-58.4393
-58.715
-58.9593
-59.1714
-59.3515
-59.5005
-59.6195
-59.7105
-59.7754
-47.048
-47.628
-48.1798
-48.7094
-49.2162
-49.6977
-50.1527
-50.5802
-50.9798
-51.3508
-51.6925
-52.0049
-52.288
-52.5425
-52.7664
-52.959
-53.121
-53.2528
-53.3549
-53.426
-42.4055
-42.9732
-43.5173
-44.038
-44.5352
-45.0084
-45.4566
-45.8792
-46.2755
-46.6449
-46.9865
-47.3
-47.5851
-47.8405
-48.0675
-48.2663
-48.4367
-48.5782
-48.6907
-48.7726
-38.2834
-38.8258
-39.3486
-39.8499
-40.3289
-40.7856
-41.2192
-41.6291
-42.0147
-42.3754
-42.7098
-43.0175
-43.2995
-43.5551
-43.7846
-43.9877
-44.1641
-44.3132
-44.4349
-44.5286
-34.6073
-35.1198
-35.6152
-36.091
-36.5462
-36.9805
-37.3932
-37.7838
-38.1515
-38.4958
-38.8173
-39.1155
-39.389
-39.6379
-39.8626
-40.0625
-40.2375
-40.3873
-40.5119
-40.6111
-31.4103
-31.8913
-32.357
-32.8047
-33.2333
-33.6424
-34.0314
-34.3998
-34.7472
-35.0731
-35.3775
-35.6597
-35.9192
-36.156
-36.3706
-36.5626
-36.7313
-36.8767
-36.999
-37.0981
-28.6397
-29.09
-29.5261
-29.9455
-30.3471
-30.7304
-31.0949
-31.4401
-31.7655
-32.071
-32.3561
-32.6206
-32.8642
-33.0866
-33.2874
-33.4687
-33.6286
-33.7666
-33.8831
-33.9783
-26.229
-26.6504
-27.0585
-27.4509
-27.8266
-28.1849
-28.5254
-28.8477
-29.1514
-29.4362
-29.7018
-29.9482
-30.1752
-30.3827
-30.5706
-30.7374
-30.8866
-31.0157
-31.1246
-31.2136
-24.1194
-24.5144
-24.8968
-25.2643
-25.6159
-25.9508
-26.2688
-26.5693
-26.8522
-27.1172
-27.3642
-27.593
-27.8036
-27.996
-28.17
-28.3256
-28.4617
-28.5807
-28.6812
-28.7631
-22.2608
-22.6321
-22.9912
-23.3362
-23.6658
-23.9793
-24.2764
-24.5569
-24.8204
-25.067
-25.2964
-25.5087
-25.7039
-25.8817
-26.0423
-26.1856
-26.3113
-26.4199
-26.5117
-26.5862
-20.6117
-20.9618
-21.3002
-21.625
-21.9347
-22.2287
-22.5068
-22.7689
-23.0147
-23.2443
-23.4576
-23.6546
-23.8354
-23.9999
-24.148
-24.2799
-24.3953
-24.4944
-24.5779
-24.6452
-19.1383
-19.4696
-19.7899
-20.0966
-20.3884
-20.6648
-20.9256
-21.1708
-21.4005
-21.6145
-21.8131
-21.9962
-22.1638
-22.3161
-22.4529
-22.5743
-22.6803
-22.7711
-22.8463
-22.9068
-17.8137
-18.1285
-18.433
-18.7238
-18.9994
-19.2597
-19.5048
-19.7346
-19.9494
-20.1493
-20.3344
-20.5048
-20.6605
-20.8017
-20.9282
-21.0402
-21.1375
-21.2203
-21.2882
-21.3427
-16.6163
-16.9168
-17.2076
-17.4844
-17.7454
-17.9909
-18.2214
-18.4371
-18.6383
-18.8251
-18.9979
-19.1568
-19.3017
-19.4328
-19.5501
-19.6535
-19.7431
-19.8189
-19.8813
-19.9292
-15.5291
-15.8173
-16.0967
-16.3607
-16.6082
-16.8401
-17.0571
-17.2596
-17.4481
-17.623
-17.7846
-17.9329
-18.068
-18.19
-18.2988
-18.3945
-18.4771
-18.5466
-18.603
-18.6462
-14.5372
-14.8169
-15.0871
-15.3393
-15.5739
-15.7929
-15.9971
-16.1872
-16.3639
-16.5277
-16.6788
-16.8174
-16.9435
-17.0572
-17.1585
-17.2472
-17.3235
-17.3873
-17.4385
-17.4774
-13.6231
-13.9017
-14.1668
-14.4075
-14.6295
-14.8361
-15.0281
-15.2064
-15.3721
-15.5256
-15.6672
-15.797
-15.915
-16.0212
-16.1156
-16.1981
-16.2687
-16.3274
-16.3741
-16.409
-12.766
-13.0489
-13.3152
-13.5466
-13.7566
-13.9516
-14.1324
-14.3003
-14.4562
-14.6007
-14.7341
-14.8564
-14.9675
-15.0675
-15.1562
-15.2336
-15.2995
-15.3541
-15.3972
-15.429
-11.9795
-12.2529
-12.52
-12.7466
-12.9465
-13.1301
-13.3005
-13.4588
-13.606
-13.7426
-13.8688
-13.9847
-14.09
-14.1847
-14.2687
-14.3419
-14.4042
-14.4556
-14.4959
-14.5255
-11.3894
-11.6401
-11.8677
-12.0843
-12.2725
-12.4383
-12.5922
-12.7363
-12.8702
-12.9943
-13.109
-13.2141
-13.3096
-13.3952
-13.4708
-13.5363
-13.5916
-13.6368
-13.6716
-13.6961
-5.99448
-6.48543
-7.02348
-7.60557
-8.23817
-8.92865
-9.6847
-10.5158
-11.4341
-12.4552
-13.5997
-14.8944
-16.3748
-18.0869
-20.0911
-22.4665
-25.2945
-28.5971
-32.5937
-38.589
-6.26476
-6.76921
-7.31775
-7.91188
-8.55821
-9.26384
-10.0366
-10.8861
-11.8249
-12.8689
-14.0389
-15.3622
-16.8746
-18.6226
-20.6668
-23.0863
-25.9612
-29.3106
-33.3456
-39.3619
-6.53647
-7.05442
-7.61357
-8.21997
-8.88031
-9.60133
-10.391
-11.2593
-12.2189
-13.286
-14.4818
-15.834
-17.3788
-19.1631
-21.2477
-23.7112
-26.6327
-30.0276
-34.0993
-40.132
-6.80912
-7.34053
-7.91037
-8.52925
-9.20379
-9.94043
-10.7472
-11.6345
-12.6151
-13.7056
-14.9275
-16.3089
-17.8863
-19.707
-21.832
-24.3395
-27.3072
-30.7476
-34.8571
-40.911
-7.08228
-7.62705
-8.20766
-8.83923
-9.52819
-10.2806
-11.1047
-12.0111
-13.0129
-14.127
-15.3752
-16.7858
-18.396
-20.2533
-22.4187
-24.9703
-27.9842
-31.4701
-35.618
-41.6962
-7.35557
-7.91358
-8.50502
-9.14949
-9.85305
-10.6214
-11.463
-12.3887
-13.4118
-14.5496
-15.8242
-17.2643
-18.9074
-20.8014
-23.0073
-25.6029
-28.6629
-32.194
-36.38
-42.4836
-7.62867
-8.19977
-8.80209
-9.45963
-10.178
-10.9624
-11.8217
-12.7667
-13.8113
-14.9729
-16.274
-17.7437
-19.4198
-21.3505
-23.597
-26.2364
-29.3422
-32.9182
-37.1416
-43.2707
-7.90135
-8.48532
-9.09853
-9.76932
-10.5026
-11.3032
-12.1801
-13.1447
-14.2108
-15.3963
-16.7239
-18.2233
-19.9324
-21.8998
-24.1867
-26.8699
-30.0213
-33.6416
-37.9017
-44.0562
-8.17343
-8.77002
-9.39411
-10.0783
-10.8265
-11.6435
-12.5381
-13.5221
-14.6098
-15.8192
-17.1734
-18.7023
-20.4444
-22.4485
-24.7758
-27.5024
-30.6989
-34.363
-38.6589
-44.8385
-8.44489
-9.05378
-9.68867
-10.3863
-11.1496
-11.9828
-12.8951
-13.8986
-15.0078
-16.241
-17.6217
-19.1801
-20.9551
-22.9957
-25.3631
-28.1329
-31.3741
-35.0814
-39.412
-45.6162
-8.71583
-9.33662
-9.98215
-10.6932
-11.4716
-12.321
-13.2509
-14.2738
-15.4043
-16.6612
-18.0683
-19.6561
-21.4638
-23.5407
-25.9478
-28.7603
-32.0456
-35.7954
-40.1597
-46.3878
-8.98654
-9.61871
-10.2746
-10.9991
-11.7923
-12.6577
-13.6051
-14.6471
-15.7988
-17.0792
-18.5124
-20.1293
-21.9695
-24.0823
-26.5289
-29.3836
-32.7124
-36.5038
-40.9006
-47.1519
-9.25752
-9.90033
-10.5661
-11.3038
-12.1116
-12.9927
-13.9572
-15.0181
-16.1907
-17.4943
-18.9533
-20.5991
-22.4714
-24.6199
-27.1054
-30.0017
-33.3732
-37.2054
-41.6334
-47.9071
-9.52947
-10.1819
-10.8569
-11.6072
-12.4293
-13.3257
-14.3069
-15.3863
-16.5794
-17.9058
-19.3903
-21.0646
-22.9686
-25.1523
-27.6763
-30.6135
-34.0269
-37.8989
-42.3569
-48.6521
-9.80316
-10.4638
-11.147
-11.9093
-12.745
-13.6561
-14.6535
-15.7509
-16.9642
-18.313
-19.8226
-21.5249
-23.4602
-25.6785
-28.2403
-31.2177
-34.6722
-38.5831
-43.0698
-49.3857
-10.0795
-10.7462
-11.436
-12.2093
-13.058
-13.9832
-14.9964
-16.1114
-17.3442
-18.715
-20.2492
-21.9791
-23.9451
-26.1975
-28.7964
-31.8132
-35.3077
-39.2567
-43.7709
-50.1071
-10.3584
-11.028
-11.7225
-12.5061
-13.3671
-14.306
-15.3344
-16.4665
-17.7186
-19.1109
-20.6692
-22.4261
-24.4223
-26.708
-29.3432
-32.3986
-35.9322
-39.9184
-44.4593
-50.8155
-10.639
-11.3066
-12.004
-12.7976
-13.671
-14.6233
-15.6667
-16.8154
-18.0862
-19.4996
-21.0815
-22.8648
-24.8905
-27.2089
-29.8796
-32.9724
-36.5439
-40.5665
-45.1338
-51.5109
-10.9141
-11.5738
-12.2745
-13.0806
-13.9675
-14.9334
-15.9916
-17.1568
-18.4461
-19.88
-21.485
-23.2941
-25.3486
-27.6988
-30.404
-33.5331
-37.1413
-41.1991
-45.7931
-52.1948
-11.165
-11.8096
-12.5293
-13.3561
-14.2573
-15.2362
-16.3087
-17.4901
-18.7972
-20.2512
-21.8786
-23.7129
-25.7955
-28.1765
-30.9151
-34.079
-37.7222
-41.8132
-46.4326
-52.8689
-1.58
-1.8341
-2.18217
-2.57134
-2.99022
-3.44417
-3.93952
-4.48219
-5.0797
-5.74231
-6.48397
-7.32371
-8.28767
-9.41189
-10.7472
-12.3679
-14.3636
-16.7954
-19.9714
-25.3667
-1.73296
-2.00346
-2.36995
-2.76503
-3.1873
-3.64657
-4.1488
-4.69953
-5.30641
-5.97998
-6.73446
-7.58919
-8.57075
-9.71569
-11.0754
-12.7248
-14.7534
-17.2205
-20.4287
-25.8378
-1.88019
-2.17475
-2.55438
-2.95757
-3.38757
-3.8552
-4.36634
-4.92672
-5.54436
-6.23014
-6.99859
-7.86946
-8.86979
-10.0366
-11.422
-13.101
-15.1631
-17.6657
-20.9053
-26.3229
-2.04968
-2.35505
-2.74286
-3.15476
-3.59393
-4.07108
-4.59223
-5.16339
-5.79291
-6.49198
-7.27547
-8.16354
-9.18368
-10.3735
-11.7855
-13.4952
-15.5918
-18.131
-21.4054
-26.8407
-2.23047
-2.54292
-2.93855
-3.35939
-3.80804
-4.29514
-4.82695
-5.40969
-6.05197
-6.76524
-7.56473
-8.47097
-9.51194
-10.7258
-12.1655
-13.907
-16.0393
-18.6167
-21.9284
-27.3877
-2.41672
-2.73778
-3.14172
-3.57167
-4.03008
-4.52761
-5.07066
-5.66568
-6.32148
-7.04978
-7.86615
-8.7915
-9.85428
-11.0932
-12.5617
-14.3362
-16.5054
-19.1221
-22.4726
-27.9589
-2.60998
-2.94052
-3.35271
-3.79178
-4.26021
-4.76859
-5.32342
-5.93132
-6.60132
-7.34541
-8.17947
-9.12482
-10.2104
-11.4753
-12.9738
-14.7824
-16.9897
-19.6469
-23.0368
-28.5519
-2.81162
-3.15164
-3.57184
-4.02002
-4.49869
-5.01825
-5.58527
-6.20657
-6.89137
-7.65193
-8.50444
-9.47061
-10.5798
-11.8718
-13.4012
-15.245
-17.4915
-20.1903
-23.6205
-29.1654
-3.02144
-3.37097
-3.79916
-4.2565
-4.74557
-5.27657
-5.85617
-6.49132
-7.19147
-7.96912
-8.84077
-9.82855
-10.9623
-12.2823
-13.8436
-15.7236
-18.0104
-20.7517
-24.2229
-29.7987
-3.23882
-3.59819
-4.03447
-4.50107
-5.00072
-5.54343
-6.13594
-6.78537
-7.50137
-8.29668
-9.18815
-10.1983
-11.3573
-12.7061
-14.3004
-16.2176
-18.5456
-21.3303
-24.8431
-30.4504
-3.46335
-3.83295
-4.27745
-4.75344
-5.26387
-5.81858
-6.42433
-7.08845
-7.82077
-8.63431
-9.5462
-10.5793
-11.7645
-13.143
-14.771
-16.7264
-19.0965
-21.9255
-25.4805
-31.1195
-3.69463
-4.07484
-4.52773
-5.01327
-5.53471
-6.10168
-6.72102
-7.40021
-8.14932
-8.9816
-9.91451
-10.9713
-12.1833
-13.5923
-15.255
-17.2494
-19.6625
-22.5364
-26.134
-31.8051
-3.93221
-4.32341
-4.78486
-5.28014
-5.81284
-6.39235
-7.0256
-7.72026
-8.48659
-9.33812
-10.2926
-11.3738
-12.6133
-14.0535
-15.7516
-17.7858
-20.2427
-23.1623
-26.8028
-32.5062
-4.17555
-4.57811
-5.04835
-5.55358
-6.09779
-6.69013
-7.33762
-8.04812
-8.83211
-9.70336
-10.68
-11.7861
-13.0538
-14.526
-16.2602
-18.335
-20.8364
-23.8023
-27.4861
-33.2218
-4.42411
-4.8384
-5.31764
-5.83307
-6.38905
-6.99453
-7.65659
-8.3833
-9.18536
-10.0768
-11.0761
-12.2076
-13.5042
-15.009
-16.7801
-18.8963
-21.4429
-24.4556
-28.183
-33.951
-4.67735
-5.10371
-5.59219
-6.11807
-6.6861
-7.30502
-7.98197
-8.72524
-9.54577
-10.4579
-11.4803
-12.6379
-13.9638
-15.5019
-17.3106
-19.4688
-22.0612
-25.1214
-28.8927
-34.6932
-4.9347
-5.37347
-5.87141
-6.408
-6.98838
-7.62102
-8.31319
-9.07339
-9.91277
-10.8459
-11.892
-13.0761
-14.432
-16.004
-17.8509
-20.0517
-22.6905
-25.7986
-29.6144
-35.4477
-5.19562
-5.64708
-6.15473
-6.70229
-7.2953
-7.94198
-8.64968
-9.42714
-10.2858
-11.2404
-12.3105
-13.5217
-14.9081
-16.5145
-18.4001
-20.644
-23.3297
-26.4862
-30.3471
-36.2141
-5.45956
-5.92397
-6.44155
-7.00036
-7.60629
-8.2673
-8.99083
-9.78587
-10.6641
-11.6405
-12.7351
-13.9738
-15.3911
-17.0324
-18.9572
-21.2448
-23.9778
-27.183
-31.0898
-36.9931
-5.72602
-6.20361
-6.73134
-7.30167
-7.9208
-8.59642
-9.33608
-10.149
-11.0471
-12.0458
-13.1652
-14.4317
-15.8804
-17.557
-19.5215
-21.853
-24.6334
-27.8873
-31.8399
-37.7855
-1.33248
-1.12611
-0.972627
-0.836186
-0.716393
-0.610705
-0.51801
-0.437513
-0.368715
-0.311257
-0.264872
-0.229349
-0.204518
-0.190238
-0.186369
-0.192706
-0.209049
-0.235524
-0.272245
-0.319084
-1.66243
-1.47931
-1.32186
-1.1802
-1.05559
-0.945443
-0.848791
-0.764832
-0.693051
-0.633071
-0.584612
-0.54745
-0.521403
-0.506316
-0.502046
-0.508422
-0.525296
-0.552668
-0.590556
-0.638849
-1.99514
-1.8199
-1.66248
-1.51968
-1.39294
-1.28062
-1.18202
-1.09645
-1.02344
-0.962627
-0.91374
-0.876554
-0.850885
-0.836573
-0.83347
-0.841425
-0.860319
-0.890108
-0.930713
-0.982164
-2.37909
-2.20221
-2.04175
-1.896
-1.7657
-1.64988
-1.54807
-1.45972
-1.38441
-1.32181
-1.27164
-1.23367
-1.20773
-1.19363
-1.19123
-1.20037
-1.22095
-1.25288
-1.29607
-1.3505
-2.7981
-2.61877
-2.45436
-2.30468
-2.17017
-2.05031
-1.94477
-1.85313
-1.77504
-1.7102
-1.65834
-1.61924
-1.59271
-1.57858
-1.57669
-1.58688
-1.60904
-1.64305
-1.68881
-1.74629
-3.24972
-3.06718
-2.89861
-2.74462
-2.60566
-2.48155
-2.37208
-2.27696
-2.1959
-2.12864
-2.07493
-2.03457
-2.00737
-1.99314
-1.99173
-2.00298
-2.02678
-2.06297
-2.11144
-2.17211
-3.74013
-3.55289
-3.37943
-3.22052
-3.07668
-2.94793
-2.83418
-2.73524
-2.6509
-2.58094
-2.52513
-2.48329
-2.45523
-2.44078
-2.43976
-2.45204
-2.47746
-2.51589
-2.56718
-2.63128
-4.27615
-4.08271
-3.90327
-3.73858
-3.58916
-3.45515
-3.33657
-3.23331
-3.14523
-3.07213
-3.01385
-2.97019
-2.94098
-2.92606
-2.92525
-2.9384
-2.96538
-3.00601
-3.06014
-3.12775
-4.86546
-4.66439
-4.47773
-4.3062
-4.15028
-4.0102
-3.88606
-3.77781
-3.68536
-3.60857
-3.54728
-3.50134
-3.47057
-3.45482
-3.45392
-3.46772
-3.49606
-3.53878
-3.59572
-3.66685
-5.51822
-5.30794
-5.11266
-4.933
-4.76944
-4.62227
-4.49162
-4.3775
-4.27988
-4.19864
-4.13366
-4.08481
-4.05192
-4.03484
-4.03341
-4.04748
-4.0769
-4.12147
-4.18104
-4.25561
-6.24816
-6.02689
-5.82131
-5.63197
-5.45936
-5.30378
-5.1654
-5.04429
-4.94043
-4.85376
-4.78419
-4.73158
-4.69579
-4.67669
-4.67411
-4.6879
-4.7179
-4.76392
-4.82579
-4.90355
-7.07403
-6.83964
-6.62174
-6.42084
-6.2374
-6.07176
-5.9241
-5.79453
-5.68307
-5.58969
-5.5143
-5.45681
-5.41708
-5.39498
-5.39036
-5.40307
-5.43293
-5.47975
-5.54335
-5.62383
-8.02155
-7.7715
-7.53885
-7.32405
-7.12759
-6.94978
-6.79087
-6.65096
-6.53012
-6.42834
-6.34555
-6.28167
-6.23659
-6.21017
-6.20227
-6.21275
-6.24142
-6.28806
-6.35251
-6.4349
-9.12625
-8.85746
-8.60709
-8.37551
-8.16327
-7.97067
-7.79799
-7.64536
-7.51285
-7.40048
-7.30821
-7.23596
-7.18364
-7.15112
-7.13826
-7.14491
-7.1709
-7.21597
-7.27994
-7.36302
-10.4384
-10.1472
-9.87543
-9.62356
-9.39214
-9.1815
-8.99191
-8.82353
-8.67645
-8.55071
-8.44627
-8.36308
-8.30105
-8.26005
-8.23996
-8.24063
-8.26187
-8.30339
-8.36501
-8.44698
-12.0316
-11.7135
-11.4161
-11.1398
-10.8851
-10.6525
-10.4422
-10.2544
-10.0892
-9.94659
-9.82663
-9.72924
-9.65433
-9.60181
-9.57153
-9.56335
-9.57708
-9.61242
-9.66913
-9.74749
-13.9949
-13.6453
-13.3175
-13.0122
-12.7299
-12.471
-12.2359
-12.0246
-11.8374
-11.6741
-11.5349
-11.4196
-11.3283
-11.2608
-11.217
-11.1967
-11.1998
-11.226
-11.2751
-11.3469
-16.39
-16.0049
-15.6426
-15.3043
-14.9905
-14.7018
-14.4383
-14.2002
-13.9875
-13.8002
-13.6385
-13.5022
-13.3913
-13.3058
-13.2455
-13.2104
-13.2002
-13.2149
-13.254
-13.3167
-19.5274
-19.1025
-18.7014
-18.3266
-17.9784
-17.657
-17.3622
-17.0941
-16.8527
-16.6379
-16.4498
-16.2884
-16.1536
-16.0454
-15.9636
-15.9081
-15.879
-15.8764
-15.9001
-15.9481
-24.8647
-24.3948
-23.9593
-23.5551
-23.1801
-22.8333
-22.5143
-22.2229
-21.9592
-21.7231
-21.5147
-21.3339
-21.181
-21.056
-20.9589
-20.8898
-20.8496
-20.8403
-20.8634
-20.9087
-0.3759
-0.442377
-0.518477
-0.604118
-0.699217
-0.803666
-0.917334
-1.04006
-1.17162
-1.31176
-1.46009
-1.61609
-1.77896
-1.94749
-2.12001
-2.29426
-2.46575
-2.6247
-2.75571
-2.88514
-0.697543
-0.766293
-0.845028
-0.933635
-1.03201
-1.14003
-1.25753
-1.38434
-1.52021
-1.66483
-1.81781
-1.97857
-2.14635
-2.31999
-2.49787
-2.67835
-2.85964
-3.03403
-3.1863
-3.35817
-1.04434
-1.11693
-1.19987
-1.29304
-1.39631
-1.50954
-1.63255
-1.76514
-1.90704
-2.05793
-2.21737
-2.38481
-2.5595
-2.74041
-2.92619
-3.11564
-3.30779
-3.49828
-3.68136
-3.88695
-1.41609
-1.49253
-1.57974
-1.67757
-1.78588
-1.90452
-2.03328
-2.17194
-2.32022
-2.47776
-2.64414
-2.81879
-3.00101
-3.1899
-3.38438
-3.58358
-3.7867
-3.99142
-4.19824
-4.42752
-1.81541
-1.89585
-1.98752
-2.09026
-2.20391
-2.32829
-2.4632
-2.60837
-2.76352
-2.9283
-3.10225
-3.28485
-3.47545
-3.67327
-3.87749
-4.08751
-4.3027
-4.52203
-4.74812
-4.99415
-2.24507
-2.32981
-2.42628
-2.53431
-2.65373
-2.78434
-2.92593
-3.07822
-3.24093
-3.41367
-3.59604
-3.78752
-3.98754
-4.19543
-4.41059
-4.6326
-4.86106
-5.09575
-5.33943
-5.59994
-2.70825
-2.79752
-2.89911
-3.0128
-3.13843
-3.27578
-3.42461
-3.58467
-3.75564
-3.93716
-4.12884
-4.33019
-4.54071
-4.75985
-4.98715
-5.2223
-5.4651
-5.71576
-5.97649
-6.25172
-3.2088
-3.30292
-3.40992
-3.52963
-3.66188
-3.80645
-3.9631
-4.13156
-4.31153
-4.50265
-4.70454
-4.91678
-5.1389
-5.37046
-5.61108
-5.86053
-6.11873
-6.386
-6.66391
-6.95494
-3.75219
-3.85122
-3.96384
-4.08987
-4.22911
-4.38135
-4.54635
-4.72384
-4.91351
-5.11504
-5.32806
-5.55217
-5.78698
-6.03209
-6.2872
-6.55211
-6.82678
-7.11149
-7.40725
-7.71542
-4.34521
-4.44919
-4.56764
-4.70015
-4.84668
-5.00697
-5.18079
-5.36787
-5.5679
-5.78059
-6.00557
-6.2425
-6.49101
-6.75076
-7.02148
-7.30298
-7.59522
-7.89834
-8.21292
-8.53975
-4.99725
-5.10612
-5.2302
-5.36941
-5.52338
-5.69197
-5.87495
-6.07205
-6.28299
-6.50746
-6.74515
-6.99573
-7.25886
-7.53423
-7.82158
-8.12074
-8.4316
-8.75418
-9.08874
-9.43576
-5.72123
-5.83469
-5.96429
-6.10986
-6.27128
-6.44822
-6.6405
-6.84789
-7.07008
-7.30678
-7.55773
-7.8226
-8.10109
-8.3929
-8.69777
-9.01551
-9.34598
-9.68904
-10.0447
-10.4134
-6.53531
-6.65272
-6.78732
-6.93884
-7.10719
-7.29245
-7.49398
-7.7115
-7.94496
-8.19406
-8.45854
-8.73809
-9.03241
-9.34121
-9.66424
-10.0013
-10.3521
-10.7165
-11.0944
-11.4859
-7.46532
-7.58561
-7.72425
-7.88096
-8.05551
-8.24792
-8.45896
-8.6858
-8.93015
-9.19137
-9.4692
-9.76338
-10.0736
-10.3996
-10.7411
-11.0978
-11.4695
-11.8558
-12.2565
-12.6719
-8.54945
-8.67093
-8.81199
-8.97241
-9.15204
-9.35037
-9.56692
-9.80405
-10.0591
-10.3314
-10.6218
-10.9301
-11.2559
-11.5988
-11.9586
-12.3349
-12.7274
-13.1357
-13.5595
-13.999
-9.84761
-9.96774
-10.1088
-10.2706
-10.4532
-10.656
-10.8786
-11.1211
-11.3837
-11.6669
-11.9691
-12.2908
-12.6313
-12.9901
-13.3668
-13.7615
-14.174
-14.6037
-15.05
-15.5131
-11.4413
-11.5569
-11.6951
-11.8557
-12.0384
-12.2429
-12.4691
-12.7166
-12.9854
-13.2756
-13.588
-13.9213
-14.2737
-14.6446
-15.0352
-15.4459
-15.8764
-16.3257
-16.7929
-17.278
-13.4013
-13.5094
-13.6416
-13.7976
-13.9762
-14.1777
-14.4024
-14.65
-14.9204
-15.213
-15.5271
-15.863
-16.2223
-16.6057
-17.0114
-17.438
-17.8851
-18.3524
-18.839
-19.3438
-16.0184
-16.1104
-16.2264
-16.3678
-16.5361
-16.7303
-16.9498
-17.194
-17.4627
-17.7555
-18.0718
-18.4112
-18.7741
-19.1609
-19.5716
-20.0054
-20.4623
-20.9429
-21.4472
-21.9701
-20.9506
-21.023
-21.1263
-21.2582
-21.4174
-21.6035
-21.8157
-22.0538
-22.3173
-22.606
-22.9196
-23.2582
-23.6218
-24.0107
-24.4251
-24.8648
-25.3311
-25.8277
-26.3573
-26.9021
-27.4178
-22.5036
-19.8664
-17.7809
-15.9931
-14.4541
-13.1018
-11.8911
-10.7949
-9.79515
-8.87875
-8.03598
-7.25921
-6.5422
-5.87974
-5.2673
-4.6996
-4.17106
-3.69013
-3.28576
-27.9613
-23.0533
-20.4046
-18.2989
-16.4873
-14.9227
-13.5443
-12.3082
-11.1878
-10.1654
-9.22824
-8.3668
-7.57358
-6.84247
-6.16844
-5.54704
-4.97353
-4.44551
-3.9761
-3.57366
-28.5334
-23.6218
-20.9599
-18.8329
-16.9962
-15.4048
-13.9994
-12.7369
-11.5914
-10.5457
-9.58729
-8.7067
-7.89652
-7.15069
-6.46413
-5.83231
-5.2506
-4.71671
-4.24019
-3.81827
-29.1298
-24.2098
-21.5324
-19.3826
-17.5193
-15.8998
-14.4662
-13.1763
-12.005
-10.9352
-9.95482
-9.05434
-8.22636
-7.4647
-6.76408
-6.11969
-5.52666
-4.98203
-4.49253
-4.0519
-29.7474
-24.8167
-22.1215
-19.9475
-18.0559
-16.407
-14.944
-13.6259
-12.4277
-11.3332
-10.33
-9.40885
-8.56227
-7.78388
-7.06814
-6.40995
-5.80411
-5.24711
-4.74384
-4.2871
-30.3848
-25.4429
-22.7252
-20.5266
-18.6054
-16.9256
-15.4322
-14.0847
-12.8589
-11.7387
-10.712
-9.76958
-8.90371
-8.10787
-7.37627
-6.70355
-6.08427
-5.51458
-4.99805
-4.52725
-31.0407
-26.087
-23.3432
-21.1188
-19.1668
-17.4549
-15.9299
-14.552
-13.2978
-12.1512
-11.1004
-10.136
-9.25034
-8.43658
-7.68873
-7.00118
-6.36836
-5.78616
-5.25708
-4.77362
-31.7139
-26.7469
-23.9752
-21.7233
-19.7393
-17.994
-16.4363
-15.0272
-13.7436
-12.57
-11.4945
-10.5077
-9.60185
-8.76987
-8.00557
-7.30312
-6.65683
-6.06239
-5.52134
-5.02613
-32.403
-27.4213
-24.6206
-22.3394
-20.322
-18.5422
-16.9507
-15.5094
-14.1958
-12.9945
-11.8938
-10.8843
-9.95792
-9.10753
-8.32668
-7.60935
-6.94971
-6.34329
-5.79066
-5.2843
-33.1068
-28.1089
-25.2782
-22.9661
-20.914
-19.0985
-17.4722
-15.9979
-14.6535
-13.424
-12.2978
-11.2652
-10.3181
-9.44921
-8.65178
-7.91961
-7.24674
-6.62849
-6.06454
-5.54738
-33.8241
-28.8086
-25.9469
-23.6024
-21.5142
-19.6619
-17.9999
-16.4919
-15.1161
-13.858
-12.7058
-11.6499
-10.682
-9.79447
-8.98045
-8.23348
-7.54745
-6.91746
-6.34233
-5.81461
-34.5536
-29.5193
-26.6257
-24.2472
-22.1218
-20.2316
-18.533
-16.9905
-15.5828
-14.2956
-13.1171
-12.0378
-11.0489
-10.1428
-9.31215
-8.55041
-7.85127
-7.20957
-6.62333
-6.08518
-35.2945
-30.2399
-27.3133
-24.8996
-22.7356
-20.8066
-19.0706
-17.4928
-16.0528
-14.7361
-13.5312
-12.4282
-11.4183
-10.4935
-9.6463
-8.86981
-8.15756
-7.50415
-6.90681
-6.35834
-36.0454
-30.9693
-28.0086
-25.5583
-23.3546
-21.3858
-19.6116
-17.9981
-16.5252
-15.1788
-13.9472
-12.8205
-11.7895
-10.846
-9.98224
-9.19103
-8.46568
-7.80054
-7.19208
-6.63334
-36.8054
-31.7061
-28.7104
-26.2221
-23.9777
-21.9682
-20.155
-18.5053
-16.9992
-15.6228
-14.3644
-13.2139
-12.1618
-11.1996
-10.3193
-9.51341
-8.77497
-8.09805
-7.47845
-6.90952
-37.5731
-32.4491
-29.4173
-26.8899
-24.6037
-22.5527
-20.7
-19.0134
-17.4738
-16.0673
-14.782
-13.6076
-12.5345
-11.5537
-10.6569
-9.83631
-9.08477
-8.39604
-7.76527
-7.18622
-38.3482
-33.1971
-30.128
-27.5604
-25.2314
-23.1381
-21.2452
-19.5216
-17.9482
-16.5114
-15.1992
-14.0011
-12.9069
-11.9076
-10.9943
-10.159
-9.39443
-8.69389
-8.05191
-7.46284
-39.1321
-33.9497
-30.8411
-28.2319
-25.8593
-23.723
-21.7896
-20.0286
-18.4214
-16.9542
-15.6152
-14.3933
-13.2782
-12.2604
-11.3308
-10.481
-9.70332
-8.99095
-8.33779
-7.73882
-39.9249
-34.7056
-31.5545
-28.9028
-26.4861
-24.3065
-22.3322
-20.5335
-18.8924
-17.395
-16.0291
-14.7836
-13.6478
-12.6116
-11.6657
-10.8014
-10.0108
-9.28665
-8.62232
-8.01364
-40.714
-35.4598
-32.2668
-29.5721
-27.1111
-24.8878
-22.8724
-21.036
-19.3609
-17.8332
-16.4407
-15.1716
-14.0151
-12.9607
-11.9987
-11.12
-10.3165
-9.58052
-8.90506
-8.28686
-6.76699
-4.6641
-3.30638
-2.263
-1.53024
-0.992132
-0.605696
-0.331379
-0.140922
-0.0126265
0.070087
0.119823
0.146129
0.156149
0.155178
0.147076
0.134651
0.119895
0.104216
0.0885776
0.073623
0.0597621
0.0472304
0.0361474
0.0265338
0.0183698
0.0115612
0.00604472
0.00164868
-0.00165158
-0.00412585
-0.00565454
-0.00670442
-0.00683547
-0.00692919
-0.0059228
-0.00549846
-0.00348541
-0.00298448
0.000131309
-7.02229
-4.84621
-3.45245
-2.37802
-1.62119
-1.06569
-0.665702
-0.380952
-0.182261
-0.0473489
0.04078
0.0950114
0.125094
0.138313
0.140068
0.134298
0.12387
0.110826
0.0966122
0.0822272
0.0683416
0.0553896
0.0436304
0.0331984
0.0241311