/*--------------------------------*- C++ -*----------------------------------*\
| =========                 |                                                 |
| \\      /  F ield         | OpenFOAM: The Open Source CFD Toolbox           |
|  \\    /   O peration     | Version:  v1912                                 |
|   \\  /    A nd           | Website:  www.openfoam.com                      |
|    \\/     M anipulation  |                                                 |
\*---------------------------------------------------------------------------*/
FoamFile
{
    version     2.0;
    format      ascii;
    class       volVectorField;
    location    "41";
    object      U;
}
// * * * * * * * * * * * * * * * * * * * * * * * * * * * * * * * * * * * * * //

dimensions      [0 1 -1 0 0 0 0];


internalField   nonuniform List<vector> 
9600
(
(0.456565 -9.36233 -1.54105e-19)
(0.159717 -8.63359 0)
(0.241842 -8.16082 -9.04835e-20)
(0.320493 -7.84153 0)
(0.387703 -7.60615 0)
(0.456 -7.4112 -3.18318e-20)
(0.521409 -7.23266 -5.49001e-22)
(0.580795 -7.05831 2.6606e-20)
(0.633387 -6.88283 0)
(0.679215 -6.70477 -4.51101e-20)
(0.718669 -6.52477 0)
(0.752374 -6.34435 -1.82939e-21)
(0.781066 -6.16534 -2.60658e-21)
(0.805501 -5.98941 -3.15174e-20)
(0.826402 -5.81796 2.65788e-20)
(0.844422 -5.65195 -2.61129e-20)
(0.860111 -5.49186 2.32486e-20)
(0.874015 -5.3376 0)
(0.886915 -5.18842 -1.84919e-20)
(0.898539 -5.0428 2.02714e-20)
(0.824524 -9.35191 -3.08296e-19)
(0.502219 -8.66162 1.17594e-20)
(0.567545 -8.20504 1.86386e-19)
(0.634689 -7.89524 -1.58853e-19)
(0.692883 -7.66446 1.5666e-19)
(0.753133 -7.47 0)
(0.810661 -7.28915 6.07126e-20)
(0.861996 -7.11082 -6.0572e-20)
(0.90629 -6.93045 -1.05059e-19)
(0.943634 -6.74721 1.32872e-19)
(0.974527 -6.56211 -8.62681e-20)
(0.999718 -6.37695 -3.52169e-20)
(1.02005 -6.19367 7.1087e-20)
(1.03638 -6.01406 0)
(1.04948 -5.8395 0)
(1.06005 -5.67095 9.96315e-20)
(1.06865 -5.50888 -1.6892e-19)
(1.07584 -5.35312 0)
(1.08247 -5.20281 0)
(1.08802 -5.05631 -7.80735e-20)
(1.19282 -9.32796 6.36979e-19)
(0.846986 -8.67679 0)
(0.896797 -8.23659 -3.77122e-19)
(0.953171 -7.93638 -3.41807e-19)
(1.00265 -7.71016 0)
(1.05483 -7.51616 5.46196e-19)
(1.10425 -7.33303 -5.15645e-19)
(1.14718 -7.1508 1.01072e-19)
(1.18278 -6.96575 -2.25008e-19)
(1.21122 -6.7776 -3.74176e-19)
(1.23316 -6.58775 5.10771e-19)
(1.24948 -6.39823 -3.15795e-19)
(1.26115 -6.21112 -1.41525e-19)
(1.26911 -6.02824 0)
(1.2742 -5.851 5.52411e-21)
(1.27716 -5.68034 1.05021e-19)
(1.27854 -5.51668 4.53955e-20)
(1.27892 -5.35982 0)
(1.27923 -5.20876 8.229e-20)
(1.27861 -5.06182 8.43394e-20)
(1.56035 -9.29009 -8.61737e-19)
(1.19343 -8.67882 -4.03791e-19)
(1.22904 -8.25524 3.91661e-19)
(1.27538 -7.96463 6.73035e-19)
(1.31643 -7.74291 -3.26656e-19)
(1.3605 -7.54931 5.79409e-21)
(1.40156 -7.36393 2.53632e-19)
(1.43574 -7.17796 2.29722e-19)
(1.46223 -6.98846 4.20719e-19)
(1.48137 -6.79572 0)
(1.49398 -6.60151 1.62062e-19)
(1.5011 -6.40806 -1.71997e-19)
(1.50383 -6.21756 1.03482e-20)
(1.50318 -6.03187 2.71108e-19)
(1.50009 -5.85239 2.32407e-19)
(1.49529 -5.68005 -3.28075e-19)
(1.48935 -5.51522 1.08044e-19)
(1.48288 -5.35765 -1.75916e-19)
(1.47686 -5.20624 1.75085e-19)
(1.46999 -5.05926 -8.4383e-20)
(1.92681 -9.23826 4.34592e-19)
(1.54125 -8.66755 0)
(1.56387 -8.26075 3.84616e-19)
(1.6008 -7.97966 0)
(1.63366 -7.76234 0)
(1.66954 -7.5691 -3.00214e-19)
(1.70198 -7.38154 -5.37112e-19)
(1.72704 -7.19199 -4.55379e-19)
(1.74403 -6.99833 1.84464e-20)
(1.75349 -6.80137 -1.96771e-19)
(1.75642 -6.60321 0)
(1.75403 -6.40629 -1.62472e-19)
(1.74756 -6.21288 -2.92671e-19)
(1.73812 -6.02485 2.57366e-19)
(1.72667 -5.84359 -7.31409e-19)
(1.71401 -5.67 1.18367e-19)
(1.7007 -5.50442 9.38118e-20)
(1.68734 -5.34655 -1.93447e-19)
(1.67498 -5.19517 -8.45211e-20)
(1.66185 -5.04861 2.52036e-19)
(2.29165 -9.17237 4.19344e-19)
(1.88997 -8.64275 4.15848e-19)
(1.90077 -8.2528 0)
(1.92888 -7.98115 0)
(1.95374 -7.76812 -6.24094e-19)
(1.98133 -7.57522 3.41112e-19)
(2.00487 -7.38557 8.20841e-19)
(2.02044 -7.19266 0)
(2.02755 -6.99515 2.16902e-19)
(2.02695 -6.79437 1.96772e-19)
(2.01987 -6.59273 -3.47622e-19)
(2.00771 -6.39283 5.04106e-19)
(1.99181 -6.197 1.47921e-19)
(1.9734 -6.00712 0)
(1.95348 -5.82456 1.23131e-19)
(1.93287 -5.65016 5.52704e-19)
(1.91213 -5.48426 -3.29341e-19)
(1.8919 -5.3265 3.70052e-19)
(1.87324 -5.17554 -7.03675e-19)
(1.85382 -5.02984 8.13482e-19)
(2.65435 -9.0924 4.26482e-19)
(2.23907 -8.60423 -2.25826e-18)
(2.23919 -8.23115 0)
(2.25903 -7.96879 0)
(2.27604 -7.75994 0)
(2.29521 -7.56738 -6.05396e-19)
(2.30955 -7.37577 0)
(2.31528 -7.17975 -9.70289e-19)
(2.31213 -6.97875 8.9498e-19)
(2.30113 -6.77459 -8.31205e-19)
(2.28375 -6.56996 0)
(2.26155 -6.3676 0)
(2.23604 -6.16987 0)
(2.20851 -5.97865 -2.81208e-19)
(2.18003 -5.79526 0)
(2.15141 -5.62052 0)
(2.12322 -5.45472 -4.12714e-19)
(2.09613 -5.29746 4.05505e-19)
(2.07122 -5.14732 0)
(2.04556 -5.00293 0)
(3.01436 -8.99835 -1.38745e-18)
(2.588 -8.55183 8.99044e-19)
(2.57857 -8.19555 0)
(2.59065 -7.94231 0)
(2.59991 -7.73753 0)
(2.61051 -7.54533 5.75815e-19)
(2.61536 -7.35191 -5.77559e-19)
(2.61088 -7.15308 -8.88145e-21)
(2.59712 -6.949 -8.96095e-19)
(2.57539 -6.74193 8.39021e-19)
(2.54742 -6.53483 -3.78495e-19)
(2.51498 -6.33055 6.58132e-19)
(2.47969 -6.13147 -4.63915e-20)
(2.44293 -5.93943 -5.95362e-19)
(2.40581 -5.75571 -5.01767e-19)
(2.36915 -5.58108 4.92971e-19)
(2.33352 -5.41581 0)
(2.2996 -5.25946 0)
(2.26853 -5.11052 3.567e-19)
(2.23668 -4.96791 -3.92551e-19)
(3.37112 -8.89025 9.27326e-19)
(2.93619 -8.48539 8.8324e-19)
(2.9183 -8.14577 -1.67409e-18)
(2.92308 -7.90147 7.90774e-19)
(2.92469 -7.70066 0)
(2.92654 -7.50885 6.16157e-19)
(2.92159 -7.31383 -5.40887e-19)
(2.90656 -7.11252 1.52858e-18)
(2.88184 -6.90579 -2.36849e-20)
(2.84909 -6.69632 0)
(2.81029 -6.48731 7.63668e-19)
(2.76742 -6.28167 0)
(2.72222 -6.0818 0)
(2.67614 -5.88947 -2.72351e-19)
(2.63033 -5.70591 5.49308e-19)
(2.58562 -5.53185 0)
(2.54255 -5.36754 4.30838e-19)
(2.50186 -5.2125 1.7935e-19)
(2.46472 -5.06516 -3.89145e-19)
(2.42677 -4.92479 3.77861e-19)
(3.72407 -8.76815 -9.55108e-19)
(3.28305 -8.40481 8.97637e-19)
(3.25776 -8.08165 -2.55645e-18)
(3.25567 -7.84607 8.03883e-19)
(3.24967 -7.64913 0)
(3.24259 -7.45778 -1.24362e-18)
(3.22753 -7.26139 5.97422e-19)
(3.20161 -7.05797 0)
(3.16562 -6.84906 -4.74285e-19)
(3.12157 -6.63774 -8.22599e-19)
(3.07173 -6.42738 -7.16769e-19)
(3.01827 -6.22097 5.34284e-20)
(2.96305 -6.02087 6.70383e-19)
(2.90759 -5.8288 2.72127e-19)
(2.85307 -5.64591 -3.79257e-20)
(2.8003 -5.47288 -5.12441e-19)
(2.74984 -5.30996 -2.29194e-19)
(2.70245 -5.15662 -2.06627e-19)
(2.65934 -5.01125 5.51186e-19)
(2.61542 -4.87361 -8.21355e-19)
(4.07266 -8.63215 9.5511e-19)
(3.628 -8.31002 -4.66414e-20)
(3.59631 -8.00303 8.21752e-19)
(3.58775 -7.77594 0)
(3.57416 -7.58277 -6.80308e-19)
(3.55794 -7.39199 1.30721e-18)
(3.53248 -7.19449 -1.11735e-18)
(3.49534 -6.98936 1.09955e-18)
(3.44778 -6.77878 -4.45508e-19)
(3.39219 -6.56617 9.04394e-19)
(3.33112 -6.35506 3.91642e-19)
(3.26694 -6.14847 0)
(3.20163 -5.94872 0)
(3.13676 -5.75746 -2.82168e-19)
(3.07351 -5.57575 3.8343e-20)
(3.01271 -5.40422 1.00912e-18)
(2.95489 -5.2431 -2.4966e-19)
(2.90087 -5.09185 8.24551e-19)
(2.8519 -4.94885 1.443e-19)
(2.80216 -4.81439 -8.38878e-19)
(4.41633 -8.48236 -2.93885e-18)
(3.97042 -8.201 -9.86466e-19)
(3.9333 -7.90982 -2.63044e-18)
(3.91861 -7.69095 -1.60017e-18)
(3.89743 -7.50148 -7.59004e-19)
(3.87186 -7.31137 -7.41823e-19)
(3.83569 -7.11307 -2.42151e-18)
(3.78704 -6.90667 -4.90522e-20)
(3.72764 -6.69495 -1.94567e-18)
(3.66029 -6.48164 3.0221e-20)
(3.58785 -6.27039 -8.07783e-19)
(3.51286 -6.06423 -7.36069e-19)
(3.4374 -5.86542 6.71918e-19)
(3.3631 -5.67551 -6.14472e-19)
(3.29115 -5.49549 -5.62948e-19)
(3.22234 -5.32591 -5.16651e-19)
(3.1572 -5.16702 -1.38722e-18)
(3.09663 -5.01825 4.93542e-19)
(3.04191 -4.87798 1.19769e-18)
(2.98651 -4.74719 -1.27472e-18)
(4.75453 -8.3189 3.95294e-18)
(4.30972 -8.07772 4.856e-18)
(4.26809 -7.80193 8.34148e-19)
(4.24757 -7.59101 3.99662e-18)
(4.21877 -7.40516 -7.83311e-19)
(4.18363 -7.21589 3.9139e-18)
(4.13646 -7.01711 1.14488e-18)
(4.076 -6.80992 3.21405e-18)
(4.00452 -6.59761 -9.82397e-19)
(3.92524 -6.3842 2.71998e-18)
(3.8413 -6.17343 1.62708e-18)
(3.75543 -5.96831 1.48278e-18)
(3.66981 -5.77103 -2.00745e-18)
(3.58608 -5.58303 1.8805e-18)
(3.50544 -5.40519 1.13458e-18)
(3.42866 -5.23804 1.0415e-18)
(3.35626 -5.08178 9.57665e-19)
(3.2892 -4.93587 7.35866e-21)
(3.22885 -4.79871 8.12915e-19)
(3.16801 -4.67203 8.46006e-19)
(5.08674 -8.14196 -2.93544e-18)
(4.6453 -7.94024 1.08182e-18)
(4.60002 -7.67934 2.67615e-18)
(4.57392 -7.47607 -3.26035e-18)
(4.53743 -7.29379 7.53387e-19)
(4.4925 -7.10553 -2.6185e-18)
(4.43407 -6.90664 1.28336e-18)
(4.36154 -6.69914 -2.15053e-18)
(4.27778 -6.48683 4.90147e-20)
(4.18642 -6.27394 1.19349e-20)
(4.09089 -6.06427 -1.64954e-18)
(3.99409 -5.8608 -7.46712e-19)
(3.89829 -5.66563 1.37301e-18)
(3.80516 -5.48008 8.75116e-21)
(3.71586 -5.30494 -3.71687e-20)
(3.63115 -5.14066 -1.08704e-18)
(3.55151 -4.98745 -4.82714e-19)
(3.47801 -4.84477 -2.7127e-20)
(3.41214 -4.71107 -8.47235e-19)
(3.34607 -4.58905 -4.27247e-19)
(5.41245 -7.9517 0)
(4.97658 -7.78859 -1.9989e-18)
(4.92842 -7.54204 2.37146e-20)
(4.89696 -7.34611 3.2558e-18)
(4.85269 -7.16737 1.36268e-18)
(4.79775 -6.98033 -1.41845e-18)
(4.72779 -6.78173 -1.22192e-18)
(4.64297 -6.57445 0)
(4.54675 -6.36272 -9.726e-19)
(4.44319 -6.15097 9.28216e-19)
(4.33602 -5.94303 -3.90515e-20)
(4.22829 -5.74181 0)
(4.12234 -5.5493 -6.91202e-19)
(4.01982 -5.36672 5.98693e-19)
(3.92189 -5.19476 5.0015e-19)
(3.82924 -5.03379 -6.0381e-19)
(3.74238 -4.88401 -5.23809e-19)
(3.66243 -4.74491 9.09591e-19)
(3.59104 -4.61506 -8.39431e-19)
(3.51987 -4.49831 4.41841e-19)
(5.73119 -7.7483 3.03276e-18)
(5.30297 -7.62286 -2.0587e-18)
(5.25264 -7.39004 -1.75691e-18)
(5.21596 -7.20115 8.17979e-19)
(5.16383 -7.02595 -1.58695e-18)
(5.09865 -6.84037 0)
(5.01693 -6.64248 0)
(4.91962 -6.43595 0)
(4.8108 -6.22541 -4.44529e-20)
(4.69498 -6.01542 -1.86283e-18)
(4.57615 -5.80982 8.79783e-19)
(4.45751 -5.61143 7.44046e-19)
(4.34144 -5.42214 6.29609e-19)
(4.22959 -5.24304 -2.58368e-18)
(4.12305 -5.0747 1.22487e-18)
(4.02248 -4.91744 0)
(3.92834 -4.77145 -3.0408e-20)
(3.84183 -4.63625 -1.41079e-18)
(3.76474 -4.5106 -5.69245e-21)
(3.68843 -4.39946 -4.4233e-19)
(6.04261 -7.53205 -2.06285e-18)
(5.62394 -7.44318 -1.08537e-18)
(5.57198 -7.22343 8.17769e-19)
(5.53022 -7.04127 -1.43905e-19)
(5.47009 -6.86961 -4.62606e-18)
(5.39447 -6.68576 4.18658e-18)
(5.30077 -6.48903 -4.8801e-20)
(5.19082 -6.28382 1.14663e-18)
(5.06931 -6.07508 1.02876e-18)
(4.94121 -5.86748 9.44618e-19)
(4.81075 -5.66481 8.5959e-19)
(4.68126 -5.46981 1.53618e-18)
(4.55515 -5.28425 -7.39385e-19)
(4.43403 -5.1091 1.91653e-18)
(4.31895 -4.94482 -1.239e-18)
(4.21048 -4.79168 -5.12531e-19)
(4.10904 -4.64986 2.05864e-18)
(4.01588 -4.5189 1.37536e-18)
(3.93296 -4.39759 -2.79394e-20)
(3.85172 -4.29181 0)
(6.34668 -7.30343 -1.04886e-18)
(5.93908 -7.24973 2.07418e-18)
(5.8858 -7.04225 1.81585e-18)
(5.83899 -6.86652 -1.4588e-19)
(5.77075 -6.69845 -1.56956e-18)
(5.68448 -6.51665 7.06509e-20)
(5.57863 -6.32156 1.31591e-20)
(5.45592 -6.11825 1.17251e-20)
(5.32169 -5.91194 0)
(5.18132 -5.70732 9.23893e-19)
(5.0393 -5.50816 -1.75848e-18)
(4.89904 -5.31707 -7.52488e-19)
(4.76296 -5.1357 7.47024e-19)
(4.63264 -4.96492 -6.55455e-19)
(4.50904 -4.80511 6.07049e-19)
(4.39266 -4.65651 -5.52623e-19)
(4.28391 -4.5193 4.89573e-21)
(4.18417 -4.39289 -4.69472e-19)
(4.09569 -4.27597 -4.3368e-19)
(4.0103 -4.17622 -4.33974e-19)
(6.64374 -7.06292 0)
(6.24815 -7.04243 -1.01129e-18)
(6.19344 -6.84643 9.99684e-19)
(6.14152 -6.67697 1.74408e-18)
(6.06505 -6.51266 -1.57822e-18)
(5.96796 -6.33328 1.36336e-18)
(5.84983 -6.14037 -2.62142e-18)
(5.71431 -5.93956 -2.32784e-18)
(5.56739 -5.73627 -1.01549e-18)
(5.41485 -5.53524 4.44003e-20)
(5.26139 -5.3401 -8.40876e-19)
(5.1105 -5.15337 3.49042e-20)
(4.96456 -4.97655 0)
(4.82503 -4.8104 -1.28572e-18)
(4.69275 -4.65528 6.56147e-19)
(4.56811 -4.51143 0)
(4.45156 -4.37897 -5.13849e-19)
(4.34469 -4.25704 -9.23834e-19)
(4.24975 -4.14527 9.0776e-19)
(4.15917 -4.05627 4.48097e-19)
(6.93339 -6.80972 0)
(6.5505 -6.82058 0)
(6.49418 -6.6359 -1.85438e-18)
(6.43705 -6.47291 -1.5944e-18)
(6.35228 -6.31261 3.23609e-18)
(6.24429 -6.13608 0)
(6.11381 -5.94588 0)
(5.96549 -5.74817 1.16947e-18)
(5.80597 -5.54853 0)
(5.64144 -5.35164 0)
(5.47678 -5.16103 0)
(5.31551 -4.97903 0)
(5.15994 -4.807 0)
(5.01137 -4.64557 0)
(4.87038 -4.49501 0)
(4.73708 -4.3555 0)
(4.61173 -4.22687 0)
(4.49541 -4.10849 0)
(4.38825 -4.00341 0)
(4.2841 -3.92891 0)
(10.0429 0.0877358 1.47243e-19)
(10.0224 -0.30763 2.86481e-19)
(9.98664 -0.700321 -2.94236e-19)
(9.93613 -1.09019 5.8665e-19)
(9.87063 -1.47691 -5.86649e-19)
(9.79 -1.85996 -5.54357e-19)
(9.69436 -2.23881 -5.52811e-19)
(9.5839 -2.61291 1.74105e-18)
(9.45887 -2.98171 -1.15997e-18)
(9.31953 -3.34466 1.15025e-18)
(9.16615 -3.70122 -1.15026e-18)
(8.99905 -4.05084 1.14176e-18)
(8.81854 -4.39302 -2.26422e-18)
(8.625 -4.72724 3.33435e-18)
(8.41877 -5.05302 0)
(8.20025 -5.36992 -3.27592e-18)
(7.96984 -5.67751 1.63248e-20)
(7.72805 -5.97543 3.30142e-18)
(7.475 -6.26352 0)
(7.21235 -6.54111 0)
(10.119 -0.210731 0)
(10.0778 -0.606788 -1.50392e-20)
(10.0197 -0.999046 0)
(9.94562 -1.38717 5.61343e-19)
(9.85563 -1.77073 5.84581e-19)
(9.74998 -2.14912 -1.69193e-18)
(9.62896 -2.52171 2.94567e-18)
(9.49292 -2.88788 -1.16282e-18)
(9.34223 -3.24703 -1.10842e-18)
(9.17729 -3.59858 -1.1039e-18)
(8.9985 -3.94194 4.45658e-20)
(8.80632 -4.27659 1.13106e-18)
(8.6012 -4.60199 -5.62282e-18)
(8.38363 -4.91765 -1.1792e-18)
(8.15409 -5.2231 2.2468e-18)
(7.9131 -5.51792 2.24382e-18)
(7.66113 -5.80172 1.14002e-18)
(7.39877 -6.07415 -2.19825e-18)
(7.1261 -6.33498 1.04098e-18)
(6.84407 -6.58384 0)
(10.0701 -0.149259 1.32577e-19)
(10.0323 -0.540858 -2.715e-19)
(9.97718 -0.929284 7.8402e-19)
(9.90503 -1.31384 -5.55452e-19)
(9.81628 -1.69388 -5.29597e-19)
(9.71129 -2.06869 5.52941e-19)
(9.59043 -2.43754 0)
(9.4541 -2.79974 0)
(9.30273 -3.15462 2.09951e-18)
(9.13676 -3.50154 3.13209e-18)
(8.95667 -3.83989 -9.90593e-19)
(8.76295 -4.16907 3.09714e-18)
(8.55611 -4.48851 -9.86426e-19)
(8.33671 -4.79769 -3.01666e-18)
(8.10529 -5.09609 1.36018e-20)
(7.86242 -5.38327 1.93635e-18)
(7.60862 -5.65876 -8.73984e-19)
(7.3445 -5.92219 -1.90503e-18)
(7.0704 -6.17315 -1.02904e-18)
(6.78704 -6.41116 1.87227e-18)
(9.90362 -0.112563 0)
(9.87262 -0.494918 2.28883e-19)
(9.82436 -0.874928 2.27942e-19)
(9.759 -1.2517 -9.36477e-19)
(9.67689 -1.62442 0)
(9.57836 -1.99232 0)
(9.46377 -2.35465 0)
(9.33351 -2.71064 0)
(9.18797 -3.05958 -9.91013e-19)
(9.02762 -3.40079 -9.87252e-19)
(8.85292 -3.7336 0)
(8.66438 -4.05736 1.86654e-18)
(8.46253 -4.37148 -4.61486e-18)
(8.24792 -4.67536 3.71079e-18)
(8.02112 -4.96846 -3.5967e-18)
(7.78272 -5.25026 -8.72744e-19)
(7.53329 -5.52027 1.56423e-19)
(7.27345 -5.77802 1.54829e-19)
(7.00371 -6.02304 -1.7775e-18)
(6.72481 -6.25486 -7.08826e-20)
(9.65034 -0.0990877 0)
(9.62675 -0.469206 -2.2573e-19)
(9.58632 -0.837636 0)
(9.52912 -1.20347 4.51584e-19)
(9.45539 -1.56588 4.30471e-19)
(9.36541 -1.92407 3.9354e-19)
(9.2595 -2.27725 0)
(9.13799 -2.62467 0)
(9.00126 -2.96558 0)
(8.84972 -3.29927 0)
(8.68381 -3.62504 8.12957e-19)
(8.50402 -3.94222 8.75883e-19)
(8.31086 -4.25017 8.70895e-19)
(8.10485 -4.54827 -8.84208e-19)
(7.88657 -4.83594 -1.52166e-18)
(7.6566 -5.1126 1.7274e-18)
(7.41551 -5.37773 3.34907e-18)
(7.16394 -5.63081 1.62898e-18)
(6.90245 -5.87132 0)
(6.63176 -6.09878 -1.53525e-18)
(9.34321 -0.0902836 4.63931e-20)
(9.32658 -0.446225 0)
(9.29374 -0.801048 -7.6027e-19)
(9.24469 -1.1539 1.83321e-23)
(9.1796 -1.50396 1.61674e-20)
(9.09868 -1.85043 -6.85077e-20)
(9.00221 -2.19254 0)
(8.89047 -2.52954 3.09216e-20)
(8.76379 -2.86068 -7.71811e-19)
(8.62254 -3.18524 1.50374e-18)
(8.46711 -3.50252 -1.56804e-18)
(8.29796 -3.81183 8.56672e-19)
(8.11555 -4.11253 -4.49029e-18)
(7.92038 -4.40398 2.96162e-18)
(7.713 -4.68556 1.56996e-18)
(7.49394 -4.95668 0)
(7.26379 -5.21677 -2.8978e-18)
(7.02316 -5.46529 -6.15171e-20)
(6.77262 -5.7017 -2.85376e-18)
(6.51283 -5.92548 2.96616e-18)
(9.01079 -0.0854649 4.1721e-20)
(8.9998 -0.426407 -8.74017e-20)
(8.97333 -0.766699 7.16618e-19)
(8.93136 -1.10554 -1.4068e-20)
(8.87397 -1.44214 7.16471e-19)
(8.80137 -1.77574 -1.08216e-18)
(8.71376 -2.10558 0)
(8.61138 -2.43093 7.29521e-19)
(8.49452 -2.75106 6.67943e-19)
(8.3635 -3.06527 -7.25437e-19)
(8.21868 -3.37287 1.32722e-18)
(8.06045 -3.67318 2.81382e-18)
(7.88924 -3.96554 -1.30856e-18)
(7.70553 -4.24934 -1.41845e-18)
(7.5098 -4.52394 1.36026e-18)
(7.30257 -4.78874 0)
(7.08441 -5.04316 6.49176e-20)
(6.85587 -5.28664 9.80018e-21)
(6.61753 -5.51861 2.70373e-18)
(6.37 -5.73854 1.25696e-18)
(8.67432 -0.0842724 0)
(8.66738 -0.410262 6.25514e-21)
(8.64574 -0.735945 -1.45814e-19)
(8.60934 -1.06058 -6.47587e-19)
(8.55826 -1.38341 6.0871e-19)
(8.49264 -1.70371 0)
(8.41265 -2.02076 1.23895e-18)
(8.3185 -2.33387 -1.36138e-21)
(8.21043 -2.64233 -1.89225e-18)
(8.08872 -2.94547 0)
(7.95369 -3.24262 -1.3061e-18)
(7.80571 -3.53313 4.599e-20)
(7.64515 -3.81636 -3.6714e-18)
(7.47245 -4.09169 6.46878e-21)
(7.28807 -4.35852 1.23053e-18)
(7.0925 -4.61624 0)
(6.88626 -4.86428 -1.20778e-18)
(6.66988 -5.10205 8.69288e-21)
(6.44392 -5.32899 1.1991e-18)
(6.20894 -5.54454 -1.23695e-18)
(8.34764 -0.0853409 0)
(8.34332 -0.396958 1.49504e-19)
(8.32505 -0.708502 3.1019e-19)
(8.29278 -1.01927 -5.74145e-19)
(8.24655 -1.32857 -2.47177e-20)
(8.18648 -1.63571 -2.86941e-19)
(8.11271 -1.94 -1.14866e-18)
(8.02543 -2.2408 5.71066e-19)
(7.92484 -2.53743 2.3809e-20)
(7.8112 -2.82925 5.67649e-19)
(7.68478 -3.11563 5.22552e-19)
(7.54592 -3.39595 2.26307e-18)
(7.39496 -3.6696 1.13199e-18)
(7.23232 -3.93598 2.23582e-18)
(7.05841 -4.19451 -1.11498e-18)
(6.8737 -4.4446 3.86584e-20)
(6.67869 -4.68569 -1.10182e-18)
(6.47388 -4.91718 0)
(6.25981 -5.13854 1.04149e-18)
(6.037 -5.34916 0)
(8.03865 -0.0875461 6.50889e-20)
(8.03579 -0.385662 -1.90625e-19)
(8.0197 -0.683846 5.22855e-19)
(7.99031 -0.981444 -2.60842e-19)
(7.94767 -1.2778 1.89779e-20)
(7.89186 -1.57226 -2.60687e-19)
(7.82302 -1.86419 5.41962e-19)
(7.74131 -2.15298 -5.18679e-19)
(7.6469 -2.43798 5.18676e-19)
(7.54002 -2.71861 9.94778e-19)
(7.42095 -2.99425 -1.07196e-18)
(7.28996 -3.26434 -4.50899e-20)
(7.1474 -3.52829 -3.10283e-18)
(6.99363 -3.78553 5.37388e-21)
(6.82907 -4.03552 4.02652e-20)
(6.65416 -4.27769 2.01149e-18)
(6.46937 -4.51149 -9.9361e-19)
(6.27519 -4.73635 -9.46417e-19)
(6.07215 -4.95172 -3.7442e-20)
(5.86072 -5.15699 0)
(7.75096 -0.0901436 0)
(7.74871 -0.37575 2.42142e-19)
(7.73389 -0.661498 -8.32571e-19)
(7.70642 -0.946774 -2.20882e-19)
(7.66635 -1.23096 4.94004e-19)
(7.61375 -1.51345 0)
(7.54874 -1.79364 0)
(7.47146 -2.07094 4.72186e-19)
(7.38208 -2.34478 -4.72183e-19)
(7.28081 -2.61458 3.97747e-19)
(7.16789 -2.87978 -4.6914e-19)
(7.04359 -3.13984 9.30342e-19)
(6.90823 -3.39422 -1.85608e-18)
(6.76217 -3.6424 1.84648e-18)
(6.60579 -3.88384 3.46566e-20)
(6.43951 -4.11803 -9.49688e-19)
(6.26383 -4.34444 -9.03694e-19)
(6.0792 -4.56253 1.84089e-18)
(5.88618 -4.77172 8.61765e-19)
(5.6852 -4.9714 0)
(7.48535 -0.0926599 1.87705e-21)
(7.48315 -0.366756 1.58978e-19)
(7.46896 -0.641021 3.33784e-19)
(7.44271 -0.914876 2.33636e-19)
(7.40445 -1.18774 2.16724e-19)
(7.35424 -1.45904 2.016e-19)
(7.2922 -1.72821 0)
(7.21845 -1.9947 -8.33126e-19)
(7.13315 -2.25796 -4.29481e-19)
(7.03649 -2.51745 3.66378e-19)
(6.92871 -2.77267 0)
(6.81006 -3.02308 8.4827e-19)
(6.68084 -3.26821 -2.50879e-18)
(6.54139 -3.50756 8.43927e-19)
(6.39209 -3.74065 0)
(6.23336 -3.967 -8.02404e-19)
(6.06568 -4.18611 -1.62065e-18)
(5.88953 -4.39746 7.97468e-19)
(5.70548 -4.60048 -2.91972e-20)
(5.51397 -4.79454 0)
(7.24097 -0.0947966 3.46317e-21)
(7.23845 -0.358334 -1.02887e-19)
(7.22446 -0.622033 1.98549e-19)
(7.19896 -0.885349 -1.31164e-20)
(7.16197 -1.14773 3.96747e-19)
(7.11356 -1.40864 -6.09333e-19)
(7.05383 -1.66755 0)
(6.98291 -1.92392 5.60089e-20)
(6.90095 -2.17726 0)
(6.80813 -2.42704 -8.13383e-19)
(6.70466 -2.6728 0)
(6.59079 -2.91406 -7.50637e-19)
(6.46681 -3.15036 2.32003e-18)
(6.33304 -3.38125 -1.53736e-18)
(6.18985 -3.6063 7.66468e-19)
(6.03767 -3.82508 -6.78135e-19)
(5.87699 -4.03711 7.83319e-19)
(5.7083 -4.24195 -7.77961e-19)
(5.53225 -4.43897 0)
(5.34927 -4.62756 0)
(7.016 -0.096432 4.70786e-20)
(7.01299 -0.35026 0)
(6.99896 -0.604231 0)
(6.97388 -0.857826 -3.77201e-19)
(6.9378 -1.11052 -3.52042e-19)
(6.89078 -1.36181 0)
(6.83291 -1.61118 0)
(6.76431 -1.85814 4.98322e-20)
(6.68513 -2.1022 6.97152e-19)
(6.59553 -2.3429 -3.36205e-19)
(6.49573 -2.57977 -3.58204e-19)
(6.38596 -2.81239 1.447e-18)
(6.26648 -3.04033 -2.14867e-18)
(6.13761 -3.2632 1.38556e-18)
(5.99972 -3.48058 0)
(5.85322 -3.69215 2.78362e-18)
(5.69865 -3.89744 -2.02103e-18)
(5.53651 -4.09611 6.87554e-19)
(5.36758 -4.28745 1.31491e-18)
(5.19226 -4.47092 0)
(6.80837 -0.0975013 -4.04746e-20)
(6.80474 -0.342372 0)
(6.79053 -0.587365 -5.21944e-21)
(6.7657 -0.831979 -3.23908e-19)
(6.7303 -1.07572 1.00369e-18)
(6.68438 -1.31808 -1.66961e-19)
(6.62806 -1.55861 0)
(6.56142 -1.79681 1.33001e-18)
(6.48462 -2.03224 -6.84943e-19)
(6.39781 -2.26444 4.44653e-20)
(6.30119 -2.493 6.34771e-19)
(6.19498 -2.71751 6.50648e-19)
(6.07943 -2.93759 -1.2975e-18)
(5.95484 -3.15288 -1.2691e-18)
(5.82158 -3.36303 -1.2396e-18)
(5.68004 -3.56779 -1.31911e-18)
(5.5308 -3.76671 1.31012e-18)
(5.37436 -3.95966 -6.25425e-19)
(5.21177 -4.14576 -6.66461e-19)
(5.04331 -4.32468 0)
(6.61582 -0.0979841 3.97652e-20)
(6.61156 -0.334566 -1.49307e-19)
(6.5971 -0.571239 -1.54566e-19)
(6.57243 -0.807524 4.62815e-19)
(6.53757 -1.04294 -1.64361e-19)
(6.49261 -1.27703 -1.53632e-19)
(6.43762 -1.50933 0)
(6.37271 -1.73938 -6.31492e-19)
(6.29802 -1.96676 0)
(6.21369 -2.19105 6.26607e-19)
(6.11991 -2.41184 -1.20747e-18)
(6.01688 -2.62877 5.97721e-19)
(5.90484 -2.84147 -1.19177e-18)
(5.78406 -3.04965 1.22983e-18)
(5.6549 -3.25299 6.6939e-19)
(5.51772 -3.45137 0)
(5.37314 -3.64432 -5.77775e-19)
(5.22165 -3.83208 5.77775e-19)
(5.06469 -4.01341 0)
(4.90224 -4.18868 0)
(6.43624 -0.0979679 0)
(6.43137 -0.326818 1.46693e-19)
(6.41667 -0.555729 4.7205e-21)
(6.39213 -0.78424 -1.51256e-19)
(6.35778 -1.0119 -1.33378e-19)
(6.31369 -1.23825 -1.41604e-19)
(6.25994 -1.46286 5.47301e-19)
(6.19663 -1.68531 0)
(6.1239 -1.90517 0)
(6.04187 -2.12205 2.7814e-19)
(5.95073 -2.33557 2.95467e-19)
(5.85065 -2.54539 1.06936e-18)
(5.74185 -2.75117 -5.46393e-19)
(5.62458 -2.95268 5.46392e-19)
(5.49915 -3.14962 5.80042e-19)
(5.36589 -3.34202 3.39232e-20)
(5.22546 -3.5294 -1.0653e-18)
(5.07823 -3.71254 3.77761e-21)
(4.92634 -3.88954 5.2688e-19)
(4.76894 -4.0624 0)
(6.26773 -0.0974557 -3.27872e-20)
(6.26232 -0.319098 3.27868e-20)
(6.24743 -0.540774 0)
(6.22304 -0.762036 1.23494e-19)
(6.18921 -0.982447 4.01149e-19)
(6.14598 -1.20158 -5.07003e-19)
(6.09345 -1.41902 -5.37741e-19)
(6.03172 -1.63435 0)
(5.96089 -1.84719 0)
(5.88111 -2.05715 0)
(5.79252 -2.26388 -9.92698e-19)
(5.69531 -2.46705 -6.4089e-20)
(5.58965 -2.66636 -5.03335e-19)
(5.47574 -2.8616 3.0168e-20)
(5.35387 -3.05253 -9.95398e-19)
(5.22426 -3.23931 1.51699e-18)
(5.08762 -3.42149 -1.43738e-18)
(4.94401 -3.60065 4.87934e-19)
(4.79669 -3.77382 9.35395e-19)
(4.64296 -3.94589 0)
(6.10858 -0.0960975 2.94558e-20)
(6.10273 -0.311205 0)
(6.08773 -0.526334 -1.21271e-19)
(6.06356 -0.741047 -2.49887e-19)
(6.03028 -0.954927 1.21119e-19)
(5.98794 -1.16756 9.67182e-19)
(5.93662 -1.37856 0)
(5.87642 -1.58752 -4.65814e-19)
(5.80744 -1.79408 -2.38249e-19)
(5.7298 -1.99787 -4.4758e-19)
(5.64366 -2.19857 -1.79078e-19)
(5.54915 -2.39585 -1.41307e-18)
(5.44644 -2.58945 -9.3271e-19)
(5.33566 -2.77917 9.59461e-19)
(5.21706 -2.96481 9.18388e-19)
(5.09065 -3.14661 -3.88165e-21)
(4.95725 -3.32422 2.99192e-20)
(4.81609 -3.50023 4.49585e-19)
(4.67229 -3.67083 -9.19119e-19)
(4.5191 -3.84591 0)
(5.95717 -0.0944254 -6.15979e-20)
(5.95103 -0.303276 3.03236e-20)
(5.93606 -0.512213 -1.21148e-19)
(5.91228 -0.720849 1.21092e-19)
(5.87968 -0.928789 -3.48276e-19)
(5.83834 -1.13564 -1.08448e-18)
(5.7883 -1.34103 0)
(5.72964 -1.54458 4.9287e-19)
(5.66245 -1.74593 -4.60846e-19)
(5.58684 -1.94475 9.75871e-19)
(5.50291 -2.14071 9.70073e-19)
(5.41078 -2.3335 1.42921e-18)
(5.31057 -2.52287 -9.27393e-19)
(5.20233 -2.7086 4.61938e-19)
(5.08629 -2.89053 -4.54287e-19)
(4.96209 -3.06885 4.5431e-19)
(4.83083 -3.2433 0)
(4.68982 -3.4171 4.11315e-19)
(4.54807 -3.58608 -4.02503e-19)
(4.39047 -3.7724 0)
(7.13956 7.26154 0)
(7.41951 6.97176 0)
(7.68656 6.6724 1.08671e-18)
(7.94142 6.36396 2.02321e-20)
(8.1835 6.04615 -1.14975e-18)
(8.41217 5.71906 0)
(8.62699 5.38306 1.18647e-18)
(8.82763 5.0387 -2.23846e-18)
(9.0138 4.68656 -1.13125e-18)
(9.18518 4.32724 -1.14182e-18)
(9.34152 3.96137 1.14182e-18)
(9.48259 3.58961 -1.1539e-18)
(9.60819 3.21265 5.75591e-19)
(9.71814 2.83119 5.49362e-19)
(9.81227 2.44589 5.51508e-19)
(9.89053 2.05742 -5.85308e-19)
(9.95289 1.66644 5.85308e-19)
(9.99942 1.27365 -2.93831e-19)
(10.0301 0.87945 -1.39569e-19)
(10.0454 0.485195 7.35142e-20)
(7.41575 7.06913 0)
(7.69588 6.77975 -9.95753e-19)
(7.96222 6.47881 -2.12887e-18)
(8.21507 6.16697 3.14816e-18)
(8.45418 5.84457 -2.18315e-18)
(8.67904 5.51206 2.19387e-18)
(8.88918 5.17003 1.19274e-18)
(9.08418 4.81916 -3.38457e-18)
(9.26365 4.46013 1.10723e-18)
(9.42723 4.09367 2.20108e-18)
(9.57461 3.72049 1.08442e-18)
(9.70555 3.34135 1.09129e-18)
(9.81987 2.95705 -1.1516e-18)
(9.91736 2.56832 1.69573e-18)
(9.99774 2.17594 -2.35268e-18)
(10.0609 1.78078 5.80713e-19)
(10.1069 1.38366 -5.58017e-19)
(10.1358 0.985381 0)
(10.1475 0.586485 1.51527e-20)
(10.1423 0.187948 0)
(7.27243 6.94409 -1.75332e-18)
(7.55536 6.67211 9.84361e-19)
(7.82575 6.38727 1.80057e-18)
(8.08315 6.09025 8.15104e-19)
(8.32713 5.78161 2.04149e-18)
(8.55718 5.46197 2.00123e-20)
(8.77275 5.132 -1.02326e-18)
(8.97337 4.79239 -3.04951e-18)
(9.15858 4.44386 3.01066e-18)
(9.32794 4.08713 -3.0905e-18)
(9.48107 3.72295 -1.02961e-18)
(9.61768 3.35208 -2.05995e-18)
(9.73743 2.97534 0)
(9.84011 2.5935 0)
(9.9256 2.20745 0)
(9.99372 1.81811 -5.25072e-19)
(10.0443 1.42631 5.49931e-19)
(10.0773 1.03292 5.26766e-19)
(10.0927 0.63863 6.26806e-21)
(10.0904 0.244425 1.32301e-19)
(7.04502 6.69197 1.82096e-18)
(7.32467 6.43864 -1.65361e-18)
(7.59298 6.1722 -1.69551e-19)
(7.84923 5.89318 -1.7051e-19)
(8.09284 5.60215 4.2988e-18)
(8.32328 5.29973 -7.12383e-20)
(8.53998 4.98654 3.76438e-21)
(8.74242 4.66323 -2.71846e-18)
(8.9301 4.33049 1.79362e-18)
(9.10255 3.989 0)
(9.25927 3.63955 9.62019e-19)
(9.39992 3.28296 9.68674e-19)
(9.52423 2.92002 0)
(9.63187 2.55156 0)
(9.72264 2.1784 0)
(9.79632 1.80136 0)
(9.85274 1.42126 -2.17021e-20)
(9.89176 1.03895 4.74296e-19)
(9.91328 0.655261 -2.27758e-19)
(9.91729 0.271137 0)
(6.7823 6.37724 1.54221e-18)
(7.05409 6.14177 0)
(7.31566 5.89336 -4.54066e-18)
(7.56619 5.63245 -1.54769e-18)
(7.80505 5.35954 -1.62641e-18)
(8.03166 5.07519 -1.7241e-18)
(8.24546 4.77999 8.14573e-19)
(8.44589 4.47453 -8.56056e-19)
(8.63242 4.15946 2.377e-18)
(8.80461 3.83544 -7.78168e-19)
(8.96201 3.50326 0)
(9.10415 3.16364 0)
(9.23064 2.81729 0)
(9.34119 2.46499 0)
(9.43555 2.10755 -1.22887e-18)
(9.51347 1.74577 4.22553e-19)
(9.57471 1.38047 -4.46362e-19)
(9.61914 1.01247 0)
(9.64661 0.642619 2.24621e-19)
(9.65705 0.271809 0)
(6.50734 6.05007 1.31929e-18)
(6.7689 5.83074 -4.79823e-20)
(7.02117 5.59889 2.77506e-18)
(7.26335 5.35485 1.3864e-18)
(7.49478 5.0991 0)
(7.71489 4.83212 -1.47224e-18)
(7.92311 4.55447 6.8482e-20)
(8.11889 4.26668 -1.49459e-18)
(8.3017 3.96936 2.06763e-18)
(8.47108 3.66315 3.27294e-20)
(8.62659 3.34868 2.81072e-20)
(8.76777 3.0266 -7.45802e-19)
(8.89422 2.69762 1.46267e-18)
(9.00563 2.3625 0)
(9.10172 2.02196 6.85434e-20)
(9.18219 1.67682 7.46758e-19)
(9.24677 1.32786 1.63676e-21)
(9.29529 0.975852 -1.53405e-20)
(9.32762 0.6216 0)
(9.34361 0.265938 -4.62966e-20)
(6.24145 5.73309 0)
(6.49167 5.52774 -4.89071e-20)
(6.73336 5.31039 1.75563e-20)
(6.96575 5.08133 -2.5085e-18)
(7.1882 4.84097 0)
(7.40013 4.58977 1.26869e-18)
(7.60102 4.3282 1.35136e-18)
(7.79031 4.05678 -3.93162e-18)
(7.96753 3.77604 -6.82534e-20)
(8.13219 3.48657 -1.26243e-18)
(8.28385 3.18895 6.95123e-19)
(8.42209 2.88379 -6.42099e-19)
(8.54652 2.57179 -7.05882e-19)
(8.65676 2.25362 0)
(8.75257 1.93001 3.7241e-19)
(8.83374 1.60155 -1.69019e-20)
(8.89988 1.26912 -3.4571e-19)
(8.95077 0.933435 -1.67639e-20)
(8.98631 0.595257 -8.70246e-20)
(9.00633 0.255353 1.74422e-19)
(5.99584 5.43789 0)
(6.23448 5.24438 1.08467e-18)
(6.46517 5.03945 1.61665e-20)
(6.6872 4.82335 -1.10081e-18)
(6.89996 4.59643 0)
(7.10289 4.3591 1.14522e-18)
(7.29548 4.11181 -1.0934e-18)
(7.47723 3.85503 -1.21044e-18)
(7.64767 3.58924 2.30239e-18)
(7.80634 3.31498 1.24236e-18)
(7.95282 3.0328 0)
(8.08671 2.74331 6.05958e-19)
(8.20763 2.4471 -4.38611e-21)
(8.31526 2.14483 2.18586e-20)
(8.40918 1.83717 0)
(8.48927 1.52475 -5.96449e-19)
(8.55535 1.20817 -3.12483e-19)
(8.60702 0.888256 4.56554e-19)
(8.64416 0.565731 3.07825e-19)
(8.6666 0.241302 -4.11463e-20)
(5.77418 5.16939 0)
(6.00156 4.98587 -9.36786e-19)
(6.22145 4.79149 0)
(6.43317 4.58649 -1.01071e-18)
(6.63615 4.37118 1.98986e-18)
(6.82988 4.14592 -2.02932e-18)
(7.01385 3.91113 3.17551e-18)
(7.18762 3.66723 -3.16635e-18)
(7.35073 3.41469 -2.13929e-18)
(7.50275 3.154 -1.57784e-18)
(7.64329 2.8857 5.41073e-19)
(7.77198 2.61033 -1.12175e-18)
(7.88845 2.32846 1.86417e-20)
(7.99238 2.04071 1.11508e-18)
(8.08349 1.74765 -2.80527e-19)
(8.16139 1.45002 1.14919e-18)
(8.226 1.14829 -5.6521e-19)
(8.27715 0.843179 2.60406e-19)
(8.31457 0.53542 -1.48514e-19)
(8.33807 0.225678 0)
(5.5762 4.928 0)
(5.79297 4.75293 1.81228e-18)
(6.00259 4.56757 8.79067e-19)
(6.20443 4.37211 -9.04885e-19)
(6.39796 4.16683 -1.85365e-18)
(6.58267 3.95206 2.82068e-18)
(6.75814 3.72818 1.12809e-20)
(6.92392 3.49558 -9.1939e-19)
(7.0796 3.25472 1.97383e-18)
(7.22479 3.00605 1.01943e-18)
(7.3591 2.75008 -9.5239e-19)
(7.4822 2.48733 5.00099e-19)
(7.59373 2.21834 2.25277e-20)
(7.6934 1.94367 -5.26232e-19)
(7.78093 1.6639 -2.54999e-19)
(7.85602 1.37961 5.11307e-19)
(7.91845 1.09149 -2.56308e-19)
(7.96811 0.800051 -5.17222e-19)
(8.00481 0.505961 5.99334e-20)
(8.02833 0.209872 6.48094e-20)
(5.39969 4.71165 0)