/*--------------------------------*- C++ -*----------------------------------*\
| =========                 |                                                 |
| \\      /  F ield         | OpenFOAM: The Open Source CFD Toolbox           |
|  \\    /   O peration     | Version:  v1912                                 |
|   \\  /    A nd           | Website:  www.openfoam.com                      |
|    \\/     M anipulation  |                                                 |
\*---------------------------------------------------------------------------*/
FoamFile
{
    version     2.0;
    format      ascii;
    class       volVectorField;
    location    "5";
    object      U;
}
// * * * * * * * * * * * * * * * * * * * * * * * * * * * * * * * * * * * * * //

dimensions      [0 1 -1 0 0 0 0];


internalField   nonuniform List<vector> 
19200
(
(0.00651128 -0.475874 -2.84944e-22)
(0.00476795 -0.432134 0)
(0.00280953 -0.392259 0)
(0.000602842 -0.355971 0)
(-0.00172093 -0.322982 0)
(-0.00403158 -0.293019 0)
(-0.00624343 -0.265821 -8.9781e-23)
(-0.00829671 -0.241143 8.84328e-23)
(-0.0101499 -0.218758 0)
(-0.0117763 -0.198457 0)
(-0.0131614 -0.180046 -1.65299e-22)
(-0.0142994 -0.163348 8.6082e-25)
(-0.015192 -0.148201 1.59481e-22)
(-0.015846 -0.134458 0)
(-0.0162724 -0.121983 1.5228e-22)
(-0.0164853 -0.110656 -7.86045e-25)
(-0.016501 -0.100366 -1.46986e-22)
(-0.0163375 -0.0910133 0)
(-0.0160139 -0.0825068 0)
(-0.0155496 -0.0747658 0)
(-0.0149645 -0.0677169 0)
(-0.0142785 -0.0612946 0)
(-0.0135108 -0.0554401 1.29823e-22)
(-0.0126802 -0.0501008 -1.27979e-22)
(-0.0118047 -0.0452302 0)
(-0.0109021 -0.0407868 0)
(-0.00998953 -0.0367343 -2.40651e-22)
(-0.00907286 -0.0330408 2.3735e-22)
(-0.00813978 -0.0296771 0)
(-0.00727255 -0.0266139 0)
(0.0190046 -0.4751 -3.85691e-22)
(0.0161328 -0.430876 2.04768e-22)
(0.0131805 -0.390672 0)
(0.0101132 -0.354185 0)
(0.0070545 -0.321106 0)
(0.00412399 -0.291141 0)
(0.00139688 -0.26401 -7.2971e-22)
(-0.00107677 -0.239455 3.57751e-22)
(-0.00326433 -0.217236 -3.02011e-24)
(-0.00514738 -0.197131 -1.93456e-24)
(-0.00671862 -0.178939 -6.69915e-22)
(-0.00797926 -0.162473 6.56086e-22)
(-0.00893696 -0.147566 -3.22177e-22)
(-0.00960423 -0.134065 0)
(-0.00999724 -0.121829 0)
(-0.0101348 -0.110734 0)
(-0.0100375 -0.100665 0)
(-0.00972724 -0.0915191 0)
(-0.00922674 -0.0832041 0)
(-0.00855895 -0.0756362 0)
(-0.00774686 -0.0687408 -2.73984e-22)
(-0.00681321 -0.0624508 0)
(-0.00578017 -0.0567065 -5.2324e-22)
(-0.0046691 -0.051455 5.15808e-22)
(-0.00350042 -0.0466493 -5.03427e-22)
(-0.00229444 -0.0422483 4.96396e-22)
(-0.0010711 -0.0382162 0)
(0.000161964 -0.0345221 4.75661e-22)
(0.00141961 -0.0311363 -4.69194e-22)
(0.0026134 -0.0280336 5.0577e-22)
(0.0314131 -0.474051 -7.85117e-22)
(0.027399 -0.42938 -4.10233e-22)
(0.0234644 -0.388897 3.52608e-24)
(0.0195521 -0.352263 3.95207e-22)
(0.0157775 -0.319146 0)
(0.0122509 -0.289226 -7.51052e-22)
(0.00903727 -0.262208 3.71201e-22)
(0.00617636 -0.237818 7.24119e-22)
(0.00369142 -0.215801 -3.59699e-22)
(0.00159219 -0.195927 -6.8978e-22)
(-0.000121981 -0.177985 6.79323e-22)
(-0.0014595 -0.161781 0)
(-0.00243458 -0.14714 -6.47409e-22)
(-0.00306568 -0.133905 6.37632e-22)
(-0.00337437 -0.12193 -6.25794e-22)
(-0.00338436 -0.111086 0)
(-0.0031208 -0.101257 0)
(-0.00260975 -0.0923345 0)
(-0.00187767 -0.0842252 0)
(-0.000951109 -0.076843 1.11986e-21)
(0.000143606 -0.0701116 -8.2959e-22)
(0.00138062 -0.0639627 1.07579e-21)
(0.0027348 -0.0583355 -1.06039e-21)
(0.00418202 -0.0531763 -1.03429e-21)
(0.0056992 -0.0484381 2.03421e-21)
(0.00726331 -0.0440798 -1.99563e-21)
(0.00885189 -0.0400663 9.8153e-22)
(0.0104576 -0.0363668 0)
(0.0120982 -0.0329509 4.7307e-22)
(0.0136622 -0.029798 0)
(0.0437693 -0.472716 -1.58224e-21)
(0.0385918 -0.42766 8.42043e-22)
(0.0336726 -0.386952 -8.12936e-22)
(0.0289253 -0.350227 6.31896e-24)
(0.0244534 -0.317122 7.83386e-22)
(0.0203561 -0.287298 0)
(0.0166863 -0.260437 0)
(0.013473 -0.236252 0)
(0.0107294 -0.214477 2.14404e-21)
(0.00845571 -0.194869 -4.37725e-24)
(0.00664298 -0.177208 -6.87348e-22)
(0.00527512 -0.161295 -1.33719e-21)
(0.004331 -0.146948 1.31695e-21)
(0.0037859 -0.134002 1.28121e-21)
(0.0036126 -0.122311 -6.36132e-22)
(0.00378225 -0.111739 0)
(0.004265 -0.102166 0)
(0.00503049 -0.0934843 0)
(0.00604826 -0.0855953 0)
(0.00728806 -0.0784116 0)
(0.00872006 -0.0718551 1.1069e-21)
(0.0103151 -0.065856 -1.09093e-21)
(0.0120449 -0.0603527 0)
(0.0138824 -0.0552906 -1.04253e-21)
(0.0158015 -0.0506222 2.05026e-21)
(0.0177763 -0.0463066 -2.01109e-21)
(0.0197813 -0.0423092 9.89072e-22)
(0.0218088 -0.0385996 9.65345e-22)
(0.0238798 -0.0351474 -2.37346e-21)
(0.025861 -0.0319363 -1.02777e-21)
(0.0560767 -0.471083 7.94097e-22)
(0.0497196 -0.425718 1.71011e-21)
(0.0438133 -0.38485 1.66921e-21)
(0.038241 -0.348092 8.06324e-22)
(0.0330914 -0.315055 1.58854e-21)
(0.0284499 -0.285375 1.10821e-23)
(0.0243563 -0.258718 1.53017e-21)
(0.0208274 -0.23478 2.23468e-21)
(0.0178652 -0.213284 7.38982e-22)
(0.0154604 -0.193977 1.42711e-21)
(0.0135946 -0.17663 1.3368e-23)
(0.0122439 -0.161037 1.36169e-21)
(0.0113798 -0.147009 1.22747e-23)
(0.010971 -0.134378 3.90612e-21)
(0.0109843 -0.122991 -3.8223e-21)
(0.0113857 -0.112712 2.50002e-21)
(0.0121404 -0.103415 0)
(0.0132135 -0.0949895 0)
(0.0145705 -0.0873355 1.17346e-21)
(0.0161772 -0.0803632 0)
(0.0180003 -0.0739926 1.12526e-21)
(0.020007 -0.0681523 1.09413e-21)
(0.0221657 -0.0627795 -1.07846e-21)
(0.0244462 -0.0578189 1.0585e-21)
(0.0268192 -0.0532222 0)
(0.0292554 -0.0489484 0)
(0.0317259 -0.0449632 9.98235e-22)
(0.0342225 -0.0412364 9.79225e-22)
(0.03677 -0.037736 9.50396e-22)
(0.0392126 -0.0344512 -2.0699e-21)
(0.0683312 -0.469153 -8.12893e-22)
(0.0607841 -0.423558 -1.7101e-21)
(0.0538925 -0.3826 -2.50658e-21)
(0.047508 -0.345871 -8.1149e-22)
(0.0417024 -0.312958 -1.58181e-21)
(0.0365456 -0.283473 1.73883e-23)
(0.0320625 -0.257067 -1.5249e-21)
(0.0282566 -0.233419 -1.49151e-21)
(0.0251182 -0.212241 -1.45893e-21)
(0.0226269 -0.193269 -2.8586e-21)
(0.0207551 -0.176268 2.79581e-23)
(0.0194701 -0.161023 2.76182e-21)
(0.0187358 -0.147341 -1.32299e-21)
(0.0185141 -0.135048 1.33476e-21)
(0.0187657 -0.123989 3.85419e-21)
(0.019451 -0.114021 -1.24854e-21)
(0.0205301 -0.105018 0)
(0.0219637 -0.0968662 1.21121e-21)
(0.023713 -0.0894621 2.36277e-21)
(0.0257398 -0.0827142 -3.45793e-21)
(0.0280068 -0.0765405 1.14293e-21)
(0.0304779 -0.0708682 3.32012e-21)
(0.0331177 -0.0656328 1.07657e-21)
(0.0358927 -0.0607779 -4.24308e-21)
(0.0387702 -0.0562545 3.13646e-21)
(0.0417172 -0.0520211 0)
(0.0447011 -0.0480433 8.057e-24)
(0.0477128 -0.0442905 1.96804e-21)
(0.0507819 -0.0407286 -5.6403e-24)
(0.0537275 -0.0373534 2.08921e-21)
(0.0805274 -0.466929 1.64048e-21)
(0.0717855 -0.421185 -1.76528e-21)
(0.0639155 -0.380209 0)
(0.0567352 -0.343575 -1.68348e-21)
(0.0502988 -0.310844 -1.62486e-21)
(0.0446585 -0.281609 -1.59445e-21)
(0.0398229 -0.2555 1.5646e-21)
(0.0357812 -0.232184 0)
(0.0325107 -0.211362 -1.50042e-21)
(0.0299797 -0.19276 0)
(0.0281504 -0.176135 -2.84776e-21)
(0.0269809 -0.161267 -2.78419e-21)
(0.0264272 -0.147956 -1.35242e-21)
(0.0264441 -0.136026 -1.32263e-21)
(0.026986 -0.125315 1.29948e-21)
(0.0280075 -0.115679 -3.81958e-21)
(0.0294637 -0.106988 0)
(0.0313104 -0.0991255 -1.21121e-21)
(0.0335045 -0.091986 1.23957e-23)
(0.0360038 -0.0854756 -1.16021e-21)
(0.038767 -0.0795103 0)
(0.0417542 -0.0740152 1.11561e-21)
(0.0449266 -0.0689242 -3.28571e-21)
(0.0482465 -0.0641795 9.47614e-24)
(0.0516781 -0.0597309 1.04929e-21)
(0.0551842 -0.055536 -1.16413e-23)
(0.0587279 -0.0515604 -1.01761e-21)
(0.0622995 -0.0477722 -4.95001e-21)
(0.0659339 -0.0441346 9.81126e-22)
(0.069422 -0.0406511 0)
(0.0926592 -0.464414 -1.53094e-23)
(0.0827234 -0.418606 0)
(0.0738874 -0.377686 -1.73005e-21)
(0.0659325 -0.341214 5.1007e-21)
(0.0588943 -0.308726 -2.09169e-23)
(0.0528057 -0.279792 1.61355e-21)
(0.0476579 -0.254028 3.17189e-21)
(0.0434243 -0.231088 -1.21898e-23)
(0.0400685 -0.210659 -1.69197e-23)
(0.0375466 -0.192462 1.47132e-21)
(0.0358099 -0.176244 -2.89124e-21)
(0.0348072 -0.161779 4.23336e-21)
(0.0344861 -0.148865 -2.74672e-21)
(0.034794 -0.137319 2.70523e-21)
(0.0356787 -0.126977 -2.62422e-21)
(0.0370891 -0.117692 1.94067e-23)
(0.0389748 -0.10933 2.52722e-21)
(0.0412872 -0.101773 0)
(0.0439783 -0.0949127 1.20179e-21)
(0.047002 -0.0886529 -2.36436e-21)
(0.0503131 -0.0829072 2.29745e-21)
(0.0538676 -0.0775988 -1.52978e-23)
(0.0576228 -0.0726596 -2.21679e-21)
(0.0615374 -0.0680298 -1.07713e-21)
(0.0655715 -0.0636577 0)
(0.0696839 -0.0594999 1.04348e-21)
(0.0738329 -0.055521 0)
(0.078008 -0.0516877 0)
(0.0822497 -0.047959 0)
(0.0863177 -0.0443482 0)
(0.10472 -0.461611 -3.47274e-21)
(0.0935976 -0.415825 3.66027e-21)
(0.0838136 -0.375039 -3.5694e-21)
(0.0751104 -0.338797 -1.71196e-21)
(0.0675039 -0.306612 -6.66802e-24)
(0.0610065 -0.278034 2.06753e-23)
(0.0555902 -0.252663 -1.59543e-21)
(0.0512119 -0.23014 0)
(0.0478203 -0.210142 0)
(0.0453586 -0.192381 -3.51973e-23)
(0.0437669 -0.176599 -2.94042e-21)
(0.0429839 -0.162565 5.73036e-21)
(0.0429487 -0.15007 -2.26566e-23)
(0.0436009 -0.13893 -2.74125e-21)
(0.0448817 -0.128976 2.68492e-21)
(0.0467339 -0.12006 -2.59631e-21)
(0.0491019 -0.112044 5.09511e-21)
(0.0519321 -0.104808 -2.49989e-21)
(0.0551723 -0.098241 0)
(0.058772 -0.0922446 2.1755e-23)
(0.0626818 -0.0867301 1.70441e-23)
(0.0668539 -0.0816182 -3.24987e-24)
(0.0712417 -0.0768385 0)
(0.0757998 -0.072329 0)
(0.0804841 -0.0680358 0)
(0.0852489 -0.0639138 -1.04348e-21)
(0.0900476 -0.0599266 0)
(0.0948685 -0.0560383 4.01482e-21)
(0.0997579 -0.0522025 -1.66893e-23)
(0.104441 -0.0484442 -8.55682e-21)
(0.116705 -0.458524 5.20234e-21)
(0.104408 -0.412849 -1.82354e-21)
(0.0937006 -0.372273 -1.87725e-21)
(0.0842806 -0.336332 0)
(0.0761444 -0.304512 0)
(0.0692821 -0.276344 0)
(0.0636452 -0.251413 0)
(0.0591726 -0.229348 -6.39898e-21)
(0.0557978 -0.209816 3.1312e-21)
(0.0534502 -0.192524 3.02088e-21)
(0.052058 -0.177205 0)
(0.0515496 -0.163625 -2.88129e-21)
(0.0518549 -0.151572 -2.82165e-21)
(0.0529059 -0.140857 2.35848e-23)
(0.0546367 -0.13131 2.90488e-23)
(0.0569842 -0.122778 -2.62857e-21)
(0.0598874 -0.115124 2.58936e-21)
(0.0632877 -0.108223 -2.5092e-21)
(0.0671285 -0.101963 2.47222e-21)
(0.0713551 -0.0962426 -2.39379e-21)
(0.0759141 -0.0909708 -2.36607e-21)
(0.0807535 -0.0860655 6.87698e-21)
(0.0858227 -0.0814535 -6.78445e-21)
(0.0910723 -0.0770702 4.39366e-21)
(0.0964536 -0.0728591 -4.33177e-21)
(0.101916 -0.0687727 0)
(0.107408 -0.0647727 0)
(0.112916 -0.0608199 -2.03941e-21)
(0.118492 -0.0568611 0)
(0.123824 -0.0529343 -6.48606e-21)
(0.128608 -0.455156 -1.83011e-21)
(0.115157 -0.409683 -2.67803e-23)
(0.103556 -0.369396 1.7903e-21)
(0.0934559 -0.333827 -1.78127e-21)
(0.084834 -0.302433 -1.77048e-21)
(0.0776556 -0.274729 3.43989e-21)
(0.0718501 -0.250283 -4.48607e-23)
(0.0673379 -0.228716 -3.27396e-21)
(0.0640358 -0.209686 3.18321e-21)
(0.0618591 -0.19289 3.07846e-21)
(0.0607233 -0.178061 -6.07381e-21)
(0.0605463 -0.164957 2.96815e-21)
(0.0612485 -0.153365 -2.8962e-21)
(0.0627539 -0.143093 0)
(0.0649896 -0.133968 0)
(0.0678862 -0.125835 -5.35436e-21)
(0.0713776 -0.118556 2.65087e-21)
(0.0754002 -0.112004 -2.54389e-21)
(0.0798929 -0.106063 2.11737e-23)
(0.0847968 -0.100631 -3.77292e-24)
(0.0900546 -0.095613 4.75811e-21)
(0.0956103 -0.0909245 2.29536e-21)
(0.101409 -0.0864893 -2.30376e-21)
(0.107397 -0.0822392 0)
(0.113521 -0.0781144 4.34212e-21)
(0.119726 -0.0740645 -2.13834e-21)
(0.125953 -0.0700485 0)
(0.132188 -0.0660227 2.03941e-21)
(0.138489 -0.0619252 6.02154e-21)
(0.144502 -0.057809 -2.17796e-21)
(0.140422 -0.451512 1.72539e-21)
(0.125844 -0.406331 -2.8039e-23)
(0.113387 -0.366414 -2.07665e-23)
(0.102651 -0.331287 -1.83416e-21)
(0.0935928 -0.300382 3.5258e-21)
(0.0861521 -0.273193 -6.89416e-21)
(0.0802349 -0.249278 6.75913e-21)
(0.0757416 -0.228247 3.2874e-21)
(0.0725718 -0.20975 -3.09e-23)
(0.0706257 -0.193479 -3.00683e-23)
(0.0698061 -0.179161 -3.88293e-23)
(0.0700194 -0.166554 8.62606e-24)
(0.0711766 -0.155439 -2.93948e-21)
(0.0731932 -0.145624 2.69663e-23)
(0.0759895 -0.136934 2.6156e-23)
(0.0794898 -0.129214 5.41495e-21)
(0.0836225 -0.122321 -2.62798e-21)
(0.0883192 -0.116128 2.56593e-21)
(0.0935147 -0.110518 5.01965e-21)
(0.0991458 -0.105385 -2.49819e-21)
(0.105151 -0.100632 -2.39204e-21)
(0.111471 -0.0961709 2.33817e-21)
(0.118047 -0.0919218 0)
(0.124819 -0.0878129 -4.47806e-21)
(0.131731 -0.0837803 3.24844e-23)
(0.138722 -0.0797695 2.17816e-21)
(0.145725 -0.0757361 4.20293e-21)
(0.152726 -0.0716303 -4.14526e-21)
(0.159789 -0.0673797 2.02821e-21)
(0.166513 -0.0630539 3.80519e-23)
(0.152147 -0.447597 9.26785e-21)
(0.136472 -0.402797 2.0105e-21)
(0.123204 -0.363333 -1.87624e-21)
(0.111881 -0.32872 3.74146e-21)
(0.102442 -0.298363 7.27155e-21)
(0.0947988 -0.271741 1.56152e-23)
(0.0888314 -0.2484 0)
(0.0844199 -0.22794 0)
(0.0814458 -0.210006 0)
(0.0797935 -0.194284 3.22417e-21)
(0.0793524 -0.180498 0)
(0.0800173 -0.168402 0)
(0.0816893 -0.157778 2.98621e-21)
(0.0842756 -0.148432 -2.8747e-21)
(0.087689 -0.140187 5.63493e-21)
(0.0918479 -0.132888 -5.52897e-21)
(0.0966751 -0.126391 8.03411e-21)
(0.102098 -0.120566 -2.62336e-21)
(0.108046 -0.115296 2.56857e-21)
(0.114453 -0.110472 -4.9602e-21)
(0.121254 -0.105994 1.21793e-20)
(0.128385 -0.101771 -4.77415e-21)
(0.135783 -0.0977178 6.95979e-21)
(0.143385 -0.0937593 -2.31899e-21)
(0.151129 -0.0898263 -2.22728e-21)
(0.158947 -0.0858595 2.18312e-21)
(0.166768 -0.0818097 6.3771e-21)
(0.174573 -0.0776195 -4.1816e-21)
(0.182432 -0.0732033 2.04612e-21)
(0.189897 -0.0686494 -2.23819e-21)
(0.16378 -0.443411 8.13112e-23)
(0.147047 -0.399084 8.42857e-23)
(0.133016 -0.360162 3.93699e-21)
(0.121163 -0.326132 -3.77508e-21)
(0.111406 -0.296381 5.693e-23)
(0.103625 -0.270376 -3.57077e-21)
(0.0976738 -0.247649 -3.49501e-21)
(0.0934115 -0.227794 6.89904e-21)
(0.0907004 -0.210448 0)
(0.0894084 -0.195296 -3.22417e-21)
(0.089411 -0.182058 -3.15255e-21)
(0.0905912 -0.170486 3.10476e-21)
(0.0928398 -0.160363 -2.98622e-21)
(0.0960554 -0.151492 0)
(0.100143 -0.143699 -2.80786e-21)
(0.105016 -0.136826 8.3711e-21)
(0.110591 -0.13073 -2.69897e-21)
(0.116791 -0.12528 5.30934e-21)
(0.123541 -0.120356 -1.29091e-20)
(0.130772 -0.115849 1.00891e-20)
(0.138415 -0.111655 -1.2294e-20)
(0.146402 -0.107679 4.8292e-21)
(0.154667 -0.103834 -2.3347e-21)
(0.163142 -0.100036 -2.28603e-21)
(0.17176 -0.0962124 5.90523e-23)
(0.180447 -0.092297 6.59176e-21)
(0.189125 -0.0882349 -8.56788e-21)
(0.197771 -0.0839591 4.21868e-21)
(0.206461 -0.0793681 -2.04612e-21)
(0.214695 -0.0745704 2.28143e-21)
(0.175317 -0.438958 5.35737e-24)
(0.15757 -0.395203 -8.16619e-21)
(0.142832 -0.356905 -7.8919e-21)
(0.130518 -0.323524 -1.81093e-23)
(0.12051 -0.294439 -3.75321e-21)
(0.112661 -0.269097 3.69781e-21)
(0.106798 -0.247024 0)
(0.102757 -0.227802 -3.45653e-21)
(0.10038 -0.211069 0)
(0.0995186 -0.196503 0)
(0.100033 -0.183825 -3.2065e-21)
(0.101795 -0.172786 6.28111e-21)
(0.104683 -0.163168 -3.07594e-21)
(0.108589 -0.154776 5.92711e-21)
(0.11341 -0.147436 -1.44934e-20)
(0.119052 -0.14099 5.68788e-21)
(0.125428 -0.135295 0)
(0.132455 -0.130222 -8.01299e-21)
(0.140056 -0.125649 5.26594e-21)
(0.148157 -0.121464 0)
(0.156686 -0.117561 -2.50688e-21)
(0.165573 -0.113842 0)
(0.174746 -0.110214 2.33776e-21)
(0.184135 -0.10659 -9.27239e-21)
(0.193668 -0.102887 2.00332e-23)
(0.203264 -0.0990343 -4.41165e-21)
(0.212836 -0.094968 -4.29882e-21)
(0.22236 -0.0906098 4.25651e-21)
(0.231915 -0.0858389 -4.14376e-21)
(0.240943 -0.0807861 4.47698e-21)
(0.186752 -0.434243 0)
(0.16805 -0.39116 0)
(0.152665 -0.353562 4.03992e-21)
(0.139963 -0.320901 -6.56826e-23)
(0.129779 -0.292538 -3.83057e-21)
(0.121939 -0.267905 3.77403e-21)
(0.116242 -0.246519 -3.63184e-21)
(0.112499 -0.227959 7.16898e-21)
(0.110531 -0.211857 -3.49589e-21)
(0.110174 -0.19789 -3.35157e-21)
(0.111272 -0.185779 3.79275e-23)
(0.113683 -0.175276 6.38984e-21)
(0.117277 -0.166164 3.05666e-21)
(0.121936 -0.158248 -3.03812e-21)
(0.127549 -0.151357 -5.86383e-21)
(0.134016 -0.145334 5.77593e-21)
(0.141244 -0.140038 2.81785e-21)
(0.149148 -0.135338 0)
(0.157646 -0.131115 0)
(0.166661 -0.127254 2.60471e-21)
(0.176119 -0.123647 7.52553e-21)
(0.185945 -0.120193 -9.84148e-21)
(0.196067 -0.116794 2.43493e-21)
(0.206409 -0.113355 1.17288e-20)
(0.216894 -0.109789 -2.32161e-21)
(0.227436 -0.106012 0)
(0.237939 -0.101955 4.37405e-21)
(0.248374 -0.0975228 0)
(0.258827 -0.092573 4.17862e-21)
(0.268677 -0.0872594 -6.78075e-21)
(0.198084 -0.429272 -3.96059e-21)
(0.178491 -0.386956 8.63252e-21)
(0.162532 -0.350141 4.20172e-21)
(0.149519 -0.318267 0)
(0.139242 -0.290679 -3.97805e-21)
(0.131493 -0.266797 0)
(0.126044 -0.246131 -3.76573e-21)
(0.12268 -0.228255 1.35624e-23)
(0.121202 -0.212798 -5.49473e-23)
(0.121426 -0.19944 -3.46718e-21)
(0.123181 -0.187898 -3.3728e-21)
(0.126313 -0.177929 -3.28101e-21)
(0.13068 -0.169316 0)
(0.136154 -0.161869 3.06756e-21)
(0.142619 -0.155417 -7.17124e-23)
(0.149966 -0.149807 -5.86793e-21)
(0.1581 -0.144899 -8.46275e-21)
(0.166928 -0.140566 2.77624e-21)
(0.176368 -0.136686 5.35307e-21)
(0.186339 -0.133146 -1.30943e-20)
(0.196764 -0.129837 2.56711e-21)
(0.207567 -0.126653 0)
(0.218673 -0.123493 0)
(0.230002 -0.120254 2.35835e-21)
(0.241474 -0.11684 -6.97253e-21)
(0.252996 -0.11316 0)
(0.264464 -0.109129 -2.19724e-21)
(0.275845 -0.104639 0)
(0.287226 -0.0995188 0)
(0.297922 -0.0939465 9.23028e-21)
(0.209308 -0.424045 -8.286e-21)
(0.1889 -0.382598 -4.31967e-21)
(0.172446 -0.346646 -4.20174e-21)
(0.159208 -0.315625 0)
(0.148926 -0.288862 8.04348e-21)
(0.141358 -0.26577 -3.8867e-21)
(0.136245 -0.245852 3.81379e-21)
(0.133346 -0.228678 3.72393e-21)
(0.132441 -0.213878 3.63519e-21)
(0.133326 -0.20113 6.94561e-21)
(0.135815 -0.190156 -5.28647e-23)
(0.139741 -0.180713 4.23864e-23)
(0.14495 -0.172589 6.48041e-21)
(0.151305 -0.165595 -6.22454e-21)
(0.158681 -0.159566 6.13084e-21)
(0.166965 -0.154352 5.8904e-21)
(0.176054 -0.149816 -1.15338e-20)
(0.185853 -0.145833 1.12587e-20)
(0.196277 -0.142284 -5.42899e-21)
(0.207241 -0.139057 5.34948e-21)
(0.218669 -0.136042 3.07475e-23)
(0.230481 -0.133132 1.00889e-20)
(0.242602 -0.130218 -4.94351e-21)
(0.254949 -0.127194 7.17668e-21)
(0.267438 -0.123952 -2.37478e-21)
(0.279971 -0.12039 0)
(0.292434 -0.116413 0)
(0.304791 -0.111889 -6.47047e-21)
(0.31713 -0.106615 8.53886e-21)
(0.328698 -0.100796 2.28552e-21)
(0.220418 -0.418568 8.43226e-21)
(0.199282 -0.37809 0)
(0.182423 -0.343083 4.31797e-21)
(0.169055 -0.312974 -4.2561e-21)
(0.158863 -0.287086 9.08785e-23)
(0.151569 -0.264819 3.96995e-21)
(0.146885 -0.245672 -3.91076e-21)
(0.144542 -0.229215 0)
(0.144297 -0.215078 -3.63521e-21)
(0.145927 -0.202939 7.09165e-21)
(0.14923 -0.192525 -6.98413e-21)
(0.154025 -0.183595 3.35947e-21)
(0.160147 -0.175941 -1.31133e-20)
(0.167448 -0.16938 8.29942e-23)
(0.175796 -0.163751 1.23939e-20)
(0.185071 -0.158908 -6.06444e-21)
(0.195165 -0.154719 5.82168e-21)
(0.20598 -0.151064 -8.56277e-21)
(0.217426 -0.147826 -5.50846e-21)
(0.229418 -0.144896 5.42779e-21)
(0.241879 -0.142165 -7.82362e-21)
(0.254728 -0.139524 5.14164e-21)
(0.267887 -0.136862 0)
(0.281276 -0.134066 -2.41007e-21)
(0.294807 -0.131018 0)
(0.308375 -0.127604 0)
(0.321861 -0.123712 -8.95349e-21)
(0.33522 -0.119187 6.64453e-21)
(0.348546 -0.113789 8.56807e-21)
(0.36101 -0.107748 -1.86758e-20)
(0.231413 -0.412847 -4.30017e-21)
(0.209644 -0.373438 4.62734e-21)
(0.19248 -0.339451 4.4184e-21)
(0.179082 -0.310317 -4.35509e-21)
(0.169082 -0.285347 -4.15634e-21)
(0.162164 -0.263937 -4.05648e-21)
(0.158006 -0.245582 5.40646e-23)
(0.156313 -0.229852 7.71308e-21)
(0.156818 -0.216378 -3.77253e-21)
(0.15928 -0.204842 0)
(0.163479 -0.194974 0)
(0.16922 -0.186538 6.82677e-21)
(0.176326 -0.179331 -6.72341e-21)
(0.184641 -0.173175 0)
(0.194021 -0.167914 0)
(0.204342 -0.16341 0)
(0.21549 -0.159535 0)
(0.227362 -0.156175 0)
(0.239867 -0.153219 -5.59173e-21)
(0.252918 -0.150561 5.50985e-21)
(0.266435 -0.148096 5.28928e-21)
(0.280341 -0.145714 -5.21294e-21)
(0.294558 -0.143304 0)
(0.309004 -0.140746 0)
(0.323592 -0.137914 0)
(0.338214 -0.13468 0)
(0.352742 -0.130914 0)
(0.367129 -0.126433 0)
(0.381467 -0.120954 0)
(0.394851 -0.114731 0)
(0.242289 -0.406887 0)
(0.219992 -0.368645 0)
(0.202634 -0.335754 0)
(0.189315 -0.30765 0)
(0.179615 -0.283641 8.69748e-21)
(0.173177 -0.263116 8.44577e-21)
(0.169648 -0.245569 4.17379e-21)
(0.168703 -0.230571 1.19297e-20)
(0.170053 -0.217756 0)
(0.173435 -0.206812 0)
(0.178614 -0.197472 1.44524e-20)
(0.18538 -0.189505 -1.40138e-20)
(0.193544 -0.182715 2.04798e-20)
(0.202938 -0.176929 1.56837e-23)
(0.213413 -0.171999 6.47775e-21)
(0.224834 -0.167792 9.89395e-23)
(0.237084 -0.164189 1.22093e-20)
(0.250054 -0.161082 5.84434e-21)
(0.26365 -0.158367 6.93748e-24)
(0.277785 -0.155945 5.51937e-21)
(0.292378 -0.153715 -5.43911e-21)
(0.307354 -0.151573 0)
(0.322636 -0.149406 5.14224e-21)
(0.338146 -0.147092 5.00029e-21)
(0.353796 -0.144496 4.86415e-21)
(0.36948 -0.141477 4.73478e-21)
(0.385064 -0.137887 9.12231e-21)
(0.400496 -0.133509 -1.19537e-22)
(0.41587 -0.128008 -1.7462e-20)
(0.430197 -0.12166 -2.18756e-22)
(0.253046 -0.400694 1.37572e-20)
(0.230336 -0.363714 -4.85885e-21)
(0.212901 -0.331992 4.81334e-21)
(0.199778 -0.304973 -4.60509e-21)
(0.190492 -0.281962 -2.19647e-20)
(0.184646 -0.262345 4.49509e-21)
(0.181851 -0.245617 -1.23168e-20)
(0.181756 -0.231353 4.22802e-21)
(0.184046 -0.21919 -1.40187e-22)
(0.18844 -0.208822 -7.63913e-21)
(0.194684 -0.199986 -7.15925e-21)
(0.202555 -0.192459 7.19749e-21)
(0.211851 -0.18605 -6.87014e-21)
(0.222393 -0.180594 6.81263e-21)
(0.234023 -0.175948 -1.30624e-20)
(0.246599 -0.17199 1.14453e-22)
(0.259997 -0.168606 -1.22287e-20)
(0.274103 -0.165698 5.93318e-21)
(0.288821 -0.163172 1.2705e-23)
(0.304061 -0.160936 -8.11177e-23)
(0.319744 -0.158898 -1.64958e-20)
(0.335795 -0.15696 5.36643e-21)
(0.352141 -0.155015 -1.03567e-20)
(0.368708 -0.152941 6.57706e-23)
(0.385415 -0.150597 -1.45856e-20)
(0.402156 -0.14783 4.85086e-21)
(0.418797 -0.144472 -9.20782e-21)
(0.435284 -0.140269 9.08147e-21)
(0.451712 -0.134825 4.39465e-21)
(0.467007 -0.128434 0)
(0.263683 -0.394271 2.35816e-22)
(0.240685 -0.358648 9.97768e-21)
(0.223301 -0.328165 -9.44437e-21)
(0.210498 -0.30228 -2.2078e-22)
(0.201745 -0.280301 1.80111e-20)
(0.196604 -0.261611 1.9958e-22)
(0.194653 -0.24571 -8.57409e-21)
(0.195511 -0.232176 -8.13714e-21)
(0.19884 -0.220654 7.89679e-21)
(0.204337 -0.210841 -7.82604e-21)
(0.211733 -0.202483 -7.43691e-21)
(0.220789 -0.195362 0)
(0.231292 -0.189293 7.02091e-21)
(0.243051 -0.184121 -2.0644e-20)
(0.255898 -0.179709 0)
(0.269683 -0.175941 -6.40531e-21)
(0.284276 -0.172717 0)
(0.299557 -0.169944 -1.07214e-22)
(0.315425 -0.167539 5.69078e-24)
(0.331789 -0.165424 -5.78124e-21)
(0.348569 -0.163516 -1.96894e-24)
(0.365692 -0.16173 1.08175e-20)
(0.383091 -0.159968 -7.687e-23)
(0.400697 -0.158112 5.05841e-21)
(0.418439 -0.156024 -1.49674e-20)
(0.436218 -0.153541 0)
(0.453902 -0.150477 0)
(0.471442 -0.146535 -4.5674e-21)
(0.488937 -0.141249 -4.39467e-21)
(0.505223 -0.134922 -9.76712e-21)
(0.274197 -0.387623 -9.47784e-21)
(0.251049 -0.353448 -1.49868e-20)
(0.233851 -0.32427 -4.97713e-21)
(0.221498 -0.299566 9.39061e-21)
(0.213404 -0.278646 -9.11061e-21)
(0.209086 -0.260899 -8.83844e-21)
(0.20809 -0.245828 8.57415e-21)
(0.210006 -0.233018 8.50359e-21)
(0.214472 -0.222121 0)
(0.221165 -0.21284 7.82608e-21)
(0.2298 -0.204929 0)
(0.240122 -0.198176 0)
(0.251906 -0.192405 0)
(0.26495 -0.187466 6.93089e-21)
(0.279076 -0.183231 0)
(0.294126 -0.179592 0)
(0.30996 -0.176457 6.34106e-21)
(0.326455 -0.173744 6.1538e-21)
(0.343502 -0.171382 0)
(0.361008 -0.169305 0)
(0.378891 -0.167446 5.71057e-21)
(0.397079 -0.165735 -5.53881e-21)
(0.41551 -0.164089 5.37173e-21)
(0.434125 -0.162407 0)
(0.452863 -0.160556 4.98556e-21)
(0.471638 -0.158376 0)
(0.490333 -0.155664 0)
(0.508908 -0.152082 9.17229e-21)
(0.527472 -0.147082 0)
(0.544773 -0.14096 0)
(0.284589 -0.380753 0)
(0.261439 -0.348115 0)
(0.244571 -0.320303 9.91598e-21)
(0.232805 -0.29682 0)
(0.225496 -0.276984 -4.6812e-21)
(0.222123 -0.26019 4.6121e-21)
(0.222195 -0.245948 -8.79982e-21)
(0.225274 -0.233852 1.73907e-20)
(0.230976 -0.223561 2.58202e-23)
(0.238957 -0.214787 -8.16836e-21)
(0.248916 -0.207289 1.56893e-20)
(0.260583 -0.200866 1.97848e-23)
(0.273721 -0.195347 7.43914e-21)
(0.288118 -0.19059 0)
(0.303585 -0.186473 1.38614e-20)
(0.319955 -0.182896 -1.34277e-20)
(0.33708 -0.179776 1.3136e-20)
(0.354829 -0.177041 -1.25217e-20)
(0.373088 -0.17463 1.2354e-20)
(0.391756 -0.172493 5.99356e-21)
(0.41075 -0.170578 1.00223e-22)
(0.429996 -0.168837 5.53883e-21)
(0.449435 -0.167208 -5.37176e-21)
(0.469017 -0.165615 5.28849e-21)
(0.488696 -0.163946 5.12193e-21)
(0.508406 -0.162054 0)
(0.52805 -0.159737 -4.66248e-21)
(0.547617 -0.156618 2.25635e-22)
(0.56724 -0.152055 2.24159e-20)
(0.585578 -0.146317 -4.80194e-21)
(0.294858 -0.373664 5.24095e-21)
(0.271866 -0.342648 -1.06489e-20)
(0.25548 -0.316258 8.87573e-23)
(0.244441 -0.29403 1.01793e-20)
(0.238049 -0.275298 9.66604e-21)
(0.235742 -0.259463 4.75408e-21)
(0.236994 -0.246045 9.18036e-21)
(0.241342 -0.234649 8.92068e-21)
(0.248376 -0.224942 -2.54715e-20)
(0.257736 -0.216647 1.6493e-20)
(0.269102 -0.20953 -1.60054e-20)
(0.282193 -0.203397 1.6301e-22)
(0.296756 -0.198084 -7.43918e-21)
(0.312571 -0.193456 -7.36044e-21)
(0.329439 -0.1894 -6.99225e-21)
(0.347185 -0.185819 1.37075e-20)
(0.365651 -0.182639 -1.99685e-20)
(0.384699 -0.179795 0)
(0.404207 -0.177239 -6.18139e-21)
(0.424066 -0.174929 -5.99359e-21)
(0.444187 -0.172834 -1.16245e-20)
(0.464492 -0.170926 5.72975e-21)
(0.484921 -0.169173 1.09107e-20)
(0.50543 -0.167529 -1.60442e-20)
(0.525986 -0.165925 -5.12196e-21)
(0.546548 -0.164248 -9.88797e-21)
(0.567052 -0.162321 4.94816e-21)
(0.587534 -0.15975 -1.3843e-20)
(0.608182 -0.155792 4.60583e-21)
(0.627575 -0.150658 -4.80969e-21)
(0.305006 -0.366359 2.08077e-22)
(0.282343 -0.337044 5.24536e-21)
(0.266598 -0.312124 1.06787e-20)
(0.25643 -0.291181 -5.03002e-21)
(0.251087 -0.273566 -9.89949e-21)
(0.249967 -0.258691 -9.39476e-21)
(0.252512 -0.246089 -4.49774e-21)
(0.258232 -0.235377 -8.89392e-21)
(0.266694 -0.226231 8.81037e-21)
(0.277519 -0.218385 0)
(0.290372 -0.211614 8.08824e-21)
(0.304958 -0.205732 -7.83725e-21)
(0.321014 -0.200582 -7.75551e-21)
(0.33831 -0.196036 7.36048e-21)
(0.356637 -0.191985 -7.28131e-21)
(0.375812 -0.18834 -6.91531e-21)
(0.395671 -0.185029 6.5802e-21)
(0.416066 -0.181996 -6.61591e-21)
(0.436867 -0.179196 0)
(0.457959 -0.176599 0)
(0.479241 -0.174186 0)
(0.500628 -0.171949 1.14704e-20)
(0.522053 -0.169884 -1.13062e-20)
(0.54347 -0.167987 0)
(0.564853 -0.166241 0)
(0.586182 -0.164601 0)
(0.607433 -0.162959 0)
(0.628715 -0.160957 -4.72319e-21)
(0.650331 -0.157776 -8.96035e-21)
(0.670807 -0.153528 4.8534e-21)
(0.31504 -0.35884 5.53338e-21)
(0.292889 -0.331297 -5.65599e-21)
(0.277946 -0.307887 -1.60374e-20)
(0.268793 -0.288251 1.58808e-20)
(0.26463 -0.271761 -5.02501e-21)
(0.264817 -0.257845 4.95083e-21)
(0.268765 -0.246047 1.91527e-22)
(0.275957 -0.235999 2.77108e-20)
(0.285937 -0.227389 -1.77961e-20)
(0.29831 -0.219962 8.72283e-21)
(0.312724 -0.213503 8.44597e-21)
(0.328873 -0.207835 8.02462e-21)
(0.346483 -0.202809 7.77385e-21)
(0.365315 -0.198301 -7.53081e-21)
(0.385153 -0.194209 1.48358e-20)
(0.405808 -0.190448 7.18737e-21)
(0.427109 -0.186948 6.83899e-21)
(0.448901 -0.183656 -6.64055e-21)
(0.471049 -0.18053 1.29778e-20)
(0.493428 -0.177542 -6.34093e-21)
(0.515929 -0.174679 0)
(0.538455 -0.171942 0)
(0.560928 -0.169348 0)
(0.583288 -0.166929 1.09368e-20)
(0.605502 -0.164725 -1.07827e-20)
(0.627557 -0.162786 0)
(0.649456 -0.161136 0)
(0.671396 -0.159558 4.72321e-21)
(0.69389 -0.157236 -8.94865e-21)
(0.715517 -0.154149 1.44265e-20)
(0.324991 -0.351115 7.30468e-23)
(0.303532 -0.325395 -5.80336e-21)
(0.289543 -0.303524 -1.1219e-20)
(0.281545 -0.285212 -5.2829e-21)
(0.278691 -0.269854 5.26879e-21)
(0.280305 -0.25689 -1.01673e-20)
(0.285764 -0.245882 -9.61389e-21)
(0.294524 -0.236476 -9.3067e-21)
(0.306109 -0.228375 0)
(0.320105 -0.221337 -1.74675e-20)
(0.336148 -0.215157 8.79833e-21)
(0.353918 -0.209668 -8.19808e-21)
(0.373134 -0.204729 8.24463e-21)
(0.393548 -0.200224 0)
(0.414941 -0.196055 -7.43383e-21)
(0.437116 -0.19214 7.35461e-21)
(0.4599 -0.188413 7.12662e-21)
(0.483136 -0.184818 0)
(0.506684 -0.181311 0)
(0.530417 -0.177861 0)
(0.554219 -0.174448 6.28957e-21)
(0.577986 -0.171069 -5.85022e-21)
(0.601625 -0.167737 1.17742e-20)
(0.625054 -0.164492 5.7142e-21)
(0.648214 -0.161405 0)
(0.671059 -0.158596 0)
(0.693558 -0.156247 -4.79561e-21)
(0.715935 -0.154365 1.46404e-20)
(0.739012 -0.152248 0)
(0.761773 -0.149978 0)
(0.334925 -0.343154 -1.11343e-20)
(0.314304 -0.319291 5.95227e-21)
(0.301401 -0.298996 5.5922e-21)
(0.294694 -0.282031 1.01036e-22)
(0.293278 -0.26781 -5.14163e-21)
(0.296435 -0.25579 1.01674e-20)
(0.30351 -0.245554 0)
(0.313931 -0.236765 0)
(0.327201 -0.229144 0)
(0.34289 -0.222462 -8.93917e-21)
(0.360619 -0.216528 1.71242e-22)
(0.380059 -0.211186 0)
(0.400921 -0.206304 -8.0922e-21)
(0.422951 -0.201774 0)
(0.445925 -0.197503 0)
(0.469645 -0.193414 -1.47259e-20)
(0.493938 -0.189442 1.34616e-22)
(0.518649 -0.185531 0)
(0.543641 -0.181634 0)
(0.568791 -0.177709 6.50575e-21)
(0.593991 -0.173723 -1.27008e-20)
(0.619142 -0.169651 -1.83203e-20)
(0.644156 -0.165475 1.20501e-20)
(0.668952 -0.161193 -5.71423e-21)
(0.693458 -0.156823 0)
(0.717592 -0.152444 0)
(0.741247 -0.148215 -5.11639e-21)
(0.764514 -0.144175 -4.86443e-21)
(0.788234 -0.139826 8.8071e-21)
(0.811989 -0.136471 -9.47479e-21)
(0.54331 -0.00588031 8.53571e-22)
(0.540207 -0.0200554 1.12632e-21)
(0.536767 -0.0340173 3.37564e-21)
(0.53299 -0.047798 4.4672e-21)
(0.528868 -0.0614014 -2.24876e-21)
(0.524408 -0.0748236 2.22639e-21)
(0.519622 -0.0880589 4.17677e-23)
(0.514523 -0.101101 -4.41841e-21)
(0.509124 -0.113946 8.58567e-21)
(0.503438 -0.126588 -1.28879e-20)
(0.497477 -0.139023 8.39421e-21)
(0.491252 -0.151248 -1.25035e-20)
(0.484776 -0.163261 -1.22612e-20)
(0.47806 -0.17506 1.29079e-22)
(0.471113 -0.186642 1.78446e-22)
(0.463947 -0.198008 0)
(0.45657 -0.209157 7.64553e-21)
(0.448992 -0.220087 1.50752e-20)
(0.44122 -0.230801 -1.48571e-20)
(0.433264 -0.241297 7.14277e-21)
(0.425129 -0.251577 0)
(0.416823 -0.261642 -2.05762e-20)