/*--------------------------------*- C++ -*----------------------------------*\
  =========                 |
  \\      /  F ield         | OpenFOAM: The Open Source CFD Toolbox
   \\    /   O peration     | Website:  https://openfoam.org
    \\  /    A nd           | Version:  6.0
     \\/     M anipulation  |
\*---------------------------------------------------------------------------*/
FoamFile
{
    version     2.0;
    format      ascii;
    class       surfaceScalarField;
    location    "29";
    object      phi;
}
// * * * * * * * * * * * * * * * * * * * * * * * * * * * * * * * * * * * * * //

dimensions      [0 3 -1 0 0 0 0];

internalField   nonuniform List<scalar> 
38030
(
8.69774e-05
-0.159873
0.159786
0.00038398
-0.150183
0.149886
0.000853646
-0.143056
0.142586
0.00146091
-0.137742
0.137135
0.00217477
-0.13369
0.132976
0.00296714
-0.130485
0.129692
0.00381352
-0.127828
0.126982
0.00469321
-0.125511
0.124632
0.00558922
-0.123392
0.122496
0.00648798
-0.121374
0.120475
0.00737903
-0.119399
0.118507
0.0082546
-0.11743
0.116554
0.00910924
-0.115449
0.114594
0.00993943
-0.113449
0.112619
0.0107432
-0.111432
0.110629
0.0115198
-0.109403
0.108626
0.0122694
-0.107369
0.106619
0.012993
-0.105339
0.104615
0.0136921
-0.103322
0.102623
0.0143685
-0.101327
0.100651
0.0150242
-0.0993611
0.0987054
0.0156615
-0.0974303
0.096793
0.0162826
-0.0955392
0.0949181
0.0168898
-0.0936908
0.0930837
0.0174852
-0.0918863
0.0912909
0.0180709
-0.0901248
0.0895391
0.0186486
-0.0884036
0.0878258
0.0192199
-0.0867178
0.0861465
0.0197855
-0.0850601
0.0844945
-0.0834206
0.0828603
0.0203458
9.88368e-05
-0.159972
0.00040029
-0.150485
0.000873816
-0.143529
0.00148469
-0.138353
0.00220116
-0.134406
0.00299475
-0.131278
0.0038407
-0.128674
0.00471822
-0.126389
0.0056103
-0.124284
0.00650351
-0.122267
0.00738754
-0.120283
0.00825485
-0.118297
0.00910021
-0.116294
0.00992031
-0.11427
0.0107134
-0.112225
0.011479
-0.110168
0.0122174
-0.108107
0.0129298
-0.106051
0.0136177
-0.10401
0.0142831
-0.101992
0.014928
-0.100006
0.0155549
-0.0980571
0.016166
-0.0961503
0.0167635
-0.0942884
0.0173497
-0.0924725
0.0179267
-0.0907018
0.0184964
-0.0889732
0.0190601
-0.0872815
0.019619
-0.0856189
-0.0839749
0.0201733
0.000106487
-0.160079
0.000413525
-0.150792
0.000891387
-0.144007
0.0015059
-0.138967
0.0022248
-0.135125
0.00301922
-0.132073
0.00386422
-0.129519
0.00473895
-0.127264
0.00562646
-0.125171
0.00651345
-0.123154
0.0073898
-0.121159
0.00824821
-0.119155
0.00908367
-0.11713
0.00989313
-0.115079
0.0106751
-0.113007
0.0114291
-0.110922
0.0121559
-0.108834
0.0128566
-0.106752
0.013533
-0.104686
0.0141871
-0.102647
0.014821
-0.10064
0.0154372
-0.0986733
0.0160379
-0.096751
0.0166256
-0.094876
0.0172024
-0.0930493
0.0177705
-0.0912699
0.0183317
-0.0895345
0.0188877
-0.0878375
0.0194395
-0.0861708
-0.084523
0.0199876
0.00011116
-0.16019
0.00042381
-0.151105
0.000906411
-0.14449
0.00152458
-0.139586
0.00224565
-0.135846
0.00304049
-0.132867
0.003884
-0.130362
0.00475533
-0.128135
0.00563763
-0.126054
0.00651774
-0.124034
0.00738577
-0.122027
0.00823466
-0.120004
0.00905966
-0.117955
0.00985795
-0.115877
0.0106282
-0.113778
0.0113703
-0.111665
0.0120851
-0.109549
0.0127738
-0.107441
0.0134383
-0.105351
0.0140808
-0.103289
0.0147034
-0.101263
0.0153087
-0.0992785
0.0158988
-0.0973412
0.0164764
-0.0954535
0.0170435
-0.0936164
0.0176024
-0.0918288
0.018155
-0.0900871
0.0187031
-0.0883855
0.0192476
-0.0867153
-0.0850646
0.0197893
0.000114585
-0.160304
0.000432261
-0.151422
0.000919421
-0.144977
0.00154097
-0.140207
0.00226384
-0.136569
0.0030586
-0.133662
0.00390007
-0.131204
0.00476738
-0.129002
0.00564382
-0.12693
0.00651641
-0.124907
0.00737552
-0.122886
0.0082143
-0.120843
0.00902828
-0.118769
0.00981488
-0.116664
0.010573
-0.114536
0.0113028
-0.112394
0.0120051
-0.110251
0.0126815
-0.108117
0.0133339
-0.106003
0.0139645
-0.10392
0.0145756
-0.101874
0.0151696
-0.0998726
0.015749
-0.0979206
0.0163161
-0.0960207
0.0168734
-0.0941737
0.0174229
-0.0923783
0.0179667
-0.0906309
0.0185066
-0.0889253
0.0190436
-0.0872524
-0.0855997
0.0195787
0.000117345
-0.160422
0.000439443
-0.151744
0.00093076
-0.145468
0.00155529
-0.140832
0.00227948
-0.137293
0.00307363
-0.134456
0.00391245
-0.132043
0.00477513
-0.129865
0.00564508
-0.1278
0.00650954
-0.125771
0.0073591
-0.123736
0.00818721
-0.121671
0.00898964
-0.119571
0.00976407
-0.117438
0.0105097
-0.115281
0.0112267
-0.113111
0.0119162
-0.11094
0.0125799
-0.108781
0.0132199
-0.106643
0.0138383
-0.104538
0.0144376
-0.102473
0.0150202
-0.100455
0.0155887
-0.098489
0.0161453
-0.0965773
0.0166924
-0.0947208
0.0172324
-0.0929183
0.0177672
-0.0911657
0.0182986
-0.0894568
0.018828
-0.0877818
-0.0861279
0.0193562
0.000119704
-0.160541
0.000445692
-0.15207
0.000940679
-0.145963
0.00156771
-0.141459
0.00229269
-0.138018
0.00308565
-0.135249
0.00392122
-0.132878
0.00477864
-0.130722
0.00564148
-0.128663
0.00649719
-0.126627
0.00733663
-0.124575
0.0081535
-0.122488
0.00894387
-0.120361
0.00970566
-0.1182
0.0104383
-0.116014
0.0111422
-0.113815
0.0118186
-0.111617
0.0124694
-0.109431
0.0130966
-0.10727
0.0137026
-0.105144
0.0142899
-0.10306
0.0148609
-0.101026
0.0154182
-0.0990462
0.015964
-0.0971231
0.0165009
-0.0952577
0.017031
-0.0934484
0.0175566
-0.0916913
0.0180794
-0.0899796
0.018601
-0.0883034
-0.0866491
0.0191222
0.000121781
-0.160663
0.000451198
-0.1524
0.000949358
-0.146462
0.00157836
-0.142088
0.00230357
-0.138744
0.00309476
-0.136041
0.00392646
-0.13371
0.004778
-0.131574
0.00563309
-0.129518
0.00647945
-0.127474
0.00730819
-0.125404
0.0081133
-0.123293
0.00889112
-0.121139
0.00963983
-0.118949
0.010359
-0.116733
0.0110495
-0.114506
0.0117125
-0.11228
0.01235
-0.110069
0.0129642
-0.107885
0.0135577
-0.105737
0.0141327
-0.103635
0.0146919
-0.101585
0.0152378
-0.099592
0.0157727
-0.097658
0.0162991
-0.0957841
0.0168193
-0.0939686
0.0173354
-0.0922074
0.0178495
-0.0904937
0.018363
-0.0888169
-0.0871632
0.018877
0.00012364
-0.160787
0.000456069
-0.152732
0.000956912
-0.146962
0.00158735
-0.142718
0.00231223
-0.139469
0.00310103
-0.136829
0.00392825
-0.134537
0.00477328
-0.132419
0.00562002
-0.130365
0.00645644
-0.12831
0.00727392
-0.126221
0.00806674
-0.124086
0.00883153
-0.121904
0.00956673
-0.119684
0.0102722
-0.117439
0.0109487
-0.115182
0.011598
-0.112929
0.012222
-0.110693
0.0128231
-0.108486
0.0134037
-0.106318
0.0139663
-0.104198
0.0145135
-0.102133
0.0150478
-0.100126
0.0155715
-0.0981818
0.0160873
-0.0962998
0.0165973
-0.0944786
0.0171038
-0.092714
0.0176089
-0.0909988
0.0181142
-0.0893222
-0.0876699
0.0186209
0.000125311
-0.160912
0.000460377
-0.153067
0.000963428
-0.147465
0.00159478
-0.14335
0.00231874
-0.140193
0.00310457
-0.137615
0.00392669
-0.135359
0.00476459
-0.133257
0.00560238
-0.131202
0.00642827
-0.129136
0.00723395
-0.127027
0.00801399
-0.124866
0.00876529
-0.122655
0.00948656
-0.120405
0.0101779
-0.11813
0.0108403
-0.115845
0.0114755
-0.113564
0.0120857
-0.111303
0.0126733
-0.109073
0.0132409
-0.106886
0.0137909
-0.104748
0.0143259
-0.102668
0.0148484
-0.100649
0.0153608
-0.0986943
0.0158657
-0.0968047
0.0163653
-0.0949782
0.016862
-0.0932107
0.0173579
-0.0914947
0.0178548
-0.0898191
-0.0881691
0.0183541
0.000126814
-0.161039
0.000464163
-0.153405
0.000968967
-0.14797
0.00160071
-0.143981
0.00232321
-0.140915
0.00310546
-0.138397
0.00392187
-0.136176
0.00475203
-0.134087
0.00558027
-0.132031
0.00639508
-0.129951
0.00718843
-0.12782
0.0079552
-0.125633
0.00869257
-0.123393
0.00939951
-0.121112
0.0100763
-0.118807
0.0107242
-0.116493
0.0113451
-0.114185
0.0119413
-0.111899
0.0125153
-0.109647
0.0130695
-0.10744
0.0136067
-0.105285
0.0141293
-0.10319
0.0146399
-0.101159
0.0151408
-0.0991952
0.0156346
-0.0972984
0.0161236
-0.0954673
0.0166103
-0.0936974
0.0170968
-0.0919812
0.0175851
-0.0903074
-0.0886607
0.0180767
0.000128161
-0.161167
0.000467455
-0.153744
0.000973582
-0.148476
0.00160522
-0.144613
0.0023257
-0.141635
0.00310379
-0.139175
0.00391389
-0.136986
0.00473572
-0.134909
0.00555384
-0.132849
0.00635702
-0.130754
0.00713753
-0.128601
0.00789056
-0.126386
0.00861357
-0.124116
0.00930579
-0.121804
0.00996774
-0.119469
0.0106009
-0.117126
0.0112072
-0.114792
0.0117891
-0.112481
0.0123491
-0.110207
0.0128899
-0.107981
0.013414
-0.105809
0.013924
-0.1037
0.0144224
-0.101658
0.0149116
-0.0996844
0.0153941
-0.0977809
0.0158723
-0.0959455
0.0163487
-0.0941738
0.0168256
-0.0924581
0.0173051
-0.0907869
-0.0891444
0.0177888
0.000129355
-0.161296
0.000470282
-0.154085
0.000977315
-0.148983
0.00160836
-0.145244
0.00232629
-0.142353
0.00309967
-0.139949
0.00390288
-0.137789
0.0047158
-0.135722
0.00552323
-0.133656
0.00631424
-0.131545
0.00708142
-0.129368
0.00782025
-0.127124
0.00852849
-0.124824
0.00920562
-0.122482
0.00985238
-0.120115
0.0104704
-0.117744
0.0110618
-0.115383
0.0116292
-0.113049
0.0121751
-0.110753
0.0127022
-0.108508
0.0132131
-0.10632
0.0137103
-0.104197
0.0141962
-0.102144
0.0146735
-0.100162
0.0151444
-0.0982518
0.0156115
-0.0964126
0.0160774
-0.0946396
0.0165444
-0.0929252
0.0170148
-0.0912574
-0.0896201
0.0174905
0.000130402
-0.161427
0.000472659
-0.154427
0.000980215
-0.149491
0.00161022
-0.145874
0.00232509
-0.143068
0.00309319
-0.140717
0.00388894
-0.138585
0.00469239
-0.136525
0.00548859
-0.134452
0.00626692
-0.132323
0.00702029
-0.130121
0.00774449
-0.127849
0.00843756
-0.125517
0.00909924
-0.123143
0.00973049
-0.120747
0.0103331
-0.118346
0.0109094
-0.115959
0.0114619
-0.113601
0.0119934
-0.111285
0.0125066
-0.109021
0.013004
-0.106818
0.0134882
-0.104682
0.0139615
-0.102617
0.0144265
-0.100627
0.0148856
-0.0987109
0.0153414
-0.0968683
0.0157963
-0.0950946
0.0162532
-0.093382
0.0167143
-0.0917185
-0.0900875
0.0171817
0.000131302
-0.161558
0.000474609
-0.15477
0.000982327
-0.149999
0.00161086
-0.146503
0.00232218
-0.14378
0.00308448
-0.141479
0.00387222
-0.139373
0.00466565
-0.137319
0.0054501
-0.135237
0.00621526
-0.133088
0.00695436
-0.13086
0.00766351
-0.128558
0.00834103
-0.126194
0.0089869
-0.123789
0.00960231
-0.121362
0.0101892
-0.118933
0.0107501
-0.11652
0.0112876
-0.114139
0.0118044
-0.111802
0.0123034
-0.10952
0.0127871
-0.107301
0.013258
-0.105152
0.0137185
-0.103078
0.0141709
-0.101079
0.0146179
-0.0991578
0.0150619
-0.0973123
0.0155056
-0.0955384
0.0159519
-0.0938283
0.0164033
-0.0921699
-0.0905464
0.0168622
0.000132058
-0.16169
0.000476156
-0.155114
0.000983707
-0.150506
0.00161037
-0.147129
0.00231767
-0.144487
0.00307365
-0.142235
0.00385285
-0.140152
0.00463573
-0.138101
0.00540793
-0.136009
0.00615945
-0.13384
0.00688384
-0.131585
0.00757754
-0.129252
0.00823914
-0.126856
0.00886888
-0.124419
0.00946814
-0.121961
0.0100391
-0.119504
0.0105842
-0.117065
0.0111064
-0.114661
0.0116084
-0.112304
0.0120929
-0.110004
0.0125626
-0.107771
0.0130199
-0.10561
0.0134672
-0.103525
0.0139068
-0.101519
0.0143413
-0.0995923
0.0147731
-0.0977442
0.0152052
-0.0959704
0.0156404
-0.0942635
0.0160817
-0.0926112
-0.0909963
0.0165316
0.00013267
-0.161823
0.000477328
-0.155459
0.000984423
-0.151013
0.00160885
-0.147754
0.00231167
-0.14519
0.00306084
-0.142984
0.00383099
-0.140922
0.00460283
-0.138873
0.00536229
-0.136769
0.00609971
-0.134577
0.00680899
-0.132294
0.00748685
-0.129929
0.00813219
-0.127501
0.00874547
-0.125032
0.00932829
-0.122544
0.00988294
-0.120059
0.0104121
-0.117594
0.0109187
-0.115167
0.0114055
-0.112791
0.0118753
-0.110474
0.0123307
-0.108226
0.0127742
-0.106053
0.0132079
-0.103959
0.0136344
-0.101945
0.0140559
-0.100014
0.0144751
-0.0981634
0.0148949
-0.0963903
0.0153186
-0.0946872
0.0157492
-0.0930418
-0.0914368
0.0161897
0.000133139
-0.161956
0.000478164
-0.155804
0.000984552
-0.15152
0.00160639
-0.148375
0.00230433
-0.145888
0.00304621
-0.143726
0.00380682
-0.141683
0.00456713
-0.139634
0.00531339
-0.137515
0.0060363
-0.1353
0.00673006
-0.132988
0.00739173
-0.130591
0.00802047
-0.12813
0.008617
-0.125629
0.00918309
-0.12311
0.00972119
-0.120597
0.0102341
-0.118107
0.0107248
-0.115658
0.0111962
-0.113262
0.011651
-0.110929
0.0120918
-0.108667
0.012521
-0.106482
0.0129409
-0.104378
0.0133537
-0.102358
0.0137617
-0.100422
0.0141678
-0.0985694
0.0145748
-0.0967973
0.0149861
-0.0950985
0.0154054
-0.0934611
-0.0918672
0.0158359
0.000133472
-0.162089
0.000478717
-0.156149
0.000984201
-0.152025
0.00160315
-0.148994
0.00229579
-0.14658
0.00302992
-0.14446
0.00378051
-0.142433
0.00452883
-0.140382
0.00526147
-0.138247
0.00596945
-0.136008
0.00664734
-0.133666
0.00729248
-0.131236
0.00790433
-0.128742
0.00848381
-0.126208
0.0090329
-0.123659
0.0095542
-0.121118
0.0100506
-0.118604
0.0105252
-0.116133
0.0109808
-0.113718
0.0114203
-0.111369
0.0118461
-0.109093
0.0122608
-0.106897
0.0126663
-0.104784
0.0130649
-0.102757
0.013459
-0.100816
0.0138512
-0.0989616
0.0142446
-0.0971907
0.0146428
-0.0954968
0.0150499
-0.0938681
-0.0922869
0.0154695
0.000133677
-0.162223
0.000479062
-0.156495
0.000983496
-0.15253
0.00159927
-0.14961
0.00228621
-0.147267
0.00301215
-0.145186
0.00375227
-0.143173
0.00448816
-0.141118
0.00520677
-0.138966
0.00589945
-0.136701
0.00656113
-0.134327
0.00718944
-0.131865
0.0077841
-0.129337
0.00834629
-0.12677
0.00887815
-0.124191
0.0093824
-0.121622
0.00986206
-0.119083
0.0103202
-0.116591
0.0107598
-0.114157
0.0111836
-0.111792
0.0115942
-0.109504
0.0119938
-0.107297
0.0123845
-0.105175
0.0127685
-0.103141
0.0131479
-0.101195
0.0135254
-0.0993391
0.0139043
-0.0975695
0.0142883
-0.0958808
0.014682
-0.0942618
-0.0926946
0.0150898
0.000133778
-0.162357
0.000479308
-0.15684
0.000982604
-0.153033
0.00159494
-0.150223
0.0022758
-0.147948
0.0029931
-0.145904
0.00372231
-0.143902
0.00444536
-0.141841
0.00514954
-0.13967
0.00582659
-0.137378
0.00647174
-0.134973
0.00708295
-0.132476
0.00766019
-0.129914
0.00820486
-0.127315
0.00871926
-0.124706
0.00920625
-0.122109
0.00966892
-0.119546
0.0101104
-0.117032
0.0105337
-0.11458
0.0109415
-0.1122
0.0113364
-0.109899
0.0117205
-0.107681
0.0120959
-0.10555
0.0124646
-0.103509
0.0128287
-0.101559
0.0131906
-0.0997011
0.0135538
-0.0979327
0.0139225
-0.0962495
0.0143014
-0.0946408
-0.0930892
0.014696
0.000133825
-0.162491
0.000479611
-0.157186
0.000981738
-0.153535
0.00159037
-0.150831
0.00226475
-0.148622
0.00297298
-0.146612
0.00369086
-0.14462
0.00440066
-0.142551
0.00509006
-0.14036
0.00575115
-0.138039
0.0063795
-0.135601
0.00697338
-0.13307
0.00753299
-0.130474
0.00805995
-0.127842
0.00855672
-0.125202
0.00902628
-0.122579
0.00947177
-0.119992
0.00989637
-0.117457
0.010303
-0.114987
0.0106946
-0.112592
0.0110733
-0.110277
0.0114416
-0.108049
0.0118011
-0.10591
0.0121539
-0.103862
0.0125018
-0.101907
0.0128472
-0.100047
0.0131935
-0.098279
0.0135451
-0.0966011
0.0139077
-0.0950033
-0.0934688
0.0142872
0.00013392
-0.162625
0.000480215
-0.157532
0.000981174
-0.154036
0.00158582
-0.151436
0.0022533
-0.14929
0.00295202
-0.147311
0.00365813
-0.145326
0.00435431
-0.143247
0.0050286
-0.141034
0.00567345
-0.138684
0.00628477
-0.136212
0.0068611
-0.133646
0.00740293
-0.131015
0.00791205
-0.128351
0.00839107
-0.125681
0.00884306
-0.123031
0.00927124
-0.12042
0.00967878
-0.117864
0.0100687
-0.115377
0.0104436
-0.112967
0.0108059
-0.11064
0.0111578
-0.108401
0.0115009
-0.106253
0.011837
-0.104198
0.0121679
-0.102238
0.0124957
-0.100374
0.0128237
-0.098607
0.0131566
-0.0969339
0.0135005
-0.0953473
-0.0938311
0.0138629
0.000134259
-0.162759
0.000481484
-0.15788
0.000981278
-0.154536
0.00158159
-0.152036
0.00224171
-0.14995
0.00293044
-0.147999
0.00362437
-0.14602
0.00430656
-0.143929
0.00496543
-0.141693
0.00559378
-0.139312
0.00618786
-0.136806
0.00674651
-0.134205
0.00727045
-0.131539
0.00776165
-0.128842
0.00822286
-0.126143
0.00865724
-0.123465
0.00906803
-0.120831
0.00945841
-0.118255
0.00983133
-0.11575
0.0101894
-0.113325
0.010535
-0.110985
0.0108701
-0.108736
0.0111963
-0.106579
0.0115151
-0.104517
0.011828
-0.102551
0.0121371
-0.100683
0.0124452
-0.0989151
0.0127571
-0.0972458
0.0130798
-0.09567
-0.0941734
0.013422
0.00013523
-0.162894
0.000483982
-0.158228
0.000982513
-0.155034
0.00157802
-0.152632
0.00223022
-0.150602
0.00290846
-0.148678
0.00358979
-0.146702
0.00425763
-0.144597
0.00490079
-0.142336
0.00551242
-0.139924
0.00608911
-0.137383
0.00662997
-0.134745
0.00713597
-0.132045
0.00760925
-0.129316
0.00805268
-0.126586
0.00846948
-0.123882
0.00886291
-0.121224
0.00923614
-0.118628
0.00959206
-0.116106
0.00993324
-0.113666
0.0102619
-0.111314
0.0105798
-0.109054
0.0108886
-0.106888
0.0111894
-0.104818
0.0114835
-0.102845
0.0117725
-0.100972
0.0120589
-0.0992016
0.0123473
-0.0975342
0.0126451
-0.0959678
-0.0944915
0.0129633
0.000137509
-0.163032
0.00048848
-0.158579
0.000985391
-0.155531
0.00157542
-0.153222
0.00221906
-0.151246
0.00288629
-0.149345
0.00355457
-0.14737
0.00420772
-0.14525
0.0048349
-0.142963
0.00542963
-0.140519
0.00598882
-0.137942
0.00651186
-0.135269
0.00699994
-0.132533
0.00745536
-0.129771
0.00788112
-0.127012
0.00828047
-0.124281
0.0086567
-0.1216
0.00901292
-0.118984
0.00935195
-0.116445
0.00967627
-0.11399
0.00998794
-0.111626
0.0102886
-0.109355
0.0105796
-0.107179
0.010862
-0.1051
0.0111365
-0.10312
0.0114042
-0.10124
0.0116671
-0.0994645
0.0119291
-0.0977962
0.012198
-0.0962367
-0.0947811
0.0124876
0.000142108
-0.163174
0.000495868
-0.158933
0.000990429
-0.156026
0.00157411
-0.153805
0.00220846
-0.15188
0.00286409
-0.15
0.00351888
-0.148025
0.00415699
-0.145888
0.00476795
-0.143574
0.00534563
-0.141096
0.00588725
-0.138484
0.00639249
-0.135774
0.00686273
-0.133004
0.00730047
-0.130209
0.00770876
-0.12742
0.00809092
-0.124664
0.00845023
-0.12196
0.00878976
-0.119324
0.00911222
-0.116767
0.00941996
-0.114298
0.00971489
-0.111921
0.00999846
-0.109638
0.0102717
-0.107452
0.0105354
-0.105364
0.01079
-0.103374
0.0110358
-0.101486
0.011274
-0.0997027
0.0115073
-0.0980295
0.0117434
-0.0964728
-0.0950358
0.011998
0.000150583
-0.163324
0.000507576
-0.15929
0.000998515
-0.156517
0.00157455
-0.154381
0.00219866
-0.152504
0.002842
-0.150644
0.00348279
-0.148666
0.00410552
-0.146511
0.00470004
-0.144169
0.00526056
-0.141657
0.0057846
-0.139008
0.00627211
-0.136261
0.00672469
-0.133456
0.00714497
-0.130629
0.00753612
-0.127811
0.00790149
-0.125029
0.00824433
-0.122302
0.00856766
-0.119647
0.00887411
-0.117074
0.00916584
-0.11459
0.00944456
-0.112199
0.00971149
-0.109905
0.00996737
-0.107708
0.0102125
-0.105609
0.0104469
-0.103609
0.0106705
-0.10171
0.0108832
-0.0999154
0.0110858
-0.0982321
0.0112831
-0.09667
-0.0952427
0.01149
0.000167364
-0.163492
0.000527351
-0.15965
0.00101136
-0.157001
0.00157725
-0.154947
0.00218968
-0.153117
0.00281991
-0.151274
0.00344621
-0.149292
0.00405326
-0.147118
0.00463118
-0.144747
0.00517448
-0.1422
0.00568098
-0.139514
0.0061509
-0.136731
0.00658604
-0.133891
0.00698919
-0.131032
0.00736361
-0.128186
0.00771269
-0.125378
0.0080397
-0.122629
0.00834757
-0.119955
0.00863884
-0.117365
0.00891552
-0.114866
0.00917908
-0.112463
0.00943041
-0.110156
0.00966981
-0.107947
0.00989697
-0.105836
0.0101111
-0.103823
0.010311
-0.101909
0.0104952
-0.1001
0.0106603
-0.0983972
0.0108054
-0.0968151
-0.0953868
0.0109496
0.00020678
-0.163698
0.000559941
-0.160003
0.00102909
-0.15747
0.00158144
-0.1555
0.00218084
-0.153716
0.00279737
-0.151891
0.00340887
-0.149903
0.00400005
-0.147709
0.00456129
-0.145308
0.00508738
-0.142726
0.00557645
-0.140003
0.00602896
-0.137184
0.00644695
-0.134309
0.00683335
-0.131419
0.00719152
-0.128544
0.00752494
-0.125711
0.00783686
-0.122941
0.00813021
-0.120248
0.00840747
-0.117642
0.00867054
-0.115129
0.00892074
-0.112713
0.00915868
-0.110394
0.00938421
-0.108173
0.00959631
-0.106048
0.00979296
-0.104019
0.00997093
-0.102087
0.0101246
-0.100253
0.0102428
-0.0985154
0.0103108
-0.0968831
-0.0954546
0.0103786
0.167153
0.000145086
-0.167299
0.16703
0.000123196
0.166916
0.000114764
0.166804
0.000111286
0.166694
0.000110127
0.166584
0.000110355
0.166472
0.000111358
0.16636
0.000112727
0.166245
0.000114223
0.16613
0.000115727
0.166013
0.000117177
0.165894
0.000118543
0.165774
0.000119815
0.165653
0.000120988
0.165531
0.000122063
0.165408
0.000123041
0.165284
0.000123925
0.165159
0.000124717
0.165034
0.00012541
0.164908
0.000126006
0.164782
0.000126491
0.164655
0.00012685
0.164528
0.000127046
0.164401
0.000127023
0.164274
0.000126669
0.164148
0.000125769
0.164024
0.000123861
0.163904
0.000119935
0.163793
0.000110888
9.50046e-05
0.168151
0.000366185
-0.168372
0.16792
0.000354042
0.167685
0.000349361
0.167447
0.000349331
0.167206
0.000351698
0.166961
0.000355625
0.166711
0.000360599
0.166458
0.000366176
0.1662
0.000372027
0.165938
0.000377937
0.165671
0.000383776
0.1654
0.000389461
0.165125
0.000394935
0.164846
0.000400169
0.164563
0.000405141
0.164276
0.000409839
0.163986
0.000414255
0.163692
0.000418385
0.163395
0.000422216
0.163096
0.000425738
0.162793
0.000428926
0.162488
0.000431745
0.162181
0.000434123
0.161872
0.00043595
0.161562
0.000437036
0.161251
0.000437043
0.160939
0.000435375
0.160628
0.000431056
0.160317
0.000422035
0.000408622
0.1684
0.000615766
-0.16865
0.168133
0.000621211
0.167853
0.000629177
0.167563
0.000639634
0.167263
0.000651531
0.166954
0.000664343
0.166637
0.000677792
0.166312
0.0006916
0.165978
0.000705517
0.165637
0.00071935
0.165287
0.000732959
0.164931
0.000746242
0.164567
0.000759129
0.164195
0.000771566
0.163817
0.00078352
0.163432
0.000794965
0.16304
0.000805882
0.162642
0.00081626
0.162238
0.000826078
0.161829
0.000835319
0.161414
0.000843953
0.160993
0.00085193
0.160568
0.000859173
0.160139
0.00086556
0.159705
0.000870899
0.159267
0.000874893
0.158825
0.000877095
0.158379
0.00087694
0.157928
0.000873424
0.000866831
0.167759
0.000860463
-0.168004
0.167496
0.000884724
0.167216
0.000909261
0.166921
0.000934592
0.166612
0.000960404
0.16629
0.000986422
0.165955
0.00101249
0.165608
0.00103845
0.16525
0.00106415
0.16488
0.00108943
0.164498
0.0011142
0.164106
0.00113836
0.163704
0.00116184
0.163291
0.00118459
0.162868
0.00120657
0.162435
0.00122776
0.161992
0.00124813
0.161541
0.00126767
0.161081
0.00128635
0.160612
0.00130416
0.160135
0.00132107
0.15965
0.00133704
0.159157
0.001352
0.158657
0.00136584
0.158149
0.00137842
0.157634
0.00138952
0.157113
0.00139888
0.156583
0.00140617
0.156046
0.0014109
0.00141325
0.166266
0.00107571
-0.166482
0.166032
0.00111957
0.165778
0.00116271
0.165507
0.00120561
0.165219
0.00124824
0.164915
0.00129048
0.164595
0.00133223
0.164261
0.00137339
0.163911
0.00141387
0.163547
0.00145356
0.163169
0.00149237
0.162777
0.00153023
0.162371
0.00156709
0.161953
0.00160289
0.161522
0.0016376
0.161079
0.00167121
0.160623
0.00170369
0.160156
0.00173502
0.159677
0.00176519
0.159187
0.00179419
0.158686
0.001822
0.158174
0.00184859
0.157652
0.00187391
0.15712
0.0018979
0.156578
0.00192046
0.156026
0.00194146
0.155465
0.00196075
0.154893
0.00197817
0.15431
0.0019935
0.00200698
0.164031
0.00124773
-0.164203
0.163839
0.00131193
0.163627
0.00137492
0.163395
0.00143701
0.163145
0.00149828
0.162877
0.00155868
0.162591
0.00161815
0.162288
0.00167662
0.161968
0.00173401
0.161631
0.00179025
0.161278
0.00184526
0.16091
0.00189898
0.160525
0.00195137
0.160126
0.00200238
0.159711
0.00205199
0.159282
0.00210017
0.158839
0.00214691
0.158382
0.0021922
0.157911
0.00223604
0.157427
0.00227842
0.15693
0.00231934
0.156419
0.00235878
0.155897
0.00239672
0.155361
0.00243314
0.154814
0.002468
0.154254
0.00250122
0.153682
0.00253276
0.153098
0.00256255
0.152501
0.00259055
0.002617
0.161205
0.00137145
-0.161328
0.16106
0.00145643
0.160895
0.00153992
0.16071
0.00162209
0.160505
0.00170303
0.160281
0.00178272
0.160038
0.00186112
0.159777
0.00193818
0.159497
0.00201383
0.159199
0.002088
0.158884
0.00216063
0.158551
0.00223168
0.158202
0.00230109
0.157835
0.00236882
0.157452
0.00243486
0.157053
0.00249918
0.156638
0.00256178
0.156208
0.00262264
0.155762
0.00268178
0.155301
0.0027392
0.154826
0.00279491
0.154336
0.00284892
0.153831
0.00290124
0.153312
0.00295188
0.15278
0.00300083
0.152233
0.00304811
0.151672
0.0030937
0.151097
0.00313764
0.150507
0.00317994
0.00322087
0.157946
0.00144768
-0.158023
0.157849
0.00155354
0.157731
0.0016577
0.157593
0.00176026
0.157435
0.00186129
0.157257
0.00196078
0.157059
0.00205869
0.156843
0.00215498
0.156607
0.00224958
0.156352
0.00234243
0.15608
0.00243348
0.155789
0.00252269
0.15548
0.00260999
0.155153
0.00269537
0.154809
0.00277878
0.154448
0.00286023
0.15407
0.00293969
0.153676
0.00301718
0.153265
0.0030927
0.152838
0.00316627
0.152395
0.00323793
0.151936
0.0033077
0.151461
0.00337561
0.150972
0.00344172
0.150466
0.00350606
0.149946
0.00356868
0.14941
0.00362964
0.148859
0.00368901
0.148292
0.00374684
0.0038034
0.154405
0.00148089
-0.154438
0.154351
0.00160736
0.154277
0.00173199
0.154182
0.00185484
0.154067
0.00197593
0.153933
0.00209525
0.153779
0.00221277
0.153605
0.00232844
0.153413
0.00244219
0.153201
0.00255397
0.152971
0.00266373
0.152722
0.00277142
0.152455
0.00287698
0.15217
0.0029804
0.151867
0.00308163
0.151547
0.00318067
0.151209
0.00327752
0.150854
0.00337217
0.150482
0.00346466
0.150093
0.003555
0.149688
0.00364325
0.149266
0.00372946
0.148828
0.00381369
0.148374
0.00389602
0.147903
0.00397652
0.147417
0.00405529
0.146914
0.00413243
0.146395
0.00420804
0.14586
0.00428221
0.00435522
0.150707
0.00147738
-0.150704
0.150691
0.00162397
0.150654
0.00176863
0.150598
0.00191135
0.150522
0.00205215
0.150426
0.00219102
0.150311
0.00232789
0.150176
0.00246272
0.150023
0.00259546
0.149851
0.00272604
0.14966
0.0028544
0.149451
0.00298051
0.149224
0.00310431
0.148979
0.00322576
0.148715
0.00334485
0.148434
0.00346155
0.148136
0.00357587
0.14782
0.00368781
0.147488
0.00379742
0.147138
0.00390472
0.146771
0.00400978
0.146388
0.00411268
0.145988
0.00421349
0.145572
0.00431234
0.145139
0.00440934
0.14469
0.00450462
0.144224
0.00459831
0.143742
0.00469057
0.143242
0.00478151
0.00487139
0.146958
0.00144419
-0.146925
0.146972
0.00161024
0.146966
0.00177429
0.146941
0.0019363
0.146897
0.00209626
0.146834
0.00225413
0.146752
0.00240987
0.146651
0.00256342
0.146532
0.00271472
0.146394
0.00286369
0.146238
0.0030103
0.146064
0.00315448
0.145873
0.00329619
0.145663
0.00343539
0.145436
0.00357205
0.145191
0.00370617
0.144929
0.00383774
0.14465
0.00396678
0.144354
0.00409332
0.144042
0.00421743
0.143712
0.00433916
0.143366
0.00445863
0.143004
0.00457594
0.142625
0.00469124
0.14223
0.00480469
0.141818
0.00491645
0.141389
0.0050267
0.140944
0.00513565
0.140482
0.00524342
0.0053503
0.143235
0.0013882
-0.143179
0.143272
0.00157299
0.143291
0.0017557
0.143291
0.0019363
0.143272
0.00211474
0.143236
0.00229099
0.14318
0.00246497
0.143107
0.00263663
0.143016
0.00280589
0.142907
0.0029727
0.14278
0.003137
0.142636
0.00329873
0.142475
0.00345783
0.142296
0.00361428
0.1421
0.00376804
0.141887
0.00391911
0.141657
0.00406747
0.141411
0.00421317
0.141148
0.00435623
0.140868
0.00449672
0.140573
0.00463473
0.140261
0.00477038
0.139933
0.00490382
0.139589
0.00503521
0.139229
0.00516475
0.138853
0.00529267
0.13846
0.00541919
0.138052
0.00554455
0.137626
0.00566895
0.00579264
0.139596
0.0013157
-0.139523
0.13965
0.00151848
0.139687
0.00171913
0.139706
0.00191758
0.139707
0.00211378
0.13969
0.00230769
0.139656
0.00249922
0.139604
0.0026883
0.139535
0.00287487
0.139449
0.00305886
0.139346
0.0032402
0.139226
0.00341883
0.139089
0.00359471
0.138935
0.00376778
0.138765
0.00393803
0.138579
0.00410544
0.138376
0.00427
0.138158
0.00443176
0.137923
0.00459074
0.137673
0.00474703
0.137407
0.00490073
0.137125
0.00505198
0.136828
0.00520095
0.136516
0.00534785
0.136187
0.00549292
0.135844
0.00563643
0.135484
0.00577868
0.135109
0.00591995
0.134717
0.0060605
0.00620063
0.136079
0.00123213
-0.135996
0.136146
0.00145219
0.136195
0.00167005
0.136227
0.00188563
0.136242
0.00209889
0.136239
0.00230974
0.136221
0.00251811
0.136185
0.00272393
0.136133
0.00292711
0.136064
0.00312758
0.135979
0.00332528
0.135878
0.00352013
0.13576
0.0037121
0.135627
0.00390112
0.135478
0.00408718
0.135313
0.00427024
0.135133
0.00445033
0.134937
0.00462745
0.134726
0.00480167
0.1345
0.00497306
0.134259
0.00514174
0.134003
0.00530787
0.133732
0.00547164
0.133447
0.00563331
0.133147
0.00579317
0.132832
0.00595154
0.132501
0.00610879
0.132156
0.00626528
0.131795
0.00642134
0.00657733
0.132709
0.00114202
-0.132619
0.132783
0.00137869
0.13284
0.00161309
0.13288
0.00184513
0.132904
0.00207476
0.132912
0.00230189
0.132904
0.00252643
0.132879
0.00274829
0.132839
0.0029674
0.132783
0.00318368
0.132711
0.00339705
0.132624
0.00360745
0.132521
0.00381481
0.132403
0.00401909
0.13227
0.00422026
0.132122
0.00441828
0.131959
0.00461317
0.131782
0.00480494
0.13159
0.00499365
0.131383
0.00517939
0.131163
0.00536228
0.130928
0.00554249
0.13068
0.00572025
0.130417
0.00589586
0.130141
0.00606964
0.12985
0.00624201
0.129546
0.0064134
0.129227
0.00658428
0.128893
0.00675508
0.00692622
0.129498
0.00104898
-0.129405
0.129575
0.00130166
0.129636
0.001552
0.129681
0.0017999
0.129711
0.00204528
0.129725
0.00228806
0.129723
0.00252814
0.129706
0.00276542
0.129673
0.00299983
0.129626
0.00323127
0.129563
0.00345967
0.129486
0.00368495
0.129393
0.00390705
0.129287
0.00412592
0.129165
0.00434151
0.12903
0.0045538
0.12888
0.00476279
0.128717
0.00496849
0.128539
0.00517095
0.128348
0.00537027
0.128144
0.00556657
0.127927
0.00576004
0.127696
0.00595094
0.127452
0.00613958
0.127195
0.00632636
0.126926
0.00651178
0.126643
0.00669635
0.126346
0.00688068
0.126036
0.00706532
0.00725081
0.12645
0.000955796
-0.126357
0.126527
0.00122397
0.12659
0.00148972
0.126637
0.00175293
0.126668
0.00201353
0.126685
0.0022714
0.126687
0.00252646
0.126674
0.00277859
0.126646
0.00302772
0.126603
0.00327374
0.126546
0.00351656
0.126475
0.00375613
0.12639
0.00399235
0.126291
0.00422518
0.126178
0.00445456
0.126051
0.00468046
0.125911
0.00490288
0.125757
0.00512181
0.125591
0.00533731
0.125412
0.00554946
0.12522
0.00575839
0.125016
0.0059643
0.124799
0.00616746
0.124571
0.00636821
0.12433
0.00656704
0.124077
0.00676448
0.123812
0.00696121
0.123535
0.00715796
0.123245
0.00735547
0.00755442
0.123563
0.000864556
-0.123471
0.123639
0.00114778
0.1237
0.00142849
0.123747
0.00170655
0.123778
0.00198188
0.123795
0.00225437
0.123798
0.0025239
0.123786
0.00279039
0.12376
0.00305371
0.12372
0.00331378
0.123666
0.00357051
0.123598
0.00382381
0.123517
0.00407361