/*--------------------------------*- C++ -*----------------------------------*\
  =========                 |
  \\      /  F ield         | OpenFOAM: The Open Source CFD Toolbox
   \\    /   O peration     | Website:  https://openfoam.org
    \\  /    A nd           | Version:  6.0
     \\/     M anipulation  |
\*---------------------------------------------------------------------------*/
FoamFile
{
    version     2.0;
    format      ascii;
    class       volVectorField;
    location    "29";
    object      U;
}
// * * * * * * * * * * * * * * * * * * * * * * * * * * * * * * * * * * * * * //

dimensions      [0 1 -1 0 0 0 0];

internalField   nonuniform List<vector> 
19200
(
(0.268631 -9.58782 -2.77969e-20)
(0.127413 -9.00197 1.36905e-20)
(0.146911 -8.56878 6.48873e-21)
(0.188461 -8.24522 5.86623e-21)
(0.227224 -7.99837 6.64765e-21)
(0.269741 -7.80312 4.07866e-22)
(0.314882 -7.64151 9.59299e-21)
(0.360363 -7.50092 -7.46476e-22)
(0.404903 -7.37267 8.53614e-21)
(0.447675 -7.25097 3.58122e-21)
(0.488102 -7.13214 -4.68996e-23)
(0.525832 -7.01396 5.75978e-21)
(0.560693 -6.89527 9.66604e-21)
(0.592646 -6.77562 -6.62944e-21)
(0.621752 -6.65498 8.49841e-21)
(0.648138 -6.53366 7.41696e-21)
(0.671977 -6.41208 -7.01822e-21)
(0.693466 -6.29076 1.2063e-20)
(0.712817 -6.17022 -7.73635e-21)
(0.730245 -6.05095 3.87011e-21)
(0.745961 -5.93338 5.4934e-21)
(0.760165 -5.81787 -1.81026e-21)
(0.773049 -5.70469 2.4418e-21)
(0.784787 -5.59402 -2.87086e-21)
(0.795539 -5.48594 6.2799e-21)
(0.805446 -5.38038 1.52271e-21)
(0.814628 -5.2772 -1.01792e-21)
(0.823194 -5.1761 6.06148e-22)
(0.831268 -5.07668 1.45553e-21)
(0.83877 -4.97834 5.67606e-21)
(0.519662 -9.58303 -6.40819e-21)
(0.364477 -9.01336 4.23386e-20)
(0.373341 -8.59018 -2.26002e-20)
(0.406941 -8.2739 -3.15096e-20)
(0.439659 -8.03247 -1.45205e-20)
(0.477333 -7.84084 -1.04975e-20)
(0.518346 -7.68129 -2.29999e-20)
(0.560095 -7.54151 2.88515e-21)
(0.601085 -7.41307 -4.74651e-21)
(0.640359 -7.29042 -1.72824e-20)
(0.677267 -7.17008 -4.40222e-20)
(0.711421 -7.05001 2.1612e-20)
(0.742639 -6.92918 -8.15306e-21)
(0.770892 -6.80726 3.09065e-21)
(0.796256 -6.68433 -1.90486e-20)
(0.818881 -6.56073 -7.07745e-21)
(0.838961 -6.43697 7.94269e-22)
(0.856718 -6.31359 2.42864e-20)
(0.872383 -6.19113 -1.27664e-20)
(0.886189 -6.0701 -7.10777e-21)
(0.898359 -5.95095 -2.82366e-20)
(0.909107 -5.83402 7.27966e-21)
(0.918631 -5.71961 -4.60569e-21)
(0.927111 -5.60786 8.20609e-21)
(0.934708 -5.49885 -1.03172e-20)
(0.941561 -5.39251 -5.99073e-21)
(0.947781 -5.28867 1.94992e-21)
(0.953483 -5.18703 3.06708e-21)
(0.958823 -5.08711 -5.41759e-21)
(0.963618 -4.98832 2.64177e-21)
(0.770658 -9.57229 -3.06746e-21)
(0.601932 -9.01889 8.63003e-21)
(0.600774 -8.60584 1.35886e-20)
(0.626887 -8.29698 1.09866e-19)
(0.653868 -8.06105 -6.46061e-20)
(0.686895 -7.87307 5.90945e-20)
(0.723888 -7.71559 3.67784e-20)
(0.761942 -7.57661 2.92878e-20)
(0.799365 -7.44797 -2.81152e-20)
(0.835083 -7.32438 -3.24514e-21)
(0.868385 -7.20255 7.20249e-20)
(0.898856 -7.08061 1.22501e-20)
(0.926316 -6.9577 -3.39025e-20)
(0.950747 -6.83358 2.66552e-20)
(0.972249 -6.70843 -1.29549e-22)
(0.990995 -6.58266 1.15449e-20)
(1.00721 -6.45682 8.33309e-21)
(1.02113 -6.33149 2.84331e-20)
(1.03301 -6.20723 -1.24934e-20)
(1.04311 -6.08457 -4.09495e-21)
(1.05166 -5.96395 -1.10594e-20)
(1.05889 -5.84574 4.94326e-20)
(1.065 -5.7302 -4.14665e-20)
(1.07017 -5.6175 1.34578e-20)
(1.07457 -5.50768 3.13838e-20)
(1.07833 -5.40068 -2.57125e-20)
(1.08157 -5.29631 3.44306e-20)
(1.08438 -5.19423 -3.6897e-21)
(1.08697 -5.09394 -3.91477e-21)
(1.08903 -4.99482 -2.65434e-20)
(1.02136 -9.55531 -1.0138e-19)
(0.839729 -9.01849 -9.19438e-20)
(0.829102 -8.61576 -1.14449e-19)
(0.848164 -8.31443 2.99119e-21)
(0.86971 -8.08405 6.95417e-21)
(0.898279 -7.89973 -1.33463e-19)
(0.931354 -7.74431 5.90891e-21)
(0.965742 -7.60611 1.77211e-20)
(0.999575 -7.47728 -2.94558e-21)
(1.03168 -7.35275 3.10526e-20)
(1.06128 -7.22945 -1.23147e-19)
(1.08796 -7.10569 -7.77991e-20)
(1.11155 -6.98076 2.87967e-20)
(1.13204 -6.85451 5.84167e-20)
(1.14956 -6.72723 -6.78954e-20)
(1.16431 -6.59939 -1.0739e-20)
(1.17655 -6.47159 -4.07999e-20)
(1.18654 -6.34442 -1.93694e-20)
(1.19456 -6.21849 3.28105e-20)
(1.20087 -6.09432 -4.21469e-20)
(1.20573 -5.97237 3.70092e-20)
(1.20937 -5.85299 -4.389e-20)
(1.21201 -5.73645 -3.48124e-20)
(1.21383 -5.62291 -2.51896e-20)
(1.21501 -5.51241 2.92988e-20)
(1.21566 -5.40487 -5.22719e-20)
(1.21588 -5.30008 5.43851e-21)
(1.2158 -5.19768 9.49074e-21)
(1.21563 -5.09715 -2.77267e-20)
(1.21491 -4.99782 5.61177e-21)
(1.27169 -9.53202 -6.01764e-20)
(1.07784 -9.01216 8.81564e-21)
(1.05825 -8.61991 7.88289e-20)
(1.07066 -8.32619 8.38471e-20)
(1.08705 -8.1014 6.11968e-20)
(1.11134 -7.92073 2.5584e-20)
(1.14059 -7.76735 3.97096e-20)
(1.17133 -7.62992 1.8514e-19)
(1.20155 -7.50089 -1.11384e-19)
(1.22996 -7.37542 3.05048e-21)
(1.25578 -7.25068 2.71009e-20)
(1.27857 -7.12516 1.19075e-19)
(1.29816 -6.99825 -8.1376e-20)
(1.31459 -6.86997 5.89713e-20)
(1.32802 -6.74066 -6.60791e-20)
(1.33867 -6.61086 1.13929e-19)
(1.34683 -6.48121 -3.36465e-20)
(1.3528 -6.35234 1.22798e-21)
(1.35686 -6.22486 5.51709e-20)
(1.35931 -6.09932 3.90358e-20)
(1.36042 -5.97616 -3.97989e-20)
(1.36042 -5.85574 5.41261e-20)
(1.35955 -5.73833 -2.48412e-20)
(1.35799 -5.62408 2.87242e-20)
(1.3559 -5.51302 3.21574e-20)
(1.35341 -5.40506 1.42841e-20)
(1.3506 -5.29997 4.35912e-20)
(1.34761 -5.19738 -1.54253e-20)
(1.34468 -5.09671 -5.05369e-21)
(1.34118 -4.99731 -2.46897e-20)
(1.52151 -9.50236 -4.3887e-20)
(1.31617 -8.99982 -2.88285e-20)
(1.28812 -8.61823 -8.95033e-20)
(1.29424 -8.33219 -2.37132e-19)
(1.30575 -8.113 7.95789e-20)
(1.32593 -7.93597 5.31547e-21)
(1.35143 -7.7846 -5.55438e-20)
(1.37855 -7.64793 1.1449e-20)
(1.40511 -7.51868 -7.80907e-21)
(1.42977 -7.3923 -1.46646e-19)
(1.45171 -7.26615 6.15607e-20)
(1.47049 -7.13891 1.07359e-19)
(1.48598 -7.01012 2.06486e-22)
(1.49824 -6.87989 4.02315e-20)
(1.50745 -6.74866 1.00543e-19)
(1.5139 -6.61701 -6.96635e-20)
(1.51789 -6.48564 1.23044e-19)
(1.51974 -6.3552 -5.91896e-20)
(1.51977 -6.22631 1.05471e-19)
(1.51829 -6.09952 -7.95392e-20)
(1.51559 -5.97529 3.55473e-20)
(1.51191 -5.85397 9.42451e-20)
(1.50748 -5.73582 5.73029e-21)
(1.50249 -5.62098 -8.80492e-20)
(1.49712 -5.50948 4.86534e-20)
(1.49147 -5.40122 1.49437e-20)
(1.48564 -5.29595 -1.61489e-20)
(1.47973 -5.19328 6.16657e-20)
(1.47403 -5.0926 2.19323e-20)
(1.46774 -4.99326 -2.10765e-20)
(1.77066 -9.46631 1.24035e-19)
(1.55458 -8.98142 -1.38198e-21)
(1.51858 -8.61065 -1.82027e-19)
(1.51879 -8.33236 3.73828e-20)
(1.52567 -8.11877 -5.32651e-20)
(1.54188 -7.94535 3.84885e-20)
(1.56371 -7.79598 8.65113e-20)
(1.58721 -7.66004 1.59741e-19)
(1.61008 -7.53058 -1.74455e-19)
(1.63092 -7.4033 4.28035e-20)
(1.64888 -7.27579 -3.0769e-20)
(1.66355 -7.14689 2.2609e-20)
(1.67482 -7.0163 -1.00406e-19)
(1.68279 -6.88422 -6.78762e-21)
(1.68769 -6.75117 1.64158e-19)
(1.68983 -6.6178 -1.13289e-19)
(1.68954 -6.48484 -7.2377e-20)
(1.6872 -6.35296 -5.32212e-20)
(1.68313 -6.2228 9.66386e-20)
(1.67766 -6.09491 2.10639e-20)
(1.67109 -5.96974 -9.63768e-20)
(1.66368 -5.84766 1.29202e-19)
(1.65566 -5.7289 -1.17113e-19)
(1.64723 -5.6136 7.80003e-20)
(1.63855 -5.50178 -4.44128e-20)
(1.62973 -5.39334 1.3579e-20)
(1.62086 -5.28801 2.1977e-20)
(1.61204 -5.18539 -9.8341e-20)
(1.60358 -5.08481 4.23565e-20)
(1.5945 -4.98565 7.00477e-22)
(2.01899 -9.42386 -1.21946e-19)
(1.79294 -8.95693 9.83772e-20)
(1.74949 -8.59712 -1.88189e-19)
(1.74415 -8.32662 3.61444e-19)
(1.74665 -8.11861 -1.02277e-19)
(1.75905 -7.94878 1.48036e-19)
(1.77727 -7.80137 -9.98057e-22)
(1.79715 -7.66615 -2.04757e-20)
(1.81628 -7.53648 -3.07754e-20)
(1.83321 -7.40833 -5.14904e-22)
(1.8471 -7.2795 -1.20669e-19)
(1.85755 -7.14901 6.30413e-20)
(1.86449 -7.0167 -7.69667e-20)
(1.86806 -6.88288 -6.03141e-21)
(1.86854 -6.74814 -2.18533e-19)
(1.86628 -6.61319 7.16314e-20)
(1.86164 -6.47877 4.20006e-20)
(1.85502 -6.3456 -4.76046e-20)
(1.84678 -6.21431 -5.57312e-21)
(1.83726 -6.08546 -7.39922e-20)
(1.82678 -5.9595 -2.66365e-20)
(1.8156 -5.83678 2.50466e-21)
(1.80396 -5.71754 -6.56876e-20)
(1.79206 -5.60192 -9.83744e-20)
(1.78006 -5.48991 4.11852e-21)
(1.76807 -5.3814 1.39798e-20)
(1.75615 -5.27614 3.15164e-20)
(1.74444 -5.17368 -7.81718e-20)
(1.73323 -5.07333 6.68643e-20)
(1.72135 -4.97449 -1.26754e-19)
(2.26633 -9.37502 -3.01522e-19)
(2.0311 -8.9263 3.66115e-19)
(1.98071 -8.57757 -3.93237e-19)
(1.97017 -8.31489 -1.08093e-19)
(1.96853 -8.11246 -7.03476e-20)
(1.97726 -7.94618 -7.73472e-20)
(1.99192 -7.80071 -7.08946e-20)
(2.00818 -7.66619 -1.49318e-20)
(2.02353 -7.53631 -7.28158e-20)
(2.03647 -7.40731 -1.56551e-20)
(2.04619 -7.27721 1.25751e-19)
(2.05231 -7.14522 -7.11013e-20)
(2.05481 -7.01129 -8.54762e-20)
(2.05388 -6.87585 -1.45962e-19)
(2.04984 -6.73954 3.08266e-19)
(2.04307 -6.60314 -1.19129e-19)
(2.034 -6.46741 4.4775e-20)
(2.02304 -6.33309 -1.68558e-19)
(2.01057 -6.20083 6.49631e-20)
(1.99695 -6.07116 -2.69732e-20)
(1.98251 -5.94455 3.38822e-20)
(1.96753 -5.82134 -1.1816e-20)
(1.95225 -5.70176 1.08357e-19)
(1.93686 -5.58593 -3.85369e-20)
(1.92153 -5.47385 1.07587e-19)
(1.90636 -5.36541 -2.20079e-19)
(1.89141 -5.26033 1.41039e-19)
(1.8768 -5.15815 3.9387e-20)
(1.86286 -5.05814 7.40331e-20)
(1.84819 -4.95975 -2.23908e-19)
(2.51251 -9.31979 4.7617e-19)
(2.2689 -8.88951 -9.16233e-20)
(2.21209 -8.55195 1.69597e-19)
(2.1967 -8.2971 -4.87967e-20)
(2.19116 -8.10023 1.72323e-19)
(2.19634 -7.93747 1.65544e-19)
(2.2075 -7.79389 1.89346e-19)
(2.22012 -7.66006 -1.58314e-20)
(2.23163 -7.52998 -1.85981e-19)
(2.2405 -7.40017 2.73501e-19)
(2.24595 -7.26888 -2.20306e-20)
(2.24763 -7.13546 1.9587e-19)
(2.24558 -7.00002 7.17494e-20)
(2.24005 -6.86307 2.61999e-20)
(2.23139 -6.72533 4.18679e-20)
(2.22004 -6.58762 5.86482e-20)
(2.20646 -6.45074 9.85354e-20)
(2.19108 -6.31542 -2.86993e-20)
(2.17433 -6.18233 1.47117e-19)
(2.15657 -6.052 6.84219e-20)
(2.13814 -5.92489 -1.4309e-19)
(2.11933 -5.80132 2.55486e-19)
(2.10038 -5.68153 -3.39131e-19)
(2.08149 -5.56562 3.22347e-19)
(2.06283 -5.45361 -1.07196e-19)
(2.04449 -5.34535 -4.46994e-20)
(2.0265 -5.24057 -1.18795e-20)
(2.00902 -5.13879 8.01356e-20)
(1.99238 -5.03924 2.89536e-20)
(1.97493 -4.94143 -3.43328e-20)
(2.75739 -9.2582 -2.7164e-19)
(2.50617 -8.84653 2.68451e-19)
(2.44345 -8.52021 -7.35757e-20)
(2.42358 -8.2732 2.14317e-19)
(2.41435 -8.08184 2.1307e-20)
(2.4161 -7.92255 4.80821e-20)
(2.4238 -7.78085 -3.80535e-19)
(2.43278 -7.64769 -6.82094e-20)
(2.44038 -7.51743 2.49525e-19)
(2.44511 -7.38686 1.92148e-19)
(2.44618 -7.25443 -3.28871e-19)
(2.44332 -7.11968 1.9325e-19)
(2.43662 -6.98284 -1.93972e-19)
(2.42638 -6.84451 1.35051e-19)
(2.41301 -6.70548 -2.27257e-19)
(2.397 -6.56661 -1.70292e-19)
(2.37884 -6.42873 1.00648e-20)
(2.35899 -6.29257 -7.92958e-20)
(2.3379 -6.15881 1.40804e-19)
(2.31596 -6.02797 5.66178e-20)
(2.29351 -5.9005 -3.71408e-20)
(2.27085 -5.77672 -1.07979e-20)
(2.24822 -5.65685 4.48642e-20)
(2.22583 -5.54101 -1.49868e-19)
(2.20383 -5.42917 2.5018e-19)
(2.18231 -5.32122 -6.09952e-20)
(2.16131 -5.21686 -1.05304e-19)
(2.14097 -5.1156 2.21554e-19)
(2.12165 -5.01662 3.01987e-20)
(2.10146 -4.91954 -3.05657e-20)
(3.00078 -9.19026 1.08774e-20)
(2.74277 -8.79734 -1.48072e-19)
(2.67465 -8.48231 -1.38406e-19)
(2.65062 -8.24312 -2.3234e-19)
(2.63793 -8.05723 8.13153e-21)
(2.63638 -7.90137 -1.71883e-19)
(2.64065 -7.7615 2.0404e-19)
(2.64595 -7.62901 -2.00781e-20)
(2.64959 -7.49859 1.69571e-19)
(2.65008 -7.3673 -1.39632e-19)
(2.64668 -7.23381 -7.26122e-20)
(2.63918 -7.09784 4.00624e-20)
(2.62773 -6.95971 2.18683e-20)
(2.61269 -6.82014 -2.24893e-19)
(2.59452 -6.67998 1.32925e-19)
(2.57377 -6.54011 -6.67734e-20)
(2.55096 -6.40138 1.89644e-19)
(2.52659 -6.26454 -6.29972e-20)
(2.50112 -6.13026 6.59241e-20)
(2.47497 -5.99907 1.65337e-20)
(2.44847 -5.87139 1.1404e-19)
(2.42194 -5.74755 -2.31857e-20)
(2.39562 -5.62774 1.8964e-19)
(2.36972 -5.51208 -2.11657e-19)
(2.34439 -5.40055 -7.22916e-20)
(2.31971 -5.29302 5.93513e-20)
(2.29571 -5.18921 -5.94099e-21)
(2.27254 -5.08858 -1.64433e-19)
(2.25058 -4.9903 8.4741e-20)
(2.22767 -4.89407 -9.7163e-20)
(3.24253 -9.116 4.59779e-19)
(2.97853 -8.74193 1.24439e-19)
(2.90551 -8.43821 1.51562e-19)
(2.87767 -8.20681 2.07683e-19)
(2.86172 -8.02633 3.15417e-19)
(2.85697 -7.87386 -9.61864e-21)
(2.85784 -7.73579 4.61745e-20)
(2.85945 -7.60397 3.63643e-19)
(2.85906 -7.47341 -7.4851e-20)
(2.85523 -7.34146 -1.3654e-19)
(2.84726 -7.207 2.42043e-19)
(2.83501 -7.0699 4.15757e-20)
(2.81871 -6.93062 1.98249e-21)
(2.79877 -6.78995 5.87839e-20)
(2.77574 -6.6488 1.06261e-19)
(2.75018 -6.50809 -2.20311e-19)
(2.72266 -6.36868 1.88253e-19)
(2.69372 -6.23133 3.1884e-20)
(2.66384 -6.0967 1.86339e-19)
(2.63344 -5.96531 -1.0139e-19)
(2.60288 -5.83757 1.685e-19)
(2.57247 -5.7138 -1.80165e-19)
(2.54245 -5.5942 1.74951e-19)
(2.51304 -5.47885 2.48741e-20)
(2.48438 -5.36775 -1.18467e-19)
(2.45656 -5.26077 -3.91298e-20)
(2.42958 -5.15761 2.29197e-19)
(2.40361 -5.05773 -3.46563e-20)
(2.37905 -4.96027 4.46878e-20)
(2.35345 -4.86502 -3.01224e-20)
(3.48246 -9.03544 4.67162e-20)
(3.21327 -8.68029 1.09181e-19)
(3.13586 -8.38788 4.5017e-19)
(3.10454 -8.16422 -7.38884e-19)
(3.08554 -7.9891 -7.43749e-20)
(3.07769 -7.83995 -8.11061e-20)
(3.07519 -7.70366 3.61634e-20)
(3.07306 -7.5725 4.90928e-20)
(3.06858 -7.44184 8.28059e-20)
(3.06033 -7.30929 -2.2371e-19)
(3.0477 -7.17395 -4.44598e-20)
(3.03061 -7.03584 1.26325e-19)
(3.00936 -6.89554 1.37924e-19)
(2.98445 -6.75392 -1.37933e-19)
(2.95646 -6.61194 -1.38049e-19)
(2.92603 -6.47055 2.23578e-19)
(2.89376 -6.33063 1.47176e-19)
(2.86021 -6.19294 -3.78344e-20)
(2.82588 -6.05812 -9.49784e-20)
(2.79121 -5.92669 1.73306e-20)
(2.75658 -5.79905 -2.21853e-19)
(2.72228 -5.6755 2.68311e-19)
(2.68857 -5.55623 -1.84244e-19)
(2.65565 -5.44133 -7.98404e-21)
(2.62368 -5.33078 1.22303e-19)
(2.59272 -5.22446 -3.83496e-20)
(2.56278 -5.12207 -1.16523e-19)
(2.53405 -5.02307 1.79967e-20)
(2.50692 -4.92653 -4.86024e-21)
(2.47869 -4.83241 2.34999e-20)
(3.72042 -8.94863 -3.43718e-20)
(3.44683 -8.61242 -1.13621e-19)
(3.36554 -8.33129 -5.18705e-19)
(3.33105 -8.11532 1.87235e-19)
(3.3092 -7.94549 -5.80712e-20)
(3.29834 -7.7996 1.91128e-19)
(3.29248 -7.66506 1.40774e-20)
(3.28658 -7.53456 -2.25347e-19)
(3.27794 -7.40384 3.42567e-19)
(3.26519 -7.27076 -3.11115e-19)
(3.2478 -7.13463 -1.27391e-20)
(3.22578 -6.99563 7.64214e-20)
(3.19949 -6.85446 -1.32664e-19)
(3.16952 -6.71205 1.52112e-19)
(3.13652 -6.5694 -2.91726e-19)
(3.10116 -6.42751 -6.6825e-20)
(3.06408 -6.28724 1.77548e-19)
(3.02589 -6.14937 -6.08103e-22)
(2.98709 -6.01453 -1.14295e-19)
(2.94814 -5.88322 3.10587e-19)
(2.90941 -5.75584 -1.66672e-19)
(2.87122 -5.63265 -2.25124e-19)
(2.83382 -5.51385 7.53752e-20)
(2.7974 -5.39952 -2.20384e-19)
(2.76212 -5.28965 -5.35148e-20)
(2.72805 -5.1841 -7.01625e-21)
(2.69519 -5.08261 -1.45347e-19)
(2.66373 -4.98459 1.74006e-19)
(2.63408 -4.8891 -6.23115e-20)
(2.60326 -4.79625 1.05822e-19)
(3.95624 -8.8556 -1.63045e-19)
(3.67904 -8.53832 -4.55366e-19)
(3.59435 -8.26843 2.24043e-19)
(3.55702 -8.06007 -2.15107e-19)
(3.53251 -7.89544 -1.61354e-19)
(3.51873 -7.75277 -9.45344e-20)
(3.50951 -7.61994 -3.47233e-19)
(3.4998 -7.49011 2.37136e-19)
(3.48693 -7.35937 -5.89197e-19)
(3.4696 -7.22584 -2.1594e-19)
(3.44735 -7.08903 7.74981e-20)
(3.4203 -6.94928 1.30348e-19)
(3.3889 -6.80737 -1.78881e-21)
(3.3538 -6.66433 -2.51738e-19)
(3.31571 -6.52119 5.89119e-20)
(3.27537 -6.37895 -2.30773e-19)
(3.23346 -6.23852 -1.66985e-19)
(3.19059 -6.10065 -1.0107e-19)
(3.1473 -5.96596 -2.07872e-20)
(3.10406 -5.83493 1.72014e-19)
(3.06124 -5.70795 2.47486e-19)
(3.01915 -5.58527 -7.45306e-20)
(2.97806 -5.46708 -7.20065e-20)
(2.93816 -5.35345 1.40169e-19)
(2.89959 -5.24437 7.83321e-20)
(2.86243 -5.13972 -6.20967e-20)
(2.82666 -5.03923 -6.95378e-20)
(2.79251 -4.94231 7.79055e-21)
(2.76039 -4.84799 6.26831e-20)
(2.72705 -4.75655 -9.41195e-20)
(4.18976 -8.75641 -3.25929e-20)
(3.90973 -8.458 5.76078e-19)
(3.82214 -8.19929 4.5023e-19)
(3.78228 -7.99845 3.53925e-19)
(3.75527 -7.83894 -2.30843e-19)
(3.73864 -7.6994 -4.66045e-20)
(3.72608 -7.56826 4.25103e-20)
(3.71252 -7.43912 3.00755e-19)
(3.69534 -7.30841 1.13976e-19)
(3.67334 -7.17451 2.77401e-19)
(3.64614 -7.03714 -3.87326e-19)
(3.61398 -6.89676 3.94655e-20)
(3.57738 -6.75428 1.58641e-19)
(3.53708 -6.61077 9.74759e-20)
(3.49386 -6.4673 2.04663e-19)
(3.44849 -6.32491 -1.39261e-19)
(3.4017 -6.18449 -1.30379e-19)
(3.35414 -6.04679 2.47827e-20)
(3.30635 -5.91241 2.79871e-19)
(3.25881 -5.78184 -4.5302e-19)
(3.2119 -5.65541 1.58079e-19)
(3.16593 -5.53339 -1.22183e-21)
(3.12116 -5.41594 3.00951e-19)
(3.07778 -5.30314 -1.30373e-19)
(3.03594 -5.19497 -6.80705e-21)
(2.9957 -5.09133 -8.33105e-20)
(2.95706 -4.99195 7.91916e-20)
(2.92025 -4.89625 1.94953e-20)
(2.88572 -4.80321 -8.80613e-20)
(2.84992 -4.71331 3.90479e-19)
(4.4208 -8.65108 -6.05093e-19)
(4.13873 -8.37149 -3.50557e-19)
(4.04871 -8.12386 -9.059e-19)
(4.00662 -7.93043 -4.15567e-19)
(3.9773 -7.77594 3.88886e-19)
(3.95788 -7.63949 -2.31536e-19)
(3.94197 -7.51001 -5.62076e-20)
(3.92451 -7.38157 -1.54845e-19)
(3.90296 -7.25094 2.619e-19)
(3.87619 -7.11677 -5.98214e-20)
(3.84397 -6.97894 -9.45013e-20)
(3.80661 -6.83809 -1.20954e-20)
(3.76474 -6.69519 -3.90082e-19)
(3.71918 -6.55138 -1.69071e-20)
(3.67077 -6.40777 1.03714e-19)
(3.62034 -6.2654 -1.16431e-20)
(3.56866 -6.12517 -4.0568e-19)
(3.51638 -5.98781 3.95746e-19)
(3.46408 -5.85392 -3.89697e-19)
(3.41224 -5.72395 1.52337e-19)
(3.36124 -5.59824 2.15e-20)
(3.3114 -5.47702 8.77286e-21)
(3.26296 -5.36045 -1.61835e-19)
(3.21612 -5.2486 5.45323e-20)
(3.17102 -5.14146 1.70896e-22)
(3.12773 -5.03893 1.7937e-20)
(3.08624 -4.94078 -4.08401e-19)
(3.04682 -4.84641 1.10389e-19)
(3.00993 -4.75477 1.19332e-19)
(2.97174 -4.66657 1.24834e-19)
(4.6492 -8.53969 1.17884e-18)
(4.36587 -8.27879 4.05272e-19)
(4.27391 -8.04214 2.37598e-19)
(4.22988 -7.85601 3.78293e-19)
(4.19839 -7.70644 -4.8326e-20)
(4.17624 -7.57299 2.87635e-19)
(4.15697 -7.44515 6.43158e-19)
(4.13557 -7.31744 -8.21958e-20)
(4.10956 -7.18696 3.65171e-20)
(4.07796 -7.0526 7.64453e-19)
(4.04062 -6.91446 -1.00637e-19)
(3.99798 -6.77327 1.05969e-19)
(3.95078 -6.63012 -3.94439e-20)
(3.8999 -6.48618 -4.62085e-21)
(3.84626 -6.34261 5.55941e-19)
(3.79074 -6.20045 2.15032e-20)
(3.73414 -6.06059 5.94124e-19)
(3.67714 -5.92375 -7.52915e-20)
(3.62033 -5.79052 -1.29056e-19)
(3.56419 -5.66132 3.01447e-19)
(3.50911 -5.53647 -2.76989e-19)
(3.45541 -5.4162 3.04049e-19)
(3.40331 -5.30063 1.64208e-19)
(3.35303 -5.18985 -1.33693e-19)
(3.30469 -5.08385 2.02554e-19)
(3.25837 -4.98255 2.37601e-20)
(3.21406 -4.88574 -8.49956e-20)
(3.17207 -4.79281 4.52374e-20)
(3.13287 -4.70268 3.04571e-19)
(3.09236 -4.61633 4.42449e-20)
(4.87481 -8.42229 -2.02746e-19)
(4.59098 -8.17996 -4.05151e-19)
(4.49755 -7.95415 1.67479e-19)
(4.45185 -7.77518 -6.75368e-19)
(4.41834 -7.63041 3.22554e-19)
(4.39352 -7.4999 -5.93131e-19)
(4.37087 -7.37369 -3.91704e-19)
(4.34547 -7.24673 1.0873e-19)
(4.31494 -7.11646 1.08147e-19)
(4.27841 -6.98203 -5.26518e-19)
(4.23589 -6.8437 -2.28162e-19)
(4.1879 -6.70233 1.04137e-19)
(4.1353 -6.55909 -2.89801e-19)
(4.07906 -6.41521 -1.15533e-19)
(4.02015 -6.27186 -7.79184e-20)
(3.95952 -6.13008 -7.83964e-20)
(3.89798 -5.99077 -3.27216e-19)
(3.83626 -5.85463 -2.05755e-19)
(3.77494 -5.72222 3.63677e-20)
(3.71452 -5.59395 6.69543e-20)
(3.65537 -5.47013 7.12886e-20)
(3.59782 -5.35093 -2.48268e-19)
(3.54209 -5.23651 9.30305e-20)
(3.48837 -5.12692 -1.9314e-19)
(3.4368 -5.02217 1.8157e-19)
(3.38747 -4.9222 -2.3932e-19)
(3.34036 -4.82683 7.49533e-20)
(3.29582 -4.73545 -1.1783e-19)
(3.25437 -4.64697 -1.67072e-19)
(3.21164 -4.56261 -1.63448e-20)
(5.09745 -8.29895 -4.24322e-19)
(4.81391 -8.07501 -3.62255e-19)
(4.71947 -7.85989 -3.59344e-19)
(4.67237 -7.68793 -2.6685e-19)
(4.63697 -7.54785 8.20928e-19)
(4.60951 -7.42021 1.15373e-19)
(4.58346 -7.2956 3.52706e-19)
(4.554 -7.16943 5.40562e-19)
(4.51887 -7.03945 2.61079e-19)
(4.47735 -6.90505 -3.46469e-19)
(4.42956 -6.76667 5.57491e-19)
(4.37616 -6.62529 -5.42938e-19)
(4.31811 -6.48214 5.12051e-19)
(4.25646 -6.33849 5.93715e-20)
(4.19226 -6.19554 1.30285e-19)
(4.1265 -6.05433 4.2061e-20)
(4.06002 -5.91575 5.29175e-19)
(3.99357 -5.78048 -7.8949e-20)
(3.92776 -5.64907 7.0301e-20)
(3.86306 -5.52189 2.3877e-19)
(3.79987 -5.39923 -2.6614e-19)
(3.73848 -5.28127 2.11881e-19)
(3.67913 -5.16811 7.54239e-21)
(3.62199 -5.05984 9.58647e-20)
(3.56722 -4.95644 1.75317e-19)
(3.51488 -4.8579 -3.03787e-20)
(3.46499 -4.76406 1.74146e-19)
(3.41794 -4.67434 2.51645e-19)
(3.37428 -4.58761 -2.73068e-19)
(3.3294 -4.5054 -1.56391e-19)
(5.31699 -8.16972 1.2413e-18)
(5.03449 -7.96401 -1.3214e-19)
(4.93949 -7.7594 2.76131e-19)
(4.89124 -7.59428 5.12159e-19)
(4.85406 -7.45875 -1.47066e-18)
(4.82399 -7.33391 1.57838e-19)
(4.79452 -7.21089 -5.62643e-19)
(4.76094 -7.08555 5.58755e-19)
(4.72115 -6.95595 -4.45209e-19)
(4.67455 -6.82171 2.4083e-19)
(4.62143 -6.68342 -8.76096e-19)
(4.56256 -6.54218 2.58844e-20)
(4.49901 -6.39929 -2.89279e-19)
(4.43192 -6.25606 4.35685e-19)
(4.36241 -6.1137 -4.64318e-19)
(4.2915 -5.97325 -2.59382e-20)
(4.22009 -5.83558 -3.76766e-19)
(4.14893 -5.70136 -3.02744e-20)
(4.07863 -5.5711 3.01165e-20)
(4.00968 -5.44517 8.37426e-20)
(3.94246 -5.32383 -4.69575e-19)
(3.87726 -5.20722 -1.42941e-20)
(3.8143 -5.09547 -2.6275e-19)
(3.75376 -4.98861 -6.2005e-20)
(3.69579 -4.88668 -1.61548e-19)
(3.64045 -4.78966 -1.76372e-19)
(3.58779 -4.69744 -1.83484e-19)
(3.53823 -4.60947 3.02766e-19)
(3.49241 -4.52462 8.10781e-20)
(3.44547 -4.44472 -1.49798e-19)
(5.53326 -8.03469 -8.26443e-19)
(5.25258 -7.847 2.95644e-19)
(5.15747 -7.65269 -5.08839e-19)
(5.10828 -7.49422 7.72217e-20)
(5.06942 -7.36311 8.34856e-19)
(5.03675 -7.24101 -4.23868e-19)
(5.00383 -7.11958 -4.4384e-19)
(4.96608 -6.99511 -3.80263e-19)
(4.92155 -6.86597 1.86922e-20)
(4.86981 -6.73201 2.44459e-19)
(4.81128 -6.59397 -1.78474e-19)
(4.74689 -6.45305 8.14575e-21)
(4.6778 -6.3106 5.45928e-19)
(4.60525 -6.16798 -2.76187e-19)
(4.53042 -6.02639 7.21646e-20)
(4.45437 -5.88688 -2.2444e-19)
(4.37804 -5.75029 8.504e-20)
(4.30218 -5.61729 1.86721e-19)
(4.22742 -5.48835 2.08948e-19)
(4.15424 -5.36383 -2.29618e-19)
(4.08301 -5.24394 3.49768e-20)
(4.01402 -5.12883 1.9689e-19)
(3.94747 -5.01859 3.42253e-19)
(3.88354 -4.91326 8.95739e-20)
(3.82237 -4.81289 -3.52042e-19)
(3.76404 -4.71747 4.10029e-19)
(3.70861 -4.62697 -2.05279e-19)
(3.65655 -4.54084 -2.44969e-19)
(3.60859 -4.45797 -1.50702e-19)
(3.55968 -4.38053 -1.91991e-19)
(5.74613 -7.89393 4.36376e-19)
(5.46804 -7.72403 -3.39997e-19)
(5.37324 -7.53979 1.30285e-19)
(5.32332 -7.38776 6.90963e-19)
(5.28285 -7.26095 1.87667e-19)
(5.24759 -7.14152 -1.62547e-19)
(5.21118 -7.02168 3.92309e-19)
(5.1692 -6.89814 9.13464e-20)
(5.11987 -6.76956 3.68897e-19)
(5.06292 -6.63601 2.03789e-19)
(4.99893 -6.49837 7.75536e-21)
(4.92897 -6.35794 1.28241e-19)
(4.85431 -6.21612 -4.09205e-20)
(4.77628 -6.07429 7.09907e-20)
(4.69612 -5.93366 1.94899e-19)
(4.61495 -5.79527 -1.08107e-19)
(4.5337 -5.65995 2.65783e-19)
(4.45317 -5.52833 2.70746e-19)
(4.37397 -5.40087 -3.09506e-19)
(4.29659 -5.27789 3.16698e-19)
(4.22138 -5.1596 6.74388e-19)
(4.14862 -5.04611 -4.35919e-19)
(4.07851 -4.9375 4.37851e-19)
(4.0112 -4.83382 -3.0777e-19)
(3.94684 -4.73508 -4.33556e-20)
(3.8855 -4.64135 3.29653e-19)
(3.82727 -4.55263 -6.685e-20)
(3.77269 -4.46841 2.47979e-19)
(3.72261 -4.38763 2.46276e-19)
(3.67182 -4.31282 -4.60055e-19)
(5.95549 -7.74752 -4.21886e-19)
(5.68076 -7.59517 1.9035e-19)
(5.58665 -7.42071 8.07411e-20)
(5.53616 -7.27492 -8.05022e-19)
(5.49413 -7.15226 -4.19021e-19)
(5.45628 -7.03545 3.14121e-19)
(5.41634 -6.91722 -8.75498e-19)
(5.37007 -6.79466 1.05652e-18)
(5.31587 -6.66676 -5.95226e-19)
(5.25365 -6.53376 7.13369e-20)
(5.18416 -6.39668 -1.13048e-19)
(5.10859 -6.25691 -3.39974e-19)
(5.02835 -6.11591 7.0002e-19)
(4.94483 -5.97506 2.64527e-19)
(4.85935 -5.83558 -2.75313e-19)
(4.77306 -5.69849 6.7405e-21)
(4.68693 -5.5646 1.51749e-19)
(4.60175 -5.43453 -3.31985e-19)
(4.51815 -5.3087 6.93668e-20)
(4.4366 -5.18741 2.28222e-19)
(4.35745 -5.07084 -9.65934e-20)
(4.28095 -4.9591 1.58274e-19)
(4.20729 -4.85223 -3.12545e-19)
(4.13661 -4.75027 4.50203e-19)
(4.06905 -4.65327 1.04913e-19)
(4.00469 -4.56128 -2.85796e-19)
(3.94363 -4.47439 -2.47521e-19)
(3.88649 -4.39215 -4.0494e-23)
(3.83424 -4.31354 3.40147e-19)
(3.7816 -4.24157 -7.72677e-20)
(6.16127 -7.59552 -1.17269e-19)
(5.89064 -7.46045 -8.01156e-19)
(5.79755 -7.29548 9.57532e-19)
(5.74661 -7.15569 6.49639e-19)
(5.70306 -7.03706 6.50511e-19)
(5.6626 -6.92283 1.80976e-19)
(5.6191 -6.80622 2.72554e-19)
(5.56848 -6.68473 1.37592e-19)
(5.50935 -6.55762 -5.53455e-19)
(5.4418 -6.42531 1.00952e-18)
(5.36676 -6.28896 -8.1249e-19)
(5.28557 -6.15004 -5.51014e-20)
(5.19972 -6.01004 1.17241e-19)
(5.11073 -5.87036 -5.23941e-19)
(5.01994 -5.73222 4.57967e-19)
(4.92856 -5.59661 -1.39078e-19)
(4.83759 -5.46432 -3.51692e-19)
(4.74781 -5.33595 1.35337e-19)
(4.65985 -5.21189 -2.61798e-19)
(4.57417 -5.09243 -2.31747e-19)
(4.49111 -4.9777 -2.47326e-19)
(4.4109 -4.86781 5.63922e-20)
(4.33372 -4.76278 3.16191e-20)
(4.25968 -4.66264 -6.06093e-19)
(4.1889 -4.56743 -2.30662e-19)
(4.12148 -4.47724 1.4833e-19)
(4.05752 -4.3922 1.84295e-19)
(3.99772 -4.31195 -2.54855e-19)
(3.94319 -4.23558 -9.7425e-20)
(3.88865 -4.16656 7.99818e-21)
(6.36346 -7.43801 -9.97503e-20)
(6.09761 -7.31993 5.18809e-19)
(6.00579 -7.16409 -1.48333e-19)
(5.95447 -7.03008 -1.81883e-19)
(5.90942 -6.91536 -1.00537e-18)
(5.86633 -6.80369 -2.22705e-19)
(5.81921 -6.68874 4.17845e-19)
(5.76419 -6.5684 -2.78762e-19)
(5.70008 -6.44219 -3.06236e-20)
(5.62716 -6.31073 -5.61962e-20)
(5.54654 -6.17529 3.07956e-19)
(5.4597 -6.0374 -4.83037e-19)
(5.36826 -5.8986 -3.22706e-19)
(5.2738 -5.76028 3.78725e-19)
(5.17774 -5.62365 -2.15686e-19)
(5.08131 -5.4897 -2.60613e-19)
(4.98553 -5.35918 5.55119e-19)
(4.8912 -5.23266 -8.85415e-20)
(4.79894 -5.11052 3.26649e-19)
(4.70918 -4.993 -2.98205e-19)
(4.62226 -4.88023 -2.40647e-19)
(4.53838 -4.77228 2.1076e-19)
(4.4577 -4.66918 -2.37125e-20)
(4.38031 -4.57093 -1.56475e-19)
(4.30632 -4.47757 1.38551e-19)
(4.23581 -4.38921 -4.30281e-19)
(4.16889 -4.30602 2.62731e-19)
(4.10631 -4.22776 -4.29395e-21)
(4.04935 -4.15358 -2.74054e-19)
(3.99292 -4.08737 3.87948e-19)
(6.56236 -7.27522 4.05298e-19)
(6.30172 -7.17367 -1.00876e-18)
(6.21118 -7.02654 -8.58831e-20)
(6.15952 -6.89807 4.72027e-19)
(6.11297 -6.78718 -1.2038e-19)
(6.06723 -6.67804 -3.45841e-19)
(6.01645 -6.5648 1.58203e-19)
(5.95698 -6.44571 1.84855e-19)
(5.88784 -6.32054 1.48172e-20)
(5.80952 -6.19009 2.27045e-19)
(5.72329 -6.05574 7.27867e-19)
(5.6308 -5.91908 -2.54946e-19)
(5.53377 -5.78166 6.49834e-20)
(5.43387 -5.64489 -1.72421e-19)
(5.33258 -5.50997 6.55475e-19)
(5.23116 -5.37785 -1.18854e-19)
(5.13063 -5.24926 3.88127e-19)
(5.03182 -5.12474 -1.51681e-19)
(4.93531 -5.00464 1.61971e-19)
(4.84154 -4.88918 2.4544e-19)
(4.75081 -4.77846 4.19819e-20)
(4.66331 -4.67255 1.64732e-19)
(4.57916 -4.57144 -1.36017e-19)
(4.49845 -4.47514 3.78591e-19)
(4.42124 -4.38367 -1.54638e-19)
(4.34761 -4.29717 5.66161e-19)
(4.27767 -4.21587 -1.63661e-19)
(4.21222 -4.13952 1.12834e-19)
(4.15274 -4.06735 -2.13433e-19)
(4.09456 -4.00405 3.75204e-19)
(6.75874 -7.10743 -8.87589e-19)
(6.50313 -7.02155 3.32036e-20)
(6.41356 -6.88266 -5.18807e-19)
(6.36148 -6.75959 9.31948e-20)
(6.31345 -6.6525 2.7384e-20)
(6.26504 -6.54594 -4.55075e-19)
(6.21058 -6.43448 -8.58931e-19)
(6.14661 -6.31675 4.27125e-19)
(6.0724 -6.19276 -6.05755e-19)
(5.98865 -6.06349 -3.18928e-19)
(5.89681 -5.93042 -1.8165e-19)
(5.79867 -5.79517 -1.42709e-19)
(5.69608 -5.65933 2.61159e-21)
(5.59078 -5.52431 -5.15768e-19)
(5.48431 -5.39127 3.35311e-19)
(5.37796 -5.26115 -5.53922e-19)
(5.27276 -5.13465 -1.41094e-19)
(5.16954 -5.01227 1.50793e-19)
(5.06886 -4.89434 1.90034e-19)
(4.97116 -4.78104 1.89294e-19)
(4.8767 -4.67247 1.45689e-19)
(4.78563 -4.56865 -3.65357e-19)
(4.69806 -4.46957 3.66875e-19)
(4.61402 -4.37523 -3.95183e-20)
(4.53355 -4.28567 -9.82993e-20)
(4.45669 -4.20103 -3.90406e-19)
(4.38358 -4.12153 -2.07276e-19)
(4.31501 -4.04685 3.83369e-19)
(4.25247 -3.97665 -1.26613e-19)
(4.19192 -3.91789 -1.21985e-19)
(6.95292 -6.93382 3.85636e-19)
(6.70165 -6.86271 3.54122e-20)
(6.61258 -6.73214 -9.96408e-20)
(6.56006 -6.61467 -2.26949e-20)
(6.5106 -6.51146 -1.81004e-19)
(6.45956 -6.40753 6.15904e-19)
(6.4014 -6.29794 -2.88886e-19)
(6.33292 -6.18167 1.89593e-19)
(6.25361 -6.05902 7.78657e-20)
(6.16441 -5.93109 2.80102e-19)
(6.06695 -5.79947 -1.07763e-19)
(5.96318 -5.66583 6.10207e-19)
(5.85507 -5.53177 -5.21427e-20)
(5.74442 -5.39868 3.93362e-19)
(5.63282 -5.26771 -6.61399e-19)
(5.52161 -5.13976 -4.96582e-20)
(5.41183 -5.0155 4.25335e-19)
(5.30428 -4.8954 -2.65111e-19)
(5.19954 -4.77974 -1.85974e-19)
(5.098 -4.66871 -3.19919e-19)
(4.9999 -4.56234 -2.80276e-19)
(4.90536 -4.46066 3.00266e-19)
(4.81444 -4.36362 -2.82282e-19)
(4.72712 -4.2712 6.10294e-20)
(4.64338 -4.18343 2.27764e-19)
(4.56318 -4.10046 1.57948e-19)
(4.48661 -4.02234 1.48239e-19)
(4.4142 -3.94877 1.09971e-19)
(4.34628 -3.88089 -2.96709e-19)
(4.27991 -3.82791 -1.19214e-19)
(10.0357 0.0122502 5.0556e-21)
(10.0244 -0.252056 4.99519e-20)
(10.0067 -0.514686 1.736e-19)
(9.98299 -0.776047 9.50364e-20)
(9.9527 -1.03626 -2.013e-19)
(9.91567 -1.29526 6.09409e-20)
(9.87185 -1.55294 -6.39735e-20)
(9.82128 -1.80917 -1.61754e-19)
(9.764 -2.06378 4.14093e-19)
(9.70004 -2.31661 -9.86829e-20)
(9.62946 -2.56749 -9.94594e-20)
(9.55233 -2.81624 -2.11528e-19)
(9.46871 -3.0627 -6.09519e-19)
(9.37867 -3.30669 5.57428e-20)
(9.2823 -3.54805 -2.74329e-20)
(9.17968 -3.78661 -1.92563e-19)
(9.07088 -4.02222 4.1216e-19)
(8.95601 -4.25471 2.2465e-19)
(8.83515 -4.48393 4.32358e-19)
(8.70841 -4.70973 2.12562e-19)
(8.57588 -4.93197 -4.75876e-19)
(8.43767 -5.15048 1.85241e-20)
(8.29389 -5.36515 -9.08168e-19)
(8.14466 -5.57582 1.38016e-18)
(7.99009 -5.78238 -4.54384e-19)
(7.83032 -5.98472 -5.90606e-19)
(7.66548 -6.18275 -8.72123e-20)
(7.49574 -6.37642 -9.40542e-21)
(7.32119 -6.56581 -4.55383e-19)
(7.1425 -6.75102 8.03801e-19)
(10.096 -0.124407 1.98821e-20)
(10.0756 -0.389209 2.93225e-20)
(10.0477 -0.652226 7.28352e-21)
(10.013 -0.913626 -2.56243e-19)
(9.9714 -1.17344 -2.30294e-19)
(9.92286 -1.43155 2.03798e-19)