/*--------------------------------*- C++ -*----------------------------------*\
| =========                 |                                                 |
| \\      /  F ield         | OpenFOAM: The Open Source CFD Toolbox           |
|  \\    /   O peration     | Version:  v1912                                 |
|   \\  /    A nd           | Website:  www.openfoam.com                      |
|    \\/     M anipulation  |                                                 |
\*---------------------------------------------------------------------------*/
FoamFile
{
    version     2.0;
    format      ascii;
    class       surfaceScalarField;
    location    "40";
    object      phi;
}
// * * * * * * * * * * * * * * * * * * * * * * * * * * * * * * * * * * * * * //

dimensions      [0 3 -1 0 0 0 0];
oriented        oriented;


internalField   nonuniform List<scalar> 
18940
(
0.00035735
-0.234378
0.234021
0.00137574
-0.21635
0.215332
0.00287622
-0.204815
0.203315
0.00468863
-0.197028
0.195215
0.00668245
-0.191265
0.189272
0.00875617
-0.186463
0.184389
0.0108362
-0.182033
0.179953
0.0128731
-0.177681
0.175644
0.0148369
-0.173283
0.171319
0.0167123
-0.16881
0.166934
0.0184944
-0.164283
0.162501
0.0201858
-0.159745
0.158053
0.0217935
-0.155243
0.153635
0.0233273
-0.150821
0.149288
0.0247984
-0.146516
0.145045
0.0262184
-0.14235
0.14093
0.0275988
-0.138338
0.136957
0.0289501
-0.134475
0.133124
0.0302807
-0.130744
0.129413
-0.127103
0.125788
0.0315959
0.000380757
-0.234759
0.00141902
-0.217388
0.00293023
-0.206326
0.00474699
-0.198845
0.00673534
-0.193254
0.00879384
-0.188522
0.0108501
-0.184089
0.0128564
-0.179687
0.0147846
-0.175211
0.016621
-0.170646
0.0183626
-0.166025
0.020013
-0.161395
0.0215804
-0.15681
0.0230752
-0.152316
0.0245091
-0.14795
0.0258939
-0.143735
0.0272415
-0.139685
0.0285626
-0.135797
0.0298662
-0.132047
-0.128395
0.0311581
0.000402168
-0.235161
0.00145665
-0.218443
0.00297659
-0.207846
0.00479396
-0.200662
0.00677321
-0.195233
0.00881285
-0.190561
0.0108417
-0.186118
0.012814
-0.18166
0.0147033
-0.1771
0.016498
-0.172441
0.0181965
-0.167723
0.019804
-0.163003
0.0213293
-0.158336
0.0227835
-0.153771
0.0241788
-0.149345
0.0255271
-0.145084
0.0268406
-0.140999
0.0281302
-0.137086
0.0294054
-0.133323
-0.129662
0.0306729
0.00041603
-0.235577
0.00148556
-0.219512
0.00301339
-0.209374
0.0048288
-0.202477
0.00679559
-0.1972
0.00881282
-0.192578
0.0108109
-0.188116
0.0127457
-0.183594
0.0145933
-0.178948
0.0163437
-0.174191
0.017997
-0.169376
0.0195595
-0.164565
0.0210411
-0.159817
0.0224534
-0.155183
0.0238088
-0.1507
0.0251196
-0.146394
0.0263978
-0.142277
0.0276549
-0.138343
0.0289008
-0.134568
-0.130905
0.030143
0.00042729
-0.236005
0.00150909
-0.220594
0.00304196
-0.210907
0.00485217
-0.204288
0.00680296
-0.199151
0.00879421
-0.19457
0.010758
-0.19008
0.0126524
-0.185489
0.0144554
-0.180751
0.016159
-0.175895
0.017765
-0.170982
0.0192809
-0.166081
0.0207173
-0.161254
0.0220864
-0.156552
0.0234008
-0.152014
0.0246728
-0.147666
0.0259149
-0.143519
0.0271385
-0.139567
0.0283542
-0.135784
-0.132121
0.0295705
0.000436376
-0.236441
0.00152764
-0.221685
0.00306258
-0.212442
0.00486431
-0.206089
0.00679562
-0.201082
0.00875743
-0.196531
0.0106836
-0.192006
0.0125346
-0.18734
0.0142903
-0.182506
0.0159449
-0.177549
0.0175016
-0.172539
0.0189691
-0.167549
0.0203589
-0.162644
0.0216836
-0.157877
0.0229559
-0.153287
0.0241883
-0.148899
0.0253931
-0.144724
0.0265823
-0.140756
0.0277669
-0.136969
-0.133311
0.0289566
0.000443853
-0.236885
0.0015419
-0.222783
0.0030758
-0.213976
0.00486569
-0.207879
0.00677407
-0.20299
0.00870304
-0.19846
0.0105885
-0.193892
0.0123931
-0.189144
0.0140991
-0.184212
0.0157024
-0.179153
0.0172079
-0.174045
0.0186255
-0.168966
0.0199673
-0.163985
0.0212462
-0.159156
0.0224753
-0.154516
0.0236669
-0.15009
0.0248334
-0.14589
0.0259871
-0.14191
0.0271397
-0.138121
-0.134473
0.0283018
0.000449877
-0.237335
0.00155219
-0.223886
0.00308202
-0.215506
0.0048568
-0.209654
0.00673886
-0.204872
0.00863173
-0.200353
0.0104734
-0.195733
0.0122289
-0.1909
0.0138826
-0.185866
0.0154326
-0.180703
0.0168851
-0.175497
0.018251
-0.170332
0.0195433
-0.165278
0.0207753
-0.160388
0.0219598
-0.1557
0.0231094
-0.15124
0.0242364
-0.147017
0.0253533
-0.143027
0.0264726
-0.139241
-0.135606
0.0276061
0.000454554
-0.237789
0.0015588
-0.22499
0.0030817
-0.217029
0.00483818
-0.21141
0.0066907
-0.206725
0.00854432
-0.202207
0.0103393
-0.197528
0.012043
-0.192603
0.0136422
-0.187465
0.0151367
-0.182197
0.0165342
-0.176895
0.0178469
-0.171645
0.0190882
-0.166519
0.0202716
-0.161571
0.0214102
-0.156839
0.0225163
-0.152346
0.0236022
-0.148103
0.0246807
-0.144105
0.025765
-0.140325
-0.13671
0.0268684
0.000457956
-0.238247
0.00156201
-0.226094
0.0030753
-0.218542
0.00481049
-0.213146
0.00663037
-0.208545
0.00844177
-0.204018
0.0101873
-0.199274
0.0118367
-0.194253
0.013379
-0.189008
0.014816
-0.183634
0.0161568
-0.178235
0.0174144
-0.172902
0.0186029
-0.167707
0.0197362
-0.162704
0.0208271
-0.15793
0.0218879
-0.153407
0.0229307
-0.149146
0.0239686
-0.145143
0.0250158
-0.141372
-0.137781
0.026087
0.000460191
-0.238708
0.00156216
-0.227196
0.0030634
-0.220043
0.00477448
-0.214857
0.00655883
-0.210329
0.00832521
-0.205785
0.0100187
-0.200967
0.0116114
-0.195846
0.0130948
-0.190491
0.0144722
-0.185012
0.0157543
-0.179518
0.016955
-0.174103
0.0180888
-0.168841
0.01917
-0.163785
0.0202111
-0.158971
0.0212243
-0.15442
0.0222215
-0.150143
0.023216
-0.146138
0.024223
-0.142379
-0.138817
0.0252593
0.000461413
-0.239169
0.00155971
-0.228294
0.00304668
-0.22153
0.00473106
-0.216541
0.00647718
-0.212075
0.00819596
-0.207503
0.00983496
-0.202606
0.0113689
-0.19738
0.0127912
-0.191913
0.0141072
-0.186328
0.0153286
-0.180739
0.0164703
-0.175245
0.0175474
-0.169918
0.0185741
-0.164812
0.019563
-0.15996
0.0205257
-0.155383
0.0214742
-0.151092
0.0224216
-0.147085
0.0233846
-0.143342
-0.139815
0.024382
0.000461901
-0.239631
0.00155527
-0.229388
0.00302599
-0.223001
0.00468128
-0.218196
0.00638673
-0.213781
0.00805556
-0.209172
0.00963795
-0.204189
0.0111111
-0.198853
0.0124705
-0.193273
0.0137231
-0.18758
0.014882
-0.181898
0.0159626
-0.176325
0.0169806
-0.170936
0.0179501
-0.165782
0.0188837
-0.160893
0.0197926
-0.156292
0.0206884
-0.151987
0.0215843
-0.147981
0.0224981
-0.144256
-0.140768
0.0234513
0.000462134
-0.240093
0.00154969
-0.230475
0.00300238
-0.224453
0.00462639
-0.21982
0.00628894
-0.215443
0.00790576
-0.210789
0.00942965
-0.205713
0.0108402
-0.200263
0.0121351
-0.194567
0.0133227
-0.188768
0.0144172
-0.182992
0.0154347
-0.177343
0.0163909
-0.171893
0.0173001
-0.166691
0.0181747
-0.161768
0.0190255
-0.157143
0.0198635
-0.152825
0.020702
-0.14882
0.0215596
-0.145113
-0.141669
0.022461
0.000462914
-0.240556
0.00154415
-0.231557
0.00297708
-0.225886
0.00456774
-0.221411
0.00618541
-0.217061
0.00774845
-0.212352
0.00921232
-0.207177
0.010559
-0.20161
0.0117881
-0.195797
0.0129094
-0.189889
0.013938
-0.184021
0.0148902
-0.178295
0.0157821
-0.172785
0.0166277
-0.167536
0.0174388
-0.162579
0.0182259
-0.15793
0.0189993
-0.153599
0.0197717
-0.149592
0.0205627
-0.145904
-0.142509
0.0214026
0.000465386
-0.241021
0.00153993
-0.232631
0.00295129
-0.227298
0.00450671
-0.222966
0.00607784
-0.218632
0.00758571
-0.21386
0.00898844
-0.208579
0.0102704
-0.202892
0.0114329
-0.196959
0.0124872
-0.190943
0.0134487
-0.184983
0.0143344
-0.179181
0.0151597
-0.17361
0.0159385
-0.168315
0.0166819
-0.163323
0.0173993
-0.158647
0.0180998
-0.154299
0.0187954
-0.150288
0.0195067
-0.146616
-0.143275
0.0202727
0.000470942
-0.241492
0.00153837
-0.233699
0.00292632
-0.228686
0.00444485
-0.224485
0.00596808
-0.220155
0.00741973
-0.215312
0.00876063
-0.20992
0.00997747
-0.204109
0.0110733
-0.198055
0.0120604
-0.19193
0.0129546
-0.185877
0.0137728
-0.179999
0.0145302
-0.174367
0.0152398
-0.169025
0.0159119
-0.163995
0.0165548
-0.15929
0.017176
-0.154921
0.0177856
-0.150897
0.0184041
-0.147234
-0.143943
0.0190716
0.000481911
-0.241974
0.00154208
-0.234759
0.00290464
-0.230048
0.00438427
-0.225965
0.00585808
-0.221629
0.00725262
-0.216706
0.00853143
-0.211199
0.00968348
-0.205261
0.0107134
-0.199085
0.0116341
-0.192851
0.0124617
-0.186704
0.0132126
-0.18075
0.013901
-0.175056
0.0145387
-0.169662
0.0151349
-0.164591
0.0156969
-0.159852
0.0162313
-0.155455
0.0167445
-0.15141
0.0172492
-0.147739
-0.144463
0.0177697
0.000505873
-0.24248
0.00155828
-0.235811
0.00289032
-0.23138
0.00432688
-0.227401
0.00574909
-0.223051
0.00708579
-0.218043
0.00830288
-0.212416
0.00939135
-0.206349
0.0103572
-0.200051
0.0112142
-0.193708
0.0119781
-0.187468
0.0126642
-0.181436
0.013285
-0.175676
0.0138495
-0.170227
0.0143635
-0.165105
0.0148308
-0.160319
0.0152531
-0.155877
0.0156294
-0.151787
0.0159641
-0.148074
-0.144818
0.0163193
0.000562946
-0.243043
0.00159528
-0.236843
0.00288309
-0.232668
0.00427148
-0.22879
0.0056406
-0.22442
0.00691964
-0.219322
0.00807625
-0.213573
0.00910338
-0.207376
0.0100086
-0.200956
0.0108063
-0.194506
0.0115126
-0.188175
0.0121418
-0.182065
0.0127045
-0.176239
0.0132063
-0.170729
0.013647
-0.165546
0.0140193
-0.160692
0.0143061
-0.156164
0.0144816
-0.151962
0.0145403
-0.148132
-0.144989
0.0147115
0.250714
0.000414556
-0.251128
0.250325
0.000388184
0.249944
0.000380903
0.249563
0.000381025
0.249179
0.00038396
0.248791
0.000388362
0.248398
0.000393504
0.247999
0.0003988
0.247595
0.000403856
0.247186
0.000408467
0.246774
0.000412536
0.246358
0.000416037
0.245939
0.000418953
0.245518
0.000421259
0.245095
0.000422832
0.244671
0.000423465
0.244249
0.000422111
0.243831
0.000418221
0.243428
0.000402594
0.000385487
0.25266
0.00102219
-0.253267
0.252016
0.00103134
0.251345
0.00105239
0.250647
0.00107933
0.249923
0.00110764
0.249175
0.00113597
0.248405
0.00116384
0.247613
0.00119075
0.246801
0.00121629
0.245969
0.00124019
0.245119
0.00126235
0.244252
0.00128274
0.24337
0.00130135
0.242473
0.00131818
0.241563
0.00133308
0.24064
0.00134586
0.239707
0.0013554
0.238764
0.00136144
0.237809
0.00135771
0.00135085
0.251423
0.00159332
-0.251994
0.250787
0.00166712
0.250098
0.00174114
0.249361
0.00181627
0.248579
0.00189015
0.247753
0.00196157
0.246887
0.0020302
0.245982
0.00209582
0.24504
0.00215817
0.244063
0.0022171
0.243053
0.00227255
0.242011
0.00232458
0.240939
0.00237327
0.239838
0.00241872
0.23871
0.00246096
0.237556
0.00250001
0.236376
0.00253536
0.235171
0.00256724
0.233935
0.00259328
0.00261765
0.247305
0.00203615
-0.247748
0.246792
0.00217952
0.246215
0.00231829
0.245578
0.00245387
0.244882
0.00258562
0.244131
0.00271274
0.243326
0.00283489
0.24247
0.00295191
0.241565
0.00306367
0.240612
0.00317007
0.239613
0.00327116
0.238571
0.00336704
0.237486
0.00345793
0.236361
0.0035441
0.235196
0.00362584
0.233992
0.00370349
0.232751
0.00377717
0.23147
0.00384748
0.23015
0.00391372
0.00397789
0.241049
0.00231488
-0.241328
0.240699
0.00252947
0.24028
0.0027373
0.239795
0.0029392
0.239245
0.00313513
0.238633
0.00332463
0.237961
0.00350738
0.23723
0.00368317
0.236441
0.00385188
0.235598
0.00401349
0.234701
0.00416806
0.233752
0.00431578
0.232753
0.00445699
0.231705
0.00459215
0.230609
0.00472179
0.229466
0.00484662
0.228276
0.00496722
0.227039
0.00508455
0.225754
0.00519877
0.00531156
0.233447
0.00243815
-0.23357
0.233253
0.00272326
0.23299
0.00300044
0.232659
0.00327
0.232262
0.00353196
0.231801
0.00378603
0.231276
0.00403187
0.23069
0.00426924
0.230044
0.00449803
0.22934
0.00471818
0.228578
0.0049298
0.22776
0.00513315
0.226889
0.00532864
0.225964
0.00551693
0.224987
0.0056988
0.223958
0.00587528
0.222878
0.00604745
0.221746
0.00621666
0.220561
0.00638378
0.00655065
0.225201
0.00243643
-0.225199
0.225134
0.0027895
0.225001
0.0031339
0.224801
0.00346956
0.224537
0.00379639
0.224209
0.00411413
0.223818
0.00442243
0.223366
0.00472102
0.222855
0.00500972
0.222284
0.00528848
0.221657
0.00555739
0.220973
0.00581675
0.220235
0.00606707
0.219443
0.00630915
0.218597
0.00654404
0.2177
0.00677312
0.216749
0.00699793
0.215745
0.00722039
0.214687
0.00744202
0.00766499
0.216837
0.00234584
-0.216746
0.216863
0.00276334
0.216825
0.00317157
0.216725
0.00357022
0.216562
0.00395909
0.216338
0.00433786
0.216054
0.00470616
0.215712
0.00506364
0.215311
0.00541009
0.214854
0.00574539
0.214342
0.00606962
0.213776
0.00638308
0.213157
0.00668636
0.212485
0.00698036
0.211763
0.00726641
0.21099
0.00754626
0.210166
0.00782201
0.20929
0.00809617
0.208361
0.00837111
0.0086495
0.208702
0.00219965
-0.208556
0.208788
0.00267779
0.208813
0.00314609
0.208779
0.00360411
0.208687
0.00405153
0.208537
0.00448794
0.20833
0.00491292
0.208067
0.00532605
0.207751
0.00572704
0.20738
0.0061157
0.206958
0.00649207
0.206484
0.00685639
0.205962
0.00720929
0.20539
0.00755177
0.204771
0.00788538
0.204105
0.00821226
0.203392
0.00853515
0.202631
0.00885732
0.20182
0.00918221
0.00951335
0.200996
0.00202478
-0.200822
0.201114
0.00256
0.201176
0.0030848
0.201181
0.00359864
0.201131
0.00410109
0.201028
0.00459167
0.200871
0.00506986
0.200662
0.00553517
0.200401
0.0059872
0.200092
0.00642568
0.199733
0.00685053
0.199328
0.00726193
0.198876
0.00766044
0.198381
0.00804712
0.197843
0.00842373
0.197262
0.00879271
0.19664
0.00915758
0.195975
0.00952249
0.195264
0.00989239
0.0102721
0.193813
0.00184108
-0.193629
0.193943
0.00243026
0.194019
0.00300845
0.194043
0.00357498
0.194015
0.00412932
0.193935
0.00467089
0.193806
0.00519909
0.193628
0.00571333
0.193402
0.00621308
0.19313
0.00669794
0.192813
0.00716769
0.192452
0.00762236
0.19205
0.0080624
0.191609
0.00848878
0.191129
0.00890339
0.190613
0.00930889
0.190061
0.00970973
0.189472
0.0101109
0.188845
0.0105197
0.0109424
0.187175
0.00166194
-0.186996
0.187303
0.00230258
0.187379
0.00293163
0.187406
0.00354826
0.187384
0.00415185
0.187313
0.00474174
0.187195
0.00531722
0.18703
0.00587757
0.186821
0.00642214
0.186569
0.00695037
0.186275
0.00746182
0.185941
0.0079563
0.185569
0.00843405
0.185162
0.00889578
0.184722
0.00934343
0.184251
0.0097796
0.183751
0.0102098
0.183222
0.0106398
0.182662
0.0110802
0.0115393
0.181062
0.00149569
-0.180896
0.181179
0.00218595
0.181247
0.00286387
0.181266
0.00352854
0.181239
0.00417927
0.181165
0.00481532
0.181047
0.00543585
0.180884
0.00604004
0.180679
0.00662706
0.180434
0.00719615
0.180149
0.00774665
0.179827
0.00827801
0.179471
0.00879017
0.179083
0.00928334
0.178667
0.00975937
0.178227
0.0102203
0.177763
0.0106731
0.17728
0.0111231
0.176773
0.0115869
0.0120736
0.175433
0.00134716
-0.175284
0.175533
0.00208552
0.175586
0.00281074
0.175593
0.00352189
0.175554
0.00421814
0.175471
0.00489866
0.175344
0.00556251
0.175175
0.00620873
0.174966
0.00683635
0.174718
0.00744436
0.174433
0.0080318
0.174113
0.00859772
0.173761
0.00914162
0.173382
0.00966294
0.172978
0.0101632
0.172555
0.0106431
0.172117
0.0111115
0.171669
0.0115713
0.171206
0.012049
0.0125513
0.170234
0.00121863
-0.170106
0.170316
0.00200399
0.170351
0.00277528
0.170341
0.0035316
0.170287
0.00427206
0.17019
0.0049957
0.170051
0.00570149
0.169872
0.00638836
0.169653
0.00705514
0.169397
0.00770058
0.169105
0.0083234
0.168781
0.00892218
0.168427
0.00949581
0.168047
0.0100427
0.167646
0.0105638
0.167232
0.0110574
0.166809
0.0115344
0.166389
0.0119914
0.165965
0.0124724
0.012971
0.165412
0.00111088
-0.165304
0.165474
0.00194217
0.165491
0.00275847
0.165463
0.00355887
0.165393
0.00434241
0.165281
0.00510804
0.165128
0.00585464
0.164935
0.006581
0.164704
0.00728579
0.164437
0.00796753
0.164136
0.00862459
0.163803
0.00925504
0.163442
0.00985707
0.163057
0.0104278
0.162653
0.0109672
0.162241
0.0114698
0.161826
0.011949
0.16143
0.0123883
0.161041
0.0128606
0.0133207
0.160914
0.00102342
-0.160827
0.160957
0.00189957
0.160955
0.00275987
0.160911
0.00360331
0.160824
0.00442887
0.160697
0.00523541
0.16053
0.00602174
0.160324
0.00678654
0.160082
0.00752832
0.159804
0.00824539
0.159493
0.00893578
0.159151
0.00959707
0.158781
0.0102267
0.158389
0.0108204
0.157979
0.0113767
0.157564
0.0118847
0.157153
0.0123606
0.156776
0.0127649
0.156418
0.0132186
0.0135747
0.156693
0.000954405
-0.156624
0.156718
0.00187466
0.1567
0.0027778
0.156641
0.00366312
0.15654
0.00452949
0.1564
0.00537572
0.156221
0.00620056
0.156005
0.0070026
0.155753
0.00778023
0.155467
0.00853155
0.155148
0.00925436
0.154799
0.00994579
0.154423
0.0106026
0.154025
0.0112191
0.153609
0.0117922
0.15319
0.0123041
0.152778
0.0127724
0.152423
0.0131202
0.152089
0.0135522
0.0137018
0.152707
0.000901897
-0.152654
0.152717
0.00186458
0.152686
0.00280904
0.152614
0.00373469
0.152503
0.00464025
0.152355
0.00552451
0.152169
0.00638621
0.151948
0.00722386
0.151692
0.00803575
0.151404
0.00881986
0.151084
0.0095738
0.150736
0.0102944
0.150361
0.0109779
0.149962
0.0116174
0.149546
0.0122086
0.149124
0.0127262
0.148708
0.0131879
0.148374
0.0134546
0.148081
0.0138449
0.0136505
0.148916
-0.148878
0.000864326
0.148915
0.0018654
0.148875
0.0028492
0.148796
0.00381297
0.148681
0.00475533
0.148531
0.00567519
0.148346
0.00657129
0.148127
0.00744211
0.147877
0.00828585
0.147597
0.00910043
0.147287
0.00988339
0.14695
0.0106313
0.146588
0.0113406
0.146202
0.012003
0.145796
0.0126145
0.145379
0.0131432
0.144956
0.0136108
0.144606
0.0138052
0.144348
0.0141025
0.0130093
0.254345
7.40587e-05
-0.254419
0.254309
3.63353e-05
0.254276
3.24648e-05
0.254235
4.13627e-05
0.254179
5.57611e-05
0.254106
7.35806e-05
0.254012
9.35189e-05
0.253898
0.000114452
0.253762
0.000135566
0.253606
0.000156355
0.253429
0.00017638
0.253234
0.000195357
0.25302
0.000213775
0.252788
0.000232684
0.252538
0.000249959
0.252272
0.000265124
0.251995
0.000277772
0.251707
0.000287815
0.251417
0.000289396
0.000289391
0.256182
-0.000241112
-0.255866
0.256435
-0.000217276
0.256644
-0.000176465
0.256808
-0.000122775
0.256927
-6.2721e-05
0.256999
1.09285e-06
0.257025
6.75239e-05
0.257004
0.000135481
0.256936
0.000204043
0.25682
0.000272276
0.256657
0.000338937
0.25645
0.000402788
0.256201
0.000462602
0.255904
0.000529799
0.255562
0.000591476
0.255179
0.000648563
0.254756
0.000700946
0.254295
0.000748564
0.253798
0.000786762
0.000819758
0.251603
-0.00089693
-0.250948
0.252186
-0.000800237
0.252704
-0.000693695
0.253158
-0.000577469
0.253551
-0.00045507
0.25388
-0.000328741
0.254148
-0.00019963
0.254352
-6.91469e-05
0.254494
6.27195e-05
0.25457
0.000195416
0.254584
0.000325082
0.254536
0.00045134
0.254422
0.000576483
0.25425
0.000701343
0.25402
0.000822079
0.25373
0.00093781
0.253383
0.00104805
0.252979
0.00115271
0.252516
0.00124982
0.00134221
0.243279
-0.00183125
-0.242345
0.244141
-0.0016619
0.244933
-0.00148528
0.245656
-0.00130066
0.24631
-0.0011097
0.246896
-0.000914218
0.247412
-0.000715552
0.247858
-0.000514967
0.248233
-0.000313152
0.248536
-0.000107349
0.248767
9.43035e-05
0.24893
0.000288739
0.249021
0.000485111
0.249044
0.000678465
0.248998
0.000867745
0.248884
0.00105204
0.248701
0.0012306
0.248451
0.00140306
0.248132
0.00156836
0.00172705
0.233195
-0.00296414
-0.232062
0.23426
-0.00272667
0.235256
-0.00248169
0.236185
-0.00222877
0.237044
-0.00196883
0.237833
-0.00170336
0.238551
-0.00143378
0.239197
-0.00116132
0.239771
-0.000886922
0.240275
-0.000611378
0.240707
-0.000337902
0.241064
-6.79272e-05
0.241349
0.00020063
0.241561
0.000465857
0.241702
0.000727364
0.24177
0.000983713
0.241766
0.00123417
0.241691
0.00147814
0.241545
0.00171479
0.00194407
0.222639
-0.00422332
-0.22138
0.223835
-0.00392261
0.224966
-0.00361283
0.226031
-0.00329411
0.22703
-0.00296728
0.22796
-0.00263376
0.228822
-0.00229511
0.229613
-0.0019528
0.230334
-0.00160827
0.230986
-0.00126287
0.231566
-0.00091816
0.232074
-0.000575423
0.23251
-0.000235526
0.232876
9.9991e-05
0.233171
0.000432618
0.233393
0.000761241
0.233544
0.00108318
0.233624
0.00139835
0.233632
0.00170614
0.00200629
0.212394
-0.00555131
-0.211066
0.213663
-0.00519155
0.214871
-0.0048206
0.216016
-0.00443911
0.217096
-0.00404812
0.218112
-0.00364925
0.219061
-0.00324428
0.219943
-0.00283498
0.220758
-0.00242298
0.221505
-0.00200974
0.222183
-0.00159666
0.222793
-0.00118516
0.223334
-0.000776034
0.223804
-0.000370012
0.224211
2.52146e-05
0.224546
0.000425978
0.224812
0.000817107
0.22501
0.00120092
0.225139
0.00157734
0.00194597
0.20287
-0.00690639
-0.201515
0.204169
-0.0064909
0.205411
-0.00606183
0.206592
-0.00562019
0.207711
-0.00516748
0.208767
-0.00470569
0.20976
-0.00423697
0.210688
-0.00376331
0.211552
-0.00328657
0.212351
-0.00280835
0.213084
-0.00233013
0.213752
-0.00185329
0.214355
-0.00137889
0.214893
-0.000907891
0.21536
-0.000441662
0.215772
1.36847e-05
0.216113
0.000476551
0.216389
0.000924666
0.2166
0.00136623
0.0017999
0.194226
-0.00826081
-0.192872
0.195527
-0.00779213
0.196773
-0.00730717
0.19796
-0.00680726
0.199087
-0.00629457
0.200153
-0.00577168
0.201157
-0.00524116
0.202099
-0.00470533
0.202979
-0.00416625
0.203796
-0.00362569
0.204551
-0.0030852
0.205244
-0.00254611
0.205875
-0.00200959
0.206443
-0.00147658
0.20695
-0.000948485
0.20739
-0.000426607
0.207776
9.05584e-05
0.208097
0.000603544
0.208357
0.00110639
0.00160138
0.18647
-0.00959783
-0.185132
0.187755
-0.00907792
0.188987
-0.00853855
0.190161
-0.00798142
0.191276
-0.0074097
0.192331
-0.00682681
0.193326
-0.00623581
0.19426
-0.0056394
0.195133
-0.00503986
0.195947
-0.0044391
0.1967
-0.00383868
0.197394
-0.00323992
0.198029
-0.00264397
0.198604
-0.00205179
0.19912
-0.00146439
0.199576
-0.000882666
0.199974
-0.000307361
0.200315
0.000261947
0.200597
0.000824279
0.00137713
0.179529
-0.0109088
-0.178218
0.18079
-0.0103393
0.181998
-0.00974636
0.183149
-0.00913222
0.184241
-0.00850168
0.185273
-0.0078592
0.186246
-0.00720844
0.187159
-0.0065525
0.188013
-0.00589387
0.188808
-0.00523455
0.189546
-0.00457607
0.190226
-0.0039197
0.190848
-0.0032665
0.191414
-0.00261742
0.191923
-0.00197329
0.192375
-0.00133498
0.192771
-0.000703015
0.193113
-8.03267e-05
0.193399
0.000538429
0.00114644
0.1733
-0.0121906
-0.172018
0.174534
-0.0115735
0.175715
-0.010927
0.176838
-0.0102552
0.177901
-0.00956537
0.178905
-0.00886314
0.17985
-0.00815283
0.180735
-0.00743794
0.181562
-0.00672116
0.182332
-0.00600448
0.183046
-0.00528936
0.183703
-0.00457696
0.184305
-0.00386824
0.184851
-0.00316406
0.185343
-0.00246519
0.185781
-0.00177247
0.186164
-0.00108664
0.186493
-0.000409273
0.186772
0.000259804
0.000922385
0.167673
-0.0134442
-0.166419
0.168881
-0.0127816
0.170035
-0.0120809
0.17113
-0.01135
0.172164
-0.0105998
0.173138
-0.00983711
0.174053
-0.00906695
0.174908
-0.00829329
0.175706
-0.00751892
0.176447
-0.00674571
0.177132
-0.00597497
0.177763
-0.0052077
0.17834
-0.00444473
0.178862
-0.00368682
0.179332
-0.00293469
0.179749
-0.00218914
0.180113
-0.00145065
0.180423
-0.000719953
0.180687
-3.82478e-06
0.000713326
0.162549
-0.0146733
-0.16132
0.163736
-0.0139686
0.164867
-0.0132117
0.165936
-0.0124192
0.166943
-0.0116067
0.167888
-0.0107821
0.168772
-0.00995124
0.169597
-0.00911852
0.170365
-0.00828671
0.171077
-0.00745743
0.171733
-0.00663175
0.172336
-0.00581045
0.172886
-0.00499417
0.173382
-0.00418355
0.173827
-0.00337924
0.17422
-0.00258196
0.174561
-0.00179239
0.174853
-0.00101182
0.175092
-0.000242076
0.000520886
0.157844
-0.0158846
-0.156633
0.159018
-0.015142
0.160131
-0.0143249
0.161179
-0.013467
0.162161
-0.0125891
0.163079
-0.0117
0.163935
-0.0108068
0.16473
-0.00991419
0.165468
-0.0090247
0.16615
-0.00813955
0.166778
-0.00725943
0.167352
-0.00638477
0.167874
-0.00551597
0.168344
-0.00465351
0.168763
-0.00379793
0.169131
-0.00294993
0.169449
-0.00211026
0.169717
-0.00127988
0.169935
-0.000459904
0.000349912
0.153497
-0.0170907
-0.152291
0.154667
-0.0163122
0.155769
-0.0154276
0.156801
-0.0144982
0.157761
-0.0135492
0.158652
-0.0125914
0.159479
-0.0116333
0.160244
-0.0106797
0.160952
-0.00973227
0.161604
-0.00879153
0.162202
-0.00785759
0.162748
-0.00693038
0.163242
-0.00600995
0.163685
-0.00509656
0.164077
-0.00419065
0.16442
-0.00329284
0.164714
-0.00240387
0.164959
-0.00152456
0.165155
-0.00065613
0.000200462
0.14946
-0.0183206
-0.14823
0.150642
-0.0174945
0.151741
-0.0165259
0.152758
-0.0155153
0.153694
-0.0144859
0.154556
-0.0134531
0.155351
-0.0124277
0.156083
-0.0114124
0.156758
-0.0104073
0.157379
-0.00941197
0.157947
-0.00842545
0.158463
-0.00744697
0.158929
-0.00647614
0.159346
-0.00551299
0.159713
-0.00455782
0.160031
-0.00361119
0.160301
-0.00267385
0.160523
-0.00174668
0.160698
-0.000830658
7.18613e-05
0.145706
-0.0196388
-0.144387
0.146922
-0.0187105
0.148016
-0.0176205
0.149014
-0.0165128
0.149919
-0.0153907
0.150742
-0.014277
0.151498
-0.0131834
0.152194
-0.0121078
0.152833
-0.0110472
0.153421
-0.00999951
0.153958
-0.00896258
0.154446
-0.00793474
0.154885
-0.00691516
0.155276
-0.00590365
0.155618
-0.00490045
0.155913
-0.00390613
0.156161
-0.00292144
0.156361
-0.00194746
0.156516
-0.000985168
-3.65054e-05
0.142248
-0.0211152
-0.140772
0.143496
-0.0199576
0.144568
-0.0186931
0.145524
-0.0174684
0.14638
-0.016247
0.147155
-0.0150524
0.147866
-0.0138936
0.14852
-0.0127622
0.149124
-0.0116506
0.149678
-0.0105542
0.150185
-0.0094698
0.150646
-0.00839492
0.151059
-0.00732842
0.151425
-0.00627008
0.151745
-0.00522018
0.152018
-0.00417935
0.152245
-0.00314844
0.152426
-0.00212862
0.152563
-0.00112139
-0.000128311
0.139158
-0.137742
-0.0225314
0.140318
-0.0211179
0.141351
-0.0197257
0.142227
-0.0183445
0.143016
-0.0170355
0.143739
-0.0157755
0.144403
-0.0145582
0.145017
-0.0133764
0.145586
-0.0122192
0.14611
-0.0110782
0.146589
-0.0099491
0.147024
-0.0088292
0.147413
-0.00771741
0.147756
-0.00661363
0.148054
-0.00551833
0.148307
-0.0044323
0.148515
-0.00335651
0.148679
-0.00229197
0.148798
-0.00124027
-0.000208865
0.0307727
0.111973
-0.110491
-0.032254
0.0292642
0.11498
-0.113472
0.0277257
0.118121
-0.116582
0.0261538
0.121417
-0.119845
0.0245452
0.124902
-0.123294
0.0228969
0.128618
-0.12697
0.021207
0.132623
-0.130933
0.019474
0.136995
-0.135262
0.0176973
0.14184
-0.140063
0.0158772
0.147287
-0.145467
0.0140154
0.153497
-0.151635
0.0121162
0.160657
-0.158758
0.0101885
0.168968
-0.16704
0.00824895
0.178617
-0.176678
0.00632736
0.189728
-0.187806
0.00447382
0.202264
-0.200411
0.002768
0.21589
-0.214184
0.00133023
0.22975
-0.228312
0.000329578
0.242067
-0.241066
0.249711
-0.249382
0.0305853
0.113447
-0.0320591
0.0290842
0.116481
0.0275535
0.119651
0.0259895
0.122981
0.024389
0.126503
0.022749
0.130258
0.0210673
0.134305
0.0193424
0.13872
0.0175735
0.143608
0.015761
0.149099
0.0139066
0.155351
0.012015
0.162549
0.0100956
0.170887
0.00816592
0.180547
0.0062569
0.191637
0.00442015
0.204101
0.0027368
0.217573
0.00132663
0.23116
0.00035337
0.24304
0.250065
0.0303559
0.114911
-0.0318201
0.0288646
0.117973
0.0273438
0.121172
0.02579
0.124535
0.0241997
0.128093
0.0225702
0.131888
0.0208989
0.135976
0.0191844
0.140435
0.0174256
0.145367
0.015623
0.150902
0.0137785
0.157196
0.0118969
0.16443
0.00998827
0.172796
0.00807082
0.182465
0.00617652
0.193531
0.00435798
0.20592
0.00269685
0.219234
0.00131129
0.232546
0.000356474
0.243995
0.250421
0.0300863
0.116363
-0.0315387
0.0286069
0.119452
0.0270981
0.122681
0.0255565
0.126077
0.0239786
0.129671
0.0223614
0.133505
0.0207027
0.137634
0.0190006
0.142137
0.0172542
0.147114
0.0154637
0.152692
0.0136313
0.159028
0.011762
0.166299
0.0098664
0.174692
0.00796336
0.184368
0.00608567
0.195409
0.00428668
0.207719
0.00264817
0.220873
0.00128665
0.233907
0.000351441
0.24493
0.250773
0.0297787
0.117802
-0.0312175
0.028313
0.120918
0.0268182
0.124176
0.0252906
0.127604
0.0237268
0.131235
0.022124
0.135108
0.0204796
0.139279
0.0187919
0.143825
0.0170597
0.148846
0.0152834
0.154469
0.0134652
0.160846
0.0116105
0.168154
0.00973002
0.176572
0.00784351
0.186254
0.00598445
0.197268
0.00420683
0.209496
0.0025925
0.222487
0.00125629
0.235244
0.000342554
0.245844
0.251115
0.0294357
0.119226
-0.0308592
0.0279853
0.122368
0.0265059
0.125655
0.0249939
0.129116
0.0234459
0.132783
0.021859
0.136695
0.0202307
0.140907
0.018559
0.145496
0.0168429
0.150562
0.0150827
0.156229
0.0132807
0.162649
0.0114425
0.169992
0.00957935
0.178435
0.00771151
0.188122
0.00587321
0.199106
0.00411907
0.21125
0.00253084
0.224075
0.00122159
0.236553
0.000330981
0.246734
0.251446
0.0290599
0.120633
-0.0304672
0.027626
0.123802
0.0261633
0.127118
0.0246682
0.130611
0.0231373
0.134314
0.0215676
0.138264
0.0199567
0.142518
0.0183027
0.147151
0.0166044
0.15226
0.0148621
0.157971
0.0130782
0.164432
0.0112585
0.171812
0.00941469
0.180279
0.00756765
0.189969
0.00575229
0.200922
0.00402375
0.212979
0.00246361
0.225635
0.00118309
0.237833
0.000317428
0.2476
0.251764
0.0286544
0.122023
-0.0300448
0.0272377
0.125219
0.0257924
0.128563
0.0243151
0.132089
0.0228022
0.135827
0.021251
0.139816
0.0196588
0.14411
0.0180238
0.148786
0.0163448
0.153939
0.014622
0.159694
0.0128579
0.166197
0.0110587
0.173611
0.00923632
0.182101
0.00741221
0.191793
0.00562195
0.202712
0.00392117
0.21468
0.00239117
0.227165
0.00114132
0.239083
0.0003025
0.248439
0.252066
0.028222
0.123397
-0.0295955
0.0268225
0.126618
0.0253951
0.129991
0.023936
0.133548
0.0224419
0.137321
0.02091
0.141348
0.0193376
0.145683
0.0177228
0.1504
0.0160645
0.155598
0.0143628
0.161396
0.0126204
0.167939
0.0108435
0.175388
0.00904448
0.1839
0.00724542
0.193592
0.00548245
0.204475
0.00381163
0.21635
0.00231391
0.228663
0.00109676
0.2403
0.00028661
0.249249
0.252353
0.0277654
0.124754
-0.0291227
0.0263828
0.128001
0.024973
0.1314
0.0235323
0.134989
0.0220574
0.138796
0.0205453
0.14286
0.0189936
0.147234
0.0174002
0.151994
0.0157638
0.157234
0.0140848
0.163075
0.0123657
0.169658
0.0106129
0.177141
0.00883938
0.185674
0.0070675
0.195364
0.00533405
0.206208
0.00369542
0.217989
0.00223216
0.230126
0.00104976
0.241483
0.000270006
0.250029
0.252623
0.027287
0.126097
-0.0286296
0.0259202
0.129367
0.0245273
0.132793
0.0231047
0.136411
0.0216491
0.140251
0.0201574
0.144351
0.0186271
0.148765
0.0170561
0.153565
0.015443
0.158847
0.0137881
0.16473
0.0120939
0.171352
0.0103673
0.178868
0.00862117
0.18742
0.00687865
0.197107
0.00517697
0.20791
0.00357281
0.219593
0.00214624
0.231553
0.00100062
0.242628
0.000252846
0.250777
0.252876
0.0267884
0.127427
-0.028119
0.0254354
0.13072
0.0240583
0.13417
0.0226533
0.137816
0.0212168
0.141688
0.0197459
0.145822
0.0182378
0.150273
0.0166902
0.155112
0.0151018
0.160435
0.0134725
0.166359
0.0118051
0.17302
0.0101065
0.180566
0.00838996
0.189136
0.00667901
0.198818