/*--------------------------------*- C++ -*----------------------------------*\
| =========                 |                                                 |
| \\      /  F ield         | OpenFOAM: The Open Source CFD Toolbox           |
|  \\    /   O peration     | Version:  v1912                                 |
|   \\  /    A nd           | Website:  www.openfoam.com                      |
|    \\/     M anipulation  |                                                 |
\*---------------------------------------------------------------------------*/
FoamFile
{
    version     2.0;
    format      ascii;
    class       volVectorField;
    location    "50.5";
    object      U;
}
// * * * * * * * * * * * * * * * * * * * * * * * * * * * * * * * * * * * * * //

dimensions      [0 1 -1 0 0 0 0];


internalField   nonuniform List<vector> 
9600
(
(0.45655 -9.36178 -1.54158e-19)
(0.159757 -8.63264 0)
(0.241992 -8.15984 -9.0526e-20)
(0.320783 -7.84073 0)
(0.388135 -7.60563 0)
(0.456572 -7.41099 -3.18532e-20)
(0.522115 -7.23277 -5.50244e-22)
(0.581623 -7.05873 2.66279e-20)
(0.634324 -6.88353 0)
(0.680247 -6.70573 -4.51504e-20)
(0.719784 -6.52595 0)
(0.75356 -6.34574 -1.83054e-21)
(0.782313 -6.16691 -2.60747e-21)
(0.8068 -5.99115 -3.15515e-20)
(0.827745 -5.81984 2.66105e-20)
(0.845802 -5.65397 -2.6144e-20)
(0.861523 -5.49401 2.32782e-20)
(0.875455 -5.33988 0)
(0.888378 -5.19081 -1.85177e-20)
(0.900022 -5.04529 2.02985e-20)
(0.824489 -9.3514 -3.08413e-19)
(0.502228 -8.66074 1.17578e-20)
(0.567664 -8.20416 1.86472e-19)
(0.634956 -7.89457 -1.58944e-19)
(0.693302 -7.66406 1.5675e-19)
(0.753702 -7.46992 0)
(0.811373 -7.2894 6.0756e-20)
(0.862837 -7.11135 -6.06171e-20)
(0.907247 -6.93126 -1.05145e-19)
(0.944691 -6.74826 1.32994e-19)
(0.975672 -6.56338 -8.63483e-20)
(1.00094 -6.37841 -3.52548e-20)
(1.02134 -6.19531 7.11609e-20)
(1.03772 -6.01585 0)
(1.05087 -5.84143 0)
(1.06148 -5.67302 9.97559e-20)
(1.07011 -5.51107 -1.69133e-19)
(1.07733 -5.35543 0)
(1.08399 -5.20523 0)
(1.08956 -5.05883 -7.81816e-20)
(1.19277 -9.32747 6.37224e-19)
(0.84697 -8.67599 0)
(0.896894 -8.23582 -3.77318e-19)
(0.953424 -7.93582 -3.42005e-19)
(1.00307 -7.7099 0)
(1.05541 -7.51621 5.46583e-19)
(1.10498 -7.33339 -5.16025e-19)
(1.14805 -7.15145 1.01156e-19)
(1.18376 -6.96666 -2.25192e-19)
(1.21231 -6.77874 -3.74519e-19)
(1.23434 -6.58909 5.11269e-19)
(1.25074 -6.39976 -3.16116e-19)
(1.26247 -6.21282 -1.41678e-19)
(1.27049 -6.03008 0)
(1.27563 -5.85298 5.5284e-21)
(1.27863 -5.68245 1.05149e-19)
(1.28005 -5.51891 4.54561e-20)
(1.28046 -5.36216 0)
(1.2808 -5.2112 8.24027e-20)
(1.28021 -5.06435 8.44543e-20)
(1.56029 -9.28964 -8.62085e-19)
(1.19339 -8.67809 -4.03993e-19)
(1.22912 -8.25458 3.91848e-19)
(1.27562 -7.9642 6.73438e-19)
(1.31685 -7.74277 -3.26858e-19)
(1.36109 -7.54948 5.80382e-21)
(1.40231 -7.36441 2.53824e-19)
(1.43663 -7.17871 2.2991e-19)
(1.46325 -6.98946 4.21088e-19)
(1.4825 -6.79694 0)
(1.4952 -6.60292 1.62232e-19)
(1.5024 -6.40965 -1.72168e-19)
(1.5052 -6.21931 1.03528e-20)
(1.50461 -6.03375 2.7141e-19)
(1.50157 -5.8544 2.32689e-19)
(1.49681 -5.68218 -3.2848e-19)
(1.49092 -5.51747 1.08178e-19)
(1.48448 -5.36001 -1.76153e-19)
(1.47849 -5.20869 1.75321e-19)
(1.47165 -5.06181 -8.44981e-20)
(1.92674 -9.23785 4.34773e-19)
(1.54121 -8.66691 0)
(1.56395 -8.26019 3.84825e-19)
(1.60105 -7.97934 0)
(1.63409 -7.76232 0)
(1.67016 -7.56939 -3.00425e-19)
(1.70276 -7.38213 -5.37528e-19)
(1.72797 -7.19284 -4.55773e-19)
(1.74509 -6.99942 1.84503e-20)
(1.75466 -6.80266 -1.96959e-19)
(1.75768 -6.60469 0)
(1.75538 -6.40794 -1.62643e-19)
(1.74898 -6.21467 -2.92993e-19)
(1.7396 -6.02677 2.57667e-19)
(1.72821 -5.84564 -7.32281e-19)
(1.71559 -5.67216 1.18508e-19)
(1.70232 -5.50669 9.39362e-20)
(1.689 -5.34892 -1.937e-19)
(1.67667 -5.19764 -8.46368e-20)
(1.66357 -5.05117 2.52384e-19)
(2.29157 -9.17199 4.19544e-19)
(1.88991 -8.64219 4.16089e-19)
(1.90085 -8.25235 0)
(1.92914 -7.98094 0)
(1.95419 -7.76821 -6.24541e-19)
(1.98197 -7.57562 3.4133e-19)
(2.00569 -7.38626 8.21481e-19)
(2.02141 -7.1936 0)
(2.02865 -6.99632 2.17098e-19)
(2.02817 -6.79573 1.96959e-19)
(2.02119 -6.59427 -3.47981e-19)
(2.00911 -6.39452 5.0463e-19)
(1.99328 -6.19883 1.48084e-19)
(1.97493 -6.00908 0)
(1.95507 -5.82663 1.23278e-19)
(1.93451 -5.65234 5.534e-19)
(1.91381 -5.48655 -3.29755e-19)
(1.89361 -5.32888 3.7055e-19)
(1.87499 -5.17801 -7.04634e-19)
(1.85561 -5.0324 8.14585e-19)
(2.65426 -9.09205 4.26695e-19)
(2.23901 -8.60375 -2.25945e-18)
(2.23928 -8.2308 0)
(2.25932 -7.96869 0)
(2.27652 -7.76014 0)
(2.29589 -7.56788 -6.05862e-19)
(2.31042 -7.37655 0)
(2.3163 -7.18077 -9.71148e-19)
(2.31329 -6.97999 8.95802e-19)
(2.3024 -6.77601 -8.32003e-19)
(2.28512 -6.57155 0)
(2.26301 -6.36933 0)
(2.23757 -6.17174 0)
(2.2101 -5.98064 -2.81535e-19)
(2.18167 -5.79736 0)
(2.15311 -5.62272 0)
(2.12496 -5.45702 -4.13252e-19)
(2.0979 -5.29985 4.06033e-19)
(2.07304 -5.1498 0)
(2.04741 -5.0055 0)
(3.01427 -8.99804 -1.38813e-18)
(2.58794 -8.55141 8.99535e-19)
(2.57867 -8.19529 0)
(2.59096 -7.94232 0)
(2.60044 -7.73784 0)
(2.61124 -7.54593 5.76269e-19)
(2.61627 -7.35278 -5.78023e-19)
(2.61196 -7.15418 -8.89554e-21)
(2.59833 -6.9503 -8.96943e-19)
(2.57672 -6.74341 8.39831e-19)
(2.54885 -6.53646 -3.78886e-19)
(2.5165 -6.33232 6.58854e-19)
(2.48128 -6.13337 -4.64157e-20)
(2.44458 -5.94144 -5.96043e-19)
(2.40752 -5.75782 -5.02382e-19)
(2.37091 -5.58328 4.93575e-19)
(2.33532 -5.41811 0)
(2.30144 -5.26185 0)
(2.27041 -5.113 3.57189e-19)
(2.2386 -4.97047 -3.93075e-19)
(3.37102 -8.88997 9.27783e-19)
(2.93614 -8.48505 8.8377e-19)
(2.91842 -8.14561 -1.67514e-18)
(2.92343 -7.90158 7.91293e-19)
(2.92526 -7.70107 0)
(2.92732 -7.50955 6.16641e-19)
(2.92256 -7.31478 -5.41357e-19)
(2.90769 -7.11369 1.52994e-18)
(2.88311 -6.90715 -2.36973e-20)
(2.85048 -6.69785 0)
(2.81178 -6.48898 7.6446e-19)
(2.76899 -6.28347 0)
(2.72386 -6.08371 0)
(2.67785 -5.89149 -2.72681e-19)
(2.63209 -5.70803 5.49961e-19)
(2.58744 -5.53407 0)
(2.54441 -5.36985 4.31399e-19)
(2.50377 -5.21489 1.79601e-19)
(2.46667 -5.06763 -3.89665e-19)
(2.42876 -4.92734 3.78374e-19)
(3.72398 -8.76791 -9.5561e-19)
(3.28302 -8.40454 8.9819e-19)
(3.25791 -8.08158 -2.5581e-18)
(3.25606 -7.84628 8.04423e-19)
(3.25029 -7.64963 0)
(3.24343 -7.45856 -1.24464e-18)
(3.22857 -7.26241 5.97917e-19)
(3.20281 -7.0592 0)
(3.16695 -6.85047 -4.74739e-19)
(3.12302 -6.6393 -8.23439e-19)
(3.07328 -6.42908 -7.17553e-19)
(3.0199 -6.22278 5.34558e-20)
(2.96476 -6.02279 6.71127e-19)
(2.90937 -5.83082 2.72456e-19)
(2.8549 -5.64803 -3.79508e-20)
(2.80219 -5.4751 -5.1307e-19)
(2.75177 -5.31225 -2.29488e-19)
(2.70443 -5.159 -2.06899e-19)
(2.66135 -5.01372 5.5194e-19)
(2.61748 -4.87614 -8.22446e-19)
(4.07257 -8.63194 9.55613e-19)
(3.62798 -8.30983 -4.66528e-20)
(3.5965 -8.00305 8.2232e-19)
(3.58818 -7.77624 0)
(3.57484 -7.58336 -6.80846e-19)
(3.55884 -7.39284 1.30826e-18)
(3.53357 -7.19557 -1.11835e-18)
(3.4966 -6.99064 1.10053e-18)
(3.44918 -6.78023 -4.45958e-19)
(3.3937 -6.56776 9.05284e-19)
(3.33274 -6.35678 3.92052e-19)
(3.26864 -6.1503 0)
(3.2034 -5.95065 0)
(3.1386 -5.75949 -2.8251e-19)
(3.07541 -5.57787 3.83691e-20)
(3.01466 -5.40642 1.01038e-18)
(2.95689 -5.24538 -2.49971e-19)
(2.90292 -5.09422 8.25647e-19)
(2.85399 -4.95129 1.44517e-19)
(2.80428 -4.81691 -8.39989e-19)
(4.41625 -8.48218 -2.94047e-18)
(3.97043 -8.20087 -9.87098e-19)
(3.93353 -7.90991 -2.63222e-18)
(3.9191 -7.69133 -1.60134e-18)
(3.89817 -7.50214 -7.59587e-19)
(3.87283 -7.31229 -7.42399e-19)
(3.83686 -7.11421 -2.42361e-18)
(3.78837 -6.908 -4.90796e-20)
(3.72911 -6.69643 -1.94755e-18)
(3.66188 -6.48326 3.02277e-20)
(3.58953 -6.27212 -8.08639e-19)
(3.51462 -6.06607 -7.36879e-19)
(3.43924 -5.86735 6.72684e-19)
(3.365 -5.67754 -6.15196e-19)
(3.29311 -5.4976 -5.63631e-19)
(3.22436 -5.32811 -5.17296e-19)
(3.15927 -5.16929 -1.38901e-18)
(3.09874 -5.0206 4.94163e-19)
(3.04407 -4.88041 1.19929e-18)
(2.98871 -4.74968 -1.2764e-18)
(4.75446 -8.31876 3.95516e-18)
(4.30975 -8.07766 4.8591e-18)
(4.26836 -7.8021 8.34736e-19)
(4.24812 -7.59147 3.99959e-18)
(4.21957 -7.40589 -7.83925e-19)
(4.18467 -7.21687 3.91722e-18)
(4.1377 -7.0183 1.14593e-18)
(4.07741 -6.81128 3.21707e-18)
(4.00606 -6.59912 -9.83349e-19)
(3.9269 -6.38583 2.72273e-18)
(3.84305 -6.17517 1.6288e-18)
(3.75726 -5.97015 1.48441e-18)
(3.67171 -5.77296 -2.00975e-18)
(3.58805 -5.58505 1.8827e-18)
(3.50747 -5.40729 1.13596e-18)
(3.43075 -5.24022 1.04279e-18)
(3.35839 -5.08404 9.58889e-19)
(3.29138 -4.9382 7.36662e-21)
(3.23108 -4.8011 8.14e-19)
(3.17028 -4.6745 8.4713e-19)
(5.08667 -8.14184 -2.93714e-18)
(4.64537 -7.94023 1.0825e-18)
(4.60034 -7.67958 2.67806e-18)
(4.57453 -7.47659 -3.26278e-18)
(4.53831 -7.29458 7.53955e-19)
(4.49361 -7.10656 -2.62075e-18)
(4.43538 -6.90787 1.28448e-18)
(4.36302 -6.70054 -2.15257e-18)
(4.27939 -6.48836 4.90424e-20)
(4.18814 -6.27558 1.19517e-20)
(4.0927 -6.06602 -1.6513e-18)
(3.99599 -5.86264 -7.47537e-19)
(3.90026 -5.66755 1.37458e-18)
(3.80719 -5.48208 8.76198e-21)
(3.71796 -5.30702 -3.71965e-20)
(3.6333 -5.14282 -1.08837e-18)
(3.55372 -4.98968 -4.8333e-19)
(3.48027 -4.84707 -2.71513e-20)
(3.41444 -4.71343 -8.48352e-19)
(3.34841 -4.59149 -4.27814e-19)
(5.4124 -7.95161 0)
(4.97668 -7.78864 -2.00021e-18)
(4.9288 -7.54234 2.37509e-20)
(4.89763 -7.34669 3.25833e-18)
(4.85364 -7.16821 1.36385e-18)
(4.79894 -6.9814 -1.41963e-18)
(4.72918 -6.78299 -1.22302e-18)
(4.64452 -6.57586 0)
(4.54843 -6.36426 -9.73581e-19)
(4.44498 -6.15261 9.29171e-19)
(4.3379 -5.94476 -3.90768e-20)
(4.23026 -5.74363 0)
(4.12437 -5.5512 -6.91993e-19)
(4.02192 -5.3687 5.99419e-19)
(3.92405 -5.19682 5.00794e-19)
(3.83146 -5.03592 -6.04529e-19)
(3.74465 -4.88621 -5.24461e-19)
(3.66475 -4.74718 9.10773e-19)
(3.59341 -4.61739 -8.40543e-19)
(3.52228 -4.50071 4.42423e-19)
(5.73115 -7.74824 3.03461e-18)
(5.30312 -7.62296 -2.06006e-18)
(5.25307 -7.39041 -1.75822e-18)
(5.21671 -7.20179 8.18631e-19)
(5.16485 -7.02684 -1.58821e-18)
(5.09992 -6.84147 0)
(5.01839 -6.64376 0)
(4.92125 -6.43737 0)
(4.81256 -6.22695 -4.44804e-20)
(4.69684 -6.01706 -1.86476e-18)
(4.5781 -5.81154 8.8071e-19)
(4.45954 -5.61324 7.44885e-19)
(4.34354 -5.42402 6.30366e-19)
(4.23176 -5.24499 -2.58672e-18)
(4.12528 -5.07673 1.22634e-18)
(4.02477 -4.91954 0)
(3.93067 -4.77361 -3.04344e-20)
(3.84422 -4.63848 -1.41261e-18)
(3.76717 -4.5129 -5.69774e-21)
(3.69091 -4.40181 -4.42913e-19)
(6.04259 -7.53201 -2.06409e-18)
(5.62413 -7.44333 -1.08609e-18)
(5.57248 -7.22384 8.18434e-19)
(5.53104 -7.04196 -1.43934e-19)
(5.4712 -6.87054 -4.62988e-18)
(5.39582 -6.68689 4.19023e-18)
(5.30232 -6.49032 -4.88122e-20)
(5.19252 -6.28524 1.14773e-18)
(5.07114 -6.07661 1.02979e-18)
(4.94314 -5.8691 9.456e-19)
(4.81277 -5.66651 8.60515e-19)
(4.68335 -5.47159 1.5379e-18)
(4.55731 -5.2861 -7.40219e-19)
(4.43626 -5.11102 1.91881e-18)
(4.32124 -4.94682 -1.24048e-18)
(4.21283 -4.79374 -5.13181e-19)
(4.11144 -4.65198 2.06123e-18)
(4.01833 -4.52108 1.37715e-18)
(3.93546 -4.39984 -2.79653e-20)
(3.85427 -4.29412 0)
(6.34667 -7.30342 -1.04951e-18)
(5.93931 -7.24991 2.07559e-18)
(5.88636 -7.04271 1.81724e-18)
(5.83988 -6.86725 -1.45912e-19)
(5.77194 -6.69941 -1.57087e-18)
(5.68591 -6.5178 7.0683e-20)
(5.58026 -6.32286 1.31778e-20)
(5.4577 -6.11967 1.17413e-20)
(5.32359 -5.91345 0)
(5.18332 -5.70892 9.24873e-19)
(5.04138 -5.50983 -1.76036e-18)
(4.9012 -5.31882 -7.53337e-19)
(4.76519 -5.13752 7.47867e-19)
(4.63494 -4.9668 -6.56227e-19)
(4.51139 -4.80706 6.07782e-19)
(4.39507 -4.65852 -5.53307e-19)
(4.28638 -4.52139 4.89995e-21)
(4.18669 -4.39503 -4.70078e-19)
(4.09826 -4.27816 -4.34249e-19)
(4.01291 -4.17848 -4.34546e-19)
(6.64375 -7.06292 0)
(6.24842 -7.04265 -1.01202e-18)
(6.19406 -6.84692 1.0004e-18)
(6.14249 -6.67773 1.74547e-18)
(6.06631 -6.51363 -1.57955e-18)
(5.96947 -6.33444 1.36459e-18)
(5.85154 -6.14167 -2.62381e-18)
(5.71617 -5.94096 -2.33009e-18)
(5.56936 -5.73777 -1.01653e-18)
(5.41692 -5.53681 4.4428e-20)
(5.26354 -5.34175 -8.41797e-19)
(5.11273 -5.15508 3.49283e-20)
(4.96685 -4.97832 0)
(4.82738 -4.81224 -1.28725e-18)
(4.69516 -4.65719 6.56919e-19)
(4.57058 -4.5134 0)
(4.45408 -4.381 -5.14497e-19)
(4.34727 -4.25913 -9.25028e-19)
(4.25237 -4.14742 9.08933e-19)
(4.16184 -4.05848 4.48686e-19)
(6.93342 -6.80974 0)
(6.55083 -6.82084 0)
(6.49488 -6.63643 -1.85582e-18)
(6.4381 -6.47369 -1.59576e-18)
(6.35363 -6.3136 3.23879e-18)
(6.24588 -6.13724 0)
(6.1156 -5.94717 0)
(5.96742 -5.74956 1.17061e-18)
(5.80801 -5.55 0)
(5.64357 -5.35318 0)
(5.47899 -5.16263 0)
(5.31779 -4.98069 0)
(5.16229 -4.80872 0)
(5.01378 -4.64736 0)
(4.87285 -4.49686 0)
(4.7396 -4.35741 0)
(4.61431 -4.22884 0)
(4.49804 -4.11052 0)
(4.39092 -4.00549 0)
(4.2868 -3.93107 0)
(10.0434 0.0877398 1.47346e-19)
(10.0229 -0.307645 2.86685e-19)
(9.98707 -0.700352 -2.94442e-19)
(9.93654 -1.09024 5.8706e-19)
(9.87103 -1.47697 -5.87059e-19)
(9.79038 -1.86003 -5.54761e-19)
(9.69471 -2.23889 -5.53213e-19)
(9.58423 -2.613 1.74225e-18)
(9.45918 -2.98181 -1.16077e-18)
(9.31981 -3.34477 1.15104e-18)
(9.16641 -3.70132 -1.15105e-18)
(8.99928 -4.05095 1.14254e-18)
(8.81876 -4.39312 -2.26576e-18)
(8.62518 -4.72734 3.33664e-18)
(8.41893 -5.05312 0)
(8.20039 -5.37001 -3.27812e-18)
(7.96995 -5.67759 1.63481e-20)
(7.72815 -5.9755 3.30358e-18)
(7.47507 -6.26358 0)
(7.2124 -6.54115 0)
(10.1203 -0.21072 0)
(10.079 -0.606824 -1.50425e-20)
(10.021 -0.999127 0)
(9.9468 -1.38729 5.61784e-19)
(9.85677 -1.77089 5.85028e-19)
(9.75108 -2.14932 -1.69326e-18)
(9.63001 -2.52194 2.9479e-18)
(9.49392 -2.88814 -1.16371e-18)
(9.34318 -3.24732 -1.10929e-18)
(9.17819 -3.59888 -1.10475e-18)
(8.99936 -3.94227 4.4574e-20)
(8.80712 -4.27693 1.1319e-18)
(8.60195 -4.60234 -5.62704e-18)
(8.38432 -4.918 -1.18002e-18)
(8.15473 -5.22345 2.24847e-18)
(7.91369 -5.51827 2.24545e-18)
(7.66167 -5.80206 1.14082e-18)
(7.39925 -6.07448 -2.19984e-18)
(7.12652 -6.33528 1.04176e-18)
(6.84445 -6.58413 0)
(10.072 -0.149224 1.32684e-19)
(10.0342 -0.540891 -2.71716e-19)
(9.97898 -0.929383 7.84659e-19)
(9.90679 -1.314 -5.55888e-19)
(9.818 -1.6941 -5.30025e-19)
(9.71296 -2.06897 5.53375e-19)
(9.59205 -2.43787 0)
(9.45567 -2.80012 0)
(9.30424 -3.15504 2.10119e-18)
(9.13821 -3.50201 3.13459e-18)
(8.95806 -3.84039 -9.9141e-19)
(8.76427 -4.16959 3.0996e-18)
(8.55737 -4.48906 -9.87237e-19)
(8.3379 -4.79826 -3.01905e-18)
(8.10641 -5.09667 1.36205e-20)
(7.86346 -5.38385 1.93792e-18)
(7.6096 -5.65935 -8.7473e-19)
(7.34541 -5.92277 -1.90655e-18)
(7.07123 -6.17372 -1.0298e-18)
(6.7878 -6.41171 1.87373e-18)
(9.90587 -0.112507 0)
(9.87485 -0.494943 2.29081e-19)
(9.82656 -0.875032 2.2814e-19)
(9.76117 -1.25188 -9.37278e-19)
(9.67902 -1.62467 0)
(9.58045 -1.99265 0)
(9.46581 -2.35504 0)
(9.3355 -2.71109 0)
(9.1899 -3.0601 -9.91828e-19)
(9.02949 -3.40136 -9.88062e-19)
(8.85473 -3.73422 0)
(8.66612 -4.05802 1.86811e-18)
(8.4642 -4.37218 -4.61873e-18)
(8.24952 -4.67609 3.71387e-18)
(8.02264 -4.96922 -3.59972e-18)
(7.78416 -5.25105 -8.73474e-19)
(7.53465 -5.52107 1.56473e-19)
(7.27474 -5.77882 1.54876e-19)
(7.00492 -6.02384 -1.77894e-18)
(6.72594 -6.25565 -7.08898e-20)
(9.65281 -0.099026 0)
(9.62921 -0.469232 -2.25925e-19)
(9.58877 -0.837748 0)
(9.53155 -1.20367 4.51975e-19)
(9.45779 -1.56616 4.30852e-19)
(9.36777 -1.92443 3.93901e-19)
(9.26182 -2.27769 0)
(9.14026 -2.62518 0)
(9.00348 -2.96616 0)
(8.85188 -3.29991 0)
(8.68592 -3.62574 8.13685e-19)
(8.50606 -3.94298 8.76635e-19)
(8.31283 -4.25098 8.71635e-19)
(8.10676 -4.54913 -8.84965e-19)
(7.88841 -4.83684 -1.52305e-18)
(7.65835 -5.11354 1.72886e-18)
(7.41719 -5.37869 3.35193e-18)
(7.16553 -5.63178 1.63037e-18)
(6.90397 -5.87231 0)
(6.6332 -6.09977 -1.53659e-18)
(9.34581 -0.0902243 4.64364e-20)
(9.32918 -0.446256 0)
(9.29633 -0.801168 -7.60974e-19)
(9.24726 -1.15411 1.82713e-23)
(9.18215 -1.50425 1.61762e-20)
(9.10121 -1.85081 -6.85434e-20)
(9.0047 -2.19301 0)
(8.89293 -2.53009 3.09376e-20)
(8.7662 -2.8613 -7.72519e-19)
(8.6249 -3.18594 1.50513e-18)
(8.46942 -3.50328 -1.56946e-18)
(8.30021 -3.81267 8.57414e-19)
(8.11774 -4.11342 -4.49441e-18)
(7.92251 -4.40493 2.96434e-18)
(7.71505 -4.68655 1.57135e-18)
(7.49593 -4.95772 0)
(7.2657 -5.21785 -2.90045e-18)
(7.02499 -5.4664 -6.15373e-20)
(6.77437 -5.70284 -2.85634e-18)
(6.5145 -5.92663 2.96878e-18)
(9.01347 -0.0854131 4.17615e-20)
(9.00248 -0.426446 -8.74848e-20)
(8.976 -0.766829 7.17294e-19)
(8.93402 -1.10576 -1.40761e-20)
(8.87662 -1.44246 7.17147e-19)
(8.804 -1.77614 -1.08318e-18)
(8.71636 -2.10607 0)
(8.61395 -2.4315 7.30203e-19)
(8.49706 -2.75172 6.6859e-19)
(8.366 -3.066 -7.26114e-19)
(8.22113 -3.37367 1.32851e-18)
(8.06284 -3.67406 2.81646e-18)
(7.89158 -3.96649 -1.30983e-18)
(7.70781 -4.25035 -1.41976e-18)
(7.51201 -4.525 1.36154e-18)
(7.30473 -4.78986 0)
(7.08649 -5.04433 6.49523e-20)
(6.85788 -5.28784 9.81291e-21)
(6.61947 -5.51985 2.70624e-18)
(6.37186 -5.7398 1.25816e-18)
(8.67704 -0.0842314 0)
(8.67011 -0.410312 6.25902e-21)
(8.64847 -0.736087 -1.45963e-19)
(8.61207 -1.06081 -6.4822e-19)
(8.56098 -1.38373 6.09319e-19)
(8.49534 -1.70412 0)
(8.41532 -2.02127 1.24018e-18)
(8.32115 -2.33446 -1.36279e-21)
(8.21305 -2.64301 -1.89412e-18)
(8.0913 -2.94623 0)
(7.95624 -3.24346 -1.30736e-18)
(7.8082 -3.53404 4.60159e-20)
(7.6476 -3.81735 -3.67504e-18)
(7.47484 -4.09275 6.47635e-21)
(7.29041 -4.35964 1.23174e-18)
(7.09477 -4.61742 0)
(6.88847 -4.86551 -1.20896e-18)
(6.67202 -5.10333 8.70377e-21)
(6.446 -5.33032 1.20027e-18)
(6.21094 -5.5459 -1.23812e-18)
(8.3504 -0.0853118 0)
(8.34609 -0.397021 1.49653e-19)
(8.32783 -0.708657 3.10497e-19)
(8.29555 -1.01952 -5.7473e-19)
(8.24932 -1.32891 -2.47329e-20)
(8.18923 -1.63614 -2.87233e-19)
(8.11545 -1.94052 -1.14982e-18)
(8.02815 -2.24141 5.71648e-19)
(7.92753 -2.53812 2.38231e-20)
(7.81385 -2.83003 5.68227e-19)
(7.68739 -3.11649 5.23101e-19)
(7.54849 -3.39689 2.26537e-18)
(7.39749 -3.67062 1.13314e-18)
(7.23479 -3.93707 2.2381e-18)
(7.06083 -4.19567 -1.11612e-18)
(6.87607 -4.44583 3.86802e-20)
(6.68099 -4.68697 -1.10294e-18)
(6.47612 -4.91852 0)
(6.26199 -5.13993 1.04256e-18)
(6.03911 -5.35059 0)
(8.04147 -0.0875289 6.51571e-20)
(8.03862 -0.385738 -1.90826e-19)
(8.02253 -0.684015 5.23401e-19)
(7.99314 -0.981706 -2.61115e-19)
(7.95049 -1.27815 1.89909e-20)
(7.89468 -1.57271 -2.60961e-19)
(7.82582 -1.86473 5.42522e-19)
(7.74408 -2.15361 -5.19223e-19)
(7.64964 -2.4387 5.1922e-19)
(7.54274 -2.71941 9.95836e-19)
(7.42362 -2.99515 -1.07306e-18)
(7.2926 -3.26531 -4.51195e-20)
(7.14999 -3.52934 -3.10607e-18)
(6.99618 -3.78666 5.37964e-21)
(6.83157 -4.03672 4.02931e-20)
(6.6566 -4.27896 2.0136e-18)
(6.47175 -4.51282 -9.94651e-19)
(6.27751 -4.73774 -9.47423e-19)
(6.07441 -4.95317 -3.74619e-20)
(5.86293 -5.15849 0)
(7.75385 -0.0901372 0)
(7.75161 -0.375838 2.42401e-19)
(7.73679 -0.661681 -8.33467e-19)
(7.70932 -0.947051 -2.21125e-19)
(7.66924 -1.23133 4.94528e-19)
(7.61663 -1.51391 0)
(7.5516 -1.7942 0)
(7.4743 -2.07159 4.72695e-19)
(7.38489 -2.34552 -4.72692e-19)
(7.28359 -2.61541 3.98203e-19)
(7.17063 -2.8807 -4.69646e-19)
(7.04629 -3.14085 9.31347e-19)
(6.91089 -3.39531 -1.85808e-18)
(6.76478 -3.64356 1.84848e-18)
(6.60835 -3.88508 3.46786e-20)
(6.44203 -4.11934 -9.50699e-19)
(6.26628 -4.34582 -9.04671e-19)
(6.0816 -4.56397 1.84286e-18)
(5.88851 -4.77322 8.6271e-19)
(5.68747 -4.97296 0)
(7.48832 -0.092663 1.87852e-21)
(7.48613 -0.366855 1.59154e-19)
(7.47193 -0.641217 3.34149e-19)
(7.44568 -0.915169 2.33887e-19)
(7.40741 -1.18813 2.16963e-19)
(7.35719 -1.45952 2.01828e-19)
(7.29513 -1.72879 0)
(7.22135 -1.99537 -8.34057e-19)
(7.13602 -2.25872 -4.29956e-19)
(7.03934 -2.51831 3.66806e-19)
(6.93152 -2.77361 0)
(6.81283 -3.02412 8.49209e-19)
(6.68357 -3.26933 -2.51158e-18)
(6.54407 -3.50876 8.44862e-19)
(6.39472 -3.74193 0)
(6.23594 -3.96836 -8.03306e-19)
(6.0682 -4.18753 -1.62246e-18)
(5.892 -4.39895 7.98365e-19)
(5.70789 -4.60204 -2.92158e-20)
(5.51632 -4.79615 0)
(7.24402 -0.0948076 3.46593e-21)
(7.24151 -0.358444 -1.03001e-19)
(7.22752 -0.622242 1.98772e-19)
(7.20201 -0.885658 -1.31273e-20)
(7.165 -1.14814 3.97194e-19)
(7.11658 -1.40915 -6.10015e-19)
(7.05683 -1.66815 0)
(6.98589 -1.92462 5.60536e-20)
(6.9039 -2.17805 0)
(6.81104 -2.42793 -8.14292e-19)
(6.70753 -2.67378 0)
(6.59363 -2.91513 -7.51497e-19)
(6.4696 -3.15151 2.32266e-18)
(6.33578 -3.38249 -1.53911e-18)
(6.19254 -3.60762 7.67339e-19)
(6.04031 -3.82647 -6.78936e-19)
(5.87957 -4.03858 7.842e-19)
(5.71083 -4.24349 -7.78837e-19)
(5.53472 -4.44058 0)
(5.35168 -4.62923 0)
(7.01914 -0.0964495 4.71321e-20)
(7.01613 -0.350379 0)
(7.0021 -0.604452 0)
(6.97702 -0.858149 -3.7763e-19)
(6.94092 -1.11095 -3.52449e-19)
(6.89388 -1.36234 0)
(6.83599 -1.61181 0)
(6.76736 -1.85886 4.98743e-20)
(6.68815 -2.10302 6.97962e-19)
(6.59852 -2.34382 -3.36599e-19)
(6.49868 -2.58079 -3.58618e-19)
(6.38886 -2.81349 1.44866e-18)
(6.26934 -3.04152 -2.15115e-18)
(6.14042 -3.26447 1.38718e-18)
(6.00248 -3.48195 0)
(5.85593 -3.6936 2.78686e-18)
(5.7013 -3.89896 -2.0234e-18)
(5.5391 -4.0977 6.88357e-19)
(5.37011 -4.28912 1.31647e-18)
(5.19474 -4.47264 0)
(6.81159 -0.097524 -4.05221e-20)
(6.80797 -0.342499 0)
(6.79375 -0.587597 -5.22433e-21)
(6.76891 -0.832315 -3.24289e-19)
(6.7335 -1.07616 1.00486e-18)
(6.68757 -1.31863 -1.67156e-19)
(6.63121 -1.55925 0)
(6.56455 -1.79756 1.33157e-18)
(6.48771 -2.03308 -6.85739e-19)
(6.40087 -2.26539 4.4505e-20)
(6.30421 -2.49405 6.35523e-19)
(6.19795 -2.71865 6.51415e-19)
(6.08236 -2.93882 -1.29903e-18)
(5.95772 -3.1542 -1.2706e-18)
(5.8244 -3.36444 -1.24108e-18)
(5.68281 -3.56928 -1.32066e-18)
(5.53351 -3.76828 1.31166e-18)
(5.37701 -3.9613 -6.26172e-19)
(5.21436 -4.14748 -6.67242e-19)
(5.04584 -4.32646 0)
(6.61913 -0.0980108 3.98119e-20)
(6.61487 -0.3347 -1.49485e-19)
(6.6004 -0.571481 -1.54749e-19)
(6.57572 -0.807873 4.63362e-19)
(6.54085 -1.0434 -1.64553e-19)
(6.49587 -1.27759 -1.53814e-19)
(6.44085 -1.50999 0)
(6.37592 -1.74015 -6.32237e-19)
(6.30119 -1.96764 0)
(6.21682 -2.19202 6.27348e-19)
(6.123 -2.41291 -1.20891e-18)
(6.01992 -2.62993 5.98437e-19)
(5.90783 -2.84273 -1.1932e-18)
(5.78701 -3.051 1.23129e-18)
(5.65778 -3.25443 6.70173e-19)
(5.52055 -3.4529 0)
(5.37591 -3.64594 -5.78476e-19)
(5.22435 -3.83377 5.78476e-19)
(5.06734 -4.01518 0)
(4.90483 -4.19053 0)
(6.43963 -0.0979977 0)
(6.43476 -0.326958 1.46867e-19)
(6.42005 -0.555979 4.72511e-21)
(6.3955 -0.7846 -1.51435e-19)
(6.36113 -1.01236 -1.33539e-19)
(6.31702 -1.23883 -1.41773e-19)
(6.26324 -1.46355 5.4796e-19)
(6.19991 -1.6861 0)
(6.12713 -1.90606 0)
(6.04507 -2.12305 2.78476e-19)
(5.95388 -2.33667 2.9582e-19)
(5.85375 -2.54658 1.07066e-18)
(5.74491 -2.75247 -5.47058e-19)
(5.62759 -2.95406 5.47056e-19)
(5.5021 -3.1511 5.8074e-19)
(5.36878 -3.34359 3.39574e-20)
(5.22829 -3.53105 -1.06661e-18)
(5.08099 -3.71428 3.77949e-21)
(4.92903 -3.89136 5.27531e-19)
(4.77157 -4.0643 0)
(6.27119 -0.0974876 -3.28267e-20)
(6.26578 -0.319243 3.28263e-20)
(6.25087 -0.541031 0)
(6.22647 -0.762404 1.23644e-19)
(6.19262 -0.982927 4.01632e-19)
(6.14937 -1.20217 -5.07619e-19)
(6.09682 -1.41972 -5.38389e-19)
(6.03505 -1.63516 0)
(5.96419 -1.8481 0)
(5.88436 -2.05817 0)
(5.79574 -2.265 -9.93915e-19)
(5.69847 -2.46827 -6.41558e-20)
(5.59276 -2.66768 -5.03954e-19)
(5.4788 -2.86302 3.02002e-20)
(5.35687 -3.05404 -9.96628e-19)
(5.2272 -3.24091 1.51886e-18)
(5.0905 -3.42318 -1.43918e-18)
(4.94681 -3.60243 4.88543e-19)
(4.79943 -3.77568 9.36578e-19)
(4.64563 -3.94784 0)
(6.11209 -0.0961303 2.94916e-20)
(6.10624 -0.311353 0)
(6.09122 -0.526596 -1.21418e-19)
(6.06705 -0.741423 -2.5019e-19)
(6.03375 -0.955417 1.21266e-19)
(5.99138 -1.16817 9.68359e-19)
(5.94004 -1.37927 0)
(5.8798 -1.58834 -4.66385e-19)
(5.81078 -1.79501 -2.38541e-19)
(5.73311 -1.99891 -4.48132e-19)
(5.64692 -2.19971 -1.79306e-19)
(5.55236 -2.3971 -1.41481e-18)
(5.4496 -2.5908 -9.33865e-19)
(5.33876 -2.78061 9.60646e-19)
(5.2201 -2.96635 9.19533e-19)
(5.09363 -3.14824 -3.88416e-21)
(4.96016 -3.32595 2.99509e-20)
(4.81893 -3.50205 4.50151e-19)
(4.67506 -3.67274 -9.20281e-19)
(4.5218 -3.84792 0)
(5.96073 -0.0944584 -6.16728e-20)
(5.95458 -0.303425 3.03605e-20)
(5.9396 -0.512479 -1.21295e-19)
(5.9158 -0.721231 1.21239e-19)
(5.88319 -0.929286 -3.48701e-19)
(5.84182 -1.13626 -1.08581e-18)
(5.79175 -1.34176 0)
(5.73306 -1.54542 4.93472e-19)
(5.66584 -1.74688 -4.61413e-19)
(5.59018 -1.94581 9.77068e-19)
(5.50621 -2.14187 9.71266e-19)
(5.41403 -2.33477 1.43098e-18)
(5.31377 -2.52424 -9.28544e-19)
(5.20546 -2.71008 4.62512e-19)
(5.08937 -2.8921 -4.54856e-19)
(4.9651 -3.07052 4.54879e-19)
(4.83377 -3.24506 0)
(4.69267 -3.41896 4.11841e-19)
(4.55086 -3.58803 -4.03025e-19)
(4.39317 -3.77448 0)
(7.14003 7.26202 0)
(7.42001 6.97222 0)
(7.68707 6.67284 1.08743e-18)
(7.94194 6.36437 2.02588e-20)
(8.18404 6.04655 -1.15047e-18)
(8.41271 5.71943 0)
(8.62754 5.38341 1.18724e-18)
(8.8282 5.03902 -2.23997e-18)
(9.01436 4.68685 -1.13202e-18)
(9.18575 4.3275 -1.14261e-18)
(9.34209 3.96161 1.1426e-18)
(9.48315 3.58983 -1.1547e-18)
(9.60876 3.21284 5.75989e-19)
(9.7187 2.83135 5.49761e-19)
(9.81283 2.44602 5.5191e-19)
(9.89107 2.05753 -5.85717e-19)
(9.95342 1.66652 5.85718e-19)
(9.99994 1.27371 -2.94037e-19)
(10.0306 0.879494 -1.39671e-19)
(10.0459 0.485219 7.35657e-20)
(7.41681 7.07016 0)
(7.69699 6.78075 -9.96475e-19)
(7.96337 6.47977 -2.1304e-18)
(8.21626 6.16789 3.15044e-18)
(8.45541 5.84545 -2.18471e-18)
(8.68031 5.51289 2.19548e-18)
(8.89048 5.17081 1.19359e-18)
(9.0855 4.81989 -3.38706e-18)
(9.26499 4.46081 1.10805e-18)
(9.42859 4.09429 2.20274e-18)
(9.57598 3.72105 1.08526e-18)
(9.70693 3.34186 1.09214e-18)
(9.82126 2.9575 -1.15247e-18)
(9.91875 2.56871 1.69704e-18)
(9.99913 2.17627 -2.35445e-18)
(10.0623 1.78106 5.81156e-19)
(10.1083 1.38388 -5.58454e-19)
(10.1372 0.985546 0)
(10.1488 0.586597 1.51562e-20)
(10.1436 0.188008 0)
(7.2738 6.94538 -1.75464e-18)
(7.5568 6.67337 9.85075e-19)
(7.82725 6.38849 1.80196e-18)
(8.08471 6.09143 8.15777e-19)
(8.32875 5.78274 2.04302e-18)
(8.55885 5.46305 2.0038e-20)
(8.77447 5.13302 -1.02404e-18)
(8.97513 4.79335 -3.05187e-18)
(9.16038 4.44476 3.01302e-18)
(9.32978 4.08797 -3.09291e-18)
(9.48294 3.72372 -1.03042e-18)
(9.61957 3.35278 -2.06158e-18)
(9.73934 2.97596 0)
(9.84204 2.59404 0)
(9.92753 2.20793 0)
(9.99566 1.81851 -5.25494e-19)
(10.0462 1.42664 5.50361e-19)
(10.0793 1.03317 5.2719e-19)
(10.0946 0.638806 6.27007e-21)
(10.0923 0.244529 1.32407e-19)
(7.04653 6.69333 1.82232e-18)
(7.32626 6.43998 -1.6549e-18)
(7.59464 6.17351 -1.6962e-19)
(7.85096 5.89445 -1.70581e-19)
(8.09465 5.60338 4.30227e-18)
(8.32515 5.30091 -7.12614e-20)
(8.54191 4.98766 3.77466e-21)
(8.74441 4.66429 -2.72067e-18)
(8.93215 4.33149 1.79509e-18)
(9.10464 3.98994 0)
(9.2614 3.64041 9.62798e-19)
(9.40209 3.28375 9.69461e-19)
(9.52643 2.92074 0)
(9.6341 2.5522 0)
(9.72488 2.17896 0)
(9.79858 1.80183 0)
(9.85501 1.42165 -2.1713e-20)
(9.89404 1.03925 4.74695e-19)
(9.91555 0.655482 -2.27954e-19)
(9.91955 0.271275 0)
(6.78386 6.37858 1.54344e-18)
(7.05574 6.14309 0)
(7.31738 5.89466 -4.54443e-18)
(7.56799 5.63371 -1.54899e-18)
(7.80693 5.36077 -1.62775e-18)
(8.03362 5.07638 -1.7255e-18)
(8.24748 4.78113 8.15242e-19)
(8.44798 4.47562 -8.56778e-19)
(8.63457 4.16048 2.37905e-18)
(8.80681 3.8364 -7.78852e-19)
(8.96427 3.50415 0)
(9.10646 3.16446 0)
(9.23298 2.81803 0)
(9.34357 2.46565 0)
(9.43796 2.10813 -1.22996e-18)
(9.5159 1.74627 4.22923e-19)
(9.57717 1.38088 -4.46745e-19)
(9.62161 1.01279 0)
(9.64909 0.642857 2.24815e-19)
(9.65953 0.271959 0)
(6.50892 6.05136 1.32042e-18)
(6.77056 5.83201 -4.79945e-20)
(7.02291 5.60014 2.77745e-18)
(7.26518 5.35608 1.38761e-18)
(7.49669 5.10029 0)
(7.71688 4.83328 -1.47351e-18)
(7.92517 4.55558 6.85208e-20)
(8.12101 4.26774 -1.4959e-18)
(8.30389 3.97037 2.06952e-18)
(8.47333 3.6641 3.27429e-20)
(8.6289 3.34957 2.81193e-20)
(8.77014 3.02741 -7.46477e-19)
(8.89664 2.69836 1.46401e-18)
(9.00808 2.36317 0)
(9.10421 2.02254 6.85789e-20)
(9.18471 1.67732 7.47445e-19)
(9.24932 1.32827 1.63878e-21)
(9.29786 0.97618 -1.53483e-20)
(9.33021 0.621839 0)
(9.34621 0.266087 -4.63397e-20)
(6.24306 5.73433 0)
(6.49336 5.52896 -4.89209e-20)
(6.73513 5.3116 1.75781e-20)
(6.9676 5.08252 -2.51076e-18)
(7.19013 4.84213 0)
(7.40214 4.59089 1.26986e-18)
(7.60309 4.32928 1.35259e-18)
(7.79246 4.05781 -3.93525e-18)
(7.96975 3.77702 -6.82922e-20)
(8.13447 3.48749 -1.26364e-18)
(8.28619 3.18981 6.95762e-19)
(8.42449 2.88459 -6.42713e-19)
(8.54897 2.57252 -7.06534e-19)
(8.65925 2.25427 0)
(8.75511 1.93058 3.72749e-19)
(8.83631 1.60204 -1.69116e-20)
(8.90248 1.26952 -3.46038e-19)
(8.9534 0.933755 -1.67735e-20)
(8.98896 0.595488 -8.71073e-20)
(9.009 0.255495 1.74588e-19)
(5.99749 5.4391 0)
(6.23622 5.24558 1.0857e-18)
(6.46699 5.04064 1.61862e-20)
(6.6891 4.82451 -1.10186e-18)
(6.90193 4.59756 0)
(7.10493 4.3602 1.14633e-18)
(7.29759 4.11287 -1.09447e-18)
(7.47942 3.85604 -1.2116e-18)
(7.64992 3.5902 2.30464e-18)
(7.80865 3.31588 1.24354e-18)
(7.95519 3.03365 0)
(8.08914 2.74408 6.06547e-19)
(8.21011 2.44781 -4.39123e-21)
(8.31778 2.14547 2.18701e-20)
(8.41175 1.83773 0)
(8.49188 1.52522 -5.97044e-19)
(8.558 1.20857 -3.1279e-19)
(8.60969 0.888564 4.57008e-19)
(8.64685 0.565951 3.0813e-19)
(8.66931 0.241434 -4.11861e-20)
(5.77591 5.17061 0)
(6.00337 4.98707 -9.37732e-19)
(6.22333 4.79268 0)
(6.43513 4.58765 -1.01172e-18)
(6.63819 4.37231 1.99186e-18)
(6.83198 4.14702 -2.03137e-18)
(7.01603 3.91218 3.17867e-18)
(7.18986 3.66824 -3.16953e-18)
(7.35303 3.41564 -2.14144e-18)
(7.50512 3.1549 -1.57945e-18)
(7.64572 2.88654 5.41619e-19)
(7.77446 2.6111 -1.12287e-18)
(7.89098 2.32916 1.8652e-20)
(7.99496 2.04133 1.11621e-18)
(8.08611 1.7482 -2.80812e-19)
(8.16405 1.45048 1.15034e-18)
(8.22869 1.14867 -5.65783e-19)
(8.27987 0.843477 2.60679e-19)
(8.31731 0.535629 -1.48662e-19)
(8.34082 0.225798 0)
(5.57802 4.92924 0)
(5.79486 4.75416 1.81413e-18)
(6.00456 4.56877 8.79993e-19)
(6.20648 4.37329 -9.05821e-19)
(6.40007 4.16798 -1.85557e-18)
(6.58486 3.95317 2.82361e-18)
(6.76039 3.72924 1.12937e-20)
(6.92624 3.4966 -9.20366e-19)
(7.08198 3.25568 1.97587e-18)
(7.22723 3.00695 1.02047e-18)
(7.3616 2.75092 -9.53398e-19)
(7.48474 2.4881 5.00621e-19)
(7.59633 2.21904 2.25424e-20)
(7.69604 1.9443 -5.26772e-19)
(7.78361 1.66444 -2.55265e-19)
(7.85874 1.38007 5.11841e-19)
(7.9212 1.09187 -2.56576e-19)
(7.97088 0.800339 -5.17762e-19)
(8.00761 0.50616 5.99978e-20)
(8.03115 0.209981 6.48772e-20)