/*--------------------------------*- C++ -*----------------------------------*\
  =========                 |
  \\      /  F ield         | OpenFOAM: The Open Source CFD Toolbox
   \\    /   O peration     | Website:  https://openfoam.org
    \\  /    A nd           | Version:  6.0
     \\/     M anipulation  |
\*---------------------------------------------------------------------------*/
FoamFile
{
    version     2.0;
    format      ascii;
    class       surfaceScalarField;
    location    "21.75";
    object      phi;
}
// * * * * * * * * * * * * * * * * * * * * * * * * * * * * * * * * * * * * * //

dimensions      [0 3 -1 0 0 0 0];

internalField   nonuniform List<scalar> 
18940
(
0.000532495
-0.472402
0.471869
0.00190455
-0.449895
0.448523
0.00369496
-0.434319
0.432528
0.0056269
-0.420692
0.41876
0.00755301
-0.407678
0.405752
0.00940079
-0.394601
0.392753
0.011144
-0.381396
0.379653
0.0127836
-0.368268
0.366628
0.014334
-0.355446
0.353896
0.0158135
-0.34311
0.341631
0.0172397
-0.33137
0.329944
0.018627
-0.320275
0.318888
0.0199864
-0.309833
0.308474
0.0213255
-0.300026
0.298687
0.0226497
-0.290821
0.289497
0.0239636
-0.282181
0.280867
0.0252725
-0.274063
0.272754
0.0265828
-0.26641
0.2651
0.0279007
-0.259142
0.257824
-0.252138
0.250807
0.0292323
0.000573518
-0.472975
0.00194631
-0.451268
0.00372064
-0.436093
0.00562857
-0.4226
0.00752279
-0.409572
0.00933356
-0.396412
0.0110378
-0.383101
0.0126385
-0.369868
0.0141511
-0.356959
0.0155947
-0.344554
0.0169869
-0.332762
0.0183421
-0.32163
0.0196708
-0.311162
0.0209801
-0.301335
0.022275
-0.292116
0.0235596
-0.283466
0.0248389
-0.275342
0.0261191
-0.26769
0.0274073
-0.26043
-0.253442
0.0287108
0.000610218
-0.473585
0.00198153
-0.452639
0.00373567
-0.437847
0.00561474
-0.424479
0.00747358
-0.411431
0.00924451
-0.398183
0.010907
-0.384763
0.0124661
-0.371427
0.0139385
-0.358431
0.0153439
-0.345959
0.0167
-0.334118
0.018021
-0.322951
0.0193171
-0.312458
0.020595
-0.302613
0.021859
-0.29338
0.0231128
-0.284719
0.0243609
-0.27659
0.0256095
-0.268939
0.0268665
-0.261687
-0.254716
0.0281407
0.00062242
-0.474208
0.00199739
-0.454014
0.00373469
-0.439584
0.00558352
-0.426328
0.00740429
-0.413252
0.00913269
-0.399911
0.0107508
-0.386381
0.0122659
-0.372942
0.0136959
-0.359861
0.0150609
-0.347324
0.0163789
-0.335436
0.017664
-0.324236
0.0189259
-0.31372
0.0201709
-0.303858
0.0214029
-0.294612
0.0226249
-0.285941
0.0238411
-0.277806
0.0250577
-0.270156
0.0262834
-0.262912
-0.255962
0.0275291
0.000633641
-0.474841
0.00200493
-0.455385
0.00372147
-0.441301
0.00553682
-0.428143
0.00731629
-0.415031
0.0089992
-0.401594
0.0105704
-0.387952
0.0120389
-0.374411
0.0134241
-0.361246
0.0147465
-0.348647
0.0160245
-0.336714
0.0172718
-0.325484
0.0184979
-0.314946
0.0197088
-0.305069
0.0209077
-0.295811
0.0220973
-0.287131
0.0232814
-0.27899
0.0244663
-0.271341
0.0256615
-0.264108
-0.257181
0.0268804
0.000637679
-0.475479
0.00200139
-0.456749
0.00369471
-0.442994
0.00547414
-0.429923
0.00720954
-0.416767
0.00884415
-0.403229
0.0103657
-0.389474
0.0117852
-0.375831
0.0131232
-0.362584
0.0144009
-0.349924
0.0156367
-0.33795
0.0168443
-0.326691
0.018033
-0.316135
0.0192084
-0.306244
0.0203734
-0.296976
0.0215303
-0.288288
0.0226824
-0.280142
0.023836
-0.272494
0.0250018
-0.265273
-0.258375
0.0261956
0.000639804
-0.476119
0.00199113
-0.4581
0.00365695
-0.44466
0.00539695
-0.431663
0.00708515
-0.418455
0.0086685
-0.404812
0.0101376
-0.390943
0.0115054
-0.377198
0.0127937
-0.363872
0.0140242
-0.351155
0.0152156
-0.339141
0.0163814
-0.327857
0.0175309
-0.317284
0.0186693
-0.307383
0.0197994
-0.298106
0.0209229
-0.289411
0.022043
-0.281262
0.023166
-0.273617
0.0243035
-0.266411
-0.259545
0.0254739
0.000638256
-0.476757
0.00197343
-0.459435
0.0036083
-0.446295
0.00530571
-0.43336
0.00694371
-0.420093
0.00847291
-0.406341
0.00988671
-0.392357
0.0112001
-0.378512
0.0124359
-0.365108
0.0136166
-0.352336
0.0147608
-0.340285
0.0158824
-0.328979
0.0169904
-0.318392
0.0180899
-0.308482
0.0191835
-0.2992
0.0202727
-0.290501
0.0213605
-0.28235
0.0224531
-0.27471
0.0235633
-0.267521
-0.260693
0.0247118
0.000634432
-0.477392
0.00194993
-0.460751
0.00355027
-0.447895
0.00520178
-0.435011
0.00678648
-0.421678
0.00825854
-0.407813
0.00961414
-0.393712
0.0108702
-0.379768
0.0120505
-0.366289
0.0131783
-0.353463
0.0142723
-0.34138
0.0153464
-0.330053
0.0164098
-0.319456
0.0174677
-0.30954
0.0185225
-0.300254
0.0195757
-0.291554
0.0206301
-0.283404
0.021692
-0.275772
0.0227751
-0.268604
-0.261821
0.0239028
0.000628061
-0.47802
0.00192082
-0.462044
0.00348357
-0.449458
0.0050862
-0.436614
0.00661467
-0.423206
0.00802666
-0.409225
0.00932105
-0.395007
0.0105166
-0.380963
0.0116382
-0.36741
0.0127095
-0.354535
0.0137496
-0.34242
0.0147725
-0.331076
0.0157875
-0.320471
0.0167998
-0.310552
0.0178123
-0.301267
0.0188264
-0.292568
0.0198448
-0.284423
0.0208741
-0.276801
0.0219289
-0.269659
-0.262928
0.0230358
0.000619811
-0.478639
0.00188721
-0.463311
0.0034096
-0.45098
0.00496058
-0.438165
0.00643003
-0.424676
0.00777906
-0.410574
0.00900917
-0.396237
0.0101409
-0.382095
0.0112001
-0.368469
0.0122109
-0.355545
0.0131928
-0.343402
0.0141598
-0.332043
0.0151215
-0.321432
0.0160834
-0.311514
0.0170486
-0.302232
0.0180188
-0.293538
0.0189967
-0.285401
0.0199893
-0.277794
0.0210124
-0.270682
-0.264012
0.0220964
0.000610072
-0.479249
0.00185002
-0.464551
0.00332975
-0.45246
0.00482673
-0.439662
0.00623464
-0.426084
0.00751796
-0.411858
0.00868076
-0.3974
0.00974516
-0.38316
0.010738
-0.369462
0.0116838
-0.356491
0.0126022
-0.34432
0.0135076
-0.332948
0.0144097
-0.322334
0.0153148
-0.312419
0.0162264
-0.303144
0.0171464
-0.294458
0.018078
-0.286332
0.0190282
-0.278744
0.0200143
-0.271668
-0.265067
0.0210695
0.000599738
-0.479849
0.00181085
-0.465762
0.00324605
-0.453895
0.00468699
-0.441103
0.00603113
-0.427428
0.00724626
-0.413073
0.00833888
-0.398492
0.00933261
-0.384153
0.0102549
-0.370385
0.0111306
-0.357367
0.0119794
-0.345169
0.0128158
-0.333785
0.0136502
-0.323169
0.0144897
-0.313259
0.0153386
-0.303992
0.0162001
-0.29532
0.0170779
-0.28721
0.0179795
-0.279646
0.0189223
-0.272611
-0.266083
0.019938
0.000589943
-0.480439
0.00177157
-0.466944
0.00316071
-0.455284
0.00454394
-0.442486
0.00582251
-0.428706
0.00696738
-0.414218
0.0079874
-0.399512
0.00890741
-0.385073
0.00975535
-0.371232
0.0105559
-0.358167
0.0113285
-0.345941
0.0120875
-0.334544
0.0128437
-0.323925
0.0136049
-0.31402
0.0143772
-0.304765
0.0151657
-0.296108
0.0159765
-0.288021
0.016818
-0.280487
0.0177071
-0.2735
-0.267051
0.0186751
0.0005822
-0.481021
0.00173423
-0.468096
0.003076
-0.456626
0.00440037
-0.443811
0.00561228
-0.429918
0.00668553
-0.415291
0.00763108
-0.400458
0.00847487
-0.385917
0.009245
-0.372003
0.00996585
-0.358888
0.0106563
-0.346632
0.01133
-0.335217
0.0119973
-0.324592
0.0126659
-0.314689
0.0133425
-0.305441
0.0140345
-0.2968
0.0147506
-0.288737
0.0155034
-0.28124
0.0163149
-0.274311
-0.267978
0.0172415
0.000577947
-0.481599
0.00170042
-0.469218
0.00299426
-0.45792
0.00425963
-0.445076
0.00540475
-0.431063
0.00640589
-0.416292
0.00727587
-0.401328
0.00804153
-0.386683
0.00873092
-0.372692
0.00936781
-0.359525
0.00997032
-0.347234
0.0105516
-0.335799
0.0111209
-0.325162
0.0116853
-0.315253
0.01225
-0.306006
0.0128208
-0.297371
0.0134064
-0.289323
0.0140245
-0.281858
0.0147163
-0.275003
-0.268847
0.0155858
0.000578304
-0.482178
0.00167235
-0.470312
0.00291943
-0.459167
0.00412663
-0.446283
0.00520539
-0.432142
0.00613463
-0.417221
0.00692902
-0.402122
0.00761592
-0.38737
0.00822274
-0.373299
0.00877189
-0.360074
0.00928002
-0.347742
0.00975922
-0.336278
0.0102186
-0.325621
0.0106656
-0.3157
0.0111058
-0.306446
0.0115433
-0.297809
0.0119823
-0.289762
0.0124375
-0.282313
0.0129556
-0.275521
-0.269489
0.0135978
0.000586312
-0.482764
0.00165726
-0.471383
0.00285944
-0.460369
0.0040078
-0.447432
0.0050198
-0.433154
0.00587793
-0.418079
0.00659845
-0.402843
0.00720869
-0.38798
0.00773453
-0.373825
0.00819571
-0.360536
0.00860538
-0.348152
0.00897186
-0.336644
0.00930124
-0.32595
0.00960025
-0.315999
0.00987869
-0.306725
0.0101499
-0.29808
0.0104268
-0.290039
0.010713
-0.282599
0.0109947
-0.275803
-0.269591
0.0110967
0.000616688
-0.483381
0.00167092
-0.472437
0.00282286
-0.461521
0.00390739
-0.448516
0.00485144
-0.434098
0.00564055
-0.418868
0.00629157
-0.403494
0.00683114
-0.388519
0.00728332
-0.374277
0.00766462
-0.360917
0.00798324
-0.348471
0.00824014
-0.336901
0.00843126
-0.326142
0.00855103
-0.316119
0.00859802
-0.306772
0.00858175
-0.298064
0.00852655
-0.289983
0.00846685
-0.28254
0.00842633
-0.275763
-0.269501
0.00833626
0.000709644
-0.48409
0.00171932
-0.473447
0.00280486
-0.462607
0.00382251
-0.449534
0.00470077
-0.434976
0.00542576
-0.419593
0.00601436
-0.404082
0.00649268
-0.388998
0.00688365
-0.374668
0.0072018
-0.361235
0.00745215
-0.348721
0.00763026
-0.337079
0.00772221
-0.326234
0.0077035
-0.3161
0.00753606
-0.306604
0.00716325
-0.297691
0.0065144
-0.289335
0.00557603
-0.281601
0.00467336
-0.27486
-0.270551
0.00572296
0.492411
0.000554415
-0.492965
0.491912
0.000499232
0.491433
0.000478535
0.490964
0.000469101
0.490501
0.000462829
0.490043
0.00045798
0.489589
0.000454325
0.489138
0.000451475
0.488689
0.000448916
0.488242
0.000446381
0.487799
0.000443589
0.487358
0.000440791
0.48692
0.000437534
0.486486
0.000434862
0.486055
0.000430744
0.485626
0.000428581
0.485207
0.000419529
0.484792
0.000414329
0.484419
0.000373156
0.000328931
0.488511
0.00115756
-0.489114
0.487862
0.00114812
0.487189
0.00115185
0.486492
0.00116637
0.485771
0.00118358
0.485029
0.00119964
0.484269
0.00121416
0.483494
0.00122723
0.482704
0.00123858
0.481902
0.00124809
0.48109
0.0012556
0.480269
0.00126161
0.479441
0.00126594
0.478606
0.00126989
0.477765
0.00127195
0.476919
0.0012744
0.476068
0.00127081
0.475215
0.00126692
0.474343
0.00124479
0.00122533
0.477861
0.00157148
-0.478275
0.477377
0.00163168
0.476838
0.00169056
0.476252
0.00175232
0.475622
0.00181368
0.474951
0.00187097
0.474242
0.00192319
0.473499
0.00197049
0.472724
0.00201297
0.471922
0.0020508
0.471093
0.00208413
0.470241
0.00211367
0.469367
0.00213979
0.468473
0.00216412
0.467559
0.00218605
0.466626
0.00220721
0.46567
0.00222646
0.46469
0.00224728
0.46367
0.0022649
0.00228847
0.462132
0.00175785
-0.462318
0.461874
0.0018895
0.461551
0.00201353
0.461171
0.00213295
0.460737
0.00224745
0.460253
0.00235489
0.459722
0.00245423
0.459147
0.00254545
0.458531
0.00262876
0.457877
0.00270454
0.457188
0.00277321
0.456466
0.00283573
0.455713
0.00289314
0.45493
0.00294682
0.454118
0.00299805
0.453276
0.00304964
0.4524
0.00310199
0.451489
0.00315871
0.450534
0.00321978
0.0032887
0.444403
0.00176121
-0.444406
0.444332
0.00196048
0.444197
0.00214886
0.444002
0.00232757
0.443752
0.0024972
0.44345
0.00265681
0.443099
0.00280566
0.442701
0.00294355
0.442259
0.00307064
0.441776
0.0031874
0.441255
0.00329445
0.440697
0.00339299
0.440106
0.00348467
0.439482
0.00357123
0.438825
0.00365497
0.438134
0.00373993
0.437408
0.00382836
0.436643
0.00392373
0.435834
0.00402876
0.0041463
0.426382
0.00164859
-0.426269
0.426432
0.00191004
0.426422
0.00215847
0.426356
0.00239396
0.426236
0.00261702
0.426066
0.00282726
0.425847
0.00302415
0.425583
0.00320739
0.425277
0.00337704
0.424931
0.00353353
0.424548
0.00367764
0.42413
0.00381089
0.42368
0.0039348
0.423198
0.00405234
0.422686
0.00416725
0.422143
0.00428332
0.421566
0.0044049
0.420953
0.00453702
0.420298
0.0046842
0.00485042
0.409056
0.00147986
-0.408887
0.409167
0.0017984
0.409224
0.00210218
0.409227
0.00239066
0.40918
0.00266397
0.409086
0.00292178
0.408946
0.00316365
0.408764
0.00338916
0.408543
0.00359824
0.408286
0.00379117
0.407994
0.0039688
0.407672
0.00413279
0.407322
0.00428496
0.406946
0.00442875
0.406544
0.00456906
0.406117
0.00471085
0.405662
0.00485992
0.405175
0.00502346
0.404651
0.00520807
0.00541934
0.392905
0.00129766
-0.392723
0.393034
0.00166914
0.393112
0.00202428
0.393141
0.0023621
0.393122
0.00268234
0.393059
0.00298453
0.392955
0.00326813
0.392812
0.00353258
0.392632
0.00377758
0.39242
0.0040032
0.392179
0.00421033
0.391911
0.00440004
0.391621
0.00457499
0.391311
0.00473936
0.390982
0.00489803
0.390635
0.00505764
0.390269
0.0052264
0.389878
0.00541361
0.389458
0.00562865
0.00587944
0.378056
0.00112747
-0.377886
0.378176
0.00154884
0.378248
0.00195227
0.378274
0.0023365
0.378255
0.00270093
0.378195
0.00304483
0.378096
0.00336749
0.37796
0.00366805
0.377792
0.00394596
0.377594
0.00420085
0.377371
0.00443352
0.377126
0.00464459
0.376865
0.00483685
0.376589
0.00501475
0.376303
0.00518419
0.376008
0.00535286
0.375702
0.00553174
0.375383
0.00573302
0.375042
0.00596977
0.00625356
0.364448
0.00098182
-0.364303
0.364546
0.00145091
0.364598
0.00190051
0.364606
0.00232908
0.364571
0.00273574
0.364496
0.00311945
0.364384
0.00347929
0.364238
0.00381391
0.364062
0.00412254
0.363859
0.00440415
0.363633
0.00465903
0.36339
0.00488734
0.363135
0.00509229
0.362873
0.00527698
0.362608
0.00544895
0.362344
0.00561694
0.362081
0.00579502
0.361815
0.00599892
0.361538
0.00624686
0.00655614
0.351945
0.00086489
-0.351828
0.352016
0.00138029
0.352041
0.00187465
0.352024
0.00234621
0.351966
0.00279389
0.351869
0.00321624
0.351737
0.00361216
0.351571
0.00397963
0.351376
0.0043177
0.351156
0.00462424
0.350915
0.00489932
0.350661
0.00514161
0.350398
0.00535492
0.350135
0.00553997
0.349878
0.00570672
0.349632
0.00586298
0.349399
0.00602799
0.349177
0.0062205
0.348957
0.00646675
0.00679244
0.340393
0.000776237
-0.340304
0.340436
0.00133704
0.340435
0.00187533
0.340393
0.0023891
0.340309
0.00287713
0.340188
0.00333757
0.340031
0.00376915
0.339842
0.004169
0.339623
0.00453608
0.339381
0.00486667
0.339119
0.00516111
0.338846
0.00541483
0.338567
0.00563349
0.338294
0.00581288
0.338034
0.00596719
0.337798
0.00609905
0.337588
0.00623747
0.337408
0.00640049
0.337246
0.00662903
0.00695911
0.329653
0.000713307
-0.32959
0.329671
0.00131899
0.329645
0.00190071
0.329578
0.0024563
0.329471
0.00298445
0.329325
0.00348289
0.329144
0.00395027
0.328931
0.00438265
0.328687
0.00477924
0.328421
0.00513364
0.328134
0.00544762
0.327837
0.00571162
0.327536
0.00593431
0.327247
0.00610191
0.326976
0.0062382
0.326745
0.00633065
0.326554
0.00642844
0.326418
0.00653664
0.326319
0.00672787
0.00704442
0.319608
0.000673001
-0.319567
0.319603
0.00132328
0.319556
0.00194819
0.319467
0.00254544
0.319337
0.00311375
0.31917
0.00365043
0.318966
0.00415416
0.318729
0.00461972
0.318461
0.00504693
0.318169
0.00542591
0.317856
0.00576098
0.317533
0.00603459
0.317205
0.00626222
0.316894
0.00641248
0.316604
0.00652799
0.316372
0.00656254
0.316193
0.00660757
0.316107
0.00662268
0.316081
0.00675411
0.00702548
0.310164
0.000652601
-0.310144
0.31014
0.00134736
0.310073
0.00201531
0.309964
0.00265417
0.309815
0.00326283
0.309628
0.00383823
0.309403
0.00437915
0.309143
0.00487892
0.308852
0.00533839
0.308534
0.00574349
0.308193
0.00610225
0.307842
0.00638594
0.307482
0.00662212
0.307144
0.00674996
0.306826
0.00684648
0.306589
0.00679985
0.30641
0.0067865
0.306383
0.00664936
0.306437
0.00669991
0.00685837
0.301248
0.0006503
-0.301246
0.301206
0.00138948
0.301121
0.00210032
0.300994
0.00278074
0.300827
0.00342999
0.300621
0.00404463
0.300376
0.00462371
0.300096
0.00515901
0.299782
0.00565257
0.29944
0.00608571
0.29907
0.00647201
0.298688
0.00676758
0.298292
0.00701832
0.297922
0.00712031
0.297563
0.00720581
0.297313
0.00704898
0.297117
0.00698282
0.297163
0.00660327
0.297291
0.00657229
0.00645842
0.292798
0.000665392
-0.292813
0.292738
0.00144892
0.292636
0.00220234
0.292493
0.00292411
0.292309
0.00361403
0.292085
0.00426832
0.291822
0.0048864
0.291523
0.00545844
0.291187
0.00598801
0.290822
0.00645154
0.290425
0.00686918
0.290012
0.00717969
0.289577
0.00745337
0.289168
0.00752936
0.288755
0.00761956
0.288482
0.00732117
0.288245
0.00721986
0.288393
0.00645558
0.288557
0.00640802
0.00568117
0.284758
0.000697936
-0.284791
0.284682
0.00152542
0.284563
0.00232066
0.284404
0.0030831
0.284205
0.0038133
0.283966
0.00450716
0.283688
0.00516451
0.283373
0.00577398
0.28302
0.0063409
0.282635
0.00683659
0.282215
0.00728898
0.281776
0.00761829
0.281306
0.00792371
0.280857
0.00797845
0.28038
0.00809699
0.280063
0.00763728
0.279747
0.00753642
0.280044
0.00615872
0.280229
0.00622247
0.00430925
0.277074
0.000748233
-0.277125
0.276982
0.0016182
0.276849
0.00245329
0.276678
0.00325446
0.276468
0.0040233
0.276219
0.00475528
0.275933
0.00545077
0.27561
0.00609671
0.275251
0.00670082
0.274858
0.00722891
0.27443
0.00771764
0.273979
0.00806882
0.27349
0.00841291
0.273013
0.00845528
0.272482
0.00862814
0.2721
0.00801941
0.27164
0.00799582
0.272032
0.00576736
0.272388
0.00586597
0.00183753
0.269685
-0.269755
0.000818551
0.269576
0.00172711
0.269432
0.00259764
0.269253
0.00343306
0.26904
0.00423624
0.268793
0.00500217
0.268512
0.00573186
0.268199
0.00641027
0.267851
0.00704803
0.267474
0.00760596
0.267063
0.008129
0.266629
0.00850272
0.266155
0.00888721
0.265681
0.00892915
0.265138
0.00917133
0.264689
0.00846827
0.264061
0.00862391
0.264139
0.00568913
0.264507
0.00549755
-0.00420583
0.496891
0.000116926
-0.497008
0.496846
4.42787e-05
0.496813
3.38344e-05
0.496767
4.52075e-05
0.496703
6.38434e-05
0.496617
8.65731e-05
0.496504
0.000112522
0.496364
0.000140496
0.496195
0.00016915
0.495997
0.00019748
0.495773
0.000224674
0.495522
0.000250419
0.495248
0.000274034
0.494952
0.000295849
0.494638
0.000314329
0.494307
0.000331332
0.493965
0.000341295
0.493615
0.000350549
0.49328
0.000335173
0.000314026
0.49003
-0.000430674
-0.489482
0.490498
-0.000423806
0.490915
-0.000383678
0.491276
-0.000315875
0.491576
-0.000235725
0.491813
-0.000150528
0.491988
-6.21237e-05
0.4921
2.83484e-05
0.49215
0.00011924
0.492138
0.000208988
0.492067
0.000296233
0.491937
0.000380246
0.491751
0.00045999
0.491511
0.000535403
0.491221
0.000604737
0.490884
0.000668768
0.490502
0.000722902
0.490083
0.000769631
0.48962
0.000798036
0.00081986
0.473362
-0.00145632
-0.472337
0.474292
-0.00135297
0.475141
-0.00123288
0.475916
-0.00109088
0.476615
-0.000934699
0.477236
-0.000771898
0.47778
-0.000605943
0.478247
-0.000438522
0.478637
-0.000271338
0.478953
-0.0001061
0.479193
5.55624e-05
0.479361
0.000212581
0.479457
0.000363743
0.479484
0.000508522
0.479443
0.000645402
0.479338
0.000774262
0.479168
0.000892495
0.478937
0.00100104
0.478638
0.00109675
0.00118335
0.452435
-0.00275712
-0.451135
0.453651
-0.00256834
0.454783
-0.00236557
0.455838
-0.00214597
0.456817
-0.00191282
0.457716
-0.00167171
0.458537
-0.00142672
0.459279
-0.00118038
0.459942
-0.00093469
0.460528
-0.000691549
0.461036
-0.000452731
0.461468
-0.000219573
0.461825
6.61915e-06
0.462109
0.000225043
0.46232
0.000434449
0.46246
0.000634363
0.462529
0.000823387
0.462528
0.00100161
0.462457
0.0011679
0.00132203
0.431364
-0.00418991
-0.429931
0.432722
-0.00392665
0.434004
-0.00364727
0.43521
-0.0033524
0.436342
-0.00304437
0.437397
-0.0027275
0.438377
-0.002406
0.439279
-0.00208307
0.440106
-0.00176124
0.440857
-0.00144263
0.441533
-0.00112911
0.442136
-0.000822161
0.442666
-0.000523088
0.443124
-0.000232811
0.44351
4.76436e-05
0.443827
0.000317657
0.444074
0.000576322
0.444253
0.000823164
0.444363
0.00105764
0.00127865
0.411708
-0.00566457
-0.410234
0.413116
-0.00533431
0.414453
-0.00498393
0.415717
-0.00461656
0.416908
-0.00423548
0.418025
-0.00384502
0.419069
-0.00344966
0.420039
-0.00305314
0.420936
-0.00265846
0.421762
-0.00226796
0.422516
-0.0018836
0.423201
-0.00150685
0.423817
-0.00113894
0.424365
-0.000780781
0.424845
-0.000433224
0.42526
-9.69344e-05
0.425609
0.000227382
0.425893
0.000539072
0.426113
0.000837859
0.00112263
0.39396
-0.00713146
-0.392494
0.395364
-0.00673813
0.3967
-0.00631956
0.397964
-0.00588099
0.399156
-0.00542753
0.400276
-0.00496451
0.401323
-0.00449695
0.402299
-0.00402911
0.403205
-0.00356433
0.404042
-0.00310515
0.404812
-0.00265351
0.405516
-0.00221078
0.406155
-0.00177805
0.40673
-0.00135611
0.407243
-0.000945653
0.407693
-0.000547278
0.408082
-0.00016156
0.40841
0.000210849
0.408678
0.000569734
0.000913985
0.378107
-0.00856876
-0.37667
0.379482
-0.00811351
0.38079
-0.0076269
0.382025
-0.0071165
0.383187
-0.00658987
0.384277
-0.00605401
0.385295
-0.00551475
0.386242
-0.00497678
0.387122
-0.00444372
0.387935
-0.00391822
0.388683
-0.00340209
0.389369
-0.00289651
0.389993
-0.00240232
0.390557
-0.00192009
0.391062
-0.00145031
0.391508
-0.000993469
0.391897
-0.000549993
0.392228
-0.000120529
0.392503
0.000294692
0.000694501
0.36391
-0.00997175
-0.362507
0.36525
-0.00945368
0.36652
-0.00889685
0.367715
-0.00831194
0.368835
-0.00770989
0.369881
-0.00709973
0.370854
-0.00648819
0.371758
-0.00588035
0.372594
-0.00528007
0.373366
-0.00468992
0.374075
-0.00411146
0.374724
-0.00354552
0.375314
-0.00299255
0.375847
-0.00245284
0.376324
-0.00192661
0.376744
-0.00141416
0.37711
-0.000915823
0.377422
-0.000432209
0.37768
3.6389e-05
0.000488737
0.351079
-0.0113451
-0.349706
0.352387
-0.0107615
0.35362
-0.0101299
0.354774
-0.00946578
0.355848
-0.00878467
0.356847
-0.00809782
0.357771
-0.00741266
0.358625
-0.00673465
0.359413
-0.00606777
0.360137
-0.00541432
0.360801
-0.00477534
0.361407
-0.00415112
0.361956
-0.00354165
0.36245
-0.00294678
0.36289
-0.00236641
0.363276
-0.00180064
0.36361
-0.00124966
0.363892
-0.000714074
0.364123
-0.000194266
0.000308458
0.339356
-0.012698
-0.338003
0.340638
-0.0120441
0.341839
-0.0113303
0.342953
-0.0105803
0.343984
-0.00981548
0.344935
-0.00904884
0.345811
-0.00828825
0.346616
-0.00753958
0.347354
-0.00680671
0.348031
-0.0060913
0.34865
-0.00539359
0.349212
-0.00471313
0.349719
-0.00404927
0.350174
-0.00340133
0.350576
-0.0027688
0.350927
-0.00215156
0.351227
-0.00154968
0.351477
-0.000963764
0.351677
-0.000394294
0.000157305
0.328532
-0.014042
-0.327188
0.329798
-0.0133102
0.330971
-0.0125032
0.33205
-0.0116585
0.333039
-0.0108045
0.333944
-0.00995455
0.334773
-0.00911653
0.33553
-0.0082969
0.336222
-0.007499
0.336854
-0.00672328
0.337429
-0.00596885
0.337951
-0.00523435
0.33842
-0.00451828
0.338838
-0.0038193
0.339205
-0.00313647
0.339523
-0.00246938
0.339791
-0.00181803
0.340011
-0.00118302
0.340181
-0.000564997
3.44569e-05
0.318454
-0.0153904
-0.317105
0.319712
-0.0145686
0.320861
-0.0136523
0.321905
-0.0127027
0.322855
-0.0117537
0.323716
-0.0108163
0.324499
-0.00989897
0.32521
-0.00900867
0.325859
-0.00814729
0.326449
-0.00731341
0.326985
-0.00650472
0.327469
-0.0057187
0.327904
-0.0049528
0.328289
-0.00420488
0.328626
-0.00347353
0.328915
-0.00275808
0.329155
-0.00205846
0.329348
-0.00137533
0.329492
-0.000709542
-6.28968e-05
0.309007
-0.0167584
-0.307639
0.310265
-0.0158268
0.311392
-0.0147798
0.312404
-0.0137144
0.313314
-0.0126639
0.314132
-0.0116345
0.31487
-0.0106364
0.315538
-0.00967669
0.316145
-0.00875414
0.316696
-0.00786483
0.317196
-0.00700487
0.317648
-0.00617025
0.318052
-0.00535711
0.31841
-0.00456243
0.318721
-0.00378433
0.318984
-0.00302191
0.319201
-0.00227506
0.31937
-0.00154454
0.319492
-0.000831491
-0.000138036
0.300117
-0.0181663
-0.298709
0.301377
-0.0170873
0.302483
-0.015885
0.303463
-0.0146947
0.304334
-0.0135348
0.305107
-0.0124079
0.3058
-0.011329
0.306425
-0.0103022
0.306993
-0.00932144
0.307508
-0.00838008
0.307975
-0.00747244
0.308398
-0.00659254
0.308775
-0.00573497
0.309109
-0.00489581
0.309397
-0.00407272
0.30964
-0.00326461
0.309836
-0.00247139
0.309986
-0.001694
0.310088
-0.000933965
-0.000193825
0.291741
-0.0196497
-0.290257
0.292999
-0.0183454
0.294078
-0.0169639
0.295028
-0.0156448
0.295856
-0.0143632
0.296581
-0.0131325
0.297227
-0.011975
0.29781
-0.0108852
0.298338
-0.00984988
0.298819
-0.0088606
0.299256
-0.00790959
0.299652
-0.00698822
0.300006
-0.00608925
0.300318
-0.00520795
0.300587
-0.00434163
0.300811
-0.00348902
0.30099
-0.00265013
0.301122
-0.00182617
0.301208
-0.00101916
-0.00023221
0.283852
-0.0212754
-0.282226
0.2851
-0.0195936
0.286145
-0.0180087
0.287063
-0.0165631
0.287842
-0.0151416
0.28851
-0.0138008
0.289106
-0.0125705
0.289644
-0.0114235
0.290133
-0.0103385
0.290579
-0.00930666
0.290987
-0.00831756
0.291358
-0.00735905
0.29169
-0.00642198
0.291983
-0.00550098
0.292235
-0.00459311
0.292443
-0.00369705
0.292606
-0.00281295
0.292722
-0.00194246
0.292791
-0.00108817
-0.000254015
0.276405
-0.0231072
-0.274573
0.277658
-0.020847
0.278662
-0.0190131
0.279533
-0.0174341
0.280249
-0.015857
0.280853
-0.0144052
0.281392
-0.0131094
0.281881
-0.0119128
0.282328
-0.0107856
0.28274
-0.00971839
0.28312
-0.00869735
0.283467
-0.00770644
0.28378
-0.00673474
0.284056
-0.00577645
0.284291
-0.00482858
0.284484
-0.00388986
0.284632
-0.00296074
0.284733
-0.00204339
0.284786
-0.00114123
-0.000259189
0.269348
-0.024896
-0.267559
0.270655
-0.0221545
0.271638
-0.019996
0.272399
-0.0181948
0.273024
-0.0164822
0.273565
-0.0149456
0.274043
-0.013588
0.274478
-0.0123474
0.274881
-0.0111889
0.275259
-0.010096
0.275611
-0.00904954
0.275935
-0.00803078
0.276228
-0.00702778
0.276486
-0.00603448
0.276706
-0.00504791
0.276883
-0.00406714
0.277015
-0.00309306
0.2771
-0.00212846
0.277137
-0.00117764
-0.000246993
0.262558
-0.26276
-0.0246933
0.26393
-0.0235266
0.265174
-0.0212404
0.265666
-0.0186868
0.266121
-0.0169367
0.26662
-0.0154452
0.267051
-0.0140184
0.267422
-0.0127193
0.267776
-0.0115426
0.268118
-0.0104379
0.26844
-0.0093718
0.268737
-0.00832801
0.269006
-0.00729625
0.269241
-0.00626989
0.269439
-0.00524583
0.269596
-0.00422367
0.269708
-0.00320502
0.269773
-0.00219331
0.269788
-0.00119357
-0.000213754
0.0279406
0.236002
-0.234812
-0.0291311
0.0267149
0.242822
-0.241596
0.0254565
0.249874
-0.248616
0.0241656
0.257202
-0.255911
0.0228427
0.264855
-0.263532
0.0214884
0.272882
-0.271527
0.0201023
0.281329
-0.279943
0.018682
0.29025
-0.28883
0.0172227
0.299706
-0.298247
0.0157176
0.309786
-0.30828
0.0141577
0.320619
-0.319059
0.0125328
0.332406
-0.330781
0.0108329
0.345442
-0.343742
0.00905099
0.360142
-0.35836
0.00719045
0.377027
-0.375166
0.00527788
0.396646
-0.394734
0.00338565
0.419379
-0.417487
0.00166681
0.444852
-0.443133
0.000402495
0.470163
-0.468899
0.489942
-0.48954
0.0279393
0.237194
-0.0291313
0.0267132
0.244048
0.0254547
0.251132
0.0241634
0.258493
0.0228393
0.266179
0.0214827
0.274238
0.0200933
0.282719
0.0186688
0.291675
0.0172046
0.30117
0.0156942
0.311296
0.014129
0.322184
0.0124992
0.334035
0.0107952
0.347146
0.00901116
0.361926
0.00715226
0.378885
0.00524804
0.398551
0.00337456
0.421253
0.00168726
0.446539
0.000452581
0.471398
0.490395
0.0279056
0.238388
-0.0290988
0.0266796
0.245274
0.0254223
0.25239
0.024132
0.259783
0.0228083
0.267503
0.0214514
0.275595
0.0200607
0.28411
0.0186339
0.293101
0.0171669
0.302637
0.0156533
0.31281
0.0140847
0.323752
0.0124519
0.335668
0.0107457
0.348852
0.00896141
0.36371
0.00710576
0.380741
0.00521063
0.400446
0.0033539
0.42311
0.00168799
0.448205
0.000465635
0.47262
0.490861
0.0278378
0.23958
-0.0290303
0.0266142
0.246497
0.0253599
0.253644
0.0240726
0.261071
0.0227513
0.268824
0.0213959
0.276951
0.0200057
0.2855
0.0185786
0.294528
0.0171106
0.304105
0.0155955
0.314325
0.0140254
0.325323
0.0123913
0.337302
0.0106846
0.350559
0.00890149
0.365493
0.00704982
0.382593
0.00516306
0.402332
0.00332022
0.424952
0.00167228
0.449853
0.000465637
0.473827
0.491326
0.0277351
0.240769
-0.0289238
0.0265165
0.247716
0.0252677
0.254893
0.0239856
0.262353
0.0226687
0.270141
0.0213168
0.278302
0.019929
0.286887
0.0185035
0.295954
0.0170361
0.305573
0.0155213
0.31584
0.0139512
0.326893
0.0123173
0.338936
0.0106116
0.352265
0.00883084
0.367274
0.00698404
0.38444
0.00510597
0.40421
0.00327718
0.426781
0.00164874
0.451481
0.000461073
0.475014
0.491787
0.0276004
0.241951
-0.0287826
0.0263894
0.248927
0.0251483
0.256134
0.0238734
0.263628
0.0225627
0.271452
0.0212159
0.279649
0.0198321
0.288271
0.0184094
0.297377
0.0169442
0.307038
0.0154309
0.317353
0.0138622
0.328461
0.0122299
0.340569
0.0105265
0.353968
0.00874953
0.369051
0.00690899
0.38628
0.0050411
0.406078
0.00322799
0.428594
0.00162071
0.453089
0.000453393
0.476182
0.492241
0.0274355
0.243124
-0.028609
0.0262343
0.250128
0.0250031
0.257365
0.0237373
0.264894
0.0224345
0.272754
0.0210942
0.28099
0.0197157
0.28965
0.0182972
0.298795
0.0168353
0.3085
0.0153249
0.318863
0.0137588
0.330027
0.0121294
0.342198
0.0104297
0.355668
0.00865791
0.370823
0.00682527
0.388113
0.00496934
0.407934
0.00317355
0.43039
0.00158856
0.454674
0.000442815
0.477327
0.492684
0.0272498
0.244288
-0.0284133
0.0260594
0.251319
0.0248389
0.258586
0.0235827
0.26615
0.0222884
0.274049
0.0209552
0.282323
0.0195825
0.291022
0.0181687
0.300209
0.0167108
0.309958
0.0152039
0.32037
0.0136415
0.33159
0.012016
0.343824
0.0103213
0.357362
0.00855619
0.372588
0.00673308
0.389936
0.00489081
0.409777
0.00311387
0.432167
0.00155237
0.456235
0.000429782
0.47845
0.493113
0.0270416
0.24544
-0.0281939
0.0258635
0.252497
0.0246549
0.259794
0.0234096
0.267395
0.0221246
0.275334
0.0207991
0.283648
0.0194328
0.292389
0.0180243
0.301617
0.016571
0.311411
0.0150684
0.321873
0.0135104
0.333148
0.0118899
0.345444
0.0102013
0.359051
0.00844439
0.374345
0.00663242
0.391748
0.00480552
0.411603
0.0030491
0.433924
0.00151259
0.457772
0.000414902
0.479548
0.493528
0.0268328
0.246582
-0.0279751
0.0256649
0.253665
0.0244663
0.260993
0.0232295
0.268632
0.0219516
0.276612
0.020632
0.284968
0.0192705
0.29375
0.0178663
0.303022
0.0164171
0.31286
0.0149188
0.323371
0.0133656
0.334701
0.011751
0.347059
0.0100697
0.360732
0.00832233
0.376092
0.00652315
0.393547
0.00471344
0.413413
0.00297937
0.435658
0.0014696
0.459281
0.000398539
0.480619
0.493927
0.0266053
0.247713
-0.0277362
0.0254493
0.254821
0.0242617
0.262181
0.0230343
0.269859
0.0217639
0.277882
0.0204503
0.286282
0.0190936
0.295107
0.0176935
0.304422
0.0162483
0.314305
0.0147544
0.324865
0.0132066
0.336249
0.0115986
0.348667
0.00992591
0.362405
0.00818966
0.377828
0.00640511
0.395332
0.0046146
0.415204
0.00290497
0.437367
0.00142388
0.460762
0.000381135
0.481661
0.494308
0.0264191
0.248841
-0.0275464
0.0252652
0.255974
0.0240784
0.263367
0.0228507
0.271087
0.0215793
0.279153
0.0202647
0.287596
0.0189078
0.296464
0.0175085
0.305821
0.0160653
0.315749
0.014575
0.326355
0.0130325
0.337791
0.011432
0.350267
0.00976918
0.364068
0.00804577
0.379552
0.00627786
0.3971
0.00450874
0.416973
0.00282571