/*--------------------------------*- C++ -*----------------------------------*\
  =========                 |
  \\      /  F ield         | OpenFOAM: The Open Source CFD Toolbox
   \\    /   O peration     | Website:  https://openfoam.org
    \\  /    A nd           | Version:  6.0
     \\/     M anipulation  |
\*---------------------------------------------------------------------------*/
FoamFile
{
    version     2.0;
    format      ascii;
    class       volScalarField;
    location    "1.496";
    object      p;
}
// * * * * * * * * * * * * * * * * * * * * * * * * * * * * * * * * * * * * * //

dimensions      [0 2 -2 0 0 0 0];

internalField   nonuniform List<scalar> 
19200
(
-0.411748
-0.40752
-0.403727
-0.399968
-0.396027
-0.391931
-0.387681
-0.383264
-0.378674
-0.373909
-0.368969
-0.36386
-0.358589
-0.353166
-0.347601
-0.341905
-0.33609
-0.330168
-0.324151
-0.318053
-0.311892
-0.305673
-0.299398
-0.293065
-0.286702
-0.280346
-0.274005
-0.267604
-0.261119
-0.25537
-0.416326
-0.411889
-0.408013
-0.404185
-0.400164
-0.395978
-0.391627
-0.387103
-0.382399
-0.377514
-0.37245
-0.367211
-0.361807
-0.356248
-0.350545
-0.34471
-0.338754
-0.332689
-0.32653
-0.320291
-0.313988
-0.30763
-0.301217
-0.294751
-0.288258
-0.281777
-0.275318
-0.268793
-0.262171
-0.256398
-0.421816
-0.417055
-0.413009
-0.409063
-0.404927
-0.400622
-0.396151
-0.391502
-0.38667
-0.381652
-0.376451
-0.371075
-0.365531
-0.359831
-0.353986
-0.348007
-0.341907
-0.335699
-0.329396
-0.323013
-0.316568
-0.310071
-0.303522
-0.296925
-0.290305
-0.283702
-0.277129
-0.270483
-0.263725
-0.25796
-0.427994
-0.422939
-0.418706
-0.414608
-0.410326
-0.405878
-0.401265
-0.396472
-0.391494
-0.38633
-0.380983
-0.375459
-0.369768
-0.363921
-0.357927
-0.351801
-0.345553
-0.339198
-0.332749
-0.326223
-0.319636
-0.313
-0.306318
-0.299591
-0.292845
-0.286121
-0.279433
-0.272669
-0.265774
-0.260049
-0.434897
-0.429541
-0.425093
-0.420816
-0.41636
-0.411746
-0.406969
-0.402014
-0.396875
-0.391551
-0.386046
-0.380365
-0.374518
-0.368516
-0.362369
-0.356089
-0.349691
-0.343186
-0.33659
-0.329918
-0.323188
-0.316414
-0.3096
-0.302748
-0.295873
-0.28903
-0.282229
-0.275342
-0.268308
-0.262653
-0.442546
-0.43686
-0.432169
-0.427683
-0.423029
-0.418224
-0.413263
-0.408129
-0.402813
-0.397316
-0.39164
-0.385791
-0.37978
-0.373615
-0.367308
-0.360871
-0.354316
-0.347658
-0.340912
-0.334091
-0.327215
-0.320302
-0.313354
-0.306377
-0.299385
-0.292418
-0.285507
-0.278498
-0.271318
-0.265759
-0.450939
-0.444889
-0.439926
-0.435207
-0.43033
-0.425312
-0.420147
-0.414814
-0.409306
-0.403621
-0.397762
-0.391736
-0.385551
-0.379215
-0.372742
-0.366141
-0.359426
-0.352611
-0.345709
-0.338737
-0.331712
-0.324653
-0.317571
-0.310465
-0.303351
-0.296272
-0.289251
-0.28212
-0.274792
-0.269354
-0.460073
-0.453623
-0.448359
-0.443381
-0.438257
-0.433004
-0.427614
-0.422065
-0.416349
-0.410462
-0.404409
-0.398194
-0.391825
-0.385311
-0.378663
-0.371893
-0.365012
-0.358035
-0.350975
-0.343848
-0.336671
-0.329465
-0.32224
-0.315005
-0.307767
-0.300571
-0.293443
-0.286186
-0.278706
-0.273413
-0.469936
-0.463051
-0.457461
-0.452199
-0.446805
-0.441295
-0.435659
-0.429876
-0.423935
-0.417832
-0.411572
-0.405157
-0.398595
-0.391894
-0.385065
-0.378118
-0.371066
-0.36392
-0.356697
-0.349411
-0.342079
-0.334722
-0.327354
-0.319984
-0.312623
-0.305305
-0.298069
-0.290682
-0.283039
-0.277911
-0.480519
-0.473165
-0.467221
-0.461652
-0.455963
-0.450174
-0.444274
-0.438239
-0.432056
-0.425724
-0.419243
-0.412617
-0.405852
-0.398956
-0.391937
-0.384806
-0.377575
-0.370256
-0.362863
-0.355412
-0.34792
-0.340406
-0.332892
-0.325381
-0.317892
-0.310462
-0.303107
-0.295589
-0.287773
-0.282822
-0.491807
-0.483953
-0.477628
-0.471728
-0.465723
-0.459634
-0.453449
-0.447144
-0.440704
-0.434128
-0.427414
-0.420565
-0.413587
-0.406485
-0.399269
-0.391946
-0.384528
-0.377028
-0.369459
-0.361837
-0.354179
-0.346503
-0.33883
-0.331177
-0.323553
-0.316005
-0.308537
-0.300879
-0.292882
-0.288118
-0.503784
-0.4954
-0.48867
-0.482416
-0.476072
-0.469662
-0.463174
-0.456581
-0.449869
-0.443034
-0.436074
-0.42899
-0.421788
-0.414471
-0.407047
-0.399523
-0.391912
-0.384223
-0.376471
-0.368671
-0.360839
-0.352995
-0.345158
-0.337351
-0.329585
-0.32191
-0.314333
-0.306523
-0.29834
-0.293772
-0.516433
-0.507491
-0.500332
-0.493702
-0.486998
-0.480247
-0.473437
-0.46654
-0.459539
-0.452431
-0.445211
-0.437881
-0.430443
-0.4229
-0.415258
-0.407525
-0.399711
-0.391826
-0.383883
-0.375897
-0.367884
-0.359864
-0.351856
-0.343882
-0.335966
-0.328154
-0.320459
-0.312498
-0.304117
-0.299757
-0.529736
-0.52021
-0.512599
-0.505571
-0.498487
-0.491375
-0.484226
-0.477007
-0.469703
-0.462307
-0.454814
-0.447224
-0.439538
-0.431758
-0.423889
-0.415937
-0.40791
-0.39982
-0.391678
-0.383497
-0.375295
-0.367089
-0.358901
-0.350751
-0.342672
-0.334713
-0.326887
-0.318775
-0.310177
-0.306032
-0.543672
-0.533537
-0.525454
-0.518008
-0.510524
-0.503033
-0.495526
-0.48797
-0.480347
-0.472648
-0.464869
-0.457007
-0.449061
-0.441033
-0.432925
-0.424744
-0.416496
-0.40819
-0.399838
-0.391453
-0.383051
-0.37465
-0.366271
-0.357936
-0.349678
-0.341564
-0.333595
-0.325325
-0.316509
-0.312572
-0.558219
-0.547453
-0.538876
-0.530995
-0.523092
-0.515205
-0.507323
-0.499414
-0.491457
-0.483442
-0.475363
-0.467216
-0.458998
-0.45071
-0.442353
-0.433932
-0.425451
-0.41692
-0.408347
-0.399746
-0.391131
-0.382522
-0.37394
-0.365406
-0.356957
-0.348669
-0.340548
-0.332102
-0.323077
-0.319348
-0.573353
-0.561936
-0.552848
-0.544512
-0.536172
-0.527872
-0.5196
-0.511322
-0.503016
-0.494671
-0.486279
-0.477834
-0.469333
-0.460774
-0.452157
-0.443485
-0.434761
-0.425993
-0.417187
-0.408357
-0.399516
-0.390684
-0.381881
-0.373132
-0.364471
-0.355982
-0.347687
-0.339043
-0.329781
-0.326267
-0.589051
-0.576963
-0.567346
-0.558539
-0.549746
-0.541016
-0.532339
-0.523677
-0.515009
-0.50632
-0.497602
-0.488848
-0.480052
-0.471211
-0.462323
-0.453389
-0.44441
-0.435392
-0.426341
-0.417269
-0.408188
-0.399116
-0.390075
-0.381089
-0.372196
-0.363483
-0.354974
-0.346102
-0.336559
-0.333232
-0.605288
-0.592511
-0.582349
-0.573054
-0.563792
-0.554617
-0.545519
-0.53646
-0.527416
-0.518371
-0.509315
-0.50024
-0.491138
-0.482004
-0.472834
-0.463627
-0.454382
-0.445102
-0.435793
-0.426464
-0.417127
-0.407798
-0.398499
-0.389254
-0.380103
-0.371139
-0.362391
-0.353249
-0.343386
-0.34021
-0.622039
-0.608557
-0.597834
-0.588036
-0.578289
-0.568654
-0.559122
-0.549652
-0.540218
-0.530805
-0.5214
-0.511993
-0.502574
-0.493136
-0.483674
-0.474182
-0.46466
-0.455107
-0.445527
-0.435927
-0.426317
-0.416711
-0.407131
-0.3976
-0.38816
-0.378912
-0.369886
-0.360435
-0.350203
-0.347139
-0.639277
-0.625075
-0.613775
-0.60346
-0.593214
-0.583104
-0.573125
-0.563232
-0.553397
-0.543604
-0.533839
-0.524089
-0.514343
-0.504592
-0.494826
-0.48504
-0.47523
-0.465392
-0.455529
-0.445643
-0.435741
-0.425836
-0.415949
-0.406101
-0.396336
-0.386759
-0.377408
-0.367597
-0.356939
-0.353929
-0.656974
-0.642037
-0.630147
-0.6193
-0.608542
-0.597946
-0.587506
-0.577178
-0.566932
-0.556748
-0.546612
-0.53651
-0.526427
-0.516352
-0.506275
-0.496185
-0.486077
-0.475944
-0.465785
-0.455598
-0.445386
-0.435161
-0.424938
-0.414738
-0.404603
-0.394646
-0.384909
-0.374668
-0.363505
-0.360475
-0.675101
-0.659415
-0.646921
-0.635531
-0.624248
-0.613153
-0.602243
-0.591469
-0.5808
-0.570216
-0.559701
-0.549236
-0.538808
-0.528402
-0.518004
-0.507603
-0.497188
-0.486752
-0.476286
-0.465785
-0.455247
-0.444679
-0.434091
-0.423499
-0.412943
-0.40254
-0.392337
-0.381574
-0.369797
-0.366632
-0.69363
-0.677179
-0.664068
-0.652122
-0.640303
-0.6287
-0.617308
-0.606079
-0.594979
-0.583987
-0.573083
-0.562249
-0.551468
-0.540723
-0.529999
-0.51928
-0.508555
-0.497808
-0.487028
-0.476203
-0.465327
-0.454396
-0.443415
-0.432391
-0.421356
-0.410428
-0.399658
-0.388245
-0.375695
-0.372231
-0.712531
-0.695298
-0.681556
-0.669042
-0.656678
-0.644556
-0.632676
-0.620983
-0.609444
-0.598036
-0.586737
-0.575527
-0.564388
-0.553299
-0.542244
-0.531206
-0.520166
-0.509107
-0.498011
-0.48686
-0.47564
-0.464336
-0.45294
-0.441446
-0.429873
-0.418331
-0.406866
-0.394628
-0.381065
-0.377043
-0.731777
-0.713736
-0.699348
-0.686257
-0.67334
-0.660693
-0.648316
-0.636154
-0.624169
-0.612339
-0.600639
-0.589048
-0.577545
-0.566111
-0.554724
-0.543365
-0.532013
-0.520647
-0.509242
-0.497774
-0.486216
-0.474544
-0.46273
-0.450745
-0.438585
-0.426335
-0.414024
-0.400724
-0.385789
-0.380801
-0.751344
-0.732456
-0.717406
-0.70373
-0.690254
-0.677077
-0.664199
-0.651561
-0.639126
-0.626868
-0.614762
-0.602787
-0.590918
-0.579136
-0.567418
-0.555742
-0.544087
-0.532425
-0.520729
-0.508967
-0.497103
-0.485094
-0.472893
-0.46044
-0.447688
-0.434681
-0.421401
-0.406798
-0.390009
-0.383395
-0.771244
-0.751422
-0.735684
-0.72142
-0.707382
-0.693674
-0.680291
-0.667175
-0.654285
-0.641595
-0.62908
-0.616716
-0.60448
-0.592349
-0.580302
-0.568318
-0.556371
-0.544435
-0.532479
-0.520466
-0.508351
-0.496078
-0.483574
-0.47074
-0.45747
-0.443737
-0.429448
-0.413301
-0.393815
-0.384094
-0.791516
-0.770589
-0.754126
-0.739278
-0.724686
-0.710449
-0.696563
-0.682966
-0.669619
-0.656495
-0.643566
-0.63081
-0.618203
-0.605724
-0.593352
-0.581066
-0.568844
-0.55666
-0.544486
-0.532285
-0.52001
-0.507594
-0.494942
-0.481907
-0.468289
-0.453919
-0.438463
-0.41991
-0.39517
-0.378397
-0.811653
-0.789735
-0.772637
-0.757245
-0.742119
-0.727362
-0.712976
-0.698898
-0.685091
-0.671528
-0.658182
-0.64503
-0.632049
-0.619219
-0.606523
-0.593943
-0.581461
-0.569058
-0.556715
-0.544408
-0.532106
-0.519759
-0.507289
-0.494557
-0.481342
-0.467354
-0.451884
-0.431968
-0.402553
-0.376982
-1.18072
-1.18518
-1.1876
-1.18844
-1.18769
-1.18539
-1.18158
-1.17632
-1.16967
-1.16168
-1.15244
-1.14201
-1.13046
-1.11785
-1.10427
-1.08979
-1.07447
-1.05838
-1.04161
-1.02421
-1.00626
-0.987812
-0.968943
-0.94971
-0.930171
-0.91038
-0.890386
-0.870209
-0.849839
-0.829736
-1.14875
-1.15303
-1.15544
-1.15622
-1.15542
-1.15309
-1.14929
-1.14408
-1.13751
-1.12967
-1.12061
-1.11041
-1.09913
-1.08683
-1.0736
-1.0595
-1.04461
-1.02898
-1.0127
-0.995819
-0.978416
-0.960553
-0.942292
-0.923694
-0.904818
-0.885725
-0.866474
-0.84712
-0.82772
-0.80848
-1.12172
-1.12589
-1.1283
-1.1291
-1.12835
-1.12609
-1.12238
-1.11728
-1.11087
-1.10322
-1.09439
-1.08445
-1.07345
-1.06147
-1.04858
-1.03484
-1.02033
-1.00512
-0.989273
-0.972854
-0.955932
-0.938569
-0.920828
-0.902769
-0.884452
-0.865937
-0.847284
-0.828555
-0.809813
-0.791154
-1.09555
-1.09972
-1.10221
-1.10312
-1.10251
-1.1004
-1.09688
-1.09198
-1.0858
-1.07841
-1.06986
-1.06023
-1.04956
-1.03793
-1.0254
-1.01205
-0.997948
-0.983156
-0.967744
-0.95178
-0.935328
-0.918449
-0.901207
-0.883659
-0.865866
-0.847887
-0.82978
-0.811603
-0.793413
-0.775279
-1.06843
-1.0727
-1.07535
-1.07645
-1.07605
-1.0742
-1.07093
-1.06632
-1.06045
-1.05338
-1.04519
-1.03592
-1.02563
-1.0144
-1.00229
-0.989363
-0.975698
-0.961359
-0.946413
-0.930926
-0.914962
-0.898581
-0.881846
-0.864814
-0.847546
-0.830098
-0.812529
-0.794892
-0.777239
-0.759628
-1.04064
-1.04511
-1.048
-1.04937
-1.04927
-1.04773
-1.04481
-1.04056
-1.03506
-1.02839
-1.0206
-1.01174
-1.00189
-0.991099
-0.979441
-0.966983
-0.953792
-0.939935
-0.925478
-0.910486
-0.895022
-0.879147
-0.862922
-0.846406
-0.829658
-0.812733
-0.795688
-0.778576
-0.761446
-0.74435
-1.01236
-1.01711
-1.0203
-1.02201
-1.02226
-1.02111
-1.01859
-1.01476
-1.0097
-1.00348
-0.996145
-0.987758
-0.97838
-0.968076
-0.956911
-0.944952
-0.932265
-0.918914
-0.904966
-0.890485
-0.875533
-0.860171
-0.84446
-0.828458
-0.812223
-0.795811
-0.779278
-0.762676
-0.746052
-0.729456
-0.983685
-0.98876
-0.992314
-0.994407
-0.995076
-0.994358
-0.992291
-0.988931
-0.984352
-0.978623
-0.971795
-0.963919
-0.955059
-0.945278
-0.934642
-0.923213
-0.911056
-0.898235
-0.884816
-0.87086
-0.856431
-0.84159
-0.826396
-0.810908
-0.795182
-0.779274
-0.763242
-0.747136
-0.731002
-0.714891
-0.954734
-0.960177
-0.964129
-0.966647
-0.967765
-0.967518
-0.965939
-0.963083
-0.959029
-0.953834
-0.947546
-0.940218
-0.93191
-0.922685
-0.912606
-0.901734
-0.890131
-0.877861
-0.864987
-0.851572
-0.837678
-0.823365
-0.808692
-0.793716
-0.778495
-0.763086
-0.747543
-0.73192
-0.716261
-0.700617
-0.925644
-0.931478
-0.935851
-0.938817
-0.94041
-0.940655
-0.939589
-0.93727
-0.933767
-0.929136
-0.923419
-0.916665
-0.908936
-0.900292
-0.890793
-0.8805
-0.869472
-0.857771
-0.845459
-0.832597
-0.819248
-0.805469
-0.79132
-0.776857
-0.762138
-0.747219
-0.732156
-0.717002
-0.701801
-0.686608
-0.896553
-0.902782
-0.907587
-0.911014
-0.913092
-0.913845
-0.913309
-0.911543
-0.908613
-0.904565
-0.899435
-0.893275
-0.886144
-0.8781
-0.869201
-0.859503
-0.849067
-0.83795
-0.826214
-0.813918
-0.801121
-0.787883
-0.77426
-0.76031
-0.746088
-0.731651
-0.717057
-0.702357
-0.687599
-0.672837
-0.867594
-0.874214
-0.879448
-0.883336
-0.885903
-0.887169
-0.887169
-0.885965
-0.883616
-0.880156
-0.875624
-0.870069
-0.863548
-0.856117
-0.847831
-0.838743
-0.828911
-0.818391
-0.807241
-0.79552
-0.783284
-0.770591
-0.757496
-0.744056
-0.730327
-0.716365
-0.702227
-0.687966
-0.673633
-0.659283
-0.838898
-0.845894
-0.851545
-0.855884
-0.858932
-0.860706
-0.861241
-0.860596
-0.858821
-0.85595
-0.852017
-0.847072
-0.841168
-0.834357
-0.826691
-0.818223
-0.809004
-0.799091
-0.788536
-0.777397
-0.765727
-0.753582
-0.741017
-0.728086
-0.714843
-0.701346
-0.68765
-0.673811
-0.659882
-0.645923
-0.810585
-0.817935
-0.823981
-0.828753
-0.832266
-0.834534
-0.835589
-0.835489
-0.83428
-0.83199
-0.828652
-0.824313
-0.819025
-0.812836
-0.805795
-0.79795
-0.789351
-0.780049
-0.770096
-0.759544
-0.748445
-0.736851
-0.724815
-0.712389
-0.699627
-0.686582
-0.673313
-0.659878
-0.646332
-0.632739
-0.782759
-0.790435
-0.796851
-0.802029
-0.805981
-0.80872
-0.810275
-0.810701
-0.81004
-0.808317
-0.805563
-0.801824
-0.797146
-0.791575
-0.785156
-0.777935
-0.769957
-0.76127
-0.751922
-0.741961
-0.731435
-0.720394
-0.708887
-0.696963
-0.684672
-0.672069
-0.65921
-0.646157
-0.632971
-0.619718
-0.75551
-0.763481
-0.770233
-0.775785
-0.780148
-0.783327
-0.785355
-0.786284
-0.78615
-0.784974
-0.782789
-0.779636
-0.775557
-0.770595
-0.764792
-0.75819
-0.750831
-0.742759
-0.734017
-0.724649
-0.7147
-0.704213
-0.693234
-0.681807
-0.669981
-0.657806
-0.64534
-0.632647
-0.619791
-0.606845
-0.728909
-0.73714
-0.744193
-0.750086
-0.754822
-0.75841
-0.760882
-0.762286
-0.762652
-0.762002
-0.760365
-0.757779
-0.754283
-0.749917
-0.744719
-0.738728
-0.731982
-0.724522
-0.716385
-0.707612
-0.69824
-0.688309
-0.677858
-0.666926
-0.655558
-0.6438
-0.631709
-0.619349
-0.606789
-0.594111
-0.703015
-0.711468
-0.718787
-0.724981
-0.730055
-0.734019
-0.736902
-0.73875
-0.739589
-0.739437
-0.738323
-0.736282
-0.733349
-0.729561
-0.724952
-0.71956
-0.71342
-0.706567
-0.699033
-0.690854
-0.682061
-0.672688
-0.662766
-0.65233
-0.641415
-0.630064
-0.618328
-0.606271
-0.593966
-0.581507
-0.677871
-0.68651
-0.694056
-0.700514
-0.705891
-0.710194
-0.713456
-0.715716
-0.716996
-0.717312
-0.716694
-0.715172
-0.712777
-0.709545
-0.705508
-0.700701
-0.695155
-0.6889
-0.681965
-0.674379
-0.666167
-0.657356
-0.647969
-0.638031
-0.62757
-0.616618
-0.605218
-0.59343
-0.581332
-0.569031
-0.653508
-0.662299
-0.670035
-0.676721
-0.682364
-0.686973
-0.690579
-0.693216
-0.694903
-0.695656
-0.695503
-0.694469
-0.692587
-0.689887
-0.686401
-0.682161
-0.677195
-0.671529
-0.665187
-0.658192
-0.650564
-0.64232
-0.633477
-0.624047
-0.614044
-0.603488
-0.592408
-0.580854
-0.568906
-0.556683
-0.629949
-0.638857
-0.646748
-0.653629
-0.659503
-0.664384
-0.668298
-0.671277
-0.673336
-0.674492
-0.67477
-0.674194
-0.672795
-0.670601
-0.667644
-0.663951
-0.659548
-0.654458
-0.648701
-0.642296
-0.635256
-0.62759
-0.619303
-0.610395
-0.600864
-0.590708
-0.579937
-0.568583
-0.556718
-0.544469
-0.607206
-0.616199
-0.624214
-0.631255
-0.637329
-0.642446
-0.646634
-0.649918
-0.652314
-0.653838
-0.654513
-0.654363
-0.653416
-0.651701
-0.649246
-0.646078
-0.64222
-0.637692
-0.632512
-0.626695
-0.620247
-0.613171
-0.605458
-0.597094
-0.588057
-0.578319
-0.567858
-0.556673
-0.544816
-0.532407
-0.585285
-0.594333
-0.602441
-0.609612
-0.615852
-0.621174
-0.6256
-0.629154
-0.631851
-0.633707
-0.634745
-0.634987
-0.634462
-0.633197
-0.631217
-0.628549
-0.625215
-0.621233
-0.616621
-0.611389
-0.60554
-0.599066
-0.59195
-0.584162
-0.575654
-0.566368
-0.556236
-0.545202
-0.533272
-0.520526
-0.564185
-0.573262
-0.581434
-0.588705
-0.595082
-0.600575
-0.605207
-0.608996
-0.611959
-0.614112
-0.615478
-0.61608
-0.615945
-0.615098
-0.613566
-0.611372
-0.608538
-0.605086
-0.60103
-0.59638
-0.591134
-0.585279
-0.578789
-0.571617
-0.563692
-0.554915
-0.545159
-0.53428
-0.522204
-0.508886
-0.543899
-0.55298
-0.561191
-0.568536
-0.575019
-0.580654
-0.585457
-0.589447
-0.592642
-0.595059
-0.596719
-0.597648
-0.59787
-0.597411
-0.596295
-0.594547
-0.592192
-0.58925
-0.585738
-0.581664
-0.577025
-0.571806
-0.565974
-0.55947
-0.552199
-0.54402
-0.53473
-0.52406
-0.511795
-0.497618
-0.524416
-0.533477
-0.541702
-0.549093
-0.555655
-0.561399
-0.566339
-0.570496
-0.573887
-0.576532
-0.578452
-0.579672
-0.580217
-0.58011
-0.579378
-0.578046
-0.576141
-0.573687
-0.5707
-0.567191
-0.563158
-0.558589
-0.553449
-0.547671
-0.541143
-0.533686
-0.525013
-0.514686
-0.502288
-0.486985
-0.505725
-0.514745
-0.522959
-0.53037
-0.536983
-0.542804
-0.547849
-0.552139
-0.555693
-0.55853
-0.560673
-0.562146
-0.562974
-0.563181
-0.562794
-0.561842
-0.560354
-0.558355
-0.555865
-0.552898
-0.549461
-0.545544
-0.541118
-0.536118
-0.53043
-0.52385
-0.516008
-0.506264
-0.49395
-0.477308
-0.487811
-0.496795
-0.505001
-0.512434
-0.519095
-0.524989
-0.530134
-0.53455
-0.538257
-0.541276
-0.54363
-0.545342
-0.546437
-0.546942
-0.546886
-0.546299
-0.545213
-0.543655
-0.541651
-0.539221
-0.536379
-0.533125
-0.529442
-0.525279
-0.520538
-0.515024
-0.508321
-0.499577
-0.487738
-0.468989
-0.470633
-0.479611
-0.487838
-0.49532
-0.502057
-0.508054
-0.513328
-0.517904
-0.5218
-0.525039
-0.527642
-0.529635
-0.531044
-0.531899
-0.532229
-0.532069
-0.531452
-0.530409
-0.528972
-0.527168
-0.52502
-0.522542
-0.519731
-0.516564
-0.512984
-0.508861
-0.503854
-0.49705
-0.486934
-0.464915
-0.454087
-0.462818
-0.470829
-0.478124
-0.484707
-0.49058
-0.495764
-0.500284
-0.504158
-0.507409
-0.510062
-0.512143
-0.513683
-0.514712
-0.515267
-0.515383
-0.515098
-0.514453
-0.513486
-0.512238
-0.510748
-0.509047
-0.507166
-0.505127
-0.502953
-0.500678
-0.498228
-0.495092
-0.491133
-0.474748
-0.254732
-0.303047
-0.35044
-0.39751
-0.444073
-0.489967
-0.535075
-0.579291
-0.622507
-0.664626
-0.705551
-0.745196
-0.783475
-0.820313
-0.855636
-0.889377
-0.921473
-0.951867
-0.98051
-1.00736
-1.03238
-1.05554
-1.07682
-1.09621
-1.1137
-1.12929
-1.14296
-1.15472
-1.16453
-1.17276
-0.250583
-0.297824
-0.344346
-0.390384
-0.435825
-0.480555
-0.524482
-0.567511
-0.609543
-0.650486
-0.690251
-0.728752
-0.76591
-0.80165
-0.835902
-0.868602
-0.899689
-0.92911
-0.956816
-0.982767
-1.00693
-1.02928
-1.0498
-1.06848
-1.08532
-1.10031
-1.11345
-1.12477
-1.13427
-1.14211
-0.242691
-0.288946
-0.334629
-0.379797
-0.424352
-0.468197
-0.511243
-0.553398
-0.59457
-0.634668
-0.673607
-0.711303
-0.747679
-0.782662
-0.816184
-0.848182
-0.878597
-0.907377
-0.934475
-0.959851
-0.983476
-1.00533
-1.02539
-1.04364
-1.06009
-1.07474
-1.08758
-1.09864
-1.10793
-1.11554
-0.231279
-0.2766
-0.321433
-0.365773
-0.409516
-0.45257
-0.494843
-0.536246
-0.576688
-0.616081
-0.654339
-0.691383
-0.727136
-0.761525
-0.794485
-0.825953
-0.855871
-0.884188
-0.910857
-0.93584
-0.959108
-0.980638
-1.00041
-1.01842
-1.03466
-1.04911
-1.06181
-1.07275
-1.08196
-1.08949
-0.217059
-0.261429
-0.305378
-0.348865
-0.391785
-0.434044
-0.475552
-0.516219
-0.555956
-0.594676
-0.632295
-0.668735
-0.703918
-0.737776
-0.77024
-0.801251
-0.83075
-0.858687
-0.885017
-0.909702
-0.932711
-0.954022
-0.973614
-0.991475
-1.0076
-1.02198
-1.03463
-1.04556
-1.05478
-1.06234
-0.200757
-0.244162
-0.2872
-0.329811
-0.371891
-0.413345
-0.454085
-0.49402
-0.533063
-0.571128
-0.608134
-0.644
-0.678652
-0.71202
-0.744039
-0.774647
-0.803787
-0.83141
-0.85747
-0.88193
-0.904759
-0.92593
-0.945422
-0.963219
-0.979313
-0.993704
-1.0064
-1.01741
-1.02674
-1.03442
-0.183059
-0.225478
-0.267577
-0.309287
-0.350504
-0.391135
-0.431093
-0.470288
-0.508635
-0.546048
-0.582447
-0.617754
-0.651894
-0.684797
-0.716399
-0.746637
-0.775457
-0.802808
-0.828645
-0.85293
-0.87563
-0.896716
-0.916165
-0.933961
-0.950092
-0.964559
-0.977368
-0.988526
-0.998032
-1.00592
-0.164566
-0.205974
-0.247106
-0.287885
-0.328212
-0.367996
-0.407151
-0.445588
-0.483224
-0.519975
-0.555761
-0.590506
-0.624134
-0.656578
-0.687771
-0.717653
-0.746168
-0.773266
-0.798903
-0.823039
-0.845638
-0.86667
-0.886111
-0.903941
-0.92015
-0.934738
-0.947707
-0.959063
-0.968803
-0.976958
-0.14578
-0.186154
-0.226292
-0.266114
-0.305524
-0.344435
-0.382761
-0.420418
-0.457323
-0.493393
-0.528551
-0.56272
-0.595827
-0.627803
-0.658582
-0.688105
-0.716315
-0.743164
-0.768605
-0.792597
-0.815104
-0.836093
-0.85554
-0.873424
-0.889735
-0.904469
-0.917626
-0.92921
-0.93922
-0.947682
-0.127099
-0.16642
-0.205544
-0.244386
-0.282856
-0.320871
-0.358346
-0.3952
-0.431352
-0.466721
-0.501231
-0.534805
-0.567373
-0.598865
-0.629216
-0.658366
-0.686261
-0.712849
-0.738085
-0.761926
-0.784335
-0.805279
-0.824731
-0.842673
-0.859093
-0.873983
-0.88734
-0.899166
-0.909461
-0.918248
-0.10883
-0.147088
-0.185181
-0.223027
-0.260541
-0.29764
-0.334246
-0.370277
-0.405655
-0.440302
-0.474143
-0.507102
-0.53911
-0.570098
-0.600001
-0.62876
-0.65632
-0.68263
-0.707643
-0.731316
-0.753611
-0.774495
-0.793942
-0.811933
-0.828455
-0.843497
-0.857052
-0.869118
-0.879699
-0.888809
-0.0911976
-0.128387
-0.165442
-0.202284
-0.238829
-0.275002
-0.310724
-0.345917
-0.380505
-0.414413
-0.447565
-0.47989
-0.511317
-0.54178
-0.571214
-0.59956
-0.626763
-0.652771
-0.677539
-0.701021
-0.72318
-0.743983
-0.763404
-0.781424
-0.798028
-0.813205
-0.826942
-0.839237
-0.85009
-0.859512
-0.0743587
-0.110482
-0.146499
-0.182332
-0.217906
-0.253146
-0.287977
-0.322323
-0.35611
-0.389265
-0.421714
-0.453388
-0.484216
-0.514133
-0.543077
-0.570988
-0.59781
-0.623492
-0.647988
-0.671253
-0.69325
-0.713945
-0.733313
-0.751334
-0.767994
-0.783278
-0.797174
-0.809676
-0.820779
-0.830493
-0.0584131
-0.0934777
-0.128462
-0.163292
-0.197896
-0.232204
-0.266143
-0.299639
-0.33262
-0.365014
-0.39675
-0.427759
-0.457973
-0.487327
-0.51576
-0.543213
-0.569631
-0.594962
-0.619159
-0.64218
-0.663987
-0.684547
-0.703833
-0.721825
-0.738507
-0.753866
-0.76789
-0.780569
-0.791897
-0.801878
-0.0434165
-0.0774357
-0.111398
-0.145234
-0.178878
-0.212261
-0.245313
-0.277962
-0.310136
-0.341766
-0.372782
-0.403117
-0.432704
-0.46148
-0.489385
-0.51636
-0.542352
-0.567308
-0.591181
-0.61393
-0.635519
-0.655916
-0.675091
-0.693023
-0.709696
-0.725096
-0.739214
-0.752038
-0.763558
-0.773777
-0.029391
-0.0623813
-0.0953367
-0.128194
-0.16089
-0.19336
-0.225535
-0.257344
-0.288717
-0.319585
-0.34988
-0.379535
-0.408488
-0.436675
-0.464037
-0.490517
-0.516063
-0.540621
-0.564147
-0.586599
-0.607943
-0.628148
-0.647184
-0.665027
-0.681659
-0.697069
-0.711247
-0.72418
-0.735859
-0.746284
-0.0163337
-0.0483135
-0.0802801
-0.112176
-0.143942
-0.175514
-0.206826
-0.237807
-0.268388
-0.298501
-0.328079
-0.357056
-0.385371
-0.412962
-0.43977
-0.465742
-0.490825
-0.514967
-0.538124
-0.560255
-0.581329
-0.601315
-0.620184
-0.637909
-0.654472
-0.669861
-0.684066
-0.697075
-0.708877
-0.719474
-0.00422337
-0.0352117
-0.0662089
-0.0971629
-0.128018
-0.158713
-0.18918
-0.219349
-0.249152
-0.278521
-0.307389
-0.335693
-0.363371
-0.390365
-0.416615
-0.442069
-0.466676
-0.490388
-0.513158
-0.534949
-0.555729
-0.575471
-0.594145
-0.611724
-0.628189
-0.643528
-0.657729
-0.67078
-0.682672
-0.693405
0.0069738
-0.0230407
-0.0530883
-0.0831222
-0.113089
-0.142928
-0.172571
-0.201948
-0.23099
-0.25963
-0.287802
-0.315441
-0.342489
-0.368887
-0.394577
-0.419509
-0.443632
-0.466902
-0.489274
-0.510707
-0.531175
-0.550651
-0.569105
-0.586511
-0.60285
-0.618109
-0.632275
-0.645337
-0.657286
-0.66812
0.0173004
-0.0117548
-0.0408723
-0.070009
-0.0991124
-0.12812
-0.156963
-0.185569
-0.213871
-0.2418
-0.26929
-0.296278
-0.322704
-0.348513
-0.373647
-0.398055
-0.421692
-0.444513
-0.466474
-0.48754
-0.507681
-0.526872
-0.545084
-0.562292
-0.578478
-0.593629
-0.607732
-0.620774
-0.632748
-0.643651
0.0268047
-0.00130059
-0.0295071
-0.0577703
-0.0860361
-0.114239
-0.142307
-0.170168
-0.197751
-0.22499
-0.251818
-0.27817
-0.303988
-0.329217
-0.353801
-0.377689
-0.400838
-0.423206
-0.444752
-0.465439
-0.485241
-0.504132
-0.522085
-0.539075
-0.555085
-0.570102
-0.584113
-0.597108
-0.609077
-0.620018
0.0355401
0.00838062
-0.0189337
-0.0463485
-0.0738041
-0.101231
-0.128552
-0.155694
-0.182584
-0.209156
-0.235342
-0.261077
-0.286303
-0.310965
-0.335009
-0.358384
-0.381048
-0.402962
-0.424086
-0.444388
-0.463841
-0.482421
-0.500099
-0.516853
-0.532666
-0.547527
-0.561424
-0.574344
-0.586281
-0.59723
0.043559
0.0173542
-0.00908798
-0.0356809
-0.0623561
-0.0890366
-0.115641
-0.142091
-0.168315
-0.194245
-0.219813
-0.244952
-0.269604
-0.293714
-0.317229
-0.3401
-0.362286
-0.383748
-0.404451
-0.424362
-0.443459
-0.461717
-0.479108
-0.495612
-0.511212
-0.525898
-0.539659
-0.552483
-0.564362
-0.575293
0.0509242
0.0256946
0.000101824
-0.0256983
-0.0516254
-0.0775921
-0.10351
-0.129299
-0.154886
-0.1802
-0.205174
-0.229741
-0.253839
-0.277414
-0.300413
-0.322791
-0.344507
-0.365524
-0.385806
-0.405326
-0.424062
-0.441991
-0.459087
-0.475328
-0.490702
-0.505197
-0.518805
-0.531513
-0.543313
-0.554202
0.0577048
0.0334799
0.00870452
-0.0163389
-0.0415533
-0.066841
-0.0921057
-0.117265
-0.142244
-0.166971
-0.191378
-0.215396
-0.238962
-0.262021
-0.284519
-0.306415
-0.32767
-0.348248
-0.368114
-0.387244
-0.405618
-0.423213
-0.440006
-0.455977
-0.471114
-0.485407
-0.498846
-0.511421
-0.523123
-0.533948
0.0639854
0.0407542
0.0167217
-0.0076016
-0.0321417
-0.0567846
-0.0814266
-0.105986
-0.130385
-0.154554
-0.178419
-0.20191
-0.224964
-0.247523
-0.269535
-0.290959
-0.311761
-0.331904
-0.351358
-0.370099
-0.388109
-0.405368
-0.421852
-0.437545
-0.452435
-0.466513
-0.47977
-0.492195
-0.503779
-0.514519
0.0698796
0.0475917
0.024192
0.000535846
-0.0233619
-0.0473898
-0.0714343
-0.0954183
-0.119263
-0.142896
-0.166243
-0.189228
-0.211789
-0.233865
-0.255405
-0.276369
-0.296726
-0.316442
-0.335487
-0.353842
-0.37149
-0.388411
-0.404585
-0.419996
-0.434632
-0.448487
-0.46155
-0.473812
-0.485263
-0.495901
0.075789
0.0547395
0.0318523
0.00877622
-0.0145455
-0.038009
-0.0615024
-0.0849556
-0.108294
-0.13144
-0.154312
-0.176836
-0.198945
-0.220577
-0.24168
-0.262221
-0.282166
-0.301486
-0.320154
-0.338153
-0.355466
-0.372076
-0.387966
-0.403119
-0.417524
-0.431175
-0.444061
-0.456174
-0.467505
-0.478051
0.0829039
0.0635281
0.0408823
0.0181525
-0.00478077
-0.0278174
-0.0508785
-0.073916
-0.096862
-0.11963
-0.142131
-0.164286
-0.186026
-0.207287
-0.228023
-0.248201
-0.267792
-0.28677
-0.305111
-0.3228
-0.339824
-0.356168
-0.371814
-0.386749
-0.400961
-0.414443
-0.427186
-0.439182
-0.450424
-0.460909
0.0900633
0.0688537
0.0452955
0.0226418
-3.63579e-05
-0.0226761
-0.0452556
-0.0677973
-0.0902538
-0.112541
-0.134563
-0.156236
-0.177484
-0.198243
-0.218467
-0.238126
-0.257194
-0.275647
-0.293469
-0.310646
-0.32717
-0.343027
-0.358204
-0.37269
-0.386473
-0.399548
-0.411907
-0.423545
-0.434455
-0.444637
0.548928
0.556512
0.564293
0.572244
0.580369
0.588665
0.597125
0.605742
0.614504
0.623401
0.63242
0.641544
0.650757
0.660037
0.669361
0.678704
0.688044
0.69736
0.706641
0.715884
0.725107
0.734348
0.743676
0.753194
0.76307
0.773558
0.784908
0.797302
0.812461
0.833434
0.544079
0.551496
0.559178
0.567021
0.575023
0.58319
0.591516
0.599989
0.608601
0.617338
0.626186
0.635128
0.644146
0.653217
0.662315
0.671413
0.680487
0.689516
0.698486
0.707392
0.716247
0.725092
0.733993
0.743062
0.752474
0.762494
0.773388
0.785365
0.80021
0.821126
0.538362
0.54556
0.553119
0.560826
0.568675
0.57668
0.584836
0.593132
0.601556
0.610095
0.618733
0.627454
0.636234
0.64505
0.653873
0.662676
0.671434
0.680123
0.688729
0.697243
0.705679
0.714071
0.722494
0.731061
0.739961
0.749473
0.759879
0.771423
0.785963
0.806828
0.531784
0.538714
0.546125
0.55367
0.561336
0.569147
0.5771
0.585183
0.593383
0.601686
0.610076
0.618532
0.627031
0.635544
0.644045
0.652504
0.660894
0.669192
0.67738
0.68545
0.693412
0.701302
0.709194
0.717212
0.725555
0.734516
0.744398
0.75547
0.769641
0.7903
0.524356
0.530969
0.538209
0.545566
0.553018
0.560602
0.56832
0.576155
0.584095
0.592124
0.600225
0.608374
0.616546
0.624711
0.632841
0.640906
0.648878
0.656732
0.664449
0.672021
0.679457
0.686793
0.694104
0.701525
0.709266
0.717633
0.726949
0.737512
0.75126
0.771613
0.516084
0.522334
0.529378
0.536521
0.543729
0.551057
0.558506
0.566059
0.573704
0.581421
0.589192
0.596991
0.604791
0.612561
0.620274
0.627898
0.635403
0.642762
0.649955
0.656975
0.66383
0.670558
0.67724
0.684018
0.691113
0.698844
0.707554
0.717568
0.73085
0.750827
0.506976
0.512815
0.519641
0.526545
0.533479
0.54052
0.547669
0.554908
0.562221
0.569589
0.57699
0.584397
0.591782
0.599114
0.606365
0.613502
0.620492
0.627305
0.633921
0.640333
0.646555
0.652624
0.658629
0.664719
0.671124
0.678176
0.686241
0.69567
0.708443
0.727984
0.497042
0.502424
0.509007
0.515646
0.52228
0.529003
0.535822
0.542714
0.549661
0.556642
0.563634
0.570609
0.577539
0.584392
0.591137
0.597741
0.604167
0.610384
0.616372
0.622125
0.627659
0.633021
0.638304
0.643661
0.649333
0.655667
0.663047
0.671855
0.68408
0.70313
0.486293
0.491174
0.497492
0.503841
0.510145
0.516522
0.522979
0.529492
0.536039
0.542598
0.549145
0.555651
0.562087
0.56842
0.574616
0.58064
0.586454
0.592027
0.597338
0.602383
0.607182
0.611791
0.616306
0.620887
0.625783
0.631357
0.638016
0.646168
0.657806
0.676316
0.474745
0.479083
0.485113
0.491147
0.497094
0.503096
0.509162
0.515264
0.521377
0.527481
0.533548
0.539549
0.545454
0.551225
0.556829
0.562227
0.567384
0.572268
0.576858
0.581149
0.585171
0.588981
0.592682
0.596443
0.60052
0.605296
0.611197
0.618659
0.629675
0.647596
0.462416
0.46617
0.471893