/*--------------------------------*- C++ -*----------------------------------*\
| =========                 |                                                 |
| \\      /  F ield         | OpenFOAM: The Open Source CFD Toolbox           |
|  \\    /   O peration     | Version:  v1912                                 |
|   \\  /    A nd           | Website:  www.openfoam.com                      |
|    \\/     M anipulation  |                                                 |
\*---------------------------------------------------------------------------*/
FoamFile
{
    version     2.0;
    format      ascii;
    class       surfaceScalarField;
    location    "10";
    object      phi;
}
// * * * * * * * * * * * * * * * * * * * * * * * * * * * * * * * * * * * * * //

dimensions      [0 3 -1 0 0 0 0];
oriented        oriented;


internalField   nonuniform List<scalar> 
18940
(
0.000235697
-0.236288
0.236053
0.000946903
-0.219449
0.218738
0.00201488
-0.207677
0.206609
0.00330978
-0.198923
0.197629
0.00473827
-0.19187
0.190441
0.00622664
-0.185681
0.184192
0.00772121
-0.179894
0.1784
0.00918622
-0.174279
0.172814
0.0106002
-0.168735
0.167321
0.0119522
-0.163238
0.161886
0.0132391
-0.157803
0.156516
0.0144629
-0.152459
0.151235
0.0156289
-0.147239
0.146073
0.0167446
-0.142172
0.141057
0.0178186
-0.137282
0.136208
0.0188599
-0.132581
0.131539
0.0198776
-0.12807
0.127053
0.0208795
-0.123741
0.122739
0.0218712
-0.119572
0.118581
-0.11553
0.114546
0.0228556
0.000256917
-0.236545
0.000987971
-0.22018
0.00206639
-0.208755
0.00337055
-0.200228
0.00480244
-0.193302
0.00628796
-0.187166
0.00777422
-0.181381
0.00922642
-0.175731
0.0106242
-0.170132
0.0119578
-0.164572
0.0132251
-0.15907
0.0144288
-0.153663
0.0155751
-0.148385
0.0166717
-0.143269
0.0177278
-0.138338
0.0187526
-0.133606
0.0197555
-0.129073
0.0207448
-0.124731
0.0217268
-0.120554
-0.116508
0.0227049
0.000276772
-0.236822
0.00102383
-0.220927
0.00211302
-0.209844
0.00342385
-0.201538
0.00485678
-0.194735
0.0063371
-0.188647
0.00781252
-0.182856
0.00924941
-0.177168
0.0106286
-0.171511
0.0119415
-0.165885
0.0131871
-0.160316
0.014369
-0.154844
0.0154938
-0.14951
0.0165698
-0.144345
0.0176064
-0.139375
0.0186133
-0.134612
0.0196
-0.13006
0.0205753
-0.125706
0.0215461
-0.121525
-0.117479
0.0225166
0.000289347
-0.237112
0.00105174
-0.22169
0.00215247
-0.210945
0.00346883
-0.202855
0.00490067
-0.196166
0.00637335
-0.190119
0.00783544
-0.184318
0.00925453
-0.178587
0.0106128
-0.17287
0.0119029
-0.167175
0.0131248
-0.161538
0.014283
-0.156003
0.0153847
-0.150611
0.0164387
-0.145399
0.0174545
-0.140391
0.018442
-0.1356
0.0194112
-0.131029
0.0203713
-0.126666
0.0213299
-0.122484
-0.118441
0.0222918
0.000299694
-0.237411
0.00107548
-0.222466
0.00218605
-0.212056
0.00350592
-0.204175
0.00493426
-0.197595
0.00639675
-0.191582
0.00784295
-0.185764
0.00924176
-0.179986
0.0105768
-0.174205
0.0118419
-0.16844
0.0130382
-0.162734
0.014171
-0.157135
0.015248
-0.151688
0.0162784
-0.14643
0.017272
-0.141384
0.0182389
-0.136567
0.0191894
-0.131979
0.020133
-0.12761
0.0210782
-0.123429
-0.119393
0.0220308
0.000308234
-0.237719
0.00109547
-0.223253
0.00221392
-0.213174
0.00353513
-0.205496
0.00495753
-0.199017
0.00640725
-0.193032
0.00783498
-0.187192
0.00921105
-0.181362
0.0105205
-0.175514
0.0117585
-0.169678
0.0129273
-0.163903
0.0140328
-0.158241
0.0150835
-0.152739
0.0160889
-0.147435
0.0170589
-0.142354
0.0180039
-0.137512
0.0189342
-0.13291
0.0198602
-0.128536
0.0207908
-0.12436
-0.120335
0.021733
0.000315561
-0.238035
0.00111237
-0.22405
0.00223657
-0.214298
0.00355676
-0.206816
0.00497065
-0.200431
0.00640498
-0.194466
0.00781165
-0.188599
0.0091625
-0.182712
0.010444
-0.176796
0.0116528
-0.170887
0.012792
-0.165042
0.0138686
-0.159317
0.0148913
-0.153762
0.0158701
-0.148414
0.016815
-0.143299
0.0177366
-0.138433
0.0186454
-0.133819
0.0195523
-0.129442
0.020467
-0.125274
-0.121266
0.0213977
0.000321826
-0.238357
0.00112647
-0.224854
0.00225427
-0.215426
0.00357103
-0.208133
0.00497385
-0.201834
0.00639014
-0.195882
0.00777318
-0.189982
0.00909634
-0.184036
0.0103476
-0.178047
0.011525
-0.172064
0.0126327
-0.16615
0.0136784
-0.160363
0.0146714
-0.154755
0.0156219
-0.149364
0.0165402
-0.144217
0.0174367
-0.13933
0.0183223
-0.134704
0.0192084
-0.130328
0.0201056
-0.126172
-0.122184
0.0210233
0.000327128
-0.238684
0.00113798
-0.225665
0.00226734
-0.216555
0.00357828
-0.209444
0.00496744
-0.203223
0.00636308
-0.197278
0.00771992
-0.191339
0.00901293
-0.185329
0.0102317
-0.179266
0.0113755
-0.173208
0.0124496
-0.167224
0.0134624
-0.161376
0.0144239
-0.155717
0.0153443
-0.150285
0.016234
-0.145107
0.0171035
-0.140199
0.017964
-0.135565
0.0188272
-0.131192
0.0197049
-0.127049
-0.123087
0.0206077
0.000331524
-0.239016
0.00114712
-0.226481
0.00227607
-0.217684
0.00357886
-0.210747
0.00495184
-0.204596
0.00632427
-0.19865
0.00765238
-0.192667
0.00891283
-0.186589
0.0100967
-0.18045
0.0112047
-0.174316
0.0122431
-0.168262
0.013221
-0.162354
0.0141489
-0.156644
0.0150371
-0.151173
0.0158962
-0.145966
0.0167365
-0.14104
0.0175694
-0.136398
0.0184072
-0.132029
0.0192627
-0.127905
-0.123972
0.0201484
0.000335101
-0.239351
0.00115414
-0.2273
0.00228088
-0.218811
0.00357326
-0.212039
0.00492761
-0.20595
0.00627433
-0.199997
0.00757127
-0.193964
0.00879679
-0.187815
0.00994356
-0.181596
0.0110135
-0.175386
0.0120139
-0.169262
0.0129548
-0.163295
0.0138468
-0.157536
0.0147006
-0.152027
0.0155266
-0.146792
0.0163351
-0.141848
0.0171375
-0.1372
0.0179466
-0.132839
0.0187766
-0.128735
-0.124837
0.0196419
0.000337985
-0.239689
0.0011594
-0.228121
0.00228224
-0.219934
0.00356206
-0.213319
0.00489542
-0.207284
0.00621405
-0.201316
0.00747747
-0.195227
0.00866578
-0.189003
0.0097732
-0.182704
0.0108029
-0.176416
0.0117632
-0.170223
0.0126647
-0.164196
0.0135184
-0.15839
0.0143352
-0.152843
0.0151252
-0.147582
0.0158988
-0.142622
0.0166671
-0.137968
0.0174436
-0.133615
0.0182439
-0.129535
-0.125678
0.0190846
0.000340425
-0.240029
0.00116341
-0.228944
0.0022808
-0.221051
0.00354602
-0.214584
0.00485616
-0.208594
0.00614442
-0.202604
0.00737213
-0.196455
0.00852108
-0.190152
0.00958703
-0.18377
0.0105744
-0.177403
0.0114923
-0.171141
0.012352
-0.165056
0.0131648
-0.159203
0.0139417
-0.15362
0.0146927
-0.148333
0.0154276
-0.143357
0.0161577
-0.138699
0.0168967
-0.134354
0.0176618
-0.1303
-0.126489
0.0184723
0.000342861
-0.240372
0.00116689
-0.229768
0.00227738
-0.222162
0.00352604
-0.215833
0.00481082
-0.209879
0.00606662
-0.20386
0.00725658
-0.197645
0.00836424
-0.19126
0.00938679
-0.184792
0.0103298
-0.178346
0.0112032
-0.172014
0.0120187
-0.165871
0.012788
-0.159972
0.0135218
-0.154354
0.0142299
-0.149041
0.014922
-0.144049
0.0156086
-0.139385
0.0163039
-0.135049
0.0170266
-0.131023
-0.127261
0.0177992
0.000346053
-0.240718
0.00117091
-0.230593
0.00227297
-0.223264
0.00350311
-0.217063
0.00476054
-0.211136
0.00598198
-0.205081
0.00713242
-0.198795
0.0081971
-0.192324
0.00917463
-0.18577
0.0100716
-0.179243
0.0108987
-0.172841
0.0116678
-0.16664
0.0123908
-0.160695
0.0130781
-0.155042
0.0137394
-0.149703
0.0143833
-0.144693
0.0150201
-0.140022
0.0156634
-0.135693
0.0163336
-0.131693
-0.127986
0.0170581
0.000351096
-0.241069
0.00117663
-0.231419
0.00226853
-0.224356
0.00347823
-0.218272
0.00470652
-0.212364
0.00589194
-0.206267
0.00700139
-0.199905
0.00802179
-0.193345
0.00895308
-0.186701
0.00980279
-0.180093
0.0105821
-0.17362
0.0113031
-0.167362
0.0119776
-0.16137
0.0126156
-0.15568
0.0132259
-0.150313
0.0138165
-0.145283
0.0143961
-0.140602
0.0149777
-0.136274
0.0155829
-0.132298
-0.12865
0.0162473
0.000359327
-0.241428
0.00118523
-0.232244
0.00226511
-0.225436
0.0034526
-0.21946
0.00465013
-0.213562
0.00579811
-0.207414
0.00686539
-0.200972
0.0078406
-0.19432
0.00872494
-0.187585
0.00952675
-0.180895
0.0102575
-0.174351
0.0109294
-0.168033
0.0115538
-0.161994
0.0121403
-0.156266
0.0126967
-0.150869
0.0132297
-0.145816
0.0137463
-0.141118
0.0142576
-0.136785
0.0147859
-0.132827
-0.129235
0.0153703
0.000373057
-0.241801
0.00119919
-0.233071
0.00226498
-0.226502
0.00342798
-0.220623
0.00459283
-0.214727
0.00570196
-0.208524
0.0067262
-0.201996
0.00765582
-0.195249
0.00849321
-0.188423
0.0092473
-0.181649
0.00992974
-0.175034
0.0105524
-0.168656
0.0111258
-0.162567
0.0116587
-0.156799
0.0121578
-0.151368
0.0126284
-0.146287
0.0130758
-0.141566
0.0135074
-0.137217
0.0139397
-0.133259
-0.129701
0.0144062
0.000399921
-0.242201
0.00122584
-0.233897
0.00227206
-0.227548
0.0034059
-0.221757
0.00453537
-0.215856
0.00560431
-0.209593
0.00658509
-0.202977
0.00746946
-0.196134
0.00826086
-0.189214
0.00896876
-0.182357
0.00960474
-0.17567
0.01018
-0.169231
0.0107037
-0.163091
0.0111827
-0.157278
0.0116208
-0.151806
0.0120201
-0.146686
0.0123808
-0.141926
0.0127015
-0.137538
0.0129891
-0.133547
-0.130023
0.0133107
0.00045985
-0.242661
0.00127428
-0.234711
0.00228565
-0.228559
0.00338467
-0.222856
0.00447675
-0.216948
0.00550498
-0.210621
0.00644266
-0.203915
0.00728291
-0.196974
0.00803033
-0.189962
0.00869508
-0.183021
0.0092889
-0.176263
0.00982252
-0.169765
0.010304
-0.163573
0.0107377
-0.157712
0.0111233
-0.152192
0.0114548
-0.147018
0.0117178
-0.142189
0.011888
-0.137708
0.0119523
-0.133611
-0.130156
0.0120855
0.248808
0.000351095
-0.249159
0.248485
0.000323103
0.248171
0.00031387
0.247859
0.000312419
0.247545
0.000314131
0.247228
0.000317167
0.246907
0.000320869
0.246582
0.00032468
0.246254
0.000328208
0.245923
0.000331234
0.245589
0.000333651
0.245254
0.000335421
0.244917
0.00033651
0.24458
0.000336875
0.244244
0.000336376
0.243909
0.000334784
0.243578
0.000331028
0.243253
0.000324526
0.242947
0.000306106
0.000286215
0.247486
0.000851311
-0.247986
0.246957
0.000852181
0.246405
0.000865842
0.245832
0.000885991
0.245238
0.000908138
0.244625
0.000930241
0.243994
0.000951878
0.243346
0.000972549
0.242682
0.0009918
0.242004
0.00100933
0.241313
0.00102499
0.240609
0.00103871
0.239895
0.00105042
0.239172
0.00106007
0.238441
0.00106746
0.237704
0.00107234
0.236961
0.00107354
0.236215
0.00107071
0.235464
0.00105719
0.00103909
0.243794
0.00131532
-0.244258
0.243272
0.00137409
0.242705
0.00143279
0.242098
0.00149308
0.241453
0.0015529
0.240773
0.00161033
0.24006
0.00166503
0.239316
0.00171676
0.238542
0.00176519
0.237742
0.00181011
0.236915
0.00185139
0.236065
0.00188897
0.235193
0.00192285
0.2343
0.00195303
0.233388
0.00197943
0.232458
0.00200196
0.231512
0.00202001
0.230549
0.0020337
0.229565
0.00204063
0.00204505
0.238003
0.00167979
-0.238367
0.237578
0.00179851
0.237099
0.00191228
0.236569
0.00202318
0.235991
0.00213104
0.235367
0.00223446
0.234699
0.00233303
0.233989
0.00242653
0.233239
0.00251475
0.232452
0.00259749
0.231629
0.00267466
0.230771
0.00274625
0.229882
0.00281233
0.228962
0.00287302
0.228013
0.00292844
0.227036
0.00297877
0.226032
0.00302397
0.225001
0.00306453
0.223942
0.00309973
0.00313134
0.230681
0.00191506
-0.230916
0.230385
0.00209431
0.230031
0.0022666
0.229621
0.00243324
0.229157
0.00259466
0.228642
0.00274987
0.228076
0.00289846
0.227462
0.00304014
0.226803
0.00317469
0.226098
0.00330193
0.225351
0.00342177
0.224563
0.00353425
0.223736
0.00363949
0.222871
0.00373775
0.22197
0.00382935
0.221034
0.00391474
0.220064
0.00399431
0.21906
0.0040688
0.218021
0.00413829
0.00420413
0.222425
0.00202625
-0.222537
0.222254
0.0022654
0.222024
0.00249655
0.221737
0.00272034
0.221395
0.00293719
0.220998
0.00314636
0.220549
0.00334742
0.220049
0.00354001
0.2195
0.00372386
0.218903
0.00389878
0.21826
0.00406466
0.217573
0.00422156
0.216843
0.00436966
0.216071
0.00450934
0.21526
0.00464108
0.214409
0.00476562
0.213519
0.0048837
0.212592
0.00499639
0.211626
0.00510436
0.00520911
0.21377
0.00203614
-0.21378
0.213702
0.00233326
0.213577
0.00262173
0.213396
0.00290171
0.213159
0.00317343
0.212869
0.00343624
0.212527
0.00368967
0.212134
0.00393331
0.211691
0.00416681
0.2112
0.00438993
0.210662
0.00460256
0.210079
0.00480473
0.209452
0.00499668
0.208782
0.00517885
0.208071
0.00535195
0.20732
0.00551692
0.206529
0.0056749
0.205698
0.00582737
0.204827
0.00597553
0.00612114
0.205116
0.00197231
-0.205052
0.205124
0.00232473
0.205078
0.00266798
0.204978
0.00300193
0.204825
0.00332655
0.20462
0.00364122
0.204364
0.00394543
0.204058
0.00423866
0.203705
0.0045205
0.203304
0.00479065
0.202858
0.00504894
0.202367
0.00529537
0.201834
0.00553019
0.201258
0.00575394
0.200643
0.00596746
0.199988
0.00617197
0.199294
0.00636903
0.198561
0.00656057
0.197788
0.00674842
0.00693478
0.196728
0.0018605
-0.196617
0.196788
0.00226535
0.196795
0.00266053
0.196751
0.00304573
0.196657
0.00342073
0.196514
0.00378484
0.196322
0.00413748
0.196082
0.00447806
0.195797
0.00480606
0.195466
0.0051211
0.195092
0.00542293
0.194676
0.00571151
0.194219
0.00598704
0.193723
0.00625012
0.193189
0.00650172
0.192617
0.00674334
0.192009
0.00697698
0.191365
0.00720515
0.190683
0.00743051
0.00765591
0.188764
0.00172196
-0.188626
0.188853
0.00217649
0.188893
0.00262088
0.188884
0.00305464
0.188827
0.0034774
0.188724
0.0038884
0.188574
0.00428695
0.18838
0.00467238
0.188142
0.00504406
0.187861
0.0054015
0.18754
0.00574433
0.187179
0.00607241
0.18678
0.0063859
0.186345
0.00668535
0.185875
0.00697186
0.185371
0.00724715
0.184834
0.00751375
0.184265
0.00777482
0.183661
0.00803418
0.00829564
0.181298
0.00157278
-0.181149
0.1814
0.00207459
0.181455
0.00256578
0.181464
0.00304571
0.181428
0.00351385
0.181347
0.00396936
0.181222
0.00441145
0.181055
0.00483934
0.180847
0.00525228
0.180599
0.00564963
0.180312
0.0060309
0.179989
0.00639578
0.17963
0.0067443
0.179239
0.00707691
0.178816
0.00739477
0.178363
0.00769971
0.177882
0.00799488
0.177373
0.00828414
0.176834
0.00857293
0.00886641
0.174351
0.00142426
-0.174202
0.174454
0.00197139
0.174513
0.00250742
0.174527
0.00303152
0.174498
0.00354303
0.174426
0.00404102
0.174313
0.0045246
0.174159
0.00499285
0.173967
0.0054449
0.173736
0.00587996
0.17347
0.00629733
0.173169
0.00669649
0.172836
0.00707728
0.172473
0.00743992
0.172082
0.00778548
0.171666
0.00811579
0.171227
0.00843465
0.170764
0.00874649
0.170278
0.0090592
0.00937951
0.167911
0.00128378
-0.16777
0.168007
0.00187482
0.16806
0.00245414
0.168071
0.00302081
0.16804
0.00357407
0.167968
0.0041129
0.167857
0.00463629
0.167706
0.00514319
0.167518
0.00563259
0.167295
0.0061035
0.167037
0.006555
0.166747
0.0069863
0.166428
0.00739693
0.166081
0.00778672
0.16571
0.00815654
0.165318
0.00850785
0.164907
0.00884519
0.164481
0.00917307
0.164037
0.00950325
0.00984356
0.161945
0.00115594
-0.161817
0.16203
0.00178973
0.162073
0.00241115
0.162075
0.00301921
0.162036
0.003613
0.161958
0.00419139
0.161841
0.00475327
0.161686
0.00529748
0.161496
0.00582282
0.161271
0.00632812
0.161014
0.00681219
0.160727
0.00727392
0.160411
0.0077124
0.160071
0.00812692
0.15971
0.00851788
0.159332
0.00888595
0.15894
0.00923635
0.158541
0.00957256
0.158131
0.00991268
0.0102634
0.156415
0.00104321
-0.156303
0.156486
0.00171896
0.156516
0.00238157
0.156505
0.00303007
0.156455
0.00366341
0.156366
0.00428037
0.156239
0.00487972
0.156076
0.00546018
0.155879
0.00602039
0.155648
0.00655897
0.155386
0.00707444
0.155094
0.00756531
0.154777
0.00803013
0.154436
0.00846747
0.154077
0.00887698
0.153705
0.00925787
0.153326
0.00961588
0.152947
0.0099512
0.152567
0.0102923
0.0106386
0.151278
0.000946726
-0.151182
0.151333
0.00166366
0.151348
0.00236675
0.151323
0.00305493
0.15126
0.00372702
0.151158
0.00438173
0.15102
0.00501772
0.150847
0.00563358
0.150639
0.0062278
0.1504
0.00679878
0.150129
0.00734478
0.149831
0.00786386
0.149507
0.00835399
0.149162
0.00881283
0.1488
0.00923891
0.148428
0.00962925
0.148054
0.00998967
0.147692
0.0103134
0.14734
0.010645
0.0109605
0.146491
0.000866422
-0.146411
0.146531
0.00162382
0.146531
0.00236676
0.146492
0.00309392
0.146415
0.00380405
0.146301
0.00449573
0.146151
0.00516756
0.145967
0.00581801
0.145749
0.00644545
0.1455
0.00704807
0.145221
0.00762384
0.144914
0.00817044
0.144583
0.00868522
0.144231
0.0091648
0.143864
0.00960624
0.143489
0.0100035
0.143117
0.0103617
0.142769
0.0106621
0.14244
0.0109741
0.0112106
0.142017
0.00080075
-0.141951
0.142042
0.00159844
0.142029
0.00238048
0.141977
0.00314584
0.141888
0.00389314
0.141762
0.0046209
0.141602
0.00532763
0.141409
0.00601173
0.141183
0.00667143
0.140926
0.00730478
0.14064
0.00790952
0.140328
0.00848298
0.139991
0.00902192
0.139634
0.00952196
0.139262
0.00997848
0.138884
0.0103815
0.138512
0.0107336
0.138177
0.0109969
0.137867
0.0112837
0.0113699
0.13782
0.000748602
-0.137768
0.137833
0.00158534
0.137808
0.00240541
0.137746
0.00320783
0.137648
0.00399107
0.137516
0.00475359
0.137349
0.00549387
0.137151
0.00621025
0.136921
0.00690086
0.136663
0.00756362
0.136376
0.00819613
0.136063
0.00879545
0.135727
0.00935794
0.135371
0.00987833
0.134999
0.0103506
0.13462
0.0107603
0.134247
0.0111063
0.133928
0.0113163
0.133652
0.0115596
0.011411
0.133867
-0.133827
0.000708169
0.133871
0.0015812
0.133839
0.00243786
0.133771
0.00327553
0.133669
0.00409277
0.133535
0.00488803
0.133369
0.0056598
0.133173
0.00640633
0.132948
0.00712573
0.132696
0.00781583
0.132418
0.00847416
0.132116
0.00909765
0.131791
0.00968249
0.131447
0.0102228
0.131085
0.0107122
0.130713
0.011132
0.130339
0.0114802
0.130013
0.0116424
0.129772
0.0118007
0.0110274
0.25166
6.93006e-05
-0.251729
0.251632
2.79727e-05
0.251612
1.98661e-05
0.251587
2.49222e-05
0.251551
3.59273e-05
0.251501
5.02831e-05
0.251434
6.67546e-05
0.25135
8.43281e-05
0.251248
0.000102202
0.251128
0.000120115
0.25099
0.000137657
0.250836
0.000154192
0.250666
0.000169679
0.250482
0.000184233
0.250284
0.000197898
0.250073
0.000211023
0.24985
0.00022247
0.249619
0.000230964
0.249389
0.000230797
0.000229232
0.250135
-0.000203284
-0.249863
0.250357
-0.00019396
0.250543
-0.000166137
0.250693
-0.000125064
0.250806
-7.71126e-05
0.250882
-2.52931e-05
0.250919
2.92579e-05
0.250918
8.53037e-05
0.250878
0.000142088
0.250798
0.000200545
0.250678
0.000257708
0.250519
0.000312815
0.250323
0.000366112
0.25009
0.000417296
0.249822
0.000465088
0.24952
0.000513003
0.249183
0.000559998
0.248813
0.000600585
0.248413
0.00063114
0.000655735
0.243705
-0.000764956
-0.243144
0.244202
-0.000691108
0.244644
-0.000608139
0.245035
-0.000515435
0.245374
-0.000416075
0.245661
-0.00031258
0.245896
-0.00020591
0.246079
-9.77799e-05
0.246215
6.80874e-06
0.246292
0.000123092
0.246317
0.000233208
0.24629
0.000339075
0.246212
0.000444238
0.246082
0.000547239
0.2459
0.000647301
0.245668
0.000744915
0.245389
0.000838743
0.245063
0.000926956
0.244686
0.00100774
0.00108419
0.234523
-0.0015501
-0.233738
0.235247
-0.00141491
0.235912
-0.00127333
0.236521
-0.00112413
0.237073
-0.000968315
0.237569
-0.000807825
0.238007
-0.000643977
0.238387
-0.000478108
0.238705
-0.000311235
0.238969
-0.000140475
0.239167
3.51392e-05
0.239312
0.000194015
0.239397
0.000359159
0.239423
0.000521325
0.23939
0.000680202
0.239299
0.000835425
0.239152
0.000986054
0.238948
0.00113128
0.238686
0.00126993
0.00140238
0.224124
-0.00249354
-0.22318
0.225011
-0.00230216
0.225842
-0.00210409
0.226616
-0.00189864
0.227334
-0.0016861
0.227994
-0.00146793
0.228595
-0.00124545
0.229137
-0.00101967
0.229617
-0.000791582
0.230038
-0.000561464
0.230404
-0.00033085
0.230704
-0.000105294
0.230943
0.000120005
0.231121
0.000342679
0.231238
0.000563208
0.231295
0.000779193
0.23129
0.000990325
0.231226
0.00119592
0.231101
0.00139498
0.00158714
0.213478
-0.00353811
-0.212434
0.214472
-0.00329523
0.215412
-0.0030441
0.216298
-0.00278467
0.217129
-0.00251719
0.217904
-0.00224292
0.218621
-0.00196321
0.219281
-0.00167931
0.219882
-0.00139255
0.220425
-0.00110404
0.220909
-0.00081494
0.22133
-0.000527086
0.221692
-0.000241038
0.221995
3.87918e-05
0.222237
0.000321289
0.222418
0.000598434
0.222538
0.000870145
0.222598
0.00113613
0.222597
0.0013956
0.00164801
0.203177
-0.00463871
-0.202077
0.20423
-0.00434818
0.205233
-0.00404737
0.206185
-0.00373669
0.207085
-0.00341665
0.207931
-0.00308857
0.208721
-0.002754
0.209456
-0.00241444
0.210135
-0.00207136
0.210757
-0.00172607
0.211322
-0.00137971
0.211829
-0.00103388
0.212277
-0.000689544
0.212664
-0.000347545
0.213
-1.50306e-05
0.213273
0.00032511
0.213488
0.000655643
0.213644
0.000980195
0.213741
0.00129828
0.00160922
0.193529
-0.00576271
-0.192405
0.194609
-0.00542761
0.195641
-0.00507997
0.196625
-0.00472049
0.197558
-0.00435008
0.19844
-0.00397036
0.199269
-0.00358313
0.200045
-0.00319014
0.200767
-0.00279302
0.201434
-0.00239324
0.202046
-0.00199211
0.202603
-0.00159109
0.203105
-0.00119128
0.203551
-0.000793734
0.203936
-0.000399666
0.204276
-1.44399e-05
0.204553
0.000378096
0.204775
0.000757997
0.204942
0.00113203
0.00149891
0.184656
-0.00688842
-0.183531
0.18574
-0.00651122
0.186779
-0.00611896
0.187771
-0.00571252
0.188714
-0.00529338
0.189608
-0.00486367
0.19045
-0.00442552
0.191241
-0.00398095
0.191979
-0.0035318
0.192666
-0.00307969
0.1933
-0.00262607
0.193881
-0.00217229
0.194409
-0.00171955
0.194885
-0.00126888
0.195306
-0.00082157
0.195671
-0.000378822
0.19599
5.93237e-05
0.196252
0.000496056
0.196461
0.00092291
0.00134287
0.176569
-0.00800279
-0.175454
0.177643
-0.00758553
0.178674
-0.00715024
0.17966
-0.00669799
0.180597
-0.00623113
0.181486
-0.00575246
0.182325
-0.00526457
0.183114
-0.00476979
0.183852
-0.00427016
0.18454
-0.00376747
0.185177
-0.0032632
0.185764
-0.00275869
0.186299
-0.00225516
0.186784
-0.00175366
0.187218
-0.00125525
0.1876
-0.000760923
0.187931
-0.000271742
0.188214
0.000213015
0.188445
0.000691896
0.00116225
0.169216
-0.00909908
-0.16812
0.170274
-0.00864369
0.17129
-0.00816642
0.172261
-0.0076688
0.173185
-0.00715455
0.17406
-0.00662737
0.174885
-0.00609035
0.175662
-0.0055462
0.176389
-0.00499718
0.177066
-0.00444516
0.177695
-0.00389168
0.178274
-0.00333804
0.178805
-0.00278541
0.179286
-0.00223487
0.179718
-0.00168738
0.180101
-0.00114392
0.180434
-0.000605224
0.180722
-7.41901e-05
0.180959
0.000454022
0.000972729
0.162523
-0.0101751
-0.161447
0.163563
-0.00968372
0.164561
-0.00916498
0.165514
-0.00862166
0.166419
-0.00805968
0.167276
-0.00748382
0.168083
-0.00689774
0.168841
-0.00630456
0.169551
-0.00570676
0.170212
-0.00510627
0.170825
-0.00450458
0.17139
-0.00390296
0.171907
-0.00330254
0.172377
-0.00270432
0.172798
-0.00210928
0.173173
-0.00151839
0.1735
-0.000932601
0.17378
-0.000353592
0.174015
0.000218543
0.000785399
0.156407
-0.0112319
-0.15535
0.157431
-0.0107073
0.158412
-0.0101468
0.159347
-0.00955658
0.160233
-0.00894579
0.16107
-0.0083204
0.161857
-0.00768473
0.162595
-0.00704238
0.163284
-0.006396
0.163925
-0.00574749
0.164519
-0.00509825
0.165065
-0.00444946
0.165565
-0.00380215
0.166018
-0.00315731
0.166425
-0.00251585
0.166785
-0.00187876
0.167099
-0.00124678
0.167366
-0.000620779
0.167592
-7.51339e-06
0.000607757
0.150793
-0.012273
-0.149752
0.151805
-0.0117192
0.152773
-0.0111153
0.153693
-0.0104757
0.154561
-0.00981399
0.155378
-0.00913734
0.156144
-0.0084509
0.15686
-0.00775877
0.157528
-0.00706366
0.158148
-0.00636729
0.15872
-0.00567092
0.159246
-0.00497554
0.159726
-0.00428205
0.16016
-0.00359135
0.160549
-0.0029043
0.160892
-0.00222188
0.16119
-0.00154498
0.161444
-0.00087506
0.161651
-0.000214152
0.000441407
0.145616
-0.0133047
-0.144585
0.146624
-0.0127265
0.147584
-0.0120753
0.14849
-0.0113819
0.149342
-0.0106657
0.150139
-0.00993497
0.150884
-0.00919592
0.151579
-0.00845309
0.152224
-0.00770894
0.152821
-0.00696486
0.153372
-0.00622175
0.153877
-0.00548033
0.154336
-0.0047413
0.15475
-0.00400541
0.15512
-0.0032735
0.155444
-0.0025465
0.155725
-0.00182541
0.155961
-0.0011114
0.156153
-0.000405845
0.000291237
0.140827
-0.0143382
-0.139793
0.141838
-0.0137381
0.142794
-0.0130312
0.143689
-0.0122772
0.144525
-0.0115009
0.145302
-0.0107121
0.146024
-0.0099184
0.146695
-0.00912409
0.147317
-0.00833091
0.147892
-0.00753955
0.14842
-0.00675036
0.148904
-0.00596363
0.149342
-0.00517979
0.149736
-0.00439942
0.150086
-0.0036233
0.150392
-0.00285232
0.150654
-0.00208753
0.150873
-0.00132997
0.151048
-0.000581163
0.000157581
0.136385
-0.015397
-0.135327
0.137412
-0.0147644
0.138365
-0.0139847
0.139248
-0.0131602
0.140064
-0.0123162
0.140816
-0.0114651
0.141514
-0.0106155
0.142159
-0.00976996
0.142757
-0.00892862
0.143309
-0.00809111
0.143815
-0.00725697
0.144278
-0.00642594
0.144696
-0.00559813
0.145071
-0.00477401
0.145402
-0.0039543
0.145689
-0.00313989
0.145933
-0.00233187
0.146135
-0.00153137
0.146293
-0.000739686
4.01007e-05
0.132263
-0.0165319
-0.131128
0.133314
-0.0158157
0.13426
-0.0149307
0.135124
-0.0140239
0.135912
-0.0131044
0.136636
-0.0121886
0.137304
-0.0112841
0.137924
-0.0103894
0.138497
-0.00950208
0.139026
-0.0086203
0.139512
-0.00774272
0.139955
-0.00686855
0.140354
-0.00599765
0.140711
-0.00513044
0.141024
-0.00426766
0.141294
-0.00341027
0.141522
-0.00255946
0.141707
-0.00171653
0.14185
-0.000882939
-6.08233e-05
0.128453
-0.0177927
-0.127192
0.129514
-0.0168764
0.130435
-0.0158518
0.131265
-0.0148539
0.132018
-0.0138578
0.132709
-0.0128795
0.133349
-0.0119237
0.133943
-0.0109836
0.134494
-0.0100532
0.135003
-0.00912929
0.13547
-0.00820972
0.135895
-0.00729336
0.136277
-0.00638003
0.136617
-0.00547021
0.136914
-0.00456478
0.137169
-0.00366482
0.137381
-0.00277163
0.137551
-0.00188668
0.13768
-0.00101174
-0.000148817
0.124966
-0.123787
-0.0189713
0.12594
-0.0178511
0.126832
-0.016744
0.127616
-0.0156377
0.128332
-0.014574
0.128996
-0.0135428
0.129611
-0.0125395
0.130184
-0.0115566
0.130717
-0.0105855
0.131208
-0.00962081
0.131658
-0.00865996
0.132067
-0.0077018
0.132433
-0.00674631
0.132757
-0.00579417
0.133039
-0.00484646
0.133278
-0.00390445
0.133476
-0.00296951
0.133633
-0.0020431
0.133748
-0.00112714
-0.000227399
0.0239638
0.101857
-0.100678
-0.0251436
0.0227749
0.105417
-0.104228
0.0215729
0.109153
-0.107951
0.0203534
0.113087
-0.111868
0.0191117
0.117246
-0.116004
0.0178439
0.121664
-0.120396
0.0165464
0.126389
-0.125092
0.0152164
0.131487
-0.130157
0.0138518
0.137039
-0.135674
0.0124513
0.143149
-0.141749
0.011015
0.149943
-0.148506
0.00954488
0.157562
-0.156092
0.00804692
0.166162
-0.164664
0.00653326
0.175887
-0.174373
0.00502651
0.186838
-0.185332
0.0035655
0.199006
-0.197545
0.002213
0.212168
-0.210816
0.00106563
0.225723
-0.224576
0.000259576
0.238358
-0.237552
0.247676
-0.247417
0.0239671
0.103043
-0.0251527
0.0227724
0.106611
0.0215651
0.11036
0.0203406
0.114312
0.0190943
0.118492
0.0178224
0.122936
0.0165211
0.12769
0.0151876
0.13282
0.0138197
0.138407
0.0124162
0.144553
0.0109771
0.151382
0.0095051
0.159034
0.00800634
0.167661
0.00649379
0.177399
0.00499108
0.188341
0.00353836
0.200459
0.00219972
0.213507
0.00107116
0.226852
0.000286503
0.239143
0.247963
0.0239318
0.104232
-0.025121
0.0227337
0.107809
0.0215232
0.111571
0.0202958
0.115539
0.0190471
0.119741
0.0177731
0.12421
0.0164701
0.128993
0.0151351
0.134155
0.0137661
0.139776
0.0123616
0.145957
0.0109221
0.152821
0.00945029
0.160506
0.00795289
0.169158
0.00644354
0.178909
0.00494671
0.189838
0.00350339
0.201902
0.00217818
0.214832
0.00106585
0.227964
0.000292946
0.239916
0.248256
0.0238588
0.105423
-0.0250493
0.0226595
0.109009
0.021448
0.112782
0.0202199
0.116767
0.0189708
0.12099
0.0176967
0.125484
0.016394
0.130296
0.0150596
0.135489
0.0136914
0.141144
0.0122881
0.14736
0.0108501
0.154259
0.00938057
0.161976
0.00788658
0.170652
0.00638234
0.180413
0.004893
0.191327
0.0034602
0.203335
0.00214863
0.216143
0.00105175
0.229061
0.000291378
0.240676
0.248547
0.0237495
0.106612
-0.0249393
0.0225511
0.110207
0.0213406
0.113993
0.0201137
0.117994
0.018866
0.122237
0.0175937
0.126756
0.0162931
0.131597
0.0149611
0.136821
0.0135956
0.142509
0.0121954
0.148761
0.0107611
0.155693
0.0092958
0.163441
0.00780718
0.172141
0.00630995
0.18191
0.00482989
0.192807
0.00340918
0.204756
0.00211255
0.21744
0.00103213
0.230142
0.000285968
0.241422
0.248833
0.0236057
0.1078
-0.024793
0.0224097
0.111403
0.0212019
0.115201
0.0199779
0.119218
0.0187334
0.123482
0.0174645
0.128025
0.0161677
0.132894
0.01484
0.138149
0.0134791
0.14387
0.0120838
0.150156
0.010655
0.157122
0.00919589
0.1649
0.00771462
0.173622
0.00622638
0.183399
0.00475754
0.194276
0.00335081
0.206163
0.00207084
0.21872
0.00100838
0.231204
0.000277969
0.242153
0.249111
0.0234292
0.108983
-0.0246127
0.0222371
0.112595
0.0210334
0.116404
0.0198136
0.120438
0.0185737
0.124722
0.0173099
0.129289
0.0160185
0.134185
0.0146966
0.139471
0.0133419
0.145225
0.0119534
0.151544
0.0105319
0.158544
0.00908096
0.166351
0.00760901
0.175094
0.00613176
0.184876
0.00467616
0.195732
0.00328534
0.207553
0.00202384
0.219982
0.000980982
0.232247
0.000268044
0.242866
0.249379
0.0232221
0.110162
-0.024401
0.0220348
0.113782
0.0208361
0.117603
0.0196218
0.121652
0.0183878
0.125956
0.0171303
0.130546
0.0158457
0.13547
0.0145312
0.140785
0.0131844
0.146572
0.0118044
0.152924
0.010392
0.159956
0.00895112
0.167792
0.00749047
0.176554
0.00602624
0.18634
0.00458591
0.197172
0.00321301
0.208926
0.00197188
0.221223
0.000950435
0.233268
0.000256775
0.243559
0.249636
0.0229862
0.111336
-0.0241602
0.0218042
0.114964
0.0206113
0.118796
0.0194033
0.12286
0.0181761
0.127183
0.0169261
0.131797
0.0156496
0.136746
0.0143439
0.142091
0.0130066
0.147909
0.0116367
0.154294
0.0102353
0.161358
0.00880644
0.169221
0.00735909
0.178002
0.00590994
0.187789
0.00448698
0.198595
0.00313406
0.210279
0.0019153
0.222441
0.000917184
0.234266
0.000244563
0.244232
0.24988
0.0227235
0.112505
-0.0238927
0.0215467
0.116141
0.0203598
0.119983
0.0191586
0.124061
0.017939
0.128402
0.0166974
0.133038
0.0154303
0.138013
0.0141348
0.143387
0.0128085
0.149235
0.0114505
0.155652
0.0100619
0.162746
0.00864695
0.170636
0.00721495
0.179434
0.00578299
0.189221
0.00437954
0.199998
0.00304873
0.21161
0.0018544
0.223636
0.000881575
0.235239
0.000231646
0.244882
0.250112
0.022435
0.113671
-0.0236007
0.0212629
0.117313
0.0200819
0.121164
0.0188877
0.125256
0.0176764
0.129614
0.0164442
0.13427
0.0151876
0.13927
0.0139037
0.144671
0.01259
0.150549
0.0112457
0.156997
0.00987174
0.16412
0.00847268
0.172035
0.0070581
0.180848
0.0056455
0.190634
0.00426376
0.20138
0.00295726
0.212917
0.00178947
0.224804
0.000843871
0.236185
0.000218181
0.245508
0.25033
0.0221213
0.114835
-0.0232853
0.0209526
0.118482
0.0197769
0.12234
0.0185899
0.126443
0.0173875
0.130816
0.0161657