/*--------------------------------*- C++ -*----------------------------------*\
| =========                 |                                                 |
| \\      /  F ield         | OpenFOAM: The Open Source CFD Toolbox           |
|  \\    /   O peration     | Version:  v1912                                 |
|   \\  /    A nd           | Website:  www.openfoam.com                      |
|    \\/     M anipulation  |                                                 |
\*---------------------------------------------------------------------------*/
FoamFile
{
    version     2.0;
    format      ascii;
    class       volVectorField;
    location    "58.5";
    object      U;
}
// * * * * * * * * * * * * * * * * * * * * * * * * * * * * * * * * * * * * * //

dimensions      [0 1 -1 0 0 0 0];


internalField   nonuniform List<vector> 
9600
(
(0.456546 -9.36166 -1.54169e-19)
(0.159767 -8.63242 0)
(0.242026 -8.15961 -9.05354e-20)
(0.32085 -7.84055 0)
(0.388234 -7.60551 0)
(0.456704 -7.41094 -3.18579e-20)
(0.522277 -7.2328 -5.5053e-22)
(0.581813 -7.05883 2.66328e-20)
(0.634539 -6.88369 0)
(0.680484 -6.70595 -4.51594e-20)
(0.72004 -6.52622 0)
(0.753832 -6.34606 -1.8308e-21)
(0.782599 -6.16727 -2.60767e-21)
(0.807098 -5.99154 -3.15591e-20)
(0.828053 -5.82028 2.66176e-20)
(0.846119 -5.65444 -2.61509e-20)
(0.861848 -5.4945 2.32849e-20)
(0.875785 -5.3404 0)
(0.888714 -5.19136 -1.85234e-20)
(0.900363 -5.04586 2.03046e-20)
(0.824481 -9.35128 -3.08439e-19)
(0.50223 -8.66054 1.17574e-20)
(0.567692 -8.20396 1.86491e-19)
(0.635017 -7.89441 -1.58964e-19)
(0.693398 -7.66397 1.5677e-19)
(0.753833 -7.4699 0)
(0.811536 -7.28945 6.07657e-20)
(0.86303 -7.11148 -6.06273e-20)
(0.907467 -6.93144 -1.05164e-19)
(0.944934 -6.7485 1.33021e-19)
(0.975935 -6.56367 -8.63662e-20)
(1.00122 -6.37874 -3.52633e-20)
(1.02163 -6.19569 7.11774e-20)
(1.03803 -6.01626 0)
(1.05119 -5.84187 0)
(1.06181 -5.67349 9.97838e-20)
(1.07045 -5.51157 -1.69181e-19)
(1.07767 -5.35596 0)
(1.08433 -5.20578 0)
(1.08991 -5.05941 -7.82058e-20)
(1.19276 -9.32736 6.37279e-19)
(0.846966 -8.6758 0)
(0.896916 -8.23564 -3.77361e-19)
(0.953482 -7.9357 -3.42049e-19)
(1.00316 -7.70984 0)
(1.05554 -7.51622 5.46669e-19)
(1.10514 -7.33347 -5.1611e-19)
(1.14825 -7.1516 1.01175e-19)
(1.18399 -6.96687 -2.25233e-19)
(1.21256 -6.779 -3.74596e-19)
(1.23461 -6.5894 5.1138e-19)
(1.25103 -6.40011 -3.16188e-19)
(1.26278 -6.2132 -1.41712e-19)
(1.27081 -6.0305 0)
(1.27596 -5.85343 5.52938e-21)
(1.27897 -5.68293 1.05178e-19)
(1.28039 -5.51941 4.54696e-20)
(1.28081 -5.36269 0)
(1.28116 -5.21176 8.2428e-20)
(1.28057 -5.06493 8.448e-20)
(1.56027 -9.28954 -8.62163e-19)
(1.19338 -8.67793 -4.04038e-19)
(1.22914 -8.25443 3.9189e-19)
(1.27568 -7.96409 6.73528e-19)
(1.31695 -7.74274 -3.26903e-19)
(1.36123 -7.54952 5.80605e-21)
(1.40248 -7.36452 2.53867e-19)
(1.43684 -7.17888 2.29951e-19)
(1.46348 -6.98969 4.21171e-19)
(1.48276 -6.79722 0)
(1.49548 -6.60325 1.6227e-19)
(1.5027 -6.41001 -1.72206e-19)
(1.50551 -6.21971 1.03539e-20)
(1.50494 -6.03419 2.71478e-19)
(1.50191 -5.85487 2.32753e-19)
(1.49716 -5.68267 -3.28571e-19)
(1.49128 -5.51798 1.08208e-19)
(1.48485 -5.36055 -1.76206e-19)
(1.47886 -5.20925 1.75373e-19)
(1.47203 -5.0624 -8.45239e-20)
(1.92672 -9.23775 4.34813e-19)
(1.54119 -8.66676 0)
(1.56397 -8.26006 3.84872e-19)
(1.60111 -7.97927 0)
(1.63419 -7.76231 0)
(1.6703 -7.56946 -3.00473e-19)
(1.70294 -7.38226 -5.37621e-19)
(1.72818 -7.19304 -4.55862e-19)
(1.74533 -6.99966 1.84512e-20)
(1.75493 -6.80296 -1.97001e-19)
(1.75798 -6.60503 0)
(1.75569 -6.40831 -1.62682e-19)
(1.7493 -6.21508 -2.93065e-19)
(1.73994 -6.02721 2.57735e-19)
(1.72856 -5.84611 -7.32477e-19)
(1.71595 -5.67265 1.1854e-19)
(1.70269 -5.50721 9.39641e-20)
(1.68938 -5.34947 -1.93756e-19)
(1.67706 -5.1982 -8.46627e-20)
(1.66396 -5.05176 2.52462e-19)
(2.29155 -9.1719 4.19589e-19)
(1.8899 -8.64206 4.16144e-19)
(1.90086 -8.25225 0)
(1.9292 -7.98089 0)
(1.9543 -7.76823 -6.24641e-19)
(1.98212 -7.57571 3.41379e-19)
(2.00587 -7.38641 8.21624e-19)
(2.02164 -7.19382 0)
(2.02891 -6.99658 2.17142e-19)
(2.02845 -6.79604 1.97001e-19)
(2.02149 -6.59462 -3.48062e-19)
(2.00943 -6.39491 5.04748e-19)
(1.99362 -6.19925 1.48121e-19)
(1.97528 -6.00953 0)
(1.95544 -5.8271 1.23311e-19)
(1.93488 -5.65284 5.53556e-19)
(1.9142 -5.48707 -3.29848e-19)
(1.89401 -5.32942 3.70662e-19)
(1.87539 -5.17858 -7.04849e-19)
(1.85602 -5.03299 8.14832e-19)
(2.65424 -9.09198 4.26743e-19)
(2.239 -8.60363 -2.25972e-18)
(2.2393 -8.23072 0)
(2.25938 -7.96867 0)
(2.27664 -7.76019 0)
(2.29605 -7.568 -6.05967e-19)
(2.31062 -7.37672 0)
(2.31654 -7.18101 -9.71341e-19)
(2.31355 -6.98027 8.95987e-19)
(2.3027 -6.77634 -8.32183e-19)
(2.28543 -6.57191 0)
(2.26334 -6.36973 0)
(2.23792 -6.17217 0)
(2.21046 -5.98109 -2.81608e-19)
(2.18205 -5.79784 0)
(2.1535 -5.62322 0)
(2.12536 -5.45754 -4.13373e-19)
(2.09831 -5.3004 4.06152e-19)
(2.07346 -5.15037 0)
(2.04784 -5.00609 0)
(3.01424 -8.99796 -1.38828e-18)
(2.58793 -8.55132 8.99645e-19)
(2.5787 -8.19523 0)
(2.59103 -7.94232 0)
(2.60056 -7.73791 0)
(2.61141 -7.54607 5.76371e-19)
(2.61648 -7.35298 -5.78127e-19)
(2.6122 -7.15443 -8.89878e-21)
(2.59861 -6.9506 -8.97134e-19)
(2.57703 -6.74375 8.40013e-19)
(2.54918 -6.53684 -3.78974e-19)
(2.51684 -6.33272 6.59017e-19)
(2.48164 -6.1338 -4.64212e-20)
(2.44496 -5.9419 -5.96197e-19)
(2.40791 -5.7583 -5.0252e-19)
(2.37131 -5.58379 4.93711e-19)
(2.33573 -5.41864 0)
(2.30186 -5.2624 0)
(2.27084 -5.11357 3.57299e-19)
(2.23904 -4.97106 -3.93192e-19)
(3.371 -8.88991 9.27886e-19)
(2.93613 -8.48497 8.83889e-19)
(2.91845 -8.14557 -1.67538e-18)
(2.92351 -7.90161 7.91409e-19)
(2.92539 -7.70116 0)
(2.9275 -7.50971 6.1675e-19)
(2.92278 -7.315 -5.41463e-19)
(2.90795 -7.11396 1.53025e-18)
(2.8834 -6.90746 -2.37001e-20)
(2.8508 -6.6982 0)
(2.81212 -6.48936 7.64638e-19)
(2.76935 -6.28388 0)
(2.72424 -6.08415 0)
(2.67824 -5.89195 -2.72755e-19)
(2.6325 -5.70852 5.50108e-19)
(2.58785 -5.53457 0)
(2.54484 -5.37037 4.31525e-19)
(2.50421 -5.21543 1.79657e-19)
(2.46711 -5.06819 -3.89782e-19)
(2.42922 -4.92793 3.78489e-19)
(3.72396 -8.76785 -9.55723e-19)
(3.28301 -8.40448 8.98314e-19)
(3.25794 -8.08156 -2.55848e-18)
(3.25615 -7.84632 8.04544e-19)
(3.25044 -7.64974 0)
(3.24362 -7.45874 -1.24487e-18)
(3.2288 -7.26264 5.98029e-19)
(3.20308 -7.05948 0)
(3.16726 -6.85079 -4.74841e-19)
(3.12335 -6.63966 -8.23628e-19)
(3.07364 -6.42947 -7.17729e-19)
(3.02028 -6.2232 5.34621e-20)
(2.96515 -6.02323 6.71294e-19)
(2.90977 -5.83129 2.7253e-19)
(2.85532 -5.64852 -3.79565e-20)
(2.80262 -5.4756 -5.13212e-19)
(2.75221 -5.31278 -2.29554e-19)
(2.70488 -5.15954 -2.06961e-19)
(2.66182 -5.01428 5.5211e-19)
(2.61795 -4.87673 -8.22691e-19)
(4.07255 -8.6319 9.55726e-19)
(3.62798 -8.30978 -4.66554e-20)
(3.59654 -8.00305 8.22448e-19)
(3.58828 -7.7763 0)
(3.57499 -7.58349 -6.80967e-19)
(3.55905 -7.39304 1.3085e-18)
(3.53382 -7.19582 -1.11857e-18)
(3.49689 -6.99094 1.10075e-18)
(3.4495 -6.78056 -4.4606e-19)
(3.39405 -6.56813 9.05484e-19)
(3.33311 -6.35717 3.92145e-19)
(3.26903 -6.15072 0)
(3.20381 -5.9511 0)
(3.13902 -5.75995 -2.82588e-19)
(3.07584 -5.57835 3.8375e-20)
(3.01511 -5.40693 1.01066e-18)
(2.95735 -5.24591 -2.50042e-19)
(2.90339 -5.09476 8.25893e-19)
(2.85447 -4.95185 1.44566e-19)
(2.80477 -4.81749 -8.40239e-19)
(4.41623 -8.48214 -2.94084e-18)
(3.97043 -8.20084 -9.8724e-19)
(3.93358 -7.90993 -2.63262e-18)
(3.91921 -7.69142 -1.60161e-18)
(3.89834 -7.50229 -7.59719e-19)
(3.87305 -7.3125 -7.42528e-19)
(3.83713 -7.11447 -2.42408e-18)
(3.78867 -6.9083 -4.90859e-20)
(3.72944 -6.69677 -1.94797e-18)
(3.66224 -6.48363 3.02292e-20)
(3.58992 -6.27252 -8.08832e-19)
(3.51502 -6.06649 -7.37062e-19)
(3.43966 -5.8678 6.72857e-19)
(3.36544 -5.678 -6.15359e-19)
(3.29356 -5.49808 -5.63785e-19)
(3.22482 -5.32861 -5.17441e-19)
(3.15974 -5.16981 -1.38941e-18)
(3.09923 -5.02114 4.94302e-19)
(3.04456 -4.88096 1.19965e-18)
(2.98921 -4.75025 -1.27678e-18)
(4.75444 -8.31872 3.95566e-18)
(4.30976 -8.07764 4.8598e-18)
(4.26843 -7.80214 8.34869e-19)
(4.24824 -7.59157 4.00026e-18)
(4.21976 -7.40606 -7.84064e-19)
(4.18491 -7.21709 3.91797e-18)
(4.13799 -7.01857 1.14617e-18)
(4.07773 -6.81159 3.21775e-18)
(4.00642 -6.59947 -9.83564e-19)
(3.92728 -6.38621 2.72335e-18)
(3.84345 -6.17557 1.62919e-18)
(3.75768 -5.97057 1.48478e-18)
(3.67215 -5.7734 -2.01027e-18)
(3.5885 -5.58551 1.8832e-18)
(3.50793 -5.40778 1.13627e-18)
(3.43122 -5.24072 1.04309e-18)
(3.35888 -5.08455 9.59165e-19)
(3.29188 -4.93873 7.36848e-21)
(3.23159 -4.80165 8.14244e-19)
(3.1708 -4.67507 8.47383e-19)
(5.08666 -8.14181 -2.93752e-18)
(4.64538 -7.94023 1.08266e-18)
(4.60041 -7.67964 2.67849e-18)
(4.57467 -7.47671 -3.26333e-18)
(4.53851 -7.29476 7.54083e-19)
(4.49387 -7.10679 -2.62126e-18)
(4.43568 -6.90815 1.28474e-18)
(4.36336 -6.70085 -2.15303e-18)
(4.27976 -6.48871 4.90487e-20)
(4.18853 -6.27596 1.19556e-20)
(4.09312 -6.06642 -1.65169e-18)
(3.99642 -5.86306 -7.47723e-19)
(3.90071 -5.66799 1.37493e-18)
(3.80766 -5.48254 8.76451e-21)
(3.71844 -5.3075 -3.72028e-20)
(3.63379 -5.14331 -1.08867e-18)
(3.55422 -4.99019 -4.83469e-19)
(3.48078 -4.84759 -2.71568e-20)
(3.41497 -4.71397 -8.48604e-19)
(3.34895 -4.59205 -4.27942e-19)
(5.41238 -7.95158 0)
(4.9767 -7.78865 -2.0005e-18)
(4.92888 -7.54241 2.37593e-20)
(4.89779 -7.34682 3.2589e-18)
(4.85386 -7.16841 1.36411e-18)
(4.79921 -6.98165 -1.4199e-18)
(4.7295 -6.78328 -1.22327e-18)
(4.64488 -6.57618 0)
(4.54882 -6.36461 -9.73802e-19)
(4.44539 -6.15299 9.29387e-19)
(4.33834 -5.94516 -3.90825e-20)
(4.23071 -5.74405 0)
(4.12484 -5.55164 -6.92172e-19)
(4.0224 -5.36916 5.99583e-19)
(3.92454 -5.19729 5.0094e-19)
(3.83197 -5.0364 -6.04691e-19)
(3.74517 -4.88671 -5.24609e-19)
(3.66529 -4.7477 9.1104e-19)
(3.59395 -4.61793 -8.40794e-19)
(3.52283 -4.50126 4.42554e-19)
(5.73114 -7.74822 3.03503e-18)
(5.30315 -7.62298 -2.06037e-18)
(5.25317 -7.39049 -1.75851e-18)
(5.21688 -7.20194 8.18778e-19)
(5.16509 -7.02704 -1.5885e-18)
(5.10021 -6.84173 0)
(5.01873 -6.64405 0)
(4.92162 -6.4377 0)
(4.81296 -6.2273 -4.44867e-20)
(4.69727 -6.01744 -1.86519e-18)
(4.57855 -5.81194 8.80919e-19)
(4.46001 -5.61365 7.45075e-19)
(4.34403 -5.42445 6.30537e-19)
(4.23226 -5.24544 -2.58741e-18)
(4.12579 -5.07719 1.22667e-18)
(4.02529 -4.92002 0)
(3.93121 -4.77411 -3.04404e-20)
(3.84477 -4.63899 -1.41302e-18)
(3.76773 -4.51342 -5.699e-21)
(3.69148 -4.40235 -4.43045e-19)
(6.04258 -7.532 -2.06438e-18)
(5.62417 -7.44336 -1.08626e-18)
(5.57259 -7.22394 8.18585e-19)
(5.53122 -7.04212 -1.43941e-19)
(5.47145 -6.87075 -4.63075e-18)
(5.39613 -6.68715 4.19105e-18)
(5.30268 -6.49062 -4.88147e-20)
(5.19291 -6.28557 1.14798e-18)
(5.07156 -6.07696 1.03002e-18)
(4.94358 -5.86947 9.45822e-19)
(4.81323 -5.6669 8.60724e-19)
(4.68383 -5.472 1.53829e-18)
(4.55781 -5.28653 -7.40408e-19)
(4.43677 -5.11146 1.91932e-18)
(4.32177 -4.94727 -1.24081e-18)
(4.21337 -4.79421 -5.13327e-19)
(4.11199 -4.65247 2.06182e-18)
(4.01889 -4.52159 1.37755e-18)
(3.93603 -4.40035 -2.79712e-20)
(3.85485 -4.29465 0)
(6.34667 -7.30341 -1.04966e-18)
(5.93936 -7.24996 2.07591e-18)
(5.88649 -7.04281 1.81755e-18)
(5.84009 -6.86741 -1.45919e-19)
(5.77221 -6.69963 -1.57116e-18)
(5.68624 -6.51806 7.06903e-20)
(5.58063 -6.32316 1.31821e-20)
(5.45811 -6.12 1.17451e-20)
(5.32403 -5.9138 0)
(5.18378 -5.70929 9.25095e-19)
(5.04186 -5.51022 -1.76078e-18)
(4.9017 -5.31922 -7.53529e-19)
(4.7657 -5.13793 7.48058e-19)
(4.63546 -4.96723 -6.56402e-19)
(4.51193 -4.80751 6.07948e-19)
(4.39563 -4.65899 -5.53462e-19)
(4.28694 -4.52186 4.90095e-21)
(4.18727 -4.39552 -4.70214e-19)
(4.09885 -4.27867 -4.34378e-19)
(4.01351 -4.179 -4.34675e-19)
(6.64375 -7.06292 0)
(6.24848 -7.04271 -1.01218e-18)
(6.19421 -6.84704 1.00057e-18)
(6.14271 -6.6779 1.74579e-18)
(6.06661 -6.51386 -1.57986e-18)
(5.96982 -6.33471 1.36487e-18)
(5.85193 -6.14196 -2.62435e-18)
(5.71659 -5.94129 -2.3306e-18)
(5.56982 -5.73811 -1.01677e-18)
(5.41739 -5.53717 4.44344e-20)
(5.26404 -5.34212 -8.42005e-19)
(5.11324 -5.15547 3.49339e-20)
(4.96737 -4.97873 0)
(4.82792 -4.81266 -1.2876e-18)
(4.69572 -4.65762 6.57093e-19)
(4.57115 -4.51385 0)
(4.45466 -4.38147 -5.14644e-19)
(4.34786 -4.25961 -9.25298e-19)
(4.25298 -4.14791 9.09199e-19)
(4.16245 -4.05899 4.48818e-19)
(6.93343 -6.80975 0)
(6.5509 -6.82089 0)
(6.49503 -6.63655 -1.85614e-18)
(6.43834 -6.47387 -1.59606e-18)
(6.35394 -6.31383 3.2394e-18)
(6.24625 -6.13751 0)
(6.11601 -5.94746 0)
(5.96786 -5.74988 1.17086e-18)
(5.80848 -5.55033 0)
(5.64406 -5.35353 0)
(5.4795 -5.16299 0)
(5.31832 -4.98107 0)
(5.16283 -4.80912 0)
(5.01433 -4.64776 0)
(4.87342 -4.49729 0)
(4.74018 -4.35784 0)
(4.6149 -4.2293 0)
(4.49864 -4.11098 0)
(4.39153 -4.00597 0)
(4.28742 -3.93157 0)
(10.0435 0.0877407 1.47369e-19)
(10.023 -0.307648 2.86732e-19)
(9.98717 -0.700359 -2.94489e-19)
(9.93664 -1.09025 5.87153e-19)
(9.87112 -1.47698 -5.87152e-19)
(9.79046 -1.86005 -5.54853e-19)
(9.69479 -2.23891 -5.53304e-19)
(9.58431 -2.61302 1.74253e-18)
(9.45925 -2.98183 -1.16096e-18)
(9.31988 -3.34479 1.15122e-18)
(9.16647 -3.70135 -1.15123e-18)
(8.99934 -4.05097 1.14272e-18)
(8.81881 -4.39314 -2.2661e-18)
(8.62523 -4.72736 3.33716e-18)
(8.41897 -5.05314 0)
(8.20042 -5.37003 -3.27862e-18)
(7.96998 -5.67761 1.63535e-20)
(7.72817 -5.97551 3.30407e-18)
(7.47509 -6.26359 0)
(7.21241 -6.54116 0)
(10.1206 -0.210717 0)
(10.0793 -0.606832 -1.50432e-20)
(10.0212 -0.999146 0)
(9.94707 -1.38732 5.61884e-19)
(9.85703 -1.77093 5.85129e-19)
(9.75133 -2.14937 -1.69356e-18)
(9.63025 -2.522 2.9484e-18)
(9.49415 -2.8882 -1.16391e-18)
(9.3434 -3.24738 -1.10948e-18)
(9.1784 -3.59895 -1.10495e-18)
(8.99955 -3.94234 4.45758e-20)
(8.80731 -4.277 1.13209e-18)
(8.60212 -4.60241 -5.628e-18)
(8.38448 -4.91808 -1.18021e-18)
(8.15488 -5.22354 2.24884e-18)
(7.91382 -5.51835 2.24582e-18)
(7.66179 -5.80213 1.14101e-18)
(7.39936 -6.07455 -2.20021e-18)
(7.12662 -6.33535 1.04193e-18)
(6.84453 -6.58419 0)
(10.0724 -0.149216 1.32709e-19)
(10.0346 -0.540899 -2.71765e-19)
(9.97939 -0.929405 7.84804e-19)
(9.90719 -1.31404 -5.55988e-19)
(9.81839 -1.69415 -5.30122e-19)
(9.71334 -2.06903 5.53473e-19)
(9.59242 -2.43795 0)
(9.45603 -2.8002 0)
(9.30459 -3.15514 2.10157e-18)
(9.13855 -3.50211 3.13516e-18)
(8.95837 -3.8405 -9.91595e-19)
(8.76457 -4.16971 3.10016e-18)
(8.55766 -4.48919 -9.87422e-19)
(8.33817 -4.79839 -3.0196e-18)
(8.10666 -5.09681 1.36248e-20)
(7.8637 -5.38399 1.93827e-18)
(7.60982 -5.65949 -8.74899e-19)
(7.34561 -5.9229 -1.90689e-18)
(7.07142 -6.17385 -1.02998e-18)
(6.78798 -6.41184 1.87406e-18)
(9.90638 -0.112494 0)
(9.87536 -0.494948 2.29126e-19)
(9.82706 -0.875055 2.28185e-19)
(9.76167 -1.25192 -9.3746e-19)
(9.67951 -1.62473 0)
(9.58093 -1.99272 0)
(9.46628 -2.35513 0)
(9.33595 -2.7112 0)
(9.19035 -3.06022 -9.92013e-19)
(9.02992 -3.40149 -9.88246e-19)
(8.85514 -3.73436 0)
(8.66652 -4.05818 1.86846e-18)
(8.46458 -4.37234 -4.61961e-18)
(8.24988 -4.67626 3.71458e-18)
(8.02299 -4.9694 -3.6004e-18)
(7.78449 -5.25123 -8.7364e-19)
(7.53497 -5.52125 1.56484e-19)
(7.27503 -5.77901 1.54887e-19)
(7.0052 -6.02403 -1.77927e-18)
(6.7262 -6.25583 -7.08914e-20)
(9.65338 -0.0990117 0)
(9.62978 -0.469238 -2.25969e-19)
(9.58933 -0.837774 0)
(9.5321 -1.20371 4.52063e-19)
(9.45833 -1.56623 4.30938e-19)
(9.36831 -1.92451 3.93983e-19)
(9.26235 -2.27779 0)
(9.14079 -2.6253 0)
(9.00399 -2.96629 0)
(8.85238 -3.30006 0)
(8.6864 -3.62591 8.13851e-19)
(8.50653 -3.94316 8.76806e-19)
(8.31328 -4.25117 8.71803e-19)
(8.1072 -4.54933 -8.85137e-19)
(7.88883 -4.83704 -1.52337e-18)
(7.65876 -5.11375 1.72919e-18)
(7.41757 -5.37891 3.35257e-18)
(7.1659 -5.63201 1.63069e-18)
(6.90432 -5.87253 0)
(6.63352 -6.1 -1.53689e-18)
(9.3464 -0.0902105 4.64462e-20)
(9.32977 -0.446262 0)
(9.29692 -0.801196 -7.61134e-19)
(9.24785 -1.15416 1.82592e-23)
(9.18273 -1.50432 1.61783e-20)
(9.10179 -1.8509 -6.85515e-20)
(9.00527 -2.19311 0)
(8.89349 -2.53021 3.09412e-20)
(8.76676 -2.86145 -7.7268e-19)
(8.62544 -3.1861 1.50544e-18)
(8.46995 -3.50346 -1.56979e-18)
(8.30073 -3.81286 8.57582e-19)
(8.11824 -4.11363 -4.49535e-18)
(7.923 -4.40514 2.96496e-18)
(7.71553 -4.68678 1.57167e-18)
(7.49638 -4.95796 0)
(7.26614 -5.2181 -2.90105e-18)
(7.02541 -5.46666 -6.15419e-20)
(6.77477 -5.7031 -2.85693e-18)
(6.51489 -5.9269 2.96938e-18)
(9.01408 -0.0854011 4.17707e-20)
(9.00309 -0.426455 -8.75037e-20)
(8.97662 -0.766859 7.17448e-19)
(8.93463 -1.10581 -1.4078e-20)
(8.87723 -1.44253 7.173e-19)
(8.8046 -1.77623 -1.08341e-18)
(8.71696 -2.10618 0)
(8.61454 -2.43163 7.30358e-19)
(8.49764 -2.75187 6.68737e-19)
(8.36657 -3.06617 -7.26267e-19)
(8.22169 -3.37386 1.3288e-18)
(8.06339 -3.67426 2.81706e-18)
(7.89212 -3.96671 -1.31012e-18)
(7.70833 -4.25058 -1.42006e-18)
(7.51252 -4.52525 1.36184e-18)
(7.30522 -4.79012 0)
(7.08697 -5.0446 6.49603e-20)
(6.85834 -5.28812 9.81586e-21)
(6.61991 -5.52014 2.70681e-18)
(6.37229 -5.74009 1.25843e-18)
(8.67766 -0.0842218 0)
(8.67073 -0.410323 6.2599e-21)
(8.64909 -0.736119 -1.45996e-19)
(8.61269 -1.06086 -6.48363e-19)
(8.5616 -1.38381 6.09458e-19)
(8.49595 -1.70422 0)
(8.41594 -2.02138 1.24046e-18)
(8.32175 -2.3346 -1.36312e-21)
(8.21365 -2.64316 -1.89454e-18)
(8.09189 -2.9464 0)
(7.95682 -3.24365 -1.30765e-18)
(7.80878 -3.53425 4.60218e-20)
(7.64816 -3.81757 -3.67586e-18)
(7.47539 -4.09299 6.47812e-21)
(7.29094 -4.3599 1.23201e-18)
(7.0953 -4.61769 0)
(6.88897 -4.8658 -1.20923e-18)
(6.67251 -5.10362 8.7063e-21)
(6.44647 -5.33062 1.20053e-18)
(6.2114 -5.54621 -1.23839e-18)
(8.35104 -0.085305 0)
(8.34673 -0.397035 1.49687e-19)
(8.32846 -0.708692 3.10566e-19)
(8.29619 -1.01958 -5.74862e-19)
(8.24995 -1.32899 -2.47363e-20)
(8.18987 -1.63624 -2.87299e-19)
(8.11608 -1.94064 -1.15009e-18)
(8.02877 -2.24155 5.7178e-19)
(7.92814 -2.53828 2.38264e-20)
(7.81446 -2.83021 5.68358e-19)
(7.68799 -3.11669 5.23225e-19)
(7.54908 -3.39711 2.2659e-18)
(7.39807 -3.67085 1.1334e-18)
(7.23536 -3.93732 2.23861e-18)
(7.06139 -4.19594 -1.11637e-18)
(6.87661 -4.44611 3.86851e-20)
(6.68152 -4.68727 -1.10319e-18)
(6.47664 -4.91883 0)
(6.26249 -5.14025 1.04281e-18)
(6.03959 -5.35092 0)
(8.04212 -0.0875248 6.51725e-20)
(8.03927 -0.385755 -1.90872e-19)
(8.02318 -0.684053 5.23526e-19)
(7.99379 -0.981765 -2.61177e-19)
(7.95114 -1.27823 1.89939e-20)
(7.89532 -1.57281 -2.61023e-19)
(7.82646 -1.86486 5.42649e-19)
(7.74472 -2.15375 -5.19346e-19)
(7.65027 -2.43887 5.19343e-19)
(7.54336 -2.7196 9.96076e-19)
(7.42424 -2.99535 -1.07332e-18)
(7.2932 -3.26554 -4.51263e-20)
(7.15059 -3.52958 -3.1068e-18)
(6.99677 -3.78692 5.38098e-21)
(6.83214 -4.03699 4.02994e-20)
(6.65716 -4.27925 2.01407e-18)
(6.4723 -4.51313 -9.94887e-19)
(6.27805 -4.73806 -9.47651e-19)
(6.07493 -4.9535 -3.74664e-20)
(5.86343 -5.15883 0)
(7.75451 -0.0901355 0)
(7.75228 -0.375858 2.4246e-19)
(7.73745 -0.661723 -8.3367e-19)
(7.70998 -0.947114 -2.2118e-19)
(7.6699 -1.23142 4.94647e-19)
(7.61729 -1.51402 0)
(7.55225 -1.79432 0)
(7.47495 -2.07174 4.7281e-19)
(7.38553 -2.34569 -4.72807e-19)
(7.28422 -2.6156 3.98306e-19)
(7.17126 -2.88091 -4.69761e-19)
(7.04691 -3.14108 9.31574e-19)
(6.9115 -3.39556 -1.85854e-18)
(6.76538 -3.64383 1.84893e-18)
(6.60894 -3.88536 3.46836e-20)
(6.4426 -4.11965 -9.50928e-19)
(6.26684 -4.34614 -9.04892e-19)
(6.08215 -4.5643 1.84331e-18)
(5.88905 -4.77356 8.62924e-19)
(5.688 -4.97331 0)
(7.48901 -0.0926634 1.87885e-21)
(7.48681 -0.366878 1.59194e-19)
(7.47261 -0.641262 3.34232e-19)
(7.44636 -0.915236 2.33944e-19)
(7.40809 -1.18822 2.17017e-19)
(7.35786 -1.45963 2.01879e-19)
(7.2958 -1.72892 0)
(7.22202 -1.99553 -8.34268e-19)
(7.13668 -2.2589 -4.30064e-19)
(7.03999 -2.51851 3.66903e-19)
(6.93216 -2.77383 0)
(6.81346 -3.02436 8.49422e-19)
(6.68419 -3.26959 -2.51221e-18)
(6.54469 -3.50904 8.45074e-19)
(6.39532 -3.74222 0)
(6.23653 -3.96867 -8.0351e-19)
(6.06878 -4.18786 -1.62287e-18)
(5.89256 -4.39929 7.98569e-19)
(5.70844 -4.60239 -2.922e-20)
(5.51685 -4.79652 0)
(7.24472 -0.0948098 3.46656e-21)
(7.24221 -0.358469 -1.03027e-19)
(7.22822 -0.62229 1.98823e-19)
(7.20271 -0.885728 -1.31297e-20)
(7.1657 -1.14823 3.97295e-19)
(7.11727 -1.40927 -6.10169e-19)
(7.05752 -1.66829 0)
(6.98657 -1.92478 5.60637e-20)
(6.90457 -2.17823 0)
(6.81171 -2.42814 -8.14499e-19)
(6.7082 -2.67401 0)
(6.59428 -2.91537 -7.51691e-19)
(6.47024 -3.15177 2.32325e-18)
(6.33641 -3.38277 -1.5395e-18)
(6.19316 -3.60792 7.67536e-19)
(6.04091 -3.82679 -6.79118e-19)
(5.88017 -4.03892 7.844e-19)
(5.71141 -4.24384 -7.79036e-19)
(5.53529 -4.44095 0)
(5.35223 -4.62961 0)
(7.01986 -0.0964532 4.71442e-20)
(7.01685 -0.350406 0)
(7.00282 -0.604502 0)
(6.97773 -0.858223 -3.77728e-19)
(6.94164 -1.11105 -3.52542e-19)
(6.89459 -1.36246 0)
(6.8367 -1.61195 0)
(6.76806 -1.85903 4.98839e-20)
(6.68884 -2.10321 6.98145e-19)
(6.59921 -2.34403 -3.36689e-19)
(6.49936 -2.58102 -3.58712e-19)
(6.38953 -2.81375 1.44904e-18)
(6.27 -3.04179 -2.15171e-18)
(6.14107 -3.26477 1.38754e-18)
(6.00311 -3.48226 0)
(5.85655 -3.69393 2.78759e-18)
(5.70191 -3.89931 -2.02394e-18)
(5.5397 -4.09806 6.88538e-19)
(5.37069 -4.2895 1.31682e-18)
(5.1953 -4.47304 0)
(6.81234 -0.0975289 -4.05328e-20)
(6.80871 -0.342528 0)
(6.79449 -0.58765 -5.22544e-21)
(6.76965 -0.832392 -3.24375e-19)
(6.73423 -1.07626 1.00513e-18)
(6.6883 -1.31875 -1.672e-19)
(6.63194 -1.5594 0)
(6.56527 -1.79773 1.33192e-18)
(6.48842 -2.03328 -6.8592e-19)
(6.40157 -2.26561 4.4514e-20)
(6.3049 -2.49428 6.35693e-19)
(6.19864 -2.71891 6.51589e-19)
(6.08303 -2.9391 -1.29938e-18)
(5.95838 -3.1545 -1.27094e-18)
(5.82505 -3.36476 -1.24142e-18)
(5.68344 -3.56962 -1.32101e-18)
(5.53413 -3.76864 1.31201e-18)
(5.37762 -3.96168 -6.26341e-19)
(5.21495 -4.14787 -6.67419e-19)
(5.04642 -4.32687 0)
(6.61989 -0.0980166 3.98225e-20)
(6.61563 -0.33473 -1.49525e-19)
(6.60116 -0.571536 -1.5479e-19)
(6.57647 -0.807953 4.63486e-19)
(6.5416 -1.0435 -1.64596e-19)
(6.49662 -1.27772 -1.53856e-19)
(6.4416 -1.51015 0)
(6.37665 -1.74033 -6.32405e-19)
(6.30191 -1.96784 0)
(6.21754 -2.19225 6.27516e-19)
(6.12371 -2.41316 -1.20924e-18)
(6.02062 -2.6302 5.98599e-19)
(5.90852 -2.84302 -1.19352e-18)
(5.78768 -3.05131 1.23163e-18)
(5.65845 -3.25476 6.7035e-19)
(5.52119 -3.45325 0)
(5.37655 -3.64631 -5.78635e-19)
(5.22498 -3.83416 5.78635e-19)
(5.06795 -4.01558 0)
(4.90542 -4.19095 0)
(6.44041 -0.0980042 0)
(6.43554 -0.32699 1.46907e-19)
(6.42083 -0.556036 4.72615e-21)
(6.39627 -0.784682 -1.51476e-19)
(6.3619 -1.01247 -1.33576e-19)
(6.31778 -1.23896 -1.41812e-19)
(6.264 -1.4637 5.4811e-19)
(6.20066 -1.68628 0)
(6.12788 -1.90627 0)
(6.0458 -2.12327 2.78552e-19)
(5.9546 -2.33692 2.959e-19)
(5.85447 -2.54686 1.07096e-18)
(5.74561 -2.75276 -5.47208e-19)
(5.62827 -2.95438 5.47207e-19)
(5.50277 -3.15144 5.80898e-19)
(5.36944 -3.34395 3.39652e-20)
(5.22894 -3.53143 -1.06691e-18)
(5.08162 -3.71468 3.77995e-21)
(4.92965 -3.89177 5.27679e-19)
(4.77218 -4.06473 0)
(6.27198 -0.0974946 -3.28357e-20)
(6.26657 -0.319275 3.28353e-20)
(6.25166 -0.541089 0)
(6.22726 -0.762489 1.23678e-19)
(6.1934 -0.983037 4.01741e-19)
(6.15015 -1.20231 -5.07758e-19)
(6.09759 -1.41988 -5.38536e-19)
(6.03581 -1.63535 0)
(5.96494 -1.84831 0)
(5.88511 -2.0584 0)
(5.79647 -2.26526 -9.9419e-19)
(5.6992 -2.46855 -6.4171e-20)
(5.59347 -2.66798 -5.04094e-19)
(5.4795 -2.86334 3.02075e-20)
(5.35756 -3.05439 -9.96906e-19)
(5.22787 -3.24128 1.51929e-18)
(5.09115 -3.42357 -1.43958e-18)
(4.94745 -3.60284 4.8868e-19)
(4.80006 -3.77611 9.36845e-19)
(4.64625 -3.94829 0)
(6.1129 -0.0961375 2.94997e-20)
(6.10704 -0.311386 0)
(6.09203 -0.526656 -1.21451e-19)
(6.06785 -0.741509 -2.50258e-19)
(6.03454 -0.955528 1.21299e-19)
(5.99217 -1.1683 9.68626e-19)
(5.94082 -1.37943 0)
(5.88058 -1.58853 -4.66514e-19)
(5.81155 -1.79522 -2.38607e-19)
(5.73387 -1.99915 -4.48257e-19)
(5.64767 -2.19997 -1.79358e-19)
(5.5531 -2.39738 -1.41521e-18)
(5.45032 -2.59111 -9.34126e-19)
(5.33947 -2.78094 9.60914e-19)
(5.2208 -2.9667 9.19793e-19)
(5.09431 -3.14862 -3.88475e-21)
(4.96083 -3.32634 2.99581e-20)
(4.81959 -3.50246 4.50279e-19)
(4.6757 -3.67318 -9.20544e-19)
(4.52242 -3.84838 0)
(5.96155 -0.0944657 -6.16898e-20)
(5.95539 -0.303459 3.03689e-20)
(5.94042 -0.51254 -1.21329e-19)
(5.91661 -0.721318 1.21273e-19)
(5.884 -0.9294 -3.48797e-19)
(5.84262 -1.1364 -1.08611e-18)
(5.79254 -1.34192 0)
(5.73385 -1.54561 4.93608e-19)
(5.66661 -1.7471 -4.61542e-19)
(5.59095 -1.94605 9.77339e-19)
(5.50697 -2.14214 9.71535e-19)
(5.41477 -2.33507 1.43138e-18)
(5.3145 -2.52456 -9.28804e-19)
(5.20618 -2.71041 4.62642e-19)
(5.09007 -2.89246 -4.54985e-19)
(4.96579 -3.0709 4.55008e-19)
(4.83444 -3.24547 0)
(4.69333 -3.41939 4.11959e-19)
(4.55151 -3.58848 -4.03142e-19)
(4.39379 -3.77496 0)
(7.14014 7.26213 0)
(7.42012 6.97233 0)
(7.68719 6.67294 1.08759e-18)
(7.94206 6.36447 2.02649e-20)
(8.18416 6.04664 -1.15064e-18)
(8.41284 5.71951 0)
(8.62767 5.38348 1.18741e-18)
(8.82833 5.0391 -2.24032e-18)
(9.01449 4.68692 -1.1322e-18)
(9.18588 4.32756 -1.14278e-18)
(9.34222 3.96166 1.14278e-18)
(9.48328 3.58988 -1.15488e-18)
(9.60889 3.21288 5.76079e-19)
(9.71883 2.83139 5.49852e-19)
(9.81295 2.44606 5.52001e-19)
(9.8912 2.05756 -5.8581e-19)
(9.95354 1.66654 5.85811e-19)
(10.0001 1.27373 -2.94084e-19)
(10.0307 0.879504 -1.39695e-19)
(10.046 0.485224 7.35775e-20)
(7.41706 7.0704 0)
(7.69724 6.78098 -9.96638e-19)
(7.96364 6.47999 -2.13074e-18)
(8.21654 6.1681 3.15096e-18)
(8.45569 5.84565 -2.18507e-18)
(8.6806 5.51308 2.19585e-18)
(8.89077 5.17099 1.19379e-18)
(9.0858 4.82006 -3.38762e-18)
(9.2653 4.46097 1.10823e-18)
(9.4289 4.09443 2.20312e-18)
(9.5763 3.72118 1.08545e-18)
(9.70725 3.34197 1.09233e-18)
(9.82158 2.95761 -1.15267e-18)
(9.91907 2.5688 1.69734e-18)
(9.99945 2.17635 -2.35485e-18)
(10.0626 1.78112 5.81257e-19)
(10.1086 1.38393 -5.58553e-19)
(10.1375 0.985584 0)
(10.1491 0.586623 1.5157e-20)
(10.1439 0.188022 0)
(7.27412 6.94568 -1.75494e-18)
(7.55713 6.67366 9.85237e-19)
(7.8276 6.38877 1.80228e-18)
(8.08507 6.0917 8.15929e-19)
(8.32912 5.783 2.04337e-18)
(8.55923 5.4633 2.00439e-20)
(8.77486 5.13326 -1.02421e-18)
(8.97554 4.79358 -3.0524e-18)
(9.16079 4.44496 3.01356e-18)
(9.3302 4.08816 -3.09346e-18)
(9.48337 3.7239 -1.03061e-18)
(9.62 3.35294 -2.06195e-18)
(9.73977 2.97611 0)
(9.84248 2.59417 0)
(9.92798 2.20803 0)
(9.9961 1.8186 -5.2559e-19)
(10.0467 1.42671 5.50459e-19)
(10.0797 1.03322 5.27286e-19)
(10.095 0.638847 6.27053e-21)
(10.0927 0.244554 1.32432e-19)
(7.04687 6.69365 1.82263e-18)
(7.32662 6.44029 -1.6552e-18)
(7.59503 6.17381 -1.69636e-19)
(7.85136 5.89474 -1.70597e-19)
(8.09506 5.60366 4.30306e-18)
(8.32558 5.30118 -7.12667e-20)
(8.54236 4.98792 3.77702e-21)
(8.74487 4.66454 -2.72117e-18)
(8.93261 4.33172 1.79542e-18)
(9.10512 3.99015 0)
(9.26189 3.64061 9.62975e-19)
(9.40259 3.28393 9.6964e-19)
(9.52693 2.9209 0)
(9.63461 2.55234 0)
(9.7254 2.17909 0)
(9.7991 1.80194 0)
(9.85553 1.42173 -2.17154e-20)
(9.89456 1.03932 4.74786e-19)
(9.91608 0.655533 -2.27999e-19)
(9.92007 0.271307 0)
(6.78422 6.37889 1.54371e-18)
(7.05611 6.1434 0)
(7.31778 5.89496 -4.54528e-18)
(7.5684 5.634 -1.54928e-18)
(7.80736 5.36105 -1.62805e-18)
(8.03406 5.07665 -1.72582e-18)
(8.24795 4.78139 8.15394e-19)
(8.44846 4.47587 -8.56942e-19)
(8.63506 4.16071 2.37952e-18)
(8.80732 3.83662 -7.79008e-19)
(8.96479 3.50435 0)
(9.10698 3.16465 0)
(9.23352 2.8182 0)
(9.34412 2.46581 0)
(9.43852 2.10826 -1.23021e-18)
(9.51646 1.74638 4.23007e-19)
(9.57774 1.38097 -4.46833e-19)
(9.62218 1.01287 0)
(9.64966 0.642912 2.24859e-19)
(9.6601 0.271993 0)
(6.50928 6.05165 1.32068e-18)
(6.77094 5.83231 -4.79973e-20)
(7.02332 5.60043 2.77799e-18)
(7.2656 5.35636 1.38789e-18)
(7.49713 5.10057 0)
(7.71733 4.83355 -1.4738e-18)
(7.92564 4.55583 6.85297e-20)
(8.1215 4.26799 -1.4962e-18)
(8.3044 3.9706 2.06994e-18)
(8.47385 3.66432 3.2746e-20)
(8.62943 3.34977 2.81221e-20)
(8.77068 3.0276 -7.46631e-19)
(8.89719 2.69853 1.46431e-18)
(9.00865 2.36332 0)
(9.10478 2.02268 6.8587e-20)
(9.18529 1.67744 7.47601e-19)
(9.24991 1.32837 1.63923e-21)
(9.29845 0.976255 -1.53501e-20)
(9.3308 0.621894 0)
(9.34681 0.266122 -4.63496e-20)
(6.24343 5.73461 0)
(6.49375 5.52925 -4.8924e-20)
(6.73554 5.31188 1.75831e-20)
(6.96803 5.08279 -2.51128e-18)
(7.19057 4.8424 0)
(7.4026 4.59115 1.27013e-18)
(7.60357 4.32953 1.35287e-18)
(7.79296 4.05805 -3.93607e-18)
(7.97025 3.77725 -6.83011e-20)
(8.13499 3.4877 -1.26391e-18)
(8.28673 3.19001 6.95907e-19)
(8.42504 2.88477 -6.42853e-19)
(8.54953 2.57269 -7.06682e-19)
(8.65983 2.25442 0)
(8.75569 1.93071 3.72826e-19)
(8.8369 1.60216 -1.69138e-20)
(8.90308 1.26962 -3.46113e-19)
(8.954 0.933829 -1.67757e-20)
(8.98957 0.595542 -8.71261e-20)
(9.00961 0.255528 1.74626e-19)
(5.99787 5.43938 0)
(6.23661 5.24586 1.08594e-18)
(6.4674 5.04091 1.61908e-20)
(6.68953 4.82478 -1.1021e-18)
(6.90238 4.59782 0)
(7.1054 4.36046 1.14658e-18)
(7.29808 4.11312 -1.09472e-18)
(7.47992 3.85627 -1.21186e-18)
(7.65044 3.59042 2.30515e-18)
(7.80918 3.31609 1.24381e-18)
(7.95573 3.03384 0)
(8.08969 2.74426 6.06681e-19)
(8.21068 2.44797 -4.39241e-21)
(8.31836 2.14561 2.18728e-20)
(8.41234 1.83786 0)
(8.49248 1.52533 -5.97179e-19)
(8.5586 1.20866 -3.1286e-19)
(8.6103 0.888635 4.5711e-19)
(8.64747 0.566002 3.082e-19)
(8.66993 0.241464 -4.11951e-20)
(5.7763 5.17088 0)
(6.00378 4.98735 -9.37946e-19)
(6.22376 4.79295 0)
(6.43558 4.58792 -1.01195e-18)
(6.63865 4.37257 1.99232e-18)
(6.83246 4.14727 -2.03183e-18)
(7.01653 3.91242 3.17939e-18)
(7.19037 3.66847 -3.17025e-18)
(7.35356 3.41586 -2.14193e-18)
(7.50566 3.15511 -1.57981e-18)
(7.64627 2.88673 5.41742e-19)
(7.77503 2.61128 -1.12313e-18)
(7.89156 2.32932 1.86543e-20)
(7.99555 2.04148 1.11647e-18)
(8.08671 1.74832 -2.80876e-19)
(8.16466 1.45059 1.15061e-18)
(8.22931 1.14876 -5.65913e-19)
(8.28049 0.843545 2.60741e-19)
(8.31794 0.535677 -1.48696e-19)
(8.34146 0.225825 0)
(5.57844 4.92953 0)
(5.7953 4.75444 1.81455e-18)
(6.00501 4.56905 8.80203e-19)
(6.20695 4.37356 -9.06033e-19)
(6.40056 4.16824 -1.856e-18)
(6.58536 3.95342 2.82427e-18)
(6.76091 3.72948 1.12967e-20)
(6.92677 3.49683 -9.20587e-19)
(7.08253 3.2559 1.97633e-18)
(7.22778 3.00716 1.02071e-18)
(7.36217 2.75111 -9.53627e-19)
(7.48533 2.48828 5.00739e-19)
(7.59692 2.2192 2.25458e-20)
(7.69665 1.94444 -5.26895e-19)
(7.78422 1.66457 -2.55326e-19)
(7.85936 1.38018 5.11962e-19)
(7.92183 1.09196 -2.56637e-19)
(7.97151 0.800406 -5.17885e-19)
(8.00825 0.506206 6.00124e-20)
(8.03179 0.210006 6.48926e-20)
(5.40206 4.71324 0)