/*--------------------------------*- C++ -*----------------------------------*\
  =========                 |
  \\      /  F ield         | OpenFOAM: The Open Source CFD Toolbox
   \\    /   O peration     | Website:  https://openfoam.org
    \\  /    A nd           | Version:  6.0
     \\/     M anipulation  |
\*---------------------------------------------------------------------------*/
FoamFile
{
    version     2.0;
    format      ascii;
    class       surfaceScalarField;
    location    "11";
    object      phi;
}
// * * * * * * * * * * * * * * * * * * * * * * * * * * * * * * * * * * * * * //

dimensions      [0 3 -1 0 0 0 0];

internalField   nonuniform List<scalar> 
4670
(
-0.000184981
-0.0216363
0.0218213
-0.000505981
-0.0167637
0.0170847
-0.000840052
-0.0131706
0.0135047
-0.00111976
-0.0105355
0.0108152
-0.00131191
-0.00860288
0.00879503
-0.00140652
-0.00717562
0.00727022
-0.00140984
-0.0061049
0.00610822
-0.00133996
-0.00528025
0.00521036
-0.00122395
-0.00462021
0.0045042
-0.00406602
0.00393764
-0.00109556
-0.000168667
-0.0214676
-0.000436458
-0.0164959
-0.000675451
-0.0129316
-0.000817755
-0.0103932
-0.000831158
-0.00858948
-0.000706764
-0.00730001
-0.000452139
-0.00635952
-8.75283e-05
-0.00564486
0.00035595
-0.00506369
-0.00454789
0.000837815
-0.000143627
-0.021324
-0.000330517
-0.016309
-0.000432771
-0.0128293
-0.000384423
-0.0104415
-0.000154946
-0.00881895
0.000263913
-0.00771887
0.000864645
-0.00696025
0.00162653
-0.00640675
0.00251558
-0.00595274
-0.00551625
0.00348395
-0.000108528
-0.0212155
-0.000187555
-0.01623
-0.000113167
-0.0129037
0.000175527
-0.0107302
0.00070556
-0.00934899
0.00148409
-0.0084974
0.00250463
-0.0079808
0.0037482
-0.00765031
0.00518045
-0.00738499
-0.00708289
0.00674709
-6.23921e-05
-0.0211531
-5.58165e-06
-0.0162868
0.000285448
-0.0131948
0.000862365
-0.0113071
0.00174549
-0.0102321
0.00293884
-0.00969076
0.00443671
-0.00947866
0.00622385
-0.00943746
0.00826966
-0.0094308
-0.00933017
0.0105169
-3.672e-06
-0.0211494
0.000219253
-0.0165097
0.000768923
-0.0137444
0.00168268
-0.0122209
0.00296934
-0.0115188
0.00462548
-0.0113469
0.0066432
-0.0114964
0.00901134
-0.0118056
0.011708
-0.0121275
-0.0123022
0.0146801
6.96126e-05
-0.021219
0.000491737
-0.0169318
0.001345
-0.0145977
0.00264698
-0.0135229
0.00438923
-0.013261
0.00655408
-0.0135118
0.00912439
-0.0140667
0.0120885
-0.0147697
0.015436
-0.015475
-0.0159965
0.0191303
0.000159214
-0.0213782
0.000815267
-0.0175879
0.00201856
-0.015801
0.00376236
-0.0152667
0.00601546
-0.0155141
0.0087379
-0.0162342
0.0118919
-0.0172207
0.0154523
-0.0183301
0.019416
-0.0194387
-0.0203719
0.0237914
0.000265939
-0.0216442
0.0011888
-0.0185107
0.00278521
-0.0173974
0.00502211
-0.0175036
0.00784338
-0.0183354
0.0111817
-0.0195725
0.0149666
-0.0210056
0.0191361
-0.0224996
0.0236714
-0.023974
-0.0253975
0.028697
0.000389635
-0.0220338
0.0016029
-0.019724
0.00362194
-0.0194164
0.00638933
-0.020271
0.00983061
-0.0217767
0.0138633
-0.0236052
0.0183985
-0.0255407
0.023332
-0.0274331
0.0285458
-0.0291878
-0.0308393
0.0339876
0.0302908
0.00118405
-0.0314749
0.0291011
0.00118971
0.0279326
0.00116855
0.0268107
0.0011219
0.0257576
0.0010531
0.0247914
0.000966207
0.0239261
0.000865286
0.0231724
0.000753663
0.0225389
0.0006335
0.00050513
0.0403508
0.00369544
-0.0428622
0.037719
0.0038216
0.0350368
0.00385074
0.0323716
0.0037871
0.0297857
0.00363895
0.0273347
0.00341725
0.0250661
0.00313382
0.0230204
0.00279943
0.0212311
0.00242281
0.00201218
0.0491912
0.00684921
-0.0523449
0.0457658
0.00724699
0.0421614
0.00745516
0.0384733
0.0074752
0.0347956
0.00731661
0.0312175
0.00699536
0.0278206
0.00653072
0.0246785
0.00594151
0.0218576
0.00524366
0.00445339
0.0564765
0.0101686
-0.0597959
0.0527337
0.0109898
0.0486641
0.0115247
0.0443753
0.0117641
0.0399803
0.0117116
0.035593
0.0113827
0.0313236
0.0108001
0.0272778
0.0099873
0.023559
0.00896246
0.00774144
0.0621606
0.0133415
-0.0653335
0.0584357
0.0147147
0.054245
0.0157154
0.0496927
0.0163164
0.0448964
0.0165078
0.0399817
0.0162974
0.0350769
0.015705
0.0303118
0.0147524
0.0258248
0.0134494
0.0117896
0.066367
0.0161886
-0.0692141
0.0628758
0.018206
0.0588064
0.0197848
0.0542475
0.0208752
0.0493079
0.0214475
0.0441104
0.0214948
0.0387867
0.0210287
0.033476
0.020063
0.0283401
0.0185854
0.0165245
0.0693029
0.0186306
-0.0717449
0.0661644
0.0213444
0.0623712
0.0235781
0.057989
0.0252574
0.0531074
0.0263291
0.0478341
0.0267681
0.042288
0.0265748
0.0365961
0.0257549
0.0309167
0.0242648
0.0219004
0.0711982
0.0206568
-0.0732244
0.0684597
0.0240829
0.0650268
0.027011
0.0609408
0.0293434
0.0562669
0.0310031
0.0510897
0.0319453
0.0455017
0.0321628
0.0395905
0.0316661
0.0334595
0.0303957
0.0279268
0.0722654
0.0222982
-0.0739068
0.069925
0.0264233
0.0668843
0.0300517
0.0631624
0.0330652
0.0588014
0.0353641
0.0538618
0.0368849
0.0484059
0.0376188
0.0424623
0.0376097
0.0359934
0.0368646
0.0347325
0.0726758
-0.0739873
0.0236097
0.0706991
0.0284
0.0680437
0.0327071
0.064713
0.0363959
0.0607313
0.0393457
0.056142
0.0414743
0.0509908
0.04277
0.0452736
0.0433269
0.0387979
0.0433403
0.0426911
0.0367893
-0.000330389
-0.0364589
0.0369177
-0.000128463
0.0368395
7.82259e-05
0.0365574
0.000282075
0.0360806
0.000476844
0.0354239
0.000656659
0.0346078
0.00081609
0.0336575
0.000950378
0.032602
0.00105546
0.00112712
0.0509469
-0.00151525
-0.0497621
0.0517063
-0.000887801
0.0520282
-0.000243663
0.0519069
0.000403372
0.0513461
0.00103759
0.0503606
0.00164221
0.0489765
0.0022002
0.0472316
0.00269525
0.0451744
0.0031126
0.00343933
0.0589593
-0.00349645
-0.0569781
0.0604269
-0.00235542
0.061354
-0.00117075
0.0617189
3.85245e-05
0.0615092
0.00124721
0.060725
0.00242642
0.05938
0.00354519
0.0575031
0.00457213
0.0551386
0.00547719
0.00623295
0.0629316
-0.00611456
-0.0603135
0.0650298
-0.00445354
0.0665666
-0.00270756
0.0675041
-0.000899013
0.0678129
0.000938465
0.0674746
0.00276471
0.0664845
0.00453521
0.0648535
0.0062032
0.0626089
0.00772178
0.00904592
0.0643783
-0.00919164
-0.0613012
0.0669724
-0.00704764
0.0690292
-0.00476436
0.0704971
-0.00236695
0.0713333
0.000102311
0.0715049
0.00259313
0.0709907
0.00504937
0.069783
0.00741095
0.067889
0.00961574
0.0116014
0.0643591
-0.012576
-0.0609747
0.0673162
-0.0100048
0.0697758
-0.00722394
0.071676
-0.00426712
0.0729669
-0.00118863
0.0736085
0.00195154
0.0735696
0.00508827
0.0728287
0.00815187
0.0713755
0.0110689
0.0137629
0.0635748
-0.0161651
-0.0599856
0.0667924
-0.0132224
0.0695443
-0.00997583
0.0717642
-0.00648704
0.0734045
-0.00282891
0.0744264
0.000929595
0.0747966
0.00471806
0.0744865
0.00846204
0.0734736
0.0120818
0.0154915
0.0624723
-0.0199226
-0.0587148
0.0658805
-0.0166306
0.0688278
-0.0129231
0.0712574
-0.00891664
0.0731356
-0.00470712
0.074433
-0.000367864
0.07512
0.00403107
0.0751662
0.00841584
0.0745426
0.0127054
0.0168097
0.0613544
-0.0238696
-0.0574074
0.0648826
-0.0201588
0.0679257
-0.0159662
0.0704593
-0.0114503
0.072472
-0.00671979
0.0739461
-0.00184199
0.074857
0.00312018
0.0751752
0.00809768
0.0748688
0.0130118
0.0177717
0.0604101
-0.0563548
-0.027925
0.0639609
-0.0237096
0.0669823
-0.0189876
0.0695255
-0.0139935
0.0715896
-0.00878385
0.0731607
-0.00341309
0.074216
0.00206487
0.0747269
0.00758677
0.0746616
0.0130771
0.018446
0.042364
0.0133274
-0.00804644
-0.0476449
0.0369986
0.0140586
-0.0086932
0.03155
0.0149292
-0.00948055
0.0260347
0.0159869
-0.0104716
0.0204968
0.0172913
-0.0117534
0.0150305
0.0188949
-0.0134286
0.00981583
0.0208059
-0.0155913
0.00517068
0.0229138
-0.0182687
0.00162144
0.0248605
-0.0213112
0.0258215
-0.0242
0.0421403
0.0185813
-0.0473942
0.0368003
0.0193986
0.0313763
0.0203533
0.025885
0.0214782
0.0203706
0.0228057
0.0149281
0.0243374
0.00973896
0.025995
0.00512224
0.0275306
0.00160264
0.02838
0.0274241
0.0415437
0.0237779
-0.0467404
0.0362605
0.0246818
0.0308945
0.0257192
0.0254639
0.0269088
0.0200142
0.0282554
0.0146421
0.0297095
0.00953021
0.0311069
0.00499598
0.0320648
0.00155491
0.0318211
0.028979
0.0405777
0.0288895
-0.0456893
0.035381
0.0298786
0.0301057
0.0309946
0.024772
0.0322425
0.0194282
0.0335992
0.0141733
0.0349644
0.00919065
0.0360895
0.00479345
0.036462
0.00148009
0.0351345
0.0304591
0.0392452
0.0338904
-0.0442462
0.0341633
0.0349605
0.0290107
0.0361472
0.0238105
0.0374427
0.018614
0.0387957
0.0135234
0.040055
0.00872243
0.0408905
0.00451669
0.0406677
0.00137941
0.0382718
0.0318385
0.0375459
0.0387569
-0.0424124
0.0326068
0.0398996
0.0276094
0.0411446
0.02258
0.0424721
0.0175735
0.0438021
0.0126954
0.0449332
0.00812882
0.0454571
0.00416852
0.044628
0.00125432
0.041186
0.0330928
0.0354726
0.0434646
-0.0401803
0.030706
0.0446662
0.0258992
0.0459514
0.0210809
0.0472904
0.0163094
0.0485736
0.0116934
0.0495492
0.00741458
0.0497359
0.00375289
0.0482897
0.00110675
0.0438321
0.0341996
0.0330062
0.0479817
-0.0375233
0.0284492
0.0492232
0.0238761
0.0505245
0.0193145
0.0518521
0.0148264
0.0530617
0.0105242
0.0538514
0.00658668
0.0536734
0.00327538
0.051601
0.000939341
0.0461682
0.0351389
0.0301002
0.0522718
-0.0343902
0.025815
0.0535084
0.0215372
0.0548023
0.0172862
0.0561031
0.0131338
0.057214
0.00919847
0.0577867
0.00565543
0.0572165
0.0027439
0.0545126
0.000756009
0.048156
0.0358949
0.0267018
-0.0307848
0.0228028
0.0188903
0.0150078
0.0112471
0.00773257
0.00463553
0.00217
0.000563968
0.0245855
-0.0359143
0.0401823
-0.0288535
0.0206046
-0.0357192
0.0397001
0.0167679
-0.0351883
0.039025
0.0130991
-0.0341472
0.037816
0.009673
-0.03227
0.0356962
0.00658703
-0.0290807
0.0321667
0.00395512
-0.023929
0.0265609
0.00189747
-0.0159714
0.0180291
0.000533856
-0.00416422
0.00552783
0.0128001
-0.0122663
0.0280232
-0.0315919
-0.0323457
0.0237525
-0.0314485
0.0195683
-0.031004
0.0155115
-0.0300905
0.0116559
-0.0284144
0.00810438
-0.0255292
0.00498762
-0.0208123
0.00246351
-0.0134473
0.000719905
-0.00242061
0.01352
0.0310428
-0.0271157
-0.0355189
0.0265454
-0.0269511
0.0220797
-0.0265383
0.0176968
-0.0257076
0.0134704
-0.0241881
0.00950698
-0.0215657
0.00595194
-0.0172572
0.00299749
-0.0104929
0.000896323
-0.000319443
0.0144164
0.0336788
-0.0224702
-0.0383243
0.0289879
-0.0222602
0.0242903
-0.0218407
0.0196346
-0.0210519
0.0150925
-0.019646
0.0107718
-0.017245
0.00682951
-0.0133149
0.00348807
-0.00715141
0.00106007
0.00210855
0.0154764
0.0359703
-0.0176641
-0.0407765
0.0311057
-0.0173955
0.0262091
-0.0169442
0.0213224
-0.0161652
0.0165123
-0.0148359
0.0118858
-0.0126185
0.00760798
-0.00903711
0.00392657
-0.00347
0.00120766
0.00482746
0.0166841
0.037924
-0.0127133
-0.0428748
0.0329062
-0.0123777
0.0278395
-0.0118775
0.0227584
-0.0110841
0.017724
-0.00980143
0.0128405
-0.00773511
0.00827855
-0.00447512
0.00430636
0.000502193
0.00133618
0.00779765
0.0180203
0.0395342
-0.00763935
-0.0446081
0.0343877
-0.00723122
0.0291802
-0.00667
0.0239401
-0.00584394
0.0187228
-0.00458419
0.0136298
-0.00264203
0.00883466
0.000319987
0.00462231
0.00471454
0.00144332
0.0109766
0.0194636
0.040792
-0.0024683
-0.0459631
0.0355444
-0.00198353
0.030227
-0.00135261
0.0248633
-0.000480323
0.0195043
0.000774829
0.0142482
0.00261405
0.00927112
0.00529712
0.00487042
0.00911524
0.00152726
0.0143198
0.0209908
0.0416882
0.00277073
-0.0469272
0.0363694
0.00333521
0.0309746
0.00404215
0.0255238
0.00497051
0.0200641
0.0062345
0.0146917
0.00798653
0.00958391
0.0104049
0.00504778
0.0136514
0.00158683
0.0177808
0.0225777
0.042215
-0.0474907
0.036857
0.0314186
0.0259175
0.0203986
0.0149565
0.00977012
0.00515281
0.00162235
0.0443232
0.0212946
-0.0254355
0.0478237
0.0173543
-0.0208548
0.0507338
0.0129174
-0.0158275
0.0531032
0.0081577
-0.0105271
0.0549193
0.00322022
-0.00503631
0.0561532
-0.00179424
0.000560352
0.0567659
-0.00678354
0.00617081
0.0567156
-0.0116339
0.0116842
0.0559641
-0.01622
0.0169715
-0.0204076
0.0544837
0.0218881
0.0435598
0.0174349
0.0469642
0.0139499
0.049819
0.0100626
0.0520866
0.00589013
0.0537451
0.00156173
0.0547651
-0.00281422
0.0551115
-0.00713003
0.0547502
-0.0112726
0.053654
-0.0151238
-0.018564
0.0518104
0.0426039
0.013856
0.0457843
0.0107694
0.0484371
0.00740988
0.0504884
0.00383882
0.0518944
0.000155717
0.0526188
-0.0035386
0.0526297
-0.00714096
0.051903
-0.0105458
0.0504273
-0.0136481
-0.0163477
0.048211
0.0411203
0.0105517
0.0439947
0.00789504
0.0463347
0.00506984
0.0480609
0.00211264
0.0491192
-0.000902534
0.0494709
-0.00389038
0.0490909
-0.0067609
0.0479686
-0.00942359
0.0461126
-0.0117921
-0.0137895
0.0435545
0.0386825
0.00756537
0.0411845
0.00539307
0.0431266
0.00312772
0.0444408
0.000798431
0.0450777
-0.00153943
0.0450061
-0.00381875
0.0442132
-0.00596806
0.0427067
-0.00791702
0.0405164
-0.00960183
-0.01097
0.0376968
0.0347589
0.00497315
0.0368215
0.00333044
0.038302
0.0016473
0.0391513
-5.08863e-05
0.0393355
-0.00172368
0.0388393
-0.00332257
0.037668
-0.00479671
0.0358489
-0.00609792
0.0334322
-0.00718515
-0.0080282
0.0304904
0.0286733
0.00286082
0.0302403
0.00176338
0.0312292
0.000658389
0.031613
-0.000434622
0.0313783
-0.00148899
0.0305297
-0.00247402
0.0290918
-0.00335874
0.0271092
-0.00411538
0.0246465
-0.00472242
-0.00516672
0.021785
0.0195876
0.0013023
0.0206359
0.000715046
0.0211592
0.000135113
0.0211513
-0.000426697
0.0206188
-0.000956469
0.0195836
-0.00143889
0.0180842
-0.00185935
0.0161746
-0.00220576
0.0139223
-0.00247014
-0.00264974
0.0114054
0.00648772
0.000342413
0.00704727
0.000155494
0.00720635
-2.39641e-05
0.00697347
-0.000193816
0.00636692
-0.000349918
0.00541584
-0.000487821
0.00416008
-0.000603588
0.00264866
-0.000694346
0.000937349
-0.000758828
-0.000798419
-0.000913974
-0.0119239
-0.0117684
-0.0117923
-0.0119862
-0.0123361
-0.0128239
-0.0134275
-0.0141218
-0.0148807
-0.0156791
0.0522664
-0.0240786
0.0262959
0.0493281
-0.0270721
0.0300103
0.045719
-0.0293115
0.0329207
0.0415223
-0.0307474
0.0349441
0.0368471
-0.0313896
0.0360648
0.0318098
-0.0313083
0.0363455
0.026503
-0.0306116
0.0359185
0.0209433
-0.0293817
0.0349413
0.015013
-0.027488
0.0334182
-0.024007
0.00819241
0.0308276
0.0492302
-0.0214984
0.0459521
-0.023794
0.0420482
-0.0254076
0.0376206
-0.0263198
0.0327904
-0.0265593
0.0276772
-0.0261951
0.022372
-0.0253064
0.0169078
-0.0239174
0.0112885
-0.0218687
-0.0185713
0.00585278
0.0452881
-0.0185755
0.0417222
-0.020228
0.0376069
-0.0212924
0.0330598
-0.0217727
0.0282096
-0.0217091
0.023179
-0.0211646
0.0180677
-0.020195
0.0129517
-0.0188015
0.00794766
-0.0168646
-0.0140909
0.00346731
0.0403519
-0.015373
0.0365914
-0.0164676
0.0323832
-0.0170841
0.0278533
-0.0172428
0.0231318
-0.0169876
0.0183396
-0.0163723
0.0135814
-0.0154369
0.00895753
-0.0141776
0.00461666
-0.0125237
-0.0103529
0.000878576
0.0343255
-0.0120016
0.0305055
-0.0126476
0.0263549
-0.0129335
0.021999
-0.0128869
0.0175607
-0.0125492
0.0131516
-0.0119633
0.0088714
-0.0111567
0.00482087
-0.0101271
0.00113558
-0.00883844
-0.00725083
-0.00196644
0.0271128
-0.008624
0.0234094
-0.00894418
0.0194949
-0.00901904
0.0154842
-0.00887617
0.0114842
-0.00854926
0.00758987
-0.00806898
0.00388631
-0.00745311
0.000459588
-0.00670033
-0.00258486
-0.00579399
-0.00472636
-0.00510933
0.0186144
-0.00545342
0.0152398
-0.00556962
0.011762
-0.00554124
0.00827601
-0.00539013
0.00486628
-0.00513953
0.00160575
-0.00480845
-0.00144077
-0.00440659
-0.00420865
-0.00393245
-0.00662444
-0.00337819
-0.00274472
-0.00860608
0.00870099
-0.00274904
0.00589781
-0.00276644
0.00307329
-0.00271672
0.000296528
-0.00261337
-0.00237397
-0.00246904
-0.0048894
-0.00229301
-0.00720686
-0.00208914
-0.00928374
-0.00185557
-0.0110738
-0.00158815
-0.00128853
-0.01253
-0.00285097
-0.000812048
-0.0048126
-0.000804806
-0.00675027
-0.00077905
-0.00862326
-0.000740382
-0.0103993
-0.000692986
-0.0120528
-0.000639564
-0.0135611
-0.000580768
-0.0149014
-0.000515281
-0.0160483
-0.000441249
-0.000360364
-0.0169765
-0.0164911
-0.0172959
-0.018075
-0.0188154
-0.0195083
-0.0201479
-0.0207287
-0.021244
-0.0216852
-0.0220456
0.000260428
-0.022306
0.000956873
-0.0176729
0.0020572
-0.0136303
0.00355441
-0.0101033
0.0054489
-0.00700383
0.00773826
-0.0042558
0.0104108
-0.00179397
0.0134358
0.000442277
0.0167706
0.00251802
0.00451976
0.0204433
0.000174468
-0.0224805
0.000648235
-0.0181467
0.00140903
-0.0143911
0.00245629
-0.0111505
0.00379101
-0.00833855
0.0054111
-0.00587589
0.00731185
-0.00369473
0.0094943
-0.00174017
0.0119966
1.57602e-05
0.00153338
0.0149829
9.37602e-05
-0.0225742
0.000368489
-0.0184214
0.000833001
-0.0148556
0.00149981
-0.0118174
0.00238128
-0.00922002
0.00348931
-0.00698392
0.00483846
-0.00504387
0.00645221
-0.00335393
0.00836864
-0.00190067
-0.000724762
0.0106268
2.26894e-05
-0.0225969
0.000125791
-0.0185245
0.000340291
-0.0150701
0.000692881
-0.0121699
0.00120682
-0.00973396
0.00190343
-0.00768053
0.00280452
-0.00594496
0.00393393
-0.00448334
0.0053129
-0.00327963
-0.00234966
0.00693779
-3.80747e-05
-0.0225588
-7.87766e-05
-0.0184838
-7.01051e-05
-0.0150788
2.70207e-05
-0.0122671
0.00024314
-0.00995008
0.000602796
-0.00804019
0.00112626
-0.00646842
0.00182916
-0.00518625
0.00271719
-0.00416766
-0.00340684
0.00377438
-8.87152e-05
-0.0224701
-0.000246015
-0.0183265
-0.000401302
-0.0149235
-0.000505883
-0.0121625
-0.000525483
-0.00993048
-0.00043645
-0.00812922
-0.000223638
-0.00668123
0.000119721
-0.00552961
0.00058914
-0.00463708
-0.00398209
0.00116438
-0.000129217
-0.0223409
-0.000375996
-0.0180797
-0.000653962
-0.0146455
-0.000907418
-0.011909
-0.0011008
-0.0097371
-0.00121328
-0.00801674
-0.00123545
-0.00665906
-0.00116777
-0.00559729
-0.0010209
-0.00478395
-0.00418644
-0.000816547
-0.000159129
-0.0221818
-0.00046755
-0.0177713
-0.000825887
-0.0142872
-0.00117342
-0.0115615
-0.0014746
-0.00943591
-0.00171193
-0.00777941
-0.00188123
-0.00648977
-0.00198862
-0.0054899
-0.00204912
-0.00472345
-0.00415002
-0.00208553
-0.000177608
-0.0220042
-0.000518869
-0.0174301
-0.000913865
-0.0138922
-0.00129808
-0.0111773
-0.00163651
-0.00909748
-0.00191474
-0.00750118
-0.002133
-0.0062715
-0.00230212
-0.00532078
-0.00244094
-0.00458463
-0.0040166
-0.00257436
-0.000182917
-0.000528301
-0.000915835
-0.00127794
-0.00158039
-0.00181135
-0.00197463
-0.00208505
-0.00216547
-0.00224443
-0.000973162
-0.0133328
0.0132104
0.00158272
-0.0181264
0.0155705
0.00510798
-0.021162
0.0176368
0.00923268
-0.0227646
0.0186399
0.0137188
-0.0207499
0.0162637
0.0183632
-0.0143258
0.00968133
0.0231096
-0.00439608
-0.000350249
0.0279055
0.00650576
-0.0113017
0.0327841
0.0138728
-0.0187513
0.0377795
0.0125519
-0.0175473
0.0427476
-0.000365808
-0.00460223
0.0472637
-0.0225733
0.0180572
0.0509069
-0.0464949
0.0428517
0.0536801
-0.0634054
0.0606323
0.0561287
-0.0659626
0.063514
0.0587927
-0.0530904
0.0504264
0.0618233
-0.0272959
0.0242653
0.0646028
-0.00301604
0.000236489
0.0670131
0.0186143
-0.0210246
0.0216088
-0.0225928
0.00144727
-0.0139423
0.0041219
-0.020801
0.00760707
-0.0246472
0.0115386
-0.0266962
0.0157808
-0.0249921
0.0202111
-0.018756
0.024821
-0.00900598
0.0295726
0.00175407
0.0344633
0.00898215
0.0394532
0.00756199
0.0443255
-0.00523811
0.0486359
-0.0268837
0.0519978
-0.0498569
0.054457
-0.0658646
0.0565919
-0.0680975
0.0589835
-0.0554821
0.0618279
-0.0301404
0.0645174
-0.00570551
0.0669157
0.0162161
0.0205914
0.00472868
-0.015187
0.0075129
-0.0235852
0.01091
-0.0280443
0.0145734
-0.0303596
0.0184835
-0.0289022
0.0226061
-0.0228785
0.0269801
-0.01338
0.0315831
-0.00284892
0.0363771
0.00418824
0.0412529
0.00268611
0.0459341
-0.00991924
0.0499727
-0.0309223
0.053024
-0.0529082
0.0551692
-0.0680098
0.0570029
-0.0699312
0.059133
-0.0576121
0.0617969
-0.0328042
0.0644045
-0.00831311
0.0668061
0.0138145
0.0195093
0.00873125
-0.0171712
0.0115931
-0.0264471
0.0148364
-0.0312876
0.0181615
-0.0336847
0.0216672
-0.0324079
0.0254076
-0.026619
0.0294636
-0.017436
0.0338262
-0.00721154
0.0384243
-0.000409847
0.0430877
-0.00197727
0.0474947
-0.0143263
0.0512096
-0.0346373
0.0539348
-0.0556334
0.0557788
-0.0698539
0.0573362
-0.0714886
0.0592266
-0.0595026
0.0617238
-0.0353014
0.0642625
-0.0108518
0.0666846
0.0113923
0.0183314
0.0132805
-0.0199347
0.0161596
-0.0293262
0.0191619
-0.0342899
0.0220833
-0.036606
0.0251309
-0.0354556
0.0284385
-0.0299265
0.0321176
-0.0211151
0.0361682
-0.0112621
0.0404885
-0.00473013
0.0448576
-0.00634632
0.0489252
-0.0183939
0.0522818
-0.0379939
0.0546801
-0.0580317
0.0562481
-0.0714218
0.0575647
-0.0728051
0.0592474
-0.0611853
0.0615997
-0.0376538
0.0640875
-0.0133395
0.0665497
0.00893008
0.0170264
0.0181724
-0.0234271
0.0209759
-0.0321297
0.0236314
-0.0369455
0.0260901
-0.0390647
0.0286477
-0.0380133
0.0314989
-0.0327778
0.0347706
-0.0243868
0.0384635
-0.014955
0.0424476
-0.00871419
0.0464628
-0.0103615
0.050147
-0.0220781
0.0531294
-0.0409762
0.0552149
-0.0601172
0.0565429
-0.0727499
0.0576635
-0.0739258
0.059179
-0.0627007
0.0614159
-0.0398907
0.0638756
-0.0157992
0.0664
0.00640562
0.0155625
0.0231699
-0.0274667
0.0257703
-0.0347301
0.0279662
-0.0391413
0.0299162
-0.0410147
0.0319772
-0.0400742
0.0343784
-0.0351789
0.0372433
-0.0272518
0.0405632
-0.0182749
0.0441808
-0.0123318
0.0478086
-0.0139893
0.0510886
-0.0253581
0.0536996
-0.0435872
0.0554998
-0.0619174
0.0566334
-0.0738835
0.0576104
-0.0749027
0.059006
-0.0640964
0.0611633
-0.042048
0.0636226
-0.0182585
0.0662338
0.00379441
0.0139079
0.0280058
-0.0316811
0.0302365
-0.0369608
0.0318732
-0.040778
0.0332922
-0.0424337
0.0348795
-0.0416615
0.0368683
-0.0371677
0.0393598
-0.0297433
0.0423237
-0.0212388
0.0455753
-0.0155834
0.0488098
-0.0172238
0.0516882
-0.0282364
0.0539488
-0.0458478
0.0555034
-0.0634721
0.0564955
-0.0748756
0.0573864
-0.0757936
0.0587151
-0.0654251
0.0608338
-0.0441667
0.0633244
-0.0207491
0.0660492
0.00106958
0.012031
0.0325117
-0.0354958
0.0341313
-0.0385805
0.0351207
-0.0417673
0.0360085
-0.0433215
0.0371669
-0.0428199
0.0388006
-0.0388014
0.0409728
-0.0319156
0.0436212
-0.0238871
0.0465325
-0.0184947
0.0493928
-0.0200842
0.0518949
-0.0307385
0.0538436
-0.0477965
0.0552037
-0.0648322
0.0561132
-0.0757851
0.0569788
-0.0766593
0.0582962
-0.0667424
0.0604209
-0.0462914
0.0629774
-0.0233056
0.0658445
-0.00179754
0.00990003
0.036766
-0.0382742
0.0374071
-0.0392215
0.0376274
-0.0419876
0.0379956
-0.0436897
0.0387684
-0.0435927
0.0400989
-0.0401318
0.0420008
-0.0338175
0.0443744
-0.0262607
0.0469782
-0.0210986
0.0494979
-0.0226039
0.0516669
-0.0329075
0.0533594
-0.0494889
0.0545878
-0.0660606
0.0554794
-0.0766767
0.0563822
-0.0775622
0.0577447
-0.0681049
0.0599207
-0.0484674
0.0625798
-0.0259648
0.0656176
-0.00483534
0.00748316
0.118733
-0.029688
-0.127319
0.113837
-0.0343256
0.110442
-0.0385932
0.107836
-0.0410835
0.105738
-0.0414942
0.104467
-0.0388611
0.104351
-0.0337021
0.105682
-0.027591
0.108403
-0.0238196
0.11194
-0.0261408
0.115302
-0.0362699
0.117527
-0.0517139
0.118119
-0.0666523
0.117207
-0.0757647
0.115648
-0.0760031
0.114625
-0.0670827
0.115215
-0.0490573
0.117118
-0.027868
0.120088
-0.00780459
0.00533748
0.165793
-0.018997
-0.176484
0.157192
-0.0257242
0.150647
-0.0320486
0.145523
-0.03596
0.141391
-0.0373615
0.138448
-0.0359187
0.136943
-0.0321965
0.137085
-0.0277334
0.138723
-0.0254578
0.14118
-0.0285972
0.143398
-0.0384881
0.144421
-0.0527371
0.143798
-0.0660289
0.141684
-0.0736513
0.138948
-0.0732666
0.136834
-0.0649692
0.136563
-0.0487864
0.137947
-0.0292515
0.14072
-0.010578
0.00314976
0.216617
-0.00820897
-0.227405
0.207153
-0.0162601
0.19871
-0.0236055
0.191518
-0.0287677
0.185474
-0.0313183
0.180794
-0.0312379
0.177712
-0.0291149
0.176373
-0.0263944
0.176534
-0.0256188
0.177432
-0.0294954
0.177981
-0.0390372
0.177278
-0.0520334
0.174969
-0.0637199
0.171276
-0.0699586
0.167062
-0.0690525
0.163581
-0.0614883
0.162155
-0.0473607
0.16274
-0.0298362
0.165076
-0.0129138
0.00103812
0.267669
0.000519769
-0.276397
0.259406
-0.00799747
0.251044
-0.0152433
0.243168
-0.0208923
0.236149
-0.0242987
0.230325
-0.0254145
0.225985
-0.0247749
0.223245
-0.0236543
0.221805
-0.0241788
0.220862
-0.0285525
0.21936
-0.0375348
0.216512
-0.0491851
0.212128
-0.0593364
0.206548
-0.0643781
0.200625
-0.06313
0.195565
-0.056428
0.192722
-0.0445174
0.192221
-0.0293359
0.19383
-0.0145227
-0.000844134
0.316886
0.0060932
-0.322459
0.310839
-0.00195041
0.304104
-0.00850913
0.297069
-0.0138573
0.290347
-0.0175768
0.284417
-0.0194838
0.279601
-0.0199588
0.275991
-0.0200448
0.273254
-0.021442
0.27059
-0.0258883
0.267025
-0.0339701
0.261938
-0.0440979
0.255352
-0.0527502
0.247777
-0.056803
0.240082
-0.0554348
0.233375
-0.0497215
0.228959
-0.0401016
0.227141
-0.0275172
0.227733
-0.0151151
-0.0023202
0.36534
0.00853121
-0.367778
0.361592
0.00179757
0.356922
-0.00383891
0.351523
-0.00845855
0.345936
-0.0119894
0.340696
-0.0142436
0.336136
-0.0153993
0.332307
-0.0162152
0.328839
-0.0179746
0.324952
-0.0220007
0.31976
-0.0287786
0.312792
-0.0371298
0.304272
-0.04423
0.294909
-0.0474405
0.285627
-0.0461522
0.277422
-0.0415173
0.271465
-0.0341446
0.268225
-0.0242765
0.267581
-0.0144714
-0.00322085
0.416028
0.00851307
-0.41601
0.414275
0.00355076
0.411402
-0.000966243
0.407642
-0.00469841
0.403349
-0.00769628
0.398995
-0.00988987
0.39492
-0.0113243
0.391162
-0.0124573
0.387354
-0.0141669
0.382756
-0.0174021
0.376553
-0.0225756
0.368347
-0.0289235
0.358472
-0.0343551
0.347803
-0.0367714
0.337343
-0.0356927
0.327996
-0.0321699
0.320737
-0.0268861
0.316154
-0.0196934
0.314197
-0.012514
-0.00342748
0.472328
0.00676805
-0.470583
0.472265
0.00361424
0.470857
0.00044147
0.468421
-0.00226209
0.46521
-0.00448614
0.461569
-0.00624885
0.45781
-0.0075651
0.454008
-0.00865485
0.449867
-0.0100265
0.444749
-0.0122841
0.437921
-0.0157472
0.428994
-0.019997
0.418308
-0.0236689
0.406823
-0.0252858
0.395621
-0.0244917
0.385537
-0.0220854
0.377329
-0.0186785
0.371635
-0.0139991
0.368454
-0.00933273
-0.00290801
0.538016
0.00382263
-0.53507
0.539326
0.00230404
0.539126
0.00064137
0.537692
-0.000828199
0.53526
-0.00205442
0.532076
-0.00306485
0.528389
-0.00387784
0.524307
-0.00457259
0.519646
-0.00536611
0.513912
-0.00654972
0.506471
-0.00830601
0.496934
-0.0104606
0.485601
-0.0123352
0.473466
-0.0131514
0.461688
-0.0127132
0.45106
-0.0114575
0.442145
-0.00976392
0.435574
-0.00742768
0.431358
-0.00511638
-0.00172181
0.618227
-0.614404
0.620531
0.621172
0.620344
0.61829
0.615225
0.611347
0.606774
0.601408
0.594859
0.586553
0.576092
0.563757
0.550605
0.537892
0.526435
0.516671
0.509243
0.504127
0.167717
0.0226063
-0.166714
0.16795
0.0281674
0.167231
0.0334262
0.165375
0.0382514
0.162217
0.0425039
0.157641
0.0460498
0.151631
0.0487801
0.14432
0.0506384
0.136063
0.051597
0.0514351
0.191889
0.020626
-0.189909
0.193563
0.0264936
0.194784
0.0322046
0.195385
0.0376511
0.195179
0.0427092
0.193983
0.0472465
0.191628
0.0511349
0.187991
0.0542754
0.18295
0.0566374
0.0579016
0.217522
0.0181109
-0.215007
0.220155
0.0238605
0.222813
0.0295463
0.225367
0.0350971
0.227646
0.0404304
0.22944
0.0454527
0.230513
0.0500622
0.230637
0.0541506
0.229638
0.0576364
0.060135
0.245945
0.0154672
-0.243301
0.24898
0.0208248
0.252366
0.02616
0.256036
0.0314273
0.259893
0.0365735
0.263809
0.0415367
0.267625
0.0462459
0.271154
0.0506217
0.274192
0.0545985
0.05793
0.278215
0.0128381
-0.275586
0.281412
0.0176276
0.285169
0.0224037
0.289462
0.0271333
0.294255
0.0317809
0.299485
0.0363071
0.305061
0.0406694
0.310862
0.0448206
0.316747
0.0487139
0.0522178
0.315133
0.0102504
-0.312546
0.318422
0.0143395
0.322409
0.0184164
0.327087
0.0224549
0.33244
0.0264282
0.338439
0.0303082
0.345043
0.0340658
0.352193
0.0376702
0.359817
0.0410894
0.044257
0.357615
0.00770902
-0.355074
0.360977
0.0109771
0.365159
0.0142342
0.370155
0.0174592
0.375953
0.0206309
0.382533
0.0237277
0.389871
0.026728
0.397931
0.0296102
0.406668
0.0323522
0.0349154
0.407072
0.00519624
-0.404559
0.410529
0.00752036
0.414927
0.00983634
0.420257
0.0121287
0.426506
0.0143821
0.433653
0.0165808
0.441671
0.0187095
0.450528
0.0207532
0.460184
0.0226966
0.0245162
0.465637
0.00266047
-0.463102
0.469253
0.00390505
0.473943
0.00514581
0.479698
0.00637418
0.486498
0.00758153
0.49432
0.00875925
0.50313
0.00989888
0.512891
0.0109922
0.523557
0.0120308
0.0130033
0.536713
-0.534053
0.540618
0.545764
0.552138
0.55972
0.568479
0.578378
0.58937
0.601401
0.14342
-0.0302899
-0.141055
0.146274
-0.0265639
0.149241
-0.0219542
0.152222
-0.0169749
0.155144
-0.0117061
0.157964
-0.00623301
0.160622
-0.000592457
0.163035
0.00517319
0.165106
0.0110065
0.0168382
0.170837
-0.0319614
-0.169166
0.172658
-0.0283847
0.174586
-0.0238824
0.176622
-0.0190104
0.178745
-0.0138295
0.180943
-0.00843115
0.1832
-0.00284932
0.185483
0.00288981
0.187743
0.00874699
0.0146724
0.202143
-0.0324164
-0.201688
0.202787
-0.0290286
0.203564
-0.0246588
0.204509
-0.0199557
0.205667
-0.014988
0.207056
-0.00981973
0.208685
-0.00447863
0.21056
0.00101503
0.212674
0.00663305
0.0123397
0.237193
-0.0315644
-0.238045
0.236527
-0.0283623
0.236126
-0.0242573
0.236022
-0.0198521
0.236262
-0.0152278
0.236871
-0.0104286
0.237866
-0.00547339
0.239262
-0.000381351
0.241072
0.00482292
0.0101109
0.275936
-0.0294017
-0.278098
0.273999
-0.0264257
0.272466
-0.0227244
0.27138
-0.018766
0.270774
-0.0146212
0.270668
-0.010323
0.271081
-0.00588637
0.272029
-0.00132939
0.273527
0.00332511
0.00805189
0.318963
-0.0259465
-0.322418
0.315846
-0.0233085
0.313258
-0.0201363
0.311248
-0.0167565
0.309844
-0.0132174
0.309065
-0.00954404
0.30893
-0.00575089
0.309455
-0.00185481
0.310657
0.00212377
0.0061627
0.367322
-0.0212349
-0.372033
0.363089
-0.0190756
0.3595
-0.0165478
0.356604
-0.0138603
0.354429
-0.0110422
0.352996
-0.0081115
0.352327
-0.00508188
0.352441
-0.00196826
0.353352
0.00121228
0.00444141
0.422452
-0.0153163
-0.42837
0.417148
-0.0137717
0.412593
-0.011993
0.408834
-0.0101014
0.405904
-0.00811274
0.403832
-0.00603925
0.402642
-0.00389179
0.402356
-0.00168198
0.402991
0.000577416
0.00287278
0.48649
-0.00822982
-0.493576
0.480133
-0.00741493
0.474621
-0.00648129
0.470005
-0.00548556
0.466327
-0.0044347
0.463623
-0.00333522
0.461925
-0.00219338
0.461259
-0.00101584
0.461646
0.000190237
0.00141721
0.562806
-0.571036
0.555391
0.54891
0.543425
0.53899
0.535655
0.533461
0.532445
0.532636
0.126776
0.00232327
-0.00223194
0.12652
0.00702996
-0.00677321
0.126104
0.012127
-0.0117115
0.125531
0.0179928
-0.0174199
0.124854
0.0249894
-0.0243124
0.12413
0.0341618
-0.0334378
0.123818
0.0454109
-0.0450989
0.124087
0.063049
-0.0633182
0.128809
0.0809239
-0.0856451
0.120316
-0.132563
0.147935
0.0023854