/*--------------------------------*- C++ -*----------------------------------*\
  =========                 |
  \\      /  F ield         | OpenFOAM: The Open Source CFD Toolbox
   \\    /   O peration     | Website:  https://openfoam.org
    \\  /    A nd           | Version:  6.0
     \\/     M anipulation  |
\*---------------------------------------------------------------------------*/
FoamFile
{
    version     2.0;
    format      ascii;
    class       volVectorField;
    location    "10.7485";
    object      U;
}
// * * * * * * * * * * * * * * * * * * * * * * * * * * * * * * * * * * * * * //

dimensions      [0 1 -1 0 0 0 0];

internalField   nonuniform List<vector> 
2400
(
(3.93359 -16.1604 -1.8402e-18)
(0.508907 -16.0693 6.7271e-19)
(0.766755 -15.5635 -5.55674e-19)
(1.03794 -14.7606 -3.06185e-19)
(1.08681 -13.9543 -4.38848e-19)
(1.1138 -13.202 5.87493e-19)
(1.14753 -12.5257 2.01059e-19)
(1.18402 -11.9328 1.433e-19)
(1.23572 -11.4191 -3.20039e-19)
(1.26605 -10.9766 -1.82147e-20)
(5.2199 -15.895 2.10516e-18)
(1.79122 -16.1337 -9.14573e-20)
(1.99587 -15.6096 3.88684e-19)
(2.191 -14.7746 2.94402e-18)
(2.1686 -13.9565 -1.95649e-18)
(2.13145 -13.2 -1.04001e-19)
(2.10829 -12.524 -1.96594e-20)
(2.0972 -11.9341 -2.01744e-19)
(2.10928 -11.4256 -2.74989e-19)
(2.09419 -10.9972 -2.72293e-20)
(6.48654 -15.5279 3.65901e-18)
(3.07942 -16.0908 2.7358e-18)
(3.22869 -15.5506 -6.75873e-18)
(3.34255 -14.6897 1.9219e-18)
(3.24556 -13.866 2.57678e-18)
(3.14196 -13.1108 -1.43394e-18)
(3.06034 -12.4391 -1.03317e-18)
(3.00085 -11.8537 7.82647e-19)
(2.97153 -11.3492 -1.60217e-18)
(2.90474 -10.9327 1.42821e-18)
(7.72277 -15.0566 -1.26144e-17)
(4.36475 -15.9363 4.35282e-18)
(4.45553 -15.3843 -3.9805e-18)
(4.48416 -14.5054 1.67736e-18)
(4.3107 -13.6835 -1.66849e-18)
(4.13969 -12.9361 2.25963e-18)
(3.99962 -12.2745 8.36405e-19)
(3.89314 -11.6991 -3.1029e-18)
(3.82385 -11.2064 -2.47472e-18)
(3.70553 -10.8172 2.41622e-18)
(8.91998 -14.4822 7.59836e-19)
(5.63591 -15.6698 -1.68769e-18)
(5.66625 -15.1107 -6.44518e-19)
(5.60679 -14.2221 -7.99584e-19)
(5.35614 -13.41 -4.06411e-18)
(5.11764 -12.6769 6.04209e-19)
(4.91872 -12.0299 -3.41237e-19)
(4.76372 -11.4666 3.13728e-18)
(4.65034 -10.9873 -2.12293e-18)
(4.47453 -10.6305 -1.10554e-18)
(10.0679 -13.8051 1.08757e-17)
(6.88229 -15.2899 -7.64879e-19)
(6.84974 -14.7289 1.0715e-17)
(6.70003 -13.8395 -1.37983e-18)
(6.37283 -13.0462 4.87851e-18)
(6.06931 -12.3362 -5.56843e-19)
(5.81469 -11.7112 1.2368e-20)
(5.61246 -11.1658 2.6223e-18)
(5.45171 -10.7067 -1.39647e-18)
(5.21477 -10.3921 1.75665e-18)
(11.1582 -13.0289 -4.29228e-18)
(8.09376 -14.7981 8.58161e-19)
(7.99562 -14.2396 -2.94976e-18)
(7.75267 -13.3576 -2.47651e-18)
(7.34804 -12.591 1.08366e-20)
(6.98124 -11.9121 7.23373e-18)
(6.67605 -11.3167 -2.52744e-18)
(6.43282 -10.7954 8.59332e-19)
(6.22731 -10.361 -3.41632e-18)
(5.92917 -10.0901 -1.38908e-18)
(12.1835 -12.158 1.73709e-17)
(9.26263 -14.1965 -1.99434e-18)
(9.09617 -13.6446 -1.42632e-17)
(8.75652 -12.7766 7.44606e-19)
(8.27072 -12.0425 2.44051e-18)
(7.83679 -11.3997 -3.39625e-18)
(7.48058 -10.8395 -3.88543e-18)
(7.20347 -10.3506 5.68299e-18)
(6.96933 -9.95571 -5.25809e-19)
(6.63238 -9.75285 -3.84642e-18)
(13.1376 -11.1985 -1.41209e-17)
(10.3825 -13.4896 6.65171e-18)
(10.1469 -12.9478 8.75167e-18)
(9.70949 -12.0991 2.07918e-18)
(9.13958 -11.4 -6.95652e-18)
(8.62979 -10.7928 4.13476e-18)
(8.20635 -10.2661 2.20854e-18)
(7.87629 -9.81366 4.26949e-18)
(7.60671 -9.48199 -2.65494e-18)
(7.25294 -9.40088 -3.23252e-18)
(14.0129 -10.1559 4.51576e-18)
(11.4465 -12.6826 -1.71342e-18)
(11.1439 -12.1548 -4.92246e-19)
(10.6124 -11.3302 1.93629e-18)
(9.96343 -10.6666 1.3993e-18)
(9.37922 -10.0913 -1.05003e-18)
(8.87494 -9.59359 -1.78648e-18)
(8.44459 -9.18245 2.6424e-18)
(8.05326 -8.93663 -2.1382e-18)
(7.60643 -8.98935 1.74817e-18)
(17.5686 2.93018 2.37398e-19)
(17.6773 1.52793 7.48653e-19)
(17.6742 0.124525 -2.35673e-18)
(17.5639 -1.27132 2.17074e-18)
(17.3488 -2.65092 8.54976e-19)
(17.0321 -4.00684 1.12868e-17)
(16.6153 -5.33095 -4.45989e-18)
(16.1032 -6.61594 -6.53571e-18)
(15.4963 -7.85384 7.57356e-18)
(14.801 -9.03708 -1.3141e-17)
(17.5974 -0.858843 6.26368e-19)
(17.4279 -2.22682 -2.96346e-19)
(17.1461 -3.57585 -1.87327e-18)
(16.7568 -4.89715 4.98408e-18)
(16.2647 -6.18123 -1.7591e-18)
(15.675 -7.4214 1.3789e-17)
(14.9927 -8.60845 -9.08847e-18)
(14.2232 -9.73683 1.34368e-17)
(13.3724 -10.7966 -9.8798e-18)
(12.446 -11.7833 -5.25238e-18)
(16.7617 -0.76125 -1.14977e-18)
(16.6346 -2.05619 8.49589e-20)
(16.4002 -3.33907 -5.02982e-18)
(16.0614 -4.60154 3.81767e-18)
(15.6217 -5.83439 -4.28375e-18)
(15.0856 -7.02997 -8.47599e-18)
(14.4571 -8.17945 -3.02499e-18)
(13.7433 -9.27587 -2.21623e-18)
(12.9491 -10.3099 8.80406e-18)
(12.0807 -11.2728 5.24515e-18)
(15.6273 -0.544938 4.62271e-19)
(15.5324 -1.74852 -8.03837e-19)
(15.3385 -2.94524 -1.12292e-18)
(15.0465 -4.1285 -4.61723e-18)
(14.6601 -5.28885 3.05163e-18)
(14.1816 -6.41933 8.57393e-18)
(13.6172 -7.51156 3.46814e-18)
(12.9714 -8.55803 7.49353e-19)
(12.2501 -9.54953 2.07257e-18)
(11.4619 -10.4771 2.00141e-19)
(14.6347 -0.504912 -4.83013e-19)
(14.5429 -1.62825 -1.89941e-18)
(14.3606 -2.74544 1.67772e-19)
(14.0854 -3.85357 3.58083e-18)
(13.724 -4.9409 3.91899e-18)
(13.2752 -6.00467 -2.71391e-18)
(12.7479 -7.03418 -4.86657e-18)
(12.1447 -8.02466 -2.64068e-18)
(11.4741 -8.96623 2.87401e-18)
(10.7449 -9.8507 4.69188e-18)
(13.8107 -0.469655 1.15636e-19)
(13.7146 -1.52598 1.52909e-18)
(13.5381 -2.57379 -3.59651e-18)
(13.2693 -3.61771 4.40303e-18)
(12.9249 -4.63877 2.6947e-18)
(12.4932 -5.64478 5.2222e-18)
(11.9937 -6.61679 -1.11729e-18)
(11.4176 -7.56039 -3.32144e-18)
(10.7864 -8.45769 7.82306e-18)
(10.1034 -9.30537 -6.96074e-18)
(13.1178 -0.427064 2.22596e-19)
(13.0143 -1.42717 -1.62435e-18)
(12.8455 -2.41311 -1.05779e-18)
(12.5763 -3.40327 -2.31896e-18)
(12.2505 -4.36243 -3.32096e-19)
(11.8241 -5.32021 -3.37002e-18)
(11.3513 -6.23736 -2.2498e-18)
(10.786 -7.14863 -3.62567e-19)
(10.191 -8.00968 -4.59961e-18)
(9.54138 -8.8321 6.47367e-18)
(12.5241 -0.381718 -1.78781e-19)
(12.4086 -1.33671 1.31962e-18)
(12.2533 -2.26815 -5.9071e-19)
(11.9752 -3.21587 1.27727e-18)
(11.6764 -4.11545 3.08923e-18)
(11.2394 -5.03453 5.27371e-18)
(10.8024 -5.89205 -1.38556e-18)
(10.2185 -6.78779 -5.19492e-18)
(9.66922 -7.61983 1.61311e-18)
(9.02222 -8.45256 -9.7977e-18)
(12.0087 -0.319156 2.47678e-19)
(11.8745 -1.24166 -2.96487e-19)
(11.7417 -2.12969 -2.82238e-18)
(11.4423 -3.0513 8.54491e-19)
(11.1844 -3.8997 -2.08656e-18)
(10.7126 -4.79778 -9.31468e-19)
(10.3309 -5.58992 -5.67007e-19)
(9.67301 -6.49493 2.40295e-18)
(9.19648 -7.2898 2.24629e-18)
(8.45274 -8.25047 1.95148e-18)
(11.5598 -0.278551 -5.25954e-19)
(11.394 -1.17343 9.0954e-19)
(11.2873 -2.02429 4.63032e-19)
(10.9505 -2.93527 1.2417e-18)
(10.741 -3.74864 -1.22199e-19)
(10.2063 -4.65355 -9.43387e-20)
(9.88618 -5.39556 -3.00406e-18)
(9.0889 -6.34173 4.17086e-18)
(8.69817 -7.06251 -2.74159e-18)
(7.71122 -8.27639 8.94407e-19)
(10.5223 14.6742 -7.5657e-18)
(11.6536 13.8245 7.81923e-18)
(12.7062 12.8806 -4.42311e-19)
(13.6735 11.8504 -1.28005e-17)
(14.5479 10.7415 9.20448e-18)
(15.3231 9.56149 -6.31407e-18)
(15.993 8.3192 -1.40622e-18)
(16.5549 7.025 -1.31293e-18)
(17.0054 5.6886 2.09316e-18)
(17.3447 4.32097 1.48917e-19)
(13.0405 11.5184 8.61433e-18)
(13.9603 10.5329 1.63917e-18)
(14.7919 9.4697 -8.28237e-18)
(15.5283 8.33558 -8.37469e-18)
(16.1623 7.13802 6.83891e-18)
(16.6891 5.88442 -5.36911e-18)
(17.1033 4.58515 5.88841e-18)
(17.4032 3.24994 -1.66777e-18)
(17.5858 1.89116 -4.87032e-18)
(17.6515 0.517134 -3.35406e-19)
(12.2344 10.7059 -1.41745e-18)
(13.1106 9.81027 -1.1402e-18)
(13.9075 8.84162 4.44873e-18)
(14.6178 7.80393 4.12914e-18)
(15.2352 6.70261 8.83202e-18)
(15.7543 5.54457 2.74433e-18)
(16.1712 4.33925 -1.99166e-18)
(16.4826 3.09607 -4.08123e-18)
(16.6861 1.82534 3.22675e-18)
(16.7795 0.53607 2.27923e-19)
(11.2919 9.95173 2.13582e-18)
(12.1116 9.14253 -4.79548e-18)
(12.8579 8.26681 -1.82661e-18)
(13.5244 7.32523 -7.68938e-18)
(14.1064 6.32173 -3.91632e-18)
(14.5993 5.26301 7.36979e-18)
(15.0004 4.15869 4.57694e-18)
(15.3059 3.0168 -3.85565e-18)
(15.5139 1.84683 1.63759e-19)
(15.6211 0.656184 -1.59677e-19)
(10.6541 9.25256 -7.45372e-18)
(11.416 8.50265 8.14989e-18)
(12.1055 7.69324 -2.05608e-18)
(12.7174 6.82005 4.01057e-18)
(13.2507 5.88689 -2.65836e-18)
(13.7012 4.90143 -4.2528e-18)
(14.0683 3.87429 1.99362e-18)
(14.3466 2.8115 -2.13257e-18)
(14.536 1.72289 -2.00337e-18)
(14.6313 0.613656 8.38245e-19)
(10.1504 8.68404 -9.80583e-19)
(10.8683 7.98478 1.52773e-18)
(11.5113 7.23014 -1.79142e-18)
(12.0748 6.41031 -7.76913e-18)
(12.5644 5.53248 4.13449e-18)
(12.9758 4.60587 6.37798e-19)
(13.3118 3.64176 -3.5371e-18)
(13.563 2.64304 -1.19216e-18)
(13.7335 1.62154 1.06253e-18)
(13.8134 0.579142 -3.0402e-19)
(9.71645 8.2141 -3.89191e-18)
(10.3992 7.56546 -1.58972e-20)
(11.0079 6.85657 1.72305e-18)
(11.5323 6.07677 4.33223e-18)
(11.9869 5.24412 8.51711e-19)
(12.3649 4.36712 2.05066e-18)
(12.676 3.4564 3.91504e-18)
(12.9028 2.51086 -1.64865e-18)
(13.059 1.54677 1.3605e-18)
(13.1236 0.56066 -5.09191e-19)
(9.33899 7.82128 -1.344e-18)
(9.97228 7.23837 1.46547e-18)
(10.5527 6.56433 1.37723e-18)
(11.0482 5.81112 -2.0009e-18)
(11.479 5.01676 -1.05545e-18)
(11.83 4.18096 -2.28565e-18)
(12.1238 3.31338 1.96395e-19)
(12.3291 2.40948 -4.99568e-19)
(12.4781 1.49328 -2.85491e-18)
(12.5272 0.553132 3.77827e-19)
(9.10495 7.44589 -5.09181e-19)
(9.62222 6.97161 -2.48992e-18)
(10.1475 6.32421 -9.82045e-19)
(10.6144 5.59647 3.87702e-19)
(11.0275 4.84542 -2.33062e-19)
(11.3523 4.04901 2.00128e-18)
(11.6336 3.21919 7.72042e-19)
(11.8191 2.34915 1.11111e-18)
(11.9689 1.474 1.30845e-18)
(12.0018 0.570858 -5.27859e-19)
(9.1704 6.95074 -1.67367e-18)
(9.51166 6.61012 2.7844e-18)
(9.89957 5.9811 -4.30042e-18)
(10.3112 5.29445 -1.26604e-19)
(10.6954 4.60307 3.32365e-18)
(10.9766 3.85717 1.52728e-19)
(11.2328 3.07751 1.38375e-18)
(11.3867 2.25077 -2.83549e-18)
(11.5348 1.42578 -2.12308e-20)
(11.5424 0.563109 2.43129e-19)
(0.918366 10.2614 1.22303e-19)
(0.912161 10.6724 -5.43875e-20)
(0.944159 11.1212 -3.29503e-20)
(0.955965 11.6276 3.92307e-19)
(0.952858 12.2082 -1.71673e-19)
(0.936404 12.8907 -6.53808e-19)
(0.921837 13.7447 7.4836e-19)
(1.09456 14.8893 2.49186e-19)
(1.13307 16.2014 3.68743e-19)
(-2.84585 17.317 1.66121e-18)
(1.76462 10.1467 3.05529e-19)
(1.78479 10.5885 -9.88377e-19)
(1.84307 11.0583 1.00126e-18)
(1.8886 11.5805 2.0859e-19)
(1.92783 12.1744 -4.2882e-19)
(1.96291 12.8708 4.89735e-19)
(2.01371 13.7398 1.78428e-18)
(2.27324 14.8819 -2.30874e-18)
(2.4082 16.179 6.01434e-20)
(-1.48576 17.5379 -1.91445e-18)
(2.58105 10.0643 1.27095e-18)
(2.63708 10.4991 -1.75561e-18)
(2.72945 10.9601 -7.34428e-19)
(2.81643 11.4781 -7.0267e-20)
(2.9036 12.0726 -7.35815e-19)
(2.9939 12.7747 -3.44169e-19)
(3.11239 13.6518 5.69683e-19)
(3.45827 14.7829 1.58115e-18)
(3.68686 16.0555 1.2089e-18)
(-0.107115 17.6507 -3.32871e-18)
(3.45261 9.80966 1.19918e-18)
(3.5218 10.2767 -1.40408e-18)
(3.63427 10.7588 -1.47203e-18)
(3.7539 11.2892 8.31808e-19)
(3.88364 11.8909 4.57804e-18)
(4.02672 12.5982 -1.80971e-18)
(4.21228 13.4787 1.46264e-18)
(4.64268 14.5915 -4.87862e-18)
(4.96134 15.8318 -5.41764e-18)
(1.2816 17.6563 6.43276e-18)
(4.25391 9.62962 8.52077e-19)
(4.3569 10.0735 -6.45153e-19)
(4.50642 10.5338 1.83147e-18)
(4.67183 11.0492 -1.67106e-18)
(4.85168 11.6422 1.22417e-18)
(5.05119 12.3453 1.09651e-18)
(5.30532 13.2212 1.10231e-18)
(5.8186 14.3076 7.86042e-19)
(6.22291 15.5082 3.24156e-18)
(2.67146 17.5536 2.88653e-18)
(5.12634 9.2205 -2.54007e-18)
(5.22801 9.71124 -7.83028e-19)
(5.39216 10.1975 3.22871e-18)
(5.58908 10.7222 -3.59482e-18)
(5.81097 11.3149 -1.75191e-18)
(6.06336 12.0128 -4.23612e-18)
(6.38494 12.8789 2.20493e-19)
(6.97845 13.931 -4.48192e-18)
(7.46417 15.0844 -5.6396e-19)
(4.05395 17.3429 -8.68878e-18)
(5.89163 8.92548 3.61893e-18)
(6.02798 9.38958 -6.54815e-18)
(6.23263 9.84604 3.6194e-18)
(6.47587 10.3467 1.93017e-18)
(6.74621 10.9218 -4.26738e-19)
(7.05372 11.605 5.66781e-18)
(7.44282 12.453 -3.70728e-18)
(8.11408 13.4631 -9.05079e-18)
(8.6752 14.5621 -1.21954e-18)
(5.4194 17.0229 7.97091e-18)
(6.77879 8.33848 -7.62836e-20)
(6.88489 8.88722 3.02875e-18)
(7.0832 9.38408 -1.47809e-18)
(7.34819 9.89036 1.51258e-18)
(7.65711 10.4554 1.62735e-18)
(8.01641 11.1215 -2.62775e-18)
(8.47141 11.945 1.90374e-18)
(9.21702 12.9048 -4.11101e-18)
(9.84887 13.9422 1.16116e-17)
(6.75898 16.5956 -3.91606e-18)
(7.53642 7.93577 -1.69467e-18)
(7.66163 8.46153 -9.92371e-19)
(7.88017 8.91726 4.15422e-18)
(8.17966 9.38795 -6.10822e-18)
(8.53221 9.92575 6.07042e-18)
(8.94312 10.5657 -3.10689e-18)
(9.46238 11.3571 -5.34597e-18)
(10.2778 12.2574 1.12846e-18)
(10.9734 13.2273 -1.96058e-17)
(8.06257 16.0603 1.45024e-17)
(8.47581 7.26754 4.30712e-18)
(8.479 7.8826 -4.03497e-18)
(8.64496 8.37255 4.24812e-18)
(8.96906 8.82553 -3.10841e-19)
(9.36497 9.33432 -4.55359e-18)
(9.82554 9.94195 -2.40261e-18)
(10.4058 10.6915 2.79198e-18)
(11.2871 11.5236 7.3777e-18)
(12.0425 12.4184 9.17254e-18)
(9.32089 15.4211 -8.88591e-21)
(-5.79067 8.00495 -2.50964e-18)
(-6.16781 7.93301 2.00854e-18)
(-6.50383 8.08239 -9.2874e-19)
(-6.85959 8.3711 2.1477e-18)
(-7.26487 8.71641 1.89582e-18)
(-7.7248 9.10462 3.25459e-18)
(-8.2638 9.58848 4.80813e-18)
(-8.83753 10.4015 2.66023e-18)
(-9.6695 11.3715 4.13819e-18)
(-13.5578 9.86755 -2.6006e-18)
(-5.47884 8.41238 1.46694e-18)
(-5.78939 8.44697 1.7613e-18)
(-6.02458 8.67374 -2.80197e-18)
(-6.29833 8.99895 -1.49024e-18)
(-6.64389 9.36841 -2.82422e-18)
(-7.0579 9.78542 5.49719e-18)
(-7.55491 10.3096 -2.52752e-18)
(-8.07069 11.1709 -6.03949e-18)
(-8.83679 12.2052 -4.67853e-18)
(-12.8228 10.9617 6.58264e-18)
(-4.91698 8.75682 -4.27677e-19)
(-5.22607 8.90149 3.70641e-19)
(-5.43946 9.1888 -3.86949e-18)
(-5.67763 9.54824 2.64119e-18)
(-5.97947 9.9484 2.38458e-18)
(-6.34791 10.4016 -1.69681e-18)
(-6.79764 10.9708 2.0255e-20)
(-7.24843 11.881 1.01297e-17)
(-7.93992 12.9754 1.44615e-18)
(-11.9998 11.9957 -5.2881e-18)
(-4.27102 9.09059 -3.53022e-18)
(-4.55983 9.30011 2.34672e-18)
(-4.75769 9.62775 -5.82814e-19)
(-4.97742 10.0199 1.80823e-18)
(-5.25082 10.4557 -5.12289e-18)
(-5.58205 10.9498 2.44734e-21)
(-5.9861 11.5671 1.02796e-18)
(-6.36915 12.5257 -3.16646e-19)
(-6.9804 13.6757 -6.05261e-19)
(-11.093 12.9627 6.30978e-18)
(-3.61519 9.41673 2.90308e-18)
(-3.86336 9.66633 1.43454e-19)
(-4.02931 10.0188 -1.86613e-18)
(-4.22216 10.4344 -2.79387e-22)
(-4.46545 10.9005 3.86028e-19)
(-4.76073 11.4327 -3.55983e-18)
(-5.11941 12.0966 1.00156e-18)
(-5.43282 13.1007 -9.32394e-19)
(-5.96009 14.3002 -1.25681e-19)
(-10.1058 13.855 -8.02191e-18)
(-2.92619 9.68016 -8.59775e-20)
(-3.13354 9.97186 2.37574e-18)
(-3.26562 10.3505 -2.27777e-18)
(-3.42708 10.7889 2.42713e-19)
(-3.63556 11.2828 -4.78034e-19)
(-3.8915 11.8499 3.03654e-18)
(-4.20197 12.557 6.03777e-19)
(-4.44265 13.6019 4.38761e-19)
(-4.88221 14.8435 2.46156e-18)
(-9.04304 14.6656 1.63479e-18)
(-2.21079 9.9159 -1.55449e-18)
(-2.3765 10.241 1.82102e-18)
(-2.47481 10.6372 9.45854e-20)
(-2.60265 11.0912 2.99424e-18)
(-2.77223 11.6062 -1.73453e-18)
(-2.98413 12.2024 1.29488e-18)
(-3.24144 12.9475 -1.28764e-18)
(-3.40511 14.0264 3.054e-18)
(-3.75326 15.3009 3.0306e-18)
(-7.91102 15.3884 3.21541e-18)
(-1.44963 10.0688 -9.82385e-19)
(-1.57848 10.4294 1.22247e-18)
(-1.64779 10.8487 -6.05034e-19)
(-1.74456 11.3231 -4.83868e-19)
(-1.87573 11.8609 1.1457e-18)
(-2.04213 12.4848 -2.04884e-18)
(-2.24307 13.2645 -1.5266e-18)
(-2.32615 14.3708 5.38646e-18)
(-2.57942 15.669 -1.03534e-18)
(-6.71757 16.0191 -3.80227e-18)
(-0.68227 10.206 -9.70703e-19)
(-0.768064 10.5834 2.21487e-19)
(-0.803246 11.0115 1.57983e-19)
(-0.864655 11.4963 1.09551e-20)
(-0.954148 12.0499 -7.60185e-19)
(-1.072 12.6963 2.49633e-18)
(-1.21303 13.5053 -2.42424e-18)
(-1.21253 14.6317 -3.179e-19)
(-1.36939 15.944 6.92207e-20)
(-5.47 16.553 -2.87816e-18)
(0.123596 10.235 2.99987e-19)
(0.0739819 10.6404 5.44225e-20)
(0.069231 11.0885 -1.16121e-19)
(0.0414543 11.5912 -1.70215e-19)
(-0.00719334 12.1632 -4.89863e-19)
(-0.0761856 12.8312 3.71891e-19)
(-0.155605 13.6658 2.50877e-19)
(-0.0698736 14.8054 4.66144e-19)
(-0.128502 16.1228 -5.89117e-19)
(-4.17736 16.9875 5.64264e-19)
(-5.85703 7.31037 -2.60253e-18)
(-6.7733 6.21577 1.17963e-18)
(-7.09004 5.53774 -5.56702e-19)
(-7.80424 4.69232 -1.47622e-18)
(-8.09099 3.99869 -9.19797e-19)
(-8.56854 3.19596 -5.19437e-20)
(-8.78082 2.44518 -5.23767e-19)
(-9.0858 1.63507 -1.95268e-19)
(-9.21953 0.850994 -2.06537e-19)
(-9.38061 0.045096 9.64272e-20)
(-6.49473 7.28189 -1.89806e-18)
(-7.17706 6.39376 -1.33568e-18)
(-7.56652 5.66782 -1.96488e-18)
(-8.16272 4.84463 3.10768e-19)
(-8.49372 4.12059 8.04128e-19)
(-8.92399 3.31686 1.23887e-18)
(-9.16736 2.54711 -4.9768e-19)
(-9.44913 1.72811 1.65165e-18)
(-9.59804 0.924467 1.80621e-19)
(-9.74194 0.100584 -1.49576e-19)
(-6.98997 7.40019 5.44521e-18)
(-7.56244 6.6345 -6.93052e-19)
(-8.02024 5.88711 3.14434e-18)
(-8.54342 5.07735 8.15842e-19)
(-8.92059 4.311 -3.19856e-18)
(-9.32088 3.49152 -1.84773e-18)
(-9.59672 2.68902 -7.74761e-19)
(-9.86555 1.84904 3.6169e-19)
(-10.0327 1.0162 -8.14887e-19)
(-10.1686 0.165899 1.10253e-19)
(-7.42141 7.66831 1.31698e-18)
(-7.97833 6.92222 2.95561e-18)
(-8.47941 6.1546 2.12615e-19)
(-8.97514 5.34297 1.40609e-18)
(-9.38463 4.5362 2.06035e-18)
(-9.77233 3.69285 2.0488e-19)
(-10.0729 2.85123 1.44583e-18)
(-10.3373 1.98195 6.58762e-19)
(-10.5198 1.1125 1.00566e-18)
(-10.6533 0.228529 -1.42333e-19)
(-7.86638 7.99878 4.56947e-18)
(-8.43643 7.23905 -5.30679e-18)
(-8.9637 6.44699 -5.0161e-19)
(-9.45597 5.62044 7.10959e-19)
(-9.88576 4.77847 -9.46643e-19)
(-10.2721 3.90803 -1.69537e-18)
(-10.5892 3.02787 -2.76751e-18)
(-10.8547 2.12593 2.28296e-18)
(-11.0486 1.21765 -2.52596e-19)
(-11.1834 0.296748 -7.83943e-20)
(-8.35624 8.36537 -7.92817e-18)
(-8.94607 7.58092 4.54171e-18)
(-9.49158 6.75958 1.72189e-18)
(-9.99008 5.90644 2.56821e-19)
(-10.4327 5.02935 1.7466e-18)
(-10.8222 4.12703 -2.51061e-18)
(-11.1489 3.20829 -2.29788e-18)
(-11.4166 2.27051 -1.06591e-19)
(-11.6169 1.3221 4.53872e-19)
(-11.7528 0.362014 3.13744e-19)
(-8.92602 8.81339 -1.95427e-18)
(-9.53876 7.99266 -1.34529e-18)
(-10.1007 7.13364 -4.82232e-19)
(-10.6091 6.24278 1.87269e-18)
(-11.0605 5.32517 -5.51703e-18)
(-11.4538 4.38347 -1.96862e-18)
(-11.7848 3.42247 2.95718e-18)
(-12.0531 2.44355 7.21731e-19)
(-12.2545 1.4516 5.2149e-19)
(-12.3886 0.448235 -3.02233e-19)
(-9.54804 9.57895 -5.78532e-18)
(-10.2001 8.71078 -5.77383e-18)
(-10.7931 7.80377 9.44574e-18)
(-11.3261 6.86412 1.9693e-18)
(-11.7978 5.89641 7.98575e-18)
(-12.2069 4.90435 2.26502e-19)
(-12.5511 3.89154 -2.45579e-18)
(-12.8291 2.86058 3.23861e-18)
(-13.0385 1.8149 -5.42837e-20)
(-13.1775 0.757247 7.50488e-19)
(-10.434 10.4821 6.24946e-19)
(-11.13 9.54357 8.71223e-18)
(-11.7564 8.56638 -8.82716e-18)
(-12.3149 7.5547 5.92802e-18)
(-12.8041 6.51454 -8.90498e-18)
(-13.2239 5.44955 1.12287e-18)
(-13.5726 4.36396 -3.20758e-18)
(-13.8493 3.26091 1.19499e-18)
(-14.0521 2.14394 1.83629e-19)
(-14.1788 1.01672 -4.08329e-19)
(-14.1989 8.72099 2.31224e-18)
(-14.7449 7.53532 -6.51322e-18)
(-15.2015 6.31807 3.03591e-18)
(-15.5667 5.07765 -2.63157e-18)
(-15.8422 3.82031 1.13384e-18)
(-16.0272 2.55268 5.61234e-18)
(-16.1229 1.28064 6.76865e-19)
(-16.129 0.0100044 1.57611e-18)
(-16.046 -1.25375 -7.65879e-19)
(-15.8722 -2.50482 -1.8418e-19)
(-9.4126 -0.737425 7.23508e-20)
(-9.42766 -1.52709 -3.31408e-19)
(-9.34333 -2.30235 1.66631e-18)
(-9.22748 -3.07414 -1.08154e-18)
(-9.03764 -3.82248 9.23591e-20)
(-8.80634 -4.542 -9.31481e-19)
(-8.49193 -5.22323 4.37421e-18)
(-8.11086 -5.89457 3.85786e-19)
(-7.71734 -6.53381 -1.31476e-18)
(-7.38017 -6.95036 2.66088e-18)
(-9.77903 -0.709738 3.23857e-19)
(-9.7827 -1.52587 -8.20764e-19)
(-9.6977 -2.33125 -6.95648e-19)
(-9.5678 -3.13201 -5.0315e-19)
(-9.36276 -3.91304 -1.36403e-18)
(-9.10609 -4.6694 -1.39593e-19)
(-8.77572 -5.39581 -2.40587e-19)
(-8.37501 -6.10434 1.34904e-18)
(-7.89904 -6.76844 2.84936e-18)
(-7.39829 -7.31153 -2.68939e-19)
(-10.2151 -0.677181 -2.37008e-19)
(-10.2141 -1.5245 1.83087e-18)
(-10.1331 -2.36257 3.30986e-19)
(-9.99744 -3.19367 -1.17321e-19)
(-9.78843 -4.00647 1.54311e-18)
(-9.52092 -4.7978 7.24503e-19)
(-9.18387 -5.56341 1.41319e-18)
(-8.77813 -6.30084 -9.55276e-19)
(-8.28712 -6.98983 -2.50653e-18)
(-7.72329 -7.61979 -5.83424e-18)
(-10.7083 -0.653065 3.28075e-19)
(-10.7049 -1.53794 -8.73957e-19)
(-10.6263 -2.41524 1.09979e-18)
(-10.485 -3.28452 -2.63822e-18)
(-10.271 -4.13696 -1.40722e-18)
(-9.99245 -4.96963 -5.61781e-19)
(-9.64386 -5.77667 -3.11466e-18)
(-9.22554 -6.54982 -1.26501e-18)
(-8.72632 -7.27802 1.50359e-20)
(-8.14629 -7.96932 1.95837e-18)
(-11.2451 -0.625784 2.02195e-19)
(-11.2412 -1.55134 4.76488e-20)
(-11.1636 -2.47141 8.02172e-19)
(-11.0174 -3.38377 2.435e-18)
(-10.7976 -4.28124 -4.40953e-19)
(-10.5079 -5.16004 -3.51584e-18)
(-10.1449 -6.0131 5.66463e-18)
(-9.70871 -6.83212 -1.66781e-18)
(-9.1947 -7.61192 -1.44401e-18)
(-8.60279 -8.35938 -6.0541e-19)
(-11.8175 -0.602685 -5.52243e-19)
(-11.8123 -1.57051 5.4805e-19)
(-11.7333 -2.53477 1.46486e-18)
(-11.5817 -3.49206 -1.36407e-18)
(-11.3551 -4.43633 3.00964e-18)
(-11.054 -5.36265 -3.45855e-19)
(-10.6764 -6.26396 3.0298e-19)
(-10.2221 -7.13386 1.59097e-18)
(-9.6902 -7.96906 1.01933e-18)
(-9.08221 -8.77153 5.03614e-19)
(-12.4514 -0.56161 1.04813e-19)
(-12.4416 -1.57458 -1.09248e-19)
(-12.3569 -2.58529 2.6531e-18)
(-12.1969 -3.58952 -3.14581e-18)
(-11.9601 -4.58177 -5.2353e-18)
(-11.6459 -5.55663 2.77468e-18)
(-11.2529 -6.50767 -1.34493e-18)
(-10.7809 -7.42974 1.40845e-18)
(-10.2303 -8.31974 3.79635e-18)
(-9.60343 -9.17613 -3.7555e-18)
(-13.243 -0.308005 -1.48241e-19)
(-13.2328 -1.37609 -2.16603e-18)
(-13.1455 -2.44237 2.79419e-18)
(-12.9801 -3.50219 1.42308e-18)
(-12.7357 -4.55024 -4.67328e-18)
(-12.4113 -5.58102 -3.56578e-18)
(-12.0062 -6.58876 -4.32424e-19)
(-11.5207 -7.56898 2.23525e-19)
(-10.9555 -8.51829 9.75919e-19)
(-10.3127 -9.43337 -1.41993e-18)
(-14.2262 -0.11509 2.20631e-19)
(-14.1925 -1.24718 3.26982e-18)
(-14.0779 -2.37307 1.16885e-18)
(-13.8815 -3.48906 -4.04474e-18)
(-13.6031 -4.5891 3.78779e-18)
(-13.2423 -5.66804 -4.94635e-18)
(-12.7997 -6.72053 6.09612e-18)
(-12.2764 -7.74275 -6.93505e-18)
(-11.6739 -8.73103 -3.63456e-18)
(-10.994 -9.68081 -1.00752e-17)
(-15.6058 -3.73609 -7.49973e-20)
(-15.2489 -4.93912 -1.15693e-18)
(-14.8048 -6.1108 8.85483e-19)
(-14.2743 -7.24341 9.41389e-19)
(-13.6597 -8.33177 -2.05799e-18)
(-12.9634 -9.36926 1.9165e-18)
(-12.1892 -10.3509 -2.4999e-18)
(-11.3413 -11.2722 1.91514e-18)
(-10.4244 -12.1296 -4.7407e-18)
(-9.44199 -12.9175 5.19844e-18)
(-8.39837 -13.6288 7.57995e-18)
(-10.2398 -10.5853 -4.32986e-18)
(-9.59479 -10.3089 -3.59616e-18)
(-8.90281 -9.99504 4.57788e-18)
(-8.40101 -9.54019 -1.68117e-19)
(-7.93702 -9.0802 3.74012e-18)
(-7.49392 -8.64372 2.05032e-19)
(-7.09764 -8.23439 -2.49288e-18)
(-6.83312 -7.81251 3.88309e-18)
(-6.82396 -7.28049 -7.01235e-19)
(-7.30382 -14.2597 -8.16439e-18)
(-9.41363 -11.4391 1.66848e-17)
(-8.80507 -11.1374 -9.92837e-19)
(-8.13259 -10.7695 -3.91571e-18)
(-7.65362 -10.2675 2.62053e-18)
(-7.21112 -9.76365 -5.143e-18)
(-6.78908 -9.28853 5.15828e-18)
(-6.40758 -8.8514 -3.43781e-18)
(-6.1025 -8.44288 8.75992e-19)
(-5.9593 -7.98975 1.94048e-18)
(-6.1633 -14.8148 4.92391e-18)
(-8.52292 -12.2389 -1.0128e-17)
(-7.94831 -11.9149 3.5214e-18)
(-7.29828 -11.4944 -1.49366e-18)
(-6.8467 -10.9478 2.309e-18)
(-6.43191 -10.4027 -1.48091e-18)
(-6.03735 -9.88916 -1.27792e-18)
(-5.68137 -9.41256 1.28621e-18)
(-5.3942 -8.95961 -2.58964e-18)
(-5.2539 -8.47968 2.91267e-18)
(-4.98315 -15.2889 -1.04193e-17)
(-7.569 -12.9807 1.11652e-18)
(-7.02839 -12.6349 3.30017e-18)
(-6.405 -12.1625 3.45122e-18)
(-5.98569 -11.5737 -5.26717e-18)
(-5.60278 -10.9915 3.62454e-19)
(-5.23654 -10.4487 -1.77007e-18)
(-4.90159 -9.95625 -3.19079e-18)
(-4.61554 -9.51493 5.83782e-18)
(-4.44134 -9.0908 1.27945e-18)
(-3.76808 -15.6818 7.51814e-18)
(-6.55654 -13.6594 1.33353e-18)
(-6.04979 -13.2921 4.25186e-18)
(-5.45784 -12.768 -1.8432e-19)
(-5.07617 -12.1384 4.04253e-18)
(-4.73171 -11.5198 1.71101e-18)
(-4.40386 -10.9443 3.36186e-18)
(-4.10842 -10.4213 -3.02982e-18)
(-3.85892 -9.94885 -1.52247e-19)
(-3.69936 -9.50243 -1.87203e-18)
(-2.52369 -15.9895 5.11677e-18)
(-5.48843 -14.2691 -4.46802e-18)
(-5.01674 -13.8797 -6.99546e-19)
(-4.46167 -13.3044 -1.09479e-18)
(-4.12239 -12.6366 -1.065e-18)
(-3.8199 -11.9861 -1.16159e-18)
(-3.5313 -11.3858 1.66195e-18)
(-3.27069 -10.8475 -1.79401e-18)
(-3.04349 -10.3733 1.56611e-18)
(-2.88029 -9.94484 9.66763e-20)
(-1.25537 -16.2106 -9.03055e-18)
(-4.36942 -14.8041 -3.11297e-18)
(-3.9344 -14.3917 5.06182e-18)
(-3.42235 -13.7659 -1.51965e-18)
(-3.13109 -13.0621 1.84686e-18)
(-2.87649 -12.3816 -4.68919e-18)
(-2.63445 -11.7555 3.26093e-18)
(-2.4182 -11.1939 -1.00898e-18)
(-2.22734 -10.6962 1.43355e-18)
(-2.08248 -10.2454 -1.47451e-18)
(0.0310681 -16.3419 4.15783e-18)
(-3.20384 -15.2581 -1.27998e-18)
(-2.8081 -14.8217 -1.65669e-18)
(-2.34565 -14.147 -6.11126e-19)
(-2.10727 -13.4111 3.79793e-19)
(-1.90355 -12.7059 7.70364e-19)
(-1.7083 -12.0618 -1.36684e-18)
(-1.53214 -11.4895 7.93885e-19)
(-1.36898 -10.989 1.88092e-18)
(-1.236 -10.5455 -1.47614e-18)
(1.32964 -16.3806 3.16501e-18)
(-1.99736 -15.625 -5.81415e-20)
(-1.64421 -15.1642 2.53614e-18)
(-1.2386 -14.4427 -1.9579e-18)
(-1.05872 -13.6783 5.2019e-19)
(-0.910847 -12.9519 -5.32455e-19)
(-0.767576 -12.2914 -2.24977e-19)
(-0.63737 -11.7062 -1.11299e-18)
(-0.510296 -11.1939 1.11033e-18)
(-0.405416 -10.7399 7.85655e-19)
(2.6334 -16.3218 -6.11302e-19)
(-0.756727 -15.8976 -4.04581e-19)
(-0.449788 -15.4133 -2.76031e-19)
(-0.108061 -14.6488 -8.46402e-19)
(0.00867437 -13.8608 7.47211e-19)
(0.0979578 -13.1191 1.91484e-19)
(0.188267 -12.4492 -4.50251e-19)
(0.273734 -11.8602 3.5572e-20)
(0.366648 -11.3497 -1.79426e-19)
(0.441436 -10.9068 5.83045e-21)
(0.850704 -9.67804 -1.57587e-20)
(0.230581 -6.97103 -2.68345e-21)
(0.142697 -4.92671 8.08054e-21)
(0.401497 -3.66294 -3.14179e-21)
(0.446141 -2.6067 -1.26131e-22)
(0.488571 -1.85067 -5.92373e-22)
(0.51717 -1.29389 1.30138e-22)
(0.534546 -0.87634 -1.34043e-22)
(0.547449 -0.558308 7.93636e-23)
(0.558069 -0.316303 3.23368e-23)
(0.569459 -0.139886 -1.16765e-22)
(0.585566 -0.0391584 2.87013e-23)
(0.606098 -0.0216561 -2.69583e-23)
(0.61157 -0.0664703 -4.94914e-23)
(0.592852 -0.118853 5.72774e-24)
(0.531674 -0.153905 -4.89642e-23)
(0.441655 -0.112163 1.77629e-23)
(0.346939 -0.037648 3.67875e-23)
(0.271361 0.223305 -1.00658e-22)
(0.465303 0.309207 -8.81302e-23)
(1.54751 -9.77381 1.11146e-19)
(0.701399 -7.10164 2.24638e-20)
(0.368771 -4.99805 -1.59306e-20)
(0.511641 -3.69954 3.28782e-21)
(0.523244 -2.64256 -4.53335e-21)
(0.529533 -1.86759 -5.18655e-22)
(0.535658 -1.3033 -2.12368e-22)
(0.539118 -0.88215 -2.50218e-22)
(0.543262 -0.56233 1.345e-22)
(0.548645 -0.319409 4.10861e-23)
(0.557273 -0.142727 2.50481e-23)
(0.571786 -0.0418714 2.5211e-22)
(0.590471 -0.0231956 -2.48622e-22)
(0.593702 -0.065439 -4.67985e-23)
(0.572485 -0.114671 3.89833e-23)
(0.510972 -0.146707 6.79949e-23)
(0.421479 -0.104462 -1.96212e-22)
(0.332364 -0.0311531 6.02944e-22)
(0.260079 0.219335 2.28578e-22)
(0.460703 0.301952 2.04256e-22)
(2.21289 -9.75157 -2.03015e-19)
(1.17349 -7.18306 9.24542e-20)
(0.613461 -5.07521 7.60191e-20)
(0.630397 -3.74489 -2.02443e-20)
(0.603886 -2.68303 8.49222e-22)
(0.574582 -1.88975 -3.6746e-21)
(0.55626 -1.31589 -1.91354e-22)
(0.545098 -0.890279 -5.63801e-22)
(0.540238 -0.568065 -1.68137e-22)
(0.5402 -0.323744 -1.67987e-22)
(0.545913 -0.146299 -4.5937e-23)
(0.558705 -0.0447458 2.7705e-23)
(0.575508 -0.0244443 2.50019e-22)
(0.576688 -0.0639869 -1.24107e-22)
(0.553407 -0.110252 -1.12003e-22)
(0.492014 -0.139604 1.75689e-22)
(0.403589 -0.0971812 -1.17219e-22)
(0.320113 -0.0252586 -3.83273e-22)
(0.251335 0.214877 -7.64487e-22)
(0.457108 0.2945 3.12771e-22)
(2.90697 -9.74049 -5.99531e-20)
(1.66827 -7.25644 1.47149e-19)
(0.882325 -5.14331 -5.72266e-20)
(0.760338 -3.78444 -1.04987e-20)
(0.688527 -2.72088 6.52341e-21)
(0.623835 -1.91456 -3.82065e-22)
(0.579368 -1.33115 1.10818e-21)
(0.552692 -0.900624 -2.39617e-22)
(0.538516 -0.57549 6.23887e-22)
(0.53283 -0.329286 3.92408e-22)
(0.53544 -0.150581 -8.52572e-22)
(0.546373 -0.0477812 1.24189e-22)
(0.561272 -0.0254391 -1.20227e-23)
(0.560593 -0.0621861 1.88051e-22)
(0.535643 -0.10568 3.68276e-23)
(0.474759 -0.132668 -1.22113e-22)
(0.387867 -0.0903568 -1.9583e-22)
(0.31 -0.0199639 -7.95016e-22)
(0.244856 0.209995 1.13078e-21)
(0.454378 0.286912 -6.57341e-22)
(3.578 -9.64873 2.47736e-20)
(2.17368 -7.2592 2.04831e-20)
(1.17274 -5.16367 7.6015e-21)
(0.899892 -3.79977 2.24964e-20)
(0.775078 -2.74915 8.7031e-21)
(0.676144 -1.93957 5.81787e-21)
(0.604973 -1.34844 -2.1537e-21)
(0.562016 -0.912943 5.24177e-22)
(0.538199 -0.584515 3.46885e-22)
(0.526615 -0.33599 4.87878e-22)
(0.525907 -0.155551 -1.3841e-22)
(0.534837 -0.0509831 -6.33832e-22)
(0.547823 -0.0262221 1.35962e-23)
(0.545469 -0.0601066 3.41712e-22)
(0.5192 -0.101027 2.6452e-22)
(0.459145 -0.12596 -2.14015e-22)
(0.374168 -0.0840131 7.16723e-22)
(0.301826 -0.0152572 2.35743e-22)
(0.240375 0.204751 3.5027e-22)
(0.452389 0.279245 -3.67673e-23)
(4.26059 -9.50316 -5.3198e-19)
(2.69869 -7.18377 -7.01434e-20)
(1.47929 -5.13763 3.2348e-20)
(1.04385 -3.80329 -5.96641e-20)
(0.860077 -2.7779 -2.24271e-20)
(0.729837 -1.96854 -1.74056e-20)
(0.632856 -1.36853 2.72684e-21)
(0.573112 -0.927184 5.98018e-22)
(0.539345 -0.595022 -1.05612e-21)
(0.521609 -0.343769 -4.39909e-22)
(0.517354 -0.161159 -1.96289e-22)
(0.524141 -0.0543475 7.10999e-22)
(0.535212 -0.0268322 -2.21846e-22)
(0.531354 -0.0578138 -1.97536e-22)
(0.504066 -0.09636 -1.57275e-22)
(0.445089 -0.119531 3.57385e-22)
(0.362331 -0.078165 8.88165e-23)
(0.295389 -0.0111183 4.24026e-22)
(0.237641 0.199209 -7.31725e-22)
(0.451034 0.271548 2.21677e-22)
(4.93075 -9.25596 5.42442e-19)
(3.22525 -7.10172 1.60522e-19)
(1.79419 -5.16308 -6.67571e-22)
(1.19148 -3.86267 7.59703e-20)
(0.944668 -2.84313 -2.2297e-20)
(0.78575 -2.01548 2.43885e-21)
(0.663619 -1.39572 7.6326e-21)
(0.586193 -0.944447 -1.07292e-21)
(0.542008 -0.607265 -2.92083e-21)
(0.517845 -0.352662 1.80839e-22)
(0.509805 -0.1674 -5.22833e-22)