/*--------------------------------*- C++ -*----------------------------------*\
  =========                 |
  \\      /  F ield         | OpenFOAM: The Open Source CFD Toolbox
   \\    /   O peration     | Website:  https://openfoam.org
    \\  /    A nd           | Version:  6.0
     \\/     M anipulation  |
\*---------------------------------------------------------------------------*/
FoamFile
{
    version     2.0;
    format      ascii;
    class       surfaceScalarField;
    location    "23.2575";
    object      phi;
}
// * * * * * * * * * * * * * * * * * * * * * * * * * * * * * * * * * * * * * //

dimensions      [0 3 -1 0 0 0 0];

internalField   nonuniform List<scalar> 
4670
(
0.00111104
-0.211051
0.20994
0.00458962
-0.17424
0.170762
0.00984913
-0.154076
0.148817
0.0162493
-0.141963
0.135563
0.0232766
-0.133845
0.126818
0.0305566
-0.127614
0.120334
0.0378381
-0.122239
0.114958
0.0449711
-0.117243
0.11011
0.0518825
-0.112381
0.105469
-0.107422
0.100756
0.0585481
0.0013125
-0.212364
0.00510327
-0.178031
0.0106546
-0.159628
0.0172601
-0.148568
0.0243786
-0.140963
0.0316332
-0.134868
0.0387856
-0.129391
0.0457078
-0.124166
0.0523562
-0.119029
-0.113813
0.0587476
0.00149948
-0.213863
0.00555916
-0.182091
0.0113323
-0.165401
0.0180532
-0.155289
0.0251621
-0.148072
0.0322878
-0.141994
0.0392114
-0.136315
0.0458317
-0.130786
0.0521367
-0.125334
-0.11986
0.0581841
0.00166402
-0.215527
0.00594489
-0.186372
0.011867
-0.171323
0.0186132
-0.162035
0.0256147
-0.155074
0.0325151
-0.148894
0.0391211
-0.142921
0.0453611
-0.137026
0.0512555
-0.131228
-0.125506
0.0569013
0.00180751
-0.217335
0.00625741
-0.190822
0.0122536
-0.177319
0.018937
-0.168719
0.0257401
-0.161877
0.0323288
-0.155483
0.0385402
-0.149132
0.0443335
-0.142819
0.0497596
-0.136654
-0.130699
0.0549522
0.00192942
-0.219264
0.0064957
-0.195388
0.0124932
-0.183316
0.0190324
-0.175258
0.0255566
-0.168401
0.0317608
-0.161687
0.0375151
-0.154887
0.042808
-0.148112
0.0477174
-0.141564
-0.135394
0.0524125
0.0020309
-0.221295
0.00666269
-0.20002
0.0125935
-0.189247
0.018916
-0.181581
0.0250941
-0.174579
0.0308574
-0.167451
0.0361105
-0.16014
0.0408679
-0.15287
0.0452275
-0.145923
-0.139553
0.0493863
0.00211535
-0.223411
0.00676635
-0.204671
0.0125692
-0.19505
0.0186121
-0.187623
0.0243878
-0.180355
0.0296657
-0.172729
0.0343868
-0.164861
0.0385877
-0.15707
0.042371
-0.149707
-0.143111
0.0459297
0.00219278
-0.225603
0.00682395
-0.209302
0.0124461
-0.200672
0.0181586
-0.193336
0.0234884
-0.185685
0.0282431
-0.177483
0.0323935
-0.169011
0.0359896
-0.160666
0.0391277
-0.152845
-0.146014
0.0420306
0.00228915
-0.227893
0.00685596
-0.213869
0.0122533
-0.20607
0.017607
-0.19869
0.0224809
-0.190559
0.0267125
-0.181715
0.0302806
-0.172579
0.0332153
-0.163601
0.0355885
-0.155218
-0.148196
0.0377699
0.247084
0.00180123
-0.248886
0.245181
0.00190365
0.243177
0.00200396
0.241088
0.00208866
0.238934
0.00215387
0.236735
0.00219905
0.234511
0.00222418
0.232281
0.00223022
0.23007
0.00221088
0.00217746
0.247376
0.00411413
-0.249689
0.24469
0.0045896
0.241668
0.00502658
0.238339
0.00541703
0.234739
0.00575436
0.230902
0.00603612
0.226864
0.00626208
0.22266
0.00643428
0.218319
0.00655155
0.00662777
0.240775
0.00586564
-0.242527
0.238527
0.00683819
0.235807
0.00774606
0.232643
0.00858083
0.229064
0.00933365
0.225102
0.00999864
0.220789
0.0105744
0.216161
0.0110625
0.211245
0.0114677
0.0118031
0.229065
0.006859
-0.230058
0.227547
0.00835588
0.225518
0.00977547
0.222993
0.0111055
0.219992
0.0123346
0.216538
0.0134524
0.212656
0.0144563
0.208374
0.0153446
0.203712
0.0161302
0.0168249
0.215325
0.00723753
-0.215704
0.214444
0.00923726
0.213064
0.011155
0.211196
0.0129744
0.208849
0.0146815
0.206041
0.0162604
0.202789
0.0177082
0.199118
0.0190157
0.195036
0.0202118
0.0213025
0.201509
0.00722625
-0.201498
0.201057
0.00968917
0.200144
0.0120681
0.198775
0.0143432
0.196959
0.0164983
0.194709
0.0185101
0.192039
0.0203779
0.18898
0.0220747
0.18553
0.0236624
0.0251173
0.188653
0.00702419
-0.188451
0.188433
0.00990958
0.187792
0.0127083
0.186738
0.0153976
0.185277
0.0179596
0.183426
0.0203611
0.181197
0.0226063
0.178639
0.0246325
0.175737
0.026565
0.0282747
0.177165
0.00677033
-0.176912
0.177031
0.0100438
0.176514
0.0132254
0.175621
0.0162905
0.174361
0.0192197
0.172755
0.0219671
0.170818
0.0245435
0.16863
0.0268208
0.166144
0.0290502
0.0308179
0.167074
0.00654364
-0.166847
0.16694
0.0101774
0.166455
0.0137108
0.165627
0.0171181
0.164467
0.0203799
0.162999
0.0234356
0.161237
0.0263052
0.159314
0.0287438
0.157149
0.0312148
0.0327495
0.15822
-0.15806
0.0063834
0.158046
0.0103509
0.157552
0.0142052
0.15675
0.0179199
0.155651
0.0214789
0.154279
0.0248076
0.152637
0.0279476
0.150888
0.0304924
0.149004
0.0330989
0.0335579
0.255468
-0.00031883
-0.25515
0.255615
-0.000146952
0.255549
6.66691e-05
0.255253
0.000295616
0.254725
0.000528244
0.253967
0.000758059
0.252987
0.000979306
0.2518
0.00118761
0.250426
0.00137351
0.0015406
0.251349
-0.00221091
-0.249457
0.252856
-0.00165394
0.253966
-0.0010432
0.254657
-0.000395686
0.254916
0.000269451
0.254736
0.000938403
0.254116
0.00159926
0.253061
0.00224211
0.251581
0.00285373
0.00343244
0.235678
-0.00529999
-0.232589
0.238356
-0.00433095
0.240596
-0.00328328
0.242373
-0.00217348
0.243668
-0.00102505
0.244464
0.000142387
0.244751
0.00131179
0.244525
0.0024686
0.243782
0.00359689
0.00468742
0.21627
-0.00909855
-0.212471
0.219683
-0.00774407
0.222674
-0.00627412
0.225215
-0.00471442
0.227284
-0.00309406
0.228863
-0.00143682
0.229939
0.000236162
0.230501
0.00190658
0.230541
0.00355631
0.00517066
0.197619
-0.013246
-0.193471
0.201409
-0.011534
0.204797
-0.00966215
0.207757
-0.00767447
0.21027
-0.00560733
0.212322
-0.00348813
0.213899
-0.00134147
0.214994
0.000811901
0.215597
0.00295294
0.00506399
0.181386
-0.0175221
-0.17711
0.185317
-0.0154649
0.188855
-0.0131998
0.191979
-0.0107987
0.194676
-0.00830411
0.196936
-0.00574829
0.198754
-0.00315921
0.200124
-0.000558076
0.20104
0.0020366
0.00460592
0.167868
-0.0218293
-0.163561
0.17181
-0.0194072
0.175349
-0.016739
0.178479
-0.0139279
0.181188
-0.0110138
0.183478
-0.00803795
0.18535
-0.00503143
0.186805
-0.00201259
0.187839
0.00100228
0.003994
0.156771
-0.0261818
-0.152418
0.16067
-0.0233061
0.164129
-0.020198
0.167172
-0.0169712
0.169796
-0.0136376
0.17201
-0.0102525
0.173827
-0.00684788
0.175249
-0.00343492
0.176277
-2.60048e-05
0.00335983
0.147671
-0.0305849
-0.143268
0.151473
-0.0271084
0.154792
-0.0235174
0.15769
-0.0198687
0.160176
-0.0161233
0.162265
-0.0123418
0.163973
-0.0085555
0.165305
-0.00476713
0.166263
-0.000983908
0.00277513
0.140095
-0.136356
-0.034324
0.143746
-0.0307597
0.146928
-0.0266996
0.149637
-0.0225777
0.15196
-0.0184456
0.153908
-0.0142906
0.155487
-0.0101345
0.156704
-0.00598346
0.15756
-0.00184057
0.00227593
0.0436094
0.0905678
-0.0850687
-0.0491085
0.0380157
0.097339
-0.0917452
0.0323553
0.105661
-0.100001
0.0266685
0.116161
-0.110474
0.0210122
0.129619
-0.123963
0.0154713
0.146837
-0.141296
0.0101853
0.168367
-0.163081
0.00541755
0.193926
-0.189158
0.00169797
0.221023
-0.217303
0.243622
-0.241924
0.0435732
0.0960194
-0.0490249
0.0380135
0.102899
0.0323741
0.111301
0.0266927
0.121842
0.0210257
0.135286
0.0154626
0.1524
0.010155
0.173674
0.00538384
0.198697
0.00168798
0.224719
0.24531
0.0432723
0.101404
-0.0486571
0.0377681
0.108403
0.0321742
0.116895
0.0265259
0.127491
0.0208789
0.140933
0.0153265
0.157953
0.0100305
0.17897
0.00528608
0.203441
0.00163897
0.228366
0.246949
0.0427113
0.10671
-0.0480171
0.0372797
0.113834
0.0317528
0.122421
0.0261635
0.13308
0.0205665
0.14653
0.015058
0.163461
0.00980865
0.18422
0.00512657
0.208123
0.00156355
0.231929
0.248513
0.0418896
0.111932
-0.0471112
0.0365438
0.11918
0.0311042
0.127861
0.0255999
0.138584
0.0200835
0.152047
0.0146535
0.168891
0.00948841
0.189385
0.00490772
0.212704
0.00146523
0.235371
0.249978
0.0407948
0.117069
-0.0459325
0.0355468
0.124428
0.0302164
0.133192
0.0248259
0.143975
0.0194234
0.157449
0.0141088
0.174206
0.00906797
0.194426
0.00462965
0.217142
0.00134487
0.238656
0.251323
0.0393883
0.122117
-0.0444362
0.0342611
0.129555
0.0290723
0.13838
0.0238318
0.149215
0.0185807
0.1627
0.0134213
0.179365
0.00854694
0.1993
0.00429382
0.221395
0.00120437
0.241746
0.252527
0.0376212
0.127062
-0.0425663
0.0326478
0.134529
0.0276501
0.143378
0.0226054
0.15426
0.0175482
0.167758
0.0125873
0.184326
0.00792437
0.203963
0.00390112
0.225419
0.00104494
0.244602
0.253572
0.0353183
0.131776
-0.0400322
0.0306457
0.139201
0.025947
0.148077
0.0211527
0.159054
0.0163317
0.172579
0.0116127
0.189045
0.00720714
0.208369
0.0034616
0.229164
0.00087884
0.247185
0.254451
0.0323705
-0.0369499
0.0283044
0.0239627
0.0194565
0.014925
0.0104986
0.00639588
0.0029707
0.000698387
0.0297177
0.0379394
-0.0330562
-0.0346009
0.0252564
0.0444434
-0.0399821
0.0212107
0.0531477
-0.049102
0.0174206
0.0645611
-0.060771
0.0137967
0.0793311
-0.0757072
0.010298
0.0982771
-0.0947783
0.00693208
0.122281
-0.118915
0.00380741
0.152076
-0.148951
0.00125333
0.187532
-0.184978
0.22702
-0.225767
0.0321273
0.0428092
-0.0369971
0.0274433
0.0491274
0.0230155
0.0575754
0.0188408
0.0687358
0.0148713
0.0833007
0.0110695
0.102079
0.00744361
0.125907
0.00410589
0.155413
0.00138692
0.190251
0.228407
0.034379
0.0477044
-0.0392742
0.0294949
0.0540114
0.0247646
0.0623058
0.0202473
0.0732531
0.0159432
0.0876048
0.011837
0.106185
0.00794448
0.129799
0.00438183
0.158976
0.00148533
0.193148
0.229893
0.0363943
0.052726
-0.0414159
0.0313419
0.0590638
0.0263751
0.0672726
0.0215729
0.0780553
0.0169692
0.0922085
0.012575
0.110579
0.0084218
0.133952
0.0046359
0.162762
0.00156827
0.196215
0.231461
0.0381836
0.0578908
-0.0433484
0.0329797
0.0642678
0.0278199
0.0724324
0.022782
0.0830932
0.0179183
0.0970722
0.0132624
0.115235
0.0088646
0.13835
0.0048667
0.16676
0.0016394
0.199443
0.2331
0.0397403
0.0631833
-0.0450328
0.034404
0.0696041
0.0290849
0.0777515
0.0238531
0.0883249
0.0187687
0.102157
0.0138821
0.120122
0.0092622
0.14297
0.00506957
0.170953
0.00169802
0.202814
0.234798
0.0410515
0.0685782
-0.0464465
0.035607
0.0750486
0.0301596
0.0831988
0.0247712
0.0937133
0.0195039
0.107424
0.0144198
0.125206
0.00960509
0.147785
0.00524022
0.175317
0.00174372
0.206311
0.236542
0.0421051
0.0740457
-0.0475726
0.03658
0.0805738
0.0310352
0.0887436
0.0255251
0.0992234
0.0201114
0.112838
0.0148641
0.130453
0.00988503
0.152764
0.00537463
0.179828
0.00177586
0.209909
0.238318
0.0428911
0.0795535
-0.0483989
0.0373154
0.0861495
0.0317043
0.0943547
0.0261064
0.104821
0.0205817
0.118362
0.0152066
0.135828
0.0100967
0.157874
0.00547272
0.184452
0.0017991
0.213583
0.240117
0.0434043
-0.0489196
0.0378086
0.0321623
0.0265094
0.0209086
0.0154407
0.0102336
0.00552757
0.00180738
-0.0286081
0.0268412
-0.0312893
-0.0252092
0.0243373
-0.0277362
-0.0224008
0.0213526
-0.024161
-0.0201469
0.0183182
-0.0205721
-0.0184445
0.015474
-0.0171764
-0.0172724
0.0129156
-0.0140877
-0.0165955
0.0106812
-0.0113581
-0.0163672
0.00877425
-0.00900259
-0.0165332
0.00716774
-0.00700179
0.00580756
-0.0170387
-0.00530204
-0.0362164
0.0230754
-0.0328594
0.0209803
-0.0300579
0.0185511
-0.0278298
0.0160901
-0.0261489
0.013793
-0.0249758
0.0117425
-0.024264
0.00996949
-0.023961
0.00847124
-0.0240123
0.00721901
0.00616251
-0.0243673
-0.045537
0.0195105
-0.0423312
0.0177745
-0.0396175
0.0158373
-0.0374351
0.0139077
-0.03576
0.0121179
-0.034549
0.0105315
-0.0337514
0.00917191
-0.0333141
0.00803393
-0.0331858
0.00709076
0.0062989
-0.0333222
-0.0573548
0.0160943
-0.0542838
0.0147035
-0.0516585
0.0132121
-0.0495039
0.0117531
-0.0477966
0.0104106
-0.0464947
0.00922956
-0.0455492
0.00822646
-0.0449109
0.00739558
-0.0445345
0.00671438
0.00614758
-0.0443832
-0.0724204
0.0128075
-0.0694578
0.011741
-0.0668871
0.0106414
-0.0647184
0.0095844
-0.0629283
0.0086205
-0.0614785
0.00777969
-0.060325
0.00707302
-0.059425
0.00649558
-0.0587406
0.00602998
0.00564955
-0.0582426
-0.091594
0.00962313
-0.0887083
0.00885525
-0.0861556
0.00808865
-0.083935
0.00736383
-0.0820238
0.00670931
-0.0803883
0.00614413
-0.0789908
0.00567554
-0.0777953
0.00530008
-0.0767707
0.00500539
0.00477285
-0.075894
-0.115839
0.00654695
-0.113027
0.00604388
-0.110491
0.00555256
-0.108223
0.00509528
-0.1062
0.00468657
-0.104394
0.00433785
-0.102772
0.00405375
-0.101304
0.0038323
-0.0999637
0.00366504
0.00353978
-0.0987306
-0.146079
0.0036752
-0.143431
0.00339536
-0.141003
0.00312486
-0.138787
0.00287878
-0.136761
0.00266098
-0.1349
0.00247735
-0.133177
0.0023304
-0.131564
0.00221928
-0.130037
0.00213778
0.00207595
-0.128573
-0.182589
0.00128594
-0.180374
0.00118023
-0.178327
0.00107853
-0.176441
0.000991849
-0.174695
0.000915457
-0.173069
0.000851283
-0.171539
0.000800092
-0.170081
0.000761782
-0.168676
0.000732465
0.000697892
-0.167298
-0.224481
-0.223301
-0.222222
-0.221231
-0.220315
-0.219464
-0.218664
-0.217902
-0.217169
-0.216472
-0.017839
0.00462363
-0.00382332
-0.0188977
0.00350419
-0.00244546
-0.0202022
0.00235355
-0.00104908
-0.0217628
0.00106878
0.000491855
-0.0236107
-0.000440058
0.00228793
-0.0257886
-0.00224144
0.00441932
-0.0283359
-0.00438346
0.00693078
-0.0312803
-0.00690626
0.00985067
-0.0346829
-0.00986867
0.0132713
-0.0137243
-0.0382482
0.0172895
-0.024989
0.00524535
-0.0258476
0.00436283
-0.0269366
0.00344251
-0.0282688
0.00240101
-0.029873
0.0011641
-0.0317844
-0.000330002
-0.0340322
-0.00213572
-0.0366278
-0.00431065
-0.0395472
-0.00694922
-0.0104227
-0.0428488
-0.0336955
0.00561862
-0.0342814
0.00494874
-0.0350783
0.00423942
-0.0361004
0.00342308
-0.0373736
0.00243733
-0.0389288
0.0012252
-0.0407947
-0.000269858
-0.0429959
-0.00210949
-0.0455611
-0.00438399
-0.00730845
-0.0486754
-0.0444391
0.00567451
-0.0446826
0.00519232
-0.0451168
0.00467357
-0.0457576
0.00406384
-0.0466311
0.00331088
-0.0477701
0.0023642
-0.0492125
0.00117252
-0.0510049
-0.000317075
-0.053219
-0.00216991
-0.00448584
-0.0560416
-0.0579232
0.00535512
-0.0577665
0.00503565
-0.0577798
0.00468683
-0.0579818
0.00426588
-0.0584015
0.00373055
-0.0590765
0.00303917
-0.0600544
0.00215046
-0.0613964
0.00102485
-0.0631876
-0.000378691
-0.0020977
-0.0655757
-0.0751674
0.00462854
-0.0745769
0.00444517
-0.0741333
0.00424318
-0.0738581
0.00399076
-0.0737831
0.00365552
-0.0739497
0.00320575
-0.0744103
0.00261102
-0.0752291
0.00184372
-0.0764868
0.000878997
-0.000294553
-0.07829
-0.0976164
0.00351433
-0.0966066
0.0034353
-0.095713
0.00334967
-0.0949588
0.00323647
-0.0943758
0.00307258
-0.0940058
0.00283577
-0.0938999
0.00250507
-0.0941177
0.00206151
-0.094727
0.00148834
0.000781
-0.0958026
-0.127189
0.00213033
-0.125869
0.00211503
-0.124622
0.00210287
-0.12347
0.00208408
-0.12244
0.00204321
-0.121571
0.00196648
-0.120906
0.00184062
-0.120498
0.00165301
-0.120399
0.00138979
0.00104166
-0.12066
-0.165938
0.000770325
-0.164597
0.000773963
-0.163278
0.00078394
-0.161994
0.000799946
-0.160763
0.000812797
-0.159613
0.000816498
-0.158577
0.000804889
-0.157696
0.000771787
-0.157014
0.000707364
0.000588744
-0.156561
-0.215701
-0.214927
-0.214143
-0.213343
-0.212531
-0.211714
-0.210909
-0.210137
-0.20943
-0.208841
-0.00059738
-0.208244
-0.000777941
-0.15638
-7.37964e-05
-0.121364
0.00155521
-0.0974316
0.00401098
-0.0807457
0.00716657
-0.0687313
0.0109128
-0.0597878
0.0151971
-0.0529597
0.0201042
-0.0477559
-0.0441472
0.0260033
-0.000472822
-0.207771
-0.000349288
-0.156504
0.000794058
-0.122508
0.00295479
-0.0995923
0.00600462
-0.0837956
0.00979398
-0.0725207
0.0141847
-0.0641785
0.019057
-0.057832
0.0242833
-0.0529822
-0.0494539
0.02959
-0.000335261
-0.207436
0.000116377
-0.156956
0.00171702
-0.124108
0.00441031
-0.102286
0.00802609
-0.0874113
0.0123804
-0.076875
0.0172996
-0.0690977
0.0226139
-0.0631463
0.0281252
-0.0584935
-0.0548793
0.0335506
-0.000190477
-0.207245
0.000614364
-0.15776
0.00269185
-0.126186
0.00592305
-0.105517
0.0100933
-0.0915816
0.0149857
-0.0817675
0.0204015
-0.0745134
0.0261518
-0.0688966
0.0320343
-0.064376
-0.0606491
0.0378041
-3.16813e-05
-0.207214
0.00114683
-0.158939
0.00371559
-0.128754
0.00748759
-0.109289
0.0122029
-0.0962969
0.0176147
-0.0871793
0.0235066
-0.0804053
0.0296853
-0.0750752
0.0359604
-0.0706512
-0.0668054
0.0421168
0.000141943
-0.207356
0.00171075
-0.160508
0.0047782
-0.131822
0.0090855
-0.113596
0.0143274
-0.101539
0.0202291
-0.093081
0.0265605
-0.0867367
0.0331289
-0.0816435
0.0397587
-0.077281
-0.0733073
0.0462606
0.000330023
-0.207686
0.00229968
-0.162477
0.00586288
-0.135385
0.0106868
-0.11842
0.016421
-0.107273
0.0227643
-0.0994243
0.0294751
-0.0934475
0.036363
-0.0885315
0.0432684
-0.0841864
-0.0800671
0.0500282
0.000530944
-0.208217
0.00290418
-0.164851
0.00694756
-0.139428
0.0122536
-0.123726
0.0184275
-0.113447
0.0251437
-0.106141
0.0321517
-0.100456
0.0392654
-0.0956451
0.0463422
-0.0912632
-0.0869734
0.0532485
0.000744606
-0.208961
0.0035145
-0.16762
0.00800751
-0.143921
0.0137441
-0.129463
0.0202874
-0.11999
0.0272902
-0.113143
0.0344965
-0.107662
0.0417275
-0.102876
0.0488603
-0.0983961
-0.0939077
0.0557946
0.000979163
0.00412049
0.0090157
0.0151158
0.0219433
0.0291335
0.0364293
0.0436636
0.0507367
0.0575849
0.0676036
-0.454857
0.445802
0.0705287
-0.380792
0.377867
0.0720471
-0.324927
0.323409
0.0729658
-0.278523
0.277605
0.0733091
-0.240523
0.24018
0.0732922
-0.207759
0.207776
0.0730068
-0.178649
0.178934
0.0725498
-0.152273
0.15273
0.0719681
-0.128353
0.128935
0.0713555
-0.106551
0.107163
0.070701
-0.0869582
0.0876126
0.0700788
-0.0698552
0.0704774
0.0694914
-0.0538865
0.0544739
0.0689043
-0.0430008
0.0435879
0.0684387
-0.0289682
0.0294337
0.068013
-0.0257362
0.0261619
0.0675632
-0.0141474
0.0145972
0.0673782
-0.0103966
0.0105815
0.0673028
-0.0116217
0.0116971
0.0129899
-0.0124161
0.064516
-0.460626
0.0664766
-0.382752
0.0679119
-0.326362
0.0691277
-0.279739
0.0698388
-0.241234
0.0701716
-0.208092
0.0702052
-0.178682
0.0700286
-0.152097
0.0696891
-0.128014
0.0692803
-0.106142
0.0687929
-0.0864708
0.0683105
-0.0693728
0.0678293
-0.0534052
0.067331
-0.0425025
0.0669427
-0.0285799
0.0665641
-0.0253576
0.0661767
-0.0137599
0.0660596
-0.0102795
0.0660189
-0.0115811
0.0135257
0.0608348
-0.463276
0.0619545
-0.383872
0.0633913
-0.327799
0.0649319
-0.28128
0.0660299
-0.242332
0.0667282
-0.20879
0.0670973
-0.179051
0.0672187
-0.152218
0.0671398
-0.127935
0.0669539
-0.105956
0.0666542
-0.0861711
0.0663328
-0.0690513
0.0659804
-0.0530529
0.0655963
-0.0421184
0.0653096
-0.0282932
0.0650054
-0.0250534
0.0647115
-0.013466
0.0646902
-0.0102582
0.0647146
-0.0116055
0.0139865
0.0566564
-0.463031
0.0570464
-0.384262
0.0585303
-0.329283
0.0604042
-0.283154
0.0619031
-0.243831
0.0629836
-0.209871
0.0637058
-0.179774
0.0641438
-0.152656
0.0643442
-0.128135
0.0643997
-0.106012
0.0643069
-0.0860783
0.0641661
-0.0689105
0.0639636
-0.0528504
0.0637166
-0.0418714
0.0635538
-0.0281304
0.0633493
-0.0248489
0.0631772
-0.0132939
0.063277
-0.010358
0.0633944
-0.0117228
0.0143376
0.0521218
-0.460201
0.0518745
-0.384015
0.0533875
-0.330796
0.0555748
-0.285341
0.0574811
-0.245737
0.05896
-0.21135
0.060054
-0.180868
0.0608279
-0.15343
0.0613263
-0.128634
0.0616411
-0.106326
0.0617733
-0.0862105
0.0618311
-0.0689682
0.0617976
-0.0528169
0.0617086
-0.0417824
0.0616896
-0.0281114
0.0616082
-0.0247675
0.0615837
-0.0132695
0.061827
-0.0106013
0.0620627
-0.0119585
0.0145467
0.0473503
-0.455139
0.0464706
-0.383135
0.0479565
-0.332282
0.0504434
-0.287828
0.0527752
-0.248069
0.0546763
-0.213251
0.0561639
-0.182355
0.0572943
-0.154561
0.0581095
-0.129449
0.0587011
-0.106918
0.0590754
-0.0865848
0.0593483
-0.0692411
0.0595013
-0.0529699
0.0595889
-0.04187
0.0597317
-0.0282542
0.0597947
-0.0248306
0.0599406
-0.0134154
0.0603469
-0.0110075
0.0607242
-0.0123358
0.0145846
0.041982
-0.447734
0.0404371
-0.38159
0.0420042
-0.333849
0.0449067
-0.290731
0.0477513
-0.250914
0.0501295
-0.215629
0.0520466
-0.184272
0.0535601
-0.156074
0.0547137
-0.130602
0.0556005
-0.107805
0.0562337
-0.0872181
0.0567372
-0.0697445
0.0570929
-0.0533257
0.0573737
-0.0421508
0.0576943
-0.0285749
0.0579214
-0.0250576
0.0582576
-0.0137516
0.0588437
-0.0115936
0.0593834
-0.0128755
0.0144244
0.0352404
-0.437045
0.0333522
-0.379702
0.035337
-0.335834
0.0388727
-0.294266
0.0423639
-0.254405
0.0453024
-0.218567
0.0477019
-0.186672
0.0496352
-0.158007
0.0511537
-0.132121
0.0523566
-0.109008
0.0532665
-0.0881279
0.0540158
-0.0704938
0.0545896
-0.0538995
0.0550786
-0.0426397
0.0555915
-0.0290878
0.0560002
-0.0254663
0.0565438
-0.0142952
0.0573243
-0.0123741
0.0580451
-0.0135964
0.014042
0.0291406
-0.424155
0.0270088
-0.37757
0.0289703
-0.337795
0.0328226
-0.298119
0.0368251
-0.258408
0.0402976
-0.22204
0.0431885
-0.189563
0.0455587
-0.160378
0.04746
-0.134022
0.0489952
-0.110543
0.0501961
-0.0893289
0.0512043
-0.0715019
0.0520096
-0.0547049
0.0527194
-0.0433495
0.0534372
-0.0298057
0.0540432
-0.0260723
0.0548084
-0.0150604
0.0557954
-0.013361
0.056714
-0.014515
0.013416
0.0292736
-0.415659
0.0245916
-0.372888
0.0247127
-0.337916
0.0276395
-0.301045
0.0315753
-0.262343
0.0353561
-0.225821
0.0386447
-0.192851
0.0414133
-0.163146
0.0436858
-0.136295
0.0455526
-0.11241
0.0470507
-0.090827
0.0483236
-0.0727748
0.0493711
-0.0557524
0.0503106
-0.044289
0.0512443
-0.0307394
0.0520619
-0.0268898
0.0530586
-0.0160572
0.0542648
-0.0145673
0.0553952
-0.0156453
0.0125283
0.240606
-0.355111
-0.301154
0.203376
-0.335657
0.172844
-0.307385
0.15098
-0.279181
0.136667
-0.248031
0.126719
-0.215873
0.119385
-0.185517
0.113848
-0.157609
0.109591
-0.132038
0.106278
-0.109096
0.103701
-0.0882499
0.101728
-0.0708024
0.100272
-0.0542956
0.0991739
-0.0431913
0.0986102
-0.0301757
0.0980813
-0.0263609
0.0980233
-0.0159992
0.0985445
-0.0150885
0.0985774
-0.0156782
0.0127113
0.273853
-0.292076
-0.336888
0.232318
-0.294122
0.201272
-0.276339
0.177505
-0.255413
0.160531
-0.231058
0.148226
-0.203567
0.138879
-0.17617
0.131684
-0.150414
0.126125
-0.126479
0.121781
-0.104752
0.118413
-0.0848823
0.1158
-0.0681892
0.11388
-0.0523758
0.112406
-0.0417171
0.111599
-0.0293685
0.110845
-0.0256076
0.110706
-0.0158592
0.111201
-0.0155844
0.111005
-0.0154821
0.0129501
0.315552
-0.232389
-0.375239
0.271027
-0.249598
0.237207
-0.242519
0.209528
-0.227733
0.188347
-0.209877
0.172768
-0.187988
0.160936
-0.164339
0.15175
-0.141228
0.144621
-0.11935
0.13904
-0.0991713
0.134719
-0.0805611
0.131334
-0.0648047
0.128847
-0.0498881
0.126908
-0.0397782
0.12578
-0.0282411
0.124737
-0.0245641
0.12448
-0.0156024
0.12486
-0.0159645
0.124342
-0.0149644
0.0132188
0.355826
-0.17875
-0.409465
0.309912
-0.203683
0.273885
-0.206492
0.243901
-0.197749
0.219362
-0.185337
0.200438
-0.169065
0.185843
-0.149744
0.174351
-0.129736
0.165322
-0.110321
0.158224
-0.0920734
0.152726
-0.0750629
0.148396
-0.0604743
0.14521
-0.0467018
0.142694
-0.0372622
0.141155
-0.0267028
0.139745
-0.0231543
0.139311
-0.0151684
0.139449
-0.0161016
0.138507
-0.0140231
0.0134495
0.395412
-0.133096
-0.441067
0.350616
-0.158887
0.312902
-0.168778
0.281098
-0.165946
0.253796
-0.158035
0.231501
-0.14677
0.213851
-0.132093
0.199758
-0.115644
0.188503
-0.0990659
0.179566
-0.083137
0.172607
-0.0681039
0.167108
-0.0549752
0.163047
-0.0426403
0.159811
-0.0340261
0.157747
-0.0246388
0.155878
-0.0212856
0.155174
-0.0144647
0.154886
-0.0158129
0.153439
-0.012576
0.0135026
0.431781
-0.0954434
-0.469433
0.390802
-0.117908
0.352979
-0.130956
0.320032
-0.132998
0.290929
-0.128932
0.265838
-0.121679
0.245126
-0.111381
0.228239
-0.0987568
0.214491
-0.0853178
0.203399
-0.0720451
0.194656
-0.0593602
0.18772
-0.0480395
0.18255
-0.0374703
0.178413
-0.0298888
0.175672
-0.0218979
0.173226
-0.0188399
0.172109
-0.0133473
0.171157
-0.0148611
0.169181
-0.0106001
0.0131366
0.466213
-0.0651742
-0.496482
0.430658
-0.082353
0.394594
-0.094892
0.361257
-0.0996612
0.330963
-0.0986381
0.303716
-0.094433
0.28012
-0.087784
0.260283
-0.0789205
0.243794
-0.0688285
0.230245
-0.0584957
0.219377
-0.0484929
0.210705
-0.0393676
0.204142
-0.0309072
0.198888
-0.0246341
0.195272
-0.0182826
0.192096
-0.0156636
0.190351
-0.0116021
0.188467
-0.0129768
0.186043
-0.0081768
0.0119954
0.502726
-0.0407075
-0.527192
0.472451
-0.0520786
0.439202
-0.0616433
0.406204
-0.066663
0.374971
-0.0674052
0.345919
-0.0653805
0.319661
-0.0615263
0.296766
-0.056025
0.277273
-0.0493361
0.260966
-0.0421881
0.247644
-0.0351709
0.236925
-0.0286486
0.22866
-0.0226426
0.222055
-0.0180294
0.217332
-0.0135591
0.21324
-0.0115718
0.210587
-0.00894941
0.207529
-0.0099187
0.204858
-0.00550551
0.00964613
0.547993
-0.0199086
-0.568792
0.5215
-0.0255862
0.490657
-0.0307999
0.457982
-0.0339877
0.425527
-0.0349501
0.394402
-0.0342561
0.365384
-0.0325079
0.339241
-0.0298824
0.316434
-0.0265289
0.297045
-0.0227992
0.280964
-0.0190898
0.267909
-0.0155943
0.257665
-0.0123984
0.249497
-0.00986072
0.243443
-0.00750527
0.238253
-0.00638158
0.23442
-0.0051164
0.230064
-0.00556345
0.227378
-0.00281872
0.0057062
0.612451
-0.63236
0.586865
0.556065
0.522077
0.487127
0.452871
0.420363
0.390481
0.363952
0.341153
0.322063
0.306469
0.29407
0.28421
0.276704
0.270323
0.265206
0.259643
0.256824
0.332941
0.00395171
-0.330509
0.334411
0.00888048
0.334828
0.013788
0.334109
0.0186396
0.33216
0.0234274
0.328897
0.028071
0.324112
0.0327319
0.31774
0.036865
0.308906
0.0419326
0.0413098
0.349884
0.00247689
-0.34841
0.350852
0.00791328
0.351268
0.0133715
0.351095
0.0188129
0.350304
0.0242185
0.34888
0.0294947
0.346897
0.034715
0.344406
0.0393564
0.341825
0.0445136
0.0462463
0.369685
0.00169343
-0.368901
0.370456
0.00714202
0.371233
0.0125944
0.372036
0.0180104
0.372892
0.0233622
0.373793
0.0285939
0.374748
0.0337594
0.37547
0.0386344
0.376113
0.0438712
0.0471201
0.390676
0.00116291
-0.390146
0.391546
0.00627276
0.392761
0.0113787
0.394317
0.0164546
0.396198
0.0214817
0.398359
0.0264323
0.400808
0.0313107
0.403445
0.0359976
0.40659
0.0407261
0.0442451
0.41113
0.000747833
-0.410715
0.412115
0.00528752
0.413676
0.00981744
0.415819
0.0143124
0.418553
0.0187474
0.42189
0.0230957
0.42586
0.02734
0.430422
0.0314364
0.435682
0.0354653
0.0388607
0.43206
0.000391086
-0.431703
0.433166
0.00418148
0.435032
0.00795141
0.437666
0.0116779
0.441075
0.0153391
0.445256
0.0189146
0.450209
0.0223872
0.45591
0.0257354
0.462409
0.0289658
0.0318366
0.455753
0.000120016
-0.455482
0.456873
0.00306178
0.458846
0.00597791
0.461676
0.00884787
0.465364
0.0116519
0.469907
0.0143712
0.475306
0.0169885
0.481553
0.0194878
0.488661
0.0218584
0.0240155
0.485719
-3.53721e-05
-0.485564
0.486784
0.00199707
0.488758
0.00400414
0.491636
0.00596904
0.495413
0.00787569
0.500075
0.00970896
0.505608
0.011455
0.511995
0.0131012
0.519217
0.0146367
0.0160398
0.527253
-6.48495e-05
-0.527224
0.528249
0.001001
0.530204
0.00204936
0.533103
0.00306987
0.536927
0.00405257
0.541647
0.00498813
0.547234
0.00586796
0.553651
0.00668436
0.560857
0.00743077
0.00810534
0.58911
-0.589175
0.590111
0.592161
0.595231
0.599283
0.604271
0.610139
0.616824
0.624254
0.279705
-0.0328776
-0.281151
0.28818
-0.0392346
0.295372
-0.0338914
0.301519
-0.0287254
0.307514
-0.0244402
0.313257
-0.0200332
0.318518
-0.0153958
0.3232
-0.0106654
0.327228
-0.00586904
-0.00100488
0.318533
-0.0360986
-0.315312
0.322834
-0.0435357
0.327484
-0.0385412
0.331362
-0.0326037
0.334852
-0.0279303
0.33823
-0.0234113
0.34136
-0.0185256
0.34412
-0.0134249
0.346477
-0.00822671
-0.00293713
0.359003
-0.0385569
-0.356544
0.360218
-0.0447509
0.361733
-0.0400563
0.363172
-0.0340432
0.364284
-0.0290423
0.365294
-0.0244206
0.366291
-0.0195233
0.36723
-0.0143639
0.368093
-0.00908957
-0.0037452
0.397764
-0.0388414
-0.397479
0.395663
-0.0426509
0.394008
-0.0384007
0.392911
-0.0329464
0.391929
-0.0280605
0.391044
-0.0235352
0.390395
-0.018875
0.390028
-0.0139968
0.38994
-0.0090015
-0.00395082
0.431853
-0.0365899
-0.434105
0.427049
-0.0378463
0.422852
-0.0342039
0.419599
-0.0296935
0.416916
-0.0253773
0.414638
-0.0212574
0.412834
-0.0170714
0.411573
-0.0127355
0.410867
-0.00829509
-0.0037992
0.461431
-0.0318688
-0.466152
0.455045
-0.0314604
0.44934
-0.0284992
0.444662
-0.0250155
0.440803
-0.0215179
0.437598
-0.018053
0.435051
-0.014524
0.433207
-0.0108918
0.432089
-0.00717712
-0.00341275
0.490162
-0.025339
-0.496691
0.483026
-0.0243245
0.476609
-0.0220821
0.47114
-0.0195469
0.466544
-0.0169215
0.462733
-0.0142422
0.459698
-0.0114897
0.457466
-0.0086596
0.456057
-0.00576803
-0.00283784
0.523602
-0.017709
-0.531232
0.516049
-0.0167717
0.509231
-0.0152637
0.503274
-0.0135905
0.498176
-0.0118235
0.493919
-0.0099853
0.490511
-0.00808132
0.487971
-0.00611984
0.486318
-0.00411495
-0.00208348
0.5687
-0.00928764
-0.577122
0.56069
-0.00876141
0.553424
-0.00799789
0.546986
-0.00715185
0.541408
-0.00624545
0.536713
-0.00529061
0.532926
-0.00429449
0.530071
-0.00326464
0.528166
-0.00221021
-0.00114134
0.635533
-0.644821
0.626772
0.618774
0.611622
0.605377
0.600086
0.595791
0.592527
0.590317
0.127379
0.0120787
-0.012526
0.128822
0.0368562
-0.0382998
0.131459
0.062408
-0.0650447
0.135371
0.0904976
-0.0944093
0.141519
0.120238
-0.126386
0.149682
0.156562
-0.164725
0.163866
0.192687
-0.206872
0.180568
0.246499
-0.263202
0.221549
0.279056
-0.320037
0.3554
-0.415002
0.148731
0.0114421
0.150691
0.0348964
0.154258
0.0588412
0.159451
0.0853048
0.167657
0.112032
0.178124
0.146095
0.196885
0.173927
0.21797
0.225414
0.266949
0.230077
0.307037
0.173603
0.0106056
0.176147
0.0323524
0.180791
0.0541969
0.187472
0.0786237
0.198028
0.101476
0.211127
0.132996
0.234237
0.150817
0.260108
0.199543
0.306272
0.183913
0.256764
0.202586
0.00955481
0.205758
0.0291801
0.211543
0.048412
0.219794
0.070373
0.232621
0.0886488
0.248426
0.11719
0.273751
0.125492
0.303894
0.1694
0.342448
0.145359
0.201733
0.23635
0.00827653
0.240173
0.0253573
0.247037
0.0415482
0.256859
0.0605508
0.271313
0.0741951
0.289881
0.0986223
0.314474
0.100899
0.348461
0.135413
0.379782
0.114038
0.147411
0.275657
0.00678729
0.280106
0.0209079
0.287801
0.0338532
0.299067
0.0492844
0.314126
0.0591362
0.334963
0.0777857
0.357415
0.0784473
0.392411
0.100417
0.419864
0.0865844
0.101123
0.321407
0.00515523
0.326365
0.0159492
0.334535
0.0256839
0.346784
0.0370353
0.361741
0.0441793
0.383197
0.0563291
0.404062
0.0575822
0.435958
0.0685212
0.461364
0.0611788
0.065796
0.374699
0.00346814
0.379931
0.010717
0.388299
0.0173161
0.400771
0.0245634
0.415483
0.0294666
0.435696
0.0361168