/*--------------------------------*- C++ -*----------------------------------*\
  =========                 |
  \\      /  F ield         | OpenFOAM: The Open Source CFD Toolbox
   \\    /   O peration     | Website:  https://openfoam.org
    \\  /    A nd           | Version:  6.0
     \\/     M anipulation  |
\*---------------------------------------------------------------------------*/
FoamFile
{
    version     2.0;
    format      ascii;
    class       surfaceScalarField;
    location    "7";
    object      phi;
}
// * * * * * * * * * * * * * * * * * * * * * * * * * * * * * * * * * * * * * //

dimensions      [0 3 -1 0 0 0 0];

internalField   nonuniform List<scalar> 
38030
(
-8.654e-06
-0.00797656
0.00798522
-2.77214e-05
-0.00732474
0.0073438
-5.49853e-05
-0.00672489
0.00675215
-8.8392e-05
-0.00617424
0.00620764
-0.000126053
-0.00566957
0.00570723
-0.000166363
-0.00520752
0.00524783
-0.000207988
-0.00478476
0.00482639
-0.000249827
-0.00439806
0.0044399
-0.000290984
-0.00404432
0.00408548
-0.000330742
-0.00372064
0.0037604
-0.000368541
-0.00342429
0.00346209
-0.000403954
-0.00315275
0.00318817
-0.000436671
-0.00290369
0.0029364
-0.000466488
-0.00267495
0.00270477
-0.000493288
-0.00246458
0.00249138
-0.000517036
-0.00227079
0.00229453
-0.000537764
-0.00209194
0.00211267
-0.000555564
-0.00192657
0.00194437
-0.000570583
-0.00177335
0.00178837
-0.000583011
-0.00163107
0.00164349
-0.000593076
-0.00149866
0.00150872
-0.000601036
-0.00137517
0.00138313
-0.000607177
-0.00125978
0.00126592
-0.000611803
-0.00115181
0.00115644
-0.000615229
-0.00105064
0.00105406
-0.000617776
-0.000955658
0.000958205
-0.000619759
-0.000866295
0.000868278
-0.000621485
-0.00078204
0.000783766
-0.000623252
-0.00070246
0.000704228
-0.000627135
0.000629245
-0.000625362
-7.63884e-06
-0.00796893
-2.63699e-05
-0.00730601
-5.31737e-05
-0.00669808
-8.57345e-05
-0.00614168
-0.000122117
-0.00563319
-0.000160699
-0.00516894
-0.000200135
-0.00474533
-0.000239318
-0.00435888
-0.000277348
-0.00400629
-0.000313507
-0.00368448
-0.000347233
-0.00339057
-0.000378103
-0.00312188
-0.000405809
-0.00287598
-0.000430152
-0.00265061
-0.000451022
-0.00244371
-0.000468389
-0.00225342
-0.000482295
-0.00207803
-0.000492845
-0.00191602
-0.000500195
-0.001766
-0.000504552
-0.00162671
-0.00050616
-0.00149705
-0.000505298
-0.00137603
-0.000502276
-0.00126281
-0.00049742
-0.00115667
-0.000491074
-0.00105698
-0.00048358
-0.000963153
-0.000475281
-0.000874593
-0.000466512
-0.000790809
-0.000457603
-0.00071137
-0.000635855
-0.000448883
-7.24318e-06
-0.00796168
-2.53436e-05
-0.00728791
-5.1272e-05
-0.00667215
-8.25797e-05
-0.00611037
-0.000117259
-0.00559851
-0.000153652
-0.00513255
-0.00019039
-0.00470859
-0.000226355
-0.00432291
-0.00026064
-0.003972
-0.000292525
-0.00365259
-0.000321447
-0.00336164
-0.000346982
-0.00309635
-0.000368826
-0.00285414
-0.000386782
-0.00263265
-0.000400745
-0.00242975
-0.000410691
-0.00224347
-0.00041667
-0.00207206
-0.000418794
-0.0019139
-0.000417233
-0.00176756
-0.000412206
-0.00163174
-0.000403976
-0.00150528
-0.000392842
-0.00138717
-0.000379137
-0.00127651
-0.00036322
-0.00117258
-0.00034546
-0.00107474
-0.000326234
-0.000982378
-0.000305912
-0.000894916
-0.000284863
-0.000811858
-0.000263454
-0.000732778
-0.000657253
-0.000242056
-6.98705e-06
-0.0079547
-2.43837e-05
-0.00727051
-4.9191e-05
-0.00664735
-7.89158e-05
-0.00608064
-0.000111505
-0.00556592
-0.000145266
-0.00509879
-0.000178811
-0.00467504
-0.00021101
-0.00429071
-0.000240949
-0.00394206
-0.000267904
-0.00362564
-0.00029131
-0.00333824
-0.000310744
-0.00307691
-0.000325903
-0.00283898
-0.00033659
-0.00262196
-0.000342705
-0.00242363
-0.000344226
-0.00224195
-0.00034121
-0.00207507
-0.000333777
-0.00192133
-0.000322107
-0.00177923
-0.000306431
-0.00164741
-0.000287027
-0.00152469
-0.000264216
-0.00140998
-0.000238355
-0.00130237
-0.00020984
-0.0012011
-0.000179073
-0.00110551
-0.000146464
-0.00101499
-0.000112425
-0.000928955
-7.73563e-05
-0.000846927
-4.16748e-05
-0.00076846
-0.000693131
-5.7973e-06
-6.74494e-06
-0.00794795
-2.33632e-05
-0.00725389
-4.68572e-05
-0.00662385
-7.47144e-05
-0.00605279
-0.000104854
-0.00553578
-0.000135564
-0.00506808
-0.00016544
-0.00464517
-0.000193342
-0.00426281
-0.000218352
-0.00391706
-0.000239741
-0.00360425
-0.000256945
-0.00332103
-0.000269538
-0.00306432
-0.000277219
-0.0028313
-0.00027979
-0.00261939
-0.000277152
-0.00242627
-0.000269288
-0.00224982
-0.000256255
-0.0020881
-0.000238181
-0.00193941
-0.000215252
-0.00180216
-0.000187713
-0.00167495
-0.000155855
-0.00155654
-0.000120017
-0.00144581
-8.05853e-05
-0.0013418
-3.79789e-05
-0.0012437
7.34299e-06
-0.00115083
5.49383e-05
-0.00106258
0.000104351
-0.000978368
0.000155128
-0.000897704
0.000206809
-0.00082014
-0.000745239
0.000258917
-6.47959e-06
-0.00794147
-2.22275e-05
-0.00723814
-4.42274e-05
-0.00660185
-6.99524e-05
-0.00602706
-9.73061e-05
-0.00550843
-0.000124562
-0.00504082
-0.000150309
-0.00461942
-0.000173401
-0.00423972
-0.000192918
-0.00389754
-0.000208128
-0.00358904
-0.000218467
-0.00331069
-0.000223509
-0.00305928
-0.000222951
-0.00283186
-0.000216595
-0.00262575
-0.000204342
-0.00243853
-0.000186173
-0.00226798
-0.000162149
-0.00211213
-0.000132399
-0.00196916
-9.71181e-05
-0.00183744
-5.65583e-05
-0.00171551
-1.1026e-05
-0.00160208
3.91255e-05
-0.00149597
9.34848e-05
-0.00139616
0.000151599
-0.00130182
0.000212978
-0.00121221
0.000277113
-0.00112672
0.000343506
-0.00104476
0.000411644
-0.000965842
0.000481006
-0.000889502
-0.000815285
0.000551051
-6.17767e-06
-0.00793529
-2.09518e-05
-0.00722337
-4.12776e-05
-0.00658153
-6.46143e-05
-0.00600373
-8.88561e-05
-0.00548418
-0.000112271
-0.00501741
-0.000133444
-0.00459825
-0.000151229
-0.00422193
-0.000164706
-0.00388406
-0.000173145
-0.0035806
-0.000175981
-0.00330786
-0.000172789
-0.00306247
-0.000163265
-0.00284138
-0.000147209
-0.0026418
-0.000124519
-0.00246122
-9.51742e-05
-0.00229733
-5.92345e-05
-0.00214807
-1.68297e-05
-0.00201156
3.18432e-05
-0.00188611
8.65247e-05
-0.00177019
0.000146896
-0.00166245
0.000212584
-0.00156165
0.000283163
-0.00146674
0.000358141
-0.0013768
0.000436995
-0.00129106
0.000519165
-0.00120889
0.000604086
-0.00112968
0.000691186
-0.00105294
0.000779869
-0.000978185
-0.000904934
0.000869518
-5.83526e-06
-0.00792946
-1.95247e-05
-0.00720968
-3.7994e-05
-0.00656306
-5.86893e-05
-0.00598303
-7.94999e-05
-0.00546337
-9.86938e-05
-0.00499821
-0.000114859
-0.00458208
-0.000126853
-0.00420994
-0.00013376
-0.00387716
-0.000134854
-0.00357951
-0.000129574
-0.00331314
-0.000117494
-0.00307455
-9.83085e-05
-0.00286057
-7.18171e-05
-0.00266829
-3.79119e-05
-0.00249512
3.4305e-06
-0.00233867
5.2156e-05
-0.00219679
0.000108137
-0.00206754
0.000171179
-0.00194915
0.000241017
-0.00184003
0.000317327
-0.00173876
0.000399719
-0.00164405
0.000487742
-0.00155476
0.000580886
-0.00146994
0.000678574
-0.00138875
0.000780202
-0.00131052
0.00088514
-0.00123462
0.00099274
-0.00116054
0.00110233
-0.00108778
-0.00101581
0.0012132
-5.45115e-06
-0.00792401
-1.79413e-05
-0.00719719
-3.43681e-05
-0.00654663
-5.21681e-05
-0.00596523
-6.92306e-05
-0.00544631
-8.38287e-05
-0.00498362
-9.45587e-05
-0.00457135
-0.000100287
-0.00420421
-0.000100107
-0.00387734
-9.33012e-05
-0.00358631
-7.93108e-05
-0.00332713
-5.77139e-05
-0.00309615
-2.82048e-05
-0.00289007
9.42034e-06
-0.00270592
5.52743e-05
-0.00254097
0.000109387
-0.00239278
0.000171713
-0.00225912
0.00024213
-0.00213796
0.000320448
-0.00202747
0.000406407
-0.00192599
0.000499677
-0.00183203
0.000599859
-0.00174423
0.000706488
-0.00166139
0.00081902
-0.00158247
0.000936849
-0.00150658
0.0010593
-0.00143297
0.00118568
-0.001361
0.00131527
-0.00129013
0.0014473
-0.00121981
-0.00114947
0.00158097
-5.02513e-06
-0.00791898
-1.61977e-05
-0.00718602
-3.03924e-05
-0.00653244
-4.50406e-05
-0.00595058
-5.80365e-05
-0.00543332
-6.76649e-05
-0.00497399
-7.25359e-05
-0.00456648
-7.1531e-05
-0.00420522
-6.37566e-05
-0.00388511
-4.85064e-05
-0.00360156
-2.52306e-05
-0.0033504
6.4883e-06
-0.00312787
4.69551e-05
-0.00293054
9.63761e-05
-0.00275534
0.00015487
-0.00259947
0.000222477
-0.00246039
0.000299159
-0.0023358
0.000384808
-0.00222361
0.000479242
-0.0021219
0.000582207
-0.00202896
0.000693377
-0.0019432
0.000812351
-0.0018632
0.000938653
-0.0017877
0.00107172
-0.00171554
0.0012109
-0.00164577
0.00135548
-0.00157755
0.00150468
-0.0015102
0.00165769
-0.00144314
0.00181364
-0.00137576
-0.00130745
0.00197162
-4.55638e-06
-0.00791443
-1.42898e-05
-0.00717628
-2.6058e-05
-0.00652067
-3.72929e-05
-0.00593935
-4.59002e-05
-0.00542471
-5.01823e-05
-0.0049697
-4.877e-05
-0.00456789
-4.05654e-05
-0.00421342
-2.4694e-05
-0.00390098
-4.65665e-07
-0.00362579
3.2657e-05
-0.00338353
7.50837e-05
-0.00317029
0.000127116
-0.00298257
0.000188962
-0.00281719
0.000260748
-0.00267125
0.000342522
-0.00254216
0.000434261
-0.00242754
0.000535871
-0.00232522
0.000647187
-0.00223322
0.000767967
-0.00214974
0.000897896
-0.00207313
0.00103658
-0.00200188
0.00118352
-0.00193464
0.00133817
-0.00187018
0.00149983
-0.00180743
0.00166774
-0.00174546
0.00184104
-0.0016835
0.00201883
-0.00162093
0.00220014
-0.00155707
-0.00149123
0.00238392
-4.04354e-06
-0.00791038
-1.22123e-05
-0.00716811
-2.13535e-05
-0.00651153
-2.89068e-05
-0.00593179
-3.27968e-05
-0.00542082
-3.13505e-05
-0.00497115
-2.32264e-05
-0.00457602
-7.35385e-06
-0.00422929
1.71163e-05
-0.00392545
5.08522e-05
-0.00365953
9.4374e-05
-0.00342705
0.00014808
-0.003224
0.000212264
-0.00304676
0.000287136
-0.00289206
0.000372826
-0.00275694
0.000469395
-0.00263873
0.000576834
-0.00253498
0.00069507
-0.00244345
0.000823957
-0.00236211
0.000963277
-0.00228906
0.00111273
-0.00222258
0.00127193
-0.00216108
0.0014404
-0.00210311
0.00161756
-0.00204734
0.00180272
-0.00199258
0.00199507
-0.0019378
0.00219368
-0.00188211
0.00239754
-0.00182479
0.00260557
-0.0017651
-0.00170223
0.00281657
-3.48489e-06
-0.0079069
-9.95807e-06
-0.00716164
-1.62646e-05
-0.00650522
-1.98595e-05
-0.0059282
-1.86942e-05
-0.00542198
-1.11286e-05
-0.00497872
4.14374e-06
-0.00459129
2.81586e-05
-0.00425331
6.17329e-05
-0.00395903
0.000105506
-0.0037033
0.000159976
-0.00348152
0.000225522
-0.00328955
0.000302429
-0.00312367
0.000390903
-0.00298053
0.000491077
-0.00285712
0.000603024
-0.00275068
0.000726752
-0.00265871
0.000862211
-0.00257891
0.00100928
-0.00250918
0.00116777
-0.00244755
0.00133742
-0.00239222
0.00151785
-0.00234151
0.00170861
-0.00229387
0.00190911
-0.00224785
0.00211867
-0.00220214
0.00233644
-0.00215557
0.00256144
-0.00210712
0.00279256
-0.00205592
0.0030286
-0.00200113
-0.00194182
0.00326819
-2.87792e-06
-0.00790402
-7.51883e-06
-0.007157
-1.0774e-05
-0.00650196
-1.01233e-05
-0.00592885
-3.55356e-06
-0.00542855
1.05339e-05
-0.0049928
3.34021e-05
-0.00461416
6.60439e-05
-0.00428595
0.000109236
-0.00400222
0.000163582
-0.00375765
0.000229549
-0.00354749
0.000307494
-0.00336749
0.000397685
-0.00321386
0.000500319
-0.00308317
0.00061553
-0.00297233
0.000743399
-0.00287855
0.000883953
-0.00279926
0.00103717
-0.00273213
0.00120295
-0.00267496
0.00138116
-0.00262575
0.00157155
-0.00258261
0.0017738
-0.00254376
0.00198748
-0.00250755
0.00221203
-0.0024724
0.00244675
-0.00243687
0.0026908
-0.00239962
0.00294315
-0.00235946
0.0032026
-0.00231538
0.00346782
-0.00226634
-0.00221127
0.00373727
-2.21984e-06
-0.0079018
-4.88472e-06
-0.00715434
-4.86229e-06
-0.00650199
3.33157e-07
-0.00593404
1.26698e-05
-0.00544089
3.36955e-05
-0.00501383
6.4621e-05
-0.00464508
0.000106388
-0.00432772
0.000159724
-0.00405555
0.000225189
-0.00382311
0.000303212
-0.00362551
0.000394117
-0.0034584
0.00049815
-0.00331789
0.000615491
-0.00320051
0.00074627
-0.00310311
0.000890574
-0.00302285
0.00104844
-0.00295713
0.00121988
-0.00290356
0.00140484
-0.00285992
0.0016032
-0.00282411
0.00181478
-0.00279419
0.00203931
-0.00276829
0.0022764
-0.00274464
0.00252553
-0.00272153
0.00278603
-0.00269737
0.00305706
-0.00267064
0.00333756
-0.00263996
0.00362626
-0.00260408
0.0039217
-0.00256178
-0.00251174
0.00422218
-1.5074e-06
-0.00790029
-2.0451e-06
-0.0071538
1.49178e-06
-0.00650552
1.15438e-05
-0.0059441
3.00238e-05
-0.00545937
5.84195e-05
-0.00504223
9.78801e-05
-0.00468454
0.000149287
-0.00437912
0.00021331
-0.00411958
0.000290456
-0.00390026
0.000381105
-0.00371616
0.000485542
-0.00356283
0.000603979
-0.00343633
0.000736574
-0.0033331
0.000883442
-0.00324998
0.00104467
-0.00318408
0.00122031
-0.00313277
0.00141038
-0.00309364
0.00161488
-0.00306441
0.00183374
-0.00304297
0.00206683
-0.00302729
0.00231396
-0.00301542
0.00257479
-0.00300547
0.00284887
-0.00299562
0.00313558
-0.00298408
0.00343409
-0.00296915
0.00374334
-0.00294921
0.00406203
-0.00292278
0.00438859
-0.00288833
-0.00284428
0.00472112
-7.37406e-07
-0.00789955
1.01087e-06
-0.00715555
8.30979e-06
-0.00651282
2.3543e-05
-0.00595933
4.85576e-05
-0.00548438
8.47711e-05
-0.00507844
0.000133262
-0.00473304
0.000194841
-0.0044407
0.000270112
-0.00419485
0.000359519
-0.00398967
0.000463385
-0.00382002
0.000581943
-0.00368139
0.000715361
-0.00356974
0.000863762
-0.0034815
0.00102724
-0.00341345
0.00120586
-0.0033627
0.00139969
-0.0033266
0.00160877
-0.00330271
0.00183311
-0.00328876
0.00207272
-0.00328258
0.00232753
-0.0032821
0.00259742
-0.0032853
0.00288215
-0.0032902
0.00318135
-0.00329481
0.00349447
-0.0032972
0.00382075
-0.00329543
0.00415915
-0.00328762
0.00450836
-0.00327199
0.00486671
-0.00324668
-0.00320974
0.00523218
9.33424e-08
-0.00789965
4.29368e-06
-0.00715975
1.56123e-05
-0.00652414
3.63638e-05
-0.00598008
6.8318e-05
-0.00551634
0.000112813
-0.00512293
0.000170845
-0.00479107
0.000243148
-0.004513
0.000330249
-0.00428195
0.00043252
-0.00409194
0.000550215
-0.00393772
0.000683506
-0.00381468
0.000832503
-0.00371874
0.000997282
-0.00364628
0.0011779
-0.00359407
0.0013744
-0.0035592
0.00158683
-0.00353903
0.00181524
-0.00353112
0.00205968
-0.0035332
0.0023202
-0.0035431
0.00259681
-0.00355871
0.00288947
-0.00357797
0.00319807
-0.00359879
0.00352234
-0.00361909
0.00386186
-0.00363672
0.00421595
-0.00364953
0.00458366
-0.00365533
0.00496368
-0.003652
0.00535429
-0.00363728
-0.00360877
0.00575331
9.87851e-07
-0.00790064
7.81289e-06
-0.00716657
2.34178e-05
-0.00653975
5.00349e-05
-0.0060067
8.93457e-05
-0.00555565
0.000142597
-0.00517619
0.000210698
-0.00485917
0.000294293
-0.0045966
0.000393826
-0.00438148
0.000509585
-0.0042077
0.000641748
-0.00406988
0.000790409
-0.00396334
0.000955613
-0.00388394
0.00113737
-0.00382804
0.00133568
-0.00379238
0.00155055
-0.00377407
0.001782
-0.00377048
0.00203006
-0.00377919
0.00229482
-0.00379796
0.00257634
-0.00382462
0.00287472
-0.00385709
0.00319002
-0.00389327
0.00352225
-0.00393102
0.00387131
-0.00396815
0.00423692
-0.00400234
0.00461857
-0.00403118
0.00501543
-0.00405218
0.00542623
-0.00406281
0.00584927
-0.00406032
-0.00404175
0.00628225
1.94826e-06
-0.00790258
1.15759e-05
-0.0071762
3.17407e-05
-0.00655991
6.45789e-05
-0.00603954
0.000111672
-0.00560274
0.000174166
-0.00523868
0.000252873
-0.00493787
0.000348341
-0.00469207
0.000460921
-0.00449406
0.000590813
-0.00433759
0.000738106
-0.00421717
0.000902808
-0.00412805
0.00108488
-0.00406602
0.00128425
-0.00402741
0.00150086
-0.00400898
0.00173463
-0.00400784
0.00198554
-0.00402139
0.0022536
-0.00404725
0.00253886
-0.00408322
0.00284143
-0.00412719
0.00316146
-0.00417712
0.00349912
-0.00423092
0.00385455
-0.00428646
0.00422784
-0.00434144
0.00461893
-0.00439342
0.00502752
-0.00443976
0.00545295
-0.00447762
0.00589414
-0.004504
0.00634941
-0.00451559
-0.00450873
0.00681639
2.97608e-06
-0.00790556
1.55878e-05
-0.00718881
4.05904e-05
-0.00658491
8.00091e-05
-0.00607896
0.000135313
-0.00565805
0.000207539
-0.00531091
0.000297392
-0.00502773
0.000405321
-0.0048
0.000531576
-0.00462032
0.00067626
-0.00448227
0.000839365
-0.00438028
0.00102081
-0.00430949
0.00122044
-0.00426566
0.00143812
-0.00424509
0.00167366
-0.00424453
0.00192693
-0.00426111
0.0021978
-0.00429226
0.00248623
-0.00433568
0.00279223
-0.00438922
0.00311591
-0.00445086
0.00345743
-0.00451864
0.00381705
-0.00459055
0.00419508
-0.00466448
0.00459179
-0.00473815
0.00500739
-0.00480902
0.00544187
-0.00487424
0.00589487
-0.00493063
0.00636556
-0.00497469
0.00685239
-0.00500242
-0.00500933
0.007353
4.07168e-06
-0.00790963
1.98504e-05
-0.00720459
4.99701e-05
-0.00661503
9.63282e-05
-0.00612531
0.000160269
-0.00572199
0.000242711
-0.00539335
0.000344248
-0.00512926
0.000465219
-0.00492097
0.000605774
-0.00476087
0.000765912
-0.00464241
0.000945524
-0.00455989
0.00114442
-0.00450838
0.00136236
-0.00448359
0.00159906
-0.00448179
0.00185426
-0.00449972
0.00212768
-0.00453453
0.00241912
-0.00458369
0.0027284
-0.00464496
0.00305546
-0.00471628
0.00340034
-0.00479575
0.00376322
-0.00488152
0.00414438
-0.00497172
0.00454426
-0.00506436
0.00496335
-0.00515724
0.00540215
-0.00524782
0.00586103
-0.00533312
0.00634006
-0.00540966
0.00683877
-0.0054734
0.00735594
-0.00551959
-0.00554266
0.00788927
5.23457e-06
-0.00791487
2.43634e-05
-0.00722372
5.98771e-05
-0.00665055
0.000113527
-0.00617896
0.00018652
-0.00579498
0.000279648
-0.00548648
0.000393387
-0.005243
0.000527967
-0.00505555
0.00068343
-0.00491634
0.000859674
-0.00481865
0.00105648
-0.0047567
0.00127356
-0.00472546
0.00151055
-0.00472058
0.00176706
-0.0047383
0.00204269
-0.00477535
0.00233703
-0.00482887
0.00264972
-0.00489639
0.00298047
-0.00497571
0.00332907
-0.00506488
0.00369543
-0.00516211
0.00407965
-0.00526574
0.004482
-0.00537407
0.00490297
-0.00548533
0.00534325
-0.00559751
0.00580364
-0.00570821
0.00628497
-0.00581445
0.00678787
-0.00591256
0.00731248
-0.00599801
0.00785806
-0.00606516
-0.00610715
0.00842255
6.46329e-06
-0.00792133
2.91245e-05
-0.00724638
7.03035e-05
-0.00669173
0.000131584
-0.00624024
0.000214023
-0.00587742
0.00031828
-0.00559073
0.000444708
-0.00536943
0.000593428
-0.00520427
0.000764376
-0.00508728
0.000957344
-0.00501162
0.00117201
-0.00497137
0.00140798
-0.00496143
0.00166478
-0.00497738
0.00194189
-0.00501541
0.00223877
-0.00507223
0.00255488
-0.00514498
0.00288968
-0.00523119
0.00324269
-0.00532872
0.00361352
-0.0054357
0.00400189
-0.00555049
0.00440772
-0.00567156
0.00483116
-0.0057975
0.00527264
-0.00592682
0.00573295
-0.00605782
0.00621316
-0.00618843
0.0067146
-0.0063159
0.00723862
-0.00643658
0.00778619
-0.00654559
0.0083574
-0.00663637
-0.00670043
0.00895069
7.75797e-06
-0.00792909
3.41338e-05
-0.00727276
8.124e-05
-0.00673883
0.000150469
-0.00630947
0.000242716
-0.00596967
0.000358501
-0.00570652
0.000498058
-0.00550899
0.000661395
-0.0053676
0.000848344
-0.00527423
0.0010586
-0.00522188
0.00129174
-0.00520451
0.00154726
-0.00521695
0.00182458
-0.0052547
0.00212307
-0.0053139
0.00244206
-0.00539122
0.00278085
-0.00548377
0.00313873
-0.00558907
0.00351501
-0.00570501
0.00390907
-0.00582976
0.00432036
-0.00596178
0.00474852
-0.00609973
0.00519343
-0.00624241
0.00565532
-0.0063887
0.00613486
-0.00653736
0.00663328
-0.00668684
0.00715232
-0.00683493
0.00769413
-0.00697838
0.00826087
-0.00711233
0.00885393
-0.00722943
-0.00731916
0.00947266
9.12502e-06
-0.00793821
3.94015e-05
-0.00730303
9.26817e-05
-0.00679211
0.000170142
-0.00638693
0.000272511
-0.00607203
0.000400169
-0.00583418
0.000553227
-0.00566205
0.000731584
-0.00554596
0.000934969
-0.00547762
0.00116298
-0.00544989
0.0014151
-0.00545664
0.00169074
-0.00549259
0.00198922
-0.00555318
0.00230981
-0.00563449
0.00265172
-0.00573313
0.00301412
-0.00584616
0.00339613
-0.00597108
0.00379688
-0.00610575
0.00421547
-0.00624835
0.00465106
-0.00639737
0.00510292
-0.00655159
0.00557051
-0.00671
0.00605362
-0.00687181
0.00655255
-0.00703629
0.0070683
-0.00720259
0.00760278
-0.00736942
0.00815888
-0.00753448
0.00874021
-0.00769366
0.00935018
-0.0078394
-0.00795868
0.00998969
1.05888e-05
-0.0079488
4.49613e-05
-0.0073374
0.000104636
-0.00685179
0.000190563
-0.00647286
0.000303302
-0.00618477
0.000443101
-0.00597398
0.000609948
-0.00582889
0.000803631
-0.00573964
0.00102378
-0.00569777
0.0012699
-0.005696
0.00154139
-0.00572813
0.00183758
-0.00578877
0.0021577
-0.00587331
0.00250096
-0.00597775
0.00286648
-0.00609864
0.00325332
-0.006233
0.0036605
-0.00637827
0.00408698
-0.00653223
0.00453165
-0.00669303
0.0049934
-0.00685912
0.0054711
-0.00702928
0.00596368
-0.00720259
0.00647031
-0.00737844
0.00699053
-0.00755651
0.00752463
-0.0077367
0.00807405
-0.00791883
0.0086418
-0.00810223
0.00923286
-0.00828472
0.00985348
-0.00846003
-0.00861252
0.0105073
1.22175e-05
-0.00796102
5.08947e-05
-0.00737608
0.000117134
-0.00691803
0.000211684
-0.00656741
0.00033496
-0.00630805
0.000487077
-0.00612609
0.0006679
-0.00600972
0.000877104
-0.00594885
0.00111421
-0.00593488
0.00137864
-0.00596043
0.00166971
-0.0060192
0.00198667
-0.00610573
0.00232871
-0.00621535
0.00269497
-0.00634401
0.00308453
-0.0064882
0.00349642
-0.00664489
0.00392959
-0.00681144
0.00438295
-0.00698558
0.00485529
-0.00716537
0.00534532
-0.00734915
0.00585164
-0.0075356
0.00637275
-0.00772369
0.0069071
-0.00791279
0.00745327
-0.00810268
0.00801022
-0.00829365
0.00857787
-0.00848648
0.00915796
-0.00868232
0.0097554
-0.00888216
0.0103794
-0.00908404
-0.00927493
0.0110418
1.42342e-05
-0.00797525
5.74003e-05
-0.00741925
0.000130242
-0.00699087
0.000233451
-0.00667062
0.000367325
-0.00644192
0.000531837
-0.0062906
0.000726714
-0.0062046
0.000951504
-0.00617364
0.00120562
-0.00618899
0.00148838
-0.00624319
0.00179903
-0.00632984
0.00213675
-0.00644345
0.00250068
-0.00657929
0.00288993
-0.00673327
0.00330359
-0.00690186
0.00374068
-0.00708198
0.00420021
-0.00727097
0.00468114
-0.0074665
0.00518232
-0.00766655
0.00570254
-0.00786937
0.00624042
-0.00807347
0.00679436
-0.00827764
0.00736251
-0.00848094
0.00794269
-0.00868286
0.00853242
-0.00888339
0.00912928
-0.00908334
0.00973163
-0.00928467
0.0103406
-0.00949116
0.0109657
-0.00970912
-0.00995108
0.0116419
1.74495e-05
-0.0079927
6.4863e-05
-0.00746666
0.000144018
-0.00707002
0.000255752
-0.00678235
0.000400178
-0.00658635
0.000577066
-0.00646749
0.00078597
-0.0064135
0.00102629
-0.00641395
0.0012973
-0.00646001
0.00159823
-0.00654412
0.00192822
-0.00665983
0.00228639
-0.00680162
0.00267184
-0.00696474
0.00308367
-0.00714509
0.00352095
-0.00733914
0.00398279
-0.00754382
0.00446828
-0.00775647
0.00497656
-0.00797478
0.00550674
-0.00819674
0.00605797
-0.0084206
0.00662934
-0.00864485
0.00721993
-0.00886822
0.00782862
-0.00908964
0.00845407
-0.0093083
0.00909444
-0.00952376
0.00974726
-0.00973617
0.0104092
-0.00994657
0.0110749
-0.0101569
0.01174
-0.0103743
-0.0106213
0.0124103
0.00899531
4.63414e-05
-0.00904165
0.00894991
4.54006e-05
0.00890479
4.51133e-05
0.00885983
4.49655e-05
0.00881503
4.47976e-05
0.00877048
4.4553e-05
0.00872627
4.42086e-05
0.00868251
4.37577e-05
0.00863931
4.32016e-05
0.00859676
4.25458e-05
0.00855497
4.17957e-05
0.00851401
4.09562e-05
0.00847398
4.00328e-05
0.00843495
3.90308e-05
0.00839699
3.79563e-05
0.00836018
3.6815e-05
0.00832456
3.56128e-05
0.00829021
3.43553e-05
0.00825716
3.30477e-05
0.00822547
3.1695e-05
0.00819516
3.03022e-05
0.00816629
2.88737e-05
0.00813888
2.7414e-05
0.00811295
2.59272e-05
0.00808853
2.44156e-05
0.00806566
2.2876e-05
0.00804437
2.12897e-05
0.00802477
1.95972e-05
0.00800718
1.75914e-05
1.44756e-05
0.0102933
0.00016559
-0.0104125
0.0101728
0.000165834
0.0100518
0.00016619
0.00993032
0.000166407
0.00980878
0.000166337
0.00968742
0.00016591
0.00956654
0.000165089
0.00944644
0.000163865
0.0093274
0.000162243
0.00920971
0.000160236
0.00909364
0.00015786
0.00897947
0.000155131
0.00886743
0.000152069
0.00875777
0.000148692
0.0086507
0.000145021
0.00854644
0.000141076
0.00844518
0.000136878
0.00834709
0.000132446
0.00825234
0.000127799
0.00816107
0.000122957
0.00807344
0.000117935
0.00798957
0.00011275
0.00790956
0.000107417
0.00783354
0.000101949
0.0077616
9.63533e-05
0.00769385
9.0627e-05
0.0076304
8.4743e-05
0.00757137
7.86254e-05
0.00751688
7.20792e-05
6.46968e-05
0.0115571
0.000345655
-0.0117371
0.0113742
0.000348708
0.0111893
0.000351084
0.011003
0.000352719
0.0108158
0.000353539
0.0106282
0.000353498
0.0104407
0.000352571
0.0102538
0.000350755
0.010068
0.000348064
0.00988373
0.000344525
0.00970142
0.000340168
0.00952152
0.000335025
0.00934446
0.000329134
0.00917062
0.000322534
0.00900037
0.000315265
0.00883408
0.00030737
0.00867207
0.000298891
0.00851464
0.000289868
0.0083621
0.000280341
0.00821471
0.000270348
0.00807272
0.000259925
0.00793637
0.000249106
0.00780586
0.000237923
0.00768141
0.000226404
0.00756319
0.000214572
0.00745137
0.000202439
0.00734612
0.000189999
0.00724753
0.000177215
0.0071556
0.000164007
0.000150275
0.0127769
0.000575718
-0.0130069
0.0125424
0.00058319
0.0123043
0.000589132
0.0120635
0.000593552
0.0118206
0.000596428
0.0115764
0.000597745
0.0113314
0.000597495
0.0110865
0.000595693
0.0108422
0.000592366
0.0105992
0.000587555
0.010358
0.000581308
0.0101194
0.000573677
0.00988379
0.000564722
0.00965182
0.000554505
0.00942399
0.000543094
0.0092008
0.000530556
0.00898273
0.000516959
0.00877023
0.00050237
0.00856372
0.000486854
0.00836359
0.000470475
0.00817022
0.000453294
0.00798396
0.000435367
0.00780513
0.00041675
0.00763404
0.000397496
0.00747096
0.000377651
0.00731614
0.000357259
0.00716979
0.000336353
0.00703204
0.000314962
0.00690294
0.000293109
0.000270861
0.0139444
0.000845957
-0.0142147
0.013668
0.000859616
0.0133863
0.000870829
0.0131002
0.000879619
0.0128107
0.000885988
0.0125185
0.000889939
0.0122245
0.000891484
0.0119295
0.000890649
0.0116344
0.000887479
0.0113399
0.000882031
0.0110469
0.000874369
0.010756
0.000864568
0.010468
0.000852711
0.0101836
0.000838887
0.00990352
0.00082319
0.00962836
0.000805716
0.00935875
0.000786564
0.00909529
0.000765829
0.00883854
0.000743608
0.00858902
0.000719992
0.00834725
0.00069507
0.00811368
0.000668928
0.00788878
0.000641651
0.00767296
0.000613321
0.00746659
0.000584018
0.00727002
0.000553827
0.00708354
0.000522835
0.00690737
0.000491136
0.00674163
0.000458848
0.000426139
0.0150534
0.00114758
-0.015355
0.0147436
0.00116932
0.0144268
0.00118764
0.0141039
0.00120255
0.0137759
0.00121404
0.0134437
0.00122214
0.0131083
0.00122685
0.0127707
0.00122822
0.0124319
0.0012263
0.0120928
0.00122116
0.0117542
0.00121289
0.0114172
0.00120157
0.0110826
0.00118732
0.0107513
0.00117025
0.010424
0.00115048
0.0101016
0.00112814
0.00978477
0.00110335
0.00947436
0.00107625
0.00917101
0.00104695
0.0088754
0.0010156
0.00858817
0.000982299
0.00830993
0.000947172
0.00804125
0.000910334
0.00778267
0.000871901
0.00753469
0.000831995
0.00729777
0.000790745
0.00707231
0.000748296
0.00685863
0.000704816
0.00665697
0.000660505
0.000615621
0.0160989
0.00147274
-0.0164241
0.0157637
0.00150454
0.0154195
0.00153189
0.0150673
0.00155477
0.0147081
0.00157317
0.0143432
0.00158708
0.0139735
0.00159654
0.0136001
0.00160157
0.0132242
0.00160223
0.0128468
0.00159862
0.0124688
0.00159081
0.0120915
0.00157892
0.0117157
0.00156308
0.0113426
0.00154343
0.0109729
0.00152011
0.0106078
0.00149328
0.010248
0.0014631
0.00989456
0.00142973
0.00954818
0.00139333
0.00920973
0.00135405
0.00887997
0.00131205
0.00855966
0.00126748
0.00824951
0.00122048
0.0079502
0.00117121
0.00766237
0.00111983
0.00738659
0.00106652
0.00712341
0.00101148
0.00687327
0.000954956
0.00663654
0.000897236
0.000838664
0.017078
0.00181448
-0.0174197
0.0167242
0.00185834
0.0163594
0.00189668
0.0159847
0.00192946
0.0156012
0.00195662
0.0152102
0.00197816
0.0148126
0.00199406
0.0144098
0.00200438
0.0140029
0.00200916
0.013593
0.00200848
0.0131814
0.00200244
0.0127692
0.00199117
0.0123574
0.0019748
0.0119474
0.00195349
0.0115401
0.00192743
0.0111366
0.00189678
0.0107379
0.00186174
0.0103452
0.0018225
0.00995924
0.00177924
0.00958113
0.00173216
0.00921174
0.00168144
0.00885198
0.00162725
0.00850268
0.00156978
0.00816469
0.0015092
0.00783879
0.00144573
0.00752571
0.0013796
0.00722613
0.00131106
0.00694066
0.00124043
0.0066698
0.0011681
0.00109451
0.0179886
0.00216669
-0.0183408
0.0176224
0.00222456
0.0172432
0.00227586
0.0168522
0.00232047
0.0164505
0.00235831
0.0160393
0.00238932
0.0156199
0.0024135
0.0151934
0.00243085
0.0147612
0.0024414
0.0143244
0.00244524
0.0138844
0.00244245
0.0134424
0.00243317
0.0129996
0.00241755
0.0125574
0.00239575
0.0121168
0.00236798
0.0116792
0.00233443
0.0112456
0.00229533
0.0108172
0.00225087
0.0103951
0.00220129
0.00998052
0.0021468
0.00957436
0.00208759
0.00917772
0.00202389
0.0087916
0.00195589
0.00841699
0.00188382
0.00805483
0.00180789
0.00770603
0.0017284
0.00737143
0.00164566
0.0070518
0.00156006
0.00674781
0.00147209
0.0013823
0.0188301
0.002524
-0.0191874
0.0184568
0.0025978
0.0180687
0.00266396
0.0176669
0.00272232
0.0172524
0.00277274
0.0168266
0.00281514
0.0163907
0.00284944
0.0159459
0.00287563
0.0154936
0.00289372
0.0150351
0.00290377
0.0145717
0.00290586
0.0141047
0.00290011
0.0136356
0.00288668
0.0131656
0.00286574
0.0126961
0.00283751
0.0122283
0.0028022
0.0117636
0.00276004
0.0113032
0.00271127
0.0108483
0.00265614
0.0104003
0.00259487
0.00996017
0.0025277
0.00952922
0.00245484
0.00910858
0.00237653
0.0086994
0.00229299
0.0083028
0.0022045
0.00791986
0.00211134
0.00755162
0.0020139
0.00719904
0.00191265
0.00686296
0.00180816
0.00170115
0.0196028
0.0028818
-0.0199606
0.0192272
0.00297332
0.018835
0.00305618
0.0184272
0.00313015
0.0180049
0.00319503
0.0175694
0.00325068
0.0171218
0.00329697
0.0166636
0.00333385
0.016196
0.00336129
0.0157205
0.00337932
0.0152383
0.00338801
0.014751
0.00338745
0.0142599
0.00337779
0.0137664
0.00335922
0.013272
0.00333194
0.012778
0.00329618
0.0122859
0.00325219
0.0117969
0.00320022
0.0113125
0.00314053
0.010834
0.00307337
0.0103627
0.00299897
0.00990001
0.00291757
0.00944713
0.0028294
0.00900543
0.0027347
0.00857619
0.00263373
0.00816071
0.00252682
0.00776021
0.00241439
0.00737588
0.00229697
0.00700879
0.00217526
0.0020501
0.0203078
0.00323613
-0.0206621
0.0199341
0.00334705
0.0195419
0.00344834
0.0191324
0.00353969
0.0187066
0.00362083
0.0182657
0.00369155
0.017811
0.00375167
0.0173438
0.00380108
0.0168654
0.0038397
0.0163772
0.00386753
0.0158806
0.00388458
0.0153771
0.00389095
0.0148681
0.00388675
0.0143552
0.00387216
0.0138398
0.00384739
0.0133233
0.00381266
0.0128072
0.00376823
0.0122931
0.00371435
0.0117823
0.0036513
0.0112764
0.00357933
0.0107767
0.00349868
0.0102847
0.00340958