/*--------------------------------*- C++ -*----------------------------------*\
  =========                 |
  \\      /  F ield         | OpenFOAM: The Open Source CFD Toolbox
   \\    /   O peration     | Website:  https://openfoam.org
    \\  /    A nd           | Version:  6.0
     \\/     M anipulation  |
\*---------------------------------------------------------------------------*/
FoamFile
{
    version     2.0;
    format      ascii;
    class       surfaceScalarField;
    location    "5.0015";
    object      phi;
}
// * * * * * * * * * * * * * * * * * * * * * * * * * * * * * * * * * * * * * //

dimensions      [0 3 -1 0 0 0 0];

internalField   nonuniform List<scalar> 
38030
(
2.52449e-05
-0.0798369
0.0798117
0.000131639
-0.0742018
0.0740954
0.000312606
-0.0695965
0.0694155
0.000561723
-0.0658235
0.0655744
0.000872679
-0.0627178
0.0624068
0.00123859
-0.0601421
0.0597762
0.00165234
-0.0579852
0.0575714
0.00210693
-0.0561576
0.0557031
0.00259562
-0.0545879
0.0540992
0.00311212
-0.0532191
0.0527026
0.00365061
-0.0520061
0.0514676
0.00420583
-0.0509135
0.0503582
0.00477308
-0.0499134
0.0493461
0.00534821
-0.0489842
0.0484091
0.0059276
-0.048109
0.0475296
0.00650814
-0.0472749
0.0466944
0.0070872
-0.0464721
0.045893
0.00766258
-0.0456928
0.0451175
0.0082325
-0.0449316
0.0443617
0.00879551
-0.0441842
0.0436212
0.00935051
-0.0434474
0.0428924
0.00989665
-0.0427187
0.0421725
0.0104333
-0.0419963
0.0414596
0.0109601
-0.0412787
0.0407519
0.0114767
-0.0405645
0.0400478
0.011983
-0.0398525
0.0393462
0.0124788
-0.0391416
0.0386458
0.0129639
-0.0384307
0.0379456
0.0134381
-0.0377185
0.0372443
-0.0370032
0.0365403
0.0139009
3.30283e-05
-0.07987
0.000142668
-0.0743115
0.000327427
-0.0697813
0.000581627
-0.0660777
0.000898498
-0.0630346
0.00127072
-0.0605143
0.00169083
-0.0584053
0.00215152
-0.0566183
0.00264585
-0.0550822
0.00316734
-0.0537406
0.00371008
-0.0525488
0.00426872
-0.0514721
0.00483852
-0.0504832
0.00541529
-0.049561
0.00599542
-0.0486892
0.00657584
-0.0478554
0.00715394
-0.0470502
0.00772759
-0.0462665
0.00829506
-0.0454991
0.00885498
-0.0447441
0.00940633
-0.0439987
0.00994833
-0.0432607
0.0104805
-0.0425285
0.0110024
-0.0418006
0.011514
-0.0410761
0.0120152
-0.0403536
0.0125058
-0.0396322
0.0129858
-0.0389107
0.0134551
-0.0381878
-0.0374615
0.0139134
3.64139e-05
-0.0799064
0.000150481
-0.0744255
0.000340242
-0.069971
0.000600152
-0.0663376
0.000923193
-0.0633577
0.00130174
-0.0608928
0.00172807
-0.0588316
0.00219462
-0.0570849
0.00269426
-0.0555819
0.00322037
-0.0542667
0.00376694
-0.0530954
0.00432854
-0.0520337
0.00490038
-0.051055
0.00547829
-0.0501389
0.00605865
-0.0492695
0.00663842
-0.0484351
0.00721506
-0.0476268
0.00778647
-0.0468379
0.00835099
-0.0460636
0.00890734
-0.0453005
0.00945457
-0.0445459
0.00999201
-0.0437981
0.0105192
-0.0430557
0.011036
-0.0423174
0.0115422
-0.0415823
0.0120379
-0.0408493
0.0125231
-0.0401174
0.0129978
-0.0393855
0.013462
-0.038652
-0.037915
0.0139155
3.86943e-05
-0.0799451
0.000156962
-0.0745438
0.000351907
-0.070166
0.000617662
-0.0666034
0.000946896
-0.0636869
0.00133169
-0.0612776
0.00176403
-0.059264
0.00223617
-0.057557
0.00274079
-0.0560865
0.00327114
-0.054797
0.00382109
-0.0536453
0.00438518
-0.0525978
0.00495858
-0.0516284
0.00553711
-0.0507174
0.00611719
-0.0498496
0.0066958
-0.0490137
0.00727044
-0.0482014
0.00783911
-0.0474066
0.0084002
-0.0466247
0.00895251
-0.0458528
0.00949518
-0.0450886
0.0100276
-0.0443306
0.0105495
-0.0435775
0.0110607
-0.0428286
0.0115612
-0.0420828
0.0120511
-0.0413392
0.0125306
-0.0405969
0.0129998
-0.0398546
0.0134587
-0.0391109
-0.0383635
0.0139072
4.05598e-05
-0.0799856
0.000162765
-0.074666
0.000362826
-0.070366
0.000634375
-0.0668749
0.000969704
-0.0640222
0.00136057
-0.0616685
0.00179871
-0.0597021
0.00227614
-0.0580345
0.00278537
-0.0565957
0.00331954
-0.0553312
0.00387244
-0.0541982
0.00443853
-0.0531639
0.00501299
-0.0522029
0.00559163
-0.051296
0.00617091
-0.0504289
0.00674783
-0.0495907
0.00731997
-0.0487736
0.00788539
-0.047972
0.00844256
-0.0471819
0.00899037
-0.0464006
0.00952805
-0.0456263
0.0100551
-0.0448576
0.0105713
-0.0440937
0.0110765
-0.0433338
0.011571
-0.0425773
0.0120549
-0.0418231
0.0125284
-0.0410704
0.0129918
-0.040318
0.0134452
-0.0395643
-0.038807
0.0138887
4.2225e-05
-0.0800279
0.000168167
-0.074792
0.000373206
-0.0705711
0.00065042
-0.0671522
0.000991681
-0.0643635
0.00138841
-0.0620652
0.00183206
-0.0601457
0.00231445
-0.0585168
0.00282793
-0.0571092
0.0033655
-0.0558688
0.00392087
-0.0547536
0.00448849
-0.0537315
0.0050635
-0.0527779
0.00564173
-0.0518743
0.00621967
-0.0510068
0.00679439
-0.0501654
0.00736352
-0.0493427
0.00792518
-0.0485336
0.00847796
-0.0477347
0.00902081
-0.0469435
0.00955306
-0.0461585
0.0100743
-0.0453789
0.0105844
-0.0446038
0.0110834
-0.0438329
0.0115715
-0.0430654
0.0120491
-0.0423007
0.0125164
-0.0415378
0.0129739
-0.0407755
0.0134217
-0.0400121
-0.0392452
0.0138599
4.37805e-05
-0.0800716
0.000173299
-0.0749215
0.000383161
-0.0707809
0.000665872
-0.0674349
0.00101286
-0.0647105
0.0014152
-0.0624676
0.00186407
-0.0605946
0.00235107
-0.0590038
0.00286839
-0.0576265
0.00340892
-0.0564093
0.0039663
-0.055311
0.00453494
-0.0543001
0.00510999
-0.0533529
0.00568729
-0.0524516
0.00626337
-0.0515829
0.00683536
-0.0507374
0.00740096
-0.0499083
0.00795837
-0.0490911
0.00850627
-0.0482826
0.0090437
-0.0474809
0.00957008
-0.0466849
0.0100851
-0.0458939
0.0105888
-0.0451075
0.0110812
-0.0443253
0.0115627
-0.0435469
0.0120337
-0.0427717
0.0124947
-0.0419987
0.012946
-0.0412268
0.0133879
-0.0404541
-0.0396781
0.0138209
4.52638e-05
-0.0801169
0.000178228
-0.0750544
0.000392755
-0.0709955
0.000680773
-0.0677229
0.00103327
-0.065063
0.00144095
-0.0628752
0.00189471
-0.0610484
0.00238595
-0.0594951
0.0029067
-0.0581473
0.00344973
-0.0569523
0.00400864
-0.0558699
0.0045778
-0.0548693
0.00515236
-0.0539275
0.0057282
-0.0530274
0.00630189
-0.0521566
0.00687063
-0.0513061
0.00743219
-0.0504699
0.00798486
-0.0496437
0.0085274
-0.0488251
0.00905896
-0.0480125
0.00957905
-0.047205
0.0100875
-0.0464023
0.0105843
-0.0456043
0.0110699
-0.0448108
0.0115445
-0.0440215
0.0120087
-0.0432359
0.012463
-0.042453
0.012908
-0.0416718
0.013344
-0.0408901
-0.0401056
0.0137715
4.66959e-05
-0.0801636
0.000182988
-0.0751907
0.00040202
-0.0712145
0.000695149
-0.068016
0.0010529
-0.0654207
0.00146563
-0.063288
0.00192396
-0.0615067
0.00241905
-0.0599902
0.00294279
-0.058671
0.00348787
-0.0574974
0.00404781
-0.0564298
0.00461697
-0.0554385
0.00519051
-0.054501
0.00576436
-0.0536013
0.00633513
-0.0527274
0.00690009
-0.0518711
0.00745711
-0.0510269
0.00800455
-0.0501912
0.00854127
-0.0493618
0.00906652
-0.0485377
0.00957991
-0.0477184
0.0100814
-0.0469038
0.0105711
-0.046094
0.0110494
-0.0452891
0.0115168
-0.0444889
0.0119739
-0.043693
0.0124214
-0.0429005
0.0128599
-0.0421102
0.0132899
-0.0413202
-0.0405275
0.0137118
4.80838e-05
-0.0802117
0.000187597
-0.0753302
0.000410976
-0.0714379
0.00070901
-0.068314
0.00107177
-0.0657835
0.00148925
-0.0637054
0.00195178
-0.0619692
0.00245032
-0.0604887
0.00297662
-0.0591973
0.00352326
-0.058044
0.00408373
-0.0569903
0.00465237
-0.0560071
0.00522436
-0.055073
0.00579568
-0.0541726
0.006363
-0.0532947
0.00692367
-0.0524318
0.00747563
-0.0515788
0.00801736
-0.0507329
0.00854779
-0.0498923
0.0090663
-0.0490562
0.00957259
-0.0482247
0.0100667
-0.0473979
0.0105489
-0.0465762
0.0110196
-0.0457599
0.0114795
-0.0449488
0.0119294
-0.0441428
0.0123698
-0.043341
0.0128016
-0.0425421
0.0132255
-0.041744
-0.0409439
0.0136418
4.94325e-05
-0.0802611
0.000192063
-0.0754729
0.000419631
-0.0716654
0.000722361
-0.0686168
0.00108987
-0.066151
0.00151178
-0.0641274
0.00197815
-0.0624356
0.00247974
-0.0609903
0.00300814
-0.0597257
0.00355587
-0.0585918
0.00411635
-0.0575508
0.00468394
-0.0565747
0.00525385
-0.055643
0.00582209
-0.0547408
0.00638543
-0.053858
0.00694129
-0.0529876
0.00748769
-0.0521253
0.00802322
-0.0512684
0.00854691
-0.0504159
0.00905823
-0.0495675
0.00955699
-0.0487235
0.0100433
-0.0478843
0.0105177
-0.0470505
0.0109805
-0.0462227
0.0114327
-0.045401
0.011875
-0.0445851
0.0123082
-0.0437742
0.0127332
-0.0429671
0.0131507
-0.0421615
-0.0413546
0.0135613
5.07444e-05
-0.0803119
0.000196389
-0.0756185
0.000427988
-0.071897
0.000735202
-0.068924
0.00110719
-0.066523
0.00153322
-0.0645534
0.00200306
-0.0629055
0.00250728
-0.0614945
0.00303732
-0.0602558
0.00358563
-0.0591401
0.00414561
-0.0581108
0.00471162
-0.0571407
0.0052789
-0.0562102
0.00584354
-0.0553055
0.00640236
-0.0544168
0.00695289
-0.0535381
0.00749324
-0.0526656
0.00802208
-0.0517973
0.00853856
-0.0509324
0.00904226
-0.0500712
0.00953309
-0.0492143
0.0100113
-0.0483625
0.0104774
-0.0475166
0.0109321
-0.0466774
0.0113762
-0.0458451
0.0118106
-0.0450195
0.0122363
-0.0441999
0.0126543
-0.043385
0.0130654
-0.0425726
-0.0417594
0.0134702
5.20182e-05
-0.0803639
0.000200577
-0.0757671
0.000436047
-0.0721325
0.000747534
-0.0692355
0.00112373
-0.0668992
0.00155355
-0.0649832
0.00202649
-0.0633784
0.0025329
-0.0620009
0.00306412
-0.060787
0.00361252
-0.0596885
0.00417148
-0.0586697
0.00473537
-0.0577046
0.00529949
-0.0567744
0.00585998
-0.0558659
0.00641376
-0.0549706
0.00695843
-0.0540828
0.00749222
-0.0531994
0.0080139
-0.0523189
0.00852272
-0.0514413
0.00901836
-0.0505669
0.00950084
-0.0496968
0.00997053
-0.0488322
0.010428
-0.0479741
0.0108741
-0.0471235
0.0113098
-0.0462808
0.0117362
-0.0454458
0.0121542
-0.044618
0.012565
-0.0437958
0.0129694
-0.0429771
-0.0421583
0.0133683
5.32543e-05
-0.0804171
0.000204625
-0.0759184
0.000443811
-0.0723717
0.000759356
-0.069551
0.0011395
-0.0672793
0.00157278
-0.0654165
0.00204842
-0.0638541
0.0025566
-0.0625091
0.00308853
-0.0613189
0.00363651
-0.0602365
0.00419392
-0.0592271
0.00475515
-0.0582658
0.00531557
-0.0573348
0.00587138
-0.0564218
0.00641959
-0.0555188
0.0069579
-0.0546211
0.00748464
-0.0537261
0.00799868
-0.052833
0.00849939
-0.051942
0.00898653
-0.051054
0.00946025
-0.0501705
0.00992101
-0.0492929
0.0103695
-0.0484226
0.0108067
-0.0475607
0.0112337
-0.0467077
0.0116516
-0.0458637
0.0120617
-0.045028
0.012465
-0.0441991
0.0128627
-0.0433747
-0.0425512
0.0132555
5.44507e-05
-0.0804716
0.000208532
-0.0760725
0.000451278
-0.0726144
0.00077067
-0.0698704
0.00115449
-0.0676631
0.0015909
-0.0658529
0.00206886
-0.064332
0.00257837
-0.0630186
0.00311052
-0.0618511
0.00365758
-0.0607835
0.00421291
-0.0597825
0.00477096
-0.0588239
0.00532714
-0.0578909
0.00587773
-0.0569724
0.00641985
-0.0560609
0.0069513
-0.0551526
0.0074705
-0.0542453
0.00797643
-0.0533389
0.00846857
-0.0524341
0.00894678
-0.0515322
0.00941132
-0.050635
0.00986274
-0.0497444
0.0103019
-0.0488618
0.0107298
-0.0479886
0.0111477
-0.0471256
0.0115569
-0.0462729
0.0119587
-0.0454298
0.0123543
-0.0445948
0.0127451
-0.0437655
-0.042938
0.0131319
5.56067e-05
-0.0805272
0.000212299
-0.0762292
0.000458452
-0.0728606
0.000781485
-0.0701935
0.0011687
-0.0680504
0.00160791
-0.0662921
0.00208781
-0.0648119
0.00259821
-0.063529
0.00313011
-0.062383
0.00367573
-0.0613291
0.00422847
-0.0603352
0.0047828
-0.0593782
0.0053342
-0.0584423
0.00587906
-0.0575172
0.00641457
-0.0565965
0.00693865
-0.0556766
0.00744983
-0.0547565
0.0079472
-0.0538363
0.00843031
-0.0529172
0.00889916
-0.0520011
0.00935409
-0.05109
0.00979576
-0.050186
0.0102251
-0.0492912
0.0106434
-0.0484069
0.0110518
-0.0475341
0.0114519
-0.046673
0.0118451
-0.045823
0.0122328
-0.0449826
0.0126164
-0.044149
-0.0433184
0.0129968
5.67194e-05
-0.0805839
0.000215925
-0.0763884
0.000465342
-0.07311
0.000791814
-0.0705199
0.00118217
-0.0684407
0.00162385
-0.0667338
0.00210528
-0.0652934
0.00261612
-0.0640399
0.00314728
-0.0629141
0.00369097
-0.0618728
0.00424059
-0.0608848
0.00479067
-0.0599283
0.00533677
-0.0589884
0.00587538
-0.0580558
0.00640379
-0.0571249
0.00692002
-0.0561929
0.00742271
-0.0552592
0.00791106
-0.0543246
0.00838471
-0.0533909
0.00884375
-0.0524601
0.00928864
-0.0515348
0.00972012
-0.0506175
0.0101393
-0.0497103
0.0105473
-0.048815
0.0109459
-0.0479326
0.0113364
-0.0470635
0.0117206
-0.0462072
0.0120999
-0.045362
0.012476
-0.044525
-0.0436922
0.0128497
5.77865e-05
-0.0806417
0.000219414
-0.0765501
0.000471959
-0.0733626
0.000801679
-0.0708496
0.00119491
-0.0688339
0.00163872
-0.0671776
0.00212129
-0.0657759
0.00263213
-0.0645507
0.00316208
-0.0634441
0.00370332
-0.0624141
0.0042493
-0.0614308
0.00479462
-0.0604736
0.00533492
-0.0595287
0.00586677
-0.0585877
0.00638759
-0.0576457
0.0068955
-0.0567008
0.00738925
-0.055753
0.00786813
-0.0548035
0.00833189
-0.0538546
0.00878071
-0.0529089
0.00921511
-0.0519693
0.00963595
-0.0510384
0.0100444
-0.0501187
0.0104418
-0.0492124
0.0108298
-0.0483206
0.0112102
-0.0474439
0.0115848
-0.0465817
0.0119552
-0.0457324
0.0123232
-0.044893
-0.044059
0.0126899
5.88068e-05
-0.0807005
0.000222773
-0.076714
0.000478327
-0.0736181
0.000811112
-0.0711824
0.00120696
-0.0692298
0.00165256
-0.0676232
0.00213588
-0.0662592
0.00264626
-0.0650611
0.00317451
-0.0639723
0.00371281
-0.0629524
0.00425465
-0.0619726
0.00479469
-0.0610136
0.00532868
-0.0600627
0.00585331
-0.0591123
0.00636607
-0.0581584
0.00686521
-0.0571999
0.00734959
-0.0562373
0.00781858
-0.0552725
0.00827204
-0.0543081
0.00871022
-0.0533471
0.00913371
-0.0523927
0.00954346
-0.0514481
0.00994069
-0.050516
0.0103269
-0.0495986
0.0107039
-0.0486976
0.0110735
-0.0478135
0.0114377
-0.046946
0.0117986
-0.0460933
0.0121579
-0.0452523
-0.0444182
0.0125172
5.97762e-05
-0.0807603
0.000226015
-0.0768803
0.00048448
-0.0738766
0.000820161
-0.0715181
0.00121836
-0.069628
0.00166542
-0.0680703
0.00214907
-0.0667429
0.00265854
-0.0655705
0.00318461
-0.0644984
0.00371947
-0.0634872
0.00425667
-0.0625098
0.00479096
-0.0615479
0.00531816
-0.0605899
0.00583509
-0.0596292
0.00633936
-0.0586627
0.00682932
-0.0576899
0.00730392
-0.0567119
0.00776265
-0.0557312
0.00820543
-0.0547509
0.00863258
-0.0537742
0.00904476
-0.0528049
0.00944297
-0.0518463
0.00982851
-0.0509015
0.010203
-0.049973
0.0105682
-0.0490628
0.0109263
-0.0481716
0.0112795
-0.0472992
0.01163
-0.0464439
0.01198
-0.0456023
-0.0447692
0.012331
6.06941e-05
-0.080821
0.000229165
-0.0770487
0.00049047
-0.0741379
0.000828891
-0.0718565
0.00122919
-0.0700283
0.00167736
-0.0685184
0.00216091
-0.0672264
0.00266902
-0.0660787
0.00319242
-0.0650218
0.00372336
-0.0640182
0.00425543
-0.0630419
0.00478348
-0.062076
0.00530346
-0.0611099
0.00581225
-0.060138
0.00630762
-0.0591581
0.00678801
-0.0581703
0.00725248
-0.0571764
0.00770059
-0.0561794
0.00813236
-0.0551826
0.00854815
-0.05419
0.00894866
-0.0532054
0.00933493
-0.0522326
0.00970829
-0.0512749
0.0100704
-0.0503351
0.0104232
-0.0494156
0.010769
-0.0485174
0.0111102
-0.0476404
0.0114495
-0.0467831
0.0117891
-0.0459419
-0.0451111
0.012131
6.15633e-05
-0.0808825
0.000232267
-0.0772194
0.000496378
-0.074402
0.000837392
-0.0721975
0.00123952
-0.0704304
0.00168842
-0.0689673
0.00217146
-0.0677095
0.00267773
-0.0665849
0.00319798
-0.065542
0.00372451
-0.0645447
0.00425099
-0.0635684
0.00477236
-0.0625974
0.00528467
-0.0616222
0.00578494
-0.0606383
0.00627103
-0.0596442
0.00674151
-0.0586407
0.00719553
-0.0576304
0.00763275
-0.0566166
0.00805323
-0.0556031
0.00845738
-0.0545942
0.00884593
-0.053594
0.00921992
-0.0526066
0.00958066
-0.0516356
0.00992986
-0.0506843
0.0102695
-0.0497553
0.0106021
-0.04885
0.0109303
-0.0479686
0.011257
-0.0471098
0.011585
-0.0462699
-0.0454428
0.0119167
6.24009e-05
-0.0809449
0.000235402
-0.0773924
0.000502325
-0.0746689
0.000845785
-0.072541
0.00124944
-0.0708341
0.00169868
-0.0694166
0.00218075
-0.0681915
0.00268471
-0.0670889
0.00320134
-0.0660587
0.00372298
-0.0650663
0.00424341
-0.0640888
0.00475767
-0.0631116
0.00526191
-0.0621265
0.00575329
-0.0611297
0.00622979
-0.0601207
0.00669007
-0.059101
0.00713339
-0.0580737
0.00755949
-0.0570427
0.00796849
-0.0560121
0.00836082
-0.0549865
0.00873721
-0.0539704
0.00909867
-0.052968
0.00944648
-0.0519834
0.00978227
-0.0510201
0.0101081
-0.0500811
0.0104265
-0.0491683
0.0107403
-0.0482825
0.011053
-0.0474225
0.0113678
-0.0465847
-0.0457626
0.0116876
6.32499e-05
-0.0810082
0.00023871
-0.0775679
0.00050849
-0.0749387
0.000854224
-0.0728867
0.00125908
-0.0712389
0.00170822
-0.0698657
0.00218883
-0.0686722
0.00268999
-0.06759
0.00320251
-0.0665712
0.00371881
-0.0655826
0.00423276
-0.0646028
0.00473949
-0.0636183
0.00523531
-0.0626223
0.00571747
-0.0616118
0.00618408
-0.0605873
0.00663393
-0.0595509
0.00706638
-0.0585062
0.00748122
-0.0574575
0.00787864
-0.0564095
0.00825909
-0.055367
0.00862327
-0.0543346
0.00897211
-0.0533169
0.00930681
-0.0523181
0.00962889
-0.0513422
0.00994028
-0.0503925
0.0102435
-0.0494715
0.0105416
-0.0485806
0.0108385
-0.0477193
0.011138
-0.0468843
-0.0460684
0.0114437
6.4227e-05
-0.0810724
0.000242439
-0.0777461
0.000515131
-0.0752114
0.000862905
-0.0732345
0.00126853
-0.0716446
0.00171708
-0.0703142
0.00219573
-0.0691508
0.00269358
-0.0680879
0.00320152
-0.0670791
0.00371203
-0.0660932
0.00421906
-0.0651098
0.0047179
-0.0641172
0.00520495
-0.0631093
0.00567761
-0.0620845
0.00613411
-0.0610438
0.00657336
-0.0599901
0.00699481
-0.0589276
0.00739835
-0.0578611
0.00778421
-0.0567954
0.00815285
-0.0557356
0.00850494
-0.0546867
0.00884132
-0.0536532
0.00916301
-0.0526398
0.00947133
-0.0516505
0.00976798
-0.0506891
0.0100553
-0.0497588
0.0103364
-0.0488617
0.0106153
-0.0479982
0.0108969
-0.0471659
-0.0463573
0.0111859
6.55904e-05
-0.081138
0.000247007
-0.0779275
0.000522603
-0.075487
0.000872045
-0.073584
0.00127792
-0.0720504
0.00172531
-0.0707616
0.00220145
-0.0696269
0.00269549
-0.0685819
0.00319836
-0.067582
0.00370263
-0.0665974
0.00420236
-0.0656095
0.00469294
-0.0646078
0.00517092
-0.0635873
0.00563382
-0.0625474
0.00608002
-0.06149
0.00650855
-0.0604186
0.00691897
-0.0593381
0.00731126
-0.0582534
0.0076857
-0.0571698
0.00804277
-0.0560927
0.00838311
-0.055027
0.00870745
-0.0539776
0.00901663
-0.052949
0.00931164
-0.0519455
0.00959379
-0.0509713
0.00986497
-0.05003
0.010128
-0.0491247
0.010387
-0.0482573
0.0106477
-0.0474266
-0.0466259
0.0109163
6.78416e-05
-0.0812058
0.000253036
-0.0781127
0.000531336
-0.0757653
0.000881862
-0.0739345
0.00128731
-0.0724559
0.00173291
-0.0712072
0.00220597
-0.0701
0.00269568
-0.0690716
0.00319301
-0.0680793
0.00369061
-0.067095
0.00418265
-0.0661016
0.00466463
-0.0650897
0.00513325
-0.0640559
0.00558618
-0.0630003
0.00602193
-0.0619257
0.00643967
-0.0608364
0.00683908
-0.0597375
0.00722024
-0.0586345
0.00758351
-0.0575331
0.00792942
-0.0564386
0.00825857
-0.0553562
0.00857163
-0.0542906
0.00886923
-0.0532466
0.00915203
-0.0522283
0.00942081
-0.0512401
0.0096767
-0.0502859
0.00992169
-0.0493697
0.0101594
-0.0484949
0.0103959
-0.0476631
-0.0468697
0.0106398
7.19128e-05
-0.0812778
0.000261493
-0.0783023
0.000541875
-0.0760457
0.000892553
-0.0742852
0.00129672
-0.07286
0.00173983
-0.0716503
0.00220921
-0.0705694
0.00269407
-0.0695565
0.0031854
-0.0685707
0.00367592
-0.0675855
0.00415989
-0.0665855
0.00463295
-0.0655628
0.00509194
-0.0645149
0.0055347
-0.0634431
0.00595987
-0.0623509
0.00636677
-0.0612433
0.00675524
-0.0601259
0.00712546
-0.0590047
0.00747789
-0.0578855
0.00781314
-0.0567738
0.00813186
-0.0556749
0.00843468
-0.0545935
0.00872212
-0.053534
0.00899455
-0.0525008
0.00925218
-0.0514977
0.00949519
-0.0505289
0.00972412
-0.0495986
0.00994068
-0.0487115
0.0101501
-0.0478725
-0.0470841
0.0103644
8.02585e-05
-0.081358
0.000274369
-0.0784964
0.000555021
-0.0763263
0.00090425
-0.0746344
0.00130605
-0.0732618
0.0017459
-0.0720902
0.00221103
-0.0710345
0.00269054
-0.070036
0.00317543
-0.0690556
0.00365846
-0.0680686
0.00413401
-0.0670611
0.00459784
-0.0660266
0.00504695
-0.064964
0.00547933
-0.0638755
0.0058938
-0.0627654
0.00628983
-0.0616393
0.00666741
-0.0605035
0.00702687
-0.0593642
0.0073688
-0.0582275
0.00769395
-0.057099
0.00800308
-0.055984
0.00829692
-0.0548873
0.00857604
-0.0538131
0.00884073
-0.0527655
0.00909085
-0.0517478
0.00932576
-0.0507638
0.00954407
-0.0498169
0.00974351
-0.0489109
0.00992473
-0.0480537
-0.047265
0.0101057
0.000100658
-0.0814587
0.000294629
-0.0786904
0.00057104
-0.0766027
0.000916538
-0.0749799
0.00131485
-0.0736602
0.00175079
-0.0725261
0.00221117
-0.0714949
0.00268492
-0.0705098
0.00316297
-0.0695336
0.00363814
-0.0685437
0.00410492
-0.0675279
0.00455922
-0.0664809
0.00499818
-0.065403
0.00541998
-0.0642973
0.0058236
-0.063169
0.00620869
-0.0620244
0.00657539
-0.0608702
0.0069242
-0.059713
0.00725588
-0.0585591
0.00757136
-0.0574145
0.00787162
-0.0562843
0.00815767
-0.0551733
0.00843043
-0.0540859
0.00869068
-0.0530257
0.00893887
-0.051996
0.00917484
-0.0509998
0.00939679
-0.0500389
0.00959769
-0.0491118
0.00976249
-0.0482185
-0.0473925
0.00988992
0.0834317
7.86912e-05
-0.0835103
0.0833636
6.80557e-05
0.083299
6.462e-05
0.0832352
6.37571e-05
0.0831712
6.39803e-05
0.0831065
6.47043e-05
0.0830409
6.56187e-05
0.0829744
6.6566e-05
0.0829069
6.74781e-05
0.0828385
6.8326e-05
0.0827695
6.90915e-05
0.0826997
6.97575e-05
0.0826294
7.03201e-05
0.0825586
7.07883e-05
0.0824874
7.11666e-05
0.082416
7.14562e-05
0.0823443
7.16597e-05
0.0822725
7.17786e-05
0.0822007
7.18117e-05
0.082129
7.17604e-05
0.0820573
7.16221e-05
0.0819859
7.1392e-05
0.0819149
7.10584e-05
0.0818443
7.06051e-05
0.0817743
6.99951e-05
0.0817051
6.9155e-05
0.0816372
6.79245e-05
0.0815713
6.59304e-05
0.0815093
6.20032e-05
5.06041e-05
0.0836725
0.000218915
-0.0838127
0.0835271
0.00021348
0.0833794
0.000212316
0.0832295
0.000213666
0.0830771
0.000216319
0.0829222
0.000219674
0.0827644
0.000223357
0.0826039
0.000227119
0.0824405
0.000230825
0.0822745
0.000234384
0.0821058
0.000237718
0.0819348
0.000240784
0.0817616
0.00024355
0.0815863
0.000246022
0.0814093
0.000248197
0.0812307
0.000250075
0.0810507
0.000251657
0.0808695
0.000252944
0.0806874
0.000253933
0.0805046
0.000254624
0.0803212
0.00025501
0.0801375
0.000255082
0.0799537
0.000254816
0.0797701
0.000254174
0.0795871
0.00025309
0.0794048
0.000251437
0.0792237
0.000248977
0.0790444
0.000245235
0.0788673
0.000239122
0.000227522
0.083738
0.000394864
-0.083914
0.0835516
0.000399921
0.0833575
0.000406394
0.083157
0.000414119
0.0829508
0.000422586
0.082739
0.00043144
0.0825219
0.000440423
0.0822997
0.00044933
0.0820725
0.000458034
0.0818405
0.000466426
0.0816038
0.000474373
0.0813628
0.000481806
0.0811177
0.000488688
0.0808687
0.000495001
0.0806161
0.000500735
0.0803603
0.00050588
0.0801016
0.000510432
0.0798401
0.00051439
0.0795763
0.000517747
0.0793104
0.000520501
0.0790428
0.000522643
0.0787737
0.000524158
0.0785035
0.000525019
0.0782325
0.000525182
0.077961
0.000524573
0.0776894
0.000523069
0.0774179
0.000520459
0.0771468
0.000516388
0.0768757
0.000510197
0.000500476
0.0835562
0.000586607
-0.083748
0.0833522
0.00060397
0.0831373
0.000621248
0.0829128
0.000638665
0.0826793
0.000656095
0.0824373
0.000673372
0.0821874
0.000690359
0.0819298
0.000706931
0.0816648
0.00072299
0.0813928
0.000738455
0.081114
0.000753186
0.0808287
0.000767071
0.0805373
0.000780096
0.0802401
0.000792221
0.0799374
0.000803425
0.0796296
0.000813691
0.079317
0.000823008
0.0790001
0.000831368
0.078679
0.000838765
0.0783544
0.000845191
0.0780264
0.000850636
0.0776954
0.000855085
0.0773619
0.000858514
0.0770262
0.000860881
0.0766887
0.000862126
0.0763496
0.000862152
0.0760092
0.000860811
0.0756678
0.000857879
0.075325
0.000852998
0.000845548
0.0831032
0.000777847
-0.0832944
0.0828983
0.000808867
0.0826805
0.000839027
0.0824506
0.000868558
0.0822093
0.000897456
0.081957
0.000925647
0.0816943
0.000953066
0.0814216
0.000979633
0.0811393
0.00100531
0.0808477
0.00103
0.0805473
0.0010536
0.0802384
0.001076
0.0799213
0.00109716
0.0795965
0.00111705
0.0792643
0.00113564
0.078925
0.0011529
0.0785792
0.00116881
0.0782272
0.00118337
0.0778695
0.00119656
0.0775063
0.00120838
0.0771381
0.0012188
0.0767654
0.00122783
0.0763884
0.00123544
0.0760077
0.0012416
0.0756236
0.00124626
0.0752364
0.00124937
0.0748463
0.00125083
0.0744537
0.00125052
0.0740584
0.00124827
0.00124383
0.0823832
0.000956942
-0.0825623
0.0821893
0.00100282
0.0819809
0.00104739
0.0817587
0.00109079
0.0815231
0.00113305
0.0812746
0.00117411
0.0810137
0.00121394
0.0807409
0.0012525
0.0804565
0.00128973
0.0801609
0.00132558
0.0798545
0.00135995
0.0795378
0.00139271
0.0792111
0.00142385
0.0788749
0.00145332
0.0785294
0.00148108
0.0781752
0.0015071
0.0778127
0.00153137
0.0774422
0.00155385
0.0770642
0.00157455
0.0766791
0.00159345
0.0762874
0.00161054
0.0758894
0.0016258
0.0754856
0.00163922
0.0750764
0.00165079
0.0746622
0.00166047
0.0742434
0.00166824
0.0738201
0.00167405
0.0733928
0.00167786
0.0729615
0.00167959
0.00167916
0.0814198
0.00111632
-0.0815792
0.0812446
0.00117804
0.0810538
0.00123815
0.0808479
0.00129671
0.0806272
0.00135373
0.0803922
0.00140914
0.0801432
0.00146291
0.0798807
0.00151503
0.079605
0.00156542
0.0793166
0.00161401
0.0790158
0.00166072
0.0787031
0.00170546
0.0783788
0.00174816
0.0780433
0.0017888
0.077697
0.00182732
0.0773404
0.00186369
0.0769739
0.00189789
0.0765979
0.00192989
0.0762128
0.00195968
0.075819
0.00198723
0.075417
0.00201254
0.0750072
0.0020356
0.07459
0.00205639
0.0741659
0.00207492
0.0737352
0.00209117
0.0732983
0.00210513
0.0728556
0.00211679
0.0724073
0.00212614
0.0719537
0.0021332
0.00213793
0.080247
0.00125163
-0.0803823
0.0800951
0.00132993
0.0799269
0.00140639
0.0797426
0.00148101
0.0795425
0.00155378
0.079327
0.0016246
0.0790965
0.00169343
0.0788513
0.00176028
0.0785916
0.00182506
0.078318
0.00188763
0.0780308
0.00194795
0.0777303
0.00200593
0.0774169
0.00206152
0.0770911
0.00211464
0.0767531
0.00216526
0.0764035
0.00221334
0.0760426
0.00225884
0.0756707
0.00230172
0.0752884
0.00234197
0.0748961
0.00237957
0.0744941
0.00241451
0.074083
0.00244677
0.073663
0.00247635
0.0732347
0.00250325
0.0727984
0.00252747
0.0723545
0.00254902
0.0719034
0.00256791
0.0714454
0.00258417
0.0709807
0.00259783
0.0026089
0.0789035
0.00136097
-0.0790128
0.0787771
0.00145633
0.0786338
0.00154965
0.0784739
0.00164094
0.0782975
0.00173011
0.0781051
0.00181707
0.0778968
0.00190175
0.0776729
0.00198413
0.0774338
0.00206413
0.0771798
0.00214163
0.0769113
0.00221649
0.0766285
0.00228871
0.0763319
0.00235818
0.0760217
0.00242484
0.0756983
0.00248862
0.0753622
0.00254949
0.0750136
0.00260739
0.074653
0.00266229
0.0742808
0.00271416
0.0738974
0.00276298
0.0735032
0.00280873
0.0730986
0.0028514
0.0726839
0.00289098
0.0722597
0.00292748
0.0718263
0.00296091
0.071384
0.00299129
0.0709332
0.00301865
0.0704744
0.00304303
0.0700077
0.00306447
0.00308302
0.0774284
0.00144425
-0.0775117
0.0773278
0.00155689
0.0772101
0.00166737
0.0770754
0.00177563
0.0769239
0.0018816
0.0767559
0.00198514
0.0765715
0.00208613
0.0763711
0.00218457
0.0761548
0.00228037
0.0759231
0.00237336
0.0756761
0.00246346
0.0754142
0.00255061
0.0751377
0.00263469
0.0748469
0.00271564
0.0745422
0.00279338
0.0742238
0.00286786
0.0738922
0.00293902
0.0735476
0.00300682
0.0731906
0.00307122
0.0728213
0.0031322
0.0724404
0.00318972
0.072048
0.00324378
0.0716446
0.00329437
0.0712306
0.00334151
0.0708063
0.00338519
0.0703721
0.00342545
0.0699284
0.00346233
0.0694756
0.00349587
0.0690139
0.00352615
0.0035532
0.0758589
0.0015026
-0.0759172
0.0757832
0.00163258
0.0756903
0.00176028
0.0755803
0.00188564
0.0754533
0.00200854
0.0753096
0.00212884
0.0751493
0.00224641
0.0749727
0.00236116
0.0747801
0.00247305
0.0745715
0.00258194
0.0743472
0.00268769
0.0741077
0.00279019
0.073853
0.00288935
0.0735835
0.0029851
0.0732996
0.00307734
0.0730014
0.003166
0.0726894
0.00325103
0.0723639
0.00333237
0.0720251
0.00340998
0.0716735
0.00348381
0.0713094
0.00355384
0.0709331
0.00362006
0.070545
0.00368245
0.0701455
0.00374102
0.0697349
0.00379579
0.0693136
0.00384678
0.0688819
0.00389403
0.0684402
0.00393762
0.0679887
0.00397761
0.00401404
0.0742283
0.00153803
-0.0742637
0.0741757
0.00168522
0.0741059
0.00183005
0.0740191
0.00197244
0.0739154
0.00211224
0.0737949
0.00224931
0.0736579
0.00238348
0.0735044
0.00251464
0.0733347
0.00264277
0.0731489
0.00276769
0.0729474
0.00288924
0.0727302
0.00300731
0.0724978
0.00312181
0.0722503
0.00323263
0.0719879
0.00333968
0.071711
0.00344288
0.0714199
0.00354216
0.0711148
0.00363746
0.0707961
0.00372872
0.070464
0.00381589
0.0701189
0.00389895
0.0697611
0.00397787
0.0693909
0.00405263
0.0690087
0.00412324
0.0686147
0.00418971
0.0682094
0.00425208
0.0677931
0.00431039
0.067366
0.0043647
0.0669285
0.00441509
0.00446162
0.0725658
0.00155302
-0.0725808
0.0725339
0.00171718
0.072485
0.00187893
0.0724193
0.00203815
0.0723369
0.00219467
0.0722378
0.00234836
0.0721222
0.00249904
0.0719903
0.00264655
0.0718423
0.00279084
0.0716782
0.00293175
0.0714983
0.0030691
0.0713029
0.00320277
0.071092
0.00333266
0.070866
0.00345865
0.070625
0.00358064
0.0703694
0.00369853
0.0700993
0.00381226
0.069815
0.00392173
0.0695168
0.00402689
0.069205
0.0041277
0.0688799
0.00422409
0.0685417
0.00431605
0.0681908
0.00440356
0.0678274
0.00448661
0.0674519
0.00456522
0.0670646
0.00463942
0.0666657
0.00470925
0.0662556
0.00477477
0.0658346
0.00483609
0.00489325
0.070896
0.00155029
-0.0708932
0.070882
0.00173112
0.0708515
0.00190949
0.0708044
0.00208524
0.0707408
0.00225821
0.0706609
0.00242825
0.0705647
0.00259523
0.0704524
0.0027589
0.0703241
0.00291914
0.07018
0.00307586
0.0700202
0.00322887
0.069845
0.00337803
0.0696544
0.00352321
0.0694488
0.00366431
0.0692282
0.0038012
0.068993
0.00393378
0.0687432
0.00406196
0.0684793
0.00418566
0.0682014
0.00430481
0.0679097
0.00441935
0.0676046
0.00452922
0.0672863
0.00463439
0.066955
0.00473484
0.0666111
0.00483055
0.0662547
0.00492155
0.0658863
0.00500784
0.0655061
0.00508948
0.0651143
0.00516654
0.0647113
0.00523911
0.00530727
0.0692387
0.00153264
-0.0692211
0.06924
0.00172978
0.0692251
0.0019244
0.069194
0.00211635
0.0691468
0.00230543
0.0690836
0.0024915
0.0690044
0.00267442
0.0689093
0.00285394
0.0687986
0.00302986
0.0686724
0.0032021
0.0685307
0.00337052
0.0683738
0.00353494
0.0682018
0.00369522
0.0680149
0.00385123
0.0678132
0.00400285
0.067597
0.00414998
0.0673665
0.0042925
0.0671218
0.00443034
0.0668632
0.0045634
0.0665909
0.00469163
0.0663052
0.00481496
0.0660062
0.00493335
0.0656943
0.00504678
0.0653696
0.00515522
0.0650325
0.00525868
0.0646832
0.00535718
0.0643219
0.00545076
0.0639489
0.0055395
0.0635646
0.00562349