/*--------------------------------*- C++ -*----------------------------------*\
  =========                 |
  \\      /  F ield         | OpenFOAM: The Open Source CFD Toolbox
   \\    /   O peration     | Website:  https://openfoam.org
    \\  /    A nd           | Version:  6.0
     \\/     M anipulation  |
\*---------------------------------------------------------------------------*/
FoamFile
{
    version     2.0;
    format      ascii;
    class       volVectorField;
    location    "12.25";
    object      U;
}
// * * * * * * * * * * * * * * * * * * * * * * * * * * * * * * * * * * * * * //

dimensions      [0 1 -1 0 0 0 0];

internalField   nonuniform List<vector> 
19200
(
(0.0984606 -4.74376 -6.40484e-21)
(0.0605742 -4.32887 3.22707e-21)
(0.0663808 -3.98881 1.49505e-21)
(0.0811358 -3.71041 1.31627e-21)
(0.0986884 -3.48211 1.47056e-21)
(0.120514 -3.29416 1.08378e-22)
(0.146026 -3.13859 2.08717e-21)
(0.174296 -3.00895 -1.35997e-22)
(0.204622 -2.90003 1.83677e-21)
(0.236407 -2.80763 7.76377e-22)
(0.269129 -2.72839 1.52913e-23)
(0.30234 -2.65964 1.23102e-21)
(0.335664 -2.59921 2.0107e-21)
(0.36879 -2.54539 -1.36248e-21)
(0.401462 -2.4968 1.77169e-21)
(0.433473 -2.45234 1.53167e-21)
(0.464661 -2.41115 -1.4329e-21)
(0.494901 -2.37252 2.46178e-21)
(0.524097 -2.33589 -1.55558e-21)
(0.552184 -2.30083 7.944e-22)
(0.579118 -2.26697 1.10632e-21)
(0.604873 -2.23403 -3.45939e-22)
(0.629442 -2.20176 4.70796e-22)
(0.652826 -2.16996 -5.45789e-22)
(0.675039 -2.13847 -1.62447e-24)
(0.6961 -2.10711 2.92949e-22)
(0.716027 -2.07574 -1.83327e-22)
(0.734847 -2.04418 1.24057e-22)
(0.75259 -2.01227 2.66388e-22)
(0.76926 -1.97981 1.09209e-21)
(0.222914 -4.7412 -1.49801e-21)
(0.17484 -4.33258 1.00443e-20)
(0.172459 -3.99778 -5.28665e-21)
(0.18076 -3.72421 -7.19208e-21)
(0.193253 -3.50036 -3.22781e-21)
(0.211094 -3.31635 -2.33671e-21)
(0.233443 -3.16418 -5.04426e-21)
(0.259175 -3.03741 6.33308e-22)
(0.28743 -2.93085 -1.10304e-21)
(0.317488 -2.84035 -3.80969e-21)
(0.348731 -2.76258 -9.54783e-21)
(0.380637 -2.6949 4.68633e-21)
(0.412774 -2.6352 -1.72121e-21)
(0.444785 -2.58179 6.5618e-22)
(0.476383 -2.53333 -4.08594e-21)
(0.507338 -2.48878 -1.51271e-21)
(0.537469 -2.44729 1.75085e-22)
(0.566639 -2.40818 5.16734e-21)
(0.594745 -2.37094 -2.7187e-21)
(0.621717 -2.33513 -1.51876e-21)
(0.647509 -2.30044 -5.90846e-21)
(0.672096 -2.26659 1.52129e-21)
(0.69547 -2.23335 -9.72744e-22)
(0.717635 -2.20054 1.70411e-21)
(0.738608 -2.168 -7.67946e-22)
(0.758407 -2.13557 -1.19706e-21)
(0.777057 -2.10311 3.99569e-22)
(0.794587 -2.07045 5.86261e-22)
(0.811049 -2.0374 -1.07913e-21)
(0.826415 -2.00377 5.63938e-22)
(0.347047 -4.73579 -7.45143e-22)
(0.28907 -4.33373 2.35588e-21)
(0.278896 -4.00447 3.36876e-21)
(0.281077 -3.73598 2.55832e-20)
(0.288775 -3.51676 -1.48002e-20)
(0.302847 -3.33681 1.36678e-20)
(0.322208 -3.18811 8.39801e-21)
(0.345537 -3.06425 6.51301e-21)
(0.371822 -2.96006 -6.35279e-21)
(0.400224 -2.87143 -7.41481e-22)
(0.430033 -2.7951 1.61374e-20)
(0.460656 -2.72844 2.7175e-21)
(0.491604 -2.6694 -7.39944e-21)
(0.522483 -2.61634 5.92187e-21)
(0.552974 -2.56797 -7.5547e-23)
(0.582826 -2.52326 2.54141e-21)
(0.611843 -2.4814 1.92124e-21)
(0.639877 -2.44176 6.266e-21)
(0.666822 -2.40385 -2.81332e-21)
(0.692603 -2.36727 -9.37309e-22)
(0.717173 -2.3317 -2.45467e-21)
(0.740509 -2.2969 1.07163e-20)
(0.762605 -2.26267 -8.92032e-21)
(0.78347 -2.22884 2.98732e-21)
(0.80312 -2.19524 1.31834e-21)
(0.821579 -2.16175 -5.35093e-21)
(0.838873 -2.12821 7.19775e-21)
(0.855037 -2.09446 -8.21819e-22)
(0.870144 -2.06031 -8.20991e-22)
(0.884128 -2.02555 -5.75481e-21)
(0.471017 -4.7274 -2.43486e-20)
(0.403422 -4.33233 -2.21594e-20)
(0.385754 -4.0089 -2.72403e-20)
(0.3821 -3.74572 1.03736e-21)
(0.385253 -3.53129 1.59304e-21)
(0.395764 -3.35549 -3.09731e-20)
(0.412304 -3.21032 1.37251e-21)
(0.433361 -3.08938 3.96937e-21)
(0.457773 -2.98755 -6.85722e-22)
(0.484586 -2.90077 6.99204e-21)
(0.513 -2.82582 -2.82201e-20)
(0.542352 -2.76014 -1.78176e-20)
(0.572107 -2.70171 6.64392e-21)
(0.601829 -2.64894 1.33472e-20)
(0.631173 -2.60058 -1.56598e-20)
(0.659869 -2.55565 -2.5212e-21)
(0.68771 -2.51338 -9.3021e-21)
(0.714539 -2.47316 -4.48098e-21)
(0.740246 -2.43453 7.41963e-21)
(0.764755 -2.39712 -9.61553e-21)
(0.788022 -2.36065 8.25526e-21)
(0.810024 -2.32488 -9.88816e-21)
(0.830759 -2.28964 -7.86258e-21)
(0.85024 -2.25477 -5.52257e-21)
(0.868488 -2.22012 -1.69484e-21)
(0.88553 -2.18557 -1.15048e-20)
(0.901392 -2.15097 1.16702e-21)
(0.916119 -2.11616 2.06364e-21)
(0.929801 -2.08095 -5.96642e-21)
(0.942332 -2.04511 1.29052e-21)
(0.594793 -4.71596 -1.48772e-20)
(0.517902 -4.32833 2.08482e-21)
(0.493039 -4.01105 1.91883e-20)
(0.483826 -3.75339 2.03699e-20)
(0.482677 -3.54387 1.45388e-20)
(0.48983 -3.37232 5.95689e-21)
(0.503712 -3.23072 9.37913e-21)
(0.522622 -3.1127 4.36507e-20)
(0.545253 -3.01322 -2.62706e-20)
(0.570536 -2.92826 7.16046e-22)
(0.597586 -2.85464 6.36638e-21)
(0.625677 -2.78987 2.78767e-20)
(0.654223 -2.73199 -1.92473e-20)
(0.682757 -2.67945 1.39452e-20)
(0.71091 -2.63104 -1.56881e-20)
(0.738393 -2.58584 2.67941e-20)
(0.76499 -2.54309 -8.06929e-21)
(0.79054 -2.50224 2.50095e-22)
(0.81493 -2.46286 1.30824e-20)
(0.838085 -2.42459 9.08633e-21)
(0.859964 -2.38719 -9.37291e-21)
(0.880548 -2.35044 1.27027e-20)
(0.899839 -2.31418 -5.87443e-21)
(0.917855 -2.27826 6.70801e-21)
(0.934623 -2.24257 8.8735e-21)
(0.950171 -2.20697 3.22276e-21)
(0.964531 -2.17133 9.87897e-21)
(0.977752 -2.1355 -3.503e-21)
(0.989946 -2.09927 -1.30452e-21)
(1.00096 -2.06241 -5.90377e-21)
(0.71831 -4.70146 -1.09998e-20)
(0.632482 -4.32171 -7.40034e-21)
(0.600733 -4.01088 -2.22646e-20)
(0.586239 -3.75893 -5.77765e-20)
(0.581029 -3.55446 1.96057e-20)
(0.585023 -3.38722 1.24178e-21)
(0.596406 -3.24921 -1.34979e-20)
(0.613291 -3.13412 2.91698e-21)
(0.634224 -3.03696 -1.85698e-21)
(0.658031 -2.95376 -3.53964e-20)
(0.683742 -2.88143 1.50693e-20)
(0.710571 -2.81752 2.60828e-20)
(0.73789 -2.76012 1.82991e-22)
(0.765199 -2.70775 9.88313e-21)
(0.792107 -2.65924 2.44621e-20)
(0.818315 -2.6137 -1.68264e-20)
(0.843597 -2.57043 2.99637e-20)
(0.86779 -2.52891 -1.42407e-20)
(0.890781 -2.48873 2.57909e-20)
(0.912498 -2.44958 -1.92368e-20)
(0.932904 -2.41122 8.74591e-21)
(0.951986 -2.37348 2.29441e-20)
(0.969751 -2.33619 1.30601e-21)
(0.986222 -2.29925 -2.11437e-20)
(1.00143 -2.26252 1.20459e-20)
(1.01542 -2.2259 1.47806e-21)
(1.0282 -2.18926 -3.76011e-21)
(1.03986 -2.15244 1.4757e-20)
(1.05051 -2.11524 5.09657e-21)
(1.05994 -2.07742 -5.184e-21)
(0.841502 -4.68389 3.06346e-20)
(0.747118 -4.31244 -1.37133e-21)
(0.708806 -4.00833 -4.61213e-20)
(0.689314 -3.76228 9.15925e-21)
(0.680284 -3.56298 -1.30747e-20)
(0.681316 -3.40011 9.55711e-21)
(0.690355 -3.2657 2.16886e-20)
(0.705328 -3.15353 3.96252e-20)
(0.724643 -3.05865 -4.31876e-20)
(0.747019 -2.97718 1.06706e-20)
(0.771409 -2.90607 -7.55995e-21)
(0.796971 -2.84296 5.66583e-21)
(0.823035 -2.78598 -2.48009e-20)
(0.849076 -2.73371 -1.42713e-21)
(0.874683 -2.68504 4.11689e-20)
(0.899548 -2.63912 -2.83438e-20)
(0.923439 -2.59529 -1.78922e-20)
(0.946194 -2.55306 -1.31525e-20)
(0.967702 -2.51205 2.44953e-20)
(0.987896 -2.472 5.33817e-21)
(1.00674 -2.43268 -2.40379e-20)
(1.02424 -2.39393 3.2509e-20)
(1.0404 -2.35563 -2.92248e-20)
(1.05525 -2.31766 1.96463e-20)
(1.06883 -2.27992 -1.09888e-20)
(1.08118 -2.24231 7.34554e-21)
(1.09233 -2.20471 5.4621e-21)
(1.10236 -2.16695 -2.41802e-20)
(1.1114 -2.12883 1.05685e-20)
(1.11921 -2.09013 2.65723e-22)
(0.964295 -4.66325 -3.06325e-20)
(0.86176 -4.30049 2.57238e-20)
(0.817222 -4.00338 -4.79652e-20)
(0.79302 -3.7634 9.20085e-20)
(0.780411 -3.56936 -2.59841e-20)
(0.778677 -3.4109 3.73434e-20)
(0.785521 -3.28011 1.17218e-22)
(0.798691 -3.17083 -4.99693e-21)
(0.816459 -3.07819 -7.86645e-21)
(0.837443 -2.99839 -1.57012e-22)
(0.860523 -2.92845 -3.08272e-20)
(0.884805 -2.86607 1.59162e-20)
(0.909582 -2.80945 -1.96802e-20)
(0.934304 -2.75723 -1.54763e-21)
(0.958549 -2.70835 -5.59991e-20)
(0.981999 -2.66199 1.82824e-20)
(1.00442 -2.61756 1.09048e-20)
(1.02565 -2.57459 -1.21079e-20)
(1.04559 -2.53274 -1.39251e-21)
(1.06418 -2.49176 -1.92314e-20)
(1.08138 -2.45147 -6.97818e-21)
(1.09721 -2.41173 6.75126e-22)
(1.11168 -2.37242 -1.70704e-20)
(1.12483 -2.33345 -2.53072e-20)
(1.13671 -2.29473 1.03926e-21)
(1.14736 -2.25617 -2.68417e-21)
(1.15682 -2.21764 8.08075e-21)
(1.16517 -2.179 -2.00196e-20)
(1.17257 -2.14002 1.70649e-20)
(1.1787 -2.1005 -3.46068e-20)
(1.08662 -4.63954 -7.77755e-20)
(0.976355 -4.28585 9.64302e-20)
(0.925939 -3.99598 -1.02838e-19)
(0.897318 -3.76222 -2.75528e-20)
(0.881374 -3.57352 -1.81993e-20)
(0.877065 -3.4195 -1.95785e-20)
(0.881859 -3.29232 -1.81008e-20)
(0.893329 -3.1859 -3.9057e-21)
(0.909614 -3.09546 -1.84752e-20)
(0.929239 -3.01727 -4.70437e-21)
(0.951013 -2.94844 3.22393e-20)
(0.973995 -2.88673 -1.8609e-20)
(0.997446 -2.83042 -2.27579e-20)
(1.0208 -2.7782 -3.85498e-20)
(1.04361 -2.72905 8.13937e-20)
(1.06557 -2.68222 -3.17893e-20)
(1.08644 -2.63715 1.18664e-20)
(1.10607 -2.59341 -4.45775e-20)
(1.12435 -2.5507 1.69364e-20)
(1.14124 -2.5088 -7.22334e-21)
(1.15671 -2.46754 8.86147e-21)
(1.17079 -2.42681 -3.43042e-21)
(1.18349 -2.38651 2.90083e-20)
(1.19488 -2.34657 -1.04149e-20)
(1.20499 -2.30691 2.84095e-20)
(1.21388 -2.26743 -5.31794e-21)
(1.2216 -2.22804 3.7356e-20)
(1.22822 -2.18857 1.02654e-20)
(1.23393 -2.1488 1.95187e-20)
(1.23835 -2.10855 -6.34339e-20)
(1.20839 -4.61277 1.23463e-19)
(1.09085 -4.26849 -2.44601e-20)
(1.03491 -3.98608 4.35368e-20)
(1.00217 -3.75868 -1.29506e-20)
(0.983129 -3.57538 4.51755e-20)
(0.976435 -3.42583 4.33227e-20)
(0.979319 -3.30225 4.99249e-20)
(0.989185 -3.19866 -4.29949e-21)
(1.00405 -3.11037 -4.86729e-20)
(1.02234 -3.03373 7.19088e-20)
(1.0428 -2.96594 -5.81778e-21)
(1.06446 -2.90484 5.23226e-20)
(1.08654 -2.84878 1.91032e-20)
(1.10845 -2.79649 6.9434e-21)
(1.12977 -2.74704 1.20054e-20)
(1.15016 -2.6997 1.58016e-20)
(1.16939 -2.65397 2.6824e-20)
(1.18733 -2.60945 -7.76782e-21)
(1.20387 -2.56587 3.99378e-20)
(1.21897 -2.52304 1.8696e-20)
(1.23264 -2.48082 -3.92599e-20)
(1.24488 -2.43912 6.96613e-20)
(1.25575 -2.39786 -9.2632e-20)
(1.26529 -2.35698 8.85134e-20)
(1.27357 -2.31641 -2.94251e-20)
(1.28065 -2.27608 5.5845e-21)
(1.28657 -2.23587 -3.92429e-20)
(1.29143 -2.19565 2.19037e-20)
(1.29542 -2.15516 8.01629e-21)
(1.2981 -2.11426 -1.01684e-20)
(1.32955 -4.58294 -7.19248e-20)
(1.20518 -4.24839 7.24893e-20)
(1.14408 -3.97365 -1.98894e-20)
(1.10752 -3.75272 5.7922e-20)
(1.08563 -3.57489 5.44694e-21)
(1.07674 -3.42981 1.30151e-20)
(1.07785 -3.3098 -1.01733e-19)
(1.0862 -3.20899 -1.7725e-20)
(1.09969 -3.12279 6.70268e-20)
(1.11666 -3.04765 5.24196e-20)
(1.13581 -2.98084 -8.93296e-20)
(1.1561 -2.92029 5.27794e-20)
(1.17676 -2.86442 -5.32353e-20)
(1.19718 -2.81203 3.76163e-20)
(1.21692 -2.76222 -6.24145e-20)
(1.23566 -2.71435 -4.72865e-20)
(1.25317 -2.66793 2.93849e-21)
(1.26932 -2.62261 -2.21895e-20)
(1.28403 -2.57816 3.98025e-20)
(1.29727 -2.53442 1.56585e-20)
(1.30904 -2.49126 -1.0432e-20)
(1.31937 -2.44862 -3.25508e-21)
(1.32833 -2.40643 1.25373e-20)
(1.33597 -2.36466 -4.16868e-20)
(1.34236 -2.32324 7.08534e-20)
(1.34758 -2.2821 -1.71713e-20)
(1.35166 -2.24115 -1.40373e-21)
(1.35472 -2.20023 6.26824e-20)
(1.35696 -2.1591 8.52208e-21)
(1.35787 -2.11763 -9.00092e-21)
(1.45002 -4.55007 1.74453e-21)
(1.31928 -4.22554 -4.0371e-20)
(1.25341 -3.95865 -3.82647e-20)
(1.21333 -3.74429 -6.22751e-20)
(1.18882 -3.57195 1.53243e-21)
(1.17791 -3.43134 -4.60198e-20)
(1.17737 -3.31488 5.4833e-20)
(1.1843 -3.2168 -4.66944e-21)
(1.19646 -3.13263 4.65108e-20)
(1.21212 -3.05892 -3.78369e-20)
(1.22993 -2.99303 -2.01987e-20)
(1.24883 -2.93298 1.10327e-20)
(1.26801 -2.87724 5.99888e-21)
(1.28687 -2.8247 -6.29314e-20)
(1.30495 -2.77452 3.76676e-20)
(1.32196 -2.72608 -1.93347e-20)
(1.33766 -2.67896 5.41797e-20)
(1.35195 -2.63285 -1.81131e-20)
(1.36474 -2.58753 1.9369e-20)
(1.37602 -2.54288 4.6009e-21)
(1.38581 -2.49881 3.29497e-20)
(1.39417 -2.45526 -6.78745e-21)
(1.40114 -2.41219 5.47841e-20)
(1.40682 -2.36957 -6.08695e-20)
(1.41127 -2.32735 -2.0542e-20)
(1.41457 -2.28547 1.71022e-20)
(1.41678 -2.24385 -1.39856e-21)
(1.418 -2.20232 -3.01768e-20)
(1.41847 -2.16063 2.476e-20)
(1.41761 -2.11868 -2.99661e-20)
(1.56972 -4.51416 1.24081e-19)
(1.4331 -4.19991 3.56274e-20)
(1.36282 -3.94103 4.16056e-20)
(1.31953 -3.73332 5.80433e-20)
(1.29265 -3.56651 8.69711e-20)
(1.2799 -3.43035 -2.00199e-21)
(1.27784 -3.31739 1.25037e-20)
(1.28341 -3.22199 1.01888e-19)
(1.29427 -3.13979 -2.07343e-20)
(1.30864 -3.06744 -3.78842e-20)
(1.32509 -3.00241 6.86314e-20)
(1.34255 -2.94279 1.19875e-20)
(1.36019 -2.88715 1.01091e-21)
(1.37741 -2.83442 1.67429e-20)
(1.39376 -2.78383 3.0928e-20)
(1.40894 -2.73482 -6.42657e-20)
(1.42275 -2.68699 5.51589e-20)
(1.43508 -2.64009 9.71746e-21)
(1.44587 -2.59392 5.49385e-20)
(1.45511 -2.54839 -2.94976e-20)
(1.46286 -2.50344 5.00069e-20)
(1.46915 -2.45902 -5.30818e-20)
(1.47408 -2.41511 5.20439e-20)
(1.47773 -2.3717 7.3033e-21)
(1.4802 -2.32874 -3.4948e-20)
(1.48155 -2.2862 -1.15686e-20)
(1.48185 -2.24397 6.84848e-20)
(1.48122 -2.20191 5.00636e-20)
(1.4799 -2.15975 1.35461e-20)
(1.47724 -2.11742 -9.57048e-21)
(1.68857 -4.47522 1.33984e-20)
(1.54657 -4.1715 3.13636e-20)
(1.47227 -3.92076 1.25595e-19)
(1.42606 -3.71976 -2.05859e-19)
(1.39705 -3.55848 -2.05539e-20)
(1.38262 -3.42675 -2.19807e-20)
(1.37916 -3.31724 1.02988e-20)
(1.38345 -3.22446 1.49007e-20)
(1.39305 -3.14416 2.38198e-20)
(1.40611 -3.07311 -6.34189e-20)
(1.42118 -3.00889 -1.2807e-20)
(1.43715 -2.94965 3.72481e-20)
(1.45318 -2.89406 4.07086e-20)
(1.46869 -2.84111 -4.01095e-20)
(1.48322 -2.79009 -4.01842e-20)
(1.4965 -2.74049 6.58635e-20)
(1.50832 -2.69196 4.39357e-20)
(1.5186 -2.64427 -1.06619e-20)
(1.5273 -2.59728 -2.80646e-20)
(1.53443 -2.5509 5.63384e-21)
(1.54005 -2.5051 -6.6492e-20)
(1.54422 -2.45986 8.12807e-20)
(1.54705 -2.41517 -5.56761e-20)
(1.54862 -2.37103 -2.37331e-21)
(1.54905 -2.32741 3.76109e-20)
(1.54841 -2.28427 -1.15405e-20)
(1.54677 -2.24153 -3.52018e-20)
(1.54427 -2.19902 4.3697e-20)
(1.54116 -2.15647 -1.04244e-21)
(1.53671 -2.11385 7.99712e-21)
(1.80651 -4.43327 -9.0854e-21)
(1.65962 -4.14027 -3.17204e-20)
(1.58169 -3.89779 -1.46219e-19)
(1.53287 -3.70355 5.3072e-20)
(1.50195 -3.5478 -1.63501e-20)
(1.48602 -3.42046 5.53044e-20)
(1.48127 -3.31435 4.46476e-21)
(1.48433 -3.22412 -6.42995e-20)
(1.4927 -3.14566 9.95911e-20)
(1.50444 -3.07585 -9.02751e-20)
(1.51809 -3.01236 -3.83374e-21)
(1.53251 -2.95347 2.28578e-20)
(1.54688 -2.89788 -3.89112e-20)
(1.56059 -2.84469 4.58091e-20)
(1.57322 -2.79323 -8.71527e-20)
(1.5845 -2.74304 -2.00225e-20)
(1.59425 -2.69381 5.40321e-20)
(1.6024 -2.64536 3.19159e-22)
(1.60893 -2.59757 -3.46043e-20)
(1.61387 -2.55038 9.53784e-20)
(1.61729 -2.50378 -5.14777e-20)
(1.61927 -2.45778 -6.93233e-20)
(1.61993 -2.41237 2.31319e-20)
(1.61938 -2.36757 -6.82322e-20)
(1.61773 -2.32335 -1.65648e-20)
(1.61507 -2.2797 -2.05799e-21)
(1.61148 -2.23652 -4.53857e-20)
(1.60709 -2.19366 5.44375e-20)
(1.60218 -2.15081 -3.03268e-20)
(1.59595 -2.10801 3.57749e-20)
(1.92345 -4.38832 -4.63834e-20)
(1.77219 -4.10623 -1.31595e-19)
(1.691 -3.8721 6.43791e-20)
(1.63989 -3.68465 -6.27849e-20)
(1.60728 -3.5344 -4.57502e-20)
(1.59002 -3.41141 -2.69559e-20)
(1.58407 -3.30863 -1.01099e-19)
(1.58596 -3.22088 6.95252e-20)
(1.59311 -3.14419 -1.73778e-19)
(1.60352 -3.07555 -6.43614e-20)
(1.61571 -3.01275 2.30428e-20)
(1.62853 -2.95415 3.91425e-20)
(1.64115 -2.89855 -6.10587e-22)
(1.65299 -2.84509 -7.60969e-20)
(1.66364 -2.79318 1.80783e-20)
(1.67283 -2.7424 -7.11231e-20)
(1.68043 -2.6925 -5.14098e-20)
(1.68636 -2.64331 -3.12464e-20)
(1.69064 -2.59475 -6.19393e-21)
(1.69331 -2.5468 5.40065e-20)
(1.69446 -2.49946 7.75395e-20)
(1.69419 -2.45274 -2.34475e-20)
(1.69263 -2.40668 -2.31269e-20)
(1.68991 -2.36129 4.46358e-20)
(1.68614 -2.31657 2.46843e-20)
(1.68144 -2.27248 -1.9841e-20)
(1.67587 -2.22896 -2.23862e-20)
(1.66959 -2.18584 2.60951e-21)
(1.66288 -2.1428 2.31971e-20)
(1.65489 -2.09992 3.20042e-20)
(2.03932 -4.34039 -8.67164e-21)
(1.8842 -4.06936 1.69272e-19)
(1.80016 -3.84365 1.31915e-19)
(1.74703 -3.66299 1.0282e-19)
(1.71297 -3.51822 -6.7647e-20)
(1.69452 -3.39951 -1.35e-20)
(1.68747 -3.3 1.18814e-20)
(1.68825 -3.21467 8.96708e-20)
(1.69418 -3.13967 3.38712e-20)
(1.70325 -3.07214 8.30292e-20)
(1.71392 -3.00998 -1.17807e-19)
(1.72507 -2.95163 1.18008e-20)
(1.73588 -2.89598 4.86388e-20)
(1.74577 -2.84225 3.05976e-20)
(1.75434 -2.78988 6.39912e-20)
(1.76137 -2.73853 -4.39282e-20)
(1.76672 -2.68797 -4.09264e-20)
(1.77036 -2.63808 7.6636e-21)
(1.77231 -2.58881 8.92251e-20)
(1.77264 -2.54014 -1.4422e-19)
(1.77145 -2.49211 5.04992e-20)
(1.76888 -2.44476 -2.86345e-22)
(1.76505 -2.39811 9.68374e-20)
(1.76011 -2.35221 -4.1858e-20)
(1.7542 -2.30706 -2.33534e-21)
(1.74742 -2.26263 -2.71579e-20)
(1.73986 -2.21886 2.58953e-20)
(1.73169 -2.17557 6.34062e-21)
(1.7232 -2.13244 -2.88966e-20)
(1.71345 -2.08959 9.84006e-20)
(2.15405 -4.2895 -1.72694e-19)
(1.99558 -4.02965 -1.03503e-19)
(1.90907 -3.81241 -2.66677e-19)
(1.85424 -3.63853 -1.22868e-19)
(1.81894 -3.4992 1.15599e-19)
(1.79945 -3.38471 -6.88069e-20)
(1.79139 -3.28839 -1.76788e-20)
(1.79109 -3.20539 -4.64394e-20)
(1.79581 -3.13202 8.02521e-20)
(1.80349 -3.06555 -1.90625e-20)
(1.81261 -3.00397 -2.98386e-20)
(1.82203 -2.94584 -3.61479e-21)
(1.83095 -2.89013 -1.22502e-19)
(1.8388 -2.83611 -5.30217e-21)
(1.84521 -2.7833 3.2768e-20)
(1.84999 -2.73139 -4.13671e-21)
(1.85301 -2.68021 -1.30327e-19)
(1.85427 -2.62966 1.27617e-19)
(1.85382 -2.57971 -1.26336e-19)
(1.85174 -2.53039 4.96936e-20)
(1.84816 -2.48174 7.1105e-21)
(1.84322 -2.43381 2.69606e-21)
(1.83708 -2.38666 -5.33889e-20)
(1.82989 -2.34033 1.82544e-20)
(1.8218 -2.29483 -8.29405e-23)
(1.81293 -2.25015 6.07996e-21)
(1.80337 -2.20623 -1.35743e-19)
(1.7933 -2.16288 3.69166e-20)
(1.78304 -2.11976 3.96934e-20)
(1.77156 -2.07705 4.44965e-20)
(2.26755 -4.23567 3.3935e-19)
(2.10625 -3.98709 1.19723e-19)
(2.01767 -3.77835 7.10907e-20)
(1.96143 -3.61123 1.13098e-19)
(1.9251 -3.47727 -1.3966e-20)
(1.90471 -3.36692 8.7346e-20)
(1.89572 -3.27372 1.95589e-19)
(1.89437 -3.19297 -2.46305e-20)
(1.89787 -3.12116 1.20956e-20)
(1.90415 -3.05569 2.37905e-19)
(1.91166 -2.99466 -3.15942e-20)
(1.91928 -2.93672 3.41835e-20)
(1.92622 -2.88093 -1.27239e-20)
(1.93195 -2.82662 -1.49778e-21)
(1.93613 -2.77339 1.79296e-19)
(1.93856 -2.72095 6.87441e-21)
(1.93918 -2.66918 1.93634e-19)
(1.93799 -2.61801 -2.41141e-20)
(1.93506 -2.56745 -4.2578e-20)
(1.93051 -2.51753 9.98695e-20)
(1.92448 -2.46833 -9.15035e-20)
(1.91713 -2.4199 1.01069e-19)
(1.90863 -2.37232 5.48109e-20)
(1.89915 -2.32564 -4.44424e-20)
(1.88885 -2.27989 6.82771e-20)
(1.87787 -2.23505 8.23842e-21)
(1.86631 -2.19108 -2.88039e-20)
(1.85434 -2.14778 1.56706e-20)
(1.84233 -2.10478 1.03354e-19)
(1.82915 -2.06232 1.60441e-20)
(2.37976 -4.17892 -5.84797e-20)
(2.21615 -3.94167 -1.21742e-19)
(2.12589 -3.74144 5.11474e-20)
(2.06853 -3.58104 -2.04541e-19)
(2.03137 -3.45238 9.84601e-20)
(2.0102 -3.34609 -1.81499e-19)
(2.00036 -3.25591 -1.20675e-19)
(1.99799 -3.17735 3.41144e-20)
(2.00026 -3.10703 3.43364e-20)
(2.00508 -3.0425 -1.65692e-19)
(2.01093 -2.98198 -7.23781e-20)
(2.01668 -2.92421 3.39323e-20)
(2.02157 -2.86833 -9.33415e-20)
(2.0251 -2.81375 -3.7455e-20)
(2.02695 -2.7601 -2.53233e-20)
(2.02697 -2.70718 -2.54571e-20)
(2.0251 -2.65486 -1.08459e-19)
(2.02139 -2.60313 -6.82442e-20)
(2.01592 -2.55201 1.23049e-20)
(2.00883 -2.50157 2.25724e-20)
(2.0003 -2.45188 2.43509e-20)
(1.99049 -2.40303 -8.40862e-20)
(1.97959 -2.3551 3.18831e-20)
(1.96778 -2.30816 -6.57268e-20)
(1.95526 -2.26224 6.23486e-20)
(1.94215 -2.21735 -8.19817e-20)
(1.92857 -2.17343 2.58934e-20)
(1.91472 -2.13029 -4.05447e-20)
(1.90097 -2.08752 -5.78347e-20)
(1.88613 -2.04543 -5.8416e-21)
(2.49058 -4.11927 -1.2533e-19)
(2.3252 -3.89341 -1.11497e-19)
(2.23365 -3.70166 -1.09525e-19)
(2.17544 -3.54792 -8.23143e-20)
(2.13766 -3.42448 2.54315e-19)
(2.11584 -3.32216 3.62411e-20)
(2.1052 -3.23492 1.10882e-19)
(2.10182 -3.15845 1.71055e-19)
(2.10284 -3.08957 8.30206e-20)
(2.10618 -3.02593 -1.11055e-19)
(2.11029 -2.96588 1.80812e-19)
(2.1141 -2.90827 -1.76617e-19)
(2.11687 -2.8523 1.68436e-19)
(2.11811 -2.79746 2.02632e-20)
(2.11756 -2.74343 4.35988e-20)
(2.11508 -2.69005 1.45767e-20)
(2.11066 -2.63724 1.78227e-19)
(2.10435 -2.585 -2.65996e-20)
(2.09628 -2.5334 2.4217e-20)
(2.08661 -2.4825 8.13176e-20)
(2.07552 -2.4324 -9.1149e-20)
(2.0632 -2.38321 7.29994e-20)
(2.04987 -2.33501 2.98446e-21)
(2.03571 -2.28789 3.33908e-20)
(2.02093 -2.2419 6.12853e-20)
(2.00567 -2.19703 -1.03689e-20)
(1.99007 -2.15327 6.0852e-20)
(1.97434 -2.1104 8.84106e-20)
(1.95887 -2.06798 -9.61112e-20)
(1.94241 -2.0264 -5.92073e-20)
(2.59996 -4.05676 3.69699e-19)
(2.43333 -3.84229 -4.19171e-20)
(2.34087 -3.65899 8.59722e-20)
(2.2821 -3.51184 1.58137e-19)
(2.24387 -3.39351 -4.59884e-19)
(2.22151 -3.29507 5.06639e-20)
(2.21013 -3.21067 -1.77808e-19)
(2.20575 -3.13623 1.8042e-19)
(2.2055 -3.06871 -1.4428e-19)
(2.20729 -3.00592 7.81639e-20)
(2.20962 -2.94632 -2.86207e-19)
(2.21141 -2.88885 8.19217e-21)
(2.21198 -2.83281 -9.61644e-20)
(2.21086 -2.77773 1.46809e-19)
(2.20783 -2.72335 -1.56467e-19)
(2.20278 -2.66956 -8.10026e-21)
(2.19573 -2.61631 -1.28331e-19)
(2.18677 -2.56364 -1.09809e-20)
(2.17605 -2.51161 1.10145e-20)
(2.16374 -2.46033 2.88493e-20)
(2.15005 -2.4099 -1.63864e-19)
(2.13519 -2.36044 -5.02467e-21)
(2.11938 -2.31205 -9.22332e-20)
(2.10284 -2.26483 -2.1419e-20)
(2.08577 -2.21884 -5.67782e-20)
(2.06836 -2.17411 -6.22732e-20)
(2.05073 -2.1306 -6.51545e-20)
(2.03311 -2.08811 1.08182e-19)
(2.01594 -2.04617 2.92142e-20)
(1.99789 -2.00521 -5.77408e-20)
(2.70781 -3.99141 -2.46808e-19)
(2.54046 -3.78832 9.2452e-20)
(2.44749 -3.61342 -1.58908e-19)
(2.38842 -3.47275 2.34646e-20)
(2.34992 -3.35944 2.63035e-19)
(2.32711 -3.26475 -1.34191e-19)
(2.31502 -3.18311 -1.43764e-19)
(2.30965 -3.11061 -1.22299e-19)
(2.3081 -3.0444 5.57146e-21)
(2.3083 -2.98243 7.96995e-20)
(2.30877 -2.92326 -5.83481e-20)
(2.30848 -2.86594 2.24716e-21)
(2.30677 -2.80982 1.84439e-19)
(2.30322 -2.75453 -9.39743e-20)
(2.29763 -2.69985 2.49326e-20)
(2.28994 -2.6457 -7.70182e-20)
(2.28021 -2.59208 2.96525e-20)
(2.26854 -2.53903 6.40337e-20)
(2.25511 -2.48666 7.36166e-20)
(2.24012 -2.43507 -8.07339e-20)
(2.22379 -2.38438 1.13467e-20)
(2.20636 -2.33473 6.98236e-20)
(2.18805 -2.28624 1.21324e-19)
(2.16909 -2.23899 3.25969e-20)
(2.14972 -2.19309 -1.26355e-19)
(2.13012 -2.14856 1.47397e-19)
(2.11043 -2.1054 -7.40206e-20)
(2.09094 -2.0634 -8.87443e-20)
(2.07208 -2.02206 -5.44623e-20)
(2.05248 -1.98186 -7.50121e-20)
(2.81406 -3.92325 1.32604e-19)
(2.64653 -3.73152 -1.06855e-19)
(2.55342 -3.56492 4.10599e-20)
(2.49431 -3.43063 2.19668e-19)
(2.45569 -3.32221 6.05805e-20)
(2.43253 -3.23118 -5.18727e-20)
(2.41977 -3.15219 1.2659e-19)
(2.41339 -3.08157 2.95041e-20)
(2.41051 -3.01662 1.22591e-19)
(2.40907 -2.95542 6.77924e-20)
(2.40762 -2.89667 3.35793e-21)
(2.40517 -2.83949 4.34436e-20)
(2.4011 -2.78333 -1.37412e-20)
(2.39504 -2.72787 2.41314e-20)
(2.38683 -2.67294 6.82529e-20)
(2.37645 -2.61849 -3.75807e-20)
(2.36397 -2.56455 9.39053e-20)
(2.34954 -2.51121 9.57323e-20)
(2.33337 -2.45856 -1.09401e-19)
(2.31566 -2.40674 1.1306e-19)
(2.29667 -2.35588 2.413e-19)
(2.27663 -2.30611 -1.56497e-19)
(2.25579 -2.25757 1.58283e-19)
(2.2344 -2.21038 -1.10878e-19)
(2.21269 -2.16462 -1.59148e-20)
(2.19088 -2.12037 1.20416e-19)
(2.16912 -2.07764 -2.44215e-20)
(2.14772 -2.03624 9.08406e-20)
(2.12718 -1.99562 9.06208e-20)
(2.10608 -1.95633 -1.81713e-19)
(2.91865 -3.85231 -1.28152e-19)
(2.75148 -3.67189 6.14587e-20)
(2.65862 -3.51349 2.51141e-20)
(2.5997 -3.38543 -2.58714e-19)
(2.5611 -3.28177 -1.35313e-19)
(2.53764 -3.19428 1.02732e-19)
(2.52423 -3.11787 -2.88268e-19)
(2.51683 -3.04905 3.51465e-19)
(2.51258 -2.98531 -1.98576e-19)
(2.50945 -2.92487 2.37127e-20)
(2.50601 -2.86653 -3.76081e-20)
(2.50134 -2.80951 -1.16295e-19)
(2.49484 -2.75333 2.42791e-19)
(2.48621 -2.69774 9.26486e-20)
(2.47531 -2.6426 -9.58632e-20)
(2.46217 -2.58792 2.9198e-21)
(2.4469 -2.53375 5.45996e-20)
(2.42968 -2.48019 -1.18092e-19)
(2.41072 -2.42735 2.53772e-20)
(2.39028 -2.37538 8.29092e-20)
(2.3686 -2.32442 -3.41785e-20)
(2.34594 -2.2746 5.74798e-20)
(2.32256 -2.22608 -1.13374e-19)
(2.29871 -2.17899 1.65219e-19)
(2.27464 -2.13343 3.89093e-20)
(2.25058 -2.08951 -1.05185e-19)
(2.22672 -2.04727 -9.13272e-20)
(2.20338 -2.00654 4.63665e-22)
(2.18114 -1.96676 1.2703e-19)
(2.15855 -1.92853 -3.06769e-20)
(3.02151 -3.77862 -3.50751e-20)
(2.85526 -3.60944 -2.57805e-19)
(2.76301 -3.4591 3.09179e-19)
(2.7045 -3.33712 2.11276e-19)
(2.66602 -3.23809 2.13158e-19)
(2.64233 -3.15403 6.05479e-20)
(2.62828 -3.0801 9.09869e-20)
(2.61985 -3.01302 4.72073e-20)
(2.61418 -2.95045 -1.86697e-19)
(2.6093 -2.89075 3.44712e-19)
(2.60382 -2.83282 -2.80876e-19)
(2.59685 -2.77598 -1.84847e-20)
(2.58786 -2.71983 4.19276e-20)
(2.57659 -2.66415 -1.85881e-19)
(2.56295 -2.60888 1.63608e-19)
(2.54701 -2.55404 -4.89314e-20)
(2.5289 -2.49971 -1.26816e-19)
(2.50885 -2.446 4.94075e-20)
(2.4871 -2.39306 -9.50495e-20)
(2.46389 -2.34102 -8.42297e-20)
(2.43952 -2.29003 -9.06775e-20)
(2.41423 -2.24024 2.06225e-20)
(2.3883 -2.1918 1.21637e-20)
(2.36199 -2.14485 -2.24787e-19)
(2.33554 -2.09952 -8.58098e-20)
(2.3092 -2.05594 5.5532e-20)
(2.28318 -2.01421 6.90824e-20)
(2.25785 -1.97421 -9.53533e-20)
(2.23388 -1.93535 -3.63749e-20)
(2.2098 -1.89833 3.68624e-21)
(3.12263 -3.70222 -3.07027e-20)
(2.95786 -3.54418 1.66856e-19)
(2.86654 -3.40172 -4.75129e-20)
(2.8086 -3.28566 -5.86347e-20)
(2.77035 -3.19111 -3.32585e-19)
(2.74646 -3.11038 -7.35569e-20)
(2.73178 -3.03885 1.41989e-19)
(2.72229 -2.97346 -9.40817e-20)
(2.71517 -2.91203 -1.00167e-20)
(2.70848 -2.85305 -1.86943e-20)
(2.70089 -2.79554 1.06305e-19)
(2.69156 -2.73891 -1.69451e-19)
(2.68002 -2.68282 -1.14238e-19)
(2.66605 -2.62712 1.34863e-19)
(2.64962 -2.57178 -7.74147e-20)
(2.63083 -2.51686 -9.36352e-20)
(2.60986 -2.46245 2.01344e-19)
(2.58696 -2.40869 -3.16395e-20)
(2.56239 -2.35573 1.19933e-19)
(2.53643 -2.3037 -1.10383e-19)
(2.50936 -2.25277 -8.96095e-20)
(2.48146 -2.20308 7.80728e-20)
(2.45299 -2.15477 -8.80833e-21)
(2.42422 -2.10799 -5.89492e-20)
(2.3954 -2.06289 5.19623e-20)
(2.36676 -2.01964 -1.62574e-19)
(2.33854 -1.9784 9.93485e-20)
(2.31114 -1.93911 -1.53826e-21)
(2.28536 -1.90121 -1.04169e-19)
(2.25979 -1.86545 1.58497e-19)
(3.2221 -3.62316 1.27483e-19)
(3.05931 -3.47611 -3.30777e-19)
(2.96914 -3.3413 -2.77638e-20)
(2.9119 -3.23098 1.57307e-19)
(2.87393 -3.1408 -4.12045e-20)
(2.84988 -3.06329 -1.1649e-19)
(2.83457 -2.9941 5.53538e-20)
(2.824 -2.93035 6.42437e-20)
(2.81539 -2.87003 5.59046e-21)
(2.80684 -2.81177 8.00072e-20)
(2.79708 -2.75471 2.56967e-19)
(2.78533 -2.69832 -9.09153e-20)
(2.77118 -2.64235 2.37115e-20)
(2.75446 -2.58669 -6.18146e-20)
(2.73519 -2.53135 2.38747e-19)
(2.71352 -2.47643 -4.29627e-20)
(2.68967 -2.42204 1.43342e-19)
(2.66391 -2.36832 -5.57578e-20)
(2.63652 -2.31542 6.04072e-20)
(2.60781 -2.26351 9.15446e-20)
(2.57807 -2.21271 1.57169e-20)
(2.54758 -2.16318 6.19973e-20)
(2.5166 -2.11505 -5.14608e-20)
(2.48541 -2.06848 1.43849e-19)
(2.45424 -2.02361 -5.89445e-20)
(2.42332 -1.98063 2.16502e-19)
(2.39286 -1.93976 -6.26489e-20)
(2.36331 -1.90105 4.32291e-20)
(2.33562 -1.86399 -8.16566e-20)
(2.30856 -1.82953 1.54999e-19)
(3.32029 -3.54157 -2.81892e-19)
(3.15972 -3.40517 1.04532e-20)
(3.07074 -3.27775 -1.72263e-19)
(3.01424 -3.17302 3.17193e-20)
(2.97662 -3.08709 8.78342e-21)
(2.95244 -3.01274 -1.5596e-19)
(2.93651 -2.94582 -2.94662e-19)
(2.92484 -2.88368 1.48303e-19)
(2.91469 -2.82445 -2.11604e-19)
(2.90423 -2.76692 -1.12419e-19)
(2.89224 -2.71032 -6.45107e-20)
(2.87801 -2.65422 -5.24733e-20)
(2.8612 -2.59842 1.53189e-21)
(2.84168 -2.54287 -1.88164e-19)
(2.81955 -2.48763 1.24662e-19)
(2.79497 -2.4328 -2.04826e-19)
(2.76822 -2.37852 -5.19637e-20)
(2.73959 -2.32494 5.70029e-20)
(2.7094 -2.27221 7.19689e-20)
(2.67796 -2.2205 7.21373e-20)
(2.64558 -2.16993 5.53314e-20)
(2.61255 -2.12065 -1.39073e-19)
(2.57913 -2.07277 1.40857e-19)
(2.54558 -2.02643 -1.50079e-20)
(2.51213 -1.98177 -3.80093e-20)
(2.47897 -1.93896 -1.50758e-19)
(2.44628 -1.89825 -8.01312e-20)
(2.41447 -1.85971 1.48667e-19)
(2.38457 -1.823 -4.86544e-20)
(2.35574 -1.78989 -5.06663e-20)
(3.41764 -3.45712 1.22656e-19)
(3.25912 -3.33094 1.13856e-20)
(3.17116 -3.21085 -3.41751e-20)
(3.11543 -3.1117 -7.40727e-21)
(3.07824 -3.02999 -6.24057e-20)
(3.05398 -2.95874 2.10714e-19)
(3.03744 -2.89404 -1.00036e-19)
(3.02465 -2.83346 6.57447e-20)
(3.01294 -2.77532 2.75558e-20)
(3.00051 -2.71852 1.00116e-19)
(2.98624 -2.66241 -3.90586e-20)
(2.96948 -2.60665 2.21313e-19)
(2.94995 -2.55109 -1.92453e-20)
(2.9276 -2.49574 1.45538e-19)
(2.90256 -2.44067 -2.45416e-19)
(2.87506 -2.38603 -1.88451e-20)
(2.8454 -2.33196 1.60447e-19)
(2.81391 -2.27863 -9.98558e-20)
(2.78093 -2.22618 -7.0515e-20)
(2.7468 -2.17478 -1.21742e-19)
(2.71183 -2.12455 -1.07218e-19)
(2.67633 -2.07561 1.15515e-19)
(2.64057 -2.02808 -1.08797e-19)
(2.6048 -1.98205 2.3982e-20)
(2.56924 -1.93762 8.84479e-20)
(2.53408 -1.89492 6.13284e-20)
(2.49945 -1.85408 5.84143e-20)
(2.46557 -1.81505 4.29602e-20)
(2.433 -1.77789 -1.16313e-19)
(2.40131 -1.7457 -4.98486e-20)
(5.01146 -0.0292113 1.82744e-21)
(5.0039 -0.16102 1.80982e-20)
(4.99322 -0.291863 6.28182e-20)
(4.97938 -0.422018 3.43339e-20)
(4.96219 -0.551544 -7.26163e-20)
(4.94158 -0.680406 2.19883e-20)
(4.91755 -0.808538 -2.30161e-20)
(4.89013 -0.93586 -5.81277e-20)
(4.85934 -1.06229 1.48074e-19)
(4.82522 -1.18773 -3.53037e-20)
(4.78779 -1.3121 -3.55856e-20)
(4.74711 -1.43531 -7.51826e-20)
(4.70321 -1.55727 -2.15203e-19)
(4.65612 -1.67791 1.99578e-20)
(4.60591 -1.79714 -9.63379e-21)
(4.55261 -1.91487 -6.70761e-20)
(4.49628 -2.03104 1.43637e-19)
(4.43696 -2.14556 7.78205e-20)
(4.37471 -2.25837 1.48591e-19)
(4.30958 -2.36938 7.24208e-20)
(4.24164 -2.47853 -1.62139e-19)
(4.17093 -2.58575 6.55743e-21)
(4.09751 -2.69097 -3.052e-19)
(4.02146 -2.79413 4.62911e-19)
(3.94283 -2.89517 -1.51607e-19)
(3.86169 -2.99404 -1.95149e-19)
(3.77811 -3.0907 -2.7236e-20)
(3.69216 -3.18511 -1.5109e-21)
(3.60394 -3.27736 -1.45929e-19)
(3.51342 -3.36782 2.59742e-19)
(5.03642 -0.0583129 7.57508e-21)
(5.0231 -0.190199 1.11827e-20)