/*--------------------------------*- C++ -*----------------------------------*\
| =========                 |                                                 |
| \\      /  F ield         | OpenFOAM: The Open Source CFD Toolbox           |
|  \\    /   O peration     | Version:  v1912                                 |
|   \\  /    A nd           | Website:  www.openfoam.com                      |
|    \\/     M anipulation  |                                                 |
\*---------------------------------------------------------------------------*/
FoamFile
{
    version     2.0;
    format      ascii;
    class       surfaceScalarField;
    location    "19";
    object      phi;
}
// * * * * * * * * * * * * * * * * * * * * * * * * * * * * * * * * * * * * * //

dimensions      [0 3 -1 0 0 0 0];
oriented        oriented;


internalField   nonuniform List<scalar> 
4670
(
-0.000186109
-0.0216353
0.0218214
-0.00050815
-0.0167367
0.0170588
-0.000844412
-0.0131009
0.0134372
-0.00112645
-0.0104153
0.0106974
-0.00132035
-0.00842816
0.00862207
-0.00141576
-0.00694445
0.00703985
-0.00141878
-0.00581711
0.00582012
-0.00134743
-0.00493697
0.00486562
-0.00122836
-0.00422417
0.00410509
-0.00362085
0.00348675
-0.00109426
-0.000170356
-0.021465
-0.000439852
-0.0164672
-0.000681871
-0.0128589
-0.000827165
-0.0102701
-0.000842638
-0.00841269
-0.000719004
-0.00706808
-0.000463591
-0.00607252
-9.65067e-05
-0.00530406
0.000350299
-0.00467097
-0.00410614
0.000835593
-0.000146468
-0.0213185
-0.000336039
-0.0162776
-0.000442965
-0.012752
-0.00039926
-0.0103138
-0.000173277
-0.00863867
0.000243724
-0.00748508
0.000844524
-0.00667332
0.0016085
-0.00606803
0.0025021
-0.00556457
-0.00508246
0.00347841
-0.000113038
-0.0212055
-0.000195563
-0.0161951
-0.000128629
-0.0128189
0.000153093
-0.0105955
0.000677271
-0.00916285
0.00145169
-0.0082595
0.00247034
-0.00769197
0.00371454
-0.00731223
0.00515015
-0.00700018
-0.00665507
0.00672277
-6.71749e-05
-0.0211383
-2.03375e-05
-0.016242
0.00026359
-0.0131028
0.000831384
-0.0111633
0.00170567
-0.0100371
0.00289185
-0.00944568
0.0043849
-0.00918503
0.00617009
-0.00909742
0.00821707
-0.00904716
-0.00890661
0.0104686
-3.32799e-06
-0.021135
0.000206762
-0.016452
0.000742972
-0.013639
0.00164406
-0.0120644
0.00291869
-0.0113118
0.00456434
-0.0110913
0.00657403
-0.0111947
0.00893737
-0.0114608
0.0116331
-0.0117429
-0.0118818
0.0146083
6.67913e-05
-0.0212017
0.000476768
-0.016862
0.00131553
-0.0144778
0.00260267
-0.0133515
0.00433047
-0.0130396
0.00648224
-0.0132431
0.00904193
-0.0137544
0.0119989
-0.0144178
0.0153441
-0.0150881
-0.0155791
0.0190415
0.000153022
-0.0213548
0.000798556
-0.0175076
0.00198747
-0.0156667
0.00371572
-0.0150798
0.00595353
-0.0152774
0.00866198
-0.0159515
0.0118044
-0.0168968
0.0153568
-0.0179702
0.0193176
-0.0190489
-0.0199589
0.0236973
0.000259704
-0.0216145
0.00117227
-0.0184201
0.00275512
-0.0172496
0.00497753
-0.0173022
0.00778491
-0.0180848
0.0111109
-0.0192775
0.0148859
-0.0206718
0.0190489
-0.0221332
0.0235824
-0.0235823
-0.0249885
0.028612
0.000384011
-0.0219985
0.00158796
-0.0196241
0.00359546
-0.0192571
0.00635145
-0.0200581
0.00978321
-0.0215165
0.0138094
-0.0233037
0.0183414
-0.0252038
0.0232754
-0.0270672
0.0284919
-0.0287989
-0.0304384
0.0339418
0.0302456
0.00118718
-0.0314328
0.0290535
0.00119214
0.0278834
0.0011701
0.0267608
0.00112254
0.025708
0.00105282
0.024743
0.000965058
0.0238797
0.000863298
0.0231288
0.000750839
0.022499
0.000629784
0.000500554
0.0402522
0.00370777
-0.0427727
0.0376124
0.00383189
0.034924
0.00385847
0.0322546
0.00379198
0.0296665
0.00364087
0.0272154
0.00341622
0.0249487
0.00312992
0.0229069
0.0027927
0.0211234
0.00241327
0.00199988
0.0490652
0.00687695
-0.0522344
0.0456256
0.00727146
0.0420089
0.00747521
0.0383108
0.00749
0.034626
0.00732571
0.0310437
0.00699856
0.0276456
0.00652799
0.0245055
0.00593281
0.0216898
0.00522894
0.00443262
0.0563427
0.0102172
-0.0596829
0.0525797
0.0110344
0.0484915
0.0115634
0.0441864
0.0117952
0.039778
0.0117341
0.0353806
0.0113959
0.0311048
0.0108038
0.0270566
0.00998105
0.0233396
0.00894589
0.0077141
0.0620322
0.013415
-0.06523
0.0582822
0.0147844
0.0540673
0.0157783
0.0494926
0.0163699
0.0446764
0.0165503
0.0397449
0.0163274
0.034827
0.0157217
0.0300531
0.0147549
0.0255623
0.0134367
0.0117599
0.0662522
0.0162897
-0.0691269
0.0627325
0.0183041
0.0586345
0.0198762
0.054048
0.0209565
0.0490823
0.0215159
0.0438613
0.0215484
0.0385172
0.0210658
0.0331901
0.0200821
0.0280426
0.0185842
0.0164988
0.0692059
0.0187605
-0.0716767
0.066037
0.021473
0.0622123
0.0237009
0.0577987
0.0253702
0.0528861
0.0264285
0.0475833
0.0268512
0.0420097
0.0266395
0.0362928
0.025799
0.0305925
0.0242845
0.0218875
0.0711201
0.0208157
-0.0731753
0.0683506
0.0242424
0.0648853
0.0271663
0.0607656
0.0294898
0.0560574
0.0311366
0.050846
0.0320626
0.0452241
0.0322614
0.0392796
0.0317434
0.0331173
0.0304468
0.0279376
0.0722054
0.0224854
-0.0738751
0.0698348
0.0266131
0.0667619
0.0302392
0.063006
0.0332457
0.0586094
0.0355332
0.0536327
0.0370393
0.0481382
0.0377558
0.0421541
0.0377276
0.035642
0.0369589
0.0347807
0.0726318
-0.0739701
0.0238237
0.0706268
0.028618
0.0679411
0.032925
0.0645777
0.0366091
0.060561
0.0395498
0.0559343
0.041666
0.0507427
0.0429474
0.0449805
0.0434897
0.0384488
0.0434906
0.042791
0.036791
-0.000329924
-0.0364611
0.036913
-0.000121986
0.0368208
9.21553e-05
0.0365356
0.00028523
0.0360562
0.000479359
0.0353966
0.00065962
0.0345771
0.000819563
0.0336229
0.000954186
0.0325636
0.00105932
0.00113078
0.0509382
-0.00150196
-0.0497662
0.0516895
-0.000873234
0.0520093
-0.000227703
0.0518777
0.00041681
0.0513075
0.00104961
0.0503122
0.00165488
0.048918
0.0022138
0.0471627
0.0027095
0.045095
0.00312695
0.00345307
0.0589667
-0.00347125
-0.0569974
0.0604243
-0.00233083
0.0613435
-0.00114693
0.0616937
6.66081e-05
0.0614724
0.00127088
0.0606752
0.00245217
0.0593162
0.00357279
0.0574243
0.00460138
0.0550439
0.0055073
0.00626264
0.0629532
-0.00607823
-0.0603462
0.0650406
-0.00441824
0.0665659
-0.00267217
0.0674941
-0.000861651
0.0677886
0.000976392
0.0674358
0.00280497
0.0664297
0.00457889
0.0647807
0.00625039
0.0625165
0.00777151
0.00909625
0.0644095
-0.00914555
-0.0613422
0.0669946
-0.00700337
0.0690422
-0.00471973
0.0705008
-0.0023203
0.0713246
0.000152602
0.0714824
0.00264722
0.0709521
0.00510917
0.0697252
0.00747724
0.0678094
0.00968737
0.0116756
0.064396
-0.0125224
-0.0610192
0.0673473
-0.00995457
0.0698004
-0.00717289
0.0716928
-0.00421267
0.0729742
-0.00112886
0.0736036
0.00201785
0.07355
0.00516283
0.0727901
0.00823712
0.071314
0.0111634
0.0138628
0.0636147
-0.0161072
-0.0600299
0.0668301
-0.0131699
0.0695787
-0.00992153
0.0717935
-0.00642746
0.0734264
-0.00276181
0.0744384
0.00100591
0.0747962
0.00480504
0.0744679
0.0085654
0.0734319
0.0121994
0.0156179
0.0625136
-0.0198645
-0.0587564
0.0659239
-0.0165802
0.0688711
-0.0128687
0.0712978
-0.00885414
0.0731709
-0.00463492
0.0744603
-0.000283463
0.075138
0.00412732
0.0751669
0.00853656
0.07452
0.0128462
0.0169627
0.0613969
-0.0238229
-0.0574385
0.0649321
-0.0201154
0.067978
-0.0159146
0.0705094
-0.0113856
0.072517
-0.00664248
0.0739882
-0.00175469
0.0748935
0.00322208
0.0751937
0.00823634
0.0748635
0.0131764
0.0179511
0.0604647
-0.0563531
-0.0279345
0.0640175
-0.0236683
0.0670437
-0.0189408
0.0695836
-0.0139254
0.0716392
-0.00869807
0.0732122
-0.00332775
0.0742708
0.00216352
0.0747596
0.00774751
0.0746702
0.0132658
0.0186512
0.0423228
0.0134145
-0.00813979
-0.0475974
0.0369643
0.0141551
-0.00879662
0.0315225
0.0150333
-0.00959153
0.0260134
0.0160971
-0.010588
0.0204808
0.0174053
-0.0118728
0.015019
0.0190092
-0.0135474
0.00980836
0.0209151
-0.0157044
0.00516659
0.0230099
-0.0183681
0.00162003
0.0249317
-0.0213851
0.0258527
-0.0242327
0.042098
0.018664
-0.0473475
0.0367631
0.0194899
0.0313447
0.0204518
0.025859
0.0215828
0.02035
0.0229143
0.0149127
0.0244465
0.00972858
0.0260992
0.00511642
0.027622
0.00160063
0.0284475
0.0274534
0.0415005
0.023858
-0.0466944
0.036221
0.0247694
0.0308595
0.0258133
0.025434
0.0270084
0.0199897
0.0283585
0.0146233
0.0298129
0.00951722
0.0312053
0.0049886
0.0321506
0.00155234
0.0318838
0.0290057
0.0405326
0.0289683
-0.0456428
0.0353385
0.0299634
0.0300671
0.0310847
0.0247383
0.0323372
0.0194001
0.0336968
0.0141513
0.0350616
0.00917526
0.0361814
0.00478464
0.0365412
0.001477
0.0351914
0.0304827
0.0391957
0.0339686
-0.044196
0.0341163
0.0350429
0.0289676
0.0362334
0.0237724
0.0375323
0.018582
0.0388872
0.0134983
0.0401454
0.00870473
0.0409749
0.00450654
0.0407394
0.00137584
0.0383221
0.0318585
0.0374889
0.0388338
-0.0423541
0.0325531
0.0399787
0.0275604
0.041226
0.0225369
0.0425558
0.0175374
0.0438867
0.012667
0.0450158
0.00810888
0.0455331
0.00415711
0.0446912
0.00125031
0.0412289
0.0331089
0.035405
0.0435383
-0.0401095
0.0306437
0.0447399
0.0258434
0.0460263
0.0210324
0.0473668
0.016269
0.0486501
0.0116619
0.0496229
0.00739254
0.0498025
0.00374039
0.0483434
0.00110242
0.0438669
0.0342113
0.032925
0.0480492
-0.0374359
0.028377
0.0492879
0.023813
0.0505903
0.0192604
0.0519194
0.0147819
0.0531286
0.0104898
0.053915
0.00656285
0.0537294
0.0032621
0.0516441
0.000935012
0.0461939
0.0351463
0.0300024
0.0523248
-0.034278
0.0257334
0.0535569
0.0214676
0.0548561
0.0172276
0.0561594
0.0130861
0.05727
0.00916197
0.0578392
0.00563036
0.057261
0.00273035
0.0545441
0.000752569
0.0481717
0.0358989
0.0265997
-0.0306279
0.0227181
0.0188179
0.0149473
0.0111982
0.00769517
0.00460994
0.00215667
0.000562222
0.0246205
-0.0358167
0.0400652
-0.028869
0.020642
-0.0356133
0.0395918
0.0168043
-0.0350808
0.0389185
0.0131331
-0.0340401
0.0377113
0.00970278
-0.0321658
0.0355961
0.0066109
-0.028983
0.0320749
0.00397185
-0.0238424
0.0264814
0.00190673
-0.0159011
0.0179662
0.000537026
-0.00411611
0.00548581
0.0128177
-0.0122807
0.0280637
-0.0314901
-0.0323903
0.0237915
-0.0313411
0.0196043
-0.0308936
0.0155438
-0.0299796
0.0116837
-0.0283056
0.0081265
-0.0254258
0.0050032
-0.0207191
0.0024723
-0.0133702
0.000722953
-0.00236676
0.0135407
0.0310903
-0.0270062
-0.0355743
0.0265871
-0.0268379
0.0221162
-0.0264226
0.0177282
-0.0255917
0.0134967
-0.0240741
0.00952771
-0.0214568
0.00596652
-0.0171579
0.00300582
-0.0104095
0.000899233
-0.000260173
0.0144399
0.0337277
-0.0223512
-0.0383827
0.0290293
-0.0221394
0.0243255
-0.0217188
0.0196643
-0.0209305
0.0151169
-0.0195267
0.0107908
-0.0171307
0.00684288
-0.01321
0.00349568
-0.00706231
0.00106285
0.00217265
0.0155028
0.0360159
-0.0175346
-0.0408326
0.0311432
-0.0172667
0.0262405
-0.0168161
0.0213486
-0.0160386
0.0165338
-0.0147119
0.0119025
-0.0124995
0.00761973
-0.0089272
0.00393333
-0.00337591
0.00121014
0.00489584
0.0167129
0.0379644
-0.0125704
-0.0429286
0.0329377
-0.01224
0.0278653
-0.0117437
0.0227797
-0.010953
0.0177414
-0.00967354
0.0128541
-0.00761224
0.00828814
-0.00436124
0.00431193
0.000600303
0.00133824
0.00786953
0.0180511
0.0395598
-0.00747928
-0.0446509
0.0344075
-0.00708771
0.0291965
-0.00653273
0.0239539
-0.00571039
0.0187344
-0.0044541
0.0136391
-0.00251685
0.00884136
0.000436449
0.00462629
0.00481537
0.00144482
0.011051
0.019496
0.040767
-0.00234033
-0.0459059
0.0355334
-0.00185413
0.030224
-0.00122333
0.0248647
-0.000351129
0.0195076
0.000902992
0.014252
0.00273884
0.00927426
0.00541415
0.00487245
0.00921719
0.00152809
0.0143954
0.021024
0.0416482
0.00287575
-0.0468643
0.0363451
0.00344899
0.0309603
0.00416151
0.0255158
0.00509335
0.0200601
0.00635872
0.0146899
0.00810902
0.00958335
0.0105207
0.00504773
0.0137528
0.00158693
0.0178562
0.022611
0.0421744
-0.0474385
0.0368268
0.0313968
0.0259021
0.0203881
0.0149497
0.00976598
0.00515071
0.00162174
0.0442247
0.0213507
-0.0255101
0.0477311
0.0174253
-0.0209318
0.0506519
0.0130009
-0.0159217
0.0530268
0.0082492
-0.0106241
0.0548443
0.00332321
-0.00514073
0.056129
-0.00166364
0.000378973
0.0567377
-0.00668359
0.00607486
0.0566881
-0.0115518
0.0116014
0.0559381
-0.0161455
0.0168956
-0.0203354
0.0544621
0.0218114
0.043457
0.0174855
0.0468695
0.0140129
0.0497334
0.0101369
0.0520095
0.00597313
0.0536796
0.00165312
0.0547264
-0.00271047
0.0550822
-0.0070394
0.0547259
-0.0111955
0.0536348
-0.0150544
-0.0184988
0.0517983
0.042502
0.013902
0.0456898
0.0108251
0.0483518
0.00747484
0.0504139
0.0039111
0.051833
0.000234
0.0525765
-0.00345396
0.0526006
-0.00706348
0.051883
-0.010478
0.0504159
-0.0135873
-0.016292
0.0482091
0.041021
0.0105923
0.0439031
0.007943
0.0462531
0.00512479
0.0479911
0.0021731
0.049063
-0.000837849
0.0494318
-0.00382277
0.0490661
-0.00669776
0.0479555
-0.00936733
0.0461102
-0.0117421
-0.0137449
0.0435631
0.0385888
0.00759966
0.0410992
0.00543254
0.0430519
0.0031721
0.0443789
0.000846143
0.0450297
-0.00148865
0.044974
-0.0037671
0.0441958
-0.00591956
0.0427021
-0.00787364
0.0405237
-0.00956371
-0.0109369
0.0377157
0.0346745
0.00499998
0.0367464
0.00336068
0.0382375
0.00168104
0.0391005
-1.69191e-05
0.0392983
-0.00168644
0.0388171
-0.00328587
0.03766
-0.00476248
0.0358538
-0.00606749
0.033449
-0.00715888
-0.00800607
0.0305182
0.0286022
0.00287923
0.0301792
0.0017837
0.0311794
0.000680803
0.0315743
-0.00041177
0.0313533
-0.00146548
0.0305185
-0.00245107
0.0290936
-0.00333759
0.027123
-0.00409684
0.0246709
-0.00470677
-0.005154
0.0218188
0.0195332
0.00131224
0.0205914
0.000725546
0.0211241
0.000148127
0.0211268
-0.000414546
0.020606
-0.000944615
0.0195824
-0.00142752
0.0180939
-0.00184905
0.016194
-0.00219693
0.0139501
-0.00246292
-0.00264413
0.0114403
0.00645225
0.000345796
0.0070185
0.000159298
0.00718715
-2.05249e-05
0.00696251
-0.0001899
0.00636417
-0.000346277
0.00542114
-0.000484486
0.00417278
-0.000600696
0.00266785
-0.000691991
0.000961977
-0.000757046
-0.000797192
-0.000884966
-0.0119349
-0.0117756
-0.0117961
-0.011986
-0.0123323
-0.0128168
-0.0134175
-0.0141095
-0.0148665
-0.0156637
0.0522529
-0.0240061
0.0262153
0.0493264
-0.0269993
0.0299258
0.0457322
-0.0292394
0.0328335
0.0415537
-0.0306777
0.0348562
0.0368998
-0.0313248
0.0359787
0.0318868
-0.0312513
0.0362643
0.0266067
-0.0305656
0.0358457
0.021074
-0.0293489
0.0348815
0.0151662
-0.0274655
0.0333734
-0.0239716
0.00840411
0.0307336
0.049228
-0.0214358
0.0459624
-0.0237337
0.0420737
-0.0253506
0.0376637
-0.0262677
0.0328532
-0.0265143
0.0277615
-0.0261596
0.0224785
-0.0252826
0.0170354
-0.0239058
0.0114344
-0.0218645
-0.0185575
0.00602034
0.0452973
-0.0185241
0.0417444
-0.0201807
0.0376438
-0.02125
0.0331127
-0.0217367
0.0282796
-0.0216812
0.0232666
-0.0211466
0.0181723
-0.0201883
0.0130715
-0.018805
0.00808009
-0.0168731
-0.0140905
0.00361309
0.0403723
-0.0153332
0.0366244
-0.0164329
0.0324295
-0.0170551
0.0279134
-0.0172205
0.0232056
-0.0169734
0.0184264
-0.0163674
0.0136798
-0.0154417
0.00906534
-0.0141905
0.00473198
-0.0125398
-0.0103616
0.00100312
0.0343558
-0.0119734
0.0305473
-0.0126244
0.0264079
-0.0129157
0.0220628
-0.0128754
0.0176342
-0.0125448
0.0132336
-0.0119667
0.00895983
-0.011168
0.0049137
-0.0101444
0.00123146
-0.00885753
-0.00726425
-0.00186594
0.0271509
-0.00860599
0.0234569
-0.0089304
0.019551
-0.00900982
0.0155476
-0.00887201
0.0115535
-0.00855074
0.00766325
-0.00807648
0.00396167
-0.00746639
0.000535125
-0.00671785
-0.00250991
-0.0058125
-0.00474085
-0.00503331
0.0186565
-0.00544365
0.0152889
-0.00556284
0.0118167
-0.00553766
0.00833478
-0.00539006
0.00492737
-0.00514332
0.00166719
-0.0048163
-0.00138095
-0.00441825
-0.00415193
-0.00394687
-0.00657123
-0.0033932
-0.00275725
-0.00855483
0.00874166
-0.00274505
0.00594289
-0.00276408
0.00312132
-0.00271609
0.000345897
-0.00261464
-0.00232503
-0.0024724
-0.00484274
-0.00229859
-0.0071642
-0.00209679
-0.00924633
-0.00186473
-0.0110418
-0.0015977
-0.00129682
-0.0125023
-0.00281873
-0.000811293
-0.00477824
-0.000804558
-0.00671499
-0.000779336
-0.00858838
-0.000741253
-0.0103663
-0.000694521
-0.012023
-0.000641811
-0.0135361
-0.000583693
-0.0148822
-0.00051868
-0.0160351
-0.000444744
-0.000363293
-0.0169687
-0.016475
-0.0172796
-0.0180589
-0.0188002
-0.0194947
-0.0201365
-0.0207202
-0.0212389
-0.0216836
-0.0220469
0.000262168
-0.0223091
0.00096236
-0.0176689
0.00206426
-0.0136042
0.00355966
-0.0100502
0.00544749
-0.00692114
0.00772327
-0.00414172
0.0103732
-0.00164681
0.0133634
0.00062294
0.0166452
0.00273852
0.00477782
0.0202715
0.000174851
-0.0224839
0.000650344
-0.0181443
0.00140977
-0.0143636
0.00245186
-0.0110923
0.00377654
-0.00824582
0.00538058
-0.00574577
0.0072586
-0.00352482
0.00940941
-0.00152787
0.0118732
0.000274695
0.0018444
0.0148067
9.41356e-05
-0.0225781
0.000367806
-0.018418
0.000827826
-0.0148236
0.00148661
-0.0117511
0.00235535
-0.00911456
0.00344535
-0.00683577
0.00477099
-0.00485047
0.00635604
-0.00311292
0.0082399
-0.00160916
-0.000378374
0.0104627
2.66167e-05
-0.0226047
0.00012244
-0.0185138
0.000330493
-0.0150317
0.000673402
-0.012094
0.00117308
-0.00961424
0.0018509
-0.00751359
0.00272895
-0.00572852
0.00383205
-0.00421602
0.00518321
-0.00296032
-0.00197673
0.00678157
-3.54149e-05
-0.0225693
-8.4007e-05
-0.0184652
-8.24633e-05
-0.0150332
4.36482e-06
-0.0121808
0.000206337
-0.00981621
0.000547938
-0.00785519
0.00104996
-0.00623054
0.00172872
-0.00489478
0.00259285
-0.00382445
-0.00301248
0.0036286
-9.23087e-05
-0.0224769
-0.000251048
-0.0183065
-0.000413161
-0.0148711
-0.000527702
-0.0120663
-0.000560452
-0.00978346
-0.000487567
-0.00792807
-0.000293311
-0.0064248
3.01514e-05
-0.00521824
0.00047605
-0.00427035
-0.00356279
0.00102637
-0.00013204
-0.0223449
-0.000380665
-0.0180579
-0.000664189
-0.0145876
-0.000926031
-0.0118044
-0.00113016
-0.00957934
-0.00125554
-0.00780269
-0.00129258
-0.00638775
-0.00124167
-0.00526916
-0.00111169
-0.00440033
-0.0037503
-0.000924185
-0.000160998
-0.0221839
-0.000471087
-0.0177478
-0.000833667
-0.014225
-0.00118743
-0.0114507
-0.00149632
-0.00927045
-0.00174254
-0.00755647
-0.00192168
-0.00620861
-0.00203954
-0.0051513
-0.00211055
-0.00432932
-0.00370375
-0.0021571
-0.000178783
-0.0220051
-0.000521325
-0.0174053
-0.000919338
-0.013827
-0.00130774
-0.0110623
-0.00165098
-0.00892721
-0.00193434
-0.00727311
-0.00215785
-0.00598509
-0.00233217
-0.00497699
-0.002476
-0.00418549
-0.00356468
-0.00261506
-0.000183696
-0.000530196
-0.000919994
-0.00128488
-0.00159002
-0.00182328
-0.00198824
-0.00209961
-0.00218
-0.00225794
-0.000862002
-0.0102064
0.00997416
0.00178268
-0.0131224
0.0104778
0.0054603
-0.0151253
0.0114477
0.00967685
-0.0173005
0.013084
0.0141512
-0.0185534
0.0140791
0.0185913
-0.0179727
0.0135326
0.0229241
-0.015478
0.0111453
0.0270885
-0.0111127
0.00694823
0.031081
-0.00573763
0.00174514
0.0348912
-0.00137386
-0.00243627
0.0385198
-0.000679337
-0.00294931
0.0418156
-0.00665872
0.00336294
0.0445948
-0.0201704
0.0173911
0.0465466
-0.03682
0.0348683
0.0479901
-0.0486243
0.0471808
0.0490759
-0.0322527
0.0311669
0.0505535
-0.00187998
0.000402434
0.0523451
0.0469887
-0.0487804
0.0548137
0.0434314
-0.0459
-0.00933108
0.00755492
0.00159733
-0.0109681
0.00442531
-0.0159504
0.00811873
-0.0188188
0.0122112
-0.0213929
0.0164783
-0.0228206
0.0206869
-0.0221813
0.0247959
-0.0195871
0.0287718
-0.0150886
0.0326216
-0.00958745
0.0363277
-0.00507993
0.0398641
-0.00421581
0.0430432
-0.00983776
0.045649
-0.0227762
0.0473721
-0.0385432
0.0485457
-0.0497979
0.0494131
-0.0331201
0.0507771
-0.00324402
0.0526394
0.0451264
0.0552383
0.0408325
-0.0111363
0.00486097
-0.0123507
0.00787451
-0.018964
0.0115342
-0.0224784
0.0154167
-0.0252755
0.0193839
-0.0267878
0.023274
-0.0260713
0.0270781
-0.0233912
0.0307899
-0.0188003
0.0344251
-0.0132227
0.0379591
-0.00861395
0.0413414
-0.00759813
0.0443544
-0.0128507
0.0467576
-0.0251794
0.0482474
-0.0400329
0.0491624
-0.050713
0.0498254
-0.0337831
0.0510807
-0.00449924
0.0530109
0.0431962
0.0557336
0.0381098
-0.0129832
0.00885546
-0.0144834
0.0119792
-0.0220877
0.0155275
-0.0260267
0.0191153
-0.0288633
0.022702
-0.0303745
0.0262036
-0.0295729
0.0296406
-0.0268283
0.0330303
-0.02219
0.0363944
-0.0165867
0.0397011
-0.0119207
0.0428785
-0.0107755
0.0456867
-0.0156589
0.047869
-0.0273618
0.0491315
-0.0412954
0.0498112
-0.0513927
0.0502946
-0.0342664
0.0514529
-0.00565754
0.0534504
0.0411986
0.056291
0.0352693
-0.0148858
0.0133944
-0.0174091
0.0165467
-0.02524
0.0198814
-0.0293614
0.0230918
-0.0320738
0.0262333
-0.033516
0.0292976
-0.0326372
0.0323281
-0.0298588
0.0353597
-0.0252215
0.0384157
-0.0196428
0.0414571
-0.0149621
0.0443937
-0.0137122
0.0469718
-0.018237
0.0489271
-0.0293171
0.0499796
-0.0423479
0.0504583
-0.0518714
0.0507969
-0.034605
0.0518781
-0.00673869
0.0539458
0.0391309
0.0569
0.0323151
-0.0168602
0.0182782
-0.021079
0.0213538
-0.0283157
0.0243526
-0.0323602
0.0271084
-0.0348295
0.0297595
-0.0361671
0.0323616
-0.0352393
0.0349716
-0.0324687
0.0376331
-0.027883
0.0403664
-0.0223761
0.0431241
-0.0177198
0.0458019
-0.0163899
0.0481398
-0.0205749
0.0498748
-0.0310521
0.050745
-0.043218
0.0510671
-0.0521936
0.0513054
-0.0348433
0.0523373
-0.00777057
0.0544825
0.0369857
0.0575492
0.0292484
-0.0189252
0.0232793
-0.0253169
0.026147
-0.0311834
0.0286792
-0.0348924
0.0309158
-0.0370661
0.0330551
-0.0383064
0.0351967
-0.0373809
0.0373983
-0.0346704
0.0397032
-0.0301879
0.0421228
-0.0247958
0.0445998
-0.0201968
0.0470192
-0.0188093
0.0491228
-0.0226785
0.050657
-0.0325863
0.0513821
-0.043943
0.0516001
-0.0524116
0.0517905
-0.0350337
0.0528087
-0.00878884
0.055044
0.0347504
0.0582263
0.0260662
-0.0211022
0.0281348
-0.0297544
0.0306324
-0.0336809
0.0325832
-0.0368432
0.0342617
-0.0387446
0.0358979
-0.0399425
0.0376092
-0.0390922
0.0394416
-0.0365029
0.0414281
-0.0321743
0.0435662
-0.0269339
0.0457871
-0.0224177
0.0479677
-0.02099
0.0498584
-0.0245692
0.0512231
-0.033951
0.0518482
-0.0445682
0.0520207
-0.052584
0.0522218
-0.0352348
0.0532691
-0.00983614
0.055613
0.0324065
0.0589184
0.0227607
-0.0234157
0.0326459
-0.0337883
0.0345465
-0.0355815
0.0358273
-0.038124
0.0369385
-0.0398558
0.038108
-0.0411121
0.0394421
-0.0404263
0.0409642
-0.0380249
0.0426887
-0.0338988
0.0445952
-0.0288404
0.0466015
-0.0244239
0.048579
-0.0229675
0.0502924
-0.0262826
0.0515296
-0.0351881
0.0521068
-0.0451453
0.0522966
-0.0527739
0.0525707
-0.0355089
0.053695
-0.0109604
0.0561713
0.0299302
0.0596128
0.0193192
-0.0258931
0.0369024
-0.0367489
0.037823
-0.036502
0.0383161
-0.0386172
0.0388671
-0.0404068
0.0396127
-0.0418577
0.0406253
-0.041439
0.0418956
-0.0392952
0.0434152
-0.0354185
0.0451426
-0.0305678
0.0469812
-0.0262625
0.0487997
-0.024786
0.0503807
-0.0278636
0.0515418
-0.0363492
0.052129
-0.0457325
0.0524028
-0.0530477
0.0528151
-0.0359212
0.0540653
-0.0122106
0.0567028
0.0272927
0.0602951
0.0157268
-0.028566
0.118231
-0.028156
-0.126824
0.113607
-0.0318778
0.110769
-0.0357787
0.108844
-0.038482
0.107302
-0.0403154
0.106172
-0.0403093
0.105463
-0.0385857
0.105288
-0.0352444
0.105755
-0.0310348
0.106862
-0.0273691
0.108429
-0.0263525
0.109925
-0.0293601
0.110658
-0.0370825
0.109984
-0.0450581
0.107854
-0.050918
0.105533
-0.0335994
0.104887
-0.011565
0.107799
0.0243808
0.112707
0.0108188
-0.031073
0.165453
-0.0174125
-0.176197
0.157176
-0.0236006
0.151145
-0.0297474
0.146649
-0.0339862
0.142991
-0.0366579
0.140091
-0.0374092
0.137885
-0.0363795
0.136433
-0.0337926
0.135798
-0.0303996
0.135927
-0.0274979
0.13659
-0.0270157
0.137202
-0.0299724
0.137038
-0.0369179
0.135441
-0.0434615
0.132351
-0.0478276
0.129227
-0.0304756
0.127987
-0.0103256
0.130943
0.0214251
0.135888
0.00587417
-0.0332826
0.216657
-0.00670207
-0.227367
0.207463
-0.0144073
0.199473
-0.0217571
0.192798
-0.0273115
0.187092
-0.0309517
0.18231
-0.0326268
0.17842
-0.0324902
0.175465
-0.0308374
0.173473
-0.0284077
0.172338
-0.0263628
0.171777
-0.0264548
0.171169
-0.0293641
0.169785
-0.0355341
0.167022
-0.0406982
0.162839
-0.0436444
0.158895
-0.0265318
0.157019
-0.00845032
0.159871
0.0185738
0.164485
0.00126016
-0.0348469
0.268045
0.00188277
-0.27663
0.260076
-0.00643828
0.252116
-0.0137973
0.244622
-0.019817
0.237773
-0.0241032
0.231688
-0.026542
0.226457
-0.0272584
0.222169
-0.0265493
0.218862
-0.0251011
0.216399
-0.0239001
0.21446
-0.0245155
0.212419
-0.0273231
0.209594
-0.0327089
0.205508
-0.0366121
0.200217
-0.0383533
0.195592
-0.0219073
0.193172
-0.00603022
0.195784
0.0159616
0.199584
-0.00253927
-0.0353253
0.317645
0.00713351
-0.322895
0.311838
-0.000631824
0.305447
-0.00740616
0.298672
-0.0130421
0.291976
-0.0174071
0.285667
-0.0202328
0.279946
-0.0215379
0.274968
-0.0215715
0.270805
-0.0209381
0.267319
-0.0204137
0.264172
-0.0213688
0.260779
-0.0239293
0.256544
-0.0284748
0.251199
-0.0312666
0.244974
-0.0321279
0.240007
-0.0169406
0.237328
-0.00335133
0.23965
0.01364
0.242149
-0.00503826
-0.0342339
0.366244
0.00931762
-0.368428
0.362875
0.00273726
0.358434
-0.00296515
0.353213
-0.00782141
0.347579
-0.0117735
0.341937
-0.0145899
0.336572
-0.0161739
0.331672
-0.0166711
0.327319
-0.0165846
0.323382
-0.0164776
0.319517
-0.017503
0.3152
-0.0196132
0.30994
-0.0232143
0.303711
-0.0250382
0.296945
-0.0253614
0.292143
-0.0121387
0.289688
-0.000896709
0.291829
0.0114995
0.292734
-0.00594316
-0.0311658
0.417089
0.0090752
-0.416846
0.415658
0.0041678
0.413009
-0.000316412
0.409378
-0.00418969
0.405038
-0.00743345
0.400365
-0.00991676
0.395697
-0.011506
0.391253
-0.0122277
0.387119
-0.0124502
0.383184
-0.012543
0.379098
-0.0134162
0.374418
-0.0149334
0.36872
-0.0175169
0.362207
-0.0185252
0.355417
-0.0185707
0.351291
-0.00801328
0.349603
0.000791196
0.351839
0.00926393
0.351252
-0.00535603
-0.0259567
0.473518
0.00713777
-0.471581
0.473715
0.00397129
0.472535
0.000863461
0.470225
-0.0018802
0.467019
-0.00422693
0.463211
-0.00610883
0.459136
-0.00743094
0.45506
-0.00815175
0.4511
-0.00849058
0.447208
-0.00865051
0.44306
-0.00926843
0.438322
-0.0101952
0.43261
-0.0118047
0.426302
-0.0122175
0.419877
-0.0121459
0.416664
-0.00480054
0.416075
0.00138025
0.418697
0.00664199
0.417139
-0.003798
-0.0187887
0.539366
0.00401293
-0.536241
0.54088
0.00245783
0.540896
0.000847203
0.539625
-0.000609611
0.537281
-0.00188286
0.5341
-0.00292753
0.530375
-0.0037061
0.5264
-0.00417697
0.522344
-0.00443474
0.518254
-0.00456038
0.513873
-0.00488676
0.508995
-0.00531732
0.50327
-0.00608039
0.497232
-0.00617875
0.491182
-0.00609668
0.488679
-0.00229683
0.489077
0.0009823
0.492192
0.00352629
0.490296
-0.00190123
-0.0100706
0.619804
-0.615791
0.622262
0.623109
0.622499
0.620617
0.617689
0.613983
0.609806
0.605371
0.600811
0.595924
0.590607
0.584526
0.578348
0.572251
0.569954
0.570936
0.574463
0.572561
0.167683
0.0228445
-0.166704
0.167887
0.0284143
0.167133
0.0336795
0.165234
0.0385075
0.162026
0.0427577
0.157397
0.0462954
0.151331
0.0490131
0.143962
0.0508585
0.135646
0.0518068
0.051613
0.191899
0.0208647
-0.18992
0.193569
0.0267446
0.194782
0.0324663
0.195369
0.0379211
0.195142
0.0429846
0.193913
0.0475237
0.191516
0.0514105
0.187829
0.0545459
0.182734
0.0569016
0.05815
0.217584
0.0183345
-0.215054
0.220231
0.024098
0.222899
0.0297979
0.225458
0.035362
0.227736
0.0407072
0.22952
0.0457392
0.230575
0.0503554
0.230674
0.0544469
0.229642
0.0579335
0.0604254
0.246087
0.0156712
-0.243423
0.249142
0.0210431
0.252547
0.0263928
0.256234
0.0316743
0.260107
0.036834
0.264037
0.0418095
0.267863
0.0465293
0.271397
0.0509132
0.274435
0.054896
0.0582299
0.278444
0.0130162
-0.275789
0.281668
0.0178191
0.285452
0.0226091
0.289774
0.0273527
0.294594
0.0320141
0.299849
0.0365537
0.30545
0.0409287
0.311272
0.0450913
0.317173
0.0489948
0.0525075
0.315471
0.0103983
-0.312853
0.318791
0.0144996
0.322811
0.0185889
0.327524
0.0226402
0.332912
0.0266261
0.338947
0.0305187
0.345587
0.0342884
0.352774
0.0379045
0.360434
0.0413348
0.0445134
0.35806
0.00782445
-0.355487
0.361458
0.0111022
0.365677
0.0143693
0.370713
0.0176046
0.376553
0.0207866
0.383177
0.0238938
0.390561
0.0269045
0.398669
0.0297969
0.407455
0.0325488
0.035122
0.407631
0.00527645
-0.405083
0.411125
0.00760742
0.415564
0.00993055
0.420938
0.0122304
0.427234
0.0144913
0.43443
0.0166978
0.4425
0.0188343
0.451411
0.0208858
0.461123
0.0228369
0.0246642
0.46632
0.00270243
-0.463746
0.469977
0.00395072
0.474712
0.00519543
0.480515
0.00642795
0.487366
0.00763962
0.495242
0.00882182
0.504111
0.00996606
0.513932
0.011064
0.524662
0.0121075
0.0130847
0.537533
-0.534831
0.541484
0.546679
0.553107
0.560747
0.569569
0.579535
0.590599
0.602706
0.143363
-0.0305841
-0.140713
0.146258
-0.0265641
0.149249
-0.0219317
0.152239
-0.0169151
0.15516
-0.0116194
0.157961
-0.00612866
0.160687
-0.000562172
0.163071
0.00536329
0.165118
0.0112187
0.017065
0.170818
-0.0322815
-0.16912
0.172651
-0.0283974
0.174577
-0.0238571
0.17661
-0.0189486
0.178737
-0.0137467
0.180946
-0.00833728
0.183158
-0.00277425
0.185487
0.00303415
0.187752
0.00895384
0.0148976
0.202257
-0.0326912
-0.201847
0.202873
-0.0290137
0.203625
-0.0246083
0.204554
-0.0198778
0.205701
-0.0148935
0.207076
-0.00971281
0.208668
-0.00436594
0.210573
0.00112871
0.212705
0.00682197
0.0125488
0.237336
-0.031747
-0.23828
0.236638
-0.0283149
0.236213
-0.0241842
0.236098
-0.0197625
0.236332
-0.015127
0.236935
-0.0103164
0.23792
-0.00535087
0.239347
-0.000298279
0.241175
0.00499417
0.0103006
0.276077
-0.0294973
-0.278326
0.274132
-0.0263701
0.272599
-0.0226516
0.27152
-0.0186833
0.270924
-0.0145306
0.27083
-0.0102233
0.271257
-0.00577744
0.272181
-0.0012218
0.273705
0.0034697
0.00821618
0.319136
-0.0259841
-0.32265
0.316025
-0.0232584
0.313448
-0.0200745
0.311451
-0.0166868
0.310061
-0.0131403
0.309296
-0.00945844
0.309175
-0.00565638
0.309708
-0.00175513
0.310935
0.00224247
0.00629814
0.367574
-0.0212397
-0.372319
0.36335
-0.019034
0.359774
-0.0164985
0.356892
-0.0138048
0.354732
-0.0109804
0.353317
-0.00804293
0.352666
-0.00500609
0.352798
-0.0018864
0.353735
0.00130472
0.00454696
0.422792
-0.0153079
-0.428724
0.417499
-0.0137403
0.412957
-0.0119572
0.409214
-0.0100615
0.406302
-0.00806855
0.40425
-0.0059904
0.403081
-0.00383797
0.402819
-0.00162348
0.403482
0.000641394
0.00294614
0.48692
-0.00822254
-0.494005
0.480578
-0.00739795
0.475083
-0.00646229
0.470486
-0.00546452
0.466829
-0.00441149
0.464148
-0.00330964
0.462475
-0.00216526
0.461837
-0.000985233
0.462256
0.000222694
0.00145547
0.563349
-0.571572
0.555951
0.549489
0.544024
0.539613
0.536303
0.534138
0.533153
0.533375
0.126771
0.00231554
-0.00222475
0.126516
0.00703593
-0.00678106
0.1261
0.0121556
-0.0117402
0.125528
0.0180558
-0.0174839