/*--------------------------------*- C++ -*----------------------------------*\
  =========                 |
  \\      /  F ield         | OpenFOAM: The Open Source CFD Toolbox
   \\    /   O peration     | Website:  https://openfoam.org
    \\  /    A nd           | Version:  6.0
     \\/     M anipulation  |
\*---------------------------------------------------------------------------*/
FoamFile
{
    version     2.0;
    format      ascii;
    class       volScalarField;
    location    "10.75";
    object      p;
}
// * * * * * * * * * * * * * * * * * * * * * * * * * * * * * * * * * * * * * //

dimensions      [0 2 -2 0 0 0 0];

internalField   nonuniform List<scalar> 
19200
(
-39.4995
-35.9146
-33.2949
-31.1259
-29.1213
-27.2767
-25.5779
-24.003
-22.5375
-21.1711
-19.8958
-18.7049
-17.5926
-16.5536
-15.5833
-14.6771
-13.8309
-13.0406
-12.3025
-11.613
-10.9685
-10.366
-9.80232
-9.27479
-8.78078
-8.31792
-7.88404
-7.47707
-7.09516
-6.73778
-39.8715
-36.2896
-33.6639
-31.4836
-29.4656
-27.6065
-25.8927
-24.303
-22.823
-21.4429
-20.1546
-18.9516
-17.828
-16.7787
-15.799
-14.8842
-14.0301
-13.2326
-12.4879
-11.7923
-11.1423
-10.5347
-9.96635
-9.43444
-8.93634
-8.46965
-8.03217
-7.62172
-7.23636
-6.87639
-40.2496
-36.6649
-34.032
-31.8404
-29.8088
-27.9352
-26.2064
-24.6018
-23.1073
-21.7134
-20.4121
-19.197
-18.0623
-17.0028
-16.0136
-15.0902
-14.2283
-13.4237
-12.6725
-11.9709
-11.3154
-10.7028
-10.1297
-9.59349
-9.09133
-8.62084
-8.17977
-7.76586
-7.37705
-7.01455
-40.6307
-37.041
-34.3995
-32.1962
-30.1509
-28.2625
-26.5187
-24.8991
-23.3902
-21.9824
-20.6682
-19.4411
-18.2952
-17.2255
-16.227
-15.2951
-14.4254
-13.6137
-12.8561
-12.1486
-11.4877
-10.87
-10.2923
-9.75179
-9.24561
-8.77134
-8.32671
-7.90933
-7.5171
-7.15213
-41.013
-37.4173
-34.7665
-32.551
-30.4918
-28.5885
-26.8294
-25.1948
-23.6714
-22.2498
-20.9227
-19.6835
-18.5266
-17.4468
-16.439
-15.4986
-14.6213
-13.8026
-13.0385
-12.3252
-11.6589
-11.0363
-10.454
-9.90923
-9.39907
-8.92106
-8.47289
-8.05207
-7.65642
-7.28907
-41.3954
-37.7933
-35.1325
-32.9046
-30.8312
-28.9128
-27.1384
-25.4887
-23.9507
-22.5154
-21.1754
-19.9243
-18.7563
-17.6664
-16.6494
-15.7007
-14.8157
-13.9901
-13.2197
-12.5006
-11.829
-11.2015
-10.6147
-10.0657
-9.5516
-9.06989
-8.61822
-8.19397
-7.79493
-7.42526
-41.7773
-38.1685
-35.4975
-33.2568
-31.1689
-29.2353
-27.4455
-25.7807
-24.2281
-22.779
-21.4261
-20.163
-18.9842
-17.8842
-16.8581
-15.9011
-15.0086
-14.1761
-13.3995
-12.6746
-11.9978
-11.3655
-10.7743
-10.2211
-9.7031
-9.21773
-8.76258
-8.33494
-7.93253
-7.56064
-42.1582
-38.5426
-35.861
-33.6073
-31.5048
-29.5558
-27.7505
-26.0704
-24.5033
-23.0404
-21.6746
-20.3997
-19.21
-18.1001
-17.0649
-16.0997
-15.1998
-14.3605
-13.5777
-12.8472
-12.1653
-11.5282
-10.9326
-10.3753
-9.85346
-9.36447
-8.9059
-8.47488
-8.06914
-7.6951
-42.5376
-38.915
-36.2228
-33.9558
-31.8385
-29.874
-28.0531
-26.3578
-24.776
-23.2994
-21.9208
-20.6341
-19.4335
-18.3138
-17.2697
-16.2964
-15.3891
-14.5431
-13.7542
-13.0182
-12.3312
-11.6894
-11.0895
-10.5282
-10.0025
-9.51
-9.04805
-8.6137
-8.20466
-7.82858
-42.9151
-39.2856
-36.5825
-34.3021
-32.1699
-30.1898
-28.3532
-26.6425
-25.0462
-23.5558
-22.1645
-20.866
-19.6547
-18.5252
-17.4723
-16.491
-15.5764
-14.7238
-13.929
-13.1875
-12.4954
-11.849
-11.2449
-10.6796
-10.1503
-9.65422
-9.18895
-8.7513
-8.33902
-7.96099
-43.2905
-39.654
-36.9398
-34.6458
-32.4986
-30.5028
-28.6504
-26.9245
-25.3135
-23.8094
-22.4054
-21.0953
-19.8733
-18.7342
-17.6725
-16.6832
-15.7615
-14.9025
-14.1017
-13.3548
-12.6579
-12.007
-11.3986
-10.8294
-10.2965
-9.79702
-9.32848
-8.88759
-8.47211
-8.09223
-43.6635
-40.0198
-37.2945
-34.9869
-32.8244
-30.8128
-28.9447
-27.2034
-25.5778
-24.06
-22.6434
-21.3217
-20.0892
-18.9405
-17.8702
-16.8731
-15.9443
-15.0788
-14.2723
-13.5201
-12.8183
-12.163
-11.5506
-10.9776
-10.4411
-9.93826
-9.46653
-9.02247
-8.60384
-8.22223
-44.0337
-40.3828
-37.6463
-35.3249
-33.1471
-31.1196
-29.2357
-27.479
-25.8388
-24.3075
-22.8782
-21.5451
-20.3021
-19.1439
-18.0651
-17.0603
-16.1245
-15.2528
-14.4405
-13.6832
-12.9767
-12.3171
-11.7006
-11.1239
-10.5839
-10.0778
-9.60299
-9.15581
-8.73411
-8.35089
-44.4008
-40.7427
-37.995
-35.6596
-33.4665
-31.423
-29.5232
-27.7511
-26.0964
-24.5515
-23.1098
-21.7652
-20.5119
-19.3444
-18.2571
-17.2447
-16.3021
-15.4242
-14.6064
-13.844
-13.1328
-12.4689
-11.8485
-11.2683
-10.7249
-10.2156
-9.73772
-9.28751
-8.86281
-8.4781
-44.7647
-41.0993
-38.3402
-35.9908
-33.7822
-31.7227
-29.807
-28.0196
-26.3504
-24.792
-23.3379
-21.982
-20.7185
-19.5417
-18.4461
-17.4262
-16.4768
-15.5929
-14.7695
-14.0022
-13.2865
-12.6184
-11.9943
-11.4104
-10.8638
-10.3514
-9.87059
-9.41743
-8.98981
-8.60376
-45.125
-41.4523
-38.6817
-36.3182
-34.0941
-32.0186
-30.0869
-28.2842
-26.6005
-25.0287
-23.5622
-22.1951
-20.9215
-19.7356
-18.6318
-17.6045
-16.6485
-15.7586
-14.9299
-14.1576
-13.4375
-12.7654
-12.1375
-11.5503
-11.0004
-10.4851
-10.0014
-9.54542
-9.11498
-8.72773
-45.4815
-41.8015
-39.0193
-36.6416
-34.4019
-32.3103
-30.3627
-28.5446
-26.8465
-25.2614
-23.7827
-22.4045
-21.1208
-19.9259
-18.814
-17.7795
-16.817
-15.9213
-15.0872
-14.3102
-13.5857
-12.9097
-12.2782
-11.6876
-11.1346
-10.6164
-10.1301
-9.67131
-9.23815
-8.84985
-45.8341
-42.1467
-39.3529
-36.9608
-34.7054
-32.5976
-30.6341
-28.8008
-27.0883
-25.4899
-23.9991
-22.6099
-21.3163
-20.1125
-18.9926
-17.951
-16.9821
-16.0806
-15.2414
-14.4596
-13.7309
-13.051
-12.416
-11.8222
-11.2662
-10.7453
-10.2563
-9.7949
-9.35913
-8.96995
-46.1826
-42.4877
-39.6821
-37.2756
-35.0044
-32.8804
-30.9009
-29.0524
-27.3256
-25.714
-24.2112
-22.8111
-21.5078
-20.2952
-19.1675
-18.1188
-17.1436
-16.2364
-15.3921
-14.6058
-13.8729
-13.1892
-12.5507
-11.9538
-11.395
-10.8713
-10.3799
-9.91596
-9.4777
-9.08779
-46.5268
-42.8244
-40.0068
-37.5858
-35.2987
-33.1585
-31.1631
-29.2993
-27.5583
-25.9336
-24.4189
-23.008
-21.695
-20.4738
-19.3383
-18.2827
-17.3013
-16.3885
-15.5392
-14.7484
-14.0114
-13.324
-12.6822
-12.0822
-11.5205
-10.9944
-10.5005
-10.0342
-9.59357
-9.20311
-46.8666
-43.1565
-40.3269
-37.8912
-35.5881
-33.4316
-31.4202
-29.5413
-27.7862
-26.1485
-24.6219
-23.2005
-21.8779
-20.6481
-19.505
-18.4426
-17.455
-16.5368
-15.6825
-14.8872
-14.1462
-13.4552
-12.81
-12.207
-11.6427
-11.114
-10.6179
-10.1493
-9.7064
-9.31555
-47.2021
-43.484
-40.6421
-38.1916
-35.8724
-33.6996
-31.6723
-29.7782
-28.009
-26.3584
-24.8202
-23.3882
-22.0562
-20.818
-19.6674
-18.5982
-17.6047
-16.681
-15.8218
-15.0221
-14.2771
-13.5825
-12.934
-12.328
-11.761
-11.23
-10.7316
-10.2609
-9.8158
-9.42467
-47.5333
-43.8069
-40.9524
-38.4867
-36.1514
-33.9622
-31.9189
-30.0098
-28.2267
-26.5633
-25.0136
-23.5712
-22.2299
-20.9834
-19.8254
-18.7496
-17.75
-16.821
-15.9569
-15.1528
-14.4039
-13.7056
-13.0539
-12.445
-11.8753
-11.3418
-10.8414
-10.3685
-9.92129
-9.52998
-47.8604
-44.1249
-41.2575
-38.7765
-36.4248
-34.2192
-32.16
-30.236
-28.439
-26.763
-25.2019
-23.7492
-22.3988
-21.1441
-19.9787
-18.8964
-17.8909
-16.9566
-16.0877
-15.2792
-14.5263
-13.8244
-13.1694
-12.5574
-11.985
-11.4492
-10.9466
-10.4717
-10.0224
-9.63107
-48.1836
-44.4381
-41.5573
-39.0607
-36.6924
-34.4704
-32.3954
-30.4565
-28.6458
-26.9574
-25.3849
-23.9223
-22.5628
-21.3001
-20.1275
-19.0387
-18.0274
-17.0877
-16.2141
-15.4012
-14.6442
-13.9386
-13.2801
-12.6651
-12.0899
-11.5515
-11.0467
-10.5697
-10.1183
-9.72721
-48.5031
-44.7461
-41.8513
-39.3389
-36.9541
-34.7155
-32.6248
-30.6711
-28.847
-27.1462
-25.5627
-24.0902
-22.7219
-21.4512
-20.2716
-19.1764
-18.1593
-17.2144
-16.3359
-15.5186
-14.7575
-14.048
-13.3861
-12.7677
-12.1895
-11.6484
-11.1411
-10.6618
-10.2082
-9.81665
-48.8201
-45.0491
-42.1394
-39.6109
-37.2093
-34.9543
-32.848
-30.8798
-29.0422
-27.3294
-25.7351
-24.2528
-22.8759
-21.5975
-20.4109
-19.3094
-18.2867
-17.3366
-16.4533
-15.6314
-14.8661
-14.1527
-13.487
-12.8652
-12.2837
-11.7396
-11.2297
-10.7479
-10.2915
-9.89784
-49.1391
-45.3482
-42.4211
-39.8759
-37.4574
-35.1861
-33.0644
-31.0819
-29.2314
-27.5068
-25.9019
-24.4102
-23.0248
-21.7389
-20.5455
-19.4379
-18.4095
-17.4542
-16.5661
-15.7398
-14.9702
-14.2527
-13.583
-12.9573
-12.3722
-11.8248
-11.3121
-10.8274
-10.3675
-9.97393
-49.4633
-45.6432
-42.6949
-40.1326
-37.6978
-35.4107
-33.274
-31.2776
-29.4143
-27.6783
-26.0631
-24.5622
-23.1686
-21.8754
-20.6754
-19.5618
-18.528
-17.5676
-16.6748
-15.8439
-15.0699
-14.3481
-13.6741
-13.0442
-12.4548
-11.9031
-11.3858
-10.8961
-10.4333
-10.0488
-49.7691
-45.9245
-42.9581
-40.3808
-37.931
-35.6289
-33.4777
-31.4677
-29.592
-27.8447
-26.2195
-24.7096
-23.308
-22.0076
-20.8012
-19.6818
-18.6426
-17.6773
-16.7797
-15.9443
-15.1659
-14.4397
-13.7613
-13.1266
-12.5321
-11.9745
-11.4494
-10.9509
-10.486
-10.1034
-54.1577
-54.1431
-54.1093
-54.0711
-54.0267
-53.9734
-53.9106
-53.8381
-53.7559
-53.6638
-53.5619
-53.4502
-53.3289
-53.1979
-53.0575
-52.9078
-52.749
-52.5813
-52.4048
-52.2199
-52.0267
-51.8254
-51.6164
-51.4
-51.1766
-50.9468
-50.7113
-50.4718
-50.2313
-49.9943
-50.1484
-50.1486
-50.1328
-50.1071
-50.0719
-50.0265
-49.9707
-49.9047
-49.8287
-49.7428
-49.6471
-49.5415
-49.4264
-49.3017
-49.1677
-49.0244
-48.8722
-48.711
-48.5413
-48.3631
-48.1766
-47.9822
-47.78
-47.5704
-47.3537
-47.1303
-46.9007
-46.6656
-46.4253
-46.1787
-46.9029
-46.9137
-46.911
-46.8963
-46.8707
-46.8345
-46.7879
-46.7311
-46.6642
-46.5875
-46.501
-46.4048
-46.2991
-46.184
-46.0598
-45.9264
-45.7842
-45.6332
-45.4737
-45.3058
-45.1297
-44.9458
-44.754
-44.5548
-44.3483
-44.1348
-43.9144
-43.6872
-43.4529
-43.2102
-43.9986
-44.017
-44.0235
-44.0183
-44.0021
-43.9754
-43.9385
-43.8915
-43.8346
-43.768
-43.6918
-43.6062
-43.5112
-43.4071
-43.2939
-43.1719
-43.0412
-42.9019
-42.7542
-42.5984
-42.4344
-42.2627
-42.0832
-41.8963
-41.702
-41.5004
-41.2917
-41.0758
-40.8524
-40.6209
-41.2171
-41.2416
-41.2555
-41.2583
-41.2505
-41.2325
-41.2045
-41.1668
-41.1195
-41.0627
-40.9965
-40.9212
-40.8369
-40.7437
-40.6417
-40.5311
-40.412
-40.2847
-40.1492
-40.0057
-39.8543
-39.6953
-39.5287
-39.3546
-39.1733
-38.9848
-38.789
-38.586
-38.3756
-38.1575
-38.6025
-38.6317
-38.6512
-38.6604
-38.6595
-38.6488
-38.6284
-38.5987
-38.5597
-38.5117
-38.4546
-38.3887
-38.3141
-38.2309
-38.1394
-38.0395
-37.9314
-37.8154
-37.6915
-37.5598
-37.4206
-37.2739
-37.1198
-36.9585
-36.7901
-36.6146
-36.4319
-36.2422
-36.0453
-35.841
-36.171
-36.2035
-36.2271
-36.241
-36.2452
-36.2401
-36.2259
-36.2027
-36.1707
-36.1299
-36.0806
-36.0228
-35.9566
-35.8823
-35.7999
-35.7095
-35.6114
-35.5056
-35.3922
-35.2714
-35.1433
-35.008
-34.8657
-34.7164
-34.5601
-34.397
-34.2271
-34.0503
-33.8666
-33.6758
-33.9183
-33.9528
-33.9789
-33.9959
-34.0038
-34.0029
-33.9933
-33.9751
-33.9485
-33.9136
-33.8705
-33.8194
-33.7603
-33.6934
-33.6188
-33.5367
-33.4471
-33.3502
-33.2461
-33.1349
-33.0167
-32.8917
-32.76
-32.6215
-32.4765
-32.3248
-32.1667
-32.0019
-31.8306
-31.6527
-31.8379
-31.8732
-31.9006
-31.9194
-31.9297
-31.9315
-31.9251
-31.9106
-31.8881
-31.8577
-31.8195
-31.7737
-31.7203
-31.6595
-31.5914
-31.5161
-31.4337
-31.3444
-31.2482
-31.1453
-31.0358
-30.9198
-30.7974
-30.6686
-30.5335
-30.3922
-30.2447
-30.091
-29.931
-29.7649
-29.9213
-29.9565
-29.9841
-30.0037
-30.0151
-30.0186
-30.0144
-30.0024
-29.9828
-29.9557
-29.9212
-29.8795
-29.8305
-29.7746
-29.7117
-29.642
-29.5655
-29.4825
-29.393
-29.2972
-29.1951
-29.0868
-28.9725
-28.8522
-28.7259
-28.5938
-28.4558
-28.3119
-28.1622
-28.0066
-28.1579
-28.1922
-28.2194
-28.2389
-28.2507
-28.255
-28.2519
-28.2415
-28.2239
-28.1991
-28.1673
-28.1286
-28.0831
-28.0309
-27.9722
-27.9069
-27.8354
-27.7575
-27.6736
-27.5837
-27.4878
-27.3861
-27.2788
-27.1658
-27.0472
-26.923
-26.7934
-26.6583
-26.5176
-26.3715
-26.5363
-26.5693
-26.5954
-26.6142
-26.6258
-26.6302
-26.6276
-26.618
-26.6016
-26.5783
-26.5484
-26.512
-26.469
-26.4197
-26.3642
-26.3025
-26.2348
-26.1613
-26.0819
-25.9968
-25.9062
-25.8102
-25.7087
-25.602
-25.49
-25.3729
-25.2506
-25.1232
-24.9906
-24.8529
-25.0447
-25.076
-25.1007
-25.1185
-25.1294
-25.1334
-25.1308
-25.1215
-25.1056
-25.0833
-25.0547
-25.0198
-24.9787
-24.9316
-24.8786
-24.8197
-24.7551
-24.685
-24.6093
-24.5284
-24.4421
-24.3508
-24.2544
-24.153
-24.0468
-23.9357
-23.8199
-23.6992
-23.5738
-23.4435
-23.6717
-23.7011
-23.7242
-23.7407
-23.7505
-23.7539
-23.7508
-23.7414
-23.7258
-23.704
-23.6761
-23.6422
-23.6025
-23.557
-23.5059
-23.4493
-23.3872
-23.3198
-23.2472
-23.1696
-23.0871
-22.9997
-22.9076
-22.8108
-22.7095
-22.6038
-22.4935
-22.3789
-22.2597
-22.1361
-22.4064
-22.4338
-22.4551
-22.4701
-22.4788
-22.4812
-22.4776
-22.4678
-22.452
-22.4304
-22.4029
-22.3698
-22.331
-22.2868
-22.2371
-22.1822
-22.1221
-22.057
-21.9869
-21.9121
-21.8326
-21.7486
-21.6602
-21.5674
-21.4704
-21.3693
-21.264
-21.1547
-21.0411
-20.9235
-21.2386
-21.264
-21.2836
-21.2971
-21.3044
-21.3059
-21.3014
-21.2911
-21.275
-21.2533
-21.2261
-21.1933
-21.1552
-21.1119
-21.0633
-21.0098
-20.9513
-20.888
-20.8201
-20.7476
-20.6707
-20.5896
-20.5043
-20.415
-20.3217
-20.2246
-20.1238
-20.0192
-19.9107
-19.7984
-20.1591
-20.1826
-20.2004
-20.2123
-20.2184
-20.2187
-20.2134
-20.2024
-20.186
-20.1641
-20.1368
-20.1043
-20.0667
-20.024
-19.9763
-19.9239
-19.8667
-19.8049
-19.7388
-19.6683
-19.5936
-19.5149
-19.4323
-19.346
-19.2561
-19.1626
-19.0657
-18.9653
-18.8614
-18.754
-19.1595
-19.181
-19.1971
-19.2076
-19.2123
-19.2116
-19.2054
-19.1938
-19.1768
-19.1547
-19.1273
-19.0949
-19.0576
-19.0154
-18.9684
-18.9169
-18.8608
-18.8003
-18.7356
-18.6668
-18.594
-18.5175
-18.4373
-18.3536
-18.2665
-18.1763
-18.0829
-17.9864
-17.8867
-17.7839
-18.2321
-18.2519
-18.2664
-18.2753
-18.2789
-18.2771
-18.27
-18.2577
-18.2402
-18.2178
-18.1903
-18.1579
-18.1208
-18.079
-18.0326
-17.9818
-17.9266
-17.8672
-17.8038
-17.7364
-17.6653
-17.5906
-17.5125
-17.4311
-17.3467
-17.2593
-17.1691
-17.0761
-16.9804
-16.8818
-17.3703
-17.3884
-17.4013
-17.4089
-17.4113
-17.4084
-17.4005
-17.3876
-17.3696
-17.3468
-17.3192
-17.2868
-17.2498
-17.2083
-17.1624
-17.1122
-17.0578
-16.9994
-16.9371
-16.871
-16.8013
-16.7282
-16.6519
-16.5726
-16.4905
-16.4057
-16.3184
-16.2287
-16.1366
-16.042
-16.5679
-16.5844
-16.5959
-16.6022
-16.6035
-16.5997
-16.591
-16.5774
-16.559
-16.5358
-16.508
-16.4756
-16.4388
-16.3976
-16.3521
-16.3024
-16.2487
-16.1911
-16.1298
-16.0648
-15.9964
-15.9248
-15.8501
-15.7726
-15.6925
-15.61
-15.5254
-15.4387
-15.3501
-15.2594
-15.8196
-15.8346
-15.8447
-15.8499
-15.8501
-15.8455
-15.836
-15.8219
-15.803
-15.7795
-15.7516
-15.7192
-15.6824
-15.6414
-15.5963
-15.5471
-15.4941
-15.4372
-15.3768
-15.3128
-15.2455
-15.1751
-15.1018
-15.0259
-14.9476
-14.8672
-14.785
-14.7012
-14.6158
-14.5289
-15.1205
-15.1342
-15.1431
-15.1471
-15.1464
-15.141
-15.1309
-15.1161
-15.0969
-15.0731
-15.045
-15.0126
-14.976
-14.9352
-14.8904
-14.8417
-14.7892
-14.733
-14.6733
-14.6103
-14.544
-14.4747
-14.4027
-14.3281
-14.2514
-14.1728
-14.0927
-14.0115
-13.9293
-13.8461
-14.4664
-14.4788
-14.4866
-14.4897
-14.4881
-14.4819
-14.4712
-14.456
-14.4363
-14.4124
-14.3841
-14.3517
-14.3152
-14.2746
-14.2302
-14.1819
-14.1299
-14.0744
-14.0154
-13.9531
-13.8877
-13.8194
-13.7484
-13.6751
-13.5997
-13.5227
-13.4445
-13.3656
-13.2864
-13.2069
-13.8535
-13.8648
-13.8715
-13.8737
-13.8713
-13.8644
-13.8531
-13.8375
-13.8176
-13.7934
-13.765
-13.7326
-13.6962
-13.6559
-13.6117
-13.5639
-13.5124
-13.4574
-13.3991
-13.3375
-13.2729
-13.2055
-13.1354
-13.063
-12.9887
-12.913
-12.8364
-12.7595
-12.6831
-12.6075
-13.2784
-13.2886
-13.2944
-13.2957
-13.2925
-13.2851
-13.2733
-13.2572
-13.237
-13.2126
-13.1842
-13.1518
-13.1155
-13.0754
-13.0315
-12.984
-12.933
-12.8786
-12.8208
-12.7599
-12.696
-12.6293
-12.56
-12.4884
-12.4149
-12.3401
-12.2646
-12.1895
-12.1155
-12.0439
-12.7381
-12.7473
-12.7521
-12.7526
-12.7488
-12.7407
-12.7285
-12.712
-12.6915
-12.667
-12.6384
-12.606
-12.5698
-12.5298
-12.4862
-12.439
-12.3884
-12.3344
-12.2771
-12.2168
-12.1534
-12.0872
-12.0185
-11.9474
-11.8745
-11.8002
-11.7253
-11.6512
-11.579
-11.511
-12.2298
-12.2381
-12.2423
-12.2422
-12.2378
-12.2293
-12.2167
-12.2
-12.1793
-12.1547
-12.1261
-12.0938
-12.0577
-12.0179
-11.9746
-11.9277
-11.8774
-11.8239
-11.7671
-11.7071
-11.6443
-11.5786
-11.5102
-11.4395
-11.3668
-11.2927
-11.2179
-11.1443
-11.073
-11.0076
-11.7508
-11.7587
-11.7625
-11.7622
-11.7577
-11.7492
-11.7366
-11.7201
-11.6996
-11.6753
-11.6472
-11.6153
-11.5798
-11.5407
-11.4981
-11.4521
-11.4027
-11.35
-11.2942
-11.2354
-11.1735
-11.1089
-11.0416
-10.9718
-10.8998
-10.8262
-10.7517
-10.6787
-10.6086
-10.5483
-11.2993
-11.3057
-11.3081
-11.3066
-11.3011
-11.2917
-11.2785
-11.2614
-11.2407
-11.2162
-11.1881
-11.1565
-11.1213
-11.0827
-11.0408
-10.9956
-10.9471
-10.8956
-10.841
-10.7834
-10.723
-10.6598
-10.5939
-10.5255
-10.4548
-10.382
-10.3078
-10.2341
-10.1619
-10.1145
-48.8448
-49.151
-49.4357
-49.7236
-50.0112
-50.2935
-50.5688
-50.8363
-51.0956
-51.346
-51.5869
-51.8179
-52.0387
-52.2491
-52.4487
-52.6374
-52.815
-52.9814
-53.1365
-53.2801
-53.4124
-53.5332
-53.6425
-53.7405
-53.8273
-53.9032
-53.9685
-54.0242
-54.0721
-54.115
-44.7807
-45.1015
-45.4063
-45.7049
-45.9975
-46.2824
-46.5589
-46.8269
-47.0862
-47.3364
-47.5771
-47.808
-48.0289
-48.2396
-48.4397
-48.6291
-48.8077
-48.9753
-49.1319
-49.2773
-49.4115
-49.5344
-49.6461
-49.7467
-49.8362
-49.9147
-49.9826
-50.0401
-50.0875
-50.1238
-41.4893
-41.8121
-42.123
-42.4242
-42.7169
-43.0013
-43.2771
-43.5443
-43.8027
-44.0521
-44.2922
-44.5228
-44.7437
-44.9546
-45.1553
-45.3457
-45.5256
-45.6948
-45.8534
-46.0011
-46.138
-46.264
-46.379
-46.4832
-46.5764
-46.6588
-46.7303
-46.791
-46.8405
-46.878
-38.5796
-38.8967
-39.2046
-39.5028
-39.7923
-40.0734
-40.3463
-40.6107
-40.8665
-41.1136
-41.3516
-41.5805
-41.8
-42.0098
-42.21
-42.4002
-42.5803
-42.7503
-42.9099
-43.0592
-43.198
-43.3263
-43.444
-43.5512
-43.6477
-43.7337
-43.8089
-43.8733
-43.9267
-43.9686
-35.8421
-36.1503
-36.451
-36.7431
-37.0269
-37.3026
-37.5702
-37.8298
-38.081
-38.3238
-38.5579
-38.7832
-38.9996
-39.2068
-39.4046
-39.593
-39.7718
-39.9409
-40.1001
-40.2495
-40.3888
-40.518
-40.6372
-40.7462
-40.8449
-40.9334
-41.0115
-41.0791
-41.1362
-41.1823
-33.318
-33.6158
-33.9074
-34.1912
-34.4671
-34.7354
-34.996
-35.2488
-35.4937
-35.7305
-35.9591
-36.1793
-36.3909
-36.5938
-36.7878
-36.9728
-37.1487
-37.3154
-37.4726
-37.6205
-37.7588
-37.8875
-38.0066
-38.116
-38.2155
-38.3052
-38.385
-38.4548
-38.5145
-38.5639
-31.0157
-31.3025
-31.5836
-31.8576
-32.1243
-32.3838
-32.636
-32.8808
-33.1181
-33.3477
-33.5694
-33.7832
-33.9888
-34.1861
-34.375
-34.5554
-34.727
-34.8899
-35.0439
-35.1889
-35.3248
-35.4517
-35.5693
-35.6777
-35.7767
-35.8664
-35.9466
-36.0173
-36.0784
-36.1297
-28.9212
-29.1964
-29.4665
-29.73
-29.9867
-30.2366
-30.4797
-30.7157
-30.9446
-31.1661
-31.3802
-31.5866
-31.7853
-31.9762
-32.159
-32.3336
-32.5001
-32.6581
-32.8077
-32.9488
-33.0813
-33.2051
-33.3201
-33.4264
-33.5238
-33.6122
-33.6917
-33.7622
-33.8235
-33.8757
-27.018
-27.2817
-27.5406
-27.7935
-28.0399
-28.2799
-28.5134
-28.7402
-28.9602
-29.1733
-29.3792
-29.5779
-29.7691
-29.9529
-30.129
-30.2974
-30.4579
-30.6104
-30.7549
-30.8913
-31.0195
-31.1394
-31.251
-31.3542
-31.449
-31.5354
-31.6132
-31.6824
-31.743
-31.795
-25.2892
-25.5416
-25.7896
-26.0318
-26.268
-26.4981
-26.722
-26.9396
-27.1507
-27.3551
-27.5527
-27.7433
-27.9269
-28.1033
-28.2725
-28.4342
-28.5884
-28.735
-28.8739
-29.0051
-29.1285
-29.244
-29.3515
-29.4511
-29.5427
-29.6262
-29.7016
-29.7689
-29.828
-29.8789
-23.7173
-23.959
-24.1963
-24.4282
-24.6544
-24.8749
-25.0895
-25.298
-25.5002
-25.6961
-25.8855
-26.0682
-26.2441
-26.4131
-26.5751
-26.7301
-26.8778
-27.0183
-27.1515
-27.2772
-27.3955
-27.5063
-27.6094
-27.705
-27.7929
-27.8732
-27.9457
-28.0105
-28.0675
-28.1168
-22.2856
-22.5171
-22.7444
-22.9665
-23.1832
-23.3944
-23.6
-23.7997
-23.9934
-24.181
-24.3624
-24.5373
-24.7057
-24.8675
-25.0225
-25.1708
-25.3121
-25.4465
-25.5739
-25.6941
-25.8072
-25.9131
-26.0117
-26.103
-26.1871
-26.2638
-26.3331
-26.3951
-26.4496
-26.4968
-20.979
-21.2008
-21.4186
-21.6314
-21.8391
-22.0415
-22.2386
-22.4299
-22.6156
-22.7953
-22.9689
-23.1364
-23.2975
-23.4523
-23.6006
-23.7424
-23.8775
-24.0059
-24.1275
-24.2423
-24.3502
-24.4512
-24.5453
-24.6324
-24.7125
-24.7855
-24.8515
-24.9105
-24.9623
-25.0072
-19.7833
-19.9962
-20.205
-20.4092
-20.6085
-20.8027
-20.9916
-21.1752
-21.3531
-21.5253
-21.6917
-21.852
-22.0063
-22.1544
-22.2963
-22.4318
-22.5609
-22.6835
-22.7996
-22.9091
-23.012
-23.1083
-23.1979
-23.2808
-23.3569
-23.4263
-23.4889
-23.5448
-23.5939
-23.6363
-18.6865
-18.8909
-19.0915
-19.2876
-19.479
-19.6655
-19.8469
-20.0231
-20.1938
-20.359
-20.5185
-20.6721
-20.8199
-20.9617
-21.0974
-21.227
-21.3504
-21.4675
-21.5783
-21.6828
-21.7809
-21.8726
-21.9579
-22.0367
-22.109
-22.1748
-22.2341
-22.287
-22.3333
-22.3732
-17.6775
-17.8742
-18.0671
-18.2557
-18.4398
-18.6191
-18.7935
-18.9628
-19.1268
-19.2854
-19.4384
-19.5858
-19.7274
-19.8633
-19.9932
-20.1172
-20.2352
-20.3471
-20.453
-20.5527
-20.6462
-20.7335
-20.8147
-20.8895
-20.9582
-21.0206
-21.0767
-21.1266
-21.1702
-21.2076
-16.7471
-16.9365
-17.1223
-17.304
-17.4813
-17.6539
-17.8218
-17.9847
-18.1424
-18.2948
-18.4418
-18.5833
-18.7192
-18.8495
-18.974
-19.0927
-19.2057
-19.3127
-19.4138
-19.509
-19.5982
-19.6814
-19.7587
-19.8298
-19.895
-19.9541
-20.0072
-20.0542
-20.0952
-20.1303
-15.887
-16.0696
-16.2488
-16.4241
-16.5951
-16.7616
-16.9235
-17.0804
-17.2322
-17.3789
-17.5203
-17.6563
-17.7868
-17.9118
-18.0312
-18.145
-18.2532
-18.3556
-18.4523
-18.5432
-18.6284
-18.7078
-18.7813
-18.849
-18.9108
-18.9669
-19.017
-19.0614
-19.0999
-19.1327
-15.0899
-15.2662
-15.4393
-15.6087
-15.774
-15.9348
-16.091
-16.2424
-16.3888
-16.5301
-16.6662
-16.797
-16.9225
-17.0426
-17.1572
-17.2664
-17.3701
-17.4682
-17.5608
-17.6477
-17.7291
-17.8048
-17.8749
-17.9393
-17.9981
-18.0512
-18.0987
-18.1405
-18.1767
-18.2073
-14.3495
-14.52
-14.6876
-14.8515
-15.0115
-15.1671
-15.3181
-15.4643
-15.6056
-15.7419
-15.873
-15.999
-16.1197
-16.2352
-16.3454
-16.4502
-16.5497
-16.6438
-16.7325
-16.8157
-16.8935
-16.9658
-17.0327
-17.094
-17.1499
-17.2003
-17.2452
-17.2847
-17.3187
-17.3473
-13.6605
-13.8254
-13.9879
-14.147
-14.3021
-14.4528
-14.599
-14.7404
-14.8769
-15.0084
-15.1349
-15.2563
-15.3726
-15.4838
-15.5898
-15.6906
-15.7861
-15.8764
-15.9615
-16.0412
-16.1157
-16.1848
-16.2486
-16.3071
-16.3603
-16.4082
-16.4507
-16.4879
-16.5199
-16.5466
-13.0178
-13.1776
-13.3355
-13.4902
-13.6408
-13.7871
-13.9287
-14.0656
-14.1976
-14.3247
-14.4468
-14.5639
-14.676
-14.7831
-14.8852
-14.9821
-15.074
-15.1607
-15.2424
-15.3189
-15.3902
-15.4564
-15.5174
-15.5732
-15.6239
-15.6693
-15.7097
-15.7448
-15.7749
-15.7998
-12.417
-12.5721
-12.7261
-12.8769
-13.0234
-13.1655
-13.3029
-13.4355
-13.5633
-13.6861
-13.8041
-13.9172
-14.0254
-14.1286
-14.2269
-14.3203
-14.4087
-14.4921
-14.5706
-14.644
-14.7124
-14.7758
-14.8342
-14.8875
-14.9358
-14.9791
-15.0174
-15.0506
-15.0789
-15.1022
-11.854
-12.0049
-12.1558
-12.3031
-12.446
-12.5842
-12.7176
-12.8462
-12.9699
-13.0888
-13.2029
-13.3121
-13.4165
-13.5162
-13.611
-13.701
-13.7861
-13.8664
-13.9419
-14.0124
-14.0781
-14.1389
-14.1949
-14.2459
-14.292
-14.3332
-14.3696
-14.4011
-14.4277
-14.4495
-11.3252
-11.4725
-11.6212
-11.7658
-11.9052
-12.0398
-12.1695
-12.2942
-12.4141
-12.5292
-12.6395
-12.7451
-12.846
-12.9422
-13.0337
-13.1205
-13.2026
-13.28
-13.3526
-13.4205
-13.4837
-13.542
-13.5957
-13.6445
-13.6886
-13.7279
-13.7625
-13.7923
-13.8174
-13.8379
-10.8272
-10.9725
-11.1203
-11.2624
-11.3987
-11.5299
-11.6559
-11.7769
-11.8931
-12.0045
-12.1112
-12.2134
-12.3109
-12.4039
-12.4922
-12.576
-12.6552
-12.7298
-12.7998
-12.8651
-12.9259
-12.982
-13.0334
-13.0802
-13.1224
-13.1599
-13.1928
-13.2211
-13.2448
-13.2639
-10.3536
-10.5011
-10.6504
-10.7903
-10.9235
-11.0513
-11.1738
-11.2912
-11.4038
-11.5117
-11.615
-11.7138
-11.8082
-11.8981
-11.9835
-12.0644
-12.1409
-12.2128
-12.2803
-12.3433
-12.4017
-12.4557
-12.5051
-12.55
-12.5904
-12.6263
-12.6576
-12.6845
-12.7068
-12.7247
-9.89181
-10.0472
-10.2023
-10.341
-10.4713
-10.5961
-10.7154
-10.8295
-10.9388
-11.0436
-11.144
-11.2399
-11.3315
-11.4187
-11.5015
-11.58
-11.6541
-11.7239
-11.7892
-11.8502
-11.9067
-11.9589
-12.0066
-12.0499
-12.0888
-12.1233
-12.1534
-12.1791
-12.2004
-12.2173
-9.43877
-9.60445
-9.76984
-9.90959
-10.0379
-10.16
-10.2765
-10.3878
-10.4944
-10.5966
-10.6944
-10.7879
-10.8771
-10.9621
-11.0428
-11.1193
-11.1914
-11.2593
-11.323
-11.3823
-11.4373
-11.4881
-11.5345
-11.5766
-11.6144
-11.6479
-11.677
-11.7019
-11.7225
-11.7388
-9.0809
-9.25714
-9.42016
-9.55899
-9.68325
-9.79969
-9.91082
-10.017
-10.1186
-10.2159
-10.309
-10.3979
-10.4826
-10.5632
-10.6396
-10.7119
-10.78
-10.844
-10.9039
-10.9596
-11.0112
-11.0586
-11.1019
-11.1411
-11.176
-11.2069
-11.2336
-11.2562
-11.2747
-11.2891
-4.57674
-4.8575
-5.1571
-5.47588
-5.81555
-6.17791
-6.56481
-6.97828
-7.42065
-7.89456
-8.40303
-8.94954
-9.53813
-10.1735
-10.8613
-11.6079
-12.4211
-13.3101
-14.2857
-15.3608
-16.5504
-17.8722
-19.3465
-20.9957
-22.8455
-24.9239
-27.2425
-29.785
-32.7832
-36.6424
-4.73203
-5.01728
-5.3198
-5.64197
-5.98547
-6.35191
-6.74314
-7.16126
-7.60862
-8.0879
-8.60215
-9.15491
-9.75025
-10.393
-11.0886
-11.8438
-12.6664
-13.5655
-14.5522
-15.6392
-16.8418
-18.1776
-19.6668
-21.332
-23.1984
-25.2937
-27.6287
-30.1855
-33.192
-37.0488
-4.88817
-5.17792
-5.4834
-5.80904
-6.15643
-6.52701
-6.92265
-7.34549
-7.79791
-8.28263
-8.80275
-9.36184
-9.96402
-10.6141
-11.3178
-12.0817
-12.9137
-13.8231
-14.8209
-15.92
-17.1357
-18.4856
-19.9899
-21.6709
-23.5538
-25.6656
-28.0163
-30.5862
-33.5988
-37.4501
-5.04497
-5.33924
-5.64771
-5.97687
-6.32822
-6.70301
-7.10312
-7.53072
-7.98827
-8.4785
-9.00455
-9.57002
-10.1791
-10.8367
-11.5484
-12.3211
-13.1626
-14.0823
-15.0912
-16.2025
-17.4313
-18.7953
-20.3147
-22.0116
-23.9108
-26.0389
-28.4049
-30.9879
-34.0089
-37.8602
-5.20233
-5.5011
-5.8126
-6.14536
-6.50073
-6.87978
-7.28441
-7.71685
-8.17957
-8.67536
-9.20739
-9.77931
-10.3953
-11.0604
-11.7803
-12.5618
-13.4129
-14.3429
-15.3631
-16.4866
-17.7285
-19.1067
-20.6411
-22.3538
-24.2693
-26.4135
-28.7948
-31.3913
-34.4221
-38.2769
-5.36013
-5.66339
-5.97797
-6.31438
-6.67382
-7.05719
-7.46639
-7.90372
-8.37168
-8.87309
-9.41115
-9.98957
-10.6126
-11.2853
-12.0134
-12.8037
-13.6644
-14.6049
-15.6364
-16.772
-18.0271
-19.4194
-20.9689
-22.6974
-24.6291
-26.7895
-29.1862
-31.7961
-34.8372
-38.6969
-5.51825
-5.82598
-6.14366
-6.48378
-6.84737
-7.23511
-7.64894
-8.09121
-8.56445
-9.07152
-9.61568
-10.2006
-10.8308
-11.511
-12.2474
-13.0466
-13.917
-14.8679
-15.9107
-17.0587
-18.327
-19.7335
-21.298
-23.0423
-24.9902
-27.1668
-29.5788
-32.2022
-35.2537
-39.1192
-5.67658
-5.98876
-6.30957
-6.65346
-7.02124
-7.4134
-7.83191
-8.27917
-8.75775
-9.27053
-9.82081
-10.4124
-11.0496
-11.7375
-12.4822
-13.2904
-14.1704
-15.1319
-16.1861
-17.3463
-18.6279
-20.0486
-21.6281
-23.3883
-25.3524
-27.5451
-29.9724
-32.6093
-35.6714
-39.5432
-5.83502
-6.15161
-6.47557
-6.82329
-7.19531
-7.59194
-8.01518
-8.46747
-8.95143
-9.46997
-10.0264
-10.6246
-11.269
-11.9646
-12.7176
-13.5348
-14.4246
-15.3966
-16.4622
-17.6348
-18.9296
-20.3645
-21.9591
-23.735
-25.7153
-27.9241
-30.3667
-33.0172
-36.0899
-39.9682
-5.99346
-6.31442
-6.64156
-6.99316
-7.36948
-7.77062
-8.19863
-8.65599
-9.14536
-9.66969
-10.2324
-10.8372
-11.4888
-12.1921
-12.9534
-13.7797
-14.6793
-15.6618
-16.7389
-17.9238
-19.2319
-20.681
-22.2907
-24.0824
-26.0788
-28.3037
-30.7615
-33.4254
-36.5089
-40.3938
-6.15183
-6.4771
-6.80742
-7.16296
-7.54362
-7.94932
-8.38213
-8.8446
-9.33942
-9.86957
-10.4385
-11.05
-11.7088
-12.4199
-13.1896
-14.0249
-14.9343
-15.9274
-17.016
-18.2132
-19.5346
-20.9979
-22.6227
-24.43
-26.4426
-28.6834
-31.1564
-33.8338
-36.9278
-40.8194
-6.31003
-6.63955
-6.97307
-7.3326
-7.71764
-8.12793
-8.56558
-9.03319
-9.53348
-10.0695
-10.6446
-11.2629
-11.9289
-12.6478
-13.4259
-14.2703
-15.1894
-16.1932
-17.2932
-18.5028
-19.8375
-21.315
-22.9547
-24.7778
-26.8064
-29.0631
-31.5511
-34.2418
-37.3462
-41.2446
-6.46801
-6.8017
-7.13843
-7.50198
-7.89146
-8.30636
-8.74887
-9.22164
-9.72742
-10.2693
-10.8507
-11.4757
-12.1489
-12.8756
-13.6621
-14.5155
-15.4445
-16.4589
-17.5703
-18.7923
-20.1403
-21.6319
-23.2867
-25.1254
-27.1699
-29.4424
-31.9454
-34.6491
-37.7639
-41.6688
-6.6257
-6.96348
-7.30342
-7.67105
-8.06497
-8.48452
-8.9319
-9.40984
-9.92113
-10.4689
-11.0566
-11.6883
-12.3687
-13.1032
-13.8981
-14.7606
-15.6994
-16.7244
-17.8473
-19.0816
-20.4428
-21.9486
-23.6183
-25.4725
-27.5328
-29.821
-32.3388
-35.0555
-38.1805
-42.0918
-6.78308
-7.12485
-7.46798
-7.83972
-8.23812
-8.66232
-9.11459
-9.5977
-10.1145
-10.6681
-11.262
-11.9005
-12.5881
-13.3304
-14.1337
-15.0053
-15.9538
-16.9894
-18.1237
-19.3703
-20.7448
-22.2646
-23.9492
-25.8188
-27.8949
-30.1986
-32.731
-35.4605
-38.5955
-42.5132
-6.94012
-7.28579
-7.63209
-8.00795
-8.41085
-8.8397
-9.29684
-9.78512
-10.3074
-10.8668
-11.467
-12.1122
-12.807
-13.557
-14.3687
-15.2493
-16.2076
-17.2538
-18.3995
-19.6584
-21.046
-22.5798
-24.2792
-26.1642
-28.2559
-30.575
-33.1217
-35.8638
-39.0086
-42.9325
-7.09686
-7.44629
-7.79572
-8.17572
-8.5831
-9.01658
-9.47857
-9.97198
-10.4997
-11.0649
-11.6714
-12.3232
-13.0252
-13.7829
-14.6029
-15.4925
-16.4606
-17.5172
-18.6743
-19.9454
-21.3461
-22.894
-24.608
-26.5083
-28.6154
-30.9497
-33.5106
-36.2651
-39.4194
-43.3493
-7.25334
-7.60638
-7.95888
-8.343
-8.75483
-9.1929
-9.6597
-10.1582
-10.6913
-11.2623
-11.8749
-12.5334
-13.2425
-14.0079
-14.8362
-15.7348
-16.7125
-17.7796
-18.948
-20.2313
-21.645
-23.2067
-24.9354
-26.8507
-28.9732
-31.3224
-33.8974
-36.664
-39.8277
-43.7635
-7.40965
-7.76612
-8.12159
-8.50978
-8.92601
-9.3686
-9.84014
-10.3437
-10.8821
-11.4588
-12.0776
-12.7425
-13.4587
-14.2318
-15.0683
-15.9758
-16.9632
-18.0407
-19.2203
-20.5157
-21.9424
-23.5179
-25.261
-27.1913
-29.3289
-31.693
-34.2818
-37.0602
-40.233
-44.1745
-7.56593
-7.92559
-8.28388
-8.67605
-9.09659
-9.5436
-10.0198
-10.5282
-11.072
-11.6543
-12.279
-12.9505
-13.6737
-14.4543
-15.299
-16.2154
-17.2123
-18.3002
-19.491
-20.7984
-22.238
-23.8271
-25.5846
-27.5298
-29.6823
-32.061
-34.6633
-37.4534