/*--------------------------------*- C++ -*----------------------------------*\
| =========                 |                                                 |
| \\      /  F ield         | OpenFOAM: The Open Source CFD Toolbox           |
|  \\    /   O peration     | Version:  v1912                                 |
|   \\  /    A nd           | Website:  www.openfoam.com                      |
|    \\/     M anipulation  |                                                 |
\*---------------------------------------------------------------------------*/
FoamFile
{
    version     2.0;
    format      ascii;
    class       volScalarField;
    location    "33.5";
    object      p;
}
// * * * * * * * * * * * * * * * * * * * * * * * * * * * * * * * * * * * * * //

dimensions      [0 2 -2 0 0 0 0];


internalField   nonuniform List<scalar> 
9600
(
-41.4337
-36.1664
-32.9371
-30.1975
-27.6904
-25.4226
-23.3655
-21.4914
-19.7826
-18.2253
-16.8069
-15.5154
-14.3394
-13.2679
-12.291
-11.3991
-10.5839
-9.83739
-9.15201
-8.52562
-42.1885
-36.9038
-33.6388
-30.8567
-28.3048
-25.9931
-23.895
-21.9833
-20.2408
-18.6538
-17.2092
-15.8947
-14.6985
-13.6093
-12.6166
-11.7107
-10.8828
-10.1247
-9.42825
-8.79267
-42.945
-37.6373
-34.3352
-31.5103
-28.9133
-26.5576
-24.4184
-22.4694
-20.6935
-19.0769
-17.6065
-16.2693
-15.0532
-13.9465
-12.9383
-12.0185
-11.1781
-10.4083
-9.70096
-9.05638
-43.7
-38.3665
-35.0258
-32.1574
-29.5151
-27.1153
-24.935
-22.9487
-21.1397
-19.4939
-17.9979
-16.6384
-15.4028
-14.2789
-13.2554
-12.3219
-11.4692
-10.688
-9.96972
-9.31641
-44.4505
-39.0897
-35.7096
-32.7971
-30.109
-27.665
-25.4437
-23.4204
-21.5785
-19.904
-18.3828
-17.0014
-15.7466
-14.6058
-13.5674
-12.6205
-11.7556
-10.9631
-10.2342
-9.5725
-45.1946
-39.8057
-36.3854
-33.4281
-30.6941
-28.2059
-25.9437
-23.8836
-22.0093
-20.3064
-18.7605
-17.3576
-16.084
-14.9267
-13.8736
-12.9137
-12.037
-11.2334
-10.494
-9.82435
-45.9303
-40.5128
-37.0519
-34.0494
-31.2692
-28.7368
-26.434
-24.3375
-22.4312
-20.7003
-19.1302
-17.7063
-16.4143
-15.241
-14.1737
-13.201
-12.3128
-11.4985
-10.7489
-10.0717
-46.6562
-41.2098
-37.7079
-34.6599
-31.8334
-29.2568
-26.9136
-24.7812
-22.8432
-21.0849
-19.4911
-18.0467
-16.7369
-15.548
-14.4669
-13.4819
-12.5826
-11.7578
-10.9984
-10.3143
-47.371
-41.8953
-38.3522
-35.2584
-32.3855
-29.765
-27.3817
-25.2137
-23.2447
-21.4595
-19.8426
-18.3782
-17.0511
-15.847
-14.7526
-13.7558
-12.8457
-12.011
-11.2422
-10.5517
-48.0733
-42.5682
-38.9837
-35.8438
-32.9246
-30.2603
-27.8373
-25.6342
-23.6347
-21.8233
-20.1837
-18.6999
-17.356
-16.1373
-15.0301
-14.0219
-13.1017
-12.2574
-11.4797
-10.7836
-48.7622
-43.2274
-39.6012
-36.4152
-33.4497
-30.7419
-28.2796
-26.0419
-24.0124
-22.1753
-20.5137
-19.011
-17.6509
-16.4181
-15.2985
-14.2796
-13.3496
-12.4964
-11.7103
-11.0093
-49.4366
-43.8718
-40.2039
-36.9716
-33.9599
-31.2088
-28.7076
-26.4359
-24.377
-22.5148
-20.8318
-19.3107
-17.9348
-16.6885
-15.5571
-14.5278
-13.5888
-12.7271
-11.9332
-11.228
-50.0958
-44.5006
-40.7908
-37.5121
-34.4543
-31.6603
-29.1207
-26.8154
-24.7277
-22.8409
-21.1369
-19.598
-18.2069
-16.9474
-15.8047
-14.7657
-13.8181
-12.9486
-12.1475
-11.439
-50.7393
-45.113
-41.361
-38.0358
-34.9321
-32.0955
-29.518
-27.1797
-25.0637
-23.1528
-21.4284
-19.8721
-18.466
-17.1938
-16.0401
-14.9917
-14.0361
-13.1595
-12.3522
-11.6417
-51.3665
-45.7081
-41.9138
-38.5421
-35.3926
-32.5138
-29.8988
-27.5281
-25.3844
-23.4498
-21.7053
-20.1319
-18.7112
-17.4263
-16.2619
-15.2043
-14.241
-13.3576
-12.5449
-11.8341
-51.977
-46.2853
-42.4485
-39.0304
-35.8353
-32.9147
-30.2628
-27.8601
-25.6891
-23.7313
-21.9671
-20.3767
-18.9415
-17.6441
-16.4688
-15.402
-14.4308
-13.5409
-12.7231
-12.0109
-52.572
-46.8444
-42.9643
-39.4998
-36.2594
-33.2974
-30.6091
-28.1751
-25.9774
-23.9968
-22.213
-20.6058
-19.156
-17.846
-16.6598
-15.5839
-14.6053
-13.7092
-12.8855
-12.1687
-53.1558
-47.3865
-43.4606
-39.9493
-36.664
-33.6613
-30.9375
-28.4728
-26.2489
-24.2459
-22.4427
-20.8184
-19.3536
-18.0302
-16.8326
-15.7473
-14.7617
-13.8599
-13.0312
-12.3189
-53.7306
-47.9111
-43.9356
-40.3778
-37.0488
-34.0066
-31.2481
-28.7537
-26.5043
-24.4791
-22.6565
-21.0147
-19.5338
-18.1954
-16.9838
-15.8856
-14.8881
-13.9755
-13.1455
-12.4656
-54.2746
-48.4106
-44.3885
-40.786
-37.415
-34.3347
-31.5427
-29.0194
-26.7452
-24.6985
-22.8566
-21.1972
-19.6995
-18.3443
-17.1152
-15.9975
-14.9764
-14.0382
-13.1974
-12.5236
-59.7014
-59.67
-59.601
-59.509
-59.3932
-59.2512
-59.0824
-58.8873
-58.6665
-58.4206
-58.15
-57.8554
-57.5375
-57.1968
-56.8342
-56.4506
-56.0469
-55.625
-55.1877
-54.7382
-53.3562
-53.3536
-53.3179
-53.2549
-53.1652
-53.0483
-52.9044
-52.7342
-52.5385
-52.3179
-52.0729
-51.8042
-51.5123
-51.1981
-50.862
-50.5047
-50.1269
-49.7291
-49.3119
-48.8731
-48.7177
-48.7394
-48.7318
-48.6956
-48.6321
-48.5421
-48.4262
-48.2851
-48.1193
-47.9295
-47.7163
-47.4801
-47.2216
-46.9414
-46.6398
-46.3174
-45.9745
-45.611
-45.2267
-44.8198
-44.4936
-44.533
-44.5458
-44.5316
-44.4913
-44.4259
-44.3362
-44.2226
-44.0857
-43.9261
-43.7442
-43.5407
-43.3159
-43.0705
-42.8046
-42.5188
-42.213
-41.8873
-41.5415
-41.1745
-40.5888
-40.6379
-40.6632
-40.6639
-40.6405
-40.5937
-40.5243
-40.4326
-40.3193
-40.1848
-40.0296
-39.8542
-39.6591
-39.4446
-39.2112
-38.9591
-38.6884
-38.3989
-38.0906
-37.7629
-37.0824
-37.1357
-37.1674
-37.1767
-37.1638
-37.1294
-37.074
-36.9982
-36.9023
-36.787
-36.6526
-36.4997
-36.3287
-36.14
-35.9339
-35.7107
-35.4705
-35.2131
-34.9384
-34.6459
-33.9653
-34.0185
-34.052
-34.0651
-34.0577
-34.0305
-33.984
-33.9187
-33.8351
-33.7335
-33.6146
-33.4787
-33.3264
-33.158
-32.974
-32.7745
-32.5597
-32.3295
-32.0837
-31.8218
-31.2005
-31.2509
-31.2831
-31.2965
-31.291
-31.2673
-31.2258
-31.167
-31.0913
-30.9993
-30.8913
-30.768
-30.6297
-30.477
-30.3103
-30.1299
-29.9359
-29.7283
-29.5068
-29.2709
-28.7483
-28.7943
-28.8233
-28.8349
-28.8291
-28.8064
-28.7672
-28.712
-28.6413
-28.5555
-28.4552
-28.3408
-28.213
-28.0723
-27.919
-27.7537
-27.5766
-27.3877
-27.1866
-26.9729
-26.5689
-26.6097
-26.6347
-26.6434
-26.636
-26.6127
-26.5742
-26.5209
-26.4531
-26.3714
-26.2763
-26.1684
-26.0483
-25.9166
-25.7739
-25.6207
-25.4573
-25.2839
-25.1002
-24.9056
-24.6252
-24.6608
-24.6814
-24.6868
-24.6771
-24.6526
-24.6138
-24.5611
-24.495
-24.4159
-24.3245
-24.2212
-24.1069
-23.9821
-23.8477
-23.7042
-23.5522
-23.3919
-23.2232
-23.0453
-22.8844
-22.9149
-22.9313
-22.9334
-22.9212
-22.8951
-22.8555
-22.8029
-22.7377
-22.6604
-22.5715
-22.4717
-22.3617
-22.2423
-22.1144
-21.9787
-21.8362
-21.6872
-21.5318
-21.3691
-21.3182
-21.3441
-21.3566
-21.3554
-21.3408
-21.3131
-21.2727
-21.2198
-21.1551
-21.0789
-20.9919
-20.8947
-20.788
-20.6728
-20.5501
-20.4209
-20.2863
-20.1471
-20.0037
-19.8552
-19.9029
-19.9247
-19.9336
-19.9296
-19.9127
-19.8835
-19.8421
-19.789
-19.7245
-19.6492
-19.5636
-19.4684
-19.3644
-19.2524
-19.1338
-19.0097
-18.8818
-18.7511
-18.6188
-18.4838
-18.6186
-18.6367
-18.6424
-18.6359
-18.6171
-18.5865
-18.5443
-18.4909
-18.4267
-18.3521
-18.2677
-18.174
-18.072
-17.9626
-17.8471
-17.727
-17.6044
-17.4809
-17.359
-17.2374
-17.4488
-17.4636
-17.4665
-17.4577
-17.4373
-17.4055
-17.3626
-17.309
-17.245
-17.171
-17.0876
-16.9952
-16.8947
-16.7872
-16.6739
-16.5566
-16.4379
-16.3201
-16.2077
-16.0993
-16.3798
-16.3916
-16.3921
-16.3813
-16.3593
-16.3265
-16.2831
-16.2293
-16.1655
-16.092
-16.0092
-15.9178
-15.8184
-15.712
-15.5999
-15.484
-15.3677
-15.2536
-15.1493
-15.0525
-15.3996
-15.409
-15.4076
-15.3953
-15.3723
-15.3388
-15.295
-15.2412
-15.1777
-15.1047
-15.0226
-14.932
-14.8334
-14.7276
-14.6159
-14.5
-14.3839
-14.2713
-14.1739
-14.0862
-14.4971
-14.5051
-14.5027
-14.4899
-14.4668
-14.4337
-14.3906
-14.3379
-14.2757
-14.2044
-14.1241
-14.0354
-13.9386
-13.8344
-13.7238
-13.6082
-13.4914
-13.3784
-13.2878
-13.2141
-13.667
-13.6718
-13.6668
-13.6522
-13.6281
-13.5946
-13.5518
-13.4999
-13.4392
-13.3698
-13.292
-13.206
-13.1121
-13.0106
-12.9022
-12.7877
-12.669
-12.5514
-12.4544
-12.4048
-53.4391
-54.0116
-54.5471
-55.0677
-55.5705
-56.0495
-56.502
-56.9267
-57.3228
-57.6895
-58.0259
-58.3317
-58.6066
-58.85
-59.0615
-59.2411
-59.3896
-59.5082
-59.599
-59.6637
-46.9605
-47.5384
-48.0883
-48.616
-49.121
-49.601
-50.0543
-50.4805
-50.8787
-51.2484
-51.589
-51.9003
-52.1825
-52.4361
-52.6593
-52.8514
-53.0129
-53.1442
-53.246
-53.3169
-42.3221
-42.8878
-43.43
-43.9489
-44.4444
-44.9159
-45.3626
-45.7837
-46.1788
-46.5469
-46.8874
-47.1998
-47.484
-47.7386
-47.9648
-48.163
-48.3328
-48.4739
-48.586
-48.6677
-38.2042
-38.7447
-39.2657
-39.7652
-40.2427
-40.6978
-41.1299
-41.5384
-41.9227
-42.2822
-42.6155
-42.9222
-43.2032
-43.4581
-43.6868
-43.8892
-44.0649
-44.2136
-44.3348
-44.4283
-34.5321
-35.0427
-35.5365
-36.0107
-36.4643
-36.8971
-37.3085
-37.6978
-38.0642
-38.4074
-38.7278
-39.025
-39.2976
-39.5458
-39.7696
-39.9689
-40.1433
-40.2926
-40.4168
-40.5157
-31.3385
-31.8179
-32.282
-32.7283
-33.1555
-33.5632
-33.9509
-34.3181
-34.6643
-34.9891
-35.2925
-35.5738
-35.8324
-36.0685
-36.2823
-36.4737
-36.6419
-36.7869
-36.9087
-37.0074
-28.5711
-29.0198
-29.4545
-29.8725
-30.2728
-30.6548
-31.0181
-31.3622
-31.6866
-31.9911
-32.2753
-32.5389
-32.7817
-33.0034
-33.2036
-33.3843
-33.5437
-33.6812
-33.7974
-33.8922
-26.1632
-26.5832
-26.9899
-27.3811
-27.7555
-28.1127
-28.4521
-28.7734
-29.0761
-29.3599
-29.6248
-29.8704
-30.0967
-30.3035
-30.4908
-30.6571
-30.8059
-30.9345
-31.043
-31.1318
-24.0561
-24.4499
-24.831
-25.1973
-25.5478
-25.8817
-26.1986
-26.4982
-26.7802
-27.0444
-27.2906
-27.5188
-27.7287
-27.9205
-28.094
-28.2491
-28.3848
-28.5034
-28.6036
-28.6853
-22.1999
-22.57
-22.928
-23.2719
-23.6005
-23.913
-24.2092
-24.4888
-24.7516
-24.9974
-25.2262
-25.4378
-25.6324
-25.8097
-25.9698
-26.1126
-26.238
-26.3462
-26.4378
-26.5121
-20.5531
-20.9021
-21.2395
-21.5633
-21.872
-22.1652
-22.4425
-22.7037
-22.9488
-23.1777
-23.3904
-23.5869
-23.7672
-23.9312
-24.0789
-24.2103
-24.3255
-24.4243
-24.5075
-24.5746
-19.082
-19.4123
-19.7316
-20.0374
-20.3284
-20.6039
-20.864
-21.1085
-21.3375
-21.5509
-21.7489
-21.9315
-22.0987
-22.2505
-22.387
-22.508
-22.6137
-22.7042
-22.7792
-22.8396
-17.7596
-18.0735
-18.3771
-18.667
-18.9419
-19.2015
-19.4458
-19.675
-19.8892
-20.0885
-20.2731
-20.443
-20.5984
-20.7391
-20.8653
-20.977
-21.0741
-21.1566
-21.2243
-21.2787
-16.5645
-16.864
-17.1541
-17.43
-17.6903
-17.9352
-18.165
-18.3801
-18.5808
-18.7671
-18.9395
-19.0979
-19.2425
-19.3732
-19.4902
-19.5933
-19.6826
-19.7583
-19.8205
-19.8683
-15.4794
-15.7667
-16.0454
-16.3087
-16.5555
-16.7868
-17.0032
-17.2052
-17.3933
-17.5677
-17.7289
-17.8768
-18.0116
-18.1332
-18.2418
-18.3373
-18.4196
-18.489
-18.5452
-18.5882
-14.4896
-14.7686
-15.038
-15.2895
-15.5236
-15.742
-15.9457
-16.1353
-16.3116
-16.475
-16.6257
-16.764
-16.8898
-17.0033
-17.1042
-17.1928
-17.2688
-17.3325
-17.3836
-17.4223
-13.5776
-13.8555
-14.1198
-14.36
-14.5814
-14.7875
-14.979
-15.157
-15.3223
-15.4754
-15.6167
-15.7462
-15.8639
-15.9699
-16.0641
-16.1464
-16.2168
-16.2753
-16.322
-16.3567
-12.7226
-13.0047
-13.2704
-13.5013
-13.7108
-13.9053
-14.0857
-14.2532
-14.4088
-14.553
-14.6861
-14.8081
-14.9191
-15.0188
-15.1073
-15.1845
-15.2503
-15.3047
-15.3477
-15.3794
-11.9379
-12.2108
-12.4773
-12.7034
-12.9029
-13.086
-13.2561
-13.4141
-13.561
-13.6973
-13.8233
-13.9389
-14.044
-14.1386
-14.2224
-14.2954
-14.3576
-14.4088
-14.4491
-14.4786
-11.3492
-11.5995
-11.8268
-12.0429
-12.2308
-12.3963
-12.5499
-12.6937
-12.8274
-12.9513
-13.0657
-13.1707
-13.266
-13.3514
-13.4268
-13.4922
-13.5475
-13.5925
-13.6273
-13.6517
-5.9686
-6.4587
-6.99593
-7.57727
-8.20918
-8.89906
-9.6546
-10.4853
-11.4033
-12.4243
-13.5688
-14.8636
-16.3441
-18.0564
-20.0607
-22.436
-25.2634
-28.565
-32.5599
-38.5537
-6.23812
-6.74165
-7.2893
-7.8826
-8.52817
-9.23311
-10.0052
-10.8543
-11.7927
-12.8364
-14.0063
-15.3295
-16.8419
-18.59
-20.6342
-23.0534
-25.9276
-29.2757
-33.3089
-39.3236
-6.50908
-7.02604
-7.58424
-8.18974
-8.84923
-9.56948
-10.3584
-11.2261
-12.1852
-13.252
-14.4476
-15.7996
-17.3443
-19.1285
-21.2128
-23.6758
-26.5963
-29.9898
-34.0595
-40.0906
-6.781
-7.31134
-7.88016
-8.49807
-9.17169
-9.90745
-10.7135
-11.6
-12.58
-13.67
-14.8916
-16.2726
-17.8498
-19.6702
-21.7948
-24.3017
-27.2683
-30.7071
-34.8143
-40.8664
-7.05343
-7.59707
-8.17659
-8.80712
-9.49507
-10.2465
-11.0698
-11.9753
-12.9764
-14.0899
-15.3376
-16.7478
-18.3576
-20.2145
-22.3793
-24.93
-27.9426
-31.4267
-35.5722
-41.6486
-7.32601
-7.88282
-8.47312
-9.11646
-9.81893
-10.5863
-11.4269
-12.3517
-13.374
-14.5111
-15.785
-17.2245
-18.8671
-20.7605
-22.9656
-25.5601
-28.6186
-32.1478
-36.3313
-42.4329
-7.59841
-8.16824
-8.76935
-9.4257
-10.1429
-10.9262
-11.7844
-12.7284
-13.7721
-14.9329
-16.2332
-17.7022
-19.3776
-21.3075
-23.553
-26.1912
-29.2954
-32.8692
-37.09
-43.217
-7.8704
-8.45304
-9.06498
-9.7345
-10.4665
-11.266
-12.1417
-13.1051
-14.1703
-15.3548
-16.6815
-18.18
-19.8883
-21.8548
-24.1406
-26.8224
-29.9719
-33.5898
-37.8471
-43.9995
-8.14182
-8.73701
-9.35976
-10.0426
-10.7895
-11.6051
-12.4985
-13.4814
-14.5679
-15.7762
-17.1294
-18.6573
-20.3985
-22.4015
-24.7275
-27.4525
-30.647
-34.3086
-38.6015
-44.7788
-8.41262
-9.02005
-9.65354
-10.3497
-11.1117
-11.9435
-12.8545
-13.8567
-14.9646
-16.1966
-17.5762
-19.1335
-20.9074
-22.9467
-25.3127
-28.0806
-31.3196
-35.0242
-39.3518
-45.5536
-8.68292
-9.30219
-9.94626
-10.6559
-11.4327
-12.2806
-13.2092
-14.2306
-15.3598
-16.6154
-18.0212
-19.6078
-21.4142
-23.4897
-25.8952
-28.7058
-31.9887
-35.7356
-40.0967
-46.3224
-8.953
-9.58359
-10.238
-10.9609
-11.7526
-12.6164
-13.5622
-14.6028
-15.753
-17.032
-18.4638
-20.0794
-21.9181
-24.0294
-26.4743
-29.3268
-32.653
-36.4414
-40.8349
-47.0836
-9.22335
-9.86454
-10.5288
-11.2648
-12.071
-12.9504
-13.9133
-14.9726
-16.1437
-17.4457
-18.9033
-20.5475
-22.4183
-24.5651
-27.0487
-29.9427
-33.3114
-37.1404
-41.565
-47.836
-9.49469
-10.1455
-10.8188
-11.5674
-12.3878
-13.2824
-14.262
-15.3397
-16.5311
-17.8559
-19.3388
-21.0115
-22.9138
-25.0956
-27.6175
-30.5523
-33.9627
-37.8314
-42.2858
-48.5783
-9.76777
-10.4267
-11.1081
-11.8687
-12.7026
-13.6119
-14.6076
-15.7032
-16.9147
-18.2618
-19.7697
-21.4702
-23.4037
-25.62
-28.1795
-31.1544
-34.6057
-38.5132
-42.9961
-49.3094
-10.0435
-10.7084
-11.3964
-12.168
-13.0147
-13.9381
-14.9494
-16.0625
-17.2936
-18.6625
-20.1949
-21.9229
-23.887
-26.1372
-28.7337
-31.7477
-35.239
-39.1844
-43.6948
-50.0281
-10.3218
-10.9895
-11.6822
-12.4639
-13.3229
-14.2599
-15.2864
-16.4166
-17.6667
-19.0571
-20.6135
-22.3683
-24.3625
-26.6459
-29.2786
-32.331
-35.8612
-39.8437
-44.3807
-50.734
-10.6017
-11.2674
-11.963
-12.7546
-13.626
-14.5763
-15.6177
-16.7644
-18.0332
-19.4446
-21.0244
-22.8056
-24.8292
-27.1451
-29.8131
-32.9028
-36.4708
-40.4895
-45.0528
-51.4271
-10.876
-11.5338
-12.2326
-13.0368
-13.9217
-14.8855
-15.9416
-17.1048
-18.3919
-19.8238
-21.4266
-23.2335
-25.2857
-27.6333
-30.3357
-33.4616
-37.0661
-41.1199
-45.7099
-52.1087
-11.1259
-11.7688
-12.4867
-13.3114
-14.2106
-15.1874
-16.2577
-17.437
-18.742
-20.1938
-21.819
-23.6509
-25.731
-28.1094
-30.845
-34.0056
-37.6449
-41.7319
-46.3472
-52.7805
-1.56936
-1.82377
-2.17223
-2.5619
-2.98143
-3.4362
-3.93258
-4.47649
-5.07546
-5.73979
-6.48344
-7.32543
-8.2919
-9.41886
-10.7571
-12.3808
-14.3794
-16.8137
-19.9914
-25.3878
-1.72184
-1.99259
-2.35936
-2.75486
-3.17773
-3.63777
-4.14096
-4.69286
-5.30115
-5.97637
-6.73275
-7.58965
-8.57363
-9.72122
-11.0838
-12.736
-14.7673
-17.2369
-20.4466
-25.8566
-1.86847
-2.16323
-2.54307
-2.94663
-3.37716
-3.84551
-4.35755
-4.91904
-5.53802
-6.22537
-6.99565
-7.86861
-8.87127
-10.0407
-11.4287
-13.1105
-15.1752
-17.68
-20.921
-26.3395
-2.03725
-2.34279
-2.73077
-3.14299
-3.58265
-4.06046
-4.58245
-5.15466
-5.78544
-6.48601
-7.27125
-8.16132
-9.18371
-10.376
-11.7906
-13.5029
-15.6019
-18.1432
-21.4189
-26.8548
-2.2173
-2.52988
-2.92565
-3.34676
-3.79584
-4.28355
-4.81613
-5.39986
-6.04333
-6.75803
-7.55919
-8.46734
-9.51045
-10.7266
-12.1688
-13.9128
-16.0474
-18.6267
-21.9396
-27.3995
-2.4028
-2.72394
-3.12798
-3.55814
-4.01693
-4.515
-5.05877
-5.6547
-6.31163
-7.04128
-7.85923
-8.7864
-9.85123
-11.0923
-12.5632
-14.34
-16.5114
-19.1299
-22.4813
-27.9681
-2.59529
-2.92587
-3.33809
-3.77733
-4.24609
-4.75495
-5.31043
-5.91917
-6.59022
-7.33558
-8.17113
-9.11821
-10.2057
-11.4728
-12.9734
-14.7842
-16.9935
-19.6523
-23.043
-28.5584
-2.79615
-3.13615
-3.55634
-4.00463
-4.48356
-5.00353
-5.57114
-6.19321
-6.87899
-7.64073
-8.49464
-9.46245
-10.5735
-11.8675
-13.399
-15.2448
-17.4932
-20.1933
-23.6241
-29.1693
-3.00516
-3.35463
-3.78276
-4.24015
-4.72942
-5.26077
-5.84088
-6.47672
-7.17776
-7.95651
-8.82948
-9.81878
-10.9542
-12.2761
-13.8394
-15.7213
-18.0097
-20.7523
-24.2239
-29.7998
-3.22174
-3.581
-4.01715
-4.48374
-4.98352
-5.52652
-6.11947
-6.76951
-7.48632
-8.28264
-9.17532
-10.1869
-11.3475
-12.6981
-14.2942
-16.2132
-18.5426
-21.3284
-24.8415
-30.4487
-3.44546
-3.81489
-4.25921
-4.73512
-5.24563
-5.80054
-6.40666
-7.07131
-7.80435
-8.6188
-9.53181
-10.5663
-11.7529
-13.1331
-14.7627
-16.7197
-19.0912
-21.921
-25.4761
-31.1149
-3.67593
-4.05591
-4.50856
-4.99396
-5.5154
-6.0825
-6.70213
-7.38177
-8.13151
-8.96461
-9.89853
-10.9566
-12.1699
-13.5804
-15.2446
-17.2404
-19.6547
-22.5293
-26.1268
-31.7976
-3.9127
-4.3036
-4.76475
-5.25983
-5.79246
-6.37203
-7.00548
-7.7005
-8.46737
-9.31962
-10.275
-11.3573
-12.598
-14.0396
-15.7391
-17.7746
-20.2324
-23.1526
-26.7928
-32.4957
-4.15523
-4.55742
-5.0273
-5.53227
-6.07633
-6.66865
-7.31626
-8.02704
-8.81147
-9.68334
-10.6608
-11.7678
-13.0367
-14.5101
-16.2455
-18.3215
-20.8237
-23.7899
-27.4732
-33.2083
-4.40298
-4.81684
-5.29566
-5.81075
-6.36651
-6.97189
-7.63399
-8.36087
-9.16328
-10.0552
-11.0552
-12.1876
-13.4852
-14.9911
-16.7633
-18.8804
-21.4276
-24.4405
-28.1672
-33.9345
-4.6554
-5.08127
-5.56926
-6.09474
-6.66248
-7.28121
-7.95811
-8.70148
-9.52225
-10.4347
-11.4577
-12.6161
-13.9429
-15.482
-17.2916
-19.4505
-22.0433
-25.1034
-28.874
-34.6736
-4.91195
-5.35015
-5.84755
-6.38366
-6.96367
-7.59605
-8.28808
-9.04827
-9.8878
-10.8213
-11.8677
-13.0525
-14.4092
-15.982
-17.8296
-20.031
-22.67
-25.7778
-29.5926
-35.425
-5.17208
-5.6229
-6.12993
-6.67695
-7.26951
-7.91585
-8.62332
-9.40067
-10.2593
-11.2142
-12.2846
-13.4963
-14.8833
-16.4903
-18.3765
-20.6209
-23.3066
-26.4626
-30.3224
-36.1883
-5.43523
-5.89893
-6.41583
-6.97402
-7.57943
-8.24001
-8.96322
-9.75806
-10.6362
-11.6127
-12.7075
-13.9466
-15.3644
-17.0061
-18.9314
-21.2192
-23.952
-27.1566
-31.0621
-36.9642
-5.70092
-6.17773
-6.7047
-7.27434
-7.89287
-8.56797
-9.30722
-10.1199
-11.0178
-12.0164
-13.1359
-14.4027
-15.8517
-17.5287
-19.4934
-21.8249
-24.6051
-27.8581
-31.8092
-37.7534
-1.32239
-1.11674
-0.963894
-0.828061
-0.708848
-0.60371
-0.511536
-0.431533
-0.3632
-0.306179
-0.260205
-0.225067
-0.200593
-0.186637
-0.183052
-0.189639
-0.206218
-0.232943
-0.269831
-0.316816
-1.65261
-1.47018
-1.31337
-1.17234
-1.04833
-0.93876
-0.842653
-0.759207
-0.687911
-0.628387
-0.580354
-0.543589
-0.517908
-0.503155
-0.499179
-0.505816
-0.522926
-0.550514
-0.58856
-0.637006
-1.98582
-1.81126
-1.65448
-1.51233
-1.38621
-1.27448
-1.17644
-1.09139
-1.01888
-0.958536
-0.910085
-0.873303
-0.848005
-0.834029
-0.831225
-0.839445
-0.858574
-0.88857
-0.929361
-0.980922
-2.37035
-2.19417
-2.03439
-1.88931
-1.75964
-1.64443
-1.54321
-1.4554
-1.38061
-1.31848
-1.26876
-1.23121
-1.20564
-1.19188
-1.18978
-1.1992
-1.22001
-1.25214
-1.29549
-1.35003
-2.79006
-2.61148
-2.44779
-2.2988
-2.16495
-2.04573
-1.94079
-1.84972
-1.77217
-1.70782
-1.65642
-1.61775
-1.59161
-1.57783
-1.57624
-1.5867
-1.6091
-1.6433
-1.68922
-1.74682
-3.24256
-3.06081
-2.893
-2.73974
-2.60148
-2.47803
-2.36919
-2.27466
-2.19416
-2.12742
-2.07419
-2.03427
-2.00746
-1.99359
-1.9925
-2.00403
-2.02806
-2.06445
-2.11306
-2.17382
-3.73406
-3.54765
-3.37499
-3.21685
-3.07375
-2.94569
-2.8326
-2.73429
-2.65053
-2.5811
-2.5258
-2.48442
-2.45677
-2.44269
-2.442
-2.45455
-2.48021
-2.51883
-2.57026
-2.63445
-4.27137
-4.07882
-3.90023
-3.73636
-3.58771
-3.45444
-3.33655
-3.23395
-3.14647
-3.07394
-3.01618
-2.973
-2.94422
-2.92968
-2.92921
-2.94265
-2.96986
-3.01068
-3.06496
-3.13265
-4.86221
-4.66209
-4.47634
-4.30567
-4.15057
-4.01127
-3.88786
-3.7803
-3.68849
-3.61229
-3.55155
-3.5061
-3.47579
-3.46043
-3.45988
-3.47398
-3.50257
-3.54548
-3.60255
-3.67377
-5.51676
-5.30749
-5.11318
-4.93443
-4.77175
-4.6254
-4.49552
-4.38213
-4.28518
-4.20456
-4.14016
-4.09183
-4.05941
-4.04275
-4.04169
-4.05607
-4.08574
-4.1305
-4.19021
-4.26487
-6.24876
-6.02856
-5.82401
-5.63564
-5.46396
-5.30925
-5.17169
-5.05135
-4.94821
-4.8622
-4.79323
-4.74117
-4.70588
-4.68722
-4.68502
-4.69914
-4.7294
-4.77562
-4.83763
-4.91548
-7.07695
-6.84371
-6.62691
-6.42704
-6.24459
-6.07988
-5.93309
-5.80434
-5.69364
-5.60095
-5.52621
-5.4693
-5.4301
-5.40847
-5.40425
-5.4173
-5.44744
-5.49447
-5.55822
-5.63878
-8.02707
-7.77824
-7.54677
-7.33307
-7.13766
-6.96085
-6.80286
-6.66383
-6.5438
-6.44276
-6.36065
-6.2974
-6.25287
-6.22695
-6.21949
-6.23033
-6.25929
-6.30617
-6.37078
-6.45325
-9.13461
-8.86714
-8.61801
-8.38762
-8.1765
-7.98497
-7.81328
-7.66158
-7.52994
-7.41837
-7.32683
-7.25525
-7.20353
-7.17154
-7.15915
-7.1662
-7.1925
-7.23782
-7.30197
-7.38515
-10.4498
-10.16
-9.88956
-9.63898
-9.40876
-9.19926
-9.01074
-8.84337
-8.69722
-8.57234
-8.4687
-8.38623
-8.32484
-8.28443
-8.26484
-8.26594
-8.28753
-8.32934
-8.39116
-8.47325
-12.0461
-11.7295
-11.4336
-11.1586
-10.9052
-10.6739
-10.4647
-10.278
-10.1138
-9.97217
-9.85307
-9.75647
-9.68227
-9.63038
-9.60066
-9.59296
-9.60709
-9.64274
-9.69969
-9.7782
-14.0124
-13.6645
-13.3383
-13.0344
-12.7535
-12.496
-12.2621
-12.0521
-11.8659
-11.7037
-11.5654
-11.451
-11.3605
-11.2937
-11.2505
-11.2308
-11.2344
-11.2609
-11.3102
-11.3823
-16.4102
-16.0268
-15.6663
-15.3296
-15.0174
-14.7302
-14.468
-14.2312
-14.0197
-13.8336
-13.6729
-13.5376
-13.4276
-13.3429
-13.2834
-13.2488
-13.2392
-13.2543
-13.2938
-13.3568
-19.5494
-19.1265
-18.7272
-18.3542
-18.0077
-17.6879
-17.3946
-17.128
-16.8879
-16.6743
-16.4874
-16.327
-16.1932
-16.0859
-16.0049
-15.9502
-15.9216
-15.9195
-15.9437
-15.992
-24.8879
-24.4201
-23.9866
-23.5843
-23.2111
-22.866
-22.5486
-22.2588
-21.9965
-21.7617
-21.5546
-21.375
-21.2231
-21.0991
-21.0029
-20.9347
-20.8951
-20.8864
-20.9101
-20.9557
-0.373735
-0.440276
-0.5164
-0.602023
-0.697059
-0.801398
-0.914908
-1.03742
-1.16873
-1.30856
-1.45652
-1.61211
-1.77453
-1.94254
-2.11452
-2.28817
-2.45904
-2.61732
-2.74765
-2.87623
-0.695796
-0.764599
-0.843343
-0.931915
-1.03021
-1.13809
-1.25542
-1.38199
-1.51758
-1.66186
-1.81444
-1.97476
-2.14204
-2.31513
-2.49242
-2.67225
-2.85286
-3.02651
-3.17798
-3.3489
-1.04317
-1.1158
-1.19874
-1.29186
-1.39503
-1.5081
-1.63091
-1.76323
-1.90482
-2.05534
-2.21436
-2.38131
-2.55547
-2.73579
-2.92093
-3.10969
-3.30111
-3.4908
-3.67301
-3.8776
-1.41569
-1.49216
-1.57934
-1.6771
-1.78529
-1.90375
-2.03228
-2.17065
-2.31859
-2.47573
-2.64165
-2.81578
-2.99744
-3.18569
-3.37949
-3.57795
-3.78027
-3.98414
-4.19002
-4.41826
-1.81598
-1.89643
-1.98807
-2.09072
-2.20422
-2.3284
-2.46304
-2.6079
-2.76268
-2.92702
-3.10048
-3.28252
-3.47251
-3.66965
-3.87314
-4.08236
-4.29669
-4.5151
-4.7402
-4.98515
-2.24683
-2.33157
-2.42799
-2.53591
-2.65516
-2.78555
-2.92685
-3.0788
-3.24109
-3.41337
-3.5952
-3.78609
-3.98544
-4.19261
-4.40698
-4.62814
-4.85568
-5.08939
-5.33201
-5.59139
-2.71144
-2.80071
-2.90223
-3.0158
-3.14124
-3.27833
-3.42685
-3.58653
-3.75706
-3.93808
-4.12918
-4.32989
-4.5397
-4.75807
-4.98452
-5.21876
-5.46058
-5.71019
-5.96979
-6.24384
-3.21375
-3.30782
-3.41473
-3.5343
-3.66633
-3.81063
-3.96694
-4.13499
-4.31448
-4.50506
-4.70633
-4.91788
-5.13925
-5.36997
-5.60969
-5.85817
-6.11533
-6.38148
-6.65821
-6.94797
-3.75913
-3.85813
-3.97064
-4.0965
-4.23551
-4.38745
-4.55209
-4.72913
-4.9183
-5.11924
-5.3316
-5.55498
-5.78898
-6.0332
-6.28735
-6.55123
-6.82479
-7.10831
-7.40281
-7.70965
-4.35448
-4.45841
-4.57674
-4.70908
-4.85535
-5.01533
-5.18875
-5.37535
-5.57484
-5.7869
-6.01119
-6.24734
-6.49499
-6.7538
-7.02349
-7.3039
-7.59495
-7.89682
-8.21006
-8.53548
-5.00918
-5.118
-5.24197
-5.38098
-5.53467
-5.70292
-5.88548
-6.08208
-6.29244
-6.51625
-6.7532
-7.00294
-7.26516
-7.53954
-7.82581
-8.1238
-8.43342
-8.75467
-9.08781
-9.43334
-5.73619
-5.8496
-5.97907
-6.12443
-6.28556
-6.46213
-6.65398
-6.86084
-7.08241
-7.31842
-7.56858
-7.83258
-8.11011
-8.40086
-8.7046
-9.02111
-9.35026
-9.69191
-10.0461
-10.4132
-6.55368
-6.67103
-6.8055
-6.9568
-7.12485
-7.3097
-7.5108
-7.72777
-7.96058
-8.20895
-8.47261
-8.75124
-9.04454
-9.35224
-9.67407
-10.0098
-10.3593
-10.7222
-11.0985
-11.4884
-7.48747
-7.60771
-7.74621
-7.90269
-8.07694
-8.26898
-8.47961
-8.7058
-8.94946
-9.20991
-9.48689
-9.7801
-10.0893
-10.4141
-10.7543
-11.1097
-11.48
-11.8647
-12.2638
-12.6774
-8.57575
-8.69719
-8.83812
-8.99832
-9.17764
-9.37556
-9.59153
-9.82814
-10.0824
-10.354
-10.6435
-10.9508
-11.2755
-11.6173
-11.9757
-12.3506
-12.7416
-13.1483
-13.5703
-14.008
-9.87838
-9.99848
-10.1394
-10.3011
-10.4833
-10.6857
-10.9078
-11.1497
-11.4116
-11.694
-11.9953
-12.3159
-12.6553
-13.0128
-13.3882
-13.7815
-14.1924
-14.6203
-15.0648
-15.5261
-11.4768
-11.5924
-11.7305
-11.8909
-12.0733
-12.2775
-12.5031
-12.75
-13.0181
-13.3075
-13.6189
-13.9512
-14.3024
-14.672
-15.0611
-15.4704
-15.8992
-16.3468
-16.8121
-17.2952
-13.4415
-13.5496
-13.6818
-13.8376
-14.0158
-14.217
-14.4412
-14.6882
-14.9579
-15.2496
-15.5627
-15.8976
-16.2558
-16.6379
-17.0422
-17.4672
-17.9126
-18.3781
-18.8628
-19.3655
-16.0625
-16.1546
-16.2706
-16.4119
-16.58
-16.774
-16.993
-17.2367
-17.5047
-17.7967
-18.112
-18.4504
-18.8121
-19.1976
-19.6069
-20.0392
-20.4944
-20.9731
-21.4754
-21.9962
-20.9979
-21.0705
-21.1738
-21.3056
-21.4647
-21.6505
-21.8623
-22.0999
-22.3627
-22.6507
-22.9634
-23.3009
-23.6634
-24.051
-24.4639
-24.9021
-25.3666
-25.8615
-26.3891
-26.9317
-27.4451
-22.5275
-19.8859
-17.7961
-16.004
-14.4612
-13.1054
-11.8918
-10.7931
-9.79116
-8.873
-8.0288
-7.25091
-6.53305
-5.86999
-5.25715
-4.68923
-4.1606
-3.67972
-3.27542
-27.9863
-23.0748
-20.4218
-18.3118
-16.4961
-14.9278
-13.5461
-12.3071
-11.1842
-10.1597
-9.22094
-8.35816
-7.5639
-6.83202
-6.15744
-5.5357
-4.96201
-4.43395
-3.96463
-3.5623
-28.5558
-23.6409
-20.9748
-18.8435
-17.0028
-15.4078
-13.9991
-12.7338
-11.586
-10.5384
-9.57838
-8.69654
-7.8854
-7.13887
-6.45183
-5.81973
-5.23789
-4.70401
-4.22762
-3.80587
-29.1496
-24.2263
-21.5448
-19.3908
-17.5235
-15.9005
-14.4638
-13.1713
-11.9977
-10.9262
-9.94424
-9.0426
-8.21374
-7.45146
-6.75044
-6.10584
-5.51274
-4.96818
-4.47886
-4.03846
-29.7645
-24.8305
-22.1312
-19.9532
-18.0578
-16.4054
-14.9395
-13.6188
-12.4185
-11.3222
-10.3177
-9.39549
-8.54813
-7.76919
-7.05312
-6.39478
-5.78895
-5.23207
-4.72905
-4.27258
-30.399
-25.4538
-22.7323
-20.5297
-18.6048
-16.9217
-15.4254
-14.0755
-12.8477
-11.7259
-10.698
-9.75455
-8.88799
-8.0917
-7.35985
-6.68705
-6.06784
-5.49834
-4.98211
-4.51164
-31.0519
-26.095
-23.3475
-21.1192
-19.1637
-17.4486
-15.9208
-14.5407
-13.2845
-12.1364
-11.0845
-10.1193
-9.23301
-8.41889
-7.67088
-6.98333
-6.35064
-5.76869
-5.23997
-4.75689
-31.7221
-26.7519
-23.9767
-21.721
-19.7336
-17.9852
-16.4249
-15.0137
-13.7283
-12.5533
-11.4768
-10.4893
-9.5829
-8.75065
-7.98626
-7.28388
-6.6378
-6.04368
-5.50304
-5.00828
-32.408
-27.4232
-24.6191
-22.3342
-20.3136
-18.5308
-16.9369
-15.4936
-14.1784
-12.9758
-11.8742
-10.8641
-9.93731
-9.08675
-8.3059
-7.58872
-6.92936
-6.32332
-5.77116
-5.2653
-33.1086
-28.1077
-25.2737
-22.958
-20.9028
-19.0845
-17.456
-15.9798
-14.634
-13.4033
-12.2763
-11.2432
-10.2958
-9.42686
-8.62952
-7.89758
-7.22506
-6.60726
-6.04383
-5.52723
-33.8225
-28.8042
-25.9393
-23.5914
-21.5002
-19.6454
-17.9812
-16.4715
-15.0944
-13.8352
-12.6824
-11.6261
-10.658
-9.77053
-8.95669
-8.21004
-7.52443
-6.89495
-6.32041
-5.7933
-34.5488
-29.5117
-26.615
-24.2333
-22.105
-20.2124
-18.5118
-16.9677
-15.5589
-14.2708
-13.0918
-12.0122
-11.0233
-10.1172
-9.2869
-8.52556
-7.82691
-7.18579
-6.60019
-6.06272
-35.2862
-30.229
-27.2994
-24.8826
-22.7159
-20.7847
-19.0468
-17.4677
-16.0266
-14.7093
-13.504
-12.4008
-11.391
-10.4664
-9.61955
-8.84354
-8.13186
-7.4791
-6.88246
-6.33472
-36.0337
-30.955
-27.9915
-25.5382
-23.3321
-21.3612
-19.5853
-17.9706
-16.4968
-15.1499
-13.918
-12.7913
-11.7605
-10.8173
-9.954
-9.16335
-8.43865
-7.77422
-7.16652
-6.60858
-36.7901
-31.6884
-28.69
-26.199
-23.9523
-21.9409
-20.1262
-18.4754
-16.9686
-15.5918
-14.3333
-13.1829
-12.1311
-11.1694
-10.2896
-9.48433
-8.74661
-8.07048
-7.4517
-6.88362
-37.5543
-32.428
-29.3937
-26.8637
-24.5754
-22.5226
-20.6686
-18.9812
-17.441
-16.0342
-14.749
-13.5749
-12.5021
-11.5219
-10.6257
-9.80584
-9.0551
-8.36723
-7.73734
-7.1592
-38.3259
-33.1726
-30.1011
-27.5311
-25.2001
-23.1053
-21.2113
-19.487
-17.9132
-16.4763
-15.1643
-13.9665
-12.8729
-11.8742
-10.9616
-10.1272
-9.36348
-8.66385
-8.02282
-7.43473
-39.1062
-33.9217
-30.8109
-28.1995
-25.8251
-23.6875
-21.7532
-19.9916
-18.3842
-16.9171
-15.5784
-14.357
-13.2426
-12.2255
-11.2967
-10.4478
-9.67109
-8.95971
-8.30756
-7.70963
-39.8955
-34.6741
-31.5211
-28.8673
-26.449
-24.2682
-22.2932
-20.4942
-18.853
-17.3559
-15.9905
-14.7456
-13.6105
-12.5752
-11.6302
-10.7669
-9.97733
-9.25423
-8.59098
-7.9834
-40.681
-35.4249
-32.23
-29.5335
-27.0711
-24.8469
-22.831
-20.9944
-19.3194
-17.7922
-16.4002
-15.1319
-13.9763
-12.9228
-11.9618
-11.0842
-10.2818
-9.54694
-8.87263
-8.25559
-6.7386
-4.64223
-3.28972
-2.25085
-1.52182
-0.986614
-0.602442
-0.329813
-0.14059
-0.0131632
0.0689495
0.118299
0.14436
0.154246
0.153212
0.145101
0.132701
0.117995
0.102379
0.0868137
0.0719382
0.0581604
0.0457139
0.0347186
0.0251931
0.0171203
0.0104029
0.00498324
0.000684016
-0.00251089
-0.00488198
-0.00629819
-0.00724556
-0.00726904
-0.00728176
-0.00619553
-0.00573376
-0.00367661
-0.00314203
3.2223e-05
-6.99308
-4.82375
-3.43539
-2.36557
-1.61256
-1.06001
-0.662316
-0.379279
-0.181841
-0.0478135
0.0397024
0.0935378
0.123366
0.136443
0.13813
0.132345
0.121937
0.108937
0.094784
0.0804694
0.0666607
0.0537911
0.0421145
0.0317694
0.0227906
0.0151756
0.00883845
0.00373361