/*--------------------------------*- C++ -*----------------------------------*\
  =========                 |
  \\      /  F ield         | OpenFOAM: The Open Source CFD Toolbox
   \\    /   O peration     | Website:  https://openfoam.org
    \\  /    A nd           | Version:  6.0
     \\/     M anipulation  |
\*---------------------------------------------------------------------------*/
FoamFile
{
    version     2.0;
    format      ascii;
    class       volScalarField;
    location    "9.75";
    object      p;
}
// * * * * * * * * * * * * * * * * * * * * * * * * * * * * * * * * * * * * * //

dimensions      [0 2 -2 0 0 0 0];

internalField   nonuniform List<scalar> 
19200
(
-150.353
-135.695
-124.724
-115.43
-106.793
-98.8517
-91.5804
-84.9083
-78.7808
-73.153
-67.9831
-63.2322
-58.8641
-54.8457
-51.146
-47.7369
-44.5926
-41.6898
-39.0072
-36.5254
-34.2272
-32.0967
-30.1198
-28.2834
-26.5761
-24.9876
-23.5085
-22.1298
-20.8429
-19.6498
-150.829
-136.196
-125.221
-115.908
-107.248
-99.2835
-91.9897
-85.2964
-79.1496
-73.5043
-68.3187
-63.5537
-59.173
-55.1432
-51.4332
-48.0148
-44.8619
-41.9512
-39.2613
-36.7728
-34.4682
-32.3318
-30.3493
-28.5076
-26.7953
-25.2019
-23.7182
-22.3348
-21.043
-19.847
-151.322
-136.693
-125.712
-116.381
-107.698
-99.7111
-92.3952
-85.6812
-79.5153
-73.8528
-68.6518
-63.8729
-59.4799
-55.4388
-51.7187
-48.291
-45.1298
-42.2113
-39.5141
-37.0189
-34.7081
-32.5658
-30.5777
-28.7309
-27.0136
-25.4154
-23.9271
-22.539
-21.2422
-20.0435
-151.826
-137.191
-126.199
-116.85
-108.145
-100.135
-92.7971
-86.0625
-79.8778
-74.1984
-68.9821
-64.1896
-59.7843
-55.7323
-52.0022
-48.5654
-45.3958
-42.4697
-39.7654
-37.2636
-34.9467
-32.7986
-30.805
-28.953
-27.2307
-25.6278
-24.1349
-22.7421
-21.4404
-20.2393
-152.335
-137.691
-126.684
-117.315
-108.588
-100.555
-93.1952
-86.4403
-80.2371
-74.5409
-69.3096
-64.5037
-60.0864
-56.0235
-52.2836
-48.8379
-45.6601
-42.7264
-40.0152
-37.5069
-35.1838
-33.03
-31.0311
-29.1739
-27.4467
-25.8392
-24.3417
-22.9442
-21.6377
-20.4342
-152.846
-138.191
-127.166
-117.777
-109.027
-100.971
-93.5897
-86.8144
-80.5928
-74.8801
-69.634
-64.8149
-60.3857
-56.3122
-52.5627
-49.1082
-45.9224
-42.9812
-40.2631
-37.7484
-35.4194
-33.26
-31.2557
-29.3935
-27.6615
-26.0493
-24.5474
-23.1452
-21.8339
-20.6283
-153.357
-138.689
-127.647
-118.235
-109.462
-101.384
-93.9802
-87.1848
-80.945
-75.2159
-69.9552
-65.1231
-60.6823
-56.5982
-52.8392
-49.3761
-46.1824
-43.234
-40.5091
-37.9881
-35.6532
-33.4883
-31.4788
-29.6117
-27.875
-26.2582
-24.7518
-23.3451
-22.0291
-20.8216
-153.866
-139.186
-128.124
-118.691
-109.894
-101.792
-94.3667
-87.5513
-81.2933
-75.548
-70.2729
-65.428
-60.9757
-56.8814
-53.1131
-49.6415
-46.4401
-43.4845
-40.7531
-38.2259
-35.8852
-33.7149
-31.7003
-29.8283
-28.087
-26.4658
-24.9551
-23.5438
-22.2231
-21.0139
-154.372
-139.679
-128.598
-119.142
-110.321
-102.196
-94.7489
-87.9135
-81.6375
-75.8763
-70.587
-65.7294
-61.2659
-57.1615
-53.3841
-49.9042
-46.6952
-43.7326
-40.9947
-38.4615
-36.1152
-33.9396
-31.9201
-30.0433
-28.2975
-26.672
-25.157
-23.7412
-22.4161
-21.2054
-154.875
-140.169
-129.068
-119.588
-110.744
-102.596
-95.1265
-88.2712
-81.9775
-76.2004
-70.8971
-66.0271
-61.5525
-57.4382
-53.6519
-50.1639
-46.9475
-43.9781
-41.2339
-38.6949
-36.3431
-34.1623
-32.138
-30.2566
-28.5064
-26.8767
-25.3576
-23.9374
-22.6079
-21.396
-155.374
-140.654
-129.533
-120.03
-111.162
-102.99
-95.4992
-88.6242
-82.3128
-76.5201
-71.203
-66.3208
-61.8353
-57.7113
-53.9163
-50.4204
-47.1968
-44.2208
-41.4704
-38.9257
-36.5686
-34.3829
-32.3538
-30.4681
-28.7136
-27.0798
-25.5567
-24.1324
-22.7986
-21.5857
-155.868
-141.135
-129.994
-120.467
-111.575
-103.379
-95.8668
-88.9722
-82.6433
-76.8351
-71.5044
-66.6102
-62.1141
-57.9806
-54.1771
-50.6735
-47.4428
-44.4604
-41.7041
-39.1538
-36.7916
-34.6011
-32.5676
-30.6776
-28.9191
-27.2814
-25.7545
-24.326
-22.9881
-21.7746
-156.357
-141.61
-130.449
-120.899
-111.982
-103.763
-96.229
-89.3148
-82.9687
-77.1452
-71.8011
-66.8951
-62.3885
-58.2458
-54.4339
-50.9228
-47.6853
-44.6967
-41.9346
-39.3791
-37.0119
-34.8168
-32.779
-30.885
-29.1226
-27.4813
-25.9507
-24.5183
-23.1765
-21.9627
-156.841
-142.08
-130.898
-121.324
-112.383
-104.141
-96.5853
-89.6518
-83.2885
-77.45
-72.0927
-67.175
-62.6583
-58.5065
-54.6865
-51.1681
-47.924
-44.9293
-42.1617
-39.6011
-37.2292
-35.0298
-32.9879
-31.09
-29.3241
-27.6793
-26.1453
-24.7092
-23.3638
-22.1499
-157.318
-142.544
-131.341
-121.744
-112.778
-104.513
-96.9355
-89.9828
-83.6025
-77.7492
-72.3788
-67.4498
-62.9231
-58.7624
-54.9345
-51.409
-48.1585
-45.158
-42.3851
-39.8196
-37.4433
-35.2397
-33.194
-31.2926
-29.5233
-27.8753
-26.3382
-24.8986
-23.5499
-22.3364
-157.789
-143.001
-131.778
-122.156
-113.166
-104.878
-97.2793
-90.3075
-83.9104
-78.0424
-72.6593
-67.719
-63.1825
-59.0131
-55.1775
-51.6452
-48.3884
-45.3823
-42.6044
-40.0343
-37.6537
-35.4463
-33.397
-31.4923
-29.72
-28.0692
-26.5293
-25.0866
-23.7348
-22.5221
-158.254
-143.452
-132.208
-122.562
-113.548
-105.236
-97.6163
-90.6256
-84.2119
-78.3293
-72.9335
-67.9823
-63.4361
-59.2583
-55.4152
-51.8761
-48.6134
-45.602
-42.8192
-40.2447
-37.8602
-35.6491
-33.5966
-31.689
-29.9139
-28.2606
-26.7183
-25.2728
-23.9184
-22.707
-158.712
-143.896
-132.631
-122.961
-113.922
-105.587
-97.9462
-90.9367
-84.5065
-78.6096
-73.2014
-68.2393
-63.6836
-59.4975
-55.647
-52.1015
-48.833
-45.8164
-43.0289
-40.4503
-38.0621
-35.8478
-33.7923
-31.8821
-30.1047
-28.4493
-26.905
-25.4571
-24.1006
-22.8909
-159.164
-144.333
-133.046
-123.352
-114.289
-105.931
-98.2688
-91.2405
-84.794
-78.8829
-73.4623
-68.4896
-63.9246
-59.7303
-55.8727
-52.3208
-49.0466
-46.025
-43.2331
-40.6506
-38.259
-36.0416
-33.9836
-32.0711
-30.2918
-28.6348
-27.0889
-25.6393
-24.2811
-23.074
-159.609
-144.763
-133.455
-123.736
-114.648
-106.267
-98.5836
-91.5368
-85.074
-79.1488
-73.716
-68.7328
-64.1586
-59.9562
-56.0915
-52.5334
-49.2538
-46.2273
-43.4312
-40.8449
-38.4501
-36.23
-34.1697
-32.2554
-30.4746
-28.8165
-27.2697
-25.8188
-24.4598
-23.2559
-160.047
-145.186
-133.856
-124.112
-114.999
-106.594
-98.8905
-91.8251
-85.3461
-79.407
-73.9622
-68.9684
-64.3852
-60.1748
-56.3032
-52.7389
-49.4538
-46.4226
-43.6223
-41.0325
-38.6347
-36.4122
-34.3499
-32.4341
-30.6523
-28.9936
-27.4464
-25.995
-24.6359
-23.4361
-160.48
-145.602
-134.249
-124.48
-115.342
-106.914
-99.189
-92.1051
-85.6101
-79.6571
-74.2004
-69.1962
-64.6039
-60.3857
-56.507
-52.9366
-49.6462
-46.6102
-43.8058
-41.2126
-38.8118
-36.5871
-34.5231
-32.6062
-30.8239
-29.1652
-27.6183
-26.1672
-24.8089
-23.6139
-160.908
-146.011
-134.635
-124.84
-115.677
-107.225
-99.479
-92.3767
-85.8657
-79.8989
-74.4303
-69.4158
-64.8145
-60.5883
-56.7027
-53.1261
-49.8302
-46.7894
-43.9809
-41.3841
-38.9805
-36.7535
-34.6881
-32.7704
-30.988
-29.3299
-27.7842
-26.3344
-24.9779
-23.7889
-161.331
-146.413
-135.013
-125.192
-116.002
-107.527
-99.7601
-92.6395
-86.1126
-80.1322
-74.6517
-69.627
-65.0166
-60.7825
-56.8897
-53.3068
-50.0052
-46.9594
-44.1466
-41.5461
-39.1395
-36.9102
-34.8432
-32.9249
-31.1428
-29.4859
-27.9423
-26.4949
-25.1419
-23.9617
-161.751
-146.808
-135.382
-125.535
-116.319
-107.82
-100.032
-92.8933
-86.3507
-80.3567
-74.8644
-69.8294
-65.21
-60.9678
-57.0678
-53.4783
-50.1708
-47.1197
-44.3022
-41.6975
-39.2875
-37.0555
-34.9867
-33.0675
-31.2855
-29.63
-28.0889
-26.645
-25.2977
-24.1295
-162.167
-147.196
-135.743
-125.869
-116.627
-108.104
-100.295
-93.1377
-86.5796
-80.5721
-75.0683
-70.0231
-65.3945
-61.1441
-57.2367
-53.6404
-50.3266
-47.2698
-44.4469
-41.8376
-39.4235
-37.1883
-35.1169
-33.1962
-31.4139
-29.7594
-28.2206
-26.7806
-25.4401
-24.2824
-162.589
-147.579
-136.096
-126.194
-116.924
-108.377
-100.547
-93.372
-86.7986
-80.7781
-75.2628
-70.2075
-65.57
-61.3113
-57.3962
-53.7928
-50.4723
-47.4091
-44.5803
-41.9655
-39.5464
-37.3068
-35.2321
-33.3091
-31.5261
-29.8726
-28.3369
-26.9017
-25.5672
-24.4163
-163.034
-147.966
-136.44
-126.506
-117.209
-108.638
-100.787
-93.5954
-87.0074
-80.9743
-75.448
-70.3828
-65.7363
-61.4694
-57.5465
-53.9356
-50.6078
-47.5376
-44.7019
-42.0803
-39.6547
-37.4091
-35.329
-33.402
-31.617
-29.9647
-28.434
-27.0066
-25.6842
-24.5607
-163.505
-148.353
-136.771
-126.804
-117.481
-108.888
-101.018
-93.8097
-87.2076
-81.1622
-75.625
-70.5501
-65.8947
-61.6194
-57.6885
-54.0698
-50.7343
-47.6563
-44.8126
-42.1828
-39.7486
-37.4939
-35.4046
-33.4683
-31.675
-30.0168
-28.483
-27.0596
-25.7668
-24.7277
-163.919
-148.711
-137.085
-127.09
-117.745
-109.131
-101.244
-94.0192
-87.4031
-81.3454
-75.7974
-70.7126
-66.0481
-61.7642
-57.825
-54.1981
-50.8544
-47.768
-44.9154
-42.2761
-39.8315
-37.5651
-35.4621
-33.5095
-31.6965
-30.013
-28.4467
-26.9918
-25.7014
-24.6985
-168.722
-168.696
-168.625
-168.561
-168.503
-168.439
-168.365
-168.28
-168.185
-168.079
-167.963
-167.836
-167.698
-167.55
-167.39
-167.221
-167.042
-166.853
-166.654
-166.447
-166.231
-166.007
-165.776
-165.538
-165.295
-165.048
-164.801
-164.558
-164.328
-164.121
-153.252
-153.261
-153.242
-153.215
-153.181
-153.136
-153.079
-153.01
-152.928
-152.836
-152.732
-152.617
-152.491
-152.354
-152.207
-152.049
-151.881
-151.704
-151.517
-151.322
-151.118
-150.905
-150.686
-150.459
-150.226
-149.988
-149.747
-149.503
-149.257
-148.999
-141.208
-141.241
-141.255
-141.254
-141.238
-141.21
-141.169
-141.115
-141.049
-140.972
-140.883
-140.784
-140.673
-140.551
-140.419
-140.277
-140.126
-139.964
-139.794
-139.614
-139.426
-139.23
-139.025
-138.814
-138.595
-138.369
-138.137
-137.897
-137.646
-137.378
-130.766
-130.812
-130.842
-130.856
-130.854
-130.84
-130.812
-130.773
-130.721
-130.658
-130.584
-130.499
-130.404
-130.297
-130.181
-130.055
-129.919
-129.774
-129.62
-129.457
-129.285
-129.106
-128.918
-128.722
-128.519
-128.308
-128.088
-127.859
-127.618
-127.363
-121.022
-121.073
-121.111
-121.135
-121.144
-121.14
-121.124
-121.095
-121.055
-121.004
-120.942
-120.869
-120.786
-120.693
-120.591
-120.478
-120.357
-120.226
-120.087
-119.939
-119.783
-119.619
-119.447
-119.267
-119.079
-118.882
-118.677
-118.462
-118.237
-117.999
-112.079
-112.132
-112.175
-112.205
-112.22
-112.223
-112.214
-112.193
-112.161
-112.119
-112.066
-112.003
-111.93
-111.847
-111.755
-111.654
-111.544
-111.425
-111.298
-111.163
-111.02
-110.87
-110.711
-110.545
-110.371
-110.189
-109.998
-109.799
-109.589
-109.367
-103.934
-103.987
-104.031
-104.063
-104.082
-104.088
-104.084
-104.068
-104.041
-104.004
-103.957
-103.901
-103.835
-103.76
-103.676
-103.583
-103.482
-103.373
-103.256
-103.131
-102.999
-102.86
-102.713
-102.559
-102.397
-102.228
-102.05
-101.864
-101.669
-101.463
-96.5146
-96.5664
-96.6093
-96.6411
-96.6607
-96.6685
-96.6655
-96.652
-96.6283
-96.5949
-96.552
-96.4998
-96.4385
-96.3686
-96.2904
-96.2039
-96.1097
-96.0078
-95.8985
-95.7821
-95.6586
-95.5282
-95.3909
-95.2468
-95.0956
-94.9372
-94.7713
-94.5974
-94.4148
-94.223
-89.754
-89.8029
-89.8436
-89.8736
-89.8922
-89.8998
-89.8971
-89.8843
-89.8619
-89.8302
-89.7895
-89.7398
-89.6816
-89.6151
-89.5408
-89.4587
-89.3693
-89.2727
-89.1692
-89.059
-88.9423
-88.8192
-88.6897
-88.5539
-88.4116
-88.2627
-88.1069
-87.9438
-87.7728
-87.5934
-83.5894
-83.6349
-83.6723
-83.6998
-83.7165
-83.7228
-83.7192
-83.706
-83.6838
-83.6527
-83.6127
-83.5644
-83.5079
-83.4436
-83.3718
-83.2928
-83.2068
-83.114
-83.0149
-82.9095
-82.7981
-82.6808
-82.5577
-82.4288
-82.2941
-82.1535
-82.0065
-81.8529
-81.6922
-81.5238
-77.9612
-78.003
-78.037
-78.0615
-78.0757
-78.0801
-78.075
-78.0607
-78.0379
-78.0065
-77.9666
-77.9187
-77.8631
-77.8001
-77.7299
-77.6528
-77.5691
-77.4792
-77.3833
-77.2816
-77.1744
-77.0618
-76.9441
-76.8211
-76.6929
-76.5594
-76.4202
-76.2751
-76.1235
-75.965
-72.8147
-72.8527
-72.8832
-72.9045
-72.916
-72.9182
-72.9112
-72.8956
-72.8716
-72.8395
-72.7992
-72.7513
-72.6959
-72.6335
-72.5642
-72.4884
-72.4064
-72.3185
-72.2251
-72.1263
-72.0224
-71.9138
-71.8004
-71.6825
-71.56
-71.4328
-71.3007
-71.1633
-71.0201
-70.8706
-68.1005
-68.1348
-68.1618
-68.18
-68.1888
-68.1887
-68.1798
-68.1625
-68.1373
-68.1041
-68.0631
-68.0148
-67.9593
-67.8971
-67.8283
-67.7533
-67.6725
-67.5861
-67.4945
-67.398
-67.2969
-67.1915
-67.0819
-66.9684
-66.851
-66.7295
-66.6038
-66.4736
-66.3381
-66.197
-63.7745
-63.8055
-63.8292
-63.8443
-63.8505
-63.8481
-63.8372
-63.8183
-63.7917
-63.7574
-63.7156
-63.6667
-63.6109
-63.5486
-63.4801
-63.4056
-63.3255
-63.2402
-63.1501
-63.0554
-62.9566
-62.8539
-62.7477
-62.6381
-62.5252
-62.409
-62.2893
-62.1658
-62.0377
-61.9045
-59.7979
-59.8257
-59.8464
-59.8587
-59.8624
-59.8578
-59.8451
-59.8246
-59.7966
-59.7612
-59.7185
-59.6689
-59.6127
-59.5502
-59.4817
-59.4075
-59.3279
-59.2434
-59.1544
-59.0612
-58.9643
-58.8639
-58.7606
-58.6545
-58.5458
-58.4345
-58.3205
-58.2034
-58.0825
-57.957
-56.1364
-56.1613
-56.1791
-56.1889
-56.1903
-56.1837
-56.1692
-56.1472
-56.1179
-56.0814
-56.0378
-55.9876
-55.9309
-55.8681
-55.7994
-55.7253
-55.6461
-55.5622
-55.474
-55.382
-55.2866
-55.1883
-55.0875
-54.9845
-54.8796
-54.7729
-54.6644
-54.5535
-54.4397
-54.3219
-52.7597
-52.7819
-52.7971
-52.8045
-52.8039
-52.7954
-52.7793
-52.756
-52.7254
-52.6878
-52.6434
-52.5925
-52.5353
-52.4722
-52.4034
-52.3293
-52.2503
-52.1667
-52.0792
-51.9881
-51.8939
-51.7973
-51.6986
-51.5984
-51.497
-51.3947
-51.2914
-51.1867
-51.0799
-50.9699
-49.641
-49.6608
-49.6737
-49.679
-49.6765
-49.6663
-49.6487
-49.6241
-49.5924
-49.5538
-49.5087
-49.4571
-49.3994
-49.3359
-49.2669
-49.1927
-49.1137
-49.0305
-48.9433
-48.8529
-48.7597
-48.6643
-48.5675
-48.4697
-48.3715
-48.2733
-48.175
-48.0765
-47.9769
-47.8749
-46.7569
-46.7744
-46.7852
-46.7886
-46.7843
-46.7726
-46.7537
-46.7279
-46.6952
-46.6557
-46.6098
-46.5576
-46.4995
-46.4356
-46.3663
-46.292
-46.213
-46.1298
-46.0429
-45.9528
-45.8603
-45.766
-45.6706
-45.5748
-45.4794
-45.3849
-45.2916
-45.1992
-45.107
-45.0133
-44.0862
-44.1018
-44.1106
-44.1122
-44.1064
-44.0933
-44.0732
-44.0463
-44.0127
-43.9724
-43.9258
-43.8731
-43.8145
-43.7502
-43.6807
-43.6061
-43.527
-43.4437
-43.3569
-43.267
-43.1749
-43.0812
-42.9868
-42.8926
-42.7996
-42.7085
-42.6199
-42.5336
-42.449
-42.3643
-41.6105
-41.6242
-41.6313
-41.6313
-41.624
-41.6096
-41.5884
-41.5606
-41.5262
-41.4852
-41.438
-41.3848
-41.3257
-41.2611
-41.1912
-41.1164
-41.037
-40.9536
-40.8666
-40.7767
-40.6846
-40.5912
-40.4974
-40.4043
-40.3132
-40.225
-40.1407
-40.0606
-39.984
-39.909
-39.3129
-39.3249
-39.3304
-39.329
-39.3204
-39.3049
-39.2828
-39.2541
-39.2189
-39.1773
-39.1295
-39.0758
-39.0164
-38.9514
-38.8812
-38.8061
-38.7264
-38.6427
-38.5554
-38.4652
-38.3729
-38.2793
-38.1857
-38.0931
-38.0032
-37.9173
-37.837
-37.7628
-37.6947
-37.6303
-37.1786
-37.1891
-37.1932
-37.1904
-37.1807
-37.1642
-37.1412
-37.1117
-37.0758
-37.0337
-36.9854
-36.9313
-36.8715
-36.8062
-36.7356
-36.6602
-36.5802
-36.4961
-36.4084
-36.3177
-36.2248
-36.1307
-36.0366
-35.9439
-35.8544
-35.7701
-35.6931
-35.6245
-35.5655
-35.5128
-35.1943
-35.2033
-35.2061
-35.2022
-35.1914
-35.1741
-35.1502
-35.1201
-35.0836
-35.0409
-34.9923
-34.9378
-34.8776
-34.8119
-34.7411
-34.6653
-34.5849
-34.5003
-34.412
-34.3206
-34.2269
-34.1318
-34.0367
-33.9431
-33.8532
-33.7694
-33.6948
-33.6312
-33.5819
-33.5424
-33.3477
-33.3555
-33.3571
-33.3521
-33.3405
-33.3223
-33.2978
-33.267
-33.23
-33.1869
-33.1379
-33.083
-33.0225
-32.9566
-32.8854
-32.8093
-32.7285
-32.6433
-32.5543
-32.4621
-32.3672
-32.2708
-32.1741
-32.0788
-31.9874
-31.9027
-31.8291
-31.7695
-31.7303
-31.7058
-31.6282
-31.6348
-31.6353
-31.6293
-31.6168
-31.5979
-31.5727
-31.5414
-31.5039
-31.4604
-31.411
-31.3559
-31.2951
-31.2289
-31.1574
-31.0809
-30.9996
-30.9138
-30.824
-30.7307
-30.6345
-30.5363
-30.4374
-30.3395
-30.2453
-30.158
-30.0836
-30.026
-29.9966
-29.9884
-30.0259
-30.0314
-30.0309
-30.024
-30.0106
-29.991
-29.9652
-29.9333
-29.8954
-29.8514
-29.8016
-29.7461
-29.685
-29.6184
-29.5465
-29.4695
-29.3876
-29.3011
-29.2102
-29.1156
-29.0176
-28.9172
-28.8153
-28.7138
-28.6152
-28.5232
-28.4451
-28.3865
-28.366
-28.373
-28.5316
-28.5363
-28.5351
-28.5275
-28.5136
-28.4935
-28.4674
-28.4351
-28.3968
-28.3526
-28.3026
-28.2468
-28.1854
-28.1185
-28.0462
-27.9687
-27.8862
-27.7988
-27.7069
-27.6108
-27.5109
-27.4079
-27.3026
-27.1965
-27.092
-26.9926
-26.9068
-26.8432
-26.8311
-26.8543
-27.1359
-27.1405
-27.1393
-27.1319
-27.1182
-27.0984
-27.0727
-27.0409
-27.0032
-26.9596
-26.9102
-26.8551
-26.7944
-26.7283
-26.6567
-26.5798
-26.4978
-26.4108
-26.3191
-26.2228
-26.1223
-26.018
-25.9106
-25.801
-25.691
-25.5836
-25.4861
-25.4109
-25.4029
-25.4651
-25.8339
-25.8363
-25.8332
-25.8241
-25.8092
-25.7885
-25.7621
-25.7299
-25.6921
-25.6486
-25.5997
-25.5452
-25.4854
-25.4203
-25.3499
-25.2743
-25.1938
-25.1082
-25.0179
-24.9228
-24.8233
-24.7194
-24.6116
-24.5003
-24.3862
-24.2713
-24.1583
-24.0588
-24.0119
-24.1203
-160.693
-161.114
-161.473
-161.856
-162.259
-162.664
-163.062
-163.451
-163.83
-164.198
-164.554
-164.897
-165.227
-165.542
-165.842
-166.127
-166.397
-166.651
-166.889
-167.112
-167.319
-167.511
-167.688
-167.85
-167.999
-168.134
-168.259
-168.376
-168.491
-168.61
-145.073
-145.532
-145.958
-146.381
-146.806
-147.223
-147.629
-148.023
-148.405
-148.776
-149.133
-149.477
-149.808
-150.124
-150.425
-150.712
-150.983
-151.24
-151.481
-151.708
-151.919
-152.115
-152.296
-152.463
-152.616
-152.755
-152.883
-152.999
-153.104
-153.192
-132.982
-133.454
-133.908
-134.347
-134.774
-135.191
-135.595
-135.987
-136.367
-136.735
-137.09
-137.433
-137.761
-138.076
-138.377
-138.663
-138.935
-139.193
-139.436
-139.664
-139.877
-140.076
-140.261
-140.432
-140.588
-140.731
-140.86
-140.974
-141.073
-141.153
-122.628
-123.092
-123.543
-123.978
-124.399
-124.808
-125.205
-125.591
-125.964
-126.326
-126.674
-127.011
-127.334
-127.644
-127.94
-128.223
-128.491
-128.746
-128.987
-129.214
-129.427
-129.626
-129.811
-129.982
-130.139
-130.282
-130.411
-130.525
-130.624
-130.705
-113.08
-113.526
-113.964
-114.388
-114.798
-115.196
-115.583
-115.957
-116.32
-116.672
-117.011
-117.337
-117.651
-117.953
-118.241
-118.517
-118.779
-119.028
-119.263
-119.486
-119.694
-119.89
-120.071
-120.24
-120.395
-120.536
-120.663
-120.776
-120.875
-120.957
-104.409
-104.836
-105.257
-105.666
-106.063
-106.447
-106.82
-107.181
-107.531
-107.869
-108.196
-108.511
-108.814
-109.104
-109.382
-109.648
-109.901
-110.141
-110.369
-110.583
-110.785
-110.975
-111.151
-111.314
-111.464
-111.602
-111.725
-111.836
-111.932
-112.014
-96.5799
-96.9881
-97.391
-97.7837
-98.1642
-98.533
-98.8906
-99.2374
-99.5731
-99.8975
-100.211
-100.512
-100.802
-101.08
-101.347
-101.601
-101.843
-102.073
-102.291
-102.497
-102.691
-102.872
-103.041
-103.197
-103.341
-103.473
-103.592
-103.698
-103.791
-103.87
-89.4959
-89.8858
-90.2707
-90.6463
-91.0105
-91.3634
-91.7057
-92.0375
-92.3585
-92.6686
-92.9677
-93.2556
-93.5324
-93.7978
-94.0517
-94.2942
-94.5251
-94.7445
-94.9521
-95.1481
-95.3323
-95.5047
-95.6653
-95.8141
-95.951
-96.0759
-96.1887
-96.2893
-96.3775
-96.4531
-83.0715
-83.4441
-83.8118
-84.1707
-84.5189
-84.8565
-85.1838
-85.5009
-85.8076
-86.1036
-86.3889
-86.6635
-86.9271
-87.1799
-87.4215
-87.6522
-87.8716
-88.08
-88.2771
-88.4629
-88.6376
-88.8009
-88.9529
-89.0935
-89.2228
-89.3406
-89.4469
-89.5417
-89.6246
-89.6959
-77.2323
-77.5888
-77.9404
-78.2837
-78.6168
-78.9398
-79.2529
-79.556
-79.8489
-80.1315
-80.4037
-80.6654
-80.9165
-81.157
-81.3869
-81.606
-81.8144
-82.012
-82.1988
-82.3748
-82.54
-82.6943
-82.8378
-82.9704
-83.092
-83.2027
-83.3024
-83.3911
-83.4687
-83.5352
-71.9117
-72.2535
-72.5905
-72.9193
-73.2384
-73.5478
-73.8475
-74.1375
-74.4176
-74.6876
-74.9475
-75.197
-75.4364
-75.6654
-75.884
-76.0922
-76.2901
-76.4776
-76.6546
-76.8212
-76.9774
-77.1231
-77.2583
-77.3831
-77.4974
-77.6012
-77.6945
-77.7773
-77.8495
-77.9112
-67.0517
-67.3802
-67.7037
-68.0194
-68.3256
-68.6225
-68.9099
-69.1878
-69.4559
-69.7142
-69.9626
-70.2009
-70.4292
-70.6474
-70.8556
-71.0537
-71.2418
-71.4197
-71.5876
-71.7454
-71.8931
-72.0307
-72.1582
-72.2757
-72.3831
-72.4804
-72.5676
-72.6447
-72.7117
-72.7687
-62.6019
-62.9184
-63.2298
-63.5334
-63.828
-64.1133
-64.3895
-64.6562
-64.9133
-65.1608
-65.3985
-65.6264
-65.8445
-66.0528
-66.2513
-66.44
-66.6189
-66.788
-66.9474
-67.097
-67.2369
-67.367
-67.4874
-67.5981
-67.699
-67.7903
-67.8718
-67.9437
-68.0058
-68.0584
-58.5188
-58.8245
-59.1249
-59.4177
-59.7016
-59.9765
-60.2423
-60.4988
-60.7458
-60.9833
-61.2111
-61.4294
-61.6381
-61.8372
-62.0267
-62.2067
-62.3772
-62.5382
-62.6897
-62.8318
-62.9645
-63.0877
-63.2015
-63.306
-63.401
-63.4867
-63.563
-63.63
-63.6876
-63.7361
-54.7648
-55.0608
-55.3514
-55.6344
-55.9087
-56.174
-56.4303
-56.6774
-56.9151
-57.1433
-57.3621
-57.5714
-57.7714
-57.962
-58.1432
-58.3152
-58.4779
-58.6315
-58.7758
-58.911
-59.037
-59.1539
-59.2617
-59.3604
-59.4501
-59.5306
-59.6022
-59.6647
-59.7182
-59.7629
-51.3074
-51.5945
-51.8763
-52.1505
-52.4161
-52.6727
-52.9203
-53.1587
-53.3878
-53.6075
-53.8178
-54.0189
-54.2108
-54.3935
-54.5671
-54.7317
-54.8873
-55.0339
-55.1716
-55.3004
-55.4204
-55.5315
-55.6338
-55.7272
-55.8119
-55.8879
-55.955
-56.0135
-56.0633
-56.1044
-48.1179
-48.3973
-48.6711
-48.9374
-49.1951
-49.4438
-49.6834
-49.9138
-50.1348
-50.3466
-50.5491
-50.7425
-50.9268
-51.1022
-51.2688
-51.4265
-51.5754
-51.7157
-51.8473
-51.9703
-52.0847
-52.1904
-52.2877
-52.3764
-52.4565
-52.5282
-52.5914
-52.6462
-52.6925
-52.7305
-45.1715
-45.4439
-45.7108
-45.97
-46.2205
-46.462
-46.6942
-46.9171
-47.1306
-47.3349
-47.5301
-47.7163
-47.8937
-48.0622
-48.2222
-48.3735
-48.5163
-48.6507
-48.7767
-48.8943
-49.0035
-49.1044
-49.197
-49.2813
-49.3574
-49.4252
-49.4847
-49.5361
-49.5793
-49.6145
-42.4462
-42.7125
-42.9731
-43.2261
-43.4702
-43.7049
-43.9302
-44.1461
-44.3527
-44.55
-44.7383
-44.9177
-45.0884
-45.2506
-45.4044
-45.5498
-45.6869
-45.8158
-45.9365
-46.0491
-46.1536
-46.2501
-46.3384
-46.4187
-46.4909
-46.5552
-46.6115
-46.6598
-46.7001
-46.7327
-39.9226
-40.1834
-40.4387
-40.6862
-40.9245
-41.153
-41.3718
-41.5811
-41.781
-41.9716
-42.1534
-42.3264
-42.4909
-42.6471
-42.795
-42.9349
-43.0666
-43.1905
-43.3064
-43.4143
-43.5145
-43.6067
-43.6911
-43.7677
-43.8365
-43.8975
-43.9508
-43.9963
-44.034
-44.0642
-37.5831
-37.8393
-38.0902
-38.333
-38.5659
-38.7886
-39.0013
-39.2043
-39.3977
-39.582
-39.7574
-39.9244
-40.083
-40.2335
-40.376
-40.5106
-40.6374
-40.7564
-40.8678
-40.9715
-41.0676
-41.156
-41.2368
-41.31
-41.3756
-41.4336
-41.484
-41.527
-41.5624
-41.5903
-35.4122
-35.6647
-35.9122
-36.1509
-36.379
-36.5961
-36.8029
-36.9997
-37.1869
-37.365
-37.5344
-37.6955
-37.8485
-37.9936
-38.1309
-38.2606
-38.3828
-38.4974
-38.6046
-38.7043
-38.7966
-38.8814
-38.9589
-39.0289
-39.0916
-39.1469
-39.1948
-39.2353
-39.2686
-39.2945
-33.3955
-33.6452
-33.8906
-34.1261
-34.3496
-34.5614
-34.7623
-34.953
-35.1341
-35.3062
-35.4698
-35.6253
-35.7729
-35.9129
-36.0454
-36.1705
-36.2882
-36.3987
-36.5019
-36.5979
-36.6867
-36.7683
-36.8427
-36.9098
-36.9698
-37.0225
-37.0681
-37.1065
-37.1377
-37.1619
-31.5201
-31.7682
-32.0129
-32.246
-32.4651
-32.6714
-32.8665
-33.0512
-33.2262
-33.3925
-33.5504
-33.7005
-33.843
-33.9782
-34.1061
-34.2268
-34.3405
-34.4471
-34.5467
-34.6392
-34.7248
-34.8033
-34.8748
-34.9393
-34.9968
-35.0472
-35.0907
-35.1271
-35.1565
-35.179
-29.7746
-30.0226
-30.2684
-30.4995
-30.7141
-30.9149
-31.104
-31.2826
-31.4516
-31.6121
-31.7645
-31.9095
-32.0471
-32.1777
-32.3013
-32.418
-32.5278
-32.6309
-32.727
-32.8164
-32.8989
-32.9747
-33.0435
-33.1055
-33.1607
-33.209
-33.2505
-33.2851
-33.3128
-33.3338
-28.1474
-28.3998
-28.6489
-28.8777
-29.0873
-29.2823
-29.4651
-29.6374
-29.8004
-29.9552
-30.1023
-30.2423
-30.3753
-30.5015
-30.6211
-30.7339
-30.8401
-30.9398
-31.0327
-31.1191
-31.1988
-31.2718
-31.3382
-31.3979
-31.451
-31.4973
-31.5369
-31.5698
-31.596
-31.6155
-26.6193
-26.8876
-27.1451
-27.3708
-27.5743
-27.7629
-27.9393
-28.1052
-28.2622
-28.4114
-28.5535
-28.6887
-28.8174
-28.9396
-29.0553
-29.1646
-29.2675
-29.3639
-29.4539
-29.5374
-29.6145
-29.6851
-29.7492
-29.8068
-29.8578
-29.9023
-29.9402
-29.9715
-29.9962
-30.0144
-25.1594
-25.4567
-25.7338
-25.9582
-26.1551
-26.3372
-26.5072
-26.6672
-26.8188
-26.9631
-27.1008
-27.2322
-27.3572
-27.4761
-27.5887
-27.6951
-27.7953
-27.8893
-27.9769
-28.0583
-28.1334
-28.2021
-28.2645
-28.3204
-28.37
-28.4131
-28.4497
-28.4799
-28.5037
-28.521
-23.7863
-24.0986
-24.4003
-24.6312
-24.8226
-24.9974
-25.1614
-25.3158
-25.4622
-25.6021
-25.736
-25.8639
-25.9859
-26.1019
-26.2119
-26.316
-26.4139
-26.5059
-26.5917
-26.6714
-26.745
-26.8123
-26.8735
-26.9284
-26.9771
-27.0194
-27.0554
-27.0851
-27.1084
-27.1254
-22.733
-23.0168
-23.2811
-23.5163
-23.6993
-23.8572
-24.0081
-24.1516
-24.2876
-24.4178
-24.5427
-24.6622
-24.7761
-24.8844
-24.9871
-25.084
-25.1752
-25.2606
-25.3402
-25.414
-25.4819
-25.544
-25.6001
-25.6504
-25.6947
-25.7329
-25.7652
-25.7915
-25.8117
-25.8259
-15.6395
-16.7399
-17.9279
-19.2017
-20.5695
-22.0399
-23.6209
-25.3215
-27.1518
-29.123
-31.2475
-33.539
-36.013
-38.6866
-41.5791
-44.7123
-48.111
-51.8036
-55.8231
-60.2078
-65.0033
-70.2631
-76.0511
-82.4427
-89.5304
-97.4284
-106.205
-115.838
-127.315
-142.489
-15.8712
-16.9777
-18.1686
-19.4462
-20.8185
-22.2937
-23.8799
-25.5861
-27.4225
-29.4002
-31.5317
-33.8308
-36.313
-38.9955
-41.8977
-45.0415
-48.4517
-52.1571
-56.1905
-60.5908
-65.4035
-70.6824
-76.4916
-82.9066
-90.0199
-97.9452
-106.75
-116.407
-127.893
-143.056
-16.1047
-17.2172
-18.411
-19.6925
-21.0695
-22.5496
-24.1411
-25.8531
-27.6956
-29.68
-31.8187
-34.1256
-36.6162
-39.3078
-42.2199
-45.3745
-48.7965
-52.5148
-56.5626
-60.9787
-65.8089
-71.1073
-76.938
-83.3764
-90.515
-98.4668
-107.297
-116.975
-128.463
-143.6
-16.3396
-17.4579
-18.6547
-19.9402
-21.3218
-22.807
-24.4039
-26.1216
-27.9704
-29.9616
-32.1076
-34.4224
-36.9215
-39.6223
-42.5444
-45.7099
-49.1438
-52.8752
-56.9375
-61.3695
-66.2173
-71.5352
-77.3874
-83.8493
-91.0128
-98.9903
-107.846
-117.545
-129.042
-144.167
-16.5757
-17.6996
-18.8994
-20.1889
-21.5753
-23.0656
-24.6679
-26.3915
-28.2467
-30.2446
-32.398
-34.7207
-37.2284
-39.9385
-42.8706
-46.0471
-49.4931
-53.2376
-57.3143
-61.7623
-66.6278
-71.9651
-77.8387
-84.3239
-91.5122
-99.5154
-108.396
-118.119
-129.632
-144.758
-16.8126
-17.942
-19.1448
-20.4385
-21.8298
-23.3252
-24.933
-26.6626
-28.5241
-30.529
-32.6897
-35.0205
-37.5368
-40.2562
-43.1986
-46.386
-49.8441
-53.6019
-57.6931
-62.1571
-67.0402
-72.3971
-78.2921
-84.8006
-92.0138
-100.043
-108.95
-118.696
-130.228
-145.36
-17.0501
-18.185
-19.3908
-20.6888
-22.085
-23.5856
-25.199
-26.9346
-28.8026
-30.8144
-32.9827
-35.3215
-37.8465
-40.5754
-43.528
-46.7266
-50.1968
-53.9679
-58.0737
-62.5538
-67.4547
-72.8311
-78.7475
-85.2794
-92.5177
-100.573
-109.506
-119.276
-130.828
-145.968
-17.2881
-18.4282
-19.637
-20.9394
-22.3407
-23.8466
-25.4657
-27.2073
-29.0819
-31.1008
-33.2766
-35.6236
-38.1574
-40.8959
-43.8587
-47.0685
-50.551
-54.3354
-58.4559
-62.9523
-67.871
-73.267
-79.205
-85.7604
-93.0239
-101.105
-110.064
-119.859
-131.431
-146.58
-17.5263
-18.6714
-19.8833
-21.1902
-22.5967
-24.108
-25.7328
-27.4806
-29.3618
-31.3878
-33.5713
-35.9265
-38.4692
-41.2172
-44.1905
-47.4116
-50.9063
-54.7042
-58.8395
-63.3521
-68.2888
-73.7046
-79.6643
-86.2433
-93.5321
-101.64
-110.625
-120.445
-132.036
-147.197
-17.7646
-18.9145
-20.1296
-21.4411
-22.8528
-24.3696
-26.0002
-27.7543
-29.6421
-31.6753
-33.8665
-36.23
-38.7817
-41.5394
-44.5231
-47.7556
-51.2627
-55.0741
-59.2243
-63.7532
-68.7078
-74.1435
-80.125
-86.7276
-94.0418
-102.176
-111.188
-121.032
-132.644
-147.817
-18.0027
-19.1573
-20.3755
-21.6918
-23.1088
-24.6312
-26.2678
-28.0281
-29.9227
-31.9631
-34.1622
-36.534
-39.0947
-41.8621
-44.8563
-48.1002
-51.6197
-55.4448
-59.6099
-64.1552
-69.128
-74.5836
-80.5869
-87.2133
-94.553
-102.714
-111.752
-121.621
-133.254
-148.439
-18.2405
-19.3997
-20.621
-21.9422
-23.3646
-24.8927
-26.5352
-28.302
-30.2034
-32.2511
-34.458
-36.8383
-39.408
-42.1852
-45.19
-48.4453
-51.9774
-55.8161
-59.9962
-64.558
-69.5489
-75.0244
-81.0497
-87.6999
-95.0651
-103.253
-112.317
-122.212
-133.864
-149.063
-18.4779
-19.6414
-20.866
-22.1921
-23.6201
-25.154
-26.8025
-28.5757
-30.4841
-32.5392
-34.7539
-37.1426
-39.7215
-42.5085
-45.5239
-48.7907
-52.3353
-56.1877
-60.3828
-64.9612
-69.9703
-75.4658
-81.513
-88.1871
-95.5779
-103.792
-112.883
-122.802
-134.475
-149.687
-18.7148
-19.8824
-21.1102
-22.4416
-23.8752
-25.4149
-27.0696
-28.8493
-30.7646
-32.827
-35.0497
-37.447
-40.0349
-42.8317
-45.8578
-49.1362
-52.6933
-56.5595
-60.7696
-65.3645
-70.3918
-75.9075
-81.9767
-88.6747
-96.0909
-104.332
-113.45
-123.393
-135.086
-150.31
-18.9511
-20.1226
-21.3538
-22.6904
-24.1298
-25.6754
-27.3363
-29.1225
-31.0448
-33.1147
-35.3453
-37.7511
-40.3482
-43.1548
-46.1915
-49.4815
-53.0512
-56.9311
-61.1563
-65.7678
-70.8134
-76.3491
-82.4402
-89.1621
-96.6039
-104.871
-114.016
-123.983
-135.697
-150.933
-19.1868
-20.3621
-21.5966
-22.9386
-24.3839
-25.9355
-27.6026
-29.3954
-31.3247
-33.4021
-35.6406
-38.0549
-40.6611
-43.4776
-46.5249
-49.8264
-53.4087
-57.3023
-61.5426
-66.1707
-71.2345
-76.7903
-82.9034
-89.6491
-97.1164
-105.41
-114.581
-124.573
-136.306
-151.555
-19.4219
-20.6008
-21.8387
-23.1862
-24.6375
-26.1951
-27.8685
-29.6679
-31.6042
-33.689
-35.9355
-38.3583
-40.9736
-43.7999
-46.8578
-50.1708
-53.7656
-57.6729
-61.9283
-66.5729
-71.6549
-77.2307
-83.3658
-90.1353
-97.628
-105.948
-115.145
-125.161
-136.913
-152.175
-19.6566
-20.8389
-22.0801
-23.4333
-24.8907
-26.4543
-28.134
-29.9401
-31.8833
-33.9755
-36.2299
-38.6611
-41.2855
-44.1215
-47.19
-50.5144
-54.1217
-58.0427
-62.313
-66.9741
-72.0743
-77.6701
-83.8271
-90.6204
-98.1383
-106.484
-115.707
-125.747
-137.519
-152.792
-19.8911
-21.0766
-22.3212
-23.6801
-25.1435
-26.7132
-28.3992
-30.2118
-32.1619
-34.2615
-36.5237
-38.9632
-41.5966
-44.4423
-47.5212
-50.857
-54.4766
-58.4112
-62.6964
-67.374
-72.4923
-78.108
-84.2868
-91.1038
-98.6469
-107.019
-116.268
-126.331
-138.122
-153.407
-20.1258
-21.3142
-22.562
-23.9267
-25.3962
-26.972
-28.6641
-30.4832
-32.4401
-34.5469
-36.8168
-39.2645
-41.9067
-44.762
-47.8512
-51.1983
-54.8302
-58.7782
-63.0783
-67.7722
-72.9085
-78.5441