/*--------------------------------*- C++ -*----------------------------------*\
  =========                 |
  \\      /  F ield         | OpenFOAM: The Open Source CFD Toolbox
   \\    /   O peration     | Website:  https://openfoam.org
    \\  /    A nd           | Version:  6.0
     \\/     M anipulation  |
\*---------------------------------------------------------------------------*/
FoamFile
{
    version     2.0;
    format      ascii;
    class       surfaceScalarField;
    location    "9.75";
    object      phi;
}
// * * * * * * * * * * * * * * * * * * * * * * * * * * * * * * * * * * * * * //

dimensions      [0 3 -1 0 0 0 0];

internalField   nonuniform List<scalar> 
38030
(
3.42873e-05
-0.323791
0.323756
0.000247275
-0.310584
0.310371
0.00057921
-0.299717
0.299385
0.000983573
-0.290252
0.289848
0.00142985
-0.281682
0.281236
0.00189508
-0.273626
0.273161
0.00236293
-0.265868
0.2654
0.00282293
-0.258305
0.257845
0.0032691
-0.250898
0.250452
0.00369863
-0.243642
0.243213
0.00411086
-0.236548
0.236136
0.00450649
-0.229634
0.229238
0.00488701
-0.222915
0.222534
0.00525423
-0.216404
0.216037
0.00561005
-0.21011
0.209754
0.00595627
-0.204037
0.203691
0.0062945
-0.198185
0.197846
0.0066261
-0.19255
0.192219
0.00695226
-0.187129
0.186803
0.00727397
-0.181915
0.181594
0.00759216
-0.176901
0.176583
0.00790774
-0.17208
0.171764
0.00822171
-0.167441
0.167127
0.00853513
-0.162976
0.162662
0.00884921
-0.158673
0.158359
0.00916519
-0.154519
0.154203
0.00948419
-0.150497
0.150178
0.00980683
-0.146591
0.146269
0.0101328
-0.142779
0.142453
-0.13904
0.138712
0.0104606
5.44372e-05
-0.323845
0.000269814
-0.310799
0.000601618
-0.300049
0.00100563
-0.290656
0.00145051
-0.282127
0.00191351
-0.274089
0.00237859
-0.266333
0.0028354
-0.258762
0.00327805
-0.251341
0.00370388
-0.244068
0.00411233
-0.236957
0.00450423
-0.230026
0.00488112
-0.223292
0.00524488
-0.216768
0.00559744
-0.210463
0.00594061
-0.20438
0.00627599
-0.19852
0.00660494
-0.192879
0.0069286
-0.187453
0.00724795
-0.182235
0.00756387
-0.177217
0.00787725
-0.172393
0.00818905
-0.167753
0.00850034
-0.163287
0.00881233
-0.158985
0.00912636
-0.154833
0.00944367
-0.150815
0.00976508
-0.146913
0.0100905
-0.143105
-0.139368
0.0104187
7.33409e-05
-0.323918
0.000291377
-0.311017
0.000621886
-0.300379
0.00102503
-0.291059
0.00146867
-0.28257
0.0019296
-0.27455
0.00239188
-0.266795
0.00284534
-0.259215
0.00328428
-0.25178
0.00370617
-0.24449
0.00411061
-0.237361
0.00449853
-0.230414
0.00487156
-0.223665
0.00523164
-0.217128
0.00558071
-0.210812
0.00592062
-0.20472
0.00625295
-0.198852
0.00657905
-0.193205
0.00690004
-0.187774
0.00721686
-0.182552
0.00753035
-0.177531
0.00784135
-0.172704
0.00815081
-0.168062
0.00845978
-0.163596
0.00876955
-0.159295
0.00908142
-0.155145
0.00939683
-0.15113
0.00971677
-0.147233
0.0100414
-0.143429
-0.139697
0.0103699
7.99232e-05
-0.323998
0.000304476
-0.311242
0.000637461
-0.300712
0.00104109
-0.291463
0.00148395
-0.283013
0.00194297
-0.275009
0.00240244
-0.267255
0.00285243
-0.259665
0.00328747
-0.252215
0.00370523
-0.244908
0.00410545
-0.237762
0.00448918
-0.230797
0.00485814
-0.224034
0.00521432
-0.217484
0.00555972
-0.211157
0.00589616
-0.205056
0.00622526
-0.199181
0.00654834
-0.193528
0.00686649
-0.188092
0.00718061
-0.182866
0.00749151
-0.177842
0.00779999
-0.173012
0.00810696
-0.168369
0.00841348
-0.163903
0.00872081
-0.159602
0.0090304
-0.155454
0.00934371
-0.151444
0.00966199
-0.147551
0.00998568
-0.143753
-0.140025
0.0103142
8.53689e-05
-0.324084
0.000314957
-0.311471
0.00065043
-0.301048
0.00105463
-0.291867
0.00149669
-0.283455
0.00195376
-0.275466
0.00241031
-0.267711
0.00285668
-0.260112
0.00328764
-0.252646
0.00370105
-0.245321
0.00409684
-0.238157
0.00447616
-0.231177
0.00484083
-0.224398
0.0051929
-0.217836
0.0055344
-0.211499
0.0058672
-0.205389
0.00619287
-0.199507
0.00651275
-0.193848
0.00682789
-0.188407
0.00713916
-0.183177
0.00744733
-0.17815
0.00775315
-0.173318
0.00805748
-0.168673
0.00836138
-0.164206
0.00866611
-0.159907
0.00897325
-0.155761
0.00928432
-0.151755
0.00960078
-0.147867
0.00992333
-0.144076
-0.140353
0.0102517
8.86621e-05
-0.324172
0.000322405
-0.311705
0.000660557
-0.301386
0.00106558
-0.292272
0.0015069
-0.283897
0.00196195
-0.275921
0.00241544
-0.268165
0.00285802
-0.260554
0.00328469
-0.253073
0.00369354
-0.24573
0.00408466
-0.238548
0.00445935
-0.231551
0.00481951
-0.224759
0.00516727
-0.218184
0.00550467
-0.211836
0.00583361
-0.205718
0.00615568
-0.199829
0.00647217
-0.194165
0.00678414
-0.188719
0.00709241
-0.183485
0.0073977
-0.178455
0.00770071
-0.173621
0.00800227
-0.168975
0.00830341
-0.164508
0.00860545
-0.160209
0.00890994
-0.156066
0.00921864
-0.152063
0.00953312
-0.148182
0.00985439
-0.144397
-0.140682
0.0101825
9.13924e-05
-0.324264
0.00032844
-0.311942
0.000668797
-0.301726
0.00107444
-0.292678
0.00151484
-0.284337
0.00196766
-0.276374
0.0024179
-0.268615
0.00285646
-0.260993
0.00327862
-0.253495
0.00368268
-0.246134
0.0040689
-0.238935
0.00443873
-0.231921
0.00479416
-0.225114
0.00513737
-0.218527
0.00547047
-0.212169
0.00579535
-0.206043
0.0061136
-0.200147
0.00642653
-0.194478
0.00673514
-0.189028
0.00704024
-0.18379
0.0073425
-0.178757
0.00764256
-0.173921
0.00794122
-0.169274
0.00823951
-0.164806
0.00853871
-0.160508
0.00884049
-0.156368
0.00914663
-0.152369
0.00945899
-0.148494
0.00977885
-0.144717
-0.141009
0.0101066
9.34969e-05
-0.324357
0.000333213
-0.312182
0.000675365
-0.302068
0.00108136
-0.293084
0.00152063
-0.284776
0.00197099
-0.276824
0.00241773
-0.269062
0.00285202
-0.261427
0.00326942
-0.253912
0.00366843
-0.246533
0.00404952
-0.239316
0.00441425
-0.232286
0.0047647
-0.225464
0.00510314
-0.218866
0.00543171
-0.212498
0.00575231
-0.206364
0.00606655
-0.200462
0.00637571
-0.194787
0.00668079
-0.189333
0.00698256
-0.184092
0.00728163
-0.179057
0.00757862
-0.174218
0.00787426
-0.169569
0.00816955
-0.165101
0.00846581
-0.160804
0.00876471
-0.156666
0.00906822
-0.152673
0.00937831
-0.148804
0.00969661
-0.145035
-0.141337
0.0100239
9.52576e-05
-0.324452
0.000337127
-0.312424
0.00068063
-0.302412
0.00108663
-0.29349
0.00152444
-0.285214
0.00197206
-0.277272
0.00241501
-0.269505
0.00284476
-0.261857
0.00325712
-0.254324
0.00365082
-0.246927
0.00402651
-0.239691
0.00438587
-0.232645
0.0047311
-0.22581
0.00506452
-0.219199
0.00538831
-0.212822
0.0057044
-0.20668
0.00601441
-0.200772
0.0063196
-0.195092
0.00662096
-0.189634
0.00691922
-0.18439
0.00721496
-0.179352
0.00750874
-0.174512
0.00780123
-0.169862
0.00809339
-0.165393
0.00838655
-0.161097
0.00868241
-0.156962
0.00898319
-0.152974
0.00929089
-0.149112
0.00960752
-0.145352
-0.141663
0.00993421
9.67006e-05
-0.324549
0.000340299
-0.312667
0.000684745
-0.302756
0.00109039
-0.293895
0.00152642
-0.28565
0.00197096
-0.277716
0.00240981
-0.269944
0.00283472
-0.262282
0.00324174
-0.254731
0.00362985
-0.247315
0.00399985
-0.240061
0.00435357
-0.232999
0.00469331
-0.226149
0.00502145
-0.219527
0.00534021
-0.21314
0.00565155
-0.206991
0.00595708
-0.201077
0.00625808
-0.195393
0.0065555
-0.189932
0.00685005
-0.184685
0.00714228
-0.179645
0.00743269
-0.174802
0.0077219
-0.170151
0.0080108
-0.165682
0.00830071
-0.161387
0.00859348
-0.157255
0.00889128
-0.153272
0.00919654
-0.149417
0.00951138
-0.145667
-0.141989
0.0098374
9.78926e-05
-0.324647
0.000342853
-0.312912
0.000687871
-0.303101
0.00109279
-0.2943
0.00152668
-0.286084
0.0019678
-0.278157
0.00240222
-0.270378
0.00282196
-0.262702
0.00322334
-0.255133
0.00360554
-0.247697
0.00396956
-0.240425
0.00431735
-0.233347
0.00465131
-0.226483
0.00497388
-0.21985
0.00528734
-0.213454
0.00559364
-0.207297
0.00589444
-0.201378
0.00619098
-0.19569
0.00648423
-0.190225
0.00677487
-0.184976
0.00706339
-0.179933
0.00735025
-0.175089
0.00763601
-0.170437
0.00792153
-0.165968
0.0082081
-0.161674
0.00849758
-0.157545
0.00879227
-0.153566
0.00909493
-0.14972
0.00940788
-0.145979
-0.142315
0.00973315
9.88558e-05
-0.324746
0.000344849
-0.313158
0.000690104
-0.303447
0.00109395
-0.294704
0.00152534
-0.286515
0.00196269
-0.278595
0.00239233
-0.270808
0.00280656
-0.263116
0.00320196
-0.255528
0.00357794
-0.248073
0.00393566
-0.240783
0.0042772
-0.233688
0.00460507
-0.226811
0.00492177
-0.220166
0.00522962
-0.213762
0.0055306
-0.207598
0.00582636
-0.201674
0.00611817
-0.195981
0.00640698
-0.190514
0.00669344
-0.185262
0.00697802
-0.180218
0.00726114
-0.175372
0.00754329
-0.170719
0.00782526
-0.16625
0.00810831
-0.161957
0.00839433
-0.157831
0.00868583
-0.153858
0.00898564
-0.15002
0.00929662
-0.14629
-0.142639
0.00962106
9.96023e-05
-0.324845
0.000346355
-0.313405
0.000691536
-0.303792
0.00109397
-0.295106
0.0015225
-0.286944
0.00195572
-0.279028
0.00238022
-0.271232
0.0027886
-0.263524
0.00317769
-0.255917
0.0035471
-0.248442
0.00389818
-0.241134
0.00423315
-0.234023
0.0045546
-0.227133
0.00486509
-0.220477
0.00516699
-0.214064
0.00546231
-0.207894
0.00575271
-0.201964
0.00603947
-0.196268
0.00632352
-0.190798
0.00660552
-0.185544
0.0068859
-0.180498
0.00716503
-0.175652
0.00744334
-0.170997
0.00772157
-0.166528
0.00800094
-0.162236
0.00828336
-0.158113
0.00857143
-0.154146
0.00886822
-0.150316
0.00917707
-0.146599
-0.142963
0.00950061
0.000100145
-0.324946
0.000347408
-0.313652
0.000692251
-0.304137
0.00109295
-0.295507
0.00151827
-0.287369
0.001947
-0.279457
0.00236601
-0.271651
0.00276818
-0.263926
0.00315059
-0.2563
0.0035131
-0.248805
0.00385719
-0.241478
0.00418523
-0.234351
0.0044999
-0.227447
0.00480383
-0.220781
0.00509941
-0.214359
0.0053887
-0.208183
0.00567337
-0.202249
0.0059547
-0.196549
0.00623365
-0.191077
0.00651084
-0.185821
0.00678669
-0.180774
0.00706154
-0.175926
0.00733576
-0.171271
0.00761002
-0.166802
0.00788549
-0.162512
0.00816408
-0.158392
0.00844848
-0.15443
0.0087421
-0.15061
0.00904852
-0.146906
-0.143285
0.00937115
0.000100488
-0.325046
0.000348065
-0.3139
0.000692335
-0.304481
0.001091
-0.295906
0.00151278
-0.287791
0.00193666
-0.279881
0.00234981
-0.272064
0.00274541
-0.264322
0.0031208
-0.256675
0.00347602
-0.24916
0.00381276
-0.241815
0.0041335
-0.234672
0.004441
-0.227755
0.00473797
-0.221078
0.00502684
-0.214648
0.00530969
-0.208466
0.00558821
-0.202527
0.0058637
-0.196825
0.00613711
-0.19135
0.00640909
-0.186093
0.00668003
-0.181045
0.00695024
-0.176197
0.00722004
-0.171541
0.00749003
-0.167072
0.00776133
-0.162783
0.00803583
-0.158666
0.00831635
-0.154711
0.00860652
-0.1509
0.00891035
-0.14721
-0.143607
0.00923182
0.000100644
-0.325147
0.000348383
-0.314148
0.000691886
-0.304824
0.00108825
-0.296302
0.00150614
-0.288209
0.00192483
-0.280299
0.00233177
-0.272471
0.00272044
-0.264711
0.00308843
-0.257043
0.003436
-0.249508
0.003765
-0.242144
0.00407804
-0.234985
0.00437798
-0.228055
0.00466757
-0.221367
0.00494928
-0.21493
0.00522523
-0.208742
0.00549713
-0.202799
0.00576629
-0.197094
0.00603369
-0.191617
0.00629996
-0.186359
0.00656552
-0.18131
0.00683064
-0.176462
0.0070956
-0.171806
0.00736095
-0.167337
0.00762773
-0.16305
0.00789784
-0.158936
0.00817414
-0.154987
0.0084605
-0.151187
0.00876145
-0.14751
-0.143927
0.00908141
0.000100625
-0.325247
0.000348435
-0.314395
0.000691024
-0.305167
0.00108481
-0.296696
0.00149852
-0.288623
0.00191166
-0.280712
0.00231204
-0.272872
0.00269342
-0.265092
0.00305364
-0.257403
0.00339319
-0.249847
0.00371406
-0.242465
0.004019
-0.23529
0.00431093
-0.228347
0.00459268
-0.221649
0.00486676
-0.215204
0.00513531
-0.20901
0.00540005
-0.203064
0.00566233
-0.197356
0.00592314
-0.191878
0.00618314
-0.186619
0.00644275
-0.18157
0.00670222
-0.176721
0.00696181
-0.172066
0.00722201
-0.167598
0.00748381
-0.163312
0.00774905
-0.159201
0.00802068
-0.155259
0.00830281
-0.151469
0.00860039
-0.147808
-0.144245
0.00891864
0.000100457
-0.325348
0.000348318
-0.314643
0.000689884
-0.305509
0.00108088
-0.297087
0.00149009
-0.289032
0.00189736
-0.28112
0.00229083
-0.273265
0.00266456
-0.265466
0.00301665
-0.257755
0.00334778
-0.250178
0.00366013
-0.242777
0.00395653
-0.235587
0.00424002
-0.22863
0.00451345
-0.221923
0.00477938
-0.21547
0.00503996
-0.209271
0.00529695
-0.203321
0.00555172
-0.197611
0.00580528
-0.192132
0.00605832
-0.186872
0.00631128
-0.181823
0.00656441
-0.176974
0.00681797
-0.172319
0.00707237
-0.167852
0.00732856
-0.163568
0.00758834
-0.159461
0.00785471
-0.155525
0.00813202
-0.151746
0.00842576
-0.148102
-0.144561
0.00874189
0.000100192
-0.325448
0.000348169
-0.314891
0.000688651
-0.305849
0.00107663
-0.297475
0.00148105
-0.289436
0.00188213
-0.281521
0.00226836
-0.273651
0.00263409
-0.265832
0.00297767
-0.258099
0.00330001
-0.250501
0.00360342
-0.243081
0.00389087
-0.235874
0.00416544
-0.228905
0.00443005
-0.222187
0.00468728
-0.215727
0.0049393
-0.209523
0.00518788
-0.203569
0.00543443
-0.197858
0.00567997
-0.192377
0.00592524
-0.187118
0.00617071
-0.182068
0.00641667
-0.17722
0.00666333
-0.172566
0.00691111
-0.1681
0.00716089
-0.163817
0.00741443
-0.159715
0.00767478
-0.155785
0.00794651
-0.152018
0.00823565
-0.148391
-0.144874
0.00854901
9.99027e-05
-0.325548
0.000348162
-0.31514
0.000687539
-0.306188
0.0010723
-0.29786
0.00147165
-0.289836
0.00186623
-0.281915
0.00224489
-0.27403
0.00260227
-0.266189
0.00293699
-0.258434
0.00325016
-0.250814
0.00354424
-0.243375
0.0038223
-0.236152
0.00408749
-0.22917
0.00434277
-0.222443
0.00459072
-0.215975
0.00483353
-0.209766
0.005073
-0.203809
0.00531053
-0.198095
0.00554718
-0.192614
0.00578375
-0.187354
0.00602072
-0.182305
0.00625844
-0.177458
0.00649714
-0.172805
0.00673723
-0.16834
0.00697953
-0.16406
0.00722579
-0.159961
0.00747906
-0.156039
0.00774415
-0.152283
0.00802763
-0.148674
-0.145184
0.00833731
9.97189e-05
-0.325648
0.000348538
-0.315388
0.000686812
-0.306527
0.00106816
-0.298241
0.00146217
-0.29023
0.00184995
-0.282303
0.00222072
-0.274401
0.00256942
-0.266538
0.00289493
-0.258759
0.00319856
-0.251118
0.00348292
-0.243659
0.00375118
-0.23642
0.00400653
-0.229425
0.00425196
-0.222688
0.00449005
-0.216213
0.00472299
-0.209999
0.00495258
-0.204038
0.00518022
-0.198323
0.00540703
-0.192841
0.0056338
-0.187581
0.0058611
-0.182533
0.0060893
-0.177686
0.0063187
-0.173034
0.00654971
-0.168571
0.00678314
-0.164293
0.00702071
-0.160199
0.0072655
-0.156283
0.0075225
-0.15254
0.00779886
-0.148951
-0.145489
0.00810361
9.98472e-05
-0.325748
0.000349618
-0.315638
0.000686816
-0.306864
0.00106455
-0.298619
0.00145295
-0.290618
0.00183363
-0.282684
0.00219617
-0.274763
0.00253587
-0.266877
0.00285184
-0.259075
0.00314559
-0.251411
0.00341988
-0.243933
0.00367794
-0.236678
0.00392303
-0.22967
0.00415811
-0.222923
0.00438577
-0.216441
0.00460817
-0.210221
0.00482709
-0.204257
0.00504393
-0.19854
0.00525981
-0.193057
0.00547557
-0.187797
0.00569181
-0.182749
0.00590899
-0.177903
0.00612744
-0.173253
0.00634762
-0.168791
0.00657037
-0.164516
0.00679741
-0.160426
0.00703187
-0.156518
0.00727892
-0.152787
0.00754631
-0.149218
-0.145787
0.00784427
0.000100636
-0.325848
0.000351889
-0.315889
0.00068801
-0.3072
0.0010619
-0.298993
0.00144437
-0.291001
0.00181761
-0.283057
0.00217162
-0.275117
0.00250199
-0.267208
0.0028081
-0.259381
0.00309166
-0.251695
0.00335556
-0.244197
0.00360309
-0.236926
0.00383752
-0.229905
0.00406182
-0.223147
0.00427852
-0.216657
0.00448974
-0.210432
0.00469722
-0.204465
0.00490232
-0.198745
0.00510614
-0.193261
0.00530954
-0.188
0.00551315
-0.182953
0.00571749
-0.178108
0.00592297
-0.173458
0.00613011
-0.168998
0.00633984
-0.164726
0.00655393
-0.16064
0.00677562
-0.15674
0.00701031
-0.153022
0.00726628
-0.149474
-0.146075
0.00755474
0.000102641
-0.325951
0.000356068
-0.316143
0.000690986
-0.307535
0.00106069
-0.299362
0.00143685
-0.291377
0.00180229
-0.283423
0.00214742
-0.275462
0.00246815
-0.267528
0.00276413
-0.259677
0.00303723
-0.251968
0.00329047
-0.244451
0.0035272
-0.237163
0.00375068
-0.230128
0.00396383
-0.22336
0.00416913
-0.216863
0.00436862
-0.210632
0.00456394
-0.20466
0.0047564
-0.198937
0.00494703
-0.193451
0.00513664
-0.18819
0.00532587
-0.183142
0.00551526
-0.178297
0.00570527
-0.173648
0.00589653
-0.16919
0.00609005
-0.164919
0.00628779
-0.160837
0.00649321
-0.156945
0.00671192
-0.15324
0.00695264
-0.149715
-0.146351
0.00722797
0.000106738
-0.326058
0.000363062
-0.316399
0.000696342
-0.307868
0.00106133
-0.299727
0.00143077
-0.291746
0.00178803
-0.28378
0.00212394
-0.275798
0.00243474
-0.267839
0.00272034
-0.259963
0.00298278
-0.25223
0.00322518
-0.244693
0.00345092
-0.237388
0.00366325
-0.230341
0.00386502
-0.223562
0.00405861
-0.217056
0.00424595
-0.210819
0.00442857
-0.204843
0.00460762
-0.199116
0.00478402
-0.193628
0.00495847
-0.188364
0.00513153
-0.183315
0.00530366
-0.178469
0.00547532
-0.17382
0.00564711
-0.169361
0.00582016
-0.165092
0.00599661
-0.161014
0.00618026
-0.157129
0.00637708
-0.153437
0.0065964
-0.149934
-0.146609
0.00685456
0.000114021
-0.326172
0.00037367
-0.316659
0.000704521
-0.308199
0.00106423
-0.300087
0.00142652
-0.292108
0.00177522
-0.284128
0.00210157
-0.276125
0.00240216
-0.26814
0.00267715
-0.260238
0.00292878
-0.252482
0.00316024
-0.244924
0.00337493
-0.237603
0.00357605
-0.230542
0.00376637
-0.223753
0.00394814
-0.217238
0.00412314
-0.210994
0.00429272
-0.205012
0.00445784
-0.199281
0.00461924
-0.193789
0.00477741
-0.188522
0.00493271
-0.18347
0.00508541
-0.178622
0.00523579
-0.17397
0.00538429
-0.16951
0.00553188
-0.16524
0.00568074
-0.161163
0.005835
-0.157283
0.00600152
-0.153604
0.00619146
-0.150124
-0.146844
0.00642669
0.000125544
-0.326297
0.000388593
-0.316922
0.000716285
-0.308527
0.00107014
-0.300441
0.00142474
-0.292463
0.00176433
-0.284468
0.00208065
-0.276441
0.00237069
-0.26843
0.00263489
-0.260502
0.00287563
-0.252723
0.00309616
-0.245145
0.00329988
-0.237807
0.00348993
-0.230732
0.00366894
-0.223932
0.00383903
-0.217408
0.00400179
-0.211157
0.00415833
-0.205169
0.00430938
-0.199433
0.00445536
-0.193935
0.00459646
-0.188664
0.00473273
-0.183606
0.00486412
-0.178753
0.00499055
-0.174097
0.00511212
-0.169631
0.00522943
-0.165357
0.00534437
-0.161278
0.00546125
-0.1574
0.00558794
-0.15373
0.00573824
-0.150274
-0.147037
0.00593128
0.000143089
-0.32644
0.00041067
-0.317189
0.000734318
-0.30885
0.0010807
-0.300787
0.00142618
-0.292809
0.00175565
-0.284798
0.00206129
-0.276747
0.00234044
-0.268709
0.00259371
-0.260755
0.00282358
-0.252953
0.00303333
-0.245355
0.00322632
-0.238
0.00340562
-0.230911
0.00357374
-0.2241
0.00373263
-0.217567
0.00388366
-0.211308
0.00402767
-0.205313
0.00416505
-0.19957
0.00429582
-0.194066
0.00441968
-0.188787
0.00453609
-0.183723
0.00464435
-0.178862
0.00474372
-0.174196
0.00483361
-0.169721
0.00491409
-0.165438
0.00498688
-0.16135
0.00505642
-0.157469
0.00512989
-0.153804
0.00521846
-0.150363
-0.147141
0.00532301
0.000175105
-0.326615
0.000448651
-0.317463
0.000763011
-0.309165
0.00109718
-0.301122
0.00143081
-0.293142
0.00174883
-0.285116
0.0020432
-0.277041
0.00231123
-0.268977
0.00255357
-0.260998
0.00277273
-0.253172
0.002972
-0.245554
0.00315469
-0.238182
0.00332379
-0.23108
0.00348171
-0.224258
0.00363024
-0.217716
0.00377053
-0.211448
0.00390318
-0.205446
0.00402823
-0.199695
0.0041452
-0.194183
0.00425313
-0.188895
0.00435053
-0.18382
0.00443539
-0.178946
0.00450521
-0.174266
0.00455721
-0.169773
0.00458899
-0.165469
0.00459996
-0.161361
0.00459278
-0.157462
0.00457401
-0.153785
0.00455685
-0.150346
-0.147136
0.00455123
0.000248757
-0.326864
0.00050928
-0.317723
0.000800614
-0.309456
0.00111713
-0.301438
0.00143697
-0.293462
0.00174294
-0.285422
0.00202594
-0.277324
0.00228293
-0.269234
0.00251454
-0.261229
0.00272331
-0.253381
0.00291252
-0.245743
0.00308547
-0.238355
0.00324509
-0.23124
0.00339371
-0.224406
0.00353301
-0.217855
0.00366401
-0.211579
0.00378714
-0.205569
0.00390219
-0.19981
0.00400837
-0.194289
0.00410421
-0.188991
0.00418737
-0.183903
0.00425444
-0.179014
0.00430051
-0.174312
0.00431866
-0.169791
0.00429957
-0.16545
0.00423101
-0.161293
0.00409854
-0.15733
0.00389263
-0.153579
0.00364335
-0.150097
-0.147144
0.00365161
0.329379
0.00017245
-0.329552
0.32925
0.000129679
0.329138
0.000111494
0.329036
0.00010187
0.32894
9.57948e-05
0.328848
9.213e-05
0.328758
9.02675e-05
0.328668
8.96126e-05
0.328579
8.96009e-05
0.328489
8.98354e-05
0.328399
9.02679e-05
0.328308
9.0817e-05
0.328217
9.12901e-05
0.328125
9.16606e-05
0.328033
9.19173e-05
0.327941
9.20507e-05
0.327849
9.20588e-05
0.327757
9.19366e-05
0.327665
9.16732e-05
0.327574
9.12615e-05
0.327483
9.06713e-05
0.327393
8.98706e-05
0.327305
8.87418e-05
0.327217
8.72407e-05
0.327133
8.48816e-05
0.327051
8.17833e-05
0.326976
7.51962e-05
0.326909
6.69393e-05
0.326871
3.787e-05
6.77518e-06
0.323321
0.000338171
-0.323487
0.323143
0.000307455
0.322965
0.000289738
0.322785
0.000281192
0.322605
0.000276623
0.322423
0.000274242
0.322239
0.000273671
0.322054
0.00027447
0.321868
0.00027614
0.321679
0.000278202
0.321489
0.000280499
0.321297
0.000282952
0.321103
0.000285286
0.320907
0.000287438
0.32071
0.000289357
0.320511
0.000291007
0.320311
0.00029236
0.320109
0.000293395
0.319907
0.000294077
0.319704
0.000294376
0.3195
0.000294227
0.319296
0.00029356
0.319093
0.000292172
0.31889
0.000289905
0.318689
0.000286064
0.31849
0.000280428
0.318295
0.000270186
0.318106
0.000256127
0.317916
0.000228164
0.000199188
0.316336
0.000481443
-0.316479
0.316172
0.000471195
0.315996
0.000465393
0.315812
0.000465275
0.31562
0.000468299
0.315422
0.000472791
0.315217
0.000478359
0.315007
0.000484633
0.314792
0.000491444
0.314571
0.000498579
0.314346
0.000505639
0.314117
0.000512569
0.313883
0.000519203
0.313645
0.000525446
0.313403
0.000531235
0.313157
0.000536523
0.312908
0.000541268
0.312656
0.000545442
0.312401
0.000549001
0.312144
0.000551906
0.311884
0.000554082
0.311622
0.000555431
0.311359
0.000555745
0.311094
0.000554823
0.310828
0.000552056
0.310561
0.000547147
0.310293
0.000538438
0.310022
0.000526418
0.309743
0.000507473
0.000486043
0.308424
0.000592874
-0.308536
0.308294
0.000601208
0.308149
0.000610418
0.307993
0.000622104
0.307825
0.000635635
0.307648
0.00064999
0.307462
0.000664854
0.307266
0.000679805
0.307063
0.000694617
0.306852
0.000709565
0.306634
0.000724203
0.306408
0.000738155
0.306176
0.000751522
0.305937
0.000764186
0.305692
0.000776094
0.305442
0.000787189
0.305185
0.00079744
0.304924
0.000806809
0.304658
0.000815274
0.304387
0.000822796
0.304112
0.000829311
0.303832
0.000834744
0.303549
0.000838928
0.303262
0.000841705
0.302972
0.000842674
0.302677
0.000841639
0.302378
0.000837794
0.302073
0.000831338
0.301759
0.000820839
0.000807486
0.299909
0.000664859
-0.299981
0.29982
0.000689898
0.299716
0.000714371
0.299599
0.000739358
0.29947
0.000765015
0.299329
0.000790901
0.299177
0.000816679
0.299014
0.000842133
0.298842
0.000867169
0.29866
0.000891656
0.298469
0.000915432
0.298268
0.000938278
0.29806
0.000960155
0.297843
0.000980983
0.297618
0.00100071
0.297386
0.0010193
0.297147
0.00103671
0.296901
0.00105293
0.296648
0.00106795
0.296389
0.00108175
0.296124
0.0010943
0.295854
0.00110555
0.295577
0.00111543
0.295295
0.00112384
0.295007
0.00113059
0.294713
0.00113557
0.294412
0.00113841
0.294105
0.00113919
0.293788
0.00113736
0.00113351
0.291046
0.000697367
-0.291078
0.290998
0.000737922
0.290935
0.000777296
0.290858
0.000816102
0.290768
0.000854692
0.290666
0.000892906
0.290553
0.000930517
0.290427
0.000967464
0.290291
0.00100353
0.290144
0.00103855
0.289987
0.00107253
0.28982
0.00110526
0.289643
0.00113667
0.289458
0.00116669
0.289263
0.00119528
0.28906
0.0012224
0.288849
0.00124804
0.288629
0.00127219
0.288402
0.00129485
0.288168
0.00131605
0.287927
0.00133578
0.287678
0.00135406
0.287423
0.00137088
0.28716
0.00138624
0.286891
0.00140006
0.286614
0.00141237
0.286329
0.00142304
0.286036
0.00143218
0.285734
0.00143969
0.00144605
0.282072
0.000695926
-0.282071
0.282059
0.000751158
0.282031
0.000804898
0.28199
0.000857444
0.281936
0.00090913
0.281869
0.000959917
0.28179
0.00100963
0.281699
0.00105832
0.281596
0.00110579
0.281483
0.0011518
0.281359
0.0011964
0.281225
0.00123943
0.281081
0.00128081
0.280927
0.00132049
0.280764
0.00135842
0.280592
0.00139458
0.280411
0.00142897
0.280222
0.00146158
0.280024
0.00149245
0.279818
0.00152162
0.279605
0.00154915
0.279384
0.0015751
0.279155
0.00159954
0.278919
0.00162254
0.278675
0.00164415
0.278423
0.0016645
0.278162
0.00168362
0.277893
0.00170172
0.277613
0.00171888
0.00173554
0.273183
0.000668388
-0.273155
0.273196
0.000737553
0.273196
0.000805015
0.273183
0.000870877
0.273156
0.000935414
0.273118
0.000998661
0.273067
0.00106035
0.273005
0.00112066
0.272931
0.00117955
0.272846
0.00123659
0.272751
0.00129182
0.272645
0.00134519
0.272529
0.00139661
0.272404
0.00144602
0.272269
0.00149338
0.272124
0.00153868
0.271972
0.00158191
0.27181
0.00162311
0.27164
0.00166232
0.271462
0.00169963
0.271276
0.00173512
0.271082
0.00176892
0.270881
0.00180116
0.270671
0.00183202
0.270454
0.00186164
0.270228
0.00189023
0.269994
0.00191797
0.26975
0.00194514
0.269497
0.00197193
0.00199871
0.264514
0.000622701
-0.264468
0.264547
0.000705076
0.264566
0.000785578
0.264573
0.00086419
0.264567
0.000941115
0.264549
0.00101646
0.26452
0.00108991
0.264479
0.00116147
0.264427
0.00123145
0.264364
0.00129939
0.264291
0.00136503
0.264208
0.00142854
0.264114
0.0014898
0.264012
0.00154877
0.2639
0.00160539
0.263779
0.00165966
0.263649
0.00171158
0.263511
0.0017612
0.263365
0.00180859
0.26321
0.00185387
0.263048
0.00189716
0.262879
0.00193866
0.262701
0.00197856
0.262516
0.00201711
0.262323
0.00205457
0.262122
0.00209125
0.261913
0.00212741
0.261694
0.00216343
0.261467
0.00219956
0.00223618
0.256153
0.000565789
-0.256096
0.256198
0.000660701
0.25623
0.000753583
0.256249
0.000844366
0.256257
0.000933195
0.256254
0.00102005
0.256239
0.00110481
0.256213
0.00118757
0.256176
0.00126818
0.256129
0.00134644
0.256072
0.00142225
0.256005
0.0014956
0.255928
0.0015664
0.255842
0.0016346
0.255747
0.00170016
0.255644
0.00176307
0.255532
0.00182334
0.255412
0.00188105
0.255285
0.00193627
0.255149
0.00198915
0.255007
0.00203987
0.254857
0.00208867
0.254699
0.00213582
0.254535
0.00218166
0.254363
0.00222653
0.254183
0.00227085
0.253996
0.00231499
0.2538
0.00235942
0.253595
0.00240446
0.0024505
0.248146
0.000503177
-0.248083
0.248197
0.000610022
0.248236
0.000714694
0.248263
0.00081709
0.248279
0.000917284
0.248284
0.00101524
0.248277
0.00111095
0.248261
0.00120431
0.248234
0.00129516
0.248197
0.00138344
0.24815
0.00146903
0.248094
0.00155183
0.248028
0.00163179
0.247954
0.00170886
0.247871
0.00178297
0.24778
0.00185412
0.247681
0.00192234
0.247575
0.00198769
0.247461
0.00205028
0.247339
0.00211029
0.247211
0.00216792
0.247077
0.00222349
0.246935
0.00227732
0.246787
0.00232985
0.246632
0.00238152
0.24647
0.00243287
0.2463
0.00248438
0.246123
0.00253661
0.245938
0.00259001
0.00264497
0.240509
0.000438968
-0.240445
0.240562
0.000557226
0.240604
0.000673178
0.240634
0.000786693
0.240654
0.000897797
0.240662
0.00100644
0.240661
0.00111262
0.240649
0.00121616
0.240627
0.00131693
0.240596
0.00141487
0.240555
0.00150983
0.240505
0.00160173
0.240446
0.00169048
0.240379
0.00177601
0.240304
0.00185828
0.240221
0.00193726
0.24013
0.00201298
0.240032
0.00208551
0.239928
0.00215498
0.239816
0.00222156
0.239699
0.00228554
0.239575
0.00234724
0.239445
0.00240709
0.239309
0.0024656
0.239168
0.00252335
0.239019
0.00258097
0.238865
0.00263912
0.238703
0.00269846
0.238533
0.00275958
0.00282291
0.233241
0.000376006
-0.233178
0.233293
0.000505247
0.233335
0.000632054
0.233365
0.000756272
0.233385
0.000877896
0.233394
0.000996835
0.233394
0.0011131
0.233384
0.0012265
0.233364
0.00133686
0.233334
0.00144411
0.233296
0.00154811
0.233249
0.00164875
0.233194
0.00174594
0.23313
0.00183959
0.233059
0.00192963
0.23298
0.00201605
0.232894
0.00209885
0.232802
0.0021781
0.232703
0.00225393
0.232598
0.00232655
0.232487
0.00239625
0.232371
0.00246342
0.232249
0.00252856
0.232123
0.00259228
0.231991
0.00265527
0.231853
0.00271833
0.23171
0.00278228
0.231561
0.00284795
0.231404
0.00291609
0.00298723
0.226328
0.00031612
-0.226268
0.226377
0.000455999
0.226416
0.000593309
0.226444
0.000727895
0.226462
0.000859723
0.22647
0.00098862
0.226469
0.00111465
0.226458
0.00123764
0.226437
0.0013573
0.226408
0.00147358
0.22637
0.00158632
0.226323
0.00169542
0.226268
0.00180075
0.226205
0.0019022
0.226135
0.0019997
0.226058
0.00209319
0.225974
0.00218268
0.225884
0.00226822
0.225788
0.00234994
0.225687
0.00242805
0.22558
0.00250286
0.225469
0.00257482
0.225353
0.00264449
0.225232
0.00271258
0.225108
0.00277993
0.224979
0.00284751
0.224845
0.00291635
0.224705
0.00298749
0.224559
0.0030619
0.00314027
0.219747
0.000260373
-0.219692
0.219793
0.000410612
0.219828
0.000558147
0.219853
0.000702834
0.219868
0.000844623
0.219873
0.000983214
0.219869
0.00111873
0.219856
0.0012511
0.219833
0.00137986
0.219802
0.00150491
0.219762
0.00162617
0.219714
0.00174349
0.219658
0.00185672
0.219595
0.00196572
0.219524
0.00207039
0.219446
0.00217066
0.219363
0.0022665
0.219273
0.00235795
0.219178
0.00244511
0.219078
0.0025282
0.218973
0.00260754
0.218864
0.00268361
0.218752
0.00275702
0.218636
0.00282861
0.218516
0.00289936
0.218393
0.00297045
0.218266
0.00304316
0.218135
0.00311882
0.217998
0.00319868
0.00328368
0.213477
0.000209273
-0.213426
0.213518
0.000369655
0.213549
0.000527205
0.21357
0.00068177
0.213582
0.000833306
0.213583
0.000981473
0.213576
0.00112627
0.213559
0.00126778
0.213534
0.00140548
0.213499
0.00153913
0.213457
0.00166874
0.213406
0.0017941
0.213348
0.00191504
0.213282
0.00203139
0.21321
0.00214303
0.21313
0.00224983
0.213045
0.00235175
0.212954
0.00244877
0.212858
0.002541
0.212758
0.0026286
0.212654
0.00271191
0.212546
0.0027914
0.212435
0.00286777
0.212322
0.00294194
0.212206
0.00301507
0.212088
0.00308856
0.211967
0.00316401
0.211843
0.00324311
0.211714
0.00332751
0.00341848
0.207494
0.000162957
-0.207448
0.207531
0.000333317
0.207557
0.000500728
0.207574
0.000665031
0.207581
0.000826094
0.207579
0.000983666
0.207567
0.00113779
0.207547
0.00128824
0.207518
0.00143463
0.20748
0.00157682
0.207434
0.00171465
0.20738
0.00184794
0.207319
0.00197647
0.20725
0.00210003
0.207175
0.00221846
0.207093
0.00233162
0.207005
0.0024394
0.206912
0.00254174
0.206815
0.00263869
0.206713
0.00273039
0.206608
0.00281714
0.2065
0.00289942
0.206389
0.00297796
0.206278
0.00305374
0.206164
0.00312814
0.20605