/*--------------------------------*- C++ -*----------------------------------*\
  =========                 |
  \\      /  F ield         | OpenFOAM: The Open Source CFD Toolbox
   \\    /   O peration     | Website:  https://openfoam.org
    \\  /    A nd           | Version:  6.0
     \\/     M anipulation  |
\*---------------------------------------------------------------------------*/
FoamFile
{
    version     2.0;
    format      ascii;
    class       volVectorField;
    location    "9.75";
    object      U;
}
// * * * * * * * * * * * * * * * * * * * * * * * * * * * * * * * * * * * * * //

dimensions      [0 1 -1 0 0 0 0];

internalField   nonuniform List<vector> 
19200
(
(0.813847 -19.4185 -1.00343e-19)
(0.229436 -18.6289 4.89949e-20)
(0.233934 -17.9732 2.28233e-20)
(0.288453 -17.4023 2.03298e-20)
(0.307895 -16.8865 2.24863e-20)
(0.326525 -16.4023 1.34705e-21)
(0.346824 -15.9364 3.16113e-20)
(0.365617 -15.4825 -2.3203e-21)
(0.382366 -15.0382 2.72709e-20)
(0.397162 -14.603 1.12583e-20)
(0.410109 -14.1777 6.39107e-23)
(0.421366 -13.7631 1.76516e-20)
(0.431143 -13.3602 2.87654e-20)
(0.439654 -12.9698 -1.94571e-20)
(0.4471 -12.5923 2.45679e-20)
(0.453659 -12.228 2.09463e-20)
(0.459481 -11.877 -1.97143e-20)
(0.464694 -11.539 3.32744e-20)
(0.4694 -11.2138 -2.11818e-20)
(0.473684 -10.901 1.0508e-20)
(0.477618 -10.6001 1.46061e-20)
(0.481265 -10.3108 -4.74693e-21)
(0.484684 -10.0324 6.38272e-21)
(0.487931 -9.76443 -7.35143e-21)
(0.491067 -9.50615 -1.42897e-22)
(0.494134 -9.25676 3.74424e-21)
(0.497142 -9.01531 -2.54031e-21)
(0.500238 -8.78074 1.50324e-21)
(0.503867 -8.55182 3.54391e-21)
(0.506972 -8.32732 1.35774e-20)
(1.32089 -19.3934 -2.23473e-20)
(0.718532 -18.6292 1.49403e-19)
(0.706355 -17.9807 -7.94867e-20)
(0.745897 -17.4129 -1.08081e-19)
(0.751791 -16.8993 -4.85594e-20)
(0.757655 -16.4158 -3.44645e-20)
(0.7656 -15.9497 -7.46033e-20)
(0.772306 -15.495 9.61836e-21)
(0.77719 -15.0496 -1.54272e-20)
(0.780353 -14.6132 -5.43997e-20)
(0.781925 -14.1867 -1.33843e-19)
(0.7821 -13.7709 6.46043e-20)
(0.781117 -13.367 -2.41762e-20)
(0.779215 -12.9757 9.13888e-21)
(0.776609 -12.5975 -5.43163e-20)
(0.77348 -12.2326 -1.96924e-20)
(0.769981 -11.8811 2.29859e-21)
(0.766232 -11.5427 6.60701e-20)
(0.762324 -11.2171 -3.49808e-20)
(0.758333 -10.9041 -1.92739e-20)
(0.754314 -10.603 -7.42919e-20)
(0.750316 -10.3135 1.9018e-20)
(0.746384 -10.0351 -1.17516e-20)
(0.742559 -9.76707 2.06915e-20)
(0.738882 -9.50883 -9.47948e-21)
(0.735373 -9.25957 -1.46944e-20)
(0.732019 -9.01832 4.83031e-21)
(0.72897 -8.78398 7.35122e-21)
(0.726748 -8.55526 -1.30374e-20)
(0.724 -8.33089 6.12852e-21)
(1.82851 -19.3563 -1.04478e-20)
(1.20753 -18.6169 2.99672e-20)
(1.17902 -17.9757 4.87878e-20)
(1.2039 -17.4114 3.73785e-19)
(1.1964 -16.9003 -2.15032e-19)
(1.18955 -16.4179 1.96399e-19)
(1.18515 -15.9518 1.20411e-19)
(1.17973 -15.4966 9.30754e-20)
(1.1727 -15.0504 -8.70853e-20)
(1.16417 -14.6131 -8.32426e-21)
(1.1543 -14.1856 2.16832e-19)
(1.14333 -13.769 3.55864e-20)
(1.13153 -13.3644 -9.912e-20)
(1.11917 -12.9725 7.74336e-20)
(1.10647 -12.5938 2.19311e-22)
(1.09363 -12.2286 3.24411e-20)
(1.08078 -11.8768 2.29877e-20)
(1.06805 -11.5383 7.68794e-20)
(1.05551 -11.2127 -3.39722e-20)
(1.04323 -10.8995 -1.11336e-20)
(1.03124 -10.5985 -2.86956e-20)
(1.01959 -10.3091 1.26766e-19)
(1.00831 -10.0307 -1.05553e-19)
(0.997405 -9.76291 3.408e-20)
(0.986918 -9.5049 1.55243e-20)
(0.976842 -9.25595 -6.30127e-20)
(0.967133 -9.01508 8.3595e-20)
(0.957956 -8.78116 -8.98722e-21)
(0.949893 -8.55283 -9.3451e-21)
(0.941258 -8.32881 -6.22637e-20)
(2.33438 -19.3063 -3.56902e-19)
(1.6957 -18.592 -3.19257e-19)
(1.65142 -17.9583 -3.89213e-19)
(1.66205 -17.3979 1.20389e-20)
(1.64136 -16.8895 2.41733e-20)
(1.62189 -16.4085 -4.33264e-19)
(1.60515 -15.9428 2.03958e-20)
(1.58759 -15.4874 5.57041e-20)
(1.56859 -15.0406 -9.90778e-21)
(1.5483 -14.6027 9.33061e-20)
(1.52694 -14.1745 -3.67663e-19)
(1.50478 -13.7574 -2.25669e-19)
(1.48213 -13.3524 8.47268e-20)
(1.45927 -12.9602 1.64717e-19)
(1.43645 -12.5814 -1.91087e-19)
(1.41386 -12.2161 -2.96015e-20)
(1.39164 -11.8643 -1.11408e-19)
(1.36991 -11.5259 -5.18921e-20)
(1.34873 -11.2004 8.66909e-20)
(1.32816 -10.8875 -1.10321e-19)
(1.30821 -10.5867 9.53707e-20)
(1.2889 -10.2975 -1.1284e-19)
(1.27026 -10.0195 -8.77134e-20)
(1.25229 -9.75198 -6.25046e-20)
(1.235 -9.4944 -1.82888e-20)
(1.21837 -9.24592 -1.27098e-19)
(1.20232 -9.00562 1.32139e-20)
(1.18704 -8.77231 2.24219e-20)
(1.17315 -8.54456 -6.46238e-20)
(1.15861 -8.32111 1.37906e-20)
(2.83903 -19.2435 -2.10363e-19)
(2.18331 -18.5547 3.07408e-20)
(2.12354 -17.9288 2.69384e-19)
(2.12012 -17.3724 2.79359e-19)
(2.08641 -16.867 2.00378e-19)
(2.05438 -16.3876 8.26588e-20)
(2.0253 -15.9225 1.26397e-19)
(1.99557 -15.4671 5.72507e-19)
(1.96456 -15.0201 -3.43268e-19)
(1.93248 -14.5819 1.02153e-20)
(1.89957 -14.1534 8.19383e-20)
(1.86618 -13.7361 3.45761e-19)
(1.83263 -13.3309 -2.33613e-19)
(1.79925 -12.9388 1.66316e-19)
(1.76628 -12.56 -1.82626e-19)
(1.73393 -12.195 3.12103e-19)
(1.70234 -11.8435 -9.15277e-20)
(1.67161 -11.5054 3.44748e-21)
(1.64179 -11.1803 1.44499e-19)
(1.61291 -10.8678 1.00297e-19)
(1.585 -10.5674 -1.02188e-19)
(1.55805 -10.2787 1.36837e-19)
(1.53206 -10.0012 -6.14752e-20)
(1.50703 -9.73428 7.10561e-20)
(1.48295 -9.47729 9.40512e-20)
(1.45977 -9.22949 3.36954e-20)
(1.43741 -8.98991 1.02457e-19)
(1.41605 -8.75739 -3.76958e-20)
(1.39637 -8.53042 -1.25458e-20)
(1.37591 -8.30775 -5.77936e-20)
(3.34192 -19.1677 -1.51762e-19)
(2.66999 -18.5049 -9.95464e-20)
(2.59506 -17.887 -3.01927e-19)
(2.57782 -17.3348 -7.81936e-19)
(2.53122 -16.8327 2.63672e-19)
(2.48669 -16.3552 1.6842e-20)
(2.44529 -15.891 -1.75112e-19)
(2.40337 -15.436 3.27428e-20)
(2.36033 -14.989 -2.60794e-20)
(2.3164 -14.5508 -4.34834e-19)
(2.27192 -14.1223 1.8285e-19)
(2.22725 -13.705 3.10108e-19)
(2.18278 -13.3001 9.3611e-22)
(2.13885 -12.9082 1.12733e-19)
(2.09573 -12.5299 2.75896e-19)
(2.05362 -12.1653 -1.89179e-19)
(2.01265 -11.8143 3.29484e-19)
(1.97291 -11.4768 -1.56407e-19)
(1.93445 -11.1524 2.74102e-19)
(1.89729 -10.8405 -2.05318e-19)
(1.86142 -10.5408 9.05987e-20)
(1.82683 -10.2528 2.34553e-19)
(1.7935 -9.97599 1.18549e-20)
(1.76142 -9.70979 -2.15785e-19)
(1.73057 -9.45358 1.20364e-19)
(1.70088 -9.20662 1.35321e-20)
(1.67224 -8.96797 -3.78736e-20)
(1.64484 -8.73642 1.43027e-19)
(1.6194 -8.51041 4.95657e-20)
(1.59301 -8.28875 -4.91308e-20)
(3.84283 -19.0791 4.2533e-19)
(3.15553 -18.4426 -1.0362e-20)
(3.06575 -17.8329 -6.0928e-19)
(3.03486 -17.2853 1.25514e-19)
(2.97551 -16.7867 -1.69918e-19)
(2.91854 -16.3113 1.27348e-19)
(2.86484 -15.8482 2.71964e-19)
(2.8107 -15.3938 4.88235e-19)
(2.75559 -14.9473 -5.23123e-19)
(2.69979 -14.5093 1.28585e-19)
(2.64369 -14.0811 -8.72463e-20)
(2.58773 -13.6642 6.34799e-20)
(2.53232 -13.2597 -2.83784e-19)
(2.47783 -12.8685 -1.78244e-20)
(2.42455 -12.4908 4.46164e-19)
(2.37267 -12.127 -3.08029e-19)
(2.32232 -11.7769 -1.92741e-19)
(2.27359 -11.4402 -1.37753e-19)
(2.2265 -11.1166 2.50166e-19)
(2.18106 -10.8057 5.28755e-20)
(2.13725 -10.5069 -2.42732e-19)
(2.09504 -10.2197 3.19936e-19)
(2.0544 -9.94381 -2.88464e-19)
(2.0153 -9.67852 1.88365e-19)
(1.9777 -9.42328 -1.07127e-19)
(1.94152 -9.17734 6.80434e-20)
(1.90662 -8.93979 5.03015e-20)
(1.87322 -8.70939 -2.27159e-19)
(1.84207 -8.48452 9.68678e-20)
(1.80977 -8.2641 1.36263e-21)
(4.34139 -18.9774 -4.14197e-19)
(3.63961 -18.3678 3.36852e-19)
(3.53532 -17.7666 -6.17025e-19)
(3.49097 -17.2238 1.17942e-18)
(3.41898 -16.7289 -3.28901e-19)
(3.34963 -16.2559 4.60971e-19)
(3.28362 -15.7942 -9.28532e-21)
(3.21726 -15.3407 -6.62678e-20)
(3.15004 -14.8949 -9.03294e-20)
(3.08234 -14.4574 2.10885e-22)
(3.01461 -14.0299 -3.44833e-19)
(2.94733 -13.6137 1.81155e-19)
(2.88097 -13.21 -2.13597e-19)
(2.81592 -12.8196 -1.73752e-20)
(2.75248 -12.4429 -5.90659e-19)
(2.69084 -12.0801 1.94175e-19)
(2.63113 -11.7311 1.09317e-19)
(2.57342 -11.3956 -1.2502e-19)
(2.51773 -11.0731 -1.48804e-20)
(2.46403 -10.7633 -1.87767e-19)
(2.4123 -10.4656 -6.65004e-20)
(2.36249 -10.1795 5.11537e-21)
(2.31456 -9.90468 -1.60602e-19)
(2.26846 -9.6405 -2.36221e-19)
(2.22414 -9.38639 1.05523e-20)
(2.18151 -9.14165 -2.719e-20)
(2.1404 -8.90536 7.28663e-20)
(2.10105 -8.6763 -1.78551e-19)
(2.06423 -8.45277 1.51052e-19)
(2.02604 -8.2338 -2.85184e-19)
(4.83729 -18.8629 -1.019e-18)
(4.12192 -18.2803 1.22147e-18)
(4.00346 -17.6881 -1.28395e-18)
(3.94584 -17.1503 -3.44895e-19)
(3.86132 -16.6594 -2.16623e-19)
(3.77964 -16.1889 -2.36372e-19)
(3.70134 -15.729 -2.1598e-19)
(3.62274 -15.2767 -4.79913e-20)
(3.54341 -14.8318 -2.17865e-19)
(3.46379 -14.3953 -4.26633e-20)
(3.3844 -13.9686 3.54628e-19)
(3.30579 -13.5534 -2.05375e-19)
(3.22848 -13.1508 -2.3702e-19)
(3.15287 -12.7616 -3.94861e-19)
(3.07927 -12.3862 8.27934e-19)
(3.00789 -12.0247 -3.15284e-19)
(2.93885 -11.6771 1.17213e-19)
(2.87218 -11.3429 -4.33052e-19)
(2.80791 -11.0218 1.67507e-19)
(2.74598 -10.7133 -6.67569e-20)
(2.68635 -10.4169 8.5717e-20)
(2.62897 -10.1322 -2.79672e-20)
(2.57378 -9.85861 2.60613e-19)
(2.52071 -9.59572 -9.16593e-20)
(2.46971 -9.34294 2.52541e-19)
(2.42066 -9.09957 -4.75971e-20)
(2.37338 -8.86473 3.25394e-19)
(2.32814 -8.63717 8.78326e-20)
(2.28571 -8.41515 1.63285e-19)
(2.24166 -8.19788 -4.99767e-19)
(5.33019 -18.7356 1.6079e-18)
(4.60215 -18.1804 -3.11742e-19)
(4.46987 -17.5973 5.51406e-19)
(4.39915 -17.0648 -1.54016e-19)
(4.30224 -16.5781 5.44225e-19)
(4.20827 -16.1105 5.09371e-19)
(4.11769 -15.6525 5.70733e-19)
(4.02685 -15.2017 -4.46652e-20)
(3.93538 -14.758 -5.40569e-19)
(3.84382 -14.3227 7.92789e-19)
(3.75277 -13.8974 -5.72602e-20)
(3.66283 -13.4835 5.49029e-19)
(3.57457 -13.0823 1.97574e-19)
(3.48842 -12.6945 7.33293e-20)
(3.40469 -12.3207 1.11518e-19)
(3.32359 -11.9608 1.56553e-19)
(3.24523 -11.6148 2.56387e-19)
(3.16964 -11.2822 -7.25643e-20)
(3.09681 -10.9627 3.72887e-19)
(3.02669 -10.6558 1.69e-19)
(2.95921 -10.3609 -3.51663e-19)
(2.89429 -10.0777 6.20021e-19)
(2.83186 -9.80564 -8.1325e-19)
(2.77186 -9.54423 7.63081e-19)
(2.71422 -9.29294 -2.51425e-19)
(2.65879 -9.05111 4.91755e-20)
(2.6054 -8.8179 -3.25595e-19)
(2.55432 -8.59202 1.82325e-19)
(2.50634 -8.37169 6.41079e-20)
(2.45649 -8.15634 -7.62446e-20)
(5.81976 -18.5955 -9.10352e-19)
(5.07996 -18.0679 8.76401e-19)
(4.93422 -17.4943 -2.38351e-19)
(4.85061 -16.9673 6.8092e-19)
(4.7414 -16.485 6.81852e-20)
(4.63522 -16.0206 1.38821e-19)
(4.53237 -15.5648 -1.15067e-18)
(4.42928 -15.1157 -2.02716e-19)
(4.32567 -14.6737 7.27559e-19)
(4.22216 -14.2399 5.42183e-19)
(4.11944 -13.8161 -9.23278e-19)
(4.01818 -13.4038 5.33513e-19)
(3.91898 -13.0043 -5.30596e-19)
(3.8223 -12.6184 3.59077e-19)
(3.72847 -12.2464 -6.01797e-19)
(3.63768 -11.8884 -4.40741e-19)
(3.55004 -11.5442 2.95344e-20)
(3.46557 -11.2135 -1.97547e-19)
(3.38423 -10.8959 3.5394e-19)
(3.30595 -10.5908 1.4016e-19)
(3.23064 -10.2977 -9.18587e-20)
(3.15823 -10.0162 -2.61656e-20)
(3.08861 -9.74579 1.05028e-19)
(3.02172 -9.48604 -3.5346e-19)
(2.95748 -9.23642 5.79416e-19)
(2.89572 -8.99631 -1.42339e-19)
(2.83627 -8.76489 -9.97001e-21)
(2.77942 -8.54087 4.94717e-19)
(2.72597 -8.32242 6.4039e-20)
(2.67035 -8.10921 -6.9105e-20)
(6.30566 -18.4426 3.8167e-20)
(5.55504 -17.943 -4.95997e-19)
(5.39621 -17.379 -4.47545e-19)
(5.29989 -16.8578 -7.40619e-19)
(5.17852 -16.3802 2.71772e-20)
(5.06016 -15.9191 -5.20142e-19)
(4.94506 -15.4659 6.18208e-19)
(4.82972 -15.0189 -6.30297e-20)
(4.71397 -14.5787 4.82406e-19)
(4.59851 -14.1468 -4.05861e-19)
(4.48413 -13.7248 -2.04154e-19)
(4.37156 -13.3145 1.11116e-19)
(4.26145 -12.9171 5.96649e-20)
(4.15427 -12.5332 -5.96929e-19)
(4.05037 -12.1633 3.50585e-19)
(3.94993 -11.8075 -1.69495e-19)
(3.85305 -11.4655 4.84779e-19)
(3.75974 -11.1369 -1.57987e-19)
(3.66992 -10.8214 1.63689e-19)
(3.58353 -10.5183 4.04897e-20)
(3.50046 -10.2272 2.74962e-19)
(3.42059 -9.94762 -5.65236e-20)
(3.34383 -9.6791 4.46094e-19)
(3.27009 -9.4212 -4.96736e-19)
(3.19929 -9.17343 -1.66669e-19)
(3.13126 -8.93521 1.34874e-19)
(3.0658 -8.70574 -1.31664e-20)
(3.00326 -8.48375 -2.31602e-19)
(2.94441 -8.26735 1.85708e-19)
(2.88311 -8.05653 -2.13434e-19)
(6.78755 -18.2771 1.52396e-18)
(6.02706 -17.8056 4.04963e-19)
(5.8555 -17.2516 4.87198e-19)
(5.74668 -16.7364 6.46129e-19)
(5.61325 -16.2637 9.68409e-19)
(5.48279 -15.8062 -3.07237e-20)
(5.35547 -15.3557 1.42691e-19)
(5.22789 -14.9112 1.05413e-18)
(5.09999 -14.4732 -2.19388e-19)
(4.97259 -14.0434 -3.84158e-19)
(4.84656 -13.6236 6.68746e-19)
(4.7227 -13.2156 1.09652e-19)
(4.6017 -12.8205 5.30499e-21)
(4.48406 -12.439 1.58509e-19)
(4.37013 -12.0715 2.7693e-19)
(4.26009 -11.7181 -5.63922e-19)
(4.15402 -11.3785 4.78884e-19)
(4.05191 -11.0524 7.89373e-20)
(3.95368 -10.7392 4.57929e-19)
(3.85923 -10.4384 -2.49602e-19)
(3.76843 -10.1495 4.04307e-19)
(3.68116 -9.87206 -4.28503e-19)
(3.5973 -9.60562 4.1061e-19)
(3.51677 -9.34975 5.49146e-20)
(3.43947 -9.104 -2.73754e-19)
(3.36522 -8.86783 -8.69276e-20)
(3.29383 -8.6405 5.11863e-19)
(3.22566 -8.4207 3.71401e-19)
(3.1615 -8.20654 9.74337e-20)
(3.09459 -7.99831 -6.44194e-20)
(7.26512 -18.0991 1.50904e-19)
(6.49568 -17.6559 3.4585e-19)
(6.31178 -17.1121 1.41013e-18)
(6.19065 -16.6031 -2.3029e-18)
(6.0453 -16.1355 -2.23194e-19)
(5.90279 -15.6819 -2.46585e-19)
(5.76327 -15.2345 1.09354e-19)
(5.62346 -14.7926 1.39251e-19)
(5.48343 -14.3571 2.32274e-19)
(5.3441 -13.9298 -6.24541e-19)
(5.20645 -13.5126 -1.15685e-19)
(5.07133 -13.1071 3.42462e-19)
(4.93948 -12.7146 3.62724e-19)
(4.81142 -12.3358 -3.65742e-19)
(4.6875 -11.9711 -3.53694e-19)
(4.56791 -11.6204 5.78663e-19)
(4.45271 -11.2835 3.70352e-19)
(4.34186 -10.96 -9.90991e-20)
(4.23528 -10.6494 -2.35304e-19)
(4.13282 -10.3511 4.04828e-20)
(4.03435 -10.0646 -5.30198e-19)
(3.93973 -9.78955 6.3394e-19)
(3.84884 -9.52538 -4.31246e-19)
(3.76156 -9.27173 -1.66922e-20)
(3.67781 -9.02818 2.78966e-19)
(3.59741 -8.79423 -8.65542e-20)
(3.52014 -8.56919 -2.57983e-19)
(3.44644 -8.35175 3.18292e-19)
(3.37706 -8.14001 -9.6462e-21)
(3.30462 -7.93462 4.98021e-20)
(7.73803 -17.9086 -1.1723e-19)
(6.96058 -17.4939 -3.67959e-19)
(6.76472 -16.9605 -1.61968e-18)
(6.63149 -16.4579 5.85226e-19)
(6.47434 -15.9957 -1.73217e-19)
(6.31984 -15.5462 5.71815e-19)
(6.16816 -15.1021 4.1224e-20)
(6.01615 -14.6632 -6.42517e-19)
(5.864 -14.2305 9.63759e-19)
(5.71277 -13.806 -8.66528e-19)
(5.56351 -13.3917 -3.10451e-20)
(5.41717 -12.9891 2.04702e-19)
(5.27451 -12.5996 -3.53415e-19)
(5.13609 -12.2238 3.94687e-19)
(5.00224 -11.862 -7.5314e-19)
(4.87316 -11.5143 -1.65415e-19)
(4.74889 -11.1804 4.49786e-19)
(4.62936 -10.8598 5.09085e-22)
(4.51448 -10.552 -2.75498e-19)
(4.40408 -10.2565 7.47659e-19)
(4.298 -9.97268 -4.01393e-19)
(4.19609 -9.70014 -5.30382e-19)
(4.09822 -9.43845 1.75064e-19)
(4.00426 -9.1872 -5.04191e-19)
(3.91412 -8.94602 -1.18815e-19)
(3.82762 -8.71446 -1.39777e-20)
(3.74455 -8.49188 -3.17734e-19)
(3.6654 -8.27697 3.81459e-19)
(3.59089 -8.0678 -2.09436e-19)
(3.51305 -7.86551 2.26542e-19)
(8.20594 -17.7058 -5.35027e-19)
(7.42145 -17.3196 -1.45858e-18)
(7.21401 -16.7968 6.93934e-19)
(7.06888 -16.3009 -6.54505e-19)
(6.90004 -15.8442 -4.80985e-19)
(6.73364 -15.3992 -2.72328e-19)
(6.56983 -14.9587 -9.98578e-19)
(6.40563 -14.523 6.75338e-19)
(6.24139 -14.0935 -1.64688e-18)
(6.07829 -13.6722 -5.84562e-19)
(5.91747 -13.261 2.17481e-19)
(5.75995 -12.8616 3.50581e-19)
(5.60654 -12.4754 -8.5584e-21)
(5.4578 -12.1029 -6.56621e-19)
(5.3141 -11.7444 1.52452e-19)
(5.17559 -11.4 -5.80639e-19)
(5.04231 -11.0693 -4.12608e-19)
(4.91418 -10.7518 -2.43045e-19)
(4.79106 -10.4471 -4.49524e-20)
(4.67279 -10.1546 4.16702e-19)
(4.55917 -9.87365 5.8707e-19)
(4.45003 -9.6039 -1.74396e-19)
(4.34524 -9.34488 -1.63954e-19)
(4.24466 -9.09623 3.19608e-19)
(4.14819 -8.8576 1.75972e-19)
(4.05566 -8.62859 -1.39104e-19)
(3.96687 -8.40862 -1.52186e-19)
(3.88235 -8.19641 1.80354e-20)
(3.80282 -7.99 1.56089e-19)
(3.71968 -7.79101 1.99133e-19)
(8.66855 -17.4908 -9.79914e-20)
(7.87795 -17.1333 1.82436e-18)
(7.65933 -16.6212 1.388e-18)
(7.5025 -16.1322 1.0709e-18)
(7.32211 -15.6813 -6.93862e-19)
(7.14386 -15.2409 -1.38411e-19)
(6.96797 -14.8043 1.29717e-19)
(6.79163 -14.3722 8.49638e-19)
(6.61532 -13.9462 3.16275e-19)
(6.44038 -13.5283 7.58884e-19)
(6.26805 -13.1206 -1.04277e-18)
(6.09941 -12.7248 1.09376e-19)
(5.9353 -12.3421 4.17369e-19)
(5.77632 -11.9732 2.4948e-19)
(5.62282 -11.6183 5.13425e-19)
(5.47496 -11.2774 -3.53201e-19)
(5.33274 -10.9502 -3.20987e-19)
(5.19608 -10.6362 6.46048e-20)
(5.0648 -10.3348 6.72351e-19)
(4.93872 -10.0454 -1.07905e-18)
(4.81763 -9.76764 3.7527e-19)
(4.70133 -9.50087 -2.10509e-21)
(4.58968 -9.24473 6.88639e-19)
(4.48254 -8.99887 -2.98984e-19)
(4.37981 -8.76297 -1.70795e-20)
(4.28132 -8.53668 -1.84105e-19)
(4.18688 -8.31949 1.74111e-19)
(4.09708 -8.11012 4.24415e-20)
(4.01264 -7.90664 -1.85761e-19)
(3.92432 -7.7112 5.93145e-19)
(9.12552 -17.2637 -1.93247e-18)
(8.32977 -16.9349 -1.10405e-18)
(8.10036 -16.4338 -2.79453e-18)
(7.93203 -15.9518 -1.24543e-18)
(7.74022 -15.5069 1.15741e-18)
(7.5502 -15.0713 -6.68565e-19)
(7.36227 -14.639 -1.51326e-19)
(7.17382 -14.2108 -4.30688e-19)
(6.9855 -13.7885 7.25499e-19)
(6.79876 -13.3744 -1.61291e-19)
(6.61497 -12.9705 -2.53862e-19)
(6.43526 -12.5786 -3.18583e-20)
(6.26053 -12.1998 -1.00519e-18)
(6.09138 -11.8347 -3.33544e-20)
(5.92816 -11.4838 2.68697e-19)
(5.77102 -11.1467 -2.77144e-20)
(5.61995 -10.8232 -9.95999e-19)
(5.47482 -10.5129 9.62112e-19)
(5.33546 -10.215 -9.3314e-19)
(5.20165 -9.92915 3.61872e-19)
(5.07315 -9.65468 5.05602e-20)
(4.94977 -9.39112 2.05995e-20)
(4.83133 -9.13807 -3.69873e-19)
(4.71769 -8.89519 1.21371e-19)
(4.60877 -8.6622 -1.85916e-22)
(4.50438 -8.43881 3.83453e-20)
(4.40437 -8.22455 -8.84344e-19)
(4.30938 -8.01819 2.42605e-19)
(4.22014 -7.81781 2.55883e-19)
(4.12679 -7.62616 2.61652e-19)
(9.57655 -17.0247 3.7397e-18)
(8.7766 -16.7246 1.2461e-18)
(8.5368 -16.2347 7.18878e-19)
(8.35717 -15.7598 1.13885e-18)
(8.15405 -15.3211 -1.40594e-19)
(7.95235 -14.8907 8.29049e-19)
(7.75244 -14.4628 1.82143e-18)
(7.55192 -14.0388 -2.36813e-19)
(7.35163 -13.6207 9.68256e-20)
(7.15315 -13.2106 2.05681e-18)
(6.95796 -12.8109 -2.74919e-19)
(6.76726 -12.4231 2.75768e-19)
(6.58197 -12.0485 -9.73478e-20)
(6.40273 -11.6877 -1.99424e-21)
(6.22988 -11.3408 1.40022e-18)
(6.06354 -11.0079 5.43358e-20)
(5.90369 -10.6884 1.45325e-18)
(5.75019 -10.382 -1.8845e-19)
(5.60282 -10.0879 -3.06604e-19)
(5.46135 -9.80576 7.11463e-19)
(5.32553 -9.53485 -6.43176e-19)
(5.19513 -9.27471 7.01971e-19)
(5.06996 -9.02496 3.73206e-19)
(4.9499 -8.78526 -2.97987e-19)
(4.83484 -8.55536 4.50575e-19)
(4.72462 -8.33503 5.24115e-20)
(4.61911 -8.12388 -1.80008e-19)
(4.51903 -7.92069 1.01861e-19)
(4.4251 -7.72359 6.45921e-19)
(4.32688 -7.53596 9.31538e-20)
(10.0213 -16.7739 -6.43528e-19)
(9.21814 -16.5026 -1.25304e-18)
(8.96834 -16.0238 5.00496e-19)
(8.7776 -15.5563 -2.02165e-18)
(8.56331 -15.124 9.41273e-19)
(8.35 -14.699 -1.70773e-18)
(8.13816 -14.2759 -1.09771e-18)
(7.92563 -13.8564 3.03908e-19)
(7.71342 -13.4427 2.82118e-19)
(7.50327 -13.0371 -1.42612e-18)
(7.29674 -12.6418 -6.04683e-19)
(7.09513 -12.2585 2.6673e-19)
(6.89938 -11.8884 -7.5001e-19)
(6.71013 -11.532 -2.93167e-19)
(6.52772 -11.1896 -1.94099e-19)
(6.35228 -10.861 -1.94272e-19)
(6.18374 -10.5458 -7.94561e-19)
(6.02195 -10.2436 -4.89344e-19)
(5.86666 -9.95358 9.15376e-20)
(5.7176 -9.67532 1.57868e-19)
(5.57452 -9.40819 1.61682e-19)
(5.43717 -9.15171 -5.68917e-19)
(5.30535 -8.90546 2.09029e-19)
(5.17893 -8.66914 -4.31983e-19)
(5.05779 -8.44253 3.97401e-19)
(4.94181 -8.22545 -5.24552e-19)
(4.83088 -8.01757 1.58383e-19)
(4.72579 -7.8177 -2.54901e-19)
(4.62727 -7.62405 -3.52974e-19)
(4.52435 -7.4407 -3.43935e-20)
(10.4596 -16.5114 -1.33744e-18)
(9.6541 -16.2689 -1.11633e-18)
(9.39469 -15.8015 -1.07984e-18)
(9.19303 -15.3415 -7.72841e-19)
(8.96768 -14.9158 2.38763e-18)
(8.74284 -14.4964 3.22422e-19)
(8.51914 -14.0783 9.9011e-19)
(8.29466 -13.6636 1.48939e-18)
(8.07059 -13.2546 7.00915e-19)
(7.84884 -12.8538 -9.33132e-19)
(7.63106 -12.4633 1.456e-18)
(7.41861 -12.0848 -1.41191e-18)
(7.21249 -11.7195 1.30807e-18)
(7.01333 -11.3679 1.46214e-19)
(6.82147 -11.0302 3.2422e-19)
(6.63701 -10.7062 1.05295e-19)
(6.45987 -10.3956 1.28244e-18)
(6.28986 -10.0977 -1.9099e-19)
(6.12673 -9.81201 1.65586e-19)
(5.97018 -9.5379 5.55207e-19)
(5.81991 -9.27478 -6.15454e-19)
(5.67568 -9.02216 4.8096e-19)
(5.53727 -8.77964 1.47329e-20)
(5.40454 -8.54691 2.12366e-19)
(5.27739 -8.32378 3.82874e-19)
(5.15571 -8.11012 -6.67523e-20)
(5.03942 -7.90569 3.72959e-19)
(4.9294 -7.70931 5.28782e-19)
(4.8264 -7.51929 -5.75224e-19)
(4.71893 -7.34047 -3.23886e-19)
(10.891 -16.2375 3.8692e-18)
(10.0842 -16.0237 -4.09357e-19)
(9.81555 -15.5677 8.31527e-19)
(9.60315 -15.1153 1.50721e-18)
(9.36686 -14.6964 -4.2574e-18)
(9.13058 -14.2829 4.48536e-19)
(8.89509 -13.8701 -1.56969e-18)
(8.65871 -13.4606 1.5247e-18)
(8.42287 -13.0567 -1.20725e-18)
(8.18958 -12.6609 6.29288e-19)
(7.96064 -12.2755 -2.29468e-18)
(7.73746 -11.9021 8.07878e-20)
(7.52105 -11.5419 -7.246e-19)
(7.31208 -11.1953 1.09274e-18)
(7.11087 -10.8626 -1.15176e-18)
(6.91749 -10.5435 -6.44387e-20)
(6.73185 -10.2377 -9.0637e-19)
(6.55372 -9.94444 -6.84957e-20)
(6.38283 -9.66327 6.72465e-20)
(6.21884 -9.39354 1.9064e-19)
(6.06147 -9.13466 -1.07617e-18)
(5.91042 -8.88613 -3.06779e-20)
(5.76548 -8.64755 -5.87778e-19)
(5.62649 -8.41862 -1.37774e-19)
(5.49339 -8.19918 -3.52281e-19)
(5.36605 -7.98914 -3.79118e-19)
(5.24446 -7.78832 -3.86951e-19)
(5.12958 -7.59562 6.42414e-19)
(5.0222 -7.40941 1.69273e-19)
(4.91036 -7.23535 -3.08717e-19)
(11.3153 -15.9523 -2.57396e-18)
(10.5082 -15.7672 9.06139e-19)
(10.2306 -15.3226 -1.51815e-18)
(10.0077 -14.878 2.28747e-19)
(9.76055 -14.4661 2.39491e-18)
(9.51291 -14.0586 -1.20584e-18)
(9.2657 -13.6515 -1.22241e-18)
(9.01751 -13.2474 -1.04302e-18)
(8.76996 -12.8489 5.54006e-20)
(8.52523 -12.4585 6.55357e-19)
(8.28523 -12.0785 -4.64534e-19)
(8.05141 -11.7105 2.95092e-20)
(7.82484 -11.3557 1.38094e-18)
(7.60617 -11.0145 -6.94229e-19)
(7.39571 -10.687 1.73013e-19)
(7.19351 -10.3731 -5.45869e-19)
(6.99946 -10.0722 2.06369e-19)
(6.8133 -9.78385 4.46469e-19)
(6.63472 -9.50743 4.85148e-19)
(6.46339 -9.24229 -5.31984e-19)
(6.29897 -8.98787 8.30566e-20)
(6.14116 -8.74365 4.43607e-19)
(5.98973 -8.50922 7.60432e-19)
(5.84454 -8.28432 1.91678e-19)
(5.70551 -8.06877 -7.66297e-19)
(5.57256 -7.86256 8.80842e-19)
(5.44572 -7.66557 -4.39638e-19)
(5.32605 -7.47671 -5.1584e-19)
(5.21438 -7.2945 -3.13994e-19)
(5.09837 -7.12544 -3.94317e-19)
(11.7324 -15.6559 1.34305e-18)
(10.9258 -15.4995 -1.03105e-18)
(10.6397 -15.0663 4.02275e-19)
(10.4063 -14.6296 2.02306e-18)
(10.1485 -14.2248 5.37696e-19)
(9.88954 -13.8238 -4.56075e-19)
(9.63069 -13.4226 1.09466e-18)
(9.37076 -13.0242 2.65348e-19)
(9.11159 -12.6314 9.9073e-19)
(8.85553 -12.2467 5.39382e-19)
(8.60456 -11.8724 2.2629e-20)
(8.36023 -11.5102 3.2917e-19)
(8.12361 -11.161 -1.0383e-19)
(7.89535 -10.8254 1.77413e-19)
(7.67576 -10.5034 4.77002e-19)
(7.46485 -10.1949 -2.61124e-19)
(7.26249 -9.89923 6.3283e-19)
(7.06839 -9.61599 6.35633e-19)
(6.88222 -9.34453 -7.18272e-19)
(6.7036 -9.0842 7.31764e-19)
(6.53219 -8.83444 1.52999e-18)
(6.36766 -8.59474 -9.80373e-19)
(6.20979 -8.36469 9.69026e-19)
(6.05841 -8.14402 -6.79027e-19)
(5.91348 -7.93259 -9.31004e-20)
(5.77493 -7.73044 7.05148e-19)
(5.64286 -7.53749 -1.44749e-19)
(5.51844 -7.3527 5.19039e-19)
(5.40258 -7.1747 5.08911e-19)
(5.28259 -7.01102 -9.48967e-19)
(12.142 -15.3486 -1.29199e-18)
(11.3368 -15.2207 5.8751e-19)
(11.0424 -14.799 2.36558e-19)
(10.7987 -14.3702 -2.34201e-18)
(10.5303 -13.9728 -1.1893e-18)
(10.2602 -13.5784 8.76076e-19)
(9.98976 -13.1834 -2.39878e-18)
(9.71818 -12.7911 2.84933e-18)
(9.4475 -12.4043 -1.58605e-18)
(9.18021 -12.0256 1.87975e-19)
(8.9184 -11.6574 -3.02468e-19)
(8.66368 -11.3012 -8.61009e-19)
(8.41714 -10.958 1.75898e-18)
(8.17942 -10.6282 6.48173e-19)
(7.95081 -10.312 -6.78561e-19)
(7.73132 -10.009 1.64554e-20)
(7.52075 -9.71886 3.60628e-19)
(7.31881 -9.44093 -7.79468e-19)
(7.12512 -9.17462 1.63164e-19)
(6.93928 -8.9193 5.22511e-19)
(6.76093 -8.67439 -2.22186e-19)
(6.58972 -8.4394 3.51201e-19)
(6.42541 -8.21392 -6.92024e-19)
(6.26784 -7.99769 9.82375e-19)
(6.11697 -7.79061 2.20783e-19)
(5.97278 -7.59273 -6.13742e-19)
(5.83544 -7.40407 -5.20381e-19)
(5.70626 -7.22358 4.90649e-21)
(5.58615 -7.05012 7.05473e-19)
(5.46224 -6.89231 -1.58358e-19)
(12.5441 -15.0304 -3.54531e-19)
(11.741 -14.931 -2.37776e-18)
(11.4385 -14.5207 2.82268e-18)
(11.1847 -14.0999 1.87693e-18)
(10.9057 -13.7101 1.83605e-18)
(10.6245 -13.3226 4.90283e-19)
(10.3426 -12.9341 7.42854e-19)
(10.0595 -12.5482 3.66908e-19)
(9.7774 -12.1677 -1.45971e-18)
(9.49901 -11.7955 2.63983e-18)
(9.2265 -11.4336 -2.07575e-18)
(8.96152 -11.0836 -1.3135e-19)
(8.7052 -10.7466 2.98081e-19)
(8.45816 -10.423 -1.28012e-18)
(8.22068 -10.1128 1.11292e-18)
(7.99272 -9.81564 -3.37883e-19)
(7.77407 -9.53114 -8.33557e-19)
(7.56438 -9.25871 3.12465e-19)
(7.36325 -8.99774 -6.07729e-19)
(7.17026 -8.74759 -5.30338e-19)
(6.98501 -8.50772 -5.55717e-19)
(6.80715 -8.27761 1.25797e-19)
(6.63639 -8.05688 6.48348e-20)
(6.4726 -7.84529 -1.31911e-18)
(6.31573 -7.64274 -4.90898e-19)
(6.16579 -7.44935 3.20076e-19)
(6.02305 -7.26519 3.8767e-19)
(5.88893 -7.08929 -5.33084e-19)
(5.76435 -6.9207 -2.00254e-19)
(5.63635 -6.76895 1.49112e-20)
(12.9387 -14.7018 -3.1921e-19)
(12.1382 -14.6305 1.54081e-18)
(11.8277 -14.2315 -4.38787e-19)
(11.5638 -13.819 -5.34554e-19)
(11.2745 -13.4369 -2.82766e-18)
(10.9822 -13.0566 -6.04487e-19)
(10.689 -12.6749 1.13738e-18)
(10.3944 -12.2956 -7.43163e-19)
(10.101 -11.9219 -7.7325e-20)
(9.81165 -11.5563 -1.48992e-19)
(9.52859 -11.201 7.83951e-19)
(9.25352 -10.8577 -1.22216e-18)
(8.98757 -10.5272 -8.02522e-19)
(8.73137 -10.2099 9.29592e-19)
(8.48516 -9.90591 -5.21492e-19)
(8.24887 -9.61481 -6.2028e-19)
(8.02225 -9.33617 1.31277e-18)
(7.80493 -9.06941 -2.09239e-19)
(7.59646 -8.81393 7.48844e-19)
(7.39639 -8.56911 -6.82043e-19)
(7.20429 -8.33441 -5.39307e-19)
(7.01978 -8.10933 4.69332e-19)
(6.84258 -7.89352 -5.51156e-20)
(6.67253 -7.68673 -3.39787e-19)
(6.50959 -7.48892 2.97903e-19)
(6.35381 -7.30026 -9.0969e-19)
(6.20553 -7.1209 5.55322e-19)
(6.06629 -6.94989 -9.12334e-21)
(5.93703 -6.78637 -5.62875e-19)
(5.80508 -6.64038 7.97353e-19)
(13.3266 -14.3633 1.21479e-18)
(12.5287 -14.3195 -3.00771e-18)
(12.2098 -13.9316 -2.43424e-19)
(11.9359 -13.5273 1.34893e-18)
(11.6362 -13.1532 -3.35537e-19)
(11.333 -12.7803 -9.46936e-19)
(11.0285 -12.4058 4.2804e-19)
(10.7226 -12.0336 4.88858e-19)
(10.418 -11.6668 3.72578e-20)
(10.1179 -11.3082 5.84525e-19)
(9.82443 -10.96 1.84446e-18)
(9.53944 -10.6235 -6.47375e-19)
(9.26404 -10.2998 1.56837e-19)
(8.99885 -9.98912 -4.15722e-19)
(8.74407 -9.69151 1.5842e-18)
(8.49961 -9.40664 -2.82458e-19)
(8.26517 -9.13402 9.12052e-19)
(8.04033 -8.87308 -3.51227e-19)
(7.82462 -8.62322 3.70844e-19)
(7.61754 -8.38384 5.54798e-19)
(7.41861 -8.15441 9.22518e-20)
(7.22745 -7.93446 3.62943e-19)
(7.04374 -7.72367 -2.94997e-19)
(6.86732 -7.52182 8.17972e-19)
(6.69817 -7.32894 -3.30482e-19)
(6.53641 -7.14534 1.194e-18)
(6.38252 -6.97124 -3.45064e-19)
(6.23824 -6.8056 2.33166e-19)
(6.10459 -6.64763 -4.38159e-19)
(5.96937 -6.50875 7.69514e-19)
(13.7088 -14.0155 -2.68396e-18)
(12.9128 -13.9976 1.04085e-19)
(12.5845 -13.6205 -1.48886e-18)
(12.3005 -13.2248 2.63784e-19)
(11.9906 -12.8592 7.48759e-20)
(11.6766 -12.4941 -1.24045e-18)
(11.3608 -12.1271 -2.30566e-18)
(11.0438 -11.7623 1.13169e-18)
(10.7283 -11.4029 -1.59093e-18)
(10.4175 -11.0516 -8.1988e-19)
(10.1138 -10.7106 -4.585e-19)
(9.81909 -10.3813 -3.51591e-19)
(9.53443 -10.0645 2.44152e-21)
(9.26043 -9.76073 -1.25841e-18)
(8.99727 -9.46974 7.95666e-19)
(8.74481 -9.19128 -1.31477e-18)
(8.50271 -8.92483 -3.28982e-19)
(8.27051 -8.66983 3.48653e-19)
(8.04768 -8.42568 4.33983e-19)
(7.83367 -8.1918 4.25098e-19)
(7.62797 -7.96766 3.22642e-19)
(7.43012 -7.75282 -8.03866e-19)
(7.23974 -7.54699 7.97894e-19)
(7.05663 -7.35003 -8.65375e-20)
(6.88074 -7.16208 -2.09868e-19)
(6.71223 -6.98363 -8.21464e-19)
(6.55193 -6.81498 -4.30049e-19)
(6.40196 -6.65517 7.91461e-19)
(6.26322 -6.50494 -2.62792e-19)
(6.12407 -6.37962 -2.50448e-19)
(14.0845 -13.6561 1.17844e-18)
(13.2897 -13.6632 1.17728e-19)
(12.9516 -13.2981 -2.88029e-19)
(12.6572 -12.9119 -5.6601e-20)
(12.3373 -12.5552 -4.92657e-19)
(12.0127 -12.1983 1.67869e-18)
(11.686 -11.8392 -7.75826e-19)
(11.3579 -11.4821 5.10443e-19)
(11.0316 -11.1303 2.10041e-19)
(10.7103 -10.7867 7.2235e-19)
(10.3967 -10.4532 -2.67327e-19)
(10.0924 -10.1313 1.52108e-18)
(9.79866 -9.82181 -1.27989e-19)
(9.51605 -9.52503 9.51407e-19)
(9.2447 -9.24087 -1.57724e-18)
(8.98443 -8.96897 -1.0931e-19)
(8.73486 -8.70883 9.94135e-19)
(8.49548 -8.45988 -6.10199e-19)
(8.2657 -8.22151 -4.23789e-19)
(8.04494 -7.99313 -7.19543e-19)
(7.8326 -7.77422 -6.16329e-19)
(7.62814 -7.56435 6.65085e-19)
(7.43109 -7.36322 -6.0896e-19)
(7.24105 -7.17071 1.34147e-19)
(7.05775 -6.98705 4.85271e-19)
(6.88113 -6.81279 3.31581e-19)
(6.71196 -6.64829 3.0551e-19)
(6.55201 -6.49362 2.24096e-19)
(6.40076 -6.35387 -6.0614e-19)
(6.25006 -6.2469 -2.43158e-19)
(19.7759 0.303385 1.45889e-20)
(19.7681 -0.217747 1.40741e-19)
(19.747 -0.736681 4.89149e-19)
(19.7141 -1.25375 2.66039e-19)
(19.6686 -1.7691 -5.70688e-19)
(19.6101 -2.28258 1.72001e-19)
(19.5383 -2.79397 -1.78244e-19)
(19.4532 -3.30301 -4.53836e-19)
(19.355 -3.80941 1.17823e-18)
(19.2436 -4.31287 -2.81165e-19)
(19.1191 -4.81307 -2.7753e-19)
(18.9816 -5.30968 -5.99919e-19)
(18.8312 -5.80239 -1.73614e-18)
(18.668 -6.29085 1.59829e-19)
(18.4922 -6.77474 -6.54206e-20)
(18.3038 -7.25375 -5.64594e-19)
(18.103 -7.72755 1.17859e-18)
(17.89 -8.19582 6.51769e-19)
(17.6649 -8.65825 1.23692e-18)
(17.4279 -9.11453 6.04128e-19)
(17.1791 -9.56437 -1.3881e-18)
(16.9188 -10.0075 5.7069e-20)
(16.6471 -10.4435 -2.65403e-18)
(16.3643 -10.8723 4.0403e-18)
(16.0705 -11.2935 -1.32346e-18)
(15.7661 -11.707 -1.7505e-18)
(15.451 -12.1125 -2.62365e-19)
(15.1262 -12.5098 -3.53122e-20)
(14.7905 -12.8996 -1.37149e-18)
(14.4477 -13.2803 2.40313e-18)
(19.4043 -0.269068 5.51798e-20)
(19.3801 -0.778922 7.96893e-20)
(19.3418 -1.28628 1.77654e-20)
(19.2905 -1.79133 -7.09293e-19)
(19.2262 -2.29421 -6.35878e-19)
(19.1489 -2.79476 5.60539e-19)
(19.0585 -3.29268 6.94777e-19)
(18.955 -3.78768 3.6989e-19)