/*--------------------------------*- C++ -*----------------------------------*\
| =========                 |                                                 |
| \\      /  F ield         | OpenFOAM: The Open Source CFD Toolbox           |
|  \\    /   O peration     | Version:  v1912                                 |
|   \\  /    A nd           | Website:  www.openfoam.com                      |
|    \\/     M anipulation  |                                                 |
\*---------------------------------------------------------------------------*/
FoamFile
{
    version     2.0;
    format      ascii;
    class       volVectorField;
    location    "71";
    object      U;
}
// * * * * * * * * * * * * * * * * * * * * * * * * * * * * * * * * * * * * * //

dimensions      [0 1 -1 0 0 0 0];


internalField   nonuniform List<vector> 
9600
(
(0.456545 -9.36161 -1.54174e-19)
(0.15977 -8.63233 0)
(0.242039 -8.15953 -9.0539e-20)
(0.320875 -7.84048 0)
(0.388271 -7.60546 0)
(0.456754 -7.41092 -3.18598e-20)
(0.522338 -7.2328 -5.50638e-22)
(0.581885 -7.05886 2.66346e-20)
(0.63462 -6.88375 0)
(0.680574 -6.70603 -4.51628e-20)
(0.720137 -6.52632 0)
(0.753936 -6.34618 -1.8309e-21)
(0.782708 -6.1674 -2.60774e-21)
(0.807212 -5.99169 -3.1562e-20)
(0.82817 -5.82044 2.66203e-20)
(0.846239 -5.65461 -2.61536e-20)
(0.861971 -5.49469 2.32874e-20)
(0.875911 -5.34059 0)
(0.888842 -5.19156 -1.85256e-20)
(0.900493 -5.04608 2.03069e-20)
(0.824478 -9.35123 -3.08449e-19)
(0.502231 -8.66046 1.17572e-20)
(0.567702 -8.20388 1.86499e-19)
(0.63504 -7.89435 -1.58972e-19)
(0.693434 -7.66394 1.56777e-19)
(0.753882 -7.46989 0)
(0.811598 -7.28947 6.07694e-20)
(0.863103 -7.11152 -6.06311e-20)
(0.90755 -6.93151 -1.05171e-19)
(0.945026 -6.74859 1.33032e-19)
(0.976034 -6.56377 -8.6373e-20)
(1.00132 -6.37887 -3.52665e-20)
(1.02174 -6.19582 7.11837e-20)
(1.03814 -6.01641 0)
(1.05131 -5.84204 0)
(1.06193 -5.67367 9.97944e-20)
(1.07057 -5.51176 -1.69199e-19)
(1.0778 -5.35615 0)
(1.08447 -5.20598 0)
(1.09005 -5.05962 -7.8215e-20)
(1.19276 -9.32732 6.37299e-19)
(0.846964 -8.67573 0)
(0.896924 -8.23557 -3.77378e-19)
(0.953504 -7.93564 -3.42066e-19)
(1.0032 -7.70981 0)
(1.05559 -7.51622 5.46702e-19)
(1.10521 -7.3335 -5.16142e-19)
(1.14832 -7.15165 1.01182e-19)
(1.18407 -6.96694 -2.25249e-19)
(1.21265 -6.77909 -3.74625e-19)
(1.23471 -6.58951 5.11423e-19)
(1.25114 -6.40024 -3.16215e-19)
(1.26289 -6.21335 -1.41726e-19)
(1.27093 -6.03066 0)
(1.27608 -5.8536 5.52974e-21)
(1.27909 -5.68311 1.05189e-19)
(1.28052 -5.5196 4.54748e-20)
(1.28095 -5.36289 0)
(1.2813 -5.21197 8.24376e-20)
(1.28071 -5.06515 8.44898e-20)
(1.56027 -9.2895 -8.62192e-19)
(1.19338 -8.67786 -4.04055e-19)
(1.22915 -8.25437 3.91905e-19)
(1.2757 -7.96405 6.73562e-19)
(1.31698 -7.74272 -3.26921e-19)
(1.36128 -7.54953 5.8069e-21)
(1.40255 -7.36455 2.53883e-19)
(1.43691 -7.17894 2.29967e-19)
(1.46357 -6.98977 4.21203e-19)
(1.48286 -6.79732 0)
(1.49559 -6.60337 1.62284e-19)
(1.50281 -6.41015 -1.7222e-19)
(1.50563 -6.21985 1.03543e-20)
(1.50506 -6.03435 2.71503e-19)
(1.50203 -5.85504 2.32777e-19)
(1.49729 -5.68285 -3.28605e-19)
(1.49141 -5.51817 1.08219e-19)
(1.48499 -5.36075 -1.76226e-19)
(1.479 -5.20946 1.75394e-19)
(1.47217 -5.06262 -8.45337e-20)
(1.92671 -9.23771 4.34828e-19)
(1.54119 -8.6667 0)
(1.56397 -8.26001 3.84889e-19)
(1.60113 -7.97924 0)
(1.63423 -7.76231 0)
(1.67035 -7.56948 -3.00491e-19)
(1.70301 -7.38231 -5.37656e-19)
(1.72826 -7.19311 -4.55895e-19)
(1.74543 -6.99975 1.84515e-20)
(1.75503 -6.80307 -1.97017e-19)
(1.75809 -6.60515 0)
(1.75581 -6.40845 -1.62696e-19)
(1.74943 -6.21523 -2.93093e-19)
(1.74006 -6.02738 2.57761e-19)
(1.72869 -5.84628 -7.32551e-19)
(1.71609 -5.67284 1.18552e-19)
(1.70283 -5.5074 9.39747e-20)
(1.68952 -5.34967 -1.93778e-19)
(1.67721 -5.19842 -8.46726e-20)
(1.66411 -5.05198 2.52492e-19)
(2.29154 -9.17187 4.19606e-19)
(1.8899 -8.64201 4.16164e-19)
(1.90087 -8.2522 0)
(1.92923 -7.98087 0)
(1.95434 -7.76824 -6.24679e-19)
(1.98218 -7.57574 3.41398e-19)
(2.00594 -7.38647 8.21679e-19)
(2.02172 -7.19389 0)
(2.029 -6.99668 2.17158e-19)
(2.02856 -6.79616 1.97017e-19)
(2.02161 -6.59475 -3.48092e-19)
(2.00955 -6.39505 5.04793e-19)
(1.99375 -6.19941 1.48135e-19)
(1.97541 -6.00969 0)
(1.95557 -5.82728 1.23324e-19)
(1.93503 -5.65303 5.53615e-19)
(1.91434 -5.48726 -3.29883e-19)
(1.89416 -5.32963 3.70704e-19)
(1.87554 -5.17879 -7.04931e-19)
(1.85617 -5.03321 8.14926e-19)
(2.65423 -9.09194 4.26761e-19)
(2.23899 -8.60359 -2.25982e-18)
(2.23931 -8.23069 0)
(2.25941 -7.96866 0)
(2.27668 -7.76021 0)
(2.29611 -7.56804 -6.06007e-19)
(2.31069 -7.37679 0)
(2.31662 -7.18109 -9.71414e-19)
(2.31365 -6.98038 8.96057e-19)
(2.30281 -6.77646 -8.32251e-19)
(2.28555 -6.57204 0)
(2.26347 -6.36987 0)
(2.23805 -6.17232 0)
(2.2106 -5.98126 -2.81636e-19)
(2.18219 -5.79801 0)
(2.15364 -5.62341 0)
(2.12551 -5.45774 -4.13419e-19)
(2.09847 -5.3006 4.06197e-19)
(2.07361 -5.15058 0)
(2.048 -5.00631 0)
(3.01424 -8.99794 -1.38834e-18)
(2.58792 -8.55128 8.99687e-19)
(2.5787 -8.19521 0)
(2.59106 -7.94232 0)
(2.6006 -7.73794 0)
(2.61147 -7.54612 5.7641e-19)
(2.61656 -7.35305 -5.78167e-19)
(2.6123 -7.15453 -8.9e-21)
(2.59871 -6.95071 -8.97206e-19)
(2.57714 -6.74387 8.40083e-19)
(2.5493 -6.53697 -3.79008e-19)
(2.51697 -6.33287 6.59078e-19)
(2.48178 -6.13396 -4.64233e-20)
(2.4451 -5.94207 -5.96255e-19)
(2.40805 -5.75848 -5.02573e-19)
(2.37147 -5.58398 4.93762e-19)
(2.33589 -5.41883 0)
(2.30202 -5.2626 0)
(2.271 -5.11378 3.57341e-19)
(2.2392 -4.97128 -3.93237e-19)
(3.37099 -8.88988 9.27925e-19)
(2.93613 -8.48494 8.83934e-19)
(2.91846 -8.14556 -1.67547e-18)
(2.92354 -7.90161 7.91453e-19)
(2.92544 -7.7012 0)
(2.92757 -7.50976 6.16791e-19)
(2.92287 -7.31508 -5.41503e-19)
(2.90805 -7.11406 1.53036e-18)
(2.88351 -6.90757 -2.37012e-20)
(2.85092 -6.69833 0)
(2.81225 -6.4895 7.64706e-19)
(2.76949 -6.28403 0)
(2.72438 -6.08431 0)
(2.67839 -5.89212 -2.72783e-19)
(2.63265 -5.7087 5.50163e-19)
(2.58801 -5.53476 0)
(2.545 -5.37057 4.31573e-19)
(2.50437 -5.21564 1.79678e-19)
(2.46728 -5.06841 -3.89827e-19)
(2.42939 -4.92815 3.78533e-19)
(3.72395 -8.76783 -9.55766e-19)
(3.28301 -8.40446 8.98361e-19)
(3.25796 -8.08155 -2.55862e-18)
(3.25618 -7.84634 8.0459e-19)
(3.25049 -7.64978 0)
(3.24369 -7.4588 -1.24496e-18)
(3.22889 -7.26273 5.98071e-19)
(3.20318 -7.05958 0)
(3.16738 -6.85091 -4.7488e-19)
(3.12348 -6.63979 -8.237e-19)
(3.07377 -6.42961 -7.17796e-19)
(3.02042 -6.22335 5.34644e-20)
(2.9653 -6.0234 6.71358e-19)
(2.90993 -5.83146 2.72558e-19)
(2.85548 -5.6487 -3.79587e-20)
(2.80278 -5.47579 -5.13266e-19)
(2.75238 -5.31298 -2.2958e-19)
(2.70505 -5.15975 -2.06984e-19)
(2.66199 -5.01449 5.52174e-19)
(2.61813 -4.87694 -8.22784e-19)
(4.07255 -8.63188 9.55769e-19)
(3.62798 -8.30977 -4.66564e-20)
(3.59655 -8.00305 8.22497e-19)
(3.58832 -7.77633 0)
(3.57505 -7.58354 -6.81013e-19)
(3.55912 -7.39311 1.30859e-18)
(3.53392 -7.19591 -1.11866e-18)
(3.497 -6.99105 1.10083e-18)
(3.44962 -6.78068 -4.46099e-19)
(3.39418 -6.56826 9.0556e-19)
(3.33325 -6.35732 3.9218e-19)
(3.26918 -6.15087 0)
(3.20396 -5.95126 0)
(3.13918 -5.76012 -2.82617e-19)
(3.07601 -5.57853 3.83772e-20)
(3.01528 -5.40712 1.01077e-18)
(2.95752 -5.2461 -2.50068e-19)
(2.90357 -5.09496 8.25987e-19)
(2.85465 -4.95206 1.44584e-19)
(2.80496 -4.81771 -8.40334e-19)
(4.41622 -8.48212 -2.94098e-18)
(3.97043 -8.20082 -9.87294e-19)
(3.9336 -7.90994 -2.63278e-18)
(3.91925 -7.69145 -1.60171e-18)
(3.89841 -7.50235 -7.59769e-19)
(3.87314 -7.31258 -7.42578e-19)
(3.83723 -7.11457 -2.42426e-18)
(3.78879 -6.90842 -4.90883e-20)
(3.72957 -6.6969 -1.94813e-18)
(3.66238 -6.48376 3.02298e-20)
(3.59006 -6.27267 -8.08905e-19)
(3.51518 -6.06664 -7.37131e-19)
(3.43982 -5.86796 6.72922e-19)
(3.3656 -5.67817 -6.15421e-19)
(3.29373 -5.49826 -5.63844e-19)
(3.22499 -5.3288 -5.17496e-19)
(3.15992 -5.17 -1.38956e-18)
(3.09941 -5.02134 4.94355e-19)
(3.04475 -4.88117 1.19979e-18)
(2.98941 -4.75047 -1.27693e-18)
(4.75443 -8.31871 3.95585e-18)
(4.30976 -8.07763 4.86006e-18)
(4.26845 -7.80215 8.34919e-19)
(4.24829 -7.59161 4.00051e-18)
(4.21983 -7.40612 -7.84117e-19)
(4.18499 -7.21718 3.91825e-18)
(4.13809 -7.01867 1.14626e-18)
(4.07785 -6.81171 3.21801e-18)
(4.00655 -6.59959 -9.83645e-19)
(3.92742 -6.38635 2.72359e-18)
(3.8436 -6.17572 1.62934e-18)
(3.75784 -5.97073 1.48492e-18)
(3.67231 -5.77357 -2.01047e-18)
(3.58867 -5.58568 1.88338e-18)
(3.50811 -5.40795 1.13639e-18)
(3.4314 -5.2409 1.0432e-18)
(3.35907 -5.08474 9.5927e-19)
(3.29207 -4.93893 7.36917e-21)
(3.23178 -4.80186 8.14337e-19)
(3.17099 -4.67528 8.47479e-19)
(5.08665 -8.1418 -2.93767e-18)
(4.64539 -7.94023 1.08271e-18)
(4.60044 -7.67966 2.67865e-18)
(4.57472 -7.47675 -3.26354e-18)
(4.53858 -7.29483 7.54132e-19)
(4.49396 -7.10688 -2.62145e-18)
(4.43579 -6.90826 1.28483e-18)
(4.36349 -6.70097 -2.1532e-18)
(4.2799 -6.48884 4.90511e-20)
(4.18868 -6.2761 1.19571e-20)
(4.09327 -6.06656 -1.65184e-18)
(3.99659 -5.86322 -7.47793e-19)
(3.90088 -5.66815 1.37507e-18)
(3.80784 -5.48271 8.76545e-21)
(3.71862 -5.30767 -3.72052e-20)
(3.63398 -5.14349 -1.08879e-18)
(3.55441 -4.99038 -4.83522e-19)
(3.48098 -4.84779 -2.71588e-20)
(3.41516 -4.71418 -8.487e-19)
(3.34915 -4.59225 -4.2799e-19)
(5.41238 -7.95158 0)
(4.97671 -7.78866 -2.00061e-18)
(4.92892 -7.54243 2.37625e-20)
(4.89784 -7.34687 3.25911e-18)
(4.85394 -7.16848 1.36421e-18)
(4.79931 -6.98174 -1.42e-18)
(4.72962 -6.78338 -1.22336e-18)
(4.64501 -6.5763 0)
(4.54896 -6.36474 -9.73886e-19)
(4.44555 -6.15313 9.29468e-19)
(4.3385 -5.94531 -3.90847e-20)
(4.23087 -5.7442 0)
(4.12501 -5.5518 -6.92239e-19)
(4.02258 -5.36933 5.99646e-19)
(3.92473 -5.19746 5.00995e-19)
(3.83216 -5.03659 -6.04753e-19)
(3.74537 -4.8869 -5.24664e-19)
(3.66549 -4.74789 9.11141e-19)
(3.59415 -4.61813 -8.40889e-19)
(3.52304 -4.50146 4.42604e-19)
(5.73114 -7.74822 3.03519e-18)
(5.30316 -7.62299 -2.06048e-18)
(5.2532 -7.39052 -1.75862e-18)
(5.21694 -7.20199 8.18834e-19)
(5.16518 -7.02712 -1.5886e-18)
(5.10032 -6.84182 0)
(5.01886 -6.64416 0)
(4.92176 -6.43782 0)
(4.81311 -6.22743 -4.4489e-20)
(4.69743 -6.01757 -1.86536e-18)
(4.57872 -5.81208 8.80998e-19)
(4.46018 -5.6138 7.45146e-19)
(4.34421 -5.42461 6.30602e-19)
(4.23244 -5.24561 -2.58767e-18)
(4.12598 -5.07737 1.22679e-18)
(4.02549 -4.9202 0)
(3.93141 -4.77429 -3.04427e-20)
(3.84497 -4.63918 -1.41317e-18)
(3.76794 -4.51362 -5.69946e-21)
(3.69169 -4.40255 -4.43094e-19)
(6.04258 -7.532 -2.06448e-18)
(5.62418 -7.44337 -1.08632e-18)
(5.57263 -7.22397 8.18642e-19)
(5.53129 -7.04217 -1.43943e-19)
(5.47155 -6.87083 -4.63108e-18)
(5.39624 -6.68725 4.19136e-18)
(5.30281 -6.49073 -4.88157e-20)
(5.19306 -6.28569 1.14807e-18)
(5.07172 -6.07709 1.03011e-18)
(4.94375 -5.86961 9.45906e-19)
(4.8134 -5.66705 8.60804e-19)
(4.68401 -5.47215 1.53844e-18)
(4.55799 -5.28668 -7.40479e-19)
(4.43697 -5.11163 1.91952e-18)
(4.32196 -4.94744 -1.24094e-18)
(4.21357 -4.79439 -5.13383e-19)
(4.1122 -4.65265 2.06204e-18)
(4.01911 -4.52177 1.3777e-18)
(3.93625 -4.40055 -2.79734e-20)
(3.85507 -4.29484 0)
(6.34667 -7.30341 -1.04971e-18)
(5.93938 -7.24997 2.07603e-18)
(5.88653 -7.04285 1.81767e-18)
(5.84016 -6.86747 -1.45922e-19)
(5.77231 -6.69971 -1.57127e-18)
(5.68636 -6.51816 7.0693e-20)
(5.58077 -6.32327 1.31837e-20)
(5.45826 -6.12012 1.17465e-20)
(5.32419 -5.91393 0)
(5.18395 -5.70943 9.25179e-19)
(5.04204 -5.51036 -1.76095e-18)
(4.90188 -5.31937 -7.53602e-19)
(4.76589 -5.13809 7.4813e-19)
(4.63566 -4.96739 -6.56468e-19)
(4.51213 -4.80767 6.08011e-19)
(4.39583 -4.65916 -5.5352e-19)
(4.28716 -4.52204 4.90132e-21)
(4.18749 -4.3957 -4.70266e-19)
(4.09907 -4.27886 -4.34426e-19)
(4.01373 -4.17919 -4.34724e-19)
(6.64375 -7.06292 0)
(6.24851 -7.04272 -1.01225e-18)
(6.19426 -6.84708 1.00063e-18)
(6.14279 -6.67797 1.74591e-18)
(6.06671 -6.51394 -1.57997e-18)
(5.96995 -6.3348 1.36498e-18)
(5.85208 -6.14207 -2.62456e-18)
(5.71675 -5.94141 -2.33079e-18)
(5.56998 -5.73824 -1.01686e-18)
(5.41757 -5.5373 4.44368e-20)
(5.26422 -5.34226 -8.42084e-19)
(5.11343 -5.15562 3.49359e-20)
(4.96757 -4.97888 0)
(4.82812 -4.81282 -1.28773e-18)
(4.69592 -4.65778 6.57159e-19)
(4.57136 -4.51402 0)
(4.45488 -4.38164 -5.14699e-19)
(4.34808 -4.25979 -9.25401e-19)
(4.2532 -4.14809 9.09299e-19)
(4.16268 -4.05918 4.48869e-19)
(6.93343 -6.80975 0)
(6.55093 -6.82092 0)
(6.49509 -6.63659 -1.85627e-18)
(6.43843 -6.47393 -1.59618e-18)
(6.35406 -6.31391 3.23963e-18)
(6.24639 -6.1376 0)
(6.11616 -5.94757 0)
(5.96802 -5.74999 1.17096e-18)
(5.80866 -5.55046 0)
(5.64424 -5.35366 0)
(5.47969 -5.16313 0)
(5.31851 -4.98121 0)
(5.16303 -4.80926 0)
(5.01454 -4.64792 0)
(4.87363 -4.49744 0)
(4.7404 -4.35801 0)
(4.61512 -4.22946 0)
(4.49887 -4.11116 0)
(4.39176 -4.00615 0)
(4.28765 -3.93175 0)
(10.0435 0.0877411 1.47378e-19)
(10.023 -0.307649 2.8675e-19)
(9.98721 -0.700361 -2.94507e-19)
(9.93668 -1.09025 5.87188e-19)
(9.87115 -1.47698 -5.87187e-19)
(9.79049 -1.86005 -5.54888e-19)
(9.69482 -2.23891 -5.53338e-19)
(9.58434 -2.61303 1.74263e-18)
(9.45928 -2.98184 -1.16103e-18)
(9.3199 -3.3448 1.15129e-18)
(9.16649 -3.70136 -1.15129e-18)
(8.99936 -4.05098 1.14278e-18)
(8.81882 -4.39315 -2.26623e-18)
(8.62524 -4.72737 3.33736e-18)
(8.41898 -5.05315 0)
(8.20043 -5.37004 -3.27881e-18)
(7.96999 -5.67761 1.63556e-20)
(7.72818 -5.97552 3.30426e-18)
(7.47509 -6.26359 0)
(7.21242 -6.54116 0)
(10.1207 -0.210716 0)
(10.0794 -0.606835 -1.50435e-20)
(10.0213 -0.999153 0)
(9.94717 -1.38733 5.61922e-19)
(9.85713 -1.77094 5.85168e-19)
(9.75142 -2.14938 -1.69367e-18)
(9.63034 -2.52202 2.94859e-18)
(9.49424 -2.88822 -1.16399e-18)
(9.34348 -3.24741 -1.10956e-18)
(9.17848 -3.59898 -1.10502e-18)
(8.99963 -3.94237 4.45766e-20)
(8.80738 -4.27703 1.13216e-18)
(8.60219 -4.60244 -5.62836e-18)
(8.38454 -4.91811 -1.18028e-18)
(8.15493 -5.22357 2.24899e-18)
(7.91387 -5.51838 2.24596e-18)
(7.66183 -5.80216 1.14107e-18)
(7.3994 -6.07458 -2.20034e-18)
(7.12666 -6.33538 1.042e-18)
(6.84457 -6.58422 0)
(10.0726 -0.149213 1.32718e-19)
(10.0348 -0.540902 -2.71784e-19)
(9.97955 -0.929414 7.84859e-19)
(9.90735 -1.31406 -5.56025e-19)
(9.81854 -1.69417 -5.30159e-19)
(9.71349 -2.06905 5.53511e-19)
(9.59256 -2.43797 0)
(9.45617 -2.80024 0)
(9.30472 -3.15518 2.10172e-18)
(9.13867 -3.50215 3.13538e-18)
(8.95849 -3.84054 -9.91665e-19)
(8.76468 -4.16976 3.10037e-18)
(8.55777 -4.48923 -9.87491e-19)
(8.33827 -4.79843 -3.0198e-18)
(8.10676 -5.09686 1.36263e-20)
(7.86379 -5.38404 1.93841e-18)
(7.6099 -5.65954 -8.74963e-19)
(7.34569 -5.92295 -1.90702e-18)
(7.07149 -6.1739 -1.03004e-18)
(6.78804 -6.41189 1.87419e-18)
(9.90657 -0.112489 0)
(9.87555 -0.49495 2.29143e-19)
(9.82725 -0.875064 2.28202e-19)
(9.76185 -1.25193 -9.37529e-19)
(9.67969 -1.62475 0)
(9.58111 -1.99275 0)
(9.46646 -2.35516 0)
(9.33612 -2.71124 0)
(9.19051 -3.06026 -9.92083e-19)
(9.03008 -3.40154 -9.88315e-19)
(8.8553 -3.73441 0)
(8.66667 -4.05823 1.86859e-18)
(8.46472 -4.3724 -4.61995e-18)
(8.25002 -4.67633 3.71484e-18)
(8.02312 -4.96946 -3.60066e-18)
(7.78462 -5.25129 -8.73703e-19)
(7.53509 -5.52132 1.56488e-19)
(7.27514 -5.77907 1.54891e-19)
(7.0053 -6.0241 -1.77939e-18)
(6.7263 -6.2559 -7.08921e-20)
(9.65359 -0.0990063 0)
(9.62999 -0.46924 -2.25986e-19)
(9.58954 -0.837783 0)
(9.53231 -1.20373 4.52097e-19)
(9.45854 -1.56625 4.30971e-19)
(9.36852 -1.92454 3.94014e-19)
(9.26255 -2.27783 0)
(9.14098 -2.62534 0)
(9.00418 -2.96634 0)
(8.85257 -3.30012 0)
(8.68658 -3.62597 8.13914e-19)
(8.50671 -3.94322 8.76871e-19)
(8.31346 -4.25124 8.71866e-19)
(8.10736 -4.5494 -8.85202e-19)
(7.88898 -4.83712 -1.52349e-18)
(7.65891 -5.11383 1.72932e-18)
(7.41772 -5.37899 3.35282e-18)
(7.16604 -5.63209 1.63081e-18)
(6.90444 -5.87262 0)
(6.63365 -6.10008 -1.53701e-18)
(9.34663 -0.0902052 4.64499e-20)
(9.32999 -0.446265 0)
(9.29714 -0.801206 -7.61194e-19)
(9.24808 -1.15417 1.82597e-23)
(9.18295 -1.50435 1.6179e-20)
(9.102 -1.85093 -6.85546e-20)
(9.00549 -2.19315 0)
(8.8937 -2.53026 3.09426e-20)
(8.76696 -2.8615 -7.72741e-19)
(8.62565 -3.18615 1.50556e-18)
(8.47015 -3.50352 -1.56991e-18)
(8.30092 -3.81293 8.57646e-19)
(8.11843 -4.11371 -4.49571e-18)
(7.92318 -4.40522 2.9652e-18)
(7.7157 -4.68687 1.57179e-18)
(7.49655 -4.95805 0)
(7.26631 -5.21819 -2.90127e-18)
(7.02557 -5.46675 -6.15436e-20)
(6.77492 -5.70319 -2.85715e-18)
(6.51503 -5.92699 2.9696e-18)
(9.01431 -0.0853963 4.17742e-20)
(9.00332 -0.426458 -8.75109e-20)
(8.97684 -0.76687 7.17506e-19)
(8.93486 -1.10583 -1.40787e-20)
(8.87746 -1.44255 7.17358e-19)
(8.80483 -1.77627 -1.0835e-18)
(8.71718 -2.10622 0)
(8.61476 -2.43168 7.30417e-19)
(8.49786 -2.75192 6.68793e-19)
(8.36678 -3.06623 -7.26326e-19)
(8.2219 -3.37393 1.32891e-18)
(8.0636 -3.67433 2.81729e-18)
(7.89232 -3.96679 -1.31023e-18)
(7.70853 -4.25066 -1.42017e-18)
(7.51271 -4.52534 1.36195e-18)
(7.3054 -4.79021 0)
(7.08715 -5.0447 6.49632e-20)
(6.85851 -5.28822 9.81697e-21)
(6.62008 -5.52024 2.70702e-18)
(6.37245 -5.7402 1.25854e-18)
(8.6779 -0.0842179 0)
(8.67097 -0.410327 6.26024e-21)
(8.64933 -0.736131 -1.46009e-19)
(8.61292 -1.06088 -6.48418e-19)
(8.56183 -1.38383 6.0951e-19)
(8.49619 -1.70425 0)
(8.41617 -2.02143 1.24057e-18)
(8.32198 -2.33465 -1.36324e-21)
(8.21387 -2.64322 -1.8947e-18)
(8.09212 -2.94647 0)
(7.95704 -3.24372 -1.30776e-18)
(7.80899 -3.53433 4.6024e-20)
(7.64837 -3.81766 -3.67617e-18)
(7.4756 -4.09308 6.4788e-21)
(7.29114 -4.35999 1.23212e-18)
(7.09549 -4.61779 0)
(6.88916 -4.8659 -1.20933e-18)
(6.6727 -5.10373 8.70729e-21)
(6.44665 -5.33073 1.20063e-18)
(6.21158 -5.54632 -1.23849e-18)
(8.35128 -0.0853022 0)
(8.34697 -0.39704 1.497e-19)
(8.3287 -0.708705 3.10593e-19)
(8.29643 -1.0196 -5.74912e-19)
(8.25019 -1.32902 -2.47376e-20)
(8.1901 -1.63627 -2.87324e-19)
(8.11631 -1.94069 -1.15019e-18)
(8.029 -2.2416 5.7183e-19)
(7.92837 -2.53834 2.38276e-20)
(7.81469 -2.83028 5.68408e-19)
(7.68822 -3.11677 5.23272e-19)
(7.5493 -3.39719 2.26609e-18)
(7.39829 -3.67094 1.1335e-18)
(7.23557 -3.93742 2.23881e-18)
(7.0616 -4.19604 -1.11647e-18)
(6.87681 -4.44621 3.8687e-20)
(6.68172 -4.68738 -1.10329e-18)
(6.47683 -4.91895 0)
(6.26268 -5.14037 1.0429e-18)
(6.03977 -5.35104 0)
(8.04236 -0.087523 6.51784e-20)
(8.03951 -0.385761 -1.90889e-19)
(8.02342 -0.684067 5.23573e-19)
(7.99404 -0.981787 -2.612e-19)
(7.95138 -1.27826 1.8995e-20)
(7.89556 -1.57285 -2.61046e-19)
(7.8267 -1.8649 5.42697e-19)
(7.74495 -2.1538 -5.19393e-19)
(7.65051 -2.43893 5.1939e-19)
(7.54359 -2.71967 9.96166e-19)
(7.42447 -2.99543 -1.07341e-18)
(7.29343 -3.26562 -4.51288e-20)
(7.15081 -3.52967 -3.10708e-18)
(6.99698 -3.78702 5.3815e-21)
(6.83236 -4.0371 4.03018e-20)
(6.65737 -4.27936 2.01425e-18)
(6.4725 -4.51324 -9.94977e-19)
(6.27825 -4.73818 -9.47737e-19)
(6.07513 -4.95362 -3.74681e-20)
(5.86362 -5.15896 0)
(7.75476 -0.0901346 0)
(7.75252 -0.375865 2.42482e-19)
(7.7377 -0.661738 -8.33747e-19)
(7.71023 -0.947138 -2.21201e-19)
(7.67015 -1.23145 4.94692e-19)
(7.61753 -1.51406 0)
(7.5525 -1.79437 0)
(7.47519 -2.0718 4.72854e-19)
(7.38577 -2.34575 -4.72851e-19)
(7.28446 -2.61567 3.98346e-19)
(7.17149 -2.88099 -4.69804e-19)
(7.04715 -3.14116 9.31661e-19)
(6.91173 -3.39565 -1.85871e-18)
(6.76561 -3.64393 1.8491e-18)
(6.60916 -3.88547 3.46855e-20)
(6.44282 -4.11976 -9.51014e-19)
(6.26706 -4.34626 -9.04976e-19)
(6.08236 -4.56442 1.84348e-18)
(5.88925 -4.77369 8.63005e-19)
(5.68819 -4.97345 0)
(7.48926 -0.0926634 1.87898e-21)
(7.48707 -0.366886 1.5921e-19)
(7.47287 -0.641278 3.34263e-19)
(7.44662 -0.915261 2.33966e-19)
(7.40834 -1.18825 2.17038e-19)
(7.35812 -1.45968 2.01899e-19)
(7.29605 -1.72897 0)
(7.22226 -1.99558 -8.34348e-19)
(7.13693 -2.25897 -4.30105e-19)
(7.04023 -2.51858 3.6694e-19)
(6.9324 -2.77391 0)
(6.8137 -3.02444 8.49503e-19)
(6.68443 -3.26968 -2.51245e-18)
(6.54492 -3.50914 8.45155e-19)
(6.39555 -3.74233 0)
(6.23675 -3.96878 -8.03588e-19)
(6.069 -4.18798 -1.62303e-18)
(5.89278 -4.39942 7.98646e-19)
(5.70865 -4.60252 -2.92216e-20)
(5.51705 -4.79666 0)
(7.24498 -0.0948104 3.4668e-21)
(7.24247 -0.358478 -1.03037e-19)
(7.22848 -0.622308 1.98842e-19)
(7.20297 -0.885754 -1.31307e-20)
(7.16596 -1.14827 3.97334e-19)
(7.11753 -1.40931 -6.10228e-19)
(7.05778 -1.66834 0)
(6.98683 -1.92484 5.60676e-20)
(6.90483 -2.1783 0)
(6.81196 -2.42821 -8.14577e-19)
(6.70844 -2.67409 0)
(6.59452 -2.91546 -7.51765e-19)
(6.47048 -3.15187 2.32348e-18)
(6.33665 -3.38288 -1.53965e-18)
(6.19339 -3.60803 7.67611e-19)
(6.04114 -3.82691 -6.79186e-19)
(5.88039 -4.03904 7.84475e-19)
(5.71163 -4.24397 -7.79111e-19)
(5.5355 -4.44109 0)
(5.35244 -4.62975 0)
(7.02013 -0.0964543 4.71488e-20)
(7.01712 -0.350416 0)
(7.00309 -0.604521 0)
(6.978 -0.85825 -3.77765e-19)
(6.9419 -1.11108 -3.52577e-19)
(6.89486 -1.3625 0)
(6.83696 -1.612 0)
(6.76833 -1.85909 4.98876e-20)
(6.6891 -2.10328 6.98215e-19)
(6.59946 -2.3441 -3.36722e-19)
(6.49961 -2.5811 -3.58747e-19)
(6.38978 -2.81384 1.44918e-18)
(6.27024 -3.0419 -2.15192e-18)
(6.14131 -3.26487 1.38768e-18)
(6.00335 -3.48237 0)
(5.85678 -3.69405 2.78787e-18)
(5.70214 -3.89944 -2.02414e-18)
(5.53992 -4.0982 6.88607e-19)
(5.37091 -4.28964 1.31695e-18)
(5.19552 -4.47319 0)
(6.81261 -0.0975304 -4.05369e-20)
(6.80899 -0.342539 0)
(6.79477 -0.587669 -5.22586e-21)
(6.76993 -0.832421 -3.24408e-19)
(6.7345 -1.07629 1.00523e-18)
(6.68857 -1.3188 -1.67217e-19)
(6.63221 -1.55946 0)
(6.56554 -1.79779 1.33206e-18)
(6.48869 -2.03335 -6.85988e-19)
(6.40183 -2.26569 4.45174e-20)
(6.30516 -2.49437 6.35758e-19)
(6.19889 -2.71901 6.51655e-19)
(6.08328 -2.9392 -1.29951e-18)
(5.95863 -3.15461 -1.27107e-18)
(5.8253 -3.36488 -1.24154e-18)
(5.68368 -3.56975 -1.32114e-18)
(5.53437 -3.76877 1.31215e-18)
(5.37785 -3.96182 -6.26406e-19)
(5.21518 -4.14802 -6.67486e-19)
(5.04664 -4.32702 0)
(6.62018 -0.0980185 3.98265e-20)
(6.61591 -0.334742 -1.4954e-19)
(6.60145 -0.571557 -1.54806e-19)
(6.57676 -0.807983 4.63533e-19)
(6.54189 -1.04354 -1.64613e-19)
(6.4969 -1.27777 -1.53871e-19)
(6.44187 -1.5102 0)
(6.37693 -1.7404 -6.32469e-19)
(6.30219 -1.96791 0)
(6.21781 -2.19233 6.2758e-19)
(6.12397 -2.41325 -1.20936e-18)
(6.02088 -2.6303 5.9866e-19)
(5.90878 -2.84312 -1.19365e-18)
(5.78794 -3.05143 1.23175e-18)
(5.65869 -3.25489 6.70418e-19)
(5.52144 -3.45338 0)
(5.37679 -3.64644 -5.78695e-19)
(5.22521 -3.8343 5.78695e-19)
(5.06817 -4.01574 0)
(4.90564 -4.19111 0)
(6.4407 -0.0980064 0)
(6.43583 -0.327002 1.46922e-19)
(6.42112 -0.556057 4.72655e-21)
(6.39656 -0.784712 -1.51491e-19)
(6.36219 -1.01251 -1.3359e-19)
(6.31807 -1.23901 -1.41826e-19)
(6.26428 -1.46376 5.48166e-19)
(6.20094 -1.68634 0)
(6.12815 -1.90634 0)
(6.04608 -2.12336 2.78581e-19)
(5.95488 -2.33701 2.95931e-19)
(5.85474 -2.54696 1.07107e-18)
(5.74587 -2.75287 -5.47265e-19)
(5.62853 -2.9545 5.47264e-19)
(5.50303 -3.15156 5.80957e-19)
(5.36969 -3.34408 3.39682e-20)
(5.22918 -3.53157 -1.06702e-18)
(5.08186 -3.71483 3.78011e-21)
(4.92989 -3.89193 5.27735e-19)
(4.77241 -4.06489 0)
(6.27228 -0.097497 -3.28391e-20)
(6.26686 -0.319287 3.28387e-20)
(6.25196 -0.541111 0)
(6.22756 -0.76252 1.23691e-19)
(6.1937 -0.983078 4.01783e-19)
(6.15044 -1.20236 -5.07811e-19)
(6.09788 -1.41994 -5.38592e-19)
(6.0361 -1.63542 0)
(5.96523 -1.84839 0)
(5.88539 -2.05849 0)
(5.79675 -2.26535 -9.94295e-19)
(5.69947 -2.46865 -6.41768e-20)
(5.59374 -2.6681 -5.04147e-19)
(5.47976 -2.86346 3.02103e-20)
(5.35782 -3.05452 -9.97011e-19)
(5.22812 -3.24142 1.51945e-18)
(5.0914 -3.42371 -1.43974e-18)
(4.9477 -3.60299 4.88733e-19)
(4.80029 -3.77627 9.36947e-19)
(4.64648 -3.94845 0)
(6.1132 -0.09614 2.95028e-20)
(6.10735 -0.311398 0)
(6.09233 -0.526678 -1.21464e-19)
(6.06815 -0.741541 -2.50284e-19)
(6.03484 -0.95557 1.21312e-19)
(5.99247 -1.16836 9.68727e-19)
(5.94111 -1.3795 0)
(5.88087 -1.5886 -4.66563e-19)
(5.81184 -1.7953 -2.38632e-19)
(5.73415 -1.99924 -4.48305e-19)
(5.64795 -2.20007 -1.79377e-19)
(5.55337 -2.39749 -1.41535e-18)
(5.45059 -2.59122 -9.34225e-19)
(5.33974 -2.78107 9.61016e-19)
(5.22106 -2.96683 9.19891e-19)
(5.09457 -3.14876 -3.88497e-21)
(4.96108 -3.32649 2.99608e-20)
(4.81983 -3.50262 4.50328e-19)
(4.67594 -3.67334 -9.20644e-19)
(4.52265 -3.84856 0)
(5.96185 -0.0944681 -6.16962e-20)
(5.9557 -0.303471 3.0372e-20)
(5.94072 -0.512562 -1.21342e-19)
(5.91692 -0.72135 1.21285e-19)
(5.8843 -0.929443 -3.48834e-19)
(5.84292 -1.13645 -1.08622e-18)
(5.79284 -1.34198 0)
(5.73414 -1.54568 4.9366e-19)
(5.66691 -1.74718 -4.6159e-19)
(5.59124 -1.94614 9.77441e-19)
(5.50725 -2.14224 9.71638e-19)
(5.41505 -2.33517 1.43153e-18)
(5.31477 -2.52468 -9.28903e-19)
(5.20645 -2.71054 4.62691e-19)
(5.09034 -2.89259 -4.55033e-19)
(4.96605 -3.07104 4.55057e-19)
(4.8347 -3.24562 0)
(4.69358 -3.41955 4.12004e-19)
(4.55175 -3.58865 -4.03187e-19)
(4.39403 -3.77513 0)
(7.14018 7.26218 0)
(7.42016 6.97237 0)
(7.68723 6.67298 1.08765e-18)
(7.94211 6.36451 2.02673e-20)
(8.18421 6.04667 -1.1507e-18)
(8.41289 5.71954 0)
(8.62772 5.38351 1.18748e-18)
(8.82837 5.03912 -2.24045e-18)
(9.01454 4.68694 -1.13227e-18)
(9.18593 4.32759 -1.14285e-18)
(9.34227 3.96168 1.14285e-18)
(9.48333 3.58989 -1.15495e-18)
(9.60894 3.2129 5.76113e-19)
(9.71888 2.8314 5.49886e-19)
(9.813 2.44607 5.52035e-19)
(9.89124 2.05756 -5.85845e-19)
(9.95359 1.66655 5.85846e-19)
(10.0001 1.27373 -2.94102e-19)
(10.0308 0.879508 -1.39703e-19)
(10.046 0.485226 7.35819e-20)
(7.41715 7.07049 0)
(7.69734 6.78106 -9.967e-19)
(7.96374 6.48007 -2.13087e-18)
(8.21664 6.16818 3.15115e-18)
(8.4558 5.84572 -2.1852e-18)
(8.68071 5.51315 2.19599e-18)
(8.89088 5.17106 1.19386e-18)
(9.08591 4.82012 -3.38784e-18)
(9.26541 4.46102 1.1083e-18)
(9.42902 4.09449 2.20326e-18)
(9.57642 3.72123 1.08552e-18)
(9.70737 3.34202 1.0924e-18)
(9.8217 2.95765 -1.15275e-18)
(9.91919 2.56883 1.69745e-18)
(9.99957 2.17638 -2.35501e-18)
(10.0628 1.78115 5.81295e-19)
(10.1087 1.38395 -5.58591e-19)
(10.1376 0.985598 0)
(10.1492 0.586632 1.51573e-20)
(10.144 0.188028 0)
(7.27424 6.94579 -1.75506e-18)
(7.55725 6.67377 9.85298e-19)
(7.82772 6.38888 1.80239e-18)
(8.0852 6.0918 8.15987e-19)
(8.32926 5.7831 2.0435e-18)
(8.55937 5.46339 2.00461e-20)
(8.77501 5.13335 -1.02428e-18)
(8.97569 4.79366 -3.05261e-18)
(9.16095 4.44504 3.01376e-18)
(9.33036 4.08823 -3.09367e-18)
(9.48353 3.72396 -1.03068e-18)
(9.62017 3.353 -2.06209e-18)
(9.73994 2.97616 0)
(9.84264 2.59422 0)
(9.92814 2.20808 0)
(9.99627 1.81864 -5.25627e-19)
(10.0469 1.42674 5.50496e-19)
(10.0799 1.03324 5.27323e-19)
(10.0952 0.638862 6.2707e-21)
(10.0929 0.244563 1.32441e-19)
(7.047 6.69376 1.82274e-18)
(7.32676 6.4404 -1.65531e-18)
(7.59517 6.17392 -1.69642e-19)
(7.85151 5.89485 -1.70603e-19)
(8.09522 5.60377 4.30335e-18)
(8.32574 5.30128 -7.12687e-20)
(8.54252 4.98801 3.77792e-21)
(8.74504 4.66463 -2.72136e-18)
(8.93279 4.3318 1.79555e-18)
(9.1053 3.99023 0)
(9.26207 3.64068 9.63041e-19)
(9.40278 3.284 9.69707e-19)
(9.52712 2.92096 0)
(9.6348 2.5524 0)
(9.72559 2.17913 0)
(9.7993 1.80198 0)
(9.85572 1.42177 -2.17164e-20)
(9.89476 1.03935 4.74821e-19)
(9.91627 0.655553 -2.28016e-19)
(9.92027 0.271319 0)
(6.78435 6.37901 1.54382e-18)
(7.05625 6.14351 0)
(7.31792 5.89507 -4.54561e-18)
(7.56856 5.63411 -1.54939e-18)
(7.80752 5.36115 -1.62817e-18)
(8.03423 5.07675 -1.72594e-18)
(8.24812 4.78149 8.15452e-19)
(8.44864 4.47596 -8.57004e-19)
(8.63525 4.1608 2.37969e-18)
(8.80751 3.83671 -7.79066e-19)
(8.96498 3.50443 0)
(9.10718 3.16472 0)
(9.23372 2.81827 0)
(9.34432 2.46586 0)
(9.43873 2.10831 -1.2303e-18)
(9.51667 1.74643 4.23039e-19)
(9.57795 1.38101 -4.46866e-19)
(9.62239 1.0129 0)
(9.64987 0.642933 2.24875e-19)
(9.66031 0.272006 0)
(6.50942 6.05176 1.32078e-18)
(6.77109 5.83242 -4.79983e-20)
(7.02346 5.60054 2.77819e-18)
(7.26575 5.35647 1.38799e-18)
(7.49729 5.10067 0)
(7.7175 4.83365 -1.47391e-18)
(7.92581 4.55593 6.8533e-20)
(8.12168 4.26808 -1.49631e-18)
(8.30459 3.97069 2.07011e-18)
(8.47404 3.6644 3.27472e-20)
(8.62962 3.34985 2.81232e-20)
(8.77088 3.02767 -7.46689e-19)
(8.8974 2.69859 1.46442e-18)
(9.00886 2.36337 0)
(9.105 2.02273 6.85901e-20)
(9.18551 1.67748 7.4766e-19)
(9.25013 1.32841 1.63941e-21)
(9.29867 0.976283 -1.53507e-20)
(9.33102 0.621915 0)
(9.34703 0.266135 -4.63533e-20)
(6.24356 5.73472 0)
(6.4939 5.52935 -4.89251e-20)
(6.73569 5.31198 1.75851e-20)
(6.96818 5.0829 -2.51147e-18)
(7.19073 4.8425 0)
(7.40277 4.59125 1.27023e-18)
(7.60375 4.32962 1.35297e-18)
(7.79314 4.05814 -3.93638e-18)
(7.97044 3.77733 -6.83044e-20)
(8.13518 3.48778 -1.26401e-18)
(8.28693 3.19008 6.95961e-19)
(8.42524 2.88484 -6.42906e-19)
(8.54974 2.57275 -7.06738e-19)
(8.66004 2.25448 0)
(8.7559 1.93076 3.72855e-19)
(8.83712 1.6022 -1.69146e-20)
(8.9033 1.26965 -3.46141e-19)
(8.95423 0.933856 -1.67765e-20)
(8.9898 0.595562 -8.71332e-20)
(9.00984 0.25554 1.7464e-19)
(5.99802 5.43948 0)
(6.23676 5.24596 1.08603e-18)
(6.46756 5.04101 1.61925e-20)
(6.68969 4.82488 -1.10219e-18)
(6.90255 4.59792 0)
(7.10557 4.36055 1.14667e-18)
(7.29826 4.11321 -1.09481e-18)
(7.4801 3.85636 -1.21196e-18)
(7.65063 3.5905 2.30534e-18)
(7.80938 3.31617 1.24391e-18)
(7.95594 3.03391 0)
(8.0899 2.74433 6.06731e-19)
(8.21089 2.44803 -4.39286e-21)
(8.31858 2.14567 2.18737e-20)
(8.41256 1.83791 0)
(8.4927 1.52538 -5.9723e-19)
(8.55883 1.20869 -3.12886e-19)
(8.61053 0.888662 4.57149e-19)
(8.6477 0.566021 3.08226e-19)
(8.67016 0.241475 -4.11985e-20)
(5.77645 5.17099 0)
(6.00393 4.98745 -9.38026e-19)
(6.22392 4.79305 0)
(6.43575 4.58802 -1.01203e-18)
(6.63883 4.37266 1.99249e-18)
(6.83264 4.14736 -2.03201e-18)
(7.01671 3.91251 3.17966e-18)
(7.19057 3.66855 -3.17052e-18)
(7.35376 3.41594 -2.14211e-18)
(7.50586 3.15518 -1.57995e-18)
(7.64648 2.8868 5.41789e-19)
(7.77524 2.61134 -1.12323e-18)
(7.89178 2.32938 1.86552e-20)
(7.99577 2.04153 1.11656e-18)
(8.08693 1.74837 -2.80901e-19)
(8.16489 1.45063 1.1507e-18)
(8.22954 1.14879 -5.65962e-19)
(8.28072 0.843571 2.60765e-19)
(8.31817 0.535696 -1.48709e-19)
(8.34169 0.225836 0)
(5.57859 4.92963 0)
(5.79546 4.75454 1.81471e-18)
(6.00518 4.56915 8.80282e-19)
(6.20712 4.37366 -9.06113e-19)
(6.40074 4.16834 -1.85617e-18)
(6.58555 3.95352 2.82452e-18)
(6.7611 3.72958 1.12978e-20)
(6.92697 3.49692 -9.2067e-19)
(7.08273 3.25598 1.97651e-18)
(7.22799 3.00724 1.0208e-18)
(7.36238 2.75118 -9.53713e-19)
(7.48555 2.48834 5.00784e-19)
(7.59715 2.21926 2.2547e-20)
(7.69687 1.94449 -5.26942e-19)
(7.78445 1.66462 -2.55349e-19)
(7.85959 1.38022 5.12008e-19)
(7.92206 1.09199 -2.5666e-19)
(7.97175 0.80043 -5.17931e-19)
(8.00849 0.506223 6.0018e-20)
(8.03203 0.210016 6.48984e-20)