/*--------------------------------*- C++ -*----------------------------------*\
  =========                 |
  \\      /  F ield         | OpenFOAM: The Open Source CFD Toolbox
   \\    /   O peration     | Website:  https://openfoam.org
    \\  /    A nd           | Version:  6.0
     \\/     M anipulation  |
\*---------------------------------------------------------------------------*/
FoamFile
{
    version     2.0;
    format      ascii;
    class       volScalarField;
    location    "21.735";
    object      p;
}
// * * * * * * * * * * * * * * * * * * * * * * * * * * * * * * * * * * * * * //

dimensions      [0 2 -2 0 0 0 0];

internalField   nonuniform List<scalar> 
2400
(
-0.390786
-0.377627
-0.3694
-0.362779
-0.356262
-0.349852
-0.343628
-0.337558
-0.33172
-0.327202
-0.403978
-0.389954
-0.380757
-0.372999
-0.365249
-0.357604
-0.350203
-0.343022
-0.336141
-0.331087
-0.421161
-0.405661
-0.395008
-0.385704
-0.376345
-0.367113
-0.358209
-0.349596
-0.341354
-0.335666
-0.442596
-0.425
-0.412385
-0.401102
-0.389735
-0.378549
-0.36779
-0.357388
-0.347409
-0.340941
-0.468595
-0.448217
-0.433098
-0.419389
-0.405614
-0.3921
-0.37912
-0.366531
-0.354367
-0.346884
-0.499444
-0.475531
-0.457345
-0.440768
-0.424203
-0.408007
-0.392447
-0.377251
-0.362361
-0.353476
-0.535368
-0.507112
-0.485296
-0.465443
-0.445751
-0.426578
-0.408145
-0.38997
-0.37175
-0.360816
-0.576479
-0.54305
-0.51707
-0.493582
-0.470481
-0.448085
-0.426527
-0.404997
-0.38259
-0.368339
-0.622698
-0.583303
-0.552712
-0.525338
-0.498656
-0.472856
-0.447822
-0.422029
-0.393217
-0.372473
-0.673472
-0.627578
-0.592146
-0.560902
-0.530916
-0.502321
-0.474704
-0.445695
-0.411369
-0.38224
-1.1436
-1.12694
-1.09777
-1.05842
-1.01114
-0.95812
-0.90146
-0.843041
-0.784509
-0.727409
-1.047
-1.03209
-1.00579
-0.970278
-0.927664
-0.880028
-0.829322
-0.777301
-0.725485
-0.675195
-0.964222
-0.953058
-0.930989
-0.900009
-0.862156
-0.819444
-0.77377
-0.726847
-0.680156
-0.634924
-0.886497
-0.880242
-0.863335
-0.837567
-0.80484
-0.767076
-0.72612
-0.683664
-0.641203
-0.599958
-0.810572
-0.809479
-0.798087
-0.777925
-0.750684
-0.718119
-0.681952
-0.643802
-0.605155
-0.567232
-0.738686
-0.742401
-0.736347
-0.721772
-0.700113
-0.67289
-0.641612
-0.607702
-0.57255
-0.537291
-0.672287
-0.680106
-0.678846
-0.669511
-0.653285
-0.631426
-0.605152
-0.575545
-0.543706
-0.510486
-0.611812
-0.622967
-0.625831
-0.621229
-0.610155
-0.593646
-0.57262
-0.547663
-0.519188
-0.48699
-0.55708
-0.570933
-0.577345
-0.577054
-0.570969
-0.560035
-0.545009
-0.526017
-0.502246
-0.46998
-0.508063
-0.523255
-0.53198
-0.534949
-0.533089
-0.527443
-0.51898
-0.508096
-0.493983
-0.469999
-0.43095
-0.565424
-0.69034
-0.803468
-0.902544
-0.985775
-1.05195
-1.10045
-1.13128
-1.14513
-0.381844
-0.507153
-0.623755
-0.729356
-0.821829
-0.8995
-0.961247
-1.00653
-1.03537
-1.04843
-0.315795
-0.433762
-0.544367
-0.645284
-0.73442
-0.810096
-0.871128
-0.916869
-0.947224
-0.962646
-0.247124
-0.357675
-0.462366
-0.558903
-0.645224
-0.719649
-0.780924
-0.828269
-0.8614
-0.880538
-0.184361
-0.287046
-0.385294
-0.476841
-0.559688
-0.632216
-0.693164
-0.741673
-0.777315
-0.800103
-0.130796
-0.225757
-0.317502
-0.403721
-0.482532
-0.552444
-0.612256
-0.661098
-0.698466
-0.724225
-0.0864663
-0.174292
-0.25994
-0.340862
-0.415376
-0.482188
-0.540196
-0.588571
-0.626793
-0.654647
-0.049665
-0.130622
-0.210819
-0.286843
-0.357203
-0.420831
-0.476736
-0.524153
-0.562582
-0.591781
-0.0192338
-0.0931396
-0.168456
-0.240106
-0.306655
-0.367221
-0.420928
-0.467102
-0.505299
-0.535285
-0.00244926
-0.0716561
-0.14219
-0.208645
-0.270302
-0.326572
-0.376706
-0.420176
-0.456647
-0.485937
0.541078
0.56209
0.584529
0.607535
0.630628
0.653145
0.674112
0.69294
0.715006
0.754052
0.514484
0.532742
0.552695
0.572799
0.59238
0.610707
0.626728
0.639884
0.655898
0.689699
0.480407
0.494939
0.51159
0.527875
0.542871
0.555808
0.565602
0.571826
0.580627
0.607986
0.439148
0.449096
0.461713
0.473334
0.48276
0.489211
0.491623
0.489797
0.49035
0.510142
0.391103
0.395762
0.403734
0.40995
0.412944
0.411963
0.406012
0.395215
0.386691
0.397969
0.336744
0.335614
0.338491
0.338698
0.334554
0.325384
0.310312
0.289871
0.271682
0.273689
0.27663
0.269458
0.26699
0.260751
0.24895
0.231054
0.206362
0.175883
0.147708
0.139894
0.211497
0.198306
0.190461
0.1775
0.157711
0.130795
0.09626
0.0556502
0.0174513
-0.000512156
0.142152
0.123688
0.110643
0.0906868
0.0626906
0.0266651
-0.0176658
-0.0681987
-0.116178
-0.14439
0.0670768
0.0462286
0.0284587
0.00153988
-0.0343988
-0.079233
-0.132983
-0.192917
-0.250198
-0.288674
0.394211
0.397611
0.40808
0.416349
0.422824
0.429236
0.437186
0.449048
0.467703
0.49024
0.442877
0.447566
0.459271
0.470616
0.480985
0.49156
0.503596
0.519144
0.541704
0.570592
0.481962
0.490387
0.504622
0.519417
0.533835
0.548613
0.564703
0.583818
0.609928
0.644446
0.514205
0.526689
0.543783
0.561866
0.580051
0.598758
0.618623
0.640979
0.670114
0.709377
0.539857
0.55603
0.575822
0.596834
0.618323
0.640467
0.663589
0.688628
0.720076
0.763082
0.558639
0.577898
0.599965
0.623364
0.647514
0.672388
0.69802
0.724957
0.757829
0.803459
0.570283
0.591852
0.615586
0.640672
0.666666
0.693373
0.720556
0.748404
0.781647
0.828679
0.574518
0.597489
0.622162
0.648116
0.675006
0.70249
0.73009
0.75769
0.790122
0.837261
0.571129
0.594502
0.619299
0.645224
0.671963
0.699049
0.725801
0.751861
0.782206
0.828123
0.559987
0.582711
0.606768
0.631717
0.657197
0.682635
0.707185
0.730332
0.757243
0.800546
0.349082
0.304208
0.252975
0.201184
0.149861
0.099764
0.0517257
0.00626798
-0.0362865
-0.075735
0.35365
0.305956
0.252922
0.198333
0.14421
0.091606
0.0413614
-0.00589099
-0.0497191
-0.0898598
0.357244
0.303837
0.247214
0.189813
0.133351
0.0788827
0.027286
-0.0207475
-0.0647504
-0.104462
0.359918
0.301465
0.241203
0.18089
0.122044
0.0657848
0.013032
-0.0355152
-0.0794102
-0.118447
0.36175
0.298889
0.235077
0.171865
0.110731
0.0528551
-0.000829508
-0.0496565
-0.0932419
-0.131477
0.363709
0.296668
0.229382
0.163393
0.100169
0.0408984
-0.0135172
-0.0624829
-0.105713
-0.143223
0.36745
0.296532
0.225973
0.157369
0.0921779
0.0315591
-0.0236506
-0.0729493
-0.116159
-0.153417
0.375519
0.301073
0.227394
0.156139
0.0887603
0.0263845
-0.0302115
-0.0805981
-0.124671
-0.162645
0.39001
0.311368
0.233603
0.15845
0.0874018
0.0216092
-0.0381313
-0.0913772
-0.138016
-0.178254
0.405936
0.320165
0.235203
0.152945
0.0750086
0.00270065
-0.0630276
-0.121602
-0.172827
-0.216829
-0.112041
-0.145261
-0.175635
-0.203502
-0.229257
-0.253303
-0.27593
-0.297141
-0.317436
-0.32761
-0.126263
-0.158958
-0.188189
-0.214293
-0.237649
-0.258615
-0.277378
-0.293754
-0.307389
-0.311578
-0.139876
-0.171052
-0.198315
-0.222081
-0.242815
-0.260962
-0.276824
-0.290456
-0.30181
-0.307568
-0.152719
-0.182361
-0.207822
-0.229635
-0.248373
-0.264589
-0.278717
-0.291003
-0.301482
-0.308289
-0.164592
-0.19281
-0.216725
-0.23698
-0.254242
-0.269141
-0.282186
-0.293688
-0.303642
-0.310891
-0.175392
-0.202524
-0.225337
-0.244557
-0.260896
-0.27501
-0.287415
-0.298411
-0.30796
-0.315354
-0.185235
-0.211949
-0.234361
-0.253228
-0.269258
-0.283081
-0.295173
-0.30579
-0.31489
-0.322066
-0.195105
-0.222366
-0.24526
-0.264525
-0.280833
-0.294761
-0.306731
-0.316962
-0.325443
-0.331979
-0.212639
-0.241507
-0.26566
-0.285819
-0.302637
-0.316665
-0.328292
-0.337731
-0.345029
-0.350136
-0.253894
-0.284757
-0.310087
-0.330672
-0.347259
-0.36045
-0.370652
-0.37809
-0.382887
-0.385052
-0.384394
-0.353143
-0.336576
-0.327112
-0.320004
-0.313967
-0.307857
-0.299144
-0.283977
-0.270465
-0.382515
-0.354567
-0.339599
-0.330802
-0.323896
-0.317752
-0.311535
-0.303554
-0.291678
-0.28389
-0.379692
-0.354894
-0.341525
-0.333523
-0.32712
-0.32139
-0.315748
-0.309169
-0.300827
-0.296885
-0.376487
-0.354605
-0.342753
-0.335546
-0.329687
-0.324414
-0.319285
-0.313614
-0.307076
-0.304258
-0.373515
-0.354217
-0.343731
-0.337253
-0.331902
-0.327062
-0.322408
-0.317471
-0.312107
-0.309544
-0.371349
-0.354246
-0.344916
-0.339032
-0.334071
-0.329542
-0.325206
-0.320742
-0.316088
-0.313442
-0.37054
-0.355198
-0.346761
-0.341277
-0.336521
-0.332111
-0.327877
-0.3236
-0.319268
-0.316369
-0.371632
-0.357568
-0.349716
-0.344391
-0.339613
-0.335097
-0.330734
-0.326382
-0.322063
-0.318826
-0.375151
-0.361826
-0.354209
-0.348768
-0.343708
-0.338839
-0.334113
-0.329439
-0.324869
-0.321246
-0.381498
-0.368388
-0.360639
-0.354778
-0.349151
-0.343661
-0.338322
-0.333081
-0.328007
-0.323961
-0.318772
-0.265935
-0.23455
-0.192304
-0.159439
-0.128762
-0.103854
-0.0829599
-0.0661138
-0.0527712
-0.0422465
-0.0344118
-0.0284086
-0.0237887
-0.0202383
-0.0156459
-0.0116672
-0.00620733
-0.00462489
0.000239728
-0.324355
-0.267613
-0.236177
-0.193627
-0.160566
-0.129738
-0.10458
-0.083401
-0.0662392
-0.0526433
-0.0419663
-0.0342073
-0.0284315
-0.0241885
-0.0209124
-0.0162387
-0.0119142
-0.00571843
-0.0040445
0.000369109
-0.331895
-0.270013
-0.238412
-0.195497
-0.162109
-0.13107
-0.105594
-0.0840854
-0.0665741
-0.0526977
-0.0418389
-0.0341174
-0.0285267
-0.0246112
-0.0215705
-0.0168066
-0.0121491
-0.00525583
-0.0034946
0.000482416
-0.341249
-0.273164
-0.241182
-0.197888
-0.164056
-0.132754
-0.106897
-0.0850214
-0.0671306
-0.0529478
-0.0418768
-0.0341497
-0.028695
-0.0250511
-0.0222037
-0.0173437
-0.012371
-0.0048274
-0.00298154
0.00057845
-0.352163
-0.277121
-0.244409
-0.200765
-0.166389
-0.134779
-0.108488
-0.0862123
-0.0679152
-0.0534008
-0.0420866
-0.0343071
-0.0289352
-0.0255032
-0.0228064
-0.0178477
-0.012581
-0.00443897
-0.00250848
0.000656933
-0.364245
-0.281971
-0.248005
-0.204069
-0.169072
-0.13712
-0.110355
-0.0876495
-0.0689238
-0.0540553
-0.0424677
-0.0345881
-0.0292438
-0.0259626
-0.0233742
-0.018317
-0.01278
-0.0040958
-0.00207861
0.000717564
-0.377094
-0.288021
-0.252033
-0.207808
-0.172121
-0.139786
-0.112509
-0.0893449
-0.0701674
-0.0549194
-0.0430257
-0.0349941
-0.0296185
-0.0264244
-0.0239029
-0.0187508
-0.0129707
-0.00380407
-0.00169481
0.000760418
-0.390456
-0.296213
-0.257056
-0.212334
-0.175804
-0.142983
-0.115112
-0.0914233
-0.0717397
-0.0560616
-0.0438074
-0.0355521
-0.0300707
-0.0268883
-0.0243891
-0.0191495
-0.0131594
-0.00357435
-0.00136254
0.000785661
-0.401822
-0.306731
-0.263438
-0.2179
-0.180309
-0.146856
-0.118276
-0.0939645
-0.0736934
-0.0575133
-0.0448308
-0.036275
-0.0306127
-0.0273695
-0.0248484
-0.0195245
-0.0133508
-0.00340377
-0.0010771
0.000794066
-0.40004
-0.313643
-0.268
-0.222115
-0.183764
-0.149929
-0.120843
-0.0960554
-0.075313
-0.0587225
-0.045694
-0.036915
-0.0311338
-0.0278772
-0.0253382
-0.0199074
-0.0135177
-0.00321642
-0.000782742
0.000788333
-0.374376
-0.311579
-0.267851
-0.222924
-0.184606
-0.151018
-0.121912
-0.0970031
-0.0760477
-0.0592365
-0.0460305
-0.0372353
-0.03156
-0.0285373
-0.026103
-0.0205036
-0.0137054
-0.00284214
-0.000284136
0.000761667
-0.358077
-0.306346
-0.263393
-0.220765
-0.183838
-0.151441
-0.122994
-0.0984266
-0.0775847
-0.0607351
-0.0474236
-0.0384643
-0.0326191
-0.0294084
-0.0267107
-0.0208707
-0.0137426
-0.00263467
2.11293e-05
0.000654577
-0.339038
-0.294869
-0.253711
-0.215094
-0.181082
-0.150731
-0.12356
-0.0997584
-0.0793302
-0.062624
-0.0492935
-0.0401175
-0.0339621
-0.0303406
-0.0271849
-0.0210891
-0.0137008
-0.00262201
0.00014431
0.000484719
-0.30945
-0.276018
-0.239605
-0.206432
-0.176644
-0.149171
-0.123845
-0.101178
-0.0813992
-0.0649555
-0.0516346
-0.0421629
-0.0355627
-0.0313554
-0.0275986
-0.0212493
-0.0136539
-0.00285876
8.61398e-05
0.000256897
-0.270641
-0.250337
-0.221862
-0.195049
-0.170334
-0.14654
-0.123689
-0.102588
-0.0837371
-0.0677055
-0.0544375
-0.0445984
-0.0374134
-0.0324443
-0.0279503
-0.0213651
-0.0136469
-0.00340919
-0.000195646
-1.26015e-05
-0.229096
-0.220602
-0.201687
-0.181716
-0.162319
-0.14268
-0.122843
-0.103737
-0.0861089
-0.0706668
-0.0575271
-0.0473006
-0.039436
-0.0335848
-0.028264
-0.0214724
-0.0137336
-0.00428098
-0.000708399
-0.000286463
-0.190951
-0.190683
-0.180791
-0.167604
-0.153307
-0.137806
-0.121207
-0.104383
-0.0882082
-0.0735161
-0.0605971
-0.0500356
-0.041489
-0.0347471
-0.0285962
-0.0216297
-0.0139541
-0.0053898
-0.00140206
-0.000518656
-0.159654
-0.164143
-0.161256
-0.154061
-0.144314
-0.132508
-0.118957
-0.104427
-0.0897816
-0.0759245
-0.0633018
-0.0525124
-0.0433842
-0.0358695
-0.0289874
-0.0218736
-0.0142978
-0.00655504
-0.00216789
-0.000678533
-0.136951
-0.143764
-0.145434
-0.142741
-0.1366
-0.127706
-0.116608
-0.104024
-0.0907408
-0.077663
-0.0653498
-0.0544459
-0.0449066
-0.036829
-0.0294046
-0.0221736
-0.0146887
-0.00754274
-0.00285043
-0.000765213
-0.124216
-0.131933
-0.135888
-0.135728
-0.131744
-0.124594
-0.114967
-0.103587
-0.0911794
-0.0786182
-0.0665234
-0.055577
-0.0458213
-0.0374312
-0.0297148
-0.0224095
-0.0149889
-0.00813927
-0.00327972
-0.000795787
-0.43868
-0.451308
-0.458591
-0.461051
-0.459549
-0.455386
-0.450436
-0.447317
-0.45109
-0.473623
-0.359324
-0.372725
-0.383164
-0.391148
-0.397369
-0.402664
-0.407926
-0.413875
-0.420641
-0.4337
-0.294375
-0.307411
-0.318905
-0.329048
-0.337991
-0.345814
-0.352546
-0.358324
-0.363192
-0.372849
-0.239254
-0.250828
-0.261347
-0.270856
-0.279412
-0.287112
-0.294131
-0.300781
-0.307113
-0.315589
-0.193355
-0.203386
-0.212736
-0.221441
-0.229552
-0.237127
-0.244218
-0.250876
-0.257031
-0.263405
-0.156127
-0.164725
-0.172849
-0.180505
-0.187701
-0.194448
-0.200756
-0.206645
-0.212129
-0.217309
-0.126658
-0.133959
-0.140901
-0.14748
-0.153694
-0.159545
-0.165037
-0.170179
-0.174974
-0.179375
-0.104398
-0.110646
-0.116608
-0.122275
-0.127637
-0.132691
-0.137436
-0.141871
-0.145997
-0.149786
-0.088923
-0.0943921
-0.0996213
-0.104598
-0.109313
-0.113758
-0.117932
-0.121831
-0.125457
-0.128804
-0.0805225
-0.0855001
-0.0902648
-0.0948068
-0.099119
-0.103196
-0.107035
-0.110634
-0.113994
-0.117116
-0.0142566
-0.0783728
-0.141056
-0.195744
-0.245548
-0.291065
-0.331621
-0.366811
-0.396455
-0.420427
-0.0318922
-0.0814926
-0.129029
-0.169507
-0.206135
-0.240194
-0.271163
-0.298594
-0.322402
-0.342617
-0.0428401
-0.0824722
-0.117557
-0.147331
-0.174407
-0.199737
-0.223048
-0.244087
-0.262887
-0.279596
-0.0477208
-0.0784593
-0.103295
-0.12447
-0.14438
-0.163391
-0.181192
-0.197622
-0.212719
-0.226573
-0.0470886
-0.0698574
-0.0873748
-0.10259
-0.117455
-0.132004
-0.145866
-0.158902
-0.171136
-0.182613
-0.0423355
-0.0587541
-0.0715288
-0.0830137
-0.0944979
-0.105912
-0.116941
-0.127467
-0.137499
-0.147052
-0.0360315
-0.0479515
-0.0577231
-0.0668317
-0.076001
-0.0851566
-0.0940905
-0.102716
-0.111023
-0.119008
-0.0300037
-0.0389641
-0.0468159
-0.0543461
-0.0619141
-0.0694672
-0.0768844
-0.0841052
-0.0911088
-0.0978795
-0.0252409
-0.0324152
-0.0390944
-0.0456127
-0.0521292
-0.0586145
-0.0650018
-0.071249
-0.0773318
-0.08323
-0.0224362
-0.0288129
-0.0349798
-0.0410236
-0.0470122
-0.0529347
-0.058755
-0.0644434
-0.0699789
-0.075344
0.218293
0.219259
0.221677
0.224976
0.229477
0.232811
0.235327
0.225556
0.201857
0.09703
0.209996
0.210516
0.211878
0.213444
0.215116
0.214393
0.210464
0.192405
0.155689
0.0572359
0.2001
0.200152
0.200377
0.200084
0.198854
0.19423
0.184725
0.161475
0.119969
0.0384211
0.188478
0.188016
0.187025
0.184806
0.180691
0.172546
0.158457
0.132599
0.0900465
0.0218658
0.175183
0.174204
0.172021
0.167989
0.161303
0.150349
0.133101
0.106439
0.0653661
0.00793706
0.160529
0.15908
0.155854
0.1503
0.141631
0.128779
0.109962
0.0838552
0.0464968
-0.00100694
0.145198
0.143375
0.139361
0.132718
0.122808
0.109013
0.0900628
0.0655959
0.0332026
-0.00539347
0.130351
0.128283
0.123794
0.116552
0.106132
0.0922346
0.0741522
0.0519362
0.0244687
-0.00687356
0.117723
0.115539
0.110862
0.103443
0.0930466
0.0795749
0.0627428
0.0427313
0.0191941
-0.0069258
0.109744
0.107529
0.102831
0.0954494
0.0852604
0.0722641
0.0563933
0.037853
0.0166353
-0.00657802
0.253881
0.255962
0.261568
0.270302
0.283961
0.302103
0.329233
0.364223
0.416788
0.484133
0.25137
0.253378
0.258795
0.267204
0.280371
0.297707
0.323625
0.356529
0.405486
0.466765
0.248627
0.250558
0.255766
0.263813
0.276419
0.292812
0.317304
0.347586
0.392059
0.445127
0.245665
0.247517
0.252498
0.260148
0.27213
0.287452
0.310316
0.33745
0.376651
0.419327
0.242497
0.244268
0.249007
0.256231
0.267527
0.281662
0.302707
0.326184
0.359429
0.389468
0.239138
0.24083
0.245315
0.252086
0.262638
0.275483
0.29452
0.313865
0.340573
0.355619
0.235605
0.237225
0.241449
0.247752
0.25751
0.268986
0.285835
0.300631
0.32031
0.317862
0.231917
0.233481
0.237455
0.243296
0.252244
0.262326
0.276849
0.286766
0.298957
0.276202
0.228089
0.229609
0.233338
0.238722
0.246833
0.255498
0.267528
0.272267
0.276305
0.229523
0.224108
0.225514
0.228871
0.233622
0.240599
0.247502
0.256379
0.255494
0.249945
0.176129
0.265269
0.267715
0.273826
0.283506
0.298042
0.316934
0.343331
0.371954
0.409779
0.419817
0.265229
0.267685
0.273914
0.283757
0.298677
0.318205
0.346081
0.377603
0.421436
0.447884
0.264955
0.267386
0.273624
0.283456
0.298452
0.318167
0.346706
0.380111
0.427973
0.467983
0.264448
0.266853
0.273089
0.282904
0.297954
0.31784
0.346932
0.382031
0.43336
0.484258
0.263699
0.266078
0.272301
0.282085
0.297157
0.317174
0.346688
0.383208
0.437377
0.496868
0.262701
0.265048
0.271234
0.28095
0.295977
0.316017
0.34573
0.383241
0.439447
0.505426
0.261448
0.263757
0.269878
0.279484
0.294389
0.314324
0.343996
0.382021
0.439395
0.509813
0.259938
0.2622
0.268231
0.277685
0.29239
0.312088
0.34148
0.379526
0.437152
0.509948
0.258171
0.26038
0.266294
0.275552
0.289982
0.309305
0.338179
0.375734
0.432654
0.505743
0.25615
0.258299
0.264071
0.273088
0.28717
0.305974
0.334093
0.370632
0.425863
0.497141
0.219676
0.218258
0.215236
0.210427
0.203615
0.194582
0.183022
0.168755
0.151447
0.131249
0.224672
0.223447
0.220807
0.21652
0.210286
0.201768
0.190495
0.176125
0.158055
0.136347
0.232148
0.231272
0.229339
0.226063
0.221027
0.213691
0.203308
0.189175
0.170198
0.146133
0.240226
0.239824
0.238892
0.2371
0.233943
0.228627
0.220112
0.207054
0.1877
0.160956
0.247694
0.247845
0.248118
0.248179
0.247516
0.245083
0.239654
0.228931
0.2105
0.181315
0.253905
0.254625
0.25619
0.258299
0.260548
0.261707
0.260595
0.253709
0.238279
0.207577
0.258629
0.259883
0.262708
0.266871
0.272188
0.277377
0.281594
0.280044
0.270155
0.239486
0.261913
0.263628
0.267592
0.273656
0.281944
0.291278
0.30144
0.306583
0.304676
0.275369
0.26395
0.266031
0.270957
0.27865
0.289585
0.302835
0.319023
0.33198
0.34039
0.313486
0.264996
0.267327
0.272991
0.281934
0.295028
0.311622
0.333472
0.354877
0.377318
0.360297
0.116657
0.110513
0.104214
0.0978678
0.0914573
0.0849727
0.0784303
0.0718554
0.0652718
0.0587008
0.120187
0.113334
0.106303
0.0992834
0.0922035
0.0850157
0.0777365
0.0704032
0.063049
0.0557014
0.127298
0.118931
0.110254
0.101793
0.0933787
0.0848572
0.0762264
0.0675405
0.0588451
0.0501709
0.138582
0.127872
0.116536
0.105818
0.095392
0.08489
0.0742623
0.0635908
0.0529405
0.0423422
0.15484
0.14089
0.125667
0.111733
0.0985372
0.0853324
0.0719836
0.0586215
0.0453417
0.0321686
0.177006
0.158882
0.138288
0.119993
0.103148
0.0864061
0.0695102
0.0526774
0.0360436
0.0196142
0.205999
0.182904
0.155254
0.131274
0.109718
0.0883908
0.0669429
0.04574
0.0249496
0.00453657
0.24184
0.213114
0.176802
0.14594
0.118468
0.0912634
0.0641201
0.0375963
0.0118389
-0.0132486
0.28441
0.249031
0.203396
0.165009
0.130127
0.0954528
0.0613245
0.0284118
-0.0031434
-0.0333602
0.332153
0.288242
0.234674
0.187497
0.14261
0.0985668
0.0562013
0.0160362
-0.0217228
-0.0569009
0.0521625
0.045676
0.0392595
0.0329297
0.026702
0.02059
0.0146065
0.00876233
0.00306705
-0.00246972
0.0483865
0.0411295
0.0339548
0.0268855
0.0199425
0.0131446
0.00650887
4.96405e-05
-0.00622091
-0.012268
0.0415437
0.0329892
0.0245327
0.0161976
0.00800533
-2.53002e-05
-0.00787727
-0.0155366
-0.0229929
-0.030158
0.0318158
0.0213821
0.0110631
0.000879044
-0.00915277
-0.0190179
-0.0287037
-0.0382003
-0.0475071
-0.0564914
0.0191065
0.00616402
-0.00664573
-0.0193108
-0.0318221
-0.0441736
-0.0563642
-0.0683984
-0.0803101
-0.0921413
0.00336603
-0.012713
-0.0286303
-0.0443998
-0.0600439
-0.0755885
-0.0910584
-0.106461
-0.12186
-0.137954
-0.0155559
-0.0353564
-0.0548833
-0.074164
-0.0932478
-0.11222
-0.131211
-0.150337
-0.169979
-0.191751
-0.0377692
-0.0618024
-0.0854218
-0.108685
-0.131623
-0.15425
-0.17661
-0.198796
-0.222085
-0.248655
-0.0622708
-0.089959
-0.116611
-0.142509
-0.168006
-0.193491
-0.219312
-0.245802
-0.275182
-0.306571
-0.0893756
-0.119128
-0.146336
-0.171413
-0.195034
-0.218147
-0.241852
-0.267632
-0.301127
-0.344365
-0.0156035
-0.0343668
-0.0506885
-0.0634961
-0.072124
-0.0764717
-0.0768688
-0.0739987
-0.0686414
-0.0615867
-0.0534878
-0.0448025
-0.036063
-0.0276846
-0.0204905
-0.0154935
-0.0128839
-0.0125183
-0.0100877
-0.00418713
-0.0269515
-0.0464241
-0.0620834
-0.0734098
-0.0801583
-0.0825098
-0.081037
-0.0766082
-0.0700921
-0.0622525
-0.0536575
-0.0446023
-0.0355726
-0.0268775
-0.0194977
-0.0146239
-0.0124583
-0.0128645
-0.0106522
-0.00417533
-0.0476127
-0.0678228
-0.0817947
-0.0901546
-0.0933711
-0.0921475
-0.0874831
-0.0805052
-0.0721744
-0.0631668
-0.0538733
-0.044297
-0.0348438
-0.0256292
-0.01792
-0.0131885
-0.0117165
-0.0133493
-0.0115463
-0.00412421
-0.0770109
-0.0970474
-0.107883
-0.111548
-0.109521
-0.103383
-0.0946276
-0.0845727
-0.0741902
-0.0639712
-0.0540175
-0.0439565
-0.0340873
-0.0242792
-0.0161749
-0.0115415
-0.0108104
-0.0137688
-0.0124669
-0.00397984
-0.113693
-0.131893
-0.138186
-0.135268
-0.126401
-0.114451
-0.101203
-0.0879901
-0.0756712
-0.0644366
-0.0540115
-0.0436267
-0.0334633
-0.0231375
-0.0146743
-0.0100615
-0.00991254
-0.0139446
-0.0131362
-0.00372517
-0.153808
-0.168715
-0.169579
-0.158372
-0.141793
-0.123909
-0.106352
-0.0903159
-0.0764208
-0.0644703
-0.0538014
-0.0432972
-0.0330238
-0.0223756
-0.0136782
-0.00901424
-0.00917121
-0.013812
-0.013412
-0.00338523
-0.191327
-0.203197
-0.198174
-0.177886
-0.154067
-0.130965
-0.109788
-0.0915354
-0.076504
-0.0641106
-0.0533757
-0.0429265
-0.0327255
-0.0220007
-0.0132458
-0.00849807
-0.00868341
-0.0134198
-0.0132907
-0.00300085
-0.222043
-0.232303
-0.220935
-0.192348
-0.162875
-0.135696
-0.111807
-0.0919787
-0.076176
-0.0635116
-0.0527967
-0.0425031
-0.0325023
-0.0219201
-0.0132813
-0.00845746
-0.00846613
-0.0128676
-0.0128583
-0.00261004
-0.248352
-0.255182
-0.236986
-0.202144
-0.168801
-0.138642
-0.112885
-0.0919903
-0.0756588
-0.0628069
-0.0521296
-0.0420281
-0.0322952
-0.0220099
-0.0136211
-0.00875004
-0.008467
-0.0122442
-0.0122294
-0.00223944
-0.277433
-0.271172
-0.246031
-0.207336
-0.171817
-0.139813
-0.113017
-0.0915106
-0.0748515
-0.0618662
-0.0512205
-0.0413423
-0.0319591
-0.0221525
-0.0141948
-0.00933179
-0.00867481
-0.0115722
-0.0114499
-0.00188845
-0.306021
-0.275498
-0.246847
-0.207382
-0.171809
-0.139475
-0.112535
-0.0908235
-0.0739373
-0.0607623
-0.0500452
-0.0403779
-0.0314265
-0.0223301
-0.0150491
-0.0102532
-0.00913498
-0.0109223
-0.0106012
-0.00159017
-0.319723
-0.276077
-0.245524
-0.205012
-0.169481
-0.13722
-0.11062
-0.0891987
-0.0725424
-0.0595406
-0.0489771
-0.039558
-0.030914
-0.0222608
-0.0153853
-0.0106864
-0.0093637
-0.0105173
-0.0100556
-0.00138716
-0.323224
-0.274233
-0.24293
-0.201592
-0.166386
-0.134483
-0.108445
-0.0874708
-0.0711478
-0.0583732
-0.0479785
-0.0387879
-0.0304161
-0.02216
-0.0156571
-0.0110672
-0.00957384
-0.0101284
-0.00952215
-0.00118784
-0.322427
-0.271927
-0.240489
-0.198714
-0.163935
-0.132373
-0.106792
-0.0861299
-0.070011
-0.0573619
-0.0470715
-0.0380847
-0.02999
-0.0221512
-0.0160276
-0.011518
-0.00980771
-0.00970665
-0.00895786
-0.00098902
-0.320287
-0.269771
-0.238298
-0.19633
-0.162016
-0.130749
-0.105522
-0.0850544
-0.0690324
-0.0564298
-0.0461991
-0.0374102
-0.0296118
-0.0222227
-0.0164907
-0.0120335
-0.0100613
-0.00925013
-0.00836288
-0.000791838
-0.31768
-0.267849
-0.236354
-0.194337
-0.160485
-0.129479
-0.104528
-0.0841724
-0.0681723
-0.0555612
-0.0453583
-0.0367636
-0.0292749
-0.0223563
-0.0170199
-0.012592
-0.010326
-0.00876783
-0.00774726
-0.000598597
-0.315271
-0.266272
-0.234785
-0.192802
-0.159366
-0.12857
-0.103811
-0.0834912
-0.0674435
-0.0547732
-0.044567
-0.0361583
-0.028985
-0.0225467
-0.017602
-0.0131813
-0.0105971
-0.00826663
-0.00711898
-0.000411385
-0.31373
-0.265195
-0.233739
-0.191803
-0.158698
-0.128045
-0.103387
-0.0830244
-0.0668616
-0.0540837
-0.0438426
-0.0356075
-0.0287486
-0.0227909
-0.0182272
-0.0137919
-0.0108706
-0.00775248
-0.00648477
-0.000232058
-0.313588
-0.26474
-0.233321
-0.191381
-0.158491
-0.127907
-0.103255
-0.0827775
-0.0664381
-0.0535088
-0.0432024
-0.0351242
-0.0285708
-0.0230834
-0.0188835
-0.014413
-0.0111425
-0.00723277
-0.00585274
-6.2592e-05
-0.315202
-0.264977
-0.233587
-0.19155
-0.158742
-0.128149
-0.103411
-0.0827542
-0.0661845
-0.0530653
-0.0426642
-0.0347213
-0.0284561
-0.0234183
-0.0195582
-0.0150344
-0.0114091
-0.00671486
-0.00523006
9.52561e-05
)
;

boundaryField
{
    inlet
    {
        type            freestreamPressure;
        freestreamValue uniform 0;
        supersonic      false;
        value           nonuniform List<scalar> 
40
(
0.218293
0.209996
0.2001
0.188478
0.175183
0.160529
0.145198
0.130351
0.117723
0.109744
0.253881
0.25137
0.248627
0.245665
0.242497
0.239138
0.235605
0.231917
0.228089
0.224108
0.265269
0.265229
0.264955
0.264448
0.263699
0.262701
0.261448
0.259938
0.258171
0.25615
0.219676
0.224672
0.232148
0.240226
0.247694
0.253905
0.258629
0.261913
0.26395
0.264996
)
;
    }
    outlet
    {
        type            freestreamPressure;
        freestreamValue uniform 0;
        supersonic      false;
        value           nonuniform List<scalar> 
40
(
6.07866e-09
1.91976e-09
2.72101e-10
1.66751e-13
-1.90291e-12
-6.64653e-11
-5.60394e-11
-5.31755e-12
-2.95571e-12
-1.87617e-12
4.09445e-08
5.25234e-08
5.60635e-08
5.37621e-08
4.77695e-08
3.98881e-08
3.15283e-08
2.36645e-08
1.68873e-08
1.14809e-08
-6.67706e-07
-5.67362e-07
-4.67658e-07
-3.70015e-07
-2.77688e-07
-1.93948e-07
-1.21284e-07
-6.1261e-08
-1.45491e-08
1.91544e-08
-1.6573e-08
-1.45391e-07
-3.79476e-07
-6.65642e-07
-9.23637e-07
-1.088e-06
-1.13564e-06
-1.08245e-06
-9.63786e-07
-8.10652e-07
)
;
    }
    top
    {
        type            symmetryPlane;
    }
    bottom
    {
        type            symmetryPlane;
    }
    cylinder
    {
        type            zeroGradient;
    }
    frontandback
    {
        type            empty;
    }
}


// ************************************************************************* //
