/*--------------------------------*- C++ -*----------------------------------*\
| =========                 |                                                 |
| \\      /  F ield         | OpenFOAM: The Open Source CFD Toolbox           |
|  \\    /   O peration     | Version:  v1912                                 |
|   \\  /    A nd           | Website:  www.openfoam.com                      |
|    \\/     M anipulation  |                                                 |
\*---------------------------------------------------------------------------*/
FoamFile
{
    version     2.0;
    format      ascii;
    class       surfaceScalarField;
    location    "8";
    object      phi;
}
// * * * * * * * * * * * * * * * * * * * * * * * * * * * * * * * * * * * * * //

dimensions      [0 3 -1 0 0 0 0];
oriented        oriented;


internalField   nonuniform List<scalar> 
18940
(
0.000190048
-0.236928
0.236738
0.000786244
-0.220386
0.219789
0.00169496
-0.208388
0.207479
0.00279975
-0.199152
0.198047
0.00402148
-0.19151
0.190289
0.00529656
-0.184714
0.183439
0.00657828
-0.178346
0.177065
0.00783553
-0.172197
0.17094
0.0090496
-0.166175
0.164961
0.010211
-0.160255
0.159094
0.011317
-0.154447
0.153341
0.0123694
-0.148775
0.147723
0.0133728
-0.143266
0.142262
0.0143339
-0.137942
0.136981
0.0152604
-0.132821
0.131895
0.0161605
-0.127911
0.127011
0.0170421
-0.123209
0.122327
0.0179119
-0.118704
0.117835
0.0187747
-0.114375
0.113512
-0.110191
0.109333
0.019632
0.000210392
-0.237138
0.000826878
-0.221002
0.00174517
-0.209306
0.00286065
-0.200268
0.00408852
-0.192738
0.00536462
-0.18599
0.00664287
-0.179625
0.00789292
-0.173447
0.00909696
-0.167379
0.0102465
-0.161404
0.0113395
-0.15554
0.0123784
-0.149814
0.0133686
-0.144256
0.0143172
-0.138891
0.015232
-0.133736
0.0161217
-0.1288
0.0169944
-0.124082
0.0178576
-0.119568
0.0187165
-0.115234
-0.111048
0.0195733
0.000229671
-0.237368
0.000862129
-0.221635
0.00179156
-0.210236
0.00291552
-0.201391
0.00414767
-0.19397
0.00542292
-0.187265
0.00669565
-0.180897
0.0079364
-0.174688
0.00912835
-0.168571
0.010264
-0.16254
0.0113422
-0.156618
0.0123661
-0.150838
0.0133416
-0.145231
0.0142761
-0.139825
0.0151779
-0.134638
0.0160558
-0.129678
0.0169185
-0.124944
0.0177737
-0.120423
0.0186273
-0.116088
-0.111903
0.0194825
0.000241757
-0.237609
0.000889536
-0.222282
0.00183165
-0.211178
0.00296351
-0.202523
0.00419825
-0.195205
0.00547069
-0.188538
0.00673579
-0.182162
0.00796513
-0.175917
0.00914297
-0.169749
0.0102628
-0.16366
0.0113245
-0.15768
0.0123318
-0.151845
0.0132911
-0.146191
0.0142101
-0.140744
0.0150976
-0.135525
0.0159625
-0.130543
0.0168138
-0.125796
0.0176599
-0.121269
0.0185073
-0.116935
-0.112755
0.0193598
0.000251739
-0.237861
0.000913214
-0.222944
0.00186671
-0.212131
0.00300495
-0.203662
0.00424033
-0.19644
0.0055078
-0.189805
0.00676311
-0.183418
0.00797887
-0.177133
0.00914054
-0.17091
0.0102427
-0.164762
0.011286
-0.158723
0.012275
-0.152834
0.0132166
-0.147132
0.0141188
-0.141647
0.0149906
-0.136397
0.0158412
-0.131394
0.01668
-0.126635
0.0175157
-0.122105
0.0183558
-0.117775
-0.113604
0.0192049
0.000260043
-0.238121
0.000933568
-0.223617
0.00189691
-0.213095
0.0030398
-0.204804
0.00427378
-0.197674
0.00553409
-0.191066
0.00677734
-0.184661
0.00797734
-0.178333
0.00912074
-0.172054
0.0102032
-0.165845
0.0112264
-0.159747
0.0121954
-0.153804
0.0131177
-0.148055
0.0140017
-0.142531
0.0148564
-0.137252
0.0156914
-0.132229
0.0165163
-0.127459
0.0173405
-0.122929
0.0181721
-0.118607
-0.114449
0.0190169
0.000267276
-0.238388
0.000951303
-0.224301
0.00192271
-0.214066
0.00306827
-0.20595
0.00429868
-0.198905
0.00554954
-0.192316
0.00677844
-0.18589
0.00796043
-0.179515
0.00908342
-0.173177
0.0101442
-0.166905
0.0111453
-0.160748
0.0120927
-0.154751
0.0129941
-0.148956
0.0138583
-0.143395
0.0146944
-0.138088
0.0155123
-0.133047
0.0163219
-0.128269
0.0171331
-0.12374
0.017955
-0.119429
-0.115288
0.0187942
0.000273594
-0.238662
0.000966668
-0.224994
0.00194435
-0.215044
0.00309054
-0.207096
0.00431513
-0.200129
0.00555419
-0.193555
0.0067664
-0.187102
0.0079281
-0.180677
0.00902851
-0.174277
0.0100656
-0.167942
0.0110427
-0.161725
0.0119666
-0.155675
0.0128453
-0.149835
0.013688
-0.144237
0.014504
-0.138904
0.015303
-0.133846
0.0160956
-0.129062
0.0168921
-0.124537
0.0177026
-0.120239
-0.116121
0.0185349
0.000279095
-0.238941
0.000979873
-0.225695
0.00196209
-0.216026
0.00310683
-0.208241
0.00432333
-0.201346
0.00554823
-0.19478
0.00674138
-0.188295
0.0078805
-0.181816
0.00895611
-0.175353
0.0099673
-0.168954
0.0109185
-0.162676
0.0118168
-0.156573
0.0126711
-0.150689
0.0134904
-0.145057
0.0142843
-0.139698
0.0150626
-0.134624
0.0158361
-0.129835
0.0166159
-0.125316
0.0174128
-0.121036
-0.116944
0.0182363
0.000283833
-0.239225
0.000991104
-0.226402
0.0019762
-0.217011
0.00311744
-0.209382
0.00432356
-0.202552
0.00553194
-0.195989
0.00670369
-0.189467
0.00781793
-0.18293
0.0088665
-0.176401
0.00984967
-0.169937
0.0107727
-0.163599
0.0116436
-0.157444
0.0124712
-0.151517
0.0132651
-0.145851
0.0140348
-0.140468
0.0147901
-0.135379
0.015542
-0.130587
0.0163023
-0.126077
0.0170832
-0.121817
-0.117756
0.0178955
0.000287884
-0.239513
0.00100059
-0.227115
0.001987
-0.217998
0.00312273
-0.210518
0.00431623
-0.203746
0.00550578
-0.197178
0.0066538
-0.190615
0.00774086
-0.184017
0.00876017
-0.177421
0.0097131
-0.17089
0.0106058
-0.164492
0.0114469
-0.158285
0.0122458
-0.152316
0.0130119
-0.146617
0.0137548
-0.14121
0.0144844
-0.136109
0.0152118
-0.131314
0.0159494
-0.126814
0.0167107
-0.122578
-0.118554
0.0175086
0.000291368
-0.239804
0.00100865
-0.227832
0.00199491
-0.218984
0.00312319
-0.211646
0.00430189
-0.204924
0.00547033
-0.198347
0.00659236
-0.191737
0.00765003
-0.185075
0.00863786
-0.178408
0.00955836
-0.17181
0.0104186
-0.165352
0.0112276
-0.159094
0.0119952
-0.153083
0.0127309
-0.147352
0.0134442
-0.141924
0.014145
-0.13681
0.0148441
-0.132014
0.015555
-0.127525
0.0162925
-0.123316
-0.119334
0.0170718
0.00029452
-0.240099
0.00101574
-0.228554
0.0020005
-0.219969
0.00311944
-0.212765
0.00428123
-0.206086
0.00542638
-0.199492
0.00652028
-0.192831
0.00754641
-0.186101
0.00850065
-0.179363
0.00938655
-0.172696
0.0102119
-0.166177
0.0109865
-0.159869
0.0117202
-0.153817
0.0124227
-0.148055
0.0131032
-0.142604
0.0137714
-0.137478
0.0144381
-0.13268
0.0151172
-0.128204
0.0158255
-0.124024
-0.120089
0.0165806
0.000297765
-0.240397
0.00102257
-0.229278
0.0020045
-0.22095
0.00311225
-0.213873
0.00425508
-0.207229
0.0053749
-0.200612
0.00643863
-0.193895
0.00743127
-0.187093
0.00834994
-0.180281
0.00919922
-0.173545
0.00998764
-0.166966
0.0107253
-0.160606
0.0114224
-0.154514
0.0120885
-0.148721
0.0127327
-0.143248
0.0133639
-0.138109
0.0139931
-0.133309
0.0146342
-0.128845
0.0153059
-0.124696
-0.120812
0.0160292
0.00030185
-0.240698
0.00103013
-0.230007
0.00200782
-0.221928
0.0031025
-0.214968
0.00422441
-0.208351
0.00531698
-0.201704
0.00634874
-0.194926
0.00730614
-0.188051
0.00818754
-0.181163
0.00899844
-0.174356
0.00974796
-0.167715
0.0104465
-0.161305
0.0111043
-0.155172
0.0117309
-0.149348
0.0123346
-0.143852
0.012924
-0.138699
0.0135092
-0.133895
0.0141043
-0.129441
0.0147295
-0.125321
-0.121493
0.0154108
0.000307852
-0.241006
0.00103957
-0.230738
0.00201133
-0.2229
0.00309105
-0.216047
0.00419022
-0.20945
0.00525385
-0.202768
0.00625207
-0.195925
0.00717281
-0.188972
0.00801562
-0.182005
0.00878679
-0.175127
0.00949592
-0.168424
0.0101536
-0.161963
0.01077
-0.155788
0.011354
-0.149932
0.0119135
-0.144412
0.012456
-0.139241
0.0129903
-0.134429
0.0135299
-0.12998
0.0140966
-0.125887
-0.122121
0.0147237
0.000317086
-0.241323
0.00105199
-0.231473
0.00201598
-0.223864
0.00307893
-0.21711
0.0041537
-0.210525
0.00518685
-0.203801
0.00615022
-0.196888
0.00703324
-0.189855
0.00783657
-0.182809
0.00856721
-0.175858
0.00923511
-0.169092
0.00985081
-0.162578
0.0104242
-0.156362
0.0109636
-0.150471
0.0114761
-0.144924
0.0119677
-0.139733
0.0124455
-0.134907
0.0129211
-0.130456
0.0134175
-0.126384
-0.122676
0.0139725
0.000331864
-0.241655
0.00106985
-0.232211
0.00202396
-0.224818
0.00306779
-0.218154
0.0041161
-0.211573
0.0051172
-0.204802
0.00604466
-0.197815
0.00688935
-0.190699
0.00765295
-0.183572
0.00834305
-0.176548
0.0089697
-0.169719
0.00954319
-0.163152
0.0100728
-0.156891
0.0105659
-0.150964
0.0110285
-0.145387
0.011465
-0.140169
0.0118806
-0.135322
0.0122831
-0.130858
0.0126909
-0.126792
-0.123124
0.0131396
0.000359857
-0.242015
0.00110053
-0.232952
0.00203917
-0.225757
0.00305901
-0.219174
0.00407799
-0.212592
0.00504551
-0.20577
0.00593638
-0.198706
0.00674276
-0.191506
0.00746725
-0.184297
0.00811795
-0.177199
0.0087049
-0.170306
0.00923784
-0.163685
0.00972488
-0.157378
0.0101718
-0.151411
0.0105817
-0.145797
0.0109561
-0.140544
0.011295
-0.135661
0.0115969
-0.13116
0.0118705
-0.127065
-0.123438
0.0121839
0.000420903
-0.242436
0.00115364
-0.233685
0.0020607
-0.226664
0.00305066
-0.220164
0.00403815
-0.21358
0.00497133
-0.206703
0.00582567
-0.199561
0.00659448
-0.192274
0.00728142
-0.184984
0.00789521
-0.177813
0.00844609
-0.170857
0.00894352
-0.164182
0.00939463
-0.157829
0.00980325
-0.15182
0.0101691
-0.146162
0.0104865
-0.140861
0.0107422
-0.135917
0.0109132
-0.131331
0.0109845
-0.127136
-0.123565
0.0111119
0.248016
0.000327973
-0.248344
0.247717
0.000299354
0.247427
0.000289345
0.24714
0.000287272
0.246852
0.000288498
0.246561
0.000290981
0.246267
0.000294091
0.245969
0.000297293
0.245669
0.000300192
0.245367
0.000302569
0.245062
0.00030431
0.244757
0.00030537
0.244451
0.000305715
0.244146
0.000305298
0.243842
0.000303969
0.24354
0.000301488
0.243244
0.000296777
0.242954
0.000289237
0.242685
0.000269715
0.000248769
0.245329
0.000789106
-0.245791
0.244842
0.000786692
0.244334
0.000797533
0.243806
0.000815091
0.24326
0.000834873
0.242696
0.000854554
0.242116
0.000873745
0.241522
0.00089196
0.240913
0.000908726
0.240292
0.000923733
0.23966
0.000936814
0.239017
0.000947878
0.238366
0.000956854
0.237708
0.000963668
0.237043
0.000968105
0.236375
0.00096989
0.235704
0.000967825
0.235032
0.000961524
0.234357
0.000944107
0.000921382
0.240588
0.00121362
-0.241013
0.240108
0.00126676
0.239586
0.00131968
0.239027
0.00137436
0.238433
0.00142883
0.237806
0.00148091
0.23715
0.00153024
0.236465
0.00157659
0.235754
0.00161963
0.235019
0.00165909
0.234261
0.00169483
0.233482
0.00172677
0.232684
0.00175486
0.231869
0.00177908
0.231037
0.00179931
0.230192
0.00181542
0.229333
0.00182677
0.228461
0.00183342
0.227572
0.00183297
0.00182975
0.234051
0.00154896
-0.234386
0.233659
0.00165851
0.233216
0.00176292
0.232726
0.00186455
0.232191
0.0019634
0.231614
0.00205782
0.230997
0.00214739
0.230342
0.00223189
0.22965
0.00231106
0.228925
0.00238468
0.228167
0.00245261
0.227379
0.0025148
0.226563
0.00257128
0.22572
0.00262211
0.224852
0.00266735
0.22396
0.00270714
0.223045
0.00274139
0.222108
0.00277052
0.221147
0.00279387
0.00281308
0.226222
0.0017678
-0.226441
0.225947
0.00193394
0.225617
0.00209297
0.225235
0.0022464
0.224803
0.00239483
0.224324
0.00253708
0.223799
0.00267271
0.223229
0.0028014
0.222618
0.00292289
0.221965
0.00303694
0.221274
0.00314345
0.220547
0.00324236
0.219784
0.00333376
0.218989
0.00341782
0.218161
0.00349478
0.217303
0.00356503
0.216416
0.00362887
0.215499
0.00368699
0.214554
0.00373944
0.00378745
0.21763
0.00187427
-0.217736
0.217467
0.00209636
0.21725
0.00231033
0.216979
0.00251699
0.216657
0.00271689
0.216285
0.00290912
0.215865
0.00309321
0.215397
0.00326877
0.214885
0.00343548
0.214328
0.00359309
0.21373
0.00374144
0.213092
0.00388051
0.212416
0.00401042
0.211702
0.00413142
0.210953
0.00424393
0.210169
0.00434856
0.209352
0.00444595
0.208502
0.00453707
0.207619
0.00462253
0.00470373
0.208744
0.00188856
-0.208758
0.208675
0.00216491
0.208553
0.00243249
0.208378
0.00269161
0.208153
0.00294261
0.207877
0.00318467
0.207553
0.00341731
0.207182
0.00364005
0.206765
0.0038525
0.206303
0.00405434
0.205799
0.0042454
0.205254
0.00442562
0.20467
0.00459515
0.204047
0.00475432
0.203387
0.00490369
0.202691
0.0050441
0.201961
0.00517651
0.201196
0.00530227
0.200396
0.00542246
0.00553873
0.199918
0.00183534
-0.199865
0.19992
0.00216356
0.19987
0.00248251
0.199769
0.00279217
0.199619
0.00309261
0.199421
0.00338304
0.199175
0.00366292
0.198884
0.00393169
0.198547
0.00418885
0.198167
0.00443405
0.197746
0.00466702
0.197284
0.00488769
0.196783
0.00509618
0.196244
0.0052929
0.195669
0.00547854
0.195059
0.00565414
0.194415
0.00582104
0.193736
0.005981
0.193023
0.00613567
0.00628706
0.191388
0.00173764
-0.19129
0.191436
0.00211518
0.191436
0.00248299
0.191387
0.00284082
0.191291
0.0031885
0.191149
0.00352522
0.190962
0.00385036
0.19073
0.00416324
0.190456
0.00446331
0.19014
0.00475009
0.189784
0.00502324
0.189389
0.00528261
0.188956
0.00552832
0.188489
0.00576076
0.187986
0.00598075
0.187451
0.00618956
0.186883
0.00638891
0.186283
0.00658107
0.18565
0.0067684
0.00695351
0.18329
0.00161459
-0.183167
0.183366
0.00203904
0.183396
0.00245328
0.18338
0.00285691
0.183319
0.00324955
0.183213
0.00363035
0.183065
0.00399856
0.182875
0.00435343
0.182644
0.00469427
0.182374
0.00502051
0.182065
0.00533168
0.18172
0.00562755
0.181341
0.00590813
0.180927
0.00617381
0.180483
0.00642548
0.180008
0.00666457
0.179503
0.00689329
0.17897
0.00711445
0.178407
0.00733143
0.00754773
0.17569
0.00148084
-0.175556
0.175779
0.00195005
0.175824
0.0024086
0.175825
0.00285591
0.175783
0.00329143
0.175699
0.00371422
0.175574
0.00412345
0.175409
0.00451823
0.175206
0.00489776
0.174965
0.00526132
0.174688
0.00560833
0.174378
0.00593837
0.174034
0.00625134
0.173661
0.00654751
0.173258
0.00682778
0.172829
0.00709372
0.172375
0.007348
0.171895
0.00759407
0.17139
0.00783671
0.00808064
0.168607
0.00134674
-0.168473
0.168698
0.00185898
0.168746
0.00236011
0.168753
0.00284934
0.168719
0.00332597
0.168644
0.003789
0.16853
0.00423744
0.168378
0.00467032
0.168189
0.00508668
0.167964
0.00548567
0.167706
0.00586649
0.167416
0.00622854
0.167096
0.00657151
0.166748
0.00689546
0.166375
0.0072012
0.165978
0.00749026
0.16556
0.00776583
0.165122
0.0080319
0.164664
0.00829532
0.00856225
0.162029
0.00121919
-0.161901
0.162115
0.00177323
0.162159
0.00231558
0.162163
0.00284533
0.162128
0.00336167
0.162053
0.00386349
0.161941
0.0043497
0.161792
0.00481919
0.161608
0.00527085
0.16139
0.00570365
0.16114
0.00611659
0.160859
0.0065088
0.160551
0.00687966
0.160218
0.00722892
0.159862
0.00755711
0.159487
0.00786549
0.159095
0.00815776
0.158689
0.00843809
0.158267
0.0087165
0.00900031
0.155928
0.00110255
-0.155811
0.156003
0.00169739
0.156039
0.00227995
0.156035
0.00284921
0.155993
0.00340421
0.155912
0.00394373
0.155796
0.00446657
0.155643
0.0049715
0.155457
0.00545726
0.155238
0.00592262
0.154988
0.00636632
0.15471
0.0067872
0.154405
0.00718424
0.154077
0.00755668
0.15373
0.00790459
0.153367
0.0082286
0.152992
0.00853275
0.152609
0.00882061
0.152219
0.00910716
0.00939928
0.150267
0.000999244
-0.150164
0.15033
0.00163426
0.150354
0.00225627
0.150339
0.00286426
0.150286
0.00345709
0.150196
0.00403347
0.150071
0.00459208
0.149911
0.00513155
0.149718
0.00565049
0.149493
0.00614744
0.149238
0.00662089
0.148956
0.00706932
0.148649
0.00749122
0.148321
0.00788518
0.147975
0.00825052
0.147617
0.00858672
0.147251
0.00889786
0.146887
0.00918527
0.146522
0.00947171
0.00975902
0.145008
0.000910453
-0.14492
0.145058
0.00158506
0.145068
0.00224598
0.14504
0.00289207
0.144975
0.0035221
0.144874
0.00413466
0.144738
0.00472834
0.144568
0.00530164
0.144365
0.00585301
0.144132
0.0063808
0.143869
0.00688323
0.14358
0.00735839
0.143267
0.00780422
0.142934
0.00821852
0.142585
0.00859954
0.142227
0.00894499
0.141866
0.00925841
0.141515
0.00953622
0.141174
0.00981258
0.0100723
0.140113
0.000836233
-0.140039
0.140148
0.00154994
0.140145
0.0022493
0.140104
0.00293297
0.140027
0.0035996
0.139914
0.00424771
0.139766
0.00487578
0.139586
0.00548222
0.139373
0.00606533
0.139131
0.00662326
0.13886
0.007154
0.138563
0.00765525
0.138243
0.0081244
0.137903
0.00855833
0.137549
0.00895389
0.137188
0.00930639
0.136828
0.00961782
0.136488
0.00987622
0.136168
0.0101326
0.0103234
0.135547
0.000775439
-0.135486
0.135569
0.0015281
0.135553
0.00226533
0.1355
0.00298596
0.135411
0.00368849
0.135287
0.00437137
0.13513
0.00503302
0.134941
0.00567174
0.13472
0.00628573
0.13447
0.00687298
0.134193
0.00743126
0.13389
0.00795795
0.133565
0.00844991
0.13322
0.00890312
0.132861
0.00931287
0.132496
0.00967126
0.132137
0.00997721
0.131808
0.010205
0.131506
0.0104351
0.010498
0.131277
0.000726984
-0.131228
0.131287
0.00151766
0.131261
0.00229187
0.131198
0.00304846
0.131101
0.00378582
0.13097
0.0045023
0.130807
0.0051963
0.130612
0.00586605
0.130388
0.00650965
0.130136
0.00712497
0.129858
0.00770963
0.129555
0.00826078
0.12923
0.00877487
0.128886
0.00924711
0.128528
0.00967149
0.128163
0.0100363
0.127803
0.0103364
0.127488
0.01052
0.127217
0.0107065
0.0105784
0.127272
-0.127234
0.000689313
0.127274
0.00151551
0.12724
0.00232551
0.127172
0.00311643
0.127071
0.00388684
0.126938
0.00463507
0.126775
0.00535951
0.126583
0.00605832
0.126363
0.00672952
0.126117
0.00737095
0.125846
0.00798012
0.125553
0.00855406
0.125239
0.00908906
0.124906
0.00957978
0.124558
0.0100197
0.124201
0.0103937
0.123843
0.0106946
0.123525
0.010838
0.123287
0.0109437
0.0103006
0.250587
6.73359e-05
-0.250654
0.250562
2.46958e-05
0.250547
1.5166e-05
0.250528
1.8914e-05
0.250499
2.87716e-05
0.250457
4.19251e-05
0.2504
5.71796e-05
0.250326
7.35545e-05
0.250236
9.02607e-05
0.250129
0.000107073
0.250005
0.000123622
0.249866
0.000139255
0.249712
0.00015391
0.249545
0.000167673
0.249364
0.000180379
0.249172
0.000191845
0.248971
0.000201692
0.248761
0.000209853
0.248551
0.000209333
0.000207319
0.247659
-0.000191272
-0.2474
0.24787
-0.000186484
0.248048
-0.000163124
0.248193
-0.000126473
0.248305
-8.27229e-05
0.248382
-3.51018e-05
0.248424
1.5266e-05
0.24843
6.71456e-05
0.248401
0.00011978
0.248333
0.000174376
0.248229
0.000228023
0.248089
0.000279701
0.247913
0.000329726
0.247702
0.000378079
0.247459
0.000424116
0.247184
0.000466801
0.24688
0.000505873
0.246543
0.000545931
0.246179
0.00057403
0.000595484
0.240392
-0.000719414
-0.239864
0.240859
-0.000653611
0.241275
-0.000578833
0.241643
-0.000494375
0.241963
-0.000403105
0.242236
-0.00030767
0.24246
-0.000209014
0.242636
-0.000108835
0.242768
-1.28156e-05
0.242847
9.55902e-05
0.242876
0.000199096
0.242858
0.000297943
0.242791
0.000396156
0.242677
0.00049241
0.242515
0.000585753
0.242307
0.000675706
0.242051
0.000761775
0.241752
0.000844223
0.241407
0.000919322
0.000990012
0.230756
-0.00145164
-0.230024
0.231431
-0.00132851
0.232052
-0.00119928
0.23262
-0.00106255
0.233136
-0.000919137
0.233599
-0.000771038
0.23401
-0.000619534
0.234367
-0.000465941
0.234665
-0.000311343
0.234914
-0.000153015
0.235102
1.14522e-05
0.23524
0.000159385
0.235323
0.000313126
0.235351
0.000464244
0.235325
0.000612333
0.235244
0.00075679
0.235109
0.000896704
0.234921
0.00103177
0.23468
0.00116073
0.00128358
0.220125
-0.0023274
-0.219249
0.220948
-0.00215226
0.22172
-0.00197078
0.222439
-0.00178212
0.223107
-0.00158636
0.223721
-0.00138497
0.22428
-0.00117921
0.224784
-0.000970053
0.225231
-0.000758468
0.225623
-0.000544663
0.225964
-0.00032981
0.226243
-0.000119722
0.226467
8.98323e-05
0.226634
0.000296984
0.226743
0.000503253
0.226795
0.000704544
0.226791
0.000901011
0.22673
0.00109235
0.226614
0.0012776
0.00145612
0.209355
-0.00329462
-0.208388
0.210275
-0.00307213
0.211146
-0.00284177
0.211967
-0.00260335
0.212738
-0.00235692
0.213457
-0.00210371
0.214122
-0.00184499
0.214734
-0.00158196
0.215292
-0.00131586
0.215795
-0.00104775
0.216244
-0.000778703
0.216634
-0.000510452
0.216968
-0.000243508
0.21725
1.43246e-05
0.217473
0.000281095
0.217638
0.000538742
0.217747
0.000791908
0.2178
0.00103977
0.217796
0.00128145
0.00151629
0.198964
-0.00431256
-0.197946
0.199938
-0.00404645
0.200867
-0.00377048
0.201748
-0.00348493
0.202582
-0.00319009
0.203365
-0.00288722
0.204098
-0.00257777
0.204779
-0.00226315
0.205408
-0.00194475
0.205984
-0.00162386
0.206507
-0.00130154
0.206976
-0.000979374
0.207391
-0.000658603
0.207746
-0.000340452
0.208055
-2.82917e-05
0.208306
0.000288013
0.208501
0.000596519
0.208642
0.000899308
0.208727
0.00119594
0.00148562
0.189219
-0.00535193
-0.18818
0.190218
-0.00504519
0.191174
-0.00472638
0.192085
-0.00439605
0.19295
-0.00405489
0.193767
-0.00370441
0.194535
-0.00334629
0.195254
-0.00298217
0.195923
-0.0026136
0.196541
-0.00224202
0.197108
-0.00186868
0.197624
-0.00149507
0.198088
-0.00112226
0.198499
-0.000751358
0.198854
-0.000383129
0.199165
-2.32301e-05
0.199418
0.000342858
0.19962
0.000697884
0.199769
0.00104706
0.00138928
0.180225
-0.00639337
-0.179183
0.181228
-0.00604842
0.182191
-0.00568893
0.18311
-0.00531564
0.183985
-0.00492976
0.184814
-0.00453324
0.185596
-0.00412808
0.18633
-0.00371619
0.187016
-0.00329929
0.187652
-0.00287899
0.18824
-0.00245667
0.188779
-0.00203371
0.189268
-0.00161125
0.189707
-0.00119046
0.190096
-0.000772402
0.190432
-0.000358404
0.190724
5.0513e-05
0.190963
0.000459304
0.191151
0.000858175
0.00125041
0.171988
-0.00742535
-0.170956
0.172984
-0.00704421
0.17394
-0.00664567
0.174855
-0.00623057
0.175727
-0.00580096
0.176553
-0.00535941
0.177333
-0.00490832
0.178067
-0.0044499
0.178754
-0.00398611
0.179393
-0.00351866
0.179986
-0.00304901
0.18053
-0.00257854
0.181028
-0.00210842
0.181477
-0.00163981
0.181878
-0.0011737
0.182231
-0.000711216
0.182535
-0.000253663
0.182794
0.000200003
0.183004
0.000648177
0.00108802
0.164463
-0.00844202
-0.163446
0.165445
-0.00802669
0.16639
-0.00759019
0.167293
-0.00713378
0.168153
-0.00666079
0.168968
-0.00617463
0.169738
-0.00567817
0.170462
-0.00517397
0.17114
-0.00466423
0.171772
-0.00415074
0.172358
-0.00363503
0.172898
-0.00311844
0.173392
-0.00260217
0.173839
-0.00208733
0.17424
-0.00157494
0.174595
-0.00106602
0.174903
-0.000561458
0.175167
-6.43088e-05
0.175385
0.000430773
0.000916394
0.157581
-0.00944169
-0.156581
0.158549
-0.00899439
0.159479
-0.00852054
0.160368
-0.00802256
0.161213
-0.00750588
0.162013
-0.0069749
0.162768
-0.00643306
0.163478
-0.00588333
0.164141
-0.0053281
0.16476
-0.00476927
0.165333
-0.00420834
0.165861
-0.00364664
0.166345
-0.00308531
0.166783
-0.00252546
0.167176
-0.00196811
0.167524
-0.00141428
0.167828
-0.000865087
0.168086
-0.000322248
0.168302
0.000214293
0.000745735
0.151271
-0.0104256
-0.150287
0.152226
-0.00994929
0.153143
-0.0094379
0.154018
-0.00889717
0.154847
-0.00833569
0.155631
-0.00775896
0.15637
-0.00717111
0.157062
-0.00657557
0.157709
-0.00597493
0.15831
-0.00537106
0.158867
-0.00476543
0.15938
-0.00415927
0.159848
-0.00355368
0.160273
-0.00294971
0.160653
-0.00234838
0.160989
-0.00175074
0.161282
-0.00115765
0.16153
-0.000570046
0.161739
5.40856e-06
0.00058308
0.145464
-0.0113975
-0.144492
0.146411
-0.0108961
0.147318
-0.0103456
0.148181
-0.00975961
0.148996
-0.00915113
0.149764
-0.00852682
0.150485
-0.00789165
0.151159
-0.00724959
0.151787
-0.00660329
0.15237
-0.00595448
0.15291
-0.00530447
0.153405
-0.00465435
0.153856
-0.00400509
0.154264
-0.00335768
0.154629
-0.00271309
0.15495
-0.00207238
0.155229
-0.00143654
0.155466
-0.000807087
0.155658
-0.000186167
0.000429875
0.140103
-0.0123635
-0.139137
0.141048
-0.0118418
0.141951
-0.0112481
0.142803
-0.0106122
0.143605
-0.00995304
0.144357
-0.00927825
0.145059
-0.00859394
0.145714
-0.00790446
0.146323
-0.0072122
0.146887
-0.00651858
0.147407
-0.00582457
0.147884
-0.00513099
0.148317
-0.00443863
0.148708
-0.00374837
0.149056
-0.00306114
0.149362
-0.00237798
0.149625
-0.00169999
0.149846
-0.00102844
0.150025
-0.000364803
0.000290915
0.135142
-0.0133342
-0.134171
0.136094
-0.0127945
0.136995
-0.0121487
0.137838
-0.0114559
0.138626
-0.0107405
0.139359
-0.0100115
0.140042
-0.00927632
0.140676
-0.00853886
0.141265
-0.00780082
0.141809
-0.0070629
0.14231
-0.00632554
0.142768
-0.00558917
0.143184
-0.00485434
0.143557
-0.00412181
0.143888
-0.00339244
0.144178
-0.00266728
0.144425
-0.00194749
0.144631
-0.00123423
0.144795
-0.000529099
0.000166642
0.130545
-0.0143307
-0.129549
0.131513
-0.0137621
0.132411
-0.0130472
0.133243
-0.0122879
0.134012
-0.0115095
0.134724
-0.0107231
0.135384
-0.00993638
0.135997
-0.00915157
0.136565
-0.00836878
0.13709
-0.0075877
0.137572
-0.00680803
0.138013
-0.00602972
0.138411
-0.00525309
0.138768
-0.00447878
0.139084
-0.00370768
0.139357
-0.00294086
0.139589
-0.00217952
0.13978
-0.00142495
0.139929
-0.000678592
5.6877e-05
0.126283
-0.0153974
-0.125216
0.127271
-0.0147507
0.128161
-0.0139367
0.128974
-0.013101
0.129718
-0.0122541
0.130404
-0.0114092
0.13104
-0.0105726
0.131632
-0.00974267
0.13218
-0.00891718
0.132687
-0.00809456
0.133153
-0.00727375
0.133577
-0.0064543
0.13396
-0.00563637
0.134302
-0.00482062
0.134603
-0.00400801
0.134861
-0.00319969
0.135079
-0.00239698
0.135255
-0.00160136
0.135391
-0.000814395
-3.82614e-05
0.12234
-0.0165747
-0.121163
0.12333
-0.0157404
0.124194
-0.014801
0.124977
-0.0138846
0.125693
-0.0129699
0.126354
-0.0120695
0.126968
-0.0111867
0.12754
-0.0103149
0.128072
-0.00944897
0.128563
-0.00858625
0.129015
-0.00772511
0.129425
-0.00686491
0.129795
-0.00600586
0.130123
-0.00514874
0.13041
-0.00429467
0.130655
-0.00344494
0.130859
-0.00260099
0.131022
-0.00176448
0.131145
-0.000937337
-0.000121644
0.118703
-0.117621
-0.0176566
0.119609
-0.0166468
0.120451
-0.015643
0.121202
-0.0146357
0.121893
-0.0136609
0.122536
-0.0127124
0.123135
-0.0117855
0.123694
-0.0108732
0.124212
-0.00996796
0.124692
-0.00906551
0.125131
-0.00816395
0.125528
-0.00726275
0.125885
-0.00636234
0.1262
-0.00546371
0.126473
-0.00456819
0.126706
-0.00367724
0.126897
-0.00279242
0.127048
-0.00191536
0.127159
-0.00104811
-0.0001967
0.0215904
0.096999
-0.0959194
-0.02267
0.0205087
0.100766
-0.0996841
0.0194205
0.10473
-0.103642
0.0183208
0.108909
-0.10781
0.0172046
0.113329
-0.112213
0.0160673
0.11802
-0.116883
0.0149049
0.123028
-0.121865
0.0137143
0.128409
-0.127218
0.0124928
0.13424
-0.133019
0.0112388
0.140615
-0.139361
0.00995173
0.147646
-0.146359
0.0086331
0.155463
-0.154144
0.00728762
0.164204
-0.162859
0.00592571
0.174004
-0.172642
0.00456711
0.184961
-0.183603
0.0032462
0.197079
-0.195758
0.00201933
0.210182
-0.208956
0.000974422
0.223768
-0.222723
0.0002359
0.236692
-0.235954
0.246824
-0.246588
0.0216557
0.0980886
-0.0227453
0.0205641
0.101857
0.0194665
0.105827
0.0183578
0.110018
0.0172331
0.114454
0.0160878
0.119166
0.0149181
0.124197
0.0137204
0.129607
0.0124922
0.135469
0.0112319
0.141876
0.00993902
0.148939
0.00861531
0.156786
0.00726598
0.165553
0.00590214
0.175368
0.00454449
0.186319
0.00322873
0.198395
0.00201248
0.211399
0.000983067
0.224797
0.000263871
0.237411
0.247088
0.0216837
0.099186
-0.0227811
0.0205845
0.102957
0.0194796
0.106932
0.018364
0.111134
0.0172329
0.115585
0.0160818
0.120317
0.0149066
0.125373
0.0137038
0.130809
0.012471
0.136701
0.0112064
0.14314
0.00990976
0.150236
0.00858306
0.158113
0.00723195
0.166905
0.00586816
0.176732
0.00451321
0.187674
0.00320363
0.199705
0.00199755
0.212605
0.000981282
0.225813
0.000271466
0.238121
0.247359
0.0216751
0.100289
-0.0227779
0.0205706
0.104061
0.0194605
0.108042
0.0183402
0.112254
0.0172047
0.11672
0.0160495
0.121472
0.0148708
0.126551
0.013665
0.132015
0.0124295
0.137937
0.0111625
0.144407
0.00986414
0.151534
0.00853644
0.159441
0.0071855
0.168255
0.0058236
0.178094
0.0044729
0.189024
0.00317054
0.201007
0.00197482
0.213801
0.00097087
0.226817
0.000271067
0.238821
0.24763
0.021631
0.101395
-0.0227372
0.0205231
0.105169
0.0194099
0.109156
0.0182866
0.113377
0.0171486
0.117858
0.0159914
0.122629
0.014811
0.127732
0.0136039
0.133222
0.0123675
0.139173
0.0111002
0.145674
0.00980195
0.152832
0.0084752
0.160767
0.00712634
0.169604
0.00576815
0.179452
0.00442342
0.190369
0.00312979
0.202301
0.00194563
0.214985
0.000954942
0.227808
0.000266798
0.239509
0.247897
0.0215527
0.102503
-0.0226607
0.0204432
0.106278
0.0193286
0.11027
0.0182042
0.114502
0.0170653
0.118997
0.0159076
0.123787
0.0147272
0.128912
0.0135206
0.134429
0.0122852
0.140409
0.0110193
0.14694
0.00972308
0.154129
0.00839917
0.162091
0.00705431
0.170949
0.00570177
0.180805
0.00436488
0.191706
0.0030818
0.203584
0.0019109
0.216156
0.00093495
0.228784
0.000259992
0.240184
0.248157
0.0214421
0.103611
-0.0225503
0.0203324
0.107388
0.0192177
0.111385
0.0180935
0.115626
0.0169553
0.120135
0.0157987
0.124943
0.0146199
0.130091
0.0134154
0.135633
0.0121826
0.141642
0.0109199
0.148203
0.00962757
0.155421
0.0083084
0.163411
0.00696948
0.172288
0.00562454
0.18215
0.00429747
0.193033
0.00302685
0.204854
0.00187097
0.217311
0.000911373
0.229743
0.000251285
0.240844
0.248408
0.0213007
0.104719
-0.0224083
0.0201917
0.108497
0.0190782
0.112498
0.0179555
0.116749
0.0168191
0.121272
0.015665
0.126097
0.0144892
0.131267
0.0132884
0.136834
0.0120599
0.14287
0.0108021
0.149461
0.00951547
0.156708
0.00820293
0.164723
0.00687192
0.173619
0.00553659
0.183485
0.00422133
0.194348
0.00296512
0.206111
0.00182612
0.21845
0.000884676
0.230685
0.000241246
0.241488
0.248649
0.0211302
0.105825
-0.0222367
0.0200226
0.109605
0.0189109
0.11361
0.0177905
0.117869
0.0166572
0.122405
0.0155067
0.127248
0.0143354
0.132438
0.0131397
0.13803
0.011917
0.144093
0.0106659
0.150712
0.00938679
0.157987
0.00808281
0.166027
0.00676169
0.17494
0.00543801
0.184809
0.00413663
0.19565
0.00289686
0.20735
0.0017767
0.219571
0.000855298
0.231606
0.000230271
0.242113
0.24888
0.0209319
0.106931
-0.0220376
0.0198258
0.110711
0.0187163
0.11472
0.017599
0.118986
0.0164695
0.123535
0.0153238
0.128394
0.0141582
0.133604
0.0129691
0.139219
0.0117539
0.145308
0.0105113
0.151954
0.0092415
0.159256
0.00794802
0.167321
0.00663883
0.176249
0.00532889
0.186119
0.00404352
0.196935
0.0028223
0.208572
0.00172302
0.22067
0.000823583
0.232506
0.000218596
0.242718
0.249098
0.0207069
0.108037
-0.0218126
0.0196018
0.111816
0.0184945
0.115827
0.0173806
0.1201
0.0162558
0.124659
0.015116
0.129533
0.0139574
0.134762
0.0127764
0.1404
0.0115704
0.146514
0.010338
0.153187
0.0090795
0.160515
0.00779855
0.168602
0.00650338
0.177545
0.00520935
0.187413
0.00394216
0.198202
0.00274166
0.209772
0.00166535
0.221746
0.000789796
0.233381
0.000206378
0.243301
0.249305
0.0204549
0.109144