/*--------------------------------*- C++ -*----------------------------------*\
  =========                 |
  \\      /  F ield         | OpenFOAM: The Open Source CFD Toolbox
   \\    /   O peration     | Website:  https://openfoam.org
    \\  /    A nd           | Version:  6.0
     \\/     M anipulation  |
\*---------------------------------------------------------------------------*/
FoamFile
{
    version     2.0;
    format      ascii;
    class       volVectorField;
    location    "18";
    object      U;
}
// * * * * * * * * * * * * * * * * * * * * * * * * * * * * * * * * * * * * * //

dimensions      [0 1 -1 0 0 0 0];

internalField   nonuniform List<vector> 
2400
(
(0.0179406 -0.435116 -1.28741e-20)
(0.00560964 -0.339581 5.8425e-21)
(-0.00386412 -0.267781 -6.52586e-21)
(-0.0109098 -0.214061 -4.26053e-21)
(-0.0155135 -0.173771 -7.47471e-21)
(-0.0177733 -0.143278 1.03548e-20)
(-0.0181277 -0.119837 4.2387e-21)
(-0.0170821 -0.101416 4.00327e-21)
(-0.0151191 -0.0865314 -9.34092e-21)
(-0.0132289 -0.0741364 -7.34787e-22)
(0.0516188 -0.428739 1.436e-20)
(0.0321683 -0.331898 -1.48824e-21)
(0.0185097 -0.260942 3.07573e-21)
(0.00942556 -0.20913 4.01667e-20)
(0.00435122 -0.171131 -3.07439e-20)
(0.00275171 -0.14287 -1.62669e-21)
(0.00385468 -0.121323 -3.63928e-22)
(0.00691578 -0.104266 -4.16516e-21)
(0.0112955 -0.0900649 -7.39838e-21)
(0.0156825 -0.0776292 -3.00551e-21)
(0.0845321 -0.420157 2.65396e-20)
(0.0582338 -0.323368 2.74759e-20)
(0.0413203 -0.254284 -7.97808e-20)
(0.0314347 -0.205142 2.65578e-20)
(0.0272659 -0.169997 4.4398e-20)
(0.0277627 -0.144389 -2.57422e-20)
(0.0317766 -0.125053 -2.23268e-20)
(0.0383089 -0.109577 2.11287e-20)
(0.0465644 -0.0961409 -4.83535e-20)
(0.0548075 -0.0836002 5.26799e-20)
(0.116659 -0.409614 -9.28492e-20)
(0.0841019 -0.314473 4.71153e-20)
(0.0651062 -0.248336 -4.69293e-20)
(0.055832 -0.202578 2.42121e-20)
(0.0540566 -0.170765 -2.82847e-20)
(0.058136 -0.148148 4.56236e-20)
(0.0665121 -0.131285 2.48618e-20)
(0.0779259 -0.117591 -7.55391e-20)
(0.0914378 -0.105011 -7.43204e-20)
(0.104784 -0.0923198 8.94825e-20)
(0.148026 -0.397344 3.79468e-21)
(0.110225 -0.305603 -1.83509e-20)
(0.0906388 -0.24346 -8.27574e-21)
(0.0836091 -0.201674 -1.03386e-20)
(0.0858464 -0.173499 -7.03039e-20)
(0.0950475 -0.154037 1.15724e-20)
(0.109219 -0.139776 -7.78859e-21)
(0.126849 -0.128002 8.26279e-20)
(0.146882 -0.116378 -5.84897e-20)
(0.166429 -0.103559 -4.36321e-20)
(0.178733 -0.383571 8.99253e-20)
(0.137221 -0.297048 -9.31249e-21)
(0.118908 -0.239829 1.43331e-19)
(0.116003 -0.202382 -1.8564e-20)
(0.124015 -0.177882 9.09336e-20)
(0.139923 -0.161458 -1.04313e-20)
(0.161281 -0.149677 -8.43528e-22)
(0.186338 -0.139799 6.75407e-20)
(0.213985 -0.129198 -3.7945e-20)
(0.240638 -0.116377 7.5011e-20)
(0.208961 -0.368501 -3.40762e-20)
(0.165861 -0.288985 1.23045e-20)
(0.151077 -0.237414 -3.67736e-20)
(0.154426 -0.204379 -4.65048e-20)
(0.170105 -0.183232 -5.00597e-21)
(0.194332 -0.169329 1.55022e-19)
(0.224186 -0.159515 -5.60422e-20)
(0.257702 -0.151213 2.79904e-20)
(0.293813 -0.141593 -9.73276e-20)
(0.328264 -0.129023 -6.34619e-20)
(0.238977 -0.352303 1.64256e-19)
(0.197031 -0.281447 -1.89519e-20)
(0.188398 -0.235975 -1.99993e-19)
(0.200325 -0.207083 1.13621e-20)
(0.225638 -0.188564 4.94684e-20)
(0.259759 -0.176178 -7.42789e-20)
(0.299264 -0.16726 -1.0081e-19)
(0.341973 -0.159673 1.54215e-19)
(0.387052 -0.150624 -1.31172e-20)
(0.429819 -0.138532 -1.46629e-19)
(0.269127 -0.335091 -1.38029e-19)
(0.231666 -0.27429 8.28266e-20)
(0.232079 -0.235056 1.32201e-19)
(0.255014 -0.209724 3.63459e-20)
(0.29192 -0.19274 -1.43138e-19)
(0.337391 -0.180359 9.56729e-20)
(0.387423 -0.170485 5.99717e-20)
(0.439506 -0.161573 1.27533e-19)
(0.493182 -0.151164 -7.82103e-20)
(0.544241 -0.138674 -1.17889e-19)
(0.299803 -0.316846 4.70567e-20)
(0.270622 -0.26712 -1.96898e-20)
(0.283098 -0.233989 -6.61292e-22)
(0.31946 -0.211472 4.13883e-20)
(0.369912 -0.194863 3.55319e-20)
(0.428341 -0.180887 -2.518e-20)
(0.490237 -0.167786 -5.11399e-20)
(0.552554 -0.154255 8.2254e-20)
(0.61441 -0.138347 -7.00822e-20)
(0.672502 -0.122399 6.59918e-20)
(0.617376 -0.00935491 4.19003e-21)
(0.590949 -0.0552522 1.20998e-20)
(0.561404 -0.0973196 -4.04551e-20)
(0.529691 -0.135516 3.55247e-20)
(0.496642 -0.16995 1.3366e-20)
(0.462976 -0.20086 1.65812e-19)
(0.429263 -0.228595 -6.34274e-20)
(0.395919 -0.253573 -8.49724e-20)
(0.363213 -0.276272 8.81123e-20)
(0.331255 -0.297213 -1.52611e-19)
(0.83252 0.0173313 1.50848e-20)
(0.77985 -0.0411867 -4.85776e-21)
(0.721572 -0.0922585 -4.0751e-20)
(0.659848 -0.135538 1.08007e-19)
(0.596727 -0.171093 -3.60604e-20)
(0.53407 -0.199378 2.71536e-19)
(0.473456 -0.221181 -1.67456e-19)
(0.416122 -0.237564 2.38773e-19)
(0.36294 -0.249789 -1.62456e-19)
(0.314402 -0.259225 -8.29108e-20)
(1.01792 0.0667761 -3.01259e-20)
(0.954561 -0.000901538 4.42321e-21)
(0.882291 -0.0602638 -1.30756e-19)
(0.803782 -0.110383 1.00582e-19)
(0.721776 -0.150871 -1.01712e-19)
(0.638937 -0.181891 -1.90367e-19)
(0.557691 -0.204134 -6.16872e-20)
(0.480093 -0.218776 -5.2669e-20)
(0.407751 -0.2274 1.66746e-19)
(0.341822 -0.231862 8.60486e-20)
(1.16777 0.116713 1.38271e-20)
(1.10372 0.0439618 -2.41984e-20)
(1.0276 -0.0211506 -3.27713e-20)
(0.942049 -0.0771346 -1.28509e-19)
(0.850005 -0.123031 7.49295e-20)
(0.754541 -0.158483 2.16665e-19)
(0.65866 -0.183782 9.3285e-20)
(0.565084 -0.199887 1.80685e-20)
(0.476121 -0.208401 4.93939e-20)
(0.393669 -0.21148 -1.5735e-21)
(1.28226 0.15927 -1.63745e-20)
(1.22375 0.0851269 -6.43323e-20)
(1.15072 0.0171646 8.63193e-21)
(1.06535 -0.0427201 1.11738e-19)
(0.970364 -0.0930492 1.14792e-19)
(0.868832 -0.13289 -7.56742e-20)
(0.763991 -0.161982 -1.40842e-19)
(0.658962 -0.180856 -6.79452e-20)
(0.556536 -0.190924 7.96311e-20)
(0.459219 -0.194563 1.08653e-19)
(1.36498 0.192608 3.43902e-21)
(1.31547 0.119934 5.48961e-20)
(1.24993 0.0516997 -1.28552e-19)
(1.16985 -0.00998627 1.60976e-19)
(1.07741 -0.0632644 9.49288e-20)
(0.975329 -0.106677 1.72238e-19)
(0.866726 -0.139353 -3.68248e-20)
(0.754768 -0.161249 -9.80355e-20)
(0.642349 -0.173412 2.3217e-19)
(0.53214 -0.17844 -1.88602e-19)
(1.421 0.216671 8.47679e-21)
(1.38187 0.147411 -6.61918e-20)
(1.32616 0.0808977 -4.11867e-20)
(1.25461 0.0192604 -8.79487e-20)
(1.16866 -0.0354282 -1.24218e-20)
(1.07045 -0.0812922 -1.29315e-19)
(0.962658 -0.116855 -8.00104e-20)
(0.848159 -0.141376 -1.6558e-20)
(0.729434 -0.155331 -1.44526e-19)
(0.608356 -0.161561 2.05243e-19)
(1.45565 0.232441 -7.51922e-21)
(1.42683 0.167686 5.5521e-20)
(1.38174 0.104219 -2.47085e-20)
(1.32041 0.044035 5.52194e-20)
(1.24351 -0.0107484 1.35465e-19)
(1.15249 -0.0579771 2.20464e-19)
(1.0494 -0.0956074 -6.33461e-20)
(0.936583 -0.122041 -2.1708e-19)
(0.815606 -0.136771 5.90393e-20)
(0.685885 -0.14264 -3.38536e-19)
(1.47366 0.241535 1.09804e-20)
(1.45421 0.181598 -1.30939e-20)
(1.41946 0.121778 -1.34353e-19)
(1.36882 0.06382 4.10385e-20)
(1.30231 0.00972725 -9.52381e-20)
(1.22064 -0.0382303 -3.9506e-20)
(1.12528 -0.077529 -3.14757e-20)
(1.01807 -0.105528 9.05569e-20)
(0.899622 -0.119838 1.04259e-19)
(0.764944 -0.121495 6.36547e-20)
(1.47877 0.245553 -2.69701e-20)
(1.46733 0.190561 4.83377e-20)
(1.44196 0.134663 2.25623e-20)
(1.40166 0.0792658 6.87369e-20)
(1.34588 0.0261151 -7.89731e-21)
(1.27471 -0.0226029 -5.26588e-21)
(1.18909 -0.0641158 -1.78116e-19)
(1.09077 -0.0948892 2.27342e-19)
(0.980508 -0.110132 -1.40754e-19)
(0.847594 -0.105116 2.94535e-20)
(0.537486 0.499441 -5.81498e-20)
(0.577314 0.46006 6.72962e-20)
(0.610798 0.415239 1.2094e-21)
(0.637268 0.365942 -1.68011e-19)
(0.656216 0.313254 1.25076e-19)
(0.66741 0.258367 -9.40363e-20)
(0.670896 0.202501 -2.29595e-20)
(0.66699 0.146831 -2.19258e-20)
(0.656263 0.0924246 3.63345e-20)
(0.639489 0.0401623 2.52461e-21)
(0.751955 0.673484 8.68303e-20)
(0.812274 0.631161 2.32599e-20)
(0.863232 0.578716 -1.21225e-19)
(0.903282 0.517694 -1.49206e-19)
(0.931177 0.449892 1.18263e-19)
(0.946103 0.377334 -1.0641e-19)
(0.947735 0.302182 1.27161e-19)
(0.936268 0.226623 -3.33468e-20)
(0.912415 0.152759 -1.11797e-19)
(0.877363 0.0824712 -8.40725e-21)
(0.885757 0.753775 -6.59515e-21)
(0.95794 0.717473 2.29788e-21)
(1.0207 0.668841 8.10453e-20)
(1.07193 0.609357 8.22154e-20)
(1.10984 0.54081 1.89254e-19)
(1.13305 0.465289 6.80848e-20)
(1.14067 0.385117 -4.58925e-20)
(1.1324 0.302753 -1.01365e-19)
(1.10852 0.220687 8.22712e-20)
(1.06992 0.141306 5.66806e-21)
(0.967261 0.773426 2.30568e-20)
(1.04528 0.745433 -5.50815e-20)
(1.11511 0.704611 -2.73967e-20)
(1.17435 0.652124 -1.5647e-19)
(1.2209 0.589453 -9.60055e-20)
(1.253 0.518407 1.84715e-19)
(1.26929 0.441081 1.26023e-19)
(1.26892 0.359788 -1.06152e-19)
(1.25158 0.276986 4.93886e-21)
(1.2176 0.19516 -4.74704e-21)
(1.01542 0.757051 -6.19577e-20)
(1.09516 0.736819 1.06333e-19)
(1.16831 0.704315 -2.77651e-20)
(1.23239 0.66032 8.50202e-20)
(1.2852 0.605927 -5.93631e-20)
(1.3248 0.542564 -1.1175e-19)
(1.34958 0.471954 5.96092e-20)
(1.35827 0.396076 -6.30794e-20)
(1.35008 0.317117 -6.31053e-20)
(1.32468 0.237397 2.76857e-20)
(1.04324 0.721534 -1.12699e-20)
(1.12215 0.707569 1.93404e-20)
(1.19593 0.682484 -1.84813e-20)
(1.26211 0.646639 -1.61197e-19)
(1.31859 0.600758 9.30597e-20)
(1.36349 0.545914 1.87048e-20)
(1.39514 0.483455 -1.02892e-19)
(1.41209 0.414983 -3.80119e-20)
(1.41318 0.342326 3.56762e-20)
(1.39762 0.267492 -1.01183e-20)
(1.05931 0.677566 -1.27896e-20)
(1.13623 0.668312 5.42437e-21)
(1.20891 0.649357 2.55626e-20)
(1.27504 0.620563 9.12106e-20)
(1.33283 0.582362 2.31967e-20)
(1.38068 0.535562 5.91402e-20)
(1.41705 0.481216 1.26059e-19)
(1.44049 0.420591 -5.3942e-20)
(1.44966 0.355163 5.06137e-20)
(1.44346 0.286587 -1.9073e-20)
(1.06915 0.631572 -1.39693e-20)
(1.14374 0.6261 2.03367e-20)
(1.21422 0.612147 1.96018e-20)
(1.27862 0.589095 -4.73095e-20)
(1.33578 0.557271 -3.11598e-20)
(1.38452 0.517372 -6.48644e-20)
(1.42353 0.470259 9.21478e-21)
(1.45144 0.416958 -1.53308e-20)
(1.46693 0.358645 -1.08052e-19)
(1.46872 0.29665 1.52109e-20)
(1.07691 0.587882 -2.11402e-21)
(1.1485 0.585936 -1.34023e-20)
(1.21557 0.575994 -1.69332e-20)
(1.27688 0.557296 1.03911e-20)
(1.33198 0.53037 -4.34706e-21)
(1.38004 0.495958 5.76712e-20)
(1.41999 0.454824 2.61384e-20)
(1.45061 0.407816 4.22531e-20)
(1.47062 0.355883 5.20044e-20)
(1.47874 0.300071 -2.23934e-20)
(1.08877 0.548024 -1.26368e-21)
(1.15546 0.547506 2.27877e-20)
(1.21705 0.540047 -6.53992e-20)
(1.27359 0.524431 -4.8656e-21)
(1.32516 0.501339 8.70509e-20)
(1.37111 0.471528 4.25047e-21)
(1.41044 0.435641 5.28129e-20)
(1.44208 0.394345 -1.17106e-19)
(1.46485 0.348363 -1.43499e-21)
(1.47751 0.298481 1.20304e-20)
(0.596843 0.191664 -9.47147e-21)
(0.556065 0.207125 3.23045e-21)
(0.50937 0.225598 1.06585e-21)
(0.455975 0.248234 -1.71856e-20)
(0.394951 0.27653 7.62983e-21)
(0.325792 0.312047 2.25272e-20)
(0.248923 0.355778 -2.09159e-20)
(0.166618 0.406787 -5.35889e-21)
(0.0870819 0.45964 -6.41068e-21)
(0.0323267 0.499986 -2.32264e-20)
(0.61922 0.249338 -2.60661e-20)
(0.580337 0.269615 5.3173e-20)
(0.535569 0.293349 -4.8872e-20)
(0.484456 0.321427 -8.27774e-21)
(0.426126 0.354872 1.37376e-20)
(0.360054 0.394277 -1.61297e-20)
(0.286558 0.438882 -4.54354e-20)
(0.20755 0.484822 5.25192e-20)
(0.130311 0.521893 -8.04274e-23)
(0.0748243 0.528074 2.35116e-20)
(0.649078 0.304196 -8.691e-20)
(0.612812 0.329054 8.96303e-20)
(0.570663 0.357816 3.11595e-20)
(0.522582 0.391044 1.70228e-21)
(0.467702 0.429284 1.99149e-20)
(0.405353 0.472169 7.81393e-21)
(0.335515 0.517208 -1.2945e-20)
(0.259337 0.557698 -2.85125e-20)
(0.182454 0.578915 -2.07735e-20)
(0.121452 0.551779 3.0186e-20)
(0.686049 0.355248 -7.19914e-20)
(0.653034 0.38434 6.55477e-20)
(0.614133 0.417765 5.25047e-20)
(0.56977 0.455686 -3.5861e-20)
(0.519021 0.498169 -1.31952e-19)
(0.460944 0.543908 4.25202e-20)
(0.394959 0.588752 -3.0482e-20)
(0.32108 0.623337 8.30663e-20)
(0.242641 0.628856 7.29829e-20)
(0.171621 0.570129 -6.36296e-20)
(0.729619 0.401606 -5.16832e-20)
(0.700369 0.434478 2.27473e-20)
(0.665257 0.472072 -6.30879e-20)
(0.625204 0.514063 4.94058e-20)
(0.579153 0.560042 -2.37818e-20)
(0.525765 0.607808 -1.99343e-20)
(0.463694 0.651653 -1.99257e-20)
(0.391492 0.679823 -3.42019e-21)
(0.309637 0.670024 -2.90264e-20)
(0.224522 0.582264 -1.70802e-20)
(0.779106 0.442508 1.29888e-19)
(0.753995 0.478614 2.56527e-20)
(0.723104 0.519753 -8.60813e-20)
(0.687832 0.565024 8.04821e-20)
(0.646902 0.613571 3.67849e-20)
(0.598451 0.662351 5.96774e-20)
(0.540189 0.704251 -3.51112e-21)
(0.468928 0.725461 3.64831e-20)
(0.381878 0.700959 8.90556e-21)
(0.279169 0.587483 3.48572e-20)
(0.833639 0.477362 -1.41119e-19)
(0.812886 0.51606 1.58528e-19)
(0.786522 0.559979 -7.65937e-20)
(0.756375 0.60758 -4.28526e-20)
(0.720821 0.6576 7.2822e-22)
(0.677362 0.706229 -5.8345e-20)
(0.622608 0.745125 3.94647e-20)
(0.551434 0.758843 4.49804e-20)
(0.45753 0.720493 6.12098e-21)
(0.334442 0.585277 -2.61591e-20)
(0.892098 0.505838 -1.02164e-20)
(0.875759 0.546317 -6.19322e-20)
(0.854121 0.592074 2.62265e-20)
(0.829323 0.640895 -5.98905e-21)
(0.799234 0.691157 -2.06992e-20)
(0.760612 0.738359 1.07836e-20)
(0.708856 0.773142 -4.35341e-21)
(0.636799 0.778889 -8.01385e-21)
(0.534549 0.727797 4.66179e-21)
(0.389131 0.575351 -8.47992e-21)
(0.953078 0.528085 2.23218e-20)
(0.941071 0.5693 7.06279e-21)
(0.924359 0.615662 -4.47506e-20)
(0.905061 0.664372 3.50203e-20)
(0.880328 0.713503 -1.6799e-20)
(0.846143 0.757925 -2.41811e-21)
(0.796654 0.787484 -6.97373e-21)
(0.722641 0.784892 -2.17734e-21)
(0.610774 0.722422 -5.16902e-20)
(0.442004 0.557655 3.2288e-20)
(1.01325 0.541829 -3.06216e-20)
(1.00522 0.582928 2.16757e-20)
(0.994515 0.629209 -7.43551e-21)
(0.981338 0.67696 -3.09758e-21)
(0.961919 0.723858 -1.00144e-20)
(0.931671 0.764293 -5.01406e-21)
(0.883567 0.787648 7.02839e-21)
(0.806477 0.776529 3.76561e-20)
(0.684018 0.704286 5.01681e-20)
(0.491885 0.532351 7.6573e-21)
(0.770236 -0.319068 1.59601e-19)
(0.74109 -0.340376 -9.68903e-20)
(0.703991 -0.359791 3.67009e-20)
(0.658355 -0.372186 -8.34423e-20)
(0.599411 -0.372844 -5.45269e-20)
(0.521112 -0.354232 -8.4221e-20)
(0.415859 -0.305422 -1.01924e-19)
(0.274107 -0.212026 -4.6486e-20)
(0.0845378 -0.0558018 -6.41604e-20)
(-0.167303 0.186088 3.14012e-20)
(0.727527 -0.285753 -9.56208e-20)
(0.697297 -0.305649 -7.69888e-20)
(0.658377 -0.324217 1.32712e-19)
(0.611079 -0.336873 6.51084e-20)
(0.551659 -0.338789 9.64528e-20)
(0.474805 -0.322398 -1.61972e-19)
(0.373901 -0.276628 5.56093e-20)
(0.240813 -0.186598 1.13481e-19)
(0.0665968 -0.0329012 7.69856e-20)
(-0.158576 0.209663 -8.09868e-20)
(0.687538 -0.246186 4.50873e-20)
(0.655375 -0.264075 -1.77915e-20)
(0.614852 -0.281054 1.88127e-19)
(0.566007 -0.292985 -1.13124e-19)
(0.505821 -0.295091 -9.19119e-20)
(0.42984 -0.27998 5.28012e-20)
(0.332569 -0.236769 -7.63333e-22)
(0.2075 -0.150611 -2.2787e-19)
(0.0484109 -0.00178136 -9.19616e-21)
(-0.149296 0.235886 7.12353e-20)
(0.652559 -0.202267 2.98212e-19)
(0.618044 -0.217382 -1.35281e-19)
(0.575662 -0.231704 4.53838e-20)
(0.525105 -0.241651 -7.73161e-20)
(0.463861 -0.242678 2.01511e-19)
(0.388289 -0.227734 -1.06972e-20)
(0.29404 -0.186405 -3.77439e-20)
(0.17631 -0.104387 5.85315e-21)
(0.0317766 0.0374676 1.87078e-20)
(-0.138639 0.264758 -9.28129e-20)
(0.623374 -0.153907 -2.57834e-19)
(0.586484 -0.16568 -2.72219e-21)
(0.542199 -0.176571 1.01399e-19)
(0.489915 -0.183538 -4.92343e-21)
(0.427512 -0.182379 -1.15798e-20)
(0.35209 -0.166546 1.32152e-19)
(0.260405 -0.126375 -2.46063e-20)
(0.149343 -0.0486247 3.02334e-20)
(0.0184735 0.0843697 5.81019e-21)
(-0.125795 0.29606 1.23779e-19)
(0.600592 -0.101491 9.5036e-21)
(0.561574 -0.109456 -1.46568e-19)
(0.515574 -0.116311 1.31864e-19)
(0.461751 -0.119488 -1.1552e-20)
(0.398302 -0.115196 2.22137e-20)
(0.322985 -0.0975216 -1.1154e-19)
(0.233579 -0.0578184 -1.66214e-20)
(0.128552 0.0156158 -8.29459e-21)
(0.0101825 0.138089 -5.7585e-20)
(-0.110002 0.329369 -2.69389e-20)
(0.584738 -0.0457438 1.32952e-19)
(0.544029 -0.0494872 -1.22894e-19)
(0.496688 -0.0518144 -5.82154e-21)
(0.441696 -0.050543 -1.45128e-19)
(0.377513 -0.0423266 7.90176e-20)
(0.302466 -0.0219961 -4.98522e-20)
(0.21523 0.0178531 4.16706e-20)
(0.115662 0.0869521 -7.96048e-20)
(0.00840591 0.197466 -7.42672e-20)
(-0.0905788 0.364081 -5.24491e-20)
(0.576216 0.0124587 8.33202e-20)
(0.534398 0.0132726 -8.20417e-20)
(0.486231 0.0158595 3.62901e-20)
(0.430597 0.02209 2.55095e-20)
(0.36617 0.0348538 -4.6963e-20)
(0.291744 0.0584919 8.04446e-20)
(0.206729 0.0989809 4.88255e-20)
(0.112109 0.163719 -1.47736e-19)
(0.0144026 0.261063 2.47544e-20)
(-0.0669678 0.399436 6.31687e-20)
(0.575309 0.0721344 8.84455e-20)
(0.533072 0.0777436 -1.30019e-20)
(0.484696 0.0855164 -7.43258e-21)
(0.429066 0.0970657 -5.9012e-22)
(0.365026 0.11482 3.1549e-20)
(0.291723 0.142231 -9.28777e-20)
(0.209118 0.183702 7.62774e-20)
(0.118995 0.244018 5.91125e-21)
(0.0291402 0.327214 -2.77138e-21)
(-0.0387621 0.43455 4.61983e-20)
(0.582175 0.13223 -2.56737e-20)
(0.540275 0.142761 -2.61458e-21)
(0.492379 0.15587 6.89387e-21)
(0.43748 0.172942 7.64139e-21)
(0.374557 0.195939 1.91976e-20)
(0.30299 0.227382 -1.38296e-20)
(0.223082 0.27 -8.08293e-21)
(0.137056 0.32577 -1.25389e-20)
(0.053269 0.394072 1.15409e-20)
(-0.00570982 0.468449 -8.31426e-21)
(0.829843 -0.352584 1.55979e-19)
(0.879587 -0.374732 -5.74577e-20)
(0.925277 -0.391538 1.50073e-20)
(0.967087 -0.401066 6.18292e-20)
(1.00514 -0.403488 3.1843e-20)
(1.03855 -0.399215 2.63402e-21)
(1.06595 -0.388455 3.66309e-21)
(1.08582 -0.371419 -2.19211e-21)
(1.09649 -0.34845 -1.24136e-21)
(1.09625 -0.320077 1.05672e-21)
(0.793517 -0.370027 7.08461e-20)
(0.845325 -0.391762 5.73066e-20)
(0.893861 -0.407025 5.33469e-20)
(0.937836 -0.414514 -1.56864e-20)
(0.976563 -0.414218 -1.38838e-20)
(1.00904 -0.406487 -1.16496e-20)
(1.0339 -0.391672 2.30337e-21)
(1.04959 -0.370243 1.80462e-21)
(1.0545 -0.342868 1.82447e-21)
(1.04709 -0.310463 -2.08497e-21)
(0.754876 -0.386975 -2.07817e-19)
(0.806656 -0.406299 2.08695e-20)
(0.855648 -0.418365 -1.00849e-19)
(0.899605 -0.422392 -1.58954e-20)
(0.937152 -0.418253 5.12598e-20)
(0.966966 -0.406263 1.62521e-20)
(0.987578 -0.386942 -1.01099e-21)
(0.997474 -0.361034 -1.5187e-21)
(0.995223 -0.329546 -7.25063e-21)
(0.979646 -0.293777 1.45761e-21)
(0.708427 -0.39783 -5.47741e-20)
(0.75876 -0.414506 -7.97563e-20)
(0.806129 -0.422791 -7.64184e-21)
(0.847966 -0.42246 -2.58019e-20)
(0.882383 -0.413605 -2.67998e-20)
(0.907738 -0.396721 -2.51039e-21)
(0.922497 -0.372598 -3.67474e-21)
(0.925278 -0.34231 9.7172e-23)
(0.914968 -0.307232 7.34563e-21)
(0.890879 -0.269026 -1.71662e-21)
(0.648179 -0.396434 -1.18267e-19)
(0.695922 -0.409982 1.23951e-19)
(0.739903 -0.414075 6.86812e-21)
(0.777571 -0.408978 -5.8681e-21)
(0.806826 -0.395172 1.43066e-20)
(0.825917 -0.373491 5.21612e-21)
(0.833392 -0.345085 -4.62949e-21)
(0.828146 -0.311404 8.55506e-21)
(0.80952 -0.274178 -1.37679e-21)
(0.777415 -0.235361 -7.11335e-22)
(0.567075 -0.374951 1.69391e-19)
(0.610621 -0.384906 -9.38247e-20)
(0.649315 -0.384779 -2.84915e-20)
(0.680786 -0.375259 -6.61762e-21)
(0.703013 -0.357261 -1.13574e-20)
(0.714384 -0.332022 5.42289e-21)
(0.713725 -0.301076 -4.8386e-21)
(0.700357 -0.266218 -3.54695e-21)
(0.674172 -0.229444 2.35027e-21)
(0.635692 -0.192858 3.12744e-21)
(0.456374 -0.322897 2.74728e-20)
(0.493305 -0.329512 1.69779e-20)
(0.524467 -0.326143 3.40879e-21)
(0.547786 -0.313846 -1.05021e-20)
(0.561538 -0.293933 3.2422e-20)
(0.564464 -0.268001 1.23882e-21)
(0.555832 -0.237884 -2.53291e-22)
(0.53548 -0.205586 7.47315e-22)
(0.503858 -0.173189 3.29818e-21)
(0.462027 -0.142732 -2.36948e-21)
(0.305253 -0.226913 7.90813e-20)
(0.332255 -0.231879 5.63939e-20)
(0.353272 -0.228006 -9.49162e-20)
(0.366652 -0.216604 -1.77327e-20)
(0.371133 -0.199229 -3.08359e-20)
(0.365947 -0.177649 -1.76949e-21)
(0.350862 -0.153775 -8.02681e-21)
(0.32621 -0.129562 1.05048e-20)
(0.292872 -0.106908 -1.01001e-22)
(0.252225 -0.0875333 5.01861e-21)
(0.100448 -0.0707304 -1.4385e-20)
(0.112864 -0.0782971 -9.36086e-20)
(0.12047 -0.0796197 7.06188e-20)
(0.122191 -0.0759809 -2.35428e-20)
(0.117329 -0.0688224 3.02301e-20)
(0.105617 -0.0596978 -1.66502e-21)
(0.0872402 -0.0501915 -6.46409e-21)
(0.0628169 -0.0418254 2.90297e-22)
(0.033359 -0.035968 -4.66131e-22)
(0.000185482 -0.0337608 -2.55477e-21)
(-0.176314 0.164873 -1.41903e-20)
(-0.185877 0.145989 4.83163e-20)
(-0.196582 0.128784 -2.00591e-20)
(-0.208753 0.112617 6.06594e-21)
(-0.222509 0.0968335 -5.87701e-21)
(-0.237761 0.0807744 -1.06449e-21)
(-0.25422 0.0638128 1.07625e-21)
(-0.271413 0.0453995 5.12792e-21)
(-0.288733 0.025099 -2.4379e-21)
(-0.305491 0.00260009 -8.73497e-22)
(1.08347 -0.287099 1.73131e-21)
(1.05686 -0.250716 -8.48614e-21)
(1.01572 -0.212578 4.67941e-20)
(0.960194 -0.174821 -3.40625e-20)
(0.891459 -0.140004 4.02994e-21)
(0.811718 -0.11095 -3.47891e-20)
(0.723868 -0.0904484 1.74728e-19)
(0.630658 -0.080842 8.82396e-21)
(0.530762 -0.0840378 -5.21748e-20)
(0.412758 -0.09651 1.17878e-19)
(1.02607 -0.274252 5.6615e-21)
(0.990668 -0.23587 -1.69788e-20)
(0.940847 -0.197321 -1.72607e-20)
(0.877483 -0.160933 -1.27865e-20)
(0.802425 -0.129212 -3.68771e-20)
(0.718305 -0.104607 -8.75382e-22)
(0.628033 -0.0891803 -1.13182e-20)
(0.533782 -0.0841163 3.18433e-20)
(0.434422 -0.0892513 1.0279e-19)
(0.324373 -0.0981013 -2.26897e-20)
(0.94994 -0.25533 -3.82683e-21)
(0.905992 -0.216167 3.40452e-20)
(0.848497 -0.178485 8.95345e-21)
(0.779025 -0.144603 -1.89961e-21)
(0.699959 -0.116766 4.00955e-20)
(0.614208 -0.0968725 1.74224e-20)
(0.524658 -0.0861298 3.38078e-20)
(0.433361 -0.0845696 -3.66709e-20)
(0.340273 -0.0904598 -7.31737e-20)
(0.244149 -0.097346 -1.7205e-19)
(0.852827 -0.229605 4.6929e-21)
(0.801414 -0.191133 -1.49481e-20)
(0.738043 -0.155827 2.18301e-20)
(0.66487 -0.125817 -4.96538e-20)
(0.584649 -0.102931 -2.94399e-20)
(0.500403 -0.0884374 -1.39344e-20)
(0.414945 -0.082749 -7.07241e-20)
(0.330336 -0.0850777 -3.27274e-20)
(0.247446 -0.0930765 3.95728e-21)
(0.167174 -0.10159 5.31665e-20)
(0.732317 -0.197051 2.32654e-21)
(0.675508 -0.161437 -3.30072e-23)
(0.608978 -0.130573 1.43575e-20)
(0.535276 -0.106228 4.42675e-20)
(0.457308 -0.0897033 -7.49841e-21)
(0.378018 -0.0816273 -6.55903e-20)
(0.300019 -0.0817554 1.1059e-19)
(0.225273 -0.0887929 -3.37406e-20)
(0.155032 -0.100274 -2.54095e-20)
(0.0907476 -0.112242 -1.19994e-20)
(0.586014 -0.158556 -6.38356e-21)
(0.526951 -0.128552 6.77921e-21)
(0.460868 -0.104548 2.24529e-20)
(0.390447 -0.0878266 -2.16092e-20)
(0.318491 -0.0791192 4.30156e-20)
(0.247665 -0.0784762 -5.24644e-21)
(0.180234 -0.0851706 4.12277e-21)
(0.1179 -0.0976473 2.77554e-20)
(0.0618697 -0.113553 2.17582e-20)
(0.0133897 -0.12982 7.03371e-21)
(0.411521 -0.116093 9.42085e-22)
(0.354438 -0.0948984 -1.28138e-21)
(0.293224 -0.0803615 3.1961e-20)
(0.230407 -0.0732199 -3.82836e-20)
(0.168446 -0.0736682 -7.30217e-20)
(0.109548 -0.0813069 3.52693e-20)
(0.0555108 -0.0951224 -1.86762e-20)
(0.00766112 -0.113509 2.00146e-20)
(-0.0330635 -0.134358 5.63322e-20)
(-0.0658407 -0.15526 -6.097e-20)
(0.205963 -0.0728809 -9.99076e-22)
(0.156139 -0.0640166 -1.99132e-20)
(0.104954 -0.061601 2.82749e-20)
(0.0545065 -0.065856 1.74909e-20)
(0.00670803 -0.0765536 -5.33713e-20)
(-0.0368188 -0.0930248 -4.20115e-20)
(-0.0748095 -0.114182 -2.991e-21)
(-0.106362 -0.13856 6.53942e-21)
(-0.13087 -0.164406 8.53974e-21)
(-0.147897 -0.189848 -2.36537e-20)
(-0.0352285 -0.0360529 1.6784e-21)
(-0.0712577 -0.0432298 2.74435e-20)
(-0.106291 -0.055458 1.13588e-20)
(-0.138904 -0.0725762 -3.72781e-20)
(-0.167887 -0.0941253 3.70045e-20)
(-0.192277 -0.119394 -4.86189e-20)
(-0.211366 -0.14745 6.37351e-20)
(-0.224674 -0.177166 -7.66836e-20)
(-0.231903 -0.207273 -4.06274e-20)
(-0.23288 -0.236454 -1.09456e-19)
(-0.320937 -0.0223097 -4.75222e-22)
(-0.334351 -0.0492833 -7.90223e-21)
(-0.345116 -0.0782372 5.86931e-21)
(-0.352708 -0.108884 6.99814e-21)
(-0.356742 -0.140823 -1.582e-20)
(-0.356962 -0.173584 1.56292e-20)
(-0.353216 -0.206644 -1.91458e-20)
(-0.345432 -0.239433 1.48599e-20)
(-0.333592 -0.271343 -3.77376e-20)
(-0.317702 -0.301769 4.16426e-20)
(-0.297679 -0.330092 5.96409e-20)
(-0.227589 -0.263511 -4.54135e-20)
(-0.157168 -0.213305 -4.7371e-20)
(-0.0897443 -0.174204 6.39959e-20)
(-0.025487 -0.143711 -5.88072e-21)
(0.0361592 -0.120456 7.67318e-20)
(0.095384 -0.103145 8.74082e-21)
(0.152436 -0.0908969 -6.93068e-20)
(0.20865 -0.0837958 1.28196e-19)
(0.263214 -0.0786864 -1.80384e-20)
(-0.274178 -0.355435 -6.30209e-20)
(-0.216542 -0.287464 1.75135e-19)
(-0.158859 -0.233893 -7.38864e-21)
(-0.104241 -0.190679 -5.8433e-20)
(-0.0527851 -0.155634 4.6552e-20)
(-0.00384135 -0.127349 -1.06399e-19)
(0.0429872 -0.104441 1.23008e-19)
(0.0883268 -0.085933 -1.04244e-19)
(0.133683 -0.0720764 1.885e-20)
(0.177338 -0.0622582 8.34668e-20)
(-0.247596 -0.377688 3.61834e-20)
(-0.200474 -0.307871 -1.10351e-19)
(-0.153844 -0.251164 3.85362e-20)
(-0.110333 -0.204511 -2.14292e-20)
(-0.0698322 -0.16602 3.9774e-20)
(-0.03155 -0.134371 -2.98912e-20)
(0.00506675 -0.10837 -2.84673e-20)
(0.0406922 -0.0872882 3.87361e-20)
(0.0763193 -0.0713978 -9.06345e-20)
(0.109898 -0.0605444 1.39213e-19)
(-0.218405 -0.39665 -7.72949e-20)
(-0.180306 -0.324449 8.60288e-21)
(-0.143351 -0.264816 4.03732e-20)
(-0.109546 -0.215405 5.50345e-20)
(-0.0785565 -0.174515 -8.45251e-20)
(-0.0495096 -0.140876 7.02889e-21)
(-0.0218235 -0.113399 -4.75404e-20)
(0.00506614 -0.0914402 -1.00028e-19)
(0.0317701 -0.0750657 1.9122e-19)
(0.0565567 -0.0639591 7.49829e-20)
(-0.187135 -0.412178 5.41764e-20)
(-0.157006 -0.337049 1.25791e-20)
(-0.128639 -0.274673 4.92986e-20)
(-0.10338 -0.223091 -6.03617e-21)
(-0.0806817 -0.180623 6.58442e-20)
(-0.0596379 -0.145923 3.24984e-20)
(-0.0396964 -0.11785 8.33234e-20)
(-0.0204215 -0.095645 -8.49401e-20)
(-0.00144126 -0.0790518 -8.79986e-21)
(0.0159167 -0.067567 -9.8143e-20)
(-0.154309 -0.424215 3.5944e-20)
(-0.131494 -0.345678 -4.29933e-20)
(-0.110873 -0.280745 -9.69695e-21)
(-0.0931756 -0.227497 -1.69833e-20)
(-0.0776852 -0.184091 -1.87082e-20)
(-0.0635075 -0.148978 -2.39032e-20)
(-0.0501545 -0.120846 3.91665e-20)
(-0.0373131 -0.0987342 -5.24877e-20)
(-0.0247744 -0.0820682 4.75085e-20)
(-0.0135297 -0.0701927 6.39917e-21)
(-0.12042 -0.432781 -6.24759e-20)
(-0.104585 -0.350503 -3.19976e-20)
(-0.091047 -0.283245 5.58914e-20)
(-0.0800298 -0.228802 -2.09305e-20)
(-0.0707179 -0.184992 3.11612e-20)
(-0.0622774 -0.149956 -9.4731e-20)
(-0.0543162 -0.122142 7.26407e-20)
(-0.046643 -0.100359 -2.73275e-20)
(-0.0391816 -0.0837702 4.95631e-20)
(-0.0326963 -0.0716026 -6.13374e-20)
(-0.0859125 -0.437967 2.88048e-20)
(-0.0769649 -0.351834 -1.25778e-20)
(-0.0699547 -0.282583 -1.95082e-20)
(-0.0647745 -0.22743 -7.86723e-21)
(-0.0606062 -0.183712 4.36937e-21)
(-0.0567339 -0.149178 1.31936e-20)
(-0.0528984 -0.121994 -3.26321e-20)
(-0.0490435 -0.100745 1.99564e-20)
(-0.0452212 -0.0843849 6.14254e-20)
(-0.0420857 -0.0720499 -6.09108e-20)
(-0.0511719 -0.439946 2.15878e-20)
(-0.0491708 -0.350109 5.80804e-23)
(-0.0481793 -0.279327 3.03225e-20)
(-0.047986 -0.224006 -2.63112e-20)
(-0.0478895 -0.180882 8.18036e-21)
(-0.0473606 -0.147262 -9.18672e-21)
(-0.0463189 -0.121011 -5.2393e-21)
(-0.0448668 -0.100498 -3.05977e-20)
(-0.0431907 -0.0845124 3.34687e-20)
(-0.0419492 -0.0721157 3.5792e-20)
(-0.0164951 -0.438941 -3.80971e-21)
(-0.021573 -0.345845 -3.3003e-21)
(-0.026092 -0.27415 -2.98803e-21)
(-0.029998 -0.219279 -1.15147e-20)
(-0.0328483 -0.177286 1.24947e-20)
(-0.0343814 -0.145007 4.581e-21)
(-0.0347488 -0.12 -9.86562e-21)
(-0.0342402 -0.100429 6.08782e-22)
(-0.0331858 -0.0849435 -6.01311e-21)
(-0.0323576 -0.0725456 -4.21425e-22)
(-0.0124219 -0.0415508 -1.36708e-21)
(-0.00413463 -0.0434213 -1.36379e-21)
(0.0467758 -0.0417953 3.05821e-21)
(0.0943863 -0.0400591 -2.03407e-21)
(0.154378 -0.034808 -6.41014e-22)
(0.213389 -0.02653 -1.2508e-21)
(0.273754 -0.0174857 4.38728e-22)
(0.332596 -0.0104547 -5.51388e-22)
(0.390001 -0.00842234 2.87582e-22)
(0.444878 -0.0138966 6.34244e-23)
(0.49577 -0.0264196 -3.22663e-22)
(0.540468 -0.0431647 7.62779e-23)
(0.575732 -0.055893 -7.33257e-23)
(0.605077 -0.0547819 -1.39188e-22)
(0.627446 -0.0330103 2.25497e-23)
(0.658524 0.00892941 -3.95333e-23)
(0.68077 0.0346323 1.56458e-23)
(0.731401 0.047705 1.05614e-23)
(0.759676 0.00206861 -1.90475e-23)
(0.818015 -0.0329092 -3.31024e-24)
(0.0222649 -0.0434048 6.38425e-21)
(0.0322676 -0.0537057 4.78374e-21)
(0.0854784 -0.0544043 -4.52041e-21)
(0.13246 -0.0535 2.45144e-21)
(0.190258 -0.0480513 -4.72576e-21)
(0.246603 -0.0389079 -2.00557e-22)
(0.30426 -0.0288352 -4.33504e-22)
(0.360844 -0.020677 -8.51589e-22)
(0.416489 -0.0175024 5.59576e-22)
(0.469976 -0.0217457 1.77684e-22)
(0.519345 -0.0329137 7.54233e-23)
(0.561993 -0.0481208 6.38099e-22)
(0.594175 -0.0595439 -6.56655e-22)
(0.619367 -0.0574765 -9.98298e-23)
(0.637135 -0.0356166 8.29879e-23)
(0.664308 0.00640883 5.98016e-23)
(0.686179 0.0314949 -1.20542e-22)
(0.737069 0.044449 1.60859e-22)
(0.768914 -0.00104807 4.61824e-23)
(0.824848 -0.0349291 1.13016e-23)
(0.0700444 -0.047424 -2.20306e-20)
(0.0823123 -0.0646383 3.05913e-21)
(0.137797 -0.0670384 2.11197e-20)
(0.183442 -0.0664875 -1.04765e-20)
(0.23784 -0.0606804 -1.34416e-21)
(0.290287 -0.0506862 -4.61745e-21)
(0.343974 -0.0396604 2.27223e-23)
(0.397092 -0.0304613 -1.70687e-21)
(0.449821 -0.0261967 -5.57669e-22)
(0.50084 -0.0292144 -4.8041e-22)
(0.547749 -0.0389976 -1.02687e-22)
(0.587602 -0.0526292 6.46714e-23)
(0.616244 -0.0627272 6.35357e-22)
(0.63702 -0.0597379 -2.60965e-22)
(0.650056 -0.0378942 -1.53866e-22)
(0.673032 0.00401495 1.70586e-22)
(0.694218 0.0283473 -4.21518e-23)
(0.744779 0.0410895 -8.68827e-23)
(0.779668 -0.00416088 -1.77522e-22)
(0.832675 -0.0368482 3.35176e-23)
(0.130987 -0.0540432 -5.97985e-21)
(0.145674 -0.0761245 2.33026e-20)
(0.202685 -0.0794557 -1.09633e-20)
(0.246028 -0.0787284 -5.7875e-21)
(0.295766 -0.072402 4.58829e-21)
(0.343139 -0.0615989 -8.53811e-22)
(0.391708 -0.0497235 1.9174e-21)
(0.440265 -0.0395982 -7.83157e-22)
(0.489032 -0.0343252 1.81407e-21)
(0.536605 -0.036157 9.42952e-22)
(0.580214 -0.044566 -2.03496e-21)
(0.616627 -0.0566276 2.83634e-22)
(0.641377 -0.0654146 -3.08608e-23)
(0.657595 -0.0615534 4.19929e-22)
(0.665896 -0.0398237 8.91257e-23)
(0.684505 0.00178065 -1.17042e-22)
(0.704737 0.0252359 -1.06327e-22)
(0.754408 0.0376756 -2.32347e-22)