/*--------------------------------*- C++ -*----------------------------------*\
  =========                 |
  \\      /  F ield         | OpenFOAM: The Open Source CFD Toolbox
   \\    /   O peration     | Website:  https://openfoam.org
    \\  /    A nd           | Version:  6.0
     \\/     M anipulation  |
\*---------------------------------------------------------------------------*/
FoamFile
{
    version     2.0;
    format      ascii;
    class       volVectorField;
    location    "6";
    object      U;
}
// * * * * * * * * * * * * * * * * * * * * * * * * * * * * * * * * * * * * * //

dimensions      [0 1 -1 0 0 0 0];

internalField   nonuniform List<vector> 
19200
(
(0.815453 -19.4579 -9.0208e-20)
(0.225272 -18.669 4.37089e-20)
(0.21988 -17.9695 2.01054e-20)
(0.262666 -17.3322 1.76987e-20)
(0.269627 -16.7411 1.92984e-20)
(0.275801 -16.1807 1.17497e-21)
(0.284126 -15.6423 2.66772e-20)
(0.291704 -15.1214 -1.8523e-21)
(0.29812 -14.6162 2.25822e-20)
(0.30349 -14.1259 9.24546e-21)
(0.307875 -13.6507 1.90868e-22)
(0.311368 -13.1907 1.42386e-20)
(0.314089 -12.7462 2.26879e-20)
(0.316165 -12.3171 -1.51729e-20)
(0.317712 -11.9036 1.89929e-20)
(0.318833 -11.5053 1.59004e-20)
(0.319611 -11.1221 -1.48738e-20)
(0.32012 -10.7533 2.47578e-20)
(0.320417 -10.3988 -1.56322e-20)
(0.320554 -10.0579 7.72398e-21)
(0.320576 -9.7301 1.05341e-20)
(0.320524 -9.41495 -3.36246e-21)
(0.320442 -9.11182 4.51352e-21)
(0.320374 -8.82008 -5.10579e-21)
(0.320361 -8.53904 -1.45491e-22)
(0.320426 -8.26793 2.52192e-21)
(0.320562 -8.00587 -1.71743e-21)
(0.320905 -7.75197 1.02532e-21)
(0.321892 -7.50533 2.35403e-21)
(0.322348 -7.26511 8.86422e-21)
(1.32337 -19.4304 -1.98376e-20)
(0.715085 -18.6634 1.32604e-19)
(0.691731 -17.9688 -7.01861e-20)
(0.717725 -17.3333 -9.3896e-20)
(0.709156 -16.7438 -4.14811e-20)
(0.700611 -16.1841 -2.91563e-20)
(0.694759 -15.6457 -6.25427e-20)
(0.688594 -15.1245 8.16686e-21)
(0.681666 -14.6188 -1.30316e-20)
(0.674081 -14.1279 -4.48151e-20)
(0.665909 -13.6521 -1.07781e-19)
(0.65725 -13.1916 5.14528e-20)
(0.648235 -12.7465 -1.90673e-20)
(0.638994 -12.3171 7.19638e-21)
(0.629642 -11.9033 -4.17778e-20)
(0.620276 -11.5048 -1.48663e-20)
(0.610971 -11.1213 1.7907e-21)
(0.601788 -10.7524 4.8958e-20)
(0.592772 -10.3978 -2.60452e-20)
(0.58396 -10.0568 -1.4236e-20)
(0.575381 -9.72904 -5.34398e-20)
(0.567063 -9.41391 1.35963e-20)
(0.559033 -9.11087 -8.25681e-21)
(0.55132 -8.81927 1.43636e-20)
(0.543947 -8.53843 -6.45792e-21)
(0.536918 -8.26756 -9.92551e-21)
(0.5302 -8.0058 3.29682e-21)
(0.523942 -7.75219 4.85073e-21)
(0.518644 -7.50578 -8.66619e-21)
(0.512872 -7.26569 3.95476e-21)
(1.83175 -19.3908 -9.23745e-21)
(1.20449 -18.6452 2.70543e-20)
(1.16339 -17.9556 4.3859e-20)
(1.17285 -17.3223 3.24494e-19)
(1.14888 -16.7347 -1.84104e-19)
(1.12567 -16.1762 1.68077e-19)
(1.10566 -15.6382 1.02008e-19)
(1.08575 -15.117 7.72999e-20)
(1.06546 -14.6111 -7.14395e-20)
(1.04489 -14.12 -6.04674e-21)
(1.02413 -13.6439 1.74451e-19)
(1.00329 -13.1832 2.79326e-20)
(0.982516 -12.738 -7.78578e-20)
(0.961937 -12.3085 6.06899e-20)
(0.941669 -11.8946 4.11402e-22)
(0.921802 -11.4961 2.47791e-20)
(0.902405 -11.1127 1.74404e-20)
(0.883523 -10.744 5.70161e-20)
(0.865189 -10.3895 -2.53668e-20)
(0.847425 -10.0488 -8.32564e-21)
(0.830246 -9.72122 -2.0601e-20)
(0.813664 -9.40635 8.97992e-20)
(0.797692 -9.1036 -7.42228e-20)
(0.78234 -8.81235 2.39588e-20)
(0.76762 -8.53191 1.0395e-20)
(0.75351 -8.26149 -4.27649e-20)
(0.739955 -8.00021 5.63337e-20)
(0.727114 -7.74711 -6.11566e-21)
(0.715543 -7.50112 -6.21372e-21)
(0.703522 -7.26139 -4.05958e-20)
(2.33824 -19.3383 -3.19577e-19)
(1.69275 -18.6143 -2.82024e-19)
(1.63438 -17.9301 -3.39398e-19)
(1.62764 -17.2995 1.18662e-20)
(1.58845 -16.7142 2.11208e-20)
(1.55067 -16.1571 -3.66793e-19)
(1.51654 -15.6199 1.77616e-20)
(1.48288 -15.0991 4.60463e-20)
(1.44921 -14.5933 -8.5184e-21)
(1.41564 -14.1023 7.51093e-20)
(1.38228 -13.6263 -2.95363e-19)
(1.34924 -13.1656 -1.77855e-19)
(1.31669 -12.7206 6.74146e-20)
(1.28476 -12.2913 1.27077e-19)
(1.25357 -11.8777 -1.47336e-19)
(1.2232 -11.4796 -2.25327e-20)
(1.1937 -11.0966 -8.37446e-20)
(1.16512 -10.7282 -3.8514e-20)
(1.13748 -10.3741 6.3379e-20)
(1.11076 -10.0338 -8.01327e-20)
(1.08499 -9.70671 6.81492e-20)
(1.06015 -9.39232 -8.05581e-20)
(1.03625 -9.09008 -6.16219e-20)
(1.01327 -8.79937 -4.31731e-20)
(0.991223 -8.51953 -1.29007e-20)
(0.970049 -8.24974 -8.63747e-20)
(0.949683 -7.98916 8.94128e-21)
(0.930285 -7.73674 1.48637e-20)
(0.912463 -7.49139 -4.23319e-20)
(0.894181 -7.25223 9.35906e-21)
(2.84338 -19.2729 -1.88708e-19)
(2.18015 -18.5711 2.71174e-20)
(2.10465 -17.8924 2.36285e-19)
(2.08187 -17.2647 2.41756e-19)
(2.02761 -16.6821 1.71157e-19)
(1.97532 -16.1268 6.98442e-20)
(1.92709 -15.5907 1.06124e-19)
(1.8797 -15.0706 4.72783e-19)
(1.83265 -14.5653 -2.82681e-19)
(1.78607 -14.0747 8.7805e-21)
(1.74008 -13.5991 6.65941e-20)
(1.69484 -13.1389 2.73664e-19)
(1.6505 -12.6943 -1.83669e-19)
(1.60722 -12.2656 1.29068e-19)
(1.56511 -11.8526 -1.39671e-19)
(1.52423 -11.455 2.36576e-19)
(1.48465 -11.0727 -6.91928e-20)
(1.44638 -10.705 2.59819e-21)
(1.40943 -10.3516 1.05743e-19)
(1.37379 -10.0119 7.20187e-20)
(1.33943 -9.68549 -7.34436e-20)
(1.30636 -9.37179 9.70207e-20)
(1.27454 -9.07027 -4.28826e-20)
(1.24396 -8.78032 4.94256e-20)
(1.21459 -8.50126 6.42771e-20)
(1.18638 -8.23232 2.24281e-20)
(1.15923 -7.9726 6.80513e-20)
(1.13331 -7.72109 -2.57815e-20)
(1.10927 -7.47657 -8.79954e-21)
(1.08473 -7.23822 -3.80814e-20)
(3.34663 -19.1946 -1.35802e-19)
(2.66629 -18.5153 -8.8646e-20)
(2.5739 -17.8426 -2.64185e-19)
(2.53525 -17.2182 -6.7367e-19)
(2.46604 -16.6386 2.2781e-19)
(2.39932 -16.0854 1.4101e-20)
(2.33704 -15.5506 -1.46957e-19)
(2.27593 -15.0316 2.62016e-20)
(2.2155 -14.5271 -2.24347e-20)
(2.15591 -14.0373 -3.51159e-19)
(2.0973 -13.5624 1.48027e-19)
(2.03984 -13.103 2.46142e-19)
(1.98372 -12.6592 1.13247e-21)
(1.92909 -12.2313 8.76665e-20)
(1.87606 -11.8192 2.10795e-19)
(1.8247 -11.4225 -1.43125e-19)
(1.77504 -11.0411 2.46785e-19)
(1.7271 -10.6743 -1.15627e-19)
(1.68086 -10.3218 2.00415e-19)
(1.6363 -9.98309 -1.48938e-19)
(1.59339 -9.65758 6.51991e-20)
(1.55209 -9.34479 1.65214e-19)
(1.51238 -9.04419 6.89553e-21)
(1.47421 -8.75519 -1.49637e-19)
(1.43757 -8.47712 8.27331e-20)
(1.40235 -8.20921 9.09627e-21)
(1.36845 -7.95058 -2.52118e-20)
(1.33605 -7.70015 9.47273e-20)
(1.30582 -7.45666 3.20178e-20)
(1.27503 -7.21934 -3.23897e-20)
(3.84776 -19.1034 3.78165e-19)
(3.15099 -18.447 -1.3555e-20)
(3.04192 -17.7806 -5.32835e-19)
(2.98753 -17.1598 1.09185e-19)
(2.90348 -16.5835 -1.44028e-19)
(2.8224 -16.0327 1.09967e-19)
(2.7461 -15.4998 2.29045e-19)
(2.67129 -14.9821 4.03905e-19)
(2.59748 -14.4788 -4.27515e-19)
(2.52488 -13.9901 1.05223e-19)
(2.45365 -13.5163 -6.86163e-20)
(2.38399 -13.0579 4.97058e-20)
(2.3161 -12.6153 -2.22429e-19)
(2.25014 -12.1885 -1.28286e-20)
(2.18621 -11.7775 3.40317e-19)
(2.12437 -11.3821 -2.34719e-19)
(2.06467 -11.0018 -1.44137e-19)
(2.00707 -10.6363 -1.00637e-19)
(1.95157 -10.285 1.835e-19)
(1.89811 -9.94736 3.78086e-20)
(1.84666 -9.62298 -1.73436e-19)
(1.79717 -9.31133 2.25692e-19)
(1.74959 -9.01186 -2.02215e-19)
(1.70388 -8.72401 1.30084e-19)
(1.65999 -8.44712 -7.36557e-20)
(1.61781 -8.18043 4.59399e-20)
(1.5772 -7.92307 3.31594e-20)
(1.53836 -7.67393 -1.50564e-19)
(1.50199 -7.43167 6.38177e-20)
(1.46497 -7.19561 8.43702e-22)
(4.34641 -18.9992 -3.67726e-19)
(3.63392 -18.3662 2.99799e-19)
(3.5084 -17.7065 -5.34766e-19)
(3.43841 -17.0897 1.01823e-18)
(3.33963 -16.5171 -2.81463e-19)
(3.24427 -15.969 3.87146e-19)
(3.15398 -15.4381 -9.90602e-21)
(3.06549 -14.9221 -5.63865e-20)
(2.97833 -14.4204 -7.32884e-20)
(2.89272 -13.9331 9.774e-22)
(2.80888 -13.4607 -2.74475e-19)
(2.72704 -13.0037 1.44278e-19)
(2.64739 -12.5625 -1.66325e-19)
(2.57012 -12.1372 -1.38802e-20)
(2.49531 -11.7277 -4.50437e-19)
(2.42304 -11.3337 1.48174e-19)
(2.3533 -10.9549 8.1019e-20)
(2.28609 -10.5908 -9.28932e-20)
(2.22135 -10.2409 -1.11441e-20)
(2.15904 -9.90473 -1.36061e-19)
(2.09909 -9.58173 -4.75861e-20)
(2.04143 -9.27142 3.04198e-21)
(1.98602 -8.97329 -1.12683e-19)
(1.9328 -8.68679 -1.62955e-19)
(1.88169 -8.41128 7.61764e-21)
(1.83259 -8.14601 -1.8414e-20)
(1.78532 -7.8901 4.86666e-20)
(1.7401 -7.64244 -1.18035e-19)
(1.69764 -7.40161 9.89156e-20)
(1.65442 -7.16703 -1.85763e-19)
(4.84226 -18.8821 -9.06805e-19)
(4.11478 -18.2729 1.07527e-18)
(3.97306 -17.6203 -1.11543e-18)
(3.8876 -17.0078 -2.94514e-19)
(3.77422 -16.4391 -1.8187e-19)
(3.66464 -15.8941 -1.96642e-19)
(3.56041 -15.3656 -1.79423e-19)
(3.45826 -14.8517 -4.11457e-20)
(3.35776 -14.3518 -1.78569e-19)
(3.25917 -13.8663 -3.40818e-20)
(3.16274 -13.3956 2.7996e-19)
(3.06873 -12.9404 -1.65204e-19)
(2.97736 -12.5009 -1.85867e-19)
(2.8888 -12.0774 -3.03341e-19)
(2.80315 -11.6697 6.31934e-19)
(2.72047 -11.2775 -2.38203e-19)
(2.64075 -10.9004 8.76061e-20)
(2.56395 -10.538 -3.18451e-19)
(2.49002 -10.1898 1.23125e-19)
(2.41888 -9.85524 -4.76612e-20)
(2.35046 -9.53383 6.19815e-20)
(2.28469 -9.22509 -1.95127e-20)
(2.22148 -8.92851 1.81364e-19)
(2.16078 -8.64356 -6.32856e-20)
(2.10251 -8.36961 1.71716e-19)
(2.04653 -8.10595 -3.03905e-20)
(1.99265 -7.85169 2.18102e-19)
(1.94111 -7.60569 5.71132e-20)
(1.89263 -7.36649 1.05432e-19)
(1.84325 -7.13363 -3.25381e-19)
(5.33498 -18.7521 1.43164e-18)
(4.59325 -18.1672 -2.77612e-19)
(4.43558 -17.5221 4.76438e-19)
(4.33482 -16.9142 -1.31729e-19)
(4.20694 -16.3498 4.63965e-19)
(4.08321 -15.8082 4.27741e-19)
(3.96509 -15.2824 4.73968e-19)
(3.84931 -14.7709 -3.58205e-20)
(3.7355 -14.2732 -4.37825e-19)
(3.62396 -13.7897 6.40849e-19)
(3.51497 -13.3211 -4.28435e-20)
(3.40882 -12.868 4.3451e-19)
(3.30576 -12.4306 1.54167e-19)
(3.20595 -12.0091 5.77915e-20)
(3.1095 -11.6035 8.5989e-20)
(3.01645 -11.2133 1.19287e-19)
(2.92678 -10.8383 1.91704e-19)
(2.84045 -10.4779 -5.29104e-20)
(2.75736 -10.1316 2.7236e-19)
(2.67745 -9.79892 1.20906e-19)
(2.60061 -9.47933 -2.50581e-19)
(2.52675 -9.17237 4.36422e-19)
(2.4558 -8.87754 -5.66674e-19)
(2.38767 -8.59433 5.26306e-19)
(2.32228 -8.32214 -1.72007e-19)
(2.25947 -8.06027 3.40885e-20)
(2.19905 -7.80785 -2.17228e-19)
(2.14125 -7.5637 1.21422e-19)
(2.08681 -7.32633 4.18636e-20)
(2.03133 -7.09541 -4.97941e-20)
(5.82423 -18.6094 -8.10738e-19)
(5.06901 -18.049 7.66785e-19)
(4.89568 -17.4118 -2.0748e-19)
(4.77977 -16.8089 5.86097e-19)
(4.6375 -16.2491 5.82946e-20)
(4.49971 -15.7112 1.13191e-19)
(4.36774 -15.1885 -9.59586e-19)
(4.23838 -14.6797 -1.66357e-19)
(4.11129 -14.1845 5.93207e-19)
(3.98682 -13.7035 4.33749e-19)
(3.86531 -13.2373 -7.3461e-19)
(3.74706 -12.7865 4.19573e-19)
(3.63234 -12.3515 -4.14493e-19)
(3.52133 -11.9324 2.75135e-19)
(3.41413 -11.5292 -4.57891e-19)
(3.31076 -11.1414 -3.29726e-19)
(3.2112 -10.7686 2.43669e-20)
(3.11537 -10.4105 -1.43185e-19)
(3.02319 -10.0664 2.58811e-19)
(2.93455 -9.73579 1.00706e-19)
(2.84933 -9.41825 -6.60923e-20)
(2.76745 -9.11329 -1.87463e-20)
(2.6888 -8.82042 7.20321e-20)
(2.61329 -8.53915 -2.43623e-19)
(2.54084 -8.26891 3.9452e-19)
(2.47126 -8.00901 -9.73353e-20)
(2.40435 -7.75861 -5.80172e-21)
(2.34037 -7.51652 3.26499e-19)
(2.28004 -7.28115 4.04892e-20)
(2.21852 -7.0524 -4.5708e-20)
(6.30968 -18.454 3.24191e-20)
(5.54175 -17.9185 -4.40177e-19)
(5.35303 -17.2895 -3.90769e-19)
(5.22214 -16.692 -6.37646e-19)
(5.06562 -16.1371 2.28032e-20)
(4.91384 -15.6032 -4.34593e-19)
(4.76809 -15.0839 5.16608e-19)
(4.62518 -14.5781 -5.24906e-20)
(4.48485 -14.0858 3.88859e-19)
(4.3475 -13.6075 -3.30548e-19)
(4.2135 -13.1441 -1.63343e-19)
(4.0832 -12.696 8.7815e-20)
(3.95687 -12.2637 4.65213e-20)
(3.83471 -11.8474 -4.57196e-19)
(3.71681 -11.4467 2.67619e-19)
(3.60318 -11.0616 -1.25909e-19)
(3.49378 -10.6914 3.60827e-19)
(3.38853 -10.3358 -1.15817e-19)
(3.2873 -9.99411 1.19438e-19)
(3.18999 -9.66589 2.88512e-20)
(3.09645 -9.35064 1.94779e-19)
(3.00659 -9.04789 -4.04845e-20)
(2.9203 -8.75718 3.09159e-19)
(2.83747 -8.47805 -3.43093e-19)
(2.75801 -8.20994 -1.13125e-19)
(2.68172 -7.9522 9.06688e-20)
(2.60839 -7.70401 -9.56614e-21)
(2.53831 -7.46415 -1.52371e-19)
(2.47218 -7.23098 1.21374e-19)
(2.4047 -7.00464 -1.39121e-19)
(6.791 -18.286 1.35481e-18)
(6.01113 -17.7757 3.57611e-19)
(5.80734 -17.1553 4.23616e-19)
(5.66164 -16.5634 5.53562e-19)
(5.49099 -16.0138 8.20814e-19)
(5.32532 -15.4842 -2.54651e-20)
(5.16583 -14.9686 1.2072e-19)
(5.00944 -14.4662 8.64268e-19)
(4.85591 -13.9771 -1.805e-19)
(4.70572 -13.502 -3.07712e-19)
(4.55928 -13.0416 5.30773e-19)
(4.41698 -12.5966 8.43211e-20)
(4.27911 -12.1673 4.79037e-21)
(4.14586 -11.754 1.23332e-19)
(4.01732 -11.3563 2.10595e-19)
(3.8935 -10.974 -4.22429e-19)
(3.77432 -10.6067 3.56901e-19)
(3.6597 -10.2539 5.7952e-20)
(3.5495 -9.91489 3.31468e-19)
(3.44357 -9.58928 -1.80308e-19)
(3.34178 -9.27654 2.86782e-19)
(3.244 -8.97622 -3.01061e-19)
(3.15012 -8.68788 2.85662e-19)
(3.06003 -8.41107 3.61348e-20)
(2.97362 -8.14527 -1.87473e-19)
(2.8907 -7.88987 -5.76284e-20)
(2.81103 -7.64408 3.41344e-19)
(2.73491 -7.40663 2.4602e-19)
(2.66308 -7.17587 6.38335e-20)
(2.58971 -6.95214 -4.13793e-20)
(7.26786 -18.1054 1.34039e-19)
(6.47686 -17.6207 3.0154e-19)
(6.25829 -17.0092 1.21371e-18)
(6.09795 -16.4233 -1.97369e-18)
(5.91331 -15.8792 -1.86933e-19)
(5.73384 -15.3544 -2.0702e-19)
(5.56069 -14.8428 9.22548e-20)
(5.39086 -14.3441 1.14483e-19)
(5.22419 -13.8585 1.87273e-19)
(5.06122 -13.3868 -4.99806e-19)
(4.9024 -12.9298 -8.81451e-20)
(4.74817 -12.4882 2.70039e-19)
(4.59881 -12.0623 2.79283e-19)
(4.45454 -11.6523 -2.82184e-19)
(4.31543 -11.2579 -2.6528e-19)
(4.18148 -10.8788 4.38309e-19)
(4.05261 -10.5146 2.74661e-19)
(3.92869 -10.1648 -7.49599e-20)
(3.80957 -9.82877 -1.71563e-19)
(3.6951 -9.506 2.86562e-20)
(3.58512 -9.196 -3.75572e-19)
(3.47949 -8.89833 4.45427e-19)
(3.37809 -8.61256 -3.00269e-19)
(3.2808 -8.33826 -1.04606e-20)
(3.18751 -8.07496 1.90532e-19)
(3.09801 -7.82208 -5.832e-20)
(3.01208 -7.57885 -1.7118e-19)
(2.93003 -7.34401 2.10788e-19)
(2.85258 -7.11583 -6.32203e-21)
(2.77343 -6.89497 3.21405e-20)
(7.73993 -17.9125 -1.05269e-19)
(6.93859 -17.4536 -3.22655e-19)
(6.70557 -16.8513 -1.39447e-18)
(6.53079 -16.2718 5.03899e-19)
(6.3323 -15.7335 -1.45097e-19)
(6.13911 -15.2136 4.81556e-19)
(5.95239 -14.7064 3.48939e-20)
(5.76918 -14.2118 -5.23301e-19)
(5.58944 -13.7301 7.8014e-19)
(5.41374 -13.2622 -6.95665e-19)
(5.24261 -12.8089 -2.26467e-20)
(5.0765 -12.371 1.60483e-19)
(4.91574 -11.9488 -2.74454e-19)
(4.76052 -11.5423 3.01652e-19)
(4.61092 -11.1515 -5.71634e-19)
(4.46692 -10.7759 -1.21165e-19)
(4.32842 -10.4152 3.36808e-19)
(4.19528 -10.0686 2.27918e-21)
(4.06733 -9.73578 -1.97254e-19)
(3.94439 -9.4161 5.36016e-19)
(3.82629 -9.10907 -2.87933e-19)
(3.71288 -8.81426 -3.73021e-19)
(3.60402 -8.53127 1.21496e-19)
(3.4996 -8.25968 -3.45901e-19)
(3.39949 -7.99906 -7.94223e-20)
(3.3035 -7.74887 -8.35044e-21)
(3.21138 -7.50838 -2.09944e-19)
(3.1235 -7.27632 2.52612e-19)
(3.04052 -7.05092 -1.36547e-19)
(2.95572 -6.83317 1.47134e-19)
(8.2069 -17.7073 -4.78008e-19)
(7.39603 -17.2744 -1.28016e-18)
(7.14888 -16.6818 5.97064e-19)
(6.95984 -16.1088 -5.58739e-19)
(6.74764 -15.5767 -4.03271e-19)
(6.54086 -15.0621 -2.23818e-19)
(6.34063 -14.5596 -8.21977e-19)
(6.14413 -14.0693 5.52578e-19)
(5.95137 -13.5919 -1.33142e-18)
(5.76302 -13.1281 -4.62753e-19)
(5.57965 -12.6789 1.76231e-19)
(5.40175 -12.245 2.75937e-19)
(5.22966 -11.8268 -9.06051e-21)
(5.06357 -11.4243 -5.04372e-19)
(4.90356 -11.0373 1.16629e-19)
(4.7496 -10.6655 -4.34008e-19)
(4.60155 -10.3084 -3.03361e-19)
(4.45927 -9.96539 -1.74555e-19)
(4.32257 -9.63599 -2.88389e-20)
(4.19123 -9.31963 3.01735e-19)
(4.06509 -9.01581 4.17112e-19)
(3.94397 -8.72408 -1.22497e-19)
(3.82773 -8.44407 -1.12953e-19)
(3.71624 -8.17538 2.19911e-19)
(3.6094 -7.91763 1.19257e-19)
(3.50699 -7.67031 -9.42422e-20)
(3.40877 -7.43273 -1.01272e-19)
(3.31514 -7.20363 1.26063e-20)
(3.22677 -6.98119 1.01596e-19)
(3.13641 -6.76676 1.29368e-19)
(8.66843 -17.49 -8.25868e-20)
(7.84887 -17.0833 1.59708e-18)
(7.58792 -16.5006 1.19576e-18)
(7.38482 -15.9345 9.1065e-19)
(7.15906 -15.4089 -5.88052e-19)
(6.93878 -14.8999 -1.16113e-19)
(6.72514 -14.4024 1.09697e-19)
(6.51541 -13.9169 6.94061e-19)
(6.30972 -13.444 2.54891e-19)
(6.1088 -12.9847 6.05715e-19)
(5.91328 -12.5399 -8.2465e-19)
(5.72367 -12.1103 8.79226e-20)
(5.54033 -11.6964 3.24171e-19)
(5.36346 -11.2981 1.90362e-19)
(5.19313 -10.9152 3.84482e-19)
(5.02929 -10.5475 -2.67188e-19)
(4.87179 -10.1943 -2.36317e-19)
(4.72046 -9.85515 4.96069e-20)
(4.57508 -9.52946 4.85547e-19)
(4.43544 -9.21666 -7.72668e-19)
(4.30133 -8.91627 2.67924e-19)
(4.17257 -8.62785 -9.30563e-22)
(4.04902 -8.35102 4.76598e-19)
(3.93055 -8.08543 -2.07052e-19)
(3.81704 -7.83072 -1.27682e-20)
(3.70829 -7.58644 -1.23876e-19)
(3.60406 -7.35195 1.16643e-19)
(3.50479 -7.12598 2.81594e-20)
(3.41112 -6.90668 -1.20306e-19)
(3.31534 -6.69582 3.84996e-19)
(9.12422 -17.2607 -1.70488e-18)
(8.29679 -16.8804 -9.64615e-19)
(8.02239 -16.3078 -2.41044e-18)
(7.80543 -15.749 -1.05716e-18)
(7.56626 -15.2301 9.78313e-19)
(7.3326 -14.727 -5.5467e-19)
(7.10563 -14.2349 -1.21498e-19)
(6.88277 -13.7544 -3.48755e-19)
(6.66423 -13.2864 5.87758e-19)
(6.45082 -12.8319 -1.29226e-19)
(6.24323 -12.3918 -2.02142e-19)
(6.042 -11.967 -2.46433e-20)
(5.84751 -11.5576 -7.72233e-19)
(5.65997 -11.1638 -1.9228e-20)
(5.47941 -10.7854 2.07131e-19)
(5.30579 -10.422 -2.04581e-20)
(5.13893 -10.073 -7.35435e-19)
(4.97863 -9.73799 7.0439e-19)
(4.82467 -9.41624 -6.74532e-19)
(4.6768 -9.10725 2.59939e-19)
(4.53481 -8.81051 3.60677e-20)
(4.3985 -8.52561 1.44624e-20)
(4.26772 -8.25218 -2.5709e-19)
(4.14233 -7.98989 8.26971e-20)
(4.02223 -7.73841 -5.83915e-22)
(3.90721 -7.49735 2.52959e-20)
(3.79707 -7.26611 -5.87059e-19)
(3.69225 -7.04343 1.6305e-19)
(3.59341 -6.82747 1.68358e-19)
(3.49237 -6.6204 1.689e-19)
(9.57395 -17.0195 3.2937e-18)
(8.73949 -16.6658 1.07536e-18)
(8.452 -16.1037 6.1566e-19)
(8.22138 -15.5524 9.71119e-19)
(7.96894 -15.0404 -1.16692e-19)
(7.72202 -14.5436 6.90062e-19)
(7.48183 -14.0572 1.49841e-18)
(7.24593 -13.5821 -1.96052e-19)
(7.01463 -13.1193 7.7505e-20)
(6.78882 -12.6699 1.63639e-18)
(6.56926 -12.2349 -2.21264e-19)
(6.35652 -11.8151 2.1517e-19)
(6.15098 -11.4106 -7.26018e-20)
(5.95286 -11.0217 4.61252e-21)
(5.76218 -10.648 1.05981e-18)
(5.57887 -10.2892 4.10861e-20)
(5.40275 -9.94467 1.07329e-18)
(5.23359 -9.61395 -1.41167e-19)
(5.07114 -9.29639 -2.21057e-19)
(4.91513 -8.99145 5.1003e-19)
(4.76534 -8.69861 -4.53993e-19)
(4.62156 -8.41745 4.93346e-19)
(4.48362 -8.14762 2.5884e-19)
(4.35139 -7.88882 -2.02984e-19)
(4.22478 -7.64075 3.07126e-19)
(4.10358 -7.40308 3.56567e-20)
(3.9876 -7.17528 -1.17777e-19)
(3.87734 -6.95607 7.0214e-20)
(3.77345 -6.74363 4.22843e-19)
(3.6673 -6.54059 6.04419e-20)
(10.0173 -16.7665 -5.67154e-19)
(9.1767 -16.4397 -1.08838e-18)
(8.87647 -15.8883 4.27594e-19)
(8.63238 -15.3447 -1.72297e-18)
(8.36683 -14.8401 7.91048e-19)
(8.10677 -14.3498 -1.42271e-18)
(7.85347 -13.8693 -8.99577e-19)
(7.60462 -13.3999 2.49208e-19)
(7.36066 -12.9427 2.20829e-19)
(7.12256 -12.4988 -1.14292e-18)
(6.89113 -12.0692 -4.77209e-19)
(6.66698 -11.6547 2.06003e-19)
(6.4505 -11.2554 -5.81679e-19)
(6.24191 -10.8716 -2.23825e-19)
(6.04122 -10.5029 -1.45811e-19)
(5.84833 -10.149 -1.4511e-19)
(5.66305 -9.80923 -5.85492e-19)
(5.48512 -9.4831 -3.53821e-19)
(5.31428 -9.16999 6.96004e-20)
(5.15023 -8.86932 1.13543e-19)
(4.99273 -8.58061 1.1268e-19)
(4.84155 -8.30341 -3.98983e-19)
(4.69653 -8.0374 1.44434e-19)
(4.55754 -7.78229 -2.9663e-19)
(4.42448 -7.53783 2.68303e-19)
(4.29718 -7.30373 -3.5415e-19)
(4.17545 -7.07952 1.03846e-19)
(4.05985 -6.86396 -1.70158e-19)
(3.95103 -6.65522 -2.31276e-19)
(3.83995 -6.45645 -2.2257e-20)
(10.4541 -16.5021 -1.17998e-18)
(9.60812 -16.2022 -9.72426e-19)
(9.29551 -15.6617 -9.24835e-19)
(9.03815 -15.1261 -6.49132e-19)
(8.75964 -14.6291 2.00872e-18)
(8.48657 -14.1456 2.65326e-19)
(8.22026 -13.6714 8.15768e-19)
(7.95858 -13.2081 1.21248e-18)
(7.70206 -12.7568 5.6032e-19)
(7.45179 -12.3187 -7.47967e-19)
(7.2086 -11.8948 1.14227e-18)
(6.97315 -11.4859 -1.10324e-18)
(6.74585 -11.0922 1.00902e-18)
(6.5269 -10.7138 1.10259e-19)
(6.31631 -10.3504 2.45116e-19)
(6.11396 -10.0016 8.05747e-20)
(5.91963 -9.6668 9.4709e-19)
(5.73304 -9.34552 -1.40687e-19)
(5.55389 -9.03708 1.19694e-19)
(5.38189 -8.74094 3.95477e-19)
(5.21676 -8.45657 -4.365e-19)
(5.05828 -8.18357 3.35885e-19)
(4.90626 -7.92158 9.2688e-21)
(4.76058 -7.67037 1.45391e-19)
(4.62114 -7.4297 2.5902e-19)
(4.4878 -7.19934 -4.51424e-20)
(4.36041 -6.97891 2.47896e-19)
(4.23957 -6.76716 3.46134e-19)
(4.12594 -6.56232 -3.77268e-19)
(4.01009 -6.36806 -2.09479e-19)
(10.8839 -16.2262 3.40006e-18)
(10.0335 -15.9534 -3.59741e-19)
(9.70885 -15.4241 7.15978e-19)
(9.43841 -14.8967 1.27752e-18)
(9.14709 -14.4075 -3.57911e-18)
(8.86114 -13.9311 3.74488e-19)
(8.58194 -13.4636 -1.2897e-18)
(8.30754 -13.0067 1.23883e-18)
(8.03859 -12.5617 -9.76136e-19)
(7.77624 -12.1297 4.94714e-19)
(7.52142 -11.7118 -1.80732e-18)
(7.2748 -11.3088 7.11456e-20)
(7.0368 -10.9209 -5.51316e-19)
(6.80762 -10.5482 8.34136e-19)
(6.58725 -10.1903 -8.69922e-19)
(6.37555 -9.84695 -4.78002e-20)
(6.17227 -9.51746 -6.66937e-19)
(5.97712 -9.20125 -4.84295e-20)
(5.78978 -8.89774 4.70835e-20)
(5.60992 -8.60635 1.33627e-19)
(5.43726 -8.32656 -7.60722e-19)
(5.27154 -8.05796 -2.0452e-20)
(5.11259 -7.80022 -4.06804e-19)
(4.96029 -7.5531 -9.43951e-20)
(4.81454 -7.31642 -2.38304e-19)
(4.67523 -7.09 -2.53461e-19)
(4.54224 -6.87352 -2.54752e-19)
(4.41625 -6.66577 4.25454e-19)
(4.29794 -6.46501 1.10714e-19)
(4.1775 -6.27551 -1.99605e-19)
(11.3065 -15.9392 -2.26213e-18)
(10.4526 -15.6936 7.89601e-19)
(10.1162 -15.1756 -1.30151e-18)
(9.83288 -14.6566 1.93985e-19)
(9.52892 -14.1755 2.00595e-18)
(9.23021 -13.7066 -1.00451e-18)
(8.93825 -13.246 -1.00159e-18)
(8.65123 -12.7958 -8.49708e-19)
(8.36997 -12.3573 4.67922e-20)
(8.09569 -11.9318 5.25656e-19)
(7.82936 -11.5203 -3.64148e-19)
(7.5717 -11.1235 2.76546e-20)
(7.32314 -10.7418 1.06373e-18)
(7.08386 -10.375 -5.32216e-19)
(6.85383 -10.023 1.27643e-19)
(6.6329 -9.68526 -4.06739e-19)
(6.4208 -9.36126 1.539e-19)
(6.2172 -9.05038 3.2701e-19)
(6.02175 -8.75202 3.48334e-19)
(5.83413 -8.4656 -3.8068e-19)
(5.65401 -8.19062 5.95209e-20)
(5.48114 -7.92664 3.09927e-19)
(5.31533 -7.67336 5.24457e-19)
(5.15645 -7.43055 1.28659e-19)
(5.00446 -7.19806 -5.20075e-19)
(4.85923 -6.97578 5.90973e-19)
(4.72071 -6.76343 -2.94198e-19)
(4.58965 -6.55987 -3.40451e-19)
(4.46676 -6.36338 -2.05159e-19)
(4.34194 -6.17887 -2.55006e-19)
(11.7219 -15.6411 1.17726e-18)
(10.8651 -15.4228 -8.94355e-19)
(10.5174 -14.9163 3.51783e-19)
(10.2213 -14.406 1.72008e-18)
(9.90483 -13.9332 4.52338e-19)
(9.5935 -13.472 -3.77426e-19)
(9.2889 -13.0187 9.03673e-19)
(8.98941 -12.5756 2.24485e-19)
(8.69596 -12.144 8.0034e-19)
(8.40988 -11.7252 4.30737e-19)
(8.13219 -11.3204 2.04863e-20)
(7.86364 -10.9301 2.57136e-19)
(7.60465 -10.5548 -8.00631e-20)
(7.3554 -10.1943 1.3531e-19)
(7.11586 -9.84837 3.59703e-19)
(6.88583 -9.51655 -1.94058e-19)
(6.66502 -9.19828 4.65856e-19)
(6.45307 -8.89296 4.61703e-19)
(6.24963 -8.59998 -5.15917e-19)
(6.05433 -8.31875 5.24417e-19)
(5.86683 -8.04878 1.07871e-18)
(5.68687 -7.78964 -6.8596e-19)
(5.51425 -7.54103 6.69262e-19)
(5.34886 -7.30274 -4.6694e-19)
(5.19064 -7.07465 -6.28002e-20)
(5.03954 -6.8567 4.7312e-19)
(4.89553 -6.64871 -9.80375e-20)
(4.75947 -6.44953 3.41635e-19)
(4.63211 -6.25753 3.31442e-19)
(4.5031 -6.07835 -6.16517e-19)
(12.1296 -15.3321 -1.1295e-18)
(11.2709 -15.1413 5.17098e-19)
(10.9121 -14.6464 2.00664e-19)
(10.6034 -14.1449 -1.98863e-18)
(10.2746 -13.6807 -9.95107e-19)
(9.95076 -13.2275 7.26138e-19)
(9.63365 -12.7819 -1.96594e-18)
(9.32182 -12.3461 2.31252e-18)
(9.01633 -11.9217 -1.27531e-18)
(8.71859 -11.5101 1.49505e-19)
(8.42969 -11.1122 -2.43233e-19)
(8.15038 -10.7288 -6.66922e-19)
(7.88112 -10.3601 1.35665e-18)
(7.62206 -10.0062 4.89923e-19)
(7.37314 -9.66658 -5.14034e-19)
(7.13414 -9.34092 1.31137e-20)
(6.90474 -9.02861 2.66321e-19)
(6.68458 -8.72906 -5.67146e-19)
(6.47324 -8.44166 1.19631e-19)
(6.27034 -8.16583 3.73179e-19)
(6.07554 -7.90107 -1.58075e-19)
(5.88855 -7.64697 2.4358e-19)
(5.70916 -7.40323 -4.78553e-19)
(5.53726 -7.16966 6.72264e-19)
(5.37283 -6.94618 1.46653e-19)
(5.21584 -6.73278 -4.1392e-19)
(5.06635 -6.52935 -3.44585e-19)
(4.9253 -6.33479 6.51728e-21)
(4.79349 -6.14757 4.62372e-19)
(4.6604 -5.97411 -1.026e-19)
(12.5298 -15.0124 -3.06907e-19)
(11.6698 -14.849 -2.04877e-18)
(11.2999 -14.3658 2.42061e-18)
(10.9789 -13.8734 1.59152e-18)
(10.6379 -13.4182 1.53597e-18)
(10.3017 -12.9733 4.01113e-19)
(9.97222 -12.5356 6.08702e-19)
(9.64819 -12.1075 2.97647e-19)
(9.3308 -11.6907 -1.16819e-18)
(9.02157 -11.2865 2.10244e-18)
(8.72162 -10.8959 -1.62619e-18)
(8.43173 -10.5196 -9.59356e-20)
(8.15236 -10.1579 2.3401e-19)
(7.88364 -9.81074 -9.68501e-19)
(7.62549 -9.47773 8.38578e-19)
(7.37767 -9.15844 -2.53166e-19)
(7.13982 -8.85231 -6.14469e-19)
(6.91155 -8.55874 2.2557e-19)
(6.69242 -8.27711 -4.39701e-19)
(6.48202 -8.00687 -3.78661e-19)
(6.27999 -7.74751 -3.90997e-19)
(6.08601 -7.49863 8.78233e-20)
(5.89988 -7.25995 4.25035e-20)
(5.72147 -7.03128 -9.03153e-19)
(5.55079 -6.81259 -3.29612e-19)
(5.38786 -6.60394 2.17682e-19)
(5.2328 -6.40529 2.57831e-19)
(5.08667 -6.21559 -3.52395e-19)
(4.95029 -6.03346 -1.30186e-19)
(4.81309 -5.86592 9.495e-21)
(12.9224 -14.6824 -2.86026e-19)
(12.0615 -14.5464 1.32793e-18)
(11.6808 -14.0749 -3.76372e-19)
(11.3475 -13.5917 -4.56797e-19)
(10.9944 -13.1457 -2.36545e-18)
(10.646 -12.7095 -4.93624e-19)
(10.3043 -12.28 9.34917e-19)
(9.96825 -11.86 -6.00388e-19)
(9.63913 -11.451 -5.94028e-20)
(9.31857 -11.0546 -1.19169e-19)
(9.00775 -10.6716 6.12147e-19)
(8.70746 -10.3027 -9.52218e-19)
(8.41815 -9.94827 -6.16943e-19)
(8.13995 -9.6081 7.06826e-19)
(7.87274 -9.28191 -3.91687e-19)
(7.61625 -8.96923 -4.59061e-19)
(7.3701 -8.66948 9.6743e-19)
(7.13384 -8.38206 -1.53296e-19)
(6.90703 -8.10639 5.37564e-19)
(6.68923 -7.8419 -4.89167e-19)
(6.48003 -7.5881 -3.80252e-19)
(6.27912 -7.3446 3.28269e-19)
(6.08626 -7.11113 -3.99045e-20)
(5.90134 -6.88754 -2.33194e-19)
(5.72437 -6.67381 2.02266e-19)
(5.5554 -6.47012 -6.09385e-19)
(5.39467 -6.2765 3.7171e-19)
(5.24333 -6.09196 -6.0608e-21)
(5.10226 -5.91513 -3.67247e-19)
(4.96111 -5.75341 5.19686e-19)
(13.3082 -14.3427 1.05761e-18)
(12.4465 -14.2335 -2.60816e-18)
(12.0544 -13.7736 -2.04246e-19)
(11.7089 -13.2999 1.14262e-18)
(11.3439 -12.8632 -2.8129e-19)
(10.9834 -12.4361 -7.81031e-19)
(10.6296 -12.0152 3.52876e-19)
(10.2817 -11.6036 3.95525e-19)
(9.94105 -11.2029 2.96583e-20)
(9.60935 -10.8145 4.63724e-19)
(9.28785 -10.4394 1.44346e-18)
(8.97736 -10.0782 -5.08088e-19)
(8.67831 -9.73129 1.18472e-19)
(8.3908 -9.3984 -3.11793e-19)
(8.11471 -9.07925 1.19435e-18)
(7.84972 -8.77337 -2.09107e-19)
(7.59542 -8.48018 6.71746e-19)
(7.35133 -8.1991 -2.54711e-19)
(7.11696 -7.92952 2.67094e-19)
(6.89184 -7.67092 3.94704e-19)
(6.67555 -7.42281 6.40203e-20)
(6.46773 -7.18482 2.52653e-19)
(6.26814 -6.95668 -2.02685e-19)
(6.07665 -6.73829 5.60351e-19)
(5.89329 -6.52972 -2.24256e-19)
(5.71818 -6.33123 8.00914e-19)
(5.55169 -6.14301 -2.31243e-19)
(5.39515 -5.96401 1.53369e-19)
(5.24954 -5.79294 -2.86062e-19)
(5.10494 -5.63816 5.01454e-19)
(13.6883 -13.9936 -2.35219e-18)
(12.8248 -13.91 9.19031e-20)
(12.4207 -13.4617 -1.26532e-18)
(12.0628 -12.9978 2.23215e-19)
(11.686 -12.5711 6.11782e-20)
(11.3137 -12.1533 -1.02429e-18)
(10.948 -11.7414 -1.88201e-18)
(10.5883 -11.3386 9.16519e-19)
(10.2363 -10.9464 -1.2804e-18)
(9.89371 -10.5664 -6.49757e-19)
(9.56174 -10.1995 -3.58237e-19)
(9.24124 -9.84636 -2.71377e-19)
(8.93265 -9.50716 1.07e-22)
(8.63605 -9.18178 -9.58299e-19)
(8.35127 -8.86989 5.93723e-19)
(8.07797 -8.57101 -9.78551e-19)
(7.81569 -8.28455 -2.40435e-19)
(7.56392 -8.00995 2.54547e-19)
(7.32214 -7.7466 3.13282e-19)
(7.08983 -7.49398 3.02634e-19)
(6.86651 -7.25162 2.26473e-19)
(6.6518 -7.01916 -5.60892e-19)
(6.44539 -6.79637 5.52123e-19)
(6.24714 -6.58318 -5.99477e-20)
(6.05703 -6.37978 -1.42992e-19)
(5.87525 -6.1866 -5.51847e-19)
(5.70243 -6.00392 -2.8507e-19)
(5.54019 -5.83087 5.22233e-19)
(5.38944 -5.66728 -1.73412e-19)
(5.24089 -5.52442 -1.63524e-19)
(14.0617 -13.6332 1.03869e-18)
(13.196 -13.5743 1.07422e-19)
(12.7792 -13.1387 -2.47495e-19)
(12.4089 -12.6857 -4.36939e-20)
(12.0205 -12.2695 -4.07768e-19)
(11.6365 -11.8615 1.38548e-18)
(11.2591 -11.4591 -6.34823e-19)
(10.888 -11.0653 4.17992e-19)
(10.5249 -10.682 1.72901e-19)
(10.1716 -10.3107 5.75952e-19)
(9.82932 -9.95227 -2.07034e-19)
(9.49904 -9.60737 1.18114e-18)
(9.18112 -9.27616 -9.84259e-20)
(8.87563 -8.95852 7.2187e-19)
(8.58236 -8.65408 -1.18141e-18)
(8.30094 -8.36236 -7.64374e-20)
(8.03088 -8.0828 7.33218e-19)
(7.77163 -7.8148 -4.43289e-19)
(7.52261 -7.55777 -3.05433e-19)
(7.28326 -7.31119 -5.12722e-19)
(7.05307 -7.07458 -4.30986e-19)
(6.83157 -6.84759 4.68232e-19)
(6.61836 -6.62999 -4.19017e-19)
(6.41317 -6.42172 9.42138e-20)
(6.21582 -6.22303 3.30537e-19)
(6.02634 -6.03445 2.22771e-19)
(5.84537 -5.85635 2.0309e-19)
(5.67428 -5.6887 1.46719e-19)
(5.51279 -5.53483 -3.97867e-19)
(5.35474 -5.40786 -1.57859e-19)
(19.6877 0.303198 1.27883e-20)
(19.6815 -0.215647 1.21827e-19)
(19.6622 -0.732381 4.2339e-19)
(19.631 -1.24734 2.29425e-19)
(19.5875 -1.76067 -4.95461e-19)
(19.5308 -2.27223 1.48974e-19)
(19.461 -2.78179 -1.5323e-19)
(19.378 -3.2891 -3.91596e-19)
(19.2818 -3.79388 1.02367e-18)
(19.1726 -4.29583 -2.44482e-19)
(19.0503 -4.79462 -2.38587e-19)
(18.915 -5.28993 -5.19771e-19)
(18.7668 -5.78143 -1.50589e-18)
(18.6059 -6.26881 1.39502e-19)
(18.4324 -6.75173 -5.06782e-20)
(18.2463 -7.22987 -4.96063e-19)
(18.0479 -7.70292 1.02189e-18)
(17.8372 -8.17055 5.6886e-19)
(17.6145 -8.63245 1.06972e-18)
(17.3799 -9.08833 5.1964e-19)
(17.1335 -9.53787 -1.21096e-18)
(16.8755 -9.98079 5.15727e-20)
(16.6062 -10.4168 -2.31111e-18)
(16.3257 -10.8456 3.52005e-18)
(16.0343 -11.267 -1.14868e-18)
(15.7321 -11.6808 -1.5304e-18)
(15.4194 -12.0867 -2.28592e-19)
(15.0968 -12.4845 -3.16869e-20)
(14.7633 -12.875 -1.20166e-18)
(14.4227 -13.2565 2.101e-18)
(19.1562 -0.269998 4.73772e-20)
(19.135 -0.773506 6.76242e-20)
(19.1001 -1.27469 1.4092e-20)
(19.0523 -1.77373 -6.08029e-19)
(18.9919 -2.27078 -5.44185e-19)
(18.9185 -2.76571 4.78713e-19)
(18.8323 -3.25822 5.93763e-19)