/*--------------------------------*- C++ -*----------------------------------*\
| =========                 |                                                 |
| \\      /  F ield         | OpenFOAM: The Open Source CFD Toolbox           |
|  \\    /   O peration     | Version:  v1912                                 |
|   \\  /    A nd           | Website:  www.openfoam.com                      |
|    \\/     M anipulation  |                                                 |
\*---------------------------------------------------------------------------*/
FoamFile
{
    version     2.0;
    format      ascii;
    class       surfaceScalarField;
    location    "18";
    object      phi;
}
// * * * * * * * * * * * * * * * * * * * * * * * * * * * * * * * * * * * * * //

dimensions      [0 3 -1 0 0 0 0];
oriented        oriented;


internalField   nonuniform List<scalar> 
18940
(
0.000326203
-0.234939
0.234613
0.00126441
-0.217319
0.216381
0.00265006
-0.205796
0.204411
0.00432376
-0.19781
0.196137
0.00616479
-0.191748
0.189907
0.00807928
-0.186609
0.184695
0.00999926
-0.181841
0.179921
0.0118793
-0.177169
0.175289
0.013692
-0.172477
0.170664
0.0154234
-0.167739
0.166007
0.0170694
-0.162975
0.161329
0.0186323
-0.158226
0.156663
0.0201188
-0.153534
0.152048
0.0215382
-0.148942
0.147523
0.0229008
-0.144481
0.143118
0.0242177
-0.140173
0.138856
0.0254996
-0.136026
0.134745
0.0267563
-0.132038
0.130781
0.0279956
-0.128188
0.126948
-0.124436
0.123209
0.029222
0.000348944
-0.235288
0.00130665
-0.218277
0.00270279
-0.207193
0.00438186
-0.19949
0.00621955
-0.193586
0.00812196
-0.188512
0.0100222
-0.183742
0.0118764
-0.179023
0.0136587
-0.174259
0.0153567
-0.169437
0.0169678
-0.164586
0.0184955
-0.159753
0.0199473
-0.154986
0.0213331
-0.150328
0.0226636
-0.145811
0.0239503
-0.141459
0.025204
-0.13728
0.0264351
-0.133269
0.0276517
-0.129404
-0.125643
0.0288591
0.000369833
-0.235658
0.00134342
-0.219251
0.00274857
-0.208598
0.00442959
-0.201171
0.00626066
-0.195417
0.00814768
-0.190399
0.0100249
-0.185619
0.01185
-0.180848
0.0135989
-0.176008
0.0152609
-0.171099
0.0168347
-0.16616
0.0183251
-0.161244
0.0197404
-0.156402
0.0210909
-0.151678
0.022388
-0.147109
0.023643
-0.142714
0.0248672
-0.138504
0.0260713
-0.134473
0.0272639
-0.130597
-0.12683
0.0284511
0.000383238
-0.236041
0.0013717
-0.220239
0.00278541
-0.210011
0.0044662
-0.202851
0.00628762
-0.197239
0.00815601
-0.192267
0.010007
-0.18747
0.0117999
-0.182641
0.0135126
-0.177721
0.0151361
-0.172722
0.0166705
-0.167695
0.0181217
-0.162695
0.0194988
-0.157779
0.0208127
-0.152992
0.0220749
-0.148371
0.023297
-0.143936
0.0244906
-0.139698
0.0256666
-0.135649
0.0268341
-0.131764
-0.127997
0.0280002
0.00039414
-0.236435
0.00139492
-0.22124
0.00281466
-0.211431
0.00449229
-0.204529
0.00630082
-0.199047
0.0081473
-0.194114
0.00996882
-0.189291
0.0117267
-0.184399
0.0134005
-0.179395
0.0149831
-0.174305
0.016476
-0.169187
0.0178862
-0.164105
0.0192236
-0.159116
0.0204994
-0.154268
0.0217255
-0.149597
0.0229137
-0.145124
0.0240756
-0.14086
0.0252223
-0.136796
0.0263638
-0.132906
-0.129141
0.0275081
0.000402962
-0.236838
0.00141349
-0.22225
0.00283655
-0.212854
0.00450804
-0.206201
0.00630048
-0.20084
0.00812183
-0.195935
0.00991081
-0.19108
0.0116307
-0.186119
0.0132631
-0.181027
0.0148025
-0.175844
0.016252
-0.170637
0.0176194
-0.165473
0.0189156
-0.160412
0.0201521
-0.155505
0.0213409
-0.150786
0.0224939
-0.146277
0.0236229
-0.141989
0.0247395
-0.137912
0.0258541
-0.13402
-0.130262
0.0269757
0.000410279
-0.237248
0.00142809
-0.223268
0.00285161
-0.214278
0.00451389
-0.207863
0.00628703
-0.202613
0.00808006
-0.197728
0.00983348
-0.192834
0.0115126
-0.187798
0.0131011
-0.182615
0.0145951
-0.177338
0.0159992
-0.172041
0.0173222
-0.166796
0.0185757
-0.161666
0.0197715
-0.1567
0.0209218
-0.151936
0.0220384
-0.147394
0.0231334
-0.143084
0.0242186
-0.138998
0.0253051
-0.135107
-0.13136
0.0264031
0.000416244
-0.237665
0.00143902
-0.224291
0.00286024
-0.215699
0.00451025
-0.209513
0.00626095
-0.204363
0.00802255
-0.19949
0.0097375
-0.194549
0.0113732
-0.189434
0.0129153
-0.184157
0.0143618
-0.178785
0.0157185
-0.173398
0.0169955
-0.168073
0.0182046
-0.162875
0.0193583
-0.157854
0.0204687
-0.153046
0.0215477
-0.148473
0.0226073
-0.144144
0.0236596
-0.14005
0.0247168
-0.136164
-0.132434
0.0257899
0.000420962
-0.238086
0.00144656
-0.225317
0.00286283
-0.217115
0.00449763
-0.211148
0.00622282
-0.206089
0.00795002
-0.201217
0.00962366
-0.196222
0.0112133
-0.191024
0.0127067
-0.185651
0.0141036
-0.180182
0.0154111
-0.174705
0.0166401
-0.169302
0.0178034
-0.164038
0.0189133
-0.158964
0.0199823
-0.154115
0.021022
-0.149513
0.0220445
-0.145166
0.0230623
-0.141068
0.0240883
-0.13719
-0.13348
0.0251351
0.000424504
-0.23851
0.00145098
-0.226343
0.00285982
-0.218524
0.0044766
-0.212764
0.00617336
-0.207785
0.00786328
-0.202907
0.00949292
-0.197852
0.0110341
-0.192565
0.0124765
-0.187093
0.0138216
-0.181527
0.0150778
-0.175961
0.0162572
-0.170481
0.0173727
-0.165153
0.0184372
-0.160029
0.0194628
-0.155141
0.0204614
-0.150511
0.0214447
-0.146149
0.0224256
-0.142049
0.0234182
-0.138183
-0.134499
0.0244365
0.00042697
-0.238937
0.0014526
-0.227369
0.00285175
-0.219923
0.00444784
-0.21436
0.00611341
-0.209451
0.00776335
-0.204557
0.00934644
-0.199435
0.0108367
-0.194055
0.0122259
-0.188482
0.0135172
-0.182818
0.0147203
-0.177164
0.0158479
-0.171609
0.0169136
-0.166219
0.0179306
-0.161046
0.0189108
-0.156121
0.0198657
-0.151466
0.0208072
-0.147091
0.0217485
-0.14299
0.0227045
-0.139139
-0.135486
0.0236915
0.00042851
-0.239366
0.00145184
-0.228392
0.00283924
-0.221311
0.00441218
-0.215933
0.00604397
-0.211083
0.00765142
-0.206164
0.00918558
-0.200969
0.0106228
-0.195492
0.0119567
-0.189816
0.0131921
-0.184054
0.01434
-0.178312
0.0154138
-0.172682
0.0164276
-0.167233
0.0173946
-0.162013
0.0183267
-0.157053
0.0192352
-0.152375
0.0201317
-0.147987
0.0210295
-0.143888
0.021945
-0.140054
-0.136437
0.0228967
0.000429396
-0.239795
0.0014493
-0.229412
0.00282309
-0.222684
0.00437061
-0.217481
0.00596623
-0.212678
0.00752888
-0.207727
0.00901194
-0.202452
0.010394
-0.196874
0.0116707
-0.191093
0.0128484
-0.185231
0.013939
-0.179403
0.0149568
-0.1737
0.0159162
-0.168192
0.0168305
-0.162927
0.0177116
-0.157934
0.0185702
-0.153234
0.0194176
-0.148835
0.0202674
-0.144738
0.0211373
-0.140924
-0.137348
0.0220482
0.000430095
-0.240225
0.0014458
-0.230428
0.0028043
-0.224043
0.00432427
-0.219001
0.00588155
-0.214236
0.00739732
-0.209243
0.00882738
-0.203882
0.0101525
-0.198199
0.0113703
-0.192311
0.0124885
-0.186349
0.0135199
-0.180434
0.0144795
-0.17466
0.0153819
-0.169095
0.0162405
-0.163785
0.0170667
-0.15876
0.017871
-0.154038
0.0186644
-0.149628
0.0194602
-0.145533
0.0202773
-0.141741
-0.138211
0.0211399
0.0004314
-0.240656
0.00144247
-0.231439
0.00278403
-0.225384
0.00427445
-0.220491
0.00579141
-0.215753
0.00725851
-0.21071
0.00863398
-0.205258
0.00990082
-0.199466
0.0110583
-0.193468
0.0121155
-0.187407
0.0130862
-0.181405
0.0139855
-0.175559
0.0148283
-0.169938
0.0156276
-0.164585
0.0163947
-0.159528
0.0171394
-0.154783
0.0178719
-0.150361
0.0186053
-0.146267
0.0193593
-0.142495
-0.139015
0.0201637
0.000434445
-0.241091
0.0014406
-0.232445
0.00276343
-0.226707
0.0042224
-0.22195
0.00569737
-0.217228
0.00711435
-0.212127
0.00843404
-0.206578
0.00964156
-0.200674
0.0107379
-0.194565
0.0117333
-0.188402
0.012642
-0.182314
0.0134796
-0.176397
0.0142605
-0.170719
0.0149975
-0.165322
0.0157012
-0.160231
0.0163804
-0.155462
0.0170442
-0.151024
0.0177046
-0.146927
0.0183827
-0.143173
-0.139749
0.0191167
0.000440605
-0.241532
0.00144144
-0.233446
0.00274373
-0.22801
0.0041696
-0.223376
0.00560116
-0.218659
0.00696689
-0.213492
0.00822998
-0.207841
0.0093777
-0.201821
0.0104126
-0.1956
0.0113459
-0.189335
0.0121923
-0.18316
0.0129672
-0.177172
0.0136848
-0.171436
0.0143572
-0.165994
0.014994
-0.160868
0.0156031
-0.156071
0.0161918
-0.151613
0.0167703
-0.147506
0.0173597
-0.143763
-0.140389
0.018
0.000452206
-0.241984
0.00144761
-0.234441
0.00272736
-0.229289
0.00411806
-0.224767
0.00550461
-0.220046
0.00681808
-0.214806
0.00802416
-0.209047
0.00911221
-0.202909
0.0100862
-0.196574
0.0109581
-0.190207
0.0117427
-0.183945
0.012455
-0.177884
0.0131082
-0.17209
0.0137135
-0.166599
0.0142792
-0.161434
0.0148122
-0.156604
0.0153186
-0.152119
0.0158049
-0.147992
0.0162851
-0.144243
-0.14089
0.0167859
0.000476837
-0.242461
0.00146632
-0.235431
0.00271834
-0.230541
0.0040696
-0.226118
0.00540883
-0.221385
0.00666918
-0.216066
0.00781842
-0.210196
0.0088478
-0.203939
0.00976264
-0.197489
0.0105754
-0.19102
0.0113008
-0.18467
0.0119529
-0.178536
0.0125432
-0.17268
0.0130802
-0.167136
0.0135692
-0.161923
0.0140133
-0.157048
0.0144141
-0.15252
0.0147701
-0.148348
0.0150863
-0.144559
-0.14123
0.0154264
0.000534576
-0.242995
0.00150607
-0.236402
0.00271631
-0.231752
0.0040229
-0.227425
0.00531321
-0.222675
0.00652043
-0.217273
0.00761386
-0.211289
0.00858653
-0.204912
0.00944517
-0.198347
0.010203
-0.191778
0.0108748
-0.185342
0.011474
-0.179135
0.0120103
-0.173216
0.0124891
-0.167615
0.0129101
-0.162344
0.0132661
-0.157404
0.013541
-0.152795
0.0137089
-0.148516
0.0137623
-0.144612
-0.141384
0.0139155
0.250233
0.000396284
-0.25063
0.249864
0.000369449
0.249502
0.000361616
0.249141
0.000361289
0.248777
0.000363879
0.248409
0.000367902
0.248037
0.000372651
0.247659
0.000377548
0.247277
0.000382197
0.246891
0.000386393
0.2465
0.000390036
0.246107
0.000393096
0.245712
0.00039555
0.245314
0.000397372
0.244916
0.000398433
0.244518
0.000398522
0.244121
0.000396584
0.243729
0.000392064
0.243353
0.000375764
0.000357984
0.25135
0.000972761
-0.251926
0.25074
0.000979597
0.250103
0.000998534
0.24944
0.00102353
0.248754
0.00105009
0.248045
0.00107667
0.247315
0.00110279
0.246565
0.00112797
0.245795
0.00115178
0.245008
0.00117396
0.244203
0.00119437
0.243384
0.00121298
0.242549
0.00122977
0.241702
0.00124473
0.240843
0.0012577
0.239973
0.00126846
0.239093
0.00127588
0.238206
0.0012797
0.237308
0.00127353
0.00126393
0.249495
0.0015127
-0.250035
0.248892
0.00158218
0.248239
0.00165181
0.24754
0.00172268
0.246798
0.00179255
0.246014
0.00186
0.245192
0.00192471
0.244334
0.00198642
0.243441
0.0020449
0.242515
0.00209996
0.241558
0.00215153
0.240571
0.00219964
0.239556
0.00224434
0.238515
0.00228572
0.237449
0.00232377
0.236359
0.00235849
0.235246
0.00238935
0.234109
0.00241656
0.232945
0.00243772
0.00245702
0.244966
0.00193228
-0.245385
0.24448
0.00206856
0.243931
0.00220013
0.243325
0.00232863
0.242664
0.00245355
0.24195
0.00257392
0.241186
0.00268938
0.240372
0.00279977
0.239512
0.00290492
0.238608
0.00300473
0.23766
0.00309919
0.236671
0.00318839
0.235643
0.00327252
0.234577
0.0033518
0.233474
0.00342647
0.232336
0.00349686
0.231162
0.00356302
0.229953
0.00362554
0.228707
0.00368371
0.00373947
0.238458
0.00219745
-0.238723
0.238125
0.00240187
0.237726
0.00259947
0.237263
0.00279124
0.236739
0.00297729
0.236156
0.00315701
0.235515
0.00333004
0.234819
0.00349617
0.234069
0.00365526
0.233266
0.00380723
0.232413
0.00395211
0.231512
0.00409008
0.230563
0.00422139
0.229568
0.00434648
0.228529
0.00446581
0.227446
0.00458003
0.226319
0.00468967
0.225149
0.00479566
0.223934
0.00489811
0.00499862
0.230711
0.00231582
-0.230829
0.230525
0.0025877
0.230273
0.00285164
0.229956
0.00310806
0.229576
0.0033571
0.229135
0.00359834
0.228633
0.00383142
0.228073
0.00405608
0.227457
0.00427216
0.226784
0.00447959
0.226058
0.0046784
0.225279
0.00486882
0.224449
0.00505121
0.22357
0.00522613
0.222641
0.00539432
0.221664
0.00555673
0.22064
0.00571434
0.219567
0.00586846
0.218445
0.00601988
0.00617038
0.222379
0.00231566
-0.222379
0.222315
0.00265264
0.222185
0.00298095
0.221993
0.00330062
0.221738
0.00361166
0.221423
0.00391369
0.221048
0.00420634
0.220615
0.00448931
0.220124
0.00476237
0.219579
0.00502544
0.218978
0.00527855
0.218325
0.00552194
0.21762
0.00575605
0.216865
0.00598159
0.21606
0.00619953
0.215205
0.00641115
0.214302
0.00661789
0.213349
0.00682154
0.212345
0.00702357
0.00722602
0.213957
0.00223068
-0.213872
0.213981
0.00262945
0.213943
0.00301899
0.213844
0.00339907
0.213686
0.00376952
0.21347
0.00412995
0.213196
0.00447995
0.212867
0.00481915
0.212482
0.00514727
0.212043
0.00546416
0.211552
0.00576984
0.211009
0.00606453
0.210416
0.00634874
0.209775
0.00662329
0.209085
0.00688939
0.208347
0.00714864
0.207562
0.00740302
0.206729
0.0076549
0.205846
0.0079065
0.00816039
0.20577
0.00209201
-0.205631
0.20585
0.00254906
0.205873
0.00299634
0.205839
0.00343344
0.205748
0.00386008
0.205602
0.0042758
0.205402
0.00468011
0.205149
0.00507257
0.204843
0.00545283
0.204487
0.00582066
0.20408
0.00617602
0.203626
0.0065191
0.203124
0.0068504
0.202577
0.00717084
0.201984
0.00748183
0.201348
0.00778533
0.200667
0.00808392
0.199941
0.00838067
0.199169
0.00867881
0.00898172
0.198006
0.00192503
-0.197839
0.198118
0.00243702
0.198176
0.00293869
0.19818
0.00342951
0.198131
0.00390909
0.198029
0.00437687
0.197877
0.00483229
0.197675
0.00527482
0.197424
0.005704
0.197125
0.00611951
0.19678
0.00652121
0.19639
0.0069092
0.195956
0.00728393
0.195481
0.00764635
0.194964
0.00799804
0.194409
0.00834128
0.193813
0.00867933
0.193178
0.0090161
0.1925
0.00935624
0.0097043
0.190754
0.00174857
-0.190578
0.190879
0.00231259
0.190952
0.00286573
0.190974
0.00340735
0.190946
0.00393693
0.190869
0.00445381
0.190744
0.00495737
0.190572
0.00544694
0.190354
0.00592197
0.190092
0.006382
0.189786
0.00682673
0.189439
0.00725612
0.189052
0.00767053
0.188628
0.00807077
0.188168
0.00845856
0.187672
0.00883638
0.187143
0.00920831
0.18658
0.00957911
0.185981
0.00995551
0.0103437
0.184038
0.0015755
-0.183865
0.184162
0.0021892
0.184236
0.00279144
0.184262
0.00338142
0.18424
0.00395852
0.184172
0.00452201
0.184058
0.00507114
0.1839
0.00560515
0.183699
0.00612334
0.183456
0.00662508
0.183173
0.00710988
0.182851
0.00757747
0.182494
0.008028
0.182102
0.00846205
0.18168
0.00888135
0.181228
0.00928829
0.180748
0.009688
0.180241
0.0100858
0.179705
0.0104917
0.0109136
0.177841
0.00141398
-0.177679
0.177954
0.0020756
0.178021
0.00272505
0.178041
0.00336145
0.178015
0.0039841
0.177945
0.00459217
0.177831
0.0051848
0.177675
0.00576111
0.177479
0.00632024
0.177242
0.00686137
0.176968
0.00738376
0.176659
0.00788684
0.176317
0.00837042
0.175944
0.00883464
0.175544
0.00928109
0.175121
0.00971168
0.174676
0.0101327
0.174212
0.0105495
0.173727
0.0109771
0.0114245
0.172123
0.0012688
-0.171978
0.172221
0.00197694
0.172274
0.00267212
0.172282
0.00335346
0.172246
0.00402012
0.172167
0.00467119
0.172046
0.00530569
0.171885
0.00592261
0.171684
0.00652094
0.171446
0.00709962
0.171172
0.00765766
0.170865
0.00819405
0.170527
0.0087082
0.170162
0.00919954
0.169774
0.00966928
0.169368
0.0101181
0.168946
0.010554
0.168516
0.0109799
0.168073
0.0114204
0.0118819
0.166836
0.00114237
-0.166709
0.166917
0.00189595
0.166953
0.0026357
0.166946
0.00336077
0.166896
0.00407021
0.166804
0.004763
0.166671
0.00543809
0.1665
0.00609432
0.16629
0.0067305
0.166044
0.00734535
0.165765
0.00793756
0.165453
0.00850568
0.165113
0.00904852
0.164748
0.00956457
0.164362
0.0100544
0.163964
0.0105166
0.163557
0.0109606
0.163153
0.0113842
0.162746
0.0118272
0.0122846
0.161928
0.00103557
-0.161821
0.16199
0.00183355
0.162009
0.0026169
0.161985
0.00338468
0.16192
0.00413586
0.161813
0.00486933
0.161668
0.00558393
0.161483
0.00627839
0.161263
0.00695135
0.161007
0.0076013
0.160718
0.0082266
0.160398
0.00882531
0.160051
0.00939559
0.159681
0.00993473
0.159293
0.0104422
0.158896
0.0109134
0.158497
0.0113596
0.158114
0.0117668
0.157741
0.0122008
0.0126214
0.157351
0.000948078
-0.157263
0.157395
0.0017894
0.157396
0.00261543
0.157356
0.00342497
0.157275
0.00421691
0.157154
0.00499006
0.156995
0.00574316
0.156799
0.00647486
0.156566
0.00718363
0.1563
0.00786775
0.156001
0.00852527
0.155673
0.00915379
0.155318
0.00975074
0.15494
0.0103121
0.154547
0.0108359
0.154147
0.0113128
0.153751
0.0117557
0.153387
0.0121308
0.153042
0.0125458
0.0128684
0.153059
0.000877787
-0.152989
0.153087
0.00176209
0.153072
0.00262974
0.153017
0.00347998
0.152923
0.00431157
0.152789
0.00512325
0.152619
0.00591372
0.152412
0.00668151
0.152171
0.00742499
0.151896
0.00814227
0.15159
0.00883111
0.151255
0.00948874
0.150894
0.0101119
0.150511
0.0106953
0.150112
0.0112353
0.149708
0.0117165
0.149312
0.0121519
0.148967
0.0124756
0.148645
0.0128676
0.0129975
0.149013
0.00082334
-0.148958
0.149026
0.00174893
0.148999
0.00265682
0.148932
0.00354631
0.148828
0.00441604
0.148687
0.00526469
0.148509
0.00609094
0.148298
0.00689327
0.148053
0.00766993
0.147776
0.00841892
0.147469
0.00913783
0.147134
0.00982357
0.146774
0.0104725
0.146391
0.011078
0.145991
0.0116353
0.145585
0.0121224
0.145186
0.012551
0.144861
0.012801
0.144578
0.0131503
0.0129632
0.145174
-0.145133
0.000782751
0.145176
0.00174619
0.145141
0.00269246
0.145068
0.0036191
0.144959
0.0045247
0.144816
0.00540801
0.144639
0.00626769
0.14443
0.00710218
0.144191
0.00790969
0.143921
0.00868813
0.143624
0.00943503
0.143301
0.0101471
0.142952
0.0108207
0.142582
0.0114482
0.142193
0.0120248
0.141793
0.0125227
0.141388
0.012956
0.141048
0.0131403
0.140801
0.0133979
0.0123804
0.25364
7.26965e-05
-0.253713
0.253606
3.39305e-05
0.253577
2.88417e-05
0.253541
3.66251e-05
0.253491
5.00375e-05
0.253424
6.68569e-05
0.253338
8.58023e-05
0.253232
0.000105776
0.253106
0.00012598
0.25296
0.000145945
0.252795
0.000165247
0.252611
0.000183502
0.252411
0.000200866
0.252192
0.000218054
0.251958
0.000234944
0.251708
0.000249811
0.251446
0.00026198
0.251174
0.000271472
0.250902
0.00027251
0.000272029
0.254616
-0.000230488
-0.254313
0.254861
-0.000210775
0.255064
-0.000173693
0.255224
-0.000123639
0.255341
-6.7076e-05
0.255415
-6.71633e-06
0.255444
5.63e-05
0.255429
0.000120876
0.255369
0.000186168
0.255263
0.000251491
0.255113
0.000315434
0.254919
0.000377025
0.254685
0.000435507
0.254409
0.000493642
0.254089
0.00055502
0.253729
0.000610203
0.25333
0.000660424
0.252896
0.000705879
0.252427
0.000741828
0.000772405
0.249589
-0.000859649
-0.24896
0.250148
-0.000769541
0.250644
-0.000669779
0.251081
-0.000560319
0.251458
-0.000444556
0.251776
-0.000324802
0.252035
-0.000202177
0.252234
-7.82209e-05
0.252373
4.66433e-05
0.252451
0.000173884
0.252468
0.000297994
0.252427
0.00041844
0.252325
0.000537575
0.252163
0.000655282
0.251947
0.000770988
0.251675
0.000881931
0.251349
0.000987286
0.250967
0.00108708
0.25053
0.00117945
0.00126721
0.241081
-0.00175204
-0.240189
0.241904
-0.00159252
0.24266
-0.00142596
0.243352
-0.0012515
0.243978
-0.00107063
0.244538
-0.000885186
0.245032
-0.000696499
0.24546
-0.000505809
0.24582
-0.000313833
0.246113
-0.000118427
0.246335
7.56946e-05
0.246493
0.000260049
0.246584
0.000447322
0.246607
0.000631573
0.246566
0.000812188
0.24646
0.000988296
0.246288
0.00115884
0.246052
0.0013234
0.24575
0.00148099
0.00163209
0.230953
-0.00283193
-0.229873
0.231968
-0.00260769
0.232919
-0.00237615
0.233804
-0.00213682
0.234624
-0.00189045
0.235377
-0.00163852
0.236063
-0.00138241
0.236681
-0.0011233
0.237229
-0.000862157
0.23771
-0.000599709
0.238124
-0.000338554
0.238466
-8.12983e-05
0.238738
0.000174842
0.238942
0.000427776
0.239077
0.00067741
0.239143
0.000922256
0.23914
0.00116147
0.239069
0.00139437
0.23893
0.00162018
0.00183875
0.220406
-0.00403136
-0.219207
0.221546
-0.00374721
0.222624
-0.0034542
0.223639
-0.00315243
0.224591
-0.00284256
0.225479
-0.00252597
0.2263
-0.00220416
0.227056
-0.00187856
0.227744
-0.00155055
0.228366
-0.00122144
0.22892
-0.000892682
0.229404
-0.000565691
0.22982
-0.000241258
0.23017
7.84273e-05
0.230451
0.000396251
0.230663
0.000710333
0.230807
0.00101787
0.230882
0.00131888
0.230889
0.00161275
0.00189914
0.21017
-0.00529629
-0.208905
0.211379
-0.00495633
0.212531
-0.00460542
0.213622
-0.00424414
0.214653
-0.00387341
0.215622
-0.00349474
0.216528
-0.00310987
0.21737
-0.00272049
0.218147
-0.00232817
0.21886
-0.00193437
0.219508
-0.00154039
0.22009
-0.0011477
0.220606
-0.000757096
0.221053
-0.00036929
0.221442
7.15113e-06
0.221762
0.000391226
0.222015
0.000764805
0.222202
0.00113158
0.222323
0.00149122
0.00184323
0.20063
-0.0065875
-0.199339
0.201869
-0.00619499
0.203053
-0.00578917
0.204179
-0.00537097
0.205248
-0.00494174
0.206256
-0.00450336
0.207204
-0.00405788
0.208091
-0.00360724
0.208916
-0.00315323
0.209679
-0.00269742
0.21038
-0.00224126
0.211018
-0.00178611
0.211594
-0.00133307
0.212108
-0.000883147
0.212553
-0.000437782
0.212947
-2.37813e-06
0.213271
0.000440186
0.213534
0.000868774
0.213735
0.00129092
0.00170535
0.191936
-0.00787887
-0.190645
0.193178
-0.00743634
0.194366
-0.00697784
0.1955
-0.0065046
0.196577
-0.00601858
0.197596
-0.00552226
0.198556
-0.00501807
0.199457
-0.00450827
0.200298
-0.00399486
0.201081
-0.00347956
0.201803
-0.00296391
0.202466
-0.00244923
0.20307
-0.00193671
0.203614
-0.00142731
0.204099
-0.000922405
0.20452
-0.000423151
0.204889
7.1013e-05
0.205195
0.000562386
0.205443
0.00104333
0.00151669
0.184098
-0.00915461
-0.182822
0.185326
-0.00866406
0.186502
-0.0081544
0.187625
-0.0076272
0.188692
-0.00708537
0.189702
-0.00653218
0.190654
-0.00597058
0.191549
-0.00540315
0.192386
-0.00483212
0.193166
-0.00425937
0.193889
-0.00368644
0.194554
-0.00311466
0.195163
-0.00254518
0.195714
-0.001979
0.196209
-0.00141715
0.196647
-0.000860541
0.197028
-0.000309987
0.197355
0.000235079
0.197625
0.000773403
0.00130246
0.177052
-0.0104065
-0.1758
0.178257
-0.00986971
0.179413
-0.00930978
0.180515
-0.00872889
0.181561
-0.0081315
0.18255
-0.00752188
0.183483
-0.00690355
0.18436
-0.00627948
0.18518
-0.00565214
0.185944
-0.00502347
0.186652
-0.00439502
0.187306
-0.00376806
0.187904
-0.0031437
0.188448
-0.00252289
0.188938
-0.00190653
0.189373
-0.0012955
0.189753
-0.000690393
0.190082
-9.37339e-05
0.190356
0.0004987
0.00108097
0.170701
-0.0116317
-0.169476
0.171882
-0.0110506
0.173013
-0.0104406
0.17409
-0.00980548
0.17511
-0.00915209
0.176074
-0.00848588
0.176982
-0.007811
0.177833
-0.00713083
0.178629
-0.00644803
0.17937
-0.00576456
0.180057
-0.0050819
0.18069
-0.00440123
0.18127
-0.00372358
0.181797
-0.00304983
0.182271
-0.00238082
0.182693
-0.00171741
0.183063
-0.0010604
0.183381
-0.000411195
0.183649
0.000230174
0.000864727
0.164946
-0.0128311
-0.163746
0.166103
-0.012208
0.16721
-0.0115474
0.168261
-0.0108567
0.169255
-0.0101462
0.170192
-0.00942267
0.171072
-0.00869088
0.171896
-0.00795469
0.172665
-0.00721689
0.173379
-0.00647934
0.174041
-0.00574339
0.17465
-0.00501009
0.175207
-0.00428033
0.175712
-0.00355491
0.176165
-0.00283463
0.176568
-0.00212033
0.176921
-0.00141262
0.177222
-0.000712349
0.177476
-2.43449e-05
0.000661708
0.159692
-0.0140082
-0.158514
0.16083
-0.0133469
0.161917
-0.0126337
0.162945
-0.0118849
0.163914
-0.0111154
0.164824
-0.010333
0.165677
-0.00954335
0.166473
-0.00875077
0.167214
-0.00795802
0.167902
-0.00716677
0.168536
-0.00637814
0.169119
-0.00559297
0.169651
-0.00481197
0.170132
-0.00403585
0.170562
-0.00326532
0.170943
-0.00250118
0.171275
-0.00174416
0.171558
-0.00099549
0.17179
-0.000256756
0.000474544
0.154861
-0.0151697
-0.1537
0.155989
-0.0144745
0.15706
-0.0137049
0.158069
-0.012894
0.159016
-0.0120622
0.159902
-0.0112183
0.160727
-0.0103691
0.161496
-0.00951925
0.162209
-0.0086713
0.162869
-0.00782652
0.163476
-0.00698567
0.164033
-0.00614926
0.164538
-0.00531778
0.164994
-0.00449176
0.165401
-0.00367185
0.165759
-0.00285879
0.166068
-0.00205339
0.166329
-0.00125665
0.166542
-0.000469694
0.000307206
0.150395
-0.0163278
-0.149237
0.151522
-0.015601
0.152584
-0.0147674
0.153578
-0.0138881
0.154505
-0.0129884
0.155365
-0.0120787
0.156163
-0.0111675
0.156903
-0.0102593
0.157588
-0.00935593
0.15822
-0.00845795
0.158799
-0.00756551
0.159329
-0.00667866
0.159809
-0.00579755
0.160239
-0.00492252
0.160622
-0.00405409
0.160956
-0.00319296
0.161242
-0.00233993
0.161482
-0.00149591
0.161674
-0.00066214
0.000159918
0.14625
-0.0175103
-0.145068
0.14739
-0.0167405
0.148448
-0.0158261
0.149429
-0.0148686
0.150332
-0.0138919
0.151164
-0.0129108
0.151932
-0.0119354
0.152641
-0.0109684
0.153296
-0.0100101
0.153898
-0.00905994
0.154449
-0.00811714
0.154952
-0.00718107
0.155406
-0.00625147
0.155811
-0.00532848
0.15617
-0.00441251
0.156481
-0.0035042
0.156746
-0.00260438
0.156964
-0.00171398
0.157135
-0.000833989
3.20934e-05
0.142396
-0.0187782
-0.141128
0.143567
-0.0179116
0.144621
-0.0168802
0.145582
-0.0158295
0.146455
-0.0147647
0.147251
-0.013707
0.147983
-0.0126671
0.148657
-0.0116429
0.149279
-0.0106318
0.149851
-0.0096317
0.150374
-0.00864056
0.15085
-0.007657
0.151279
-0.00668037
0.151661
-0.00571064
0.151997
-0.00474817
0.152286
-0.00379363
0.15253
-0.0028479
0.152728
-0.00191206
0.152881
-0.000987316
-7.57894e-05
0.138843
-0.0201966
-0.137424
0.140039
-0.019108
0.14107
-0.0179112
0.141991
-0.0167504
0.142819
-0.0155923
0.14357
-0.0144587
0.144261
-0.0133575
0.144898
-0.0122806
0.145487
-0.0112208
0.14603
-0.0101739
0.146526
-0.009137
0.146977
-0.00810791
0.147382
-0.00708578
0.147742
-0.00607056
0.148057
-0.00506268
0.148326
-0.0040629
0.14855
-0.00307218
0.14873
-0.00209176
0.148866
-0.00112317
-0.000168229
0.135644
-0.13429
-0.0215506
0.136753
-0.020217
0.137746
-0.0189043
0.138596
-0.0176003
0.139364
-0.0163601
0.14007
-0.0151646
0.14072
-0.014008
0.141323
-0.012883
0.141881
-0.0117792
0.142396
-0.010689
0.142868
-0.00960849
0.143295
-0.00853548
0.143679
-0.0074691
0.144018
-0.00640948
0.144312
-0.00535725
0.144563
-0.00431331
0.144769
-0.00327876
0.144932
-0.00225474
0.145052
-0.00124293
-0.000249407
0.0288308
0.109634
-0.108242
-0.0302235
0.0274158
0.112792
-0.111377
0.0259753
0.116094
-0.114654
0.0245057
0.119562
-0.118092
0.0230033
0.123228
-0.121725
0.0214648
0.127131
-0.125592
0.0198879
0.131327
-0.12975
0.0182706
0.135892
-0.134275
0.0166118
0.140923
-0.139264
0.0149113
0.146544
-0.144843
0.0131703
0.152905
-0.151164
0.0113924
0.16018
-0.158402
0.00958571
0.168556
-0.166749
0.00776565
0.178208
-0.176388
0.00596023
0.189251
-0.187446
0.00421662
0.201655
-0.199911
0.00261001
0.215111
-0.213505
0.00125426
0.228834
-0.227478
0.000309198
0.241171
-0.240226
0.249195
-0.248886
0.0286991
0.111024
-0.0300883
0.0272876
0.114204
0.0258509
0.117531
0.0243853
0.121028
0.0228871
0.124726
0.0213532
0.128665
0.0197808
0.132899
0.0181681
0.137505
0.0165138
0.142577
0.0148177
0.14824
0.0130811
0.154641
0.0113081
0.161953
0.00950707
0.170357
0.00769444
0.180021
0.00589927
0.191046
0.00417017
0.203384
0.00258374
0.216698
0.00125325
0.230165
0.000333898
0.24209
0.249529
0.0285264
0.112407
-0.0299099
0.0271207
0.11561
0.02569
0.118961
0.0242306
0.122487
0.0227389
0.126217
0.0212116
0.130192
0.019646
0.134465
0.0180401
0.139111
0.0163925
0.144225
0.0147031
0.149929
0.0129733
0.156371
0.0112075
0.163719
0.00941451
0.17215
0.00761161
0.181824
0.00582873
0.192829
0.00411546
0.205097
0.00254889
0.218264
0.00124073
0.231473
0.000337963
0.242993
0.249867
0.0283143
0.113783
-0.0296899
0.0269165
0.117007
0.0254939
0.120384
0.0240429
0.123938
0.0225596
0.127701
0.021041
0.131711
0.0194842
0.136022
0.0178872
0.140708
0.0162484
0.145863
0.0145679
0.15161
0.0128471
0.158092
0.0110907
0.165475
0.009308
0.173932
0.00751689
0.183615
0.00574811
0.194598
0.00405193
0.206793
0.00250555
0.219811
0.00121907
0.232759
0.000333934
0.243878
0.250201
0.0280646
0.115148
-0.0294304
0.0266768
0.118395
0.0252643
0.121796
0.0238234
0.125379
0.0223505
0.129174
0.0208424
0.133219
0.0192963
0.137568
0.01771
0.142294
0.0160821
0.147491
0.0144124
0.153279
0.0127027
0.159801
0.0109578
0.16722
0.00918748
0.175703
0.00741022
0.185392
0.00565748
0.196351
0.00398013
0.208471
0.00245539
0.221335
0.00119178
0.234023
0.000326065
0.244744
0.250527
0.0277798
0.116503
-0.0291342
0.0264034
0.119772
0.0250026
0.123197
0.0235735
0.126808
0.0221126
0.130635
0.0206167
0.134715
0.0190829
0.139102
0.0175091
0.143868
0.0158939
0.149107
0.014237
0.154936
0.0125404
0.161498
0.0108089
0.168951
0.00905307
0.177459
0.00729174
0.187153
0.00555711
0.198085
0.00390061
0.210127
0.00239936
0.222837
0.00116021
0.235262
0.000315536
0.245588
0.250842
0.0274623
0.117845
-0.0288041
0.0260986
0.121135
0.0247107
0.124585
0.0232948
0.128224
0.0218472
0.132082
0.0203649
0.136197
0.018845
0.140622
0.0172853
0.145427
0.0156844
0.150708
0.0140421
0.156579
0.0123603
0.16318
0.0106444
0.170667
0.00890502
0.179198
0.00716171
0.188897
0.00544729
0.1998
0.00381371
0.211761
0.00233788
0.224312
0.0011249
0.236475
0.000303045
0.24641
0.251145
0.0271147
0.119173
-0.0284433
0.0257645
0.122485
0.0243904
0.125959
0.0229886
0.129626
0.0215555
0.133515
0.020088
0.137664
0.0185832
0.142126
0.0170391
0.146972
0.015454
0.152293
0.013828
0.158205
0.012163
0.164845
0.0104644
0.172366
0.00874354
0.180919
0.00702034
0.19062
0.00532827
0.201492
0.0037197
0.213369
0.00227129
0.225761
0.00108637
0.23766
0.000289189
0.247207
0.251435
0.0267397
0.120489
-0.0280549
0.0254033
0.123822
0.0240434
0.127319
0.0226563
0.131013
0.0212384
0.134933
0.0197866
0.139116
0.0182982
0.143615
0.0167709
0.148499
0.0152032
0.15386
0.013595
0.159813
0.0119484
0.166491
0.0102692
0.174045
0.00856883
0.182619
0.00686784
0.192321
0.00520026
0.20316
0.00361885
0.214951
0.00219994
0.22718
0.00104507
0.238815
0.000274377
0.247978
0.251709
0.0263397
0.121791
-0.0276422
0.0250167
0.125145
0.0236711
0.128665
0.0222989
0.132385
0.0208968
0.136335
0.0194615
0.140552
0.0179904
0.145086
0.0164811
0.150008
0.0149321
0.155409
0.0133433
0.161402
0.011717
0.168118
0.0100589
0.175703
0.00838105
0.184297
0.00670439
0.193998
0.0050635
0.2048
0.00351145
0.216503
0.00212418
0.228567
0.00100138
0.239937
0.000258853
0.248721
0.251968
0.0259169
0.123082
-0.027208
0.0246063
0.126455
0.0232743
0.129997
0.021917
0.133742
0.0205308
0.137721
0.0191127
0.14197
0.0176597
0.146539
0.0161696
0.151498
0.0146407
0.156938
0.013073
0.162969
0.0114686
0.169722
0.00983363
0.177338
0.00818032
0.18595
0.00653016
0.195648
0.00491819
0.206412
0.00339775
0.218023
0.0020443
0.229921
0.000955549
0.241026
0.000242776
0.249433
0.252211
0.0254724
0.124364
-0.0267545
0.0241726
0.127755
0.0228532
0.131316
0.0215103
0.135085
0.0201403
0.139091
0.0187398
0.14337
0.017306
0.147973
0.0158362
0.152968
0.0143289
0.158445
0.0127838
0.164514
0.0112032
0.171303
0.00959335
0.178948
0.00796672