/*--------------------------------*- C++ -*----------------------------------*\
| =========                 |                                                 |
| \\      /  F ield         | OpenFOAM: The Open Source CFD Toolbox           |
|  \\    /   O peration     | Version:  v1912                                 |
|   \\  /    A nd           | Website:  www.openfoam.com                      |
|    \\/     M anipulation  |                                                 |
\*---------------------------------------------------------------------------*/
FoamFile
{
    version     2.0;
    format      ascii;
    class       volVectorField;
    location    "18.5";
    object      U;
}
// * * * * * * * * * * * * * * * * * * * * * * * * * * * * * * * * * * * * * //

dimensions      [0 1 -1 0 0 0 0];


internalField   nonuniform List<vector> 
9600
(
(0.457181 -9.38367 -1.52562e-19)
(0.158204 -8.67106 0)
(0.236162 -8.19949 -8.91954e-20)
(0.309397 -7.87344 0)
(0.371143 -7.62737 0)
(0.434042 -7.42021 -3.11718e-20)
(0.494314 -7.2293 -5.00602e-22)
(0.548987 -7.04316 2.59227e-20)
(0.597362 -6.85679 0)
(0.639481 -6.66889 -4.38635e-20)
(0.675714 -6.48005 0)
(0.706646 -6.29174 -1.78472e-21)
(0.732962 -6.10563 -2.57267e-21)
(0.755367 -5.92331 -3.0488e-20)
(0.774533 -5.74604 2.56389e-20)
(0.791067 -5.57467 -2.51894e-20)
(0.80548 -5.40958 2.23774e-20)
(0.818287 -5.25062 0)
(0.83025 -5.097 -1.77586e-20)
(0.841036 -4.94723 1.95068e-20)
(0.825872 -9.37204 -3.04742e-19)
(0.501939 -8.69615 1.18228e-20)
(0.56306 -8.23966 1.83778e-19)
(0.624506 -7.92246 -1.56028e-19)
(0.676855 -7.6807 1.53874e-19)
(0.731317 -7.47403 0)
(0.783352 -7.28101 5.93614e-20)
(0.829667 -7.09119 -5.91486e-20)
(0.869489 -6.90033 -1.02388e-19)
(0.902913 -6.70765 1.29095e-19)
(0.930411 -6.51413 -8.37807e-20)
(0.952682 -6.32146 -3.4052e-20)
(0.970516 -6.13147 6.88168e-20)
(0.984697 -5.94578 0)
(0.995958 -5.76568 0)
(1.00494 -5.59203 9.59291e-20)
(1.01216 -5.42517 -1.62596e-19)
(1.01815 -5.26489 0)
(1.02374 -5.11029 0)
(1.02835 -4.95978 -7.50354e-20)
(1.19481 -9.34684 6.29433e-19)
(0.847715 -8.70833 0)
(0.8932 -8.26712 -3.70965e-19)
(0.943553 -7.95892 -3.35541e-19)
(0.986793 -7.72151 0)
(1.0328 -7.51534 5.3393e-19)
(1.07639 -7.32026 -5.0359e-19)
(1.11403 -7.1269 9.84615e-20)
(1.14492 -6.93176 -2.19157e-19)
(1.16926 -6.7346 -3.63413e-19)
(1.18766 -6.53675 4.95194e-19)
(1.20094 -6.34011 -3.05783e-19)
(1.21 -6.14663 -1.36758e-19)
(1.21572 -5.95799 0)
(1.21888 -5.77549 5.35748e-21)
(1.22015 -5.59996 1.01159e-19)
(1.22006 -5.43173 4.35929e-20)
(1.21916 -5.27053 0)
(1.21834 -5.11533 7.89737e-20)
(1.21668 -4.96449 8.10327e-20)
(1.56288 -9.3077 -8.50855e-19)
(1.19494 -8.70734 -3.97409e-19)
(1.22603 -8.2817 3.85845e-19)
(1.26598 -7.98256 6.60227e-19)
(1.30039 -7.74948 -3.20206e-19)
(1.33792 -7.54379 5.4158e-21)
(1.37284 -7.34674 2.47519e-19)
(1.40146 -7.15 2.23776e-19)
(1.42306 -6.95084 4.08951e-19)
(1.43795 -6.74953 0)
(1.4469 -6.54773 1.56725e-19)
(1.45088 -6.34755 -1.66591e-19)
(1.45091 -6.15102 1.01708e-20)
(1.44794 -5.95988 2.61727e-19)
(1.44283 -5.7754 2.23741e-19)
(1.43628 -5.59842 -3.15732e-19)
(1.42879 -5.42922 1.03956e-19)
(1.42095 -5.26748 -1.68874e-19)
(1.4137 -5.11207 1.68049e-19)
(1.40571 -4.96133 -8.10689e-20)
(1.92978 -9.25456 4.28907e-19)
(1.54332 -8.69304 0)
(1.56114 -8.28316 3.77968e-19)
(1.5913 -7.99307 0)
(1.61711 -7.76426 0)
(1.64608 -7.55908 -2.9339e-19)
(1.67209 -7.36014 -5.23664e-19)
(1.69137 -7.16022 -4.42702e-19)
(1.7033 -6.95733 1.83006e-20)
(1.70839 -6.75223 -1.90752e-19)
(1.70756 -6.54691 0)
(1.70196 -6.34363 -1.57035e-19)
(1.69272 -6.14453 -2.82567e-19)
(1.68089 -5.95133 2.48009e-19)
(1.66737 -5.76533 -7.04403e-19)
(1.65288 -5.58732 1.14014e-19)
(1.63794 -5.41757 9.008e-20)
(1.62314 -5.2557 -1.85809e-19)
(1.60948 -5.10046 -8.10878e-20)
(1.59513 -4.95024 2.4196e-19)
(2.29497 -9.18734 4.1286e-19)
(1.89236 -8.66523 4.0794e-19)
(1.89803 -8.27124 0)
(1.91895 -7.99014 0)
(1.93634 -7.76556 -6.09514e-19)
(1.95669 -7.56089 3.33995e-19)
(1.97352 -7.3602 8.00044e-19)
(1.98313 -7.15734 0)
(1.98504 -6.95104 2.10604e-19)
(1.97998 -6.74256 1.90753e-19)
(1.96908 -6.53416 -3.36145e-19)
(1.95364 -6.32828 4.8739e-19)
(1.93493 -6.12708 1.42775e-19)
(1.91407 -5.93231 0)
(1.89203 -5.74524 1.18552e-19)
(1.86953 -5.56664 5.31282e-19)
(1.8471 -5.39675 -3.16567e-19)
(1.82534 -5.23514 3.55024e-19)
(1.8053 -5.08047 -6.74865e-19)
(1.78459 -4.93123 7.81002e-19)
(2.65791 -9.10603 4.19539e-19)
(2.24157 -8.62372 -2.21924e-18)
(2.23617 -8.2457 0)
(2.24837 -7.97352 0)
(2.2575 -7.75309 0)
(2.26909 -7.54898 -5.90017e-19)
(2.2765 -7.34668 0)
(2.2761 -7.14115 -9.42209e-19)
(2.26765 -6.93181 8.68221e-19)
(2.25211 -6.72039 -8.05263e-19)
(2.23086 -6.5094 0)
(2.20535 -6.3014 0)
(2.17699 -6.09862 0)
(2.14698 -5.90278 -2.70845e-19)
(2.11632 -5.71511 0)
(2.08576 -5.53636 0)
(2.05582 -5.36675 -3.9618e-19)
(2.02714 -5.2058 3.89259e-19)
(2.00077 -5.05208 0)
(1.97375 -4.90427 0)
(3.01806 -9.01065 -1.365e-18)
(2.59039 -8.56837 8.82911e-19)
(2.57498 -8.2063 0)
(2.57895 -7.94294 0)
(2.57994 -7.72662 0)
(2.58266 -7.52312 5.60925e-19)
(2.58036 -7.3194 -5.62229e-19)
(2.56962 -7.11149 -8.33144e-21)
(2.55048 -6.89952 -8.68293e-19)
(2.52417 -6.68562 8.12603e-19)
(2.49231 -6.47255 -3.65776e-19)
(2.45654 -6.26297 6.34925e-19)
(2.41838 -6.05913 -4.54648e-20)
(2.3791 -5.86272 -5.73563e-19)
(2.33976 -5.67494 -4.82424e-19)
(2.30111 -5.49649 4.73968e-19)
(2.26367 -5.32757 0)
(2.2281 -5.16769 0)
(2.1955 -5.01531 3.41857e-19)
(2.16223 -4.86937 -3.76791e-19)
(3.37486 -8.90123 9.12209e-19)
(2.93827 -8.49905 8.65603e-19)
(2.91388 -8.15288 -1.63916e-18)
(2.91008 -7.8982 7.73496e-19)
(2.90302 -7.68592 0)
(2.8967 -7.4831 6.00098e-19)
(2.88442 -7.27817 -5.25327e-19)
(2.86303 -7.06823 1.48358e-18)
(2.83288 -6.85406 -2.32061e-20)
(2.79553 -6.63819 0)
(2.75284 -6.42357 7.37842e-19)
(2.70663 -6.21297 0)
(2.65854 -6.00861 0)
(2.60993 -5.81215 -2.61857e-19)
(2.56186 -5.62474 5.28518e-19)
(2.51512 -5.44703 0)
(2.4702 -5.27924 4.13402e-19)
(2.42781 -5.12081 1.71728e-19)
(2.38906 -4.97016 -3.73129e-19)
(2.34964 -4.82657 3.62491e-19)
(3.72777 -8.77783 -9.38245e-19)
(3.28462 -8.41569 8.79094e-19)
(3.25227 -8.08526 -2.50101e-18)
(3.24111 -7.8391 7.8578e-19)
(3.22606 -7.63081 0)
(3.21055 -7.42877 -1.20945e-18)
(3.18801 -7.22289 5.80854e-19)
(3.15565 -7.01129 0)
(3.11421 -6.79539 -4.59216e-19)
(3.06557 -6.57807 -7.95002e-19)
(3.01184 -6.36247 -6.91253e-19)
(2.95505 -6.1514 5.23776e-20)
(2.89695 -5.94708 6.4625e-19)
(2.83894 -5.7511 2.61653e-19)
(2.78213 -5.56455 -3.69636e-20)
(2.72729 -5.38804 -4.92431e-19)
(2.67493 -5.22178 -2.19945e-19)
(2.62578 -5.0652 -1.98172e-19)
(2.58101 -4.91667 5.28125e-19)
(2.53556 -4.7759 -7.88122e-19)
(4.07622 -8.64056 9.38248e-19)
(3.62886 -8.31822 -4.62027e-20)
(3.58951 -8.00331 8.02569e-19)
(3.57138 -7.76551 0)
(3.54837 -7.56115 -6.62182e-19)
(3.52349 -7.36001 1.272e-18)
(3.49043 -7.15346 -1.08406e-18)
(3.44681 -6.9406 1.06679e-18)
(3.3938 -6.72347 -4.30566e-19)
(3.33364 -6.50525 8.74886e-19)
(3.26872 -6.28925 3.78165e-19)
(3.20123 -6.0783 0)
(3.13304 -5.87458 0)
(3.06561 -5.67961 -2.71175e-19)
(3.00005 -5.49441 3.73442e-20)
(2.93715 -5.31956 9.69128e-19)
(2.87738 -5.15525 -2.39737e-19)
(2.82156 -5.00091 7.90461e-19)
(2.77087 -4.85486 1.37925e-19)
(2.71955 -4.71738 -8.04843e-19)
(4.41966 -8.48952 -2.88372e-18)
(3.9704 -8.20662 -9.64882e-19)
(3.92499 -7.90696 -2.57004e-18)
(3.90022 -7.6773 -1.56028e-18)
(3.86928 -7.47684 -7.39147e-19)
(3.83484 -7.27674 -7.22232e-19)
(3.79097 -7.06982 -2.35068e-18)
(3.73582 -6.85615 -4.79942e-20)
(3.671 -6.63831 -1.8828e-18)
(3.59913 -6.41977 2.99751e-20)
(3.52287 -6.20397 -7.79456e-19)
(3.44461 -5.99372 -7.09421e-19)
(3.36628 -5.79116 6.46885e-19)
(3.28941 -5.59775 -5.90984e-19)
(3.21513 -5.4144 -5.40935e-19)
(3.14418 -5.24165 -4.96043e-19)
(3.07707 -5.0797 -1.3307e-18)
(3.01464 -4.92797 4.73719e-19)
(2.95815 -4.78479 1.14789e-18)
(2.90115 -4.65106 -1.22282e-18)
(4.75756 -8.32487 3.87735e-18)
(4.30865 -8.08091 4.75036e-18)
(4.25806 -7.79614 8.14194e-19)
(4.22696 -7.5744 3.89533e-18)
(4.18806 -7.3778 -7.62235e-19)
(4.14387 -7.17893 3.80155e-18)
(4.08895 -6.97198 1.10959e-18)
(4.022 -6.75796 3.11247e-18)
(3.94515 -6.53995 -9.50537e-19)
(3.86141 -6.32168 2.62808e-18)
(3.77371 -6.10667 1.56979e-18)
(3.6846 -5.89772 1.42892e-18)
(3.59613 -5.69691 -1.93214e-18)
(3.50983 -5.50557 1.80876e-18)
(3.42684 -5.32457 1.09013e-18)
(3.3479 -5.15437 9.99897e-19)
(3.27348 -4.99519 9.18775e-19)
(3.20452 -4.84644 7.0411e-21)
(3.14235 -4.70649 7.79043e-19)
(3.07988 -4.57698 8.11426e-19)
(5.08938 -8.14678 -2.87717e-18)
(4.64302 -7.94112 1.05827e-18)
(4.58808 -7.67084 2.61094e-18)
(4.55092 -7.45676 -3.17717e-18)
(4.50401 -7.26401 7.34111e-19)
(4.44988 -7.06655 -2.5422e-18)
(4.38365 -6.85995 1.2449e-18)
(4.30468 -6.64607 -2.08176e-18)
(4.21562 -6.42845 4.79483e-20)
(4.11987 -6.21105 1.12751e-20)
(4.02065 -5.99744 -1.59103e-18)
(3.92067 -5.79039 -7.19497e-19)
(3.82204 -5.59188 1.32144e-18)
(3.72634 -5.40316 8.32223e-21)
(3.63468 -5.22499 -3.61059e-20)
(3.54777 -5.05779 -1.04397e-18)
(3.46609 -4.90177 -4.63094e-19)
(3.39066 -4.75638 -2.62011e-20)
(3.32292 -4.62002 -8.12128e-19)
(3.25519 -4.49525 -4.0976e-19)
(5.41462 -7.95543 0)
(4.97296 -7.78733 -1.95419e-18)
(4.91442 -7.53104 2.23001e-20)
(4.8714 -7.32439 3.16915e-18)
(4.81643 -7.13549 1.32277e-18)
(4.75217 -6.93967 -1.37804e-18)
(4.6744 -6.7338 -1.18459e-18)
(4.5832 -6.52057 0)
(4.48177 -6.30393 -9.39589e-19)
(4.37392 -6.08801 8.96134e-19)
(4.26314 -5.8764 -3.80769e-20)
(4.15227 -5.67183 0)
(4.04352 -5.47617 -6.6518e-19)
(3.93844 -5.29058 5.75064e-19)
(3.83813 -5.1157 4.79591e-19)
(3.74327 -4.95192 -5.80313e-19)
(3.65432 -4.79945 -5.02807e-19)
(3.57242 -4.65775 8.72109e-19)
(3.49912 -4.52536 -8.04489e-19)
(3.42627 -4.40593 4.23776e-19)
(5.73284 -7.75101 2.96874e-18)
(5.29787 -7.61962 -2.0118e-18)
(5.23642 -7.3768 -1.71202e-18)
(5.18771 -7.17732 7.95471e-19)
(5.12461 -6.99228 -1.54362e-18)
(5.05001 -6.79835 0)
(4.96051 -6.59365 0)
(4.8569 -6.3816 0)
(4.74298 -6.16652 -4.33913e-20)
(4.62298 -5.95268 -1.79813e-18)
(4.50062 -5.74367 8.48702e-19)
(4.37891 -5.54214 7.16234e-19)
(4.26007 -5.34987 6.04849e-19)
(4.14567 -5.16789 -2.48377e-18)
(4.03675 -4.99676 1.17699e-18)
(3.93394 -4.83679 0)
(3.83769 -4.6882 -2.93962e-20)
(3.74919 -4.55051 -1.35291e-18)
(3.67019 -4.42244 -5.4793e-21)
(3.59222 -4.30867 -4.24211e-19)
(6.04367 -7.53379 -2.01993e-18)
(5.61725 -7.43812 -1.0603e-18)
(5.55343 -7.20818 7.94777e-19)
(5.49917 -7.01561 -1.42797e-19)
(5.42783 -6.83448 -4.49426e-18)
(5.34272 -6.64272 4.06115e-18)
(5.24129 -6.43962 -4.83867e-20)
(5.12514 -6.2293 1.10907e-18)
(4.99866 -6.01639 9.94051e-19)
(4.86648 -5.80523 9.1147e-19)
(4.73259 -5.5994 8.28516e-19)
(4.60009 -5.40147 1.47886e-18)
(4.47125 -5.21308 -7.11652e-19)
(4.3476 -5.03518 1.84169e-18)
(4.23013 -4.86821 -1.19048e-18)
(4.11941 -4.71245 -4.91664e-19)
(4.01584 -4.56811 1.97512e-18)
(3.92067 -4.43475 1.31861e-18)
(3.83584 -4.31113 -2.69464e-20)
(3.75296 -4.20282 0)
(6.34709 -7.30428 -1.02641e-18)
(5.93069 -7.24302 2.02504e-18)
(5.8648 -7.02524 1.76788e-18)
(5.80504 -6.83932 -1.44653e-19)
(5.72538 -6.66218 -1.52437e-18)
(5.62958 -6.47292 6.9419e-20)
(5.51607 -6.27191 1.24258e-20)
(5.38728 -6.06389 1.10859e-20)
(5.24822 -5.85374 0)
(5.10391 -5.64586 8.90782e-19)
(4.95855 -5.44377 -1.69534e-18)
(4.81536 -5.24993 -7.24265e-19)
(4.6766 -5.06589 7.18929e-19)
(4.54376 -4.89247 -6.3e-19)
(4.41777 -4.73006 5.83036e-19)
(4.29912 -4.57891 -5.30422e-19)
(4.18822 -4.43925 4.72279e-21)
(4.08645 -4.3105 -4.5016e-19)
(3.99603 -4.19137 -4.15686e-19)
(3.90899 -4.08919 -4.16279e-19)
(6.64345 -7.06294 0)
(6.23796 -7.03427 -9.85937e-19)
(6.16989 -6.8279 9.74623e-19)
(6.10459 -6.64853 1.69569e-18)
(6.01651 -6.47556 -1.53206e-18)
(5.90989 -6.28918 1.32088e-18)
(5.78419 -6.09078 -2.53901e-18)
(5.64273 -5.88565 -2.25085e-18)
(5.49113 -5.67886 -9.80195e-19)
(5.33478 -5.47483 4.33288e-20)
(5.1781 -5.27699 -8.0994e-19)
(5.02435 -5.08769 3.39704e-20)
(4.87577 -4.90834 0)
(4.73376 -4.73968 -1.23531e-18)
(4.59912 -4.58205 6.30636e-19)
(4.47223 -4.43573 0)
(4.35355 -4.30085 -4.92962e-19)
(4.24463 -4.17663 -8.85782e-19)
(4.14773 -4.06268 8.7037e-19)
(4.05554 -3.97108 4.29788e-19)
(6.93236 -6.809 0)
(6.53845 -6.81114 0)
(6.46801 -6.61611 -1.80419e-18)
(6.39708 -6.44353 -1.54746e-18)
(6.30055 -6.275 3.1425e-18)
(6.18303 -6.09193 0)
(6.0451 -5.89667 0)
(5.891 -5.69502 1.13068e-18)
(5.72696 -5.49219 0)
(5.55875 -5.29256 0)
(5.39097 -5.09946 0)
(5.22692 -4.91506 0)
(5.06877 -4.74065 0)
(4.91777 -4.57684 0)
(4.77447 -4.4239 0)
(4.63899 -4.282 0)
(4.51161 -4.15105 0)
(4.39338 -4.03043 0)
(4.28451 -3.92307 0)
(4.17914 -3.84556 0)
(10.0248 0.0875852 1.43548e-19)
(10.005 -0.307092 2.79148e-19)
(9.96997 -0.699153 -2.86859e-19)
(9.92024 -1.08845 5.71986e-19)
(9.85555 -1.47466 -5.71986e-19)
(9.77576 -1.85726 -5.39945e-19)
(9.68097 -2.23573 -5.3848e-19)
(9.5714 -2.60953 1.69804e-18)
(9.44727 -2.97809 -1.13134e-18)
(9.30883 -3.34087 1.12214e-18)
(9.15637 -3.69732 -1.12214e-18)
(8.99019 -4.04692 1.11409e-18)
(8.81061 -4.38914 -2.20992e-18)
(8.61798 -4.72349 3.25326e-18)
(8.41266 -5.04948 0)
(8.19504 -5.36665 -3.19802e-18)
(7.96551 -5.67459 1.54089e-20)
(7.72459 -5.97294 3.22519e-18)
(7.47238 -6.26155 0)
(7.21054 -6.53972 0)
(10.07 -0.211167 0)
(10.03 -0.605412 -1.49143e-20)
(9.97327 -0.99596 0)
(9.90059 -1.38248 5.45606e-19)
(9.81216 -1.76454 5.6864e-19)
(9.70815 -2.14157 -1.64471e-18)
(9.58886 -2.51292 2.86641e-18)
(9.45464 -2.87799 -1.13128e-18)
(9.30583 -3.23619 -1.0777e-18)
(9.14283 -3.58693 -1.07341e-18)
(8.96604 -3.92964 4.42597e-20)
(8.77588 -4.2638 1.10119e-18)
(8.57283 -4.58887 -5.47316e-18)
(8.35733 -4.90437 -1.1501e-18)
(8.12988 -5.20983 2.18791e-18)
(7.89098 -5.50484 2.18636e-18)
(7.64109 -5.78899 1.11183e-18)
(7.38078 -6.06197 -2.14203e-18)
(7.11013 -6.32352 1.01394e-18)
(6.83009 -6.57329 0)
(9.99828 -0.150638 1.28754e-19)
(9.96167 -0.539618 -2.63776e-19)
(9.90787 -0.925523 7.61276e-19)
(9.83724 -1.30767 -5.39864e-19)
(9.75018 -1.68542 -5.14354e-19)
(9.64704 -2.05807 5.37491e-19)
(9.52817 -2.42492 0)
(9.39397 -2.78528 0)
(9.24484 -3.13849 2.03988e-18)
(9.08123 -3.48392 3.04337e-18)
(8.90359 -3.82097 -9.61668e-19)
(8.7124 -4.14904 3.0099e-18)
(8.50818 -4.46759 -9.57718e-19)
(8.29144 -4.77609 -2.93199e-18)
(8.06273 -5.07404 1.28637e-20)
(7.8226 -5.36099 1.88124e-18)
(7.57156 -5.63649 -8.47817e-19)
(7.3102 -5.90016 -1.852e-18)
(7.03884 -6.15162 -1.00231e-18)
(6.75819 -6.39037 1.82107e-18)
(9.81673 -0.114831 0)
(9.78662 -0.494053 2.2187e-19)
(9.73943 -0.871015 2.20919e-19)
(9.67537 -1.24483 -9.08052e-19)
(9.59476 -1.6147 0)
(9.49792 -1.97988 0)
(9.38521 -2.33962 0)
(9.257 -2.69318 0)
(9.11368 -3.03986 -9.62125e-19)
(8.9557 -3.37899 -9.58558e-19)
(8.7835 -3.70991 0)
(8.5976 -4.032 1.81143e-18)
(8.39849 -4.34466 -4.47834e-18)
(8.18672 -4.64732 3.60198e-18)
(7.96284 -4.93943 -3.49076e-18)
(7.72743 -5.2205 -8.47172e-19)
(7.48103 -5.49003 1.5455e-19)
(7.22426 -5.74757 1.53056e-19)
(6.9576 -5.99267 -1.72722e-18)
(6.68177 -6.22483 -7.06271e-20)
(9.55436 -0.101635 0)
(9.53129 -0.468355 -2.18813e-19)
(9.49159 -0.833442 0)
(9.43536 -1.196 4.3775e-19)
(9.36282 -1.55522 4.17028e-19)
(9.27424 -1.91031 3.80826e-19)
(9.16994 -2.26051 0)
(9.05024 -2.60509 0)
(8.91551 -2.94331 0)
(8.76615 -3.27447 0)
(8.60259 -3.5979 7.87341e-19)
(8.4253 -3.91293 8.49382e-19)
(8.23478 -4.21894 8.44878e-19)
(8.03155 -4.51533 -8.57508e-19)
(7.81615 -4.80152 -1.47293e-18)
(7.58915 -5.07696 1.67615e-18)
(7.35111 -5.34113 3.24924e-18)
(7.10265 -5.59351 1.58048e-18)
(6.84433 -5.83362 0)
(6.57682 -6.06097 -1.48877e-18)
(9.24206 -0.0928031 4.48715e-20)
(9.22563 -0.445227 0)
(9.1932 -0.796562 -7.35499e-19)
(9.1448 -1.14597 1.67854e-23)
(9.08058 -1.49263 1.5825e-20)
(9.00076 -1.83579 -6.71297e-20)
(8.9056 -2.17468 0)
(8.79538 -2.50857 3.03081e-20)
(8.67043 -2.83672 -7.4692e-19)
(8.53109 -3.15844 1.45499e-18)
(8.37776 -3.47303 -1.51814e-18)
(8.21088 -3.77984 8.30534e-19)
(8.0309 -4.07823 -4.34599e-18)
(7.83831 -4.36757 2.86638e-18)
(7.63363 -4.64726 1.52111e-18)
(7.41739 -4.91674 0)
(7.19017 -5.17543 -2.80582e-18)
(6.95254 -5.42282 -6.07556e-20)
(6.70507 -5.65838 -2.76411e-18)
(6.4484 -5.88159 2.8752e-18)
(8.90667 -0.0877544 4.03051e-20)
(8.89564 -0.425138 -8.44876e-20)
(8.86934 -0.761879 6.92905e-19)
(8.82776 -1.09719 -1.37538e-20)
(8.771 -1.4303 6.92764e-19)
(8.69923 -1.76046 -1.04646e-18)
(8.61267 -2.08693 0)
(8.51156 -2.409 7.05616e-19)
(8.39617 -2.72596 6.45394e-19)
(8.26681 -3.03711 -7.01723e-19)
(8.12383 -3.34179 1.28252e-18)
(7.96763 -3.63933 2.72143e-18)
(7.79861 -3.92911 -1.26445e-18)
(7.61725 -4.21049 -1.37259e-18)
(7.424 -4.48288 1.31543e-18)
(7.21939 -4.74569 0)
(7.00396 -4.99836 6.35795e-20)
(6.77824 -5.24032 9.29529e-21)
(6.54281 -5.47105 2.6169e-18)
(6.29825 -5.69 1.21573e-18)
(8.56816 -0.0862008 0)
(8.56104 -0.408616 6.10509e-21)
(8.53941 -0.730721 -1.4068e-19)
(8.50325 -1.05178 -6.25522e-19)
(8.45262 -1.37106 5.87548e-19)
(8.38765 -1.68785 0)
(8.30853 -2.00145 1.19617e-18)
(8.21545 -2.31117 -1.3024e-21)
(8.10864 -2.61634 -1.82746e-18)
(7.9884 -2.91628 0)
(7.85501 -3.21034 -1.26211e-18)
(7.70885 -3.49791 4.49957e-20)
(7.55028 -3.77834 -3.54562e-18)
(7.37972 -4.05104 6.16558e-21)
(7.19762 -4.31542 1.18868e-18)
(7.00447 -4.57088 0)
(6.80075 -4.81687 -1.16703e-18)
(6.58701 -5.05282 8.25981e-21)
(6.36378 -5.2782 1.15877e-18)
(6.13159 -5.49242 -1.19637e-18)
(8.23959 -0.0868488 0)
(8.23503 -0.394874 1.44309e-19)
(8.21671 -0.702815 2.99512e-19)
(8.18459 -1.00998 -5.53915e-19)
(8.13872 -1.31569 -2.41301e-20)
(8.0792 -1.61926 -2.76829e-19)
(8.00619 -1.92004 -1.10825e-18)
(7.91986 -2.21738 5.50958e-19)
(7.82041 -2.51062 2.32634e-20)
(7.70809 -2.79914 5.47686e-19)
(7.58317 -3.08233 5.03737e-19)
(7.44598 -3.35957 2.18372e-18)
(7.29686 -3.63027 1.09238e-18)
(7.1362 -3.89385 2.1575e-18)
(6.96442 -4.14974 -1.07595e-18)
(6.78196 -4.39737 3.78277e-20)
(6.58932 -4.63618 -1.0634e-18)
(6.38698 -4.86561 0)
(6.17547 -5.08513 1.00491e-18)
(5.95528 -5.29415 0)
(7.92847 -0.0886299 6.27425e-20)
(7.92536 -0.383118 -1.83707e-19)
(7.90921 -0.67766 5.04026e-19)
(7.87996 -0.971613 -2.51432e-19)
(7.83764 -1.26433 1.84746e-20)
(7.78236 -1.55518 -2.51283e-19)
(7.71423 -1.84354 5.2265e-19)
(7.6334 -2.1288 -4.99974e-19)
(7.54007 -2.41035 4.99971e-19)
(7.43445 -2.6876 9.58552e-19)
(7.3168 -2.95995 -1.03383e-18)
(7.1874 -3.22686 -4.39439e-20)
(7.04658 -3.48774 -2.99171e-18)
(6.8947 -3.74205 5.14334e-21)
(6.73216 -3.98925 3.91908e-20)
(6.55939 -4.22879 1.93949e-18)
(6.37684 -4.46014 -9.58075e-19)
(6.18501 -4.68274 -9.12259e-19)
(5.9844 -4.89606 -3.66841e-20)
(5.77548 -5.0995 0)
(7.63826 -0.0908327 0)
(7.63581 -0.372753 2.33277e-19)
(7.62095 -0.654801 -8.01943e-19)
(7.59364 -0.936373 -2.12603e-19)
(7.55391 -1.21686 4.76005e-19)
(7.50184 -1.49568 0)
(7.43754 -1.77224 0)
(7.36115 -2.04595 4.54794e-19)
(7.27283 -2.31626 -4.54792e-19)
(7.1728 -2.58261 3.82405e-19)
(7.06127 -2.84444 -4.51867e-19)
(6.93853 -3.10123 8.96111e-19)
(6.80488 -3.35244 -1.7878e-18)
(6.66065 -3.59757 1.7786e-18)
(6.50624 -3.8361 3.38147e-20)
(6.34205 -4.06753 -9.1525e-19)
(6.16854 -4.29134 -8.70569e-19)
(5.98619 -4.50699 1.77387e-18)
(5.79551 -4.71396 8.29892e-19)
(5.59693 -4.91162 0)
(7.36977 -0.0929996 1.82036e-21)
(7.36742 -0.36333 1.52993e-19)
(7.35324 -0.633818 3.21352e-19)
(7.3272 -0.903895 2.25032e-19)
(7.28932 -1.17299 2.08599e-19)
(7.23968 -1.44055 1.93928e-19)
(7.17838 -1.70601 0)
(7.10554 -1.96884 -8.0165e-19)
(7.02133 -2.22849 -4.13371e-19)
(6.92593 -2.48446 3.52081e-19)
(6.81956 -2.73622 0)
(6.70247 -2.98327 8.1645e-19)
(6.57496 -3.22514 -2.41444e-18)
(6.43735 -3.46135 8.12274e-19)
(6.29 -3.69142 0)
(6.13334 -3.91488 -7.72066e-19)
(5.96782 -4.13125 -1.55966e-18)
(5.79391 -4.34003 7.6731e-19)
(5.61216 -4.54066 -2.84873e-20)
(5.42299 -4.73253 0)
(7.12223 -0.0948428 3.3564e-21)
(7.11962 -0.354518 -9.90046e-20)
(7.10571 -0.614347 1.90998e-19)
(7.08047 -0.873796 -1.2699e-20)
(7.04392 -1.13233 3.81652e-19)
(6.99613 -1.38941 -5.86265e-19)
(6.9372 -1.64452 0)
(6.86724 -1.89715 5.429e-20)
(6.78641 -2.1468 0)
(6.69489 -2.39297 -7.82641e-19)
(6.59287 -2.63519 0)
(6.4806 -2.873 -7.21839e-19)
(6.35835 -3.10595 2.23163e-18)
(6.22644 -3.3336 -1.47872e-18)
(6.08524 -3.55552 7.37229e-19)
(5.93514 -3.7713 -6.51579e-19)
(5.77663 -3.98047 7.53706e-19)
(5.61018 -4.1826 -7.48556e-19)
(5.43642 -4.37709 0)
(5.25576 -4.56333 0)
(6.89397 -0.0962318 4.52792e-20)
(6.89092 -0.346092 0)
(6.87703 -0.596092 0)
(6.85228 -0.845723 -3.62774e-19)
(6.8167 -1.09447 -3.38435e-19)
(6.77035 -1.34184 0)
(6.71334 -1.58732 0)
(6.64576 -1.83045 4.82093e-20)
(6.56777 -2.07074 6.70148e-19)
(6.47952 -2.30773 -3.23114e-19)
(6.38122 -2.54098 -3.4438e-19)
(6.2731 -2.77006 1.39129e-18)
(6.1554 -2.99455 -2.06582e-18)
(6.02845 -3.21407 1.33185e-18)
(5.89259 -3.42823 0)
(5.74822 -3.63669 2.67594e-18)
(5.59585 -3.83899 -1.94237e-18)
(5.43597 -4.03481 6.60894e-19)
(5.26934 -4.22348 1.26352e-18)
(5.09634 -4.40445 0)
(6.68304 -0.0970989 -3.89016e-20)
(6.67943 -0.337896 0)
(6.66541 -0.578813 -5.03144e-21)
(6.64096 -0.81936 -3.11305e-19)
(6.60612 -1.05905 9.64753e-19)
(6.56094 -1.2974 -1.60478e-19)
(6.50552 -1.53394 0)
(6.43997 -1.76822 1.27834e-18)
(6.36441 -1.99978 -6.58412e-19)
(6.27901 -2.22819 4.29398e-20)
(6.18395 -2.45303 6.09945e-19)
(6.07944 -2.67391 6.25248e-19)
(5.96574 -2.89044 -1.24682e-18)
(5.84313 -3.1023 -1.21943e-18)
(5.71195 -3.30912 -1.1909e-18)
(5.5726 -3.51065 -1.26773e-18)
(5.42561 -3.70647 1.25904e-18)
(5.2715 -3.89643 -6.00825e-19)
(5.11122 -4.07971 -6.40566e-19)
(4.9451 -4.25597 0)
(6.48731 -0.0974252 3.82198e-20)
(6.48311 -0.329827 -1.43482e-19)
(6.4689 -0.562321 -1.48552e-19)
(6.44466 -0.794436 4.44783e-19)
(6.41042 -1.02571 -1.57982e-19)
(6.36624 -1.25568 -1.47634e-19)
(6.31222 -1.4839 0)
(6.24844 -1.70993 -6.06862e-19)
(6.17504 -1.93335 0)
(6.09218 -2.15375 6.02125e-19)
(6.00001 -2.37073 -1.16013e-18)
(5.89875 -2.58393 5.7422e-19)
(5.78861 -2.793 -1.14488e-18)
(5.66988 -2.99765 1.18161e-18)
(5.54286 -3.19756 6.43304e-19)
(5.40793 -3.3926 0)
(5.26568 -3.58234 -5.5487e-19)
(5.11658 -3.76696 5.5487e-19)
(4.96198 -3.94533 0)
(4.80191 -4.11776 0)
(6.30478 -0.0972842 0)
(6.30002 -0.321858 1.4097e-19)
(6.28561 -0.546491 4.54351e-21)
(6.26154 -0.770735 -1.45355e-19)
(6.22784 -0.994147 -1.28168e-19)
(6.18458 -1.21629 -1.36062e-19)
(6.13184 -1.43674 5.2586e-19)
(6.06972 -1.65507 0)
(5.99833 -1.87088 0)
(5.91781 -2.08379 2.67193e-19)
(5.82833 -2.29341 2.83864e-19)
(5.73007 -2.49942 1.02717e-18)
(5.62324 -2.70149 -5.24787e-19)
(5.50806 -2.89936 5.24786e-19)
(5.38485 -3.09278 5.57178e-19)
(5.25392 -3.28173 3.26129e-20)
(5.11589 -3.46579 -1.02286e-18)
(4.97113 -3.64563 3.69676e-21)
(4.82164 -3.81953 5.05791e-19)
(4.66668 -3.98932 0)
(6.13362 -0.0966862 -3.15086e-20)
(6.12836 -0.31396 3.15082e-20)
(6.11379 -0.531268 0)
(6.08992 -0.748174 1.18694e-19)
(6.05678 -0.964255 3.8547e-19)
(6.01442 -1.17909 -4.87208e-19)
(5.96294 -1.39228 -5.16675e-19)
(5.90241 -1.60342 0)
(5.83297 -1.81213 0)
(5.75474 -2.01803 0)
(5.66786 -2.22078 -9.53636e-19)
(5.5725 -2.42006 -6.15295e-20)
(5.46885 -2.61558 -4.83407e-19)
(5.35709 -2.80711 2.8937e-20)
(5.2375 -2.99444 -9.55856e-19)
(5.11029 -3.17768 1.45665e-18)
(4.97613 -3.35644 -1.37996e-18)
(4.83511 -3.53212 4.68413e-19)
(4.69021 -3.70206 8.97713e-19)
(4.53905 -3.87074 0)
(5.97222 -0.0952909 2.83164e-20)
(5.96656 -0.30594 0)
(5.95191 -0.516614 -1.16557e-19)
(5.92829 -0.726887 -2.40145e-19)
(5.89573 -0.936352 1.16407e-19)
(5.85428 -1.14461 9.29515e-19)
(5.80403 -1.35127 0)
(5.74507 -1.55596 -4.47665e-19)
(5.6775 -1.75831 -2.28914e-19)
(5.60145 -1.95797 -4.30124e-19)
(5.51704 -2.15461 -1.72195e-19)
(5.42443 -2.34793 -1.35748e-18)
(5.32376 -2.53765 -8.95898e-19)
(5.21518 -2.72359 9.21514e-19)
(5.09891 -2.90555 8.81963e-19)
(4.97499 -3.08372 -3.78097e-21)
(4.84413 -3.25784 2.87086e-20)
(4.70574 -3.43017 4.31615e-19)
(4.56441 -3.59741 -8.82093e-19)
(4.4141 -3.76851 0)
(5.81903 -0.093608 -5.92217e-20)
(5.81309 -0.297922 2.91565e-20)
(5.79851 -0.502329 -1.16481e-19)
(5.77528 -0.706445 1.16429e-19)
(5.74343 -0.909887 -3.34937e-19)
(5.703 -1.11228 -1.04265e-18)
(5.65405 -1.31324 0)
(5.59666 -1.51242 4.7374e-19)
(5.53092 -1.70947 -4.43058e-19)
(5.45692 -1.90405 9.37875e-19)
(5.37477 -2.09585 9.32234e-19)
(5.28457 -2.28457 1.37337e-18)
(5.18646 -2.46996 -8.91152e-19)
(5.08048 -2.6518 4.43866e-19)
(4.96685 -2.82994 -4.36417e-19)
(4.84524 -3.00452 4.36442e-19)
(4.71664 -3.17539 0)
(4.57866 -3.34534 3.95127e-19)
(4.43948 -3.51088 -3.86489e-19)
(4.28541 -3.69219 0)
(7.1212 7.24298 0)
(7.40048 6.95399 0)
(7.66693 6.65546 1.06121e-18)
(7.92125 6.3479 1.92384e-20)
(8.16288 6.03102 -1.12381e-18)
(8.39116 5.70487 0)
(8.60566 5.36985 1.15877e-18)
(8.80607 5.02649 -2.18435e-18)
(8.99207 4.67535 -1.10364e-18)
(9.16337 4.31705 -1.11372e-18)
(9.31969 3.9522 1.11372e-18)
(9.46081 3.58146 -1.12525e-18)
(9.58655 3.2055 5.61328e-19)
(9.69673 2.825 5.35073e-19)
(9.79117 2.44066 5.3713e-19)
(9.8698 2.05313 -5.70634e-19)
(9.93257 1.66305 5.70634e-19)
(9.97957 1.27114 -2.86452e-19)
(10.0108 0.877771 -1.35912e-19)
(10.0266 0.484302 7.16675e-20)
(7.37432 7.02908 0)
(7.6527 6.74102 -9.70132e-19)
(7.9174 6.44154 -2.07454e-18)
(8.16872 6.1313 3.06706e-18)
(8.40644 5.81062 -2.12736e-18)
(8.63004 5.47993 2.13641e-18)
(8.83907 5.13982 1.16236e-18)
(9.03311 4.79095 -3.29568e-18)
(9.21178 4.43399 1.07801e-18)
(9.37472 4.06965 2.14156e-18)
(9.52161 3.69865 1.05457e-18)
(9.65221 3.32172 1.06112e-18)
(9.76632 2.93965 -1.12032e-18)
(9.86379 2.5532 1.64886e-18)
(9.94439 2.16309 -2.28926e-18)
(10.008 1.77015 5.64856e-19)
(10.0545 1.37519 -5.42384e-19)
(10.084 0.97902 0)
(10.0965 0.582174 1.50192e-20)
(10.0922 0.185616 0)
(7.21866 6.89339 -1.70654e-18)
(7.4991 6.62276 9.59033e-19)
(7.76709 6.33945 1.7515e-18)
(8.02221 6.04415 7.91422e-19)
(8.26406 5.73741 1.98698e-18)
(8.49211 5.41984 1.90534e-20)
(8.70586 5.09208 -9.95724e-19)
(8.90482 4.75483 -2.9653e-18)
(9.08856 4.40877 2.92656e-18)
(9.25667 4.05464 -3.00439e-18)
(9.40872 3.69314 -1.00069e-18)
(9.54444 3.32504 -2.00176e-18)
(9.66355 2.95115 0)
(9.76577 2.57224 0)
(9.85096 2.18912 0)
(9.91901 1.80269 -5.1e-19)
(9.96976 1.41378 5.34552e-19)
(10.0032 1.02324 5.11619e-19)
(10.0191 0.631783 6.1903e-21)
(10.0176 0.240348 1.28488e-19)
(6.98563 6.63782 1.77296e-18)
(7.26231 6.38564 -1.60821e-18)
(7.52774 6.12055 -1.66831e-19)
(7.78122 5.84309 -1.67737e-19)
(8.02219 5.55386 4.1763e-18)
(8.25013 5.25342 -7.03052e-20)
(8.46449 4.9424 3.37826e-21)
(8.66476 4.62146 -2.64018e-18)
(8.85044 4.29124 1.74151e-18)
(9.02108 3.95242 0)
(9.17622 3.60576 9.34317e-19)
(9.31549 3.25209 9.40665e-19)
(9.43864 2.89217 0)
(9.54533 2.52678 0)
(9.63535 2.15676 0)
(9.70852 1.78293 0)
(9.76465 1.40606 -2.12838e-20)
(9.80364 1.02701 4.60076e-19)
(9.82534 0.646574 -2.20793e-19)
(9.82975 0.265676 0)
(6.72062 6.32353 1.49922e-18)
(6.98923 6.08893 0)
(7.24768 5.84162 -4.40867e-18)
(7.4952 5.58204 -1.50232e-18)
(7.73116 5.31071 -1.57937e-18)
(7.95499 5.02816 -1.67447e-18)
(8.16614 4.73497 7.90979e-19)
(8.36408 4.43172 -8.30514e-19)
(8.54828 4.11904 2.30474e-18)
(8.71829 3.79761 -7.54082e-19)
(8.87374 3.46815 0)
(9.01412 3.13141 0)
(9.13905 2.78807 0)
(9.24826 2.43887 0)
(9.34149 2.08463 -1.1904e-18)
(9.41849 1.72616 4.09456e-19)
(9.47907 1.36422 -4.32751e-19)
(9.52305 0.999629 0)
(9.55032 0.63321 2.17752e-19)
(9.56079 0.265834 0)
(6.44462 5.99817 1.27987e-18)
(6.70295 5.7795 -4.74642e-20)
(6.95205 5.54854 2.6918e-18)
(7.19114 5.30565 1.34412e-18)
(7.41956 5.05128 0)
(7.63677 4.78592 -1.42763e-18)
(7.8422 4.5101 6.69665e-20)
(8.03532 4.22436 -1.44862e-18)
(8.21563 3.92929 2.00163e-18)
(8.38265 3.62552 3.21921e-20)
(8.53598 3.31367 2.76229e-20)
(8.67517 2.99437 -7.22071e-19)
(8.79982 2.66831 1.41573e-18)
(8.90961 2.33625 0)
(9.00431 1.99888 6.71574e-20)
(9.08359 1.65702 7.22594e-19)
(9.14721 1.31142 1.56299e-21)
(9.19498 0.962834 -1.50347e-20)
(9.2268 0.612057 0)
(9.24251 0.259899 -4.47794e-20)
(6.17767 5.68294 0)
(6.42471 5.47813 -4.8331e-20)
(6.66325 5.26157 1.67335e-20)
(6.89255 5.03354 -2.42994e-18)
(7.11199 4.79445 0)
(7.32101 4.54474 1.2279e-18)
(7.51908 4.28489 1.30841e-18)
(7.70568 4.01541 -3.80514e-18)
(7.88033 3.73681 -6.67406e-20)
(8.04257 3.44967 -1.2206e-18)
(8.19196 3.15457 6.72759e-19)
(8.32811 2.85211 -6.20699e-19)
(8.45061 2.54295 -6.83033e-19)
(8.5591 2.22777 0)
(8.65336 1.90727 3.60493e-19)
(8.73318 1.58203 -1.65268e-20)
(8.79817 1.25291 -3.34229e-19)
(8.84814 0.920629 -1.63933e-20)
(8.88296 0.585914 -8.41275e-20)
(8.90248 0.24952 1.68619e-19)
(5.93034 5.38872 0)
(6.16586 5.19574 1.04934e-18)
(6.39348 4.99157 1.54203e-20)
(6.61249 4.77647 -1.06473e-18)
(6.82229 4.55078 0)
(7.02235 4.31492 1.10712e-18)
(7.21217 4.06931 -1.05653e-18)
(7.39126 3.81442 -1.1705e-18)
(7.55915 3.55073 2.22456e-18)
(7.71541 3.27876 1.20119e-18)
(7.85962 2.99906 0)
(7.9914 2.71221 5.85527e-19)
(8.11036 2.4188 -4.19407e-21)
(8.21622 2.11948 2.14052e-20)
(8.30853 1.8149 0)
(8.38719 1.50565 -5.75828e-19)
(8.45205 1.19236 -3.01799e-19)
(8.5027 0.875825 4.40811e-19)
(8.53902 0.55675 2.9722e-19)
(8.56084 0.235826 -3.97569e-20)
(5.70613 5.1202 0)
(5.93047 4.93727 -9.0473e-19)
(6.14736 4.74371 0)
(6.35614 4.53976 -9.76249e-19)
(6.55625 4.32572 1.92145e-18)
(6.74718 4.10197 -1.95915e-18)
(6.92845 3.86889 3.06682e-18)
(7.09962 3.62692 -3.0572e-18)
(7.26025 3.3765 -2.06534e-18)
(7.40992 3.11812 -1.52258e-18)
(7.54824 2.85231 5.2227e-19)
(7.67485 2.57959 -1.08293e-18)
(7.7894 2.30053 1.82371e-20)
(7.89158 2.01572 1.07615e-18)
(7.98109 1.72574 -2.70697e-19)
(8.05758 1.4313 1.10918e-18)
(8.12096 1.13287 -5.4537e-19)
(8.17107 0.831144 2.51007e-19)
(8.20764 0.526839 -1.43363e-19)
(8.23048 0.22061 0)
(5.50486 4.87785 0)
(5.71865 4.70348 1.74967e-18)
(5.92534 4.51905 8.47766e-19)
(6.12432 4.32475 -8.73177e-19)
(6.31504 4.12085 -1.78846e-18)
(6.49705 3.90768 2.72107e-18)
(6.66989 3.6856 1.07946e-20)
(6.83316 3.45502 -8.86217e-19)
(6.98644 3.21635 1.90412e-18)
(7.12934 2.97007 9.83576e-19)
(7.26151 2.71666 -9.1798e-19)
(7.3826 2.45662 4.82195e-19)
(7.49228 2.1905 2.19561e-20)
(7.59025 1.91883 -5.07604e-19)
(7.67624 1.64218 -2.4584e-19)
(7.74997 1.36113 4.92935e-19)
(7.8112 1.07636 -2.47095e-19)
(7.85984 0.788333 -4.98637e-19)
(7.89572 0.497734 5.77303e-20)
(7.9186 0.205193 6.24751e-20)