/*--------------------------------*- C++ -*----------------------------------*\
  =========                 |
  \\      /  F ield         | OpenFOAM: The Open Source CFD Toolbox
   \\    /   O peration     | Website:  https://openfoam.org
    \\  /    A nd           | Version:  6.0
     \\/     M anipulation  |
\*---------------------------------------------------------------------------*/
FoamFile
{
    version     2.0;
    format      ascii;
    class       surfaceScalarField;
    location    "2.751";
    object      phi;
}
// * * * * * * * * * * * * * * * * * * * * * * * * * * * * * * * * * * * * * //

dimensions      [0 3 -1 0 0 0 0];

internalField   nonuniform List<scalar> 
38030
(
9.35714e-06
-0.0807909
0.0807815
6.59937e-05
-0.0765191
0.0764625
0.000163089
-0.0728471
0.07275
0.000295453
-0.0696648
0.0695325
0.000458873
-0.0668792
0.0667157
0.000649027
-0.0644117
0.0642216
0.000861592
-0.0621988
0.0619863
0.00109242
-0.0601894
0.0599586
0.00133761
-0.058343
0.0580978
0.00159365
-0.0566275
0.0563715
0.00185739
-0.0550182
0.0547545
0.00212606
-0.0534959
0.0532272
0.00239735
-0.0520456
0.0517743
0.00266929
-0.0506561
0.0503842
0.00294028
-0.049319
0.049048
0.00320906
-0.0480278
0.047759
0.00347465
-0.0467775
0.0465119
0.00373635
-0.0455645
0.0453028
0.00399364
-0.044386
0.0441287
0.0042462
-0.0432396
0.0429871
0.00449383
-0.0421238
0.0418761
0.00473646
-0.0410368
0.0407942
0.00497404
-0.0399776
0.03974
0.00520659
-0.0389453
0.0387128
0.00543415
-0.0379392
0.0377116
0.00565675
-0.0369583
0.0367357
0.0058744
-0.0360016
0.0357839
0.00608705
-0.0350679
0.0348552
0.00629452
-0.0341561
0.0339486
-0.0332653
0.0330632
0.00649658
1.62461e-05
-0.0808071
7.38708e-05
-0.0765767
0.000171646
-0.0729449
0.000305475
-0.0697987
0.000470948
-0.0670446
0.000663514
-0.0646043
0.000878657
-0.062414
0.00111206
-0.0604228
0.00135974
-0.0585906
0.00161806
-0.0568859
0.00188382
-0.055284
0.00215426
-0.0537663
0.002427
-0.0523183
0.00270011
-0.0509292
0.002972
-0.0495909
0.00324143
-0.0482972
0.00350747
-0.0470435
0.00376943
-0.0458264
0.00402686
-0.0446434
0.00427949
-0.0434923
0.00452718
-0.0423714
0.00476988
-0.0412795
0.00500763
-0.0402153
0.00524047
-0.0391781
0.00546846
-0.0381672
0.00569171
-0.0371816
0.00591027
-0.0362201
0.00612413
-0.0352817
0.00633318
-0.0343652
-0.0334693
0.0065372
1.87604e-05
-0.0808259
7.86792e-05
-0.0766367
0.000178512
-0.0730447
0.000314648
-0.0699348
0.000482693
-0.0672127
0.000677994
-0.0647996
0.000895917
-0.0626319
0.00113204
-0.060659
0.00138227
-0.0588409
0.00164292
-0.0571465
0.00191073
-0.0555518
0.00218292
-0.0540385
0.00245711
-0.0525925
0.00273137
-0.0512035
0.00300413
-0.0498637
0.00327417
-0.0485672
0.00354061
-0.0473099
0.0038028
-0.0460886
0.00406034
-0.0449009
0.004313
-0.0437449
0.00456072
-0.0426192
0.0048035
-0.0415223
0.00504142
-0.0404533
0.00527457
-0.0394113
0.00550306
-0.0383957
0.00572699
-0.0374055
0.00594652
-0.0364397
0.00616167
-0.0354969
0.00637239
-0.0345759
-0.0336754
0.00657848
2.01913e-05
-0.0808461
8.22863e-05
-0.0766988
0.000184531
-0.073147
0.000323331
-0.0700736
0.000494232
-0.0673836
0.000692481
-0.0649978
0.000913335
-0.0628528
0.00115227
-0.0608979
0.00140511
-0.0590937
0.00166811
-0.0574095
0.00193798
-0.0558217
0.00221191
-0.0543124
0.00248751
-0.0528681
0.00276287
-0.0514789
0.00303645
-0.0501372
0.00330705
-0.0488378
0.00357383
-0.0475767
0.00383619
-0.046351
0.00409377
-0.0451585
0.00434642
-0.0439976
0.00459411
-0.0428668
0.00483692
-0.0417651
0.00507501
-0.0406914
0.00530848
-0.0396448
0.00553746
-0.0386247
0.00576213
-0.0376302
0.00598265
-0.0366602
0.00619915
-0.0357134
0.0064116
-0.0347883
-0.0338836
0.00661985
2.12333e-05
-0.0808673
8.53436e-05
-0.0767629
0.0001901
-0.0732517
0.000331732
-0.0702152
0.000505658
-0.0675575
0.000706992
-0.0651992
0.000930876
-0.0630766
0.00117269
-0.0611397
0.00142817
-0.0593492
0.00169352
-0.0576749
0.00196543
-0.0560936
0.00224104
-0.054588
0.00251801
-0.0531451
0.00279441
-0.0517553
0.00306872
-0.0504116
0.00333981
-0.0491089
0.00360685
-0.0478438
0.0038693
-0.0466134
0.00412686
-0.0454161
0.00437941
-0.0442501
0.004627
-0.0431144
0.00486979
-0.0420079
0.00510797
-0.0409295
0.00534172
-0.0398785
0.00557119
-0.0388541
0.0057966
-0.0378556
0.00601814
-0.0368817
0.00623601
-0.0359313
0.00645023
-0.0350026
-0.0340941
0.00666069
2.21057e-05
-0.0808894
8.81308e-05
-0.0768289
0.000195427
-0.073359
0.000339979
-0.0703598
0.000517026
-0.0677345
0.000721529
-0.0654037
0.0009485
-0.0633036
0.00119321
-0.0613844
0.00145134
-0.0596073
0.00171902
-0.0579425
0.00199291
-0.0563675
0.00227016
-0.0548653
0.00254841
-0.0534233
0.00282575
-0.0520326
0.00310071
-0.0506865
0.00337218
-0.0493804
0.00363938
-0.048111
0.00390182
-0.0468759
0.00415925
-0.0456735
0.00441162
-0.0445025
0.00465903
-0.0433618
0.0049017
-0.0422506
0.00513987
-0.0411677
0.00537381
-0.0401125
0.00560372
-0.039084
0.00582983
-0.0380817
0.00605242
-0.0371043
0.00627166
-0.0361505
0.00648768
-0.0352186
-0.0343068
0.00670037
2.2903e-05
-0.0809123
9.07862e-05
-0.0768968
0.000200629
-0.0734689
0.000348148
-0.0705073
0.000528369
-0.0679148
0.000736085
-0.0656114
0.000966167
-0.0635337
0.00121378
-0.061632
0.00147453
-0.0598681
0.00174449
-0.0582125
0.00202029
-0.0566433
0.00229908
-0.055144
0.0025785
-0.0537028
0.00285668
-0.0523108
0.00313217
-0.050962
0.00340389
-0.0496521
0.00367112
-0.0483782
0.00393342
-0.0471382
0.00419059
-0.0459307
0.00444264
-0.0447545
0.00468973
-0.0436089
0.00493214
-0.042493
0.0051702
-0.0414058
0.00540423
-0.0403465
0.0056345
-0.0393143
0.00586129
-0.0383085
0.00608486
-0.0373279
0.00630548
-0.0363711
0.00652327
-0.0354364
-0.0345217
0.00673821
2.36652e-05
-0.080936
9.33794e-05
-0.0769665
0.000205772
-0.0735813
0.000356279
-0.0706578
0.000539701
-0.0680982
0.000750644
-0.0658223
0.000983833
-0.0637669
0.00123432
-0.0618825
0.00149763
-0.0601314
0.00176979
-0.0584847
0.00204741
-0.0569209
0.00232762
-0.0554243
0.0026081
-0.0539832
0.00288698
-0.0525897
0.00316284
-0.0512379
0.00343467
-0.0499239
0.00370178
-0.0486453
0.00396377
-0.0474002
0.00422052
-0.0461874
0.00447208
-0.0450061
0.00471869
-0.0438555
0.0049607
-0.042735
0.00519849
-0.0416436
0.0054325
-0.0405805
0.00566305
-0.0395449
0.00589042
-0.0385359
0.00611493
-0.0375524
0.00633683
-0.036593
0.00655637
-0.0356559
-0.0347389
0.00677353
2.44144e-05
-0.0809604
9.5945e-05
-0.077038
0.00021089
-0.0736962
0.000364396
-0.0708113
0.000551023
-0.0682848
0.000765184
-0.0660365
0.00100145
-0.0640032
0.00125476
-0.0621358
0.00152055
-0.0603972
0.00179481
-0.0587589
0.00207412
-0.0572002
0.00235563
-0.0557058
0.002637
-0.0542646
0.00291641
-0.0528691
0.00319249
-0.0515139
0.00346424
-0.0501957
0.00373105
-0.0489121
0.00399256
-0.0476617
0.0042487
-0.0464435
0.0044996
-0.045257
0.00474555
-0.0441015
0.00498696
-0.0429764
0.00522434
-0.041881
0.00545816
-0.0408143
0.00568884
-0.0397755
0.00591668
-0.0387637
0.00614203
-0.0377777
0.00636515
-0.0368161
0.00658634
-0.0358771
-0.0349582
0.00680568
2.51582e-05
-0.0809855
9.85034e-05
-0.0771114
0.000215999
-0.0738137
0.000372503
-0.0709678
0.000562326
-0.0684746
0.000779676
-0.0662539
0.00101896
-0.0642424
0.00127502
-0.0623919
0.00154319
-0.0606653
0.00181942
-0.0590352
0.00210029
-0.0574811
0.00238291
-0.0559884
0.00266501
-0.0545467
0.00294477
-0.0531488
0.00322086
-0.05179
0.00349235
-0.0504672
0.00375865
-0.0491784
0.00401948
-0.0479225
0.00427482
-0.0466989
0.00452485
-0.045507
0.00476993
-0.0443466
0.00501056
-0.043217
0.00524729
-0.0421177
0.00548069
-0.0410477
0.00571129
-0.0400061
0.00593945
-0.0389919
0.00616549
-0.0380038
0.00638978
-0.0370404
0.00661253
-0.0360999
-0.0351797
0.00683397
2.59021e-05
-0.0810114
0.000101061
-0.0771865
0.000221107
-0.0739338
0.000380599
-0.0711273
0.000573594
-0.0686676
0.000794088
-0.0664743
0.00103633
-0.0644847
0.00129503
-0.0626506
0.00156545
-0.0609358
0.00184352
-0.0593132
0.00212576
-0.0577633
0.00240932
-0.056272
0.00269194
-0.0548293
0.00297184
-0.0534287
0.00324773
-0.0520659
0.00351873
-0.0507382
0.0037843
-0.049444
0.00404421
-0.0481824
0.00429852
-0.0469532
0.00454745
-0.045756
0.00479144
-0.0445906
0.00503102
-0.0434566
0.00526685
-0.0423535
0.0054996
-0.0412805
0.00572985
-0.0402364
0.00595811
-0.0392201
0.0061847
-0.0382304
0.00641
-0.0372657
0.00663425
-0.0363241
-0.0354031
0.00685768
2.66483e-05
-0.0810381
0.00010362
-0.0772635
0.000226211
-0.0740563
0.000388676
-0.0712898
0.000584808
-0.0688638
0.000808387
-0.0666979
0.00105349
-0.0647298
0.00131471
-0.0629118
0.00158725
-0.0612083
0.00186697
-0.059593
0.0021504
-0.0580468
0.0024347
-0.0565563
0.00271761
-0.0551122
0.00299742
-0.0537086
0.00327288
-0.0523414
0.00354313
-0.0510084
0.00380772
-0.0497086
0.00406647
-0.0484412
0.00431947
-0.0472062
0.00456705
-0.0460035
0.00480967
-0.0448332
0.00504796
-0.0436949
0.00528263
-0.0425882
0.00551443
-0.0415123
0.00574405
-0.040466
0.00597211
-0.0394482
0.00619903
-0.0384573
0.00642513
-0.0374918
0.00665077
-0.0365497
-0.0356284
0.00687605
2.73952e-05
-0.0810655
0.00010618
-0.0773423
0.000231308
-0.0741815
0.000396724
-0.0714552
0.000595949
-0.069063
0.00082254
-0.0669245
0.00107041
-0.0649777
0.00133402
-0.0631754
0.0016085
-0.0614828
0.00188968
-0.0598741
0.00217408
-0.0583312
0.00245888
-0.0568411
0.00274185
-0.0553952
0.00302132
-0.053988
0.00329607
-0.0526161
0.00356532
-0.0512777
0.00382866
-0.0499719
0.00408596
-0.0486985
0.00433738
-0.0474576
0.00458331
-0.0462495
0.00482427
-0.0450742
0.00506096
-0.0439316
0.00529416
-0.0428214
0.00552469
-0.0417428
0.00575338
-0.0406947
0.00598091
-0.0396757
0.00620785
-0.0386842
0.00643455
-0.0377185
0.00666133
-0.0367765
-0.0358554
0.00688834
2.81426e-05
-0.0810936
0.000108737
-0.0774229
0.000236392
-0.0743091
0.000404733
-0.0716235
0.000606998
-0.0692653
0.000836516
-0.067154
0.00108702
-0.0652282
0.00135287
-0.0634413
0.0016291
-0.061759
0.00191154
-0.0601566
0.00219668
-0.0586163
0.00248174
-0.0571261
0.00276451
-0.055678
0.00304335
-0.0542669
0.00331712
-0.0528899
0.00358508
-0.0515457
0.00384687
-0.0502337
0.00410242
-0.048954
0.00435196
-0.0477072
0.00459591
-0.0464934
0.00483489
-0.0453131
0.00506965
-0.0441664
0.00530105
-0.0430528
0.00552998
-0.0419717
0.00575737
-0.0409221
0.005984
-0.0399023
0.0062106
-0.0389108
0.00643758
-0.0379455
0.00666523
-0.0370042
-0.036084
0.00689385
2.88881e-05
-0.0811225
0.000111288
-0.0775053
0.000241458
-0.0744393
0.000412692
-0.0717948
0.00061794
-0.0694705
0.000850287
-0.0673864
0.0011033
-0.0654812
0.00137121
-0.0637092
0.001649
-0.0620368
0.00193246
-0.06044
0.0022181
-0.0589019
0.00250313
-0.0574111
0.00278542
-0.0559603
0.00306336
-0.0545448
0.00333585
-0.0531624
0.00360221
-0.051812
0.00386214
-0.0504936
0.00411562
-0.0492075
0.00436293
-0.0479545
0.00460457
-0.0467351
0.00484121
-0.0455498
0.00507368
-0.0443988
0.0053029
-0.043282
0.00552985
-0.0421987
0.00575553
-0.0411478
0.0059809
-0.0401277
0.00620672
-0.0391366
0.00643362
-0.0381724
0.00666192
-0.0372325
-0.036314
0.00689185
2.96302e-05
-0.0811522
0.000113829
-0.0775895
0.000246501
-0.074572
0.000420598
-0.0719689
0.00062876
-0.0696787
0.000863832
-0.0676215
0.0011192
-0.0657365
0.00138898
-0.063979
0.00166812
-0.0623159
0.00195235
-0.0607243
0.00223822
-0.0591878
0.00252296
-0.0576959
0.00280447
-0.0562418
0.0030812
-0.0548215
0.0033521
-0.0534333
0.00361654
-0.0520765
0.00387427
-0.0507513
0.00412534
-0.0494586
0.00437007
-0.0481992
0.00460903
-0.046974
0.00484294
-0.0457837
0.00507271
-0.0446286
0.00529935
-0.0435086
0.00552391
-0.0424232
0.00574749
-0.0413713
0.00597115
-0.0403514
0.0061958
-0.0393613
0.00642218
-0.0383988
0.00665072
-0.037461
-0.0365448
0.00688153
3.03651e-05
-0.0811825
0.000116357
-0.0776755
0.000251522
-0.0747071
0.000428447
-0.0721458
0.000639455
-0.0698897
0.000877135
-0.0678591
0.0011347
-0.0659941
0.00140616
-0.0642504
0.00168639
-0.0625962
0.00197114
-0.061009
0.00225695
-0.0594736
0.0025411
-0.05798
0.00282153
-0.0565222
0.00309673
-0.0550967
0.00336572
-0.0537023
0.00362792
-0.0523387
0.00388311
-0.0510065
0.00413141
-0.0497069
0.0043732
-0.048441
0.00460907
-0.0472099
0.00483984
-0.0460145
0.00506647
-0.0448552
0.00529005
-0.0437322
0.00551175
-0.0426449
0.00573275
-0.0415923
0.00595421
-0.0405728
0.00617718
-0.0395843
0.00640248
-0.0386241
0.00663065
-0.0376892
-0.036776
0.00686189
3.10895e-05
-0.0812136
0.000118872
-0.0777633
0.000256524
-0.0748448
0.00043625
-0.0723255
0.000650028
-0.0701035
0.00089019
-0.0680993
0.00114977
-0.0662537
0.00142269
-0.0645233
0.00170378
-0.0628773
0.00198877
-0.061294
0.00227423
-0.0597591
0.00255749
-0.0582633
0.00283652
-0.0568012
0.00310987
-0.0553701
0.00337662
-0.053969
0.00363623
-0.0525983
0.00388854
-0.0512588
0.00413371
-0.0499521
0.00437216
-0.0486794
0.00460454
-0.0474423
0.00483172
-0.0462416
0.00505471
-0.0450782
0.0052747
-0.0439522
0.00549294
-0.0428632
0.00571074
-0.0418101
0.00592939
-0.0407915
0.00615002
-0.0398049
0.00637363
-0.0388477
0.00660084
-0.0379164
-0.0370072
0.00683199
3.18011e-05
-0.0812454
0.000121376
-0.0778528
0.000261522
-0.0749849
0.000444022
-0.072508
0.000660492
-0.0703199
0.000902997
-0.0683418
0.00116441
-0.0665151
0.00143855
-0.0647975
0.00172022
-0.0631589
0.00200517
-0.061579
0.00228999
-0.0600439
0.00257204
-0.0585453
0.00284935
-0.0570785
0.00312054
-0.0556413
0.00338471
-0.0542332
0.00364139
-0.052855
0.00389048
-0.0515079
0.00413216
-0.0501937
0.00436689
-0.0489142
0.00459535
-0.0476707
0.00481846
-0.0464647
0.00503729
-0.0452971
0.00525309
-0.044168
0.00546723
-0.0430773
0.00568112
-0.042024
0.00589619
-0.0410065
0.00611376
-0.0400225
0.00633495
-0.0390689
0.00656057
-0.038142
-0.0372376
0.00679103
3.24947e-05
-0.0812779
0.000123879
-0.0779442
0.00026654
-0.0751276
0.000451796
-0.0726933
0.000670871
-0.070539
0.000915567
-0.0685865
0.0011786
-0.0667781
0.00145371
-0.0650726
0.0017357
-0.0634409
0.0020203
-0.0618636
0.00230416
-0.0603278
0.00258469
-0.0588259
0.00285997
-0.0573538
0.00312867
-0.05591
0.00338994
-0.0544945
0.00364338
-0.0531084
0.0038889
-0.0517534
0.00412674
-0.0504316
0.00435737
-0.0491448
0.00458151
-0.0478949
0.00480008
-0.0466833
0.00501422
-0.0455112
0.00522522
-0.044379
0.00543453
-0.0432866
0.00564372
-0.0422332
0.00585436
-0.0412172
0.00606798
-0.0402361
0.0062859
-0.0392868
0.00650911
-0.0383652
-0.0374667
0.00673815
3.31684e-05
-0.0813111
0.000126401
-0.0780374
0.000271623
-0.0752728
0.000459621
-0.0728813
0.000681207
-0.0707606
0.00092792
-0.0688332
0.00119234
-0.0670425
0.00146816
-0.0653484
0.00175016
-0.0637229
0.00203412
-0.0621475
0.00231672
-0.0606104
0.00259541
-0.0591046
0.00286834
-0.0576267
0.00313423
-0.0561759
0.0033923
-0.0547525
0.00364218
-0.0533583
0.00388383
-0.0519951
0.00411749
-0.0506652
0.00434368
-0.049371
0.0045631
-0.0481143
0.00477671
-0.0468969
0.00498562
-0.0457201
0.0051912
-0.0445846
0.00539495
-0.0434904
0.00559857
-0.0424368
0.00580382
-0.0414224
0.00601243
-0.0404447
0.006226
-0.0395004
0.00644578
-0.038585
-0.0376933
0.00667245
3.38239e-05
-0.0813449
0.000128982
-0.0781326
0.000276842
-0.0754207
0.000467572
-0.073072
0.000691553
-0.0709846
0.000940086
-0.0690817
0.00120564
-0.0673081
0.00148188
-0.0656246
0.00176359
-0.0640046
0.00204659
-0.0624305
0.00232761
-0.0608914
0.00260415
-0.0593811
0.00287442
-0.057897
0.00313722
-0.0564387
0.00339179
-0.0550071
0.00363783
-0.0536043
0.00387532
-0.0522326
0.00410453
-0.0508945
0.00432596
-0.0495924
0.00454034
-0.0483287
0.00474858
-0.0471052
0.00495181
-0.0459233
0.00515136
-0.0447841
0.00534881
-0.0436878
0.00554595
-0.042634
0.0057447
-0.0416212
0.00594709
-0.0406471
0.00615502
-0.0397083
0.00637004
-0.0388
-0.0379164
0.00659311
3.44774e-05
-0.0813794
0.000131698
-0.0782298
0.000282308
-0.0755713
0.000475752
-0.0732654
0.000701983
-0.0712108
0.000952098
-0.0693319
0.0012185
-0.0675745
0.00149485
-0.065901
0.00177595
-0.0642858
0.00205768
-0.0627122
0.00233679
-0.0611705
0.00261088
-0.0596552
0.00287821
-0.0581643
0.00313762
-0.0566981
0.00338844
-0.0552579
0.00363037
-0.0538462
0.00386346
-0.0524657
0.00408799
-0.051119
0.00430445
-0.0498089
0.00451353
-0.0485378
0.0047161
-0.0473077
0.00491325
-0.0461205
0.00510627
-0.0449771
0.00529672
-0.0438783
0.00548645
-0.0428237
0.00567754
-0.0418123
0.00587229
-0.0408419
0.00607297
-0.039909
0.00628159
-0.0390087
-0.0381342
0.00649943
3.5171e-05
-0.0814145
0.000134686
-0.0783293
0.00028819
-0.0757248
0.000484302
-0.0734615
0.000712582
-0.0714391
0.000963995
-0.0695833
0.00123092
-0.0678414
0.00150704
-0.0661771
0.00178721
-0.0645659
0.00206733
-0.0629924
0.00234424
-0.0614474
0.00261557
-0.0599265
0.00287967
-0.0584284
0.00313544
-0.0569538
0.00338226
-0.0555048
0.00361989
-0.0540839
0.0038484
-0.0526942
0.00406807
-0.0513387
0.0042794
-0.0500202
0.00448304
-0.0487414
0.00467978
-0.0475045
0.00487062
-0.0463113
0.00505675
-0.0451633
0.00523964
-0.0440612
0.00542111
-0.0430052
0.00560334
-0.0419945
0.00578886
-0.0410274
0.00598038
-0.0401005
0.0061805
-0.0392088
-0.0383448
0.00639102
3.6021e-05
-0.0814506
0.000138191
-0.0784315
0.00029474
-0.0758813
0.000493401
-0.0736602
0.000723445
-0.0716691
0.000975804
-0.0698356
0.00124289
-0.0681085
0.00151842
-0.0664526
0.0017973
-0.0648448
0.00207549
-0.0632706
0.00234988
-0.0617218
0.00261817
-0.0601948
0.00287877
-0.058689
0.00313066
-0.0572057
0.00337328
-0.0557474
0.00360644
-0.054317
0.00383023
-0.052918
0.00404498
-0.0515534
0.00425114
-0.0502264
0.00444933
-0.0489396
0.00464025
-0.0476954
0.00482476
-0.0464958
0.00500389
-0.0453424
0.00517893
-0.0442362
0.00535154
-0.0431778
0.00552384
-0.0421668
0.0056985
-0.041202
0.00587868
-0.0402807
0.0060677
-0.0393978
-0.0385452
0.00626816
3.72853e-05
-0.0814879
0.000142626
-0.0785368
0.000302302
-0.076041
0.000503253
-0.0738612
0.00073466
-0.0719005
0.000987534
-0.0700885
0.00125437
-0.0683753
0.00152893
-0.0667272
0.00180617
-0.065122
0.0020821
-0.0635465
0.00235366
-0.0619933
0.00261862
-0.0604598
0.00287548
-0.0589459
0.00312326
-0.0574535
0.0033615
-0.0559856
0.00359006
-0.0545456
0.00380907
-0.053137
0.00401888
-0.0517632
0.00421995
-0.0504274
0.00441284
-0.0491325
0.00459816
-0.0478807
0.00477662
-0.0466743
0.00494904
-0.0455148
0.0051164
-0.0444036
0.00528005
-0.0433414
0.0054418
-0.0423286
0.00560422
-0.0413645
0.00577075
-0.0404472
0.00594557
-0.0395726
-0.0387322
0.00613253
3.94653e-05
-0.0815273
0.000148611
-0.078646
0.000311299
-0.0762037
0.000514061
-0.0740639
0.000746276
-0.0721327
0.000999155
-0.0703414
0.00126528
-0.0686415
0.00153848
-0.0670004
0.00181372
-0.0653973
0.00208705
-0.0638198
0.00235547
-0.0622618
0.00261683
-0.0607211
0.00286969
-0.0591987
0.00311318
-0.057697
0.00334688
-0.0562193
0.00357073
-0.0547694
0.00378495
-0.0533512
0.00398989
-0.0519682
0.00418603
-0.0506236
0.00437392
-0.0493203
0.0045541
-0.0480609
0.00472714
-0.0468473
0.00489361
-0.0456813
0.00505415
-0.0445641
0.00520959
-0.0434969
0.00536116
-0.0424801
0.00551083
-0.0415141
0.00566179
-0.0405982
0.00581899
-0.0397298
-0.0389015
0.00598827
4.34934e-05
-0.0815708
0.000157108
-0.0787596
0.00032227
-0.0763689
0.000526009
-0.0742677
0.000758291
-0.072365
0.00101058
-0.0705937
0.00127553
-0.0689064
0.00154695
-0.0672718
0.00181982
-0.0656702
0.00209022
-0.0640902
0.0023552
-0.0625267
0.00261269
-0.0609786
0.00286131
-0.0594474
0.00310029
-0.057936
0.00332931
-0.0564483
0.00354838
-0.0549885
0.00375778
-0.0535606
0.00395795
-0.0521683
0.00414941
-0.050815
0.00433271
-0.0495037
0.0045084
-0.0482366
0.00467694
-0.0470159
0.00483874
-0.0458431
0.0049941
-0.0447195
0.00514328
-0.043646
0.00528664
-0.0426235
0.00542491
-0.0416524
0.00555984
-0.0407331
0.00569598
-0.0398659
-0.0390483
0.00584285
5.18257e-05
-0.0816226
0.000170111
-0.0788779
0.000336012
-0.0765348
0.00053922
-0.0744709
0.000770576
-0.0725964
0.00102162
-0.0708447
0.00128491
-0.0691697
0.00155416
-0.0675411
0.00182432
-0.0659403
0.00209146
-0.0643573
0.0023527
-0.062788
0.00260603
-0.061232
0.00285017
-0.0596915
0.00308444
-0.0581703
0.00330861
-0.0566725
0.0035228
-0.0552027
0.00372738
-0.0537652
0.00392287
-0.0523638
0.00410988
-0.051002
0.00428904
-0.0496828
0.00446095
-0.0484085
0.00462613
-0.0471811
0.00478498
-0.0460019
0.00493764
-0.0448721
0.00508401
-0.0437924
0.00522361
-0.0427631
0.00535541
-0.0417842
0.00547768
-0.0408554
0.00559138
-0.0399796
-0.0391688
0.00571184
7.2257e-05
-0.0816949
0.0001906
-0.0789962
0.000352794
-0.076697
0.000553267
-0.0746713
0.000782664
-0.0728258
0.00103191
-0.071094
0.00129314
-0.0694309
0.00155989
-0.0678078
0.00182701
-0.0662074
0.00209059
-0.0646209
0.00234779
-0.0630452
0.00259668
-0.0614809
0.00283608
-0.0599309
0.00306541
-0.0583996
0.00328454
-0.0568916
0.00349371
-0.0554119
0.00369338
-0.0539649
0.0038842
-0.0525546
0.00406688
-0.0511847
0.0042422
-0.0498581
0.00441093
-0.0485772
0.00457381
-0.0473439
0.00473154
-0.0461597
0.00488471
-0.0450253
0.00503369
-0.0439414
0.00517848
-0.0429079
0.00531768
-0.0419234
0.00544527
-0.040983
0.0055478
-0.0400822
-0.0392461
0.00562509
0.0829104
5.61874e-05
-0.0829666
0.0828651
4.53156e-05
0.0828234
4.16322e-05
0.0827829
4.05032e-05
0.0827425
4.04478e-05
0.0827016
4.08832e-05
0.0826601
4.15035e-05
0.0826179
4.21596e-05
0.0825752
4.27931e-05
0.0825318
4.33773e-05
0.0824879
4.38872e-05
0.0824436
4.43e-05
0.082399
4.46111e-05
0.0823541
4.48326e-05
0.0823092
4.49718e-05
0.0822641
4.50314e-05
0.0822191
4.50154e-05
0.0821742
4.49254e-05
0.0821294
4.47607e-05
0.0820849
4.45226e-05
0.0820407
4.42084e-05
0.0819969
4.38136e-05
0.0819536
4.33272e-05
0.0819108
4.27329e-05
0.0818688
4.19924e-05
0.0818278
4.10321e-05
0.0817881
3.96906e-05
0.0817505
3.7592e-05
0.081717
3.35647e-05
2.20727e-05
0.0820459
0.000142442
-0.0821321
0.0819555
0.000135717
0.0818638
0.000133286
0.081771
0.000133379
0.0816766
0.000134787
0.0815806
0.000136905
0.0814827
0.000139361
0.081383
0.000141915
0.0812813
0.000144447
0.0811778
0.000146872
0.0810726
0.000149096
0.0809659
0.000151065
0.0808577
0.000152753
0.0807484
0.000154171
0.080638
0.00015532
0.0805269
0.000156204
0.0804151
0.000156826
0.0803028
0.000157188
0.0801903
0.000157289
0.0800777
0.000157129
0.0799652
0.000156702
0.079853
0.000156001
0.0797413
0.000155002
0.0796304
0.000153668
0.0795204
0.000151933
0.0794118
0.000149669
0.0793048
0.000146639
0.0792001
0.000142364
0.0790979
0.000135757
0.000123712
0.0810092
0.000243119
-0.0811099
0.0808998
0.000245118
0.0807845
0.000248584
0.0806645
0.000253349
0.0805404
0.000258905
0.0804124
0.000264892
0.0802808
0.000271051
0.0801455
0.000277195
0.0800067
0.000283189
0.0798647
0.000288917
0.0797195
0.00029426
0.0795715
0.000299131
0.0794207
0.000303499
0.0792675
0.000307352
0.0791122
0.000310684
0.0789549
0.00031349
0.0787959
0.00031577
0.0786356
0.000317523
0.0784741
0.000318748
0.0783118
0.000319444
0.0781489
0.000319605
0.0779857
0.000319216
0.0778225
0.000318255
0.0776594
0.00031668
0.077497
0.000314419
0.0773353
0.000311348
0.0771747
0.00030726
0.0770152
0.000301802
0.0768567
0.000294317
0.000283411
0.0797759
0.000346329
-0.0798791
0.0796628
0.000358256
0.0795412
0.000370164
0.0794123
0.000382286
0.0792767
0.000394505
0.0791349
0.000406651
0.0789873
0.000418595
0.0788343
0.000430213
0.0786761
0.000441402
0.078513
0.00045206
0.0783452
0.000462049
0.078173
0.000471288
0.0779968
0.000479754
0.0778167
0.00048741
0.0776332
0.000494237
0.0774464
0.000500224
0.0772568
0.000505365
0.0770647
0.000509656
0.0768704
0.000513096
0.0766741
0.000515681
0.0764763
0.000517406
0.0762773
0.00051826
0.0760773
0.000518222
0.0758767
0.000517258
0.0756758
0.00051531
0.0754749
0.000512286
0.0752741
0.000508043
0.0750736
0.000502363
0.074873
0.000494896
0.000485047
0.0783513
0.000442059
-0.0784471
0.0782449
0.000464746
0.0781284
0.000486654
0.0780026
0.000508023
0.0778683
0.000528864
0.0777258
0.000549109
0.0775757
0.000568698
0.0774184
0.000587566
0.0772541
0.000605639
0.0770834
0.000622804
0.0769065
0.000638966
0.0767237
0.000654061
0.0765354
0.000668043
0.0763419
0.000680873
0.0761436
0.000692526
0.0759409
0.000702987
0.075734
0.000712245
0.0755234
0.000720291
0.0753093
0.000727123
0.0750923
0.000732738
0.0748726
0.000737132
0.0746505
0.000740297
0.0744265
0.000742223
0.0742009
0.000742886
0.0739739
0.000742252
0.073746
0.000740263
0.0735172
0.000736843
0.0732877
0.000731876
0.0730573
0.000725209
0.000716617
0.076756
0.000523428
-0.0768373
0.076663
0.000557665
0.076559
0.000590675
0.0764444
0.000622625
0.0763197
0.000653542
0.0761855
0.000683387
0.076042
0.000712137
0.0758898
0.000739764
0.0757293
0.000766178
0.0755608
0.000791294
0.0753847
0.000815037
0.0752014
0.000837335
0.0750113
0.00085815
0.0748148
0.000877443
0.0746121
0.000895187
0.0744037
0.00091136
0.07419
0.000925947
0.0739714
0.000938939
0.0737482
0.00095033
0.0735208
0.000960117
0.0732896
0.000968298
0.0730551
0.000974873
0.0728174
0.000979838
0.0725771
0.000983185
0.0723345
0.000984903
0.0720898
0.000984969
0.0718433
0.000983356
0.0715951
0.000980028
0.0713454
0.000974942
0.000968046
0.0750195
0.000586342
-0.0750825
0.0749444
0.000632813
0.0748573
0.000677748
0.0747587
0.000721238
0.074649
0.000763289
0.0745285
0.000803865
0.0743977
0.000842941
0.0742569
0.000880506
0.0741066
0.000916479
0.0739472
0.000950741
0.073779
0.000983234
0.0736024
0.0010139
0.0734179
0.00104271
0.0732257
0.00106961
0.0730263
0.00109458
0.0728201
0.00111758
0.0726074
0.00113861
0.0723887
0.00115764
0.0721644
0.00117468
0.0719348
0.00118971
0.0717003
0.00120274
0.0714615
0.00121377
0.0712185
0.0012228
0.0709718
0.00122985
0.0707218
0.00123492
0.0704687
0.00123802
0.0702129
0.00123916
0.0699546
0.00123836
0.0696939
0.00123563
0.00123102
0.073176
0.000628864
-0.0732185
0.0731207
0.000688103
0.0730529
0.000745563
0.0729729
0.00080128
0.0728809
0.000855232
0.0727774
0.000907356
0.0726627
0.000957644
0.0725372
0.00100604
0.0724012
0.00105246
0.0722552
0.00109679
0.0720994
0.00113898
0.0719343
0.00117898
0.0717603
0.00121674
0.0715777
0.00125222
0.0713869
0.00128538
0.0711883
0.00131618
0.0709823
0.00134461
0.0707693
0.00137065
0.0705497
0.00139428
0.0703239
0.00141551
0.0700923
0.00143434
0.0698553
0.00145077
0.0696133
0.00146481
0.0693666
0.0014765
0.0691157
0.00148584
0.0688609
0.00149287
0.0686024
0.00149763
0.0683406
0.00150017
0.0680757
0.00150056
0.00149885
0.0712596
0.000650656
-0.0712813
0.0712246
0.000723035
0.0711768
0.000793433
0.0711162
0.000861846
0.0710432
0.000928223
0.0709581
0.000992493
0.0708611
0.00105459
0.0707527
0.00111444
0.0706332
0.00117197
0.0705029
0.00122707
0.0703622
0.00127967
0.0702115
0.00132975
0.070051
0.00137723
0.0698811
0.00142206
0.0697023
0.00146419
0.0695149
0.00150358
0.0693193
0.00154021
0.0691159
0.00157405
0.0689051
0.00160509
0.0686873
0.00163332
0.0684629
0.00165876
0.0682323
0.0016814
0.0679958
0.00170128
0.0677539
0.0017184
0.0675069
0.00173282
0.0672552
0.00174457
0.0669991
0.00175373
0.0667389
0.00176035
0.066475
0.00176454
0.00176638
0.0693022
0.000652514
-0.0693041
0.069287
0.000738255
0.0692586
0.000821841
0.0692172
0.000903239
0.069163
0.000982375
0.0690964
0.00105914
0.0690175
0.00113345
0.0689268
0.00120521
0.0688244
0.00127429
0.0687109
0.00134064
0.0685863
0.00140421
0.0684512
0.00146492
0.0683057
0.00152268
0.0681503
0.00157744
0.0679854
0.00162913
0.0678112
0.00167772
0.0676283
0.00172316
0.0674369
0.00176544
0.0672374
0.00180454
0.0670303
0.00184044
0.0668159
0.00187315
0.0665947
0.00190268
0.0663669
0.00192905
0.066133
0.0019523
0.0658934
0.00197246
0.0656483
0.0019896
0.0653982
0.0020038
0.0651434
0.00201514
0.0648842
0.00202374
0.0020297
0.0673326
0.000635997
-0.0673161
0.0673357
0.000735196
0.0673254
0.000832088
0.0673021
0.000926611
0.0672658
0.00101867
0.0672168
0.00110814
0.0671553
0.00119489
0.0670818
0.00127879
0.0669963
0.00135976
0.0668992
0.00143773
0.0667908
0.00151261
0.0666714
0.0015843
0.0665414
0.00165273
0.066401
0.00171781
0.0662506
0.00177949
0.0660906
0.00183772
0.0659214
0.00189244
0.0657432
0.00194364
0.0655564
0.00199128
0.0653615
0.00203535
0.0651588
0.00207585
0.0649487
0.00211279
0.0647316
0.00214619
0.0645078
0.00217609
0.0642777
0.00220255
0.0640417
0.00222561
0.0638001
0.00224539
0.0635533
0.00226197
0.0633015
0.00227548
0.00228605
0.0653754
0.00060314
-0.0653425
0.0653948
0.000715794
0.0654009
0.000826001
0.0653938
0.000933675
0.0653738
0.00103869
0.065341
0.00114093
0.0652957
0.00124024
0.065238
0.00133645
0.0651683
0.00142948
0.0650868
0.00151924
0.0649938
0.00160561
0.0648896
0.0016885
0.0647745
0.00176782
0.0646488
0.00184349
0.0645129
0.00191544
0.064367
0.00198359
0.0642115
0.00204791
0.0640468
0.00210835
0.0638732
0.00216488
0.0636911
0.00221748
0.0635008
0.00226614
0.0633027
0.00231088
0.0630972
0.00235171
0.0628846
0.00238867
0.0626653
0.00242181
0.0624397
0.00245122
0.0622081
0.00247697
0.0619709
0.00249919
0.0617284
0.00251801
0.00253358
0.0634509
0.000556235
-0.063404
0.0634844
0.000682267
0.0635047
0.000805723
0.0635119
0.00092649
0.0635061
0.00104443
0.0634877
0.00115941
0.0634566
0.00127129
0.0634132
0.00137985
0.0633577
0.00148498
0.0632904
0.00158656
0.0632115
0.0016845
0.0631213
0.00177868
0.0630202
0.00186901
0.0629083
0.00195539
0.0627859
0.00203775
0.0626535
0.002116
0.0625114
0.00219009
0.0623597
0.00225998
0.062199
0.00232561
0.0620295
0.00238697
0.0618516
0.00244404
0.0616657
0.00249683
0.061472
0.00254535
0.061271
0.00258965
0.0610631
0.00262977
0.0608485
0.00266579
0.0606277
0.00269781
0.0604009
0.00272595
0.0601685
0.00275037
0.00277122
0.0615753
0.000497665
-0.0615167
0.0616206
0.000636948
0.0616528
0.000773534
0.061672
0.000907286
0.0616784
0.00103805
0.0616721
0.00116568
0.0616533
0.00129003
0.0616223
0.00141088
0.0615793
0.00152803
0.0615244
0.0016414
0.061458
0.00175088
0.0613804
0.00185635
0.0612917
0.0019577
0.0611922
0.00205482
0.0610824
0.00214763
0.0609623
0.00223605
0.0608324
0.00231999
0.060693
0.0023994
0.0605444
0.00247424
0.0603869
0.00254447
0.0602208
0.00261008
0.0600466
0.00267107
0.0598645
0.00272744
0.0596749
0.00277923
0.0594782
0.00282649
0.0592747
0.0028693
0.0590647
0.00290776
0.0588487
0.002942
0.0586268
0.00297218
0.00299849
0.0597611
0.000429793
-0.0596932
0.0598159
0.000582169
0.0598577
0.000731731
0.0598866
0.00087833
0.0599029
0.00102177
0.0599067
0.00116194
0.0598981
0.00129861
0.0598774
0.00143154
0.0598449
0.00156058
0.0598007
0.00168563
0.059745
0.00180656