/*--------------------------------*- C++ -*----------------------------------*\
| =========                 |                                                 |
| \\      /  F ield         | OpenFOAM: The Open Source CFD Toolbox           |
|  \\    /   O peration     | Version:  v1912                                 |
|   \\  /    A nd           | Website:  www.openfoam.com                      |
|    \\/     M anipulation  |                                                 |
\*---------------------------------------------------------------------------*/
FoamFile
{
    version     2.0;
    format      ascii;
    class       surfaceScalarField;
    location    "18";
    object      phi;
}
// * * * * * * * * * * * * * * * * * * * * * * * * * * * * * * * * * * * * * //

dimensions      [0 3 -1 0 0 0 0];
oriented        oriented;


internalField   nonuniform List<scalar> 
38030
(
9.13225e-05
-0.323401
0.32331
0.000443947
-0.310279
0.309927
0.000966981
-0.300002
0.299479
0.00158928
-0.29172
0.291098
0.00227316
-0.28443
0.283746
0.0029818
-0.277611
0.276902
0.00369123
-0.270992
0.270283
0.00438671
-0.264446
0.263751
0.00505988
-0.257932
0.257259
0.005707
-0.251457
0.25081
0.00632745
-0.24505
0.244429
0.0069226
-0.238746
0.238151
0.00749491
-0.232578
0.232006
0.00804732
-0.226574
0.226021
0.00858286
-0.220753
0.220218
0.00910436
-0.215128
0.214607
0.00961434
-0.209706
0.209196
0.0101149
-0.204488
0.203987
0.0106079
-0.199472
0.198979
0.0110947
-0.194652
0.194166
0.0115766
-0.190024
0.189542
0.0120546
-0.185578
0.1851
0.0125299
-0.181308
0.180832
0.0130037
-0.177202
0.176728
0.0134771
-0.17325
0.172776
0.0139517
-0.169437
0.168963
0.0144288
-0.165748
0.165271
0.0149092
-0.162161
0.161681
0.0153933
-0.158653
0.158168
-0.155193
0.154706
0.0158804
0.000108994
-0.32351
0.000465958
-0.310636
0.000986756
-0.300523
0.00160895
-0.292342
0.00228834
-0.28511
0.00299131
-0.278314
0.00369422
-0.271695
0.00438237
-0.265135
0.00504766
-0.258598
0.00568657
-0.252096
0.0062987
-0.245662
0.00688556
-0.239333
0.00744974
-0.233142
0.00799425
-0.227118
0.00852216
-0.221281
0.00903631
-0.215643
0.00953919
-0.210209
0.0100329
-0.204982
0.0105192
-0.199958
0.0109995
-0.195133
0.011475
-0.190499
0.0119467
-0.18605
0.0124156
-0.181777
0.0128829
-0.177669
0.0133499
-0.173717
0.0138181
-0.169905
0.0142887
-0.166218
0.014763
-0.162635
0.0152412
-0.159131
-0.155675
0.0157229
0.000128893
-0.323639
0.000485924
-0.310993
0.00100436
-0.301041
0.00162466
-0.292963
0.00230019
-0.285785
0.00299752
-0.279011
0.00369364
-0.272391
0.00437414
-0.265815
0.00503118
-0.259255
0.00566149
-0.252726
0.0062649
-0.246265
0.00684309
-0.239911
0.00739875
-0.233698
0.00793499
-0.227655
0.0084549
-0.221801
0.00896134
-0.216149
0.00945678
-0.210705
0.00994332
-0.205468
0.0104226
-0.200437
0.0108961
-0.195606
0.0113647
-0.190968
0.0118296
-0.186515
0.0122918
-0.182239
0.0127522
-0.17813
0.0132122
-0.174177
0.0136733
-0.170366
0.014137
-0.166682
0.0146043
-0.163103
0.015076
-0.159602
-0.15615
0.0155515
0.000136264
-0.323775
0.000497816
-0.311355
0.00101731
-0.301561
0.00163622
-0.293582
0.00230815
-0.286457
0.00299993
-0.279703
0.00368909
-0.27308
0.00436166
-0.266488
0.00501012
-0.259903
0.0056315
-0.253348
0.00622585
-0.24686
0.00679502
-0.24048
0.00734184
-0.234245
0.00786948
-0.228182
0.00838106
-0.222312
0.00887946
-0.216647
0.00936714
-0.211192
0.00984615
-0.205947
0.0103181
-0.200909
0.0107844
-0.196072
0.0112459
-0.19143
0.0117037
-0.186973
0.0121587
-0.182694
0.0126119
-0.178583
0.0130645
-0.174629
0.0135182
-0.17082
0.0139743
-0.167138
0.0144343
-0.163563
0.014899
-0.160067
-0.156619
0.0153679
0.000142184
-0.323918
0.000507342
-0.31172
0.00102753
-0.302081
0.00164469
-0.294199
0.00231275
-0.287125
0.00299879
-0.280389
0.00368074
-0.273762
0.00434507
-0.267152
0.00498462
-0.260543
0.00559673
-0.25396
0.00618167
-0.247445
0.00674149
-0.24104
0.00727913
-0.234782
0.00779784
-0.228701
0.00830079
-0.222815
0.00879084
-0.217137
0.00927046
-0.211672
0.00974165
-0.206419
0.010206
-0.201374
0.0106648
-0.196531
0.0111189
-0.191884
0.0115693
-0.187423
0.0120169
-0.183141
0.0124625
-0.179028
0.0129074
-0.175074
0.0133533
-0.171266
0.0138016
-0.167587
0.014254
-0.164015
0.0147113
-0.160524
-0.157081
0.0151735
0.000145613
-0.324063
0.000513844
-0.312088
0.00103476
-0.302602
0.0016501
-0.294814
0.00231408
-0.287789
0.00299412
-0.281069
0.00366858
-0.274437
0.00432435
-0.267808
0.00495466
-0.261173
0.00555715
-0.254562
0.00613237
-0.24802
0.00668251
-0.24159
0.00721067
-0.23531
0.00772014
-0.22921
0.00821415
-0.223309
0.00869557
-0.217619
0.00916684
-0.212143
0.00962994
-0.206882
0.0100864
-0.20183
0.0105375
-0.196982
0.010984
-0.19233
0.0114268
-0.187866
0.0118666
-0.183581
0.0123044
-0.179466
0.0127415
-0.175511
0.0131793
-0.171704
0.0136197
-0.168027
0.0140642
-0.16446
0.0145141
-0.160974
-0.157537
0.0149695
0.00014831
-0.324212
0.000518786
-0.312459
0.00103986
-0.303123
0.00165294
-0.295427
0.00231244
-0.288449
0.00298612
-0.281743
0.00365274
-0.275103
0.00429961
-0.268455
0.00492034
-0.261794
0.00551289
-0.255155
0.00607804
-0.248585
0.0066182
-0.24213
0.00713655
-0.235829
0.0076365
-0.22971
0.00812129
-0.223794
0.0085938
-0.218091
0.00905645
-0.212606
0.0095112
-0.207336
0.00995955
-0.202278
0.0104026
-0.197425
0.0108413
-0.192769
0.0112763
-0.188301
0.0117083
-0.184013
0.0121382
-0.179896
0.0125672
-0.17594
0.0129969
-0.172133
0.0134292
-0.168459
0.0138659
-0.164897
0.0143084
-0.161417
-0.157986
0.0147573
0.000150268
-0.324362
0.00052228
-0.312831
0.00104299
-0.303644
0.00165339
-0.296038
0.00230802
-0.289103
0.00297494
-0.28241
0.00363334
-0.275762
0.00427095
-0.269092
0.00488174
-0.262405
0.00546401
-0.255737
0.00601878
-0.24914
0.00654863
-0.24266
0.00705688
-0.236337
0.00754701
-0.2302
0.00802229
-0.22427
0.00848561
-0.218555
0.0089394
-0.21306
0.00938556
-0.207783
0.00982556
-0.202718
0.0102605
-0.19786
0.0106911
-0.1932
0.0111181
-0.188728
0.0115422
-0.184437
0.0119641
-0.180318
0.012385
-0.176361
0.0128065
-0.172555
0.0132307
-0.168883
0.0136596
-0.165325
0.0140949
-0.161852
-0.158428
0.0145375
0.000151802
-0.324514
0.000524722
-0.313204
0.0010445
-0.304164
0.00165173
-0.296645
0.00230102
-0.289753
0.00296076
-0.283069
0.00361054
-0.276412
0.0042385
-0.26972
0.004839
-0.263005
0.00541063
-0.256309
0.00595468
-0.249684
0.00647391
-0.243179
0.00697176
-0.236835
0.00745177
-0.230681
0.00791727
-0.224735
0.00837114
-0.219009
0.0088158
-0.213504
0.00925314
-0.20822
0.00968458
-0.20315
0.0101112
-0.198287
0.0105336
-0.193622
0.0109526
-0.189147
0.0113685
-0.184853
0.0117823
-0.180732
0.0121951
-0.176774
0.0126085
-0.172968
0.0130246
-0.169299
0.0134457
-0.165747
0.0138739
-0.16228
-0.158865
0.0143105
0.000152947
-0.324667
0.000526236
-0.313577
0.00104455
-0.304682
0.00164812
-0.297248
0.00229161
-0.290396
0.00294373
-0.283721
0.00358447
-0.277052
0.00420239
-0.270338
0.00479222
-0.263595
0.00535288
-0.25687
0.00588587
-0.250217
0.00639416
-0.243687
0.00688129
-0.237322
0.0073509
-0.23115
0.00780632
-0.22519
0.00825048
-0.219453
0.00868576
-0.21394
0.00911404
-0.208648
0.00953671
-0.203573
0.00995476
-0.198705
0.0103689
-0.194036
0.0107796
-0.189558
0.0111875
-0.185261
0.0115931
-0.181138
0.0119977
-0.177179
0.0124029
-0.173373
0.012811
-0.169707
0.0132244
-0.16616
0.0136457
-0.162702
-0.159296
0.0140765
0.000153777
-0.32482
0.000526955
-0.31395
0.00104332
-0.305198
0.00164273
-0.297848
0.00227996
-0.291033
0.00292401
-0.284365
0.0035553
-0.277684
0.00416278
-0.270946
0.00474156
-0.264174
0.00529088
-0.257419
0.00581248
-0.250739
0.00630949
-0.244184
0.0067856
-0.237798
0.00724449
-0.231609
0.00768955
-0.225636
0.00812371
-0.219887
0.00854935
-0.214365
0.00896831
-0.209067
0.00938198
-0.203986
0.00979131
-0.199114
0.0101969
-0.194442
0.0105994
-0.18996
0.010999
-0.185661
0.0113965
-0.181535
0.0117929
-0.177575
0.01219
-0.173771
0.01259
-0.170107
0.0129958
-0.166566
0.0134102
-0.163116
-0.159721
0.0138353
0.000154318
-0.324975
0.000526952
-0.314323
0.0010409
-0.305712
0.00163571
-0.298443
0.00226622
-0.291664
0.00290177
-0.285001
0.00352317
-0.278305
0.00411981
-0.271542
0.00468717
-0.264741
0.00522478
-0.257956
0.00573464
-0.251248
0.00622005
-0.24467
0.00668479
-0.238263
0.00713265
-0.232057
0.00756704
-0.22607
0.0079909
-0.220311
0.0084066
-0.214781
0.00881599
-0.209476
0.00922041
-0.204391
0.00962081
-0.199515
0.0100178
-0.194839
0.0104117
-0.190354
0.010803
-0.186052
0.0111923
-0.181924
0.0115805
-0.177963
0.0119695
-0.174159
0.0123615
-0.1705
0.0127597
-0.166964
0.0131673
-0.163524
-0.16014
0.0135869
0.000154584
-0.325129
0.000526305
-0.314694
0.00103743
-0.306223
0.0016272
-0.299032
0.00225054
-0.292287
0.00287715
-0.285628
0.00348825
-0.278916
0.00407366
-0.272128
0.00462921
-0.265297
0.00515475
-0.258482
0.00565251
-0.251746
0.00612596
-0.245143
0.00657901
-0.238716
0.0070155
-0.232493
0.00743888
-0.226493
0.00785211
-0.220724
0.00825756
-0.215186
0.00865707
-0.209876
0.00905196
-0.204786
0.00944316
-0.199906
0.00983124
-0.195227
0.0102166
-0.190739
0.0105995
-0.186435
0.0109804
-0.182305
0.0113605
-0.178343
0.0117412
-0.17454
0.0121253
-0.170884
0.012516
-0.167355
0.0129168
-0.163925
-0.160555
0.0133311
0.000154592
-0.325284
0.000525064
-0.315065
0.00103301
-0.306731
0.00161733
-0.299617
0.00223309
-0.292903
0.00285033
-0.286245
0.00345073
-0.279517
0.0040245
-0.272701
0.00456787
-0.26584
0.00508097
-0.258995
0.00556626
-0.252231
0.00602739
-0.245604
0.00646839
-0.239157
0.00689314
-0.232918
0.00730516
-0.226905
0.00770739
-0.221126
0.00810224
-0.215581
0.00849151
-0.210265
0.00887655
-0.205171
0.00925826
-0.200287
0.00963718
-0.195606
0.0100137
-0.191116
0.010388
-0.186809
0.0107605
-0.182678
0.0111323
-0.178715
0.0115049
-0.174913
0.011881
-0.17126
0.0122642
-0.167738
0.0126585
-0.164319
-0.160964
0.0130677
0.000154347
-0.325438
0.000523299
-0.315434
0.00102774
-0.307236
0.00160624
-0.300195
0.00221402
-0.293511
0.0028215
-0.286852
0.00341079
-0.280106
0.00397254
-0.273263
0.00450334
-0.266371
0.00500363
-0.259495
0.00547609
-0.252704
0.00592453
-0.246053
0.00635308
-0.239585
0.00676572
-0.233331
0.00716597
-0.227306
0.00755681
-0.221517
0.00794064
-0.215965
0.00831928
-0.210644
0.00869407
-0.205545
0.0090659
-0.200659
0.00943532
-0.195975
0.00980265
-0.191483
0.0101681
-0.187175
0.0105321
-0.183042
0.0108955
-0.179078
0.0112598
-0.175277
0.011628
-0.171628
0.0120037
-0.168114
0.0123915
-0.164707
-0.161368
0.012796
0.000153863
-0.325592
0.000521081
-0.315801
0.00102175
-0.307736
0.0015941
-0.300768
0.00219352
-0.29411
0.00279084
-0.28745
0.00336865
-0.280684
0.00391801
-0.273813
0.00443587
-0.266889
0.00492296
-0.259982
0.0053822
-0.253163
0.00581756
-0.246488
0.00623328
-0.240001
0.00663338
-0.233731
0.00702144
-0.227694
0.00740044
-0.221896
0.00777278
-0.216337
0.00814031
-0.211011
0.00850437
-0.205909
0.00886585
-0.201021
0.00922533
-0.196335
0.00958311
-0.191841
0.00993939
-0.187531
0.0102945
-0.183397
0.0106492
-0.179433
0.0110052
-0.175633
0.0113652
-0.171988
0.0117334
-0.168482
0.0121149
-0.165088
-0.161768
0.0125149
0.00015315
-0.325745
0.000518494
-0.316166
0.00101518
-0.308233
0.00158107
-0.301333
0.00217178
-0.294701
0.0027586
-0.288036
0.00332455
-0.28125
0.00386115
-0.274349
0.0043657
-0.267393
0.00483923
-0.260456
0.00528488
-0.253609
0.00570676
-0.24691
0.00610922
-0.240404
0.00649634
-0.234118
0.00687173
-0.228069
0.00723837
-0.222263
0.0075987
-0.216698
0.00795456
-0.211367
0.00830731
-0.206262
0.00865787
-0.201371
0.00900684
-0.196684
0.00935452
-0.192189
0.00970111
-0.187877
0.0100469
-0.183743
0.0103926
-0.179779
0.0107399
-0.17598
0.0110915
-0.172339
0.0114519
-0.168842
0.0118268
-0.165463
-0.162164
0.0122223
0.000152233
-0.325897
0.000515648
-0.31653
0.0010082
-0.308726
0.00156736
-0.301893
0.00214905
-0.295283
0.00272501
-0.288612
0.00327877
-0.281803
0.00380226
-0.274873
0.00429314
-0.267884
0.00475274
-0.260916
0.0051844
-0.25404
0.0055924
-0.247318
0.00598117
-0.240792
0.00635484
-0.234492
0.00671704
-0.228431
0.00707078
-0.222616
0.00741849
-0.217045
0.00776203
-0.211711
0.00810278
-0.206603
0.00844171
-0.20171
0.00877943
-0.197021
0.00911629
-0.192525
0.0094525
-0.188214
0.00978834
-0.184079
0.0101245
-0.180115
0.0104624
-0.176318
0.0108051
-0.172682
0.0111572
-0.169194
0.0115251
-0.165831
-0.162555
0.0119158
0.000151159
-0.326049
0.000512692
-0.316891
0.00100102
-0.309214
0.00155321
-0.302445
0.00212558
-0.295855
0.00269037
-0.289177
0.00323161
-0.282345
0.00374165
-0.275383
0.00421852
-0.268361
0.00466383
-0.261361
0.00508113
-0.254458
0.00547485
-0.247712
0.00584948
-0.241167
0.00620921
-0.234851
0.00655767
-0.22878
0.0068979
-0.222957
0.00723231
-0.21738
0.00756278
-0.212041
0.00789072
-0.206931
0.00821714
-0.202037
0.00854271
-0.197347
0.00886782
-0.192851
0.00919272
-0.188539
0.00951769
-0.184404
0.00984335
-0.180441
0.0101712
-0.176646
0.0105041
-0.173015
0.0108471
-0.169537
0.0112073
-0.166191
-0.16294
0.0115928
0.000149991
-0.326199
0.000509806
-0.317251
0.000993874
-0.309698
0.0015389
-0.30299
0.00210167
-0.296418
0.002655
-0.289731
0.00318341
-0.282873
0.00367969
-0.275879
0.00414223
-0.268823
0.00457291
-0.261792
0.00497549
-0.25486
0.00535452
-0.248091
0.00571457
-0.241527
0.00605985
-0.235197
0.00639401
-0.229114
0.00672007
-0.223283
0.00704044
-0.2177
0.007357
-0.212358
0.00767119
-0.207245
0.00798407
-0.20235
0.00829636
-0.197659
0.00860854
-0.193163
0.00892091
-0.188851
0.00923379
-0.184716
0.00954779
-0.180755
0.00986436
-0.176963
0.0101864
-0.173337
0.0105192
-0.16987
0.0108705
-0.166543
-0.163319
0.0112497
0.000148847
-0.326347
0.000507237
-0.31761
0.00098706
-0.310178
0.00152473
-0.303527
0.00207765
-0.296971
0.00261926
-0.290272
0.00313456
-0.283388
0.00361678
-0.276361
0.00406469
-0.269271
0.00448042
-0.262207
0.00486794
-0.255248
0.00523191
-0.248455
0.00557696
-0.241872
0.00590731
-0.235527
0.00622659
-0.229433
0.0065378
-0.223594
0.00684333
-0.218006
0.00714506
-0.21266
0.00744444
-0.207544
0.00774256
-0.202648
0.00804023
-0.197957
0.00833799
-0.193461
0.00863626
-0.189149
0.00893542
-0.185016
0.00923611
-0.181055
0.00953975
-0.177266
0.00984929
-0.173647
0.0101701
-0.170191
0.0105108
-0.166883
-0.163691
0.0108825
0.000147917
-0.326495
0.000505305
-0.317967
0.000980956
-0.310653
0.0015111
-0.304058
0.00205394
-0.297513
0.00258355
-0.290802
0.00308547
-0.28389
0.00355336
-0.276829
0.00398636
-0.269704
0.00438687
-0.262608
0.00475904
-0.25562
0.00510762
-0.248803
0.00543728
-0.242202
0.00575224
-0.235842
0.00605609
-0.229737
0.00635177
-0.22389
0.00664164
-0.218296
0.00692755
-0.212946
0.00721095
-0.207828
0.00749294
-0.20293
0.0077744
-0.198238
0.00805596
-0.193742
0.00833815
-0.189431
0.00862145
-0.185299
0.00890658
-0.181341
0.009195
-0.177555
0.00948964
-0.173941
0.00979608
-0.170497
0.0101237
-0.167211
-0.164053
0.0104854
0.000147547
-0.326643
0.000504501
-0.318324
0.000976048
-0.311125
0.00149849
-0.30458
0.00203095
-0.298046
0.0025483
-0.291319
0.00303658
-0.284379
0.0034899
-0.277282
0.00390775
-0.270122
0.0042928
-0.262993
0.00464938
-0.255977
0.0049823
-0.249136
0.00529626
-0.242516
0.00559544
-0.236141
0.00588336
-0.230025
0.0061629
-0.224169
0.00643632
-0.218569
0.00670542
-0.213215
0.00697159
-0.208094
0.00723594
-0.203194
0.00749936
-0.198502
0.00776258
-0.194005
0.00802623
-0.189695
0.00829094
-0.185564
0.00855754
-0.181607
0.00882757
-0.177825
0.00910399
-0.174218
0.00939248
-0.170786
0.00970304
-0.167521
-0.1644
0.0100506
0.000148343
-0.326791
0.000505525
-0.318681
0.000972916
-0.311592
0.00148738
-0.305095
0.00200917
-0.298568
0.00251396
-0.291824
0.00298834
-0.284853
0.00342687
-0.277721
0.00382938
-0.270525
0.00419881
-0.263362
0.00453962
-0.256317
0.00485671
-0.249453
0.00515476
-0.242814
0.00543788
-0.236424
0.0057095
-0.230296
0.00597238
-0.224432
0.00622867
-0.218825
0.00648003
-0.213466
0.00672776
-0.208342
0.0069729
-0.203439
0.00721631
-0.198745
0.00745874
-0.194248
0.00770088
-0.189937
0.0079435
-0.185806
0.0081876
-0.181851
0.00843487
-0.178072
0.00868843
-0.174471
0.00895401
-0.171051
0.00924203
-0.167809
-0.164728
0.00956939
0.000151252
-0.326942
0.000509203
-0.319039
0.000972107
-0.312055
0.00147826
-0.305601
0.00198904
-0.299079
0.00248097
-0.292316
0.00294122
-0.285313
0.00336476
-0.278144
0.00375178
-0.270912
0.00410549
-0.263716
0.00443047
-0.256642
0.00473167
-0.249755
0.00501372
-0.243096
0.00528066
-0.236691
0.00553579
-0.230552
0.00578168
-0.224678
0.00602034
-0.219064
0.00625323
-0.213699
0.00648149
-0.20857
0.00670598
-0.203664
0.00692744
-0.198967
0.00714653
-0.194467
0.00736388
-0.190154
0.00758029
-0.186023
0.00779686
-0.182068
0.0080155
-0.178291
0.00823954
-0.174695
0.00847491
-0.171287
0.0087323
-0.168067
-0.165028
0.00903251
0.000157348
-0.3271
0.000516229
-0.319398
0.000974087
-0.312513
0.00147163
-0.306098
0.00197106
-0.299578
0.0024498
-0.292795
0.00289565
-0.285759
0.00330403
-0.278553
0.00367549
-0.271283
0.00401345
-0.264054
0.00432265
-0.256952
0.00460803
-0.25004
0.00487419
-0.243362
0.00512504
-0.236942
0.00536369
-0.23079
0.00559255
-0.224907
0.00581336
-0.219285
0.00602736
-0.213913
0.00623542
-0.208778
0.00643814
-0.203866
0.00663599
-0.199164
0.0068294
-0.19466
0.00701881
-0.190344
0.00720484
-0.186209
0.00738849
-0.182251
0.00757165
-0.178474
0.00775789
-0.174882
0.00795342
-0.171482
0.00816997
-0.168283
-0.16529
0.00843216
0.000167754
-0.327268
0.000527476
-0.319758
0.000979787
-0.312966
0.00146832
-0.306587
0.00195587
-0.300065
0.00242093
-0.29326
0.00285203
-0.28619
0.00324507
-0.278946
0.00360091
-0.271639
0.00392321
-0.264376
0.00421679
-0.257245
0.00448662
-0.25031
0.0047372
-0.243613
0.0049723
-0.237177
0.00519484
-0.231013
0.00540698
-0.225119
0.00561017
-0.219488
0.00580531
-0.214108
0.00599289
-0.208966
0.00617312
-0.204047
0.00634602
-0.199337
0.00651161
-0.194826
0.00666993
-0.190502
0.00682127
-0.18636
0.00696635
-0.182397
0.00710693
-0.178614
0.00724663
-0.175021
0.00739213
-0.171628
0.0075571
-0.168448
-0.165495
0.00776252
0.000185695
-0.327453
0.000546374
-0.320118
0.000991616
-0.313411
0.00146956
-0.307065
0.00194413
-0.30054
0.00239471
-0.29371
0.00281057
-0.286606
0.00318805
-0.279323
0.00352829
-0.271979
0.0038351
-0.264683
0.0041134
-0.257523
0.00436812
-0.250565
0.00460368
-0.243848
0.00482369
-0.237397
0.00503088
-0.23122
0.00522712
-0.225315
0.00541354
-0.219674
0.00559062
-0.214285
0.00575832
-0.209133
0.00591622
-0.204205
0.00606356
-0.199485
0.00619944
-0.194962
0.00632294
-0.190626
0.00643335
-0.18647
0.00653064
-0.182494
0.00661628
-0.1787
0.00669426
-0.175099
0.00677092
-0.171704
0.0068577
-0.168535
-0.165606
0.00696801
0.000223145
-0.327676
0.000581602
-0.320477
0.00101232
-0.313841
0.00147592
-0.307528
0.00193588
-0.301
0.00237105
-0.294145
0.00277116
-0.287006
0.00313293
-0.279685
0.00345768
-0.272304
0.00374934
-0.264975
0.00401284
-0.257787
0.00425309
-0.250805
0.00447443
-0.24407
0.00468033
-0.237603
0.00487333
-0.231413
0.00505507
-0.225497
0.00522638
-0.219846
0.00538732
-0.214446
0.0055373
-0.209283
0.00567511
-0.204342
0.00579887
-0.199608
0.00590605
-0.195069
0.00599345
-0.190713
0.00605733
-0.186534
0.00609397
-0.18253
0.00610102
-0.178707
0.00607908
-0.175077
0.00603153
-0.171657
0.0059641
-0.168468
-0.165549
0.00590728
0.000304418
-0.327981
0.000640109
-0.320813
0.00103848
-0.31424
0.0014865
-0.307976
0.00193026
-0.301444
0.00234927
-0.294564
0.00273344
-0.28739
0.00307961
-0.280031
0.00338919
-0.272614
0.00366617
-0.265252
0.00391549
-0.258036
0.00414207
-0.251031
0.00435017
-0.244278
0.00454317
-0.237796
0.00472349
-0.231593
0.00489261
-0.225666
0.00505116
-0.220004
0.00519899
-0.214594
0.00533516
-0.20942
0.00545797
-0.204465
0.00556475
-0.199715
0.00565158
-0.195156
0.00571283
-0.190774
0.00574043
-0.186562
0.00572318
-0.182513
0.00564591
-0.17863
0.00548892
-0.17492
0.00523001
-0.171398
0.00486023
-0.168098
-0.165261
0.00457189
0.331447
0.000208856
-0.331655
0.331285
0.000161156
0.331146
0.000139675
0.331016
0.000129776
0.330892
0.0001242
0.330771
0.000121041
0.330651
0.000119673
0.330532
0.00011949
0.330412
0.000119933
0.330291
0.000120661
0.33017
0.00012148
0.330047
0.000122289
0.329924
0.000123036
0.329801
0.000123688
0.329676
0.000124234
0.329552
0.000124666
0.329427
0.000124986
0.329301
0.000125196
0.329176
0.000125285
0.329051
0.000125251
0.328926
0.000125065
0.328801
0.000124697
0.328677
0.000124024
0.328554
0.000122993
0.328433
0.000121056
0.328315
0.000118264
0.328203
0.000111516
0.328101
0.000102751
0.328028
7.27924e-05
4.69264e-05
0.328422
0.000414742
-0.328627
0.328197
0.000385835
0.327966
0.000370321
0.327732
0.000363958
0.327495
0.000361571
0.327254
0.000361196
0.327012
0.000362379
0.326766
0.000364768
0.326518
0.000367924
0.326268
0.000371469
0.326014
0.000375168
0.325757
0.00037887
0.325498
0.000382469
0.325236
0.000385902
0.324971
0.000389118
0.324703
0.000392086
0.324434
0.000394788
0.324162
0.000397209
0.323888
0.000399325
0.323612
0.000401115
0.323334
0.00040252
0.323056
0.00040348
0.322776
0.000403799
0.322495
0.000403334
0.322215
0.000401416
0.321935
0.000397927
0.321657
0.000390286
0.32138
0.000379762
0.321096
0.000356361
0.000330428
0.323509
0.000599975
-0.323694
0.323294
0.000600923
0.323062
0.000602129
0.322819
0.000606855
0.322566
0.000614148
0.322305
0.000622735
0.322035
0.000632106
0.321758
0.000642061
0.321473
0.000652382
0.321182
0.00066282
0.320884
0.000673166
0.320579
0.000683276
0.320269
0.00069305
0.319952
0.000702414
0.31963
0.000711322
0.319303
0.000719737
0.31897
0.000727634
0.318632
0.000735003
0.318289
0.000741817
0.317942
0.000748052
0.317591
0.000753655
0.317236
0.000758548
0.316877
0.000762555
0.316515
0.000765517
0.31615
0.000766919
0.315781
0.000766575
0.315408
0.00076311
0.315031
0.000757072
0.314642
0.000745442
0.000732521
0.317322
0.000761677
-0.317484
0.317145
0.000777944
0.316952
0.000795805
0.316744
0.000814896
0.316523
0.000835152
0.316289
0.000856082
0.316044
0.000877286
0.315788
0.000898549
0.31552
0.000919689
0.315243
0.000940517
0.314955
0.000960863
0.314658
0.0009806
0.314351
0.000999639
0.314036
0.00101792
0.313711
0.00103541
0.313379
0.00105208
0.313039
0.00106792
0.312691
0.00108292
0.312336
0.00109708
0.311973
0.0011104
0.311604
0.00112284
0.311228
0.00113437
0.310846
0.00114485
0.310457
0.00115419
0.310062
0.00116204
0.309661
0.0011683
0.309251
0.0011722
0.308835
0.00117386
0.308409
0.00117141
0.00116486
0.30999
0.000861341
-0.310089
0.309871
0.000896703
0.309735
0.000932057
0.309582
0.00096767
0.309414
0.00100346
0.30923
0.00103919
0.309033
0.00107462
0.308822
0.00110956
0.308598
0.00114387
0.308361
0.00117739
0.308112
0.00120999
0.307851
0.00124159
0.307578
0.00127211
0.307295
0.00130149
0.307001
0.00132972
0.306696
0.00135678
0.306381
0.00138268
0.306057
0.00140743
0.305723
0.00143105
0.305379
0.00145357
0.305027
0.001475
0.304666
0.00149534
0.304297
0.00151454
0.303918
0.00153258
0.303531
0.00154929
0.303135
0.0015646
0.302729
0.00157812
0.302313
0.00158985
0.301885
0.00159896
0.00160638
0.301932
0.000903808
-0.301975
0.301871
0.000958412
0.301791
0.00101196
0.301694
0.00106488
0.30158
0.00111718
0.30145
0.00116876
0.301305
0.00121947
0.301146
0.0012692
0.300972
0.00131782
0.300784
0.00136522
0.300583
0.00141131
0.300368
0.001456
0.300141
0.00149924
0.299902
0.00154099
0.29965
0.00158124
0.299387
0.00161999
0.299112
0.00165727
0.298827
0.00169309
0.29853
0.00172753
0.298223
0.00176063
0.297906
0.00179245
0.297578
0.00182305
0.29724
0.00185248
0.296892
0.00188077
0.296533
0.00190792
0.296164
0.00193395
0.295783
0.00195873
0.295391
0.00198244
0.294985
0.00200485
0.00202678
0.293518
0.000898888
-0.293513
0.293504
0.00097203
0.293473
0.00104354
0.293424
0.00111368
0.293358
0.00118256
0.293277
0.00125016
0.29318
0.00131643
0.293068
0.00138126
0.292941
0.00144457
0.2928
0.00150627
0.292645
0.00156629
0.292477
0.00162456
0.292295
0.00168103
0.2921
0.00173567
0.291893
0.00178849
0.291673
0.0018395
0.291442
0.00188873
0.291199
0.00193625
0.290944
0.00198214
0.290678
0.00202648
0.290401
0.00206939
0.290113
0.00211099
0.289815
0.00215141
0.289505
0.00219078
0.289183
0.0022292
0.28885
0.00226684
0.288505
0.00230376
0.288148
0.00234025
0.287776
0.00237633
0.00241259
0.285034
0.000857993
-0.284993
0.285057
0.000948734
0.285063
0.00103746
0.285052
0.0011243
0.285026
0.00120938
0.284983
0.00129274
0.284925
0.00137435
0.284852
0.00145413
0.284765
0.00153202
0.284663
0.00160794
0.284548
0.00168182
0.284419
0.00175362
0.284276
0.0018233
0.284121
0.00189084
0.283953
0.00195624
0.283773
0.00201954
0.283581
0.00208078
0.283377
0.00214005
0.283162
0.00219746
0.282935
0.00225314
0.282698
0.00230726
0.282449
0.00236001
0.282188
0.00241157
0.281917
0.0024622
0.281634
0.0025121
0.281339
0.00256156
0.281032
0.00261079
0.280712
0.00266015
0.280379
0.00270981
0.00276028
0.276689
0.000792299
-0.276623
0.276738
0.000899675
0.276771
0.00100476
0.276787
0.00110758
0.276788
0.00120825
0.276774
0.00130683
0.276745
0.0014033
0.276702
0.00149759
0.276644
0.00158964
0.276573
0.00167939
0.276488
0.00176677
0.27639
0.00185175
0.276279
0.00193429
0.276155
0.00201439
0.276019
0.00209205
0.275872
0.00216731
0.275712
0.00224024
0.275541
0.00231095
0.275359
0.00237957
0.275166
0.00244629
0.274962
0.00251131
0.274747
0.00257489
0.274521
0.00263731
0.274285
0.00269891
0.274037
0.00276001
0.273777
0.002821
0.273506
0.00288223
0.273222
0.00294413
0.272925
0.00300701
0.00307134
0.268618
0.000711522
-0.268537
0.268683
0.00083465
0.268732
0.000955236
0.268766
0.00107327
0.268786
0.00118884
0.268791
0.001302
0.268781
0.00141271
0.268758
0.00152092
0.268721
0.00162657
0.268671
0.0017296
0.268608
0.00182996
0.268532
0.00192759
0.268444
0.00202248
0.268343
0.00211462
0.268231
0.00220401
0.268108
0.00229072
0.267973
0.00237481
0.267828
0.00245642
0.267672
0.0025357
0.267505
0.00261289
0.267328
0.00268823
0.267141
0.00276205
0.266944
0.00283472
0.266736
0.00290666
0.266518
0.00297833
0.266288
0.00305022
0.266048
0.00312282
0.265795
0.00319666
0.26553
0.00327214
0.00334976
0.260895
0.00062336
-0.260807
0.260968
0.000761459
0.261027
0.000896788
0.261071
0.00102931
0.261101
0.00115908
0.261116
0.00128614
0.261119
0.00141046
0.261108
0.00153198
0.261084
0.00165063
0.261047
0.00176636
0.260998
0.0018791
0.260936
0.00198881
0.260863
0.00209547
0.260779
0.00219905
0.260683
0.00229958
0.260577
0.00239712
0.26046
0.00249174
0.260333
0.00258359
0.260196
0.00267286
0.260049
0.0027598
0.259892
0.00284472
0.259726
0.00292801
0.259551
0.00301012
0.259366
0.00309158
0.259171
0.00317297
0.258967
0.00325491
0.258752
0.00333803
0.258525
0.00342299
0.258287
0.00351031
0.00360052
0.253554
0.000533578
-0.253464
0.253629
0.0006859
0.253691
0.000835299
0.253739
0.00098165
0.253773
0.00112499
0.253793
0.00126535
0.253801
0.00140268
0.253796
0.00153692
0.253779
0.00166801
0.253749
0.00179586
0.253708
0.00192042
0.253655
0.00204164
0.253591
0.00215948
0.253516
0.00227392
0.253431
0.00238499
0.253335
0.00249272
0.25323
0.00259722
0.253115
0.00269863
0.252991
0.00279715
0.252857
0.00289307
0.252715
0.00298675
0.252565
0.00307864
0.252405
0.00316928
0.252238
0.0032593
0.252061
0.00334941
0.251876
0.0034404
0.251681
0.00353306
0.251476
0.00362818
0.251259
0.00372647
0.0038285
0.246597
0.000446072
-0.246509
0.246671
0.000612017
0.246731
0.000774886
0.246778
0.000934506
0.246812
0.00109087
0.246834
0.00124398
0.246843
0.0013938
0.246839
0.00154025
0.246824
0.00168324
0.246797
0.00182271
0.246759
0.00195858
0.24671
0.00209078
0.24665
0.00221928
0.24658
0.00234404
0.2465
0.00246507
0.24641
0.00258242
0.246311
0.00269616
0.246204
0.00280645
0.246087
0.00291351
0.245963
0.00301764
0.24583
0.00311923
0.24569
0.00321881
0.245542
0.003317
0.245387
0.00341455
0.245224
0.00351231
0.245053
0.00361125
0.244874
0.00371234
0.244686
0.00381659
0.244487
0.0039249
0.00403796
0.24001
0.000363342
-0.239927
0.24008
0.000542304
0.240136
0.000718152
0.24018
0.000890589
0.240212
0.00105952
0.240231
0.00122494
0.240238
0.0013868
0.240233
0.00154501
0.240217
0.00169948
0.240189
0.00185013
0.240151
0.00199686
0.240102
0.00213961
0.240043
0.0022783
0.239974
0.0024129
0.239896
0.0025434
0.239809
0.00266982
0.239712
0.00279224
0.239608
0.0029108
0.239496
0.00302572
0.239376
0.0031373
0.23925
0.00324599
0.239116
0.00335235
0.238976
0.00345709
0.238829
0.00356108
0.238676
0.00366535
0.238517
0.00377104
0.238349
0.00387939
0.238174
0.00399164
0.23799
0.00410898
0.00423226
0.233769
0.000286302
-0.233692
0.233834
0.000478162
0.233885
0.000666664
0.233924
0.000851518
0.233951
0.00103263
0.233966
0.00120999
0.233969
0.00138353
0.233961
0.00155315
0.233942
0.00171874
0.233912
0.0018802
0.233871
0.00203743
0.23382
0.00219035
0.23376
0.00233886
0.23369
0.0024829
0.233611
0.00262244
0.233523
0.00275749
0.233427
0.00288809
0.233324
0.00301436
0.233213
0.00313652
0.233095
0.00325487
0.232972
0.00336986
0.232842
0.00348211
0.232707
0.0035924
0.232566
0.00370172
0.23242
0.00381127
0.232269
0.00392245
0.232111
0.00403677
0.231947
0.00415582
0.231775
0.00428111
0.00441379
0.227847
0.00021523
-0.227776
0.227905
0.000420231
0.227951
0.000621118
0.227984
0.000818062
0.228006
0.00101106
0.228016
0.00120006
0.228014
0.00138498
0.228002
0.00156572
0.227978
0.00174214
0.227945
0.00191413
0.2279
0.00208158
0.227846
0.00224437
0.227783
0.00240239
0.22771
0.00255556
0.227629
0.0027038
0.227539
0.0028471
0.227442
0.00298546
0.227337
0.00311898
0.227226
0.00324783
0.227108
0.00337232
0.226985
0.00349288
0.226857
0.00361015
0.226725
0.00372498
0.226588
0.00383848
0.226447
0.00395205
0.226302
0.00406734
0.226153
0.00418624
0.225998
0.00431074
0.225836
0.00444281
0.00458402
0.222216
0.000150988
-0.222152
0.222267
0.000368657
0.222307
0.000581693
0.222334
0.000790475
0.22235
0.000995097
0.222355
0.0011955
0.222348
0.00139158
0.222331
0.0015832
0.222303
0.00177023
0.222264
0.00195254
0.222216
0.00212997
0.222158
0.00230241
0.222091
0.00246972
0.222014
0.00263176
0.22193
0.00278844
0.221837
0.00293969
0.221737
0.00308548
0.22163
0.00322586
0.221517
0.00336095
0.221399
0.00349101
0.221275
0.00361645
0.221147
0.00373792
0.221016
0.00385631
0.220881
0.00397282
0.220744
0.00408906
0.220605
0.00420697
0.220462
0.00432887
0.220316
0.00445728
0.220164
0.0045948
0.00474357
0.216848
9.31307e-05