/*--------------------------------*- C++ -*----------------------------------*\
| =========                 |                                                 |
| \\      /  F ield         | OpenFOAM: The Open Source CFD Toolbox           |
|  \\    /   O peration     | Version:  v1912                                 |
|   \\  /    A nd           | Website:  www.openfoam.com                      |
|    \\/     M anipulation  |                                                 |
\*---------------------------------------------------------------------------*/
FoamFile
{
    version     2.0;
    format      ascii;
    class       surfaceScalarField;
    location    "59.5";
    object      phi;
}
// * * * * * * * * * * * * * * * * * * * * * * * * * * * * * * * * * * * * * //

dimensions      [0 3 -1 0 0 0 0];
oriented        oriented;


internalField   nonuniform List<scalar> 
18940
(
0.000358442
-0.234359
0.234001
0.00137964
-0.216317
0.215296
0.00288415
-0.204782
0.203277
0.00470142
-0.197001
0.195184
0.00670058
-0.191249
0.18925
0.00877987
-0.186459
0.184379
0.0108655
-0.182041
0.179955
0.0129079
-0.1777
0.175657
0.014877
-0.173311
0.171342
0.0167573
-0.168848
0.166967
0.0185442
-0.164329
0.162542
0.02024
-0.159798
0.158103
0.0218519
-0.155303
0.153691
0.0233896
-0.150887
0.14935
0.0248644
-0.146587
0.145112
0.0262879
-0.142427
0.141003
0.0276717
-0.138419
0.137035
0.0290262
-0.134561
0.133206
0.03036
-0.130833
0.129499
-0.127196
0.125878
0.0316782
0.000381872
-0.234741
0.00142296
-0.217358
0.00293819
-0.206297
0.00475978
-0.198823
0.00675339
-0.193243
0.00881735
-0.188523
0.0108791
-0.184102
0.0128907
-0.179711
0.0148239
-0.175245
0.0166651
-0.170689
0.0184112
-0.166075
0.0200659
-0.161453
0.0216373
-0.156874
0.0231358
-0.152386
0.0245732
-0.148024
0.0259615
-0.143815
0.0273122
-0.139769
0.0286364
-0.135885
0.0299429
-0.13214
-0.128491
0.0312377
0.000403301
-0.235144
0.00146062
-0.218415
0.00298457
-0.207821
0.00480671
-0.200645
0.00679113
-0.195227
0.0088361
-0.190568
0.0108703
-0.186136
0.0128476
-0.181689
0.0147418
-0.177139
0.0165411
-0.172488
0.0182439
-0.167778
0.0198554
-0.163064
0.0213845
-0.158404
0.0228423
-0.153844
0.0242409
-0.149423
0.0255925
-0.145166
0.026909
-0.141086
0.0282015
-0.137177
0.0294795
-0.133418
-0.129761
0.0307497
0.000417178
-0.235562
0.00148955
-0.219488
0.00302136
-0.209353
0.00484148
-0.202465
0.00681335
-0.197199
0.00883575
-0.19259
0.0108389
-0.18814
0.0127787
-0.183628
0.0146309
-0.178991
0.0163857
-0.174243
0.0180431
-0.169435
0.0196095
-0.164631
0.0210947
-0.159889
0.0225104
-0.15526
0.0238689
-0.150782
0.0251827
-0.14648
0.0264638
-0.142367
0.0277237
-0.138437
0.0289722
-0.134666
-0.131006
0.0302171
0.000428451
-0.23599
0.00151308
-0.220572
0.00304991
-0.21089
0.00486475
-0.20428
0.0068205
-0.199155
0.00881679
-0.194586
0.0107855
-0.190108
0.0126846
-0.185527
0.0144921
-0.180798
0.0161999
-0.175951
0.0178098
-0.171045
0.0193293
-0.16615
0.0207691
-0.161329
0.0221414
-0.156632
0.0234588
-0.152099
0.0247337
-0.147755
0.0259785
-0.143612
0.0272047
-0.139664
0.0284229
-0.135884
-0.132225
0.0296417
0.000437545
-0.236428
0.00153163
-0.221666
0.00307048
-0.212428
0.00487675
-0.206086
0.0068129
-0.201091
0.00877959
-0.196553
0.0107106
-0.192039
0.012566
-0.187383
0.014326
-0.182558
0.0159846
-0.177609
0.017545
-0.172606
0.0190159
-0.167621
0.0204089
-0.162722
0.0217366
-0.15796
0.0230117
-0.153374
0.0242468
-0.14899
0.0254542
-0.144819
0.0266459
-0.140855
0.0278329
-0.137071
-0.133417
0.0290249
0.000445028
-0.236873
0.00154588
-0.222767
0.00308362
-0.213966
0.00487797
-0.207881
0.00679105
-0.203004
0.00872474
-0.198487
0.0106148
-0.193929
0.0124237
-0.189192
0.0141337
-0.184268
0.0157408
-0.179216
0.0172498
-0.174115
0.0186706
-0.169042
0.0200154
-0.164066
0.0212972
-0.159241
0.0225289
-0.154606
0.0237231
-0.150184
0.0248921
-0.145988
0.0260481
-0.142011
0.0272029
-0.138226
-0.134581
0.0283672
0.000451053
-0.237324
0.00155615
-0.223872
0.00308976
-0.2155
0.00486888
-0.20966
0.00675551
-0.204891
0.00865293
-0.200384
0.010499
-0.195775
0.0122586
-0.190951
0.0139162
-0.185926
0.0154697
-0.18077
0.0169255
-0.17557
0.0182944
-0.170411
0.0195896
-0.165362
0.0208242
-0.160476
0.0220112
-0.155793
0.0231632
-0.151336
0.0242925
-0.147118
0.0254117
-0.14313
0.026533
-0.139348
-0.135717
0.0276686
0.000455727
-0.237779
0.00156272
-0.224979
0.00308933
-0.217026
0.00485005
-0.21142
0.00670699
-0.206748
0.00856498
-0.202242
0.0103642
-0.197575
0.0120718
-0.192659
0.0136746
-0.187529
0.0151724
-0.182268
0.0165731
-0.176971
0.0178886
-0.171727
0.0191325
-0.166605
0.0203185
-0.161662
0.0214594
-0.156934
0.0225678
-0.152445
0.0236559
-0.148206
0.0247364
-0.144211
0.0258227
-0.140434
-0.136822
0.026928
0.000459125
-0.238238
0.00156588
-0.226086
0.00308281
-0.218543
0.00482212
-0.21316
0.00664627
-0.208572
0.00846186
-0.204058
0.0102114
-0.199324
0.0118645
-0.194312
0.0134103
-0.189075
0.0148504
-0.183708
0.0161941
-0.178315
0.0174543
-0.172987
0.0186453
-0.167796
0.0197809
-0.162798
0.0208741
-0.158027
0.021937
-0.153508
0.0229818
-0.14925
0.0240217
-0.145251
0.0250707
-0.141483
-0.137895
0.0261437
0.000461351
-0.2387
0.00156599
-0.227191
0.00307077
-0.220048
0.00478585
-0.214875
0.00657431
-0.21036
0.00834471
-0.205828
0.010042
-0.201021
0.0116383
-0.195908
0.0131248
-0.190561
0.0145052
-0.185088
0.01579
-0.1796
0.0169931
-0.17419
0.0181293
-0.168933
0.0192126
-0.163881
0.0202558
-0.15907
0.021271
-0.154523
0.0222701
-0.15025
0.0232664
-0.146247
0.0242751
-0.142492
-0.138933
0.025313
0.000462561
-0.239162
0.00156347
-0.228292
0.0030539
-0.221539
0.00474215
-0.216563
0.00649223
-0.21211
0.00821484
-0.207551
0.00985745
-0.202664
0.0113947
-0.197446
0.01282
-0.191986
0.0141387
-0.186407
0.0153627
-0.180824
0.0165067
-0.175334
0.0175859
-0.170012
0.0186146
-0.164909
0.0196054
-0.160061
0.02057
-0.155487
0.0215202
-0.1512
0.0224694
-0.147196
0.0234339
-0.143456
-0.139932
0.0244329
0.000463036
-0.239625
0.00155896
-0.229388
0.00303305
-0.223013
0.00469207
-0.218222
0.00640132
-0.21382
0.00807381
-0.209223
0.00965961
-0.20425
0.0111358
-0.198922
0.012498
-0.193349
0.0137532
-0.187662
0.0149144
-0.181985
0.0159972
-0.176417
0.0170172
-0.171032
0.0179885
-0.165881
0.0189239
-0.160996
0.0198345
-0.156398
0.0207319
-0.152097
0.0216294
-0.148094
0.0225447
-0.144371
-0.140886
0.0234993
0.000463252
-0.240089
0.00155331
-0.230478
0.00300927
-0.224469
0.00463688
-0.21985
0.00630306
-0.215486
0.00792336
-0.210844
0.00945046
-0.205777
0.010864
-0.200335
0.0121614
-0.194646
0.0133514
-0.188852
0.014448
-0.183081
0.0154675
-0.177436
0.0164255
-0.17199
0.0173365
-0.166792
0.0182127
-0.161873
0.019065
-0.157251
0.0199045
-0.152936
0.0207444
-0.148934
0.0216034
-0.14523
-0.141789
0.0225061
0.000464012
-0.240553
0.00154769
-0.231561
0.00298379
-0.225905
0.00457792
-0.221444
0.00619906
-0.217107
0.0077654
-0.21241
0.00923228
-0.207244
0.0105817
-0.201685
0.0118132
-0.195878
0.0129367
-0.189976
0.0139672
-0.184112
0.0149213
-0.17839
0.0158148
-0.172883
0.0166619
-0.167639
0.0174745
-0.162685
0.0182631
-0.158039
0.0190378
-0.153711
0.0198115
-0.149707
0.0206038
-0.146023
-0.14263
0.0214448
0.000466464
-0.241019
0.00154339
-0.232638
0.00295782
-0.227319
0.00451657
-0.223003
0.00609101
-0.218682
0.00760199
-0.213921
0.00900755
-0.208649
0.010292
-0.202969
0.0114568
-0.197042
0.012513
-0.191032
0.0134764
-0.185075
0.0143636
-0.179277
0.0151905
-0.17371
0.0159706
-0.168419
0.0167153
-0.16343
0.0174341
-0.158758
0.0181358
-0.154413
0.0188326
-0.150404
0.019545
-0.146735
-0.143397
0.0203121
0.000471998
-0.241491
0.00154174
-0.233708
0.00293266
-0.22871
0.00445439
-0.224524
0.00598077
-0.220208
0.00743536
-0.215375
0.00877891
-0.209993
0.00999809
-0.204189
0.011096
-0.19814
0.0120848
-0.192021
0.0129807
-0.185971
0.0138004
-0.180097
0.0145591
-0.174469
0.0152699
-0.16913
0.0159432
-0.164103
0.0165872
-0.159402
0.0172095
-0.155035
0.0178201
-0.151015
0.0184397
-0.147355
-0.144066
0.0191081
0.000482945
-0.241974
0.00154536
-0.23477
0.00291079
-0.230075
0.00439349
-0.226007
0.0058703
-0.221685
0.0072676
-0.216773
0.00854888
-0.211274
0.00970309
-0.205343
0.0107349
-0.199172
0.0116572
-0.192943
0.0124863
-0.1868
0.0132384
-0.180849
0.013928
-0.175159
0.0145667
-0.169769
0.015164
-0.1647
0.015727
-0.159965
0.0162623
-0.155571
0.0167764
-0.151529
0.0172819
-0.14786
-0.144587
0.0178031
0.000506884
-0.242481
0.00156147
-0.235825
0.00289628
-0.23141
0.00433578
-0.227447
0.00576083
-0.22311
0.00710013
-0.218112
0.00831952
-0.212494
0.00940998
-0.206433
0.0103776
-0.20014
0.011236
-0.193801
0.0120012
-0.187565
0.0126884
-0.181536
0.0133102
-0.17578
0.0138756
-0.170334
0.0143905
-0.165215
0.0148585
-0.160433
0.0152815
-0.155994
0.0156585
-0.151906
0.0159938
-0.148195
-0.144942
0.0163494
0.000563933
-0.243045
0.00159837
-0.236859
0.00288887
-0.232701
0.00428007
-0.228838
0.00565189
-0.224482
0.00693338
-0.219394
0.00809212
-0.213652
0.00912108
-0.207462
0.0100279
-0.201047
0.0108269
-0.1946
0.0115343
-0.188273
0.0121645
-0.182167
0.012728
-0.176344
0.0132306
-0.170837
0.013672
-0.165657
0.0140447
-0.160806
0.0143319
-0.156281
0.0145076
-0.152081
0.0145665
-0.148254
-0.145114
0.0147383
0.25073
0.000415191
-0.251146
0.250342
0.000388836
0.24996
0.00038157
0.249578
0.000381706
0.249194
0.000384656
0.248805
0.000389072
0.24841
0.000394228
0.248011
0.000399538
0.247606
0.000404608
0.247197
0.000409233
0.246784
0.000413317
0.246367
0.000416834
0.245947
0.000419766
0.245525
0.000422089
0.245101
0.000423679
0.244677
0.000424332
0.244254
0.000422998
0.243835
0.00041913
0.243431
0.000403527
0.000386443
0.252705
0.00102389
-0.253314
0.252061
0.00103313
0.251389
0.00105424
0.250689
0.00108125
0.249964
0.00110963
0.249215
0.00113802
0.248443
0.00116595
0.24765
0.00119292
0.246836
0.00121852
0.246003
0.00124248
0.245151
0.0012647
0.244283
0.00128515
0.243399
0.00130383
0.2425
0.00132072
0.241588
0.00133569
0.240664
0.00134854
0.239729
0.00135816
0.238784
0.00136428
0.237827
0.00136062
0.00135386
0.25149
0.00159606
-0.252062
0.250853
0.00167002
0.250163
0.00174419
0.249425
0.00181946
0.248641
0.00189349
0.247814
0.00196505
0.246946
0.00203383
0.246039
0.00209958
0.245096
0.00216206
0.244117
0.00222113
0.243105
0.00227672
0.242061
0.00232889
0.240988
0.00237772
0.239885
0.00242331
0.238755
0.00246569
0.237599
0.0025049
0.236416
0.0025404
0.235208
0.00257245
0.23397
0.00259866
0.00262321
0.247386
0.00203964
-0.24783
0.246873
0.00218327
0.246295
0.00232229
0.245656
0.00245811
0.244959
0.00259011
0.244207
0.00271746
0.243401
0.00283985
0.242543
0.00295711
0.241636
0.0030691
0.240682
0.00317574
0.239681
0.00327705
0.238637
0.00337317
0.237551
0.0034643
0.236423
0.00355071
0.235256
0.0036327
0.234051
0.00371061
0.232806
0.00378455
0.231524
0.00385514
0.230201
0.00392166
0.00398612
0.241139
0.00231877
-0.241418
0.240788
0.00253373
0.240369
0.00274191
0.239883
0.00294417
0.239332
0.00314045
0.238719
0.0033303
0.238046
0.00351339
0.237313
0.00368951
0.236524
0.00385857
0.235679
0.00402052
0.234781
0.00417543
0.23383
0.0043235
0.23283
0.00446505
0.23178
0.00460057
0.230682
0.00473057
0.229537
0.00485577
0.228345
0.00497675
0.227105
0.00509449
0.225818
0.00520912
0.00532234
0.233541
0.00244213
-0.233665
0.233347
0.00272771
0.233084
0.00300536
0.232753
0.00327538
0.232355
0.0035378
0.231893
0.00379232
0.231368
0.00403861
0.230781
0.00427643
0.230134
0.00450566
0.229428
0.00472627
0.228665
0.00493834
0.227847
0.00514214
0.226974
0.00533809
0.226047
0.00552685
0.225069
0.0057092
0.224038
0.00588618
0.222956
0.00605885
0.221822
0.0062286
0.220635
0.00639627
0.00656372
0.225298
0.00244028
-0.225296
0.225231
0.00279393
0.225098
0.0031389
0.224898
0.00347511
0.224633
0.0038025
0.224305
0.00412079
0.223914
0.00442965
0.223462
0.00472878
0.222949
0.00501803
0.222378
0.00529734
0.22175
0.00556681
0.221065
0.00582673
0.220326
0.00607762
0.219532
0.00632028
0.218686
0.00655576
0.217786
0.00678545
0.216834
0.00701091
0.215829
0.00723402
0.214769
0.00745634
0.00768003
0.216936
0.00234944
-0.216845
0.216962
0.0027676
0.216924
0.00317648
0.216824
0.00357579
0.216661
0.00396531
0.216437
0.00434472
0.216153
0.00471366
0.21581
0.00507179
0.215409
0.00541888
0.214952
0.00575482
0.214439
0.00607971
0.213872
0.00639383
0.213251
0.00669777
0.212579
0.00699245
0.211856
0.0072792
0.211082
0.00755977
0.210256
0.00783626
0.209379
0.00811121
0.208448
0.00838696
0.00866622
0.208803
0.00220292
-0.208656
0.208888
0.00268181
0.208914
0.00315085
0.20888
0.00360961
0.208788
0.00405775
0.208638
0.00449489
0.208431
0.00492059
0.208168
0.00533445
0.207851
0.00573616
0.20748
0.00612556
0.207057
0.00650266
0.206583
0.00686773
0.20606
0.00722137
0.205487
0.00756462
0.204868
0.00789903
0.204201
0.00822673
0.203486
0.00855046
0.202724
0.00887352
0.201912
0.00919935
0.00953148
0.201099
0.00202773
-0.200924
0.201217
0.00256377
0.201279
0.00308938
0.201284
0.00360403
0.201235
0.00410729
0.201131
0.00459867
0.200974
0.00507765
0.200765
0.00554376
0.200504
0.00599659
0.200194
0.00643587
0.199835
0.00686153
0.199429
0.00727374
0.198977
0.00767309
0.198481
0.00806061
0.197942
0.00843809
0.197361
0.00880797
0.196738
0.00917378
0.196071
0.00953967
0.19536
0.00991061
0.0102914
0.193918
0.00184374
-0.193734
0.194048
0.00243381
0.194125
0.00301288
0.194149
0.00358028
0.19412
0.00413549
0.194041
0.00467793
0.193912
0.00520699
0.193733
0.00572208
0.193507
0.0062227
0.193235
0.00670843
0.192917
0.00717905
0.192556
0.0076346
0.192154
0.00807553
0.191712
0.00850282
0.191231
0.00891836
0.190715
0.00932483
0.190162
0.00972667
0.189572
0.0101289
0.188944
0.0105388
0.0109628
0.187283
0.00166436
-0.187104
0.187411
0.00230595
0.187488
0.00293594
0.187514
0.0035535
0.187492
0.00415802
0.187421
0.00474884
0.187303
0.00532523
0.187138
0.0058865
0.186929
0.006432
0.186676
0.00696114
0.186382
0.00747353
0.186048
0.00796893
0.185675
0.00844764
0.185268
0.00891032
0.184827
0.00935896
0.184356
0.00979614
0.183855
0.0102274
0.183326
0.0106585
0.182764
0.0111001
0.0115605
0.181173
0.00149791
-0.181007
0.18129
0.00218918
0.181358
0.0028681
0.181378
0.00353376
0.18135
0.00418548
0.181276
0.0048225
0.181158
0.00544401
0.180995
0.00604917
0.18079
0.00663717
0.180544
0.00720723
0.180259
0.0077587
0.179937
0.00829104
0.17958
0.00880419
0.179192
0.00929837
0.178775
0.00977542
0.178334
0.0102374
0.17787
0.0106913
0.177386
0.0111425
0.176879
0.0116075
0.0120956
0.175547
0.00134924
-0.175398
0.175647
0.00208867
0.1757
0.00281495
0.175707
0.00352714
0.175668
0.00422443
0.175585
0.00490597
0.175458
0.00557085
0.175289
0.00621809
0.175079
0.00684673
0.174831
0.00745576
0.174545
0.00804422
0.174225
0.00861117
0.173873
0.00915609
0.173493
0.00967845
0.173089
0.0101798
0.172665
0.0106608
0.172226
0.0111302
0.171778
0.0115912
0.171315
0.0120702
0.0125739
0.170351
0.00122063
-0.170223
0.170433
0.00200711
0.170468
0.0027795
0.170459
0.00353692
0.170405
0.00427846
0.170307
0.00500318
0.170168
0.00571004
0.169988
0.00639798
0.169769
0.00706582
0.169513
0.00771232
0.169221
0.00833621
0.168896
0.00893605
0.168541
0.00951075
0.168161
0.0100587
0.16776
0.0105809
0.167345
0.0110756
0.166922
0.0115537
0.166501
0.0120119
0.166077
0.0124942
0.0129942
0.165532
0.00111283
-0.165425
0.165594
0.00194529
0.165611
0.00276274
0.165584
0.00356428
0.165513
0.00434895
0.165401
0.00511571
0.165247
0.00586342
0.165054
0.0065909
0.164823
0.0072968
0.164556
0.00797964
0.164254
0.0086378
0.163921
0.00926934
0.163559
0.00987247
0.163174
0.0104443
0.16277
0.0109848
0.162357
0.0114885
0.161942
0.0119689
0.161544
0.0124092
0.161156
0.0128829
0.0133443
0.161037
0.00102536
-0.16095
0.16108
0.00190273
0.161078
0.00276423
0.161034
0.00360886
0.160947
0.00443559
0.160819
0.0052433
0.160652
0.00603078
0.160446
0.00679674
0.160203
0.00753967
0.159925
0.00825787
0.159614
0.0089494
0.159271
0.00961182
0.158901
0.0102426
0.158508
0.0108374
0.158098
0.0113948
0.157682
0.0119039
0.15727
0.0123809
0.156893
0.0127862
0.156535
0.0132413
0.0135984
0.156819
0.000956368
-0.15675
0.156844
0.00187788
0.156826
0.00278226
0.156766
0.00366881
0.156665
0.0045364
0.156524
0.00538383
0.156345
0.00620987
0.156129
0.00701311
0.155877
0.00779192
0.15559
0.00854443
0.155271
0.00926842
0.154922
0.00996101
0.154546
0.010619
0.154146
0.0112366
0.15373
0.0118108
0.15331
0.0123238
0.152898
0.0127932
0.152542
0.0131418
0.152208
0.0135752
0.0137255
0.152835
0.000903911
-0.152782
0.152845
0.0018679
0.152813
0.00281363
0.152741
0.00374055
0.15263
0.00464737
0.152481
0.00553287
0.152295
0.0063958
0.152074
0.00723468
0.151818
0.0080478
0.151529
0.00883313
0.151209
0.00958828
0.15086
0.0103101
0.150485
0.0109948
0.150086
0.0116355
0.149669
0.0122278
0.149246
0.0127464
0.14883
0.0132093
0.148495
0.0134765
0.148202
0.0138682
0.0136735
0.149045
-0.149007
0.000866426
0.149044
0.00186882
0.149004
0.00285394
0.148925
0.00381901
0.14881
0.00476265
0.148659
0.00568379
0.148474
0.00658116
0.148255
0.00745324
0.148005
0.00829824
0.147724
0.00911407
0.147414
0.00989828
0.147076
0.0106475
0.146713
0.0113579
0.146327
0.0120215
0.145921
0.0126342
0.145503
0.013164
0.14508
0.0136328
0.144729
0.0138274
0.144471
0.0141261
0.0130302
0.25437
7.40837e-05
-0.254444
0.254333
3.63992e-05
0.254301
3.25703e-05
0.254259
4.15072e-05
0.254203
5.5943e-05
0.254129
7.37995e-05
0.254036
9.37739e-05
0.253921
0.000114742
0.253785
0.000135889
0.253628
0.000156708
0.253452
0.000176759
0.253256
0.000195763
0.253042
0.000214217
0.252808
0.000233184
0.252558
0.000250474
0.252292
0.000265651
0.252014
0.000278317
0.251726
0.00028838
0.251436
0.00028998
0.000289992
0.256236
-0.000241575
-0.25592
0.25649
-0.000217586
0.256699
-0.000176642
0.256863
-0.000122823
0.256982
-6.26414e-05
0.257054
1.29805e-06
0.25708
6.78524e-05
0.257059
0.000135931
0.25699
0.000204609
0.256874
0.000272949
0.256711
0.00033971
0.256503
0.000403645
0.256254
0.000463512
0.255956
0.000531007
0.255614
0.000592706
0.25523
0.000649864
0.254806
0.000702325
0.254344
0.000750021
0.253846
0.000788299
0.000821381
0.251672
-0.000898417
-0.251016
0.252256
-0.000801484
0.252774
-0.000694699
0.25323
-0.000578231
0.253623
-0.000455592
0.253953
-0.000329027
0.254221
-0.000199682
0.254425
-6.89611e-05
0.254567
6.31421e-05
0.254644
0.000196046
0.254658
0.000325916
0.254609
0.00045238
0.254495
0.000577737
0.254323
0.000702847
0.254092
0.000823764
0.253802
0.000939669
0.253454
0.00105009
0.253049
0.00115491
0.252585
0.0012522
0.00134475
0.243354
-0.00183432
-0.242418
0.244217
-0.00166461
0.24501
-0.00148763
0.245734
-0.00130264
0.24639
-0.00111132
0.246977
-0.000915478
0.247493
-0.000716454
0.24794
-0.000515514
0.248316
-0.000313351
0.24862
-0.000107183
0.248851
9.47667e-05
0.249014
0.000289545
0.249105
0.000486244
0.249128
0.000679921
0.249082
0.000869511
0.248968
0.0010541
0.248785
0.00123295
0.248534
0.00140569
0.248215
0.00157126
0.00173022
0.233271
-0.00296916
-0.232136
0.234337
-0.00273122
0.235336
-0.00248576
0.236265
-0.00223236
0.237126
-0.00197193
0.237916
-0.00170598
0.238636
-0.00143592
0.239283
-0.00116298
0.239858
-0.000888106
0.240363
-0.000612094
0.240796
-0.000338171
0.241153
-6.7744e-05
0.241438
0.000201255
0.241651
0.000466918
0.241792
0.000728851
0.24186
0.000985611
0.241857
0.00123647
0.241782
0.00148083
0.241635
0.00171787
0.00194753
0.222714
-0.00423055
-0.221453
0.223912
-0.00392925
0.225045
-0.00361886
0.226112
-0.00329954
0.227112
-0.00297211
0.228044
-0.00263798
0.228907
-0.00229873
0.2297
-0.00195582
0.230423
-0.0016107
0.231075
-0.00126472
0.231657
-0.000919437
0.232165
-0.000576138
0.232602
-0.000235687
0.232968
0.000100383
0.233264
0.000433545
0.233487
0.000762686
0.233638
0.00108513
0.233718
0.00140082
0.233727
0.0017091
0.00200974
0.212468
-0.00556085
-0.211138
0.213739
-0.00520038
0.214949
-0.00482871
0.216096
-0.0044465
0.217179
-0.00405479
0.218196
-0.00365519
0.219147
-0.00324951
0.220031
-0.0028395
0.220847
-0.0024268
0.221595
-0.00201286
0.222274
-0.0015991
0.222885
-0.00118693
0.223427
-0.000777143
0.223898
-0.000370472
0.224306
2.54164e-05
0.224642
0.000426781
0.224908
0.000818532
0.225106
0.00120295
0.225235
0.00157997
0.00194919
0.202945
-0.00691826
-0.201588
0.204247
-0.00650194
0.20549
-0.00607204
0.206673
-0.00562956
0.207794
-0.00517601
0.208852
-0.00471339
0.209847
-0.00424384
0.210777
-0.00376936
0.211642
-0.00329181
0.212441
-0.00281279
0.213176
-0.00233379
0.213845
-0.00185617
0.214449
-0.00138101
0.214988
-0.000909263
0.215456
-0.000442293
0.215869
1.37633e-05
0.21621
0.000477346
0.216487
0.00092616
0.216698
0.00136842
0.00180277
0.194303
-0.00827497
-0.192946
0.195606
-0.00780534
0.196854
-0.00731944
0.198043
-0.00681858
0.199172
-0.00630493
0.200239
-0.0057811
0.201245
-0.00524964
0.202189
-0.00471288
0.20307
-0.00417288
0.203888
-0.00363143
0.204645
-0.00309005
0.205339
-0.00255009
0.20597
-0.00201272
0.20654
-0.00147887
0.207048
-0.00094995
0.207489
-0.000427264
0.207875
9.06981e-05
0.208197
0.000604468
0.208457
0.00110809
0.00160384
0.186549
-0.0096142
-0.18521
0.187837
-0.00909324
0.189071
-0.00855281
0.190247
-0.00799461
0.191364
-0.00742182
0.19242
-0.00683787
0.193417
-0.00624582
0.194352
-0.00564838
0.195227
-0.00504782
0.196042
-0.00444606
0.196796
-0.00384467
0.197491
-0.00324495
0.198127
-0.00264806
0.198703
-0.00205496
0.199219
-0.00146664
0.199676
-0.00088403
0.200075
-0.00030785
0.200417
0.000262321
0.200699
0.000825504
0.00137919
0.179613
-0.0109273
-0.1783
0.180876
-0.0103567
0.182086
-0.00976251
0.183239
-0.00914719
0.184332
-0.00851546
0.185366
-0.0078718
0.18634
-0.00721989
0.187255
-0.00656281
0.18811
-0.00590307
0.188906
-0.00524265
0.189645
-0.0045831
0.190326
-0.00392569
0.190949
-0.00327147
0.191515
-0.00262138
0.192025
-0.00197627
0.192478
-0.00133699
0.192874
-0.000704076
0.193217
-8.04521e-05
0.193503
0.000539224
0.00114814
0.173388
-0.0122111
-0.172104
0.174624
-0.0115927
0.175807
-0.0109449
0.176931
-0.0102718
0.177997
-0.0095807
0.179002
-0.00887719
0.179948
-0.00816561
0.180834
-0.00744948
0.181663
-0.0067315
0.182434
-0.00601363
0.183148
-0.00529736
0.183806
-0.00458383
0.184409
-0.00387401
0.184956
-0.00316874
0.185449
-0.00246882
0.185887
-0.00177506
0.186271
-0.00108821
0.1866
-0.000409837
0.186879
0.000260228
0.000923783
0.167766
-0.0134667
-0.166511
0.168976
-0.0128027
0.170132
-0.0121005
0.171228
-0.0113682
0.172264
-0.0106166
0.173239
-0.00985249
0.174155
-0.00908097
0.175011
-0.00830597
0.17581
-0.0075303
0.176552
-0.00675582
0.177239
-0.00598384
0.17787
-0.00521536
0.178447
-0.00445121
0.178971
-0.00369215
0.179441
-0.00293889
0.179858
-0.00219223
0.180223
-0.00145265
0.180534
-0.00072089
0.180798
-3.7126e-06
0.000714476
0.162647
-0.0146977
-0.161416
0.163835
-0.0139914
0.164968
-0.0132329
0.166038
-0.0124389
0.167047
-0.0116248
0.167993
-0.0107987
0.168878
-0.0099664
0.169705
-0.00913225
0.170473
-0.00829904
0.171186
-0.00746841
0.171844
-0.00664141
0.172447
-0.00581883
0.172997
-0.0050013
0.173494
-0.00418945
0.173939
-0.00338394
0.174333
-0.0025855
0.174675
-0.00179477
0.174967
-0.00101308
0.175205
-0.000242216
0.000521842
0.157947
-0.0159107
-0.156734
0.159122
-0.0151665
0.160237
-0.0143477
0.161286
-0.0134881
0.162269
-0.0126085
0.163188
-0.0117178
0.164045
-0.010823
0.164842
-0.00992889
0.165581
-0.00903793
0.166263
-0.00815134
0.166892
-0.00726982
0.167467
-0.0063938
0.167989
-0.00552368
0.16846
-0.00465992
0.168879
-0.00380308
0.169247
-0.00295384
0.169565
-0.00211296
0.169834
-0.00128139
0.170052
-0.000460243
0.000350725
0.153603
-0.0171185
-0.152395
0.154775
-0.0163382
0.155879
-0.0154518
0.156912
-0.0145206
0.157873
-0.0135698
0.158765
-0.0126103
0.159593
-0.0116506
0.160359
-0.0106953
0.161068
-0.00974631
0.161721
-0.00880406
0.162319
-0.00786864
0.162866
-0.00693999
0.16336
-0.00601817
0.163804
-0.00510342
0.164197
-0.00419618
0.16454
-0.00329707
0.164834
-0.00240683
0.165079
-0.00152628
0.165275
-0.00065662
0.00020118
0.149571
-0.0183501
-0.148339
0.150754
-0.017522
0.151854
-0.0165515
0.152872
-0.015539
0.15381
-0.0145077
0.154673
-0.0134731
0.155468
-0.0124459
0.156202
-0.0114289
0.156878
-0.0104221
0.157499
-0.00942516
0.158067
-0.00843709
0.158584
-0.0074571
0.159051
-0.00648481
0.159468
-0.00552023
0.159835
-0.00456367
0.160154
-0.00361569
0.160424
-0.00267702
0.160646
-0.00174855
0.160821
-0.000831254
7.25255e-05
0.145819
-0.0196702
-0.144499
0.147037
-0.0187396
0.148133
-0.0176475
0.149132
-0.0165378
0.150038
-0.0154136
0.150863
-0.014298
0.151619
-0.0132024
0.152315
-0.012125
0.152956
-0.0110626
0.153544
-0.0100133
0.154082
-0.00897471
0.15457
-0.00794531
0.155009
-0.0069242
0.1554
-0.00591121
0.155743
-0.00490657
0.156038
-0.00391083
0.156286
-0.00292477
0.156487
-0.00194944
0.156642
-0.000985826
-3.58628e-05
0.142366
-0.0211486
-0.140887
0.143614
-0.0199885
0.144689
-0.0187216
0.145645
-0.0174947
0.146503
-0.016271
0.147279
-0.0150742
0.14799
-0.0139133
0.148645
-0.01278
0.149249
-0.0116665
0.149804
-0.0105684
0.150312
-0.00948233
0.150772
-0.00840582
0.151186
-0.00733775
0.151552
-0.00627788
0.151872
-0.0052265
0.152146
-0.00418421
0.152373
-0.00315188
0.152554
-0.00213067
0.15269
-0.00112208
-0.000127656
0.139279
-0.13786
-0.0225669
0.140441
-0.0211507
0.141475
-0.0197556
0.142352
-0.0183717
0.143141
-0.0170602
0.143865
-0.0157979
0.14453
-0.0145785
0.145145
-0.0133947
0.145714
-0.0122355
0.146238
-0.0110928
0.146718
-0.00996191
0.147152
-0.00884035
0.147541
-0.00772696
0.147885
-0.00662161
0.148183
-0.00552479
0.148436
-0.00443727
0.148645
-0.00336002
0.148808
-0.00229405
0.148927
-0.00124095
-0.000208192
0.0308427
0.112052
-0.110567
-0.0323272
0.0293308
0.115054
-0.113542
0.0277889
0.118189
-0.116647
0.0262133
0.121479
-0.119904
0.0246008
0.124958
-0.123345
0.0229486
0.128667
-0.127015
0.0212546
0.132665
-0.130971
0.0195174
0.13703
-0.135293
0.0177365
0.141867
-0.140086
0.015912
0.147308
-0.145484
0.0140459
0.153513
-0.151647
0.0121424
0.160668
-0.158765
0.0102103
0.168977
-0.167045
0.00826644
0.178626
-0.176682
0.00634068
0.189739
-0.187813
0.00448318
0.20228
-0.200423
0.00277378
0.215912
-0.214203
0.00133302
0.229778
-0.228338
0.000330336
0.242096
-0.241093
0.249729
-0.249398
0.0306533
0.113529
-0.0321302
0.0291491
0.116558
0.027615
0.119723
0.0260475
0.123047
0.0244432
0.126562
0.0227994
0.130311
0.0211138
0.13435
0.0193849
0.138759
0.0176118
0.14364
0.0157951
0.149125
0.0139365
0.155371
0.0120406
0.162564
0.0101169
0.1709
0.00818301
0.18056
0.00626989
0.191652
0.00442926
0.204121
0.0027424
0.217599
0.00132934
0.231192
0.000354096
0.243071
0.250083
0.0304219
0.114996
-0.031889
0.0289276
0.118052
0.0274035
0.121247
0.0258463
0.124604
0.0242525
0.128156
0.0226193
0.131944
0.0209442
0.136025
0.0192258
0.140478
0.017463
0.145403
0.0156563
0.150931
0.0138076
0.15722
0.0119219
0.16445
0.0100091
0.172813
0.00808749
0.182482
0.00618918
0.193551
0.00436683
0.205943
0.00270228
0.219264
0.0013139
0.23258
0.000357166
0.244028
0.25044
0.0301503
0.116451
-0.0316055
0.0286679
0.119535
0.0271561
0.122759
0.0256112
0.126149
0.0240299
0.129737
0.0224092
0.133565
0.0207468
0.137688
0.0190409
0.142183
0.0172906
0.147153
0.0154961
0.152726
0.0136597
0.159056
0.0117864
0.166323
0.00988667
0.174713
0.0079796
0.184389
0.00609798
0.195432
0.00429526
0.207746
0.00265341
0.220905
0.00128915
0.233944
0.000352097
0.244965
0.250792
0.0298406
0.117892
-0.031282
0.0283722
0.121003
0.0268744
0.124256
0.0253436
0.127679
0.0237766
0.131304
0.0221704
0.135171
0.0205225
0.139335
0.0188311
0.143875
0.0170951
0.148889
0.015315
0.154506
0.0134929
0.160879
0.0116342
0.168182
0.00974974
0.176597
0.00785929
0.186279
0.00599638
0.197295
0.00421514
0.209527
0.00259754
0.222523
0.00125868
0.235283
0.000343173
0.24588
0.251135
0.0294955
0.119318
-0.0309215
0.0280425
0.122456
0.0265603
0.125739
0.0250453
0.129194
0.0234942
0.132855
0.021904
0.136761
0.0202722
0.140967
0.018597
0.14555
0.0168773
0.150609
0.0151134
0.15627
0.0133076
0.162684
0.0114655
0.170024
0.00959851
0.178464
0.00772682
0.188151
0.00588477
0.199137
0.00412709
0.211285
0.00253569
0.224114
0.00122387
0.236595
0.000331563
0.246773
0.251467
0.0291177
0.120728
-0.0305273
0.0276813
0.123893
0.0262159
0.127204
0.0247179
0.130692
0.023184
0.134389
0.0216112
0.138334
0.019997
0.142581
0.0183396
0.147208
0.0166378
0.152311
0.0148919
0.158016
0.0131042
0.164472
0.0112808
0.171848
0.00943326
0.180312
0.00758248
0.190002
0.00576346
0.200956
0.00403147
0.213017
0.00246826
0.225678
0.00118526
0.237878
0.000317972
0.24764
0.251785
0.0287101
0.12212
-0.0301027
0.027291
0.125312
0.0258432
0.128652
0.0243631
0.132173
0.0228474
0.135905
0.0212931
0.139888
0.0196978
0.144177
0.0180595
0.148846
0.0163771
0.153993
0.0146509
0.159742
0.0128832
0.16624
0.0110803
0.17365
0.0092543
0.182138
0.00742654
0.191829
0.00563272
0.20275
0.00392859
0.214721
0.00239561
0.227211
0.00114337
0.23913
0.000303005
0.24848
0.252088
0.0282756
0.123496
-0.0296512
0.0268739
0.126713
0.0254441
0.130082
0.0239824
0.133634
0.0224856
0.137402
0.0209507
0.141423
0.0193753
0.145752
0.0177574
0.150464
0.0160958
0.155655
0.0143907
0.161447
0.0126448
0.167986
0.0108644
0.175431
0.00906186
0.183941
0.00725925
0.193632
0.00549282
0.204516
0.00381874
0.216395
0.00231814
0.228711
0.00109869
0.24035
0.000287077
0.249292
0.252375
0.027817
0.124855
-0.0291762
0.0264323
0.128098
0.0250202
0.131494
0.023577
0.135077
0.0220995
0.138879
0.0205847
0.142938
0.0190301
0.147307
0.0174336
0.15206
0.0157941
0.157294
0.0141118
0.163129
0.0123893
0.169708
0.0106332
0.177187
0.00885615
0.185718
0.00708082
0.195407
0.00534401
0.206253
0.00370222
0.218037
0.00223618
0.230177
0.00105158
0.241534
0.000270433
0.250073
0.252645
0.0273366
0.1262
-0.0286811
0.0259677
0.129467
0.0245727
0.132889
0.0231478
0.136502
0.0216897
0.140338
0.0201953
0.144432
0.0186623
0.14884
0.0170883
0.153634
0.0154722
0.158911
0.0138141
0.164788
0.0121167
0.171405
0.0103868
0.178917
0.00863732
0.187467
0.00689145
0.197153
0.00518651
0.207958
0.00357929
0.219644
0.00215004
0.231607
0.00100232
0.242682
0.000253234
0.250822
0.252898
0.0268361
0.127532
-0.0281684
0.0254812
0.130822
0.024102
0.134268
0.0226947
0.13791
0.0212559
0.141776
0.0197825
0.145905
0.0182717
0.150351
0.0167213
0.155185
0.0151299
0.160502
0.0134976
0.16642
0.0118271
0.173076
0.0101253
0.180619
0.00840548
0.189187