/*--------------------------------*- C++ -*----------------------------------*\
| =========                 |                                                 |
| \\      /  F ield         | OpenFOAM: The Open Source CFD Toolbox           |
|  \\    /   O peration     | Version:  v1912                                 |
|   \\  /    A nd           | Website:  www.openfoam.com                      |
|    \\/     M anipulation  |                                                 |
\*---------------------------------------------------------------------------*/
FoamFile
{
    version     2.0;
    format      ascii;
    class       volVectorField;
    location    "59.5";
    object      U;
}
// * * * * * * * * * * * * * * * * * * * * * * * * * * * * * * * * * * * * * //

dimensions      [0 1 -1 0 0 0 0];


internalField   nonuniform List<vector> 
9600
(
(0.456546 -9.36165 -1.5417e-19)
(0.159767 -8.63241 0)
(0.242028 -8.1596 -9.0536e-20)
(0.320854 -7.84054 0)
(0.38824 -7.6055 0)
(0.456712 -7.41094 -3.18582e-20)
(0.522287 -7.2328 -5.50546e-22)
(0.581825 -7.05884 2.66331e-20)
(0.634552 -6.8837 0)
(0.680499 -6.70596 -4.51599e-20)
(0.720056 -6.52624 0)
(0.753849 -6.34608 -1.83082e-21)
(0.782617 -6.16729 -2.60768e-21)
(0.807117 -5.99157 -3.15596e-20)
(0.828072 -5.8203 2.6618e-20)
(0.846138 -5.65446 -2.61513e-20)
(0.861868 -5.49453 2.32852e-20)
(0.875806 -5.34043 0)
(0.888735 -5.19139 -1.85238e-20)
(0.900384 -5.0459 2.0305e-20)
(0.824481 -9.35127 -3.08441e-19)
(0.50223 -8.66053 1.17574e-20)
(0.567693 -8.20395 1.86492e-19)
(0.635021 -7.8944 -1.58965e-19)
(0.693404 -7.66397 1.56771e-19)
(0.753841 -7.4699 0)
(0.811546 -7.28945 6.07663e-20)
(0.863042 -7.11148 -6.06278e-20)
(0.907481 -6.93146 -1.05165e-19)
(0.944949 -6.74851 1.33023e-19)
(0.975951 -6.56368 -8.63672e-20)
(1.00124 -6.37876 -3.52637e-20)
(1.02165 -6.19571 7.11784e-20)
(1.03805 -6.01628 0)
(1.05121 -5.8419 0)
(1.06183 -5.67352 9.97854e-20)
(1.07047 -5.5116 -1.69183e-19)
(1.07769 -5.35599 0)
(1.08435 -5.20581 0)
(1.08994 -5.05944 -7.82072e-20)
(1.19276 -9.32736 6.37282e-19)
(0.846966 -8.67579 0)
(0.896917 -8.23563 -3.77364e-19)
(0.953486 -7.93569 -3.42052e-19)
(1.00317 -7.70983 0)
(1.05555 -7.51622 5.46674e-19)
(1.10515 -7.33348 -5.16115e-19)
(1.14826 -7.15161 1.01176e-19)
(1.184 -6.96688 -2.25235e-19)
(1.21258 -6.77902 -3.746e-19)
(1.23463 -6.58942 5.11387e-19)
(1.25104 -6.40013 -3.16192e-19)
(1.2628 -6.21323 -1.41714e-19)
(1.27083 -6.03053 0)
(1.27598 -5.85346 5.52943e-21)
(1.27899 -5.68296 1.0518e-19)
(1.28041 -5.51945 4.54704e-20)
(1.28084 -5.36272 0)
(1.28119 -5.2118 8.24294e-20)
(1.2806 -5.06497 8.44815e-20)
(1.56027 -9.28953 -8.62167e-19)
(1.19338 -8.67792 -4.0404e-19)
(1.22914 -8.25442 3.91892e-19)
(1.27568 -7.96409 6.73533e-19)
(1.31695 -7.74274 -3.26906e-19)
(1.36123 -7.54952 5.8062e-21)
(1.40249 -7.36452 2.53869e-19)
(1.43685 -7.17889 2.29954e-19)
(1.4635 -6.9897 4.21176e-19)
(1.48277 -6.79724 0)
(1.4955 -6.60327 1.62272e-19)
(1.50272 -6.41004 -1.72208e-19)
(1.50553 -6.21973 1.03539e-20)
(1.50496 -6.03421 2.71481e-19)
(1.50193 -5.85489 2.32756e-19)
(1.49718 -5.6827 -3.28576e-19)
(1.4913 -5.51801 1.08209e-19)
(1.48487 -5.36058 -1.76209e-19)
(1.47888 -5.20929 1.75377e-19)
(1.47205 -5.06243 -8.45254e-20)
(1.92672 -9.23775 4.34815e-19)
(1.54119 -8.66675 0)
(1.56397 -8.26005 3.84874e-19)
(1.60111 -7.97926 0)
(1.6342 -7.76231 0)
(1.67031 -7.56946 -3.00475e-19)
(1.70295 -7.38227 -5.37626e-19)
(1.7282 -7.19305 -4.55867e-19)
(1.74535 -6.99968 1.84512e-20)
(1.75494 -6.80298 -1.97003e-19)
(1.75799 -6.60505 0)
(1.75571 -6.40834 -1.62684e-19)
(1.74932 -6.21511 -2.93069e-19)
(1.73996 -6.02724 2.57739e-19)
(1.72858 -5.84613 -7.32488e-19)
(1.71597 -5.67268 1.18541e-19)
(1.70271 -5.50724 9.39657e-20)
(1.6894 -5.3495 -1.9376e-19)
(1.67709 -5.19824 -8.46642e-20)
(1.66398 -5.05179 2.52467e-19)
(2.29155 -9.1719 4.19592e-19)
(1.8899 -8.64205 4.16147e-19)
(1.90086 -8.25224 0)
(1.92921 -7.98089 0)
(1.9543 -7.76824 -6.24647e-19)
(1.98213 -7.57572 3.41382e-19)
(2.00589 -7.38642 8.21632e-19)
(2.02165 -7.19383 0)
(2.02892 -6.9966 2.17144e-19)
(2.02847 -6.79606 1.97004e-19)
(2.02151 -6.59464 -3.48066e-19)
(2.00945 -6.39493 5.04755e-19)
(1.99364 -6.19928 1.48123e-19)
(1.9753 -6.00955 0)
(1.95546 -5.82713 1.23313e-19)
(1.93491 -5.65287 5.53565e-19)
(1.91422 -5.4871 -3.29853e-19)
(1.89403 -5.32946 3.70668e-19)
(1.87542 -5.17862 -7.04862e-19)
(1.85604 -5.03303 8.14846e-19)
(2.65424 -9.09197 4.26745e-19)
(2.23899 -8.60363 -2.25973e-18)
(2.2393 -8.23071 0)
(2.25939 -7.96867 0)
(2.27664 -7.76019 0)
(2.29606 -7.56801 -6.05973e-19)
(2.31063 -7.37674 0)
(2.31655 -7.18102 -9.71352e-19)
(2.31357 -6.98029 8.95998e-19)
(2.30271 -6.77636 -8.32193e-19)
(2.28545 -6.57193 0)
(2.26336 -6.36975 0)
(2.23794 -6.17219 0)
(2.21049 -5.98112 -2.81613e-19)
(2.18207 -5.79787 0)
(2.15352 -5.62325 0)
(2.12539 -5.45758 -4.1338e-19)
(2.09834 -5.30043 4.06159e-19)
(2.07348 -5.1504 0)
(2.04786 -5.00612 0)
(3.01424 -8.99796 -1.38829e-18)
(2.58793 -8.55131 8.99652e-19)
(2.5787 -8.19523 0)
(2.59104 -7.94232 0)
(2.60056 -7.73792 0)
(2.61142 -7.54608 5.76377e-19)
(2.6165 -7.35299 -5.78133e-19)
(2.61222 -7.15445 -8.89899e-21)
(2.59863 -6.95062 -8.97145e-19)
(2.57705 -6.74377 8.40024e-19)
(2.5492 -6.53686 -3.7898e-19)
(2.51686 -6.33275 6.59026e-19)
(2.48166 -6.13382 -4.64215e-20)
(2.44498 -5.94192 -5.96206e-19)
(2.40793 -5.75833 -5.02528e-19)
(2.37134 -5.58382 4.93719e-19)
(2.33576 -5.41867 0)
(2.30189 -5.26243 0)
(2.27087 -5.1136 3.57306e-19)
(2.23906 -4.9711 -3.93199e-19)
(3.371 -8.8899 9.27892e-19)
(2.93613 -8.48497 8.83896e-19)
(2.91845 -8.14557 -1.67539e-18)
(2.92351 -7.90161 7.91416e-19)
(2.9254 -7.70117 0)
(2.92751 -7.50972 6.16756e-19)
(2.9228 -7.31501 -5.41469e-19)
(2.90797 -7.11398 1.53026e-18)
(2.88342 -6.90748 -2.37003e-20)
(2.85082 -6.69822 0)
(2.81214 -6.48938 7.64649e-19)
(2.76937 -6.2839 0)
(2.72426 -6.08417 0)
(2.67826 -5.89198 -2.72759e-19)
(2.63253 -5.70855 5.50116e-19)
(2.58788 -5.5346 0)
(2.54487 -5.3704 4.31533e-19)
(2.50424 -5.21547 1.7966e-19)
(2.46714 -5.06823 -3.89789e-19)
(2.42924 -4.92796 3.78496e-19)
(3.72396 -8.76785 -9.5573e-19)
(3.28301 -8.40448 8.98322e-19)
(3.25795 -8.08156 -2.5585e-18)
(3.25615 -7.84633 8.04551e-19)
(3.25045 -7.64975 0)
(3.24363 -7.45875 -1.24489e-18)
(3.22882 -7.26266 5.98036e-19)
(3.2031 -7.0595 0)
(3.16728 -6.85081 -4.74847e-19)
(3.12337 -6.63968 -8.23639e-19)
(3.07366 -6.42949 -7.1774e-19)
(3.0203 -6.22323 5.34624e-20)
(2.96517 -6.02326 6.71304e-19)
(2.9098 -5.83132 2.72534e-19)
(2.85534 -5.64855 -3.79568e-20)
(2.80265 -5.47563 -5.13221e-19)
(2.75224 -5.31281 -2.29558e-19)
(2.70491 -5.15958 -2.06964e-19)
(2.66185 -5.01431 5.5212e-19)
(2.61798 -4.87676 -8.22705e-19)
(4.07255 -8.63189 9.55732e-19)
(3.62798 -8.30978 -4.66556e-20)
(3.59654 -8.00305 8.22456e-19)
(3.58829 -7.77631 0)
(3.575 -7.5835 -6.80974e-19)
(3.55906 -7.39305 1.30851e-18)
(3.53384 -7.19584 -1.11859e-18)
(3.49691 -6.99096 1.10076e-18)
(3.44952 -6.78058 -4.46066e-19)
(3.39407 -6.56815 9.05496e-19)
(3.33313 -6.3572 3.9215e-19)
(3.26905 -6.15074 0)
(3.20383 -5.95112 0)
(3.13904 -5.75998 -2.82592e-19)
(3.07587 -5.57838 3.83753e-20)
(3.01514 -5.40696 1.01068e-18)
(2.95738 -5.24594 -2.50046e-19)
(2.90342 -5.09479 8.25908e-19)
(2.8545 -4.95189 1.44568e-19)
(2.8048 -4.81753 -8.40254e-19)
(4.41623 -8.48214 -2.94086e-18)
(3.97043 -8.20084 -9.87249e-19)
(3.93359 -7.90993 -2.63265e-18)
(3.91922 -7.69142 -1.60163e-18)
(3.89835 -7.5023 -7.59727e-19)
(3.87307 -7.31252 -7.42536e-19)
(3.83714 -7.11449 -2.42411e-18)
(3.78869 -6.90832 -4.90863e-20)
(3.72946 -6.6968 -1.948e-18)
(3.66226 -6.48365 3.02293e-20)
(3.58994 -6.27254 -8.08843e-19)
(3.51505 -6.06651 -7.37072e-19)
(3.43969 -5.86782 6.72867e-19)
(3.36547 -5.67803 -6.15368e-19)
(3.29359 -5.49811 -5.63794e-19)
(3.22485 -5.32864 -5.17449e-19)
(3.15977 -5.16984 -1.38943e-18)
(3.09926 -5.02117 4.94311e-19)
(3.04459 -4.881 1.19967e-18)
(2.98925 -4.75029 -1.27681e-18)
(4.75444 -8.31872 3.95569e-18)
(4.30976 -8.07764 4.85984e-18)
(4.26843 -7.80214 8.34877e-19)
(4.24825 -7.59158 4.0003e-18)
(4.21977 -7.40607 -7.84073e-19)
(4.18492 -7.21711 3.91801e-18)
(4.138 -7.01859 1.14618e-18)
(4.07775 -6.81161 3.21779e-18)
(4.00644 -6.59949 -9.83576e-19)
(3.9273 -6.38623 2.72339e-18)
(3.84348 -6.1756 1.62922e-18)
(3.75771 -5.9706 1.48481e-18)
(3.67217 -5.77343 -2.0103e-18)
(3.58853 -5.58554 1.88322e-18)
(3.50796 -5.40781 1.13629e-18)
(3.43125 -5.24075 1.0431e-18)
(3.35891 -5.08458 9.59181e-19)
(3.29191 -4.93877 7.36859e-21)
(3.23162 -4.80169 8.14259e-19)
(3.17083 -4.6751 8.47398e-19)
(5.08666 -8.14181 -2.93755e-18)
(4.64538 -7.94023 1.08266e-18)
(4.60042 -7.67964 2.67851e-18)
(4.57468 -7.47672 -3.26336e-18)
(4.53852 -7.29477 7.54091e-19)
(4.49388 -7.10681 -2.62129e-18)
(4.4357 -6.90817 1.28475e-18)
(4.36338 -6.70087 -2.15305e-18)
(4.27978 -6.48873 4.90491e-20)
(4.18856 -6.27598 1.19558e-20)
(4.09314 -6.06644 -1.65172e-18)
(3.99645 -5.86309 -7.47734e-19)
(3.90074 -5.66801 1.37495e-18)
(3.80769 -5.48257 8.76466e-21)
(3.71847 -5.30753 -3.72032e-20)
(3.63382 -5.14334 -1.08869e-18)
(3.55425 -4.99022 -4.83477e-19)
(3.48081 -4.84763 -2.71571e-20)
(3.415 -4.71401 -8.48619e-19)
(3.34898 -4.59208 -4.27949e-19)
(5.41238 -7.95158 0)
(4.97671 -7.78865 -2.00052e-18)
(4.92889 -7.54241 2.37598e-20)
(4.8978 -7.34683 3.25893e-18)
(4.85388 -7.16842 1.36413e-18)
(4.79923 -6.98166 -1.41991e-18)
(4.72952 -6.78329 -1.22328e-18)
(4.6449 -6.5762 0)
(4.54884 -6.36463 -9.73815e-19)
(4.44542 -6.15301 9.29399e-19)
(4.33836 -5.94518 -3.90829e-20)
(4.23073 -5.74407 0)
(4.12487 -5.55166 -6.92182e-19)
(4.02243 -5.36919 5.99593e-19)
(3.92457 -5.19732 5.00948e-19)
(3.832 -5.03643 -6.04701e-19)
(3.7452 -4.88675 -5.24617e-19)
(3.66532 -4.74773 9.11056e-19)
(3.59398 -4.61796 -8.40808e-19)
(3.52286 -4.50129 4.42562e-19)
(5.73114 -7.74822 3.03506e-18)
(5.30315 -7.62299 -2.06038e-18)
(5.25317 -7.39049 -1.75853e-18)
(5.21689 -7.20195 8.18787e-19)
(5.1651 -7.02705 -1.58851e-18)
(5.10023 -6.84174 0)
(5.01875 -6.64407 0)
(4.92164 -6.43772 0)
(4.81298 -6.22732 -4.4487e-20)
(4.6973 -6.01746 -1.86522e-18)
(4.57858 -5.81196 8.80931e-19)
(4.46004 -5.61368 7.45086e-19)
(4.34406 -5.42448 6.30547e-19)
(4.23229 -5.24547 -2.58745e-18)
(4.12582 -5.07722 1.22669e-18)
(4.02532 -4.92005 0)
(3.93124 -4.77414 -3.04408e-20)
(3.8448 -4.63903 -1.41304e-18)
(3.76777 -4.51345 -5.69907e-21)
(3.69151 -4.40238 -4.43052e-19)
(6.04258 -7.532 -2.06439e-18)
(5.62417 -7.44336 -1.08626e-18)
(5.5726 -7.22394 8.18594e-19)
(5.53124 -7.04213 -1.43941e-19)
(5.47147 -6.87076 -4.6308e-18)
(5.39615 -6.68717 4.1911e-18)
(5.3027 -6.49064 -4.88149e-20)
(5.19294 -6.28559 1.14799e-18)
(5.07159 -6.07699 1.03003e-18)
(4.94361 -5.86949 9.45835e-19)
(4.81326 -5.66693 8.60737e-19)
(4.68386 -5.47202 1.53832e-18)
(4.55784 -5.28655 -7.40419e-19)
(4.4368 -5.11149 1.91935e-18)
(4.3218 -4.9473 -1.24083e-18)
(4.2134 -4.79424 -5.13336e-19)
(4.11203 -4.6525 2.06185e-18)
(4.01893 -4.52162 1.37757e-18)
(3.93607 -4.40039 -2.79716e-20)
(3.85489 -4.29468 0)
(6.34667 -7.30341 -1.04966e-18)
(5.93937 -7.24996 2.07593e-18)
(5.88649 -7.04282 1.81757e-18)
(5.8401 -6.86742 -1.4592e-19)
(5.77223 -6.69964 -1.57118e-18)
(5.68626 -6.51808 7.06908e-20)
(5.58065 -6.32318 1.31823e-20)
(5.45813 -6.12002 1.17453e-20)
(5.32406 -5.91382 0)
(5.18381 -5.70931 9.25108e-19)
(5.04189 -5.51024 -1.76081e-18)
(4.90173 -5.31924 -7.5354e-19)
(4.76573 -5.13796 7.48069e-19)
(4.63549 -4.96726 -6.56412e-19)
(4.51197 -4.80754 6.07958e-19)
(4.39566 -4.65902 -5.53471e-19)
(4.28698 -4.52189 4.90102e-21)
(4.1873 -4.39555 -4.70222e-19)
(4.09888 -4.2787 -4.34385e-19)
(4.01354 -4.17903 -4.34683e-19)
(6.64375 -7.06292 0)
(6.24849 -7.04271 -1.01219e-18)
(6.19422 -6.84705 1.00058e-18)
(6.14272 -6.67791 1.74581e-18)
(6.06662 -6.51387 -1.57987e-18)
(5.96984 -6.33472 1.36489e-18)
(5.85195 -6.14198 -2.62438e-18)
(5.71662 -5.94131 -2.33063e-18)
(5.56984 -5.73813 -1.01678e-18)
(5.41742 -5.53719 4.44347e-20)
(5.26407 -5.34215 -8.42018e-19)
(5.11327 -5.1555 3.49342e-20)
(4.9674 -4.97875 0)
(4.82796 -4.81269 -1.28762e-18)
(4.69575 -4.65765 6.57104e-19)
(4.57118 -4.51388 0)
(4.4547 -4.3815 -5.14652e-19)
(4.34789 -4.25964 -9.25314e-19)
(4.25301 -4.14794 9.09214e-19)
(4.16249 -4.05902 4.48826e-19)
(6.93343 -6.80975 0)
(6.55091 -6.8209 0)
(6.49504 -6.63655 -1.85616e-18)
(6.43835 -6.47388 -1.59608e-18)
(6.35396 -6.31384 3.23943e-18)
(6.24627 -6.13752 0)
(6.11603 -5.94748 0)
(5.96789 -5.7499 1.17088e-18)
(5.80851 -5.55035 0)
(5.64409 -5.35355 0)
(5.47953 -5.16302 0)
(5.31835 -4.9811 0)
(5.16286 -4.80914 0)
(5.01437 -4.64779 0)
(4.87345 -4.49731 0)
(4.74022 -4.35787 0)
(4.61494 -4.22932 0)
(4.49868 -4.11101 0)
(4.39157 -4.006 0)
(4.28746 -3.9316 0)
(10.0435 0.0877408 1.4737e-19)
(10.023 -0.307648 2.86735e-19)
(9.98718 -0.700359 -2.94492e-19)
(9.93665 -1.09025 5.87158e-19)
(9.87112 -1.47698 -5.87157e-19)
(9.79047 -1.86005 -5.54858e-19)
(9.6948 -2.23891 -5.53309e-19)
(9.58431 -2.61302 1.74254e-18)
(9.45926 -2.98183 -1.16097e-18)
(9.31988 -3.34479 1.15123e-18)
(9.16647 -3.70135 -1.15124e-18)
(8.99934 -4.05097 1.14273e-18)
(8.81881 -4.39314 -2.26612e-18)
(8.62523 -4.72736 3.33719e-18)
(8.41897 -5.05314 0)
(8.20043 -5.37003 -3.27865e-18)
(7.96998 -5.67761 1.63538e-20)
(7.72817 -5.97551 3.3041e-18)
(7.47509 -6.26359 0)
(7.21241 -6.54116 0)
(10.1206 -0.210717 0)
(10.0793 -0.606833 -1.50433e-20)
(10.0213 -0.999147 0)
(9.94709 -1.38732 5.6189e-19)
(9.85705 -1.77093 5.85135e-19)
(9.75134 -2.14937 -1.69357e-18)
(9.63027 -2.522 2.94843e-18)
(9.49417 -2.88821 -1.16392e-18)
(9.34342 -3.24739 -1.10949e-18)
(9.17841 -3.59896 -1.10496e-18)
(8.99957 -3.94235 4.4576e-20)
(8.80732 -4.27701 1.1321e-18)
(8.60213 -4.60242 -5.62805e-18)
(8.38449 -4.91809 -1.18022e-18)
(8.15489 -5.22354 2.24887e-18)
(7.91383 -5.51836 2.24584e-18)
(7.6618 -5.80214 1.14102e-18)
(7.39936 -6.07456 -2.20023e-18)
(7.12663 -6.33536 1.04194e-18)
(6.84454 -6.5842 0)
(10.0724 -0.149215 1.3271e-19)
(10.0346 -0.540899 -2.71768e-19)
(9.97942 -0.929407 7.84812e-19)
(9.90722 -1.31404 -5.55993e-19)
(9.81842 -1.69416 -5.30128e-19)
(9.71337 -2.06903 5.53479e-19)
(9.59245 -2.43795 0)
(9.45605 -2.80021 0)
(9.30461 -3.15515 2.10159e-18)
(9.13857 -3.50212 3.13519e-18)
(8.95839 -3.84051 -9.91606e-19)
(8.76459 -4.16972 3.10019e-18)
(8.55768 -4.48919 -9.87432e-19)
(8.33819 -4.79839 -3.01963e-18)
(8.10668 -5.09682 1.3625e-20)
(7.86372 -5.384 1.93829e-18)
(7.60983 -5.6595 -8.74909e-19)
(7.34563 -5.92291 -1.90691e-18)
(7.07143 -6.17386 -1.02999e-18)
(6.78799 -6.41185 1.87408e-18)
(9.90641 -0.112494 0)
(9.87539 -0.494949 2.29129e-19)
(9.82709 -0.875057 2.28187e-19)
(9.7617 -1.25192 -9.37471e-19)
(9.67954 -1.62474 0)
(9.58096 -1.99273 0)
(9.46631 -2.35513 0)
(9.33598 -2.7112 0)
(9.19038 -3.06022 -9.92024e-19)
(9.02995 -3.4015 -9.88256e-19)
(8.85517 -3.73437 0)
(8.66654 -4.05819 1.86848e-18)
(8.4646 -4.37235 -4.61966e-18)
(8.24991 -4.67627 3.71462e-18)
(8.02301 -4.96941 -3.60044e-18)
(7.78452 -5.25124 -8.7365e-19)
(7.53499 -5.52126 1.56484e-19)
(7.27505 -5.77902 1.54887e-19)
(7.00521 -6.02404 -1.77929e-18)
(6.72622 -6.25585 -7.08915e-20)
(9.65342 -0.0990108 0)
(9.62981 -0.469238 -2.25972e-19)
(9.58936 -0.837775 0)
(9.53214 -1.20372 4.52068e-19)
(9.45837 -1.56623 4.30943e-19)
(9.36835 -1.92451 3.93988e-19)
(9.26238 -2.27779 0)
(9.14082 -2.6253 0)
(9.00402 -2.9663 0)
(8.85241 -3.30007 0)
(8.68643 -3.62592 8.13861e-19)
(8.50656 -3.94317 8.76816e-19)
(8.31331 -4.25118 8.71813e-19)
(8.10722 -4.54934 -8.85147e-19)
(7.88885 -4.83706 -1.52339e-18)
(7.65878 -5.11376 1.72921e-18)
(7.4176 -5.37893 3.35261e-18)
(7.16592 -5.63202 1.63071e-18)
(6.90434 -5.87255 0)
(6.63354 -6.10001 -1.53691e-18)
(9.34644 -0.0902096 4.64468e-20)
(9.32981 -0.446263 0)
(9.29696 -0.801198 -7.61143e-19)
(9.24789 -1.15416 1.82574e-23)
(9.18277 -1.50432 1.61784e-20)
(9.10182 -1.8509 -6.8552e-20)
(9.00531 -2.19312 0)
(8.89352 -2.53022 3.09414e-20)
(8.76679 -2.86145 -7.7269e-19)
(8.62548 -3.18611 1.50546e-18)
(8.46999 -3.50347 -1.5698e-18)
(8.30076 -3.81287 8.57592e-19)
(8.11827 -4.11364 -4.49541e-18)
(7.92303 -4.40516 2.965e-18)
(7.71555 -4.6868 1.57169e-18)
(7.49641 -4.95797 0)
(7.26617 -5.21812 -2.90108e-18)
(7.02544 -5.46667 -6.15422e-20)
(6.7748 -5.70311 -2.85696e-18)
(6.51491 -5.92691 2.96941e-18)
(9.01412 -0.0854003 4.17713e-20)
(9.00313 -0.426455 -8.75048e-20)
(8.97665 -0.766861 7.17457e-19)
(8.93467 -1.10582 -1.40781e-20)
(8.87727 -1.44253 7.17309e-19)
(8.80464 -1.77624 -1.08343e-18)
(8.71699 -2.10619 0)
(8.61458 -2.43164 7.30367e-19)
(8.49767 -2.75188 6.68746e-19)
(8.3666 -3.06618 -7.26276e-19)
(8.22172 -3.37387 1.32882e-18)
(8.06343 -3.67427 2.8171e-18)
(7.89215 -3.96672 -1.31014e-18)
(7.70837 -4.25059 -1.42008e-18)
(7.51256 -4.52526 1.36185e-18)
(7.30525 -4.79013 0)
(7.087 -5.04461 6.49607e-20)
(6.85837 -5.28814 9.81603e-21)
(6.61994 -5.52016 2.70684e-18)
(6.37231 -5.74011 1.25845e-18)
(8.6777 -0.0842211 0)
(8.67077 -0.410324 6.25995e-21)
(8.64913 -0.736121 -1.45998e-19)
(8.61273 -1.06087 -6.48372e-19)
(8.56164 -1.38381 6.09466e-19)
(8.49599 -1.70422 0)
(8.41598 -2.02139 1.24048e-18)
(8.32179 -2.3346 -1.36313e-21)
(8.21368 -2.64317 -1.89456e-18)
(8.09193 -2.94641 0)
(7.95685 -3.24366 -1.30766e-18)
(7.80881 -3.53427 4.60221e-20)
(7.64819 -3.81759 -3.67591e-18)
(7.47543 -4.09301 6.4782e-21)
(7.29097 -4.35991 1.23203e-18)
(7.09533 -4.61771 0)
(6.889 -4.86581 -1.20925e-18)
(6.67254 -5.10364 8.70645e-21)
(6.4465 -5.33064 1.20055e-18)
(6.21143 -5.54623 -1.23841e-18)
(8.35108 -0.0853045 0)
(8.34677 -0.397036 1.49689e-19)
(8.3285 -0.708694 3.1057e-19)
(8.29623 -1.01958 -5.7487e-19)
(8.24999 -1.32899 -2.47365e-20)
(8.1899 -1.63624 -2.87303e-19)
(8.11612 -1.94065 -1.1501e-18)
(8.02881 -2.24155 5.71787e-19)
(7.92818 -2.53829 2.38265e-20)
(7.8145 -2.83022 5.68366e-19)
(7.68803 -3.1167 5.23232e-19)
(7.54911 -3.39712 2.26593e-18)
(7.3981 -3.67087 1.13341e-18)
(7.2354 -3.93734 2.23864e-18)
(7.06142 -4.19595 -1.11639e-18)
(6.87664 -4.44613 3.86854e-20)
(6.68156 -4.68728 -1.10321e-18)
(6.47667 -4.91885 0)
(6.26252 -5.14027 1.04282e-18)
(6.03962 -5.35094 0)
(8.04216 -0.0875245 6.51734e-20)
(8.03931 -0.385756 -1.90875e-19)
(8.02322 -0.684056 5.23533e-19)
(7.99383 -0.981769 -2.61181e-19)
(7.95118 -1.27824 1.89941e-20)
(7.89536 -1.57282 -2.61026e-19)
(7.8265 -1.86487 5.42656e-19)
(7.74475 -2.15376 -5.19353e-19)
(7.65031 -2.43888 5.1935e-19)
(7.5434 -2.71961 9.9609e-19)
(7.42428 -2.99536 -1.07333e-18)
(7.29324 -3.26555 -4.51266e-20)
(7.15063 -3.5296 -3.10685e-18)
(6.9968 -3.78694 5.38106e-21)
(6.83218 -4.03701 4.02998e-20)
(6.6572 -4.27927 2.0141e-18)
(6.47233 -4.51315 -9.94901e-19)
(6.27808 -4.73808 -9.47664e-19)
(6.07497 -4.95352 -3.74667e-20)
(5.86346 -5.15885 0)
(7.75455 -0.0901353 0)
(7.75232 -0.375859 2.42463e-19)
(7.73749 -0.661725 -8.33682e-19)
(7.71002 -0.947118 -2.21184e-19)
(7.66994 -1.23142 4.94654e-19)
(7.61733 -1.51403 0)
(7.55229 -1.79433 0)
(7.47499 -2.07175 4.72817e-19)
(7.38557 -2.3457 -4.72814e-19)
(7.28426 -2.61561 3.98313e-19)
(7.1713 -2.88092 -4.69768e-19)
(7.04695 -3.14109 9.31588e-19)
(6.91154 -3.39557 -1.85856e-18)
(6.76542 -3.64384 1.84896e-18)
(6.60897 -3.88538 3.46839e-20)
(6.44264 -4.11966 -9.50941e-19)
(6.26688 -4.34616 -9.04905e-19)
(6.08219 -4.56432 1.84333e-18)
(5.88908 -4.77359 8.62936e-19)
(5.68803 -4.97334 0)
(7.48905 -0.0926634 1.87887e-21)
(7.48685 -0.366879 1.59197e-19)
(7.47266 -0.641265 3.34237e-19)
(7.44641 -0.91524 2.33948e-19)
(7.40813 -1.18822 2.17021e-19)
(7.35791 -1.45964 2.01882e-19)
(7.29584 -1.72893 0)
(7.22206 -1.99554 -8.3428e-19)
(7.13672 -2.25891 -4.3007e-19)
(7.04003 -2.51852 3.66909e-19)
(6.9322 -2.77384 0)
(6.8135 -3.02437 8.49435e-19)
(6.68423 -3.2696 -2.51225e-18)
(6.54472 -3.50905 8.45087e-19)
(6.39536 -3.74224 0)
(6.23656 -3.96869 -8.03522e-19)
(6.06882 -4.18788 -1.62289e-18)
(5.8926 -4.39932 7.98581e-19)
(5.70847 -4.60241 -2.92203e-20)
(5.51689 -4.79654 0)
(7.24476 -0.0948099 3.4666e-21)
(7.24225 -0.358471 -1.03029e-19)
(7.22826 -0.622293 1.98826e-19)
(7.20275 -0.885733 -1.31299e-20)
(7.16574 -1.14824 3.97302e-19)
(7.11732 -1.40927 -6.10179e-19)
(7.05756 -1.6683 0)
(6.98661 -1.92479 5.60643e-20)
(6.90462 -2.17824 0)
(6.81175 -2.42815 -8.14511e-19)
(6.70824 -2.67402 0)
(6.59432 -2.91539 -7.51703e-19)
(6.47028 -3.15179 2.32329e-18)
(6.33645 -3.38279 -1.53953e-18)
(6.1932 -3.60794 7.67548e-19)
(6.04095 -3.82681 -6.79128e-19)
(5.8802 -4.03894 7.84411e-19)
(5.71145 -4.24386 -7.79048e-19)
(5.53533 -4.44097 0)
(5.35227 -4.62963 0)
(7.01991 -0.0964534 4.7145e-20)
(7.0169 -0.350408 0)
(7.00286 -0.604505 0)
(6.97778 -0.858227 -3.77734e-19)
(6.94168 -1.11105 -3.52547e-19)
(6.89463 -1.36246 0)
(6.83674 -1.61196 0)
(6.76811 -1.85904 4.98845e-20)
(6.68889 -2.10322 6.98157e-19)
(6.59925 -2.34404 -3.36694e-19)
(6.4994 -2.58103 -3.58717e-19)
(6.38957 -2.81376 1.44906e-18)
(6.27004 -3.04181 -2.15174e-18)
(6.14111 -3.26478 1.38757e-18)
(6.00315 -3.48228 0)
(5.85659 -3.69395 2.78763e-18)
(5.70195 -3.89933 -2.02397e-18)
(5.53973 -4.09809 6.88549e-19)
(5.37073 -4.28952 1.31684e-18)
(5.19534 -4.47306 0)
(6.81238 -0.0975292 -4.05335e-20)
(6.80876 -0.34253 0)
(6.79453 -0.587653 -5.2255e-21)
(6.7697 -0.832397 -3.2438e-19)
(6.73427 -1.07626 1.00514e-18)
(6.68834 -1.31876 -1.67203e-19)
(6.63198 -1.55941 0)
(6.56531 -1.79774 1.33194e-18)
(6.48847 -2.03329 -6.85931e-19)
(6.40161 -2.26562 4.45145e-20)
(6.30494 -2.4943 6.35703e-19)
(6.19868 -2.71893 6.51599e-19)
(6.08307 -2.93911 -1.2994e-18)
(5.95842 -3.15452 -1.27096e-18)
(5.82509 -3.36478 -1.24144e-18)
(5.68348 -3.56964 -1.32103e-18)
(5.53417 -3.76866 1.31203e-18)
(5.37766 -3.9617 -6.26351e-19)
(5.21499 -4.14789 -6.6743e-19)
(5.04645 -4.3269 0)
(6.61994 -0.098017 3.98231e-20)
(6.61568 -0.334732 -1.49528e-19)
(6.60121 -0.57154 -1.54792e-19)
(6.57652 -0.807958 4.63494e-19)
(6.54165 -1.04351 -1.64599e-19)
(6.49666 -1.27773 -1.53858e-19)
(6.44164 -1.51016 0)
(6.3767 -1.74034 -6.32416e-19)
(6.30196 -1.96785 0)
(6.21758 -2.19226 6.27526e-19)
(6.12375 -2.41318 -1.20926e-18)
(6.02066 -2.63022 5.98609e-19)
(5.90856 -2.84303 -1.19354e-18)
(5.78772 -3.05133 1.23165e-18)
(5.65849 -3.25478 6.70361e-19)
(5.52123 -3.45327 0)
(5.37659 -3.64633 -5.78644e-19)
(5.22501 -3.83418 5.78644e-19)
(5.06798 -4.01561 0)
(4.90546 -4.19098 0)
(6.44046 -0.0980046 0)
(6.43559 -0.326992 1.46909e-19)
(6.42087 -0.55604 4.72621e-21)
(6.39632 -0.784687 -1.51478e-19)
(6.36194 -1.01248 -1.33578e-19)
(6.31783 -1.23897 -1.41814e-19)
(6.26405 -1.46371 5.48119e-19)
(6.2007 -1.68629 0)
(6.12792 -1.90628 0)
(6.04585 -2.12329 2.78556e-19)
(5.95465 -2.33694 2.95905e-19)
(5.85451 -2.54688 1.07098e-18)
(5.74565 -2.75278 -5.47217e-19)
(5.62832 -2.9544 5.47216e-19)
(5.50281 -3.15146 5.80907e-19)
(5.36948 -3.34397 3.39657e-20)
(5.22898 -3.53146 -1.06692e-18)
(5.08166 -3.7147 3.77999e-21)
(4.92969 -3.8918 5.27688e-19)
(4.77222 -4.06476 0)
(6.27203 -0.0974951 -3.28363e-20)
(6.26662 -0.319278 3.28358e-20)
(6.25171 -0.541093 0)
(6.22731 -0.762494 1.2368e-19)
(6.19345 -0.983044 4.01748e-19)
(6.1502 -1.20232 -5.07766e-19)
(6.09764 -1.41989 -5.38545e-19)
(6.03586 -1.63536 0)
(5.96499 -1.84833 0)
(5.88516 -2.05842 0)
(5.79652 -2.26527 -9.94207e-19)
(5.69924 -2.46857 -6.41719e-20)
(5.59352 -2.668 -5.04102e-19)
(5.47954 -2.86336 3.02079e-20)
(5.3576 -3.05441 -9.96923e-19)
(5.22791 -3.2413 1.51931e-18)
(5.0912 -3.42359 -1.43961e-18)
(4.94749 -3.60286 4.88688e-19)
(4.8001 -3.77614 9.36861e-19)
(4.64629 -3.94832 0)
(6.11295 -0.0961381 2.95002e-20)
(6.10709 -0.311388 0)
(6.09208 -0.526659 -1.21453e-19)
(6.0679 -0.741515 -2.50262e-19)
(6.03459 -0.955535 1.21301e-19)
(5.99222 -1.16831 9.68642e-19)
(5.94087 -1.37944 0)
(5.88062 -1.58854 -4.66522e-19)
(5.8116 -1.79524 -2.38611e-19)
(5.73392 -1.99916 -4.48265e-19)
(5.64772 -2.19999 -1.79361e-19)
(5.55314 -2.3974 -1.41523e-18)
(5.45037 -2.59113 -9.34142e-19)
(5.33951 -2.78096 9.6093e-19)
(5.22084 -2.96672 9.19808e-19)
(5.09436 -3.14864 -3.88481e-21)
(4.96087 -3.32636 2.99585e-20)
(4.81963 -3.50249 4.50287e-19)
(4.67574 -3.6732 -9.2056e-19)
(4.52246 -3.84841 0)
(5.9616 -0.0944662 -6.16908e-20)
(5.95544 -0.303461 3.03694e-20)
(5.94047 -0.512544 -1.21331e-19)
(5.91666 -0.721323 1.21275e-19)
(5.88405 -0.929407 -3.48803e-19)
(5.84267 -1.1364 -1.08613e-18)
(5.79259 -1.34193 0)
(5.73389 -1.54562 4.93617e-19)
(5.66666 -1.74711 -4.61549e-19)
(5.591 -1.94607 9.77355e-19)
(5.50702 -2.14216 9.71552e-19)
(5.41482 -2.33508 1.4314e-18)
(5.31454 -2.52458 -9.2882e-19)
(5.20623 -2.71043 4.6265e-19)
(5.09011 -2.89248 -4.54992e-19)
(4.96583 -3.07092 4.55015e-19)
(4.83449 -3.24549 0)
(4.69337 -3.41942 4.11967e-19)
(4.55154 -3.58851 -4.03149e-19)
(4.39383 -3.77499 0)
(7.14015 7.26214 0)
(7.42013 6.97233 0)
(7.6872 6.67294 1.0876e-18)
(7.94207 6.36448 2.02653e-20)
(8.18417 6.04664 -1.15065e-18)
(8.41285 5.71952 0)
(8.62768 5.38349 1.18742e-18)
(8.82833 5.0391 -2.24034e-18)
(9.0145 4.68692 -1.13221e-18)
(9.18589 4.32757 -1.14279e-18)
(9.34222 3.96167 1.14279e-18)
(9.48329 3.58988 -1.15489e-18)
(9.6089 3.21288 5.76084e-19)
(9.71884 2.83139 5.49857e-19)
(9.81296 2.44606 5.52006e-19)
(9.89121 2.05756 -5.85816e-19)
(9.95355 1.66655 5.85816e-19)
(10.0001 1.27373 -2.94087e-19)
(10.0307 0.879504 -1.39696e-19)
(10.046 0.485225 7.35781e-20)
(7.41707 7.07041 0)
(7.69726 6.78099 -9.96648e-19)
(7.96366 6.48 -2.13076e-18)
(8.21656 6.16812 3.15099e-18)
(8.45571 5.84566 -2.18509e-18)
(8.68062 5.51309 2.19587e-18)
(8.89079 5.171 1.1938e-18)
(9.08582 4.82007 -3.38766e-18)
(9.26532 4.46098 1.10824e-18)
(9.42892 4.09444 2.20314e-18)
(9.57632 3.72119 1.08546e-18)
(9.70727 3.34198 1.09234e-18)
(9.8216 2.95761 -1.15268e-18)
(9.91909 2.5688 1.69735e-18)
(9.99947 2.17635 -2.35488e-18)
(10.0627 1.78113 5.81263e-19)
(10.1086 1.38393 -5.58559e-19)
(10.1375 0.985587 0)
(10.1491 0.586624 1.51571e-20)
(10.1439 0.188023 0)
(7.27414 6.9457 -1.75496e-18)
(7.55715 6.67368 9.85246e-19)
(7.82762 6.38879 1.80229e-18)
(8.08509 6.09171 8.15938e-19)
(8.32915 5.78302 2.04339e-18)
(8.55925 5.46331 2.00443e-20)
(8.77489 5.13327 -1.02422e-18)
(8.97556 4.79359 -3.05244e-18)
(9.16082 4.44498 3.01359e-18)
(9.33023 4.08817 -3.09349e-18)
(9.4834 3.72391 -1.03062e-18)
(9.62003 3.35295 -2.06197e-18)
(9.7398 2.97612 0)
(9.8425 2.59418 0)
(9.928 2.20804 0)
(9.99613 1.81861 -5.25596e-19)
(10.0467 1.42672 5.50464e-19)
(10.0797 1.03323 5.27292e-19)
(10.0951 0.638849 6.27056e-21)
(10.0927 0.244555 1.32433e-19)
(7.04689 6.69367 1.82264e-18)
(7.32664 6.4403 -1.65521e-18)
(7.59505 6.17382 -1.69637e-19)
(7.85139 5.89476 -1.70598e-19)
(8.09509 5.60368 4.3031e-18)
(8.3256 5.30119 -7.1267e-20)
(8.54239 4.98793 3.77717e-21)
(8.7449 4.66455 -2.7212e-18)
(8.93264 4.33173 1.79544e-18)
(9.10515 3.99016 0)
(9.26192 3.64062 9.62985e-19)
(9.40262 3.28394 9.6965e-19)
(9.52696 2.92091 0)
(9.63464 2.55235 0)
(9.72543 2.17909 0)
(9.79914 1.80195 0)
(9.85556 1.42174 -2.17156e-20)
(9.89459 1.03933 4.74791e-19)
(9.91611 0.655536 -2.28002e-19)
(9.92011 0.271309 0)
(6.78424 6.37891 1.54373e-18)
(7.05614 6.14341 0)
(7.3178 5.89498 -4.54533e-18)
(7.56843 5.63402 -1.5493e-18)
(7.80738 5.36106 -1.62807e-18)
(8.03409 5.07667 -1.72583e-18)
(8.24798 4.7814 8.15403e-19)
(8.44849 4.47588 -8.56951e-19)
(8.63509 4.16073 2.37954e-18)
(8.80735 3.83664 -7.79017e-19)
(8.96482 3.50437 0)
(9.10702 3.16466 0)
(9.23355 2.81821 0)
(9.34415 2.46582 0)
(9.43855 2.10827 -1.23022e-18)
(9.5165 1.74639 4.23012e-19)
(9.57777 1.38098 -4.46838e-19)
(9.62221 1.01287 0)
(9.64969 0.642915 2.24861e-19)
(9.66013 0.271995 0)
(6.5093 6.05167 1.32069e-18)
(6.77097 5.83232 -4.79974e-20)
(7.02334 5.60045 2.77802e-18)
(7.26562 5.35638 1.3879e-18)
(7.49716 5.10058 0)
(7.71736 4.83356 -1.47382e-18)
(7.92567 4.55585 6.85302e-20)
(8.12153 4.268 -1.49621e-18)
(8.30443 3.97061 2.06997e-18)
(8.47388 3.66433 3.27462e-20)
(8.62946 3.34978 2.81223e-20)
(8.77071 3.02761 -7.4664e-19)
(8.89722 2.69854 1.46433e-18)
(9.00868 2.36333 0)
(9.10482 2.02269 6.85875e-20)
(9.18533 1.67744 7.4761e-19)
(9.24995 1.32838 1.63926e-21)
(9.29849 0.97626 -1.53502e-20)
(9.33084 0.621897 0)
(9.34684 0.266124 -4.63501e-20)
(6.24345 5.73463 0)
(6.49378 5.52926 -4.89241e-20)
(6.73556 5.3119 1.75835e-20)
(6.96805 5.08281 -2.51131e-18)
(7.1906 4.84241 0)
(7.40263 4.59117 1.27014e-18)
(7.6036 4.32955 1.35288e-18)
(7.79299 4.05806 -3.93612e-18)
(7.97029 3.77726 -6.83016e-20)
(8.13502 3.48772 -1.26392e-18)
(8.28676 3.19002 6.95915e-19)
(8.42507 2.88478 -6.42861e-19)
(8.54957 2.5727 -7.06691e-19)
(8.65986 2.25443 0)
(8.75572 1.93072 3.7283e-19)
(8.83693 1.60216 -1.69139e-20)
(8.90311 1.26962 -3.46117e-19)
(8.95404 0.933833 -1.67758e-20)
(8.98961 0.595545 -8.71272e-20)
(9.00965 0.25553 1.74628e-19)
(5.9979 5.43939 0)
(6.23664 5.24588 1.08595e-18)
(6.46743 5.04093 1.61911e-20)
(6.68956 4.82479 -1.10211e-18)
(6.90241 4.59784 0)
(7.10543 4.36047 1.14659e-18)
(7.29811 4.11313 -1.09473e-18)
(7.47995 3.85629 -1.21187e-18)
(7.65047 3.59043 2.30518e-18)
(7.80921 3.3161 1.24383e-18)
(7.95577 3.03385 0)
(8.08973 2.74427 6.06688e-19)
(8.21071 2.44798 -4.39249e-21)
(8.3184 2.14562 2.18729e-20)
(8.41238 1.83787 0)
(8.49251 1.52534 -5.97187e-19)
(8.55864 1.20866 -3.12864e-19)
(8.61034 0.88864 4.57116e-19)
(8.64751 0.566005 3.08204e-19)
(8.66997 0.241466 -4.11956e-20)
(5.77633 5.1709 0)
(6.0038 4.98736 -9.37958e-19)
(6.22379 4.79297 0)
(6.43561 4.58793 -1.01196e-18)
(6.63868 4.37258 1.99234e-18)
(6.83249 4.14728 -2.03186e-18)
(7.01656 3.91244 3.17943e-18)
(7.19041 3.66848 -3.17029e-18)
(7.35359 3.41588 -2.14196e-18)
(7.50569 3.15512 -1.57984e-18)
(7.64631 2.88674 5.4175e-19)
(7.77506 2.61129 -1.12314e-18)
(7.8916 2.32933 1.86544e-20)
(7.99559 2.04148 1.11648e-18)
(8.08675 1.74833 -2.8088e-19)
(8.16469 1.4506 1.15062e-18)
(8.22935 1.14877 -5.65921e-19)
(8.28053 0.843549 2.60745e-19)
(8.31798 0.53568 -1.48698e-19)
(8.3415 0.225827 0)
(5.57846 4.92955 0)
(5.79532 4.75446 1.81458e-18)
(6.00504 4.56907 8.80215e-19)
(6.20698 4.37358 -9.06045e-19)
(6.40059 4.16825 -1.85603e-18)
(6.58539 3.95344 2.82431e-18)
(6.76094 3.7295 1.12969e-20)
(6.9268 3.49684 -9.206e-19)
(7.08256 3.25591 1.97636e-18)
(7.22782 3.00717 1.02072e-18)
(7.36221 2.75112 -9.5364e-19)
(7.48536 2.48829 5.00746e-19)
(7.59696 2.21921 2.2546e-20)
(7.69669 1.94445 -5.26902e-19)
(7.78426 1.66458 -2.55329e-19)
(7.8594 1.38018 5.1197e-19)
(7.92187 1.09196 -2.5664e-19)
(7.97155 0.80041 -5.17892e-19)
(8.00829 0.506209 6.00133e-20)
(8.03183 0.210008 6.48935e-20)