/*--------------------------------*- C++ -*----------------------------------*\
  =========                 |
  \\      /  F ield         | OpenFOAM: The Open Source CFD Toolbox
   \\    /   O peration     | Website:  https://openfoam.org
    \\  /    A nd           | Version:  6.0
     \\/     M anipulation  |
\*---------------------------------------------------------------------------*/
FoamFile
{
    version     2.0;
    format      ascii;
    class       surfaceScalarField;
    location    "13.25";
    object      phi;
}
// * * * * * * * * * * * * * * * * * * * * * * * * * * * * * * * * * * * * * //

dimensions      [0 3 -1 0 0 0 0];

internalField   nonuniform List<scalar> 
4670
(
0.00317172
-0.425937
0.422765
0.0101315
-0.390661
0.383701
0.0184745
-0.372633
0.36429
0.0268292
-0.356266
0.347912
0.0346202
-0.339491
0.3317
0.0417063
-0.322114
0.315028
0.0481627
-0.304759
0.298303
0.0541519
-0.288161
0.282172
0.0598586
-0.272801
0.267095
-0.258857
0.25324
0.0654758
0.00332886
-0.429265
0.010303
-0.397635
0.0184836
-0.380814
0.0265509
-0.364334
0.0339865
-0.346927
0.0407005
-0.328828
0.0468026
-0.310861
0.0524716
-0.29383
0.0578993
-0.278229
-0.264246
0.0632882
0.00344052
-0.432706
0.0103534
-0.404548
0.0182942
-0.388755
0.0260008
-0.37204
0.0330188
-0.353945
0.0393098
-0.335119
0.0450155
-0.316567
0.0503272
-0.299142
0.0554398
-0.283342
-0.269371
0.0605653
0.0034833
-0.436189
0.0102698
-0.411335
0.0179042
-0.396389
0.0251852
-0.379321
0.0317263
-0.360486
0.0375421
-0.340935
0.0428058
-0.321831
0.0477188
-0.304055
0.0524765
-0.288099
-0.274196
0.0573014
0.00347981
-0.439669
0.0100725
-0.417927
0.0173376
-0.403654
0.0241361
-0.38612
0.0301461
-0.366496
0.0354312
-0.34622
0.0401933
-0.326593
0.044645
-0.308507
0.0489858
-0.29244
-0.278673
0.0534632
0.00342615
-0.443095
0.00976609
-0.424267
0.0166089
-0.410497
0.0228817
-0.392393
0.028324
-0.371938
0.0330387
-0.350935
0.037244
-0.330798
0.0411593
-0.312422
0.0450016
-0.296282
-0.28274
0.0490682
0.00333303
-0.446428
0.00936974
-0.430304
0.0157391
-0.416866
0.0214402
-0.398094
0.0262807
-0.376779
0.030405
-0.355059
0.0340387
-0.334432
0.0373854
-0.315769
0.0406568
-0.299554
-0.286204
0.0441205
0.00321926
-0.449647
0.00892556
-0.43601
0.0147788
-0.42272
0.0198461
-0.403161
0.0240068
-0.380939
0.0274657
-0.358518
0.0304874
-0.337454
0.0332637
-0.318545
0.0358959
-0.302186
-0.288608
0.0383002
0.00312713
-0.452775
0.00851316
-0.441396
0.013844
-0.42805
0.0182452
-0.407562
0.0216349
-0.384329
0.0242339
-0.361117
0.0263372
-0.339557
0.0282129
-0.320421
0.0300258
-0.303999
-0.290229
0.0316464
0.00311908
-0.455894
0.00819535
-0.446472
0.0130518
-0.432907
0.016876
-0.411386
0.0195866
-0.38704
0.0213088
-0.362839
0.0221489
-0.340397
0.0222409
-0.320513
0.0222301
-0.303988
-0.29329
0.0252913
0.480905
0.00253909
-0.483444
0.478126
0.00277911
0.475269
0.00285683
0.472475
0.00279398
0.469686
0.00278895
0.466891
0.00279487
0.464109
0.00278224
0.461342
0.00276672
0.458612
0.00273013
0.0027185
0.482322
0.00503652
-0.48482
0.47934
0.00576114
0.476003
0.00619388
0.472395
0.00640233
0.468537
0.00664645
0.464467
0.00686548
0.460212
0.00703672
0.455805
0.00717366
0.451237
0.00729798
0.00748346
0.462248
0.00629624
-0.463508
0.460503
0.00750593
0.458305
0.00839257
0.455657
0.00904971
0.45262
0.00968359
0.449248
0.0102372
0.445584
0.0107009
0.441665
0.011093
0.43745
0.0115133
0.012026
0.431387
0.00655096
-0.431642
0.430703
0.00818969
0.429557
0.00953868
0.427944
0.0106624
0.425926
0.0117024
0.423591
0.0125715
0.420962
0.0133302
0.418055
0.0139999
0.414871
0.0146972
0.0155111
0.400238
0.0063177
-0.400005
0.400082
0.00834578
0.399495
0.0101264
0.398502
0.011655
0.397149
0.0130555
0.395536
0.0141849
0.393663
0.0152031
0.39165
0.0160128
0.38944
0.0169068
0.0179116
0.372361
0.00599465
-0.372038
0.37232
0.00838693
0.371884
0.0105622
0.371113
0.0124265
0.370021
0.0141467
0.368759
0.0154469
0.367267
0.0166955
0.365833
0.0174465
0.364289
0.0184513
0.0193612
0.348452
0.00579431
-0.348252
0.348304
0.00853443
0.347787
0.01108
0.346986
0.0132274
0.34586
0.0152728
0.344656
0.016651
0.343226
0.0181254
0.342145
0.0185269
0.34091
0.0196863
0.0198744
0.328119
0.00579201
-0.328117
0.327784
0.00886924
0.327088
0.0117761
0.326137
0.0141786
0.324817
0.0165926
0.323496
0.0179719
0.321862
0.0197597
0.321049
0.01934
0.319858
0.0208767
0.01922
0.310623
0.00599678
-0.310828
0.310097
0.00939546
0.309215
0.0126577
0.308105
0.0152886
0.30656
0.0181372
0.305049
0.0194834
0.302995
0.0218135
0.302317
0.0200178
0.301261
0.021933
0.0164932
0.295229
-0.29566
0.00642748
0.294517
0.0101074
0.293475
0.0136998
0.292255
0.0165083
0.290572
0.0198201
0.288922
0.0211338
0.28643
0.0243056
0.285259
0.021189
0.284027
0.023165
0.00722987
0.4944
-0.000429319
-0.49397
0.494492
-9.20912e-05
0.494219
0.000272722
0.493604
0.00061498
0.492638
0.000966248
0.491326
0.00131202
0.489714
0.00161166
0.487833
0.00188132
0.485672
0.00216086
0.00222792
0.483094
-0.00359506
-0.479929
0.485668
-0.00266554
0.487642
-0.00170131
0.488996
-0.000738807
0.489732
0.000229292
0.489862
0.0011822
0.48941
0.00206398
0.488399
0.00289271
0.486834
0.00372565
0.00424203
0.447719
-0.00844929
-0.442865
0.452002
-0.00694854
0.45566
-0.00535958
0.458664
-0.00374218
0.461022
-0.0021288
0.462744
-0.000539593
0.463837
0.000970865
0.464307
0.00242248
0.464201
0.00383128
0.00493552
0.408333
-0.0139725
-0.40281
0.413319
-0.0119342
0.417691
-0.00973216
0.421444
-0.00749454
0.424594
-0.00527878
0.427151
-0.00309711
0.429117
-0.000994972
0.430506
0.00103322
0.431367
0.00297006
0.00466113
0.374723
-0.0196179
-0.369078
0.379793
-0.0170036
0.384249
-0.0141881
0.388121
-0.0113671
0.391431
-0.00858839
0.394187
-0.00585325
0.396401
-0.00320858
0.3981
-0.000666489
0.399317
0.00175342
0.00397294
0.347783
-0.0252138
-0.342187
0.352669
-0.0218899
0.356913
-0.0184322
0.360609
-0.0150624
0.363756
-0.0117359
0.366367
-0.00846417
0.368475
-0.0053168
0.370118
-0.00230854
0.371312
0.000559337
0.00324657
0.326187
-0.030818
-0.320583
0.330798
-0.0265003
0.334736
-0.0223701
0.338166
-0.0184927
0.341037
-0.0146073
0.343372
-0.010799
0.345235
-0.00717952
0.346665
-0.00373855
0.347672
-0.000447862
0.00266695
0.308387
-0.0365074
-0.302697
0.312762
-0.0308753
0.316408
-0.0260168
0.319559
-0.0216434
0.322133
-0.017181
0.324174
-0.0128405
0.325771
-0.00877645
0.32696
-0.00492687
0.327742
-0.00122989
0.00229157
0.293258
-0.0417426
-0.288023
0.297516
-0.035133
0.30096
-0.0294615
0.30377
-0.0244535
0.306016
-0.0194264
0.307783
-0.0146075
0.309133
-0.0101269
0.310093
-0.00588667
0.310658
-0.00179519
0.00212227
0.279874
-0.278905
-0.0427117
0.284199
-0.0394581
0.288052
-0.0333152
0.290288
-0.0266892
0.292056
-0.0211939
0.293555
-0.0161066
0.294667
-0.0112389
0.295387
-0.00660662
0.29572
-0.00212859
0.00218251
0.056986
0.223331
-0.21765
-0.0626666
0.051017
0.235073
-0.229104
0.0447567
0.248407
-0.242146
0.0381701
0.264001
-0.257415
0.0312194
0.283093
-0.276142
0.0239003
0.30768
-0.300361
0.0163205
0.340578
-0.332998
0.0088946
0.384201
-0.376775
0.00274504
0.434474
-0.428325
0.476154
-0.473409
0.0564633
0.228971
-0.0621034
0.050522
0.241015
0.0442869
0.254642
0.0377249
0.270563
0.0308009
0.290017
0.0235181
0.314963
0.0159988
0.348097
0.00867916
0.39152
0.00268008
0.440473
0.478834
0.0556721
0.234537
-0.0612379
0.0497969
0.24689
0.0436207
0.260818
0.0371141
0.27707
0.0302457
0.296885
0.0230266
0.322182
0.0155931
0.355531
0.00839847
0.398715
0.00255882
0.446313
0.481393
0.0548651
0.24005
-0.0603779
0.0490228
0.252732
0.0428811
0.266959
0.0364137
0.283537
0.0295953
0.303703
0.0224445
0.329333
0.0151097
0.362866
0.00806082
0.405764
0.00240766
0.451966
0.4838
0.0536041
0.245424
-0.0589784
0.0478868
0.25845
0.0418571
0.272989
0.0354942
0.2899
0.0287798
0.310418
0.0217418
0.336371
0.0145429
0.370065
0.00767488
0.412632
0.00224127
0.4574
0.486042
0.0528225
0.250873
-0.0582717
0.0470111
0.264261
0.040919
0.279081
0.0345486
0.296271
0.0278832
0.317083
0.0209436
0.343311
0.0138949
0.377113
0.00723066
0.419296
0.00204943
0.462581
0.488091
0.0509581
0.256082
-0.0561665
0.0453372
0.269882
0.0394305
0.284988
0.0332434
0.302458
0.0267511
0.323575
0.0199872
0.350075
0.0131437
0.383957
0.00672943
0.42571
0.00183975
0.467471
0.489931
0.0507937
0.262106
-0.0568185
0.0444629
0.276213
0.0382098
0.291241
0.0319411
0.308726
0.0255037
0.330013
0.018892
0.356687
0.0122723
0.390577
0.00616238
0.43182
0.0015982
0.472035
0.491529
0.0474091
0.268023
-0.0533258
0.0415822
0.28204
0.0359882
0.296835
0.0301111
0.314603
0.0239287
0.336195
0.0175696
0.363046
0.0112522
0.396894
0.00550703
0.437565
0.00133632
0.476206
0.492865
0.0458923
-0.0567738
0.0399091
0.034047
0.0280673
0.0220754
0.0160432
0.0101274
0.00482797
0.00110503
0.0540277
0.169596
-0.165242
-0.0583818
0.0478692
0.178632
-0.172473
0.0416531
0.188803
-0.182587
0.0354572
0.201051
-0.194855
0.0292329
0.216545
-0.210321
0.0228794
0.237456
-0.231102
0.0163074
0.267279
-0.260707
0.00958545
0.310785
-0.304063
0.0034154
0.370551
-0.364381
0.443521
-0.440105
0.0532892
0.174871
-0.0585638
0.0479196
0.184001
0.0422566
0.194466
0.0363091
0.206999
0.0300797
0.222775
0.023564
0.243971
0.0167587
0.274084
0.0098175
0.317726
0.00351253
0.376856
0.447033
0.0536544
0.179884
-0.0586682
0.0484316
0.189224
0.0428493
0.200049
0.0369197
0.212928
0.0306354
0.229059
0.0239936
0.250613
0.0170213
0.281056
0.00991751
0.32483
0.00351
0.383263
0.450543
0.0545313
0.184798
-0.0594444
0.0492316
0.194524
0.0435515
0.205729
0.0375088
0.218971
0.0310952
0.235473
0.0243025
0.257406
0.0171721
0.288187
0.00993276
0.332069
0.0034661
0.38973
0.454009
0.0554359
0.189874
-0.0605125
0.0499812
0.199978
0.0441751
0.211535
0.038008
0.225138
0.0314618
0.242019
0.0245286
0.264339
0.017255
0.29546
0.0099087
0.339416
0.00341172
0.396227
0.457421
0.0562014
0.195168
-0.0614946
0.0505947
0.205585
0.0446632
0.217466
0.0383798
0.231421
0.0317164
0.248682
0.0246624
0.271393
0.017275
0.302848
0.00984723
0.346843
0.00334468
0.402729
0.460766
0.0568193
0.200645
-0.0622969
0.0510741
0.21133
0.0450229
0.223518
0.0386311
0.237813
0.0318643
0.255449
0.0247104
0.278547
0.0172355
0.310323
0.00975424
0.354325
0.00327258
0.409211
0.464038
0.0572597
0.206259
-0.0628738
0.0513964
0.217194
0.0452432
0.229671
0.0387605
0.244296
0.0319099
0.2623
0.024679
0.285778
0.0171431
0.317859
0.00963973
0.361828
0.00319444
0.415656
0.467233
0.0574617
0.21195
-0.0631521
0.0515215
0.223134
0.0452991
0.235893
0.0387538
0.250841
0.0318459
0.269208
0.0245649
0.293059
0.0169974
0.325426
0.00950529
0.36932
0.00312583
0.422036
0.470358
0.0574003
-0.0631011
0.0514296
0.0451767
0.038603
0.0316688
0.0243664
0.016794
0.00933937
0.00305036
-0.154899
0.0530756
-0.0634183
-0.150459
0.0447705
-0.0492111
-0.147298
0.0392822
-0.0424429
-0.145117
0.0325598
-0.0347408
-0.143693
0.026426
-0.0278501
-0.143058
0.0202229
-0.0208582
-0.143197
0.0140827
-0.0139432
-0.144126
0.00795761
-0.00702884
-0.145839
0.00189238
-0.000179631
-0.00405498
-0.148316
0.00653269
-0.165504
0.0461062
-0.160789
0.0400557
-0.157095
0.0355882
-0.154592
0.0300572
-0.15295
0.0247841
-0.152157
0.0194302
-0.152177
0.0141018
-0.153005
0.00878606
-0.154625
0.00351219
-0.00167273
-0.157007
-0.17624
0.0397592
-0.171642
0.0354572
-0.167785
0.0317315
-0.165007
0.0272793
-0.16312
0.0228971
-0.1621
0.0184099
-0.161911
0.0139131
-0.16254
0.00941459
-0.163965
0.00493766
0.000519774
-0.166158
-0.188836
0.03374
-0.184104
0.0307254
-0.180098
0.027725
-0.177052
0.0242336
-0.174871
0.0207159
-0.173547
0.0170863
-0.173059
0.0134251
-0.173391
0.0097469
-0.174527
0.00607341
0.00243328
-0.176441
-0.20447
0.0278892
-0.199519
0.0257739
-0.19528
0.0234859
-0.191912
0.020866
-0.189367
0.0181712
-0.187655
0.0153736
-0.186765
0.0125351
-0.186689
0.00967056
-0.187414
0.00679911
0.00394152
-0.188922
-0.225204
0.0219909
-0.219984
0.0205541
-0.215429
0.0189306
-0.211655
0.0170919
-0.208651
0.0151672
-0.206436
0.013159
-0.205011
0.0111103
-0.204374
0.00903371
-0.204519
0.00694366
0.00485418
-0.205432
-0.254599
0.0158828
-0.249042
0.0149979
-0.244083
0.0139713
-0.239807
0.0128162
-0.23623
0.0115895
-0.233375
0.0103044
-0.231251
0.00898615
-0.229861
0.00764398
-0.229203
0.00628498
0.00491799
-0.229266
-0.297759
0.00957862
-0.291895
0.00913391
-0.28653
0.00860665
-0.281737
0.00802286
-0.27754
0.00739266
-0.273966
0.00673038
-0.271025
0.00604549
-0.268726
0.0053443
-0.267066
0.00462525
0.00388866
-0.266037
-0.358433
0.00363103
-0.352792
0.00349272
-0.347508
0.00332292
-0.342642
0.00315696
-0.338217
0.00296751
-0.334255
0.002768
-0.330766
0.00255713
-0.327762
0.00233951
-0.325245
0.00210901
0.00184457
-0.323201
-0.436474
-0.432981
-0.429659
-0.426502
-0.423534
-0.420766
-0.418209
-0.415869
-0.41376
-0.411916
-0.15152
-0.00975427
0.0129577
-0.155376
-0.0152404
0.0190961
-0.159804
-0.0203824
0.0248105
-0.164692
-0.0250988
0.0299868
-0.169886
-0.0293138
0.0345082
-0.175202
-0.0329781
0.0382935
-0.180407
-0.0361604
0.0413663
-0.185233
-0.0390745
0.0439003
-0.190045
-0.0417496
0.0465619
-0.0451145
-0.192983
0.0480519
-0.160111
-0.00665043
-0.16386
-0.0114914
-0.16817
-0.0160722
-0.172935
-0.0203342
-0.178018
-0.0242305
-0.183252
-0.0277439
-0.188477
-0.0309354
-0.193621
-0.033931
-0.198498
-0.0368727
-0.0405489
-0.203063
-0.169083
-0.00372512
-0.172671
-0.00790366
-0.176846
-0.0118966
-0.181518
-0.0156625
-0.186574
-0.0191744
-0.191886
-0.0224317
-0.197347
-0.0254745
-0.202898
-0.0283803
-0.208424
-0.0313465
-0.0347886
-0.214184
-0.179108
-0.00105776
-0.182467
-0.0045442
-0.186457
-0.007907
-0.191001
-0.0111189
-0.196009
-0.0141661
-0.201384
-0.0170562
-0.207044
-0.0198152
-0.212921
-0.0225025
-0.21899
-0.0252783
-0.0283042
-0.225474
-0.191201
0.00122074
-0.194196
-0.0015487
-0.19786
-0.00424357
-0.202132
-0.00684726
-0.206942
-0.0093556
-0.212218
-0.0117803
-0.217893
-0.0141399
-0.223912
-0.0164842
-0.230278
-0.0189114
-0.0214592
-0.237123
-0.207114
0.00290312
-0.209521
0.000857993
-0.212617
-0.00114721
-0.216358
-0.00310647
-0.220695
-0.0050183
-0.225581
-0.00689396
-0.230965
-0.0087559
-0.236809
-0.0106408
-0.243122
-0.0125981
-0.0146237
-0.249958
-0.230073
0.00370999
-0.231582
0.00236656
-0.233771
0.00104152
-0.236614
-0.000263098
-0.240083
-0.0015495
-0.24415
-0.00282627
-0.248787
-0.00411935
-0.253974
-0.00545379
-0.259716
-0.00685597
-0.00831493
-0.266025
-0.265678
0.00335144
-0.265949
0.00263758
-0.26684
0.00193266
-0.268347
0.00124325
-0.270451
0.000555006
-0.273147
-0.000130026
-0.276433
-0.000833914
-0.280299
-0.00158784
-0.284752
-0.00240265
-0.00327748
-0.28979
-0.321633
0.00178322
-0.320548
0.00155245
-0.319941
0.00132541
-0.319817
0.00111963
-0.320173
0.000911156
-0.321005
0.000702189
-0.322327
0.000487891
-0.324162
0.000247409
-0.326527
-3.80077e-05
-0.00039741
-0.329407
-0.410133
-0.40858
-0.407255
-0.406135
-0.405224
-0.404522
-0.404034
-0.403786
-0.403825
-0.404222
0.000433717
-0.404656
0.0038331
-0.332807
0.00950271
-0.295459
0.0163979
-0.27292
0.0237653
-0.257325
0.0311432
-0.244501
0.0383068
-0.232638
0.0452673
-0.221145
0.0523318
-0.210128
-0.200334
0.0596833
0.000765371
-0.405421
0.00469804
-0.336739
0.0109121
-0.301673
0.0182856
-0.280294
0.026031
-0.26507
0.033676
-0.252146
0.0409878
-0.23995
0.0479276
-0.228085
0.0545421
-0.216742
-0.206356
0.060564
0.0011075
-0.406529
0.00555384
-0.341186
0.0122696
-0.308389
0.0200612
-0.288085
0.0281265
-0.273136
0.0360102
-0.26003
0.0435014
-0.247441
0.0505218
-0.235105
0.0569555
-0.223176
-0.211932
0.0625317
0.0014211
-0.40795
0.00636723
-0.346132
0.0135388
-0.315561
0.0216742
-0.296221
0.0299655
-0.281427
0.0379735
-0.268038
0.0455063
-0.254973
0.0525116
-0.24211
0.0589832
-0.229648
-0.217854
0.0649051
0.00173728
-0.409687
0.00714471
-0.351539
0.0147106
-0.323126
0.023117
-0.304627
0.0315618
-0.289872
0.0396312
-0.276107
0.0471618
-0.262504
0.054132
-0.24908
0.0605708
-0.236087
-0.223764
0.0664807
0.00204337
-0.41173
0.00786854
-0.357364
0.0157612
-0.331019
0.0243602
-0.313226
0.0328787
-0.29839
0.0409369
-0.284166
0.0484106
-0.269978
0.0553192
-0.255989
0.0617362
-0.242504
-0.22974
0.0677117
0.00234076
-0.414071
0.00853157
-0.363555
0.0166768
-0.339164
0.0253891
-0.321938
0.0339071
-0.306908
0.0418913
-0.29215
0.0492569
-0.277343
0.0560563
-0.262789
0.0623892
-0.248836
-0.235681
0.0683312
0.0026231
-0.416694
0.00912209
-0.370054
0.0174411
-0.347483
0.0261839
-0.330681
0.034626
-0.315351
0.0424735
-0.299997
0.0496842
-0.284554
0.0563435
-0.269448
0.0625788
-0.255072
-0.241603
0.0685006
0.00289698
-0.419591
0.00964184
-0.376799
0.018048
-0.35589
0.0267342
-0.339367
0.0350229
-0.323639
0.0426696
-0.307644
0.0496734
-0.291558
0.0561495
-0.275924
0.0622492
-0.261172
-0.247468
0.068114
0.00317372
0.0100761
0.0184767
0.0270211
0.0350822
0.042466
0.0492112
0.0554595
0.0613827
0.0671541
0.0603515
-1.11811
1.12323
0.0600119
-0.924027
0.924367
0.0595155
-0.798197
0.798694
0.0602408
-0.684667
0.683942
0.0602147
-0.574281
0.574307
0.0594558
-0.473917
0.474676
0.058474
-0.383133
0.384115
0.0574591
-0.302411
0.303426
0.0565346
-0.230847
0.231771
0.0557881
-0.167688
0.168434
0.0551675
-0.109994
0.110614
0.0544929
-0.0581801
0.0588547
0.0536272
-0.00456432
0.00543
0.0530154
0.0375772
-0.0369654
0.053451
0.066782
-0.0672176
0.0537514
0.0341281
-0.0344285
0.0534111
-0.00119999
0.00154023
0.0498832
-0.0763291
0.0798571
0.0428977
-0.0846604
0.0916459
0.0713631
-0.0673831
0.0538344
-1.10866
0.052104
-0.922297
0.0517653
-0.797859
0.0530161
-0.685918
0.0539242
-0.575189
0.0540904
-0.474084
0.0539448
-0.382988
0.0536585
-0.302125
0.0533475
-0.230536
0.0531107
-0.167451
0.0529136
-0.109797
0.0526045
-0.057871
0.0520718
-0.00403157
0.0517263
0.0379227
0.0522437
0.0662647
0.052405
0.0339668
0.051861
-0.000655791
0.0481831
-0.0726513
0.0414422
-0.0779192
0.0750273
0.0471576
-1.09525
0.0439093
-0.919049
0.0436983
-0.797648
0.045534
-0.687754
0.0473998
-0.577055
0.048525
-0.475209
0.0492352
-0.383698
0.0496921
-0.302581
0.0500057
-0.230849
0.0502881
-0.167733
0.0505257
-0.110034
0.0505998
-0.0579451
0.050418
-0.00384979
0.050346
0.0379947
0.0509461
0.0656646
0.0509919
0.033921
0.0502921
4.40448e-05
0.0465301
-0.0688894
0.040089
-0.0714781
0.078349
0.0403698
-1.07832
0.0357862
-0.914465
0.0355822
-0.797444
0.0379142
-0.690086
0.040692
-0.579832
0.0427877
-0.477305
0.0443701
-0.38528
0.0455844
-0.303796
0.0465341
-0.231799
0.0473437
-0.168543
0.0480246
-0.110715
0.0484956
-0.0584161
0.048678
-0.00403225
0.0488842
0.0377886
0.0495696
0.0649792
0.0495256
0.0339649
0.0487167
0.000853022
0.0449315
-0.0651043
0.0388375
-0.0653841
0.081306
0.0340093
-1.05886
0.028311
-0.908767
0.0276552
-0.796788
0.0302121
-0.692643
0.0338185
-0.583439
0.0368963
-0.480382
0.0393713
-0.387755
0.0413586
-0.305783
0.0429554
-0.233396
0.0442995
-0.169887
0.0454299
-0.111845
0.0463073
-0.0592935
0.0468632
-0.00458809
0.0473506
0.0373011
0.0481257
0.0642041
0.0480191
0.0340716
0.0471457
0.00172642
0.0433935
-0.0613521
0.0376863
-0.0596769
0.0838803
0.0281016
-1.0379
0.0206631
-0.901328
0.0191361
-0.795261
0.0219907
-0.695497
0.0266115
-0.58806
0.0308088
-0.48458
0.0342408
-0.391187
0.0370297
-0.308572
0.0392886
-0.235655
0.0411748
-0.171773
0.0427595
-0.11343
0.0440494
-0.0605835
0.0449841
-0.00552283
0.0457547
0.0365306
0.0466259
0.0633329
0.0464843
0.0342131
0.0455887
0.0026221
0.0419202
-0.0576836
0.0366324
-0.0543891
0.0860572
0.019073
-1.01285
0.00911052
-0.891366
0.007968
-0.794118
0.0123221
-0.699851
0.0187067
-0.594444
0.0243954
-0.490268
0.0289391
-0.395731
0.0325926
-0.312225
0.0355422
-0.238604
0.0379832
-0.174214
0.0400273
-0.115474
0.0417335
-0.0622897
0.0430501
-0.00683938
0.0441053
0.0354755
0.0450809
0.0623572
0.0449325
0.0343615
0.0440537
0.00350094
0.0405145
-0.0541444
0.0356721
-0.0495467
0.087825
0.00273982
-0.977289
-0.00710228
-0.881523
-0.00548106
-0.79574
0.00154064
-0.706873
0.0102148
-0.603119
0.0176529
-0.497706
0.0234488
-0.401527
0.0280407
-0.316817
0.0317192
-0.242283
0.0347326
-0.177228
0.0372431
-0.117985
0.0393681
-0.0644147
0.0410678
-0.00853911
0.0424098
0.0341335
0.0435006
0.0612664
0.0433734
0.0344886
0.0425474
0.004327
0.0391779
-0.050775
0.0348009
-0.0451697
0.0891748
-0.00568901
-0.939954
-0.0140688
-0.873144
-0.0132158
-0.796593
-0.00640401
-0.713685
0.00278605
-0.612309
0.0112088
-0.506129
0.0180198
-0.408338
0.0234833
-0.322281
0.0278742
-0.246674
0.0314568
-0.18081
0.0344306
-0.120958
0.0369702
-0.0669543
0.0390494
-0.0106183
0.0406782
0.0325047
0.0418947
0.0600499
0.0418154
0.034568
0.0410746
0.00506787
0.0379104
-0.0476108
0.0340135
-0.0412728
0.0900997
0.0306106
-0.945273
0.00509835
-0.847631
-0.00625673
-0.785237
-0.00731932
-0.712622
-0.00186264
-0.617765
0.0058382
-0.51383
0.0130452
-0.415545
0.0191231
-0.328359
0.0241203
-0.251671
0.0282263
-0.184916
0.0316425
-0.124375
0.0345771
-0.0698889
0.0370224
-0.0130636
0.0389233
0.0306038
0.0402689
0.0587043
0.0402607
0.0345761
0.0396292
0.00569933
0.0367172
-0.0446987
0.0333137
-0.0378694
0.0906057
0.393525
-0.79794
-0.540858
0.326519
-0.780625
0.263131
-0.721849
0.202442
-0.651934
0.158413
-0.573736
0.129353
-0.48477
0.108981
-0.395172
0.0945427
-0.313921
0.0847493
-0.241877
0.0782402
-0.178407
0.074188
-0.120322
0.0717704
-0.0674714
0.0709635
-0.0122567
0.0715078
0.0300594
0.0736117
0.0566005
0.0741656
0.0340222
0.0731143
0.00675061
0.0671233
-0.0387077
0.0595453
-0.0302913
0.091814
0.456112
-0.652082
-0.601969
0.359521
-0.684035
0.289321
-0.651649
0.230401
-0.593014
0.18386
-0.527195
0.150641
-0.451551
0.126791
-0.371323
0.109354
-0.296483
0.0971684
-0.229692
0.0889195
-0.170158
0.0837134
-0.115116
0.0805994
-0.0643573
0.0796811
-0.0113384
0.0803988
0.0293418
0.0829089
0.0540903
0.0835244
0.0334067
0.0822843
0.00799071
0.0757707
-0.0321941
0.0680429
-0.0225636
0.0922227
0.541717
-0.521573
-0.672227
0.436623
-0.578941
0.354211
-0.569237
0.281808
-0.520612
0.221703
-0.467089
0.178094
-0.407943
0.14776
-0.340989
0.126032
-0.274755
0.110788
-0.214448
0.100454
-0.159824
0.0939124
-0.108575
0.0900436
-0.0604885
0.0890369
-0.0103317
0.090042
0.0283367
0.0930684
0.0510639
0.0938311
0.0326441
0.0924813
0.0093405
0.0855816
-0.0252944
0.0779983
-0.0149802
0.0913726
0.592264
-0.396667
-0.71717
0.474031
-0.460707
0.381575
-0.476781
0.311042
-0.450079
0.252466
-0.408513
0.205278
-0.360755
0.170115
-0.305826
0.144358
-0.248998
0.125809
-0.195899
0.113005
-0.14702
0.104839
-0.100409
0.100101
-0.0557502
0.0990253
-0.00925613
0.100461
0.0269006
0.10415
0.0473752
0.105217
0.0315771
0.10389
0.0106671
0.096902
-0.0183059
0.0898167
-0.00789495
0.0887002
0.640371
-0.293291
-0.743746
0.53364
-0.353976
0.441595
-0.384737
0.364949
-0.373433
0.296639
-0.340203
0.238846
-0.302961
0.195532
-0.262511
0.164662
-0.218128
0.14244
-0.173678
0.126774
-0.131354
0.116622
-0.090258
0.110848
-0.0499757
0.109695
-0.00810299
0.111737
0.0248588
0.116257
0.0428548
0.11788
0.0299537
0.1168
0.011747
0.110149
-0.0116547
0.103971
-0.00171697
0.0835319
0.666971
-0.207425
-0.752838
0.567454
-0.254459
0.470679
-0.287962
0.38826
-0.291014
0.320536
-0.272479
0.264587
-0.247012
0.220182
-0.218106
0.186364
-0.18431
0.160784
-0.148098
0.142006
-0.112575
0.129502
-0.0777545
0.122489
-0.0429631
0.121214
-0.00682796
0.124041
0.0220325
0.12959
0.0373058
0.132129
0.0274141
0.131631
0.0122453
0.125841
-0.00586433
0.121038
0.0030858
0.0751602
0.674837
-0.138753
-0.743509
0.592852
-0.172474
0.507257
-0.202366
0.429306
-0.213063
0.362223
-0.205396
0.303435
-0.188225
0.252985
-0.167656
0.212544
-0.143869
0.181717
-0.117271
0.159074
-0.0899317
0.143837
-0.0625184
0.135403
-0.0345291
0.13396
-0.00538433
0.137735
0.0182577
0.144541
0.0304991
0.148435
0.0235205
0.148963
0.0117173
0.144583
-0.00148406
0.141685
0.00598384
0.0629703
0.67735
-0.0850514
-0.731052
0.611078
-0.106201
0.535997
-0.127286
0.461161
-0.138228
0.393108
-0.137342
0.333054
-0.12817
0.280851
-0.115453
0.23751
-0.100529
0.203385
-0.0831456
0.177711
-0.0642573
0.16001
-0.0448182
0.150197
-0.0247159
0.148611
-0.00379849
0.153485
0.0133846
0.16181
0.022174
0.167499
0.0178316
0.169553
0.0096634
0.167047
0.00102135
0.166581
0.00644958
0.0465534
0.690641
-0.0410401
-0.734653
0.635608
-0.0511676
0.570446
-0.0621243
0.501137
-0.0689183
0.433862
-0.0700673
0.372088
-0.0663968
0.316857
-0.0602219
0.269183
-0.0528548
0.230229
-0.0441913
0.200377
-0.0344054
0.179629
-0.0240705
0.168181
-0.0132671
0.166397
-0.00201439
0.172455
0.00732595
0.182555
0.0120745
0.190367
0.0100197
0.194337
0.00569258
0.193911
0.00144779
0.196188
0.00417238
0.0257182
0.739056
-0.780096
0.687888
0.625764
0.556845
0.486778
0.420381
0.360159
0.307305
0.263113
0.228708
0.204638
0.19137
0.189356
0.196682
0.208757
0.218776
0.224469
0.225917
0.230089
0.627176
0.000350933
-0.621099
0.631223
0.00606061
0.632841
0.0120815
0.631967
0.0173824
0.627952
0.0238349
0.620997
0.0280885
0.609085
0.0362177
0.592959
0.0373157
0.56617
0.0499533
0.0325417
0.652657
-0.00306301
-0.649243
0.654706
0.00401161
0.655232
0.0115551
0.653801
0.0188134
0.650531
0.0271054
0.644552
0.0340675
0.637366
0.0434033
0.627347
0.0473346
0.620603
0.0566974
0.0511758
0.67438
-0.00424447
-0.673198
0.675141
0.00324997
0.675636
0.0110601
0.675744
0.0187051
0.676154
0.0266959
0.676528
0.0336936
0.678245
0.041686
0.678604
0.0469758
0.679118
0.0561833
0.0580671
0.691859
-0.00459162
-0.691512
0.692801
0.00230848
0.694549
0.00931165
0.697024
0.0162306
0.700418
0.0233013
0.703982
0.0301296
0.707983
0.0376848
0.710738
0.044221
0.714556
0.0523653
0.0554534
0.700667
-0.00440057
-0.700858
0.701457
0.00151784
0.70325
0.0075194
0.705913
0.0135672
0.70951
0.0197042
0.713894
0.0257454
0.719704
0.0318748
0.726537
0.0373881
0.735476
0.043427
0.0471827
0.69761
-0.00376784
-0.698242
0.698196
0.000931124
0.70007
0.00564549
0.703299
0.010338
0.708022
0.0149818
0.714245
0.0195221
0.722103
0.0240167
0.731176
0.0283154
0.741811
0.0327923
0.0361555
0.688582
-0.00307542
-0.689274
0.689207
0.000305759
0.691181
0.00367177
0.69452
0.00699882
0.699235
0.0102671
0.705302
0.0134547
0.712768
0.0165509
0.721582
0.0195013
0.732003
0.022372
0.0246494
0.683477
-0.00223107
-0.684322
0.683841
-5.75598e-05
0.685422
0.0020906
0.68823
0.00419077
0.692275
0.00622149
0.697568
0.00816252
0.704122
0.00999661
0.711918
0.0117054
0.720997
0.013293
0.0145942
0.696471
-0.0012183
-0.697484
0.696554
-0.000140654
0.69773
0.00091498
0.699987
0.00193378
0.703306
0.00290183
0.707662
0.0038063
0.713023
0.00463575
0.719349
0.00537999
0.72661
0.00603202
0.00655125
0.74808
-0.749299
0.74794
0.748855
0.750789
0.75369
0.757497
0.762132
0.767512
0.773544
0.513569
0.00833868
-0.564619
0.538484
-0.0643731
0.554989
-0.0498206
0.563958
-0.0356578
0.573785
-0.0310217
0.584655
-0.0269765
0.595085
-0.0216684
0.604695
-0.0162167
0.613442
-0.010876
-0.00547458
0.58619
0.000522039
-0.578373
0.594522
-0.072705
0.606426
-0.0617248
0.613784
-0.0430158
0.619302
-0.0365396
0.625962
-0.0336365
0.632996
-0.0287031
0.639335
-0.0225551
0.644763
-0.0163045
-0.00995416
0.644886
-0.00957762
-0.634786
0.647717
-0.0755364
0.6524
-0.0664073
0.65761
-0.0482262
0.660753
-0.0396823
0.663426
-0.0363094
0.666498
-0.0317758
0.669371
-0.0254276
0.671598
-0.0185319
-0.0115541
0.700852
-0.0192875
-0.691142
0.696442
-0.0711265
0.693676
-0.0636417
0.694183
-0.0487333
0.694259
-0.0397584
0.693293
-0.0353436
0.692385
-0.0308678
0.691884
-0.0249259
0.6916
-0.0182485
-0.0114659
0.743965
-0.0273985
-0.735854
0.732584
-0.0597458
0.723267
-0.054324
0.718463
-0.0439295
0.714942
-0.0362372
0.711001
-0.0314034
0.707145
-0.0270114
0.704092
-0.0218732
0.702012
-0.0161684
-0.0103115
0.761062
-0.0304411
-0.75802
0.746376
-0.0450598
0.733589
-0.0415366
0.724995
-0.0353355
0.718621
-0.0298635
0.712822
-0.0256036
0.707511
-0.0217007
0.703181
-0.0175432
0.700091
-0.0130787
-0.00846264
0.755125
-0.0261696
-0.759396
0.741178
-0.0311136
0.72858
-0.0289387
0.718836
-0.0255914
0.711185
-0.0222125
0.70469
-0.0191077
0.699094
-0.0161053
0.694566
-0.0130149
0.691274
-0.00978722
-0.00646263
0.744944
-0.018055
-0.753059
0.733291
-0.0194607
0.72256
-0.0182069
0.713446
-0.0164781
0.705817
-0.0145836
0.699363
-0.012653
0.693945
-0.0106879
0.689591
-0.00866071
0.686368
-0.00656451
-0.00441583
0.753197
-0.0091554
-0.762096
0.743254
-0.00951799
0.733999
-0.00895224
0.725722
-0.00820101
0.71848
-0.00734095
0.712244
-0.0064178
0.707003
-0.00544662
0.702775
-0.00443238
0.699592
-0.00338204
-0.00230735
0.805297
-0.814453
0.795779
0.786827
0.778626
0.771285
0.764867
0.759421
0.754988
0.751606
0.128915
0.0311338
-0.0329276
0.134522
0.0955075
-0.101114
0.144643
0.162602
-0.172723
0.159904
0.236414
-0.251676
0.181933
0.317015
-0.339043
0.210684
0.408374
-0.437126
0.250139
0.503632
-0.543087
0.296091
0.60906
-0.655012
0.39325
0.681852
-0.77901
0.772013
-0.943382
0.15067
0.0288295
0.157528
0.0886492
0.169956
0.150174
0.188113
0.218257
0.215542
0.289586
0.249585
0.374331
0.303149
0.450068
0.35501
0.557198
0.472332
0.56453
0.665971
0.175938
0.0260123
0.184079
0.080508
0.199293
0.134961
0.220362
0.197188
0.254617
0.255331
0.293037
0.335912
0.363473
0.379631
0.424671
0.496001
0.538677
0.450525
0.569861
0.205302
0.0227343
0.214556
0.0712543
0.232728
0.116788
0.256075
0.173841
0.29754
0.213866
0.338573
0.294879
0.419743
0.298461
0.490261
0.425482
0.595272
0.345514
0.473992
0.23938
0.0190801
0.249581
0.0610537
0.27032
0.0960492
0.295457
0.148704
0.341465
0.167858
0.385924
0.250419
0.463345
0.221041
0.545925
0.342902
0.63172
0.259719
0.369857
0.278772
0.015111
0.289908
0.0499175
0.311745
0.0742124
0.339375
0.121074
0.383206
0.124027
0.435258
0.198367
0.495698
0.160601
0.587126
0.251474
0.655151
0.191695
0.266988
0.324178
0.0109579
0.336401
0.0376951
0.357053
0.0535598
0.388185
0.0899416
0.424125
0.0880873
0.482459
0.140033
0.527221
0.115838
0.613281
0.165414
0.67179
0.133185
0.179382
0.376822
0.00700354
0.389772
0.0247453
0.408184
0.035148
0.440492
0.0576336
0.470105
0.058474
0.524982
0.0851569
0.563801
0.0770189
0.632784
0.0964317
0.683556
0.0824137
0.109879
0.438544
0.00345311
0.451144
0.0121454
0.468415
0.0178771
0.498199
0.0278499
0.526533
0.0301399
0.571884
0.0398061
0.609985
0.0389178
0.662129
0.0442874
0.705341
0.0392012
0.0531239
0.511104
0.523249
0.541127
0.568976
0.599116
0.638922
0.67784
0.722128
0.761329
0.071956
0.0328333
-0.0340265
0.0738844
0.100292
-0.10222
0.0764362
0.170873