/*--------------------------------*- C++ -*----------------------------------*\
  =========                 |
  \\      /  F ield         | OpenFOAM: The Open Source CFD Toolbox
   \\    /   O peration     | Website:  https://openfoam.org
    \\  /    A nd           | Version:  6.0
     \\/     M anipulation  |
\*---------------------------------------------------------------------------*/
FoamFile
{
    version     2.0;
    format      ascii;
    class       volScalarField;
    location    "16";
    object      p;
}
// * * * * * * * * * * * * * * * * * * * * * * * * * * * * * * * * * * * * * //

dimensions      [0 2 -2 0 0 0 0];

internalField   nonuniform List<scalar> 
9600
(
-0.398286
-0.390945
-0.385884
-0.381856
-0.378158
-0.374709
-0.371434
-0.368262
-0.365154
-0.362089
-0.35906
-0.356066
-0.35311
-0.350196
-0.347333
-0.344529
-0.341786
-0.339058
-0.33634
-0.334166
-0.403798
-0.396301
-0.391133
-0.386971
-0.3831
-0.379444
-0.375937
-0.372516
-0.369147
-0.365817
-0.362522
-0.359266
-0.356055
-0.352897
-0.349803
-0.346784
-0.343845
-0.340923
-0.338004
-0.335787
-0.410378
-0.402606
-0.397237
-0.392872
-0.388766
-0.384848
-0.381058
-0.377339
-0.373664
-0.370026
-0.366424
-0.362868
-0.359366
-0.35593
-0.352573
-0.349313
-0.346153
-0.343014
-0.339865
-0.33763
-0.417933
-0.409854
-0.404229
-0.399599
-0.395197
-0.390959
-0.386832
-0.382765
-0.378738
-0.374745
-0.370794
-0.366896
-0.363064
-0.359314
-0.35566
-0.352127
-0.348721
-0.345339
-0.341929
-0.3397
-0.426527
-0.418082
-0.412138
-0.40718
-0.402421
-0.397806
-0.393288
-0.388822
-0.384391
-0.379998
-0.375652
-0.371369
-0.367167
-0.363062
-0.359076
-0.355237
-0.351556
-0.347899
-0.344195
-0.341997
-0.436213
-0.427326
-0.420996
-0.415646
-0.41047
-0.405418
-0.400453
-0.395534
-0.390651
-0.385809
-0.381022
-0.376309
-0.371692
-0.367191
-0.362831
-0.358649
-0.35466
-0.350696
-0.346661
-0.344517
-0.44703
-0.437621
-0.430835
-0.425029
-0.419371
-0.413823
-0.408354
-0.402928
-0.397541
-0.3922
-0.386924
-0.381735
-0.376657
-0.371715
-0.366939
-0.362373
-0.358038
-0.353729
-0.349319
-0.347253
-0.459019
-0.449002
-0.441687
-0.435358
-0.429152
-0.423046
-0.417015
-0.411029
-0.405085
-0.399196
-0.393383
-0.387669
-0.382083
-0.376653
-0.371413
-0.366418
-0.361694
-0.356995
-0.352165
-0.350193
-0.472216
-0.461501
-0.453581
-0.446658
-0.43984
-0.433113
-0.426462
-0.419861
-0.41331
-0.406824
-0.400425
-0.394139
-0.387997
-0.382029
-0.376274
-0.370798
-0.365636
-0.360497
-0.355189
-0.353324
-0.486656
-0.475147
-0.466544
-0.458956
-0.451458
-0.444049
-0.436721
-0.429452
-0.422244
-0.415113
-0.408081
-0.401176
-0.394428
-0.387871
-0.381547
-0.375535
-0.369878
-0.364236
-0.358383
-0.35663
-0.50237
-0.489968
-0.480599
-0.472275
-0.464028
-0.455875
-0.447815
-0.439828
-0.431916
-0.424095
-0.416387
-0.408817
-0.401415
-0.394216
-0.387266
-0.380655
-0.374438
-0.36822
-0.36174
-0.360087
-0.519386
-0.505986
-0.495767
-0.486633
-0.477572
-0.468615
-0.45977
-0.451016
-0.442357
-0.433805
-0.42538
-0.417104
-0.409003
-0.40111
-0.393474
-0.386196
-0.37934
-0.372456
-0.365245
-0.363661
-0.537726
-0.523217
-0.512062
-0.502045
-0.492105
-0.482288
-0.472607
-0.463044
-0.4536
-0.444282
-0.435106
-0.426087
-0.417246
-0.40861
-0.400225
-0.392202
-0.384616
-0.376955
-0.368879
-0.367295
-0.557402
-0.54167
-0.529492
-0.518521
-0.507639
-0.496908
-0.486348
-0.475939
-0.465677
-0.455566
-0.445612
-0.435822
-0.426206
-0.416781
-0.407586
-0.398737
-0.390312
-0.381732
-0.37261
-0.370903
-0.578415
-0.561342
-0.548055
-0.536062
-0.52418
-0.512487
-0.501009
-0.489723
-0.47862
-0.467697
-0.456949
-0.44637
-0.435957
-0.425709
-0.415647
-0.405881
-0.396487
-0.386803
-0.376381
-0.374332
-0.600752
-0.58222
-0.567739
-0.554659
-0.541724
-0.529028
-0.516601
-0.504415
-0.492458
-0.480715
-0.469171
-0.457805
-0.44659
-0.435501
-0.424529
-0.413762
-0.40325
-0.392219
-0.380126
-0.377358
-0.624389
-0.604271
-0.588516
-0.574292
-0.560259
-0.546525
-0.533126
-0.520029
-0.507213
-0.494659
-0.482336
-0.470205
-0.458217
-0.446309
-0.434428
-0.422615
-0.41087
-0.398246
-0.383991
-0.379853
-0.649307
-0.627453
-0.610343
-0.594926
-0.579758
-0.564961
-0.550575
-0.536563
-0.5229
-0.509558
-0.496495
-0.483656
-0.470963
-0.458312
-0.445588
-0.432756
-0.41973
-0.405272
-0.388033
-0.381108
-0.675487
-0.651698
-0.63315
-0.616505
-0.600178
-0.584303
-0.568925
-0.554005
-0.539516
-0.525427
-0.511692
-0.498241
-0.484974
-0.471736
-0.458317
-0.444537
-0.430054
-0.412894
-0.390148
-0.376552
-0.702552
-0.676819
-0.65684
-0.638957
-0.621461
-0.604501
-0.588131
-0.572314
-0.557029
-0.542251
-0.527944
-0.514054
-0.500493
-0.487114
-0.473687
-0.459913
-0.445061
-0.426142
-0.398179
-0.375208
-1.17626
-1.17079
-1.16158
-1.14916
-1.13378
-1.11568
-1.09515
-1.07248
-1.04795
-1.02186
-0.994467
-0.96605
-0.936861
-0.907141
-0.877115
-0.846992
-0.816964
-0.787192
-0.757806
-0.729201
-1.12577
-1.12037
-1.1115
-1.09954
-1.08475
-1.0674
-1.04777
-1.02614
-1.00279
-0.977985
-0.951995
-0.925074
-0.897465
-0.869397
-0.841087
-0.812735
-0.784529
-0.75664
-0.729232
-0.702535
-1.08366
-1.07861
-1.07025
-1.0589
-1.04482
-1.02827
-1.00954
-0.988889
-0.966599
-0.942931
-0.918144
-0.892487
-0.866193
-0.839488
-0.812579
-0.785661
-0.758914
-0.732506
-0.706596
-0.681343
-1.04377
-1.03935
-1.03173
-1.02119
-1.00799
-0.992378
-0.974636
-0.955029
-0.933825
-0.911284
-0.88766
-0.863197
-0.838128
-0.81267
-0.787029
-0.761395
-0.735942
-0.710831
-0.686213
-0.662226
-1.00328
-0.999733
-0.993068
-0.983542
-0.971395
-0.956881
-0.940263
-0.921807
-0.901773
-0.880419
-0.857996
-0.834746
-0.810896
-0.786664
-0.762253
-0.737849
-0.713625
-0.689739
-0.666334
-0.643541
-0.962746
-0.960266
-0.954728
-0.946371
-0.935424
-0.922132
-0.906751
-0.889536
-0.870745
-0.850631
-0.82944
-0.807411
-0.784772
-0.761737
-0.738507
-0.71527
-0.692199
-0.669451
-0.647167
-0.625479
-0.922552
-0.921257
-0.916962
-0.909887
-0.900247
-0.888276
-0.874217
-0.85832
-0.840832
-0.822002
-0.802071
-0.781275
-0.759837
-0.737971
-0.715879
-0.693747
-0.67175
-0.650049
-0.62879
-0.608106
-0.882906
-0.882858
-0.87987
-0.874143
-0.865878
-0.855294
-0.842622
-0.828099
-0.811965
-0.79446
-0.775817
-0.756267
-0.736029
-0.715315
-0.694323
-0.673242
-0.65225
-0.631511
-0.611177
-0.591394
-0.844039
-0.845244
-0.84358
-0.839225
-0.832365
-0.823203
-0.811955
-0.798845
-0.784102
-0.767953
-0.750625
-0.732338
-0.713306
-0.693734
-0.673817
-0.653743
-0.63369
-0.613829
-0.594323
-0.575329
-0.806167
-0.808593
-0.808228
-0.805232
-0.799773
-0.792037
-0.782226
-0.770547
-0.757216
-0.742447
-0.726456
-0.709451
-0.691637
-0.673207
-0.654351
-0.635249
-0.616079
-0.597016
-0.578231
-0.559904
-0.769476
-0.773055
-0.773934
-0.772252
-0.768161
-0.76183
-0.753444
-0.743195
-0.731282
-0.717908
-0.703271
-0.687569
-0.670989
-0.653714
-0.635917
-0.617767
-0.599434
-0.58109
-0.562917
-0.545113
-0.734112
-0.738756
-0.740798
-0.740362
-0.737581
-0.73261
-0.725616
-0.716777
-0.706276
-0.694299
-0.68103
-0.66665
-0.65133
-0.635231
-0.618508
-0.601309
-0.583782
-0.566087
-0.548407
-0.530954
-0.70018
-0.705786
-0.708897
-0.709619
-0.708074
-0.7044
-0.698748
-0.691282
-0.68217
-0.671583
-0.659689
-0.646651
-0.63262
-0.617736
-0.602122
-0.585896
-0.569168
-0.552064
-0.534754
-0.517436
-0.667753
-0.67421
-0.678285
-0.680068
-0.67967
-0.677214
-0.67284
-0.666696
-0.658937
-0.649721
-0.639202
-0.627525
-0.61482
-0.6012
-0.586756
-0.571558
-0.555659
-0.539118
-0.522055
-0.504596
-0.636868
-0.644066
-0.648994
-0.651735
-0.652385
-0.651059
-0.647885
-0.642999
-0.636547
-0.628673
-0.619519
-0.609216
-0.597877
-0.585588
-0.572402
-0.558332
-0.543347
-0.527393
-0.510484
-0.492537
-0.607538
-0.615364
-0.621034
-0.624622
-0.626216
-0.625922
-0.623858
-0.620153
-0.614943
-0.608366
-0.600555
-0.591632
-0.581695
-0.57081
-0.558995
-0.546202
-0.532294
-0.517044
-0.500289
-0.481498
-0.579757
-0.588104
-0.594407
-0.59873
-0.601158
-0.601789
-0.600733
-0.598116
-0.594068
-0.588722
-0.582209
-0.574646
-0.566129
-0.556712
-0.546389
-0.535061
-0.522475
-0.508169
-0.491718
-0.471744
-0.553496
-0.562298
-0.569159
-0.574142
-0.577324
-0.578799
-0.578675
-0.577073
-0.574122
-0.569955
-0.564706
-0.558495
-0.551423
-0.543551
-0.53487
-0.525258
-0.514365
-0.501444
-0.485609
-0.463527
-0.528674
-0.537907
-0.545303
-0.550922
-0.55484
-0.557148
-0.557955
-0.557382
-0.555561
-0.55263
-0.548731
-0.543997
-0.538543
-0.532453
-0.525749
-0.518346
-0.509901
-0.499471
-0.485507
-0.459976
-0.505184
-0.514472
-0.522041
-0.527947
-0.532265
-0.535088
-0.536525
-0.536703
-0.53576
-0.533848
-0.531125
-0.527749
-0.523876
-0.519644
-0.515163
-0.510505
-0.505567
-0.499753
-0.492562
-0.472288
-0.416338
-0.486963
-0.55531
-0.621565
-0.685322
-0.746197
-0.803869
-0.858044
-0.908461
-0.954889
-0.997137
-1.03505
-1.06851
-1.09745
-1.12182
-1.14163
-1.15692
-1.16776
-1.17424
-1.17672
-0.401448
-0.469414
-0.535293
-0.599006
-0.660204
-0.718553
-0.773757
-0.825546
-0.873675
-0.917932
-0.958137
-0.994151
-1.02587
-1.05323
-1.0762
-1.0948
-1.10909
-1.11914
-1.12507
-1.12712
-0.379361
-0.445266
-0.509271
-0.57116
-0.630603
-0.687284
-0.740918
-0.791242
-0.838019
-0.881041
-0.920135
-0.955164
-0.986029
-1.01267
-1.03505
-1.0532
-1.06717
-1.07705
-1.08293
-1.08502
-0.351328
-0.415352
-0.477652
-0.537958
-0.595946
-0.651306
-0.703757
-0.753037
-0.798911
-0.841171
-0.879645
-0.914193
-0.944712
-0.971136
-0.993436
-1.01162
-1.02574
-1.03587
-1.04212
-1.04464
-0.319504
-0.381583
-0.442119
-0.500819
-0.557362
-0.611445
-0.662788
-0.71113
-0.756238
-0.797901
-0.835944
-0.870223
-0.900629
-0.927088
-0.949564
-0.968056
-0.9826
-0.993264
-1.00014
-1.00338
-0.285988
-0.346055
-0.404758
-0.461796
-0.516859
-0.569649
-0.619889
-0.667321
-0.711709
-0.752843
-0.790544
-0.824661
-0.855079
-0.881715
-0.904522
-0.923489
-0.938638
-0.950025
-0.957731
-0.961882
-0.252383
-0.310377
-0.36718
-0.422496
-0.476022
-0.527472
-0.576572
-0.623065
-0.666718
-0.707319
-0.744685
-0.778662
-0.809128
-0.835992
-0.859195
-0.878714
-0.894557
-0.906767
-0.915409
-0.920591
-0.219817
-0.275693
-0.330542
-0.384076
-0.436008
-0.486057
-0.533955
-0.57945
-0.62231
-0.662324
-0.699308
-0.733105
-0.763587
-0.790654
-0.814242
-0.834312
-0.850862
-0.863917
-0.873531
-0.879792
-0.189019
-0.242759
-0.295623
-0.347338
-0.397628
-0.446222
-0.492858
-0.537288
-0.579282
-0.618634
-0.655158
-0.688698
-0.719121
-0.746324
-0.770232
-0.7908
-0.808012
-0.821879
-0.832442
-0.83977
-0.160409
-0.212017
-0.262893
-0.312777
-0.361402
-0.408507
-0.453832
-0.497137
-0.538196
-0.576805
-0.612783
-0.645974
-0.676245
-0.703489
-0.727626
-0.748604
-0.766395
-0.781001
-0.792446
-0.800787
-0.134173
-0.183678
-0.232587
-0.280653
-0.327616
-0.373218
-0.417205
-0.45934
-0.499403
-0.537198
-0.572547
-0.605297
-0.635317
-0.662499
-0.68676
-0.708042
-0.72631
-0.741555
-0.753791
-0.763058
-0.11034
-0.15778
-0.204769
-0.251056
-0.296381
-0.340488
-0.383128
-0.424066
-0.463092
-0.500014
-0.534662
-0.566888
-0.596563
-0.623582
-0.647861
-0.669336
-0.687969
-0.703742
-0.71666
-0.726751
-0.0888262
-0.13425
-0.179383
-0.22395
-0.267684
-0.310325
-0.351627
-0.391361
-0.429323
-0.46533
-0.49922
-0.530851
-0.5601
-0.586864
-0.611059
-0.632622
-0.651508
-0.667695
-0.681182
-0.691984
-0.0694851
-0.112935
-0.156296
-0.199221
-0.241425
-0.282647
-0.322637
-0.361173
-0.398061
-0.433127
-0.466218
-0.4972
-0.525956
-0.552387
-0.57641
-0.597963
-0.616999
-0.633491
-0.647433
-0.658833
-0.0521258
-0.0936443
-0.135337
-0.176714
-0.217467
-0.257326
-0.296043
-0.333402
-0.369219
-0.403333
-0.4356
-0.465893
-0.494104
-0.520136
-0.543913
-0.565369
-0.584461
-0.601157
-0.615447
-0.627335
-0.0365259
-0.0762089
-0.116382
-0.156317
-0.1957
-0.234261
-0.271747
-0.307954
-0.342711
-0.37587
-0.407295
-0.436871
-0.464495
-0.490076
-0.51354
-0.534826
-0.553887
-0.570694
-0.585232
-0.597501
-0.022393
-0.0603825
-0.0992378
-0.137847
-0.175942
-0.213268
-0.24957
-0.284658
-0.318375
-0.350585
-0.381167
-0.410011
-0.43702
-0.462112
-0.485215
-0.506269
-0.52523
-0.542067
-0.556763
-0.569318
-0.00910943
-0.0451705
-0.0829212
-0.120373
-0.15732
-0.193524
-0.228739
-0.262791
-0.295543
-0.326869
-0.35666
-0.384814
-0.411241
-0.435863
-0.458611
-0.479429
-0.498272
-0.51511
-0.529925
-0.542713
0.00437131
-0.0292804
-0.0662714
-0.102916
-0.139009
-0.17432
-0.208628
-0.241797
-0.273714
-0.30427
-0.333365
-0.360908
-0.386817
-0.411018
-0.433448
-0.454052
-0.47279
-0.48963
-0.504557
-0.517566
0.0151054
-0.019179
-0.0563381
-0.0923158
-0.127555
-0.161877
-0.195087
-0.227123
-0.257914
-0.287374
-0.31542
-0.341977
-0.366974
-0.390349
-0.412048
-0.432023
-0.45024
-0.466672
-0.481305
-0.494138
0.535641
0.546166
0.557062
0.568231
0.579652
0.591297
0.603118
0.615051
0.627019
0.638934
0.650702
0.662231
0.673454
0.684358
0.695042
0.705796
0.717064
0.729514
0.746455
0.773478
0.52428
0.534208
0.54468
0.555376
0.566262
0.577326
0.588515
0.599759
0.610973
0.622061
0.632921
0.643456
0.653591
0.663314
0.672731
0.682156
0.692075
0.703237
0.719081
0.745413
0.511007
0.520191
0.53015
0.540277
0.550519
0.560882
0.571315
0.581736
0.592054
0.602164
0.611957
0.621329
0.630204
0.63857
0.646549
0.65448
0.662903
0.672651
0.687293
0.7128
0.49585
0.504149
0.513508
0.522972
0.532461
0.54201
0.551564
0.561032
0.570314
0.579298
0.587868
0.595915
0.603363
0.610206
0.616581
0.622859
0.629636
0.637837
0.651125
0.675563
0.478846
0.486125
0.494799
0.503509
0.512142
0.520764
0.52932
0.537708
0.545819
0.553534
0.560731
0.567297
0.573157
0.578315
0.582925
0.587397
0.592387
0.598911
0.610707
0.633876
0.460038
0.466171
0.474081
0.481946
0.489622
0.49721
0.504654
0.51184
0.51865
0.524959
0.530639
0.535576
0.539696
0.543014
0.545709
0.548232
0.551301
0.556027
0.566206
0.58793
0.439474
0.444344
0.451414
0.458351
0.464974
0.471425
0.477648
0.483517
0.488905
0.493679
0.497707
0.500873
0.503109
0.504445
0.505086
0.505526
0.506552
0.50937
0.517817
0.537934
0.417204
0.420707
0.426871
0.432798
0.438278
0.443497
0.448398
0.452842
0.456692
0.45981
0.462061
0.463327
0.463549
0.462771
0.461232
0.459469
0.458343
0.459154
0.465762
0.484122
0.393284
0.395328
0.400526
0.40537
0.409624
0.413523
0.417008
0.419928
0.422137
0.42349
0.423847
0.423097
0.421185
0.418178
0.414346
0.410276
0.406901
0.405619
0.410295
0.426754
0.367769
0.36828
0.372461
0.376156
0.379109
0.381609
0.383596
0.384903
0.385376
0.384865
0.383229
0.380357
0.376209
0.370871
0.36465
0.358184
0.35248
0.349033
0.351693
0.366117
0.340716
0.339636
0.342762
0.345251
0.34684
0.347873
0.348289
0.347907
0.346562
0.344103
0.340384
0.335302
0.328829
0.321075
0.312386
0.303453
0.295357
0.289687
0.290259
0.302524
0.312181
0.309477
0.311521
0.312759
0.31293
0.312442
0.311227
0.309091
0.305861
0.301381
0.295507
0.288142
0.279272
0.269036
0.257818
0.246364
0.23583
0.227894
0.226318
0.236309
0.282224
0.277885
0.278837
0.27879
0.277506
0.275454
0.272563
0.268622
0.263452
0.256895
0.248809
0.239103
0.227783
0.215016
0.201228
0.187218
0.174216
0.163987
0.160216
0.167828
0.250905
0.244948
0.244816
0.243469
0.240707
0.237064
0.232465
0.226682
0.219533
0.210856
0.200515
0.188429
0.174623
0.159295
0.142913
0.126333
0.110852
0.0983164
0.0923158
0.0974559
0.21829
0.210771
0.209583
0.206938
0.202691
0.197447
0.19112
0.183473
0.174316
0.163492
0.150868
0.136378
0.120067
0.102167
0.0831892
0.0640412
0.0460882
0.0312488
0.0229965
0.0255864
0.184447
0.175465
0.173282
0.169363
0.163645
0.156801
0.14874
0.139214
0.128034
0.115045
0.100126
0.0832224
0.0644058
0.0439404
0.0223818
0.000687939
-0.0197137
-0.0368395
-0.0473525
-0.0473758
0.149456
0.139168
0.136094
0.130953
0.123789
0.115357
0.105561
0.0941478
0.0809346
0.0657745
0.048557
0.0292467
0.00793911
-0.0150664
-0.039172
-0.0633719
-0.0861828
-0.105565
-0.118336
-0.121015
0.113479
0.102155
0.0983519
0.0920273
0.0834219
0.0733957
0.0618526
0.0485394
0.0332833
0.0159497
-0.00355829
-0.0252569
-0.0490243
-0.0745272
-0.101127
-0.127775
-0.15294
-0.174536
-0.189546
-0.194887
0.0759278
0.0644951
0.0604175
0.0529636
0.0428887
0.0312326
0.017905
0.00266289
-0.0146505
-0.0341566
-0.0559377
-0.0799912
-0.10617
-0.134106
-0.163126
-0.192144
-0.219588
-0.243341
-0.260557
-0.26853
0.0351073
0.0257001
0.0219864
0.0136989
0.00234574
-0.0108999
-0.0260381
-0.0432356
-0.0626153
-0.0842829
-0.108307
-0.134665
-0.163187
-0.193477
-0.224826
-0.256123
-0.285772
-0.311643
-0.331128
-0.341934
0.364534
0.366683
0.375339
0.381373
0.38553
0.389022
0.39212
0.394892
0.397445
0.399911
0.40245
0.405262
0.408601
0.412768
0.418087
0.424847
0.433186
0.442885
0.452912
0.460507
0.394554
0.394497
0.401187
0.406885
0.411462
0.415695
0.419713
0.423509
0.427141
0.430713
0.434363
0.438274
0.442686
0.447888
0.454206
0.46194
0.471257
0.481985
0.493407
0.503409
0.41919
0.419185
0.425363
0.431313
0.436533
0.441557
0.446474
0.451258
0.455938
0.460594
0.465342
0.470348
0.475833
0.482071
0.489382
0.498077
0.508344
0.52006
0.532826
0.545136
0.44077
0.441708
0.448129
0.45458
0.460507
0.466338
0.472147
0.477898
0.483604
0.489326
0.49516
0.501252
0.507804
0.515074
0.52337
0.53301
0.544199
0.556858
0.570874
0.585284
0.46048
0.462541
0.469435
0.476483
0.483154
0.489806
0.496504
0.503208
0.509921
0.516687
0.523586
0.530745
0.538345
0.546626
0.555884
0.566438
0.578505
0.592048
0.607222
0.623588
0.478444
0.481669
0.489131
0.496839
0.504282
0.511767
0.519348
0.526988
0.534684
0.542467
0.550402
0.558598
0.567215
0.576475
0.586658
0.598078
0.610967
0.62532
0.641561
0.659761
0.494726
0.499107
0.507171
0.515551
0.523767
0.532072
0.540517
0.549066
0.557711
0.566473
0.575404
0.584593
0.594184
0.604375
0.61543
0.627659
0.6413
0.656384
0.67359
0.693502
0.509344
0.514845
0.523506
0.532541
0.541505
0.550601
0.559873
0.569288
0.578835
0.588525
0.598396
0.608524
0.619029
0.630089
0.641952
0.654918
0.669231
0.684955
0.703021
0.724512
0.522287
0.528851
0.538085
0.547737
0.557404
0.567243
0.57729
0.587516
0.597903
0.608455
0.6192
0.630194
0.64154
0.653394
0.665983
0.6796
0.694494
0.71076
0.729571
0.752504
0.533526
0.54108
0.550848
0.561066
0.571378
0.581898
0.592656
0.603621
0.614775
0.626112
0.637647
0.649422
0.66152
0.674075
0.687297
0.701468
0.716839
0.733538
0.752975
0.777203
0.54303
0.551487
0.561738
0.572461
0.583347
0.594476
0.605866
0.617489
0.629322
0.641352
0.653582
0.666038
0.678785
0.691937
0.705682
0.720295
0.736029
0.753046
0.772982
0.798352
0.550764
0.560022
0.570696
0.581853
0.593235
0.604889
0.616824
0.629013
0.641427
0.654046
0.666862
0.679888
0.693168
0.706796
0.720943
0.735874
0.751846
0.769058
0.789361
0.815712
0.556689
0.566637
0.577666
0.589182
0.600974
0.613061
0.625445
0.638096
0.650982
0.664077
0.67736
0.69083
0.704513
0.718486
0.732901
0.748015
0.764092
0.781366
0.801899
0.829068
0.56077
0.571285
0.582597
0.594389
0.606498
0.618921
0.631648
0.644651
0.657893
0.67134
0.68496
0.698738
0.712686
0.72686
0.741398
0.756549
0.772587
0.789787
0.810409
0.838226
0.562975
0.573926
0.585442
0.597424
0.609753
0.622406
0.635367
0.648605
0.662078
0.675743
0.689562
0.703504
0.717565
0.731787
0.746292
0.761327
0.777177
0.794159
0.814725
0.843021
0.563275
0.574525
0.58616
0.598243
0.610689
0.623464
0.636544
0.649893
0.663465
0.677212
0.691082
0.705034
0.719051
0.733157
0.747466
0.762223
0.777727
0.794346
0.81471
0.843313
0.561646
0.573051
0.58472
0.596811
0.60927
0.622054
0.635132
0.648464
0.662
0.675683
0.689452
0.703255
0.71706
0.730882
0.744825
0.759134
0.774131
0.790235
0.810251
0.838991
0.558074
0.569486
0.581099
0.593103
0.605468
0.618144
0.631097
0.644281
0.65764
0.67111
0.684621
0.698109
0.711533
0.724895
0.738293
0.751982
0.766305
0.781741
0.801263
0.829985
0.552547
0.563815
0.575281
0.587104
0.599264
0.611715
0.624417
0.637318
0.650358
0.663462
0.676554
0.689559
0.702425
0.715147
0.727821
0.740711
0.75419
0.768802
0.787689
0.816263
0.545066
0.556038
0.567264
0.578808
0.590653
0.602761
0.615084
0.627568
0.640143
0.652729
0.665239
0.67759
0.689721
0.701622
0.71339
0.725301
0.737762
0.751383
0.769451
0.797648
0.351788
0.333482
0.309151
0.283731
0.257784
0.231653
0.20559
0.179692
0.154037
0.128707
0.103779
0.0793258
0.0554112
0.0320954
0.00943128
-0.0125355
-0.0337674
-0.0542354
-0.0739193
-0.0928074
0.35171
0.332982
0.309257
0.283797
0.257637
0.231158
0.20461
0.178151
0.151903
0.125969
0.100442
0.0754062
0.0509356
0.0270985
0.00395444
-0.0184453
-0.0400585
-0.0608524
-0.0808036
-0.0998966
0.354992
0.332985
0.308145
0.282067
0.255363
0.228316
0.201174
0.174121
0.147298
0.120823
0.0947971
0.0693132
0.0444529
0.0202888
-0.0031157
-0.0257064
-0.047439
-0.0682793
-0.0882031
-0.107194
0.358021
0.333772
0.307831
0.280945
0.253498
0.225741
0.197909
0.170193
0.142742
0.115684
0.0891316
0.0631822
0.037923
0.0134307
-0.0102288
-0.0329999
-0.0548378
-0.075709
-0.0955903
-0.114468
0.360381
0.334581
0.307608
0.279846
0.251591
0.223079
0.19453
0.166133
0.138046
0.110405
0.0833284
0.0569218
0.0312767
0.00647288
-0.0174215
-0.04035
-0.0622683
-0.0831445
-0.102957
-0.121696
0.362407
0.335224
0.307171
0.278472
0.249366
0.220069
0.190789
0.161711
0.132998
0.104792
0.077218
0.050386
0.0243918
-0.0006821
-0.0247664
-0.047805
-0.0697549
-0.0905866
-0.110282
-0.128836
0.364176
0.33569
0.30653
0.276853
0.246862
0.216757
0.186736
0.15698
0.127655
0.0989067
0.0708653
0.0436443
0.0173423
-0.00795681
-0.0321838
-0.055284
-0.0772169
-0.0979574
-0.117492
-0.13582
0.365706
0.33599
0.305725
0.275053
0.244159
0.213234
0.182469
0.152043
0.122125
0.0928607
0.0643847
0.0368124
0.0102438
-0.0152373
-0.0395631
-0.0626815
-0.0845565
-0.105168
-0.124508
-0.142585
0.367065
0.336171
0.304816
0.273146
0.241344
0.209599
0.178097
0.147018
0.116529
0.0867785
0.0579021
0.0300162
0.00322025
-0.0224034
-0.0467899
-0.0698914
-0.0916774
-0.112134
-0.131261
-0.149073
0.368364
0.336331
0.303905
0.271247
0.238546
0.20599
0.173766
0.142054
0.11102
0.0808132
0.0515689
0.0234028
-0.0035875
-0.0293229
-0.0537427
-0.0768048
-0.0984855
-0.118778
-0.13769
-0.155246
0.369758
0.336619
0.30315
0.269524
0.23594
0.202591
0.169665
0.137342
0.105786
0.0751486
0.0455618
0.0171392
-0.0100249
-0.0358559
-0.0602988
-0.0833182
-0.104898
-0.125039
-0.143756
-0.161086
0.371449
0.337243
0.302762
0.268195
0.233751
0.199629
0.16602
0.133103
0.101043
0.0699897
0.0400715
0.011399
-0.015938
-0.0418706
-0.0663502
-0.0893486
-0.110858
-0.130887
-0.149457
-0.166616
0.373697
0.33846
0.303004
0.267524
0.232243
0.197365
0.163084
0.12958
0.0970182
0.0655435
0.0352828
0.00634174
-0.0211951
-0.0472648
-0.0718257
-0.0948568
-0.116357
-0.136345
-0.154845
-0.171919
0.376803
0.340574
0.304173
0.267803
0.231697
0.196067
0.161109
0.127005
0.0939159
0.0619869
0.0313404
0.00207775
-0.025722
-0.0520017
-0.0767258
-0.0998801
-0.12147
-0.14152
-0.16006
-0.177159
0.381085
0.34389
0.306562
0.269305
0.232366
0.195962
0.160292
0.125538
0.0918611
0.059404
0.0282862
-0.00139515
-0.0295651
-0.0561713
-0.0811832
-0.104591
-0.126407
-0.146656
-0.165373
-0.182636
0.386813
0.348652
0.310382
0.272208
0.234387
0.197144
0.160681
0.125181
0.0908052
0.0576948
0.025968
-0.00428011
-0.0329772
-0.0600736
-0.0855416
-0.109374
-0.131585
-0.152202
-0.17126
-0.188841
0.394095
0.354932
0.315662
0.276494
0.237697
0.199502
0.162116
0.125722
0.0904843
0.0565451
0.0240232
-0.00698581
-0.0364094
-0.0641977
-0.0903231
-0.114779
-0.137577
-0.158746
-0.178316
-0.196373
0.402678
0.362421
0.322036
0.281743
0.241822
0.202511
0.16402
0.126536
0.0902301
0.0552461
0.0217072
-0.010287
-0.0406604
-0.06936
-0.0963548
-0.121635
-0.145212
-0.167108
-0.187349
-0.20602
0.41139
0.369647
0.327737
0.285924
0.244485
0.20366
0.163663
0.124692
0.086923
0.0505092
0.0155824
-0.0177497
-0.0494031
-0.0793174
-0.107456
-0.133804
-0.158369
-0.181175
-0.202254
-0.221659
0.417367
0.373176
0.328812
0.284642
0.24089
0.197782
0.15554
0.114373
0.0744704
0.0360001
-0.000891783
-0.0360835
-0.0694782
-0.101005
-0.130619
-0.1583
-0.184057
-0.207932
-0.230003
-0.250248
-0.110917
-0.128231
-0.144782
-0.160601
-0.175725
-0.190203
-0.204087
-0.217433
-0.2303
-0.242747
-0.254833
-0.266615
-0.278149
-0.289494
-0.300719
-0.311907
-0.322974
-0.333502
-0.343473
-0.339181
-0.118152
-0.135541
-0.152097
-0.167848
-0.182828
-0.197078
-0.210648
-0.223586
-0.235943
-0.247771
-0.259119
-0.270032
-0.280549
-0.290693
-0.300466
-0.309803
-0.318398
-0.325439
-0.32955
-0.321097
-0.125279
-0.14242
-0.158655
-0.174015
-0.188535
-0.202259
-0.215236
-0.227519
-0.239161
-0.250215
-0.260731
-0.270752
-0.280306
-0.289399
-0.297991
-0.305945
-0.312892
-0.318095
-0.320583
-0.315671
-0.132376
-0.14927
-0.165197
-0.180192
-0.194293
-0.207549
-0.220013
-0.231741
-0.24279
-0.253214
-0.263065
-0.272385
-0.281196
-0.289494
-0.297227
-0.304251
-0.310245
-0.314656
-0.316823
-0.314346
-0.139406
-0.156035
-0.17164
-0.186262
-0.199945
-0.21274
-0.224708
-0.235908
-0.246401
-0.256245
-0.265493
-0.274188
-0.282355
-0.289987
-0.297038
-0.303385
-0.308783
-0.31284
-0.315082
-0.314223
-0.146305
-0.162629
-0.177879
-0.192101
-0.205345
-0.21767
-0.22914
-0.23982
-0.249778
-0.259075
-0.267768
-0.275904
-0.28351
-0.29059
-0.297108
-0.302972
-0.308004
-0.311942
-0.314467
-0.314923
-0.153014
-0.169006
-0.183879
-0.197689
-0.210492
-0.222353
-0.233342
-0.243532
-0.252995
-0.261797
-0.269999
-0.277655
-0.284797
-0.291438
-0.297558
-0.303093
-0.307921
-0.311869
-0.31473
-0.316189
-0.159485
-0.175132
-0.189625
-0.203029
-0.215406
-0.226828
-0.237372
-0.247116
-0.256138
-0.264509
-0.272294
-0.279552
-0.286323
-0.292627
-0.298457
-0.303773
-0.308492
-0.312499
-0.315659
-0.317822
-0.165678
-0.180985
-0.195112
-0.208133
-0.220116
-0.23114
-0.241288
-0.250644
-0.259287
-0.267297
-0.274741
-0.28168
-0.288161
-0.29421
-0.299832
-0.305
-0.30966
-0.31373
-0.31712
-0.319757
-0.171571
-0.186563
-0.200357
-0.213036
-0.224675
-0.235357
-0.245171
-0.254204
-0.262541
-0.270261
-0.277438
-0.284132
-0.290394
-0.296255
-0.301724
-0.306787
-0.311405
-0.31552
-0.319065
-0.322002
-0.177172
-0.191896
-0.20541
-0.217808
-0.229168
-0.239579
-0.249132
-0.257917
-0.266022
-0.273527
-0.280506
-0.287021
-0.293123
-0.298845
-0.3042
-0.309179
-0.313754
-0.317881
-0.321509
-0.324616
-0.182528
-0.197053
-0.210363
-0.222559
-0.233722
-0.243944
-0.253318
-0.261937
-0.269886
-0.277248
-0.284095
-0.290489
-0.296478
-0.302096
-0.307358
-0.312259
-0.316777
-0.320877
-0.32452
-0.327693
-0.187746
-0.202165
-0.215367
-0.227456
-0.238517
-0.248642
-0.257926
-0.26646
-0.274331
-0.281617
-0.28839
-0.294709
-0.300621
-0.306158
-0.311336
-0.316151
-0.320589
-0.32462
-0.328214
-0.331364
-0.193018
-0.207445
-0.220649
-0.232741
-0.243804
-0.25393
-0.263214
-0.271745
-0.279607
-0.286878
-0.293626
-0.299907
-0.305766
-0.311232
-0.316322
-0.321036
-0.325361
-0.329276
-0.332757
-0.335806
-0.198663
-0.213227
-0.226558
-0.238768
-0.24994
-0.260164
-0.269534
-0.278135
-0.286051
-0.293356
-0.300114
-0.30638
-0.312196
-0.317589
-0.322576
-0.32716
-0.331334
-0.335082
-0.338385
-0.341253
-0.205183
-0.220021
-0.233604
-0.246047
-0.257428
-0.267837
-0.277364
-0.286095
-0.29411
-0.301479
-0.308267
-0.314523
-0.320289
-0.325591
-0.330447
-0.334863
-0.338835
-0.342355
-0.345409
-0.348013
-0.213172
-0.228413
-0.242363
-0.255135
-0.266807
-0.277465
-0.2872
-0.296095
-0.304229
-0.311672
-0.318485
-0.324717
-0.330408
-0.335585
-0.340267
-0.344463
-0.348175
-0.351401
-0.354129
-0.356377
-0.22338
-0.239121
-0.25352
-0.266684
-0.278688
-0.289621
-0.299573
-0.308629
-0.316867
-0.324358
-0.331162
-0.337329
-0.342897
-0.347895
-0.352344
-0.356257
-0.35964
-0.362496
-0.364819
-0.366616
-0.239543
-0.255826
-0.27069
-0.284219
-0.296499
-0.307627
-0.317698
-0.326803
-0.335024
-0.342433
-0.349092
-0.355052
-0.360354
-0.365027
-0.369093
-0.372568
-0.375467
-0.377806
-0.379601
-0.380786
-0.268261
-0.285039
-0.300267
-0.313973
-0.326292
-0.337347
-0.347249
-0.356099
-0.36399
-0.371002
-0.377201
-0.382641
-0.387361
-0.391392
-0.394757
-0.397476
-0.399575
-0.401112
-0.402174
-0.402534
-0.401089
-0.381269
-0.368001
-0.358267
-0.350274
-0.343779
-0.338505
-0.334151
-0.330479
-0.327301
-0.324456
-0.321797
-0.319174
-0.316396
-0.313208
-0.309289
-0.303935
-0.294472
-0.276367
-0.260594
-0.400335
-0.381484
-0.368897
-0.359649
-0.352034
-0.345818
-0.34073
-0.33648
-0.332831
-0.32959
-0.326589
-0.323668
-0.320663
-0.317379
-0.313586
-0.309077
-0.303502
-0.295153
-0.281529
-0.273783
-0.399339
-0.381396
-0.369446
-0.36067
-0.35343
-0.347494
-0.342602
-0.338471
-0.334875
-0.331624
-0.328557
-0.325525
-0.322385
-0.318984
-0.315173
-0.310869
-0.305936
-0.299353
-0.290102
-0.287891
-0.397953
-0.380988
-0.369689
-0.361384
-0.354516
-0.348863
-0.344175
-0.340182
-0.336668
-0.333457
-0.330399
-0.327364
-0.324233
-0.320896
-0.31726
-0.31331
-0.308998
-0.303594
-0.296589
-0.296329
-0.396298
-0.380321
-0.36967
-0.361831
-0.355333
-0.349966
-0.345491
-0.341653
-0.338251
-0.335122
-0.332133
-0.329175
-0.326154
-0.322993
-0.319644
-0.316135
-0.312469
-0.308085
-0.302628
-0.30312
-0.394475
-0.379463
-0.369447
-0.362065
-0.355934
-0.350854
-0.346598
-0.34293
-0.339661
-0.336646
-0.333768
-0.330935
-0.328076
-0.32514
-0.322105
-0.319018
-0.315906
-0.312312
-0.307949
-0.308692
-0.392569
-0.378485
-0.369083
-0.362146
-0.356375
-0.351578
-0.347544
-0.344053
-0.340932
-0.338049
-0.335304
-0.332618
-0.329939
-0.327231
-0.324485
-0.321755
-0.319069
-0.316044
-0.312435
-0.313145
-0.390658
-0.377456
-0.368642
-0.362134
-0.35671
-0.35219
-0.348376
-0.345063
-0.342093
-0.339349
-0.336741
-0.334206
-0.3317
-0.329198
-0.326699
-0.324251
-0.321878
-0.319256
-0.316174
-0.316698
-0.388817
-0.376446
-0.368191
-0.362092
-0.356999
-0.352743
-0.34914
-0.345998
-0.343175
-0.340565
-0.338088
-0.335691
-0.333338
-0.331009
-0.328707
-0.326469
-0.324316
-0.321973
-0.319262
-0.319525
-0.387121
-0.375526
-0.367795
-0.36208
-0.357299
-0.35329
-0.349882
-0.3469
-0.344211
-0.341721
-0.339359
-0.337079
-0.33485
-0.332657
-0.3305
-0.32841
-0.326401
-0.324244
-0.321794
-0.321764
-0.385642
-0.374766
-0.367522
-0.362162
-0.357667
-0.353884
-0.350652
-0.34781
-0.345237
-0.342847
-0.340578
-0.338388
-0.336252
-0.334154
-0.332096
-0.3301
-0.328175
-0.326134
-0.323862
-0.323533
-0.384454
-0.374237
-0.367438
-0.362402
-0.358164
-0.35458
-0.351501
-0.348775
-0.346295
-0.34398
-0.341776
-0.339647
-0.337569
-0.33553
-0.333528
-0.331581
-0.329693
-0.327714
-0.325558
-0.324938
-0.38363
-0.374008
-0.36761
-0.362862
-0.358849
-0.355434