/*--------------------------------*- C++ -*----------------------------------*\
  =========                 |
  \\      /  F ield         | OpenFOAM: The Open Source CFD Toolbox
   \\    /   O peration     | Website:  https://openfoam.org
    \\  /    A nd           | Version:  6.0
     \\/     M anipulation  |
\*---------------------------------------------------------------------------*/
FoamFile
{
    version     2.0;
    format      ascii;
    class       volVectorField;
    location    "2.751";
    object      U;
}
// * * * * * * * * * * * * * * * * * * * * * * * * * * * * * * * * * * * * * //

dimensions      [0 1 -1 0 0 0 0];

internalField   nonuniform List<vector> 
19200
(
(0.100082 -4.84669 -8.03042e-21)
(0.0621009 -4.58945 4.09504e-21)
(0.0640372 -4.36782 1.91712e-21)
(0.0714615 -4.17567 1.7143e-21)
(0.0785631 -4.00747 1.91406e-21)
(0.0871718 -3.85848 1.2076e-22)
(0.0970931 -3.72488 2.73444e-21)
(0.107794 -3.60361 -1.99601e-22)
(0.118942 -3.49222 2.40409e-21)
(0.130281 -3.38881 1.00449e-21)
(0.141598 -3.29186 3.91783e-24)
(0.152721 -3.20021 1.6011e-21)
(0.163521 -3.11297 2.64047e-21)
(0.173902 -3.02944 -1.80076e-21)
(0.183798 -2.9491 2.30238e-21)
(0.193166 -2.87156 1.98803e-21)
(0.201986 -2.79651 -1.87989e-21)
(0.210249 -2.72373 3.21057e-21)
(0.217963 -2.65304 -2.05451e-21)
(0.22514 -2.5843 1.02897e-21)
(0.231803 -2.51739 1.44663e-21)
(0.237975 -2.45223 -4.72693e-22)
(0.243682 -2.38875 6.39174e-22)
(0.24895 -2.32688 -7.45919e-22)
(0.253806 -2.26659 -8.97495e-24)
(0.258274 -2.20781 3.91611e-22)
(0.262372 -2.15049 -2.63201e-22)
(0.266127 -2.09455 1.57544e-22)
(0.269598 -2.03994 3.75212e-22)
(0.272724 -1.9866 1.58366e-21)
(0.227136 -4.84313 -1.80962e-21)
(0.182736 -4.58958 1.25476e-20)
(0.179002 -4.37043 -6.70091e-21)
(0.181544 -4.1803 -9.1731e-21)
(0.184428 -4.01385 -4.15107e-21)
(0.189337 -3.8663 -2.98085e-21)
(0.195956 -3.73383 -6.49687e-21)
(0.203664 -3.61341 8.34954e-22)
(0.212057 -3.50263 -1.37045e-21)
(0.220825 -3.3996 -4.86608e-21)
(0.229714 -3.30283 -1.2154e-20)
(0.238521 -3.21121 5.93275e-21)
(0.247096 -3.12386 -2.22771e-21)
(0.255326 -3.04011 8.47486e-22)
(0.263134 -2.95948 -5.14148e-21)
(0.270472 -2.88158 -1.89007e-21)
(0.277311 -2.80613 2.18662e-22)
(0.283644 -2.73292 6.44914e-21)
(0.289473 -2.66178 -3.4154e-21)
(0.294813 -2.59259 -1.89759e-21)
(0.299685 -2.52524 -7.42637e-21)
(0.304113 -2.45965 1.91344e-21)
(0.308124 -2.39573 -1.20152e-21)
(0.311743 -2.33345 2.13193e-21)
(0.314999 -2.27276 -9.86618e-22)
(0.317913 -2.21359 -1.54253e-21)
(0.320503 -2.15589 5.06106e-22)
(0.322802 -2.09959 7.85529e-22)
(0.324891 -2.0446 -1.39518e-21)
(0.326652 -1.99088 7.33036e-22)
(0.353811 -4.83654 -8.59404e-22)
(0.303137 -4.58671 2.61928e-21)
(0.293986 -4.37011 4.14914e-21)
(0.291844 -4.18214 3.19364e-20)
(0.290655 -4.01757 -1.85299e-20)
(0.29197 -3.87156 1.70605e-20)
(0.295371 -3.74031 1.05385e-20)
(0.300147 -3.62081 8.22901e-21)
(0.305828 -3.51069 -7.83458e-21)
(0.312055 -3.40808 -8.12795e-22)
(0.318533 -3.31155 1.98775e-20)
(0.325033 -3.22 3.31797e-21)
(0.331381 -3.13258 -9.23428e-21)
(0.337454 -3.04866 7.28425e-21)
(0.343163 -2.96776 -1.13223e-23)
(0.348454 -2.88954 3.11414e-21)
(0.353295 -2.81373 2.24772e-21)
(0.357677 -2.74013 7.56067e-21)
(0.361602 -2.6686 -3.35345e-21)
(0.365084 -2.599 -1.10464e-21)
(0.368145 -2.53125 -2.90772e-21)
(0.37081 -2.46527 1.29237e-20)
(0.373105 -2.40098 -1.08256e-20)
(0.375059 -2.33833 3.5249e-21)
(0.376699 -2.27729 1.64123e-21)
(0.378045 -2.2178 -6.63653e-21)
(0.379112 -2.15977 8.87947e-21)
(0.379943 -2.10315 -9.58538e-22)
(0.380637 -2.04785 -1.00809e-21)
(0.381018 -1.99381 -7.3878e-21)
(0.480255 -4.82678 -2.90303e-20)
(0.423433 -4.58083 -2.70188e-20)
(0.409014 -4.36691 -3.32202e-20)
(0.402332 -4.18123 1.08528e-21)
(0.397194 -4.01864 2.05856e-21)
(0.395018 -3.87426 -3.79406e-20)
(0.395278 -3.7443 1.76175e-21)
(0.397183 -3.62579 4.95067e-21)
(0.400197 -3.51638 -8.70685e-22)
(0.403911 -3.41425 8.52627e-21)
(0.407995 -3.318 -3.39507e-20)
(0.412193 -3.22655 -2.11696e-20)
(0.416315 -3.1391 7.94839e-21)
(0.420222 -3.05504 1.57579e-20)
(0.423819 -2.97393 -1.83972e-20)
(0.427047 -2.89542 -2.89393e-21)
(0.429873 -2.81929 -1.09244e-20)
(0.432283 -2.74535 -5.16015e-21)
(0.434283 -2.67345 8.67483e-21)
(0.435887 -2.6035 -1.11371e-20)
(0.437117 -2.5354 9.70137e-21)
(0.437999 -2.46908 -1.15407e-20)
(0.438563 -2.40447 -9.09044e-21)
(0.438836 -2.34151 -6.52809e-21)
(0.438845 -2.28018 -1.90973e-21)
(0.438609 -2.2204 -1.35055e-20)
(0.438144 -2.16212 1.40556e-21)
(0.437494 -2.10524 2.43448e-21)
(0.436783 -2.04968 -7.09202e-21)
(0.435771 -1.99538 1.57538e-21)
(0.606421 -4.81379 -1.72665e-20)
(0.543606 -4.57192 2.58661e-21)
(0.524055 -4.36084 2.3089e-20)
(0.512966 -4.17756 2.42397e-20)
(0.503996 -4.01706 1.74884e-20)
(0.498425 -3.87439 7.25288e-21)
(0.495622 -3.7458 1.1243e-20)
(0.494713 -3.62833 5.1694e-20)
(0.495101 -3.51969 -3.11947e-20)
(0.496331 -3.41808 9.04071e-22)
(0.498036 -3.32214 7.5647e-21)
(0.499939 -3.23084 3.25503e-20)
(0.501831 -3.1434 -2.22297e-20)
(0.503564 -3.05924 1.60042e-20)
(0.505036 -2.97794 -1.78022e-20)
(0.506185 -2.8992 3.06023e-20)
(0.506975 -2.82278 -9.0629e-21)
(0.507395 -2.74853 3.29949e-22)
(0.50745 -2.67633 1.4617e-20)
(0.507155 -2.60607 1.02398e-20)
(0.506535 -2.53767 -1.04873e-20)
(0.505617 -2.47106 1.41828e-20)
(0.504434 -2.40618 -6.46483e-21)
(0.50301 -2.34297 7.48365e-21)
(0.501373 -2.2814 1.00088e-20)
(0.499546 -2.2214 3.65099e-21)
(0.497535 -2.1629 1.11636e-20)
(0.495399 -2.10583 -4.02272e-21)
(0.493274 -2.05007 -1.33552e-21)
(0.490858 -1.99558 -6.88589e-21)
(0.732238 -4.79756 -1.2534e-20)
(0.663602 -4.55998 -8.57024e-21)
(0.639062 -4.35189 -2.61028e-20)
(0.623694 -4.17114 -6.80917e-20)
(0.611006 -4.01282 2.31246e-20)
(0.602135 -3.87195 1.48964e-21)
(0.596343 -3.74478 -1.57211e-20)
(0.592678 -3.62842 3.0941e-21)
(0.590481 -3.52059 -2.3076e-21)
(0.589251 -3.41954 -4.0468e-20)
(0.588593 -3.32396 1.71321e-20)
(0.588204 -3.23284 2.94584e-20)
(0.587863 -3.14544 1.04649e-22)
(0.587412 -3.06121 1.09522e-20)
(0.586745 -2.97977 2.70896e-20)
(0.585797 -2.90083 -1.87016e-20)
(0.584533 -2.82418 3.29285e-20)
(0.582943 -2.74967 -1.5743e-20)
(0.581032 -2.6772 2.79573e-20)
(0.578819 -2.60667 -2.10362e-20)
(0.576331 -2.53802 9.38923e-21)
(0.573597 -2.47119 2.46186e-20)
(0.570648 -2.40609 1.36097e-21)
(0.567514 -2.34269 -2.2914e-20)
(0.56422 -2.28093 1.29114e-20)
(0.560788 -2.22077 1.49441e-21)
(0.557227 -2.16213 -4.14137e-21)
(0.553595 -2.10492 1.58249e-20)
(0.550052 -2.04902 5.57686e-21)
(0.546224 -1.99439 -5.87271e-21)
(0.857627 -4.7781 3.50663e-20)
(0.783356 -4.545 -1.07301e-21)
(0.753974 -4.34006 -5.30282e-20)
(0.734459 -4.16195 1.08929e-20)
(0.718166 -4.00592 -1.50622e-20)
(0.706088 -3.86692 1.12497e-20)
(0.697383 -3.74124 2.46043e-20)
(0.691017 -3.62603 4.47402e-20)
(0.686273 -3.51905 -4.84943e-20)
(0.682609 -3.41861 1.1986e-20)
(0.679599 -3.32342 -8.32856e-21)
(0.676921 -3.23252 6.13534e-21)
(0.674342 -3.14519 -2.73936e-20)
(0.671696 -3.06095 -1.72729e-21)
(0.668875 -2.9794 4.42261e-20)
(0.665812 -2.90029 -3.06289e-20)
(0.662474 -2.82345 -1.93576e-20)
(0.658853 -2.74873 -1.40505e-20)
(0.654956 -2.67604 2.57136e-20)
(0.650807 -2.6053 5.52706e-21)
(0.646432 -2.53645 -2.53483e-20)
(0.641864 -2.46944 3.38244e-20)
(0.637135 -2.40419 -3.06262e-20)
(0.632277 -2.34065 2.02813e-20)
(0.627316 -2.27877 -1.15448e-20)
(0.622273 -2.2185 7.48408e-21)
(0.617155 -2.15977 5.61706e-21)
(0.612024 -2.10249 -2.5263e-20)
(0.607057 -2.04651 1.08788e-20)
(0.601814 -1.9918 1.9875e-22)
(0.982508 -4.75541 -3.43803e-20)
(0.902799 -4.527 2.92008e-20)
(0.86873 -4.32535 -5.40724e-20)
(0.845201 -4.15 1.04101e-19)
(0.825418 -3.99634 -2.93097e-20)
(0.810227 -3.85928 4.16725e-20)
(0.79868 -3.73515 -5.57947e-22)
(0.789667 -3.62114 -5.93227e-21)
(0.782414 -3.51506 -8.49961e-21)
(0.776339 -3.41526 -4.74956e-23)
(0.770988 -3.3205 -3.30827e-20)
(0.766023 -3.22985 1.73765e-20)
(0.761199 -3.14264 -2.09108e-20)
(0.756346 -3.05841 -1.68438e-21)
(0.751354 -2.97679 -5.89248e-20)
(0.746158 -2.89757 1.94055e-20)
(0.740726 -2.82057 1.11845e-20)
(0.735052 -2.74568 -1.27382e-20)
(0.72915 -2.67282 -1.50568e-21)
(0.723044 -2.60193 -1.96161e-20)
(0.716764 -2.53294 -7.02901e-21)
(0.710346 -2.4658 6.02411e-22)
(0.703824 -2.40045 -1.72181e-20)
(0.697232 -2.33683 -2.55852e-20)
(0.690597 -2.2749 1.10474e-21)
(0.683938 -2.21459 -2.93536e-21)
(0.677255 -2.15583 8.11796e-21)
(0.670624 -2.09853 -2.00811e-20)
(0.664232 -2.04253 1.7145e-20)
(0.65757 -1.98782 -3.53055e-20)
(1.1068 -4.7295 -8.52857e-20)
(1.02186 -4.50596 1.06787e-19)
(0.983264 -4.30775 -1.13391e-19)
(0.955858 -4.13528 -3.06464e-20)
(0.932701 -3.98407 -1.96579e-20)
(0.91449 -3.84903 -2.15178e-20)
(0.900174 -3.7265 -1.98341e-20)
(0.888565 -3.61373 -4.36924e-21)
(0.878839 -3.50859 -2.03201e-20)
(0.870373 -3.40947 -4.31385e-21)
(0.86269 -3.31516 3.42213e-20)
(0.855437 -3.22481 -1.98099e-20)
(0.848361 -3.13776 -2.34093e-20)
(0.841288 -3.05357 -3.9469e-20)
(0.834109 -2.97193 8.33075e-20)
(0.826759 -2.89263 -3.20984e-20)
(0.819212 -2.81553 1.20117e-20)
(0.811467 -2.74052 -4.48583e-20)
(0.803539 -2.66754 1.73348e-20)
(0.795457 -2.59654 -7.09067e-21)
(0.787256 -2.52746 9.00386e-21)
(0.778974 -2.46025 -3.09734e-21)
(0.770647 -2.39486 2.83034e-20)
(0.762312 -2.33124 -1.00531e-20)
(0.753995 -2.2693 2.78632e-20)
(0.745713 -2.20901 -5.39538e-21)
(0.737469 -2.15029 3.64497e-20)
(0.729331 -2.09304 1.00405e-20)
(0.721517 -2.03709 1.88899e-20)
(0.713438 -1.98244 -6.24498e-20)
(1.23042 -4.70039 1.3479e-19)
(1.14046 -4.48189 -2.72101e-20)
(1.09751 -4.28727 4.85131e-20)
(1.06637 -4.11778 -1.38751e-20)
(1.03995 -3.96911 4.91459e-20)
(1.01882 -3.83614 4.66343e-20)
(1.0018 -3.71527 5.30064e-20)
(0.987648 -3.60378 -4.30461e-21)
(0.975481 -3.49962 -5.13139e-20)
(0.964644 -3.40121 7.57719e-20)
(0.954637 -3.3074 -5.74341e-21)
(0.945093 -3.21737 5.38168e-20)
(0.935755 -3.13051 1.95677e-20)
(0.926448 -3.04641 7.23894e-21)
(0.917063 -2.96479 1.14626e-20)
(0.907541 -2.88546 1.59163e-20)
(0.897859 -2.8083 2.64845e-20)
(0.88802 -2.73322 -7.602e-21)
(0.878046 -2.66017 3.91749e-20)
(0.867971 -2.58911 1.80351e-20)
(0.857833 -2.52 -3.77566e-20)
(0.847673 -2.45278 6.70736e-20)
(0.837532 -2.38742 -8.8759e-20)
(0.827444 -2.32384 8.41255e-20)
(0.81744 -2.26198 -2.79218e-20)
(0.807533 -2.20177 5.40335e-21)
(0.797722 -2.14315 -3.6942e-20)
(0.788086 -2.08601 2.07311e-20)
(0.778852 -2.03017 7.4469e-21)
(0.769361 -1.97564 -9.60009e-21)
(1.35329 -4.6681 -7.69e-20)
(1.25854 -4.45481 7.75721e-20)
(1.2114 -4.26391 -2.12812e-20)
(1.17666 -4.0975 6.14913e-20)
(1.14711 -3.95145 6.10049e-21)
(1.12314 -3.82061 1.31036e-20)
(1.10349 -3.70144 -1.071e-19)
(1.08685 -3.59128 -1.89602e-20)
(1.07227 -3.48812 6.93972e-20)
(1.05908 -3.39046 5.28024e-20)
(1.04676 -3.29718 -9.04021e-20)
(1.03492 -3.20751 5.287e-20)
(1.02331 -3.12088 -5.3045e-20)
(1.01175 -3.03691 3.65647e-20)
(1.00014 -2.95535 -6.14113e-20)
(0.988426 -2.87604 -4.56643e-20)
(0.976587 -2.79886 2.95352e-21)
(0.964635 -2.72376 -2.09699e-20)
(0.952597 -2.6507 3.76295e-20)
(0.94051 -2.57963 1.4978e-20)
(0.92842 -2.51054 -9.87972e-21)
(0.91637 -2.44338 -2.88928e-21)
(0.904402 -2.3781 1.16478e-20)
(0.892555 -2.31463 -3.91295e-20)
(0.880859 -2.25291 6.5134e-20)
(0.869325 -2.19286 -1.59539e-20)
(0.857951 -2.13441 -1.23806e-21)
(0.846823 -2.07744 5.71839e-20)
(0.836173 -2.02176 7.67442e-21)
(0.825279 -1.96744 -8.55895e-21)
(1.47532 -4.63264 2.85426e-21)
(1.37601 -4.42473 -4.37151e-20)
(1.32486 -4.23766 -4.02192e-20)
(1.28667 -4.07444 -6.66766e-20)
(1.2541 -3.93107 2.24981e-21)
(1.22739 -3.80243 -4.81609e-20)
(1.20519 -3.68499 5.75738e-20)
(1.1861 -3.5762 -5.64412e-21)
(1.16914 -3.47408 4.66757e-20)
(1.15361 -3.3772 -3.90216e-20)
(1.13897 -3.28449 -2.00901e-20)
(1.12484 -3.19521 1.10125e-20)
(1.11094 -3.10885 5.97077e-21)
(1.09712 -3.02505 -6.08903e-20)
(1.08327 -2.94359 3.60902e-20)
(1.06934 -2.86434 -1.78708e-20)
(1.05532 -2.7872 5.09785e-20)
(1.04123 -2.71213 -1.68245e-20)
(1.02711 -2.63911 1.76456e-20)
(1.013 -2.5681 4.35222e-21)
(0.998939 -2.49908 3.00943e-20)
(0.984987 -2.43203 -6.1884e-21)
(0.971186 -2.3669 4.96768e-20)
(0.957574 -2.30361 -5.54746e-20)
(0.944182 -2.24209 -1.87916e-20)
(0.931024 -2.18227 1.54076e-20)
(0.918091 -2.12406 -1.39458e-21)
(0.905473 -2.06733 -2.6992e-20)
(0.89342 -2.01189 2.18859e-20)
(0.881132 -1.95782 -2.71816e-20)
(1.59644 -4.59404 1.29794e-19)
(1.4928 -4.39165 3.64651e-20)
(1.43782 -4.20855 4.37728e-20)
(1.39634 -4.04859 5.92604e-20)
(1.36087 -3.90797 8.93903e-20)
(1.33152 -3.78157 -2.64421e-21)
(1.30682 -3.66592 1.32201e-20)
(1.28533 -3.55852 1.01314e-19)
(1.26602 -3.45748 -2.10401e-20)
(1.24817 -3.3614 -3.76045e-20)
(1.23121 -3.26929 6.65666e-20)
(1.21477 -3.18045 1.12089e-20)
(1.19858 -3.09439 6.44574e-22)
(1.18247 -3.0108 1.61383e-20)
(1.16636 -2.9295 2.88272e-20)
(1.15019 -2.85035 -5.93618e-20)
(1.13398 -2.7733 5.07594e-20)
(1.11773 -2.69832 8.56952e-21)
(1.10151 -2.62539 4.96276e-20)
(1.08535 -2.55449 -2.70276e-20)
(1.06931 -2.48561 4.46125e-20)
(1.05345 -2.41873 -4.75321e-20)
(1.0378 -2.3538 4.60598e-20)
(1.02242 -2.29076 6.35762e-21)
(1.00734 -2.22952 -3.10515e-20)
(0.992557 -2.16999 -1.01087e-20)
(0.978071 -2.11209 5.96097e-20)
(0.963972 -2.05568 4.35432e-20)
(0.950529 -2.00055 1.1592e-20)
(0.936858 -1.9468 -8.50557e-21)
(1.71657 -4.55232 1.31753e-20)
(1.60884 -4.35559 3.14162e-20)
(1.55022 -4.17656 1.28236e-19)
(1.5056 -4.01995 -2.10927e-19)
(1.46735 -3.88215 -2.07684e-20)
(1.43544 -3.75803 -2.28629e-20)
(1.40832 -3.6442 1.03395e-20)
(1.38447 -3.53823 1.37833e-20)
(1.36284 -3.43829 2.28669e-20)
(1.34267 -3.34306 -6.16449e-20)
(1.3234 -3.25158 -1.18362e-20)
(1.30465 -3.1632 3.48263e-20)
(1.28614 -3.07749 3.74812e-20)
(1.26773 -2.99416 -3.76708e-20)
(1.24933 -2.91305 -3.7066e-20)
(1.23091 -2.83406 6.07927e-20)
(1.21248 -2.75716 3.96108e-20)
(1.19406 -2.68231 -1.03195e-20)
(1.17571 -2.60953 -2.54254e-20)
(1.15749 -2.5388 4.6117e-21)
(1.13946 -2.47012 -5.87446e-20)
(1.12167 -2.40347 7.0987e-20)
(1.10418 -2.33881 -4.86094e-20)
(1.08703 -2.27607 -1.9951e-21)
(1.07025 -2.21518 3.21483e-20)
(1.05385 -2.15602 -1.00092e-20)
(1.03782 -2.09851 -3.02642e-20)
(1.02226 -2.0425 3.7506e-20)
(1.00743 -1.98773 -1.07582e-21)
(0.992402 -1.93438 6.66392e-21)
(1.83563 -4.50749 -9.85081e-21)
(1.72406 -4.31657 -3.29434e-20)
(1.66199 -4.14171 -1.47863e-19)
(1.61437 -3.98853 5.38126e-20)
(1.57347 -3.8536 -1.62435e-20)
(1.5391 -3.7318 5.42376e-20)
(1.50961 -3.61982 4.0619e-21)
(1.48345 -3.51531 -6.24297e-20)
(1.45952 -3.41651 9.50347e-20)
(1.43705 -3.32214 -8.61207e-20)
(1.41546 -3.23133 -3.30062e-21)
(1.39438 -3.14345 2.09935e-20)
(1.37355 -3.05813 -3.62775e-20)
(1.35282 -2.9751 4.13689e-20)
(1.33211 -2.89424 -7.92116e-20)
(1.31141 -2.81546 -1.77664e-20)
(1.29074 -2.73875 4.82109e-20)
(1.27013 -2.6641 7.71597e-23)
(1.24964 -2.59152 -3.03004e-20)
(1.22935 -2.52102 8.28193e-20)
(1.20931 -2.45261 -4.46364e-20)
(1.18959 -2.38625 -5.97039e-20)
(1.17025 -2.32192 1.98801e-20)
(1.15132 -2.25955 -5.79653e-20)
(1.13285 -2.19906 -1.39174e-20)
(1.11484 -2.14035 -1.72916e-21)
(1.09728 -2.08331 -3.78263e-20)
(1.08026 -2.02776 4.54518e-20)
(1.06407 -1.97344 -2.52737e-20)
(1.0477 -1.92057 2.99359e-20)
(1.95353 -4.4596 -4.63905e-20)
(1.83838 -4.2746 -1.32294e-19)
(1.77305 -4.10401 6.38564e-20)
(1.72259 -3.95433 -6.1207e-20)
(1.67916 -3.82231 -4.51824e-20)
(1.64242 -3.70287 -2.60806e-20)
(1.61063 -3.59277 -9.67546e-20)
(1.58219 -3.48975 6.61247e-20)
(1.55599 -3.3921 -1.63433e-19)
(1.53121 -3.29864 -5.91643e-20)
(1.50731 -3.20852 2.17883e-20)
(1.48389 -3.1212 3.59382e-20)
(1.46072 -3.0363 -7.53514e-22)
(1.43765 -2.95362 -6.87522e-20)
(1.41462 -2.87305 1.61337e-20)
(1.39162 -2.79453 -6.24176e-20)
(1.36868 -2.71807 -4.48151e-20)
(1.34586 -2.64367 -2.68163e-20)
(1.32321 -2.57136 -5.16606e-21)
(1.30083 -2.50115 4.62884e-20)
(1.27877 -2.43306 6.59819e-20)
(1.25711 -2.36706 -1.98011e-20)
(1.23591 -2.30312 -1.90202e-20)
(1.21522 -2.24119 3.70614e-20)
(1.19506 -2.18118 2.05659e-20)
(1.17545 -2.12299 -1.63732e-20)
(1.15637 -2.06648 -1.82339e-20)
(1.13791 -2.01149 2.11332e-21)
(1.12039 -1.95769 1.90102e-20)
(1.1027 -1.90536 2.65028e-20)
(2.0702 -4.40867 -8.54464e-21)
(1.95173 -4.22971 1.66841e-19)
(1.88333 -4.06347 1.28644e-19)
(1.8302 -3.91735 1.00192e-19)
(1.78436 -3.78829 -6.55892e-20)
(1.74533 -3.67124 -1.3168e-20)
(1.71131 -3.56305 1.2167e-20)
(1.68063 -3.46153 8.38345e-20)
(1.65216 -3.36507 3.15402e-20)
(1.6251 -3.27254 7.65802e-20)
(1.59887 -3.18315 -1.06802e-19)
(1.57311 -3.09641 1.10735e-20)
(1.54757 -3.01198 4.35662e-20)
(1.52214 -2.9297 2.65922e-20)
(1.49676 -2.84947 5.5291e-20)
(1.47144 -2.77128 -3.80902e-20)
(1.44622 -2.69512 -3.51001e-20)
(1.42117 -2.62103 6.89341e-21)
(1.39635 -2.54904 7.50653e-20)
(1.37186 -2.47919 -1.21228e-19)
(1.34777 -2.41147 4.23767e-20)
(1.32417 -2.3459 -2.59381e-22)
(1.3011 -2.28242 7.97292e-20)
(1.27864 -2.221 -3.46353e-20)
(1.2568 -2.16153 -1.91894e-21)
(1.2356 -2.10392 -2.19543e-20)
(1.21502 -2.04804 2.08851e-20)
(1.19515 -1.99367 5.12512e-21)
(1.1763 -1.94047 -2.30161e-20)
(1.15732 -1.88877 7.97109e-20)
(2.18557 -4.35473 -1.69062e-19)
(2.06403 -4.1819 -1.01273e-19)
(1.99278 -4.02011 -2.59319e-19)
(1.93712 -3.87759 -1.17499e-19)
(1.88899 -3.75152 1.1024e-19)
(1.84776 -3.63689 -6.47192e-20)
(1.81156 -3.53063 -1.53832e-20)
(1.77868 -3.43064 -4.28208e-20)
(1.74797 -3.33539 7.30246e-20)
(1.71861 -3.24382 -1.66679e-20)
(1.69006 -3.1552 -2.63063e-20)
(1.66193 -3.06908 -3.28553e-21)
(1.63402 -2.98517 -1.06495e-19)
(1.60621 -2.90334 -3.96519e-21)
(1.57847 -2.82351 2.86571e-20)
(1.5508 -2.74568 -3.18072e-21)
(1.52328 -2.66989 -1.09752e-19)
(1.49598 -2.59617 1.06894e-19)
(1.46897 -2.52457 -1.04821e-19)
(1.44236 -2.45512 4.09808e-20)
(1.41623 -2.38785 5.78923e-21)
(1.39067 -2.32276 2.32055e-21)
(1.36574 -2.25982 -4.31386e-20)
(1.3415 -2.19896 1.44503e-20)
(1.31799 -2.14012 -1.41916e-23)
(1.29521 -2.08316 4.71356e-21)
(1.27314 -2.02797 -1.07533e-19)
(1.25187 -1.9743 2.93438e-20)
(1.23173 -1.92179 3.14344e-20)
(1.21148 -1.8708 3.57047e-20)
(2.29955 -4.29781 3.28689e-19)
(2.17522 -4.13121 1.15171e-19)
(2.10131 -3.97392 6.74536e-20)
(2.0433 -3.83506 1.0763e-19)
(1.993 -3.71202 -1.33874e-20)
(1.94965 -3.59983 8.08158e-20)
(1.91132 -3.4955 1.79708e-19)
(1.87627 -3.39706 -2.32259e-20)
(1.84333 -3.30306 1.01534e-20)
(1.81168 -3.21247 2.11238e-19)
(1.78079 -3.12466 -2.82569e-20)
(1.75029 -3.0392 2.92314e-20)
(1.71998 -2.95586 -1.05733e-20)
(1.68977 -2.87452 -6.28345e-22)
(1.65964 -2.79514 1.51913e-19)
(1.62962 -2.71775 5.89085e-21)
(1.59978 -2.64238 1.61063e-19)
(1.5702 -2.56908 -2.06403e-20)
(1.541 -2.49793 -3.47398e-20)
(1.51225 -2.42896 8.11726e-20)
(1.48408 -2.36219 -7.40823e-20)
(1.45655 -2.29765 8.14311e-20)
(1.42975 -2.2353 4.37985e-20)
(1.40374 -2.17509 -3.53832e-20)
(1.37855 -2.11692 5.38929e-20)
(1.3542 -2.0607 6.36225e-21)
(1.33065 -2.00627 -2.23125e-20)
(1.308 -1.95339 1.22582e-20)
(1.28659 -1.90165 8.03337e-20)
(1.26511 -1.85145 1.25769e-20)
(2.41207 -4.23795 -5.65854e-20)
(2.28522 -4.07766 -1.16216e-19)
(2.20886 -3.92494 4.74675e-20)
(2.14865 -3.78978 -1.92196e-19)
(2.0963 -3.66978 9.10076e-20)
(2.05092 -3.56004 -1.66918e-19)
(2.01052 -3.45768 -1.09158e-19)
(1.97332 -3.3608 3.05601e-20)
(1.93816 -3.26806 2.93835e-20)
(1.90422 -3.1785 -1.46575e-19)
(1.87098 -3.09152 -6.30817e-20)
(1.83809 -3.00677 2.85387e-20)
(1.80538 -2.92404 -7.99302e-20)
(1.77275 -2.84325 -3.16564e-20)
(1.74021 -2.76438 -2.11994e-20)
(1.70781 -2.68747 -2.13259e-20)
(1.67563 -2.61259 -8.87812e-20)
(1.64377 -2.53978 -5.53435e-20)
(1.61235 -2.46913 1.01858e-20)
(1.58146 -2.40069 1.81141e-20)
(1.55122 -2.3345 1.90288e-20)
(1.52172 -2.27056 -6.66103e-20)
(1.49305 -2.20886 2.4874e-20)
(1.46526 -2.14935 -5.15416e-20)
(1.4384 -2.09195 4.82417e-20)
(1.41248 -2.03653 -6.37101e-20)
(1.38747 -1.98295 1.97713e-20)
(1.36347 -1.93094 -3.13803e-20)
(1.34082 -1.88005 -4.42591e-20)
(1.31815 -1.83073 -4.64042e-21)
(2.52306 -4.17518 -1.18733e-19)
(2.39396 -4.02128 -1.04446e-19)
(2.31537 -3.87318 -1.02149e-19)
(2.25312 -3.74174 -7.47593e-20)
(2.19883 -3.6248 2.32179e-19)
(2.1515 -3.51752 3.21297e-20)
(2.10906 -3.41713 9.9003e-20)
(2.06975 -3.32185 1.51009e-19)
(2.03237 -3.23038 7.22121e-20)
(1.99615 -3.14188 -9.66619e-20)
(1.96055 -3.05578 1.53808e-19)
(1.92526 -2.97179 -1.50105e-19)
(1.89011 -2.88972 1.41032e-19)
(1.85505 -2.80953 1.6242e-20)
(1.82008 -2.73123 3.57512e-20)
(1.78529 -2.65487 1.17483e-20)
(1.75076 -2.58052 1.44132e-19)
(1.71661 -2.50827 -2.15446e-20)
(1.68295 -2.43819 1.9086e-20)
(1.64991 -2.37034 6.4324e-20)
(1.6176 -2.30476 -7.18008e-20)
(1.58612 -2.24149 5.68821e-20)
(1.55556 -2.1805 1.99008e-21)
(1.52599 -2.12176 2.56538e-20)
(1.49747 -2.06518 4.67897e-20)
(1.46999 -2.01064 -8.08727e-21)
(1.44353 -1.95799 4.63203e-20)
(1.41819 -1.90694 6.67054e-20)
(1.39433 -1.85699 -7.26251e-20)
(1.37051 -1.80864 -4.52378e-20)
(2.63243 -4.10954 3.45628e-19)
(2.50138 -3.96209 -3.86151e-20)
(2.42077 -3.81866 7.91348e-20)
(2.35664 -3.69096 1.45015e-19)
(2.30052 -3.57709 -4.15929e-19)
(2.2513 -3.47227 4.47184e-20)
(2.20688 -3.37387 -1.57588e-19)
(2.16547 -3.28018 1.56164e-19)
(2.12589 -3.19003 -1.24641e-19)
(2.08737 -3.10261 6.62171e-20)
(2.04941 -3.01744 -2.42689e-19)
(2.0117 -2.93424 7.98052e-21)
(1.9741 -2.85289 -7.89929e-20)
(1.93659 -2.77336 1.20003e-19)
(1.89919 -2.69568 -1.27456e-19)
(1.86198 -2.61993 -6.97908e-21)
(1.82509 -2.54619 -1.02555e-19)
(1.78863 -2.47455 -8.15957e-21)
(1.75273 -2.40509 8.11154e-21)
(1.71753 -2.33789 2.2394e-20)
(1.68314 -2.273 -1.26864e-19)
(1.64968 -2.21044 -3.76089e-21)
(1.61723 -2.15022 -7.06356e-20)
(1.58588 -2.09229 -1.65714e-20)
(1.55567 -2.03659 -4.31615e-20)
(1.52663 -1.983 -4.70275e-20)
(1.49873 -1.93136 -4.87777e-20)
(1.47207 -1.88136 8.09706e-20)
(1.44702 -1.83245 2.1639e-20)
(1.42209 -1.78517 -4.35387e-20)
(2.74012 -4.04107 -2.30188e-19)
(2.60741 -3.90014 8.53693e-20)
(2.525 -3.7614 -1.45083e-19)
(2.45915 -3.63745 2.1847e-20)
(2.40131 -3.52664 2.35327e-19)
(2.35027 -3.42429 -1.19645e-19)
(2.3039 -3.32788 -1.24315e-19)
(2.2604 -3.23582 -1.06482e-19)
(2.21862 -3.147 5.4022e-21)
(2.1778 -3.0607 6.8375e-20)
(2.13746 -2.97649 -4.92572e-20)
(2.09732 -2.89415 2.69108e-21)
(2.05727 -2.81356 1.50773e-19)
(2.01729 -2.73475 -7.64219e-20)
(1.97743 -2.65776 1.95761e-20)
(1.93781 -2.58268 -6.14496e-20)
(1.89854 -2.5096 2.3445e-20)
(1.85976 -2.43863 5.0904e-20)
(1.82162 -2.36986 5.67219e-20)
(1.78426 -2.30336 -6.23806e-20)
(1.74779 -2.2392 9.39819e-21)
(1.71233 -2.17741 5.31624e-20)
(1.67798 -2.118 9.20206e-20)
(1.64484 -2.06094 2.3963e-20)
(1.61295 -2.00617 -9.46245e-20)
(1.58235 -1.95358 1.09931e-19)
(1.553 -1.90302 -5.51351e-20)
(1.52503 -1.85416 -6.56275e-20)
(1.49882 -1.8064 -4.02481e-20)
(1.47282 -1.76031 -5.6083e-20)
(2.84605 -3.96981 1.2127e-19)
(2.71199 -3.83544 -9.76436e-20)
(2.62802 -3.70142 3.81075e-20)
(2.56058 -3.58121 1.96842e-19)
(2.50112 -3.47346 5.32784e-20)
(2.44831 -3.37358 -4.56076e-20)
(2.40002 -3.27916 1.10626e-19)
(2.35446 -3.18874 2.6544e-20)
(2.31048 -3.10129 1.03519e-19)
(2.26736 -3.01615 5.69355e-20)
(2.22463 -2.93295 2.53021e-21)
(2.18204 -2.8515 3.56444e-20)
(2.13952 -2.77175 -1.12998e-20)
(2.09706 -2.69371 1.95676e-20)
(2.05474 -2.61747 5.37713e-20)
(2.01269 -2.54312 -2.96103e-20)
(1.97104 -2.47078 7.28227e-20)
(1.92995 -2.40054 7.38285e-20)
(1.88956 -2.33251 -8.40933e-20)
(1.85002 -2.26677 8.63663e-20)
(1.81147 -2.20339 1.82823e-19)
(1.77402 -2.1424 -1.18094e-19)
(1.73777 -2.08384 1.18301e-19)
(1.70282 -2.02769 -8.31193e-20)
(1.66925 -1.97389 -1.16807e-20)
(1.63707 -1.92235 8.8709e-20)
(1.60627 -1.87294 -1.81004e-20)
(1.57698 -1.8253 6.65314e-20)
(1.54962 -1.77879 6.60175e-20)
(1.5226 -1.734 -1.34172e-19)
(2.95016 -3.89581 -1.16838e-19)
(2.81508 -3.76805 5.5817e-20)
(2.72976 -3.63873 2.27246e-20)
(2.66089 -3.52225 -2.2923e-19)
(2.59988 -3.41754 -1.1828e-19)
(2.54535 -3.32012 8.85245e-20)
(2.49516 -3.22771 -2.45772e-19)
(2.44755 -3.13895 2.96082e-19)
(2.40138 -3.0529 -1.6645e-19)
(2.35594 -2.96896 1.98637e-20)
(2.31081 -2.88682 -3.19211e-20)
(2.26578 -2.80633 -9.40322e-20)
(2.22077 -2.72746 1.94301e-19)
(2.17582 -2.65026 7.28088e-20)
(2.13103 -2.57484 -7.61206e-20)
(2.08655 -2.50129 2.01773e-21)
(2.04252 -2.42974 4.18066e-20)
(1.99911 -2.3603 -9.07248e-20)
(1.95648 -2.29307 1.92147e-20)
(1.91478 -2.22813 6.23386e-20)
(1.87415 -2.16557 -2.62552e-20)
(1.8347 -2.10543 4.27866e-20)
(1.79655 -2.04775 -8.45623e-20)
(1.7598 -1.99251 1.21809e-19)
(1.72451 -1.9397 2.81447e-20)
(1.69074 -1.88924 -7.72144e-20)
(1.65846 -1.84102 -6.65468e-20)
(1.62785 -1.79468 3.51813e-22)
(1.59934 -1.74952 9.16823e-20)
(1.5713 -1.70617 -2.27394e-20)
(3.05241 -3.81911 -3.20258e-20)
(2.91665 -3.69799 -2.2867e-19)
(2.8302 -3.57336 2.73941e-19)
(2.76 -3.46057 1.84918e-19)
(2.69751 -3.35888 1.83894e-19)
(2.6413 -3.26392 5.05009e-20)
(2.58924 -3.17353 7.66279e-20)
(2.53957 -3.08646 3.87076e-20)
(2.49121 -3.00184 -1.54391e-19)
(2.44346 -2.91915 2.82466e-19)
(2.39593 -2.83812 -2.25961e-19)
(2.34843 -2.75863 -1.45866e-20)
(2.30093 -2.68071 3.31372e-20)
(2.25348 -2.60443 -1.44638e-19)
(2.20622 -2.52988 1.26737e-19)
(2.15931 -2.4572 -3.83778e-20)
(2.1129 -2.38651 -9.68268e-20)
(2.06718 -2.31793 3.70063e-20)
(2.02232 -2.25155 -7.18257e-20)
(1.97847 -2.18748 -6.32974e-20)
(1.93577 -2.12578 -6.7331e-20)
(1.89434 -2.06652 1.53199e-20)
(1.8543 -2.00973 8.47051e-21)
(1.81574 -1.95542 -1.64448e-19)
(1.77874 -1.90359 -6.22211e-20)
(1.74334 -1.8542 4.0392e-20)
(1.70956 -1.80717 4.98265e-20)
(1.67757 -1.76218 -6.88381e-20)
(1.64788 -1.71846 -2.6174e-20)
(1.61884 -1.67666 2.72165e-21)
(3.15277 -3.73973 -2.85771e-20)
(3.01668 -3.62528 1.48112e-19)
(2.92929 -3.5053 -4.24104e-20)
(2.85785 -3.39616 -5.21802e-20)
(2.79392 -3.29747 -2.84521e-19)
(2.73606 -3.20498 -6.19368e-20)
(2.68215 -3.11663 1.18108e-19)
(2.63045 -3.03128 -7.79602e-20)
(2.57989 -2.94813 -8.2306e-21)
(2.52982 -2.86673 -1.57153e-20)
(2.47987 -2.78686 8.54111e-20)
(2.42991 -2.70845 -1.3473e-19)
(2.37991 -2.63154 -8.96719e-20)
(2.32997 -2.55623 1.0498e-19)
(2.28024 -2.48263 -5.96153e-20)
(2.23089 -2.41089 -7.16237e-20)
(2.18212 -2.34113 1.52981e-19)
(2.13411 -2.27347 -2.43143e-20)
(2.08703 -2.20802 8.94272e-20)
(2.04105 -2.14486 -8.19946e-20)
(1.99631 -2.08407 -6.58306e-20)
(1.95293 -2.0257 5.74891e-20)
(1.91101 -1.96981 -6.61052e-21)
(1.87065 -1.91642 -4.26765e-20)
(1.83194 -1.86554 3.76392e-20)
(1.79491 -1.81717 -1.16688e-19)
(1.75958 -1.77129 7.13918e-20)
(1.72615 -1.72762 -1.15934e-21)
(1.69523 -1.68538 -7.40725e-20)
(1.66519 -1.64523 1.13763e-19)
(3.25134 -3.65776 1.12032e-19)
(3.11523 -3.54996 -2.90729e-19)
(3.02699 -3.43453 -2.39717e-20)
(2.95436 -3.32899 1.34583e-19)
(2.88902 -3.2333 -3.42894e-20)
(2.82953 -3.14329 -9.73564e-20)
(2.77378 -3.05701 4.50215e-20)
(2.72006 -2.97341 5.19861e-20)
(2.66731 -2.89177 4.1888e-21)
(2.61492 -2.81172 6.36449e-20)
(2.56256 -2.73306 2.0297e-19)
(2.51012 -2.65579 -7.16972e-20)
(2.45762 -2.57996 1.79424e-20)
(2.40519 -2.5057 -4.74146e-20)
(2.35299 -2.43313 1.82144e-19)
(2.30123 -2.3624 -3.27098e-20)
(2.25011 -2.29364 1.07337e-19)
(2.19982 -2.22697 -4.16528e-20)
(2.15056 -2.1625 4.45906e-20)
(2.10248 -2.10031 6.73089e-20)
(2.05572 -2.04047 1.14078e-20)
(2.01042 -1.98304 4.50146e-20)
(1.96667 -1.92806 -3.70751e-20)
(1.92456 -1.87556 1.03423e-19)
(1.88416 -1.82557 -4.21904e-20)
(1.8455 -1.77813 1.54156e-19)
(1.80859 -1.73326 -4.46433e-20)
(1.77366 -1.69079 3.05796e-20)
(1.74142 -1.64994 -5.77734e-20)
(1.71039 -1.61149 1.10144e-19)
(3.3485 -3.57332 -2.47661e-19)
(3.21242 -3.47198 9.7493e-21)
(3.12324 -3.36097 -1.4733e-19)
(3.0494 -3.25903 2.66155e-20)
(2.98267 -3.16636 7.53287e-21)
(2.9216 -3.07886 -1.28544e-19)
(2.86404 -2.99468 -2.41564e-19)
(2.8083 -2.91287 1.20211e-19)
(2.75337 -2.8328 -1.70657e-19)
(2.69866 -2.75414 -8.93326e-20)
(2.64389 -2.67676 -5.06446e-20)
(2.58897 -2.60069 -3.98731e-20)
(2.53398 -2.52602 6.33454e-22)
(2.47905 -2.45287 -1.43772e-19)
(2.4244 -2.38141 9.29554e-20)
(2.37024 -2.31176 -1.53694e-19)
(2.31678 -2.24408 -3.8813e-20)
(2.26425 -2.17848 4.18465e-20)
(2.21283 -2.11506 5.25846e-20)
(2.16269 -2.05391 5.22263e-20)
(2.11398 -1.99507 3.99758e-20)
(2.06682 -1.93862 -1.00273e-19)
(2.0213 -1.88456 1.00799e-19)
(1.97751 -1.83294 -1.08498e-20)
(1.93548 -1.78377 -2.69996e-20)
(1.89525 -1.7371 -1.06721e-19)
(1.85676 -1.69298 -5.64309e-20)
(1.82021 -1.65129 1.04368e-19)
(1.7864 -1.61138 -3.44544e-20)
(1.75416 -1.57471 -3.56184e-20)
(3.4447 -3.4861 1.08393e-19)
(3.30829 -3.39094 1.09572e-20)
(3.21789 -3.28444 -2.87607e-20)
(3.1428 -3.18622 -5.91106e-21)
(3.07475 -3.09666 -5.09487e-20)
(3.01214 -3.01172 1.73855e-19)
(2.95281 -2.92969 -8.15382e-20)
(2.89509 -2.84971 5.38569e-20)
(2.83799 -2.77125 2.24032e-20)
(2.78096 -2.69404 7.90131e-20)
(2.72377 -2.618 -2.99636e-20)
(2.66638 -2.5432 1.70786e-19)
(2.60889 -2.46975 -1.46065e-20)
(2.55148 -2.3978 1.09696e-19)
(2.49438 -2.32752 -1.83726e-19)
(2.43783 -2.25904 -1.33803e-20)
(2.38207 -2.19252 1.18298e-19)
(2.32733 -2.12807 -7.32969e-20)
(2.27379 -2.06578 -5.1432e-20)
(2.22164 -2.00573 -8.82742e-20)
(2.17103 -1.94797 -7.69326e-20)
(2.12209 -1.89255 8.30304e-20)
(2.0749 -1.83947 -7.74628e-20)
(2.02955 -1.78876 1.70619e-20)
(1.98609 -1.74039 6.26405e-20)
(1.9445 -1.69436 4.3262e-20)
(1.90472 -1.65064 4.07763e-20)
(1.86675 -1.60899 2.98579e-20)
(1.83093 -1.56919 -8.10183e-20)
(1.79666 -1.53379 -3.50539e-20)
(4.97687 -0.029526 1.41657e-21)
(4.97125 -0.160512 1.37878e-20)
(4.96258 -0.290636 4.79657e-20)
(4.95081 -0.420182 2.61903e-20)
(4.93572 -0.549212 -5.59023e-20)
(4.91726 -0.677693 1.68811e-20)
(4.89543 -0.805563 -1.75995e-20)
(4.87023 -0.932744 -4.46926e-20)
(4.84171 -1.05915 1.15406e-19)
(4.80987 -1.1847 -2.75294e-20)
(4.77475 -1.3093 -2.73987e-20)
(4.73638 -1.43287 -5.88078e-20)
(4.69479 -1.55533 -1.69698e-19)
(4.65004 -1.67659 1.56379e-20)
(4.60214 -1.79657 -6.84862e-21)
(4.55115 -1.9152 -5.44073e-20)
(4.49711 -2.0324 1.14638e-19)
(4.44005 -2.14808 6.29412e-20)
(4.38004 -2.26218 1.19745e-19)
(4.31711 -2.37461 5.84494e-20)
(4.25131 -2.48532 -1.33029e-19)
(4.18269 -2.59422 5.43676e-21)
(4.11131 -2.70126 -2.52907e-19)
(4.03723 -2.80636 3.84489e-19)
(3.96049 -2.90946 -1.25931e-19)
(3.88116 -3.01051 -1.64922e-19)
(3.7993 -3.10946 -2.40854e-20)
(3.71498 -3.20628 -2.56522e-21)
(3.62829 -3.30104 -1.27036e-19)