/*--------------------------------*- C++ -*----------------------------------*\
  =========                 |
  \\      /  F ield         | OpenFOAM: The Open Source CFD Toolbox
   \\    /   O peration     | Website:  https://openfoam.org
    \\  /    A nd           | Version:  6.0
     \\/     M anipulation  |
\*---------------------------------------------------------------------------*/
FoamFile
{
    version     2.0;
    format      ascii;
    class       volVectorField;
    location    "25";
    object      U;
}
// * * * * * * * * * * * * * * * * * * * * * * * * * * * * * * * * * * * * * //

dimensions      [0 1 -1 0 0 0 0];

internalField   nonuniform List<vector> 
9600
(
(0.961596 -14.1326 -2.40962e-20)
(0.26923 -13.3115 -2.68262e-20)
(0.320936 -12.7756 4.69179e-21)
(0.438174 -12.3669 -1.84526e-20)
(0.507364 -12.0125 8.80818e-21)
(0.567633 -11.671 -7.47006e-21)
(0.623099 -11.3269 -1.57442e-20)
(0.670557 -10.9781 1.55023e-20)
(0.710214 -10.6281 5.75315e-21)
(0.743345 -10.2818 -8.62432e-20)
(0.771145 -9.94375 4.87245e-20)
(0.794669 -9.61754 -4.33437e-20)
(0.814826 -9.30549 -2.00246e-20)
(0.832366 -9.00894 2.80032e-20)
(0.847886 -8.72842 -1.85952e-20)
(0.861843 -8.46378 -1.00337e-20)
(0.874561 -8.21431 1.89268e-20)
(0.886522 -7.97858 -2.25618e-20)
(0.89871 -7.75428 -5.99851e-21)
(0.909175 -7.53806 -1.24307e-20)
(1.5166 -14.1034 -2.65117e-19)
(0.796162 -13.3405 -1.47062e-19)
(0.82792 -12.8214 7.18013e-20)
(0.928922 -12.4173 -9.88939e-20)
(0.983369 -12.0632 2.34524e-20)
(1.02897 -11.7185 -2.95581e-20)
(1.06941 -11.3693 1.29428e-19)
(1.1016 -11.015 -1.56558e-21)
(1.12598 -10.6596 -8.52753e-20)
(1.14411 -10.3086 1.13383e-19)
(1.15738 -9.96663 5.93488e-20)
(1.167 -9.63719 -4.05653e-21)
(1.17396 -9.32259 7.54006e-20)
(1.17904 -9.02407 -3.72885e-21)
(1.18285 -8.74205 3.09375e-20)
(1.1858 -8.47634 8.25994e-20)
(1.18816 -8.22615 3.17486e-20)
(1.1904 -7.99003 4.85632e-20)
(1.19364 -7.76556 -2.40923e-20)
(1.19534 -7.54937 4.87799e-20)
(2.07193 -14.0534 4.3064e-19)
(1.3255 -13.3491 3.10903e-19)
(1.3385 -12.8468 -4.56393e-19)
(1.42373 -12.4476 -2.24285e-19)
(1.46341 -12.094 1.79987e-19)
(1.49405 -11.7465 3.32521e-19)
(1.51906 -11.3927 -4.09245e-19)
(1.53552 -11.0333 1.07258e-19)
(1.54422 -10.6733 -1.99197e-19)
(1.54698 -10.3182 -1.42807e-19)
(1.54542 -9.97297 1.29481e-19)
(1.5409 -9.64098 -7.15874e-20)
(1.53449 -9.32448 -2.03909e-19)
(1.52698 -9.02458 1.12206e-19)
(1.51896 -8.74161 -3.63758e-20)
(1.51083 -8.4753 -4.45879e-21)
(1.50279 -8.22486 4.4582e-20)
(1.49532 -7.9888 9.21497e-20)
(1.4896 -7.76458 -1.13207e-19)
(1.48242 -7.54892 9.2982e-20)
(2.62512 -13.9821 -2.38382e-19)
(1.85609 -13.3368 1.13275e-19)
(1.85168 -12.8515 1.51304e-19)
(1.92161 -12.4573 2.25009e-19)
(1.94655 -12.1045 -6.96229e-20)
(1.96195 -11.7545 7.46284e-20)
(1.97112 -11.3967 -5.03195e-20)
(1.97146 -11.0329 1.1835e-19)
(1.96409 -10.6689 2.77872e-19)
(1.95115 -10.3105 -1.64608e-19)
(1.93452 -9.96269 -1.02207e-19)
(1.91567 -9.62885 -1.18382e-19)
(1.89573 -9.31108 -4.51144e-20)
(1.87552 -9.01041 1.01522e-19)
(1.85563 -8.72704 -6.4199e-20)
(1.83638 -8.46065 -2.2329e-19)
(1.81792 -8.21042 1.74218e-19)
(1.80075 -7.97484 -1.18298e-19)
(1.78612 -7.7513 -1.4022e-20)
(1.76996 -7.53668 -1.13902e-20)
(3.17611 -13.8896 -3.06072e-19)
(2.38762 -13.3036 -5.58899e-19)
(2.36683 -12.8355 6.66686e-19)
(2.42177 -12.4464 -1.85874e-19)
(2.43192 -12.0946 -5.6595e-19)
(2.43179 -11.7425 -1.24966e-20)
(2.42474 -11.3811 -2.1967e-19)
(2.40855 -11.0136 -6.27687e-20)
(2.38476 -10.6463 -1.73879e-19)
(2.35586 -10.2854 4.14989e-19)
(2.32392 -9.93568 -5.75781e-19)
(2.29058 -9.60069 1.48191e-19)
(2.25701 -9.28233 -2.55705e-19)
(2.22404 -8.98149 3.49904e-19)
(2.19222 -8.69828 -3.28552e-19)
(2.16184 -8.43232 1.76857e-19)
(2.13298 -8.18277 -1.05328e-19)
(2.10615 -7.94811 2.89317e-20)
(2.08268 -7.72566 1.16529e-19)
(2.0575 -7.51262 -1.25383e-20)
(3.72384 -13.7757 8.47837e-20)
(2.91914 -13.2493 5.27452e-19)
(2.88305 -12.7983 3.48033e-19)
(2.9233 -12.4144 -2.40831e-19)
(2.91859 -12.0638 6.24397e-19)
(2.90264 -11.7101 9.77557e-20)
(2.879 -11.3458 4.44504e-21)
(2.84592 -10.9753 -2.92915e-19)
(2.8054 -10.6054 5.64188e-20)
(2.76027 -10.2426 4.04607e-19)
(2.71286 -9.89189 -1.96303e-19)
(2.6649 -9.55647 3.6836e-19)
(2.61763 -9.2382 -9.64261e-20)
(2.57187 -8.93782 -8.54949e-20)
(2.52812 -8.65534 1.88597e-19)
(2.48661 -8.39031 2.11329e-19)
(2.44738 -8.14191 -1.1719e-19)
(2.41098 -7.90861 9.49181e-20)
(2.37876 -7.68768 -2.63258e-19)
(2.34455 -7.47676 3.37246e-19)
(4.26757 -13.6404 7.18574e-19)
(3.44988 -13.1738 -9.05053e-19)
(3.39952 -12.7398 -8.03157e-19)
(3.4253 -12.3613 8.60453e-19)
(3.40562 -12.0122 -2.85478e-19)
(3.37359 -11.6572 -4.38208e-19)
(3.333 -11.2906 4.13179e-19)
(3.28268 -10.9177 2.26774e-20)
(3.22515 -10.5461 1.4901e-19)
(3.1636 -10.1823 -4.82809e-19)
(3.10057 -9.83128 2.47396e-19)
(3.03791 -9.49618 -2.05189e-19)
(2.9769 -9.17868 5.8464e-19)
(2.91833 -8.8794 -3.22252e-19)
(2.86266 -8.59822 2.27448e-20)
(2.81007 -8.33465 -4.62489e-20)
(2.76053 -8.08787 -4.66889e-20)
(2.71464 -7.85636 8.00183e-20)
(2.67379 -7.63736 5.40283e-20)
(2.63058 -7.42915 -5.86963e-20)
(4.80642 -13.4838 -1.04472e-18)
(3.97894 -13.0767 6.05415e-19)
(3.9153 -12.6598 1.26981e-19)
(3.92682 -12.2867 -2.26605e-20)
(3.89208 -11.9394 -3.8275e-21)
(3.84366 -11.5837 3.06337e-19)
(3.78579 -11.2154 -8.13649e-19)
(3.71795 -10.841 -9.14649e-20)
(3.64316 -10.4684 -1.78417e-19)
(3.56501 -10.1044 2.20479e-19)
(3.48626 -9.75388 1.25716e-20)
(3.40886 -9.41983 2.296e-19)
(3.3341 -9.10381 -1.50687e-20)
(3.26274 -8.80627 -5.53996e-19)
(3.1952 -8.52698 -1.2968e-19)
(3.13158 -8.26539 5.05023e-19)
(3.07181 -8.02071 -1.89673e-19)
(3.01655 -7.79142 -4.75819e-20)
(2.96719 -7.57479 -7.81563e-21)
(2.91506 -7.36985 3.54953e-20)
(5.33954 -13.306 6.65676e-19)
(4.50542 -12.9581 -6.65596e-19)
(4.42948 -12.5582 -1.00267e-18)
(4.42692 -12.1906 -1.44022e-19)
(4.37699 -11.8453 -4.41492e-19)
(4.31192 -11.4895 -1.37032e-19)
(4.23646 -11.1202 -4.47954e-19)
(4.15081 -10.745 8.2196e-19)
(4.05857 -10.3723 -3.53046e-19)
(3.96369 -10.009 -1.77755e-19)
(3.86914 -9.6597 -8.08428e-20)
(3.77698 -9.32748 2.45242e-19)
(3.68849 -9.01364 -2.07438e-21)
(3.60441 -8.71848 -8.52421e-20)
(3.52505 -8.44167 -1.86432e-19)
(3.45048 -8.1826 -2.23866e-19)
(3.38057 -7.94051 3.19011e-19)
(3.31607 -7.71388 1.32859e-19)
(3.25836 -7.50004 -5.80069e-19)
(3.19741 -7.299 5.28735e-20)
(5.86607 -13.107 -6.75941e-19)
(5.02841 -12.8179 1.56581e-18)
(4.94109 -12.4348 -1.18981e-18)
(4.92462 -12.0728 7.45732e-19)
(4.85938 -11.73 9.55591e-19)
(4.7774 -11.3746 -3.44412e-19)
(4.68407 -11.0049 4.30877e-21)
(4.58037 -10.6298 8.94871e-20)
(4.47051 -10.2579 3.54295e-19)
(4.3588 -9.89596 -3.62226e-19)
(4.24843 -9.54882 -2.25453e-19)
(4.14153 -9.21919 2.41097e-19)
(4.03936 -8.90825 -1.30797e-20)
(3.9426 -8.61613 3.99687e-20)
(3.85152 -8.3424 4.6296e-19)
(3.76609 -8.0864 -2.35022e-19)
(3.68615 -7.84738 4.38162e-20)
(3.61253 -7.62385 -2.9089e-19)
(3.54664 -7.41324 7.81344e-19)
(3.47701 -7.21673 4.12188e-19)
(6.38516 -12.8872 9.72804e-19)
(5.547 -12.6562 2.07011e-19)
(5.44919 -12.2897 4.69842e-19)
(5.41894 -11.9334 -5.11458e-19)
(5.33826 -11.5934 1.18513e-19)
(5.23913 -11.2389 1.02188e-18)
(5.12767 -10.8697 -1.65423e-19)
(5.00573 -10.4955 7.62978e-19)
(4.87811 -10.1251 -5.01156e-19)
(4.74953 -9.76554 2.90148e-19)
(4.62334 -9.42133 6.73595e-19)
(4.50172 -9.09506 -2.03331e-19)
(4.38595 -8.78773 3.4214e-19)
(4.27661 -8.49931 -9.0669e-20)
(4.1739 -8.22926 -4.61494e-19)
(4.0777 -7.97688 6.5117e-19)
(3.98783 -7.74144 -1.77682e-19)
(3.90524 -7.52146 6.60983e-19)
(3.83131 -7.31452 8.30831e-20)
(3.75316 -7.12317 -9.80143e-19)
(6.89599 -12.6466 -2.95956e-18)
(6.06026 -12.4729 5.10298e-19)
(5.9528 -12.1228 -3.85412e-19)
(5.9089 -11.7723 -1.28055e-18)
(5.81266 -11.4355 -2.30036e-19)
(5.69615 -11.0826 -2.46392e-19)
(5.56634 -10.7146 -7.84057e-20)
(5.42599 -10.3421 -5.26478e-19)
(5.28053 -9.97422 -2.82141e-19)
(5.13504 -9.61781 -6.42063e-20)
(4.99306 -9.27734 -1.76287e-19)
(4.85681 -8.9552 2.97885e-19)
(4.72752 -8.65219 1.94097e-19)
(4.6057 -8.36815 -9.74993e-19)
(4.49147 -8.10241 4.10177e-19)
(4.38461 -7.85421 -4.48109e-19)
(4.28493 -7.62285 -2.81353e-19)
(4.1935 -7.40688 2.43581e-19)
(4.11166 -7.20403 1.32325e-19)
(4.02521 -7.01845 -2.69042e-19)
(7.39774 -12.3856 3.78457e-18)
(6.56729 -12.2683 1.80002e-18)
(6.45098 -11.9342 8.71073e-19)
(6.39352 -11.5896 8.642e-19)
(6.2816 -11.2563 -3.96343e-19)
(6.1475 -10.9057 2.19339e-18)
(5.99916 -10.5398 -9.70488e-19)
(5.84026 -10.1698 1.88631e-18)
(5.67691 -9.80527 -7.33361e-19)
(5.51453 -9.45288 1.34446e-18)
(5.35681 -9.11697 6.43506e-19)
(5.20601 -8.79972 3.94229e-19)
(5.0633 -8.50176 -9.73616e-19)
(4.92912 -8.22276 8.52804e-19)
(4.80347 -7.96195 -2.07797e-19)
(4.68607 -7.71853 6.62913e-19)
(4.5767 -7.49182 1.75334e-19)
(4.47657 -7.28033 7.99192e-19)
(4.38703 -7.08202 -1.78195e-19)
(4.29256 -6.90283 -1.33193e-20)
(7.88963 -12.1045 -1.95976e-18)
(7.0672 -12.0424 1.02329e-18)
(6.94276 -11.724 2.0463e-19)
(6.87184 -11.3854 -1.5124e-18)
(6.74412 -11.0562 -1.10584e-19)
(6.59225 -10.7083 -3.00324e-20)
(6.42521 -10.3453 3.29286e-19)
(6.2477 -9.97878 -4.92608e-19)
(6.06644 -9.61844 1.78875e-19)
(5.8872 -9.27093 2.35697e-19)
(5.71383 -8.94037 -3.80274e-19)
(5.54857 -8.62874 -2.68551e-19)
(5.39254 -8.33651 1.49099e-19)
(5.24607 -8.06321 -2.7764e-19)
(5.10908 -7.80796 8.57708e-19)
(4.98122 -7.56994 -9.09892e-19)
(4.86225 -7.34845 -5.85401e-19)
(4.75357 -7.14198 8.44321e-19)
(4.65653 -6.94872 -3.23854e-19)
(4.55437 -6.7768 -4.38247e-19)
(8.37091 -11.8036 -1.00502e-18)
(7.5591 -11.7954 -1.14198e-18)
(7.4272 -11.4924 -2.94156e-19)
(7.34288 -11.1599 1.56983e-18)
(7.19926 -10.8351 -6.97359e-19)
(7.02947 -10.4908 7.22765e-20)
(6.84362 -10.1314 -1.86469e-18)
(6.64745 -9.76921 2.76817e-19)
(6.44832 -9.41395 -4.41281e-19)
(6.25231 -9.07213 3.72773e-19)
(6.06339 -8.74768 -8.67666e-19)
(5.88379 -8.44239 3.79148e-19)
(5.71453 -8.15655 -5.60213e-19)
(5.55584 -7.88957 3.49794e-19)
(5.40753 -7.64048 2.35485e-19)
(5.26917 -7.40842 -2.24344e-19)
(5.14057 -7.1927 -1.02046e-18)
(5.0233 -6.99178 5.72402e-19)
(4.91873 -6.80425 -2.47553e-19)
(4.80892 -6.64077 1.05832e-19)
(8.84087 -11.4832 3.71259e-18)
(8.04213 -11.5277 -7.43152e-19)
(7.90334 -11.2395 -1.06486e-18)
(7.8057 -10.9133 4.51437e-19)
(7.64608 -10.5934 6.4419e-19)
(7.45825 -10.2533 -9.24577e-19)
(7.25352 -9.89834 6.13655e-19)
(7.03869 -9.54134 -8.54458e-19)
(6.82176 -9.192 1.0984e-18)
(6.6091 -8.85668 -1.16495e-18)
(6.40478 -8.53908 5.39765e-19)
(6.21098 -8.24081 -8.9531e-20)
(6.02862 -7.962 -8.59733e-20)
(5.85781 -7.70193 -6.32928e-19)
(5.69823 -7.45957 9.92525e-19)
(5.54932 -7.23402 -2.21246e-20)
(5.41091 -7.02459 -8.06032e-20)
(5.28475 -6.82974 -1.63707e-20)
(5.17207 -6.6486 -3.53043e-20)
(5.05415 -6.49416 -3.20307e-19)
(9.29905 -11.1438 -3.05467e-18)
(8.51554 -11.2394 -4.47062e-19)
(8.37027 -10.9658 -5.62911e-19)
(8.25934 -10.6459 -3.37765e-18)
(8.08366 -10.3312 -1.79798e-18)
(7.87769 -9.9961 2.10079e-18)
(7.65405 -9.64641 -7.48118e-19)
(7.42063 -9.29543 3.86828e-19)
(7.18602 -8.95283 5.95251e-19)
(6.95687 -8.62476 1.59368e-19)
(6.7373 -8.3147 4.05019e-19)
(6.52944 -8.02408 -1.9396e-19)
(6.33411 -7.75291 5.66301e-19)
(6.1513 -7.50036 -4.76948e-19)
(5.98056 -7.26534 1.84015e-19)
(5.82123 -7.04697 -1.31437e-18)
(5.67309 -6.84455 8.66977e-19)
(5.53794 -6.65644 5.65775e-19)
(5.41683 -6.48199 6.17129e-19)
(5.29089 -6.33585 -1.32794e-19)
(9.74541 -10.7865 1.38805e-18)
(8.97883 -10.9312 1.16862e-18)
(8.82715 -10.6712 9.6466e-19)
(8.70287 -10.3578 3.03028e-18)
(8.51107 -10.049 -2.83714e-18)
(8.28691 -9.7195 7.56804e-19)
(8.0444 -9.37592 -7.40782e-22)
(7.79251 -9.03181 -8.05007e-19)
(7.5404 -8.69673 8.0624e-19)
(7.29496 -8.37659 -2.06463e-19)
(7.0603 -8.07467 -2.51797e-19)
(6.83849 -7.79222 -1.28073e-19)
(6.63018 -7.52914 2.8029e-19)
(6.43527 -7.28459 9.55878e-21)
(6.25323 -7.05752 -4.81977e-19)
(6.0834 -6.84716 -5.78664e-19)
(5.92574 -6.6528 -7.87116e-19)
(5.78234 -6.47233 4.2301e-19)
(5.65414 -6.30517 -5.56244e-19)
(5.52227 -6.16911 1.3299e-19)
(10.1801 -10.4117 -1.8654e-19)
(9.43167 -10.6028 -2.53206e-18)
(9.27327 -10.3561 -2.36102e-19)
(9.1354 -10.0495 -4.14288e-20)
(8.92743 -9.74706 5.18601e-19)
(8.68512 -9.42402 1.81582e-18)
(8.42385 -9.0874 -5.22759e-19)
(8.15369 -8.75097 -8.23166e-19)
(7.88437 -8.42413 7.82606e-20)
(7.62293 -8.11253 3.55652e-19)
(7.37345 -7.81921 -3.34933e-19)
(7.13781 -7.54523 -3.71946e-19)
(6.91646 -7.29043 -1.05755e-19)
(6.70903 -7.05396 3.08177e-19)
(6.51481 -6.83496 -1.44224e-18)
(6.33311 -6.63285 6.88568e-19)
(6.16438 -6.44685 2.46238e-19)
(6.01165 -6.27463 -3.11358e-19)
(5.87588 -6.11813 3.39123e-19)
(5.73815 -6.00375 5.26623e-19)
(10.6018 -10.0181 9.81255e-19)
(9.87293 -10.2536 2.45964e-18)
(9.70777 -10.0205 3.46828e-19)
(9.55611 -9.7214 -2.48409e-19)
(9.33198 -9.42618 1.67063e-18)
(9.07164 -9.11037 -4.59543e-19)
(8.79183 -8.78154 -5.57334e-19)
(8.50373 -8.45359 1.4353e-18)
(8.21758 -8.13567 -8.97426e-19)
(7.94058 -7.83316 4.28257e-19)
(7.67673 -7.5488 -6.43046e-20)
(7.42768 -7.28346 -1.11034e-19)
(7.19358 -7.03683 -4.82855e-19)
(6.97365 -6.80803 6.23517e-19)
(6.76662 -6.59623 -1.46074e-18)
(6.57123 -6.4009 6.97446e-19)
(6.38753 -6.22113 -2.07219e-19)
(6.21789 -6.05604 -5.04119e-20)
(6.06091 -5.91508 6.58595e-19)
(5.90183 -5.83145 -1.10616e-18)
(14.9322 0.422652 1.78427e-19)
(14.9185 -0.166047 -5.66709e-20)
(14.8816 -0.751963 -3.03654e-19)
(14.8228 -1.33463 8.1792e-19)
(14.7418 -1.91349 -9.16038e-19)
(14.6384 -2.48777 -4.15307e-19)
(14.5126 -3.05666 3.19307e-19)
(14.3647 -3.61935 4.47246e-19)
(14.1949 -4.17504 -3.38526e-19)
(14.0037 -4.7229 3.36315e-19)
(13.7914 -5.26214 -1.3125e-20)
(13.5583 -5.79196 1.45409e-20)
(13.305 -6.31156 -2.31663e-19)
(13.0317 -6.8202 1.07239e-18)
(12.7391 -7.31713 -1.06405e-18)
(12.4277 -7.80162 7.36313e-19)
(12.0978 -8.27306 -1.03038e-18)
(11.7505 -8.7307 2.49916e-18)
(11.3852 -9.17458 -1.8215e-19)
(11.0055 -9.60294 7.74574e-20)
(14.8961 -0.283971 -3.36577e-20)
(14.8479 -0.868065 -1.96364e-19)
(14.7754 -1.44778 3.84228e-19)
(14.6794 -2.02245 6.1826e-19)
(14.5604 -2.59148 -1.65468e-19)
(14.4185 -3.15405 -8.30992e-19)
(14.2541 -3.70925 1.48377e-18)
(14.0675 -4.25618 -3.06995e-19)
(13.8593 -4.79398 -1.71524e-18)
(13.63 -5.32181 8.19137e-19)
(13.38 -5.83883 2.77115e-19)
(13.11 -6.34424 1.55889e-18)
(12.8205 -6.83726 -2.95417e-18)
(12.5121 -7.31715 4.5893e-20)
(12.1855 -7.78319 7.47389e-19)
(11.8412 -8.23469 1.18873e-18)
(11.4799 -8.67106 5.51261e-19)
(11.1024 -9.09168 -7.46214e-19)
(10.7085 -9.49615 -1.64458e-18)
(10.2996 -9.88371 1.6471e-18)
(14.6722 -0.269616 1.16709e-19)
(14.6291 -0.841865 -1.37845e-19)
(14.5615 -1.41066 9.54466e-20)
(14.4699 -1.97502 -2.80141e-19)
(14.3546 -2.53408 3.5565e-19)
(14.216 -3.0869 8.73556e-19)
(14.0546 -3.63247 -9.42702e-19)
(13.8707 -4.16983 1.47173e-19)
(13.665 -4.69803 6.23244e-19)
(13.4379 -5.21616 1.30465e-18)
(13.1901 -5.72336 -3.0828e-19)
(12.922 -6.21875 2.19544e-18)
(12.6344 -6.70153 1.12006e-19)
(12.328 -7.1709 -2.35995e-18)
(12.0032 -7.6261 -3.17953e-19)
(11.661 -8.06642 5.25991e-19)
(11.3018 -8.49117 -1.31878e-18)
(10.9265 -8.89968 -6.35697e-19)
(10.5353 -9.2913 -1.12658e-18)
(10.1292 -9.66524 1.24107e-18)
(14.279 -0.203042 3.7611e-20)
(14.2467 -0.75727 8.93302e-20)
(14.1905 -1.30919 3.46567e-20)
(14.1104 -1.85765 -8.29906e-19)
(14.0069 -2.40163 5.05225e-19)
(13.8802 -2.9401 -1.55464e-19)
(13.7307 -3.47203 4.76869e-19)
(13.559 -3.99643 -2.56016e-20)
(13.3654 -4.51232 -9.7627e-19)
(13.1505 -5.01875 2.84878e-20)
(12.9149 -5.51481 -5.68272e-19)
(12.659 -5.9996 1.41792e-19)
(12.3836 -6.47227 -2.88931e-18)
(12.0893 -6.93198 1.45253e-18)
(11.7767 -7.37792 -1.34005e-18)
(11.4466 -7.80932 -2.69156e-19)
(11.0995 -8.22542 -3.36548e-18)
(10.7363 -8.62546 3.25673e-18)
(10.3575 -9.00871 -1.55464e-18)
(9.96399 -9.37435 -9.74692e-19)
(13.7906 -0.190682 1.09325e-20)
(13.767 -0.723498 -1.51237e-19)
(13.7202 -1.25482 2.20509e-19)
(13.6504 -1.78353 2.76986e-19)
(13.5578 -2.30853 -3.27357e-19)
(13.4426 -2.82879 1.0495e-18)
(13.3052 -3.34332 6.49255e-19)
(13.1459 -3.8511 -2.08143e-19)
(12.9653 -4.35118 -2.20575e-19)
(12.7637 -4.84259 6.97161e-19)
(12.5417 -5.32441 1.19643e-18)
(12.2997 -5.79574 4.59574e-19)
(12.0385 -6.25569 2.86666e-19)
(11.7586 -6.70341 -8.31749e-19)
(11.4606 -7.13805 -1.97039e-18)
(11.1452 -7.5588 2.09352e-18)
(10.8131 -7.96486 2.18119e-18)
(10.4651 -8.35544 -1.55802e-18)
(10.1017 -8.72974 5.37681e-19)
(9.72385 -9.08697 -1.65192e-19)
(13.2631 -0.186615 2.71848e-20)
(13.2461 -0.696726 -3.64925e-20)
(13.207 -1.20593 -1.94959e-19)
(13.1458 -1.71317 8.71873e-20)
(13.0627 -2.21739 -1.41286e-21)
(12.9579 -2.71758 6.25325e-20)
(12.8316 -3.21278 -5.06788e-19)
(12.6843 -3.70201 3.77858e-19)
(12.5162 -4.18433 -7.6151e-19)
(12.3279 -4.65879 8.11127e-19)
(12.1196 -5.12449 -5.41337e-20)
(11.892 -5.58053 -7.55203e-19)
(11.6456 -6.02604 2.81946e-19)
(11.3809 -6.46016 2.32443e-18)
(11.0986 -6.88204 1.33239e-18)
(10.7993 -7.29086 -9.67392e-19)
(10.4836 -7.68579 -1.4093e-18)
(10.1524 -8.06602 7.20536e-19)
(9.80616 -8.43075 -4.76784e-19)
(9.44571 -8.77915 1.4372e-18)
(12.7351 -0.183035 -1.95332e-20)
(12.7225 -0.670622 9.1393e-20)
(12.689 -1.15771 5.89e-20)
(12.6345 -1.6433 -6.97034e-20)
(12.559 -2.1264 2.97487e-19)
(12.4628 -2.60606 -8.33295e-19)
(12.346 -3.08133 4.78447e-19)
(12.2091 -3.55129 -3.62157e-19)
(12.0522 -4.01504 1.45112e-20)
(11.8758 -4.47166 -5.59484e-19)
(11.6802 -4.92029 8.55784e-19)
(11.466 -5.36006 2.11868e-18)
(11.2336 -5.79012 -2.38091e-18)
(10.9836 -6.20962 -4.52881e-20)
(10.7165 -6.61775 -2.20588e-18)
(10.433 -7.01366 6.41384e-19)
(10.1337 -7.39656 -7.22574e-19)
(9.81928 -7.76561 2.79225e-21)
(9.49039 -8.12002 1.62414e-18)
(9.14768 -8.45893 -1.03598e-20)
(12.2297 -0.181292 -9.6177e-21)
(12.2197 -0.647441 6.36723e-20)
(12.1898 -1.11333 2.0779e-20)
(12.1399 -1.57805 -3.52346e-19)
(12.0701 -2.04065 3.89585e-19)
(11.9805 -2.50022 -3.42831e-19)
(11.8713 -2.95588 9.76614e-19)
(11.7428 -3.40675 -1.04396e-19)
(11.5953 -3.85197 -5.23186e-19)
(11.429 -4.29069 9.85186e-20)
(11.2445 -4.72206 -1.65216e-19)
(11.042 -5.14527 -5.3667e-19)
(10.8221 -5.55951 -7.98213e-19)
(10.5852 -5.96396 -5.27163e-19)
(10.332 -6.35784 -5.4553e-19)
(10.063 -6.74033 -6.35041e-19)
(9.77892 -7.11063 -5.42835e-19)
(9.48028 -7.46793 -8.21894e-19)
(9.16779 -7.81142 1.06041e-19)
(8.84206 -8.14023 6.26031e-20)
(11.758 -0.18062 7.43558e-21)
(11.7491 -0.626836 7.76844e-21)
(11.7214 -1.07292 -7.76414e-21)
(11.6746 -1.51802 -9.80482e-20)
(11.6088 -1.96125 -2.24648e-19)
(11.5242 -2.40175 -1.48594e-19)
(11.4208 -2.83869 -6.93681e-19)
(11.2991 -3.27122 6.44523e-19)
(11.1591 -3.69855 -3.7713e-19)
(11.0013 -4.11988 8.29057e-19)
(10.8259 -4.5344 -1.57832e-19)
(10.6335 -4.94136 1.40808e-18)
(10.4243 -5.33997 6.50248e-20)
(10.1989 -5.72949 1.89401e-18)
(9.95796 -6.10914 -1.31414e-18)
(9.7019 -6.47817 9.25636e-19)
(9.43141 -6.83577 1.41815e-18)
(9.1471 -7.18115 8.23415e-19)
(8.84964 -7.5135 8.83488e-19)
(8.53959 -7.83193 -1.26553e-18)
(11.323 -0.180069 -5.95861e-20)
(11.3145 -0.607952 -1.55784e-21)
(11.2878 -1.03576 2.14495e-19)
(11.243 -1.46268 -1.97375e-19)
(11.1801 -1.88789 1.22386e-19)
(11.0992 -2.31058 4.74669e-19)
(11.0004 -2.72995 -1.55628e-19)
(10.884 -3.14522 -1.48791e-19)
(10.7503 -3.55563 -2.00009e-19)
(10.5994 -3.96043 3.39034e-19)
(10.4317 -4.35887 -4.82705e-19)
(10.2477 -4.75025 -1.01062e-19)
(10.0477 -5.13382 -8.85561e-19)
(9.83231 -5.5089 2.47003e-19)
(9.60194 -5.87476 4.17735e-19)
(9.35723 -6.23067 3.07119e-19)
(9.0988 -6.57587 -5.89913e-19)
(8.82729 -6.90957 1.9281e-19)
(8.54338 -7.23094 -8.8836e-19)
(8.24761 -7.53908 1.0381e-19)
(10.9236 -0.179192 6.16014e-20)
(10.9148 -0.590269 1.64764e-19)
(10.8887 -1.00128 -3.68236e-19)
(10.8452 -1.41146 -2.86783e-19)
(10.7844 -1.82002 -1.47977e-19)
(10.7063 -2.2262 -4.04608e-19)
(10.6112 -2.62924 2.88963e-19)
(10.4991 -3.02842 3.6302e-19)
(10.3705 -3.42301 -7.88672e-19)
(10.2254 -3.8123 3.89156e-19)
(10.0643 -4.19561 3.95799e-19)
(9.88747 -4.57227 4.97279e-19)
(9.69538 -4.94161 -6.88301e-19)
(9.48849 -5.30297 9.67481e-19)
(9.26735 -5.6557 -8.86124e-19)
(9.03253 -5.99911 -1.48191e-19)
(8.78474 -6.33247 -2.60781e-19)
(8.52459 -6.655 1.12692e-18)
(8.25284 -6.96587 8.73572e-19)
(7.97003 -7.2641 -3.56816e-19)
(10.5563 -0.177821 -5.34573e-20)
(10.547 -0.573465 3.19328e-20)
(10.5211 -0.969031 2.35167e-19)
(10.4786 -1.36379 2.84656e-20)
(10.4193 -1.75699 3.3754e-19)
(10.3436 -2.14791 2.79016e-19)
(10.2514 -2.53583 -2.39392e-19)
(10.1431 -2.92007 -3.43049e-19)
(10.0188 -3.29993 2.79993e-19)
(9.87867 -3.67477 2.2415e-19)
(9.72316 -4.04393 -2.23353e-19)
(9.55257 -4.40681 9.50189e-19)
(9.36732 -4.76277 -1.41883e-18)
(9.16786 -5.11125 3.31405e-19)
(8.95478 -5.45161 3.96993e-19)
(8.72864 -5.78327 -6.88476e-19)
(8.49022 -6.10551 -1.40467e-18)
(8.24016 -6.41761 4.60668e-19)
(7.97935 -6.71866 2.79867e-19)
(7.70832 -7.00762 6.47249e-20)
(10.2172 -0.17592 -2.28358e-20)
(10.2074 -0.55733 2.06633e-20)
(10.1816 -0.93864 -1.09906e-19)
(10.1397 -1.31915 -6.49124e-20)
(10.0818 -1.69814 -2.12496e-20)
(10.008 -2.07494 -2.55045e-19)
(9.9185 -2.44884 6.84817e-19)
(9.81335 -2.81921 2.43127e-20)
(9.69281 -3.18539 -3.56532e-21)
(9.5571 -3.54676 -6.04219e-19)
(9.40653 -3.90272 3.77784e-19)
(9.24142 -4.25272 -3.35562e-19)
(9.06218 -4.59617 6.38552e-19)
(8.86926 -4.9326 -9.61395e-19)
(8.66327 -5.26138 -3.06415e-20)
(8.44475 -5.58211 -5.84204e-19)
(8.21463 -5.89401 1.15734e-18)
(7.97353 -6.19653 -2.87876e-19)
(7.72261 -6.48859 -1.0568e-19)
(7.46239 -6.7691 -3.90237e-19)
(9.90239 -0.17352 6.96707e-20)
(9.89205 -0.541731 -5.11534e-21)
(9.86628 -0.909818 1.39519e-19)
(9.82506 -1.27711 -1.44674e-19)
(9.7684 -1.64292 1.72036e-19)
(9.6964 -2.00658 -1.03937e-19)
(9.6092 -2.36746 -3.78613e-19)
(9.50694 -2.72492 1.54573e-19)
(9.38982 -3.07834 1.43043e-19)
(9.25805 -3.42716 -1.94701e-19)
(9.11192 -3.77079 -3.57568e-19)
(8.95173 -4.10875 -2.23948e-20)
(8.77789 -4.44048 -6.29784e-19)
(8.59078 -4.76563 7.00073e-19)
(8.39109 -5.08358 3.65026e-19)
(8.17929 -5.39417 1.36048e-18)
(7.95654 -5.69649 -1.9604e-18)
(7.72334 -5.99037 5.10472e-19)
(7.48142 -6.27437 1.27466e-18)
(7.23112 -6.5475 1.01297e-18)
(9.60849 -0.170678 -5.23951e-20)
(9.5977 -0.52658 3.94729e-20)
(9.57202 -0.882337 -4.99426e-20)
(9.5314 -1.2373 -3.08118e-19)
(9.47588 -1.59081 3.11009e-19)
(9.40556 -1.94223 1.0869e-19)
(9.32053 -2.29094 2.71826e-20)
(9.22095 -2.63634 3.0364e-19)
(9.107 -2.97784 -6.96443e-19)
(8.97886 -3.31491 5.54332e-19)
(8.83681 -3.64699 -5.92257e-20)
(8.68111 -3.97367 9.11279e-19)
(8.51217 -4.29438 -1.14922e-18)
(8.3303 -4.60897 1.06652e-21)
(8.13626 -4.91673 -6.3881e-19)
(7.93036 -5.21794 7.98389e-20)
(7.71416 -5.51136 1.12873e-18)
(7.48779 -5.79763 -9.42333e-19)
(7.25416 -6.07452 -2.51543e-19)
(7.01284 -6.34168 -1.65981e-18)
(9.33263 -0.167484 1.48156e-20)
(9.32146 -0.511835 1.71736e-21)
(9.29589 -0.856024 -1.13674e-19)
(9.25588 -1.19942 4.76774e-20)
(9.20148 -1.5414 1.01722e-19)
(9.13274 -1.88133 1.45785e-19)
(9.0498 -2.21863 -5.67542e-20)
(8.95275 -2.55271 1.40549e-19)
(8.84179 -2.88302 -2.55721e-19)
(8.71707 -3.20906 1.78108e-19)
(8.57884 -3.53027 -1.29726e-19)
(8.42732 -3.84633 -6.65213e-20)
(8.26292 -4.15666 -1.28955e-19)
(8.08583 -4.46131 -9.5942e-20)
(7.89691 -4.75943 2.38811e-19)
(7.69618 -5.05196 -2.3977e-20)
(7.48581 -5.33703 -9.53532e-19)
(7.26509 -5.61688 -1.68984e-19)
(7.03919 -5.88746 1.00654e-18)
(6.80561 -6.15062 5.19947e-19)
(9.07239 -0.164072 2.01218e-21)
(9.0609 -0.497504 3.16823e-20)
(9.03548 -0.830761 -9.3373e-22)
(8.9961 -1.16323 1.11301e-19)
(8.9428 -1.4943 -2.20387e-19)
(8.87563 -1.82338 -2.3801e-19)
(8.79471 -2.14989 3.23887e-19)
(8.70014 -2.47328 -2.20397e-19)
(8.59207 -2.79301 -1.17837e-20)
(8.47065 -3.10861 2.4329e-19)
(8.33612 -3.41955 8.90642e-21)
(8.18861 -3.72555 4.37217e-19)
(8.02856 -4.02603 -1.95893e-19)
(7.85595 -4.32124 -2.37536e-19)
(7.67182 -4.61014 -6.55356e-19)
(7.47564 -4.89456 -5.61816e-20)
(7.2705 -5.17165 -6.48562e-19)
(7.0541 -5.4465 4.0241e-19)
(6.83563 -5.71132 6.19362e-19)
(6.608 -5.97318 -3.69049e-19)
(8.82576 -0.1603 -2.96247e-20)
(8.81401 -0.48346 6.30889e-20)
(8.78878 -0.806422 1.0508e-19)
(8.75005 -1.12859 -1.17415e-19)
(8.69787 -1.44936 1.8194e-19)
(8.63228 -1.76818 -5.94195e-20)
(8.55339 -2.08448 -7.88774e-20)
(8.46128 -2.39774 -5.54604e-20)
(8.35612 -2.70744 -1.89838e-21)
(8.23801 -3.01314 -1.50353e-19)
(8.10718 -3.31432 4.87591e-20)
(7.96368 -3.61076 2.18046e-19)
(7.80798 -3.90184 5.02858e-19)
(7.6398 -4.18802 9.09513e-19)
(7.4604 -4.46801 -9.94613e-20)
(7.26836 -4.74467 1.03746e-18)
(7.06809 -5.0139 -4.36372e-19)
(6.85436 -5.28542 6.14335e-19)
(6.64311 -5.54529 3.502e-19)
(6.41794 -5.81086 -1.97402e-19)
(8.5909 -0.155573 1.19999e-20)
(8.57897 -0.469382 -3.17554e-20)
(8.55399 -0.782987 -2.28841e-19)
(8.51596 -1.0958 -1.8915e-19)
(8.4649 -1.40723 2.26592e-19)
(8.40088 -1.71675 3.38642e-19)
(8.32399 -2.02382 2.2251e-20)
(8.2343 -2.32794 -1.92094e-19)
(8.13197 -2.62861 -2.68743e-19)
(8.01707 -2.92541 4.15232e-19)
(7.88984 -3.21785 -2.88047e-20)
(7.7502 -3.50573 -8.2381e-19)
(7.59872 -3.78844 -8.31144e-19)
(7.43469 -4.06651 3.15276e-19)
(7.25982 -4.33849 3.75625e-19)
(7.07119 -4.60804 -3.66786e-20)
(6.87513 -4.86977 -3.00505e-19)
(6.66114 -5.13946 -2.36923e-19)
(6.45573 -5.39619 -3.09063e-19)
(6.22344 -5.67918 5.12132e-19)
(8.366 -0.151623 -3.65551e-20)
(8.35393 -0.456373 6.33313e-20)
(8.32928 -0.761124 3.95509e-20)
(8.29203 -1.0653 6.27103e-20)
(8.24218 -1.36834 -2.38085e-19)
(8.17976 -1.66972 -2.91322e-19)
(8.10484 -1.96894 -6.78625e-20)
(8.01746 -2.26552 3.59784e-19)
(7.91775 -2.55897 1.75716e-19)
(7.8057 -2.84889 8.55686e-20)
(7.68159 -3.13481 -3.251e-19)
(7.54511 -3.41651 6.40626e-19)
(7.39702 -3.69339 -6.16276e-19)
(7.23598 -3.96597 -1.50773e-19)
(7.06445 -4.23269 -1.90681e-19)
(6.87717 -4.49748 -2.34061e-20)
(6.68365 -4.75376 -3.13328e-19)
(6.46398 -5.02224 3.98207e-19)
(6.2619 -5.27382 2.24672e-19)
(6.0079 -5.59545 -1.17558e-18)
(10.3689 10.9757 1.65319e-18)
(10.7926 10.5552 -2.48076e-18)
(11.1976 10.1192 8.53753e-19)
(11.585 9.66915 1.91226e-18)
(11.954 9.20504 1.44163e-19)
(12.3038 8.72692 -1.33347e-18)
(12.6335 8.2353 -2.76524e-19)
(12.9426 7.73094 -1.28315e-18)
(13.2307 7.21467 -7.00678e-20)
(13.4973 6.68734 4.86358e-19)
(13.742 6.14986 5.97816e-19)
(13.9646 5.60315 -9.59957e-19)
(14.1645 5.04815 4.91936e-19)
(14.3417 4.48583 1.40627e-18)
(14.4959 3.91717 -2.50372e-19)
(14.627 3.34316 -8.23711e-19)
(14.7348 2.76468 1.10099e-18)
(14.8194 2.18294 -6.76033e-19)
(14.8806 1.5981 -1.01088e-19)
(14.9193 1.01284 -7.09621e-20)
(10.8212 10.3633 9.0526e-19)
(11.2317 9.94008 -2.65845e-18)
(11.6225 9.50027 -1.53578e-18)
(11.994 9.04496 6.74867e-19)
(12.346 8.57452 -1.66664e-18)
(12.6776 8.08945 9.60053e-19)
(12.9883 7.59052 1.80308e-19)
(13.2773 7.07868 -1.39064e-18)
(13.5442 6.55487 5.01607e-19)
(13.7885 6.02011 3.63202e-19)
(14.0097 5.4754 1.21724e-18)
(14.2075 4.9218 -1.02702e-18)
(14.3815 4.36039 -5.34357e-19)
(14.5314 3.79227 1.17025e-18)
(14.6571 3.21852 -6.75377e-19)
(14.7584 2.64027 1.28183e-19)
(14.8352 2.05851 -4.29434e-19)
(14.8876 1.47446 -1.01858e-20)
(14.9153 0.888688 -2.13158e-19)
(14.9187 0.302648 5.68222e-20)
(10.5476 10.0288 1.87811e-19)
(10.9548 9.63118 2.767e-19)
(11.3441 9.21589 2.28101e-18)
(11.715 8.78371 -7.26049e-19)
(12.067 8.33527 2.56479e-20)
(12.3994 7.87133 1.32352e-18)
(12.7114 7.39277 -3.96675e-19)
(13.0025 6.90053 -1.822e-18)
(13.2719 6.39558 2.06884e-18)
(13.5193 5.87892 -1.25486e-18)
(13.744 5.35158 -5.55707e-19)
(13.9455 4.81462 -9.07167e-19)
(14.1236 4.26913 4.76239e-19)
(14.2778 3.71621 -5.21344e-19)
(14.4079 3.15696 3.88354e-19)
(14.5137 2.59254 -8.22556e-19)
(14.595 2.02398 8.63606e-19)
(14.6517 1.45247 3.58142e-19)
(14.6835 0.878906 -6.4223e-20)
(14.6905 0.304597 7.61566e-20)
(10.117 9.61422 -1.34979e-18)
(10.5147 9.24425 -1.04424e-19)
(10.8965 8.85647 4.92205e-19)
(11.2614 8.45149 -1.10283e-18)
(11.6085 8.03004 1.92224e-18)
(11.9373 7.5929 6.00435e-19)
(12.247 7.1409 -3.26751e-19)
(12.537 6.67492 -1.17653e-19)
(12.8064 6.19586 1.59531e-18)
(13.0549 5.70467 6.58959e-19)
(13.2818 5.20231 1.29655e-18)
(13.4866 4.68979 -2.97082e-19)
(13.6689 4.16816 -1.29208e-19)
(13.8283 3.63848 -3.94554e-19)
(13.9643 3.10182 6.50758e-19)
(14.0769 2.55928 -3.17097e-19)
(14.1656 2.01193 -3.26335e-19)
(14.2304 1.4609 1.30104e-19)
(14.2709 0.907263 -8.55323e-21)
(14.2872 0.352239 -1.96423e-20)
(9.68987 9.133 1.31041e-18)
(10.0726 8.78688 2.10666e-19)
(10.4408 8.42346 -2.6141e-18)
(10.7934 8.04326 -8.1024e-19)
(11.1296 7.64693 -3.63378e-19)
(11.4487 7.23521 -1.65575e-18)
(11.7499 6.80885 -9.16369e-19)
(12.0327 6.36865 -6.80997e-19)
(12.2963 5.91543 8.26756e-19)
(12.5402 5.45008 -3.00572e-19)
(12.7637 4.97348 5.28038e-19)
(12.9664 4.4866 7.37422e-20)
(13.1478 3.9904 1.27162e-19)
(13.3075 3.48589 -1.30168e-18)
(13.445 2.97408 -2.41176e-19)
(13.5601 2.45601 1.38339e-19)
(13.6525 1.93274 -7.23125e-20)
(13.7219 1.40534 1.19739e-19)
(13.7682 0.874878 -1.43038e-19)
(13.7912 0.34249 1.96426e-20)
(9.27811 8.66358 -2.71636e-19)
(9.6439 8.33795 3.35663e-20)
(9.99626 7.99581 1.08753e-18)
(10.3342 7.63756 -2.37362e-19)
(10.6568 7.26376 6.79277e-19)
(10.9634 6.87508 -2.22959e-18)
(11.2533 6.47221 1.50051e-18)
(11.526 6.05589 -2.72234e-19)
(11.7807 5.62688 -2.83453e-20)
(12.0168 5.18598 3.09254e-19)
(12.2339 4.73404 6.07788e-19)
(12.4314 4.27194 -1.06035e-18)
(12.6088 3.8006 5.37437e-19)
(12.7658 3.32094 7.85513e-19)
(12.9018 2.83393 2.64282e-20)
(13.0166 2.34054 -3.14886e-19)
(13.1099 1.84177 -2.66877e-20)
(13.1813 1.33863 -6.4875e-20)
(13.2308 0.832147 1.60671e-20)
(13.2581 0.323366 -1.31456e-20)
(8.89726 8.23166 4.77407e-19)
(9.24599 7.92347 2.99876e-19)
(9.5821 7.59957 1.8045e-19)
(9.90465 7.26031 -1.11857e-18)
(10.2128 6.90617 -1.03792e-18)
(10.5059 6.53776 2.36099e-18)
(10.7833 6.15573 2.33652e-19)
(11.0445 5.76076 2.26566e-19)
(11.2888 5.35354 7.33497e-19)
(11.5156 4.93485 -1.14977e-18)
(11.7244 4.50548 1.80771e-19)
(11.9148 4.06624 5.00198e-19)
(12.0863 3.61799 -3.63909e-19)
(12.2385 3.16161 -1.53443e-19)
(12.3709 2.69799 6.00954e-19)
(12.4832 2.22806 -1.4036e-20)
(12.5753 1.75274 -2.23243e-20)
(12.6466 1.273 -7.04847e-20)
(12.6972 0.789797 1.14301e-20)
(12.7267 0.304105 7.19735e-20)
(8.55514 7.84219 -6.56704e-19)
(8.88751 7.54873 8.30663e-19)