/*--------------------------------*- C++ -*----------------------------------*\
  =========                 |
  \\      /  F ield         | OpenFOAM: The Open Source CFD Toolbox
   \\    /   O peration     | Website:  https://openfoam.org
    \\  /    A nd           | Version:  6.0
     \\/     M anipulation  |
\*---------------------------------------------------------------------------*/
FoamFile
{
    version     2.0;
    format      ascii;
    class       surfaceScalarField;
    location    "1";
    object      phi;
}
// * * * * * * * * * * * * * * * * * * * * * * * * * * * * * * * * * * * * * //

dimensions      [0 3 -1 0 0 0 0];

internalField   nonuniform List<scalar> 
38030
(
-9.9053e-06
-0.00803009
0.00803999
-2.937e-05
-0.00748859
0.00750806
-5.3499e-05
-0.00700169
0.00702582
-7.80222e-05
-0.00656533
0.00658986
-9.91798e-05
-0.00617509
0.00619624
-0.000113771
-0.00582644
0.00584103
-0.000119087
-0.005515
0.00552031
-0.000112832
-0.00523661
0.00523035
-9.30718e-05
-0.00498737
0.00496761
-5.81801e-05
-0.00476369
0.00472879
-6.80289e-06
-0.00456227
0.00451089
6.21719e-05
-0.00438013
0.00431116
0.000149638
-0.0042146
0.00412713
0.000256289
-0.00406325
0.0039566
0.000382631
-0.00392395
0.00379761
0.000528996
-0.00379481
0.00364845
0.000695548
-0.00367415
0.0035076
0.00088229
-0.0035605
0.00337376
0.00108907
-0.00345258
0.0032458
0.00131559
-0.00334929
0.00312277
0.00156139
-0.00324967
0.00300387
0.00182588
-0.00315293
0.00288844
0.00210833
-0.00305845
0.002776
0.00240779
-0.00296573
0.00266627
0.00272322
-0.00287443
0.00255901
0.00305339
-0.00278416
0.00245399
0.003397
-0.00269457
0.00235095
0.00375269
-0.00260537
0.00224968
0.00411899
-0.00251636
0.00215006
-0.00242739
0.00205203
0.00449435
-8.73117e-06
-0.00802135
-2.74804e-05
-0.00746984
-5.06229e-05
-0.00697855
-7.37013e-05
-0.00654226
-9.29818e-05
-0.0061558
-0.000105316
-0.0058141
-0.000108047
-0.00551227
-9.89341e-05
-0.00524572
-7.60905e-05
-0.00501021
-3.79368e-05
-0.00480184
1.68385e-05
-0.00461704
8.93088e-05
-0.0044526
0.000180333
-0.00430562
0.000290574
-0.00417349
0.000420513
-0.00405389
0.000570457
-0.00394476
0.000740553
-0.00384425
0.00093079
-0.00375074
0.001141
-0.00366279
0.00137088
-0.00357917
0.00161997
-0.00349876
0.00188767
-0.00342063
0.00217322
-0.003344
0.00247572
-0.00326823
0.0027941
-0.0031928
0.00312716
-0.00311722
0.00347361
-0.00304102
0.00383208
-0.00296384
0.00420109
-0.00288537
-0.00280541
0.00457911
-8.1251e-06
-0.00801323
-2.57253e-05
-0.00745224
-4.72624e-05
-0.00695701
-6.82383e-05
-0.00652128
-8.49339e-05
-0.00613911
-9.42435e-05
-0.00580479
-9.35635e-05
-0.00551295
-8.0708e-05
-0.00525858
-5.38455e-05
-0.00503708
-1.1448e-05
-0.00484424
4.77479e-05
-0.00467624
0.000124772
-0.00452963
0.000220445
-0.00440129
0.000335394
-0.00428844
0.000470072
-0.00418857
0.000624763
-0.00409945
0.000799593
-0.00401908
0.000994535
-0.00394568
0.00120941
-0.00387767
0.00144391
-0.00381366
0.00169756
-0.00375241
0.00196975
-0.00369282
0.00225973
-0.00363398
0.00256659
-0.00357509
0.00288927
-0.00351549
0.0032266
-0.00345454
0.00357729
-0.00339171
0.00393995
-0.0033265
0.00431313
-0.00325855
-0.00318754
0.00469525
-7.60671e-06
-0.00800562
-2.38488e-05
-0.007436
-4.33371e-05
-0.00693752
-6.16374e-05
-0.00650298
-7.50841e-05
-0.00612566
-8.06304e-05
-0.00579925
-7.5735e-05
-0.00551784
-5.82758e-05
-0.00527604
-2.64823e-05
-0.00506887
2.11151e-05
-0.00489183
8.57265e-05
-0.00474085
0.000168333
-0.00461223
0.000269712
-0.00450267
0.000390455
-0.00440918
0.000530979
-0.0043291
0.000691545
-0.00426001
0.000872255
-0.00419979
0.00107307
-0.00414649
0.00129379
-0.0040984
0.00153411
-0.00405398
0.00179354
-0.00401184
0.00207148
-0.00397076
0.00236716
-0.00392966
0.00267967
-0.0038876
0.00300797
-0.00384379
0.00335088
-0.00379746
0.00370714
-0.00374796
0.00407535
-0.00369472
0.00445405
-0.00363725
-0.00357514
0.00484165
-7.05082e-06
-0.00799857
-2.17301e-05
-0.00742132
-3.87881e-05
-0.00692046
-5.38955e-05
-0.00648787
-6.34721e-05
-0.00611609
-6.45509e-05
-0.00579817
-5.46676e-05
-0.00552773
-3.17735e-05
-0.00529893
5.83157e-06
-0.00510647
5.95527e-05
-0.00494556
0.00013054
-0.00481184
0.000219721
-0.00470142
0.000327826
-0.00461078
0.000455402
-0.00453676
0.000602834
-0.00447653
0.000770351
-0.00442753
0.000958033
-0.00438747
0.00116582
-0.00435428
0.00139351
-0.00432609
0.00164077
-0.00430124
0.00190713
-0.0042782
0.00219196
-0.0042556
0.00249453
-0.00423223
0.00281393
-0.004207
0.00314909
-0.00417895
0.00349886
-0.00414723
0.00386195
-0.00411105
0.00423697
-0.00406974
0.00462245
-0.00402273
-0.00396948
0.00501679
-6.42206e-06
-0.00799215
-1.93235e-05
-0.00740842
-3.35926e-05
-0.00690619
-4.50243e-05
-0.00647644
-5.01467e-05
-0.00611096
-4.6091e-05
-0.00580222
-3.04839e-05
-0.00554333
-1.36183e-06
-0.00532805
4.28966e-05
-0.00515073
0.000103624
-0.00500628
0.000181903
-0.00489012
0.000278604
-0.00479812
0.000394401
-0.00472657
0.000529799
-0.00467216
0.000685142
-0.00463187
0.000860626
-0.00460301
0.0010563
-0.00458315
0.0012721
-0.00457007
0.00150779
-0.00456178
0.00176303
-0.00455648
0.00203734
-0.00455251
0.00233014
-0.00454839
0.00264065
-0.00454275
0.00296802
-0.00453437
0.0033112
-0.00452213
0.00366898
-0.00450501
0.00404007
-0.00448214
0.0044231
-0.00445276
0.00481654
-0.00441617
-0.00437175
0.00521881
-5.71047e-06
-0.00798644
-1.66169e-05
-0.00739751
-2.77538e-05
-0.00689506
-3.50546e-05
-0.00646914
-3.51725e-05
-0.00611085
-2.53526e-05
-0.00581204
-3.32584e-06
-0.00556536
3.27752e-05
-0.00536415
8.44838e-05
-0.00520244
0.000153051
-0.00507485
0.000239489
-0.00497655
0.000344599
-0.00490323
0.000469001
-0.00485097
0.000613146
-0.0048163
0.000777338
-0.00479606
0.000961735
-0.00478741
0.00116637
-0.00478778
0.00139112
-0.00479483
0.00163578
-0.00480644
0.00189997
-0.00482067
0.00218322
-0.00483576
0.00248493
-0.00485009
0.00280436
-0.00486218
0.00314066
-0.00487066
0.00349278
-0.00487425
0.00385956
-0.00487179
0.0042397
-0.00486228
0.00463177
-0.00484484
0.00503427
-0.00481867
-0.00478303
0.00544556
-4.91639e-06
-0.00798152
-1.36149e-05
-0.00738882
-2.12915e-05
-0.00688738
-2.40312e-05
-0.0064664
-1.86268e-05
-0.00611625
-2.45045e-06
-0.00582822
2.66503e-05
-0.00559446
7.04364e-05
-0.00540794
0.000130344
-0.00526235
0.000207534
-0.00515204
0.00030294
-0.00507196
0.000417291
-0.00501758
0.000551143
-0.00498483
0.000704893
-0.00497005
0.000878798
-0.00496997
0.00107298
-0.00498159
0.00128743
-0.00500223
0.00152203
-0.00502942
0.00177653
-0.00506093
0.00205056
-0.0050947
0.00234364
-0.00512884
0.00265516
-0.00516162
0.00298439
-0.00519142
0.00333047
-0.00521674
0.00369239
-0.00523617
0.00406902
-0.00524842
0.00445905
-0.0052523
0.00486107
-0.00524686
0.00527352
-0.00523113
-0.00520424
0.00569472
-4.04375e-06
-0.00797748
-1.03309e-05
-0.00738253
-1.42359e-05
-0.00688348
-1.20097e-05
-0.00646863
-5.97209e-07
-0.00612766
2.24899e-05
-0.00585131
5.92764e-05
-0.00563125
0.000111406
-0.00546007
0.000180209
-0.00533115
0.000266751
-0.00523858
0.000371875
-0.00517708
0.000496233
-0.00514194
0.000640313
-0.00512891
0.000804451
-0.00513419
0.000988854
-0.00515437
0.0011936
-0.00518634
0.00141866
-0.00522729
0.00166387
-0.00527464
0.00192898
-0.00532604
0.00221361
-0.00537933
0.00251727
-0.00543251
0.00283936
-0.00548371
0.00317914
-0.00553119
0.00353577
-0.00557336
0.00390824
-0.00560865
0.00429544
-0.00563562
0.0046961
-0.00565297
0.0051088
-0.00565955
0.00553193
-0.00565426
-0.0056361
0.00596379
-3.0982e-06
-0.00797438
-6.78223e-06
-0.00737884
-6.62363e-06
-0.00688364
9.47458e-07
-0.0064762
1.88211e-05
-0.00614554
4.93347e-05
-0.00588182
9.43749e-05
-0.00567629
0.00015546
-0.00552115
0.000233802
-0.00540949
0.000330365
-0.00533514
0.000445894
-0.00529261
0.000580959
-0.005277
0.000735971
-0.00528392
0.000911201
-0.00530942
0.0011068
-0.00534997
0.0013228
-0.00540234
0.00155914
-0.00546362
0.00181562
-0.00553113
0.00209199
-0.00560241
0.00238784
-0.00567519
0.00270269
-0.00574736
0.00303594
-0.00581695
0.00338686
-0.00588212
0.00375462
-0.00594112
0.00413823
-0.00599226
0.00453662
-0.00603401
0.00494851
-0.00606485
0.00537245
-0.00608349
0.00580686
-0.00608867
-0.00607921
0.00624997
-2.08539e-06
-0.0079723
-2.9882e-06
-0.00737794
1.50585e-06
-0.00688813
1.47735e-05
-0.00648946
3.95279e-05
-0.00617029
7.79446e-05
-0.00592024
0.000131762
-0.00573011
0.000202363
-0.00559176
0.000290836
-0.00549797
0.000398029
-0.00544234
0.000524588
-0.00541917
0.000670989
-0.0054234
0.000837561
-0.00545049
0.0010245
-0.00549637
0.00123191
-0.00555737
0.00145976
-0.00563019
0.00170794
-0.0057118
0.00197626
-0.00579944
0.0022644
-0.00589055
0.00257198
-0.00598277
0.0028985
-0.00607388
0.00324336
-0.00616182
0.00360586
-0.00624462
0.00398517
-0.00632042
0.00438035
-0.00638745
0.0047903
-0.00644396
0.0052138
-0.00648835
0.00564941
-0.0065191
0.00609551
-0.00653476
-0.00653399
0.00655028
-1.01104e-06
-0.00797128
1.03124e-06
-0.00737998
1.01114e-05
-0.00689721
2.93995e-05
-0.00650875
6.14205e-05
-0.00620231
0.000108177
-0.00596699
0.000171251
-0.00579318
0.000251878
-0.00567238
0.000351017
-0.00559711
0.000469392
-0.00556071
0.00060754
-0.00555732
0.000765836
-0.0055817
0.00094452
-0.00562917
0.00114372
-0.00569556
0.00136344
-0.0057771
0.00160364
-0.00587038
0.00186414
-0.0059723
0.00214471
-0.00608001
0.00244503
-0.00619087
0.0027647
-0.00630243
0.00310322
-0.0064124
0.00346001
-0.00651861
0.00383437
-0.00661898
0.0042255
-0.00671155
0.00463248
-0.00679442
0.00505424
-0.00686572
0.00548958
-0.00692369
0.00593708
-0.0069666
0.00639509
-0.00699278
-0.00700071
0.00686182
1.19056e-07
-0.0079714
5.25628e-06
-0.00738512
1.91514e-05
-0.0069111
4.4756e-05
-0.00653436
8.43952e-05
-0.00624195
0.00013989
-0.00602249
0.000212654
-0.00586594
0.00030377
-0.0057635
0.000414054
-0.00570739
0.000544102
-0.00569076
0.000694332
-0.00570755
0.000865012
-0.00575238
0.00105628
-0.00582044
0.00126819
-0.00590747
0.00150067
-0.00600958
0.0017536
-0.00612331
0.00202677
-0.00624548
0.00231991
-0.00637315
0.00263269
-0.00650364
0.00296468
-0.00663442
0.0033154
-0.00676312
0.00368427
-0.00688748
0.00407062
-0.00700534
0.00447367
-0.0071146
0.00489251
-0.00721326
0.00532614
-0.00729935
0.00577333
-0.00737088
0.00623273
-0.00742601
0.00670272
-0.00746277
-0.00747944
0.00718145
1.29952e-06
-0.0079727
9.66709e-06
-0.00739349
2.8585e-05
-0.00693002
6.07739e-05
-0.00656655
0.000108349
-0.00628953
0.00017294
-0.00608708
0.000255783
-0.00594879
0.0003578
-0.00586552
0.000479656
-0.00582925
0.00062181
-0.00583292
0.000784552
-0.00587029
0.000968034
-0.00593586
0.00117229
-0.0060247
0.00139728
-0.00613245
0.00164285
-0.00625516
0.00190882
-0.00638928
0.00219491
-0.00653157
0.00250083
-0.00667907
0.0028262
-0.00682901
0.0031706
-0.00697883
0.00353355
-0.00712607
0.00391448
-0.00726842
0.00431276
-0.00740361
0.00472764
-0.00752948
0.00515824
-0.00764387
0.00560358
-0.00774468
0.00606248
-0.00782979
0.00653363
-0.00789716
0.00701543
-0.00794457
-0.00796997
0.00750597
2.52504e-06
-0.00797523
1.42447e-05
-0.00740521
3.83718e-05
-0.00695415
7.73854e-05
-0.00660556
0.000133181
-0.00634532
0.000207187
-0.00616108
0.000300455
-0.00604205
0.000413736
-0.0059788
0.000547537
-0.00596305
0.000702171
-0.00598755
0.000877793
-0.00604592
0.00107443
-0.0061325
0.00129201
-0.00624228
0.00153037
-0.00637081
0.00178929
-0.00651408
0.00206849
-0.00666848
0.00236766
-0.00683074
0.00268643
-0.00699784
0.00302442
-0.007167
0.00338118
-0.00733558
0.00375623
-0.00750113
0.00414904
-0.00766123
0.00455901
-0.00781358
0.00498542
-0.00795589
0.00542746
-0.00808591
0.00588417
-0.00820138
0.00635445
-0.00830007
0.00683694
-0.00837966
0.00733014
-0.00843776
-0.00847195
0.00783212
3.79068e-06
-0.00797902
1.89707e-05
-0.00742039
4.84728e-05
-0.00698365
9.45245e-05
-0.00665161
0.000158792
-0.00640959
0.000242494
-0.00624479
0.000346489
-0.00614605
0.00047135
-0.00610366
0.000617418
-0.00610912
0.000784851
-0.00615498
0.000973661
-0.00623473
0.00118374
-0.00634258
0.00141489
-0.00647343
0.00166685
-0.00662277
0.00193929
-0.00678652
0.00223185
-0.00696104
0.00254414
-0.00714303
0.00287575
-0.00732945
0.00322624
-0.00751749
0.00359517
-0.00770451
0.00398206
-0.00788801
0.00438639
-0.00806556
0.0048076
-0.00823479
0.00524504
-0.00839333
0.00569796
-0.00853883
0.00616545
-0.00866888
0.00664646
-0.00878107
0.00713972
-0.00887292
0.00764373
-0.00894177
-0.00898493
0.0081567
5.09161e-06
-0.00798411
2.38275e-05
-0.00743912
5.88505e-05
-0.00701867
0.000112127
-0.00670489
0.000185085
-0.00648255
0.000278727
-0.00633843
0.000393709
-0.00626103
0.000530418
-0.00624037
0.000689024
-0.00626772
0.000869521
-0.00633548
0.00107177
-0.00643697
0.00129552
-0.00656633
0.00154044
-0.00671836
0.00180615
-0.00688847
0.00209221
-0.00707258
0.00239817
-0.007267
0.00272354
-0.00746841
0.00306786
-0.00767377
0.00343065
-0.00788028
0.00381144
-0.0080853
0.00420974
-0.00828632
0.00462508
-0.0084809
0.00505692
-0.00866663
0.00550469
-0.0088411
0.00596771
-0.00900185
0.00644519
-0.00914635
0.00693613
-0.00927202
0.00743938
-0.00937617
0.00795353
-0.00945592
-0.00950825
0.00847686
6.42329e-06
-0.00799053
2.8798e-05
-0.0074615
6.9468e-05
-0.00705934
0.00013013
-0.00676555
0.000211967
-0.00656439
0.000315753
-0.00644221
0.00044194
-0.00638722
0.000590722
-0.00638915
0.000762086
-0.00643908
0.000955859
-0.00652925
0.00117174
-0.00665286
0.00140934
-0.00680392
0.00166817
-0.00697719
0.00194772
-0.00716803
0.00224744
-0.0073723
0.00256676
-0.00758632
0.00290512
-0.00780676
0.00326195
-0.0080306
0.00363673
-0.00825506
0.00402896
-0.00847752
0.00443815
-0.00869551
0.00486383
-0.00890659
0.00530555
-0.00910835
0.00576281
-0.00929835
0.00623502
-0.00947407
0.00672153
-0.00963286
0.00722147
-0.00977196
0.00773381
-0.0098885
0.00825722
-0.00997933
-0.010041
0.00879001
7.78149e-06
-0.00799831
3.3866e-05
-0.00748758
8.02904e-05
-0.00710577
0.000148473
-0.00683373
0.000239343
-0.00665526
0.000353444
-0.00655632
0.000491013
-0.00652479
0.000652044
-0.00655018
0.000836339
-0.00662338
0.00104355
-0.00673647
0.00127321
-0.00688252
0.00152477
-0.00705548
0.0017976
-0.00725002
0.00209104
-0.00746147
0.0024044
-0.00768566
0.002737
-0.00791892
0.00308817
-0.00815792
0.00345725
-0.00839968
0.00384364
-0.00864146
0.00424681
-0.00888069
0.00466625
-0.00911495
0.00510152
-0.00934186
0.00555222
-0.00955905
0.00601794
-0.00976407
0.00649825
-0.00995437
0.00699262
-0.0101272
0.00750038
-0.0102797
0.00802063
-0.0104088
0.00855214
-0.0105109
-0.0105822
0.00909332
9.16176e-06
-0.00800748
3.90154e-05
-0.00751744
9.1283e-05
-0.00715804
0.000167097
-0.00690955
0.000267125
-0.00675528
0.000391672
-0.00668086
0.000540756
-0.00667387
0.000714168
-0.00672359
0.000911519
-0.00682073
0.00113228
-0.00695723
0.00137582
-0.00712605
0.0016414
-0.00732106
0.00192827
-0.00753689
0.00223559
-0.00776879
0.00256254
-0.00801262
0.0029083
-0.00826468
0.00327207
-0.00852169
0.00365309
-0.0087807
0.00405068
-0.00903904
0.00446422
-0.00929423
0.0048932
-0.00954392
0.00533717
-0.00978584
0.00579581
-0.0100177
0.0062688
-0.0102371
0.00675586
-0.0104414
0.00725667
-0.010628
0.00777075
-0.0107938
0.00829741
-0.0109354
0.00883558
-0.011049
-0.0111304
0.00938375
1.05599e-05
-0.00801804
4.4231e-05
-0.00755111
0.000102413
-0.00721622
0.000185943
-0.00699308
0.000295222
-0.00686456
0.000430309
-0.00681595
0.000590999
-0.00683456
0.000776876
-0.00690947
0.000987356
-0.00703121
0.00122173
-0.0071916
0.00147918
-0.00738351
0.00175882
-0.00760071
0.00205971
-0.00783777
0.00238087
-0.00808995
0.00272133
-0.00835307
0.0030801
-0.00862345
0.00345625
-0.00889784
0.00384889
-0.00917335
0.00425723
-0.00944738
0.00468056
-0.00971757
0.00511832
-0.00998168
0.00557005
-0.0102376
0.00603547
-0.0104831
0.00651436
-0.010716
0.00700664
-0.0109337
0.00751218
-0.0111336
0.00803079
-0.0113124
0.00856202
-0.0114666
0.00910507
-0.0115921
-0.0116839
0.00965858
1.19716e-05
-0.00803001
4.94981e-05
-0.00758863
0.000113648
-0.00728037
0.000204955
-0.00708438
0.000323544
-0.00698315
0.000469227
-0.00696163
0.000641569
-0.0070069
0.000839944
-0.00710784
0.00106358
-0.00725484
0.00131156
-0.00743959
0.00158292
-0.00765486
0.00187659
-0.00789437
0.00219146
-0.00815264
0.00252639
-0.00842488
0.00288023
-0.00870691
0.00325186
-0.00899507
0.00364017
-0.00928615
0.00404413
-0.00957731
0.00446281
-0.00986606
0.00489538
-0.0101501
0.00534118
-0.0104275
0.00579971
-0.0106961
0.0062707
-0.0109541
0.00675403
-0.0111993
0.00724978
-0.0114295
0.00775811
-0.0116419
0.00827913
-0.0118334
0.00881279
-0.0120003
0.0093586
-0.0121379
-0.0122408
0.00991546
1.3393e-05
-0.0080434
5.48037e-05
-0.00763005
0.000124959
-0.00735052
0.000224079
-0.0071835
0.000352005
-0.00711108
0.000508294
-0.00711792
0.000692285
-0.00719089
0.000903139
-0.0073187
0.00113989
-0.00749159
0.00140144
-0.00770115
0.00168664
-0.00794006
0.00199425
-0.00820199
0.002323
-0.00848139
0.00267159
-0.00877347
0.00303869
-0.00907402
0.00342302
-0.0093794
0.00382331
-0.00968643
0.00423835
-0.00999235
0.00466703
-0.0102947
0.00510837
-0.0105915
0.00556157
-0.0108807
0.00602603
-0.0111606
0.00650143
-0.0114295
0.00698772
-0.0116856
0.00748512
-0.0119269
0.00799407
-0.0121509
0.0085151
-0.0123545
0.00904865
-0.0125338
0.00959473
-0.012684
-0.0127986
0.0101526
1.48206e-05
-0.00805822
6.01382e-05
-0.00767536
0.000136322
-0.00742671
0.000243264
-0.00729044
0.000380515
-0.00724833
0.000547379
-0.00728479
0.000742962
-0.00738648
0.000966217
-0.00754195
0.00121598
-0.00774135
0.00149098
-0.00797615
0.00178989
-0.00823897
0.00211131
-0.0085234
0.00245379
-0.00882388
0.00281588
-0.00913556
0.00319611
-0.00945424
0.00359299
-0.00977629
0.0040051
-0.0100985
0.00443105
-0.0104183
0.00486952
-0.0107332
0.00531934
-0.0110413
0.00577951
-0.0113408
0.00624925
-0.0116303
0.00672813
-0.0119083
0.00721603
-0.0121735
0.00771328
-0.0124241
0.00822059
-0.0126582
0.00873898
-0.0128729
0.00926951
-0.0130644
0.0098129
-0.0132274
-0.0133547
0.010369
1.62543e-05
-0.00807448
6.54989e-05
-0.00772461
0.00014772
-0.00750893
0.000262465
-0.00740519
0.000408991
-0.00739486
0.000586345
-0.00746214
0.000793405
-0.00759354
0.00102892
-0.00777746
0.00129153
-0.00800396
0.00157979
-0.00826441
0.0018922
-0.00855138
0.0022272
-0.00885841
0.00258321
-0.00917988
0.00295861
-0.00951095
0.00335176
-0.0098474
0.00376106
-0.0101856
0.00418488
-0.0105224
0.00462165
-0.0108551
0.00506986
-0.0111814
0.00552811
-0.0114995
0.00599514
-0.0118079
0.00646992
-0.0121051
0.00695174
-0.0123902
0.00744032
-0.0126621
0.00793594
-0.0129197
0.00843948
-0.0131617
0.00895241
-0.0133858
0.00947662
-0.0135886
0.0100139
-0.0137646
-0.0139057
0.0105648
1.7702e-05
-0.00809218
7.08993e-05
-0.0077778
0.000159152
-0.00759718
0.000281647
-0.00752768
0.00043735
-0.00755056
0.000625052
-0.00764984
0.000843409
-0.00781189
0.00109096
-0.00802502
0.00136617
-0.00827917
0.00166742
-0.00856566
0.00199304
-0.008877
0.00234133
-0.0092067
0.00271056
-0.00954911
0.00309897
-0.00989937
0.00350482
-0.0102532
0.00392633
-0.0106071
0.00436176
-0.0109578
0.00480936
-0.0113027
0.00526745
-0.0116395
0.00573436
-0.0119665
0.00620857
-0.0122821
0.0066887
-0.0125852
0.00717367
-0.0128751
0.0076628
-0.0131512
0.00815606
-0.013413
0.00865424
-0.0136599
0.00915912
-0.0138907
0.00967347
-0.0141029
0.0102005
-0.0142916
-0.0144474
0.0107422
1.91921e-05
-0.00811137
7.63813e-05
-0.00783499
0.000170638
-0.00769144
0.000300786
-0.00765783
0.000465509
-0.00771528
0.000663354
-0.00784769
0.000892758
-0.0080413
0.00115206
-0.00828432
0.00143954
-0.00856664
0.0017534
-0.00887952
0.00209184
-0.00921544
0.002453
-0.00956786
0.00283503
-0.00993114
0.00323606
-0.0103004
0.00365424
-0.0106714
0.0040877
-0.0110406
0.00453459
-0.0114047
0.00499304
-0.0117611
0.00546123
-0.0121077
0.00593731
-0.0124425
0.00641949
-0.0127643
0.00690603
-0.0130718
0.00739538
-0.0133645
0.00788626
-0.0136421
0.00837796
-0.0139047
0.00887068
-0.0141526
0.00936597
-0.014386
0.00986718
-0.0146041
0.0103793
-0.0148037
-0.0149746
0.0109066
2.08004e-05
-0.00813217
8.20408e-05
-0.00789623
0.000182229
-0.00779163
0.000319867
-0.00779547
0.000493383
-0.0078888
0.000701095
-0.0080554
0.000941221
-0.00828142
0.0012119
-0.008555
0.00151122
-0.00886596
0.00183723
-0.00920554
0.00218797
-0.00956617
0.00256146
-0.00994135
0.00295574
-0.0103254
0.00336884
-0.0107135
0.00379884
-0.0111014
0.0042438
-0.0114855
0.00470183
-0.0118627
0.00517104
-0.0122303
0.00564953
-0.0125862
0.00613538
-0.0129284
0.00662667
-0.0132555
0.0071214
-0.0135665
0.00761757
-0.0138606
0.00811323
-0.0141377
0.00860665
-0.0143981
0.00909674
-0.0146427
0.00958373
-0.0148729
0.0100703
-0.0150907
0.0105627
-0.0152962
-0.0154831
0.0110712
2.27625e-05
-0.00815493
8.80946e-05
-0.00796157
0.000194018
-0.00789755
0.000338873
-0.00794032
0.000520873
-0.0080708
0.000738101
-0.00827263
0.00098855
-0.00853187
0.00127015
-0.0088366
0.0015808
-0.00917661
0.00191839
-0.00954313
0.0022808
-0.00992858
0.00266594
-0.0103265
0.00307173
-0.0107312
0.00349615
-0.0111379
0.00393721
-0.0115425
0.00439298
-0.0119413
0.00486155
-0.0123313
0.0053411
-0.0127099
0.00582979
-0.0130749
0.00632581
-0.0134244
0.00682732
-0.013757
0.00733236
-0.0140716
0.00783883
-0.0143671
0.00834436
-0.0146433
0.00884633
-0.0149001
0.00934196
-0.0151383
0.00982877
-0.0153598
0.0103059
-0.0155678
0.0107784
-0.0157687
-0.0159756
0.0112709
2.59e-05
-0.00818083
9.49398e-05
-0.00803061
0.000206082
-0.00800869
0.000357731
-0.00809197
0.000547823
-0.00826089
0.000774157
-0.00849896
0.00103447
-0.00879218
0.00132647
-0.0091286
0.00164786
-0.009498
0.00199634
-0.00989161
0.00236967
-0.0103019
0.00276561
-0.0107224
0.00318201
-0.0111476
0.00361677
-0.0115727
0.00406787
-0.0119936
0.00453338
-0.0124068
0.00501146
-0.0128094
0.00550039
-0.0131988
0.00599854
-0.013573
0.00650437
-0.0139303
0.00701644
-0.0142691
0.00753335
-0.0145885
0.00805366
-0.0148874
0.0085758
-0.0151654
0.00909783
-0.0154221
0.00961721
-0.0156577
0.0101304
-0.0158729
0.0106313
-0.0160688
0.0111129
-0.0162503
-0.0164357
0.0115731
0.00921651
3.88208e-05
-0.00925533
0.00917815
3.83614e-05
0.00913956
3.85953e-05
0.00910055
3.90046e-05
0.00906113
3.94187e-05
0.00902136
3.97719e-05
0.00898133
4.00317e-05
0.00894114
4.01872e-05
0.0089009
4.02444e-05
0.00886068
4.0218e-05
0.00882056
4.01146e-05
0.00878063
3.99331e-05
0.00874096
3.96679e-05
0.00870165
3.93179e-05
0.00866276
3.88853e-05
0.00862439
3.8373e-05
0.0085866
3.77846e-05
0.00854948
3.71237e-05
0.00851308
3.63939e-05
0.00847749
3.55989e-05
0.00844274
3.47417e-05
0.00840892
3.38255e-05
0.00837607
3.28532e-05
0.00834424
3.18274e-05
0.00831349
3.0748e-05
0.00828388
2.96092e-05
0.00825549
2.83879e-05
0.00822848
2.7018e-05
0.00820319
2.52801e-05
2.23619e-05
0.0108786
0.000135281
-0.0109751
0.0107797
0.000137284
0.0106788
0.000139516
0.0105761
0.000141713
0.0104718
0.000143714
0.0103661
0.000145427
0.0102593
0.000146794
0.0101517
0.0001478
0.0100435
0.000148459
0.00993494
0.00014879
0.00982625
0.000148807
0.00971768
0.000148506
0.00960946
0.000147882
0.00950185
0.000146935
0.00939506
0.000145673
0.00928932
0.000144106
0.00918486
0.000142245
0.00908189
0.000140101
0.0089806
0.000137685
0.00888119
0.000135008
0.00878385
0.000132081
0.00868876
0.000128913
0.0085961
0.000125511
0.00850605
0.000121882
0.00841877
0.000118025
0.00833445
0.000113927
0.00825329
0.000109549
0.00817551
0.000104798
0.00810134
9.94554e-05
9.30906e-05
0.0124394
0.000277312
-0.0125814
0.0122927
0.000283958
0.0121421
0.000290164
0.0119879
0.000295849
0.0118307
0.000300917
0.0116709
0.000305286
0.0115087
0.000308914
0.0113448
0.000311783
0.0111793
0.000313914
0.0110128
0.000315334
0.0108455
0.000316044
0.010678
0.000316043
0.0105105
0.000315333
0.0103436
0.000313923
0.0101774
0.000311827
0.0100124
0.000309064
0.00984903
0.000305654
0.00968752
0.000301618
0.00952822
0.000296978
0.00937148
0.000291754
0.00921759
0.000285967
0.00906687
0.000279633
0.00891961
0.000272769
0.00877611
0.000265386
0.00863665
0.000257489
0.00850151
0.000249068
0.00837096
0.000240093
0.00824526
0.000230498
0.00812455
0.000220164
0.000208951
0.013896
0.000454338
-0.0140731
0.0137124
0.000467572
0.0135229
0.000479687
0.0133281
0.000490662
0.0131285
0.000500446
0.0129248
0.000508987
0.0127175
0.000516244
0.0125071
0.000522227
0.012294
0.000526964
0.0120789
0.000530458
0.0118622
0.000532715
0.0116445
0.000533734
0.0114263
0.000533524
0.0112082
0.000532107
0.0109905
0.000529506
0.0107738
0.000525748
0.0105586
0.000520865
0.0103453
0.000514888
0.0101345
0.000507849
0.00992642
0.000499781
0.00972168
0.000490713
0.00952063
0.000480676
0.00932371
0.000469693
0.00913131
0.000457788
0.00894382
0.000444975
0.00876163
0.00043126
0.00858509
0.000416636
0.0084145
0.000401081
0.0082501
0.000384563
0.000367081
0.0152465
0.000656984
-0.0154492
0.0150354
0.00067872
0.0148164
0.000698641
0.0145904
0.000716737
0.0143578
0.000732974
0.0141195
0.000747309
0.013876
0.000759726
0.013628
0.000770244
0.0133761
0.000778879
0.0131209
0.000785643
0.0128631
0.000790522
0.0126033
0.00079352
0.0123422
0.000794657
0.0120803
0.000793962
0.0118184
0.000791466
0.0115569
0.000787208
0.0112966
0.000781227
0.0110379
0.000773568
0.0107815
0.000764272
0.0105278
0.000753384
0.0102776
0.000740946
0.0100313
0.000726997
0.00978941
0.000711576
0.00955249
0.000694716
0.00932101
0.000676448
0.00909547
0.000656798
0.00887632
0.00063579
0.00866396
0.000613445
0.00845872
0.000589797
0.000564914
0.0164902
0.000877106
-0.0167103
0.0162597
0.00090921
0.0160195
0.00093879
0.0157704
0.000965825
0.0155131
0.000990271
0.0152484
0.00101209
0.0149768
0.00103127
0.0146992
0.00104783
0.0144163
0.0010618
0.0141288
0.00107317
0.0138374
0.00108192
0.0135429
0.00108804
0.0132459
0.00109158
0.0129474
0.00109255
0.0126478
0.00109101
0.012348
0.00108698
0.0120487
0.00108054
0.0117506
0.00107172
0.0114543
0.00106058
0.0111605
0.00104718
0.0108699
0.00103157
0.0105831
0.00101379
0.0103007
0.000993906
0.0100235
0.000971956
0.00975195
0.000947991
0.00948669
0.000922057
0.00922827
0.000894208
0.00897721
0.000864508
0.00873396
0.000833039
0.000799916
0.0176274
0.0011077
-0.017858
0.0173847
0.00115195
0.0171305
0.00119298
0.0168656
0.00123071
0.0165907
0.0012651
0.0163068
0.00129608
0.0160144
0.00132366
0.0157143
0.00134785
0.0154075
0.00136867
0.0150946
0.00138608
0.0147764
0.00140006
0.0144539
0.0014106
0.0141277
0.00141774
0.0137988
0.0014215
0.0134678
0.00142193
0.0131357
0.00141908
0.0128033
0.00141301
0.0124712
0.00140377
0.0121404
0.00139144
0.0118115
0.00137608
0.0114853
0.00135773
0.0111626
0.00133647
0.0108442
0.00131236
0.0105307
0.00128545
0.0102228
0.00125581
0.00992141
0.0012235
0.00962701
0.00118861
0.00934028
0.00115123
0.00906182
0.0011115
0.00106956
0.0186599
0.0013428
-0.018895
0.0184109
0.00140088
0.0181489
0.00145503
0.0178745
0.00150514
0.0175884
0.00155113
0.0172916
0.00159293
0.0169847
0.00163053
0.0166686
0.00166395
0.0163441
0.00169317
0.0160121
0.00171812
0.0156734
0.00173877
0.0153289
0.0017551
0.0149795
0.00176714
0.0146261
0.00177492
0.0142695
0.00177849
0.0139107
0.00177791
0.0135504
0.00177323
0.0131897
0.00176452
0.0128293
0.00175184
0.0124701
0.00173526
0.012113
0.00171485
0.0117588
0.00169068
0.0114083
0.0016628
0.0110625
0.0016313
0.0107221
0.00159623
0.0103879
0.00155769
0.0100607
0.00151579
0.00974129
0.00147064
0.00943037
0.00142242
0.00137132
0.0195903
0.00157742
-0.019825
0.0193404
0.00165086
0.0190757
0.00171968
0.0187971
0.00178373
0.0185053
0.0018429
0.0182012
0.0018971
0.0178854
0.00194631
0.0175588
0.00199054
0.0172223
0.00202969
0.0168767
0.00206368
0.016523
0.00209245
0.0161622
0.00211599
0.015795
0.00213431
0.0154225
0.00214745
0.0150455
0.00215544
0.0146651
0.00215833
0.0142821
0.00215619
0.0138976
0.00214907
0.0135124
0.00213705
0.0131274
0.00212019
0.0127437
0.00209857
0.0123622
0.00207224
0.0119837
0.00204128
0.0116092
0.00200575
0.0112397
0.00196573
0.0108761
0.00192132
0.0105193
0.00187263
0.0101701
0.00181983
0.00982939
0.00176311
0.00170271
0.0204224
0.00180743
-0.0206524
0.0201757
0.00189761
0.0199128
0.00198251
0.0196346
0.00206195
0.0193418
0.00213576
0.019035
0.00220385
0.0187151
0.00226618
0.018383
0.00232268
0.0180394
0.00237326
0.0176854
0.00241776
0.0173217
0.00245611
0.0169494
0.00248829
0.0165694
0.00251431
0.0161827
0.00253417
0.0157902
0.00254792
0.0153929
0.00255558
0.0149919
0.00255722
0.0145881
0.0025529
0.0141825
0.00254267
0.013776
0.00252661
0.0133698
0.00250477
0.0129649
0.00247722
0.0125621
0.00244401
0.0121627
0.00240522
0.0117675
0.0023609
0.0113776
0.00231116
0.0109941
0.00225613
0.010618
0.00219597
0.0102502
0.00213092
0.00206128
0.0211605
0.00202952
-0.0213826
0.0209205
0.00213764
0.0206631
0.00223988
0.020389
0.002336
0.020099
0.0024258
0.0197937
0.00250914
0.0194739
0.00258595
0.0191405
0.00265614
0.0187942
0.00271953
0.018436
0.00277595
0.0180668
0.00282531
0.0176875
0.00286756
0.0172992
0.00290268
0.0169027
0.00293067
0.0164991
0.00295153
0.0160893
0.00296531
0.0156745
0.00297204
0.0152556
0.00297178
0.0148337
0.00296458
0.0144098
0.0029505
0.013985
0.00292958
0.0135604
0.00290188
0.0131369
0.00286743
0.0127159
0.00282629
0.0122983
0.00277851
0.0118853
0.00272417
0.011478
0.00266338
0.0110776
0.00259634
0.0106852
0.00252331
0.00244461
0.0218095
0.00224109
-0.0220211
0.021579
0.00236819
0.02133
0.00248885
0.0210632
0.00260279
0.0207793
0.00270975
0.0204789
0.00280956
0.0201627
0.0029021
0.0198316
0.00298724
0.0194864
0.00306476
0.0191279
0.00313445
0.018757
0.00319618
0.0183747
0.00324987
0.0179819
0.00329547
0.0175796
0.00333295
0.0171688
0.0033623
0.0167506
0.00338355
0.0163259
0.00339672
0.0158959
0.00340185
0.0154615
0.00339897
0.0150238
0.00338813
0.0145841
0.00336937
0.0141432
0.0033427
0.0137025
0.00330815
0.0132631
0.00326573
0.0128261
0.00321546
0.0123929
0.00315739
0.0119646
0.00309162
0.0115427
0.00301832
0.0111282
0.00293778
0.00285038
0.0223749
0.00244018
-0.022574
0.022156
0.0025871
0.0219178
0.00272709
0.0216608
0.00285982
0.0213856
0.00298496
0.0210928
0.0031023
0.0207832
0.00321169
0.0204575
0.00331295
0.0201165
0.0034058
0.0197609
0.00349
0.0193917
0.00356538
0.0190098
0.0036318
0.0186161
0.00368918
0.0182116
0.00373748
0.0177972
0.00377666
0.017374
0.00380672
0.0169431
0.00382767
0.0165054
0.00383953
0.016062
0.00384232
0.0156141
0.00383605
0.0151627
0.00382075
0.014709
0.0037964