/*--------------------------------*- C++ -*----------------------------------*\
| =========                 |                                                 |
| \\      /  F ield         | OpenFOAM: The Open Source CFD Toolbox           |
|  \\    /   O peration     | Version:  v1912                                 |
|   \\  /    A nd           | Website:  www.openfoam.com                      |
|    \\/     M anipulation  |                                                 |
\*---------------------------------------------------------------------------*/
FoamFile
{
    version     2.0;
    format      ascii;
    class       volScalarField;
    location    "26";
    object      p;
}
// * * * * * * * * * * * * * * * * * * * * * * * * * * * * * * * * * * * * * //

dimensions      [0 2 -2 0 0 0 0];


internalField   nonuniform List<scalar> 
9600
(
-41.3316
-36.059
-32.8245
-30.0798
-27.569
-25.2989
-23.2407
-21.3666
-19.6586
-18.1029
-16.6866
-15.3976
-14.2244
-13.1561
-12.1824
-11.2939
-10.4822
-9.73921
-9.05739
-8.4346
-42.0756
-36.7861
-33.5164
-30.7297
-28.1747
-25.8614
-23.7628
-21.8516
-20.1106
-18.5255
-17.0835
-15.7719
-14.5789
-13.4931
-12.504
-11.6017
-10.7775
-10.0231
-9.33045
-8.69865
-42.8214
-37.5093
-34.203
-31.3741
-28.7747
-26.4181
-24.2789
-22.331
-20.557
-18.943
-17.4755
-16.1416
-14.9291
-13.8261
-12.8217
-11.9058
-11.0693
-10.3035
-9.60009
-8.95947
-43.5658
-38.2283
-34.884
-32.0123
-29.3681
-26.968
-24.7884
-22.8038
-20.9972
-19.3544
-17.8618
-16.506
-15.2742
-14.1543
-13.1349
-12.2056
-11.357
-10.58
-9.86588
-9.21672
-44.306
-38.9416
-35.5583
-32.6431
-29.9539
-27.5102
-25.2902
-23.2691
-21.4302
-19.7591
-18.2417
-16.8644
-15.6138
-14.4773
-13.4432
-12.5008
-11.6402
-10.8521
-10.1275
-9.47013
-45.0398
-39.6477
-36.2248
-33.2655
-30.531
-28.0436
-25.7834
-23.7262
-21.8553
-20.1562
-18.6146
-17.2161
-15.947
-14.7944
-13.7459
-12.7906
-11.9185
-11.1195
-10.3846
-9.71942
-45.7656
-40.3452
-36.8823
-33.8784
-31.0984
-28.5674
-26.2671
-24.1741
-22.2716
-20.5451
-18.9796
-17.5605
-16.2734
-15.1049
-14.0425
-13.0748
-12.1913
-11.3818
-10.6368
-9.96434
-46.4817
-41.0328
-37.5294
-34.4806
-31.6549
-29.0805
-26.7404
-24.6119
-22.6784
-20.9249
-19.3361
-17.8968
-16.5922
-15.4084
-14.3324
-13.3526
-12.4582
-11.6385
-10.8839
-10.2046
-47.1869
-41.7092
-38.1651
-35.0711
-32.1997
-29.5819
-27.2024
-25.0388
-23.0747
-21.2948
-19.6832
-18.2243
-16.9026
-15.704
-14.615
-13.6235
-12.7187
-11.8891
-11.1253
-10.4398
-47.88
-42.3732
-38.7882
-35.6488
-32.7317
-30.0708
-27.6521
-25.454
-23.4599
-21.6541
-20.0203
-18.5422
-17.2041
-15.9911
-14.8894
-13.8869
-12.972
-12.1331
-11.3605
-10.6695
-48.5598
-43.0237
-39.3977
-36.2128
-33.25
-30.5462
-28.0887
-25.8565
-23.8329
-22.0018
-20.3464
-18.8497
-17.4956
-16.2688
-15.1551
-14.1419
-13.2175
-12.3698
-11.589
-10.8932
-49.2255
-43.6598
-39.9926
-36.7619
-33.7536
-31.0071
-28.5114
-26.2456
-24.1931
-22.3372
-20.6607
-19.146
-17.7765
-16.5363
-15.411
-14.3876
-13.4544
-12.5983
-11.8099
-11.1101
-49.8763
-44.2805
-40.5719
-37.2955
-34.2417
-31.4529
-28.9193
-26.6205
-24.5395
-22.6595
-20.9623
-19.4301
-18.0456
-16.7925
-15.6561
-14.6231
-13.6815
-12.8178
-12.0225
-11.3194
-50.5117
-44.8852
-41.1349
-37.8126
-34.7135
-31.8827
-29.3117
-26.9803
-24.8715
-22.9678
-21.2505
-19.7012
-18.302
-17.0363
-15.8892
-14.8471
-13.8976
-13.0269
-12.2253
-11.5204
-51.131
-45.4729
-41.6808
-38.3126
-35.1683
-32.2959
-29.6879
-27.3246
-25.1884
-23.2614
-21.5244
-19.9582
-18.5446
-17.2666
-16.1088
-15.0577
-14.1006
-13.2233
-12.4165
-11.7113
-51.734
-46.0429
-42.2088
-38.7948
-35.6055
-32.6919
-30.0475
-27.6527
-25.4897
-23.5398
-21.7833
-20.2004
-18.7725
-17.4822
-16.3138
-15.2536
-14.2889
-13.4051
-12.5933
-11.8868
-52.3218
-46.5952
-42.7184
-39.2585
-36.0245
-33.07
-30.3898
-27.9641
-25.7747
-23.8024
-22.0266
-20.4272
-18.9849
-17.6822
-16.5031
-15.4339
-14.4619
-13.5722
-12.7545
-12.0435
-52.8988
-47.1308
-43.2086
-39.7026
-36.4242
-33.4296
-30.7143
-28.2584
-26.0433
-24.0488
-22.2539
-20.6377
-19.1806
-17.8648
-16.6744
-15.596
-14.6171
-13.7217
-12.8992
-12.1926
-53.4671
-47.6493
-43.678
-40.126
-36.8045
-33.7708
-31.0214
-28.5362
-26.2958
-24.2796
-22.4655
-20.8321
-19.3592
-18.0286
-16.8244
-15.7334
-14.7427
-13.8367
-13.0128
-12.338
-54.0049
-48.1429
-44.1255
-40.5294
-37.1665
-34.0952
-31.3127
-28.799
-26.5342
-24.4967
-22.6637
-21.013
-19.5235
-18.1763
-16.9549
-15.8447
-14.8307
-13.8995
-13.065
-12.3963
-59.3715
-59.3403
-59.2718
-59.1806
-59.0659
-58.9253
-58.7582
-58.5651
-58.3466
-58.1032
-57.8356
-57.5441
-57.2296
-56.8927
-56.5341
-56.1547
-55.7557
-55.3387
-54.9066
-54.4626
-53.0338
-53.0312
-52.9959
-52.9334
-52.8446
-52.7288
-52.5864
-52.418
-52.2243
-52.0059
-51.7635
-51.4977
-51.209
-50.8981
-50.5658
-50.2125
-49.839
-49.4458
-49.0334
-48.5998
-48.4074
-48.4289
-48.4213
-48.3855
-48.3225
-48.2334
-48.1186
-47.9789
-47.8148
-47.6269
-47.4159
-47.1822
-46.9265
-46.6493
-46.351
-46.0322
-45.6931
-45.3338
-44.954
-44.5518
-44.1973
-44.2361
-44.2488
-44.2346
-44.1946
-44.1299
-44.041
-43.9285
-43.793
-43.6349
-43.4549
-43.2534
-43.031
-42.7882
-42.5252
-42.2425
-41.9401
-41.6181
-41.2761
-40.9134
-40.3071
-40.3557
-40.3806
-40.3813
-40.358
-40.3116
-40.2427
-40.1519
-40.0396
-39.9064
-39.7527
-39.5791
-39.3859
-39.1737
-38.9428
-38.6933
-38.4255
-38.1393
-37.8344
-37.5104
-36.8152
-36.8678
-36.8991
-36.9083
-36.8954
-36.8612
-36.8063
-36.7311
-36.6361
-36.5218
-36.3887
-36.2373
-36.0679
-35.8811
-35.6771
-35.4562
-35.2185
-34.9639
-34.6922
-34.403
-33.7117
-33.7644
-33.7974
-33.8103
-33.8029
-33.7758
-33.7297
-33.6649
-33.5819
-33.4813
-33.3634
-33.2288
-33.0779
-32.9112
-32.729
-32.5315
-32.3189
-32.0911
-31.8479
-31.5887
-30.9598
-31.0096
-31.0414
-31.0545
-31.049
-31.0254
-30.9842
-30.9258
-30.8508
-30.7595
-30.6524
-30.5302
-30.3932
-30.2419
-30.0768
-29.8981
-29.706
-29.5004
-29.2812
-29.0478
-28.5194
-28.5649
-28.5936
-28.605
-28.5991
-28.5765
-28.5376
-28.4828
-28.4126
-28.3275
-28.228
-28.1147
-27.988
-27.8484
-27.6966
-27.5328
-27.3574
-27.1702
-26.9712
-26.7596
-26.3512
-26.3916
-26.4163
-26.4248
-26.4173
-26.3942
-26.356
-26.303
-26.2357
-26.1546
-26.0603
-25.9533
-25.8342
-25.7036
-25.5621
-25.4102
-25.2483
-25.0765
-24.8945
-24.7018
-24.4181
-24.4533
-24.4737
-24.479
-24.4692
-24.4448
-24.4063
-24.354
-24.2883
-24.2098
-24.1191
-24.0166
-23.9032
-23.7794
-23.6461
-23.5038
-23.353
-23.1942
-23.027
-22.8507
-22.6874
-22.7176
-22.7338
-22.7357
-22.7235
-22.6976
-22.6582
-22.606
-22.5412
-22.4644
-22.3761
-22.2771
-22.1679
-22.0494
-21.9225
-21.7879
-21.6465
-21.4987
-21.3446
-21.1833
-21.1309
-21.1565
-21.1688
-21.1676
-21.153
-21.1254
-21.0851
-21.0327
-20.9683
-20.8927
-20.8062
-20.7097
-20.6038
-20.4895
-20.3676
-20.2394
-20.1058
-19.9676
-19.8253
-19.6779
-19.7248
-19.7464
-19.7551
-19.7511
-19.7343
-19.7052
-19.664
-19.6112
-19.5472
-19.4723
-19.3873
-19.2927
-19.1894
-19.0782
-18.9604
-18.8371
-18.7101
-18.5802
-18.4489
-18.3148
-18.4495
-18.4674
-18.473
-18.4664
-18.4477
-18.4172
-18.3753
-18.3222
-18.2584
-18.1842
-18.1003
-18.0073
-17.9059
-17.7972
-17.6824
-17.5631
-17.4412
-17.3185
-17.1973
-17.0764
-17.2885
-17.303
-17.3059
-17.297
-17.2767
-17.245
-17.2024
-17.149
-17.0854
-17.0118
-16.9289
-16.8371
-16.7372
-16.6303
-16.5177
-16.4011
-16.2831
-16.1659
-16.0541
-15.9461
-16.2279
-16.2395
-16.2399
-16.2291
-16.2072
-16.1745
-16.1313
-16.0777
-16.0143
-15.9412
-15.8589
-15.768
-15.6692
-15.5634
-15.4519
-15.3367
-15.2209
-15.1074
-15.0034
-14.9069
-15.2558
-15.265
-15.2635
-15.2512
-15.2283
-15.1949
-15.1513
-15.0978
-15.0346
-14.962
-14.8804
-14.7902
-14.6921
-14.5869
-14.4758
-14.3606
-14.2451
-14.133
-14.0357
-13.948
-14.3611
-14.369
-14.3665
-14.3537
-14.3307
-14.2977
-14.2548
-14.2023
-14.1404
-14.0694
-13.9896
-13.9013
-13.805
-13.7014
-13.5913
-13.4764
-13.3601
-13.2476
-13.157
-13.0831
-13.5386
-13.5433
-13.5383
-13.5237
-13.4996
-13.4661
-13.4235
-13.3719
-13.3114
-13.2423
-13.1648
-13.0792
-12.9858
-12.8849
-12.777
-12.6631
-12.545
-12.428
-12.3311
-12.2809
-53.1738
-53.74
-54.2695
-54.7844
-55.2819
-55.7559
-56.2036
-56.6239
-57.0159
-57.3789
-57.7119
-58.0146
-58.2866
-58.5277
-58.7371
-58.915
-59.0621
-59.1797
-59.2697
-59.334
-46.7044
-47.2761
-47.8201
-48.3422
-48.8418
-49.3167
-49.7653
-50.187
-50.5812
-50.9471
-51.2842
-51.5923
-51.8715
-52.1225
-52.3434
-52.5337
-52.6936
-52.8238
-52.9246
-52.9948
-42.0784
-42.638
-43.1745
-43.6879
-44.1782
-44.6447
-45.0868
-45.5035
-45.8944
-46.2588
-46.5958
-46.905
-47.1863
-47.4385
-47.6624
-47.8585
-48.0266
-48.1662
-48.2772
-48.358
-37.9731
-38.508
-39.0235
-39.5178
-39.9902
-40.4406
-40.8682
-41.2725
-41.6528
-42.0086
-42.3385
-42.6421
-42.9202
-43.1725
-43.3988
-43.5991
-43.773
-43.9201
-44.0402
-44.1326
-34.3129
-34.8182
-35.3068
-35.7761
-36.225
-36.6533
-37.0605
-37.4458
-37.8085
-38.1481
-38.4652
-38.7594
-39.0293
-39.2749
-39.4965
-39.6937
-39.8663
-40.0141
-40.137
-40.2349
-31.1298
-31.6043
-32.0636
-32.5052
-32.928
-33.3316
-33.7154
-34.0789
-34.4216
-34.7431
-35.0435
-35.322
-35.578
-35.8117
-36.0234
-36.2128
-36.3793
-36.5228
-36.6434
-36.741
-28.3716
-28.8158
-29.2459
-29.6598
-30.0561
-30.4342
-30.7939
-31.1345
-31.4557
-31.7572
-32.0386
-32.2997
-32.5401
-32.7596
-32.9578
-33.1367
-33.2945
-33.4307
-33.5456
-33.6394
-25.9719
-26.3877
-26.7903
-27.1776
-27.5484
-27.902
-28.2381
-28.5562
-28.856
-29.1371
-29.3994
-29.6427
-29.8668
-30.0716
-30.2571
-30.4217
-30.5691
-30.6964
-30.8039
-30.8917
-23.8724
-24.2622
-24.6396
-25.0024
-25.3494
-25.6801
-25.994
-26.2908
-26.5701
-26.8318
-27.0757
-27.3017
-27.5097
-27.6996
-27.8715
-28.0252
-28.1595
-28.277
-28.3762
-28.4571
-22.0233
-22.3898
-22.7444
-23.085
-23.4104
-23.72
-24.0134
-24.2904
-24.5508
-24.7943
-25.021
-25.2307
-25.4235
-25.5992
-25.7578
-25.8993
-26.0235
-26.1307
-26.2214
-26.295
-20.3833
-20.729
-21.0632
-21.384
-21.6898
-21.9803
-22.2551
-22.514
-22.7569
-22.9837
-23.1945
-23.3893
-23.5679
-23.7304
-23.8768
-24.0071
-24.1212
-24.2191
-24.3015
-24.368
-18.9189
-19.2461
-19.5625
-19.8655
-20.1538
-20.4269
-20.6847
-20.9271
-21.154
-21.3656
-21.5619
-21.7429
-21.9087
-22.0592
-22.1944
-22.3144
-22.4192
-22.5089
-22.5832
-22.643
-17.6031
-17.9141
-18.2149
-18.5024
-18.7748
-19.0321
-19.2744
-19.5016
-19.714
-19.9117
-20.0947
-20.2632
-20.4173
-20.5568
-20.682
-20.7927
-20.8889
-20.9707
-21.0378
-21.0917
-16.4144
-16.7113
-16.9988
-17.2724
-17.5305
-17.7733
-18.0013
-18.2146
-18.4136
-18.5985
-18.7694
-18.9266
-19.07
-19.1997
-19.3157
-19.4179
-19.5065
-19.5815
-19.6432
-19.6906
-15.3357
-15.6206
-15.8969
-16.158
-16.4028
-16.6322
-16.8469
-17.0474
-17.2339
-17.4071
-17.5669
-17.7137
-17.8474
-17.9682
-18.0759
-18.1706
-18.2523
-18.321
-18.3768
-18.4195
-14.3523
-14.6288
-14.8961
-15.1456
-15.3778
-15.5946
-15.7967
-15.9849
-16.1599
-16.3221
-16.4717
-16.6089
-16.7339
-16.8464
-16.9467
-17.0345
-17.11
-17.1731
-17.2238
-17.2622
-13.4465
-13.722
-13.9843
-14.2227
-14.4425
-14.647
-14.8372
-15.0139
-15.178
-15.3301
-15.4703
-15.5989
-15.7159
-15.8211
-15.9146
-15.9963
-16.0662
-16.1243
-16.1705
-16.205
-12.5977
-12.8775
-13.1413
-13.3705
-13.5785
-13.7717
-13.9509
-14.1173
-14.2718
-14.4151
-14.5473
-14.6685
-14.7787
-14.8778
-14.9657
-15.0423
-15.1077
-15.1617
-15.2044
-15.2358
-11.8186
-12.0896
-12.3544
-12.5789
-12.7771
-12.9591
-13.1281
-13.2852
-13.4312
-13.5666
-13.6919
-13.8067
-13.9112
-14.0051
-14.0884
-14.161
-14.2227
-14.2735
-14.3135
-14.3428
-11.2339
-11.4831
-11.7094
-11.9241
-12.1108
-12.2754
-12.4281
-12.5712
-12.7041
-12.8273
-12.9411
-13.0455
-13.1402
-13.2251
-13.3001
-13.3651
-13.42
-13.4647
-13.4992
-13.5235
-5.89669
-6.38432
-6.9192
-7.49839
-8.12837
-8.81659
-9.57078
-10.4005
-11.3178
-12.3386
-13.4833
-14.7787
-16.26
-17.9731
-19.9779
-22.353
-25.179
-28.4776
-32.4675
-38.4569
-6.16389
-6.66472
-7.20983
-7.80075
-8.44415
-9.14717
-9.91766
-10.7654
-11.7029
-12.746
-13.9157
-15.2391
-16.7518
-18.5002
-20.5444
-22.9628
-25.835
-29.1795
-33.2072
-39.2172
-6.43256
-6.94661
-7.50206
-8.10496
-8.76203
-9.48009
-10.2671
-11.1332
-12.091
-13.1569
-14.3519
-15.7037
-17.2482
-19.0323
-21.1161
-23.5778
-26.4957
-29.8851
-33.9488
-39.9747
-6.70222
-7.22944
-7.79531
-8.41039
-9.08135
-9.81467
-10.6185
-11.5031
-12.4815
-13.5703
-14.7909
-16.1712
-17.7478
-19.5677
-21.6912
-24.1962
-27.1596
-30.5937
-34.6944
-40.7411
-6.97244
-7.51274
-8.08911
-8.71659
-9.40164
-10.1504
-10.9712
-11.8745
-12.8737
-13.9855
-15.2319
-16.641
-18.2498
-20.1056
-22.2689
-24.8171
-27.8259
-31.3047
-35.4433
-41.5138
-7.24284
-7.79612
-8.38306
-9.02313
-9.72246
-10.4868
-11.3247
-12.2469
-13.267
-14.4021
-15.6743
-17.1124
-18.7535
-20.6453
-22.8484
-25.4399
-28.494
-32.0173
-36.1933
-42.2888
-7.51311
-8.07921
-8.67676
-9.32962
-10.0434
-10.8235
-11.6786
-12.6198
-13.6609
-14.8194
-16.1176
-17.5847
-19.2582
-21.1861
-23.429
-26.0636
-29.1629
-32.7302
-36.9431
-43.0637
-7.78302
-8.36172
-8.96991
-9.63572
-10.3641
-11.16
-12.0325
-12.9927
-14.055
-15.2368
-16.5611
-18.0572
-19.7632
-21.7272
-24.0099
-26.6875
-29.8315
-33.4425
-37.6914
-43.8371
-8.05239
-8.64346
-9.26227
-9.94116
-10.6842
-11.4961
-12.3858
-13.3652
-14.4486
-15.6538
-17.0042
-18.5294
-20.2677
-22.2677
-24.5901
-27.3104
-30.4989
-34.153
-38.4371
-44.6075
-8.3212
-8.92431
-9.55367
-10.2457
-11.0035
-11.8313
-12.7384
-13.7369
-14.8413
-16.0699
-17.4462
-19.0004
-20.7711
-22.8069
-25.1687
-27.9315
-31.1639
-34.8605
-39.1788
-45.3734
-8.58954
-9.20432
-9.84406
-10.5493
-11.3218
-12.1654
-13.0898
-14.1072
-15.2325
-16.4844
-17.8866
-19.4696
-21.2724
-23.3439
-25.7448
-28.5496
-31.8254
-35.5637
-39.9152
-46.1334
-8.85771
-9.48362
-10.1335
-10.8518
-11.6389
-12.4982
-13.4396
-14.4758
-15.6219
-16.8968
-18.3246
-19.9362
-21.7709
-23.8778
-26.3175
-29.1638
-32.4822
-36.2616
-40.6451
-46.8861
-9.12619
-9.76252
-10.4221
-11.1532
-11.9546
-12.8293
-13.7875
-14.8421
-16.0087
-17.3064
-18.7596
-20.3995
-22.2658
-24.4077
-26.8856
-29.7728
-33.1333
-36.9528
-41.367
-47.6302
-9.39567
-10.0414
-10.7099
-11.4535
-12.2688
-13.1584
-14.1329
-15.2057
-16.3924
-17.7125
-19.1907
-20.8586
-22.7561
-24.9325
-27.4483
-30.3757
-33.7775
-37.6362
-42.0799
-48.3643
-9.6669
-10.3206
-10.997
-11.7523
-12.5809
-13.4849
-14.4754
-15.5659
-16.7723
-18.1144
-19.6172
-21.3126
-23.2408
-25.4513
-28.0043
-30.9713
-34.4134
-38.3105
-42.7823
-49.0873
-9.94079
-10.6003
-11.2831
-12.0492
-12.8904
-13.8083
-14.8142
-15.9219
-17.1475
-18.5111
-20.0381
-21.7607
-23.719
-25.963
-28.5524
-31.5582
-35.0398
-38.9744
-43.4733
-49.7983
-10.2171
-10.8793
-11.5666
-12.3427
-13.196
-14.1273
-15.1482
-16.2726
-17.5171
-18.9019
-20.4526
-22.2016
-24.1896
-26.4664
-29.0916
-32.1352
-35.6553
-39.6266
-44.1519
-50.4966
-10.4949
-11.155
-11.8451
-12.631
-13.4965
-14.4409
-15.4764
-16.6172
-17.8801
-19.2855
-20.8594
-22.6345
-24.6515
-26.9604
-29.6205
-32.7009
-36.2583
-40.2655
-44.8168
-51.1823
-10.7668
-11.419
-12.1124
-12.9107
-13.7895
-14.7473
-15.7973
-16.9544
-18.2354
-19.661
-21.2576
-23.058
-25.1034
-27.4435
-30.1376
-33.2537
-36.8473
-40.8891
-45.4668
-51.8568
-11.0139
-11.6515
-12.3641
-13.1828
-14.0758
-15.0464
-16.1105
-17.2835
-18.5821
-20.0274
-21.6461
-23.4712
-25.5442
-27.9147
-30.6415
-33.792
-37.4199
-41.4945
-46.0975
-52.5217
-1.54453
-1.79997
-2.14974
-2.54107
-2.96273
-3.42019
-3.91984
-4.46769
-5.07133
-5.74109
-6.49098
-7.34005
-8.31439
-9.44994
-10.7973
-12.4303
-14.4379
-16.8802
-20.0632
-25.463
-1.69552
-1.96712
-2.33489
-2.73181
-3.15662
-3.61915
-4.12544
-4.68109
-5.29383
-5.97427
-6.73667
-7.6004
-8.59199
-9.74788
-11.1192
-12.7804
-14.8203
-17.2974
-20.5119
-25.925
-1.84025
-2.13572
-2.51636
-2.92117
-3.35349
-3.82416
-4.33912
-4.90416
-5.52739
-6.21974
-6.99581
-7.87534
-8.88534
-10.0627
-11.4593
-13.1496
-15.2224
-17.7342
-20.9796
-26.4008
-2.00685
-2.31299
-2.70165
-3.11498
-3.55627
-4.03624
-4.56096
-5.13653
-5.77136
-6.4767
-7.26749
-8.16387
-9.1933
-10.3933
-11.816
-13.5364
-15.6432
-18.191
-21.4705
-26.9088
-2.18461
-2.4977
-2.894
-3.31607
-3.76662
-4.25632
-4.79146
-5.37835
-6.02565
-6.7449
-7.55135
-8.46554
-9.51541
-10.7389
-12.1889
-13.9406
-16.0824
-18.6677
-21.984
-27.4458
-2.36776
-2.68929
-3.09372
-3.52469
-3.98478
-4.48467
-5.0308
-5.62969
-6.29022
-7.02419
-7.84717
-8.78011
-9.85138
-11.0995
-12.5778
-14.3619
-16.54
-19.1641
-22.5184
-28.0067
-2.55785
-2.88868
-3.30115
-3.74102
-4.21092
-4.72141
-5.27905
-5.89054
-6.56498
-7.3144
-8.15473
-9.10728
-10.2009
-11.4746
-12.9823
-14.8
-17.0156
-19.6794
-23.0725
-28.589
-2.75627
-3.09637
-3.51666
-3.96542
-4.4453
-4.96671
-5.53628
-6.16087
-6.8498
-7.61535
-8.47376
-9.44675
-10.5636
-11.8639
-13.402
-15.2543
-17.5084
-20.213
-23.6458
-29.1916
-2.96282
-3.31223
-3.74029
-4.19797
-4.688
-5.22059
-5.80244
-6.44058
-7.14453
-7.92682
-8.80401
-9.79819
-10.9391
-12.2669
-13.8364
-15.7243
-18.018
-20.7645
-24.2375
-29.8137
-3.17691
-3.53593
-3.97186
-4.43856
-4.93891
-5.48293
-6.07739
-6.7295
-7.44896
-8.24856
-9.14517
-10.1613
-11.3271
-12.6832
-14.285
-16.2096
-18.5438
-21.3329
-24.8469
-30.454
-3.39813
-3.76715
-4.21106
-4.68691
-5.19777
-5.75349
-6.3609
-7.02736
-7.76279
-8.58024
-9.49687
-10.5356
-11.727
-13.1123
-14.7473
-16.7094
-19.0851
-21.9177
-25.4732
-31.1115
-3.62609
-4.00548
-4.45754
-4.94268
-5.46428
-6.03196
-6.65263
-7.33383
-8.08569
-8.92149
-9.85873
-10.9207
-12.1385
-13.5537
-15.2228
-17.2232
-19.6412
-22.5181
-26.1154
-31.7852
-3.86035
-4.25046
-4.71086
-5.20547
-5.73803
-6.31795
-6.95221
-7.64853
-8.41724
-9.27189
-10.2303
-11.3161
-12.5609
-14.0069
-15.7108
-17.7503
-20.2114
-23.1332
-26.7727
-32.4743
-4.10037
-4.50159
-4.97051
-5.47482
-6.01859
-6.61104
-7.25919
-7.97099
-8.75697
-9.63095
-10.611
-11.7213
-12.9938
-14.4712
-16.2106
-18.2901
-20.7949
-23.7622
-27.4444
-33.1777
-4.34563
-4.7583
-5.23598
-5.75021
-6.30546
-6.91071
-7.57309
-8.30073
-9.10439
-9.99814
-11.0004
-12.1357
-13.4365
-14.946
-16.7217
-18.8418
-21.3911
-24.4045
-28.1295
-33.8946
-4.59557
-5.02005
-5.5067
-6.0311
-6.5981
-7.21646
-7.89338
-8.63722
-9.45895
-10.3729
-11.3979
-12.5587
-13.8884
-15.4306
-17.2432
-19.4047
-21.999
-25.059
-28.8272
-34.6244
-4.84966
-5.28625
-5.78211
-6.31694
-6.89598
-7.52773
-8.21952
-8.97989
-9.82007
-10.7547
-11.8028
-12.9897
-14.3488
-15.9242
-17.7744
-19.9778
-22.6177
-25.7249
-29.5369
-35.3663
-5.10734
-5.55634
-6.06163
-6.60715
-7.19851
-7.84397
-8.55092
-9.32816
-10.1872
-11.1428
-12.2145
-13.4279
-14.817
-16.4262
-18.3145
-20.5603
-23.2463
-26.4011
-30.2575
-36.1201
-5.36807
-5.82974
-6.34469
-6.90117
-7.50513
-8.16457
-8.88699
-9.68143
-10.5596
-11.5366
-12.6323
-13.8727
-15.2921
-16.9356
-18.8624
-21.1511
-23.8837
-27.0865
-30.9881
-36.8865
-5.63136
-6.10592
-6.63075
-7.19846
-7.81531
-8.48901
-9.22719
-10.0391
-10.9368
-11.9355
-13.0556
-14.3233
-15.7735
-17.4517
-19.4175
-21.7494
-24.5287
-27.7793
-31.7259
-37.6661
-1.29925
-1.09584
-0.944964
-0.811035
-0.693642
-0.590234
-0.499701
-0.421253
-0.354391
-0.298757
-0.254087
-0.220165
-0.196819
-0.183901
-0.181266
-0.188696
-0.206033
-0.233547
-0.270991
-0.318449
-1.63043
-1.45011
-1.29529
-1.15624
-1.03411
-0.926344
-0.831948
-0.750123
-0.680357
-0.622272
-0.575587
-0.540077
-0.515555
-0.501866
-0.498861
-0.506363
-0.524238
-0.552529
-0.591137
-0.64004
-1.96525
-1.79279
-1.63804
-1.4979
-1.37371
-1.26383
-1.16754
-1.08416
-1.01322
-0.954346
-0.90727
-0.871766
-0.847644
-0.834744
-0.832914
-0.842002
-0.861896
-0.892563
-0.933911
-0.985879
-2.35169
-2.17769
-2.02003
-1.87702
-1.74934
-1.63604
-1.53662
-1.45053
-1.37735
-1.31674
-1.26843
-1.23218
-1.20781
-1.19515
-1.19403
-1.20432
-1.22589
-1.25867
-1.30255
-1.35746
-2.77371
-2.59742
-2.43595
-2.28913
-2.15736
-2.04011
-1.93705
-1.84776
-1.77188
-1.7091
-1.65916
-1.62183
-1.59692
-1.58425
-1.58366
-1.59501
-1.61815
-1.653
-1.69941
-1.75733
-3.22905
-3.04974
-2.88427
-2.73327
-2.59718
-2.4758
-2.36893
-2.27625
-2.19749
-2.13237
-2.08065
-2.04212
-2.01658
-2.00385
-2.00378
-2.0162
-2.04098
-2.07799
-2.12709
-2.18821
-3.724
-3.54018
-3.37
-3.21425
-3.07342
-2.94753
-2.8365
-2.74012
-2.65818
-2.59045
-2.53671
-2.49677
-2.47043
-2.45752
-2.45787
-2.47133
-2.49775
-2.53699
-2.58888
-2.65338
-4.26544
-4.07563
-3.89968
-3.73832
-3.59208
-3.46109
-3.34536
-3.24479
-3.15921
-3.08845
-3.03232
-2.99064
-2.96322
-2.94989
-2.95049
-2.96486
-2.99284
-3.03427
-3.089
-3.15698
-4.86113
-4.66393
-4.48098
-4.31297
-4.16041
-4.02353
-3.90239
-3.79696
-3.70715
-3.6328
-3.57377
-3.52989
-3.50099
-3.48689
-3.48745
-3.5025
-3.53187
-3.5754
-3.63292
-3.70441
-5.52131
-5.31516
-5.12382
-4.9479
-4.78791
-4.6441
-4.51663
-4.40549
-4.31064
-4.23198
-4.16937
-4.12267
-4.09174
-4.07639
-4.07648
-4.09185
-4.12232
-4.16772
-4.22788
-4.3028
-6.25977
-6.04289
-5.8415
-5.65614
-5.48732
-5.33531
-5.20029
-5.08233
-4.98141
-4.89746
-4.83038
-4.78005
-4.74631
-4.72903
-4.72804
-4.74318
-4.77429
-4.82116
-4.88363
-4.96175
-7.09527
-6.86556
-6.65213
-6.45547
-6.27606
-6.11421
-5.97013
-5.8439
-5.73555
-5.64505
-5.57231
-5.51722
-5.47966
-5.45948
-5.45654
-5.47067
-5.5017
-5.54941
-5.61364
-5.69448
-8.05351
-7.80846
-7.58059
-7.37031
-7.17814
-7.00438
-6.84927
-6.71293
-6.5954
-6.49668
-6.41671
-6.35539
-6.31261
-6.28824
-6.28212
-6.29411
-6.32402
-6.37163
-6.43675
-6.51952
-9.16992
-8.9065
-8.66123
-8.4345
-8.22684
-8.03858
-7.86997
-7.72114
-7.59218
-7.48309
-7.39383
-7.32433
-7.27448
-7.24415
-7.2332
-7.24149
-7.26881
-7.31492
-7.37964
-7.46315
-10.4945
-10.2091
-9.94281
-9.69615
-9.46966
-9.26368
-9.07846
-8.91418
-8.77092
-8.64871
-8.54752
-8.4673
-8.40793
-8.36932
-8.35131
-8.35376
-8.37646
-8.41914
-8.48159
-8.56407
-12.1005
-11.7887
-11.4972
-11.2264
-10.9771
-10.7495
-10.544
-10.3606
-10.1995
-10.0608
-9.94436
-9.8502
-9.77822
-9.7283
-9.70031
-9.69411
-9.70948
-9.74612
-9.80381
-9.88279
-14.0763
-13.7334
-13.412
-13.1128
-12.8363
-12.5829
-12.3529
-12.1465
-11.9638
-11.8047
-11.6694
-11.5577
-11.4696
-11.405
-11.3638
-11.3457
-11.3507
-11.3784
-11.4286
-11.5013
-16.4824
-16.1046
-15.7493
-15.4177
-15.1102
-14.8275
-14.5697
-14.3369
-14.1291
-13.9466
-13.7891
-13.6568
-13.5496
-13.4673
-13.41
-13.3774
-13.3694
-13.3859
-13.4265
-13.4903
-19.6275
-19.2105
-18.8169
-18.4493
-18.108
-17.7931
-17.5045
-17.2422
-17.0062
-16.7966
-16.6132
-16.4562
-16.3254
-16.2208
-16.1424
-16.0898
-16.0631
-16.0627
-16.0881
-16.1374
-24.9698
-24.5083
-24.0808
-23.6842
-23.3165
-22.9767
-22.6643
-22.3792
-22.1214
-21.8908
-21.6875
-21.5116
-21.3631
-21.2421
-21.1487
-21.0829
-21.0455
-21.0387
-21.0639
-21.1108
-0.375715
-0.44248
-0.518701
-0.60429
-0.699152
-0.803174
-0.916217
-1.03811
-1.16864
-1.30752
-1.45439
-1.60872
-1.76972
-1.93618
-2.10646
-2.2783
-2.44723
-2.60348
-2.73167
-2.85761
-0.69915
-0.768141
-0.846939
-0.935425
-1.03349
-1.14099
-1.25777
-1.38365
-1.51837
-1.66162
-1.813
-1.97196
-2.13772
-2.30913
-2.48458
-2.66244
-2.84093
-3.01233
-3.16133
-3.32929
-1.04841
-1.12119
-1.20413
-1.29711
-1.39998
-1.5126
-1.63479
-1.76634
-1.90698
-2.05638
-2.2141
-2.37959
-2.55211
-2.73064
-2.91381
-3.10045
-3.28959
-3.47684
-3.65636
-3.85785
-1.42338
-1.49994
-1.58709
-1.68465
-1.79248
-1.91041
-2.03825
-2.17576
-2.32265
-2.47858
-2.6431
-2.81566
-2.99556
-3.18188
-3.37357
-3.56975
-3.76963
-3.97086
-4.17386
-4.39891
-1.82674
-1.90726
-1.99879
-2.10118
-2.21426
-2.33785
-2.47172
-2.61562
-2.76926
-2.93228
-3.10423
-3.28457
-3.47267
-3.66774
-3.86897
-4.07575
-4.28745
-4.50303
-4.72507
-4.96668
-2.26137
-2.34613
-2.44239
-2.55
-2.66876
-2.79847
-2.93891
-3.08982
-3.25087
-3.42172
-3.60192
-3.79098
-3.9883
-4.19325
-4.40521
-4.62374
-4.84847
-5.07915
-5.31851
-5.5744
-2.7305
-2.81976
-2.92109
-3.03428
-3.15915
-3.2955
-3.44308
-3.60162
-3.7708
-3.95027
-4.13961
-4.33836
-4.546
-4.76199
-4.98585
-5.21729
-5.4561
-5.70248
-5.95863
-6.22901
-3.23821
-3.33222
-3.43888
-3.55801
-3.68942
-3.83289
-3.98816
-4.15498
-4.33301
-4.52192
-4.72132
-4.93076
-5.1498
-5.37799
-5.61494
-5.86043
-6.11438
-6.3771
-6.65016
-6.93605
-3.78988
-3.8888
-4.00101
-4.12637
-4.26469
-4.41573
-4.57924
-4.75495
-4.94255
-5.14171
-5.35205
-5.57319
-5.80471
-6.04622
-6.29742
-6.55812
-6.82826
-7.10814
-7.39876
-7.7015
-4.39249
-4.49627
-4.61428
-4.7461
-4.89161
-5.05061
-5.22284
-5.40801
-5.60583
-5.81598
-6.03812
-6.27188
-6.51689
-6.77282
-7.03938
-7.31641
-7.60384
-7.90184
-8.21098
-8.53206
-5.05552
-5.16418
-5.28781
-5.42621
-5.5791
-5.7463
-5.92758
-6.12266
-6.33124
-6.55303
-6.78769
-7.03491
-7.29433
-7.56565
-7.8486
-8.14302
-8.44879
-8.76595
-9.09475
-9.4357
-5.79195
-5.90519
-6.03428
-6.17903
-6.33929
-6.51474
-6.70523
-6.91048
-7.13019
-7.36406
-7.61181
-7.87313
-8.14771
-8.43524
-8.73547
-9.0482
-9.3733
-9.71063
-10.0602
-10.4225
-6.62001
-6.7372
-6.87126
-7.02192
-7.18908
-7.37272
-7.57242
-7.78771
-8.01855
-8.26468
-8.5258
-8.80162
-9.09182
-9.39612
-9.71426
-10.046
-10.3912
-10.7496
-11.121
-11.5058
-7.56556
-7.68564
-7.82373
-7.97954
-8.15285
-8.34375
-8.55286
-8.77729
-9.01888
-9.27699
-9.55132
-9.84159
-10.1475
-10.4688
-10.8052
-11.1564
-11.5221
-11.9021
-12.2961
-12.7043
-8.66671
-8.78802
-8.92856
-9.08809
-9.26646
-9.46316
-9.67762
-9.91245
-10.1645
-10.4337
-10.7205
-11.0247
-11.346
-11.6841
-12.0385
-12.409
-12.7953
-13.197
-13.6137
-14.0458
-9.98318
-10.1032
-10.2438
-10.4048
-10.5861
-10.7873
-11.0078
-11.2478
-11.5077
-11.7876
-12.086
-12.4034
-12.7393
-13.093
-13.4642
-13.8529
-14.2589
-14.6817
-15.1206
-15.576
-11.5961
-11.7118
-11.8496
-12.0095
-12.191
-12.3939
-12.6179
-12.863
-13.1289
-13.4157
-13.7244
-14.0533
-14.4009
-14.7665
-15.1513
-15.5559
-15.9797
-16.4219
-16.8815
-17.3584
-13.5755
-13.6838
-13.8158
-13.971
-14.1482
-14.3482
-14.5709
-14.8161
-15.0836
-15.3727
-15.6829
-16.0146
-16.3692
-16.7473
-17.1471
-17.5673
-18.0076
-18.4675
-18.9462
-19.4427
-16.2086
-16.301
-16.417
-16.5582
-16.7259
-16.9189
-17.1366
-17.3786
-17.6445
-17.934
-18.2464
-18.5815
-18.9396
-19.3211
-19.7259
-20.1533
-20.6033
-21.0764
-21.5726
-22.0869
-21.1538
-21.2268
-21.3303
-21.4619
-21.6206
-21.8056
-22.0162
-22.2522
-22.5131
-22.7986
-23.1086
-23.4429
-23.8017
-24.1854
-24.5938
-25.0271
-25.4864
-25.9756
-26.4971
-27.0332
-27.5396
-22.6113
-19.9563
-17.8528
-16.0477
-14.4931
-13.1267
-11.9039
-10.7973
-9.7887
-8.86502
-8.01635
-7.23492
-6.51436
-5.84933
-5.23515
-4.66642
-4.13744
-3.6566
-3.25243
-28.0733
-23.1514
-20.4852
-18.3618
-16.5333
-14.9534
-13.5614
-12.3135
-11.1831
-10.1522
-9.20819
-8.3412
-7.54364
-6.80927
-6.13292
-5.51001
-4.93566
-4.4074
-3.93824
-3.53614
-28.6351
-23.7099
-21.0307
-18.8863
-17.0331
-15.4269
-14.0083
-12.7344
-11.5793
-10.5256
-9.56068
-8.67488
-7.8607
-7.11191
-6.4233
-5.79022
-5.20789
-4.67394
-4.19786
-3.77653
-29.2208
-24.2874
-21.593
-19.4262
-17.5468
-15.9129
-14.4666
-13.1658
-11.9853
-10.908
-9.9214
-9.01609
-8.18445
-7.42015
-6.71778
-6.07239
-5.47898
-4.93454
-4.44569
-4.00588
-29.8273
-24.8832
-22.1714
-19.9808
-18.0737
-16.4107
-14.9356
-13.607
-12.4002
-11.2984
-10.2895
-9.36398
-8.51411
-7.73341
-7.01622
-6.3573
-5.75135
-5.19478
-4.69238
-4.23667
-30.4529
-25.4976
-22.7645
-20.5493
-18.613
-16.9198
-15.4147
-14.0572
-12.8232
-11.6963
-10.6644
-9.71791
-8.84913
-8.05134
-7.31861
-6.64545
-6.02634
-5.45731
-4.94188
-4.47233
-31.0967
-26.1298
-23.3712
-21.1306
-19.1641
-17.4392
-15.903
-14.5158
-13.2538
-12.101
-11.0454
-10.0774
-9.18921
-8.37386
-7.62522
-6.93754
-6.30515
-5.72387
-5.19612
-4.71413
-31.7573
-26.7775
-23.9915
-21.724
-19.7259
-17.9682
-16.3999
-14.9819
-13.6911
-12.5118
-11.432
-10.4421
-9.53407
-8.70087
-7.93611
-7.23384
-6.58827
-5.99501
-5.45551
-4.962
-32.4336
-27.4394
-24.6248
-22.3286
-20.2977
-18.506
-16.9045
-15.4549
-14.1346
-12.9282
-11.8236
-10.8115
-9.88339
-9.03217
-8.25121
-7.53437
-6.87574
-6.27076
-5.71991
-5.21547
-33.1242
-28.1142
-25.2701
-22.9435
-20.8784
-19.0518
-17.4161
-15.9341
-14.5836
-13.3495
-12.2199
-11.1851
-10.2368
-9.36743
-8.57024
-7.83889
-7.16732
-6.55077
-5.98883
-5.47383
-33.828
-28.8008
-25.9263
-23.5678
-21.4673
-19.6045
-17.9337
-16.4186
-15.0374
-13.7751
-12.6201
-11.5625
-10.5938
-9.70621
-8.89281
-8.14699
-7.46255
-6.83452
-6.26165
-5.73631
-34.5439
-29.4983
-26.5922
-24.2005
-22.0634
-20.1634
-18.4566
-16.9076
-15.4951
-14.2043
-13.0236
-11.943
-10.9538
-10.048
-9.21839
-8.45813
-7.76088
-7.12141
-6.53766
-6.00214
-35.2708
-30.2054
-27.2669
-24.8406
-22.6656
-20.7274
-18.9839
-17.4004
-15.9561
-14.6365
-13.4298
-12.3261
-11.3163
-10.3922
-9.54641
-8.77174
-8.06169
-7.41079
-6.81617
-6.27056
-36.0077
-30.9211
-27.9491
-25.4868
-23.2729
-21.2956
-19.5145
-17.8959
-16.4194
-15.0707
-13.838
-12.711
-11.6806
-10.7383
-9.87626
-9.0872
-8.36435
-7.70198
-7.0965
-6.54086
-36.7534
-31.6442
-28.6377
-26.1381
-23.8841
-21.8669
-20.0476
-18.3934
-16.8844
-15.5063
-14.2473
-13.097
-12.046
-11.0855
-10.2073
-9.40386
-8.66822
-7.99435
-7.37797
-6.81239
-37.5067
-32.3732
-29.3313
-26.7933
-24.4983
-22.4402
-20.5822
-18.892
-17.3501
-15.9424
-14.6571
-13.4835
-12.4119
-11.4332
-10.5388
-9.72107
-8.97265
-8.28726
-7.65996
-7.0845
-38.2674
-33.1073
-30.0287
-27.4512
-25.1141
-23.0145
-21.1171
-19.3905
-17.8155
-16.3782
-15.0666
-13.8697
-12.7776
-11.7807
-10.8703
-10.0382
-9.27703
-8.58009
-7.94184
-7.3566
-39.0368
-33.8459
-30.7284
-28.1101
-25.7302
-23.5884
-21.6512
-19.8879
-18.2798
-16.8128
-15.4749
-14.2548
-13.1422
-12.1273
-11.2009
-10.3546
-9.58071
-8.87222
-8.22304
-7.62816
-39.8152
-34.5878
-31.4285
-28.7684
-26.3451
-24.1608
-22.1835
-20.3834
-18.742
-17.2454
-15.8813
-14.6381
-13.5052
-12.4723
-11.5301
-10.6697
-9.88309
-9.16309
-8.50301
-7.89865
-40.5898
-35.3281
-32.1274
-29.4252
-26.9584
-24.7313
-22.7137
-20.8765
-19.2019
-17.6757
-16.2854
-15.0192
-13.8661
-12.8154
-11.8574
-10.9829
-10.1837
-9.45224
-8.78129
-8.16766
-6.65909
-4.58215
-3.24523
-2.21988
-1.50205
-0.975536
-0.598159
-0.330589
-0.145064
-0.0202391
0.0600809
0.10829
0.133626
0.143129
0.141929
0.133814
0.121517
0.106989
0.091606
0.07631
0.0617321
0.0482723
0.0361639
0.0255195
0.0163614
0.00865899
0.00232217
-0.00273745
-0.00667972
-0.00958916
-0.0116875
-0.0129884
-0.0137864
-0.0139349
-0.0138125
-0.0130212
-0.0119656
-0.0100936
-0.00720287
-0.00407165
-6.91105
-4.76185
-3.38967
-2.33365
-1.59209
-1.04839
-0.65761
-0.379714
-0.186034
-0.0546549
0.031027
0.0836928
0.112767
0.125437
0.126936
0.121128
0.110808
0.0979753
0.0840436
0.0699893
0.0564711