/*--------------------------------*- C++ -*----------------------------------*\
| =========                 |                                                 |
| \\      /  F ield         | OpenFOAM: The Open Source CFD Toolbox           |
|  \\    /   O peration     | Version:  v1912                                 |
|   \\  /    A nd           | Website:  www.openfoam.com                      |
|    \\/     M anipulation  |                                                 |
\*---------------------------------------------------------------------------*/
FoamFile
{
    version     2.0;
    format      ascii;
    class       surfaceScalarField;
    location    "9.5";
    object      phi;
}
// * * * * * * * * * * * * * * * * * * * * * * * * * * * * * * * * * * * * * //

dimensions      [0 3 -1 0 0 0 0];
oriented        oriented;


internalField   nonuniform List<scalar> 
18940
(
0.000225082
-0.236428
0.236202
0.000909972
-0.21965
0.218965
0.0019417
-0.207826
0.206794
0.00319362
-0.198966
0.197714
0.0045756
-0.191784
0.190402
0.00601615
-0.185463
0.184023
0.00746314
-0.179552
0.178105
0.00888183
-0.173821
0.172402
0.0102513
-0.168174
0.166805
0.011561
-0.162587
0.161278
0.0128078
-0.157072
0.155825
0.0139936
-0.151658
0.150472
0.0151237
-0.146375
0.145245
0.0162053
-0.141254
0.140172
0.0172467
-0.136313
0.135272
0.018257
-0.131566
0.130556
0.0192447
-0.127013
0.126026
0.0202175
-0.122645
0.121673
0.0211809
-0.118441
0.117477
-0.114366
0.11341
0.0221374
0.000246142
-0.236674
0.000951039
-0.220355
0.00199318
-0.208868
0.00325485
-0.200228
0.004641
-0.19317
0.00607976
-0.186902
0.00751971
-0.180992
0.00892704
-0.175228
0.0102819
-0.169529
0.0115748
-0.16388
0.0128037
-0.158301
0.0139711
-0.152825
0.0150831
-0.147487
0.0161472
-0.142318
0.0171723
-0.137338
0.0181676
-0.132561
0.019142
-0.127988
0.0201037
-0.123607
0.0210589
-0.119396
-0.115318
0.0220106
0.000265904
-0.23694
0.000986886
-0.221076
0.00204002
-0.209921
0.00330893
-0.201497
0.00469703
-0.194558
0.00613173
-0.188337
0.00756222
-0.182422
0.00895576
-0.176622
0.0102937
-0.170867
0.0115676
-0.165154
0.0127765
-0.15951
0.0139238
-0.153972
0.015016
-0.14858
0.0160611
-0.143363
0.0170684
-0.138346
0.0180472
-0.13354
0.0190069
-0.128948
0.0199562
-0.124556
0.0209017
-0.120341
-0.116263
0.0218473
0.000278409
-0.237218
0.00101482
-0.221812
0.00207989
-0.210986
0.00335502
-0.202772
0.00474303
-0.195946
0.00617135
-0.189765
0.00758995
-0.183841
0.00896729
-0.177999
0.010286
-0.172186
0.0115389
-0.166407
0.0127258
-0.160697
0.0138512
-0.155098
0.0149219
-0.14965
0.0159466
-0.144388
0.0169347
-0.139334
0.0178957
-0.134501
0.0188395
-0.129891
0.0197751
-0.125492
0.0207098
-0.121276
-0.117202
0.0216484
0.000288716
-0.237507
0.00103869
-0.222562
0.00211408
-0.212062
0.00339352
-0.204051
0.00477911
-0.197332
0.00619858
-0.191185
0.00760282
-0.185245
0.00896155
-0.179358
0.0102587
-0.173483
0.0114884
-0.167637
0.0126515
-0.16186
0.0137532
-0.156199
0.014801
-0.150698
0.0158038
-0.14539
0.0167712
-0.140301
0.0177132
-0.135443
0.0186397
-0.130818
0.0195604
-0.126413
0.0204832
-0.122199
-0.118133
0.0214139
0.000297247
-0.237804
0.00105891
-0.223324
0.00214275
-0.213145
0.00342442
-0.205333
0.00480525
-0.198713
0.00621336
-0.192593
0.00760073
-0.186632
0.00893842
-0.180696
0.0102118
-0.174756
0.0114162
-0.168841
0.0125535
-0.162997
0.0136297
-0.157276
0.0146529
-0.151721
0.0156323
-0.14637
0.0165777
-0.141246
0.0174993
-0.136365
0.0184073
-0.131726
0.0193117
-0.127317
0.0202215
-0.123109
-0.119054
0.0211432
0.000304598
-0.238109
0.00107614
-0.224095
0.00216638
-0.214236
0.003448
-0.206614
0.00482158
-0.200086
0.00621577
-0.193987
0.00758373
-0.188
0.00889795
-0.18201
0.0101452
-0.176004
0.0113222
-0.170018
0.0124318
-0.164107
0.0134807
-0.158325
0.0144776
-0.152718
0.0154321
-0.147324
0.016354
-0.142168
0.0172536
-0.137264
0.0181416
-0.132614
0.0190284
-0.128204
0.0199237
-0.124004
-0.119966
0.0208354
0.000310921
-0.238419
0.00109067
-0.224875
0.00218524
-0.21533
0.00346448
-0.207894
0.00482829
-0.20145
0.00620599
-0.195365
0.00755199
-0.189346
0.0088403
-0.183298
0.0100592
-0.177223
0.0112065
-0.171166
0.0122864
-0.165187
0.0133062
-0.159344
0.0142751
-0.153687
0.0152029
-0.148252
0.0160996
-0.143065
0.0169757
-0.13814
0.0178419
-0.13348
0.0187094
-0.129071
0.0195887
-0.124883
-0.120866
0.0204888
0.000316313
-0.238736
0.0011027
-0.225662
0.00219962
-0.216427
0.00347414
-0.209168
0.00482567
-0.202802
0.0061843
-0.196723
0.00750582
-0.190668
0.00876579
-0.184558
0.00995396
-0.178411
0.0110695
-0.172281
0.0121176
-0.166235
0.0131063
-0.160333
0.0140453
-0.154626
0.0149445
-0.149151
0.0158142
-0.143935
0.0166648
-0.138991
0.0175073
-0.134323
0.0183533
-0.129917
0.0192145
-0.125744
-0.121753
0.0201012
0.000320831
-0.239057
0.00111244
-0.226453
0.00220981
-0.217525
0.00347734
-0.210436
0.00481412
-0.204138
0.00615114
-0.19806
0.00744568
-0.191962
0.0086749
-0.185787
0.00983005
-0.179566
0.0109116
-0.173363
0.0119257
-0.167249
0.0128813
-0.161289
0.0137882
-0.155533
0.0146569
-0.15002
0.0154974
-0.144775
0.0163203
-0.139814
0.0171366
-0.135139
0.0179585
-0.130739
0.018799
-0.126585
-0.122624
0.0196699
0.000324559
-0.239381
0.00112016
-0.227249
0.0022162
-0.218621
0.00347453
-0.211694
0.00479413
-0.205458
0.00610708
-0.199373
0.00737221
-0.193227
0.00856831
-0.186984
0.00968816
-0.180686
0.0107335
-0.174408
0.0117115
-0.168227
0.0126316
-0.162209
0.0135043
-0.156406
0.0143401
-0.150856
0.015149
-0.145584
0.0159414
-0.140606
0.0167285
-0.135926
0.0175232
-0.131534
0.0183395
-0.127401
-0.123476
0.0191914
0.000327622
-0.239709
0.00112617
-0.228047
0.00221926
-0.219714
0.00346628
-0.212941
0.00476637
-0.206758
0.00605288
-0.20066
0.00728625
-0.194461
0.00844696
-0.188144
0.00952928
-0.181768
0.0105362
-0.175415
0.0114757
-0.169166
0.0123581
-0.163091
0.0131942
-0.157242
0.0139945
-0.151656
0.0147689
-0.146359
0.0155277
-0.141365
0.0162821
-0.13668
0.0170455
-0.132297
0.0178334
-0.128189
-0.124304
0.018662
0.000330263
-0.240039
0.00113099
-0.228848
0.0022196
-0.220802
0.0034533
-0.214175
0.00473166
-0.208036
0.00598947
-0.201918
0.00718888
-0.19566
0.00831204
-0.189267
0.00935469
-0.182811
0.010321
-0.176381
0.0112199
-0.170065
0.0120622
-0.163933
0.012859
-0.158039
0.0136208
-0.152418
0.0143576
-0.147095
0.0150792
-0.142087
0.0157966
-0.137398
0.0165238
-0.133025
0.0172778
-0.128943
-0.125104
0.0180776
0.00033292
-0.240372
0.00113534
-0.229651
0.00221805
-0.221885
0.00343646
-0.215393
0.00469097
-0.209291
0.00591798
-0.203145
0.00708139
-0.196824
0.00816504
-0.190351
0.00916608
-0.183812
0.0100898
-0.177305
0.0109459
-0.170921
0.0117457
-0.164733
0.0125004
-0.158793
0.0132207
-0.153138
0.0139161
-0.147791
0.0145961
-0.142767
0.0152714
-0.138073
0.0159561
-0.133709
0.016669
-0.129656
-0.125867
0.0174322
0.00033635
-0.240708
0.00114026
-0.230454
0.00221555
-0.22296
0.00341673
-0.216594
0.0046454
-0.21052
0.00583968
-0.204339
0.0069653
-0.197949
0.00800774
-0.191394
0.00896551
-0.18477
0.00984495
-0.178185
0.0106563
-0.171733
0.0114113
-0.165488
0.0121214
-0.159503
0.0127967
-0.153813
0.0134467
-0.148441
0.01408
-0.1434
0.0147067
-0.1387
0.0153408
-0.134343
0.0160024
-0.130318
-0.126584
0.0167188
0.000341644
-0.24105
0.00114691
-0.23126
0.00221305
-0.224026
0.00339509
-0.217776
0.00459609
-0.211721
0.00575598
-0.205499
0.00684231
-0.199036
0.00784218
-0.192393
0.00875543
-0.185683
0.00958929
-0.179018
0.0103546
-0.172498
0.0110631
-0.166197
0.0117261
-0.160166
0.0123537
-0.154441
0.0129542
-0.149041
0.0135355
-0.143981
0.0141065
-0.139271
0.0146801
-0.134917
0.0152782
-0.130916
-0.127241
0.0159357
0.000350132
-0.2414
0.00115645
-0.232066
0.00221159
-0.225082
0.00337268
-0.218938
0.00454438
-0.212892
0.00566841
-0.206623
0.00671423
-0.200081
0.00767059
-0.19335
0.00853856
-0.186551
0.00932616
-0.179806
0.0100445
-0.173216
0.0107055
-0.166858
0.01132
-0.160781
0.0118976
-0.155018
0.0124457
-0.149589
0.0129709
-0.144506
0.0134803
-0.13978
0.013985
-0.135422
0.0145076
-0.131438
-0.127821
0.0150869
0.000364127
-0.241764
0.00117136
-0.232873
0.0022134
-0.226124
0.00335124
-0.220075
0.00449169
-0.214033
0.0055784
-0.20771
0.00658278
-0.201086
0.00749518
-0.194262
0.0083178
-0.187373
0.00905927
-0.180547
0.00973088
-0.173888
0.0103441
-0.167471
0.0109093
-0.161346
0.0114349
-0.155544
0.0119273
-0.150082
0.0123917
-0.144971
0.0128335
-0.140222
0.01326
-0.135848
0.0136882
-0.131866
-0.128284
0.014152
0.000391269
-0.242156
0.00119898
-0.233681
0.0022224
-0.227147
0.00333228
-0.221185
0.00443871
-0.215139
0.00548672
-0.208758
0.00644917
-0.202048
0.00731786
-0.195131
0.00809601
-0.188152
0.00879278
-0.181244
0.00941941
-0.174515
0.00998676
-0.168038
0.0105038
-0.161863
0.0109771
-0.156017
0.0114105
-0.150515
0.0118056
-0.145366
0.012163
-0.140579
0.0124808
-0.136166
0.0127666
-0.132152
-0.128606
0.0130877
0.000451469
-0.242607
0.0012485
-0.234478
0.00223786
-0.228136
0.00331404
-0.222261
0.00438441
-0.21621
0.00539313
-0.209766
0.00631393
-0.202969
0.00713994
-0.195957
0.00787552
-0.188887
0.00853051
-0.181899
0.00911631
-0.175101
0.00964338
-0.168565
0.0101196
-0.162339
0.0105491
-0.156447
0.0109318
-0.150898
0.0112616
-0.145696
0.0115245
-0.140842
0.0116963
-0.136338
0.0117636
-0.13222
-0.128739
0.0118966
0.248635
0.00034622
-0.248981
0.248317
0.000318102
0.248008
0.000308713
0.247701
0.000307138
0.247392
0.000308752
0.24708
0.000311677
0.246765
0.000315259
0.246446
0.000318945
0.246124
0.000322342
0.245799
0.000325231
0.245471
0.000327503
0.245142
0.00032912
0.244812
0.000330044
0.244482
0.000330234
0.244152
0.000329547
0.243824
0.000327751
0.243501
0.000323774
0.243184
0.000317029
0.242885
0.000298351
0.000278205
0.247017
0.000838276
-0.247509
0.246496
0.000838475
0.245954
0.000851557
0.24539
0.000871175
0.244805
0.000892837
0.244203
0.000914444
0.243582
0.000935578
0.242946
0.000955741
0.242293
0.000974476
0.241627
0.00099148
0.240948
0.00100659
0.240257
0.00101974
0.239557
0.00103086
0.238847
0.00103989
0.23813
0.00104663
0.237407
0.00105081
0.236679
0.00105127
0.235949
0.00104764
0.235214
0.00103323
0.00101409
0.243099
0.00129418
-0.243555
0.242586
0.00135178
0.242028
0.0014093
0.241431
0.00146843
0.240797
0.00152714
0.240128
0.00158347
0.239426
0.00163706
0.238694
0.00168767
0.237934
0.00173499
0.237147
0.00177876
0.236334
0.00181887
0.235499
0.00185526
0.234642
0.00188789
0.233765
0.00191678
0.23287
0.00194182
0.231958
0.00196294
0.231029
0.00197949
0.230085
0.00199159
0.229122
0.00199684
0.0019995
0.23715
0.00165289
-0.237509
0.236733
0.00176969
0.23626
0.00188153
0.235738
0.00199051
0.235169
0.00209651
0.234554
0.00219806
0.233897
0.00229477
0.233198
0.0023864
0.23246
0.00247273
0.231685
0.00255357
0.230875
0.00262879
0.230032
0.00269839
0.229158
0.00276242
0.228253
0.00282099
0.227321
0.0028742
0.226362
0.00292222
0.225376
0.00296499
0.224365
0.003003
0.223326
0.00303552
0.00306431
0.229723
0.0018852
-0.229955
0.229431
0.00206171
0.229081
0.00223126
0.228676
0.00239516
0.228219
0.00255388
0.227711
0.0027064
0.227153
0.0028523
0.226548
0.00299129
0.225898
0.00312312
0.225204
0.0032476
0.224468
0.00336464
0.223692
0.00347425
0.222878
0.00357655
0.222027
0.00367178
0.221141
0.00376021
0.220221
0.0038423
0.219268
0.00391841
0.218281
0.00398928
0.217262
0.00405495
0.00411676
0.221399
0.00199599
-0.221509
0.221229
0.00223158
0.221001
0.00245916
0.220717
0.0026794
0.220378
0.00289273
0.219986
0.00309839
0.219542
0.00329593
0.219048
0.00348499
0.218506
0.00366527
0.217917
0.00383657
0.217283
0.00399878
0.216606
0.00415193
0.215886
0.00429618
0.215126
0.00443187
0.214327
0.00455949
0.213489
0.00467971
0.212614
0.00479327
0.211702
0.0049012
0.210753
0.00500416
0.00510364
0.212697
0.00200744
-0.212709
0.212628
0.00230023
0.212503
0.00258435
0.212323
0.00286002
0.212088
0.00312744
0.2118
0.00338595
0.211461
0.00363507
0.211072
0.00387438
0.210634
0.00410351
0.210148
0.0043222
0.209616
0.00453033
0.20904
0.00472789
0.208422
0.00491511
0.207761
0.0050924
0.20706
0.00526042
0.20632
0.0054201
0.20554
0.00557252
0.204723
0.00571912
0.203866
0.0058611
0.00600017
0.204009
0.00194647
-0.203948
0.204015
0.00229385
0.203968
0.00263205
0.203867
0.00296097
0.203713
0.00328059
0.203509
0.00359025
0.203255
0.00388942
0.202952
0.0041776
0.202601
0.00445433
0.202204
0.0047193
0.201762
0.00497232
0.201276
0.00521336
0.200749
0.00544266
0.20018
0.00566069
0.199572
0.00586827
0.198926
0.00606658
0.198241
0.00625711
0.197519
0.00644175
0.196758
0.00662231
0.0068009
0.195593
0.00183822
-0.195485
0.195649
0.00223739
0.195655
0.0026269
0.195609
0.00300643
0.195514
0.00337579
0.19537
0.00373425
0.195178
0.00408122
0.19494
0.00441608
0.194656
0.00473832
0.194328
0.00504752
0.193956
0.0053434
0.193544
0.0056259
0.193091
0.00589519
0.1926
0.00615182
0.192072
0.00639672
0.191507
0.00663134
0.190907
0.00685759
0.19027
0.00707794
0.189598
0.00729496
0.00751145
0.187601
0.00170347
-0.187467
0.187687
0.00215176
0.187724
0.0025899
0.187713
0.00301745
0.187655
0.003434
0.18755
0.00383878
0.1874
0.0042311
0.187206
0.00461024
0.186969
0.00497558
0.18669
0.00532658
0.186371
0.00566288
0.186012
0.00598428
0.185616
0.00629092
0.185185
0.00658329
0.184719
0.00686246
0.18422
0.00713006
0.18369
0.00738854
0.183126
0.00764098
0.18253
0.00789108
0.00814259
0.180108
0.00155801
-0.179962
0.180206
0.00205306
0.180259
0.0025375
0.180265
0.00301071
0.180227
0.00347214
0.180145
0.00392094
0.18002
0.00435629
0.179853
0.00477739
0.179645
0.00518349
0.179397
0.00557391
0.179112
0.00594813
0.178791
0.00630582
0.178435
0.00664698
0.178046
0.006972
0.177626
0.00728197
0.177178
0.00757867
0.176701
0.00786512
0.176197
0.00814507
0.175664
0.00842383
0.00870643
0.173132
0.00141293
-0.172987
0.173232
0.00195283
0.173288
0.00248166
0.1733
0.00299859
0.173269
0.00350294
0.173196
0.00399378
0.173082
0.00447018
0.172928
0.00493121
0.172736
0.00537597
0.172506
0.00580366
0.172241
0.00621354
0.171942
0.00660509
0.17161
0.00697809
0.17125
0.00733271
0.170862
0.00766997
0.170449
0.0079916
0.170013
0.00830128
0.169554
0.00860331
0.169073
0.00890535
0.00921398
0.166662
0.00127551
-0.166524
0.166756
0.00185889
0.166807
0.0024306
0.166816
0.0029897
0.166783
0.0035354
0.16671
0.00406668
0.166598
0.00458249
0.166447
0.00508178
0.16626
0.00556351
0.166037
0.00602666
0.16578
0.0064703
0.165491
0.00689362
0.165173
0.0072961
0.164829
0.00767754
0.16446
0.00803873
0.16407
0.00838108
0.163663
0.00870892
0.163239
0.00902666
0.162799
0.00934569
0.00967367
0.160667
0.00115031
-0.160542
0.16075
0.00177605
0.160791
0.00238949
0.160791
0.00298961
0.160751
0.00357547
0.160672
0.00414595
0.160554
0.0046999
0.1604
0.00523614
0.16021
0.00575347
0.159986
0.00625067
0.15973
0.00672656
0.159443
0.00717999
0.159129
0.00761002
0.158791
0.00801594
0.158432
0.00839804
0.158056
0.00875698
0.157667
0.00909769
0.15727
0.00942367
0.156863
0.00975229
0.0100903
0.155109
0.00103981
-0.154998
0.155178
0.00170715
0.155206
0.00236143
0.155194
0.00300165
0.155142
0.00362674
0.155053
0.00423546
0.154926
0.00482656
0.154764
0.00539873
0.154566
0.00595062
0.154336
0.0064808
0.154075
0.00698779
0.153785
0.00747008
0.153469
0.00792621
0.15313
0.00835474
0.152773
0.00875522
0.152403
0.00912693
0.152025
0.0094752
0.151649
0.00980048
0.151271
0.0101299
0.0104634
0.149945
0.000945128
-0.14985
0.149999
0.00165335
0.150012
0.00234781
0.149986
0.0030274
0.149922
0.00369094
0.149821
0.00433712
0.149683
0.00496456
0.149509
0.00557185
0.149303
0.00615746
0.149064
0.00671977
0.148794
0.00725701
0.148497
0.00776726
0.148175
0.00824848
0.147831
0.00869834
0.147471
0.00911528
0.147102
0.00949649
0.14673
0.00984723
0.146369
0.0101615
0.146017
0.0104813
0.0107849
0.145134
0.000866236
-0.145055
0.145173
0.00161468
0.145172
0.00234872
0.145132
0.00306702
0.145055
0.00376833
0.144941
0.00445121
0.144791
0.00511424
0.144607
0.00575586
0.14439
0.00637441
0.144142
0.00696809
0.143864
0.00753487
0.143559
0.00807241
0.143229
0.00857806
0.142879
0.0090485
0.142514
0.00948071
0.142141
0.00986899
0.141771
0.0102176
0.141423
0.0105095
0.141094
0.0108098
0.0110367
0.14064
0.000801749
-0.140575
0.140664
0.0015902
0.14065
0.0023631
0.140597
0.00311937
0.140508
0.00385762
0.140383
0.00457633
0.140223
0.00527402
0.14003
0.00594904
0.139805
0.00659963
0.139549
0.0072238
0.139265
0.00781929
0.138953
0.00838345
0.138618
0.00891305
0.138263
0.00940379
0.137893
0.00985098
0.137517
0.0102451
0.137146
0.010588
0.136812
0.0108443
0.136502
0.0111193
0.011201
0.136426
0.000750483
-0.136375
0.136439
0.00157779
0.136413
0.00238852
0.136351
0.00318164
0.136253
0.00395563
0.13612
0.0047089
0.135954
0.00543992
0.135757
0.00614701
0.135528
0.00682827
0.13527
0.00748163
0.134985
0.00810466
0.134674
0.00869446
0.134339
0.00924738
0.133985
0.00975826
0.133615
0.0102211
0.133238
0.010622
0.132867
0.0109588
0.132547
0.0111641
0.132271
0.0113956
0.0112523
0.132461
-0.132422
0.000710741
0.132465
0.00157416
0.132432
0.00242133
0.132364
0.00324955
0.132263
0.00405736
0.132128
0.00484321
0.131963
0.00560554
0.131767
0.0063426
0.131543
0.00705245
0.131292
0.00773294
0.131015
0.00838159
0.130714
0.00899532
0.130391
0.00957036
0.130048
0.010101
0.129689
0.0105806
0.129319
0.0109915
0.128948
0.0113304
0.128622
0.0114898
0.12838
0.0116373
0.0108941
0.251427
6.8949e-05
-0.251496
0.2514
2.73402e-05
0.251381
1.89099e-05
0.251357
2.36745e-05
0.251322
3.44237e-05
0.251274
4.85155e-05
0.251209
6.47223e-05
0.251127
8.20369e-05
0.251028
9.96617e-05
0.25091
0.000117344
0.250776
0.000134683
0.250624
0.000151031
0.250458
0.000166341
0.250277
0.000180723
0.250083
0.000194119
0.249877
0.000206755
0.249658
0.00021813
0.249432
0.000226572
0.249206
0.000226297
0.000224625
0.249601
-0.000200253
-0.249331
0.24982
-0.000192043
0.250004
-0.000165218
0.250153
-0.000125117
0.250265
-7.80951e-05
0.250341
-2.71986e-05
0.250379
2.64376e-05
0.25038
8.15764e-05
0.250342
0.000137474
0.250264
0.00019512
0.250147
0.000251538
0.249992
0.000305908
0.2498
0.000358517
0.249572
0.000409186
0.249309
0.000456783
0.249014
0.000502004
0.248683
0.000549085
0.24832
0.000589236
0.247927
0.000619223
0.000643167
0.242994
-0.000754444
-0.24244
0.243484
-0.000682359
0.24392
-0.000601202
0.244306
-0.00051031
0.24464
-0.000412726
0.244924
-0.000310995
0.245157
-0.000206076
0.245338
-9.96958e-05
0.245472
3.03288e-06
0.24555
0.000117722
0.245575
0.000226437
0.24555
0.000330714
0.245474
0.000434391
0.245347
0.000535964
0.24517
0.000634518
0.244941
0.000730245
0.244668
0.000822831
0.244347
0.000909858
0.243977
0.000989408
0.00106465
0.23372
-0.00152769
-0.232946
0.234432
-0.00139514
0.235088
-0.00125627
0.235687
-0.0011098
0.236231
-0.000956709
0.236719
-0.00079893
0.237151
-0.00063778
0.237526
-0.00047459
0.237839
-0.000310397
0.238099
-0.000142363
0.238294
3.12811e-05
0.238438
0.000187343
0.238522
0.000350136
0.238548
0.000509939
0.238516
0.000666492
0.238427
0.00081939
0.238282
0.000967813
0.238081
0.00111096
0.237822
0.00124758
0.00137801
0.223275
-0.00245595
-0.222347
0.224148
-0.00226813
0.224965
-0.0020737
0.225728
-0.00187193
0.226434
-0.00166307
0.227084
-0.00144857
0.227676
-0.00122974
0.228209
-0.00100758
0.228681
-0.000783072
0.229095
-0.000556461
0.229456
-0.000329167
0.22975
-0.000107063
0.229985
0.000114888
0.230161
0.000334283
0.230276
0.000551699
0.230331
0.000764545
0.230326
0.000972599
0.230262
0.00117522
0.230138
0.00137139
0.00156069
0.212608
-0.00348321
-0.21158
0.213584
-0.00324482
0.214509
-0.00299825
0.21538
-0.00274343
0.216198
-0.00248056
0.21696
-0.00221089
0.217666
-0.00193576
0.218315
-0.00165641
0.218906
-0.00137412
0.21944
-0.00109002
0.219916
-0.000805241
0.22033
-0.00052164
0.220685
-0.000239751
0.220983
3.56687e-05
0.221221
0.000314438
0.221398
0.000587556
0.221515
0.000855363
0.221573
0.00111754
0.221571
0.00137327
0.001622
0.20229
-0.00456537
-0.201208
0.203326
-0.00428022
0.204312
-0.00398487
0.205248
-0.00367971
0.206133
-0.00336519
0.206965
-0.00304262
0.207743
-0.00271353
0.208466
-0.0023794
0.209133
-0.00204168
0.209745
-0.00170167
0.2103
-0.0013605
0.210798
-0.00101976
0.211239
-0.000680464
0.211618
-0.00034346
0.211948
-1.5696e-05
0.212216
0.000319683
0.212426
0.000645539
0.212578
0.000965494
0.212672
0.00127906
0.00158555
0.192623
-0.00567055
-0.191518
0.193685
-0.00534171
0.1947
-0.00500041
0.195668
-0.00464733
0.196586
-0.00428332
0.197453
-0.00391
0.198269
-0.00352913
0.199032
-0.00314243
0.199742
-0.0027515
0.200398
-0.00235782
0.201
-0.0019627
0.201548
-0.00156757
0.202041
-0.00117355
0.202479
-0.000781708
0.202857
-0.000393216
0.20319
-1.34392e-05
0.203462
0.0003737
0.203679
0.00074827
0.203841
0.00111707
0.00147879
0.183726
-0.00677757
-0.182618
0.184791
-0.00640748
0.185813
-0.00602243
0.186789
-0.00562327
0.187717
-0.00521143
0.188596
-0.00478898
0.189425
-0.00435804
0.190203
-0.00392058
0.19093
-0.00347844
0.191606
-0.00303322
0.192229
-0.00258636
0.192801
-0.00213921
0.19332
-0.00169298
0.193787
-0.00124871
0.194202
-0.000807665
0.19456
-0.000371085
0.194872
6.11136e-05
0.195129
0.000491773
0.195333
0.00091278
0.00132695
0.175606
-0.00787369
-0.17451
0.176663
-0.00746441
0.177678
-0.00703721
0.178648
-0.00659313
0.179571
-0.00613444
0.180445
-0.0056639
0.181271
-0.00518405
0.182048
-0.00469719
0.182775
-0.00420536
0.183452
-0.0037103
0.184079
-0.00321351
0.184656
-0.00271634
0.185183
-0.00221998
0.18566
-0.00172552
0.186087
-0.001234
0.186462
-0.00074644
0.186787
-0.000263911
0.187064
0.00021426
0.18729
0.000686706
0.00115068
0.168216
-0.00895238
-0.167137
0.169257
-0.00850583
0.170258
-0.00803756
0.171214
-0.00754901
0.172123
-0.00704382
0.172985
-0.00652563
0.173798
-0.00599748
0.174563
-0.00546203
0.175279
-0.00492155
0.175947
-0.00437789
0.176566
-0.00383257
0.177136
-0.00328692
0.177659
-0.0027421
0.178132
-0.00219919
0.178557
-0.00165919
0.178934
-0.00112305
0.179262
-0.000591548
0.179544
-6.77635e-05
0.179777
0.000453622
0.000965386
0.161481
-0.0100115
-0.160422
0.162506
-0.00952989
0.163489
-0.00902106
0.164428
-0.00848773
0.16532
-0.00793572
0.166164
-0.0073697
0.16696
-0.0067933
0.167707
-0.00620959
0.168407
-0.00562106
0.169058
-0.00502961
0.169662
-0.00443673
0.170219
-0.00384372
0.170729
-0.00325169
0.171191
-0.00266168
0.171607
-0.00207467
0.171975
-0.00149164
0.172297
-0.00091359
0.172572
-0.000342227
0.172803
0.0002225
0.000781951
0.155323
-0.0110522
-0.154282
0.156332
-0.0105383
0.157299
-0.0099887
0.158221
-0.00940937
0.159095
-0.00880944
0.15992
-0.00819473
0.160696
-0.00756953
0.161424
-0.0069374
0.162104
-0.00630099
0.162736
-0.00566216
0.163322
-0.00502235
0.163861
-0.00438275
0.164353
-0.00374441
0.1648
-0.0031083
0.165201
-0.00247539
0.165556
-0.00184668
0.165865
-0.00122291
0.166128
-0.000605001
0.16635
3.55666e-07
0.000607795
0.149667
-0.012078
-0.148641
0.150664
-0.0115359
0.151619
-0.0109438
0.152526
-0.010316
0.153383
-0.00966606
0.154189
-0.00900091
0.154945
-0.0083257
0.155652
-0.00764451
0.156311
-0.00696003
0.156923
-0.00627399
0.157488
-0.00558764
0.158008
-0.00490202
0.158481
-0.00421804
0.158909
-0.00353659
0.159293
-0.0028586
0.159631
-0.00218503
0.159925
-0.0015168
0.160175
-0.00085539
0.160378
-0.000202858
0.000444491
0.144449
-0.0130952
-0.143432
0.145443
-0.0125296
0.14639
-0.0118912
0.147285
-0.0112105
0.148126
-0.0105069
0.148913
-0.00978842
0.149649
-0.00906138
0.150335
-0.0083302
0.150972
-0.00759736
0.151562
-0.00686423
0.152106
-0.00613174
0.152605
-0.00540064
0.153058
-0.00467164
0.153467
-0.00394552
0.153832
-0.00322313
0.154152
-0.00250543
0.154429
-0.00179344
0.154662
-0.00108836
0.154851
-0.000391582
0.000296917
0.139622
-0.0141148
-0.138602
0.14062
-0.0135282
0.141564
-0.0128349
0.142448
-0.0120945
0.143273
-0.0113316
0.14404
-0.010556
0.144754
-0.00977509
0.145417
-0.0089932
0.146032
-0.00821203
0.1466
-0.00743228
0.147122
-0.00665431
0.1476
-0.00587844
0.148034
-0.00510513
0.148423
-0.004335
0.148769
-0.00356885
0.149071
-0.0028076
0.14933
-0.00205231
0.149546
-0.00130408
0.149719
-0.000564405
0.000165451
0.135146
-0.0151598
-0.134101
0.13616
-0.0145417
0.137101
-0.0137764
0.137973
-0.0129663
0.138778
-0.0121368
0.139522
-0.0112999
0.140211
-0.0104641
0.14085
-0.00963181
0.141441
-0.00880323
0.141987
-0.00797798
0.142488
-0.00715564
0.142946
-0.00633599
0.14336
-0.00551918
0.14373
-0.00470573
0.144058
-0.00389639
0.144342
-0.00309208
0.144584
-0.00229393
0.144783
-0.0015031
0.14494
-0.000720916
4.98078e-05
0.130993
-0.0162798
-0.129873
0.13203
-0.0155792
0.132964
-0.0147101
0.133817
-0.013819
0.134595
-0.0129155
0.135311
-0.0120152
0.135972
-0.0111256
0.136585
-0.0102451
0.137153
-0.0093712
0.137678
-0.00850228
0.138159
-0.00763701
0.138598
-0.00677465
0.138994
-0.00591516
0.139347
-0.00505897
0.139657
-0.0042069
0.139925
-0.00335993
0.140151
-0.00251928
0.140334
-0.00168631
0.140475
-0.000862461
-4.9865e-05
0.127154
-0.0175223
-0.125911
0.128199
-0.0166245
0.129107
-0.0156188
0.129927
-0.0146388
0.130672
-0.0136606
0.131357
-0.0126993
0.131991
-0.0117596
0.13258
-0.0108344
0.133127
-0.00991809
0.133632
-0.00900748
0.134096
-0.00810059
0.134517
-0.00719637
0.134897
-0.00629473
0.135234
-0.00539621
0.135529
-0.00450174
0.135781
-0.00361246
0.135992
-0.00272967
0.13616
-0.0018549
0.136288
-0.000989961
-0.000136844
0.123633
-0.122475
-0.0186801
0.124593
-0.0175841
0.125474
-0.0164999
0.12625
-0.0154154
0.126961
-0.0143712
0.12762
-0.0133582
0.128232
-0.0123716
0.128801
-0.0114041
0.129331
-0.0104474
0.12982
-0.00949634
0.130267
-0.00854836
0.130674
-0.00760253
0.131038
-0.00665891
0.13136
-0.00571825
0.13164
-0.00478168
0.131878
-0.00385051
0.132074
-0.00292616
0.132229
-0.00201011
0.132344
-0.00110432
-0.00021473
0.0234333
0.100838
-0.0996804
-0.0245906
0.0222684
0.104443
-0.103278
0.0210919
0.10823
-0.107053
0.0198992
0.112218
-0.111025
0.0186856
0.116434
-0.11522
0.017447
0.120912
-0.119673
0.0161797
0.1257
-0.124432
0.0148808
0.13086
-0.129561
0.0135482
0.136473
-0.135141
0.0121804
0.142642
-0.141274
0.0107774
0.149488
-0.148085
0.00934115
0.15715
-0.155714
0.00787722
0.16578
-0.164316
0.00639743
0.175519
-0.174039
0.00492375
0.186469
-0.184995
0.00349403
0.198621
-0.197191
0.00216961
0.211763
-0.210439
0.00104516
0.225317
-0.224192
0.000254251
0.238006
-0.237215
0.247493
-0.247239
0.0234507
0.102002
-0.0246148
0.0222791
0.105614
0.0210963
0.109412
0.0198977
0.113416
0.0186787
0.117653
0.017435
0.122156
0.0161631
0.126972
0.0148599
0.132163
0.0135232
0.13781
0.0121517
0.144014
0.0107453
0.150894
0.00930631
0.158589
0.00784089
0.167245
0.00636152
0.176999
0.00489119
0.187939
0.00346905
0.200043
0.00215776
0.213074
0.00105139
0.226423
0.000281414
0.238776
0.247775
0.0234298
0.10317
-0.0245984
0.0222538
0.10679
0.0210669
0.110599
0.0198646
0.114619
0.0186421
0.118875
0.0173955
0.123402
0.016121
0.128246
0.0148156
0.133468
0.0134769
0.139149
0.0121037
0.145387
0.010696
0.152302
0.00925656
0.160028
0.00779179
0.16871
0.00631491
0.178476
0.00484973
0.189404
0.00343629
0.201456
0.0021377
0.214373
0.00104687
0.227514
0.000288112
0.239535
0.248063
0.0233714
0.104341
-0.0245422
0.0221933
0.107968
0.0210045
0.111788
0.0198005
0.115823
0.0185767
0.120099
0.0173291
0.12465
0.016054
0.129521
0.0147483
0.134774
0.0134097
0.140487
0.0120368
0.14676
0.01063
0.153708
0.00919202
0.161466
0.00772992
0.170172
0.00625742
0.179948
0.00479902
0.190862
0.00339534
0.20286
0.00210967
0.215659
0.0010336
0.22859
0.000286806
0.240282
0.248349
0.0232769
0.105512
-0.0244479
0.0220987
0.109147
0.0209099
0.112977
0.0197061
0.117027
0.0184829
0.121322
0.0172363
0.125897
0.0159624
0.130795
0.0146583
0.136078
0.0133216
0.141824
0.011951
0.14813
0.0105469
0.155112
0.00911252
0.162901
0.00765505
0.171629
0.00618882
0.181414
0.00473895
0.192312
0.00334662
0.204252
0.00207514
0.21693
0.0010148
0.22965
0.000281655
0.241015
0.248631
0.0231479
0.106682
-0.0243174
0.0219713
0.110323
0.0207843
0.114164
0.0195824
0.118228
0.0183615
0.122543
0.0171174
0.127141
0.0158465
0.132066
0.0145457
0.137379
0.0132127
0.143157
0.0118463
0.149497
0.0104469
0.156512
0.00901796
0.16433
0.00756708
0.17308
0.00610909
0.182872
0.00466969
0.193752
0.00329056
0.205632
0.00203498
0.218186
0.000991891
0.230693
0.000273924
0.241733
0.248905
0.0229863
0.107848
-0.024153
0.0218126
0.111497
0.0206287
0.115348
0.0194303
0.119427
0.018213
0.123761
0.016973
0.128381
0.0157067
0.133332
0.0144109
0.138675
0.0130833
0.144485
0.0117228
0.150857
0.01033
0.157905
0.00890844
0.165751
0.00746612
0.174523
0.00601836
0.18432
0.00459143
0.195179
0.00322745
0.206996
0.00198956
0.219424
0.00096535
0.231718
0.000264272
0.242434
0.249169
0.022794
0.109011
-0.023957
0.0216242
0.112667
0.0204445
0.116527
0.0192506
0.120621
0.0180383
0.124973
0.0168038
0.129615
0.0155434
0.134593
0.0142541
0.139964
0.0129336
0.145805
0.0115808
0.15221
0.0101964
0.159289
0.00878406
0.167164
0.00735227
0.175954
0.00591676
0.185756
0.00450433
0.196591
0.00315748
0.208342
0.00193919
0.220642
0.000935664
0.232721
0.000253277
0.243116
0.249423
0.0225729
0.11017
-0.0237318
0.0214075
0.113832
0.0202327
0.117702
0.0190442
0.121809
0.0178379
0.126179
0.0166099
0.130843
0.0153568
0.135846
0.0140755
0.141245
0.0127637
0.147117
0.0114202
0.153554
0.010046
0.160663
0.00864487
0.168565
0.00722561
0.177374
0.00580442
0.187177
0.00440857
0.197987
0.00308092
0.20967
0.0018842
0.221839
0.000903278
0.233702
0.000241342
0.243778
0.249664
0.0223247
0.111325
-0.0234798
0.0211637
0.114993
0.019994
0.118872
0.0188114
0.122992
0.0176119
0.127379
0.0163916
0.132064
0.015147
0.13709
0.0138751
0.142517
0.0125734
0.148419
0.0112411
0.154886
0.00987887
0.162025
0.0084909
0.169953
0.00708622
0.178778
0.00568144
0.188581
0.00430432
0.199364
0.00299799
0.210976
0.00182492
0.223012
0.000868537
0.234659
0.000228702
0.244418
0.249893
0.0220505
0.112477
-0.0232028
0.0208933
0.11615
0.0197287
0.120037
0.0185524
0.124168
0.0173602
0.128571
0.0161485
0.133275
0.0149137
0.138325
0.0136526
0.143778
0.0123628
0.149708
0.0110433
0.156205
0.00969498
0.163374
0.00832216
0.171325
0.00693415
0.180166
0.00554795
0.189968
0.00419176
0.20072
0.00290893
0.212259
0.00176161
0.224159
0.000831704
0.235588
0.000215515
0.245034
0.250108
0.0217507
0.113629
-0.0229021
0.0205962
0.117305
0.0194361
0.121197
0.0182662
0.125338
0.0170822
0.129755
0.0158801
0.134477
0.0146564
0.139549
0.0134076