/*--------------------------------*- C++ -*----------------------------------*\
| =========                 |                                                 |
| \\      /  F ield         | OpenFOAM: The Open Source CFD Toolbox           |
|  \\    /   O peration     | Version:  v1912                                 |
|   \\  /    A nd           | Website:  www.openfoam.com                      |
|    \\/     M anipulation  |                                                 |
\*---------------------------------------------------------------------------*/
FoamFile
{
    version     2.0;
    format      ascii;
    class       volVectorField;
    location    "7";
    object      U;
}
// * * * * * * * * * * * * * * * * * * * * * * * * * * * * * * * * * * * * * //

dimensions      [0 1 -1 0 0 0 0];


internalField   nonuniform List<vector> 
9600
(
(0.45998 -9.4875 -1.36745e-19)
(0.149554 -8.83682 0)
(0.204165 -8.34726 -7.68991e-20)
(0.246525 -7.96249 0)
(0.278542 -7.63931 0)
(0.312401 -7.34982 -2.53354e-20)
(0.345183 -7.07857 -2.31568e-22)
(0.374764 -6.81766 2.02207e-20)
(0.400751 -6.56359 0)
(0.423186 -6.3153 -3.35306e-20)
(0.442288 -6.073 0)
(0.458407 -5.83744 -1.45428e-21)
(0.47196 -5.60948 -2.2357e-21)
(0.483376 -5.38987 -2.21412e-20)
(0.49307 -5.17909 1.80943e-20)
(0.50141 -4.9773 -1.77771e-20)
(0.508696 -4.78434 1.54522e-20)
(0.515284 -4.59969 0)
(0.521807 -4.42251 -1.1905e-20)
(0.527593 -4.25172 1.3221e-20)
(0.832171 -9.46914 -2.70524e-19)
(0.498472 -8.84567 1.20803e-20)
(0.53509 -8.3654 1.58937e-19)
(0.563299 -7.98629 -1.30634e-19)
(0.583069 -7.66617 1.28832e-19)
(0.605697 -7.37735 0)
(0.627714 -7.10515 4.76815e-20)
(0.646747 -6.84232 -4.71359e-20)
(0.662333 -6.58582 -8.00416e-20)
(0.674531 -6.33492 9.80598e-20)
(0.683612 -6.09007 -6.34311e-20)
(0.689988 -5.85216 -2.47683e-20)
(0.694129 -5.62213 5.05376e-20)
(0.69651 -5.40078 0)
(0.697572 -5.18861 0)
(0.697695 -4.98579 6.66178e-20)
(0.69717 -4.79212 -1.12579e-19)
(0.696365 -4.60704 0)
(0.695975 -4.42958 0)
(0.695072 -4.25859 -5.02539e-20)
(1.20409 -9.437 5.58521e-19)
(0.848184 -8.84144 0)
(0.867575 -8.37073 -3.16212e-19)
(0.882143 -7.99775 -2.81004e-19)
(0.889902 -7.68102 0)
(0.901331 -7.39315 4.30701e-19)
(0.91249 -7.12028 -4.02849e-19)
(0.920806 -6.85583 7.65233e-20)
(0.925783 -6.59724 -1.71268e-19)
(0.927526 -6.3441 -2.7628e-19)
(0.926376 -6.09709 3.70402e-19)
(0.922817 -5.85721 -2.26064e-19)
(0.917382 -5.62552 -9.91828e-20)
(0.91059 -5.40282 0)
(0.902913 -5.18966 4.17064e-21)
(0.89474 -4.98619 7.06933e-20)
(0.886354 -4.7922 2.95473e-20)
(0.87813 -4.60705 0)
(0.870813 -4.42969 5.30668e-20)
(0.86317 -4.2589 5.44477e-20)
(1.57458 -9.39073 -7.51759e-19)
(1.19808 -8.82394 -3.40898e-19)
(1.20109 -8.3633 3.32706e-19)
(1.20253 -7.99681 5.49978e-19)
(1.19854 -7.68375 -2.65266e-19)
(1.1988 -7.39708 3.32711e-21)
(1.19901 -7.1238 1.96874e-19)
(1.19644 -6.85805 1.75097e-19)
(1.19061 -6.59772 3.14293e-19)
(1.18169 -6.34273 0)
(1.17011 -6.09395 1.14938e-19)
(1.15645 -5.85253 -1.23993e-19)
(1.14129 -5.61958 8.63955e-21)
(1.12521 -5.39596 1.883e-19)
(1.10871 -5.1822 1.56577e-19)
(1.09218 -4.97846 -2.19825e-19)
(1.0759 -4.78453 7.22811e-20)
(1.06026 -4.59971 -1.14099e-19)
(1.04603 -4.42282 1.135e-19)
(1.03163 -4.25263 -5.44526e-20)
(1.94336 -9.33036 3.78002e-19)
(1.54791 -8.79314 0)
(1.53528 -8.34304 3.20495e-19)
(1.52403 -7.98331 0)
(1.5085 -7.67417 0)
(1.49762 -7.38894 -2.37373e-19)
(1.48676 -7.11555 -4.15217e-19)
(1.47314 -6.84883 -3.4173e-19)
(1.45631 -6.58712 1.67421e-20)
(1.43654 -6.33068 -1.43613e-19)
(1.41436 -6.08056 0)
(1.39043 -5.83803 -1.14868e-19)
(1.36542 -5.60425 -2.04112e-19)
(1.33996 -5.38011 1.75652e-19)
(1.31456 -5.16616 -4.95751e-19)
(1.28964 -4.96257 8.02675e-20)
(1.26547 -4.76908 6.1165e-20)
(1.24243 -4.58496 -1.26865e-19)
(1.22133 -4.40893 -5.44533e-20)
(1.20018 -4.23976 1.61606e-19)
(2.30986 -9.25585 3.57646e-19)
(1.89717 -8.74895 3.42863e-19)
(1.86966 -8.30982 0)
(1.84614 -7.95713 0)
(1.81927 -7.65212 -4.91833e-19)
(1.79726 -7.3686 2.75232e-19)
(1.77524 -7.09538 6.33737e-19)
(1.75041 -6.82802 0)
(1.72239 -6.56533 1.60963e-19)
(1.69158 -6.30785 1.43613e-19)
(1.65863 -6.05683 -2.47383e-19)
(1.6243 -5.81364 3.5799e-19)
(1.58934 -5.57948 1.03009e-19)
(1.55441 -5.35526 0)
(1.52008 -5.14154 8.33282e-20)
(1.48675 -4.93847 3.67065e-19)
(1.45468 -4.74582 -2.18823e-19)
(1.42429 -4.5628 2.39633e-19)
(1.39639 -4.388 -4.53351e-19)
(1.36854 -4.22028 5.24631e-19)
(2.67357 -9.16723 3.61794e-19)
(2.24539 -8.69129 -1.89607e-18)
(2.20376 -8.26354 0)
(2.16837 -7.91814 0)
(2.13035 -7.61749 0)
(2.09721 -7.3359 -4.6924e-19)
(2.06392 -7.06317 0)
(2.02771 -6.79553 -7.24385e-19)
(1.98833 -6.53227 6.60893e-19)
(1.94631 -6.27419 -6.05551e-19)
(1.90245 -6.02273 0)
(1.85761 -5.77933 0)
(1.81261 -5.54525 0)
(1.76816 -5.32138 -1.92184e-19)
(1.72485 -5.10831 0)
(1.68311 -4.90618 0)
(1.64319 -4.71475 -2.70193e-19)
(1.6055 -4.5332 2.65473e-19)
(1.57088 -4.36003 0)
(1.53641 -4.19419 0)
(3.03395 -9.06457 -1.18255e-18)
(2.59206 -8.62014 7.50797e-19)
(2.53707 -8.20412 0)
(2.49022 -7.86622 0)
(2.4412 -7.57013 0)
(2.39692 -7.29074 4.43595e-19)
(2.35225 -7.0188 -4.43034e-19)
(2.30451 -6.75127 -5.2908e-21)
(2.2536 -6.48785 -6.55891e-19)
(2.20024 -6.22964 6.10233e-19)
(2.14534 -5.97821 -2.69392e-19)
(2.08988 -5.73509 4.58984e-19)
(2.03476 -5.50154 -3.81697e-20)
(1.98075 -5.27848 -4.09101e-19)
(1.92847 -5.06648 -3.36173e-19)
(1.87833 -4.86569 3.3028e-19)
(1.83059 -4.67588 0)
(1.78569 -4.49619 0)
(1.74446 -4.32502 2.28712e-19)
(1.70346 -4.16151 -2.54209e-19)
(3.39045 -8.94797 7.89754e-19)
(2.93666 -8.53547 7.2577e-19)
(2.86908 -8.13149 -1.36344e-18)
(2.81116 -7.80128 6.37762e-19)
(2.75129 -7.50995 0)
(2.69586 -7.23302 4.75589e-19)
(2.6397 -6.96221 -4.06377e-19)
(2.58027 -6.69517 1.13982e-18)
(2.51769 -6.43204 -1.98334e-20)
(2.45283 -6.17417 0)
(2.38679 -5.92326 5.42889e-19)
(2.32064 -5.6809 0)
(2.25537 -5.44836 0)
(2.19177 -5.22657 -1.83249e-19)
(2.13051 -5.01607 3.72266e-19)
(2.07201 -4.81703 0)
(2.01652 -4.62923 2.81932e-19)
(1.96449 -4.45178 1.13984e-19)
(1.91676 -4.283 -2.52034e-19)
(1.86937 -4.12226 2.42996e-19)
(3.74253 -8.81753 -8.0623e-19)
(3.27866 -8.43728 7.34313e-19)
(3.19926 -8.0456 -2.07082e-18)
(3.13063 -7.72324 6.45541e-19)
(3.06007 -7.43687 0)
(2.99345 -7.16267 -9.49919e-19)
(2.92569 -6.89333 4.54868e-19)
(2.85445 -6.6272 0)
(2.78005 -6.36482 -3.46191e-19)
(2.7036 -6.10778 -5.87974e-19)
(2.62632 -5.85789 -5.00413e-19)
(2.54942 -5.61679 4.42712e-20)
(2.47395 -5.38576 4.65784e-19)
(2.40078 -5.16569 1.83141e-19)
(2.33056 -4.95712 -2.98791e-20)
(2.26374 -4.76024 -3.42802e-19)
(2.20055 -4.57483 -1.50764e-19)
(2.1415 -4.4 -1.34494e-19)
(2.08742 -4.23399 3.53525e-19)
(2.03379 -4.07647 -5.3236e-19)
(4.08966 -8.67339 8.06232e-19)
(3.61754 -8.32562 -4.32815e-20)
(3.52707 -7.94642 6.55873e-19)
(3.44811 -7.63206 0)
(3.36697 -7.35083 -5.25078e-19)
(3.28914 -7.07963 1.00534e-18)
(3.20968 -6.81213 -8.34237e-19)
(3.12649 -6.54734 8.20951e-19)
(3.04016 -6.28619 -3.1959e-19)
(2.952 -6.03048 6.54637e-19)
(2.86342 -5.78213 2.77515e-19)
(2.77574 -5.5428 0)
(2.69008 -5.31375 0)
(2.60733 -5.09587 -1.89646e-19)
(2.52818 -4.88967 3.00806e-20)
(2.45309 -4.69534 6.71283e-19)
(2.38229 -4.51271 -1.65988e-19)
(2.31631 -4.34088 5.34811e-19)
(2.25603 -4.17803 8.88242e-20)
(2.19635 -4.02418 -5.44142e-19)
(4.43131 -8.51573 -2.46294e-18)
(3.95275 -8.20055 -8.03012e-19)
(3.85198 -7.83396 -2.1128e-18)
(3.76302 -7.52772 -1.26089e-18)
(3.67142 -7.25182 -5.91147e-19)
(3.58235 -6.9839 -5.76203e-19)
(3.49109 -6.71861 -1.82337e-18)
(3.39584 -6.4556 -4.0768e-20)
(3.29748 -6.19617 -1.41635e-18)
(3.19754 -5.94231 2.729e-20)
(3.09762 -5.69602 -5.70478e-19)
(2.99913 -5.45897 -5.12929e-19)
(2.90328 -5.23241 4.62295e-19)
(2.81098 -5.01718 -4.17691e-19)
(2.72296 -4.81378 -3.78335e-19)
(2.63965 -4.62241 -3.43541e-19)
(2.5613 -4.44293 -9.10426e-19)
(2.48852 -4.27446 3.27098e-19)
(2.42218 -4.11514 7.74659e-19)
(2.35666 -3.96542 -8.26906e-19)
(4.76696 -8.34472 3.30492e-18)
(4.28379 -8.06215 3.95395e-18)
(4.17345 -7.70825 6.63295e-19)
(4.07482 -7.4102 3.13914e-18)
(3.97284 -7.13981 -6.07677e-19)
(3.87251 -6.87548 2.96868e-18)
(3.76935 -6.61278 8.48831e-19)
(3.66195 -6.35202 2.36272e-18)
(3.55147 -6.09481 -7.14918e-19)
(3.4397 -5.84332 1.95135e-18)
(3.32841 -5.59962 1.14833e-18)
(3.21912 -5.36537 1.03275e-18)
(3.11311 -5.14179 -1.37811e-18)
(3.01131 -4.92968 1.28075e-18)
(2.91445 -4.72951 7.62498e-19)
(2.82299 -4.54149 6.92648e-19)
(2.73718 -4.36553 6.3074e-19)
(2.65768 -4.20077 5.12077e-21)
(2.58543 -4.04536 5.26201e-19)
(2.51431 -3.90022 5.48035e-19)
(5.09613 -8.16057 -2.43957e-18)
(4.61013 -7.91052 8.85495e-19)
(4.49093 -7.56933 2.12818e-18)
(4.38292 -7.27954 -2.56017e-18)
(4.27067 -7.01484 5.89302e-19)
(4.15903 -6.7544 -1.97985e-18)
(4.0439 -6.4947 9.63959e-19)
(3.92426 -6.23665 -1.57667e-18)
(3.8016 -5.98218 4.07012e-20)
(3.67798 -5.7336 7.64313e-21)
(3.55531 -5.49302 -1.16279e-18)
(3.43526 -5.26208 -5.1982e-19)
(3.31912 -5.04197 9.43776e-19)
(3.20788 -4.83344 5.87826e-21)
(3.10224 -4.63691 -2.86401e-20)
(3.00268 -4.45263 -7.26877e-19)
(2.90946 -4.28054 -3.18039e-19)
(2.82333 -4.11985 -1.99196e-20)
(2.74532 -3.9687 -5.51101e-19)
(2.66884 -3.82863 -2.76883e-19)
(5.41833 -7.9635 0)
(4.93129 -7.74579 -1.62213e-18)
(4.80389 -7.41725 1.46704e-20)
(4.68678 -7.13577 2.53464e-18)
(4.56432 -6.87696 1.03007e-18)
(4.44134 -6.62072 -1.08241e-18)
(4.31418 -6.36445 -9.11248e-19)
(4.18223 -6.1096 0)
(4.04736 -5.85839 -6.99067e-19)
(3.91188 -5.61324 6.62942e-19)
(3.77787 -5.3763 -3.14757e-20)
(3.6471 -5.1492 0)
(3.5209 -4.93303 -4.75002e-19)
(3.40027 -4.72852 4.02509e-19)
(3.28592 -4.53605 3.28139e-19)
(3.17829 -4.35585 -4.08605e-19)
(3.07771 -4.18797 -3.48557e-19)
(2.98497 -4.03165 5.95168e-19)
(2.90127 -3.88513 -5.45088e-19)
(2.81963 -3.75065 2.87325e-19)
(5.73314 -7.75372 2.50001e-18)
(5.24677 -7.56809 -1.66824e-18)
(5.11177 -7.25211 -1.38331e-18)
(4.98581 -6.97897 6.3276e-19)
(4.8532 -6.72624 -1.22819e-18)
(4.71886 -6.47455 0)
(4.57961 -6.22214 0)
(4.43533 -5.97098 0)
(4.28825 -5.72356 -3.6273e-20)
(4.14093 -5.48238 -1.32888e-18)
(3.99564 -5.2496 6.23279e-19)
(3.85422 -5.02681 5.1425e-19)
(3.71805 -4.81507 4.24538e-19)
(3.58811 -4.615 -1.75655e-18)
(3.4651 -4.42696 8.28167e-19)
(3.34946 -4.25119 0)
(3.24149 -4.08778 -2.25462e-20)
(3.14212 -3.93612 -9.26754e-19)
(3.05268 -3.79454 -4.18182e-21)
(2.966 -3.66599 -2.87494e-19)
(6.04025 -7.53154 -1.70598e-18)
(5.5561 -7.3776 -8.79123e-19)
(5.41403 -7.07401 6.28658e-19)
(5.27942 -6.80923 -1.34232e-19)
(5.13673 -6.56278 -3.54266e-18)
(4.991 -6.31599 3.15621e-18)
(4.83964 -6.06789 -4.4631e-20)
(4.68302 -5.82094 8.38617e-19)
(4.52375 -5.57784 7.42917e-19)
(4.36466 -5.34116 6.72566e-19)
(4.20818 -5.11306 6.0439e-19)
(4.05622 -4.89506 1.06449e-18)
(3.91019 -4.68817 -5.10945e-19)
(3.77105 -4.49295 1.29857e-18)
(3.63947 -4.30971 -8.38063e-19)
(3.51586 -4.13867 -3.38708e-19)
(3.40052 -3.98003 1.36425e-18)
(3.29446 -3.83327 9.00707e-19)
(3.19928 -3.6968 -2.03347e-20)
(3.10783 -3.57417 0)
(6.33965 -7.29746 -8.64114e-19)
(5.85899 -7.17454 1.66919e-18)
(5.7101 -6.88303 1.42268e-18)
(5.56702 -6.62662 -1.35449e-19)
(5.41429 -6.38669 -1.20052e-18)
(5.25718 -6.14518 6.13152e-20)
(5.09369 -5.90187 8.50777e-21)
(4.92476 -5.65966 7.66525e-21)
(4.75337 -5.42141 0)
(4.58262 -5.18975 6.53375e-19)
(4.41508 -4.96682 -1.24041e-18)
(4.25273 -4.75408 -5.19991e-19)
(4.09696 -4.55245 5.16236e-19)
(3.94874 -4.36244 -4.45571e-19)
(3.80867 -4.18432 4.08995e-19)
(3.67711 -4.01833 -3.68662e-19)
(3.5544 -3.86473 3.71743e-21)
(3.44166 -3.72304 -3.08288e-19)
(3.34086 -3.59171 -2.82808e-19)
(3.24526 -3.47557 -2.82529e-19)
(6.63173 -7.052 0)
(6.15528 -6.95886 -8.04354e-19)
(5.99945 -6.67909 7.9513e-19)
(5.84796 -6.43122 1.35062e-18)
(5.68528 -6.19813 -1.20292e-18)
(5.51679 -5.96234 1.01723e-18)
(5.34122 -5.72433 -1.94922e-18)
(5.16005 -5.48738 -1.69992e-18)
(4.97667 -5.25453 -7.27296e-19)
(4.79441 -5.02841 3.61945e-20)
(4.61599 -4.81111 -5.87757e-19)
(4.44342 -4.60403 2.77382e-20)
(4.27809 -4.40801 0)
(4.12089 -4.22349 -8.70897e-19)
(3.97234 -4.05071 4.46645e-19)
(3.83271 -3.88993 0)
(3.70236 -3.74138 -3.4046e-19)
(3.58251 -3.60455 -6.06113e-19)
(3.47528 -3.47861 5.95566e-19)
(3.37482 -3.372 2.92387e-19)
(6.91614 -6.79438 0)
(6.44447 -6.72986 0)
(6.2815 -6.46211 -1.44722e-18)
(6.12159 -6.22331 -1.21284e-18)
(5.94908 -5.99747 2.47613e-18)
(5.76933 -5.76784 0)
(5.58175 -5.53563 0)
(5.38846 -5.3045 8.53633e-19)
(5.19326 -5.07756 0)
(4.99971 -4.85748 0)
(4.81065 -4.64626 0)
(4.62814 -4.44521 0)
(4.45351 -4.25509 0)
(4.28757 -4.07623 0)
(4.13066 -3.90882 0)
(3.98291 -3.75304 0)
(3.84454 -3.60891 0)
(3.71634 -3.47604 0)
(3.59884 -3.35613 0)
(3.48771 -3.26126 0)
(9.9128 0.0869399 1.18673e-19)
(9.89666 -0.303452 2.29708e-19)
(9.8655 -0.691546 -2.37155e-19)
(9.81992 -1.07719 4.72994e-19)
(9.7596 -1.46006 -4.72994e-19)
(9.68434 -1.83968 -4.42361e-19)
(9.59424 -2.21552 -4.41292e-19)
(9.48949 -2.58705 1.4059e-18)
(9.37031 -2.95373 -9.36769e-19)
(9.23692 -3.31501 9.30134e-19)
(9.08958 -3.67037 -9.30136e-19)
(8.92858 -4.01927 9.24379e-19)
(8.75421 -4.3612 -1.83579e-18)
(8.56679 -4.69568 2.6943e-18)
(8.36668 -5.02223 0)
(8.15424 -5.34039 -2.65563e-18)
(7.92982 -5.64976 1.0614e-20)
(7.69393 -5.94999 2.69124e-18)
(7.44665 -6.24092 0)
(7.18961 -6.52187 0)
(9.76534 -0.212304 0)
(9.73177 -0.595195 -1.41481e-20)
(9.68221 -0.974915 0)
(9.61737 -1.35117 4.39052e-19)
(9.53747 -1.72357 4.60674e-19)
(9.44253 -2.09162 -1.32432e-18)
(9.33285 -2.45472 2.32852e-18)
(9.20872 -2.81229 -9.16971e-19)
(9.07044 -3.16377 -8.68214e-19)
(8.91836 -3.50861 -8.65112e-19)
(8.75283 -3.84629 4.20525e-20)
(8.57422 -4.17628 8.95375e-19)
(8.38294 -4.49809 -4.44303e-18)
(8.1794 -4.81127 -9.47941e-19)
(7.96402 -5.11537 1.78058e-18)
(7.73726 -5.40999 1.78677e-18)
(7.49952 -5.69475 9.14087e-19)
(7.25131 -5.96936 -1.74865e-18)
(6.99268 -6.23359 8.23385e-19)
(6.72447 -6.4871 0)
(9.5467 -0.156225 1.02863e-19)
(9.51656 -0.528561 -2.11508e-19)
(9.47017 -0.89835 6.07013e-19)
(9.40798 -1.26497 -4.34407e-19)
(9.33039 -1.62785 -4.10939e-19)
(9.2376 -1.9864 4.32649e-19)
(9.12996 -2.33997 0)
(9.00781 -2.68794 0)
(8.87148 -3.02971 1.63275e-18)
(8.72136 -3.36471 2.43621e-18)
(8.55784 -3.69238 -7.63191e-19)
(8.38132 -4.01219 2.41015e-18)
(8.19226 -4.32363 -7.60326e-19)
(7.99109 -4.62623 -2.3461e-18)
(7.77829 -4.91954 9.04769e-21)
(7.55432 -5.20312 1.49838e-18)
(7.31963 -5.47661 -6.6492e-19)
(7.0747 -5.73961 -1.48006e-18)
(6.81981 -5.99182 -8.13945e-19)
(6.55544 -6.23265 1.45879e-18)
(9.26245 -0.125132 0)
(9.23727 -0.48407 1.74069e-19)
(9.1962 -0.841225 1.73008e-19)
(9.1395 -1.19575 -7.14393e-19)
(9.06752 -1.54693 0)
(8.98045 -1.89411 0)
(8.87863 -2.23664 0)
(8.76237 -2.57386 0)
(8.63201 -2.90515 -7.64629e-19)
(8.48792 -3.22992 -7.62026e-19)
(8.33049 -3.54758 0)
(8.16014 -3.85758 1.43139e-18)
(7.9773 -4.15939 -3.53545e-18)
(7.78245 -4.4525 2.84921e-18)
(7.57603 -4.73645 -2.7542e-18)
(7.35854 -5.01077 -6.68258e-19)
(7.13045 -5.27505 1.41889e-19)
(6.89224 -5.52887 1.40929e-19)
(6.64436 -5.77183 -1.3722e-18)
(6.38732 -6.00344 -6.7997e-20)
(8.93195 -0.113165 0)
(8.91195 -0.457403 -1.71671e-19)
(8.87661 -0.80034 0)
(8.82613 -1.14114 3.43393e-19)
(8.76073 -1.47906 3.2505e-19)
(8.68057 -1.81343 2.93461e-19)
(8.58596 -2.14361 0)
(8.47718 -2.46892 0)
(8.35453 -2.78875 0)
(8.21835 -3.10248 0)
(8.06902 -3.40951 6.10523e-19)
(7.90694 -3.70927 6.66195e-19)
(7.73253 -4.00123 6.64196e-19)
(7.54622 -4.28486 -6.73365e-19)
(7.34848 -4.55966 -1.13364e-18)
(7.13978 -4.82516 1.31888e-18)
(6.9206 -5.08089 2.5501e-18)
(6.69144 -5.32642 1.23915e-18)
(6.4528 -5.56133 0)
(6.20517 -5.78515 -1.15958e-18)
(8.57554 -0.103967 3.44213e-20)
(8.56046 -0.432625 0)
(8.53072 -0.760378 -5.65479e-19)
(8.48645 -1.08646 4.51753e-23)
(8.4278 -1.41014 1.36317e-20)
(8.35489 -1.73076 -5.82571e-20)
(8.26798 -2.04767 0)
(8.16731 -2.36023 2.62314e-20)
(8.05317 -2.66782 -5.75481e-19)
(7.92585 -2.96981 1.11819e-18)
(7.78569 -3.26562 -1.17358e-18)
(7.63306 -3.55468 6.49848e-19)
(7.46834 -3.83643 -3.344e-18)
(7.29196 -4.11036 2.20384e-18)
(7.10436 -4.37594 1.18085e-18)
(6.90597 -4.63268 0)
(6.69729 -4.88012 -2.15996e-18)
(6.47878 -5.1178 -5.51331e-20)
(6.25096 -5.34528 -2.13038e-18)
(6.01429 -5.56208 2.23134e-18)
(8.21082 -0.0975016 3.05463e-20)
(8.19982 -0.410361 -6.44391e-20)
(8.1749 -0.72265 5.29867e-19)
(8.13613 -1.03366 -1.17154e-20)
(8.08361 -1.3427 5.29617e-19)
(8.01743 -1.64912 -8.00721e-19)
(7.93782 -1.95231 0)
(7.84498 -2.25162 5.40822e-19)
(7.73915 -2.54646 4.89288e-19)
(7.6206 -2.83624 -5.37815e-19)
(7.48964 -3.12036 9.72146e-19)
(7.34658 -3.39827 2.07989e-18)
(7.1918 -3.66943 -9.57008e-19)
(7.02567 -3.93331 -1.05257e-18)
(6.8486 -4.1894 1.00246e-18)
(6.66103 -4.4372 0)
(6.4634 -4.67624 5.494e-20)
(6.25617 -4.90605 6.67335e-21)
(6.03984 -5.12619 2.00371e-18)
(5.81484 -5.33617 9.23015e-19)
(7.85081 -0.0937993 0)
(7.84288 -0.391188 5.11227e-21)
(7.82176 -0.688264 -1.05169e-19)
(7.7875 -0.984369 -4.73328e-19)
(7.74016 -1.27885 4.41192e-19)
(7.67982 -1.57109 0)
(7.60666 -1.86049 8.99975e-19)
(7.52086 -2.14646 -1.05813e-21)
(7.42263 -2.4284 -1.37834e-18)
(7.31219 -2.70577 0)
(7.18983 -2.97798 -9.56672e-19)
(7.05584 -3.24451 3.81624e-20)
(6.91055 -3.50482 -2.66761e-18)
(6.7543 -3.75841 4.65505e-21)
(6.58749 -4.00476 8.95743e-19)
(6.4105 -4.24339 0)
(6.22377 -4.47384 -8.79694e-19)
(6.02775 -4.69561 6.01655e-21)
(5.82288 -4.90829 8.73686e-19)
(5.6096 -5.11136 -9.08318e-19)
(7.50404 -0.0919206 0)
(7.49823 -0.374502 1.08421e-19)
(7.47994 -0.656948 2.258e-19)
(7.44922 -0.93865 -4.13876e-19)
(7.40608 -1.21899 -2.02657e-20)
(7.35061 -1.4974 -2.06777e-19)
(7.28295 -1.7733 -8.28008e-19)
(7.20325 -2.04613 4.11251e-19)
(7.1117 -2.31535 1.95889e-20)
(7.0085 -2.58039 4.08621e-19)
(6.8939 -2.84075 3.7213e-19)
(6.76817 -3.09589 1.62972e-18)
(6.6316 -3.34531 8.15663e-19)
(6.48452 -3.58852 1.60861e-18)
(6.32729 -3.82504 -8.02162e-19)
(6.16028 -4.0544 3.1951e-20)
(5.9839 -4.27612 -7.92655e-19)
(5.79857 -4.48974 0)
(5.60473 -4.69483 7.45222e-19)
(5.40278 -4.89088 0)
(7.1754 -0.0910974 4.6471e-20)
(7.17093 -0.359705 -1.35692e-19)
(7.15467 -0.628296 3.73419e-19)
(7.12663 -0.896303 -1.86115e-19)
(7.08683 -1.16315 1.51442e-20)
(7.03532 -1.4283 -1.85958e-19)
(6.97225 -1.69121 3.88521e-19)
(6.89774 -1.95135 -3.69674e-19)
(6.81195 -2.2082 3.69673e-19)
(6.71507 -2.46125 7.05377e-19)
(6.60731 -2.71 -7.67686e-19)
(6.48894 -2.95395 -3.64955e-20)
(6.36021 -3.19264 -2.21282e-18)
(6.22145 -3.42559 4.00954e-21)
(6.07296 -3.65234 3.21876e-20)
(5.91513 -3.87244 1.43164e-18)
(5.74833 -4.08545 -7.06558e-19)
(5.57296 -4.2909 -6.69327e-19)
(5.38946 -4.48837 -3.12107e-20)
(5.1982 -4.67734 0)
(6.86719 -0.09081 0)
(6.86347 -0.346353 1.71675e-19)
(6.84858 -0.601951 -5.88903e-19)
(6.82254 -0.857074 -1.54806e-19)
(6.78534 -1.11119 3.50858e-19)
(6.73704 -1.36377 0)
(6.67776 -1.61433 0)
(6.60761 -1.86237 3.33306e-19)
(6.52674 -2.10739 -3.33305e-19)
(6.43531 -2.34891 2.74233e-19)
(6.33354 -2.58646 -3.30889e-19)
(6.22164 -2.81959 6.5562e-19)
(6.09988 -3.04784 -1.30772e-18)
(5.96854 -3.27078 1.3004e-18)
(5.82793 -3.48797 2.79721e-20)
(5.6784 -3.69899 -6.72036e-19)
(5.52033 -3.90341 -6.35577e-19)
(5.3541 -4.1008 1.29846e-18)
(5.18015 -4.29071 6.02745e-19)
(4.99883 -4.47266 0)
(6.57993 -0.0907003 1.44666e-21)
(6.57654 -0.334095 1.11204e-19)
(6.56256 -0.577583 2.34692e-19)
(6.53798 -0.820666 1.65153e-19)
(6.5028 -1.06284 1.51827e-19)
(6.45709 -1.30363 1.40088e-19)
(6.40094 -1.54255 0)
(6.33446 -1.77914 -5.80828e-19)
(6.25778 -2.01294 -3.00338e-19)
(6.17107 -2.2435 2.51027e-19)
(6.07449 -2.47037 0)
(5.96828 -2.69312 5.92222e-19)
(5.85266 -2.91135 -1.74868e-18)
(5.72791 -3.12464 5.88847e-19)
(5.59433 -3.33259 0)
(5.45226 -3.5348 -5.566e-19)
(5.30206 -3.73088 -1.12581e-18)
(5.14413 -3.92042 5.52745e-19)
(4.9789 -4.10297 -2.34527e-20)
(4.80674 -4.27804 0)
(6.3131 -0.0905434 2.65902e-21)
(6.30975 -0.32267 -7.18861e-20)
(6.29632 -0.554904 1.38121e-19)
(6.27282 -0.786776 -9.97849e-21)
(6.23924 -1.01781 2.75851e-19)
(6.19563 -1.24756 -4.24674e-19)
(6.14209 -1.47558 0)
(6.07872 -1.70142 4.30272e-20)
(6.00564 -1.92464 0)
(5.92299 -2.14484 -5.6644e-19)
(5.83095 -2.36159 0)
(5.72972 -2.57449 -5.17934e-19)
(5.61953 -2.78317 1.6058e-18)
(5.50062 -2.98724 -1.06301e-18)
(5.3733 -3.18634 5.2977e-19)
(5.23789 -3.38011 -4.61533e-19)
(5.09476 -3.56817 5.42983e-19)
(4.94432 -3.75017 -5.389e-19)
(4.78703 -3.92564 0)
(4.62325 -4.09411 0)
(6.06556 -0.0902089 3.26646e-20)
(6.06207 -0.311888 0)
(6.04897 -0.533676 0)
(6.02627 -0.755126 -2.61517e-19)
(5.99395 -0.975794 -2.4244e-19)
(5.95209 -1.19525 0)
(5.90075 -1.41307 0)
(5.84004 -1.62884 3.76516e-20)
(5.77007 -1.84215 4.78874e-19)
(5.69098 -2.0526 -2.30106e-19)
(5.60292 -2.25981 -2.46498e-19)
(5.50609 -2.46341 9.96277e-19)
(5.4007 -2.66305 -1.47744e-18)
(5.28699 -2.85837 9.49204e-19)
(5.16525 -3.04905 0)
(5.03579 -3.23479 1.90684e-18)
(4.899 -3.41523 -1.37866e-18)
(4.75529 -3.59007 4.69985e-19)
(4.60518 -3.75885 8.93811e-19)
(4.44906 -3.9211 0)
(5.83589 -0.0896211 -2.77656e-20)
(5.83216 -0.301612 0)
(5.81924 -0.513702 -3.81542e-21)
(5.79715 -0.725467 -2.21944e-19)
(5.76588 -0.936487 6.89327e-19)
(5.72548 -1.14635 -1.14602e-19)
(5.67605 -1.35467 0)
(5.61765 -1.56103 9.11804e-19)
(5.55042 -1.76506 -4.70488e-19)
(5.47446 -1.96639 3.30697e-20)
(5.38994 -2.16465 4.32692e-19)
(5.29703 -2.35949 4.43999e-19)
(5.19593 -2.55061 -8.84925e-19)
(5.08687 -2.73768 -8.63548e-19)
(4.97012 -2.92041 -8.40991e-19)
(4.84599 -3.09855 -8.99942e-19)
(4.71486 -3.2718 8.9276e-19)
(4.57718 -3.43995 -4.23616e-19)
(4.43357 -3.60248 -4.5454e-19)
(4.28441 -3.75906 0)
(5.62261 -0.088757 2.7279e-20)
(5.61858 -0.291751 -1.01977e-19)
(5.60576 -0.494826 -1.05827e-19)
(5.58415 -0.697584 3.16562e-19)
(5.55377 -0.899623 -1.12885e-19)
(5.51466 -1.10056 -1.04943e-19)
(5.46689 -1.30001 0)
(5.41057 -1.4976 -4.31674e-19)
(5.34577 -1.69296 0)
(5.27264 -1.88576 4.27561e-19)
(5.19131 -2.07564 -8.21085e-19)
(5.10194 -2.26229 4.05553e-19)
(5.00472 -2.44541 -8.08102e-19)
(4.89986 -2.62472 8.35964e-19)
(4.78761 -2.79999 4.57551e-19)
(4.66828 -2.971 0)
(4.54224 -3.13752 -3.89222e-19)
(4.40995 -3.29946 3.89223e-19)
(4.27219 -3.45626 0)
(4.12929 -3.60791 0)
(5.42425 -0.0876671 0)
(5.41991 -0.282273 1.00191e-19)
(5.40714 -0.476944 3.43158e-21)
(5.38596 -0.671301 -1.03388e-19)
(5.35637 -0.864965 -9.0574e-20)
(5.31842 -1.05757 -9.63553e-20)
(5.27219 -1.24874 3.7143e-19)
(5.21775 -1.43814 0)
(5.15522 -1.62542 0)
(5.08469 -1.81024 1.88322e-19)
(5.0063 -1.99229 2.00721e-19)
(4.92021 -2.17128 7.2135e-19)
(4.82658 -2.34692 -3.6843e-19)
(4.7256 -2.51899 3.68429e-19)
(4.6175 -2.68726 3.92558e-19)
(4.50255 -2.85161 2.42526e-20)
(4.38113 -3.01185 -7.14126e-19)
(4.25366 -3.16811 3.25816e-21)
(4.12119 -3.31969 3.52135e-19)
(3.98379 -3.46735 0)
(5.23947 -0.0863378 -2.22954e-20)
(5.23484 -0.273145 2.22952e-20)
(5.22214 -0.460007 0)
(5.20136 -0.646556 8.37694e-20)
(5.17251 -0.832431 2.72597e-19)
(5.13566 -1.01728 -3.43556e-19)
(5.09088 -1.20077 -3.64942e-19)
(5.03825 -1.38255 0)
(4.97785 -1.5623 0)
(4.9098 -1.73971 0)
(4.83422 -1.91448 -6.68551e-19)
(4.75125 -2.08634 -4.53512e-20)
(4.66103 -2.25503 -3.38059e-19)
(4.56374 -2.42034 2.1174e-20)
(4.45955 -2.58211 -6.66777e-19)
(4.34869 -2.74026 1.01616e-18)
(4.23154 -2.89472 -9.57644e-19)
(4.1084 -3.04585 3.25209e-19)
(3.98072 -3.1928 6.19873e-19)
(3.84785 -3.33745 0)
(5.06703 -0.0844938 1.99931e-20)
(5.06218 -0.264219 0)
(5.04956 -0.443994 -8.22548e-20)
(5.02919 -0.623465 -1.6954e-19)
(5.00108 -0.802289 8.20962e-20)
(4.9653 -0.980134 6.54904e-19)
(4.9219 -1.15667 0)
(4.87097 -1.33159 -3.14438e-19)
(4.8126 -1.50458 -1.60606e-19)
(4.74689 -1.67534 -3.01025e-19)
(4.67395 -1.84361 -1.19187e-19)
(4.5939 -2.00912 -9.4945e-19)
(4.50686 -2.17164 -6.25191e-19)
(4.41297 -2.33098 6.43525e-19)
(4.31238 -2.487 6.13247e-19)
(4.2052 -2.63968 -3.23679e-21)
(4.0918 -2.7891 2.1037e-20)
(3.97214 -2.9359 2.98576e-19)
(3.84837 -3.07939 -6.09087e-19)
(3.71818 -3.22298 0)
(4.9057 -0.0825275 -4.18057e-20)
(4.90073 -0.255548 2.0577e-20)
(4.8883 -0.428682 -8.21341e-20)
(4.86843 -0.601606 8.21049e-20)
(4.84114 -0.773995 -2.3587e-19)
(4.80648 -0.945538 -7.34009e-19)
(4.7645 -1.11593 0)
(4.71527 -1.28486 3.33004e-19)
(4.65886 -1.45205 -3.10549e-19)
(4.59536 -1.61722 6.57582e-19)
(4.52487 -1.78011 6.52678e-19)
(4.44746 -1.94047 9.59388e-19)
(4.36325 -2.09807 -6.21134e-19)
(4.2723 -2.25275 3.09102e-19)
(4.17473 -2.40437 -3.02703e-19)
(4.07048 -2.55291 3.02735e-19)
(3.95993 -2.69854 0)
(3.84221 -2.84207 2.71725e-19)
(3.72124 -2.98345 -2.64187e-19)
(3.59111 -3.13092 0)
(7.01261 7.13371 0)
(7.28796 6.84938 0)
(7.55087 6.55578 8.8428e-19)
(7.80204 6.25339 1.40242e-20)
(8.0409 5.9419 -9.44272e-19)
(8.26678 5.62129 0)
(8.4793 5.29195 9.69998e-19)
(8.67814 4.95437 -1.81408e-18)
(8.86299 4.60911 -9.15526e-19)
(9.03355 4.25674 -9.23022e-19)
(9.18954 3.89785 9.2302e-19)
(9.33073 3.53305 -9.31615e-19)
(9.45693 3.16298 4.64839e-19)
(9.56796 2.78829 4.38568e-19)
(9.66369 2.40961 4.40097e-19)
(9.74403 2.02761 -4.71824e-19)
(9.80891 1.6429 4.71824e-19)
(9.85837 1.25616 -2.36795e-19)
(9.89235 0.867791 -1.1128e-19)
(9.91125 0.479091 5.92425e-20)
(7.12167 6.78465 0)
(7.38969 6.50514 -7.88812e-19)
(7.64462 6.21493 -1.69455e-18)
(7.88687 5.91469 2.4997e-18)
(8.1163 5.60471 -1.73992e-18)
(8.33237 5.28527 1.73993e-18)
(8.53469 4.95691 9.55057e-19)
(8.72287 4.62024 -2.68616e-18)
(8.89659 4.27584 8.77169e-19)
(9.05547 3.92442 1.73464e-18)
(9.19918 3.5666 8.50838e-19)
(9.32746 3.20303 8.55693e-19)
(9.44013 2.83442 -9.08515e-19)
(9.537 2.46152 1.33158e-18)
(9.61794 2.08502 -1.8608e-18)
(9.68285 1.70565 4.57728e-19)
(9.73166 1.32408 -4.36631e-19)
(9.76445 0.941031 0)
(9.78108 0.556928 1.42054e-20)
(9.78176 0.172672 0)
(6.88053 6.5726 -1.37102e-18)
(7.14602 6.31159 7.79786e-19)
(7.39962 6.0389 1.40385e-18)
(7.64109 5.75523 6.23346e-19)
(7.87013 5.46115 1.60801e-18)
(8.08624 5.15709 1.39752e-20)
(8.289 4.84369 -8.04672e-19)
(8.47797 4.52154 -2.38522e-18)
(8.65281 4.19131 2.34749e-18)
(8.8132 3.85358 -2.41408e-18)
(8.95865 3.50899 -8.03055e-19)
(9.08888 3.15819 -1.60444e-18)
(9.20368 2.80198 0)
(9.30283 2.4411 0)
(9.38613 2.07626 0)
(9.45343 1.7082 -4.0776e-19)
(9.50463 1.33761 4.30422e-19)
(9.53964 0.965226 4.08968e-19)
(9.55838 0.591636 5.71251e-21)
(9.56073 0.217701 1.02674e-19)
(6.60029 6.28138 1.43048e-18)
(6.85885 6.03845 -1.2825e-18)
(7.10673 5.78379 -1.49466e-19)
(7.3434 5.51799 -1.50112e-19)
(7.5684 5.24161 3.31535e-18)
(7.78121 4.95514 -6.38205e-20)
(7.9814 4.65915 1.22271e-21)
(8.16854 4.35424 -2.09692e-18)
(8.34213 4.04096 1.38024e-18)
(8.50183 3.71987 0)
(8.64728 3.3916 7.44211e-19)
(8.7781 3.05698 7.48897e-19)
(8.89409 2.7167 0)
(8.99495 2.37141 0)
(9.08044 2.02182 0)
(9.15036 1.66863 0)
(9.20457 1.31258 -1.86863e-20)
(9.24296 0.954413 3.63259e-19)
(9.26545 0.594867 -1.73302e-19)
(9.27191 0.234747 0)
(6.30889 5.95504 1.18905e-18)
(6.55771 5.72883 0)
(6.79687 5.49122 -3.46696e-18)
(7.02574 5.24269 -1.18119e-18)
(7.2438 4.98373 -1.24772e-18)
(7.45052 4.7148 -1.32748e-18)
(7.64546 4.43642 6.24787e-19)
(7.82815 4.14911 -6.53883e-19)
(7.99814 3.8534 1.80121e-18)
(8.15498 3.54991 -5.86727e-19)
(8.29842 3.23929 0)
(8.42808 2.92224 0)
(8.54355 2.5993 0)
(8.64461 2.2711 0)
(8.73101 1.93837 -9.26202e-19)
(8.80252 1.60181 3.1967e-19)
(8.85897 1.26213 -3.39828e-19)
(8.90023 0.920047 0)
(8.92622 0.576301 1.70915e-19)
(8.93676 0.231634 0)
(6.01637 5.62814 9.94746e-19)
(6.25417 5.41715 -4.30327e-20)
(6.48314 5.19525 2.09638e-18)
(6.70268 4.96282 1.04375e-18)
(6.91221 4.72029 0)
(7.11124 4.46807 -1.1132e-18)
(7.2993 4.20665 5.72491e-20)
(7.47595 3.93652 -1.12683e-18)
(7.64074 3.65818 1.53951e-18)
(7.79326 3.3722 2.85598e-20)
(7.93316 3.07919 2.42628e-20)
(8.06011 2.77963 -5.57865e-19)
(8.17371 2.47414 1.0909e-18)
(8.27371 2.16337 0)
(8.35993 1.84794 5.8207e-20)
(8.43203 1.52853 5.56284e-19)
(8.48983 1.20584 1.1396e-21)
(8.53319 0.880556 -1.30301e-20)
(8.56201 0.553355 0)
(8.57609 0.224928 -3.43568e-20)
(5.73558 5.31398 0)
(5.96186 5.11652 -4.3608e-20)
(6.18002 4.9087 1.2337e-20)
(6.38946 4.69083 -1.86837e-18)
(6.58963 4.46328 0)
(6.78003 4.22643 9.39832e-19)
(6.96024 3.98073 1.0071e-18)
(7.1298 3.72663 -2.91705e-18)
(7.2883 3.46459 -5.70436e-20)
(7.43535 3.19512 -9.28289e-19)
(7.57057 2.91874 5.17264e-19)
(7.69364 2.63596 -4.71869e-19)
(7.80424 2.34736 -5.24865e-19)
(7.90199 2.05355 0)
(7.98672 1.75508 2.78363e-19)
(8.05826 1.45257 -1.41146e-20)
(8.11632 1.14668 -2.55102e-19)
(8.16072 0.838089 -1.40134e-20)
(8.19134 0.527418 -6.41874e-20)
(8.208 0.215313 1.28688e-19)
(5.47319 5.01912 0)
(5.68803 4.83358 7.94691e-19)
(5.8953 4.63823 1.142e-20)
(6.09447 4.43333 -8.06091e-19)
(6.28499 4.21923 0)
(6.46639 3.99627 8.37567e-19)
(6.63826 3.76485 -7.95092e-19)
(6.80019 3.52538 -8.89539e-19)
(6.95176 3.27829 1.67805e-18)
(7.09261 3.02404 9.13525e-19)
(7.22239 2.76311 0)
(7.34077 2.49601 4.43176e-19)
(7.44743 2.22325 -3.11448e-21)
(7.54208 1.94538 1.82787e-20)
(7.62444 1.66299 0)
(7.69434 1.37663 -4.32989e-19)
(7.75163 1.08683 -2.27968e-19)
(7.79605 0.794284 3.31948e-19)
(7.82746 0.499583 2.23957e-19)
(7.84567 0.20333 -3.0183e-20)
(5.23123 4.74643 0)
(5.43503 4.57138 -6.73087e-19)
(5.63175 4.38706 0)
(5.82086 4.19372 -7.30292e-19)
(6.00185 3.99164 1.43361e-18)
(6.17428 3.78115 -1.46181e-18)
(6.33776 3.5626 2.29873e-18)
(6.4919 3.33638 -2.28788e-18)
(6.63632 3.10287 -1.54596e-18)
(6.77066 2.86252 -1.1354e-18)
(6.8946 2.61577 3.90698e-19)
(7.00782 2.36308 -8.1238e-19)
(7.11003 2.10496 1.54151e-20)
(7.20096 1.8419 8.0551e-19)
(7.28034 1.57444 -2.02484e-19)
(7.34792 1.30314 8.31892e-19)
(7.40361 1.02853 -4.07903e-19)
(7.44725 0.751084 1.85749e-19)
(7.4786 0.471465 -1.07763e-19)
(7.49749 0.190257 0)
(5.00941 4.49607 0)
(5.20281 4.33032 1.29776e-18)
(5.38952 4.15582 6.23786e-19)
(5.56904 3.97281 -6.45754e-19)
(5.74089 3.78152 -1.3239e-18)
(5.90464 3.58223 2.01432e-18)
(6.05995 3.37529 8.13057e-21)
(6.20644 3.16104 -6.52084e-19)
(6.34376 2.93985 1.41363e-18)
(6.47158 2.71213 7.32243e-19)
(6.58959 2.4783 -6.76884e-19)
(6.6975 2.23879 3.57209e-19)
(6.79502 1.99408 1.81936e-20)
(6.8819 1.74464 -3.77987e-19)
(6.95789 1.49096 -1.82159e-19)
(7.02282 1.23355 3.65253e-19)
(7.0764 0.972973 -1.83094e-19)
(7.11857 0.70963 -3.69673e-19)
(7.14925 0.444123 4.24091e-20)