/*--------------------------------*- C++ -*----------------------------------*\
  =========                 |
  \\      /  F ield         | OpenFOAM: The Open Source CFD Toolbox
   \\    /   O peration     | Website:  https://openfoam.org
    \\  /    A nd           | Version:  6.0
     \\/     M anipulation  |
\*---------------------------------------------------------------------------*/
FoamFile
{
    version     2.0;
    format      ascii;
    class       surfaceScalarField;
    location    "6.496";
    object      phi;
}
// * * * * * * * * * * * * * * * * * * * * * * * * * * * * * * * * * * * * * //

dimensions      [0 3 -1 0 0 0 0];

internalField   nonuniform List<scalar> 
38030
(
-8.46878e-06
-0.00796383
0.00797229
-2.70006e-05
-0.00728998
0.00730851
-5.33875e-05
-0.00667091
0.00669729
-8.5586e-05
-0.00610343
0.00613562
-0.000121719
-0.00558399
0.00562013
-0.000160195
-0.00510899
0.00514746
-0.00019969
-0.00467484
0.00471434
-0.000239116
-0.00427814
0.00431757
-0.000277591
-0.00391564
0.00395412
-0.00031441
-0.00358429
0.00362111
-0.000349023
-0.00328125
0.00331587
-0.000381015
-0.00300391
0.0030359
-0.000410087
-0.00274983
0.0027789
-0.000436043
-0.0025168
0.00254276
-0.000458778
-0.00230279
0.00232553
-0.000478263
-0.00210596
0.00212545
-0.000494539
-0.00192463
0.00194091
-0.000507708
-0.00175728
0.00177045
-0.000517922
-0.00160253
0.00161275
-0.00052538
-0.00145916
0.00146662
-0.000530315
-0.00132605
0.00133098
-0.000532995
-0.00120222
0.0012049
-0.000533709
-0.00108682
0.00108753
-0.000532771
-0.000979111
0.000978173
-0.000530501
-0.000878457
0.000876187
-0.000527228
-0.000784224
0.000780952
-0.000523276
-0.000695829
0.000691876
-0.000518957
-0.00061276
0.000608442
-0.000514579
-0.000534573
0.000530194
-0.000460835
0.000456704
-0.000510448
-7.41104e-06
-0.00795642
-2.54881e-05
-0.0072719
-5.12321e-05
-0.00664516
-8.2346e-05
-0.00607231
-0.000116912
-0.00554943
-0.000153327
-0.00507257
-0.00019026
-0.00463791
-0.00022662
-0.00424178
-0.000261521
-0.00388074
-0.00029426
-0.00355155
-0.000324287
-0.00325123
-0.000351191
-0.002977
-0.000374676
-0.00272634
-0.000394552
-0.00249692
-0.00041072
-0.00228663
-0.000423159
-0.00209352
-0.000431919
-0.00191587
-0.000437113
-0.00175208
-0.000438906
-0.00160074
-0.00043751
-0.00146055
-0.000433178
-0.00133038
-0.000426196
-0.0012092
-0.000416878
-0.00109613
-0.00040556
-0.00099043
-0.000392592
-0.000891425
-0.000378325
-0.000798491
-0.000363111
-0.000711042
-0.000347295
-0.000628577
-0.000331213
-0.000550654
-0.000476844
-0.000315204
-6.97467e-06
-0.00794944
-2.43105e-05
-0.00725457
-4.90084e-05
-0.00662046
-7.86463e-05
-0.00604267
-0.000111241
-0.00551683
-0.000145155
-0.00503866
-0.00017904
-0.00460402
-0.000211796
-0.00420903
-0.000242533
-0.00385
-0.000270546
-0.00352354
-0.000295286
-0.00322649
-0.000316342
-0.00295595
-0.000333422
-0.00270926
-0.00034634
-0.00248401
-0.000355
-0.00227797
-0.000359388
-0.00208914
-0.000359564
-0.0019157
-0.000355646
-0.001756
-0.000347815
-0.00160857
-0.000336294
-0.00147207
-0.000321355
-0.00134532
-0.000303304
-0.00122725
-0.000282481
-0.00111696
-0.000259249
-0.00101366
-0.000233988
-0.000916686
-0.000207084
-0.000825396
-0.000178915
-0.00073921
-0.000149865
-0.000657627
-0.00012031
-0.00058021
-0.000506525
-9.06285e-05
-6.68061e-06
-0.00794276
-2.32106e-05
-0.00723804
-4.66301e-05
-0.00659705
-7.44796e-05
-0.00601482
-0.000104734
-0.00548658
-0.000135728
-0.00500766
-0.000166097
-0.00457366
-0.00019473
-0.00418039
-0.000220732
-0.003824
-0.000243395
-0.00350088
-0.00026217
-0.00320771
-0.000276647
-0.00294147
-0.000286537
-0.00269937
-0.000291653
-0.00247889
-0.000291904
-0.00227771
-0.000287282
-0.00209376
-0.000277848
-0.00192513
-0.000263734
-0.00177012
-0.000245125
-0.00162718
-0.000222262
-0.00149494
-0.00019543
-0.00137215
-0.000164957
-0.00125773
-0.000131207
-0.00115071
-9.458e-05
-0.00105029
-5.54884e-05
-0.000955778
-1.43519e-05
-0.000866533
2.84055e-05
-0.000781968
7.23682e-05
-0.00070159
0.000117108
-0.000624949
-0.000551614
0.000162197
-6.40389e-06
-0.00793636
-2.20626e-05
-0.00722238
-4.40259e-05
-0.00657508
-6.98206e-05
-0.00598903
-9.73998e-05
-0.005459
-0.00012508
-0.00497998
-0.000151483
-0.00454725
-0.000175491
-0.00415639
-0.000196207
-0.00380328
-0.00021292
-0.00348416
-0.000225081
-0.00319555
-0.00023228
-0.00293427
-0.000234226
-0.00269743
-0.000230736
-0.00248238
-0.00022172
-0.00228673
-0.00020717
-0.00210831
-0.000187155
-0.00194514
-0.000161808
-0.00179546
-0.000131327
-0.00165766
-9.59607e-05
-0.0015303
-5.6011e-05
-0.0014121
-1.18235e-05
-0.00130191
3.6209e-05
-0.00119874
8.76609e-05
-0.00110174
0.000142067
-0.00101018
0.000198973
-0.000923438
0.000257907
-0.000840902
0.000318401
-0.000762084
0.000379979
-0.000686528
-0.000613786
0.000442151
-6.10762e-06
-0.00793025
-2.08131e-05
-0.00720767
-4.11543e-05
-0.00655474
-6.46489e-05
-0.00596554
-8.92381e-05
-0.00543441
-0.000113228
-0.00495599
-0.000135236
-0.00452524
-0.00015414
-0.00413748
-0.00016904
-0.00378838
-0.000179226
-0.00347398
-0.00018415
-0.00319063
-0.0001834
-0.00293502
-0.000176686
-0.00270414
-0.000163825
-0.00249524
-0.000144726
-0.00230583
-0.000119382
-0.00213365
-8.78616e-05
-0.00197666
-5.03042e-05
-0.00183302
-6.91182e-06
-0.00170105
4.20549e-05
-0.00157927
9.62813e-05
-0.00146633
0.000155406
-0.00136104
0.000219011
-0.00126234
0.000286638
-0.00116937
0.000357788
-0.00108133
0.000431942
-0.000997592
0.000508585
-0.000917545
0.000587184
-0.000840683
0.000667202
-0.000766545
-0.000694665
0.000748081
-5.77869e-06
-0.00792447
-1.94377e-05
-0.00719401
-3.79922e-05
-0.00653619
-5.89506e-05
-0.00594458
-8.02481e-05
-0.00541311
-0.000100188
-0.00493605
-0.000117385
-0.00450805
-0.00013072
-0.00412415
-0.000139295
-0.00377981
-0.0001424
-0.00347087
-0.000139489
-0.00319354
-0.000130152
-0.00294436
-0.000114097
-0.0027202
-9.11398e-05
-0.0025182
-6.1187e-05
-0.00233578
-2.423e-05
-0.00217061
1.96631e-05
-0.00202056
7.03532e-05
-0.00188371
0.000127635
-0.00175833
0.00019124
-0.00164287
0.000260843
-0.00153593
0.00033606
-0.00143625
0.000416459
-0.00134274
0.000501543
-0.00125445
0.000590778
-0.00117057
0.000683594
-0.00109041
0.00077941
-0.00101336
0.000877631
-0.000938905
0.000977641
-0.000866555
-0.000795827
0.0010788
-5.41328e-06
-0.00791906
-1.79253e-05
-0.0071815
-3.45264e-05
-0.00651958
-5.27156e-05
-0.00592639
-7.04262e-05
-0.0053954
-8.59635e-05
-0.00492052
-9.79475e-05
-0.00449606
-0.000105263
-0.00411683
-0.000107019
-0.00377805
-0.00010251
-0.00347538
-9.11923e-05
-0.00320486
-7.26574e-05
-0.00296289
-4.66142e-05
-0.00274624
-1.28747e-05
-0.00255194
2.86572e-05
-0.00237731
7.79945e-05
-0.00221995
0.000135073
-0.00207764
0.000199757
-0.00194839
0.000271842
-0.00183042
0.000351056
-0.00172209
0.000437065
-0.00162194
0.00052947
-0.00152866
0.000627814
-0.00144109
0.000731576
-0.00135821
0.000840174
-0.00127917
0.000952992
-0.00120323
0.00106938
-0.00112975
0.00118867
-0.0010582
0.00131017
-0.000988053
-0.000918795
0.00143314
-5.01018e-06
-0.00791405
-1.62708e-05
-0.00717024
-3.07482e-05
-0.00650511
-4.59345e-05
-0.0059112
-5.97652e-05
-0.00538157
-7.05528e-05
-0.00490973
-7.6927e-05
-0.00448969
-7.77832e-05
-0.00411598
-7.22391e-05
-0.0037836
-5.9599e-05
-0.00348802
-3.93238e-05
-0.00322513
-1.1008e-05
-0.00299121
2.56392e-05
-0.00278289
7.08083e-05
-0.00259711
0.0001246
-0.00243111
0.000187035
-0.00228238
0.000258054
-0.00214866
0.00033753
-0.00202787
0.000425262
-0.00191815
0.00052098
-0.00181781
0.000624346
-0.00172531
0.000734953
-0.00163927
0.000852324
-0.00155846
0.000975908
-0.0014818
0.00110509
-0.00140835
0.00123919
-0.00133732
0.00137749
-0.00126805
0.00151925
-0.00119995
0.00166367
-0.00113247
-0.00106504
0.00180991
-4.56907e-06
-0.00790948
-1.44702e-05
-0.00716034
-2.66496e-05
-0.00649293
-3.8596e-05
-0.00589926
-4.82521e-05
-0.00537192
-5.39431e-05
-0.00490404
-5.4314e-05
-0.00448932
-4.82758e-05
-0.00412201
-3.49608e-05
-0.00379691
-1.36851e-05
-0.00350929
1.60813e-05
-0.0032549
5.47386e-05
-0.00302987
0.000102576
-0.00283072
0.000159787
-0.00265432
0.000226477
-0.0024978
0.000302675
-0.00235858
0.000388334
-0.00223431
0.000483334
-0.00212287
0.000587486
-0.0020223
0.000700526
-0.00193085
0.000822119
-0.0018469
0.000951852
-0.001769
0.00108924
-0.00169585
0.00123371
-0.00162626
0.00138461
-0.00155925
0.0015412
-0.00149391
0.00170269
-0.00142954
0.00186824
-0.00136551
0.00203697
-0.0013012
-0.00123598
0.00220792
-4.08896e-06
-0.00790539
-1.25188e-05
-0.00715191
-2.22203e-05
-0.00648323
-3.06846e-05
-0.00589079
-3.58667e-05
-0.00536673
-3.61109e-05
-0.00490379
-3.00835e-05
-0.00449535
-1.67171e-05
-0.00413538
4.83614e-06
-0.00381847
3.52434e-05
-0.0035397
7.50215e-05
-0.00329468
0.000124563
-0.00307941
0.000184152
-0.00289031
0.000253985
-0.00272415
0.000334172
-0.00257798
0.000424753
-0.00244916
0.000525692
-0.00233525
0.000636886
-0.00223406
0.000758159
-0.00214358
0.000889261
-0.00206195
0.00102987
-0.0019875
0.00117957
-0.0019187
0.00133787
-0.00185415
0.00150418
-0.00179258
0.00167783
-0.00173289
0.00185803
-0.00167411
0.00204391
-0.00161542
0.00223453
-0.00155614
0.0024289
-0.00149557
-0.00143301
0.00262592
-3.56829e-06
-0.00790182
-1.04105e-05
-0.00714507
-1.74477e-05
-0.00647619
-2.21795e-05
-0.00588606
-2.25807e-05
-0.00536633
-1.70209e-05
-0.00490935
-4.19481e-06
-0.00450817
1.6937e-05
-0.00415651
4.71965e-05
-0.00384872
8.72282e-05
-0.00357973
0.000137531
-0.00334498
0.000198485
-0.00314036
0.000270369
-0.0029622
0.000353375
-0.00280716
0.000447623
-0.00267223
0.000553159
-0.0025547
0.000669965
-0.00245206
0.000797956
-0.00236205
0.000936977
-0.0022826
0.0010868
-0.00221177
0.00124711
-0.00214782
0.00141752
-0.00208911
0.00159753
-0.00203416
0.00178656
-0.00198161
0.0019839
-0.00193023
0.00218872
-0.00187893
0.00240009
-0.00182679
0.00261697
-0.00177303
0.00283825
-0.00171684
-0.00165744
0.00306268
-3.00506e-06
-0.00789881
-8.13724e-06
-0.00713994
-1.23155e-05
-0.00647201
-1.3055e-05
-0.00588532
-8.35768e-06
-0.00537103
3.37354e-06
-0.00492108
2.34083e-05
-0.00452821
5.27508e-05
-0.00418585
9.219e-05
-0.00388816
0.000142341
-0.00362989
0.000203681
-0.00340632
0.000276569
-0.00321325
0.000361275
-0.0030469
0.000457986
-0.00290387
0.000566825
-0.00278107
0.000687849
-0.00267572
0.000821056
-0.00258527
0.000966384
-0.00250738
0.0011237
-0.00243992
0.00129281
-0.00238088
0.00147343
-0.00232844
0.00166519
-0.00228086
0.0018676
-0.00223658
0.00208009
-0.0021941
0.00230193
-0.00215207
0.00253228
-0.00210928
0.00277014
-0.00206465
0.00301438
-0.00201727
0.00326375
-0.00196621
-0.00191054
0.00351685
-2.39646e-06
-0.00789642
-5.68978e-06
-0.00713664
-6.80433e-06
-0.0064709
-3.27976e-06
-0.00588884
6.8464e-06
-0.00538116
2.51298e-05
-0.00493937
5.27963e-05
-0.00455587
9.08067e-05
-0.00422386
0.00013991
-0.00393727
0.000200684
-0.00369066
0.000273575
-0.00347921
0.000358919
-0.0032986
0.000456967
-0.00314495
0.000567899
-0.0030148
0.000691836
-0.00290501
0.000828843
-0.00281273
0.000978937
-0.00273536
0.00114208
-0.00267052
0.00131817
-0.00261601
0.00150705
-0.00256976
0.00170846
-0.00252985
0.00192208
-0.00249448
0.00214746
-0.00246195
0.00238403
-0.00243066
0.00263107
-0.00239912
0.00288772
-0.00236593
0.00315294
-0.00232987
0.00342552
-0.00228984
0.00370406
-0.00224476
-0.00219349
0.00398701
-1.73938e-06
-0.00789468
-3.05709e-06
-0.00713533
-8.92417e-07
-0.00647306
7.18114e-06
-0.00589692
2.30815e-05
-0.00539706
4.83135e-05
-0.0049646
8.40508e-05
-0.00459161
0.000131202
-0.00427102
0.000190468
-0.00399653
0.000262382
-0.00376257
0.00034735
-0.00356418
0.000445677
-0.00339692
0.000557588
-0.00325686
0.000683249
-0.00314046
0.000822773
-0.00304453
0.000976232
-0.00296619
0.00114365
-0.00290278
0.00132503
-0.0028519
0.00152029
-0.00281127
0.00172932
-0.00277879
0.00195191
-0.00275245
0.00218779
-0.00273036
0.00243656
-0.00271072
0.00269767
-0.00269178
0.00297045
-0.0026719
0.00325403
-0.0026495
0.00354733
-0.00262317
0.00384907
-0.00259158
0.00415774
-0.00255343
-0.00250736
0.00447161
-1.03024e-06
-0.00789365
-2.27354e-07
-0.00713613
5.4438e-06
-0.00647873
1.83657e-05
-0.00590984
4.04014e-05
-0.00541909
7.29961e-05
-0.00499719
0.000117262
-0.00463588
0.000174047
-0.0043278
0.000243993
-0.00406648
0.000327581
-0.00384616
0.000425168
-0.00366176
0.000537017
-0.00350877
0.000663322
-0.00338317
0.000804221
-0.00328136
0.000959815
-0.00320013
0.00113017
-0.00313654
0.00131533
-0.00308794
0.0015153
-0.00305187
0.00173005
-0.00302602
0.00195952
-0.00300825
0.00220356
-0.00299649
0.00246196
-0.00298876
0.00273437
-0.00298313
0.00302033
-0.00297774
0.00331919
-0.00297076
0.00363012
-0.00296043
0.00395203
-0.00294508
0.0042836
-0.00292315
0.0046232
-0.00289304
-0.00285309
0.00496894
-2.65495e-07
-0.00789338
2.81148e-06
-0.00713921
1.22284e-05
-0.00648815
3.03122e-05
-0.00592792
5.8861e-05
-0.00544764
9.92503e-05
-0.00503758
0.000152521
-0.00468915
0.000219452
-0.00439473
0.000300618
-0.00414764
0.000396436
-0.00394198
0.000507206
-0.00377253
0.000633139
-0.0036347
0.000774383
-0.00352441
0.000931041
-0.00343802
0.00110319
-0.00337227
0.00129088
-0.00332423
0.00149416
-0.00329122
0.00171305
-0.00327076
0.00194756
-0.00326054
0.00219767
-0.00325836
0.0024633
-0.00326213
0.00274432
-0.00326978
0.00304047
-0.00327928
0.00335138
-0.00328864
0.00367647
-0.00329585
0.00401496
-0.00329892
0.0043658
-0.00329592
0.00472764
-0.00328499
0.00509879
-0.00326418
-0.00323149
0.00547719
5.58407e-07
-0.00789394
6.0711e-06
-0.00714472
1.94844e-05
-0.00650156
4.30577e-05
-0.0059515
7.8513e-05
-0.0054831
0.000127146
-0.00508622
0.000189918
-0.00475192
0.000267528
-0.00447234
0.000360476
-0.00424059
0.000469106
-0.00405061
0.000593648
-0.00389708
0.00073425
-0.00377531
0.000891004
-0.00368116
0.00106396
-0.00361098
0.00125317
-0.00356147
0.00145864
-0.00352971
0.00168041
-0.00351299
0.00191851
-0.00350886
0.00217299
-0.00351501
0.00244386
-0.00352923
0.00273112
-0.00354939
0.00303472
-0.00357338
0.00335453
-0.0035991
0.00369028
-0.00362439
0.00404152
-0.00364709
0.00440755
-0.00366496
0.00478741
-0.00367578
0.00517975
-0.00367733
0.00558284
-0.00366727
-0.0036431
0.00599446
1.4448e-06
-0.00789539
9.56219e-06
-0.00715284
2.72326e-05
-0.00651923
5.66348e-05
-0.0059809
9.94036e-05
-0.00552586
0.000156745
-0.00514356
0.000229531
-0.0048247
0.000318374
-0.00456119
0.000423687
-0.0043459
0.000545733
-0.00417266
0.000684665
-0.00403601
0.000840553
-0.0039312
0.00101342
-0.00385403
0.00120326
-0.00380081
0.00141004
-0.00376826
0.00163376
-0.00375342
0.00187441
-0.00375364
0.00213201
-0.00376647
0.00240663
-0.00378962
0.00269831
-0.00382091
0.00300713
-0.00385821
0.00333314
-0.00389939
0.00367632
-0.00394228
0.00403658
-0.00398464
0.0044136
-0.00402411
0.00480687
-0.00405823
0.00521552
-0.00408443
0.00563828
-0.0041001
0.00607341
-0.0041024
-0.00408828
0.00651858
2.39612e-06
-0.00789778
1.32932e-05
-0.00716373
3.54896e-05
-0.00654143
7.10697e-05
-0.00601648
0.000121569
-0.00557636
0.000188094
-0.00521008
0.000271419
-0.00490803
0.000372062
-0.00466183
0.000490343
-0.00446419
0.000626434
-0.00430875
0.000780398
-0.00418997
0.000952223
-0.00410302
0.00114184
-0.00404365
0.00134917
-0.00400814
0.00157411
-0.0039932
0.00181658
-0.00399589
0.00207652
-0.00401359
0.00235394
-0.00404388
0.00264885
-0.00408454
0.00296136
-0.00413342
0.00329159
-0.00418844
0.00363968
-0.00424748
0.00400578
-0.00430838
0.00438994
-0.0043688
0.00479209
-0.00442626
0.0052119
-0.00447804
0.00564873
-0.00452126
0.00610145
-0.00455282
0.00656836
-0.00456931
-0.00456698
0.00704707
3.41417e-06
-0.0079012
1.72703e-05
-0.00717759
4.42669e-05
-0.00656843
8.6379e-05
-0.00605859
0.000145031
-0.00563502
0.000221221
-0.00528627
0.000315617
-0.00500243
0.000428634
-0.00477485
0.000560496
-0.00459605
0.000711275
-0.00445953
0.00088094
-0.00435964
0.00106938
-0.00429146
0.00127643
-0.0042507
0.00150191
-0.00423362
0.00174563
-0.00423691
0.00200742
-0.00425768
0.00228714
-0.00429331
0.00258472
-0.00434146
0.00290015
-0.00439997
0.0032335
-0.00446677
0.00358494
-0.00453988
0.0039547
-0.00461724
0.00434306
-0.00469673
0.00475027
-0.00477602
0.00517654
-0.00485252
0.00562182
-0.00492333
0.00608576
-0.0049852
0.00656749
-0.00503455
0.00706546
-0.00506728
-0.00507879
0.00757727
4.49957e-06
-0.0079057
2.14962e-05
-0.00719459
5.35695e-05
-0.0066005
0.000102568
-0.00610759
0.000169794
-0.00570224
0.000256125
-0.0053726
0.00036212
-0.00510842
0.000488085
-0.00490081
0.000634141
-0.0047421
0.000800259
-0.00462565
0.000986302
-0.00454568
0.00119206
-0.00449721
0.00141726
-0.0044759
0.0016616
-0.00447796
0.00192479
-0.00450011
0.00220654
-0.00453943
0.0025066
-0.00459337
0.0028248
-0.00465966
0.00316104
-0.0047362
0.00351533
-0.00482107
0.00388782
-0.00491237
0.00427879
-0.00500821
0.00468863
-0.00510658
0.00511783
-0.00520522
0.00556686
-0.00530155
0.00603608
-0.00539255
0.00652554
-0.00547466
0.00703477
-0.00554378
0.00756251
-0.00559503
-0.00562273
0.00810645
5.65206e-06
-0.00791135
2.59713e-05
-0.0072149
6.33963e-05
-0.00663792
0.000119631
-0.00616383
0.000195841
-0.00577845
0.000292778
-0.00546954
0.000410883
-0.00522652
0.000550354
-0.00504028
0.000711203
-0.00490295
0.000893298
-0.00480774
0.0010964
-0.00474878
0.00132018
-0.00472099
0.00156426
-0.00471998
0.00182822
-0.00474193
0.00211164
-0.00478352
0.00241409
-0.00484188
0.00273518
-0.00491447
0.00307459
-0.00499907
0.00343208
-0.00509369
0.00380755
-0.00519654
0.00420106
-0.00530588
0.00461286
-0.00542001
0.00504342
-0.00553713
0.00549338
-0.00565518
0.00596354
-0.00577171
0.00645471
-0.00588372
0.00696751
-0.00598746
0.00750205
-0.00607832
0.00805759
-0.00615056
-0.00619719
0.00863206
6.87036e-06
-0.00791822
3.0694e-05
-0.00723873
7.37409e-05
-0.00668097
0.000137549
-0.00622763
0.000223134
-0.00586403
0.000331115
-0.00557752
0.000461812
-0.00535722
0.000615311
-0.00519378
0.000791519
-0.00507916
0.000990199
-0.00500642
0.00121101
-0.00496959
0.00145351
-0.0049635
0.00171721
-0.00498368
0.00200157
-0.00502629
0.00230603
-0.00508798
0.00263
-0.00516585
0.00297294
-0.0052574
0.00333433
-0.00536046
0.00371376
-0.00547312
0.00411091
-0.00559369
0.00452568
-0.00572065
0.00495819
-0.00585252
0.00540885
-0.00598778
0.00587839
-0.00612473
0.0063679
-0.00626122
0.00687866
-0.00639448
0.007412
-0.0065208
0.0079689
-0.00663522
0.00854943
-0.00673109
-0.00679978
0.00915202
8.15478e-06
-0.00792637
3.56651e-05
-0.00726624
8.45952e-05
-0.0067299
0.000156292
-0.00629933
0.000251611
-0.00595935
0.000371033
-0.00569695
0.000514756
-0.00550094
0.000682756
-0.00536178
0.000874832
-0.00527124
0.00109065
-0.00522224
0.00132976
-0.0052087
0.00159163
-0.00522536
0.00187565
-0.00526771
0.00218117
-0.00533181
0.0025075
-0.0054143
0.00285389
-0.00551224
0.00321962
-0.00562314
0.00360398
-0.00574482
0.00400631
-0.00587544
0.00442603
-0.00601342
0.00486276
-0.00615738
0.00531634
-0.0063061
0.00578697
-0.00645842
0.0062753
-0.00661306
0.00678251
-0.00676843
0.00731033
-0.0069223
0.00786089
-0.00707135
0.00843633
-0.00721067
0.00903804
-0.0073328
-0.00742711
0.00966537
9.51185e-06
-0.00793589
4.08952e-05
-0.00729762
9.59553e-05
-0.00678496
0.000175825
-0.0063792
0.00028119
-0.00606472
0.000412393
-0.00582815
0.000569511
-0.00565806
0.000752407
-0.00554468
0.000960779
-0.00547961
0.00119419
-0.00545565
0.00145211
-0.00546661
0.0017339
-0.00550716
0.00203887
-0.00557268
0.00236625
-0.00565919
0.00271523
-0.00576328
0.00308495
-0.00588196
0.0034745
-0.0060127
0.00388299
-0.00615331
0.00430949
-0.00630194
0.00475314
-0.00645707
0.00521316
-0.0066174
0.005689
-0.00678194
0.0061804
-0.00694982
0.00668763
-0.00712029
0.00721167
-0.00729247
0.00775439
-0.00746502
0.00831865
-0.00763561
0.00890805
-0.00780007
0.00952599
-0.00795075
-0.00807452
0.0101734
1.0966e-05
-0.00794685
4.64184e-05
-0.00733307
0.00010783
-0.00684637
0.000196105
-0.00646747
0.000311765
-0.00618038
0.000455016
-0.0059714
0.000625812
-0.00582886
0.000823907
-0.00574277
0.0010489
-0.0057046
0.00130025
-0.00570701
0.00157735
-0.00574371
0.00187948
-0.00580928
0.00220586
-0.00589906
0.00255565
-0.00600898
0.00292795
-0.00613558
0.0033218
-0.00627581
0.00373619
-0.00642709
0.00417004
-0.00658716
0.00462224
-0.00675414
0.00509163
-0.00692645
0.00557704
-0.00710282
0.00607741
-0.0072823
0.00659184
-0.00746425
0.00711987
-0.00764831
0.00766173
-0.00783434
0.00821883
-0.00802212
0.00879417
-0.00821094
0.00939268
-0.00839858
0.0100206
-0.00857869
-0.00873556
0.0106817
1.25857e-05
-0.00795944
5.23166e-05
-0.00737281
0.00012025
-0.00691431
0.000217088
-0.00656431
0.000343208
-0.0063065
0.000498683
-0.00612688
0.000683343
-0.00601352
0.000896825
-0.00595625
0.00113862
-0.00594639
0.00140811
-0.0059765
0.00170459
-0.00604019
0.00202727
-0.00613197
0.00237531
-0.0062471
0.00274783
-0.0063815
0.00314387
-0.00653162
0.00356243
-0.00669437
0.00400244
-0.0068671
0.00446278
-0.0070475
0.00494221
-0.00723358
0.00543942
-0.00742366
0.00595297
-0.00761637
0.00648135
-0.00781068
0.00702298
-0.00800588
0.0075764
-0.00820173
0.00814055
-0.00839849
0.00871531
-0.00859689
0.00930241
-0.00879804
0.00990671
-0.00900288
0.0105374
-0.00920941
-0.00940452
0.0112064
1.45939e-05
-0.00797403
5.87887e-05
-0.007417
0.000133282
-0.0069888
0.00023872
-0.00666975
0.000375361
-0.00644314
0.000543136
-0.00629465
0.000741735
-0.00621212
0.000970668
-0.00618519
0.00122932
-0.00620504
0.00151696
-0.00626414
0.0018328
-0.00635603
0.00217601
-0.00647517
0.00254568
-0.00661677
0.0029409
-0.00677672
0.0033607
-0.00695142
0.00380411
-0.00713778
0.00427009
-0.00733308
0.00475756
-0.00753497
0.00526536
-0.00774138
0.00579225
-0.00795055
0.00633682
-0.00816094
0.00689745
-0.00837131
0.00747226
-0.00858069
0.00805906
-0.00878853
0.00865535
-0.00899478
0.00925869
-0.00920022
0.00986741
-0.00940676
0.0104827
-0.00961815
0.0111139
-0.00984064
-0.0100866
0.011796
1.78014e-05
-0.00799183
6.62195e-05
-0.00746542
0.000146985
-0.00706956
0.000260891
-0.00678366
0.000408006
-0.00659025
0.000588061
-0.00647471
0.00080057
-0.00642463
0.00104489
-0.00642951
0.00132028
-0.00648042
0.0016259
-0.00656976
0.00196087
-0.00669101
0.00232429
-0.00683858
0.00271521
-0.00700769
0.00313268
-0.0071942
0.00357578
-0.00739451
0.00404354
-0.00760555
0.00453506
-0.0078246
0.00504942
-0.00804932
0.00558572
-0.00827768
0.00614305
-0.00850788
0.00672052
-0.0087384
0.00731713
-0.00896792
0.00793179
-0.00919535
0.00856311
-0.00941985
0.00920924
-0.00964092
0.00986772
-0.0098587
0.0105352
-0.0100742
0.0112064
-0.0102893
0.011877
-0.0105112
-0.0107624
0.0125527
0.00900134
4.64378e-05
-0.00904778
0.00895584
4.55063e-05
0.00891061
4.52293e-05
0.00886551
4.50924e-05
0.00882058
4.49357e-05
0.00877588
4.47023e-05
0.00873151
4.43683e-05
0.00868758
4.39271e-05
0.0086442
4.33804e-05
0.00860147
4.27344e-05
0.00855947
4.19948e-05
0.0085183
4.11662e-05
0.00847805
4.02535e-05
0.00843879
3.92616e-05
0.00840059
3.81966e-05
0.00836353
3.70643e-05
0.00832766
3.58706e-05
0.00829304
3.4621e-05
0.00825972
3.33207e-05
0.00822774
3.1975e-05
0.00819715
3.05886e-05
0.00816799
2.91665e-05
0.00814027
2.77128e-05
0.00811404
2.6232e-05
0.00808932
2.47264e-05
0.00806612
2.3193e-05
0.00804451
2.16131e-05
0.00802458
1.99274e-05
0.00800665
1.79289e-05
1.48206e-05
0.0103106
0.000165897
-0.01043
0.0101899
0.000166179
0.0100685
0.000166575
0.00994679
0.000166833
0.00982492
0.000166806
0.00970321
0.00016642
0.00958193
0.00016564
0.00946141
0.000164456
0.00934191
0.000162874
0.00922374
0.000160907
0.00910716
0.000158573
0.00899244
0.000155887
0.00887983
0.000152867
0.00876956
0.00014953
0.00866186
0.000145898
0.00855693
0.000141989
0.00845498
0.000137826
0.00835617
0.000133428
0.00826068
0.000128813
0.00816865
0.000124
0.00808023
0.000119007
0.00799555
0.000113851
0.00791472
0.000108545
0.00783785
0.000103104
0.00776504
9.75348e-05
0.00769639
9.18355e-05
0.00763203
8.59793e-05
0.00757206
7.98904e-05
0.00751662
7.33741e-05
6.60225e-05
0.0115848
0.000346224
-0.0117652
0.0114017
0.00034936
0.0112164
0.000351823
0.0110297
0.000353547
0.010842
0.000354458
0.010654
0.000354508
0.0104659
0.000353672
0.0102784
0.000351945
0.010092
0.000349346
0.00990697
0.0003459
0.00972391
0.000341637
0.00954321
0.000336589
0.00936529
0.00033079
0.00919054
0.00032428
0.00901933
0.0003171
0.00885203
0.000309289
0.00868897
0.000300891
0.00853045
0.000291946
0.00837677
0.000282494
0.0082282
0.000272573
0.00808498
0.000262219
0.00794737
0.000251467
0.00781556
0.00024035
0.00768977
0.000228896
0.00757018
0.000217128
0.00745695
0.00020506
0.00735025
0.000192685
0.00725017
0.00017997
0.00715671
0.00016683
0.00015317
0.0128143
0.000576545
-0.0130446
0.0125795
0.000584159
0.0123411
0.000590249
0.0120998
0.000594821
0.0118564
0.000597853
0.0116116
0.000599328
0.011366
0.000599237
0.0111204
0.000597594
0.0108753
0.00059443
0.0106314
0.000589785
0.0103893
0.000583704
0.0101497
0.00057624
0.00991304
0.000567449
0.00967993
0.000557394
0.00945088
0.00054614
0.00922642
0.000533755
0.009007
0.000520306
0.00879309
0.00050586
0.0085851
0.000490483
0.00838344
0.000474237
0.00818847
0.000457185
0.00800056
0.000439384
0.00782002
0.000420891
0.00764715
0.000401757
0.00748225
0.000382033
0.00732555
0.000361762
0.00717725
0.000340979
0.00703751
0.000319712
0.00690635
0.000297986
0.000275867
0.0139907
0.000846992
-0.0142612
0.013714
0.000860863
0.013432
0.000872298
0.0131455
0.000881316
0.0128554
0.000887921
0.0125627
0.000892111
0.012268
0.000893899
0.0119723
0.000893312
0.0116763
0.000890394
0.0113809
0.000885203
0.0110868
0.000877801
0.0107948
0.000868258
0.0105056
0.000856658
0.0102199
0.000843086
0.00993838
0.000827637
0.00966172
0.000810406
0.00939054
0.00079149
0.00912541
0.000770985
0.00886691
0.000748986
0.00861556
0.000725586
0.00837187
0.000700875
0.00813632
0.000674939
0.00790934
0.000647864
0.00769137
0.000619732
0.00748277
0.000590627
0.0072839
0.000560633
0.00709504
0.000529839
0.00691641
0.000498341
0.00674814
0.000466257
0.000433754
0.0151077
0.00114873
-0.0154095
0.0147978
0.00117076
0.0144808
0.00118939
0.0141575
0.00120461
0.0138289
0.00121643
0.0134962
0.00122486
0.0131602
0.00122992
0.0128218
0.00123164
0.0124822
0.00123008
0.0121421
0.00122531
0.0118025
0.0012174
0.0114643
0.00120646
0.0111283
0.00119258
0.0107956
0.00117587
0.0104667
0.00115646
0.0101427
0.00113447
0.00982413
0.00111003
0.00951186
0.00108326
0.00920654
0.0010543
0.00890886
0.00102327
0.00861946
0.000990281
0.00833893
0.000955462
0.00806787
0.000918926
0.00780681
0.000880791
0.00755626
0.000841181
0.00731667
0.000800226
0.00708843
0.000758074
0.00687188
0.000714892
0.00666725
0.000670883
0.000626303
0.0161606
0.00147388
-0.0164857
0.0158253
0.00150606
0.0154808
0.00153381
0.0151284
0.0015571
0.0147689
0.00157592
0.0144034
0.00159028
0.0140332
0.00160019
0.0136591
0.00160569
0.0132824
0.00160684
0.012904
0.00160371
0.012525
0.0015964
0.0121464
0.00158501
0.0117693
0.00156967
0.0113947
0.00155052
0.0110234
0.00152769
0.0106566
0.00150135
0.0102949
0.00147165
0.00993945
0.00143875
0.00959095
0.00140281
0.00925024
0.00136398
0.0089181
0.00132242
0.00859528
0.00127828
0.00828249
0.00123171
0.00798042
0.00118286
0.00768971
0.0011319
0.00741093
0.001079
0.00714463
0.00102438
0.00689124
0.000968275
0.00665115
0.000910977
0.000852828
0.017146
0.00181548
-0.0174876
0.0167923
0.00185979
0.0164274
0.00189862
0.0160526
0.00193191
0.0156689
0.00195961
0.0152775
0.0019817
0.0148795
0.00199819
0.0144761
0.0020091
0.0140684
0.0020145
0.0136577
0.00201445
0.013245
0.00200906
0.0128316
0.00199843
0.0124186
0.00198271
0.0120071
0.00196205
0.0115981
0.00193663
0.0111928
0.00190663
0.0107923
0.00187222
0.0103974
0.0018336
0.0100092
0.00179096
0.00962874
0.00174448
0.00925681
0.00169435
0.00889435
0.00164074
0.00854222
0.00158384
0.00820124
0.00152384
0.0078722
0.00146094
0.00755584
0.00139536
0.00725284
0.00132738
0.00696379
0.00125732
0.00668921
0.00118556
0.00111253
0.0180622
0.00216736
-0.0184141
0.0176962
0.00222578
0.0173172
0.00227766
0.0169262
0.00232289
0.0165244
0.00236138
0.0161131
0.00239307
0.0156933
0.00241795
0.0152664
0.00243604
0.0148335
0.00244736
0.014396
0.00245198
0.0139551
0.00244999
0.013512
0.00244152
0.013068
0.00242671
0.0126243
0.00240574
0.0121821
0.00237878
0.0117427
0.00234605
0.0113072
0.00230775
0.0108767
0.0022641
0.0104523
0.00221531
0.0100352
0.00216159
0.00962641
0.00210315
0.00922695
0.00204021
0.00883783
0.00197296
0.00846004
0.00190162
0.00809454
0.00182644
0.00774222
0.00174768
0.00740393
0.00166567
0.00708044
0.00158081
0.00677242
0.00149358
0.00140452
0.0189085
0.00252416
-0.0192653
0.0185357
0.00259859
0.0181479
0.00266544
0.0177463
0.00272452
0.017332
0.0027757
0.0169062
0.0028189
0.0164701
0.00285405
0.016025
0.00288112
0.0155722
0.00290013
0.0151131
0.00291113
0.0146489
0.00291419
0.014181
0.00290942
0.0137107
0.00289699
0.0132394
0.00287706
0.0127683
0.00284983
0.0122988
0.00281553
0.0118322
0.00277437
0.0113697
0.00272661
0.0109126
0.00267246
0.010462
0.00261217
0.0100192
0.00254596
0.00958531
0.00247407
0.00916156
0.0023967
0.00874907
0.00231411
0.00834896
0.00222655
0.00796232
0.00213433
0.00759017
0.00203782
0.00723348
0.0019375
0.00689311
0.00183395
0.00172787
0.0196853
0.00288126
-0.0200424
0.0193104
0.00297349
0.0189187
0.00305713
0.0185113
0.00313193
0.0180893
0.00319768
0.017654
0.00325426
0.0172065
0.00330153
0.0167481
0.00333945
0.0162803
0.00336797
0.0158043
0.00338712
0.0153216
0.00339694
0.0148334
0.00339756
0.0143413
0.00338909
0.0138467
0.00337173
0.0133508
0.00334566
0.0128552
0.00331113
0.0123612
0.00326836
0.0118702
0.00321761
0.0113836
0.00315912
0.0109026
0.00309316
0.0104286
0.00301996
0.00996292
0.00293974
0.00950688
0.00285275
0.00906178
0.00275921
0.00862891
0.00265941
0.00820957
0.00255367
0.007805
0.0024424
0.00741636
0.00232614
0.00704473
0.00220559
0.00208159
0.0203937
0.00323469
-0.0207472
0.0200208
0.0033464
0.0196294
0.00344855
0.0192205
0.00354083
0.0187952
0.00362296
0.0183547
0.00369473
0.0179003
0.00375597
0.0174332
0.00380656
0.0169547
0.00384643
0.0164663
0.00387554
0.0159693
0.00389393
0.0154652
0.00390166
0.0149554
0.00389886
0.0144415
0.0038857
0.0139248
0.00386236
0.0134068
0.00382908
0.0128891
0.0037861
0.012373
0.00373368
0.01186
0.00367208
0.0113517
0.00360156
0.0108493
0.00352235
0.0103543
0.00343468
0.00986828
0.00333878
0.00939263