/*--------------------------------*- C++ -*----------------------------------*\
  =========                 |
  \\      /  F ield         | OpenFOAM: The Open Source CFD Toolbox
   \\    /   O peration     | Website:  https://openfoam.org
    \\  /    A nd           | Version:  6.0
     \\/     M anipulation  |
\*---------------------------------------------------------------------------*/
FoamFile
{
    version     2.0;
    format      ascii;
    class       volScalarField;
    location    "3.745";
    object      p;
}
// * * * * * * * * * * * * * * * * * * * * * * * * * * * * * * * * * * * * * //

dimensions      [0 2 -2 0 0 0 0];

internalField   nonuniform List<scalar> 
2400
(
-0.437627
-0.423967
-0.415119
-0.407604
-0.399979
-0.39232
-0.384739
-0.377199
-0.369781
-0.363733
-0.458644
-0.443299
-0.433012
-0.424099
-0.415088
-0.40612
-0.397341
-0.388693
-0.380231
-0.373682
-0.483816
-0.466184
-0.45396
-0.443225
-0.432437
-0.421793
-0.411472
-0.401376
-0.391531
-0.384363
-0.513188
-0.492699
-0.478049
-0.465061
-0.452098
-0.439405
-0.427179
-0.415265
-0.403652
-0.395684
-0.546874
-0.522935
-0.505358
-0.489694
-0.47417
-0.459062
-0.444565
-0.430431
-0.416597
-0.407551
-0.58499
-0.556972
-0.535975
-0.517234
-0.498791
-0.480926
-0.463806
-0.447033
-0.430436
-0.419871
-0.62762
-0.594865
-0.56997
-0.547788
-0.526114
-0.505203
-0.485156
-0.465366
-0.445401
-0.432608
-0.674758
-0.636596
-0.607359
-0.581422
-0.556244
-0.532017
-0.508742
-0.485501
-0.461289
-0.444981
-0.726223
-0.682023
-0.648084
-0.618171
-0.589303
-0.561535
-0.534613
-0.506954
-0.476332
-0.453509
-0.781376
-0.730751
-0.691942
-0.658059
-0.625708
-0.594886
-0.565072
-0.533929
-0.497807
-0.466801
-1.23698
-1.22667
-1.20293
-1.16797
-1.12392
-1.07294
-1.0171
-0.958322
-0.898326
-0.83874
-1.13921
-1.13028
-1.10904
-1.07751
-1.03772
-0.991712
-0.941427
-0.88867
-0.835049
-0.781994
-1.053
-1.0478
-1.03081
-1.00386
-0.968884
-0.927833
-0.882587
-0.834908
-0.78638
-0.738351
-0.97026
-0.970029
-0.958377
-0.93691
-0.907386
-0.871623
-0.831417
-0.788491
-0.744428
-0.700583
-0.888526
-0.893418
-0.88741
-0.871828
-0.848187
-0.818098
-0.783191
-0.745069
-0.705274
-0.665153
-0.810628
-0.820132
-0.819449
-0.809627
-0.791911
-0.767646
-0.738207
-0.704961
-0.669282
-0.632417
-0.738409
-0.751674
-0.755611
-0.751039
-0.738956
-0.720438
-0.696547
-0.668273
-0.636617
-0.602551
-0.672529
-0.688688
-0.696436
-0.696442
-0.689535
-0.676581
-0.658349
-0.635324
-0.607736
-0.575574
-0.61289
-0.631255
-0.642147
-0.646176
-0.644108
-0.636744
-0.624717
-0.608079
-0.585768
-0.554427
-0.559523
-0.57865
-0.591336
-0.598188
-0.60001
-0.597722
-0.59219
-0.583787
-0.571379
-0.548749
-0.453206
-0.592966
-0.72386
-0.843607
-0.949856
-1.04069
-1.11475
-1.17124
-1.20997
-1.23142
-0.405214
-0.535671
-0.658096
-0.77014
-0.869591
-0.954653
-1.02405
-1.07707
-1.11354
-1.13388
-0.338946
-0.461657
-0.577659
-0.684587
-0.780274
-0.862942
-0.931274
-0.984458
-1.02221
-1.04476
-0.269729
-0.384497
-0.494014
-0.595963
-0.688234
-0.769071
-0.837119
-0.891462
-0.931651
-0.957715
-0.206566
-0.312939
-0.415427
-0.511746
-0.599871
-0.678135
-0.745206
-0.800124
-0.842331
-0.871681
-0.152771
-0.250949
-0.346398
-0.436785
-0.520217
-0.595178
-0.660419
-0.715003
-0.758334
-0.790156
-0.108309
-0.198953
-0.287847
-0.372406
-0.450943
-0.52216
-0.584926
-0.638368
-0.681905
-0.71524
-0.0713712
-0.154807
-0.237865
-0.317073
-0.390943
-0.458407
-0.518462
-0.570315
-0.613429
-0.647508
-0.0407678
-0.116864
-0.194728
-0.269183
-0.338804
-0.402716
-0.460035
-0.510075
-0.55237
-0.586654
-0.0242013
-0.0954242
-0.168257
-0.237172
-0.301492
-0.360641
-0.413863
-0.460628
-0.500594
-0.533565
0.529026
0.550468
0.57346
0.597113
0.620953
0.644325
0.666241
0.686073
0.709201
0.749408
0.502047
0.520784
0.541365
0.562205
0.582636
0.601934
0.619022
0.633287
0.650445
0.685496
0.467493
0.482533
0.499868
0.516956
0.53288
0.546871
0.557813
0.56521
0.575202
0.603884
0.425649
0.436112
0.449449
0.461915
0.472313
0.479863
0.483459
0.482822
0.484574
0.505748
0.376894
0.382053
0.390756
0.397829
0.401802
0.40192
0.397137
0.387492
0.380129
0.392825
0.321681
0.321012
0.324605
0.325648
0.322449
0.314326
0.300348
0.280958
0.263841
0.267282
0.260556
0.25378
0.251985
0.246521
0.23558
0.218622
0.194883
0.165286
0.13804
0.131651
0.194251
0.181365
0.174113
0.161817
0.142747
0.116592
0.0827952
0.0428268
0.00535391
-0.0112193
0.123576
0.105301
0.092723
0.0732637
0.0457787
0.0102639
-0.0336251
-0.0838354
-0.131349
-0.158233
0.0470459
0.0262621
0.00874265
-0.0179311
-0.0536395
-0.0982922
-0.151978
-0.211988
-0.269118
-0.306359
0.383308
0.386185
0.395988
0.403498
0.409139
0.41468
0.421808
0.433047
0.451409
0.473895
0.431943
0.436211
0.447388
0.458118
0.467796
0.477643
0.488994
0.504032
0.526404
0.555353
0.471006
0.47911
0.492949
0.507277
0.521164
0.535377
0.55094
0.569687
0.595727
0.630427
0.50323
0.515497
0.532325
0.550091
0.56791
0.586228
0.60574
0.62789
0.65709
0.696661
0.528842
0.544905
0.564562
0.585409
0.606704
0.628646
0.651605
0.67661
0.708273
0.751717
0.547557
0.566814
0.588875
0.612262
0.636392
0.661257
0.686926
0.714014
0.747253
0.793452
0.559101
0.580771
0.604628
0.62985
0.655998
0.682889
0.71031
0.738499
0.772266
0.819996
0.563198
0.586368
0.611285
0.63752
0.66473
0.692585
0.720623
0.748749
0.781858
0.829824
0.559624
0.583286
0.608441
0.634781
0.661998
0.689634
0.71701
0.743776
0.774942
0.821804
0.548241
0.571332
0.595852
0.621338
0.647439
0.673591
0.698939
0.722952
0.750814
0.795175
0.338467
0.29338
0.242033
0.19024
0.13897
0.0889667
0.0410595
-0.00423446
-0.0465958
-0.0858214
0.342334
0.294414
0.241204
0.186527
0.132371
0.0797884
0.0296177
-0.0175103
-0.0611642
-0.101078
0.345036
0.291379
0.234533
0.176974
0.120417
0.0659207
0.0143686
-0.0335486
-0.0773627
-0.116809
0.346777
0.288005
0.227459
0.166924
0.107935
0.0516235
-0.00108731
-0.0494971
-0.0931582
-0.131864
0.347628
0.284359
0.220194
0.15671
0.0954103
0.0374845
-0.0161311
-0.0647692
-0.108048
-0.145864
0.348583
0.281044
0.213347
0.147061
0.0836728
0.0243811
-0.0299119
-0.0786139
-0.121447
-0.158441
0.351389
0.279897
0.208887
0.139982
0.074649
0.0140554
-0.0409655
-0.0899207
-0.132648
-0.169306
0.35874
0.28366
0.209507
0.137952
0.0704557
0.00814537
-0.0482099
-0.0981959
-0.14173
-0.179054
0.372853
0.293517
0.215237
0.13976
0.0685819
0.0028522
-0.0566446
-0.109484
-0.155577
-0.19516
0.388617
0.302053
0.216486
0.133822
0.055684
-0.0166248
-0.0821633
-0.140374
-0.191085
-0.234448
-0.12187
-0.154792
-0.184818
-0.212278
-0.23755
-0.261038
-0.283058
-0.303624
-0.323255
-0.33252
-0.137197
-0.16954
-0.198346
-0.223947
-0.246707
-0.266981
-0.284989
-0.300564
-0.313368
-0.316588
-0.151879
-0.182627
-0.209375
-0.232547
-0.252606
-0.270003
-0.285082
-0.297947
-0.308599
-0.313735
-0.165711
-0.194833
-0.219693
-0.240839
-0.258856
-0.274321
-0.287714
-0.299342
-0.309303
-0.315777
-0.178458
-0.206065
-0.229301
-0.248837
-0.265366
-0.279547
-0.291941
-0.302916
-0.312522
-0.319647
-0.189997
-0.216438
-0.238514
-0.256986
-0.272603
-0.286052
-0.297893
-0.308477
-0.317809
-0.325221
-0.200436
-0.226403
-0.248045
-0.266157
-0.281482
-0.294683
-0.306272
-0.316545
-0.325496
-0.332755
-0.210787
-0.237276
-0.259386
-0.277895
-0.293504
-0.306819
-0.318292
-0.328176
-0.336491
-0.343081
-0.228814
-0.256902
-0.280261
-0.299639
-0.31572
-0.329076
-0.340122
-0.349098
-0.356089
-0.36109
-0.27078
-0.300842
-0.325328
-0.345053
-0.360785
-0.373142
-0.382551
-0.389265
-0.393443
-0.395159
-0.394313
-0.364266
-0.348016
-0.338177
-0.330195
-0.322907
-0.315284
-0.304843
-0.287769
-0.272849
-0.392629
-0.366226
-0.351746
-0.342634
-0.334852
-0.327404
-0.319588
-0.309782
-0.295945
-0.286742
-0.390519
-0.367564
-0.354835
-0.346586
-0.339334
-0.332301
-0.325039
-0.316612
-0.306318
-0.300931
-0.38869
-0.368868
-0.35777
-0.350374
-0.343703
-0.337152
-0.330418
-0.322912
-0.314437
-0.310101
-0.387894
-0.370755
-0.361079
-0.354443
-0.348313
-0.342232
-0.336012
-0.329282
-0.322022
-0.317871
-0.388817
-0.373825
-0.365282
-0.359235
-0.35351
-0.347776
-0.341923
-0.335724
-0.329233
-0.324951
-0.39208
-0.378633
-0.370872
-0.365173
-0.359644
-0.354057
-0.348357
-0.342411
-0.336311
-0.331756
-0.398236
-0.38568
-0.3783
-0.37266
-0.36707
-0.361389
-0.355609
-0.349656
-0.343638
-0.338752
-0.407752
-0.395388
-0.387952
-0.382046
-0.376107
-0.370068
-0.363961
-0.357747
-0.351535
-0.346294
-0.420904
-0.408074
-0.400136
-0.393617
-0.387011
-0.380323
-0.373626
-0.36689
-0.360216
-0.354595
-0.351004
-0.278246
-0.216025
-0.138445
-0.0765676
-0.0295073
-0.00152918
0.0117749
0.0149827
0.0130831
0.00953874
0.00622495
0.00376812
0.00215749
0.00117694
0.000613446
0.000307032
0.000152404
6.81123e-05
3.0019e-05
-0.363341
-0.285252
-0.22103
-0.141227
-0.0778369
-0.0301321
-0.00193757
0.0113712
0.0145737
0.012709
0.00922927
0.00598443
0.00358747
0.00202476
0.00108153
0.000546688
0.000262038
0.000123994
5.25121e-05
2.65628e-05
-0.377538
-0.293133
-0.227273
-0.145596
-0.0806457
-0.03204
-0.00323917
0.0104201
0.0138632
0.0121796
0.00884295
0.00570645
0.00338843
0.00188282
0.000981504
0.000477655
0.000215828
9.47835e-05
3.63658e-05
2.28165e-05
-0.393182
-0.301684
-0.23446
-0.151361
-0.0848719
-0.0351598
-0.00540234
0.00893409
0.0128558
0.0114971
0.00838091
0.00539161
0.00317138
0.00173193
0.000877007
0.000406405
0.000168454
6.48817e-05
1.97884e-05
1.881e-05
-0.409828
-0.310781
-0.242287
-0.158276
-0.0903362
-0.0393709
-0.00836371
0.00694183
0.0115629
0.0106659
0.00784483
0.00504056
0.00293661
0.00157226
0.000768121
0.000332951
0.000119939
3.43638e-05
2.88121e-06
1.45764e-05
-0.426943
-0.320356
-0.250443
-0.166038
-0.0967957
-0.0444973
-0.0120204
0.00449565
0.0100081
0.00969636
0.00723938
0.00465534
0.00268504
0.00140426
0.000655028
0.00025735
7.03334e-05
3.30792e-06
-1.4264e-05
1.01423e-05
-0.444013
-0.330668
-0.258916
-0.174542
-0.104158
-0.0504618
-0.016324
0.00162176
0.00820436
0.00859534
0.00656842
0.00423831
0.00241812
0.00122879
0.000538261
0.000179909
1.97937e-05
-2.82157e-05
-3.16243e-05
5.49741e-06
-0.460746
-0.34286
-0.268579
-0.184423
-0.112922
-0.0576211
-0.0215121
-0.001827
0.00606617
0.00731699
0.0058099
0.00378039
0.002133
0.00104559
0.000418308
0.00010116
-3.13167e-05
-6.00219e-05
-4.91289e-05
6.5019e-07
-0.474702
-0.357107
-0.279752
-0.195839
-0.12319
-0.0660771
-0.0277047
-0.00597463
0.00348582
0.00578222
0.00491365
0.00325339
0.00181537
0.000847905
0.000292152
1.9804e-05
-8.35418e-05
-9.23199e-05
-6.68516e-05
-4.44399e-06
-0.474606
-0.3657
-0.286577
-0.203407
-0.130433
-0.0724841
-0.0327182
-0.00954741
0.00113387
0.00431033
0.00401373
0.00270222
0.001472
0.000629545
0.000151584
-7.05842e-05
-0.000140875
-0.000127102
-8.56016e-05
-1.00966e-05
-0.450713
-0.363337
-0.285556
-0.204022
-0.13185
-0.0744209
-0.034535
-0.0109449
0.000183397
0.00365954
0.00351884
0.00229103
0.00112912
0.000357777
-4.99315e-05
-0.000210488
-0.000232197
-0.000182075
-0.000114557
-1.90894e-05
-0.42241
-0.348434
-0.274173
-0.199352
-0.132678
-0.0787249
-0.0400859
-0.0162144
-0.00402412
0.000661954
0.00153522
0.00102952
0.00033896
-0.000136176
-0.000358793
-0.000402682
-0.000349899
-0.000250992
-0.000150313
-2.95366e-05
-0.385781
-0.323925
-0.256036
-0.190371
-0.131398
-0.0823414
-0.0458417
-0.0221407
-0.00901249
-0.00302547
-0.00095844
-0.000565738
-0.000652251
-0.000745057
-0.000731503
-0.000629986
-0.000486808
-0.000330275
-0.000191028
-4.14136e-05
-0.33872
-0.292016
-0.234151
-0.178759
-0.12846
-0.0851235
-0.0513555
-0.0281694
-0.0142697
-0.00702398
-0.00373263
-0.00238167
-0.00180223
-0.0014608
-0.00117246
-0.000899041
-0.000648219
-0.000423175
-0.000238308
-5.53767e-05
-0.285724
-0.255114
-0.21009
-0.165364
-0.123925
-0.086848
-0.0564119
-0.0341742
-0.0197485
-0.011337
-0.00681118
-0.00444201
-0.00312744
-0.00229286
-0.00168638
-0.00121187
-0.000834852
-0.000529884
-0.000292141
-7.1397e-05
-0.234191
-0.217022
-0.18537
-0.151139
-0.11809
-0.0873036
-0.0606283
-0.0398116
-0.0252059
-0.0158204
-0.010122
-0.00671492
-0.00461401
-0.00323454
-0.00226944
-0.00156596
-0.00104495
-0.000649251
-0.000351868
-8.92552e-05
-0.189552
-0.181584
-0.161582
-0.137002
-0.111492
-0.0865255
-0.0636986
-0.0446782
-0.0302769
-0.0201954
-0.0134797
-0.00909008
-0.00620002
-0.00425157
-0.00290256
-0.00195047
-0.0012723
-0.000777744
-0.000415701
-0.000108406
-0.1542
-0.151738
-0.140453
-0.123919
-0.104812
-0.084839
-0.0655524
-0.0484677
-0.0345915
-0.0241238
-0.0166187
-0.0113829
-0.00776749
-0.00527192
-0.00354281
-0.00234028
-0.00150241
-0.00090731
-0.000479679
-0.00012765
-0.129094
-0.129566
-0.123917
-0.113211
-0.0989847
-0.0828546
-0.0663977
-0.0510371
-0.0378178
-0.0272252
-0.0191934
-0.0133215
-0.0091243
-0.00616935
-0.00411126
-0.0026879
-0.0017077
-0.00102265
-0.000536331
-0.000144737
-0.115199
-0.116946
-0.114159
-0.10668
-0.0952942
-0.0814267
-0.0666589
-0.052389
-0.039658
-0.0290705
-0.020769
-0.0145344
-0.00998858
-0.00674842
-0.00448107
-0.00291511
-0.00184211
-0.00109819
-0.000573171
-0.000155859
-0.484011
-0.499491
-0.509752
-0.515276
-0.516848
-0.515653
-0.513438
-0.512768
-0.518226
-0.541905
-0.397191
-0.412187
-0.424278
-0.433958
-0.441898
-0.448915
-0.455887
-0.463584
-0.471894
-0.486466
-0.325391
-0.338986
-0.351035
-0.361746
-0.371294
-0.379792
-0.387291
-0.39396
-0.399764
-0.41017
-0.264086
-0.275549
-0.285932
-0.2953
-0.303728
-0.31133
-0.318291
-0.324925
-0.331311
-0.339737
-0.212793
-0.222291
-0.231062
-0.239155
-0.24663
-0.253557
-0.260002
-0.26603
-0.271607
-0.277447
-0.170929
-0.178739
-0.186023
-0.192794
-0.199071
-0.204873
-0.210224
-0.215155
-0.219691
-0.224015
-0.137617
-0.144004
-0.14998
-0.155547
-0.160708
-0.165473
-0.169855
-0.173868
-0.177525
-0.180852
-0.112314
-0.117599
-0.122548
-0.127154
-0.131415
-0.13533
-0.138903
-0.142141
-0.14505
-0.147642
-0.0946389
-0.0991387
-0.10335
-0.107262
-0.11087
-0.114168
-0.117158
-0.119842
-0.122223
-0.124309
-0.0850144
-0.0890442
-0.0928134
-0.0963128
-0.0995361
-0.102478
-0.105138
-0.107516
-0.109614
-0.111434
-0.0374356
-0.103306
-0.167973
-0.22461
-0.27643
-0.324079
-0.366871
-0.4044
-0.436496
-0.463046
-0.0555675
-0.106575
-0.155531
-0.197363
-0.235331
-0.27076
-0.303126
-0.331981
-0.35724
-0.378945
-0.0665048
-0.107198
-0.143122
-0.173682
-0.201519
-0.227579
-0.251589
-0.273293
-0.292725
-0.310036
-0.0706205
-0.102016
-0.127142
-0.148591
-0.168775
-0.188011
-0.205972
-0.222501
-0.237637
-0.251473
-0.0684307
-0.0914842
-0.108889
-0.124
-0.138784
-0.153198
-0.166844
-0.179592
-0.191472
-0.20253
-0.0615586
-0.0779685
-0.0903816
-0.101517
-0.112674
-0.123707
-0.134274
-0.144266
-0.153696
-0.162582
-0.0528685
-0.0645712
-0.0738555
-0.0824763
-0.091164
-0.0997874
-0.108116
-0.116068
-0.123637
-0.130824
-0.0445012
-0.0531106
-0.0604329
-0.0674147
-0.0744191
-0.0813596
-0.0880998
-0.0945818
-0.100788
-0.106705
-0.0377888
-0.0445346
-0.0506817
-0.0566347
-0.0625528
-0.0683908
-0.0740744
-0.0795623
-0.084832
-0.0898642
-0.0337925
-0.0396984
-0.0453308
-0.0508017
-0.0561783
-0.0614433
-0.0665572
-0.0714905
-0.0762226
-0.0807359
0.20427
0.205168
0.207401
0.210413
0.214487
0.217288
0.219082
0.208484
0.183651
0.0769367
0.195754
0.196201
0.197376
0.198651
0.199886
0.198614
0.193916
0.174969
0.136849
0.03644
0.185632
0.185609
0.185648
0.185062
0.183392
0.178211
0.16791
0.143742
0.100733
0.017323
0.173786
0.173251
0.17208
0.169579
0.165039
0.156357
0.141503
0.114771
0.0708301
0.00101532
0.160285
0.159236
0.156889
0.152597
0.14553
0.134093
0.116182
0.0887697
0.0466056
-0.0120291
0.145457
0.143945
0.140581
0.134808
0.125829
0.112586
0.093272
0.0666255
0.0285897
-0.0195503
0.13
0.128127
0.12401
0.117207
0.107083
0.0930296
0.0737928
0.0490636
0.0164499
-0.0221825
0.115084
0.112985
0.108436
0.101106
0.0905822
0.0765819
0.0584397
0.0362595
0.0090013
-0.0218392
0.10244
0.100245
0.0955524
0.0881172
0.077724
0.0642986
0.0476085
0.0278931
0.00490667
-0.0203044
0.0944724
0.0922609
0.0875799
0.0802334
0.0701204
0.0572707
0.0416722
0.023592
0.00312662
-0.0189511
0.241446
0.24349
0.249009
0.257605
0.271087
0.289002
0.315913
0.350712
0.403305
0.471174
0.238755
0.240724
0.246043
0.254298
0.267261
0.284339
0.309995
0.342657
0.391599
0.453358
0.235838
0.237727
0.242825
0.250701
0.263077
0.27918
0.303365
0.33335
0.377758
0.431239
0.232706
0.234513
0.239372
0.246834
0.258559
0.273557
0.296067
0.322844
0.361919
0.404919
0.229373
0.231097
0.235702
0.242722
0.253733
0.267509
0.288149
0.311205
0.34425
0.374489
0.225856
0.227498
0.231837
0.238387
0.248625
0.261075
0.279653
0.298508
0.324928
0.340009
0.222171
0.223737
0.227804
0.233869
0.243283
0.254328
0.270661
0.284894
0.304184
0.301554
0.218338
0.219845
0.22365
0.229234
0.237804
0.247415
0.261359
0.270636
0.282319
0.259112
0.214371
0.215831
0.219379
0.224485
0.232182
0.240329
0.251704
0.25571
0.259077
0.211486
0.210259
0.211601
0.21477
0.21923
0.225766
0.232115
0.240268
0.238556
0.232109
0.156984
0.254742
0.257175
0.263295
0.272981
0.287574
0.306514
0.333121
0.361885
0.400208
0.40995
0.254509
0.256949
0.263181
0.273018
0.287979
0.30753
0.335586
0.367223
0.411504
0.437885
0.254041
0.256455
0.262689
0.272501
0.287514
0.307222
0.335889
0.369373
0.417601
0.457767
0.253341
0.255727
0.261951
0.271731
0.286774
0.306626
0.335798
0.370948
0.422578
0.473792
0.252399
0.254756
0.260958
0.270692
0.285736
0.305691
0.335241
0.371787
0.426203
0.486117
0.251207
0.25353
0.259685
0.269338
0.284313
0.304265
0.333971
0.371482
0.427886
0.49436
0.249761
0.252044
0.258124
0.267653
0.282481
0.302302
0.331923
0.369918
0.427451
0.498408
0.248061
0.250294
0.256273
0.265634
0.280239
0.299796
0.329094
0.367076
0.424828
0.498185
0.246105
0.248283
0.254134
0.263283
0.277588
0.296743
0.325481
0.362934
0.419949
0.493602
0.243898
0.246013
0.25171
0.260604
0.274535
0.293142
0.321084
0.357478
0.412772
0.484602
0.214017
0.212699
0.209888
0.205413
0.199066
0.190641
0.17985
0.166537
0.150394
0.131592
0.218667
0.217537
0.215094
0.21112
0.205324
0.197387
0.186845
0.173396
0.156445
0.136102
0.225603
0.224814
0.223057
0.220065
0.215424
0.208623
0.198911
0.185646
0.167704
0.144933
0.233059
0.232734
0.231952
0.230407
0.227594
0.222756
0.214834
0.202577
0.184137
0.158577
0.239893
0.240108
0.240507
0.240774
0.240399
0.238376
0.233454
0.223447
0.205793
0.177655
0.245499
0.24627
0.247935
0.250208
0.252691
0.254184
0.253497
0.247216
0.232432
0.202618
0.249671
0.250961
0.253861
0.258147
0.263649
0.269093
0.273659
0.27258
0.263225
0.233235
0.252463
0.2542
0.258217
0.264365
0.27279
0.282304
0.292749
0.298218
0.296745
0.267786
0.254068
0.25616
0.261119
0.268859
0.279889
0.293251
0.309659
0.322814
0.33157
0.30454
0.25474
0.25707
0.262752
0.271713
0.284867
0.301522
0.323551
0.345074
0.367858
0.350332
0.118027
0.112334
0.106529
0.100696
0.0948156
0.0888817
0.0829118
0.0769313
0.0709633
0.0650288
0.120942
0.114541
0.108017
0.101521
0.0949773
0.0883484
0.0816537
0.0749298
0.0682088
0.061517
0.127003
0.119089
0.110959
0.103049
0.0951848
0.0872337
0.0792005
0.0711383
0.0630902
0.0550852
0.136932
0.126665
0.115927
0.105794
0.0959327
0.0860087
0.0759865
0.0659458
0.0559475
0.0460197
0.151664
0.138126
0.12355
0.110229
0.0976013
0.084972
0.0722253
0.0594873
0.0468467
0.0343246
0.172247
0.154486
0.13456
0.11688
0.100588
0.0844054
0.0680928
0.0518588
0.0358302
0.0200077
0.199698
0.176912
0.149901
0.126491
0.105445
0.0846392
0.0637345
0.0430819
0.0228386
0.00296228
0.23408
0.205623
0.169867
0.139478
0.112443
0.0856973
0.0590288
0.0329812
0.00769159
-0.0169472
0.275273
0.240115
0.19489
0.156852
0.122317
0.0880094
0.054256
0.0217198
-0.00946456
-0.0393251
0.321848
0.277927
0.224498
0.177509
0.132849
0.0890586
0.0469622
0.00707748
-0.0303963
-0.0652881
0.0591476
0.0533387
0.0476202
0.0420088
0.0365203
0.0311687
0.0259662
0.0209234
0.0160502
0.0113557
0.0548798
0.0483214
0.0418654
0.0355338
0.0293461
0.02332
0.017471
0.0118121
0.00635486
0.00112498
0.0471482
0.0393035
0.0315748
0.0239837
0.0165494
0.00928843
0.0022153
-0.00465895
-0.0113253
-0.017714
0.0361811
0.0264503
0.0168469
0.00738752
-0.00191441
-0.0110488
-0.0200081
-0.0287886
-0.0373931
-0.0457041
0.0219228
0.00964642
-0.00249654
-0.0145002
-0.026363
-0.0380877
-0.0496821
-0.0611626
-0.072568
-0.083939
0.00436355
-0.0111213
-0.0264632
-0.041687
-0.0568281
-0.0719274
-0.0870239
-0.102143
-0.117335
-0.133311
-0.0166127
-0.0359263
-0.0550096
-0.0739032
-0.0926705
-0.111412
-0.130276
-0.149407
-0.169128
-0.191192
-0.0410522
-0.0647192
-0.088039
-0.111085
-0.133897
-0.156491
-0.178904
-0.201226
-0.224651
-0.251702
-0.0679039
-0.0952948
-0.121695
-0.147399
-0.172772
-0.198211
-0.224084
-0.25072
-0.280288
-0.31213
-0.0974751
-0.126933
-0.153829
-0.178566
-0.201812
-0.224523
-0.247859
-0.2734
-0.307008
-0.350927
0.000338776
-0.0145239
-0.0262434
-0.0336329
-0.0360762
-0.0338495
-0.0281654
-0.0208029
-0.0134651
-0.00732976
-0.00292048
-0.000194388
0.00121216
0.00173122
0.00173006
0.00147117
0.00111959
0.000757394
0.000430061
0.00011314
-0.0116203
-0.0271676
-0.0380532
-0.0437016
-0.0439026
-0.0392212
-0.0312376
-0.0220699
-0.0135783
-0.00689777
-0.00236788
0.000266006
0.00151748
0.00189686
0.00179939
0.00148629
0.00111071
0.000743049
0.000419591
0.000110383
-0.0336535
-0.0500006
-0.058968
-0.0612613
-0.0572967
-0.0481434
-0.036086
-0.0238399
-0.0134893
-0.00601645
-0.00138417
0.0010375
0.00200711
0.00215224
0.00190095
0.0015045
0.00109359
0.000719036
0.000402144
0.000106099
-0.0655237
-0.0820073
-0.0877029
-0.084884
-0.0747195
-0.0591796
-0.0415955
-0.0254161
-0.0128936
-0.00465251
-6.68029e-05
0.00199293
0.0025766
0.00243083
0.00200078
0.00151289
0.00106618
0.000687157
0.000379828
0.000100774
-0.105961
-0.121252
-0.122654
-0.11296
-0.0945598
-0.0709957
-0.0468544
-0.0263232
-0.0116603
-0.0028685
0.00145658
0.00301358
0.00314414
0.00268706
0.00207838
0.00150508
0.00102852
0.000649481
0.000354504
9.48094e-05
-0.150593
-0.163488
-0.160366
-0.142269
-0.114285
-0.0819362
-0.0509678
-0.0262378
-0.00979771
-0.000795966
0.00304844
0.00400131
0.00365436
0.00289532
0.00212478
0.00147992
0.000982426
0.000608231
0.000327745
8.85318e-05
-0.191911
-0.2028
-0.195239
-0.167895
-0.13052
-0.0900163
-0.0530214
-0.0249327
-0.00738439
0.00141943
0.00459368
0.0048905
0.00407819
0.00304625
0.00213927
0.00143969
0.000930552
0.000565483
0.000300809
8.22065e-05
-0.224136
-0.234495
-0.222042
-0.185974
-0.140954
-0.0940067
-0.0525987
-0.022425
-0.00455367
0.00367335
0.00604587
0.00567456
0.00442523
0.00315209
0.00213184
0.00139126
0.000877167
0.000523651
0.000274928
7.61338e-05
-0.249586
-0.257281
-0.238882
-0.19598
-0.145632
-0.0942044
-0.0501253
-0.0190613
-0.00149669
0.00590406
0.00741598
0.0063887
0.00472892
0.00323666
0.00211725
0.00134298
0.000826737
0.000484955
0.000251138
7.06081e-05
-0.277437
-0.271509
-0.245512
-0.197541
-0.143939
-0.0902062
-0.0455079
-0.0149696
0.00152366
0.0078099
0.00844077
0.00684294
0.0048703
0.00323267
0.00205986
0.00127685
0.000770512
0.0004455
0.000227958
6.51306e-05
-0.307739
-0.274396
-0.241385
-0.189645
-0.134804
-0.0816128
-0.0390648
-0.0110448
0.00333335
0.00825825
0.00823377
0.00644763
0.0045055
0.00295982
0.00187316
0.00115496
0.000693764
0.000400823
0.000204782
5.90707e-05
-0.3217
-0.273395
-0.236302
-0.181528
-0.125903
-0.0733729
-0.0327556
-0.00689633
0.00567505
0.00938431
0.00867221
0.00655619
0.00448161
0.00289658
0.00180855
0.00110203
0.000655227
0.000376018
0.000191011
5.56086e-05
-0.325622
-0.270589
-0.230701
-0.173154
-0.117015
-0.0653602
-0.0267425
-0.00298352
0.00789822
0.0104977
0.00915571
0.00672294
0.00450577
0.00286581
0.00176352
0.00105993
0.000622301
0.000353788
0.000178314
5.26533e-05
-0.325767
-0.267712
-0.225297
-0.165244
-0.108788
-0.058148
-0.021497
0.000322669
0.00970803
0.0113593
0.00949788
0.0068152
0.00449277
0.00281738
0.00171041
0.00101424
0.000587819
0.000330922
0.000165422
4.98061e-05
-0.325165
-0.2654
-0.220203
-0.157696
-0.100969
-0.0514121
-0.0167149
0.00324938
0.0112477
0.0120478
0.00973717
0.00684949
0.00444846
0.0027526
0.00164897
0.000964386
0.000551346
0.000307179
0.000152228
4.70057e-05
-0.324843
-0.263977
-0.215798
-0.150825
-0.0937524
-0.045229
-0.0123908
0.00583437
0.0125603
0.0126001
0.00990102
0.00684399
0.00438372
0.00267744
0.00158225
0.000911865
0.000513573
0.000282852
0.000138839
4.42584e-05
-0.325629
-0.263765
-0.212535
-0.145069
-0.08749
-0.0398402
-0.0086606
0.00801153
0.0136191
0.0130081
0.00998856
0.00679993
0.00429993
0.00259288
0.00151087
0.000857006
0.000474669
0.000258019
0.000125285
4.15492e-05
-0.328283
-0.265035
-0.21078
-0.140776
-0.0824703
-0.0354475
-0.00563862
0.00972519
0.0144007
0.0132625
0.00999611
0.0067157
0.00419633
0.00249861
0.00143465
0.000799727
0.000434591
0.000232654
0.000111547
3.8847e-05
-0.333307
-0.267919
-0.210756
-0.13818
-0.0789011
-0.0321986
-0.00340596
0.0109396
0.0148931
0.0133602
0.00992313
0.00659131
0.00407292
0.00239453
0.00135355
0.000740012
0.000393298
0.000206658
9.75196e-05
3.60805e-05
-0.340903
-0.272382
-0.212533
-0.1374
-0.0769155
-0.030199
-0.00202299
0.0116289
0.0150888
0.0133005
0.00977042
0.0064275
0.00393006
0.00228078
0.00126762
0.0006779
0.00035078
0.000179934
8.30802e-05
3.31659e-05
)
;

boundaryField
{
    inlet
    {
        type            freestreamPressure;
        freestreamValue uniform 0;
        supersonic      false;
        value           nonuniform List<scalar> 
40
(
0.20427
0.195754
0.185632
0.173786
0.160285
0.145457
0.13
0.115084
0.10244
0.0944724
0.241446
0.238755
0.235838
0.232706
0.229373
0.225856
0.222171
0.218338
0.214371
0.210259
0.254742
0.254509
0.254041
0.253341
0.252399
0.251207
0.249761
0.248061
0.246105
0.243898
0.214017
0.218667
0.225603
0.233059
0.239893
0.245499
0.249671
0.252463
0.254068
0.25474
)
;
    }
    outlet
    {
        type            freestreamPressure;
        freestreamValue uniform 0;
        supersonic      false;
        value           nonuniform List<scalar> 
40
(
-2.78983e-12
-3.94458e-12
-4.91572e-12
-5.63215e-12
-5.90703e-12
-5.57858e-12
-4.58705e-12
-3.05713e-12
-1.37132e-12
-1.7424e-13
5.93268e-12
5.13755e-12
4.31169e-12
3.46843e-12
2.61856e-12
1.77226e-12
9.32958e-13
1.07011e-13
-7.08358e-13
-1.55566e-12
1.31147e-11
1.23082e-11
1.15914e-11
1.08867e-11
1.01833e-11
9.48552e-12
8.79364e-12
8.1046e-12
7.40689e-12
6.68627e-12
5.36501e-13
4.00756e-12
8.48013e-12
1.22845e-11
1.48078e-11
1.60754e-11
1.63683e-11
1.60309e-11
1.5376e-11
1.44457e-11
)
;
    }
    top
    {
        type            symmetryPlane;
    }
    bottom
    {
        type            symmetryPlane;
    }
    cylinder
    {
        type            zeroGradient;
    }
    frontandback
    {
        type            empty;
    }
}


// ************************************************************************* //
