/*--------------------------------*- C++ -*----------------------------------*\
| =========                 |                                                 |
| \\      /  F ield         | OpenFOAM: The Open Source CFD Toolbox           |
|  \\    /   O peration     | Version:  v1912                                 |
|   \\  /    A nd           | Website:  www.openfoam.com                      |
|    \\/     M anipulation  |                                                 |
\*---------------------------------------------------------------------------*/
FoamFile
{
    version     2.0;
    format      ascii;
    class       volVectorField;
    location    "69.5";
    object      U;
}
// * * * * * * * * * * * * * * * * * * * * * * * * * * * * * * * * * * * * * //

dimensions      [0 1 -1 0 0 0 0];


internalField   nonuniform List<vector> 
9600
(
(0.456545 -9.36161 -1.54173e-19)
(0.15977 -8.63234 0)
(0.242038 -8.15953 -9.05388e-20)
(0.320874 -7.84048 0)
(0.38827 -7.60546 0)
(0.456751 -7.41092 -3.18597e-20)
(0.522335 -7.2328 -5.50632e-22)
(0.581882 -7.05886 2.66345e-20)
(0.634617 -6.88375 0)
(0.68057 -6.70602 -4.51627e-20)
(0.720133 -6.52632 0)
(0.753931 -6.34617 -1.8309e-21)
(0.782703 -6.1674 -2.60774e-21)
(0.807206 -5.99168 -3.15619e-20)
(0.828165 -5.82043 2.66201e-20)
(0.846234 -5.6546 -2.61534e-20)
(0.861965 -5.49468 2.32872e-20)
(0.875905 -5.34058 0)
(0.888836 -5.19156 -1.85255e-20)
(0.900487 -5.04607 2.03068e-20)
(0.824478 -9.35123 -3.08449e-19)
(0.502231 -8.66047 1.17573e-20)
(0.567701 -8.20389 1.86498e-19)
(0.635039 -7.89435 -1.58971e-19)
(0.693433 -7.66394 1.56777e-19)
(0.75388 -7.46989 0)
(0.811595 -7.28947 6.07692e-20)
(0.8631 -7.11152 -6.06309e-20)
(0.907546 -6.93151 -1.05171e-19)
(0.945022 -6.74858 1.33031e-19)
(0.97603 -6.56377 -8.63727e-20)
(1.00132 -6.37886 -3.52663e-20)
(1.02174 -6.19582 7.11834e-20)
(1.03814 -6.0164 0)
(1.0513 -5.84203 0)
(1.06193 -5.67366 9.97939e-20)
(1.07057 -5.51175 -1.69198e-19)
(1.07779 -5.35614 0)
(1.08446 -5.20598 0)
(1.09004 -5.05961 -7.82145e-20)
(1.19276 -9.32732 6.37298e-19)
(0.846964 -8.67574 0)
(0.896924 -8.23557 -3.77377e-19)
(0.953503 -7.93565 -3.42065e-19)
(1.0032 -7.70981 0)
(1.05559 -7.51622 5.467e-19)
(1.1052 -7.3335 -5.16141e-19)
(1.14832 -7.15165 1.01181e-19)
(1.18407 -6.96694 -2.25248e-19)
(1.21265 -6.77909 -3.74623e-19)
(1.23471 -6.58951 5.1142e-19)
(1.25113 -6.40023 -3.16214e-19)
(1.26289 -6.21334 -1.41725e-19)
(1.27092 -6.03065 0)
(1.27608 -5.85359 5.52973e-21)
(1.27909 -5.6831 1.05188e-19)
(1.28052 -5.51959 4.54746e-20)
(1.28094 -5.36288 0)
(1.28129 -5.21196 8.24371e-20)
(1.28071 -5.06514 8.44893e-20)
(1.56027 -9.2895 -8.62191e-19)
(1.19338 -8.67787 -4.04054e-19)
(1.22915 -8.25437 3.91905e-19)
(1.2757 -7.96406 6.7356e-19)
(1.31698 -7.74272 -3.2692e-19)
(1.36128 -7.54953 5.80686e-21)
(1.40255 -7.36455 2.53882e-19)
(1.43691 -7.17894 2.29967e-19)
(1.46356 -6.98977 4.21201e-19)
(1.48285 -6.79732 0)
(1.49558 -6.60336 1.62283e-19)
(1.50281 -6.41014 -1.7222e-19)
(1.50562 -6.21985 1.03542e-20)
(1.50506 -6.03434 2.71502e-19)
(1.50203 -5.85503 2.32776e-19)
(1.49729 -5.68284 -3.28604e-19)
(1.49141 -5.51816 1.08219e-19)
(1.48498 -5.36074 -1.76225e-19)
(1.47899 -5.20946 1.75393e-19)
(1.47217 -5.06261 -8.45332e-20)
(1.92671 -9.23772 4.34827e-19)
(1.54119 -8.6667 0)
(1.56397 -8.26001 3.84888e-19)
(1.60113 -7.97924 0)
(1.63423 -7.76231 0)
(1.67035 -7.56948 -3.0049e-19)
(1.70301 -7.38231 -5.37655e-19)
(1.72826 -7.1931 -4.55894e-19)
(1.74542 -6.99975 1.84515e-20)
(1.75502 -6.80306 -1.97016e-19)
(1.75808 -6.60515 0)
(1.7558 -6.40845 -1.62695e-19)
(1.74942 -6.21523 -2.93091e-19)
(1.74006 -6.02737 2.57759e-19)
(1.72868 -5.84627 -7.32547e-19)
(1.71608 -5.67283 1.18551e-19)
(1.70282 -5.50739 9.39742e-20)
(1.68952 -5.34966 -1.93777e-19)
(1.6772 -5.19841 -8.4672e-20)
(1.6641 -5.05197 2.52491e-19)
(2.29154 -9.17187 4.19606e-19)
(1.8899 -8.64201 4.16163e-19)
(1.90087 -8.25221 0)
(1.92923 -7.98087 0)
(1.95434 -7.76824 -6.24677e-19)
(1.98218 -7.57574 3.41397e-19)
(2.00594 -7.38647 8.21676e-19)
(2.02172 -7.19389 0)
(2.029 -6.99668 2.17158e-19)
(2.02855 -6.79615 1.97016e-19)
(2.0216 -6.59474 -3.48091e-19)
(2.00955 -6.39505 5.0479e-19)
(1.99374 -6.1994 1.48134e-19)
(1.97541 -6.00968 0)
(1.95557 -5.82727 1.23323e-19)
(1.93502 -5.65302 5.53612e-19)
(1.91433 -5.48726 -3.29881e-19)
(1.89415 -5.32962 3.70702e-19)
(1.87554 -5.17878 -7.04927e-19)
(1.85616 -5.0332 8.14921e-19)
(2.65423 -9.09195 4.2676e-19)
(2.23899 -8.60359 -2.25981e-18)
(2.23931 -8.23069 0)
(2.25941 -7.96866 0)
(2.27668 -7.7602 0)
(2.29611 -7.56804 -6.06005e-19)
(2.31069 -7.37679 0)
(2.31662 -7.18109 -9.7141e-19)
(2.31365 -6.98037 8.96054e-19)
(2.3028 -6.77645 -8.32247e-19)
(2.28554 -6.57204 0)
(2.26346 -6.36987 0)
(2.23804 -6.17232 0)
(2.2106 -5.98125 -2.81635e-19)
(2.18219 -5.79801 0)
(2.15364 -5.6234 0)
(2.12551 -5.45773 -4.13417e-19)
(2.09846 -5.30059 4.06195e-19)
(2.07361 -5.15057 0)
(2.04799 -5.0063 0)
(3.01424 -8.99794 -1.38834e-18)
(2.58792 -8.55128 8.99685e-19)
(2.5787 -8.19521 0)
(2.59106 -7.94232 0)
(2.6006 -7.73794 0)
(2.61147 -7.54611 5.76408e-19)
(2.61656 -7.35305 -5.78165e-19)
(2.61229 -7.15452 -8.89995e-21)
(2.59871 -6.9507 -8.97203e-19)
(2.57714 -6.74387 8.40079e-19)
(2.5493 -6.53697 -3.79006e-19)
(2.51697 -6.33287 6.59075e-19)
(2.48177 -6.13395 -4.64232e-20)
(2.4451 -5.94206 -5.96252e-19)
(2.40805 -5.75847 -5.0257e-19)
(2.37146 -5.58397 4.9376e-19)
(2.33588 -5.41883 0)
(2.30202 -5.26259 0)
(2.271 -5.11377 3.57339e-19)
(2.23919 -4.97127 -3.93235e-19)
(3.37099 -8.88988 9.27923e-19)
(2.93613 -8.48494 8.83932e-19)
(2.91846 -8.14556 -1.67546e-18)
(2.92353 -7.90161 7.91451e-19)
(2.92543 -7.70119 0)
(2.92756 -7.50976 6.16789e-19)
(2.92286 -7.31507 -5.41501e-19)
(2.90805 -7.11405 1.53036e-18)
(2.88351 -6.90757 -2.37011e-20)
(2.85091 -6.69832 0)
(2.81224 -6.48949 7.64703e-19)
(2.76948 -6.28402 0)
(2.72438 -6.0843 0)
(2.67838 -5.89212 -2.72781e-19)
(2.63265 -5.70869 5.50161e-19)
(2.588 -5.53475 0)
(2.545 -5.37056 4.31571e-19)
(2.50437 -5.21563 1.79677e-19)
(2.46728 -5.0684 -3.89824e-19)
(2.42938 -4.92814 3.78531e-19)
(3.72395 -8.76783 -9.55764e-19)
(3.28301 -8.40446 8.98359e-19)
(3.25796 -8.08155 -2.55861e-18)
(3.25618 -7.84634 8.04588e-19)
(3.25049 -7.64978 0)
(3.24369 -7.4588 -1.24496e-18)
(3.22889 -7.26273 5.98069e-19)
(3.20318 -7.05958 0)
(3.16737 -6.8509 -4.74878e-19)
(3.12347 -6.63979 -8.23696e-19)
(3.07376 -6.4296 -7.17793e-19)
(3.02041 -6.22335 5.34643e-20)
(2.96529 -6.02339 6.71355e-19)
(2.90992 -5.83145 2.72557e-19)
(2.85547 -5.64869 -3.79586e-20)
(2.80278 -5.47578 -5.13263e-19)
(2.75237 -5.31297 -2.29578e-19)
(2.70504 -5.15974 -2.06983e-19)
(2.66198 -5.01448 5.52171e-19)
(2.61812 -4.87693 -8.22779e-19)
(4.07255 -8.63188 9.55766e-19)
(3.62798 -8.30977 -4.66564e-20)
(3.59655 -8.00305 8.22494e-19)
(3.58831 -7.77633 0)
(3.57505 -7.58354 -6.81011e-19)
(3.55912 -7.3931 1.30858e-18)
(3.53391 -7.19591 -1.11865e-18)
(3.49699 -6.99104 1.10083e-18)
(3.44961 -6.78068 -4.46097e-19)
(3.39418 -6.56826 9.05557e-19)
(3.33324 -6.35731 3.92178e-19)
(3.26917 -6.15087 0)
(3.20396 -5.95125 0)
(3.13917 -5.76012 -2.82615e-19)
(3.076 -5.57852 3.83771e-20)
(3.01527 -5.40711 1.01076e-18)
(2.95751 -5.24609 -2.50067e-19)
(2.90356 -5.09495 8.25982e-19)
(2.85464 -4.95205 1.44583e-19)
(2.80495 -4.8177 -8.40329e-19)
(4.41622 -8.48212 -2.94097e-18)
(3.97043 -8.20083 -9.87292e-19)
(3.9336 -7.90994 -2.63277e-18)
(3.91925 -7.69145 -1.60171e-18)
(3.8984 -7.50234 -7.59766e-19)
(3.87313 -7.31258 -7.42575e-19)
(3.83722 -7.11456 -2.42425e-18)
(3.78878 -6.90841 -4.90882e-20)
(3.72956 -6.69689 -1.94813e-18)
(3.66237 -6.48376 3.02297e-20)
(3.59005 -6.27266 -8.08902e-19)
(3.51517 -6.06664 -7.37127e-19)
(3.43981 -5.86795 6.72919e-19)
(3.3656 -5.67817 -6.15418e-19)
(3.29372 -5.49825 -5.63841e-19)
(3.22499 -5.32879 -5.17493e-19)
(3.15991 -5.16999 -1.38955e-18)
(3.0994 -5.02133 4.94353e-19)
(3.04474 -4.88116 1.19978e-18)
(2.9894 -4.75046 -1.27692e-18)
(4.75443 -8.31871 3.95584e-18)
(4.30976 -8.07764 4.86005e-18)
(4.26845 -7.80215 8.34917e-19)
(4.24829 -7.5916 4.0005e-18)
(4.21982 -7.40612 -7.84114e-19)
(4.18499 -7.21717 3.91824e-18)
(4.13809 -7.01867 1.14625e-18)
(4.07784 -6.8117 3.218e-18)
(4.00654 -6.59959 -9.83641e-19)
(3.92741 -6.38634 2.72358e-18)
(3.8436 -6.17571 1.62933e-18)
(3.75783 -5.97072 1.48492e-18)
(3.6723 -5.77356 -2.01046e-18)
(3.58866 -5.58567 1.88337e-18)
(3.5081 -5.40795 1.13638e-18)
(3.4314 -5.2409 1.04319e-18)
(3.35906 -5.08474 9.59264e-19)
(3.29206 -4.93892 7.36914e-21)
(3.23177 -4.80185 8.14332e-19)
(3.17098 -4.67527 8.47474e-19)
(5.08665 -8.1418 -2.93766e-18)
(4.64539 -7.94023 1.08271e-18)
(4.60044 -7.67966 2.67864e-18)
(4.57472 -7.47675 -3.26353e-18)
(4.53858 -7.29483 7.54129e-19)
(4.49396 -7.10688 -2.62144e-18)
(4.43579 -6.90825 1.28483e-18)
(4.36348 -6.70097 -2.15319e-18)
(4.27989 -6.48883 4.9051e-20)
(4.18867 -6.27609 1.1957e-20)
(4.09327 -6.06656 -1.65184e-18)
(3.99658 -5.86321 -7.4779e-19)
(3.90088 -5.66814 1.37506e-18)
(3.80783 -5.4827 8.7654e-21)
(3.71861 -5.30767 -3.72051e-20)
(3.63397 -5.14349 -1.08878e-18)
(3.5544 -4.99037 -4.83519e-19)
(3.48097 -4.84778 -2.71587e-20)
(3.41515 -4.71417 -8.48695e-19)
(3.34914 -4.59224 -4.27988e-19)
(5.41238 -7.95158 0)
(4.97671 -7.78866 -2.00061e-18)
(4.92891 -7.54243 2.37623e-20)
(4.89784 -7.34687 3.2591e-18)
(4.85394 -7.16847 1.36421e-18)
(4.79931 -6.98173 -1.41999e-18)
(4.72961 -6.78338 -1.22336e-18)
(4.64501 -6.57629 0)
(4.54895 -6.36473 -9.73882e-19)
(4.44554 -6.15312 9.29464e-19)
(4.33849 -5.9453 -3.90846e-20)
(4.23087 -5.74419 0)
(4.12501 -5.55179 -6.92236e-19)
(4.02258 -5.36932 5.99642e-19)
(3.92472 -5.19745 5.00992e-19)
(3.83215 -5.03658 -6.0475e-19)
(3.74536 -4.88689 -5.24662e-19)
(3.66548 -4.74788 9.11136e-19)
(3.59414 -4.61812 -8.40884e-19)
(3.52303 -4.50145 4.42601e-19)
(5.73114 -7.74822 3.03518e-18)
(5.30316 -7.62299 -2.06048e-18)
(5.2532 -7.39052 -1.75862e-18)
(5.21694 -7.20199 8.18831e-19)
(5.16517 -7.02711 -1.5886e-18)
(5.10031 -6.84182 0)
(5.01885 -6.64415 0)
(4.92175 -6.43781 0)
(4.8131 -6.22743 -4.44889e-20)
(4.69742 -6.01757 -1.86535e-18)
(4.57871 -5.81208 8.80994e-19)
(4.46018 -5.6138 7.45143e-19)
(4.3442 -5.4246 6.30598e-19)
(4.23243 -5.2456 -2.58766e-18)
(4.12597 -5.07736 1.22679e-18)
(4.02548 -4.92019 0)
(3.9314 -4.77429 -3.04426e-20)
(3.84496 -4.63918 -1.41316e-18)
(3.76793 -4.51361 -5.69943e-21)
(3.69168 -4.40254 -4.43092e-19)
(6.04258 -7.532 -2.06448e-18)
(5.62418 -7.44337 -1.08631e-18)
(5.57263 -7.22397 8.18639e-19)
(5.53129 -7.04217 -1.43943e-19)
(5.47154 -6.87082 -4.63106e-18)
(5.39624 -6.68724 4.19135e-18)
(5.3028 -6.49072 -4.88156e-20)
(5.19305 -6.28568 1.14807e-18)
(5.07171 -6.07709 1.0301e-18)
(4.94374 -5.8696 9.45902e-19)
(4.81339 -5.66704 8.608e-19)
(4.68401 -5.47214 1.53843e-18)
(4.55798 -5.28668 -7.40476e-19)
(4.43696 -5.11162 1.91951e-18)
(4.32196 -4.94744 -1.24093e-18)
(4.21356 -4.79438 -5.1338e-19)
(4.11219 -4.65264 2.06203e-18)
(4.0191 -4.52176 1.37769e-18)
(3.93624 -4.40054 -2.79733e-20)
(3.85506 -4.29483 0)
(6.34667 -7.30341 -1.04971e-18)
(5.93938 -7.24997 2.07603e-18)
(5.88653 -7.04285 1.81766e-18)
(5.84016 -6.86747 -1.45922e-19)
(5.77231 -6.69971 -1.57127e-18)
(5.68635 -6.51815 7.06929e-20)
(5.58076 -6.32327 1.31836e-20)
(5.45825 -6.12011 1.17464e-20)
(5.32419 -5.91392 0)
(5.18395 -5.70942 9.25175e-19)
(5.04203 -5.51035 -1.76094e-18)
(4.90187 -5.31936 -7.53598e-19)
(4.76589 -5.13808 7.48127e-19)
(4.63565 -4.96739 -6.56465e-19)
(4.51213 -4.80767 6.08008e-19)
(4.39582 -4.65915 -5.53517e-19)
(4.28715 -4.52203 4.90131e-21)
(4.18748 -4.3957 -4.70263e-19)
(4.09906 -4.27885 -4.34424e-19)
(4.01372 -4.17918 -4.34722e-19)
(6.64375 -7.06292 0)
(6.24851 -7.04272 -1.01224e-18)
(6.19426 -6.84708 1.00063e-18)
(6.14279 -6.67796 1.7459e-18)
(6.06671 -6.51394 -1.57996e-18)
(5.96994 -6.3348 1.36497e-18)
(5.85207 -6.14207 -2.62455e-18)
(5.71674 -5.9414 -2.33078e-18)
(5.56998 -5.73823 -1.01685e-18)
(5.41756 -5.5373 4.44366e-20)
(5.26421 -5.34226 -8.4208e-19)
(5.11342 -5.15561 3.49358e-20)
(4.96756 -4.97887 0)
(4.82812 -4.81281 -1.28772e-18)
(4.69591 -4.65778 6.57156e-19)
(4.57135 -4.51402 0)
(4.45487 -4.38164 -5.14696e-19)
(4.34807 -4.25978 -9.25395e-19)
(4.25319 -4.14808 9.09294e-19)
(4.16267 -4.05917 4.48866e-19)
(6.93343 -6.80975 0)
(6.55093 -6.82091 0)
(6.49509 -6.63659 -1.85626e-18)
(6.43842 -6.47393 -1.59617e-18)
(6.35405 -6.31391 3.23962e-18)
(6.24638 -6.1376 0)
(6.11615 -5.94757 0)
(5.96802 -5.74999 1.17095e-18)
(5.80865 -5.55045 0)
(5.64424 -5.35365 0)
(5.47968 -5.16312 0)
(5.3185 -4.98121 0)
(5.16302 -4.80926 0)
(5.01453 -4.64791 0)
(4.87362 -4.49744 0)
(4.74039 -4.358 0)
(4.61511 -4.22946 0)
(4.49886 -4.11115 0)
(4.39175 -4.00614 0)
(4.28764 -3.93174 0)
(10.0435 0.087741 1.47378e-19)
(10.023 -0.307649 2.86749e-19)
(9.98721 -0.700361 -2.94506e-19)
(9.93667 -1.09025 5.87186e-19)
(9.87115 -1.47698 -5.87186e-19)
(9.79049 -1.86005 -5.54886e-19)
(9.69482 -2.23891 -5.53337e-19)
(9.58434 -2.61303 1.74262e-18)
(9.45928 -2.98184 -1.16102e-18)
(9.3199 -3.3448 1.15129e-18)
(9.16649 -3.70135 -1.15129e-18)
(8.99936 -4.05098 1.14278e-18)
(8.81882 -4.39315 -2.26623e-18)
(8.62524 -4.72737 3.33735e-18)
(8.41898 -5.05315 0)
(8.20043 -5.37004 -3.27881e-18)
(7.96999 -5.67761 1.63554e-20)
(7.72818 -5.97552 3.30425e-18)
(7.47509 -6.26359 0)
(7.21242 -6.54116 0)
(10.1207 -0.210716 0)
(10.0794 -0.606835 -1.50435e-20)
(10.0213 -0.999152 0)
(9.94717 -1.38733 5.61921e-19)
(9.85713 -1.77094 5.85166e-19)
(9.75142 -2.14938 -1.69367e-18)
(9.63034 -2.52201 2.94858e-18)
(9.49423 -2.88822 -1.16398e-18)
(9.34348 -3.24741 -1.10955e-18)
(9.17847 -3.59898 -1.10502e-18)
(8.99962 -3.94237 4.45765e-20)
(8.80737 -4.27703 1.13216e-18)
(8.60218 -4.60244 -5.62834e-18)
(8.38454 -4.91811 -1.18027e-18)
(8.15493 -5.22356 2.24898e-18)
(7.91387 -5.51838 2.24595e-18)
(7.66183 -5.80216 1.14107e-18)
(7.39939 -6.07458 -2.20034e-18)
(7.12666 -6.33538 1.04199e-18)
(6.84456 -6.58422 0)
(10.0726 -0.149213 1.32718e-19)
(10.0347 -0.540901 -2.71783e-19)
(9.97954 -0.929413 7.84856e-19)
(9.90734 -1.31405 -5.56023e-19)
(9.81853 -1.69417 -5.30157e-19)
(9.71348 -2.06905 5.53509e-19)
(9.59256 -2.43797 0)
(9.45616 -2.80024 0)
(9.30471 -3.15518 2.10171e-18)
(9.13866 -3.50215 3.13537e-18)
(8.95849 -3.84054 -9.91662e-19)
(8.76468 -4.16976 3.10036e-18)
(8.55776 -4.48923 -9.87488e-19)
(8.33827 -4.79843 -3.01979e-18)
(8.10675 -5.09686 1.36265e-20)
(7.86379 -5.38404 1.9384e-18)
(7.6099 -5.65953 -8.7496e-19)
(7.34569 -5.92295 -1.90701e-18)
(7.07149 -6.1739 -1.03004e-18)
(6.78804 -6.41189 1.87418e-18)
(9.90657 -0.112489 0)
(9.87554 -0.49495 2.29142e-19)
(9.82724 -0.875064 2.28201e-19)
(9.76185 -1.25193 -9.37526e-19)
(9.67968 -1.62475 0)
(9.5811 -1.99275 0)
(9.46645 -2.35516 0)
(9.33611 -2.71123 0)
(9.19051 -3.06026 -9.9208e-19)
(9.03007 -3.40154 -9.88312e-19)
(8.85529 -3.73441 0)
(8.66666 -4.05823 1.86859e-18)
(8.46472 -4.3724 -4.61993e-18)
(8.25001 -4.67632 3.71483e-18)
(8.02312 -4.96946 -3.60065e-18)
(7.78461 -5.25129 -8.737e-19)
(7.53508 -5.52132 1.56488e-19)
(7.27514 -5.77907 1.54891e-19)
(7.0053 -6.02409 -1.77938e-18)
(6.72629 -6.2559 -7.0892e-20)
(9.65358 -0.0990064 0)
(9.62998 -0.46924 -2.25985e-19)
(9.58953 -0.837783 0)
(9.5323 -1.20373 4.52095e-19)
(9.45853 -1.56625 4.30969e-19)
(9.36851 -1.92454 3.94013e-19)
(9.26254 -2.27782 0)
(9.14097 -2.62534 0)
(9.00417 -2.96634 0)
(8.85256 -3.30012 0)
(8.68657 -3.62596 8.1391e-19)
(8.5067 -3.94322 8.76868e-19)
(8.31345 -4.25123 8.71863e-19)
(8.10735 -4.5494 -8.85199e-19)
(7.88898 -4.83712 -1.52348e-18)
(7.6589 -5.11383 1.72931e-18)
(7.41771 -5.37899 3.35281e-18)
(7.16603 -5.63209 1.6308e-18)
(6.90444 -5.87261 0)
(6.63364 -6.10008 -1.537e-18)
(9.34662 -0.0902054 4.64497e-20)
(9.32998 -0.446265 0)
(9.29713 -0.801205 -7.61192e-19)
(9.24807 -1.15417 1.82487e-23)
(9.18294 -1.50434 1.6179e-20)
(9.10199 -1.85093 -6.85545e-20)
(9.00548 -2.19315 0)
(8.89369 -2.53026 3.09425e-20)
(8.76695 -2.8615 -7.72738e-19)
(8.62564 -3.18615 1.50556e-18)
(8.47014 -3.50352 -1.5699e-18)
(8.30091 -3.81292 8.57643e-19)
(8.11842 -4.1137 -4.49569e-18)
(7.92317 -4.40522 2.96519e-18)
(7.71569 -4.68686 1.57178e-18)
(7.49654 -4.95804 0)
(7.2663 -5.21819 -2.90126e-18)
(7.02556 -5.46675 -6.15435e-20)
(6.77492 -5.70319 -2.85714e-18)
(6.51503 -5.92699 2.96959e-18)
(9.0143 -0.0853966 4.17741e-20)
(9.00331 -0.426458 -8.75105e-20)
(8.97683 -0.766869 7.17503e-19)
(8.93485 -1.10583 -1.40786e-20)
(8.87745 -1.44255 7.17356e-19)
(8.80482 -1.77626 -1.0835e-18)
(8.71717 -2.10622 0)
(8.61475 -2.43168 7.30414e-19)
(8.49785 -2.75192 6.6879e-19)
(8.36677 -3.06623 -7.26323e-19)
(8.22189 -3.37393 1.3289e-18)
(8.06359 -3.67433 2.81728e-18)
(7.89231 -3.96679 -1.31023e-18)
(7.70852 -4.25066 -1.42017e-18)
(7.51271 -4.52533 1.36194e-18)
(7.3054 -4.79021 0)
(7.08714 -5.04469 6.49632e-20)
(6.8585 -5.28822 9.8169e-21)
(6.62007 -5.52024 2.70701e-18)
(6.37244 -5.7402 1.25853e-18)
(8.67789 -0.0842181 0)
(8.67096 -0.410327 6.26022e-21)
(8.64932 -0.736131 -1.46008e-19)
(8.61291 -1.06088 -6.48415e-19)
(8.56182 -1.38383 6.09507e-19)
(8.49617 -1.70425 0)
(8.41616 -2.02142 1.24056e-18)
(8.32197 -2.33464 -1.36324e-21)
(8.21386 -2.64322 -1.89469e-18)
(8.09211 -2.94646 0)
(7.95703 -3.24372 -1.30775e-18)
(7.80898 -3.53433 4.60239e-20)
(7.64836 -3.81765 -3.67616e-18)
(7.47559 -4.09308 6.47873e-21)
(7.29113 -4.35999 1.23211e-18)
(7.09548 -4.61779 0)
(6.88915 -4.8659 -1.20933e-18)
(6.67269 -5.10373 8.7072e-21)
(6.44664 -5.33073 1.20063e-18)
(6.21157 -5.54632 -1.23849e-18)
(8.35127 -0.0853023 0)
(8.34696 -0.39704 1.49699e-19)
(8.32869 -0.708704 3.10591e-19)
(8.29642 -1.0196 -5.7491e-19)
(8.25018 -1.32902 -2.47376e-20)
(8.19009 -1.63627 -2.87323e-19)
(8.1163 -1.94069 -1.15018e-18)
(8.02899 -2.2416 5.71827e-19)
(7.92836 -2.53834 2.38275e-20)
(7.81467 -2.83027 5.68406e-19)
(7.68821 -3.11676 5.2327e-19)
(7.54929 -3.39719 2.26608e-18)
(7.39828 -3.67094 1.13349e-18)
(7.23556 -3.93741 2.2388e-18)
(7.06159 -4.19603 -1.11647e-18)
(6.8768 -4.44621 3.86869e-20)
(6.68171 -4.68737 -1.10328e-18)
(6.47682 -4.91894 0)
(6.26267 -5.14036 1.04289e-18)
(6.03977 -5.35103 0)
(8.04235 -0.087523 6.51781e-20)
(8.0395 -0.38576 -1.90888e-19)
(8.02341 -0.684067 5.2357e-19)
(7.99402 -0.981786 -2.61199e-19)
(7.95137 -1.27826 1.8995e-20)
(7.89555 -1.57285 -2.61045e-19)
(7.82669 -1.8649 5.42694e-19)
(7.74494 -2.1538 -5.19391e-19)
(7.6505 -2.43892 5.19388e-19)
(7.54358 -2.71966 9.96162e-19)
(7.42446 -2.99542 -1.07341e-18)
(7.29342 -3.26561 -4.51287e-20)
(7.1508 -3.52967 -3.10707e-18)
(6.99697 -3.78701 5.38147e-21)
(6.83235 -4.03709 4.03017e-20)
(6.65736 -4.27935 2.01425e-18)
(6.47249 -4.51323 -9.94972e-19)
(6.27824 -4.73818 -9.47733e-19)
(6.07512 -4.95362 -3.7468e-20)
(5.86361 -5.15895 0)
(7.75475 -0.0901347 0)
(7.75251 -0.375865 2.42481e-19)
(7.73769 -0.661737 -8.33743e-19)
(7.71022 -0.947137 -2.212e-19)
(7.67014 -1.23145 4.9469e-19)
(7.61752 -1.51406 0)
(7.55249 -1.79437 0)
(7.47518 -2.0718 4.72852e-19)
(7.38576 -2.34575 -4.72849e-19)
(7.28445 -2.61567 3.98344e-19)
(7.17148 -2.88099 -4.69802e-19)
(7.04714 -3.14116 9.31656e-19)
(6.91172 -3.39565 -1.8587e-18)
(6.7656 -3.64392 1.84909e-18)
(6.60915 -3.88546 3.46854e-20)
(6.44281 -4.11975 -9.5101e-19)
(6.26705 -4.34625 -9.04972e-19)
(6.08235 -4.56442 1.84347e-18)
(5.88924 -4.77369 8.63001e-19)
(5.68818 -4.97344 0)
(7.48925 -0.0926634 1.87898e-21)
(7.48706 -0.366886 1.59209e-19)
(7.47286 -0.641278 3.34262e-19)
(7.44661 -0.91526 2.33965e-19)
(7.40833 -1.18825 2.17037e-19)
(7.35811 -1.45967 2.01898e-19)
(7.29604 -1.72897 0)
(7.22225 -1.99558 -8.34344e-19)
(7.13692 -2.25896 -4.30103e-19)
(7.04022 -2.51858 3.66938e-19)
(6.93239 -2.77391 0)
(6.81369 -3.02444 8.49499e-19)
(6.68442 -3.26968 -2.51244e-18)
(6.5449 -3.50914 8.45151e-19)
(6.39554 -3.74233 0)
(6.23674 -3.96878 -8.03584e-19)
(6.06899 -4.18798 -1.62302e-18)
(5.89277 -4.39942 7.98642e-19)
(5.70864 -4.60252 -2.92216e-20)
(5.51705 -4.79665 0)
(7.24497 -0.0948103 3.46679e-21)
(7.24246 -0.358478 -1.03037e-19)
(7.22847 -0.622307 1.98841e-19)
(7.20296 -0.885753 -1.31306e-20)
(7.16595 -1.14827 3.97332e-19)
(7.11752 -1.40931 -6.10225e-19)
(7.05777 -1.66834 0)
(6.98682 -1.92484 5.60674e-20)
(6.90482 -2.1783 0)
(6.81195 -2.42821 -8.14573e-19)
(6.70843 -2.67409 0)
(6.59451 -2.91546 -7.51761e-19)
(6.47047 -3.15187 2.32347e-18)
(6.33664 -3.38287 -1.53964e-18)
(6.19338 -3.60802 7.67607e-19)
(6.04113 -3.82691 -6.79183e-19)
(5.88038 -4.03904 7.84472e-19)
(5.71162 -4.24397 -7.79107e-19)
(5.53549 -4.44108 0)
(5.35243 -4.62975 0)
(7.02012 -0.0964543 4.71486e-20)
(7.01711 -0.350416 0)
(7.00308 -0.60452 0)
(6.97799 -0.858249 -3.77763e-19)
(6.94189 -1.11108 -3.52575e-19)
(6.89485 -1.3625 0)
(6.83695 -1.612 0)
(6.76831 -1.85909 4.98874e-20)
(6.68909 -2.10328 6.98212e-19)
(6.59945 -2.3441 -3.36721e-19)
(6.4996 -2.5811 -3.58746e-19)
(6.38977 -2.81384 1.44918e-18)
(6.27023 -3.04189 -2.15191e-18)
(6.1413 -3.26487 1.38768e-18)
(6.00334 -3.48237 0)
(5.85677 -3.69404 2.78785e-18)
(5.70213 -3.89943 -2.02413e-18)
(5.53991 -4.09819 6.88604e-19)
(5.3709 -4.28963 1.31695e-18)
(5.19551 -4.47318 0)
(6.8126 -0.0975304 -4.05367e-20)
(6.80898 -0.342538 0)
(6.79475 -0.587668 -5.22585e-21)
(6.76991 -0.83242 -3.24406e-19)
(6.73449 -1.07629 1.00522e-18)
(6.68856 -1.3188 -1.67216e-19)
(6.6322 -1.55945 0)
(6.56552 -1.79779 1.33205e-18)
(6.48868 -2.03335 -6.85985e-19)
(6.40182 -2.26568 4.45173e-20)
(6.30515 -2.49437 6.35754e-19)
(6.19888 -2.719 6.51651e-19)
(6.08327 -2.9392 -1.2995e-18)
(5.95862 -3.15461 -1.27106e-18)
(5.82528 -3.36487 -1.24154e-18)
(5.68367 -3.56974 -1.32114e-18)
(5.53435 -3.76877 1.31214e-18)
(5.37784 -3.96181 -6.26402e-19)
(5.21517 -4.14801 -6.67483e-19)
(5.04663 -4.32702 0)
(6.62016 -0.0980184 3.98263e-20)
(6.6159 -0.334741 -1.49539e-19)
(6.60143 -0.571556 -1.54805e-19)
(6.57674 -0.807981 4.63531e-19)
(6.54187 -1.04354 -1.64612e-19)
(6.49688 -1.27777 -1.5387e-19)
(6.44186 -1.5102 0)
(6.37691 -1.74039 -6.32466e-19)
(6.30217 -1.96791 0)
(6.2178 -2.19233 6.27576e-19)
(6.12396 -2.41325 -1.20936e-18)
(6.02087 -2.6303 5.98657e-19)
(5.90877 -2.84312 -1.19364e-18)
(5.78792 -3.05142 1.23175e-18)
(5.65868 -3.25488 6.70414e-19)
(5.52143 -3.45337 0)
(5.37677 -3.64644 -5.78692e-19)
(5.2252 -3.8343 5.78692e-19)
(5.06816 -4.01573 0)
(4.90563 -4.1911 0)
(6.44069 -0.0980063 0)
(6.43582 -0.327001 1.46921e-19)
(6.4211 -0.556056 4.72653e-21)
(6.39654 -0.784711 -1.5149e-19)
(6.36217 -1.01251 -1.33589e-19)
(6.31805 -1.23901 -1.41825e-19)
(6.26427 -1.46376 5.48164e-19)
(6.20092 -1.68634 0)
(6.12814 -1.90634 0)
(6.04607 -2.12336 2.78579e-19)
(5.95486 -2.33701 2.95929e-19)
(5.85472 -2.54696 1.07106e-18)
(5.74586 -2.75287 -5.47263e-19)
(5.62852 -2.95449 5.47261e-19)
(5.50301 -3.15156 5.80954e-19)
(5.36968 -3.34407 3.3968e-20)
(5.22917 -3.53157 -1.06701e-18)
(5.08185 -3.71482 3.7801e-21)
(4.92988 -3.89192 5.27732e-19)
(4.7724 -4.06489 0)
(6.27227 -0.0974969 -3.28389e-20)
(6.26685 -0.319287 3.28385e-20)
(6.25194 -0.54111 0)
(6.22754 -0.762518 1.2369e-19)
(6.19368 -0.983076 4.01781e-19)
(6.15043 -1.20236 -5.07808e-19)
(6.09787 -1.41994 -5.38589e-19)
(6.03609 -1.63541 0)
(5.96521 -1.84839 0)
(5.88538 -2.05848 0)
(5.79674 -2.26535 -9.94289e-19)
(5.69946 -2.46865 -6.41765e-20)
(5.59373 -2.66809 -5.04144e-19)
(5.47975 -2.86346 3.02101e-20)
(5.3578 -3.05451 -9.97006e-19)
(5.22811 -3.24141 1.51944e-18)
(5.09139 -3.4237 -1.43973e-18)
(4.94768 -3.60298 4.8873e-19)
(4.80028 -3.77626 9.36941e-19)
(4.64647 -3.94845 0)
(6.11318 -0.0961399 2.95027e-20)
(6.10733 -0.311398 0)
(6.09231 -0.526677 -1.21463e-19)
(6.06813 -0.74154 -2.50283e-19)
(6.03483 -0.955568 1.21311e-19)
(5.99246 -1.16835 9.68721e-19)
(5.9411 -1.37949 0)
(5.88085 -1.5886 -4.6656e-19)
(5.81183 -1.7953 -2.38631e-19)
(5.73414 -1.99923 -4.48302e-19)
(5.64794 -2.20006 -1.79376e-19)
(5.55336 -2.39748 -1.41535e-18)
(5.45058 -2.59122 -9.3422e-19)
(5.33973 -2.78106 9.61011e-19)
(5.22105 -2.96683 9.19886e-19)
(5.09456 -3.14875 -3.88496e-21)
(4.96107 -3.32648 2.99607e-20)
(4.81982 -3.50261 4.50325e-19)
(4.67593 -3.67333 -9.20639e-19)
(4.52264 -3.84855 0)
(5.96184 -0.094468 -6.16959e-20)
(5.95568 -0.303471 3.03719e-20)
(5.94071 -0.512561 -1.21341e-19)
(5.9169 -0.721349 1.21284e-19)
(5.88428 -0.929441 -3.48832e-19)
(5.8429 -1.13645 -1.08621e-18)
(5.79283 -1.34198 0)
(5.73413 -1.54568 4.93657e-19)
(5.66689 -1.74718 -4.61588e-19)
(5.59123 -1.94614 9.77436e-19)
(5.50724 -2.14224 9.71632e-19)
(5.41504 -2.33517 1.43152e-18)
(5.31476 -2.52467 -9.28898e-19)
(5.20644 -2.71053 4.62688e-19)
(5.09032 -2.89259 -4.55031e-19)
(4.96603 -3.07104 4.55054e-19)
(4.83469 -3.24561 0)
(4.69357 -3.41954 4.12002e-19)
(4.55174 -3.58864 -4.03185e-19)
(4.39402 -3.77513 0)
(7.14018 7.26217 0)
(7.42016 6.97237 0)
(7.68723 6.67297 1.08765e-18)
(7.94211 6.3645 2.02672e-20)
(8.18421 6.04667 -1.1507e-18)
(8.41288 5.71954 0)
(8.62772 5.38351 1.18748e-18)
(8.82837 5.03912 -2.24044e-18)
(9.01454 4.68694 -1.13226e-18)
(9.18592 4.32759 -1.14285e-18)
(9.34226 3.96168 1.14284e-18)
(9.48333 3.58989 -1.15495e-18)
(9.60894 3.21289 5.76112e-19)
(9.71888 2.8314 5.49884e-19)
(9.813 2.44607 5.52034e-19)
(9.89124 2.05756 -5.85844e-19)
(9.95359 1.66655 5.85844e-19)
(10.0001 1.27373 -2.94101e-19)
(10.0307 0.879507 -1.39703e-19)
(10.046 0.485226 7.35817e-20)
(7.41714 7.07048 0)
(7.69733 6.78106 -9.96697e-19)
(7.96373 6.48007 -2.13087e-18)
(8.21664 6.16818 3.15114e-18)
(8.4558 5.84572 -2.1852e-18)
(8.6807 5.51314 2.19598e-18)
(8.89088 5.17106 1.19385e-18)
(9.08591 4.82012 -3.38783e-18)
(9.26541 4.46102 1.1083e-18)
(9.42901 4.09448 2.20326e-18)
(9.57641 3.72123 1.08552e-18)
(9.70736 3.34201 1.0924e-18)
(9.82169 2.95764 -1.15274e-18)
(9.91918 2.56883 1.69744e-18)
(9.99956 2.17637 -2.355e-18)
(10.0627 1.78114 5.81293e-19)
(10.1087 1.38395 -5.58589e-19)
(10.1376 0.985598 0)
(10.1492 0.586632 1.51573e-20)
(10.144 0.188027 0)
(7.27423 6.94578 -1.75505e-18)
(7.55725 6.67376 9.85295e-19)
(7.82772 6.38887 1.80239e-18)
(8.0852 6.09179 8.15984e-19)
(8.32925 5.78309 2.04349e-18)
(8.55937 5.46339 2.00461e-20)
(8.77501 5.13334 -1.02428e-18)
(8.97568 4.79365 -3.0526e-18)
(9.16094 4.44504 3.01375e-18)
(9.33035 4.08823 -3.09366e-18)
(9.48352 3.72396 -1.03067e-18)
(9.62016 3.353 -2.06209e-18)
(9.73993 2.97616 0)
(9.84263 2.59421 0)
(9.92813 2.20807 0)
(9.99626 1.81863 -5.25625e-19)
(10.0469 1.42674 5.50494e-19)
(10.0799 1.03324 5.27321e-19)
(10.0952 0.638861 6.27069e-21)
(10.0929 0.244562 1.3244e-19)
(7.04699 6.69376 1.82274e-18)
(7.32675 6.4404 -1.6553e-18)
(7.59516 6.17391 -1.69641e-19)
(7.8515 5.89484 -1.70603e-19)
(8.09521 5.60376 4.30334e-18)
(8.32573 5.30127 -7.12686e-20)
(8.54252 4.98801 3.77788e-21)
(8.74503 4.66462 -2.72135e-18)
(8.93278 4.3318 1.79554e-18)
(9.10529 3.99023 0)
(9.26207 3.64068 9.63038e-19)
(9.40277 3.284 9.69704e-19)
(9.52711 2.92096 0)
(9.63479 2.5524 0)
(9.72558 2.17913 0)
(9.79929 1.80198 0)
(9.85572 1.42177 -2.17163e-20)
(9.89475 1.03935 4.74819e-19)
(9.91626 0.655552 -2.28015e-19)
(9.92026 0.271319 0)
(6.78435 6.379 1.54381e-18)
(7.05625 6.1435 0)
(7.31792 5.89507 -4.54559e-18)
(7.56855 5.63411 -1.54939e-18)
(7.80751 5.36115 -1.62816e-18)
(8.03422 5.07675 -1.72593e-18)
(8.24811 4.78148 8.15449e-19)
(8.44863 4.47595 -8.57001e-19)
(8.63524 4.1608 2.37968e-18)
(8.8075 3.8367 -7.79063e-19)
(8.96497 3.50443 0)
(9.10717 3.16472 0)
(9.23371 2.81826 0)
(9.34431 2.46586 0)
(9.43872 2.10831 -1.2303e-18)
(9.51666 1.74642 4.23037e-19)
(9.57794 1.38101 -4.46864e-19)
(9.62238 1.0129 0)
(9.64986 0.642932 2.24875e-19)
(9.6603 0.272006 0)
(6.50941 6.05176 1.32077e-18)
(6.77108 5.83241 -4.79983e-20)
(7.02346 5.60053 2.77818e-18)
(7.26575 5.35646 1.38799e-18)
(7.49728 5.10066 0)
(7.71749 4.83364 -1.4739e-18)
(7.92581 4.55593 6.85329e-20)
(8.12168 4.26807 -1.4963e-18)
(8.30458 3.97068 2.0701e-18)
(8.47403 3.66439 3.27471e-20)
(8.62962 3.34984 2.81231e-20)
(8.77087 3.02766 -7.46686e-19)
(8.89739 2.69859 1.46442e-18)
(9.00885 2.36337 0)
(9.10499 2.02273 6.859e-20)
(9.1855 1.67748 7.47657e-19)
(9.25012 1.3284 1.63941e-21)
(9.29867 0.976282 -1.53507e-20)
(9.33101 0.621914 0)
(9.34702 0.266134 -4.63531e-20)
(6.24356 5.73471 0)
(6.49389 5.52935 -4.89251e-20)
(6.73568 5.31198 1.7585e-20)
(6.96818 5.08289 -2.51146e-18)
(7.19073 4.84249 0)
(7.40276 4.59124 1.27022e-18)
(7.60374 4.32962 1.35297e-18)
(7.79313 4.05813 -3.93637e-18)
(7.97044 3.77733 -6.83043e-20)
(8.13518 3.48778 -1.26401e-18)
(8.28692 3.19008 6.95959e-19)
(8.42524 2.88484 -6.42903e-19)
(8.54973 2.57275 -7.06735e-19)
(8.66003 2.25447 0)
(8.75589 1.93076 3.72854e-19)
(8.83711 1.6022 -1.69146e-20)
(8.90329 1.26965 -3.4614e-19)
(8.95422 0.933855 -1.67765e-20)
(8.98979 0.595561 -8.71329e-20)
(9.00983 0.25554 1.74639e-19)
(5.99801 5.43947 0)
(6.23676 5.24596 1.08602e-18)
(6.46755 5.04101 1.61924e-20)
(6.68969 4.82487 -1.10218e-18)
(6.90254 4.59791 0)
(7.10557 4.36055 1.14667e-18)
(7.29825 4.1132 -1.0948e-18)
(7.4801 3.85635 -1.21195e-18)
(7.65062 3.5905 2.30533e-18)
(7.80937 3.31616 1.24391e-18)
(7.95593 3.03391 0)
(8.08989 2.74433 6.06729e-19)
(8.21088 2.44803 -4.39284e-21)
(8.31857 2.14567 2.18737e-20)
(8.41255 1.8379 0)
(8.49269 1.52537 -5.97227e-19)
(8.55882 1.20869 -3.12885e-19)
(8.61052 0.888661 4.57147e-19)
(8.64769 0.56602 3.08224e-19)
(8.67015 0.241475 -4.11983e-20)
(5.77644 5.17098 0)
(6.00393 4.98744 -9.38022e-19)
(6.22392 4.79305 0)
(6.43574 4.58801 -1.01203e-18)
(6.63882 4.37266 1.99248e-18)
(6.83263 4.14736 -2.032e-18)
(7.0167 3.91251 3.17965e-18)
(7.19056 3.66855 -3.17051e-18)
(7.35375 3.41594 -2.1421e-18)
(7.50585 3.15518 -1.57995e-18)
(7.64647 2.8868 5.41787e-19)
(7.77523 2.61134 -1.12322e-18)
(7.89177 2.32938 1.86552e-20)
(7.99576 2.04153 1.11656e-18)
(8.08692 1.74837 -2.80899e-19)
(8.16487 1.45063 1.1507e-18)
(8.22953 1.14879 -5.6596e-19)
(8.28071 0.843569 2.60763e-19)
(8.31816 0.535695 -1.48708e-19)
(8.34168 0.225835 0)
(5.57859 4.92963 0)
(5.79545 4.75454 1.8147e-18)
(6.00517 4.56915 8.80278e-19)
(6.20711 4.37366 -9.06109e-19)
(6.40073 4.16833 -1.85616e-18)
(6.58554 3.95351 2.82451e-18)
(6.76109 3.72957 1.12977e-20)
(6.92696 3.49691 -9.20666e-19)
(7.08272 3.25598 1.9765e-18)
(7.22798 3.00723 1.02079e-18)
(7.36237 2.75118 -9.53709e-19)
(7.48554 2.48834 5.00782e-19)
(7.59714 2.21926 2.2547e-20)
(7.69686 1.94449 -5.26939e-19)
(7.78444 1.66461 -2.55348e-19)
(7.85958 1.38022 5.12006e-19)
(7.92205 1.09199 -2.56659e-19)
(7.97174 0.800429 -5.17929e-19)
(8.00848 0.506223 6.00177e-20)