/*--------------------------------*- C++ -*----------------------------------*\
| =========                 |                                                 |
| \\      /  F ield         | OpenFOAM: The Open Source CFD Toolbox           |
|  \\    /   O peration     | Version:  v1912                                 |
|   \\  /    A nd           | Website:  www.openfoam.com                      |
|    \\/     M anipulation  |                                                 |
\*---------------------------------------------------------------------------*/
FoamFile
{
    version     2.0;
    format      ascii;
    class       volVectorField;
    location    "47.5";
    object      U;
}
// * * * * * * * * * * * * * * * * * * * * * * * * * * * * * * * * * * * * * //

dimensions      [0 1 -1 0 0 0 0];


internalField   nonuniform List<vector> 
9600
(
(0.456552 -9.36188 -1.54148e-19)
(0.15975 -8.63281 0)
(0.241964 -8.16002 -9.0518e-20)
(0.32073 -7.84088 0)
(0.388055 -7.60572 0)
(0.456468 -7.41103 -3.18491e-20)
(0.521985 -7.23275 -5.50016e-22)
(0.581472 -7.05866 2.66238e-20)
(0.634152 -6.8834 0)
(0.680058 -6.70555 -4.51428e-20)
(0.71958 -6.52574 0)
(0.753343 -6.34549 -1.83033e-21)
(0.782085 -6.16662 -2.6073e-21)
(0.806562 -5.99083 -3.15451e-20)
(0.827499 -5.8195 2.66046e-20)
(0.845549 -5.6536 -2.61381e-20)
(0.861265 -5.49362 2.32727e-20)
(0.875191 -5.33946 0)
(0.88811 -5.19038 -1.85128e-20)
(0.899751 -5.04483 2.02934e-20)
(0.824496 -9.35149 -3.08391e-19)
(0.502226 -8.6609 1.17581e-20)
(0.567643 -8.20432 1.86456e-19)
(0.634907 -7.89469 -1.58927e-19)
(0.693225 -7.66414 1.56733e-19)
(0.753598 -7.46994 0)
(0.811242 -7.28935 6.07479e-20)
(0.862683 -7.11126 -6.06087e-20)
(0.907072 -6.93111 -1.05129e-19)
(0.944498 -6.74807 1.32971e-19)
(0.975462 -6.56314 -8.63333e-20)
(1.00071 -6.37814 -3.52477e-20)
(1.0211 -6.19501 7.1147e-20)
(1.03747 -6.01552 0)
(1.05062 -5.84108 0)
(1.06122 -5.67264 9.97326e-20)
(1.06984 -5.51067 -1.69093e-19)
(1.07705 -5.35501 0)
(1.08371 -5.20478 0)
(1.08928 -5.05837 -7.81613e-20)
(1.19278 -9.32756 6.37178e-19)
(0.846973 -8.67613 0)
(0.896876 -8.23596 -3.77281e-19)
(0.953378 -7.93593 -3.41968e-19)
(1.00299 -7.70995 0)
(1.0553 -7.5162 5.4651e-19)
(1.10484 -7.33333 -5.15954e-19)
(1.14789 -7.15133 1.0114e-19)
(1.18358 -6.96649 -2.25157e-19)
(1.21211 -6.77853 -3.74455e-19)
(1.23412 -6.58885 5.11176e-19)
(1.25051 -6.39948 -3.16056e-19)
(1.26223 -6.21251 -1.41649e-19)
(1.27024 -6.02974 0)
(1.27537 -5.85261 5.52761e-21)
(1.27836 -5.68206 1.05125e-19)
(1.27977 -5.5185 4.54447e-20)
(1.28018 -5.36173 0)
(1.28051 -5.21076 8.23816e-20)
(1.27991 -5.06389 8.44328e-20)
(1.5603 -9.28972 -8.6202e-19)
(1.1934 -8.67823 -4.03955e-19)
(1.22911 -8.2547 3.91813e-19)
(1.27558 -7.96428 6.73362e-19)
(1.31677 -7.7428 -3.2682e-19)
(1.36098 -7.54945 5.80203e-21)
(1.40217 -7.36432 2.53788e-19)
(1.43647 -7.17857 2.29874e-19)
(1.46306 -6.98928 4.21019e-19)
(1.48229 -6.79672 0)
(1.49498 -6.60266 1.622e-19)
(1.50216 -6.40936 -1.72136e-19)
(1.50494 -6.21899 1.0352e-20)
(1.50435 -6.03341 2.71353e-19)
(1.5013 -5.85404 2.32637e-19)
(1.49653 -5.68179 -3.28404e-19)
(1.49063 -5.51706 1.08153e-19)
(1.48419 -5.35958 -1.76108e-19)
(1.47819 -5.20824 1.75276e-19)
(1.47135 -5.06135 -8.44766e-20)
(1.92675 -9.23792 4.34739e-19)
(1.54121 -8.66702 0)
(1.56393 -8.26029 3.84786e-19)
(1.60101 -7.9794 0)
(1.63401 -7.76232 0)
(1.67004 -7.56934 -3.00386e-19)
(1.70262 -7.38202 -5.3745e-19)
(1.7278 -7.19269 -4.55699e-19)
(1.7449 -6.99922 1.84496e-20)
(1.75444 -6.80242 -1.96924e-19)
(1.75745 -6.60442 0)
(1.75513 -6.40764 -1.62611e-19)
(1.74872 -6.21434 -2.92933e-19)
(1.73932 -6.02642 2.57611e-19)
(1.72793 -5.84526 -7.32118e-19)
(1.7153 -5.67176 1.18482e-19)
(1.70202 -5.50628 9.39129e-20)
(1.6887 -5.34849 -1.93652e-19)
(1.67636 -5.19719 -8.46151e-20)
(1.66325 -5.0507 2.52319e-19)
(2.29159 -9.17206 4.19507e-19)
(1.88992 -8.64229 4.16044e-19)
(1.90083 -8.25243 0)
(1.9291 -7.98098 0)
(1.95411 -7.7682 -6.24457e-19)
(1.98186 -7.57555 3.41289e-19)
(2.00554 -7.38613 8.21361e-19)
(2.02124 -7.19343 0)
(2.02845 -6.9961 2.17061e-19)
(2.02795 -6.79548 1.96924e-19)
(2.02095 -6.59398 -3.47914e-19)
(2.00885 -6.39421 5.04532e-19)
(1.99301 -6.1985 1.48053e-19)
(1.97465 -6.00872 0)
(1.95478 -5.82625 1.2325e-19)
(1.93421 -5.65194 5.5327e-19)
(1.9135 -5.48613 -3.29678e-19)
(1.8933 -5.32844 3.70457e-19)
(1.87467 -5.17756 -7.04455e-19)
(1.85528 -5.03193 8.14379e-19)
(2.65428 -9.09212 4.26655e-19)
(2.23902 -8.60384 -2.25923e-18)
(2.23926 -8.23087 0)
(2.25927 -7.96871 0)
(2.27644 -7.76011 0)
(2.29577 -7.56779 -6.05775e-19)
(2.31026 -7.3764 0)
(2.31612 -7.18059 -9.70988e-19)
(2.31308 -6.97976 8.95649e-19)
(2.30217 -6.77575 -8.31854e-19)
(2.28487 -6.57126 0)
(2.26274 -6.36901 0)
(2.23729 -6.1714 0)
(2.20981 -5.98027 -2.81474e-19)
(2.18137 -5.79697 0)
(2.1528 -5.62231 0)
(2.12464 -5.4566 -4.13152e-19)
(2.09758 -5.29941 4.05935e-19)
(2.07271 -5.14934 0)
(2.04707 -5.00503 0)
(3.01428 -8.99809 -1.388e-18)
(2.58795 -8.55149 8.99443e-19)
(2.57865 -8.19534 0)
(2.5909 -7.94232 0)
(2.60034 -7.73779 0)
(2.61111 -7.54582 5.76184e-19)
(2.61611 -7.35262 -5.77936e-19)
(2.61176 -7.15398 -8.89296e-21)
(2.59811 -6.95006 -8.96785e-19)
(2.57648 -6.74314 8.3968e-19)
(2.54859 -6.53616 -3.78813e-19)
(2.51622 -6.33199 6.5872e-19)
(2.48099 -6.13302 -4.64112e-20)
(2.44428 -5.94107 -5.95916e-19)
(2.4072 -5.75743 -5.02267e-19)
(2.37059 -5.58288 4.93462e-19)
(2.33499 -5.41769 0)
(2.3011 -5.26141 0)
(2.27006 -5.11254 3.57098e-19)
(2.23824 -4.97 -3.92977e-19)
(3.37104 -8.89002 9.27698e-19)
(2.93615 -8.48511 8.83671e-19)
(2.9184 -8.14564 -1.67494e-18)
(2.92336 -7.90156 7.91196e-19)
(2.92515 -7.701 0)
(2.92718 -7.50942 6.1655e-19)
(2.92238 -7.31461 -5.41269e-19)
(2.90748 -7.11348 1.52969e-18)
(2.88288 -6.9069 -2.3695e-20)
(2.85022 -6.69757 0)
(2.81151 -6.48867 7.64312e-19)
(2.7687 -6.28314 0)
(2.72356 -6.08336 0)
(2.67753 -5.89112 -2.72619e-19)
(2.63177 -5.70764 5.49839e-19)
(2.5871 -5.53366 0)
(2.54407 -5.36942 4.31294e-19)
(2.50342 -5.21445 1.79554e-19)
(2.46631 -5.06718 -3.89568e-19)
(2.4284 -4.92687 3.78278e-19)
(3.724 -8.76796 -9.55516e-19)
(3.28303 -8.40459 8.98087e-19)
(3.25788 -8.08159 -2.5578e-18)
(3.25599 -7.84624 8.04322e-19)
(3.25018 -7.64954 0)
(3.24327 -7.45842 -1.24445e-18)
(3.22838 -7.26222 5.97825e-19)
(3.20259 -7.05897 0)
(3.16671 -6.85021 -4.74654e-19)
(3.12275 -6.63902 -8.23282e-19)
(3.073 -6.42877 -7.17407e-19)
(3.0196 -6.22245 5.34507e-20)
(2.96444 -6.02244 6.70988e-19)
(2.90904 -5.83045 2.72395e-19)
(2.85456 -5.64764 -3.79461e-20)
(2.80184 -5.47469 -5.12953e-19)
(2.75142 -5.31183 -2.29433e-19)
(2.70406 -5.15856 -2.06848e-19)
(2.66098 -5.01326 5.51799e-19)
(2.6171 -4.87568 -8.22242e-19)
(4.07259 -8.63198 9.55519e-19)
(3.62799 -8.30987 -4.66507e-20)
(3.59646 -8.00304 8.22214e-19)
(3.5881 -7.77618 0)
(3.57471 -7.58325 -6.80746e-19)
(3.55867 -7.39269 1.30807e-18)
(3.53337 -7.19537 -1.11816e-18)
(3.49637 -6.99041 1.10035e-18)
(3.44892 -6.77996 -4.45875e-19)
(3.39343 -6.56747 9.05118e-19)
(3.33244 -6.35646 3.91976e-19)
(3.26833 -6.14996 0)
(3.20308 -5.9503 0)
(3.13826 -5.75911 -2.82447e-19)
(3.07506 -5.57748 3.83642e-20)
(3.01431 -5.40602 1.01014e-18)
(2.95652 -5.24496 -2.49913e-19)
(2.90254 -5.09379 8.25442e-19)
(2.85361 -4.95085 1.44476e-19)
(2.80389 -4.81645 -8.39782e-19)
(4.41626 -8.48221 -2.94017e-18)
(3.97043 -8.20089 -9.8698e-19)
(3.93349 -7.90989 -2.63189e-18)
(3.91901 -7.69126 -1.60113e-18)
(3.89804 -7.50202 -7.59479e-19)
(3.87265 -7.31213 -7.42292e-19)
(3.83665 -7.114 -2.42322e-18)
(3.78812 -6.90776 -4.90746e-20)
(3.72884 -6.69616 -1.9472e-18)
(3.66159 -6.48296 3.02265e-20)
(3.58922 -6.2718 -8.0848e-19)
(3.5143 -6.06573 -7.36728e-19)
(3.4389 -5.867 6.72542e-19)
(3.36466 -5.67717 -6.15061e-19)
(3.29275 -5.49721 -5.63504e-19)
(3.22399 -5.32771 -5.17176e-19)
(3.15889 -5.16887 -1.38867e-18)
(3.09836 -5.02017 4.94047e-19)
(3.04367 -4.87996 1.19899e-18)
(2.98831 -4.74922 -1.27609e-18)
(4.75447 -8.31878 3.95475e-18)
(4.30975 -8.07767 4.85852e-18)
(4.26832 -7.80207 8.34627e-19)
(4.24802 -7.59138 3.99904e-18)
(4.21943 -7.40576 -7.83811e-19)
(4.18448 -7.21669 3.9166e-18)
(4.13748 -7.01808 1.14574e-18)
(4.07715 -6.81103 3.21651e-18)
(4.00578 -6.59884 -9.83172e-19)
(3.92659 -6.38554 2.72222e-18)
(3.84273 -6.17485 1.62848e-18)
(3.75692 -5.96981 1.48411e-18)
(3.67136 -5.77261 -2.00933e-18)
(3.58769 -5.58468 1.88229e-18)
(3.5071 -5.40691 1.1357e-18)
(3.43037 -5.23982 1.04255e-18)
(3.358 -5.08362 9.58661e-19)
(3.29098 -4.93777 7.36518e-21)
(3.23067 -4.80066 8.13798e-19)
(3.16986 -4.67405 8.4692e-19)
(5.08669 -8.14186 -2.93682e-18)
(4.64535 -7.94023 1.08237e-18)
(4.60028 -7.67954 2.6777e-18)
(4.57442 -7.4765 -3.26233e-18)
(4.53815 -7.29444 7.53849e-19)
(4.49341 -7.10637 -2.62033e-18)
(4.43514 -6.90765 1.28427e-18)
(4.36275 -6.70028 -2.15219e-18)
(4.27909 -6.48808 4.90373e-20)
(4.18782 -6.27528 1.19487e-20)
(4.09237 -6.0657 -1.65097e-18)
(3.99564 -5.8623 -7.47383e-19)
(3.8999 -5.6672 1.37429e-18)
(3.80682 -5.48171 8.76002e-21)
(3.71757 -5.30664 -3.71913e-20)
(3.6329 -5.14242 -1.08812e-18)
(3.55331 -4.98927 -4.83215e-19)
(3.47985 -4.84665 -2.71468e-20)
(3.41402 -4.713 -8.48144e-19)
(3.34798 -4.59104 -4.27708e-19)
(5.41241 -7.95162 0)
(4.97666 -7.78863 -1.99996e-18)
(4.92873 -7.54228 2.37443e-20)
(4.89751 -7.34658 3.25786e-18)
(4.85347 -7.16806 1.36363e-18)
(4.79872 -6.9812 -1.41941e-18)
(4.72893 -6.78276 -1.22281e-18)
(4.64424 -6.5756 0)
(4.54812 -6.36397 -9.73398e-19)
(4.44465 -6.15231 9.28993e-19)
(4.33756 -5.94444 -3.90721e-20)
(4.2299 -5.74329 0)
(4.124 -5.55085 -6.91846e-19)
(4.02154 -5.36834 5.99284e-19)
(3.92365 -5.19644 5.00674e-19)
(3.83106 -5.03553 -6.04395e-19)
(3.74423 -4.88581 -5.2434e-19)
(3.66433 -4.74676 9.10553e-19)
(3.59297 -4.61697 -8.40336e-19)
(3.52184 -4.50027 4.42315e-19)
(5.73116 -7.74825 3.03427e-18)
(5.30309 -7.62294 -2.05981e-18)
(5.25299 -7.39034 -1.75797e-18)
(5.21657 -7.20168 8.1851e-19)
(5.16467 -7.02667 -1.58798e-18)
(5.09968 -6.84127 0)
(5.01813 -6.64352 0)
(4.92095 -6.43711 0)
(4.81223 -6.22667 -4.44753e-20)
(4.6965 -6.01676 -1.8644e-18)
(4.57775 -5.81123 8.80537e-19)
(4.45917 -5.61291 7.44729e-19)
(4.34316 -5.42367 6.30225e-19)
(4.23136 -5.24464 -2.58616e-18)
(4.12487 -5.07636 1.22607e-18)
(4.02435 -4.91915 0)
(3.93024 -4.77322 -3.04295e-20)
(3.84378 -4.63807 -1.41227e-18)
(3.76673 -4.51248 -5.69679e-21)
(3.69046 -4.40138 -4.42804e-19)
(6.04259 -7.53202 -2.06386e-18)
(5.62409 -7.4433 -1.08596e-18)
(5.57239 -7.22377 8.18311e-19)
(5.53089 -7.04183 -1.43929e-19)
(5.471 -6.87037 -4.62917e-18)
(5.39557 -6.68668 4.18955e-18)
(5.30204 -6.49008 -4.88101e-20)
(5.19221 -6.28498 1.14753e-18)
(5.07081 -6.07633 1.0296e-18)
(4.94278 -5.8688 9.45417e-19)
(4.8124 -5.6662 8.60343e-19)
(4.68297 -5.47127 1.53758e-18)
(4.55691 -5.28576 -7.40064e-19)
(4.43585 -5.11067 1.91838e-18)
(4.32082 -4.94645 -1.2402e-18)
(4.2124 -4.79336 -5.1306e-19)
(4.111 -4.65159 2.06075e-18)
(4.01788 -4.52068 1.37681e-18)
(3.935 -4.39943 -2.79605e-20)
(3.8538 -4.29369 0)
(6.34667 -7.30342 -1.04939e-18)
(5.93927 -7.24988 2.07533e-18)
(5.88626 -7.04262 1.81698e-18)
(5.83972 -6.86711 -1.45906e-19)
(5.77172 -6.69923 -1.57063e-18)
(5.68565 -6.51759 7.06771e-20)
(5.57996 -6.32263 1.31744e-20)
(5.45737 -6.11941 1.17383e-20)
(5.32325 -5.91318 0)
(5.18296 -5.70863 9.24691e-19)
(5.041 -5.50953 -1.76001e-18)
(4.90081 -5.3185 -7.53179e-19)
(4.76478 -5.13718 7.47711e-19)
(4.63452 -4.96646 -6.56084e-19)
(4.51096 -4.8067 6.07646e-19)
(4.39463 -4.65815 -5.5318e-19)
(4.28593 -4.52101 4.8992e-21)
(4.18623 -4.39464 -4.69965e-19)
(4.09779 -4.27776 -4.34143e-19)
(4.01243 -4.17807 -4.3444e-19)
(6.64375 -7.06292 0)
(6.24837 -7.04261 -1.01188e-18)
(6.19395 -6.84683 1.00027e-18)
(6.14231 -6.67759 1.74521e-18)
(6.06608 -6.51346 -1.57931e-18)
(5.9692 -6.33423 1.36436e-18)
(5.85123 -6.14143 -2.62337e-18)
(5.71583 -5.94071 -2.32967e-18)
(5.569 -5.7375 -1.01634e-18)
(5.41654 -5.53652 4.44229e-20)
(5.26315 -5.34145 -8.41626e-19)
(5.11232 -5.15477 3.49239e-20)
(4.96643 -4.978 0)
(4.82695 -4.8119 -1.28697e-18)
(4.69472 -4.65684 6.56775e-19)
(4.57013 -4.51304 0)
(4.45362 -4.38063 -5.14377e-19)
(4.34679 -4.25875 -9.24806e-19)
(4.25189 -4.14702 9.08715e-19)
(4.16135 -4.05808 4.48576e-19)
(6.93342 -6.80974 0)
(6.55077 -6.82079 0)
(6.49475 -6.63633 -1.85555e-18)
(6.4379 -6.47355 -1.59551e-18)
(6.35339 -6.31342 3.23829e-18)
(6.24559 -6.13703 0)
(6.11527 -5.94693 0)
(5.96706 -5.7493 1.1704e-18)
(5.80764 -5.54973 0)
(5.64318 -5.3529 0)
(5.47858 -5.16233 0)
(5.31737 -4.98039 0)
(5.16186 -4.8084 0)
(5.01334 -4.64703 0)
(4.8724 -4.49652 0)
(4.73914 -4.35706 0)
(4.61383 -4.22848 0)
(4.49756 -4.11015 0)
(4.39043 -4.00511 0)
(4.2863 -3.93067 0)
(10.0433 0.0877391 1.47327e-19)
(10.0228 -0.307642 2.86648e-19)
(9.98699 -0.700346 -2.94404e-19)
(9.93647 -1.09023 5.86984e-19)
(9.87095 -1.47695 -5.86983e-19)
(9.79031 -1.86002 -5.54686e-19)
(9.69464 -2.23887 -5.53138e-19)
(9.58417 -2.61298 1.74203e-18)
(9.45913 -2.98179 -1.16063e-18)
(9.31976 -3.34475 1.1509e-18)
(9.16636 -3.7013 -1.1509e-18)
(8.99924 -4.05093 1.1424e-18)
(8.81872 -4.3931 -2.26547e-18)
(8.62515 -4.72732 3.33622e-18)
(8.4189 -5.0531 0)
(8.20036 -5.36999 -3.27772e-18)
(7.96993 -5.67757 1.63439e-20)
(7.72813 -5.97548 3.30318e-18)
(7.47506 -6.26357 0)
(7.21239 -6.54114 0)
(10.12 -0.210722 0)
(10.0788 -0.606817 -1.50419e-20)
(10.0207 -0.999113 0)
(9.94658 -1.38727 5.61703e-19)
(9.85656 -1.77086 5.84945e-19)
(9.75088 -2.14928 -1.69301e-18)
(9.62982 -2.5219 2.94748e-18)
(9.49374 -2.88809 -1.16355e-18)
(9.34301 -3.24727 -1.10913e-18)
(9.17802 -3.59883 -1.1046e-18)
(8.9992 -3.94221 4.45725e-20)
(8.80698 -4.27686 1.13174e-18)
(8.60182 -4.60227 -5.62626e-18)
(8.3842 -4.91794 -1.17987e-18)
(8.15461 -5.22339 2.24816e-18)
(7.91358 -5.51821 2.24515e-18)
(7.66157 -5.80199 1.14068e-18)
(7.39916 -6.07442 -2.19955e-18)
(7.12645 -6.33523 1.04161e-18)
(6.84438 -6.58408 0)
(10.0717 -0.14923 1.32665e-19)
(10.0338 -0.540885 -2.71676e-19)
(9.97865 -0.929365 7.84541e-19)
(9.90647 -1.31397 -5.55808e-19)
(9.81768 -1.69406 -5.29946e-19)
(9.71265 -2.06892 5.53295e-19)
(9.59175 -2.43781 0)
(9.45538 -2.80005 0)
(9.30397 -3.15497 2.10088e-18)
(9.13795 -3.50192 3.13413e-18)
(8.9578 -3.8403 -9.91258e-19)
(8.76403 -4.1695 3.09915e-18)
(8.55714 -4.48896 -9.87087e-19)
(8.33768 -4.79815 -3.01861e-18)
(8.1062 -5.09657 1.36171e-20)
(7.86327 -5.38375 1.93763e-18)
(7.60942 -5.65925 -8.74592e-19)
(7.34524 -5.92266 -1.90627e-18)
(7.07108 -6.17362 -1.02966e-18)
(6.78767 -6.41161 1.87346e-18)
(9.90545 -0.112518 0)
(9.87444 -0.494938 2.29044e-19)
(9.82615 -0.875013 2.28103e-19)
(9.76077 -1.25184 -9.3713e-19)
(9.67863 -1.62463 0)
(9.58007 -1.99259 0)
(9.46544 -2.35497 0)
(9.33513 -2.71101 0)
(9.18955 -3.06 -9.91677e-19)
(9.02915 -3.40126 -9.87912e-19)
(8.8544 -3.7341 0)
(8.6658 -4.0579 1.86782e-18)
(8.46389 -4.37205 -4.61802e-18)
(8.24922 -4.67596 3.7133e-18)
(8.02236 -4.96908 -3.59916e-18)
(7.7839 -5.2509 -8.73339e-19)
(7.5344 -5.52092 1.56463e-19)
(7.2745 -5.77867 1.54867e-19)
(7.0047 -6.0237 -1.77867e-18)
(6.72574 -6.25551 -7.08885e-20)
(9.65236 -0.0990373 0)
(9.62876 -0.469227 -2.25889e-19)
(9.58832 -0.837728 0)
(9.5311 -1.20363 4.51902e-19)
(9.45735 -1.56611 4.30781e-19)
(9.36734 -1.92436 3.93834e-19)
(9.2614 -2.27761 0)
(9.13985 -2.62509 0)
(9.00307 -2.96606 0)
(8.85148 -3.2998 0)
(8.68553 -3.62561 8.13551e-19)
(8.50569 -3.94284 8.76496e-19)
(8.31247 -4.25083 8.71498e-19)
(8.10641 -4.54897 -8.84825e-19)
(7.88807 -4.83667 -1.5228e-18)
(7.65803 -5.11337 1.72859e-18)
(7.41688 -5.37852 3.3514e-18)
(7.16524 -5.6316 1.63011e-18)
(6.90369 -5.87213 0)
(6.63293 -6.09959 -1.53634e-18)
(9.34533 -0.0902352 4.64283e-20)
(9.3287 -0.44625 0)
(9.29585 -0.801146 -7.60843e-19)
(9.24679 -1.15407 1.82834e-23)
(9.18168 -1.5042 1.61746e-20)
(9.10074 -1.85074 -6.85368e-20)
(9.00425 -2.19292 0)
(8.89248 -2.52999 3.09346e-20)
(8.76576 -2.86119 -7.72388e-19)
(8.62447 -3.18581 1.50487e-18)
(8.469 -3.50314 -1.5692e-18)
(8.2998 -3.81251 8.57277e-19)
(8.11734 -4.11326 -4.49365e-18)
(7.92212 -4.40475 2.96384e-18)
(7.71468 -4.68637 1.57109e-18)
(7.49556 -4.95753 0)
(7.26535 -5.21766 -2.89996e-18)
(7.02465 -5.4662 -6.15336e-20)
(6.77405 -5.70263 -2.85586e-18)
(6.5142 -5.92642 2.9683e-18)
(9.01298 -0.0854226 4.1754e-20)
(9.00199 -0.426439 -8.74694e-20)
(8.97551 -0.766805 7.17169e-19)
(8.93353 -1.10572 -1.40746e-20)
(8.87614 -1.4424 7.17022e-19)
(8.80352 -1.77607 -1.08299e-18)
(8.71588 -2.10598 0)
(8.61348 -2.4314 7.30077e-19)
(8.49659 -2.7516 6.6847e-19)
(8.36554 -3.06587 -7.25988e-19)
(8.22068 -3.37353 1.32827e-18)
(8.06241 -3.67389 2.81597e-18)
(7.89116 -3.96632 -1.3096e-18)
(7.70739 -4.25016 -1.41952e-18)
(7.51161 -4.52481 1.36131e-18)
(7.30433 -4.78965 0)
(7.08611 -5.04412 6.4946e-20)
(6.85751 -5.28762 9.81059e-21)
(6.61911 -5.51963 2.70578e-18)
(6.37152 -5.73957 1.25794e-18)
(8.67654 -0.0842389 0)
(8.66961 -0.410303 6.2583e-21)
(8.64797 -0.736061 -1.45935e-19)
(8.61157 -1.06077 -6.48102e-19)
(8.56048 -1.38367 6.09206e-19)
(8.49484 -1.70405 0)
(8.41483 -2.02118 1.23995e-18)
(8.32066 -2.33435 -1.36253e-21)
(8.21256 -2.64288 -1.89377e-18)
(8.09083 -2.94609 0)
(7.95577 -3.2433 -1.30713e-18)
(7.80775 -3.53388 4.60111e-20)
(7.64715 -3.81717 -3.67436e-18)
(7.47441 -4.09256 6.47498e-21)
(7.28998 -4.35944 1.23152e-18)
(7.09436 -4.61721 0)
(6.88806 -4.86529 -1.20875e-18)
(6.67163 -5.10309 8.70179e-21)
(6.44562 -5.33008 1.20005e-18)
(6.21058 -5.54565 -1.2379e-18)
(8.3499 -0.0853172 0)
(8.34558 -0.397009 1.49625e-19)
(8.32732 -0.708628 3.1044e-19)
(8.29504 -1.01948 -5.74621e-19)
(8.24881 -1.32885 -2.47301e-20)
(8.18873 -1.63606 -2.87179e-19)
(8.11495 -1.94043 -1.14961e-18)
(8.02765 -2.24129 5.7154e-19)
(7.92704 -2.538 2.38205e-20)
(7.81336 -2.82989 5.6812e-19)
(7.68692 -3.11633 5.22999e-19)
(7.54802 -3.39672 2.26495e-18)
(7.39703 -3.67043 1.13292e-18)
(7.23434 -3.93687 2.23768e-18)
(7.06039 -4.19546 -1.11591e-18)
(6.87563 -4.4456 3.86762e-20)
(6.68057 -4.68674 -1.10273e-18)
(6.47571 -4.91828 0)
(6.26159 -5.13968 1.04236e-18)
(6.03872 -5.35033 0)
(8.04095 -0.0875321 6.51444e-20)
(8.0381 -0.385724 -1.90789e-19)
(8.02201 -0.683984 5.233e-19)
(7.99262 -0.981658 -2.61064e-19)
(7.94997 -1.27809 1.89885e-20)
(7.89416 -1.57262 -2.6091e-19)
(7.82531 -1.86464 5.42418e-19)
(7.74357 -2.15349 -5.19122e-19)
(7.64914 -2.43857 5.19119e-19)
(7.54224 -2.71927 9.95639e-19)
(7.42313 -2.99498 -1.07286e-18)
(7.29211 -3.26513 -4.5114e-20)
(7.14952 -3.52915 -3.10547e-18)
(6.99571 -3.78645 5.3786e-21)
(6.83111 -4.0365 4.02879e-20)
(6.65615 -4.27872 2.01321e-18)
(6.47131 -4.51258 -9.94458e-19)
(6.27709 -4.73749 -9.47236e-19)
(6.074 -4.9529 -3.74582e-20)
(5.86252 -5.15821 0)
(7.75332 -0.0901384 0)
(7.75108 -0.375822 2.42353e-19)
(7.73626 -0.661647 -8.33301e-19)
(7.70879 -0.947 -2.2108e-19)
(7.66871 -1.23126 4.94431e-19)
(7.6161 -1.51383 0)
(7.55108 -1.79409 0)
(7.47378 -2.07147 4.726e-19)
(7.38437 -2.34538 -4.72597e-19)
(7.28308 -2.61526 3.98118e-19)
(7.17013 -2.88053 -4.69552e-19)
(7.0458 -3.14066 9.3116e-19)
(6.91041 -3.39511 -1.85771e-18)
(6.7643 -3.64335 1.84811e-18)
(6.60788 -3.88485 3.46745e-20)
(6.44157 -4.1191 -9.50511e-19)
(6.26583 -4.34557 -9.0449e-19)
(6.08116 -4.5637 1.84249e-18)
(5.88809 -4.77295 8.62534e-19)
(5.68706 -4.97267 0)
(7.48778 -0.0926624 1.87825e-21)
(7.48558 -0.366837 1.59122e-19)
(7.47139 -0.641181 3.34082e-19)
(7.44514 -0.915115 2.3384e-19)
(7.40687 -1.18806 2.16919e-19)
(7.35665 -1.45943 2.01786e-19)
(7.29459 -1.72868 0)
(7.22082 -1.99525 -8.33884e-19)
(7.13549 -2.25858 -4.29868e-19)
(7.03881 -2.51815 3.66727e-19)
(6.931 -2.77344 0)
(6.81232 -3.02393 8.49035e-19)
(6.68307 -3.26913 -2.51106e-18)
(6.54358 -3.50854 8.44689e-19)
(6.39424 -3.7417 0)
(6.23547 -3.96811 -8.03138e-19)
(6.06774 -4.18727 -1.62212e-18)
(5.89155 -4.39868 7.98199e-19)
(5.70745 -4.60175 -2.92124e-20)
(5.51589 -4.79586 0)
(7.24346 -0.0948055 3.46542e-21)
(7.24095 -0.358424 -1.0298e-19)
(7.22696 -0.622204 1.98731e-19)
(7.20145 -0.885601 -1.31253e-20)
(7.16445 -1.14807 3.97111e-19)
(7.11603 -1.40906 -6.09888e-19)
(7.05628 -1.66804 0)
(6.98534 -1.92449 5.60453e-20)
(6.90336 -2.1779 0)
(6.81051 -2.42777 -8.14124e-19)
(6.70701 -2.6736 0)
(6.59311 -2.91493 -7.51337e-19)
(6.46909 -3.1513 2.32217e-18)
(6.33528 -3.38226 -1.53878e-18)
(6.19205 -3.60737 7.67177e-19)
(6.03982 -3.82622 -6.78787e-19)
(5.8791 -4.03831 7.84036e-19)
(5.71037 -4.24321 -7.78675e-19)
(5.53427 -4.44028 0)
(5.35124 -4.62892 0)
(7.01857 -0.0964462 4.71222e-20)
(7.01556 -0.350357 0)
(7.00152 -0.604411 0)
(6.97644 -0.85809 -3.77551e-19)
(6.94035 -1.11087 -3.52374e-19)
(6.89331 -1.36224 0)
(6.83542 -1.61169 0)
(6.7668 -1.85873 4.98666e-20)
(6.6876 -2.10287 6.97811e-19)
(6.59797 -2.34365 -3.36526e-19)
(6.49814 -2.5806 -3.58541e-19)
(6.38833 -2.81329 1.44835e-18)
(6.26882 -3.0413 -2.15069e-18)
(6.13991 -3.26424 1.38688e-18)
(6.00198 -3.4817 0)
(5.85543 -3.69333 2.78625e-18)
(5.70082 -3.89868 -2.02296e-18)
(5.53863 -4.09741 6.88207e-19)
(5.36965 -4.28881 1.31618e-18)
(5.19428 -4.47233 0)
(6.811 -0.0975198 -4.05133e-20)
(6.80738 -0.342476 0)
(6.79316 -0.587554 -5.22342e-21)
(6.76832 -0.832254 -3.24218e-19)
(6.73291 -1.07608 1.00464e-18)
(6.68698 -1.31853 -1.6712e-19)
(6.63063 -1.55913 0)
(6.56398 -1.79742 1.33128e-18)
(6.48715 -2.03293 -6.85592e-19)
(6.40031 -2.26522 4.44976e-20)
(6.30365 -2.49385 6.35383e-19)
(6.19741 -2.71844 6.51273e-19)
(6.08182 -2.93859 -1.29875e-18)
(5.9572 -3.15396 -1.27032e-18)
(5.82389 -3.36418 -1.24081e-18)
(5.6823 -3.56901 -1.32037e-18)
(5.53301 -3.76799 1.31138e-18)
(5.37653 -3.961 -6.26034e-19)
(5.21388 -4.14716 -6.67097e-19)
(5.04537 -4.32614 0)
(6.61852 -0.0980058 3.98032e-20)
(6.61426 -0.334675 -1.49452e-19)
(6.5998 -0.571437 -1.54715e-19)
(6.57512 -0.807809 4.63261e-19)
(6.54025 -1.04332 -1.64517e-19)
(6.49527 -1.27749 -1.53781e-19)
(6.44026 -1.50987 0)
(6.37533 -1.74001 -6.32098e-19)
(6.30061 -1.96748 0)
(6.21625 -2.19185 6.2721e-19)
(6.12243 -2.41272 -1.20865e-18)
(6.01936 -2.62972 5.98304e-19)
(5.90728 -2.8425 -1.19294e-18)
(5.78647 -3.05075 1.23102e-18)
(5.65725 -3.25417 6.70027e-19)
(5.52003 -3.45262 0)
(5.3754 -3.64564 -5.78346e-19)
(5.22386 -3.83346 5.78346e-19)
(5.06685 -4.01486 0)
(4.90435 -4.19019 0)
(6.43901 -0.0979922 0)
(6.43414 -0.326933 1.46835e-19)
(6.41943 -0.555933 4.72426e-21)
(6.39488 -0.784534 -1.51402e-19)
(6.36052 -1.01228 -1.33509e-19)
(6.31641 -1.23872 -1.41742e-19)
(6.26264 -1.46342 5.47838e-19)
(6.19931 -1.68595 0)
(6.12654 -1.9059 0)
(6.04448 -2.12286 2.78413e-19)
(5.9533 -2.33647 2.95755e-19)
(5.85319 -2.54637 1.07042e-18)
(5.74435 -2.75223 -5.46934e-19)
(5.62704 -2.95381 5.46933e-19)
(5.50156 -3.15083 5.8061e-19)
(5.36825 -3.3433 3.39511e-20)
(5.22777 -3.53075 -1.06637e-18)
(5.08048 -3.71396 3.77915e-21)
(4.92854 -3.89102 5.2741e-19)
(4.77109 -4.06395 0)
(6.27056 -0.0974817 -3.28194e-20)
(6.26514 -0.319216 3.2819e-20)
(6.25024 -0.540984 0)
(6.22584 -0.762337 1.23616e-19)
(6.19199 -0.982839 4.01542e-19)
(6.14875 -1.20206 -5.07504e-19)
(6.0962 -1.41959 -5.38269e-19)
(6.03444 -1.63501 0)
(5.96358 -1.84794 0)
(5.88377 -2.05798 0)
(5.79515 -2.26479 -9.93689e-19)
(5.69789 -2.46805 -6.41435e-20)
(5.59219 -2.66744 -5.03839e-19)
(5.47824 -2.86276 3.01942e-20)
(5.35632 -3.05377 -9.96399e-19)
(5.22666 -3.24062 1.51852e-18)
(5.08997 -3.42287 -1.43884e-18)
(4.9463 -3.60211 4.88429e-19)
(4.79893 -3.77534 9.36358e-19)
(4.64514 -3.94748 0)
(6.11145 -0.0961243 2.9485e-20)
(6.1056 -0.311326 0)
(6.09058 -0.526548 -1.21391e-19)
(6.06641 -0.741354 -2.50133e-19)
(6.03311 -0.955327 1.21238e-19)
(5.99075 -1.16806 9.68141e-19)
(5.93941 -1.37914 0)
(5.87918 -1.58819 -4.66279e-19)
(5.81017 -1.79484 -2.38487e-19)
(5.7325 -1.99872 -4.48029e-19)
(5.64632 -2.1995 -1.79264e-19)
(5.55177 -2.39687 -1.41449e-18)
(5.44902 -2.59055 -9.3365e-19)
(5.33819 -2.78035 9.60426e-19)
(5.21954 -2.96607 9.1932e-19)
(5.09309 -3.14794 -3.88369e-21)
(4.95963 -3.32563 2.9945e-20)
(4.81841 -3.50171 4.50046e-19)
(4.67456 -3.67239 -9.20065e-19)
(4.52131 -3.84756 0)
(5.96008 -0.0944523 -6.16589e-20)
(5.95393 -0.303398 3.03537e-20)
(5.93896 -0.51243 -1.21268e-19)
(5.91516 -0.721161 1.21212e-19)
(5.88255 -0.929195 -3.48622e-19)
(5.84118 -1.13614 -1.08556e-18)
(5.79112 -1.34162 0)
(5.73243 -1.54526 4.9336e-19)
(5.66522 -1.74671 -4.61308e-19)
(5.58957 -1.94562 9.76845e-19)
(5.50561 -2.14166 9.71044e-19)
(5.41343 -2.33454 1.43065e-18)
(5.31318 -2.52399 -9.2833e-19)
(5.20489 -2.70981 4.62405e-19)
(5.0888 -2.89181 -4.5475e-19)
(4.96455 -3.07021 4.54773e-19)
(4.83323 -3.24474 0)
(4.69215 -3.41862 4.11743e-19)
(4.55035 -3.58768 -4.02928e-19)
(4.39268 -3.7741 0)
(7.13995 7.26194 0)
(7.41992 6.97214 0)
(7.68698 6.67276 1.08729e-18)
(7.94185 6.3643 2.02539e-20)
(8.18394 6.04648 -1.15034e-18)
(8.41261 5.71936 0)
(8.62744 5.38334 1.1871e-18)
(8.82809 5.03896 -2.23969e-18)
(9.01426 4.6868 -1.13188e-18)
(9.18564 4.32745 -1.14246e-18)
(9.34198 3.96156 1.14246e-18)
(9.48305 3.58979 -1.15455e-18)
(9.60866 3.2128 5.75915e-19)
(9.7186 2.83132 5.49687e-19)
(9.81273 2.446 5.51835e-19)
(9.89097 2.05751 -5.85642e-19)
(9.95332 1.66651 5.85642e-19)
(9.99985 1.2737 -2.93999e-19)
(10.0305 0.879486 -1.39652e-19)
(10.0458 0.485215 7.35562e-20)
(7.41662 7.06997 0)
(7.69678 6.78057 -9.96341e-19)
(7.96316 6.47959 -2.13012e-18)
(8.21604 6.16772 3.15002e-18)
(8.45519 5.84529 -2.18443e-18)
(8.68008 5.51273 2.19518e-18)
(8.89024 5.17067 1.19344e-18)
(9.08526 4.81976 -3.3866e-18)
(9.26474 4.46069 1.1079e-18)
(9.42834 4.09418 2.20243e-18)
(9.57573 3.72095 1.08511e-18)
(9.70668 3.34176 1.09198e-18)
(9.821 2.95742 -1.15231e-18)
(9.9185 2.56864 1.6968e-18)
(9.99888 2.17621 -2.35412e-18)
(10.0621 1.78101 5.81074e-19)
(10.1081 1.38384 -5.58373e-19)
(10.1369 0.985516 0)
(10.1486 0.586576 1.51556e-20)
(10.1434 0.187997 0)
(7.27355 6.94515 -1.7544e-18)
(7.55654 6.67314 9.84942e-19)
(7.82698 6.38827 1.8017e-18)
(8.08442 6.09121 8.15652e-19)
(8.32845 5.78253 2.04274e-18)
(8.55854 5.46285 2.00333e-20)
(8.77415 5.13283 -1.02389e-18)
(8.97481 4.79318 -3.05143e-18)
(9.16005 4.44459 3.01259e-18)
(9.32944 4.08781 -3.09247e-18)
(9.4826 3.72358 -1.03027e-18)
(9.61922 3.35265 -2.06128e-18)
(9.73899 2.97585 0)
(9.84168 2.59394 0)
(9.92718 2.20784 0)
(9.9953 1.81844 -5.25416e-19)
(10.0459 1.42658 5.50281e-19)
(10.0789 1.03312 5.27111e-19)
(10.0942 0.638774 6.2697e-21)
(10.0919 0.24451 1.32388e-19)
(7.04625 6.69308 1.82207e-18)
(7.32597 6.43973 -1.65467e-18)
(7.59434 6.17327 -1.69607e-19)
(7.85065 5.89422 -1.70568e-19)
(8.09432 5.60315 4.30163e-18)
(8.32481 5.30069 -7.12572e-20)
(8.54156 4.98745 3.77277e-21)
(8.74405 4.6641 -2.72026e-18)
(8.93177 4.33131 1.79481e-18)
(9.10426 3.98977 0)
(9.26101 3.64025 9.62654e-19)
(9.40169 3.28361 9.69315e-19)
(9.52602 2.92061 0)
(9.63369 2.55208 0)
(9.72447 2.17886 0)
(9.79817 1.80175 0)
(9.85459 1.42157 -2.1711e-20)
(9.89362 1.0392 4.74621e-19)
(9.91514 0.655442 -2.27918e-19)
(9.91914 0.27125 0)
(6.78358 6.37834 1.54321e-18)
(7.05543 6.14285 0)
(7.31706 5.89442 -4.54373e-18)
(7.56766 5.63348 -1.54875e-18)
(7.80658 5.36054 -1.6275e-18)
(8.03326 5.07616 -1.72524e-18)
(8.24711 4.78092 8.15118e-19)
(8.4476 4.47542 -8.56644e-19)
(8.63418 4.16029 2.37867e-18)
(8.80641 3.83623 -7.78725e-19)
(8.96386 3.50399 0)
(9.10603 3.16431 0)
(9.23255 2.8179 0)
(9.34314 2.46553 0)
(9.43752 2.10802 -1.22976e-18)
(9.51546 1.74618 4.22854e-19)
(9.57672 1.3808 -4.46674e-19)
(9.62116 1.01274 0)
(9.64863 0.642814 2.24779e-19)
(9.65907 0.271931 0)
(6.50863 6.05112 1.32021e-18)
(6.77026 5.83178 -4.79923e-20)
(7.02259 5.59991 2.777e-18)
(7.26484 5.35586 1.38739e-18)
(7.49634 5.10007 0)
(7.71651 4.83307 -1.47327e-18)
(7.92479 4.55537 6.85136e-20)
(8.12062 4.26755 -1.49566e-18)
(8.30349 3.97018 2.06917e-18)
(8.47292 3.66393 3.27404e-20)
(8.62847 3.34941 2.81171e-20)
(8.7697 3.02726 -7.46352e-19)
(8.89619 2.69822 1.46376e-18)
(9.00763 2.36304 0)
(9.10375 2.02244 6.85724e-20)
(9.18425 1.67723 7.47318e-19)
(9.24886 1.3282 1.6384e-21)
(9.29739 0.976119 -1.53469e-20)
(9.32973 0.621795 0)
(9.34573 0.26606 -4.63317e-20)
(6.24276 5.7341 0)
(6.49305 5.52874 -4.89183e-20)
(6.73481 5.31138 1.75741e-20)
(6.96726 5.0823 -2.51034e-18)
(7.18977 4.84192 0)
(7.40177 4.59069 1.26964e-18)
(7.60271 4.32908 1.35236e-18)
(7.79207 4.05762 -3.93458e-18)
(7.96934 3.77684 -6.82851e-20)
(8.13405 3.48732 -1.26341e-18)
(8.28576 3.18965 6.95643e-19)
(8.42405 2.88444 -6.42599e-19)
(8.54852 2.57239 -7.06413e-19)
(8.6588 2.25415 0)
(8.75464 1.93047 3.72686e-19)
(8.83584 1.60195 -1.69098e-20)
(8.902 1.26945 -3.45978e-19)
(8.95292 0.933696 -1.67717e-20)
(8.98848 0.595446 -8.7092e-20)
(9.00851 0.255469 1.74557e-19)
(5.99719 5.43887 0)
(6.2359 5.24536 1.08551e-18)
(6.46665 5.04042 1.61826e-20)
(6.68875 4.8243 -1.10166e-18)
(6.90156 4.59735 0)
(7.10456 4.36 1.14612e-18)
(7.29721 4.11268 -1.09427e-18)
(7.47902 3.85585 -1.21138e-18)
(7.64951 3.59002 2.30422e-18)
(7.80823 3.31572 1.24332e-18)
(7.95475 3.03349 0)
(8.08869 2.74394 6.06438e-19)
(8.20965 2.44768 -4.39029e-21)
(8.31732 2.14535 2.1868e-20)
(8.41128 1.83763 0)
(8.4914 1.52514 -5.96934e-19)
(8.55751 1.20849 -3.12733e-19)
(8.6092 0.888508 4.56924e-19)
(8.64636 0.565911 3.08074e-19)
(8.66881 0.241409 -4.11787e-20)
(5.77559 5.17038 0)
(6.00303 4.98685 -9.37556e-19)
(6.22299 4.79246 0)
(6.43477 4.58744 -1.01153e-18)
(6.63781 4.3721 1.99149e-18)
(6.83159 4.14682 -2.03099e-18)
(7.01563 3.91199 3.17809e-18)
(7.18945 3.66805 -3.16894e-18)
(7.35261 3.41547 -2.14104e-18)
(7.50468 3.15474 -1.57915e-18)
(7.64527 2.88638 5.41517e-19)
(7.774 2.61096 -1.12267e-18)
(7.89052 2.32903 1.86501e-20)
(7.99449 2.04122 1.116e-18)
(8.08563 1.7481 -2.80759e-19)
(8.16356 1.4504 1.15013e-18)
(8.2282 1.1486 -5.65677e-19)
(8.27937 0.843422 2.60628e-19)
(8.31681 0.535591 -1.48635e-19)
(8.34032 0.225776 0)
(5.57769 4.92901 0)
(5.79451 4.75393 1.81379e-18)
(6.0042 4.56855 8.79821e-19)
(6.2061 4.37307 -9.05647e-19)
(6.39968 4.16777 -1.85521e-18)
(6.58446 3.95297 2.82306e-18)
(6.75998 3.72905 1.12913e-20)
(6.92581 3.49641 -9.20185e-19)
(7.08154 3.2555 1.97549e-18)
(7.22678 3.00679 1.02028e-18)
(7.36114 2.75077 -9.53211e-19)
(7.48428 2.48796 5.00524e-19)
(7.59585 2.21891 2.25397e-20)
(7.69556 1.94418 -5.26672e-19)
(7.78312 1.66435 -2.55216e-19)
(7.85824 1.37999 5.11742e-19)
(7.92069 1.0918 -2.56526e-19)
(7.97037 0.800286 -5.17662e-19)
(8.0071 0.506124 5.99859e-20)
(8.03063 0.209961 6.48646e-20)
(5.40126 4.7127 0)