/*--------------------------------*- C++ -*----------------------------------*\
  =========                 |
  \\      /  F ield         | OpenFOAM: The Open Source CFD Toolbox
   \\    /   O peration     | Website:  https://openfoam.org
    \\  /    A nd           | Version:  6.0
     \\/     M anipulation  |
\*---------------------------------------------------------------------------*/
FoamFile
{
    version     2.0;
    format      ascii;
    class       surfaceScalarField;
    location    "25";
    object      phi;
}
// * * * * * * * * * * * * * * * * * * * * * * * * * * * * * * * * * * * * * //

dimensions      [0 3 -1 0 0 0 0];

internalField   nonuniform List<scalar> 
4670
(
0.01042
-0.694618
0.684198
0.029208
-0.700749
0.681961
0.0486496
-0.714122
0.694681
0.0663184
-0.707911
0.690242
0.0821711
-0.692514
0.676661
0.0968419
-0.674349
0.659678
0.110969
-0.656964
0.642837
0.124961
-0.641869
0.627876
0.139095
-0.629418
0.615285
-0.620171
0.605507
0.153759
0.0106468
-0.705265
0.0288578
-0.71896
0.0472595
-0.732524
0.0637457
-0.724397
0.0784513
-0.70722
0.0920795
-0.687977
0.105247
-0.670132
0.118295
-0.654916
0.131437
-0.642561
-0.633729
0.144995
0.0105993
-0.715864
0.0279696
-0.73633
0.0451199
-0.749674
0.0602165
-0.739494
0.0735719
-0.720575
0.0859577
-0.700363
0.0979652
-0.68214
0.109853
-0.666804
0.121762
-0.65447
-0.645894
0.133926
0.0102658
-0.72613
0.0265754
-0.75264
0.0423099
-0.765409
0.0558766
-0.75306
0.0677284
-0.732427
0.07869
-0.711324
0.0893623
-0.692812
0.100008
-0.677449
0.110785
-0.665247
-0.656992
0.121883
0.00967382
-0.735804
0.0247095
-0.767675
0.0389017
-0.779601
0.0508603
-0.765019
0.0611227
-0.742689
0.0704909
-0.720693
0.0795272
-0.701848
0.088563
-0.686485
0.0979645
-0.674649
-0.667144
0.108116
0.00884516
-0.744649
0.0224219
-0.781252
0.0349301
-0.792109
0.0451979
-0.775287
0.0538568
-0.751348
0.0616397
-0.728476
0.0689416
-0.70915
0.076052
-0.693596
0.0836495
-0.682246
-0.676234
0.0927398
0.00787177
-0.752521
0.0198647
-0.793245
0.0305254
-0.80277
0.0388894
-0.783651
0.0457623
-0.758221
0.0519626
-0.734676
0.0577791
-0.714967
0.0631673
-0.698984
0.0684512
-0.68753
-0.681965
0.074182
0.00690701
-0.759428
0.0173601
-0.803698
0.0261177
-0.811528
0.0323249
-0.789858
0.0368973
-0.762794
0.0409045
-0.738683
0.04504
-0.719102
0.0492769
-0.703221
0.0524431
-0.690697
-0.680199
0.0506769
0.00612877
-0.765557
0.0152734
-0.812843
0.0223504
-0.818605
0.0265292
-0.794037
0.028517
-0.764781
0.029122
-0.739288
0.0292359
-0.719216
0.0301042
-0.704089
0.032137
-0.692729
-0.678303
0.030241
0.005689
-0.771246
0.0138053
-0.820959
0.0196467
-0.824446
0.0224899
-0.79688
0.0227891
-0.765081
0.0205186
-0.737018
0.0150417
-0.713739
0.00663636
-0.695684
0.00143608
-0.687529
-0.70341
0.026543
0.823076
0.00688392
-0.829959
0.816186
0.00688914
0.809413
0.00677315
0.802896
0.00651744
0.796736
0.0061601
0.791001
0.00573525
0.785679
0.00532104
0.780705
0.00497475
0.775949
0.00475595
0.00470302
0.880808
0.0115955
-0.88552
0.875261
0.0124362
0.869122
0.0129126
0.862592
0.0130472
0.855839
0.012913
0.849003
0.0125713
0.842155
0.0121694
0.835296
0.0118332
0.828303
0.0117486
0.0120476
0.860107
0.0129368
-0.861448
0.857838
0.0147053
0.854816
0.0159343
0.851245
0.016618
0.84729
0.0168679
0.843095
0.0167666
0.838762
0.016503
0.834295
0.0162999
0.829611
0.0164323
0.0172126
0.814972
0.0131589
-0.815195
0.813985
0.015693
0.812349
0.0175699
0.810331
0.0186366
0.808055
0.0191432
0.80573
0.0190917
0.80344
0.0187929
0.801273
0.0184668
0.7992
0.0185058
0.0195326
0.776857
0.0138249
-0.777523
0.775603
0.0169469
0.773774
0.0193988
0.771833
0.0205772
0.76976
0.0212164
0.768004
0.0208477
0.766482
0.0203152
0.765529
0.0194196
0.765179
0.0188553
0.0196315
0.748129
0.0153973
-0.749701
0.746139
0.0189367
0.743482
0.0220562
0.74104
0.0230185
0.738342
0.0239146
0.736525
0.0226649
0.734921
0.0219188
0.734633
0.0197075
0.735154
0.0183348
0.0177675
0.725326
0.0178568
-0.727785
0.722677
0.0215854
0.719085
0.0256487
0.716175
0.0259279
0.7124
0.0276901
0.710392
0.0246723
0.707995
0.0243159
0.708882
0.0188209
0.709436
0.0177808
0.0134644
0.705642
0.0211098
-0.708895
0.702558
0.0246689
0.698114
0.0300932
0.695082
0.0289598
0.689949
0.0328232
0.687822
0.0267994
0.683311
0.0288269
0.686647
0.015485
0.687074
0.0173533
0.00485488
0.687741
0.0252038
-0.691835
0.684378
0.0280316
0.679215
0.035256
0.676466
0.0317092
0.670108
0.0391809
0.667993
0.028915
0.65989
0.0369292
0.664705
0.0106708
0.667363
0.0146945
-0.0153108
0.671501
-0.676761
0.0304642
0.667787
0.0317449
0.662039
0.041004
0.659721
0.0340274
0.652769
0.0461324
0.650656
0.0310286
0.639286
0.0482993
0.63927
0.010686
0.641972
0.0119927
-0.0767483
0.854703
-0.00243967
-0.852263
0.856308
-0.00160551
0.856819
-0.000511004
0.856106
0.000713592
0.854138
0.00196808
0.851003
0.00313453
0.846828
0.004175
0.841797
0.00503149
0.836093
0.00570401
0.00613322
0.866525
-0.0120472
-0.856918
0.874831
-0.00991153
0.881677
-0.00735701
0.886902
-0.00451106
0.890441
-0.0015707
0.89234
0.00123532
0.892679
0.00383564
0.891575
0.00613593
0.889139
0.00814004
0.00975219
0.813386
-0.0246559
-0.800777
0.824797
-0.0213231
0.834742
-0.0173018
0.843067
-0.0128358
0.849772
-0.00827606
0.854931
-0.00392321
0.858605
0.000161366
0.860857
0.00388398
0.861769
0.0072285
0.0100728
0.761955
-0.0377418
-0.748869
0.773857
-0.0332251
0.784178
-0.0276227
0.792813
-0.0214708
0.799888
-0.0153511
0.80554
-0.00957468
0.809804
-0.00410316
0.812771
0.000917132
0.814512
0.00548713
0.00939073
0.730135
-0.0507729
-0.717104
0.741719
-0.0448096
0.751356
-0.0372597
0.759179
-0.0292932
0.76548
-0.0216521
0.770391
-0.0144857
0.773906
-0.00761806
0.776195
-0.00137168
0.777319
0.00436303
0.00918656
0.709765
-0.0642302
-0.696308
0.721063
-0.0561075
0.729778
-0.0459745
0.736682
-0.0361966
0.742163
-0.027134
0.746189
-0.0185112
0.748735
-0.0101642
0.750107
-0.00274387
0.750316
0.00415476
0.00980089
0.69413
-0.0787765
-0.679583
0.70524
-0.067218
0.712941
-0.0536752
0.719146
-0.0424022
0.724044
-0.0320319
0.727307
-0.0217735
0.729027
-0.0118847
0.72966
-0.00337651
0.729092
0.00472255
0.0111074
0.68048
-0.0938864
-0.66537
0.691251
-0.0779892
0.698076
-0.0605009
0.703819
-0.0481448
0.708133
-0.0363459
0.710658
-0.0242985
0.711744
-0.0129707
0.711872
-0.00350461
0.710715
0.00587995
0.0129274
0.668485
-0.104806
-0.657566
0.677925
-0.087429
0.685453
-0.0680285
0.69072
-0.0534121
0.693824
-0.0394502
0.695469
-0.0259429
0.696051
-0.013553
0.695817
-0.00327074
0.694133
0.00756382
0.0152258
0.658967
-0.667252
-0.0965221
0.660057
-0.0885185
0.676648
-0.0846191
0.681422
-0.0581863
0.681691
-0.039719
0.682225
-0.0264773
0.682523
-0.0138513
0.682007
-0.00275411
0.679782
0.00978895
0.0182464
0.102431
0.551127
-0.546002
-0.107556
0.0952379
0.56027
-0.553077
0.0863478
0.568068
-0.559178
0.0759226
0.575476
-0.565051
0.0640665
0.583849
-0.571993
0.050796
0.596124
-0.582853
0.0361078
0.619582
-0.604894
0.0204423
0.668369
-0.652703
0.00632046
0.744024
-0.729903
0.80513
-0.798809
0.103775
0.558164
-0.110812
0.0954813
0.568564
0.0859071
0.577643
0.0751362
0.586247
0.0631619
0.595823
0.0499182
0.609367
0.035348
0.634153
0.0198999
0.683817
0.00613101
0.757793
0.811261
0.0996442
0.563792
-0.105272
0.092556
0.575652
0.0839498
0.586249
0.0738011
0.596395
0.0621725
0.607452
0.0491153
0.622425
0.0346837
0.648584
0.0194213
0.699079
0.00593061
0.771284
0.817192
0.104778
0.57277
-0.113756
0.0952962
0.585134
0.0850528
0.596492
0.0739516
0.607497
0.0618359
0.619568
0.0485824
0.635678
0.0341348
0.663032
0.018999
0.714215
0.00575349
0.78453
0.822945
0.0997425
0.577995
-0.104967
0.0925859
0.592291
0.0837791
0.605299
0.0732827
0.617993
0.0613126
0.631538
0.0480496
0.648941
0.0336062
0.677475
0.0185813
0.72924
0.00557588
0.797535
0.828521
0.107112
0.587914
-0.11703
0.0965734
0.602829
0.0854062
0.616466
0.0735923
0.629807
0.0610114
0.644119
0.047518
0.662434
0.0330421
0.691951
0.0181459
0.744136
0.00539604
0.810285
0.833917
0.101637
0.591054
-0.104777
0.0942472
0.610219
0.0844323
0.626281
0.0729666
0.641273
0.0603825
0.656703
0.0468142
0.676003
0.0323335
0.706432
0.0175902
0.758879
0.00515099
0.822724
0.839068
0.113173
0.603615
-0.125734
0.0988458
0.624546
0.0851883
0.639939
0.0723799
0.654081
0.0594252
0.669657
0.0457588
0.689669
0.0313519
0.720839
0.0168823
0.773349
0.00484408
0.834762
0.843912
0.111011
0.615172
-0.122568
0.0961649
0.639392
0.0836105
0.652493
0.0712115
0.66648
0.0580304
0.682839
0.0442051
0.703495
0.0299451
0.735099
0.0158867
0.787407
0.00441889
0.84623
0.848331
0.112993
-0.165073
0.0948196
0.0819427
0.0688395
0.0553698
0.0417603
0.0279897
0.0146199
0.00393231
0.153165
0.451171
-0.45548
-0.148856
0.13441
0.453595
-0.43484
0.11365
0.449466
-0.428706
0.0941392
0.445933
-0.426422
0.0761588
0.444332
-0.426352
0.0591669
0.446827
-0.429835
0.0426249
0.460482
-0.44394
0.0260738
0.501556
-0.485005
0.0100683
0.587585
-0.57158
0.720792
-0.710724
0.141337
0.467353
-0.157519
0.126613
0.468319
0.111071
0.465007
0.0946541
0.46235
0.0778307
0.461155
0.0608702
0.463788
0.0438395
0.477512
0.0266582
0.518737
0.0102021
0.604041
0.730994
0.134954
0.485826
-0.153427
0.121286
0.481988
0.107367
0.478926
0.0926603
0.477057
0.0771132
0.476702
0.0608355
0.480065
0.0439684
0.494379
0.026632
0.536074
0.0100204
0.620653
0.741015
0.131262
0.497931
-0.143367
0.118658
0.494592
0.105107
0.492477
0.0908277
0.491336
0.0758226
0.491708
0.0600275
0.49586
0.043434
0.510973
0.026163
0.553345
0.00964019
0.637176
0.750655
0.127285
0.506836
-0.136189
0.115793
0.506084
0.102928
0.505342
0.0891072
0.505157
0.0744678
0.506347
0.0589846
0.511344
0.0426104
0.527347
0.0254674
0.570488
0.00916822
0.653475
0.759823
0.122929
0.51538
-0.131473
0.112267
0.516746
0.100252
0.517357
0.0871231
0.518286
0.0729826
0.520487
0.0578415
0.526485
0.0416867
0.543502
0.0247019
0.587472
0.00868327
0.669494
0.768506
0.117982
0.52385
-0.126452
0.108144
0.526584
0.096965
0.528536
0.0845963
0.530655
0.0710918
0.533992
0.0564382
0.541138
0.0406188
0.559321
0.0238766
0.604215
0.00820115
0.685169
0.776708
0.114673
0.532168
-0.122991
0.105156
0.536102
0.0943679
0.539324
0.0824122
0.542611
0.0693145
0.54709
0.0550343
0.555419
0.0395254
0.57483
0.0230573
0.620683
0.0077481
0.700478
0.784456
0.109679
0.539261
-0.116772
0.10116
0.544621
0.0911939
0.54929
0.0799102
0.553894
0.0673702
0.55963
0.0535459
0.569243
0.0383961
0.58998
0.0222411
0.636838
0.00733426
0.715385
0.79179
0.107791
-0.114532
0.0993355
0.0894467
0.0782905
0.0659273
0.0523171
0.0374027
0.021537
0.00701957
-0.399254
0.154038
-0.210264
-0.386989
0.112276
-0.12454
-0.379003
0.103019
-0.111005
-0.377443
0.0659028
-0.0674627
-0.375515
0.0527541
-0.0546822
-0.376637
0.0276648
-0.0265433
-0.378842
0.0120984
-0.00989348
-0.383694
-0.00766053
0.0125125
-0.390175
-0.0230316
0.0295132
-0.0381731
-0.398498
0.0464953
-0.407128
0.126325
-0.394254
0.0994026
-0.381692
0.0904567
-0.37871
0.0629213
-0.375712
0.0497558
-0.376594
0.0285475
-0.378627
0.0141307
-0.383341
-0.00294677
-0.389649
-0.0167227
-0.0301381
-0.397684
-0.407587
0.105206
-0.396517
0.0883327
-0.383985
0.0779248
-0.379496
0.058433
-0.375791
0.0460503
-0.376133
0.0288892
-0.377956
0.0159544
-0.382434
0.00153056
-0.388606
-0.0105507
-0.022224
-0.39652
-0.408528
0.0873118
-0.396871
0.0766756
-0.38553
0.0665843
-0.37982
0.0527228
-0.375558
0.0417884
-0.37509
0.0284213
-0.37648
0.0173443
-0.380518
0.0055688
-0.386402
-0.00466751
-0.0145039
-0.394122
-0.410215
0.0711754
-0.397586
0.0640462
-0.386808
0.055807
-0.380056
0.0459701
-0.375277
0.0370099
-0.373855
0.026999
-0.374583
0.0180722
-0.377922
0.00890803
-0.383259
0.000669277
-0.00722283
-0.39054
-0.414493
0.0558329
-0.401394
0.050947
-0.390577
0.0449905
-0.382857
0.0382497
-0.377416
0.0315689
-0.374902
0.024485
-0.374677
0.0178477
-0.376958
0.0111892
-0.381327
0.00503776
-0.000849164
-0.3877
-0.428845
0.0407386
-0.415514
0.0376154
-0.40432
0.0337965
-0.395612
0.0295419
-0.389185
0.0251423
-0.38529
0.0205898
-0.383637
0.016195
-0.384294
0.0118456
-0.387004
0.00774798
0.00382736
-0.391681
-0.469728
0.0254616
-0.455915
0.0238029
-0.443909
0.02179
-0.43391
0.0195433
-0.425941
0.0171735
-0.420094
0.0147428
-0.416257
0.0123577
-0.414428
0.0100162
-0.414462
0.00778197
0.00564148
-0.416276
-0.556416
0.0102976
-0.54237
0.00975737
-0.529682
0.0091015
-0.51852
0.00838125
-0.508938
0.00759192
-0.50098
0.00678469
-0.494603
0.00598032
-0.489784
0.00519762
-0.486443
0.00444108
0.00368113
-0.484483
-0.700426
-0.690669
-0.681567
-0.673186
-0.665594
-0.65881
-0.652829
-0.647632
-0.643191
-0.639509
-0.407651
-0.0502845
0.0594375
-0.417498
-0.0612038
0.0710516
-0.427905
-0.0704413
0.0808477
-0.438761
-0.0780942
0.0889508
-0.449974
-0.0839529
0.0951653
-0.461704
-0.0875268
0.0992572
-0.472803
-0.0893121
0.100411
-0.479127
-0.0900395
0.0963631
-0.486814
-0.087893
0.0955802
-0.0818257
-0.503003
0.0980146
-0.406735
-0.0412343
-0.416634
-0.0513042
-0.427172
-0.059903
-0.438196
-0.0670706
-0.449499
-0.07265
-0.460623
-0.0764024
-0.470998
-0.0789375
-0.48043
-0.0806075
-0.488858
-0.0794649
-0.0764758
-0.494208
-0.405646
-0.0321078
-0.415781
-0.0411691
-0.426696
-0.0489884
-0.438178
-0.055589
-0.449942
-0.0608851
-0.46148
-0.0648645
-0.472554
-0.0678636
-0.483375
-0.0697865
-0.49271
-0.0701305
-0.0708669
-0.498318
-0.403246
-0.0229833
-0.413556
-0.0308597
-0.424798
-0.0377457
-0.436719
-0.0436687
-0.449005
-0.0485985
-0.461275
-0.0525948
-0.473384
-0.0557547
-0.485197
-0.0579729
-0.495713
-0.059615
-0.0623454
-0.504235
-0.399407
-0.0141163
-0.409642
-0.0206244
-0.420982
-0.0264057
-0.433159
-0.0314915
-0.44588
-0.0358777
-0.458866
-0.0396096
-0.471926
-0.0426937
-0.484726
-0.0451731
-0.496735
-0.0476068
-0.0509995
-0.50808
-0.395803
-0.00601412
-0.405432
-0.0109946
-0.416343
-0.0154955
-0.42829
-0.0195438
-0.441025
-0.0231429
-0.454321
-0.026314
-0.467947
-0.0290678
-0.481578
-0.0315412
-0.495006
-0.0341791
-0.0374883
-0.508517
-0.398145
0.000450522
-0.406219
-0.00292082
-0.415706
-0.00600883
-0.426418
-0.0088315
-0.438164
-0.0113968
-0.45076
-0.0137178
-0.463997
-0.0158312
-0.477654
-0.0178844
-0.491671
-0.0201619
-0.0228981
-0.506261
-0.419795
0.00397
-0.424851
0.00213468
-0.431323
0.000463221
-0.439096
-0.00105823
-0.448046
-0.00244731
-0.458048
-0.00371562
-0.468967
-0.00491182
-0.480705
-0.0061465
-0.493274
-0.00759325
-0.0093676
-0.506804
-0.483828
0.00331537
-0.484404
0.00271075
-0.486127
0.00218531
-0.488937
0.00175214
-0.492757
0.00137239
-0.497524
0.00105179
-0.503191
0.000755266
-0.509771
0.000433442
-0.517355
-9.19639e-06
-0.000678502
-0.526044
-0.636194
-0.633483
-0.631298
-0.629546
-0.628174
-0.627122
-0.626366
-0.625933
-0.625942
-0.626621
0.000929466
-0.62755
0.0108648
-0.53598
0.0255994
-0.521539
0.0410964
-0.521758
0.0552974
-0.522718
0.0672683
-0.520051
0.0765697
-0.513536
0.082922
-0.504671
0.084515
-0.495801
-0.487655
0.0691668
0.00186031
-0.629411
0.0132081
-0.547327
0.0291501
-0.537481
0.0456251
-0.538233
0.0607159
-0.537809
0.0738493
-0.533185
0.085284
-0.524971
0.0955745
-0.514961
0.104156
-0.504382
-0.493849
0.11035
0.0029222
-0.632333
0.015752
-0.560157
0.0329312
-0.55466
0.0504205
-0.555722
0.0664953
-0.553884
0.080727
-0.547416
0.0931616
-0.537405
0.103706
-0.525506
0.11238
-0.513055
-0.501968
0.120498
0.00404381
-0.636377
0.0183673
-0.574481
0.0367112
-0.573004
0.0551193
-0.57413
0.0720752
-0.57084
0.0873575
-0.562699
0.10135
-0.551398
0.114801
-0.538957
0.128733
-0.526987
-0.516993
0.143758
0.0052403
-0.641617
0.0209547
-0.590195
0.040299
-0.592348
0.0594272
-0.593259
0.076999
-0.588411
0.0928967
-0.578596
0.107501
-0.566002
0.12131
-0.552765
0.134687
-0.540364
-0.529793
0.147486
0.00643589
-0.648053
0.0233807
-0.60714
0.0434976
-0.612465
0.0631067
-0.612868
0.081084
-0.606389
0.0974886
-0.595001
0.112843
-0.581357
0.127753
-0.567674
0.142662
-0.555273
-0.544834
0.157703
0.00759268
-0.655645
0.0255354
-0.625083
0.0461432
-0.633073
0.0659458
-0.63267
0.0840301
-0.624473
0.100568
-0.611539
0.116072
-0.596861
0.130989
-0.582592
0.145514
-0.569798
-0.558849
0.15953
0.00864774
-0.664293
0.0273154
-0.64375
0.0481076
-0.653865
0.0678098
-0.652373
0.0857484
-0.642412
0.102251
-0.628042
0.117918
-0.612527
0.133255
-0.597929
0.14856
-0.585102
-0.57438
0.164091
0.00956842
-0.673862
0.0286488
-0.662831
0.0492938
-0.67451
0.0685793
-0.671658
0.0860601
-0.659893
0.102183
-0.644165
0.117572
-0.627916
0.1327
-0.613058
0.147824
-0.600226
-0.589712
0.163155
0.0103367
0.0294667
0.0496372
0.0682214
0.0849903
0.100503
0.115424
0.130243
0.145301
0.161096
0.103759
-3.00429
3.05429
0.0804722
-2.72149
2.74478
0.0707137
-2.36957
2.37933
0.0545697
-2.11468
2.13082
0.0440367
-1.81385
1.82438
0.0390927
-1.40825
1.4132
0.0315696
-1.00701
1.01453
0.0258609
-0.680295
0.686004
0.0221478
-0.446784
0.450497
0.0199246
-0.289223
0.291447
0.0186988
-0.189935
0.19116
0.0182777
-0.13175
0.132171
0.0184123
-0.0996122
0.0994776
0.0187687
-0.0803925
0.0800361
0.019084
-0.0669746
0.0666593
0.0192084
-0.0536311
0.0535066
0.0189311
-0.0375729
0.0378502
0.0181848
-0.0158213
0.0165676
0.0141756
0.0392494
-0.0352403
0.0768229
-0.0730469
0.0892084
-2.94851
0.0568488
-2.68913
0.0451706
-2.35789
0.033704
-2.10321
0.0269966
-1.80714
0.0262078
-1.40746
0.0229028
-1.00371
0.019908
-0.677301
0.01801
-0.444886
0.0168883
-0.288102
0.0162577
-0.189304
0.0161277
-0.13162
0.0163815
-0.099866
0.0167624
-0.0807734
0.0170537
-0.0672658
0.0171302
-0.0537077
0.0168214
-0.0372641
0.0160067
-0.0150066
0.0118909
0.0433652
0.0806321
0.0720983
-2.88668
0.0336812
-2.65072
0.0203549
-2.34456
0.0131382
-2.09599
0.0107447
-1.80475
0.0138279
-1.41055
0.0144897
-1.00437
0.0141419
-0.676953
0.0140023
-0.444746
0.0139556
-0.288055
0.0139004
-0.189249
0.0140451
-0.131765
0.0144092
-0.10023
0.0148137
-0.081178
0.0150866
-0.0675386
0.0151255
-0.0537466
0.0148001
-0.0369387
0.0139329
-0.0141393
0.009775
0.0475231
0.0844093
0.0562121
-2.82101
0.0163201
-2.61082
0.00140583
-2.32965
-0.00433796
-2.09025
-0.00398658
-1.8051
0.0020421
-1.41658
0.006272
-1.0086
0.00852512
-0.679206
0.0101127
-0.446334
0.0111266
-0.289069
0.0116344
-0.189757
0.0120408
-0.132171
0.0125075
-0.100697
0.012935
-0.0816055
0.0131946
-0.0677982
0.013205
-0.053757
0.0128759
-0.0366097
0.0119707
-0.013234
0.00784377
0.05165
0.0880799
0.0430178
-2.75591
0.00666433
-2.57447
-0.0121854
-2.3108
-0.0200706
-2.08237
-0.0186981
-1.80647
-0.00998814
-1.42529
-0.00202646
-1.01656
0.00298546
-0.684218
0.00632263
-0.449671
0.00839816
-0.291144
0.00946487
-0.190823
0.010124
-0.13283
0.0106874
-0.10126
0.0111374
-0.0820556
0.0113884
-0.0680492
0.0113781
-0.0537467
0.0110561
-0.0362877
0.010126
-0.012304
0.00611142
0.0556647
0.091562
0.0342542
-2.69742
-0.00547459
-2.53474
-0.0320624
-2.28421
-0.0421929
-2.07224
-0.0382397
-1.81042
-0.0242967
-1.43923
-0.0109396
-1.02992
-0.00258666
-0.692571
0.0026046
-0.454862
0.00576277
-0.294303
0.00739415
-0.192455
0.00830198
-0.133738
0.00895798
-0.101916
0.00943086
-0.0825285
0.00967746
-0.0682958
0.00965286
-0.0537221
0.00934639
-0.0359812
0.00840339
-0.011361
0.00459173
0.0594763
0.0947673
0.00120521
-2.62445
-0.0544849
-2.47905
-0.0788364
-2.25986
-0.080937
-2.07013
-0.0666597
-1.8247
-0.0420796
-1.46381
-0.0207494
-1.05125
-0.00826464
-0.705056
-0.00107457
-0.462052
0.00320527
-0.298582
0.0054198
-0.194669
0.00657902
-0.134897
0.0073266
-0.102664
0.0078233
-0.0830252
0.00806924
-0.0685417
0.00803566
-0.0536885
0.00775099
-0.0356965
0.00680523
-0.0104152
0.00330044
0.0629811
0.0975968
-0.0780856
-2.49568
-0.131802
-2.42534
-0.138054
-2.25361
-0.124925
-2.08326
-0.0959805
-1.85365
-0.0595447
-1.50025
-0.030415
-1.08038
-0.0138699
-0.721601
-0.00470029
-0.471222
0.000717087
-0.304
0.00353804
-0.19749
0.00495753
-0.136317
0.00579861
-0.103505
0.00632105
-0.0835476
0.00656969
-0.0687904
0.00653114
-0.0536499
0.00627229
-0.0354377
0.00533185
-0.00947478
0.00232746
0.0659855
0.100004
-0.0936754
-2.37177
-0.131114
-2.3879
-0.141872
-2.24285
-0.131878
-2.09326
-0.103437
-1.88209
-0.0675301
-1.53615
-0.0373563
-1.11055
-0.0187876
-0.740169
-0.00809264
-0.481917
-0.001648
-0.310444
0.00176746
-0.200906
0.00344723
-0.137997
0.00438114
-0.104439
0.00493022
-0.0840967
0.00518389
-0.069044
0.00514298
-0.053609
0.00491169
-0.0352064
0.00398115
-0.00854424
0.00139682
0.0685698
0.101946
0.268332
-2.61356
0.136394
-2.25596
0.0314608
-2.13792
-0.022831
-2.03897
-0.052385
-1.85253
-0.0557525
-1.53279
-0.0393154
-1.12699
-0.0223202
-0.757165
-0.0109542
-0.493283
-0.00376805
-0.317631
0.000159754
-0.204833
0.0020711
-0.139908
0.00308531
-0.105453
0.00365863
-0.08467
0.00391778
-0.0693032
0.00387641
-0.0535677
0.00367079
-0.0350008
0.00275766
-0.0076311
0.000569204
0.0707583
0.103447
0.763134
-2.08654
-1.29015
0.610377
-2.1032
0.660477
-2.18802
0.542113
-1.9206
0.366471
-1.67689
0.217461
-1.38378
0.127137
-1.03666
0.0758585
-0.705886
0.0451655
-0.46259
0.0288329
-0.301298
0.020083
-0.196084
0.0151198
-0.134945
0.0122298
-0.102563
0.0102162
-0.0826564
0.00839396
-0.067481
0.00649373
-0.0516674
0.00467879
-0.0331858
0.00174229
-0.00469461
-0.0016054
0.074106
0.104327
1.10567
-1.74934
-1.44286
0.900021
-1.89756
0.644927
-1.93292
0.493065
-1.76874
0.351775
-1.5356
0.228565
-1.26057
0.138469
-0.946567
0.0843235
-0.651741
0.0516847
-0.429951
0.0326764
-0.28229
0.0219392
-0.185346
0.0155293
-0.128535
0.0115324
-0.098566
0.00863866
-0.0797627
0.00605173
-0.0648941
0.00350471
-0.0491204
0.00122111
-0.0309022
-0.00214889
-0.00132461
-0.00454733
0.0765044
0.103644
1.32414
-1.39773
-1.67575
1.01306
-1.58648
0.772301
-1.69216
0.61562
-1.61206
0.455865
-1.37585
0.293748
-1.09845
0.16975
-0.822568
0.0989033
-0.580894
0.0597538
-0.390802
0.0366386
-0.259175
0.0234002
-0.172108
0.0153411
-0.120476
0.0100236
-0.0932485
0.0060301
-0.0757691
0.00249328
-0.0613572
-0.000817685
-0.0458095
-0.00361582
-0.0281041
-0.00734304
0.00240262
-0.00827194
0.0774333
0.100824
1.44021
-1.04863
-1.78932
1.15475
-1.30101
0.885075
-1.42249
0.643866
-1.37085
0.462512
-1.19449
0.303244
-0.939181
0.180021
-0.699345
0.107652
-0.508524
0.0671658
-0.350316
0.0407651
-0.232774
0.0245045
-0.155847
0.0144304
-0.110402
0.00750436
-0.0863224
0.00215629
-0.0704211
-0.00252256
-0.0566784
-0.00668746
-0.0416445
-0.0100241
-0.0247675
-0.0138772
0.00625571
-0.0127502
0.0763064
0.0953264
1.57468
-0.807176
-1.81613
1.27874
-1.00508
0.969723
-1.11347
0.748625
-1.14975
0.562493
-1.00836
0.368562
-0.745251
0.214357
-0.54514
0.124576
-0.418743
0.076333
-0.302072
0.0451641
-0.201605
0.0251688
-0.135852
0.0126313
-0.0978641
0.00377631
-0.0774675
-0.00319366
-0.0634511
-0.00918488
-0.0506872
-0.0142459
-0.0365835
-0.0180943
-0.0209191
-0.0216791
0.00984055
-0.0178868
0.0725141
0.0867182
1.6393
-0.592045
-1.85443
1.32358
-0.689359
1.04353
-0.833419
0.766457
-0.872676
0.481024
-0.722926
0.29197
-0.556196
0.194124
-0.447294
0.132207
-0.356826
0.0843062
-0.254172
0.0487447
-0.166044
0.0249694
-0.112077
0.00970975
-0.0826045
-0.00133914
-0.0664186
-0.0101611
-0.0546291
-0.0175752
-0.0432731
-0.0235071
-0.0306516
-0.0277633
-0.0166629
-0.0305122
0.0125895
-0.0234948
0.0654967
0.074782
1.5447
-0.379965
-1.75678
1.29712
-0.441786
1.02232
-0.558616
0.716771
-0.567128
0.500686
-0.506841
0.384749
-0.440259
0.279918
-0.342464
0.173209
-0.250118
0.095432
-0.176394
0.0500872
-0.120699
0.0231269
-0.0851164
0.005407
-0.0648846
-0.00794737
-0.0530642
-0.0187577
-0.0438188
-0.0276112
-0.0344196
-0.0343189
-0.023944
-0.0387828
-0.012199
-0.0399895
0.0137961
-0.0293232
0.0548304
0.0596014
1.34997
-0.216456
-1.51348
1.16162
-0.25343
0.90682
-0.30382
0.66379
-0.324097
0.488357
-0.331408
0.337872
-0.289775
0.214201
-0.218793
0.127356
-0.163273
0.075138
-0.124177
0.0430314
-0.0885922
0.0189737
-0.0610588
-0.000294934
-0.045616
-0.015978
-0.0373812
-0.0288009
-0.0309958
-0.0390133
-0.0242073
-0.0463612
-0.0165961
-0.0507484
-0.00781176
-0.0496614
0.0127091
-0.0351361
0.0403052
0.041557
1.1397
-0.0988636
-1.2573
0.994056
-0.107781
0.824045
-0.13381
0.662594
-0.162646
0.50365
-0.172464
0.359565
-0.14569
0.249825
-0.109052
0.164819
-0.0782667
0.0976993
-0.0570573
0.0495142
-0.0404071
0.0166782
-0.0282227
-0.00683184
-0.0221059
-0.0251158
-0.0190972
-0.0398391
-0.0162725
-0.0512839
-0.0127624
-0.0591865
-0.00869345
-0.063203
-0.00379527
-0.0591908
0.00869683
-0.0408276
0.0219421
0.0211803
1.04207
-1.14093
0.934285
0.800475
0.637829
0.465366
0.319676
0.210624
0.132357
0.0753001
0.0348929
0.00667023
-0.0154357
-0.034533
-0.0508055
-0.063568
-0.0722614
-0.0760567
-0.0673598
-0.0454178
1.512
0.00396935
-1.48551
1.53305
0.0106991
1.54384
0.0302096
1.55062
0.0272483
1.5449
0.0518548
1.53351
0.0424138
1.50143
0.0803849
1.45643
0.055682
1.37556
0.0928691
0.00865445
1.61956
-0.0153343
-1.60026
1.63137
-0.001105
1.63938
0.0221951
1.63559
0.031033
1.62735
0.0601023
1.60081
0.0689465
1.57465
0.106546
1.53161
0.0987301
1.50887
0.115601
0.0746668
1.69096
-0.0204763
-1.68581
1.69304
-0.00319184
1.69434
0.020896
1.68958
0.0357908
1.68711
0.0625733
1.68317
0.0728874
1.69192
0.0977988
1.69815
0.0924935
1.70834
0.105413
0.107263
1.68602
-0.0202243
-1.68627
1.68787
-0.00504243
1.6958
0.0129622
1.70653
0.0250641
1.72698
0.0421189
1.74921
0.0506606
1.77597
0.0710349
1.7868
0.0816662
1.78822
0.103992
0.106162
1.70966
-0.0233861
-1.7065
1.71693
-0.0123174
1.73022
-0.000319611
1.74458
0.0106959
1.76056
0.0261387
1.76987
0.041358
1.77862
0.0622798
1.78476
0.075529
1.80074
0.0880077
0.090776
1.72502
-0.0254692
-1.72294
1.72864
-0.0159328
1.73341
-0.00509473
1.73749
0.00661997
1.74376
0.0198703
1.7536
0.031516
1.77331
0.0425741
1.79921
0.0496229
1.8292
0.0580211
0.0655447
1.60165
-0.0221702
-1.60495
1.60083
-0.0151172
1.60367
-0.00793757
1.6114
-0.00110925
1.62588
0.0053916
1.6463
0.0110992
1.67164
0.0172328
1.69809
0.0231733
1.72573
0.0303828
0.034496
1.42095
-0.0164955
-1.42662
1.41865
-0.0128211
1.41994
-0.00922495
1.42457
-0.00573683
1.43222
-0.00225859
1.44216
0.00116053
1.45477
0.00461787
1.47034
0.00760241
1.49022
0.010502
0.0112385
1.23102
-0.0082743
-1.23925
1.22499
-0.0067843
1.22111
-0.00535026
1.21939
-0.00401214
1.21993
-0.00280365
1.22286
-0.00176136
1.22837
-0.000893209
1.23619
-0.0002263
1.24634
0.000352626
0.000286208
1.16212
-1.1704
1.15534
1.14999
1.14598
1.14317
1.14141
1.14052
1.14029
1.14064
1.18171
0.34322
-1.62145
1.24448
-0.151286
1.31353
-0.153667
1.33148
-0.076138
1.34582
-0.0540644
1.36954
-0.0501937
1.39687
-0.0411828
1.42539
-0.0312704
1.45456
-0.0193795
-0.0127048
1.39324
0.219119
-1.26914
1.42819
-0.18624
1.45491
-0.180388
1.48076
-0.101981
1.49281
-0.06612
1.50928
-0.0666579
1.53179
-0.0636929
1.5555
-0.0549791
1.57913
-0.0430165
-0.0338301
1.55942
0.217668
-1.55797
1.60673
-0.233548
1.62054
-0.194202
1.6286
-0.110038
1.63655
-0.0740715
1.64475
-0.0748571
1.65608
-0.0750162
1.66844
-0.0673452
1.67913
-0.0537022
-0.0405163
1.69919
0.210374
-1.69189
1.6974
-0.231762
1.69521
-0.192014
1.6939
-0.108724
1.69188
-0.0720526
1.68968
-0.0726575
1.68935
-0.0746903
1.68949
-0.0674822
1.68884
-0.0530528
-0.0379437
1.80854
0.195694
-1.79386
1.77185
-0.195072
1.74732
-0.167483
1.74137
-0.102777
1.73615
-0.0668311
1.72706
-0.0635657
1.71837
-0.0660039
1.7119
-0.0610158
1.70812
-0.0492703
-0.03632
1.87248
0.147763
-1.82455
1.82186
-0.144447
1.78177
-0.127394
1.76568
-0.0866856
1.75944
-0.0605928
1.75013
-0.054253
1.73856
-0.0544392
1.72917
-0.0516218
1.72417
-0.0442731
-0.0350888
1.77669
0.0902085
-1.71913
1.72391
-0.0916679
1.68105
-0.0845362
1.66019
-0.0658218
1.65146
-0.0518683
1.64277
-0.0455636
1.63137
-0.0430387
1.6199
-0.0401501
1.61095
-0.0353229
-0.0290849
1.59873
0.0354226
-1.54394
1.55743
-0.0503665
1.52236
-0.0494724
1.50038
-0.0438354
1.48623
-0.0377172
1.47374
-0.0330729
1.46045
-0.0297547
1.44715
-0.0268439
1.43552
-0.0236925
-0.0201932
1.40627
0.00176566
-1.37261
1.37768
-0.0217798
1.35033
-0.0221174
1.32733
-0.0208417
1.30824
-0.0186286
1.29152
-0.0163449
1.27616
-0.0143969
1.26208
-0.0127636
1.24965
-0.0112688
-0.00978478
1.31832
-1.31656
1.29654
1.27443
1.25358
1.23496
1.21861
1.20421
1.19145
1.18018
0.135981
0.0918696
-0.0975994
0.161183
0.270384
-0.295586
0.222956
0.514257
-0.57603
0.297372
0.831903
-0.90632
0.373428
1.10992
-1.18598
0.458382
1.36
-1.44496
0.580193
1.59292
-1.71473
0.72616
1.85682
-2.00279
0.962894
1.92382
-2.16056
1.77418
-2.43274
0.159672
0.0841525
0.184346
0.245709
0.252462
0.446142
0.344401
0.739964
0.44462
1.0097
0.547369
1.25725
0.695596
1.4447
0.867639
1.68478
1.0767
1.71476
1.58174
0.186981
0.0730637
0.212184
0.220506
0.28429
0.374036
0.394969
0.629284
0.524936
0.879737
0.660025
1.12217
0.837724
1.267
1.03745
1.48506
1.18498
1.56723
1.20875
0.217168
0.0589673
0.246264
0.191409
0.314052
0.306248
0.436612
0.506725
0.608438
0.70791
0.766987
0.963617
0.95301
1.08098
1.23623
1.20184
1.34741
1.45604
0.864267
0.251
0.0434793
0.284892
0.157518
0.350666
0.240474
0.461141
0.396249
0.642977
0.526075
0.897188
0.709406
1.01253
0.965637
1.37357
0.840798
1.57872
1.25089
0.649127
0.290415
0.0294698
0.332322
0.11561
0.378021
0.194776
0.511469
0.262801
0.582605
0.454939
0.920884
0.371127
1.06086
0.825661
1.37516
0.526494
1.85061
0.775447
0.675185
0.337639
0.027486
0.387392
0.0658568
0.395005
0.187163
0.537479
0.120327
0.584841
0.407577
0.809802
0.146165
1.13114
0.504324
1.31761
0.34002
1.66589
0.427175
0.621938
0.402586
0.0313059
0.444499
0.0239435
0.490873
0.14079
0.576226
0.0349734
0.754608
0.229195
0.805389
0.0953851
1.08008
0.229635
1.18737
0.232728
1.37117
0.243376
0.449164
0.474646
0.0180681
0.49395
0.00463997
0.579124
0.0556147
0.597954
0.0161436
0.746009
0.0811401
0.771393
0.0700007
0.912124
0.0889043
1.0311
0.113751
1.17643
0.0980454
0.252984
0.535333
0.539973
0.595588
0.611731
0.692872
0.762872
0.851777
0.965528
1.06357
0.0754316
0.112361
-0.118013
0.0928107
0.374894
-0.392273
0.111456
0.685621
-0.704266
0.124139
0.951074
-0.963756
0.134903
1.17222
-1.18299
0.146515
1.41901
-1.43062
0.154139
1.69483
-1.70245
0.158996
1.94823
-1.95308
0.155813
2.24436
-2.24117
2.64404
-2.59579
0.0747881
0.107547
0.0906707
0.359011
0.108565
0.667726
0.120044
0.939595
0.128648
1.16362
0.13809
1.40957
0.143248
1.68967
0.145552
1.94592
0.147644
2.24227
2.68088
0.0742069
0.103582
0.0884086
0.34481
0.105308
0.650827
0.115454
0.929448
0.121636
1.15744
0.128813
1.40239
0.130921
1.68756
0.130192