/*--------------------------------*- C++ -*----------------------------------*\
  =========                 |
  \\      /  F ield         | OpenFOAM: The Open Source CFD Toolbox
   \\    /   O peration     | Website:  https://openfoam.org
    \\  /    A nd           | Version:  6.0
     \\/     M anipulation  |
\*---------------------------------------------------------------------------*/
FoamFile
{
    version     2.0;
    format      ascii;
    class       volScalarField;
    location    "1";
    object      p;
}
// * * * * * * * * * * * * * * * * * * * * * * * * * * * * * * * * * * * * * //

dimensions      [0 2 -2 0 0 0 0];

internalField   nonuniform List<scalar> 
2400
(
-37.9914
-21.6993
-13.1894
-8.41544
-5.33609
-3.39332
-2.19125
-1.43556
-0.949155
-0.645644
-38.0553
-21.7596
-13.2461
-8.47139
-5.39359
-3.45298
-2.252
-1.49557
-1.00673
-0.699803
-38.1448
-21.8352
-13.3161
-8.54108
-5.46542
-3.52731
-2.32767
-1.57068
-1.07959
-0.769181
-38.2553
-21.9252
-13.3972
-8.62175
-5.54861
-3.6134
-2.41544
-1.6582
-1.16518
-0.851541
-38.3812
-22.0257
-13.4868
-8.71057
-5.64011
-3.70801
-2.51198
-1.75477
-1.26017
-0.943699
-38.5183
-22.1328
-13.5811
-8.80384
-5.73625
-3.80744
-2.6135
-1.85651
-1.36058
-1.0415
-38.666
-22.2437
-13.676
-8.89728
-5.83294
-3.9078
-2.71631
-1.95985
-1.46276
-1.14128
-38.8259
-22.3573
-13.7678
-8.9862
-5.92533
-4.00435
-2.81581
-2.06045
-1.56314
-1.24195
-38.9927
-22.4712
-13.8546
-9.06769
-6.0094
-4.09185
-2.90534
-2.1506
-1.65498
-1.34063
-39.1378
-22.5772
-13.9364
-9.14229
-6.0846
-4.16818
-2.9804
-2.22289
-1.72753
-1.41532
-39.1804
-39.2938
-39.3624
-39.4035
-39.4209
-39.4144
-39.3857
-39.3396
-39.2817
-39.2176
-22.4795
-22.5958
-22.6815
-22.7414
-22.7772
-22.7899
-22.7818
-22.756
-22.7155
-22.6589
-13.8447
-13.9514
-14.0329
-14.0895
-14.1223
-14.1335
-14.1257
-14.1015
-14.0623
-14.0085
-9.14582
-9.23556
-9.30111
-9.3426
-9.36155
-9.36061
-9.34254
-9.31011
-9.26514
-9.20954
-6.20724
-6.27804
-6.32528
-6.3497
-6.35311
-6.3382
-6.30782
-6.26507
-6.21255
-6.1525
-4.39737
-4.45114
-4.48227
-4.49183
-4.48169
-4.45445
-4.41306
-4.36095
-4.30137
-4.2369
-3.28866
-3.32892
-3.34752
-3.34563
-3.32507
-3.28837
-3.23847
-3.17915
-3.11425
-3.047
-2.58199
-2.61243
-2.62214
-2.61229
-2.58459
-2.54141
-2.48563
-2.42139
-2.3532
-2.2851
-2.1063
-2.13034
-2.13463
-2.12028
-2.08881
-2.04235
-1.98351
-1.91672
-1.84753
-1.78275
-1.7729
-1.79109
-1.79104
-1.77374
-1.74045
-1.69289
-1.63303
-1.5648
-1.49324
-1.43446
-36.0159
-36.4306
-36.8179
-37.1976
-37.5662
-37.9134
-38.2317
-38.5185
-38.7734
-38.9966
-19.6155
-19.9855
-20.3458
-20.6968
-21.0329
-21.3474
-21.6358
-21.8958
-22.1258
-22.3228
-11.3056
-11.6402
-11.9693
-12.2862
-12.5851
-12.8623
-13.1152
-13.342
-13.5407
-13.7095
-6.88425
-7.19236
-7.49351
-7.78032
-8.04789
-8.29391
-8.5167
-8.71471
-8.88618
-9.03043
-4.18514
-4.47051
-4.74758
-5.009
-5.25062
-5.47079
-5.66821
-5.84155
-5.9895
-6.11174
-2.58649
-2.85172
-3.1077
-3.34651
-3.56511
-3.7626
-3.93784
-4.08966
-4.21708
-4.31987
-1.65906
-1.90743
-2.14499
-2.36322
-2.5612
-2.73882
-2.895
-3.02864
-3.13896
-3.22577
-1.09867
-1.33362
-1.55608
-1.75655
-1.93707
-2.09827
-2.239
-2.35823
-2.45527
-2.52994
-0.737928
-0.961078
-1.1712
-1.35742
-1.52393
-1.67193
-1.80046
-1.9086
-1.99575
-2.0617
-0.535941
-0.747159
-0.938832
-1.10843
-1.25923
-1.39211
-1.50673
-1.6025
-1.6789
-1.73573
1.28835
1.19773
0.999032
0.603964
-0.169807
-1.6281
-4.17408
-8.36127
-16.2588
-32.0795
1.15765
1.05476
0.84497
0.43951
-0.342062
-1.80503
-4.35546
-8.55265
-16.4737
-32.3346
1.00961
0.89303
0.671
0.253562
-0.537957
-2.00825
-4.56647
-8.77772
-16.7245
-32.6211
0.845721
0.714311
0.479141
0.0483875
-0.754913
-2.23474
-4.80343
-9.03272
-17.0113
-32.9502
0.667464
0.520494
0.271574
-0.173593
-0.990289
-2.48167
-5.06315
-9.31386
-17.3302
-33.3189
0.476506
0.313833
0.0509306
-0.409509
-1.24106
-2.74595
-5.34253
-9.61747
-17.6758
-33.7197
0.274971
0.0972307
-0.179465
-0.655842
-1.50359
-3.02387
-5.63774
-9.93951
-18.0433
-34.1459
0.0666767
-0.124601
-0.414852
-0.908106
-1.77358
-3.31119
-5.94452
-10.2756
-18.4283
-34.5935
-0.142421
-0.345469
-0.649874
-1.1617
-2.0466
-3.60325
-6.25769
-10.62
-18.8256
-35.0592
-0.337516
-0.551425
-0.877133
-1.4122
-2.31876
-3.89623
-6.57302
-10.9666
-19.2269
-35.5393
1.39928
1.38249
1.256
0.889911
0.0924298
-1.43328
-4.05714
-8.28357
-16.1275
-31.7718
1.48717
1.45406
1.31534
0.949774
0.162256
-1.34713
-3.95079
-8.1539
-15.9738
-31.6045
1.56429
1.52197
1.3748
1.00855
0.226998
-1.27157
-3.86174
-8.04933
-15.8499
-31.461
1.61199
1.56556
1.41384
1.04841
0.273296
-1.21488
-3.79369
-7.97125
-15.7626
-31.3661
1.63524
1.58565
1.42952
1.064
0.294452
-1.18386
-3.75221
-7.92312
-15.714
-31.3231
1.63482
1.58168
1.42076
1.05387
0.288249
-1.18172
-3.74116
-7.90817
-15.7047
-31.3286
1.61042
1.55276
1.38643
1.01694
0.253577
-1.20987
-3.76238
-7.9283
-15.7354
-31.3812
1.56253
1.499
1.32632
0.952791
0.189855
-1.26903
-3.81678
-7.98458
-15.8073
-31.4821
1.4921
1.42118
1.24102
0.861903
0.0974169
-1.35899
-3.90409
-8.07669
-15.9208
-31.6329
1.40022
1.32024
1.13137
0.745014
-0.0231513
-1.47941
-4.02401
-8.20364
-16.0738
-31.8347
1.42289
1.43307
1.35188
1.21863
1.05096
0.861567
0.660204
0.454066
0.248241
0.0458582
1.37722
1.37504
1.30241
1.17482
1.00791
0.815379
0.607766
0.39298
0.176658
-0.0376929
1.23133
1.20127
1.11997
0.988749
0.817526
0.618348
0.401515
0.175149
-0.0548283
-0.284674
0.845097
0.788463
0.690289
0.547555
0.365991
0.155306
-0.0750245
-0.316958
-0.564405
-0.813415
0.0237655
-0.06115
-0.182011
-0.342591
-0.539807
-0.76613
-1.01326
-1.27352
-1.54082
-1.81109
-1.52882
-1.64381
-1.79114
-1.97407
-2.19103
-2.43628
-2.70274
-2.98323
-3.27184
-3.56456
-4.18121
-4.32644
-4.50171
-4.70951
-4.94918
-5.21623
-5.50461
-5.8077
-6.11994
-6.43757
-8.43628
-8.6092
-8.81115
-9.04481
-9.30996
-9.60271
-9.91776
-10.2493
-10.5922
-10.9421
-16.2983
-16.4896
-16.7141
-16.9753
-17.2715
-17.5985
-17.9516
-18.3264
-18.717
-19.1141
-31.9244
-32.1149
-32.356
-32.6448
-32.9768
-33.3464
-33.7496
-34.1829
-34.6384
-35.0939
-0.151766
-0.344384
-0.53366
-0.721651
-0.909937
-1.09696
-1.27542
-1.43017
-1.52167
-1.445
-0.248469
-0.454996
-0.658699
-0.860985
-1.06235
-1.25994
-1.44562
-1.60087
-1.67877
-1.60547
-0.512464
-0.736974
-0.959173
-1.1795
-1.39711
-1.6078
-1.80263
-1.9617
-2.04092
-1.99015
-1.06161
-1.30702
-1.54996
-1.78967
-2.02394
-2.2473
-2.44942
-2.6093
-2.69013
-2.66325
-2.08137
-2.34869
-2.61251
-2.87076
-3.11997
-3.35362
-3.56012
-3.71873
-3.8016
-3.79617
-3.85772
-4.14704
-4.43104
-4.70638
-4.96863
-5.21044
-5.41957
-5.57718
-5.66415
-5.67784
-6.75591
-7.06854
-7.37329
-7.6659
-7.9413
-8.19146
-8.40428
-8.56402
-8.65906
-8.69216
-11.2918
-11.632
-11.9612
-12.2749
-12.5672
-12.8297
-13.0514
-13.2207
-13.3316
-13.3883
-19.5031
-19.8784
-20.2404
-20.5845
-20.9028
-21.186
-21.4256
-21.6154
-21.7525
-21.8344
-35.5177
-35.9328
-36.3382
-36.7238
-37.0788
-37.3928
-37.6601
-37.8796
-38.0481
-38.1448
-38.1384
-21.8561
-13.3982
-8.67764
-5.63871
-3.72928
-2.56108
-1.84522
-1.40981
-1.13371
-38.0937
-21.8308
-13.368
-8.62999
-5.57158
-3.64219
-2.45302
-1.71523
-1.25463
-0.957704
-38.0358
-21.7827
-13.317
-8.56676
-5.49441
-3.55171
-2.35009
-1.60032
-1.12792
-0.829704
-37.975
-21.7272
-13.2588
-8.50103
-5.42079
-3.47139
-2.26434
-1.51005
-1.03381
-0.73712
-37.9195
-21.674
-13.2036
-8.44183
-5.35799
-3.40629
-2.19803
-1.44301
-0.965861
-0.670748
-37.8767
-21.6306
-13.1583
-8.39469
-5.30999
-3.35845
-2.15089
-1.3964
-0.918887
-0.624601
-37.8546
-21.6029
-13.1271
-8.36281
-5.27884
-3.32869
-2.12247
-1.36857
-0.890299
-0.59581
-37.8607
-21.596
-13.1131
-8.34779
-5.26532
-3.31707
-2.11225
-1.35854
-0.878921
-0.58328
-37.8966
-21.6125
-13.1184
-8.35099
-5.27012
-3.32391
-2.12026
-1.36626
-0.884746
-0.58712
-37.9483
-21.6499
-13.1448
-8.37391
-5.29396
-3.34952
-2.14671
-1.39198
-0.908133
-0.607835
-0.114446
-0.102773
-0.0237034
-0.00400426
0.00291929
0.00319415
0.0017219
0.000526943
-0.000208581
-0.000575832
-0.000707265
-0.000708506
-0.000645574
-0.000556038
-0.000460443
-0.000367085
-0.000279435
-0.000197046
-0.000118052
-3.71759e-05
-0.158628
-0.100244
-0.025883
-0.00464896
0.0018076
0.00191534
0.000463307
-0.000632677
-0.00122179
-0.00142514
-0.00139638
-0.00125252
-0.00106327
-0.000869232
-0.000687192
-0.000526379
-0.000387045
-0.000264822
-0.000155066
-4.77553e-05
-0.216479
-0.105381
-0.0315115
-0.00707019
-0.000164439
0.000220705
-0.000994398
-0.0018879
-0.0022806
-0.00229711
-0.00209701
-0.00180192
-0.00148371
-0.0011829
-0.000915125
-0.000686898
-0.000495399
-0.000333007
-0.000192207
-5.83515e-05
-0.28746
-0.118609
-0.040461
-0.0113192
-0.00300804
-0.00189151
-0.00265144
-0.00323881
-0.00338589
-0.00319188
-0.00280892
-0.00235693
-0.00190694
-0.00149791
-0.00114369
-0.00084769
-0.000603891
-0.000401318
-0.000229431
-6.90368e-05
-0.369502
-0.139596
-0.0524544
-0.0173984
-0.00672979
-0.00442424
-0.00450957
-0.00468585
-0.0045375
-0.00410924
-0.0035319
-0.00291738
-0.00233286
-0.00181418
-0.00137283
-0.00100869
-0.000712486
-0.000469765
-0.000266749
-7.98332e-05
-0.458422
-0.167411
-0.0671184
-0.0252179
-0.0112979
-0.00736149
-0.00656061
-0.00622419
-0.00573239
-0.00504728
-0.00426479
-0.00348259
-0.00276104
-0.00213148
-0.00160241
-0.00116982
-0.000821152
-0.00053832
-0.000304173
-9.0763e-05
-0.554089
-0.204574
-0.0854391
-0.0350366
-0.0167748
-0.0107053
-0.00879718
-0.00784052
-0.00696134
-0.00600091
-0.0050059
-0.00405024
-0.00318907
-0.00244789
-0.00183262
-0.00133213
-0.00093091
-0.000608108
-0.000341441
-0.000101842
-0.671987
-0.260707
-0.111364
-0.0483696
-0.0237932
-0.0147071
-0.0113111
-0.00957867
-0.00824187
-0.00697513
-0.00575361
-0.00462107
-0.00361889
-0.00276546
-0.00206178
-0.00149287
-0.00103941
-0.000676647
-0.000379011
-0.000113101
-0.812731
-0.332202
-0.144619
-0.0660291
-0.03316
-0.0198712
-0.0143864
-0.0115895
-0.00965803
-0.00801858
-0.0065374
-0.00521083
-0.00405849
-0.00308795
-0.00229334
-0.00165477
-0.00114844
-0.00074542
-0.000416763
-0.000124571
-0.860348
-0.363884
-0.163171
-0.0796433
-0.0418905
-0.0251914
-0.0177245
-0.0138128
-0.0112214
-0.00915887
-0.00738378
-0.00584048
-0.00452308
-0.00342565
-0.00253374
-0.0018215
-0.00125986
-0.000815188
-0.000454953
-0.000136331
-0.733709
-0.328476
-0.14616
-0.0760713
-0.0429874
-0.0273466
-0.019938
-0.0158011
-0.0129114
-0.0105509
-0.0085015
-0.00671564
-0.00519033
-0.0039203
-0.00288935
-0.00206854
-0.00142419
-0.000917064
-0.000510123
-0.000153277
-0.670726
-0.344308
-0.16456
-0.0904654
-0.0538557
-0.0348134
-0.0250232
-0.0193863
-0.0155255
-0.0125026
-0.00997504
-0.00782736
-0.00602054
-0.00452992
-0.00332699
-0.00237388
-0.00162893
-0.00104533
-0.000579957
-0.000174323
-0.572674
-0.335191
-0.176016
-0.102482
-0.0645362
-0.0429013
-0.0307498
-0.0234693
-0.0184987
-0.0147059
-0.0116245
-0.00906327
-0.00693943
-0.00520322
-0.00381024
-0.00271143
-0.00185575
-0.00118784
-0.000657607
-0.000197707
-0.475137
-0.312957
-0.181442
-0.11138
-0.0736854
-0.0507308
-0.0367121
-0.0278981
-0.021804
-0.017187
-0.0134915
-0.010464
-0.00798042
-0.00596519
-0.0043565
-0.00309252
-0.0021115
-0.00134834
-0.000744859
-0.000223994
-0.383012
-0.278809
-0.179192
-0.117013
-0.0810809
-0.0579777
-0.0427243
-0.0325738
-0.0253848
-0.0199131
-0.0155557
-0.0120154
-0.00913327
-0.00680836
-0.00496045
-0.00351355
-0.00239386
-0.00152546
-0.000840921
-0.000252868
-0.298912
-0.237296
-0.168528
-0.118159
-0.0859127
-0.0639194
-0.0483081
-0.0372241
-0.0290814
-0.0227874
-0.0177558
-0.0136769
-0.0103698
-0.00771303
-0.00560842
-0.00396522
-0.00269674
-0.00171544
-0.000943744
-0.000283663
-0.226205
-0.193802
-0.151073
-0.114357
-0.0876447
-0.0679515
-0.0529275
-0.0414832
-0.0326574
-0.0256549
-0.0199889
-0.0153779
-0.011641
-0.0086446
-0.00627617
-0.00443088
-0.00300909
-0.00191138
-0.00104956
-0.00031522
-0.16721
-0.153508
-0.130373
-0.106596
-0.0864155
-0.0698801
-0.056206
-0.0449848
-0.0358227
-0.0282973
-0.0220941
-0.0170016
-0.0128621
-0.00954238
-0.00692078
-0.00488084
-0.00331108
-0.00210085
-0.00115167
-0.000345529
-0.124067
-0.121293
-0.111127
-0.0974528
-0.0833256
-0.0700783
-0.0580686
-0.0474487
-0.0382619
-0.0304315
-0.0238395
-0.0183681
-0.0138983
-0.0103077
-0.00747178
-0.00526612
-0.00356995
-0.00226336
-0.00123904
-0.00037133
-0.0996802
-0.102052
-0.0986005
-0.0907371
-0.0805039
-0.0695558
-0.0588079
-0.0487463
-0.0396681
-0.0317163
-0.0249158
-0.0192227
-0.0145519
-0.010793
-0.00782236
-0.00551185
-0.00373533
-0.00236726
-0.00129468
-0.000387612
-1.37848
-1.38016
-1.36696
-1.33958
-1.2988
-1.24553
-1.18046
-1.10512
-1.01836
-0.94494
-1.02285
-1.02408
-1.0159
-0.999246
-0.975102
-0.944587
-0.908778
-0.869347
-0.826154
-0.791779
-0.764986
-0.769053
-0.767819
-0.761904
-0.751845
-0.738085
-0.720876
-0.700463
-0.676038
-0.654164
-0.55952
-0.565913
-0.568835
-0.568568
-0.565371
-0.559507
-0.55126
-0.541049
-0.529068
-0.5194
-0.399792
-0.407674
-0.413253
-0.416728
-0.418303
-0.418188
-0.416582
-0.413678
-0.40954
-0.406078
-0.277211
-0.285863
-0.292928
-0.298511
-0.302725
-0.305679
-0.307481
-0.308239
-0.30806
-0.307861
-0.184788
-0.193541
-0.201124
-0.207591
-0.213005
-0.217436
-0.220956
-0.223636
-0.225564
-0.227107
-0.117435
-0.125929
-0.133506
-0.140194
-0.146027
-0.151047
-0.155299
-0.158832
-0.161707
-0.164058
-0.0718312
-0.0799267
-0.0872597
-0.0938421
-0.0996935
-0.10484
-0.109312
-0.113146
-0.116384
-0.119077
-0.0475983
-0.0553268
-0.0623775
-0.068759
-0.0744857
-0.0795771
-0.0840564
-0.08795
-0.0912873
-0.094094
-0.503022
-0.674461
-0.804696
-0.926594
-1.0374
-1.13302
-1.21335
-1.27842
-1.32779
-1.36118
-0.41285
-0.541158
-0.625345
-0.705979
-0.784638
-0.853203
-0.909722
-0.954815
-0.988677
-1.01128
-0.322953
-0.426239
-0.486074
-0.540158
-0.595142
-0.643888
-0.683414
-0.71454
-0.73823
-0.754918
-0.237694
-0.316845
-0.358117
-0.39303
-0.43018
-0.464726
-0.493461
-0.516624
-0.535108
-0.549342
-0.157742
-0.214182
-0.243483
-0.267752
-0.294109
-0.319737
-0.342034
-0.360763
-0.376457
-0.38943
-0.0858842
-0.124647
-0.147116
-0.16638
-0.186786
-0.206867
-0.225009
-0.240906
-0.254801
-0.266879
-0.0270186
-0.0540847
-0.072417
-0.0888755
-0.105677
-0.122109
-0.137338
-0.151148
-0.163617
-0.174821
0.0174057
-0.00245018
-0.0180426
-0.0325408
-0.0469486
-0.0609404
-0.0741204
-0.0863569
-0.0976499
-0.10801
0.0477856
0.0320716
0.0182299
0.00509478
-0.00773364
-0.0201279
-0.031909
-0.0429942
-0.0533539
-0.0629711
0.0639925
0.0500694
0.0370203
0.0245667
0.0125496
0.00100391
-0.00998766
-0.0203696
-0.0301104
-0.0391908
0.748975
0.749509
0.75026
0.749611
0.745107
0.73046
0.697938
0.615243
0.45411
-0.00464287
0.719918
0.71895
0.716645
0.710944
0.698718
0.673142
0.625045
0.523159
0.339767
-0.0586598
0.686296
0.683893
0.678473
0.667709
0.648133
0.61324
0.553801
0.44607
0.269203
-0.0295071
0.648024
0.644155
0.635641
0.620134
0.594101
0.552115
0.485719
0.381724
0.221983
-0.00391588
0.605607
0.600394
0.589162
0.569728
0.53886
0.49259
0.424046
0.327997
0.188564
0.0125508
0.560311
0.554048
0.54079
0.51867
0.48509
0.437466
0.371061
0.284734
0.167819
0.0311523
0.514368
0.507463
0.49307
0.469715
0.435584
0.3892
0.328005
0.252569
0.158013
0.0530551
0.471153
0.464043
0.449405
0.426149
0.393183
0.34986
0.295317
0.230722
0.15505
0.0739098
0.435326
0.428342
0.41409
0.391767
0.360811
0.321117
0.272825
0.217242
0.155169
0.0902201
0.413102
0.406332
0.392579
0.371197
0.341902
0.304859
0.26064
0.210556
0.156022
0.0997114
0.890917
0.897338
0.911512
0.933858
0.966338
1.00949
1.06898
1.14523
1.23572
1.3591
0.87917
0.885106
0.898184
0.91871
0.948306
0.987188
1.03966
1.1059
1.1757
1.27368
0.866859
0.872293
0.884224
0.902824
0.929358
0.963598
1.00855
1.06332
1.11065
1.17726
0.85404
0.858964
0.869711
0.886293
0.909609
0.938874
0.975895
1.01778
1.04135
1.07063
0.840777
0.845189
0.854726
0.869214
0.889182
0.913179
0.941937
0.969563
0.968636
0.95431
0.82713
0.83104
0.839352
0.851689
0.868197
0.886684
0.906904
0.918994
0.893348
0.828404
0.813167
0.816596
0.823686
0.833831
0.846793
0.859591
0.871037
0.866448
0.816317
0.692618
0.798955
0.801958
0.807853
0.815793
0.825149
0.832152
0.834578
0.812293
0.738054
0.546228
0.784545
0.787175
0.791907
0.79762
0.803282
0.804369
0.797379
0.756372
0.657735
0.386736
0.769906
0.772012
0.775425
0.778749
0.780463
0.775331
0.758305
0.698533
0.574421
0.212206
0.969047
0.978543
0.999082
1.03207
1.08004
1.1442
1.23185
1.33018
1.45486
1.42374
0.964694
0.974106
0.994564
1.02738
1.07533
1.13957
1.22881
1.33036
1.46815
1.4758
0.95957
0.968778
0.98884
1.02093
1.06795
1.13097
1.21975
1.32293
1.47277
1.53184
0.953671
0.962649
0.982267
1.01358
1.0596
1.12132
1.20928
1.31372
1.46998
1.56785
0.946989
0.95571
0.974825
1.00529
1.05016
1.11043
1.19691
1.30158
1.459
1.58529
0.939521
0.947948
0.966469
0.995946
1.03941
1.09785
1.18196
1.28553
1.44002
1.58615
0.931273
0.939367
0.957196
0.985532
1.02731
1.08352
1.16432
1.26543
1.41337
1.57071
0.92226
0.929984
0.947025
0.974074
1.0139
1.06746
1.1441
1.24129
1.37929
1.53938
0.912506
0.919826
0.935991
0.961608
0.999223
1.04973
1.12138
1.21313
1.33805
1.49299
0.902045
0.908929
0.924135
0.948182
0.983342
1.03038
1.09629
1.18105
1.29003
1.43254
0.907231
0.90372
0.896239
0.884134
0.866455
0.842069
0.809701
0.768296
0.716643
0.654865
0.919031
0.916378
0.910529
0.900714
0.885748
0.864159
0.834067
0.793777
0.740898
0.675071
0.935876
0.93469
0.931692
0.926023
0.916209
0.900287
0.875409
0.838639
0.785407
0.713749
0.952708
0.953396
0.954141
0.954109
0.951661
0.944394
0.928483
0.899094
0.849038
0.771831
0.966461
0.969193
0.974127
0.980623
0.987132
0.991052
0.988055
0.970786
0.930368
0.849942
0.975775
0.980482
0.989574
1.00276
1.01889
1.03551
1.04866
1.04814
1.02589
0.946419
0.980502
0.986936
0.999768
1.01916
1.04461
1.07419
1.10528
1.12522
1.12954
1.05604
0.981211
0.989029
1.00496
1.02964
1.06336
1.10502
1.15404
1.1967
1.23392
1.17322
0.978779
0.987605
1.0059
1.0347
1.07512
1.12703
1.19218
1.25739
1.33048
1.29725
0.974123
0.983515
1.00335
1.03493
1.08014
1.13971
1.21803
1.30274
1.40997
1.41282
0.609251
0.590027
0.570312
0.550389
0.530251
0.509914
0.489457
0.468986
0.448605
0.428407
0.624248
0.602428
0.579855
0.557253
0.534479
0.511417
0.488148
0.464824
0.441592
0.418578
0.653814
0.626439
0.597599
0.569292
0.541137
0.512677
0.483938
0.455159
0.426562
0.398319
0.70047
0.664559
0.625461
0.587887
0.551153
0.514122
0.476671
0.439188
0.402039
0.365468
0.768194
0.720987
0.666684
0.615238
0.565795
0.516021
0.465494
0.414865
0.364761
0.315547
0.861425
0.801139
0.72596
0.655024
0.587618
0.519504
0.449881
0.379909
0.310612
0.242519
0.982576
0.909113
0.807967
0.712178
0.620814
0.527143
0.430499
0.332972
0.236048
0.140439
1.13056
1.04361
0.914506
0.792084
0.672405
0.547198
0.417473
0.286491
0.156144
0.0274546
1.32012
1.22597
1.08044
0.938247
0.791516
0.635395
0.473942
0.311286
0.149912
-0.00854347
1.52572
1.45342
1.31922
1.16605
0.995154
0.811271
0.621167
0.429766
0.240356
0.0548896
0.408482
0.388912
0.369772
0.35113
0.333044
0.315563
0.298727
0.282567
0.267107
0.252363
0.395898
0.37366
0.351966
0.330904
0.31055
0.290966
0.272203
0.254297
0.237271
0.221127
0.370573
0.343457
0.317093
0.291591
0.267037
0.243505
0.221048
0.199705
0.179503
0.16038
0.329658
0.294779
0.260989
0.228429
0.197211
0.167423
0.139132
0.112379
0.0872295
0.0633327
0.267473
0.220774
0.175674
0.132366
0.0910055
0.0517154
0.0146026
-0.0202913
-0.052684
-0.0841136
0.175996
0.111412
0.0491316
-0.0105286
-0.0673189
-0.121051
-0.171535
-0.218701
-0.261564
-0.304375
0.0466941
-0.0445933
-0.132823
-0.217392
-0.297691
-0.373121
-0.443061
-0.506917
-0.563161
-0.615468
-0.0987659
-0.221764
-0.340985
-0.455956
-0.566168
-0.670892
-0.76872
-0.856993
-0.933064
-0.976185
-0.163054
-0.313079
-0.458868
-0.601219
-0.741263
-0.879583
-1.01516
-1.14727
-1.26706
-1.28073
-0.125982
-0.302526
-0.476254
-0.649152
-0.82293
-0.996939
-1.16784
-1.33803
-1.49644
-1.48279
0.217981
0.171716
0.134074
0.105395
0.0840982
0.0679842
0.0553351
0.0450632
0.0364868
0.0292065
0.0230148
0.0177976
0.0134711
0.00995392
0.00715675
0.00498068
0.00332088
0.00206486
0.00110812
0.000323831
0.182788
0.137492
0.105658
0.0841524
0.0691044
0.0577336
0.048497
0.0405524
0.0334787
0.0271499
0.0215715
0.0167647
0.0127254
0.00941711
0.00677563
0.0047165
0.0031446
0.00195492
0.00104963
0.000306871
0.114687
0.0745852
0.0569295
0.0500271
0.0460882
0.0424608
0.0385283
0.0340439
0.0291251
0.0241406
0.0194314
0.0152143
0.011595
0.00859764
0.00619097
0.00430983
0.00287254
0.0017849
0.00095863
0.000280258
0.00831765
-0.0153983
-0.00563869
0.0101099
0.0207183
0.0262751
0.0282453
0.027363
0.0245868
0.020929
0.0170935
0.0134879
0.0103193
0.00766467
0.00552167
0.00384265
0.00255925
0.00158872
0.000853188
0.000249268
-0.143441
-0.128618
-0.0745307
-0.0293702
-0.00277643
0.0119652
0.0193735
0.0215288
0.0204862
0.0179182
0.0148322
0.0117799
0.00903879
0.00671986
0.00484036
0.00336562
0.00223868
0.00138763
0.000744725
0.000217244
-0.337992
-0.253991
-0.141665
-0.0637476
-0.0216848
0.00106306
0.0126657
0.0169181
0.0170525
0.0152691
0.0127697
0.010186
0.00782747
0.00581917
0.00418806
0.00290776
0.00193049
0.00119405
0.000639977
0.000186191
-0.542196
-0.370575
-0.19946
-0.0901213
-0.0346846
-0.00599713
0.00814236
0.0134935
0.0142792
0.013002
0.0109403
0.00874321
0.00671894
0.00498999
0.00358567
0.00248421
0.00164507
0.00101462
0.000542605
0.000157229
-0.692591
-0.453114
-0.23938
-0.106341
-0.0415259
-0.00953155
0.00547559
0.0110768
0.012093
0.0110996
0.00935308
0.00746942
0.00573116
0.00424732
0.00304457
0.00210308
0.00138785
0.00085272
0.000454507
0.000130974
-0.753102
-0.489897
-0.254823
-0.111392
-0.0425886
-0.00996918
0.00444303
0.00958536
0.0104714
0.00956629
0.00802155
0.00637848
0.00487529
0.00359922
0.00257018
0.00176782
0.00116098
0.000709602
0.000376391
0.000107702
-0.684294
-0.472654
-0.243763
-0.106734
-0.0396336
-0.00873657
0.00408903
0.00840265
0.00902181
0.00815496
0.00678952
0.00537112
0.00408844
0.00300635
0.00213847
0.00146428
0.000956535
0.000581199
0.000306442
8.68582e-05
-0.421674
-0.389129
-0.206842
-0.098593
-0.0402106
-0.0114938
0.00108714
0.00575722
0.00684825
0.00643185
0.00545965
0.00436859
0.00334949
0.00247372
0.00176426
0.00120902
0.00078896
0.000478228
0.000251055
7.00782e-05
-0.295865
-0.339862
-0.170859
-0.0814243
-0.0320905
-0.00812427
0.00203381
0.0056144
0.00628618
0.00577102
0.00484238
0.00384816
0.00293675
0.00216035
0.00153532
0.0010479
0.000680349
0.000409825
0.000213616
5.86753e-05
-0.22075
-0.303137
-0.137838
-0.0626477
-0.0221888
-0.00365595
0.00359695
0.00582795
0.00594292
0.00525134
0.00431798
0.00338844
0.00256269
0.00187074
0.00132023
0.000894376
0.000575574
0.000343092
0.000176934
4.76438e-05
-0.163516
-0.269056
-0.111168
-0.0482422
-0.0148688
-0.000596691
0.0044445
0.00569304
0.00543297
0.00465294
0.00375695
0.00291197
0.00218111
0.00157786
0.0011037
0.000740236
0.000470531
0.000276306
0.00013974
3.69923e-05
-0.119811
-0.235424
-0.088167
-0.0367418
-0.00941858
0.00143844
0.00477549
0.00530258
0.00480159
0.00399218
0.00316335
0.0024184
0.0017892
0.00128237
0.000882689
0.000582038
0.000363458
0.000209051
0.000103009
2.61954e-05
-0.088898
-0.203689
-0.0682483
-0.0269533
-0.00500215
0.00292492
0.00483902
0.00478346
0.00410095
0.00329681
0.00255123
0.00191419
0.00139225
0.000980822
0.000661358
0.000425176
0.000256983
0.000141611
6.62385e-05
1.5501e-05
-0.0697667
-0.174744
-0.0518175
-0.0188336
-0.0015184
0.00393237
0.0046713
0.00415281
0.00334658
0.00257523
0.00192604
0.00140327
0.000991751
0.000677325
0.000438928
0.000267686
0.000150173
7.40552e-05
2.9447e-05
4.89506e-06
-0.0621786
-0.149253
-0.0391186
-0.0124933
0.00098627
0.00444364
0.00426561
0.00340719
0.00253653
0.00182638
0.00128723
0.000885425
0.000587673
0.000371907
0.000215449
0.00010961
4.30561e-05
6.36024e-06
-7.36545e-06
-5.64657e-06
-0.0666238
-0.128107
-0.0302161
-0.00792655
0.00253309
0.0044742
0.00363043
0.00255048
0.0016723
0.00105076
0.000634971
0.000360704
0.000180026
6.46199e-05
-9.05615e-06
-4.90349e-05
-6.43548e-05
-6.14625e-05
-4.42122e-05
-1.61485e-05
-0.083854
-0.112306
-0.0251016
-0.00510019
0.00316684
0.00405106
0.00277911
0.00158903
0.000756814
0.000249771
-3.01013e-05
-0.000170582
-0.000231009
-0.000244438
-0.000234517
-0.000208219
-0.00017205
-0.000129398
-8.1105e-05
-2.66357e-05
)
;

boundaryField
{
    inlet
    {
        type            freestreamPressure;
        freestreamValue uniform 0;
        supersonic      false;
        value           nonuniform List<scalar> 
40
(
0.748975
0.719918
0.686296
0.648024
0.605607
0.560311
0.514368
0.471153
0.435326
0.413102
0.890917
0.87917
0.866859
0.85404
0.840777
0.82713
0.813167
0.798955
0.784545
0.769906
0.969047
0.964694
0.95957
0.953671
0.946989
0.939521
0.931273
0.92226
0.912506
0.902045
0.907231
0.919031
0.935876
0.952708
0.966461
0.975775
0.980502
0.981211
0.978779
0.974123
)
;
    }
    outlet
    {
        type            freestreamPressure;
        freestreamValue uniform 0;
        supersonic      false;
        value           nonuniform List<scalar> 
40
(
-8.87537e-12
-9.44924e-12
-9.8038e-12
-9.86788e-12
-9.47662e-12
-8.47859e-12
-6.79583e-12
-4.51886e-12
-2.05607e-12
-2.66545e-13
-2.52607e-12
-3.21699e-12
-3.89159e-12
-4.55209e-12
-5.1972e-12
-5.82569e-12
-6.43584e-12
-7.02733e-12
-7.59926e-12
-8.15035e-12
4.79955e-12
4.0441e-12
3.2976e-12
2.56741e-12
1.82045e-12
1.07705e-12
3.39564e-13
-3.90495e-13
-1.11178e-12
-1.82305e-12
3.50536e-13
2.61724e-12
5.45628e-12
7.69221e-12
8.92727e-12
9.22587e-12
8.82996e-12
8.00867e-12
6.98749e-12
5.86553e-12
)
;
    }
    top
    {
        type            symmetryPlane;
    }
    bottom
    {
        type            symmetryPlane;
    }
    cylinder
    {
        type            zeroGradient;
    }
    frontandback
    {
        type            empty;
    }
}


// ************************************************************************* //
