/*--------------------------------*- C++ -*----------------------------------*\
  =========                 |
  \\      /  F ield         | OpenFOAM: The Open Source CFD Toolbox
   \\    /   O peration     | Website:  https://openfoam.org
    \\  /    A nd           | Version:  6.0
     \\/     M anipulation  |
\*---------------------------------------------------------------------------*/
FoamFile
{
    version     2.0;
    format      ascii;
    class       surfaceScalarField;
    location    "2";
    object      phi;
}
// * * * * * * * * * * * * * * * * * * * * * * * * * * * * * * * * * * * * * //

dimensions      [0 3 -1 0 0 0 0];

internalField   nonuniform List<scalar> 
4670
(
0.000285048
-0.812104
0.811819
0.00115298
-0.740213
0.739345
0.00204844
-0.655785
0.65489
0.00277427
-0.568306
0.56758
0.00336313
-0.489549
0.488961
0.00387348
-0.419954
0.419444
0.0043539
-0.35929
0.35881
0.00485793
-0.307351
0.306847
0.00544681
-0.263666
0.263077
-0.227591
0.22688
0.00615795
0.000416424
-0.81252
0.00130523
-0.741102
0.00217449
-0.656654
0.00289328
-0.569025
0.00348801
-0.490144
0.00401445
-0.420481
0.00452046
-0.359796
0.00505943
-0.30789
0.00570256
-0.264309
-0.228395
0.00650736
0.000499424
-0.81302
0.00140912
-0.742011
0.00226475
-0.65751
0.00296445
-0.569724
0.00355234
-0.490732
0.00408657
-0.421015
0.00461222
-0.360322
0.00518047
-0.308459
0.00587158
-0.265
-0.229293
0.00676893
0.000552731
-0.813572
0.0014797
-0.742938
0.00230514
-0.658335
0.00297069
-0.57039
0.00353723
-0.491299
0.00406658
-0.421544
0.00460143
-0.360857
0.00518829
-0.309046
0.00591349
-0.265725
-0.230271
0.00689159
0.00058989
-0.814162
0.00150845
-0.743857
0.00229459
-0.659122
0.00291166
-0.571007
0.00343611
-0.491823
0.00393595
-0.422044
0.00445441
-0.361375
0.00503425
-0.309625
0.00576558
-0.266456
-0.231306
0.00680027
0.000607757
-0.81477
0.00149744
-0.744747
0.0022231
-0.659847
0.00277616
-0.57156
0.00324148
-0.492288
0.00368719
-0.42249
0.00415525
-0.361843
0.00468725
-0.310157
0.00538334
-0.267152
-0.232361
0.00643839
0.000609907
-0.81538
0.00144765
-0.745584
0.00209078
-0.66049
0.00255513
-0.572024
0.00293867
-0.492672
0.00330931
-0.42286
0.00370021
-0.362234
0.00414219
-0.310599
0.00474424
-0.267754
-0.233341
0.00572472
0.000610387
-0.81599
0.00138563
-0.746359
0.00191068
-0.661015
0.00223492
-0.572349
0.00247999
-0.492917
0.00272577
-0.423106
0.00300474
-0.362513
0.00331999
-0.310915
0.00372446
-0.268159
-0.233963
0.00434632
0.000655992
-0.816646
0.00136249
-0.747066
0.00173664
-0.66139
0.00186957
-0.572482
0.00188858
-0.492936
0.00187189
-0.42309
0.00186476
-0.362506
0.00188523
-0.310935
0.00192769
-0.268201
-0.234002
0.0019669
0.000814148
-0.817461
0.00139142
-0.747643
0.00161449
-0.661613
0.00158115
-0.572448
0.00137739
-0.492732
0.00101113
-0.422723
0.0004389
-0.361934
-0.000364174
-0.310132
-0.00121621
-0.267349
-0.234689
-0.000529407
0.821489
0.000565111
-0.822054
0.820972
0.000516972
0.820458
0.00051403
0.819936
0.00052209
0.819416
0.000520397
0.81891
0.000505478
0.818436
0.000474432
0.818007
0.000428571
0.817661
0.000346456
0.000200333
0.750332
0.00042509
-0.750192
0.750308
0.000541386
0.750177
0.000644252
0.749961
0.000738745
0.74967
0.000811363
0.749326
0.00084933
0.748943
0.000857763
0.748547
0.000824291
0.748124
0.000769902
0.00068058
0.661462
-0.000116365
-0.660921
0.661849
0.000154733
0.662103
0.000390433
0.662249
0.00059246
0.662307
0.000753724
0.66229
0.000866221
0.662218
0.000929721
0.662093
0.000949078
0.661908
0.000954493
0.000976356
0.570896
-0.000729103
-0.570284
0.57138
-0.000328722
0.571742
2.8106e-05
0.572007
0.000327741
0.572189
0.000571754
0.572318
0.00073733
0.572401
0.000846745
0.572456
0.00089344
0.572475
0.000935955
0.00100305
0.490878
-0.00128204
-0.490325
0.491314
-0.000765254
0.491643
-0.000300322
0.491885
8.52476e-05
0.492053
0.000403766
0.49219
0.000600378
0.492294
0.000743532
0.492433
0.000753775
0.492568
0.000800925
0.000839091
0.420948
-0.00175969
-0.420471
0.421313
-0.0011299
0.421573
-0.000560825
0.42175
-9.12982e-05
0.421852
0.000301408
0.421943
0.000509562
0.422001
0.000686131
0.422175
0.000579209
0.422356
0.000620344
0.000471547
0.360187
-0.00218545
-0.359761
0.360498
-0.0014411
0.360701
-0.000763919
0.360815
-0.000204975
0.360842
0.000274218
0.360867
0.000485291
0.360849
0.000703706
0.361062
0.000366482
0.361228
0.000454404
-0.000234702
0.308012
-0.00260916
-0.307588
0.308314
-0.0017438
0.308498
-0.000947016
0.308577
-0.000284786
0.308547
0.000304522
0.308505
0.000527548
0.308393
0.000815814
0.308677
8.23928e-05
0.308821
0.000310277
-0.00154581
0.263883
-0.00309999
-0.263392
0.264236
-0.002097
0.264451
-0.00116149
0.264545
-0.000378754
0.264501
0.000348528
0.264414
0.000613947
0.264197
0.00103302
0.264516
-0.000236473
0.264801
2.52304e-05
-0.0040941
0.227304
-0.226708
-0.00369593
0.227741
-0.00253385
0.228026
-0.00144678
0.228182
-0.000535118
0.228197
0.000334293
0.22813
0.000680457
0.227874
0.00128946
0.227942
-0.000304717
0.228205
-0.000237878
-0.0105781
0.820789
-0.000396968
-0.820392
0.821252
-0.000462918
0.821671
-0.000419606
0.821998
-0.000326546
0.822219
-0.000220708
0.822335
-0.000115923
0.822354
-1.92535e-05
0.82229
6.40741e-05
0.822171
0.000118516
0.000116845
0.742095
-0.00197932
-0.740512
0.74352
-0.00188831
0.744843
-0.00174257
0.746047
-0.00153053
0.74711
-0.00128322
0.748023
-0.00102952
0.748786
-0.000782265
0.749407
-0.000557222
0.749879
-0.000352564
-0.000196611
0.650349
-0.003747
-0.648582
0.652018
-0.00355696
0.653582
-0.0033068
0.655035
-0.00298362
0.656368
-0.00261562
0.657568
-0.00222961
0.658634
-0.00184809
0.659552
-0.00147592
0.660323
-0.00112371
-0.000793847
0.559938
-0.0053853
-0.5583
0.561522
-0.00514097
0.563015
-0.00479932
0.564402
-0.00437056
0.565682
-0.0038959
0.566851
-0.00339861
0.567902
-0.0028995
0.568827
-0.00240039
0.569621
-0.00191819
-0.00145626
0.480761
-0.00689271
-0.479253
0.482237
-0.00661779
0.483628
-0.00618986
0.484911
-0.00565417
0.486092
-0.00507662
0.487169
-0.00447502
0.488134
-0.00386487
0.488983
-0.00324947
0.489713
-0.00264851
-0.00206788
0.411349
-0.00838
-0.409861
0.412816
-0.00808481
0.414175
-0.00754874
0.415417
-0.00689621
0.416548
-0.00620801
0.417567
-0.00549415
0.41847
-0.00476814
0.419256
-0.00403552
0.419924
-0.00331579
-0.00261475
0.350672
-0.0100361
-0.349016
0.352245
-0.00965764
0.353644
-0.00894742
0.3549
-0.00815178
0.35602
-0.00732882
0.357011
-0.00648485
0.357879
-0.00563563
0.358627
-0.0047841
0.359255
-0.00394406
-0.0031208
0.298469
-0.0120674
-0.296438
0.300148
-0.0113362
0.301538
-0.010338
0.302768
-0.00938097
0.303856
-0.00841719
0.304822
-0.00745049
0.30568
-0.00649394
0.306433
-0.00553689
0.307071
-0.00458253
-0.00363771
0.254354
-0.0141945
-0.252226
0.255752
-0.0127348
0.25694
-0.0115256
0.258086
-0.0105267
0.259179
-0.00951069
0.260212
-0.00848318
0.261171
-0.00745332
0.262036
-0.00640214
0.262782
-0.00532834
-0.0042477
0.216352
-0.216579
-0.0139677
0.217125
-0.0135078
0.218414
-0.0128146
0.219827
-0.01194
0.221265
-0.0109479
0.222641
-0.00985957
0.223899
-0.00871181
0.225011
-0.00751324
0.225951
-0.00626897
-0.00500442
0.00790363
0.19547
-0.194076
-0.00929757
0.00695447
0.235998
-0.235048
0.00623326
0.283431
-0.282709
0.00557771
0.337647
-0.336992
0.00489735
0.398911
-0.398231
0.00413923
0.467844
-0.467085
0.0032505
0.545764
-0.544875
0.00215901
0.634418
-0.633326
0.000874088
0.725543
-0.724258
0.810625
-0.809751
0.00931648
0.197131
-0.0109773
0.00813232
0.237182
0.00721698
0.284346
0.00639678
0.338467
0.00556653
0.399741
0.00466407
0.468746
0.00363266
0.546795
0.00240736
0.635643
0.00102355
0.726927
0.811648
0.0106127
0.199049
-0.0125309
0.00919838
0.238596
0.00809419
0.28545
0.00711873
0.339443
0.00615125
0.400709
0.00511853
0.469779
0.00395876
0.547955
0.00260417
0.636998
0.00109519
0.728436
0.812743
0.0118157
0.201215
-0.0139816
0.0101791
0.240233
0.00888811
0.286741
0.00775729
0.340574
0.00665474
0.401811
0.00549653
0.470937
0.00421365
0.549238
0.00273713
0.638474
0.00112048
0.730052
0.813864
0.0128404
0.203639
-0.0152641
0.0109816
0.242091
0.00952162
0.288201
0.0082631
0.341832
0.00705267
0.403022
0.00579036
0.472199
0.00439945
0.550628
0.00281678
0.640057
0.00112514
0.731744
0.814989
0.0137584
0.206307
-0.0164269
0.0116923
0.244158
0.0100597
0.289834
0.00866724
0.343225
0.00735185
0.404337
0.00599818
0.473553
0.0045217
0.552105
0.00285684
0.641722
0.00111215
0.733489
0.816101
0.01425
0.209229
-0.017172
0.0120288
0.246379
0.0103262
0.291536
0.00888996
0.344661
0.00752845
0.405699
0.0061218
0.47496
0.00458679
0.55364
0.00285989
0.643449
0.00108701
0.735262
0.817188
0.0146055
0.212276
-0.0176519
0.0122917
0.248692
0.0104979
0.29333
0.00899631
0.346163
0.00759121
0.407104
0.00615409
0.476397
0.00458878
0.555205
0.00284753
0.64519
0.00105635
0.737053
0.818245
0.0138607
0.215113
-0.0166978
0.0119136
0.25064
0.0103751
0.294869
0.00894905
0.347589
0.00755167
0.408501
0.0061092
0.477839
0.00454556
0.556769
0.00281315
0.646922
0.00104756
0.738818
0.819292
0.0133423
-0.0148086
0.0117553
0.010186
0.00875842
0.0073981
0.00598411
0.00445323
0.00279378
0.0010997
-0.00514031
0.197861
-0.200596
0.00787536
-0.00422845
0.238903
-0.239814
-0.00356417
0.285916
-0.28658
-0.00291756
0.339504
-0.34015
-0.00227252
0.400036
-0.400681
-0.00163774
0.46813
-0.468764
-0.00104289
0.544954
-0.545549
-0.000546223
0.631801
-0.632298
-0.000225908
0.720183
-0.720504
0.804128
-0.804354
-0.00573101
0.196086
0.00750654
-0.00441401
0.237586
-0.00338781
0.28489
-0.00252786
0.338644
-0.00179318
0.399301
-0.00115897
0.467495
-0.000610602
0.544406
-0.000182405
0.631373
5.91246e-05
0.719942
0.804187
-0.00505434
0.194389
0.00675043
-0.00378434
0.236316
-0.00280457
0.28391
-0.00197791
0.337817
-0.00127011
0.398593
-0.000672403
0.466898
-0.000184735
0.543918
0.000151222
0.631037
0.000238278
0.719855
0.804426
-0.00375447
0.193035
0.00510865
-0.00267988
0.235241
-0.00185495
0.283085
-0.00117625
0.337138
-0.000600462
0.398018
-0.00011696
0.466414
0.000252725
0.543548
0.000452769
0.630837
0.000371935
0.719936
0.804798
-0.00215252
0.192162
0.00302553
-0.00136498
0.234453
-0.000735457
0.282455
-0.000229065
0.336632
0.000182946
0.397606
0.000506753
0.46609
0.000722674
0.543332
0.000754516
0.630805
0.000499509
0.720191
0.805297
-0.000413435
0.191762
0.000813482
5.97166e-05
0.23398
0.000464608
0.28205
0.000781627
0.336315
0.00101792
0.397369
0.00116969
0.465939
0.00121337
0.543289
0.00106832
0.63095
0.000628294
0.720631
0.805925
0.00137289
0.191794
-0.0014048
0.00153466
0.233819
0.00170505
0.28188
0.00182309
0.336197
0.00187655
0.397316
0.00185273
0.465962
0.00171797
0.543423
0.00138858
0.63128
0.000757142
0.721262
0.806682
0.00314177
0.192217
-0.00356421
0.00300528
0.233955
0.00294496
0.28194
0.00286502
0.336277
0.00273407
0.397447
0.002532
0.466165
0.00222057
0.543735
0.0017091
0.631791
0.000879572
0.722092
0.807562
0.00484654
0.19299
-0.00561952
0.00443044
0.234371
0.00415033
0.282221
0.00388207
0.336545
0.00357407
0.397755
0.00319788
0.466541
0.00271179
0.544221
0.00201854
0.632484
0.00101291
0.723097
0.808575
0.00646559
-0.00755189
0.0057883
0.00529933
0.00485282
0.00437694
0.00383222
0.00317833
0.00233649
0.00117574
-0.197731
-0.00374237
0.000877377
-0.198497
-0.00745119
0.00821691
-0.199942
-0.00866753
0.0101129
-0.201722
-0.0103529
0.0121327
-0.203675
-0.0110421
0.0129951
-0.205723
-0.0114032
0.0134512
-0.207773
-0.0112253
0.0132753
-0.209723
-0.0106447
0.0125949
-0.211476
-0.00969048
0.0114432
-0.00847864
-0.212956
0.00995904
-0.239323
-0.00423432
-0.240338
-0.00643535
-0.241672
-0.00733362
-0.243434
-0.00859073
-0.24532
-0.00915648
-0.247262
-0.00946172
-0.249158
-0.0093285
-0.250932
-0.00887121
-0.252508
-0.00811479
-0.00715177
-0.253834
-0.286876
-0.00393856
-0.288021
-0.00529022
-0.289272
-0.00608244
-0.290861
-0.00700207
-0.292539
-0.00747817
-0.294259
-0.00774166
-0.295924
-0.00766355
-0.297471
-0.00732484
-0.298839
-0.00674678
-0.0060026
-0.299988
-0.340771
-0.00331831
-0.341843
-0.00421794
-0.343012
-0.00491329
-0.344412
-0.00560271
-0.345878
-0.00601155
-0.347379
-0.00624128
-0.348828
-0.00621421
-0.350173
-0.00598021
-0.351361
-0.00555821
-0.00500501
-0.352359
-0.401439
-0.00256018
-0.402429
-0.00322759
-0.403527
-0.00381597
-0.404783
-0.00434638
-0.406096
-0.00469866
-0.407436
-0.0049008
-0.408736
-0.00491505
-0.409947
-0.00476855
-0.411026
-0.00447916
-0.0040884
-0.411943
-0.469576
-0.00174826
-0.470527
-0.0022773
-0.47158
-0.00276287
-0.472747
-0.00317881
-0.473967
-0.00347853
-0.475212
-0.00365582
-0.476428
-0.0036993
-0.477574
-0.00362277
-0.478609
-0.00344418
-0.00318889
-0.479508
-0.546368
-0.000928838
-0.547289
-0.00135641
-0.548302
-0.00175022
-0.5494
-0.0020802
-0.550552
-0.00232737
-0.551728
-0.00247991
-0.552887
-0.0025399
-0.553992
-0.00251733
-0.555005
-0.00243132
-0.00228976
-0.555904
-0.633054
-0.000173102
-0.633871
-0.000538848
-0.634782
-0.00083923
-0.635772
-0.00109002
-0.636825
-0.00127469
-0.637907
-0.00139745
-0.638988
-0.0014596
-0.640032
-0.00147267
-0.641004
-0.00145961
-0.00142183
-0.641872
-0.720925
0.000248112
-0.72146
-3.47131e-06
-0.722117
-0.00018281
-0.722896
-0.000310699
-0.723757
-0.000414113
-0.724669
-0.000485386
-0.725596
-0.000532215
-0.726514
-0.000554822
-0.727394
-0.000579839
-0.000643442
-0.728172
-0.804106
-0.804109
-0.804292
-0.804603
-0.805017
-0.805502
-0.806035
-0.80659
-0.807169
-0.807813
-0.214143
-0.00705398
0.00824036
-0.21502
-0.00572842
0.00660619
-0.215647
-0.00455279
0.00517973
-0.216119
-0.00362609
0.0040978
-0.21655
-0.00299206
0.00342274
-0.217064
-0.0026348
0.00314872
-0.217791
-0.00251999
0.00324717
-0.218895
-0.00259081
0.003695
-0.220851
-0.00257697
0.00453293
-0.00279691
-0.222946
0.00489151
-0.254914
-0.00597403
-0.255735
-0.00490743
-0.256347
-0.00394119
-0.256824
-0.00314872
-0.257246
-0.00257029
-0.257675
-0.00220559
-0.258159
-0.00203605
-0.25874
-0.00200973
-0.259225
-0.00209245
-0.00274844
-0.259273
-0.300931
-0.00503099
-0.301642
-0.00419572
-0.302154
-0.00342948
-0.302514
-0.00278936
-0.302767
-0.00231673
-0.302952
-0.0020209
-0.303099
-0.00188916
-0.303218
-0.00189049
-0.303209
-0.002101
-0.00273925
-0.303219
-0.353187
-0.00420231
-0.35381
-0.00357307
-0.354248
-0.00299113
-0.354537
-0.00250106
-0.354713
-0.00214032
-0.354819
-0.00191525
-0.354888
-0.00181952
-0.354932
-0.00184688
-0.354961
-0.00207157
-0.00252753
-0.355173
-0.412731
-0.00341398
-0.413346
-0.0029585
-0.413804
-0.00253278
-0.414134
-0.0021712
-0.41437
-0.00190411
-0.414554
-0.00173159
-0.414711
-0.00166278
-0.414851
-0.00170636
-0.415023
-0.00189941
-0.0022025
-0.415348
-0.480322
-0.00260063
-0.480994
-0.00228584
-0.481538
-0.00198947
-0.481977
-0.00173237
-0.482339
-0.00154163
-0.482655
-0.0014155
-0.482947
-0.00137069
-0.48323
-0.00142399
-0.483543
-0.00158559
-0.00180115
-0.483945
-0.556761
-0.00174368
-0.5575
-0.00154752
-0.55813
-0.00135914
-0.558672
-0.00119056
-0.559151
-0.00106288
-0.559588
-0.000978213
-0.560006
-0.000952647
-0.56042
-0.00100993
-0.560852
-0.00115345
-0.00133052
-0.561323
-0.642728
-0.000887595
-0.643461
-0.000814408
-0.644105
-0.000715846
-0.644672
-0.000623324
-0.645191
-0.000543821
-0.645674
-0.000494902
-0.646142
-0.000484956
-0.646621
-0.000530271
-0.647119
-0.000656298
-0.000830276
-0.647619
-0.728839
-0.000220326
-0.729415
-0.00023831
-0.729918
-0.000213609
-0.730369
-0.00017183
-0.730777
-0.000136145
-0.731161
-0.000110769
-0.73154
-0.000106329
-0.731943
-0.000126555
-0.732394
-0.000205235
-0.000395872
-0.732829
-0.808033
-0.808271
-0.808485
-0.808657
-0.808793
-0.808904
-0.80901
-0.809137
-0.809342
-0.809738
-0.000182722
-0.809555
0.00025244
-0.733264
0.000931611
-0.648298
0.00156158
-0.561953
0.00211544
-0.484499
0.00264808
-0.415881
0.00324433
-0.355769
0.00404532
-0.304019
0.00538686
-0.260615
-0.226019
0.00845988
-2.37477e-05
-0.809531
0.00043644
-0.733724
0.00109047
-0.648952
0.00171351
-0.562576
0.00223715
-0.485022
0.00268322
-0.416327
0.00311849
-0.356205
0.00364819
-0.304549
0.00424001
-0.261207
-0.226062
0.00428354
6.82154e-05
-0.809599
0.000572558
-0.734228
0.0012393
-0.649619
0.00185498
-0.563191
0.00236225
-0.48553
0.00277838
-0.416743
0.00313327
-0.35656
0.00341447
-0.30483
0.00350367
-0.261296
-0.22566
0.00310126
0.000124817
-0.809724
0.000694594
-0.734798
0.00137233
-0.650297
0.0019749
-0.563794
0.00245312
-0.486008
0.00282436
-0.417114
0.00311848
-0.356854
0.00332345
-0.305035
0.00333343
-0.261306
-0.225325
0.00299847
0.000178014
-0.809902
0.000800968
-0.735421
0.00150636
-0.651002
0.0021117
-0.564399
0.00257926
-0.486475
0.00292576
-0.417461
0.00317635
-0.357104
0.00334236
-0.305201
0.00340328
-0.261367
-0.225198
0.00327631
0.000228336
-0.810131
0.000906999
-0.7361
0.00163782
-0.651733
0.00225235
-0.565014
0.00272445
-0.486947
0.00308083
-0.417817
0.00335882
-0.357382
0.00358366
-0.305426
0.00374563
-0.261529
-0.225247
0.00379469
0.000285279
-0.810416
0.00101881
-0.736833
0.00178082
-0.652495
0.00241031
-0.565643
0.00289255
-0.48743
0.00326034
-0.418185
0.00355857
-0.35768
0.00383034
-0.305698
0.00409307
-0.261792
-0.225463
0.00430962
0.000350498
-0.810766
0.00114517
-0.737628
0.00193449
-0.653284
0.00257749
-0.566286
0.00307719
-0.487929
0.0034742
-0.418582
0.00381626
-0.358023
0.00414958
-0.306031
0.0045006
-0.262143
-0.225815
0.00485178
0.000447111
-0.811214
0.00130013
-0.738481
0.00210392
-0.654088
0.00275039
-0.566933
0.00326043
-0.488439
0.00367902
-0.419001
0.00405467
-0.358398
0.00443885
-0.306415
0.00487103
-0.262575
-0.226291
0.0053477
0.000605262
0.00146911
0.00227076
0.00291808
0.00343923
0.00388241
0.00429425
0.00472625
0.00522818
0.00581648
0.00516872
-0.708463
0.709452
0.00847284
-0.377594
0.37429
0.019584
-0.189189
0.178077
0.0321885
-0.0804486
0.0678441
0.0447894
-0.00630559
-0.00629532
0.0551477
0.0330256
-0.0433839
0.0626062
0.0480252
-0.0554837
0.067548
0.0492817
-0.0542236
0.07064
0.0447292
-0.0478211
0.0724762
0.0385708
-0.0404071
0.0734838
0.0324829
-0.0334905
0.0739451
0.0269496
-0.0274109
0.0740432
0.0220455
-0.0221436
0.0738971
0.0177515
-0.0176054
0.0735843
0.0140394
-0.0137266
0.0731543
0.0108799
-0.0104499
0.0726377
0.00824469
-0.007728
0.0720515
0.00603493
-0.00544883
0.0714056
0.00437055
-0.00372457
0.00234604
-0.00164118
0.00275496
-0.704711
0.0068682
-0.381707
0.0187146
-0.201035
0.0314863
-0.0932202
0.0441846
-0.0190039
0.0546572
0.0225529
0.0622233
0.0404592
0.0672341
0.0442709
0.0703599
0.0416034
0.0722103
0.0367205
0.0732253
0.0314678
0.073695
0.0264799
0.0738059
0.0219347
0.0736781
0.0178791
0.0733894
0.0143282
0.0729887
0.0112806
0.0725059
0.00872743
0.0719578
0.00658315
0.0713535
0.00497489
0.00300608
0.000439293
-0.698381
0.00529354
-0.386561
0.0177428
-0.213484
0.0306446
-0.106122
0.043342
-0.0317013
0.0538551
0.0120399
0.0614936
0.0328206
0.0665684
0.0391962
0.0697393
0.0384325
0.0716226
0.0348372
0.0726672
0.0304232
0.0731694
0.0259777
0.0733192
0.021785
0.073238
0.0179602
0.0730037
0.0145626
0.072665
0.0116193
0.0722513
0.00914107
0.0717792
0.00705532
0.0712575
0.00549659
0.00357738
-0.00179115
-0.689698
0.00369033
-0.392043
0.0165721
-0.226366
0.0296028
-0.119153
0.0422404
-0.0443388
0.0527408
0.00153943
0.0604241
0.0251372
0.0655588
0.0340615
0.0687854
0.0352059
0.0707192
0.0329035
0.0718144
0.0293279
0.0723726
0.0254195
0.0725867
0.0215709
0.0725797
0.0179673
0.0724296
0.0147126
0.0721851
0.0118637
0.0718754
0.00945076
0.0715167
0.00741404
0.071118
0.0058953
0.00401642
-0.00380486
-0.679093
0.00205595
-0.397903
0.0151079
-0.239418
0.0282838
-0.132329
0.0408474
-0.0569025
0.0513091
-0.00892229
0.0590211
0.0174253
0.064215
0.0288675
0.0675075
0.0319133
0.0695082
0.0309028
0.0706741
0.028162
0.0713107
0.0247829
0.0716137
0.0212678
0.0717076
0.0178734
0.0716709
0.0147494
0.0715522
0.0119824
0.0713806
0.0096224
0.0711721
0.00762251
0.070936
0.00613142
0.00428056
-0.00557691
-0.667078
0.000209586
-0.40369
0.0131968
-0.252405
0.0265888
-0.145721
0.0391222
-0.0694359
0.0495515
-0.0193516
0.0572906
0.00968631
0.0625477
0.0236104
0.0659169
0.0285441
0.0679999
0.0288198
0.069255
0.0269069
0.0699911
0.0240468
0.0704067
0.0208523
0.0706274
0.0176527
0.0707323
0.0146444
0.0707701
0.0119446
0.0707697
0.0096228
0.0707473
0.00764492
0.0707124
0.00616634
0.00432824
-0.0082996
-0.653053
-0.00261988
-0.40937
0.0105313
-0.265556
0.0243701
-0.159559
0.037004
-0.0820698
0.0474515
-0.0297991
0.0552368
0.00190099
0.0605684
0.0182789
0.0640261
0.0250864
0.066206
0.02664
0.0675676
0.0255453
0.0684232
0.0231912
0.0689737
0.0203018
0.0693461
0.0172803
0.0696199
0.0143707
0.0698437
0.0117207
0.0700467
0.00941987
0.070245
0.00744659
0.0704486
0.0059627
0.00411924
-0.0138555
-0.634852
-0.00684321
-0.416382
0.00697687
-0.279376
0.0214976
-0.17408
0.0344126
-0.0949848
0.0449761
-0.0403626
0.0528553
-0.00597823
0.0582852
0.012849
0.0618473
0.0215243
0.0641388
0.0243484
0.0656235
0.0240606
0.0666175
0.0221972
0.0673241
0.0195951
0.0678718
0.0167326
0.0683404
0.0139021
0.0687788
0.0112824
0.0692159
0.00898281
0.0696682
0.00699425
0.0701463
0.00548461
0.00361493
-0.017301
-0.615584
-0.00959704
-0.424086
0.00356044
-0.292534
0.0182366
-0.188756
0.0313933
-0.108142
0.0421285
-0.0510978
0.0501488
-0.0139986
0.0557058
0.00729201
0.0593908
0.0178393
0.0618098
0.0219294
0.063434
0.0224364
0.0645846
0.0210467
0.0654679
0.0187118
0.0662136
0.0159869
0.0669019
0.0132137
0.0675818
0.0106025
0.0682824
0.00828225
0.0690205
0.00625616
0.0698072
0.00469786
0.0027785
-0.00473469
-0.611378
-0.00669391
-0.422127
0.00211314
-0.301341
0.0153688
-0.202012
0.0283048
-0.121077
0.0390735
-0.0618665
0.0471913
-0.0221164
0.0528638
0.00161946
0.0566737
0.0140294
0.0592298
0.0193733
0.0610079
0.0206583
0.0623329
0.0197217
0.0634133
0.0176314
0.0643794
0.0150208
0.0653117
0.0122814
0.0662594
0.0096548
0.0672516
0.00729007
0.0683056
0.00520212
0.0694334
0.00357007
0.00157514
0.210508
-0.47309
-0.348796
0.143413
-0.355031
0.101716
-0.259644
0.0874418
-0.187737
0.0881356
-0.121771
0.0945046
-0.0682355
0.102265
-0.0298769
0.109238
-0.00535322
0.114678
0.00858907
0.118613
0.0154386
0.121345
0.0179265
0.123201
0.0178654
0.124447
0.0163848
0.125278
0.0141898
0.125829
0.0117306
0.126192
0.00929234
0.126428
0.00705348
0.126578
0.0050519
0.126674
0.00347409
0.00153391
0.202971
-0.34646
-0.329602
0.148403
-0.300463
0.121673
-0.232915
0.109616
-0.17568
0.1089
-0.121055
0.114036
-0.0733718
0.121284
-0.0371249
0.128305
-0.0123743
0.13405
0.00284407
0.138349
0.0111399
0.141414
0.0148612
0.143545
0.015735
0.145005
0.0149245
0.145998
0.0131969
0.146669
0.0110596
0.147119
0.00884209
0.147418
0.00675419
0.147612
0.00485866
0.147736
0.00334936
0.00148002
0.240395
-0.258434
-0.32842
0.186263
-0.246331
0.156316
-0.202968
0.14024
-0.159604
0.13604
-0.116855
0.138897
-0.0762291
0.144833
-0.0430605
0.151338
-0.0188793
0.157061
-0.00287955
0.161563
0.00663782
0.164897
0.0115272
0.167287
0.0133453
0.16897
0.0132418
0.170142
0.0120242
0.170953
0.0102485
0.17151
0.00828584
0.171887
0.00637714
0.172134
0.00461099
0.172296
0.00318771
0.0014098
0.27391
-0.19195
-0.340394
0.224665
-0.197086
0.195614
-0.173916
0.178081
-0.142071
0.170465
-0.109238
0.170295
-0.0760589
0.174099
-0.0468647
0.179377
-0.0241573
0.184585
-0.00808761
0.188999
0.00222322
0.192453
0.00807341
0.195039
0.0107593
0.196928
0.0113527
0.198288
0.0106645
0.199256
0.00928042
0.199937
0.00760474
0.200409
0.00590523
0.200725
0.00429529
0.200933
0.00297928
0.00131882
0.320363
-0.14057
-0.371743
0.275344
-0.152067
0.24454
-0.143112
0.224501
-0.122033
0.213135
-0.0978722
0.209252
-0.0721756
0.210172
-0.0477851
0.2135
-0.0274849
0.217604
-0.0121921
0.221531
-0.00170348
0.224867
0.00473678
0.227529
0.00809815
0.229575
0.00930604
0.231113
0.00912622
0.232249
0.00814443
0.233074
0.00678057
0.233659
0.00531978
0.234059
0.00389579
0.234326
0.00271233
0.00120178
0.372826
-0.0993092
-0.414086
0.332832
-0.112074
0.301328
-0.111608
0.279028
-0.0997327
0.264286
-0.0831303
0.256488
-0.0643775
0.253989
-0.0452853
0.254743
-0.0282393
0.257154
-0.0146029
0.260132
-0.00468143
0.263045
0.00182351
0.265605
0.00553791
0.267725
0.00718625
0.269414
0.00743726
0.270721
0.00683775
0.271704
0.00579706
0.272423
0.00460111
0.272924
0.00339482
0.273263
0.00237329
0.00105254
0.430581
-0.0663971
-0.463493
0.396092
-0.0775847
0.365495
-0.0810112
0.34158
-0.0758179
0.324023
-0.0655729
0.312531
-0.0528855
0.306363
-0.0391179
0.304085
-0.0259612
0.304287
-0.0148042
0.305855
-0.00625025
0.308005
-0.000325953
0.310249
0.00329332
0.312328
0.00510743
0.314122
0.0056435
0.315593
0.0053664
0.31675
0.00464079
0.317621
0.00372929
0.318243
0.00277332
0.318669
0.0019471
0.000864271
0.494575
-0.0403302
-0.520642
0.465414
-0.0484235
0.436912
-0.0525096
0.412256
-0.0511622
0.392448
-0.0457642
0.377696
-0.0381337
0.367913
-0.0293351
0.362365
-0.0204134
0.359994
-0.0124335
0.359777
-0.00603317
0.360852
-0.00140014
0.362567
0.00157812
0.364482
0.00319189
0.366327
0.00379912
0.367951
0.0037417
0.369291
0.00330078
0.370336
0.00268492
0.371097
0.00201193
0.371626
0.00141813
0.000629882
0.567783
-0.0191694
-0.588944
0.542799
-0.0234393
0.516385
-0.0260956
0.491393
-0.0261704
0.469646
-0.0240165
0.451998
-0.020486
0.438852
-0.0161892
0.430073
-0.0116346
0.425028
-0.00738882
0.42286
-0.00386494
0.422692
-0.0012323
0.423751
0.000519752
0.425427
0.00151584
0.42729
0.0019363
0.429065
0.00196612
0.430602
0.00176356
0.431838
0.00144889
0.432758
0.00109246
0.433404
0.000772024
0.000342903
0.655002
-0.674172
0.631563
0.605468
0.579297
0.555281
0.534795
0.518605
0.506971
0.499582
0.495717
0.494485
0.495005
0.49652
0.498457
0.500423
0.502186
0.503635
0.504728
0.5055
0.40883
-0.00754306
-0.404983
0.411123
-0.00482708
0.411746
-0.00206994
0.410564
0.000646709
0.407465
0.00343344
0.402173
0.00597306
0.394406
0.00905594
0.383252
0.0108497
0.367199
0.0158151
0.00782448
0.360199
-0.00883039
-0.358911
0.360651
-0.00527952
0.360243
-0.00166241
0.358913
0.00197759
0.356688
0.00565812
0.353418
0.00924297
0.349577
0.0128965
0.344552
0.0158749
0.340839
0.0195285
0.0190609
0.347829
-0.00759484
-0.349065
0.346342
-0.00379188
0.344666
1.36549e-05
0.34286
0.00378348
0.341025
0.00749319
0.339171
0.0110969
0.337427
0.0146405
0.335288
0.0180138
0.333146
0.02167
0.0237871
0.360405
-0.00539493
-0.362605
0.358142
-0.00152955
0.355845
0.00231067
0.353531
0.00609829
0.351212
0.00981142
0.348882
0.0134269
0.346589
0.0169334
0.344331
0.020272
0.342482
0.0235196
0.0258745
0.383166
-0.00333161
-0.38523
0.381232
0.000405134
0.379432
0.00411049
0.377776
0.00775369
0.376283
0.0113045
0.374977
0.0147337
0.373892
0.0180182
0.373031
0.0211326
0.372448
0.0241023
0.0265795
0.412314
-0.00176081
-0.413884
0.411119
0.00159973
0.410299
0.00493079
0.409847
0.0082053
0.409755
0.011397
0.410007
0.0144812
0.41059
0.0174357
0.411484
0.0202383
0.412706
0.0228799
0.0251999
0.448433
-0.00068815
-0.449506
0.447943
0.00209032
0.448029
0.004845
0.448681
0.00755278
0.449887
0.010191
0.45163
0.0127381
0.453892
0.0151737
0.456651
0.0174794
0.45989
0.0196406
0.0215971
0.493711
-8.57209e-05
-0.494313
0.493867
0.00193402
0.494776
0.00393584
0.496427
0.00590174
0.498804
0.00781427
0.501885
0.00965681
0.505645
0.0114139
0.510053
0.0130715
0.515076
0.014617
0.0160317
0.551425
0.000100994
-0.551612
0.552161
0.00119853
0.553811
0.00228531
0.556363
0.00335046
0.559793
0.00438348
0.564076
0.00537445
0.569176
0.0063142
0.575053
0.00719441
0.581662
0.00800775
0.00874964
0.627314
-0.627213
0.628512
0.630797
0.634148
0.638531
0.643906
0.65022
0.657414
0.665422
0.312358
-0.0188735
-0.307453
0.329794
-0.0309437
0.343851
-0.0268718
0.355687
-0.0237758
0.366654
-0.0219147
0.376677
-0.0198825
0.385553
-0.0175881
0.393252
-0.0152117
0.399752
-0.0127694
-0.0102349
0.315713
-0.0260837
-0.308503
0.321832
-0.0370627
0.328993
-0.0340326
0.335257
-0.0300398
0.340752
-0.0274103
0.345796
-0.0249261
0.350238
-0.0220297
0.353926
-0.0189002
0.356822
-0.0156655
-0.012324
0.341637
-0.0310208
-0.3367
0.343881
-0.0393071
0.346272
-0.0364233
0.348384
-0.0321521
0.349686
-0.0287126
0.350398
-0.025638
0.35069
-0.0223213
0.350555
-0.018765
0.349997
-0.0151076
-0.0113921
0.375362
-0.0332129
-0.37317
0.374451
-0.0383961
0.373523
-0.0354947
0.372755
-0.0313846
0.371669
-0.027627
0.370209
-0.024178
0.36853
-0.0206414
0.366696
-0.0169311
0.364714
-0.0131264
-0.0092823
0.410135
-0.0326411
-0.410706
0.406548
-0.0348092
0.403101
-0.0320485
0.400168
-0.028451
0.397451
-0.02491
0.39478
-0.0215073
0.392193
-0.0180546
0.38974
-0.0144776
0.387422
-0.0108085
-0.00709017
0.44555
-0.02938
-0.448811
0.440337
-0.0295966
0.435415
-0.0271261
0.431134
-0.0241699
0.427359
-0.0211355
0.423945
-0.0180927
0.420871
-0.0149807
0.418164
-0.0117706
0.415835
-0.00848001
-0.00513922
0.485209
-0.0239614
-0.490628
0.478966
-0.0233535
0.473176
-0.0213355
0.46805
-0.0190442
0.463553
-0.0166386
0.459618
-0.014158
0.456232
-0.0115947
0.453411
-0.00894876
0.451167
-0.00623607
-0.00347867
0.532876
-0.0170023
-0.539835
0.525824
-0.0163017
0.519369
-0.0148802
0.513621
-0.0132968
0.508592
-0.0116091
0.504272
-0.00983861
0.50067
-0.00799234
0.497801
-0.00607951
0.495679
-0.00411413
-0.00211287
0.592782
-0.00895466
-0.600829
0.585025
-0.00854491
0.577958
-0.00781332
0.571658
-0.00699639
0.566161
-0.00611208
0.561493
-0.00517135
0.557682
-0.00418141
0.554753
-0.00314995
0.552725
-0.00208614
-0.00100022
0.672268
-0.681223
0.663723
0.65591
0.648914
0.642802
0.63763
0.633449
0.630299
0.628213
0.126852
0.0133722
-0.0133764
0.127004
0.0374511
-0.0376031
0.127246
0.0598837
-0.0601254
0.127642
0.0837037
-0.0840997
0.12865
0.109512
-0.11052
0.130217
0.142177
-0.143744
0.136635
0.174885
-0.181304
0.141492
0.23472
-0.239577
0.192561
0.253699
-0.304768
0.412648
-0.527539
0.148229
0.0131701
0.148905
0.0367751
0.150009
0.0587797
0.151722
0.0819907
0.154664
0.10657
0.158986
0.137855
0.17044
0.163431
0.183125
0.222035
0.234815
0.202008
0.33896
0.173183
0.0127113
0.174559
0.0353986
0.176832
0.0565073
0.180295
0.0785273
0.185676
0.101189
0.193615
0.129916
0.209519
0.147528
0.231853
0.199701
0.269579
0.164282
0.27184
0.202308
0.0119337
0.204555
0.0331519
0.208276
0.0527865
0.213845
0.0729581
0.221972
0.0930625
0.233823
0.118065
0.252046
0.129305
0.280545
0.171202
0.306306
0.138521
0.204976
0.236278
0.0107847
0.239529
0.0299009
0.244894
0.0474216
0.252738