/*--------------------------------*- C++ -*----------------------------------*\
| =========                 |                                                 |
| \\      /  F ield         | OpenFOAM: The Open Source CFD Toolbox           |
|  \\    /   O peration     | Version:  v1912                                 |
|   \\  /    A nd           | Website:  www.openfoam.com                      |
|    \\/     M anipulation  |                                                 |
\*---------------------------------------------------------------------------*/
FoamFile
{
    version     2.0;
    format      ascii;
    class       surfaceScalarField;
    location    "49";
    object      phi;
}
// * * * * * * * * * * * * * * * * * * * * * * * * * * * * * * * * * * * * * //

dimensions      [0 3 -1 0 0 0 0];
oriented        oriented;


internalField   nonuniform List<scalar> 
18940
(
0.000358198
-0.234364
0.234005
0.00137877
-0.216324
0.215304
0.00288237
-0.204789
0.203286
0.00469856
-0.197007
0.195191
0.00669652
-0.191253
0.189255
0.00877457
-0.18646
0.184382
0.0108589
-0.182039
0.179955
0.0129001
-0.177695
0.175654
0.014868
-0.173305
0.171337
0.0167472
-0.168839
0.16696
0.0185331
-0.164319
0.162533
0.0202279
-0.159786
0.158092
0.0218388
-0.15529
0.153679
0.0233757
-0.150873
0.149336
0.0248496
-0.146571
0.145097
0.0262724
-0.14241
0.140987
0.0276554
-0.138401
0.137018
0.0290092
-0.134542
0.133188
0.0303422
-0.130813
0.12948
-0.127175
0.125858
0.0316598
0.000381623
-0.234745
0.00142208
-0.217365
0.00293641
-0.206304
0.00475692
-0.198828
0.00674935
-0.193245
0.00881209
-0.188522
0.0108726
-0.184099
0.012883
-0.179706
0.0148151
-0.175237
0.0166552
-0.170679
0.0184003
-0.166064
0.0200541
-0.16144
0.0216246
-0.15686
0.0231223
-0.15237
0.0245589
-0.148008
0.0259464
-0.143797
0.0272964
-0.139751
0.0286199
-0.135865
0.0299257
-0.132119
-0.128469
0.0312199
0.000403048
-0.235148
0.00145973
-0.218421
0.00298278
-0.207827
0.00480385
-0.200649
0.00678712
-0.195229
0.00883089
-0.190566
0.0108639
-0.186132
0.0128401
-0.181682
0.0147332
-0.17713
0.0165315
-0.172478
0.0182333
-0.167766
0.0198439
-0.163051
0.0213722
-0.158388
0.0228292
-0.153827
0.024227
-0.149406
0.0255779
-0.145148
0.0268937
-0.141066
0.0281856
-0.137157
0.0294629
-0.133396
-0.129739
0.0307326
0.000416922
-0.235565
0.00148865
-0.219493
0.00301958
-0.209358
0.00483864
-0.202468
0.00680938
-0.197199
0.00883062
-0.192588
0.0108326
-0.188134
0.0127713
-0.183621
0.0146225
-0.178981
0.0163763
-0.174231
0.0180328
-0.169422
0.0195983
-0.164616
0.0210827
-0.159873
0.0224976
-0.155242
0.0238555
-0.150763
0.0251686
-0.146461
0.026449
-0.142347
0.0277083
-0.138416
0.0289562
-0.134644
-0.130983
0.0302005
0.000428191
-0.235993
0.00151219
-0.220577
0.00304813
-0.210893
0.00486194
-0.204282
0.00681658
-0.199154
0.00881174
-0.194583
0.0107793
-0.190102
0.0126774
-0.185519
0.0144838
-0.180788
0.0161907
-0.175938
0.0177998
-0.171031
0.0193184
-0.166135
0.0207575
-0.161312
0.0221291
-0.156614
0.0234458
-0.15208
0.0247201
-0.147735
0.0259642
-0.143591
0.0271899
-0.139642
0.0284075
-0.135862
-0.132202
0.0296258
0.000437284
-0.236431
0.00153074
-0.221671
0.00306871
-0.212431
0.00487397
-0.206087
0.00680903
-0.201089
0.00877463
-0.196548
0.0107045
-0.192032
0.012559
-0.187373
0.014318
-0.182547
0.0159757
-0.177596
0.0175353
-0.172591
0.0190055
-0.167605
0.0203977
-0.162704
0.0217248
-0.157941
0.0229992
-0.153355
0.0242337
-0.14897
0.0254406
-0.144798
0.0266317
-0.140833
0.0278182
-0.137048
-0.133393
0.0290096
0.000444765
-0.236875
0.00154499
-0.222771
0.00308187
-0.213968
0.00487522
-0.20788
0.00678725
-0.203001
0.00871989
-0.198481
0.0106089
-0.193921
0.0124169
-0.189181
0.014126
-0.184256
0.0157322
-0.179202
0.0172405
-0.174099
0.0186605
-0.169025
0.0200046
-0.164048
0.0212858
-0.159222
0.0225169
-0.154586
0.0237105
-0.150163
0.024879
-0.145966
0.0260345
-0.141989
0.0271888
-0.138203
-0.134557
0.0283526
0.00045079
-0.237326
0.00155526
-0.223875
0.00308803
-0.215501
0.00486618
-0.209659
0.00675179
-0.204887
0.00864819
-0.200377
0.0104933
-0.195766
0.012252
-0.19094
0.0139087
-0.185913
0.0154614
-0.180755
0.0169164
-0.175554
0.0182847
-0.170393
0.0195792
-0.165343
0.0208132
-0.160456
0.0219997
-0.155772
0.0231512
-0.151315
0.02428
-0.147095
0.0253986
-0.143107
0.0265195
-0.139324
-0.135692
0.0276546
0.000455465
-0.237782
0.00156184
-0.224982
0.00308762
-0.217027
0.0048474
-0.211418
0.00670334
-0.206743
0.00856036
-0.202234
0.0103586
-0.197564
0.0120654
-0.192647
0.0136673
-0.187515
0.0151644
-0.182252
0.0165644
-0.176954
0.0178792
-0.171708
0.0191226
-0.166586
0.020308
-0.161642
0.0214484
-0.156913
0.0225563
-0.152423
0.0236439
-0.148183
0.0247239
-0.144187
0.0258098
-0.14041
-0.136797
0.0269147
0.000458863
-0.23824
0.00156502
-0.226088
0.00308113
-0.218543
0.00481952
-0.213157
0.00664271
-0.208566
0.00845737
-0.204049
0.010206
-0.199313
0.0118583
-0.194299
0.0134033
-0.18906
0.0148427
-0.183691
0.0161857
-0.178297
0.0174454
-0.172968
0.0186358
-0.167777
0.0197709
-0.162777
0.0208636
-0.158005
0.021926
-0.153485
0.0229704
-0.149227
0.0240098
-0.145227
0.0250584
-0.141458
-0.137869
0.026131
0.000461091
-0.238702
0.00156513
-0.227192
0.00306912
-0.220047
0.00478331
-0.214871
0.00657085
-0.210353
0.00834034
-0.205818
0.0100368
-0.201009
0.0116323
-0.195894
0.0131181
-0.190545
0.0144978
-0.185071
0.015782
-0.179581
0.0169846
-0.174171
0.0181202
-0.168912
0.0192031
-0.16386
0.0202458
-0.159048
0.0212605
-0.1545
0.0222592
-0.150226
0.0232551
-0.146223
0.0242635
-0.142466
-0.138907
0.025301
0.000462304
-0.239164
0.00156263
-0.228292
0.00305228
-0.221537
0.00473966
-0.216558
0.00648886
-0.212103
0.00821062
-0.20754
0.00985242
-0.202651
0.0113889
-0.197431
0.0128136
-0.19197
0.0141316
-0.186389
0.015355
-0.180805
0.0164986
-0.175314
0.0175773
-0.169991
0.0186055
-0.164888
0.0195959
-0.160038
0.0205601
-0.155464
0.0215099
-0.151176
0.0224587
-0.147171
0.0234229
-0.143431
-0.139906
0.0244215
0.000462782
-0.239627
0.00155814
-0.229388
0.00303147
-0.22301
0.00468965
-0.218216
0.00639805
-0.213811
0.00806973
-0.209212
0.00965476
-0.204236
0.0111303
-0.198906
0.0124919
-0.193332
0.0137465
-0.187644
0.0149072
-0.181965
0.0159895
-0.176396
0.017009
-0.171011
0.0179799
-0.165859
0.0189149
-0.160973
0.0198252
-0.156374
0.0207221
-0.152073
0.0216193
-0.148069
0.0225343
-0.144346
-0.14086
0.0234886
0.000463002
-0.24009
0.0015525
-0.230477
0.00300773
-0.224465
0.00463453
-0.219843
0.0062999
-0.215476
0.00791942
-0.210831
0.0094458
-0.205763
0.0108586
-0.200319
0.0121555
-0.194629
0.013345
-0.188833
0.0144411
-0.183062
0.0154601
-0.177415
0.0164178
-0.171968
0.0173283
-0.166769
0.0182042
-0.161849
0.0190562
-0.157226
0.0198953
-0.152912
0.0207349
-0.148908
0.0215936
-0.145204
-0.141762
0.022496
0.000463766
-0.240553
0.00154689
-0.23156
0.00298229
-0.225901
0.00457564
-0.221437
0.00619601
-0.217097
0.0077616
-0.212397
0.00922781
-0.207229
0.0105766
-0.201668
0.0118076
-0.19586
0.0129306
-0.189956
0.0139607
-0.184092
0.0149143
-0.178369
0.0158075
-0.172861
0.0166542
-0.167616
0.0174665
-0.162662
0.0182548
-0.158015
0.0190292
-0.153686
0.0198026
-0.149682
0.0205946
-0.145996
-0.142603
0.0214354
0.000466223
-0.24102
0.00154261
-0.232637
0.00295635
-0.227314
0.00451436
-0.222995
0.00608806
-0.21867
0.00759835
-0.213907
0.00900327
-0.208634
0.0102872
-0.202952
0.0114515
-0.197024
0.0125072
-0.191012
0.0134702
-0.185055
0.0143571
-0.179256
0.0151836
-0.173688
0.0159634
-0.168396
0.0167079
-0.163406
0.0174263
-0.158733
0.0181278
-0.154388
0.0188243
-0.150378
0.0195364
-0.146708
-0.14337
0.0203033
0.000471762
-0.241491
0.00154098
-0.233706
0.00293124
-0.228705
0.00445225
-0.224516
0.00597793
-0.220196
0.00743186
-0.215361
0.00877481
-0.209977
0.00999347
-0.204171
0.0110909
-0.198121
0.0120793
-0.192
0.0129749
-0.18595
0.0137942
-0.180075
0.0145526
-0.174446
0.0152632
-0.169106
0.0159362
-0.164079
0.01658
-0.159377
0.017202
-0.15501
0.0178124
-0.150988
0.0184317
-0.147328
-0.144038
0.0190999
0.000482713
-0.241974
0.00154463
-0.234768
0.00290941
-0.230069
0.00439142
-0.225998
0.00586756
-0.221672
0.00726424
-0.216758
0.00854498
-0.211257
0.0096987
-0.205324
0.01073
-0.199153
0.011652
-0.192922
0.0124808
-0.186779
0.0132326
-0.180827
0.0139219
-0.175136
0.0145605
-0.169745
0.0151575
-0.164676
0.0157203
-0.15994
0.0162554
-0.155545
0.0167692
-0.151502
0.0172746
-0.147833
-0.144559
0.0177956
0.000506658
-0.242481
0.00156076
-0.235822
0.00289495
-0.231404
0.00433378
-0.227436
0.0057582
-0.223097
0.00709692
-0.218097
0.00831579
-0.212476
0.00940581
-0.206414
0.010373
-0.20012
0.0112311
-0.19378
0.011996
-0.187544
0.012683
-0.181514
0.0133046
-0.175757
0.0138697
-0.17031
0.0143844
-0.165191
0.0148523
-0.160407
0.0152752
-0.155968
0.015652
-0.151879
0.0159871
-0.148168
-0.144915
0.0163427
0.000563712
-0.243044
0.00159768
-0.236856
0.00288758
-0.232693
0.00427815
-0.228827
0.00564937
-0.224468
0.0069303
-0.219378
0.00808856
-0.213635
0.00911712
-0.207443
0.0100235
-0.201026
0.0108223
-0.194579
0.0115294
-0.188251
0.0121594
-0.182144
0.0127228
-0.17632
0.0132252
-0.170813
0.0136664
-0.165632
0.014039
-0.16078
0.0143262
-0.156255
0.0145018
-0.152055
0.0145607
-0.148227
-0.145086
0.0147323
0.250727
0.000415049
-0.251142
0.250338
0.00038869
0.249957
0.000381421
0.249575
0.000381553
0.24919
0.0003845
0.248802
0.000388913
0.248408
0.000394066
0.248008
0.000399372
0.247604
0.000404439
0.247195
0.000409061
0.246782
0.000413142
0.246365
0.000416655
0.245945
0.000419583
0.245523
0.000421903
0.2451
0.00042349
0.244676
0.000424138
0.244253
0.000422799
0.243834
0.000418926
0.243431
0.000403318
0.000386229
0.252695
0.00102351
-0.253304
0.252051
0.00103273
0.251379
0.00105382
0.250679
0.00108082
0.249955
0.00110918
0.249206
0.00113756
0.248435
0.00116548
0.247642
0.00119244
0.246828
0.00121802
0.245995
0.00124197
0.245144
0.00126418
0.244276
0.00128461
0.243393
0.00130327
0.242494
0.00132015
0.241583
0.00133511
0.240659
0.00134794
0.239724
0.00135754
0.238779
0.00136364
0.237823
0.00135997
0.00135318
0.251475
0.00159544
-0.252047
0.250838
0.00166937
0.250148
0.00174351
0.249411
0.00181875
0.248627
0.00189274
0.2478
0.00196427
0.246933
0.00203301
0.246026
0.00209873
0.245083
0.00216119
0.244105
0.00222022
0.243093
0.00227579
0.24205
0.00232793
0.240977
0.00237672
0.239875
0.00242228
0.238745
0.00246463
0.237589
0.0025038
0.236407
0.00253927
0.2352
0.00257129
0.233962
0.00259746
0.00262197
0.247368
0.00203885
-0.247811
0.246855
0.00218243
0.246277
0.00232139
0.245638
0.00245716
0.244942
0.0025891
0.24419
0.0027164
0.243384
0.00283874
0.242527
0.00295595
0.24162
0.00306788
0.240666
0.00317447
0.239666
0.00327573
0.238622
0.0033718
0.237536
0.00346287
0.236409
0.00354923
0.235243
0.00363116
0.234037
0.00370901
0.232794
0.00378289
0.231512
0.00385342
0.230189
0.00391988
0.00398428
0.241119
0.0023179
-0.241398
0.240768
0.00253277
0.240349
0.00274088
0.239863
0.00294305
0.239313
0.00313925
0.2387
0.00332903
0.238027
0.00351204
0.237295
0.00368809
0.236505
0.00385707
0.235661
0.00401894
0.234763
0.00417378
0.233813
0.00432177
0.232813
0.00446325
0.231763
0.00459868
0.230666
0.0047286
0.229521
0.00485372
0.228329
0.00497462
0.22709
0.00509226
0.225804
0.00520681
0.00531992
0.23352
0.00244123
-0.233643
0.233326
0.00272671
0.233063
0.00300426
0.232732
0.00327417
0.232334
0.00353649
0.231873
0.00379091
0.231348
0.0040371
0.230761
0.00427482
0.230114
0.00450395
0.229408
0.00472446
0.228646
0.00493643
0.227827
0.00514012
0.226955
0.00533598
0.226029
0.00552463
0.22505
0.00570687
0.22402
0.00588374
0.222939
0.0060563
0.221805
0.00622592
0.220618
0.00639347
0.00656079
0.225276
0.00243941
-0.225274
0.22521
0.00279294
0.225076
0.00313777
0.224876
0.00347386
0.224612
0.00380113
0.224283
0.0041193
0.223893
0.00442803
0.22344
0.00472704
0.222928
0.00501617
0.222357
0.00529536
0.221729
0.0055647
0.221045
0.0058245
0.220305
0.00607526
0.219512
0.00631779
0.218666
0.00655314
0.217767
0.00678269
0.216815
0.007008
0.21581
0.00723097
0.21475
0.00745313
0.00767666
0.216913
0.00234863
-0.216823
0.21694
0.00276664
0.216902
0.00317538
0.216801
0.00357454
0.216639
0.00396391
0.216415
0.00434319
0.216131
0.00471198
0.215788
0.00506996
0.215387
0.00541691
0.21493
0.00575271
0.214417
0.00607745
0.21385
0.00639142
0.21323
0.00669521
0.212558
0.00698974
0.211835
0.00727634
0.211061
0.00755675
0.210236
0.00783307
0.209359
0.00810784
0.208429
0.00838341
0.00866248
0.20878
0.00220218
-0.208634
0.208866
0.0026809
0.208892
0.00314978
0.208858
0.00360837
0.208765
0.00405635
0.208615
0.00449333
0.208408
0.00491887
0.208146
0.00533257
0.207828
0.00573412
0.207458
0.00612335
0.207035
0.00650028
0.206561
0.00686519
0.206038
0.00721867
0.205466
0.00756174
0.204846
0.00789598
0.204179
0.00822349
0.203465
0.00854704
0.202703
0.0088699
0.201891
0.00919551
0.00952742
0.201076
0.00202707
-0.200901
0.201194
0.00256292
0.201256
0.00308835
0.201261
0.00360282
0.201212
0.0041059
0.201108
0.0045971
0.200951
0.00507591
0.200742
0.00554183
0.200481
0.00599449
0.200171
0.00643359
0.199812
0.00685906
0.199406
0.0072711
0.198955
0.00767026
0.198459
0.00805759
0.19792
0.00843487
0.197339
0.00880455
0.196716
0.00917015
0.19605
0.00953582
0.195339
0.00990653
0.0102871
0.193895
0.00184314
-0.193711
0.194025
0.00243301
0.194101
0.00301188
0.194125
0.00357909
0.194097
0.0041341
0.194017
0.00467635
0.193888
0.00520522
0.19371
0.00572012
0.193484
0.00622054
0.193211
0.00670608
0.192894
0.0071765
0.192533
0.00763186
0.192131
0.00807259
0.191689
0.00849967
0.191209
0.00891501
0.190692
0.00932126
0.190139
0.00972288
0.18955
0.0101249
0.188922
0.0105345
0.0109582
0.187259
0.00166381
-0.187079
0.187387
0.00230519
0.187463
0.00293497
0.18749
0.00355233
0.187468
0.00415664
0.187397
0.00474724
0.187279
0.00532343
0.187114
0.0058845
0.186905
0.00642979
0.186652
0.00695873
0.186358
0.0074709
0.186024
0.0079661
0.185652
0.0084446
0.185244
0.00890707
0.184804
0.00935548
0.184333
0.00979244
0.183832
0.0102235
0.183303
0.0106543
0.182741
0.0110956
0.0115557
0.181148
0.00149741
-0.180982
0.181265
0.00218845
0.181333
0.00286715
0.181353
0.00353259
0.181325
0.00418409
0.181252
0.00482089
0.181133
0.00544218
0.18097
0.00604712
0.180765
0.0066349
0.180519
0.00720475
0.180234
0.007756
0.179912
0.00828812
0.179556
0.00880105
0.179168
0.009295
0.178751
0.00977183
0.17831
0.0102336
0.177846
0.0106872
0.177363
0.0111382
0.176855
0.0116029
0.0120907
0.175521
0.00134877
-0.175373
0.175622
0.00208796
0.175675
0.002814
0.175682
0.00352596
0.175643
0.00422302
0.175559
0.00490433
0.175432
0.00556898
0.175263
0.006216
0.175054
0.00684441
0.174806
0.0074532
0.17452
0.00804144
0.1742
0.00860816
0.173848
0.00915285
0.173468
0.00967498
0.173064
0.0101761
0.172641
0.0106568
0.172202
0.011126
0.171753
0.0115868
0.171291
0.0120655
0.0125688
0.170325
0.00122017
-0.170197
0.170407
0.0020064
0.170442
0.00277855
0.170432
0.00353572
0.170378
0.00427702
0.170281
0.0050015
0.170142
0.00570813
0.169962
0.00639582
0.169743
0.00706342
0.169487
0.00770969
0.169195
0.00833334
0.16887
0.00893294
0.168516
0.0095074
0.168135
0.0100551
0.167734
0.0105771
0.16732
0.0110715
0.166896
0.0115494
0.166476
0.0120073
0.166052
0.0124893
0.012989
0.165505
0.00111239
-0.165398
0.165567
0.00194458
0.165584
0.00276178
0.165557
0.00356307
0.165486
0.00434748
0.165374
0.00511399
0.16522
0.00586145
0.165028
0.00658868
0.164797
0.00729433
0.164529
0.00797693
0.164228
0.00863484
0.163895
0.00926614
0.163533
0.00986902
0.163148
0.0104406
0.162744
0.0109809
0.162331
0.0114843
0.161916
0.0119644
0.161519
0.0124046
0.16113
0.0128779
0.013339
0.16101
0.00102492
-0.160922
0.161052
0.00190202
0.161051
0.00276325
0.161006
0.00360761
0.16092
0.00443408
0.160792
0.00524153
0.160625
0.00602876
0.160419
0.00679445
0.160176
0.00753713
0.159898
0.00825507
0.159587
0.00894635
0.159244
0.00960852
0.158874
0.010239
0.158481
0.0108336
0.158071
0.0113908
0.157656
0.0118996
0.157244
0.0123764
0.156867
0.0127814
0.156509
0.0132362
0.0135931
0.156791
0.000955926
-0.156722
0.156816
0.00187716
0.156798
0.00278126
0.156738
0.00366754
0.156637
0.00453485
0.156496
0.00538201
0.156317
0.00620778
0.156101
0.00701075
0.155849
0.0077893
0.155562
0.00854154
0.155244
0.00926527
0.154895
0.0099576
0.154518
0.0106153
0.154119
0.0112327
0.153703
0.0118066
0.153283
0.0123194
0.152871
0.0127885
0.152516
0.013137
0.152182
0.0135701
0.0137202
0.152806
0.000903458
-0.152754
0.152816
0.00186715
0.152785
0.0028126
0.152713
0.00373924
0.152602
0.00464577
0.152453
0.005531
0.152267
0.00639365
0.152046
0.00723226
0.15179
0.0080451
0.151501
0.00883016
0.151182
0.00958503
0.150833
0.0103065
0.150457
0.010991
0.150058
0.0116314
0.149641
0.0122235
0.149219
0.0127419
0.148803
0.0132045
0.148468
0.0134716
0.148175
0.013863
0.0136684
0.149016
-0.148978
0.000865955
0.149015
0.00186805
0.148975
0.00285288
0.148896
0.00381766
0.148781
0.00476101
0.14863
0.00568186
0.148445
0.00657895
0.148226
0.00745074
0.147976
0.00829546
0.147695
0.00911101
0.147385
0.00989494
0.147048
0.0106438
0.146685
0.011354
0.146299
0.0120174
0.145893
0.0126298
0.145475
0.0131593
0.145052
0.0136279
0.144701
0.0138224
0.144443
0.0141208
0.0130255
0.254364
7.40776e-05
-0.254438
0.254328
3.63843e-05
0.254295
3.25459e-05
0.254254
4.14741e-05
0.254198
5.59018e-05
0.254124
7.37501e-05
0.25403
9.37163e-05
0.253916
0.000114676
0.25378
0.000135816
0.253623
0.000156628
0.253447
0.000176674
0.253251
0.000195671
0.253037
0.000214117
0.252804
0.000233071
0.252553
0.000250358
0.252288
0.000265532
0.25201
0.000278194
0.251721
0.000288253
0.251432
0.000289848
0.000289857
0.256223
-0.000241472
-0.255908
0.256477
-0.000217518
0.256686
-0.000176604
0.256851
-0.000122814
0.256969
-6.26603e-05
0.257042
1.25113e-06
0.257068
6.7778e-05
0.257047
0.000135829
0.256978
0.000204481
0.256862
0.000272797
0.256699
0.000339536
0.256491
0.000403452
0.256242
0.000463307
0.255944
0.000530736
0.255602
0.00059243
0.255218
0.000649571
0.254794
0.000702015
0.254333
0.000749694
0.253835
0.000787954
0.000821016
0.251657
-0.000898086
-0.251
0.252241
-0.000801206
0.252758
-0.000694476
0.253214
-0.000578062
0.253607
-0.000455477
0.253937
-0.000328965
0.254204
-0.000199672
0.254409
-6.90044e-05
0.25455
6.30458e-05
0.254627
0.000195903
0.254641
0.000325727
0.254592
0.000452145
0.254478
0.000577455
0.254307
0.000702509
0.254076
0.000823385
0.253786
0.000939251
0.253438
0.00104963
0.253034
0.00115442
0.25257
0.00125167
0.00134418
0.243337
-0.00183363
-0.242402
0.2442
-0.00166401
0.244993
-0.00148711
0.245717
-0.0013022
0.246372
-0.00111096
0.246958
-0.000915198
0.247475
-0.000716254
0.247921
-0.000515394
0.248298
-0.000313308
0.248601
-0.000107222
0.248832
9.46611e-05
0.248995
0.000289363
0.249086
0.000485988
0.249109
0.000679593
0.249063
0.000869114
0.248949
0.00105364
0.248766
0.00123242
0.248516
0.0014051
0.248197
0.00157061
0.00172951
0.233254
-0.00296804
-0.23212
0.23432
-0.0027302
0.235318
-0.00248485
0.236247
-0.00223156
0.237108
-0.00197124
0.237898
-0.00170539
0.238617
-0.00143544
0.239264
-0.00116261
0.239839
-0.000887843
0.240343
-0.000611935
0.240776
-0.000338113
0.241133
-6.77872e-05
0.241418
0.000201113
0.241631
0.000466678
0.241772
0.000728515
0.24184
0.000985183
0.241837
0.00123595
0.241761
0.00148022
0.241615
0.00171718
0.00194675
0.222697
-0.00422893
-0.221436
0.223895
-0.00392776
0.225027
-0.00361751
0.226094
-0.00329833
0.227094
-0.00297103
0.228026
-0.00263704
0.228888
-0.00229792
0.229681
-0.00195515
0.230403
-0.00161016
0.231055
-0.00126431
0.231636
-0.000919153
0.232145
-0.00057598
0.232581
-0.000235654
0.232948
0.000100292
0.233243
0.000433335
0.233466
0.00076236
0.233617
0.00108469
0.233697
0.00140026
0.233706
0.00170843
0.00200896
0.212452
-0.00555871
-0.211122
0.213722
-0.0051984
0.214932
-0.0048269
0.216078
-0.00444485
0.21716
-0.0040533
0.218177
-0.00365386
0.219128
-0.00324834
0.220011
-0.00283849
0.220827
-0.00242594
0.221575
-0.00201217
0.222254
-0.00159856
0.222865
-0.00118654
0.223406
-0.000776897
0.223877
-0.000370372
0.224285
2.53679e-05
0.22462
0.000426597
0.224887
0.000818209
0.225085
0.00120249
0.225214
0.00157938
0.00194847
0.202928
-0.0069156
-0.201571
0.204229
-0.00649947
0.205472
-0.00606975
0.206655
-0.00562746
0.207776
-0.0051741
0.208833
-0.00471167
0.209827
-0.0042423
0.210757
-0.00376801
0.211622
-0.00329064
0.212421
-0.0028118
0.213156
-0.00233297
0.213825
-0.00185553
0.214428
-0.00138054
0.214967
-0.000908959
0.215434
-0.000442155
0.215847
1.37416e-05
0.216188
0.000477164
0.216465
0.000925821
0.216676
0.00136792
0.00180212
0.194286
-0.0082718
-0.19293
0.195589
-0.00780239
0.196836
-0.00731669
0.198024
-0.00681605
0.199153
-0.00630261
0.20022
-0.00577899
0.201225
-0.00524774
0.202169
-0.00471119
0.203049
-0.0041714
0.203868
-0.00363014
0.204624
-0.00308897
0.205317
-0.0025492
0.205949
-0.00201202
0.206518
-0.00147836
0.207026
-0.000949626
0.207467
-0.000427122
0.207853
9.0662e-05
0.208175
0.000604256
0.208435
0.0011077
0.00160328
0.186532
-0.00961054
-0.185193
0.187819
-0.00908981
0.189052
-0.00854961
0.190228
-0.00799166
0.191344
-0.00741911
0.1924
-0.00683539
0.193396
-0.00624358
0.194331
-0.00564637
0.195206
-0.00504604
0.19602
-0.00444451
0.196775
-0.00384333
0.197469
-0.00324383
0.198105
-0.00264715
0.19868
-0.00205425
0.199197
-0.00146614
0.199654
-0.000883729
0.200052
-0.000307746
0.200394
0.000262232
0.200677
0.000825224
0.00137873
0.179594
-0.0109231
-0.178281
0.180857
-0.0103528
0.182066
-0.00975889
0.183218
-0.00914384
0.184312
-0.00851237
0.185345
-0.00786898
0.186319
-0.00721733
0.187233
-0.0065605
0.188088
-0.00590101
0.188884
-0.00524084
0.189623
-0.00458153
0.190303
-0.00392435
0.190926
-0.00327036
0.191493
-0.0026205
0.192002
-0.0019756
0.192455
-0.00133655
0.192851
-0.000703844
0.193194
-8.04297e-05
0.19348
0.00053904
0.00114775
0.173368
-0.0122065
-0.172085
0.174604
-0.0115884
0.175786
-0.0109409
0.17691
-0.0102681
0.177975
-0.00957727
0.17898
-0.00887404
0.179926
-0.00816275
0.180812
-0.0074469
0.18164
-0.00672919
0.182411
-0.00601159
0.183125
-0.00529557
0.183783
-0.0045823
0.184385
-0.00387272
0.184933
-0.0031677
0.185425
-0.00246801
0.185863
-0.00177448
0.186247
-0.00108786
0.186576
-0.000409717
0.186855
0.000260127
0.000923464
0.167745
-0.0134617
-0.16649
0.168955
-0.012798
0.17011
-0.0120961
0.171206
-0.0113642
0.172242
-0.0106128
0.173217
-0.00984905
0.174132
-0.00907783
0.174988
-0.00830313
0.175787
-0.00752775
0.176529
-0.00675356
0.177215
-0.00598186
0.177846
-0.00521365
0.178423
-0.00444977
0.178947
-0.00369096
0.179417
-0.00293795
0.179834
-0.00219154
0.180198
-0.00145221
0.180509
-0.000720686
0.180773
-3.74349e-06
0.000714213
0.162625
-0.0146922
-0.161394
0.163813
-0.0139863
0.164945
-0.0132281
0.166015
-0.0124345
0.167023
-0.0116208
0.167969
-0.010795
0.168855
-0.009963
0.169681
-0.00912918
0.170449
-0.00829628
0.171161
-0.00746595
0.171819
-0.00663925
0.172422
-0.00581696
0.172972
-0.0049997
0.173469
-0.00418814
0.173914
-0.00338289
0.174307
-0.00258471
0.174649
-0.00179424
0.174942
-0.0010128
0.17518
-0.00024219
0.000521623
0.157924
-0.0159049
-0.156711
0.159098
-0.015161
0.160213
-0.0143426
0.161262
-0.0134834
0.162245
-0.0126041
0.163164
-0.0117138
0.16402
-0.0108194
0.164817
-0.0099256
0.165555
-0.00903497
0.166238
-0.00814871
0.166866
-0.0072675
0.167441
-0.00639178
0.167964
-0.00552196
0.168434
-0.00465849
0.168853
-0.00380193
0.169221
-0.00295297
0.169539
-0.00211236
0.169808
-0.00128105
0.170026
-0.000460172
0.000350539
0.153579
-0.0171123
-0.152372
0.154751
-0.0163324
0.155854
-0.0154463
0.156887
-0.0145156
0.157848
-0.0135652
0.15874
-0.012606
0.159567
-0.0116467
0.160334
-0.0106918
0.161042
-0.00974317
0.161694
-0.00880125
0.162293
-0.00786617
0.162839
-0.00693785
0.163334
-0.00601633
0.163777
-0.00510189
0.16417
-0.00419495
0.164513
-0.00329613
0.164807
-0.00240617
0.165052
-0.0015259
0.165248
-0.000656514
0.000201015
0.149546
-0.0183435
-0.148315
0.150729
-0.0175158
0.151829
-0.0165458
0.152847
-0.0155337
0.153784
-0.0145028
0.154647
-0.0134686
0.155442
-0.0124418
0.156175
-0.0114252
0.156851
-0.0104188
0.157472
-0.00942221
0.15804
-0.00843448
0.158557
-0.00745484
0.159024
-0.00648287
0.159441
-0.00551861
0.159808
-0.00456237
0.160127
-0.00361469
0.160397
-0.00267632
0.160619
-0.00174814
0.160794
-0.000831124
7.23737e-05
0.145794
-0.0196631
-0.144474
0.147011
-0.0187331
0.148107
-0.0176415
0.149106
-0.0165322
0.150011
-0.0154085
0.150836
-0.0142933
0.151592
-0.0131981
0.152288
-0.0121211
0.152929
-0.0110592
0.153517
-0.0100102
0.154054
-0.008972
0.154542
-0.00794294
0.154981
-0.00692218
0.155372
-0.00590952
0.155715
-0.0049052
0.15601
-0.00390978
0.156258
-0.00292403
0.156459
-0.001949
0.156613
-0.000985681
-3.60089e-05
0.142339
-0.0211411
-0.140861
0.143588
-0.0199816
0.144662
-0.0187152
0.145618
-0.0174888
0.146475
-0.0162656
0.147251
-0.0150693
0.147962
-0.0139089
0.148617
-0.012776
0.149221
-0.011663
0.149776
-0.0105653
0.150283
-0.00947953
0.150744
-0.00840338
0.151157
-0.00733567
0.151524
-0.00627614
0.151844
-0.00522509
0.152117
-0.00418312
0.152344
-0.00315111
0.152525
-0.00213021
0.152662
-0.00112193
-0.000127804
0.139252
-0.137834
-0.022559
0.140414
-0.0211433
0.141447
-0.0197489
0.142324
-0.0183656
0.143113
-0.0170547
0.143837
-0.0157929
0.144502
-0.0145739
0.145116
-0.0133906
0.145685
-0.0122318
0.146209
-0.0110895
0.146689
-0.00995904
0.147123
-0.00883785
0.147513
-0.00772482
0.147856
-0.00661982
0.148155
-0.00552334
0.148408
-0.00443616
0.148616
-0.00335924
0.148779
-0.00229359
0.148898
-0.0012408
-0.000208343
0.030827
0.112034
-0.11055
-0.0323108
0.0293159
0.115037
-0.113526
0.0277747
0.118173
-0.116632
0.0262
0.121465
-0.119891
0.0245884
0.124945
-0.123334
0.022937
0.128656
-0.127005
0.0212439
0.132655
-0.130962
0.0195077
0.137022
-0.135286
0.0177277
0.141861
-0.140081
0.0159042
0.147303
-0.14548
0.0140391
0.153509
-0.151644
0.0121365
0.160666
-0.158763
0.0102054
0.168975
-0.167044
0.00826253
0.178624
-0.176681
0.0063377
0.189737
-0.187812
0.00448109
0.202277
-0.20042
0.00277248
0.215907
-0.214199
0.0013324
0.229772
-0.228332
0.000330167
0.242089
-0.241087
0.249725
-0.249395
0.0306381
0.11351
-0.0321143
0.0291345
0.116541
0.0276012
0.119707
0.0260345
0.123032
0.0244311
0.126549
0.0227881
0.130299
0.0211034
0.13434
0.0193754
0.13875
0.0176033
0.143633
0.0157875
0.149119
0.0139298
0.155367
0.0120349
0.162561
0.0101122
0.170898
0.00817919
0.180557
0.00626698
0.191649
0.00442722
0.204116
0.00274115
0.217593
0.00132873
0.231185
0.000353934
0.243064
0.250079
0.0304071
0.114977
-0.0318736
0.0289135
0.118035
0.0273901
0.12123
0.0258337
0.124588
0.0242407
0.128142
0.0226083
0.131931
0.0209341
0.136014
0.0192165
0.140468
0.0174546
0.145395
0.0156488
0.150925
0.0138011
0.157215
0.0119163
0.164446
0.0100044
0.172809
0.00808376
0.182478
0.00618635
0.193546
0.00436485
0.205938
0.00270107
0.219257
0.00131331
0.232572
0.000357011
0.24402
0.250436
0.030136
0.116431
-0.0315905
0.0286543
0.119516
0.0271431
0.122741
0.0255989
0.126133
0.0240184
0.129722
0.0223985
0.133551
0.0207369
0.137676
0.0190319
0.142173
0.0172824
0.147145
0.0154889
0.152718
0.0136533
0.15905
0.0117809
0.166318
0.00988213
0.174708
0.00797596
0.184384
0.00609522
0.195427
0.00429334
0.20774
0.00265224
0.220898
0.00128859
0.233936
0.00035195
0.244957
0.250788
0.0298268
0.117872
-0.0312675
0.0283589
0.120984
0.0268618
0.124238
0.0253318
0.127663
0.0237655
0.131289
0.02216
0.135157
0.0205129
0.139323
0.0188223
0.143864
0.0170872
0.14888
0.0153079
0.154498
0.0134867
0.160871
0.0116289
0.168176
0.00974533
0.176592
0.00785576
0.186274
0.00599371
0.197289
0.00421328
0.20952
0.00259641
0.222515
0.00125815
0.235274
0.000343034
0.245872
0.251131
0.0294821
0.119298
-0.0309076
0.0280297
0.122436
0.0265481
0.12572
0.0250338
0.129177
0.0234834
0.132839
0.0218939
0.136746
0.0202629
0.140954
0.0185885
0.145538
0.0168696
0.150599
0.0151065
0.156261
0.0133016
0.162676
0.0114604
0.170017
0.00959422
0.178458
0.00772339
0.188144
0.00588218
0.19913
0.00412529
0.211277
0.0025346
0.224106
0.00122336
0.236585
0.000331432
0.246764
0.251462
0.0291048
0.120707
-0.0305139
0.0276689
0.123872
0.0262041
0.127185
0.0247068
0.130674
0.0231735
0.134372
0.0216014
0.138318
0.019988
0.142567
0.0183313
0.147195
0.0166303
0.1523
0.0148852
0.158006
0.0130984
0.164463
0.0112758
0.17184
0.00942911
0.180305
0.00757916
0.189994
0.00576096
0.200948
0.00402974
0.213008
0.00246722
0.225668
0.00118477
0.237868
0.000317851
0.247631
0.25178
0.0286976
0.122099
-0.0300897
0.027279
0.125291
0.0258318
0.128632
0.0243523
0.132154
0.0228373
0.135887
0.0212837
0.139872
0.0196891
0.144162
0.0180515
0.148832
0.0163699
0.153981
0.0146444
0.159731
0.0128776
0.16623
0.0110755
0.173642
0.00925027
0.18213
0.00742333
0.191821
0.00563031
0.202741
0.00392693
0.214712
0.00239462
0.227201
0.00114291
0.23912
0.000302892
0.248471
0.252083
0.0282636
0.123474
-0.0296387
0.0268624
0.126692
0.0254331
0.130061
0.023972
0.133615
0.0224758
0.137384
0.0209416
0.141406
0.0193669
0.145737
0.0177497
0.15045
0.0160888
0.155642
0.0143845
0.161436
0.0126394
0.167975
0.0108597
0.175421
0.00905797
0.183932
0.00725615
0.193623
0.0054905
0.204507
0.00381715
0.216385
0.00231719
0.228701
0.00109826
0.240339
0.000286972
0.249282
0.25237
0.0278054
0.124833
-0.0291642
0.0264212
0.128076
0.0250096
0.131473
0.023567
0.135057
0.0220901
0.138861
0.0205759
0.14292
0.0190219
0.14729
0.0174261
0.152045
0.0157873
0.157281
0.0141058
0.163117
0.012384
0.169697
0.0106286
0.177177
0.0088524
0.185708
0.00707784
0.195398
0.00534178
0.206243
0.00370069
0.218026
0.00223528
0.230166
0.00105118
0.241523
0.000270338
0.250063
0.25264
0.0273255
0.126177
-0.0286696
0.0259571
0.129445
0.0245626
0.132867
0.0231382
0.136482
0.0216806
0.140318
0.0201868
0.144414
0.0186544
0.148823
0.0170811
0.153619
0.0154657
0.158896
0.0138083
0.164775
0.0121116
0.171394
0.0103824
0.178906
0.00863371
0.187456
0.00688858
0.197143
0.00518437
0.207947
0.00357784
0.219633
0.00214919
0.231595
0.00100194
0.24267
0.000253148
0.250812
0.252893
0.0268254
0.127509
-0.0281573
0.0254709
0.130799
0.0240922
0.134246
0.0226854
0.137889
0.0212471
0.141757
0.0197743
0.145887
0.0182641
0.150333
0.0167144
0.155168
0.0151236
0.160487
0.013492
0.166406
0.0118222
0.173063
0.0101211
0.180607
0.00840201
0.189176