/*--------------------------------*- C++ -*----------------------------------*\
  =========                 |
  \\      /  F ield         | OpenFOAM: The Open Source CFD Toolbox
   \\    /   O peration     | Website:  https://openfoam.org
    \\  /    A nd           | Version:  6.0
     \\/     M anipulation  |
\*---------------------------------------------------------------------------*/
FoamFile
{
    version     2.0;
    format      ascii;
    class       volVectorField;
    location    "11.7495";
    object      U;
}
// * * * * * * * * * * * * * * * * * * * * * * * * * * * * * * * * * * * * * //

dimensions      [0 1 -1 0 0 0 0];

internalField   nonuniform List<vector> 
19200
(
(0.0984381 -4.74279 -6.40552e-21)
(0.0605141 -4.32626 3.22764e-21)
(0.066287 -3.98483 1.49558e-21)
(0.0810251 -3.70532 1.31704e-21)
(0.098583 -3.47614 1.47195e-21)
(0.120439 -3.2875 1.08446e-22)
(0.146004 -3.1314 2.0902e-21)
(0.174352 -3.00137 -1.36504e-22)
(0.204779 -2.89218 1.84067e-21)
(0.236686 -2.79963 7.78266e-22)
(0.269548 -2.72032 1.47631e-23)
(0.302916 -2.65157 1.23495e-21)
(0.336412 -2.59121 2.01945e-21)
(0.369722 -2.53751 -1.36928e-21)
(0.402588 -2.48909 1.78126e-21)
(0.434803 -2.44484 1.54161e-21)
(0.4662 -2.40387 -1.44286e-21)
(0.496654 -2.3655 2.48108e-21)
(0.526068 -2.32915 -1.56885e-21)
(0.554373 -2.29438 8.01246e-22)
(0.581526 -2.26083 1.11758e-21)
(0.6075 -2.2282 -3.50172e-22)
(0.632284 -2.19624 4.76589e-22)
(0.655881 -2.16477 -5.53481e-22)
(0.678303 -2.13359 -1.2178e-24)
(0.699567 -2.10255 2.97871e-22)
(0.719693 -2.07148 -1.86599e-22)
(0.738704 -2.04022 1.25847e-22)
(0.756632 -2.0086 2.71585e-22)
(0.77348 -1.97642 1.11648e-21)
(0.222866 -4.74022 -1.4986e-21)
(0.174714 -4.32996 1.00474e-20)
(0.17227 -3.9938 -5.28847e-21)
(0.180534 -3.71914 -7.19694e-21)
(0.193018 -3.49442 -3.23133e-21)
(0.210881 -3.30974 -2.33994e-21)
(0.233282 -3.15706 -5.05277e-21)
(0.259093 -3.02993 6.34083e-22)
(0.287453 -2.92313 -1.10449e-21)
(0.31764 -2.83249 -3.81843e-21)
(0.349033 -2.75468 -9.579e-21)
(0.381107 -2.68702 4.70397e-21)
(0.413427 -2.6274 -1.72864e-21)
(0.445635 -2.57413 6.59054e-22)
(0.47744 -2.52586 -4.10859e-21)
(0.508611 -2.48152 -1.52267e-21)
(0.538964 -2.44027 1.7589e-22)
(0.568361 -2.40143 5.20754e-21)
(0.596696 -2.36447 -2.73904e-21)
(0.623899 -2.32897 -1.53083e-21)
(0.649921 -2.29458 -5.96733e-21)
(0.674736 -2.26104 1.53718e-21)
(0.698334 -2.22812 -9.84059e-22)
(0.720721 -2.19563 1.72597e-21)
(0.741909 -2.16341 -7.79423e-22)
(0.761919 -2.13129 -1.21605e-21)
(0.780773 -2.09913 4.05371e-22)
(0.7985 -2.06676 5.97528e-22)
(0.815152 -2.034 -1.09813e-21)
(0.830699 -2.00064 5.7581e-22)
(0.346973 -4.7348 -7.45594e-22)
(0.288879 -4.3311 2.35681e-21)
(0.278612 -4.0005 3.36899e-21)
(0.280735 -3.73093 2.56021e-20)
(0.288413 -3.51087 -1.48163e-20)
(0.302501 -3.33027 1.36826e-20)
(0.321911 -3.18109 8.40949e-21)
(0.345322 -3.05688 6.52621e-21)
(0.371718 -2.95248 -6.36856e-21)
(0.400258 -2.86374 -7.46144e-22)
(0.430227 -2.78737 1.619e-20)
(0.461028 -2.72076 2.72931e-21)
(0.492172 -2.66182 -7.432e-21)
(0.523261 -2.60892 5.94823e-21)
(0.553972 -2.56074 -7.7019e-23)
(0.584052 -2.51625 2.55616e-21)
(0.613304 -2.47465 1.93264e-21)
(0.641578 -2.43529 6.31296e-21)
(0.668763 -2.39767 -2.83283e-21)
(0.694785 -2.36139 -9.43553e-22)
(0.719596 -2.32613 -2.47808e-21)
(0.743169 -2.29165 1.0831e-20)
(0.765499 -2.25773 -9.02168e-21)
(0.786592 -2.22421 3.0202e-21)
(0.806465 -2.19093 1.33939e-21)
(0.825141 -2.15775 -5.43006e-21)
(0.842643 -2.1245 7.30842e-21)
(0.859009 -2.09104 -8.32833e-22)
(0.874309 -2.05717 -8.34635e-22)
(0.888477 -2.02267 -5.86746e-21)
(0.470918 -4.72641 -2.43568e-20)
(0.403164 -4.3297 -2.21694e-20)
(0.385376 -4.00495 -2.72594e-20)
(0.381646 -3.74071 1.03603e-21)
(0.384767 -3.52545 1.59379e-21)
(0.395288 -3.34903 -3.10175e-20)
(0.411877 -3.2034 1.37306e-21)
(0.43302 -3.08214 3.97808e-21)
(0.45755 -2.98012 -6.86136e-22)
(0.48451 -2.89325 7.01453e-21)
(0.513093 -2.81829 -2.83131e-20)
(0.542637 -2.75267 -1.78908e-20)
(0.572599 -2.69436 6.6684e-21)
(0.602544 -2.64175 1.34156e-20)
(0.632122 -2.5936 -1.57403e-20)
(0.66106 -2.54891 -2.53558e-21)
(0.689147 -2.5069 -9.36264e-21)
(0.716227 -2.46696 -4.51297e-21)
(0.742186 -2.42863 7.48032e-21)
(0.766947 -2.39153 -9.69759e-21)
(0.790464 -2.35537 8.33609e-21)
(0.812712 -2.31992 -9.98484e-21)
(0.833689 -2.28499 -7.94809e-21)
(0.853405 -2.25043 -5.59155e-21)
(0.871881 -2.21609 -1.71194e-21)
(0.889145 -2.18184 -1.16636e-20)
(0.90522 -2.14753 1.18405e-21)
(0.920151 -2.113 2.09709e-21)
(0.934029 -2.07806 -6.07136e-21)
(0.946745 -2.04248 1.30822e-21)
(0.594667 -4.71496 -1.48833e-20)
(0.517579 -4.32571 2.08556e-21)
(0.492568 -4.00712 1.92003e-20)
(0.483261 -3.74842 2.03889e-20)
(0.48207 -3.5381 1.45566e-20)
(0.489229 -3.36595 5.96571e-21)
(0.503162 -3.22391 9.39513e-21)
(0.522163 -3.10561 4.3749e-20)
(0.544919 -3.00595 -2.63323e-20)
(0.570358 -2.92092 7.16261e-22)
(0.597589 -2.84731 6.38413e-21)
(0.625883 -2.78262 2.79853e-20)
(0.654651 -2.72487 -1.93277e-20)
(0.683421 -2.67251 1.40115e-20)
(0.711819 -2.62433 -1.57734e-20)
(0.739557 -2.57936 2.69527e-20)
(0.766413 -2.53689 -8.11756e-21)
(0.792226 -2.49633 2.51771e-22)
(0.816878 -2.45724 1.31845e-20)
(0.840295 -2.41928 9.16861e-21)
(0.862433 -2.38219 -9.45689e-21)
(0.883271 -2.34575 1.28279e-20)
(0.90281 -2.30981 -5.93831e-21)
(0.921068 -2.2742 6.78336e-21)
(0.938069 -2.23881 8.9867e-21)
(0.953843 -2.20351 3.27119e-21)
(0.968419 -2.16816 1.00298e-20)
(0.981847 -2.1326 -3.54738e-21)
(0.994238 -2.09662 -1.31543e-21)
(1.00544 -2.06001 -6.00083e-21)
(0.718159 -4.70046 -1.10056e-20)
(0.632094 -4.3191 -7.4041e-21)
(0.600171 -4.00697 -2.22816e-20)
(0.585567 -3.75401 -5.7838e-20)
(0.580305 -3.54877 1.96252e-20)
(0.584303 -3.38095 1.24406e-21)
(0.595739 -3.24253 -1.35217e-20)
(0.61272 -3.12718 2.92648e-21)
(0.633788 -3.02987 -1.85803e-21)
(0.65776 -2.94662 -3.55049e-20)
(0.683665 -2.87431 1.51138e-20)
(0.71071 -2.8105 2.61801e-20)
(0.738263 -2.75325 1.8168e-22)
(0.765821 -2.70107 9.92838e-21)
(0.792988 -2.65278 2.45943e-20)
(0.819463 -2.6075 -1.69259e-20)
(0.845016 -2.56451 3.01551e-20)
(0.869482 -2.52328 -1.43425e-20)
(0.892746 -2.4834 2.59885e-20)
(0.914734 -2.44456 -1.93944e-20)
(0.935407 -2.40651 8.82059e-21)
(0.954749 -2.36908 2.3172e-20)
(0.972769 -2.3321 1.3329e-21)
(0.989487 -2.29546 -2.13793e-20)
(1.00493 -2.25903 1.21864e-20)
(1.01915 -2.2227 1.49669e-21)
(1.03215 -2.18634 -3.81528e-21)
(1.04402 -2.14978 1.49741e-20)
(1.05486 -2.11283 5.18494e-21)
(1.06448 -2.07525 -5.26614e-21)
(0.841324 -4.68289 3.06528e-20)
(0.746667 -4.30984 -1.36812e-21)
(0.708156 -4.00446 -4.61602e-20)
(0.688538 -3.75743 9.16684e-21)
(0.679449 -3.55738 -1.30946e-20)
(0.680484 -3.39395 9.56622e-21)
(0.689579 -3.25917 2.17256e-20)
(0.704655 -3.14675 3.97144e-20)
(0.724113 -3.05174 -4.33021e-20)
(0.746666 -2.97024 1.06981e-20)
(0.771262 -2.89918 -7.59048e-21)
(0.797053 -2.83617 5.68998e-21)
(0.823365 -2.77936 -2.49059e-20)
(0.849667 -2.7273 -1.43929e-21)
(0.875546 -2.67886 4.13911e-20)
(0.90069 -2.6332 -2.84983e-20)
(0.924864 -2.58965 -1.80068e-20)
(0.947903 -2.54771 -1.32523e-20)
(0.969693 -2.50701 2.46739e-20)
(0.990166 -2.46726 5.38441e-21)
(1.00929 -2.42825 -2.42509e-20)
(1.02705 -2.38981 3.28198e-20)
(1.04347 -2.35181 -2.95182e-20)
(1.05857 -2.31414 1.98607e-20)
(1.07239 -2.27669 -1.11142e-20)
(1.08497 -2.23936 7.43669e-21)
(1.09634 -2.20203 5.54079e-21)
(1.10658 -2.16453 -2.45246e-20)
(1.11582 -2.12665 1.0722e-20)
(1.12381 -2.08817 2.69327e-22)
(0.964091 -4.66225 -3.06539e-20)
(0.861247 -4.29792 2.57395e-20)
(0.816486 -3.99956 -4.80168e-20)
(0.792144 -3.75862 9.21139e-20)
(0.779471 -3.56385 -2.60189e-20)
(0.777739 -3.40487 3.74119e-20)
(0.784643 -3.27372 1.24704e-22)
(0.797924 -3.16422 -5.00294e-21)
(0.815845 -3.07148 -7.88958e-21)
(0.837018 -2.99166 -1.60424e-22)
(0.860316 -2.92179 -3.09382e-20)
(0.88484 -2.85953 1.59731e-20)
(0.909878 -2.80309 -1.97679e-20)
(0.934875 -2.75108 -1.55258e-21)
(0.959404 -2.70244 -5.62987e-20)
(0.983144 -2.65635 1.83798e-20)
(1.00586 -2.6122 1.09772e-20)
(1.02739 -2.56953 -1.2188e-20)
(1.04762 -2.52798 -1.401e-21)
(1.06649 -2.48731 -1.93814e-20)
(1.08397 -2.44732 -7.03698e-21)
(1.10007 -2.40788 6.86084e-22)
(1.1148 -2.36887 -1.72348e-20)
(1.12821 -2.33019 -2.55797e-20)
(1.14033 -2.29175 1.04721e-21)
(1.15122 -2.25346 -2.7193e-21)
(1.1609 -2.2152 8.18631e-21)
(1.16946 -2.1768 -2.0297e-20)
(1.17705 -2.13806 1.73155e-20)
(1.18337 -2.09875 -3.51331e-20)
(1.08639 -4.63855 -7.78355e-20)
(0.975781 -4.2833 9.6515e-20)
(0.92512 -3.99221 -1.02953e-19)
(0.896348 -3.75752 -2.75921e-20)
(0.880334 -3.56812 -1.8234e-20)
(0.876028 -3.41361 -1.96197e-20)
(0.880888 -3.2861 -1.814e-20)
(0.892477 -3.17948 -3.90989e-21)
(0.908927 -3.08896 -1.85229e-20)
(0.928752 -3.01077 -4.72071e-21)
(0.950758 -2.94202 3.2365e-20)
(0.973995 -2.88045 -1.86682e-20)
(0.997719 -2.82432 -2.28523e-20)
(1.02136 -2.77232 -3.87414e-20)
(1.04447 -2.72342 8.18208e-20)
(1.06673 -2.67686 -3.19695e-20)
(1.0879 -2.63208 1.19397e-20)
(1.10783 -2.58863 -4.48872e-20)
(1.12642 -2.54622 1.70558e-20)
(1.1436 -2.50462 -7.28396e-21)
(1.15936 -2.46366 8.93116e-21)
(1.17371 -2.42323 -3.46136e-21)
(1.18668 -2.38322 2.92942e-20)
(1.19832 -2.34356 -1.05218e-20)
(1.20868 -2.30417 2.87347e-20)
(1.2178 -2.26496 -5.40456e-21)
(1.22574 -2.22582 3.78198e-20)
(1.23257 -2.18659 1.04171e-20)
(1.23847 -2.14704 1.98158e-20)
(1.24308 -2.10699 -6.43642e-20)
(1.20814 -4.61179 1.2356e-19)
(1.09021 -4.26597 -2.44764e-20)
(1.03401 -3.98237 4.35874e-20)
(1.00111 -3.75407 -1.29705e-20)
(0.981996 -3.57011 4.52454e-20)
(0.975307 -3.42008 4.34064e-20)
(0.978264 -3.2962 5.00374e-20)
(0.988259 -3.19243 -4.31374e-21)
(1.0033 -3.10407 -4.88192e-20)
(1.0218 -3.02746 7.21297e-20)
(1.04251 -2.95977 -5.85032e-21)
(1.06443 -2.89882 5.25223e-20)
(1.0868 -2.84295 1.91859e-20)
(1.10902 -2.79089 6.97037e-21)
(1.13064 -2.74169 1.2062e-20)
(1.15134 -2.69463 1.58848e-20)
(1.17089 -2.64918 2.6987e-20)
(1.18913 -2.60495 -7.82417e-21)
(1.20598 -2.56167 4.02242e-20)
(1.22138 -2.51913 1.88487e-20)
(1.23534 -2.47721 -3.95886e-20)
(1.24786 -2.4358 7.02932e-20)
(1.259 -2.39482 -9.35242e-20)
(1.2688 -2.35422 8.94152e-20)
(1.27733 -2.31391 -2.97398e-20)
(1.28464 -2.27383 5.63956e-21)
(1.29078 -2.23387 -3.97259e-20)
(1.29584 -2.19387 2.21773e-20)
(1.30002 -2.1536 8.12642e-21)
(1.30288 -2.11289 -1.03085e-20)
(1.32927 -4.58198 -7.19883e-20)
(1.20449 -4.24592 7.25705e-20)
(1.14311 -3.97001 -1.99135e-20)
(1.10638 -3.74821 5.8005e-20)
(1.08441 -3.56974 5.45474e-21)
(1.07553 -3.42421 1.30512e-20)
(1.07672 -3.30393 -1.01953e-19)
(1.08521 -3.20297 -1.77711e-20)
(1.09888 -3.11672 6.72168e-20)
(1.11608 -3.04161 5.26007e-20)
(1.13549 -2.97492 -8.96546e-20)
(1.15606 -2.91453 5.29931e-20)
(1.17702 -2.85886 -5.34635e-20)
(1.19775 -2.8067 3.78045e-20)
(1.21781 -2.75715 -6.27458e-20)
(1.23687 -2.70955 -4.75694e-20)
(1.25471 -2.66342 2.94155e-21)
(1.27118 -2.61839 -2.23526e-20)
(1.2862 -2.57424 4.00794e-20)
(1.29974 -2.53078 1.57822e-20)
(1.3118 -2.48791 -1.05129e-20)
(1.32242 -2.44555 -3.27964e-21)
(1.33165 -2.40364 1.26663e-20)
(1.33954 -2.36213 -4.21087e-20)
(1.34618 -2.32096 7.16102e-20)
(1.35163 -2.28006 -1.73512e-20)
(1.35593 -2.23935 -1.43083e-21)
(1.35919 -2.19865 6.34778e-20)
(1.36162 -2.15772 8.65472e-21)
(1.3627 -2.11644 -9.11654e-21)
(1.44972 -4.54911 1.74319e-21)
(1.31854 -4.2231 -4.04054e-20)
(1.25236 -3.95508 -3.83119e-20)
(1.2121 -3.73988 -6.23621e-20)
(1.18752 -3.56694 1.53344e-21)
(1.17663 -3.42591 -4.61183e-20)
(1.17618 -3.30919 5.49492e-20)
(1.18325 -3.21098 -4.67734e-21)
(1.19561 -3.12678 4.66607e-20)
(1.21152 -3.05313 -3.79445e-20)
(1.2296 -2.98736 -2.02691e-20)
(1.24879 -2.92747 1.10757e-20)
(1.26828 -2.87195 6.02477e-21)
(1.28746 -2.81965 -6.3247e-20)
(1.30588 -2.76972 3.78612e-20)
(1.32321 -2.72156 -1.9454e-20)
(1.33925 -2.67473 5.45128e-20)
(1.35386 -2.6289 -1.82361e-20)
(1.36696 -2.58387 1.95032e-20)
(1.37855 -2.53951 4.63869e-21)
(1.38865 -2.49572 3.32254e-20)
(1.39728 -2.45244 -6.84022e-21)
(1.40453 -2.40963 5.53048e-20)
(1.41046 -2.36726 -6.14623e-20)
(1.41516 -2.32529 -2.07643e-20)
(1.41869 -2.28364 1.72954e-20)
(1.42111 -2.24224 -1.40685e-21)
(1.42254 -2.20092 -3.05586e-20)
(1.42319 -2.15942 2.50814e-20)
(1.42249 -2.11765 -3.0366e-20)
(1.56939 -4.51322 1.24207e-19)
(1.43231 -4.19753 3.56705e-20)
(1.36171 -3.93754 4.16596e-20)
(1.31823 -3.72902 5.81411e-20)
(1.29128 -3.56163 8.71338e-20)
(1.27855 -3.42509 -2.00511e-21)
(1.27659 -3.31189 1.25256e-20)
(1.28231 -3.21638 1.0217e-19)
(1.2934 -3.13417 -2.07882e-20)
(1.30801 -3.06189 -3.80148e-20)
(1.32475 -2.997 6.88898e-20)
(1.34252 -2.93756 1.20448e-20)
(1.36048 -2.88213 1.01218e-21)
(1.37803 -2.82964 1.68167e-20)
(1.39472 -2.77931 3.10909e-20)
(1.41025 -2.73057 -6.46411e-20)
(1.42439 -2.68303 5.54921e-20)
(1.43705 -2.6364 9.78104e-21)
(1.44816 -2.59052 5.53372e-20)
(1.45772 -2.54527 -2.97163e-20)
(1.46576 -2.50059 5.04152e-20)
(1.47234 -2.45643 -5.35422e-20)
(1.47754 -2.41278 5.25183e-20)
(1.48145 -2.36961 7.39078e-21)
(1.48415 -2.32689 -3.52982e-20)
(1.48573 -2.28456 -1.17054e-20)
(1.48624 -2.24255 6.9268e-20)
(1.48581 -2.20069 5.06569e-20)
(1.48467 -2.1587 1.3714e-20)
(1.48218 -2.11654 -9.70509e-21)
(1.68823 -4.4743 1.34166e-20)
(1.54573 -4.16916 3.14107e-20)
(1.4711 -3.91736 1.25797e-19)
(1.4247 -3.71558 -2.06202e-19)
(1.39562 -3.55375 -2.05983e-20)
(1.38122 -3.42166 -2.20255e-20)
(1.37786 -3.31195 1.03196e-20)
(1.38232 -3.21907 1.4944e-20)
(1.39215 -3.13878 2.38985e-20)
(1.40548 -3.06782 -6.3641e-20)
(1.42084 -3.00373 -1.28711e-20)
(1.43713 -2.94468 3.73975e-20)
(1.45351 -2.88931 4.09041e-20)
(1.46935 -2.8366 -4.02994e-20)
(1.48424 -2.78584 -4.04164e-20)
(1.49786 -2.73652 6.62187e-20)
(1.51003 -2.68826 4.42084e-20)
(1.52064 -2.64085 -1.07194e-20)
(1.52967 -2.59414 -2.82593e-20)
(1.53711 -2.54803 5.6779e-21)
(1.54303 -2.50249 -6.70359e-20)
(1.54749 -2.4575 8.19731e-20)
(1.55058 -2.41306 -5.61758e-20)
(1.55241 -2.36915 -2.40635e-21)
(1.55307 -2.32575 3.79814e-20)
(1.55266 -2.28282 -1.16645e-20)
(1.55123 -2.24028 -3.56107e-20)
(1.54892 -2.19796 4.42091e-20)
(1.54598 -2.15558 -1.05794e-21)
(1.5417 -2.11312 8.09987e-21)
(1.80614 -4.43236 -9.0914e-21)
(1.65874 -4.13799 -3.17595e-20)
(1.58046 -3.89448 -1.46459e-19)
(1.53146 -3.6995 5.31589e-20)
(1.50046 -3.54323 -1.63873e-20)
(1.48457 -3.41556 5.54254e-20)
(1.47993 -3.30926 4.47505e-21)
(1.48318 -3.21896 -6.44924e-20)
(1.49179 -3.14052 9.99114e-20)
(1.50381 -3.0708 -9.0586e-20)
(1.51777 -3.00746 -3.85709e-21)
(1.53252 -2.94876 2.29544e-20)
(1.54724 -2.8934 -3.90867e-20)
(1.5613 -2.84045 4.60413e-20)
(1.57429 -2.78925 -8.7616e-20)
(1.58593 -2.73933 -2.01551e-20)
(1.59603 -2.69037 5.4345e-20)
(1.60452 -2.64219 3.07539e-22)
(1.61137 -2.59467 -3.48676e-20)
(1.61663 -2.54774 9.60975e-20)
(1.62034 -2.5014 -5.18629e-20)
(1.62261 -2.45563 -6.9905e-20)
(1.62354 -2.41046 2.33412e-20)
(1.62324 -2.36588 -6.88847e-20)
(1.62182 -2.32188 -1.67446e-20)
(1.61938 -2.27842 -2.09232e-21)
(1.61599 -2.23543 -4.59087e-20)
(1.61179 -2.19274 5.50591e-20)
(1.60705 -2.15006 -3.07027e-20)
(1.60098 -2.10741 3.62224e-20)
(1.92307 -4.38744 -4.64392e-20)
(1.77126 -4.10401 -1.31778e-19)
(1.68973 -3.86889 6.44916e-20)
(1.63842 -3.68072 -6.29082e-20)
(1.60575 -3.52999 -4.58529e-20)
(1.58853 -3.40669 -2.70299e-20)
(1.58271 -3.30375 -1.0138e-19)
(1.5848 -3.21595 6.97303e-20)
(1.5922 -3.13929 -1.74349e-19)
(1.60291 -3.07076 -6.4613e-20)
(1.61542 -3.00811 2.31154e-20)
(1.62858 -2.94971 3.93029e-20)
(1.64156 -2.89433 -6.01157e-22)
(1.65376 -2.84112 -7.64695e-20)
(1.66477 -2.78946 1.81692e-20)
(1.67433 -2.73895 -7.15392e-20)
(1.68228 -2.68931 -5.17426e-20)
(1.68856 -2.64039 -3.14764e-20)
(1.69316 -2.59209 -6.26465e-21)
(1.69615 -2.54439 5.43868e-20)
(1.69759 -2.49729 7.81485e-20)
(1.69761 -2.45081 -2.36432e-20)
(1.69632 -2.40497 -2.33377e-20)
(1.69384 -2.35979 4.50485e-20)
(1.69031 -2.31527 2.49327e-20)
(1.68582 -2.27137 -2.00391e-20)
(1.68044 -2.22802 -2.26301e-20)
(1.67435 -2.18506 2.62958e-21)
(1.66781 -2.14218 2.34824e-20)
(1.65996 -2.09944 3.23995e-20)
(2.03892 -4.33953 -8.68873e-21)
(1.88323 -4.0672 1.69532e-19)
(1.79884 -3.84054 1.32155e-19)
(1.74552 -3.6592 1.03029e-19)
(1.71141 -3.51398 -6.77899e-20)
(1.693 -3.39499 -1.35311e-20)
(1.6861 -3.29533 1.19031e-20)
(1.68709 -3.20996 8.99436e-20)
(1.69329 -3.13501 3.39859e-20)
(1.70266 -3.0676 8.33349e-20)
(1.71367 -3.0056 -1.18276e-19)
(1.72518 -2.94745 1.18406e-20)
(1.73635 -2.89203 4.88593e-20)
(1.74661 -2.83854 3.07548e-20)
(1.75556 -2.78643 6.436e-20)
(1.76295 -2.73534 -4.4166e-20)
(1.76866 -2.68504 -4.11881e-20)
(1.77264 -2.6354 7.69922e-21)
(1.77492 -2.58638 8.986e-20)
(1.77556 -2.53795 -1.45297e-19)
(1.77467 -2.49016 5.0882e-20)
(1.77238 -2.44302 -2.93886e-22)
(1.76881 -2.39659 9.76997e-20)
(1.76412 -2.35089 -4.22303e-20)
(1.75843 -2.30592 -2.34536e-21)
(1.75186 -2.26167 -2.74353e-20)
(1.7445 -2.21806 2.61648e-20)
(1.7365 -2.17493 6.41018e-21)
(1.72817 -2.13194 -2.92509e-20)
(1.71856 -2.08922 9.95951e-20)
(2.15363 -4.28866 -1.7295e-19)
(1.99458 -4.02755 -1.03668e-19)
(1.90771 -3.8094 -2.6716e-19)
(1.85269 -3.63489 -1.23132e-19)
(1.81734 -3.49512 1.15858e-19)
(1.79791 -3.38037 -6.89902e-20)
(1.79002 -3.28393 -1.77423e-20)
(1.78994 -3.20091 -4.65924e-20)
(1.79494 -3.1276 8.05194e-20)
(1.80294 -3.06125 -1.91333e-20)
(1.81241 -2.99985 -2.99534e-20)
(1.8222 -2.94192 -3.63191e-21)
(1.83149 -2.88643 -1.23103e-19)
(1.83971 -2.83266 -5.36203e-21)
(1.84651 -2.7801 3.29243e-20)
(1.85165 -2.72844 -4.16196e-21)
(1.85503 -2.67751 -1.31142e-19)
(1.85664 -2.62721 1.28455e-19)
(1.85652 -2.5775 -1.27225e-19)
(1.85475 -2.52841 5.00551e-20)
(1.85147 -2.47998 7.16362e-21)
(1.84681 -2.43226 2.71915e-21)
(1.84092 -2.38531 -5.38476e-20)
(1.83397 -2.33917 1.84259e-20)
(1.8261 -2.29385 -7.83044e-23)
(1.81744 -2.24933 6.14588e-21)
(1.80807 -2.20556 -1.37203e-19)
(1.79816 -2.16236 3.72872e-20)
(1.78806 -2.11938 4.01399e-20)
(1.77672 -2.07679 4.50451e-20)
(2.26712 -4.23485 3.39882e-19)
(2.10523 -3.98506 1.19944e-19)
(2.01628 -3.77545 7.12358e-20)
(1.95986 -3.60773 1.13335e-19)
(1.92349 -3.47337 -1.40014e-20)
(1.90317 -3.36279 8.75791e-20)
(1.89435 -3.26948 1.96165e-19)
(1.89324 -3.18873 -2.46966e-20)
(1.89704 -3.11699 1.21423e-20)
(1.90364 -3.05164 2.38823e-19)
(1.91151 -2.99079 -3.17057e-20)
(1.91951 -2.93306 3.43367e-20)
(1.92684 -2.87749 -1.2798e-20)
(1.93295 -2.82342 -1.53772e-21)
(1.93751 -2.77043 1.80266e-19)
(1.94032 -2.71824 6.91126e-21)
(1.9413 -2.66671 1.94842e-19)
(1.94045 -2.61578 -2.42514e-20)
(1.93785 -2.56545 -4.28807e-20)
(1.93361 -2.51575 1.006e-19)
(1.92787 -2.46676 -9.22293e-20)
(1.92079 -2.41853 1.01887e-19)
(1.91255 -2.37114 5.5284e-20)
(1.9033 -2.32464 -4.48625e-20)
(1.89322 -2.27905 6.89165e-20)
(1.88244 -2.23437 8.31481e-21)
(1.87105 -2.19054 -2.91295e-20)
(1.85926 -2.14738 1.58022e-20)
(1.84739 -2.1045 1.04527e-19)
(1.83434 -2.06216 1.62337e-20)
(2.37931 -4.17813 -5.85712e-20)
(2.21511 -3.93972 -1.21963e-19)
(2.12448 -3.73865 5.12604e-20)
(2.06693 -3.57768 -2.04986e-19)
(2.02975 -3.44865 9.87059e-20)
(2.00867 -3.34216 -1.81985e-19)
(1.99901 -3.25189 -1.21047e-19)
(1.99689 -3.17333 3.4221e-20)
(1.99947 -3.1031 3.44848e-20)
(2.00464 -3.0387 -1.66303e-19)
(2.01085 -2.97836 -7.26767e-20)
(2.01699 -2.9208 3.40951e-20)
(2.02227 -2.86514 -9.37752e-20)
(2.02619 -2.81079 -3.76475e-20)
(2.02843 -2.75738 -2.54663e-20)
(2.02882 -2.70469 -2.56059e-20)
(2.02732 -2.65261 -1.09143e-19)
(2.02395 -2.60111 -6.87195e-20)
(2.01881 -2.55021 1.23666e-20)
(2.01203 -2.49998 2.2734e-20)
(2.00378 -2.45049 2.4553e-20)
(1.99424 -2.40183 -8.47686e-20)
(1.98359 -2.35408 3.21599e-20)
(1.97201 -2.3073 -6.63172e-20)
(1.95969 -2.26154 6.29527e-20)
(1.94678 -2.21679 -8.27782e-20)
(1.93337 -2.173 2.61796e-20)
(1.91968 -2.12998 -4.09589e-20)
(1.90607 -2.08733 -5.84793e-20)
(1.89136 -2.04536 -5.91231e-21)
(2.49013 -4.11851 -1.25541e-19)
(2.32414 -3.89153 -1.11709e-19)
(2.23221 -3.69899 -1.09759e-19)
(2.17383 -3.54471 -8.25264e-20)
(2.13603 -3.42093 2.5496e-19)
(2.11432 -3.31842 3.63521e-20)
(2.10388 -3.23111 1.11218e-19)
(2.10076 -3.15467 1.71624e-19)
(2.10211 -3.08587 8.33361e-20)
(2.1058 -3.02238 -1.1147e-19)
(2.11029 -2.96251 1.81598e-19)
(2.1145 -2.9051 -1.77405e-19)
(2.11766 -2.84935 1.69252e-19)
(2.1193 -2.79474 2.03755e-20)
(2.11914 -2.74094 4.3837e-20)
(2.11704 -2.68779 1.46504e-20)
(2.11298 -2.6352 1.79335e-19)
(2.10701 -2.58319 -2.67672e-20)
(2.09927 -2.53179 2.43847e-20)
(2.0899 -2.48109 8.19265e-20)
(2.07909 -2.43118 -9.18455e-20)
(2.06704 -2.38216 7.35995e-20)
(2.05395 -2.33413 3.01664e-21)
(2.04001 -2.28717 3.36912e-20)
(2.02543 -2.24131 6.18675e-20)
(2.01036 -2.19659 -1.04693e-20)
(1.99493 -2.15294 6.1481e-20)
(1.97935 -2.11019 8.93878e-20)
(1.96402 -2.06788 -9.71655e-20)
(1.94767 -2.02639 -5.9897e-20)
(2.5995 -4.05602 3.7037e-19)
(2.43225 -3.84048 -4.19974e-20)
(2.33942 -3.65644 8.61563e-20)
(2.28049 -3.50878 1.58515e-19)
(2.24225 -3.39014 -4.61078e-19)
(2.22001 -3.29153 5.08079e-20)
(2.20884 -3.20708 -1.78363e-19)
(2.20474 -3.13267 1.81043e-19)
(2.20483 -3.06525 -1.44794e-19)
(2.20699 -3.0026 7.84993e-20)
(2.2097 -2.94319 -2.87425e-19)
(2.2119 -2.88592 8.19046e-21)
(2.21287 -2.83009 -9.667e-20)
(2.21216 -2.77523 1.47571e-19)
(2.20951 -2.72108 -1.57329e-19)
(2.20484 -2.66751 -8.14923e-21)
(2.19816 -2.61448 -1.29144e-19)
(2.18954 -2.56201 -1.1063e-20)
(2.17914 -2.51018 1.1101e-20)
(2.16713 -2.45909 2.90806e-20)
(2.15371 -2.40883 -1.65129e-19)
(2.13911 -2.35954 -5.07354e-21)
(2.12354 -2.31131 -9.30185e-20)
(2.10722 -2.26423 -2.16119e-20)
(2.09034 -2.21838 -5.73162e-20)
(2.07311 -2.17376 -6.28947e-20)
(2.05563 -2.13037 -6.58495e-20)
(2.03817 -2.08799 1.09305e-19)
(2.02112 -2.04615 2.95337e-20)
(2.00319 -2.00528 -5.84059e-20)
(2.70734 -3.99069 -2.4726e-19)
(2.53937 -3.78659 9.26354e-20)
(2.44603 -3.61098 -1.59265e-19)
(2.38681 -3.46984 2.35186e-20)
(2.34832 -3.35624 2.6375e-19)
(2.32564 -3.26142 -1.34571e-19)
(2.31378 -3.17973 -1.44236e-19)
(2.3087 -3.10728 -1.22711e-19)
(2.3075 -3.04118 5.58077e-21)
(2.30808 -2.97935 8.00003e-20)
(2.30895 -2.92036 -5.86043e-20)
(2.30907 -2.86323 2.23455e-21)
(2.30777 -2.80733 1.8535e-19)
(2.30462 -2.75225 -9.44507e-20)
(2.29942 -2.69779 2.50872e-20)
(2.29212 -2.64385 -7.74754e-20)
(2.28274 -2.59044 2.98274e-20)
(2.27141 -2.53759 6.44491e-20)
(2.2583 -2.4854 7.41422e-20)
(2.24361 -2.43399 -8.13204e-20)
(2.22755 -2.38347 1.14297e-20)
(2.21037 -2.33397 7.03902e-20)
(2.19229 -2.28562 1.2237e-19)
(2.17354 -2.23851 3.29085e-20)
(2.15436 -2.19273 -1.27523e-19)
(2.13492 -2.14831 1.48832e-19)
(2.11539 -2.10525 -7.4749e-20)
(2.09603 -2.06336 -8.96721e-20)
(2.0773 -2.02211 -5.50598e-20)
(2.05781 -1.982 -7.58678e-20)
(2.81358 -3.92256 1.32868e-19)
(2.64543 -3.72987 -1.0708e-19)
(2.55197 -3.56261 4.11369e-20)
(2.49272 -3.42787 2.20211e-19)
(2.45412 -3.31919 6.07464e-20)
(2.4311 -3.22804 -5.20291e-20)
(2.41858 -3.14903 1.26981e-19)
(2.41251 -3.07846 2.95735e-20)
(2.40999 -3.01361 1.23043e-19)
(2.40894 -2.95257 6.80599e-20)
(2.4079 -2.89399 3.3632e-21)
(2.40587 -2.83701 4.36414e-20)
(2.40221 -2.78105 -1.38081e-20)
(2.39656 -2.7258 2.4257e-20)
(2.38874 -2.67107 6.86349e-20)
(2.37874 -2.61683 -3.78073e-20)
(2.36661 -2.56309 9.44993e-20)
(2.35252 -2.50993 9.63779e-20)
(2.33666 -2.45747 -1.1018e-19)
(2.31925 -2.40581 1.13873e-19)
(2.30052 -2.35511 2.43172e-19)
(2.28073 -2.30548 -1.57754e-19)
(2.26011 -2.25707 1.59629e-19)
(2.23892 -2.21 -1.11842e-19)
(2.21739 -2.16435 -1.60646e-20)
(2.19574 -2.12021 1.21579e-19)
(2.17413 -2.07757 -2.46469e-20)
(2.15286 -2.03626 9.17957e-20)
(2.13243 -1.99572 9.16189e-20)
(2.11144 -1.95651 -1.83729e-19)
(2.91816 -3.85166 -1.28413e-19)
(2.75037 -3.67032 6.1581e-20)
(2.65717 -3.51129 2.5176e-20)
(2.59813 -3.38283 -2.59376e-19)
(2.55956 -3.27893 -1.357e-19)
(2.53627 -3.19134 1.0305e-19)
(2.52311 -3.11491 -2.89235e-19)
(2.51604 -3.04616 3.5273e-19)
(2.51216 -2.98253 -1.99334e-19)
(2.50942 -2.92223 2.38099e-20)
(2.50641 -2.86407 -3.77478e-20)
(2.50215 -2.80724 -1.16855e-19)
(2.49608 -2.75126 2.43995e-19)
(2.48785 -2.69587 9.31614e-20)
(2.47735 -2.64093 -9.6386e-20)
(2.46458 -2.58645 2.93245e-21)
(2.44966 -2.53246 5.494e-20)
(2.43277 -2.47907 -1.18882e-19)
(2.41413 -2.4264 2.55402e-20)
(2.39396 -2.37459 8.35137e-20)
(2.37254 -2.32377 -3.4433e-20)
(2.35012 -2.27409 5.79578e-20)
(2.32696 -2.22569 -1.14332e-19)
(2.3033 -2.17871 1.66676e-19)
(2.27941 -2.13325 3.92957e-20)
(2.2555 -2.08942 -1.06174e-19)
(2.23177 -2.04727 -9.22579e-20)
(2.20856 -2.00662 4.25833e-22)
(2.18643 -1.96692 1.2838e-19)
(2.16394 -1.92876 -3.10203e-20)
(3.02103 -3.778 -3.51494e-20)
(2.85416 -3.60795 -2.58415e-19)
(2.76157 -3.45702 3.0993e-19)
(2.70295 -3.33467 2.11837e-19)
(2.66453 -3.23543 2.13784e-19)
(2.64101 -3.15128 6.07583e-20)
(2.62724 -3.07735 9.12973e-20)
(2.61914 -3.01034 4.7384e-20)
(2.61386 -2.94789 -1.87439e-19)
(2.60938 -2.88833 3.46129e-19)
(2.60433 -2.83057 -2.82156e-19)
(2.59778 -2.77392 -1.86001e-20)
(2.58922 -2.71796 4.21181e-20)
(2.57835 -2.66247 -1.86909e-19)
(2.56511 -2.60739 1.64532e-19)
(2.54954 -2.55273 -4.92143e-20)
(2.53178 -2.49857 -1.27613e-19)
(2.51206 -2.44504 4.97498e-20)
(2.4906 -2.39225 -9.57019e-20)
(2.46768 -2.34035 -8.48444e-20)
(2.44355 -2.2895 -9.13833e-20)
(2.4185 -2.23983 2.07892e-20)
(2.39278 -2.1915 1.22855e-20)
(2.36665 -2.14465 -2.26757e-19)
(2.34037 -2.09941 -8.66262e-20)
(2.31418 -2.05592 5.6031e-20)
(2.28829 -2.01427 6.97686e-20)
(2.26307 -1.97434 -9.63273e-20)
(2.2392 -1.93556 -3.67753e-20)
(2.21522 -1.8986 3.72703e-21)
(3.12215 -3.70163 -3.07528e-20)
(2.95677 -3.54277 1.67249e-19)
(2.86512 -3.39976 -4.76254e-20)
(2.80709 -3.28336 -5.87774e-20)
(2.76891 -3.18862 -3.33579e-19)
(2.74521 -3.10782 -7.38115e-20)
(2.73082 -3.0363 1.42476e-19)
(2.72168 -2.97099 -9.44362e-20)
(2.71496 -2.90967 -1.00646e-20)
(2.70868 -2.85084 -1.8767e-20)
(2.70152 -2.7935 1.06798e-19)
(2.69262 -2.73705 -1.70252e-19)
(2.6815 -2.68114 -1.1482e-19)
(2.66794 -2.62562 1.35591e-19)
(2.6519 -2.57046 -7.78594e-20)
(2.63348 -2.51571 -9.42133e-20)
(2.61286 -2.46147 2.02613e-19)
(2.59028 -2.40787 -3.18443e-20)
(2.566 -2.35505 1.20786e-19)
(2.54031 -2.30316 -1.11171e-19)
(2.51349 -2.25235 -9.02991e-20)
(2.48581 -2.20276 7.86959e-20)
(2.45754 -2.15456 -8.86619e-21)
(2.42895 -2.10787 -5.94582e-20)
(2.40029 -2.06286 5.24329e-20)
(2.37179 -2.01969 -1.64131e-19)
(2.3437 -1.97851 1.00304e-19)
(2.3164 -1.93929 -1.55351e-21)
(2.29071 -1.90145 -1.0529e-19)
(2.26523 -1.86576 1.60201e-19)
(3.22162 -3.6226 1.27781e-19)
(3.05823 -3.47478 -3.31561e-19)
(2.96775 -3.33947 -2.78434e-20)
(2.91043 -3.22883 1.5775e-19)
(2.87255 -3.13848 -4.13333e-20)
(2.84871 -3.06091 -1.1688e-19)
(2.83371 -2.99174 5.5548e-20)
(2.8235 -2.92807 6.44916e-20)
(2.81529 -2.86787 5.61551e-21)
(2.80716 -2.80976 8.03535e-20)
(2.79784 -2.75286 2.58162e-19)
(2.78652 -2.69664 -9.13321e-20)
(2.7728 -2.64084 2.38442e-20)
(2.75648 -2.58536 -6.21723e-20)
(2.73761 -2.53019 2.401e-19)
(2.7163 -2.47543 -4.32275e-20)
(2.69279 -2.42119 1.4425e-19)
(2.66734 -2.36762 -5.61364e-20)
(2.64024 -2.31486 6.08303e-20)
(2.6118 -2.26306 9.22213e-20)
(2.58229 -2.21238 1.58457e-20)
(2.55202 -2.16295 6.25e-20)
(2.52124 -2.11492 -5.19019e-20)
(2.49021 -2.06843 1.45097e-19)
(2.45919 -2.02364 -5.94769e-20)
(2.4284 -1.98072 2.18555e-19)
(2.39806 -1.93992 -6.32454e-20)
(2.36861 -1.90127 4.36756e-20)
(2.34101 -1.86426 -8.25303e-20)
(2.31403 -1.82986 1.56659e-19)
(3.31981 -3.54104 -2.82534e-19)
(3.15865 -3.40393 1.04707e-20)
(3.06939 -3.27603 -1.7274e-19)
(3.01282 -3.17101 3.18135e-20)
(2.97531 -3.08494 8.81205e-21)
(2.95135 -3.01054 -1.56492e-19)
(2.93574 -2.94365 -2.95732e-19)
(2.92445 -2.88159 1.48872e-19)
(2.91472 -2.82249 -2.12446e-19)
(2.90468 -2.7651 -1.12909e-19)
(2.89313 -2.70865 -6.48146e-20)
(2.87934 -2.65272 -5.27414e-20)
(2.86295 -2.59709 1.55073e-21)
(2.84384 -2.54171 -1.89182e-19)
(2.82209 -2.48662 1.25409e-19)
(2.79788 -2.43194 -2.06065e-19)
(2.77146 -2.3778 -5.23041e-20)
(2.74314 -2.32435 5.73792e-20)
(2.71323 -2.27176 7.24684e-20)
(2.68205 -2.22015 7.26681e-20)
(2.6499 -2.16969 5.5764e-20)
(2.61707 -2.1205 -1.40188e-19)
(2.58384 -2.07271 1.42025e-19)
(2.55045 -2.02645 -1.51317e-20)
(2.51714 -1.98185 -3.8345e-20)
(2.48411 -1.9391 -1.52173e-19)
(2.45153 -1.89844 -8.09279e-20)
(2.41981 -1.85996 1.50176e-19)
(2.38999 -1.82329 -4.91488e-20)
(2.36124 -1.79023 -5.12042e-20)
(3.41716 -3.45662 1.22924e-19)
(3.25807 -3.32978 1.13989e-20)
(3.16984 -3.20925 -3.42701e-20)
(3.11407 -3.10984 -7.43932e-21)
(3.077 -3.028 -6.26189e-20)
(3.05299 -2.95671 2.11433e-19)
(3.03678 -2.89205 -1.00399e-19)
(3.02438 -2.83156 6.59792e-20)
(3.01309 -2.77354 2.76515e-20)
(3.0011 -2.71688 1.00543e-19)
(2.98727 -2.66092 -3.92536e-20)
(2.97095 -2.60531 2.22402e-19)
(2.95184 -2.54991 -1.93453e-20)
(2.9299 -2.49472 1.46345e-19)
(2.90524 -2.4398 -2.4686e-19)
(2.8781 -2.3853 -1.89889e-20)
(2.84876 -2.33136 1.61461e-19)
(2.81758 -2.27815 -1.0053e-19)
(2.78487 -2.22582 -7.10076e-20)
(2.75099 -2.17452 -1.22634e-19)
(2.71625 -2.12439 -1.08069e-19)
(2.68094 -2.07553 1.16405e-19)
(2.64536 -2.02808 -1.09719e-19)
(2.60974 -1.98211 2.41659e-20)
(2.57432 -1.93775 8.92294e-20)
(2.53927 -1.89511 6.19027e-20)
(2.50474 -1.85431 5.89835e-20)
(2.47095 -1.81532 4.34105e-20)
(2.43845 -1.7782 -1.17517e-19)
(2.40683 -1.74606 -5.03916e-20)
(5.01162 -0.0292039 1.83381e-21)
(5.00403 -0.161016 1.81654e-20)
(4.99332 -0.29186 6.30497e-20)
(4.97946 -0.422015 3.44609e-20)
(4.96224 -0.55154 -7.28763e-20)
(4.9416 -0.6804 2.20678e-20)
(4.91755 -0.808528 -2.31006e-20)
(4.8901 -0.935844 -5.83371e-20)
(4.85929 -1.06226 1.48582e-19)
(4.82514 -1.1877 -3.54245e-20)
(4.78769 -1.31206 -3.57134e-20)
(4.74697 -1.43525 -7.54379e-20)
(4.70304 -1.55721 -2.15915e-19)
(4.65594 -1.67783 2.00247e-20)
(4.6057 -1.79704 -9.67869e-21)
(4.55237 -1.91476 -6.72747e-20)
(4.49602 -2.03091 1.44094e-19)
(4.43668 -2.14541 7.80556e-20)
(4.3744 -2.2582 1.49052e-19)
(4.30926 -2.36919 7.26464e-20)
(4.24129 -2.47831 -1.62607e-19)
(4.17056 -2.5855 6.57431e-21)
(4.09713 -2.6907 -3.06056e-19)
(4.02106 -2.79384 4.642e-19)
(3.94241 -2.89485 -1.52033e-19)
(3.86126 -2.9937 -1.95658e-19)
(3.77766 -3.09032 -2.72974e-20)
(3.6917 -3.1847 -1.50172e-21)
(3.60348 -3.27692 -1.46272e-19)
(3.51294 -3.36735 2.60379e-19)
(5.03706 -0.0582633 7.60459e-21)
(5.02368 -0.190163 1.1228e-20)
(5.00659 -0.320953 2.78747e-21)