/*--------------------------------*- C++ -*----------------------------------*\
  =========                 |
  \\      /  F ield         | OpenFOAM: The Open Source CFD Toolbox
   \\    /   O peration     | Website:  https://openfoam.org
    \\  /    A nd           | Version:  6.0
     \\/     M anipulation  |
\*---------------------------------------------------------------------------*/
FoamFile
{
    version     2.0;
    format      ascii;
    class       volScalarField;
    location    "16.05";
    object      p;
}
// * * * * * * * * * * * * * * * * * * * * * * * * * * * * * * * * * * * * * //

dimensions      [0 2 -2 0 0 0 0];

internalField   nonuniform List<scalar> 
9600
(
-166.541
-146.018
-131.199
-118.936
-107.775
-97.7586
-88.8387
-80.8884
-73.7949
-67.4581
-61.7866
-56.6983
-52.1212
-47.9924
-44.2576
-40.8702
-37.79
-34.9803
-32.4081
-30.0698
-167.742
-147.186
-132.297
-119.95
-108.709
-98.6229
-89.6431
-81.6419
-74.505
-68.1309
-62.4269
-57.3099
-52.707
-48.5548
-44.7987
-41.3917
-38.2934
-35.4663
-32.8766
-30.5257
-168.941
-148.334
-133.372
-120.944
-109.625
-99.4702
-90.4318
-82.381
-75.2019
-68.7915
-63.0558
-57.9108
-53.2827
-49.1077
-45.3307
-41.9044
-38.7881
-35.9435
-33.3364
-30.9731
-170.13
-149.465
-134.426
-121.917
-110.521
-100.299
-91.2038
-83.1046
-75.8844
-69.4388
-63.6724
-58.5001
-53.8475
-49.6502
-45.8528
-42.4076
-39.2736
-36.4117
-33.7875
-31.4124
-171.304
-150.578
-135.459
-122.868
-111.397
-101.109
-91.9577
-83.8114
-76.5514
-70.0716
-64.2754
-59.0767
-54.4005
-50.1817
-46.3644
-42.9009
-39.7497
-36.8709
-34.23
-31.8441
-172.458
-151.668
-136.469
-123.796
-112.251
-101.898
-92.692
-84.5
-77.2013
-70.6886
-64.8637
-59.6397
-54.9407
-50.7013
-46.8651
-43.384
-40.2163
-37.3212
-34.6643
-32.2688
-173.588
-152.735
-137.454
-124.7
-113.08
-102.664
-93.4051
-85.1688
-77.8329
-71.2884
-65.4361
-60.188
-55.4673
-51.2083
-47.3542
-43.8566
-40.6733
-37.7628
-35.091
-32.6873
-174.691
-153.774
-138.411
-125.577
-113.884
-103.406
-94.0954
-85.8162
-78.4445
-71.8696
-65.9912
-60.7201
-55.9791
-51.7017
-47.8309
-44.3181
-41.1206
-38.1959
-35.5105
-33.1006
-175.764
-154.783
-139.34
-126.425
-114.661
-104.123
-94.7612
-86.4405
-79.0343
-72.4305
-66.5272
-61.2346
-56.4746
-52.1802
-48.2942
-44.7677
-41.5575
-38.6202
-35.9231
-33.5094
-176.805
-155.76
-140.238
-127.243
-115.409
-104.811
-95.4006
-87.0398
-79.6005
-72.9691
-67.0424
-61.7296
-56.952
-52.6423
-48.7427
-45.2042
-41.9831
-39.035
-36.3286
-33.9142
-177.813
-156.704
-141.102
-128.03
-116.126
-105.47
-96.0117
-87.612
-80.141
-73.4832
-67.5344
-62.2029
-57.4094
-53.0859
-49.1746
-45.6259
-42.396
-39.4392
-36.7259
-34.3136
-178.786
-157.614
-141.933
-128.783
-116.81
-106.097
-96.5925
-88.1551
-80.6534
-73.9703
-68.0006
-62.6517
-57.8437
-53.5084
-49.5873
-46.0309
-42.7946
-39.8318
-37.1142
-34.7062
-179.724
-158.487
-142.728
-129.5
-117.461
-106.691
-97.1413
-88.667
-81.1353
-74.4277
-68.4378
-63.0724
-58.2512
-53.9056
-49.977
-46.4157
-43.1763
-40.211
-37.4928
-35.0933
-180.627
-159.323
-143.486
-130.182
-118.076
-107.251
-97.6562
-89.1457
-81.5845
-74.8527
-68.8431
-63.4615
-58.6275
-54.2723
-50.3374
-46.7732
-43.5338
-40.5704
-37.858
-35.4779
-181.492
-160.12
-144.206
-130.827
-118.655
-107.775
-98.1357
-89.5892
-81.9986
-75.2427
-69.2132
-63.8155
-58.9688
-54.6039
-50.6626
-47.0954
-43.8566
-40.8974
-38.1983
-35.8507
-182.324
-160.88
-144.887
-131.435
-119.196
-108.262
-98.5781
-89.9953
-82.3749
-75.5942
-69.5444
-64.1303
-59.2708
-54.8968
-50.9497
-47.3799
-44.1416
-41.1865
-38.5009
-36.1794
-183.132
-161.608
-145.531
-132.004
-119.699
-108.71
-98.9818
-90.3622
-82.7109
-75.9039
-69.8316
-64.399
-59.5254
-55.1423
-51.1919
-47.6252
-44.3953
-41.4503
-38.7738
-36.4557
-183.934
-162.311
-146.139
-132.533
-120.163
-109.121
-99.3475
-90.6905
-83.0065
-76.1703
-70.0713
-64.6146
-59.7202
-55.3213
-51.3634
-47.8016
-44.5897
-41.6714
-39.03
-36.7769
-184.727
-162.989
-146.712
-133.025
-120.592
-109.497
-99.6804
-90.9852
-83.2668
-76.398
-70.2671
-64.7782
-59.8508
-55.419
-51.4306
-47.8442
-44.6179
-41.7108
-39.1613
-37.1678
-185.437
-163.618
-147.251
-133.487
-120.994
-109.849
-99.9886
-91.2549
-83.5008
-76.5973
-70.4308
-64.9038
-59.934
-55.4528
-51.4042
-47.7398
-44.4141
-41.4118
-38.8583
-36.9899
-191.61
-191.586
-191.491
-191.37
-191.23
-191.062
-190.863
-190.631
-190.369
-190.079
-189.762
-189.42
-189.054
-188.664
-188.253
-187.821
-187.371
-186.906
-186.431
-185.952
-168.938
-168.967
-168.946
-168.892
-168.808
-168.692
-168.542
-168.36
-168.146
-167.905
-167.636
-167.342
-167.023
-166.681
-166.316
-165.93
-165.524
-165.097
-164.648
-164.163
-151.619
-151.69
-151.722
-151.718
-151.679
-151.605
-151.499
-151.362
-151.196
-151.002
-150.783
-150.539
-150.271
-149.982
-149.67
-149.337
-148.982
-148.603
-148.194
-147.747
-137.081
-137.17
-137.225
-137.246
-137.232
-137.185
-137.108
-137.002
-136.87
-136.712
-136.531
-136.327
-136.102
-135.857
-135.591
-135.305
-134.998
-134.667
-134.309
-133.918
-124.045
-124.135
-124.196
-124.224
-124.221
-124.187
-124.125
-124.038
-123.926
-123.791
-123.634
-123.458
-123.263
-123.05
-122.819
-122.571
-122.304
-122.017
-121.706
-121.367
-112.549
-112.631
-112.686
-112.713
-112.711
-112.68
-112.624
-112.544
-112.442
-112.319
-112.177
-112.017
-111.842
-111.651
-111.446
-111.226
-110.991
-110.74
-110.469
-110.174
-102.464
-102.535
-102.582
-102.602
-102.594
-102.561
-102.504
-102.425
-102.326
-102.208
-102.073
-101.923
-101.76
-101.584
-101.397
-101.199
-100.99
-100.768
-100.53
-100.273
-93.5819
-93.6403
-93.6757
-93.6867
-93.6722
-93.6335
-93.5725
-93.4911
-93.3911
-93.2741
-93.142
-92.9969
-92.8406
-92.6747
-92.5008
-92.3198
-92.1315
-91.9346
-91.7262
-91.5022
-85.7187
-85.7652
-85.7898
-85.7912
-85.7687
-85.7235
-85.6573
-85.572
-85.4693
-85.351
-85.2191
-85.0759
-84.9236
-84.7643
-84.6003
-84.4328
-84.2622
-84.0876
-83.9063
-83.7134
-78.7249
-78.7605
-78.7751
-78.7675
-78.7373
-78.6856
-78.6139
-78.5242
-78.4179
-78.2971
-78.1639
-78.0208
-77.8703
-77.7153
-77.5586
-77.4021
-77.2471
-77.0933
-76.9379
-76.7757
-72.4759
-72.5019
-72.5075
-72.4918
-72.4545
-72.3967
-72.3199
-72.2256
-72.1155
-71.9915
-71.8561
-71.7116
-71.5613
-71.4087
-71.2571
-71.1095
-70.9685
-70.8343
-70.7048
-70.5739
-66.8688
-66.8863
-66.8841
-66.8612
-66.8177
-66.7544
-66.6727
-66.5741
-66.4601
-66.3327
-66.1942
-66.0474
-65.8959
-65.7435
-65.5949
-65.454
-65.3252
-65.2098
-65.1066
-65.009
-61.819
-61.8291
-61.82
-61.7909
-61.7419
-61.6737
-61.5877
-61.485
-61.3671
-61.236
-61.0939
-60.9437
-60.7894
-60.6354
-60.4874
-60.3505
-60.2318
-60.1338
-60.0582
-59.9967
-57.2561
-57.2598
-57.2447
-57.2102
-57.1564
-57.084
-56.994
-56.8876
-56.766
-56.631
-56.4848
-56.3303
-56.1718
-56.0138
-55.8637
-55.7274
-55.6161
-55.5334
-55.4867
-55.4655
-53.1214
-53.1194
-53.0991
-53.0599
-53.002
-52.9259
-52.8325
-52.7227
-52.5976
-52.4587
-52.3081
-52.1484
-51.9843
-51.8198
-51.6645
-51.5247
-51.4171
-51.3458
-51.3295
-51.3533
-49.3655
-49.3584
-49.3334
-49.2902
-49.2287
-49.1494
-49.053
-48.9401
-48.8117
-48.6689
-48.5137
-48.3482
-48.177
-48.0037
-47.8395
-47.6907
-47.5819
-47.5159
-47.5311
-47.6019
-45.9464
-45.9348
-45.9056
-45.8587
-45.794
-45.7119
-45.6127
-45.497
-45.3654
-45.2187
-45.0586
-44.8866
-44.7068
-44.522
-44.3444
-44.1794
-44.0616
-43.9927
-44.0418
-44.156
-42.8264
-42.8112
-42.7789
-42.7294
-42.6625
-42.5785
-42.4774
-42.3595
-42.2252
-42.0751
-41.9101
-41.7315
-41.5423
-41.3442
-41.1486
-40.9591
-40.8189
-40.7328
-40.8237
-40.9893
-39.9701
-39.9534
-39.9203
-39.8707
-39.8045
-39.7214
-39.6214
-39.5045
-39.3708
-39.2208
-39.0545
-38.8731
-38.6778
-38.4698
-38.2567
-38.0398
-37.8612
-37.7307
-37.8508
-38.1365
-37.3629
-37.3403
-37.3029
-37.2511
-37.1841
-37.1016
-37.0031
-36.8887
-36.7579
-36.6111
-36.4478
-36.2686
-36.0729
-35.8619
-35.6367
-35.3985
-35.1678
-34.9573
-34.9761
-35.4046
-180.681
-181.657
-182.543
-183.411
-184.265
-185.087
-185.864
-186.592
-187.271
-187.899
-188.476
-189.003
-189.477
-189.901
-190.276
-190.602
-190.882
-191.12
-191.321
-191.489
-157.811
-158.789
-159.713
-160.606
-161.47
-162.295
-163.074
-163.804
-164.486
-165.12
-165.704
-166.24
-166.726
-167.165
-167.556
-167.9
-168.2
-168.457
-168.67
-168.835
-140.649
-141.603
-142.52
-143.4
-144.24
-145.038
-145.792
-146.501
-147.165
-147.784
-148.357
-148.884
-149.366
-149.804
-150.197
-150.546
-150.852
-151.115
-151.333
-151.503
-126.604
-127.509
-128.383
-129.22
-130.016
-130.771
-131.484
-132.155
-132.785
-133.372
-133.917
-134.42
-134.881
-135.3
-135.678
-136.016
-136.312
-136.568
-136.782
-136.954
-114.245
-115.092
-115.911
-116.696
-117.441
-118.147
-118.813
-119.439
-120.027
-120.574
-121.082
-121.55
-121.98
-122.371
-122.724
-123.039
-123.316
-123.556
-123.758
-123.921
-103.479
-104.27
-105.035
-105.768
-106.464
-107.12
-107.738
-108.319
-108.862
-109.367
-109.835
-110.266
-110.661
-111.02
-111.343
-111.631
-111.884
-112.103
-112.287
-112.436
-94.1016
-94.8434
-95.5604
-96.2456
-96.894
-97.5046
-98.0779
-98.6146
-99.1149
-99.5795
-100.009
-100.403
-100.764
-101.091
-101.384
-101.645
-101.873
-102.07
-102.234
-102.366
-85.8686
-86.5683
-87.2429
-87.8856
-88.4918
-89.0606
-89.5926
-90.0889
-90.5502
-90.9771
-91.3705
-91.7312
-92.0597
-92.3567
-92.6226
-92.8579
-93.0627
-93.2375
-93.3824
-93.4976
-78.5883
-79.2526
-79.8908
-80.4962
-81.0647
-81.5957
-82.0904
-82.5501
-82.9758
-83.3686
-83.7295
-84.0594
-84.3591
-84.6292
-84.87
-85.0821
-85.2657
-85.421
-85.5483
-85.6479
-72.1127
-72.7477
-73.3549
-73.9277
-74.4626
-74.9595
-75.4204
-75.8468
-76.2402
-76.6021
-76.9336
-77.2359
-77.5098
-77.7558
-77.9745
-78.166
-78.3308
-78.4689
-78.5807
-78.6663
-66.3244
-66.9356
-67.5168
-68.061
-68.5654
-69.0312
-69.4609
-69.8568
-70.2207
-70.5544
-70.8594
-71.1369
-71.3877
-71.6124
-71.8115
-71.985
-72.1333
-72.2564
-72.3546
-72.428
-61.1289
-61.7219
-62.2815
-62.8002
-63.2764
-63.7131
-64.1138
-64.4812
-64.8178
-65.1257
-65.4065
-65.6616
-65.8918
-66.0976
-66.2794
-66.4371
-66.571
-66.6811
-66.7675
-66.8302
-56.4499
-57.0299
-57.5719
-58.0672
-58.5166
-58.9256
-59.2988
-59.6394
-59.9503
-60.2342
-60.4929
-60.7277
-60.9394
-61.1284
-61.2949
-61.4388
-61.5602
-61.6589
-61.735
-61.7885
-52.2256
-52.7977
-53.3246
-53.7972
-54.2206
-54.6029
-54.9494
-55.2642
-55.5508
-55.8123
-56.0506
-56.2669
-56.462
-56.636
-56.789
-56.9208
-57.0312
-57.1201
-57.1872
-57.2327
-48.4059
-48.9768
-49.489
-49.9372
-50.3341
-50.69
-51.0102
-51.2996
-51.563
-51.8034
-52.0228
-52.2222
-52.4023
-52.563
-52.7041
-52.8253
-52.9262
-53.0064
-53.0657
-53.1042
-44.9445
-45.5278
-46.0249
-46.4439
-46.8124
-47.1414
-47.4349
-47.6992
-47.9401
-48.1605
-48.3622
-48.5462
-48.7127
-48.8615
-48.9921
-49.1039
-49.1964
-49.269
-49.3216
-49.3538
-41.7833
-42.4016
-42.8891
-43.2755
-43.6135
-43.9144
-44.1806
-44.4201
-44.6395
-44.8412
-45.0267
-45.1968
-45.3514
-45.4899
-45.6114
-45.7151
-45.8004
-45.8665
-45.913
-45.9398
-38.8799
-39.5281
-40.0149
-40.3766
-40.6845
-40.9555
-41.195
-41.412
-41.6121
-41.7975
-41.9694
-42.1284
-42.2737
-42.4044
-42.5192
-42.6171
-42.6972
-42.7586
-42.8008
-42.8235
-36.3662
-36.9178
-37.3639
-37.7246
-38.0072
-38.2406
-38.4518
-38.6481
-38.8298
-38.9992
-39.1587
-39.3081
-39.4458
-39.5701
-39.6798
-39.7736
-39.8503
-39.9089
-39.9486
-39.9691
-34.6687
-34.9268
-35.1161
-35.4834
-35.7505
-35.9192
-36.0812
-36.2464
-36.3993
-36.5407
-36.6761
-36.8053
-36.9254
-37.034
-37.1295
-37.2108
-37.2764
-37.3252
-37.3562
-37.3689
-24.2204
-26.3454
-28.6984
-31.2646
-34.0722
-37.1544
-40.5442
-44.2795
-48.4052
-52.9745
-58.0507
-63.7117
-70.0548
-77.2056
-85.3348
-94.6775
-105.462
-117.868
-133.51
-155.286
-24.6604
-26.8061
-29.1728
-31.7556
-34.5827
-37.6864
-41.0999
-44.8616
-49.0166
-53.6187
-58.732
-64.4349
-70.8261
-78.0324
-86.226
-95.6432
-106.511
-119.003
-134.721
-156.546
-25.1049
-27.2706
-29.6509
-32.2506
-35.0978
-38.2236
-41.6614
-45.45
-49.6351
-54.2708
-59.4218
-65.1676
-71.6078
-78.8704
-87.129
-96.6208
-107.572
-120.149
-135.933
-157.786
-25.5532
-27.7379
-30.1314
-32.7485
-35.6159
-38.7643
-42.2269
-46.0429
-50.2585
-54.9283
-60.1176
-65.9069
-72.3966
-79.716
-88.0398
-97.6061
-108.641
-121.303
-137.159
-159.049
-26.0037
-28.2066
-30.6133
-33.2479
-36.1361
-39.3073
-42.795
-46.6389
-50.8854
-55.5896
-60.8177
-66.6507
-73.1903
-80.5668
-88.956
-98.5968
-109.714
-122.465
-138.4
-160.337
-26.4552
-28.6757
-31.0956
-33.7482
-36.6575
-39.8519
-43.3652
-47.2372
-51.5151
-56.2541
-61.5212
-67.3983
-73.988
-81.4219
-89.8768
-99.5923
-110.793
-123.632
-139.649
-161.638
-26.9064
-29.1439
-31.5772
-34.2485
-37.1796
-40.3976
-43.9369
-47.8376
-52.1471
-56.9214
-62.2279
-68.1494
-74.7895
-82.281
-90.802
-100.593
-111.877
-124.804
-140.902
-162.944
-27.3567
-29.6106
-32.0576
-34.7482
-37.7016
-40.944
-44.5097
-48.4395
-52.7812
-57.5911
-62.9373
-68.9034
-75.5943
-83.1437
-91.7308
-101.597
-112.964
-125.978
-142.157
-164.252
-27.8051
-30.075
-32.5361
-35.2469
-38.2234
-41.4906
-45.0833
-49.0427
-53.4168
-58.2626
-63.6488
-69.6598
-76.4015
-84.0089
-92.6623
-102.603
-114.054
-127.154
-143.412
-165.561
-28.2514
-30.537
-33.0126
-35.7445
-38.7449
-42.0375
-45.6577
-49.647
-54.0539
-58.9358
-64.362
-70.418
-77.2105
-84.8758
-93.5954
-103.611
-115.144
-128.331
-144.667
-166.868
-28.6953
-30.9965
-33.4873
-36.2414
-39.2665
-42.5852
-46.2333
-50.2528
-54.6925
-59.6105
-65.0767
-71.1774
-78.0205
-85.7435
-94.529
-104.619
-116.234
-129.506
-145.919
-168.173
-29.1377
-31.4543
-33.9611
-36.7385
-39.7891
-43.1344
-46.8106
-50.8603
-55.3329
-60.2866
-65.7925
-71.9375
-78.8308
-86.6109
-95.4617
-105.626
-117.322
-130.677
-147.167
-169.472
-29.5789
-31.9118
-34.4359
-37.2379
-40.3147
-43.6868
-47.391
-51.4706
-55.9754
-60.9643
-66.5091
-72.6978
-79.6404
-87.477
-96.3924
-106.63
-118.406
-131.844
-148.408
-170.764
-30.0222
-32.3717
-34.9139
-37.7414
-40.845
-44.2437
-47.9755
-52.0843
-56.6204
-61.6435
-67.2261
-73.4573
-80.4484
-88.3404
-97.3194
-107.629
-119.485
-133.004
-149.641
-172.046
-30.4717
-32.8407
-35.4025
-38.2557
-41.3851
-44.8089
-48.5666
-52.7027
-57.2684
-62.324
-67.9429
-74.2152
-81.2532
-89.1993
-98.2406
-108.621
-120.555
-134.155
-150.864
-173.316
-30.9345
-33.3231
-35.9041
-38.7823
-41.936
-45.3833
-49.1648
-53.3261
-57.9191
-63.0051
-68.6583
-74.9698
-82.0531
-90.0517
-99.1539
-109.604
-121.615
-135.294
-152.075
-174.574
-31.4326
-33.8452
-36.4402
-39.3359
-42.5071
-45.9721
-49.7726
-53.9551
-58.572
-63.6855
-69.3704
-75.719
-82.8456
-90.895
-100.056
-110.574
-122.661
-136.42
-153.273
-175.82
-31.9776
-34.4044
-37.0017
-39.9077
-43.0929
-46.5723
-50.3877
-54.5873
-59.2246
-64.3624
-70.0766
-76.4599
-83.6278
-91.7261
-100.945
-111.529
-123.689
-137.526
-154.454
-177.053
-32.6721
-35.0759
-37.6272
-40.5191
-43.7046
-47.1869
-51.0086
-55.2193
-59.8729
-65.032
-70.7727
-77.1885
-84.3958
-92.541
-101.815
-112.462
-124.694
-138.608
-155.617
-178.279
-33.4969
-35.7334
-38.2303
-41.1331
-44.3232
-47.8028
-51.6255
-55.8438
-60.5107
-65.6887
-71.4539
-77.9003
-85.145
-93.3352
-102.662
-113.371
-125.668
-139.654
-156.745
-179.498
-17.708
-19.0062
-20.8493
-23.0515
-25.5
-28.2001
-31.185
-34.4865
-38.1393
-42.1851
-46.6744
-51.6686
-57.244
-63.499
-70.5715
-78.662
-87.9749
-98.716
-112.653
-133.088
-18.1648
-19.577
-21.4649
-23.6327
-26.0341
-28.7007
-31.6652
-34.9552
-38.603
-42.6497
-47.145
-52.1502
-57.7419
-64.0195
-71.1226
-79.2537
-88.6183
-99.4177
-113.41
-133.886
-18.2301
-19.8582
-21.8479
-24.0539
-26.4731
-29.1503
-32.1209
-35.4154
-39.0688
-43.1236
-47.6304
-52.6512
-58.2634
-64.5674
-71.7043
-79.8787
-89.2973
-100.156
-114.195
-134.683
-18.3971
-20.1004
-22.1403
-24.3883
-26.8445
-29.5515
-32.5449
-35.8576
-39.5274
-43.5985
-48.1233
-53.1648
-58.8017
-65.1359
-72.3098
-80.53
-90.0052
-100.929
-115.027
-135.544
-18.6363
-20.3637
-22.434
-24.7126
-27.1989
-29.9338
-32.9524
-36.2882
-39.9799
-44.073
-48.6208
-53.6875
-59.3531
-65.721
-72.9352
-81.2043
-90.7393
-101.734
-115.905
-136.471
-18.8654
-20.63
-22.7341
-25.0407
-27.553
-30.3132
-33.3562
-36.7162
-40.4322
-44.5502
-49.1241
-54.2193
-59.917
-66.3218
-73.5797
-81.9011
-91.4994
-102.57
-116.82
-137.446
-19.0895
-20.8975
-23.0344
-25.3684
-27.9071
-30.6931
-33.7615
-37.1467
-40.8883
-45.033
-49.6353
-54.7615
-60.4939
-66.9386
-74.2433
-82.6203
-92.285
-103.433
-117.767
-138.455
-19.3351
-21.1783
-23.3416
-25.7004
-28.2647
-31.0766
-34.1709
-37.5822
-41.3507
-45.5235
-50.156
-55.3152
-61.0845
-67.5716
-74.9258
-83.3612
-93.095
-104.323
-118.741
-139.496
-19.609
-21.4797
-23.6643
-26.0445
-28.6322
-31.4687
-34.5883
-38.0257
-41.8217
-46.0236
-50.6875
-55.8813
-61.6893
-68.2208
-75.6268
-84.1232
-93.9287
-105.239
-119.743
-140.566
-19.9067
-21.8019
-24.0054
-26.4046
-29.0135
-31.8729
-35.0167
-38.4799
-42.3033
-46.5348
-51.231
-56.4604
-62.3087
-68.8863
-76.3461
-84.9057
-94.7851
-106.18
-120.772
-141.665
-20.2249
-22.1439
-24.3645
-26.7811
-29.4099
-32.291
-35.4582
-38.9465
-42.7972
-47.0584
-51.7873
-57.0534
-62.9431
-69.5683
-77.0835
-85.7082
-95.6636
-107.144
-121.825
-142.79
-20.5629
-22.5048
-24.7409
-27.1738
-29.8215
-32.7234
-35.9134
-39.4264
-43.3042
-47.5952
-52.3573
-57.6606
-63.5926
-70.2666
-77.8388
-86.5303
-96.5635
-108.132
-122.903
-143.939
-20.9202
-22.8838
-25.1342
-27.5823
-30.248
-33.1702
-36.3824
-39.9199
-43.8246
-48.1455
-52.9411
-58.2822
-64.2574
-70.9813
-78.6117
-87.3716
-97.4841
-109.141
-124.003
-145.111
-21.2951
-23.2794
-25.5431
-28.0058
-30.689
-33.6309
-36.865
-40.4267
-44.3583
-48.7093
-53.5387
-58.918
-64.9372
-71.7119
-79.4018
-88.2313
-98.4247
-110.172
-125.126
-146.306
-21.6851
-23.6896
-25.9661
-28.443
-31.1433
-34.1048
-37.3605
-40.9463
-44.9049
-49.2861
-54.1496
-59.5678
-65.6315
-72.458
-80.2083
-89.1088
-99.3844
-111.223
-126.27
-147.522
-22.088
-24.1124
-26.4013
-28.8923
-31.6097
-34.5906
-37.868
-41.478
-45.4637
-49.8754
-54.7733
-60.2308
-66.3397
-73.2187
-81.0306
-90.0031
-100.362
-112.294
-127.434
-148.759
-22.5014
-24.5457
-26.8469
-29.3521
-32.0868
-35.0872
-38.3864
-42.0208
-46.0337
-50.4762
-55.409
-60.9063
-67.0611
-73.9934
-81.8675
-90.9132
-101.357
-113.384
-128.619
-150.017
-22.9233
-24.9873
-27.301
-29.8207
-32.5729
-35.5932
-38.9145
-42.5735
-46.6141
-51.0877
-56.0557
-61.5933
-67.7946
-74.7808
-82.7181
-91.8376
-102.367
-114.49
-129.824
-151.298
-23.3515
-25.4355
-27.7619
-30.2966
-33.0668
-36.1073
-39.451
-43.1351
-47.2037
-51.7088
-56.7125
-62.2908
-68.5391
-75.5799
-83.5809
-92.7747
-103.39
-115.61
-131.047
-152.605
-23.7843
-25.8887
-28.2282
-30.7784
-33.5671
-36.6282
-39.9947
-43.7043
-47.8013
-52.3383
-57.3782
-62.9977
-69.2933
-76.3891
-84.4543
-93.7227
-104.423
-116.739
-132.281
-153.941
-16.129
-15.3993
-15.0174
-14.7886
-14.6251
-14.4943
-14.3935
-14.3145
-14.2579
-14.2209
-14.2039
-14.206
-14.2271
-14.2671
-14.326
-14.4038
-14.5006
-14.6165
-14.752
-14.907
-18.0908
-17.4863
-17.026
-16.7455
-16.5415
-16.3893
-16.273
-16.1842
-16.1206
-16.0791
-16.0592
-16.0595
-16.08
-16.1202
-16.1799
-16.2592
-16.3579
-16.4761
-16.6139
-16.7715
-20.1236
-19.6123
-19.1673
-18.8621
-18.6287
-18.4559
-18.3235
-18.2239
-18.1524
-18.1058
-18.0827
-18.0815
-18.1019
-18.1431
-18.205
-18.2873
-18.3898
-18.5124
-18.6552
-18.8183
-22.4269
-21.9399
-21.5144
-21.1953
-20.9406
-20.7469
-20.5965
-20.483
-20.4005
-20.3458
-20.3165
-20.3113
-20.3292
-20.3694
-20.4315
-20.5151
-20.62
-20.7458
-20.8926
-21.0604
-24.9507
-24.4788
-24.0659
-23.7376
-23.4687
-23.258
-23.0918
-22.9649
-22.8714
-22.808
-22.7723
-22.7625
-22.7774
-22.8161
-22.8781
-22.9628
-23.0697
-23.1986
-23.3491
-23.5217
-27.6999
-27.2462
-26.8438
-26.5097
-26.2311
-26.0069
-25.8275
-25.6885
-25.5848
-25.5132
-25.4712
-25.4569
-25.469
-25.5064
-25.5684
-25.6543
-25.7636
-25.8958
-26.0507
-26.2285
-30.7134
-30.2753
-29.8817
-29.5442
-29.2581
-29.0229
-28.8321
-28.6822
-28.569
-28.4896
-28.4414
-28.4228
-28.4321
-28.4683
-28.5305
-28.618
-28.7301
-28.8661
-29.0258
-29.2096
-34.0308
-33.6033
-33.2153
-32.8754
-32.5831
-32.3385
-32.1376
-31.9778
-31.8557
-31.7688
-31.7148
-31.6919
-31.6987
-31.734
-31.7968
-31.8862
-32.0016
-32.142
-32.3073
-32.498
-37.6914
-37.2696
-36.8841
-36.5414
-36.2432
-35.9901
-35.78
-35.611
-35.4806
-35.3867
-35.3271
-35.3004
-35.3049
-35.3396
-35.4034
-35.4954
-35.6146
-35.7602
-35.9321
-36.1306
-41.7392
-41.3187
-40.9323
-40.5855
-40.281
-40.0198
-39.8009
-39.6231
-39.4848
-39.3841
-39.3193
-39.2889
-39.2916
-39.3262
-39.3915
-39.4867
-39.6106
-39.7624
-39.9418
-40.1495
-46.2253
-45.8017
-45.4111
-45.0583
-44.7463
-44.4764
-44.2485
-44.0621
-43.9159
-43.8085
-43.7386
-43.7049
-43.706
-43.7408
-43.8082
-43.9073
-44.0367
-44.1957
-44.3839
-44.6021
-51.2113
-50.78
-50.3814
-50.0198
-49.6984
-49.4185
-49.1807
-48.9849
-48.8304
-48.7161
-48.6409
-48.6037
-48.6033
-48.6386
-48.7086
-48.8121
-48.9479
-49.1149
-49.313
-49.5431
-56.7729
-56.3287
-55.9176
-55.5436
-55.2096
-54.9174
-54.6679
-54.4612
-54.2971
-54.1748
-54.0936
-54.0523
-54.05
-54.0856
-54.1581
-54.2664
-54.409
-54.5848
-54.7938
-55.0371
-63.0078
-62.5444
-62.115
-61.7234
-61.3725
-61.0643
-60.7998
-60.5795
-60.4034
-60.2711
-60.1819
-60.1351
-60.1296
-60.1645
-60.2389
-60.3515
-60.5008
-60.6856
-60.9059
-61.163
-70.0521
-69.5616
-69.1065
-68.6905
-68.3166
-67.9867
-67.7022
-67.4638
-67.2717
-67.1258
-67.0254
-66.9701
-66.9588
-66.9908
-67.0651
-67.1805
-67.3355
-67.5285
-67.7596
-68.0299
-78.1043
-77.5768
-77.0863
-76.6367
-76.231
-75.8715
-75.5596
-75.2963
-75.082
-74.9166
-74.7998
-74.731
-74.7095
-74.7344
-74.805
-74.9199
-75.0776
-75.2763
-75.5156
-75.7967
-87.3679
-86.7912
-86.2525
-85.7564
-85.3069
-84.9064
-84.5568
-84.259
-84.0133
-83.8199
-83.6785
-83.5886
-83.5494
-83.5603
-83.6204
-83.7285
-83.883
-84.082
-84.3244
-84.6115
-98.0471
-97.4037
-96.798
-96.2384
-95.7296
-95.2746
-94.8744
-94.5298
-94.2412
-94.0084
-93.8314
-93.7095
-93.6424
-93.629
-93.6684
-93.7595
-93.9015
-94.0935
-94.3342
-94.6221
-111.893
-111.153
-110.458
-109.818
-109.237
-108.716
-108.254
-107.852
-107.509
-107.226
-107.003
-106.838
-106.733
-106.685
-106.693
-106.757
-106.879
-107.061
-107.302
-107.587
-132.18
-131.319
-130.534
-129.82
-129.173
-128.59
-128.07
-127.613
-127.218
-126.887
-126.618
-126.412
-126.268
-126.186
-126.165
-126.204
-126.31
-126.489
-126.738
-127.018
-15.0809
-15.2725
-15.4817
-15.7087
-15.9534
-16.216
-16.4964
-16.7945
-17.1098
-17.4418
-17.7898
-18.1515
-18.5215
-18.8943
-19.2696
-19.6384
-19.9511
-20.176
-20.4134
-20.6395
-16.9484
-17.1434
-17.3565
-17.5876
-17.8365
-18.1033
-18.3877
-18.6893
-19.0077
-19.342
-19.6908
-20.0516
-20.4205
-20.7918
-21.1603
-21.5187
-21.8491
-22.1183
-22.3008
-22.4766
-19.0013
-19.203
-19.4233
-19.662
-19.919
-20.1939
-20.4864
-20.7961
-21.1222
-21.4637
-21.8187
-22.1848
-22.5582
-22.9344
-23.307
-23.6689
-24.0121
-24.3186
-24.5586
-24.777
-21.2489
-21.4568
-21.684
-21.9301
-22.1948
-22.4778
-22.7786
-23.0965
-23.4306
-23.7797
-24.1418
-24.5143
-24.8938
-25.2759
-25.655
-26.0248
-26.3789
-26.708
-27.0026
-27.2913
-23.7158
-23.93
-24.164
-24.4176
-24.6903
-24.9816
-25.2908
-25.6173
-25.9599
-26.3173
-26.6874
-27.0676
-27.4547
-27.8448
-28.2332
-28.6147
-28.9833
-29.3335
-29.6679
-30.0092
-26.4288
-26.6498
-26.8915
-27.1532
-27.4346
-27.735
-28.0537
-28.3898
-28.7421
-29.1091
-29.4888
-29.8788
-30.2759
-30.6768
-31.0777
-31.4742
-31.8616
-32.2368
-32.6056
-32.9854
-29.4169
-29.6457
-29.8959
-30.1668
-30.458
-30.7687
-31.0981
-31.4452
-31.8087
-32.1872
-32.5786
-32.9805
-33.3903
-33.805
-34.2212
-34.6358
-35.0453
-35.4483
-35.8506
-36.2647
-32.7132
-32.9508
-33.2106
-33.492
-33.7943
-34.1168
-34.4585
-34.8183
-35.195
-35.587
-35.9923
-36.4089
-36.8341
-37.2655
-37.7003
-38.1359
-38.5701
-39.0026
-39.4384
-39.8863
-36.3551
-36.6028
-36.8736
-37.1669
-37.482
-37.8179
-38.1738
-38.5484
-38.9405
-39.3484
-39.7704
-40.2045
-40.6483
-41.0996
-41.5563
-42.0162
-42.4778
-42.9415
-43.4114
-43.894
-40.3845
-40.6438
-40.9273
-41.2343
-41.564
-41.9155
-42.2878
-42.6796
-43.0897
-43.5164
-43.9581
-44.4129
-44.8787
-45.3537
-45.8359
-46.3237
-46.8158
-47.313
-47.8186
-48.3378
-44.8491
-45.1217
-45.4197
-45.7423
-46.0889
-46.4583
-46.8495
-47.2613
-47.6924
-48.1412
-48.606
-49.0852
-49.577
-50.0795
-50.5913
-51.1109
-51.6373
-52.1711
-52.715
-53.2738
-49.8038
-50.0913
-50.4057
-50.7462
-51.1119
-51.5018
-51.9147
-52.3496
-52.8049
-53.2793
-53.7712
-54.2789
-54.8008
-55.3353
-55.8812
-56.4371
-57.002
-57.5762
-58.1622
-58.7643
-55.3128
-55.6169
-55.9494
-56.3097
-56.6968
-57.1098
-57.5474
-58.0084
-58.4915
-58.9953
-59.5182
-60.0587
-60.6153
-61.1866
-61.7714
-62.3684
-62.9765
-63.5958
-64.2284
-64.8787
-61.4546
-61.7762
-62.1283
-62.5099
-62.9204
-63.3586
-63.8234
-64.3135
-64.8276
-65.3644
-65.9223
-66.4999
-67.0958
-67.7086
-68.3372
-68.9805
-69.637
-70.3065
-70.991
-71.6948
-68.3371
-68.6762
-69.0479
-69.4515
-69.8862
-70.351
-70.8447
-71.366
-71.9137
-72.4864
-73.0826
-73.7009
-74.34
-74.9986
-75.6757
-76.3701
-77.0803
-77.8054
-78.547
-79.3094
-76.1172
-76.4718
-76.8616
-77.2858
-77.7438
-78.2346
-78.7571
-79.31
-79.8921
-80.5019
-81.1381
-81.7993
-82.4842
-83.1915
-83.9204
-84.6698
-85.4378
-86.2228
-87.0258
-87.8507
-84.9409
-85.3062
-85.7088
-86.1487
-86.6255
-87.1385
-87.6865
-88.2682
-88.8824
-89.5275
-90.2023
-90.9054
-91.6356
-92.3915
-93.1722
-93.9768
-94.8034
-95.6499
-96.5163
-97.406
-94.9522
-95.3174
-95.7215
-96.1667
-96.6531
-97.1799
-97.7457
-98.3491
-98.9885
-99.6624
-100.369
-101.108
-101.878
-102.677
-103.504
-104.358
-105.238
-106.145
-107.078
-108.035
-107.896
-108.238
-108.626
-109.062
-109.545
-110.073
-110.645
-111.258
-111.911
-112.601
-113.329
-114.091
-114.889
-115.719
-116.581
-117.474
-118.402
-119.371
-120.378
-121.403
-127.262
-127.556
-127.915
-128.332
-128.803
-129.323
-129.889
-130.5
-131.153
-131.847
-132.581
-133.354
-134.166
-135.015
-135.9
-136.823
-137.793
-138.824
-139.912
-140.991
-141.95
-122.41
-109.008
-98.3165
-88.6951
-80.0903
-72.4162
-65.546
-59.3829
-53.8486
-48.8731
-44.393
-40.3516
-36.6984
-33.3888
-30.3814
-27.6318
-25.1081
-22.8554
-20.8978
-142.937
-123.42
-109.989
-99.2389
-89.5519
-80.8833
-73.1501
-66.2261
-60.0148
-54.4375
-49.4233
-44.9083
-40.835
-37.1523
-33.8147
-30.7809
-28.0116
-25.4842
-23.2309
-21.2151
-143.977
-124.45
-110.985
-100.177
-90.4243
-81.6913
-73.8986
-66.9211
-60.6621
-55.0426
-49.991
-45.4426
-41.3394
-37.6298
-34.2678
-31.2125
-28.4261
-25.883
-23.5984
-21.5354
-145.061
-125.511
-112.001
-101.132
-91.313
-82.515
-74.6625
-67.6315
-61.3254
-55.6644
-50.5764
-45.9961
-41.8648
-38.1305
-34.747
-31.6738
-28.8734
-26.3188
-24.0199
-21.9439
-146.183
-126.6
-113.038
-102.106
-92.2182
-83.3542
-75.4416
-68.3572
-62.0043
-56.3026
-51.1793
-46.5683
-42.4103
-38.6529
-35.2496
-32.1597
-29.3456
-26.7796
-24.4677
-22.3806
-147.337
-127.717
-114.098
-103.097
-93.1393
-84.2085
-76.2353
-69.0976
-62.6983
-56.9564
-51.7985
-47.1576
-42.974
-39.1945
-35.7726
-32.6671
-29.8407
-27.2656
-24.944
-22.8465
-148.519
-128.858
-115.177
-104.105
-94.0755
-85.0769
-77.0427
-69.8516
-63.406
-57.6244
-52.4323
-47.7621
-43.5532
-39.7522
-36.3118
-33.1908
-30.3517
-27.7664
-25.4335
-23.3233
-149.726
-130.021
-116.275
-105.129
-95.0257
-85.9582
-77.8626
-70.6177
-64.126
-58.3047
-53.0787
-48.3794
-44.1455
-40.323
-36.8642
-33.7273
-30.875
-28.2788
-25.9335
-23.8086
-150.955
-131.203
-117.389
-106.168
-95.9883
-86.8509
-78.6932
-71.3945
-64.8565
-58.9957
-53.7358
-49.0073
-44.7483
-40.904
-37.4262
-34.2728
-31.4063
-28.7977
-26.4383
-24.2974
-152.203
-132.402
-118.518
-107.218
-96.9615
-87.7533
-79.533
-72.1802
-65.5958
-59.6953
-54.4014
-49.6436
-45.3592
-41.4927
-37.9954
-34.8247
-31.9431
-29.3209
-26.9462
-24.7881
-153.47
-133.616
-119.658
-108.278
-97.9435
-88.6636
-80.3802
-72.973
-66.342
-60.4017
-55.0735
-50.2862
-45.976
-42.0868
-38.5693
-35.3806
-32.4829
-29.846
-27.4548
-25.2791
-154.751
-134.842
-120.809
-109.347
-98.9322
-89.5797
-81.2328
-73.7709
-67.0931
-61.1128
-55.7503
-50.9331
-46.5967
-42.6843
-39.1461
-35.9387
-33.024
-30.3715
-27.9631
-25.7694
-156.045
-136.078
-121.967
-110.421
-99.9255
-90.4998
-82.0889
-74.5721
-67.8475
-61.827
-56.4298
-51.5825
-47.2196
-43.2836
-39.7242
-36.4974
-33.5652
-30.8961
-28.4699
-26.2582
-157.35
-137.321
-123.131
-111.499
-100.921
-91.4218
-82.9467
-75.3748
-68.6032
-62.5425
-57.1106
-52.2329
-47.8432
-43.8832
-40.3021
-37.0555
-34.1052
-31.4191
-28.9745
-26.7448
-158.662
-138.569
-124.296
-112.578
-101.918
-92.3438
-83.8043
-76.1773
-69.3586
-63.2576
-57.7908
-52.8827
-48.4659
-44.4817
-40.8786
-37.612
-34.6431
-31.9395
-29.4763
-27.2287
-159.981
-139.818
-125.462
-113.656
-102.912
-93.2635
-84.6593
-76.9773
-70.1118
-63.9707
-58.4691
-53.5304
-49.0866
-45.0781
-41.4529
-38.1659
-35.1783
-32.4569
-29.9748
-27.7098
-161.308
-141.07
-126.625
-114.73
-103.902
-94.1779
-85.5094
-77.7727
-70.8607
-64.6797
-59.1436
-54.1746
-49.7038
-45.671
-42.0236
-38.7163
-35.71
-32.9707
-30.4698
-28.1881
-162.651
-142.326
-127.783
-115.796
-104.883
-95.085
-86.3525
-78.5616
-71.6036
-65.3832
-59.8129
-54.8138
-50.3163
-46.2593
-42.59
-39.2625
-36.2375
-33.4804
-30.961
-28.6636
-164.005
-143.581
-128.934
-116.853
-105.856
-95.9842
-87.1885
-79.3439
-72.3403
-66.0808
-60.4766
-55.4476
-50.9234
-46.8425
-43.1513
-39.8038
-36.7603
-33.9857
-31.4484
-29.1364
-165.325
-144.819
-130.075
-117.901
-106.821
-96.8768
-88.0184
-80.1206
-73.0717
-66.7733
-61.1352
-56.0764
-51.5256
-47.4206
-43.7076
-40.3401
-37.2783
-34.4861
-31.9312
-29.6059
-23.4787
-15.9224
-11.1231
-7.71717
-5.34831
-3.68621
-2.50684
-1.67953
-1.10801
-0.723195
-0.472917
-0.317648
-0.227819
-0.181773
-0.164041
-0.163833
-0.173812
-0.189089
-0.206507
-0.224066
-0.240573
-0.255272
-0.267768
-0.277658
-0.284761
-0.288556
-0.288917
-0.28509
-0.277132
-0.264257
-0.246912
-0.224954
-0.199021
-0.17081
-0.139616
-0.110305
-0.0785776
-0.0529353
-0.0253399
-0.00807964
-23.9406
-16.2898
-11.4081
-7.94042
-5.51861
-3.81808
-2.61006
-1.76085
-1.17278
-0.775273
-0.515139
-0.352083
-0.256006
-0.204882
-0.182984
-0.179337
-0.186467
-0.199381
-0.214838
-0.230771
-0.245928
-0.25951
-0.271081
-0.280206
-0.286672
-0.289938
-0.289854
-0.285663
-0.277398
-0.264293
-0.246768
-0.224715
-0.198736
-0.170559
-0.139451
-0.11025
-0.0786833
-0.053127
-0.0256194
-0.00842863
-24.397
-16.6601
-11.6999
-8.1708
-5.69438
-3.95371
-2.71581