/*--------------------------------*- C++ -*----------------------------------*\
| =========                 |                                                 |
| \\      /  F ield         | OpenFOAM: The Open Source CFD Toolbox           |
|  \\    /   O peration     | Version:  v1912                                 |
|   \\  /    A nd           | Website:  www.openfoam.com                      |
|    \\/     M anipulation  |                                                 |
\*---------------------------------------------------------------------------*/
FoamFile
{
    version     2.0;
    format      ascii;
    class       volScalarField;
    location    "0.5";
    object      p;
}
// * * * * * * * * * * * * * * * * * * * * * * * * * * * * * * * * * * * * * //

dimensions      [0 2 -2 0 0 0 0];


internalField   nonuniform List<scalar> 
9600
(
-16.9867
-11.8135
-8.98517
-6.88047
-5.23744
-4.00121
-3.07586
-2.38318
-1.86623
-1.4816
-1.19603
-0.984229
-0.82707
-0.710159
-0.622698
-0.556628
-0.505967
-0.46629
-0.434422
-0.408422
-17.0357
-11.8699
-9.04125
-6.93387
-5.2877
-4.04806
-3.11932
-2.42326
-1.9029
-1.51487
-1.22591
-1.01077
-0.850393
-0.730431
-0.640139
-0.571499
-0.518555
-0.476879
-0.44329
-0.41601
-17.0908
-11.927
-9.09785
-6.98757
-5.33851
-4.09566
-3.16368
-2.46439
-1.94079
-1.54949
-1.25726
-1.03889
-0.875375
-0.752429
-0.659353
-0.588172
-0.532956
-0.489276
-0.453948
-0.425408
-17.15
-11.9857
-9.15506
-7.0417
-5.38976
-4.14384
-3.2088
-2.50646
-1.97979
-1.58537
-1.29002
-1.06854
-0.901999
-0.776149
-0.680348
-0.606663
-0.549196
-0.503514
-0.466439
-0.436666
-17.2116
-12.0457
-9.21295
-7.09639
-5.44153
-4.19265
-3.25471
-2.54948
-2.01989
-1.62253
-1.32419
-1.09974
-0.930268
-0.801598
-0.703132
-0.626987
-0.567295
-0.519619
-0.480792
-0.449815
-17.2748
-12.1068
-9.27144
-7.15159
-5.4938
-4.24205
-3.30134
-2.5934
-2.06107
-1.66091
-1.35974
-1.13245
-0.960162
-0.828761
-0.727701
-0.649145
-0.587259
-0.537599
-0.497017
-0.464864
-17.3391
-12.1687
-9.33043
-7.20721
-5.54649
-4.29197
-3.34864
-2.63814
-2.10325
-1.70048
-1.39663
-1.16662
-0.991642
-0.857607
-0.754028
-0.673116
-0.609071
-0.557439
-0.515101
-0.481804
-17.4041
-12.2311
-9.38975
-7.2631
-5.59948
-4.34229
-3.3965
-2.68363
-2.14635
-1.74113
-1.43477
-1.20219
-1.02464
-0.888075
-0.78206
-0.698854
-0.632688
-0.579102
-0.535011
-0.500602
-17.4696
-12.2939
-9.4492
-7.3191
-5.6526
-4.39287
-3.44479
-2.72972
-2.19024
-1.78275
-1.47403
-1.23905
-1.05905
-0.920071
-0.811711
-0.726277
-0.658037
-0.60252
-0.556686
-0.521204
-17.5353
-12.3567
-9.50857
-7.375
-5.70569
-4.44355
-3.49333
-2.77626
-2.23476
-1.82519
-1.51429
-1.27704
-1.09474
-0.953463
-0.842853
-0.755267
-0.685005
-0.62759
-0.580031
-0.543523
-17.601
-12.4193
-9.56764
-7.43059
-5.75853
-4.49411
-3.54194
-2.82304
-2.27972
-1.86824
-1.55533
-1.31599
-1.13153
-0.988075
-0.875317
-0.78566
-0.713439
-0.654166
-0.60491
-0.567432
-17.6667
-12.4815
-9.62618
-7.48563
-5.81088
-4.54433
-3.59037
-2.86984
-2.32488
-1.91168
-1.59694
-1.35565
-1.16919
-1.02368
-0.908879
-0.817239
-0.743128
-0.682047
-0.631133
-0.59275
-17.7321
-12.5431
-9.68395
-7.53985
-5.86249
-4.59394
-3.63838
-2.9164
-2.37
-1.95525
-1.63884
-1.39577
-1.20743
-1.05999
-0.943259
-0.849726
-0.773796
-0.710961
-0.658431
-0.619218
-17.7975
-12.6039
-9.74068
-7.59297
-5.91305
-4.64266
-3.68567
-2.96244
-2.41477
-1.99866
-1.68074
-1.43602
-1.24593
-1.09668
-0.978113
-0.882768
-0.805086
-0.740544
-0.686437
-0.646482
-17.8626
-12.6635
-9.79605
-7.64469
-5.96227
-4.69019
-3.73196
-3.00766
-2.45891
-2.04158
-1.7223
-1.47606
-1.28433
-1.13336
-1.01304
-0.915941
-0.836549
-0.770324
-0.714655
-0.674043
-17.9274
-12.7216
-9.84973
-7.69472
-6.00986
-4.73623
-3.77695
-3.05177
-2.5021
-2.08372
-1.76319
-1.51555
-1.32226
-1.16964
-1.04759
-0.948762
-0.867653
-0.799713
-0.742425
-0.701139
-17.9932
-12.7782
-9.90137
-7.74265
-6.05543
-4.78043
-3.82031
-3.09445
-2.54405
-2.12476
-1.80311
-1.55414
-1.35935
-1.2051
-1.08134
-0.980748
-0.897868
-0.828111
-0.768965
-0.726726
-18.0643
-12.8343
-9.95048
-7.78776
-6.09833
-4.82224
-3.86158
-3.13532
-2.58442
-2.1644
-1.84176
-1.59155
-1.3953
-1.23941
-1.11387
-1.01141
-0.926598
-0.85473
-0.793083
-0.749535
-18.143
-12.8897
-9.99605
-7.82916
-6.13801
-4.86131
-3.90049
-3.17413
-2.62297
-2.20242
-1.87894
-1.62758
-1.42992
-1.27236
-1.14492
-1.0403
-0.953007
-0.877963
-0.812145
-0.766739
-18.2104
-12.9392
-10.0371
-7.86741
-6.1751
-4.8982
-3.93745
-3.21116
-2.6599
-2.23896
-1.91477
-1.66239
-1.46342
-1.3043
-1.17501
-1.06818
-0.977973
-0.898865
-0.827716
-0.776527
-17.8326
-17.9098
-17.9738
-18.0357
-18.0939
-18.1457
-18.1903
-18.2278
-18.2582
-18.2817
-18.2982
-18.3081
-18.3115
-18.3089
-18.3008
-18.2878
-18.2711
-18.2523
-18.2343
-18.2208
-12.5592
-12.6436
-12.7185
-12.7867
-12.848
-12.9017
-12.9478
-12.9865
-13.0182
-13.0429
-13.061
-13.0723
-13.0773
-13.0764
-13.0699
-13.0586
-13.0429
-13.0236
-13.001
-12.9741
-9.66709
-9.74968
-9.82421
-9.89089
-9.95034
-10.0024
-10.0471
-10.0848
-10.1157
-10.1404
-10.1591
-10.1714
-10.1773
-10.1773
-10.1718
-10.1612
-10.1458
-10.1258
-10.1014
-10.0724
-7.54662
-7.6246
-7.6952
-7.75799
-7.81301
-7.86094
-7.902
-7.93628
-7.96392
-7.98556
-8.00113
-8.01086
-8.015
-8.01351
-8.00673
-7.99505
-7.97878
-7.95814
-7.93311
-7.90377
-5.91977
-5.98962
-6.05286
-6.10902
-6.15825
-6.20091
-6.23716
-6.2671
-6.29079
-6.30791
-6.31892
-6.32594
-6.3287
-6.32615
-6.31815
-6.30514
-6.28759
-6.26583
-6.23993
-6.21028
-4.7192
-4.78138
-4.8375
-4.8871
-4.9303
-4.96733
-4.99838
-5.02356
-5.04306
-5.05708
-5.06577
-5.06816
-5.06502
-5.05899
-5.04888
-5.03385
-5.01437
-4.99098
-4.96385
-4.93342
-3.8349
-3.88988
-3.93911
-3.98226
-4.0194
-4.05073
-4.07639
-4.09654
-4.11131
-4.12087
-4.12538
-4.12502
-4.11996
-4.10935
-4.09609
-4.07904
-4.05769
-4.03266
-4.00426
-3.97293
-3.17762
-3.22608
-3.26907
-3.30632
-3.33793
-3.36406
-3.38483
-3.4004
-3.41089
-3.41648
-3.41735
-3.41371
-3.40581
-3.39383
-3.37688
-3.35781
-3.33482
-3.30839
-3.27892
-3.24682
-2.68413
-2.72697
-2.76457
-2.79675
-2.82362
-2.84529
-2.86191
-2.8736
-2.88052
-2.88283
-2.88071
-2.87432
-2.86387
-2.8496
-2.83146
-2.81028
-2.78583
-2.75836
-2.72813
-2.69555
-2.30865
-2.34677
-2.37988
-2.40786
-2.43079
-2.4488
-2.46202
-2.47058
-2.47462
-2.47431
-2.46982
-2.46132
-2.449
-2.43312
-2.41402
-2.39122
-2.36574
-2.33765
-2.30705
-2.27433
-2.01812
-2.05238
-2.08182
-2.10638
-2.12614
-2.14123
-2.15176
-2.15787
-2.1597
-2.1574
-2.15115
-2.14111
-2.12747
-2.11042
-2.09059
-2.06698
-2.04101
-2.01266
-1.98205
-1.94954
-1.78905
-1.82016
-1.84665
-1.86849
-1.88575
-1.89856
-1.90703
-1.9113
-1.91149
-1.90778
-1.90031
-1.88925
-1.87474
-1.8568
-1.8365
-1.81289
-1.78686
-1.75859
-1.72827
-1.69629
-1.60482
-1.63339
-1.65753
-1.67721
-1.69254
-1.70362
-1.71056
-1.71349
-1.71255
-1.70788
-1.69965
-1.68802
-1.67319
-1.65562
-1.63446
-1.61094
-1.58512
-1.5572
-1.52744
-1.49623
-1.45368
-1.48022
-1.50249
-1.5205
-1.53435
-1.54414
-1.54998
-1.55199
-1.5503
-1.54506
-1.53643
-1.52455
-1.50962
-1.49179
-1.47106
-1.44791
-1.42253
-1.39516
-1.36613
-1.33587
-1.32734
-1.35223
-1.37303
-1.38975
-1.40248
-1.41133
-1.4164
-1.4178
-1.41567
-1.41016
-1.4014
-1.38953
-1.37472
-1.3571
-1.33685
-1.31421
-1.28941
-1.26274
-1.23451
-1.2053
-1.21987
-1.24343
-1.26306
-1.27877
-1.29066
-1.29883
-1.30338
-1.30443
-1.30209
-1.29652
-1.28782
-1.27618
-1.26166
-1.24448
-1.22478
-1.20275
-1.17863
-1.15269
-1.12528
-1.09717
-1.12704
-1.14951
-1.16819
-1.18311
-1.19436
-1.20205
-1.20626
-1.20713
-1.20472
-1.19925
-1.19077
-1.17941
-1.16533
-1.14868
-1.1296
-1.10824
-1.08481
-1.05956
-1.03284
-1.00582
-1.04575
-1.06738
-1.08536
-1.09972
-1.11055
-1.11795
-1.12199
-1.1228
-1.12032
-1.11522
-1.10707
-1.09612
-1.08257
-1.06652
-1.0481
-1.02742
-1.00464
-0.979954
-0.953591
-0.927259
-0.973651
-0.994715
-1.01225
-1.02631
-1.03697
-1.04436
-1.04855
-1.04963
-1.04694
-1.04271
-1.03513
-1.02485
-1.01204
-0.99683
-0.979303
-0.959546
-0.93763
-0.913582
-0.887394
-0.861442
-0.909114
-0.929106
-0.945758
-0.959114
-0.969256
-0.9763
-0.980425
-0.982196
-0.981019
-0.975657
-0.968457
-0.958913
-0.947016
-0.932868
-0.916553
-0.898132
-0.877629
-0.854841
-0.829553
-0.806803
-14.5445
-14.7352
-14.9166
-15.1068
-15.302
-15.4969
-15.6895
-15.8791
-16.0649
-16.246
-16.4217
-16.5914
-16.7549
-16.9115
-17.0613
-17.204
-17.3398
-17.4692
-17.5937
-17.7152
-9.36412
-9.56079
-9.75378
-9.94723
-10.14
-10.3304
-10.5176
-10.7011
-10.8805
-11.0551
-11.2246
-11.3884
-11.5461
-11.6975
-11.8421
-11.98
-12.1109
-12.2349
-12.3518
-12.4607
-6.64505
-6.835
-7.02289
-7.20831
-7.3913
-7.57162
-7.74881
-7.9224
-8.09193
-8.25695
-8.41702
-8.57169
-8.72061
-8.86344
-8.99991
-9.12978
-9.25283
-9.36877
-9.47717
-9.57736
-4.72678
-4.90441
-5.08072
-5.25453
-5.4258
-5.59444
-5.76006
-5.92217
-6.08037
-6.23424
-6.38338
-6.52739
-6.66596
-6.79877
-6.92556
-7.04608
-7.16009
-7.26739
-7.36773
-7.4612
-3.32581
-3.49039
-3.65406
-3.81553
-3.97455
-4.13094
-4.28432
-4.43429
-4.58044
-4.72239
-4.85978
-4.99225
-5.1195
-5.24126
-5.35726
-5.46727
-5.57108
-5.66851
-5.75935
-5.84361
-2.34242
-2.49478
-2.64628
-2.79578
-2.94292
-3.08746
-3.22905
-3.36732
-3.50187
-3.63234
-3.75841
-3.87976
-3.9961
-4.10717
-4.21273
-4.31257
-4.4065
-4.49437
-4.57596
-4.65132
-1.6575
-1.79875
-1.93907
-2.07751
-2.21369
-2.34735
-2.47812
-2.60565
-2.72956
-2.84951
-2.9652
-3.07633
-3.18264
-3.28388
-3.37983
-3.47031
-3.55515
-3.63421
-3.70733
-3.77455
-1.17773
-1.30907
-1.43941
-1.56796
-1.69437
-1.81832
-1.93945
-2.05741
-2.17184
-2.28243
-2.38889
-2.49094
-2.58832
-2.68082
-2.76824
-2.85041
-2.92718
-2.99843
-3.06402
-3.12402
-0.838831
-0.961456
-1.08304
-1.20292
-1.32075
-1.4362
-1.54889
-1.65848
-1.76464
-1.86706
-1.96547
-2.05961
-2.14923
-2.23414
-2.31416
-2.38914
-2.45894
-2.52345
-2.58257
-2.63634
-0.596297
-0.711295
-0.825255
-0.937607
-1.04799
-1.15604
-1.26142
-1.36376
-1.46277
-1.55814
-1.64961
-1.73693
-1.81989
-1.89831
-1.97202
-2.04087
-2.10475
-2.16356
-2.21721
-2.26573
-0.419502
-0.527836
-0.635176
-0.740997
-0.844918
-0.946576
-1.04562
-1.14172
-1.23455
-1.32385
-1.40935
-1.49084
-1.56812
-1.64101
-1.70937
-1.77305
-1.83195
-1.88597
-1.93506
-1.97924
-0.287703
-0.39019
-0.491773
-0.591921
-0.690233
-0.786346
-0.87991
-0.970594
-1.0581
-1.14215
-1.22253
-1.29902
-1.37145
-1.43965
-1.50347
-1.5628
-1.61752
-1.66756
-1.71287
-1.75346
-0.186954
-0.284285
-0.380848
-0.476051
-0.569475
-0.660757
-0.749546
-0.835516
-0.918381
-0.997897
-1.07385
-1.14605
-1.21432
-1.27852
-1.33849
-1.39414
-1.44535
-1.49208
-1.53426
-1.57191
-0.107888
-0.200639
-0.292819
-0.383693
-0.472832
-0.559874
-0.644464
-0.726295
-0.805101
-0.880658
-0.952767
-1.02125
-1.08594
-1.1467
-1.20339
-1.25592
-1.30418
-1.34813
-1.38772
-1.42297
-0.0441917
-0.132872
-0.221235
-0.308302
-0.393656
-0.476936
-0.557802
-0.635968
-0.711193
-0.783269
-0.852009
-0.917245
-0.978823
-1.03661
-1.09048
-1.14034
-1.18611
-1.22772
-1.26515
-1.2984
0.00843186
-0.0767775
-0.161868
-0.245558
-0.327521
-0.407427
-0.484951
-0.559838
-0.631867
-0.700844
-0.766596
-0.828962
-0.8878
-0.942982
-0.994399
-1.04196
-1.08558
-1.12521
-1.16082
-1.1924
0.0532678
-0.0292554
-0.111655
-0.192313
-0.271201
-0.34805
-0.422553
-0.494481
-0.563636
-0.629835
-0.692917
-0.752732
-0.809144
-0.862037
-0.911305
-0.956858
-0.998627
-1.03656
-1.07062
-1.1008
0.0940654
0.0137944
-0.0665946
-0.14464
-0.220833
-0.295006
-0.366868
-0.436218
-0.502879
-0.566682
-0.627472
-0.685109
-0.739468
-0.790433
-0.837905
-0.881798
-0.922042
-0.958587
-0.991397
-1.02047
0.13369
0.0555036
-0.023715
-0.0998329
-0.173925
-0.245936
-0.315627
-0.382843
-0.447431
-0.509236
-0.568117
-0.623944
-0.676598
-0.725972
-0.77197
-0.814511
-0.853531
-0.888979
-0.920824
-0.949061
0.157616
0.0779013
-2.89655e-05
-0.0738061
-0.145425
-0.214818
-0.28178
-0.346239
-0.408082
-0.467176
-0.523403
-0.576652
-0.626823
-0.673826
-0.717579
-0.758017
-0.795084
-0.828744
-0.858973
-0.885771
1.46916
1.48721
1.50498
1.52187
1.53716
1.54972
1.55776
1.55838
1.54693
1.51589
1.45324
1.34001
1.14697
0.830474
0.326625
-0.458152
-1.64505
-3.33767
-5.83321
-10.8206
1.42388
1.43989
1.45608
1.47118
1.48444
1.49475
1.50027
1.49806
1.48339
1.44868
1.38189
1.26405
1.06597
0.744074
0.234519
-0.55628
-1.74963
-3.44923
-5.94932
-10.9346
1.3755
1.38927
1.40376
1.41695
1.42802
1.43593
1.43878
1.43355
1.41547
1.37689
1.30572
1.18299
0.979511
0.651777
0.136005
-0.661349
-1.86154
-3.56833
-6.0727
-11.0531
1.32414
1.33549
1.34816
1.35931
1.36807
1.37342
1.37345
1.36506
1.3434
1.30078
1.22504
1.09717
0.888025
0.554125
0.0317446
-0.772596
-1.98006
-3.69464
-6.20558
-11.1864
1.26993
1.27869
1.28945
1.29843
1.30475
1.3074
1.30445
1.29275
1.26735
1.2205
1.13999
1.00678
0.791699
0.451309
-0.0780695
-0.889853
-2.10512
-3.82812
-6.34723
-11.3322
1.21301
1.21902
1.22776
1.23447
1.23821
1.23804
1.23198
1.2168
1.18751
1.13627
1.05079
0.912
0.690711
0.343498
-0.193288
-1.01301
-2.23665
-3.96862
-6.49661
-11.4874
1.1535
1.15663
1.16327
1.1676
1.16863
1.16551
1.15621
1.13742
1.10408
1.04827
0.957646
0.81305
0.585284
0.230921
-0.31367
-1.14182
-2.3744
-4.11587
-6.65323
-11.6509
1.09152
1.09166
1.09613
1.09798
1.0962
1.09002
1.07734
1.05482
1.01728
0.956749
0.860782
0.710169
0.47567
0.113848
-0.438924
-1.27595
-2.51802
-4.26951
-6.81677
-11.822
1.02721
1.02428
1.0265
1.02578
1.0211
1.01175
0.995596
0.969205
0.927342
0.861929
0.760452
0.603622
0.362146
-0.00743309
-0.568746
-1.41509
-2.66713
-4.42917
-6.98681
-12.0003
0.960692
0.954625
0.954564
0.9512
0.94353
0.930911
0.911178
0.88081
0.834494
0.764066
0.656922
0.493688
0.245008
-0.132612
-0.702814
-1.55888
-2.82139
-4.59444
-7.1629
-12.1849
0.892084
0.882864
0.880492
0.874422
0.863687
0.847726
0.824323
0.789877
0.738997
0.663431
0.550478
0.380669
0.124572
-0.261356
-0.84078
-1.70696
-2.98037
-4.76488
-7.34453
-12.3754
0.821513
0.809158
0.804474
0.795654
0.781798
0.762431
0.735285
0.696679
0.641139
0.560325
0.441431
0.264888
0.00117407
-0.393315
-0.982273
-1.85894
-3.14367
-4.94004
-7.53123
-12.5712
0.749109
0.733687
0.726715
0.715121
0.698106
0.67529
0.644345
0.601511
0.541233
0.455074
0.33012
0.146692
-0.124829
-0.528116
-1.1269
-2.01441
-3.31084
-5.11947
-7.72252
-12.7718
0.675028
0.656663
0.647455
0.633082
0.612892
0.586597
0.551815
0.504701
0.439615
0.348024
0.216898
0.0264439
-0.253059
-0.665366
-1.27425
-2.17292
-3.48144
-5.30271
-7.91797
-12.9767
0.599467
0.578353
0.566988
0.54985
0.526482
0.496696
0.458046
0.406606
0.336649
0.239541
0.102139
-0.0954722
-0.38312
-0.804648
-1.42388
-2.33403
-3.65502
-5.48932
-8.11719
-13.1856
0.522691
0.499108
0.485689
0.46581
0.439268
0.405978
0.363429
0.307612
0.232718
0.130012
-0.0137671
-0.218654
-0.514594
-0.945531
-1.57536
-2.49728
-3.83109
-5.67886
-8.31981
-13.3982
0.445103
0.419416
0.404056
0.381442
0.351711
0.314885
0.268387
0.208129
0.128222
0.0198335
-0.130414
-0.342685
-0.647055
-1.08758
-1.72822
-2.66219
-4.00915
-5.87082
-8.52556
-13.6148
0.367473
0.340104
0.322832
0.297376
0.264356
0.223905
0.173366
0.108575
0.0235696
-0.0905857
-0.247392
-0.467154
-0.780085
-1.23036
-1.88201
-2.82825
-4.18861
-6.0646
-8.73417
-13.8359
0.290514
0.262278
0.242934
0.214308
0.177774
0.133521
0.0787891
0.00934496
-0.0808565
-0.200863
-0.364313
-0.591659
-0.91325
-1.37337
-2.03615
-2.99481
-4.36876
-6.25936
-8.94518
-14.0634
0.214425
0.18707
0.164381
0.132088
0.0920446
0.0439227
-0.0151251
-0.0893258
-0.184808
-0.310749
-0.480935
-0.715963
-1.04632
-1.5164
-2.19042
-3.16163
-4.54925
-6.4541
-9.15668
-14.3004
1.5588
1.57953
1.61095
1.63967
1.66684
1.69421
1.72145
1.74652
1.765
1.76862
1.74321
1.66626
1.50419
1.20941
0.716395
-0.0665287
-1.25413
-2.92943
-5.3979
-10.3616
1.60639
1.62283
1.65
1.67742
1.70448
1.73198
1.75932
1.78431
1.80258
1.80601
1.78069
1.70448
1.54412
1.25229
0.763516
-0.0142795
-1.19682
-2.86452
-5.32544
-10.2731
1.64189
1.65809
1.68374
1.71085
1.73808
1.76571
1.79301
1.8178
1.83569
1.83872
1.81324
1.73741
1.57831
1.28888
0.803799
0.0306585
-1.14759
-2.80675
-5.26017
-10.1873
1.66949
1.68702
1.7125
1.73968
1.76712
1.79487
1.82209
1.84658
1.86404
1.86655
1.84072
1.76504
1.6069
1.31951
0.837741
0.0691126
-1.10508
-2.75753
-5.20663
-10.1216
1.69169
1.71078
1.73643
1.76377
1.79141
1.81922
1.84631
1.87044
1.88731
1.88922
1.86288
1.78713
1.62965
1.3439
0.864997
0.10066
-1.06928
-2.71811
-5.16436
-10.0731
1.70892
1.72952
1.75545
1.78299
1.81081
1.83863
1.86551
1.88921
1.90543
1.90645
1.87948
1.80358
1.64633
1.3618
0.885179
0.124679
-1.04142
-2.68788
-5.1321
-10.0375
1.72147
1.74346
1.76966
1.79737
1.8253
1.85306
1.87963
1.90279
1.91827
1.91829
1.88975
1.81452
1.65674
1.37303
0.898061
0.141063
-1.02213
-2.66712
-5.10965
-10.0134
1.72956
1.75276
1.77916
1.80695
1.83491
1.86251
1.88869
1.91119
1.92577
1.92489
1.89574
1.81804
1.65993
1.37751
0.904381
0.149897
-1.01241
-2.6564
-5.09722
-10.0006
1.73329
1.75752
1.78403
1.8118
1.83966
1.867
1.89268
1.9144
1.92794
1.92586
1.89561
1.81692
1.65859
1.37534
0.902669
0.148411
-1.01053
-2.65502
-5.09467
-9.99877
1.73277
1.75781
1.78433
1.81196
1.8396
1.86655
1.89159
1.91241
1.92476
1.92127
1.88954
1.80956
1.6504
1.36666
0.893962
0.139963
-1.01664
-2.66221
-5.10178
-10.0076
1.72808
1.75371
1.78013
1.80748
1.83477
1.86118
1.88546
1.90522
1.91625
1.91118
1.87772
1.79606
1.63556
1.35106
0.878153
0.124271
-1.03123
-2.67823
-5.11866
-10.0269
1.71937
1.74532
1.77149
1.79844
1.82522
1.85095
1.8743
1.89287
1.90241
1.89559
1.8602
1.77659
1.61437
1.32862
0.854982
0.100697
-1.0546
-2.70341
-5.14547
-10.0567
1.70669
1.73272
1.75849
1.78487
1.81098
1.83588
1.85817
1.87539
1.88327
1.87452
1.83699
1.75116
1.58687
1.2994
0.824457
0.0691579
-1.08673
-2.73786
-5.18228
-10.0968
1.69002
1.71598
1.74117
1.76682
1.79212
1.81603
1.83709
1.85281
1.85888
1.848
1.8081
1.71979
1.55307
1.26344
0.786652
0.0297346
-1.12753
-2.78157
-5.22911
-10.1474
1.66961
1.69509
1.71958
1.74438
1.76869
1.79145
1.81113
1.82518
1.82927
1.81609
1.7736
1.68252
1.51303
1.22079
0.741638
-0.0175071
-1.1769
-2.83452
-5.28596
-10.2085
1.64519
1.67002
1.69375
1.71757
1.74076
1.76221
1.78035
1.79259
1.79453
1.77884
1.73354
1.63942
1.46681
1.17154
0.689484
-0.0725027
-1.23479
-2.89669
-5.35285
-10.2802
1.61702
1.64099
1.66379
1.6865
1.70842
1.72841
1.74486
1.7551
1.75471
1.73633
1.68798
1.59055
1.41449
1.11575
0.630279
-0.135163
-1.30108
-2.96798
-5.42983
-10.3628
1.58525
1.60809
1.62984
1.65129
1.67177
1.69014
1.70473
1.71281
1.7099
1.68863
1.63702
1.53601
1.35616
1.05354
0.564131
-0.205367
-1.3756
-3.04825
-5.51694
-10.4569
1.54996
1.57142
1.59197
1.61202
1.63092
1.64751
1.66006
1.66581
1.66021
1.63585
1.58076
1.4759
1.29193
0.98503
0.491213
-0.282898
-1.45811
-3.13719
-5.61407
-10.5638
1.51122
1.53108
1.55029
1.56882
1.58598
1.60062
1.61097
1.61422
1.60574
1.57809
1.51927
1.41029
1.22185
0.910249
0.411534
-0.367766
-1.5486
-3.23443
-5.72037
-10.6854
1.54479
1.51564
1.47121
1.42213
1.36952
1.31334
1.25321
1.19068
1.12597
1.05904
0.990108
0.919446
0.847408
0.774358
0.700658
0.626677
0.552794
0.479387
0.406833
0.335505
1.55745
1.52765
1.48538
1.43674
1.38344
1.32676
1.26642
1.20329
1.13746
1.06902
0.998315
0.925747
0.851694
0.776541
0.700683
0.624527
0.548488
0.472979
0.398409
0.325186
1.57993
1.54427
1.50037
1.45098
1.39716
1.33941
1.27813
1.21374
1.14643
1.07646
1.0042
0.93006
0.854429
0.777719
0.700352
0.622763
0.545385
0.46865
0.392982
0.318799
1.6038
1.56437
1.51905
1.46886
1.41431
1.3557
1.29339
1.22779
1.15916
1.08784
1.0142
0.938647
0.861606
0.783508
0.704803
0.625941
0.547374
0.469544
0.392889
0.317832
1.6283
1.58662
1.5402
1.48926
1.43404
1.37475
1.31167
1.24516
1.17554
1.10315
1.0284
0.951697
0.873495
0.794249
0.714423
0.634485
0.554897
0.476113
0.398578
0.322717
1.65401
1.61077
1.56339
1.51179
1.45603
1.39624
1.33262
1.26547
1.19513
1.12196
1.04636
0.968778
0.889671
0.80951
0.728772
0.647936
0.567472
0.487836
0.409485
0.332831
1.68024
1.63598
1.58788
1.53577
1.47961
1.41945
1.35545
1.28787
1.21701
1.14325
1.067
0.988703
0.908833
0.827868
0.746292
0.664587
0.583227
0.502671
0.423376
0.345742
1.70479
1.65996
1.61137
1.55887
1.5024
1.44195
1.37763
1.30966
1.23835
1.16404
1.08715
1.00813
0.927443
0.845574
0.763009
0.680231
0.597712
0.515912
0.435291
0.356224
1.72304
1.6779
1.62895
1.57607
1.51921
1.45836
1.39358
1.32508
1.25313
1.17807
1.1003
1.02027
0.938432
0.855274
0.771279
0.686928
0.602692
0.519029
0.436406
0.355167
1.72642
1.68097
1.63154
1.57806
1.52051
1.45888
1.39323
1.32374
1.25065
1.17431
1.09509
1.01342
0.929766
0.844598
0.7584
0.671652
0.584822
0.498375
0.412786
0.328363
1.70045
1.65435
1.60398
1.54936
1.49049
1.42738
1.36009
1.28879
1.21372
1.13519
1.05357
0.969295
0.882802
0.794567
0.705072
0.614796
0.524211
0.433796
0.344036
0.255196
1.62226
1.57476
1.52263
1.46597
1.40481
1.33917
1.26913
1.19486
1.1166
1.03464
0.94937
0.861187
0.77054
0.677904
0.583763
0.4886
0.392897
0.297152
0.201867
0.107254
1.45788
1.40791
1.35288
1.29297
1.22823
1.15872
1.08455
1.00589
0.922978
0.836131
0.74571
0.652128
0.555835
0.457309
0.357042
0.255525
0.153255
0.0507661
-0.051426
-0.153175
1.1595
1.10577
1.0465
0.981959
0.912223
0.837381
0.757572
0.672991
0.583897
0.49061
0.393502
0.292993
0.189543
0.0836394
-0.0242156
-0.133517
-0.243744
-0.35432
-0.464709
-0.574841
0.661579
0.60278
0.537944
0.467462
0.391384
0.309842
0.223004
0.131095
0.0344022
-0.0667351
-0.171928
-0.280742
-0.392702
-0.507306
-0.624038
-0.742378
-0.861778
-0.981604
-1.10128
-1.22083
-0.127286
-0.192035
-0.26325
-0.340521
-0.423833
-0.513019
-0.60787
-0.708117
-0.813436
-0.923458
-1.03777
-1.15591
-1.27739
-1.40169
-1.52827
-1.65661
-1.78612
-1.91611
-2.04591
-2.17557
-1.32131
-1.39159
-1.46879
-1.55268
-1.64322
-1.74016
-1.84324
-1.9521
-2.06639
-2.18567
-2.3095
-2.4374
-2.56886
-2.70334
-2.84029
-2.97914
-3.11932
-3.26003
-3.40046
-3.54053
-3.00053
-3.07688
-3.16055
-3.25131
-3.34916
-3.45388
-3.56514
-3.68257
-3.80574
-3.93421
-4.06749
-4.20508
-4.34647
-4.4911
-4.6384
-4.78776
-4.9386
-5.09022
-5.2417
-5.39238
-5.4697
-5.54575
-5.62993
-5.72317
-5.82499
-5.93477
-6.05189
-6.17577
-6.30589
-6.44172
-6.58274
-6.72842
-6.87824
-7.03164
-7.18801
-7.34669
-7.50728
-7.66986
-7.83409
-7.99686
-10.4087
-10.4716
-10.5516
-10.645
-10.7489
-10.8619
-10.9829
-11.1111
-11.2459
-11.3869
-11.5333
-11.6848
-11.8409
-12.001
-12.1648
-12.3318
-12.5022
-12.6781
-12.8605
-13.0386
0.265673
0.197789
0.132091
0.0688339
0.00824791
-0.0494844
-0.104227
-0.15589
-0.204436
-0.249885
-0.292322
-0.331896
-0.368825
-0.403392
-0.435957
-0.466956
-0.496637
-0.52481
-0.550888
-0.548435
0.25357
0.184102
0.117006
0.0525546
-0.00900578
-0.0674802
-0.122722
-0.174629
-0.223151
-0.268293
-0.310116
-0.348737
-0.38432
-0.417065
-0.447189
-0.474869
-0.499977
-0.521603
-0.537033
-0.528876
0.246335
0.176203
0.108591
0.043769
-0.0180171
-0.0765761
-0.131764
-0.183482
-0.231677
-0.276352
-0.31756
-0.3554
-0.390008
-0.421544
-0.450165
-0.475959
-0.49873
-0.517739
-0.531157
-0.529281
0.244568
0.173795
0.105649
0.0403937
-0.0217257
-0.0805246
-0.135864
-0.187647
-0.235825
-0.280401
-0.321423
-0.358982
-0.3932
-0.424221
-0.452181
-0.477157
-0.499005
-0.517182
-0.530301
-0.532386
0.24868
0.177257
0.108524
0.042739
-0.0198582
-0.0790883
-0.134817
-0.186952
-0.235451
-0.280319
-0.321606
-0.3594
-0.393823
-0.425015
-0.453116
-0.478211
-0.500208
-0.518667
-0.532363
-0.537315
0.257975
0.185811
0.116344
0.0498232
-0.0135131
-0.0734918
-0.129983
-0.182903
-0.232213
-0.277924
-0.320087
-0.358794
-0.394168
-0.426354
-0.45549
-0.481668
-0.504817
-0.524542
-0.539747
-0.547744
0.269811
0.196598
0.126024
0.0583372
-0.00622778
-0.0675016
-0.125359
-0.179719
-0.23055
-0.277865
-0.321716
-0.362194
-0.399424
-0.433543
-0.464684
-0.492926
-0.518187
-0.540088
-0.557662
-0.569098
0.278701
0.203866
0.131552
0.0620134
-0.00451717
-0.0678714
-0.127924
-0.184598
-0.237861
-0.287723
-0.334234
-0.377479
-0.417573
-0.454638
-0.488787
-0.520067
-0.548374
-0.57333
-0.594103
-0.60951
0.275254
0.197957
0.123016
0.0506979
-0.0187623
-0.085193
-0.148466
-0.208501
-0.265259
-0.318742
-0.36899
-0.416076
-0.460093
-0.50114
-0.539299
-0.574579
-0.606843
-0.635725
-0.660538
-0.680566
0.245006
0.164167
0.0854911
0.00926738
-0.0642635
-0.134923
-0.202573
-0.267126
-0.32853
-0.386771
-0.441872
-0.493886
-0.542879
-0.588921
-0.632051
-0.672242
-0.709336
-0.742992
-0.772666
-0.797996
0.167145
0.0815148
-0.00215073
-0.0835266
-0.162367
-0.238479
-0.311715
-0.38197
-0.449174
-0.513293
-0.574327
-0.632304
-0.68726
-0.739226
-0.788208
-0.834142
-0.876868
-0.916079
-0.951355
-0.982619
0.0131621
-0.0785816
-0.168535
-0.256331
-0.341717
-0.424484
-0.504468
-0.581545
-0.655624
-0.726646
-0.794587
-0.859445
-0.921224
-0.979924
-1.03551
-1.08791
-1.13697
-1.1824
-1.22389
-1.26161
-0.254637
-0.353772
-0.451246
-0.546642
-0.639706
-0.73021
-0.817971
-0.902846
-0.984721
-1.06351
-1.13917
-1.21166
-1.28097
-1.34705
-1.40985
-1.4693
-1.52524
-1.57741
-1.62557
-1.67016
-0.68487
-0.792515
-0.898565
-1.00256
-1.10424
-1.20336
-1.29973
-1.39317
-1.48356
-1.57079
-1.65477
-1.73546
-1.8128
-1.88674
-1.95721
-2.02414
-2.08738
-2.14664
-2.2018
-2.25348
-1.34037
-1.45738
-1.5728
-1.68612
-1.79709
-1.90546
-2.01101
-2.11356
-2.21294
-2.30904
-2.40175
-2.49099
-2.57669
-2.65879
-2.73721
-2.8119
-2.88269
-2.9493
-3.0116
-3.07043
-2.30523
-2.43212
-2.55734
-2.68038
-2.80102
-2.91897
-3.03402
-3.14594
-3.25456
-3.35975
-3.46136
-3.55932
-3.65353
-3.74394
-3.83047
-3.91307
-3.99161
-4.06575
-4.13526
-4.20112
-3.68049
-3.81732
-3.95233
-4.0851
-4.2154
-4.34295
-4.4675
-4.58881
-4.70669
-4.82096
-4.93148
-5.03817
-5.14093
-5.23971
-5.33443
-5.42508
-5.51157
-5.5935
-5.6704
-5.74317
-5.5419
-5.68802
-5.83207
-5.97388
-6.11324
-6.24985
-6.38341
-6.51363
-6.64028
-6.76315
-6.88212
-6.99707
-7.10794
-7.21468
-7.31724
-7.41557
-7.50967
-7.5994
-7.68418
-7.76372
-8.15315
-8.30568
-8.4563
-8.60539
-8.75248
-8.89705
-9.03863
-9.17683
-9.31136
-9.44199
-9.56856
-9.69098
-9.80923
-9.92329
-10.0331
-10.1386
-10.2402
-10.3391
-10.4358
-10.5259
-13.1854
-13.3349
-13.4876
-13.6411
-13.7935
-13.9437
-14.0909
-14.2346
-14.3746
-14.5105
-14.6423
-14.7699
-14.8935
-15.0133
-15.1294
-15.2421
-15.3532
-15.467
-15.5868
-15.6946
-15.7457
-10.6016
-7.83791
-5.81346
-4.26452
-3.1268
-2.30261
-1.71201
-1.29633
-1.01049
-0.819424
-0.696001
-0.619369
-0.573603
-0.546666
-0.529576
-0.515386
-0.497116
-0.467405
-0.432159
-15.8
-10.6695
-7.90558
-5.87711
-4.32226
-3.17802
-2.34694
-1.74929
-1.3266
-1.03393
-0.836344
-0.706796
-0.62448
-0.573484
-0.541768
-0.520386
-0.502658
-0.482763
-0.456262
-0.430449
-15.8597
-10.7341
-7.96961
-5.93737
-4.37697
-3.22642
-2.38858
-1.78396
-1.3543
-1.05483
-0.850732
-0.715092
-0.627225
-0.571345
-0.535572
-0.511177
-0.491826
-0.472575
-0.450896
-0.43378
-15.9218
-10.797
-8.03085
-5.99476
-4.42893
-3.27226
-2.42788
-1.81652
-1.38011
-1.07405
-0.863661
-0.722199
-0.629129
-0.568824
-0.529566
-0.502791
-0.482342
-0.463595
-0.444508
-0.431121
-15.9842
-10.8587
-8.09002
-6.04999
-4.47881
-3.31622
-2.46553
-1.84769
-1.40481
-1.09245
-0.876102
-0.729187
-0.631329
-0.567053
-0.524775
-0.496038
-0.474773
-0.456493
-0.43917
-0.427647
-16.046
-10.9193
-8.14759
-6.10356
-4.52713
-3.35882
-2.50209
-1.87806
-1.42903
-1.1107
-0.888761
-0.736765
-0.634493
-0.566594
-0.521579
-0.491049
-0.468963
-0.450873
-0.434649
-0.424063
-16.1071
-10.9788
-8.20394
-6.15589
-4.57435
-3.40053
-2.53801
-1.90809
-1.45322
-1.12928
-0.902077
-0.745324
-0.638922
-0.567623
-0.520004
-0.487691
-0.46463
-0.446372
-0.430655
-0.420325
-16.1674
-11.0376
-8.2594
-6.20736
-4.62083
-3.4417
-2.57365
-1.93813
-1.47773
-1.14847
-0.916287
-0.755024
-0.644688
-0.570111
-0.519922
-0.485753
-0.461525
-0.442772
-0.427104
-0.416541
-16.2272
-11.0957
-8.31425
-6.25824
-4.66688
-3.48262
-2.60928
-1.96841
-1.50275
-1.16842
-0.931489
-0.765897
-0.651747
-0.573946
-0.52116
-0.485022
-0.459427
-0.439897
-0.423925
-0.412789
-16.2866
-11.1534
-8.36873
-6.30879
-4.71273
-3.52352
-2.64509
-1.99911
-1.52841
-1.18922
-0.947709
-0.777912
-0.660019
-0.578999
-0.523555
-0.485321
-0.458172
-0.437624
-0.42107
-0.409117
-16.346
-11.211
-8.42307
-6.3592
-4.75857
-3.56457
-2.68124
-2.03034
-1.55478
-1.2109
-0.964935
-0.79102
-0.66942
-0.585162
-0.526985
-0.486531
-0.457662
-0.435892
-0.418531
-0.405584
-16.4055
-11.2686
-8.47748
-6.40967
-4.80456
-3.6059
-2.71782
-2.06216
-1.58191
-1.23346
-0.983155
-0.805185
-0.679895
-0.59237
-0.531386
-0.488596
-0.457861
-0.4347
-0.416344
-0.402276
-16.4655
-11.3265
-8.53213
-6.46032
-4.85082
-3.6476
-2.75491
-2.09464
-1.60983
-1.25694
-1.00237
-0.820396
-0.691426
-0.600604
-0.536745
-0.49152
-0.458794
-0.434098
-0.41459
-0.399315
-16.5264
-11.3849
-8.58717
-6.51127
-4.89743
-3.68975
-2.79257
-2.12781
-1.63857
-1.28134
-1.02259
-0.83666
-0.704024
-0.609883
-0.543094
-0.495352
-0.460533
-0.434176
-0.413376
-0.396818
-16.5885
-11.4439
-8.64274
-6.56262
-4.94447
-3.7324
-2.83084
-2.16172
-1.66816
-1.30669
-1.04384
-0.854005
-0.717725
-0.620256
-0.5505
-0.50018
-0.463182
-0.435048
-0.412804
-0.394732
-16.6521
-11.5036
-8.69891
-6.61446
-4.99201
-3.77562
-2.86976
-2.1964
-1.69863
-1.33303
-1.06616
-0.872478
-0.732585
-0.631795
-0.559058
-0.506128
-0.466909
-0.43696
-0.413262
-0.393894
-16.7182
-11.5644
-8.75575
-6.66682
-5.04008
-3.81941
-2.90937
-2.23188
-1.73003
-1.3604
-1.0896
-0.892138
-0.748676
-0.644586
-0.568867
-0.513309
-0.471839
-0.440023
-0.414802
-0.394132
-16.7895
-11.6268
-8.81315
-6.71947
-5.08847
-3.86366
-2.94959
-2.26812
-1.76234
-1.38881
-1.11419
-0.913031
-0.76606
-0.658706
-0.58002
-0.521828
-0.478079
-0.444347
-0.417531
-0.395526
-16.868
-11.6914
-8.87079
-6.77207
-5.13704
-3.90833
-2.99042
-2.30515
-1.79557
-1.41829
-1.13995
-0.935192
-0.784783
-0.674217
-0.592593
-0.531776
-0.48574
-0.450058
-0.421598
-0.398253
-16.9427
-11.7553
-8.92837
-6.82533
-5.18645
-3.954
-3.03235
-2.34335
-1.83006
-1.44908
-1.1671
-0.958804
-0.805008
-0.691263
-0.606722
-0.543287
-0.494952
-0.457294
-0.427155
-0.402485
-0.338724
-0.258349
-0.202533
-0.15701
-0.127378
-0.104154
-0.0868134
-0.0727459
-0.0612449
-0.0515906
-0.0434088
-0.0364289
-0.0304899
-0.0254484
-0.0211715
-0.0175307
-0.0144232
-0.0117919
-0.00959499
-0.00779294
-0.00633574
-0.00516482
-0.00421752
-0.00344166
-0.00279524
-0.00225052
-0.00179111
-0.00140533
-0.0010853