/*--------------------------------*- C++ -*----------------------------------*\
  =========                 |
  \\      /  F ield         | OpenFOAM: The Open Source CFD Toolbox
   \\    /   O peration     | Website:  https://openfoam.org
    \\  /    A nd           | Version:  6.0
     \\/     M anipulation  |
\*---------------------------------------------------------------------------*/
FoamFile
{
    version     2.0;
    format      ascii;
    class       surfaceScalarField;
    location    "1.7499";
    object      phi;
}
// * * * * * * * * * * * * * * * * * * * * * * * * * * * * * * * * * * * * * //

dimensions      [0 3 -1 0 0 0 0];

internalField   nonuniform List<scalar> 
38030
(
-3.3561e-05
-0.24291
0.242944
-2.96779e-05
-0.230603
0.230599
-1.36626e-06
-0.219061
0.219033
4.20696e-05
-0.208156
0.208113
9.58546e-05
-0.197826
0.197772
0.000155507
-0.187987
0.187928
0.000217245
-0.178584
0.178522
0.000278279
-0.169579
0.169518
0.000336693
-0.160951
0.160893
0.000391295
-0.152687
0.152633
0.000441464
-0.144778
0.144728
0.000487017
-0.137218
0.137172
0.000528102
-0.130002
0.129961
0.00056511
-0.123125
0.123088
0.000598611
-0.116582
0.116549
0.000629309
-0.110367
0.110336
0.000658009
-0.104471
0.104442
0.000685581
-0.098886
0.0988585
0.000712938
-0.0936026
0.0935753
0.000741
-0.0886099
0.0885818
0.000770668
-0.0838962
0.0838665
0.000802782
-0.0794494
0.0794172
0.000838096
-0.0752569
0.0752215
0.000877227
-0.0713058
0.0712667
0.000920637
-0.0675834
0.06754
0.000968587
-0.0640769
0.0640289
0.00102111
-0.0607742
0.0607216
0.001078
-0.0576636
0.0576067
0.00113875
-0.0547341
0.0546734
-0.0519753
0.0519114
0.00120265
-1.93919e-05
-0.242891
-1.37077e-05
-0.230608
1.51537e-05
-0.21909
5.94958e-05
-0.208201
0.000114224
-0.197881
0.000174941
-0.188048
0.000237861
-0.178647
0.000300115
-0.169641
0.000359748
-0.161011
0.000415554
-0.152743
0.000466918
-0.144829
0.00051367
-0.137265
0.00055597
-0.130044
0.000594219
-0.123163
0.000629
-0.116617
0.000661026
-0.110399
0.000691113
-0.104501
0.000720144
-0.0989151
0.000749046
-0.0936315
0.000778765
-0.0886396
0.000810224
-0.0839276
0.000844302
-0.0794834
0.000881785
-0.0752943
0.000923339
-0.0713474
0.00096947
-0.0676295
0.00102049
-0.0641279
0.00107648
-0.0608302
0.00113728
-0.0577244
0.00120245
-0.0547993
-0.0520441
0.00127129
-7.56098e-06
-0.242884
7.63457e-07
-0.230617
3.00006e-05
-0.219119
7.53717e-05
-0.208246
0.00013145
-0.197937
0.000193561
-0.18811
0.000257853
-0.178711
0.000321433
-0.169705
0.000382334
-0.161072
0.000439361
-0.1528
0.000491918
-0.144882
0.000539854
-0.137312
0.00058335
-0.130088
0.000622823
-0.123203
0.000658867
-0.116653
0.000692208
-0.110432
0.00072367
-0.104532
0.000754151
-0.0989456
0.000784594
-0.093662
0.000815966
-0.0886709
0.000849219
-0.0839609
0.000885264
-0.0795195
0.000924928
-0.075334
0.000968921
-0.0713914
0.0010178
-0.0676784
0.00107191
-0.064182
0.00113142
-0.0608897
0.00119618
-0.0577892
0.00126583
-0.0548689
-0.052118
0.00133972
-2.71234e-06
-0.242881
1.00147e-05
-0.230629
4.18372e-05
-0.219151
8.93183e-05
-0.208294
0.000147342
-0.197995
0.000211212
-0.188174
0.000277085
-0.178777
0.000342101
-0.16977
0.000404324
-0.161134
0.000462592
-0.152858
0.000516341
-0.144936
0.000565452
-0.137362
0.000610128
-0.130132
0.000650807
-0.123243
0.000688096
-0.11669
0.000722734
-0.110467
0.000755555
-0.104565
0.00078747
-0.0989775
0.000819442
-0.093694
0.000852455
-0.088704
0.000887493
-0.0839959
0.000925498
-0.0795575
0.000967341
-0.0753758
0.00101378
-0.0714378
0.00106541
-0.06773
0.00112265
-0.0642393
0.00118569
-0.0609527
0.00125448
-0.057858
0.00132867
-0.0549431
-0.052197
0.00140766
6.14818e-07
-0.242881
1.7164e-05
-0.230646
5.19388e-05
-0.219186
0.000101877
-0.208343
0.000162103
-0.198055
0.000227927
-0.18824
0.000295513
-0.178844
0.000362039
-0.169836
0.000425616
-0.161198
0.000485131
-0.152918
0.000540063
-0.144991
0.000590329
-0.137412
0.000636161
-0.130178
0.000678017
-0.123285
0.000716525
-0.116729
0.000752433
-0.110503
0.000786589
-0.104599
0.000819916
-0.0990108
0.000853392
-0.0937274
0.000888025
-0.0887386
0.000924826
-0.0840327
0.000964774
-0.0795974
0.00100878
-0.0754199
0.00105765
-0.0714867
0.00111203
-0.0677844
0.0011724
-0.0642996
0.001239
-0.0610193
0.00131182
-0.0579308
0.0013906
-0.0550219
-0.0522812
0.00147477
2.82917e-06
-0.242884
2.26461e-05
-0.230666
6.05124e-05
-0.219224
0.000113173
-0.208396
0.000175801
-0.198118
0.000243718
-0.188308
0.000313105
-0.178914
0.000381185
-0.169904
0.000446132
-0.161263
0.000506886
-0.152979
0.000562979
-0.145047
0.000614369
-0.137463
0.000661321
-0.130225
0.00070432
-0.123328
0.000744008
-0.116768
0.00078115
-0.11054
0.000816605
-0.104635
0.000851308
-0.0990455
0.000886253
-0.0937624
0.00092247
-0.0887748
0.000961
-0.0840712
0.00100286
-0.0796393
0.00104899
-0.075466
0.00110026
-0.0715379
0.00115738
-0.0678415
0.00122086
-0.0643631
0.00129101
-0.0610895
0.00136789
-0.0580077
0.00145126
-0.0551053
-0.0523705
0.00154064
4.56551e-06
-0.242889
2.7214e-05
-0.230688
6.80571e-05
-0.219264
0.000123493
-0.208452
0.000188592
-0.198183
0.000258649
-0.188378
0.000329875
-0.178985
0.000399512
-0.169974
0.000465812
-0.161329
0.000527776
-0.153041
0.00058499
-0.145104
0.000637458
-0.137516
0.000685484
-0.130273
0.000729576
-0.123372
0.000770396
-0.116809
0.000808722
-0.110578
0.000845426
-0.104671
0.000881456
-0.0990815
0.000917821
-0.0937987
0.000955571
-0.0888126
0.000995777
-0.0841114
0.00103949
-0.079683
0.00108771
-0.0755142
0.00114133
-0.0715916
0.00120113
-0.0679013
0.00126769
-0.0644297
0.00134136
-0.0611631
0.00142227
-0.0580886
0.00151025
-0.0551933
-0.0524651
0.00160485
5.985e-06
-0.242895
3.11518e-05
-0.230714
7.4829e-05
-0.219308
0.000133011
-0.20851
0.000200586
-0.19825
0.000272788
-0.18845
0.000345827
-0.179058
0.000417001
-0.170045
0.00048461
-0.161397
0.000547732
-0.153104
0.000606011
-0.145162
0.000659499
-0.137569
0.000708533
-0.130322
0.000753653
-0.123418
0.00079554
-0.116851
0.000834987
-0.110617
0.000872875
-0.104709
0.000910166
-0.0991188
0.000947883
-0.0938365
0.000987099
-0.0888518
0.00102891
-0.0841533
0.00107441
-0.0797285
0.00112463
-0.0755644
0.00118054
-0.0716475
0.00124296
-0.0679637
0.00131253
-0.0644992
0.00138968
-0.0612403
0.00147458
-0.0581735
0.00156712
-0.0552858
-0.0525649
0.00166691
7.21323e-06
-0.242902
3.46628e-05
-0.230741
8.10299e-05
-0.219355
0.000141887
-0.208571
0.000211892
-0.19832
0.00028619
-0.188524
0.000360981
-0.179133
0.000433633
-0.170118
0.000502489
-0.161465
0.000566697
-0.153168
0.000625965
-0.145221
0.00068039
-0.137624
0.000730354
-0.130372
0.000776422
-0.123464
0.000819294
-0.116894
0.000859779
-0.110658
0.000898771
-0.104748
0.000937239
-0.0991573
0.000976222
-0.0938754
0.00101681
-0.0888924
0.00106014
-0.0841966
0.00110732
-0.0797757
0.00115946
-0.0756166
0.00121756
-0.0717056
0.0012825
-0.0680287
0.00135499
-0.0645717
0.00143553
-0.0613208
0.00152435
-0.0582623
0.0016214
-0.0553828
-0.0526699
0.00172634
8.29967e-06
-0.24291
3.78637e-05
-0.230771
8.67848e-05
-0.219403
0.000150226
-0.208634
0.000222585
-0.198393
0.000298897
-0.188601
0.000375369
-0.179209
0.000449411
-0.170192
0.00051942
-0.161535
0.00058462
-0.153233
0.000644778
-0.145282
0.000700045
-0.137679
0.000750839
-0.130423
0.000797754
-0.123511
0.000841514
-0.116938
0.000882939
-0.110699
0.000922931
-0.104788
0.000962474
-0.0991968
0.00100262
-0.0939156
0.00104447
-0.0889342
0.00108919
-0.0842413
0.00113795
-0.0798244
0.00119187
-0.0756705
0.00125203
-0.0717657
0.00131937
-0.068096
0.00139467
-0.064647
0.00147849
-0.0614046
0.00157112
-0.0583549
0.00167258
-0.0554843
-0.0527799
0.0017826
9.28067e-06
-0.24292
4.08219e-05
-0.230802
9.21849e-05
-0.219455
0.000158112
-0.2087
0.000232731
-0.198467
0.000310962
-0.188679
0.000389011
-0.179287
0.000464323
-0.170267
0.000535379
-0.161606
0.000601456
-0.153299
0.000662387
-0.145342
0.00071838
-0.137735
0.000769885
-0.130474
0.000817532
-0.123558
0.00086206
-0.116982
0.000904303
-0.110742
0.000945177
-0.104829
0.000985667
-0.0992373
0.00102684
-0.0939568
0.00106982
-0.0889772
0.0011158
-0.0842873
0.00116597
-0.0798746
0.00122152
-0.075726
0.00128358
-0.0718278
0.00135317
-0.0681656
0.00143112
-0.064725
0.00151807
-0.0614916
0.00161439
-0.0584512
0.00172015
-0.0555901
-0.0528949
0.00183512
1.0176e-05
-0.24293
4.35813e-05
-0.230836
9.72938e-05
-0.219509
0.000165614
-0.208768
0.000242392
-0.198544
0.000322426
-0.188759
0.000401916
-0.179367
0.000478364
-0.170344
0.000550337
-0.161678
0.000617161
-0.153366
0.000678735
-0.145404
0.000735316
-0.137791
0.000787399
-0.130526
0.000835638
-0.123606
0.000880796
-0.117028
0.000923719
-0.110785
0.000965326
-0.104871
0.00100662
-0.0992786
0.00104866
-0.0939988
0.00109261
-0.0890212
0.00113966
-0.0843343
0.00119107
-0.079926
0.00124807
-0.075783
0.00131184
-0.0718916
0.00138348
-0.0682372
0.0014639
-0.0648054
0.0015538
-0.0615815
0.00165363
-0.0585511
0.00176352
-0.0557
-0.0530147
0.00188332
1.09909e-05
-0.242941
4.6178e-05
-0.230871
0.000102159
-0.219564
0.000172785
-0.208839
0.000251605
-0.198623
0.00033331
-0.188841
0.000414099
-0.179448
0.000491546
-0.170421
0.000564288
-0.161751
0.000631707
-0.153433
0.000693772
-0.145466
0.000750788
-0.137848
0.000803293
-0.130579
0.000851967
-0.123655
0.000897595
-0.117073
0.000941032
-0.110828
0.000983209
-0.104913
0.00102512
-0.0993205
0.00106786
-0.0940415
0.00111258
-0.0890659
0.00116051
-0.0843823
0.00121294
-0.0799784
0.00127115
-0.0758413
0.00133641
-0.0719568
0.00140986
-0.0683107
0.00149251
-0.0648881
0.00158515
-0.0616741
0.00168828
-0.0586542
0.00180212
-0.0558138
-0.0531391
0.00192656
1.17316e-05
-0.242952
4.86293e-05
-0.230908
0.000106823
-0.219623
0.000179671
-0.208912
0.000260419
-0.198704
0.000343652
-0.188924
0.000425592
-0.17953
0.000503878
-0.170499
0.000577215
-0.161825
0.000645071
-0.153501
0.000707456
-0.145528
0.000764737
-0.137906
0.000817489
-0.130632
0.000866423
-0.123704
0.000912338
-0.117119
0.000956106
-0.110872
0.000998657
-0.104956
0.001041
-0.0993629
0.00108421
-0.0940848
0.00112948
-0.0891111
0.00117805
-0.0844308
0.00123124
-0.0800316
0.0012904
-0.0759004
0.00135686
-0.0720233
0.00143185
-0.0683857
0.00151646
-0.0649727
0.00161155
-0.0617692
0.00171774
-0.0587604
0.00183529
-0.0559314
-0.053268
0.00196416
1.23968e-05
-0.242965
5.096e-05
-0.230946
0.000111328
-0.219683
0.000186321
-0.208987
0.000268881
-0.198786
0.000353497
-0.189009
0.00043642
-0.179612
0.000515364
-0.170578
0.00058911
-0.161898
0.000657234
-0.153569
0.000719758
-0.145591
0.000777118
-0.137963
0.000829924
-0.130684
0.000878919
-0.123753
0.000924921
-0.117165
0.000968808
-0.110916
0.00101152
-0.104998
0.00105406
-0.0994054
0.00109751
-0.0941282
0.00114306
-0.0891567
0.00119199
-0.0844798
0.00124565
-0.0800853
0.00130545
-0.0759602
0.00137279
-0.0720906
0.00144898
-0.0684619
0.00153521
-0.0650589
0.00163245
-0.0618665
0.00174137
-0.0588693
0.00186236
-0.0560523
-0.053401
0.00199541
1.29874e-05
-0.242978
5.3195e-05
-0.230986
0.00011572
-0.219746
0.000192793
-0.209064
0.000277039
-0.19887
0.000362881
-0.189094
0.000446612
-0.179696
0.000526027
-0.170658
0.000600009
-0.161972
0.000668183
-0.153638
0.000730661
-0.145654
0.000787894
-0.13802
0.000840549
-0.130737
0.00088939
-0.123802
0.000935254
-0.117211
0.000979031
-0.110959
0.00102166
-0.105041
0.00106413
-0.0994479
0.00110755
-0.0941716
0.00115309
-0.0892022
0.00120206
-0.0845287
0.00125585
-0.0801391
0.00131592
-0.0760203
0.00138375
-0.0721584
0.00146075
-0.0685389
0.00154822
-0.0651464
0.00164721
-0.0619654
0.00175852
-0.0589806
0.00188259
-0.0561764
-0.0535379
0.00201951
1.35002e-05
-0.242991
5.53642e-05
-0.231028
0.000120061
-0.21981
0.00019915
-0.209143
0.000284956
-0.198956
0.000371856
-0.189181
0.000456212
-0.179781
0.000535911
-0.170738
0.000609923
-0.162046
0.000677937
-0.153706
0.000740161
-0.145716
0.000797055
-0.138077
0.000849331
-0.130789
0.000897785
-0.12385
0.00094327
-0.117256
0.000986681
-0.111003
0.00102895
-0.105083
0.00107108
-0.09949
0.00111416
-0.0942147
0.00115936
-0.0892474
0.00120802
-0.0845774
0.00126154
-0.0801926
0.00132147
-0.0760802
0.00138934
-0.0722263
0.00146669
-0.0686162
0.0015549
-0.0652346
0.00165518
-0.0620657
0.00176841
-0.0590939
0.00189516
-0.0563032
-0.0536784
0.00203557
1.39382e-05
-0.243005
5.75127e-05
-0.231072
0.000124421
-0.219877
0.000205476
-0.209224
0.000292708
-0.199043
0.000380493
-0.189269
0.000465281
-0.179865
0.000545058
-0.170817
0.000618882
-0.16212
0.000686535
-0.153773
0.000748264
-0.145777
0.000804599
-0.138134
0.00085626
-0.130841
0.000904078
-0.123898
0.000948923
-0.117301
0.000991693
-0.111046
0.00103333
-0.105125
0.00107481
-0.0995315
0.00111721
-0.0942571
0.00116171
-0.0892919
0.00120964
-0.0846253
0.00126246
-0.0802454
0.00132174
-0.0761395
0.00138913
-0.0722937
0.00146625
-0.0686933
0.00155464
-0.065323
0.00165563
-0.0621667
0.00177025
-0.0592085
0.00189917
-0.0564321
-0.0538218
0.00204262
1.4316e-05
-0.24302
5.97128e-05
-0.231117
0.000128907
-0.219946
0.00021187
-0.209307
0.000300386
-0.199132
0.000388869
-0.189358
0.000473885
-0.17995
0.000553532
-0.170897
0.000626955
-0.162194
0.000694013
-0.15384
0.000755008
-0.145838
0.000810549
-0.138189
0.000861348
-0.130892
0.000908269
-0.123945
0.000952205
-0.117345
0.000994058
-0.111087
0.00103475
-0.105165
0.00107525
-0.099572
0.0011166
-0.0942985
0.00115999
-0.0893353
0.00120673
-0.084672
0.00125832
-0.080297
0.00131638
-0.0761976
0.00138265
-0.07236
0.0014589
-0.0687696
0.00154679
-0.0654109
0.00164782
-0.0622677
0.00176318
-0.0593238
0.00189366
-0.0565626
-0.0539678
0.00203961
1.46567e-05
-0.243034
6.20623e-05
-0.231165
0.000133649
-0.220018
0.000218462
-0.209392
0.000308103
-0.199222
0.000397085
-0.189447
0.000482116
-0.180035
0.000561409
-0.170976
0.000634202
-0.162266
0.000700427
-0.153906
0.000760461
-0.145898
0.000814938
-0.138244
0.000864638
-0.130942
0.000910412
-0.123991
0.000953165
-0.117388
0.000993799
-0.111128
0.00103321
-0.105205
0.00107235
-0.0996111
0.00111225
-0.0943384
0.00115406
-0.0893771
0.00119911
-0.0847171
0.00124889
-0.0803468
0.0013051
-0.0762538
0.00136956
-0.0724244
0.00144418
-0.0688442
0.00153078
-0.0654975
0.00163103
-0.062368
0.00174632
-0.0594391
0.0018776
-0.0566939
-0.0541155
0.00202534
1.5018e-05
-0.243049
6.47135e-05
-0.231214
0.000138821
-0.220092
0.000225412
-0.209478
0.000315997
-0.199312
0.000405261
-0.189536
0.000490077
-0.18012
0.000568783
-0.171055
0.000640713
-0.162338
0.000705872
-0.153972
0.000764695
-0.145957
0.000817859
-0.138297
0.000866203
-0.13099
0.000910578
-0.124035
0.000951856
-0.117429
0.00099094
-0.111167
0.00102873
-0.105243
0.00106613
-0.0996485
0.00110416
-0.0943764
0.00114393
-0.0894169
0.00118673
-0.0847599
0.00123409
-0.0803942
0.00128773
-0.0763074
0.00134958
-0.0724863
0.00142167
-0.0689163
0.00150602
-0.0655818
0.00160451
-0.0624665
0.00171874
-0.0595533
0.00184986
-0.056825
-0.0542641
0.0019985
1.55066e-05
-0.243065
6.78794e-05
-0.231267
0.000144655
-0.220169
0.000232919
-0.209567
0.000324234
-0.199403
0.000413536
-0.189625
0.000497888
-0.180205
0.00057576
-0.171133
0.000646584
-0.162409
0.000710436
-0.154035
0.000767804
-0.146015
0.000819424
-0.138348
0.000866138
-0.131037
0.000908823
-0.124078
0.000948345
-0.117469
0.000985577
-0.111204
0.0010214
-0.105279
0.00105671
-0.0996838
0.00109244
-0.0944121
0.00112968
-0.0894541
0.00116967
-0.0847999
0.00121393
-0.0804384
0.00126421
-0.0763577
0.00132252
-0.0725446
0.00139104
-0.0689848
0.00147201
-0.0656628
0.00156754
-0.062562
0.00167948
-0.0596653
0.00180925
-0.0569548
-0.0544125
0.00195765
1.63274e-05
-0.243081
7.18941e-05
-0.231322
0.000151465
-0.220248
0.000241237
-0.209656
0.000333014
-0.199495
0.00042207
-0.189714
0.000505683
-0.180288
0.000582455
-0.17121
0.000651915
-0.162479
0.000714213
-0.154098
0.000769892
-0.14607
0.000819718
-0.138398
0.000864554
-0.131081
0.000905284
-0.124119
0.000942792
-0.117506
0.000977895
-0.111239
0.00101145
-0.105312
0.0010443
-0.0997167
0.00107732
-0.0944451
0.00111154
-0.0894884
0.00114814
-0.0848365
0.00118857
-0.0804788
0.00123462
-0.0764037
0.00128836
-0.0725983
0.00135213
-0.0690486
0.00142838
-0.065739
0.0015195
-0.0626531
0.00162764
-0.0597734
0.00175455
-0.0570817
-0.0545593
0.0019013
1.78416e-05
-0.243099
7.72712e-05
-0.231382
0.000159677
-0.220331
0.00025068
-0.209747
0.000342568
-0.199587
0.000431037
-0.189803
0.000513594
-0.180371
0.000588976
-0.171285
0.000656804
-0.162546
0.0007173
-0.154158
0.000771055
-0.146124
0.000818863
-0.138446
0.000861602
-0.131124
0.000900167
-0.124157
0.000935407
-0.117541
0.000968144
-0.111272
0.000999141
-0.105343
0.0010292
-0.0997468
0.00105914
-0.0944751
0.00108987
-0.0895191
0.00112249
-0.0848691
0.00115838
-0.0805147
0.00119928
-0.0764446
0.00124732
-0.0726464
0.00130497
-0.0691062
0.00137494
-0.065809
0.00145991
-0.0627381
0.0015624
-0.0598759
0.00168451
-0.0572038
-0.0547024
0.00182766
2.06946e-05
-0.24312
8.47563e-05
-0.231446
0.000169804
-0.220416
0.000261576
-0.209839
0.000353117
-0.199679
0.0004406
-0.18989
0.000521752
-0.180452
0.000595432
-0.171359
0.000661352
-0.162612
0.0007198
-0.154217
0.000771411
-0.146176
0.000817001
-0.138492
0.000857456
-0.131165
0.00089366
-0.124193
0.000926443
-0.117574
0.000956595
-0.111302
0.000984829
-0.105371
0.00101184
-0.0997738
0.00103838
-0.0945016
0.00106522
-0.0895459
0.00109334
-0.0848972
0.00112399
-0.0805454
0.00115881
-0.0764795
0.00119995
-0.0726875
0.00124998
-0.0691563
0.00131184
-0.0658709
0.00138858
-0.0628149
0.00148309
-0.0599704
0.00159785
-0.0573185
-0.0548393
0.00173477
2.58399e-05
-0.243146
9.5203e-05
-0.231515
0.000182319
-0.220503
0.000274214
-0.209931
0.000364884
-0.199769
0.000450925
-0.189976
0.000530278
-0.180531
0.00060192
-0.17143
0.000665646
-0.162676
0.000721804
-0.154273
0.00077107
-0.146225
0.000814272
-0.138535
0.00085229
-0.131203
0.000885989
-0.124227
0.000916182
-0.117604
0.000943602
-0.11133
0.000968922
-0.105397
0.000992741
-0.0997976
0.00101566
-0.0945245
0.00103833
-0.0895686
0.00106156
-0.0849204
0.00108638
-0.0805702
0.00111429
-0.0765074
0.00114732
-0.0727205
0.0011881
-0.069197
0.0012398
-0.0659225
0.00130583
-0.0628809
0.00138952
-0.0600541
0.00149388
-0.0574229
-0.054967
0.00162154
3.44195e-05
-0.24318
0.00010943
-0.23159
0.00019775
-0.220591
0.00028899
-0.210022
0.000378143
-0.199858
0.000462186
-0.19006
0.000539267
-0.180608
0.000608491
-0.1715
0.000669726
-0.162737
0.000723368
-0.154327
0.00077011
-0.146272
0.000810789
-0.138575
0.000846271
-0.131238
0.000877393
-0.124258
0.000904929
-0.117632
0.000929573
-0.111354
0.00095192
-0.105419
0.0009725
-0.0998182
0.000991764
-0.0945438
0.00101018
-0.089587
0.00102832
-0.0849386
0.00104697
-0.0805889
0.00106733
-0.0765277
0.0010912
-0.0727444
0.00112115
-0.069227
0.0011605
-0.0659619
0.00121304
-0.0629334
0.00128262
-0.0601237
0.00137307
-0.0575133
-0.0550821
0.00148819
4.81335e-05
-0.243228
0.000129359
-0.231671
0.000217598
-0.22068
0.000306748
-0.210111
0.00039326
-0.199945
0.000474469
-0.190141
0.000548684
-0.180682
0.000615072
-0.171566
0.000673526
-0.162796
0.000724447
-0.154377
0.000768532
-0.146316
0.000806604
-0.138614
0.00083951
-0.131271
0.000868054
-0.124287
0.000892967
-0.117657
0.000914889
-0.111376
0.00093436
-0.105438
0.000951804
-0.0998356
0.000967563
-0.0945596
0.000981893
-0.0896014
0.000995087
-0.0849518
0.00100757
-0.0806013
0.00102013
-0.0765403
0.00103413
-0.0727584
0.00105184
-0.0692447
0.00107658
-0.0659866
0.00111248
-0.0629693
0.00116367
-0.0601749
0.00123452
-0.0575842
-0.0551777
0.0013301
7.33008e-05
-0.243301
0.000160991
-0.231759
0.000244791
-0.220763
0.000328328
-0.210195
0.000410182
-0.200027
0.000487481
-0.190219
0.000558216
-0.180753
0.000621396
-0.171629
0.000676835
-0.162851
0.000724894
-0.154426
0.000766242
-0.146357
0.000801681
-0.138649
0.000832032
-0.131301
0.00085807
-0.124313
0.000880484
-0.117679
0.000899866
-0.111396
0.000916694
-0.105455
0.00093132
-0.0998502
0.000943954
-0.0945722
0.000954689
-0.0896121
0.000963508
-0.0849606
0.000970412
-0.0806082
0.000975571
-0.0765455
0.000979637
-0.0727625
0.000984132
-0.0692492
0.000991886
-0.0659944
0.00100683
-0.0629843
0.00103252
-0.0602006
0.00107269
-0.0576244
-0.0552381
0.00113306
0.000130755
-0.243432
0.000210517
-0.231839
0.000278951
-0.220832
0.000352337
-0.210268
0.00042779
-0.200102
0.000500483
-0.190291
0.000567408
-0.18082
0.000627189
-0.171689
0.00067949
-0.162903
0.000724611
-0.154471
0.000763194
-0.146396
0.000796017
-0.138682
0.000823879
-0.131329
0.000847533
-0.124336
0.000867637
-0.117699
0.00088475
-0.111413
0.000899309
-0.10547
0.000911608
-0.0998625
0.00092179
-0.0945824
0.000929806
-0.0896201
0.000935409
-0.0849662
0.000938194
-0.080611
0.000937653
-0.0765449
0.000933438
-0.0727583
0.000925774
-0.0692415
0.000916033
-0.0659846
0.000906723
-0.062975
0.000898501
-0.0601923
0.000886862
-0.0576127
-0.055254
0.00090283
0.244029
8.45009e-05
-0.244113
0.243977
5.1433e-05
0.24394
3.75151e-05
0.243909
3.03643e-05
0.243883
2.62181e-05
0.243859
2.4067e-05
0.243836
2.32291e-05
0.243813
2.31411e-05
0.243789
2.34142e-05
0.243765
2.38349e-05
0.243741
2.428e-05
0.243716
2.46817e-05
0.243691
2.50094e-05
0.243666
2.52419e-05
0.243641
2.53731e-05
0.243615
2.53958e-05
0.24359
2.53094e-05
0.243565
2.511e-05
0.24354
2.47858e-05
0.243516
2.43285e-05
0.243492
2.37153e-05
0.243469
2.29123e-05
0.243447
2.18528e-05
0.243427
2.04448e-05
0.243408
1.848e-05
0.243393
1.56768e-05
0.243382
1.09639e-05
0.243378
3.65822e-06
0.243394
-1.5478e-05
-3.85844e-05
0.233268
0.000128261
-0.233311
0.233216
0.000102938
0.233165
8.81234e-05
0.233116
8.01356e-05
0.233067
7.53887e-05
0.233018
7.27351e-05
0.232969
7.16862e-05
0.232921
7.1736e-05
0.232872
7.24412e-05
0.232822
7.34866e-05
0.232772
7.46781e-05
0.232721
7.5884e-05
0.232669
7.70065e-05
0.232616
7.79863e-05
0.232562
7.87748e-05
0.232508
7.93363e-05
0.232454
7.96445e-05
0.2324
7.96738e-05
0.232345
7.93893e-05
0.232291
7.87571e-05
0.232237
7.77205e-05
0.232183
7.62055e-05
0.232131
7.40804e-05
0.23208
7.11548e-05
0.232032
6.70757e-05
0.231986
6.13564e-05
0.231944
5.2718e-05
0.231907
4.04328e-05
0.231873
1.92003e-05
-4.64357e-06
0.222574
0.000146288
-0.222592
0.222542
0.000134401
0.222504
0.000126428
0.222461
0.000122595
0.222416
0.000121142
0.222367
0.000121158
0.222317
0.000122325
0.222264
0.000124353
0.222209
0.000126936
0.222153
0.000129812
0.222095
0.00013279
0.222035
0.000135724
0.221974
0.000138505
0.221911
0.000141044
0.221846
0.000143271
0.22178
0.000145129
0.221713
0.000146565
0.221646
0.000147537
0.221577
0.000147987
0.221508
0.000147859
0.221438
0.000147077
0.221369
0.000145534
0.2213
0.000143075
0.221232
0.000139485
0.221165
0.000134409
0.221098
0.000127419
0.221034
0.000117653
0.220969
0.000104768
0.220902
8.65757e-05
6.53758e-05
0.211986
0.000147367
-0.211987
0.211973
0.000146483
0.211953
0.00014674
0.211927
0.000148956
0.211895
0.000152616
0.211859
0.00015719
0.211819
0.000162431
0.211775
0.000168155
0.211728
0.000174155
0.211678
0.000180236
0.211624
0.000186233
0.211568
0.000192017
0.211509
0.000197479
0.211448
0.000202528
0.211384
0.000207091
0.211318
0.000211096
0.21125
0.000214487
0.21118
0.0002172
0.211109
0.000219178
0.211036
0.00022035
0.210963
0.000220631
0.210889
0.000219915
0.210814
0.000218052
0.210738
0.000214854
0.210663
0.000210045
0.210587
0.000203325
0.21051
0.000194194
0.210432
0.000182445
0.210352
0.000167123
0.000148888
0.201615
0.000132623
-0.201601
0.201621
0.000140745
0.201619
0.000148923
0.20161
0.000157807
0.201595
0.000167393
0.201575
0.000177444
0.20155
0.00018777
0.20152
0.000198226
0.201485
0.00020866
0.201446
0.000218915
0.201404
0.00022886
0.201357
0.000238374
0.201308
0.000247359
0.201254
0.000255723
0.201198
0.00026339
0.201139
0.000270294
0.201077
0.000276366
0.201013
0.000281545
0.200946
0.000285769
0.200877
0.000288968
0.200807
0.000291063
0.200735
0.000291958
0.200661
0.000291533
0.200587
0.00028964
0.200511
0.000286093
0.200433
0.000280689
0.200354
0.000273155
0.200273
0.000263351
0.20019
0.000250919
0.000236159
0.191523
0.000103383
-0.191494
0.191545
0.000119404
0.191559
0.000135045
0.191566
0.000150712
0.191567
0.000166542
0.191562
0.000182455
0.191551
0.000198318
0.191535
0.000214008
0.191514
0.000229406
0.191489
0.000244385
0.191459
0.000258826
0.191425
0.00027262
0.191386
0.000285673
0.191344
0.000297895
0.191299
0.000309208
0.191249
0.000319543
0.191197
0.000328835
0.191141
0.00033702
0.191083
0.000344039
0.191022
0.000349827
0.190959
0.000354317
0.190893
0.000357433
0.190826
0.000359086
0.190756
0.000359174
0.190685
0.00035758
0.190611
0.000354187
0.190536
0.000348859
0.190457
0.000341547
0.190376
0.000332172
0.00032096
0.181757
6.20735e-05
-0.181716
0.181791
8.53333e-05
0.181818
0.000108013
0.181839
0.000130328
0.181853
0.000152424
0.181861
0.000174287
0.181863
0.000195827
0.18186
0.000216943
0.181852
0.000237529
0.181839
0.000257475
0.181821
0.000276676
0.181799
0.000295031
0.181772
0.000312442
0.181741
0.00032882
0.181706
0.00034409
0.181668
0.000358176
0.181626
0.000371017
0.18158
0.000382547
0.181531
0.000392714
0.18148
0.000401459
0.181425
0.000408731
0.181368
0.000414473
0.181309
0.000418628
0.181247
0.000421137
0.181182
0.000421938
0.181116
0.000420984
0.181046
0.000418231
0.180974
0.000413699
0.180899
0.000407436
0.00039963
0.172352
1.14766e-05
-0.172301
0.172396
4.14893e-05
0.172433
7.08001e-05
0.172464
9.95124e-05
0.172488
0.000127735
0.172507
0.000155477
0.17252
0.000182668
0.172528
0.000209219
0.17253
0.000235034
0.172528
0.000260006
0.172521
0.000284045
0.172508
0.000307055
0.172492
0.000328932
0.172471
0.000349587
0.172446
0.000368946
0.172418
0.00038693
0.172385
0.000403476
0.172349
0.000418522
0.17231
0.000432017
0.172267
0.000443917
0.172222
0.000454178
0.172174
0.000462769
0.172123
0.000469656
0.172069
0.000474822
0.172013
0.000478254
0.171954
0.000479951
0.171892
0.00047994
0.171827
0.000478286
0.17176
0.000475092
0.000470523
0.163329
-4.58477e-05
-0.163272
0.16338
-9.49425e-06
0.163425
2.60747e-05
0.163463
6.08912e-05
0.163496
9.50311e-05
0.163523
0.000128492
0.163544
0.000161213
0.163561
0.000193108
0.163572
0.000224089
0.163577
0.000254056
0.163579
0.000282899
0.163575
0.000310536
0.163567
0.000336871
0.163555
0.000361807
0.163539
0.000385272
0.163518
0.000407178
0.163494
0.000427462
0.163467
0.00044607
0.163436
0.000462949
0.163402
0.000478064
0.163365
0.000491385
0.163324
0.000502899
0.163282
0.000512601
0.163236
0.000520504
0.163187
0.000526634
0.163136
0.000531036
0.163083
0.000533783
0.163026
0.000534973
0.162966
0.000534747
0.000533252
0.1547
-0.000107817
-0.154638
0.154756
-6.54806e-05
0.154806
-2.39872e-05
0.15485
1.66504e-05
0.154889
5.64716e-05
0.154922
9.5459e-05
0.154949
0.000133547
0.154972
0.000170651
0.154989
0.000206677
0.155002
0.000241526
0.15501
0.000275104
0.155013
0.000307303
0.155012
0.000338027
0.155006
0.00036718
0.154997
0.000394686
0.154984
0.000420467
0.154967
0.000444445
0.154946
0.000466577
0.154922
0.000486808
0.154895
0.00050511
0.154865
0.000521465
0.154832
0.000535876
0.154796
0.000548361
0.154758
0.000558964
0.154717
0.000567745
0.154673
0.00057479
0.154627
0.000580206
0.154577
0.000584127
0.154525
0.000586717
0.000588114
0.146467
-0.0001729
-0.146402
0.146526
-0.00012488
0.14658
-7.77476e-05
0.146628
-3.15471e-05
0.146671
1.3731e-05
0.146709
5.80501e-05
0.146741
0.000101336
0.146768
0.000143496
0.14679
0.000184434
0.146808
0.000224056
0.14682
0.000262253
0.146829
0.000298909
0.146833
0.000333929
0.146833
0.000367226
0.146829
0.0003987
0.146821
0.000428271
0.14681
0.000455864
0.146795
0.000481422
0.146777
0.00050492
0.146755
0.000526327
0.146731
0.000545627
0.146704
0.00056284
0.146675
0.000578006
0.146642
0.000591196
0.146608
0.000602502
0.14657
0.000612046
0.146531
0.000619977
0.146488
0.000626454
0.146443
0.000631673
0.000635769
0.138628
-0.000240087
-0.138561
0.13869
-0.000186624
0.138746
-0.000134086
0.138797
-8.25381e-05
0.138843
-3.19971e-05
0.138883
1.74827e-05
0.138919
6.58135e-05
0.138949
0.000112894
0.138975
0.000158624
0.138996
0.0002029
0.139013
0.000245605
0.139025
0.000286625
0.139033
0.000325861
0.139037
0.000363207
0.139038
0.000398556
0.139034
0.000431831
0.139027
0.00046296
0.139016
0.000491876
0.139003
0.00051852
0.138986
0.000542901
0.138967
0.00056503
0.138945
0.000584911
0.13892
0.000602612
0.138893
0.000618225
0.138864
0.000631878
0.138832
0.00064373
0.138798
0.000653969
0.138762
0.000662793
0.138723
0.000670429
0.000677023
0.131177
-0.000308814
-0.131108
0.13124
-0.000250091
0.131299
-0.000192321
0.131352
-0.000135589
0.1314
-7.9932e-05
0.131443
-2.54252e-05
0.131481
2.78305e-05
0.131514
7.97251e-05
0.131542
0.000130149
0.131566
0.000178987
0.131586
0.000226122
0.131601
0.000271429
0.131612
0.0003148
0.131619
0.00035612
0.131622
0.000395278
0.131622
0.00043219
0.131618
0.00046677
0.131611
0.00049894
0.131601
0.000528668
0.131588
0.000555924
0.131572
0.000580717
0.131554
0.000603113
0.131533
0.00062318
0.131511
0.000641026
0.131486
0.000656815
0.131459
0.000670747
0.13143
0.000683056
0.131398
0.000693988
0.131365
0.000703814
0.000712701
0.124107
-0.000378865
-0.124037
0.124172
-0.000314999
0.124231
-0.00025211
0.124286
-0.000190299
0.124336
-0.000129621
0.124381
-7.01732e-05
0.12442
-1.20677e-05
0.124456
4.45757e-05
0.124486
9.96337e-05
0.124512
0.000152985
0.124534
0.000204499
0.124551
0.000254047
0.124564
0.000301509
0.124574
0.000346757
0.124579
0.000389679
0.124581
0.000430172
0.12458
0.000468142
0.124575
0.000503514
0.124568
0.000536227
0.124558
0.000566263
0.124545
0.000593633
0.124529
0.000618376
0.124512
0.00064061
0.124493
0.000660485
0.124471
0.000678178
0.124448
0.000693938
0.124423
0.000708056
0.124396
0.000720834
0.124367
0.000732605
0.000743577
0.117409
-0.00045026
-0.117337
0.117475
-0.000381305
0.117536
-0.000313349
0.117593
-0.000246503
0.117644
-0.000180845
0.11769
-0.000116485
0.117732
-5.35548e-05
0.117768
7.81803e-06
0.117801
6.74993e-05
0.117828
0.000125353
0.117851
0.000181241
0.11787
0.000235025
0.117885
0.000286569
0.117896
0.000335739
0.117904
0.000382409
0.117907
0.000426463
0.117908
0.000467793
0.117905
0.000506317
0.117899
0.000541968
0.117891
0.000574705
0.11788
0.000604531
0.117867
0.000631512
0.117852
0.000655748
0.117835
0.000677411
0.117816
0.000696754
0.117796
0.000714068
0.117774
0.000729704