/*--------------------------------*- C++ -*----------------------------------*\
  =========                 |
  \\      /  F ield         | OpenFOAM: The Open Source CFD Toolbox
   \\    /   O peration     | Website:  https://openfoam.org
    \\  /    A nd           | Version:  6.0
     \\/     M anipulation  |
\*---------------------------------------------------------------------------*/
FoamFile
{
    version     2.0;
    format      ascii;
    class       volVectorField;
    location    "1.001";
    object      U;
}
// * * * * * * * * * * * * * * * * * * * * * * * * * * * * * * * * * * * * * //

dimensions      [0 1 -1 0 0 0 0];

internalField   nonuniform List<vector> 
19200
(
(0.0996859 -4.83877 -5.75278e-21)
(0.0595422 -4.55303 2.8557e-21)
(0.0576267 -4.29408 1.28022e-21)
(0.0602425 -4.05872 1.09859e-21)
(0.0619438 -3.84365 1.16845e-21)
(0.0648086 -3.64587 7.91132e-23)
(0.0688506 -3.46285 1.57343e-21)
(0.0737066 -3.29253 -9.18034e-23)
(0.0791805 -3.13318 1.29476e-21)
(0.0851273 -2.98343 5.26324e-22)
(0.0914205 -2.84215 2.96169e-23)
(0.097959 -2.7084 7.87466e-22)
(0.104666 -2.58143 1.20137e-21)
(0.111485 -2.46061 -7.8767e-22)
(0.118377 -2.34541 9.81775e-22)
(0.125315 -2.23538 7.99342e-22)
(0.132283 -2.13014 -7.39664e-22)
(0.139274 -2.02936 1.21131e-21)
(0.146285 -1.93275 -7.54005e-22)
(0.153317 -1.84003 3.74588e-22)
(0.160371 -1.75099 4.97419e-22)
(0.167452 -1.66541 -1.5303e-22)
(0.17456 -1.58314 2.06359e-22)
(0.181697 -1.50405 -2.29487e-22)
(0.188861 -1.42804 -7.38108e-24)
(0.196049 -1.355 1.12622e-22)
(0.203251 -1.28478 -7.52166e-23)
(0.210477 -1.21726 4.69564e-23)
(0.21776 -1.15234 1.03662e-22)
(0.224986 -1.08995 4.21444e-22)
(0.226504 -4.83435 -1.24927e-21)
(0.179184 -4.55101 8.6203e-21)
(0.170656 -4.29357 -4.51645e-21)
(0.16732 -4.05954 -5.85274e-21)
(0.163659 -3.84575 -2.49787e-21)
(0.161639 -3.6491 -1.73667e-21)
(0.161188 -3.46707 -3.66279e-21)
(0.161876 -3.29758 4.90271e-22)
(0.163455 -3.13894 -7.9529e-22)
(0.165738 -2.98978 -2.58349e-21)
(0.168566 -2.84899 -5.97193e-21)
(0.171815 -2.71566 2.8105e-21)
(0.175388 -2.58904 -1.01652e-21)
(0.179213 -2.46852 3.84793e-22)
(0.18324 -2.35359 -2.17219e-21)
(0.187433 -2.24382 -7.53397e-22)
(0.191768 -2.13882 9.59655e-23)
(0.19623 -2.03827 2.42928e-21)
(0.200812 -1.94189 -1.30223e-21)
(0.20551 -1.84941 -7.06777e-22)
(0.210321 -1.76061 -2.56067e-21)
(0.215246 -1.67527 6.48378e-22)
(0.220281 -1.59325 -3.90598e-22)
(0.225426 -1.5144 6.69652e-22)
(0.230676 -1.43864 -2.93959e-22)
(0.236025 -1.36583 -4.50568e-22)
(0.241463 -1.29584 1.51841e-22)
(0.246998 -1.22854 2.16146e-22)
(0.252676 -1.16382 -3.93092e-22)
(0.258349 -1.10161 1.96211e-22)
(0.3529 -4.82692 -5.89623e-22)
(0.298481 -4.54605 1.92484e-21)
(0.283543 -4.29026 2.97166e-21)
(0.274415 -4.05774 2.03885e-20)
(0.265505 -3.84538 -1.1284e-20)
(0.258687 -3.65001 1.03762e-20)
(0.253812 -3.46908 6.18605e-21)
(0.250387 -3.30054 4.50534e-21)
(0.248114 -3.1427 -4.12947e-21)
(0.246767 -2.99422 -2.85073e-22)
(0.246158 -2.854 9.80222e-21)
(0.24614 -2.72115 1.50812e-21)
(0.246596 -2.59494 -4.18869e-21)
(0.247444 -2.47479 3.29003e-21)
(0.24862 -2.3602 2.75411e-23)
(0.25008 -2.25073 1.29494e-21)
(0.251794 -2.14603 9.25791e-22)
(0.253741 -2.04577 2.88263e-21)
(0.255909 -1.94968 -1.30768e-21)
(0.258288 -1.85749 -4.32801e-22)
(0.260874 -1.76898 -1.0149e-21)
(0.263661 -1.68395 4.32543e-21)
(0.266646 -1.60223 -3.5465e-21)
(0.269821 -1.52368 1.16299e-21)
(0.273182 -1.4482 4.7307e-22)
(0.276717 -1.37568 -1.98038e-21)
(0.280413 -1.30597 2.61271e-21)
(0.284284 -1.23894 -2.92277e-22)
(0.288384 -1.17447 -2.88402e-22)
(0.29253 -1.11249 -2.01673e-21)
(0.479021 -4.81635 -2.06561e-20)
(0.417567 -4.53817 -1.83285e-20)
(0.396318 -4.2842 -2.15976e-20)
(0.381506 -4.05336 1.01095e-21)
(0.367443 -3.84259 1.33642e-21)
(0.355909 -3.64862 -2.23119e-20)
(0.346676 -3.46891 1.13079e-21)
(0.339191 -3.30141 2.6727e-21)
(0.333108 -3.14447 -5.34575e-22)
(0.328165 -2.99674 4.22064e-21)
(0.324146 -2.85715 -1.67463e-20)
(0.320881 -2.72485 -9.82263e-21)
(0.31824 -2.59913 3.79944e-21)
(0.316124 -2.47941 6.83324e-21)
(0.314462 -2.36521 -7.97434e-21)
(0.313203 -2.25611 -1.21236e-21)
(0.312308 -2.15176 -4.37339e-21)
(0.311752 -2.05185 -2.00029e-21)
(0.311518 -1.9561 3.20155e-21)
(0.311593 -1.86426 -4.04747e-21)
(0.311969 -1.7761 3.3519e-21)
(0.312636 -1.69143 -3.9864e-21)
(0.31359 -1.61005 -3.01974e-21)
(0.31482 -1.53185 -2.06167e-21)
(0.316315 -1.45672 -6.43995e-22)
(0.31806 -1.38453 -4.11655e-21)
(0.320043 -1.31515 4.20298e-22)
(0.322273 -1.24844 7.02394e-22)
(0.324821 -1.18427 -1.99385e-21)
(0.327463 -1.12257 4.61203e-22)
(0.604826 -4.80259 -1.2404e-20)
(0.536429 -4.52736 1.73876e-21)
(0.508959 -4.27541 1.53343e-20)
(0.488558 -4.04641 1.54274e-20)
(0.469431 -3.83737 1.0635e-20)
(0.453256 -3.64493 4.24109e-21)
(0.43973 -3.46655 6.45277e-21)
(0.428237 -3.30019 2.81045e-20)
(0.418386 -3.14421 -1.67887e-20)
(0.409881 -2.99731 5.52339e-22)
(0.402478 -2.85844 3.88901e-21)
(0.395987 -2.72675 1.53894e-20)
(0.390263 -2.60158 -1.03123e-20)
(0.385198 -2.48234 7.13062e-21)
(0.380711 -2.36859 -7.59955e-21)
(0.376742 -2.25991 1.2681e-20)
(0.37325 -2.15597 -3.74363e-21)
(0.370203 -2.05647 1.28184e-22)
(0.36758 -1.96112 5.49595e-21)
(0.365366 -1.86969 3.63803e-21)
(0.363546 -1.78194 -3.747e-21)
(0.362112 -1.69768 4.88998e-21)
(0.361053 -1.61672 -2.15001e-21)
(0.360357 -1.53892 2.4576e-21)
(0.360008 -1.46417 3.13716e-21)
(0.359991 -1.39237 1.07661e-21)
(0.360282 -1.32336 3.28512e-21)
(0.3609 -1.25703 -1.25e-21)
(0.361919 -1.19321 -4.50556e-22)
(0.363081 -1.13183 -1.96977e-21)
(0.730244 -4.78562 -8.95781e-21)
(0.655017 -4.5136 -6.01229e-21)
(0.621422 -4.26389 -1.72697e-20)
(0.595525 -4.03689 -4.27716e-20)
(0.571422 -3.82972 1.466e-20)
(0.550683 -3.63894 8.4688e-22)
(0.532925 -3.46198 -9.06019e-21)
(0.517476 -3.29684 1.55436e-21)
(0.503898 -3.14192 -1.42333e-21)
(0.491861 -2.99592 -2.05676e-20)
(0.481099 -2.85783 8.78669e-21)
(0.471401 -2.72683 1.4183e-20)
(0.462611 -2.60226 1.34365e-22)
(0.454609 -2.48357 4.96324e-21)
(0.447307 -2.37033 1.16193e-20)
(0.44064 -2.26213 -7.77444e-21)
(0.434561 -2.15866 1.33328e-20)
(0.429035 -2.05961 -6.1202e-21)
(0.424036 -1.96472 1.06102e-20)
(0.419546 -1.87375 -7.78073e-21)
(0.415547 -1.78647 3.42271e-21)
(0.412028 -1.70268 8.48457e-21)
(0.408973 -1.62219 2.88682e-22)
(0.406369 -1.54486 -7.56193e-21)
(0.404198 -1.47055 4.19272e-21)
(0.402437 -1.39918 4.74973e-22)
(0.401065 -1.33061 -1.2375e-21)
(0.400095 -1.26468 4.74113e-21)
(0.399612 -1.20126 1.5796e-21)
(0.399316 -1.14027 -1.69794e-21)
(0.855198 -4.76545 2.45355e-20)
(0.773272 -4.4969 -1.74481e-21)
(0.733656 -4.24962 -3.51417e-20)
(0.70236 -4.0248 7.05403e-21)
(0.673368 -3.81964 -8.99881e-21)
(0.64814 -3.63062 7.11897e-21)
(0.626213 -3.45519 1.44256e-20)
(0.606857 -3.29137 2.47342e-20)
(0.589591 -3.13758 -2.57649e-20)
(0.574054 -2.99255 6.39145e-21)
(0.559955 -2.85531 -3.91484e-21)
(0.547069 -2.72505 2.86428e-21)
(0.535226 -2.60114 -1.27456e-20)
(0.524299 -2.48307 -5.78724e-22)
(0.514192 -2.37039 1.90749e-20)
(0.504836 -2.26273 -1.31387e-20)
(0.49618 -2.15979 -7.8469e-21)
(0.488185 -2.06126 -5.34783e-21)
(0.480822 -1.96688 9.97851e-21)
(0.474069 -1.87643 2.01291e-21)
(0.467907 -1.78968 -9.13913e-21)
(0.462318 -1.70641 1.18714e-20)
(0.457286 -1.62645 -1.05434e-20)
(0.452792 -1.54963 6.78342e-21)
(0.448817 -1.47584 -3.78763e-21)
(0.445337 -1.40495 2.39543e-21)
(0.442323 -1.33686 1.70269e-21)
(0.43979 -1.2714 -7.68146e-21)
(0.437829 -1.20842 3.29379e-21)
(0.436099 -1.14786 7.01863e-23)
(0.979609 -4.74209 -2.40199e-20)
(0.891129 -4.47726 2.05221e-20)
(0.845604 -4.23262 -3.49173e-20)
(0.80901 -4.01014 6.63356e-20)
(0.775218 -3.80712 -1.81529e-20)
(0.745575 -3.61998 2.42993e-20)
(0.719541 -3.44617 -6.78721e-22)
(0.696326 -3.28375 -3.56446e-21)
(0.675411 -3.13116 -4.45553e-21)
(0.656402 -2.98718 1.20036e-22)
(0.638989 -2.85084 -1.63178e-20)
(0.622931 -2.72139 8.54127e-21)
(0.608049 -2.59821 -9.64867e-21)
(0.594207 -2.4808 -8.31369e-22)
(0.581305 -2.36875 -2.55927e-20)
(0.569269 -2.26169 8.4145e-21)
(0.558044 -2.15933 4.51475e-21)
(0.54759 -2.06137 -5.12342e-21)
(0.537874 -1.96758 -6.10577e-22)
(0.528871 -1.8777 -7.4579e-21)
(0.520559 -1.79153 -2.60064e-21)
(0.512917 -1.70885 1.52868e-22)
(0.505925 -1.62947 -6.05612e-21)
(0.499562 -1.55323 -8.63103e-21)
(0.493806 -1.48 4.02803e-22)
(0.488629 -1.40966 -9.09204e-22)
(0.483994 -1.34209 2.56153e-21)
(0.479921 -1.27716 -6.21429e-21)
(0.476504 -1.21468 5.2104e-21)
(0.473362 -1.1546 -1.06135e-20)
(1.1034 -4.71555 -6.02721e-20)
(1.00852 -4.45469 7.27652e-20)
(0.957207 -4.21289 -7.41061e-20)
(0.915419 -3.99291 -1.88983e-20)
(0.876918 -3.79216 -1.15356e-20)
(0.842937 -3.607 -1.21924e-20)
(0.812856 -3.43491 -1.11971e-20)
(0.785831 -3.27397 -2.71704e-21)
(0.761303 -3.12266 -1.09615e-20)
(0.738851 -2.97978 -2.26318e-21)
(0.718144 -2.84442 1.64907e-20)
(0.69893 -2.71584 -1.01219e-20)
(0.681019 -2.59344 -1.11662e-20)
(0.664272 -2.47676 -1.77115e-20)
(0.648582 -2.36539 3.667e-20)
(0.633874 -2.25899 -1.37874e-20)
(0.620089 -2.15726 4.99573e-21)
(0.607185 -2.05994 -1.78702e-20)
(0.595126 -1.96678 6.84149e-21)
(0.583885 -1.87754 -2.6436e-21)
(0.573437 -1.792 3.40734e-21)
(0.563757 -1.70997 -1.14582e-21)
(0.554824 -1.63124 9.94503e-21)
(0.546613 -1.55564 -3.49039e-21)
(0.539097 -1.48303 9.25887e-21)
(0.532244 -1.41329 -1.53145e-21)
(0.526016 -1.34631 1.17916e-20)
(0.520423 -1.28194 3.05598e-21)
(0.515575 -1.22001 5.73595e-21)
(0.511042 -1.16046 -1.91947e-20)
(1.22649 -4.68585 9.54909e-20)
(1.12538 -4.42919 -1.92122e-20)
(1.0684 -4.19042 3.10756e-20)
(1.02153 -3.9731 -8.67312e-21)
(0.978414 -3.77474 3.02909e-20)
(0.940171 -3.59168 2.74113e-20)
(0.906104 -3.42139 3.01319e-20)
(0.875316 -3.262 -2.22081e-21)
(0.847211 -3.11204 -2.69193e-20)
(0.821341 -2.97034 3.95056e-20)
(0.79736 -2.83601 -2.38461e-21)
(0.775004 -2.70836 2.64249e-20)
(0.754076 -2.5868 9.20464e-21)
(0.73443 -2.4709 3.48322e-21)
(0.715961 -2.36028 5.34556e-21)
(0.698587 -2.25459 7.011e-21)
(0.68225 -2.15357 1.11537e-20)
(0.666905 -2.05694 -3.00024e-21)
(0.652514 -1.96446 1.55152e-20)
(0.639047 -1.87592 6.82648e-21)
(0.626477 -1.79108 -1.41747e-20)
(0.614776 -1.70975 2.44123e-20)
(0.603919 -1.63174 -3.16271e-20)
(0.593877 -1.55684 2.9429e-20)
(0.584624 -1.48492 -9.60228e-21)
(0.576117 -1.41583 1.88498e-21)
(0.568315 -1.34949 -1.21283e-20)
(0.561229 -1.28574 6.75607e-21)
(0.554973 -1.2244 2.37508e-21)
(0.549072 -1.16543 -3.04895e-21)
(1.34879 -4.65299 -5.47191e-20)
(1.24163 -4.40078 5.21646e-20)
(1.17913 -4.16523 -1.40827e-20)
(1.12729 -3.95071 3.93101e-20)
(1.07965 -3.75486 3.77412e-21)
(1.03722 -3.57399 7.11067e-21)
(0.999229 -3.40559 -6.18651e-20)
(0.964724 -3.24784 -1.03486e-20)
(0.933076 -3.09929 3.741e-20)
(0.903814 -2.95883 2.70095e-20)
(0.876576 -2.8256 -4.53922e-20)
(0.85109 -2.69893 2.56964e-20)
(0.827154 -2.57828 -2.53035e-20)
(0.804619 -2.46322 1.66318e-20)
(0.783376 -2.3534 -2.72297e-20)
(0.763343 -2.24849 -1.94614e-20)
(0.744461 -2.14822 1.60434e-21)
(0.726683 -2.05234 -8.29622e-21)
(0.70997 -1.96062 1.52437e-20)
(0.69429 -1.87282 5.76053e-21)
(0.679612 -1.78874 -3.83357e-21)
(0.665906 -1.70818 -1.15236e-21)
(0.653142 -1.63093 4.08171e-21)
(0.64129 -1.5568 -1.37787e-20)
(0.630317 -1.48563 2.26652e-20)
(0.620178 -1.41727 -5.55569e-21)
(0.610825 -1.35162 -3.33095e-22)
(0.602273 -1.28853 1.88258e-20)
(0.594629 -1.22783 2.38077e-21)
(0.587386 -1.1695 -2.74186e-21)
(1.47024 -4.61701 1.57298e-21)
(1.35721 -4.36946 -3.06889e-20)
(1.28932 -4.1373 -2.69692e-20)
(1.23262 -3.92573 -4.25844e-20)
(1.18057 -3.73252 1.22671e-21)
(1.13403 -3.55393 -2.80391e-20)
(1.09217 -3.3875 3.35069e-20)
(1.054 -3.23145 -3.13395e-21)
(1.01884 -3.08439 2.44847e-20)
(0.986207 -2.94523 -2.09676e-20)
(0.95573 -2.81316 -1.03315e-20)
(0.927126 -2.68753 5.44354e-21)
(0.90019 -2.56785 2.82928e-21)
(0.874771 -2.45369 -2.77216e-20)
(0.85076 -2.34472 1.63459e-20)
(0.828075 -2.24065 -7.63891e-21)
(0.806655 -2.1412 2.17132e-20)
(0.786452 -2.04613 -6.932e-21)
(0.767428 -1.95521 7.26363e-21)
(0.749546 -1.86823 1.64793e-21)
(0.732775 -1.78497 1.1499e-20)
(0.71708 -1.70522 -2.4286e-21)
(0.702429 -1.6288 1.81382e-20)
(0.688787 -1.5555 -2.00308e-20)
(0.676113 -1.48514 -6.51773e-21)
(0.664364 -1.41758 5.30412e-21)
(0.653484 -1.35268 -5.22584e-22)
(0.643484 -1.29032 -8.97777e-21)
(0.634482 -1.2303 7.27239e-21)
(0.625917 -1.17265 -8.86761e-21)
(1.59075 -4.57792 9.22214e-20)
(1.47204 -4.33524 2.54769e-20)
(1.39892 -4.10666 2.89623e-20)
(1.33749 -3.89817 3.76562e-20)
(1.28111 -3.7077 5.4785e-20)
(1.23054 -3.53148 -1.41098e-21)
(1.18488 -3.36711 7.99233e-21)
(1.14307 -3.21283 5.62812e-20)
(1.10444 -3.06732 -1.17416e-20)
(1.06846 -2.92952 -1.94155e-20)
(1.03476 -2.79867 3.36818e-20)
(1.00305 -2.67415 5.22745e-21)
(0.973118 -2.55548 4.94042e-22)
(0.944821 -2.44229 7.7017e-21)
(0.918047 -2.33424 1.3089e-20)
(0.892715 -2.23105 -2.5977e-20)
(0.868763 -2.13248 2.1954e-20)
(0.846144 -2.03828 3.65216e-21)
(0.824818 -1.94823 2.01289e-20)
(0.804747 -1.86212 -1.08099e-20)
(0.785897 -1.77973 1.73761e-20)
(0.768231 -1.70087 -1.80627e-20)
(0.751711 -1.62533 1.72681e-20)
(0.736297 -1.55291 2.14742e-21)
(0.721948 -1.48343 -1.12178e-20)
(0.708611 -1.41673 -3.47364e-21)
(0.696225 -1.35265 2.07943e-20)
(0.684803 -1.29107 1.50172e-20)
(0.674466 -1.2318 3.97827e-21)
(0.664599 -1.17486 -2.82078e-21)
(1.71024 -4.53574 9.44922e-21)
(1.58606 -4.29814 2.11968e-20)
(1.50785 -4.07329 8.26955e-20)
(1.44181 -3.86802 -1.3408e-19)
(1.38121 -3.68039 -1.22935e-20)
(1.32669 -3.50664 -1.35438e-20)
(1.27728 -3.34439 6.27328e-21)
(1.23189 -3.19196 7.90099e-21)
(1.18981 -3.04806 1.21862e-20)
(1.1505 -2.91169 -3.19677e-20)
(1.11359 -2.78211 -5.38501e-21)
(1.07878 -2.65875 1.75244e-20)
(1.04587 -2.54117 1.77203e-20)
(1.0147 -2.42899 -1.77551e-20)
(0.985168 -2.32192 -1.62815e-20)
(0.957193 -2.21968 2.74208e-20)
(0.930717 -2.12204 1.71112e-20)
(0.90569 -2.02877 -4.50861e-21)
(0.882072 -1.93965 -1.04812e-20)
(0.859825 -1.85447 1.90177e-21)
(0.838911 -1.77302 -2.29672e-20)
(0.81929 -1.6951 2.74796e-20)
(0.800921 -1.6205 -1.84481e-20)
(0.783759 -1.54903 -6.30961e-22)
(0.767757 -1.48049 1.19242e-20)
(0.752853 -1.4147 -3.57051e-21)
(0.738989 -1.35152 -1.05764e-20)
(0.726168 -1.29078 1.30823e-20)
(0.714517 -1.2323 -3.08812e-22)
(0.703378 -1.17614 2.34747e-21)
(1.82864 -4.49051 -7.17567e-21)
(1.6992 -4.25818 -2.24529e-20)
(1.61606 -4.03722 -9.56533e-20)
(1.54553 -3.83528 3.48036e-20)
(1.48081 -3.6506 -9.67255e-21)
(1.42242 -3.4794 3.29592e-20)
(1.36932 -3.31935 2.55258e-21)
(1.32039 -3.16883 -3.42082e-20)
(1.27489 -3.02659 5.1395e-20)
(1.23228 -2.8917 -4.54033e-20)
(1.19217 -2.76346 -1.36394e-21)
(1.15427 -2.64133 1.04687e-20)
(1.11838 -2.52488 -1.748e-20)
(1.08434 -2.41378 1.93456e-20)
(1.05205 -2.30775 -3.62263e-20)
(1.02144 -2.20652 -7.49289e-21)
(0.992447 -2.10988 2.14716e-20)
(0.96502 -2.01759 3.87012e-22)
(0.939121 -1.92946 -1.22168e-20)
(0.91471 -1.84527 3.37141e-20)
(0.891747 -1.76482 -1.82031e-20)
(0.870189 -1.68789 -2.34098e-20)
(0.849991 -1.6143 7.58677e-21)
(0.831103 -1.54382 -2.18112e-20)
(0.813471 -1.47628 -5.02883e-21)
(0.79703 -1.41148 -5.09801e-22)
(0.781711 -1.34925 -1.35149e-20)
(0.767517 -1.28942 1.62744e-20)
(0.754579 -1.23179 -8.84037e-21)
(0.742196 -1.17647 1.05321e-20)
(1.94586 -4.44224 -3.37491e-20)
(1.81137 -4.21536 -9.10394e-20)
(1.72347 -3.99844 4.14158e-20)
(1.64859 -3.79996 -3.88974e-20)
(1.57985 -3.61832 -2.70155e-20)
(1.51767 -3.44974 -1.47095e-20)
(1.46093 -3.29195 -5.5074e-20)
(1.4085 -3.1434 3.70199e-20)
(1.35961 -3.0029 -8.84775e-20)
(1.31371 -2.86956 -3.03079e-20)
(1.27042 -2.74271 1.18322e-20)
(1.22944 -2.62186 1.81232e-20)
(1.19057 -2.50661 -7.56606e-22)
(1.15367 -2.39665 -3.25927e-20)
(1.11863 -2.29171 7.60783e-21)
(1.08539 -2.19155 -2.79425e-20)
(1.05388 -2.09596 -1.93238e-20)
(1.02407 -2.00472 -1.10359e-20)
(0.995895 -1.91764 -1.65374e-21)
(0.969333 -1.8345 1.94561e-20)
(0.944337 -1.7551 2.6708e-20)
(0.920861 -1.67924 -7.86421e-21)
(0.898855 -1.6067 -7.42433e-21)
(0.878265 -1.53729 1.43128e-20)
(0.85903 -1.47079 7.68935e-21)
(0.84108 -1.40703 -6.17286e-21)
(0.824334 -1.34582 -6.74775e-21)
(0.808801 -1.28697 8.53187e-22)
(0.794603 -1.23025 6.75614e-21)
(0.780995 -1.17581 9.45538e-21)
(2.06184 -4.39096 -5.17963e-21)
(1.92253 -4.16971 1.14384e-19)
(1.83002 -3.95696 8.41154e-20)
(1.75092 -3.76205 6.28973e-20)
(1.67827 -3.58354 -4.07923e-20)
(1.61237 -3.41766 -7.91925e-21)
(1.55206 -3.26221 7.40305e-21)
(1.49616 -3.11569 4.69595e-20)
(1.4439 -2.97697 1.69639e-20)
(1.39474 -2.84523 4.01715e-20)
(1.34827 -2.71984 -5.49005e-20)
(1.30422 -2.60032 5.87979e-21)
(1.26238 -2.48633 2.13794e-20)
(1.22262 -2.37757 1.26315e-20)
(1.18484 -2.27378 2.50887e-20)
(1.14897 -2.17476 -1.77048e-20)
(1.11496 -2.08028 -1.53492e-20)
(1.08276 -1.99015 3.23984e-21)
(1.05233 -1.90417 3.17924e-20)
(1.02363 -1.82214 -5.0405e-20)
(0.996612 -1.74386 1.75235e-20)
(0.971236 -1.66911 -2.28126e-23)
(0.947444 -1.59769 3.13859e-20)
(0.925176 -1.5294 -1.35853e-20)
(0.904367 -1.46402 -8.71989e-22)
(0.884937 -1.40135 -8.34603e-21)
(0.866801 -1.34122 7.89838e-21)
(0.849952 -1.28341 1.90259e-21)
(0.834523 -1.22767 -8.38911e-21)
(0.819708 -1.17416 2.90797e-20)
(2.17649 -4.33671 -1.18887e-19)
(2.03258 -4.12125 -6.91094e-20)
(1.93564 -3.91281 -1.70328e-19)
(1.85246 -3.72156 -7.37084e-20)
(1.776 -3.54626 6.8297e-20)
(1.70645 -3.38315 -3.79636e-20)
(1.64262 -3.23009 -8.37641e-21)
(1.5833 -3.08566 -2.34557e-20)
(1.5277 -2.9488 4.02557e-20)
(1.47529 -2.81871 -9.02293e-21)
(1.42565 -2.69483 -1.39439e-20)
(1.37853 -2.57672 -1.59103e-21)
(1.33373 -2.46404 -5.1471e-20)
(1.29112 -2.35653 -9.54885e-22)
(1.2506 -2.25396 1.39211e-20)
(1.21211 -2.15612 -1.49905e-21)
(1.1756 -2.06282 -4.89132e-20)
(1.14102 -1.97385 4.68671e-20)
(1.10834 -1.88904 -4.49498e-20)
(1.07752 -1.80818 1.74118e-20)
(1.0485 -1.73107 2.44615e-21)
(1.02124 -1.6575 9.06383e-22)
(0.995688 -1.58727 -1.74207e-20)
(0.971767 -1.52015 5.73413e-21)
(0.94941 -1.45594 -8.18125e-23)
(0.928529 -1.39443 1.81357e-21)
(0.909028 -1.33543 -4.08421e-20)
(0.890897 -1.27871 1.13251e-20)
(0.874257 -1.22399 1.17754e-20)
(0.858267 -1.17149 1.31622e-20)
(2.28973 -4.27952 2.30469e-19)
(2.14147 -4.06999 7.59317e-20)
(2.04027 -3.86598 4.35917e-20)
(1.95314 -3.6785 6.85767e-20)
(1.87297 -3.50649 -7.80974e-21)
(1.79986 -3.34621 4.81324e-20)
(1.73256 -3.1956 1.03449e-19)
(1.66985 -3.05331 -1.35225e-20)
(1.61094 -2.91835 5.57416e-21)
(1.55528 -2.78999 1.11425e-19)
(1.5025 -2.66767 -1.5363e-20)
(1.45232 -2.55102 1.48505e-20)
(1.40456 -2.43972 -4.8498e-21)
(1.3591 -2.33353 6.00432e-22)
(1.31584 -2.23224 7.16566e-20)
(1.27474 -2.13564 2.74463e-21)
(1.23574 -2.04357 7.24104e-20)
(1.1988 -1.95583 -9.40201e-21)
(1.16388 -1.87224 -1.50074e-20)
(1.13094 -1.7926 3.47341e-20)
(1.09994 -1.71672 -3.07968e-20)
(1.07082 -1.64439 3.36954e-20)
(1.04352 -1.57539 1.77958e-20)
(1.01796 -1.50952 -1.39584e-20)
(0.994084 -1.44654 2.14738e-20)
(0.97178 -1.38624 2.58378e-21)
(0.950944 -1.32844 -8.50039e-21)
(0.931559 -1.27287 5.00823e-21)
(0.913745 -1.21924 3.05235e-20)
(0.89661 -1.16778 4.71868e-21)
(2.4015 -4.21941 -3.97649e-20)
(2.24911 -4.01595 -7.83354e-20)
(2.14385 -3.81649 3.06279e-20)
(2.0529 -3.63286 -1.22666e-19)
(1.96913 -3.46421 5.58664e-20)
(1.89253 -3.30682 -9.98772e-20)
(1.82181 -3.15872 -6.24211e-20)
(1.75574 -3.01864 1.75757e-20)
(1.69354 -2.88564 1.49999e-20)
(1.63466 -2.75904 -7.90821e-20)
(1.57873 -2.63836 -3.27726e-20)
(1.5255 -2.52323 1.4225e-20)
(1.47479 -2.41337 -3.9921e-20)
(1.42648 -2.30855 -1.5286e-20)
(1.3805 -2.20859 -9.88024e-21)
(1.3368 -2.11331 -9.80182e-21)
(1.29531 -2.02252 -4.0138e-20)
(1.25602 -1.93606 -2.41528e-20)
(1.21887 -1.85374 4.88111e-21)
(1.18384 -1.77539 7.88561e-21)
(1.15086 -1.70079 7.96243e-21)
(1.11989 -1.62976 -2.78713e-20)
(1.09086 -1.56206 1.02745e-20)
(1.0637 -1.49748 -2.0945e-20)
(1.03832 -1.4358 1.932e-20)
(1.01462 -1.37678 -2.53927e-20)
(0.99248 -1.32023 7.69042e-21)
(0.971875 -1.26587 -1.23399e-20)
(0.952919 -1.21338 -1.71594e-20)
(0.934676 -1.16302 -1.7128e-21)
(2.51171 -4.15643 -8.40824e-20)
(2.35545 -3.95917 -7.13379e-20)
(2.24629 -3.76437 -6.63186e-20)
(2.15168 -3.58467 -4.60354e-20)
(2.06441 -3.41943 1.43501e-19)
(1.98439 -3.26499 1.87193e-20)
(1.9103 -3.11945 5.77883e-20)
(1.8409 -2.98162 8.53684e-20)
(1.77543 -2.85064 3.89325e-20)
(1.71334 -2.72588 -5.25042e-20)
(1.65428 -2.60688 7.94678e-20)
(1.598 -2.49333 -7.67728e-20)
(1.54435 -2.38497 7.02476e-20)
(1.49321 -2.2816 7.83339e-21)
(1.44451 -2.18303 1.7135e-20)
(1.39821 -2.08911 5.83997e-21)
(1.35425 -1.99966 6.60396e-20)
(1.31262 -1.91454 -9.80154e-21)
(1.27326 -1.83355 8.51189e-21)
(1.23613 -1.75653 2.77828e-20)
(1.2012 -1.68327 -3.08584e-20)
(1.1684 -1.61358 2.39796e-20)
(1.13766 -1.54724 8.44093e-22)
(1.10891 -1.48401 1.0592e-20)
(1.08205 -1.42368 1.90782e-20)
(1.05698 -1.36601 -3.21932e-21)
(1.03357 -1.31077 1.8455e-20)
(1.01178 -1.25769 2.62815e-20)
(0.991716 -1.2064 -2.86427e-20)
(0.972402 -1.15721 -1.77271e-20)
(2.62029 -4.09061 2.42517e-19)
(2.46042 -3.89968 -2.7187e-20)
(2.34756 -3.70962 5.23906e-20)
(2.24941 -3.53392 9.15956e-20)
(2.15874 -3.37216 -2.57161e-19)
(2.07536 -3.22072 2.72707e-20)
(1.99795 -3.07778 -9.14474e-20)
(1.92526 -2.94227 8.84053e-20)
(1.85653 -2.81336 -6.96044e-20)
(1.79125 -2.69049 3.44463e-20)
(1.72907 -2.57324 -1.26938e-19)
(1.66976 -2.46133 5.31045e-21)
(1.61317 -2.35453 -3.83798e-20)
(1.5592 -2.25266 5.89977e-20)
(1.5078 -2.15554 -6.12037e-20)
(1.45891 -2.06304 -3.09578e-21)
(1.41249 -1.975 -4.70044e-20)
(1.36853 -1.89125 -3.64367e-21)
(1.32697 -1.81165 3.60375e-21)
(1.28777 -1.73601 9.52824e-21)
(1.2509 -1.66413 -5.50204e-20)
(1.21628 -1.59584 -1.51924e-21)
(1.18385 -1.5309 -2.98042e-20)
(1.15353 -1.46909 -6.80099e-21)
(1.12522 -1.41017 -1.76818e-20)
(1.09881 -1.3539 -1.90712e-20)
(1.07415 -1.30005 -1.95626e-20)
(1.0512 -1.24831 3.27543e-20)
(1.03007 -1.19829 8.71111e-21)
(1.00972 -1.15032 -1.73744e-20)
(2.72717 -4.02198 -1.61655e-19)
(2.56394 -3.83749 5.85612e-20)
(2.44758 -3.65227 -9.49798e-20)
(2.34604 -3.48063 1.3767e-20)
(2.25206 -3.32239 1.44316e-19)
(2.16539 -3.17399 -7.2253e-20)
(2.08469 -3.03371 -7.21293e-20)
(2.00873 -2.90056 -6.05998e-20)
(1.93677 -2.77379 3.27279e-21)
(1.86831 -2.65287 3.74294e-20)
(1.80302 -2.53744 -2.54972e-20)
(1.74069 -2.42723 2.03087e-21)
(1.68117 -2.32205 7.577e-20)
(1.62439 -2.22174 -3.80493e-20)
(1.57029 -2.12614 9.10867e-21)
(1.51883 -2.03511 -2.89816e-20)
(1.46998 -1.94852 1.11356e-20)
(1.4237 -1.86621 2.3185e-20)
(1.37995 -1.78803 2.54357e-20)
(1.3387 -1.71381 -2.77341e-20)
(1.2999 -1.64337 3.94189e-21)
(1.26348 -1.5765 2.29308e-20)
(1.22938 -1.51301 3.89836e-20)
(1.1975 -1.45266 1.0062e-20)
(1.16776 -1.39521 -3.96189e-20)
(1.14002 -1.34042 4.54714e-20)
(1.11414 -1.28802 -2.27557e-20)
(1.09007 -1.2377 -2.68189e-20)
(1.0679 -1.18902 -1.6242e-20)
(1.04656 -1.14233 -2.26965e-20)
(2.83227 -3.9506 8.48532e-20)
(2.66597 -3.77266 -6.62293e-20)
(2.54631 -3.59234 2.63843e-20)
(2.44151 -3.42481 1.26278e-19)
(2.3443 -3.27013 3.32675e-20)
(2.2544 -3.12481 -2.71097e-20)
(2.17044 -2.98724 6.53876e-20)
(2.09125 -2.85651 1.66613e-20)
(2.01607 -2.73193 5.81611e-20)
(1.94445 -2.61302 3.10216e-20)
(1.87606 -2.49946 1.90487e-21)
(1.81072 -2.39103 1.85123e-20)
(1.74829 -2.28754 -5.6671e-21)
(1.68872 -2.18885 9.63055e-21)
(1.63194 -2.09482 2.62535e-20)
(1.57792 -2.00533 -1.40052e-20)
(1.52664 -1.92024 3.41349e-20)
(1.47807 -1.83941 3.38222e-20)
(1.43216 -1.7627 -3.78161e-20)
(1.38887 -1.68994 3.88743e-20)
(1.34816 -1.62095 8.04894e-20)
(1.30996 -1.55556 -5.15144e-20)
(1.27419 -1.49355 5.09991e-20)
(1.24077 -1.4347 -3.54718e-20)
(1.20961 -1.37877 -4.96101e-21)
(1.18057 -1.3255 3.72269e-20)
(1.15349 -1.27463 -7.63711e-21)
(1.12832 -1.2258 2.74186e-20)
(1.10515 -1.17854 2.70748e-20)
(1.08284 -1.13322 -5.49871e-20)
(2.93554 -3.87651 -8.11619e-20)
(2.76646 -3.7052 3.95832e-20)
(2.6437 -3.52984 1.44425e-20)
(2.53576 -3.36645 -1.46905e-19)
(2.4354 -3.21536 -7.27939e-20)
(2.34231 -3.07318 5.32045e-20)
(2.25514 -2.93837 -1.43392e-19)
(2.17272 -2.81011 1.68684e-19)
(2.09435 -2.68778 -9.25776e-20)
(2.01958 -2.57095 1.07553e-20)
(1.94811 -2.45934 -1.76332e-20)
(1.87978 -2.35274 -4.81827e-20)
(1.81446 -2.251 9.90235e-20)
(1.7521 -2.154 3.57795e-20)
(1.69266 -2.0616 -3.73625e-20)
(1.63612 -1.9737 1.17523e-21)
(1.58244 -1.89017 1.99008e-20)
(1.53159 -1.81086 -4.18357e-20)
(1.48354 -1.73566 9.08404e-21)
(1.43824 -1.66439 2.827e-20)
(1.39564 -1.59689 -1.15959e-20)
(1.35567 -1.53299 1.86424e-20)
(1.31825 -1.47248 -3.66068e-20)
(1.28331 -1.41515 5.25236e-20)
(1.25073 -1.36077 1.18895e-20)
(1.22039 -1.30907 -3.2761e-20)
(1.19213 -1.25979 -2.78108e-20)
(1.16588 -1.21254 4.71961e-22)
(1.14173 -1.16679 3.82797e-20)
(1.11849 -1.12291 -9.36602e-21)
(3.03693 -3.79973 -2.15913e-20)
(2.86538 -3.63516 -1.53057e-19)
(2.7397 -3.46479 1.80837e-19)
(2.62873 -3.30556 1.18385e-19)
(2.52528 -3.1581 1.13538e-19)
(2.42904 -3.01909 2.95036e-20)
(2.33868 -2.88709 4.48448e-20)
(2.25307 -2.76137 2.22372e-20)
(2.17153 -2.64135 -8.51956e-20)
(2.09363 -2.52667 1.54389e-19)
(2.0191 -2.41707 -1.19315e-19)
(1.94779 -2.31238 -6.53188e-21)
(1.8796 -2.21246 1.77039e-20)
(1.81448 -2.11721 -7.16319e-20)
(1.75241 -2.0265 6.24074e-20)
(1.69336 -1.94025 -1.8521e-20)
(1.6373 -1.85831 -4.60053e-20)
(1.58421 -1.78058 1.71485e-20)
(1.53405 -1.70691 -3.31924e-20)
(1.48677 -1.63716 -2.87014e-20)
(1.4423 -1.57117 -3.00989e-20)
(1.40058 -1.50877 6.76289e-21)
(1.36154 -1.44977 3.65753e-21)
(1.32508 -1.39397 -7.15477e-20)
(1.2911 -1.34115 -2.66025e-20)
(1.25947 -1.29105 1.7506e-20)
(1.23002 -1.2434 2.11895e-20)
(1.20269 -1.19781 -2.90249e-20)
(1.17757 -1.15365 -1.08755e-20)
(1.15342 -1.11131 1.28042e-21)
(3.1364 -3.72031 -2.12613e-20)
(2.96271 -3.56256 9.91792e-20)
(2.83429 -3.39718 -2.79651e-20)
(2.72035 -3.24214 -3.40517e-20)
(2.61386 -3.09833 -1.76059e-19)
(2.5145 -2.96254 -3.58763e-20)
(2.42099 -2.83342 7.00377e-20)
(2.33221 -2.71029 -4.41045e-20)
(2.24752 -2.59266 -4.05223e-21)
(2.16651 -2.4802 -8.59529e-21)
(2.08894 -2.37268 4.47637e-20)
(2.01468 -2.26996 -7.05759e-20)
(1.94364 -2.17193 -4.5801e-20)
(1.87579 -2.07849 5.25508e-20)
(1.81111 -1.98955 -2.9253e-20)
(1.74959 -1.90499 -3.42649e-20)
(1.6912 -1.82471 7.29105e-20)
(1.6359 -1.74859 -1.13604e-20)
(1.58366 -1.67649 4.12074e-20)
(1.53442 -1.60828 -3.78369e-20)
(1.48813 -1.5438 -2.98314e-20)
(1.4447 -1.4829 2.56641e-20)
(1.40405 -1.4254 -3.05309e-21)
(1.3661 -1.37112 -1.88389e-20)
(1.33072 -1.31983 1.63575e-20)
(1.2978 -1.27132 -5.0332e-20)
(1.26716 -1.22532 3.07242e-20)
(1.23873 -1.18143 -4.68944e-22)
(1.21266 -1.13897 -3.13632e-20)
(1.18761 -1.09824 4.81844e-20)
(3.23406 -3.63832 7.74814e-20)
(3.0585 -3.48742 -1.98719e-19)
(2.92742 -3.32701 -1.49214e-20)
(2.81055 -3.17615 8.6394e-20)
(2.70105 -3.03605 -2.15094e-20)
(2.5986 -2.90354 -5.82064e-20)
(2.50196 -2.77736 2.70948e-20)
(2.41005 -2.6569 2.97703e-20)
(2.32224 -2.54173 2.35983e-21)
(2.23815 -2.43155 3.48493e-20)
(2.15756 -2.32618 1.07785e-19)
(2.08037 -2.22551 -3.83426e-20)
(2.00651 -2.12944 8.9743e-21)
(1.93596 -2.03789 -2.32532e-20)
(1.86871 -1.95076 9.0606e-20)
(1.80475 -1.86797 -1.5705e-20)
(1.74406 -1.78939 5.16231e-20)
(1.6866 -1.71493 -1.95074e-20)
(1.63233 -1.64443 2.08359e-20)
(1.58119 -1.57778 3.09178e-20)
(1.53311 -1.51483 5.0995e-21)
(1.48801 -1.45542 2.02213e-20)
(1.4458 -1.39939 -1.64741e-20)
(1.40638 -1.34657 4.58655e-20)
(1.36964 -1.29677 -1.85597e-20)
(1.33544 -1.24978 6.7188e-20)
(1.30359 -1.20538 -1.94196e-20)
(1.27406 -1.16319 1.31049e-20)
(1.24702 -1.12245 -2.46157e-20)
(1.22114 -1.08342 4.70641e-20)
(3.33029 -3.55389 -1.74616e-19)
(3.15288 -3.40971 6.94759e-21)
(3.01903 -3.2542 -9.54882e-20)
(2.89921 -3.10755 1.71209e-20)
(2.78671 -2.97123 4.3329e-21)
(2.68122 -2.84209 -7.74004e-20)
(2.5815 -2.71892 -1.41086e-19)
(2.48649 -2.60121 6.90086e-20)
(2.39558 -2.48856 -9.64645e-20)
(2.30844 -2.38074 -4.88035e-20)
(2.22487 -2.2776 -2.6859e-20)
(2.14478 -2.17906 -2.08792e-20)
(2.06813 -2.08502 1.88587e-22)
(1.99492 -1.99542 -7.29627e-20)
(1.92514 -1.91018 4.59431e-20)
(1.85879 -1.82921 -7.53083e-20)
(1.79584 -1.7524 -1.84311e-20)
(1.73627 -1.67963 2.00974e-20)
(1.68002 -1.61078 2.48759e-20)
(1.62703 -1.54572 2.43456e-20)
(1.57723 -1.48429 1.82734e-20)
(1.53052 -1.42636 -4.55208e-20)
(1.48682 -1.37177 4.55588e-20)
(1.446 -1.32035 -4.85846e-21)
(1.40794 -1.27193 -1.20392e-20)
(1.37249 -1.22633 -4.68927e-20)
(1.33945 -1.18335 -2.45149e-20)
(1.30874 -1.14263 4.51958e-20)
(1.28062 -1.1034 -1.48298e-20)
(1.25386 -1.06618 -1.52141e-20)
(3.42553 -3.4667 7.76024e-20)
(3.24589 -3.32902 8.58574e-21)
(3.10898 -3.17855 -1.93134e-20)
(2.98617 -3.03632 -2.92471e-21)
(2.87073 -2.90391 -3.09479e-20)
(2.76226 -2.77822 1.04516e-19)
(2.65951 -2.65815 -4.80419e-20)
(2.56144 -2.54325 3.17205e-20)
(2.46748 -2.43321 1.33699e-20)
(2.37732 -2.32783 4.39319e-20)
(2.2908 -2.22699 -1.57269e-20)
(2.20784 -2.13064 8.99969e-20)
(2.12845 -2.03871 -7.59281e-21)
(2.05261 -1.95114 5.56626e-20)
(1.98034 -1.86785 -9.12561e-20)
(1.91164 -1.78877 -6.08512e-21)
(1.84649 -1.71378 5.76692e-20)
(1.78486 -1.64276 -3.49096e-20)
(1.72669 -1.5756 -2.42968e-20)
(1.67192 -1.51216 -4.11545e-20)
(1.62047 -1.45228 -3.52046e-20)
(1.57224 -1.39584 3.83053e-20)
(1.52714 -1.34266 -3.49218e-20)
(1.48504 -1.29259 7.92181e-21)
(1.44581 -1.24545 2.80122e-20)
(1.40929 -1.20104 1.90825e-20)
(1.37525 -1.15914 1.7973e-20)
(1.34351 -1.11932 1.28732e-20)
(1.3141 -1.08099 -3.50667e-20)
(1.28607 -1.04529 -1.50832e-20)
(4.92441 -0.0292687 9.9165e-22)
(4.91992 -0.158909 9.32993e-21)
(4.91238 -0.287747 3.25099e-20)
(4.90175 -0.416065 1.76254e-20)
(4.88782 -0.543923 -3.83008e-20)
(4.87052 -0.671291 1.14972e-20)
(4.84986 -0.798102 -1.1789e-20)
(4.82585 -0.924278 -3.02425e-20)
(4.79851 -1.04973 7.96731e-20)
(4.76786 -1.17438 -1.90446e-20)
(4.73392 -1.29813 -1.84139e-20)
(4.69674 -1.4209 -4.04061e-20)
(4.65634 -1.5426 -1.17124e-19)
(4.61275 -1.66316 1.09423e-20)
(4.56603 -1.78249 -3.51883e-21)
(4.5162 -1.90051 -3.88871e-20)
(4.46331 -2.01713 7.9183e-20)
(4.4074 -2.13229 4.42378e-20)
(4.34851 -2.24589 8.2198e-20)
(4.28669 -2.35788 3.95552e-20)
(4.222 -2.46818 -9.33869e-20)
(4.15447 -2.57671 4.18006e-21)
(4.08416 -2.68341 -1.76562e-19)
(4.01113 -2.78821 2.68739e-19)
(3.93543 -2.89104 -8.71128e-20)
(3.85713 -2.99185 -1.16152e-19)