/*--------------------------------*- C++ -*----------------------------------*\
  =========                 |
  \\      /  F ield         | OpenFOAM: The Open Source CFD Toolbox
   \\    /   O peration     | Website:  https://openfoam.org
    \\  /    A nd           | Version:  6.0
     \\/     M anipulation  |
\*---------------------------------------------------------------------------*/
FoamFile
{
    version     2.0;
    format      ascii;
    class       surfaceScalarField;
    location    "9";
    object      phi;
}
// * * * * * * * * * * * * * * * * * * * * * * * * * * * * * * * * * * * * * //

dimensions      [0 3 -1 0 0 0 0];

internalField   nonuniform List<scalar> 
38030
(
3.89269e-05
-0.242507
0.242468
0.000233823
-0.231606
0.231411
0.000544386
-0.22284
0.22253
0.000936126
-0.215482
0.21509
0.00138285
-0.209058
0.208611
0.00186277
-0.203214
0.202734
0.00235869
-0.197721
0.197225
0.0028579
-0.192441
0.191942
0.00335145
-0.187298
0.186805
0.00383354
-0.182254
0.181772
0.00430075
-0.177295
0.176828
0.00475145
-0.172421
0.17197
0.00518534
-0.16764
0.167206
0.00560297
-0.162963
0.162545
0.00600542
-0.158398
0.157996
0.00639413
-0.153956
0.153567
0.00677062
-0.149643
0.149267
0.00713651
-0.145465
0.145099
0.00749335
-0.141424
0.141067
0.00784266
-0.137521
0.137172
0.00818593
-0.133756
0.133413
0.0085246
-0.130127
0.129788
0.00886011
-0.126629
0.126294
0.00919385
-0.123258
0.122924
0.00952714
-0.120006
0.119673
0.00986117
-0.116865
0.116531
0.0101968
-0.113823
0.113487
0.0105345
-0.11087
0.110532
0.0108738
-0.107993
0.107653
-0.105178
0.104838
0.0112134
5.39867e-05
-0.242561
0.000252156
-0.231804
0.000564522
-0.223153
0.000957799
-0.215875
0.00140528
-0.209505
0.0018852
-0.203694
0.0023804
-0.198216
0.00287819
-0.192939
0.00336972
-0.18779
0.00384927
-0.182734
0.00431356
-0.177759
0.00476111
-0.172869
0.00519173
-0.168071
0.00560605
-0.163377
0.00600525
-0.158797
0.00639081
-0.154341
0.0067643
-0.150017
0.00712734
-0.145828
0.0074815
-0.141778
0.00782829
-0.137868
0.00816919
-0.134097
0.00850563
-0.130463
0.00883905
-0.126963
0.00917085
-0.12359
0.0095024
-0.120338
0.00983495
-0.117197
0.0101695
-0.114158
0.0105065
-0.111207
0.0108458
-0.108332
-0.105518
0.0111864
6.66484e-05
-0.242627
0.000268797
-0.232006
0.000582597
-0.223466
0.000977278
-0.21627
0.00142563
-0.209954
0.00190558
-0.204174
0.00239995
-0.19871
0.00289612
-0.193435
0.00338535
-0.188279
0.00386207
-0.18321
0.00432316
-0.17822
0.00476727
-0.173313
0.00519432
-0.168498
0.00560506
-0.163788
0.00600075
-0.159193
0.00638291
-0.154724
0.00675316
-0.150387
0.00711313
-0.146188
0.00746439
-0.142129
0.00780845
-0.138212
0.00814677
-0.134435
0.00848077
-0.130797
0.00881188
-0.127294
0.00914153
-0.12392
0.00947112
-0.120667
0.00980196
-0.117528
0.0101351
-0.114491
0.0104713
-0.111543
0.0108104
-0.108671
-0.105859
0.0111516
7.23097e-05
-0.2427
0.000280032
-0.232214
0.000597239
-0.223784
0.000994124
-0.216667
0.00144364
-0.210403
0.00192366
-0.204654
0.00241709
-0.199204
0.00291143
-0.19393
0.00339812
-0.188766
0.00387175
-0.183684
0.00432936
-0.178678
0.00476974
-0.173753
0.00519296
-0.168921
0.00559986
-0.164195
0.00599178
-0.159585
0.0063703
-0.155102
0.00673708
-0.150754
0.00709376
-0.146544
0.00744192
-0.142477
0.00778305
-0.138553
0.00811859
-0.134771
0.00844995
-0.131129
0.00877856
-0.127623
0.00910585
-0.124247
0.00943325
-0.120995
0.00976216
-0.117857
0.0100938
-0.114822
0.0104288
-0.111878
0.0107675
-0.10901
-0.106201
0.0111091
7.63907e-05
-0.242776
0.000288953
-0.232426
0.00060971
-0.224104
0.00100888
-0.217066
0.00145952
-0.210854
0.00193951
-0.205134
0.00243182
-0.199696
0.00292412
-0.194422
0.003408
-0.18925
0.00387826
-0.184154
0.0043321
-0.179132
0.00476849
-0.17419
0.0051876
-0.16934
0.00559039
-0.164597
0.0059783
-0.159973
0.00635294
-0.155477
0.00671602
-0.151117
0.0070692
-0.146898
0.00741403
-0.142822
0.00775202
-0.138891
0.00808459
-0.135104
0.00841311
-0.131457
0.00873901
-0.127948
0.00906373
-0.124572
0.00938875
-0.12132
0.00971551
-0.118184
0.0100453
-0.115152
0.010379
-0.112212
0.0107171
-0.109348
-0.106543
0.0110589
7.93041e-05
-0.242855
0.000295994
-0.232643
0.000620213
-0.224429
0.00102167
-0.217467
0.00147335
-0.211305
0.00195314
-0.205613
0.00244412
-0.200187
0.00293412
-0.194912
0.00341492
-0.189731
0.00388153
-0.184621
0.00433132
-0.179581
0.00476342
-0.174622
0.00517815
-0.169755
0.00557659
-0.164996
0.00596022
-0.160356
0.00633074
-0.155847
0.00668989
-0.151476
0.00703934
-0.147247
0.00738065
-0.143163
0.0077153
-0.139226
0.00804468
-0.135433
0.00837018
-0.131783
0.00869317
-0.128271
0.00901513
-0.124894
0.00933754
-0.121642
0.00966193
-0.118508
0.00998968
-0.11548
0.0103219
-0.112544
0.0106591
-0.109685
-0.106885
0.0110009
8.16754e-05
-0.242937
0.000301898
-0.232863
0.000629241
-0.224756
0.00103277
-0.217871
0.00148528
-0.211758
0.00196463
-0.206093
0.00245403
-0.200677
0.00294143
-0.195399
0.00341887
-0.190208
0.00388153
-0.185084
0.00432697
-0.180027
0.00475451
-0.175049
0.00516458
-0.170165
0.00555838
-0.16539
0.00593749
-0.160736
0.00630365
-0.156213
0.00665863
-0.151831
0.00700412
-0.147592
0.00734169
-0.143501
0.00767279
-0.139557
0.0079988
-0.135759
0.00832106
-0.132105
0.00864096
-0.128591
0.00895994
-0.125213
0.00927954
-0.121962
0.00960134
-0.11883
0.00992684
-0.115805
0.0102573
-0.112875
0.0105934
-0.110021
-0.107226
0.0109351
8.36638e-05
-0.243021
0.000306945
-0.233086
0.000637048
-0.225086
0.00104237
-0.218276
0.00149543
-0.212211
0.00197407
-0.206571
0.00246157
-0.201164
0.00294609
-0.195884
0.00341984
-0.190682
0.00387824
-0.185542
0.00431904
-0.180468
0.00474171
-0.175472
0.00514684
-0.17057
0.00553573
-0.165778
0.00591004
-0.16111
0.00627159
-0.156575
0.00662216
-0.152181
0.00696347
-0.147934
0.00729707
-0.143835
0.00762442
-0.139884
0.00794684
-0.136081
0.00826567
-0.132424
0.00858226
-0.128908
0.00889806
-0.125528
0.00921463
-0.122278
0.00953362
-0.119149
0.00985665
-0.116128
0.0101851
-0.113203
0.0105199
-0.110356
-0.107568
0.0108612
8.5392e-05
-0.243106
0.000311336
-0.233312
0.000643837
-0.225419
0.00105063
-0.218683
0.00150392
-0.212664
0.00198153
-0.207049
0.0024668
-0.201649
0.0029481
-0.196365
0.00341785
-0.191151
0.00387166
-0.185996
0.0043075
-0.180904
0.00472501
-0.175889
0.0051249
-0.17097
0.0055086
-0.166162
0.00587785
-0.161479
0.00623451
-0.156932
0.00658043
-0.152527
0.00691731
-0.148271
0.00724672
-0.144164
0.00757008
-0.140207
0.00788871
-0.1364
0.0082039
-0.132739
0.00851697
-0.129221
0.00882938
-0.125841
0.0091427
-0.122592
0.00945865
-0.119465
0.00977897
-0.116449
0.0101052
-0.113529
0.0104385
-0.110689
-0.107908
0.0107792
8.6908e-05
-0.243193
0.000315187
-0.233541
0.000649736
-0.225753
0.00105766
-0.219091
0.00151086
-0.213117
0.00198707
-0.207525
0.00246978
-0.202132
0.00294751
-0.196843
0.00341291
-0.191617
0.00386181
-0.186445
0.00429236
-0.181334
0.00470439
-0.176301
0.00509875
-0.171365
0.00547696
-0.16654
0.00584086
-0.161843
0.00619237
-0.157283
0.00653336
-0.152868
0.00686556
-0.148603
0.00719054
-0.144489
0.00750969
-0.140527
0.0078243
-0.136715
0.00813562
-0.13305
0.00844496
-0.12953
0.00875374
-0.12615
0.00906358
-0.122901
0.00937625
-0.119777
0.00969361
-0.116766
0.0100174
-0.113853
0.0103489
-0.111021
-0.108248
0.0106889
8.82472e-05
-0.243281
0.000318566
-0.233771
0.000654842
-0.226089
0.00106356
-0.2195
0.00151632
-0.21357
0.00199079
-0.208
0.00247056
-0.202612
0.00294437
-0.197317
0.00340506
-0.192078
0.0038487
-0.186888
0.00427364
-0.181759
0.00467985
-0.176708
0.00506836
-0.171753
0.00544078
-0.166913
0.00579904
-0.162201
0.00614511
-0.157629
0.0064809
-0.153204
0.00680816
-0.14893
0.00712844
-0.144809
0.00744312
-0.140841
0.00775347
-0.137025
0.00806069
-0.133358
0.00836605
-0.129836
0.00867097
-0.126454
0.00897708
-0.123208
0.00928621
-0.120087
0.00960035
-0.11708
0.00992142
-0.114174
0.010251
-0.11135
-0.108587
0.0105899
8.94291e-05
-0.243371
0.000321519
-0.234003
0.000659228
-0.226427
0.00106842
-0.219909
0.00152038
-0.214022
0.00199274
-0.208472
0.00246921
-0.203088
0.00293872
-0.197786
0.00339435
-0.192533
0.00383237
-0.187326
0.00425135
-0.182178
0.00465143
-0.177108
0.00503375
-0.172135
0.00540007
-0.167279
0.00575237
-0.162554
0.0060927
-0.15797
0.00642299
-0.153534
0.00674501
-0.149252
0.00706032
-0.145125
0.00737026
-0.141151
0.00767608
-0.137331
0.00797894
-0.13366
0.00828008
-0.130137
0.00858088
-0.126755
0.00888298
-0.12351
0.0091883
-0.120392
0.00949893
-0.117391
0.00981699
-0.114492
0.0101443
-0.111678
-0.108925
0.0104821
9.0459e-05
-0.243461
0.000324088
-0.234237
0.000662952
-0.226766
0.0010723
-0.220318
0.00152312
-0.214473
0.00199301
-0.208942
0.0024658
-0.203561
0.00293063
-0.198251
0.00338083
-0.192983
0.00381288
-0.187758
0.00422554
-0.182591
0.00461913
-0.177501
0.00499495
-0.172511
0.00535483
-0.167639
0.00570085
-0.1629
0.00603511
-0.158304
0.00635959
-0.153859
0.00667606
-0.149569
0.00698608
-0.145435
0.007291
-0.141456
0.007592
-0.137632
0.00789022
-0.133959
0.00818684
-0.130433
0.00848323
-0.127052
0.00878103
-0.123807
0.00908221
-0.120693
0.00938901
-0.117698
0.00970375
-0.114807
0.0100285
-0.112002
-0.109261
0.0103649
9.13445e-05
-0.243552
0.000326295
-0.234472
0.000666073
-0.227106
0.00107529
-0.220727
0.00152463
-0.214922
0.00199167
-0.209409
0.0024604
-0.20403
0.00292018
-0.198711
0.00336457
-0.193428
0.00379028
-0.188184
0.00419627
-0.182997
0.00458303
-0.177888
0.00495198
-0.17288
0.00530508
-0.167992
0.00564448
-0.163239
0.00597233
-0.158632
0.00629065
-0.154177
0.00660124
-0.149879
0.00690564
-0.145739
0.00720519
-0.141756
0.00750105
-0.137928
0.0077943
-0.134252
0.0080861
-0.130725
0.00837775
-0.127343
0.00867092
-0.124101
0.00896761
-0.12099
0.00927021
-0.118
0.00958127
-0.115118
0.00990318
-0.112324
-0.109596
0.0102378
9.20859e-05
-0.243644
0.000328175
-0.234708
0.000668647
-0.227446
0.00107745
-0.221136
0.00152498
-0.21537
0.00198881
-0.209873
0.0024531
-0.204494
0.00290746
-0.199165
0.00334566
-0.193866
0.00376466
-0.188603
0.00416362
-0.183396
0.00454318
-0.178268
0.00490491
-0.173242
0.00525086
-0.168338
0.00558328
-0.163571
0.00590436
-0.158953
0.00621616
-0.154489
0.00652049
-0.150184
0.00681891
-0.146037
0.00711273
-0.142049
0.00740308
-0.138218
0.00769101
-0.13454
0.0079776
-0.131012
0.00826416
-0.12763
0.0085523
-0.124389
0.0088441
-0.121282
0.00914208
-0.118298
0.00944903
-0.115425
0.00976767
-0.112643
-0.109928
0.0101003
9.26869e-05
-0.243737
0.000329763
-0.234945
0.000670745
-0.227787
0.00107888
-0.221544
0.00152427
-0.215815
0.00198453
-0.210333
0.00244402
-0.204954
0.00289256
-0.199614
0.00332421
-0.194298
0.00373613
-0.189015
0.00412768
-0.183787
0.00449967
-0.17864
0.00485381
-0.173596
0.00519225
-0.168676
0.0055173
-0.163896
0.00583123
-0.159267
0.00613612
-0.154794
0.00643379
-0.150481
0.00672581
-0.146329
0.00701348
-0.142337
0.00729791
-0.138502
0.0075801
-0.134822
0.00786109
-0.131293
0.00814212
-0.127911
0.0084248
-0.124671
0.00871124
-0.121568
0.0090041
-0.118591
0.00930643
-0.115727
0.00962132
-0.112958
-0.110259
0.00995146
9.31481e-05
-0.24383
0.000331101
-0.235183
0.000672449
-0.228129
0.00107967
-0.221952
0.00152261
-0.216258
0.00197895
-0.210789
0.00243326
-0.205408
0.00287562
-0.200056
0.00330035
-0.194722
0.00370482
-0.189419
0.00408859
-0.184171
0.00445264
-0.179004
0.00479881
-0.173942
0.00512935
-0.169007
0.00544665
-0.164214
0.00575301
-0.159573
0.00605055
-0.155091
0.00634113
-0.150772
0.0066263
-0.146615
0.00690737
-0.142618
0.00718541
-0.13878
0.00746139
-0.135098
0.00773629
-0.131568
0.00801129
-0.128186
0.00828798
-0.124948
0.0085685
-0.121848
0.00885565
-0.118878
0.00915275
-0.116025
0.00946331
-0.113268
-0.110586
0.0097905
9.34775e-05
-0.243924
0.00033225
-0.235421
0.000673859
-0.22847
0.00107996
-0.222358
0.00152013
-0.216698
0.0019722
-0.211242
0.00242097
-0.205857
0.00285679
-0.200492
0.00327422
-0.19514
0.00367087
-0.189816
0.00404649
-0.184547
0.00440224
-0.179359
0.00474006
-0.17428
0.0050623
-0.169329
0.00537143
-0.164523
0.0056698
-0.159871
0.00595955
-0.155381
0.00624255
-0.151055
0.00652038
-0.146892
0.00679432
-0.142892
0.00706544
-0.139052
0.00733465
-0.135367
0.00760289
-0.131836
0.00787129
-0.128454
0.00814137
-0.125218
0.00841532
-0.122122
0.00869606
-0.119159
0.00898719
-0.116316
0.00929269
-0.113574
-0.110909
0.0096163
9.36965e-05
-0.244017
0.000333302
-0.235661
0.000675111
-0.228812
0.00107987
-0.222762
0.00151699
-0.217135
0.00196445
-0.211689
0.00240732
-0.2063
0.00283624
-0.200921
0.003246
-0.19555
0.00363447
-0.190205
0.00400158
-0.184914
0.00434865
-0.179706
0.00467773
-0.174609
0.00499129
-0.169643
0.00529183
-0.164823
0.00558176
-0.160161
0.00586323
-0.155663
0.00613815
-0.15133
0.00640808
-0.147162
0.00667432
-0.143158
0.0069379
-0.139315
0.00719972
-0.135629
0.00746065
-0.132097
0.00772174
-0.128715
0.0079845
-0.125481
0.00825109
-0.122389
0.00852456
-0.119432
0.00880881
-0.1166
0.00910834
-0.113873
-0.111229
0.00942754
9.38363e-05
-0.244111
0.000334373
-0.235902
0.000676367
-0.229154
0.00107959
-0.223166
0.00151335
-0.217569
0.00195586
-0.212132
0.00239249
-0.206736
0.00281415
-0.201343
0.0032159
-0.195951
0.00359583
-0.190584
0.00395408
-0.185272
0.00429209
-0.180044
0.00461208
-0.174929
0.00491655
-0.169947
0.00520809
-0.165115
0.00548912
-0.160442
0.00576182
-0.155935
0.00602811
-0.151596
0.00628955
-0.147424
0.00654744
-0.143416
0.00680279
-0.13957
0.00705648
-0.135883
0.00730932
-0.13235
0.00756231
-0.128968
0.00781687
-0.125736
0.00807516
-0.122647
0.00834032
-0.119698
0.00861657
-0.116876
0.00890895
-0.114166
-0.111542
0.00922267
9.39654e-05
-0.244205
0.00033564
-0.236143
0.000677838
-0.229496
0.00107933
-0.223567
0.00150943
-0.217999
0.00194666
-0.212569
0.0023767
-0.207166
0.00279075
-0.201757
0.00318415
-0.196345
0.0035552
-0.190956
0.00390424
-0.185621
0.00423286
-0.180373
0.00454338
-0.17524
0.00483839
-0.170242
0.0051205
-0.165397
0.00539217
-0.160714
0.0056556
-0.156199
0.00591269
-0.151853
0.00616501
-0.147676
0.00641384
-0.143665
0.00666021
-0.139817
0.00690493
-0.136127
0.00714879
-0.132594
0.0073927
-0.129212
0.00763802
-0.125981
0.00788686
-0.122896
0.00814245
-0.119953
0.00840928
-0.117143
0.00869304
-0.11445
-0.111849
0.00899987
9.42034e-05
-0.244299
0.00033734
-0.236386
0.000679792
-0.229839
0.00107935
-0.223967
0.00150547
-0.218425
0.00193707
-0.213
0.00236017
-0.207589
0.00276628
-0.202163
0.00315099
-0.196729
0.00351284
-0.191317
0.00385234
-0.185961
0.00417125
-0.180692
0.00447197
-0.17554
0.00475716
-0.170527
0.00502946
-0.165669
0.00529133
-0.160976
0.00554498
-0.156452
0.0057923
-0.1521
0.00603484
-0.147919
0.00627387
-0.143904
0.0065104
-0.140053
0.00674521
-0.136362
0.00697904
-0.132827
0.00721275
-0.129446
0.00744759
-0.126216
0.00768561
-0.123134
0.00793009
-0.120198
0.0081858
-0.117399
0.00845911
-0.114723
-0.112147
0.00875726
9.47705e-05
-0.244394
0.000339835
-0.236631
0.00068258
-0.230181
0.00107994
-0.224364
0.00150174
-0.218847
0.00192734
-0.213426
0.00234316
-0.208005
0.00274099
-0.202561
0.00311669
-0.197105
0.00346903
-0.19167
0.00379871
-0.18629
0.00410762
-0.181001
0.00439825
-0.175831
0.0046733
-0.170803
0.00493543
-0.165931
0.00518711
-0.161228
0.00543051
-0.156696
0.0056675
-0.152337
0.0058996
-0.148151
0.00612805
-0.144133
0.00635382
-0.140279
0.00657768
-0.136586
0.00680029
-0.13305
0.00702245
-0.129668
0.00724533
-0.126439
0.0074709
-0.12336
0.00770242
-0.120429
0.00794495
-0.117641
0.00820555
-0.114983
-0.112434
0.00849267
9.60439e-05
-0.24449
0.000343664
-0.236879
0.000686669
-0.230524
0.00108149
-0.224759
0.00149855
-0.219264
0.00191776
-0.213845
0.00232592
-0.208413
0.00271512
-0.20295
0.00308151
-0.197472
0.00342407
-0.192012
0.00374368
-0.18661
0.00404234
-0.1813
0.00432264
-0.176111
0.0045873
-0.171067
0.00483899
-0.166183
0.00508014
-0.161469
0.00531289
-0.156929
0.00553904
-0.152564
0.00576007
-0.148372
0.00597717
-0.14435
0.00619124
-0.140493
0.00640298
-0.136798
0.00661302
-0.13326
0.00682206
-0.129877
0.00703116
-0.126648
0.00724221
-0.123571
0.00745846
-0.120645
0.0076851
-0.117868
0.00792987
-0.115228
-0.112707
0.00820271
9.86852e-05
-0.244589
0.000349598
-0.23713
0.000692605
-0.230867
0.00108437
-0.225151
0.00149619
-0.219676
0.00190857
-0.214258
0.00230869
-0.208813
0.00268894
-0.20333
0.00304573
-0.197828
0.00337826
-0.192345
0.00368759
-0.186919
0.00397583
-0.181588
0.00424563
-0.176381
0.00449973
-0.171321
0.00474078
-0.166424
0.00497118
-0.161699
0.00519298
-0.15715
0.0054079
-0.152778
0.00561734
-0.148581
0.00582238
-0.144555
0.00602383
-0.140695
0.00622229
-0.136996
0.00641827
-0.133456
0.00661233
-0.130071
0.00680543
-0.126841
0.0069993
-0.123765
0.00719712
-0.120843
0.00740412
-0.118075
0.00762855
-0.115453
-0.112962
0.0078828
0.000103666
-0.244693
0.000358505
-0.237385
0.000700882
-0.23121
0.00108892
-0.225539
0.00149495
-0.220082
0.00190004
-0.214663
0.00229171
-0.209205
0.00266268
-0.203701
0.00300959
-0.198175
0.00333189
-0.192667
0.00363078
-0.187218
0.0039085
-0.181866
0.00416772
-0.17664
0.0044112
-0.171565
0.00464156
-0.166655
0.0048611
-0.161919
0.00507181
-0.157361
0.00527529
-0.152982
0.00547279
-0.148779
0.00566526
-0.144747
0.00585334
-0.140883
0.00603746
-0.13718
0.00621794
-0.133637
0.00639513
-0.130248
0.00656972
-0.127015
0.00674324
-0.123938
0.00691867
-0.121019
0.00710126
-0.118257
0.00730002
-0.115651
-0.113192
0.0075307
0.000112153
-0.244805
0.000371206
-0.237644
0.000712056
-0.231551
0.00109558
-0.225922
0.00149519
-0.220482
0.00189243
-0.21506
0.00227519
-0.209588
0.0026365
-0.204062
0.00297329
-0.198512
0.0032852
-0.192979
0.00357357
-0.187506
0.00384074
-0.182133
0.00408941
-0.176889
0.00432234
-0.171798
0.00454208
-0.166874
0.00475087
-0.162127
0.00495057
-0.157561
0.00514262
-0.153174
0.00532812
-0.148964
0.00550778
-0.144927
0.00568204
-0.141057
0.00585106
-0.137349
0.00601486
-0.1338
0.00617346
-0.130407
0.00632718
-0.127169
0.00647717
-0.124088
0.00662616
-0.121168
0.00677932
-0.118411
0.00694676
-0.115819
-0.113391
0.00714541
0.000125857
-0.244931
0.000389638
-0.237908
0.000727702
-0.231889
0.00110531
-0.2263
0.00149738
-0.220874
0.00188592
-0.215448
0.00225918
-0.209961
0.00261047
-0.204414
0.00293691
-0.198838
0.00323831
-0.19328
0.00351616
-0.187784
0.00377285
-0.182389
0.00401112
-0.177127
0.00423371
-0.17202
0.00444312
-0.167084
0.00464149
-0.162326
0.00483052
-0.15775
0.0050115
-0.153355
0.00518528
-0.149138
0.00535233
-0.145094
0.00551272
-0.141217
0.00566621
-0.137503
0.00581234
-0.133946
0.00595056
-0.130545
0.00608061
-0.127299
0.00620319
-0.124211
0.00632064
-0.121285
0.00643724
-0.118527
0.00656167
-0.115943
-0.113536
0.00670665
0.000151055
-0.245082
0.000419835
-0.238176
0.000750835
-0.23222
0.00111902
-0.226668
0.00150153
-0.221256
0.0018803
-0.215827
0.00224348
-0.210324
0.00258442
-0.204754
0.00290037
-0.199154
0.00319125
-0.193571
0.00345865
-0.188052
0.00370504
-0.182636
0.00393318
-0.177355
0.0041458
-0.172233
0.00434535
-0.167283
0.00453386
-0.162514
0.00471293
-0.157929
0.00488365
-0.153526
0.00504664
-0.149301
0.00520199
-0.145249
0.00534933
-0.141365
0.00548774
-0.137641
0.00561583
-0.134075
0.00573182
-0.130661
0.00583393
-0.127401
0.00592115
-0.124298
0.00599397
-0.121358
0.00605406
-0.118587
0.00610773
-0.115997
-0.1136
0.00617215
0.000208479
-0.24529
0.000467922
-0.238436
0.000780992
-0.232533
0.00113526
-0.227022
0.00150647
-0.221628
0.00187483
-0.216196
0.00222766
-0.210677
0.00255814
-0.205085
0.00286358
-0.19946
0.00314402
-0.193852
0.00340115
-0.188309
0.0036375
-0.182872
0.00385588
-0.177574
0.00405901
-0.172436
0.00424932
-0.167474
0.0044288
-0.162694
0.00459895
-0.158099
0.00476074
-0.153687
0.00491461
-0.149455
0.0050604
-0.145395
0.00519731
-0.141502
0.00532376
-0.137768
0.00543716
-0.134188
0.00553377
-0.130758
0.00560851
-0.127476
0.00565485
-0.124344
0.00566468
-0.121368
0.00562845
-0.118551
0.00554622
-0.115915
-0.113599
0.00554497
0.247831
0.000146669
-0.247977
0.247717
0.000113875
0.247616
0.000100179
0.247523
9.32638e-05
0.247434
8.93963e-05
0.247346
8.75645e-05
0.247259
8.7074e-05
0.247172
8.73518e-05
0.247084
8.80012e-05
0.246995
8.8801e-05
0.246905
8.96213e-05
0.246815
9.03896e-05
0.246724
9.10728e-05
0.246632
9.16488e-05
0.24654
9.21121e-05
0.246448
9.24572e-05
0.246355
9.26856e-05
0.246262
9.27966e-05
0.246169
9.27817e-05
0.246077
9.26365e-05
0.245984
9.23421e-05
0.245893
9.18683e-05
0.245801
9.11519e-05
0.245711
9.01046e-05
0.245623
8.85193e-05
0.245537
8.61209e-05
0.245455
8.18229e-05
0.24538
7.49796e-05
0.245324
5.62082e-05
3.35051e-05
0.244262
0.000313985
-0.24443
0.244085
0.000291541
0.243906
0.00027948
0.243725
0.000274186
0.243542
0.000272034
0.243358
0.000271876
0.243171
0.000273242
0.242983
0.000275635
0.242793
0.000278612
0.2426
0.000281857
0.242404
0.000285172
0.242206
0.000288427
0.242005
0.000291527
0.241803
0.000294414
0.241598
0.000297046
0.241391
0.000299394
0.241182
0.00030144
0.240972
0.000303166
0.24076
0.00030455
0.240547
0.000305567
0.240333
0.000306174
0.240119
0.000306309
0.239904
0.00030585
0.23969
0.000304621
0.239476
0.000302273
0.239264
0.000298337
0.239054
0.000291506
0.238848
0.00028111
0.238642
0.000261707
0.000239916
0.240012
0.000477533
-0.240176
0.239831
0.000473105
0.239638
0.000472318
0.239437
0.000475519
0.239228
0.000480887
0.239012
0.000487473
0.23879
0.000494969
0.238563
0.000503103
0.23833
0.000511578
0.238092
0.00052014
0.237848
0.0005286
0.2376
0.000536824
0.237347
0.000544711
0.237089
0.000552183
0.236827
0.000559185
0.23656
0.000565672
0.23629
0.000571609
0.236016
0.000576972
0.235739
0.000581723
0.235459
0.000585828
0.235176
0.000589232
0.23489
0.000591851
0.234603
0.000593554
0.234313
0.000594146
0.234022
0.00059329
0.23373
0.000590581
0.233436
0.000585147
0.233141
0.000576714
0.232839
0.000563022
0.000546613
0.235005
0.000621046
-0.235149
0.234844
0.000633786
0.234669
0.000647233
0.234483
0.00066232
0.234285
0.000678504
0.234077
0.000695212
0.23386
0.000712194
0.233634
0.000729285
0.233399
0.000746288
0.233156
0.000763017
0.232906
0.000779318
0.232647
0.000795072
0.232382
0.000810187
0.232109
0.00082459
0.23183
0.000838226
0.231545
0.000851047
0.231254
0.000863021
0.230956
0.000874114
0.230654
0.000884297
0.230346
0.000893533
0.230034
0.000901771
0.229717
0.000908938
0.229395
0.000914922
0.22907
0.000919568
0.22874
0.00092263
0.228407
0.000923848
0.22807
0.000922733
0.227727
0.000919147
0.227378
0.000912088
0.000902413
0.22939
0.00073159
-0.229501
0.229263
0.000760609
0.229121
0.000789101
0.228966
0.0008178
0.228798
0.0008467
0.228617
0.00087554
0.228425
0.000904126
0.228222
0.000932324
0.228009
0.000959995
0.227785
0.000986993
0.227551
0.00101319
0.227307
0.00103849
0.227055
0.00106281
0.226793
0.00108608
0.226523
0.00110825
0.226245
0.00112927
0.225959
0.00114912
0.225665
0.00116777
0.225364
0.0011852
0.225057
0.00120138
0.224742
0.00121627
0.224421
0.00122984
0.224094
0.00124201
0.223761
0.00125267
0.223422
0.0012617
0.223077
0.00126894
0.222725
0.00127414
0.222367
0.00127723
0.222002
0.00127783
0.00127642
0.223333
0.000804268
-0.223406
0.223245
0.000849128
0.223141
0.0008929
0.223023
0.000936046
0.222891
0.000978704
0.222745
0.00102079
0.222587
0.00106217
0.222417
0.00110272
0.222235
0.00114235
0.222041
0.00118093
0.221835
0.00121836
0.221619
0.00125455
0.221393
0.00128941
0.221156
0.00132289
0.220909
0.00135494
0.220653
0.00138552
0.220388
0.0014146
0.220113
0.00144217
0.21983
0.00146822
0.219539
0.00149272
0.219239
0.00151569
0.218932
0.00153709
0.218617
0.00155691
0.218295
0.00157511
0.217965
0.00159163
0.217627
0.00160642
0.217282
0.00161939
0.216929
0.00163057
0.216567
0.00163984
0.00164764
0.217011
0.000840499
-0.217047
0.216959
0.000900866
0.216892
0.000959842
0.21681
0.00101767
0.216715
0.0010745
0.216605
0.00113032
0.216482
0.00118505
0.216346
0.00123858
0.216198
0.00129082
0.216037
0.00134169
0.215864
0.00139107
0.21568
0.00143889
0.215484
0.00148507
0.215278
0.00152956
0.21506
0.0015723
0.214833
0.00161326
0.214595
0.00165243
0.214347
0.00168979
0.21409
0.00172534
0.213824
0.00175909
0.213548
0.00179106
0.213264
0.00182127
0.212971
0.00184973
0.21267
0.00187648
0.21236
0.00190152
0.212041
0.00192489
0.211714
0.00194661
0.211378
0.00196678
0.211032
0.00198544
0.00200297
0.210584
0.0008452
-0.210588
0.210564
0.000920661
0.210529
0.000994519
0.21048
0.00106689
0.210417
0.00113788
0.210339
0.00120751
0.210249
0.0012757
0.210145
0.00134238
0.210028
0.00140746
0.209899
0.00147085
0.209758
0.00153246
0.209604
0.00159222
0.20944
0.00165005
0.209263
0.0017059
0.209076
0.00175971
0.208878
0.00181145
0.208669
0.00186112
0.20845
0.0019087
0.208221
0.00195421
0.207983
0.00199768
0.207734
0.00203916
0.207477
0.00207869
0.20721
0.00211634
0.206935
0.00215219
0.20665
0.00218632
0.206356
0.00221884
0.206053
0.00224985
0.20574
0.00227951
0.205417
0.00230793
0.00233547
0.204183
0.00082469
-0.204162
0.204188
0.000914725
0.20418
0.001003
0.204157
0.00108954
0.204121
0.00117441
0.204071
0.00125763
0.204007
0.00133913
0.203931
0.00141884
0.203842
0.00149666
0.20374
0.00157253
0.203626
0.00164635
0.2035
0.00171803
0.203363
0.00178752
0.203214
0.00185475
0.203054
0.00191967
0.202883
0.00198226
0.202702
0.0020425
0.20251
0.00210041
0.202308
0.00215599
0.202097
0.00220931
0.201875
0.00226043
0.201645
0.00230944
0.201404
0.00235644
0.201155
0.00240158
0.200896
0.00244498
0.200628
0.00248684
0.200351
0.0025273
0.200064
0.0025666
0.199767
0.0026049
0.00264252
0.197903
0.000785403
-0.197864
0.197928
0.000889441
0.19794
0.000991583
0.197938
0.00109181
0.197922
0.00119014
0.197893
0.00128657
0.197851
0.00138104
0.197796
0.00147348
0.197729
0.00156378
0.19765
0.00165187
0.197559
0.00173765
0.197456
0.00182106
0.197341
0.001902
0.197215
0.00198043
0.197079
0.00205629
0.196932
0.00212956
0.196774
0.00220022
0.196606
0.00226829
0.196428
0.0023338
0.196241
0.00239683
0.196044
0.00245746
0.195837
0.00251582
0.195622
0.00257206
0.195397
0.00262636
0.195163
0.00267892
0.19492
0.00272999
0.194667
0.00277979
0.194405
0.00282862
0.194133
0.00287666
0.00292425
0.191811
0.000733186
-0.191759
0.19185
0.00085065
0.191876
0.0009661
0.191888
0.00107948
0.191887
0.00119078
0.191874
0.00129998
0.191848
0.001407
0.19181
0.00151175
0.191759
0.00161415
0.191697
0.0017141
0.191623
0.00181151
0.191538
0.00190629
0.191442
0.00199837
0.191334
0.00208768
0.191216
0.00217416
0.191088
0.0022578
0.19095
0.00233857
0.190802
0.0024165
0.190644
0.00249164
0.190477
0.00256406
0.1903
0.00263388
0.190115
0.00270126
0.18992
0.0027664
0.189717
0.00282952
0.189505
0.0028909
0.189284
0.00295084
0.189055
0.00300965
0.188815
0.00306767
0.188567
0.00312516
0.00318246
0.185947
0.000672975
-0.185887
0.185994
0.000803315
0.186029
0.000931535
0.186051
0.00105755
0.18606
0.00118132
0.186058
0.00130281
0.186043
0.00142193
0.186016
0.00153857
0.185977
0.00165265
0.185927
0.00176405
0.185866
0.00187269
0.185794
0.00197846
0.185711
0.00208128
0.185618
0.00218109
0.185514
0.00227781
0.1854
0.00237143
0.185277
0.00246192
0.185144
0.00254931
0.185002
0.00263365
0.184851
0.00271503
0.184692
0.0027936
0.184523
0.00286955
0.184347
0.0029431
0.184162
0.00301456
0.183968
0.00308425
0.183767
0.00315255
0.183556
0.00321987
0.183337
0.0032866
0.183109
0.00335311
0.00341973
0.180332
0.000608698
-0.180267
0.180383
0.000751417
0.180423
0.000891917
0.18045
0.00103008
0.180466
0.00116587
0.18047
0.00129919
0.180462
0.00142997
0.180442
0.00155808
0.180411
0.00168341
0.180369
0.00180586
0.180317
0.00192532
0.180254
0.00204167
0.18018
0.00215484
0.180096
0.00226474
0.180003
0.00237129
0.1799
0.00247447
0.179788
0.00257425
0.179666
0.00267066
0.179536
0.00276374
0.179398
0.00285361
0.179251
0.00294041
0.179096
0.00302437
0.178933
0.00310578
0.178763
0.00318497
0.178585
0.00326235
0.178399
0.0033384
0.178205
0.0034136
0.178003
0.00348847
0.177793
0.00356345
0.00363894
0.174971
0.000543332
-0.174906
0.175025
0.000698001
0.175066
0.000850348
0.175096
0.00100024
0.175114
0.00114762
0.175121
0.00129237
0.175117
0.0014344
0.175101
0.00157358
0.175075
0.00170979
0.175038
0.0018429
0.17499
0.00197279
0.174933
0.00209935
0.174865
0.00222248
0.174788
0.00234208
0.174701
0.00245807
0.174605
0.0025704
0.1745
0.00267904
0.174387
0.00278402
0.174265
0.00288536
0.174135
0.00298321
0.173998
0.0030777
0.173853
0.0031691
0.173701
0.00325773
0.173542
0.00334399
0.173376
0.00342837
0.173203
0.00351145
0.173023
0.00359383
0.172835
0.00367615
0.17264
0.00375899
0.00384282
0.169863
0.000479033
-0.169799
0.169916
0.000645283
0.169957
0.00080911
0.169987
0.000970369
0.170006
0.00112897
0.170013
0.00128481
0.17001
0.00143774
0.169996
0.00158764
0.169971
0.00173438
0.169936
0.0018778
0.169891
0.00201779
0.169836
0.00215422
0.169772
0.00228695
0.169698
0.00241589
0.169615
0.00254095
0.169524
0.00266205
0.169423
0.00277915
0.169315
0.00289226
0.169199
0.00300142
0.169076
0.00310674
0.168945
0.00320839
0.168807
0.00330663
0.168663
0.00340183
0.168513
0.00349445
0.168356
0.00358508
0.168193
0.00367441
0.168024
0.00376318
0.167848
0.00385219
0.167665
0.00394221
0.00403384
0.164999
0.000417269
-0.164937
0.165049
0.000594799
0.165088
0.000769803
0.165117
0.000942122
0.165134
0.00111165
0.16514
0.00127826
0.165136
0.00144181
0.165122
0.00160214
0.165097
0.00175911
0.165062
0.00191256
0.165018
0.00206235
0.164964
0.00220833
0.1649
0.00235038
0.164828
0.00248835
0.164747
0.00262215
0.164657
0.00275167
0.164559
0.00287688
0.164454
0.00299773
0.164341
0.00311428
0.164221
0.0032266
0.164095
0.00333487
0.163962
0.00343936
0.163823
0.00354048
0.163679
0.00363874
0.163529
0.00373482
0.163374
0.00382954
0.163213
0.00392383
0.163047
0.00401871
0.162874
0.00411516
0.00421398
0.160365
0.000358984
-0.160307
0.160412
0.000547548
0.160448
0.000733481
0.160474
0.000916613
0.160489
0.00109682
0.160493
0.00127396
0.160487
0.00144787
0.160471
0.00161839
0.160444
0.00178535
0.160408
0.00194859
0.160363
0.00210793
0.160308
0.00226323
0.160244
0.00241433
0.160171
0.00256107
0.16009
0.00270333
0.160001
0.002841
0.159904
0.00297399
0.159799
0.00310225
0.159688
0.00322579
0.15957
0.00334468
0.159445
0.00345908
0.159315
0.00356927
0.15918
0.00367564
0.15904
0.00377879
0.158896
0.00387949
0.158746
0.00397868
0.158593
0.00407755
0.158434
0.00417735
0.15827
0.00427939
0.00438474
0.155948
0.000304723
-0.155893