/*--------------------------------*- C++ -*----------------------------------*\
| =========                 |                                                 |
| \\      /  F ield         | OpenFOAM: The Open Source CFD Toolbox           |
|  \\    /   O peration     | Version:  v1912                                 |
|   \\  /    A nd           | Website:  www.openfoam.com                      |
|    \\/     M anipulation  |                                                 |
\*---------------------------------------------------------------------------*/
FoamFile
{
    version     2.0;
    format      ascii;
    class       surfaceScalarField;
    location    "6.5";
    object      phi;
}
// * * * * * * * * * * * * * * * * * * * * * * * * * * * * * * * * * * * * * //

dimensions      [0 3 -1 0 0 0 0];
oriented        oriented;


internalField   nonuniform List<scalar> 
18940
(
0.00015457
-0.237725
0.23757
0.0006516
-0.221724
0.221227
0.00141687
-0.209652
0.208887
0.00234339
-0.200005
0.199079
0.00336563
-0.19179
0.190768
0.00443033
-0.184362
0.183297
0.00549834
-0.177367
0.176299
0.00654385
-0.170628
0.169582
0.00755164
-0.164068
0.16306
0.00851428
-0.157669
0.156706
0.00942992
-0.151437
0.150522
0.0103005
-0.145394
0.144524
0.0111306
-0.13956
0.13873
0.0119261
-0.133953
0.133157
0.0126941
-0.128583
0.127815
0.0134416
-0.123452
0.122704
0.0141756
-0.118555
0.117821
0.0149016
-0.113877
0.113151
0.0156233
-0.109397
0.108676
-0.105087
0.104369
0.0163412
0.000173249
-0.237898
0.000689302
-0.22224
0.00146014
-0.210423
0.00239539
-0.200941
0.00342288
-0.192817
0.00448869
-0.185428
0.00555425
-0.178433
0.00659439
-0.171668
0.00759458
-0.165068
0.00854814
-0.158622
0.00945388
-0.152343
0.0103143
-0.146255
0.0111344
-0.14038
0.0119204
-0.134739
0.0126796
-0.129342
0.0134195
-0.124192
0.0141473
-0.119283
0.0148693
-0.114599
0.0155894
-0.110117
-0.105807
0.016309
0.000191155
-0.238089
0.000721174
-0.22277
0.00150056
-0.211202
0.00244271
-0.201883
0.00347407
-0.193849
0.00453969
-0.186493
0.00560133
-0.179494
0.00663453
-0.172701
0.00762559
-0.166059
0.00856862
-0.159565
0.00946312
-0.153238
0.0103121
-0.147104
0.011121
-0.141189
0.0118964
-0.135514
0.0126458
-0.130091
0.0133771
-0.124923
0.0140979
-0.120003
0.0148148
-0.115316
0.0155324
-0.110835
-0.106527
0.0162528
0.0002019
-0.238291
0.000745126
-0.223314
0.00153544
-0.211993
0.00248451
-0.202832
0.00351862
-0.194883
0.00458263
-0.187557
0.00563878
-0.180551
0.00666347
-0.173726
0.00764386
-0.16704
0.0085749
-0.160496
0.0094568
-0.15412
0.0102932
-0.14794
0.0110897
-0.141986
0.0118535
-0.136278
0.0125921
-0.13083
0.0133139
-0.125645
0.0140267
-0.120716
0.0147376
-0.116027
0.015452
-0.11155
-0.107248
0.0161725
0.000210623
-0.238502
0.000765712
-0.223869
0.00156609
-0.212793
0.00252113
-0.203787
0.00355656
-0.195918
0.00461736
-0.188618
0.00566638
-0.1816
0.00668088
-0.17474
0.00764901
-0.168008
0.00856656
-0.161414
0.00943447
-0.154987
0.0102569
-0.148763
0.01104
-0.142769
0.011791
-0.137029
0.0125179
-0.131557
0.0132291
-0.126356
0.0139329
-0.12142
0.0146371
-0.116731
0.0153475
-0.11226
-0.107968
0.0160677
0.000217764
-0.238719
0.000783376
-0.224434
0.00159271
-0.213602
0.00255251
-0.204747
0.00358775
-0.196953
0.00464367
-0.189674
0.00568381
-0.18264
0.00668642
-0.175743
0.00764062
-0.168962
0.00854312
-0.162316
0.00939559
-0.15584
0.0102028
-0.14957
0.0109711
-0.143537
0.0117082
-0.137766
0.0124223
-0.132271
0.0131218
-0.127055
0.0138157
-0.122114
0.0145121
-0.117428
0.0152178
-0.112966
-0.108687
0.0159371
0.000223961
-0.238943
0.000798869
-0.225009
0.0016158
-0.214419
0.00257886
-0.20571
0.00361226
-0.197987
0.0046615
-0.190723
0.00569094
-0.183669
0.00667985
-0.176732
0.0076184
-0.169901
0.00850422
-0.163202
0.00933973
-0.156675
0.0101302
-0.15036
0.0108825
-0.14429
0.0116045
-0.138488
0.0123044
-0.132971
0.0129911
-0.127742
0.0136738
-0.122796
0.0143613
-0.118115
0.0150613
-0.113666
-0.109405
0.0157789
0.000229379
-0.239173
0.000812444
-0.225592
0.0016356
-0.215242
0.00260034
-0.206675
0.00363013
-0.199017
0.00467082
-0.191764
0.00568768
-0.184686
0.00666105
-0.177705
0.00758215
-0.170822
0.00844958
-0.164069
0.00926651
-0.157492
0.0100388
-0.151133
0.0107736
-0.145024
0.0114789
-0.139193
0.0121633
-0.133655
0.0128358
-0.128415
0.0135059
-0.123467
0.014183
-0.118792
0.0148758
-0.114358
-0.11012
0.0155907
0.000234122
-0.239407
0.000824316
-0.226182
0.00165235
-0.216071
0.00261715
-0.207639
0.00364151
-0.200041
0.00467174
-0.192794
0.00567407
-0.185688
0.00662998
-0.178661
0.00753178
-0.171724
0.00837902
-0.164917
0.00917564
-0.158289
0.00992801
-0.151885
0.0106437
-0.14574
0.0113308
-0.139881
0.011998
-0.134322
0.0126545
-0.129071
0.0133101
-0.124122
0.0139751
-0.119457
0.0146591
-0.115042
-0.11083
0.0153697
0.000238245
-0.239645
0.000834661
-0.226779
0.0016663
-0.216902
0.00262953
-0.208603
0.00364661
-0.201058
0.00466444
-0.193812
0.00565028
-0.186674
0.00658677
-0.179598
0.00746736
-0.172604
0.00829254
-0.165742
0.009067
-0.159063
0.00979765
-0.152616
0.0104924
-0.146435
0.0111594
-0.140548
0.0118075
-0.13497
0.012446
-0.12971
0.0130849
-0.124761
0.0137353
-0.120108
0.014408
-0.115715
-0.111535
0.0151123
0.000241825
-0.239887
0.000843697
-0.227381
0.00167775
-0.217736
0.00263779
-0.209563
0.00364575
-0.202066
0.00464923
-0.194816
0.0056166
-0.187642
0.00653172
-0.180513
0.00738914
-0.173462
0.00819031
-0.166543
0.00894067
-0.159814
0.00964763
-0.153322
0.0103194
-0.147107
0.0109643
-0.141193
0.011591
-0.135597
0.0122088
-0.130327
0.0128282
-0.125381
0.0134611
-0.12074
0.0141195
-0.116374
-0.11223
0.0148145
0.000244976
-0.240132
0.000851718
-0.227987
0.00168706
-0.218572
0.00264234
-0.210518
0.00363935
-0.203063
0.00462656
-0.195803
0.00557353
-0.188588
0.00646532
-0.181405
0.00729763
-0.174294
0.00807282
-0.167318
0.00879704
-0.160538
0.00947819
-0.154004
0.0101247
-0.147753
0.010745
-0.141813
0.0113477
-0.1362
0.011942
-0.130922
0.0125385
-0.125977
0.0131499
-0.121352
0.01379
-0.117014
-0.112912
0.0144719
0.000247927
-0.24038
0.000859164
-0.228599
0.00169476
-0.219407
0.00264372
-0.211467
0.00362799
-0.204047
0.00459706
-0.196772
0.00552173
-0.189513
0.00638831
-0.182271
0.00719359
-0.175099
0.00794084
-0.168065
0.00863687
-0.161234
0.00929
-0.154657
0.00990888
-0.148372
0.0105019
-0.142406
0.0110776
-0.136775
0.0116448
-0.131489
0.0122144
-0.126547
0.0127996
-0.121937
0.0134162
-0.11763
-0.113575
0.0140799
0.000251098
-0.240631
0.000866712
-0.229214
0.00170153
-0.220242
0.00264261
-0.212408
0.00361238
-0.205017
0.0045615
-0.197721
0.00546208
-0.190414
0.00630168
-0.183111
0.00707814
-0.175876
0.00779558
-0.168783
0.00846139
-0.1619
0.00908427
-0.15528
0.00967299
-0.148961
0.0102359
-0.142969
0.0107811
-0.137321
0.0113172
-0.132025
0.0118548
-0.127084
0.0124078
-0.12249
0.012994
-0.118217
-0.114213
0.0136321
0.000255224
-0.240886
0.000875337
-0.229834
0.00170819
-0.221075
0.00263976
-0.21334
0.00359331
-0.205971
0.00452078
-0.198649
0.00539564
-0.191289
0.00620666
-0.183922
0.00695272
-0.176622
0.00763871
-0.169469
0.0082725
-0.162534
0.00886304
-0.15587
0.00941912
-0.149517
0.00994885
-0.143499
0.0104598
-0.137832
0.0109601
-0.132525
0.0114597
-0.127584
0.0119728
-0.123003
0.0125189
-0.118763
-0.114816
0.0131216
0.000261371
-0.241148
0.000886152
-0.230459
0.00171554
-0.221904
0.00263592
-0.21426
0.00357163
-0.206906
0.00447592
-0.199553
0.00532361
-0.192136
0.00610473
-0.184703
0.00681913
-0.177336
0.00747236
-0.170122
0.00807272
-0.163134
0.00862926
-0.156427
0.00915061
-0.150038
0.00964449
-0.143992
0.0101178
-0.138305
0.0105775
-0.132985
0.0110325
-0.128039
0.0114965
-0.123467
0.0119912
-0.119257
-0.115372
0.012547
0.000270839
-0.241418
0.00090023
-0.231089
0.00172448
-0.222728
0.00263203
-0.215167
0.00354835
-0.207823
0.00442802
-0.200432
0.00524732
-0.192956
0.0059975
-0.185453
0.00667937
-0.178018
0.00729907
-0.170742
0.00786514
-0.1637
0.0083866
-0.156948
0.0088718
-0.150523
0.00932788
-0.144449
0.0097608
-0.138738
0.0101761
-0.1334
0.0105811
-0.128444
0.0109879
-0.123874
0.0114195
-0.119689
-0.115864
0.0119121
0.000285964
-0.241704
0.000919969
-0.231723
0.00173713
-0.223546
0.0026296
-0.21606
0.00352458
-0.208718
0.00437811
-0.201286
0.00516794
-0.193745
0.00588654
-0.186172
0.00653557
-0.178667
0.00712163
-0.171328
0.00765336
-0.164232
0.00813952
-0.157434
0.00858788
-0.150972
0.00900469
-0.144865
0.00939466
-0.139128
0.00976183
-0.133767
0.0101112
-0.128793
0.0104513
-0.124214
0.0108018
-0.120039
-0.116263
0.0112003
0.000314493
-0.242019
0.00095297
-0.232361
0.00175743
-0.22435
0.00262989
-0.216932
0.00350066
-0.209588
0.00432652
-0.202112
0.00508617
-0.194505
0.0057731
-0.186859
0.00638975
-0.179284
0.00694313
-0.171881
0.00744185
-0.164731
0.00789421
-0.157887
0.00830697
-0.151384
0.00868476
-0.145243
0.00902995
-0.139473
0.00934326
-0.134081
0.00962441
-0.129074
0.00987263
-0.124462
0.0100983
-0.120265
-0.116534
0.0103696
0.000376119
-0.242395
0.00100971
-0.232995
0.0017842
-0.225125
0.00263069
-0.217779
0.00347514
-0.210433
0.00427259
-0.202909
0.00500201
-0.195234
0.00565785
-0.187514
0.0062434
-0.179869
0.00676622
-0.172404
0.00723513
-0.165199
0.00765816
-0.15831
0.00804132
-0.151768
0.00838761
-0.145589
0.00869636
-0.139782
0.00896211
-0.134347
0.00917253
-0.129285
0.00930585
-0.124596
0.00934608
-0.120305
-0.116621
0.00943283
0.247241
0.000296186
-0.247537
0.246974
0.000266917
0.246718
0.000255937
0.246465
0.000253097
0.246211
0.000253737
0.245956
0.000255562
0.245698
0.000257989
0.245437
0.000260507
0.245175
0.000262735
0.24491
0.000264454
0.244645
0.000265552
0.244379
0.000265984
0.244113
0.000265711
0.243848
0.000264685
0.243585
0.000262752
0.243326
0.000259663
0.243071
0.000254317
0.242825
0.0002461
0.242599
0.000225865
0.000204399
0.243111
0.00070053
-0.243516
0.242684
0.000693777
0.242239
0.0007011
0.241777
0.000715487
0.241298
0.000732377
0.240805
0.000749098
0.240297
0.000765353
0.239777
0.00078068
0.239245
0.000794613
0.238703
0.000806842
0.238151
0.000817199
0.237592
0.000825594
0.237025
0.000831953
0.236454
0.000836191
0.235879
0.000838087
0.235301
0.000837357
0.234722
0.000832767
0.234145
0.00082389
0.233567
0.000803433
0.00077678
0.237201
0.00106275
-0.237563
0.236786
0.00110881
0.236332
0.00115429
0.235846
0.00120183
0.235329
0.00124957
0.234783
0.00129497
0.234211
0.00133772
0.233614
0.00137759
0.232994
0.00141426
0.232353
0.00144748
0.231694
0.00147708
0.231016
0.00150299
0.230323
0.00152515
0.229616
0.00154352
0.228896
0.00155796
0.228165
0.00156833
0.227424
0.00157395
0.226673
0.00157484
0.225908
0.0015686
0.00155976
0.229787
0.0013445
-0.230069
0.229454
0.00144234
0.229073
0.0015347
0.228651
0.00162445
0.228188
0.00171186
0.227688
0.00179496
0.227153
0.00187335
0.226584
0.00194682
0.225983
0.00201512
0.225352
0.00207803
0.224694
0.00213541
0.22401
0.0021872
0.223301
0.0022334
0.222571
0.00227406
0.22182
0.00230923
0.221049
0.00233901
0.22026
0.00236329
0.219452
0.0023825
0.218624
0.00239599
0.00240538
0.221331
0.00152237
-0.221509
0.221102
0.00167163
0.220823
0.00181352
0.220498
0.00194994
0.220128
0.00208178
0.219715
0.00220759
0.219262
0.00232693
0.218769
0.00243952
0.218239
0.00254507
0.217674
0.00264338
0.217075
0.00273429
0.216444
0.00281778
0.215784
0.0028939
0.215095
0.0029628
0.214379
0.00302469
0.213639
0.00307994
0.212873
0.00312882
0.212084
0.00317199
0.21127
0.00320951
0.00324253
0.212298
0.00160056
-0.212376
0.212169
0.00180054
0.21199
0.00199219
0.211764
0.00217665
0.211491
0.00235471
0.211173
0.00252525
0.210812
0.00268781
0.21041
0.00284201
0.209967
0.00298752
0.209487
0.0031241
0.208969
0.00325159
0.208417
0.00336994
0.207832
0.00347926
0.207215
0.00357979
0.206568
0.00367189
0.205891
0.00375613
0.205187
0.00383312
0.204455
0.0039038
0.203696
0.00396874
0.00402926
0.203098
0.00159723
-0.203095
0.203052
0.00184645
0.202958
0.0020867
0.202816
0.00231861
0.202628
0.00254267
0.202395
0.00275793
0.202119
0.00296389
0.201801
0.0031601
0.201443
0.00334615
0.201045
0.00352175
0.20061
0.00368668
0.200139
0.00384091
0.199634
0.00398455
0.199095
0.00411789
0.198526
0.00424146
0.197926
0.00435602
0.197297
0.0044625
0.196638
0.00456216
0.195951
0.00465605
0.00474572
0.194038
0.00153432
-0.193975
0.194054
0.00183073
0.194023
0.00211765
0.193946
0.00239536
0.193825
0.00266406
0.19366
0.00292285
0.193452
0.00317118
0.193204
0.0034085
0.192916
0.00363432
0.192589
0.00384827
0.192226
0.00405009
0.191827
0.0042397
0.191394
0.00441719
0.190929
0.00458292
0.190433
0.00473754
0.189907
0.00488201
0.189352
0.00501758
0.188769
0.0051459
0.188156
0.00526853
0.00538739
0.185317
0.00143226
-0.185215
0.185374
0.00177364
0.185387
0.00210506
0.185356
0.00242653
0.185282
0.00273801
0.185166
0.0030386
0.18501
0.00332765
0.184814
0.00360451
0.184579
0.0038686
0.184308
0.00411947
0.184001
0.00435677
0.183661
0.00458034
0.183288
0.00479025
0.182884
0.00498689
0.18245
0.00517098
0.181989
0.0053437
0.1815
0.00550664
0.180984
0.00566191
0.18044
0.00581173
0.00595856
0.177051
0.00130793
-0.176927
0.177133
0.00169217
0.177172
0.00206599
0.177169
0.0024292
0.177126
0.00278154
0.177042
0.00312205
0.17692
0.00344999
0.17676
0.00376461
0.176563
0.00406521
0.176332
0.00435122
0.176066
0.00462221
0.175769
0.0048779
0.17544
0.0051183
0.175084
0.00534374
0.1747
0.00555504
0.17429
0.00575352
0.173855
0.00594118
0.173396
0.00612066
0.172913
0.00629504
0.00646763
0.169295
0.00117414
-0.169161
0.169387
0.00159941
0.16944
0.00201387
0.169452
0.00241704
0.169425
0.00280847
0.16936
0.00318717
0.169257
0.00355227
0.169119
0.0039029
0.168946
0.00423826
0.16874
0.00455764
0.168501
0.00486047
0.168233
0.00514633
0.167936
0.0054151
0.167613
0.00566703
0.167265
0.00590291
0.166894
0.00612418
0.166502
0.00633326
0.16609
0.00653336
0.165656
0.00672881
0.00692401
0.16206
0.00104015
-0.161926
0.162155
0.00150509
0.16221
0.00195867
0.162227
0.0024003
0.162206
0.00282934
0.162148
0.00324473
0.162055
0.00364548
0.161927
0.0040306
0.161766
0.00439917
0.161574
0.00475031
0.161351
0.00508329
0.1611
0.0053975
0.160822
0.00569262
0.16052
0.0059687
0.160197
0.00622645
0.159854
0.0064673
0.159493
0.00669405
0.159116
0.00691048
0.158722
0.00712264
0.00733635
0.155335
0.0009122
-0.155207
0.155424
0.00141568
0.155476
0.00190725
0.15549
0.0023862
0.155468
0.00285171
0.15541
0.0033026
0.155317
0.00373779
0.155192
0.00415617
0.155034
0.00455665
0.154846
0.00493822
0.15463
0.00529991
0.154386
0.00564088
0.154118
0.00596055
0.153828
0.00625867
0.153519
0.00653566
0.153194
0.00679277
0.152855
0.00703313
0.152504
0.00726084
0.152142
0.00748451
0.00771124
0.149092
0.000794261
-0.148974
0.149173
0.00133551
0.149216
0.00186424
0.149222
0.00237965
0.149193
0.00288073
0.14913
0.00336622
0.149032
0.00383492
0.148903
0.00428559
0.148743
0.00471699
0.148553
0.00512792
0.148336
0.00551718
0.148093
0.00588366
0.147827
0.00622639
0.147541
0.0065447
0.147238
0.00683854
0.146922
0.00710867
0.146597
0.00735834
0.146266
0.00759141
0.145931
0.00782034
0.00805243
0.143299
0.000688701
-0.143193
0.143367
0.00126697
0.143399
0.00183232
0.143395
0.00238358
0.143356
0.0029196
0.143283
0.00343903
0.143178
0.00394054
0.143041
0.00442277
0.142873
0.00488433
0.142677
0.00532381
0.142455
0.00573979
0.142208
0.0061308
0.141939
0.00649545
0.141651
0.00683248
0.141348
0.00714113
0.141036
0.00742124
0.140718
0.00767578
0.140402
0.00790727
0.140089
0.00813377
0.00835962
0.137918
0.000595819
-0.137825
0.137973
0.00121123
0.137993
0.00181281
0.137977
0.00239949
0.137927
0.00297
0.137843
0.00352285
0.137727
0.00405662
0.13758
0.00456982
0.137403
0.00506092
0.137198
0.00552833
0.136968
0.00597035
0.136714
0.00638518
0.136438
0.00677092
0.136145
0.00712559
0.135839
0.00744745
0.135525
0.00773492
0.135211
0.00799
0.134906
0.00821201
0.134613
0.00842654
0.00862635
0.132915
0.000516264
-0.132835
0.132958
0.00116849
0.132965
0.00180603
0.132936
0.00242777
0.132874
0.00303232
0.132779
0.00361811
0.132652
0.0041836
0.132494
0.0047272
0.132308
0.00524725
0.132094
0.00574197
0.131855
0.00620943
0.131593
0.00664749
0.13131
0.00705371
0.13101
0.00742532
0.130699
0.0077593
0.130381
0.0080521
0.130068
0.00830375
0.129772
0.008508
0.129498
0.00870064
0.00883917
0.128259
0.000449478
-0.128192
0.128289
0.00113813
0.128284
0.00181125
0.128244
0.00246758
0.128171
0.00310563
0.128065
0.00372372
0.127928
0.00432023
0.127762
0.00489349
0.127568
0.00544171
0.127347
0.00596298
0.127101
0.00645515
0.126833
0.00691579
0.126544
0.00734196
0.12624
0.00773009
0.125923
0.00807571
0.125603
0.00837265
0.125289
0.00861757
0.125002
0.00879474
0.124744
0.00895842
0.00898794
0.123918
0.000393955
-0.123863
0.123938
0.00111847
0.123923
0.00182647
0.123874
0.00251659
0.123792
0.00318724
0.123679
0.00383662
0.123536
0.00446306
0.123365
0.00506484
0.123167
0.00564006
0.122943
0.00618671
0.122696
0.00670248
0.122427
0.00718472
0.122139
0.00763013
0.121834
0.00803439
0.121518
0.00839183
0.121198
0.0086931
0.120885
0.00893055
0.12061
0.00906919
0.120382
0.00918701
0.00906424
0.119865
-0.119818
0.000347285
0.119877
0.00110678
0.119855
0.00184859
0.1198
0.00257106
0.119715
0.00327279
0.119599
0.0039518
0.119456
0.00460644
0.119286
0.00523491
0.119091
0.00583529
0.118872
0.00640547
0.118631
0.00694309
0.118371
0.00744534
0.118092
0.00790874
0.117798
0.00832849
0.117492
0.00869829
0.117179
0.00900599
0.116868
0.00924129
0.116594
0.00934367
0.116398
0.00938276
0.00884122
0.249412
6.17699e-05
-0.249474
0.249395
1.7737e-05
0.249388
6.58418e-06
0.249379
8.83629e-06
0.249362
1.74077e-05
0.249333
2.9184e-05
0.24929
4.30176e-05
0.249232
5.79225e-05
0.249158
7.31965e-05
0.24907
8.84626e-05
0.248966
0.000103658
0.248848
0.00011825
0.248716
0.000131845
0.248572
0.000144539
0.248415
0.000156253
0.248249
0.000166714
0.248074
0.000175112
0.247893
0.000181106
0.247713
0.000179049
0.000176275
0.244883
-0.000189615
-0.244631
0.24509
-0.000189613
0.245268
-0.000171311
0.245417
-0.000139711
0.245535
-0.000100752
0.245622
-5.79543e-05
0.245677
-1.23953e-05
0.2457
3.47341e-05
0.245691
8.23518e-05
0.245649
0.000130921
0.245572
0.000180718
0.245462
0.000228517
0.245319
0.000274367
0.245145
0.000318618
0.24494
0.000360919
0.244706
0.000400642
0.244445
0.000436658
0.244158
0.000468374
0.243846
0.000490886
0.000506388
0.236604
-0.000691368
-0.236103
0.237049
-0.000634534
0.237447
-0.000569086
0.237801
-0.000494119
0.238113
-0.000412174
0.238381
-0.000326134
0.238606
-0.00023691
0.238786
-0.000145641
0.238925
-5.64619e-05
0.239022
3.36144e-05
0.239069
0.000133384
0.239073
0.000224505
0.239034
0.000313753
0.238951
0.000401539
0.238825
0.000486721
0.238657
0.000568466
0.238448
0.000645869
0.238198
0.000718572
0.237904
0.000784818
0.000847636
0.226371
-0.00137778
-0.225684
0.227005
-0.00126829
0.227589
-0.00115315
0.228125
-0.00103079
0.228615
-0.000901678
0.229057
-0.000767955
0.22945
-0.000630792
0.229796
-0.000491386
0.230091
-0.000351049
0.230333
-0.00020892
0.230529
-6.18281e-05
0.230674
7.89724e-05
0.230772
0.000216199
0.230819
0.00035455
0.230816
0.000489221
0.230765
0.000620071
0.230664
0.000746464
0.230514
0.000868011
0.230315
0.000983845
0.00109404
0.215396
-0.0021923
-0.214581
0.216163
-0.00203558
0.216883
-0.00187305
0.217556
-0.00170371
0.218181
-0.00152731
0.218759
-0.00134541
0.219287
-0.0011592
0.219766
-0.0009697
0.220192
-0.000777807
0.220568
-0.000584135
0.220895
-0.00038908
0.22117
-0.000195654
0.221395
-8.97676e-06
0.221565
0.00018391
0.221685
0.000369792
0.221752
0.000552451
0.221768
0.000730473
0.221733
0.000903391
0.221646
0.0010705
0.00123117
0.204421
-0.00308756
-0.203526
0.205274
-0.00288818
0.206082
-0.00268155
0.206846
-0.00246731
0.207564
-0.0022452
0.208235
-0.0020165
0.208858
-0.00178241
0.209433
-0.00154409
0.209957
-0.00130267
0.210433
-0.0010593
0.210858
-0.000814848
0.211234
-0.000570896
0.211554
-0.000329041
0.211827
-8.93508e-05
0.212048
0.000149132
0.212216
0.000383635
0.212334
0.000613327
0.212399
0.000837748
0.212413
0.00105633
0.00126831
0.193885
-0.00402706
-0.192946
0.194786
-0.00378862
0.195645
-0.00354101
0.196462
-0.00328434
0.197236
-0.00301862
0.197964
-0.00274511
0.198647
-0.00246513
0.199283
-0.00218005
0.199871
-0.00189117
0.200412
-0.00159976
0.200904
-0.00130689
0.201347
-0.0010138
0.20174
-0.000721894
0.202082
-0.000431871
0.202376
-0.000144918
0.202621
0.000138994
0.202815
0.000419552
0.202958
0.000694124
0.203052
0.000962901
0.00122498
0.18401
-0.00498486
-0.183052
0.184931
-0.00471021
0.185815
-0.00442428
0.186658
-0.00412741
0.187459
-0.00382004
0.188218
-0.00350359
0.188932
-0.00317962
0.189602
-0.00284968
0.190226
-0.00251525
0.190804
-0.0021777
0.191335
-0.00183828
0.191819
-0.00149822
0.192256
-0.00115883
0.192646
-0.000820996
0.192986
-0.000485698
0.19328
-0.000154668
0.193527
0.000173037
0.193724
0.000496424
0.193874
0.000813442
0.00112357
0.174876
-0.00594407
-0.173916
0.175801
-0.00563555
0.17669
-0.00531337
0.177541
-0.00497804
0.178351
-0.00463051
0.17912
-0.00427258
0.179847
-0.0039061
0.18053
-0.00353287
0.181169
-0.00315454
0.181764
-0.00277261
0.182314
-0.00238847
0.182819
-0.00200337
0.183279
-0.00161855
0.183693
-0.00123504
0.184061
-0.000853826
0.184383
-0.000476015
0.18466
-0.000104138
0.184892
0.000264516
0.185076
0.000628854
0.000984667
0.166481
-0.00689482
-0.165531
0.1674
-0.00655443
0.168284
-0.00619758
0.169131
-0.00582492
0.169939
-0.00543817
0.170706
-0.00503969
0.171432
-0.0046317
0.172115
-0.00421628
0.172756
-0.00379529
0.173354
-0.00337037
0.173908
-0.00294297
0.174419
-0.00251439
0.174886
-0.00208586
0.17531
-0.00165847
0.175689
-0.00123326
0.176024
-0.000811149
0.176313
-0.000393127
0.176565
1.32941e-05
0.176767
0.000426179
0.000824873
0.158782
-0.00783239
-0.157845
0.15969
-0.00746209
0.160564
-0.0070717
0.161401
-0.00666221
0.1622
-0.00623657
0.162958
-0.00579789
0.163675
-0.00534885
0.16435
-0.00489185
0.164984
-0.00442899
0.165576
-0.00396201
0.166125
-0.00349242
0.166632
-0.00302153
0.167097
-0.00255057
0.167519
-0.00208069
0.167899
-0.00161294
0.168236
-0.00114839
0.168532
-0.000688482
0.168781
-0.000235628
0.168993
0.000213626
0.000657015
0.151715
-0.00875574
-0.150792
0.152611
-0.00835779
0.153474
-0.00793449
0.154299
-0.00748795
0.155086
-0.00702307
0.155832
-0.00654392
0.156537
-0.0060537
0.1572
-0.00555523
0.157822
-0.0050508
0.158402
-0.00454227
0.158941
-0.00403114
0.159438
-0.00351874
0.159894
-0.00300629
0.160308
-0.00249492
0.160681
-0.00198574
0.161012
-0.00147989
0.161302
-0.000978284
0.161549
-0.000481996
0.16176
2.54355e-06
0.000490485
0.145215
-0.00966656
-0.144304
0.146101
-0.00924391
0.146954
-0.00878753
0.147769
-0.00830273
0.148543
-0.00779744
0.149276
-0.00727677
0.149967
-0.00674461
0.150616
-0.00620423
0.151224
-0.00565816
0.15179
-0.00510824
0.152314
-0.00455595
0.152798
-0.00400256
0.153241
-0.00344924
0.153643
-0.0028971
0.154005
-0.00234725
0.154326
-0.00180082
0.154606
-0.00125882
0.154847
-0.000722971
0.155045
-0.000195124
0.000328376
0.139221
-0.0105688
-0.138319
0.140102
-0.0101253
0.140949
-0.00963422
0.141755
-0.0091085
0.142518
-0.00856042
0.143237
-0.00799626
0.143914
-0.00742075
0.144547
-0.00683768
0.145138
-0.00624963
0.145689
-0.00565834
0.146198
-0.00506513
0.146666
-0.00447114
0.147095
-0.00387744
0.147483
-0.00328509
0.14783
-0.00269516
0.148138
-0.00210878
0.148407
-0.0015271
0.148635
-0.000951451
0.148823
-0.000383214
0.000177116
0.133681
-0.0114686
-0.132782
0.134565
-0.0110087
0.135409
-0.0104784
0.136207
-0.00990696
0.136959
-0.00931225
0.137665
-0.0087017
0.138325
-0.00808107
0.138942
-0.00745448
0.139516
-0.00682423
0.14005
-0.00619172
0.140543
-0.00555795
0.140995
-0.00492381
0.141408
-0.00429021
0.141781
-0.00365811
0.142114
-0.00302856
0.142408
-0.00240268
0.142663
-0.00178165
0.142878
-0.00116666
0.143054
-0.000559138
3.81568e-05
0.128555
-0.0123759
-0.127648
0.129448
-0.011901
0.130291
-0.0113222
0.131082
-0.0106978
0.131821
-0.0100512
0.13251
-0.00939098
0.133153
-0.00872384
0.133752
-0.00805347
0.134309
-0.00738138
0.134826
-0.00670824
0.135302
-0.00603456
0.135739
-0.00536088
0.136137
-0.00468789
0.136495
-0.00401646
0.136815
-0.00334762
0.137094
-0.0026825
0.137335
-0.00202237
0.137537
-0.00136848
0.1377
-0.000722425
-8.64407e-05
0.123809
-0.0133088
-0.122876
0.124716
-0.0128077
0.125557
-0.0121634
0.126336
-0.011477
0.127058
-0.0107729
0.127728
-0.0100609
0.128352
-0.00934737
0.128932
-0.00863427
0.129472
-0.00792154
0.129973
-0.00720891
0.130435
-0.00649622
0.130858
-0.00578363
0.131241
-0.00507167
0.131586
-0.00436117
0.131892
-0.00365319
0.132158
-0.00294893
0.132385
-0.00224974
0.132574
-0.00155705
0.132724
-0.000872444
-0.000197957
0.119411
-0.0143044
-0.118416
0.120333
-0.0137297
0.121163
-0.0129934
0.121924
-0.0122375
0.122624
-0.0114729
0.123272
-0.0107095
0.123877
-0.00995191
0.124441
-0.00919847
0.124967
-0.00844699
0.125454
-0.00769614
0.125903
-0.00694521
0.126313
-0.0061941
0.126685
-0.00544329
0.127017
-0.00469367
0.127311
-0.00394643
0.127565
-0.00320289
0.127779
-0.00246454
0.127955
-0.00173295
0.128093
-0.00100981
-0.000297113
0.115339
-0.0153922
-0.114251
0.116253
-0.0146439
0.117057
-0.0137981
0.117793
-0.0129732
0.118471
-0.0121508
0.119101
-0.0113398
0.119691
-0.0105417
0.120243
-0.00975046
0.120758
-0.00896172
0.121235
-0.00817331
0.121674
-0.00738425
0.122074
-0.0065944
0.122436
-0.00580437
0.122757
-0.00501527
0.123039
-0.00422843
0.123282
-0.00344537
0.123485
-0.00266768
0.123649
-0.00189711
0.123775
-0.00113558
-0.000385256
0.111552
-0.110578
-0.0163666
0.112388
-0.0154792
0.113178
-0.0145888
0.113896
-0.0136911
0.114562
-0.012817
0.115186
-0.0119632
0.115769
-0.0111252
0.116315
-0.0102961
0.116823
-0.00946978
0.117293
-0.00864309
0.117724
-0.00781495
0.118115
-0.00698544
0.118466
-0.00615543
0.118777
-0.00532625
0.119048
-0.00449947
0.119279
-0.00367675
0.119471
-0.00285979
0.119625
-0.00205043
0.11974
-0.00125076
-0.000464016
0.0191934
0.0913139
-0.0903376
-0.0201697
0.0182219
0.0952831
-0.0943117
0.0172506
0.0994692
-0.0984979
0.0162737
0.103889
-0.102912
0.0152857
0.108563
-0.107575
0.0142817
0.113521
-0.112517
0.0132571
0.118801
-0.117777
0.0122082
0.124457
-0.123408
0.0111322
0.130557
-0.129481
0.0100268
0.137186
-0.136081
0.00889106
0.144446
-0.143311
0.00772557
0.152456
-0.15129
0.0065339
0.161343
-0.160151
0.00532456
0.171235
-0.170026
0.00411428
0.182233
-0.181023
0.00293293
0.194364
-0.193183
0.00183046
0.207505
-0.206403
0.000886294
0.221257
-0.220313
0.000213347
0.234655
-0.233982
0.245832
-0.245619
0.0193201
0.0923044
-0.0203106
0.0183348
0.0962684
0.01735
0.100454
0.0163602
0.104878
0.0153601
0.109563
0.0143445
0.114536
0.0133089
0.119837
0.0122497
0.125516
0.0111637
0.131643
0.0100488
0.138301
0.00890405
0.145591
0.00773039
0.153629
0.00653177
0.162541
0.00531737
0.17245
0.00410487
0.183446
0.00292541
0.195544
0.0018302
0.208601
0.000898063
0.222189
0.000242368
0.235311
0.246074
0.0194112
0.0933069
-0.0204136
0.0184143
0.0972654
0.0174181
0.10145
0.0164176
0.105879
0.0154072
0.110574
0.0143819
0.115562
0.0133373
0.120881
0.0122696
0.126584
0.0111755
0.132737
0.010053
0.139424
0.00890129
0.146743
0.00772143
0.154809
0.00651784
0.163745
0.00530027
0.173667
0.00408719
0.184659
0.00291057
0.19672
0.00182213
0.209689
0.000899944
0.223111
0.000251191
0.23596
0.246326
0.0194671
0.0943188
-0.0204791
0.0184607
0.0982719
0.0174554
0.102455
0.016446
0.106888
0.0154273
0.111592
0.0143943
0.116595
0.0133426
0.121933
0.0122681
0.127659
0.0111679
0.133838
0.0100397
0.140552
0.00888292
0.1479
0.00769878
0.155993
0.00649208
0.164952
0.00527309
0.174886
0.0040609
0.185871
0.00288807
0.197893
0.00180654
0.210771
0.000893382
0.224025
0.000252013
0.236601
0.246578
0.0194885
0.0953383
-0.0205081
0.0184746
0.0992858
0.0174621
0.103468
0.0164459
0.107905
0.0154207
0.112617
0.0143818
0.117633
0.0133246
0.12299
0.0122453
0.128738
0.0111407
0.134942
0.0100086
0.141684
0.00884858
0.14906
0.00766202
0.15718
0.00645403
0.16616
0.00523536
0.176105
0.00402567
0.187081
0.00285804
0.199061
0.00178455
0.211844
0.000881277
0.224928
0.000248893
0.237233
0.246826
0.0194767
0.0963636
-0.0205021
0.018457
0.100305
0.017439
0.104486
0.0164175
0.108926
0.0153876
0.113647
0.0143444
0.118677
0.0132834
0.124051
0.0122009
0.129821
0.0110937
0.13605
0.00995956
0.142818
0.00879806
0.150221
0.00761091
0.158367
0.0064035
0.167367
0.00518701
0.177321
0.00398164
0.188286
0.00282098
0.200222
0.00175715
0.212908
0.000865221
0.22582
0.000243323
0.237855
0.24707
0.0194331
0.0973934
-0.0204628
0.018409
0.10133
0.0173869
0.105508
0.0163617
0.109951
0.0153284
0.114681
0.0142824
0.119723
0.0132193
0.125114
0.0121352
0.130905
0.0110269
0.137158
0.00989248
0.143952
0.00873135
0.151382
0.00754547
0.159553
0.00634052
0.168572
0.00512811
0.178534
0.00392897
0.189485
0.00277711
0.201373
0.00172465
0.21396
0.000845659
0.226699
0.000235892
0.238465
0.247306
0.0193589
0.0984265
-0.020392
0.0183316
0.102357
0.0173065
0.106533
0.0162788
0.110979
0.0152435
0.115716
0.0141961
0.12077
0.0131322
0.126178
0.0120481
0.131989
0.0109405
0.138265
0.0098074
0.145086
0.00864844
0.152541
0.00746568
0.160736
0.00626511
0.169773
0.00505874
0.17974
0.00386777
0.190676
0.00272661
0.202515
0.00168734
0.215
0.000823037
0.227563
0.000227156
0.239061
0.247533
0.0192556
0.0994624
-0.0202916
0.0182257
0.103387
0.0171985
0.10756
0.0161692
0.112008
0.015133
0.116752
0.0140854
0.121818
0.0130223
0.127241
0.0119396
0.133071
0.0108342
0.139371
0.00970426
0.146216
0.00854928
0.153696
0.00737155
0.161913
0.00617731
0.170967
0.00497898
0.180938
0.0037982
0.191857
0.00266972
0.203643
0.00164555
0.216024
0.000797787
0.228411
0.000217502
0.239641
0.24775
0.0191243
0.100501
-0.0201632
0.0180919
0.104419
0.0170631
0.108589
0.0160329
0.113039
0.0149968
0.117788
0.0139503
0.122864
0.0128892
0.128302
0.0118095
0.134151
0.0107081
0.140472
0.00958294
0.147341
0.00843379
0.154846
0.00726303
0.163084
0.00607714
0.172153
0.00488892
0.182127
0.00372041
0.193026
0.00260667
0.204757
0.00159958
0.217031
0.000770248
0.22924
0.000207164
0.240204
0.247957
0.0189653
0.101544
-0.0200079
0.0179303
0.105454
0.0169
0.10962
0.0158696
0.114069
0.0148345
0.118823
0.0137903
0.123908
0.0127326
0.12936
0.0116574
0.135226
0.0105617
0.141568
0.00944323
0.148459
0.00830186
0.155987
0.00714008
0.164246
0.00596464
0.173328
0.00478865
0.183303