/*--------------------------------*- C++ -*----------------------------------*\
| =========                 |                                                 |
| \\      /  F ield         | OpenFOAM: The Open Source CFD Toolbox           |
|  \\    /   O peration     | Version:  v1912                                 |
|   \\  /    A nd           | Website:  www.openfoam.com                      |
|    \\/     M anipulation  |                                                 |
\*---------------------------------------------------------------------------*/
FoamFile
{
    version     2.0;
    format      ascii;
    class       volScalarField;
    location    "47";
    object      p;
}
// * * * * * * * * * * * * * * * * * * * * * * * * * * * * * * * * * * * * * //

dimensions      [0 2 -2 0 0 0 0];


internalField   nonuniform List<scalar> 
9600
(
-41.4809
-36.2158
-32.9887
-30.2513
-27.7457
-25.4788
-23.4222
-21.5481
-19.8388
-18.2808
-16.8615
-15.5689
-14.3915
-13.3187
-12.3403
-11.447
-10.6303
-9.88219
-9.19526
-8.5673
-42.2402
-36.9576
-33.6946
-30.9143
-28.3637
-26.0527
-23.9548
-22.0428
-20.2997
-18.7118
-17.2661
-15.9503
-14.7526
-13.662
-12.6677
-11.7602
-10.9307
-10.1709
-9.47283
-8.8356
-43.0012
-37.6955
-34.3951
-31.5718
-28.9758
-26.6206
-24.4813
-22.5317
-20.755
-19.1373
-17.6655
-16.3269
-15.1093
-14.0009
-12.991
-12.0695
-11.2274
-10.4559
-9.74681
-9.10051
-43.7607
-38.4289
-35.0898
-32.2228
-29.5811
-27.1815
-25.0008
-23.0138
-21.2037
-19.5566
-18.0591
-16.698
-15.4607
-14.335
-13.3097
-12.3745
-11.5199
-10.7368
-10.0168
-9.3617
-44.5156
-39.1564
-35.7775
-32.8661
-30.1785
-27.7344
-25.5125
-23.4882
-21.645
-19.969
-18.4461
-17.063
-15.8063
-14.6636
-13.6232
-12.6745
-11.8077
-11.0133
-10.2825
-9.6189
-45.264
-39.8764
-36.4572
-33.5008
-30.767
-28.2783
-26.0153
-23.954
-22.0782
-20.3735
-18.8258
-17.421
-16.1454
-14.9861
-13.931
-12.9691
-12.0903
-11.2848
-10.5434
-9.87183
-46.0039
-40.5876
-37.1276
-34.1257
-31.3454
-28.8123
-26.5084
-24.4104
-22.5024
-20.7696
-19.1975
-17.7715
-16.4774
-15.3019
-14.2325
-13.2578
-12.3674
-11.551
-10.7994
-10.1202
-46.734
-41.2886
-37.7873
-34.7396
-31.9128
-29.3353
-26.9907
-24.8565
-22.9167
-21.1563
-19.5603
-18.1136
-16.8016
-15.6104
-14.5271
-13.5399
-12.6384
-11.8115
-11.0499
-10.3637
-47.4528
-41.978
-38.4353
-35.3415
-32.468
-29.8463
-27.4613
-25.2914
-23.3203
-21.5329
-19.9136
-18.4468
-17.1173
-15.9109
-14.8141
-13.815
-12.9027
-12.0658
-11.2947
-10.6021
-48.1591
-42.6546
-39.0703
-35.9302
-33.0101
-30.3443
-27.9195
-25.7142
-23.7124
-21.8985
-20.2565
-18.7701
-17.4237
-16.2025
-15.0929
-14.0823
-13.1597
-12.3132
-11.5331
-10.8349
-48.8517
-43.3174
-39.6913
-36.5048
-33.5381
-30.8285
-28.3641
-26.124
-24.0921
-22.2523
-20.5881
-19.0827
-17.72
-16.4846
-15.3625
-14.3411
-13.4087
-12.5531
-11.7646
-11.0614
-49.5298
-43.9654
-40.2973
-37.0642
-34.0511
-31.298
-28.7945
-26.5201
-24.4586
-22.5935
-20.9077
-19.3839
-18.0053
-16.7562
-15.6222
-14.5904
-13.6488
-12.7847
-11.9884
-11.2809
-50.1927
-44.5976
-40.8873
-37.6076
-34.5481
-31.7519
-29.2097
-26.9016
-24.811
-22.9212
-21.2144
-19.6726
-18.2786
-17.0163
-15.8709
-14.8292
-13.879
-13.007
-12.2035
-11.4927
-50.8396
-45.2133
-41.4606
-38.1342
-35.0285
-32.1894
-29.6091
-27.2677
-25.1487
-23.2347
-21.5072
-19.9479
-18.5389
-17.2637
-16.1073
-15.0562
-14.0979
-13.2187
-12.4089
-11.6961
-51.4701
-45.8116
-42.0164
-38.6432
-35.4914
-32.6099
-29.9919
-27.6179
-25.471
-23.5331
-21.7855
-20.2089
-18.7851
-17.4973
-16.33
-15.2696
-14.3035
-13.4175
-12.6023
-11.8891
-52.0838
-46.3918
-42.5538
-39.134
-35.9364
-33.0128
-30.3577
-27.9516
-25.7772
-23.816
-22.0484
-20.4548
-19.0164
-17.7159
-16.5377
-15.468
-14.4941
-13.6015
-12.781
-12.0664
-52.6818
-46.9538
-43.0724
-39.6058
-36.3627
-33.3975
-30.7058
-28.2682
-26.0668
-24.0827
-22.2955
-20.6849
-19.2318
-17.9186
-16.7295
-15.6506
-14.6692
-13.7704
-12.9439
-12.2248
-53.2686
-47.4987
-43.5712
-40.0576
-36.7693
-33.7633
-31.0357
-28.5673
-26.3397
-24.3329
-22.5261
-20.8984
-19.4302
-18.1036
-16.9029
-15.8145
-14.8261
-13.9215
-13.0902
-12.3754
-53.8462
-48.0259
-44.0487
-40.4883
-37.1561
-34.1102
-31.3479
-28.8495
-26.5962
-24.5672
-22.7408
-21.0955
-19.6111
-18.2694
-17.0545
-15.9533
-14.9528
-14.0374
-13.2048
-12.5226
-54.3927
-48.5279
-44.5038
-40.8986
-37.5241
-34.4399
-31.6438
-29.1165
-26.8382
-24.7875
-22.9418
-21.2787
-19.7774
-18.4187
-17.1863
-16.0654
-15.0412
-14.1
-13.2565
-12.5805
-59.8456
-59.8141
-59.7449
-59.6525
-59.5362
-59.3935
-59.224
-59.028
-58.8062
-58.5592
-58.2874
-57.9915
-57.672
-57.3298
-56.9654
-56.5799
-56.1743
-55.7503
-55.3108
-54.8588
-53.4971
-53.4945
-53.4588
-53.3955
-53.3053
-53.1879
-53.0434
-52.8725
-52.6759
-52.4542
-52.2081
-51.9381
-51.6449
-51.3292
-50.9915
-50.6325
-50.2529
-49.8531
-49.4338
-48.9927
-48.8535
-48.8753
-48.8677
-48.8313
-48.7675
-48.6772
-48.5608
-48.419
-48.2525
-48.0619
-47.8476
-47.6104
-47.3507
-47.0692
-46.7662
-46.4422
-46.0976
-45.7324
-45.3462
-44.9372
-44.6235
-44.663
-44.6759
-44.6616
-44.6212
-44.5555
-44.4654
-44.3514
-44.2139
-44.0536
-43.8709
-43.6664
-43.4407
-43.1941
-42.927
-42.6398
-42.3326
-42.0054
-41.6578
-41.2891
-40.7123
-40.7617
-40.7871
-40.7879
-40.7643
-40.7174
-40.6477
-40.5557
-40.4418
-40.3068
-40.1509
-39.9747
-39.7788
-39.5634
-39.3289
-39.0756
-38.8036
-38.5128
-38.2031
-37.8738
-37.1998
-37.2533
-37.2851
-37.2945
-37.2816
-37.2471
-37.1915
-37.1154
-37.0191
-36.9033
-36.7684
-36.6149
-36.4431
-36.2536
-36.0466
-35.8224
-35.5811
-35.3225
-35.0466
-34.7527
-34.0768
-34.1302
-34.1639
-34.177
-34.1697
-34.1424
-34.0957
-34.0302
-33.9462
-33.8443
-33.7249
-33.5885
-33.4355
-33.2665
-33.0816
-32.8813
-32.6656
-32.4343
-32.1874
-31.9242
-31.3065
-31.3571
-31.3895
-31.4029
-31.3975
-31.3737
-31.3321
-31.273
-31.1971
-31.1047
-30.9963
-30.8725
-30.7337
-30.5804
-30.413
-30.2318
-30.037
-29.8285
-29.606
-29.3691
-28.8491
-28.8953
-28.9245
-28.9361
-28.9303
-28.9075
-28.8683
-28.8129
-28.7419
-28.6558
-28.5551
-28.4404
-28.3121
-28.1708
-28.0169
-27.851
-27.6731
-27.4834
-27.2815
-27.0669
-26.6649
-26.7059
-26.731
-26.7398
-26.7323
-26.709
-26.6704
-26.6169
-26.5489
-26.4669
-26.3715
-26.2632
-26.1426
-26.0105
-25.8672
-25.7134
-25.5494
-25.3753
-25.1909
-24.9955
-24.7166
-24.7523
-24.7731
-24.7785
-24.7688
-24.7443
-24.7054
-24.6525
-24.5862
-24.5068
-24.4151
-24.3115
-24.1967
-24.0715
-23.9366
-23.7926
-23.64
-23.4792
-23.3098
-23.1313
-22.9715
-23.0021
-23.0186
-23.0207
-23.0084
-22.9823
-22.9427
-22.8899
-22.8245
-22.7469
-22.6577
-22.5576
-22.4472
-22.3274
-22.1991
-22.063
-21.92
-21.7704
-21.6145
-21.4512
-21.4011
-21.4271
-21.4396
-21.4385
-21.4239
-21.3961
-21.3555
-21.3026
-21.2376
-21.1612
-21.0739
-20.9764
-20.8694
-20.7539
-20.6308
-20.5011
-20.3661
-20.2265
-20.0826
-19.9336
-19.9817
-20.0036
-20.0126
-20.0086
-19.9917
-19.9624
-19.9209
-19.8677
-19.803
-19.7275
-19.6417
-19.5462
-19.4418
-19.3295
-19.2105
-19.0861
-18.9578
-18.8267
-18.694
-18.5587
-18.6935
-18.7117
-18.7175
-18.7109
-18.6922
-18.6615
-18.6192
-18.5657
-18.5013
-18.4265
-18.3418
-18.2479
-18.1456
-18.0359
-17.92
-17.7996
-17.6767
-17.5529
-17.4307
-17.3088
-17.52
-17.5348
-17.5378
-17.529
-17.5085
-17.4767
-17.4338
-17.38
-17.3159
-17.2417
-17.158
-17.0654
-16.9647
-16.8568
-16.7432
-16.6256
-16.5067
-16.3886
-16.276
-16.1673
-16.4474
-16.4592
-16.4597
-16.4489
-16.427
-16.3941
-16.3506
-16.2966
-16.2327
-16.159
-16.076
-15.9844
-15.8848
-15.7781
-15.6657
-15.5495
-15.4329
-15.3186
-15.2141
-15.1173
-15.4637
-15.4731
-15.4717
-15.4594
-15.4364
-15.4028
-15.3589
-15.305
-15.2414
-15.1682
-15.086
-14.9951
-14.8963
-14.7902
-14.6782
-14.5621
-14.4458
-14.3329
-14.2354
-14.1477
-14.5578
-14.5658
-14.5634
-14.5506
-14.5275
-14.4943
-14.4512
-14.3984
-14.3361
-14.2646
-14.1842
-14.0952
-13.9982
-13.8938
-13.7828
-13.667
-13.55
-13.4367
-13.3462
-13.2726
-13.7245
-13.7293
-13.7243
-13.7097
-13.6856
-13.652
-13.6091
-13.5572
-13.4964
-13.4268
-13.3488
-13.2626
-13.1685
-13.0669
-12.9581
-12.8434
-12.7245
-12.6066
-12.5095
-12.4602
-53.5561
-54.1313
-54.6693
-55.1923
-55.6974
-56.1785
-56.633
-57.0596
-57.4574
-57.8256
-58.1635
-58.4706
-58.7466
-58.9911
-59.2034
-59.3837
-59.5328
-59.6519
-59.743
-59.8079
-47.0735
-47.6541
-48.2065
-48.7366
-49.2439
-49.7259
-50.1813
-50.6093
-51.0093
-51.3806
-51.7227
-52.0353
-52.3187
-52.5735
-52.7976
-52.9904
-53.1526
-53.2845
-53.3866
-53.4577
-42.4299
-42.9981
-43.5427
-44.0639
-44.5617
-45.0353
-45.484
-45.907
-46.3037
-46.6735
-47.0154
-47.3292
-47.6145
-47.8702
-48.0974
-48.2964
-48.4669
-48.6086
-48.7212
-48.8032
-38.3064
-38.8494
-39.3728
-39.8745
-40.3541
-40.8112
-41.2452
-41.6555
-42.0415
-42.4025
-42.7373
-43.0453
-43.3275
-43.5834
-43.8132
-44.0165
-44.1929
-44.3422
-44.464
-44.5579
-34.6292
-35.1422
-35.6381
-36.1144
-36.5701
-37.0047
-37.4179
-37.8089
-38.1769
-38.5216
-38.8433
-39.1418
-39.4156
-39.6648
-39.8896
-40.0898
-40.2649
-40.4149
-40.5396
-40.6389
-31.4312
-31.9127
-32.3788
-32.827
-33.256
-33.6655
-34.0549
-34.4237
-34.7713
-35.0976
-35.4022
-35.6847
-35.9444
-36.1815
-36.3963
-36.5884
-36.7573
-36.9029
-37.0253
-37.1245
-28.6598
-29.1104
-29.5469
-29.9668
-30.3688
-30.7524
-31.1172
-31.4628
-31.7885
-32.0943
-32.3797
-32.6444
-32.8882
-33.1108
-33.3119
-33.4933
-33.6533
-33.7915
-33.9081
-34.0033
-26.2482
-26.67
-27.0785
-27.4713
-27.8473
-28.206
-28.5468
-28.8694
-29.1733
-29.4584
-29.7243
-29.9709
-30.1981
-30.4057
-30.5938
-30.7608
-30.9102
-31.0394
-31.1483
-31.2375
-24.1379
-24.5333
-24.916
-25.2839
-25.6357
-25.971
-26.2892
-26.5901
-26.8732
-27.1384
-27.3856
-27.6147
-27.8255
-28.018
-28.1921
-28.3479
-28.4841
-28.6032
-28.7038
-28.7858
-22.2786
-22.6502
-23.0097
-23.355
-23.6848
-23.9986
-24.296
-24.5767
-24.8405
-25.0873
-25.3169
-25.5294
-25.7247
-25.9027
-26.0634
-26.2068
-26.3327
-26.4413
-26.5332
-26.6078
-20.6287
-20.9792
-21.3179
-21.643
-21.9529
-22.2472
-22.5256
-22.7878
-23.0339
-23.2636
-23.4771
-23.6744
-23.8553
-24.0199
-24.1682
-24.3001
-24.4157
-24.5149
-24.5984
-24.6658
-19.1547
-19.4863
-19.8069
-20.1139
-20.4059
-20.6825
-20.9436
-21.189
-21.4188
-21.633
-21.8318
-22.015
-22.1828
-22.3352
-22.4721
-22.5936
-22.6997
-22.7906
-22.8658
-22.9264
-17.8295
-18.1446
-18.4493
-18.7404
-19.0162
-19.2767
-19.522
-19.752
-19.9669
-20.167
-20.3522
-20.5228
-20.6786
-20.8199
-20.9465
-21.0586
-21.156
-21.2388
-21.3068
-21.3614
-16.6314
-16.9322
-17.2233
-17.5002
-17.7614
-18.0072
-18.2379
-18.4537
-18.655
-18.842
-19.015
-19.1739
-19.319
-19.4502
-19.5675
-19.671
-19.7607
-19.8366
-19.899
-19.947
-15.5436
-15.832
-16.1116
-16.3759
-16.6236
-16.8557
-17.0728
-17.2755
-17.4641
-17.6392
-17.8008
-17.9492
-18.0844
-18.2065
-18.3154
-18.4112
-18.4939
-18.5634
-18.6199
-18.6631
-14.5511
-14.831
-15.1015
-15.3538
-15.5886
-15.8077
-16.0121
-16.2023
-16.3791
-16.543
-16.6943
-16.833
-16.9592
-17.073
-17.1743
-17.2631
-17.3394
-17.4032
-17.4545
-17.4934
-13.6363
-13.9152
-14.1805
-14.4214
-14.6435
-14.8502
-15.0424
-15.2208
-15.3866
-15.5402
-15.6819
-15.8118
-15.9299
-16.0362
-16.1306
-16.2132
-16.2838
-16.3425
-16.3893
-16.4242
-12.7787
-13.0618
-13.3283
-13.5599
-13.77
-13.9651
-14.146
-14.314
-14.47
-14.6146
-14.7481
-14.8704
-14.9817
-15.0817
-15.1705
-15.2479
-15.3139
-15.3684
-15.4116
-15.4434
-11.9916
-12.2652
-12.5325
-12.7592
-12.9593
-13.1429
-13.3134
-13.4719
-13.6191
-13.7558
-13.8821
-13.998
-14.1034
-14.1982
-14.2823
-14.3555
-14.4178
-14.4692
-14.5096
-14.5392
-11.4012
-11.6519
-11.8797
-12.0964
-12.2847
-12.4506
-12.6045
-12.7487
-12.8827
-13.0069
-13.1216
-13.2268
-13.3223
-13.4079
-13.4836
-13.5491
-13.6045
-13.6497
-13.6846
-13.7091
-6.00207
-6.49327
-7.03155
-7.61387
-8.24666
-8.93732
-9.69352
-10.5247
-11.4431
-12.4643
-13.6088
-14.9035
-16.3837
-18.0958
-20.0999
-22.4754
-25.3035
-28.6064
-32.6035
-38.5992
-6.27257
-6.77729
-7.32609
-7.92046
-8.56702
-9.27284
-10.0457
-10.8954
-11.8343
-12.8784
-14.0484
-15.3717
-16.8841
-18.6321
-20.6763
-23.0959
-25.9711
-29.3207
-33.3563
-39.3731
-6.5445
-7.06275
-7.62217
-8.22883
-8.88941
-9.61066
-10.4005
-11.269
-12.2287
-13.2959
-14.4919
-15.8441
-17.3889
-19.1733
-21.2579
-23.7216
-26.6433
-30.0386
-34.1109
-40.1441
-6.81737
-7.34908
-7.91922
-8.53838
-9.2132
-9.95008
-10.7571
-11.6445
-12.6253
-13.716
-14.938
-16.3194
-17.8969
-19.7177
-21.8428
-24.3506
-27.3186
-30.7595
-34.8695
-40.924
-7.09074
-7.63584
-8.21676
-8.84863
-9.53788
-10.2906
-11.115
-12.0216
-13.0236
-14.1378
-15.3861
-16.7969
-18.4072
-20.2647
-22.4302
-24.9821
-27.9963
-31.4827
-35.6313
-41.7101
-7.36423
-7.92259
-8.51437
-9.15916
-9.86303
-10.6317
-11.4736
-12.3995
-13.4229
-14.5609
-15.8356
-17.2759
-18.9192
-20.8133
-23.0195
-25.6153
-28.6757
-32.2074
-36.3942
-42.4983
-7.63754
-8.209
-8.81168
-9.46956
-10.1882
-10.973
-11.8326
-12.7779
-13.8228
-14.9846
-16.2859
-17.7558
-19.4321
-21.363
-23.6098
-26.2495
-29.3559
-32.9324
-37.1566
-43.2864
-7.91041
-8.49477
-9.10836
-9.77951
-10.5131
-11.3141
-12.1914
-13.1562
-14.2227
-15.4084
-16.7363
-18.2359
-19.9452
-21.9129
-24.2002
-26.8837
-30.0357
-33.6567
-37.9175
-44.0727
-8.18269
-8.77968
-9.40416
-10.0887
-10.8374
-11.6547
-12.5497
-13.534
-14.6221
-15.8317
-17.1862
-18.7154
-20.4578
-22.4622
-24.7898
-27.5169
-30.7141
-34.3789
-38.6756
-44.8559
-8.45434
-9.06365
-9.69895
-10.397
-11.1607
-11.9943
-12.907
-13.9109
-15.0205
-16.254
-17.635
-19.1938
-20.9691
-23.01
-25.3778
-28.1481
-31.39
-35.098
-39.4296
-45.6345
-8.72546
-9.34669
-9.99265
-10.7042
-11.483
-12.3327
-13.2631
-14.2864
-15.4173
-16.6746
-18.082
-19.6702
-21.4782
-23.5555
-25.9631
-28.7762
-32.0622
-35.8128
-40.1781
-46.4069
-8.99636
-9.62898
-10.2853
-11.0102
-11.804
-12.6698
-13.6176
-14.66
-15.8122
-17.093
-18.5265
-20.1439
-21.9845
-24.0978
-26.5449
-29.4002
-32.7297
-36.522
-40.9198
-47.1718
-9.26751
-9.9108
-10.5771
-11.3152
-12.1235
-13.0051
-13.97
-15.0314
-16.2044
-17.5085
-18.9679
-20.6141
-22.4869
-24.6359
-27.122
-30.0189
-33.3912
-37.2243
-41.6534
-47.9278
-9.53964
-10.1926
-10.8681
-11.6189
-12.4415
-13.3383
-14.32
-15.3999
-16.5935
-17.9204
-19.4054
-21.0801
-22.9846
-25.1688
-27.6934
-30.6314
-34.0456
-37.9186
-42.3776
-48.6736
-9.8135
-10.4747
-11.1583
-11.9211
-12.7574
-13.669
-14.667
-15.7649
-16.9786
-18.328
-19.8381
-21.5409
-23.4767
-25.6956
-28.258
-31.2362
-34.6915
-38.6035
-43.0912
-49.408
-10.0901
-10.7572
-11.4475
-12.2214
-13.0706
-13.9964
-15.0101
-16.1256
-17.359
-18.7304
-20.2651
-21.9955
-23.9621
-26.2151
-28.8147
-31.8323
-35.3277
-39.2778
-43.7931
-50.1301
-10.3691
-11.0392
-11.7343
-12.5184
-13.3799
-14.3194
-15.3484
-16.4811
-17.7337
-19.1266
-20.6855
-22.4429
-24.4397
-26.7261
-29.3621
-32.4182
-35.9528
-39.9402
-44.4822
-50.8392
-10.6499
-11.3181
-12.016
-12.8102
-13.6841
-14.637
-15.681
-16.8303
-18.1017
-19.5157
-21.0982
-22.8821
-24.9084
-27.2275
-29.899
-32.9926
-36.5652
-40.5889
-45.1574
-51.5353
-10.9252
-11.5855
-12.2867
-13.0934
-13.9809
-14.9474
-16.0061
-17.172
-18.4619
-19.8964
-21.502
-23.3118
-25.367
-27.7179
-30.4239
-33.5539
-37.1633
-41.2222
-45.8173
-52.2199
-11.1764
-11.8215
-12.5418
-13.3691
-14.2709
-15.2504
-16.3235
-17.5056
-18.8133
-20.2679
-21.896
-23.731
-25.8142
-28.196
-30.9355
-34.1004
-37.7447
-41.8369
-46.4575
-52.8947
-1.58318
-1.83719
-2.18514
-2.57417
-2.99285
-3.44656
-3.94161
-4.48392
-5.08099
-5.7431
-6.48419
-7.32327
-8.28649
-9.4099
-10.7444
-12.3642
-14.3591
-16.7901
-19.9656
-25.3605
-1.73627
-2.0067
-2.37311
-2.76806
-3.19016
-3.6492
-4.15115
-4.70154
-5.30801
-5.9811
-6.73501
-7.58911
-8.56996
-9.71412
-11.0731
-12.7215
-14.7493
-17.2158
-20.4235
-25.8323
-1.88368
-2.17819
-2.55774
-2.96083
-3.39067
-3.85809
-4.36897
-4.92902
-5.54627
-6.23158
-6.9995
-7.86976
-8.86941
-10.0355
-11.4201
-13.0983
-15.1596
-17.6615
-20.9007
-26.3181
-2.05337
-2.3587
-2.74645
-3.15826
-3.59729
-4.07424
-4.59514
-5.166
-5.79515
-6.49377
-7.27675
-8.16423
-9.18372
-10.3728
-11.7841
-13.493
-15.5889
-18.1275
-21.4015
-26.8365
-2.23437
-2.54679
-2.94237
-3.36314
-3.81166
-4.29859
-4.83016
-5.41262
-6.05455
-6.7674
-7.5664
-8.47208
-9.51242
-10.7256
-12.1646
-13.9053
-16.0369
-18.6137
-21.9252
-27.3843
-2.42085
-2.74187
-3.1458
-3.57568
-4.03397
-4.53134
-5.07418
-5.66893
-6.3244
-7.05231
-7.86821
-8.79303
-9.85521
-11.0934
-12.5613
-14.3351
-16.5037
-19.1199
-22.4701
-27.9563
-2.61433
-2.94486
-3.35703
-3.79605
-4.26439
-4.77263
-5.32727
-5.93492
-6.60461
-7.34833
-8.18195
-9.12679
-10.2118
-11.4761
-12.9739
-14.7819
-16.9886
-19.6453
-23.035
-28.55
-2.8162
-3.15621
-3.57642
-4.02457
-4.50316
-5.02259
-5.58945
-6.21052
-6.89504
-7.65525
-8.50734
-9.47304
-10.5817
-11.8731
-13.4019
-15.2451
-17.4911
-20.1894
-23.6194
-29.1643
-3.02625
-3.37579
-3.804
-4.26133
-4.75034
-5.28124
-5.86068
-6.49562
-7.19551
-7.97284
-8.84411
-9.83144
-10.9647
-12.2841
-13.8449
-15.7243
-18.0106
-20.7515
-24.2226
-29.7983
-3.24386
-3.60326
-4.03958
-4.50618
-5.00579
-5.54842
-6.14079
-6.79004
-7.5058
-8.30083
-9.19193
-10.2016
-11.3602
-12.7085
-14.3022
-16.2189
-18.5465
-21.3309
-24.8436
-30.4509
-3.46863
-3.83827
-4.28283
-4.75883
-5.26925
-5.82389
-6.42954
-7.0935
-7.82561
-8.63888
-9.55044
-10.5832
-11.7679
-13.1459
-14.7735
-16.7284
-19.0981
-21.9268
-25.4818
-31.1209
-3.70014
-4.08042
-4.53338
-5.01895
-5.5404
-6.10732
-6.72657
-7.40564
-8.15456
-8.9866
-9.91921
-10.9757
-12.1873
-13.5958
-15.258
-17.252
-19.6648
-22.5385
-26.1361
-31.8073
-3.93795
-4.32924
-4.79078
-5.28612
-5.81883
-6.39833
-7.03151
-7.72607
-8.49224
-9.34355
-10.2978
-11.3786
-12.6178
-14.0576
-15.7552
-17.7891
-20.2457
-23.1652
-26.8058
-32.5092
-4.18153
-4.5842
-5.05454
-5.55985
-6.1041
-6.69645
-7.3439
-8.05432
-8.83817
-9.70924
-10.6856
-11.7914
-13.0588
-14.5306
-16.2645
-18.339
-20.8402
-23.806
-27.4899
-33.2257
-4.43033
-4.84474
-5.32411
-5.83964
-6.39568
-7.00119
-7.66323
-8.38988
-9.19184
-10.0831
-11.0822
-12.2135
-13.5098
-15.0143
-16.7851
-18.901
-21.4474
-24.4601
-28.1876
-33.9558
-4.6838
-5.11031
-5.59893
-6.12492
-6.69304
-7.31201
-7.98897
-8.73222
-9.55267
-10.4646
-11.4869
-12.6443
-13.97
-15.5078
-17.3162
-19.4742
-22.0664
-25.1266
-28.8982
-34.6989
-4.94138
-5.38031
-5.87842
-6.41514
-6.99563
-7.62835
-8.32056
-9.08075
-9.9201
-10.8532
-11.899
-13.083
-14.4387
-16.0105
-17.8571
-20.0577
-22.6965
-25.8046
-29.6207
-35.4543
-5.20253
-5.65418
-6.16201
-6.70972
-7.30286
-7.94965
-8.65741
-9.43489
-10.2935
-11.2481
-12.318
-13.5291
-14.9153
-16.5215
-18.407
-20.6508
-23.3364
-26.493
-30.3543
-36.2216
-5.46671
-5.93132
-6.4491
-7.00808
-7.61417
-8.2753
-8.99893
-9.79402
-10.6722
-11.6487
-12.7431
-13.9817
-15.3989
-17.0401
-18.9648
-21.2523
-23.9853
-27.1907
-31.0979
-37.0016
-5.73339
-6.21121
-6.73915
-7.30968
-7.92899
-8.60476
-9.34454
-10.1576
-11.0557
-12.0544
-13.1737
-14.4402
-15.8888
-17.5653
-19.5297
-21.8611
-24.6417
-27.8958
-31.8488
-37.7949
-1.3355
-1.12892
-0.975253
-0.838636
-0.718674
-0.612827
-0.519981
-0.439342
-0.370409
-0.312823
-0.266319
-0.230685
-0.20575
-0.191377
-0.187426
-0.19369
-0.20996
-0.23636
-0.273038
-0.31983
-1.66536
-1.48205
-1.32441
-1.18257
-1.05778
-0.947474
-0.850664
-0.766555
-0.694633
-0.634522
-0.585939
-0.548662
-0.522508
-0.507326
-0.502969
-0.509269
-0.526071
-0.55338
-0.59124
-0.639472
-1.99793
-1.8225
-1.66488
-1.5219
-1.39498
-1.28249
-1.18373
-1.09801
-1.02485
-0.963904
-0.914891
-0.877588
-0.851811
-0.837401
-0.834211
-0.842088
-0.860913
-0.89064
-0.931171
-0.982606
-2.38172
-2.20463
-2.04397
-1.89803
-1.76754
-1.65155
-1.54957
-1.46106
-1.38561
-1.32286
-1.27256
-1.23448
-1.20842
-1.19422
-1.19173
-1.2008
-1.22131
-1.25319
-1.29632
-1.35071
-2.80051
-2.62097
-2.45635
-2.30647
-2.17177
-2.05172
-1.94601
-1.85421
-1.77597
-1.71098
-1.65898
-1.61976
-1.59312
-1.57889
-1.5769
-1.58701
-1.6091
-1.64306
-1.68877
-1.74622
-3.25187
-3.06911
-2.90032
-2.74611
-2.60696
-2.48265
-2.373
-2.27771
-2.19649
-2.12907
-2.07523
-2.03474
-2.00742
-1.99309
-1.99158
-2.00276
-2.02648
-2.06262
-2.11104
-2.1717
-3.74197
-3.55449
-3.38079
-3.22166
-3.07761
-2.94865
-2.83471
-2.7356
-2.65109
-2.58097
-2.52502
-2.48305
-2.45487
-2.4403
-2.43919
-2.45139
-2.47674
-2.51511
-2.56635
-2.63043
-4.27761
-4.08391
-3.90422
-3.7393
-3.58965
-3.45543
-3.33665
-3.2332
-3.14494
-3.07168
-3.01325
-2.96945
-2.94012
-2.92508
-2.92417
-2.93724
-2.96415
-3.00472
-3.05882
-3.1264
-4.86647
-4.66512
-4.47821
-4.30642
-4.15026
-4.00996
-3.88561
-3.77716
-3.68452
-3.60756
-3.54611
-3.50002
-3.46913
-3.45326
-3.45226
-3.46597
-3.49424
-3.5369
-3.5938
-3.66491
-5.5187
-5.30814
-5.11258
-4.93265
-4.76884
-4.62143
-4.49055
-4.37623
-4.2784
-4.19698
-4.13184
-4.08283
-4.04981
-4.03261
-4.03107
-4.04506
-4.07439
-4.11891
-4.17844
-4.25299
-6.24805
-6.02646
-5.82058
-5.63096
-5.45809
-5.30225
-5.16364
-5.0423
-4.93824
-4.85138
-4.78162
-4.72885
-4.69292
-4.67369
-4.671
-4.6847
-4.71462
-4.76058
-4.8224
-4.90015
-7.07324
-6.83851
-6.6203
-6.41909
-6.23537
-6.06946
-5.92155
-5.79174
-5.68006
-5.58647
-5.5109
-5.45324
-5.41336
-5.39112
-5.38638
-5.39899
-5.42877
-5.47552
-5.53908
-5.61954
-8.02
-7.76959
-7.5366
-7.32148
-7.12471
-6.94662
-6.78743
-6.64728
-6.5262
-6.4242
-6.34121
-6.27715
-6.23191
-6.20534
-6.19732
-6.20769
-6.23627
-6.28285
-6.34725
-6.42962
-9.12387
-8.8547
-8.60396
-8.37204
-8.15946
-7.96657
-7.79359
-7.64069
-7.50793
-7.39533
-7.30284
-7.2304
-7.17791
-7.14523
-7.13224
-7.13878
-7.16467
-7.20966
-7.27359
-7.35664
-10.4351
-10.1435
-9.87136
-9.61912
-9.38734
-9.17637
-8.98647
-8.8178
-8.67046
-8.54446
-8.43979
-8.35639
-8.29417
-8.25301
-8.23277
-8.23332
-8.25445
-8.29589
-8.35745
-8.43939
-12.0274
-11.7089
-11.4111
-11.1343
-10.8793
-10.6463
-10.4357
-10.2475
-10.082
-9.93919
-9.81898
-9.72136
-9.64625
-9.59354
-9.56309
-9.55478
-9.56839
-9.60364
-9.66028
-9.7386
-13.9899
-13.6398
-13.3115
-13.0058
-12.723
-12.4638
-12.2283
-12.0167
-11.8291
-11.6655
-11.526
-11.4105
-11.319
-11.2513
-11.2073
-11.1869
-11.1898
-11.2159
-11.2649
-11.3367
-16.3841
-15.9985
-15.6357
-15.2969
-14.9827
-14.6936
-14.4297
-14.1911
-13.9781
-13.7905
-13.6285
-13.4919
-13.3808
-13.295
-13.2346
-13.1992
-13.1889
-13.2034
-13.2424
-13.3051
-19.521
-19.0955
-18.6939
-18.3186
-17.9699
-17.648
-17.3528
-17.0843
-16.8425
-16.6274
-16.4389
-16.2772
-16.1421
-16.0336
-15.9516
-15.8959
-15.8666
-15.8638
-15.8874
-15.9354
-24.8579
-24.3874
-23.9513
-23.5466
-23.1711
-22.8238
-22.5043
-22.2125
-21.9484
-21.7119
-21.5031
-21.322
-21.1688
-21.0434
-20.9461
-20.8768
-20.8363
-20.8269
-20.8499
-20.895
-0.376614
-0.443072
-0.519164
-0.604811
-0.699928
-0.804408
-0.918121
-1.0409
-1.17254
-1.31277
-1.4612
-1.61732
-1.78033
-1.949
-2.12168
-2.2961
-2.46777
-2.62691
-2.75812
-2.8878
-0.698135
-0.766869
-0.8456
-0.934218
-1.03262
-1.14067
-1.25823
-1.3851
-1.52105
-1.66578
-1.81886
-1.97975
-2.14768
-2.32148
-2.49953
-2.68019
-2.86168
-3.03628
-3.18878
-3.36092
-1.04476
-1.11734
-1.20028
-1.29347
-1.39677
-1.51004
-1.63311
-1.76577
-1.90776
-2.05876
-2.21832
-2.3859
-2.56074
-2.74182
-2.92778
-3.11743
-3.3098
-3.50052
-3.68385
-3.88972
-1.41628
-1.49272
-1.57993
-1.67778
-1.78613
-1.90482
-2.03365
-2.17239
-2.32076
-2.47843
-2.64493
-2.81973
-3.00212
-3.19119
-3.38587
-3.58529
-3.78863
-3.9936
-4.20069
-4.43027
-1.81532
-1.89576
-1.98744
-2.09021
-2.2039
-2.32834
-2.46331
-2.60858
-2.76384
-2.92874
-3.10283
-3.2856
-3.47638
-3.67439
-3.87883
-4.08907
-4.3045
-4.5241
-4.75048
-4.99682
-2.24464
-2.32937
-2.42586
-2.53392
-2.65339
-2.78407
-2.92573
-3.07813
-3.24095
-3.41383
-3.59635
-3.78801
-3.98821
-4.19632
-4.41171
-4.63396
-4.86268
-5.09766
-5.34164
-5.60248
-2.7074
-2.79666
-2.89827
-3.01201
-3.13769
-3.2751
-3.42403
-3.58419
-3.75529
-3.93696
-4.1288
-4.33034
-4.54107
-4.76044
-4.98798
-5.22339
-5.46647
-5.71743
-5.97849
-6.25407
-3.20743
-3.30156
-3.40859
-3.52834
-3.66065
-3.8053
-3.96205
-4.13063
-4.31073
-4.50201
-4.70408
-4.91652
-5.13886
-5.37066
-5.61154
-5.86127
-6.11977
-6.38737
-6.66563
-6.95702
-3.75023
-3.84927
-3.96193
-4.088
-4.22731
-4.37964
-4.54475
-4.72236
-4.91218
-5.11388
-5.32709
-5.55142
-5.78646
-6.03182
-6.28721
-6.55242
-6.82741
-7.11247
-7.40859
-7.71715
-4.34258
-4.44657
-4.56505
-4.69762
-4.84422
-5.0046
-5.17854
-5.36575
-5.56594
-5.77881
-6.004
-6.24115
-6.48991
-6.74993
-7.02095
-7.30277
-7.59534
-7.89883
-8.2138
-8.54104
-4.99384
-5.10272
-5.22683
-5.36611
-5.52015
-5.68884
-5.87195
-6.06919
-6.2803
-6.50496
-6.74286
-6.99368
-7.25707
-7.53273
-7.8204
-8.11989
-8.43112
-8.75409
-9.08906
-9.43651
-5.71693
-5.83041
-5.96005
-6.10567
-6.26718
-6.44423
-6.63664
-6.84417
-7.06654
-7.30345
-7.55462
-7.81975
-8.09851
-8.39062
-8.69583
-9.01393
-9.34477
-9.68824
-10.0444
-10.4135
-6.53002
-6.64745
-6.78209
-6.93367
-7.10211
-7.28748
-7.48914
-7.70682
-7.94046
-8.18978
-8.4545
-8.73431
-9.02892
-9.33804
-9.66142
-9.99884
-10.3501
-10.7149
-11.0932
-11.4853
-7.45892
-7.57923
-7.71791
-7.87468
-8.04932
-8.24183
-8.453
-8.68002
-8.92458
-9.18602
-9.4641
-9.75855
-10.0691
-10.3954
-10.7373
-11.0944
-11.4665
-11.8533
-12.2544
-12.6703
-8.54184
-8.66333
-8.80443
-8.96492
-9.14463
-9.34309
-9.55981
-9.79709
-10.0523
-10.3249
-10.6155
-10.9241
-11.2502
-11.5935
-11.9537
-12.3304
-12.7233
-13.1321
-13.5564
-13.9964
-9.8387
-9.95884
-10.0999
-10.2618
-10.4444
-10.6474
-10.8701
-11.1129
-11.3757
-11.6591
-11.9616
-12.2835
-12.6244
-12.9835
-13.3606
-13.7558
-14.1687
-14.5989
-15.0457
-15.5094
-11.431
-11.5466
-11.6848
-11.8455
-12.0283
-12.2329
-12.4592
-12.7069
-12.9759
-13.2664
-13.579
-13.9127
-14.2654
-14.6367
-15.0276
-15.4388
-15.8697
-16.3196
-16.7874
-17.273
-13.3897
-13.4977
-13.6299
-13.786
-13.9646
-14.1663
-14.3911
-14.639
-14.9095
-15.2023
-15.5167
-15.8529
-16.2126
-16.5964
-17.0025
-17.4295
-17.8771
-18.345
-18.8321
-19.3375
-16.0056
-16.0976
-16.2136
-16.355
-16.5233
-16.7176
-16.9372
-17.1816
-17.4505
-17.7435
-18.0601
-18.3998
-18.763
-19.1502
-19.5613
-19.9956
-20.453
-20.9342
-21.439
-21.9625
-20.9368
-21.0092
-21.1125
-21.2444
-21.4037
-21.5898
-21.8022
-22.0404
-22.3041
-22.593
-22.9069
-23.2458
-23.6097
-23.999
-24.4138
-24.854
-25.3207
-25.8179
-26.3481
-26.8935
-27.4098
-22.4967
-19.8607
-17.7766
-15.99
-14.4521
-13.1007
-11.8909
-10.7955
-9.79635
-8.88046
-8.03811
-7.26167
-6.5449
-5.88263
-5.27031
-4.70268
-4.17415
-3.69322
-3.28883
-27.9541
-23.047
-20.3995
-18.2951
-16.4847
-14.9213
-13.5439
-12.3086
-11.1889
-10.167
-9.2304
-8.36936
-7.57644
-6.84556
-6.17169
-5.55039
-4.97694
-4.44892
-3.97949
-3.57702
-28.5269
-23.6163
-20.9556
-18.8298
-16.9943
-15.404
-13.9995
-12.7378
-11.593
-10.5479
-9.58992
-8.70969
-7.8998
-7.15417
-6.46775
-5.83602
-5.25435
-4.72045
-4.24389
-3.82193
-29.124
-24.205
-21.5288
-19.3803
-17.518
-15.8996
-14.4669
-13.1778
-12.0071
-10.9379
-9.95793
-9.05779
-8.23006
-7.46859
-6.76809
-6.12377
-5.53076
-4.98611
-4.49655
-4.05586
-29.7425
-24.8127
-22.1187
-19.9459
-18.0554
-16.4074
-14.9454
-13.6279
-12.4304
-11.3364
-10.3336
-9.41278
-8.56643
-7.78819
-7.07255
-6.4144
-5.80857
-5.25153
-4.74819
-4.29137
-30.3807
-25.4397
-22.7232
-20.5257
-18.6056
-16.9267
-15.4342
-14.0874
-12.8622
-11.7424
-10.7161
-9.77398
-8.90832
-8.11261
-7.38109
-6.70839
-6.0891
-5.51934
-5.00274
-4.53183
-31.0375
-26.0847
-23.3419
-21.1187
-19.1678
-17.4567
-15.9325
-14.5554
-13.3016
-12.1555
-11.105
-10.1409
-9.25541
-8.44176
-7.69396
-7.00642
-6.37356
-5.79128
-5.2621
-4.77852
-31.7116
-26.7455
-23.9748
-21.724
-19.741
-17.9966
-16.4396
-15.0312
-13.7481
-12.5748
-11.4997
-10.5131
-9.6074
-8.7755
-8.01122
-7.30875
-6.6624
-6.06788
-5.52671
-5.03137
-32.4016
-27.4207
-24.621
-22.3409
-20.3245
-18.5455
-16.9547
-15.514
-14.2009
-12.9999
-11.8995
-10.8902
-9.96395
-9.11361
-8.33276
-7.61538
-6.95567
-6.34914
-5.79637
-5.28986
-33.1063
-28.1092
-25.2795
-22.9684
-20.9172
-19.1025
-17.4769
-16.0032
-14.6593
-13.4301
-12.304
-11.2716
-10.3246
-9.45575
-8.65829
-7.92605
-7.25308
-6.6347
-6.0706
-5.55328
-33.8245
-28.8099
-25.9491
-23.6056
-21.5183
-19.6668
-18.0054
-16.4978
-15.1225
-13.8646
-12.7126
-11.6568
-10.689
-9.80146
-8.98739
-8.24033
-7.55418
-6.92404
-6.34875
-5.82085
-34.5551
-29.5215
-26.6288
-24.2513
-22.1267
-20.2372
-18.5392
-16.9971
-15.5898
-14.3028
-13.1245
-12.0452
-11.0564
-10.1502
-9.31953
-8.55767
-7.85838
-7.21652
-6.63009
-6.09175
-35.2969
-30.2431
-27.3173
-24.9045
-22.7413
-20.813
-19.0775
-17.5002
-16.0604
-14.7439
-13.5391
-12.4362
-11.4263
-10.5014
-9.65411
-8.87748
-8.16507
-7.51147
-6.91393
-6.36524
-36.0489
-30.9735
-28.0136
-25.5641
-23.3612
-21.393
-19.6192
-18.0061
-16.5335
-15.1872
-13.9557
-12.829
-11.798
-10.8544
-9.99049
-9.19911
-8.47357
-7.80822
-7.19954
-6.64058
-36.8098
-31.7113
-28.7163
-26.2289
-23.9851
-21.9762
-20.1634
-18.514
-17.0081
-15.6318
-14.3735
-13.2229
-12.1708
-11.2085
-10.328
-9.5219
-8.78324
-8.1061
-7.48626
-6.91708
-37.5786
-32.4552
-29.4242
-26.8976
-24.612
-22.5615
-20.7091
-19.0228
-17.4834
-16.0769
-14.7916
-13.6172
-12.544
-11.563
-10.666
-9.84519
-9.09342
-8.40445
-7.77342
-7.1941
-38.3548
-33.2043
-30.1359
-27.5689
-25.2406
-23.1476
-21.2551
-19.5317
-17.9584
-16.5216
-15.2094
-14.0111
-12.9168
-11.9173
-11.0038
-10.1683
-9.40346
-8.70265
-8.0604
-7.47104
-39.1396
-33.9578
-30.8499
-28.2414
-25.8693
-23.7334
-21.8002
-20.0394
-18.4322
-16.965
-15.6259
-14.4039
-13.2886
-12.2706
-11.3407
-10.4906
-9.71272
-9.00006
-8.3466
-7.74733
-39.9335
-34.7147
-31.5643
-28.9132
-26.4969
-24.3176
-22.3435
-20.545
-18.9038
-17.4064
-16.0404
-14.7947
-13.6586
-12.6222
-11.6761
-10.8115
-10.0206
-9.2961
-8.63146
-8.02246
-40.7236
-35.4699
-32.2775
-29.5834
-27.1227
-24.8997
-22.8845
-21.0482
-19.373
-17.8452
-16.4525
-15.1832
-14.0264
-12.9718
-12.0094
-11.1304
-10.3266
-9.5903
-8.91452
-8.29598
-6.77526
-4.67048
-3.31124
-2.26655
-1.53271
-0.993755
-0.60666
-0.331852
-0.141037
-0.0124893
0.0703972
0.120243
0.14662
0.156678
0.155723
0.147623
0.13519
0.12042
0.104723
0.0890625
0.0740845
0.060199
0.0476419
0.036533
0.0268932
0.0187024
0.0118669
0.00632216
0.00189825
-0.00143278
-0.00393571
-0.00549934
-0.00657716
-0.00674927
-0.00686513
-0.005907
-0.00548597
-0.00352712
-0.0029847
6.01872e-05
-7.0308
-4.85276
-3.45743
-2.38166
-1.62372
-1.06736
-0.666705
-0.381456
-0.182401
-0.047233
0.0410726
0.0954175
0.125573
0.138832
0.140606
0.134839
0.124405
0.111348
0.0971162
0.0827101
0.068802
0.0558265
0.0440411
0.0335837
0.0244916
0.0167587