/*--------------------------------*- C++ -*----------------------------------*\
| =========                 |                                                 |
| \\      /  F ield         | OpenFOAM: The Open Source CFD Toolbox           |
|  \\    /   O peration     | Version:  v1912                                 |
|   \\  /    A nd           | Website:  www.openfoam.com                      |
|    \\/     M anipulation  |                                                 |
\*---------------------------------------------------------------------------*/
FoamFile
{
    version     2.0;
    format      ascii;
    class       surfaceScalarField;
    location    "47";
    object      phi;
}
// * * * * * * * * * * * * * * * * * * * * * * * * * * * * * * * * * * * * * //

dimensions      [0 3 -1 0 0 0 0];
oriented        oriented;


internalField   nonuniform List<scalar> 
18940
(
0.000358093
-0.234365
0.234007
0.00137839
-0.216328
0.215307
0.00288161
-0.204792
0.203289
0.00469732
-0.19701
0.195194
0.00669477
-0.191254
0.189257
0.00877227
-0.18646
0.184383
0.0108561
-0.182038
0.179954
0.0128967
-0.177694
0.175653
0.0148641
-0.173302
0.171335
0.0167429
-0.168835
0.166957
0.0185282
-0.164314
0.162529
0.0202226
-0.159781
0.158087
0.0218332
-0.155284
0.153673
0.0233697
-0.150866
0.14933
0.0248433
-0.146564
0.145091
0.0262656
-0.142402
0.14098
0.0276483
-0.138393
0.13701
0.0290018
-0.134533
0.13318
0.0303346
-0.130805
0.129472
-0.127166
0.125849
0.0316518
0.000381515
-0.234747
0.0014217
-0.217368
0.00293564
-0.206306
0.00475568
-0.19883
0.00674761
-0.193246
0.00880982
-0.188522
0.0108698
-0.184098
0.0128797
-0.179704
0.0148113
-0.175234
0.016651
-0.170675
0.0183956
-0.166059
0.0200489
-0.161435
0.021619
-0.156854
0.0231164
-0.152364
0.0245527
-0.148
0.0259398
-0.143789
0.0272896
-0.139743
0.0286127
-0.135857
0.0299183
-0.13211
-0.12846
0.0312122
0.000402938
-0.23515
0.00145935
-0.218424
0.00298201
-0.207829
0.00480262
-0.200651
0.00678539
-0.195229
0.00882865
-0.190566
0.0108611
-0.186131
0.0128368
-0.181679
0.0147295
-0.177126
0.0165273
-0.172473
0.0182287
-0.16776
0.0198389
-0.163045
0.0213668
-0.158382
0.0228235
-0.15382
0.024221
-0.149398
0.0255715
-0.14514
0.026887
-0.141058
0.0281786
-0.137148
0.0294557
-0.133387
-0.129729
0.0307251
0.000416811
-0.235567
0.00148827
-0.219496
0.00301881
-0.20936
0.00483742
-0.202469
0.00680766
-0.197199
0.0088284
-0.192586
0.0108299
-0.188132
0.0127681
-0.183617
0.0146188
-0.178977
0.0163722
-0.174226
0.0180283
-0.169417
0.0195934
-0.16461
0.0210775
-0.159866
0.0224921
-0.155235
0.0238497
-0.150755
0.0251625
-0.146453
0.0264427
-0.142338
0.0277016
-0.138407
0.0289493
-0.134635
-0.130973
0.0301933
0.000428079
-0.235995
0.0015118
-0.220579
0.00304736
-0.210895
0.00486072
-0.204282
0.00681488
-0.199154
0.00880955
-0.194581
0.0107767
-0.190099
0.0126743
-0.185515
0.0144803
-0.180783
0.0161868
-0.175933
0.0177954
-0.171025
0.0193137
-0.166128
0.0207525
-0.161305
0.0221238
-0.156606
0.0234402
-0.152072
0.0247142
-0.147727
0.0259581
-0.143582
0.0271835
-0.139633
0.0284009
-0.135852
-0.132191
0.0296189
0.000437171
-0.236432
0.00153035
-0.221672
0.00306795
-0.212433
0.00487276
-0.206087
0.00680736
-0.201088
0.00877248
-0.196546
0.0107019
-0.192029
0.0125559
-0.187369
0.0143146
-0.182542
0.0159719
-0.17759
0.0175311
-0.172584
0.0190009
-0.167598
0.0203929
-0.162697
0.0217196
-0.157933
0.0229938
-0.153346
0.0242281
-0.148961
0.0254346
-0.144789
0.0266255
-0.140823
0.0278118
-0.137039
-0.133383
0.029003
0.000444651
-0.236877
0.0015446
-0.222772
0.00308112
-0.213969
0.00487404
-0.20788
0.0067856
-0.203
0.00871778
-0.198478
0.0106064
-0.193917
0.0124139
-0.189177
0.0141226
-0.18425
0.0157285
-0.179196
0.0172364
-0.174092
0.0186561
-0.169018
0.02
-0.16404
0.0212809
-0.159214
0.0225117
-0.154577
0.0237051
-0.150154
0.0248733
-0.145957
0.0260286
-0.141979
0.0271827
-0.138193
-0.134546
0.0283463
0.000450676
-0.237327
0.00155488
-0.223877
0.00308728
-0.215502
0.00486501
-0.209658
0.00675018
-0.204885
0.00864614
-0.200374
0.0104908
-0.195762
0.0122491
-0.190935
0.0139054
-0.185907
0.0154578
-0.180748
0.0169125
-0.175547
0.0182805
-0.170386
0.0195747
-0.165335
0.0208085
-0.160448
0.0219947
-0.155763
0.023146
-0.151306
0.0242745
-0.147085
0.025393
-0.143097
0.0265136
-0.139313
-0.135681
0.0276485
0.000455351
-0.237783
0.00156146
-0.224983
0.00308688
-0.217027
0.00484625
-0.211417
0.00670177
-0.20674
0.00855836
-0.202231
0.0103562
-0.19756
0.0120626
-0.192641
0.0136642
-0.187508
0.0151609
-0.182245
0.0165606
-0.176947
0.0178752
-0.1717
0.0191183
-0.166578
0.0203034
-0.161633
0.0214437
-0.156903
0.0225513
-0.152413
0.0236387
-0.148173
0.0247186
-0.144177
0.0258042
-0.140399
-0.136786
0.0269089
0.00045875
-0.238241
0.00156464
-0.226089
0.0030804
-0.218543
0.00481839
-0.213155
0.00664117
-0.208563
0.00845542
-0.204045
0.0102037
-0.199308
0.0118556
-0.194293
0.0134003
-0.189053
0.0148394
-0.183684
0.0161821
-0.178289
0.0174415
-0.17296
0.0186317
-0.167768
0.0197666
-0.162768
0.020859
-0.157996
0.0219212
-0.153475
0.0229654
-0.149217
0.0240047
-0.145216
0.0250531
-0.141447
-0.137858
0.0261255
0.000460979
-0.238702
0.00156476
-0.227192
0.00306841
-0.220047
0.00478221
-0.214869
0.00656935
-0.21035
0.00833845
-0.205814
0.0100345
-0.201004
0.0116297
-0.195888
0.0131152
-0.190539
0.0144946
-0.185064
0.0157785
-0.179573
0.0169809
-0.174162
0.0181163
-0.168903
0.0191989
-0.16385
0.0202415
-0.159038
0.021256
-0.15449
0.0222545
-0.150216
0.0232502
-0.146212
0.0242584
-0.142456
-0.138896
0.0252958
0.000462193
-0.239164
0.00156227
-0.228292
0.00305158
-0.221536
0.00473859
-0.216556
0.0064874
-0.212099
0.00820879
-0.207536
0.00985024
-0.202646
0.0113864
-0.197425
0.0128108
-0.191963
0.0141286
-0.186381
0.0153517
-0.180796
0.016495
-0.175305
0.0175736
-0.169982
0.0186016
-0.164878
0.0195918
-0.160029
0.0205558
-0.155454
0.0215054
-0.151165
0.0224541
-0.147161
0.0234181
-0.14342
-0.139894
0.0244166
0.000462672
-0.239627
0.00155778
-0.229388
0.00303078
-0.223009
0.00468861
-0.218214
0.00639664
-0.213807
0.00806796
-0.209207
0.00965266
-0.20423
0.0111279
-0.1989
0.0124892
-0.193324
0.0137435
-0.187636
0.014904
-0.181957
0.0159861
-0.176387
0.0170054
-0.171001
0.0179762
-0.165849
0.018911
-0.160963
0.0198211
-0.156364
0.0207179
-0.152062
0.0216149
-0.148058
0.0225297
-0.144334
-0.140848
0.0234839
0.000462893
-0.24009
0.00155215
-0.230477
0.00300706
-0.224464
0.00463351
-0.21984
0.00629853
-0.215472
0.00791771
-0.210826
0.00944378
-0.205756
0.0108563
-0.200312
0.012153
-0.194621
0.0133422
-0.188825
0.0144381
-0.183053
0.0154569
-0.177406
0.0164144
-0.171959
0.0173248
-0.166759
0.0182005
-0.161839
0.0190524
-0.157216
0.0198913
-0.152901
0.0207308
-0.148897
0.0215893
-0.145193
-0.141751
0.0224916
0.00046366
-0.240554
0.00154655
-0.23156
0.00298164
-0.225899
0.00457465
-0.221433
0.00619468
-0.217092
0.00775996
-0.212391
0.00922588
-0.207222
0.0105744
-0.201661
0.0118052
-0.195852
0.012928
-0.189948
0.0139578
-0.184083
0.0149113
-0.17836
0.0158043
-0.172852
0.0166509
-0.167606
0.0174631
-0.162651
0.0182512
-0.158004
0.0190254
-0.153675
0.0197988
-0.14967
0.0205906
-0.145985
-0.142591
0.0214313
0.000466118
-0.24102
0.00154228
-0.232636
0.00295572
-0.227312
0.0045134
-0.222991
0.00608679
-0.218666
0.00759677
-0.213901
0.00900142
-0.208627
0.0102851
-0.202945
0.0114491
-0.197016
0.0125047
-0.191003
0.0134675
-0.185046
0.0143542
-0.179246
0.0151806
-0.173678
0.0159603
-0.168386
0.0167046
-0.163396
0.0174229
-0.158722
0.0181243
-0.154377
0.0188207
-0.150367
0.0195327
-0.146697
-0.143358
0.0202994
0.000471659
-0.241491
0.00154066
-0.233705
0.00293062
-0.228702
0.00445133
-0.224512
0.0059767
-0.220191
0.00743034
-0.215355
0.00877304
-0.20997
0.00999147
-0.204163
0.0110887
-0.198113
0.012077
-0.191992
0.0129723
-0.185941
0.0137915
-0.180066
0.0145498
-0.174436
0.0152602
-0.169096
0.0159331
-0.164068
0.0165768
-0.159366
0.0171988
-0.154999
0.017809
-0.150977
0.0184283
-0.147316
-0.144026
0.0190964
0.000482613
-0.241974
0.00154431
-0.234767
0.00290882
-0.230067
0.00439053
-0.225993
0.00586638
-0.221667
0.00726279
-0.216751
0.00854328
-0.21125
0.00969679
-0.205316
0.010728
-0.199144
0.0116498
-0.192913
0.0124784
-0.18677
0.0132301
-0.180817
0.0139193
-0.175126
0.0145577
-0.169735
0.0151546
-0.164665
0.0157173
-0.159929
0.0162524
-0.155534
0.0167661
-0.151491
0.0172714
-0.147821
-0.144547
0.0177924
0.00050656
-0.242481
0.00156045
-0.23582
0.00289437
-0.231401
0.00433292
-0.227432
0.00575706
-0.223091
0.00709553
-0.21809
0.00831418
-0.212469
0.009404
-0.206406
0.0103711
-0.200111
0.011229
-0.193771
0.0119938
-0.187534
0.0126807
-0.181504
0.0133021
-0.175747
0.0138672
-0.1703
0.0143818
-0.16518
0.0148496
-0.160396
0.0152724
-0.155956
0.0156491
-0.151868
0.0159842
-0.148156
-0.144903
0.0163397
0.000563617
-0.243044
0.00159738
-0.236854
0.00288702
-0.23269
0.00427732
-0.228822
0.00564827
-0.224462
0.00692897
-0.219371
0.00808702
-0.213627
0.0091154
-0.207435
0.0100217
-0.201017
0.0108203
-0.19457
0.0115273
-0.188241
0.0121572
-0.182134
0.0127205
-0.17631
0.0132228
-0.170802
0.013664
-0.165621
0.0140366
-0.160769
0.0143236
-0.156243
0.0144992
-0.152043
0.0145581
-0.148215
-0.145074
0.0147297
0.250725
0.000414987
-0.25114
0.250336
0.000388627
0.249955
0.000381356
0.249574
0.000381487
0.249189
0.000384433
0.2488
0.000388844
0.248406
0.000393996
0.248007
0.000399301
0.247603
0.000404366
0.247194
0.000408987
0.246781
0.000413067
0.246364
0.000416578
0.245944
0.000419505
0.245523
0.000421823
0.245099
0.000423408
0.244675
0.000424054
0.244252
0.000422714
0.243834
0.000418838
0.24343
0.000403227
0.000386136
0.252691
0.00102335
-0.253299
0.252047
0.00103255
0.251375
0.00105364
0.250675
0.00108063
0.249951
0.00110899
0.249202
0.00113736
0.248431
0.00116527
0.247638
0.00119223
0.246825
0.0012178
0.245992
0.00124175
0.245141
0.00126395
0.244273
0.00128438
0.24339
0.00130303
0.242492
0.0013199
0.24158
0.00133485
0.240657
0.00134768
0.239722
0.00135727
0.238777
0.00136337
0.237821
0.00135969
0.00135289
0.251468
0.00159518
-0.25204
0.250832
0.00166909
0.250142
0.00174321
0.249404
0.00181844
0.248621
0.00189242
0.247794
0.00196393
0.246927
0.00203266
0.246021
0.00209837
0.245078
0.00216081
0.2441
0.00221983
0.243088
0.00227538
0.242045
0.00232751
0.240972
0.00237629
0.23987
0.00242184
0.238741
0.00246417
0.237585
0.00250333
0.236404
0.00253878
0.235196
0.00257078
0.233959
0.00259693
0.00262143
0.24736
0.00203852
-0.247803
0.246847
0.00218206
0.246269
0.002321
0.245631
0.00245675
0.244935
0.00258866
0.244183
0.00271594
0.243377
0.00283826
0.24252
0.00295544
0.241613
0.00306735
0.240659
0.00317392
0.23966
0.00327516
0.238616
0.0033712
0.23753
0.00346225
0.236403
0.00354859
0.235237
0.00363049
0.234032
0.00370832
0.232788
0.00378218
0.231507
0.00385268
0.230184
0.00391911
0.00398348
0.24111
0.00231752
-0.241389
0.24076
0.00253236
0.24034
0.00274043
0.239854
0.00294257
0.239304
0.00313874
0.238692
0.00332848
0.238019
0.00351145
0.237287
0.00368748
0.236498
0.00385642
0.235653
0.00401826
0.234755
0.00417306
0.233805
0.00432102
0.232805
0.00446247
0.231756
0.00459786
0.230659
0.00472775
0.229514
0.00485283
0.228323
0.00497369
0.227084
0.0050913
0.225797
0.0052058
0.00531888
0.233511
0.00244085
-0.233634
0.233317
0.00272628
0.233054
0.00300378
0.232723
0.00327365
0.232325
0.00353592
0.231864
0.0037903
0.231339
0.00403644
0.230752
0.00427412
0.230105
0.00450321
0.2294
0.00472367
0.228637
0.0049356
0.227819
0.00513925
0.226946
0.00533506
0.226021
0.00552366
0.225043
0.00570586
0.224013
0.00588268
0.222931
0.00605519
0.221798
0.00622476
0.220611
0.00639226
0.00655952
0.225266
0.00243904
-0.225265
0.2252
0.0027925
0.225067
0.00313729
0.224867
0.00347332
0.224602
0.00380053
0.224274
0.00411865
0.223883
0.00442733
0.223431
0.00472629
0.222919
0.00501536
0.222348
0.00529449
0.22172
0.00556379
0.221036
0.00582353
0.220296
0.00607424
0.219503
0.0063167
0.218657
0.006552
0.217758
0.00678149
0.216807
0.00700674
0.215802
0.00722965
0.214743
0.00745174
0.0076752
0.216904
0.00234828
-0.216813
0.21693
0.00276623
0.216893
0.0031749
0.216792
0.003574
0.216629
0.00396331
0.216405
0.00434252
0.216121
0.00471125
0.215778
0.00506917
0.215378
0.00541605
0.21492
0.00575179
0.214408
0.00607647
0.213841
0.00639038
0.213221
0.0066941
0.212549
0.00698857
0.211826
0.0072751
0.211052
0.00755543
0.210227
0.00783169
0.20935
0.00810638
0.20842
0.00838187
0.00866085
0.20877
0.00220186
-0.208624
0.208856
0.00268051
0.208882
0.00314932
0.208848
0.00360784
0.208755
0.00405575
0.208605
0.00449266
0.208398
0.00491813
0.208136
0.00533175
0.207819
0.00573323
0.207448
0.00612239
0.207025
0.00649925
0.206552
0.00686409
0.206028
0.00721749
0.205456
0.00756049
0.204837
0.00789465
0.20417
0.00822208
0.203456
0.00854555
0.202694
0.00886832
0.201882
0.00919385
0.00952566
0.201066
0.00202678
-0.200891
0.201184
0.00256255
0.201246
0.0030879
0.201251
0.0036023
0.201202
0.00410529
0.201098
0.00459642
0.200941
0.00507515
0.200732
0.005541
0.200471
0.00599357
0.200161
0.0064326
0.199802
0.00685799
0.199396
0.00726995
0.198945
0.00766903
0.198449
0.00805628
0.19791
0.00843348
0.197329
0.00880307
0.196706
0.00916858
0.19604
0.00953416
0.19533
0.00990476
0.0102852
0.193885
0.00184288
-0.193701
0.194014
0.00243266
0.194091
0.00301145
0.194115
0.00357857
0.194086
0.0041335
0.194007
0.00467566
0.193878
0.00520445
0.1937
0.00571927
0.193474
0.0062196
0.193201
0.00670506
0.192884
0.0071754
0.192523
0.00763067
0.192121
0.00807132
0.191679
0.00849831
0.191199
0.00891355
0.190682
0.00931971
0.190129
0.00972123
0.18954
0.0101231
0.188912
0.0105327
0.0109562
0.187248
0.00166357
-0.187069
0.187376
0.00230486
0.187453
0.00293455
0.18748
0.00355181
0.187457
0.00415604
0.187386
0.00474655
0.187268
0.00532265
0.187104
0.00588363
0.186895
0.00642883
0.186642
0.00695768
0.186348
0.00746976
0.186013
0.00796487
0.185641
0.00844327
0.185234
0.00890565
0.184794
0.00935397
0.184323
0.00979083
0.183822
0.0102218
0.183293
0.0106525
0.182732
0.0110937
0.0115537
0.181138
0.00149719
-0.180971
0.181254
0.00218813
0.181322
0.00286673
0.181342
0.00353207
0.181315
0.00418348
0.181241
0.00482019
0.181122
0.00544139
0.18096
0.00604623
0.180754
0.00663392
0.180508
0.00720367
0.180223
0.00775483
0.179901
0.00828685
0.179545
0.00879969
0.179157
0.00929354
0.178741
0.00977027
0.1783
0.0102319
0.177836
0.0106854
0.177352
0.0111363
0.176845
0.0116008
0.0120885
0.17551
0.00134856
-0.175362
0.175611
0.00208765
0.175664
0.00281359
0.17567
0.00352544
0.175632
0.0042224
0.175548
0.00490362
0.175421
0.00556816
0.175252
0.00621508
0.175043
0.00684339
0.174795
0.00745209
0.174509
0.00804023
0.174189
0.00860685
0.173837
0.00915144
0.173457
0.00967347
0.173053
0.0101745
0.17263
0.0106551
0.172191
0.0111242
0.171743
0.0115848
0.17128
0.0120634
0.0125666
0.170314
0.00121997
-0.170185
0.170395
0.00200609
0.170431
0.00277814
0.170421
0.0035352
0.170367
0.0042764
0.17027
0.00500077
0.170131
0.00570729
0.169951
0.00639488
0.169732
0.00706238
0.169476
0.00770855
0.169184
0.00833209
0.168859
0.00893159
0.168504
0.00950595
0.168124
0.0100536
0.167723
0.0105754
0.167309
0.0110697
0.166885
0.0115475
0.166465
0.0120053
0.166041
0.0124872
0.0129867
0.165494
0.0011122
-0.165386
0.165556
0.00194427
0.165572
0.00276136
0.165545
0.00356254
0.165475
0.00434684
0.165362
0.00511324
0.165209
0.0058606
0.165016
0.00658771
0.164785
0.00729326
0.164518
0.00797575
0.164216
0.00863356
0.163883
0.00926474
0.163522
0.00986752
0.163136
0.010439
0.162733
0.0109792
0.16232
0.0114825
0.161905
0.0119625
0.161508
0.0124025
0.161119
0.0128757
0.0133367
0.160998
0.00102472
-0.16091
0.16104
0.00190171
0.161039
0.00276282
0.160994
0.00360707
0.160908
0.00443342
0.16078
0.00524076
0.160613
0.00602787
0.160407
0.00679346
0.160164
0.00753602
0.159886
0.00825386
0.159575
0.00894502
0.159233
0.00960708
0.158863
0.0102375
0.15847
0.0108319
0.15806
0.011389
0.157645
0.0118977
0.157233
0.0123744
0.156856
0.0127793
0.156498
0.013234
0.0135908
0.156779
0.000955727
-0.15671
0.156804
0.00187684
0.156786
0.00278082
0.156726
0.00366698
0.156625
0.00453417
0.156484
0.00538122
0.156305
0.00620687
0.156089
0.00700973
0.155837
0.00778816
0.155551
0.00854029
0.155232
0.0092639
0.154883
0.00995612
0.154506
0.0106137
0.154107
0.011231
0.153692
0.0118048
0.153272
0.0123175
0.15286
0.0127865
0.152504
0.0131349
0.15217
0.0135679
0.0137179
0.152794
0.000903254
-0.152741
0.152804
0.00186682
0.152772
0.00281215
0.152701
0.00373866
0.15259
0.00464507
0.152441
0.00553018
0.152255
0.00639271
0.152033
0.0072312
0.151778
0.00804392
0.151489
0.00882886
0.151169
0.00958363
0.150821
0.010305
0.150445
0.0109894
0.150046
0.0116297
0.149629
0.0122216
0.149207
0.0127399
0.148791
0.0132024
0.148456
0.0134695
0.148164
0.0138607
0.0136661
0.149003
-0.148966
0.000865742
0.149003
0.00186771
0.148962
0.00285241
0.148884
0.00381706
0.148769
0.00476029
0.148618
0.00568102
0.148433
0.00657799
0.148214
0.00744966
0.147964
0.00829425
0.147683
0.00910968
0.147373
0.00989349
0.147036
0.0106423
0.146673
0.0113523
0.146287
0.0120156
0.145881
0.0126279
0.145463
0.0131573
0.14504
0.0136257
0.144689
0.0138203
0.144432
0.0141185
0.0130235
0.254362
7.40751e-05
-0.254436
0.254325
3.63781e-05
0.254293
3.25358e-05
0.254251
4.14603e-05
0.254196
5.58843e-05
0.254122
7.3729e-05
0.254028
9.36917e-05
0.253913
0.000114648
0.253778
0.000135785
0.253621
0.000156594
0.253444
0.000176637
0.253249
0.000195632
0.253035
0.000214075
0.252802
0.000233023
0.252551
0.000250308
0.252286
0.000265481
0.252008
0.000278142
0.25172
0.000288199
0.25143
0.000289792
0.000289799
0.256218
-0.000241428
-0.255903
0.256472
-0.000217488
0.256681
-0.000176587
0.256845
-0.000122809
0.256964
-6.26681e-05
0.257037
1.23113e-06
0.257062
6.7746e-05
0.257041
0.000135786
0.256973
0.000204426
0.256857
0.000272732
0.256694
0.000339461
0.256486
0.000403369
0.256237
0.000463219
0.255939
0.000530618
0.255597
0.00059231
0.255213
0.000649445
0.25479
0.000701881
0.254328
0.000749553
0.25383
0.000787805
0.000820859
0.25165
-0.000897942
-0.250994
0.252234
-0.000801086
0.252752
-0.000694379
0.253207
-0.000577989
0.2536
-0.000455427
0.25393
-0.000328937
0.254197
-0.000199667
0.254402
-6.90227e-05
0.254543
6.30045e-05
0.25462
0.000195842
0.254634
0.000325646
0.254585
0.000452044
0.254471
0.000577333
0.2543
0.000702363
0.254069
0.000823222
0.253779
0.000939071
0.253431
0.00104943
0.253027
0.0011542
0.252563
0.00125144
0.00134393
0.24333
-0.00183334
-0.242395
0.244193
-0.00166375
0.244985
-0.00148688
0.245709
-0.00130201
0.246364
-0.00111081
0.246951
-0.000915077
0.247467
-0.000716168
0.247913
-0.000515342
0.24829
-0.00031329
0.248593
-0.00010724
0.248824
9.46153e-05
0.248987
0.000289284
0.249078
0.000485878
0.249101
0.000679451
0.249055
0.000868942
0.248941
0.00105344
0.248758
0.0012322
0.248507
0.00140484
0.248189
0.00157033
0.0017292
0.233247
-0.00296755
-0.232112
0.234313
-0.00272976
0.23531
-0.00248446
0.236239
-0.00223121
0.2371
-0.00197094
0.23789
-0.00170514
0.238609
-0.00143524
0.239256
-0.00116245
0.23983
-0.00088773
0.240335
-0.000611867
0.240768
-0.000338088
0.241125
-6.78064e-05
0.241409
0.000201051
0.241622
0.000466574
0.241763
0.00072837
0.241831
0.000984998
0.241828
0.00123573
0.241753
0.00147996
0.241606
0.00171688
0.00194642
0.22269
-0.00422823
-0.221429
0.223887
-0.00392712
0.22502
-0.00361693
0.226086
-0.0032978
0.227086
-0.00297056
0.228017
-0.00263663
0.22888
-0.00229757
0.229672
-0.00195486
0.230394
-0.00160993
0.231047
-0.00126413
0.231628
-0.000919031
0.232136
-0.000575913
0.232572
-0.00023564
0.232939
0.000100252
0.233234
0.000433243
0.233457
0.000762218
0.233608
0.0010845
0.233688
0.00140002
0.233697
0.00170814
0.00200863
0.212444
-0.00555779
-0.211115
0.213715
-0.00519755
0.214924
-0.00482612
0.21607
-0.00444413
0.217152
-0.00405266
0.218169
-0.00365329
0.219119
-0.00324784
0.220003
-0.00283805
0.220818
-0.00242558
0.221566
-0.00201187
0.222245
-0.00159832
0.222856
-0.00118637
0.223397
-0.000776792
0.223867
-0.00037033
0.224275
2.53459e-05
0.224611
0.000426517
0.224877
0.000818069
0.225075
0.00120229
0.225204
0.00157912
0.00194815
0.202921
-0.00691446
-0.201564
0.204222
-0.0064984
0.205464
-0.00606877
0.206647
-0.00562656
0.207767
-0.00517328
0.208825
-0.00471092
0.209819
-0.00424164
0.210748
-0.00376743
0.211613
-0.00329013
0.212412
-0.00281137
0.213147
-0.00233262
0.213816
-0.00185525
0.214419
-0.00138034
0.214958
-0.000908829
0.215425
-0.000442097
0.215838
1.37315e-05
0.216179
0.000477084
0.216455
0.000925673
0.216667
0.00136771
0.00180184
0.194278
-0.00827043
-0.192922
0.195581
-0.00780111
0.196828
-0.0073155
0.198016
-0.00681495
0.199144
-0.00630161
0.200212
-0.00577808
0.201217
-0.00524692
0.20216
-0.00471046
0.203041
-0.00417076
0.203859
-0.00362959
0.204615
-0.0030885
0.205308
-0.00254882
0.20594
-0.00201172
0.206509
-0.00147814
0.207016
-0.000949487
0.207457
-0.000427061
0.207844
9.06457e-05
0.208165
0.000604164
0.208425
0.00110754
0.00160304
0.186524
-0.00960895
-0.185185
0.187811
-0.00908833
0.189044
-0.00854824
0.190219
-0.00799039
0.191336
-0.00741794
0.192392
-0.00683432
0.193387
-0.00624262
0.194323
-0.0056455
0.195197
-0.00504528
0.196011
-0.00444384
0.196766
-0.00384275
0.19746
-0.00324334
0.198095
-0.00264675
0.198671
-0.00205395
0.199187
-0.00146593
0.199644
-0.0008836
0.200042
-0.000307701
0.200384
0.000262193
0.200667
0.000825102
0.00137852
0.179586
-0.0109213
-0.178273
0.180849
-0.0103511
0.182058
-0.00975733
0.18321
-0.00914239
0.184303
-0.00851104
0.185336
-0.00786777
0.18631
-0.00721623
0.187224
-0.00655951
0.188079
-0.00590013
0.188875
-0.00524006
0.189613
-0.00458085
0.190294
-0.00392377
0.190917
-0.00326988
0.191483
-0.00262012
0.191992
-0.00197532
0.192445
-0.00133636
0.192841
-0.000703745
0.193184
-8.04209e-05
0.19347
0.00053896
0.00114759
0.17336
-0.0122046
-0.172077
0.174595
-0.0115865
0.175777
-0.0109392
0.176901
-0.0102665
0.177966
-0.00957579
0.178971
-0.00887269
0.179916
-0.00816152
0.180802
-0.00744578
0.181631
-0.00672819
0.182401
-0.00601071
0.183115
-0.0052948
0.183773
-0.00458163
0.184375
-0.00387216
0.184922
-0.00316725
0.185415
-0.00246766
0.185853
-0.00177424
0.186237
-0.00108771
0.186566
-0.000409666
0.186845
0.000260082
0.000923325
0.167736
-0.0134595
-0.166481
0.168946
-0.012796
0.170101
-0.0120942
0.171197
-0.0113624
0.172232
-0.0106112
0.173207
-0.00984756
0.174122
-0.00907648
0.174978
-0.00830191
0.175777
-0.00752665
0.176518
-0.00675258
0.177205
-0.005981
0.177836
-0.00521291
0.178413
-0.00444914
0.178936
-0.00369045
0.179406
-0.00293755
0.179823
-0.00219125
0.180187
-0.00145202
0.180498
-0.000720599
0.180762
-3.75893e-06
0.000714096
0.162615
-0.0146899
-0.161385
0.163803
-0.0139841
0.164935
-0.0132261
0.166005
-0.0124326
0.167013
-0.011619
0.167959
-0.0107934
0.168844
-0.00996154
0.16967
-0.00912785
0.170439
-0.00829509
0.171151
-0.00746489
0.171808
-0.00663832
0.172411
-0.00581615
0.172961
-0.00499902
0.173458
-0.00418757
0.173903
-0.00338244
0.174296
-0.00258437
0.174638
-0.00179402
0.174931
-0.00101268
0.175169
-0.000242182
0.000521525
0.157914
-0.0159024
-0.156701
0.159088
-0.0151586
0.160203
-0.0143404
0.161251
-0.0134813
0.162235
-0.0126022
0.163153
-0.0117121
0.16401
-0.0108178
0.164806
-0.00992418
0.165545
-0.00903369
0.166227
-0.00814757
0.166855
-0.00726649
0.16743
-0.00639091
0.167952
-0.00552121
0.168423
-0.00465787
0.168842
-0.00380143
0.16921
-0.00295259
0.169528
-0.00211211
0.169796
-0.00128091
0.170014
-0.000460145
0.000350453
0.153569
-0.0171096
-0.152362
0.15474
-0.0163299
0.155844
-0.015444
0.156876
-0.0145134
0.157837
-0.0135632
0.158729
-0.0126042
0.159556
-0.011645
0.160322
-0.0106903
0.161031
-0.00974181
0.161683
-0.00880005
0.162282
-0.0078651
0.162828
-0.00693692
0.163322
-0.00601554
0.163765
-0.00510123
0.164158
-0.00419442
0.164502
-0.00329572
0.164795
-0.00240589
0.16504
-0.00152574
0.165236
-0.000656474
0.000200938
0.149535
-0.0183406
-0.148304
0.150719
-0.0175132
0.151818
-0.0165433
0.152836
-0.0155314
0.153773
-0.0145007
0.154636
-0.0134667
0.155431
-0.01244
0.156164
-0.0114236
0.156839
-0.0104174
0.15746
-0.00942094
0.158029
-0.00843336
0.158546
-0.00745386
0.159012
-0.00648204
0.159429
-0.00551792
0.159796
-0.00456181
0.160115
-0.00361426
0.160385
-0.00267602
0.160607
-0.00174796
0.160782
-0.000831074
7.23012e-05
0.145783
-0.0196601
-0.144463
0.147
-0.0187303
0.148096
-0.0176389
0.149094
-0.0165298
0.15
-0.0154062
0.150824
-0.0142913
0.15158
-0.0131963
0.152276
-0.0121194
0.152917
-0.0110577
0.153505
-0.0100089
0.154042
-0.00897083
0.15453
-0.00794193
0.154969
-0.00692131
0.15536
-0.00590879
0.155703
-0.00490462
0.155998
-0.00390933
0.156246
-0.00292372
0.156447
-0.00194882
0.156601
-0.000985626
-3.608e-05
0.142328
-0.0211379
-0.14085
0.143576
-0.0199786
0.14465
-0.0187125
0.145606
-0.0174863
0.146463
-0.0162633
0.147239
-0.0150672
0.14795
-0.013907
0.148605
-0.0127743
0.149209
-0.0116614
0.149764
-0.0105639
0.150271
-0.00947832
0.150732
-0.00840233
0.151145
-0.00733477
0.151512
-0.00627539
0.151832
-0.00522448
0.152105
-0.00418266
0.152332
-0.00315078
0.152513
-0.00213002
0.152649
-0.00112187
-0.000127877
0.13924
-0.137822
-0.0225556
0.140402
-0.0211402
0.141435
-0.019746
0.142312
-0.018363
0.143101
-0.0170523
0.143824
-0.0157907
0.144489
-0.014572
0.145104
-0.0133888
0.145673
-0.0122303
0.146197
-0.0110881
0.146677
-0.00995781
0.147111
-0.00883678
0.1475
-0.0077239
0.147844
-0.00661906
0.148142
-0.00552273
0.148395
-0.00443568
0.148603
-0.00335891
0.148767
-0.0022934
0.148885
-0.00124074
-0.000208418
0.0308202
0.112026
-0.110543
-0.0323037
0.0293095
0.11503
-0.113519
0.0277686
0.118167
-0.116626
0.0261942
0.121459
-0.119885
0.024583
0.12494
-0.123329
0.022932
0.128651
-0.127
0.0212393
0.132651
-0.130958
0.0195035
0.137019
-0.135283
0.0177239
0.141858
-0.140079
0.0159008
0.147301
-0.145478
0.0140361
0.153508
-0.151643
0.012134
0.160665
-0.158763
0.0102033
0.168974
-0.167043
0.00826083
0.178623
-0.176681
0.00633641
0.189736
-0.187811
0.00448018
0.202275
-0.200419
0.00277192
0.215905
-0.214197
0.00133213
0.229769
-0.22833
0.000330093
0.242086
-0.241084
0.249723
-0.249393
0.0306315
0.113502
-0.0321074
0.0291283
0.116533
0.0275952
0.1197
0.0260289
0.123026
0.0244258
0.126543
0.0227833
0.130294
0.0210989
0.134336
0.0193713
0.138747
0.0175996
0.14363
0.0157842
0.149117
0.0139269
0.155365
0.0120324
0.162559
0.0101101
0.170896
0.00817753
0.180556
0.00626573
0.191647
0.00442634
0.204114
0.0027406
0.217591
0.00132847
0.231182
0.000353863
0.243061
0.250077
0.0304007
0.114968
-0.0318669
0.0289074
0.118027
0.0273844
0.121223
0.0258282
0.124582
0.0242356
0.128136
0.0226035
0.131926
0.0209297
0.136009
0.0192125
0.140464
0.017451
0.145392
0.0156456
0.150922
0.0137983
0.157212
0.0119139
0.164444
0.0100024
0.172808
0.00808215
0.182476
0.00618512
0.193544
0.00436399
0.205936
0.00270054
0.219254
0.00131306
0.232569
0.000356944
0.244017
0.250434
0.0301298
0.116423
-0.0315841
0.0286484
0.119508
0.0271375
0.122734
0.0255936
0.126126
0.0240134
0.129716
0.0223939
0.133545
0.0207327
0.137671
0.019028
0.142169
0.0172789
0.147141
0.0154857
0.152715
0.0136506
0.159047
0.0117786
0.166316
0.00988017
0.174706
0.00797439
0.184382
0.00609403
0.195425
0.00429251
0.207737
0.00265173
0.220895
0.00128835
0.233932
0.000351887
0.244954
0.250786
0.0298208
0.117863
-0.0312613
0.0283532
0.120976
0.0268563
0.124231
0.0253266
0.127655
0.0237607
0.131282
0.0221555
0.135151
0.0205087
0.139317
0.0188185
0.143859
0.0170838
0.148875
0.0153049
0.154494
0.013484
0.160868
0.0116266
0.168173
0.00974342
0.176589
0.00785423
0.186271
0.00599256
0.197286
0.00421247
0.209517
0.00259593
0.222512
0.00125792
0.23527
0.000342975
0.245869
0.251129
0.0294763
0.119289
-0.0309016
0.0280242
0.122428
0.0265429
0.125712
0.0250288
0.129169
0.0234787
0.132832
0.0218896
0.13674
0.0202589
0.140948
0.0185848
0.145533
0.0168663
0.150594
0.0151036
0.156257
0.013299
0.162673
0.0114582
0.170014
0.00959237
0.178455
0.00772191
0.188142
0.00588107
0.199127
0.00412452
0.211274
0.00253413
0.224102
0.00122314
0.236581
0.000331376
0.24676
0.25146
0.0290992
0.120697
-0.030508
0.0276636
0.123864
0.026199
0.127176
0.024702
0.130666
0.023169
0.134365
0.0215972
0.138311
0.0199841
0.142561
0.0183278
0.147189
0.0166271
0.152295
0.0148823
0.158001
0.0130959
0.164459
0.0112737
0.171836
0.00942731
0.180301
0.00757772
0.189991
0.00575988
0.200945
0.004029
0.213005
0.00246677
0.225664
0.00118456
0.237864
0.000317798
0.247627
0.251778
0.0286922
0.122089
-0.0300841
0.0272739
0.125282
0.0258269
0.128623
0.0243477
0.132146
0.0228329
0.13588
0.0212796
0.139865
0.0196853
0.144155
0.0180481
0.148826
0.0163667
0.153976
0.0146416
0.159727
0.0128751
0.166226
0.0110734
0.173638
0.00924853
0.182126
0.00742194
0.191818
0.00562927
0.202738
0.00392621
0.214708
0.00239419
0.227196
0.00114271
0.239115
0.000302843
0.248467
0.252081
0.0282584
0.123464
-0.0296333
0.0268574
0.126683
0.0254284
0.130052
0.0239675
0.133607
0.0224716
0.137376
0.0209377
0.141399
0.0193632
0.14573
0.0177463
0.150443
0.0160857
0.155636
0.0143818
0.161431
0.012637
0.167971
0.0108577
0.175417
0.00905629
0.183928
0.00725481
0.193619
0.0054895
0.204503
0.00381646
0.216381
0.00231678
0.228696
0.00109807
0.240334
0.000286927
0.249278
0.252368
0.0278004
0.124823
-0.029159
0.0264164
0.128067
0.0250051
0.131464
0.0235627
0.135049
0.022086
0.138853
0.0205721
0.142913
0.0190184
0.147283
0.0174229
0.152039
0.0157844
0.157275
0.0141031
0.163112
0.0123817
0.169692
0.0106267
0.177172
0.00885077
0.185704
0.00707655
0.195393
0.00534082
0.206239
0.00370004
0.218022
0.00223489
0.230161
0.001051
0.241518
0.000270296
0.250059
0.252638
0.0273207
0.126167
-0.0286646
0.0259525
0.129435
0.0245582
0.132858
0.023134
0.136473
0.0216766
0.14031
0.0201832
0.144406
0.018651
0.148816
0.017078
0.153612
0.0154628
0.15889
0.0138058
0.164769
0.0121094
0.171388
0.0103805
0.178901
0.00863215
0.187452
0.00688734
0.197138
0.00518345
0.207943
0.00357721
0.219628
0.00214882
0.231589
0.00100177
0.242665
0.00025311
0.250808
0.252891
0.0268208
0.127498
-0.0281525
0.0254665
0.130789
0.024088
0.134237
0.0226814
0.13788
0.0212434
0.141748
0.0197707
0.145879
0.0182608
0.150326
0.0167114
0.155161
0.0151209
0.160481
0.0134896
0.1664
0.0118201
0.173058
0.0101192
0.180602
0.0084005
0.189171
0.00668735
0.198851