/*--------------------------------*- C++ -*----------------------------------*\
| =========                 |                                                 |
| \\      /  F ield         | OpenFOAM: The Open Source CFD Toolbox           |
|  \\    /   O peration     | Version:  v1912                                 |
|   \\  /    A nd           | Website:  www.openfoam.com                      |
|    \\/     M anipulation  |                                                 |
\*---------------------------------------------------------------------------*/
FoamFile
{
    version     2.0;
    format      ascii;
    class       surfaceScalarField;
    location    "5";
    object      phi;
}
// * * * * * * * * * * * * * * * * * * * * * * * * * * * * * * * * * * * * * //

dimensions      [0 3 -1 0 0 0 0];
oriented        oriented;


internalField   nonuniform List<scalar> 
18940
(
0.000107575
-0.238933
0.238825
0.000477304
-0.223794
0.223424
0.00103412
-0.211646
0.211089
0.00170985
-0.20142
0.200744
0.00245188
-0.19237
0.191628
0.00321966
-0.184014
0.183247
0.0039845
-0.176095
0.17533
0.00472799
-0.168485
0.167742
0.0054397
-0.161135
0.160423
0.00611507
-0.154033
0.153358
0.00675367
-0.147187
0.146548
0.00735784
-0.140611
0.140007
0.00793177
-0.134319
0.133745
0.00848073
-0.128318
0.127769
0.00901055
-0.12261
0.12208
0.00952707
-0.11719
0.116674
0.0100355
-0.112047
0.111538
0.0105399
-0.107161
0.106657
0.0110421
-0.102512
0.102009
-0.0980734
0.0975739
0.0115416
0.000123927
-0.239057
0.000502285
-0.224172
0.00106584
-0.212209
0.00174685
-0.202101
0.00249157
-0.193114
0.00325943
-0.184782
0.00402204
-0.176857
0.00476142
-0.169225
0.00546765
-0.161841
0.00613668
-0.154702
0.00676853
-0.147819
0.00736592
-0.141209
0.00793333
-0.134886
0.0084763
-0.128861
0.00900094
-0.123135
0.00951337
-0.117703
0.0100192
-0.112552
0.010523
-0.107665
0.0110269
-0.103016
-0.0985776
0.0115311
0.000138901
-0.239196
0.000525351
-0.224558
0.00109521
-0.212779
0.00178104
-0.202787
0.00252812
-0.193861
0.00329558
-0.18555
0.00405533
-0.177617
0.00478988
-0.169959
0.00548992
-0.162541
0.00615194
-0.155364
0.00677643
-0.148443
0.00736649
-0.141799
0.0079269
-0.135447
0.00846346
-0.129397
0.0089825
-0.123654
0.00949049
-0.118211
0.00999344
-0.113055
0.0104962
-0.108168
0.0110017
-0.103521
-0.0990863
0.0115104
0.000146913
-0.239343
0.000542825
-0.224954
0.00112054
-0.213357
0.0018116
-0.203478
0.00256082
-0.194611
0.00332735
-0.186316
0.00408352
-0.178373
0.00481247
-0.170688
0.00550554
-0.163234
0.00615983
-0.156018
0.00677632
-0.14906
0.00735849
-0.142381
0.00791139
-0.136
0.00844107
-0.129927
0.00895411
-0.124167
0.00945726
-0.118714
0.00995692
-0.113555
0.0104584
-0.108669
0.0109653
-0.104028
-0.0995995
0.0114785
0.000153192
-0.239496
0.000557508
-0.225359
0.00114313
-0.213943
0.00183908
-0.204174
0.00258978
-0.195361
0.00335458
-0.187081
0.0041063
-0.179125
0.00482876
-0.171411
0.005514
-0.163919
0.00615974
-0.156664
0.00676748
-0.149668
0.00734109
-0.142955
0.00788589
-0.136545
0.00840815
-0.130449
0.00891467
-0.124673
0.0094125
-0.119212
0.00990845
-0.114051
0.0104084
-0.109169
0.0109164
-0.104536
-0.100117
0.0114341
0.000158367
-0.239654
0.000570944
-0.225771
0.0011634
-0.214535
0.00186349
-0.204874
0.00261487
-0.196113
0.00337699
-0.187843
0.00412326
-0.179871
0.00483823
-0.172126
0.00551467
-0.164596
0.00615095
-0.1573
0.00674911
-0.150266
0.00731339
-0.143519
0.00784939
-0.137081
0.00836357
-0.130964
0.00886295
-0.125173
0.00935486
-0.119704
0.00984652
-0.114543
0.0103444
-0.109667
0.0108533
-0.105045
-0.100639
0.0113754
0.000163076
-0.239817
0.000583741
-0.226192
0.0011818
-0.215133
0.00188499
-0.205577
0.00263604
-0.196864
0.00339442
-0.188602
0.00413412
-0.180611
0.00484048
-0.172832
0.00550702
-0.165262
0.00613282
-0.157926
0.00672043
-0.150853
0.00727448
-0.144073
0.00780084
-0.137607
0.00830614
-0.131469
0.00879758
-0.125664
0.00928277
-0.120189
0.00976938
-0.115029
0.0102645
-0.110162
0.0107737
-0.105554
-0.101166
0.0113
0.000167233
-0.239985
0.000594686
-0.226619
0.00119817
-0.215737
0.00190361
-0.206283
0.00265324
-0.197613
0.0034067
-0.189355
0.00413861
-0.181343
0.00483513
-0.173528
0.00549059
-0.165918
0.00610475
-0.15854
0.00668071
-0.151429
0.00722348
-0.144616
0.00773918
-0.138123
0.00823459
-0.131964
0.00871708
-0.126147
0.00919451
-0.120666
0.00967501
-0.11551
0.0101664
-0.110653
0.010675
-0.106063
-0.101696
0.0112049
0.000170869
-0.240155
0.000604353
-0.227053
0.00121263
-0.216345
0.00191944
-0.206989
0.00266649
-0.198361
0.00341376
-0.190102
0.00413657
-0.182066
0.00482192
-0.174214
0.00546498
-0.166561
0.00606621
-0.159141
0.00662926
-0.151992
0.00715954
-0.145146
0.00766337
-0.138626
0.00814767
-0.132449
0.00861992
-0.126619
0.00908822
-0.121135
0.00956116
-0.115983
0.0100473
-0.11114
0.0105541
-0.106569
-0.102228
0.0110865
0.00017405
-0.240329
0.000613046
-0.227492
0.00122541
-0.216957
0.0019326
-0.207697
0.00267587
-0.199104
0.00341559
-0.190842
0.0041279
-0.182778
0.00480068
-0.174887
0.00542993
-0.16719
0.00601682
-0.159728
0.00656555
-0.152541
0.00708191
-0.145662
0.00757243
-0.139117
0.00804412
-0.13292
0.00850454
-0.127079
0.00896196
-0.121592
0.00942546
-0.116446
0.0099044
-0.111618
0.0104074
-0.107073
-0.102761
0.0109408
0.000176862
-0.240506
0.000620999
-0.227936
0.00123677
-0.217573
0.0019433
-0.208403
0.00268152
-0.199842
0.00341232
-0.191573
0.00411268
-0.183478
0.00477139
-0.175545
0.00538532
-0.167804
0.00595634
-0.160299
0.0064892
-0.153074
0.00699003
-0.146163
0.00746557
-0.139592
0.00792287
-0.133378
0.0083695
-0.127526
0.00881386
-0.122036
0.00926545
-0.116898
0.00973456
-0.112088
0.0102312
-0.107569
-0.103293
0.0107632
0.000179425
-0.240686
0.00062849
-0.228385
0.00124703
-0.218192
0.00195185
-0.209108
0.00268371
-0.200574
0.00340415
-0.192293
0.00409108
-0.184165
0.00473421
-0.176188
0.00533125
-0.168401
0.00588478
-0.160853
0.00640008
-0.153589
0.00688361
-0.146647
0.00734226
-0.140051
0.0077831
-0.133818
0.0082136
-0.127956
0.00864222
-0.122465
0.00907884
-0.117334
0.0095347
-0.112543
0.0100214
-0.108056
-0.103821
0.0105488
0.000181962
-0.240868
0.000635929
-0.228839
0.00125663
-0.218812
0.00195866
-0.20981
0.00268282
-0.201298
0.00339148
-0.193002
0.00406348
-0.184837
0.0046895
-0.176814
0.00526807
-0.16898
0.00580245
-0.161387
0.00629841
-0.154085
0.00676272
-0.147111
0.00720237
-0.140491
0.00762437
-0.13424
0.00803602
-0.128368
0.0084457
-0.122875
0.00886354
-0.117752
0.0093018
-0.112982
0.00977402
-0.108528
-0.104339
0.0102923
0.000184888
-0.241053
0.000643967
-0.229298
0.00126618
-0.219434
0.00196426
-0.210508
0.00267937
-0.202013
0.0033748
-0.193697
0.00403041
-0.185493
0.00463783
-0.177422
0.0051964
-0.169538
0.00571001
-0.161901
0.00618486
-0.15456
0.00662796
-0.147554
0.00704634
-0.140909
0.00744685
-0.134641
0.00783653
-0.128758
0.00822344
-0.123262
0.00861782
-0.118147
0.00903286
-0.113397
0.00948418
-0.108979
-0.104842
0.00998694
0.000188931
-0.241242
0.000653568
-0.229763
0.00127642
-0.220057
0.00196926
-0.211201
0.00267392
-0.202718
0.00335472
-0.194378
0.00399258
-0.186131
0.00458003
-0.178009
0.00511721
-0.170075
0.00560856
-0.162392
0.00606064
-0.155012
0.00648062
-0.147974
0.00687547
-0.141304
0.00725175
-0.135017
0.00761599
-0.129122
0.00797571
-0.123621
0.00834088
-0.118512
0.00872534
-0.113781
0.00914695
-0.109401
-0.10532
0.00962517
0.000195141
-0.241437
0.000665824
-0.230233
0.00128805
-0.22068
0.00197425
-0.211887
0.00266712
-0.203411
0.00333199
-0.195043
0.00395083
-0.18675
0.00451714
-0.178576
0.00503175
-0.17059
0.00549963
-0.16286
0.00592761
-0.15544
0.00632288
-0.148369
0.00669222
-0.141673
0.00704176
-0.135367
0.00737727
-0.129458
0.0077053
-0.123949
0.00803493
-0.118841
0.0083801
-0.114126
0.00876129
-0.109782
-0.105763
0.00920407
0.000204807
-0.241642
0.000681749
-0.23071
0.00130186
-0.2213
0.00198002
-0.212565
0.00265977
-0.20409
0.00330743
-0.195691
0.00390613
-0.187348
0.00445031
-0.17912
0.00494151
-0.171081
0.00538512
-0.163304
0.00578811
-0.155843
0.0061576
-0.148739
0.00650004
-0.142016
0.00682093
-0.135688
0.00712509
-0.129762
0.00741767
-0.124242
0.00770623
-0.11913
0.00800372
-0.114424
0.00833304
-0.110112
-0.106156
0.00872619
0.00022035
-0.241862
0.000703711
-0.231194
0.00132001
-0.221916
0.001988
-0.213233
0.00265275
-0.204755
0.00328175
-0.19632
0.00385926
-0.187926
0.00438065
-0.179641
0.00484806
-0.171549
0.00526719
-0.163723
0.00564503
-0.156221
0.00598842
-0.149082
0.00630325
-0.142331
0.00659411
-0.135978
0.00686449
-0.130032
0.00711781
-0.124495
0.00735931
-0.119371
0.00759865
-0.114663
0.00785709
-0.11037
-0.106472
0.00817365
0.000249738
-0.242112
0.000739903
-0.231684
0.00134661
-0.222523
0.00199926
-0.213886
0.00264613
-0.205402
0.00325497
-0.196928
0.00381056
-0.188481
0.00430896
-0.18014
0.00475285
-0.171993
0.0051482
-0.164118
0.00550193
-0.156575
0.00582047
-0.149401
0.0061088
-0.142619
0.00637002
-0.13624
0.00660535
-0.130267
0.00681481
-0.124705
0.00699822
-0.119555
0.007156
-0.114821
0.00730071
-0.110515
-0.10667
0.00749817
0.000312234
-0.242424
0.000802895
-0.232174
0.00137986
-0.2231
0.00201099
-0.214517
0.00263808
-0.206029
0.00322613
-0.197517
0.00375972
-0.189015
0.00423553
-0.180615
0.00465688
-0.172414
0.00503014
-0.164491
0.00536239
-0.156907
0.00565984
-0.149698
0.00592688
-0.142886
0.0061653
-0.136478
0.0063737
-0.130476
0.0065468
-0.124878
0.00667365
-0.119682
0.00673478
-0.114882
0.00671339
-0.110493
-0.106686
0.00672983
0.246176
0.000244649
-0.246421
0.245961
0.000215011
0.245757
0.000203934
0.245557
0.000200673
0.245356
0.000200855
0.245154
0.000202011
0.24495
0.000203677
0.244745
0.000205404
0.244538
0.000206827
0.24433
0.000207744
0.244122
0.000208058
0.243914
0.000207731
0.243708
0.000206724
0.243503
0.000204981
0.2433
0.000202336
0.243102
0.000198526
0.242909
0.000192402
0.242726
0.000183299
0.242564
0.000162054
0.00014009
0.239969
0.000549402
-0.240274
0.23964
0.000543882
0.239296
0.000548373
0.238937
0.000559413
0.238565
0.000573232
0.23818
0.000586581
0.237785
0.000599309
0.237379
0.00061107
0.236964
0.000621457
0.236542
0.000630195
0.236113
0.000637137
0.235678
0.000642199
0.23524
0.000645313
0.234798
0.000646389
0.234355
0.000645192
0.233913
0.000641425
0.233471
0.000633774
0.233033
0.000621725
0.232598
0.000596866
0.000563538
0.232325
0.000816297
-0.232591
0.232015
0.000853087
0.231674
0.000889897
0.231305
0.000928441
0.230911
0.000967459
0.230493
0.00100417
0.230054
0.00103833
0.229595
0.00106976
0.229119
0.00109817
0.228625
0.0011233
0.228118
0.00114501
0.227597
0.0011632
0.227064
0.00117782
0.226522
0.00118881
0.225971
0.00119601
0.225413
0.00119924
0.224849
0.00119774
0.224279
0.00119143
0.223698
0.00117789
0.00116224
0.223555
0.00100581
-0.223744
0.223321
0.00108675
0.223048
0.00116299
0.22274
0.00123694
0.222398
0.00130896
0.222025
0.00137688
0.221623
0.00144035
0.221194
0.00149918
0.220739
0.00155312
0.22026
0.00160194
0.21976
0.0016455
0.219239
0.00168375
0.218701
0.00171667
0.218145
0.00174429
0.217574
0.00176661
0.21699
0.00178372
0.216392
0.00179546
0.215781
0.00180224
0.215156
0.00180357
0.00180093
0.214093
0.00110521
-0.214192
0.213949
0.00123026
0.213764
0.00134845
0.213539
0.00146168
0.213277
0.00157086
0.21298
0.00167431
0.212648
0.00177162
0.212285
0.00186252
0.211891
0.00194673
0.211469
0.00202404
0.211021
0.00209429
0.210547
0.00215745
0.21005
0.00221355
0.209532
0.00226273
0.208993
0.00230516
0.208436
0.00234115
0.20786
0.00237098
0.207267
0.00239524
0.206657
0.00241407
0.00242838
0.20433
0.00112167
-0.204346
0.20427
0.00129015
0.204168
0.00145061
0.204025
0.00160434
0.203844
0.00175223
0.203625
0.00189294
0.203371
0.00202603
0.203082
0.00215115
0.202761
0.00226794
0.202409
0.00237617
0.202027
0.00247569
0.201618
0.00256643
0.201183
0.00264848
0.200724
0.00272205
0.200242
0.00278748
0.199738
0.00284527
0.199213
0.00289598
0.198667
0.0029405
0.198102
0.00297941
0.00301387
0.194599
0.00107191
-0.194549
0.194606
0.00128251
0.194573
0.0014843
0.194499
0.00167811
0.194386
0.0018646
0.194237
0.00204265
0.194051
0.00221177
0.193831
0.0023715
0.193577
0.00252145
0.193292
0.00266131
0.192977
0.00279089
0.192633
0.00291013
0.192262
0.00301911
0.191866
0.00311811
0.191446
0.0032076
0.191003
0.00328828
0.190538
0.003361
0.190052
0.00342693
0.189544
0.0034871
0.00354291
0.185139
0.000974729
-0.185042
0.185196
0.0012257
0.185213
0.00146727
0.185192
0.00169991
0.185132
0.00192399
0.185036
0.0021385
0.184905
0.00234289
0.18474
0.00253662
0.184542
0.00271919
0.184313
0.00289024
0.184055
0.00304952
0.183768
0.00319693
0.183454
0.00333255
0.183116
0.0034567
0.182754
0.00356996
0.182369
0.00367322
0.181962
0.00376762
0.181534
0.00385468
0.181085
0.00393588
0.00401295
0.176104
0.000847174
-0.175977
0.176193
0.00113668
0.176244
0.00141631
0.176258
0.00168619
0.176235
0.00194646
0.176178
0.00219612
0.176086
0.00243455
0.175962
0.00266109
0.175806
0.00287518
0.17562
0.00307635
0.175405
0.00326428
0.175163
0.00343881
0.174896
0.00359998
0.174604
0.00374814
0.17429
0.00388395
0.173955
0.00400847
0.173599
0.00412315
0.173224
0.00422993
0.172829
0.00433084
0.00442813
0.167576
0.000703077
-0.167431
0.167683
0.00102944
0.167754
0.00134546
0.167789
0.00165104
0.167789
0.00194602
0.167756
0.00222943
0.16769
0.00250052
0.167592
0.00275855
0.167465
0.00300282
0.167308
0.00323279
0.167125
0.00344803
0.166915
0.00364827
0.166682
0.0038335
0.166426
0.00400403
0.166149
0.00416058
0.165853
0.00430436
0.165539
0.00443717
0.165208
0.00456139
0.164859
0.00467983
0.00479547
0.159587
0.000552892
-0.159437
0.159702
0.00091462
0.159782
0.00126566
0.159827
0.00160556
0.15984
0.00193395
0.159819
0.0022498
0.159767
0.00255227
0.159686
0.00284047
0.159575
0.00311364
0.159436
0.00337107
0.159272
0.00361222
0.159084
0.00383669
0.158873
0.00404435
0.158642
0.00423542
0.158392
0.00441062
0.158125
0.00457127
0.157842
0.00471948
0.157546
0.0048582
0.157234
0.00499123
0.00512259
0.152142
0.000403627
-0.151993
0.152257
0.00079994
0.152337
0.00118491
0.152385
0.00155801
0.1524
0.00191873
0.152384
0.00226595
0.152338
0.00259869
0.152262
0.00291597
0.152159
0.00321688
0.152029
0.00350058
0.151875
0.00376637
0.151698
0.00401367
0.1515
0.00424219
0.151284
0.00445199
0.151051
0.00464365
0.150803
0.00481854
0.150544
0.00497906
0.150273
0.0051287
0.149992
0.00527266
0.00541626
0.145222
0.000260086
-0.145079
0.145331
0.000690656
0.145408
0.00110873
0.145451
0.00151421
0.145464
0.00190645
0.145445
0.00228421
0.145398
0.00264637
0.145322
0.00299184
0.145219
0.00331958
0.145091
0.00362858
0.14494
0.00391794
0.144766
0.00418689
0.144574
0.00443487
0.144364
0.00466169
0.14414
0.00486769
0.143904
0.0050541
0.14366
0.00522351
0.143409
0.00537988
0.143151
0.00553026
0.00568146
0.138801
0.000125474
-0.138666
0.138901
0.000590221
0.138969
0.00104071
0.139005
0.00147803
0.139011
0.00190125
0.138986
0.00230895
0.138932
0.00269992
0.138851
0.00307294
0.138744
0.00342681
0.138612
0.00376035
0.138458
0.00407246
0.138283
0.0043621
0.138089
0.00462839
0.13788
0.00487075
0.137659
0.00508912
0.137428
0.00528435
0.137193
0.00545897
0.136956
0.00561715
0.136717
0.00576844
0.00592074
0.132846
9.4227e-07
-0.132722
0.132936
0.000500772
0.132993
0.000982886
0.13302
0.00145182
0.133015
0.00190569
0.132981
0.00234296
0.132919
0.00276232
0.132829
0.00316241
0.132714
0.0035419
0.132575
0.00389944
0.132414
0.00423367
0.132233
0.00454326
0.132034
0.00482695
0.131821
0.00508365
0.131598
0.00531266
0.131368
0.00551416
0.131137
0.00569013
0.13091
0.00584436
0.130688
0.00598954
0.00613334
0.127323
-0.00010868
-0.127213
0.127402
0.00042129
0.127449
0.000936286
0.127464
0.00143672
0.127449
0.00192109
0.127404
0.0023877
0.127331
0.00283513
0.127232
0.00326194
0.127107
0.00366665
0.126958
0.00404773
0.126789
0.00440359
0.126599
0.00473258
0.126393
0.00503298
0.126174
0.00530311
0.125945
0.00554135
0.125712
0.00574684
0.125482
0.0059203
0.125262
0.00606411
0.125058
0.00619416
0.00631347
0.122204
-0.00020763
-0.122105
0.122271
0.000353744
0.122306
0.000901118
0.12231
0.00143311
0.122283
0.00194783
0.122227
0.00244349
0.122144
0.00291866
0.122034
0.0033718
0.121899
0.00380131
0.121742
0.00420547
0.121563
0.00458248
0.121365
0.00493038
0.121151
0.00524696
0.120924
0.00552984
0.120689
0.0057763
0.120452
0.0059839
0.120221
0.00615127
0.120007
0.00627798
0.119819
0.00638299
0.00645033
0.117457
-0.000295892
-0.117369
0.117514
0.000297261
0.117538
0.000876789
0.117531
0.00144028
0.117493
0.00198507
0.117428
0.00250936
0.117335
0.00301174
0.117216
0.00349065
0.117073
0.00394434
0.116907
0.00437095
0.116721
0.00476849
0.116517
0.0051347
0.116297
0.00546694
0.116065
0.00576208
0.115825
0.00601616
0.115584
0.0062246
0.115352
0.00638285
0.115145
0.00648505
0.114971
0.00655729
0.00653933
0.113055
-0.000374395
-0.112977
0.113102
0.000250134
0.113118
0.000861533
0.113102
0.00145622
0.113056
0.00203049
0.112983
0.00258259
0.112883
0.0031113
0.112759
0.00361503
0.112612
0.0040919
0.112443
0.00453995
0.112254
0.00495702
0.112048
0.00534064
0.111827
0.00568783
0.111595
0.00599475
0.111354
0.00625633
0.111114
0.00646536
0.110883
0.0066134
0.110687
0.00668149
0.110539
0.00670528
0.00658463
0.10897
-0.1089
-0.000444616
0.109011
0.000208997
0.10902
0.000852692
0.108999
0.00147778
0.108949
0.0020803
0.108873
0.00265881
0.108772
0.00321237
0.108647
0.00373935
0.108501
0.00423781
0.108336
0.00470568
0.108152
0.00514072
0.107952
0.00554034
0.107739
0.00590133
0.107514
0.00621938
0.107282
0.00648868
0.107048
0.00669965
0.10682
0.00684105
0.106626
0.00687512
0.106507
0.00682464
0.00640518
0.247697
4.84601e-05
-0.247745
0.247694
2.62243e-06
0.247705
-1.0618e-05
0.247715
-1.0362e-05
0.247718
-3.53626e-06
0.247712
6.36124e-06
0.247694
1.82845e-05
0.247662
3.12678e-05
0.247618
4.45908e-05
0.24756
5.78464e-05
0.247489
7.0851e-05
0.247406
8.36372e-05
0.24731
9.58931e-05
0.247203
0.000107137
0.247085
0.000117288
0.246959
0.000126314
0.246825
0.000133514
0.246687
0.000138487
0.246551
0.000135458
0.00013064
0.240731
-0.000204738
-0.240478
0.240945
-0.000211318
0.241135
-0.000199933
0.241299
-0.000175281
0.241439
-0.00014297
0.241552
-0.00010689
0.241638
-6.79864e-05
0.241697
-2.72834e-05
0.241727
1.40819e-05
0.24173
5.52589e-05
0.241704
9.66625e-05
0.241649
0.000139004
0.241565
0.000179911
0.241454
0.00021844
0.241316
0.000254851
0.241153
0.000289033
0.240967
0.000319987
0.240758
0.000347247
0.240526
0.000367036
0.000383165
0.23084
-0.000684514
-0.23036
0.231269
-0.000640374
0.231657
-0.000588036
0.232008
-0.000526426
0.232323
-0.000457687
0.232601
-0.000384938
0.232842
-0.000309077
0.233046
-0.000230869
0.233211
-0.000151554
0.233341
-7.43203e-05
0.233436
1.69051e-06
0.233489
8.58412e-05
0.233503
0.000165774
0.233481
0.000240809
0.233422
0.000313928
0.233326
0.000384218
0.233196
0.000450588
0.23303
0.00051274
0.232829
0.000568784
0.00062025
0.219592
-0.00132302
-0.218954
0.220185
-0.00123318
0.220735
-0.00113815
0.221245
-0.00103625
0.221715
-0.00092755
0.222144
-0.000814311
0.222533
-0.000697543
0.22288
-0.000578191
0.223186
-0.000457448
0.223448
-0.000336494
0.223665
-0.000214981
0.223842
-9.11013e-05
0.223974
3.29877e-05
0.224068
0.000147354
0.224119
0.000263344
0.224127
0.000375761
0.224094
0.000483939
0.224019
0.000587595
0.223902
0.000685569
0.000777812
0.207994
-0.00206794
-0.207249
0.208699
-0.00193798
0.209363
-0.00180277
0.209988
-0.00166115
0.210573
-0.00151255
0.211118
-0.00135857
0.21162
-0.0012003
0.212081
-0.00103873
0.212498
-0.000874882
0.212871
-0.000709581
0.2132
-0.000543446
0.213486
-0.000376808
0.21373
-0.000211276
0.213929
-5.13233e-05
0.214083
0.000109223
0.214193
0.000265629
0.214258
0.000418288
0.21428
0.000565916
0.214258
0.000707863
0.000843591
0.196627
-0.00287756
-0.195818
0.197401
-0.00271195
0.198138
-0.00253973
0.198838
-0.00236041
0.199499
-0.00217342
0.20012
-0.00198004
0.200701
-0.00178137
0.201241
-0.00157853
0.201739
-0.00137259
0.202194
-0.00116457
0.202606
-0.000955453
0.202975
-0.000746072
0.203301
-0.000537519
0.203581
-0.000331295
0.203818
-0.000128128
0.204013
7.07289e-05
0.204163
0.00026877
0.204268
0.000460732
0.204329
0.000646808
0.000826442
0.185819
-0.00372086
-0.184976
0.18663
-0.003523
0.187407
-0.00331672
0.188149
-0.00310199
0.188854
-0.00287852
0.189521
-0.0026475
0.19015
-0.00241016
0.190739
-0.00216774
0.191288
-0.00192146
0.191796
-0.0016725
0.192262
-0.00142196
0.192687
-0.00117082
0.19307
-0.000920088
0.19341
-0.000671073
0.193706
-0.000424691
0.193959
-0.000181863
0.194172
5.50993e-05
0.194341
0.000292332
0.194466
0.000521344
0.000743839
0.17572
-0.00457655
-0.174865
0.176547
-0.0043491
0.177341
-0.00411121
0.178102
-0.0038631
0.178829
-0.00360489
0.179519
-0.00333789
0.180172
-0.0030635
0.180788
-0.00278315
0.181364
-0.00249822
0.181902
-0.00221
0.1824
-0.00191968
0.182857
-0.00162839
0.183274
-0.0013372
0.183651
-0.00104733
0.183986
-0.000759733
0.184279
-0.000475415
0.18453
-0.000195703
0.184743
7.90218e-05
0.184913
0.0003513
0.00061492
0.166374
-0.0054313
-0.16552
0.167202
-0.00517642
0.167999
-0.00490886
0.168765
-0.00462895
0.169498
-0.00433732
0.170195
-0.00403559
0.170857
-0.00372543
0.171482
-0.00340848
0.172071
-0.00308627
0.172621
-0.00276023
0.173133
-0.00243165
0.173606
-0.00210175
0.174041
-0.00177168
0.174436
-0.00144258
0.174792
-0.00111553
0.175108
-0.000791494
0.175384
-0.000471572
0.17562
-0.000157262
0.175819
0.000152531
0.000456854
0.157761
-0.00627786
-0.156914
0.158582
-0.00599744
0.159375
-0.00570167
0.160137
-0.005391
0.160866
-0.00506677
0.161562
-0.0047311
0.162222
-0.00438597
0.162847
-0.00403328
0.163436
-0.00367477
0.163987
-0.00331198
0.164502
-0.0029463
0.164979
-0.00257901
0.165419
-0.00221131
0.165821
-0.00184435
0.166184
-0.00147925
0.16651
-0.00111704
0.166797
-0.000758765
0.167045
-0.000405377
0.167258
-5.99407e-05
0.000283037
0.149831
-0.00711336
-0.148996
0.150643
-0.00680929
0.151428
-0.00648636
0.152182
-0.00614536
0.152904
-0.00578879
0.153592
-0.00541938
0.154246
-0.00503955
0.154864
-0.00465151
0.155447
-0.00425721
0.155993
-0.00385833
0.156503
-0.0034563
0.156976
-0.00305247
0.157413
-0.00264805
0.157813
-0.00224425
0.158176
-0.00184219
0.158502
-0.00144298
0.158791
-0.0010477
0.159043
-0.000657509
0.159257
-0.000273886
0.000102762
0.142526
-0.00793807
-0.141701
0.143329
-0.00761253
0.144105
-0.00726299
0.144851
-0.00689139
0.145565
-0.006502
0.146244
-0.00609841
0.146888
-0.00568354
0.147496
-0.00526002
0.148069
-0.00483001
0.148606
-0.00439528
0.149107
-0.00395731
0.149572
-0.00351745
0.150001
-0.00307696
0.150394
-0.002637
0.15075
-0.00219877
0.151071
-0.0017634
0.151355
-0.00133204
0.151603
-0.000905789
0.151815
-0.000485879
-7.47259e-05
0.135785
-0.00875457
-0.134969
0.136583
-0.00841033
0.137354
-0.0080339
0.138093
-0.00763034
0.138797
-0.00720676
0.139467
-0.00676773
0.1401
-0.00631687
0.140697
-0.00585726
0.141259
-0.00539126
0.141784
-0.00492066
0.142274
-0.00444692
0.142727
-0.00397136
0.143146
-0.00349518
0.143528
-0.00301957
0.143875
-0.00254571
0.144187
-0.00207476
0.144462
-0.00160791
0.144703
-0.00114635
0.144909
-0.00069142
-0.000244796
0.129557
-0.0095674
-0.128744
0.130354
-0.00920788
0.131123
-0.00880258
0.131857
-0.00836412
0.132554
-0.00790372
0.133213
-0.00742712
0.133835
-0.00693877
0.13442
-0.00644222
0.134968
-0.00593985
0.135481
-0.00543333
0.135958
-0.00492398
0.1364
-0.00441298
0.136806
-0.00390146
0.137177
-0.00339056
0.137513
-0.00288144
0.137813
-0.0023753
0.138079
-0.00187336
0.138309
-0.00137689
0.138505
-0.000887162
-0.000405933
0.123796
-0.0103829
-0.122981
0.1246
-0.0100114
0.125369
-0.00957212
0.126099
-0.00909359
0.126787
-0.00859242
0.127436
-0.00807549
0.128045
-0.00754811
0.128617
-0.00701398
0.129152
-0.00647518
0.129652
-0.00593295
0.130116
-0.00538833
0.130545
-0.00484226
0.13094
-0.00429573
0.131299
-0.00374983
0.131623
-0.00320569
0.131912
-0.00266455
0.132167
-0.0021277
0.132386
-0.00159649
0.132571
-0.00107214
-0.000556108
0.118468
-0.0112099
-0.117641
0.119282
-0.0108261
0.120053
-0.0103428
0.120777
-0.00981692
0.121454
-0.00927033
0.12209
-0.00871065
0.122685
-0.00814355
0.123243
-0.00757211
0.123765
-0.00699748
0.124253
-0.00642024
0.124705
-0.00584093
0.125123
-0.00526023
0.125507
-0.00467896
0.125855
-0.00409819
0.126168
-0.00351906
0.126447
-0.0029429
0.12669
-0.00237107
0.126899
-0.00180503
0.127073
-0.00124624
-0.000696689
0.113541
-0.012062
-0.112689
0.114368
-0.0116536
0.115135
-0.0111099
0.115847
-0.010529
0.11651
-0.00993348
0.11713
-0.00933052
0.117712
-0.00872488
0.118257
-0.00811767
0.118768
-0.00750859
0.119245
-0.00689733
0.119688
-0.00628395
0.120097
-0.00566887
0.120471
-0.00505288
0.12081
-0.00443706
0.121114
-0.0038227
0.121382
-0.00321119
0.121615
-0.00260405
0.121813
-0.00200291
0.121976
-0.00140941
-0.000825555
0.108981
-0.0129656
-0.108077
0.109816
-0.0124887
0.110569
-0.0118634
0.111264
-0.0112241
0.111911
-0.0105799
0.112516
-0.00993615
0.113086
-0.00929504
0.113623
-0.00865443
0.114127
-0.00801234
0.114597
-0.00736774
0.115034
-0.00672038
0.115436
-0.00607065
0.115802
-0.00541945
0.116133
-0.004768
0.116428
-0.00411777
0.116687
-0.00347032
0.116911
-0.00282734
0.117098
-0.0021906
0.117251
-0.00156196
-0.000943568
0.104752
-0.0139347
-0.103783
0.105568
-0.013305
0.106299
-0.0125937
0.106977
-0.0119027
0.107613
-0.0112152
0.108212
-0.0105351
0.108778
-0.00986131
0.109312
-0.00918869
0.109814
-0.00851381
0.110281
-0.00783534
0.110714
-0.00715309
0.111111
-0.00646763
0.111472
-0.00578012
0.111796
-0.00509204
0.112083
-0.00440507
0.112334
-0.00372097
0.112548
-0.00304156
0.112726
-0.00236877
0.112869
-0.00170465
-0.00105169
0.100786
-0.0999564
-0.014764
0.101534
-0.0140534
0.102265
-0.013325
0.102947
-0.0125845
0.103589
-0.0118572
0.104196
-0.0111418
0.104768
-0.0104336
0.105306
-0.00972678
0.105809
-0.00901694
0.106277
-0.00830241
0.106707
-0.0075832
0.107099
-0.00686022
0.107454
-0.00613493
0.107771
-0.00540906
0.10805
-0.00468451
0.108293
-0.00396319
0.108498
-0.00324702
0.108667
-0.00253801
0.108801
-0.00183831
-0.00115075
0.0158839
0.0825269
-0.0816967
-0.0167141
0.0150683
0.0867559
-0.0859403
0.0142617
0.0912284
-0.0904218
0.0134575
0.0959576
-0.0951534
0.0126496
0.100961
-0.100153
0.0118321
0.106262
-0.105444
0.011
0.111893
-0.111061
0.0101491
0.117901
-0.11705
0.00927579
0.124345
-0.123472
0.00837739
0.131298
-0.1304
0.00745203
0.138852
-0.137926
0.00649916
0.147111
-0.146158
0.00552044
0.156195
-0.155216
0.00452138
0.166228
-0.165229
0.00351423
0.177325
-0.176318
0.00252227
0.189551
-0.188559
0.00158647
0.20287
-0.201935
0.000775038
0.217036
-0.216225
0.000186024
0.231339
-0.23075
0.244277
-0.244091
0.0161019
0.0833774
-0.0169524
0.0152665
0.0875913
0.0144407
0.0920542
0.0136181
0.0967802
0.0127926
0.101786
0.0119584
0.107096
0.0111104
0.112741
0.0102442
0.118768
0.00935625
0.125233
0.00844366
0.132211
0.00750468
0.139791
0.00653894
0.148077
0.0055485
0.157185
0.00453952
0.167237
0.00352515
0.178339
0.00252993
0.190547
0.00159614
0.203804
0.00079139
0.217841
0.00021654
0.231914
0.244494
0.0162867
0.084246
-0.0171553
0.0154337
0.0884444
0.0145907
0.0928973
0.0137516
0.0976193
0.0129103
0.102628
0.0120612
0.107945
0.011199
0.113603
0.0103193
0.119647
0.00941841
0.126134
0.00849341
0.133136
0.00754261
0.140742
0.00656584
0.149053
0.00556552
0.158186
0.00454837
0.168255
0.00352827
0.179359
0.00253063
0.191544
0.00159836
0.204736
0.000798636
0.218641
0.000227095
0.232485
0.244721
0.0164384
0.0851302
-0.0173227
0.0155698
0.089313
0.0147116
0.0937554
0.013858
0.0984729
0.0130029
0.103483
0.0121406
0.108807
0.011266
0.114478
0.0103745
0.120539
0.00946239
0.127046
0.00852675
0.134072
0.00756592
0.141702
0.00657992
0.150039
0.00557147
0.159194
0.00454776
0.169278
0.0035233
0.180384
0.00252411
0.192543
0.00159342
0.205667
0.000797727
0.219437
0.000229664
0.233054
0.244951
0.0165573
0.0860282
-0.0174553
0.0156751
0.0901952
0.0148037
0.0946268
0.0139373
0.0993393
0.0130701
0.10435
0.0121964
0.109681
0.011311
0.115363
0.0104094
0.12144
0.00948775
0.127968
0.00854319
0.135016
0.00757407
0.142671
0.00658056
0.151033
0.00556568
0.160209
0.00453705
0.170307
0.00350971
0.181411
0.00251026
0.193543
0.00158216
0.206595
0.000791257
0.220228
0.00022821
0.233617
0.245179
0.0166444
0.0869382
-0.0175544
0.0157503
0.0910894
0.0148673
0.0955097
0.0139898
0.100217
0.013112
0.105228
0.0122284
0.110565
0.0113339
0.116258
0.0104238
0.12235
0.00949423
0.128897
0.00854242
0.135968
0.00756673
0.143647
0.00656747
0.152032
0.00554792
0.161228
0.00451612
0.171339
0.00348764
0.18244
0.0024896
0.194541
0.00156567
0.207519
0.000780988
0.221012
0.000224426
0.234173
0.245403
0.0167006
0.0878587
-0.0176211
0.015796
0.0919939
0.014903
0.0964028
0.0140158
0.101104
0.0131289
0.106115
0.0122369
0.111457
0.0113346
0.11716
0.0104175
0.123268
0.00948175
0.129833
0.00852435
0.136925
0.00754381
0.144628
0.00654057
0.153035
0.00551816
0.162251
0.00448502
0.172372
0.00345721
0.183467
0.00246234
0.195536
0.00154421
0.208437
0.00076732
0.221789
0.000218839
0.234722
0.245622
0.016727
0.0887887
-0.017657
0.0158131
0.0929078
0.0149111
0.0973049
0.0140154
0.102
0.0131208
0.107009
0.0122217
0.112356
0.0113132
0.118069
0.0103907
0.12419
0.00945019
0.130774
0.00848888
0.137887
0.00750523
0.145611
0.00649981
0.154041
0.0054764
0.163274
0.00444379
0.173404
0.00341853
0.184493
0.00242864
0.196526
0.00151807
0.209348
0.000750675
0.222557
0.000211985
0.23526
0.245834
0.0167246
0.0897275
-0.0176633
0.0158021
0.0938303
0.014892
0.098215
0.0139889
0.102903
0.0130876
0.107911
0.0121828
0.11326
0.0112694
0.118982
0.0103429
0.125117
0.0093994
0.131717
0.00843587
0.13885
0.00745089
0.146596
0.00644514
0.155046
0.00542262
0.164297
0.00439249
0.174435
0.00337173
0.185514
0.00238874
0.197509
0.00148756
0.210249
0.000731467
0.223313
0.00020424
0.235788
0.246038
0.0166938
0.090675
-0.0176413
0.0157631
0.094761
0.0148455
0.0991326
0.0139359
0.103812
0.0130291
0.108818
0.0121198
0.11417
0.011203
0.119899
0.0102741
0.126045
0.00932912
0.132662
0.00836513
0.139814
0.00738065
0.147581
0.00637649
0.156051
0.00535684
0.165316
0.0043312
0.17546
0.00331695
0.186528
0.00234286
0.198483
0.001453
0.211139
0.00071003
0.224056
0.00019583
0.236302
0.246234
0.0166348
0.0916317
-0.0175915
0.0156958
0.0957
0.0147712
0.100057
0.0138558
0.104728
0.0129445