/*--------------------------------*- C++ -*----------------------------------*\
  =========                 |
  \\      /  F ield         | OpenFOAM: The Open Source CFD Toolbox
   \\    /   O peration     | Website:  https://openfoam.org
    \\  /    A nd           | Version:  6.0
     \\/     M anipulation  |
\*---------------------------------------------------------------------------*/
FoamFile
{
    version     2.0;
    format      ascii;
    class       volScalarField;
    location    "14";
    object      p;
}
// * * * * * * * * * * * * * * * * * * * * * * * * * * * * * * * * * * * * * //

dimensions      [0 2 -2 0 0 0 0];

internalField   nonuniform List<scalar> 
2400
(
-143.597
-119.358
-102.441
-88.9136
-77.3136
-67.5071
-59.2432
-52.1973
-46.0922
-40.7908
-146.615
-121.975
-104.673
-90.8543
-79.056
-69.1139
-60.7503
-53.6207
-47.4391
-42.0878
-149.474
-124.443
-106.769
-92.6699
-80.6811
-70.6088
-62.1502
-54.9406
-48.6872
-43.2949
-152.133
-126.732
-108.704
-94.3404
-82.1714
-71.9735
-63.4202
-56.1324
-49.8217
-44.4226
-154.552
-128.805
-110.448
-95.8433
-83.515
-73.2056
-64.5609
-57.1915
-50.8304
-45.4523
-156.7
-130.625
-111.959
-97.1368
-84.6804
-74.2954
-65.5892
-58.1505
-51.7333
-46.3517
-158.569
-132.168
-113.194
-98.1572
-85.587
-75.1624
-66.4534
-59.0105
-52.5791
-47.179
-160.176
-133.439
-114.138
-98.8574
-86.1343
-75.6365
-66.9263
-59.5564
-53.2874
-48.1285
-161.549
-134.467
-114.825
-99.2618
-86.3061
-75.6028
-66.7276
-59.3332
-53.3825
-49.0178
-162.695
-135.292
-115.322
-99.4678
-86.2331
-75.2148
-65.9682
-58.2207
-52.1487
-48.0678
-168.902
-168.692
-168.305
-167.799
-167.212
-166.569
-165.884
-165.168
-164.418
-163.612
-138.932
-138.903
-138.741
-138.483
-138.156
-137.78
-137.373
-136.94
-136.474
-135.944
-117.474
-117.477
-117.379
-117.206
-116.983
-116.732
-116.475
-116.223
-115.969
-115.687
-100.998
-100.942
-100.802
-100.603
-100.373
-100.14
-99.9314
-99.7669
-99.654
-99.5744
-87.4877
-87.3485
-87.1366
-86.8735
-86.5978
-86.3355
-86.1314
-86.0079
-85.9969
-86.0927
-76.2913
-76.0748
-75.7925
-75.46
-75.1288
-74.8153
-74.5946
-74.4828
-74.5576
-74.8091
-66.8831
-66.6012
-66.2584
-65.8609
-65.4733
-65.0849
-64.8226
-64.6851
-64.8609
-65.2522
-58.8362
-58.5022
-58.1134
-57.6656
-57.2323
-56.7491
-56.4043
-56.1612
-56.4767
-57.0618
-51.8386
-51.4614
-51.0433
-50.5749
-50.1276
-49.5649
-49.0996
-48.6264
-49.0029
-50.0117
-45.755
-45.3029
-44.8324
-44.349
-43.8949
-43.2904
-42.6729
-41.8786
-41.8659
-43.3231
-156.506
-158.96
-161.167
-163.124
-164.809
-166.197
-167.281
-168.073
-168.593
-168.864
-127.036
-129.275
-131.322
-133.144
-134.714
-136.018
-137.061
-137.858
-138.427
-138.782
-107.017
-109.015
-110.846
-112.46
-113.829
-114.953
-115.847
-116.533
-117.024
-117.334
-92.2044
-94.0087
-95.6412
-97.0441
-98.1967
-99.1177
-99.8357
-100.37
-100.734
-100.938
-80.1927
-81.8761
-83.355
-84.5629
-85.5087
-86.2415
-86.7969
-87.1887
-87.4266
-87.5209
-70.2031
-71.8523
-73.2323
-74.2639
-75.0192
-75.5891
-76.0068
-76.2768
-76.4067
-76.4066
-61.706
-63.3825
-64.7058
-65.5847
-66.1812
-66.6222
-66.927
-67.0963
-67.139
-67.0643
-54.4845
-56.1134
-57.3224
-58.0678
-58.5593
-58.9079
-59.1203
-59.2114
-59.1925
-59.0669
-48.8624
-50.1464
-50.9215
-51.5016
-51.9327
-52.191
-52.3017
-52.3248
-52.2653
-52.1084
-45.2603
-46.1059
-45.7901
-46.0791
-46.4538
-46.5584
-46.4992
-46.4165
-46.2968
-46.0928
-32.4604
-37.1837
-42.6427
-48.8258
-55.8963
-64.1301
-73.8903
-85.7637
-102.225
-128.376
-32.9697
-37.8442
-43.4337
-49.7639
-57.0114
-65.4581
-75.479
-87.6778
-104.532
-131.074
-33.5641
-38.5798
-44.2885
-50.7619
-58.1852
-66.8445
-77.1272
-89.6527
-106.893
-133.796
-34.2557
-39.3815
-45.1968
-51.8139
-59.4168
-68.2913
-78.8374
-91.691
-109.315
-136.568
-35.0675
-40.3017
-46.2107
-52.9604
-60.732
-69.812
-80.6146
-93.7929
-111.798
-139.395
-35.8933
-41.2404
-47.2664
-54.169
-62.1172
-71.402
-82.4567
-95.9543
-114.334
-142.267
-36.8326
-42.3398
-48.4745
-55.5012
-63.598
-73.0682
-84.3613
-98.1667
-116.91
-145.168
-37.806
-43.4988
-49.7554
-56.9061
-65.1486
-74.7975
-86.3166
-100.414
-119.507
-148.077
-39.3349
-45.1281
-51.3011
-58.4476
-66.7843
-76.5839
-88.3027
-102.669
-122.094
-150.968
-41.5856
-46.9516
-52.8576
-60.032
-68.4797
-78.4028
-90.2851
-104.889
-124.626
-153.8
-27.9162
-30.4192
-34.2337
-39.1498
-44.8969
-51.5193
-59.2291
-68.3878
-81.174
-103.057
-29.1539
-31.9434
-35.8516
-40.689
-46.3331
-52.9137
-60.6663
-69.9623
-83.0073
-105.261
-29.1294
-32.6046
-36.9059
-41.9088
-47.6298
-54.2856
-62.1522
-71.6308
-84.9634
-107.596
-29.2611
-33.0385
-37.5939
-42.8064
-48.7152
-55.5523
-63.6133
-73.3328
-86.9985
-110.042
-29.665
-33.5521
-38.241
-43.6075
-49.699
-56.7427
-65.0364
-75.0383
-89.0775
-112.562
-30.1247
-34.1397
-38.9507
-44.4421
-50.6876
-57.9228
-66.4514
-76.7514
-91.1849
-115.124
-30.5566
-34.7323
-39.6822
-45.3052
-51.7028
-59.1242
-67.8857
-78.4877
-93.3217
-117.715
-31.0005
-35.3255
-40.4103
-46.1717
-52.7309
-60.3462
-69.3468
-80.2568
-95.4933
-120.334
-31.4737
-35.9281
-41.1378
-47.0389
-53.7668
-61.5848
-70.8336
-82.0598
-97.7035
-122.983
-31.9688
-36.5479
-41.8786
-47.9189
-54.8174
-62.8426
-72.3461
-83.8958
-99.9499
-125.667
-23.8758
-22.1955
-21.6034
-21.5637
-21.641
-21.8098
-22.0652
-22.4284
-22.9238
-23.5124
-28.1797
-26.8132
-25.9185
-25.6935
-25.6437
-25.7787
-26.0159
-26.378
-26.8611
-27.4378
-32.5977
-31.5071
-30.6357
-30.2808
-30.1325
-30.2177
-30.4337
-30.7936
-31.2739
-31.8551
-37.7282
-36.6867
-35.8765
-35.4394
-35.2207
-35.2454
-35.4306
-35.7783
-36.2559
-36.8474
-43.5812
-42.5283
-41.7317
-41.237
-40.9718
-40.9459
-41.1046
-41.4407
-41.9225
-42.534
-50.2454
-49.1774
-48.359
-47.8115
-47.5058
-47.4389
-47.5768
-47.9066
-48.4011
-49.0434
-57.9254
-56.8124
-55.938
-55.3227
-54.9608
-54.8461
-54.9569
-55.2776
-55.7856
-56.4634
-66.9634
-65.7316
-64.7393
-64.01
-63.5498
-63.3543
-63.4095
-63.7
-64.2064
-64.9099
-79.4988
-78.0308
-76.8219
-75.8993
-75.2717
-74.9371
-74.8856
-75.1037
-75.572
-76.2651
-100.99
-99.1742
-97.6603
-96.4695
-95.6083
-95.074
-94.8584
-94.9485
-95.3214
-95.9357
-24.161
-24.8298
-25.5353
-26.2855
-27.0939
-27.8914
-28.5464
-29.1145
-29.9561
-30.4683
-28.0861
-28.776
-29.5114
-30.284
-31.089
-31.8878
-32.634
-33.2782
-33.7501
-33.9714
-32.5167
-33.2363
-34.0102
-34.8227
-35.6607
-36.5026
-37.3325
-38.0762
-38.5811
-38.8639
-37.5306
-38.2863
-39.1044
-39.9672
-40.8599
-41.7668
-42.6712
-43.5063
-44.1736
-44.7122
-43.2516
-44.0561
-44.933
-45.865
-46.8368
-47.8321
-48.8267
-49.7718
-50.6295
-51.4464
-49.8096
-50.679
-51.6347
-52.6601
-53.7393
-54.8536
-55.9761
-57.0756
-58.1474
-59.2341
-57.287
-58.2332
-59.2845
-60.4245
-61.6364
-62.9002
-64.192
-65.4934
-66.8115
-68.1795
-65.7844
-66.8037
-67.9521
-69.2129
-70.5683
-71.999
-73.4863
-75.021
-76.6119
-78.2811
-77.1493
-78.2033
-79.4146
-80.7663
-82.2391
-83.8156
-85.4842
-87.244
-89.1024
-91.0661
-96.7393
-97.7446
-98.9383
-100.299
-101.805
-103.443
-105.21
-107.113
-109.158
-111.328
-113.59
-93.1309
-80.0425
-69.6277
-60.3928
-52.3382
-45.358
-39.2967
-34.124
-29.5808
-116.014
-95.3103
-81.903
-71.1748
-61.6609
-53.3741
-46.2178
-40.0193
-34.626
-29.6977
-118.622
-97.6242
-83.8787
-72.8391
-63.0632
-54.57
-47.2526
-40.9062
-35.3565
-30.3657
-121.406
-100.076
-85.973
-74.6235
-64.5995
-55.9204
-48.4719
-42.0421
-36.4559
-31.4964
-124.35
-102.656
-88.1784
-76.5181
-66.2528
-57.3943
-49.8172
-43.299
-37.6522
-32.6673
-127.433
-105.345
-90.4782
-78.5058
-68.0052
-58.9753
-51.2776
-44.6756
-38.9608
-33.9216
-130.625
-108.118
-92.8492
-80.5629
-69.8311
-60.6336
-52.8131
-46.1144
-40.3069
-35.1839
-133.895
-110.948
-95.2642
-82.6631
-71.7058
-62.3479
-54.4111
-47.6213
-41.7294
-36.5384
-137.194
-113.797
-97.6926
-84.7772
-73.5994
-64.0862
-56.0366
-49.1591
-43.1915
-37.9536
-140.455
-116.619
-100.1
-86.8743
-75.4818
-65.819
-57.6607
-50.6998
-44.6662
-39.4017
-26.5948
-11.6079
-5.00923
-2.62277
-1.18857
-0.5428
-0.319146
-0.263582
-0.27574
-0.307128
-0.333406
-0.350931
-0.343854
-0.315686
-0.262513
-0.189285
-0.129362
-0.0496976
-0.0225191
-0.0289865
-27.8733
-12.7548
-5.57923
-2.86531
-1.36206
-0.640107
-0.375166
-0.299355
-0.29895
-0.321976
-0.342557
-0.356038
-0.346343
-0.316523
-0.262792
-0.190069
-0.130519
-0.0523732
-0.0247485
-0.0293179
-29.1047
-13.9021
-6.208
-3.13372
-1.53537
-0.739527
-0.430567
-0.333654
-0.320862
-0.335863
-0.351073
-0.360797
-0.348723
-0.317428
-0.263257
-0.191061
-0.13184
-0.0551207
-0.0269141
-0.0295475
-30.3775
-15.0184
-6.79615
-3.36673
-1.68419
-0.83361
-0.484375
-0.366543
-0.341628
-0.348913
-0.359041
-0.365266
-0.35103
-0.318424
-0.263913
-0.192251
-0.13331
-0.0579218
-0.0290172
-0.0296844
-31.6325
-15.9402
-7.21451
-3.50979
-1.79351
-0.918319
-0.535937
-0.397949
-0.361307
-0.361204
-0.366524
-0.369489
-0.353292
-0.319523
-0.264757
-0.193628
-0.134912
-0.0607578
-0.0310624
-0.0297373
-32.5963
-16.5709
-7.52673
-3.64451
-1.91278
-1.01103
-0.589564
-0.428732
-0.380095
-0.372821
-0.373571
-0.373497
-0.355524
-0.320731
-0.265781
-0.195173
-0.136627
-0.0636108
-0.0330538
-0.0297146
-33.3861
-17.524
-8.23729
-4.05623
-2.17034
-1.15562
-0.657722
-0.462319
-0.399007
-0.384136
-0.380355
-0.377386
-0.357781
-0.322073
-0.266987
-0.196876
-0.138445
-0.0664674
-0.0349965
-0.029626
-35.3548
-19.9909
-9.92014
-4.97648
-2.64162
-1.37718
-0.750885
-0.503073
-0.419775
-0.395931
-0.387291
-0.381426
-0.360247
-0.323673
-0.268448
-0.198769
-0.140383
-0.0693304
-0.036901
-0.0294839
-39.1621
-23.4443
-12.0461
-6.0247
-3.10839
-1.59426
-0.848414
-0.546059
-0.44108
-0.40786
-0.3943
-0.385603
-0.362946
-0.325567
-0.270199
-0.200877
-0.142452
-0.0722059
-0.0387742
-0.0292932
-38.9182
-23.6167
-12.3896
-6.06626
-3.06874
-1.61573
-0.884058
-0.567002
-0.453124
-0.415336
-0.398822
-0.3881
-0.364492
-0.326722
-0.271542
-0.202807
-0.144365
-0.0749617
-0.0405606
-0.0290131
-30.8199
-20.237
-10.9575
-5.16753
-2.59016
-1.45815
-0.855451
-0.561283
-0.451907
-0.415358
-0.398482
-0.386581
-0.362742
-0.325455
-0.271554
-0.204595
-0.146411
-0.0785179
-0.0428745
-0.028435
-23.0418
-16.5011
-9.4048
-4.50512
-2.24845
-1.34491
-0.861934
-0.58777
-0.47189
-0.429215
-0.407177
-0.390588
-0.364069
-0.325383
-0.271601
-0.206218
-0.148504
-0.0826383
-0.0458337
-0.0277067
-17.1731
-13.09
-7.95526
-4.0264
-2.01443
-1.2334
-0.850147
-0.60907
-0.490641
-0.442785
-0.416333
-0.395079
-0.365594
-0.325172
-0.271305
-0.20756
-0.150514
-0.086806
-0.0489628
-0.0268231
-12.1064
-9.90114
-6.52467
-3.59067
-1.86607
-1.15155
-0.832648
-0.626873
-0.508715
-0.454949
-0.424288
-0.398737
-0.366508
-0.32459
-0.270921
-0.209028
-0.152737
-0.0911738
-0.052252
-0.0257427
-8.48651
-7.33913
-5.18443
-3.07448
-1.69831
-1.07431
-0.804652
-0.634436
-0.523512
-0.465412
-0.430879
-0.401553
-0.366894
-0.323757
-0.270563
-0.210629
-0.155147
-0.0956323
-0.0556091
-0.0245078
-5.93607
-5.18376
-3.85193
-2.52856
-1.5802
-1.05454
-0.79158
-0.635851
-0.533724
-0.47368
-0.435757
-0.403324
-0.366714
-0.322699
-0.27021
-0.212241
-0.157622
-0.100003
-0.0588884
-0.0232073
-4.13975
-3.6653
-2.93685
-2.14995
-1.46635
-1.00405
-0.757298
-0.624721
-0.53785
-0.479183
-0.43858
-0.40377
-0.365852
-0.321408
-0.269834
-0.213756
-0.160026
-0.1041
-0.0619097
-0.0219603
-3.08594
-2.76097
-2.30258
-1.77885
-1.30089
-0.957778
-0.752437
-0.628831
-0.543146
-0.482253
-0.439074
-0.402778
-0.364329
-0.319955
-0.269435
-0.215076
-0.162201
-0.107711
-0.064476
-0.0209031
-2.54751
-2.27044
-1.93507
-1.57229
-1.22968
-0.947998
-0.747485
-0.618729
-0.53563
-0.478715
-0.436948
-0.400826
-0.362541
-0.318571
-0.269061
-0.216101
-0.16394
-0.110573
-0.0663757
-0.0201698
-2.31244
-2.05518
-1.77302
-1.47363
-1.18016
-0.927316
-0.740326
-0.617574
-0.537536
-0.480961
-0.4377
-0.400225
-0.361499
-0.317704
-0.268823
-0.216722
-0.164973
-0.112341
-0.0673714
-0.0198469
-37.2508
-36.5306
-35.7976
-35.1637
-34.5015
-33.7602
-32.6973
-31.4855
-30.2402
-30.8619
-26.8736
-25.918
-24.9518
-24.1078
-23.2143
-22.3278
-21.2976
-20.6535
-20.4985
-21.9768
-18.2602
-17.4709
-16.7285
-16.1294
-15.6362
-15.3367
-15.2316
-15.4538
-15.8387
-16.641
-12.5391
-12.1356
-11.822
-11.6382
-11.5624
-11.5764
-11.5741
-11.492
-11.3153
-11.4634
-8.9441
-8.77924
-8.65554
-8.5493
-8.41884
-8.23857
-7.99848
-7.77403
-7.67904
-7.8871
-6.34894
-6.23099
-6.11301
-5.98259
-5.84398
-5.72096
-5.64087
-5.62067
-5.65302
-5.74146
-4.60491
-4.53483
-4.47004
-4.40959
-4.35614
-4.31044
-4.26765
-4.21887
-4.16776
-4.13397
-3.62696
-3.58826
-3.54634
-3.49977
-3.44793
-3.39096
-3.33031
-3.26844
-3.21114
-3.16182
-3.09121
-3.06117
-3.02565
-2.98514
-2.94028
-2.89187
-2.84066
-2.78711
-2.73197
-2.67545
-2.85756
-2.83138
-2.79976
-2.76305
-2.72159
-2.67577
-2.62602
-2.57275
-2.51651
-2.4578
-40.3831
-42.7071
-39.8623
-39.2798
-39.5315
-39.3291
-38.8814
-38.5147
-38.1973
-37.8265
-35.6339
-35.6787
-31.8059
-30.1632
-30.1965
-30.0414
-29.4446
-28.8235
-28.2741
-27.6821
-28.5452
-27.0914
-22.7693
-20.9097
-20.9868
-21.1667
-20.8156
-20.2193
-19.6132
-18.9913
-20.5909
-19.0444
-15.3528
-13.7051
-13.8769
-14.3518
-14.3471
-13.9574
-13.4639
-12.9905
-13.9601
-12.9462
-10.4022
-9.1295
-9.23122
-9.7295
-9.92938
-9.76734
-9.45941
-9.16981
-9.06974
-8.62848
-7.20621
-6.37476
-6.34814
-6.65337
-6.8487
-6.81782
-6.66011
-6.48945
-5.74303
-5.66083
-5.08903
-4.69365
-4.63112
-4.74258
-4.83694
-4.83821
-4.77116
-4.68467
-3.85166
-3.91059
-3.78943
-3.68176
-3.65641
-3.68432
-3.71366
-3.71728
-3.69662
-3.66372
-3.01194
-3.09636
-3.11629
-3.11487
-3.11895
-3.13029
-3.14006
-3.14138
-3.13266
-3.11536
-2.72198
-2.81426
-2.85907
-2.8755
-2.88491
-2.8936
-2.89938
-2.89923
-2.89201
-2.87793
0.772369
0.703786
0.536961
0.200223
-0.429539
-1.57571
-3.36962
-6.80236
-12.8166
-26.1074
0.549169
0.475601
0.303017
-0.0424935
-0.677951
-1.85161
-3.72252
-7.18487
-12.8785
-24.1402
0.311315
0.236863
0.0710984
-0.260817
-0.84301
-1.95554
-3.66237
-6.77348
-11.3919
-19.8188
0.0645322
-0.0105066
-0.162351
-0.469258
-0.960339
-1.93606
-3.30567
-5.80185
-9.27653
-15.1091
-0.183049
-0.258962
-0.392562
-0.669581
-1.05379
-1.85043
-2.85144
-4.61672
-7.05608
-10.686
-0.420683
-0.497426
-0.608846
-0.848801
-1.13832
-1.72402
-2.43909
-3.52739
-5.06576
-7.14789
-0.639946
-0.70968
-0.802015
-0.987542
-1.2183
-1.60068
-2.10705
-2.73464
-3.62482
-4.75739
-0.832734
-0.882046
-0.960483
-1.0898
-1.27795
-1.52148
-1.87258
-2.25795
-2.77679
-3.38275
-0.979648
-1.00895
-1.07291
-1.16636
-1.31342
-1.48648
-1.73216
-2.00153
-2.34272
-2.72802
-1.06152
-1.08207
-1.13429
-1.21195
-1.33035
-1.47406
-1.66391
-1.87968
-2.14172
-2.45658
2.24652
2.20972
2.10528
1.85932
1.3674
0.494362
-1.00036
-3.47544
-8.63974
-20.3657
2.08331
2.04281
1.93067
1.67609
1.17154
0.292804
-1.21826
-3.68011
-8.60386
-20.3056
1.92433
1.88038
1.76099
1.49838
0.980754
0.0936838
-1.43696
-3.92189
-8.62679
-20.3126
1.76985
1.72273
1.59659
1.32642
0.795677
-0.102336
-1.65045
-4.19993
-8.75429
-20.5049
1.62007
1.57009
1.43778
1.16034
0.616883
-0.295884
-1.85339
-4.50227
-8.91841
-20.743
1.47514
1.42262
1.28477
1.00017
0.444821
-0.48874
-2.04552
-4.82842
-9.16573
-21.0084
1.33514
1.28041
1.13769
0.845819
0.279731
-0.681962
-2.22648
-5.15466
-9.4556
-21.0683
1.20015
1.1436
0.996614
0.697236
0.121521
-0.876293
-2.41121
-5.47341
-9.9824
-21.1899
1.07015
1.01231
0.861681
0.553972
-0.0319817
-1.06995
-2.61616
-5.75736
-10.6328
-21.4791
0.94455
0.885316
0.731968
0.416377
-0.184156
-1.27078
-2.89418
-6.14518
-11.7081
-23.3353
3.99805
4.00276
3.99632
3.88003
3.48969
2.70425
1.15732
-2.6336
-10.3687
-21.7689
3.82278
3.81985
3.79539
3.64666
3.19031
2.27014
0.625592
-3.11116
-11.0556
-22.7378
3.64603
3.63911
3.60298
3.44021
2.98514
2.09002
0.630533
-2.47539
-9.35703
-20.5129
3.468
3.45817
3.41384
3.24515
2.81488
1.98947
0.707049
-1.9064
-8.11138
-19.6199
3.28935
3.27625
3.22408
3.0484
2.63195
1.83678
0.58238
-1.92006
-8.02299
-19.8287
3.11087
3.09409
3.03335
2.84667
2.42526
1.61432
0.280411
-2.3023
-8.37191
-20.0564
2.93338
2.91265
2.84284
2.64266
2.20581
1.36459
-0.0577172
-2.69554
-8.59918
-20.0843
2.75758
2.73279
2.65386
2.44014
1.98668
1.12514
-0.343977
-2.96124
-8.66558
-20.1185
2.58412
2.55525
2.46744
2.24156
1.774
0.905358
-0.576571
-3.14035
-8.67848
-20.2276
2.4136
2.38069
2.28436
2.04786
1.56802
0.697711
-0.78803
-3.3007
-8.67812
-20.3565
7.09731
7.13189
7.1973
7.28534
7.38137
7.47152
7.54737
7.60531
7.64316
7.65688
6.96244
7.00465
7.08487
7.19345
7.31392
7.43038
7.53403
7.62283
7.68797
7.71566
6.72912
6.78207
6.88209
7.01605
7.16407
7.31139
7.45275
7.58011
7.67239
7.7285
6.42115
6.48437
6.60468
6.76793
6.9476
7.10707
7.2156
7.27382
7.29435
7.31307
6.06194
6.12985
6.25617
6.42013
6.59054
6.73154
6.79336
6.68758
6.38482
6.15004
5.67579
5.74235
5.86435
6.01833
6.17344
6.26627
6.1307
5.56154
4.64665
4.04435
5.28563
5.34536
5.45058
5.56732
5.66031
5.65648
5.28493
4.14774
2.35251
0.971699
4.9093
4.95803
5.03949
5.10459
5.11038
4.99504
4.37728
2.5275
-0.553649
-3.34201
4.55899
4.59361
4.64478
4.64669
4.53151
4.25196
3.37938
0.795073
-3.7682
-8.4284
4.24031
4.26098
4.28225
4.22015
3.96453
3.45431
2.26439
-1.04034
-7.27525
-15.0741
7.64947
7.64373
7.63509
7.62405
7.6106
7.59465
7.57616
7.55513
7.53157
7.50549
7.71968
7.71189
7.69889
7.68404
7.66718
7.64795
7.6263
7.60229
7.57593
7.54721
7.78647
7.77828
7.76114
7.74067
7.71662
7.6891
7.65834
7.62445
7.58741
7.54712
7.45098
7.46102
7.45967
7.44998
7.43304
7.40872
7.3761
7.33491
7.28517
7.22653
6.40075
6.46518
6.49506
6.50411
6.4894
6.45227
6.39433
6.32026
6.23224
6.12907
4.51434
4.69154
4.72336
4.69909
4.63631
4.56201
4.47239
4.36711
4.23521
4.06971
1.54739
1.80515
1.80339
1.79534
1.75908
1.71054
1.60726
1.44607
1.20275
0.883664
-2.82268
-2.25132
-2.10009
-2.02934
-2.12571
-2.28866
-2.55343
-2.89924
-3.37368
-3.94784
-7.95919
-7.04495
-7.12123
-7.32821
-7.74638
-8.11502
-8.55663
-9.05371
-9.70374
-10.4523
-15.2437
-14.4378
-14.7865
-15.0448
-15.4193
-15.6961
-16.0689
-16.5118
-17.117
-17.8153
7.47693
7.44591
7.41251
7.37678
7.33882
7.29871
7.25655
7.21253
7.16688
7.11737
7.51613
7.48265
7.44669
7.40808
7.36668
7.32242
7.27557
7.22671
7.17395
7.10507
7.50326
7.45537
7.40309
7.3467
7.28678
7.22241
7.14899
7.05894
6.94902
6.83765
7.15707
7.07432
6.97985
6.88414
6.7994
6.71435
6.57425
6.31764
5.98852
5.83374
6.00336
5.84636
5.66367
5.49529
5.39422
5.33194
5.11102
4.48826
3.59092
3.30115
3.85951
3.5913
3.26598
2.9492
2.76441
2.71677
2.43783
1.33437
-0.508515
-1.2091
0.50173
0.0585514
-0.466872
-1.02988
-1.45833
-1.63407
-1.99271
-3.54202
-6.41683
-7.60579
-4.56631
-5.1996
-5.90397
-6.70756
-7.472
-7.93918
-8.40237
-10.1537
-13.6427
-14.9635
-11.2172
-11.9493
-12.7242
-13.6207
-14.6038
-15.379
-15.9034
-17.3835
-20.701
-21.5684
-18.5405
-19.242
-19.9756
-20.7903
-21.7255
-22.6198
-23.1838
-23.9526
-26.2944
-26.6721
6.96181
6.6658
6.37546
5.68906
4.78822
3.86887
3.00645
2.22492
1.54112
0.980675
0.545266
0.2373
0.0306343
-0.0854582
-0.131605
-0.130033
-0.0772242
-0.0255374
0.0356678
0.0402654
6.86384
6.54728
6.24915
5.34905
4.43442
3.56928
2.75148
2.00232
1.35575
0.834809
0.436765
0.158656
-0.026715
-0.125018
-0.161985
-0.147771
-0.0907491
-0.0326443
0.0394359
0.0391242
6.57864
6.20845
5.81782
4.85459
3.98492
3.17305
2.40656
1.71128
1.12436
0.65847
0.30947
0.0674124
-0.0912839
-0.169443
-0.194386
-0.16448
-0.105122
-0.0353207
0.0458719
0.0351919
5.85657
5.54163
5.04777
4.30862
3.49485
2.74416
2.05017
1.42836
0.909787
0.500789
0.199107
-0.0103888
-0.143733
-0.204951
-0.217837
-0.1749
-0.114611
-0.0329295
0.0488098
0.0273268
4.10734
4.31611
3.89147
3.57379
2.9164
2.29233
1.70179
1.16543
0.716667
0.362665
0.103948
-0.0762085
-0.186506
-0.233522
-0.234449
-0.181978
-0.120631
-0.0296999
0.0463029
0.017784
0.732857
2.25976
2.3427
2.58069
2.27184
1.84459
1.37985
0.93247
0.550157
0.24611
0.0246319
-0.13001
-0.220723
-0.255883
-0.246265
-0.186952
-0.124042
-0.0272104
0.039807
0.00841622
-4.14453
-0.669237
0.533057
1.44585
1.60226
1.41833
1.09022
0.730535
0.409619
0.149764
-0.0399885
-0.172966
-0.247544
-0.272844
-0.254491
-0.190033
-0.12585
-0.0261205
0.031455
0.000170893
-9.76486
-4.07566
-1.30683
0.362799
0.974548
1.03102
0.834879
0.5568
0.291258
0.0701304
-0.0925775
-0.207235
-0.268536
-0.285552
-0.260137
-0.191832
-0.126993
-0.0264964
0.0230063
-0.00659044
-14.7242
-6.95856
-2.70977
-0.424982
0.483784
0.714244
0.62147
0.410273
0.191737
0.00373728
-0.135897
-0.234968
-0.285179
-0.295144
-0.264069
-0.192952
-0.127894
-0.027935
0.0154161
-0.011891
-16.8204
-8.05845
-3.27103
-0.711467
0.207444
0.503243
0.466415
0.297318
0.113243
-0.0491255
-0.170226
-0.256526
-0.297601
-0.301723
-0.26634
-0.193385
-0.128522
-0.0299156
0.00893629
-0.0159595
-15.2594
-7.40926
-3.23632
-0.606717
0.146808
0.417728
0.398216
0.243222
0.0748989
-0.0751532
-0.186916
-0.2664
-0.30248
-0.30343
-0.266209
-0.192971
-0.128837
-0.0319923
0.0042252
-0.0185287
-14.606
-6.55928
-3.3636
-0.656369
0.0598664
0.299948
0.309682
0.175971
0.0280209
-0.106101
-0.206399
-0.277806
-0.30823
-0.305412
-0.265826
-0.192035
-0.128242
-0.0329209
0.00113999
-0.0202245
-15.5992
-6.14442
-3.5743
-0.856807
-0.0201187
0.189069
0.226694
0.112995
-0.0174903
-0.13704
-0.226364
-0.28967
-0.314249
-0.307374
-0.26518
-0.190851
-0.127375
-0.0337844
-0.00180133
-0.0217746
-16.9442
-6.05518
-3.67948
-1.1415
-0.117706
0.0820199
0.144827
0.0544765
-0.0588013
-0.164696
-0.244057
-0.300084
-0.319459
-0.308983
-0.264564
-0.189905
-0.126803
-0.034982
-0.0046764
-0.0231733
-18.3125
-6.33447
-3.71099
-1.43516
-0.234989
-0.0138857
0.066856
-0.000166149
-0.0970424
-0.190063
-0.260124
-0.309405
-0.324028
-0.310304
-0.263995
-0.189194
-0.126521
-0.0364882
-0.00747986
-0.0244223
-19.5295
-6.80326
-3.72365
-1.69707
-0.376335
-0.103269
-0.00703164
-0.0513128
-0.132569
-0.213572
-0.274962
-0.317936
-0.32815
-0.311431
-0.263475
-0.188676
-0.126466
-0.0382355
-0.0101991
-0.0255242
-20.7505
-7.45782
-3.78274
-1.91525
-0.533509
-0.189267
-0.076504
-0.0992209
-0.165531
-0.235319
-0.288648
-0.325749
-0.331887
-0.312413
-0.263029
-0.188358
-0.126626
-0.0401934
-0.012831
-0.0264822
-22.0644
-8.26457
-3.91724
-2.09478
-0.697157
-0.274814
-0.141803
-0.144139
-0.196119
-0.255411
-0.301245
-0.33289
-0.335277
-0.313291
-0.262687
-0.188255
-0.127003
-0.042342
-0.0153764
-0.0273008
-23.5639
-9.27758
-4.16451
-2.25619
-0.860528
-0.361407
-0.203452
-0.186315
-0.22454
-0.273984
-0.312841
-0.339421
-0.338367
-0.314103
-0.262475
-0.188374
-0.127591
-0.0446583
-0.0178374
-0.027986
-25.1371
-10.427
-4.53069
-2.42369
-1.02269
-0.450213
-0.262231
-0.226022
-0.251008
-0.291176
-0.323531
-0.345413
-0.341209
-0.314889
-0.262411
-0.188718
-0.128382
-0.0471175
-0.0202172
-0.0285447
)
;

boundaryField
{
    inlet
    {
        type            freestreamPressure;
        freestreamValue uniform 0;
        supersonic      false;
        value           nonuniform List<scalar> 
40
(
0.772369
0.549169
0.311315
0.0645322
-0.183049
-0.420683
-0.639946
-0.832734
-0.979648
-1.06152
2.24652
2.08331
1.92433
1.76985
1.62007
1.47514
1.33514
1.20015
1.07015
0.94455
3.99805
3.82278
3.64603
3.468
3.28935
3.11087
2.93338
2.75758
2.58412
2.4136
7.09731
6.96244
6.72912
6.42115
6.06194
5.67579
5.28563
4.9093
4.55899
4.24031
)
;
    }
    outlet
    {
        type            freestreamPressure;
        freestreamValue uniform 0;
        supersonic      false;
        value           nonuniform List<scalar> 
40
(
-0.000396117
-0.000427667
-0.000441356
-0.000427647
-0.00038335
-0.000312462
-0.000225023
-0.000134655
-5.63994e-05
-7.00336e-06
-8.71611e-05
-0.000111584
-0.00013956
-0.000170619
-0.000203992
-0.000238651
-0.00027338
-0.00030688
-0.000337788
-0.000364636
-1.69948e-06
-2.89484e-06
-4.76342e-06
-7.57925e-06
-1.16825e-05
-1.74728e-05
-2.53956e-05
-3.59169e-05
-4.94851e-05
-6.64808e-05
3.05378e-07
2.4974e-06
3.73904e-06
2.2486e-06
6.32649e-07
9.093e-08
7.48379e-10
-4.03671e-08
-2.08002e-07
-7.51166e-07
)
;
    }
    top
    {
        type            symmetryPlane;
    }
    bottom
    {
        type            symmetryPlane;
    }
    cylinder
    {
        type            zeroGradient;
    }
    frontandback
    {
        type            empty;
    }
}


// ************************************************************************* //
