/*--------------------------------*- C++ -*----------------------------------*\
  =========                 |
  \\      /  F ield         | OpenFOAM: The Open Source CFD Toolbox
   \\    /   O peration     | Website:  https://openfoam.org
    \\  /    A nd           | Version:  6.0
     \\/     M anipulation  |
\*---------------------------------------------------------------------------*/
FoamFile
{
    version     2.0;
    format      ascii;
    class       volScalarField;
    location    "16.25";
    object      p;
}
// * * * * * * * * * * * * * * * * * * * * * * * * * * * * * * * * * * * * * //

dimensions      [0 2 -2 0 0 0 0];

internalField   nonuniform List<scalar> 
19200
(
-41.0236
-37.4508
-34.8635
-32.7235
-30.743
-28.917
-27.23
-25.6604
-24.1939
-22.8209
-21.5341
-20.3273
-19.1955
-18.1342
-17.139
-16.206
-15.3315
-14.5117
-13.7432
-13.0227
-12.3469
-11.7128
-11.1175
-10.5583
-10.0328
-9.53862
-9.07371
-8.63605
-8.22374
-7.83619
-41.4667
-37.8956
-35.3004
-33.1467
-31.1503
-29.307
-27.6023
-26.0151
-24.5314
-23.1421
-21.8398
-20.6185
-19.4733
-18.3996
-17.393
-16.4496
-15.5655
-14.7371
-13.9606
-13.2327
-12.5502
-11.9098
-11.3087
-10.7442
-10.2137
-9.71487
-9.24555
-8.80365
-8.38716
-7.99633
-41.9153
-38.3402
-35.7357
-33.5684
-31.5558
-29.6952
-27.9728
-26.3679
-24.8671
-23.4613
-22.1435
-20.9079
-19.7493
-18.6632
-17.6453
-16.6916
-15.7981
-14.9609
-14.1765
-13.4414
-12.7521
-12.1056
-11.4988
-10.929
-10.3935
-9.88999
-9.41628
-8.97015
-8.54947
-8.15544
-42.3663
-38.7848
-36.1699
-33.9884
-31.9595
-30.0815
-28.3411
-26.7185
-25.2005
-23.7784
-22.4451
-21.1951
-20.0232
-18.9249
-17.8958
-16.9317
-16.0288
-15.183
-14.3908
-13.6484
-12.9526
-12.2999
-11.6875
-11.1124
-10.572
-10.0638
-9.58574
-9.13539
-8.71054
-8.31338
-42.8178
-39.2289
-36.6027
-34.4067
-32.3613
-30.4655
-28.7072
-27.0668
-25.5316
-24.093
-22.7444
-21.48
-20.2948
-19.1843
-18.144
-17.1698
-16.2576
-15.4033
-14.6033
-13.8538
-13.1514
-12.4927
-11.8746
-11.2943
-10.749
-10.2362
-9.75383
-9.29927
-8.87027
-8.47007
-43.2686
-39.672
-37.0338
-34.823
-32.7607
-30.8472
-29.0708
-27.4125
-25.86
-24.405
-23.041
-21.7623
-20.564
-19.4414
-18.39
-17.4057
-16.4842
-15.6216
-14.8138
-14.0573
-13.3483
-12.6837
-12.0601
-11.4746
-10.9244
-10.4072
-9.92043
-9.46168
-9.02856
-8.62539
-43.7179
-40.1134
-37.463
-35.237
-33.1577
-31.2262
-29.4315
-27.7553
-26.1855
-24.7142
-23.3348
-22.0419
-20.8305
-19.6958
-18.6335
-17.6392
-16.7086
-15.8376
-15.0222
-14.2587
-13.5434
-12.8728
-12.2437
-11.6531
-11.0982
-10.5764
-10.0854
-9.62251
-9.18529
-8.77926
-44.1654
-40.5527
-37.8899
-35.6485
-33.5519
-31.6022
-29.7893
-28.0951
-26.508
-25.0203
-23.6256
-22.3186
-21.0941
-19.9475
-18.8743
-17.8701
-16.9304
-16.0512
-15.2284
-14.458
-13.7363
-13.0599
-12.4254
-11.8298
-11.2701
-10.7439
-10.2487
-9.78167
-9.34038
-8.93159
-44.6104
-40.9895
-38.3141
-36.057
-33.943
-31.9751
-30.1437
-28.4315
-26.8271
-25.3231
-23.9132
-22.592
-21.3546
-20.1962
-19.1123
-18.0982
-17.1497
-16.2623
-15.4321
-14.6549
-13.927
-13.2449
-12.6051
-12.0045
-11.4401
-10.9095
-10.4102
-9.93904
-9.49373
-9.08229
-45.0526
-41.4234
-38.7351
-36.4623
-34.3308
-32.3444
-30.4946
-28.7643
-27.1427
-25.6223
-24.1973
-22.8621
-21.6119
-20.4418
-19.3472
-18.3234
-17.3661
-16.4708
-15.6332
-14.8493
-14.1153
-13.4275
-12.7825
-12.177
-11.6081
-11.0732
-10.5697
-10.0945
-9.64525
-9.23127
-45.4915
-41.854
-39.1528
-36.8641
-34.7148
-32.71
-30.8417
-29.0933
-27.4544
-25.9178
-24.4777
-23.1286
-21.8656
-20.6839
-19.5788
-18.5455
-17.5795
-16.6763
-15.8315
-15.0411
-14.3011
-13.6077
-12.9575
-12.3472
-11.7738
-11.2347
-10.7272
-10.248
-9.79484
-9.37845
-45.9269
-42.281
-39.5668
-37.262
-35.0949
-33.0716
-31.1847
-29.4182
-27.762
-26.2093
-24.7541
-23.3913
-22.1157
-20.9226
-19.807
-18.7643
-17.7897
-16.8788
-16.0269
-15.2301
-14.4841
-13.7853
-13.13
-12.5151
-11.9373
-11.3939
-10.8825
-10.3994
-9.94241
-9.52373
-46.3584
-42.704
-39.9767
-37.6557
-35.4708
-33.4288
-31.5233
-29.7388
-28.0654
-26.4965
-25.0265
-23.6499
-22.3619
-21.1574
-20.0316
-18.9796
-17.9966
-17.078
-16.2192
-15.416
-14.6643
-13.9601
-13.2999
-12.6803
-12.0982
-11.5508
-11.0355
-10.5487
-10.0879
-9.66703
-46.7856
-43.1228
-40.3822
-38.045
-35.8421
-33.7815
-31.8573
-30.0547
-28.3642
-26.7794
-25.2945
-23.9044
-22.604
-21.3883
-20.2524
-19.1912
-18.2
-17.2738
-16.4083
-15.5988
-14.8414
-14.132
-13.467
-12.8429
-12.2566
-11.7052
-11.1862
-10.6955
-10.2311
-9.80825
-47.2083
-43.537
-40.7832
-38.4296
-36.2086
-34.1293
-32.1865
-30.3659
-28.6583
-27.0575
-25.5579
-24.1544
-22.8418
-21.6151
-20.4691
-19.399
-18.3996
-17.4661
-16.5938
-15.7783
-15.0153
-14.3008
-13.631
-13.0025
-12.4121
-11.857
-11.3343
-10.84
-10.3719
-9.94728
-47.6262
-43.9464
-41.1792
-38.8092
-36.5701
-34.472
-32.5106
-30.672
-28.9474
-27.3308
-25.8166
-24.3997
-23.0751
-21.8375
-20.6817
-19.6027
-18.5953
-17.6545
-16.7757
-15.9542
-15.1857
-14.4662
-13.7919
-13.1592
-12.5648
-12.0059
-11.4796
-10.9818
-10.5103
-10.084
-48.039
-44.3507
-41.57
-39.1835
-36.9263
-34.8094
-32.8294
-30.9728
-29.2313
-27.5989
-26.0703
-24.6403
-23.3037
-22.0553
-20.8899
-19.8021
-18.7869
-17.839
-16.9538
-16.1264
-15.3526
-14.6282
-13.9494
-13.3125
-12.7143
-12.1518
-11.6221
-11.1209
-10.646
-10.2182
-48.4466
-44.7496
-41.9555
-39.5523
-37.2769
-35.1412
-33.1426
-31.2681
-29.5098
-27.8617
-26.3188
-24.8758
-23.5274
-22.2685
-21.0935
-19.9972
-18.9742
-18.0194
-17.1278
-16.2947
-15.5157
-14.7865
-14.1033
-13.4624
-12.8604
-12.2945
-11.7615
-11.2571
-10.7789
-10.3498
-48.8486
-45.1431
-42.3353
-39.9154
-37.6217
-35.4672
-33.45
-31.5577
-29.7826
-28.1191
-26.562
-25.1061
-23.7461
-22.4767
-21.2923
-20.1876
-19.157
-18.1953
-17.2975
-16.4588
-15.6747
-14.9409
-14.2534
-13.6086
-13.003
-12.4337
-11.8976
-11.39
-10.9088
-10.4786
-49.2451
-45.5308
-42.7093
-40.2726
-37.9605
-35.7871
-33.7514
-31.8414
-30.0496
-28.3707
-26.7996
-25.331
-23.9595
-22.6798
-21.4862
-20.3731
-19.3351
-18.3667
-17.4628
-16.6186
-15.8295
-15.0911
-14.3994
-13.7508
-13.1417
-12.5692
-12.0301
-11.5195
-11.0353
-10.6042
-49.6357
-45.9126
-43.0772
-40.6236
-38.293
-36.1008
-34.0466
-32.1189
-30.3106
-28.6164
-27.0314
-25.5503
-24.1675
-22.8777
-21.675
-20.5537
-19.5083
-18.5333
-17.6235
-16.7738
-15.9797
-15.2368
-14.5411
-13.8887
-13.2762
-12.7006
-12.1586
-11.6451
-11.1581
-10.7263
-50.0207
-46.2884
-43.439
-40.9683
-38.6191
-36.4081
-34.3353
-32.39
-30.5653
-28.8561
-27.2574
-25.7638
-24.37
-23.0701
-21.8585
-20.7292
-19.6765
-18.695
-17.7792
-16.9242
-16.1253
-15.3779
-14.6781
-14.0221
-13.4062
-12.8275
-12.2828
-11.7666
-11.2769
-10.8445
-50.3999
-46.6581
-43.7944
-41.3064
-38.9386
-36.7086
-34.6175
-32.6547
-30.8137
-29.0896
-27.4773
-25.9715
-24.5667
-23.257
-22.0365
-20.8993
-19.8395
-18.8515
-17.9299
-17.0696
-16.2658
-15.5141
-14.8103
-14.1505
-13.5313
-12.9497
-12.4023
-11.8834
-11.3911
-10.9583
-50.7736
-47.0217
-44.1433
-41.6378
-39.2512
-37.0023
-34.8928
-32.9126
-31.0555
-29.3166
-27.691
-26.1732
-24.7576
-23.4382
-22.2091
-21.064
-19.9972
-19.0029
-18.0754
-17.2098
-16.4012
-15.645
-14.9371
-14.2737
-13.6512
-13.0666
-12.5165
-11.9951
-11.5002
-11.0673
-51.142
-47.379
-44.4853
-41.9621
-39.5566
-37.2888
-35.161
-33.1636
-31.2906
-29.5372
-27.8984
-26.3687
-24.9425
-23.6137
-22.376
-21.2233
-20.1495
-19.1488
-18.2156
-17.3447
-16.5312
-15.7705
-15.0585
-14.3913
-13.7654
-13.1777
-12.6249
-12.1009
-11.6036
-11.1708
-51.5052
-47.7296
-44.8203
-42.2791
-39.8547
-37.568
-35.422
-33.4076
-31.5188
-29.7511
-28.0993
-26.5581
-25.1215
-23.7833
-22.5372
-21.377
-20.2963
-19.2894
-18.3504
-17.4742
-16.6558
-15.8905
-15.1742
-14.5031
-13.8735
-13.2825
-12.7267
-12.2
-11.7002
-11.2669
-51.8645
-48.0738
-45.1479
-42.5885
-40.145
-37.8394
-35.6755
-33.6442
-31.74
-29.9582
-28.2938
-26.7412
-25.2944
-23.9471
-22.6928
-21.5252
-20.4378
-19.4246
-18.4799
-17.5983
-16.7748
-16.0048
-15.2841
-14.6088
-13.9753
-13.3808
-12.8219
-12.2923
-11.7892
-11.3535
-52.2244
-48.4127
-45.4677
-42.8895
-40.4268
-38.1026
-35.9209
-33.8731
-31.9538
-30.1583
-28.4815
-26.9179
-25.4612
-24.105
-22.8427
-21.6678
-20.5737
-19.5544
-18.604
-17.717
-16.8884
-16.1135
-15.3881
-14.7083
-14.0706
-13.4722
-12.91
-12.3771
-11.8702
-11.4348
-52.5879
-48.7459
-45.7781
-43.1808
-40.6996
-38.3572
-36.1582
-34.0944
-32.1602
-30.3514
-28.6626
-27.0882
-25.6219
-24.2571
-22.987
-21.805
-20.7045
-19.6791
-18.723
-17.8307
-16.9968
-16.2168
-15.4863
-14.8014
-14.1586
-13.5553
-12.988
-12.4496
-11.9402
-11.5168
-52.9317
-49.0641
-46.0766
-43.4621
-40.9638
-38.6041
-36.3884
-34.3088
-32.3603
-30.5383
-28.8378
-27.253
-25.7773
-24.4041
-23.1264
-21.9375
-20.8306
-19.7994
-18.8377
-17.9399
-17.1008
-16.3155
-15.5796
-14.8891
-14.2402
-13.6299
-13.0535
-12.505
-11.9938
-11.5739
-57.8315
-57.8181
-57.7842
-57.7446
-57.6977
-57.6406
-57.5728
-57.494
-57.4043
-57.3036
-57.1918
-57.069
-56.9352
-56.7906
-56.6353
-56.4695
-56.2933
-56.107
-55.9106
-55.7044
-55.4887
-55.2636
-55.0294
-54.7865
-54.5352
-54.2762
-54.0102
-53.7387
-53.4648
-53.1931
-53.7757
-53.7777
-53.7625
-53.7361
-53.699
-53.6504
-53.5903
-53.5187
-53.436
-53.3421
-53.2372
-53.1212
-52.9944
-52.8568
-52.7087
-52.5501
-52.3812
-52.2023
-52.0134
-51.8148
-51.6067
-51.3893
-51.1628
-50.9276
-50.6839
-50.4322
-50.173
-49.9067
-49.6341
-49.3536
-50.4724
-50.4859
-50.4846
-50.4702
-50.4436
-50.4053
-50.3553
-50.2939
-50.2214
-50.1377
-50.0431
-49.9376
-49.8214
-49.6946
-49.5574
-49.4099
-49.2523
-49.0847
-48.9074
-48.7204
-48.524
-48.3184
-48.1038
-47.8803
-47.6483
-47.4079
-47.1593
-46.9026
-46.6374
-46.3623
-47.487
-47.509
-47.518
-47.514
-47.4979
-47.4702
-47.431
-47.3807
-47.3193
-47.247
-47.164
-47.0703
-46.9662
-46.8518
-46.7271
-46.5924
-46.4478
-46.2934
-46.1295
-45.9561
-45.7735
-45.5818
-45.3811
-45.1717
-44.9536
-44.727
-44.492
-44.2483
-43.9959
-43.734
-44.611
-44.64
-44.6572
-44.6622
-44.6555
-44.6375
-44.6084
-44.5685
-44.5178
-44.4566
-44.3849
-44.3029
-44.2108
-44.1087
-43.9967
-43.8749
-43.7436
-43.6027
-43.4526
-43.2933
-43.125
-42.9477
-42.7618
-42.5671
-42.364
-42.1523
-41.9322
-41.7035
-41.4662
-41.2197
-41.8949
-41.9291
-41.9527
-41.965
-41.966
-41.9561
-41.9356
-41.9047
-41.8635
-41.8121
-41.7507
-41.6794
-41.5983
-41.5076
-41.4074
-41.2978
-41.1789
-41.051
-40.9141
-40.7683
-40.6138
-40.4507
-40.2791
-40.0991
-39.9107
-39.7141
-39.5091
-39.2958
-39.074
-38.8436
-39.3586
-39.3966
-39.4248
-39.4422
-39.4491
-39.4456
-39.432
-39.4085
-39.3751
-39.332
-39.2793
-39.2171
-39.1457
-39.065
-38.9752
-38.8765
-38.7689
-38.6527
-38.5278
-38.3944
-38.2527
-38.1027
-37.9446
-37.7783
-37.604
-37.4217
-37.2314
-37.033
-36.8265
-36.6117
-37.0008
-37.0411
-37.0721
-37.0931
-37.1041
-37.1052
-37.0968
-37.079
-37.0517
-37.0153
-36.9697
-36.9151
-36.8517
-36.7795
-36.6986
-36.6093
-36.5115
-36.4054
-36.2911
-36.1688
-36.0385
-35.9003
-35.7543
-35.6006
-35.4392
-35.2701
-35.0934
-34.909
-34.7169
-34.5169
-34.8171
-34.8583
-34.8907
-34.9137
-34.9273
-34.9316
-34.9269
-34.9131
-34.8905
-34.8592
-34.8192
-34.7706
-34.7137
-34.6484
-34.5749
-34.4934
-34.4039
-34.3065
-34.2013
-34.0885
-33.9682
-33.8404
-33.7051
-33.5626
-33.4127
-33.2556
-33.0912
-32.9196
-32.7406
-32.5543
-32.8001
-32.8411
-32.8738
-32.8977
-32.9126
-32.9188
-32.9164
-32.9055
-32.8862
-32.8586
-32.8228
-32.7789
-32.7271
-32.6673
-32.5998
-32.5247
-32.442
-32.3519
-32.2544
-32.1497
-32.0379
-31.919
-31.7932
-31.6604
-31.5208
-31.3743
-31.2209
-31.0607
-30.8936
-30.7196
-30.94
-30.98
-31.0122
-31.0359
-31.0512
-31.0583
-31.0572
-31.0481
-31.031
-31.006
-30.9733
-30.9329
-30.885
-30.8295
-30.7668
-30.6968
-30.6197
-30.5355
-30.4445
-30.3466
-30.242
-30.1308
-30.013
-29.8887
-29.758
-29.6208
-29.4772
-29.3272
-29.1707
-29.0077
-29.2254
-29.2639
-29.2948
-29.3178
-29.3329
-29.34
-29.3395
-29.3313
-29.3156
-29.2924
-29.2618
-29.2239
-29.1789
-29.1268
-29.0678
-29.0019
-28.9293
-28.85
-28.7643
-28.6721
-28.5736
-28.4688
-28.3579
-28.2409
-28.1179
-27.9889
-27.8539
-27.7129
-27.5658
-27.4126
-27.6447
-27.6812
-27.7106
-27.7323
-27.7465
-27.7533
-27.7527
-27.7448
-27.7298
-27.7077
-27.6785
-27.6425
-27.5996
-27.55
-27.4939
-27.4313
-27.3623
-27.287
-27.2056
-27.1181
-27.0247
-26.9255
-26.8205
-26.7098
-26.5935
-26.4716
-26.3441
-26.211
-26.0722
-25.9278
-26.1861
-26.2204
-26.2479
-26.2682
-26.2813
-26.2872
-26.2862
-26.2782
-26.2634
-26.2418
-26.2136
-26.1788
-26.1375
-26.0899
-26.0359
-25.9759
-25.9098
-25.8378
-25.76
-25.6764
-25.5873
-25.4928
-25.3928
-25.2875
-25.177
-25.0613
-24.9405
-24.8144
-24.6831
-24.5464
-24.8384
-24.8705
-24.8961
-24.9147
-24.9264
-24.9314
-24.9296
-24.9212
-24.9063
-24.885
-24.8572
-24.8233
-24.7831
-24.7369
-24.6847
-24.6267
-24.5629
-24.4936
-24.4187
-24.3385
-24.2531
-24.1625
-24.0668
-23.9663
-23.8608
-23.7506
-23.6356
-23.5157
-23.391
-23.2614
-23.5914
-23.6212
-23.6447
-23.6616
-23.6719
-23.6757
-23.6731
-23.6641
-23.6489
-23.6275
-23.6001
-23.5666
-23.5273
-23.4821
-23.4313
-23.3749
-23.3131
-23.2459
-23.1736
-23.0961
-23.0138
-22.9266
-22.8347
-22.7382
-22.6372
-22.5318
-22.422
-22.3078
-22.1891
-22.0658
-22.4354
-22.463
-22.4845
-22.4997
-22.5085
-22.5111
-22.5075
-22.4979
-22.4822
-22.4607
-22.4333
-22.4001
-22.3613
-22.317
-22.2673
-22.2122
-22.152
-22.0867
-22.0164
-21.9414
-21.8617
-21.7774
-21.6888
-21.5959
-21.4989
-21.3978
-21.2926
-21.1835
-21.0702
-20.9528
-21.3617
-21.3872
-21.4068
-21.4203
-21.4276
-21.429
-21.4245
-21.4141
-21.398
-21.3762
-21.3487
-21.3158
-21.2774
-21.2337
-21.1849
-21.1309
-21.072
-21.0083
-20.9398
-20.8668
-20.7894
-20.7078
-20.622
-20.5323
-20.4387
-20.3415
-20.2406
-20.1361
-20.0278
-19.9158
-20.3626
-20.3861
-20.4038
-20.4157
-20.4217
-20.4219
-20.4164
-20.4053
-20.3887
-20.3665
-20.339
-20.3062
-20.2681
-20.225
-20.1768
-20.1238
-20.0661
-20.0037
-19.9368
-19.8656
-19.7902
-19.7108
-19.6276
-19.5407
-19.4503
-19.3565
-19.2595
-19.1592
-19.0557
-18.9487
-19.4311
-19.4527
-19.4687
-19.4791
-19.4838
-19.4829
-19.4765
-19.4647
-19.4475
-19.4251
-19.3974
-19.3646
-19.3268
-19.2841
-19.2366
-19.1844
-19.1277
-19.0665
-19.001
-18.9314
-18.8578
-18.7804
-18.6994
-18.615
-18.5274
-18.4368
-18.3433
-18.247
-18.1479
-18.0457
-18.561
-18.5808
-18.5953
-18.6042
-18.6077
-18.6058
-18.5986
-18.5861
-18.5684
-18.5456
-18.5178
-18.4851
-18.4476
-18.4052
-18.3583
-18.3068
-18.251
-18.1908
-18.1266
-18.0584
-17.9863
-17.9107
-17.8317
-17.7496
-17.6645
-17.5768
-17.4865
-17.3939
-17.299
-17.2015
-17.7469
-17.7651
-17.778
-17.7856
-17.788
-17.7851
-17.7771
-17.764
-17.7459
-17.7228
-17.6949
-17.6623
-17.6249
-17.5829
-17.5365
-17.4857
-17.4307
-17.3715
-17.3083
-17.2414
-17.1708
-17.0968
-17.0196
-16.9394
-16.8566
-16.7714
-16.6841
-16.595
-16.504
-16.4111
-16.9838
-17.0004
-17.012
-17.0184
-17.0197
-17.016
-17.0073
-16.9936
-16.9751
-16.9518
-16.9238
-16.8912
-16.854
-16.8124
-16.7664
-16.7162
-16.6619
-16.6037
-16.5415
-16.4757
-16.4064
-16.3338
-16.2582
-16.1797
-16.0989
-16.016
-15.9314
-15.8455
-15.7584
-15.67
-16.2674
-16.2826
-16.293
-16.2983
-16.2986
-16.2941
-16.2847
-16.2706
-16.2517
-16.2282
-16.2001
-16.1675
-16.1306
-16.0893
-16.0438
-15.9942
-15.9406
-15.8831
-15.8219
-15.7571
-15.689
-15.6176
-15.5433
-15.4664
-15.3873
-15.3064
-15.2241
-15.1412
-15.0578
-14.974
-15.5938
-15.6078
-15.6169
-15.6213
-15.6207
-15.6155
-15.6055
-15.5909
-15.5717
-15.5481
-15.5199
-15.4874
-15.4507
-15.4097
-15.3647
-15.3156
-15.2627
-15.206
-15.1456
-15.0818
-15.0147
-14.9444
-14.8714
-14.7958
-14.718
-14.6388
-14.5585
-14.4781
-14.3983
-14.3191
-14.9597
-14.9724
-14.9805
-14.9839
-14.9826
-14.9767
-14.9662
-14.9512
-14.9317
-14.9079
-14.8797
-14.8473
-14.8107
-14.7701
-14.7255
-14.6769
-14.6246
-14.5686
-14.5091
-14.4461
-14.3799
-14.3106
-14.2385
-14.164
-14.0874
-14.0094
-13.9307
-13.8524
-13.7757
-13.7013
-14.3619
-14.3736
-14.3807
-14.3832
-14.3811
-14.3746
-14.3636
-14.3482
-14.3284
-14.3044
-14.2762
-14.2439
-14.2075
-14.1671
-14.1228
-14.0747
-14.0229
-13.9675
-13.9086
-13.8464
-13.7809
-13.7124
-13.6411
-13.5673
-13.4915
-13.4142
-13.3365
-13.2597
-13.1853
-13.1154
-13.7978
-13.8086
-13.8149
-13.8167
-13.8141
-13.8071
-13.7957
-13.78
-13.7601
-13.7361
-13.7079
-13.6757
-13.6395
-13.5994
-13.5555
-13.5078
-13.4565
-13.4017
-13.3434
-13.2818
-13.217
-13.1492
-13.0785
-13.0053
-12.9298
-12.8529
-12.7755
-12.6994
-12.6266
-12.5599
-13.2644
-13.2747
-13.2806
-13.2822
-13.2794
-13.2724
-13.2611
-13.2456
-13.226
-13.2024
-13.1747
-13.1431
-13.1076
-13.0683
-13.0253
-12.9786
-12.9284
-12.8747
-12.8177
-12.7573
-12.6938
-12.6272
-12.5578
-12.4857
-12.4112
-12.335
-12.2579
-12.1826
-12.1116
-12.0509
-12.7602
-12.7687
-12.7731
-12.7734
-12.7695
-12.7615
-12.7496
-12.7336
-12.7137
-12.69
-12.6624
-12.6311
-12.596
-12.5574
-12.5153
-12.4696
-12.4206
-12.3682
-12.3126
-12.2539
-12.192
-12.1272
-12.0595
-11.9891
-11.9161
-11.841
-11.7641
-11.6881
-11.6145
-11.5684
-51.9034
-52.2476
-52.5687
-52.892
-53.2139
-53.5294
-53.8367
-54.1351
-54.4241
-54.7029
-54.9712
-55.2283
-55.4741
-55.7081
-55.9302
-56.1402
-56.3378
-56.523
-56.6956
-56.8556
-57.0029
-57.1376
-57.2595
-57.3689
-57.4659
-57.5506
-57.6237
-57.6859
-57.739
-57.7859
-47.786
-48.1446
-48.4858
-48.8198
-49.1468
-49.4648
-49.7734
-50.0723
-50.3614
-50.6401
-50.9083
-51.1655
-51.4115
-51.646
-51.8688
-52.0797
-52.2786
-52.4653
-52.6396
-52.8017
-52.9513
-53.0884
-53.2132
-53.3255
-53.4255
-53.5134
-53.5895
-53.6539
-53.707
-53.7478
-44.4288
-44.7891
-45.1363
-45.4727
-45.7996
-46.117
-46.4248
-46.7228
-47.011
-47.289
-47.5567
-47.8136
-48.0597
-48.2946
-48.5183
-48.7304
-48.9309
-49.1195
-49.2963
-49.4611
-49.6139
-49.7545
-49.8831
-49.9995
-50.1039
-50.1963
-50.2766
-50.3449
-50.4008
-50.4434
-41.4342
-41.7881
-42.1317
-42.4647
-42.7879
-43.1017
-43.4062
-43.7012
-43.9865
-44.262
-44.5274
-44.7825
-45.0272
-45.2611
-45.4842
-45.6963
-45.8971
-46.0867
-46.2649
-46.4315
-46.5865
-46.73
-46.8617
-46.9817
-47.0899
-47.1864
-47.2711
-47.3438
-47.4043
-47.4521
-38.605
-38.949
-39.2847
-39.6107
-39.9274
-40.2351
-40.5337
-40.8232
-41.1034
-41.3741
-41.6352
-41.8865
-42.1277
-42.3587
-42.5794
-42.7895
-42.989
-43.1777
-43.3555
-43.5223
-43.678
-43.8226
-43.9561
-44.0782
-44.1891
-44.2886
-44.3766
-44.4531
-44.5179
-44.5707
-35.9892
-36.3216
-36.6469
-36.9636
-37.2714
-37.5707
-37.8613
-38.1433
-38.4163
-38.6804
-38.9352
-39.1807
-39.4167
-39.6429
-39.8593
-40.0657
-40.262
-40.448
-40.6237
-40.7889
-40.9436
-41.0877
-41.2211
-41.3438
-41.4557
-41.5567
-41.6467
-41.7258
-41.7936
-41.8501
-33.5981
-33.918
-34.2315
-34.5371
-34.8345
-35.1238
-35.405
-35.6779
-35.9423
-36.1982
-36.4454
-36.6836
-36.9128
-37.1328
-37.3434
-37.5445
-37.7361
-37.9179
-38.0898
-38.2519
-38.404
-38.5459
-38.6778
-38.7994
-38.9108
-39.0118
-39.1024
-39.1825
-39.252
-39.3108
-31.4192
-31.7261
-32.0272
-32.3209
-32.6069
-32.8853
-33.1561
-33.419
-33.6739
-33.9207
-34.1591
-34.3891
-34.6105
-34.8231
-35.0268
-35.2215
-35.4072
-35.5835
-35.7506
-35.9082
-36.0563
-36.1949
-36.3238
-36.4431
-36.5526
-36.6522
-36.742
-36.8219
-36.8917
-36.9515
-29.4369
-29.7307
-30.0191
-30.3006
-30.5749
-30.8421
-31.102
-31.3545
-31.5993
-31.8364
-32.0656
-32.2867
-32.4996
-32.7042
-32.9003
-33.0879
-33.2668
-33.4369
-33.5981
-33.7504
-33.8937
-34.0279
-34.1529
-34.2687
-34.3753
-34.4725
-34.5604
-34.6389
-34.7079
-34.7674
-27.6339
-27.9149
-28.1908
-28.4602
-28.7229
-28.9788
-29.2278
-29.4697
-29.7043
-29.9316
-30.1513
-30.3633
-30.5675
-30.7637
-30.9518
-31.1318
-31.3035
-31.4669
-31.6218
-31.7682
-31.906
-32.0351
-32.1556
-32.2672
-32.3701
-32.4641
-32.5493
-32.6255
-32.6928
-32.7511
-25.9923
-26.261
-26.5248
-26.7825
-27.0338
-27.2787
-27.517
-27.7485
-27.9731
-28.1906
-28.4009
-28.6038
-28.7992
-28.9871
-29.1671
-29.3394
-29.5038
-29.6601
-29.8085
-29.9486
-30.0806
-30.2043
-30.3198
-30.4269
-30.5256
-30.6159
-30.6977
-30.7711
-30.836
-30.8924
-24.4949
-24.7519
-25.0041
-25.2506
-25.4911
-25.7254
-25.9534
-26.1749
-26.3898
-26.5978
-26.7989
-26.993
-27.1798
-27.3593
-27.5314
-27.6961
-27.8531
-28.0025
-28.1442
-28.2781
-28.4041
-28.5223
-28.6325
-28.7348
-28.8291
-28.9153
-28.9935
-29.0637
-29.1258
-29.1798
-23.1255
-23.3715
-23.6129
-23.8488
-24.0789
-24.3032
-24.5214
-24.7334
-24.939
-25.138
-25.3303
-25.5158
-25.6943
-25.8659
-26.0303
-26.1875
-26.3374
-26.48
-26.6151
-26.7428
-26.8629
-26.9756
-27.0806
-27.178
-27.2677
-27.3498
-27.4242
-27.4909
-27.55
-27.6013
-21.8698
-22.1055
-22.3367
-22.5627
-22.7831
-22.9979
-23.2069
-23.4099
-23.6067
-23.7971
-23.9811
-24.1585
-24.3291
-24.493
-24.6501
-24.8001
-24.9432
-25.0791
-25.208
-25.3297
-25.4441
-25.5513
-25.6512
-25.7438
-25.8291
-25.907
-25.9775
-26.0408
-26.0966
-26.1451
-20.7149
-20.941
-21.1627
-21.3794
-21.5908
-21.7968
-21.9971
-22.1916
-22.3802
-22.5625
-22.7386
-22.9084
-23.0716
-23.2283
-23.3783
-23.5216
-23.6581
-23.7878
-23.9106
-24.0265
-24.1355
-24.2375
-24.3324
-24.4204
-24.5013
-24.5751
-24.6419
-24.7017
-24.7543
-24.8
-19.6496
-19.8667
-20.0797
-20.2877
-20.4908
-20.6885
-20.8808
-21.0674
-21.2482
-21.423
-21.5917
-21.7542
-21.9105
-22.0603
-22.2037
-22.3406
-22.471
-22.5948
-22.7119
-22.8223
-22.9261
-23.0231
-23.1133
-23.1968
-23.2735
-23.3435
-23.4066
-23.463
-23.5126
-23.5555
-18.6643
-18.873
-19.0777
-19.2778
-19.4731
-19.6632
-19.8479
-20.0272
-20.2008
-20.3685
-20.5303
-20.6861
-20.8358
-20.9792
-21.1164
-21.2473
-21.3719
-21.49
-21.6018
-21.7071
-21.8059
-21.8982
-21.984
-22.0633
-22.136
-22.2022
-22.2619
-22.3151
-22.3617
-22.4019
-17.7503
-17.9513
-18.1484
-18.3411
-18.5291
-18.7121
-18.89
-19.0624
-19.2292
-19.3904
-19.5457
-19.6952
-19.8386
-19.9761
-20.1075
-20.2328
-20.3519
-20.4648
-20.5715
-20.6719
-20.7661
-20.854
-20.9356
-21.0109
-21.0799
-21.1426
-21.199
-21.2491
-21.2929
-21.3305
-16.9005
-17.0941
-17.2843
-17.4702
-17.6515
-17.828
-17.9993
-18.1653
-18.3259
-18.4809
-18.6302
-18.7737
-18.9114
-19.0432
-19.1692
-19.2892
-19.4032
-19.5111
-19.6131
-19.709
-19.7989
-19.8826
-19.9603
-20.0319
-20.0974
-20.1568
-20.2101
-20.2573
-20.2985
-20.3336
-16.1083
-16.2952
-16.4788
-16.6585
-16.8337
-17.0041
-17.1694
-17.3295
-17.4842
-17.6334
-17.777
-17.915
-18.0472
-18.1738
-18.2946
-18.4096
-18.5188
-18.6222
-18.7197
-18.8114
-18.8972
-18.9771
-19.0511
-19.1192
-19.1814
-19.2377
-19.2881
-19.3326
-19.3713
-19.4042
-15.3682
-15.5488
-15.7265
-15.9005
-16.07
-16.2348
-16.3945
-16.5491
-16.6983
-16.842
-16.9803
-17.113
-17.2402
-17.3618
-17.4778
-17.5882
-17.6929
-17.7919
-17.8853
-17.973
-18.055
-18.1312
-18.2018
-18.2666
-18.3257
-18.3792
-18.4269
-18.4689
-18.5053
-18.536
-14.6754
-14.85
-15.0224
-15.1912
-15.3556
-15.5152
-15.6697
-15.819
-15.963
-16.1016
-16.2349
-16.3627
-16.485
-16.602
-16.7134
-16.8194
-16.9199
-17.0149
-17.1044
-17.1883
-17.2667
-17.3396
-17.407
-17.4688
-17.525
-17.5758
-17.621
-17.6607
-17.6949
-17.7237
-14.0253
-14.1944
-14.3622
-14.5264
-14.686
-14.8408
-14.9904
-15.1348
-15.2739
-15.4077
-15.5361
-15.6593
-15.7771
-15.8896
-15.9968
-16.0987
-16.1952
-16.2864
-16.3722
-16.4527
-16.5278
-16.5975
-16.6618
-16.7208
-16.7744
-16.8226
-16.8655
-16.9031
-16.9353
-16.9622
-13.4139
-13.5779
-13.742
-13.9022
-14.0575
-14.2077
-14.3528
-14.4925
-14.6269
-14.7561
-14.8801
-14.9988
-15.1123
-15.2207
-15.3239
-15.4219
-15.5147
-15.6023
-15.6847
-15.7618
-15.8338
-15.9006
-15.9621
-16.0184
-16.0696
-16.1155
-16.1562
-16.1917
-16.2221
-16.2473
-12.8375
-12.9972
-13.1585
-13.3154
-13.4667
-13.6127
-13.7534
-13.8887
-14.0187
-14.1434
-14.2631
-14.3776
-14.4871
-14.5915
-14.6909
-14.7852
-14.8745
-14.9588
-15.038
-15.1121
-15.1811
-15.2451
-15.3041
-15.3579
-15.4067
-15.4505
-15.4892
-15.5228
-15.5515
-15.5752
-12.2927
-12.4498
-12.6098
-12.7637
-12.9113
-13.0533
-13.1898
-13.3207
-13.4464
-13.5669
-13.6825
-13.793
-13.8986
-13.9993
-14.0951
-14.1859
-14.2719
-14.3529
-14.4291
-14.5003
-14.5666
-14.628
-14.6844
-14.736
-14.7826
-14.8243
-14.8612
-14.8931
-14.9201
-14.9424
-11.7729
-11.9317
-12.093
-12.2443
-12.3882
-12.5264
-12.6587
-12.7854
-12.907
-13.0234
-13.135
-13.2418
-13.3437
-13.4408
-13.5332
-13.6208
-13.7036
-13.7817
-13.855
-13.9235
-13.9872
-14.0462
-14.1003
-14.1497
-14.1943
-14.2341
-14.2692
-14.2995
-14.325
-14.3459
-11.2647
-11.431
-11.5982
-11.748
-11.8886
-12.0232
-12.1518
-12.2747
-12.3925
-12.5054
-12.6135
-12.7169
-12.8157
-12.9097
-12.9992
-13.0839
-13.1641
-13.2396
-13.3104
-13.3766
-13.4382
-13.4951
-13.5473
-13.5949
-13.6378
-13.676
-13.7097
-13.7386
-13.763
-13.7827
-10.7674
-10.9415
-11.1193
-11.2704
-11.4085
-11.5399
-11.6652
-11.7849
-11.8994
-12.0093
-12.1144
-12.215
-12.311
-12.4024
-12.4894
-12.5718
-12.6497
-12.723
-12.7919
-12.8562
-12.916
-12.9712
-13.0219
-13.068
-13.1097
-13.1468
-13.1793
-13.2073
-13.2309
-13.2499
-10.3758
-10.5565
-10.73
-10.8804
-11.0141
-11.1389
-11.2581
-11.372
-11.4808
-11.5851
-11.6848
-11.7801
-11.871
-11.9574
-12.0395
-12.1172
-12.1905
-12.2594
-12.324
-12.3842
-12.4401
-12.4916
-12.5388
-12.5816
-12.62
-12.6542
-12.684
-12.7095
-12.7307
-12.7476
-5.47715
-5.78167
-6.10493
-6.44693
-6.80946
-7.19427
-7.60309
-8.03785
-8.50078
-8.9944
-9.52165
-10.0859
-10.6912
-11.3421
-12.0443
-12.8043
-13.6301
-14.5309
-15.5181
-16.6051
-17.8076
-19.1443
-20.6363
-22.3075
-24.1844
-26.2958
-28.653
-31.2369
-34.27
-38.1634
-5.64777
-5.95766
-6.28456
-6.63073
-6.99792
-7.3877
-7.8018
-8.2422
-8.71116
-9.21126
-9.74547
-10.3172
-10.9305
-11.5902
-12.3017
-13.0719
-13.9085
-14.8212
-15.8213
-16.9221
-18.1397
-19.4925
-21.0018
-22.6913
-24.5872
-26.7178
-29.0938
-31.694
-34.7369
-38.6289
-5.81909
-6.13437
-6.46493
-6.81534
-7.18727
-7.58209
-8.00154
-8.44765
-8.92273
-9.42939
-9.97063
-10.5499
-11.1714
-11.8398
-12.5608
-13.3412
-14.1889
-15.1136
-16.1266
-17.2415
-18.4741
-19.8432
-21.3699
-23.0776
-24.9924
-27.142
-29.5358
-32.151
-35.2016
-39.089
-5.99093
-6.31158
-6.64585
-7.00056
-7.3773
-7.77722
-8.20207
-8.65396
-9.13521
-9.64849
-10.1968
-10.7838
-11.4134
-12.0907
-12.8212
-13.6119
-14.4707
-15.4075
-16.4335
-17.5624
-18.8103
-20.1956
-21.7396
-23.4656
-25.3991
-27.5673
-29.9787
-32.609
-35.6694
-39.5576
-6.16317
-6.48918
-6.82719
-7.18626
-7.56787
-7.97294
-8.40327
-8.86098
-9.34847
-9.86842
-10.4239
-11.0185
-11.6565
-12.3426
-13.0827
-13.8838
-14.7538
-15.7026
-16.7417
-17.8848
-19.1478
-20.5494
-22.1107
-23.8549
-25.8071
-27.9937
-30.4227
-33.0683
-36.1399
-40.0326
-6.33567
-6.66703
-7.00882
-7.37232
-7.75885
-8.16914
-8.60498
-9.06858
-9.56236
-10.089
-10.6517
-11.2541
-11.9003
-12.5954
-13.3452
-14.1566
-15.0379
-15.9989
-17.0511
-18.2083
-19.4866
-20.9045
-22.4831
-24.2454
-26.2162
-28.4214
-30.8678
-33.5288
-36.6121
-40.5106
-6.50834
-6.84501
-7.1906
-7.55858
-7.95009
-8.36565
-8.80706
-9.2766
-9.77672
-10.3102
-10.8801
-11.4903
-12.1449
-12.849
-13.6085
-14.4303
-15.3229
-16.2961
-17.3614
-18.5328
-19.8264
-21.2606
-22.8566
-24.6369
-26.6263
-28.85
-31.3139
-33.9902
-37.0853
-40.9905
-6.68104
-7.02298
-7.37239
-7.74492
-8.14147
-8.56234
-9.00938
-9.4849
-9.9914
-10.5317
-11.1089
-11.7269
-12.3899
-13.1031
-13.8723
-14.7047
-15.6086
-16.594
-17.6725
-18.8582
-20.167
-21.6176
-23.2308
-25.0293
-27.0372
-29.2793
-31.7607
-34.4523
-37.5594
-41.4716
-6.85367
-7.20083
-7.55409
-7.93122
-8.33286
-8.75909
-9.21179
-9.69334
-10.2063
-10.7534
-11.338
-11.9638
-12.6353
-13.3575
-14.1365
-14.9794
-15.8947
-16.8924
-17.9842
-19.184
-20.5082
-21.9751
-23.6056
-25.4222
-27.4486
-29.7091
-32.2078
-34.9148
-38.0338
-41.9534
-7.02613
-7.37845
-7.73557
-8.11735
-8.52413
-8.95576
-9.41417
-9.90178
-10.4212
-10.9752
-11.5672
-12.2009
-12.8808
-13.6122
-14.401
-15.2544
-16.1811
-17.191
-18.2961
-19.5102
-20.8497
-22.333
-23.9808
-25.8154
-27.8603
-30.139
-32.655
-35.3772
-38.5081
-42.4352
-7.19832
-7.55574
-7.91672
-8.30321
-8.71517
-9.15224
-9.61639
-10.1101
-10.636
-11.1969
-11.7963
-12.4379
-13.1264
-13.8668
-14.6654
-15.5295
-16.4676
-17.4898
-18.6081
-19.8366
-21.1913
-22.6909
-24.356
-26.2086
-28.2718
-30.5687
-33.1019
-35.8392
-38.982
-42.9166
-7.37018
-7.7326
-8.09745
-8.4887
-8.90588
-9.34842
-9.81833
-10.3181
-10.8505
-11.4184
-12.0252
-12.6748
-13.3717
-14.1213
-14.9298
-15.8044
-16.7539
-17.7884
-18.92
-20.1627
-21.5328
-23.0487
-24.731
-26.6015
-28.683
-30.9979
-33.5482
-36.3004
-39.4549
-43.397
-7.54161
-7.90896
-8.27768
-8.67372
-9.09616
-9.54419
-10.0199
-10.5258
-11.0647
-11.6396
-12.2538
-12.9113
-13.6167
-14.3755
-15.1937
-16.079
-17.0399
-18.0867
-19.2316
-20.4885
-21.8738
-23.406
-25.1054
-26.9938
-29.0935
-31.4263
-33.9935
-36.7605
-39.9265
-43.8758
-7.71258
-8.08475
-8.45732
-8.8582
-9.28592
-9.73947
-10.2209
-10.733
-11.2785
-11.8602
-12.4818
-13.1473
-13.8613
-14.6291
-15.4572
-16.353
-17.3253
-18.3845
-19.5425
-20.8137
-22.2142
-23.7626
-25.4792
-27.3853
-29.503
-31.8536
-34.4374
-37.219
-40.3963
-44.3528
-7.88305
-8.25993
-8.63634
-9.04208
-9.4751
-9.93416
-10.4214
-10.9397
-11.4916
-12.0803
-12.7093
-13.3827
-14.1051
-14.8821
-15.72
-16.6263
-17.61
-18.6814
-19.8527
-21.138
-22.5538
-24.1183
-25.8518
-27.7755
-29.9111
-32.2794
-34.8797
-37.6756
-40.864
-44.8275
-8.05301
-8.43447
-8.81468
-9.2253
-9.66363
-10.1282
-10.6213
-11.1456
-11.704
-12.2996
-12.936
-13.6173
-14.3481
-15.1342
-15.9819
-16.8987
-17.8937
-18.9774
-20.1618
-21.4613
-22.8921
-24.4727
-26.2231
-28.1644
-30.3177
-32.7033
-35.3199
-38.1299
-41.3291
-45.2995
-8.22248
-8.60838
-8.99235
-9.40785
-9.85147
-10.3215
-10.8203
-11.3507
-11.9156
-12.5181
-13.1618
-13.8509
-14.5902
-15.3852
-16.2426
-17.17
-18.1763
-19.2721
-20.4696
-21.7831
-23.229
-24.8256
-26.5928
-28.5514
-30.7223
-33.1251
-35.7577
-38.5815
-41.7913
-45.7683
-8.39153
-8.7817
-9.16934
-9.58971
-10.0386
-10.5141
-11.0186
-11.555
-12.1263
-12.7355
-13.3865
-14.0834
-14.831
-15.6351
-16.5021
-17.4399
-18.4574
-19.5653
-20.7759
-22.1034
-23.5643
-25.1767
-26.9606
-28.9364
-31.1246
-33.5444
-36.1927
-39.0301
-42.2502
-46.2337
-8.56027
-8.95449
-9.3457
-9.77087
-10.2249
-10.7058
-11.2159
-11.7582
-12.3358
-12.9518
-13.61
-14.3146
-15.0705
-15.8835
-16.7601
-17.7082
-18.7369
-19.8568
-21.0804
-22.4218
-23.8975
-25.5257
-27.3261
-29.3189
-31.5244
-33.9609
-36.6247
-39.4753
-42.7055
-46.6952
-8.72883
-9.12686
-9.52147
-9.95135
-10.4105
-10.8966
-11.4122
-11.9604
-12.5442
-13.1668
-13.8321
-14.5443
-15.3084
-16.1302
-17.0164
-17.9748
-19.0145
-20.1464
-21.3828
-22.7381
-24.2285
-25.8723
-27.6891
-29.6988
-31.9212
-34.3741
-37.0532
-39.9167
-43.1567