/*--------------------------------*- C++ -*----------------------------------*\
  =========                 |
  \\      /  F ield         | OpenFOAM: The Open Source CFD Toolbox
   \\    /   O peration     | Website:  https://openfoam.org
    \\  /    A nd           | Version:  6.0
     \\/     M anipulation  |
\*---------------------------------------------------------------------------*/
FoamFile
{
    version     2.0;
    format      ascii;
    class       volScalarField;
    location    "10.5";
    object      p;
}
// * * * * * * * * * * * * * * * * * * * * * * * * * * * * * * * * * * * * * //

dimensions      [0 2 -2 0 0 0 0];

internalField   nonuniform List<scalar> 
9600
(
-86.7044
-75.2076
-66.9953
-60.3219
-54.289
-48.8943
-44.1028
-39.8417
-36.0501
-32.6756
-29.6702
-26.9904
-24.5969
-22.4551
-20.5344
-18.8083
-17.2535
-15.8493
-14.5776
-13.4346
-87.425
-75.9152
-67.6659
-60.9453
-54.8652
-49.4274
-44.5977
-40.3036
-36.4836
-33.0849
-30.0587
-27.3607
-24.9514
-22.7955
-20.8622
-19.1247
-17.5594
-16.1451
-14.8635
-13.713
-88.1502
-76.6161
-68.3279
-61.5608
-55.4341
-49.9536
-45.0863
-40.7597
-36.912
-33.4895
-30.4428
-27.7272
-25.3023
-23.1327
-21.187
-19.4382
-17.8626
-16.4384
-15.147
-13.9894
-88.8757
-77.3123
-68.9823
-62.1682
-55.9952
-50.4723
-45.5678
-41.2093
-37.3343
-33.8886
-30.822
-28.0891
-25.6491
-23.466
-21.5083
-19.7485
-18.1627
-16.7287
-15.4276
-14.2634
-89.5973
-78.0022
-69.6285
-62.7669
-56.5477
-50.9828
-46.0417
-41.6517
-37.7501
-34.2816
-31.1956
-28.4459
-25.9911
-23.795
-21.8255
-20.055
-18.4594
-17.0158
-15.7053
-14.5349
-90.3123
-78.6844
-70.2657
-63.3561
-57.0907
-51.4842
-46.5068
-42.0861
-38.1583
-34.6678
-31.5629
-28.7968
-26.3278
-24.119
-22.1382
-20.3574
-18.7522
-17.2994
-15.9799
-14.8038
-91.0185
-79.3572
-70.8928
-63.9348
-57.6233
-51.9755
-46.9625
-42.5115
-38.5583
-35.0462
-31.923
-29.1411
-26.6584
-24.4374
-22.4457
-20.6551
-19.0409
-17.5791
-16.251
-15.07
-91.7141
-80.0189
-71.5085
-64.5018
-58.1444
-52.4558
-47.4078
-42.9272
-38.9491
-35.4161
-32.2752
-29.4781
-26.9821
-24.7496
-22.7476
-20.9476
-19.3248
-17.8546
-16.5184
-15.3333
-92.3977
-80.6683
-72.1116
-65.0563
-58.6532
-52.9241
-47.8416
-43.332
-39.3297
-35.7765
-32.6184
-29.8068
-27.2982
-25.0546
-23.0429
-21.2342
-19.6034
-18.1255
-16.7819
-15.5936
-93.0681
-81.3041
-72.7009
-65.597
-59.1484
-53.3795
-48.2629
-43.725
-39.6992
-36.1263
-32.9518
-30.1262
-27.6056
-25.3517
-23.3308
-21.5141
-19.8761
-18.3911
-17.0409
-15.8506
-93.7241
-81.9253
-73.2754
-66.1229
-59.6292
-53.8208
-48.6708
-44.1052
-40.0564
-36.4646
-33.2742
-30.4352
-27.9032
-25.6395
-23.6102
-21.7863
-20.1417
-18.6504
-17.2946
-16.1034
-94.3653
-82.5308
-73.8341
-66.6331
-60.0945
-54.247
-49.0642
-44.4714
-40.4002
-36.7899
-33.5842
-30.7324
-28.1897
-25.9169
-23.8799
-22.0495
-20.3993
-18.9027
-17.5422
-16.3512
-94.9909
-83.12
-74.3762
-67.1266
-60.5433
-54.6572
-49.4421
-44.8225
-40.7295
-37.1011
-33.8806
-31.0164
-28.4635
-26.1822
-24.1382
-22.3022
-20.6475
-19.1467
-17.7829
-16.5936
-95.6007
-83.692
-74.9007
-67.6027
-60.9749
-55.0505
-49.8034
-45.1576
-41.043
-37.397
-34.1618
-31.2856
-28.7226
-26.4332
-24.3828
-22.542
-20.8838
-19.3803
-18.015
-16.8306
-96.194
-84.2458
-75.4068
-68.0606
-61.3886
-55.4261
-50.1475
-45.4757
-41.3398
-37.6762
-34.4265
-31.5382
-28.9653
-26.6677
-24.611
-22.7655
-21.1042
-19.5989
-18.2344
-17.0588
-96.7712
-84.781
-75.8939
-68.4997
-61.7836
-55.7834
-50.4734
-45.7759
-41.6188
-37.9377
-34.6733
-31.7728
-29.1897
-26.8839
-24.8206
-22.9702
-21.3057
-19.7987
-18.4355
-17.267
-97.3367
-85.2994
-76.3618
-68.9191
-62.1591
-56.1213
-50.7803
-46.0572
-41.8789
-38.1801
-34.9007
-31.9875
-29.3938
-27.0794
-25.0097
-23.1553
-21.4891
-19.9816
-18.6184
-17.4505
-97.9003
-85.8048
-76.8101
-69.3174
-62.5138
-56.4392
-51.0677
-46.3193
-42.1198
-38.4027
-35.1073
-32.18
-29.5739
-27.2492
-25.1721
-23.3142
-21.6486
-20.1445
-18.7875
-17.6398
-98.4627
-86.2966
-77.238
-69.6945
-62.8487
-56.7385
-51.3371
-46.5639
-42.343
-38.6069
-35.2941
-32.3503
-29.7283
-27.3882
-25.297
-23.4274
-21.7533
-20.247
-18.912
-17.8473
-98.981
-86.7599
-77.6448
-70.0531
-63.167
-57.0227
-51.5924
-46.7945
-42.5522
-38.7967
-35.4656
-32.5034
-29.8622
-27.5011
-25.3858
-23.487
-21.7761
-20.2328
-18.893
-17.8653
-103.814
-103.789
-103.718
-103.628
-103.521
-103.391
-103.236
-103.056
-102.853
-102.628
-102.381
-102.113
-101.826
-101.519
-101.194
-100.853
-100.497
-100.129
-99.7534
-99.375
-91.0696
-91.079
-91.0535
-91.003
-90.9287
-90.8293
-90.7042
-90.5544
-90.3809
-90.185
-89.9674
-89.729
-89.4708
-89.1935
-88.8983
-88.5859
-88.2575
-87.9135
-87.5544
-87.1735
-81.3149
-81.3524
-81.3613
-81.3426
-81.2975
-81.227
-81.1317
-81.0128
-80.8711
-80.7078
-80.5235
-80.3193
-80.0959
-79.854
-79.5945
-79.3176
-79.0237
-78.7121
-78.3815
-78.0273
-73.1556
-73.208
-73.2352
-73.2359
-73.211
-73.1617
-73.0895
-72.9951
-72.8795
-72.7435
-72.5879
-72.4136
-72.2212
-72.0116
-71.785
-71.5419
-71.282
-71.0048
-70.7091
-70.3929
-65.8338
-65.891
-65.9257
-65.9363
-65.9231
-65.8873
-65.8301
-65.7524
-65.6551
-65.5389
-65.4046
-65.2531
-65.0851
-64.9011
-64.7018
-64.4871
-64.2572
-64.0114
-63.749
-63.4686
-59.3801
-59.436
-59.4716
-59.4855
-59.4773
-59.4482
-59.3992
-59.3313
-59.2453
-59.142
-59.0221
-58.8866
-58.7361
-58.5714
-58.3929
-58.2009
-57.9954
-57.776
-57.5419
-57.2918
-53.7383
-53.7897
-53.8224
-53.8351
-53.8274
-53.8003
-53.7547
-53.6917
-53.6119
-53.5162
-53.4054
-53.2804
-53.1421
-52.9912
-52.8282
-52.6536
-52.4674
-52.2694
-52.0587
-51.834
-48.7971
-48.8423
-48.8701
-48.8792
-48.8693
-48.8414
-48.7963
-48.7348
-48.6579
-48.5663
-48.4609
-48.3426
-48.2125
-48.0712
-47.9197
-47.7584
-47.5875
-47.4068
-47.2156
-47.0125
-44.4553
-44.494
-44.516
-44.5204
-44.5072
-44.4769
-44.4306
-44.369
-44.2929
-44.2031
-44.1007
-43.9865
-43.8617
-43.7273
-43.5842
-43.4332
-43.2746
-43.1084
-42.9339
-42.7495
-40.6269
-40.659
-40.6753
-40.6749
-40.6578
-40.6247
-40.5764
-40.5137
-40.4372
-40.348
-40.247
-40.1352
-40.0139
-39.8843
-39.7474
-39.6045
-39.456
-39.3023
-39.1426
-38.9752
-37.2378
-37.2639
-37.2748
-37.2698
-37.249
-37.213
-37.1625
-37.0981
-37.0208
-36.9314
-36.8308
-36.7204
-36.6013
-36.4749
-36.3428
-36.2062
-36.0663
-35.9235
-35.7774
-35.626
-34.2258
-34.2465
-34.2526
-34.2435
-34.2192
-34.1804
-34.1277
-34.0617
-33.9833
-33.8933
-33.7927
-33.6827
-33.5648
-33.4406
-33.3118
-33.1802
-33.0475
-32.9146
-32.7814
-32.6458
-31.5389
-31.5549
-31.5568
-31.544
-31.5167
-31.4754
-31.4206
-31.3531
-31.2735
-31.1827
-31.0817
-30.9717
-30.8543
-30.7312
-30.6046
-30.4766
-30.3499
-30.2258
-30.1052
-29.9856
-29.1338
-29.1458
-29.144
-29.128
-29.0981
-29.0546
-28.9981
-28.9292
-28.8485
-28.7568
-28.6551
-28.5447
-28.4271
-28.3042
-28.1786
-28.0529
-27.9307
-27.8142
-27.7062
-27.6034
-26.9745
-26.9829
-26.9779
-26.9593
-26.9271
-26.8817
-26.8238
-26.7536
-26.6719
-26.5793
-26.4769
-26.3657
-26.2473
-26.1237
-25.9979
-25.8728
-25.7536
-25.643
-25.5475
-25.4625
-25.0306
-25.0358
-25.0281
-25.0071
-24.973
-24.9261
-24.8668
-24.7956
-24.713
-24.6196
-24.5162
-24.4039
-24.2843
-24.1592
-24.0318
-23.9054
-23.787
-23.6799
-23.5964
-23.5297
-23.2765
-23.279
-23.2687
-23.2457
-23.2098
-23.1616
-23.1011
-23.029
-22.9454
-22.8511
-22.7466
-22.6329
-22.5114
-22.3838
-22.2532
-22.1231
-22.0024
-21.8956
-21.8228
-21.7725
-21.6896
-21.69
-21.6779
-21.6533
-21.6163
-21.567
-21.5058
-21.4329
-21.3486
-21.2534
-21.1479
-21.0327
-20.9089
-20.778
-20.6426
-20.5063
-20.3791
-20.2678
-20.2055
-20.1705
-20.2498
-20.2492
-20.2365
-20.2117
-20.1748
-20.126
-20.0654
-19.9932
-19.9098
-19.8155
-19.7105
-19.5955
-19.4711
-19.3384
-19.1992
-19.0562
-18.9188
-18.7964
-18.7419
-18.7402
-18.9461
-18.9419
-18.9266
-18.9
-18.8622
-18.8132
-18.753
-18.682
-18.6001
-18.5077
-18.4049
-18.292
-18.1694
-18.0376
-17.897
-17.7496
-17.5989
-17.4546
-17.3703
-17.4122
-96.8548
-97.4691
-98.0315
-98.5853
-99.1291
-99.6515
-100.146
-100.612
-101.047
-101.451
-101.823
-102.163
-102.469
-102.743
-102.984
-103.193
-103.371
-103.52
-103.643
-103.743
-83.9846
-84.6068
-85.1956
-85.7651
-86.3149
-86.8396
-87.3359
-87.8029
-88.2401
-88.6471
-89.0232
-89.3681
-89.6816
-89.9635
-90.2142
-90.434
-90.6235
-90.7832
-90.9136
-91.0112
-74.2735
-74.8833
-75.4695
-76.0313
-76.5685
-77.0799
-77.5644
-78.0215
-78.4506
-78.8513
-79.2232
-79.566
-79.8794
-80.1633
-80.4178
-80.643
-80.839
-81.0055
-81.1419
-81.2458
-66.3478
-66.9287
-67.4899
-68.0274
-68.5401
-69.0281
-69.4913
-69.929
-70.3407
-70.726
-71.0844
-71.4159
-71.72
-71.9969
-72.2463
-72.4682
-72.6626
-72.8291
-72.9675
-73.0768
-59.3831
-59.9285
-60.4569
-60.9637
-61.4472
-61.9073
-62.3441
-62.757
-63.1455
-63.5094
-63.8482
-64.1619
-64.4502
-64.7132
-64.9507
-65.1627
-65.349
-65.5097
-65.6444
-65.7529
-53.3414
-53.8518
-54.3467
-54.8218
-55.2751
-55.7061
-56.1148
-56.5009
-56.864
-57.2038
-57.5202
-57.8131
-58.0823
-58.3279
-58.5498
-58.748
-58.9224
-59.0731
-59.1998
-59.3026
-48.1188
-48.597
-49.0605
-49.5054
-49.9295
-50.3322
-50.7135
-51.0732
-51.411
-51.7267
-52.0204
-52.292
-52.5414
-52.7686
-52.9737
-53.1567
-53.3175
-53.4562
-53.5727
-53.6671
-43.5766
-44.0262
-44.4615
-44.8787
-45.2758
-45.6523
-46.0081
-46.343
-46.657
-46.95
-47.222
-47.4731
-47.7033
-47.9127
-48.1013
-48.2692
-48.4162
-48.5426
-48.6483
-48.7334
-39.6014
-40.0259
-40.4362
-40.8288
-41.2017
-41.5544
-41.8869
-42.1992
-42.4914
-42.7634
-43.0155
-43.2477
-43.4602
-43.653
-43.8261
-43.9797
-44.1138
-44.2284
-44.3236
-44.3994
-36.1027
-36.5056
-36.8942
-37.2651
-37.6164
-37.9478
-38.2594
-38.5512
-38.8236
-39.0766
-39.3106
-39.5258
-39.7221
-39.8999
-40.059
-40.1997
-40.3219
-40.4257
-40.5111
-40.5784
-33.0074
-33.3919
-33.7618
-34.1138
-34.446
-34.7582
-35.0508
-35.3242
-35.5787
-35.8146
-36.0324
-36.2321
-36.4141
-36.5784
-36.725
-36.8541
-36.9657
-37.0598
-37.1366
-37.196
-30.2565
-30.6255
-30.9796
-31.315
-31.63
-31.9249
-32.2004
-32.457
-32.6952
-32.9157
-33.1188
-33.3048
-33.4738
-33.6261
-33.7617
-33.8806
-33.9828
-34.0684
-34.1374
-34.19
-27.8021
-28.1583
-28.4991
-28.82
-29.1195
-29.3985
-29.6581
-29.8993
-30.1227
-30.3291
-30.519
-30.6926
-30.8502
-30.9919
-31.1176
-31.2275
-31.3214
-31.3996
-31.4618
-31.5083
-25.6049
-25.951
-26.2808
-26.5887
-26.8738
-27.138
-27.3829
-27.6098
-27.8195
-28.0131
-28.1909
-28.3534
-28.5007
-28.6329
-28.75
-28.852
-28.9387
-29.0103
-29.0666
-29.1079
-23.6333
-23.972
-24.2925
-24.5882
-24.8597
-25.1098
-25.3407
-25.554
-25.7511
-25.9328
-26.0997
-26.2521
-26.3902
-26.5141
-26.6235
-26.7184
-26.7988
-26.8647
-26.9159
-26.9526
-21.8595
-22.196
-22.5089
-22.792
-23.0498
-23.2862
-23.5035
-23.7038
-23.8889
-24.0596
-24.2165
-24.3598
-24.4897
-24.6059
-24.7085
-24.7973
-24.8721
-24.9328
-24.9795
-25.0121
-20.2509
-20.5961
-20.9056
-21.1756
-21.4191
-21.6418
-21.8459
-22.0339
-22.2078
-22.3684
-22.5162
-22.6513
-22.7738
-22.8835
-22.98
-23.0633
-23.1332
-23.1895
-23.2321
-23.2612
-18.7734
-19.1338
-19.4476
-19.7071
-19.9369
-20.1463
-20.3381
-20.5152
-20.6793
-20.8313
-20.9716
-21.1002
-21.2168
-21.3211
-21.413
-21.492
-21.558
-21.6108
-21.6504
-21.6767
-17.4562
-17.8002
-18.1136
-18.3707
-18.5887
-18.7837
-18.9637
-19.1308
-19.2861
-19.4303
-19.564
-19.6869
-19.7986
-19.8986
-19.9867
-20.0624
-20.1256
-20.1761
-20.2136
-20.2382
-16.5048
-16.7734
-17.0139
-17.2661
-17.4709
-17.6401
-17.7985
-17.9489
-18.0887
-18.2184
-18.339
-18.4501
-18.551
-18.6411
-18.7202
-18.7877
-18.8435
-18.8874
-18.9192
-18.9388
-10.0539
-11.0618
-12.1889
-13.4321
-14.8063
-16.3294
-18.0204
-19.901
-21.998
-24.3434
-26.9767
-29.9469
-33.3162
-37.1643
-41.5973
-46.7561
-52.7684
-59.7308
-68.5707
-80.8202
-10.3553
-11.375
-12.5099
-13.7626
-15.1481
-16.6839
-18.389
-20.2855
-22.4004
-24.766
-27.4223
-30.4189
-33.8185
-37.7015
-42.1748
-47.3795
-53.4427
-60.4565
-69.3396
-81.6129
-10.6599
-11.6912
-12.834
-14.0966
-15.4938
-17.0426
-18.7621
-20.6749
-22.808
-25.1944
-27.8742
-30.8976
-34.328
-38.2465
-42.7604
-48.0111
-54.1248
-61.189
-70.1107
-82.3979
-10.9669
-12.0096
-13.1604
-14.4332
-15.8423
-17.4043
-19.1385
-21.0679
-23.2196
-25.627
-28.3306
-31.3812
-34.8428
-38.797
-43.3517
-48.6483
-54.8121
-61.9273
-70.8915
-83.1994
-11.2755
-12.3294
-13.4883
-14.7716
-16.1929
-17.7684
-19.5176
-21.4637
-23.6343
-26.0629
-28.7906
-31.8686
-35.3616
-39.3517
-43.9473
-49.2898
-55.5039
-62.6709
-71.6811
-84.0158
-11.5851
-12.6501
-13.8173
-15.1113
-16.545
-18.1343
-19.8988
-21.8619
-24.0515
-26.5016
-29.2536
-32.3593
-35.8838
-39.91
-44.5467
-49.9353
-56.1997
-63.4188
-72.476
-84.8401
-11.8954
-12.9712
-14.1467
-15.4518
-16.8984
-18.5017
-20.2816
-22.2619
-24.4709
-26.9426
-29.7191
-32.8526
-36.4089
-40.4714
-45.1493
-50.5843
-56.899
-64.1697
-73.2737
-85.668
-12.2059
-13.2922
-14.4763
-15.7927
-17.2524
-18.8699
-20.6655
-22.6633
-24.8917
-27.3853
-30.1865
-33.348
-36.9362
-41.0351
-45.7544
-51.2357
-57.6006
-64.9227
-74.0729
-86.4978
-12.5163
-13.6129
-14.8056
-16.1338
-17.6068
-19.2388
-21.0503
-23.0656
-25.3136
-27.8292
-30.6552
-33.8448
-37.465
-41.6004
-46.3611
-51.8886
-58.3036
-65.6765
-74.8725
-87.3279
-12.8265
-13.9332
-15.1345
-16.4748
-17.9614
-19.608
-21.4354
-23.4684
-25.7361
-28.2738
-31.1245
-34.3423
-37.9945
-42.1663
-46.9683
-52.542
-59.0068
-66.4301
-75.6713
-88.157
-13.1366
-14.253
-15.4631
-16.8157
-18.3161
-19.9774
-21.8208
-23.8715
-26.1588
-28.7184
-31.5939
-34.8397
-38.5238
-42.7319
-47.5752
-53.1948
-59.709
-67.1821
-76.4677
-88.9834
-13.447
-14.5727
-15.7916
-17.1567
-18.6709
-20.3469
-22.2063
-24.2745
-26.5813
-29.1627
-32.0628
-35.3364
-39.0522
-43.2965
-48.1806
-53.8458
-60.409
-67.9313
-77.2605
-89.8053
-13.7583
-14.8929
-16.1204
-17.498
-19.0261
-20.7166
-22.5917
-24.6772
-27.0032
-29.6061
-32.5305
-35.8317
-39.5789
-43.8589
-48.7836
-54.4939
-61.1055
-68.6763
-78.0482
-90.6214
-14.0718
-15.2145
-16.4502
-17.8402
-19.3817
-21.0864
-22.9768
-25.0792
-27.424
-30.048
-32.9962
-36.3245
-40.1027
-44.4181
-49.3829
-55.1379
-61.7973
-69.4157
-78.8294
-91.4302
-14.389
-15.5389
-16.7821
-18.1839
-19.7382
-21.4564
-23.3614
-25.4801
-27.8431
-30.4876
-33.4591
-36.814
-40.6227
-44.9729
-49.9772
-55.7762
-62.4828
-70.1483
-79.6029
-92.2306
-14.7124
-15.8676
-17.1166
-18.529
-20.0954
-21.8262
-23.7451
-25.8793
-28.2597
-30.924
-33.9182
-37.299
-41.1375
-45.5219
-50.565
-56.4073
-63.1604
-70.8724
-80.3676
-93.0217
-15.0454
-16.2034
-17.4554
-18.8765
-20.4533
-22.1956
-24.1272
-26.2758
-28.6728
-31.3561
-34.3721
-37.7781
-41.6457
-46.0635
-51.1447
-57.0295
-63.8282
-71.5865
-81.1227
-93.8033
-15.3887
-16.5428
-17.794
-19.2229
-20.8099
-22.5629
-24.5063
-26.6684
-29.081
-31.7824
-34.8194
-38.2499
-42.1457
-46.5962
-51.7146
-57.6407
-64.4841
-72.288
-81.8666
-94.5764
-15.7534
-16.8912
-18.1341
-19.5694
-21.1654
-22.9271
-24.8807
-27.0552
-29.4825
-32.2012
-35.2584
-38.7125
-42.6357
-47.1179
-52.2724
-58.2387
-65.1251
-72.974
-82.5981
-95.3436
-16.1002
-17.1983
-18.4531
-19.9087
-21.5157
-23.2852
-25.2481
-27.4342
-29.8754
-32.6105
-35.6871
-39.164
-43.1138
-47.6266
-52.8161
-58.821
-65.748
-73.6381
-83.3085
-96.1081
-5.62319
-6.28682
-7.196
-8.2594
-9.44272
-10.7575
-12.2223
-13.8551
-15.6764
-17.7112
-19.9907
-22.5537
-25.4494
-28.7425
-32.523
-36.9175
-42.0506
-48.046
-55.9296
-67.4646
-5.8296
-6.53317
-7.46393
-8.51965
-9.69102
-10.9985
-12.46
-14.0921
-15.9152
-17.9543
-20.2404
-22.8126
-25.7207
-29.0298
-32.8307
-37.2513
-42.4164
-48.4466
-56.3594
-67.9079
-5.92466
-6.69961
-7.66372
-8.73335
-9.91344
-11.2278
-12.6949
-14.3323
-16.1613
-18.2076
-20.5029
-23.0865
-26.0089
-29.3358
-33.159
-37.6068
-42.8048
-48.87
-56.8076
-68.3555
-6.05946
-6.86217
-7.844
-8.92882
-10.1228
-11.4493
-12.9267
-14.5736
-16.412
-18.4685
-20.7753
-23.3725
-26.311
-29.6575
-33.5044
-37.9808
-43.2128
-49.3158
-57.2863
-68.8467
-6.21939
-7.03423
-8.02882
-9.12645
-10.333
-11.6713
-13.1601
-14.8181
-16.668
-18.7367
-21.0569
-23.6694
-26.6258
-29.9935
-33.8656
-38.3722
-43.6399
-49.7839
-57.7946
-69.3791
-6.38148
-7.21127
-8.21912
-9.32893
-10.5474
-11.8976
-13.3982
-15.0683
-16.9308
-19.013
-21.3481
-23.9774
-26.9532
-30.3436
-34.2427
-38.7813
-44.0864
-50.2734
-58.3279
-69.9421
-6.54905
-7.39505
-8.41525
-9.53672
-10.7672
-12.1296
-13.6426
-15.3255
-17.2015
-19.2983
-21.6494
-24.2967
-27.2933
-30.708
-34.6356
-39.2078
-44.5523
-50.7837
-58.8834
-70.5302
-6.72943
-7.58955
-8.62021
-9.75236
-10.9944
-12.369
-13.8946
-15.5908
-17.4809
-19.5931
-21.9612
-24.6277
-27.6462
-31.0864
-35.0441
-39.6515
-45.0368
-51.314
-59.4601
-71.1416
-6.92406
-7.79644
-8.83616
-9.97803
-11.231
-12.6174
-14.1556
-15.8652
-17.7699
-19.8979
-22.2838
-24.9704
-28.0119
-31.4788
-35.4678
-40.112
-45.5396
-51.8638
-60.0577
-71.7754
-7.1317
-8.01565
-9.06365
-10.2146
-11.478
-12.8758
-14.4264
-16.1495
-18.069
-20.2134
-22.6176
-25.3249
-28.3903
-31.8851
-35.9066
-40.5887
-46.06
-52.4326
-60.6753
-72.4305
-7.35147
-8.24677
-9.30254
-10.462
-11.7355
-13.1445
-14.7074
-16.4441
-18.3785
-20.5397
-22.9627
-25.6915
-28.7816
-32.3051
-36.3601
-41.0814
-46.5976
-53.0197
-61.3122
-73.1057
-7.58293
-8.48942
-9.55255
-10.7203
-12.0036
-13.4236
-14.9988
-16.7491
-18.6987
-20.8768
-23.3192
-26.07
-29.1855
-32.7385
-36.8282
-41.5896
-47.1519
-53.6246
-61.9675
-73.7999
-7.82548
-8.74301
-9.81321
-10.989
-12.2819
-13.713
-15.3004
-17.0644
-19.0293
-21.2248
-23.6868
-26.4602
-29.6018
-33.1852
-37.3103
-42.113
-47.7223
-54.2465
-62.6405
-74.5121
-8.07827
-9.0068
-10.0839
-11.2676
-12.5702
-14.0122
-15.6119
-17.3897
-19.3702
-21.5833
-24.0654
-26.8619
-30.0302
-33.6446
-37.806
-42.6509
-48.3083
-54.8848
-63.3306
-75.2415
-8.34033
-9.27989
-10.3638
-11.5555
-12.8678
-14.3208
-15.9329
-17.7247
-19.721
-21.952
-24.4546
-27.2745
-30.4701
-34.1164
-38.3148
-43.2027
-48.9091
-55.5389
-64.0371
-75.9877
-8.61068
-9.56134
-10.6522
-11.8519
-13.1739
-14.6381
-16.2627
-18.0687
-20.0811
-22.3303
-24.8537
-27.6977
-30.9211
-34.5998
-38.836
-43.7677
-49.524
-56.208
-64.7594
-76.7501
-8.88835
-9.85023
-10.948
-12.1559
-13.4879
-14.9634
-16.6008
-18.4211
-20.4498
-22.7177
-25.2624
-28.1308
-31.3825
-35.0942
-39.3689
-44.3451
-50.1521
-56.8914
-65.4972
-77.5288
-9.1724
-10.1456
-11.2505
-12.4668
-13.8089
-15.2959
-16.9463
-18.7814
-20.8267
-23.1135
-25.6798
-28.5731
-31.8537
-35.5989
-39.9126
-44.934
-50.7922
-57.5877
-66.2499
-78.3244
-9.4619
-10.4465
-11.5586
-12.7836
-14.1362
-15.635
-17.2986
-19.1486
-21.2109
-23.5169
-26.1052
-29.0238
-32.3337
-36.1129
-40.4661
-45.5331
-51.4429
-58.2954
-67.0166
-79.1385
-9.75601
-10.7522
-11.8718
-13.1057
-14.4689
-15.9798
-17.657
-19.5222
-21.6017
-23.9273
-26.5379
-29.4822
-32.8217
-36.6353
-41.0285
-46.1413
-52.1027
-59.0111
-67.7929
-79.9734
-5.03799
-4.73358
-4.55698
-4.42823
-4.33057
-4.25195
-4.19056
-4.14395
-4.11131
-4.09184
-4.08506
-4.09055
-4.108
-4.1371
-4.1776
-4.22925
-4.29183
-4.36511
-4.44893
-4.54324
-5.93543
-5.67642
-5.47765
-5.33313
-5.22309
-5.13647
-5.06927
-5.01843
-4.98267
-4.96091
-4.95249
-4.95689
-4.97369
-5.00255
-5.04317
-5.09527
-5.15859
-5.23286
-5.31789
-5.41363
-6.88839
-6.65761
-6.46196
-6.31135
-6.19308
-6.10017
-6.0281
-5.97382
-5.93568
-5.91243
-5.90327
-5.90758
-5.92487
-5.95474
-5.99683
-6.05085
-6.11649
-6.19347
-6.28153
-6.38064
-7.98129
-7.75663
-7.56299
-7.40751
-7.28175
-7.18173
-7.10346
-7.0442
-7.00215
-6.976
-6.96481
-6.96788
-6.98463
-7.0146
-7.0574
-7.11267
-7.18008
-7.25928
-7.35
-7.45222
-9.18982
-8.9698
-8.77729
-8.61793
-8.48637
-8.38018
-8.29616
-8.23204
-8.18604
-8.15685
-8.14349
-8.14516
-8.16125
-8.19124
-8.23468
-8.29118
-8.36035
-8.44181
-8.53526
-8.6407
-10.5201
-10.3052
-10.1143
-9.95217
-9.81621
-9.70495
-9.616
-9.54751
-9.49789
-9.46589
-9.45052
-9.45097
-9.46657
-9.49676
-9.54106
-9.59903
-9.67025
-9.75429
-9.85083
-9.95988
-11.9927
-11.7813
-11.5916
-11.4274
-11.2878
-11.1721
-11.0787
-11.0062
-10.9532
-10.9185
-10.9012
-10.9006
-10.9158
-10.9464
-10.9917
-11.0514
-11.125
-11.212
-11.312
-11.4251
-13.6287
-13.4187
-13.229
-13.0626
-12.9196
-12.7998
-12.7023
-12.6259
-12.5695
-12.5323
-12.5132
-12.5114
-12.5264
-12.5575
-12.6041
-12.6658
-12.742
-12.8323
-12.9363
-13.054
-15.45
-15.2394
-15.0483
-14.8791
-14.7325
-14.6086
-14.507
-14.4267
-14.3671
-14.3272
-14.3063
-14.3036
-14.3184
-14.3501
-14.3982
-14.4622
-14.5415
-14.6355
-14.7439
-14.8669
-17.4822
-17.269
-17.075
-16.9021
-16.7513
-16.623
-16.517
-16.4328
-16.3697
-16.3271
-16.3043
-16.3005
-16.3152
-16.3477
-16.3975
-16.464
-16.5466
-16.6448
-16.7581
-16.8869
-19.7566
-19.5386
-19.3398
-19.1619
-19.0059
-18.8725
-18.7616
-18.6729
-18.606
-18.5604
-18.5354
-18.5304
-18.5448
-18.5781
-18.6296
-18.6988
-18.7851
-18.8878
-19.0066
-19.1418
-22.3117
-22.0864
-21.8807
-21.696
-21.5334
-21.3936
-21.2768
-21.1828
-21.1114
-21.062
-21.0343
-21.0277
-21.0416
-21.0753
-21.1285
-21.2004
-21.2904
-21.3978
-21.5224
-21.6644
-25.1965
-24.9611
-24.7457
-24.5518
-24.3806
-24.2326
-24.1083
-24.0075
-23.9303
-23.8762
-23.8448
-23.8357
-23.8482
-23.8819
-23.9362
-24.0105
-24.1041
-24.2162
-24.3465
-24.4956
-28.4751
-28.2258
-27.9974
-27.7912
-27.6084
-27.4497
-27.3155
-27.2059
-27.1209
-27.0603
-27.0236
-27.0105
-27.0204
-27.0529
-27.1074
-27.1832
-27.2797
-27.3959
-27.5316
-27.6875
-32.2365
-31.9688
-31.7229
-31.5003
-31.3021
-31.1291
-30.9817
-30.8603
-30.7647
-30.6949
-30.6505
-30.6312
-30.6365
-30.6659
-30.7188
-30.7946
-30.8926
-31.0118
-31.1519
-31.3135
-36.6063
-36.3145
-36.0457
-35.8013
-35.5828
-35.3907
-35.2258
-35.0884
-34.9784
-34.8957
-34.8402
-34.8114
-34.809
-34.8323
-34.881
-34.9545
-35.0518
-35.1719
-35.3142
-35.4794
-41.7086
-41.3862
-41.0878
-40.815
-40.5696
-40.3525
-40.1645
-40.0056
-39.8761
-39.7759
-39.7045
-39.6619
-39.6474
-39.6608
-39.7013
-39.7686
-39.8616
-39.9793
-40.1206
-40.2862
-47.6672
-47.3061
-46.9688
-46.6593
-46.3797
-46.1309
-45.9134
-45.7273
-45.5726
-45.4491
-45.3565
-45.2946
-45.2629
-45.261
-45.2884
-45.3443
-45.4282
-45.5395
-45.677
-45.8399
-55.4996
-55.085
-54.6982
-54.345
-54.0258
-53.7407
-53.4894
-53.2718
-53.0874
-52.9362
-52.818
-52.7324
-52.679
-52.6576
-52.6674
-52.7078
-52.7793
-52.8834
-53.0195
-53.1797
-66.9495
-66.4681
-66.0339
-65.6421
-65.289
-64.9727
-64.6921
-64.4467
-64.2362
-64.0604
-63.9191
-63.8123
-63.7396
-63.7009
-63.6958
-63.724
-63.7876
-63.8914
-64.0359
-64.1972
-4.64783
-4.76202
-4.88573
-5.01875
-5.1609
-5.31198
-5.47177
-5.64001
-5.81637
-6.00044
-6.19171
-6.38925
-6.59131
-6.79549
-6.99969
-7.19971
-7.38103
-7.52425
-7.63011
-7.72613
-5.5199
-5.63599
-5.76179
-5.89705
-6.04155
-6.19505
-6.35727
-6.52791
-6.70657
-6.89274
-7.08573
-7.28453
-7.48754
-7.69239
-7.89613
-8.09564
-8.28511
-8.44693
-8.5576
-8.68107
-6.49066
-6.61078
-6.7409
-6.88073
-7.03002
-7.18849
-7.3558
-7.5316
-7.71541
-7.90667
-8.10458
-8.30807
-8.51561
-8.72507
-8.93374
-9.13898
-9.33753
-9.51904
-9.67099
-9.83673
-7.56578
-7.6898
-7.82417
-7.96856
-8.12268
-8.28619
-8.45874
-8.63989
-8.82911
-9.02577
-9.22903
-9.43776
-9.65049
-9.86529
-10.0799
-10.2921
-10.4991
-10.6951
-10.8797
-11.0822
-8.75796
-8.88604
-9.02484
-9.17399
-9.33316
-9.50198
-9.68004
-9.86685
-10.0619
-10.2643
-10.4735
-10.6881
-10.9069
-11.1281
-11.3499
-11.5706
-11.7877
-11.9982
-12.2067
-12.4334
-10.0813
-10.2139
-10.3576
-10.5121
-10.6769
-10.8516
-11.0358
-11.229
-11.4306
-11.6398
-11.8557
-12.0774
-12.3035
-12.5326
-12.7633
-12.9941
-13.2233
-13.4498
-13.6787
-13.9231
-11.5512
-11.6889
-11.8382
-11.9986
-12.1697
-12.3512
-12.5424
-12.7429
-12.952
-13.169
-13.393
-13.6231
-13.858
-14.0966
-14.3378
-14.5804
-14.8234
-15.0667
-15.3148
-15.5756
-13.1854
-13.3288
-13.4844
-13.6515
-13.8299
-14.0189
-14.2181
-14.427
-14.6448
-14.8708
-15.1043
-15.3443
-15.5897
-15.8396
-16.093
-16.3491
-16.6073
-16.8681
-17.1349
-17.4126
-15.0041
-15.1541
-15.3167
-15.4915
-15.6779
-15.8756
-16.084
-16.3024
-16.5303
-16.7669
-17.0113
-17.2629
-17.5206
-17.7836
-18.0511
-18.3225
-18.5975
-18.8766
-19.1624
-19.4583
-17.0308
-17.1881
-17.3586
-17.542
-17.7377
-17.9451
-18.1639
-18.3933
-18.6327
-18.8814
-19.1386
-19.4036
-19.6754
-19.9535
-20.2371
-20.5258
-20.8193
-21.1181
-21.4241
-21.7397
-19.293
-19.4583
-19.6377
-19.8306
-20.0365
-20.255
-20.4855
-20.7272
-20.9797
-21.2422
-21.514
-21.7943
-22.0824
-22.3777
-22.6795
-22.9875
-23.3015
-23.6218
-23.9496
-24.2871
-21.8236
-21.9976
-22.1865
-22.3899
-22.6071
-22.8377
-23.0812
-23.3368
-23.6039
-23.882
-24.1701
-24.4678
-24.7742
-25.0888
-25.4111
-25.7407
-26.0774
-26.4211
-26.7728
-27.1346
-24.6629
-24.8461
-25.0451
-25.2595
-25.4889
-25.7326
-25.9901
-26.2608
-26.544
-26.8392
-27.1455
-27.4624
-27.7892
-28.1254
-28.4704
-28.8238
-29.1853
-29.5547
-29.9328
-30.3214
-27.8629
-28.055
-28.2641
-28.4898
-28.7316
-28.989
-29.2613
-29.548
-29.8484
-30.1619
-30.4879
-30.8256
-31.1745
-31.5341
-31.9038
-32.2832
-32.6719
-33.0692
-33.476
-33.8941
-31.4959
-31.6962
-31.9147
-32.1512
-32.405
-32.6758
-32.963
-33.2659
-33.5839
-33.9164
-34.2628
-34.6224
-34.9946
-35.3789
-35.7748
-36.1819
-36.5995
-37.0269
-37.4644
-37.9142
-35.6669
-35.8732
-36.0994
-36.3448
-36.6093
-36.8923
-37.1932
-37.5114
-37.8464
-38.1975
-38.564
-38.9454
-39.3411
-39.7505
-40.1732
-40.6088
-41.0565
-41.5152
-41.9847
-42.467
-40.4754
-40.6845
-40.9147
-41.1658
-41.4376
-41.7298
-42.0417
-42.3729
-42.7225
-43.0901
-43.4749
-43.8764
-44.294
-44.7273
-45.1756
-45.6387
-46.1157
-46.6053
-47.1066
-47.6211
-46.0262
-46.2322
-46.4601
-46.711
-46.9849
-47.2813
-47.5997
-47.9392
-48.2993
-48.6791
-49.078
-49.4956
-49.9313
-50.3845
-50.8547
-51.3413
-51.8441
-52.3626
-52.8956
-53.4421
-53.3517
-53.543
-53.7593
-54.0026
-54.272
-54.5667
-54.8854
-55.2273
-55.5914
-55.9772
-56.384
-56.8113
-57.2586
-57.7256
-58.2115
-58.716
-59.2403
-59.7879
-60.3584
-60.9386
-64.3296
-64.4924
-64.692
-64.9243
-65.1861
-65.475
-65.7897
-66.1288
-66.4917
-66.8776
-67.2861
-67.7169
-68.1698
-68.6449
-69.1417
-69.6606
-70.2055
-70.7854
-71.4018
-72.0153
-72.5492
-61.5089
-53.9994
-48.1485
-42.9615
-38.3755
-34.3233
-30.7207
-27.5066
-24.6346
-22.0656
-19.765
-17.7026
-15.8513
-14.1876
-12.6896
-11.3343
-10.1018
-9.00721
-8.08021
-73.1043
-62.0826
-54.5626
-48.6838
-43.4639
-38.8445
-34.76
-31.1274
-27.8862
-24.99
-22.3996
-20.0804
-18.0018
-16.1368
-14.4616
-12.9545
-11.5945
-10.3684
-9.2948
-8.36727
-73.6922
-62.67
-55.1356
-49.2291
-43.9759
-39.3223
-35.2052
-31.5425
-28.274
-25.3536
-22.742
-20.4043
-18.3098
-16.4313
-14.7447
-13.2284
-11.8621
-10.6323
-9.54895
-8.5943
-74.3066
-63.2753
-55.7211
-49.7851
-44.4976
-39.8092
-35.6588
-31.9655
-28.6695
-25.7249
-23.092
-20.7358
-18.6252
-16.7328
-15.0341
-13.5074
-12.1324
-10.8945
-9.79882
-8.82541
-74.9428
-63.8977
-56.3196
-50.3519
-45.029
-40.3047
-36.1205
-32.3962
-29.0726
-26.1035
-23.4492
-21.0744
-18.9475
-17.0409
-15.3297
-13.7918
-12.4066
-11.1587
-10.0504
-9.06207
-75.5975
-64.5361
-56.931
-50.9295
-45.5697
-40.8087
-36.59
-32.8343
-29.4826
-26.4889
-23.8131
-21.4194
-19.2761
-17.355
-15.6309
-14.0815
-12.6859
-11.4284
-10.3088
-9.30808
-76.2686
-65.1889
-57.5546
-51.5173
-46.1193
-41.3207
-37.0667
-33.2791
-29.8991
-26.8806
-24.183
-21.7704
-19.6106
-17.6748
-15.9378
-14.3767
-12.9707
-11.7037
-10.5736
-9.5617
-76.9546
-65.8551
-58.1895
-52.1147
-46.6771
-41.84
-37.5501
-33.7302
-30.3216
-27.278
-24.5586
-22.1269
-19.9504
-18
-16.2499
-14.6772
-13.2608
-11.9846
-10.8445
-9.82196
-77.6541
-66.5333
-58.8348
-52.721
-47.2426
-42.366
-38.0397
-34.187
-30.7495
-27.6806
-24.9392
-22.4884
-20.2951
-18.33
-16.5669
-14.9824
-13.5558
-12.2704
-11.1204
-10.0876
-78.3661
-67.2225
-59.4896
-53.3353
-47.815
-42.898
-38.5346
-34.6487
-31.182
-28.0877
-25.3242
-22.8542
-20.6442
-18.6643
-16.8881
-15.292
-13.855
-12.5603
-11.4005
-10.3576
-79.0893
-67.9216
-60.1527
-53.9566
-48.3933
-43.4352
-39.0342
-35.1148
-31.6187
-28.4988
-25.7132
-23.2239
-20.997
-19.0023
-17.213
-15.6052
-14.1578
-12.8536
-11.6839
-10.631
-79.823
-68.6297
-60.8233
-54.584
-48.9767
-43.9768
-39.5377
-35.5845
-32.0588
-28.9132
-26.1053
-23.5967
-21.3529
-19.3434
-17.5409
-15.9213
-14.4634
-13.1497
-11.97
-10.9072
-80.5662
-69.3455
-61.5002
-55.2166
-49.5643
-44.5218
-40.0442
-36.0569
-32.5015
-29.3302
-26.5
-23.972
-21.7114
-19.687
-17.8712
-16.2398
-14.7713
-13.4479
-12.2581
-11.1855
-81.3179
-70.0681
-62.1823
-55.8532
-50.1551
-45.0696
-40.553
-36.5315
-32.9462
-29.7491
-26.8966
-24.3492
-22.0717
-20.0324
-18.2034
-16.5601
-15.0809
-13.7475
-12.5475
-11.4652
-82.077
-70.796
-62.8684
-56.4929
-50.7482
-45.619
-41.0633
-37.0072
-33.3921
-30.1692
-27.2944
-24.7277
-22.4333
-20.3791
-18.5368
-16.8816
-15.3915
-14.0482
-12.8379
-11.7461
-82.8426
-71.528
-63.5573
-57.1344
-51.3424
-46.1691
-41.5739
-37.4834
-33.8384
-30.5897
-27.6927
-25.1068
-22.7955
-20.7265
-18.871
-17.2037
-15.7028
-14.3494
-13.1287
-12.0276
-83.616
-72.264
-64.2479
-57.7765
-51.9364
-46.7186
-42.0838
-37.9588
-34.284
-31.0098
-28.0907
-25.4857
-23.1578
-21.0739
-19.2052
-17.5261
-16.0143
-14.6507
-13.4196
-12.3094
-84.4017
-73.005
-64.9387
-58.4171
-52.5285
-47.2661
-42.5918
-38.4325
-34.7282
-31.4286
-28.4877
-25.8638
-23.5193
-21.4208
-19.539
-17.848
-16.3254
-14.9516
-13.7103
-12.5913
-85.199
-73.7495
-65.6283
-59.0551
-53.118
-47.8111
-43.0975
-38.9041
-35.1705
-31.8458
-28.8833
-26.2406
-23.8797
-21.7667
-19.8718
-18.1691
-16.6357
-15.2518
-14.0003
-12.8729
-85.9825
-74.4882
-66.3148
-59.6905
-53.7053
-48.3544
-43.6016
-39.3742
-35.6115
-32.2617
-29.2777
-26.6163
-24.239
-22.1116
-20.2038
-18.4893
-16.9453
-15.5512
-14.2895
-13.1542
-10.2387
-6.78899
-4.69892
-3.20494
-2.21077
-1.51476
-1.03196
-0.69842
-0.471239
-0.320067
-0.2229
-0.163633
-0.130437
-0.11463
-0.109879
-0.1116
-0.116516
-0.122336
-0.127524
-0.131147
-0.132763
-0.132365
-0.130345
-0.127575
-0.125448
-0.126105
-0.132134
-0.146487
-0.171174
-0.207361
-0.253322
-0.306323
-0.359145
-0.403716
-0.426989
-0.414825
-0.3677
-0.265756
-0.175678
-0.0150614
-10.5187
-6.99525
-4.86394
-3.33495
-2.312
-1.59557
-1.09671
-0.750942
-0.514243
-0.355588
-0.25245
-0.188356
-0.151208
-0.132134
-0.124665
-0.124115
-0.12713
-0.131361
-0.135224
-0.13775
-0.138463
-0.137332
-0.134722
-0.131483
-0.12898
-0.129307
-0.134988
-0.148886
-0.172917
-0.208154
-0.252848
-0.30423
-0.355244
-0.397887
-0.41975
-0.40677
-0.360324
-0.260016
-0.17224
-0.0144513
-10.7989
-7.20544
-5.03276
-3.46856
-2.41578
-1.67818
-1.16269
-0.804212
-0.557655
-0.391278
-0.28201
-0.212988