/*--------------------------------*- C++ -*----------------------------------*\
  =========                 |
  \\      /  F ield         | OpenFOAM: The Open Source CFD Toolbox
   \\    /   O peration     | Website:  https://openfoam.org
    \\  /    A nd           | Version:  6.0
     \\/     M anipulation  |
\*---------------------------------------------------------------------------*/
FoamFile
{
    version     2.0;
    format      ascii;
    class       surfaceScalarField;
    location    "2.499";
    object      phi;
}
// * * * * * * * * * * * * * * * * * * * * * * * * * * * * * * * * * * * * * //

dimensions      [0 3 -1 0 0 0 0];

internalField   nonuniform List<scalar> 
38030
(
6.82034e-06
-0.0808541
0.0808473
5.64641e-05
-0.0766528
0.0766032
0.000142642
-0.0730089
0.0729227
0.000260658
-0.0698226
0.0697046
0.000406765
-0.0670089
0.0668628
0.000577069
-0.064496
0.0643256
0.000767651
-0.0622252
0.0620346
0.000974732
-0.0601497
0.0599426
0.00119478
-0.0582319
0.0580119
0.00142457
-0.0564427
0.0562129
0.00166126
-0.0547589
0.0545222
0.00190238
-0.0531628
0.0529217
0.00214581
-0.0516408
0.0513974
0.00238984
-0.0501824
0.0499384
0.00263305
-0.0487797
0.0485365
0.00287436
-0.0474265
0.0471852
0.00311292
-0.0461183
0.0458798
0.00334815
-0.0448515
0.0446162
0.00357964
-0.0436231
0.0433916
0.00380715
-0.0424309
0.0422034
0.00403054
-0.0412731
0.0410497
0.00424976
-0.0401479
0.0399287
0.00446481
-0.0390542
0.0388391
0.0046757
-0.0379908
0.0377799
0.00488248
-0.0369571
0.0367504
0.00508517
-0.035952
0.0357493
0.00528379
-0.0349741
0.0347755
0.00547825
-0.0340222
0.0338278
0.00566841
-0.0330952
0.032905
-0.0321918
0.0320062
0.00585401
1.36987e-05
-0.0808678
6.43026e-05
-0.0767034
0.00015113
-0.0730958
0.000270589
-0.069942
0.00041874
-0.067157
0.000591468
-0.0646687
0.000784667
-0.0624184
0.000994401
-0.0603594
0.00121702
-0.0584546
0.00144924
-0.0566749
0.00168815
-0.0549978
0.00193124
-0.0534059
0.0021764
-0.051886
0.00242191
-0.0504279
0.00266637
-0.0490242
0.00290872
-0.0476689
0.00314815
-0.0463578
0.00338412
-0.0450874
0.00361627
-0.0438552
0.00384439
-0.0426591
0.00406841
-0.0414971
0.00428833
-0.0403678
0.00450418
-0.03927
0.00471602
-0.0382027
0.00492391
-0.037165
0.00512794
-0.036156
0.00532815
-0.0351743
0.00552454
-0.0342186
0.00571698
-0.0332876
-0.0323801
0.00590524
1.62038e-05
-0.080884
6.9081e-05
-0.0767563
0.000157944
-0.0731846
0.000279697
-0.0700638
0.000430421
-0.0673078
0.000605908
-0.0648442
0.000801936
-0.0626144
0.00101446
-0.0605719
0.00123976
-0.0586799
0.00147445
-0.0569096
0.0017156
-0.0552389
0.00196067
-0.053651
0.00220756
-0.0521329
0.00245453
-0.0506749
0.00270021
-0.0492698
0.00294357
-0.0479123
0.00318385
-0.046598
0.00342052
-0.0453241
0.00365329
-0.044088
0.003882
-0.0428878
0.00410663
-0.0417217
0.00432723
-0.0405884
0.0045439
-0.0394867
0.00475671
-0.0384155
0.00496576
-0.0373741
0.00517115
-0.0363614
0.00537302
-0.0353762
0.00557139
-0.034417
0.00576619
-0.0334824
-0.0325711
0.00595721
1.76265e-05
-0.0809016
7.26645e-05
-0.0768114
0.000163926
-0.0732759
0.000288337
-0.0701882
0.000441929
-0.0674614
0.000620396
-0.0650226
0.000819413
-0.0628135
0.00103484
-0.0607873
0.00126287
-0.0589079
0.00150008
-0.0571468
0.00174348
-0.0554823
0.00199053
-0.053898
0.00223911
-0.0523814
0.0024875
-0.0509233
0.00273436
-0.0495167
0.00297868
-0.0481566
0.00321974
-0.0468391
0.00345706
-0.0455614
0.00369039
-0.0443213
0.00391962
-0.043117
0.0041448
-0.0419469
0.00436605
-0.0408097
0.00458351
-0.0397041
0.0047973
-0.0386293
0.00500751
-0.0375843
0.00521432
-0.0365682
0.00541785
-0.0355797
0.00561825
-0.0346174
0.00581546
-0.0336796
-0.0327649
0.00600932
1.86616e-05
-0.0809203
7.57038e-05
-0.0768684
0.000169469
-0.0733696
0.000296715
-0.0703154
0.00045335
-0.067618
0.000634942
-0.0652042
0.000837055
-0.0630156
0.00105546
-0.0610057
0.00128626
-0.0591387
0.00152598
-0.0573865
0.00177162
-0.055728
0.00202061
-0.054147
0.00227084
-0.0526317
0.00252059
-0.0511731
0.00276857
-0.0497647
0.00301377
-0.0484018
0.00325553
-0.0470809
0.00349342
-0.0457993
0.00372723
-0.0445551
0.00395691
-0.0433467
0.00418256
-0.0421726
0.00440439
-0.0410315
0.00462258
-0.0399223
0.00483729
-0.038844
0.00504866
-0.0377957
0.00525687
-0.0367764
0.0054621
-0.035785
0.00566454
-0.0348198
0.00586419
-0.0338793
-0.0329617
0.00606092
1.95285e-05
-0.0809398
7.84782e-05
-0.0769274
0.000174781
-0.0734659
0.000304956
-0.0704456
0.000464736
-0.0677778
0.000649544
-0.065389
0.000854817
-0.0632208
0.00107622
-0.0612272
0.0013098
-0.0593723
0.00155203
-0.0576287
0.00179987
-0.0559758
0.00205074
-0.0543979
0.00230254
-0.0528834
0.00255357
-0.0514241
0.00280256
-0.0500137
0.00304855
-0.0486478
0.00329092
-0.0473232
0.00352927
-0.0460377
0.00376346
-0.0447893
0.00399349
-0.0435767
0.00421953
-0.0423986
0.00444183
-0.0412538
0.00466062
-0.0401411
0.00487617
-0.0390595
0.00508863
-0.0380081
0.0052982
-0.036986
0.00550515
-0.0359919
0.00570963
-0.0350243
0.00591172
-0.0340814
-0.0331613
0.00611133
2.03216e-05
-0.0809602
8.11251e-05
-0.0769882
0.000179976
-0.0735648
0.000313131
-0.0705788
0.000476117
-0.0679408
0.000664189
-0.0655771
0.000872651
-0.0634293
0.00109707
-0.0614516
0.00133341
-0.0596086
0.0015781
-0.0578734
0.00182806
-0.0562258
0.00208073
-0.0546505
0.00233399
-0.0531367
0.0025862
-0.0516763
0.00283608
-0.0502636
0.00308274
-0.0488944
0.00332558
-0.0475661
0.00356426
-0.0462763
0.0037987
-0.0450237
0.00402895
-0.043807
0.00425523
-0.0426249
0.00447785
-0.0414764
0.00469714
-0.0403604
0.00491339
-0.0392758
0.00512685
-0.0382216
0.00533777
-0.0371969
0.00554634
-0.0362005
0.00575284
-0.0352308
0.00595737
-0.0342859
-0.0333638
0.00615985
2.10807e-05
-0.0809812
8.37139e-05
-0.0770508
0.000185121
-0.0736662
0.000321282
-0.0707149
0.000487502
-0.068107
0.000678858
-0.0657685
0.000890508
-0.0636409
0.00111791
-0.061679
0.00135696
-0.0598476
0.00160403
-0.0581205
0.00185604
-0.0564778
0.00211039
-0.0549049
0.002365
-0.0533913
0.00261824
-0.0519295
0.00286888
-0.0505142
0.00311604
-0.0491416
0.0033592
-0.0478092
0.00359805
-0.0465152
0.00383257
-0.0452582
0.00406286
-0.0440373
0.00428922
-0.0428513
0.004512
-0.0416992
0.00473162
-0.04058
0.00494848
-0.0394926
0.00516286
-0.038436
0.00537499
-0.037409
0.00558515
-0.0364107
0.00579356
-0.0354392
0.00600045
-0.0344928
-0.0335691
0.00620578
2.18281e-05
-0.0810031
8.62785e-05
-0.0771152
0.000190246
-0.0737702
0.000329426
-0.0708541
0.00049889
-0.0682764
0.000693523
-0.0659631
0.000908336
-0.0638558
0.00113868
-0.0619093
0.00138036
-0.0600893
0.00162972
-0.0583699
0.00188364
-0.0567317
0.00213954
-0.0551608
0.00239535
-0.0536471
0.00264946
-0.0521836
0.00290068
-0.0507654
0.00314818
-0.0493891
0.00339147
-0.0480525
0.00363031
-0.046754
0.00386472
-0.0454927
0.00409487
-0.0442674
0.0043211
-0.0430775
0.00454386
-0.041922
0.00476365
-0.0407998
0.00498092
-0.0397099
0.00519606
-0.0386511
0.00540929
-0.0376223
0.00562092
-0.0366223
0.00583117
-0.0356495
0.00604033
-0.0347019
-0.0337772
0.00624843
2.25711e-05
-0.0810256
8.88386e-05
-0.0771815
0.000195367
-0.0738767
0.000337568
-0.0709963
0.000510267
-0.0684491
0.000708152
-0.066161
0.000926078
-0.0640737
0.00115928
-0.0621425
0.0014035
-0.0603335
0.00165502
-0.0586214
0.00191071
-0.0569874
0.00216801
-0.0554181
0.00242484
-0.053904
0.00267964
-0.0524384
0.00293124
-0.051017
0.00317888
-0.0496367
0.0034221
-0.0482957
0.00366072
-0.0469927
0.00389481
-0.0457267
0.0041246
-0.0444972
0.00435051
-0.0433034
0.00457303
-0.0421445
0.00479274
-0.0410195
0.00501018
-0.0399273
0.00522585
-0.0388668
0.00544003
-0.0378365
0.00565296
-0.0368352
0.005865
-0.0358615
0.00607631
-0.0349132
-0.033988
0.00628709
2.33149e-05
-0.0810489
9.14001e-05
-0.0772496
0.00020049
-0.0739858
0.000345704
-0.0711415
0.000521617
-0.068625
0.000722709
-0.0663621
0.00094368
-0.0642947
0.00117965
-0.0623785
0.00142627
-0.0605802
0.00167981
-0.0588749
0.00193712
-0.0572447
0.00219561
-0.0556766
0.00245327
-0.0541616
0.00270854
-0.0526937
0.00296032
-0.0512688
0.00320787
-0.0498843
0.00345078
-0.0485386
0.00368895
-0.0472308
0.00392248
-0.0459603
0.00415169
-0.0447264
0.00437702
-0.0435287
0.00459905
-0.0423665
0.00481841
-0.0412389
0.00503577
-0.0401447
0.00525167
-0.0390827
0.00546654
-0.0380513
0.00568065
-0.0370493
0.0058943
-0.0360752
0.00610769
-0.0351266
-0.0342013
0.00632103
2.40615e-05
-0.081073
9.39639e-05
-0.0773195
0.000205612
-0.0740974
0.000353824
-0.0712897
0.000532917
-0.0688041
0.000737159
-0.0665663
0.000961085
-0.0645186
0.0011997
-0.0626171
0.00144859
-0.0608291
0.00170398
-0.0591303
0.0019627
-0.0575034
0.00222219
-0.0559361
0.00248045
-0.0544199
0.00273597
-0.0529492
0.00298768
-0.0515205
0.00323488
-0.0501315
0.00347725
-0.048781
0.0037147
-0.0474683
0.00394741
-0.046193
0.00417575
-0.0449548
0.00440023
-0.0437532
0.00462149
-0.0425878
0.00484024
-0.0414576
0.0050572
-0.0403617
0.00527303
-0.0392985
0.0054883
-0.0382666
0.00570333
-0.0372644
0.00591837
-0.0362902
0.00613372
-0.035342
-0.034417
0.00634945
2.48092e-05
-0.0810978
9.65301e-05
-0.0773912
0.000210728
-0.0742116
0.000361916
-0.0714409
0.000544144
-0.0689864
0.000751463
-0.0667736
0.000978241
-0.0647454
0.00121937
-0.0628582
0.00147036
-0.0610801
0.00172741
-0.0593873
0.00198733
-0.0577633
0.00224759
-0.0561963
0.00250621
-0.0546785
0.00276172
-0.0532047
0.00301309
-0.0517719
0.00325969
-0.0503781
0.00350122
-0.0490225
0.00373767
-0.0477047
0.00396926
-0.0464246
0.00419644
-0.0451819
0.00441977
-0.0439765
0.00463995
-0.042808
0.00485775
-0.0416754
0.00507398
-0.0405779
0.00528944
-0.0395139
0.00550472
-0.0384819
0.00572034
-0.03748
0.00593655
-0.0365064
0.0061536
-0.035559
-0.034635
0.0063716
2.55576e-05
-0.0811234
9.90931e-05
-0.0774648
0.000215831
-0.0743284
0.000369969
-0.0715951
0.000555279
-0.0691717
0.000765589
-0.0669839
0.000995099
-0.0649749
0.00123859
-0.0631017
0.0014915
-0.061333
0.00174998
-0.0596458
0.00201088
-0.0580242
0.00227166
-0.0564571
0.00253038
-0.0549372
0.0027856
-0.05346
0.00303635
-0.0520226
0.00328205
-0.0506238
0.00352244
-0.0492629
0.00375758
-0.0479399
0.00398775
-0.0466547
0.00421343
-0.0454076
0.00443527
-0.0441984
0.00465403
-0.0430267
0.00487055
-0.041892
0.00508571
-0.0407931
0.00530038
-0.0397286
0.00551531
-0.0386968
0.00573113
-0.0376958
0.00594817
-0.0367235
0.00616663
-0.0357775
-0.0348552
0.00638676
2.63041e-05
-0.0811497
0.00010165
-0.0775401
0.000220914
-0.0744476
0.000377969
-0.0717521
0.000566303
-0.06936
0.000779507
-0.0671971
0.00101161
-0.065207
0.00125729
-0.0633474
0.00151191
-0.0615876
0.00177162
-0.0599055
0.00203324
-0.0582858
0.00229427
-0.0567182
0.0025528
-0.0551958
0.00280744
-0.0537146
0.00305728
-0.0522724
0.00330176
-0.0508683
0.0035407
-0.0495019
0.0037742
-0.0481734
0.00400259
-0.0468831
0.00422642
-0.0456314
0.0044464
-0.0444184
0.00466336
-0.0432437
0.00487821
-0.0421068
0.0050919
-0.0410068
0.00530539
-0.0399421
0.00551957
-0.038911
0.00573513
-0.0379114
0.00595261
-0.0369409
0.00617224
-0.0359971
-0.0350771
0.00639417
2.70469e-05
-0.0811767
0.000104196
-0.0776172
0.000225973
-0.0745694
0.000385912
-0.0719121
0.0005772
-0.0695513
0.000793192
-0.0674131
0.00102775
-0.0654415
0.00127542
-0.0635951
0.00153154
-0.0618437
0.00179221
-0.0601662
0.00205429
-0.0585479
0.00231529
-0.0569792
0.00257334
-0.0554538
0.0028271
-0.0539684
0.0030757
-0.052521
0.00331864
-0.0511112
0.0035558
-0.049739
0.0037873
-0.0484049
0.00401356
-0.0471094
0.00423516
-0.045853
0.00445288
-0.0446361
0.00466762
-0.0434584
0.00488038
-0.0423196
0.00509218
-0.0412186
0.00530407
-0.040154
0.00551704
-0.039124
0.00573193
-0.0381263
0.00594939
-0.0371584
0.00616974
-0.0362175
-0.0353004
0.00639302
2.77823e-05
-0.0812045
0.000106727
-0.0776962
0.000231006
-0.0746937
0.000393794
-0.0720748
0.000587965
-0.0697455
0.000806626
-0.0676318
0.00104346
-0.0656784
0.00129293
-0.0638445
0.00155031
-0.0621011
0.0018117
-0.0604276
0.00207395
-0.0588102
0.00233462
-0.0572398
0.00259188
-0.0557111
0.00284444
-0.0542209
0.00309148
-0.0527681
0.00333255
-0.0513523
0.00356756
-0.049974
0.00379671
-0.048634
0.00402045
-0.0473331
0.00423941
-0.046072
0.00445445
-0.0448511
0.00466651
-0.0436705
0.0048767
-0.0425297
0.00508612
-0.041428
0.00529592
-0.0403638
0.00550719
-0.0393352
0.00572089
-0.03834
0.00593774
-0.0373752
0.00615819
-0.0364379
-0.0355245
0.00638234
2.85066e-05
-0.081233
0.000109242
-0.0777769
0.000236015
-0.0748205
0.000401623
-0.0722405
0.0005986
-0.0699425
0.000819802
-0.067853
0.00105875
-0.0659173
0.00130979
-0.0640956
0.00156818
-0.0623595
0.00183
-0.0606894
0.00209213
-0.0590723
0.00235216
-0.0574999
0.00260833
-0.0559672
0.00285937
-0.054472
0.0031045
-0.0530132
0.00334336
-0.0515911
0.00357588
-0.0502065
0.0038023
-0.0488605
0.00402311
-0.0475539
0.00423901
-0.0462879
0.00445089
-0.045063
0.00465977
-0.0438794
0.00486683
-0.0427368
0.00507328
-0.0416344
0.00528037
-0.0405709
0.00548931
-0.0395442
0.00570116
-0.0385518
0.00591679
-0.0375909
0.00613673
-0.0366579
-0.035749
0.0063612
2.92175e-05
-0.0812622
0.000111746
-0.0778595
0.000241016
-0.0749497
0.000409413
-0.0724089
0.000609115
-0.0701422
0.000832717
-0.0680766
0.00107358
-0.0661582
0.00132597
-0.064348
0.0015851
-0.0626186
0.00184706
-0.0609514
0.00210877
-0.059334
0.00236786
-0.057759
0.00262259
-0.056222
0.00287178
-0.0547212
0.00311469
-0.0532561
0.00335099
-0.0518274
0.00358066
-0.0504362
0.00380398
-0.0490838
0.00402147
-0.0477714
0.00423387
-0.0465003
0.0044421
-0.0452712
0.00464726
-0.0440845
0.00485057
-0.0429401
0.00505337
-0.0418372
0.00525703
-0.0407745
0.00546288
-0.03975
0.00567214
-0.0387611
0.00588582
-0.0378045
0.0061046
-0.0368767
-0.0359732
0.00632879
2.99095e-05
-0.0812921
0.000114244
-0.0779438
0.000246032
-0.0750815
0.000417197
-0.07258
0.000619536
-0.0703445
0.000845382
-0.0683024
0.00108795
-0.0664007
0.00134143
-0.0646015
0.00160102
-0.0628782
0.00186283
-0.0612132
0.00212381
-0.059595
0.00238163
-0.0580168
0.00263462
-0.056475
0.00288164
-0.0549682
0.003122
-0.0534965
0.0033554
-0.0520608
0.00358188
-0.0506627
0.00380174
-0.0493036
0.00401552
-0.0479852
0.00422398
-0.0467088
0.00442809
-0.0454753
0.00462896
-0.0442854
0.0048279
-0.043139
0.00502632
-0.0420357
0.00522572
-0.0409739
0.00542761
-0.0399519
0.00563339
-0.0389669
0.00584425
-0.0380154
0.00606107
-0.0370935
-0.0361964
0.00628424
3.05807e-05
-0.0813227
0.000116759
-0.07803
0.000251106
-0.0752159
0.000425023
-0.0727539
0.000629899
-0.0705494
0.000857817
-0.0685304
0.00110185
-0.0666448
0.00135616
-0.0648558
0.00161592
-0.063138
0.00187727
-0.0614745
0.0021372
-0.0598549
0.00239345
-0.058273
0.00264438
-0.0567259
0.0028889
-0.0552127
0.00312639
-0.053734
0.00335658
-0.052291
0.00357955
-0.0508857
0.00379561
-0.0495197
0.00400532
-0.0481949
0.00420945
-0.0469129
0.00440896
-0.0456748
0.00460501
-0.0444815
0.00479892
-0.043333
0.0049922
-0.0422289
0.00518646
-0.0411682
0.0053834
-0.0401489
0.00558464
-0.0391681
0.00579162
-0.0382224
0.00600545
-0.0373073
-0.0364176
0.00622665
3.12325e-05
-0.081354
0.000119328
-0.0781181
0.000256309
-0.0753529
0.000432964
-0.0729306
0.000640262
-0.0707567
0.000870049
-0.0687602
0.0011153
-0.06689
0.00137014
-0.0651106
0.00162976
-0.0633976
0.00189034
-0.0617351
0.00214891
-0.0601135
0.00240326
-0.0585274
0.00265182
-0.0569745
0.00289355
-0.0554544
0.00312787
-0.0539683
0.00335457
-0.0525177
0.00357373
-0.0511048
0.0037857
-0.0497317
0.00399103
-0.0484003
0.00419048
-0.0471124
0.00438499
-0.0458693
0.0045757
-0.0446722
0.00476397
-0.0435212
0.00495133
-0.0424163
0.00513952
-0.0413564
0.0053304
-0.0403397
0.00552587
-0.0393636
0.00572766
-0.0384242
0.00593719
-0.0375168
-0.0366356
0.00615521
3.18809e-05
-0.0813858
0.000122029
-0.0782082
0.000261752
-0.0754926
0.000441125
-0.07311
0.000650694
-0.0709662
0.000882113
-0.0689916
0.00112829
-0.0671362
0.00138335
-0.0653657
0.00164251
-0.0636567
0.001902
-0.0619946
0.00215889
-0.0603704
0.00241104
-0.0587795
0.00265694
-0.0572203
0.00289559
-0.0556931
0.00312648
-0.0541992
0.00334942
-0.0527407
0.00356453
-0.0513199
0.00377216
-0.0499393
0.00397286
-0.048601
0.00416736
-0.0473069
0.00435655
-0.0460585
0.00454152
-0.0448571
0.0047236
-0.0437033
0.00490432
-0.042597
0.00508548
-0.0415376
0.00526911
-0.0405234
0.00545737
-0.0395518
0.00565239
-0.0386192
0.00585597
-0.0377204
-0.0368488
0.0060692
3.2568e-05
-0.0814184
0.000124998
-0.0783006
0.000267603
-0.0756352
0.000449645
-0.073292
0.000661283
-0.0711779
0.000894045
-0.0692243
0.00114082
-0.067383
0.00139576
-0.0656206
0.00165414
-0.0639151
0.0019122
-0.0622527
0.00216711
-0.0606253
0.00241676
-0.0590292
0.0026597
-0.0574633
0.00289501
-0.0559284
0.00312222
-0.0544264
0.00334119
-0.0529596
0.00355207
-0.0515308
0.00375519
-0.0501424
0.00395111
-0.0487969
0.00414049
-0.0474962
0.00432416
-0.0462422
0.00450314
-0.0450361
0.00467864
-0.0438788
0.00485211
-0.0427705
0.00502537
-0.0417108
0.00520052
-0.0406985
0.00537998
-0.0397313
0.00556631
-0.0388055
0.00576188
-0.037916
-0.0370552
0.00596823
3.34097e-05
-0.0814518
0.000128478
-0.0783957
0.000274114
-0.0757808
0.000458702
-0.0734766
0.000672124
-0.0713913
0.000905876
-0.0694581
0.00115289
-0.06763
0.00140735
-0.0658751
0.00166458
-0.0641723
0.0019209
-0.062509
0.0021735
-0.0608779
0.00242036
-0.059276
0.00266008
-0.057703
0.00289181
-0.0561601
0.00311514
-0.0546497
0.00332996
-0.0531745
0.00353646
-0.0517373
0.00373499
-0.050341
0.00392607
-0.0489879
0.00411032
-0.0476805
0.00428847
-0.0464204
0.00446141
-0.0452091
0.00463019
-0.0440476
0.00479609
-0.0429364
0.00496078
-0.0418755
0.00512634
-0.0408641
0.00529535
-0.0399003
0.0054708
-0.038981
0.00565577
-0.0381009
-0.037252
0.00585256
3.46637e-05
-0.0814865
0.000132883
-0.0784939
0.00028163
-0.0759296
0.000468504
-0.0736635
0.000683303
-0.0716061
0.000917613
-0.0696924
0.00116445
-0.0678768
0.00141805
-0.0661287
0.00167378
-0.0644281
0.00192802
-0.0627632
0.00217801
-0.0611279
0.00242178
-0.0595198
0.00265803
-0.0579393
0.00288596
-0.0563881
0.00310522
-0.054869
0.00331577
-0.053385
0.00351782
-0.0519393
0.00371174
-0.0505349
0.00389804
-0.0491742
0.0040773
-0.0478597
0.00425015
-0.0465932
0.0044173
-0.0453762
0.0045796
-0.0442099
0.00473806
-0.0430949
0.00489402
-0.0420315
0.00504931
-0.0410194
0.00520643
-0.0400574
0.00536868
-0.0391432
0.00553998
-0.0382722
-0.0374358
0.00572381
3.68312e-05
-0.0815233
0.000138833
-0.0785959
0.000290574
-0.0760813
0.000479251
-0.0738521
0.000694872
-0.0718217
0.000929227
-0.0699268
0.00117543
-0.068123
0.00142777
-0.066381
0.00168165
-0.064682
0.00193346
-0.063015
0.00218053
-0.061375
0.00242095
-0.0597602
0.00265347
-0.0581718
0.00287739
-0.056612
0.00309242
-0.055084
0.00329859
-0.0535912
0.00349616
-0.0521369
0.00368554
-0.0507243
0.00386724
-0.0493559
0.00404179
-0.0480343
0.00420978
-0.0467612
0.00437176
-0.0455382
0.00452833
-0.0443664
0.00468015
-0.0432467
0.00482808
-0.0421794
0.00497338
-0.0411647
0.00511801
-0.040202
0.00526509
-0.0392903
0.0054193
-0.0384265
-0.0376025
0.00558604
4.08437e-05
-0.0815642
0.000147291
-0.0787024
0.000301484
-0.0762355
0.000491131
-0.0740418
0.00070683
-0.0720374
0.000940633
-0.0701606
0.00118572
-0.0683681
0.0014364
-0.0666317
0.00168805
-0.0649336
0.00193711
-0.0632641
0.00218095
-0.0616188
0.00241773
-0.059997
0.00264629
-0.0584003
0.002866
-0.0568317
0.00307665
-0.0552946
0.00327836
-0.0537929
0.00347144
-0.05233
0.00365637
-0.0509092
0.00383369
-0.0495333
0.00400395
-0.0482046
0.00416771
-0.046925
0.00432543
-0.0456959
0.00447753
-0.0445185
0.00462433
-0.0433935
0.00476612
-0.0423212
0.00490331
-0.0413019
0.00503669
-0.0403354
0.00516802
-0.0394216
0.00530168
-0.0385601
-0.0377475
0.00544669
4.91574e-05
-0.0816133
0.00016025
-0.0788135
0.00031516
-0.0763904
0.000504265
-0.0742309
0.000719047
-0.0722522
0.000951643
-0.0703931
0.00119514
-0.0686116
0.00144375
-0.0668803
0.00169283
-0.0651827
0.00193882
-0.0635101
0.00217913
-0.0618591
0.002412
-0.0602299
0.00263634
-0.0586247
0.00285162
-0.057047
0.00305773
-0.0555008
0.00325487
-0.05399
0.00344344
-0.0525186
0.00362401
-0.0510898
0.00379718
-0.0497064
0.00396359
-0.048371
0.00412384
-0.0470852
0.00427844
-0.0458505
0.00442778
-0.0446679
0.00457202
-0.0435377
0.00471109
-0.0424603
0.00484456
-0.0414353
0.0049715
-0.0404624
0.00509031
-0.0395404
0.00520199
-0.0386718
-0.0378669
0.00532137
6.95694e-05
-0.0816829
0.000180694
-0.0789246
0.000331872
-0.0765416
0.000518229
-0.0744172
0.000731058
-0.072465
0.000961884
-0.070624
0.0012034
-0.0688531
0.00144961
-0.0671265
0.0016958
-0.0654289
0.0019384
-0.0637527
0.00217488
-0.0620956
0.00240355
-0.0604585
0.00262341
-0.0588445
0.00283404
-0.0572576
0.00303542
-0.0557021
0.00322784
-0.0541825
0.00341182
-0.0527026
0.00358802
-0.0512659
0.00375716
-0.0498756
0.00392003
-0.0485338
0.00407736
-0.0472425
0.0042299
-0.0460031
0.00437832
-0.0448163
0.00452321
-0.0436826
0.00466497
-0.042602
0.00480362
-0.041574
0.0049379
-0.0405966
0.00506198
-0.0396645
0.00516289
-0.0387727
-0.0379445
0.00524048
0.0828158
5.31895e-05
-0.0828689
0.0827734
4.23239e-05
0.0827348
3.86465e-05
0.0826973
3.75218e-05
0.0826598
3.74695e-05
0.0826219
3.79071e-05
0.0825834
3.85302e-05
0.0825442
3.91907e-05
0.0825043
3.98317e-05
0.0824639
4.04261e-05
0.082423
4.09476e-05
0.0823816
4.13724e-05
0.0823399
4.16959e-05
0.082298
4.19307e-05
0.0822559
4.20843e-05
0.0822137
4.21595e-05
0.0821716
4.21599e-05
0.0821295
4.2087e-05
0.0820875
4.19399e-05
0.0820458
4.17198e-05
0.0820044
4.14237e-05
0.0819633
4.10471e-05
0.0819228
4.05785e-05
0.0818828
4.00016e-05
0.0818435
3.92781e-05
0.0818052
3.8334e-05
0.0817681
3.70079e-05
0.0817332
3.49237e-05
0.0817023
3.09096e-05
1.94294e-05
0.0817582
0.000132126
-0.0818371
0.0816752
0.000125343
0.0815909
0.000122864
0.0815055
0.000122917
0.0814187
0.000124291
0.0813303
0.00012638
0.08124
0.000128814
0.0811478
0.000131355
0.0810538
0.000133884
0.0809579
0.000136314
0.0808603
0.000138549
0.0807611
0.000140534
0.0806606
0.000142241
0.0805588
0.000143683
0.080456
0.000144862
0.0803524
0.00014578
0.0802481
0.00014644
0.0801434
0.000146843
0.0800383
0.000146988
0.0799332
0.000146874
0.0798281
0.000146496
0.0797233
0.000145844
0.079619
0.000144894
0.0795154
0.00014361
0.0794127
0.000141923
0.0793114
0.000139706
0.0792116
0.000136721
0.0791141
0.000132488
0.0790191
0.00012592
0.000113909
0.080533
0.000222429
-0.0806233
0.0804341
0.000224236
0.0803294
0.000227532
0.0802202
0.000232147
0.0801069
0.000237572
0.0799898
0.000243447
0.0798691
0.00024951
0.0797449
0.000255579
0.0796173
0.000261518
0.0794864
0.000267208
0.0793524
0.000272526
0.0792155
0.000277385
0.079076
0.000281752
0.0789341
0.000285616
0.07879
0.000288971
0.078644
0.000291811
0.0784963
0.000294133
0.0783472
0.000295939
0.0781969
0.000297223
0.0780458
0.000297983
0.0778941
0.000298214
0.077742
0.000297899
0.0775899
0.000297014
0.077438
0.000295516
0.0772866
0.000293331
0.077136
0.000290336
0.0769864
0.000286322
0.0768379
0.000280933
0.0766903
0.000273513
0.000262665
0.0791219
0.000313237
-0.0792127
0.0790213
0.000324771
0.0789125
0.000336323
0.0787966
0.000348121
0.0786741
0.000360049
0.0785456
0.000371937
0.0784115
0.000383655
0.078272
0.000395081
0.0781274
0.00040611
0.0779779
0.000416636
0.0778239
0.000426518
0.0776657
0.000435671
0.0775033
0.000444075
0.0773373
0.00045169
0.0771677
0.000458498
0.0769951
0.000464484
0.0768195
0.000469643
0.0766415
0.000473966
0.0764613
0.000477453
0.0762792
0.000480096
0.0760955
0.000481889
0.0759106
0.000482819
0.0757247
0.000482864
0.0755383
0.000481986
0.0753515
0.000480127
0.0751646
0.000477191
0.0749779
0.000473036
0.0747914
0.000467439
0.0746049
0.00046005
0.000450273
0.0775342
0.000395354
-0.0776163
0.0774416
0.000417391
0.0773392
0.000438695
0.0772278
0.000459508
0.077108
0.000479841
0.0769803
0.000499624
0.0768452
0.000518798
0.076703
0.000537302
0.076554
0.000555055
0.0763987
0.00057194
0.0762374
0.000587858
0.0760703
0.000602746
0.0758978
0.000616557
0.0757203
0.000629249
0.075538
0.000640797
0.0753513
0.000651181
0.0751605
0.000660389
0.0749661
0.00066841
0.0747683
0.000675239
0.0745675
0.000680871
0.0743641
0.000685298
0.0741584
0.000688511
0.0739508
0.000690495
0.0737415
0.000691225
0.073531
0.000690663
0.0733194
0.00068875
0.0731071
0.000685405
0.072894
0.000680512
0.0726801
0.000673913
0.000665383
0.0757924
0.00046254
-0.0758596
0.075714
0.000495817
0.0756248
0.000527927
0.0755252
0.000559038
0.0754159
0.000589177
0.0752972
0.000618304
0.0751696
0.000646401
0.0750335
0.000673438
0.0748892
0.000699321
0.0747372
0.000723958
0.0745778
0.000747273
0.0744113
0.000769194
0.0742382
0.000789679
0.0740588
0.00080869
0.0738734
0.000826195
0.0736824
0.00084217
0.0734862
0.000856597
0.0732851
0.000869464
0.0730796
0.000880761
0.07287
0.000890483
0.0726567
0.000898623
0.07244
0.000905179
0.0722203
0.000910141
0.0719981
0.0009135
0.0717735
0.00091524
0.0715469
0.000915335
0.0713186
0.000913754
0.0710886
0.000910457
0.0708571
0.0009054
0.000898529
0.0739272
0.000511178
-0.0739758
0.0738667
0.00055634
0.0737946
0.000600038
0.0737112
0.000642364
0.0736171
0.000683326
0.0735125
0.000722888
0.0733979
0.000761029
0.0732736
0.000797736
0.07314
0.000832922
0.0729975
0.000866462
0.0728465
0.000898298
0.0726873
0.000928372
0.0725203
0.000956646
0.0723459
0.000983077
0.0721645
0.00100763
0.0719764
0.00103027
0.071782
0.00105099
0.0715817
0.00106975
0.0713759
0.00108656
0.071165
0.0011014
0.0709493
0.00111428
0.0707293
0.00112518
0.0705054
0.00113411
0.0702778
0.00114108
0.0700469
0.00114609
0.0698131
0.00114913
0.0695767
0.00115022
0.0693378
0.00114937
0.0690965
0.0011466
0.00114194
0.0719724
0.000539678
-0.0720009
0.0719315
0.00059723
0.0718784
0.000653087
0.0718135
0.000707286
0.071737
0.000759809
0.0716493
0.000810591
0.0715507
0.000859628
0.0714416
0.000906868
0.0713223
0.000952202
0.0711932
0.000995535
0.0710547
0.0010368
0.0709072
0.00107595
0.0707509
0.00111294
0.0705862
0.00114772
0.0704136
0.00118025
0.0702334
0.00121049
0.0700459
0.00123841
0.0698517
0.001264
0.069651
0.00128724
0.0694443
0.00130812
0.0692319
0.00132663
0.0690143
0.00134279
0.0687918
0.0013566
0.0685649
0.00136807
0.0683337
0.00137722
0.0680988
0.00138407
0.0678603
0.00138867
0.0676187
0.00139105
0.067374
0.00139128
0.00138942
0.0699614
0.000547941
-0.0699696
0.0699403
0.000618238
0.0699068
0.00068665
0.0698609
0.000753174
0.0698029
0.000817759
0.0697332
0.000880338
0.069652
0.000940844
0.0695596
0.000999209
0.0694565
0.00105534
0.0693429
0.00110912
0.0692192
0.00116051
0.0690857
0.00120946
0.0689427
0.00125591
0.0687907
0.00129978
0.0686299
0.00134103
0.0684608
0.00137962
0.0682837
0.00141552
0.068099
0.00144869
0.0679071
0.00147913
0.0677084
0.00150682
0.0675032
0.00153176
0.0672921
0.00155396
0.0670753
0.00157341
0.0668532
0.00159016
0.0666262
0.00160422
0.0663946
0.00161564
0.0661588
0.00162448
0.0659191
0.00163079
0.0656757
0.00163468
0.00163622
0.0679252
0.000536919
-0.0679141
0.0679232
0.000620178
0.0679085
0.000701386
0.0678811
0.000780513
0.0678414
0.000857486
0.0677896
0.000932203
0.0677258
0.00100457
0.0676506
0.00107449
0.0675641
0.00114184
0.0674666
0.00120655
0.0673585
0.00126859
0.0672401
0.00132787
0.0671117
0.00138431
0.0669737
0.00143782
0.0668263
0.00148837
0.0666701
0.0015359
0.0665052
0.00158036
0.0663322
0.00162174
0.0661513
0.00166
0.065963
0.00169513
0.0657676
0.00172713
0.0655656
0.001756
0.0653573
0.00178175
0.065143
0.00180442
0.0649232
0.00182404
0.0646982
0.00184066
0.0644683
0.00185435
0.0642339
0.0018652
0.0639953
0.00187331
0.00187879
0.0658911
0.000508262
-0.0658625
0.0659067
0.000604581
0.0659094
0.000698703
0.0658994
0.000790572
0.0658768
0.000880091
0.0658418
0.000967142
0.0657948
0.0010516
0.065736
0.00113331
0.0656656
0.0012122
0.0655839
0.00128821
0.0654913
0.00136123
0.065388
0.00143118
0.0652743
0.00149797
0.0651506
0.00156153
0.0650172
0.00162178
0.0648745
0.00167866
0.0647227
0.00173214
0.0645622
0.00178217
0.0643935
0.00182872
0.0642169
0.00187178
0.0640327
0.00191133
0.0638413
0.00194737
0.0636431
0.00197993
0.0634385
0.00200903
0.0632278
0.00203471
0.0630115
0.00205704
0.0627897
0.0020761
0.0625629
0.00209197
0.0623315
0.00210479
0.00211467
0.0638825
0.000464051
-0.0638383
0.0639136
0.000573435
0.0639319
0.000680488
0.0639373
0.000785131
0.0639301
0.000887242
0.0639106
0.000986701
0.0638788
0.00108335
0.0638351
0.00117702
0.0637797
0.00126764
0.0637128
0.0013551
0.0636347
0.00143929
0.0635458
0.00152012
0.0634463
0.0015975
0.0633365
0.00167133
0.0632167
0.00174155
0.0630873
0.00180808
0.0629485
0.00187087
0.0628008
0.00192987
0.0626445
0.00198505
0.0624799
0.00203637
0.0623074
0.00208383
0.0621274
0.00212742
0.0619401
0.00216716
0.0617461
0.00220307
0.0615456
0.00223521
0.061339
0.00226363
0.0611267
0.00228843
0.0609089
0.00230971
0.0606861
0.0023276
0.00234224
0.0619182
0.000406586
-0.0618607
0.0619626
0.000528972
0.0619942
0.000648904
0.0620131
0.000766275
0.0620194
0.000880945
0.0620133
0.000992795
0.061995
0.00110167
0.0619646
0.00120735
0.0619225
0.00130973
0.061869
0.00140868
0.0618041
0.00150412
0.0617283
0.00159592
0.0616418
0.001684
0.0615449
0.00176824
0.0614379
0.00184858
0.0613211
0.00192492
0.0611947
0.0019972
0.0610593
0.00206537
0.0609149
0.00212937
0.0607621
0.00218918
0.0606012
0.00224478
0.0604324
0.00229617
0.0602562
0.00234334
0.060073
0.00238633
0.059883
0.00242519
0.0596867
0.00245998
0.0594843
0.00249078
0.0592763
0.00251773
0.0590629
0.00254096
0.00256062
0.060013
0.000338238
-0.0599447
0.0600685
0.000473519
0.0601112
0.000606228
0.0601412
0.000736234
0.0601588
0.00086339
0.060164
0.000987549
0.0601571
0.00110856
0.0601383
0.0012262
0.0601077
0.00134027
0.0600657
0.00145069
0.0600125
0.00155735
0.0599483
0.00166014
0.0598733
0.00175893
0.0597879
0.00185363
0.0596924
0.00194412
0.059587
0.00203033
0.059472
0.00211218
0.0593478
0.0021896
0.0592146
0.00226254
0.0590728
0.00233095
0.0589228
0.00239482
0.0587648
0.00245413
0.0585993
0.00250889
0.0584265
0.00255911
0.0582468
0.00260485
0.0580607
0.00264616
0.0578683
0.00268314
0.0576701
0.00271591
0.0574665
0.00274463
0.00276947
0.0581783
0.000261343
-0.0581014
0.0582424
0.000409379
0.0582939
0.000554732
0.0583329
0.000697256
0.0583595
0.000836764
0.058374
0.000973133
0.0583764
0.00110615
0.058367
0.00123555
0.0583461
0.0013612
0.0583138
0.00148299
0.0582703
0.0016008
0.058216
0.00171451