/*--------------------------------*- C++ -*----------------------------------*\
  =========                 |
  \\      /  F ield         | OpenFOAM: The Open Source CFD Toolbox
   \\    /   O peration     | Website:  https://openfoam.org
    \\  /    A nd           | Version:  6.0
     \\/     M anipulation  |
\*---------------------------------------------------------------------------*/
FoamFile
{
    version     2.0;
    format      ascii;
    class       volScalarField;
    location    "17.25";
    object      p;
}
// * * * * * * * * * * * * * * * * * * * * * * * * * * * * * * * * * * * * * //

dimensions      [0 2 -2 0 0 0 0];

internalField   nonuniform List<scalar> 
2400
(
-6.84598
-5
-4.00065
-3.34507
-2.80313
-2.35406
-1.98508
-1.67888
-1.42199
-1.20872
-7.39637
-5.51089
-4.46466
-3.76307
-3.17887
-2.69257
-2.29167
-1.95838
-1.6783
-1.44588
-7.96399
-6.03503
-4.93846
-4.188
-3.55924
-3.03405
-2.60014
-2.23909
-1.93552
-1.68408
-8.54294
-6.56727
-5.41704
-4.61489
-3.93946
-3.37397
-2.90622
-2.51703
-2.18995
-1.92001
-9.12714
-7.10197
-5.89502
-5.03862
-4.31465
-3.70767
-3.20548
-2.78794
-2.43754
-2.14979
-9.71061
-7.6334
-6.36698
-5.45405
-4.68003
-4.03074
-3.49377
-3.04787
-2.67431
-2.36894
-10.2878
-8.15597
-6.82754
-5.85618
-5.03103
-4.33912
-3.76763
-3.29382
-2.89733
-2.57429
-10.8541
-8.66463
-7.27155
-6.24005
-5.36294
-4.62839
-4.02293
-3.52206
-3.10384
-2.76707
-11.4054
-9.15481
-7.6945
-6.60142
-5.67162
-4.8938
-4.25339
-3.72425
-3.286
-2.94604
-11.9331
-9.62134
-8.09313
-6.93819
-5.95571
-5.13396
-4.45611
-3.89456
-3.43338
-3.08267
-15.0727
-14.9798
-14.8272
-14.6207
-14.3626
-14.056
-13.7045
-13.312
-12.8832
-12.4223
-12.2592
-12.2039
-12.0948
-11.9348
-11.7262
-11.4716
-11.1741
-10.8372
-10.4644
-10.0582
-10.2091
-10.1857
-10.1152
-9.99884
-9.83853
-9.63659
-9.39563
-9.11833
-8.80741
-8.46497
-8.64063
-8.63493
-8.58839
-8.50182
-8.37679
-8.2153
-8.01961
-7.79201
-7.53485
-7.24979
-7.36294
-7.36385
-7.32939
-7.26022
-7.15775
-7.02379
-6.86054
-6.67019
-6.45516
-6.21671
-6.33829
-6.33961
-6.30989
-6.24983
-6.16075
-6.0444
-5.90307
-5.73909
-5.55546
-5.3533
-5.52088
-5.51985
-5.49112
-5.43541
-5.35399
-5.24855
-5.12159
-4.9756
-4.81476
-4.64015
-4.86132
-4.85744
-4.82837
-4.7748
-4.69791
-4.59926
-4.48151
-4.34737
-4.20293
-4.04832
-4.32024
-4.31442
-4.28548
-4.23406
-4.16107
-4.06782
-3.95681
-3.8308
-3.69916
-3.56045
-3.87526
-3.86589
-3.83593
-3.78588
-3.71625
-3.62795
-3.52246
-3.40187
-3.2771
-3.15395
-12.7624
-13.2187
-13.6325
-14.0037
-14.3268
-14.597
-14.8107
-14.9659
-15.0614
-15.097
-9.92447
-10.3583
-10.7568
-11.1166
-11.4332
-11.7024
-11.9213
-12.0877
-12.2003
-12.2576
-7.94528
-8.34429
-8.71424
-9.0504
-9.34883
-9.60636
-9.82047
-9.98914
-10.1109
-10.1844
-6.54001
-6.89968
-7.23462
-7.53999
-7.8123
-8.04902
-8.24815
-8.40797
-8.52722
-8.60496
-5.46678
-5.78883
-6.08908
-6.36273
-6.60675
-6.81917
-6.99845
-7.1433
-7.25275
-7.32612
-4.64666
-4.93656
-5.20598
-5.45036
-5.66757
-5.85623
-6.01514
-6.14341
-6.24033
-6.30541
-4.01086
-4.27597
-4.5203
-4.73926
-4.93272
-5.10009
-5.24043
-5.35312
-5.43767
-5.49369
-3.50115
-3.74576
-3.97128
-4.16984
-4.3435
-4.49296
-4.61774
-4.71737
-4.79141
-4.83949
-3.09519
-3.31223
-3.51985
-3.70291
-3.86042
-3.99444
-4.10603
-4.19496
-4.2606
-4.30245
-2.83941
-3.01928
-3.18925
-3.35277
-3.49207
-3.60659
-3.70086
-3.77576
-3.83024
-3.86351
-0.522946
-0.665648
-0.855424
-1.09963
-1.42551
-1.87742
-2.51397
-3.41877
-4.87009
-7.26202
-0.73095
-0.894319
-1.10413
-1.37222
-1.72707
-2.21392
-2.89263
-3.84741
-5.35375
-7.79322
-0.946486
-1.13138
-1.36194
-1.65489
-2.03991
-2.56305
-3.28534
-4.29138
-5.85336
-8.33986
-1.1688
-1.37566
-1.62734
-1.94589
-2.36198
-2.92239
-3.68927
-4.7475
-6.36596
-8.9004
-1.3973
-1.62607
-1.89883
-2.24336
-2.69111
-3.28945
-4.10158
-5.21243
-6.88748
-9.46992
-1.63159
-1.88151
-2.17475
-2.54525
-3.02487
-3.66144
-4.51902
-5.6824
-7.41335
-10.0428
-1.87098
-2.14037
-2.45287
-2.84897
-3.36036
-4.03508
-4.93791
-6.15319
-7.93871
-10.6137
-2.11459
-2.40039
-2.73012
-3.15127
-3.69422
-4.40671
-5.35413
-6.62013
-8.45838
-11.1767
-2.35865
-2.6563
-3.00139
-3.44798
-4.02253
-4.77217
-5.76312
-7.07821
-8.96694
-11.7265
-2.59807
-2.89551
-3.25954
-3.73526
-4.34149
-5.12718
-6.16014
-7.52187
-9.45794
-12.2573
0.935135
0.919154
0.874067
0.797755
0.672614
0.467102
0.137486
-0.387362
-1.3979
-3.39053
0.857863
0.834067
0.77522
0.687008
0.549341
0.327862
-0.0227203
-0.574572
-1.61672
-3.63666
0.761459
0.729358
0.658967
0.558532
0.406727
0.167406
-0.206237
-0.787503
-1.86367
-3.91229
0.646478
0.606126
0.524808
0.411267
0.243777
-0.0151055
-0.413753
-1.02681
-2.14024
-4.22162
0.516374
0.466623
0.373546
0.245524
0.0605975
-0.219793
-0.6456
-1.2929
-2.44663
-4.56431
0.372544
0.311692
0.20565
0.0617335
-0.142402
-0.446354
-0.901624
-1.58571
-2.78255
-4.9394
0.21582
0.142002
0.0217099
-0.13951
-0.364616
-0.694205
-1.18129
-1.90474
-3.14744
-5.34605
0.0470056
-0.041605
-0.177448
-0.357386
-0.605213
-0.962498
-1.48372
-2.24911
-3.54037
-5.78323
-0.133029
-0.238151
-0.390812
-0.590863
-0.863119
-1.2501
-1.80773
-2.61752
-3.96
-6.24964
-0.323355
-0.446576
-0.617263
-0.838779
-1.13711
-1.5557
-2.15185
-3.00823
-4.40423
-6.74351
1.02782
1.10985
1.15942
1.19139
1.20978
1.21685
1.21476
1.20537
1.19023
1.17057
0.995052
1.07525
1.13097
1.16856
1.19094
1.20066
1.2001
1.19131
1.17602
1.15555
0.961228
1.03936
1.0973
1.13773
1.16247
1.17391
1.1744
1.16601
1.1505
1.12919
0.894236
0.975971
1.03848
1.08317
1.11159
1.12596
1.12856
1.12145
1.10641
1.08476
0.778711
0.867856
0.93761
0.988788
1.02288
1.04198
1.04829
1.04388
1.03052
1.00952
0.586453
0.686791
0.766838
0.827352
0.869791
0.896151
0.908559
0.909048
0.899385
0.880851
0.275144
0.391628
0.486415
0.560446
0.615206
0.65262
0.674752
0.683603
0.680931
0.66795
-0.225221
-0.0863684
0.0290963
0.122241
0.194648
0.248254
0.285114
0.307201
0.316239
0.313403
-1.20458
-1.03698
-0.894989
-0.777386
-0.682247
-0.607443
-0.550827
-0.510502
-0.484863
-0.472304
-3.16327
-2.9665
-2.79894
-2.65806
-2.54123
-2.44597
-2.36999
-2.3116
-2.2694
-2.24027
1.14718
1.12062
1.09087
1.05759
1.02017
0.977822
0.929797
0.876081
0.821322
0.763622
1.1308
1.10238
1.07028
1.03414
0.993284
0.946807
0.893525
0.832914
0.768013
0.691584
1.10294
1.07239
1.03742
0.997621
0.952229
0.900187
0.840093
0.770848
0.692818
0.599052
1.05732
1.02478
0.986924
0.94331
0.893096
0.835114
0.767875
0.689974
0.600086
0.491992
0.981667
0.947712
0.907373
0.860158
0.805155
0.741092
0.666385
0.579358
0.47782
0.356504
0.854169
0.820181
0.778491
0.728562
0.669396
0.599601
0.517456
0.421023
0.307724
0.173244
0.64528
0.613888
0.573237
0.522707
0.461185
0.387141
0.298702
0.193705
0.069456
-0.0776715
0.299286
0.274954
0.239683
0.192676
0.132666
0.05797
-0.0334614
-0.144004
-0.27643
-0.433942
-0.471185
-0.481666
-0.504706
-0.541349
-0.593014
-0.661603
-0.749459
-0.85944
-0.994698
-1.15766
-2.21803
-2.20944
-2.2151
-2.23579
-2.27304
-2.3291
-2.4069
-2.51027
-2.64321
-2.80598
-2.99224
-1.34923
-0.619171
-0.250702
0.0136704
0.209339
0.35472
0.466751
0.552875
0.608221
-3.21461
-1.57136
-0.831957
-0.449106
-0.169411
0.0404622
0.197882
0.318711
0.409297
0.471464
-3.47429
-1.82572
-1.07336
-0.673265
-0.375628
-0.148979
0.023259
0.156775
0.258871
0.334667
-3.77145
-2.11302
-1.3437
-0.923118
-0.604637
-0.358446
-0.168589
-0.0192771
0.0977807
0.18882
-4.10608
-2.43344
-1.64311
-1.19871
-0.856481
-0.588116
-0.378205
-0.210829
-0.0769127
0.029985
-4.47802
-2.78677
-1.97142
-1.4999
-1.13109
-0.838104
-0.606051
-0.418878
-0.266832
-0.143568
-4.88669
-3.17237
-2.32799
-1.82608
-1.42794
-1.10804
-0.851968
-0.643533
-0.472313
-0.332133
-5.3312
-3.58905
-2.71154
-2.17601
-1.74586
-1.39683
-1.11498
-0.883936
-0.692588
-0.534906
-5.80987
-4.03492
-3.12008
-2.54769
-2.08288
-1.70257
-1.39326
-1.13835
-0.925969
-0.75022
-6.31793
-4.50679
-3.55092
-2.93847
-2.4364
-2.02272
-1.68434
-1.40433
-1.17008
-0.975764
-0.676218
-0.239062
-0.0970486
-0.0166584
0.0179935
0.0283333
0.0265654
0.0184731
0.00797631
-0.00286099
-0.0133793
-0.021092
-0.0295925
-0.0315021
-0.0372275
-0.0337079
-0.0306586
-0.0284229
0.00215031
0.00583572
-0.875275
-0.348826
-0.166486
-0.0655665
-0.0162962
0.00340142
0.00800879
0.00449131
-0.00261087
-0.0108582
-0.0193855
-0.0255682
-0.0328782
-0.0339315
-0.0389513
-0.0350584
-0.0316334
-0.0288056
0.00180425
0.00558605
-1.07734
-0.464633
-0.237425
-0.114942
-0.0507084
-0.0213318
-0.0102439
-0.00917261
-0.0129072
-0.0186081
-0.0251929
-0.0298909
-0.0360472
-0.0362794
-0.0406128
-0.0363737
-0.0325707
-0.0291618
0.00141865
0.00532627
-1.28081
-0.58633
-0.310163
-0.164888
-0.0853797
-0.0459789
-0.0282624
-0.0225631
-0.0229418
-0.02613
-0.0308141
-0.0340682
-0.0391054
-0.0385491
-0.0422144
-0.037653
-0.0334726
-0.0294951
0.000997488
0.0050589
-1.48201
-0.711267
-0.38351
-0.214831
-0.120146
-0.070529
-0.0460627
-0.0356992
-0.0327311
-0.0334362
-0.0362583
-0.0381065
-0.0420563
-0.040743
-0.0437567
-0.0388947
-0.034339
-0.0298046
0.000540266
0.00478167
-1.67422
-0.835912
-0.456407
-0.264311
-0.154812
-0.0949114
-0.063615
-0.0485708
-0.0422742
-0.0405293
-0.0415283
-0.0420086
-0.0449022
-0.0428627
-0.0452406
-0.0400973
-0.0351711
-0.0300922
5.09391e-05
0.00449632
-1.85898
-0.968304
-0.535359
-0.316555
-0.190728
-0.119712
-0.0811856
-0.0613092
-0.0516427
-0.0474516
-0.046651
-0.0457915
-0.0476551
-0.0449153
-0.0466722
-0.0412638
-0.0359734
-0.0303616
-0.000467727
0.00420311
-2.06562
-1.1354
-0.63651
-0.379547
-0.231731
-0.146883
-0.0997947
-0.0744654
-0.0611488
-0.054387
-0.0517403
-0.0495247
-0.0503634
-0.0469299
-0.0480752
-0.0424125
-0.0367638
-0.0306281
-0.00101366
0.00390338
-2.29927
-1.3291
-0.753565
-0.450456
-0.277311
-0.176654
-0.119729
-0.0882531
-0.0709363
-0.0614268
-0.0568525
-0.0532429
-0.0530466
-0.048921
-0.0494551
-0.0435474
-0.0375432
-0.0308931
-0.00158928
0.00359655
-2.37383
-1.41636
-0.811466
-0.491513
-0.308965
-0.199513
-0.135827
-0.0997433
-0.0792638
-0.0674993
-0.061293
-0.0565111
-0.0553792
-0.0506927
-0.0506318
-0.0445078
-0.0381635
-0.0310198
-0.00219197
0.00327369
-2.20394
-1.37505
-0.796526
-0.494404
-0.322
-0.213098
-0.147046
-0.108637
-0.0862327
-0.0729043
-0.0654004
-0.0597068
-0.0576104
-0.052526
-0.0517057
-0.0453507
-0.0385825
-0.0307921
-0.00307272
0.00279289
-1.99609
-1.33144
-0.807005
-0.518408
-0.352994
-0.243056
-0.171676
-0.127931
-0.101126
-0.0842255
-0.0738041
-0.065975
-0.0619885
-0.055824
-0.0537801
-0.0468911
-0.0394884
-0.0307205
-0.0040655
0.00225791
-1.74667
-1.25537
-0.80781
-0.535806
-0.378308
-0.27121
-0.196824
-0.148373
-0.117269
-0.0967067
-0.0831624
-0.0729793
-0.0668895
-0.0594788
-0.0560742
-0.0485297
-0.0404297
-0.0306049
-0.00510959
0.00168645
-1.49181
-1.15189
-0.794971
-0.548932
-0.399326
-0.296494
-0.22115
-0.168825
-0.133646
-0.109509
-0.0928361
-0.0802455
-0.0719627
-0.0632572
-0.0583889
-0.0501157
-0.0412704
-0.0303851
-0.00628816
0.0010631
-1.26318
-1.03381
-0.765461
-0.555002
-0.415584
-0.317847
-0.243608
-0.188773
-0.149987
-0.122443
-0.102703
-0.087682
-0.0771541
-0.0670998
-0.0606808
-0.0516041
-0.0419784
-0.0300862
-0.00758349
0.000408887
-1.07045
-0.91658
-0.723486
-0.553195
-0.42742
-0.335138
-0.263181
-0.207311
-0.165693
-0.135073
-0.112453
-0.0950661
-0.0823238
-0.0708865
-0.0628764
-0.0529311
-0.0425169
-0.0297308
-0.00893533
-0.000251599
-0.919592
-0.813837
-0.677103
-0.544283
-0.434592
-0.348379
-0.279179
-0.223459
-0.179982
-0.146805
-0.121621
-0.102047
-0.0872319
-0.0744309
-0.0648627
-0.0540192
-0.0428478
-0.0293381
-0.010264
-0.000893895
-0.809632
-0.732664
-0.634029
-0.531131
-0.43735
-0.357731
-0.291376
-0.236457
-0.192033
-0.156961
-0.129662
-0.108197
-0.0915752
-0.0775144
-0.0665202
-0.0548134
-0.0429649
-0.0289414
-0.0114675
-0.00148646
-0.736435
-0.675753
-0.600382
-0.51801
-0.437063
-0.363539
-0.299778
-0.245798
-0.201052
-0.16478
-0.135938
-0.113017
-0.0949891
-0.0798974
-0.0677389
-0.0553111
-0.042916
-0.028602
-0.0124213
-0.00197794
-0.69784
-0.644774
-0.580905
-0.509416
-0.435989
-0.366416
-0.304368
-0.251031
-0.206237
-0.169376
-0.139668
-0.115889
-0.097021
-0.0813035
-0.0684118
-0.0555625
-0.0428069
-0.0284068
-0.0129902
-0.00227995
-3.28315
-3.25603
-3.21255
-3.1531
-3.07764
-2.9865
-2.87862
-2.75612
-2.61702
-2.50902
-2.63818
-2.60873
-2.5693
-2.52104
-2.46481
-2.40233
-2.3349
-2.2687
-2.20382
-2.16791
-2.13493
-2.11258
-2.0859
-2.0562
-2.0244
-1.99152
-1.95732
-1.92268
-1.88327
-1.8535
-1.73765
-1.72264
-1.70518
-1.68572
-1.66434
-1.64104
-1.61546
-1.58847
-1.56021
-1.54065
-1.42882
-1.41817
-1.40558
-1.39131
-1.37563
-1.35889
-1.34145
-1.32397
-1.30654
-1.29261
-1.19627
-1.18887
-1.18001
-1.16989
-1.15872
-1.14667
-1.13388
-1.12049
-1.10662
-1.09373
-1.0262
-1.0208
-1.01411
-1.00624
-0.997306
-0.987437
-0.976766
-0.965441
-0.95362
-0.941893
-0.906444
-0.902216
-0.896807
-0.890291
-0.882762
-0.874314
-0.865049
-0.855069
-0.844467
-0.833516
-0.828161
-0.824566
-0.819871
-0.814128
-0.807404
-0.799771
-0.791307
-0.782095
-0.772213
-0.761807
-0.787532
-0.784261
-0.779946
-0.774622
-0.768332
-0.761126
-0.753057
-0.744184
-0.734567
-0.724273
-2.67085
-2.84137
-2.89662
-2.99808
-3.09708
-3.16889
-3.22192
-3.26122
-3.28554
-3.29312
-2.37483
-2.50371
-2.47586
-2.50498
-2.56861
-2.6154
-2.64164
-2.65652
-2.66198
-2.65619
-2.02777
-2.12579
-2.07734
-2.0723
-2.11247
-2.14736
-2.16225
-2.165
-2.16129
-2.15144
-1.69384
-1.77057
-1.72961
-1.71229
-1.73302
-1.75642
-1.76568
-1.76439
-1.75846
-1.74963
-1.4083
-1.46378
-1.43863
-1.42239
-1.43076
-1.44423
-1.45016
-1.44887
-1.44406
-1.43739
-1.17759
-1.2132
-1.20215
-1.1935
-1.19757
-1.20523
-1.20934
-1.20921
-1.20646
-1.20211
-1.00192
-1.02384
-1.02241
-1.02115
-1.02504
-1.03019
-1.03339
-1.0341
-1.0329
-1.03024
-0.878566
-0.892907
-0.896555
-0.899459
-0.903706
-0.907802
-0.910505
-0.911568
-0.911162
-0.909437
-0.800441
-0.810874
-0.816408
-0.820809
-0.825005
-0.828519
-0.830895
-0.832014
-0.831908
-0.830617
-0.760862
-0.769663
-0.775683
-0.780409
-0.784422
-0.787615
-0.789793
-0.790874
-0.790851
-0.789734
-0.0603652
-0.0672521
-0.0828316
-0.112605
-0.159432
-0.241804
-0.366778
-0.6061
-0.973758
-1.85587
-0.103568
-0.111759
-0.129538
-0.162829
-0.21452
-0.303616
-0.435246
-0.681704
-1.04178
-1.78115
-0.151099
-0.16008
-0.179276
-0.214596
-0.268334
-0.358514
-0.486721
-0.71266
-1.0253
-1.55593
-0.20244
-0.211956
-0.232233
-0.26847
-0.322806
-0.409083
-0.529418
-0.716038
-0.975006
-1.33634
-0.256395
-0.266036
-0.286844
-0.322518
-0.375861
-0.453786
-0.563016
-0.707661
-0.914975
-1.16235
-0.31097
-0.320231
-0.340698
-0.37422
-0.424275
-0.491438
-0.585561
-0.696068
-0.852992
-1.02399
-0.363305
-0.371802
-0.39089
-0.421084
-0.465482
-0.521796
-0.598205
-0.683213
-0.795268
-0.911505
-0.409832
-0.417395
-0.43428
-0.460562
-0.49807
-0.544555
-0.604044
-0.669323
-0.747018
-0.824931
-0.446471
-0.453108
-0.467593
-0.490073
-0.521202
-0.559518
-0.605832
-0.656371
-0.711745
-0.766001
-0.468338
-0.474309
-0.48707
-0.506901
-0.533881
-0.566998
-0.605698
-0.647714
-0.691804
-0.734624
0.194748
0.194798
0.195395
0.194451
0.191105
0.180339
0.155994
0.106391
-0.00540665
-0.210272
0.169214
0.168589
0.167516
0.163766
0.156232
0.13906
0.104822
0.0401478
-0.0996798
-0.348899
0.143729
0.142441
0.139721
0.133159
0.121452
0.0977294
0.0535914
-0.0267886
-0.195141
-0.490628
0.118369
0.116435
0.112113
0.102748
0.0869018
0.056487
0.00252603
-0.0943028
-0.291269
-0.635297
0.0932022
0.0906525
0.0847849
0.0726431
0.052708
0.0154626
-0.0481751
-0.162341
-0.387469
-0.783213
0.0682947
0.0651682
0.0578242
0.042947
0.0189793
-0.0252193
-0.0983494
-0.230896
-0.483074
-0.935388
0.0437087
0.0400627
0.0313256
0.0137731
-0.0141743
-0.0654231
-0.147877
-0.29996
-0.577392
-1.09368
0.0195041
0.0154322
0.00541654
-0.0147235
-0.0466037
-0.104975
-0.196692
-0.369482
-0.669816
-1.26145
-0.00429189
-0.0087049
-0.0198873
-0.0425228
-0.0783211
-0.143866
-0.245008
-0.439664
-0.760426
-1.44057
-0.0277603
-0.0327077
-0.0452085
-0.0704065
-0.110275
-0.182837
-0.293644
-0.510423
-0.853593
-1.64882
0.436811
0.442408
0.45747
0.481729
0.516476
0.562277
0.623127
0.697238
0.798803
0.883294
0.414548
0.419572
0.433355
0.455197
0.486306
0.526674
0.580095
0.642929
0.729748
0.800779
0.391804
0.39648
0.409117
0.428677
0.456221
0.491126
0.536639
0.587525
0.657165
0.714048
0.368524
0.372807
0.384244
0.401562
0.425677
0.455432
0.493474
0.53355
0.58609
0.623151
0.344732
0.348531
0.358641
0.373611
0.394187
0.418718
0.449104
0.478289
0.512081
0.523851
0.320485
0.323737
0.332413
0.344913
0.361777
0.380854
0.40305
0.42058
0.433562
0.416405
0.295846
0.298508
0.305666
0.315602
0.328607
0.342024
0.355535
0.360713
0.351261
0.302106
0.27088
0.272919
0.278492
0.285789
0.294819
0.302411
0.306856
0.299132
0.265887
0.181701
0.245658
0.247049
0.250988
0.255582
0.260545
0.262163
0.257235
0.236089
0.177777
0.0557236
0.220255
0.220979
0.223253
0.225096
0.225925
0.221422
0.206873
0.171771
0.087218
-0.0751865
0.822402
0.827152
0.836906
0.851552
0.870202
0.891434
0.913657
0.935169
0.954466
0.969855
0.80462
0.810123
0.821478
0.83857
0.860489
0.885756
0.912696
0.939321
0.96394
0.984145
0.774476
0.781065
0.794737
0.81546
0.84238
0.874026
0.908662
0.943902
0.977737
1.00639
0.735646
0.743309
0.759339
0.783891
0.816307
0.855285
0.899205
0.945357
0.991379
1.0314
0.691267
0.699764
0.717715
0.745545
0.782917
0.828907
0.882311
0.940396
1.00065
1.05441
0.64415
0.653109
0.672272
0.702339
0.743361
0.794966
0.856698
0.926255
1.00157
1.07064
0.596669
0.605692
0.625278
0.656325
0.699273
0.754349
0.822102
0.901055
0.990562
1.075
0.55066
0.559415
0.578739
0.609557
0.652633
0.708696
0.779377
0.86412
0.964885
1.062
0.507367
0.515628
0.534234
0.563888
0.60558
0.660276
0.730557
0.816331
0.923239
1.02645
0.467418
0.474728
0.49205
0.519621
0.55861
0.609912
0.676848
0.758736
0.865034
0.964549
0.976799
0.978882
0.980198
0.981099
0.981641
0.981773
0.981461
0.980699
0.979487
0.977824
0.994379
0.996928
0.997925
0.99856
0.998974
0.998999
0.998544
0.997604
0.996191
0.994306
1.02276
1.02624
1.02673
1.02693
1.02714
1.02698
1.02626
1.02501
1.02324
1.02097
1.05663
1.06156
1.06154
1.06127
1.06126
1.06084
1.05974
1.05801
1.0557
1.05284
1.09154
1.09867
1.09845
1.09789
1.09771
1.09698
1.09537
1.09297
1.08988
1.08615
1.12355
1.13402
1.13436
1.13395
1.13379
1.13271
1.13041
1.12706
1.12285
1.11787
1.14871
1.16427
1.16661
1.16724
1.1675
1.16612
1.16292
1.15825
1.15238
1.14549
1.16235
1.18564
1.19245
1.19577
1.19721
1.19573
1.19148
1.18504
1.17685
1.16726
1.15865
1.19161
1.2062
1.2149
1.21929
1.2188
1.21396
1.20562
1.19448
1.18109
1.14108
1.19194
1.21891
1.23392
1.24045
1.23933
1.23193
1.21956
1.20328
1.18383
0.975711
0.973148
0.970138
0.966685
0.962795
0.958472
0.953724
0.94856
0.94299
0.937049
0.99195
0.989127
0.985844
0.982109
0.977934
0.973333
0.968323
0.962915
0.957125
0.951111
1.0182
1.01493
1.01118
1.00695
1.00227
0.997143
0.991599
0.985636
0.979244
0.97285
1.04942
1.04546
1.04098
1.036
1.03053
1.0246
1.01823
1.01138
1.00393
0.996771
1.08181
1.07688
1.0714
1.0654
1.05889
1.0519
1.04441
1.03626
1.0271
1.01858
1.11219
1.10588
1.09899
1.09155
1.08356
1.07499
1.06576
1.05535
1.04307
1.03222
1.13773
1.12922
1.12003
1.11014
1.09948
1.08799
1.07541
1.06053
1.04219
1.02759
1.15651
1.1448
1.13216
1.11849
1.10357
1.08719
1.06878
1.04575
1.01589
0.993953
1.16587
1.14908
1.1307
1.11045
1.08784
1.06239
1.03326
0.996569
0.948787
0.915646
1.16162
1.13681
1.10909
1.07787
1.04231
1.00165
0.955358
0.901106
0.837157
0.795389
0.921707
0.887983
0.843762
0.788872
0.724004
0.649942
0.56903
0.48399
0.398974
0.317684
0.243182
0.178735
0.124018
0.0819862
0.0496289
0.0266035
0.0152092
0.00481772
0.00134887
0.00567835
0.936592
0.898744
0.848584
0.788019
0.718127
0.639707
0.555541
0.468769
0.383545
0.303247
0.230444
0.168135
0.11534
0.0754578
0.0444407
0.0228759
0.0131642
0.0026069
0.00151028
0.00643424
0.960087
0.914714
0.854661
0.785123
0.707135
0.621803
0.532842
0.443885
0.358823
0.280452
0.210554
0.151714
0.102037
0.0654978
0.0364722
0.0172375
0.00980599
-0.000755341
0.00181934
0.00741033
0.987101
0.930786
0.858391
0.778009
0.690032
0.596741
0.503023
0.412566
0.328651
0.253236
0.18723
0.132689
0.086844
0.0541763
0.0273917
0.0109912
0.00567075
-0.00461819
0.00224635
0.0082711
1.01252
0.941334
0.855473
0.76318
0.664526
0.56391
0.466911
0.376602
0.29534
0.224057
0.16281
0.1131
0.0714396
0.0427437
0.0182952
0.00488564
0.00118193
-0.0085417
0.00271151
0.00884139
1.02919
0.93955
0.840727
0.736632
0.628615
0.523276
0.425796
0.338009
0.261134
0.195059
0.13914
0.0944379
0.0569593
0.0320321
0.00986915
-0.000704436
-0.00328933
-0.012216
0.00312294
0.009097
1.02773
0.918324
0.809106
0.695783
0.582542
0.476836
0.382341
0.299439
0.228304
0.168023
0.117523
0.077627
0.0440362
0.0224871
0.00244134
-0.00564628
-0.00746811
-0.0154496
0.00341906
0.00910065
0.996813
0.871015
0.757105
0.640597
0.528451
0.427267
0.338929
0.262694
0.198066
0.143705
0.0983922
0.0629113
0.0328015
0.0142001
-0.00394168
-0.00994704
-0.011206
-0.0181747
0.0035769
0.00894025
0.926297
0.793688
0.6853
0.574009
0.469472
0.376908
0.296997
0.228478
0.17064
0.122058
0.0815888
0.0501105
0.0230905
0.00706196
-0.00938684
-0.0136701
-0.0144551
-0.0204139
0.00360737
0.00869132
0.819973
0.691047
0.604193
0.505376
0.412633
0.330556
0.259583
0.198591
0.14702
0.103599
0.0673543
0.0393252
0.0149424
0.00109056
-0.0138905
-0.0168007
-0.0171718
-0.0221487
0.0035636
0.00837229
0.725263
0.607869
0.550568
0.463733
0.379999
0.304792
0.239051
0.182256
0.134027
0.0933752
0.0593741
0.033196
0.0102827
-0.00241913
-0.016465
-0.018729
-0.0188825
-0.0230102
0.00349257
0.00798989
0.658827
0.542193
0.498823
0.419543
0.343444
0.275607
0.216047
0.16433
0.120161
0.082785
0.051374
0.0272548
0.00593162
-0.00555814
-0.0187122
-0.0202626
-0.0201787
-0.023666
0.00348875
0.00776437
0.570237
0.467732
0.439025
0.371577
0.30473
0.245059
0.192027
0.145558
0.105582
0.0715986
0.0428986
0.0209399
0.00131191
-0.00888799
-0.0210836
-0.0218609
-0.0214934
-0.024315
0.00349405
0.00756835
0.465147
0.391359
0.376375
0.323731
0.26714
0.215891
0.169342
0.127925
0.09192
0.0611153
0.0349442
0.0149938
-0.0030574
-0.0120596
-0.0233502
-0.0234295
-0.0227691
-0.0249343
0.00346149
0.00737144
0.343346
0.312822
0.311268
0.275571
0.230109
0.187441
0.147388
0.110944
0.0788126
0.0510827
0.0273439
0.00931452
-0.00723446
-0.0151015
-0.0255263
-0.0249696
-0.024006
-0.0255225
0.00338908
0.00716909
0.205089
0.231478
0.244412
0.227063
0.193543
0.159527
0.12595
0.0944062
0.0660726
0.041345
0.0199753
0.00381063
-0.0112823
-0.0180548
-0.027638
-0.0264894
-0.0252082
-0.026081
0.00328023
0.00696278
0.0515571
0.146656
0.17659
0.178361
0.157515
0.132196
0.105052
0.0783271
0.0537081
0.0319046
0.0128369
-0.00152138
-0.0152042
-0.0209224
-0.0296872
-0.0279879
-0.0263749
-0.0266097
0.00313421
0.00675195
-0.1155
0.0576779
0.108367
0.129585
0.122025
0.105458
0.084698
0.0627154
0.0417294
0.0227719
0.00593733
-0.00667466
-0.0189947
-0.0237004
-0.0316707
-0.0294614
-0.0275037
-0.0271074
0.0029485
0.00653419
-0.294014
-0.0360317
0.0400349
0.0808155
0.0870102
0.0792758
0.0648596
0.0475537
0.0301263
0.013941
-0.000726722
-0.0116508
-0.0226543
-0.0263887
-0.0335883
-0.0309075
-0.0285945
-0.0275756
0.00272369
0.00631027
-0.48173
-0.134874
-0.0283695
0.0320813
0.052375
0.053593
0.0454977
0.0328163
0.0188818
0.00540099
-0.00716273
-0.0164547
-0.0261856
-0.0289885
-0.0354401
-0.0323235
-0.0296456
-0.0280132
0.00245681
0.00607697
)
;

boundaryField
{
    inlet
    {
        type            freestreamPressure;
        freestreamValue uniform 0;
        supersonic      false;
        value           nonuniform List<scalar> 
40
(
-0.0603652
-0.103568
-0.151099
-0.20244
-0.256395
-0.31097
-0.363305
-0.409832
-0.446471
-0.468338
0.194748
0.169214
0.143729
0.118369
0.0932022
0.0682947
0.0437087
0.0195041
-0.00429189
-0.0277603
0.436811
0.414548
0.391804
0.368524
0.344732
0.320485
0.295846
0.27088
0.245658
0.220255
0.822402
0.80462
0.774476
0.735646
0.691267
0.64415
0.596669
0.55066
0.507367
0.467418
)
;
    }
    outlet
    {
        type            freestreamPressure;
        freestreamValue uniform 0;
        supersonic      false;
        value           nonuniform List<scalar> 
40
(
7.54856e-08
8.38693e-08
8.48502e-08
7.07363e-08
3.43562e-08
-2.47481e-08
-9.09639e-08
-1.26338e-07
-9.17447e-08
-1.53603e-08
1.31052e-11
8.66811e-10
3.86449e-09
8.99422e-09
1.6053e-08
2.47547e-08
3.46773e-08
4.52978e-08
5.59639e-08
6.56378e-08
7.69888e-08
6.48952e-08
5.38834e-08
4.32729e-08
3.32953e-08
2.42062e-08
1.62263e-08
9.58726e-09
4.5495e-09
1.27045e-09
1.75664e-08
1.23445e-07
2.36265e-07
2.98557e-07
3.0388e-07
2.72211e-07
2.25518e-07
1.77468e-07
1.3408e-07
9.81739e-08
)
;
    }
    top
    {
        type            symmetryPlane;
    }
    bottom
    {
        type            symmetryPlane;
    }
    cylinder
    {
        type            zeroGradient;
    }
    frontandback
    {
        type            empty;
    }
}


// ************************************************************************* //
