/*--------------------------------*- C++ -*----------------------------------*\
| =========                 |                                                 |
| \\      /  F ield         | OpenFOAM: The Open Source CFD Toolbox           |
|  \\    /   O peration     | Version:  v1912                                 |
|   \\  /    A nd           | Website:  www.openfoam.com                      |
|    \\/     M anipulation  |                                                 |
\*---------------------------------------------------------------------------*/
FoamFile
{
    version     2.0;
    format      ascii;
    class       volScalarField;
    location    "42";
    object      p;
}
// * * * * * * * * * * * * * * * * * * * * * * * * * * * * * * * * * * * * * //

dimensions      [0 2 -2 0 0 0 0];


internalField   nonuniform List<scalar> 
9600
(
-41.4727
-36.2072
-32.9798
-30.242
-27.7361
-25.4691
-23.4124
-21.5382
-19.8291
-18.2712
-16.852
-15.5596
-14.3825
-13.3099
-12.3318
-11.4387
-10.6222
-9.87442
-9.18776
-8.56007
-42.2312
-36.9483
-33.6849
-30.9043
-28.3535
-26.0424
-23.9444
-22.0325
-20.2895
-18.7017
-17.2562
-15.9407
-14.7433
-13.6528
-12.6588
-11.7516
-10.9224
-10.1628
-9.46509
-8.82815
-42.9915
-37.6854
-34.3847
-31.5611
-28.965
-26.6097
-24.4704
-22.5209
-20.7443
-19.1268
-17.6553
-16.3169
-15.0995
-13.9915
-12.9819
-12.0607
-11.2188
-10.4477
-9.73886
-9.09286
-43.7501
-38.4181
-35.0787
-32.2114
-29.5697
-27.17
-24.9894
-23.0025
-21.1926
-19.5457
-18.0485
-16.6877
-15.4506
-14.3253
-13.3003
-12.3654
-11.5111
-10.7284
-10.0086
-9.35385
-44.5043
-39.1448
-35.7658
-32.8541
-30.1665
-27.7224
-25.5006
-23.4764
-21.6335
-19.9577
-18.4352
-17.0523
-15.7959
-14.6536
-13.6136
-12.6651
-11.7987
-11.0046
-10.2741
-9.61085
-45.2519
-39.8641
-36.4448
-33.4882
-30.7543
-28.2658
-26.0029
-23.9418
-22.0663
-20.3619
-18.8145
-17.41
-16.1348
-14.9758
-13.9211
-12.9595
-12.0811
-11.2759
-10.5349
-9.8636
-45.9912
-40.5746
-37.1144
-34.1125
-31.3322
-28.7992
-26.4955
-24.3978
-22.49
-20.7576
-19.1858
-17.7602
-16.4665
-15.2914
-14.2223
-13.2479
-12.3579
-11.5419
-10.7906
-10.1118
-46.7205
-41.2749
-37.7735
-34.7258
-31.899
-29.3217
-26.9773
-24.8435
-22.9039
-21.1439
-19.5483
-18.102
-16.7904
-15.5996
-14.5166
-13.5299
-12.6287
-11.8022
-11.041
-10.3552
-47.4386
-41.9636
-38.4209
-35.3271
-32.4537
-29.8322
-27.4475
-25.2779
-23.3072
-21.5202
-19.9013
-18.4349
-17.1058
-15.8998
-14.8034
-13.8048
-12.8928
-12.0563
-11.2856
-10.5934
-48.1442
-42.6396
-39.0553
-35.9152
-32.9953
-30.3298
-27.9052
-25.7003
-23.6989
-21.8854
-20.2438
-18.7579
-17.412
-16.1912
-15.082
-14.0719
-13.1497
-12.3035
-11.5239
-10.826
-48.8362
-43.3018
-39.6757
-36.4893
-33.5228
-30.8135
-28.3495
-26.1098
-24.0783
-22.239
-20.5752
-19.0703
-17.708
-16.4731
-15.3514
-14.3304
-13.3985
-12.5433
-11.7552
-11.0524
-49.5137
-43.9491
-40.2811
-37.0482
-34.0353
-31.2825
-28.7794
-26.5055
-24.4444
-22.5799
-20.8945
-19.3712
-17.9931
-16.7445
-15.6109
-14.5795
-13.6384
-12.7747
-11.9788
-11.2717
-50.1759
-44.5808
-40.8706
-37.5911
-34.5319
-31.736
-29.1943
-26.8867
-24.7966
-22.9073
-21.2009
-19.6597
-18.2662
-17.0044
-15.8594
-14.8182
-13.8685
-12.9969
-12.1938
-11.4834
-50.8222
-45.1959
-41.4434
-38.1171
-35.0118
-32.1731
-29.5933
-27.2525
-25.134
-23.2205
-21.4936
-19.9347
-18.5263
-17.2516
-16.0957
-15.045
-14.0872
-13.2084
-12.3991
-11.6866
-51.4521
-45.7937
-41.9986
-38.6257
-35.4743
-32.5933
-29.9758
-27.6023
-25.4559
-23.5187
-21.7716
-20.1955
-18.7723
-17.485
-16.3182
-15.2583
-14.2927
-13.4072
-12.5924
-11.8796
-52.0653
-46.3733
-42.5356
-39.116
-35.9189
-32.9958
-30.3412
-27.9357
-25.7619
-23.8013
-22.0343
-20.4413
-19.0034
-17.7035
-16.5258
-15.4566
-14.4831
-13.591
-12.771
-12.0568
-52.6627
-46.9348
-43.0536
-39.5874
-36.3448
-33.3802
-30.689
-28.252
-26.0513
-24.0678
-22.2812
-20.6712
-19.2187
-17.906
-16.7174
-15.639
-14.6581
-13.7598
-12.9338
-12.2151
-53.249
-47.4792
-43.552
-40.0389
-36.7511
-33.7456
-31.0187
-28.5509
-26.3239
-24.3178
-22.5116
-20.8845
-19.4169
-18.0909
-16.8907
-15.8029
-14.8149
-13.9108
-13.08
-12.3656
-53.8261
-48.006
-44.0291
-40.4692
-37.1375
-34.0923
-31.3306
-28.8329
-26.5802
-24.5519
-22.7262
-21.0815
-19.5977
-18.2566
-17.0423
-15.9416
-14.9416
-14.0267
-13.1945
-12.5127
-54.3723
-48.5076
-44.4838
-40.8791
-37.5052
-34.4217
-31.6263
-29.0997
-26.8221
-24.7721
-22.927
-21.2646
-19.7639
-18.4058
-17.174
-16.0536
-15.0299
-14.0893
-13.2462
-12.5706
-59.8206
-59.7892
-59.7199
-59.6276
-59.5114
-59.3689
-59.1994
-59.0036
-58.782
-58.5352
-58.2636
-57.9679
-57.6487
-57.3067
-56.9427
-56.5575
-56.1522
-55.7286
-55.2894
-54.8379
-53.4727
-53.4701
-53.4343
-53.3711
-53.2811
-53.1637
-53.0193
-52.8485
-52.6521
-52.4306
-52.1846
-51.9149
-51.622
-51.3065
-50.969
-50.6103
-50.231
-49.8316
-49.4126
-48.972
-48.8299
-48.8517
-48.8441
-48.8078
-48.7441
-48.6537
-48.5375
-48.3958
-48.2294
-48.0389
-47.8249
-47.5878
-47.3284
-47.047
-46.7443
-46.4206
-46.0763
-45.7113
-45.3255
-44.9169
-44.601
-44.6405
-44.6533
-44.6391
-44.5987
-44.5331
-44.443
-44.3291
-44.1917
-44.0315
-43.849
-43.6446
-43.4191
-43.1726
-42.9058
-42.6188
-42.3119
-41.9849
-41.6376
-41.2692
-40.6909
-40.7402
-40.7657
-40.7664
-40.7429
-40.696
-40.6263
-40.5343
-40.4206
-40.2856
-40.1299
-39.9538
-39.758
-39.5428
-39.3085
-39.0554
-38.7837
-38.4931
-38.1836
-37.8546
-37.1795
-37.2329
-37.2647
-37.2741
-37.2612
-37.2267
-37.1711
-37.0951
-36.9989
-36.8832
-36.7484
-36.5949
-36.4233
-36.2339
-36.0271
-35.803
-35.5619
-35.3035
-35.0278
-34.7342
-34.0575
-34.1109
-34.1445
-34.1576
-34.1503
-34.123
-34.0764
-34.0109
-33.927
-33.8251
-33.7058
-33.5694
-33.4166
-33.2477
-33.063
-32.8628
-32.6472
-32.4162
-32.1694
-31.9065
-31.2882
-31.3387
-31.3711
-31.3845
-31.379
-31.3552
-31.3136
-31.2547
-31.1788
-31.0864
-30.9781
-30.8544
-30.7157
-30.5625
-30.3952
-30.2141
-30.0195
-29.8111
-29.5888
-29.352
-28.8317
-28.8778
-28.9069
-28.9186
-28.9128
-28.89
-28.8507
-28.7954
-28.7245
-28.6385
-28.5378
-28.4231
-28.2949
-28.1537
-28
-27.8341
-27.6564
-27.4668
-27.2651
-27.0506
-26.6482
-26.6892
-26.7143
-26.7231
-26.7156
-26.6923
-26.6538
-26.6002
-26.5323
-26.4503
-26.355
-26.2468
-26.1263
-25.9942
-25.851
-25.6973
-25.5335
-25.3595
-25.1752
-24.9799
-24.7008
-24.7365
-24.7572
-24.7626
-24.7529
-24.7284
-24.6895
-24.6367
-24.5704
-24.4911
-24.3994
-24.2958
-24.1812
-24.0561
-23.9212
-23.7773
-23.6248
-23.464
-23.2948
-23.1164
-22.9564
-22.987
-23.0035
-23.0055
-22.9933
-22.9672
-22.9276
-22.8748
-22.8094
-22.7319
-22.6427
-22.5427
-22.4324
-22.3127
-22.1844
-22.0484
-21.9054
-21.756
-21.6002
-21.437
-21.3867
-21.4127
-21.4252
-21.4241
-21.4095
-21.3817
-21.3412
-21.2882
-21.2233
-21.147
-21.0597
-20.9622
-20.8553
-20.7398
-20.6168
-20.4872
-20.3523
-20.2127
-20.0689
-19.92
-19.968
-19.9899
-19.9989
-19.9949
-19.978
-19.9487
-19.9073
-19.854
-19.7894
-19.7139
-19.6281
-19.5327
-19.4284
-19.3162
-19.1972
-19.0729
-18.9446
-18.8136
-18.681
-18.5457
-18.6805
-18.6987
-18.7045
-18.6979
-18.6791
-18.6485
-18.6062
-18.5527
-18.4884
-18.4136
-18.329
-18.2351
-18.1329
-18.0232
-17.9074
-17.787
-17.6642
-17.5404
-17.4183
-17.2964
-17.5077
-17.5225
-17.5255
-17.5167
-17.4962
-17.4643
-17.4214
-17.3677
-17.3036
-17.2294
-17.1458
-17.0532
-16.9525
-16.8447
-16.7312
-16.6136
-16.4947
-16.3767
-16.2642
-16.1555
-16.4357
-16.4475
-16.448
-16.4372
-16.4152
-16.3824
-16.3389
-16.285
-16.221
-16.1474
-16.0645
-15.9729
-15.8733
-15.7666
-15.6543
-15.5382
-15.4216
-15.3073
-15.2029
-15.106
-15.4525
-15.462
-15.4606
-15.4483
-15.4252
-15.3917
-15.3479
-15.294
-15.2303
-15.1572
-15.075
-14.9842
-14.8854
-14.7794
-14.6674
-14.5514
-14.4351
-14.3223
-14.2248
-14.1371
-14.5473
-14.5553
-14.5529
-14.5401
-14.517
-14.4838
-14.4407
-14.3879
-14.3256
-14.2541
-14.1738
-14.0849
-13.9879
-13.8835
-13.7726
-13.6568
-13.5398
-13.4266
-13.336
-13.2624
-13.7145
-13.7193
-13.7144
-13.6998
-13.6756
-13.642
-13.5992
-13.5473
-13.4865
-13.4169
-13.339
-13.2528
-13.1587
-13.0571
-12.9484
-12.8338
-12.7149
-12.597
-12.4999
-12.4506
-53.5359
-54.1105
-54.6481
-55.1707
-55.6754
-56.1562
-56.6103
-57.0365
-57.4341
-57.802
-58.1397
-58.4466
-58.7224
-58.9667
-59.1788
-59.359
-59.508
-59.627
-59.718
-59.7829
-47.054
-47.634
-48.186
-48.7157
-49.2226
-49.7043
-50.1593
-50.587
-50.9867
-51.3577
-51.6995
-52.0119
-52.2951
-52.5497
-52.7736
-52.9663
-53.1284
-53.2602
-53.3622
-53.4333
-42.4112
-42.979
-43.5232
-44.044
-44.5414
-45.0146
-45.4629
-45.8856
-46.2821
-46.6516
-46.9932
-47.3068
-47.5919
-47.8474
-48.0744
-48.2733
-48.4437
-48.5853
-48.6978
-48.7797
-38.2887
-38.8313
-39.3542
-39.8556
-40.3348
-40.7915
-41.2252
-41.6352
-42.0209
-42.3817
-42.7162
-43.024
-43.306
-43.5617
-43.7913
-43.9944
-44.1708
-44.3199
-44.4416
-44.5354
-34.6124
-35.125
-35.6205
-36.0964
-36.5517
-36.9861
-37.399
-37.7896
-38.1574
-38.5018
-38.8233
-39.1216
-39.3951
-39.6442
-39.8688
-40.0688
-40.2439
-40.3937
-40.5184
-40.6176
-31.4151
-31.8963
-32.362
-32.8099
-33.2386
-33.6478
-34.0369
-34.4054
-34.7528
-35.0788
-35.3832
-35.6655
-35.925
-36.1619
-36.3765
-36.5686
-36.7373
-36.8828
-37.0051
-37.1042
-28.6444
-29.0947
-29.5309
-29.9505
-30.3522
-30.7355
-31.1001
-31.4453
-31.7709
-32.0764
-32.3616
-32.6261
-32.8698
-33.0922
-33.2931
-33.4744
-33.6343
-33.7724
-33.8889
-33.9841
-26.2335
-26.655
-27.0631
-27.4557
-27.8314
-28.1898
-28.5304
-28.8527
-29.1565
-29.4413
-29.707
-29.9535
-30.1805
-30.388
-30.5759
-30.7428
-30.8921
-31.0212
-31.1301
-31.2192
-24.1237
-24.5188
-24.9012
-25.2689
-25.6205
-25.9555
-26.2735
-26.5741
-26.8571
-27.1221
-27.3692
-27.598
-27.8087
-28.0011
-28.1751
-28.3308
-28.4669
-28.5859
-28.6864
-28.7684
-22.2649
-22.6363
-22.9955
-23.3406
-23.6702
-23.9838
-24.281
-24.5615
-24.8251
-25.0717
-25.3012
-25.5135
-25.7087
-25.8866
-26.0472
-26.1905
-26.3162
-26.4248
-26.5167
-26.5912
-20.6156
-20.9658
-21.3043
-21.6292
-21.9389
-22.233
-22.5112
-22.7733
-23.0191
-23.2487
-23.4621
-23.6592
-23.84
-24.0045
-24.1527
-24.2845
-24.4
-24.4992
-24.5827
-24.65
-19.1421
-19.4735
-19.7938
-20.1006
-20.3925
-20.6689
-20.9298
-21.1751
-21.4047
-21.6188
-21.8174
-22.0005
-22.1682
-22.3205
-22.4574
-22.5788
-22.6848
-22.7756
-22.8508
-22.9114
-17.8173
-18.1323
-18.4368
-18.7276
-19.0033
-19.2637
-19.5087
-19.7386
-19.9535
-20.1534
-20.3385
-20.5089
-20.6647
-20.8059
-20.9325
-21.0444
-21.1418
-21.2246
-21.2925
-21.3471
-16.6198
-16.9203
-17.2113
-17.488
-17.7491
-17.9947
-18.2252
-18.441
-18.6421
-18.8291
-19.0019
-19.1608
-19.3057
-19.4368
-19.5541
-19.6575
-19.7471
-19.823
-19.8854
-19.9333
-15.5324
-15.8207
-16.1001
-16.3642
-16.6118
-16.8437
-17.0607
-17.2633
-17.4519
-17.6268
-17.7883
-17.9367
-18.0718
-18.1938
-18.3027
-18.3984
-18.481
-18.5505
-18.6069
-18.6501
-14.5404
-14.8202
-15.0904
-15.3426
-15.5773
-15.7963
-16.0006
-16.1907
-16.3674
-16.5312
-16.6824
-16.821
-16.9472
-17.0609
-17.1621
-17.2509
-17.3272
-17.391
-17.4422
-17.4811
-13.6261
-13.9048
-14.1699
-14.4107
-14.6327
-14.8393
-15.0314
-15.2098
-15.3755
-15.529
-15.6706
-15.8004
-15.9184
-16.0247
-16.1191
-16.2016
-16.2722
-16.3309
-16.3777
-16.4125
-12.769
-13.0519
-13.3183
-13.5497
-13.7597
-13.9547
-14.1356
-14.3034
-14.4594
-14.6039
-14.7373
-14.8596
-14.9708
-15.0708
-15.1595
-15.2369
-15.3028
-15.3574
-15.4005
-15.4323
-11.9823
-12.2558
-12.5229
-12.7495
-12.9495
-13.133
-13.3035
-13.4618
-13.609
-13.7456
-13.8719
-13.9878
-14.0931
-14.1879
-14.2719
-14.3451
-14.4074
-14.4587
-14.4991
-14.5287
-11.3921
-11.6428
-11.8705
-12.0871
-12.2753
-12.4411
-12.595
-12.7392
-12.8731
-12.9972
-13.1119
-13.2171
-13.3125
-13.3981
-13.4737
-13.5392
-13.5946
-13.6398
-13.6746
-13.6991
-5.99625
-6.48726
-7.02536
-7.60751
-8.24015
-8.93067
-9.68676
-10.5179
-11.4362
-12.4573
-13.6018
-14.8965
-16.3769
-18.089
-20.0931
-22.4686
-25.2966
-28.5993
-32.596
-38.5914
-6.26658
-6.77109
-7.31969
-7.91388
-8.56027
-9.26594
-10.0387
-10.8883
-11.8271
-12.8711
-14.0411
-15.3644
-16.8768
-18.6248
-20.669
-23.0886
-25.9635
-29.3129
-33.3481
-39.3645
-6.53834
-7.05637
-7.61558
-8.22204
-8.88243
-9.60351
-10.3932
-11.2615
-12.2211
-13.2883
-14.4842
-15.8364
-17.3812
-19.1655
-21.25
-23.7136
-26.6351
-30.0302
-34.102
-40.1349
-6.81105
-7.34252
-7.91243
-8.53138
-9.20599
-9.94268
-10.7495
-11.6368
-12.6175
-13.708
-14.93
-16.3113
-17.8887
-19.7095
-21.8345
-24.3421
-27.3099
-30.7504
-34.86
-40.914
-7.08425
-7.6291
-8.20978
-8.84142
-9.53045
-10.2829
-11.1071
-12.0135
-13.0154
-14.1295
-15.3777
-16.7884
-18.3986
-20.256
-22.4214
-24.973
-27.987
-31.473
-35.6211
-41.6994
-7.35759
-7.91569
-8.5072
-9.15174
-9.85538
-10.6238
-11.4655
-12.3912
-13.4144
-14.5522
-15.8269
-17.267
-18.9102
-20.8042
-23.0102
-25.6058
-28.6659
-32.1971
-36.3833
-42.487
-7.63074
-8.20192
-8.80433
-9.46195
-10.1804
-10.9649
-11.8242
-12.7693
-13.814
-14.9756
-16.2768
-17.7465
-19.4227
-21.3534
-23.5999
-26.2394
-29.3454
-32.9215
-37.1451
-43.2744
-7.90346
-8.48752
-9.10082
-9.77169
-10.505
-11.3058
-12.1828
-13.1474
-14.2136
-15.3991
-16.7268
-18.2262
-19.9354
-21.9029
-24.1899
-26.8731
-30.0246
-33.6451
-37.9054
-44.06
-8.17559
-8.77227
-9.39645
-10.0807
-10.8291
-11.6461
-12.5408
-13.5249
-14.6127
-15.8221
-17.1764
-18.7054
-20.4475
-22.4517
-24.779
-27.5058
-30.7025
-34.3667
-38.6628
-44.8426
-8.44709
-9.05608
-9.69106
-10.3888
-11.1522
-11.9855
-12.8979
-13.9015
-15.0108
-16.244
-17.6248
-19.1833
-20.9584
-22.9991
-25.3665
-28.1364
-31.3778
-35.0853
-39.4161
-45.6205
-8.71807
-9.33896
-9.98459
-10.6958
-11.4742
-12.3237
-13.2538
-14.2767
-15.4074
-16.6643
-18.0715
-19.6593
-21.4671
-23.5441
-25.9514
-28.764
-32.0495
-35.7994
-40.164
-46.3923
-8.98883
-9.6211
-10.2771
-11.0017
-11.795
-12.6605
-13.608
-14.6501
-15.8019
-17.0824
-18.5157
-20.1327
-21.973
-24.0859
-26.5326
-29.3875
-32.7164
-36.508
-40.9051
-47.1565
-9.25984
-9.90277
-10.5687
-11.3064
-12.1144
-12.9956
-13.9602
-15.0212
-16.1939
-17.4976
-18.9567
-20.6026
-22.475
-24.6236
-27.1093
-30.0057
-33.3774
-37.2098
-41.6381
-47.9119
-9.53183
-10.1844
-10.8595
-11.6099
-12.4321
-13.3286
-14.31
-15.3894
-16.5827
-17.9092
-19.3938
-21.0682
-22.9724
-25.1561
-27.6802
-30.6177
-34.0312
-37.9035
-42.3617
-48.6571
-9.80556
-10.4663
-11.1496
-11.912
-12.7478
-13.6591
-14.6567
-15.7542
-16.9675
-18.3165
-19.8262
-21.5286
-23.4641
-25.6825
-28.2444
-31.222
-34.6767
-38.5879
-43.0748
-49.3909
-10.082
-10.7488
-11.4386
-12.2122
-13.0609
-13.9863
-14.9996
-16.1147
-17.3477
-18.7186
-20.2529
-21.9829
-23.9491
-26.2016
-28.8006
-31.8176
-35.3124
-39.2616
-43.7761
-50.1124
-10.3609
-11.0306
-11.7252
-12.5089
-13.37
-14.3091
-15.3377
-16.4699
-17.7221
-19.1145
-20.673
-22.43
-24.4263
-26.7122
-29.3476
-32.4031
-35.937
-39.9235
-44.4646
-50.821
-10.6416
-11.3093
-12.0068
-12.8006
-13.674
-14.6265
-15.67
-16.8189
-18.0898
-19.5033
-21.0854
-22.8688
-24.8947
-27.2132
-29.8841
-32.9771
-36.5489
-40.5717
-45.1392
-51.5166
-10.9167
-11.5765
-12.2773
-13.0836
-13.9706
-14.9367
-15.9949
-17.1604
-18.4497
-19.8838
-21.4889
-23.2982
-25.3529
-27.7032
-30.4087
-33.5379
-37.1464
-41.2045
-45.7987
-52.2007
-11.1677
-11.8124
-12.5322
-13.3591
-14.2605
-15.2395
-16.3121
-17.4937
-18.801
-20.2551
-21.8827
-23.7171
-25.7998
-28.181
-30.9198
-34.084
-37.7274
-41.8187
-46.4384
-52.8749
-1.58076
-1.83483
-2.18287
-2.57201
-2.99084
-3.44474
-3.94001
-4.4826
-5.08001
-5.7425
-6.48404
-7.32362
-8.28741
-9.41144
-10.7466
-12.3671
-14.3626
-16.7942
-19.9701
-25.3653
-1.73374
-2.00422
-2.3707
-2.76575
-3.18798
-3.64719
-4.14936
-4.70001
-5.3068
-5.98026
-6.7346
-7.58918
-8.57058
-9.71534
-11.0749
-12.724
-14.7524
-17.2194
-20.4275
-25.8365
-1.88102
-2.17556
-2.55517
-2.95834
-3.3883
-3.85588
-4.36696
-4.92727
-5.54482
-6.23048
-6.99881
-7.86955
-8.86971
-10.0364
-11.4216
-13.1004
-15.1623
-17.6647
-20.9042
-26.3218
-2.05055
-2.35591
-2.74371
-3.15559
-3.59472
-4.07183
-4.59292
-5.16401
-5.79345
-6.49241
-7.27578
-8.16371
-9.18371
-10.3734
-11.7852
-13.4947
-15.5911
-18.1302
-21.4045
-26.8397
-2.23139
-2.54383
-2.93945
-3.36028
-3.80889
-4.29596
-4.82771
-5.41039
-6.05258
-6.76576
-7.56513
-8.47124
-9.51207
-10.7257
-12.1653
-13.9066
-16.0388
-18.616
-21.9277
-27.387
-2.41769
-2.73874
-3.14268
-3.57262
-4.03099
-4.52849
-5.07149
-5.66645
-6.32217
-7.05038
-7.86664
-8.79187
-9.85451
-11.0932
-12.5616
-14.3359
-16.505
-19.1216
-22.472
-27.9583
-2.611
-2.94154
-3.35372
-3.79278
-4.2612
-4.76954
-5.32433
-5.93217
-6.6021
-7.3461
-8.18006
-9.12529
-10.2107
-11.4755
-12.9738
-14.7823
-16.9894
-19.6465
-23.0364
-28.5514
-2.8127
-3.15271
-3.57291
-4.02109
-4.49974
-5.01927
-5.58625
-6.2075
-6.89224
-7.65272
-8.50513
-9.47119
-10.5803
-11.8721
-13.4014
-15.2451
-17.4914
-20.1901
-23.6202
-29.1652
-3.02257
-3.3721
-3.8003
-4.25764
-4.74669
-5.27767
-5.85723
-6.49233
-7.19242
-7.96999
-8.84156
-9.82923
-10.9629
-12.2827
-13.8439
-15.7238
-18.0104
-20.7516
-24.2228
-29.7986
-3.24001
-3.59938
-4.03566
-4.50226
-5.0019
-5.5446
-6.13708
-6.78647
-7.50241
-8.29766
-9.18904
-10.1991
-11.358
-12.7067
-14.3008
-16.2179
-18.5458
-21.3305
-24.8433
-30.4505
-3.46459
-3.8342
-4.27871
-4.7547
-5.26513
-5.81982
-6.42555
-7.08963
-7.82191
-8.63538
-9.5472
-10.5802
-11.7653
-13.1437
-14.7716
-16.7269
-19.0969
-21.9258
-25.4808
-31.1199
-3.69592
-4.07615
-4.52905
-5.0146
-5.53604
-6.103
-6.72232
-7.40149
-8.15055
-8.98277
-9.91561
-10.9724
-12.1843
-13.5932
-15.2557
-17.25
-19.663
-22.5369
-26.1345
-31.8056
-3.93355
-4.32477
-4.78625
-5.28154
-5.81424
-6.39375
-7.02698
-7.72162
-8.48792
-9.33939
-10.2938
-11.3749
-12.6143
-14.0545
-15.7524
-17.7866
-20.2434
-23.163
-26.8035
-32.5069
-4.17695
-4.57953
-5.04979
-5.55505
-6.09926
-6.69161
-7.33909
-8.04957
-8.83353
-9.70474
-10.6813
-11.7873
-13.055
-14.5271
-16.2612
-18.336
-20.8373
-23.8032
-27.487
-33.2227
-4.42557
-4.83989
-5.31915
-5.83461
-6.3906
-6.99609
-7.65814
-8.38484
-9.18687
-10.0783
-11.0775
-12.209
-13.5055
-15.0102
-16.7813
-18.8974
-21.4439
-24.4567
-28.1841
-33.9522
-4.67885
-5.10526
-5.59377
-6.11967
-6.68773
-7.30665
-7.98361
-8.72688
-9.54739
-10.4594
-11.4818
-12.6394
-13.9653
-15.5033
-17.3119
-19.4701
-22.0624
-25.1226
-28.894
-34.6945
-4.93626
-5.37507
-5.87305
-6.40967
-6.99007
-7.62274
-8.31491
-9.07511
-9.91449
-10.8476
-11.8936
-13.0777
-14.4336
-16.0055
-17.8523
-20.0531
-22.6919
-25.8
-29.6158
-35.4492
-5.19724
-5.64874
-6.15643
-6.70403
-7.29707
-7.94377
-8.65149
-9.42895
-10.2876
-11.2422
-12.3122
-13.5234
-14.9098
-16.5161
-18.4017
-20.6456
-23.3313
-26.4878
-30.3488
-36.2159
-5.46123
-5.92569
-6.44331
-7.00216
-7.60813
-8.26917
-8.99272
-9.78777
-10.666
-11.6424
-12.737
-13.9756
-15.3929
-17.0342
-18.959
-21.2465
-23.9795
-27.1848
-31.0917
-36.9951
-5.72774
-6.20539
-6.73316
-7.30354
-7.92271
-8.59837
-9.33806
-10.151
-11.0491
-12.0478
-13.1672
-14.4337
-15.8824
-17.559
-19.5234
-21.8549
-24.6354
-27.8893
-31.842
-37.7877
-1.3332
-1.12678
-0.973253
-0.836771
-0.716939
-0.611214
-0.518484
-0.437954
-0.369125
-0.311637
-0.265224
-0.229676
-0.20482
-0.190519
-0.186631
-0.192951
-0.209277
-0.235735
-0.272445
-0.319273
-1.66312
-1.47996
-1.32247
-1.18077
-1.05611
-0.945931
-0.849242
-0.765248
-0.693434
-0.633424
-0.584936
-0.547748
-0.521676
-0.506567
-0.502276
-0.508635
-0.525492
-0.552849
-0.590729
-0.639009
-1.9958
-1.82052
-1.66305
-1.52021
-1.39343
-1.28107
-1.18243
-1.09683
-1.02378
-0.96294
-0.914024
-0.876811
-0.851116
-0.836781
-0.833658
-0.841595
-0.860473
-0.890247
-0.930837
-0.982282
-2.37972
-2.20279
-2.04228
-1.89649
-1.76614
-1.65028
-1.54844
-1.46005
-1.38471
-1.32207
-1.27187
-1.23388
-1.2079
-1.19378
-1.19136
-1.20049
-1.22105
-1.25297
-1.29614
-1.35056
-2.79867
-2.61929
-2.45484
-2.30511
-2.17056
-2.05065
-1.94507
-1.8534
-1.77527
-1.7104
-1.65851
-1.61938
-1.59282
-1.57867
-1.57675
-1.58693
-1.60907
-1.64307
-1.68882
-1.74629
-3.25023
-3.06764
-2.89903
-2.74498
-2.60598
-2.48182
-2.37231
-2.27715
-2.19605
-2.12875
-2.07502
-2.03463
-2.00739
-1.99314
-1.99171
-2.00295
-2.02672
-2.06291
-2.11136
-2.17203
-3.74057
-3.55328
-3.37976
-3.2208
-3.07691
-2.94811
-2.83432
-2.73534
-2.65096
-2.58096
-2.52512
-2.48325
-2.45516
-2.44068
-2.43965
-2.4519
-2.47731
-2.51572
-2.567
-2.6311
-4.2765
-4.083
-3.90351
-3.73876
-3.58929
-3.45523
-3.3366
-3.2333
-3.14518
-3.07205
-3.01373
-2.97003
-2.9408
-2.92584
-2.92501
-2.93815
-2.9651
-3.00572
-3.05985
-3.12745
-4.86571
-4.66457
-4.47786
-4.30626
-4.15029
-4.01016
-3.88597
-3.77767
-3.68518
-3.60835
-3.54702
-3.50105
-3.47025
-3.45447
-3.45355
-3.46733
-3.49565
-3.53836
-3.59528
-3.66642
-5.51834
-5.308
-5.11266
-4.93293
-4.76932
-4.62209
-4.49139
-4.37722
-4.27955
-4.19827
-4.13325
-4.08436
-4.05144
-4.03433
-4.03288
-4.04693
-4.07633
-4.12088
-4.18044
-4.25502
-6.24815
-6.0268
-5.82115
-5.63175
-5.45908
-5.30344
-5.16501
-5.04384
-4.93994
-4.85322
-4.78361
-4.73096
-4.69514
-4.676
-4.6734
-4.68717
-4.71715
-4.76315
-4.82501
-4.90277
-7.07386
-6.83939
-6.62142
-6.42044
-6.23695
-6.07124
-5.92352
-5.7939
-5.68239
-5.58896
-5.51353
-5.45599
-5.41623
-5.3941
-5.38945
-5.40213
-5.43198
-5.47878
-5.54237
-5.62284
-8.02121
-7.77107
-7.53835
-7.32347
-7.12693
-6.94906
-6.79008
-6.65012
-6.52923
-6.42739
-6.34455
-6.28063
-6.23551
-6.20906
-6.20113
-6.21158
-6.24023
-6.28686
-6.3513
-6.43368
-9.12571
-8.85684
-8.60638
-8.37472
-8.1624
-7.96973
-7.79698
-7.64429
-7.51172
-7.3993
-7.30698
-7.23468
-7.18232
-7.14976
-7.13687
-7.1435
-7.16946
-7.21451
-7.27848
-7.36155
-10.4376
-10.1463
-9.8745
-9.62254
-9.39104
-9.18032
-8.99066
-8.82221
-8.67507
-8.54927
-8.44478
-8.36154
-8.29946
-8.25843
-8.2383
-8.23894
-8.26015
-8.30166
-8.36326
-8.44522
-12.0306
-11.7125
-11.4149
-11.1385
-10.8838
-10.6511
-10.4407
-10.2528
-10.0875
-9.94488
-9.82486
-9.72742
-9.65247
-9.5999
-9.56958
-9.56137
-9.57507
-9.61039
-9.66708
-9.74543
-13.9938
-13.644
-13.3162
-13.0107
-12.7283
-12.4694
-12.2341
-12.0228
-11.8355
-11.6721
-11.5328
-11.4175
-11.3262
-11.2586
-11.2147
-11.1944
-11.1975
-11.2237
-11.2727
-11.3445
-16.3886
-16.0034
-15.641
-15.3026
-14.9887
-14.6999
-14.4363
-14.1981
-13.9853
-13.798
-13.6362
-13.4998
-13.3889
-13.3033
-13.243
-13.2078
-13.1976
-13.2122
-13.2513
-13.314
-19.5259
-19.1009
-18.6996
-18.3247
-17.9765
-17.6549
-17.36
-17.0919
-16.8503
-16.6355
-16.4473
-16.2858
-16.1509
-16.0426
-15.9608
-15.9053
-15.8761
-15.8734
-15.8971
-15.9452
-24.8631
-24.3931
-23.9574
-23.5531
-23.178
-22.8311
-22.512
-22.2205
-21.9567
-21.7205
-21.512
-21.3312
-21.1782
-21.0531
-20.9559
-20.8868
-20.8465
-20.8372
-20.8603
-20.9055
-0.376081
-0.442553
-0.518651
-0.604293
-0.699396
-0.803852
-0.91753
-1.04027
-1.17185
-1.312
-1.46036
-1.61638
-1.77929
-1.94785
-2.12041
-2.29469
-2.46623
-2.62522
-2.75627
-2.88577
-0.697695
-0.766441
-0.845175
-0.933785
-1.03217
-1.14019
-1.25771
-1.38453
-1.52042
-1.66507
-1.81806
-1.97886
-2.14667
-2.32035
-2.49826
-2.67878
-2.86012
-3.03456
-3.18688
-3.35881
-1.04445
-1.11704
-1.19998
-1.29316
-1.39643
-1.50967
-1.63269
-1.7653
-1.90722
-2.05813
-2.2176
-2.38507
-2.5598
-2.74075
-2.92657
-3.11606
-3.30827
-3.4988
-3.68194
-3.8876
-1.41615
-1.49259
-1.5798
-1.67763
-1.78596
-1.9046
-2.03338
-2.17206
-2.32035
-2.47793
-2.64433
-2.81902
-3.00128
-3.19021
-3.38474
-3.58399
-3.78716
-3.99194
-4.19881
-4.42816
-1.8154
-1.89584
-1.98752
-2.09026
-2.20392
-2.32832
-2.46324
-2.60843
-2.76361
-2.92841
-3.1024
-3.28503
-3.47568
-3.67354
-3.87781
-4.08788
-4.30312
-4.52251
-4.74868
-4.99477
-2.24498
-2.32972
-2.4262
-2.53423
-2.65366
-2.78429
-2.92589
-3.07821
-3.24094
-3.41372
-3.59612
-3.78764
-3.9877
-4.19565
-4.41086
-4.63292
-4.86144
-5.0962
-5.33995
-5.60054
-2.70806
-2.79733
-2.89892
-3.01263
-3.13827
-3.27563
-3.42449
-3.58457
-3.75557
-3.93713
-4.12884
-4.33024
-4.5408
-4.76
-4.98735
-5.22256
-5.46543
-5.71615
-5.97695
-6.25227
-3.20849
-3.30261
-3.40962
-3.52934
-3.66161
-3.80619
-3.96287
-4.13135
-4.31135
-4.50251
-4.70445
-4.91673
-5.1389
-5.37051
-5.61119
-5.86071
-6.11898
-6.38632
-6.66432
-6.95543
-3.75175
-3.85078
-3.96341
-4.08944
-4.2287
-4.38096
-4.54599
-4.7235
-4.91321
-5.11478
-5.32784
-5.55201
-5.78687
-6.03204
-6.28721
-6.55219
-6.82693
-7.11172
-7.40756
-7.71583
-4.34461
-4.44859
-4.56705
-4.69958
-4.84611
-5.00643
-5.18028
-5.36738
-5.56746
-5.78018
-6.00521
-6.2422
-6.49076
-6.75058
-7.02136
-7.30294
-7.59525
-7.89846
-8.21313
-8.54005
-4.99646
-5.10534
-5.22943
-5.36865
-5.52264
-5.69125
-5.87426
-6.0714
-6.28237
-6.50689
-6.74463
-6.99526
-7.25845
-7.53388
-7.82131
-8.12055
-8.43149
-8.75416
-9.08882
-9.43594
-5.72024
-5.83371
-5.96331
-6.10889
-6.27034
-6.4473
-6.63961
-6.84703
-7.06926
-7.30601
-7.55701
-7.82194
-8.1005
-8.39237
-8.69732
-9.01515
-9.3457
-9.68885
-10.0446
-10.4134
-6.53409
-6.6515
-6.78612
-6.93765
-7.10602
-7.2913
-7.49286
-7.71042
-7.94392
-8.19307
-8.45761
-8.73722
-9.0316
-9.34047
-9.66358
-10.0007
-10.3517
-10.7162
-11.0941
-11.4858
-7.46384
-7.58413
-7.72278
-7.87951
-8.05408
-8.24651
-8.45758
-8.68446
-8.92886
-9.19013
-9.46802
-9.76226
-10.0726
-10.3986
-10.7402
-11.097
-11.4688
-11.8552
-12.256
-12.6715
-8.54769
-8.66917
-8.81024
-8.97068
-9.15032
-9.34869
-9.56527
-9.80244
-10.0575
-10.3299
-10.6203
-10.9287
-11.2546
-11.5976
-11.9575
-12.3338
-12.7265
-13.1349
-13.5588
-13.9984
-9.84555
-9.96568
-10.1067
-10.2686
-10.4511
-10.654
-10.8766
-11.1192
-11.3819
-11.6651
-11.9674
-12.2891
-12.6297
-12.9885
-13.3654
-13.7602
-14.1728
-14.6026
-15.049
-15.5123
-11.4389
-11.5545
-11.6927
-11.8533
-12.0361
-12.2406
-12.4668
-12.7143
-12.9832
-13.2735
-13.5859
-13.9193
-14.2718
-14.6428
-15.0334
-15.4442
-15.8748
-16.3243
-16.7916
-17.2768
-13.3986
-13.5066
-13.6389
-13.7949
-13.9735
-14.175
-14.3997
-14.6475
-14.9179
-15.2105
-15.5247
-15.8606
-16.2201
-16.6035
-17.0093
-17.436
-17.8832
-18.3507
-18.8374
-19.3423
-16.0155
-16.1074
-16.2234
-16.3649
-16.5331
-16.7274
-16.9468
-17.1911
-17.4599
-17.7527
-18.069
-18.4085
-18.7715
-19.1584
-19.5692
-20.0031
-20.4602
-20.9409
-21.4452
-21.9683
-20.9474
-21.0198
-21.1231
-21.255
-21.4143
-21.6003
-21.8126
-22.0506
-22.3142
-22.603
-22.9167
-23.2553
-23.619
-24.008
-24.4224
-24.8623
-25.3287
-25.8255
-26.3552
-26.9001
-27.4159
-22.502
-19.865
-17.7799
-15.9924
-14.4537
-13.1015
-11.8911
-10.7951
-9.79543
-8.87915
-8.03647
-7.25978
-6.54283
-5.88042
-5.268
-4.70032
-4.17178
-3.69085
-3.28648
-27.9596
-23.0518
-20.4034
-18.298
-16.4867
-14.9224
-13.5442
-12.3083
-11.188
-10.1658
-9.22874
-8.3674
-7.57424
-6.84319
-6.1692
-5.54782
-4.97433
-4.44631
-3.97689
-3.57445
-28.5319
-23.6205
-20.9589
-18.8322
-16.9957
-15.4046
-13.9994
-12.7371
-11.5918
-10.5462
-9.5879
-8.70739
-7.89728
-7.1515
-6.46497
-5.83318
-5.25148
-4.71758
-4.24105
-3.81912
-29.1284
-24.2087
-21.5316
-19.3821
-17.519
-15.8997
-14.4663
-13.1767
-12.0055
-10.9359
-9.95554
-9.05514
-8.22722
-7.4656
-6.76501
-6.12064
-5.52761
-4.98298
-4.49347
-4.05283
-29.7463
-24.8157
-22.1208
-19.9472
-18.0558
-16.4071
-14.9443
-13.6263
-12.4284
-11.3339
-10.3308
-9.40976
-8.56324
-7.78488
-7.06916
-6.41098
-5.80515
-5.24814
-4.74485
-4.28809
-30.3838
-25.4421
-22.7247
-20.5264
-18.6054
-16.9258
-15.4326
-14.0853
-12.8597
-11.7395
-10.713
-9.7706
-8.90478
-8.10897
-7.37739
-6.70467
-6.0854
-5.51568
-4.99914
-4.52831
-31.04
-26.0864
-23.3429
-21.1187
-19.1671
-17.4553
-15.9305
-14.5528
-13.2986
-12.1522
-11.1015
-10.1372
-9.25151
-8.43778
-7.68994
-7.0024
-6.36957
-5.78735
-5.25825
-4.77476
-31.7134
-26.7466
-23.9751
-21.7235
-19.7397
-17.9946
-16.4371
-15.0281
-13.7446
-12.5711
-11.4957
-10.509
-9.60314
-8.77118
-8.00688
-7.30442
-6.65812
-6.06367
-5.52259
-5.02735
-32.4027
-27.4211
-24.6207
-22.3397
-20.3226
-18.5429
-16.9516
-15.5105
-14.197
-12.9957
-11.8951
-10.8857
-9.95932
-9.10894
-8.32809
-7.61075
-6.95109
-6.34465
-5.79199
-5.28559
-33.1067
-28.1089
-25.2784
-22.9666
-20.9147
-19.0994
-17.4733
-15.9991
-14.6549
-13.4254
-12.2992
-11.2667
-10.3196
-9.45073
-8.65329
-7.9211
-7.24821
-6.62993
-6.06595
-5.54875
-33.8241
-28.8089
-25.9474
-23.6031
-21.5151
-19.663
-18.0012
-16.4933
-15.1176
-13.8595
-12.7073
-11.6515
-10.6836
-9.79609
-8.98206
-8.23507
-7.54901
-6.91899
-6.34382
-5.81606
-34.554
-29.5198
-26.6264
-24.2482
-22.1229
-20.2329
-18.5345
-16.992
-15.5845
-14.2972
-13.1188
-12.0395
-11.0506
-10.1445
-9.31386
-8.5521
-7.85292
-7.21118
-6.6249
-6.08671
-35.295
-30.2407
-27.3142
-24.9007
-22.7369
-20.8081
-19.0722
-17.4945
-16.0546
-14.7379
-13.533
-12.43
-11.4202
-10.4953
-9.64811
-8.87159
-8.1593
-7.50585
-6.90846
-6.35994
-36.0462
-30.9703
-28.0098
-25.5596
-23.3561
-21.3875
-19.6133
-17.9999
-16.5271
-15.1807
-13.9492
-12.8224
-11.7915
-10.8479
-9.98415
-9.1929
-8.46751
-7.80232
-7.19381
-6.63502
-36.8064
-31.7073
-28.7117
-26.2237
-23.9794
-21.9701
-20.157
-18.5073
-17.0012
-15.6249
-14.3665
-13.2159
-12.1639
-11.2017
-10.3213
-9.51538
-8.77689
-8.09992
-7.48026
-6.91127
-37.5744
-32.4505
-29.4189
-26.8917
-24.6056
-22.5547
-20.7021
-19.0156
-17.476
-16.0695
-14.7843
-13.6099
-12.5367
-11.5559
-10.659
-9.83836
-9.08677
-8.39799
-7.76715
-7.18805
-38.3497
-33.1988
-30.1298
-27.5624
-25.2335
-23.1403
-21.2475
-19.5239
-17.9506
-16.5138
-15.2016
-14.0034
-12.9092
-11.9098
-10.9965
-10.1612
-9.39652
-8.69592
-8.05388
-7.46474
-39.1338
-33.9516
-30.8431
-28.2341
-25.8616
-23.7254
-21.7921
-20.0311
-18.4239
-16.9567
-15.6177
-14.3957
-13.2806
-12.2628
-11.3331
-10.4832
-9.7055
-8.99306
-8.33983
-7.74079
-39.9269
-34.7077
-31.5568
-28.9052
-26.4886
-24.309
-22.3348
-20.5362
-18.895
-17.3976
-16.0317
-14.7862
-13.6503
-12.6141
-11.6681
-10.8038
-10.0131
-9.28883
-8.62444
-8.01568
-40.7162
-35.4621
-32.2692
-29.5747
-27.1138
-24.8906
-22.8752
-21.0388
-19.3637
-17.836
-16.4434
-15.1743
-14.0177
-12.9633
-12.0012
-11.1224
-10.3188
-9.58278
-8.90725
-8.28897
-6.7689
-4.66558
-3.3075
-2.26382
-1.53081
-0.99251
-0.605922
-0.331492
-0.140952
-0.0125982
0.0701549
0.119915
0.146238
0.156266
0.155297
0.147195
0.134767
0.120009
0.104325
0.0886814
0.0737214
0.0598549
0.0473174
0.0362286
0.0266092
0.0184393
0.0116247
0.00610186
0.00169948
-0.00160789
-0.00408887
-0.00562579
-0.00668231
-0.00682284
-0.00692154
-0.00592543
-0.0055008
-0.00349785
-0.00298607
0.000116636
-7.02426
-4.84773
-3.4536
-2.37887
-1.62178
-1.06608
-0.665938
-0.381072
-0.182297
-0.0473259
0.0408435
0.0951007
0.1252
0.138427
0.140186
0.134416
0.123986
0.110938
0.0967207
0.0823305
0.0684396
0.0554831
0.0437169
0.0332792