/*--------------------------------*- C++ -*----------------------------------*\
  =========                 |
  \\      /  F ield         | OpenFOAM: The Open Source CFD Toolbox
   \\    /   O peration     | Website:  https://openfoam.org
    \\  /    A nd           | Version:  6.0
     \\/     M anipulation  |
\*---------------------------------------------------------------------------*/
FoamFile
{
    version     2.0;
    format      ascii;
    class       volScalarField;
    location    "5.752";
    object      p;
}
// * * * * * * * * * * * * * * * * * * * * * * * * * * * * * * * * * * * * * //

dimensions      [0 2 -2 0 0 0 0];

internalField   nonuniform List<scalar> 
19200
(
-0.410837
-0.405709
-0.401945
-0.398852
-0.396027
-0.393441
-0.39104
-0.38877
-0.386588
-0.384468
-0.38239
-0.38034
-0.378309
-0.376292
-0.374288
-0.372295
-0.370315
-0.368349
-0.3664
-0.36447
-0.362562
-0.360677
-0.358818
-0.356983
-0.355176
-0.353406
-0.35167
-0.34991
-0.348109
-0.346877
-0.415269
-0.409957
-0.406118
-0.402961
-0.400059
-0.397383
-0.394884
-0.392506
-0.39021
-0.387971
-0.385771
-0.383597
-0.381441
-0.379301
-0.377174
-0.375062
-0.372965
-0.370887
-0.368829
-0.366796
-0.364791
-0.362816
-0.360872
-0.358959
-0.357081
-0.355249
-0.353458
-0.351642
-0.349773
-0.348574
-0.420286
-0.414703
-0.410726
-0.407469
-0.404464
-0.401678
-0.399061
-0.39656
-0.394135
-0.391763
-0.389427
-0.387115
-0.384822
-0.382544
-0.380283
-0.378038
-0.375813
-0.37361
-0.371434
-0.369287
-0.367175
-0.3651
-0.363062
-0.361064
-0.359108
-0.357206
-0.355356
-0.353477
-0.351532
-0.350378
-0.425673
-0.419881
-0.415764
-0.412386
-0.409256
-0.406341
-0.403589
-0.400947
-0.398377
-0.395856
-0.393368
-0.390904
-0.388459
-0.386032
-0.383622
-0.381232
-0.378866
-0.376527
-0.374219
-0.371948
-0.369718
-0.367532
-0.365392
-0.363299
-0.361256
-0.359278
-0.357362
-0.355414
-0.353383
-0.352288
-0.431475
-0.42549
-0.421226
-0.41771
-0.414439
-0.411376
-0.408471
-0.405671
-0.40294
-0.400254
-0.3976
-0.394969
-0.392358
-0.389766
-0.387195
-0.384647
-0.382126
-0.379639
-0.377188
-0.374781
-0.372422
-0.370115
-0.367862
-0.365665
-0.363527
-0.361465
-0.359478
-0.357451
-0.355326
-0.354303
-0.437722
-0.431541
-0.427116
-0.423447
-0.420016
-0.416788
-0.413714
-0.410739
-0.40783
-0.404964
-0.402128
-0.399316
-0.396524
-0.393754
-0.391007
-0.388287
-0.385599
-0.38295
-0.380344
-0.377788
-0.375288
-0.372849
-0.370473
-0.368163
-0.365923
-0.363768
-0.361701
-0.359589
-0.357359
-0.356421
-0.44443
-0.438041
-0.43344
-0.429602
-0.425994
-0.422584
-0.419323
-0.416157
-0.413054
-0.409991
-0.406959
-0.40395
-0.400963
-0.398
-0.395063
-0.392158
-0.38929
-0.386466
-0.383691
-0.380974
-0.37832
-0.375736
-0.373227
-0.370793
-0.368439
-0.366184
-0.36403
-0.361825
-0.359479
-0.35864
-0.45161
-0.444997
-0.440206
-0.436183
-0.432382
-0.428772
-0.425307
-0.421933
-0.418618
-0.415344
-0.412099
-0.408878
-0.405681
-0.402511
-0.39937
-0.396265
-0.393203
-0.39019
-0.387234
-0.384342
-0.381522
-0.378781
-0.376125
-0.373556
-0.371078
-0.368713
-0.366464
-0.364155
-0.361682
-0.360955
-0.459275
-0.45242
-0.447423
-0.443198
-0.439186
-0.435359
-0.431672
-0.428073
-0.424531
-0.421027
-0.417554
-0.414106
-0.410685
-0.407292
-0.403933
-0.400615
-0.397344
-0.394129
-0.390977
-0.387897
-0.384898
-0.381987
-0.379171
-0.376454
-0.373842
-0.371356
-0.369001
-0.366578
-0.363965
-0.363365
-0.467435
-0.46032
-0.455098
-0.450654
-0.446413
-0.442352
-0.438425
-0.434584
-0.430797
-0.427049
-0.423332
-0.419642
-0.41598
-0.41235
-0.408759
-0.405212
-0.401719
-0.398287
-0.394926
-0.391644
-0.388451
-0.385355
-0.382367
-0.379489
-0.37673
-0.374114
-0.371643
-0.369093
-0.366326
-0.365864
-0.476101
-0.468705
-0.463242
-0.458561
-0.454073
-0.449758
-0.445574
-0.441473
-0.437425
-0.433416
-0.429439
-0.425491
-0.421574
-0.417693
-0.413855
-0.410066
-0.406336
-0.402673
-0.399088
-0.395589
-0.392188
-0.388894
-0.385717
-0.382665
-0.379745
-0.376986
-0.374388
-0.371698
-0.368761
-0.368449
-0.485286
-0.477587
-0.471863
-0.466926
-0.462172
-0.457585
-0.453126
-0.448747
-0.444422
-0.440136
-0.435883
-0.431662
-0.427476
-0.423329
-0.419229
-0.415184
-0.411203
-0.407295
-0.403471
-0.399741
-0.396116
-0.392608
-0.389227
-0.385983
-0.382888
-0.379973
-0.377237
-0.374393
-0.371269
-0.37112
-0.494999
-0.486976
-0.480971
-0.475758
-0.470719
-0.465842
-0.461089
-0.456415
-0.451795
-0.447216
-0.442672
-0.438163
-0.433693
-0.429266
-0.424891
-0.420575
-0.416329
-0.412161
-0.408084
-0.404107
-0.400244
-0.396505
-0.392904
-0.389452
-0.386164
-0.383077
-0.38019
-0.377176
-0.373848
-0.373873
-0.505254
-0.496881
-0.490575
-0.485067
-0.479722
-0.474535
-0.46947
-0.464484
-0.459552
-0.454664
-0.449814
-0.445003
-0.440234
-0.435514
-0.43085
-0.426251
-0.421725
-0.417284
-0.412938
-0.4087
-0.404581
-0.400596
-0.396758
-0.39308
-0.38958
-0.386302
-0.383247
-0.380049
-0.376494
-0.376704
-0.51606
-0.507313
-0.500683
-0.494859
-0.489189
-0.483672
-0.478277
-0.472961
-0.467701
-0.462488
-0.457317
-0.45219
-0.44711
-0.442084
-0.437118
-0.432222
-0.427404
-0.422675
-0.418046
-0.41353
-0.40914
-0.40489
-0.400797
-0.396874
-0.393143
-0.389655
-0.386412
-0.383012
-0.379211
-0.379611
-0.52743
-0.518281
-0.511303
-0.505142
-0.499126
-0.49326
-0.487516
-0.481853
-0.476249
-0.470697
-0.465191
-0.459735
-0.454331
-0.448986
-0.443706
-0.4385
-0.433377
-0.428347
-0.423421
-0.418611
-0.413933
-0.409401
-0.405033
-0.400844
-0.396859
-0.393139
-0.389688
-0.386061
-0.381998
-0.382598
-0.539373
-0.529793
-0.522445
-0.515925
-0.509542
-0.503306
-0.497195
-0.491168
-0.485205
-0.479298
-0.473445
-0.467646
-0.461907
-0.456231
-0.450626
-0.445099
-0.439659
-0.434315
-0.429078
-0.42396
-0.418976
-0.414143
-0.409478
-0.405
-0.400736
-0.396754
-0.393068
-0.389187
-0.384832
-0.385641
-0.5519
-0.541858
-0.534113
-0.527212
-0.52044
-0.513816
-0.507319
-0.500911
-0.494574
-0.488299
-0.482086
-0.475934
-0.469848
-0.463831
-0.457891
-0.452033
-0.446265
-0.440596
-0.435034
-0.429593
-0.424286
-0.419131
-0.414147
-0.409355
-0.404784
-0.400512
-0.396554
-0.392384
-0.387694
-0.388704
-0.565016
-0.55448
-0.546314
-0.539008
-0.531826
-0.524794
-0.517894
-0.511089
-0.504363
-0.497708
-0.491122
-0.484607
-0.478164
-0.471799
-0.465514
-0.459317
-0.453212
-0.447206
-0.441308
-0.435529
-0.429883
-0.424386
-0.419059
-0.413924
-0.409014
-0.404417
-0.400151
-0.395646
-0.390576
-0.391771
-0.578727
-0.567664
-0.55905
-0.551317
-0.543704
-0.536243
-0.528923
-0.521706
-0.514578
-0.50753
-0.500562
-0.493673
-0.486866
-0.480144
-0.473509
-0.466964
-0.460514
-0.454164
-0.447919
-0.441789
-0.435787
-0.429928
-0.424232
-0.418723
-0.413439
-0.408473
-0.403854
-0.398964
-0.393455
-0.394811
-0.593038
-0.581413
-0.572324
-0.56414
-0.556074
-0.548166
-0.540408
-0.532766
-0.525222
-0.517771
-0.510411
-0.503141
-0.495963
-0.488878
-0.481887
-0.474991
-0.46819
-0.461489
-0.454889
-0.448397
-0.442023
-0.435781
-0.42969
-0.423773
-0.418071
-0.412688
-0.407658
-0.402317
-0.396298
-0.397773
-0.607947
-0.595725
-0.586133
-0.577475
-0.568935
-0.560562
-0.552351
-0.544268
-0.536298
-0.528434
-0.520674
-0.513017
-0.505464
-0.498012
-0.490662
-0.483411
-0.476258
-0.469202
-0.462242
-0.45538
-0.448621
-0.441977
-0.435463
-0.4291
-0.422931
-0.417069
-0.411556
-0.405681
-0.399057
-0.400585
-0.623453
-0.610598
-0.600475
-0.59132
-0.582286
-0.57343
-0.56475
-0.556214
-0.547807
-0.539521
-0.531356
-0.523307
-0.515375
-0.507555
-0.499846
-0.492241
-0.484736
-0.477326
-0.470004
-0.462767
-0.455615
-0.448551
-0.441588
-0.434739
-0.428048
-0.421633
-0.415544
-0.409024
-0.401665
-0.403139
-0.639551
-0.626025
-0.615343
-0.605667
-0.596119
-0.586763
-0.577602
-0.568602
-0.559748
-0.551034
-0.542458
-0.534015
-0.525702
-0.517516
-0.50945
-0.501495
-0.493643
-0.485883
-0.478204
-0.470595
-0.463047
-0.455555
-0.44812
-0.440747
-0.433472
-0.426417
-0.419634
-0.412316
-0.404033
-0.405286
-0.656236
-0.641996
-0.630726
-0.620507
-0.610426
-0.600555
-0.590899
-0.581425
-0.572118
-0.562971
-0.55398
-0.545141
-0.53645
-0.5279
-0.519483
-0.511186
-0.502998
-0.494901
-0.486877
-0.478907
-0.470972
-0.463053
-0.455135
-0.447207
-0.439288
-0.431492
-0.423866
-0.415539
-0.406047
-0.406799
-0.673499
-0.658498
-0.646608
-0.635825
-0.625194
-0.614795
-0.604634
-0.594678
-0.584911
-0.575327
-0.56592
-0.556686
-0.54762
-0.538712
-0.529952
-0.521327
-0.512817
-0.504403
-0.496059
-0.487755
-0.479459
-0.471135
-0.462747
-0.454254
-0.445644
-0.437004
-0.428354
-0.418726
-0.407588
-0.407383
-0.691333
-0.675509
-0.662968
-0.651602
-0.640407
-0.629468
-0.618794
-0.608349
-0.598118
-0.588094
-0.578271
-0.568645
-0.559207
-0.54995
-0.540861
-0.531923
-0.523116
-0.514415
-0.505788
-0.497196
-0.488592
-0.479921
-0.471118
-0.462103
-0.45281
-0.443273
-0.43345
-0.422212
-0.408826
-0.406894
-0.709768
-0.693011
-0.679778
-0.667813
-0.656043
-0.644557
-0.633363
-0.622426
-0.611728
-0.601262
-0.591024
-0.581007
-0.571205
-0.561608
-0.552203
-0.542974
-0.5339
-0.524951
-0.516094
-0.507283
-0.498458
-0.489546
-0.48045
-0.471039
-0.461173
-0.450795
-0.439762
-0.426621
-0.409931
-0.404453
-0.728853
-0.710969
-0.69699
-0.68442
-0.672073
-0.660038
-0.648323
-0.636891
-0.625724
-0.614817
-0.604164
-0.593761
-0.5836
-0.573674
-0.563969
-0.554472
-0.545163
-0.536015
-0.526994
-0.518056
-0.509135
-0.500146
-0.490961
-0.481389
-0.471171
-0.460076
-0.447661
-0.431558
-0.408278
-0.394147
-0.748121
-0.729192
-0.714537
-0.701389
-0.688477
-0.675894
-0.663656
-0.651725
-0.640088
-0.628738
-0.617672
-0.606884
-0.596369
-0.586121
-0.576131
-0.566387
-0.556875
-0.547577
-0.538469
-0.529518
-0.520679
-0.511882
-0.503019
-0.4939
-0.484231
-0.473621
-0.461147
-0.443113
-0.413229
-0.387543
-1.23442
-1.23168
-1.22699
-1.22079
-1.21312
-1.20402
-1.19357
-1.18184
-1.16892
-1.15489
-1.13984
-1.12385
-1.10702
-1.08942
-1.07114
-1.05226
-1.03287
-1.01304
-0.992847
-0.972371
-0.95168
-0.930843
-0.909923
-0.888982
-0.868076
-0.847254
-0.826562
-0.806013
-0.785593
-0.765736
-1.19967
-1.19694
-1.19243
-1.18638
-1.17886
-1.16994
-1.15972
-1.14826
-1.13566
-1.12201
-1.10737
-1.09185
-1.07552
-1.05846
-1.04076
-1.0225
-1.00376
-0.984603
-0.965117
-0.945369
-0.925428
-0.90536
-0.885228
-0.865092
-0.845009
-0.825032
-0.805216
-0.78561
-0.766266
-0.74737
-1.17099
-1.16828
-1.16391
-1.15801
-1.15068
-1.14199
-1.13202
-1.12085
-1.10857
-1.09527
-1.08102
-1.06592
-1.05003
-1.03345
-1.01625
-0.998513
-0.980315
-0.961731
-0.942833
-0.923691
-0.904372
-0.884941
-0.865459
-0.845985
-0.826575
-0.807284
-0.788165
-0.769272
-0.750666
-0.732424
-1.14391
-1.14132
-1.13712
-1.13145
-1.12437
-1.11596
-1.10629
-1.09545
-1.08353
-1.07061
-1.05677
-1.04209
-1.02665
-1.01054
-0.993827
-0.976597
-0.958922
-0.940876
-0.922531
-0.903955
-0.885214
-0.866371
-0.847488
-0.828621
-0.809826
-0.791155
-0.77266
-0.754391
-0.736402
-0.718741
-1.11639
-1.11401
-1.11008
-1.1047
-1.09795
-1.08988
-1.08058
-1.07013
-1.05862
-1.04612
-1.03273
-1.01851
-1.00355
-0.987932
-0.971729
-0.955018
-0.937877
-0.920376
-0.902585
-0.884574
-0.866405
-0.848143
-0.829847
-0.811574
-0.793377
-0.775308
-0.757416
-0.739747
-0.722348
-0.705259
-1.0887
-1.08663
-1.08304
-1.07804
-1.07167
-1.06401
-1.05514
-1.04513
-1.03408
-1.02205
-1.00914
-0.995421
-0.980967
-0.965861
-0.95018
-0.934001
-0.917398
-0.900442
-0.883204
-0.865749
-0.848142
-0.830446
-0.812719
-0.795018
-0.777395
-0.759901
-0.742584
-0.725487
-0.708652
-0.692117
-1.06095
-1.05927
-1.0561
-1.05153
-1.04562
-1.03843
-1.03004
-1.02052
-1.00997
-0.998457
-0.986065
-0.972868
-0.958945
-0.944373
-0.929231
-0.913593
-0.897534
-0.881123
-0.864432
-0.847526
-0.830469
-0.813322
-0.796145
-0.778994
-0.76192
-0.744973
-0.728201
-0.711646
-0.695347
-0.679341
-1.03316
-1.03194
-1.02924
-1.02516
-1.01976
-1.01309
-1.00523
-0.996253
-0.986242
-0.975282
-0.963443
-0.9508
-0.937432
-0.923415
-0.908827
-0.893742
-0.878233
-0.862371
-0.846225
-0.829862
-0.813344
-0.796733
-0.780088
-0.763465
-0.746916
-0.730491
-0.714236
-0.698194
-0.682403
-0.666901
-1.00539
-1.00467
-1.0025
-0.99896
-0.994109
-0.988006
-0.980713
-0.97231
-0.962882
-0.952505
-0.94125
-0.929189
-0.916399
-0.902958
-0.88894
-0.874419
-0.859469
-0.84416
-0.828559
-0.812734
-0.796747
-0.78066
-0.764531
-0.748417
-0.732371
-0.716442
-0.700677
-0.685121
-0.66981
-0.654783
-0.977713
-0.977529
-0.975918
-0.972954
-0.968691
-0.963184
-0.956494
-0.948701
-0.939885
-0.930121
-0.919475
-0.90802
-0.89583
-0.882983
-0.869551
-0.855608
-0.841225
-0.826473
-0.81142
-0.79613
-0.780667
-0.765093
-0.749466
-0.733843
-0.718278
-0.702821
-0.687521
-0.672422
-0.657563
-0.642983
-0.950211
-0.950587
-0.949558
-0.947192
-0.94354
-0.938654
-0.932593
-0.925433
-0.917255
-0.908126
-0.898111
-0.887282
-0.875712
-0.863475
-0.850645
-0.837291
-0.823486
-0.809297
-0.794793
-0.780037
-0.765094
-0.750024
-0.734887
-0.719739
-0.704635
-0.689628
-0.674766
-0.660097
-0.645659
-0.631497
-0.922968
-0.923913
-0.923476
-0.921721
-0.918695
-0.914445
-0.909028
-0.90252
-0.894996
-0.886519
-0.877153
-0.866967
-0.856033
-0.844422
-0.832206
-0.819454
-0.806235
-0.792616
-0.778665
-0.764445
-0.750019
-0.735447
-0.720788
-0.706101
-0.69144
-0.676859
-0.662411
-0.648143
-0.634098
-0.620322
-0.896062
-0.897575
-0.897732
-0.89659
-0.894194
-0.890587
-0.885823
-0.879976
-0.873117
-0.865304
-0.856599
-0.847069
-0.836784
-0.825812
-0.814222
-0.802081
-0.789458
-0.776418
-0.763025
-0.749343
-0.735433
-0.721354
-0.707166
-0.692926
-0.678692
-0.664517
-0.650456
-0.63656
-0.622876
-0.609454
-0.869566
-0.871637
-0.872379
-0.871845
-0.870076
-0.86711
-0.863
-0.857818
-0.851627
-0.844485
-0.836449
-0.827584
-0.817957
-0.807633
-0.796679
-0.785161
-0.773142
-0.760688
-0.747861
-0.73472
-0.721327
-0.70774
-0.694017
-0.680215
-0.666391
-0.652601
-0.638901
-0.625348
-0.611992
-0.598889
-0.843546
-0.846157
-0.847469
-0.847531
-0.846378
-0.844045
-0.840584
-0.836061
-0.830539
-0.824068
-0.816703
-0.808507
-0.799544
-0.789876
-0.779567
-0.768679
-0.757274
-0.745415
-0.733159
-0.720567
-0.707696
-0.694601
-0.681339
-0.667966
-0.654539
-0.641114
-0.627751
-0.614508
-0.601444
-0.58862
-0.818059
-0.821188
-0.823049
-0.823687
-0.823134
-0.82142
-0.818594
-0.814724
-0.809863
-0.804058
-0.797363
-0.789837
-0.78154
-0.772532
-0.762873
-0.752623
-0.74184
-0.730584
-0.71891
-0.706874
-0.69453
-0.681931
-0.669131
-0.656182
-0.643141
-0.630063
-0.617009
-0.604043
-0.59123
-0.578642
-0.793156
-0.796774
-0.799159
-0.800349
-0.800372
-0.799257
-0.797053
-0.793821
-0.789609
-0.784462
-0.77843
-0.771569
-0.763938
-0.755591
-0.746586
-0.73698
-0.726827
-0.716183
-0.7051
-0.69363
-0.681823
-0.669728
-0.657392
-0.644867
-0.632204
-0.619456
-0.606686
-0.593961
-0.581354
-0.56895
-0.768879
-0.772955
-0.775832
-0.777546
-0.778121
-0.777582
-0.775977
-0.773365
-0.769787
-0.765283
-0.759903
-0.753702
-0.746731
-0.739044
-0.730695
-0.721737
-0.712221
-0.702199
-0.691718
-0.680826
-0.669568
-0.657986
-0.646125
-0.634026
-0.621737
-0.609307
-0.596795
-0.584272
-0.571819
-0.559536
-0.745261
-0.749761
-0.753099
-0.755305
-0.756402
-0.756412
-0.755383
-0.753367
-0.750402
-0.746525
-0.741784
-0.736231
-0.729913
-0.722883
-0.715189
-0.706881
-0.698008
-0.688615
-0.678749
-0.668449
-0.657755
-0.646704
-0.63533
-0.623668
-0.611756
-0.599635
-0.587359
-0.574995
-0.562635
-0.550396
-0.722329
-0.727218
-0.730982
-0.733647
-0.735234
-0.735765
-0.735283
-0.733837
-0.731461
-0.728191
-0.724073
-0.719153
-0.713478
-0.707097
-0.700054
-0.692398
-0.684171
-0.675418
-0.666178
-0.656486
-0.646376
-0.635875
-0.625009
-0.613802
-0.602278
-0.590466
-0.578406
-0.56616
-0.553821
-0.541527
-0.700099
-0.705342
-0.709497
-0.712588
-0.714632
-0.715651
-0.715686
-0.714782
-0.71297
-0.710284
-0.706767
-0.702464
-0.697419
-0.691675
-0.685279
-0.678272
-0.670695
-0.662589
-0.653988
-0.644922
-0.635417
-0.625493
-0.615165
-0.60444
-0.593327
-0.581834
-0.569979
-0.557807
-0.545408
-0.53293
-0.678583
-0.684145
-0.688656
-0.692138
-0.694605
-0.696079
-0.6966
-0.696208
-0.694932
-0.692804
-0.689866
-0.686159
-0.681726
-0.676609
-0.670849
-0.664487
-0.657562
-0.650109
-0.64216
-0.633739
-0.624865
-0.61555
-0.605795
-0.595593
-0.584927
-0.57378
-0.562134
-0.549999
-0.537446
-0.524614
-0.657787
-0.663633
-0.668465
-0.672303
-0.67516
-0.677056
-0.678029
-0.678118
-0.677348
-0.675751
-0.673366
-0.670234
-0.666393
-0.661886
-0.656751
-0.651027
-0.644752
-0.637957
-0.630671
-0.622914
-0.6147
-0.60603
-0.596895
-0.587268
-0.577107
-0.566354
-0.554944
-0.542823
-0.530015
-0.516606
-0.63771
-0.643807
-0.648927
-0.653088
-0.656301
-0.658584
-0.659977
-0.660515
-0.66022
-0.659125
-0.657266
-0.654683
-0.651413
-0.647496
-0.642972
-0.637877
-0.632247
-0.626113
-0.6195
-0.612426
-0.604901
-0.596919
-0.588458
-0.579474
-0.569896
-0.559619
-0.548506
-0.536407
-0.52325
-0.508963
-0.618347
-0.624664
-0.63004
-0.634491
-0.638025
-0.640664
-0.642444
-0.643398
-0.643547
-0.642923
-0.641561
-0.6395
-0.636776
-0.63343
-0.629499
-0.62502
-0.620028
-0.614553
-0.608621
-0.602248
-0.595441
-0.58819
-0.580467
-0.57221
-0.56332
-0.553641
-0.542944
-0.530932
-0.517371
-0.501828
-0.599692
-0.606197
-0.611796
-0.616503
-0.620326
-0.623284
-0.625417
-0.626752
-0.627311
-0.627124
-0.626227
-0.624657
-0.622452
-0.61965
-0.616289
-0.612408
-0.60804
-0.603218
-0.597968
-0.592307
-0.586244
-0.579768
-0.572847
-0.565413
-0.557342
-0.548432
-0.538347
-0.526589
-0.512689
-0.495512
-0.581734
-0.588398
-0.594189
-0.59912
-0.603196
-0.60644
-0.60889
-0.61057
-0.611502
-0.611717
-0.611249
-0.610135
-0.608413
-0.606123
-0.603302
-0.59999
-0.596224
-0.592037
-0.587457
-0.582508
-0.5772
-0.571529
-0.565466
-0.558947
-0.551841
-0.543913
-0.534723
-0.523524
-0.509556
-0.490405
-0.564466
-0.571283
-0.577258
-0.582403
-0.586724
-0.590242
-0.592995
-0.595006
-0.596296
-0.596896
-0.596842
-0.59617
-0.594917
-0.593124
-0.590832
-0.58808
-0.584907
-0.581351
-0.577445
-0.573215
-0.568681
-0.563847
-0.558701
-0.553191
-0.547207
-0.540523
-0.532633
-0.522534
-0.509002
-0.486846
-0.547855
-0.554843
-0.56102
-0.566398
-0.570983
-0.574798
-0.577877
-0.580244
-0.581921
-0.582941
-0.583338
-0.583151
-0.582417
-0.581178
-0.579476
-0.577355
-0.574856
-0.57202
-0.568885
-0.565485
-0.561847
-0.557991
-0.553921
-0.549621
-0.545031
-0.540009
-0.534143
-0.526344
-0.514814
-0.488145
-0.53181
-0.538743
-0.544901
-0.550294
-0.554931
-0.558832
-0.562033
-0.564557
-0.566428
-0.567681
-0.56835
-0.568475
-0.568098
-0.567262
-0.566015
-0.564404
-0.562477
-0.560283
-0.557869
-0.555283
-0.552568
-0.549765
-0.546913
-0.544046
-0.541199
-0.538428
-0.535637
-0.532219
-0.528111
-0.507892
-0.442144
-0.490605
-0.537767
-0.584246
-0.629858
-0.674436
-0.717862
-0.760028
-0.800829
-0.840169
-0.877957
-0.91411
-0.948551
-0.981209
-1.01202
-1.04094
-1.0679
-1.09288
-1.11584
-1.13676
-1.15562
-1.17242
-1.18714
-1.1998
-1.21042
-1.219
-1.22558
-1.23016
-1.23276
-1.23374
-0.434228
-0.481529
-0.527747
-0.573128
-0.617554
-0.660909
-0.703099
-0.744029
-0.783603
-0.821732
-0.85833
-0.893319
-0.926625
-0.958182
-0.987931
-1.01582
-1.0418
-1.06585
-1.08792
-1.108
-1.12607
-1.14214
-1.15619
-1.16825
-1.17832
-1.18643
-1.19262
-1.19691
-1.19935
-1.20013
-0.423137
-0.469428
-0.514792
-0.559292
-0.602826
-0.645292
-0.686601
-0.726661
-0.765383
-0.80268
-0.838471
-0.872678
-0.905231
-0.936065
-0.965123
-0.992355
-1.01772
-1.04118
-1.0627
-1.08228
-1.09989
-1.11553
-1.12921
-1.14093
-1.15072
-1.15859
-1.16458
-1.16874
-1.1711
-1.17176
-0.408537
-0.453912
-0.498452
-0.542155
-0.584913
-0.626628
-0.667209
-0.706565
-0.74461
-0.781258
-0.816429
-0.850049
-0.882047
-0.912361
-0.940934
-0.967715
-0.992665
-1.01575
-1.03693
-1.05621
-1.07356
-1.08897
-1.10246
-1.11403
-1.1237
-1.13149
-1.13745
-1.1416
-1.14398
-1.14467
-0.390886
-0.435356
-0.479066
-0.521976
-0.563978
-0.604971
-0.644864
-0.683567
-0.720994
-0.757062
-0.791691
-0.824807
-0.856341
-0.886232
-0.914421
-0.940861
-0.965508
-0.988329
-1.0093
-1.02839
-1.04559
-1.0609
-1.07432
-1.08586
-1.09553
-1.10337
-1.1094
-1.11365
-1.11616
-1.117
-0.370938
-0.414508
-0.457382
-0.4995
-0.540753
-0.58104
-0.62027
-0.658354
-0.695205
-0.730741
-0.764884
-0.79756
-0.8287
-0.858241
-0.886129
-0.912312
-0.936748
-0.959402
-0.980245
-0.999255
-1.01642
-1.03173
-1.04519
-1.0568
-1.06658
-1.07456
-1.08076
-1.08522
-1.08796
-1.08905
-0.349402
-0.392066
-0.434092
-0.475408
-0.515907
-0.55549
-0.594065
-0.631544
-0.667841
-0.702873
-0.736563
-0.768838
-0.799628
-0.828871
-0.856511
-0.882498
-0.906788
-0.929343
-0.950134
-0.969138
-0.986339
-1.00173
-1.01531
-1.02708
-1.03706
-1.04526
-1.05173
-1.05647
-1.05953
-1.06096
-0.326909
-0.36865
-0.409808
-0.450304
-0.490035
-0.528902
-0.566816
-0.603687
-0.639432
-0.673967
-0.707216
-0.739106
-0.769567
-0.798538
-0.825961
-0.851785
-0.875966
-0.898464
-0.91925
-0.938296
-0.955587
-0.971112
-0.984868
-0.996859
-1.00709
-1.01559
-1.02238
-1.02748
-1.03092
-1.03276
-0.304
-0.344797
-0.385066
-0.424721
-0.463663
-0.501796
-0.539033
-0.575284
-0.610466
-0.644498
-0.677302
-0.708807
-0.738943
-0.767647
-0.794863
-0.820538
-0.844627
-0.867089
-0.887891
-0.907008
-0.924419
-0.940112
-0.954081
-0.966329
-0.976863
-0.985696
-0.992851
-0.998353
-1.00223
-1.00452
-0.281116
-0.320953
-0.360311
-0.399104
-0.437236
-0.474616
-0.511155
-0.546768
-0.581371
-0.614885
-0.647232
-0.67834
-0.708141
-0.736573
-0.763577
-0.7891
-0.813097
-0.835526
-0.856351
-0.875546
-0.893088
-0.908964
-0.923164
-0.935689
-0.946542
-0.955736
-0.963287
-0.96922
-0.973555
-0.976336
-0.258608
-0.29747
-0.3359
-0.373813
-0.411117
-0.447724
-0.483547
-0.518501
-0.552506
-0.585482
-0.617352
-0.648046
-0.677496
-0.705639
-0.732416
-0.757775
-0.781668
-0.804053
-0.824893
-0.84416
-0.861831
-0.877888
-0.892321
-0.905127
-0.916307
-0.92587
-0.93383
-0.940207
-0.945022
-0.948311
-0.236742
-0.27462
-0.31211
-0.34913
-0.38559
-0.421407
-0.456495
-0.490773
-0.52416
-0.556578
-0.587952
-0.618211
-0.647288
-0.67512
-0.701649
-0.726823
-0.750591
-0.772913
-0.79375
-0.813073
-0.830856
-0.847082
-0.861737
-0.874814
-0.886315
-0.896243
-0.904611
-0.911435
-0.916732
-0.920536
-0.215709
-0.252599
-0.289144
-0.325261
-0.360868
-0.395882
-0.430222
-0.463807
-0.496559
-0.5284
-0.559257
-0.589059
-0.617741
-0.645239
-0.671496
-0.696458
-0.720077
-0.74231
-0.76312
-0.782474
-0.800347
-0.81672
-0.831576
-0.844907
-0.856711
-0.86699
-0.875753
-0.883013
-0.888786
-0.8931
-0.195639
-0.231544
-0.267142
-0.302354
-0.337102
-0.371307
-0.404889
-0.437771
-0.469873
-0.501122
-0.531443
-0.560769
-0.589032
-0.616172
-0.64213
-0.666854
-0.690296
-0.712412
-0.733165
-0.752523
-0.770458
-0.786949
-0.801979
-0.815538
-0.827621
-0.838229
-0.847366
-0.855044
-0.861276
-0.866085
-0.176614
-0.21154
-0.246195
-0.280504
-0.314393
-0.347787
-0.380608
-0.412779
-0.444223
-0.474866
-0.504637
-0.533468
-0.561293
-0.588051
-0.613687
-0.638146
-0.661382
-0.683352
-0.704018
-0.723347
-0.741312
-0.757891
-0.773064
-0.786821
-0.799153
-0.81006
-0.819544
-0.827614
-0.834281
-0.839564
-0.158674
-0.192632
-0.226352
-0.259765
-0.292801
-0.325387
-0.357447
-0.388905
-0.419686
-0.449716
-0.478926
-0.507246
-0.534615
-0.560973
-0.586262
-0.610432
-0.633435
-0.65523
-0.675778
-0.695048
-0.71301
-0.729643
-0.744926
-0.758847
-0.771395
-0.782569
-0.792368
-0.8008
-0.807872
-0.813601
-0.141829
-0.174831
-0.207629
-0.240157
-0.27235
-0.304137
-0.335442
-0.366191
-0.396307
-0.425721
-0.45436
-0.482161
-0.50906
-0.534998
-0.559921
-0.583779
-0.606524
-0.628117
-0.648519
-0.667697
-0.685625
-0.702278
-0.717637
-0.731687
-0.744417
-0.755822
-0.765903
-0.774662
-0.782108
-0.788251
-0.126066
-0.158127
-0.190017
-0.221675
-0.25304
-0.28404
-0.314601
-0.344647
-0.374103
-0.4029
-0.430967
-0.45824
-0.484657
-0.510163
-0.534704
-0.558229
-0.580694
-0.602059
-0.622288
-0.641347
-0.659209
-0.67585
-0.69125
-0.705394
-0.718271
-0.729873
-0.740199
-0.749252
-0.757035
-0.763559
-0.111355
-0.14249
-0.173488
-0.204295
-0.234849
-0.26508
-0.29491
-0.324264
-0.353069
-0.381252
-0.408746
-0.435488
-0.461418
-0.486481
-0.510624
-0.533801
-0.555967
-0.577083
-0.597113
-0.616026
-0.633794
-0.650392
-0.665802
-0.680007
-0.692995
-0.704759
-0.715296
-0.724605
-0.732691
-0.739561
-0.0976545
-0.127875
-0.157999
-0.187976
-0.217742
-0.247223
-0.276341
-0.305019
-0.333181
-0.360758
-0.387683
-0.413893
-0.439332
-0.463944
-0.487681
-0.510496
-0.532347
-0.553195
-0.573006
-0.591748
-0.609396
-0.625924
-0.641313
-0.655547
-0.668615
-0.680507
-0.691219
-0.70075
-0.709102
-0.716282
-0.084915
-0.114229
-0.143499
-0.172669
-0.201671
-0.230426
-0.258853
-0.286872
-0.314406
-0.341387
-0.367749
-0.393431
-0.418377
-0.442536
-0.465859
-0.488302
-0.509825
-0.530389
-0.549962
-0.568514
-0.586018
-0.60245
-0.617792
-0.632026
-0.645142
-0.65713
-0.667984
-0.677703
-0.686287
-0.693741
-0.0730806
-0.101491
-0.129927
-0.158316
-0.186582
-0.214639
-0.242399
-0.269778
-0.296701
-0.323099
-0.348906
-0.374065
-0.398522
-0.422226
-0.445131
-0.467196
-0.48838
-0.508649
-0.527969
-0.546312
-0.563652
-0.579966
-0.595236
-0.609445
-0.62258
-0.634634
-0.645599
-0.655473
-0.664255
-0.671949
-0.06209
-0.0895887
-0.117215
-0.144855
-0.172418
-0.199807
-0.226925
-0.253687
-0.280017
-0.305845
-0.331109
-0.355754
-0.379725
-0.402976
-0.425463
-0.447145
-0.467985
-0.487948
-0.507003
-0.525123
-0.542282
-0.558459
-0.573635
-0.587794
-0.600924
-0.613016
-0.624062
-0.63406
-0.643008
-0.650909
-0.0518732
-0.0784401
-0.105287
-0.132214
-0.159111
-0.185865
-0.212372
-0.238541
-0.264297
-0.289572
-0.314306
-0.338446
-0.36194
-0.384742
-0.406812
-0.42811
-0.448601
-0.468253
-0.487034
-0.504918
-0.521883
-0.537906
-0.55297
-0.567058
-0.58016
-0.592265
-0.603366
-0.613459
-0.622543
-0.63062
-0.0423441
-0.0679552
-0.0940674
-0.120328
-0.146602
-0.172761
-0.198687
-0.224288
-0.249491
-0.274231
-0.29845
-0.322096
-0.345121
-0.367482
-0.389138
-0.410054
-0.430194
-0.449529
-0.468029
-0.48567
-0.502428
-0.518284
-0.533219
-0.547219
-0.560271
-0.572366
-0.583497
-0.59366
-0.602852
-0.611076
-0.0333926
-0.058076
-0.0835419
-0.10919
-0.134892
-0.160495
-0.18587
-0.210927
-0.235596
-0.259816
-0.283532
-0.306695
-0.32926
-0.351184
-0.37243
-0.392963
-0.412752
-0.431766
-0.449978
-0.467366
-0.483907
-0.499581
-0.514372
-0.528265
-0.541248
-0.553311
-0.564448
-0.574654
-0.583927
-0.592269
-0.0248591
-0.0486994
-0.0736633
-0.0987697
-0.123945
-0.149029
-0.173879
-0.198411
-0.222563
-0.246276
-0.269501
-0.29219
-0.314301
-0.335795
-0.356634
-0.376787
-0.396223
-0.414915
-0.432836
-0.449964
-0.46628
-0.481763
-0.496397
-0.510168
-0.523065
-0.535077
-0.546199
-0.556426
-0.565755
-0.574188
-0.0162645
-0.039039
-0.0636771
-0.0883572
-0.113089
-0.137712
-0.162083
-0.186131
-0.209802
-0.233045
-0.255813
-0.278063
-0.299753
-0.320848
-0.341311
-0.361112
-0.380224
-0.398618
-0.416271
-0.433162
-0.449271
-0.46458
-0.479073
-0.492735
-0.505556
-0.517527
-0.52864
-0.53889
-0.548277
-0.5568
-0.00631968
-0.0277095
-0.0523849
-0.0769234
-0.101426
-0.125737
-0.149747
-0.173416
-0.196704
-0.219567
-0.241963
-0.263852
-0.285195
-0.305957
-0.326106
-0.345613
-0.364453
-0.382599
-0.40003
-0.416726
-0.432668
-0.447838
-0.462222
-0.475805
-0.488578
-0.500531
-0.511658
-0.521955
-0.531419
-0.54005
0.00356215
-0.020037
-0.0457777
-0.0703985
-0.0947957
-0.118838
-0.142464
-0.165699
-0.188528
-0.210918
-0.232831
-0.254232
-0.275085
-0.295358
-0.315024
-0.334055
-0.35243
-0.370126
-0.387124
-0.403406
-0.418957
-0.43376
-0.447803
-0.461074
-0.473563
-0.485263
-0.496169
-0.506276
-0.515584
-0.524094
0.52433
0.531326
0.538487
0.545777
0.553194
0.560734
0.568388
0.576145
0.583992
0.591913
0.599889
0.607897
0.615915
0.623915
0.631869
0.63975
0.64753
0.655186
0.662703
0.670078
0.677326
0.684492
0.691659
0.698961
0.706608
0.714903
0.724166
0.734679
0.748275
0.768097
0.516879
0.523603
0.530597
0.537701
0.544908
0.552228
0.55965
0.567164
0.574752
0.582399
0.590083
0.597783
0.605472
0.613123
0.620706
0.628191
0.635549
0.642757
0.649799
0.65667
0.663388
0.669999
0.67659
0.683304
0.690359
0.698073
0.706785
0.71681
0.730032
0.749732
0.508571
0.514973
0.521777
0.528667
0.535636
0.542703
0.549862
0.557096
0.56439
0.571725
0.579079
0.586429
0.593746
0.601002
0.608167
0.615207
0.622095
0.628804
0.635317
0.641631
0.647766
0.653769
0.659734
0.66581
0.672228
0.679322
0.687456
0.696977
0.70984
0.72943
0.499414
0.505447
0.512035
0.518686
0.525386
0.53217
0.539032
0.545953
0.552917
0.559902
0.566887
0.573846
0.580749
0.587567
0.594267
0.600816
0.607183
0.613343
0.619277
0.624983
0.630482
0.635827
0.641115
0.646506
0.652243
0.658677
0.666195
0.675176
0.687614
0.706938
0.489419
0.495035
0.501382
0.50777
0.514171
0.52064
0.527173
0.533748
0.540346
0.546945
0.553522
0.56005
0.566498
0.572834
0.579024
0.585034
0.590833
0.596392
0.601697
0.606744
0.611557
0.616193
0.620757
0.625416
0.630427
0.636159
0.643022
0.651424
0.663382
0.682335
0.478597
0.48375
0.489834
0.495931
0.502005
0.508129
0.5143
0.520496
0.526693
0.53287
0.539001
0.545058
0.551009
0.556821
0.562457
0.567882
0.573064
0.577976
0.582601
0.58694
0.591018
0.594897
0.598688
0.60257
0.606812
0.611801
0.61797
0.625753
0.637184
0.655692
0.466961
0.471605
0.477403
0.483185
0.488903
0.494651
0.500431
0.506214
0.511976
0.517696
0.523344
0.528893
0.534307
0.539551
0.544589
0.549385
0.553905
0.558122
0.56202
0.565601
0.568896
0.571971
0.574944
0.578004
0.581435
0.585641
0.591077
0.598205
0.609066
0.627065
0.454524
0.458618
0.464107
0.469549
0.474882
0.480227
0.485583
0.490922
0.496217
0.501444
0.506575
0.511576
0.516414
0.521051
0.525449
0.529571
0.533385
0.536861
0.539986
0.542764
0.545229
0.547454
0.549564
0.55176
0.55434
0.557724
0.56239
0.568828
0.579077
0.59651
0.441301
0.444804
0.449963
0.455041
0.459963
0.464874
0.469779
0.474643
0.479439
0.48414
0.488717
0.493135
0.497358
0.501348
0.505066
0.508473
0.511537
0.514229
0.516536
0.518467
0.520059
0.521389
0.522595
0.523886
0.525576
0.528103
0.531964
0.537676
0.547276
0.564088
0.427309
0.430182
0.434992
0.439682
0.444166
0.448617
0.453041
0.457401
0.461666
0.465808
0.469797
0.473597
0.477169
0.480474
0.483473
0.486126
0.488398
0.490264
0.491712
0.492753
0.493429
0.493824
0.494085
0.494434
0.495197
0.496832
0.499856
0.504812
0.513725
0.529867
0.412565
0.414772
0.419213
0.423493
0.427514
0.431478
0.435394
0.43922
0.442924
0.446478
0.449847
0.452994