/*--------------------------------*- C++ -*----------------------------------*\
| =========                 |                                                 |
| \\      /  F ield         | OpenFOAM: The Open Source CFD Toolbox           |
|  \\    /   O peration     | Version:  v1912                                 |
|   \\  /    A nd           | Website:  www.openfoam.com                      |
|    \\/     M anipulation  |                                                 |
\*---------------------------------------------------------------------------*/
FoamFile
{
    version     2.0;
    format      ascii;
    class       volScalarField;
    location    "21.5";
    object      p;
}
// * * * * * * * * * * * * * * * * * * * * * * * * * * * * * * * * * * * * * //

dimensions      [0 2 -2 0 0 0 0];


internalField   nonuniform List<scalar> 
9600
(
-41.2062
-35.9253
-32.6823
-29.9292
-27.4123
-25.1382
-23.078
-21.2034
-19.4965
-17.9429
-16.5296
-15.2443
-14.0753
-13.0116
-12.0428
-11.1594
-10.3529
-9.61521
-8.93873
-8.32138
-41.9336
-36.6363
-33.359
-30.5648
-28.0047
-25.6883
-23.5886
-21.6779
-19.9386
-18.3565
-16.9181
-15.6109
-14.4226
-13.3419
-12.358
-11.4612
-10.6426
-9.89383
-9.20682
-8.58074
-42.663
-37.3437
-34.0306
-31.1952
-28.5916
-26.2328
-24.0935
-22.1469
-20.3755
-18.7651
-17.3019
-15.9729
-14.7657
-13.6682
-12.6696
-11.7595
-10.929
-10.1691
-9.47164
-8.83702
-43.3912
-38.0471
-34.6967
-31.8194
-29.1721
-26.7708
-24.592
-22.6096
-20.8064
-19.1679
-17.6803
-16.3299
-15.104
-13.9901
-12.9768
-12.0538
-11.2114
-10.4407
-9.73279
-9.0899
-44.1153
-38.7449
-35.3565
-32.4366
-29.7452
-27.3013
-25.083
-23.065
-21.2303
-19.5642
-18.0525
-16.6811
-15.4368
-14.3068
-13.2793
-12.3435
-11.4896
-10.708
-9.98994
-9.3391
-44.8334
-39.4359
-36.0086
-33.0456
-30.3099
-27.8234
-25.5657
-23.5124
-21.6465
-19.9532
-18.4178
-17.0259
-15.7636
-14.6179
-13.5764
-12.6281
-11.7629
-10.9708
-10.2428
-9.58437
-45.5436
-40.1186
-36.652
-33.6454
-30.8651
-28.336
-26.0393
-23.951
-22.0543
-20.3342
-18.7756
-17.3635
-16.0838
-14.9227
-13.8676
-12.9072
-12.0311
-11.2287
-10.4909
-9.82542
-46.2446
-40.7916
-37.2854
-34.2349
-31.4099
-28.8383
-26.5027
-24.3798
-22.4528
-20.7064
-19.125
-17.6934
-16.3966
-15.2206
-14.1524
-13.1802
-12.2935
-11.4812
-10.734
-10.062
-46.935
-41.4538
-37.9078
-34.8129
-31.9433
-29.3293
-26.9551
-24.7979
-22.8411
-21.069
-19.4655
-18.0147
-16.7013
-15.5109
-14.43
-13.4465
-12.5496
-11.7278
-10.9717
-10.2937
-47.6136
-42.104
-38.5179
-35.3786
-32.4642
-29.808
-27.3956
-25.2047
-23.2186
-21.4212
-19.796
-18.3267
-16.9972
-15.7929
-14.6997
-13.7055
-12.7989
-11.968
-11.2034
-10.5201
-48.2794
-42.7411
-39.1147
-35.9309
-32.9718
-30.2736
-27.8233
-25.5992
-23.5843
-21.7622
-20.116
-18.6285
-17.2836
-16.0657
-14.9609
-13.9564
-13.0406
-12.2011
-11.4285
-10.7407
-48.9315
-43.3641
-39.6974
-36.4688
-33.4651
-30.7253
-28.2375
-25.9806
-23.9375
-22.0913
-20.4245
-18.9195
-17.5595
-16.3287
-15.2126
-14.1982
-13.2737
-12.4263
-11.6463
-10.9546
-49.5691
-43.9723
-40.265
-36.9915
-33.9433
-31.1621
-28.6373
-26.3481
-24.2773
-22.4075
-20.7206
-19.1985
-17.8239
-16.5806
-15.4537
-14.4301
-13.4975
-12.6426
-11.8559
-11.1611
-50.1918
-44.5648
-40.8167
-37.4983
-34.4057
-31.5834
-29.022
-26.7011
-24.603
-22.7101
-21.0036
-19.4648
-18.076
-16.8204
-15.6831
-14.6506
-13.7104
-12.8487
-12.056
-11.3595
-50.7989
-45.1408
-41.3516
-37.9883
-34.8515
-31.9884
-29.391
-27.0387
-24.914
-22.9984
-21.2726
-19.7174
-18.3145
-17.047
-15.8994
-14.8581
-13.9105
-13.0425
-12.2447
-11.548
-51.3901
-45.6996
-41.8693
-38.461
-35.2801
-32.3767
-29.7436
-27.3607
-25.2097
-23.2718
-21.527
-19.9556
-18.5388
-17.2592
-16.1013
-15.0512
-14.0962
-13.2219
-12.4192
-11.7213
-51.9666
-46.2412
-42.3689
-38.9157
-35.691
-32.7476
-30.0794
-27.6663
-25.4895
-23.5297
-21.7661
-20.1786
-18.7478
-17.4561
-16.2878
-15.229
-14.267
-13.3869
-12.5785
-11.8762
-52.5328
-46.7666
-42.8496
-39.3512
-36.0831
-33.1004
-30.3979
-27.9552
-25.7533
-23.7718
-21.9896
-20.3857
-18.9404
-17.636
-16.4567
-15.3889
-14.4202
-13.5346
-12.7215
-12.0235
-53.0908
-47.2752
-43.31
-39.7664
-36.4561
-33.4352
-30.6993
-28.228
-26.0014
-23.9987
-22.1978
-20.5771
-19.1164
-17.7976
-16.6048
-15.5247
-14.5445
-13.6484
-12.8339
-12.1671
-53.6187
-47.7596
-43.749
-40.1621
-36.8112
-33.7535
-30.9853
-28.4862
-26.2357
-24.2122
-22.3929
-20.7552
-19.2784
-17.9434
-16.7338
-15.635
-14.632
-13.7114
-12.8865
-12.2255
-58.8859
-58.8554
-58.788
-58.6984
-58.5858
-58.4477
-58.2836
-58.0939
-57.8793
-57.6402
-57.3773
-57.091
-56.7821
-56.4513
-56.0992
-55.7268
-55.3352
-54.9261
-54.5024
-54.0671
-52.5597
-52.5574
-52.5228
-52.4616
-52.3745
-52.2609
-52.121
-51.9556
-51.7654
-51.5509
-51.3128
-51.0517
-50.7682
-50.463
-50.1366
-49.7898
-49.4233
-49.0375
-48.633
-48.2077
-47.9518
-47.9731
-47.966
-47.9309
-47.8692
-47.7817
-47.669
-47.5318
-47.3706
-47.1861
-46.9787
-46.7492
-46.4981
-46.2258
-45.933
-45.6199
-45.2871
-44.9345
-44.5618
-44.1672
-43.7629
-43.8013
-43.8139
-43.8002
-43.7611
-43.6975
-43.6102
-43.4997
-43.3665
-43.2112
-43.0344
-42.8364
-42.618
-42.3794
-42.1211
-41.8435
-41.5466
-41.2305
-40.8949
-40.539
-39.8955
-39.9434
-39.9681
-39.9688
-39.946
-39.9005
-39.8328
-39.7436
-39.6332
-39.5022
-39.3512
-39.1805
-38.9907
-38.7822
-38.5553
-38.3102
-38.0472
-37.7661
-37.4668
-37.1488
-36.426
-36.4778
-36.5087
-36.5178
-36.5053
-36.4716
-36.4176
-36.3437
-36.2503
-36.1379
-36.007
-35.858
-35.6915
-35.5078
-35.3073
-35.0902
-34.8567
-34.6065
-34.3397
-34.0557
-33.3438
-33.3956
-33.4283
-33.441
-33.4337
-33.4071
-33.3617
-33.2979
-33.2163
-33.1172
-33.0012
-32.8688
-32.7203
-32.5563
-32.3771
-32.1829
-31.9739
-31.75
-31.511
-31.2564
-30.6117
-30.6609
-30.6922
-30.7052
-30.6998
-30.6765
-30.6359
-30.5785
-30.5045
-30.4146
-30.3092
-30.1888
-30.0539
-29.905
-29.7425
-29.5667
-29.3777
-29.1756
-28.96
-28.7306
-28.1901
-28.2349
-28.2632
-28.2744
-28.2686
-28.2463
-28.208
-28.154
-28.0848
-28.0009
-27.9029
-27.7912
-27.6663
-27.5289
-27.3794
-27.2181
-27.0454
-26.8613
-26.6654
-26.4573
-26.0394
-26.0792
-26.1035
-26.1119
-26.1045
-26.0817
-26.044
-25.9917
-25.9253
-25.8453
-25.7523
-25.6468
-25.5294
-25.4007
-25.2612
-25.1116
-24.9521
-24.7829
-24.6037
-24.414
-24.1228
-24.1575
-24.1776
-24.1828
-24.1731
-24.149
-24.1109
-24.0593
-23.9945
-23.917
-23.8274
-23.7264
-23.6144
-23.4924
-23.3608
-23.2205
-23.0719
-22.9153
-22.7506
-22.577
-22.4078
-22.4375
-22.4535
-22.4554
-22.4433
-22.4176
-22.3788
-22.3271
-22.2631
-22.1873
-22.1001
-22.0023
-21.8945
-21.7776
-21.6523
-21.5195
-21.38
-21.2341
-21.0821
-20.9231
-20.8663
-20.8915
-20.9036
-20.9024
-20.8879
-20.8606
-20.8208
-20.7689
-20.7053
-20.6305
-20.5451
-20.4497
-20.3451
-20.2322
-20.1118
-19.9851
-19.8532
-19.7167
-19.5762
-19.4308
-19.4747
-19.4959
-19.5045
-19.5004
-19.4838
-19.4549
-19.4142
-19.362
-19.2986
-19.2246
-19.1405
-19.047
-18.9448
-18.8349
-18.7184
-18.5966
-18.471
-18.3427
-18.2128
-18.0803
-18.2133
-18.2309
-18.2364
-18.2298
-18.2113
-18.181
-18.1395
-18.0869
-18.0237
-17.9503
-17.8673
-17.7752
-17.675
-17.5674
-17.4539
-17.3358
-17.2153
-17.0938
-16.9738
-16.8541
-17.0657
-17.08
-17.0828
-17.0739
-17.0537
-17.0223
-16.98
-16.9272
-16.8642
-16.7913
-16.7092
-16.6183
-16.5194
-16.4136
-16.3021
-16.1867
-16.0698
-15.9537
-15.8428
-15.7357
-16.0181
-16.0295
-16.0298
-16.019
-15.9973
-15.9648
-15.9219
-15.8689
-15.8059
-15.7335
-15.652
-15.562
-15.4641
-15.3593
-15.249
-15.1348
-15.0201
-14.9074
-14.8041
-14.7081
-15.0585
-15.0676
-15.066
-15.0537
-15.0309
-14.9978
-14.9545
-14.9014
-14.8387
-14.7667
-14.6859
-14.5965
-14.4993
-14.3951
-14.285
-14.1708
-14.0563
-13.945
-13.8481
-13.7606
-14.176
-14.1836
-14.1811
-14.1684
-14.1455
-14.1126
-14.07
-14.0179
-13.9565
-13.8861
-13.8069
-13.7194
-13.6239
-13.5212
-13.4121
-13.2982
-13.1829
-13.0712
-12.9808
-12.9065
-13.3651
-13.3696
-13.3645
-13.35
-13.326
-13.2927
-13.2504
-13.1991
-13.139
-13.0704
-12.9935
-12.9086
-12.8159
-12.7158
-12.6088
-12.4959
-12.3789
-12.2628
-12.1661
-12.1152
-52.7797
-53.3366
-53.8573
-54.3639
-54.8536
-55.3202
-55.7611
-56.175
-56.5612
-56.9188
-57.2469
-57.5452
-57.8134
-58.0511
-58.2578
-58.4335
-58.5789
-58.6951
-58.7843
-58.8482
-46.3247
-46.8872
-47.4225
-47.9363
-48.4281
-48.8957
-49.3374
-49.7526
-50.1408
-50.5013
-50.8334
-51.1369
-51.412
-51.6591
-51.877
-52.0649
-52.2228
-52.3514
-52.4511
-52.5208
-41.7182
-42.2689
-42.7968
-43.3021
-43.7847
-44.244
-44.6792
-45.0895
-45.4745
-45.8335
-46.1654
-46.4701
-46.7474
-46.9962
-47.2168
-47.41
-47.5758
-47.7136
-47.8231
-47.9029
-37.6331
-38.1595
-38.6669
-39.1534
-39.6185
-40.0618
-40.4829
-40.881
-41.2555
-41.6058
-41.9309
-42.2299
-42.504
-42.7526
-42.9756
-43.1729
-43.3444
-43.4894
-43.6078
-43.699
-33.992
-34.4893
-34.9702
-35.4322
-35.8742
-36.2959
-36.6968
-37.0762
-37.4334
-37.768
-38.0803
-38.3701
-38.636
-38.878
-39.0964
-39.2907
-39.4608
-39.6065
-39.7277
-39.8242
-30.826
-31.293
-31.7451
-32.18
-32.5963
-32.9937
-33.3717
-33.7297
-34.0672
-34.384
-34.6799
-34.9543
-35.2065
-35.4368
-35.6454
-35.8322
-35.9963
-36.1377
-36.2565
-36.3528
-28.0829
-28.5201
-28.9437
-29.3513
-29.7415
-30.114
-30.4683
-30.8039
-31.1204
-31.4174
-31.6947
-31.9519
-32.1889
-32.4052
-32.6004
-32.7769
-32.9324
-33.0667
-33.1799
-33.2725
-25.6967
-26.1061
-26.5027
-26.8842
-27.2494
-27.5978
-27.929
-28.2425
-28.5379
-28.815
-29.0735
-29.3133
-29.5342
-29.7361
-29.919
-30.0812
-30.2265
-30.3521
-30.458
-30.5447
-23.6096
-23.9936
-24.3654
-24.7228
-25.0648
-25.3907
-25.7001
-25.9926
-26.2679
-26.5259
-26.7664
-26.9892
-27.1943
-27.3816
-27.5511
-27.7026
-27.8351
-27.951
-28.0488
-28.1286
-21.7722
-22.1333
-22.4827
-22.8184
-23.1391
-23.4443
-23.7337
-24.0068
-24.2635
-24.5037
-24.7272
-24.9341
-25.1242
-25.2976
-25.454
-25.5936
-25.7161
-25.8219
-25.9113
-25.9839
-20.1434
-20.4841
-20.8135
-21.1297
-21.4313
-21.7177
-21.9887
-22.2441
-22.4837
-22.7075
-22.9155
-23.1076
-23.2839
-23.4443
-23.5887
-23.7173
-23.8298
-23.9265
-24.0078
-24.0733
-18.6898
-19.0124
-19.3243
-19.6232
-19.9075
-20.1769
-20.4313
-20.6704
-20.8944
-21.1032
-21.2969
-21.4756
-21.6392
-21.7878
-21.9213
-22.0397
-22.1431
-22.2316
-22.305
-22.364
-17.3846
-17.6913
-17.988
-18.2715
-18.5404
-18.7943
-19.0334
-19.2577
-19.4674
-19.6625
-19.8432
-20.0097
-20.1618
-20.2996
-20.4231
-20.5324
-20.6275
-20.7082
-20.7745
-20.8277
-16.2063
-16.4991
-16.7828
-17.0528
-17.3075
-17.5473
-17.7724
-17.9831
-18.1796
-18.3622
-18.5311
-18.6863
-18.828
-18.9561
-19.0707
-19.1717
-19.2592
-19.3333
-19.3942
-19.4409
-15.1378
-15.4188
-15.6915
-15.9494
-16.1911
-16.4177
-16.6298
-16.8278
-17.0122
-17.1833
-17.3413
-17.4863
-17.6185
-17.7378
-17.8442
-17.9378
-18.0186
-18.0865
-18.1416
-18.1837
-14.1643
-14.4371
-14.7011
-14.9476
-15.177
-15.3912
-15.591
-15.7771
-15.95
-16.1104
-16.2584
-16.3941
-16.5176
-16.6289
-16.728
-16.8148
-16.8894
-16.9518
-17.0019
-17.0398
-13.2683
-13.5402
-13.7995
-14.035
-14.2523
-14.4546
-14.6426
-14.8174
-14.9798
-15.1302
-15.269
-15.3962
-15.5119
-15.616
-15.7084
-15.7892
-15.8584
-15.9158
-15.9615
-15.9955
-12.4291
-12.7056
-12.9663
-13.193
-13.3988
-13.5899
-13.7673
-13.9319
-14.0849
-14.2267
-14.3576
-14.4776
-14.5867
-14.6847
-14.7717
-14.8475
-14.9122
-14.9656
-15.0078
-15.0388
-11.6588
-11.9271
-12.1892
-12.4113
-12.6075
-12.7877
-12.9551
-13.1107
-13.2553
-13.3895
-13.5136
-13.6274
-13.7308
-13.8238
-13.9063
-13.9781
-14.0392
-14.0895
-14.129
-14.1579
-11.0805
-11.328
-11.5528
-11.7653
-11.9502
-12.1134
-12.2649
-12.4067
-12.5385
-12.6606
-12.7735
-12.8769
-12.9708
-13.0549
-13.1291
-13.1935
-13.2478
-13.2921
-13.3263
-13.3502
-5.80977
-6.29333
-6.82428
-7.3998
-8.02641
-8.7116
-9.46317
-10.2907
-11.2064
-12.226
-13.37
-14.6651
-16.1464
-17.8594
-19.8635
-22.2368
-25.0591
-28.3517
-32.3328
-38.3146
-6.0734
-6.56984
-7.11071
-7.69763
-8.33729
-9.03689
-9.80433
-10.6494
-11.5847
-12.6262
-13.7946
-15.1171
-16.6292
-18.3768
-20.4195
-22.8353
-25.7029
-29.0405
-33.0586
-39.0605
-6.33856
-6.84789
-7.3988
-7.99736
-8.65032
-9.36457
-10.1481
-11.0111
-11.9663
-13.0299
-14.2231
-15.5734
-17.1166
-18.8991
-20.9807
-23.4389
-26.3513
-29.7329
-33.7863
-39.8037
-6.60477
-7.12694
-7.68797
-8.29838
-8.96487
-9.69397
-10.4939
-11.375
-12.3502
-13.4362
-14.6544
-16.0327
-17.6073
-19.4249
-21.5454
-24.046
-27.003
-30.4285
-34.5183
-40.5559
-6.87159
-7.40654
-7.97776
-8.60024
-9.28044
-10.0246
-10.841
-11.7404
-12.7359
-13.8445
-15.0878
-16.4943
-18.1004
-19.9531
-22.1127
-24.6557
-27.6573
-31.1266
-35.2535
-41.3145
-7.13866
-7.68627
-8.26777
-8.9025
-9.59662
-10.356
-11.1891
-12.1068
-13.1228
-14.2541
-15.5228
-16.9575
-18.5952
-20.4833
-22.6819
-25.2673
-28.3133
-31.8263
-35.99
-42.0755
-7.40567
-7.96579
-8.55761
-9.20479
-9.91299
-10.6877
-11.5376
-12.4739
-13.5104
-14.6645
-15.9586
-17.4217
-19.0912
-21.0147
-23.2523
-25.88
-28.9703
-32.5266
-36.7263
-42.8366
-7.67238
-8.24481
-8.84698
-9.50678
-10.2292
-11.0193
-11.8862
-12.8411
-13.8982
-15.0752
-16.3948
-17.8864
-19.5876
-21.5464
-23.823
-26.4929
-29.6271
-33.2262
-37.4614
-43.5963
-7.93862
-8.52313
-9.13562
-9.80817
-10.5449
-11.3506
-12.2343
-13.2079
-14.2856
-15.4855
-16.8306
-18.3507
-20.0837
-22.0778
-24.3932
-27.105
-30.2828
-33.9243
-38.194
-44.3532
-8.20437
-8.80064
-9.4234
-10.1088
-10.8599
-11.6811
-12.5818
-13.574
-14.6723
-15.895
-17.2655
-18.8139
-20.5786
-22.6079
-24.962
-27.7154
-30.9363
-34.6195
-38.9228
-45.1059
-8.46972
-9.07738
-9.71024
-10.4085
-11.174
-12.0106
-12.9281
-13.9388
-15.0576
-16.303
-17.6989
-19.2755
-21.0716
-23.1359
-25.5283
-28.323
-31.5865
-35.3107
-39.6466
-45.8529
-8.73496
-9.35348
-9.99618
-10.7072
-11.4869
-12.3388
-13.273
-14.302
-15.441
-16.709
-18.13
-19.7346
-21.562
-23.6609
-26.0914
-28.9267
-32.2322
-35.9967
-40.364
-46.5928
-9.00055
-9.62923
-10.2813
-11.0049
-11.7985
-12.6654
-13.616
-14.663
-15.8221
-17.1123
-18.5581
-20.1905
-22.0488
-24.182
-26.6501
-29.5256
-32.8723
-36.6762
-41.0737
-47.3243
-9.26718
-9.90502
-10.5658
-11.3014
-12.1086
-12.9901
-13.9566
-15.0214
-16.2001
-17.5123
-18.9826
-20.6423
-22.5312
-24.6983
-27.2035
-30.1185
-33.5057
-37.3482
-41.7746
-48.0462
-9.53556
-10.1811
-10.8495
-11.5966
-12.4168
-13.3123
-14.2944
-15.3764
-16.5744
-17.9081
-19.4025
-21.0893
-23.0083
-25.2088
-27.7504
-30.7042
-34.131
-38.0113
-42.4654
-48.7574
-9.80656
-10.4577
-11.1322
-11.8898
-12.7223
-13.6314
-14.6284
-15.7273
-16.9442
-18.299
-19.817
-21.5303
-23.4789
-25.7122
-28.2897
-31.2815
-34.7471
-38.6643
-43.1451
-49.4567
-10.0799
-10.7334
-11.4124
-12.1796
-13.0239
-13.9461
-14.9578
-16.0731
-17.3084
-18.6839
-20.2251
-21.9644
-23.9421
-26.2076
-28.8201
-31.8492
-35.3526
-39.3059
-43.8126
-50.1438
-10.3545
-11.0058
-11.6874
-12.4642
-13.3204
-14.2554
-15.2814
-16.4128
-17.6661
-19.0618
-20.6258
-22.3906
-24.3967
-26.6937
-29.3405
-32.4057
-35.9459
-39.9344
-44.4667
-50.8186
-10.6228
-11.2662
-11.951
-12.7401
-13.6094
-14.5576
-15.5979
-16.7452
-18.0162
-19.4318
-21.018
-22.8076
-24.8416
-27.1693
-29.8494
-32.9497
-36.5253
-40.548
-45.1065
-51.4826
-10.8656
-11.4949
-12.1991
-13.0084
-13.8917
-14.8525
-15.9067
-17.0695
-18.3579
-19.7928
-21.4006
-23.2146
-25.2756
-27.6331
-30.3454
-33.4793
-37.0887
-41.1437
-45.7272
-52.1374
-1.53012
-1.78695
-2.13843
-2.53192
-2.95641
-3.41748
-3.92161
-4.47488
-5.08496
-5.76227
-6.52088
-7.37983
-8.36519
-9.51276
-10.8729
-12.5188
-14.5388
-16.9919
-20.1817
-25.5858
-1.67875
-1.95144
-2.32042
-2.71913
-3.14649
-3.61236
-4.12283
-4.68359
-5.30246
-5.99011
-6.76086
-7.63408
-8.63627
-9.80371
-11.1873
-12.8608
-14.9124
-17.3995
-20.6201
-26.037
-1.82055
-2.11684
-2.49839
-2.90473
-3.33935
-3.81308
-4.33193
-4.90178
-5.53081
-6.23003
-7.01407
-7.9027
-8.92284
-10.1113
-11.5195
-13.2215
-15.3054
-17.8265
-21.0773
-26.5016
-1.98377
-2.29057
-2.67992
-3.09455
-3.53789
-4.02067
-4.549
-5.12907
-5.76938
-6.48123
-7.2796
-8.18466
-9.22379
-10.4343
-11.8681
-13.5996
-15.7167
-18.273
-21.5572
-26.998
-2.15798
-2.47157
-2.86835
-3.29148
-3.74384
-4.23609
-4.77455
-5.36563
-6.01807
-6.74346
-7.55711
-8.47955
-9.53864
-10.7722
-12.2327
-13.9948
-16.1462
-18.7392
-22.0595
-27.5232
-2.33751
-2.65934
-3.06402
-3.49581
-3.95745
-4.45961
-5.00877
-5.61153
-6.27686
-7.0166
-7.84637
-8.78711
-9.86713
-11.1248
-12.6129
-14.4068
-16.5938
-19.2247
-22.5822
-28.0719
-2.5239
-2.85482
-3.26731
-3.70775
-4.17892
-4.69139
-5.25176
-5.86679
-6.54566
-7.30048
-8.14718
-9.10708
-10.209
-11.4917
-13.0086
-14.8354
-17.059
-19.729
-23.1245
-28.6417
-2.71856
-3.05851
-3.47858
-3.92765
-4.40853
-4.93162
-5.50359
-6.13139
-6.82438
-7.59493
-8.45929
-9.43916
-10.5638
-11.8725
-13.4192
-15.2799
-17.5413
-20.2513
-23.6856
-29.2316
-2.92129
-3.27031
-3.69791
-4.15564
-4.64637
-5.18033
-5.76425
-6.40525
-7.11288
-7.89976
-8.78246
-9.78304
-10.9312
-12.2668
-13.8443
-15.7399
-18.0402
-20.7911
-24.2649
-29.8406
-3.13155
-3.48993
-3.92513
-4.3916
-4.89235
-5.43742
-6.03361
-6.6882
-7.41096
-8.21473
-9.11638
-10.1384
-11.3109
-12.6743
-14.2834
-16.2149
-18.5549
-21.3477
-24.8617
-30.4676
-3.34892
-3.71702
-4.15995
-4.63527
-5.14623
-5.70266
-6.31144
-6.98001
-7.71834
-8.53952
-9.46073
-10.5048
-11.7024
-13.0944
-14.7361
-16.7043
-19.0849
-21.9203
-25.475
-31.1116
-3.57303
-3.95121
-4.40202
-4.88634
-5.40771
-5.97576
-6.59744
-7.28036
-8.03469
-8.87378
-9.81512
-10.882
-12.1053
-13.5266
-15.2017
-17.2075
-19.6296
-22.5084
-26.1041
-31.7717
-3.80342
-4.19204
-4.6509
-5.14441
-5.67641
-6.25635
-6.89123
-7.58887
-8.35963
-9.2171
-10.1791
-11.2693
-12.5191
-13.9704
-15.6796
-17.7239
-20.1882
-23.111
-26.7482
-32.4468
-4.0396
-4.43902
-4.90612
-5.40901
-5.9519
-6.544
-7.1924
-7.9051
-8.69269
-9.56902
-10.5522
-11.6663
-12.9432
-14.4253
-16.1694
-18.2528
-20.76
-23.7275
-27.4064
-33.1362
-4.28103
-4.69159
-5.16715
-5.67966
-6.23368
-6.83822
-7.50045
-8.22857
-9.0334
-9.92902
-10.9339
-12.0724
-13.377
-14.8906
-16.6702
-18.7934
-21.3442
-24.3569
-28.0779
-33.839
-4.52716
-4.94921
-5.43345
-5.95581
-6.52124
-7.13851
-7.81489
-8.55878
-9.38121
-10.2966
-11.3236
-12.4871
-13.82
-15.3655
-17.1813
-19.3451
-21.9401
-24.9985
-28.762
-34.5544
-4.77746
-5.21131
-5.70446
-6.23693
-6.81404
-7.44433
-8.13516
-8.89515
-9.73557
-10.6711
-11.7207
-12.9097
-14.2714
-15.8495
-17.7021
-19.907
-22.5467
-25.6514
-29.4578
-35.282
-5.0314
-5.47732
-5.97961
-6.52244
-7.11152
-7.75512
-8.46071
-9.23713
-10.0959
-11.0519
-12.1246
-13.3396
-14.7305
-16.3418
-18.2317
-20.4782
-23.1632
-26.3146
-30.1646
-36.0214
-5.28842
-5.74668
-6.25833
-6.8118
-7.41311
-8.07032
-8.79095
-9.58412
-10.4616
-11.4385
-12.5346
-13.7759
-15.1966
-16.8415
-18.7692
-21.0577
-23.7883
-26.9868
-30.8812
-36.7732
-5.54805
-6.01888
-6.54009
-7.10446
-7.7183
-8.38937
-9.12535
-9.93556
-10.832
-11.8301
-12.9501
-14.2181
-15.669
-17.3478
-19.3137
-21.6446
-24.421
-27.6665
-31.6051
-37.5384
-1.28771
-1.08788
-0.940137
-0.809222
-0.694712
-0.594049
-0.506133
-0.430177
-0.365686
-0.312303
-0.269762
-0.237847
-0.216384
-0.205232
-0.204225
-0.213083
-0.231678
-0.260623
-0.29902
-0.347363
-1.62007
-1.44312
-1.29147
-1.15555
-1.03643
-0.931521
-0.839856
-0.760631
-0.693334
-0.637587
-0.593108
-0.559669
-0.537084
-0.525197
-0.523849
-0.532824
-0.552
-0.581544
-0.621178
-0.670939
-1.95703
-1.78791
-1.6364
-1.49945
-1.37834
-1.2714
-1.17792
-1.09721
-1.02881
-0.972332
-0.927515
-0.894124
-0.87197
-0.860891
-0.860725
-0.871299
-0.892514
-0.924381
-0.966747
-1.01952
-2.346
-2.17548
-2.02118
-1.88147
-1.75696
-1.6467
-1.55019
-1.46686
-1.3963
-1.33816
-1.29217
-1.25809
-1.23573
-1.22492
-1.22548
-1.23727
-1.26018
-1.29413
-1.33898
-1.39467
-2.77111
-2.59848
-2.44055
-2.29716
-2.1687
-2.05462
-1.95459
-1.86818
-1.79501
-1.73479
-1.68725
-1.65216
-1.62931
-1.61854
-1.61966
-1.63253
-1.65702
-1.69303
-1.74039
-1.79905
-3.23031
-3.05486
-2.89313
-2.74574
-2.61312
-2.49506
-2.39134
-2.30167
-2.22574
-2.16328
-2.11406
-2.07784
-2.05443
-2.04365
-2.04533
-2.05931
-2.08545
-2.12361
-2.17364
-2.23549
-3.73001
-3.55027
-3.38404
-3.2321
-3.09492
-2.97252
-2.8648
-2.77156
-2.69258
-2.62763
-2.57649
-2.53895
-2.51482
-2.50392
-2.50608
-2.52113
-2.54893
-2.58933
-2.64214
-2.70734
-4.27714
-4.09169
-3.91992
-3.76259
-3.62019
-3.49287
-3.38064
-3.28336
-3.2009
-3.13305
-3.07963
-3.04046
-3.01534
-3.00409
-3.00656
-3.02257
-3.05196
-3.09457
-3.15022
-3.21888
-4.87958
-4.68701
-4.50851
-4.34477
-4.19629
-4.06328
-3.94582
-3.84387
-3.75733
-3.68605
-3.62986
-3.58861
-3.56211
-3.55019
-3.55269
-3.56943
-3.60026
-3.64499
-3.70345
-3.77561
-5.54764
-5.34642
-5.15981
-4.98843
-4.83276
-4.69306
-4.56948
-4.46202
-4.37062
-4.29519
-4.23558
-4.19165
-4.16323
-4.15017
-4.15228
-4.16942
-4.20141
-4.24805
-4.30917
-4.38477
-6.29516
-6.08354
-5.88719
-5.70666
-5.54243
-5.39479
-5.2639
-5.14984
-5.05257
-4.97204
-4.90813
-4.86071
-4.82964
-4.81476
-4.8159
-4.83291
-4.8656
-4.91376
-4.97724
-5.05605
-7.14091
-6.91683
-6.70879
-6.51727
-6.34275
-6.18555
-6.04586
-5.92378
-5.81932
-5.73244
-5.66307
-5.61108
-5.57634
-5.55871
-5.55802
-5.57412
-5.60683
-5.65591
-5.7212
-5.80277
-8.11059
-7.87156
-7.64944
-7.44466
-7.25772
-7.08893
-6.93851
-6.80659
-6.69321
-6.59836
-6.52197
-6.46396
-6.42419
-6.40254
-6.39884
-6.41293
-6.44463
-6.4937
-6.55996
-6.64353
-9.23947
-8.9825
-8.7434
-8.52257
-8.32052
-8.13758
-7.974
-7.82992
-7.7054
-7.60046
-7.51505
-7.44909
-7.40248
-7.37507
-7.36673
-7.37728
-7.40655
-7.45425
-7.52021
-7.6046
-10.5773
-10.2988
-10.0392
-9.79887
-9.57842
-9.37816
-9.19837
-9.0392
-8.90074
-8.78301
-8.68598
-8.60958
-8.55373
-8.51828
-8.5031
-8.50803
-8.53286
-8.5773
-8.64114
-8.72463
-12.1968
-11.8924
-11.6081
-11.3443
-11.1015
-10.8801
-10.6804
-10.5026
-10.3467
-10.2128
-10.1009
-10.011
-9.94281
-9.89637
-9.87149
-9.86803
-9.88577
-9.92439
-9.98366
-10.0638
-14.1856
-13.8508
-13.5373
-13.2455
-12.9761
-12.7294
-12.5059
-12.3055
-12.1284
-11.9747
-11.8444
-11.7373
-11.6534
-11.5927
-11.5549
-11.5399
-11.5476
-11.5776
-11.6297
-11.7038
-16.6032
-16.2342
-15.8874
-15.5638
-15.2642
-14.9888
-14.738
-14.5118
-14.3104
-14.1337
-13.9817
-13.8546
-13.752
-13.6741
-13.6207
-13.5916
-13.5868
-13.606
-13.6488
-13.7144
-19.7558
-19.3484
-18.9639
-18.6051
-18.2722
-17.9652
-17.6843
-17.4292
-17.2001
-16.9968
-16.8195
-16.6681
-16.5425
-16.4428
-16.3687
-16.3201
-16.2969
-16.2994
-16.3274
-16.3788
-25.103
-24.6516
-24.2337
-23.8465
-23.4878
-23.1564
-22.8522
-22.5748
-22.3244
-22.1007
-21.904
-21.7342
-21.5914
-21.4757
-21.3871
-21.3258
-21.2924
-21.2891
-21.3172
-21.3665
-0.405329
-0.472602
-0.549129
-0.634813
-0.729552
-0.833219
-0.945669
-1.06672
-1.19616
-1.33369
-1.47895
-1.63143
-1.79032
-1.95444
-2.12215
-2.29123
-2.4572
-2.61033
-2.73525
-2.85715
-0.730708
-0.800155
-0.879198
-0.967707
-1.06556
-1.17262
-1.2887
-1.41363
-1.54713
-1.68891
-1.83854
-1.99549
-2.15898
-2.32787
-2.50056
-2.67542
-2.85069
-3.01863
-3.16386
-3.32729
-1.08266
-1.15584
-1.23896
-1.33188
-1.43445
-1.54653
-1.66792
-1.7984
-1.93771
-2.08549
-2.24133
-2.40466
-2.57476
-2.75058
-2.93081
-3.11423
-3.29991
-3.48343
-3.65886
-3.85559
-1.46115
-1.53806
-1.62531
-1.72273
-1.83018
-1.94747
-2.0744
-2.21073
-2.35615
-2.51033
-2.67282
-2.84306
-3.02035
-3.2038
-3.39233
-3.58507
-3.78123
-3.97846
-4.17708
-4.39721
-1.86898
-1.94978
-2.04135
-2.14353
-2.25614
-2.37897
-2.51182
-2.65441
-2.80645
-2.96757
-3.13732
-3.31518
-3.50049
-3.69247
-3.89032
-4.09342
-4.30114
-4.51243
-4.7298
-4.96632
-2.30912
-2.3941
-2.49034
-2.59765
-2.71584
-2.8447
-2.984
-3.13347
-3.29278
-3.46157
-3.63941
-3.82579
-4.02013
-4.22177
-4.43011
-4.64471
-4.86519
-5.09128
-5.3257
-5.57628
-2.7849
-2.87434
-2.97557
-3.08839
-3.21261
-3.348
-3.49431
-3.65128
-3.81857
-3.99583
-4.18263
-4.37851
-4.58295
-4.7954
-5.0154
-5.24265
-5.47693
-5.71843
-5.96935
-6.23414
-3.30053
-3.39467
-3.50118
-3.61986
-3.75052
-3.89293
-4.04683
-4.21193
-4.38793
-4.57446
-4.77113
-4.97751
-5.19313
-5.41755
-5.65038
-5.89141
-6.14053
-6.39807
-6.6656
-6.94561
-3.86147
-3.9605
-4.07249
-4.19735
-4.33483
-4.48471
-4.64673
-4.8206
-5.00602
-5.20263
-5.41006
-5.62793
-5.8558
-6.09331
-6.34013
-6.59608
-6.86111
-7.13549
-7.42026
-7.71679
-4.47483
-4.57868
-4.69644
-4.8277
-4.97232
-5.13007
-5.30069
-5.48389
-5.67937
-5.88682
-6.10586
-6.33614
-6.57729
-6.82896
-7.09088
-7.36288
-7.64489
-7.93707
-8.24002
-8.55455
-5.1502
-5.25893
-5.3823
-5.52007
-5.67199
-5.83785
-6.01743
-6.21041
-6.41652
-6.63544
-6.86683
-7.11037
-7.3657
-7.63252
-7.91057
-8.19966
-8.49971
-8.81073
-9.13299
-9.46702
-5.90065
-6.01395
-6.14276
-6.28689
-6.44609
-6.62013
-6.80883
-7.01188
-7.22897
-7.45982
-7.70413
-7.96159
-8.23186
-8.51464
-8.8097
-9.11683
-9.43588
-9.76674
-10.1095
-10.4644
-6.74447
-6.86175
-6.99551
-7.1455
-7.31165
-7.49376
-7.69158
-7.90458
-8.13271
-8.37568
-8.6332
-8.90496
-9.19065
-9.48997
-9.80268
-10.1286
-10.4674
-10.819
-11.1832
-11.5603
-7.70753
-7.82775
-7.96558
-8.12071
-8.29295
-8.48241
-8.68941
-8.91157
-9.15033
-9.40515
-9.67574
-9.96179
-10.263
-10.5791
-10.9098
-11.2548
-11.6139
-11.9868
-12.3731
-12.7733
-8.82789
-8.94942
-9.08975
-9.24865
-9.42591
-9.62112
-9.83382
-10.0662
-10.3151
-10.581
-10.8639
-11.1637
-11.4802
-11.8128
-12.1613
-12.5254
-12.9048
-13.2991
-13.7078
-14.1314
-10.165
-10.2854
-10.4259
-10.5864
-10.7666
-10.9663
-11.1848
-11.4223
-11.6794
-11.956
-12.2503
-12.5632
-12.8941
-13.2421
-13.6071
-13.9892
-14.3881
-14.8031
-15.2338
-15.6803
-11.7996
-11.9158
-12.0538
-12.2132
-12.3937
-12.5952
-12.8174
-13.0599
-13.3229
-13.6062
-13.9111
-14.2352
-14.5776
-14.9374
-15.316
-15.7137
-16.1301
-16.5643
-17.0154
-17.4832
-13.8008
-13.9098
-14.0421
-14.1966
-14.3731
-14.5717
-14.7926
-15.0355
-15.3001
-15.5856
-15.8916
-16.219
-16.5685
-16.941
-17.3344
-17.7475
-18.1802
-18.6319
-19.1018
-19.5888
-16.4516
-16.5449
-16.6615
-16.8034
-16.9708
-17.1629
-17.3791
-17.619
-17.8822
-18.1683
-18.4767
-18.8073
-19.1602
-19.536
-19.9344
-20.3548
-20.7971
-21.2619
-21.7492
-22.2539
-21.4114
-21.4857
-21.5899
-21.722
-21.8806
-22.0649
-22.2743
-22.5083
-22.7667
-23.0491
-23.3552
-23.6851
-24.0389
-24.4168
-24.819
-25.2453
-25.6969
-26.1777
-26.6902
-27.2167
-27.7126
-22.7681
-20.0925
-17.9679
-16.1428
-14.5698
-13.1873
-11.9503
-10.8315
-9.81275
-8.88062
-8.0251
-7.23827
-6.51359
-5.84556
-5.22936
-4.65941
-4.1299
-3.64913
-3.24515
-28.2353
-23.2973
-20.6108
-18.4667
-16.6185
-15.0208
-13.6131
-12.3514
-11.2093
-10.1687
-9.21655
-8.3431
-7.54048
-6.80231
-6.12324
-5.49855
-4.9232
-4.39462
-3.92571
-3.52394
-28.7854
-23.8444
-21.1452
-18.9805
-17.1081
-15.4845
-14.0506
-12.7635
-11.5971
-10.5341
-9.56149
-8.66963
-7.85076
-7.0985
-6.40748
-5.77288
-5.18979
-4.65573
-4.1801
-3.75937
-29.3591
-24.41
-21.6959
-19.5091
-17.611
-15.9602
-14.4991
-13.1856
-11.9943
-10.9081
-9.91438
-9.00343
-8.16749
-7.40008
-6.69561
-6.049
-5.4551
-4.9108
-4.42264
-3.9837
-29.9529
-24.9934
-22.2622
-20.0521
-18.1268
-16.4475
-14.9581
-13.6172
-12.4002
-11.29
-10.2744
-9.34368
-8.48992
-7.70648
-6.98753
-6.3277
-5.72155
-5.16538
-4.66393
-4.20934
-30.5652
-25.5944
-22.8431
-20.6085
-18.6546
-16.9456
-15.4267
-14.0576
-12.8139
-11.6791
-10.641
-9.68976
-8.81751
-8.01737
-7.28325
-6.60951
-5.99049
-5.42214
-4.90791
-4.43973
-31.1951
-26.2129
-23.4369
-21.1775
-19.1937
-17.4537
-15.9043
-14.506
-13.2349
-12.0748
-11.0134
-10.0412
-9.15001
-8.33272
-7.58305
-6.89513
-6.26314
-5.68283
-5.15652
-4.67616
-31.8415
-26.8467
-24.0438
-21.758
-19.7433
-17.9711
-16.3902
-14.9618
-13.6625
-12.4764
-11.3914
-10.3977
-9.48715
-8.65243
-7.88703
-7.18486
-6.54001
-5.94802
-5.41021
-4.91858
-32.503
-27.4943
-24.6634
-22.3494
-20.3026
-18.497
-16.8836
-15.4242
-14.096
-12.8834
-11.7742
-10.7588
-9.82863
-8.97632
-8.19512
-7.47875
-6.82117
-6.21773
-5.66884
-5.16653
-33.1786
-28.1544
-25.2945
-22.9509
-20.8705
-19.0306
-17.3837
-15.8926
-14.5349
-13.2952
-12.1615
-11.124
-10.1741
-9.3041
-8.50708
-7.77655
-7.10636
-6.49166
-5.93194
-5.41933
-33.867
-28.8261
-25.9363
-23.5615
-21.4464
-19.571
-17.8898
-16.3662
-14.9783
-13.7112
-12.5527
-11.4929
-10.5231
-9.63536
-8.82252
-8.0779
-7.39518
-6.7693
-6.19891
-5.67623
-34.5672
-29.5083
-26.5876
-24.1802
-22.0292
-20.1174
-18.4009
-16.8442
-15.4257
-14.1307
-12.9471
-11.8649
-10.8751
-9.96959
-9.14095
-8.38227
-7.68707
-7.05006
-6.46907
-5.93646
-35.2781
-30.2
-27.2474
-24.806
-22.618
-20.6687
-18.9163
-17.3258
-15.8763
-14.5531
-13.3442
-12.2394
-11.2295
-10.3063
-9.46182
-8.68911
-7.98146
-7.33331
-6.74173
-6.19931
-35.9988
-30.9
-27.9145
-25.4379
-23.2117
-21.2242
-19.435
-17.8101
-16.3292
-14.9775
-13.7432
-12.6157
-11.5858
-10.6447
-9.78453
-8.99781
-8.27771
-7.61842
-7.01624
-6.46407
-36.728
-31.6071
-28.5878
-26.0748
-23.8093
-21.7826
-19.9561
-18.2964
-16.7837
-15.4034
-14.1434
-12.9933
-11.9432
-10.9844
-10.1085
-9.30776
-8.57522
-7.90474
-7.29195
-6.73011
-37.4649
-32.3202
-29.2661
-26.7154
-24.4098
-22.3432
-20.4786
-18.7837
-17.2389
-15.8297
-14.5442
-13.3713
-12.3012
-11.3246
-10.433
-9.61833
-8.87335
-8.19166
-7.56824
-6.9968
-38.2089
-33.0381
-29.9481
-27.3587
-25.0118
-22.9046
-21.0015
-19.2711
-17.6939
-16.2559
-14.9446
-13.749
-12.6589
-11.6647
-10.7574
-9.92889
-9.1715
-8.47858
-7.84451
-7.26357
-38.9616
-33.7606
-30.6323
-28.003
-25.6142
-23.4656
-21.5237
-19.7574
-18.1479
-16.6809
-15.344
-14.1258
-13.0158
-12.004
-11.0812
-10.2388
-9.46905
-8.76491
-8.12019
-7.52989
-39.7233
-34.4863
-31.3169
-28.6467
-26.2155
-24.0253
-22.0441
-20.2419
-18.5999
-17.104
-15.7415
-14.5009
-13.3711
-12.3418
-11.4036
-10.5475
-9.76542
-9.05008
-8.39476
-7.79527
-40.4811
-35.2105
-32.0005
-29.289
-26.8152
-24.5831
-22.5625
-20.7241
-19.0496
-17.5248
-16.1369
-14.8739
-13.7244
-12.6779
-11.7243
-10.8545
-10.0602
-9.33366
-8.66776
-8.05929
-6.56339
-4.51629
-3.20332
-2.19877
-1.49815
-0.985015
-0.618091
-0.358319
-0.178487
-0.0576717
0.0199051
0.066346
0.0906149
0.0995333
0.0981282
0.0900308
0.0779296
0.0636959
0.0486775
0.0337717
0.0195983
0.00651189
-0.00524451
-0.0156298
-0.0245701
-0.0322293
-0.0385568
-0.0438809
-0.0480363
-0.0515069
-0.053863
-0.0557289
-0.0562846
-0.056229
-0.0543641
-0.0512625
-0.0456709
-0.037583
-0.0261757
-0.0116284
-6.81138
-4.69313
-3.34579
-2.311
-1.58706
-1.057
-0.676843
-0.40688
-0.21899
-0.0916979
-0.00882393
0.042021
0.0699823
0.0820256
0.0832859
0.077465
0.0673157
0.0547549
0.0411694
0.0274908
0.014366
0.00217267
-0.00882562