/*--------------------------------*- C++ -*----------------------------------*\
  =========                 |
  \\      /  F ield         | OpenFOAM: The Open Source CFD Toolbox
   \\    /   O peration     | Website:  https://openfoam.org
    \\  /    A nd           | Version:  6.0
     \\/     M anipulation  |
\*---------------------------------------------------------------------------*/
FoamFile
{
    version     2.0;
    format      ascii;
    class       volVectorField;
    location    "15";
    object      U;
}
// * * * * * * * * * * * * * * * * * * * * * * * * * * * * * * * * * * * * * //

dimensions      [0 1 -1 0 0 0 0];

internalField   nonuniform List<vector> 
9600
(
(0.964605 -14.1827 -2.29071e-20)
(0.26213 -13.3682 -2.53936e-20)
(0.299296 -12.7965 4.26691e-21)
(0.401087 -12.3372 -1.71433e-20)
(0.455369 -11.931 8.09912e-21)
(0.502112 -11.5421 -6.74952e-21)
(0.545681 -11.1568 -1.41916e-20)
(0.582899 -10.7731 1.39368e-20)
(0.613842 -10.3936 5.06941e-21)
(0.639567 -10.0218 -7.66525e-20)
(0.661031 -9.66133 4.3025e-20)
(0.679077 -9.31485 -3.8106e-20)
(0.694434 -8.98406 -1.74656e-20)
(0.70771 -8.66987 2.42389e-20)
(0.719397 -8.37249 -1.60974e-20)
(0.729879 -8.0916 -8.63239e-21)
(0.739427 -7.82628 1.60949e-20)
(0.748509 -7.57504 -1.91675e-20)
(0.75806 -7.33556 -5.05775e-21)
(0.765991 -7.10477 -1.04212e-20)
(1.52113 -14.1492 -2.49956e-19)
(0.790577 -13.3879 -1.37139e-19)
(0.806341 -12.8305 6.69231e-20)
(0.890048 -12.375 -9.10038e-20)
(0.927832 -11.9693 2.18775e-20)
(0.958415 -11.5781 -2.70137e-20)
(0.985762 -11.1889 1.16994e-19)
(1.00675 -10.8009 -1.71635e-21)
(1.02165 -10.4172 -7.63383e-20)
(1.03173 -10.0417 1.00722e-19)
(1.03811 -9.67814 5.22737e-20)
(1.04173 -9.32914 -3.61411e-21)
(1.0434 -8.99637 6.56811e-20)
(1.04373 -8.68066 -3.29113e-21)
(1.04323 -8.38217 2.6667e-20)
(1.04223 -8.10052 7.06045e-20)
(1.04096 -7.83479 2.72729e-20)
(1.03986 -7.58344 4.11935e-20)
(1.03999 -7.34402 -2.02758e-20)
(1.0387 -7.11345 4.10477e-20)
(2.07766 -14.0949 4.06199e-19)
(1.32071 -13.3871 2.90312e-19)
(1.31609 -12.8442 -4.23943e-19)
(1.38213 -12.393 -2.06348e-19)
(1.40343 -11.9882 1.65284e-19)
(1.41763 -11.5951 3.02167e-19)
(1.42843 -11.2026 -3.70159e-19)
(1.43284 -10.8109 9.60566e-20)
(1.43137 -10.4236 -1.78392e-19)
(1.42551 -10.0451 -1.26644e-19)
(1.41655 -9.6791 1.1425e-19)
(1.40557 -9.32824 -6.2888e-20)
(1.39339 -8.99412 -1.77577e-19)
(1.38068 -8.67749 9.72486e-20)
(1.36791 -8.37843 -3.1445e-20)
(1.35538 -8.09653 -3.82054e-21)
(1.34325 -7.83086 3.79292e-20)
(1.332 -7.57985 7.79834e-20)
(1.32271 -7.34095 -9.53792e-20)
(1.3121 -7.11112 7.84327e-20)
(2.63171 -14.0192 -2.24204e-19)
(1.85142 -13.3656 1.06315e-19)
(1.82757 -12.8376 1.41063e-19)
(1.87639 -12.3909 2.07166e-19)
(1.88126 -11.9874 -6.47454e-20)
(1.87889 -11.5929 6.70599e-20)
(1.87283 -11.1976 -4.56676e-20)
(1.86034 -10.8028 1.06436e-19)
(1.8422 -10.4127 2.47661e-19)
(1.82015 -10.0319 -1.46523e-19)
(1.79566 -9.66416 -9.06186e-20)
(1.76991 -9.31213 -1.03806e-19)
(1.74379 -8.9773 -3.89676e-20)
(1.71795 -8.66033 8.80615e-20)
(1.69286 -8.36126 -5.54669e-20)
(1.66877 -8.07961 -1.90949e-19)
(1.6458 -7.81448 1.48603e-19)
(1.62441 -7.56426 -9.99811e-20)
(1.60577 -7.32631 -1.16044e-20)
(1.58578 -7.09775 -9.4832e-21)
(3.18323 -13.9223 -2.8742e-19)
(2.38236 -13.3234 -5.20151e-19)
(2.3402 -12.8105 6.16848e-19)
(2.37207 -12.3686 -1.71747e-19)
(2.36051 -11.9667 -5.16644e-19)
(2.34136 -11.5713 -1.14794e-20)
(2.31816 -11.1738 -1.98979e-19)
(2.28846 -10.7765 -5.65468e-20)
(2.25337 -10.3843 -1.54623e-19)
(2.21491 -10.002 3.66979e-19)
(2.17473 -9.63323 -5.07294e-19)
(2.13409 -9.28071 1.30133e-19)
(2.09394 -8.94582 -2.22212e-19)
(2.05494 -8.62914 3.02886e-19)
(2.0175 -8.3306 -2.8274e-19)
(1.98186 -8.04972 1.51638e-19)
(1.94807 -7.7856 -8.98497e-20)
(1.91661 -7.53662 2.45916e-20)
(1.88869 -7.30008 9.81733e-20)
(1.8593 -7.07333 -1.09463e-20)
(3.73117 -13.8041 7.88463e-20)
(2.91262 -13.2603 4.89505e-19)
(2.85309 -12.7627 3.21099e-19)
(2.8683 -12.3259 -2.20643e-19)
(2.84031 -11.926 5.70756e-19)
(2.80418 -11.5301 8.967e-20)
(2.76355 -11.1311 5.07722e-21)
(2.71637 -10.7321 -2.61179e-19)
(2.66411 -10.3385 5.11641e-20)
(2.60905 -9.95528 3.58472e-19)
(2.55303 -9.58628 -1.72132e-19)
(2.49742 -9.23398 3.22469e-19)
(2.4432 -8.8997 -8.4188e-20)
(2.391 -8.5839 -7.37807e-20)
(2.34123 -8.28647 1.62509e-19)
(2.29406 -8.00687 1.80682e-19)
(2.2495 -7.74424 -9.98037e-20)
(2.20806 -7.49694 7.98841e-20)
(2.17096 -7.26224 -2.22307e-19)
(2.13219 -7.03788 2.83626e-19)
(4.27478 -13.6644 6.73176e-19)
(3.44147 -13.1761 -8.43544e-19)
(3.36547 -12.694 -7.41427e-19)
(3.36425 -12.2625 7.88847e-19)
(3.31978 -11.865 -2.62929e-19)
(3.26647 -11.4693 -3.97695e-19)
(3.20817 -11.0693 3.72076e-19)
(3.14325 -10.6693 2.0116e-20)
(3.0736 -10.2751 1.3255e-19)
(3.00179 -9.89181 -4.27229e-19)
(2.92984 -9.52329 2.17329e-19)
(2.85921 -9.17193 -1.79126e-19)
(2.7909 -8.83893 5.08336e-19)
(2.72552 -8.52464 -2.79394e-19)
(2.66345 -8.22887 1.94413e-20)
(2.6048 -7.95109 -3.94896e-20)
(2.54954 -7.69041 -3.93658e-20)
(2.49822 -7.44525 6.81485e-20)
(2.45207 -7.21283 4.54449e-20)
(2.40397 -6.99143 -4.97672e-20)
(4.81319 -13.5036 -9.78505e-19)
(3.96802 -13.0707 5.6276e-19)
(3.87644 -12.6044 1.17518e-19)
(3.85902 -12.1785 -2.00896e-20)
(3.79803 -11.7838 -3.12477e-21)
(3.72736 -11.3886 2.76534e-19)
(3.65113 -10.9883 -7.32612e-19)
(3.56826 -10.5881 -8.09484e-20)
(3.48105 -10.1941 -1.5735e-19)
(3.39237 -9.81156 1.96033e-19)
(3.30443 -9.44428 1.13768e-20)
(3.21876 -9.09458 2.0009e-19)
(3.13636 -8.76355 -1.42685e-20)
(3.05785 -8.4514 -4.78904e-19)
(2.98353 -8.15788 -1.10172e-19)
(2.91347 -7.88242 4.3269e-19)
(2.8476 -7.62419 -1.61913e-19)
(2.78652 -7.3816 -4.02712e-20)
(2.73147 -7.15191 -6.84402e-21)
(2.67414 -6.93405 2.96856e-20)
(5.34558 -13.3216 6.23156e-19)
(4.49142 -12.9442 -6.1959e-19)
(4.38515 -12.4937 -9.25164e-19)
(4.35171 -12.0736 -1.31027e-19)
(4.27417 -11.6821 -4.02633e-19)
(4.18595 -11.2882 -1.25546e-19)
(4.09158 -10.8883 -4.03031e-19)
(3.99056 -10.4886 7.34589e-19)
(3.88565 -10.0956 -3.1444e-19)
(3.78003 -9.71456 -1.56608e-19)
(3.67606 -9.3493 -6.93585e-20)
(3.57535 -9.00201 2.15234e-19)
(3.47892 -8.67362 -1.8441e-21)
(3.38733 -8.36425 -7.32583e-20)
(3.30084 -8.07356 -1.59536e-19)
(3.21946 -7.80096 -1.90841e-19)
(3.14307 -7.54565 2.71843e-19)
(3.07238 -7.30609 1.11978e-19)
(3.00859 -7.07955 -4.90102e-19)
(2.94217 -6.86585 4.39104e-20)
(5.87109 -13.1187 -6.30941e-19)
(5.01079 -12.7965 1.45186e-18)
(4.89068 -12.3618 -1.09569e-18)
(4.84142 -11.9479 6.83887e-19)
(4.74727 -11.56 8.69207e-19)
(4.64134 -11.1679 -3.10028e-19)
(4.52865 -10.7692 5.75317e-21)
(4.40931 -10.3708 8.03659e-20)
(4.2866 -9.97955 3.14081e-19)
(4.16398 -9.60088 -3.19903e-19)
(4.04399 -9.23843 -1.96907e-19)
(3.92829 -8.89427 2.11849e-19)
(3.81789 -8.56922 -1.06164e-20)
(3.7133 -8.26328 3.45851e-20)
(3.61473 -7.97601 3.97442e-19)
(3.52212 -7.70679 -2.01714e-19)
(3.43535 -7.4549 3.74626e-20)
(3.35518 -7.21881 -2.46382e-19)
(3.28283 -6.99588 6.59907e-19)
(3.20749 -6.78695 3.48042e-19)
(6.3889 -12.895 9.0991e-19)
(5.52524 -12.6277 1.91761e-19)
(5.39212 -12.2089 4.30316e-19)
(5.32723 -11.8013 -4.6648e-19)
(5.21643 -11.4175 1.10297e-19)
(5.09264 -11.0278 9.24786e-19)
(4.96145 -10.631 -1.47336e-19)
(4.82368 -10.2347 6.80781e-19)
(4.6831 -9.84612 -4.4416e-19)
(4.54347 -9.4706 2.57871e-19)
(4.40748 -9.11174 5.90998e-19)
(4.27685 -8.77147 -1.78574e-19)
(4.15257 -8.45046 2.96121e-19)
(4.03509 -8.14859 -7.89202e-20)
(3.92454 -7.86533 -3.96189e-19)
(3.82082 -7.60005 5.57815e-19)
(3.72377 -7.35206 -1.51437e-19)
(3.63428 -7.11988 5.60358e-19)
(3.55352 -6.90099 6.84964e-20)
(3.46946 -6.69746 -8.26799e-19)
(6.89819 -12.6508 -2.76136e-18)
(6.0339 -12.4378 4.7248e-19)
(5.88858 -12.035 -3.56213e-19)
(5.80821 -11.6339 -1.16933e-18)
(5.68073 -11.2546 -2.07932e-19)
(5.53894 -10.868 -2.23911e-19)
(5.38912 -10.4738 -7.21893e-20)
(5.23283 -10.0805 -4.70776e-19)
(5.07433 -9.69539 -2.50881e-19)
(4.91771 -9.32386 -5.61056e-20)
(4.76579 -8.96937 -1.54562e-19)
(4.62033 -8.63373 2.59276e-19)
(4.48227 -8.31746 1.66786e-19)
(4.35201 -8.02031 -8.4323e-19)
(4.22961 -7.74165 3.52951e-19)
(4.11489 -7.48086 -3.83774e-19)
(4.0077 -7.23728 -2.39446e-19)
(3.90901 -7.00945 2.07414e-19)
(3.82003 -6.79505 1.11982e-19)
(3.72747 -6.59751 -2.27005e-19)
(7.39817 -12.3863 3.52741e-18)
(6.53592 -12.2271 1.66035e-18)
(6.37915 -11.84 7.95673e-19)
(6.28346 -11.4458 7.86417e-19)
(6.13925 -11.0715 -3.59283e-19)
(5.97937 -10.6886 1.97614e-18)
(5.81081 -10.2979 -8.71107e-19)
(5.63592 -9.90832 1.68296e-18)
(5.45952 -9.52751 -6.50297e-19)
(5.28595 -9.16077 1.18656e-18)
(5.11818 -8.81144 5.63344e-19)
(4.95799 -8.48117 3.42784e-19)
(4.80628 -8.17032 -8.45321e-19)
(4.66336 -7.87854 7.37583e-19)
(4.52923 -7.60512 -1.7794e-19)
(4.40365 -7.34939 5.68801e-19)
(4.28643 -7.11074 1.50124e-19)
(4.17872 -6.88774 6.78228e-19)
(4.0817 -6.67826 -1.5173e-19)
(3.98096 -6.48732 -1.11686e-20)
(7.88808 -12.102 -1.82538e-18)
(7.03043 -11.9957 9.45078e-19)
(6.86294 -11.6243 1.84747e-19)
(6.75207 -11.2371 -1.37943e-18)
(6.59111 -10.8682 -9.64372e-20)
(6.41303 -10.4898 -2.30557e-20)
(6.22566 -10.1032 2.97146e-19)
(6.03217 -9.7183 -4.37483e-19)
(5.83788 -9.34264 1.59642e-19)
(5.64745 -8.98151 2.06961e-19)
(5.46395 -8.6381 -3.34482e-19)
(5.28914 -8.3139 -2.34895e-19)
(5.12389 -8.00916 1.29965e-19)
(4.96843 -7.72339 -2.38605e-19)
(4.82268 -7.45581 7.3733e-19)
(4.68632 -7.20573 -7.80413e-19)
(4.55919 -6.97256 -4.97892e-19)
(4.44259 -6.7549 7.17802e-19)
(4.33776 -6.55083 -2.7469e-19)
(4.22916 -6.36732 -3.69721e-19)
(8.36718 -11.7981 -9.35776e-19)
(7.51661 -11.7438 -1.0549e-18)
(7.33904 -11.3879 -2.70113e-19)
(7.21313 -11.008 1.42933e-18)
(7.0354 -10.6451 -6.33542e-19)
(6.83907 -10.2717 6.26262e-20)
(6.63285 -9.89017 -1.67062e-18)
(6.42077 -9.51068 2.49417e-19)
(6.20869 -9.14099 -3.89563e-19)
(6.00151 -8.78625 3.28347e-19)
(5.8024 -8.4495 -7.60887e-19)
(5.61312 -8.13207 3.31742e-19)
(5.43446 -7.83408 -4.86048e-19)
(5.26655 -7.55493 3.02478e-19)
(5.10921 -7.29377 2.00962e-19)
(4.96209 -7.04989 -1.94288e-19)
(4.82504 -6.82274 -8.70821e-19)
(4.69957 -6.61091 4.87377e-19)
(4.58691 -6.41288 -2.0955e-19)
(4.47057 -6.23784 8.93454e-20)
(8.83481 -11.4749 3.45251e-18)
(7.99361 -11.4717 -6.86603e-19)
(7.80655 -11.131 -9.72935e-19)
(7.66575 -10.7587 4.10957e-19)
(7.47126 -10.4023 5.8124e-19)
(7.25663 -10.0346 -8.32423e-19)
(7.03157 -9.6589 5.49906e-19)
(6.80097 -9.28569 -7.6173e-19)
(6.5712 -8.92277 9.72292e-19)
(6.34742 -8.57519 -1.0274e-18)
(6.13288 -8.24582 4.73112e-19)
(5.9293 -7.93582 -7.94138e-20)
(5.73737 -7.6452 -7.52839e-20)
(5.55713 -7.37325 -5.46216e-19)
(5.38828 -7.11907 8.55144e-19)
(5.23038 -6.88192 -1.86706e-20)
(5.0833 -6.66127 -6.87803e-20)
(4.94871 -6.45577 -1.44154e-20)
(4.8278 -6.26437 -3.03403e-20)
(4.70341 -6.09833 -2.70576e-19)
(9.29049 -11.1331 -2.84119e-18)
(8.46074 -11.1797 -4.15329e-19)
(8.26461 -10.8541 -5.21043e-19)
(8.10903 -10.4895 -3.07888e-18)
(7.8978 -10.14 -1.62503e-18)
(7.66488 -9.77882 1.89257e-18)
(7.42101 -9.40969 -6.70971e-19)
(7.172 -9.04357 3.45546e-19)
(6.92471 -8.68822 5.27863e-19)
(6.68452 -8.34853 1.40563e-19)
(6.45473 -8.0272 3.54917e-19)
(6.23703 -7.72527 -1.69971e-19)
(6.03199 -7.4426 4.89992e-19)
(5.83956 -7.17844 -4.14315e-19)
(5.65934 -6.93182 1.56972e-19)
(5.49078 -6.70202 -1.12611e-18)
(5.33374 -6.48854 7.41441e-19)
(5.18994 -6.28995 4.80659e-19)
(5.06053 -6.10545 5.2368e-19)
(4.92826 -5.94782 -1.12235e-19)
(9.73422 -10.7736 1.29118e-18)
(8.91754 -10.8683 1.07816e-18)
(8.71244 -10.5572 8.83665e-19)
(8.54208 -10.2006 2.75508e-18)
(8.31416 -9.85857 -2.56856e-18)
(8.06298 -9.50459 6.8266e-19)
(7.8004 -9.14287 -1.42473e-21)
(7.53314 -8.78465 -7.15722e-19)
(7.26855 -8.43762 7.14171e-19)
(7.01219 -8.1065 -1.84004e-19)
(6.76736 -7.79381 -2.21236e-19)
(6.53566 -7.50045 -1.1073e-19)
(6.31758 -7.22622 2.44105e-19)
(6.11295 -6.97033 8.1776e-21)
(5.9213 -6.73185 -4.14616e-19)
(5.74206 -6.51016 -4.94776e-19)
(5.57524 -6.30475 -6.72848e-19)
(5.42283 -6.11386 3.60023e-19)
(5.28602 -5.93679 -4.71396e-19)
(5.14767 -5.7892 1.13101e-19)
(10.1662 -10.3968 -1.74136e-19)
(9.3637 -10.5374 -2.33362e-18)
(9.14935 -10.2405 -2.16587e-19)
(8.96409 -9.8923 -3.80585e-20)
(8.7195 -9.55842 4.70837e-19)
(8.45017 -9.21241 1.63245e-18)
(8.16905 -8.85893 -4.69958e-19)
(7.88381 -8.50939 -7.32855e-19)
(7.60222 -8.1714 7.06285e-20)
(7.32999 -7.84944 3.14834e-19)
(7.07039 -7.54586 -2.92529e-19)
(6.82489 -7.26142 -3.22304e-19)
(6.59376 -6.99586 -8.82983e-20)
(6.37664 -6.74839 2.70035e-19)
(6.17287 -6.51822 -1.24224e-18)
(5.98188 -6.30492 5.91839e-19)
(5.80405 -6.10789 2.10059e-19)
(5.64216 -5.92522 -2.6506e-19)
(5.49743 -5.75845 2.87984e-19)
(5.35298 -5.63098 4.45221e-19)
(10.585 -10.0016 9.12125e-19)
(9.79815 -10.1862 2.2658e-18)
(9.57454 -9.90418 3.19487e-19)
(9.37424 -9.5652 -2.2235e-19)
(9.1131 -9.24023 1.512e-18)
(8.82582 -8.90298 -4.14398e-19)
(8.52643 -8.55853 -4.9845e-19)
(8.22354 -8.21844 1.27757e-18)
(7.92535 -7.89015 -7.95046e-19)
(7.6377 -7.5779 3.77427e-19)
(7.36378 -7.28383 -5.71458e-20)
(7.10488 -7.00853 -9.71245e-20)
(6.86102 -6.75161 -4.18659e-19)
(6.63146 -6.51227 5.36976e-19)
(6.4151 -6.28976 -1.25875e-18)
(6.21083 -6.08363 5.99388e-19)
(6.01874 -5.89318 -1.77086e-19)
(5.84098 -5.71771 -4.25467e-20)
(5.67661 -5.56538 5.58827e-19)
(5.5126 -5.46583 -9.36805e-19)
(14.8574 0.421186 1.64804e-19)
(14.846 -0.164565 -5.25425e-20)
(14.8115 -0.747717 -2.80795e-19)
(14.7552 -1.32781 7.56689e-19)
(14.6769 -1.9043 -8.46821e-19)
(14.5762 -2.47641 -3.83761e-19)
(14.4533 -3.04335 2.95776e-19)
(14.3083 -3.60431 4.14107e-19)
(14.1416 -4.15847 -3.13286e-19)
(13.9535 -4.70504 3.12118e-19)
(13.7442 -5.24321 -1.08355e-20)
(13.5143 -5.77218 1.42469e-20)
(13.264 -6.29118 -2.16178e-19)
(12.9939 -6.79943 9.91136e-19)
(12.7043 -7.29622 -9.85862e-19)
(12.396 -7.7808 6.83703e-19)
(12.0692 -8.25258 -9.55936e-19)
(11.7249 -8.71081 2.31772e-18)
(11.3626 -9.15554 -1.70388e-19)
(10.9858 -9.58499 7.23327e-20)
(14.7007 -0.286566 -3.11287e-20)
(14.656 -0.863234 -1.8046e-19)
(14.5874 -1.43581 3.51997e-19)
(14.4959 -2.00365 5.6662e-19)
(14.3816 -2.56621 -1.50931e-19)
(14.2449 -3.12267 -7.60999e-19)
(14.0859 -3.67214 1.36211e-18)
(13.905 -4.21376 -2.81266e-19)
(13.7029 -4.74668 -1.57371e-18)
(13.4798 -5.27006 7.54189e-19)
(13.2363 -5.7831 2.56941e-19)
(12.9728 -6.285 1.43144e-18)
(12.6901 -6.775 -2.71444e-18)
(12.3886 -7.25236 3.83267e-20)
(12.0688 -7.71639 6.86741e-19)
(11.7316 -8.1664 1.09354e-18)
(11.3773 -8.60182 5.06708e-19)
(11.0068 -9.02203 -6.84949e-19)
(10.6199 -9.42667 -1.51717e-18)
(10.2179 -9.81493 1.51626e-18)
(14.3949 -0.273851 1.06354e-19)
(14.3548 -0.83574 -1.25901e-19)
(14.2908 -1.39442 8.61213e-20)
(14.2035 -1.94894 -2.56274e-19)
(14.093 -2.4985 3.24182e-19)
(13.9598 -3.04219 7.97782e-19)
(13.8043 -3.57904 -8.59386e-19)
(13.6268 -4.10811 1.34586e-19)
(13.428 -4.6285 5.68256e-19)
(13.2082 -5.13932 1.19055e-18)
(12.968 -5.63974 -2.80314e-19)
(12.7079 -6.12892 2.0017e-18)
(12.4286 -6.60608 1.01395e-19)
(12.1307 -7.07044 -2.15461e-18)
(11.8148 -7.52127 -2.90259e-19)
(11.4815 -7.95787 4.78477e-19)
(11.1315 -8.3796 -1.20379e-18)
(10.7654 -8.78578 -5.7702e-19)
(10.3834 -9.17583 -1.03362e-18)
(9.98658 -9.54891 1.13262e-18)
(13.9527 -0.207857 3.4212e-20)
(13.9222 -0.750074 8.10202e-20)
(13.8685 -1.29013 3.15773e-20)
(13.7918 -1.82693 -7.53317e-19)
(13.6922 -2.35949 4.59221e-19)
(13.5702 -2.88683 -1.40467e-19)
(13.4261 -3.40799 4.32096e-19)
(13.2603 -3.922 -2.26144e-20)
(13.0733 -4.42793 -8.87453e-19)
(12.8655 -4.92488 2.51131e-20)
(12.6375 -5.41197 -5.14816e-19)
(12.3898 -5.88835 1.28801e-19)
(12.1229 -6.3532 -2.62329e-18)
(11.8375 -6.80571 1.31946e-18)
(11.5342 -7.24512 -1.21465e-18)
(11.2136 -7.67068 -2.42957e-19)
(10.8764 -8.08167 -3.05311e-18)
(10.5233 -8.47737 2.96362e-18)
(10.1547 -8.85708 -1.41311e-18)
(9.7716 -9.21998 -8.86776e-19)
(13.437 -0.195102 9.8896e-21)
(13.4141 -0.715089 -1.36715e-19)
(13.3688 -1.23364 1.99484e-19)
(13.3012 -1.74967 2.5007e-19)
(13.2116 -2.26215 -2.95294e-19)
(13.1001 -2.77011 9.47076e-19)
(12.9672 -3.2726 5.86309e-19)
(12.8131 -3.76865 -1.88021e-19)
(12.6383 -4.25735 -1.99491e-19)
(12.4431 -4.7378 6.28832e-19)
(12.2281 -5.20911 1.08151e-18)
(11.9938 -5.67042 4.17338e-19)
(11.7407 -6.12089 2.60816e-19)
(11.4694 -6.55972 -7.49411e-19)
(11.1805 -6.9861 -1.77497e-18)
(10.8746 -7.39926 1.89269e-18)
(10.5523 -7.79845 1.97422e-18)
(10.2144 -8.1829 -1.40858e-18)
(9.86142 -8.55188 4.87157e-19)
(9.49414 -8.9046 -1.45492e-19)
(12.8942 -0.189977 2.44143e-20)
(12.8771 -0.686885 -3.28719e-20)
(12.8386 -1.18287 -1.74799e-19)
(12.7789 -1.67691 7.78093e-20)
(12.698 -2.16802 -8.04152e-22)
(12.5961 -2.65525 5.42427e-20)
(12.4735 -3.13766 -4.56054e-19)
(12.3305 -3.61435 3.39927e-19)
(12.1676 -4.0844 -6.85823e-19)
(11.9849 -4.54693 7.28335e-19)
(11.7831 -5.00109 -4.80969e-20)
(11.5624 -5.44602 -6.78787e-19)
(11.3236 -5.88089 2.5394e-19)
(11.067 -6.3049 2.09018e-18)
(10.7932 -6.71724 1.19815e-18)
(10.503 -7.11713 -8.69199e-19)
(10.1968 -7.50381 -1.26603e-18)
(9.87534 -7.87649 6.46115e-19)
(9.53927 -8.23445 -4.27223e-19)
(9.18921 -8.57687 1.29459e-18)
(12.356 -0.185003 -1.74364e-20)
(12.3428 -0.659186 8.16262e-20)
(12.3095 -1.1328 5.30312e-20)
(12.2559 -1.60491 -6.3172e-20)
(12.1821 -2.07456 2.6575e-19)
(12.0883 -2.54086 -7.45439e-19)
(11.9747 -3.0029 4.27831e-19)
(11.8416 -3.45981 -3.23143e-19)
(11.6892 -3.91073 1.15009e-20)
(11.518 -4.35481 -4.99804e-19)
(11.3283 -4.79122 7.63897e-19)
(11.1206 -5.21913 1.89496e-18)
(10.8953 -5.63775 -2.12737e-18)
(10.6529 -6.04627 -3.93557e-20)
(10.3939 -6.44394 -1.9722e-18)
(10.119 -6.82995 5.73818e-19)
(9.82872 -7.20356 -6.4466e-19)
(9.5237 -7.56398 1.67722e-21)
(9.20457 -7.91048 1.45318e-18)
(8.87192 -8.24223 -1.12808e-20)
(11.8413 -0.181766 -8.49805e-21)
(11.8306 -0.634324 5.66088e-20)
(11.8007 -1.08654 1.86244e-20)
(11.7516 -1.53754 -3.13937e-19)
(11.6832 -1.98644 3.45554e-19)
(11.5958 -2.43236 -3.04036e-19)
(11.4895 -2.87447 8.67801e-19)
(11.3646 -3.31194 -9.21689e-20)
(11.2213 -3.74394 -4.65604e-19)
(11.06 -4.16967 8.81204e-20)
(10.8809 -4.58834 -1.49396e-19)
(10.6846 -4.99916 -4.76668e-19)
(10.4715 -5.40139 -7.0742e-19)
(10.2419 -5.79424 -4.67403e-19)
(9.99652 -6.17697 -4.86798e-19)
(9.73581 -6.54883 -5.65635e-19)
(9.4604 -6.90906 -4.81987e-19)
(9.17084 -7.25689 -7.30383e-19)
(8.86781 -7.5916 9.41949e-20)
(8.55181 -7.91235 5.34474e-20)
(11.3594 -0.179653 6.51199e-21)
(11.3499 -0.612034 6.98172e-21)
(11.3222 -1.0442 -6.56179e-21)
(11.2762 -1.47533 -8.69726e-20)
(11.2118 -1.90459 -1.99735e-19)
(11.1293 -2.33116 -1.30848e-19)
(11.0289 -2.75425 -6.14591e-19)
(10.9106 -3.17306 5.71078e-19)
(10.7749 -3.58684 -3.33807e-19)
(10.6219 -3.99482 7.33602e-19)
(10.452 -4.39625 -1.40784e-19)
(10.2656 -4.79039 1.24677e-18)
(10.063 -5.17654 5.80988e-20)
(9.84486 -5.55395 1.67811e-18)
(9.61154 -5.92193 -1.16222e-18)
(9.36361 -6.27974 8.19751e-19)
(9.10166 -6.62666 1.25622e-18)
(8.82626 -6.96191 7.29191e-19)
(8.53805 -7.28479 7.81911e-19)
(8.23753 -7.59443 -1.12092e-18)
(10.9129 -0.177802 -5.25703e-20)
(10.9038 -0.59153 -1.15224e-21)
(10.8774 -1.0051 1.89268e-19)
(10.8335 -1.41774 -1.74631e-19)
(10.7721 -1.82867 1.08072e-19)
(10.6934 -2.23711 4.18901e-19)
(10.5976 -2.64231 -1.36571e-19)
(10.4849 -3.04353 -1.31069e-19)
(10.3554 -3.44005 -1.75983e-19)
(10.2094 -3.83115 2.97417e-19)
(10.0473 -4.21614 -4.25589e-19)
(9.8694 -4.59431 -9.03597e-20)
(9.67611 -4.96501 -7.81481e-19)
(9.46788 -5.32755 2.17018e-19)
(9.24521 -5.68125 3.69384e-19)
(9.00862 -6.02544 2.70351e-19)
(8.75872 -6.35942 -5.19684e-19)
(8.49608 -6.68243 1.71871e-19)
(8.22135 -6.99373 -7.83075e-19)
(7.93501 -7.29246 9.15656e-20)
(10.5006 -0.175797 5.40857e-20)
(10.4914 -0.572331 1.44781e-19)
(10.4657 -0.968724 -3.23252e-19)
(10.4233 -1.36425 -2.51659e-19)
(10.3642 -1.75816 -1.2956e-19)
(10.2886 -2.14973 -3.54749e-19)
(10.1966 -2.53824 2.53449e-19)
(10.0884 -2.92301 3.18919e-19)
(9.96418 -3.30334 -6.90766e-19)
(9.82421 -3.67857 3.3982e-19)
(9.6688 -4.04804 3.47105e-19)
(9.49828 -4.41112 4.36477e-19)
(9.31304 -4.76716 -6.04998e-19)
(9.11352 -5.11556 8.47994e-19)
(8.90022 -5.45568 -7.75915e-19)
(8.67367 -5.78689 -1.31646e-19)
(8.43451 -6.10851 -2.28882e-19)
(8.18331 -6.41982 9.89409e-19)
(7.92078 -6.72007 7.65924e-19)
(7.64741 -7.00833 -3.13634e-19)
(10.1195 -0.173466 -4.67399e-20)
(10.1101 -0.554132 2.77427e-20)
(10.0848 -0.934652 2.05778e-19)
(10.0435 -1.31433 2.53525e-20)
(9.98625 -1.69247 2.95415e-19)
(9.91316 -2.06838 2.44096e-19)
(9.82437 -2.44137 -2.09037e-19)
(9.72005 -2.8108 -2.99331e-19)
(9.60039 -3.17602 2.45547e-19)
(9.46564 -3.53639 1.94718e-19)
(9.31607 -3.89131 -1.96092e-19)
(9.15201 -4.24019 8.29564e-19)
(8.97384 -4.58244 -1.23972e-18)
(8.78199 -4.91752 2.89041e-19)
(8.57698 -5.24482 3.47591e-19)
(8.35933 -5.5638 -6.01446e-19)
(8.12974 -5.87378 -1.22619e-18)
(7.8888 -6.17412 4.02173e-19)
(7.63734 -6.46398 2.46576e-19)
(7.37583 -6.74242 5.62704e-20)
(9.76625 -0.170754 -1.97723e-20)
(9.75647 -0.536722 1.7827e-20)
(9.73141 -0.902532 -9.56735e-20)
(9.69101 -1.26752 -5.67114e-20)
(9.63532 -1.63101 -1.82667e-20)
(9.56442 -1.99236 -2.22374e-19)
(9.47845 -2.35091 5.9626e-19)
(9.37756 -2.70604 2.21228e-20)
(9.26193 -3.05715 -3.13481e-21)
(9.13179 -3.40365 -5.26385e-19)
(8.98742 -3.74494 3.27911e-19)
(8.82911 -4.08052 -2.92686e-19)
(8.65724 -4.40982 5.55909e-19)
(8.47221 -4.73239 -8.3598e-19)
(8.27458 -5.04764 -2.63011e-20)
(8.06484 -5.35518 -5.05769e-19)
(7.84381 -5.6543 1.00585e-18)
(7.61207 -5.94448 -2.50722e-19)
(7.37067 -6.22477 -8.84549e-20)
(7.12008 -6.49418 -3.3813e-19)
(9.43726 -0.167665 6.0484e-20)
(9.42711 -0.519961 -4.47797e-21)
(9.40226 -0.87208 1.21122e-19)
(9.36267 -1.22339 -1.25846e-19)
(9.30837 -1.57324 1.49691e-19)
(9.23945 -1.92101 -9.00225e-20)
(9.15603 -2.26609 -3.28992e-19)
(9.05824 -2.60788 1.35026e-19)
(8.94627 -2.9458 1.23673e-19)
(8.82032 -3.2793 -1.68101e-19)
(8.68066 -3.60784 -3.10529e-19)
(8.52754 -3.93095 -1.90927e-20)
(8.36136 -4.24809 -5.46287e-19)
(8.18247 -4.55891 6.07082e-19)
(7.99145 -4.86286 3.16413e-19)
(7.78877 -5.15972 1.17955e-18)
(7.57542 -5.44872 -1.69804e-18)
(7.35188 -5.72964 4.41943e-19)
(7.1197 -6.00124 1.10498e-18)
(6.87916 -6.26263 8.76e-19)
(9.12943 -0.164237 -4.53265e-20)
(9.11896 -0.503753 3.4143e-20)
(9.09433 -0.843076 -4.34178e-20)
(9.0555 -1.18159 -2.66274e-19)
(9.0025 -1.51869 2.69016e-19)
(8.93542 -1.85377 9.41404e-20)
(8.85437 -2.18623 2.33998e-20)
(8.75947 -2.51553 2.62927e-19)
(8.65088 -2.84109 -6.02051e-19)
(8.52881 -3.16241 4.79844e-19)
(8.39348 -3.47897 -5.11982e-20)
(8.24515 -3.79036 7.87338e-19)
(8.08416 -4.09606 -9.91974e-19)
(7.91084 -4.39585 1.01819e-21)
(7.72582 -4.68915 -5.51543e-19)
(7.52943 -4.97608 6.83084e-20)
(7.32297 -5.25563 9.74101e-19)
(7.10664 -5.52827 -8.12478e-19)
(6.88296 -5.79207 -2.15748e-19)
(6.65157 -6.04676 -1.43086e-18)
(8.84006 -0.160544 1.27889e-20)
(8.82933 -0.48805 1.49548e-21)
(8.80494 -0.815349 -9.80299e-20)
(8.76686 -1.14185 4.13309e-20)
(8.71512 -1.46697 8.75259e-20)
(8.64981 -1.79011 1.25482e-19)
(8.57101 -2.11073 -4.88495e-20)
(8.47884 -2.42828 1.2078e-19)
(8.37346 -2.74223 -2.19727e-19)
(8.25503 -3.0521 1.53659e-19)
(8.12378 -3.35739 -1.11583e-19)
(7.97991 -3.65773 -5.74015e-20)
(7.82377 -3.95264 -1.10101e-19)
(7.65558 -4.24204 -8.21592e-20)
(7.47603 -4.52527 2.06097e-19)
(7.28525 -4.80296 -2.04526e-20)
(7.08498 -5.07364 -8.20559e-19)
(6.8748 -5.33908 -1.43967e-19)
(6.65904 -5.59588 8.65763e-19)
(6.43563 -5.84569 4.47272e-19)
(8.56689 -0.156708 1.71022e-21)
(8.55596 -0.472856 2.72749e-20)
(8.53185 -0.788789 -7.0525e-22)
(8.49454 -1.10394 9.55559e-20)
(8.44405 -1.41772 -1.89312e-19)
(8.38046 -1.7296 -2.0454e-19)
(8.30386 -2.03902 2.78179e-19)
(8.21435 -2.34547 -1.89595e-19)
(8.11207 -2.64845 -9.6608e-21)
(7.99717 -2.94748 2.09033e-19)
(7.86986 -3.24211 8.12308e-21)
(7.73027 -3.53201 3.74762e-19)
(7.57877 -3.81669 -1.67658e-19)
(7.41543 -4.09624 -2.02791e-19)
(7.24102 -4.36988 -5.61201e-19)
(7.0553 -4.6389 -4.7239e-20)
(6.86063 -4.90116 -5.55721e-19)
(6.65546 -5.16068 3.46011e-19)
(6.44722 -5.41105 5.29928e-19)
(6.23017 -5.65847 -3.15721e-19)
(8.30807 -0.152613 -2.54288e-20)
(8.29701 -0.458068 5.4118e-20)
(8.27322 -0.763291 9.00203e-20)
(8.23671 -1.06773 -1.00825e-19)
(8.18749 -1.37082 1.56192e-19)
(8.12564 -1.67204 -5.07489e-20)
(8.05124 -1.97088 -6.78204e-20)
(7.96438 -2.26683 -4.7479e-20)
(7.8652 -2.55942 -1.31383e-21)
(7.75381 -2.8482 -1.28516e-19)
(7.63042 -3.13274 4.20744e-20)
(7.4951 -3.41273 1.85553e-19)
(7.34822 -3.68771 4.3004e-19)
(7.18966 -3.95787 7.79219e-19)
(7.0203 -4.22233 -8.44449e-20)
(6.8393 -4.4831 8.87426e-19)
(6.64985 -4.7372 -3.7257e-19)
(6.44831 -4.99225 5.24855e-19)
(6.24729 -5.237 2.98066e-19)
(6.03355 -5.48639 -1.67982e-19)
(8.06196 -0.14776 1.02491e-20)
(8.05086 -0.443434 -2.71491e-20)
(8.02747 -0.738874 -1.9574e-19)
(7.9918 -1.03354 -1.61851e-19)
(7.94387 -1.32689 1.93758e-19)
(7.88375 -1.61842 2.89572e-19)
(7.81152 -1.90764 1.88828e-20)
(7.72726 -2.19407 -1.63982e-19)
(7.63111 -2.47727 -2.29478e-19)
(7.52314 -2.75681 3.55254e-19)
(7.40357 -3.03227 -2.45353e-20)
(7.27238 -3.30338 -7.03753e-19)
(7.12997 -3.56968 -7.10326e-19)
(6.97593 -3.83141 2.69359e-19)
(6.81141 -4.08763 3.20485e-19)
(6.63448 -4.34085 -3.16424e-20)
(6.4496 -4.58735 -2.56119e-19)
(6.24925 -4.83928 -2.01574e-19)
(6.05398 -5.08019 -2.63632e-19)
(5.8355 -5.34318 4.35041e-19)
(7.827 -0.14371 -3.12193e-20)
(7.81592 -0.429938 5.41088e-20)
(7.79302 -0.71612 3.39191e-20)
(7.75829 -1.00172 5.35897e-20)
(7.71175 -1.28624 -2.03275e-19)
(7.65341 -1.56919 -2.48783e-19)
(7.58335 -1.85011 -5.81197e-20)
(7.50162 -2.12853 3.07203e-19)
(7.40832 -2.40404 1.50114e-19)
(7.30349 -2.67621 7.30981e-20)
(7.18732 -2.94465 -2.76839e-19)
(7.05966 -3.20908 5.46658e-19)
(6.92099 -3.46906 -5.25117e-19)
(6.77049 -3.72479 -1.28127e-19)
(6.60971 -3.97531 -1.624e-19)
(6.43512 -4.22319 -1.98263e-20)
(6.25324 -4.46409 -2.6646e-19)
(6.04951 -4.71363 3.38439e-19)
(5.85739 -4.94956 1.90992e-19)
(5.62199 -5.2446 -9.96984e-19)
(10.2996 10.9027 1.53713e-18)
(10.7205 10.485 -2.30636e-18)
(11.123 10.052 7.92365e-19)
(11.5081 9.60524 1.77688e-18)
(11.8751 9.14453 1.32032e-19)
(12.2231 8.66995 -1.23723e-18)
(12.5513 8.182 -2.54616e-19)
(12.8592 7.68141 -1.18777e-18)
(13.1463 7.16899 -6.52942e-20)
(13.4123 6.64557 4.49586e-19)
(13.6567 6.11203 5.52817e-19)
(13.8791 5.56926 -8.8848e-19)
(14.0793 5.01819 4.55053e-19)
(14.2569 4.45977 1.30078e-18)
(14.4119 3.89494 -2.32057e-19)
(14.5439 3.32469 -7.62197e-19)
(14.6529 2.74986 1.01795e-18)
(14.739 2.17167 -6.25208e-19)
(14.8019 1.59025 -9.33409e-20)
(14.8424 1.00827 -6.54338e-20)
(10.6687 10.214 8.34935e-19)
(11.0722 9.79535 -2.45099e-18)
(11.4564 9.36064 -1.41593e-18)
(11.8217 8.91092 6.21948e-19)
(12.168 8.44653 -1.53655e-18)
(12.4944 7.96793 8.84039e-19)
(12.8003 7.47586 1.69017e-19)
(13.0851 6.97121 -1.2781e-18)
(13.3483 6.45492 4.6177e-19)
(13.5895 5.92792 3.31728e-19)
(13.8082 5.39119 1.11649e-18)
(14.004 4.84575 -9.44242e-19)
(14.1766 4.29261 -4.91084e-19)
(14.3258 3.73283 1.07424e-18)
(14.4513 3.16745 -6.20393e-19)
(14.5529 2.59756 1.16832e-19)
(14.6307 2.02411 -3.93552e-19)
(14.6846 1.44825 -8.83581e-21)
(14.7143 0.870546 -1.95328e-19)
(14.7202 0.292386 5.2385e-20)
(10.3535 9.84665 1.73645e-19)
(10.7511 9.45345 2.52593e-19)
(11.1312 9.04332 2.08823e-18)
(11.4933 8.61698 -6.6689e-19)
(11.837 8.17503 2.27404e-20)
(12.1615 7.71821 1.21188e-18)
(12.4662 7.24733 -3.62651e-19)
(12.7505 6.76332 -1.66547e-18)
(13.0139 6.2671 1.89376e-18)
(13.2558 5.75961 -1.14801e-18)
(13.4757 5.24184 -5.08059e-19)
(13.6731 4.71479 -8.28473e-19)
(13.8478 4.1795 4.34632e-19)
(13.9993 3.63701 -4.76395e-19)
(14.1274 3.08838 3.54888e-19)
(14.2319 2.53468 -7.50526e-19)
(14.3127 1.97692 7.88872e-19)
(14.3695 1.41623 3.27243e-19)
(14.4023 0.85344 -5.84188e-20)
(14.4109 0.289815 6.95757e-20)
(9.90458 9.42335 -1.23298e-18)
(10.2914 9.05715 -9.5309e-20)
(10.6626 8.67394 4.44959e-19)
(11.0172 8.27431 -1.00989e-18)
(11.3545 7.85895 1.75108e-18)
(11.6739 7.42864 5.44973e-19)
(11.9747 6.98417 -2.98338e-19)
(12.2563 6.52637 -1.06701e-19)
(12.518 6.05611 1.45176e-18)
(12.7593 5.57428 5.98514e-19)
(12.9797 5.08181 1.17955e-18)
(13.1787 4.57965 -2.68746e-19)
(13.3559 4.0688 -1.18011e-19)
(13.5109 3.55026 -3.57898e-19)
(13.6434 3.02504 5.90553e-19)
(13.7531 2.4942 -2.8878e-19)
(13.8398 1.95874 -2.961e-19)
(13.9032 1.41975 1.1752e-19)
(13.9433 0.878218 -7.71455e-21)
(13.9598 0.335325 -1.79052e-20)
(9.46888 8.94357 1.19311e-18)
(9.84021 8.60061 1.89588e-19)
(10.1973 8.24118 -2.37267e-18)
(10.5391 7.86577 -7.37928e-19)
(10.8647 7.47504 -3.30888e-19)
(11.1737 7.06968 -1.50526e-18)
(11.4653 6.65044 -8.32014e-19)
(11.7389 6.21807 -6.18199e-19)
(11.9938 5.77336 7.46543e-19)
(12.2296 5.31714 -2.7308e-19)
(12.4457 4.85028 4.77426e-19)
(12.6416 4.37368 6.7122e-20)
(12.8168 3.88825 1.15105e-19)
(12.971 3.39496 -1.17686e-18)
(13.1038 2.89477 -2.17484e-19)
(13.2149 2.38866 1.24762e-19)
(13.304 1.87762 -6.53037e-20)
(13.371 1.36269 1.078e-19)
(13.4156 0.844875 -1.29063e-19)
(13.4376 0.325248 1.77246e-20)
(9.05063 8.47739 -2.44753e-19)
(9.40502 8.15464 2.88611e-20)
(9.74618 7.81619 9.83266e-19)
(10.0731 7.46243 -2.15152e-19)
(10.3851 7.09392 6.12523e-19)
(10.6814 6.71131 -2.01108e-18)
(10.9614 6.31528 1.35561e-18)
(11.2246 5.90652 -2.45752e-19)
(11.4703 5.48576 -2.53085e-20)
(11.698 5.05378 2.78021e-19)
(11.9072 4.61138 5.47116e-19)
(12.0974 4.1594 -9.52598e-19)
(12.2681 3.69871 4.83123e-19)
(12.419 3.23019 7.07348e-19)
(12.5496 2.75476 2.56677e-20)
(12.6598 2.27333 -2.83639e-19)
(12.7491 1.78686 -2.34788e-20)
(12.8174 1.29631 -5.87022e-20)
(12.8645 0.802653 1.4522e-20)
(12.8901 0.306875 -1.17989e-20)
(8.66166 8.04661 4.2889e-19)
(8.99913 7.74133 2.68679e-19)
(9.32418 7.42114 1.62396e-19)
(9.63589 7.08637 -1.00581e-18)
(9.9335 6.73751 -9.31597e-19)
(10.2164 6.37515 2.11749e-18)
(10.484 5.99992 2.09905e-19)
(10.7357 5.61247 2.02009e-19)
(10.971 5.21348 6.56548e-19)
(11.1893 4.80366 -1.0289e-18)
(11.3902 4.38379 1.61504e-19)
(11.5731 3.95464 4.49357e-19)
(11.7378 3.51701 -3.26446e-19)
(11.8837 3.07175 -1.37428e-19)
(12.0106 2.61971 5.38245e-19)
(12.118 2.16176 -1.23291e-20)
(12.2058 1.69879 -1.96532e-20)
(12.2736 1.23169 -6.34153e-20)
(12.3214 0.761409 1.03277e-20)
(12.3489 0.288846 6.43405e-20)
(8.30871 7.65491 -5.8725e-19)