/*--------------------------------*- C++ -*----------------------------------*\
| =========                 |                                                 |
| \\      /  F ield         | OpenFOAM: The Open Source CFD Toolbox           |
|  \\    /   O peration     | Version:  v1912                                 |
|   \\  /    A nd           | Website:  www.openfoam.com                      |
|    \\/     M anipulation  |                                                 |
\*---------------------------------------------------------------------------*/
FoamFile
{
    version     2.0;
    format      ascii;
    class       volScalarField;
    location    "20.5";
    object      p;
}
// * * * * * * * * * * * * * * * * * * * * * * * * * * * * * * * * * * * * * //

dimensions      [0 2 -2 0 0 0 0];


internalField   nonuniform List<scalar> 
9600
(
-41.1681
-35.8843
-32.6386
-29.8827
-27.3639
-25.0886
-23.028
-21.1535
-19.4471
-17.8944
-16.4824
-15.1986
-14.0313
-12.9693
-12.0024
-11.1209
-10.3163
-9.58061
-8.90612
-8.29076
-41.8898
-36.5899
-33.31
-30.5134
-27.9517
-25.6346
-23.5346
-21.6244
-19.8859
-18.305
-16.8681
-15.5625
-14.376
-13.2973
-12.3154
-11.4207
-10.6042
-9.85742
-9.17249
-8.5485
-42.6135
-37.2918
-33.9765
-31.139
-28.5341
-26.1749
-24.0357
-22.0898
-20.3196
-18.7105
-17.2491
-15.922
-14.7167
-13.6214
-12.6249
-11.717
-10.8886
-10.131
-9.43565
-8.80322
-43.3361
-37.9898
-34.6375
-31.7585
-29.1102
-26.7088
-24.5304
-22.549
-20.7472
-19.1104
-17.6247
-16.2764
-15.0527
-13.941
-12.9301
-12.0093
-11.1693
-10.4008
-9.6952
-9.05459
-44.0548
-38.6824
-35.2923
-32.371
-29.679
-27.2353
-25.0178
-23.0011
-21.168
-19.5038
-17.9942
-16.6252
-15.3832
-14.2556
-13.2306
-12.2971
-11.4457
-10.6665
-9.95081
-9.30234
-44.7674
-39.3682
-35.9395
-32.9754
-30.2394
-27.7535
-25.4969
-23.4452
-21.5812
-19.8901
-18.357
-16.9676
-15.7078
-14.5647
-13.5257
-12.58
-11.7173
-10.9278
-10.2021
-9.54622
-45.4724
-40.0458
-36.5781
-33.5707
-30.7906
-28.2623
-25.967
-23.8805
-21.9861
-20.2684
-18.7123
-17.3029
-16.0258
-14.8675
-13.8151
-12.8574
-11.9839
-11.1841
-10.4489
-9.78594
-46.1682
-40.7138
-37.2068
-34.1558
-31.3313
-28.7609
-26.427
-24.3062
-22.3817
-20.6379
-19.0594
-17.6305
-16.3366
-15.1634
-14.0981
-13.1287
-12.2447
-11.4352
-10.6906
-10.0212
-46.8535
-41.3712
-37.8246
-34.7297
-31.8608
-29.2483
-26.8761
-24.7214
-22.7673
-20.998
-19.3975
-17.9497
-16.6394
-15.4519
-14.374
-13.3935
-12.4994
-11.6804
-10.927
-10.2517
-47.5272
-42.0166
-38.4303
-35.2912
-32.378
-29.7236
-27.3135
-25.1253
-23.1422
-21.3479
-19.7259
-18.2597
-16.9334
-15.7322
-14.6421
-13.6509
-12.7473
-11.9193
-11.1575
-10.477
-48.1882
-42.6491
-39.0228
-35.8395
-32.8819
-30.1859
-27.7382
-25.5171
-23.5054
-21.6866
-20.0437
-18.5596
-17.218
-16.0034
-14.9018
-13.9004
-12.9876
-12.1512
-11.3815
-10.6965
-48.8356
-43.2677
-39.6013
-36.3736
-33.3717
-30.6343
-28.1495
-25.8959
-23.8562
-22.0135
-20.3502
-18.8487
-17.4922
-16.2648
-15.152
-14.1409
-13.2195
-12.3752
-11.5982
-10.9093
-49.4687
-43.8716
-40.1649
-36.8926
-33.8466
-31.0681
-28.5466
-26.2609
-24.1937
-22.3276
-20.6445
-19.1261
-17.7551
-16.5152
-15.3918
-14.3715
-13.4421
-12.5904
-11.8067
-11.1149
-50.087
-44.4599
-40.7127
-37.3958
-34.3057
-31.4864
-28.9286
-26.6114
-24.5173
-22.6283
-20.9257
-19.3907
-18.0056
-16.7537
-15.6199
-14.5908
-13.6539
-12.7955
-12.0059
-11.3124
-50.69
-45.032
-41.244
-37.8824
-34.7484
-31.8888
-29.2951
-26.9469
-24.8263
-22.9148
-21.193
-19.6418
-18.2428
-16.979
-15.835
-14.7972
-13.8531
-12.9884
-12.1938
-11.5001
-51.2772
-45.587
-41.758
-38.3519
-35.1741
-32.2744
-29.6454
-27.2667
-25.12
-23.1864
-21.4459
-19.8786
-18.4657
-17.1901
-16.0359
-14.9894
-14.0379
-13.167
-12.3675
-11.6726
-51.8498
-46.1249
-42.2542
-38.8035
-35.5822
-32.6428
-29.979
-27.5704
-25.3982
-23.4428
-21.6836
-20.1003
-18.6736
-17.3859
-16.2214
-15.1663
-14.2079
-13.3312
-12.5261
-11.827
-52.4123
-46.6468
-42.7318
-39.2361
-35.9717
-32.9933
-30.2954
-27.8575
-25.6603
-23.6835
-21.9058
-20.3062
-18.8652
-17.5649
-16.3895
-15.3255
-14.3604
-13.4783
-12.6685
-11.9736
-52.9668
-47.1521
-43.1891
-39.6486
-36.3422
-33.3259
-30.5949
-28.1285
-25.9069
-23.909
-22.1128
-20.4966
-19.0403
-17.7257
-16.5369
-15.4607
-14.4842
-13.5917
-12.7805
-12.1166
-53.4914
-47.6334
-43.6252
-40.0417
-36.6951
-33.6422
-30.8791
-28.3851
-26.1398
-24.1213
-22.3068
-20.6738
-19.2015
-17.8709
-16.6655
-15.5707
-14.5716
-13.6547
-12.8332
-12.175
-58.725
-58.6946
-58.6276
-58.5386
-58.4267
-58.2894
-58.1263
-57.9378
-57.7245
-57.4869
-57.2255
-56.941
-56.634
-56.3052
-55.9553
-55.5853
-55.1962
-54.7898
-54.3689
-53.9367
-52.4027
-52.4005
-52.3662
-52.3054
-52.2189
-52.1059
-51.967
-51.8026
-51.6135
-51.4003
-51.1637
-50.9042
-50.6225
-50.3191
-49.9948
-49.6502
-49.286
-48.9027
-48.5009
-48.0784
-47.8013
-47.8226
-47.8155
-47.7807
-47.7194
-47.6325
-47.5205
-47.3841
-47.2239
-47.0404
-46.8344
-46.6063
-46.3566
-46.0861
-45.795
-45.484
-45.1533
-44.803
-44.4327
-44.0406
-43.6198
-43.6581
-43.6707
-43.6571
-43.6182
-43.555
-43.4683
-43.3584
-43.2261
-43.0717
-42.8959
-42.6991
-42.482
-42.2448
-41.9882
-41.7123
-41.4173
-41.1032
-40.7697
-40.4161
-39.7603
-39.808
-39.8326
-39.8334
-39.8107
-39.7655
-39.6982
-39.6095
-39.4997
-39.3695
-39.2193
-39.0497
-38.861
-38.6537
-38.4282
-38.1846
-37.9232
-37.6439
-37.3465
-37.0305
-36.2987
-36.3503
-36.381
-36.3901
-36.3776
-36.3442
-36.2905
-36.2169
-36.124
-36.0122
-35.8821
-35.734
-35.5684
-35.3858
-35.1865
-34.9707
-34.7385
-34.4899
-34.2247
-33.9425
-33.2239
-33.2755
-33.308
-33.3206
-33.3134
-33.287
-33.2418
-33.1784
-33.0972
-32.9986
-32.8833
-32.7515
-32.6039
-32.4408
-32.2626
-32.0695
-31.8617
-31.6391
-31.4016
-31.1486
-30.4989
-30.5478
-30.579
-30.5919
-30.5865
-30.5634
-30.523
-30.4658
-30.3922
-30.3027
-30.1979
-30.0781
-29.944
-29.7959
-29.6343
-29.4594
-29.2715
-29.0705
-28.8562
-28.6281
-28.0838
-28.1284
-28.1565
-28.1677
-28.1619
-28.1397
-28.1015
-28.0478
-27.979
-27.8955
-27.7979
-27.6868
-27.5626
-27.4259
-27.2771
-27.1167
-26.9449
-26.7618
-26.567
-26.3601
-25.9392
-25.9788
-26.003
-26.0114
-26.004
-25.9813
-25.9437
-25.8917
-25.8256
-25.746
-25.6534
-25.5484
-25.4316
-25.3035
-25.1648
-25.0159
-24.8572
-24.6889
-24.5107
-24.322
-24.0285
-24.063
-24.083
-24.0881
-24.0785
-24.0545
-24.0166
-23.9651
-23.9006
-23.8235
-23.7343
-23.6337
-23.5223
-23.4008
-23.2699
-23.1303
-22.9824
-22.8265
-22.6626
-22.4899
-22.319
-22.3486
-22.3645
-22.3663
-22.3543
-22.3287
-22.29
-22.2386
-22.1748
-22.0993
-22.0125
-21.9151
-21.8078
-21.6914
-21.5667
-21.4345
-21.2956
-21.1504
-20.9991
-20.8409
-20.7828
-20.8079
-20.8199
-20.8187
-20.8043
-20.777
-20.7374
-20.6857
-20.6223
-20.5479
-20.4628
-20.3678
-20.2636
-20.1511
-20.0313
-19.9052
-19.7738
-19.6379
-19.498
-19.3532
-19.3963
-19.4174
-19.426
-19.4219
-19.4053
-19.3765
-19.3359
-19.2839
-19.2207
-19.147
-19.0633
-18.9701
-18.8683
-18.7589
-18.6428
-18.5215
-18.3964
-18.2685
-18.1392
-18.0072
-18.1398
-18.1573
-18.1628
-18.1562
-18.1377
-18.1075
-18.0661
-18.0137
-17.9507
-17.8776
-17.7949
-17.7032
-17.6033
-17.4961
-17.383
-17.2654
-17.1453
-17.0242
-16.9046
-16.7853
-16.9969
-17.0112
-17.0139
-17.0051
-16.9849
-16.9535
-16.9114
-16.8588
-16.7959
-16.7233
-16.6415
-16.5509
-16.4524
-16.3469
-16.2359
-16.1208
-16.0044
-15.8886
-15.778
-15.6711
-15.9539
-15.9652
-15.9655
-15.9547
-15.933
-15.9007
-15.8579
-15.805
-15.7423
-15.6701
-15.5888
-15.4991
-15.4016
-15.2971
-15.1871
-15.0733
-14.959
-14.8466
-14.7435
-14.6477
-14.9987
-15.0077
-15.0061
-14.9939
-14.9711
-14.938
-14.8949
-14.8419
-14.7794
-14.7077
-14.627
-14.538
-14.4411
-14.3372
-14.2274
-14.1136
-13.9994
-13.8884
-13.7916
-13.7042
-14.1204
-14.128
-14.1255
-14.1127
-14.0899
-14.0571
-14.0146
-13.9626
-13.9014
-13.8312
-13.7522
-13.665
-13.5698
-13.4674
-13.3586
-13.2451
-13.1301
-13.0187
-12.9283
-12.854
-13.3136
-13.3181
-13.313
-13.2985
-13.2745
-13.2413
-13.199
-13.1478
-13.0879
-13.0195
-12.9429
-12.8582
-12.7657
-12.6659
-12.5592
-12.4467
-12.33
-12.2142
-12.1177
-12.0664
-52.6506
-53.2043
-53.722
-54.2258
-54.7127
-55.1768
-55.6153
-56.027
-56.4112
-56.7668
-57.0933
-57.3901
-57.6569
-57.8934
-58.0992
-58.2741
-58.4188
-58.5346
-58.6235
-58.6873
-46.2006
-46.76
-47.2922
-47.8031
-48.2923
-48.7573
-49.1966
-49.6096
-49.9958
-50.3543
-50.6847
-50.9866
-51.2602
-51.506
-51.7229
-51.9099
-52.0672
-52.1952
-52.2945
-52.3639
-41.6008
-42.1484
-42.6734
-43.1759
-43.6559
-44.1127
-44.5455
-44.9536
-45.3365
-45.6936
-46.0238
-46.3269
-46.6028
-46.8504
-47.0699
-47.2621
-47.427
-47.5642
-47.6732
-47.7526
-37.5228
-38.0462
-38.5508
-39.0346
-39.4972
-39.9381
-40.3569
-40.7528
-41.1254
-41.4738
-41.7972
-42.0947
-42.3673
-42.6146
-42.8364
-43.0328
-43.2033
-43.3477
-43.4655
-43.5563
-33.8882
-34.3828
-34.8611
-35.3206
-35.7602
-36.1796
-36.5783
-36.9557
-37.3111
-37.6438
-37.9544
-38.2428
-38.5073
-38.7481
-38.9653
-39.1586
-39.3279
-39.4728
-39.5934
-39.6894
-30.7282
-31.1926
-31.6424
-32.0749
-32.489
-32.8842
-33.2602
-33.6163
-33.9521
-34.2672
-34.5615
-34.8345
-35.0855
-35.3145
-35.5221
-35.7079
-35.8711
-36.0118
-36.1301
-36.2259
-27.9904
-28.4253
-28.8466
-29.252
-29.6402
-30.0107
-30.3631
-30.697
-31.0118
-31.3073
-31.5832
-31.8391
-32.0748
-32.2901
-32.4843
-32.6599
-32.8147
-32.9482
-33.0609
-33.153
-25.609
-26.0162
-26.4107
-26.7902
-27.1535
-27.5001
-27.8296
-28.1415
-28.4354
-28.7111
-28.9683
-29.2069
-29.4267
-29.6276
-29.8096
-29.971
-30.1156
-30.2406
-30.346
-30.4322
-23.5263
-23.9083
-24.2781
-24.6337
-24.9739
-25.2981
-25.606
-25.897
-26.171
-26.4277
-26.667
-26.8888
-27.0929
-27.2793
-27.4479
-27.5987
-27.7305
-27.8458
-27.9432
-28.0226
-21.693
-22.0522
-22.3998
-22.7338
-23.053
-23.3567
-23.6446
-23.9163
-24.1718
-24.4108
-24.6333
-24.8392
-25.0284
-25.2009
-25.3567
-25.4956
-25.6176
-25.7228
-25.8118
-25.884
-20.0681
-20.4071
-20.7349
-21.0495
-21.3496
-21.6347
-21.9044
-22.1585
-22.397
-22.6198
-22.8268
-23.018
-23.1934
-23.3531
-23.4969
-23.6248
-23.7369
-23.8331
-23.914
-23.9792
-18.6184
-18.9393
-19.2497
-19.5472
-19.8302
-20.0983
-20.3514
-20.5895
-20.8124
-21.0203
-21.2132
-21.391
-21.5539
-21.7018
-21.8347
-21.9526
-22.0556
-22.1437
-22.2166
-22.2754
-17.3169
-17.6221
-17.9174
-18.1996
-18.4672
-18.7199
-18.958
-19.1813
-19.39
-19.5843
-19.7642
-19.9299
-20.0814
-20.2186
-20.3416
-20.4504
-20.545
-20.6254
-20.6914
-20.7444
-16.1423
-16.4337
-16.716
-16.9848
-17.2384
-17.4771
-17.7012
-17.911
-18.1067
-18.2885
-18.4567
-18.6113
-18.7523
-18.8799
-18.994
-19.0946
-19.1817
-19.2555
-19.3161
-19.3626
-15.0774
-15.3571
-15.6285
-15.8853
-16.126
-16.3516
-16.5628
-16.76
-16.9436
-17.114
-17.2713
-17.4158
-17.5475
-17.6663
-17.7723
-17.8655
-17.9459
-18.0135
-18.0684
-18.1103
-14.1074
-14.379
-14.6418
-14.8873
-15.1157
-15.329
-15.528
-15.7134
-15.8857
-16.0454
-16.1928
-16.328
-16.451
-16.5619
-16.6606
-16.7471
-16.8214
-16.8835
-16.9334
-16.9711
-13.2148
-13.4856
-13.7437
-13.9783
-14.1947
-14.3962
-14.5836
-14.7577
-14.9195
-15.0694
-15.2076
-15.3344
-15.4496
-15.5533
-15.6454
-15.726
-15.7948
-15.852
-15.8975
-15.9314
-12.3791
-12.6544
-12.9141
-13.1399
-13.3449
-13.5353
-13.7121
-13.8762
-14.0286
-14.1699
-14.3004
-14.42
-14.5286
-14.6263
-14.713
-14.7886
-14.8529
-14.9061
-14.9482
-14.9791
-11.6119
-11.8792
-12.1404
-12.3617
-12.5572
-12.7368
-12.9037
-13.0588
-13.2029
-13.3367
-13.4603
-13.5737
-13.6768
-13.7695
-13.8517
-13.9233
-13.9841
-14.0343
-14.0736
-14.1024
-11.0358
-11.2827
-11.5071
-11.7188
-11.903
-12.0657
-12.2168
-12.3582
-12.4896
-12.6114
-12.7239
-12.827
-12.9206
-13.0045
-13.0785
-13.1426
-13.1968
-13.2409
-13.2749
-13.2988
-5.7879
-6.26995
-6.79945
-7.37359
-7.99893
-8.68297
-9.43351
-10.2602
-11.1752
-12.1943
-13.3379
-14.6328
-16.114
-17.8269
-19.8307
-22.2033
-25.0242
-28.3147
-32.2927
-38.272
-6.05031
-6.54514
-7.08445
-7.66988
-8.30814
-9.00645
-9.77272
-10.6168
-11.5512
-12.592
-13.7599
-15.082
-16.5937
-18.341
-20.3831
-22.7979
-25.6638
-28.9991
-33.0139
-39.013
-6.31428
-6.82188
-7.37113
-7.96809
-8.61953
-9.33234
-10.1146
-10.9764
-11.9305
-12.9933
-14.1858
-15.5354
-17.0781
-18.86
-20.9407
-23.3976
-26.3081
-29.687
-33.7368
-39.7513
-6.57931
-7.09965
-7.65891
-8.26761
-8.93244
-9.65998
-10.4584
-11.3382
-12.3122
-13.3972
-14.6145
-15.9919
-17.5657
-19.3824
-21.5018
-24.0009
-26.9556
-30.3781
-34.464
-40.4985
-6.84497
-7.37798
-7.94733
-8.56798
-9.24641
-9.98885
-10.8037
-11.7015
-12.6957
-13.803
-15.0453
-16.4507
-18.0557
-19.9074
-22.0655
-24.6067
-27.6057
-31.0718
-35.1945
-41.2523
-7.1109
-7.65646
-8.23599
-8.86879
-9.561
-10.3185
-11.1499
-12.066
-13.0804
-14.2103
-15.4776
-16.9111
-18.5476
-20.4343
-22.6312
-25.2145
-28.2576
-31.7671
-35.9264
-42.0085
-7.3768
-7.93477
-8.52452
-9.16965
-9.87582
-10.6485
-11.4966
-12.4311
-13.4658
-14.6183
-15.9109
-17.3726
-19.0406
-20.9624
-23.1981
-25.8234
-28.9105
-32.4629
-36.6582
-42.7649
-7.64241
-8.21259
-8.81259
-9.47022
-10.1905
-10.9785
-11.8433
-12.7963
-13.8515
-15.0267
-16.3446
-17.8345
-19.5341
-21.491
-23.7654
-26.4326
-29.5633
-33.1583
-37.3887
-43.5199
-7.90758
-8.48974
-9.09997
-9.77024
-10.5047
-11.3081
-12.1897
-13.1612
-14.2368
-15.4348
-16.778
-18.2961
-20.0272
-22.0192
-24.3322
-27.041
-30.2151
-33.8521
-38.1168
-44.2722
-8.17228
-8.76611
-9.38651
-10.0695
-10.8182
-11.637
-12.5354
-13.5253
-14.6214
-15.842
-17.2104
-18.7567
-20.5192
-22.5461
-24.8975
-27.6477
-30.8646
-34.5431
-38.8412
-45.0203
-8.4366
-9.04173
-9.67213
-10.3679
-11.1308
-11.965
-12.88
-13.8883
-15.0047
-16.2478
-17.6414
-19.2157
-21.0094
-23.0711
-25.4606
-28.2516
-31.5109
-35.2301
-39.5606
-45.7628
-8.70084
-9.31674
-9.95688
-10.6653
-11.4423
-12.2916
-13.2232
-14.2496
-15.3861
-16.6516
-18.0701
-19.6722
-21.497
-23.5931
-26.0203
-28.8518
-32.1527
-35.912
-40.2737
-46.4984
-8.96544
-9.59141
-10.2409
-10.9617
-11.7526
-12.6167
-13.5645
-14.6089
-15.7652
-17.0528
-18.4959
-20.1256
-21.9811
-24.1112
-26.5758
-29.4472
-32.7891
-36.5876
-40.9793
-47.2256
-9.23109
-9.86614
-10.5242
-11.2569
-12.0613
-12.9399
-13.9035
-14.9654
-16.1413
-17.4507
-18.9181
-20.575
-22.4608
-24.6246
-27.126
-30.0367
-33.4188
-37.2557
-41.6761
-47.9433
-9.4985
-10.1412
-10.8068
-11.5509
-12.368
-13.2606
-14.2396
-15.3187
-16.5137
-17.8444
-19.3358
-21.0194
-22.9352
-25.1321
-27.6698
-30.619
-34.0405
-37.9149
-42.3629
-48.6503
-9.76851
-10.4166
-11.0883
-11.8428
-12.6722
-13.5782
-14.5721
-15.6679
-16.8816
-18.2332
-19.7481
-21.458
-23.4032
-25.6328
-28.206
-31.193
-34.6531
-38.5642
-43.0386
-49.3457
-10.0408
-10.6913
-11.3673
-12.1314
-12.9725
-13.8914
-14.8999
-16.0119
-17.2439
-18.6161
-20.154
-21.8898
-23.8639
-26.1254
-28.7335
-31.7574
-35.2551
-39.2021
-43.7023
-50.029
-10.3143
-10.9625
-11.641
-12.4147
-13.2676
-14.1993
-15.2219
-16.3499
-17.5998
-18.9921
-20.5526
-22.3137
-24.316
-26.6089
-29.251
-32.3109
-35.845
-39.827
-44.3528
-50.7
-10.5814
-11.2216
-11.9035
-12.6893
-13.5552
-14.5
-15.5368
-16.6806
-17.9482
-19.3601
-20.9427
-22.7285
-24.7585
-27.0818
-29.757
-32.8517
-36.4211
-40.4372
-44.989
-51.3603
-10.8227
-11.4491
-12.1503
-12.9563
-13.8361
-14.7935
-15.8441
-17.0034
-18.2881
-19.7193
-21.3233
-23.1333
-25.1901
-27.543
-30.2502
-33.3784
-36.9814
-41.0295
-45.6064
-52.0117
-1.53302
-1.79023
-2.14217
-2.53627
-2.9616
-3.42378
-3.92932
-4.48432
-5.09649
-5.77628
-6.53777
-7.40001
-8.38907
-9.54069
-10.9051
-12.5554
-14.5796
-17.0364
-20.2284
-25.6341
-1.68083
-1.95379
-2.32306
-2.72225
-3.15036
-3.61725
-4.12902
-4.69141
-5.31227
-6.00229
-6.77579
-7.65217
-8.65791
-9.82923
-11.2169
-12.8946
-14.9501
-17.4407
-20.6634
-26.0815
-1.82162
-2.11809
-2.49983
-2.90656
-3.34184
-3.8165
-4.33656
-4.90793
-5.53884
-6.2403
-7.02697
-7.91861
-8.94216
-10.1343
-11.5464
-13.2524
-15.34
-17.8643
-21.1169
-26.5422
-1.98369
-2.2906
-2.68006
-3.09501
-3.53893
-4.02255
-4.55199
-5.13348
-5.77555
-6.48952
-7.29039
-8.19832
-9.24069
-10.4547
-11.8923
-13.6276
-15.7481
-18.3073
-21.5931
-27.0347
-2.15668
-2.47032
-2.86714
-3.29052
-3.74337
-4.23636
-4.77584
-5.36823
-6.02232
-6.74971
-7.56571
-8.49089
-9.55306
-10.79
-12.254
-14.0196
-16.1743
-18.7699
-22.0915
-27.5558
-2.33497
-2.65679
-3.06144
-3.49338
-3.95542
-4.45823
-5.00831
-5.61228
-6.27913
-7.02074
-7.85273
-8.79605
-9.87898
-11.1398
-12.6313
-14.4285
-16.6184
-19.2517
-22.6102
-28.1003
-2.52009
-2.85093
-3.2633
-3.70381
-4.1753
-4.68832
-5.2495
-5.86562
-6.5459
-7.30245
-8.15123
-9.11356
-10.2182
-11.5039
-13.0239
-14.8538
-17.0801
-19.7521
-23.1484
-28.6658
-2.71347
-3.05326
-3.47313
-3.92218
-4.40328
-4.92682
-5.49949
-6.12826
-6.82253
-7.59468
-8.46097
-9.4431
-10.5703
-11.8818
-13.4314
-15.2949
-17.5588
-20.2705
-23.7054
-29.2514
-2.91491
-3.26368
-3.69099
-4.14861
-4.63946
-5.17376
-5.75827
-6.40012
-7.1089
-7.89724
-8.78171
-9.7844
-10.9349
-12.2732
-13.8534
-15.7515
-18.0539
-20.8063
-24.2804
-29.8559
-3.12386
-3.48189
-3.91673
-4.38299
-4.88376
-5.42906
-6.02572
-6.68104
-7.40481
-8.20989
-9.11317
-10.1371
-11.3118
-12.6776
-14.2892
-16.223
-18.5649
-21.3589
-24.8728
-30.4784
-3.33991
-3.70758
-4.15005
-4.62507
-5.13594
-5.69249
-6.30162
-6.97078
-7.70999
-8.53233
-9.45501
-10.5009
-11.7005
-13.0946
-14.7385
-16.7088
-19.0911
-21.9274
-25.4818
-31.1178
-3.5627
-3.94036
-4.39061
-4.87454
-5.39571
-5.96376
-6.58566
-7.26904
-8.02411
-8.86421
-9.80685
-10.8753
-12.1004
-13.5237
-15.2007
-17.2084
-19.6318
-22.5112
-26.1064
-31.7731
-3.79179
-4.17978
-4.63799
-5.13099
-5.66269
-6.2425
-6.87748
-7.57544
-8.34678
-9.20512
-10.1683
-11.2598
-12.5112
-13.9643
-15.6753
-17.7211
-20.1864
-23.1096
-26.7459
-32.4435
-4.02665
-4.42534
-4.8917
-5.39398
-5.93644
-6.5283
-7.17666
-7.88955
-8.67757
-9.5546
-10.5388
-11.654
-12.9323
-14.416
-16.1615
-18.2462
-20.7542
-23.7217
-27.3995
-33.1281
-4.26677
-4.6765
-5.15122
-5.66301
-6.21649
-6.82066
-7.48272
-8.21089
-9.01599
-9.91214
-10.9178
-12.0574
-13.3632
-14.878
-16.6589
-18.7831
-21.3344
-24.3468
-28.0664
-33.826
-4.5116
-4.93271
-5.41601
-5.93755
-6.50232
-7.1191
-7.79516
-8.53894
-9.3615
-10.2772
-11.3049
-12.4692
-13.8031
-15.3497
-17.1665
-19.331
-21.9261
-24.984
-28.7457
-34.5365
-4.76062
-5.19341
-5.68552
-6.21706
-6.79339
-7.42305
-8.11343
-8.87317
-9.71355
-10.6492
-11.6993
-12.8889
-14.2514
-15.8304
-17.6837
-19.889
-22.5286
-25.6324
-29.4369
-35.2592
-5.01327
-5.45803
-5.95918
-6.50097
-7.08914
-7.73199
-8.43699
-9.213
-10.0716
-11.0276
-12.1005
-13.3159
-14.7074
-16.3193
-18.2097
-20.4564
-23.1409
-26.2911
-30.1389
-35.9936
-5.26904
-5.72602
-6.23641
-6.78873
-7.38902
-8.04534
-8.76524
-9.55785
-10.4349
-11.4117
-12.5078
-13.7494
-15.1704
-16.8156
-18.7436
-21.032
-23.7619
-26.9589
-30.8508
-36.7405
-5.52742
-5.99685
-6.51671
-7.07982
-7.6925
-8.36255
-9.09765
-9.90715
-10.8031
-11.8009
-12.9206
-14.1887
-15.6397
-17.3186
-19.2845
-21.615
-24.3904
-27.6341
-31.5699
-37.5007
-1.29165
-1.09307
-0.94642
-0.816555
-0.703048
-0.603341
-0.516336
-0.441249
-0.377584
-0.324986
-0.283188
-0.251975
-0.231171
-0.220636
-0.220199
-0.229546
-0.248562
-0.278058
-0.316743
-0.365392
-1.62429
-1.44851
-1.29797
-1.16314
-1.04506
-0.941146
-0.850431
-0.77211
-0.705671
-0.650738
-0.607027
-0.574311
-0.552401
-0.541142
-0.540371
-0.549852
-0.56947
-0.599465
-0.639449
-0.689507
-1.96185
-1.79389
-1.64351
-1.50767
-1.38762
-1.28171
-1.18921
-1.10943
-1.0419
-0.98626
-0.942227
-0.909571
-0.888102
-0.877656
-0.878067
-0.889153
-0.910819
-0.943106
-0.985824
-1.03888
-2.35155
-2.18224
-2.02911
-1.89054
-1.76714
-1.65794
-1.56243
-1.48006
-1.41041
-1.35313
-1.30794
-1.27461
-1.25295
-1.24278
-1.24393
-1.25623
-1.2796
-1.31396
-1.35914
-1.41511
-2.77759
-2.60622
-2.44952
-2.30733
-2.18001
-2.06704
-1.96806
-1.88263
-1.81041
-1.75108
-1.70437
-1.67005
-1.64792
-1.6378
-1.63952
-1.65291
-1.67786
-1.71427
-1.76196
-1.82088
-3.23799
-3.06387
-2.90343
-2.75729
-2.62587
-2.50896
-2.40634
-2.3177
-2.24275
-2.18122
-2.13285
-2.09743
-2.07476
-2.06466
-2.06694
-2.08145
-2.10806
-2.14662
-2.19697
-2.25907
-3.73917
-3.56086
-3.39599
-3.24536
-3.10944
-2.98825
-2.88168
-2.78952
-2.71157
-2.64758
-2.59733
-2.56062
-2.53726
-2.52705
-2.52983
-2.54543
-2.5737
-2.61449
-2.66763
-2.73305
-4.28814
-4.10419
-3.93387
-3.77792
-3.63686
-3.51081
-3.39977
-3.30364
-3.22225
-3.1554
-3.10292
-3.06461
-3.04028
-3.02975
-3.03286
-3.04943
-3.07931
-3.12232
-3.17828
-3.24717
-4.89277
-4.7018
-4.52483
-4.36256
-4.21549
-4.08382
-3.96763
-3.86688
-3.78147
-3.71124
-3.65603
-3.61568
-3.59
-3.57883
-3.58199
-3.59932
-3.63065
-3.67579
-3.73456
-3.80695
-5.56341
-5.3639
-5.17892
-5.0091
-4.85491
-4.71664
-4.5944
-4.48821
-4.398
-4.32367
-4.2651
-4.22211
-4.19456
-4.18228
-4.18509
-4.20283
-4.23533
-4.28239
-4.34383
-4.41966
-6.31393
-6.10413
-5.90952
-5.73065
-5.568
-5.42186
-5.2924
-5.17967
-5.08367
-5.00431
-4.94149
-4.89507
-4.86491
-4.85085
-4.85272
-4.87036
-4.90359
-4.95219
-5.016
-5.09504
-7.16311
-6.94096
-6.73477
-6.54502
-6.37219
-6.21659
-6.07842
-5.95776
-5.85464
-5.76901
-5.70078
-5.64985
-5.61608
-5.59932
-5.59941
-5.61618
-5.64945
-5.69899
-5.76463
-5.84644
-8.13662
-7.89966
-7.67952
-7.47663
-7.29149
-7.12441
-6.9756
-6.8452
-6.73325
-6.63973
-6.56457
-6.50769
-6.46895
-6.44822
-6.44534
-6.46015
-6.49246
-6.54202
-6.60865
-6.69248
-9.26971
-9.01495
-8.77798
-8.55917
-8.35905
-8.17794
-8.01609
-7.87364
-7.75065
-7.64713
-7.56304
-7.4983
-7.45279
-7.42638
-7.41892
-7.43025
-7.46016
-7.5084
-7.57477
-7.65945
-10.612
-10.3359
-10.0786
-9.84043
-9.62205
-9.42377
-9.24584
-9.08843
-8.95162
-8.83542
-8.73982
-8.66473
-8.61007
-8.5757
-8.56149
-8.56726
-8.5928
-8.63784
-8.70214
-8.78595
-12.2361
-11.9343
-11.6525
-11.391
-11.1504
-10.9312
-10.7335
-10.5576
-10.4035
-10.2713
-10.1609
-10.0724
-10.0056
-9.9603
-9.93648
-9.93395
-9.95248
-9.99177
-10.0516
-10.1321
-14.2293
-13.8973
-13.5864
-13.2972
-13.0302
-12.7859
-12.5646
-12.3663
-12.1912
-12.0393
-11.9106
-11.8051
-11.7227
-11.6633
-11.6267
-11.6128
-11.6214
-11.6521
-11.7048
-11.7794
-16.6508
-16.2849
-15.941
-15.6202
-15.3232
-15.0504
-14.8019
-14.578
-14.3788
-14.2041
-14.054
-13.9286
-13.8277
-13.7513
-13.6992
-13.6713
-13.6675
-13.6876
-13.7312
-13.7973
-19.806
-19.4018
-19.0205
-18.6647
-18.3347
-18.0305
-17.7521
-17.4995
-17.2727
-17.0717
-16.8965
-16.747
-16.6232
-16.5251
-16.4525
-16.4052
-16.3832
-16.3868
-16.4156
-16.4677
-25.1548
-24.7069
-24.2924
-23.9084
-23.5527
-23.2243
-22.9228
-22.6481
-22.4002
-22.179
-21.9845
-21.8168
-21.6759
-21.562
-21.4751
-21.4153
-21.3832
-21.381
-21.4102
-21.4604
-0.423608
-0.491064
-0.567704
-0.653427
-0.748128
-0.851678
-0.963927
-1.0847
-1.21376
-1.35083
-1.49555
-1.64738
-1.80555
-1.96887
-2.13572
-2.30385
-2.46882
-2.6209
-2.74471
-2.86524
-0.749509
-0.81912
-0.898253
-0.986776
-1.08456
-1.19147
-1.30732
-1.43192
-1.56501
-1.70628
-1.85532
-2.01158
-2.17429
-2.34232
-2.51407
-2.68791
-2.86208
-3.02885
-3.17281
-3.3347
-1.10224
-1.17555
-1.25874
-1.35164
-1.45412
-1.56602
-1.68714
-1.81725
-1.9561
-2.10334
-2.25853
-2.42112
-2.59039
-2.76529
-2.94451
-3.12684
-3.31134
-3.4936
-3.66763
-3.86276
-1.48179
-1.55881
-1.6461
-1.74348
-1.8508
-1.96788
-2.09449
-2.23041
-2.37534
-2.52892
-2.69071
-2.86015
-3.03656
-3.21902
-3.40647
-3.59804
-3.79293
-3.9888
-4.18593
-4.40439
-1.89099
-1.97189
-2.06348
-2.16558
-2.27802
-2.4006
-2.5331
-2.67524
-2.82673
-2.9872
-3.1562
-3.3332
-3.51756
-3.70849
-3.90518
-4.10702
-4.31339
-4.52321
-4.73899
-4.97378
-2.33286
-2.41792
-2.51415
-2.62136
-2.73935
-2.86792
-3.00683
-3.1558
-3.31451
-3.48259
-3.65962
-3.84508
-4.0384
-4.23891
-4.44601
-4.65927
-4.87829
-5.10282
-5.33555
-5.58431
-2.81077
-2.90027
-3.00147
-3.11416
-3.23815
-3.3732
-3.51908
-3.6755
-3.84214
-4.01864
-4.20456
-4.39946
-4.6028
-4.81404
-5.03272
-5.25853
-5.49126
-5.73109
-5.98022
-6.2431
-3.32897
-3.42314
-3.52959
-3.64812
-3.77852
-3.92056
-4.07398
-4.23849
-4.41378
-4.59949
-4.79522
-5.00054
-5.21499
-5.43811
-5.66953
-5.90903
-6.1565
-6.41227
-6.6779
-6.95589
-3.89293
-3.99197
-4.10391
-4.22858
-4.36578
-4.51525
-4.67675
-4.84998
-5.03463
-5.23036
-5.43679
-5.65353
-5.88015
-6.11627
-6.36159
-6.61591
-6.87918
-7.15168
-7.43443
-7.72884
-4.50985
-4.61374
-4.73139
-4.86244
-5.00674
-5.16404
-5.3341
-5.51661
-5.71128
-5.91779
-6.13576
-6.36484
-6.60465
-6.85486
-7.11518
-7.38544
-7.66558
-7.95577
-8.2566
-8.56888
-5.18932
-5.29806
-5.42133
-5.55887
-5.71044
-5.87584
-6.0548
-6.24706
-6.4523
-6.67022
-6.90048
-7.14274
-7.39666
-7.66193
-7.93828
-8.22554
-8.5236
-8.83251
-9.15253
-9.48418
-5.94445
-6.05776
-6.18645
-6.33036
-6.4892
-6.66274
-6.85079
-7.05306
-7.26924
-7.49904
-7.74215
-7.99825
-8.26703
-8.54818
-8.84145
-9.14664
-9.4636
-9.79223
-10.1326
-10.485
-6.79357
-6.91086
-7.04451
-7.19425
-7.36005
-7.54162
-7.73872
-7.95092
-8.17811
-8.41998
-8.67624
-8.94659
-9.23071
-9.52831
-9.83914
-10.163
-10.4996
-10.8489
-11.2105
-11.585
-7.76254
-7.88279
-8.02051
-8.17539
-8.34724
-8.53616
-8.74227
-8.96375
-9.20155
-9.45523
-9.7245
-10.0091
-10.3086
-10.6229
-10.9516
-11.2945
-11.6514
-12.0217
-12.4055
-12.8029
-8.8894
-9.01099
-9.15124
-9.30988
-9.48673
-9.68141
-9.89366
-10.1251
-10.3728
-10.6375
-10.9191
-11.2174
-11.5321
-11.8629
-12.2093
-12.5712
-12.9482
-13.3398
-13.7458
-14.1665
-10.2335
-10.354
-10.4945
-10.6547
-10.8346
-11.0337
-11.2516
-11.4881
-11.7443
-12.0197
-12.3126
-12.6239
-12.9529
-13.299
-13.6619
-14.0417
-14.438
-14.8504
-15.2782
-15.7217
-11.8755
-11.9919
-12.1299
-12.2891
-12.4693
-12.6703
-12.8917
-13.1334
-13.3954
-13.6774
-13.9809
-14.3034
-14.644
-15.0017
-15.3781
-15.7735
-16.1873
-16.6188
-17.0668
-17.5315
-13.8841
-13.9935
-14.1258
-14.2801
-14.4561
-14.6544
-14.8746
-15.1167
-15.3802
-15.6645
-15.969
-16.2948
-16.6425
-17.0131
-17.4042
-17.8149
-18.2449
-18.6938
-19.1606
-19.6444
-16.541
-16.6347
-16.7514
-16.8934
-17.0608
-17.2526
-17.4682
-17.7073
-17.9695
-18.2545
-18.5615
-18.8904
-19.2415
-19.6153
-20.0115
-20.4294
-20.869
-21.331
-21.8151
-22.3166
-21.5058
-21.5805
-21.685
-21.8172
-21.9757
-22.1597
-22.3687
-22.602
-22.8595
-23.1407
-23.4456
-23.7739
-24.1259
-24.5018
-24.9017
-25.3256
-25.7745
-26.2524
-26.7618
-27.2849
-27.7772
-22.8272
-20.1446
-18.0129
-16.181
-14.6019
-13.2139
-11.9722
-10.8495
-9.8274
-8.89257
-8.03491
-7.24643
-6.52053
-5.85167
-5.23496
-4.66478
-4.13526
-3.65467
-3.2509
-28.296
-23.3526
-20.6592
-18.5081
-16.6533
-15.0496
-13.6366
-12.3704
-11.2245
-10.1807
-9.22602
-8.35055
-7.54641
-6.80713
-6.12733
-5.50221
-4.92671
-4.39818
-3.92952
-3.52801
-28.8422
-23.8957
-21.1898
-19.0182
-17.1394
-15.5099
-14.0709
-12.7794
-11.6094
-10.5434
-9.56837
-8.67464
-7.85437
-7.10112
-6.40947
-5.77453
-5.19136
-4.65744
-4.18212
-3.76175
-29.4116
-24.4573
-21.7364
-19.5429
-17.6386
-15.9821
-14.5161
-13.1984
-12.0036
-10.9146
-9.91858
-9.0059
-8.16869
-7.40042
-6.69542
-6.04858
-5.4547
-4.91062
-4.42286
-3.98436
-30.001
-25.0363
-22.2986
-20.0819
-18.1504
-16.4657
-14.9716
-13.6267
-12.4063
-11.2936
-10.2759
-9.34353
-8.48864
-7.70446
-6.98511
-6.32516
-5.71912
-5.16326
-4.66229
-4.20824
-30.6088
-25.6327
-22.8752
-20.6342
-18.6743
-16.96
-15.4366
-14.0637
-12.8169
-11.6796
-10.6395
-9.68692
-8.81369
-8.01295
-7.27855
-6.60479
-5.98598
-5.41805
-4.90438
-4.43683
-31.2339
-26.2465
-23.4646
-21.1988
-19.2094
-17.4642
-15.9106
-14.5086
-13.2346
-12.0722
-11.0091
-10.0356
-9.14359
-8.32584
-7.57601
-6.8882
-6.25653
-5.67673
-5.15107
-4.67141
-31.8753
-26.8755
-24.067
-21.7749
-19.7547
-17.9777
-16.3927
-14.9608
-13.6588
-12.4706
-11.384
-10.3893
-9.47809
-8.64305
-7.87762
-7.17568
-6.53126
-5.93987
-5.4028
-4.91196
-32.5318
-27.5181
-24.6817
-22.3618
-20.3096
-18.4995
-16.8822
-15.4196
-14.0889
-12.8744
-11.7639
-10.7475
-9.81689
-8.96441
-8.18332
-7.46729
-6.81025
-6.20752
-5.65945
-5.15803
-33.2022
-28.1732
-25.308
-22.9587
-20.8732
-19.0289
-17.3784
-15.8843
-14.5243
-13.2829
-12.1481
-11.1099
-10.1596
-9.28963
-8.49286
-7.7628
-7.09326
-6.47936
-5.92056
-5.40892
-33.8853
-28.8398
-25.9448
-23.5645
-21.4446
-19.5651
-17.8804
-16.3541
-14.9643
-13.6956
-12.5362
-11.4759
-10.5059
-9.61831
-8.80586
-8.06183
-7.37988
-6.7549
-6.18552
-5.66389
-34.5801
-29.5167
-26.5911
-24.1784
-22.0228
-20.1072
-18.3876
-16.8284
-15.4081
-14.1119
-12.9275
-11.845
-10.8552
-9.94995
-9.12184
-8.36389
-7.66957
-7.03356
-6.45366
-5.9222
-35.2855
-30.203
-27.2458
-24.7994
-22.607
-20.6542
-18.8988
-17.3061
-15.8551
-14.5309
-13.3215
-12.2165
-11.2068
-10.284
-9.44026
-8.6684
-7.96175
-7.31471
-6.72432
-6.18313
-36.0006
-30.8976
-27.9077
-25.4264
-23.196
-21.2052
-19.4134
-17.7867
-16.3044
-14.952
-13.7173
-12.5899
-11.5604
-10.6199
-9.76053
-8.97479
-8.2558
-7.59772
-6.99683
-6.44599
-36.7242
-31.5993
-28.5758
-26.0582
-23.789
-21.7593
-19.9304
-18.2691
-16.7553
-15.3745
-14.1144
-12.9645
-11.915
-10.957
-10.082
-9.28243
-8.55112
-7.88196
-7.27056
-6.71014
-37.4554
-32.3069
-29.2488
-26.6939
-24.3847
-22.3154
-20.4488
-18.7526
-17.207
-15.7975
-14.5121
-13.3396
-12.2703
-11.2946
-10.4041
-9.59071
-8.84709
-8.16683
-7.54488
-6.97496
-38.1937
-33.0193
-29.9254
-27.3322
-24.9821
-22.8724
-20.9676
-19.2361
-17.6585
-16.2203
-14.9094
-13.7145
-12.6253
-11.6322
-10.7262
-9.89902
-9.1431
-8.45172
-7.81922
-7.2399
-38.9407
-33.7362
-30.6044
-27.9714
-25.5798
-23.4291
-21.4857
-19.7186
-18.1088
-16.642
-15.3057
-14.0884
-12.9795
-11.969
-11.0476
-10.2067
-9.43855
-8.73606
-8.09301
-7.50442
-39.6966
-34.4564
-31.2837
-28.6101
-26.1764
-23.9844
-22.0021
-20.1993
-18.5574
-17.0619
-15.7002
-14.4607
-13.3321
-12.3044
-11.3677
-10.5132
-9.73285
-9.01927
-8.36572
-7.76804
-40.4487
-35.175
-31.962
-29.2474
-26.7714
-24.5379
-22.5164
-20.6779
-19.0037
-17.4796
-16.0927
-14.8309
-13.6829
-12.6379
-11.6861
-10.8181
-10.0256
-9.30094
-8.63691
-8.03033
-6.53914
-4.50264
-3.19809
-2.2008
-1.50614
-0.997624
-0.634293
-0.377197
-0.19931
-0.0798669
-0.0032255
0.0425968
0.066503
0.0752131
0.0737212
0.0656152
0.0535553
0.0393925
0.024457
0.00963572
-0.00446198
-0.0174884
-0.0292072
-0.0395827
-0.0485387
-0.0562444
-0.0626206
-0.0680069
-0.0721472
-0.0755596
-0.077607
-0.0790121
-0.0785847
-0.0772457
-0.0732808
-0.0675964
-0.058683
-0.0464409
-0.031602
-0.011329
-6.78574
-4.67847
-3.33986
-2.31249
-1.59464
-1.06929
-0.692793
-0.425552
-0.239642
-0.113749
-0.0318337
0.0183717
0.0459545
0.057776
0.0589364
0.0530974
0.0429793
0.030482
0.0169746
0.00337503
-0.00967785
-0.0218139
-0.0327766