/*--------------------------------*- C++ -*----------------------------------*\
| =========                 |                                                 |
| \\      /  F ield         | OpenFOAM: The Open Source CFD Toolbox           |
|  \\    /   O peration     | Version:  v1912                                 |
|   \\  /    A nd           | Website:  www.openfoam.com                      |
|    \\/     M anipulation  |                                                 |
\*---------------------------------------------------------------------------*/
FoamFile
{
    version     2.0;
    format      ascii;
    class       volVectorField;
    location    "20.5";
    object      U;
}
// * * * * * * * * * * * * * * * * * * * * * * * * * * * * * * * * * * * * * //

dimensions      [0 1 -1 0 0 0 0];


internalField   nonuniform List<vector> 
9600
(
(0.457007 -9.37764 -1.52944e-19)
(0.158631 -8.66055 0)
(0.23777 -8.18874 -8.95193e-20)
(0.312543 -7.86471 0)
(0.375836 -7.62177 0)
(0.440264 -7.41817 -3.13378e-20)
(0.501989 -7.23085 -5.14386e-22)
(0.557997 -7.04813 2.60951e-20)
(0.607565 -6.86492 0)
(0.650735 -6.67986 -4.4174e-20)
(0.687881 -6.49358 0)
(0.719598 -6.30754 -1.79792e-21)
(0.746589 -6.12348 -2.58321e-21)
(0.76957 -5.943 -3.07365e-20)
(0.789228 -5.76739 2.58611e-20)
(0.806184 -5.59756 -2.54078e-20)
(0.82096 -5.4339 2.25807e-20)
(0.834079 -5.27627 0)
(0.846309 -5.12391 -1.79226e-20)
(0.857333 -4.97531 1.96758e-20)
(0.825491 -9.36636 -3.05639e-19)
(0.502021 -8.68647 1.1805e-20)
(0.564338 -8.23005 1.84435e-19)
(0.627405 -7.91505 -1.56746e-19)
(0.681415 -7.67651 1.54582e-19)
(0.73752 -7.47339 0)
(0.791115 -7.28392 5.97026e-20)
(0.838855 -7.09743 -5.9511e-20)
(0.879947 -6.90961 -1.03061e-19)
(0.914485 -6.71967 1.30036e-19)
(0.942948 -6.52858 -8.44007e-20)
(0.966049 -6.33808 -3.4338e-20)
(0.984594 -6.15002 6.93743e-20)
(0.999386 -5.96608 0)
(1.01117 -5.78757 0)
(1.02061 -5.61538 9.68024e-20)
(1.02822 -5.44989 -1.64085e-19)
(1.03455 -5.2909 0)
(1.04044 -5.13751 0)
(1.04532 -4.98813 -7.57037e-20)
(1.19425 -9.34151 6.31351e-19)
(0.847515 -8.69949 0)
(0.894234 -8.25867 -3.72546e-19)
(0.946305 -7.95284 -3.37153e-19)
(0.991322 -7.7187 0)
(1.03909 -7.51607 5.37074e-19)
(1.08434 -7.32448 -5.06676e-19)
(1.12348 -7.13435 9.91149e-20)
(1.15571 -6.94214 -2.20651e-19)
(1.18122 -6.74759 -3.66122e-19)
(1.20063 -6.55205 4.99094e-19)
(1.21478 -6.35748 -3.08278e-19)
(1.22458 -6.16583 -1.37936e-19)
(1.23094 -5.97885 0)
(1.23465 -5.79786 5.40652e-21)
(1.2364 -5.62373 1.02079e-19)
(1.23673 -5.4568 4.40156e-20)
(1.23619 -5.29684 0)
(1.2357 -5.14281 7.97411e-20)
(1.23433 -4.99307 8.17793e-20)
(1.56217 -9.30273 -8.53646e-19)
(1.19452 -8.69936 -3.99053e-19)
(1.2269 -8.2744 3.8733e-19)
(1.26868 -7.97778 6.63528e-19)
(1.30499 -7.74802 -3.21871e-19)
(1.34438 -7.54586 5.52345e-21)
(1.38105 -7.3522 2.49085e-19)
(1.41126 -7.15859 2.25294e-19)
(1.43425 -6.96224 4.11948e-19)
(1.45036 -6.76342 0)
(1.46036 -6.56382 1.58063e-19)
(1.46523 -6.36559 -1.67955e-19)
(1.46603 -6.1708 1.02246e-20)
(1.46373 -5.98123 2.64043e-19)
(1.4592 -5.79819 2.25847e-19)
(1.45314 -5.62253 -3.1871e-19)
(1.4461 -5.45458 1.04945e-19)
(1.43865 -5.29403 -1.70522e-19)
(1.43175 -5.13975 1.69702e-19)
(1.42408 -4.99007 -8.18174e-20)
(1.92895 -9.24996 4.30372e-19)
(1.54275 -8.68592 0)
(1.56195 -8.27701 3.79689e-19)
(1.59404 -7.98956 0)
(1.62187 -7.76411 0)
(1.65282 -7.56241 -2.95161e-19)
(1.68066 -7.36679 -5.27146e-19)
(1.7016 -7.16989 -4.45957e-19)
(1.71498 -6.96968 1.8346e-20)
(1.72131 -6.76695 -1.92289e-19)
(1.72156 -6.56371 0)
(1.71688 -6.36228 -1.58404e-19)
(1.70844 -6.16482 -2.85086e-19)
(1.69729 -5.97311 2.50312e-19)
(1.68437 -5.78847 -7.11019e-19)
(1.6704 -5.61173 1.15078e-19)
(1.65592 -5.44317 9.09621e-20)
(1.64153 -5.28244 -1.87632e-19)
(1.62824 -5.12829 -8.18891e-20)
(1.61423 -4.9791 2.44242e-19)
(2.29403 -9.18312 4.14552e-19)
(1.89171 -8.65896 4.10019e-19)
(1.89885 -8.26621 0)
(1.92183 -7.98789 0)
(1.94136 -7.76668 -6.13317e-19)
(1.96378 -7.56545 3.35855e-19)
(1.98254 -7.36797 8.05447e-19)
(1.99385 -7.16801 0)
(1.99726 -6.96427 2.12221e-19)
(1.99347 -6.75803 1.92289e-19)
(1.98367 -6.5516 -3.39054e-19)
(1.96917 -6.34745 4.91618e-19)
(1.95127 -6.14781 1.44062e-19)
(1.93111 -5.95445 0)
(1.90967 -5.76868 1.19677e-19)
(1.88772 -5.59128 5.36486e-19)
(1.86577 -5.42253 -3.19677e-19)
(1.84444 -5.26201 3.58592e-19)
(1.82479 -5.10839 -6.81663e-19)
(1.80446 -4.96015 7.88504e-19)
(2.65691 -9.10219 4.21361e-19)
(2.24089 -8.61829 -2.22949e-18)
(2.23707 -8.24177 0)
(2.25147 -7.97247 0)
(2.26286 -7.75543 0)
(2.27663 -7.55469 -5.94049e-19)
(2.28602 -7.3555 0)
(2.28738 -7.15274 -9.49499e-19)
(2.28045 -6.94584 8.75135e-19)
(2.26622 -6.73653 -8.11945e-19)
(2.24608 -6.52739 0)
(2.22153 -6.32103 0)
(2.19399 -6.11972 0)
(2.16469 -5.92521 -2.73439e-19)
(2.13465 -5.73878 0)
(2.10465 -5.56117 0)
(2.07521 -5.39265 -4.00175e-19)
(2.04698 -5.23275 3.93184e-19)
(2.02103 -5.08005 0)
(1.99439 -4.9332 0)
(3.01702 -9.00719 -1.37093e-18)
(2.58974 -8.56378 8.8716e-19)
(2.57605 -8.20345 0)
(2.58236 -7.94305 0)
(2.58572 -7.7301 0)
(2.5907 -7.5299 5.64814e-19)
(2.59046 -7.32918 -5.66249e-19)
(2.58152 -7.12392 -8.48827e-21)
(2.56393 -6.91426 -8.75501e-19)
(2.53894 -6.70235 8.19421e-19)
(2.5082 -6.49102 -3.69043e-19)
(2.47339 -6.28299 6.40814e-19)
(2.43606 -6.08053 -4.57415e-20)
(2.39751 -5.88538 -5.79064e-19)
(2.3588 -5.69877 -4.87215e-19)
(2.32072 -5.52141 4.78674e-19)
(2.2838 -5.35354 0)
(2.2487 -5.19466 0)
(2.21653 -5.04326 3.45381e-19)
(2.18366 -4.89826 -3.80509e-19)
(3.37381 -8.89814 9.16205e-19)
(2.93771 -8.49528 8.70278e-19)
(2.9152 -8.15105 -1.64841e-18)
(2.91386 -7.89941 7.78073e-19)
(2.9093 -7.69048 0)
(2.90533 -7.49088 6.04324e-19)
(2.89517 -7.28885 -5.29406e-19)
(2.8756 -7.08143 1.49534e-18)
(2.84702 -6.86943 -2.33464e-20)
(2.811 -6.65543 0)
(2.76943 -6.44246 7.44486e-19)
(2.72419 -6.2333 0)
(2.67693 -6.03024 0)
(2.62905 -5.83498 -2.64484e-19)
(2.58163 -5.64867 5.33733e-19)
(2.53547 -5.47201 0)
(2.49108 -5.30521 4.17657e-19)
(2.44917 -5.14774 1.73539e-19)
(2.41088 -4.99803 -3.76996e-19)
(2.37188 -4.85535 3.66092e-19)
(3.72673 -8.77511 -9.42738e-19)
(3.28421 -8.4127 8.84027e-19)
(3.2539 -8.08442 -2.51576e-18)
(3.24535 -7.84136 7.90592e-19)
(3.23291 -7.63638 0)
(3.21982 -7.43747 -1.21848e-18)
(3.19945 -7.23436 5.85227e-19)
(3.16895 -7.02516 0)
(3.12908 -6.8113 -4.63155e-19)
(3.08177 -6.59574 -8.02146e-19)
(3.02917 -6.38168 -6.97796e-19)
(2.97334 -6.17197 5.26902e-20)
(2.91607 -5.96887 6.52418e-19)
(2.85879 -5.77402 2.64274e-19)
(2.80264 -5.58852 -3.72484e-20)
(2.7484 -5.41301 -4.97427e-19)
(2.69658 -5.24771 -2.22227e-19)
(2.64793 -5.09205 -2.00229e-19)
(2.60363 -4.94441 5.3364e-19)
(2.55861 -4.80452 -7.96051e-19)
(4.07522 -8.6382 9.42741e-19)
(3.62866 -8.31599 -4.63294e-20)
(3.59152 -8.00342 8.07685e-19)
(3.57614 -7.76875 0)
(3.55586 -7.56766 -6.66995e-19)
(3.53347 -7.36954 1.28134e-18)
(3.5026 -7.16564 -1.09284e-18)
(3.46086 -6.95505 1.07543e-18)
(3.40943 -6.73984 -4.34462e-19)
(3.3506 -6.52327 8.8259e-19)
(3.28679 -6.3087 3.81648e-19)
(3.22027 -6.09903 0)
(3.15291 -5.89645 0)
(3.08621 -5.70256 -2.73945e-19)
(3.02132 -5.51836 3.76393e-20)
(2.95902 -5.34447 9.79104e-19)
(2.89981 -5.18107 -2.42216e-19)
(2.8445 -5.0276 7.98763e-19)
(2.7943 -4.88242 1.39378e-19)
(2.74342 -4.74579 -8.13002e-19)
(4.41873 -8.48751 -2.89849e-18)
(3.97045 -8.20512 -9.70684e-19)
(3.92744 -7.90795 -2.58621e-18)
(3.90557 -7.68145 -1.57095e-18)
(3.87745 -7.48419 -7.4446e-19)
(3.84557 -7.28702 -7.27475e-19)
(3.80393 -7.08263 -2.36947e-18)
(3.75066 -6.8711 -4.83033e-20)
(3.68742 -6.65505 -1.8993e-18)
(3.61687 -6.43805 3.0052e-20)
(3.54172 -6.22358 -7.86816e-19)
(3.4644 -6.01453 -7.16301e-19)
(3.3869 -5.81306 6.53305e-19)
(3.31078 -5.62066 -5.96965e-19)
(3.23716 -5.43826 -5.46497e-19)
(3.16683 -5.26643 -5.01208e-19)
(3.10028 -5.10535 -1.34468e-18)
(3.03838 -4.95446 4.78684e-19)
(2.98239 -4.8121 1.15999e-18)
(2.92584 -4.6792 -1.2353e-18)
(4.75671 -8.3232 3.89764e-18)
(4.309 -8.0801 4.77872e-18)
(4.261 -7.79797 8.1953e-19)
(4.23296 -7.57938 3.92245e-18)
(4.19697 -7.38592 -7.67895e-19)
(4.1554 -7.18986 3.83146e-18)
(4.10273 -6.98531 1.11894e-18)
(4.03766 -6.7733 3.13929e-18)
(3.96238 -6.55697 -9.58907e-19)
(3.87994 -6.34013 2.65215e-18)
(3.79333 -6.12636 1.58469e-18)
(3.70516 -5.91854 1.44284e-18)
(3.61751 -5.71875 -1.95146e-18)
(3.53196 -5.52838 1.82707e-18)
(3.44965 -5.34829 1.10138e-18)
(3.37132 -5.17896 1.01034e-18)
(3.29748 -5.02061 9.2845e-19)
(3.22906 -4.87267 7.13308e-21)
(3.16741 -4.73351 7.87306e-19)
(3.10539 -4.6048 8.19737e-19)
(5.08864 -8.14544 -2.89284e-18)
(4.64372 -7.94097 1.06463e-18)
(4.59157 -7.67343 2.62847e-18)
(4.5576 -7.46251 -3.19948e-18)
(4.51371 -7.27282 7.39258e-19)
(4.46225 -7.07805 -2.56254e-18)
(4.39828 -6.87372 1.25516e-18)
(4.32119 -6.66172 -2.09994e-18)
(4.23367 -6.44566 4.82597e-20)
(4.1392 -6.2296 1.1464e-20)
(4.04106 -6.01714 -1.60628e-18)
(3.942 -5.81114 -7.2654e-19)
(3.8442 -5.6136 1.33471e-18)
(3.74924 -5.4258 8.44556e-21)
(3.65826 -5.2485 -3.64184e-20)
(3.57197 -5.08213 -1.05484e-18)
(3.49087 -4.92691 -4.67982e-19)
(3.41599 -4.78229 -2.64722e-20)
(3.34878 -4.64668 -8.20752e-19)
(3.28152 -4.52269 -4.13972e-19)
(5.41402 -7.95439 0)
(4.97404 -7.78778 -1.96624e-18)
(4.91851 -7.53434 2.27037e-20)
(4.87882 -7.33081 3.19244e-18)
(4.82696 -7.14488 1.33343e-18)
(4.76539 -6.95164 -1.38886e-18)
(4.6899 -6.74791 -1.19452e-18)
(4.60056 -6.53644 0)
(4.50065 -6.32125 -9.48283e-19)
(4.39406 -6.10656 9.04568e-19)
(4.28433 -5.89603 -3.83619e-20)
(4.17438 -5.69244 0)
(4.06644 -5.4977 -6.71884e-19)
(3.9621 -5.31298 5.81077e-19)
(3.86247 -5.13894 4.84721e-19)
(3.76825 -4.97596 -5.86321e-19)
(3.67989 -4.82425 -5.08099e-19)
(3.59854 -4.68329 8.81397e-19)
(3.52578 -4.55162 -8.13063e-19)
(3.45341 -4.43295 4.28155e-19)
(5.73239 -7.75026 2.98605e-18)
(5.29938 -7.62063 -2.02447e-18)
(5.24114 -7.38073 -1.72411e-18)
(5.19592 -7.18434 8.01534e-19)
(5.13599 -7.00218 -1.55528e-18)
(5.06413 -6.8107 0)
(4.97689 -6.608 0)
(4.87512 -6.39758 0)
(4.7627 -6.18385 -4.37013e-20)
(4.64392 -5.97115 -1.81515e-18)
(4.5226 -5.76315 8.56857e-19)
(4.40178 -5.56254 7.23443e-19)
(4.28375 -5.37113 6.11178e-19)
(4.17009 -5.18999 -2.5094e-18)
(4.06185 -5.01966 1.18924e-18)
(3.95968 -4.86046 0)
(3.86403 -4.71261 -2.96923e-20)
(3.7761 -4.57563 -1.36732e-18)
(3.69763 -4.44824 -5.5414e-21)
(3.62013 -4.33521 -4.28604e-19)
(6.04338 -7.53332 -2.03154e-18)
(5.61921 -7.43964 -1.0671e-18)
(5.55882 -7.21267 8.00976e-19)
(5.50818 -7.02314 -1.43122e-19)
(5.44009 -6.84478 -4.52973e-18)
(5.35774 -6.65535 4.0948e-18)
(5.25857 -6.45413 -4.8511e-20)
(5.14423 -6.24532 1.11907e-18)
(5.01921 -6.03365 1.00324e-18)
(4.88823 -5.82355 9.2021e-19)
(4.75535 -5.61865 8.36663e-19)
(4.62373 -5.42158 1.49377e-18)
(4.49568 -5.23401 -7.18852e-19)
(4.37277 -5.05691 1.86088e-18)
(4.25598 -4.89071 -1.2029e-18)
(4.1459 -4.7357 -4.96899e-19)
(4.04293 -4.59207 1.99614e-18)
(3.94834 -4.45939 1.33269e-18)
(3.86404 -4.33643 -2.72363e-20)
(3.78163 -4.22883 0)
(6.34699 -7.30406 -1.0325e-18)
(5.93314 -7.24501 2.03835e-18)
(5.87089 -7.03023 1.78085e-18)
(5.81489 -6.84729 -1.45012e-19)
(5.73854 -6.6728 -1.53655e-18)
(5.64551 -6.48573 6.97766e-20)
(5.53425 -6.28647 1.26358e-20)
(5.40724 -6.07985 1.12691e-20)
(5.2696 -5.87084 0)
(5.12645 -5.66394 8.99506e-19)
(4.98208 -5.46271 -1.71192e-18)
(4.83974 -5.26968 -7.31592e-19)
(4.70176 -5.08641 7.26233e-19)
(4.56965 -4.91375 -6.36547e-19)
(4.44435 -4.75209 5.89175e-19)
(4.32635 -4.60167 -5.36047e-19)
(4.21606 -4.46271 4.77316e-21)
(4.11486 -4.33462 -4.5497e-19)
(4.02499 -4.21611 -4.20125e-19)
(3.93841 -4.11462 -4.20547e-19)
(6.64355 -7.06296 0)
(6.24092 -7.03667 -9.92813e-19)
(6.17672 -6.83332 9.81419e-19)
(6.11529 -6.65684 1.70879e-18)
(6.03058 -6.48641 -1.54452e-18)
(5.92675 -6.30209 1.33229e-18)
(5.80327 -6.10532 -2.56111e-18)
(5.66356 -5.90147 -2.27139e-18)
(5.51333 -5.69573 -9.89544e-19)
(5.35811 -5.49259 4.36417e-20)
(5.20238 -5.29555 -8.18043e-19)
(5.04946 -5.107 3.42434e-20)
(4.90165 -4.92838 0)
(4.76036 -4.76045 -1.24826e-18)
(4.6264 -4.60354 6.37213e-19)
(4.50015 -4.45792 0)
(4.38207 -4.32373 -4.98217e-19)
(4.27373 -4.20016 -8.95235e-19)
(4.17738 -4.08682 8.79658e-19)
(4.08564 -3.99596 4.34233e-19)
(6.93267 -6.80922 0)
(6.54195 -6.8139 0)
(6.47559 -6.62188 -1.8178e-18)
(6.40866 -6.4521 -1.56014e-18)
(6.31555 -6.28599 3.16779e-18)
(6.20082 -6.10485 0)
(6.06507 -5.91109 0)
(5.91267 -5.71061 1.14104e-18)
(5.74997 -5.50873 0)
(5.58285 -5.30992 0)
(5.41599 -5.11755 0)
(5.25276 -4.93386 0)
(5.09536 -4.76014 0)
(4.94506 -4.59702 0)
(4.80242 -4.44476 0)
(4.66757 -4.30354 0)
(4.54076 -4.17325 0)
(4.42307 -4.05326 0)
(4.31468 -3.94654 0)
(4.20964 -3.86989 0)
(10.03 0.0876272 1.44565e-19)
(10.01 -0.307247 2.81165e-19)
(9.97474 -0.699489 -2.88889e-19)
(9.92479 -1.08895 5.76018e-19)
(9.85987 -1.4753 -5.76018e-19)
(9.77984 -1.85804 -5.43904e-19)
(9.68481 -2.23662 -5.42415e-19)
(9.57498 -2.6105 1.70985e-18)
(9.4506 -2.97913 -1.1392e-18)
(9.3119 -3.34196 1.12985e-18)
(9.15918 -3.69844 -1.12985e-18)
(8.99273 -4.04805 1.12167e-18)
(8.81289 -4.39026 -2.22478e-18)
(8.62 -4.72457 3.27546e-18)
(8.41442 -5.0505 0)
(8.19655 -5.36759 -3.2193e-18)
(7.96676 -5.67544 1.56715e-20)
(7.72559 -5.97366 3.24598e-18)
(7.47314 -6.26213 0)
(7.21107 -6.54014 0)
(10.0841 -0.211045 0)
(10.0437 -0.605812 -1.49502e-20)
(9.98663 -0.996851 0)
(9.91353 -1.38383 5.49926e-19)
(9.82466 -1.76632 5.73018e-19)
(9.72018 -2.14374 -1.65767e-18)
(9.60039 -2.51545 2.88817e-18)
(9.46565 -2.88084 -1.13993e-18)
(9.3163 -3.23931 -1.08612e-18)
(9.15274 -3.59028 -1.08176e-18)
(8.97538 -3.93319 4.43478e-20)
(8.78465 -4.26749 1.10936e-18)
(8.581 -4.59265 -5.51411e-18)
(8.36491 -4.9082 -1.15805e-18)
(8.13686 -5.21367 2.20401e-18)
(7.89736 -5.50862 2.20205e-18)
(7.64688 -5.79268 1.11952e-18)
(7.38598 -6.0655 -2.15736e-18)
(7.11475 -6.32685 1.0213e-18)
(6.83414 -6.57637 0)
(10.019 -0.150246 1.29803e-19)
(9.98205 -0.539981 -2.65896e-19)
(9.92785 -0.926614 7.67513e-19)
(9.85679 -1.30946 -5.44145e-19)
(9.76924 -1.68787 -5.18534e-19)
(9.66556 -2.06114 5.4173e-19)
(9.54612 -2.42857 0)
(9.41131 -2.78946 0)
(9.26154 -3.14315 2.05621e-18)
(9.09724 -3.48902 3.06765e-18)
(8.9189 -3.82644 -9.69573e-19)
(8.72698 -4.15483 3.03375e-18)
(8.52201 -4.47364 -9.65559e-19)
(8.30451 -4.78234 -2.95509e-18)
(8.07502 -5.08043 1.30761e-20)
(7.8341 -5.36744 1.89626e-18)
(7.58227 -5.64295 -8.54926e-19)
(7.32012 -5.90656 -1.86642e-18)
(7.04797 -6.15788 -1.00958e-18)
(6.76654 -6.39642 1.83497e-18)
(9.84187 -0.114178 0)
(9.8115 -0.494308 2.23787e-19)
(9.764 -0.872153 2.22838e-19)
(9.69956 -1.24682 -9.15825e-19)
(9.61851 -1.61752 0)
(9.52118 -1.98349 0)
(9.40793 -2.34398 0)
(9.27912 -2.69824 0)
(9.13516 -3.04558 -9.70025e-19)
(8.97649 -3.38531 -9.66402e-19)
(8.80358 -3.71678 0)
(8.61691 -4.03936 1.82646e-18)
(8.41701 -4.35244 -4.51555e-18)
(8.20442 -4.65545 3.63163e-18)
(7.9797 -4.94786 -3.51958e-18)
(7.74342 -5.22914 -8.54113e-19)
(7.49615 -5.49882 1.55093e-19)
(7.23849 -5.75643 1.5357e-19)
(6.97095 -6.00151 -1.74086e-18)
(6.69424 -6.23358 -7.0703e-20)
(9.58222 -0.100896 0)
(9.559 -0.468605 -2.20704e-19)
(9.51908 -0.834664 0)
(9.46256 -1.19818 4.4153e-19)
(9.38967 -1.55832 4.20694e-19)
(9.30068 -1.91431 3.8428e-19)
(9.19591 -2.26538 0)
(9.07568 -2.61078 0)
(8.94037 -2.94979 0)
(8.79037 -3.28168 0)
(8.62613 -3.60579 7.94301e-19)
(8.44812 -3.92144 8.56598e-19)
(8.25683 -4.22802 8.51954e-19)
(8.05279 -4.52491 -8.64781e-19)
(7.83656 -4.81154 -1.48613e-18)
(7.6087 -5.08734 1.69008e-18)
(7.36978 -5.35179 3.27633e-18)
(7.12042 -5.60438 1.59361e-18)
(6.86118 -5.84461 0)
(6.59275 -6.072 -1.50132e-18)
(9.27151 -0.0920656 4.52844e-20)
(9.25501 -0.445517 0)
(9.22245 -0.79787 -7.42226e-19)
(9.17386 -1.14828 1.78214e-23)
(9.10938 -1.49594 1.59248e-20)
(9.02924 -1.84006 -6.75297e-20)
(8.93369 -2.17989 0)
(8.82302 -2.51468 3.04861e-20)
(8.69756 -2.84371 -7.53677e-19)
(8.55766 -3.16625 1.46821e-18)
(8.40373 -3.48163 -1.53169e-18)
(8.23618 -3.78917 8.37652e-19)
(8.05549 -4.08823 -4.38506e-18)
(7.86215 -4.37818 2.89215e-18)
(7.65668 -4.65843 1.53435e-18)
(7.43962 -4.92839 0)
(7.21155 -5.1875 -2.83065e-18)
(6.97304 -5.43522 -6.09779e-20)
(6.72468 -5.67103 -2.78826e-18)
(6.46711 -5.89442 2.89974e-18)
(8.93707 -0.0870759 4.06876e-20)
(8.92604 -0.425502 -8.52767e-20)
(8.89968 -0.763283 6.99332e-19)
(8.85797 -1.09963 -1.38457e-20)
(8.80102 -1.43376 6.99187e-19)
(8.729 -1.76492 -1.05614e-18)
(8.64213 -2.09238 0)
(8.54064 -2.41541 7.12094e-19)
(8.42482 -2.73329 6.51477e-19)
(8.29497 -3.04534 -7.08145e-19)
(8.15145 -3.35087 1.29457e-18)
(7.99465 -3.64922 2.7464e-18)
(7.82499 -3.93975 -1.27633e-18)
(7.64294 -4.22184 -1.38498e-18)
(7.44896 -4.49488 1.32752e-18)
(7.24359 -4.75828 0)
(7.02736 -5.01146 6.39684e-20)
(6.80082 -5.25387 9.44061e-21)
(6.56454 -5.48497 2.64026e-18)
(6.31911 -5.70421 1.22678e-18)
(8.59921 -0.0856194 0)
(8.59213 -0.409085 6.14878e-21)
(8.57049 -0.732241 -1.42057e-19)
(8.53425 -1.05435 -6.31476e-19)
(8.48348 -1.37467 5.93237e-19)
(8.41831 -1.69249 0)
(8.33893 -2.0071 1.20768e-18)
(8.24553 -2.31781 -1.32007e-21)
(8.13835 -2.62394 -1.8449e-18)
(8.01767 -2.92482 0)
(7.8838 -3.21979 -1.27396e-18)
(7.73709 -3.50822 4.52858e-20)
(7.57794 -3.78947 -3.57939e-18)
(7.40675 -4.06294 6.25353e-21)
(7.22398 -4.32804 1.19991e-18)
(7.03012 -4.58417 0)
(6.82566 -4.83076 -1.17795e-18)
(6.61114 -5.06725 8.38458e-21)
(6.38711 -5.29308 1.16957e-18)
(6.15411 -5.5077 -1.20724e-18)
(8.27123 -0.0863824 0)
(8.26673 -0.395465 1.45706e-19)
(8.24842 -0.704466 3.0239e-19)
(8.21625 -1.01269 -5.59341e-19)
(8.17026 -1.31946 -2.43015e-20)
(8.11058 -1.62408 -2.79541e-19)
(8.03734 -1.92589 -1.11908e-18)
(7.95072 -2.22424 5.56345e-19)
(7.85093 -2.51847 2.34223e-20)
(7.73821 -2.80796 5.53031e-19)
(7.61285 -3.09209 5.08747e-19)
(7.47516 -3.37023 2.20496e-18)
(7.3255 -3.6418 1.10298e-18)
(7.16425 -3.9062 2.17843e-18)
(6.99184 -4.16286 -1.08638e-18)
(6.80873 -4.41122 3.8071e-20)
(6.61538 -4.6507 -1.07365e-18)
(6.41232 -4.88074 0)
(6.20005 -5.1008 1.01463e-18)
(5.97909 -5.3103 0)
(7.96076 -0.0882804 6.33687e-20)
(7.95772 -0.383838 -1.8555e-19)
(7.94157 -0.679452 5.09051e-19)
(7.91227 -0.974478 -2.53943e-19)
(7.86985 -1.26827 1.86217e-20)
(7.81441 -1.56018 -2.53792e-19)
(7.74606 -1.84959 5.27814e-19)
(7.66497 -2.13588 -5.0496e-19)
(7.57132 -2.41845 5.04957e-19)
(7.46532 -2.69669 9.68178e-19)
(7.34724 -2.97001 -1.04401e-18)
(7.21737 -3.23785 -4.42785e-20)
(7.07604 -3.49963 -3.0213e-18)
(6.9236 -3.75481 5.21034e-21)
(6.76046 -4.00282 3.95045e-20)
(6.58706 -4.24314 1.95861e-18)
(6.40385 -4.47521 -9.67501e-19)
(6.21133 -4.69848 -9.21284e-19)
(6.01 -4.9124 -3.69066e-20)
(5.80033 -5.11639 0)
(7.67129 -0.0905927 0)
(7.66889 -0.3736 2.35634e-19)
(7.65403 -0.656738 -8.10073e-19)
(7.62667 -0.939401 -2.14787e-19)
(7.58684 -1.22098 4.80794e-19)
(7.53461 -1.50088 0)
(7.47009 -1.7785 0)
(7.39343 -2.05327 4.59405e-19)
(7.3048 -2.32462 -4.59402e-19)
(7.2044 -2.59198 3.86417e-19)
(7.09246 -2.8548 -4.56443e-19)
(6.96925 -3.11255 9.0517e-19)
(6.83509 -3.3647 -1.80586e-18)
(6.69032 -3.61073 1.79655e-18)
(6.53533 -3.85011 3.40609e-20)
(6.37052 -4.08236 -9.2437e-19)
(6.19637 -4.30693 -8.79306e-19)
(6.01335 -4.5233 1.79157e-18)
(5.82197 -4.73092 8.38265e-19)
(5.62268 -4.92918 0)
(7.40364 -0.0928572 1.83687e-21)
(7.40132 -0.364298 1.54569e-19)
(7.38713 -0.635898 3.24639e-19)
(7.36103 -0.907088 2.27316e-19)
(7.32303 -1.17729 2.10742e-19)
(7.27322 -1.44595 1.95939e-19)
(7.2117 -1.7125 0)
(7.13859 -1.97641 -8.09922e-19)
(7.05405 -2.23712 -4.17615e-19)
(6.95828 -2.49413 3.55796e-19)
(6.85149 -2.7469 0)
(6.73394 -2.99495 8.24821e-19)
(6.60592 -3.23778 -2.43923e-18)
(6.46776 -3.47491 8.20596e-19)
(6.31984 -3.70587 0)
(6.16257 -3.93018 -7.80005e-19)
(5.9964 -4.14736 -1.57563e-18)
(5.82183 -4.3569 7.75196e-19)
(5.6394 -4.55823 -2.86955e-20)
(5.44954 -4.75075 0)
(7.157 -0.0947808 3.3876e-21)
(7.15441 -0.355595 -1.00026e-19)
(7.14048 -0.616564 1.92978e-19)
(7.11515 -0.877152 -1.28208e-20)
(7.07847 -1.13682 3.85609e-19)
(7.03049 -1.39502 -5.92324e-19)
(6.97133 -1.65125 0)
(6.90109 -1.90499 5.47915e-20)
(6.81992 -2.15572 0)
(6.72801 -2.40295 -7.90713e-19)
(6.62556 -2.64622 0)
(6.51282 -2.88504 -7.29344e-19)
(6.39006 -3.11897 2.25473e-18)
(6.2576 -3.34757 -1.49403e-18)
(6.11581 -3.57041 7.44862e-19)
(5.9651 -3.78708 -6.58429e-19)
(5.80594 -3.99709 7.61449e-19)
(5.63884 -4.20002 -7.56239e-19)
(5.46439 -4.39526 0)
(5.28304 -4.5822 0)
(6.92968 -0.096239 4.57496e-20)
(6.92664 -0.347268 0)
(6.9127 -0.598437 0)
(6.88785 -0.849234 -3.66545e-19)
(6.85212 -1.09914 -3.41966e-19)
(6.80558 -1.34766 0)
(6.74831 -1.59429 0)
(6.68043 -1.83854 4.86823e-20)
(6.60208 -2.07994 6.77146e-19)
(6.51344 -2.31802 -3.26493e-19)
(6.4147 -2.55234 -3.47973e-19)
(6.30608 -2.78246 1.40578e-18)
(6.18787 -3.00797 -2.08734e-18)
(6.06035 -3.22847 1.34576e-18)
(5.92389 -3.44358 0)
(5.77889 -3.65295 2.70383e-18)
(5.62587 -3.85614 -1.96268e-18)
(5.46532 -4.0528 6.6779e-19)
(5.29801 -4.24226 1.27675e-18)
(5.12433 -4.42396 0)
(6.71968 -0.0971641 -3.93069e-20)
(6.71607 -0.33916 0)
(6.70199 -0.581275 -5.08606e-21)
(6.67743 -0.823017 -3.14552e-19)
(6.64242 -1.06389 9.74821e-19)
(6.59702 -1.30343 -1.62154e-19)
(6.54134 -1.54114 0)
(6.47546 -1.77657 1.29169e-18)
(6.39954 -2.00926 -6.65288e-19)
(6.31372 -2.23879 4.3384e-20)
(6.2182 -2.46472 6.16324e-19)
(6.11319 -2.68667 6.31793e-19)
(5.99895 -2.90425 -1.25988e-18)
(5.87576 -3.11711 -1.23219e-18)
(5.74396 -3.32491 -1.20337e-18)
(5.60397 -3.5274 -1.28099e-18)
(5.45632 -3.72413 1.27221e-18)
(5.30151 -3.91497 -6.07135e-19)
(5.14055 -4.09908 -6.47254e-19)
(4.97374 -4.27612 0)
(6.52485 -0.0975342 3.8618e-20)
(6.52064 -0.331164 -1.44971e-19)
(6.50635 -0.564886 -1.50096e-19)
(6.48198 -0.798226 4.4941e-19)
(6.44756 -1.03071 -1.59632e-19)
(6.40315 -1.26189 -1.49173e-19)
(6.34884 -1.49131 0)
(6.28473 -1.71853 -6.132e-19)
(6.21095 -1.94311 0)
(6.12766 -2.16465 6.08419e-19)
(6.03502 -2.38275 -1.17225e-18)
(5.93323 -2.59704 5.80227e-19)
(5.82254 -2.80718 -1.15686e-18)
(5.7032 -3.01286 1.19397e-18)
(5.57555 -3.21379 6.50063e-19)
(5.43997 -3.40981 0)
(5.29703 -3.60049 -5.60701e-19)
(5.14722 -3.78603 5.60702e-19)
(4.99193 -3.96527 0)
(4.83115 -4.13854 0)
(6.34315 -0.0974294 0)
(6.33836 -0.323258 1.42433e-19)
(6.32386 -0.549146 4.59506e-21)
(6.29965 -0.774642 -1.46869e-19)
(6.26577 -0.999299 -1.29482e-19)
(6.22226 -1.22268 -1.37472e-19)
(6.16922 -1.44435 5.31286e-19)
(6.10675 -1.66388 0)
(6.03497 -1.88088 0)
(5.95401 -2.09495 2.69971e-19)
(5.86404 -2.30572 2.86833e-19)
(5.76525 -2.51285 1.03781e-18)
(5.65784 -2.71601 -5.30258e-19)
(5.54205 -2.91495 5.30256e-19)
(5.41818 -3.1094 5.63014e-19)
(5.28657 -3.29937 3.29936e-20)
(5.14783 -3.4844 -1.03357e-18)
(5.00235 -3.66521 3.72101e-21)
(4.85215 -3.84002 5.11108e-19)
(4.69647 -4.01071 0)
(6.17274 -0.0968555 -3.1831e-20)
(6.16743 -0.31541 3.18306e-20)
(6.15277 -0.533997 0)
(6.12874 -0.752181 1.19892e-19)
(6.0954 -0.969531 3.89434e-19)
(6.05279 -1.18563 -4.92171e-19)
(6.001 -1.40006 -5.22006e-19)
(5.94012 -1.61243 0)
(5.87027 -1.82235 0)
(5.79158 -2.02944 0)
(5.7042 -2.23336 -9.63402e-19)
(5.6083 -2.43378 -6.22723e-20)
(5.50406 -2.63041 -4.88404e-19)
(5.39168 -2.82303 2.92941e-20)
(5.27142 -3.01141 -9.65757e-19)
(5.14351 -3.19569 1.4718e-18)
(5.00861 -3.37545 -1.39426e-18)
(4.86683 -3.55215 4.73289e-19)
(4.72122 -3.72304 9.07067e-19)
(4.5693 -3.89271 0)
(6.01196 -0.0954693 2.85993e-20)
(6.00624 -0.307425 0)
(5.99149 -0.519403 -1.17733e-19)
(5.96771 -0.730976 -2.42589e-19)
(5.93493 -0.941734 1.17582e-19)
(5.89323 -1.15127 9.3891e-19)
(5.84267 -1.3592 0)
(5.78334 -1.56514 -4.52163e-19)
(5.71536 -1.76872 -2.31238e-19)
(5.63885 -1.96959 -4.3442e-19)
(5.55393 -2.16742 -1.73808e-19)
(5.46076 -2.3619 -1.3713e-18)
(5.3595 -2.55276 -9.05037e-19)
(5.25027 -2.7398 9.30982e-19)
(5.13332 -2.92285 8.90987e-19)
(5.00867 -3.10208 -3.81093e-21)
(4.87707 -3.27723 2.906e-20)
(4.73786 -3.45063 4.36055e-19)
(4.5958 -3.61885 -8.91284e-19)
(4.44465 -3.79112 0)
(5.85926 -0.093789 -5.98099e-20)
(5.85325 -0.299431 2.94445e-20)
(5.83856 -0.505163 -1.17633e-19)
(5.81517 -0.710601 1.1758e-19)
(5.78311 -0.915359 -3.382e-19)
(5.74241 -1.11905 -1.05297e-18)
(5.69314 -1.32131 0)
(5.63538 -1.52177 4.78478e-19)
(5.56922 -1.72008 -4.47407e-19)
(5.49474 -1.9159 9.47274e-19)
(5.41208 -2.10892 9.41586e-19)
(5.32131 -2.29883 1.38713e-18)
(5.22259 -2.48538 -9.0004e-19)
(5.11595 -2.66836 4.48296e-19)
(5.00161 -2.84761 -4.40786e-19)
(4.87925 -3.02328 4.40811e-19)
(4.74987 -3.1952 0)
(4.611 -3.36628 3.99008e-19)
(4.47106 -3.53282 -3.90317e-19)
(4.31596 -3.71559 0)
(7.12647 7.2483 0)
(7.40594 6.95908 0)
(7.67256 6.66031 1.06823e-18)
(7.92704 6.3525 1.95164e-20)
(8.16879 6.03535 -1.13095e-18)
(8.39718 5.70893 0)
(8.61177 5.37363 1.1664e-18)
(8.81225 5.02998 -2.19925e-18)
(8.9983 4.67856 -1.11124e-18)
(9.16961 4.31996 -1.12146e-18)
(9.32594 3.95482 1.12146e-18)
(9.46705 3.58379 -1.13314e-18)
(9.59275 3.20754 5.65257e-19)
(9.70286 2.82677 5.39007e-19)
(9.79721 2.44216 5.41088e-19)
(9.87573 2.05436 -5.74676e-19)
(9.93839 1.66402 5.74676e-19)
(9.98526 1.27185 -2.88484e-19)
(10.0163 0.87825 -1.36919e-19)
(10.032 0.484557 7.2176e-20)
(7.38628 7.04065 0)
(7.66516 6.7522 -9.77152e-19)
(7.93032 6.45229 -2.08946e-18)
(8.18208 6.14158 3.08932e-18)
(8.42019 5.8204 -2.14268e-18)
(8.64416 5.48918 2.1522e-18)
(8.8535 5.14852 1.17072e-18)
(9.04781 4.79907 -3.32013e-18)
(9.22671 4.44152 1.08604e-18)
(9.38983 4.07657 2.15792e-18)
(9.53686 3.70493 1.06277e-18)
(9.66756 3.32737 1.06942e-18)
(9.78173 2.94466 -1.12892e-18)
(9.8792 2.55754 1.66175e-18)
(9.95973 2.16678 -2.30672e-18)
(10.0232 1.7732 5.69219e-19)
(10.0695 1.37762 -5.46681e-19)
(10.0989 0.980845 0)
(10.1111 0.583409 1.50575e-20)
(10.1066 0.186282 0)
(7.23426 6.90813 -1.71931e-18)
(7.51542 6.63709 9.65973e-19)
(7.78409 6.35334 1.76491e-18)
(8.03986 6.05752 7.97874e-19)
(8.28232 5.75023 2.00194e-18)
(8.51094 5.43205 1.93219e-20)
(8.72521 5.10364 -1.00328e-18)
(8.92464 4.7657 -2.98841e-18)
(9.10881 4.41892 2.94964e-18)
(9.27727 4.06403 -3.02803e-18)
(9.42963 3.70176 -1.00863e-18)
(9.5656 3.33285 -2.01773e-18)
(9.68488 2.95814 0)
(9.78723 2.57838 0)
(9.8725 2.19441 0)
(9.94057 1.80714 -5.14138e-19)
(9.99128 1.41739 5.38779e-19)
(10.0246 1.02603 5.15778e-19)
(10.0403 0.633754 6.2128e-21)
(10.0386 0.241519 1.29535e-19)
(7.00295 6.65368 1.78609e-18)
(7.28049 6.40114 -1.62058e-18)
(7.54675 6.13564 -1.67624e-19)
(7.80102 5.85772 -1.68545e-19)
(8.04275 5.56795 4.20974e-18)
(8.2714 5.26692 -7.05826e-20)
(8.48644 4.95526 3.48709e-21)
(8.68732 4.63362 -2.6616e-18)
(8.87357 4.30265 1.75576e-18)
(9.04473 3.96306 0)
(9.20032 3.61558 9.41909e-19)
(9.33998 3.26106 9.48343e-19)
(9.46345 2.90026 0)
(9.57042 2.53397 0)
(9.66064 2.16304 0)
(9.73395 1.78827 0)
(9.79016 1.41047 -2.14043e-20)
(9.82915 1.03047 4.6397e-19)
(9.8508 0.649088 -2.22697e-19)
(9.85509 0.267254 0)
(6.7387 6.33938 1.5109e-18)
(7.00823 6.1045 0)
(7.26758 5.85685 -4.44452e-18)
(7.51596 5.59686 -1.51466e-18)
(7.75276 5.32505 -1.59219e-18)
(7.97739 5.04196 -1.68803e-18)
(8.1893 4.74816 7.97409e-19)
(8.38795 4.44426 -8.3749e-19)
(8.57282 4.13087 2.32441e-18)
(8.74345 3.80867 -7.60634e-19)
(8.89945 3.47841 0)
(9.04033 3.14082 0)
(9.16571 2.79659 0)
(9.2753 2.44649 0)
(9.36884 2.09131 -1.20089e-18)
(9.4461 1.73187 4.1303e-19)
(9.50687 1.36895 -4.36472e-19)
(9.55097 1.00337 0)
(9.57829 0.635947 2.1963e-19)
(9.58874 0.26757 0)
(6.46307 6.0136 1.29051e-18)
(6.72234 5.7947 -4.76255e-20)
(6.97236 5.56346 2.71434e-18)
(7.21234 5.32021 1.35556e-18)
(7.44163 5.06541 0)
(7.65967 4.79956 -1.43974e-18)
(7.86591 4.52318 6.74075e-20)
(8.05979 4.23682 -1.46111e-18)
(8.24082 3.94108 2.01949e-18)
(8.40852 3.63658 3.23508e-20)
(8.56247 3.32396 2.77667e-20)
(8.70223 3.00383 -7.28517e-19)
(8.82739 2.67691 1.42847e-18)
(8.93764 2.34395 0)
(9.03273 2.00564 6.75617e-20)
(9.11235 1.66282 7.29157e-19)
(9.17624 1.31623 1.58333e-21)
(9.22422 0.966642 -1.51244e-20)
(9.25617 0.614848 0)
(9.27195 0.261665 -4.51911e-20)
(6.19648 5.69794 0)
(6.44445 5.49294 -4.85085e-20)
(6.6839 5.27611 1.69649e-20)
(6.9141 5.04776 -2.4511e-18)
(7.13441 4.80827 0)
(7.34427 4.5581 1.2389e-18)
(7.54315 4.29772 1.32003e-18)
(7.73053 4.02765 -3.83931e-18)
(7.90592 3.74841 -6.71807e-20)
(8.06885 3.46057 -1.23188e-18)
(8.2189 3.16472 6.78818e-19)
(8.35565 2.86145 -6.26472e-19)
(8.4787 2.55145 -6.89228e-19)
(8.58769 2.23538 0)
(8.68238 1.91396 3.63732e-19)
(8.76259 1.58778 -1.66359e-20)
(8.82791 1.25768 -3.37337e-19)
(8.87813 0.924395 -1.65008e-20)
(8.91315 0.588662 -8.4912e-20)
(8.93281 0.251238 1.70191e-19)
(5.94967 5.40348 0)
(6.18611 5.21032 1.05878e-18)
(6.41462 5.00589 1.56303e-20)
(6.63451 4.79047 -1.07438e-18)
(6.84517 4.56439 0)
(7.04606 4.32808 1.11734e-18)
(7.23669 4.08195 -1.06639e-18)
(7.41654 3.82648 -1.18125e-18)
(7.58517 3.56216 2.24545e-18)
(7.74212 3.2895 1.21229e-18)
(7.88699 3.00906 0)
(8.01937 2.72141 5.91025e-19)
(8.1389 2.42717 -4.24783e-21)
(8.24526 2.12697 2.15395e-20)
(8.33804 1.82148 0)
(8.4171 1.5113 -5.81371e-19)
(8.48231 1.19703 -3.04678e-19)
(8.53325 0.879499 4.45048e-19)
(8.56979 0.559407 3.00076e-19)
(8.59178 0.237451 -4.01323e-20)
(5.72621 5.135 0)
(5.95144 4.95186 -9.13218e-19)
(6.16921 4.75803 0)
(6.37885 4.55375 -9.85427e-19)
(6.57979 4.33931 1.93964e-18)
(6.77153 4.11509 -1.97785e-18)
(6.95359 3.88148 3.09586e-18)
(7.12552 3.63892 -3.08636e-18)
(7.28686 3.38786 -2.08511e-18)
(7.43721 3.12879 -1.53734e-18)
(7.57618 2.86222 5.27301e-19)
(7.70339 2.58871 -1.09334e-18)
(7.81849 2.30882 1.83573e-20)
(7.92117 2.02313 1.08658e-18)
(8.01114 1.73223 -2.73332e-19)
(8.08803 1.43684 1.11992e-18)
(8.15176 1.13744 -5.5069e-19)
(8.20217 0.834715 2.53514e-19)
(8.23898 0.52939 -1.44748e-19)
(8.262 0.222125 0)
(5.52589 4.89294 0)
(5.74055 4.71834 1.76623e-18)
(5.9481 4.5336 8.56026e-19)
(6.14792 4.33893 -8.81563e-19)
(6.33946 4.1346 -1.80573e-18)
(6.52225 3.92094 2.74749e-18)
(6.69586 3.69831 1.09313e-20)
(6.85986 3.46711 -8.95004e-19)
(7.01383 3.22778 1.92268e-18)
(7.1574 2.98078 9.9314e-19)
(7.2902 2.7266 -9.27115e-19)
(7.41186 2.46575 4.86964e-19)
(7.52208 2.19877 2.2123e-20)
(7.62054 1.92621 -5.12583e-19)
(7.70697 1.64863 -2.48282e-19)
(7.78109 1.36662 4.97835e-19)
(7.84266 1.08086 -2.49552e-19)
(7.89159 0.791821 -5.03597e-19)
(7.92771 0.50019 5.8315e-20)
(7.95077 0.206603 6.30981e-20)