/*--------------------------------*- C++ -*----------------------------------*\
  =========                 |
  \\      /  F ield         | OpenFOAM: The Open Source CFD Toolbox
   \\    /   O peration     | Website:  https://openfoam.org
    \\  /    A nd           | Version:  6.0
     \\/     M anipulation  |
\*---------------------------------------------------------------------------*/
FoamFile
{
    version     2.0;
    format      ascii;
    class       volScalarField;
    location    "23.25";
    object      p;
}
// * * * * * * * * * * * * * * * * * * * * * * * * * * * * * * * * * * * * * //

dimensions      [0 2 -2 0 0 0 0];

internalField   nonuniform List<scalar> 
9600
(
-177.369
-156.904
-142.068
-129.694
-118.344
-108.086
-98.8913
-90.6477
-83.2516
-76.6087
-70.6311
-65.2384
-60.3598
-55.933
-51.9045
-48.2279
-44.8634
-41.7747
-38.9284
-36.3206
-178.842
-158.329
-143.404
-130.927
-119.479
-109.135
-99.8661
-91.5596
-84.1098
-77.4208
-71.4027
-65.9742
-61.0632
-56.6072
-52.5518
-48.8504
-45.463
-42.3523
-39.4843
-36.86
-180.307
-159.728
-144.712
-132.134
-120.59
-110.161
-100.821
-92.4528
-84.9507
-78.2166
-72.1591
-66.6956
-61.7531
-57.2683
-53.1865
-49.4607
-46.0504
-42.9178
-40.0281
-37.3875
-181.756
-161.105
-145.992
-133.315
-121.677
-111.165
-101.753
-93.3257
-85.7728
-78.9949
-72.899
-67.4014
-62.4282
-57.9154
-53.8078
-50.058
-46.6253
-43.4708
-40.5596
-37.9033
-183.183
-162.455
-147.245
-134.467
-122.736
-112.143
-102.662
-94.1768
-86.5745
-79.7541
-73.6212
-68.0906
-63.0877
-58.5477
-54.415
-50.6419
-47.1873
-44.0114
-41.0791
-38.4083
-184.582
-163.777
-148.467
-135.589
-123.767
-113.094
-103.546
-95.0042
-87.3542
-80.4929
-74.3242
-68.7619
-63.7303
-59.1642
-55.0075
-51.2121
-47.7364
-44.5399
-41.5873
-38.9034
-185.949
-165.066
-149.657
-136.679
-124.767
-114.016
-104.403
-95.8063
-88.1102
-81.2095
-75.0065
-69.4139
-64.355
-59.7642
-55.5846
-51.7681
-48.2726
-45.0564
-42.0849
-39.3897
-187.28
-166.32
-150.812
-137.735
-125.734
-114.908
-105.231
-96.5811
-88.8407
-81.9022
-75.6665
-70.045
-64.9605
-60.3463
-56.1455
-52.3095
-48.7957
-45.5614
-42.5727
-39.8684
-188.573
-167.535
-151.93
-138.755
-126.666
-115.766
-106.027
-97.3265
-89.5435
-82.5689
-76.3023
-70.6536
-65.5451
-60.9094
-56.6891
-52.8354
-49.3053
-46.0549
-43.0511
-40.3409
-189.824
-168.71
-153.008
-139.737
-127.562
-116.589
-106.791
-98.0404
-90.2165
-83.2076
-76.9116
-71.2376
-66.1067
-61.4514
-57.2136
-53.3444
-49.8001
-46.5359
-43.52
-40.8076
-191.032
-169.842
-154.044
-140.678
-128.419
-117.375
-107.518
-98.7204
-90.8572
-83.8155
-77.4919
-71.7942
-66.6431
-61.9701
-57.7171
-53.8347
-50.2787
-47.0032
-43.9783
-41.2672
-192.197
-170.929
-155.036
-141.577
-129.235
-118.122
-108.208
-99.364
-91.4628
-84.3898
-78.0399
-72.3203
-67.1507
-62.4624
-58.1968
-54.304
-50.7394
-47.4558
-44.4251
-41.7179
-193.316
-171.971
-155.984
-142.432
-130.008
-118.827
-108.858
-99.9688
-92.0308
-84.9273
-78.5522
-72.8117
-67.6252
-62.9234
-58.6477
-54.7481
-51.1791
-47.8918
-44.8596
-42.1612
-194.389
-172.966
-156.886
-143.242
-130.738
-119.49
-109.466
-100.533
-92.5584
-85.425
-79.0252
-73.2643
-68.0613
-63.347
-59.0627
-55.1586
-51.5888
-48.303
-45.2773
-42.6013
-195.415
-173.913
-157.74
-144.007
-131.423
-120.108
-110.031
-101.053
-93.043
-85.8798
-79.4552
-73.6741
-68.4549
-63.728
-59.435
-55.5263
-51.9562
-48.6746
-45.6645
-43.0276
-196.398
-174.813
-158.547
-144.724
-132.061
-120.681
-110.55
-101.528
-93.4814
-86.2877
-79.8379
-74.0362
-68.8009
-64.0624
-59.7617
-55.8493
-52.2789
-49.0015
-46.0069
-43.4012
-197.347
-175.671
-159.307
-145.394
-132.653
-121.207
-111.022
-101.955
-93.8707
-86.6446
-80.1669
-74.3422
-69.0892
-64.339
-60.034
-56.1253
-52.5651
-49.2996
-46.3156
-43.7123
-198.282
-176.496
-160.022
-146.016
-133.197
-121.686
-111.448
-102.336
-94.2112
-86.9491
-80.4385
-74.5837
-69.3045
-64.5344
-60.2196
-56.3162
-52.7777
-49.5451
-46.6043
-44.0779
-199.197
-177.286
-160.693
-146.593
-133.698
-122.125
-111.833
-102.675
-94.5087
-87.2068
-80.6569
-74.7624
-69.4424
-64.6314
-60.2783
-56.3434
-52.7857
-49.5659
-46.7371
-44.5253
-200.022
-178.019
-161.323
-147.133
-134.166
-122.532
-112.188
-102.983
-94.7735
-87.4293
-80.836
-74.895
-69.5232
-64.6519
-60.2251
-56.1946
-52.5151
-49.1785
-46.3418
-44.282
-207.191
-207.173
-207.075
-206.946
-206.791
-206.602
-206.376
-206.111
-205.812
-205.479
-205.115
-204.72
-204.296
-203.844
-203.365
-202.86
-202.332
-201.784
-201.219
-200.642
-184.167
-184.208
-184.192
-184.137
-184.046
-183.917
-183.749
-183.542
-183.299
-183.023
-182.715
-182.376
-182.009
-181.613
-181.19
-180.74
-180.265
-179.763
-179.232
-178.659
-166.333
-166.422
-166.466
-166.468
-166.428
-166.349
-166.232
-166.079
-165.891
-165.672
-165.422
-165.143
-164.837
-164.504
-164.144
-163.758
-163.345
-162.903
-162.425
-161.902
-151.217
-151.327
-151.398
-151.428
-151.418
-151.37
-151.287
-151.171
-151.023
-150.847
-150.642
-150.411
-150.155
-149.875
-149.571
-149.242
-148.887
-148.504
-148.088
-147.634
-137.602
-137.713
-137.788
-137.828
-137.83
-137.797
-137.732
-137.636
-137.513
-137.363
-137.188
-136.99
-136.77
-136.529
-136.267
-135.983
-135.678
-135.347
-134.989
-134.598
-125.549
-125.65
-125.719
-125.756
-125.758
-125.729
-125.67
-125.583
-125.471
-125.335
-125.177
-124.999
-124.803
-124.588
-124.357
-124.108
-123.842
-123.555
-123.245
-122.907
-114.937
-115.024
-115.082
-115.109
-115.106
-115.073
-115.012
-114.927
-114.818
-114.688
-114.539
-114.372
-114.19
-113.993
-113.784
-113.562
-113.326
-113.076
-112.806
-112.513
-105.552
-105.624
-105.668
-105.685
-105.672
-105.632
-105.567
-105.478
-105.369
-105.24
-105.094
-104.933
-104.759
-104.575
-104.382
-104.181
-103.971
-103.75
-103.517
-103.264
-97.2077
-97.2646
-97.2962
-97.3012
-97.2791
-97.2311
-97.1594
-97.066
-96.9529
-96.8223
-96.6766
-96.5182
-96.3499
-96.174
-95.993
-95.8083
-95.6203
-95.4276
-95.2267
-95.0119
-89.7498
-89.7935
-89.813
-89.8071
-89.7757
-89.7198
-89.6415
-89.5427
-89.4255
-89.2919
-89.1447
-88.9867
-88.8209
-88.6506
-88.4789
-88.308
-88.1394
-87.9723
-87.8034
-87.6261
-83.051
-83.083
-83.0917
-83.0761
-83.0362
-82.973
-82.8884
-82.7842
-82.6623
-82.5251
-82.3754
-82.2161
-82.0509
-81.8837
-81.7187
-81.5593
-81.4082
-81.2656
-81.1285
-80.9897
-77.0071
-77.0288
-77.0279
-77.0038
-76.9562
-76.8864
-76.7959
-76.6865
-76.56
-76.4187
-76.2655
-76.1036
-75.9372
-75.7708
-75.61
-75.4594
-75.3238
-75.2047
-75.1003
-75.0023
-71.5324
-71.5451
-71.5358
-71.5041
-71.4498
-71.3741
-71.2783
-71.164
-71.0329
-70.8871
-70.7297
-70.5638
-70.3944
-70.2264
-70.0669
-69.9218
-69.7993
-69.7023
-69.632
-69.5786
-66.5564
-66.5611
-66.5445
-66.5061
-66.4459
-66.365
-66.2644
-66.1454
-66.0098
-65.8594
-65.6971
-65.5261
-65.3518
-65.1793
-65.0178
-64.8741
-64.7615
-64.684
-64.6498
-64.6462
-62.02
-62.0177
-61.9945
-61.9503
-61.885
-61.7994
-61.6945
-61.5714
-61.4314
-61.2762
-61.1086
-60.9313
-60.7503
-60.5702
-60.4029
-60.2554
-60.1483
-60.0858
-60.0897
-60.142
-57.8738
-57.8651
-57.8361
-57.7866
-57.7168
-57.6272
-57.5185
-57.3915
-57.2474
-57.0874
-56.914
-56.7296
-56.54
-56.3491
-56.1715
-56.0136
-55.9062
-55.8517
-55.8953
-56.0063
-54.0759
-54.0612
-54.0268
-53.9727
-53.8988
-53.8055
-53.6934
-53.5628
-53.4146
-53.2498
-53.0702
-52.8778
-52.6777
-52.4728
-52.279
-52.1017
-51.9849
-51.9285
-52.0163
-52.1824
-50.5879
-50.5686
-50.5301
-50.4724
-50.3956
-50.2998
-50.185
-50.0516
-49.9
-49.7308
-49.5453
-49.3446
-49.1329
-48.9116
-48.696
-48.4885
-48.3457
-48.2696
-48.4134
-48.6469
-47.374
-47.3522
-47.3121
-47.254
-47.1776
-47.0825
-46.9687
-46.8362
-46.6849
-46.5153
-46.3279
-46.1233
-45.9037
-45.6697
-45.4323
-45.1904
-45.0008
-44.8704
-45.0547
-45.442
-44.4206
-44.3916
-44.3463
-44.2852
-44.2079
-44.1135
-44.0014
-43.8716
-43.7236
-43.5577
-43.3731
-43.1708
-42.9499
-42.7115
-42.4581
-42.189
-41.9343
-41.7051
-41.7688
-42.339
-194.292
-195.455
-196.518
-197.555
-198.569
-199.542
-200.46
-201.32
-202.12
-202.86
-203.539
-204.158
-204.715
-205.212
-205.651
-206.032
-206.359
-206.635
-206.866
-207.056
-171.033
-172.195
-173.293
-174.354
-175.376
-176.35
-177.269
-178.131
-178.935
-179.681
-180.37
-181
-181.572
-182.087
-182.546
-182.951
-183.302
-183.602
-183.851
-184.044
-153.386
-154.514
-155.599
-156.639
-157.632
-158.574
-159.464
-160.301
-161.083
-161.812
-162.487
-163.108
-163.676
-164.19
-164.652
-165.063
-165.423
-165.733
-165.99
-166.192
-138.859
-139.927
-140.96
-141.948
-142.887
-143.777
-144.618
-145.41
-146.151
-146.843
-147.485
-148.076
-148.619
-149.112
-149.557
-149.954
-150.304
-150.606
-150.86
-151.064
-126.055
-127.054
-128.02
-128.945
-129.823
-130.655
-131.439
-132.176
-132.867
-133.511
-134.108
-134.659
-135.164
-135.624
-136.039
-136.409
-136.736
-137.019
-137.258
-137.453
-114.879
-115.811
-116.713
-117.575
-118.393
-119.165
-119.892
-120.574
-121.212
-121.805
-122.354
-122.86
-123.323
-123.745
-124.124
-124.463
-124.761
-125.019
-125.236
-125.414
-105.116
-105.989
-106.833
-107.638
-108.399
-109.116
-109.789
-110.418
-111.004
-111.548
-112.051
-112.513
-112.935
-113.318
-113.662
-113.968
-114.236
-114.467
-114.661
-114.818
-96.5123
-97.3355
-98.1278
-98.8818
-99.5925
-100.259
-100.881
-101.462
-102.001
-102.5
-102.96
-103.381
-103.765
-104.112
-104.423
-104.698
-104.938
-105.143
-105.314
-105.451
-88.8706
-89.6511
-90.3995
-91.1085
-91.7735
-92.3941
-92.9716
-93.5078
-94.0041
-94.4618
-94.8822
-95.2664
-95.6155
-95.9301
-96.211
-96.4585
-96.6731
-96.8552
-97.0049
-97.1227
-82.0391
-82.7842
-83.4952
-84.1647
-84.7888
-85.3679
-85.9043
-86.4001
-86.8573
-87.2775
-87.6624
-88.0133
-88.3313
-88.6171
-88.8712
-89.0941
-89.2861
-89.4475
-89.5786
-89.6795
-75.8993
-76.6157
-77.2952
-77.9298
-78.5165
-79.0575
-79.5559
-80.0145
-80.4358
-80.8218
-81.1746
-81.4954
-81.7855
-82.0456
-82.2761
-82.4773
-82.6495
-82.7929
-82.9075
-82.9938
-70.357
-71.0513
-71.7044
-72.3075
-72.8595
-73.3647
-73.8275
-74.2514
-74.6393
-74.9938
-75.3171
-75.6109
-75.876
-76.1132
-76.3228
-76.505
-76.6598
-76.7874
-76.8878
-76.9611
-65.3367
-66.0152
-66.6465
-67.2204
-67.7391
-68.21
-68.639
-69.0299
-69.3863
-69.7115
-70.0079
-70.2769
-70.5195
-70.7363
-70.9275
-71.0929
-71.2325
-71.3463
-71.4342
-71.4964
-60.7779
-61.4471
-62.0593
-62.6043
-63.0903
-63.528
-63.9241
-64.2832
-64.6097
-64.9075
-65.1788
-65.4253
-65.6476
-65.8462
-66.021
-66.1717
-66.298
-66.3998
-66.4768
-66.5291
-56.6325
-57.3009
-57.8937
-58.4071
-58.8595
-59.2644
-59.628
-59.9558
-60.2536
-60.5254
-60.7735
-60.9992
-61.2032
-61.3855
-61.5458
-61.6835
-61.7982
-61.8894
-61.9569
-62.0005
-52.8542
-53.5387
-54.1112
-54.5865
-55.003
-55.3745
-55.7049
-56.0015
-56.2714
-56.5185
-56.7448
-56.9515
-57.1389
-57.3066
-57.4539
-57.5802
-57.6845
-57.7664
-57.8254
-57.8613
-49.3829
-50.1094
-50.6672
-51.1004
-51.4784
-51.815
-52.1114
-52.3772
-52.6204
-52.8443
-53.0505
-53.24
-53.4126
-53.5676
-53.7037
-53.82
-53.9155
-53.9893
-54.0408
-54.0698
-46.1835
-46.9398
-47.4899
-47.8907
-48.2311
-48.5302
-48.793
-49.0303
-49.2493
-49.4527
-49.6419
-49.8173
-49.9783
-50.1235
-50.2513
-50.3603
-50.4492
-50.5171
-50.5631
-50.5868
-43.4326
-44.0566
-44.5421
-44.9382
-45.247
-45.4979
-45.7243
-45.9353
-46.1309
-46.3138
-46.487
-46.6502
-46.8015
-46.9386
-47.0599
-47.1636
-47.2483
-47.3125
-47.3551
-47.3757
-41.6151
-41.8699
-42.0234
-42.4253
-42.7164
-42.8868
-43.0521
-43.2258
-43.3868
-43.5356
-43.6797
-43.8191
-43.9497
-44.0684
-44.1731
-44.2623
-44.3341
-44.387
-44.4195
-44.4308
-29.4714
-31.8197
-34.401
-37.1956
-40.2309
-43.5394
-47.1528
-51.1072
-55.4451
-60.2173
-65.4845
-71.3217
-77.8244
-85.1179
-93.3758
-102.841
-113.759
-126.331
-142.182
-164.169
-29.9756
-32.3498
-34.9492
-37.7652
-40.8254
-44.1613
-47.8048
-51.7922
-56.167
-60.9802
-66.2933
-72.1825
-78.7445
-86.1059
-94.4422
-103.998
-115.017
-127.694
-143.638
-165.685
-30.4838
-32.8833
-35.5006
-38.3384
-41.4239
-44.7879
-48.462
-52.4834
-56.8957
-61.7507
-67.1107
-73.0528
-79.6749
-87.1051
-95.5205
-105.167
-116.287
-129.066
-145.094
-167.182
-30.9957
-33.4191
-36.0538
-38.9137
-42.0251
-45.4175
-49.1228
-53.1785
-57.6289
-62.5263
-67.9338
-73.9294
-80.6123
-88.1119
-96.6066
-106.343
-117.564
-130.447
-146.564
-168.7
-31.5096
-33.9558
-36.6078
-39.4901
-42.6277
-46.0489
-49.7858
-53.8763
-58.3653
-63.3055
-68.7609
-74.8103
-81.5543
-89.1236
-97.6978
-107.525
-118.846
-131.835
-148.047
-170.242
-32.024
-34.4922
-37.1614
-40.0666
-43.2309
-46.6813
-50.4502
-54.5761
-59.104
-64.0875
-69.5911
-75.6948
-82.5001
-90.1393
-98.7933
-108.711
-120.133
-133.228
-149.538
-171.795
-32.5374
-35.0269
-37.7136
-40.6424
-43.8341
-47.3142
-51.1157
-55.2773
-59.8447
-64.8718
-70.424
-76.5823
-83.4493
-91.1587
-99.8928
-109.901
-121.423
-134.625
-151.032
-173.353
-33.0489
-35.5592
-38.2636
-41.2168
-44.4365
-47.9471
-51.7817
-55.9797
-60.5869
-65.6581
-71.2593
-77.4724
-84.4013
-92.1811
-100.995
-111.094
-122.717
-136.023
-152.526
-174.91
-33.5576
-36.088
-38.8107
-41.7894
-45.0381
-48.5798
-52.4481
-56.6829
-61.3304
-66.446
-72.0963
-78.3644
-85.3553
-93.2055
-102.1
-112.29
-124.012
-137.422
-154.019
-176.467
-34.0633
-36.6135
-39.3549
-42.3601
-45.6387
-49.2123
-53.1149
-57.3869
-62.0751
-67.2352
-72.9348
-79.2578
-86.3107
-94.2311
-103.205
-113.485
-125.307
-138.819
-155.51
-178.02
-34.5654
-37.1354
-39.8966
-42.9296
-46.2392
-49.8454
-53.7828
-58.0923
-62.8211
-68.0257
-73.7744
-80.1521
-87.2665
-95.2568
-104.311
-114.68
-126.6
-140.213
-156.996
-179.568
-35.0651
-37.6548
-40.4367
-43.499
-46.8405
-50.48
-54.4525
-58.7996
-63.569
-68.8177
-74.6149
-81.0468
-88.2221
-96.2815
-105.414
-115.872
-127.889
-141.602
-158.475
-181.107
-35.5628
-38.1736
-40.9779
-44.0712
-47.4457
-51.1186
-55.1261
-59.5102
-64.3194
-69.6114
-75.4563
-81.9413
-89.1765
-97.3041
-106.514
-117.06
-129.173
-142.985
-159.946
-182.636
-36.0623
-38.6948
-41.5228
-44.6484
-48.0565
-51.7629
-55.8047
-60.225
-65.0729
-70.4069
-76.298
-82.8348
-90.1286
-98.3229
-107.609
-118.242
-130.449
-144.357
-161.405
-184.152
-36.5688
-39.2274
-42.0814
-45.2398
-48.6802
-52.4181
-56.4921
-60.9462
-65.8305
-71.2042
-77.1396
-83.7262
-91.0767
-99.3362
-108.697
-119.414
-131.715
-145.718
-162.85
-185.653
-37.091
-39.7764
-42.6565
-45.8469
-49.3181
-53.0853
-57.1888
-61.6741
-66.5919
-72.0027
-77.9797
-84.6138
-92.0189
-100.341
-109.775
-120.575
-132.967
-147.065
-164.28
-187.137
-37.6578
-40.3776
-43.278
-46.4905
-49.9831
-53.772
-57.8988
-62.4098
-67.3567
-72.8008
-78.8163
-85.4951
-92.9524
-101.336
-110.84
-121.721
-134.203
-148.393
-165.692
-188.603
-38.2862
-41.0293
-43.9347
-47.1593
-50.6682
-54.4742
-58.619
-63.1505
-68.1219
-73.5954
-79.6462
-86.3667
-93.8736
-102.316
-111.888
-122.848
-135.416
-149.699
-167.084
-190.053
-39.1116
-41.834
-44.68
-47.8821
-51.3884
-55.1966
-59.3479
-63.8922
-68.8828
-74.3818
-80.4644
-87.224
-94.778
-103.276
-112.915
-123.95
-136.602
-150.975
-168.451
-191.489
-40.1361
-42.6422
-45.4027
-48.6094
-52.1189
-55.922
-60.0729
-64.6253
-69.6316
-75.153
-81.265
-88.0613
-95.6602
-104.212
-113.915
-125.022
-137.753
-152.208
-169.777
-192.913
-21.7357
-23.0985
-25.0524
-27.3903
-29.9751
-32.8043
-35.9088
-39.3174
-43.0607
-47.1758
-51.7081
-56.7133
-62.2619
-68.4477
-75.4058
-83.3386
-92.463
-103.01
-116.788
-137.137
-22.2742
-23.7706
-25.7793
-28.0806
-30.6131
-33.4052
-36.4879
-39.8852
-43.6251
-47.7435
-52.2851
-57.3058
-62.8764
-69.0917
-76.0889
-84.0728
-93.2616
-103.882
-117.733
-138.139
-22.3629
-24.1113
-26.2406
-28.588
-31.1423
-33.948
-37.0395
-40.4439
-44.1922
-48.3222
-52.8796
-57.921
-63.5183
-69.7675
-76.8075
-84.8458
-94.1019
-104.798
-118.712
-139.146
-22.5744
-24.4099
-26.5984
-28.9957
-31.5941
-34.4359
-37.5554
-40.9826
-44.7517
-48.9028
-53.4834
-58.5514
-64.1804
-70.4678
-77.5545
-85.6501
-94.9767
-105.754
-119.745
-140.224
-22.8713
-24.7343
-26.9588
-29.3926
-32.027
-34.9025
-38.0527
-41.5085
-45.305
-49.4836
-54.0932
-59.1931
-64.8583
-71.1882
-78.3255
-86.4821
-95.8828
-106.748
-120.83
-141.373
-23.1548
-25.0619
-27.327
-29.7944
-32.4601
-35.3661
-38.5463
-42.0318
-45.8583
-50.0679
-54.7103
-59.8459
-65.5513
-71.9274
-79.1191
-87.3406
-96.8195
-107.777
-121.958
-142.575
-23.4309
-25.3901
-27.6949
-30.1954
-32.893
-35.8304
-39.0415
-42.5579
-46.4161
-50.6589
-55.3366
-60.5109
-66.2596
-72.6854
-79.9351
-88.2253
-97.7858
-108.839
-123.121
-143.817
-23.7315
-25.733
-28.0701
-30.6006
-33.3293
-36.2984
-39.5412
-43.0897
-46.9811
-51.2588
-55.974
-61.1893
-66.9839
-73.4621
-80.773
-89.1352
-98.7804
-109.931
-124.317
-145.095
-24.0644
-26.0987
-28.4621
-31.019
-33.7763
-36.7754
-40.0494
-43.6302
-47.5555
-51.8693
-56.6235
-61.8817
-67.7243
-74.2575
-81.6321
-90.0691
-99.8021
-111.053
-125.544
-146.406
-24.4235
-26.4876
-28.8744
-31.4548
-34.2384
-37.2658
-40.5696
-44.1823
-48.1416
-52.4921
-57.2863
-62.5888
-68.4813
-75.0714
-82.5121
-91.0264
-100.85
-112.203
-126.8
-147.748
-24.8047
-26.8979
-29.3062
-31.9086
-34.7168
-37.7711
-41.104
-44.7479
-48.7411
-53.1285
-57.9635
-63.3113
-69.2549
-75.9037
-83.4124
-92.0063
-101.922
-113.38
-128.085
-149.119
-25.2075
-27.3287
-29.7569
-32.3797
-35.2115
-38.2919
-41.6531
-45.3279
-49.3548
-53.7794
-58.6555
-64.0495
-70.0455
-76.7543
-84.3328
-93.0082
-103.018
-114.583
-129.397
-150.518
-25.6311
-27.7789
-30.2255
-32.8677
-35.7222
-38.828
-42.217
-45.9224
-49.983
-54.4448
-59.3625
-64.8034
-70.8527
-77.6229
-85.2726
-94.0313
-104.138
-115.81
-130.734
-151.941
-26.0735
-28.2469
-30.7107
-33.3715
-36.2481
-39.3788
-42.7954
-46.531
-50.6253
-55.1246
-60.0844
-65.5728
-71.6763
-78.5089
-86.2313
-95.0748
-105.279
-117.06
-132.095
-153.389
-26.532
-28.7303
-31.2107
-33.8898
-36.7881
-39.9434
-43.3873
-47.1533
-51.2813
-55.8184
-60.8206
-66.3571
-72.5156
-79.4117
-87.208
-96.1377
-106.442
-118.333
-133.479
-154.859
-27.0036
-29.2266
-31.7232
-34.4205
-37.3406
-40.5205
-43.9917
-47.7881
-51.9501
-56.5253
-61.5704
-67.1556
-73.3699
-80.3304
-88.2017
-97.2188
-107.624
-119.627
-134.885
-156.352
-27.4857
-29.7332
-32.2461
-34.9617
-37.9038
-41.1085
-44.6073
-48.4344
-52.6307
-57.2443
-62.3328
-67.9673
-74.2381
-81.264
-89.2112
-98.3169
-108.824
-120.941
-136.313
-157.868
-27.9757
-30.2479
-32.7771
-35.5115
-38.476
-41.7059
-45.2326
-49.0908
-53.3218
-57.9743
-63.1068
-68.7912
-75.1192
-82.2111
-90.2353
-99.4304
-110.041
-122.273
-137.762
-159.407
-28.4713
-30.7683
-33.3144
-36.0681
-39.0556
-42.3112
-45.8662
-49.756
-54.0222
-58.7141
-63.891
-69.6259
-76.0117
-83.1705
-91.2722
-100.557
-111.271
-123.62
-139.23
-160.972
-28.9703
-31.2927
-33.8562
-36.63
-39.6411
-42.9229
-46.5069
-50.4287
-54.7306
-59.4624
-64.6843
-70.4702
-76.9143
-84.1404
-92.3203
-101.696
-112.512
-124.975
-140.708
-162.565
-19.9015
-19.0252
-18.5527
-18.2585
-18.0427
-17.8659
-17.7257
-17.6117
-17.525
-17.462
-17.4233
-17.4076
-17.4151
-17.4456
-17.4992
-17.5759
-17.6759
-17.7996
-17.9473
-18.1193
-22.0261
-21.3004
-20.7383
-20.3856
-20.1222
-19.9204
-19.7614
-19.6354
-19.5398
-19.4709
-19.4281
-19.4099
-19.4162
-19.4466
-19.5009
-19.5791
-19.6813
-19.8076
-19.9582
-20.1333
-24.1993
-23.5859
-23.0438
-22.6638
-22.3666
-22.1408
-21.9627
-21.8237
-21.7184
-21.643
-21.5959
-21.5755
-21.5812
-21.6124
-21.6688
-21.7503
-21.8566
-21.9879
-22.144
-22.3253
-26.651
-26.0665
-25.549
-25.154
-24.8326
-24.5828
-24.3836
-24.2282
-24.1097
-24.0244
-23.9698
-23.9443
-23.9467
-23.9764
-24.0329
-24.1157
-24.2246
-24.3595
-24.5202
-24.7069
-29.3198
-28.7519
-28.2496
-27.8444
-27.507
-27.2374
-27.0196
-26.8483
-26.7166
-26.6209
-26.5584
-26.5272
-26.5259
-26.5535
-26.6096
-26.6935
-26.8047
-26.943
-27.1082
-27.3004
-32.2038
-31.6556
-31.1652
-30.7531
-30.4044
-30.119
-29.8857
-29.7
-29.5561
-29.4505
-29.3803
-29.3434
-29.3385
-29.3643
-29.4202
-29.5054
-29.6193
-29.7614
-29.9316
-30.1301
-35.3394
-34.808
-34.3271
-33.9105
-33.553
-33.2544
-33.0076
-32.8089
-32.6536
-32.5384
-32.4607
-32.4185
-32.41
-32.4342
-32.4902
-32.577
-32.6941
-32.8407
-33.0166
-33.2222
-38.7644
-38.2438
-37.7685
-37.3484
-36.9831
-36.6731
-36.4142
-36.2035
-36.0374
-35.9132
-35.8282
-35.7807
-35.769
-35.7919
-35.8483
-35.9373
-36.0581
-36.2099
-36.3925
-36.6062
-42.5149
-41.9992
-41.5253
-41.1009
-40.728
-40.4075
-40.1373
-39.9154
-39.7391
-39.6062
-39.5144
-39.4619
-39.4473
-39.4692
-39.5266
-39.6184
-39.7438
-39.9017
-40.092
-40.3151
-46.6301
-46.114
-45.6375
-45.2071
-44.8258
-44.4949
-44.2137
-43.9809
-43.7947
-43.6534
-43.5549
-43.4978
-43.4806
-43.502
-43.561
-43.6564
-43.7871
-43.9522
-44.1515
-44.3855
-51.1562
-50.6344
-50.1512
-49.7122
-49.3208
-48.9787
-48.686
-48.4422
-48.2461
-48.0962
-47.9912
-47.9295
-47.91
-47.9313
-47.9923
-48.092
-48.2291
-48.4025
-48.6121
-48.8585
-56.1491
-55.616
-55.1215
-54.6704
-54.2664
-53.9112
-53.6057
-53.3499
-53.143
-52.9841
-52.872
-52.8056
-52.7836
-52.8049
-52.8684
-52.9729
-53.1171
-53.2999
-53.5211
-53.7815
-61.6789
-61.1282
-60.6167
-60.149
-59.7285
-59.3573
-59.0365
-58.7666
-58.5472
-58.3779
-58.2576
-58.1854
-58.1603
-58.1812
-58.2469
-58.3564
-58.5082
-58.701
-58.9347
-59.2103
-67.8381
-67.2622
-66.7269
-66.2363
-65.7939
-65.4019
-65.0618
-64.7743
-64.5394
-64.3568
-64.2259
-64.1459
-64.1159
-64.1349
-64.2019
-64.3156
-64.4745
-64.6773
-64.9238
-65.2152
-74.76
-74.1495
-73.5813
-73.0596
-72.5878
-72.1683
-71.8028
-71.4921
-71.2366
-71.0362
-70.8906
-70.7991
-70.7608
-70.775
-70.8405
-70.9563
-71.1207
-71.3322
-71.5906
-71.897
-82.6447
-81.9877
-81.3753
-80.8115
-80.3001
-79.8434
-79.4435
-79.1014
-78.8177
-78.5924
-78.4255
-78.3162
-78.264
-78.2681
-78.3275
-78.4411
-78.6072
-78.824
-79.0908
-79.4089
-91.7074
-90.9896
-90.3178
-89.6971
-89.1316
-88.6246
-88.1778
-87.7927
-87.4697
-87.2091
-87.0109
-86.8744
-86.7993
-86.7846
-86.8295
-86.9329
-87.0933
-87.3084
-87.5773
-87.9011
-102.178
-101.379
-100.627
-99.9295
-99.2923
-98.7186
-98.2098
-97.767
-97.3907
-97.0811
-96.8381
-96.6615
-96.5506
-96.5047
-96.5227
-96.6036
-96.7467
-96.9508
-97.2146
-97.5366
-115.848
-114.937
-114.079
-113.287
-112.562
-111.908
-111.324
-110.81
-110.367
-109.996
-109.695
-109.465
-109.305
-109.215
-109.194
-109.24
-109.355
-109.543
-109.8
-110.114
-136.035
-134.988
-134.026
-133.145
-132.341
-131.611
-130.956
-130.375
-129.868
-129.436
-129.079
-128.796
-128.588
-128.455
-128.394
-128.407
-128.498
-128.675
-128.934
-129.237
-18.3145
-18.5318
-18.771
-19.0322
-19.3157
-19.6215
-19.9496
-20.2997
-20.6713
-21.0639
-21.4763
-21.906
-22.3465
-22.7911
-23.2399
-23.6828
-24.0632
-24.3476
-24.6563
-24.9501
-20.3323
-20.5539
-20.7981
-21.0647
-21.3538
-21.6652
-21.9987
-22.3539
-22.7302
-23.1264
-23.541
-23.971
-24.4115
-24.8564
-25.2994
-25.732
-26.1346
-26.4719
-26.7173
-26.9485
-22.5313
-22.7606
-23.0132
-23.2888
-23.5872
-23.9082
-24.2515
-24.6163
-25.0018
-25.4067
-25.829
-26.2655
-26.7121
-27.1632
-27.6119
-28.0496
-28.4679
-28.8481
-29.1561
-29.4341
-24.9193
-25.1559
-25.4165
-25.7008
-26.0085
-26.3392
-26.6923
-27.0671
-27.4623
-27.8766
-28.3077
-28.7524
-29.2068
-29.6659
-30.1232
-30.5714
-31.0037
-31.4103
-31.7793
-32.1375
-27.5194
-27.7634
-28.0323
-28.3256
-28.6429
-28.9836
-29.3471
-29.7323
-30.1381
-30.5627
-31.0039
-31.4585
-31.9229
-32.3925
-32.8619
-33.325
-33.7756
-34.2075
-34.622
-35.0418
-30.3564
-30.6086
-30.8866
-31.1898
-31.5177
-31.8696
-32.2446
-32.6416
-33.0594
-33.4961
-33.9494
-34.4164
-34.8937
-35.3771
-35.8623
-36.3444
-36.8182
-37.2799
-37.7349
-38.201
-33.4567
-33.7183
-34.0065
-34.3209
-34.6607
-35.0252
-35.4133
-35.824
-36.2557
-36.7067
-37.1746
-37.6568
-38.15
-38.6507
-39.1553
-39.6598
-40.1605
-40.6556
-41.1506
-41.6585
-36.8503
-37.1224
-37.4223
-37.7493
-38.1027
-38.4816
-38.8848
-39.3112
-39.7592
-40.2269
-40.7123
-41.2127
-41.7252
-42.2469
-42.7745
-43.3051
-43.8359
-44.3666
-44.9019
-45.4513
-40.5701
-40.8544
-41.1676
-41.5091
-41.8781
-42.2734
-42.694
-43.1386
-43.6056
-44.0931
-44.5992
-45.1213
-45.6569
-46.2034
-46.7581
-47.3186
-47.883
-48.4515
-49.0282
-49.6201
-44.653
-44.9512
-45.2797
-45.6379
-46.0246
-46.4389
-46.8797
-47.3454
-47.8345
-48.3453
-48.8757
-49.4235
-49.9864
-50.562
-51.1482
-51.7429
-52.3448
-52.9541
-53.5744
-54.2113
-49.1404
-49.4544
-49.8004
-50.1775
-50.5847
-51.0208
-51.4847
-51.9749
-52.4898
-53.0277
-53.5867
-54.1646
-54.7594
-55.369
-55.9916
-56.6253
-57.2691
-57.9232
-58.5905
-59.2759
-54.0794
-54.4113
-54.777
-55.1755
-55.6059
-56.0669
-56.5573
-57.0756
-57.6203
-58.1896
-58.7816
-59.3946
-60.0264
-60.6753
-61.3397
-62.0179
-62.7088
-63.4125
-64.1314
-64.87
-59.5259
-59.8775
-60.2648
-60.6871
-61.1433
-61.6322
-62.1525
-62.7026
-63.2812
-63.8863
-64.5164
-65.1694
-65.8437
-66.5376
-67.2496
-67.9781
-68.7219
-69.4807
-70.2568
-71.0543
-65.5493
-65.9215
-66.332
-66.7798
-67.264
-67.7833
-68.3364
-68.9218
-69.538
-70.1832
-70.8559
-71.5541
-72.2762
-73.0206
-73.786
-74.5709
-75.3738
-76.194
-77.0335
-77.8965
-72.2489
-72.6415
-73.0751
-73.549
-74.0621
-74.6133
-75.2011
-75.8241
-76.4807
-77.1693
-77.8883
-78.6359
-79.4104
-80.2104
-81.0346
-81.8816
-82.7495
-83.6374
-84.5467
-85.4813
-79.7759
-80.1862
-80.6409
-81.139
-81.6798
-82.2619
-82.8841
-83.5449
-84.2428
-84.976
-85.7431
-86.5423
-87.3721
-88.2309
-89.1176
-90.0308
-90.9686
-91.9291
-92.9129
-93.9238
-88.2772
-88.6993
-89.1688
-89.6852
-90.2481
-90.8564
-91.5088
-92.2039
-92.9399
-93.7154
-94.5286
-95.378
-96.2619
-97.179
-98.128
-99.1075
-100.116
-101.15
-102.211
-103.3
-97.9119
-98.3331
-98.8042
-99.3267
-99.9007
-100.525
-101.198
-101.919
-102.685
-103.494
-104.346
-105.238
-106.169
-107.137
-108.141
-109.18
-110.253
-111.359
-112.497
-113.666
-110.465
-110.861
-111.312
-111.824
-112.394
-113.02
-113.699
-114.431
-115.212
-116.041
-116.916
-117.836
-118.8
-119.805
-120.85
-121.935
-123.063
-124.24
-125.463
-126.709
-129.517
-129.86
-130.279
-130.768
-131.322
-131.937
-132.61
-133.337
-134.118
-134.95
-135.833
-136.764
-137.744
-138.77
-139.842
-140.961
-142.134
-143.377
-144.685
-145.993
-147.19
-127.948
-114.859
-104.416
-94.9592
-86.4389
-78.7814
-71.8729
-65.6287
-59.9809
-54.8675
-50.2316
-46.021
-42.1888
-38.6931
-35.494
-32.5483
-29.8249
-27.3754
-25.2272
-148.423
-129.194
-116.065
-105.549
-96.0119
-87.4133
-79.6829
-72.7081
-66.4045
-60.7036
-55.5425
-50.8632
-46.613
-42.7438
-39.2127
-35.9799
-33.0072
-30.273
-27.8127
-25.5892
-149.715
-130.469
-117.292
-106.703
-97.0849
-88.4069
-80.6031
-73.5622
-67.1996
-61.4464
-56.2388
-51.5182
-47.2306
-43.3277
-39.7658
-36.5055
-33.51
-30.7544
-28.2563
-25.9801
-151.058
-131.779
-118.544
-107.88
-98.1786
-89.4202
-81.5425
-74.4354
-68.0144
-62.2098
-56.9572
-52.1968
-47.8742
-43.9404
-40.3516
-37.0686
-34.0552
-31.2852
-28.7712
-26.4835
-152.444
-133.123
-119.823
-109.078
-99.2927
-90.4528
-82.5007
-75.3275
-68.8486
-62.9935
-57.6969
-52.8984
-48.5426
-44.58
-40.9666
-37.6629
-34.6327
-31.849
-29.3211
-27.0226
-153.867
-134.5
-121.128
-110.299
-100.426
-91.5039
-83.4769
-76.2376
-69.701
-63.7961
-58.4566
-53.6209
-49.2332
-45.2433
-41.6068
-38.284
-35.2388
-32.4443
-29.906
-27.5969
-155.324
-135.905
-122.457
-111.54
-101.578
-92.5721
-84.4696
-77.1641
-70.5702
-64.6159
-59.2339
-54.3619
-49.9429
-45.9263
-42.2669
-38.9249
-35.8641
-33.0574
-30.5062
-28.1826
-156.81
-137.337
-123.807
-112.8
-102.747
-93.6558
-85.4772
-78.1052
-71.4541
-65.4506
-60.0266
-55.1183
-50.6683
-46.6249
-42.9426
-39.581
-36.504
-33.6838
-31.1179
-28.7772
-158.322
-138.791
-125.178
-114.076
-103.931
-94.753
-86.4977
-79.059
-72.3505
-66.2979
-60.8318
-55.8873
-51.4061
-47.3356
-43.6297
-40.2476
-37.1528
-34.3172
-31.7343
-29.3742
-159.857
-140.265
-126.565
-115.367
-105.127
-95.8614
-87.5288
-80.0231
-73.2571
-67.1553
-61.6469
-56.666
-52.1531
-48.055
-44.3248
-40.9211
-37.8073
-34.9546
-32.3531
-29.9722
-161.413
-141.755
-127.966
-116.67
-106.332
-96.9788
-88.5682
-80.9951
-74.1714
-68.0203
-62.4694
-57.4517
-52.9067
-48.7803
-45.0248
-41.5985
-38.4644
-35.5932
-32.9716
-30.569
-162.986
-143.26
-129.378
-117.981
-107.546
-98.1025
-89.6135
-81.9728
-75.0912
-68.8904
-63.2967
-58.2419
-53.6642
-49.5088
-45.7274
-42.2776
-39.1222
-36.2312
-33.5884
-31.1635
-164.573
-144.776
-130.798
-119.298
-108.763
-99.2302
-90.6623
-82.9537
-76.014
-69.7634
-64.1267
-59.0344
-54.4236
-50.2386
-46.4306
-42.9564
-39.7788
-36.8671
-34.2022
-31.7547
-166.171
-146.299
-132.223
-120.619
-109.983
-100.359
-91.7121
-83.9355
-76.9376
-70.6371
-64.9572
-59.827
-55.1827
-50.9678
-47.1325
-43.6334
-40.4329
-37.4997
-34.812
-32.342
-167.776
-147.826
-133.65
-121.94
-111.203
-101.487
-92.7606
-84.9159
-77.8598
-71.5093
-65.7861
-60.618
-55.94
-51.6947
-47.8317
-44.3073
-41.0834
-38.1281
-35.4172
-32.9248
-169.386
-149.354
-135.075
-123.258
-112.418
-102.611
-93.805
-85.8924
-78.7783
-72.378
-66.6116
-61.4055
-56.6936
-52.4178
-48.527
-44.977
-41.7294
-38.7516
-36.0173
-33.5029
-171.004
-150.882
-136.496
-124.569
-113.627
-103.728
-94.8424
-86.8622
-79.6906
-73.2409
-67.4315
-62.1875
-57.4419
-53.1356
-49.217
-45.6414
-42.37
-39.3697
-36.612
-34.0764
-172.635
-152.411
-137.909
-125.87
-114.825
-104.834
-95.8702
-87.8231
-80.5945
-74.0959
-68.2439
-62.9624
-58.1833
-53.8467
-49.9004
-46.2993
-43.0045
-39.9817
-37.2012
-34.6455
-174.274
-153.937
-139.312
-127.159
-116.011
-105.93
-96.888
-88.7746
-81.4896
-74.9425
-69.0483
-63.7296
-58.9171
-54.5503
-50.5766
-46.9502
-43.632
-40.5872
-37.7844
-35.2103
-175.876
-155.443
-140.701
-128.436
-117.186
-107.015
-97.8964
-89.7174
-82.3764
-75.781
-69.8449
-64.4889
-59.6432
-55.2464
-51.2451
-47.5936
-44.2522
-41.1855
-38.3609
-35.7696
-28.902
-20.0483
-14.2065
-9.9722
-6.9268
-4.74172
-3.1615
-2.03394
-1.24603
-0.71125
-0.361581
-0.143336
-0.0154293
0.0524764
0.0819898
0.0879948
0.0804525
0.0658553
0.0483215
0.0303653
0.0134423
-0.00168722
-0.0146991
-0.0255692
-0.0344144
-0.0414576
-0.0469324
-0.0510644
-0.0540506
-0.0559827
-0.0570077
-0.0570175
-0.056192
-0.0541842
-0.0512998
-0.0469017
-0.0412701
-0.0336592
-0.0233164
-0.0110765
-29.4415
-20.4848
-14.544
-10.2353
-7.12683
-4.89464
-3.27981
-2.12602
-1.31842
-0.768753
-0.407677
-0.180531
-0.0455548
0.0280444
0.062186
0.0719728
0.0675271
0.0554652
0.0400032
0.0237357
0.00818514
-0.00583358
-0.017951
-0.0281044
-0.0363801
-0.0429742
-0.0480979
-0.0519573
-0.0547324
-0.0565008
-0.0573962
-0.0573037
-0.0563921
-0.0543169
-0.0513699
-0.0469302
-0.0412542
-0.0336276
-0.0232746
-0.011011
-29.9719
-20.9222
-14.8888