/*--------------------------------*- C++ -*----------------------------------*\
  =========                 |
  \\      /  F ield         | OpenFOAM: The Open Source CFD Toolbox
   \\    /   O peration     | Website:  https://openfoam.org
    \\  /    A nd           | Version:  6.0
     \\/     M anipulation  |
\*---------------------------------------------------------------------------*/
FoamFile
{
    version     2.0;
    format      ascii;
    class       volVectorField;
    location    "17.504";
    object      U;
}
// * * * * * * * * * * * * * * * * * * * * * * * * * * * * * * * * * * * * * //

dimensions      [0 1 -1 0 0 0 0];

internalField   nonuniform List<vector> 
19200
(
(0.0065523 -0.479098 -4.15449e-22)
(0.00479275 -0.440918 2.30262e-22)
(0.00269003 -0.405877 1.18191e-22)
(0.000255583 -0.373803 1.15408e-22)
(-0.00238034 -0.344491 1.41346e-22)
(-0.00508061 -0.317737 7.1304e-24)
(-0.00775075 -0.293337 2.26592e-22)
(-0.0103233 -0.271097 -2.36079e-23)
(-0.0127498 -0.250833 2.24863e-22)
(-0.0149974 -0.232368 9.8389e-23)
(-0.0170454 -0.215542 -1.03319e-23)
(-0.0188832 -0.200201 1.75502e-22)
(-0.0205075 -0.186209 3.31832e-22)
(-0.0219208 -0.173435 -2.42197e-22)
(-0.0231305 -0.161765 3.22631e-22)
(-0.0241469 -0.15109 3.06985e-22)
(-0.0249835 -0.141314 -3.01799e-22)
(-0.025655 -0.132348 5.52367e-22)
(-0.026178 -0.124115 -3.70816e-22)
(-0.0265695 -0.116541 1.87969e-22)
(-0.0268469 -0.109563 2.91367e-22)
(-0.0270281 -0.103123 -1.05459e-22)
(-0.0271302 -0.0971701 1.43664e-22)
(-0.0271702 -0.0916578 -1.8243e-22)
(-0.0271641 -0.0865457 4.75588e-24)
(-0.0271282 -0.0817982 1.08647e-22)
(-0.0270778 -0.0773846 -7.39443e-23)
(-0.0270172 -0.073278 4.05207e-23)
(-0.0269386 -0.0694531 1.13042e-22)
(-0.0269288 -0.0658864 5.58463e-22)
(0.0191242 -0.478274 -1.00228e-22)
(0.0163546 -0.439511 7.24503e-22)
(0.0133334 -0.404053 -4.04627e-22)
(0.0100825 -0.371694 -6.19425e-22)
(0.00673007 -0.34221 -3.13607e-22)
(0.00340675 -0.315376 -2.39011e-22)
(0.000199983 -0.290971 -5.56155e-22)
(-0.00282978 -0.268786 6.68739e-23)
(-0.0056408 -0.248622 -1.08756e-22)
(-0.00820652 -0.230293 -4.64559e-22)
(-0.0105124 -0.213628 -1.33166e-21)
(-0.0125533 -0.198467 6.92736e-22)
(-0.0143311 -0.184664 -2.7842e-22)
(-0.0158534 -0.172085 1.07e-22)
(-0.0171316 -0.16061 -7.29771e-22)
(-0.0181805 -0.150125 -2.94995e-22)
(-0.0190172 -0.140532 2.85651e-23)
(-0.0196602 -0.131739 1.11131e-21)
(-0.020129 -0.123663 -5.76754e-22)
(-0.0204439 -0.116233 -3.32836e-22)
(-0.0206252 -0.10938 -1.49042e-21)
(-0.0206932 -0.103048 3.96149e-22)
(-0.0206677 -0.0971826 -2.67893e-22)
(-0.0205679 -0.0917382 5.05316e-22)
(-0.020412 -0.0866736 -2.56651e-22)
(-0.0202185 -0.0819537 -4.17783e-22)
(-0.0200048 -0.0775482 1.30343e-22)
(-0.0197756 -0.0734307 2.38966e-22)
(-0.0195206 -0.0695762 -4.06722e-22)
(-0.0193394 -0.0659633 2.61942e-22)
(0.0316092 -0.477162 -4.79064e-23)
(0.0278103 -0.437834 1.26214e-22)
(0.0238779 -0.401989 2.16862e-22)
(0.0198241 -0.369383 2.14541e-21)
(0.015773 -0.339767 -1.36579e-21)
(0.0118499 -0.312891 1.26167e-21)
(0.00813509 -0.288518 8.35349e-22)
(0.00468161 -0.266421 7.42173e-22)
(0.00152385 -0.246389 -7.55354e-22)
(-0.00131862 -0.228226 -1.26141e-22)
(-0.00383783 -0.211749 2.1574e-21)
(-0.00603466 -0.196792 4.12418e-22)
(-0.00791667 -0.183202 -1.16049e-21)
(-0.00949649 -0.170839 9.22201e-22)
(-0.0107905 -0.159577 -1.89079e-23)
(-0.0118178 -0.1493 4.54241e-22)
(-0.0125995 -0.139905 3.32811e-22)
(-0.0131577 -0.131298 1.27966e-21)
(-0.0135156 -0.123393 -5.44984e-22)
(-0.0136966 -0.116116 -1.76344e-22)
(-0.0137241 -0.109398 -5.74938e-22)
(-0.0136212 -0.103179 2.74384e-21)
(-0.0134103 -0.0974067 -2.38896e-21)
(-0.0131132 -0.0920332 7.69455e-22)
(-0.0127504 -0.0870175 4.51888e-22)
(-0.0123429 -0.0823244 -1.73897e-21)
(-0.0119104 -0.0779243 2.39739e-21)
(-0.0114579 -0.0737914 -2.4132e-22)
(-0.0109718 -0.0699002 -2.88475e-22)
(-0.0105678 -0.0662329 -2.51705e-21)
(0.0440382 -0.475751 -1.50991e-21)
(0.0391826 -0.4359 -1.59266e-21)
(0.0343322 -0.399706 -2.13888e-21)
(0.0294829 -0.366895 8.42361e-24)
(0.0247501 -0.337187 1.34493e-22)
(0.0202516 -0.31031 -2.98119e-21)
(0.0160591 -0.286005 1.15453e-22)
(0.0122172 -0.264031 4.56395e-22)
(0.00875227 -0.244164 -6.08769e-23)
(0.00567609 -0.226195 9.14927e-22)
(0.00298955 -0.209934 -3.67951e-21)
(0.00068521 -0.195206 -2.54707e-21)
(-0.00125054 -0.181852 9.1188e-22)
(-0.00283583 -0.169726 2.13534e-21)
(-0.0040921 -0.158697 -2.50291e-21)
(-0.00504305 -0.148646 -4.17591e-22)
(-0.00571397 -0.139465 -1.70341e-21)
(-0.00613106 -0.131056 -8.52474e-22)
(-0.00632104 -0.123334 1.55657e-21)
(-0.0063107 -0.11622 -2.05867e-21)
(-0.00612661 -0.109645 1.95366e-21)
(-0.0057949 -0.103548 -2.33077e-21)
(-0.00534093 -0.0978725 -1.97405e-21)
(-0.00478908 -0.0925726 -1.54684e-21)
(-0.00416253 -0.0876063 -3.99547e-22)
(-0.00348482 -0.0829385 -3.44205e-21)
(-0.00277832 -0.07854 3.69458e-22)
(-0.00204831 -0.0743854 6.94088e-22)
(-0.00127693 -0.0704486 -2.13886e-21)
(-0.00059937 -0.0667164 4.21998e-22)
(0.0564137 -0.474031 -8.77934e-22)
(0.0504779 -0.433714 1.54392e-22)
(0.044702 -0.397222 1.42473e-21)
(0.0390639 -0.364251 1.63064e-21)
(0.0336669 -0.334495 1.28649e-21)
(0.0286185 -0.307657 5.74151e-22)
(0.0239803 -0.283459 9.24699e-22)
(0.0197872 -0.261644 4.69332e-21)
(0.0160562 -0.241974 -2.89301e-21)
(0.012791 -0.22423 6.05119e-23)
(0.00998457 -0.208212 7.60205e-22)
(0.00762237 -0.193739 3.80171e-21)
(0.0056844 -0.180643 -2.69049e-21)
(0.00414665 -0.168775 2.07851e-21)
(0.00298241 -0.157998 -2.49221e-21)
(0.00216309 -0.148189 4.5098e-21)
(0.00165898 -0.139237 -1.34691e-21)
(0.00143979 -0.131042 5.24466e-23)
(0.00147501 -0.123515 2.56144e-21)
(0.0017343 -0.116575 1.97377e-21)
(0.00218774 -0.110151 -2.01406e-21)
(0.00280601 -0.104181 2.90379e-21)
(0.00356073 -0.0986075 -1.42063e-21)
(0.0044246 -0.0933837 1.67847e-21)
(0.00537167 -0.0884669 2.44412e-21)
(0.00637555 -0.0838221 9.99656e-22)
(0.00741076 -0.0794204 3.09729e-21)
(0.00847214 -0.0752365 -9.80711e-22)
(0.0095822 -0.0712433 -2.53581e-22)
(0.0105833 -0.0674333 -2.15345e-21)
(0.0687315 -0.472004 -6.45996e-22)
(0.0616965 -0.431283 -4.70084e-22)
(0.0549909 -0.394547 -1.6233e-21)
(0.0485727 -0.361468 -4.697e-21)
(0.0425309 -0.331712 1.57235e-21)
(0.0369601 -0.304956 1.24644e-22)
(0.0319101 -0.280904 -1.28371e-21)
(0.0274048 -0.259284 3.18928e-22)
(0.023451 -0.239844 -1.57611e-22)
(0.0200431 -0.222355 -4.15952e-21)
(0.0171656 -0.206608 1.73496e-21)
(0.0147965 -0.192414 3.34209e-21)
(0.0129089 -0.179599 -2.47625e-23)
(0.0114726 -0.16801 1.38669e-21)
(0.0104554 -0.157504 3.77342e-21)
(0.00982351 -0.147954 -2.75276e-21)
(0.00954271 -0.139247 5.0867e-21)
(0.00957844 -0.131279 -2.60865e-21)
(0.00989627 -0.123959 4.85838e-21)
(0.0104622 -0.117203 -3.81991e-21)
(0.0112428 -0.11094 1.75931e-21)
(0.0122054 -0.105103 5.10812e-21)
(0.0133183 -0.0996365 4.93028e-22)
(0.0145515 -0.0944908 -5.14824e-21)
(0.0158755 -0.0896235 3.00789e-21)
(0.0172612 -0.0849987 3.74619e-22)
(0.0186796 -0.0805882 -1.1273e-21)
(0.0201256 -0.0763663 4.363e-21)
(0.0216271 -0.0723041 1.72317e-21)
(0.0230009 -0.0684015 -1.80467e-21)
(0.0809854 -0.469673 1.89519e-21)
(0.072837 -0.428614 1.11062e-22)
(0.0652018 -0.391696 -3.29435e-21)
(0.0580159 -0.358564 7.08709e-22)
(0.0513513 -0.328855 -1.14605e-21)
(0.0452882 -0.302227 7.63704e-22)
(0.0398629 -0.278362 1.94786e-21)
(0.0350866 -0.256974 3.95638e-21)
(0.0309551 -0.237798 -4.61117e-21)
(0.0274526 -0.220594 1.13147e-21)
(0.0245546 -0.205145 -9.77129e-22)
(0.022231 -0.191254 7.39062e-22)
(0.0204475 -0.178743 -3.31307e-21)
(0.0191675 -0.167452 -3.14877e-22)
(0.0183529 -0.157236 6.14243e-21)
(0.0179648 -0.147963 -4.29325e-21)
(0.0179642 -0.139515 -2.9953e-21)
(0.0183121 -0.131789 -2.42561e-21)
(0.01897 -0.124687 4.34001e-21)
(0.0199002 -0.118127 1.04839e-21)
(0.0210657 -0.112032 -4.87725e-21)
(0.0224303 -0.106336 6.8799e-21)
(0.023959 -0.10098 -6.44363e-21)
(0.0256182 -0.0959153 4.54416e-21)
(0.0273758 -0.0910969 -2.66267e-21)
(0.0291985 -0.0864891 1.84988e-21)
(0.0310541 -0.0820634 1.54573e-21)
(0.0329374 -0.0777937 -6.86537e-21)
(0.0348826 -0.0736485 3.01839e-21)
(0.036677 -0.0696366 6.7411e-23)
(0.0931691 -0.467043 -1.87131e-21)
(0.0838981 -0.425717 1.60152e-21)
(0.0753381 -0.388681 -3.53948e-21)
(0.0674007 -0.355552 7.01676e-21)
(0.0601391 -0.325944 -2.09098e-21)
(0.053617 -0.299489 3.33288e-21)
(0.0478554 -0.275854 5.5045e-23)
(0.0428521 -0.254735 -4.40881e-22)
(0.0385903 -0.235855 -8.33959e-22)
(0.0350434 -0.218966 -5.3035e-23)
(0.0321772 -0.203842 -3.62093e-21)
(0.0299527 -0.190279 1.91067e-21)
(0.0283282 -0.178094 -2.58149e-21)
(0.0272603 -0.167121 -1.78368e-22)
(0.0267048 -0.157211 -8.12875e-21)
(0.0266173 -0.148231 2.68151e-21)
(0.026954 -0.140059 1.77067e-21)
(0.0276715 -0.132586 -2.01712e-21)
(0.0287271 -0.125716 -2.28599e-22)
(0.0300793 -0.11936 -3.47547e-21)
(0.0316872 -0.113443 -1.31621e-21)
(0.0335112 -0.107895 1.93375e-22)
(0.0355128 -0.102656 -3.54699e-21)
(0.0376549 -0.0976742 -5.70671e-21)
(0.0399018 -0.0929046 1.96675e-22)
(0.0422168 -0.0883106 -7.38141e-22)
(0.0445632 -0.0838633 2.09484e-21)
(0.046936 -0.0795353 -5.42111e-21)
(0.0493761 -0.0752917 4.84043e-21)
(0.0516383 -0.071152 -1.10169e-20)
(0.105277 -0.464118 -4.55907e-21)
(0.0948787 -0.4226 6.29388e-21)
(0.0854038 -0.385512 -7.29511e-21)
(0.0767358 -0.352448 -2.19754e-21)
(0.0689069 -0.322994 -1.55534e-21)
(0.0619626 -0.296762 -1.80753e-21)
(0.0559074 -0.273398 -1.68928e-21)
(0.0507237 -0.252584 -2.9975e-22)
(0.0463816 -0.234035 -1.88905e-21)
(0.0428427 -0.21749 -4.37994e-22)
(0.0400622 -0.202716 3.89795e-21)
(0.0379923 -0.189504 -2.03762e-21)
(0.036583 -0.177665 -2.75658e-21)
(0.0357839 -0.167029 -5.18018e-21)
(0.0355446 -0.157443 1.13298e-20)
(0.0358151 -0.148771 -4.58509e-21)
(0.0365466 -0.140888 1.81575e-21)
(0.0376911 -0.133682 -7.33681e-21)
(0.039202 -0.127055 2.86689e-21)
(0.0410335 -0.120916 -1.32501e-21)
(0.0431412 -0.115185 1.60937e-21)
(0.0454818 -0.109793 -6.19134e-22)
(0.0480132 -0.104676 5.96155e-21)
(0.0506946 -0.09978 -2.18861e-21)
(0.0534865 -0.0950596 6.55016e-21)
(0.0563482 -0.0904765 -1.63586e-21)
(0.0592386 -0.086001 9.13841e-21)
(0.0621526 -0.0816041 2.86502e-21)
(0.0651383 -0.0772459 5.55581e-21)
(0.0679142 -0.0729588 -1.92154e-20)
(0.117302 -0.460904 7.17961e-21)
(0.105779 -0.419272 -1.48089e-21)
(0.0954038 -0.382203 3.22502e-21)
(0.0860311 -0.349266 -9.83635e-22)
(0.0776692 -0.320022 3.56878e-21)
(0.0703438 -0.29406 3.70925e-21)
(0.0640409 -0.271009 4.50003e-21)
(0.0587268 -0.25054 -4.36856e-22)
(0.0543572 -0.232352 -5.0431e-21)
(0.0508809 -0.216179 7.55461e-21)
(0.0482424 -0.20178 -8.10098e-22)
(0.046384 -0.188941 6.02311e-21)
(0.0452474 -0.177467 2.36162e-21)
(0.0447749 -0.167185 8.29757e-22)
(0.0449095 -0.157939 1.44551e-21)
(0.0455957 -0.14959 2.17298e-21)
(0.0467797 -0.142009 3.96076e-21)
(0.0484088 -0.135083 -1.28065e-21)
(0.0504322 -0.12871 6.56696e-21)
(0.0528004 -0.122798 3.31389e-21)
(0.055465 -0.117263 -7.07641e-21)
(0.058379 -0.112034 1.33226e-20)
(0.0614965 -0.107045 -1.84486e-20)
(0.064773 -0.10224 1.82695e-20)
(0.0681654 -0.0975696 -6.29491e-21)
(0.0716278 -0.0929953 1.14843e-21)
(0.075115 -0.0884859 -9.29358e-21)
(0.078621 -0.0840094 5.27544e-21)
(0.0822021 -0.0795201 2.05443e-21)
(0.0855366 -0.0750649 -2.84783e-21)
(0.129239 -0.457404 -4.09739e-21)
(0.116598 -0.415741 4.7563e-21)
(0.105344 -0.378765 -1.35253e-21)
(0.0952981 -0.346019 4.19559e-21)
(0.0864425 -0.317042 4.387e-22)
(0.0787813 -0.291398 1.20353e-21)
(0.0722808 -0.268704 -8.87216e-21)
(0.0668896 -0.248614 -1.73407e-21)
(0.0625482 -0.23082 6.55812e-21)
(0.0591919 -0.215045 5.51674e-21)
(0.0567536 -0.201045 -9.76911e-21)
(0.0551655 -0.188598 6.07984e-21)
(0.0543605 -0.177506 -6.3224e-21)
(0.0542733 -0.167594 4.78672e-21)
(0.0548404 -0.158703 -8.37798e-21)
(0.0560005 -0.150688 -6.74025e-21)
(0.0576946 -0.143422 2.12546e-22)
(0.0598658 -0.136787 -3.57397e-21)
(0.0624588 -0.13068 6.18768e-21)
(0.0654204 -0.125004 2.69155e-21)
(0.0686983 -0.119676 -1.75899e-21)
(0.0722419 -0.114618 -5.07959e-22)
(0.0760014 -0.109764 2.55496e-21)
(0.0799285 -0.105054 -8.47628e-21)
(0.0839757 -0.100437 1.47699e-20)
(0.0880928 -0.0958701 -3.56613e-21)
(0.0922286 -0.091322 -4.57754e-22)
(0.0963773 -0.0867563 1.48662e-20)
(0.100603 -0.0821193 2.3646e-21)
(0.10454 -0.0774752 -2.37661e-21)
(0.141084 -0.453623 1.95717e-22)
(0.127338 -0.412016 -2.43684e-21)
(0.115233 -0.375208 -2.5125e-21)
(0.10455 -0.34272 -4.54211e-21)
(0.0952452 -0.314065 1.77801e-22)
(0.0872983 -0.28879 -3.93097e-21)
(0.0806544 -0.266494 4.71177e-21)
(0.0752432 -0.246819 -4.72378e-22)
(0.0709889 -0.229447 4.66653e-21)
(0.0678128 -0.214097 -3.70762e-21)
(0.0656352 -0.200515 -2.10477e-21)
(0.064378 -0.188478 1.23493e-21)
(0.0639649 -0.177785 7.15994e-22)
(0.0643228 -0.168256 -7.97949e-21)
(0.0653815 -0.15973 4.8109e-21)
(0.067074 -0.152062 -2.6904e-21)
(0.0693361 -0.14512 7.67315e-21)
(0.0721064 -0.138787 -2.71548e-21)
(0.0753257 -0.132955 2.89605e-21)
(0.0789367 -0.127526 8.0507e-22)
(0.0828837 -0.122413 5.6699e-21)
(0.0871122 -0.117536 -1.10924e-21)
(0.0915687 -0.112825 1.03198e-20)
(0.0962009 -0.108216 -1.17462e-20)
(0.100957 -0.103656 -4.3079e-21)
(0.105782 -0.0990978 3.66698e-21)
(0.110617 -0.0945078 -2.17952e-22)
(0.115459 -0.0898445 -7.03822e-21)
(0.120376 -0.0850444 5.85449e-21)
(0.124958 -0.0801909 -7.9266e-21)
(0.152831 -0.449567 7.03558e-21)
(0.138002 -0.408105 2.1284e-21)
(0.125078 -0.371543 2.80518e-21)
(0.113802 -0.339379 4.17367e-21)
(0.104098 -0.311105 6.70784e-21)
(0.0959203 -0.286247 -2.245e-22)
(0.0891916 -0.264389 1.00061e-21)
(0.0838214 -0.245162 9.22767e-21)
(0.0797167 -0.228241 -1.88303e-21)
(0.0767836 -0.213337 -3.89943e-21)
(0.0749298 -0.200193 7.24368e-21)
(0.0740659 -0.188581 1.41323e-21)
(0.0741066 -0.178298 1.90823e-23)
(0.0749704 -0.169163 1.95116e-21)
(0.0765806 -0.161012 3.89196e-21)
(0.0788641 -0.153698 -8.60641e-21)
(0.0817518 -0.14709 7.54716e-21)
(0.0851779 -0.141067 1.35016e-21)
(0.0890792 -0.135519 8.42047e-21)
(0.0933948 -0.130346 -4.66151e-21)
(0.0980655 -0.125457 8.28074e-21)
(0.103033 -0.120771 -9.23319e-21)
(0.108241 -0.116211 9.31286e-21)
(0.113631 -0.111712 1.59192e-21)
(0.119149 -0.107214 -6.75837e-21)
(0.124733 -0.102668 -2.51053e-21)
(0.13032 -0.0980354 1.44583e-20)
(0.135902 -0.0932685 1.08771e-20)
(0.141559 -0.0882914 3.01136e-21)
(0.146828 -0.0832094 -2.70043e-21)
(0.164475 -0.44524 7.36718e-22)
(0.148591 -0.404016 1.9985e-21)
(0.13489 -0.367779 8.76762e-21)
(0.12307 -0.336008 -1.48274e-20)
(0.113023 -0.308172 -1.66051e-21)
(0.104675 -0.283778 -1.8127e-21)
(0.0979248 -0.262397 7.99756e-22)
(0.0926608 -0.243651 1.24334e-21)
(0.0887715 -0.227206 2.2797e-21)
(0.0861475 -0.212768 -6.40921e-21)
(0.0846828 -0.200077 -1.53571e-21)
(0.0842769 -0.188902 3.9161e-21)
(0.0848346 -0.179038 4.73335e-21)
(0.0862663 -0.170303 -4.7386e-21)
(0.0884882 -0.162533 -5.3196e-21)
(0.0914215 -0.15558 8.36092e-21)
(0.0949922 -0.149311 5.99724e-21)
(0.09913 -0.143603 -1.43784e-21)
(0.103768 -0.138346 -4.17937e-21)
(0.108842 -0.133437 8.35336e-22)
(0.11429 -0.128782 -1.09287e-20)
(0.120049 -0.124295 1.36507e-20)
(0.12606 -0.119898 -9.73674e-21)
(0.132261 -0.115518 -5.6972e-22)
(0.138592 -0.11109 6.95279e-21)
(0.144987 -0.106562 -2.31258e-21)
(0.151374 -0.101889 -7.44961e-21)
(0.157746 -0.0970159 9.31658e-21)
(0.164188 -0.0918508 -3.0425e-22)
(0.170184 -0.0865235 1.97785e-21)
(0.176013 -0.440646 -4.85712e-22)
(0.159111 -0.399756 -1.99986e-21)
(0.14468 -0.363925 -1.01221e-20)
(0.132373 -0.332616 3.69655e-21)
(0.122044 -0.305274 -1.30789e-21)
(0.113592 -0.281391 4.26615e-21)
(0.106889 -0.260525 3.14289e-22)
(0.1018 -0.242288 -5.88805e-21)
(0.0981961 -0.226342 9.29892e-21)
(0.0959501 -0.212387 -8.81058e-21)
(0.0949427 -0.20016 -4.94762e-22)
(0.0950614 -0.18943 2.42975e-21)
(0.0962009 -0.179991 -4.40581e-21)
(0.0982633 -0.17166 5.41732e-21)
(0.101158 -0.164273 -1.07448e-20)
(0.1048 -0.157682 -2.81007e-21)
(0.10911 -0.151753 6.96474e-21)
(0.114015 -0.146364 -1.90685e-22)
(0.119443 -0.141402 -5.33101e-21)
(0.125328 -0.136763 1.45162e-20)
(0.131603 -0.13235 -7.80519e-21)
(0.138205 -0.128073 -1.13748e-20)
(0.145069 -0.123848 4.01392e-21)
(0.152131 -0.119598 -1.2249e-20)
(0.159325 -0.115253 -3.25545e-21)
(0.166579 -0.110752 -5.74765e-22)
(0.173816 -0.106046 -9.31795e-21)
(0.181023 -0.101067 1.11296e-20)
(0.188297 -0.0957069 -6.61803e-21)
(0.19506 -0.0901212 8.55719e-21)
(0.187441 -0.435792 -2.48857e-21)
(0.169565 -0.395333 -8.102e-21)
(0.154462 -0.359991 4.41773e-21)
(0.14173 -0.32921 -4.46356e-21)
(0.131188 -0.302419 -3.61337e-21)
(0.122704 -0.279092 -2.32173e-21)
(0.11612 -0.258776 -8.63331e-21)
(0.111281 -0.241075 6.11468e-21)
(0.108035 -0.225646 -1.61173e-20)
(0.10624 -0.212187 -6.4846e-21)
(0.10576 -0.200434 2.12204e-21)
(0.106472 -0.190153 4.08037e-21)
(0.10826 -0.181139 9.51644e-23)
(0.111017 -0.17321 -8.79888e-21)
(0.114645 -0.166204 2.10659e-21)
(0.119054 -0.159972 -9.05581e-21)
(0.12416 -0.154381 -6.99505e-21)
(0.129885 -0.14931 -4.60855e-21)
(0.136156 -0.144644 -1.25775e-21)
(0.142901 -0.140278 7.73871e-21)
(0.150053 -0.136112 1.19687e-20)
(0.157545 -0.132053 -3.76713e-21)
(0.16531 -0.128013 -3.88909e-21)
(0.173279 -0.123907 7.66217e-21)
(0.181384 -0.119659 4.54174e-21)
(0.189545 -0.115199 -3.60748e-21)
(0.197678 -0.110471 -4.31549e-21)
(0.205767 -0.105393 3.88499e-22)
(0.213916 -0.0998369 4.98155e-21)
(0.221484 -0.093985 7.56556e-21)
(0.198756 -0.430682 -6.328e-22)
(0.17996 -0.390755 1.04933e-20)
(0.164248 -0.355983 8.91569e-21)
(0.151163 -0.325799 7.45563e-21)
(0.140484 -0.299613 -4.99579e-21)
(0.132044 -0.276885 -1.05976e-21)
(0.125658 -0.257151 9.16367e-22)
(0.121147 -0.24001 7.84365e-21)
(0.118336 -0.225115 3.15937e-21)
(0.117066 -0.212161 8.08202e-21)
(0.117188 -0.200883 -1.18403e-20)
(0.118564 -0.191051 1.12453e-21)
(0.121068 -0.182458 5.28208e-21)
(0.124584 -0.174925 3.50777e-21)
(0.129008 -0.168291 7.92094e-21)
(0.134243 -0.16241 -5.23903e-21)
(0.1402 -0.15715 -5.43735e-21)
(0.146797 -0.15239 8.71611e-22)
(0.153959 -0.148017 1.26341e-20)
(0.161612 -0.143924 -2.11763e-20)
(0.169686 -0.140009 7.5041e-21)
(0.178113 -0.136177 -1.20534e-22)
(0.186822 -0.132332 1.60146e-20)
(0.195742 -0.128386 -6.96057e-21)
(0.204802 -0.124251 -2.38026e-22)
(0.213914 -0.119852 -4.93977e-21)
(0.222987 -0.115119 4.78093e-21)
(0.232003 -0.109957 1.22433e-21)
(0.241071 -0.10421 -6.06936e-21)
(0.24948 -0.098091 2.2497e-20)
(0.209954 -0.425321 -9.98244e-21)
(0.190302 -0.386027 -6.47555e-21)
(0.174054 -0.351909 -1.78923e-20)
(0.160694 -0.322389 -8.90255e-21)
(0.149959 -0.296861 8.57594e-21)
(0.141647 -0.274772 -5.56422e-21)
(0.135543 -0.255649 -1.57222e-21)
(0.131441 -0.239089 -4.18835e-21)
(0.129147 -0.224739 7.18709e-21)
(0.128482 -0.212295 -1.75002e-21)
(0.129281 -0.201493 -2.84134e-21)
(0.131393 -0.192102 -4.05513e-22)
(0.134683 -0.183922 -1.35925e-20)
(0.139024 -0.176773 -1.01937e-21)
(0.144305 -0.170497 3.61212e-21)
(0.150423 -0.164952 -4.83344e-22)
(0.157285 -0.160009 -1.67744e-20)
(0.164806 -0.155548 1.69574e-20)
(0.172906 -0.151458 -1.75388e-20)
(0.181511 -0.147632 7.04417e-21)
(0.190548 -0.143969 1.0206e-21)
(0.199949 -0.140367 4.45888e-22)
(0.209641 -0.13673 -8.46481e-21)
(0.219552 -0.132959 3.05077e-21)
(0.229605 -0.12896 6.94539e-23)
(0.23971 -0.124645 1.12143e-21)
(0.249765 -0.119932 -2.53269e-20)
(0.259749 -0.114708 6.58096e-21)
(0.269776 -0.108785 7.69741e-21)
(0.279065 -0.102408 1.04037e-20)
(0.221033 -0.419715 1.9777e-20)
(0.200598 -0.381156 7.94923e-21)
(0.183896 -0.347775 4.89929e-21)
(0.170348 -0.318984 7.99971e-21)
(0.159645 -0.294165 -1.12765e-21)
(0.151549 -0.272753 6.89707e-21)
(0.145816 -0.254269 1.63044e-20)
(0.142211 -0.238304 -2.02535e-21)
(0.140517 -0.224508 1.0854e-21)
(0.140538 -0.212574 2.282e-20)
(0.142093 -0.202242 -2.89485e-21)
(0.145017 -0.193283 3.49647e-21)
(0.149163 -0.185499 -1.52411e-21)
(0.154396 -0.178715 -5.71486e-22)
(0.160597 -0.172777 2.08501e-20)
(0.167656 -0.167547 8.09323e-22)
(0.175476 -0.162899 2.46013e-20)
(0.183968 -0.158718 -2.96233e-21)
(0.19305 -0.154895 -5.86833e-21)
(0.202646 -0.151325 1.4045e-20)
(0.212684 -0.147906 -1.36376e-20)
(0.223093 -0.144537 1.52644e-20)
(0.233801 -0.141115 8.64305e-21)
(0.244736 -0.137537 -7.49156e-21)
(0.255817 -0.133697 1.13735e-20)
(0.266949 -0.129495 1.33934e-21)
(0.278023 -0.124836 -5.48453e-21)
(0.289014 -0.119583 2.42666e-21)
(0.30004 -0.11351 1.98425e-20)
(0.310245 -0.106895 3.38859e-21)
(0.231991 -0.413868 -3.39352e-21)
(0.210858 -0.376148 -7.8119e-21)
(0.193792 -0.343585 3.54791e-21)
(0.180149 -0.315588 -1.44527e-20)
(0.169573 -0.291527 7.41239e-21)
(0.161789 -0.270826 -1.42406e-20)
(0.156519 -0.253003 -1.01504e-20)
(0.153501 -0.237648 2.8628e-21)
(0.152497 -0.224408 3.40894e-21)
(0.153288 -0.212982 -1.53577e-20)
(0.155679 -0.203109 -7.12617e-21)
(0.159492 -0.194565 3.57996e-21)
(0.164567 -0.187156 -9.83374e-21)
(0.170759 -0.180712 -4.18386e-21)
(0.177942 -0.175084 -3.00334e-21)
(0.186 -0.17014 -3.10044e-21)
(0.19483 -0.165758 -1.37006e-20)
(0.204339 -0.161829 -9.20974e-21)
(0.214444 -0.158247 1.35787e-21)
(0.225067 -0.154912 3.09424e-21)
(0.236137 -0.151725 3.65376e-21)
(0.247582 -0.148582 -1.25581e-20)
(0.259332 -0.145381 4.95469e-21)
(0.271314 -0.142009 -1.05383e-20)
(0.283449 -0.138354 1.04893e-20)
(0.295637 -0.1343 -1.38964e-20)
(0.307762 -0.129738 4.78396e-21)
(0.319795 -0.124499 -7.1607e-21)
(0.331859 -0.118318 -1.07943e-20)
(0.343014 -0.111501 -1.28905e-21)
(0.242826 -0.407785 -7.24542e-21)
(0.221089 -0.371008 -7.0509e-21)
(0.203759 -0.339345 -7.52328e-21)
(0.190123 -0.312202 -6.14828e-21)
(0.179777 -0.288944 1.8993e-20)
(0.172404 -0.268987 2.95386e-21)
(0.167695 -0.251845 9.06687e-21)
(0.165359 -0.237108 1.47126e-20)
(0.165134 -0.224425 7.67863e-21)
(0.166784 -0.213497 -1.01978e-20)
(0.170095 -0.204068 1.79864e-20)
(0.174874 -0.195918 -1.79108e-20)
(0.180951 -0.188858 1.78822e-20)
(0.188172 -0.182723 2.28654e-21)
(0.1964 -0.17737 4.9682e-21)
(0.205513 -0.172674 1.56209e-21)
(0.215404 -0.168519 2.21048e-20)
(0.225975 -0.164803 -3.34156e-21)
(0.237141 -0.161428 3.19834e-21)
(0.248823 -0.158297 1.13968e-20)
(0.260949 -0.155316 -1.29551e-20)
(0.273451 -0.152385 1.08755e-20)
(0.28626 -0.149401 4.99326e-22)
(0.299306 -0.146247 5.27901e-21)
(0.312511 -0.142802 1.00549e-20)
(0.325774 -0.138936 -1.75793e-21)
(0.338974 -0.134521 1.06488e-20)
(0.352078 -0.129356 1.6151e-20)
(0.365213 -0.123123 -1.7517e-20)
(0.377355 -0.116159 -1.26372e-20)
(0.253538 -0.401472 2.18931e-20)
(0.231301 -0.365741 -2.54699e-21)
(0.213816 -0.335055 5.76698e-21)
(0.200297 -0.308828 1.13967e-20)
(0.190287 -0.286415 -3.44016e-20)
(0.183432 -0.267229 3.90096e-21)
(0.179385 -0.250784 -1.46812e-20)
(0.177829 -0.236671 1.55445e-20)
(0.178477 -0.224541 -1.27087e-20)
(0.181075 -0.214099 7.65946e-21)
(0.18539 -0.205094 -2.7993e-20)
(0.191216 -0.197312 3.66058e-22)
(0.198371 -0.190568 -1.06312e-20)
(0.206689 -0.184704 1.60627e-20)
(0.216026 -0.179585 -1.78276e-20)
(0.226253 -0.175091 -1.02606e-21)
(0.237255 -0.171116 -1.59903e-20)
(0.248931 -0.167565 -1.48269e-21)
(0.261193 -0.164346 1.5295e-21)
(0.273961 -0.161375 4.19495e-21)
(0.287164 -0.158562 -2.31964e-20)
(0.300736 -0.155815 -8.28716e-22)
(0.314611 -0.153033 -1.39612e-20)
(0.328724 -0.150099 -3.40313e-21)
(0.343003 -0.146885 -9.26554e-21)
(0.357348 -0.143249 -1.05262e-20)
(0.371636 -0.139041 -1.15043e-20)
(0.385834 -0.134023 1.87425e-20)
(0.400071 -0.127816 5.18434e-21)
(0.413234 -0.120782 -1.21153e-20)
(0.264123 -0.394933 -1.46166e-20)
(0.241505 -0.36035 5.856e-21)
(0.223983 -0.330718 -1.08705e-20)
(0.210697 -0.305461 1.6848e-21)
(0.201138 -0.283933 1.99517e-20)
(0.194908 -0.265543 -1.04449e-20)
(0.191629 -0.249807 -1.19406e-20)
(0.190954 -0.236319 -1.04378e-20)
(0.192572 -0.224735 3.93027e-22)
(0.196208 -0.214764 7.25698e-21)
(0.201613 -0.20616 -5.79782e-21)
(0.208568 -0.198714 -3.11016e-23)
(0.216876 -0.19225 1.94551e-20)
(0.226363 -0.186616 -1.00913e-20)
(0.236873 -0.181682 3.01799e-21)
(0.248271 -0.177337 -9.13847e-21)
(0.260435 -0.173484 3.49676e-21)
(0.27326 -0.170036 8.09834e-21)
(0.286653 -0.166914 9.80184e-21)
(0.300532 -0.164042 -1.0919e-20)
(0.314827 -0.161341 1.60722e-21)
(0.329474 -0.158731 1.01627e-20)
(0.344412 -0.156118 1.84058e-20)
(0.359585 -0.153391 5.23329e-21)
(0.374925 -0.150418 -2.00398e-20)
(0.390344 -0.14705 2.42238e-20)
(0.405718 -0.143116 -1.22723e-20)
(0.421021 -0.138335 -1.52837e-20)
(0.436384 -0.132255 -9.69103e-21)
(0.450603 -0.125255 -1.56188e-20)
(0.274583 -0.388173 8.02211e-21)
(0.25171 -0.354837 -6.92602e-21)
(0.234278 -0.326333 2.56341e-21)
(0.22135 -0.302098 1.56423e-20)
(0.21236 -0.28149 4.52155e-21)
(0.20687 -0.263917 -4.13591e-21)
(0.204467 -0.248899 1.02215e-20)
(0.204774 -0.236034 2.12503e-21)
(0.207459 -0.224984 1.07968e-20)
(0.212225 -0.215465 6.24155e-21)
(0.218808 -0.207236 1.65873e-22)
(0.226973 -0.200095 4.34418e-21)
(0.236511 -0.19387 -1.4442e-21)
(0.247237 -0.188419 2.6352e-21)
(0.258987 -0.183617 7.70594e-21)
(0.271615 -0.179363 -4.47258e-21)
(0.284994 -0.175566 1.14924e-20)
(0.299012 -0.172151 1.22452e-20)
(0.31357 -0.169049 -1.45283e-20)
(0.328586 -0.166197 1.51101e-20)
(0.343986 -0.163533 3.39026e-20)
(0.359708 -0.160988 -2.25151e-20)
(0.3757 -0.158486 2.36054e-20)
(0.391909 -0.155926 -1.68367e-20)
(0.408284 -0.153186 -2.52061e-21)
(0.424747 -0.150111 1.94999e-20)
(0.441188 -0.146516 -3.86399e-21)
(0.457588 -0.142076 1.55498e-20)
(0.474093 -0.136252 1.59922e-20)
(0.489401 -0.129425 -3.54796e-20)
(0.284915 -0.381195 -7.85416e-21)
(0.261928 -0.349203 3.7566e-21)
(0.244723 -0.321896 1.78859e-21)
(0.232282 -0.298732 -1.85644e-20)
(0.223984 -0.279074 -1.03156e-20)
(0.219351 -0.262335 8.15407e-21)
(0.217933 -0.24804 -2.39317e-20)
(0.219326 -0.235793 3.03364e-20)
(0.223176 -0.225264 -1.77817e-20)
(0.229164 -0.216176 2.22067e-21)
(0.237011 -0.208293 -3.36994e-21)
(0.246467 -0.201421 -1.19478e-20)
(0.257311 -0.195396 2.53458e-20)
(0.269348 -0.190078 1.03441e-20)
(0.282403 -0.185354 -1.06779e-20)
(0.296323 -0.181126 2.67863e-22)
(0.310971 -0.177315 6.58918e-21)
(0.326229 -0.173853 -1.49968e-20)
(0.341992 -0.170683 3.13352e-21)
(0.358172 -0.167757 1.11237e-20)
(0.374693 -0.165028 -4.69238e-21)
(0.391494 -0.162449 8.41987e-21)
(0.408522 -0.159963 -1.68118e-20)
(0.425738 -0.157494 2.51325e-20)
(0.443103 -0.154938 6.34726e-21)
(0.46056 -0.152153 -1.67039e-20)
(0.478018 -0.148948 -1.52066e-20)
(0.495486 -0.144958 -3.21384e-22)
(0.513134 -0.139545 2.15375e-20)
(0.529564 -0.133069 -6.32977e-21)
(0.295121 -0.374003 -2.2264e-21)
(0.272172 -0.343449 -1.74025e-20)
(0.255338 -0.317403 2.1323e-20)
(0.243519 -0.295352 1.52994e-20)
(0.23604 -0.27667 1.63125e-20)
(0.232381 -0.260777 5.04133e-21)
(0.232058 -0.247206 7.56639e-21)
(0.234642 -0.235571 4.09469e-21)
(0.239752 -0.225548 -1.69888e-20)
(0.247054 -0.216866 3.20056e-20)
(0.256249 -0.209301 -2.76582e-20)
(0.267076 -0.202664 -2.23825e-21)
(0.279302 -0.196795 4.11579e-21)
(0.292719 -0.191564 -2.06638e-20)
(0.307146 -0.186862 1.84767e-20)
(0.322419 -0.182598 -5.64493e-21)
(0.338394 -0.178699 -1.53938e-20)
(0.354944 -0.175107 6.38267e-21)
(0.371958 -0.171774 -1.2254e-20)
(0.38934 -0.168664 -1.13097e-20)
(0.407008 -0.165748 -1.26986e-20)
(0.424896 -0.163 2.95713e-21)
(0.442954 -0.160393 1.9819e-21)
(0.461145 -0.157882 -3.39908e-20)
(0.479447 -0.1554 -1.3622e-20)
(0.497825 -0.15284 8.54982e-21)
(0.516222 -0.150032 1.1217e-20)
(0.534693 -0.146585 -1.57803e-20)
(0.553463 -0.141758 -6.28447e-21)
(0.571042 -0.135857 1.12289e-21)
(0.305201 -0.366598 -1.65183e-21)
(0.282454 -0.337571 1.12489e-20)
(0.266144 -0.312843 -3.25728e-21)
(0.255086 -0.291942 -4.09435e-21)
(0.248553 -0.274258 -2.55327e-20)
(0.245987 -0.259221 -6.14983e-21)
(0.24687 -0.246372 1.17355e-20)
(0.250747 -0.235337 -8.25892e-21)
(0.257213 -0.225802 -1.02599e-21)
(0.265915 -0.217505 -1.69893e-21)
(0.276542 -0.210229 1.05752e-20)
(0.288816 -0.203791 -1.7051e-20)
(0.302494 -0.19804 -1.20419e-20)
(0.317361 -0.192851 1.47613e-20)
(0.333223 -0.18812 -8.82806e-21)
(0.349911 -0.183762 -1.11971e-20)
(0.367272 -0.179707 2.44516e-20)
(0.385172 -0.175904 -3.91595e-21)
(0.403491 -0.172311 1.5793e-20)
(0.422125 -0.168902 -1.46059e-20)
(0.440984 -0.165662 -1.24534e-20)
(0.459993 -0.162585 1.11105e-20)
(0.479096 -0.15967 -1.1339e-21)
(0.498255 -0.156916 -8.82936e-21)
(0.517453 -0.154307 8.00977e-21)
(0.536679 -0.151802 -2.58257e-20)
(0.555913 -0.149295 1.58557e-20)
(0.575284 -0.146427 -2.80938e-22)
(0.59513 -0.142366 -1.74941e-20)
(0.613895 -0.137325 2.85167e-20)
(0.315163 -0.358985 8.17387e-21)
(0.292794 -0.331565 -2.19945e-20)
(0.277163 -0.308204 -2.07697e-21)
(0.267006 -0.288483 1.15736e-20)
(0.261547 -0.271814 -3.18881e-21)
(0.260191 -0.257637 -9.476e-21)
(0.26239 -0.245507 4.58142e-21)
(0.267658 -0.23506 5.65358e-21)
(0.275573 -0.225994 5.27934e-22)
(0.285761 -0.218057 7.56538e-21)
(0.297895 -0.21104 2.54502e-20)
(0.311688 -0.20477 -8.95061e-21)
(0.326886 -0.199102 2.64007e-21)
(0.343263 -0.193916 -7.05256e-21)
(0.360621 -0.189113 2.69509e-20)
(0.378782 -0.184611 -5.12829e-21)
(0.397588 -0.180345 1.74598e-20)
(0.416898 -0.176263 -7.1134e-21)
(0.436587 -0.172328 7.88988e-21)
(0.45654 -0.168515 1.23958e-20)
(0.47666 -0.164816 2.27666e-21)
(0.49686 -0.161235 8.94103e-21)
(0.51707 -0.157793 -7.67649e-21)
(0.537242 -0.154525 2.16679e-20)
(0.557353 -0.151473 -9.08292e-21)
(0.577395 -0.148689 3.42379e-20)
(0.597378 -0.146199 -9.93459e-21)
(0.617517 -0.143777 7.02876e-21)
(0.638364 -0.140578 -1.35564e-20)
(0.658388 -0.136683 2.71355e-20)
(0.32504 -0.35117 -1.77039e-20)
(0.303221 -0.325419 6.11251e-22)
(0.288416 -0.303463 -1.2504e-20)
(0.279295 -0.284949 2.37606e-21)
(0.275038 -0.269308 7.15634e-22)
(0.27501 -0.255994 -1.27357e-20)
(0.27863 -0.244575 -2.504e-20)
(0.285389 -0.234701 1.30199e-20)
(0.294839 -0.226084 -1.90152e-20)
(0.306591 -0.218482 -1.06688e-20)
(0.320305 -0.211698 -6.42937e-21)
(0.335681 -0.205567 -5.49527e-21)
(0.352456 -0.199951 2.94289e-22)
(0.370397 -0.194736 -2.05699e-20)
(0.389301 -0.189829 1.45799e-20)
(0.408986 -0.185149 -2.41558e-20)
(0.429289 -0.180633 -6.46592e-21)
(0.450068 -0.176229 7.1773e-21)
(0.471192 -0.171897 9.37808e-21)
(0.492545 -0.167609 9.80659e-21)
(0.514022 -0.163348 7.81318e-21)
(0.535529 -0.159116 -1.99869e-20)
(0.55698 -0.154931 2.07796e-20)
(0.578306 -0.150837 -2.1988e-21)