/*--------------------------------*- C++ -*----------------------------------*\
| =========                 |                                                 |
| \\      /  F ield         | OpenFOAM: The Open Source CFD Toolbox           |
|  \\    /   O peration     | Version:  v1912                                 |
|   \\  /    A nd           | Website:  www.openfoam.com                      |
|    \\/     M anipulation  |                                                 |
\*---------------------------------------------------------------------------*/
FoamFile
{
    version     2.0;
    format      ascii;
    class       volVectorField;
    location    "42.5";
    object      U;
}
// * * * * * * * * * * * * * * * * * * * * * * * * * * * * * * * * * * * * * //

dimensions      [0 1 -1 0 0 0 0];


internalField   nonuniform List<vector> 
9600
(
(0.456561 -9.36219 -1.54119e-19)
(0.159728 -8.63334 0)
(0.241882 -8.16056 -9.04946e-20)
(0.320569 -7.84132 0)
(0.387816 -7.60601 0)
(0.45615 -7.41114 -3.18374e-20)
(0.521594 -7.23269 -5.49325e-22)
(0.581013 -7.05842 2.66118e-20)
(0.633633 -6.88301 0)
(0.679486 -6.70502 -4.51206e-20)
(0.718961 -6.52508 0)
(0.752685 -6.34472 -1.82969e-21)
(0.781393 -6.16575 -2.60681e-21)
(0.805842 -5.98986 -3.15263e-20)
(0.826754 -5.81845 2.65871e-20)
(0.844784 -5.65248 -2.6121e-20)
(0.860482 -5.49242 2.32564e-20)
(0.874393 -5.3382 0)
(0.887299 -5.18905 -1.84987e-20)
(0.898928 -5.04345 2.02785e-20)
(0.824515 -9.35178 -3.08327e-19)
(0.502221 -8.66139 1.17589e-20)
(0.567577 -8.20481 1.86409e-19)
(0.634759 -7.89506 -1.58877e-19)
(0.692993 -7.66435 1.56683e-19)
(0.753282 -7.46998 0)
(0.810848 -7.28922 6.07239e-20)
(0.862216 -7.11096 -6.05838e-20)
(0.906541 -6.93066 -1.05082e-19)
(0.943911 -6.74748 1.32904e-19)
(0.974827 -6.56244 -8.62891e-20)
(1.00004 -6.37733 -3.52268e-20)
(1.02039 -6.1941 7.11063e-20)
(1.03673 -6.01453 0)
(1.04985 -5.84 0)
(1.06043 -5.6715 9.96641e-20)
(1.06903 -5.50945 -1.68976e-19)
(1.07623 -5.35373 0)
(1.08287 -5.20344 0)
(1.08843 -5.05697 -7.81019e-20)
(1.19281 -9.32783 6.37043e-19)
(0.846982 -8.67658 0)
(0.896822 -8.23638 -3.77173e-19)
(0.953237 -7.93623 -3.41859e-19)
(1.00276 -7.71009 0)
(1.05498 -7.51617 5.46297e-19)
(1.10444 -7.33313 -5.15744e-19)
(1.14741 -7.15097 1.01094e-19)
(1.18303 -6.96599 -2.25056e-19)
(1.21151 -6.7779 -3.74266e-19)
(1.23347 -6.5881 5.10901e-19)
(1.24981 -6.39863 -3.15879e-19)
(1.2615 -6.21157 -1.41565e-19)
(1.26947 -6.02872 0)
(1.27458 -5.85152 5.52523e-21)
(1.27754 -5.68089 1.05054e-19)
(1.27893 -5.51727 4.54113e-20)
(1.27932 -5.36044 0)
(1.27964 -5.2094 8.23196e-20)
(1.27903 -5.06248 8.43695e-20)
(1.56034 -9.28997 -8.61828e-19)
(1.19342 -8.67863 -4.03843e-19)
(1.22906 -8.25507 3.9171e-19)
(1.27544 -7.96452 6.7314e-19)
(1.31654 -7.74287 -3.26709e-19)
(1.36066 -7.54935 5.79663e-21)
(1.40176 -7.36406 2.53682e-19)
(1.43597 -7.17815 2.29771e-19)
(1.4625 -6.98872 4.20815e-19)
(1.48167 -6.79604 0)
(1.4943 -6.60188 1.62107e-19)
(1.50144 -6.40848 -1.72042e-19)
(1.50418 -6.21802 1.03494e-20)
(1.50356 -6.03236 2.71187e-19)
(1.50047 -5.85292 2.32481e-19)
(1.49569 -5.6806 -3.28181e-19)
(1.48976 -5.51581 1.08079e-19)
(1.4833 -5.35827 -1.75978e-19)
(1.47728 -5.20688 1.75147e-19)
(1.47043 -5.05993 -8.44132e-20)
(1.92679 -9.23815 4.34639e-19)
(1.54124 -8.66738 0)
(1.56389 -8.2606 3.84671e-19)
(1.60087 -7.97958 0)
(1.63377 -7.76233 0)
(1.6697 -7.56918 -3.00269e-19)
(1.70219 -7.3817 -5.37221e-19)
(1.72728 -7.19221 -4.55482e-19)
(1.74431 -6.99861 1.84474e-20)
(1.7538 -6.8017 -1.9682e-19)
(1.75675 -6.6036 0)
(1.75439 -6.40672 -1.62517e-19)
(1.74793 -6.21335 -2.92755e-19)
(1.7385 -6.02535 2.57445e-19)
(1.72708 -5.84413 -7.31637e-19)
(1.71443 -5.67056 1.18404e-19)
(1.70112 -5.50502 9.38444e-20)
(1.68778 -5.34718 -1.93513e-19)
(1.67543 -5.19582 -8.45514e-20)
(1.6623 -5.04928 2.52127e-19)
(2.29163 -9.17227 4.19396e-19)
(1.88996 -8.6426 4.15911e-19)
(1.90079 -8.25269 0)
(1.92895 -7.98109 0)
(1.95386 -7.76814 -6.24211e-19)
(1.9815 -7.57533 3.41169e-19)
(2.00508 -7.38575 8.21008e-19)
(2.0207 -7.19291 0)
(2.02784 -6.99545 2.16954e-19)
(2.02727 -6.79472 1.96821e-19)
(2.02022 -6.59313 -3.47716e-19)
(2.00807 -6.39327 5.04243e-19)
(1.9922 -6.19748 1.47963e-19)
(1.9738 -6.00763 0)
(1.9539 -5.8251 1.23169e-19)
(1.9333 -5.65073 5.52886e-19)
(1.91257 -5.48486 -3.2945e-19)
(1.89235 -5.32712 3.70183e-19)
(1.8737 -5.17619 -7.03926e-19)
(1.85429 -5.03051 8.13771e-19)
(2.65433 -9.09231 4.26538e-19)
(2.23905 -8.60411 -2.25857e-18)
(2.23922 -8.23106 0)
(2.25911 -7.96876 0)
(2.27616 -7.75999 0)
(2.29539 -7.56751 -6.05518e-19)
(2.30978 -7.37597 0)
(2.31555 -7.18002 -9.70514e-19)
(2.31244 -6.97907 8.95195e-19)
(2.30147 -6.77496 -8.31414e-19)
(2.2841 -6.57037 0)
(2.26193 -6.36805 0)
(2.23644 -6.17036 0)
(2.20893 -5.97917 -2.81294e-19)
(2.18046 -5.79581 0)
(2.15186 -5.6211 0)
(2.12368 -5.45533 -4.12855e-19)
(2.09659 -5.29809 4.05643e-19)
(2.0717 -5.14797 0)
(2.04605 -5.00361 0)
(3.01433 -8.99827 -1.38763e-18)
(2.58798 -8.55172 8.99172e-19)
(2.5786 -8.19548 0)
(2.59073 -7.94231 0)
(2.60005 -7.73761 0)
(2.6107 -7.54548 5.75934e-19)
(2.6156 -7.35214 -5.7768e-19)
(2.61117 -7.15337 -8.88514e-21)
(2.59744 -6.94934 -8.96317e-19)
(2.57574 -6.74232 8.39233e-19)
(2.5478 -6.53526 -3.78598e-19)
(2.51538 -6.33101 6.58321e-19)
(2.48011 -6.13197 -4.63978e-20)
(2.44336 -5.93996 -5.95541e-19)
(2.40626 -5.75626 -5.01928e-19)
(2.36961 -5.58166 4.93129e-19)
(2.33399 -5.41641 0)
(2.30008 -5.26008 0)
(2.26902 -5.11117 3.56828e-19)
(2.23718 -4.96858 -3.92688e-19)
(3.37109 -8.89017 9.27445e-19)
(2.93618 -8.4853 8.83378e-19)
(2.91833 -8.14573 -1.67437e-18)
(2.92317 -7.9015 7.9091e-19)
(2.92484 -7.70077 0)
(2.92674 -7.50903 6.16283e-19)
(2.92184 -7.31408 -5.4101e-19)
(2.90686 -7.11283 1.52893e-18)
(2.88217 -6.90614 -2.36881e-20)
(2.84945 -6.69672 0)
(2.81068 -6.48775 7.63875e-19)
(2.76783 -6.28214 0)
(2.72265 -6.0823 0)
(2.67659 -5.89 -2.72437e-19)
(2.63079 -5.70647 5.49479e-19)
(2.58609 -5.53243 0)
(2.54304 -5.36815 4.30985e-19)
(2.50236 -5.21312 1.79415e-19)
(2.46523 -5.0658 -3.89281e-19)
(2.42729 -4.92546 3.77995e-19)
(3.72405 -8.76809 -9.55239e-19)
(3.28305 -8.40474 8.97781e-19)
(3.2578 -8.08163 -2.55688e-18)
(3.25577 -7.84613 8.04024e-19)
(3.24983 -7.64926 0)
(3.24281 -7.45799 -1.24389e-18)
(3.2278 -7.26166 5.97551e-19)
(3.20193 -7.05829 0)
(3.16597 -6.84943 -4.74404e-19)
(3.12195 -6.63815 -8.22819e-19)
(3.07214 -6.42782 -7.16974e-19)
(3.01869 -6.22144 5.34355e-20)
(2.9635 -6.02137 6.70578e-19)
(2.90806 -5.82933 2.72213e-19)
(2.85355 -5.64647 -3.79322e-20)
(2.8008 -5.47346 -5.12606e-19)
(2.75034 -5.31056 -2.29271e-19)
(2.70297 -5.15724 -2.06698e-19)
(2.65987 -5.0119 5.51383e-19)
(2.61596 -4.87427 -8.21641e-19)
(4.07264 -8.6321 9.55241e-19)
(3.62799 -8.30997 -4.66444e-20)
(3.59636 -8.00303 8.219e-19)
(3.58786 -7.77602 0)
(3.57434 -7.58292 -6.80448e-19)
(3.55817 -7.39221 1.30749e-18)
(3.53276 -7.19477 -1.11761e-18)
(3.49567 -6.9897 1.09981e-18)
(3.44814 -6.77916 -4.45626e-19)
(3.39258 -6.56659 9.04627e-19)
(3.33154 -6.35551 3.91749e-19)
(3.26739 -6.14895 0)
(3.20209 -5.94923 0)
(3.13724 -5.75799 -2.82258e-19)
(3.07401 -5.5763 3.83498e-20)
(3.01323 -5.4048 1.00945e-18)
(2.95541 -5.2437 -2.49741e-19)
(2.90141 -5.09247 8.24838e-19)
(2.85245 -4.94949 1.44357e-19)
(2.80272 -4.81505 -8.39169e-19)
(4.41631 -8.48231 -2.93927e-18)
(3.97042 -8.20096 -9.86631e-19)
(3.93336 -7.90984 -2.63091e-18)
(3.91874 -7.69105 -1.60048e-18)
(3.89763 -7.50165 -7.59156e-19)
(3.87212 -7.31161 -7.41974e-19)
(3.836 -7.11337 -2.42206e-18)
(3.78739 -6.90702 -4.90594e-20)
(3.72802 -6.69534 -1.94616e-18)
(3.66071 -6.48206 3.02228e-20)
(3.58829 -6.27084 -8.08007e-19)
(3.51332 -6.06471 -7.36281e-19)
(3.43788 -5.86592 6.72119e-19)
(3.3636 -5.67604 -6.14661e-19)
(3.29166 -5.49604 -5.63127e-19)
(3.22287 -5.32649 -5.1682e-19)
(3.15775 -5.16761 -1.38769e-18)
(3.09718 -5.01887 4.93705e-19)
(3.04248 -4.87862 1.19811e-18)
(2.98709 -4.74784 -1.27516e-18)
(4.75451 -8.31887 3.95352e-18)
(4.30973 -8.07771 4.85681e-18)
(4.26816 -7.80198 8.34302e-19)
(4.24771 -7.59113 3.99739e-18)
(4.21898 -7.40535 -7.83472e-19)
(4.1839 -7.21615 3.91477e-18)
(4.13679 -7.01742 1.14516e-18)
(4.07637 -6.81027 3.21484e-18)
(4.00493 -6.59801 -9.82646e-19)
(3.92568 -6.38463 2.7207e-18)
(3.84176 -6.17389 1.62753e-18)
(3.75591 -5.96879 1.48321e-18)
(3.67031 -5.77153 -2.00805e-18)
(3.5866 -5.58356 1.88107e-18)
(3.50597 -5.40575 1.13494e-18)
(3.42921 -5.23861 1.04183e-18)
(3.35682 -5.08237 9.57986e-19)
(3.28977 -4.93648 7.36075e-21)
(3.22943 -4.79933 8.13199e-19)
(3.1686 -4.67268 8.463e-19)
(5.08672 -8.14193 -2.93588e-18)
(4.64532 -7.94024 1.082e-18)
(4.6001 -7.6794 2.67665e-18)
(4.57408 -7.4762 -3.26098e-18)
(4.53766 -7.294 7.53535e-19)
(4.49279 -7.1058 -2.61909e-18)
(4.43441 -6.90696 1.28365e-18)
(4.36193 -6.69951 -2.15106e-18)
(4.2782 -6.48723 4.9022e-20)
(4.18687 -6.27437 1.19393e-20)
(4.09136 -6.06473 -1.65e-18)
(3.99459 -5.86129 -7.46928e-19)
(3.89881 -5.66613 1.37342e-18)
(3.80569 -5.4806 8.754e-21)
(3.71641 -5.30548 -3.71759e-20)
(3.63171 -5.14122 -1.08739e-18)
(3.55209 -4.98803 -4.82875e-19)
(3.4786 -4.84537 -2.71333e-20)
(3.41274 -4.71169 -8.47528e-19)
(3.34669 -4.58969 -4.27395e-19)
(5.41243 -7.95167 0)
(4.9766 -7.78861 -1.99924e-18)
(4.92852 -7.54212 2.37242e-20)
(4.89713 -7.34626 3.25646e-18)
(4.85294 -7.16759 1.36298e-18)
(4.79806 -6.98061 -1.41876e-18)
(4.72815 -6.78206 -1.22221e-18)
(4.64338 -6.57482 0)
(4.54719 -6.36312 -9.72856e-19)
(4.44366 -6.1514 9.28466e-19)
(4.33651 -5.94348 -3.90581e-20)
(4.22881 -5.74228 0)
(4.12287 -5.5498 -6.91409e-19)
(4.02037 -5.36724 5.98883e-19)
(3.92245 -5.1953 5.00319e-19)
(3.82983 -5.03434 -6.03998e-19)
(3.74297 -4.88459 -5.2398e-19)
(3.66304 -4.74551 9.09901e-19)
(3.59166 -4.61567 -8.39722e-19)
(3.5205 -4.49894 4.41994e-19)
(5.73118 -7.74829 3.03325e-18)
(5.30301 -7.62289 -2.05906e-18)
(5.25275 -7.39014 -1.75725e-18)
(5.21616 -7.20132 8.18149e-19)
(5.16409 -7.02618 -1.58728e-18)
(5.09898 -6.84066 0)
(5.01731 -6.64281 0)
(4.92005 -6.43632 0)
(4.81126 -6.22582 -4.44601e-20)
(4.69547 -6.01585 -1.86334e-18)
(4.57666 -5.81027 8.80026e-19)
(4.45805 -5.61191 7.44266e-19)
(4.34199 -5.42263 6.29807e-19)
(4.23016 -5.24355 -2.58448e-18)
(4.12364 -5.07523 1.22526e-18)
(4.02308 -4.91799 0)
(3.92895 -4.77202 -3.04148e-20)
(3.84246 -4.63684 -1.41127e-18)
(3.76538 -4.51121 -5.69384e-21)
(3.68908 -4.40007 -4.42482e-19)
(6.0426 -7.53204 -2.06318e-18)
(5.62399 -7.44322 -1.08556e-18)
(5.57211 -7.22354 8.17943e-19)
(5.53043 -7.04145 -1.43912e-19)
(5.47038 -6.86985 -4.62706e-18)
(5.39482 -6.68606 4.18753e-18)
(5.30118 -6.48937 -4.88039e-20)
(5.19127 -6.28419 1.14692e-18)
(5.06979 -6.07548 1.02903e-18)
(4.94171 -5.8679 9.44875e-19)
(4.81128 -5.66525 8.59832e-19)
(4.68181 -5.47028 1.53663e-18)
(4.55571 -5.28473 -7.39603e-19)
(4.43462 -5.1096 1.91712e-18)
(4.31955 -4.94535 -1.23938e-18)
(4.2111 -4.79222 -5.12701e-19)
(4.10967 -4.65041 2.05932e-18)
(4.01652 -4.51947 1.37583e-18)
(3.93361 -4.39818 -2.79461e-20)
(3.85239 -4.29241 0)
(6.34667 -7.30343 -1.04903e-18)
(5.93914 -7.24978 2.07455e-18)
(5.88595 -7.04237 1.81622e-18)
(5.83922 -6.86671 -1.45888e-19)
(5.77106 -6.6987 -1.5699e-18)
(5.68485 -6.51695 7.06593e-20)
(5.57906 -6.3219 1.3164e-20)
(5.45639 -6.11862 1.17293e-20)
(5.32219 -5.91233 0)
(5.18185 -5.70774 9.2415e-19)
(5.03985 -5.5086 -1.75897e-18)
(4.89961 -5.31753 -7.5271e-19)
(4.76355 -5.13618 7.47245e-19)
(4.63324 -4.96541 -6.55657e-19)
(4.50966 -4.80562 6.07241e-19)
(4.39329 -4.65704 -5.52802e-19)
(4.28456 -4.51985 4.89685e-21)
(4.18483 -4.39345 -4.69631e-19)
(4.09637 -4.27654 -4.33829e-19)
(4.01099 -4.17681 -4.34124e-19)
(6.64374 -7.06292 0)
(6.24822 -7.04249 -1.01148e-18)
(6.1936 -6.84656 9.99872e-19)
(6.14177 -6.67717 1.74445e-18)
(6.06538 -6.51291 -1.57857e-18)
(5.96836 -6.33359 1.36368e-18)
(5.85028 -6.14071 -2.62204e-18)
(5.7148 -5.93993 -2.32843e-18)
(5.56791 -5.73667 -1.01577e-18)
(5.41539 -5.53565 4.44075e-20)
(5.26196 -5.34053 -8.41117e-19)
(5.11109 -5.15382 3.49105e-20)
(4.96516 -4.97701 0)
(4.82565 -4.81088 -1.28612e-18)
(4.69338 -4.65578 6.56349e-19)
(4.56875 -4.51195 0)
(4.45222 -4.37951 -5.14019e-19)
(4.34536 -4.25759 -9.24147e-19)
(4.25044 -4.14583 9.08067e-19)
(4.15987 -4.05685 4.48252e-19)
(6.9334 -6.80973 0)
(6.55059 -6.82065 0)
(6.49436 -6.63604 -1.85475e-18)
(6.43732 -6.47312 -1.59476e-18)
(6.35264 -6.31287 3.2368e-18)
(6.24471 -6.13639 0)
(6.11428 -5.94622 0)
(5.96599 -5.74854 1.16977e-18)
(5.8065 -5.54892 0)
(5.642 -5.35204 0)
(5.47736 -5.16145 0)
(5.31611 -4.97946 0)
(5.16055 -4.80745 0)
(5.012 -4.64604 0)
(4.87102 -4.4955 0)
(4.73774 -4.356 0)
(4.6124 -4.22739 0)
(4.4961 -4.10902 0)
(4.38895 -4.00395 0)
(4.28481 -3.92947 0)
(10.043 0.0877369 1.4727e-19)
(10.0226 -0.307634 2.86534e-19)
(9.98675 -0.700329 -2.9429e-19)
(9.93624 -1.0902 5.86757e-19)
(9.87073 -1.47692 -5.86756e-19)
(9.7901 -1.85998 -5.54463e-19)
(9.69445 -2.23883 -5.52916e-19)
(9.58399 -2.61293 1.74136e-18)
(9.45895 -2.98174 -1.16018e-18)
(9.3196 -3.34469 1.15046e-18)
(9.16622 -3.70125 -1.15046e-18)
(8.99911 -4.05087 1.14197e-18)
(8.8186 -4.39304 -2.26462e-18)
(8.62504 -4.72726 3.33495e-18)
(8.41881 -5.05305 0)
(8.20029 -5.36994 -3.27649e-18)
(7.96987 -5.67753 1.6331e-20)
(7.72808 -5.97544 3.30198e-18)
(7.47502 -6.26354 0)
(7.21236 -6.54112 0)
(10.1193 -0.210728 0)
(10.0781 -0.606797 -1.50401e-20)
(10.0201 -0.999068 0)
(9.94593 -1.3872 5.61459e-19)
(9.85593 -1.77077 5.84698e-19)
(9.75027 -2.14917 -1.69228e-18)
(9.62923 -2.52177 2.94625e-18)
(9.49318 -2.88795 -1.16306e-18)
(9.34248 -3.24711 -1.10865e-18)
(9.17752 -3.59866 -1.10412e-18)
(8.99873 -3.94203 4.45679e-20)
(8.80653 -4.27668 1.13128e-18)
(8.6014 -4.60208 -5.62392e-18)
(8.38381 -4.91774 -1.17941e-18)
(8.15426 -5.2232 2.24724e-18)
(7.91326 -5.51801 2.24425e-18)
(7.66127 -5.80181 1.14023e-18)
(7.39889 -6.07424 -2.19866e-18)
(7.12621 -6.33506 1.04119e-18)
(6.84417 -6.58392 0)
(10.0706 -0.14925 1.32605e-19)
(10.0328 -0.540867 -2.71556e-19)
(9.97765 -0.92931 7.84187e-19)
(9.90549 -1.31388 -5.55566e-19)
(9.81673 -1.69394 -5.29709e-19)
(9.71172 -2.06876 5.53055e-19)
(9.59085 -2.43763 0)
(9.45451 -2.79984 0)
(9.30313 -3.15473 2.09995e-18)
(9.13714 -3.50167 3.13275e-18)
(8.95703 -3.84002 -9.90807e-19)
(8.76329 -4.16921 3.09778e-18)
(8.55644 -4.48865 -9.86638e-19)
(8.33702 -4.79784 -3.01728e-18)
(8.10558 -5.09625 1.36067e-20)
(7.86269 -5.38342 1.93676e-18)
(7.60888 -5.65892 -8.74179e-19)
(7.34474 -5.92234 -1.90543e-18)
(7.07061 -6.1733 -1.02924e-18)
(6.78724 -6.41131 1.87265e-18)
(9.90421 -0.112549 0)
(9.8732 -0.494924 2.28935e-19)
(9.82493 -0.874955 2.27993e-19)
(9.75957 -1.25174 -9.36687e-19)
(9.67745 -1.62449 0)
(9.57891 -1.99241 0)
(9.46431 -2.35475 0)
(9.33403 -2.71076 0)
(9.18848 -3.05972 -9.91227e-19)
(9.02811 -3.40094 -9.87464e-19)
(8.85339 -3.73376 0)
(8.66484 -4.05753 1.86695e-18)
(8.46297 -4.37166 -4.61588e-18)
(8.24834 -4.67555 3.7116e-18)
(8.02152 -4.96866 -3.59749e-18)
(7.7831 -5.25047 -8.72935e-19)
(7.53365 -5.52048 1.56436e-19)
(7.27379 -5.77823 1.54842e-19)
(7.00403 -6.02325 -1.77788e-18)
(6.72511 -6.25507 -7.08844e-20)
(9.65099 -0.0990714 0)
(9.6274 -0.469213 -2.25781e-19)
(9.58696 -0.837665 0)
(9.52976 -1.20352 4.51687e-19)
(9.45602 -1.56596 4.30571e-19)
(9.36603 -1.92416 3.93634e-19)
(9.26011 -2.27737 0)
(9.13859 -2.6248 0)
(9.00184 -2.96573 0)
(8.85028 -3.29944 0)
(8.68436 -3.62522 8.13147e-19)
(8.50455 -3.94242 8.7608e-19)
(8.31137 -4.25038 8.71088e-19)
(8.10535 -4.54849 -8.84406e-19)
(7.88705 -4.83617 -1.52203e-18)
(7.65706 -5.11285 1.72778e-18)
(7.41595 -5.37798 3.34982e-18)
(7.16436 -5.63106 1.62935e-18)
(6.90285 -5.87158 0)
(6.63214 -6.09904 -1.5356e-18)
(9.34389 -0.0902679 4.64044e-20)
(9.32726 -0.446233 0)
(9.29442 -0.801079 -7.60454e-19)
(9.24537 -1.15395 1.83211e-23)
(9.18026 -1.50403 1.61697e-20)
(9.09934 -1.85053 -6.8517e-20)
(9.00286 -2.19266 0)
(8.89111 -2.52968 3.09258e-20)
(8.76442 -2.86084 -7.71996e-19)
(8.62316 -3.18542 1.5041e-18)
(8.46772 -3.50272 -1.56841e-18)
(8.29855 -3.81205 8.56866e-19)
(8.11612 -4.11277 -4.49137e-18)
(7.92094 -4.40422 2.96233e-18)
(7.71353 -4.68582 1.57032e-18)
(7.49446 -4.95695 0)
(7.26429 -5.21706 -2.89849e-18)
(7.02364 -5.46558 -6.15224e-20)
(6.77308 -5.702 -2.85443e-18)
(6.51327 -5.92578 2.96685e-18)
(9.01149 -0.0854511 4.17316e-20)
(9.0005 -0.426417 -8.74234e-20)
(8.97403 -0.766733 7.16795e-19)
(8.93205 -1.1056 -1.40702e-20)
(8.87467 -1.44223 7.16648e-19)
(8.80206 -1.77585 -1.08243e-18)
(8.71444 -2.10571 0)
(8.61205 -2.43108 7.297e-19)
(8.49519 -2.75124 6.68113e-19)
(8.36415 -3.06546 -7.25614e-19)
(8.21932 -3.37308 1.32756e-18)
(8.06108 -3.67341 2.81451e-18)
(7.88986 -3.96579 -1.3089e-18)
(7.70613 -4.2496 -1.41879e-18)
(7.51038 -4.52421 1.36059e-18)
(7.30314 -4.78903 0)
(7.08495 -5.04347 6.49267e-20)
(6.85639 -5.28695 9.80352e-21)
(6.61804 -5.51894 2.70439e-18)
(6.37049 -5.73887 1.25728e-18)
(8.67503 -0.0842614 0)
(8.6681 -0.410274 6.25615e-21)
(8.64645 -0.735982 -1.45853e-19)
(8.61006 -1.06064 -6.47753e-19)
(8.55897 -1.38349 6.08869e-19)
(8.49334 -1.70382 0)
(8.41335 -2.0209 1.23927e-18)
(8.31919 -2.33402 -1.36176e-21)
(8.21111 -2.64251 -1.89274e-18)
(8.0894 -2.94567 0)
(7.95436 -3.24284 -1.30643e-18)
(7.80636 -3.53337 4.59967e-20)
(7.64579 -3.81662 -3.67235e-18)
(7.47308 -4.09197 6.47078e-21)
(7.28868 -4.35882 1.23085e-18)
(7.0931 -4.61655 0)
(6.88684 -4.8646 -1.20809e-18)
(6.67044 -5.10238 8.69574e-21)
(6.44447 -5.32934 1.1994e-18)
(6.20947 -5.5449 -1.23725e-18)
(8.34836 -0.085333 0)
(8.34404 -0.396974 1.49543e-19)
(8.32578 -0.708542 3.1027e-19)
(8.2935 -1.01934 -5.74298e-19)
(8.24727 -1.32866 -2.47217e-20)
(8.1872 -1.63582 -2.87017e-19)
(8.11343 -1.94014 -1.14896e-18)
(8.02614 -2.24096 5.71218e-19)
(7.92555 -2.53761 2.38127e-20)
(7.81189 -2.82945 5.678e-19)
(7.68547 -3.11585 5.22696e-19)
(7.54659 -3.3962 2.26368e-18)
(7.39562 -3.66986 1.13229e-18)
(7.23297 -3.93627 2.23642e-18)
(7.05904 -4.19481 -1.11528e-18)
(6.87432 -4.44492 3.86641e-20)
(6.67929 -4.68602 -1.10211e-18)
(6.47447 -4.91753 0)
(6.26038 -5.1389 1.04177e-18)
(6.03755 -5.34953 0)
(8.03939 -0.0875413 6.51067e-20)
(8.03653 -0.385682 -1.90678e-19)
(8.02044 -0.68389 5.22998e-19)
(7.99105 -0.981512 -2.60913e-19)
(7.94841 -1.27789 1.89813e-20)
(7.8926 -1.57238 -2.60759e-19)
(7.82376 -1.86434 5.42109e-19)
(7.74203 -2.15314 -5.18821e-19)
(7.64762 -2.43817 5.18818e-19)
(7.54074 -2.71882 9.95055e-19)
(7.42165 -2.99449 -1.07225e-18)
(7.29065 -3.26459 -4.50976e-20)
(7.14808 -3.52856 -3.10368e-18)
(6.9943 -3.78583 5.3754e-21)
(6.82973 -4.03583 4.02725e-20)
(6.6548 -4.27802 2.01204e-18)
(6.46999 -4.51184 -9.93882e-19)
(6.2758 -4.73672 -9.4668e-19)
(6.07274 -4.9521 -3.74472e-20)
(5.8613 -5.15738 0)
(7.75171 -0.0901416 0)
(7.74947 -0.375773 2.4221e-19)
(7.73465 -0.661546 -8.32806e-19)
(7.70718 -0.946846 -2.20945e-19)
(7.66711 -1.23106 4.94141e-19)
(7.6145 -1.51357 0)
(7.54949 -1.79378 0)
(7.4722 -2.07111 4.72319e-19)
(7.38282 -2.34497 -4.72316e-19)
(7.28154 -2.6148 3.97866e-19)
(7.16861 -2.88002 -4.69273e-19)
(7.0443 -3.14011 9.30605e-19)
(6.90893 -3.39451 -1.8566e-18)
(6.76285 -3.6427 1.847e-18)
(6.60646 -3.88416 3.46623e-20)
(6.44017 -4.11838 -9.49953e-19)
(6.26447 -4.3448 -9.0395e-19)
(6.07983 -4.5629 1.8414e-18)
(5.88679 -4.77211 8.62012e-19)
(5.68579 -4.97181 0)
(7.48613 -0.0926604 1.87743e-21)
(7.48393 -0.366782 1.59024e-19)
(7.46974 -0.641072 3.3388e-19)
(7.44349 -0.914952 2.33701e-19)
(7.40523 -1.18784 2.16787e-19)
(7.35502 -1.45916 2.0166e-19)
(7.29297 -1.72836 0)
(7.21921 -1.99487 -8.3337e-19)
(7.1339 -2.25816 -4.29605e-19)
(7.03724 -2.51768 3.6649e-19)
(6.92945 -2.77291 0)
(6.81079 -3.02336 8.48516e-19)
(6.68156 -3.2685 -2.50952e-18)
(6.54209 -3.50788 8.44172e-19)
(6.39278 -3.74099 0)
(6.23404 -3.96736 -8.0264e-19)
(6.06634 -4.18648 -1.62112e-18)
(5.89018 -4.39785 7.97703e-19)
(5.70611 -4.60089 -2.92021e-20)
(5.51458 -4.79496 0)
(7.24177 -0.0947991 3.46389e-21)
(7.23925 -0.358363 -1.02917e-19)
(7.22527 -0.622088 1.98607e-19)
(7.19976 -0.88543 -1.31193e-20)
(7.16276 -1.14784 3.96864e-19)
(7.11435 -1.40878 -6.09511e-19)
(7.05462 -1.66771 0)
(6.98369 -1.92411 5.60206e-20)
(6.90172 -2.17746 0)
(6.80889 -2.42728 -8.13621e-19)
(6.70541 -2.67306 0)
(6.59153 -2.91434 -7.50862e-19)
(6.46754 -3.15066 2.32072e-18)
(6.33376 -3.38157 -1.53782e-18)
(6.19056 -3.60664 7.66696e-19)
(6.03836 -3.82544 -6.78344e-19)
(5.87766 -4.0375 7.83549e-19)
(5.70897 -4.24235 -7.78191e-19)
(5.5329 -4.43939 0)
(5.3499 -4.628 0)
(7.01682 -0.0964362 4.70926e-20)
(7.01381 -0.350291 0)
(6.99978 -0.604288 0)
(6.97471 -0.85791 -3.77314e-19)
(6.93862 -1.11063 -3.52148e-19)
(6.89159 -1.36195 0)
(6.83372 -1.61134 0)
(6.76511 -1.85833 4.98432e-20)
(6.68592 -2.10242 6.97364e-19)
(6.59632 -2.34314 -3.36308e-19)
(6.49651 -2.58004 -3.58313e-19)
(6.38672 -2.81268 1.44743e-18)
(6.26723 -3.04064 -2.14932e-18)
(6.13835 -3.26353 1.38599e-18)
(6.00044 -3.48094 0)
(5.85393 -3.69253 2.78447e-18)
(5.69935 -3.89784 -2.02165e-18)
(5.53719 -4.09652 6.87764e-19)
(5.36824 -4.28789 1.31532e-18)
(5.19291 -4.47137 0)
(6.80921 -0.0975069 -4.0487e-20)
(6.80559 -0.342405 0)
(6.79137 -0.587425 -5.22071e-21)
(6.76654 -0.832067 -3.24008e-19)
(6.73113 -1.07583 1.004e-18)
(6.68522 -1.31823 -1.67012e-19)
(6.62888 -1.55878 0)
(6.56224 -1.79701 1.33042e-18)
(6.48543 -2.03246 -6.85152e-19)
(6.39861 -2.26469 4.44756e-20)
(6.30198 -2.49328 6.34968e-19)
(6.19576 -2.71781 6.50849e-19)
(6.0802 -2.93791 -1.2979e-18)
(5.9556 -3.15323 -1.26949e-18)
(5.82232 -3.3634 -1.23999e-18)
(5.68077 -3.56818 -1.31952e-18)
(5.53151 -3.76712 1.31053e-18)
(5.37506 -3.96009 -6.25621e-19)
(5.21245 -4.14621 -6.66666e-19)
(5.04397 -4.32514 0)
(6.61669 -0.0979907 3.97774e-20)
(6.61243 -0.334601 -1.49354e-19)
(6.59797 -0.571302 -1.54614e-19)
(6.57329 -0.807616 4.62959e-19)
(6.53843 -1.04306 -1.64411e-19)
(6.49347 -1.27718 -1.5368e-19)
(6.43847 -1.5095 0)
(6.37355 -1.73959 -6.31687e-19)
(6.29885 -1.96699 0)
(6.21451 -2.19131 6.26801e-19)
(6.12072 -2.41212 -1.20785e-18)
(6.01768 -2.62907 5.97909e-19)
(5.90562 -2.8418 -1.19215e-18)
(5.78484 -3.05 1.23021e-18)
(5.65565 -3.25337 6.69595e-19)
(5.51846 -3.45177 0)
(5.37387 -3.64475 -5.77959e-19)
(5.22236 -3.83252 5.77959e-19)
(5.06539 -4.01387 0)
(4.90292 -4.18917 0)
(6.43713 -0.0979753 0)
(6.43226 -0.326855 1.46739e-19)
(6.41756 -0.555794 4.72171e-21)
(6.39301 -0.784334 -1.51303e-19)
(6.35866 -1.01202 -1.3342e-19)
(6.31456 -1.2384 -1.41648e-19)
(6.26081 -1.46304 5.47473e-19)
(6.19749 -1.68551 0)
(6.12475 -1.9054 0)
(6.04271 -2.12231 2.78228e-19)
(5.95155 -2.33586 2.9556e-19)
(5.85146 -2.5457 1.0697e-18)
(5.74265 -2.75151 -5.46568e-19)
(5.62537 -2.95304 5.46566e-19)
(5.49992 -3.15001 5.80225e-19)
(5.36665 -3.34243 3.39321e-20)
(5.2262 -3.52983 -1.06564e-18)
(5.07895 -3.713 3.77811e-21)
(4.92704 -3.89001 5.2705e-19)
(4.76963 -4.06289 0)
(6.26864 -0.0974637 -3.27976e-20)
(6.26323 -0.319136 3.27972e-20)
(6.24833 -0.540841 0)
(6.22394 -0.762132 1.23534e-19)
(6.1901 -0.982573 4.01276e-19)
(6.14687 -1.20174 -5.07165e-19)
(6.09434 -1.4192 -5.37911e-19)
(6.03259 -1.63456 0)
(5.96175 -1.84743 0)
(5.88196 -2.05742 0)
(5.79337 -2.26417 -9.93017e-19)
(5.69613 -2.46737 -6.41064e-20)
(5.59046 -2.66671 -5.03497e-19)
(5.47654 -2.86197 3.01764e-20)
(5.35466 -3.05293 -9.9572e-19)
(5.22503 -3.23973 1.51748e-18)
(5.08838 -3.42193 -1.43785e-18)
(4.94474 -3.60112 4.88093e-19)
(4.79741 -3.77431 9.35705e-19)
(4.64366 -3.9464 0)
(6.1095 -0.0961058 2.94652e-20)
(6.10365 -0.311244 0)
(6.08864 -0.526402 -1.21309e-19)
(6.06448 -0.741145 -2.49966e-19)
(6.03119 -0.955055 1.21157e-19)
(5.98884 -1.16772 9.67491e-19)
(5.93752 -1.37874 0)
(5.8773 -1.58774 -4.65964e-19)
(5.80831 -1.79432 -2.38325e-19)
(5.73067 -1.99814 -4.47725e-19)
(5.64452 -2.19886 -1.79138e-19)
(5.54999 -2.39618 -1.41353e-18)
(5.44727 -2.5898 -9.33013e-19)
(5.33647 -2.77955 9.59772e-19)
(5.21786 -2.96521 9.18688e-19)
(5.09143 -3.14704 -3.88231e-21)
(4.95801 -3.32467 2.99275e-20)
(4.81684 -3.50071 4.49733e-19)
(4.67302 -3.67133 -9.19424e-19)
(4.51981 -3.84644 0)
(5.95811 -0.0944337 -6.16176e-20)
(5.95196 -0.303314 3.03333e-20)
(5.93699 -0.512283 -1.21187e-19)
(5.9132 -0.720949 1.2113e-19)
(5.8806 -0.928919 -3.48387e-19)
(5.83925 -1.1358 -1.08483e-18)
(5.7892 -1.34122 0)
(5.73053 -1.5448 4.93028e-19)
(5.66334 -1.74618 -4.60995e-19)
(5.58772 -1.94503 9.76185e-19)
(5.50378 -2.14101 9.70386e-19)
(5.41163 -2.33384 1.42967e-18)
(5.31141 -2.52323 -9.27695e-19)
(5.20315 -2.70899 4.62088e-19)
(5.0871 -2.89094 -4.54436e-19)
(4.96288 -3.06928 4.54459e-19)
(4.8316 -3.24376 0)
(4.69057 -3.41759 4.11453e-19)
(4.5488 -3.58659 -4.0264e-19)
(4.39118 -3.77294 0)
(7.13968 7.26167 0)
(7.41964 6.97188 0)
(7.6867 6.67251 1.0869e-18)
(7.94156 6.36407 2.0239e-20)
(8.18364 6.04626 -1.14994e-18)
(8.41231 5.71915 0)
(8.62713 5.38315 1.18667e-18)
(8.82778 5.03879 -2.23886e-18)
(9.01395 4.68664 -1.13146e-18)
(9.18533 4.32731 -1.14203e-18)
(9.34167 3.96143 1.14202e-18)
(9.48273 3.58967 -1.15411e-18)
(9.60834 3.2127 5.75695e-19)
(9.71829 2.83123 5.49467e-19)
(9.81242 2.44592 5.51613e-19)
(9.89067 2.05745 -5.85415e-19)
(9.95303 1.66646 5.85416e-19)
(9.99956 1.27366 -2.93885e-19)
(10.0302 0.879461 -1.39596e-19)
(10.0455 0.485202 7.35277e-20)
(7.41602 7.0694 0)
(7.69617 6.78001 -9.95942e-19)
(7.96252 6.47906 -2.12927e-18)
(8.21538 6.16721 3.14876e-18)
(8.4545 5.8448 -2.18356e-18)
(8.67937 5.51227 2.19429e-18)
(8.88952 5.17024 1.19297e-18)
(9.08452 4.81935 -3.38522e-18)
(9.264 4.46031 1.10744e-18)
(9.42758 4.09383 2.20151e-18)
(9.57497 3.72064 1.08464e-18)
(9.70591 3.34148 1.09152e-18)
(9.82023 2.95717 -1.15183e-18)
(9.91772 2.56842 1.69607e-18)
(9.99811 2.17602 -2.35314e-18)
(10.0613 1.78085 5.80829e-19)
(10.1073 1.38372 -5.58131e-19)
(10.1362 0.985424 0)
(10.1478 0.586514 1.51536e-20)
(10.1426 0.187964 0)
(7.27279 6.94443 -1.75366e-18)
(7.55574 6.67244 9.84548e-19)
(7.82614 6.38759 1.80094e-18)
(8.08356 6.09056 8.15281e-19)
(8.32756 5.78191 2.04189e-18)
(8.55761 5.46225 2.0019e-20)
(8.7732 5.13227 -1.02347e-18)
(8.97383 4.79264 -3.05012e-18)
(9.15905 4.44409 3.01128e-18)
(9.32843 4.08735 -3.09113e-18)
(9.48156 3.72315 -1.02982e-18)
(9.61817 3.35226 -2.06038e-18)
(9.73793 2.9755 0)
(9.84062 2.59364 0)
(9.92611 2.20758 0)
(9.99423 1.81822 -5.25183e-19)
(10.0448 1.4264 5.50043e-19)
(10.0779 1.03298 5.26877e-19)
(10.0932 0.638676 6.26859e-21)
(10.0909 0.244452 1.32329e-19)
(7.04541 6.69233 1.82132e-18)
(7.32509 6.43899 -1.65395e-18)
(7.59342 6.17254 -1.69569e-19)
(7.84968 5.89351 -1.70529e-19)
(8.09332 5.60248 4.29971e-18)
(8.32377 5.30004 -7.12444e-20)
(8.54049 4.98683 3.76706e-21)
(8.74294 4.66351 -2.71904e-18)
(8.93064 4.33075 1.794e-18)
(9.1031 3.98925 0)
(9.25983 3.63977 9.62223e-19)
(9.40049 3.28317 9.6888e-19)
(9.5248 2.92021 0)
(9.63245 2.55173 0)
(9.72322 2.17855 0)
(9.79691 1.80149 0)
(9.85333 1.42136 -2.17049e-20)
(9.89236 1.03903 4.744e-19)
(9.91388 0.655319 -2.27809e-19)
(9.91788 0.271173 0)
(6.78271 6.37759 1.54253e-18)
(7.05452 6.14212 0)
(7.31611 5.8937 -4.54165e-18)
(7.56666 5.63278 -1.54803e-18)
(7.80554 5.35986 -1.62676e-18)
(8.03218 5.0755 -1.72446e-18)
(8.24599 4.78029 8.14748e-19)
(8.44644 4.47482 -8.56246e-19)
(8.63299 4.15973 2.37754e-18)
(8.80518 3.8357 -7.78347e-19)
(8.9626 3.50349 0)
(9.10476 3.16386 0)
(9.23125 2.81748 0)
(9.34181 2.46516 0)
(9.43618 2.1077 -1.22916e-18)
(9.5141 1.7459 4.2265e-19)
(9.57536 1.38057 -4.46462e-19)
(9.61979 1.01255 0)
(9.64726 0.642682 2.24672e-19)
(9.6577 0.271848 0)
(6.50775 6.05041 1.31958e-18)
(6.76933 5.83108 -4.79856e-20)
(7.02162 5.59922 2.77568e-18)
(7.26383 5.35518 1.38672e-18)
(7.49528 5.09941 0)
(7.71541 4.83243 -1.47257e-18)
(7.92365 4.55476 6.84921e-20)
(8.11945 4.26696 -1.49493e-18)
(8.30228 3.96962 2.06812e-18)
(8.47167 3.6634 3.27329e-20)
(8.62719 3.34892 2.81104e-20)
(8.76839 3.02681 -7.45979e-19)
(8.89486 2.69781 1.46302e-18)
(9.00627 2.36268 0)
(9.10237 2.02211 6.85527e-20)
(9.18285 1.67695 7.46938e-19)
(9.24744 1.32797 1.63728e-21)
(9.29597 0.975938 -1.53425e-20)
(9.3283 0.621663 0)
(9.34429 0.265977 -4.63079e-20)
(6.24187 5.73341 0)
(6.49212 5.52806 -4.89107e-20)
(6.73382 5.31071 1.7562e-20)
(6.96623 5.08165 -2.50909e-18)
(7.1887 4.84128 0)
(7.40066 4.59006 1.26899e-18)
(7.60156 4.32848 1.35168e-18)
(7.79088 4.05705 -3.93257e-18)
(7.96811 3.7763 -6.82636e-20)
(8.13278 3.48681 -1.26275e-18)
(8.28446 3.18917 6.9529e-19)
(8.42272 2.884 -6.4226e-19)
(8.54716 2.57198 -7.06053e-19)
(8.65742 2.25379 0)
(8.75324 1.93016 3.72499e-19)
(8.83441 1.60168 -1.69044e-20)
(8.90056 1.26922 -3.45796e-19)
(8.95146 0.933519 -1.67664e-20)
(8.98701 0.595317 -8.70463e-20)
(9.00703 0.25539 1.74466e-19)
(5.99627 5.4382 0)
(6.23493 5.2447 1.08494e-18)
(6.46565 5.03976 1.61716e-20)
(6.6877 4.82365 -1.10108e-18)
(6.90047 4.59672 0)
(7.10342 4.35939 1.14551e-18)
(7.29603 4.11209 -1.09368e-18)
(7.4778 3.85529 -1.21075e-18)
(7.64826 3.58949 2.30298e-18)
(7.80694 3.31521 1.24267e-18)
(7.95344 3.03302 0)
(8.08734 2.74351 6.06113e-19)
(8.20828 2.44729 -4.38744e-21)
(8.31592 2.145 2.18617e-20)
(8.40986 1.83732 0)
(8.48995 1.52487 -5.96605e-19)
(8.55605 1.20828 -3.12564e-19)
(8.60772 0.888337 4.56673e-19)
(8.64486 0.565789 3.07905e-19)
(8.66731 0.241337 -4.11567e-20)
(5.77463 5.16971 0)
(6.00203 4.98618 -9.37034e-19)
(6.22194 4.7918 0)
(6.43369 4.5868 -1.01097e-18)
(6.63669 4.37147 1.99038e-18)
(6.83043 4.14621 -2.02986e-18)
(7.01442 3.91141 3.17634e-18)
(7.18821 3.66749 -3.16718e-18)
(7.35133 3.41494 -2.13985e-18)
(7.50337 3.15424 -1.57826e-18)
(7.64393 2.88592 5.41216e-19)
(7.77263 2.61053 -1.12205e-18)
(7.88911 2.32865 1.86444e-20)
(7.99306 2.04087 1.11538e-18)
(8.08418 1.74779 -2.80602e-19)
(8.16209 1.45014 1.14949e-18)
(8.22671 1.14839 -5.6536e-19)
(8.27787 0.843258 2.60477e-19)
(8.31529 0.535475 -1.48553e-19)
(8.33879 0.225709 0)
(5.57668 4.92833 0)
(5.79346 4.75325 1.81277e-18)
(6.00311 4.56788 8.7931e-19)
(6.20497 4.37242 -9.0513e-19)
(6.39851 4.16713 -1.85415e-18)
(6.58325 3.95235 2.82145e-18)
(6.75873 3.72846 1.12842e-20)
(6.92453 3.49585 -9.19646e-19)
(7.08022 3.25497 1.97437e-18)
(7.22543 3.00629 1.0197e-18)
(7.35976 2.7503 -9.52654e-19)
(7.48286 2.48753 5.00235e-19)
(7.59441 2.21853 2.25316e-20)
(7.6941 1.94384 -5.26373e-19)
(7.78163 1.66405 -2.55069e-19)
(7.85673 1.37973 5.11447e-19)
(7.91917 1.09159 -2.56378e-19)
(7.96883 0.800127 -5.17364e-19)
(8.00555 0.506013 5.99502e-20)