/*--------------------------------*- C++ -*----------------------------------*\
  =========                 |
  \\      /  F ield         | OpenFOAM: The Open Source CFD Toolbox
   \\    /   O peration     | Website:  https://openfoam.org
    \\  /    A nd           | Version:  6.0
     \\/     M anipulation  |
\*---------------------------------------------------------------------------*/
FoamFile
{
    version     2.0;
    format      ascii;
    class       volScalarField;
    location    "8.75";
    object      p;
}
// * * * * * * * * * * * * * * * * * * * * * * * * * * * * * * * * * * * * * //

dimensions      [0 2 -2 0 0 0 0];

internalField   nonuniform List<scalar> 
9600
(
-112.425
-96.7127
-85.473
-76.3589
-68.1816
-60.9335
-54.5526
-48.9265
-43.9602
-39.5726
-35.6913
-32.252
-29.1984
-26.4815
-24.0587
-21.8935
-19.9543
-18.2126
-16.6439
-15.2443
-113.093
-97.3742
-86.1007
-76.9413
-68.7194
-61.4314
-55.0159
-49.3603
-44.3689
-39.9598
-36.0601
-32.6047
-29.537
-26.8074
-24.3733
-22.1977
-20.2489
-18.4979
-16.9198
-15.5138
-113.77
-98.0292
-86.7197
-77.5165
-69.2508
-61.9235
-55.474
-49.7895
-44.7735
-40.3436
-36.4259
-32.9548
-29.8733
-27.1314
-24.6861
-22.5004
-20.5421
-18.7819
-17.1946
-15.7825
-114.451
-98.6814
-87.332
-78.0843
-69.7754
-62.4092
-55.9263
-50.2134
-45.1735
-40.7232
-36.788
-33.3017
-30.2067
-27.4529
-24.9967
-22.8011
-20.8336
-19.0643
-17.4679
-16.0502
-115.13
-99.3291
-87.9374
-78.6445
-70.2925
-62.8879
-56.3721
-50.6315
-45.5682
-41.0981
-37.1459
-33.6448
-30.5368
-27.7713
-25.3047
-23.0995
-21.1231
-19.345
-17.7398
-16.317
-115.805
-99.9709
-88.5352
-79.1964
-70.8013
-63.3587
-56.8106
-51.0428
-45.9568
-41.4674
-37.4987
-33.9835
-30.8629
-28.0863
-25.6096
-23.3952
-21.4103
-19.6236
-18.0101
-16.5829
-116.472
-100.605
-89.1242
-79.739
-71.3009
-63.8208
-57.2409
-51.4466
-46.3383
-41.8304
-37.8458
-34.3169
-31.1844
-28.3971
-25.9109
-23.6878
-21.6948
-19.9001
-18.2787
-16.8478
-117.131
-101.229
-89.7032
-80.2713
-71.7904
-64.2731
-57.6619
-51.8417
-46.712
-42.186
-38.1863
-34.6442
-31.5003
-28.703
-26.2079
-23.9768
-21.9763
-20.1741
-18.5454
-17.1118
-117.779
-101.842
-90.2708
-80.7922
-72.2686
-64.7146
-58.0728
-52.2272
-47.0766
-42.5333
-38.519
-34.9645
-31.8099
-29.0032
-26.4998
-24.2614
-22.2541
-20.4451
-18.8101
-17.3748
-118.416
-102.443
-90.8258
-81.3004
-72.7344
-65.1442
-58.4722
-52.602
-47.4311
-42.8711
-38.8429
-35.2766
-32.112
-29.2966
-26.7857
-24.5407
-22.5275
-20.7126
-19.0723
-17.6366
-119.039
-103.031
-91.367
-81.795
-73.1867
-65.5606
-58.8591
-52.9647
-47.7742
-43.1981
-39.1565
-35.5792
-32.4052
-29.5819
-27.0643
-24.8136
-22.7954
-20.9756
-19.331
-17.8964
-119.649
-103.604
-91.8935
-82.2747
-73.6244
-65.9628
-59.2321
-53.3141
-48.1045
-43.5128
-39.4584
-35.8706
-32.6879
-29.8575
-27.3341
-25.0787
-23.0566
-21.2331
-19.5855
-18.1531
-120.245
-104.162
-92.4043
-82.7387
-74.0465
-66.3496
-59.5902
-53.6489
-48.4205
-43.8136
-39.7469
-36.149
-32.9582
-30.1214
-27.593
-25.3341
-23.3096
-21.4838
-19.8348
-18.4067
-120.826
-104.703
-92.8983
-83.1859
-74.4519
-66.7201
-59.9321
-53.9679
-48.7209
-44.0989
-40.02
-36.4122
-33.2135
-30.3707
-27.8381
-25.5766
-23.551
-21.7248
-20.0771
-18.6575
-121.392
-105.227
-93.3745
-83.6157
-74.84
-67.0733
-60.257
-54.2698
-49.0043
-44.3673
-40.2761
-36.6583
-33.4516
-30.6027
-28.0658
-25.8019
-23.7757
-21.9503
-20.3069
-18.9008
-121.943
-105.733
-93.8325
-84.0272
-75.21
-67.4083
-60.5636
-54.5535
-49.2694
-44.6171
-40.5132
-36.8852
-33.6703
-30.8151
-28.2737
-26.0072
-23.9801
-22.1558
-20.5172
-19.1222
-122.488
-106.225
-94.2721
-84.4194
-75.5604
-67.7238
-60.8508
-54.8177
-49.5145
-44.8464
-40.7292
-37.0901
-33.8664
-31.0046
-28.4592
-26.1916
-24.166
-22.3444
-20.709
-19.3173
-123.037
-106.708
-94.6933
-84.7907
-75.8901
-68.0191
-61.1181
-55.062
-49.7394
-45.0543
-40.9221
-37.2697
-34.0345
-31.1637
-28.6128
-26.3449
-24.3244
-22.5116
-20.8888
-19.5263
-123.592
-107.18
-95.0956
-85.1415
-76.2006
-68.2965
-61.368
-55.2887
-49.946
-45.2427
-41.0933
-37.4241
-34.1723
-31.2853
-28.7197
-26.4401
-24.4123
-22.6015
-21.0135
-19.7614
-124.094
-107.623
-95.4787
-85.476
-76.4967
-68.5608
-61.6053
-55.5028
-50.1394
-45.4168
-41.2485
-37.5598
-34.2868
-31.3759
-28.7821
-26.4671
-24.3944
-22.5396
-20.9486
-19.747
-128.688
-128.655
-128.571
-128.472
-128.359
-128.227
-128.072
-127.895
-127.695
-127.476
-127.237
-126.98
-126.705
-126.414
-126.109
-125.79
-125.46
-125.122
-124.783
-124.446
-111.691
-111.695
-111.664
-111.61
-111.534
-111.436
-111.313
-111.167
-110.999
-110.81
-110.602
-110.375
-110.131
-109.87
-109.594
-109.304
-109.001
-108.686
-108.358
-108.009
-98.93
-98.9634
-98.9694
-98.949
-98.9035
-98.8336
-98.7402
-98.6244
-98.4876
-98.3307
-98.155
-97.9614
-97.7509
-97.5244
-97.2827
-97.0263
-96.7555
-96.4692
-96.1652
-95.8374
-88.4033
-88.4507
-88.4743
-88.4723
-88.4452
-88.3946
-88.3222
-88.229
-88.1161
-87.9846
-87.8353
-87.6693
-87.4875
-87.2907
-87.0794
-86.8538
-86.6137
-86.3582
-86.0855
-85.7929
-79.0404
-79.0908
-79.1199
-79.1258
-79.1083
-79.069
-79.0093
-78.9304
-78.8332
-78.7188
-78.5881
-78.442
-78.2815
-78.1074
-77.92
-77.7197
-77.5062
-77.2789
-77.0365
-76.7772
-70.8445
-70.892
-70.9204
-70.9277
-70.9135
-70.8788
-70.8253
-70.7539
-70.6656
-70.5615
-70.4425
-70.3096
-70.1637
-70.0057
-69.8362
-69.6554
-69.4633
-69.2594
-69.0426
-68.8111
-63.7178
-63.7598
-63.7841
-63.789
-63.7739
-63.7398
-63.688
-63.6196
-63.5356
-63.4369
-63.3246
-63.1998
-63.0636
-62.9168
-62.7602
-62.5942
-62.4189
-62.234
-62.0382
-61.8299
-57.5016
-57.5371
-57.5558
-57.5564
-57.5383
-57.5023
-57.4498
-57.3817
-57.299
-57.2027
-57.094
-56.974
-56.8438
-56.7046
-56.5573
-56.4026
-56.2406
-56.0713
-55.8934
-55.7051
-52.059
-52.0879
-52.1006
-52.0962
-52.0741
-52.0353
-51.9808
-51.9116
-51.8286
-51.733
-51.6258
-51.5083
-51.3819
-51.2478
-51.1073
-50.9613
-50.8103
-50.6542
-50.4919
-50.3217
-47.2765
-47.299
-47.3061
-47.2967
-47.2706
-47.2286
-47.1716
-47.1007
-47.0166
-46.9205
-46.8137
-46.6974
-46.5731
-46.4425
-46.3069
-46.1677
-46.0258
-45.8815
-45.7336
-45.5803
-43.0581
-43.075
-43.0769
-43.063
-43.0331
-42.988
-42.9286
-42.8556
-42.7701
-42.6731
-42.5658
-42.4497
-42.3265
-42.198
-42.0659
-41.9322
-41.7981
-41.6643
-41.5302
-41.3933
-39.324
-39.3359
-39.3333
-39.3154
-39.2821
-39.2342
-39.1725
-39.0976
-39.0105
-38.9122
-38.8041
-38.6876
-38.5646
-38.437
-38.3072
-38.1775
-38.05
-37.926
-37.8052
-37.6852
-36.0076
-36.0153
-36.0087
-35.9874
-35.9512
-35.9009
-35.837
-35.7603
-35.6716
-35.572
-35.4628
-35.3453
-35.2217
-35.094
-34.9653
-34.8382
-34.7161
-34.6008
-34.4935
-34.3911
-33.0536
-33.0576
-33.0477
-33.0234
-32.9847
-32.9323
-32.8666
-32.7883
-32.6982
-32.5972
-32.4866
-32.3678
-32.2428
-32.1141
-31.9851
-31.8589
-31.7407
-31.6328
-31.5393
-31.4558
-30.4153
-30.4162
-30.4035
-30.3767
-30.336
-30.2818
-30.2146
-30.135
-30.0435
-29.9412
-29.8291
-29.7085
-29.5817
-29.4509
-29.3201
-29.193
-29.0766
-28.9742
-28.8947
-28.8317
-28.0538
-28.052
-28.0368
-28.008
-27.9655
-27.9099
-27.8414
-27.7606
-27.668
-27.5643
-27.4506
-27.3281
-27.1987
-27.0647
-26.9305
-26.8001
-26.6831
-26.5832
-26.5172
-26.4755
-25.936
-25.9318
-25.9144
-25.8838
-25.8398
-25.7829
-25.7132
-25.6313
-25.5375
-25.4325
-25.317
-25.1921
-25.0595
-24.9213
-24.7817
-24.645
-24.5234
-24.4219
-24.3684
-24.3455
-24.0325
-24.0266
-24.0077
-23.9758
-23.9309
-23.8731
-23.8027
-23.7199
-23.6252
-23.519
-23.4018
-23.2745
-23.1383
-22.9949
-22.848
-22.7016
-22.57
-22.4607
-22.4202
-22.416
-22.3172
-22.3107
-22.2917
-22.26
-22.2155
-22.1585
-22.089
-22.0072
-21.9134
-21.8078
-21.6909
-21.5632
-21.4254
-21.2788
-21.1256
-20.969
-20.8219
-20.6956
-20.6635
-20.7031
-20.7755
-20.7656
-20.7441
-20.7108
-20.6657
-20.6087
-20.54
-20.4595
-20.3674
-20.264
-20.1492
-20.0235
-19.8869
-19.7404
-19.584
-19.4201
-19.2535
-19.0957
-19.0207
-19.1148
-121.739
-122.348
-122.896
-123.439
-123.979
-124.5
-124.995
-125.459
-125.894
-126.298
-126.67
-127.009
-127.316
-127.589
-127.831
-128.041
-128.221
-128.373
-128.501
-128.61
-104.617
-105.235
-105.817
-106.383
-106.931
-107.456
-107.952
-108.419
-108.856
-109.262
-109.638
-109.982
-110.295
-110.577
-110.828
-111.048
-111.239
-111.4
-111.534
-111.634
-91.9327
-92.5391
-93.1227
-93.6826
-94.218
-94.7276
-95.2101
-95.6648
-96.0914
-96.4894
-96.8586
-97.1987
-97.5095
-97.791
-98.0434
-98.2669
-98.4616
-98.6271
-98.7626
-98.8648
-81.682
-82.2593
-82.8182
-83.3532
-83.8625
-84.3466
-84.8055
-85.2386
-85.6455
-86.0259
-86.3793
-86.7056
-87.0047
-87.2766
-87.5213
-87.7387
-87.9287
-88.0911
-88.2252
-88.3299
-72.709
-73.2506
-73.776
-74.2796
-74.759
-75.2141
-75.6454
-76.0523
-76.4346
-76.7918
-77.1239
-77.4306
-77.7119
-77.9678
-78.1983
-78.4034
-78.583
-78.737
-78.865
-78.9668
-64.9427
-65.4496
-65.9417
-66.4139
-66.863
-67.2889
-67.6918
-68.0714
-68.4274
-68.7598
-69.0684
-69.3531
-69.6141
-69.8514
-70.0649
-70.2547
-70.4207
-70.563
-70.6815
-70.7758
-58.2386
-58.7146
-59.1763
-59.619
-60.0396
-60.4377
-60.8134
-61.1667
-61.4973
-61.8054
-62.0909
-62.354
-62.5946
-62.8129
-63.009
-63.1828
-63.3345
-63.464
-63.5713
-63.6563
-52.4152
-52.8643
-53.2991
-53.7153
-54.11
-54.4827
-54.8334
-55.1624
-55.4696
-55.7551
-56.0192
-56.2619
-56.4834
-56.6838
-56.8633
-57.0219
-57.1596
-57.2765
-57.3726
-57.448
-47.3269
-47.7529
-48.1645
-48.5573
-48.9289
-49.2788
-49.6071
-49.9141
-50.2
-50.4651
-50.7096
-50.9338
-51.1379
-51.3221
-51.4864
-51.631
-51.7559
-51.8612
-51.9469
-52.0131
-42.859
-43.2655
-43.6572
-44.0298
-44.381
-44.7105
-45.0186
-45.3058
-45.5726
-45.8192
-46.0462
-46.2539
-46.4424
-46.612
-46.7629
-46.895
-47.0085
-47.1034
-47.1797
-47.2376
-38.9187
-39.309
-39.6838
-40.0389
-40.372
-40.6832
-40.9731
-41.2425
-41.4919
-41.722
-41.9332
-42.1261
-42.3008
-42.4576
-42.5965
-42.7177
-42.8211
-42.9069
-42.975
-43.0256
-35.4305
-35.8075
-36.1683
-36.5082
-36.8251
-37.1196
-37.3929
-37.6459
-37.8796
-38.0947
-38.2918
-38.4714
-38.6339
-38.7793
-38.9077
-39.0193
-39.114
-39.1918
-39.2527
-39.297
-32.3322
-32.699
-33.0484
-33.3749
-33.677
-33.9561
-34.2139
-34.4518
-34.671
-34.8724
-35.0568
-35.2245
-35.376
-35.5114
-35.6307
-35.7339
-35.8209
-35.8918
-35.9466
-35.9853
-29.5729
-29.9321
-30.2725
-30.5871
-30.8752
-31.1397
-31.383
-31.6067
-31.8124
-32.0012
-32.1739
-32.331
-32.4728
-32.5993
-32.7106
-32.8064
-32.8869
-32.9519
-33.0013
-33.0354
-27.1109
-27.4656
-27.7985
-28.1014
-28.3761
-28.6265
-28.8556
-29.0658
-29.2588
-29.436
-29.5981
-29.7456
-29.8787
-29.9974
-30.1016
-30.1911
-30.2659
-30.3257
-30.3706
-30.4006
-24.9091
-25.2657
-25.5924
-25.8827
-26.1433
-26.3796
-26.5949
-26.7919
-26.9729
-27.1393
-27.2916
-27.4305
-27.5558
-27.6676
-27.7656
-27.8496
-27.9194
-27.9748
-28.0157
-28.0421
-22.9255
-23.297
-23.6221
-23.8985
-24.144
-24.3661
-24.5676
-24.752
-24.9218
-25.0782
-25.2219
-25.353
-25.4716
-25.5774
-25.67
-25.7492
-25.8146
-25.8662
-25.9036
-25.927
-21.1177
-21.5109
-21.8433
-22.1089
-22.3396
-22.5476
-22.7363
-22.9095
-23.0696
-23.2177
-23.3543
-23.4794
-23.5928
-23.694
-23.7826
-23.8583
-23.9206
-23.9694
-24.0043
-24.0254
-19.5208
-19.8953
-20.2272
-20.4922
-20.7109
-20.9031
-21.0792
-21.2424
-21.3937
-21.5342
-21.6646
-21.7846
-21.8938
-21.9914
-22.077
-22.1501
-22.2103
-22.2573
-22.2909
-22.3109
-18.3766
-18.6546
-18.8949
-19.1573
-19.3634
-19.5263
-19.6785
-19.824
-19.9591
-20.0843
-20.2011
-20.3092
-20.4075
-20.4952
-20.5718
-20.6368
-20.6897
-20.7303
-20.7582
-20.7734
-11.7011
-12.972
-14.4044
-15.995
-17.7653
-19.7405
-21.9478
-24.4182
-27.1891
-30.3047
-33.8182
-37.7947
-42.3146
-47.4794
-53.4234
-60.3243
-68.3434
-77.603
-89.3597
-105.795
-12.0004
-13.2824
-14.7215
-16.3207
-18.1012
-20.088
-22.3081
-24.793
-27.5802
-30.7143
-34.2489
-38.2495
-42.7975
-47.9949
-53.9768
-60.9218
-68.9903
-78.3002
-90.0991
-106.558
-12.304
-13.5969
-15.0428
-16.6509
-18.4421
-20.4408
-22.6741
-25.174
-27.9779
-31.131
-34.6872
-38.7127
-43.2893
-48.5199
-54.5402
-61.5294
-69.6472
-79.0062
-90.8414
-107.31
-12.611
-13.9146
-15.3673
-16.9846
-18.7867
-20.7976
-23.0445
-25.5595
-28.3806
-31.5531
-35.1313
-39.182
-43.7876
-49.0518
-55.1108
-62.1441
-70.3109
-79.7203
-91.5967
-108.084
-12.9206
-14.2345
-15.6942
-17.3209
-19.1343
-21.1576
-23.4183
-25.9488
-28.7873
-31.9794
-35.5799
-39.6561
-44.291
-49.5889
-55.6868
-62.7643
-70.9803
-80.4416
-92.3646
-108.878
-13.2321
-14.5561
-16.0229
-17.6594
-19.4842
-21.5203
-23.7951
-26.3413
-29.1975
-32.4094
-36.0325
-40.1344
-44.7988
-50.1308
-56.2677
-63.3897
-71.6553
-81.1692
-93.1406
-109.684
-13.5448
-14.8788
-16.3527
-17.9994
-19.8361
-21.8852
-24.1743
-26.7366
-29.6107
-32.8427
-36.4886
-40.6164
-45.3106
-50.6769
-56.8533
-64.0201
-72.3354
-81.9017
-93.9217
-110.497
-13.8584
-15.2019
-16.6833
-18.3405
-20.1895
-22.2518
-24.5556
-27.1341
-30.0263
-33.2788
-36.9477
-41.1017
-45.8259
-51.2267
-57.4427
-64.6547
-73.0197
-82.638
-94.7063
-111.314
-14.1724
-15.5253
-17.0141
-18.6824
-20.5439
-22.6198
-24.9385
-27.5335
-30.444
-33.717
-37.4091
-41.5895
-46.3439
-51.7793
-58.0352
-65.2923
-73.7071
-83.3773
-95.4935
-112.133
-14.4868
-15.8486
-17.3452
-19.0248
-20.8993
-22.989
-25.3227
-27.9343
-30.8634
-34.157
-37.8723
-42.0792
-46.8638
-52.334
-58.6297
-65.932
-74.3965
-84.1182
-96.282
-112.955
-14.8014
-16.172
-17.6765
-19.3679
-21.2555
-23.3592
-25.7081
-28.3364
-31.2839
-34.5982
-38.3368
-42.5701
-47.3849
-52.8898
-59.2254
-66.5728
-75.0868
-84.8597
-97.0705
-113.775
-15.1167
-16.4958
-18.0083
-19.7118
-21.6128
-23.7305
-26.0946
-28.7395
-31.7055
-35.0403
-38.802
-43.0615
-47.9064
-53.4459
-59.8211
-67.2134
-75.7767
-85.6003
-97.8576
-114.594
-15.4335
-16.8207
-18.3412
-20.057
-21.9714
-24.1032
-26.4822
-29.1436
-32.1276
-35.4827
-39.2672
-43.5527
-48.4274
-54.0012
-60.4158
-67.8527
-76.4649
-86.3388
-98.6417
-115.41
-15.753
-17.1479
-18.6762
-20.4042
-22.3319
-24.4773
-26.871
-29.5483
-32.55
-35.9249
-39.7318
-44.0429
-48.9469
-54.5546
-61.0082
-68.4894
-77.15
-87.0736
-99.4215
-116.22
-16.0775
-17.4794
-19.015
-20.7548
-22.6951
-24.8534
-27.2609
-29.9535
-32.9722
-36.3662
-40.1949
-44.5309
-49.4638
-55.1048
-61.5969
-69.1218
-77.8305
-87.8035
-100.196
-117.025
-16.4097
-17.8169
-19.3582
-21.1087
-23.0607
-25.2311
-27.6516
-30.3586
-33.3934
-36.8057
-40.6554
-45.0156
-49.9767
-55.6505
-62.1804
-69.7484
-78.5047
-88.5269
-100.964
-117.823
-16.7556
-18.1661
-19.7098
-21.4684
-23.4301
-25.6108
-28.0429
-30.7628
-33.8126
-37.2422
-41.1119
-45.4956
-50.484
-56.1897
-62.7567
-70.367
-79.1703
-89.2419
-101.724
-118.614
-17.1157
-18.522
-20.0639
-21.8295
-23.8005
-25.9907
-28.433
-31.1647
-34.2284
-37.6741
-41.5629
-45.969
-50.9839
-56.7207
-63.3238
-70.9755
-79.8247
-89.9457
-102.476
-119.4
-17.5132
-18.8989
-20.4268
-22.1958
-24.1736
-26.3704
-28.8205
-31.5623
-34.6385
-38.0994
-42.0062
-46.4339
-51.4743
-57.2412
-63.8794
-71.571
-80.4645
-90.6342
-103.218
-120.185
-17.897
-19.2307
-20.767
-22.5565
-24.5437
-26.7454
-29.202
-31.9529
-35.0405
-38.5155
-42.4395
-46.8877
-51.9527
-57.7486
-64.4207
-72.1508
-81.0857
-91.2996
-103.938
-120.972
-7.61069
-8.47606
-9.66849
-11.0801
-12.6666
-14.4441
-16.4404
-18.6828
-21.2025
-24.0372
-27.232
-30.8417
-34.9342
-39.5949
-44.94
-51.1293
-58.3138
-66.6347
-77.4414
-93.1506
-7.83937
-8.75726
-9.97185
-11.3673
-12.9323
-14.695
-16.682
-18.9189
-21.4364
-24.2715
-27.4693
-31.0848
-35.1859
-39.8587
-45.2202
-51.4315
-58.6439
-66.9949
-77.8256
-93.5451
-7.89225
-8.90848
-10.1685
-11.5814
-13.1555
-14.9241
-16.9147
-19.1544
-21.675
-24.5145
-27.7185
-31.3424
-35.4544
-40.1415
-45.5212
-51.756
-58.9974
-67.3785
-78.2262
-93.9354
-7.99177
-9.04501
-10.3286
-11.761
-13.3525
-15.135
-17.1365
-19.3852
-21.914
-24.7621
-27.9755
-31.6103
-35.7356
-40.439
-45.8388
-52.0983
-59.37
-67.7849
-78.6597
-94.374
-8.12476
-9.19242
-10.4915
-11.9391
-13.5451
-15.3411
-17.3548
-19.6147
-22.1545
-25.0137
-28.239
-31.887
-36.0277
-40.7493
-46.171
-52.4569
-59.7608
-68.2138
-79.126
-94.8606
-8.25804
-9.34402
-10.6592
-12.1208
-13.7402
-15.549
-17.575
-19.8471
-22.3992
-25.271
-28.5098
-32.1729
-36.3306
-41.0722
-46.5177
-52.8321
-60.1704
-68.6642
-79.6189
-95.3814
-8.39492
-9.50093
-10.831
-12.3061
-13.9387
-15.7607
-17.7996
-20.0846
-22.6498
-25.5355
-28.7891
-32.4686
-36.645
-41.4082
-46.8794
-53.2244
-60.599
-69.1353
-80.1343
-95.9284
-8.54619
-9.66898
-11.0113
-12.4983
-14.1436
-15.9785
-18.0305
-20.3289
-22.908
-25.8083
-29.0778
-32.7748
-36.9712
-41.7576
-47.2561
-53.6334
-61.0462
-69.6264
-80.6712
-96.4995
-8.71464
-9.85123
-11.2036
-12.701
-14.3579
-16.2051
-18.2699
-20.5817
-23.1749
-26.0904
-29.3766
-33.0921
-37.3095
-42.1204
-47.6476
-54.059
-61.5116
-70.1371
-81.2292
-97.0939
-8.89879
-10.0479
-11.409
-12.9157
-14.5833
-16.4422
-18.5194
-20.8443
-23.4518
-26.3828
-29.6861
-33.4209
-37.6604
-42.4968
-48.054
-54.5008
-61.9948
-70.6673
-81.808
-97.7107
-9.09748
-10.2587
-11.6277
-13.1429
-14.8205
-16.6905
-18.7797
-21.1177
-23.7394
-26.6862
-30.007
-33.7617
-38.0239
-42.8868
-48.4752
-54.9587
-62.4956
-71.2163
-82.4068
-98.3487
-9.31027
-10.4831
-11.8593
-13.3825
-15.0696
-16.9503
-19.0512
-21.4022
-24.0382
-27.0008
-30.3396
-34.1146
-38.4002
-43.2905
-48.9111
-55.4326
-63.0135
-71.7838
-83.025
-99.0069
-9.53657
-10.7206
-12.1034
-13.6342
-15.3305
-17.2216
-19.3341
-21.6979
-24.3482
-27.3269
-30.6838
-34.4797
-38.7894
-43.7078
-49.3615
-55.922
-63.5483
-72.3692
-83.662
-99.6844
-9.77541
-10.9703
-12.3595
-13.8975
-15.6028
-17.5041
-19.6281
-22.0047
-24.6695
-27.6644
-31.0398
-34.8568
-39.1912
-44.1384
-49.8262
-56.4267
-64.0994
-72.972
-84.3173
-100.381
-10.0256
-11.2313
-12.6266
-14.1717
-15.8859
-17.7974
-19.9328
-22.3223
-25.0016
-28.0129
-31.4071
-35.2458
-39.6053
-44.5821
-50.3046
-56.9461
-64.6664
-73.5919
-84.9904
-101.095
-10.286
-11.5025
-12.9037
-14.4559
-16.179
-18.1007
-20.2477
-22.6501
-25.3441
-28.3721
-31.7854
-35.6461
-40.0313
-45.0382
-50.7963
-57.4797
-65.2486
-74.2281
-85.6812
-101.828
-10.5554
-11.7826
-13.1898
-14.7493
-16.4814
-18.4134
-20.572
-22.9876
-25.6964
-28.7414
-32.174
-36.0572
-40.4686
-45.5062
-51.3006
-58.0266
-65.845
-74.8801
-86.3894
-102.58
-10.8327
-12.0707
-13.484
-15.0509
-16.7921
-18.7346
-20.905
-23.3339
-26.0578
-29.1201
-32.5725
-36.4785
-40.9165
-45.9854
-51.8166
-58.5859
-66.4546
-75.5465
-87.1147
-103.351
-11.1168
-12.3656
-13.7851
-15.3596
-17.1102
-19.0634
-21.2458
-23.6884
-26.4277
-29.5074
-32.9799
-36.9092
-41.3742
-46.4749
-52.3434
-59.1565
-67.0757
-76.2253
-87.8562
-104.145
-11.4066
-12.6664
-14.0923
-15.6747
-17.435
-19.3991
-21.5938
-24.0502
-26.8052
-29.9028
-33.3957
-37.3484
-41.8408
-46.9736
-52.8799
-59.737
-67.7065
-76.9126
-88.6081
-104.964
-6.85094
-6.50713
-6.3328
-6.22677
-6.15641
-6.10559
-6.07236
-6.05334
-6.04794
-6.05509
-6.07435
-6.10523
-6.14739
-6.2005
-6.26427
-6.33843
-6.42272
-6.51689
-6.62082
-6.73445
-8.03821
-7.75072
-7.54163
-7.41192
-7.32382
-7.26283
-7.22259
-7.19899
-7.19044
-7.1955
-7.21346
-7.24364
-7.28558
-7.33884
-7.4031
-7.47801
-7.56329
-7.65862
-7.7638
-7.8788
-9.30883
-9.06057
-8.85579
-8.71534
-8.61451
-8.54436
-8.49731
-8.46911
-8.45746
-8.46067
-8.47772
-8.50779
-8.55028
-8.60468
-8.67059
-8.74762
-8.83542
-8.93363
-9.04201
-9.16052
-10.7686
-10.5305
-10.3307
-10.1832
-10.072
-9.99213
-9.93683
-9.90224
-9.88567
-9.88528
-9.89983
-9.92834
-9.97009
-10.0245
-10.091
-10.1693
-10.2588
-10.3593
-10.4703
-10.5919
-12.3933
-12.1631
-11.9672
-11.8149
-11.6964
-11.6085
-11.5459
-11.5052
-11.4837
-11.4796
-11.4915
-11.5183
-11.5592
-11.6134
-11.6805
-11.7599
-11.8511
-11.9537
-12.0673
-12.192
-14.1955
-13.9745
-13.783
-13.628
-13.5044
-13.4104
-13.3416
-13.2956
-13.2697
-13.2622
-13.2716
-13.2968
-13.337
-13.3912
-13.459
-13.5398
-13.6329
-13.7379
-13.8545
-13.9826
-16.2061
-15.9927
-15.8052
-15.6488
-15.5216
-15.4225
-15.3486
-15.2977
-15.2678
-15.2571
-15.2642
-15.288
-15.3276
-15.382
-15.4508
-15.5331
-15.6285
-15.7362
-15.8561
-15.9882
-18.4567
-18.2485
-18.0637
-17.9064
-17.7762
-17.6729
-17.5945
-17.5393
-17.5057
-17.492
-17.497
-17.5195
-17.5586
-17.6135
-17.6834
-17.7676
-17.8656
-17.9765
-18.1001
-18.2367
-20.9807
-20.7754
-20.5919
-20.4334
-20.3006
-20.1935
-20.1111
-20.052
-20.0149
-19.9985
-20.0015
-20.023
-20.0619
-20.1174
-20.1888
-20.2753
-20.3762
-20.4908
-20.6188
-20.7604
-23.8165
-23.612
-23.4283
-23.268
-23.1324
-23.0217
-22.9354
-22.8726
-22.8322
-22.8132
-22.8145
-22.8351
-22.8741
-22.9306
-23.0038
-23.0931
-23.1975
-23.3163
-23.4493
-23.5968
-27.0098
-26.8039
-26.6182
-26.4552
-26.3161
-26.2015
-26.1112
-26.0446
-26.0011
-25.9796
-25.9792
-25.9991
-26.0383
-26.0961
-26.1715
-26.2639
-26.3723
-26.496
-26.6347
-26.7889
-30.6155
-30.4057
-30.2161
-30.0488
-29.9052
-29.7859
-29.6911
-29.6205
-29.5734
-29.5492
-29.5471
-29.5663
-29.6058
-29.6649
-29.7429
-29.8388
-29.9517
-30.0808
-30.2259
-30.3875
-34.7008
-34.4844
-34.2884
-34.1148
-33.965
-33.8398
-33.7394
-33.6637
-33.6124
-33.585
-33.5807
-33.5987
-33.6383
-33.6988
-33.7792
-33.8789
-33.9966
-34.1315
-34.2834
-34.4532
-39.351
-39.1244
-38.9188
-38.736
-38.5776
-38.4442
-38.3364
-38.2541
-38.1973
-38.1654
-38.1578
-38.1739
-38.2129
-38.2741
-38.3567
-38.4598
-38.5823
-38.7231
-38.8822
-39.0604
-44.681
-44.4397
-44.2203
-44.0244
-43.8538
-43.7091
-43.591
-43.4997
-43.435
-43.3965
-43.3839
-43.3964
-43.4334
-43.4942
-43.5779
-43.6836
-43.8103
-43.9566
-44.1224
-44.3087
-50.8495
-50.588
-50.3492
-50.1352
-49.9474
-49.787
-49.6545
-49.5503
-49.4743
-49.4262
-49.4056
-49.4119
-49.4444
-49.5025
-49.5853
-49.692
-49.8214
-49.9719
-50.1431
-50.3361
-58.0073
-57.7188
-57.4535
-57.214
-57.0024
-56.82
-56.6675
-56.5452
-56.4531
-56.3908
-56.3579
-56.3539
-56.3782
-56.43
-56.5085
-56.613
-56.742
-56.8941
-57.0682
-57.2653
-66.295
-65.9696
-65.6668
-65.392
-65.148
-64.9362
-64.757
-64.6103
-64.496
-64.4138
-64.3631
-64.3435
-64.3543
-64.3948
-64.4639
-64.561
-64.6852
-64.8356
-65.0111
-65.2106
-77.0491
-76.6669
-76.3118
-75.9924
-75.7092
-75.4622
-75.2507
-75.0745
-74.9329
-74.8256
-74.752
-74.7117
-74.7041
-74.7285
-74.7837
-74.8691
-74.9856
-75.1354
-75.3171
-75.5198
-92.6586
-92.1987
-91.7913
-91.4307
-91.1127
-90.8341
-90.5935
-90.3901
-90.2233
-90.0925
-89.9975
-89.9379
-89.9134
-89.9233
-89.9668
-90.0438
-90.1574
-90.3141
-90.5127
-90.7212
-6.85742
-6.98888
-7.12875
-7.27679
-7.43287
-7.59681
-7.76841
-7.94747
-8.13368
-8.3267
-8.52606
-8.73074
-8.93851
-9.1465
-9.35307
-9.55304
-9.72506
-9.84646
-9.93508
-10.0083
-8.00335
-8.13652
-8.27822
-8.42816
-8.58614
-8.75193
-8.92529
-9.1059
-9.29341
-9.48731
-9.68689
-9.89099
-10.0977
-10.3041
-10.5068
-10.7021
-10.8815
-11.023
-11.1005
-11.1824
-9.28894
-9.42624
-9.57235
-9.72691
-9.8897
-10.0604
-10.2387
-10.4243
-10.6166
-10.8151
-11.0189
-11.2268
-11.4368
-11.6465
-11.8525
-12.0513
-12.2385
-12.4009
-12.5213
-12.6443
-10.7238
-10.865
-11.0152
-11.1743
-11.3417
-11.5173
-11.7006
-11.8912
-12.0885
-12.2917
-12.5001
-12.7121
-12.9261
-13.1396
-13.3499
-13.5537
-13.7474
-13.9234
-14.0793
-14.245
-12.3275
-12.4726
-12.6271
-12.7906
-12.9629
-13.1434
-13.3317
-13.5274
-13.7298
-13.938
-14.1512
-14.368
-14.5865
-14.8048
-15.0206
-15.2311
-15.433
-15.6223
-15.8032
-15.9973
-14.1221
-14.2715
-14.4306
-14.5991
-14.7766
-14.9625
-15.1565
-15.3579
-15.566
-15.78
-15.9989
-16.2213
-16.4458
-16.6703
-16.8932
-17.1123
-17.325
-17.5293
-17.7311
-17.9447
-16.1321
-16.2863
-16.4507
-16.6247
-16.8081
-17.0001
-17.2004
-17.4083
-17.623
-17.8438
-18.0695
-18.299
-18.5307
-18.7632
-18.995
-19.2243
-19.4495
-19.6702
-19.8913
-20.1221
-18.3857
-18.5453
-18.7156
-18.896
-19.086
-19.285
-19.4925
-19.7079
-19.9304
-20.159
-20.3929
-20.6309
-20.8716
-21.1137
-21.3561
-21.5975
-21.8367
-22.0742
-22.314
-22.5621
-20.9152
-21.0812
-21.2582
-21.4457
-21.6433
-21.8504
-22.0663
-22.2903
-22.5218
-22.7598
-23.0034
-23.2515
-23.5029
-23.7566
-24.0115
-24.2667
-24.5215
-24.7765
-25.035
-25.3012
-23.7582
-23.9313
-24.116
-24.3117
-24.5181
-24.7343
-24.9599
-25.194
-25.436
-25.6849
-25.9399
-26.2
-26.4642
-26.7314
-27.0009
-27.2718
-27.5439
-27.8177
-28.0957
-28.3813
-26.9578
-27.139
-27.3324
-27.5376
-27.7538
-27.9806
-28.2173
-28.463
-28.7172
-28.9789
-29.2473
-29.5214
-29.8004
-30.0833
-30.3696
-30.6586
-30.9499
-31.2441
-31.543
-31.8497
-30.5649
-30.7551
-30.9584
-31.174
-31.4015
-31.6402
-31.8895
-32.1485
-32.4167
-32.6931
-32.9769
-33.2673
-33.5634
-33.8645
-34.17
-34.4794
-34.7922
-35.1087
-35.4306
-35.7608
-34.6398
-34.8399
-35.0539
-35.2811
-35.521
-35.7729
-36.0363
-36.3103
-36.5942
-36.8873
-37.1887
-37.4976
-37.8132
-38.135
-38.4623
-38.7946
-39.1314
-39.4727
-39.82
-40.1763
-39.2566
-39.4671
-39.6923
-39.9317
-40.1849
-40.4512
-40.7299
-41.0203
-41.3216
-41.6331
-41.954
-42.2836
-42.6211
-42.9658
-43.3174
-43.6753
-44.0387
-44.4074
-44.7828
-45.168
-44.5142
-44.7347
-44.9711
-45.2229
-45.4897
-45.7707
-46.0654
-46.373
-46.6928
-47.0241
-47.366
-47.7179
-48.0791
-48.449
-48.827
-49.2128
-49.6054
-50.0042
-50.4103
-50.8269
-50.5494
-50.7788
-51.0252
-51.2883
-51.5677
-51.8629
-52.1732
-52.4979
-52.8363
-53.1876
-53.5511
-53.9262
-54.312
-54.7081
-55.1141
-55.5295
-55.9533
-56.3842
-56.8229
-57.2725
-57.484
-57.7193
-57.9727
-58.2441
-58.5335
-58.8404
-59.1642
-59.5042
-59.8597
-60.2297
-60.6137
-61.011
-61.4209
-61.8429
-62.2765
-62.7212
-63.1761
-63.6397
-64.1116
-64.5948
-65.4306
-65.6658
-65.9195
-66.1932
-66.4873
-66.8013
-67.1344
-67.4857
-67.8543
-68.2394
-68.6403
-69.0564
-69.4869
-69.9314
-70.3891
-70.8596
-71.3429
-71.8387
-72.3462
-72.8647
-75.7274
-75.9484
-76.1912
-76.4592
-76.7512
-77.0661
-77.4024
-77.7588
-78.1345
-78.5283
-78.9398
-79.3683
-79.8133
-80.2743
-80.7503
-81.2413
-81.7501
-82.2816
-82.835
-83.3926
-90.8829
-91.0715
-91.2972
-91.5549
-91.8408
-92.1518
-92.4859
-92.8418
-93.2182
-93.6144
-94.0298
-94.4642
-94.9175
-95.3895
-95.8798
-96.3892
-96.9243
-97.4974
-98.1079
-98.703
-99.1885
-83.9286
-73.3896
-65.088
-57.7319
-51.253
-45.5623
-40.5414
-36.0995
-32.1649
-28.6754
-25.5766
-22.8208
-20.3662
-18.1764
-16.2185
-14.4585
-12.8691
-11.4702
-10.2864
-99.6903
-84.4595
-73.9142
-65.5848
-58.1954
-51.6835
-45.9614
-40.9116
-36.4438
-32.4861
-28.9762
-25.8594
-23.0877
-20.6192
-18.4174
-16.4494
-14.6843
-13.103
-11.7255
-10.5324
-100.227
-85.0004
-74.4444
-66.0885
-58.6661
-52.1207
-46.3671
-41.2885
-36.795
-32.8145
-29.2846
-26.1503
-23.3634
-20.8818
-18.6686
-16.6912
-14.9197
-13.3342
-11.9435
-10.7192
-100.792
-85.5585
-74.9847
-66.6005
-59.1446
-52.5653
-46.7799
-41.6724
-37.1532
-33.1502
-29.6005
-26.449
-23.647
-21.1523
-18.9277
-16.9407
-15.1615
-13.5689
-12.1663
-10.9241
-101.379
-86.1332
-75.5367
-67.1217
-59.6313
-53.0175
-47.1999
-42.0634
-37.5185
-33.493
-29.9237
-26.7551
-23.9383
-21.4306
-19.1946
-17.1974
-15.4092
-13.8078
-12.393
-11.1372
-101.985
-86.7237
-76.1008
-67.6526
-60.1263
-53.4774
-47.6271
-42.4614
-37.8907
-33.8427
-30.254
-27.0684
-24.2368
-21.7161
-19.4687
-17.4614
-15.6644
-14.0548
-12.6301
-11.3631
-102.608
-87.3285
-76.6766
-68.1931
-60.6296
-53.9447
-48.0613
-42.8661
-38.2696
-34.1991
-30.5908
-27.3883
-24.542
-22.0084
-19.7496
-17.7321
-15.9261
-14.3087
-12.8745
-11.5974
-103.245
-87.9463
-77.2633
-68.7428
-61.1409
-54.4191
-48.5022
-43.2771
-38.6546
-34.5616
-30.9338
-27.7145
-24.8534
-22.3069
-20.0366
-18.0091
-16.1943
-14.5691
-13.1259
-11.8388
-103.896
-88.5762
-77.8603
-69.3011
-61.6596
-54.9002
-48.9492
-43.6941
-39.0454
-34.9298
-31.2825
-28.0462
-25.1704
-22.611
-20.3293
-18.2916
-16.468
-14.8349
-13.3825
-12.0858
-104.56
-89.217
-78.4666
-69.8674
-62.1852
-55.3874
-49.4019
-44.1164
-39.4414
-35.3031
-31.6362
-28.383
-25.4924
-22.92
-20.6268
-18.5789
-16.7463
-15.1051
-13.6435
-12.3371
-105.236
-89.868
-79.0815
-70.4409
-62.7169
-55.8801
-49.8596
-44.5436
-39.8421
-35.6809
-31.9944
-28.7242
-25.8188
-23.2333
-20.9286
-18.8703
-17.0285
-15.3789
-13.908
-12.592
-105.922
-90.5281
-79.704
-71.0208
-63.2541
-56.3777
-50.3218
-44.9749
-40.2467
-36.0627
-32.3565
-29.0692
-26.1489
-23.5503
-21.2339
-19.1651
-17.3139
-15.6558
-14.1753
-12.8498
-106.619
-91.1966
-80.3333
-71.6062
-63.7959
-56.8792
-50.7876
-45.4096
-40.6548
-36.4478
-32.7219
-29.4174
-26.4822
-23.8704
-21.5422
-19.4628
-17.6021
-15.9351
-14.4448
-13.1099
-107.325
-91.8723
-80.9682
-72.1962
-64.3415
-57.384
-51.2564
-45.8472
-41.0655
-36.8356
-33.0899
-29.7683
-26.8181
-24.193
-21.8529
-19.7628
-17.8924
-16.2163
-14.7162
-13.3721
-108.039
-92.5538
-81.6077
-72.7898
-64.8901
-57.8913
-51.7274
-46.2868
-41.4783
-37.2254
-33.4599
-30.1212
-27.156
-24.5176
-22.1656
-20.0646
-18.1844
-16.4991
-14.989
-13.6359
-108.761
-93.2402
-82.2505
-73.386
-65.4406
-58.4001
-52.1996
-46.7277
-41.8924
-37.6166
-33.8314
-30.4756
-27.4954
-24.8437
-22.4797
-20.3679
-18.4778
-16.7831
-15.2631
-13.9012
-109.493
-93.9323
-82.8959
-73.9833
-65.9914
-58.9089
-52.6718
-47.1687
-42.3068
-38.0082
-34.2035
-30.8307
-27.8356
-25.1707
-22.7948
-20.6722
-18.7722
-17.0681
-15.538
-14.1677
-110.243
-94.632
-83.5425
-74.5798
-66.541
-59.4164
-53.143
-47.6088
-42.7206
-38.3996
-34.5755
-31.186
-28.1761
-25.4981
-23.1104
-20.9771
-19.0672
-17.3537
-15.8137
-14.4354
-111.008
-95.3375
-84.1891
-75.1744
-67.0889
-59.9227
-53.6132
-48.0482
-43.1338
-38.7905
-34.9473
-31.5412
-28.5167
-25.8257
-23.4263
-21.2823
-19.3626
-17.6397
-16.09
-14.7042
-111.755
-96.0368
-84.8339
-75.7681
-67.6365
-60.4291
-54.0836
-48.4879
-43.5474
-39.1819
-35.3195
-31.8967
-28.8576
-26.1536
-23.7425
-21.5879
-19.6584
-17.9261
-16.3669
-14.974
-11.3739
-7.35516
-5.01295
-3.40096
-2.3665
-1.66247
-1.18587
-0.86273
-0.645946
-0.503426
-0.412802
-0.35815
-0.328085
-0.314452
-0.311505
-0.31529
-0.323236
-0.33385
-0.346523
-0.361415
-0.37941
-0.402068
-0.431369
-0.469088
-0.51572
-0.569228
-0.624122
-0.671764
-0.70161
-0.703537
-0.670545
-0.602735
-0.508491
-0.402781
-0.300151
-0.210165
-0.138255
-0.0804908
-0.0430412
-0.00338306
-11.652
-7.56091
-5.17666
-3.52923
-2.46543
-1.74102
-1.24836
-0.913132
-0.687015
-0.537239
-0.440893
-0.381672
-0.347909
-0.331252
-0.325802
-0.327499
-0.333682
-0.342788
-0.354143
-0.367845
-0.384706
-0.406202
-0.434208
-0.470396
-0.515185
-0.566554
-0.619152
-0.664596
-0.692682
-0.693656
-0.66083
-0.594344
-0.502263
-0.398921
-0.298333
-0.209742
-0.13863
-0.0810884
-0.0436041
-0.00351298
-11.9318
-7.77188
-5.3453
-3.66196
-2.56749
-1.82177
-1.3124
-0.964539
-0.728707
-0.571404