/*--------------------------------*- C++ -*----------------------------------*\
  =========                 |
  \\      /  F ield         | OpenFOAM: The Open Source CFD Toolbox
   \\    /   O peration     | Website:  https://openfoam.org
    \\  /    A nd           | Version:  6.0
     \\/     M anipulation  |
\*---------------------------------------------------------------------------*/
FoamFile
{
    version     2.0;
    format      ascii;
    class       volScalarField;
    location    "4";
    object      p;
}
// * * * * * * * * * * * * * * * * * * * * * * * * * * * * * * * * * * * * * //

dimensions      [0 2 -2 0 0 0 0];

internalField   nonuniform List<scalar> 
2400
(
-30.8737
-22.5111
-17.3412
-13.7305
-10.8869
-8.67877
-6.98324
-5.67079
-4.64186
-3.85331
-31.3121
-22.9012
-17.6756
-14.017
-11.1373
-8.90327
-7.18907
-5.86236
-4.82178
-4.02535
-31.7476
-23.2833
-18.002
-14.2975
-11.3838
-9.12606
-7.39521
-6.05603
-5.0056
-4.2031
-32.1772
-23.6567
-18.3189
-14.5696
-11.6239
-9.34439
-7.59886
-6.24918
-5.19114
-4.38518
-32.5969
-24.0183
-18.624
-14.8311
-11.855
-9.5553
-7.79656
-6.43791
-5.37434
-4.56733
-33.0026
-24.3644
-18.9139
-15.079
-12.0743
-9.75635
-7.9858
-6.61917
-5.55091
-4.74306
-33.3923
-24.6916
-19.1841
-15.3084
-12.2777
-9.94433
-8.165
-6.7927
-5.72073
-4.9121
-33.767
-24.998
-19.4304
-15.5132
-12.4571
-10.1102
-8.32538
-6.95211
-5.8837
-5.08839
-34.1258
-25.2829
-19.6512
-15.6897
-12.6049
-10.2398
-8.4442
-7.06826
-6.01538
-5.26738
-34.4546
-25.5435
-19.8495
-15.8425
-12.7246
-10.3319
-8.50928
-7.11058
-6.05642
-5.33018
-35.9659
-35.9877
-35.956
-35.879
-35.7602
-35.6057
-35.4199
-35.2084
-34.9765
-34.7269
-26.5725
-26.6288
-26.643
-26.6127
-26.5425
-26.4394
-26.3076
-26.1508
-25.9728
-25.7724
-20.5517
-20.6211
-20.6535
-20.6447
-20.6012
-20.5293
-20.4328
-20.3157
-20.181
-20.0269
-16.4008
-16.4633
-16.4914
-16.4839
-16.4465
-16.3847
-16.304
-16.2083
-16.0997
-15.9785
-13.2431
-13.2906
-13.3064
-13.2909
-13.2494
-13.1871
-13.1099
-13.0217
-12.9281
-12.8297
-10.8548
-10.887
-10.8894
-10.8635
-10.8139
-10.7459
-10.6655
-10.5779
-10.4926
-10.4097
-9.05021
-9.0693
-9.05996
-9.02411
-8.9657
-8.88964
-8.80271
-8.71145
-8.63061
-8.55758
-7.66671
-7.67588
-7.65749
-7.61353
-7.54704
-7.46247
-7.36703
-7.26904
-7.19072
-7.12453
-6.58751
-6.59022
-6.56628
-6.51766
-6.44618
-6.35547
-6.25154
-6.14407
-6.06629
-6.01641
-5.74627
-5.74067
-5.7105
-5.65757
-5.5824
-5.48766
-5.37539
-5.25394
-5.15562
-5.12472
-32.3125
-32.9173
-33.4741
-33.9858
-34.4464
-34.8512
-35.1956
-35.4782
-35.7014
-35.8659
-23.0698
-23.6289
-24.1531
-24.6345
-25.0693
-25.4545
-25.7872
-26.0656
-26.2922
-26.4633
-17.3678
-17.8701
-18.3428
-18.7768
-19.1686
-19.5163
-19.8182
-20.0732
-20.2828
-20.4431
-13.5848
-14.0332
-14.4541
-14.8396
-15.1861
-15.4922
-15.7573
-15.9811
-16.1641
-16.304
-10.7671
-11.1712
-11.5482
-11.8914
-12.1975
-12.4659
-12.6967
-12.8899
-13.0459
-13.1633
-8.66297
-9.03468
-9.37757
-9.68525
-9.9571
-10.1939
-10.3956
-10.5625
-10.6948
-10.7919
-7.08079
-7.43282
-7.75091
-8.02936
-8.27301
-8.48399
-8.66214
-8.80773
-8.92094
-9.00161
-5.86231
-6.2004
-6.50235
-6.75919
-6.98095
-7.1717
-7.33171
-7.46129
-7.56042
-7.62884
-4.93121
-5.23904
-5.52265
-5.76565
-5.97155
-6.14554
-6.29083
-6.40827
-6.49722
-6.55702
-4.34627
-4.59683
-4.82124
-5.04331
-5.23059
-5.38081
-5.50417
-5.60388
-5.67834
-5.72598
-1.0978
-1.65262
-2.41202
-3.4014
-4.70596
-6.45301
-8.79606
-11.953
-16.8752
-25.3363
-1.3727
-1.94422
-2.71732
-3.72439
-5.05269
-6.8317
-9.21837
-12.434
-17.4309
-25.9687
-1.66215
-2.25183
-3.03988
-4.06628
-5.42011
-7.23305
-9.66568
-12.9428
-18.0155
-26.6274
-1.96451
-2.57332
-3.37714
-4.4241
-5.8048
-7.65298
-10.1329
-13.4736
-18.6251
-27.3144
-2.27851
-2.90688
-3.72685
-4.79525
-6.20381
-8.08828
-10.6167
-14.0218
-19.2543
-28.023
-2.60384
-3.25104
-4.08661
-5.1767
-6.61372
-8.53524
-11.1129
-14.5831
-19.8972
-28.7458
-2.93999
-3.60436
-4.45397
-5.56531
-7.03087
-8.98978
-11.617
-15.1527
-20.5479
-29.4753
-3.28546
-3.96181
-4.82258
-5.95501
-7.44969
-9.44633
-12.123
-15.7243
-21.1991
-30.2042
-3.64012
-4.3209
-5.18821
-6.3417
-7.86562
-9.89911
-12.6248
-16.2904
-21.8452
-30.9275
-3.97957
-4.64691
-5.53146
-6.7162
-8.27196
-10.3418
-13.1147
-16.8415
-22.474
-31.6364
0.384436
-0.03352
-0.675207
-1.54733
-2.7032
-4.24642
-6.29967
-9.03751
-13.3796
-21.1954
0.317705
-0.118455
-0.773401
-1.64603
-2.80024
-4.34576
-6.40809
-9.16455
-13.5376
-21.393
0.284328
-0.181665
-0.857293
-1.74256
-2.90767
-4.46582
-6.54572
-9.32849
-13.7382
-21.6335
0.214979
-0.265257
-0.953817
-1.85199
-3.03181
-4.60779
-6.71126
-9.52747
-13.983
-21.9278
0.108202
-0.379936
-1.07793
-1.98751
-3.18205
-4.77741
-6.90769
-9.76251
-14.2715
-22.2744
-0.0280518
-0.524272
-1.2315
-2.15252
-3.36232
-4.9784
-7.13798
-10.0353
-14.6029
-22.6699
-0.191982
-0.697406
-1.41399
-2.34695
-3.5731
-5.21173
-7.40321
-10.3464
-14.9769
-23.1127
-0.383366
-0.898952
-1.62502
-2.57049
-3.81417
-5.47721
-7.70321
-10.6958
-15.3935
-23.6023
-0.600264
-1.12723
-1.86331
-2.82215
-4.08464
-5.77391
-8.03691
-11.0823
-15.852
-24.1382
-0.83953
-1.37951
-2.12663
-3.10004
-4.38278
-6.10007
-8.40218
-11.5027
-16.348
-24.7187
0.610671
0.691577
0.694164
0.655796
0.584026
0.486333
0.365777
0.226024
0.0696988
-0.100978
0.0903439
0.153547
0.165147
0.131681
0.0617997
-0.0369389
-0.160636
-0.305302
-0.468035
-0.646361
-0.57376
-0.525994
-0.518551
-0.553365
-0.624735
-0.726919
-0.855801
-1.00738
-1.17858
-1.36678
-1.46022
-1.41793
-1.41448
-1.45167
-1.52546
-1.63167
-1.76639
-1.92572
-2.10645
-2.30587
-2.62725
-2.58909
-2.58933
-2.62966
-2.70722
-2.81882
-2.96085
-3.12958
-3.32171
-3.53447
-4.17522
-4.13982
-4.14314
-4.18671
-4.26878
-4.38684
-4.5376
-4.71747
-4.92311
-5.15167
-6.22533
-6.18795
-6.19089
-6.23543
-6.32064
-6.44447
-6.60393
-6.79554
-7.0159
-7.26221
-8.94957
-8.90069
-8.89497
-8.93403
-9.01736
-9.14314
-9.30856
-9.51038
-9.74522
-10.01
-13.2598
-13.1826
-13.1543
-13.177
-13.2498
-13.3705
-13.5365
-13.7453
-13.9933
-14.2751
-21.0182
-20.8951
-20.833
-20.8304
-20.885
-20.9941
-21.1554
-21.3669
-21.6252
-21.9182
-0.284161
-0.478073
-0.681513
-0.892736
-1.10897
-1.32458
-1.52845
-1.70607
-1.84915
-1.97775
-0.838191
-1.04127
-1.25391
-1.47368
-1.69736
-1.92053
-2.13572
-2.32731
-2.47981
-2.63861
-1.56966
-1.78449
-2.00921
-2.24105
-2.47666
-2.71198
-2.94096
-3.15225
-3.33905
-3.53395
-2.52132
-2.74959
-2.98832
-3.2345
-3.48475
-3.73499
-3.97949
-4.21099
-4.43047
-4.65843
-3.76487
-4.00922
-4.26496
-4.5289
-4.79766
-5.0672
-5.33228
-5.58852
-5.8395
-6.09714
-5.39993
-5.66373
-5.94033
-6.22641
-6.51859
-6.813
-7.10517
-7.39236
-7.67755
-7.96684
-7.53096
-7.81728
-8.11839
-8.43088
-8.75133
-9.07603
-9.40139
-9.7254
-10.0494
-10.3761
-10.3002
-10.6102
-10.9375
-11.2789
-11.6308
-11.9896
-12.3525
-12.7179
-13.086
-13.457
-14.5824
-14.912
-15.2629
-15.6319
-16.0148
-16.4079
-16.8093
-17.2192
-17.6359
-18.0548
-22.2269
-22.565
-22.9314
-23.3208
-23.7282
-24.1496
-24.5842
-25.0335
-25.4951
-25.9545
-26.3857
-18.468
-13.8283
-10.7037
-8.25847
-6.36193
-4.90562
-3.77859
-2.91118
-2.28195
-26.8188
-18.876
-14.1945
-11.0264
-8.54422
-6.6189
-5.14252
-4.0072
-3.14413
-2.50783
-27.2581
-19.2821
-14.5562
-11.3436
-8.82322
-6.86755
-5.36832
-4.21562
-3.33244
-2.66489
-27.7017
-19.6875
-14.9137
-11.6546
-9.0943
-7.10644
-5.58171
-4.40756
-3.50184
-2.81029
-28.1483
-20.0921
-15.2674
-11.96
-9.35872
-7.33751
-5.78575
-4.58843
-3.66003
-2.94846
-28.5976
-20.4961
-15.6181
-12.2611
-9.61808
-7.56333
-5.98474
-4.7651
-3.8162
-3.08767
-29.0507
-20.9001
-15.9664
-12.5589
-9.87407
-7.78618
-6.18147
-4.94054
-3.97266
-3.22913
-29.5095
-21.3054
-16.3131
-12.8543
-10.1281
-8.00808
-6.37849
-5.11764
-4.13234
-3.37537
-29.9728
-21.711
-16.6582
-13.148
-10.3813
-8.23037
-6.57729
-5.29787
-4.29661
-3.52774
-30.4325
-22.1141
-17.0011
-13.4401
-10.6343
-8.45399
-6.7789
-5.48229
-4.46651
-3.68717
-2.04657
-1.02444
-0.65186
-0.430785
-0.316585
-0.244274
-0.190779
-0.14295
-0.0987137
-0.0621704
-0.0363476
-0.0203715
-0.0112286
-0.00614872
-0.00333842
-0.00179406
-0.000954501
-0.000488683
-0.000233615
-8.93968e-06
-2.21515
-1.09228
-0.684914
-0.446174
-0.320533
-0.242988
-0.187831
-0.140883
-0.0986396
-0.0637432
-0.0386688
-0.0227389
-0.013292
-0.0077944
-0.00457993
-0.00268338
-0.00156018
-0.000872706
-0.000442945
-5.88538e-05
-2.39586
-1.17414
-0.723997
-0.466324
-0.327885
-0.244285
-0.186826
-0.140136
-0.0993572
-0.0657639
-0.0412381
-0.0252378
-0.0154195
-0.00947183
-0.00583429
-0.00357943
-0.00216859
-0.00125556
-0.000650973
-0.000109985
-2.58965
-1.26986
-0.768823
-0.491027
-0.338714
-0.248189
-0.187768
-0.140711
-0.100862
-0.0682212
-0.0440448
-0.0278611
-0.0176085
-0.011178
-0.00710139
-0.00448083
-0.00277887
-0.0016386
-0.000858809
-0.000161713
-2.7896
-1.37301
-0.816319
-0.518995
-0.352683
-0.254555
-0.190578
-0.14257
-0.103137
-0.0711006
-0.0470775
-0.0306022
-0.0198556
-0.0129111
-0.0083802
-0.00538697
-0.00339091
-0.00202215
-0.00106687
-0.000214414
-2.98099
-1.47814
-0.86582
-0.549877
-0.369602
-0.263195
-0.195107
-0.145623
-0.106133
-0.0743735
-0.0503178
-0.0334507
-0.0221559
-0.0146686
-0.00966937
-0.00629713
-0.00400455
-0.00240648
-0.00127549
-0.000268409
-3.17582
-1.60994
-0.932581
-0.589652
-0.39157
-0.274814
-0.201569
-0.149926
-0.10986
-0.0780277
-0.0537478
-0.0363911
-0.024498
-0.0164432
-0.0109644
-0.00720872
-0.00461842
-0.00279097
-0.00148448
-0.000323831
-3.45788
-1.82685
-1.04382
-0.649467
-0.423488
-0.291766
-0.211133
-0.156095
-0.114648
-0.0822278
-0.0574343
-0.0394407
-0.0268792
-0.0182266
-0.0122575
-0.00811635
-0.00522928
-0.00317397
-0.00169318
-0.000380634
-3.83835
-2.09815
-1.17835
-0.719968
-0.462654
-0.31349
-0.22379
-0.164337
-0.120783
-0.0872333
-0.0615621
-0.042713
-0.0293636
-0.0200538
-0.0135675
-0.00902963
-0.00584182
-0.00355753
-0.00190238
-0.000439281
-3.87077
-2.16452
-1.21004
-0.742643
-0.481672
-0.325911
-0.23165
-0.17008
-0.125739
-0.0918278
-0.0656805
-0.0461391
-0.0320299
-0.0220319
-0.0149831
-0.0100084
-0.00649152
-0.00395945
-0.00211957
-0.000502569
-3.33744
-1.9997
-1.12052
-0.70142
-0.467592
-0.319013
-0.226591
-0.166722
-0.124752
-0.093392
-0.0690297
-0.050103
-0.0357171
-0.0250266
-0.0172147
-0.0115679
-0.00752127
-0.00458528
-0.00245072
-0.000601247
-2.81699
-1.84783
-1.08503
-0.693142
-0.47613
-0.331238
-0.236763
-0.175167
-0.132235
-0.100267
-0.0752974
-0.0555455
-0.0401595
-0.0284537
-0.019736
-0.0133438
-0.00871426
-0.00532903
-0.00285274
-0.000716589
-2.34896
-1.67263
-1.04533
-0.681705
-0.481096
-0.344496
-0.249877
-0.186556
-0.142171
-0.10888
-0.0826507
-0.0616442
-0.0450238
-0.0321767
-0.0224754
-0.0152812
-0.0100228
-0.00615059
-0.00329859
-0.000844826
-1.93518
-1.48399
-1.00157
-0.676675
-0.487585
-0.358911
-0.265312
-0.200096
-0.153837
-0.118907
-0.0911618
-0.0686826
-0.0506284
-0.0364585
-0.0256179
-0.017497
-0.0115148
-0.00708496
-0.00380348
-0.000991587
-1.59512
-1.29539
-0.941803
-0.668031
-0.493371
-0.373357
-0.282795
-0.216244
-0.167747
-0.130707
-0.101018
-0.076721
-0.0569685
-0.0412723
-0.0291358
-0.0199695
-0.0131754
-0.00812327
-0.00436255
-0.00115531
-1.31892
-1.12186
-0.873748
-0.656474
-0.500207
-0.388153
-0.301435
-0.234431
-0.183654
-0.144129
-0.112085
-0.0856195
-0.0639128
-0.0465107
-0.0329494
-0.0226437
-0.0149686
-0.00924373
-0.00496422
-0.00133261
-1.10635
-0.976129
-0.805538
-0.639975
-0.50555
-0.40206
-0.319634
-0.253223
-0.200584
-0.158487
-0.123876
-0.095032
-0.0712081
-0.0519882
-0.0369256
-0.0254269
-0.0168322
-0.0104074
-0.00558746
-0.00151735
-0.951723
-0.862745
-0.74489
-0.620765
-0.508335
-0.414106
-0.335956
-0.270807
-0.216992
-0.172598
-0.135499
-0.104301
-0.0783744
-0.0573553
-0.0408146
-0.0281453
-0.0186504
-0.0115419
-0.00619348
-0.00169802
-0.84815
-0.78325
-0.698185
-0.60288
-0.508548
-0.423028
-0.348782
-0.285084
-0.230772
-0.184683
-0.145529
-0.112328
-0.0845866
-0.0620072
-0.0441835
-0.0304993
-0.0202239
-0.0125231
-0.00671607
-0.00185486
-0.793128
-0.73973
-0.671144
-0.591357
-0.507817
-0.428052
-0.356417
-0.293751
-0.239331
-0.192317
-0.151916
-0.11746
-0.0885708
-0.0649954
-0.0463496
-0.0320139
-0.0212366
-0.0131549
-0.00705069
-0.00195614
-4.68674
-4.64938
-4.59179
-4.51546
-4.41925
-4.30487
-4.16589
-4.01133
-3.8243
-3.72104
-3.62874
-3.5826
-3.52337
-3.45331
-3.37295
-3.28569
-3.19139
-3.10476
-3.02178
-3.00279
-2.8514
-2.81719
-2.77728
-2.73409
-2.68906
-2.64438
-2.59941
-2.55708
-2.50861
-2.47964
-2.25466
-2.23423
-2.21062
-2.18463
-2.15636
-2.12578
-2.09198
-2.05663
-2.01937
-1.9983
-1.79573
-1.78388
-1.76928
-1.7523
-1.73333
-1.71294
-1.69167
-1.67082
-1.65022
-1.63673
-1.45156
-1.44607
-1.43847
-1.42902
-1.41804
-1.40582
-1.3925
-1.37837
-1.36337
-1.35075
-1.2009
-1.19935
-1.19586
-1.19058
-1.18368
-1.17532
-1.1657
-1.15506
-1.14359
-1.13258
-1.02486
-1.02545
-1.02425
-1.02136
-1.0169
-1.01101
-1.00382
-0.995489
-0.986141
-0.976243
-0.910002
-0.911609
-0.911555
-0.909906
-0.906745
-0.902168
-0.896278
-0.889184
-0.881004
-0.871931
-0.850535
-0.852513
-0.852923
-0.851811
-0.849232
-0.845251
-0.839943
-0.833389
-0.825677
-0.816895
-3.96418
-4.18962
-4.20074
-4.32679
-4.46162
-4.5516
-4.61469
-4.66258
-4.69291
-4.70167
-3.39717
-3.56567
-3.45806
-3.472
-3.56185
-3.62546
-3.65469
-3.66852
-3.67123
-3.65883
-2.77471
-2.90207
-2.78826
-2.76076
-2.82201
-2.87818
-2.89967
-2.90094
-2.89324
-2.87719
-2.20417
-2.31189
-2.23223
-2.19748
-2.23221
-2.27433
-2.29213
-2.29128
-2.283
-2.27094
-1.74047
-1.82635
-1.78429
-1.75743
-1.77331
-1.79971
-1.81386
-1.81551
-1.81135
-1.80474
-1.37786
-1.43715
-1.42252
-1.41086
-1.42069
-1.43788
-1.44998
-1.45516
-1.45615
-1.45486
-1.10568
-1.14454
-1.1472
-1.14965
-1.16069
-1.17461
-1.18595
-1.19348
-1.19806
-1.20046
-0.917593
-0.945163
-0.956802
-0.967152
-0.979755
-0.992514
-1.00339
-1.01185
-1.01812
-1.02242
-0.801349
-0.823193
-0.838038
-0.851117
-0.863942
-0.875902
-0.886292
-0.894871
-0.901654
-0.906691
-0.743745
-0.763137
-0.778756
-0.792433
-0.805048
-0.816508
-0.826527
-0.834959
-0.841769
-0.846958
0.434641
0.425022
0.402053
0.35788
0.284204
0.154816
-0.0516054
-0.43554
-1.052
-2.5177
0.36783
0.355956
0.329146
0.278769
0.196758
0.0550877
-0.162099
-0.565514
-1.1643
-2.40091
0.293943
0.280573
0.251116
0.196822
0.111038
-0.0340113
-0.244905
-0.620654
-1.13421
-2.00602
0.213747
0.199249
0.167779
0.111369
0.0245657
-0.115427
-0.311944
-0.622676
-1.04402
-1.62534
0.129069
0.114035
0.0815042
0.0253867
-0.0598118
-0.186686
-0.364479
-0.602335
-0.93963
-1.33773
0.0429612
0.0281837
-0.00401207
-0.0571572
-0.137307
-0.246525
-0.400429
-0.580767
-0.839143
-1.12193
-0.0401481
-0.0539654
-0.0842351
-0.132435
-0.204028
-0.295833
-0.422381
-0.563111
-0.752008
-0.951544
-0.114588
-0.127039
-0.15415
-0.196556
-0.257839
-0.334713
-0.435299
-0.546831
-0.682232
-0.821769
-0.173648
-0.184675
-0.208341
-0.245242
-0.297091
-0.361985
-0.442394
-0.532022
-0.632697
-0.735048
-0.20911
-0.219112
-0.240313
-0.273433
-0.319198
-0.37653
-0.445357
-0.52227
-0.60566
-0.690171
0.822889
0.82483
0.829587
0.833434
0.833767
0.819793
0.783139
0.686836
0.487422
0.0446369
0.784621
0.785427
0.787242
0.786278
0.779211
0.754661
0.700544
0.582608
0.333484
-0.155479
0.746246
0.745941
0.744858
0.739112
0.724652
0.689452
0.617721
0.477398
0.178139
-0.362389
0.7079
0.706519
0.70261
0.692131
0.670336
0.624379
0.535105
0.371388
0.0222282
-0.575346
0.669712
0.6673
0.660664
0.645517
0.61649
0.559629
0.453091
0.264641
-0.133227
-0.794213
0.631799
0.628413
0.619171
0.599438
0.563311
0.495371
0.372023
0.157096
-0.286999
-1.02082
0.594274
0.589993
0.578285
0.554062
0.51098
0.43177
0.292167
0.0485846
-0.437451
-1.25738
0.557246
0.552194
0.538198
0.509599
0.459686
0.369003
0.213678
-0.0610732
-0.583372
-1.51383
0.520778
0.51508
0.498987
0.466143
0.409482
0.307119
0.136361
-0.17213
-0.721759
-1.78851
0.48477
0.478182
0.459908
0.422859
0.359542
0.245719
0.0596128
-0.285361
-0.865624
-2.13578
1.17079
1.18314
1.21396
1.26283
1.33083
1.41775
1.52041
1.6238
1.66408
1.12719
1.14043
1.15176
1.18047
1.22534
1.28707
1.36404
1.45188
1.52808
1.56804
1.04071
1.10894
1.11941
1.14584
1.18635
1.24133
1.30804
1.38396
1.4444
1.50663
1.07838
1.0763
1.08587
1.10998
1.14625
1.19488
1.25218
1.31786
1.36373
1.43041
1.0583
1.04254
1.05115
1.07281
1.10478
1.14711
1.19497
1.2494
1.27669
1.3246
0.975673
1.00778
1.01535
1.03442
1.06194
1.09774
1.13573
1.17731
1.18386
1.20123
0.864486
0.972113
0.9786
0.994958
1.01789
1.04692
1.07471
1.10227
1.08817
1.06953
0.734829
0.935661
0.941032
0.954574
0.972807
0.994879
1.01232
1.02498
0.990632
0.931538
0.585792
0.898549
0.902783
0.913434
0.926904
0.94185
0.948869
0.945798
0.891166
0.78769
0.418531
0.860912
0.863999
0.871712
0.880377
0.888064
0.884611
0.865043
0.7898
0.63917
0.23679
1.58606
1.58902
1.59464
1.60245
1.61093
1.61774
1.61983
1.61355
1.59419
1.55702
1.57524
1.57997
1.58921
1.60235
1.61772
1.6325
1.64325
1.64484
1.63206
1.59679
1.55374
1.56117
1.576
1.59759
1.62422
1.65244
1.67838
1.69432
1.69454
1.66348
1.52125
1.53164
1.55272
1.58408
1.62415
1.66917
1.71483
1.75069
1.76993
1.74594
1.47889
1.49194
1.51882
1.55958
1.61308
1.67585
1.74313
1.8027
1.84423
1.83085
1.42907
1.44409
1.47546
1.52387
1.58885
1.66786
1.75603
1.8407
1.90211
1.89796
1.37479
1.3909
1.42505
1.47852
1.5516
1.64316
1.74917
1.85753
1.92971
1.91765
1.31901
1.33536
1.3706
1.42627
1.50337
1.60225
1.72075
1.84803
1.91727
1.85602
1.26416
1.28006
1.31503
1.37039
1.44749
1.54773
1.6712
1.81046
1.86756
1.69143
1.21184
1.22645
1.25993
1.3128
1.38639
1.48191
1.60053
1.74215
1.80632
1.46092
1.51987
1.5021
1.48136
1.45873
1.43439
1.40818
1.37995
1.34973
1.31753
1.28343
1.55825
1.53845
1.51436
1.48849
1.46094
1.43117
1.39896
1.36431
1.32731
1.28803
1.62555
1.60214
1.57131
1.53889
1.50511
1.46881
1.42948
1.38721
1.34219
1.29454
1.71405
1.68614
1.64552
1.6037
1.5612
1.51587
1.46699
1.41486
1.35986
1.30222
1.81838
1.78632
1.73428
1.68216
1.63045
1.57603
1.51849
1.45873
1.39764
1.33585
1.92788
1.89574
1.83774
1.7801
1.72197
1.66024
1.5952
1.528
1.45937
1.38967
2.00581
1.97936
1.92422
1.86438
1.79853
1.7258
1.64763
1.56559
1.4809
1.39436
1.98189
1.96628
1.92239
1.86718
1.7997
1.72099
1.63276
1.53669
1.43418
1.32615
1.81835
1.82611
1.79407
1.74338
1.67271
1.58467
1.48119
1.36455
1.23664
1.09879
1.44618
1.46161
1.41633
1.35268
1.26485
1.15688
1.03028
0.887685
0.731042
0.561899
1.24748
1.20977
1.1704
1.12948
1.08714
1.04353
0.998807
0.953121
0.906656
0.859566
1.24655
1.20298
1.15745
1.11012
1.06116
1.01076
0.959136
0.90651
0.853181
0.799184
1.24437
1.19186
1.13718
1.08056
1.02224
0.962461
0.901468
0.839559
0.777207
0.714449
1.24217
1.17998
1.11598
1.05057
0.984226
0.91747
0.850828
0.784631
0.718374
0.652959
1.27386
1.21201
1.15021
1.08791
1.02409
0.957597
0.887336
0.811629
0.728172
0.643065
1.31898
1.2471
1.17344
1.09722
1.01784
0.935185
0.847948
0.750744
0.640265
0.53969
1.30632
1.2165
1.12379
1.02672
0.924891
0.819273
0.705908
0.568124
0.400074
0.273209
1.21299
1.09441
0.968984
0.834913
0.692762
0.546731
0.391996
0.196647
-0.0498172
-0.200693
0.951907
0.7961
0.630098
0.451925
0.262098
0.0681148
-0.128232
-0.365062
-0.66493
-0.809876
0.381628
0.191013
-0.0102056
-0.222285
-0.444062
-0.667531
-0.878644
-1.0921
-1.34931
-1.44001
0.743717
0.551035
0.355817
0.178822
0.0457713
-0.0244011
-0.0333346
-0.00560431
0.0292508
0.0543122
0.065816
0.0660458
0.0590423
0.0486726
0.0376813
0.0276016
0.0190953
0.012175
0.00665946
0.00185462
0.670343
0.442214
0.225309
0.0499108
-0.0679573
-0.117902
-0.103567
-0.0527387
0.000361472
0.0372278
0.0555165
0.0595195
0.0546956
0.045676
0.0355888
0.0261559
0.0181297
0.0115721
0.0063404
0.00176505
0.583057
0.282205
0.0228243
-0.160485
-0.265137
-0.282852
-0.223933
-0.130078
-0.0452153
0.0111032
0.0400779
0.0497992
0.0481898
0.0411455
0.0323963
0.0239365
0.0166407
0.0106402
0.00584299
0.0016271
0.530899
0.140005
-0.139776
-0.335369
-0.447463
-0.44899
-0.351315
-0.213789
-0.0947109
-0.0171005
0.0234474
0.0392351
0.0409923
0.0360422
0.0287544
0.0213855
0.0149213
0.00956123
0.00526393
0.00146738
0.475531
0.0403735
-0.206433
-0.408909
-0.53453
-0.540446
-0.43193
-0.273602
-0.13363
-0.0409422
0.00856534
0.0293214
0.0339756
0.0309381
0.0250589
0.018777
0.0131554
0.00845057
0.00466507
0.00130265
0.364877
-0.0350518
-0.232693
-0.423618
-0.542674
-0.555383
-0.456084
-0.300214
-0.156185
-0.0575478
-0.00322705
0.0207439
0.0275644
0.026135
0.0215301
0.0162683
0.0114509
0.00737664
0.00408346
0.00114298
0.137744
-0.146924
-0.279805
-0.427524
-0.517921
-0.528724
-0.443316
-0.30181
-0.165013
-0.0675883
-0.0120312
0.0135721
0.0218844
0.0217615
0.0182761
0.0139416
0.00986555
0.0063767
0.00353972
0.00099394
-0.249377
-0.320106
-0.35374
-0.438073
-0.490136
-0.490198
-0.414931
-0.290017
-0.165191
-0.0729562
-0.018469
0.00766162
0.0169606
0.0178861
0.0153633
0.0118482
0.00843479
0.00547276
0.00304599
0.000858945
-0.727514
-0.533552
-0.435723
-0.454423
-0.469096
-0.455221
-0.385266
-0.274237
-0.161429
-0.075568
-0.0231656
0.00289701
0.0128363
0.0145764
0.0128451
0.0100233
0.00717993
0.00467657
0.00260848
0.00074001
-1.05578
-0.691349
-0.479489
-0.456375
-0.442402
-0.417221
-0.352494
-0.255327
-0.154943
-0.0762051
-0.0266121
-0.00112493
0.00915788
0.011554
0.0105282
0.00834539
0.00603085
0.00395195
0.00221149
0.000631552
-1.01425
-0.704398
-0.455375
-0.42648
-0.398474
-0.366304
-0.308396
-0.227669
-0.142881
-0.0742104
-0.0294181
-0.00536766
0.00513715
0.00834289
0.00818572
0.00673706
0.00498128
0.00331868
0.00187563
0.000535163
-1.01075
-0.735402
-0.470338
-0.424174
-0.384481
-0.346142
-0.288607
-0.212899
-0.134317
-0.0707616
-0.0291493
-0.00658048
0.003514
0.00682991
0.00696826
0.00583801
0.00436001
0.00292404
0.00165757
0.000473139
-1.06914
-0.765114
-0.48859
-0.421849
-0.37308
-0.33089
-0.274291
-0.201821
-0.12715
-0.0672358
-0.0282646
-0.00715718
0.00237086
0.00562902
0.00593562
0.00504003
0.00379007
0.00255206
0.0014483
0.00041545
-1.1525
-0.788467
-0.506059
-0.417765
-0.360933
-0.315206
-0.260034
-0.191527
-0.121155
-0.0647122
-0.0280181
-0.00807735
0.00105996
0.00435119
0.00486946
0.00422813
0.00321477
0.00217835
0.00123894
0.000359288
-1.25082
-0.809646
-0.523158
-0.413497
-0.349179
-0.299851
-0.24589
-0.181501
-0.115769
-0.0628686
-0.0282949
-0.00932585
-0.000434846
0.00297709
0.00375528
0.00339332
0.00262924
0.00180072
0.00102862
0.00030417
-1.3587
-0.831225
-0.54032
-0.41008
-0.33859
-0.28576
-0.232778
-0.172232
-0.110999
-0.0615077
-0.0288974
-0.0107655
-0.00203158
0.00155201
0.0026168
0.00254743
0.00203906
0.00142147
0.000818129
0.000250123
-1.47536
-0.855816
-0.558218
-0.408335
-0.329595
-0.273305
-0.221055
-0.164001
-0.106964
-0.0606369
-0.0297948
-0.0123656
-0.00370919
8.854e-05
0.00146105
0.00169411
0.00144596
0.00104129
0.000607659
0.000196989
-1.60156
-0.885549
-0.577574
-0.408978
-0.322573
-0.262731
-0.210872
-0.1569
-0.103711
-0.0602772
-0.0309967
-0.014131
-0.00547002
-0.0014144
0.000287556
0.000833167
0.000849836
0.000660114
0.000397124
0.000144525
-1.73884
-0.922497
-0.599132
-0.412616
-0.317867
-0.254257
-0.202362
-0.150989
-0.101249
-0.0604227
-0.0324984
-0.0160593
-0.00731314
-0.00295659
-0.00090386
-3.54997e-05
0.000250743
0.000278068
0.000186671
9.26134e-05
-1.88768
-0.968373
-0.623627
-0.419744
-0.315781
-0.248061
-0.195637
-0.146326
-0.0995823
-0.0610587
-0.0342865
-0.0181425
-0.00923414
-0.00453589
-0.00211244
-0.000911596
-0.000351067
-0.0001046
-2.34754e-05
4.11681e-05
)
;

boundaryField
{
    inlet
    {
        type            freestreamPressure;
        freestreamValue uniform 0;
        supersonic      false;
        value           nonuniform List<scalar> 
40
(
0.434641
0.36783
0.293943
0.213747
0.129069
0.0429612
-0.0401481
-0.114588
-0.173648
-0.20911
0.822889
0.784621
0.746246
0.7079
0.669712
0.631799
0.594274
0.557246
0.520778
0.48477
1.17079
1.14043
1.10894
1.0763
1.04254
1.00778
0.972113
0.935661
0.898549
0.860912
1.58606
1.57524
1.55374
1.52125
1.47889
1.42907
1.37479
1.31901
1.26416
1.21184
)
;
    }
    outlet
    {
        type            freestreamPressure;
        freestreamValue uniform 0;
        supersonic      false;
        value           nonuniform List<scalar> 
40
(
-8.47277e-09
-9.51844e-09
-1.03521e-08
-1.08881e-08
-1.08877e-08
-1.01042e-08
-8.36703e-09
-5.723e-09
-2.66534e-09
-3.50898e-10
-1.45444e-10
-9.51268e-10
-1.76343e-09
-2.56801e-09
-3.3673e-09
-4.16259e-09
-4.95209e-09
-5.73156e-09
-6.50451e-09
-7.30409e-09
8.55178e-09
7.62908e-09
6.7462e-09
5.8668e-09
4.98704e-09
4.11125e-09
3.24103e-09
2.37649e-09
1.51969e-09
6.73155e-10
4.75219e-10
3.54022e-09
7.41339e-09
1.05657e-08
1.24647e-08
1.31698e-08
1.29715e-08
1.22037e-08
1.11566e-08
9.91854e-09
)
;
    }
    top
    {
        type            symmetryPlane;
    }
    bottom
    {
        type            symmetryPlane;
    }
    cylinder
    {
        type            zeroGradient;
    }
    frontandback
    {
        type            empty;
    }
}


// ************************************************************************* //
