/*--------------------------------*- C++ -*----------------------------------*\
  =========                 |
  \\      /  F ield         | OpenFOAM: The Open Source CFD Toolbox
   \\    /   O peration     | Website:  https://openfoam.org
    \\  /    A nd           | Version:  6.0
     \\/     M anipulation  |
\*---------------------------------------------------------------------------*/
FoamFile
{
    version     2.0;
    format      ascii;
    class       volVectorField;
    location    "4";
    object      U;
}
// * * * * * * * * * * * * * * * * * * * * * * * * * * * * * * * * * * * * * //

dimensions      [0 1 -1 0 0 0 0];

internalField   nonuniform List<vector> 
2400
(
(1.40747 -8.78627 -6.63872e-19)
(0.270903 -8.00216 2.5269e-19)
(0.292396 -7.31238 -1.81646e-19)
(0.380494 -6.6544 -9.52503e-20)
(0.39014 -6.0472 -1.25362e-19)
(0.387364 -5.48729 1.69904e-19)
(0.384868 -4.97654 5.38527e-20)
(0.381719 -4.51751 3.33377e-20)
(0.382111 -4.10927 -7.47259e-20)
(0.377002 -3.74877 -4.29381e-21)
(2.09644 -8.66619 7.78179e-19)
(0.905591 -7.9965 -1.61464e-20)
(0.873636 -7.31491 1.54239e-19)
(0.909037 -6.65098 9.31171e-19)
(0.869787 -6.04059 -5.93383e-19)
(0.821959 -5.47799 -3.10338e-20)
(0.778594 -4.9654 -5.97355e-21)
(0.739177 -4.50598 -5.5148e-20)
(0.708 -4.0986 -6.73778e-20)
(0.674937 -3.7408 -2.9983e-21)
(2.77633 -8.4935 1.34728e-18)
(1.54071 -7.94137 9.61454e-19)
(1.45629 -7.27116 -2.26458e-18)
(1.43829 -6.60493 6.137e-19)
(1.34944 -5.99512 7.44014e-19)
(1.25596 -5.4336 -4.168e-19)
(1.17135 -4.92272 -2.79386e-19)
(1.09557 -4.46617 1.87543e-19)
(1.03289 -4.06272 -3.73156e-19)
(0.971824 -3.71084 3.58822e-19)
(3.44212 -8.26844 -4.62091e-18)
(2.17251 -7.83656 1.49014e-18)
(2.03664 -7.18099 -1.38818e-18)
(1.96462 -6.51618 5.34776e-19)
(1.82566 -5.91078 -4.94758e-19)
(1.68614 -5.35413 6.21994e-19)
(1.56011 -4.84855 1.71331e-19)
(1.4481 -4.39813 -8.05552e-19)
(1.35418 -4.00165 -5.85455e-19)
(1.26534 -3.65907 6.1291e-19)
(4.0903 -7.99185 2.92328e-19)
(2.79702 -7.68171 -5.92354e-19)
(2.61068 -7.04395 -2.42618e-19)
(2.48419 -6.38445 -2.76388e-19)
(2.29484 -5.78745 -1.22991e-18)
(2.10915 -5.23956 1.66398e-19)
(1.94176 -4.7429 -9.47593e-20)
(1.79377 -4.30179 7.91526e-19)
(1.66897 -3.91525 -5.32764e-19)
(1.55277 -3.58527 -2.77071e-19)
(4.7166 -7.66486 3.98795e-18)
(3.41004 -7.47705 -2.87274e-19)
(3.17437 -6.86026 3.59631e-18)
(2.99322 -6.21008 -4.91315e-19)
(2.75355 -5.62558 1.44045e-18)
(2.52191 -5.09045 -1.81121e-19)
(2.31346 -4.60632 1.8456e-20)
(2.12985 -4.1776 6.84158e-19)
(1.97453 -3.80368 -3.60072e-19)
(1.83153 -3.48908 4.40738e-19)
(5.31734 -7.28906 -1.61418e-18)
(4.00756 -7.22313 2.33446e-19)
(3.72363 -6.63029 -1.00005e-18)
(3.4878 -5.9935 -7.26331e-19)
(3.1982 -5.42571 8.04738e-20)
(2.92129 -4.90753 2.08864e-18)
(2.67262 -4.43979 -7.19603e-19)
(2.45426 -4.02665 1.81841e-19)
(2.26919 -3.66785 -8.79947e-19)
(2.10048 -3.37105 -3.5181e-19)
(5.889 -6.8665 6.38093e-18)
(4.58571 -6.92077 -9.28591e-19)
(4.25444 -6.35467 -4.99593e-18)
(3.96392 -5.73528 2.47702e-19)
(3.62485 -5.18837 7.49727e-19)
(3.30344 -4.6913 -9.8124e-19)
(3.01574 -4.24392 -1.07066e-18)
(2.76425 -3.84976 1.5219e-18)
(2.55126 -3.50915 -1.42579e-19)
(2.35902 -3.23481 -1.02652e-18)
(6.42851 -6.3994 -5.26215e-18)
(5.14108 -6.57105 2.49841e-18)
(4.76326 -6.03434 3.13831e-18)
(4.41808 -5.43631 6.69146e-19)
(4.02987 -4.91411 -2.16346e-18)
(3.6642 -4.44169 1.23394e-18)
(3.33758 -4.01777 5.97712e-19)
(3.05322 -3.64547 1.1409e-18)
(2.81271 -3.32751 -7.4535e-19)
(2.59819 -3.08535 -8.83582e-19)
(6.93203 -5.88929 1.69384e-18)
(5.66991 -6.17517 -6.3016e-19)
(5.24694 -5.6709 -2.21651e-19)
(4.84792 -5.09832 5.8591e-19)
(4.41166 -4.60426 4.13028e-19)
(4.00232 -4.159 -3.28839e-19)
(3.63581 -3.76001 -4.89297e-19)
(3.31449 -3.41093 7.52861e-19)
(3.03777 -3.1197 -5.73449e-19)
(2.79241 -2.91387 5.14904e-19)
(9.30097 0.775958 8.94951e-20)
(9.3088 0.0411712 2.93031e-19)
(9.2593 -0.689033 -8.91525e-19)
(9.15218 -1.41083 8.25981e-19)
(8.98809 -2.12049 3.42664e-19)
(8.76989 -2.81322 4.28628e-18)
(8.4989 -3.4851 -1.73208e-18)
(8.17763 -4.1321 -2.44156e-18)
(7.80769 -4.75089 2.83797e-18)
(7.3937 -5.33722 -4.93462e-18)
(8.69161 -0.369377 2.27206e-19)
(8.61393 -1.04633 -1.26313e-19)
(8.48248 -1.71166 -6.89519e-19)
(8.29729 -2.36163 1.88131e-18)
(8.05797 -2.99377 -6.52178e-19)
(7.76883 -3.60291 5.12067e-18)
(7.43218 -4.18513 -3.48564e-18)
(7.05118 -4.73665 4.9471e-18)
(6.62824 -5.25421 -3.5955e-18)
(6.16709 -5.73498 -1.82798e-18)
(7.96196 -0.351338 -4.15992e-19)
(7.90225 -0.965528 1.26975e-21)
(7.79204 -1.57177 -1.78092e-18)
(7.63092 -2.166 1.34535e-18)
(7.41917 -2.74509 -1.51721e-18)
(7.16013 -3.30435 -3.03933e-18)
(6.85633 -3.83968 -1.08499e-18)
(6.50964 -4.34729 -6.35361e-19)
(6.12357 -4.82403 3.22832e-18)
(5.70198 -5.26645 1.99511e-18)
(7.18492 -0.255817 1.58208e-19)
(7.14594 -0.805351 -2.73211e-19)
(7.06054 -1.35052 -3.77188e-19)
(6.92845 -1.88722 -1.59784e-18)
(6.75076 -2.41202 1.12171e-18)
(6.52903 -2.92085 2.97414e-18)
(6.26523 -3.40977 1.15978e-18)
(5.9627 -3.87558 2.63975e-19)
(5.62396 -4.3148 6.97493e-19)
(5.25094 -4.72346 1.60196e-19)
(6.46592 -0.234548 -1.54654e-19)
(6.43601 -0.724518 -6.12279e-19)
(6.36425 -1.21195 3.82187e-20)
(6.25044 -1.69313 1.20944e-18)
(6.09581 -2.16464 1.34275e-18)
(5.90155 -2.62307 -9.20026e-19)
(5.66953 -3.06511 -1.59036e-18)
(5.40149 -3.48799 -8.59669e-19)
(5.10083 -3.88762 8.9074e-19)
(4.76957 -4.26092 1.53236e-18)
(5.83123 -0.221736 4.24175e-20)
(5.80553 -0.659138 4.90631e-19)
(5.74237 -1.09488 -1.15408e-18)
(5.6416 -1.52579 1.39147e-18)
(5.50415 -1.94865 8.54925e-19)
(5.33074 -2.36087 1.66352e-18)
(5.12414 -2.75929 -3.51365e-19)
(4.88435 -3.14197 -1.02807e-18)
(4.61617 -3.5044 2.38839e-18)
(4.32015 -3.84506 -2.14291e-18)
(5.28065 -0.206305 6.92417e-20)
(5.25701 -0.597907 -4.9289e-19)
(5.19976 -0.988287 -3.30142e-19)
(5.10862 -1.37471 -7.33636e-19)
(4.98464 -1.75424 -1.04479e-19)
(4.82798 -2.12521 -1.02998e-18)
(4.6418 -2.48416 -6.93946e-19)
(4.42453 -2.83092 -9.95128e-20)
(4.18417 -3.15959 -1.39226e-18)
(3.91705 -3.47193 1.89991e-18)
(4.80653 -0.191142 -5.34771e-20)
(4.78387 -0.543296 4.03316e-19)
(4.73089 -0.894367 -1.8287e-19)
(4.64709 -1.24197 3.8925e-19)
(4.53388 -1.58343 9.35511e-19)
(4.39023 -1.91786 1.59928e-18)
(4.22068 -2.24142 -4.1051e-19)
(4.02093 -2.55706 -1.52743e-18)
(3.80437 -2.85583 4.73707e-19)
(3.55882 -3.14619 -2.81777e-18)
(4.39955 -0.175095 7.4007e-20)
(4.37761 -0.494041 -9.03682e-20)
(4.32802 -0.811981 -8.52596e-19)
(4.24998 -1.12679 2.57768e-19)
(4.14558 -1.43597 -6.34737e-19)
(4.01221 -1.73921 -2.82847e-19)
(3.8561 -2.03235 -1.65676e-19)
(3.66862 -2.32239 7.22603e-19)
(3.47156 -2.5966 6.62898e-19)
(3.2362 -2.87886 5.74921e-19)
(4.05103 -0.16372 -1.64458e-19)
(4.02937 -0.453796 2.86499e-19)
(3.98246 -0.743655 1.46441e-19)
(3.909 -1.03145 3.92589e-19)
(3.81157 -1.31473 -3.96838e-20)
(3.68577 -1.59356 -3.30717e-20)
(3.53996 -1.86319 -9.49206e-19)
(3.35835 -2.13413 1.29987e-18)
(3.17458 -2.38796 -8.36883e-19)
(2.93533 -2.68388 2.60912e-19)
(6.07386 7.16676 -2.76655e-18)
(6.62294 6.67302 2.87094e-18)
(7.12964 6.13715 -1.90294e-19)
(7.59015 5.56234 -4.70837e-18)
(8.0011 4.95037 3.4319e-18)
(8.35997 4.30671 -2.37503e-18)
(8.664 3.6356 -5.2501e-19)
(8.91157 2.94228 -5.04339e-19)
(9.10035 2.23096 7.83843e-19)
(9.23121 1.50847 5.74043e-20)
(6.37027 5.74671 2.91235e-18)
(6.82652 5.25728 5.02108e-19)
(7.24098 4.73058 -2.87857e-18)
(7.60956 4.16996 -2.95354e-18)
(7.92871 3.57753 2.55303e-18)
(8.19598 2.95819 -1.97639e-18)
(8.40911 2.31665 2.17535e-18)
(8.56646 1.65802 -6.31193e-19)
(8.66519 0.986823 -1.80016e-18)
(8.70796 0.309912 -1.17345e-19)
(5.7681 5.09463 -6.24759e-19)
(6.18563 4.66975 -4.84462e-19)
(6.56715 4.20887 1.64168e-18)
(6.90835 3.71498 1.41227e-18)
(7.20634 3.19106 3.02966e-18)
(7.45836 2.64072 9.35167e-19)
(7.66229 2.06828 -6.57695e-19)
(7.8159 1.4781 -1.4446e-18)
(7.91686 0.874381 1.16549e-18)
(7.96644 0.263379 8.78251e-20)
(5.12515 4.52945 5.60428e-19)
(5.50293 4.16355 -1.46418e-18)
(5.84976 3.76441 -5.77468e-19)
(6.162 3.33472 -2.46654e-18)
(6.43706 2.87722 -1.32119e-18)
(6.67225 2.39486 2.31936e-18)
(6.86562 1.89133 1.53051e-18)
(7.01485 1.37031 -1.28793e-18)
(7.11818 0.835621 5.3468e-20)
(7.17546 0.292397 -5.50176e-20)
(4.60925 3.99593 -2.1552e-18)
(4.94591 3.67505 2.37014e-18)
(5.25509 3.32458 -5.93151e-19)
(5.53399 2.94631 1.20688e-18)
(5.78039 2.5429 -7.73795e-19)
(5.99184 2.117 -1.37627e-18)
(6.1666 1.67175 5.9527e-19)
(6.30258 1.21032 -6.54772e-19)
(6.39841 0.736174 -6.42173e-19)
(6.45323 0.253446 2.68371e-19)
(4.17489 3.5386 -2.5683e-19)
(4.47512 3.25439 4.09787e-19)
(4.75048 2.94441 -4.90322e-19)
(4.99882 2.60923 -2.22416e-18)
(5.21813 2.25105 1.20967e-18)
(5.40649 1.87262 1.91289e-19)
(5.56228 1.47667 -1.04997e-18)
(5.68374 1.06605 -3.45752e-19)
(5.76972 0.643897 3.29166e-19)
(5.81912 0.21362 -1.00783e-19)
(3.80342 3.15141 -9.69935e-19)
(4.07395 2.89922 2.15679e-20)
(4.32046 2.62379 4.47346e-19)
(4.54175 2.32502 1.19997e-18)
(4.73686 2.0053 2.34743e-19)
(4.90439 1.66722 5.90593e-19)
(5.04284 1.31325 1.16286e-18)
(5.1507 0.94603 -4.79073e-19)
(5.22695 0.568433 4.01287e-19)
(5.27044 0.183396 -1.55247e-19)
(3.48549 2.8237 -3.8282e-19)
(3.73052 2.60048 3.75191e-19)
(3.95242 2.35399 3.30961e-19)
(4.15009 2.08564 -5.53821e-19)
(4.32406 1.79848 -3.01398e-19)
(4.47345 1.49448 -6.32797e-19)
(4.59688 1.17594 5.84662e-20)
(4.69291 0.845471 -1.36849e-19)
(4.76052 0.505752 -8.42144e-19)
(4.79854 0.159372 1.12e-19)
(3.21471 2.54831 -1.52331e-19)
(3.42963 2.35399 -5.84089e-19)
(3.62942 2.13057 -2.74744e-19)
(3.80819 1.88711 9.97965e-20)
(3.96522 1.62742 -5.50072e-20)
(4.10012 1.35222 5.56382e-19)
(4.21176 1.06352 2.18353e-19)
(4.29863 0.763995 3.1938e-19)
(4.35955 0.456178 3.8197e-19)
(4.39333 0.142389 -1.55762e-19)
(3.01173 2.29188 -4.05574e-19)
(3.18396 2.12148 6.94502e-19)
(3.35674 1.9174 -1.12632e-18)
(3.51963 1.69725 -3.65644e-20)
(3.6624 1.46419 9.22288e-19)
(3.78385 1.21698 4.28577e-20)
(3.88426 0.956967 4.06776e-19)
(3.96247 0.686657 -8.48114e-19)
(4.01706 0.408419 -7.47685e-21)
(4.04672 0.124311 7.55606e-20)
(0.475708 3.04939 1.24266e-20)
(0.466205 3.40441 -5.45528e-21)
(0.467527 3.80787 -6.85657e-21)
(0.465382 4.26574 6.1458e-20)
(0.460515 4.7893 -2.23661e-20)
(0.449723 5.39797 -1.29804e-19)
(0.440991 6.12144 1.77451e-19)
(0.498878 6.9917 6.99592e-20)
(0.470191 7.99281 1.2838e-19)
(-0.730751 9.09556 5.40851e-19)
(0.737402 3.06078 2.77482e-20)
(0.753931 3.4129 -1.20449e-19)
(0.783944 3.81416 1.35006e-19)
(0.815615 4.27181 3.50605e-20)
(0.850108 4.79684 -8.75292e-20)
(0.885401 5.40834 8.92145e-20)
(0.931598 6.13421 4.43766e-19)
(1.05545 6.99863 -5.96979e-19)
(1.10179 7.99168 3.74958e-20)
(-0.0151289 9.15641 -6.5026e-19)
(1.00168 3.05368 1.67491e-19)
(1.04369 3.40115 -2.3221e-19)
(1.10213 3.79804 -1.16984e-19)
(1.16776 4.25268 -1.76193e-20)
(1.24204 4.77593 -1.68362e-19)
(1.32406 5.38648 -9.43496e-20)
(1.42578 6.11028 1.51134e-19)
(1.61502 6.96343 4.26428e-19)
(1.73502 7.94155 3.63781e-19)
(0.704532 9.16112 -1.14772e-18)
(1.26763 3.02711 1.83674e-19)
(1.33425 3.36839 -2.04684e-19)
(1.42061 3.75881 -2.69074e-19)
(1.52005 4.20763 1.07856e-19)
(1.63418 4.72574 9.39178e-19)
(1.76312 5.33137 -4.19831e-19)
(1.92051 6.04835 3.77032e-19)
(2.1743 6.88485 -1.43711e-18)
(2.36602 7.84162 -1.66555e-18)
(1.42397 9.10925 2.18748e-18)
(1.53399 2.98079 1.3311e-19)
(1.62398 3.31439 -1.17349e-19)
(1.73749 3.69622 3.23776e-19)
(1.87038 4.13635 -3.27952e-19)
(2.02417 4.64588 2.77933e-19)
(2.19997 5.24254 2.58554e-19)
(2.41278 5.94778 2.67428e-19)
(2.73005 6.76195 2.18561e-19)
(2.99116 7.69146 1.09047e-18)
(2.13942 8.99997 1.01987e-18)
(1.79991 2.91372 -4.54024e-19)
(1.91176 3.23858 -1.43779e-19)
(2.05139 3.60989 6.3699e-19)
(2.21697 4.03849 -7.5134e-19)
(2.40982 4.53598 -4.05896e-19)
(2.63195 5.11959 -1.09138e-18)
(2.89945 5.80829 1.41473e-20)
(3.27837 6.5942 -1.35687e-18)
(3.60627 7.4904 -2.01e-19)
(2.84569 8.83341 -3.0545e-18)
(2.06236 2.82732 7.35617e-19)
(2.19416 3.14174 -1.30799e-18)
(2.35892 3.50021 7.31766e-19)
(2.5567 3.91422 3.89135e-19)
(2.78816 4.39607 -1.08318e-19)
(3.05598 4.9624 1.52244e-18)
(3.37725 5.62962 -9.51004e-19)
(3.81542 6.38125 -2.80259e-18)
(4.20656 7.23913 -4.84752e-19)
(3.5382 8.60984 2.76105e-18)
(2.32299 2.71956 -2.69266e-20)
(2.47216 3.02317 6.23206e-19)
(2.65987 3.36665 -3.07689e-19)
(2.88818 3.76311 3.78227e-19)
(3.15688 4.2259 3.91848e-19)
(3.46915 4.77096 -7.07639e-19)
(3.84249 5.41153 5.6372e-19)
(4.33715 6.1243 -1.43483e-18)
(4.7877 6.93857 3.73165e-18)
(4.21193 8.33042 -1.46508e-18)
(2.56768 2.59587 -4.05476e-19)
(2.73444 2.88491 -2.38127e-19)
(2.94707 3.21054 9.2356e-19)
(3.20713 3.58614 -1.4829e-18)
(3.5126 4.02613 1.55895e-18)
(3.86808 4.5457 -8.5576e-19)
(4.29151 5.1547 -1.52816e-18)
(4.83954 5.82356 4.78067e-19)
(5.3449 6.5877 -6.63954e-18)
(4.86226 7.99481 5.18568e-18)
(2.81679 2.45711 1.04654e-18)
(2.98897 2.72416 -9.20121e-19)
(3.22276 3.02936 1.01669e-18)
(3.51251 3.38221 -6.46697e-20)
(3.85267 3.79674 -1.20418e-18)
(4.24892 4.28669 -6.6234e-19)
(4.7202 4.86022 7.66466e-19)
(5.31797 5.47977 2.2856e-18)
(5.87436 6.19055 3.16669e-18)
(5.48402 7.60857 1.34061e-20)
(-1.80467 2.1751 5.64004e-20)
(-2.04217 2.40513 -1.2747e-20)
(-2.29926 2.68039 -5.32058e-20)
(-2.59016 2.99394 1.32233e-19)
(-2.92258 3.34908 2.38141e-19)
(-3.3106 3.7558 5.02305e-19)
(-3.76932 4.24289 1.00538e-18)
(-4.28488 4.88917 6.95409e-19)
(-4.9879 5.61496 1.17448e-18)
(-6.71158 5.72461 -8.43163e-19)
(-1.63336 2.30553 -1.81518e-21)
(-1.85206 2.56991 9.56521e-20)
(-2.08268 2.87378 -6.73323e-20)
(-2.34663 3.21158 -8.6617e-20)
(-2.65087 3.5926 -3.46686e-19)
(-3.00862 4.02995 8.58753e-19)
(-3.43276 4.55383 -5.42203e-19)
(-3.90239 5.24118 -1.55521e-18)
(-4.55131 6.01955 -1.40344e-18)
(-6.25785 6.25134 2.1249e-18)
(-1.43318 2.42576 5.43406e-20)
(-1.63446 2.7183 3.06862e-20)
(-1.84361 3.04682 -2.0809e-19)
(-2.08341 3.40819 1.91695e-19)
(-2.36014 3.81476 2.85036e-19)
(-2.68655 4.2818 -2.59726e-19)
(-3.07374 4.84068 -1.69168e-20)
(-3.49437 5.56591 2.52623e-18)
(-4.08502 6.39205 6.51876e-19)
(-5.76458 6.74256 -1.62388e-18)
(-1.21985 2.54279 6.89516e-20)
(-1.40157 2.85478 8.06096e-20)
(-1.58832 3.20311 3.56595e-20)
(-1.80314 3.58578 2.10256e-19)
(-2.05136 4.01608 -6.29893e-19)
(-2.34497 4.51082 -8.96031e-20)
(-2.69292 5.10224 1.08531e-19)
(-3.06182 5.86178 -6.40221e-21)
(-3.59072 6.73079 -7.78019e-20)
(-5.23464 7.19618 2.05716e-18)
(-0.99779 2.65272 -4.41857e-20)
(-1.15799 2.97906 2.47956e-20)
(-1.32073 3.34363 -1.21906e-19)
(-1.50892 3.74497 -1.6007e-20)
(-1.7269 4.19658 6.90779e-20)
(-1.98565 4.71648 -5.3712e-19)
(-2.29182 5.33755 2.57258e-19)
(-2.60619 6.12725 -2.03762e-19)
(-3.07017 7.03389 -1.06063e-20)
(-4.6702 7.60929 -2.54656e-18)
(-0.767648 2.75209 7.73794e-21)
(-0.904805 3.08967 1.05127e-19)
(-1.04227 3.46756 -1.3731e-19)
(-1.20242 3.88504 2.41145e-20)
(-1.3885 4.3555 -6.85184e-20)
(-1.61032 4.89785 5.18948e-19)
(-1.87219 5.54534 1.50221e-19)
(-2.12935 6.36087 1.25737e-19)
(-2.52544 7.29928 6.55806e-19)
(-4.07392 7.979 5.02414e-19)
(-0.530115 2.83954 -4.72155e-20)
(-0.643047 3.18561 6.60503e-20)
(-0.754177 3.57397 3.15009e-21)
(-0.884945 4.00502 3.53417e-19)
(-1.03756 4.4918 -2.29198e-19)
(-1.22051 5.05381 2.24653e-19)
(-1.43568 5.72431 -2.70714e-19)
(-1.63329 6.56103 8.03504e-19)
(-1.95881 7.52491 8.03649e-19)
(-3.44879 8.30277 1.04088e-18)
(-0.286178 2.91419 -4.64164e-20)
(-0.373967 3.26603 6.31008e-20)
(-0.457835 3.66204 -4.40545e-20)
(-0.557935 4.10395 -4.9246e-20)
(-0.675537 4.60435 1.95015e-19)
(-0.817783 5.183 -3.47357e-19)
(-0.984037 5.87283 -3.35975e-19)
(-1.12001 6.72582 1.34845e-18)
(-1.37303 7.70879 -2.87066e-19)
(-2.79857 8.57846 -1.21241e-18)
(-0.0367553 2.97495 -4.10953e-20)
(-0.0987369 3.33004 2.18226e-20)
(-0.154613 3.73102 2.054e-20)
(-0.222897 4.18103 3.84549e-22)
(-0.304058 4.69219 -1.27046e-19)
(-0.403872 5.28428 4.70134e-19)
(-0.519185 5.9895 -5.45529e-19)
(-0.591787 6.85368 -1.10197e-19)
(-0.770897 7.84917 7.18529e-22)
(-2.12615 8.8037 -9.28038e-19)
(0.217441 3.0204 2.01903e-20)
(0.18166 3.37646 7.10018e-21)
(0.154269 3.77987 -9.99243e-21)
(0.118724 4.2352 -2.64438e-20)
(0.0752284 4.7541 -8.92176e-20)
(0.0193271 5.35625 6.91114e-20)
(-0.0433746 6.07274 5.41616e-20)
(-0.0512402 6.94281 1.16448e-19)
(-0.155583 7.9448 -1.9245e-19)
(-1.43664 8.97718 1.95679e-19)
(-1.92742 2.0085 1.30783e-19)
(-2.11034 1.77809 -3.04503e-20)
(-2.26504 1.56488 -3.66262e-20)
(-2.41379 1.34661 1.29689e-19)
(-2.54468 1.12363 8.46268e-20)
(-2.66114 0.894971 1.32377e-20)
(-2.76108 0.660597 1.79416e-20)
(-2.84448 0.420879 -2.12791e-20)
(-2.91052 0.17628 -3.97804e-21)
(-2.95876 -0.0725175 4.96723e-21)
(-2.20442 2.21492 -8.14483e-20)
(-2.39339 1.98566 4.07468e-20)
(-2.56183 1.75827 -8.24912e-20)
(-2.72154 1.52188 -4.16348e-20)
(-2.86429 1.27897 2.47466e-20)
(-2.99148 1.02869 3.52781e-20)
(-3.10094 0.771234 -2.61276e-21)
(-3.19222 0.507122 2.60622e-20)
(-3.26428 0.237021 1.31168e-20)
(-3.31646 -0.0381399 -7.89048e-21)
(-2.49864 2.46356 2.04582e-19)
(-2.70062 2.22496 -1.18361e-20)
(-2.88533 1.97942 2.35647e-20)
(-3.05812 1.72183 -6.03668e-22)
(-3.2135 1.45537 -1.41166e-19)
(-3.35155 1.17978 -7.24993e-20)
(-3.47029 0.895711 -5.18577e-20)
(-3.56894 0.603928 2.95819e-20)
(-3.64634 0.305363 -7.55214e-20)
(-3.70173 0.00118323 8.95961e-21)
(-2.81868 2.75449 3.59584e-20)
(-3.03882 2.49686 2.66331e-19)
(-3.2416 2.22744 -1.23235e-20)
(-3.42916 1.94447 1.21339e-19)
(-3.5978 1.6506 1.53496e-19)
(-3.747 1.34612 1.90381e-20)
(-3.875 1.03208 1.68771e-19)
(-3.98082 0.709448 7.33095e-20)
(-4.06329 0.379393 9.64043e-20)
(-4.12157 0.0432736 -2.04652e-20)
(-3.17798 3.08456 5.52136e-19)
(-3.41879 2.80163 -6.35617e-19)
(-3.64069 2.50369 -6.69528e-20)
(-3.84415 2.19113 9.24195e-20)
(-4.02666 1.86597 -9.08315e-20)
(-4.18738 1.52902 -2.22594e-19)
(-4.32477 1.18154 -3.69442e-19)
(-4.43774 0.824695 3.49033e-19)
(-4.52514 0.459856 -3.31212e-20)
(-4.58605 0.0885453 -2.25669e-20)
(-3.59352 3.46033 -1.28478e-18)
(-3.85735 3.14562 7.10471e-19)
(-4.09969 2.81376 2.80077e-19)
(-4.32032 2.46617 3.21688e-20)
(-4.51739 2.1046 3.31902e-19)
(-4.68997 1.73026 -4.99155e-19)
(-4.83668 1.34455 -4.50568e-19)
(-4.95641 0.948879 -2.71929e-21)
(-5.04801 0.544768 8.22362e-20)
(-5.11054 0.133915 5.73537e-20)
(-4.08339 3.90935 -4.97349e-19)
(-4.37424 3.55532 -2.57682e-19)
(-4.6401 3.18243 -1.07102e-19)
(-4.88051 2.79267 3.67323e-19)
(-5.09406 2.38768 -1.17527e-18)
(-5.2798 1.96906 -5.10597e-19)
(-5.43652 1.53838 6.37698e-19)
(-5.5631 1.09725 1.43627e-19)
(-5.65845 0.647373 1.14825e-19)
(-5.72163 0.190617 -6.99749e-20)
(-4.64086 4.51169 -1.55276e-18)
(-4.96894 4.11155 -1.51601e-18)
(-5.2676 3.6904 2.40178e-18)
(-5.53635 3.25067 4.83738e-19)
(-5.77411 2.79411 1.96417e-18)
(-5.9799 2.32263 3.46127e-20)
(-6.15262 1.83807 -5.9849e-19)
(-6.2912 1.34231 8.02417e-19)
(-6.39461 0.837229 2.11581e-20)
(-6.46186 0.324841 2.05674e-19)
(-5.39205 5.18036 4.00026e-20)
(-5.76164 4.7198 2.38504e-18)
(-6.09616 4.23565 -2.43803e-18)
(-6.39478 3.7307 1.81072e-18)
(-6.65678 3.20703 -2.5129e-18)
(-6.88093 2.66707 3.16441e-19)
(-7.06635 2.11308 -9.60578e-19)
(-7.21206 1.54742 3.30692e-19)
(-7.31723 0.972315 6.92912e-20)
(-7.38073 0.390112 -1.1645e-19)
(-7.12114 5.1639 7.49016e-19)
(-7.4823 4.57727 -2.11177e-18)
(-7.799 3.9661 9.56351e-19)
(-8.06815 3.33489 -8.34768e-19)
(-8.28954 2.68645 3.8584e-19)
(-8.4618 2.02443 1.86702e-18)
(-8.58444 1.35218 2.33008e-19)
(-8.65703 0.673196 5.30178e-19)
(-8.67941 -0.0091625 -2.70602e-19)
(-8.6508 -0.69155 -6.25991e-20)
(-2.98869 -0.324668 -1.8879e-21)
(-2.99999 -0.579135 -9.80132e-21)
(-2.99229 -0.834608 1.18938e-19)
(-2.96554 -1.08947 -7.97207e-20)
(-2.91956 -1.34168 5.96271e-21)
(-2.85393 -1.58899 -1.1957e-19)
(-2.76695 -1.82977 5.10735e-19)
(-2.65537 -2.06329 8.34661e-20)
(-2.51804 -2.28471 -2.08385e-19)
(-2.36097 -2.4865 4.06257e-19)
(-3.34809 -0.317276 2.06343e-20)
(-3.35866 -0.599059 -6.77552e-20)
(-3.34759 -0.881893 -5.03051e-20)
(-3.31462 -1.16393 -5.35285e-20)
(-3.25939 -1.44303 -1.80125e-19)
(-3.1816 -1.71688 -3.40502e-20)
(-3.08043 -1.98334 -5.64729e-21)
(-2.95319 -2.24012 2.69917e-19)
(-2.79593 -2.48355 4.40265e-19)
(-2.61181 -2.7169 2.32197e-20)
(-3.73434 -0.307304 -2.25708e-20)
(-3.74353 -0.618522 2.12077e-19)
(-3.72861 -0.930662 3.69786e-20)
(-3.68924 -1.24169 -6.14281e-21)
(-3.62496 -1.54938 2.07417e-19)
(-3.5355 -1.85142 1.11018e-19)
(-3.4203 -2.14544 2.45001e-19)
(-3.27786 -2.42857 -1.03485e-19)
(-3.10628 -2.69905 -4.47689e-19)
(-2.90718 -2.96248 -1.12871e-18)
(-4.15482 -0.297429 4.63301e-20)
(-4.16231 -0.640959 -1.06636e-19)
(-4.14324 -0.985359 1.65103e-19)
(-4.09725 -1.3285 -4.45268e-19)
(-4.02385 -1.66811 -2.38962e-19)
(-3.92276 -2.00188 -8.09724e-20)
(-3.7935 -2.32734 -5.89529e-19)
(-3.63538 -2.64177 -2.27577e-19)
(-3.44826 -2.94417 -1.99487e-20)
(-3.23401 -3.23716 3.9902e-19)
(-4.61958 -0.287599 4.36746e-20)
(-4.62496 -0.666676 1.8138e-20)
(-4.6013 -1.04661 1.28935e-19)
(-4.54822 -1.42518 4.59641e-19)
(-4.46523 -1.80004 -8.68569e-20)
(-4.35208 -2.16879 -7.56682e-19)
(-4.20836 -2.52889 1.20978e-18)
(-4.0338 -2.8779 -3.63176e-19)
(-3.82899 -3.21461 -3.8583e-19)
(-3.59573 -3.53884 -1.68141e-19)
(-5.14311 -0.281881 -1.07534e-19)
(-5.1449 -0.700569 1.30554e-19)
(-5.11496 -1.11993 3.01565e-19)
(-5.05295 -1.53765 -2.5987e-19)
(-4.9584 -1.95128 7.50522e-19)
(-4.83106 -2.35824 -8.19021e-20)
(-4.67064 -2.75594 7.44859e-20)
(-4.47722 -3.14201 3.97858e-19)
(-4.25153 -3.51472 2.33144e-19)
(-3.99507 -3.87229 1.74376e-19)
(-5.75173 -0.271024 2.51783e-20)
(-5.74799 -0.735219 -2.42652e-20)
(-5.70941 -1.19961 6.71083e-19)
(-5.63575 -1.66167 -7.96977e-19)
(-5.52658 -2.11889 -1.26703e-18)
(-5.3817 -2.56845 7.63438e-19)
(-5.20108 -3.00767 -3.38337e-19)
(-4.98501 -3.43404 4.00236e-19)
(-4.73423 -3.84535 1.06789e-18)
(-4.44995 -4.23915 -9.81867e-19)
(-6.49195 -0.192467 -4.66628e-20)
(-6.4842 -0.711734 -6.29371e-19)
(-6.43771 -1.23046 8.0713e-19)
(-6.35242 -1.74589 3.88548e-19)
(-6.22796 -2.25535 -1.33047e-18)
(-6.06442 -2.75596 -1.05878e-18)
(-5.86175 -3.24455 -1.72724e-19)
(-5.62058 -3.71843 -6.33316e-20)
(-5.34175 -4.17535 4.43141e-19)
(-5.0261 -4.61249 -2.75284e-19)
(-7.40107 -0.195947 5.92598e-20)
(-7.37795 -0.781998 1.0234e-18)
(-7.31129 -1.36551 4.04996e-19)
(-7.20109 -1.94332 -1.30858e-18)
(-7.0474 -2.51259 1.25684e-18)
(-6.85039 -3.07007 -1.72432e-18)
(-6.61084 -3.61288 1.95265e-18)
(-6.3294 -4.1375 -2.17386e-18)
(-6.00689 -4.64123 -1.15676e-18)
(-5.64448 -5.12174 -3.35672e-18)
(-8.56936 -1.36997 -2.74893e-20)
(-8.43621 -2.03774 -4.00209e-19)
(-8.25328 -2.69437 3.21859e-19)
(-8.02096 -3.33501 3.3238e-19)
(-7.74036 -3.95663 -7.18737e-19)
(-7.41254 -4.55534 6.85689e-19)
(-7.03945 -5.12826 -9.43444e-19)
(-6.62334 -5.67188 7.39135e-19)
(-6.16618 -6.18301 -1.76339e-18)
(-5.66949 -6.65884 1.92204e-18)
(-5.13437 -7.09379 2.80182e-18)
(-5.24359 -5.57408 -1.50142e-18)
(-4.67506 -5.02627 -1.08246e-18)
(-4.1336 -4.61214 1.3919e-18)
(-3.70948 -4.21121 -1.60287e-20)
(-3.33635 -3.84705 9.30345e-19)
(-2.99651 -3.51876 1.28901e-20)
(-2.68772 -3.22349 -5.25841e-19)
(-2.41248 -2.96314 7.15127e-19)
(-2.19436 -2.73711 -1.49607e-19)
(-4.56834 -7.48215 -3.02059e-18)
(-4.80744 -5.99384 5.76046e-18)
(-4.29087 -5.413 -4.43368e-19)
(-3.7867 -4.96099 -1.14679e-18)
(-3.39606 -4.52764 7.11736e-19)
(-3.05248 -4.1331 -1.30468e-18)
(-2.73962 -3.77615 1.2259e-18)
(-2.45714 -3.45374 -7.15736e-19)
(-2.20883 -3.1648 2.19827e-19)
(-2.01213 -2.90199 4.00878e-19)
(-3.97269 -7.82727 1.88971e-18)
(-4.3384 -6.37975 -3.35139e-18)
(-3.87505 -5.77014 1.25946e-18)
(-3.4104 -5.28311 -4.53558e-19)
(-3.05535 -4.81965 6.4462e-19)
(-2.7433 -4.39678 -3.90812e-19)
(-2.45912 -4.01319 -3.1395e-19)
(-2.20378 -3.66615 2.75581e-19)
(-1.98032 -3.3551 -5.31407e-19)
(-1.80202 -3.0731 6.20021e-19)
(-3.35174 -8.12507 -3.83536e-18)
(-3.83912 -6.72932 4.70914e-19)
(-3.43003 -6.09539 1.07385e-18)
(-3.00691 -5.57617 9.79032e-19)
(-2.68949 -5.08477 -1.55577e-18)
(-2.41113 -4.63523 9.16331e-20)
(-2.15756 -4.22624 -4.0506e-19)
(-1.93004 -3.85532 -6.82894e-19)
(-1.72977 -3.5219 1.26244e-18)
(-1.56768 -3.22059 2.63107e-19)
(-2.70842 -8.37461 2.8048e-18)
(-3.31192 -7.04071 4.82845e-19)
(-2.95785 -6.38662 1.40142e-18)
(-2.57805 -5.8381 -1.01786e-20)
(-2.30002 -5.32134 1.18255e-18)
(-2.05713 -4.84751 4.74085e-19)
(-1.83585 -4.41559 8.1686e-19)
(-1.63766 -4.02371 -7.06486e-19)
(-1.4624 -3.67163 -2.01624e-20)
(-1.31937 -3.35466 -4.01016e-19)
(-2.04661 -8.57391 1.87754e-18)
(-2.75968 -7.31165 -1.59387e-18)
(-2.4611 -6.64169 -2.04811e-19)
(-2.12628 -6.06689 -3.1545e-19)
(-1.88931 -5.52741 -2.96076e-19)
(-1.68361 -5.03176 -3.07218e-19)
(-1.49611 -4.5793 4.18184e-19)
(-1.32844 -4.16883 -4.11032e-19)
(-1.17933 -3.80029 3.58506e-19)
(-1.05717 -3.46967 1.94761e-20)
(-1.36997 -8.72201 -3.33741e-18)
(-2.18527 -7.54041 -1.04253e-18)
(-1.94239 -6.85869 1.71926e-18)
(-1.65409 -6.26072 -4.72899e-19)
(-1.45976 -5.70138 5.31046e-19)
(-1.29291 -5.18669 -1.2529e-18)
(-1.14083 -4.7165 8.46748e-19)
(-1.0052 -4.29038 -2.40509e-19)
(-0.883819 -3.90825 3.10116e-19)
(-0.784484 -3.56636 -3.47183e-19)
(-0.682437 -8.81827 1.52881e-18)
(-1.59182 -7.72543 -4.4312e-19)
(-1.40461 -7.03585 -5.29184e-19)
(-1.16427 -6.41785 -1.97725e-19)
(-1.01407 -5.84164 1.28495e-19)
(-0.88761 -5.31081 2.25659e-19)
(-0.77237 -4.82575 -3.40014e-19)
(-0.670001 -4.38682 1.95858e-19)
(-0.577561 -3.99378 4.17154e-19)
(-0.502635 -3.64307 -3.49233e-19)
(0.0118951 -8.86161 1.15766e-18)
(-0.982799 -7.86475 -3.69633e-20)
(-0.850919 -7.17131 8.11126e-19)
(-0.659879 -6.53663 -6.16415e-19)
(-0.555191 -5.94677 1.56496e-19)
(-0.470551 -5.40293 -1.55032e-19)
(-0.39348 -4.9061 -5.67361e-20)
(-0.325479 -4.45739 -2.6194e-19)
(-0.263005 -4.05635 2.54842e-19)
(-0.2138 -3.69948 1.79374e-19)
(0.709962 -8.85143 -2.35339e-19)
(-0.36054 -7.95754 -1.57662e-19)
(-0.284103 -7.26389 -9.33658e-20)
(-0.143859 -6.61583 -2.63953e-19)
(-0.0860716 -6.0156 2.15024e-19)
(-0.0445711 -5.46203 4.4264e-20)
(-0.00681022 -4.95659 -1.17511e-19)
(0.0259525 -4.50115 1.01927e-20)
(0.0576687 -4.09503 -3.88576e-20)
(0.0801042 -3.73488 2.90057e-21)
(0.224073 -2.75637 -4.15707e-21)
(0.190141 -1.82578 -1.3568e-21)
(0.255705 -1.28545 3.39901e-21)
(0.269458 -0.924631 -1.84391e-21)
(0.287412 -0.663915 -4.3513e-22)
(0.307653 -0.439715 -9.01081e-22)
(0.362151 -0.222247 3.01602e-22)
(0.466839 -0.0253953 -3.40279e-22)
(0.597768 0.115439 1.43889e-22)
(0.721678 0.185418 -1.41461e-24)
(0.820139 0.198004 -1.07768e-22)
(0.889865 0.177345 8.27298e-24)
(0.935425 0.143948 -1.18592e-23)
(0.963541 0.110016 -1.31363e-23)
(0.98017 0.0808192 1.97765e-24)
(0.989672 0.0575185 -1.61477e-24)
(0.994896 0.0398952 5.27342e-25)
(0.9977 0.0263001 3.23976e-25)
(0.999065 0.017552 -3.10644e-25)
(0.999866 0.00806593 -8.84995e-26)
(0.43889 -2.76862 3.08194e-20)
(0.300397 -1.83582 7.05953e-21)
(0.324776 -1.29907 -5.7243e-21)
(0.320815 -0.934531 2.11138e-21)
(0.327007 -0.671554 -3.70452e-21)
(0.338731 -0.449746 -2.08878e-22)
(0.381108 -0.238708 -3.21894e-22)
(0.471677 -0.0469527 -4.87396e-22)
(0.592699 0.0941016 3.81247e-22)
(0.712567 0.168316 1.13907e-22)
(0.810926 0.186148 3.89198e-23)
(0.882244 0.169908 1.37306e-22)
(0.929706 0.139598 -1.03479e-22)
(0.959446 0.107596 -1.24397e-23)
(0.9773 0.0795219 8.49146e-24)
(0.987685 0.0568451 3.08935e-24)
(0.99353 0.0395554 -6.46597e-24)
(0.996781 0.0261346 6.39257e-24)
(0.998424 0.0174702 9.13915e-25)
(0.999472 0.00803612 4.01689e-25)
(0.655947 -2.76981 -5.31696e-20)
(0.417428 -1.84685 1.98645e-20)
(0.396384 -1.31433 2.72914e-20)
(0.374247 -0.94674 -1.03343e-20)
(0.367837 -0.680974 -6.65144e-22)
(0.371064 -0.460715 -3.49273e-21)
(0.402457 -0.255091 -6.87589e-23)
(0.479603 -0.0680177 -1.13009e-21)
(0.590279 0.0730777 -3.61474e-22)
(0.705241 0.151289 -2.24877e-22)
(0.802767 0.174266 -8.43751e-24)
(0.87521 0.162434 2.80687e-23)
(0.924304 0.135225 1.01292e-22)
(0.955522 0.105163 -4.508e-23)
(0.97452 0.078215 -1.6623e-23)
(0.985743 0.0561613 1.67376e-23)
(0.992187 0.0392038 -4.04155e-24)
(0.995871 0.0259574 -2.15492e-24)
(0.997785 0.017377 -5.45522e-24)
(0.999078 0.00800038 1.65333e-24)
(0.87408 -2.76059 -1.68423e-20)
(0.541686 -1.85819 4.29074e-20)
(0.471026 -1.33072 -1.76119e-20)
(0.429695 -0.960939 -5.62419e-21)
(0.409843 -0.692077 4.04413e-21)
(0.404321 -0.472627 -5.68952e-22)
(0.425689 -0.27143 1.40157e-21)
(0.490285 -0.0885299 -3.25941e-22)
(0.590442 0.0524954 1.05042e-21)
(0.699762 0.134446 3.25356e-22)
(0.795745 0.162423 -6.98946e-22)
(0.868821 0.154956 8.81326e-23)
(0.919256 0.130846 3.78677e-24)
(0.951787 0.102726 7.3061e-23)
(0.971839 0.0769032 6.54206e-24)
(0.983852 0.0554695 -1.25915e-23)
(0.990867 0.0388417 -1.09957e-23)
(0.994972 0.0257695 -1.3678e-23)
(0.997151 0.017273 1.03289e-23)
(0.998683 0.00795886 -3.56302e-24)
(1.09199 -2.73952 9.18637e-21)
(0.673597 -1.86631 3.69825e-21)
(0.549154 -1.34593 -9.62114e-22)
(0.487007 -0.976037 1.00599e-20)
(0.452948 -0.704478 6.78468e-21)
(0.438219 -0.485379 5.14016e-21)
(0.450298 -0.287753 -2.67974e-21)
(0.503311 -0.108474 7.86139e-22)
(0.593032 0.0324434 4.26606e-22)
(0.696137 0.117881 3.59536e-22)
(0.789916 0.150684 -1.70518e-22)
(0.863131 0.147512 -3.63443e-22)
(0.914595 0.12648 4.01966e-23)
(0.948259 0.100296 1.46616e-22)
(0.969267 0.0755921 5.75388e-23)
(0.982015 0.0547728 -2.36746e-23)
(0.989575 0.0384707 4.48505e-23)
(0.994084 0.0255714 2.9308e-24)
(0.996522 0.0171583 5.60532e-24)
(0.998289 0.00791164 -7.97286e-25)
(1.30866 -2.70187 -1.57267e-19)
(0.813045 -1.86609 -1.79731e-20)
(0.63067 -1.35751 1.96532e-20)
(0.545701 -0.990912 -2.65868e-20)
(0.49694 -0.717668 -1.66662e-20)
(0.472496 -0.498726 -1.49568e-20)
(0.475796 -0.304005 2.87252e-21)
(0.518213 -0.127824 7.34129e-22)
(0.597819 0.0129994 -1.36344e-21)
(0.694324 0.101687 -3.26648e-22)
(0.785313 0.139117 -4.98417e-23)
(0.858178 0.140142 4.83163e-22)
(0.910347 0.122149 -1.11497e-22)
(0.944954 0.0978839 -7.10902e-23)
(0.96681 0.0742876 -4.49202e-23)
(0.980236 0.054074 4.87771e-23)
(0.98831 0.0380923 5.86654e-24)
(0.993209 0.0253639 1.06485e-23)
(0.995898 0.0170334 -8.34156e-24)
(0.997895 0.00785892 1.78627e-24)
(1.52321 -2.6485 1.62759e-19)
(0.958658 -1.86332 4.44376e-20)
(0.715012 -1.37053 -6.21973e-21)
(0.605211 -1.0079 3.69334e-20)
(0.541568 -0.732432 -1.18186e-20)
(0.506924 -0.512876 7.87444e-22)