/*--------------------------------*- C++ -*----------------------------------*\
| =========                 |                                                 |
| \\      /  F ield         | OpenFOAM: The Open Source CFD Toolbox           |
|  \\    /   O peration     | Version:  v1912                                 |
|   \\  /    A nd           | Website:  www.openfoam.com                      |
|    \\/     M anipulation  |                                                 |
\*---------------------------------------------------------------------------*/
FoamFile
{
    version     2.0;
    format      ascii;
    class       surfaceScalarField;
    location    "40.5";
    object      phi;
}
// * * * * * * * * * * * * * * * * * * * * * * * * * * * * * * * * * * * * * //

dimensions      [0 3 -1 0 0 0 0];
oriented        oriented;


internalField   nonuniform List<scalar> 
18940
(
0.000357432
-0.234377
0.23402
0.00137603
-0.216348
0.215329
0.00287681
-0.204813
0.203312
0.00468959
-0.197026
0.195213
0.0066838
-0.191264
0.18927
0.00875794
-0.186463
0.184389
0.0108384
-0.182034
0.179953
0.0128757
-0.177682
0.175645
0.0148399
-0.173285
0.171321
0.0167157
-0.168813
0.166937
0.0184982
-0.164286
0.162504
0.0201899
-0.159749
0.158057
0.0217979
-0.155248
0.15364
0.023332
-0.150826
0.149292
0.0248033
-0.146521
0.14505
0.0262236
-0.142356
0.140936
0.0276042
-0.138344
0.136963
0.0289558
-0.134482
0.13313
0.0302866
-0.13075
0.12942
-0.12711
0.125794
0.0316021
0.00038084
-0.234758
0.00141932
-0.217386
0.00293082
-0.206324
0.00474795
-0.198843
0.00673669
-0.193253
0.0087956
-0.188522
0.0108523
-0.18409
0.012859
-0.179689
0.0147875
-0.175213
0.0166243
-0.170649
0.0183662
-0.166028
0.020017
-0.1614
0.0215847
-0.156815
0.0230798
-0.152321
0.0245139
-0.147955
0.025899
-0.143741
0.0272468
-0.139692
0.0285681
-0.135803
0.0298719
-0.132054
-0.128402
0.0311641
0.000402253
-0.23516
0.00145695
-0.218441
0.00297718
-0.207844
0.00479491
-0.200661
0.00677455
-0.195233
0.00881458
-0.190562
0.0108439
-0.18612
0.0128165
-0.181662
0.0147062
-0.177103
0.0165012
-0.172444
0.0182001
-0.167727
0.0198078
-0.163007
0.0213334
-0.158341
0.0227879
-0.153776
0.0241834
-0.149351
0.025532
-0.14509
0.0268457
-0.141005
0.0281355
-0.137093
0.0294109
-0.13333
-0.12967
0.0306786
0.000416116
-0.235576
0.00148586
-0.219511
0.00301398
-0.209373
0.00482975
-0.202476
0.00679692
-0.1972
0.00881453
-0.192579
0.0108129
-0.188118
0.0127482
-0.183597
0.0145961
-0.178951
0.0163468
-0.174195
0.0180004
-0.169381
0.0195632
-0.16457
0.0210451
-0.159823
0.0224577
-0.155189
0.0238133
-0.150706
0.0251243
-0.146401
0.0264027
-0.142284
0.02766
-0.13835
0.0289061
-0.134576
-0.130912
0.0301486
0.000427377
-0.236004
0.00150938
-0.220593
0.00304256
-0.210906
0.00485311
-0.204287
0.00680428
-0.199151
0.0087959
-0.194571
0.01076
-0.190082
0.0126548
-0.185492
0.0144581
-0.180754
0.0161621
-0.175899
0.0177683
-0.170987
0.0192845
-0.166086
0.0207211
-0.161259
0.0220905
-0.156558
0.0234051
-0.152021
0.0246774
-0.147673
0.0259196
-0.143526
0.0271434
-0.139574
0.0283593
-0.135792
-0.132129
0.0295759
0.000436463
-0.23644
0.00152794
-0.221684
0.00306317
-0.212441
0.00486524
-0.206089
0.00679691
-0.201083
0.00875908
-0.196533
0.0106857
-0.192009
0.0125369
-0.187343
0.014293
-0.18251
0.0159479
-0.177554
0.0175049
-0.172544
0.0189726
-0.167554
0.0203627
-0.162649
0.0216876
-0.157883
0.02296
-0.153293
0.0241926
-0.148906
0.0253977
-0.144731
0.0265871
-0.140764
0.0277719
-0.136976
-0.133319
0.0289617
0.000443941
-0.236884
0.0015422
-0.222782
0.00307638
-0.213975
0.00486661
-0.207879
0.00677533
-0.202991
0.00870466
-0.198462
0.0105905
-0.193895
0.0123954
-0.189148
0.0141016
-0.184217
0.0157053
-0.179158
0.0172111
-0.17405
0.0186289
-0.168972
0.0199709
-0.163991
0.02125
-0.159162
0.0224793
-0.154523
0.0236711
-0.150098
0.0248378
-0.145898
0.0259917
-0.141917
0.0271444
-0.138129
-0.134481
0.0283067
0.000449965
-0.237334
0.00155249
-0.223885
0.0030826
-0.215505
0.0048577
-0.209654
0.00674011
-0.204874
0.00863331
-0.200356
0.0104753
-0.195737
0.0122311
-0.190904
0.0138851
-0.185871
0.0154354
-0.180708
0.0168881
-0.175503
0.0182543
-0.170338
0.0195468
-0.165284
0.0207789
-0.160394
0.0219636
-0.155707
0.0231134
-0.151247
0.0242406
-0.147025
0.0253577
-0.143034
0.0264771
-0.139249
-0.135615
0.0276108
0.000454641
-0.237789
0.00155909
-0.224989
0.00308227
-0.217028
0.00483907
-0.211411
0.00669192
-0.206727
0.00854586
-0.20221
0.0103412
-0.197532
0.0120452
-0.192608
0.0136446
-0.18747
0.0151393
-0.182203
0.0165371
-0.1769
0.01785
-0.171651
0.0190915
-0.166525
0.0202751
-0.161578
0.0214139
-0.156846
0.0225202
-0.152354
0.0236062
-0.148111
0.0246849
-0.144113
0.0257693
-0.140333
-0.136718
0.0268729
0.000458043
-0.238247
0.0015623
-0.226094
0.00307586
-0.218542
0.00481136
-0.213147
0.00663156
-0.208547
0.00844327
-0.204021
0.0101891
-0.199278
0.0118388
-0.194257
0.0133814
-0.189013
0.0148186
-0.18364
0.0161596
-0.178241
0.0174174
-0.172909
0.0186061
-0.167714
0.0197395
-0.162711
0.0208306
-0.157937
0.0218916
-0.153415
0.0229346
-0.149154
0.0239726
-0.145151
0.0250199
-0.14138
-0.137789
0.0260913
0.000460278
-0.238707
0.00156245
-0.227196
0.00306395
-0.220044
0.00477533
-0.214858
0.00655999
-0.210331
0.00832666
-0.205788
0.0100204
-0.200972
0.0116135
-0.19585
0.013097
-0.190496
0.0144747
-0.185017
0.015757
-0.179524
0.0169578
-0.17411
0.0180919
-0.168848
0.0191731
-0.163793
0.0202145
-0.158978
0.0212278
-0.154428
0.0222251
-0.150151
0.0232198
-0.146146
0.0242269
-0.142387
-0.138826
0.0252633
0.000461499
-0.239168
0.00156
-0.228294
0.00304721
-0.221531
0.00473188
-0.216543
0.00647831
-0.212078
0.00819737
-0.207507
0.00983664
-0.202611
0.0113708
-0.197385
0.0127934
-0.191919
0.0141095
-0.186333
0.0153312
-0.180745
0.016473
-0.175251
0.0175503
-0.169925
0.0185771
-0.164819
0.0195661
-0.159967
0.020529
-0.155391
0.0214776
-0.1511
0.0224252
-0.147093
0.0233883
-0.14335
-0.139823
0.0243858
0.000461986
-0.23963
0.00155555
-0.229388
0.00302651
-0.223002
0.00468208
-0.218198
0.00638782
-0.213784
0.00805693
-0.209176
0.00963957
-0.204193
0.0111129
-0.198858
0.0124725
-0.193278
0.0137253
-0.187586
0.0148844
-0.181904
0.0159652
-0.176332
0.0169833
-0.170944
0.017953
-0.165789
0.0188867
-0.160901
0.0197958
-0.1563
0.0206916
-0.151996
0.0215877
-0.14799
0.0225016
-0.144264
-0.140777
0.0234549
0.000462218
-0.240093
0.00154996
-0.230475
0.0030029
-0.224455
0.00462717
-0.219823
0.00628999
-0.215446
0.00790707
-0.210793
0.0094312
-0.205718
0.010842
-0.200269
0.0121371
-0.194573
0.0133249
-0.188774
0.0144195
-0.182999
0.0154371
-0.17735
0.0163935
-0.1719
0.0173029
-0.166698
0.0181776
-0.161776
0.0190285
-0.157151
0.0198665
-0.152834
0.0207051
-0.148828
0.0215629
-0.145122
-0.141678
0.0224644
0.000462996
-0.240556
0.00154441
-0.231557
0.00297758
-0.225888
0.0045685
-0.221414
0.00618643
-0.217064
0.00774972
-0.212356
0.00921381
-0.207182
0.0105607
-0.201616
0.01179
-0.195803
0.0129115
-0.189896
0.0139402
-0.184028
0.0148926
-0.178302
0.0157846
-0.172792
0.0166302
-0.167544
0.0174415
-0.162587
0.0182287
-0.157938
0.0190021
-0.153607
0.0197747
-0.149601
0.0205658
-0.145913
-0.142518
0.0214057
0.000465466
-0.241021
0.00154019
-0.232632
0.00295178
-0.227299
0.00450744
-0.222969
0.00607883
-0.218636
0.00758693
-0.213865
0.00898986
-0.208585
0.010272
-0.202898
0.0114347
-0.196965
0.0124891
-0.19095
0.0134508
-0.184989
0.0143365
-0.179188
0.015162
-0.173617
0.0159409
-0.168323
0.0166844
-0.163331
0.0174019
-0.158655
0.0181025
-0.154308
0.0187982
-0.150296
0.0195096
-0.146625
-0.143284
0.0202756
0.00047102
-0.241492
0.00153862
-0.233699
0.00292679
-0.228688
0.00444556
-0.224488
0.00596903
-0.220159
0.0074209
-0.215316
0.00876199
-0.209926
0.00997901
-0.204115
0.011075
-0.198061
0.0120622
-0.191937
0.0129566
-0.185884
0.0137749
-0.180006
0.0145324
-0.174375
0.015242
-0.169033
0.0159142
-0.164003
0.0165572
-0.159298
0.0171785
-0.154929
0.0177882
-0.150906
0.0184068
-0.147243
-0.143952
0.0190743
0.000481988
-0.241974
0.00154232
-0.23476
0.0029051
-0.23005
0.00438496
-0.225968
0.005859
-0.221633
0.00725373
-0.216711
0.00853274
-0.211205
0.00968494
-0.205267
0.010715
-0.199091
0.0116358
-0.192858
0.0124636
-0.186712
0.0132145
-0.180757
0.013903
-0.175063
0.0145408
-0.16967
0.015137
-0.164599
0.0156992
-0.159861
0.0162336
-0.155464
0.0167469
-0.151419
0.0172517
-0.147748
-0.144472
0.0177722
0.000505948
-0.24248
0.00155852
-0.235812
0.00289076
-0.231383
0.00432754
-0.227405
0.00574996
-0.223056
0.00708686
-0.218048
0.00830412
-0.212422
0.00939274
-0.206356
0.0103588
-0.200057
0.0112158
-0.193715
0.0119798
-0.187476
0.012666
-0.181443
0.0132869
-0.175684
0.0138514
-0.170235
0.0143655
-0.165113
0.0148328
-0.160328
0.0152552
-0.155886
0.0156316
-0.151796
0.0159663
-0.148083
-0.144827
0.0163215
0.00056302
-0.243043
0.00159551
-0.236845
0.00288352
-0.232671
0.00427212
-0.228793
0.00564145
-0.224425
0.00692067
-0.219327
0.00807743
-0.213579
0.0091047
-0.207383
0.01001
-0.200963
0.0108079
-0.194513
0.0115142
-0.188182
0.0121435
-0.182073
0.0127062
-0.176247
0.0132081
-0.170737
0.0136489
-0.165554
0.0140212
-0.1607
0.014308
-0.156173
0.0144835
-0.151971
0.0145423
-0.148142
-0.144999
0.0147135
0.250715
0.000414604
-0.251129
0.250327
0.000388233
0.249946
0.000380953
0.249565
0.000381075
0.249181
0.000384012
0.248792
0.000388415
0.248399
0.000393558
0.248
0.000398855
0.247596
0.000403912
0.247187
0.000408524
0.246775
0.000412594
0.246359
0.000416097
0.24594
0.000419013
0.245518
0.000421321
0.245095
0.000422895
0.244672
0.00042353
0.24425
0.000422178
0.243831
0.000418289
0.243429
0.000402664
0.000385558
0.252663
0.00102232
-0.253271
0.25202
0.00103148
0.251348
0.00105253
0.25065
0.00107947
0.249926
0.00110779
0.249178
0.00113612
0.248408
0.001164
0.247616
0.00119092
0.246803
0.00121646
0.245971
0.00124036
0.245121
0.00126253
0.244255
0.00128292
0.243372
0.00130153
0.242475
0.00131837
0.241565
0.00133328
0.240642
0.00134606
0.239709
0.00135561
0.238765
0.00136165
0.23781
0.00135792
0.00135107
0.251428
0.00159352
-0.251999
0.250792
0.00166734
0.250103
0.00174137
0.249366
0.0018165
0.248583
0.0018904
0.247758
0.00196183
0.246891
0.00203047
0.245986
0.0020961
0.245044
0.00215846
0.244067
0.0022174
0.243057
0.00227286
0.242015
0.00232491
0.240943
0.0023736
0.239842
0.00241906
0.238714
0.00246131
0.237559
0.00250037
0.236379
0.00253573
0.235173
0.00256763
0.233938
0.00259368
0.00261807
0.247311
0.00203641
-0.247754
0.246798
0.0021798
0.246221
0.00231858
0.245584
0.00245418
0.244888
0.00258595
0.244137
0.00271309
0.243332
0.00283526
0.242476
0.0029523
0.24157
0.00306407
0.240617
0.0031705
0.239618
0.0032716
0.238576
0.0033675
0.237491
0.0034584
0.236365
0.0035446
0.2352
0.00362635
0.233997
0.00370402
0.232755
0.00377772
0.231474
0.00384805
0.230154
0.00391431
0.0039785
0.241056
0.00231517
-0.241335
0.240706
0.00252979
0.240287
0.00273764
0.239801
0.00293957
0.239252
0.00313552
0.23864
0.00332506
0.237967
0.00350782
0.237236
0.00368364
0.236448
0.00385238
0.235604
0.00401401
0.234707
0.00416861
0.233758
0.00431636
0.232759
0.00445759
0.231711
0.00459278
0.230615
0.00472245
0.229471
0.0048473
0.228281
0.00496793
0.227044
0.00508529
0.225759
0.00519955
0.00531236
0.233454
0.00243844
-0.233577
0.23326
0.00272359
0.232997
0.0030008
0.232666
0.0032704
0.232269
0.00353239
0.231808
0.00378649
0.231283
0.00403237
0.230697
0.00426978
0.230051
0.0044986
0.229346
0.00471878
0.228584
0.00493044
0.227767
0.00513382
0.226895
0.00532935
0.22597
0.00551767
0.224993
0.00569957
0.223964
0.0058761
0.222884
0.0060483
0.221752
0.00621755
0.220567
0.00638471
0.00655163
0.225208
0.00243671
-0.225206
0.225142
0.00278983
0.225008
0.00313427
0.224809
0.00346997
0.224544
0.00379684
0.224216
0.00411462
0.223825
0.00442297
0.223374
0.0047216
0.222862
0.00501034
0.222291
0.00528914
0.221664
0.00555809
0.22098
0.00581749
0.220242
0.00606786
0.219449
0.00630998
0.218604
0.00654491
0.217706
0.00677404
0.216755
0.0069989
0.215752
0.00722141
0.214693
0.00744309
0.00766611
0.216844
0.00234611
-0.216754
0.21687
0.00276366
0.216833
0.00317193
0.216732
0.00357063
0.216569
0.00395955
0.216345
0.00433837
0.216062
0.00470672
0.215719
0.00506425
0.215319
0.00541074
0.214862
0.00574609
0.214349
0.00607037
0.213783
0.00638388
0.213164
0.00668721
0.212492
0.00698126
0.21177
0.00726737
0.210997
0.00754727
0.210173
0.00782307
0.209297
0.00809729
0.208367
0.00837229
0.00865075
0.20871
0.00219988
-0.208563
0.208795
0.00267808
0.208821
0.00314644
0.208787
0.00360452
0.208694
0.00405199
0.208544
0.00448846
0.208337
0.00491349
0.208075
0.00532668
0.207758
0.00572772
0.207388
0.00611644
0.206965
0.00649286
0.206492
0.00685724
0.205969
0.00721019
0.205397
0.00755272
0.204778
0.0078864
0.204112
0.00821334
0.203399
0.00853629
0.202638
0.00885853
0.201827
0.00918349
0.0095147
0.201004
0.002025
-0.200829
0.201122
0.00256027
0.201183
0.00308513
0.201189
0.00359904
0.201139
0.00410155
0.201035
0.00459219
0.200878
0.00507044
0.200669
0.00553581
0.200409
0.0059879
0.200099
0.00642644
0.199741
0.00685135
0.199335
0.00726281
0.198884
0.00766139
0.198389
0.00804813
0.19785
0.0084248
0.19727
0.00879385
0.196647
0.00915879
0.195982
0.00952377
0.195272
0.00989375
0.0102735
0.193821
0.00184127
-0.193637
0.193951
0.00243052
0.194027
0.00300877
0.194051
0.00357537
0.194023
0.00412977
0.193943
0.00467141
0.193814
0.00519968
0.193636
0.00571398
0.19341
0.00621379
0.193138
0.00669872
0.192821
0.00716854
0.19246
0.00762327
0.192058
0.00806338
0.191616
0.00848982
0.191137
0.0089045
0.190621
0.00931008
0.190068
0.00971099
0.18948
0.0101123
0.188852
0.0105211
0.0109439
0.187183
0.00166212
-0.187004
0.187311
0.00230283
0.187388
0.00293195
0.187414
0.00354865
0.187392
0.00415231
0.187321
0.00474227
0.187203
0.00531781
0.187038
0.00587823
0.186829
0.00642288
0.186577
0.00695117
0.186283
0.00746269
0.185949
0.00795724
0.185577
0.00843506
0.18517
0.00889686
0.18473
0.00934459
0.184259
0.00978083
0.183759
0.0102111
0.18323
0.0106412
0.18267
0.0110817
0.0115408
0.181071
0.00149585
-0.180904
0.181187
0.00218618
0.181255
0.00286418
0.181275
0.00352892
0.181247
0.00417973
0.181174
0.00481585
0.181055
0.00543646
0.180893
0.00604071
0.180688
0.00662781
0.180442
0.00719698
0.180157
0.00774754
0.179835
0.00827898
0.179479
0.00879121
0.179091
0.00928446
0.178676
0.00976056
0.178235
0.0102216
0.177771
0.0106744
0.177288
0.0111246
0.176781
0.0115884
0.0120752
0.175441
0.00134731
-0.175293
0.175542
0.00208574
0.175595
0.00281105
0.175601
0.00352227
0.175562
0.0042186
0.175479
0.0048992
0.175352
0.00556312
0.175184
0.00620943
0.174974
0.00683712
0.174726
0.0074452
0.174441
0.00803272
0.174121
0.00859872
0.17377
0.00914269
0.17339
0.00966409
0.172986
0.0101645
0.172563
0.0106445
0.172125
0.0111129
0.171677
0.0115728
0.171215
0.0120506
0.0125529
0.170243
0.00121877
-0.170114
0.170324
0.00200421
0.17036
0.00277559
0.17035
0.00353199
0.170296
0.00427253
0.170199
0.00499625
0.17006
0.00570213
0.169881
0.00638907
0.169662
0.00705593
0.169405
0.00770145
0.169114
0.00832435
0.168789
0.00892321
0.168435
0.00949692
0.168055
0.0100439
0.167655
0.0105651
0.16724
0.0110588
0.166817
0.0115358
0.166397
0.011993
0.165974
0.012474
0.0129727
0.165421
0.00111102
-0.165313
0.165483
0.00194239
0.1655
0.00275878
0.165472
0.00355926
0.165402
0.00434289
0.16529
0.0051086
0.165136
0.00585528
0.164944
0.00658173
0.164713
0.00728661
0.164446
0.00796843
0.164145
0.00862557
0.163812
0.0092561
0.163451
0.00985821
0.163066
0.010429
0.162662
0.0109686
0.16225
0.0114712
0.161835
0.0119505
0.161438
0.0123899
0.16105
0.0128623
0.0133225
0.160923
0.00102355
-0.160836
0.160966
0.0018998
0.160964
0.00276019
0.16092
0.00360372
0.160834
0.00442936
0.160706
0.00523599
0.160539
0.00602241
0.160333
0.00678729
0.160091
0.00752916
0.159813
0.00824631
0.159502
0.00893679
0.15916
0.00959816
0.15879
0.0102279
0.158397
0.0108217
0.157988
0.011378
0.157573
0.0118861
0.157161
0.0123621
0.156785
0.0127664
0.156427
0.0132203
0.0135764
0.156703
0.000954542
-0.156634
0.156728
0.00187489
0.15671
0.00277812
0.15665
0.00366353
0.156549
0.00452999
0.156409
0.00537631
0.15623
0.00620124
0.156014
0.00700337
0.155762
0.00778109
0.155476
0.00853251
0.155157
0.0092554
0.154809
0.00994692
0.154433
0.0106038
0.154034
0.0112204
0.153618
0.0117935
0.153199
0.0123056
0.152787
0.0127739
0.152432
0.0131218
0.152098
0.013554
0.0137036
0.152717
0.000902037
-0.152664
0.152727
0.00186482
0.152695
0.00280937
0.152624
0.00373512
0.152513
0.00464077
0.152364
0.00552512
0.152178
0.00638691
0.151957
0.00722466
0.151702
0.00803664
0.151413
0.00882084
0.151094
0.00957487
0.150745
0.0102955
0.15037
0.0109792
0.149972
0.0116188
0.149555
0.01221
0.149133
0.0127277
0.148717
0.0131895
0.148383
0.0134562
0.14809
0.0138466
0.0136522
0.148925
-0.148888
0.000864473
0.148925
0.00186564
0.148884
0.00284955
0.148806
0.00381341
0.148691
0.00475586
0.14854
0.00567582
0.148355
0.00657202
0.148137
0.00744293
0.147887
0.00828676
0.147606
0.00910143
0.147297
0.00988449
0.14696
0.0106325
0.146597
0.0113418
0.146211
0.0120043
0.145805
0.0126159
0.145388
0.0131447
0.144965
0.0136125
0.144615
0.0138068
0.144357
0.0141042
0.0130108
0.254347
7.40603e-05
-0.254421
0.254311
3.63398e-05
0.254278
3.24724e-05
0.254237
4.13732e-05
0.254181
5.57744e-05
0.254107
7.35967e-05
0.254014
9.35377e-05
0.253899
0.000114473
0.253764
0.00013559
0.253607
0.000156381
0.253431
0.000176408
0.253236
0.000195387
0.253022
0.000213807
0.252789
0.000232721
0.252539
0.000249997
0.252274
0.000265163
0.251996
0.000277812
0.251708
0.000287857
0.251419
0.000289439
0.000289436
0.256186
-0.000241148
-0.25587
0.256439
-0.0002173
0.256648
-0.000176479
0.256812
-0.00012278
0.256931
-6.2716e-05
0.257003
1.10717e-06
0.257029
6.75475e-05
0.257008
0.000135514
0.25694
0.000204084
0.256824
0.000272325
0.256661
0.000338993
0.256454
0.000402851
0.256205
0.000462668
0.255908
0.000529888
0.255566
0.000591567
0.255183
0.000648659
0.254759
0.000701048
0.254299
0.000748672
0.253801
0.000786877
0.000819879
0.251609
-0.000897042
-0.250953
0.252192
-0.000800331
0.252709
-0.000693772
0.253164
-0.000577527
0.253556
-0.000455111
0.253886
-0.000328765
0.254153
-0.000199636
0.254358
-6.91348e-05
0.254499
6.27493e-05
0.254576
0.000195461
0.25459
0.000325142
0.254541
0.000451416
0.254427
0.000576575
0.254256
0.000701454
0.254025
0.000822203
0.253736
0.000937948
0.253389
0.0010482
0.252984
0.00115287
0.252521
0.00125
0.00134239
0.243285
-0.00183148
-0.24235
0.244147
-0.00166211
0.244938
-0.00148546
0.245662
-0.00130081
0.246316
-0.00110983
0.246902
-0.000914315
0.247418
-0.000715622
0.247864
-0.000515011
0.24824
-0.00031317
0.248542
-0.00010734
0.248773
9.43354e-05
0.248936
0.000288796
0.249027
0.000485193
0.24905
0.000678571
0.249004
0.000867874
0.24889
0.00105219
0.248708
0.00123078
0.248457
0.00140326
0.248139
0.00156857
0.00172728
0.233201
-0.00296451
-0.232068
0.234266
-0.00272701
0.235262
-0.002482
0.236191
-0.00222904
0.23705
-0.00196907
0.237839
-0.00170356
0.238557
-0.00143395
0.239204
-0.00116145
0.239778
-0.000887014
0.240282
-0.000611435
0.240714
-0.000337926
0.241071
-6.79172e-05
0.241355
0.000200673
0.241568
0.000465932
0.241708
0.000727472
0.241777
0.000983852
0.241773
0.00123434
0.241698
0.00147833
0.241552
0.00171502
0.00194433
0.222645
-0.00422386
-0.221385
0.223841
-0.00392311
0.224972
-0.00361328
0.226038
-0.00329452
0.227036
-0.00296765
0.227967
-0.00263408
0.228828
-0.00229538
0.22962
-0.00195303
0.230341
-0.00160846
0.230993
-0.00126302
0.231573
-0.00091826
0.232081
-0.000575481
0.232517
-0.000235542
0.232883
0.000100016
0.233177
0.000432683
0.2334
0.000761344
0.233551
0.00108332
0.233631
0.00139853
0.233639
0.00170636
0.00200655
0.212399
-0.00555203
-0.211071
0.213669
-0.00519221
0.214876
-0.00482121
0.216022
-0.00443967
0.217103
-0.00404863
0.218118
-0.0036497
0.219067
-0.00324468
0.21995
-0.00283532
0.220765
-0.00242327
0.221512
-0.00200998
0.22219
-0.00159685
0.2228
-0.0011853
0.223341
-0.000776123
0.223811
-0.000370052
0.224218
2.52239e-05
0.224553
0.000426032
0.224819
0.000817208
0.225017
0.00120107
0.225146
0.00157753
0.00194621
0.202876
-0.00690729
-0.20152
0.204175
-0.00649173
0.205416
-0.0060626
0.206598
-0.0056209
0.207717
-0.00516812
0.208774
-0.00470627
0.209767
-0.00423748
0.210695
-0.00376377
0.211559
-0.00328696
0.212357
-0.00280869
0.213091
-0.00233041
0.213759
-0.00185351
0.214362
-0.00137905
0.2149
-0.000908
0.215367
-0.000441716
0.215779
1.36838e-05
0.21612
0.000476604
0.216396
0.000924771
0.216607
0.00136639
0.00180011
0.194232
-0.00826188
-0.192877
0.195533
-0.00779312
0.196779
-0.00730809
0.197966
-0.00680811
0.199093
-0.00629535
0.200159
-0.00577239
0.201164
-0.0052418
0.202106
-0.0047059
0.202985
-0.00416675
0.203803
-0.00362613
0.204558
-0.00308557
0.205251
-0.00254641
0.205882
-0.00200983
0.20645
-0.00147676
0.206957
-0.000948602
0.207398
-0.000426663
0.207784
9.05612e-05
0.208105
0.000603606
0.208365
0.00110651
0.00160156
0.186475
-0.00959906
-0.185138
0.187761
-0.00907907
0.188993
-0.00853962
0.190167
-0.00798242
0.191283
-0.00741062
0.192338
-0.00682764
0.193333
-0.00623657
0.194267
-0.00564008
0.19514
-0.00504046
0.195954
-0.00443963
0.196708
-0.00383914
0.197401
-0.00324031
0.198036
-0.00264429
0.198611
-0.00205204
0.199127
-0.00146456
0.199583
-0.000882776
0.199981
-0.000307406
0.200323
0.000261966
0.200605
0.000824362
0.00137728
0.179535
-0.0109102
-0.178224
0.180797
-0.0103406
0.182005
-0.00974757
0.183156
-0.00913335
0.184248
-0.00850272
0.18528
-0.00786015
0.186253
-0.00720931
0.187166
-0.00655328
0.18802
-0.00589457
0.188816
-0.00523516
0.189553
-0.0045766
0.190233
-0.00392015
0.190856
-0.00326688
0.191421
-0.00261773
0.19193
-0.00197352
0.192383
-0.00133514
0.192778
-0.000703104
0.193121
-8.0345e-05
0.193407
0.00053848
0.00114656
0.173306
-0.0121921
-0.172024
0.174541
-0.0115749
0.175721
-0.0109283
0.176845
-0.0102565
0.177908
-0.00956652
0.178912
-0.0088642
0.179857
-0.00815379
0.180742
-0.00743881
0.18157
-0.00672194
0.18234
-0.00600518
0.183053
-0.00528997
0.183711
-0.00457749
0.184312
-0.00386868
0.184859
-0.00316442
0.185351
-0.00246547
0.185788
-0.00177267
0.186172
-0.00108677
0.186501
-0.000409325
0.18678
0.000259826
0.000922481
0.16768
-0.0134459
-0.166426
0.168888
-0.0127832
0.170042
-0.0120824
0.171137
-0.0113514
0.172172
-0.0106011
0.173146
-0.00983827
0.17406
-0.00906801
0.174916
-0.00829425
0.175713
-0.00751978
0.176455
-0.00674647
0.17714
-0.00597564
0.177771
-0.00520829
0.178348
-0.00444523
0.178871
-0.00368723
0.17934
-0.00293501
0.179757
-0.00218938
0.180121
-0.00145081
0.180432
-0.000720032
0.180695
-3.82569e-06
0.000713403
0.162556
-0.0146751
-0.161327
0.163743
-0.0139703
0.164874
-0.0132133
0.165943
-0.0124207
0.16695
-0.0116081
0.167896
-0.0107833
0.16878
-0.00995238
0.169605
-0.00911956
0.170373
-0.00828764
0.171085
-0.00745826
0.171742
-0.00663248
0.172344
-0.00581109
0.172894
-0.00499471
0.173391
-0.004184
0.173835
-0.0033796
0.174228
-0.00258224
0.17457
-0.00179258
0.174862
-0.00101193
0.1751
-0.000242096
0.000520949
0.157852
-0.0158866
-0.156641
0.159026
-0.0151439
0.160139
-0.0143267
0.161187
-0.0134686
0.162169
-0.0125905
0.163087
-0.0117013
0.163943
-0.010808
0.164739
-0.0099153
0.165477
-0.0090257
0.166159
-0.00814045
0.166787
-0.00726022
0.167361
-0.00638546
0.167883
-0.00551656
0.168353
-0.004654
0.168772
-0.00379832
0.16914
-0.00295023
0.169457
-0.00211047
0.169726
-0.00128
0.169943
-0.000459938
0.000349964
0.153505
-0.0170928
-0.152298
0.154675
-0.0163142
0.155778
-0.0154294
0.156809
-0.0144999
0.157769
-0.0135508
0.158661
-0.0125928
0.159487
-0.0116346
0.160253
-0.0106809
0.160961
-0.00973333
0.161613
-0.00879248
0.162211
-0.00785843
0.162756
-0.00693111
0.16325
-0.00601058
0.163694
-0.00509708
0.164086
-0.00419108
0.164429
-0.00329316
0.164723
-0.0024041
0.164968
-0.0015247
0.165164
-0.000656176
0.000200507
0.149469
-0.0183228
-0.148238
0.150651
-0.0174965
0.151749
-0.0165278
0.152766
-0.0155171
0.153703
-0.0144875
0.154565
-0.0134546
0.155359
-0.0124291
0.156092
-0.0114136
0.156767
-0.0104084
0.157388
-0.00941297
0.157956
-0.00842633
0.158472
-0.00744774
0.158939
-0.0064768
0.159355
-0.00551354
0.159722
-0.00455827
0.160041
-0.00361154
0.160311
-0.0026741
0.160533
-0.00174683
0.160707
-0.000830712
7.19016e-05
0.145714
-0.0196412
-0.144396
0.14693
-0.0187127
0.148025
-0.0176226
0.149023
-0.0165147
0.149927
-0.0153924
0.150751
-0.0142786
0.151507
-0.0131848
0.152203
-0.012109
0.152843
-0.0110484
0.15343
-0.0100006
0.153967
-0.0089635
0.154455
-0.00793554
0.154894
-0.00691585
0.155285
-0.00590422
0.155628
-0.00490092
0.155922
-0.00390649
0.15617
-0.0029217
0.156371
-0.00194762
0.156525
-0.000985226
-3.64668e-05
0.142257
-0.0211177
-0.140781
0.143504
-0.0199599
0.144577
-0.0186953
0.145533
-0.0174704
0.146389
-0.0162488
0.147165
-0.0150541
0.147875
-0.0138951
0.14853
-0.0127635
0.149133
-0.0116518
0.149688
-0.0105553
0.150195
-0.00947075
0.150655
-0.00839574
0.151068
-0.00732913
0.151435
-0.00627067
0.151755
-0.00522067
0.152028
-0.00417972
0.152255
-0.0031487
0.152436
-0.00212878
0.152572
-0.00112145
-0.000128271
0.139167
-0.137751
-0.0225341
0.140328
-0.0211204
0.14136
-0.0197279
0.142236
-0.0183466
0.143025
-0.0170374
0.143748
-0.0157772
0.144413
-0.0145597
0.145027
-0.0133778
0.145596
-0.0122204
0.14612
-0.0110793
0.146599
-0.00995007
0.147033
-0.00883004
0.147422
-0.00771814
0.147766
-0.00661424
0.148064
-0.00551883
0.148317
-0.00443268
0.148525
-0.00335678
0.148688
-0.00229214
0.148807
-0.00124033
-0.000208824
0.0307779
0.111979
-0.110497
-0.0322595
0.0292692
0.114986
-0.113477
0.0277305
0.118126
-0.116587
0.0261583
0.121422
-0.11985
0.0245493
0.124907
-0.123298
0.0229008
0.128622
-0.126973
0.0212105
0.132626
-0.130936
0.0194772
0.136998
-0.135265
0.0177002
0.141842
-0.140065
0.0158798
0.147288
-0.145468
0.0140177
0.153498
-0.151636
0.0121182
0.160658
-0.158758
0.0101901
0.168969
-0.16704
0.00825026
0.178618
-0.176678
0.00632835
0.189729
-0.187807
0.00447452
0.202265
-0.200412
0.00276843
0.215891
-0.214185
0.00133044
0.229752
-0.228314
0.000329635
0.242069
-0.241068
0.249713
-0.249383
0.0305903
0.113453
-0.0320644
0.0290891
0.116487
0.0275581
0.119657
0.0259939
0.122986
0.0243931
0.126507
0.0227528
0.130262
0.0210708
0.134308
0.0193456
0.138723
0.0175764
0.143611
0.0157635
0.149101
0.0139089
0.155353
0.012017
0.16255
0.0100972
0.170888
0.0081672
0.180548
0.00625787
0.191638
0.00442083
0.204102
0.00273722
0.217575
0.00132684
0.231163
0.000353424
0.243042
0.250066
0.0303608
0.114917
-0.0318253
0.0288693
0.117979
0.0273483
0.121178
0.0257942
0.12454
0.0242037
0.128098
0.0225738
0.131892
0.0209023
0.135979
0.0191875
0.140438
0.0174284
0.14537
0.0156255
0.150904
0.0137807
0.157198
0.0118988
0.164432
0.00998983
0.172797
0.00807207
0.182466
0.00617747
0.193533
0.00435864
0.205921
0.00269726
0.219236
0.00131149
0.232548
0.000356526
0.243997
0.250423
0.0300911
0.11637
-0.0315437
0.0286115
0.119458
0.0271025
0.122687
0.0255606
0.126082
0.0239824
0.129676
0.022365
0.133509
0.020706
0.137638
0.0190036
0.142141
0.0172569
0.147117
0.0154661
0.152695
0.0136334
0.15903
0.0117639
0.166301
0.00986792
0.174693
0.00796458
0.184369
0.00608659
0.195411
0.00428732
0.207721
0.00264856
0.220875
0.00128684
0.23391
0.00035149
0.244933
0.250774
0.0297833
0.117809
-0.0312223
0.0283175
0.120924
0.0268224
0.124182
0.0252945
0.12761
0.0237306
0.13124
0.0221275
0.135112
0.0204828
0.139283
0.0187948
0.143829
0.0170624
0.148849
0.0152858
0.154471
0.0134673
0.160849
0.0116122
0.168156
0.0097315
0.176574
0.00784469
0.186256
0.00598534
0.19727
0.00420745
0.209498
0.00259287
0.22249
0.00125647
0.235247
0.0003426
0.245847
0.251117
0.0294401
0.119233
-0.0308639
0.0279896
0.122375
0.02651
0.125661
0.0249978
0.129122
0.0234495
0.132788
0.0218624
0.1367
0.0202338
0.140912
0.0185618
0.1455
0.0168455
0.150565
0.015085
0.156232
0.0132827
0.162651
0.0114442
0.169995
0.00958079
0.178437
0.00771266
0.188124
0.00587408
0.199109
0.00411967
0.211253
0.0025312
0.224078
0.00122176
0.236556
0.000331024
0.246737
0.251448
0.0290643
0.12064
-0.0304717
0.0276302
0.123809
0.0261673
0.127124
0.0246719
0.130618
0.0231408
0.13432
0.0215709
0.138269
0.0199598
0.142523
0.0183055
0.147155
0.0166069
0.152264
0.0148643
0.157974
0.0130801
0.164435
0.0112601
0.171815
0.00941608
0.180281
0.00756876
0.189971
0.00575313
0.200924
0.00402433
0.212982
0.00246396
0.225639
0.00118325
0.237837
0.000317469
0.247603
0.251765
0.0286586
0.122031
-0.0300491
0.0272417
0.125226
0.0257962
0.12857
0.0243187
0.132095
0.0228056
0.135833
0.0212541
0.139821
0.0196617
0.144115
0.0180265
0.14879
0.0163472
0.153943
0.0146242
0.159697
0.0128598
0.1662
0.0110603
0.173614
0.00923766
0.182104
0.00741328
0.191796
0.00562276
0.202715
0.00392172
0.214683
0.0023915
0.227169
0.00114147
0.239087
0.000302537
0.248442
0.252068
0.028226
0.123404
-0.0295996
0.0268264
0.126625
0.0253988
0.129997
0.0239395
0.133554
0.0224452
0.137327
0.020913
0.141353
0.0193404
0.145688
0.0177254
0.150405
0.0160668
0.155602
0.0143649
0.161399
0.0126222
0.167942
0.010845
0.175391
0.00904578
0.183903
0.00724645
0.193595
0.00548323
0.204478
0.00381216
0.216354
0.00231422
0.228667
0.0010969
0.240304
0.000286645
0.249252
0.252354
0.0277692
0.124762
-0.0291267
0.0263865
0.128008
0.0249766
0.131407
0.0235357
0.134995
0.0220606
0.138802
0.0205483
0.142865
0.0189964
0.14724
0.0174027
0.151999
0.0157661
0.157238
0.0140868
0.163079
0.0123674
0.169662
0.0106144
0.177144
0.00884064
0.185677
0.0070685
0.195367
0.0053348
0.206212
0.00369593
0.217993
0.00223246
0.23013
0.0010499
0.241487
0.000270038
0.250032
0.252624
0.0272907
0.126104
-0.0286335
0.0259237
0.129375
0.0245307
0.1328
0.023108
0.136418
0.0216521
0.140258
0.0201602
0.144357
0.0186297
0.14877
0.0170585
0.15357
0.0154452
0.158852
0.01379
0.164734
0.0120956
0.171356
0.0103687
0.178871
0.00862238
0.187423
0.0068796
0.19711
0.00517768
0.207914
0.00357329
0.219597
0.00214652
0.231557
0.00100074
0.242632
0.000252875
0.25078
0.252877
0.026792
0.127435
-0.0281227
0.0254389
0.130728
0.0240616
0.134178
0.0226564
0.137823
0.0212197
0.141695
0.0197486
0.145828
0.0182403
0.150278
0.0166926
0.155118
0.0151039
0.16044
0.0134744
0.166363
0.0118068
0.173024
0.0101079
0.18057
0.00839112
0.18914
0.00667992
0.198821
0.00501209
0.209582