/*--------------------------------*- C++ -*----------------------------------*\
| =========                 |                                                 |
| \\      /  F ield         | OpenFOAM: The Open Source CFD Toolbox           |
|  \\    /   O peration     | Version:  v1912                                 |
|   \\  /    A nd           | Website:  www.openfoam.com                      |
|    \\/     M anipulation  |                                                 |
\*---------------------------------------------------------------------------*/
FoamFile
{
    version     2.0;
    format      ascii;
    class       volVectorField;
    location    "40.5";
    object      U;
}
// * * * * * * * * * * * * * * * * * * * * * * * * * * * * * * * * * * * * * //

dimensions      [0 1 -1 0 0 0 0];


internalField   nonuniform List<vector> 
9600
(
(0.456567 -9.36238 -1.541e-19)
(0.159713 -8.63369 0)
(0.241827 -8.16092 -9.0479e-20)
(0.320464 -7.84161 0)
(0.387659 -7.6062 0)
(0.455942 -7.41122 -3.18295e-20)
(0.521338 -7.23264 -5.48875e-22)
(0.580712 -7.05827 2.66037e-20)
(0.633292 -6.88276 0)
(0.67911 -6.70468 -4.51059e-20)
(0.718556 -6.52465 0)
(0.752254 -6.34421 -1.82928e-21)
(0.78094 -6.16518 -2.60649e-21)
(0.80537 -5.98923 -3.15138e-20)
(0.826266 -5.81776 2.65755e-20)
(0.844282 -5.65174 -2.61096e-20)
(0.859968 -5.49164 2.32455e-20)
(0.87387 -5.33737 0)
(0.886767 -5.18818 -1.84892e-20)
(0.898389 -5.04254 2.02684e-20)
(0.824527 -9.35196 -3.08284e-19)
(0.502218 -8.66171 1.17595e-20)
(0.567533 -8.20513 1.86377e-19)
(0.634662 -7.89531 -1.58843e-19)
(0.69284 -7.6645 1.5665e-19)
(0.753075 -7.47 0)
(0.810589 -7.28913 6.0708e-20)
(0.86191 -7.11076 -6.05672e-20)
(0.906194 -6.93037 -1.0505e-19)
(0.943527 -6.7471 1.32859e-19)
(0.974411 -6.56198 -8.62597e-20)
(0.999595 -6.3768 -3.52129e-20)
(1.01992 -6.19351 7.10791e-20)
(1.03625 -6.01387 0)
(1.04934 -5.8393 0)
(1.05991 -5.67074 9.96183e-20)
(1.0685 -5.50866 -1.68898e-19)
(1.07569 -5.35289 0)
(1.08232 -5.20256 0)
(1.08787 -5.05606 -7.80619e-20)
(1.19283 -9.328 6.36953e-19)
(0.846988 -8.67687 0)
(0.896787 -8.23666 -3.77101e-19)
(0.953145 -7.93644 -3.41786e-19)
(1.00261 -7.71019 0)
(1.05477 -7.51615 5.46156e-19)
(1.10418 -7.33299 -5.15605e-19)
(1.1471 -7.15074 1.01063e-19)
(1.18268 -6.96566 -2.24988e-19)
(1.21111 -6.77748 -3.7414e-19)
(1.23304 -6.58761 5.10719e-19)
(1.24935 -6.39808 -3.15762e-19)
(1.26102 -6.21095 -1.41508e-19)
(1.26897 -6.02805 0)
(1.27406 -5.8508 5.52368e-21)
(1.27701 -5.68013 1.05007e-19)
(1.27838 -5.51646 4.5389e-20)
(1.27876 -5.35959 0)
(1.27907 -5.20852 8.2278e-20)
(1.27845 -5.06156 8.43271e-20)
(1.56036 -9.29014 -8.617e-19)
(1.19343 -8.67889 -4.03769e-19)
(1.22903 -8.25531 3.91641e-19)
(1.27535 -7.96468 6.72992e-19)
(1.31639 -7.74293 -3.26635e-19)
(1.36044 -7.54929 5.79312e-21)
(1.40149 -7.36389 2.53611e-19)
(1.43565 -7.17788 2.29703e-19)
(1.46213 -6.98836 4.2068e-19)
(1.48126 -6.7956 0)
(1.49386 -6.60136 1.62044e-19)
(1.50097 -6.4079 -1.71979e-19)
(1.50369 -6.21738 1.03477e-20)
(1.50304 -6.03168 2.71076e-19)
(1.49994 -5.85219 2.32377e-19)
(1.49513 -5.67983 -3.28032e-19)
(1.4892 -5.51499 1.0803e-19)
(1.48272 -5.35742 -1.75891e-19)
(1.47669 -5.20599 1.7506e-19)
(1.46983 -5.059 -8.43707e-20)
(1.92682 -9.2383 4.34573e-19)
(1.54126 -8.66761 0)
(1.56386 -8.2608 3.84595e-19)
(1.60077 -7.97969 0)
(1.63361 -7.76234 0)
(1.66948 -7.56907 -3.00192e-19)
(1.7019 -7.38149 -5.37069e-19)
(1.72695 -7.19191 -4.55338e-19)
(1.74392 -6.99822 1.84461e-20)
(1.75337 -6.80123 -1.96751e-19)
(1.75629 -6.60306 0)
(1.7539 -6.40613 -1.62454e-19)
(1.74742 -6.2127 -2.92637e-19)
(1.73797 -6.02465 2.57334e-19)
(1.72652 -5.84338 -7.31316e-19)
(1.71385 -5.66978 1.18352e-19)
(1.70053 -5.50419 9.37986e-20)
(1.68718 -5.34631 -1.93421e-19)
(1.67481 -5.19492 -8.45088e-20)
(1.66167 -5.04835 2.51999e-19)
(2.29166 -9.17241 4.19323e-19)
(1.88998 -8.64281 4.15823e-19)
(1.90076 -8.25285 0)
(1.92885 -7.98117 0)
(1.95369 -7.76811 -6.24047e-19)
(1.98126 -7.57518 3.41089e-19)
(2.00479 -7.3855 8.20774e-19)
(2.02034 -7.19256 0)
(2.02744 -6.99503 2.16882e-19)
(2.02683 -6.79423 1.96752e-19)
(2.01974 -6.59257 -3.47584e-19)
(2.00757 -6.39266 5.0405e-19)
(1.99166 -6.19682 1.47904e-19)
(1.97324 -6.00692 0)
(1.95332 -5.82435 1.23115e-19)
(1.93271 -5.64994 5.52631e-19)
(1.91196 -5.48403 -3.29297e-19)
(1.89172 -5.32625 3.7e-19)
(1.87306 -5.17529 -7.03573e-19)
(1.85364 -5.02958 8.13365e-19)
(2.65436 -9.09244 4.2646e-19)
(2.23908 -8.60428 -2.25813e-18)
(2.23919 -8.23119 0)
(2.25901 -7.9688 0)
(2.27599 -7.75992 0)
(2.29514 -7.56733 -6.05347e-19)
(2.30947 -7.37569 0)
(2.31518 -7.17964 -9.702e-19)
(2.31202 -6.97862 8.94895e-19)
(2.301 -6.77444 -8.31121e-19)
(2.28361 -6.5698 0)
(2.2614 -6.36742 0)
(2.23589 -6.16969 0)
(2.20835 -5.97845 -2.81174e-19)
(2.17986 -5.79505 0)
(2.15124 -5.6203 0)
(2.12305 -5.45449 -4.12657e-19)
(2.09595 -5.29722 4.05449e-19)
(2.07104 -5.14707 0)
(2.04537 -5.00267 0)
(3.01437 -8.99838 -1.38738e-18)
(2.588 -8.55187 8.98993e-19)
(2.57856 -8.19557 0)
(2.59062 -7.94231 0)
(2.59986 -7.7375 0)
(2.61044 -7.54527 5.75768e-19)
(2.61527 -7.35182 -5.7751e-19)
(2.61077 -7.15297 -8.88005e-21)
(2.597 -6.94886 -8.96006e-19)
(2.57526 -6.74178 8.38936e-19)
(2.54728 -6.53467 -3.78454e-19)
(2.51483 -6.33037 6.58057e-19)
(2.47953 -6.13128 -4.63891e-20)
(2.44276 -5.93923 -5.95291e-19)
(2.40564 -5.7555 -5.01702e-19)
(2.36898 -5.58085 4.92907e-19)
(2.33333 -5.41558 0)
(2.29941 -5.25921 0)
(2.26834 -5.11027 3.56648e-19)
(2.23648 -4.96765 -3.92495e-19)
(3.37113 -8.89027 9.27279e-19)
(2.93619 -8.48542 8.83185e-19)
(2.91829 -8.14579 -1.67398e-18)
(2.92305 -7.90146 7.90721e-19)
(2.92463 -7.70062 0)
(2.92646 -7.50878 6.16106e-19)
(2.92149 -7.31374 -5.40839e-19)
(2.90644 -7.1124 1.52844e-18)
(2.88171 -6.90565 -2.36836e-20)
(2.84895 -6.69617 0)
(2.81014 -6.48714 7.63585e-19)
(2.76726 -6.28149 0)
(2.72205 -6.0816 0)
(2.67596 -5.88927 -2.72316e-19)
(2.63015 -5.7057 5.4924e-19)
(2.58543 -5.53163 0)
(2.54236 -5.36731 4.30779e-19)
(2.50167 -5.21226 1.79323e-19)
(2.46452 -5.06491 -3.8909e-19)
(2.42657 -4.92453 3.77806e-19)
(3.72408 -8.76818 -9.55056e-19)
(3.28306 -8.40484 8.97579e-19)
(3.25774 -8.08165 -2.55628e-18)
(3.25563 -7.84605 8.03827e-19)
(3.24961 -7.64908 0)
(3.2425 -7.4577 -1.24352e-18)
(3.22743 -7.26129 5.9737e-19)
(3.20149 -7.05784 0)
(3.16548 -6.84892 -4.74238e-19)
(3.12142 -6.63758 -8.22511e-19)
(3.07157 -6.42721 -7.16688e-19)
(3.0181 -6.22078 5.34256e-20)
(2.96288 -6.02067 6.70306e-19)
(2.90741 -5.82859 2.72092e-19)
(2.85288 -5.6457 -3.79231e-20)
(2.80011 -5.47266 -5.12375e-19)
(2.74964 -5.30973 -2.29163e-19)
(2.70225 -5.15638 -2.06598e-19)
(2.65913 -5.01101 5.51106e-19)
(2.61521 -4.87335 -8.21239e-19)
(4.07267 -8.63218 9.55058e-19)
(3.628 -8.31004 -4.66402e-20)
(3.59629 -8.00303 8.21693e-19)
(3.5877 -7.77591 0)
(3.57409 -7.58271 -6.80252e-19)
(3.55785 -7.3919 1.30711e-18)
(3.53237 -7.19438 -1.11725e-18)
(3.49521 -6.98923 1.09945e-18)
(3.44764 -6.77863 -4.45461e-19)
(3.39203 -6.56601 9.04302e-19)
(3.33096 -6.35488 3.91599e-19)
(3.26677 -6.14828 0)
(3.20145 -5.94852 0)
(3.13657 -5.75725 -2.82132e-19)
(3.07332 -5.57553 3.83403e-20)
(3.01252 -5.40399 1.00899e-18)
(2.95469 -5.24286 -2.49627e-19)
(2.90067 -5.09161 8.24435e-19)
(2.85169 -4.9486 1.44277e-19)
(2.80194 -4.81414 -8.3876e-19)
(4.41634 -8.48238 -2.93868e-18)
(3.97042 -8.20101 -9.86401e-19)
(3.93328 -7.90981 -2.63026e-18)
(3.91856 -7.69091 -1.60005e-18)
(3.89736 -7.50141 -7.58944e-19)
(3.87176 -7.31128 -7.41764e-19)
(3.83558 -7.11295 -2.42129e-18)
(3.7869 -6.90654 -4.90495e-20)
(3.72749 -6.6948 -1.94547e-18)
(3.66013 -6.48147 3.02204e-20)
(3.58768 -6.27021 -8.07694e-19)
(3.51268 -6.06404 -7.35985e-19)
(3.43722 -5.86522 6.71839e-19)
(3.36291 -5.67531 -6.14397e-19)
(3.29095 -5.49527 -5.62877e-19)
(3.22214 -5.32569 -5.16584e-19)
(3.15699 -5.16679 -1.38703e-18)
(3.09642 -5.01801 4.93477e-19)
(3.04169 -4.87774 1.19752e-18)
(2.98629 -4.74693 -1.27454e-18)
(4.75454 -8.31892 3.95271e-18)
(4.30971 -8.07773 4.85568e-18)
(4.26807 -7.80191 8.34088e-19)
(4.24752 -7.59097 3.99631e-18)
(4.21869 -7.40509 -7.83248e-19)
(4.18352 -7.21579 3.91356e-18)
(4.13634 -7.01699 1.14478e-18)
(4.07586 -6.80978 3.21374e-18)
(4.00437 -6.59746 -9.82298e-19)
(3.92508 -6.38404 2.71969e-18)
(3.84113 -6.17325 1.6269e-18)
(3.75524 -5.96813 1.48261e-18)
(3.66961 -5.77083 -2.00721e-18)
(3.58588 -5.58282 1.88027e-18)
(3.50523 -5.40498 1.13444e-18)
(3.42845 -5.23782 1.04136e-18)
(3.35604 -5.08155 9.57537e-19)
(3.28898 -4.93564 7.35788e-21)
(3.22862 -4.79846 8.128e-19)
(3.16778 -4.67178 8.45887e-19)
(5.08675 -8.14197 -2.93526e-18)
(4.64529 -7.94024 1.08175e-18)
(4.59999 -7.67932 2.67596e-18)
(4.57386 -7.47601 -3.2601e-18)
(4.53734 -7.29371 7.53328e-19)
(4.49239 -7.10542 -2.61827e-18)
(4.43394 -6.90652 1.28324e-18)
(4.36139 -6.699 -2.15032e-18)
(4.27762 -6.48668 4.9012e-20)
(4.18624 -6.27377 1.19333e-20)
(4.0907 -6.0641 -1.64936e-18)
(3.9939 -5.86062 -7.46627e-19)
(3.89809 -5.66543 1.37284e-18)
(3.80495 -5.47987 8.7501e-21)
(3.71565 -5.30473 -3.71659e-20)
(3.63093 -5.14044 -1.0869e-18)
(3.55129 -4.98722 -4.82649e-19)
(3.47779 -4.84454 -2.71246e-20)
(3.41191 -4.71083 -8.47117e-19)
(3.34584 -4.58881 -4.27187e-19)
(5.41245 -7.9517 0)
(4.97657 -7.78859 -1.99877e-18)
(4.92838 -7.542 2.3711e-20)
(4.89689 -7.34605 3.25554e-18)
(4.8526 -7.16728 1.36256e-18)
(4.79763 -6.98022 -1.41833e-18)
(4.72765 -6.7816 -1.22181e-18)
(4.64282 -6.5743 0)
(4.54658 -6.36256 -9.72498e-19)
(4.44301 -6.1508 9.28118e-19)
(4.33583 -5.94285 -3.9049e-20)
(4.22809 -5.74162 0)
(4.12213 -5.5491 -6.9112e-19)
(4.01961 -5.36652 5.98618e-19)
(3.92167 -5.19455 5.00082e-19)
(3.82902 -5.03357 -6.03735e-19)
(3.74215 -4.88379 -5.23741e-19)
(3.6622 -4.74468 9.09467e-19)
(3.5908 -4.61483 -8.39314e-19)
(3.51962 -4.49807 4.4178e-19)
(5.73119 -7.74831 3.03257e-18)
(5.30296 -7.62285 -2.05856e-18)
(5.25259 -7.39001 -1.75678e-18)
(5.21589 -7.20109 8.17912e-19)
(5.16372 -7.02585 -1.58682e-18)
(5.09852 -6.84026 0)
(5.01678 -6.64235 0)
(4.91945 -6.43581 0)
(4.81062 -6.22526 -4.44502e-20)
(4.69479 -6.01526 -1.86263e-18)
(4.57595 -5.80965 8.79687e-19)
(4.45731 -5.61125 7.43959e-19)
(4.34123 -5.42195 6.2953e-19)
(4.22937 -5.24284 -2.58336e-18)
(4.12283 -5.0745 1.22472e-18)
(4.02225 -4.91723 0)
(3.9281 -4.77123 -3.04053e-20)
(3.84159 -4.63603 -1.4106e-18)
(3.76449 -4.51037 -5.69193e-21)
(3.68818 -4.39922 -4.42268e-19)
(6.04261 -7.53206 -2.06273e-18)
(5.62392 -7.44317 -1.0853e-18)
(5.57193 -7.22339 8.17701e-19)
(5.53014 -7.0412 -1.43902e-19)
(5.46998 -6.86951 -4.62567e-18)
(5.39433 -6.68565 4.1862e-18)
(5.30062 -6.4889 -4.87999e-20)
(5.19065 -6.28367 1.14652e-18)
(5.06913 -6.07493 1.02866e-18)
(4.94101 -5.86731 9.44517e-19)
(4.81054 -5.66464 8.59494e-19)
(4.68105 -5.46963 1.536e-18)
(4.55493 -5.28406 -7.39298e-19)
(4.43381 -5.1089 1.91629e-18)
(4.31872 -4.94462 -1.23884e-18)
(4.21025 -4.79147 -5.12463e-19)
(4.10879 -4.64964 2.05837e-18)
(4.01563 -4.51868 1.37517e-18)
(3.93271 -4.39737 -2.79368e-20)
(3.85147 -4.29157 0)
(6.34668 -7.30343 -1.0488e-18)
(5.93906 -7.24971 2.07403e-18)
(5.88574 -7.0422 1.81571e-18)
(5.8389 -6.86645 -1.45876e-19)
(5.77063 -6.69835 -1.56943e-18)
(5.68433 -6.51653 7.06478e-20)
(5.57847 -6.32143 1.31573e-20)
(5.45574 -6.11811 1.17235e-20)
(5.3215 -5.91178 0)
(5.18112 -5.70716 9.23792e-19)
(5.03909 -5.50799 -1.75829e-18)
(4.89882 -5.3169 -7.52399e-19)
(4.76274 -5.13552 7.46936e-19)
(4.63241 -4.96473 -6.55374e-19)
(4.5088 -4.80491 6.06973e-19)
(4.39242 -4.6563 -5.52551e-19)
(4.28366 -4.51909 4.89534e-21)
(4.18392 -4.39267 -4.69409e-19)
(4.09543 -4.27574 -4.3362e-19)
(4.01004 -4.17599 -4.33913e-19)
(6.64374 -7.06292 0)
(6.24812 -7.04241 -1.01122e-18)
(6.19338 -6.84638 9.9961e-19)
(6.14142 -6.6769 1.74394e-18)
(6.06492 -6.51256 -1.57809e-18)
(5.96781 -6.33317 1.36323e-18)
(5.84966 -6.14024 -2.62117e-18)
(5.71412 -5.93942 -2.32761e-18)
(5.56719 -5.73612 -1.01539e-18)
(5.41464 -5.53508 4.43975e-20)
(5.26118 -5.33994 -8.4078e-19)
(5.11028 -5.1532 3.49018e-20)
(4.96432 -4.97637 0)
(4.82479 -4.81022 -1.28556e-18)
(4.6925 -4.65509 6.56067e-19)
(4.56786 -4.51124 0)
(4.4513 -4.37877 -5.13782e-19)
(4.34443 -4.25683 -9.23708e-19)
(4.24948 -4.14505 9.07636e-19)
(4.1589 -4.05605 4.48035e-19)
(6.93339 -6.80972 0)
(6.55047 -6.82055 0)
(6.49411 -6.63584 -1.85423e-18)
(6.43694 -6.47283 -1.59427e-18)
(6.35214 -6.31251 3.23582e-18)
(6.24413 -6.13597 0)
(6.11363 -5.94575 0)
(5.96529 -5.74803 1.16936e-18)
(5.80576 -5.54838 0)
(5.64122 -5.35149 0)
(5.47655 -5.16086 0)
(5.31528 -4.97886 0)
(5.1597 -4.80682 0)
(5.01112 -4.64539 0)
(4.87013 -4.49483 0)
(4.73682 -4.3553 0)
(4.61147 -4.22667 0)
(4.49514 -4.10828 0)
(4.38798 -4.0032 0)
(4.28382 -3.92869 0)
(10.0429 0.0877354 1.47232e-19)
(10.0224 -0.307629 2.8646e-19)
(9.98659 -0.700318 -2.94216e-19)
(9.93608 -1.09019 5.86608e-19)
(9.87059 -1.4769 -5.86607e-19)
(9.78996 -1.85995 -5.54316e-19)
(9.69432 -2.2388 -5.5277e-19)
(9.58387 -2.6129 1.74092e-18)
(9.45884 -2.9817 -1.15989e-18)
(9.3195 -3.34465 1.15017e-18)
(9.16612 -3.70121 -1.15018e-18)
(8.99902 -4.05083 1.14168e-18)
(8.81852 -4.39301 -2.26407e-18)
(8.62498 -4.72723 3.33412e-18)
(8.41875 -5.05301 0)
(8.20024 -5.36991 -3.27569e-18)
(7.96982 -5.6775 1.63225e-20)
(7.72804 -5.97542 3.30119e-18)
(7.47499 -6.26351 0)
(7.21234 -6.54111 0)
(10.1189 -0.210732 0)
(10.0776 -0.606784 -1.50389e-20)
(10.0196 -0.999038 0)
(9.9455 -1.38716 5.61298e-19)
(9.85552 -1.77071 5.84536e-19)
(9.74987 -2.1491 -1.6918e-18)
(9.62885 -2.52169 2.94545e-18)
(9.49281 -2.88786 -1.16273e-18)
(9.34213 -3.247 -1.10833e-18)
(9.17719 -3.59855 -1.10381e-18)
(8.99842 -3.94191 4.45649e-20)
(8.80624 -4.27655 1.13097e-18)
(8.60113 -4.60195 -5.62239e-18)
(8.38356 -4.91761 -1.17911e-18)
(8.15403 -5.22307 2.24663e-18)
(7.91304 -5.51789 2.24366e-18)
(7.66108 -5.80168 1.13994e-18)
(7.39872 -6.07412 -2.19808e-18)
(7.12605 -6.33494 1.04091e-18)
(6.84404 -6.58381 0)
(10.0699 -0.149262 1.32566e-19)
(10.0321 -0.540855 -2.71478e-19)
(9.97699 -0.929274 7.83956e-19)
(9.90485 -1.31383 -5.55408e-19)
(9.8161 -1.69386 -5.29554e-19)
(9.71112 -2.06866 5.52897e-19)
(9.59026 -2.43751 0)
(9.45394 -2.7997 0)
(9.30258 -3.15458 2.09934e-18)
(9.13662 -3.5015 3.13184e-18)
(8.95653 -3.83984 -9.9051e-19)
(8.76281 -4.16901 3.09689e-18)
(8.55599 -4.48845 -9.86343e-19)
(8.33659 -4.79763 -3.01641e-18)
(8.10518 -5.09603 1.36e-20)
(7.86231 -5.38321 1.93619e-18)
(7.60852 -5.6587 -8.73907e-19)
(7.34441 -5.92213 -1.90488e-18)
(7.07031 -6.17309 -1.02896e-18)
(6.78697 -6.4111 1.87212e-18)
(9.90339 -0.112569 0)
(9.8724 -0.494915 2.28863e-19)
(9.82413 -0.874917 2.27922e-19)
(9.75878 -1.25168 -9.36396e-19)
(9.67667 -1.62439 0)
(9.57815 -1.99229 0)
(9.46357 -2.35461 0)
(9.33331 -2.71059 0)
(9.18778 -3.05953 -9.90931e-19)
(9.02743 -3.40073 -9.8717e-19)
(8.85274 -3.73353 0)
(8.6642 -4.05729 1.86639e-18)
(8.46236 -4.3714 -4.61447e-18)
(8.24776 -4.67528 3.71047e-18)
(8.02097 -4.96839 -3.5964e-18)
(7.78257 -5.25019 -8.7267e-19)
(7.53315 -5.52019 1.56418e-19)
(7.27332 -5.77794 1.54825e-19)
(7.00359 -6.02296 -1.77735e-18)
(6.7247 -6.25478 -7.08818e-20)
(9.65009 -0.0990939 0)
(9.6265 -0.469204 -2.2571e-19)
(9.58607 -0.837625 0)
(9.52888 -1.20345 4.51545e-19)
(9.45515 -1.56585 4.30433e-19)
(9.36518 -1.92403 3.93503e-19)
(9.25927 -2.27721 0)
(9.13776 -2.62462 0)
(9.00103 -2.96552 0)
(8.8495 -3.2992 0)
(8.6836 -3.62496 8.12882e-19)
(8.50381 -3.94214 8.75806e-19)
(8.31066 -4.25008 8.70819e-19)
(8.10466 -4.54818 -8.84131e-19)
(7.88639 -4.83585 -1.52152e-18)
(7.65642 -5.11251 1.72725e-18)
(7.41534 -5.37764 3.34878e-18)
(7.16378 -5.63071 1.62884e-18)
(6.9023 -5.87122 0)
(6.63162 -6.09868 -1.53511e-18)
(9.34294 -0.0902896 4.63887e-20)
(9.32632 -0.446222 0)
(9.29348 -0.801036 -7.60198e-19)
(9.24443 -1.15388 1.83623e-23)
(9.17934 -1.50393 1.61666e-20)
(9.09843 -1.85039 -6.85041e-20)
(9.00196 -2.1925 0)
(8.89022 -2.52948 3.09199e-20)
(8.76355 -2.86062 -7.71739e-19)
(8.6223 -3.18517 1.5036e-18)
(8.46688 -3.50244 -1.5679e-18)
(8.29773 -3.81175 8.56596e-19)
(8.11533 -4.11244 -4.48987e-18)
(7.92017 -4.40388 2.96134e-18)
(7.71279 -4.68545 1.56982e-18)
(7.49374 -4.95657 0)
(7.2636 -5.21667 -2.89753e-18)
(7.02297 -5.46518 -6.15151e-20)
(6.77244 -5.70159 -2.85349e-18)
(6.51266 -5.92537 2.9659e-18)
(9.01052 -0.0854701 4.17169e-20)
(8.99953 -0.426403 -8.73932e-20)
(8.97306 -0.766686 7.1655e-19)
(8.93109 -1.10552 -1.40672e-20)
(8.87371 -1.44211 7.16402e-19)
(8.8011 -1.7757 -1.08206e-18)
(8.71349 -2.10553 0)
(8.61112 -2.43087 7.29452e-19)
(8.49427 -2.751 6.67877e-19)
(8.36325 -3.0652 -7.25367e-19)
(8.21843 -3.37278 1.32709e-18)
(8.06021 -3.67309 2.81355e-18)
(7.88901 -3.96545 -1.30843e-18)
(7.7053 -4.24923 -1.41831e-18)
(7.50957 -4.52383 1.36012e-18)
(7.30236 -4.78862 0)
(7.0842 -5.04304 6.49142e-20)
(6.85566 -5.28651 9.79895e-21)
(6.61733 -5.51849 2.70348e-18)
(6.36981 -5.73841 1.25684e-18)
(8.67404 -0.0842765 0)
(8.66711 -0.410256 6.25474e-21)
(8.64546 -0.735931 -1.45799e-19)
(8.60907 -1.06055 -6.47523e-19)
(8.55799 -1.38337 6.08648e-19)
(8.49237 -1.70367 0)
(8.41238 -2.02071 1.23882e-18)
(8.31823 -2.33381 -1.36128e-21)
(8.21016 -2.64226 -1.89206e-18)
(8.08846 -2.94539 0)
(7.95344 -3.24253 -1.30597e-18)
(7.80545 -3.53304 4.59873e-20)
(7.6449 -3.81626 -3.67103e-18)
(7.47221 -4.09159 6.46808e-21)
(7.28784 -4.35841 1.23041e-18)
(7.09227 -4.61613 0)
(6.88603 -4.86416 -1.20766e-18)
(6.66966 -5.10192 8.69183e-21)
(6.44371 -5.32886 1.19898e-18)
(6.20874 -5.5444 -1.23682e-18)
(8.34736 -0.0853438 0)
(8.34303 -0.396952 1.49488e-19)
(8.32477 -0.708486 3.10159e-19)
(8.2925 -1.01925 -5.74086e-19)
(8.24627 -1.32854 -2.47162e-20)
(8.1862 -1.63566 -2.86911e-19)
(8.11244 -1.93995 -1.14854e-18)
(8.02516 -2.24073 5.71007e-19)
(7.92457 -2.53735 2.38075e-20)
(7.81093 -2.82917 5.6759e-19)
(7.68452 -3.11554 5.22496e-19)
(7.54566 -3.39585 2.26284e-18)
(7.39471 -3.66949 1.13187e-18)
(7.23207 -3.93587 2.23559e-18)
(7.05816 -4.19439 -1.11487e-18)
(6.87346 -4.44448 3.86562e-20)
(6.67846 -4.68556 -1.1017e-18)
(6.47365 -4.91705 0)
(6.25959 -5.1384 1.04138e-18)
(6.03678 -5.34901 0)
(8.03836 -0.0875478 6.5082e-20)
(8.0355 -0.385654 -1.90604e-19)
(8.01941 -0.683829 5.22799e-19)
(7.99002 -0.981417 -2.60814e-19)
(7.94738 -1.27776 1.89766e-20)
(7.89158 -1.57221 -2.60659e-19)
(7.82274 -1.86414 5.41905e-19)
(7.74103 -2.15291 -5.18623e-19)
(7.64662 -2.43791 5.1862e-19)
(7.53975 -2.71853 9.94669e-19)
(7.42067 -2.99416 -1.07184e-18)
(7.28969 -3.26424 -4.50869e-20)
(7.14714 -3.52818 -3.1025e-18)
(6.99338 -3.78542 5.37337e-21)
(6.82882 -4.03539 4.02625e-20)
(6.65391 -4.27756 2.01127e-18)
(6.46913 -4.51135 -9.93503e-19)
(6.27495 -4.73621 -9.46313e-19)
(6.07192 -4.95158 -3.744e-20)
(5.8605 -5.15684 0)
(7.75066 -0.0901442 0)
(7.74842 -0.375741 2.42116e-19)
(7.73359 -0.66148 -8.3248e-19)
(7.70613 -0.946745 -2.20857e-19)
(7.66606 -1.23092 4.9395e-19)
(7.61346 -1.5134 0)
(7.54845 -1.79358 0)
(7.47117 -2.07087 4.72133e-19)
(7.3818 -2.3447 -4.72131e-19)
(7.28053 -2.61449 3.977e-19)
(7.16761 -2.87969 -4.69088e-19)
(7.04332 -3.13974 9.30239e-19)
(6.90797 -3.39411 -1.85587e-18)
(6.7619 -3.64228 1.84628e-18)
(6.60553 -3.88371 3.46544e-20)
(6.43926 -4.1179 -9.49584e-19)
(6.26358 -4.3443 -9.03594e-19)
(6.07896 -4.56238 1.84068e-18)
(5.88594 -4.77157 8.61667e-19)
(5.68497 -4.97125 0)
(7.48505 -0.0926596 1.8769e-21)
(7.48285 -0.366746 1.5896e-19)
(7.46866 -0.641001 3.33747e-19)
(7.44241 -0.914846 2.3361e-19)
(7.40415 -1.1877 2.16699e-19)
(7.35395 -1.45899 2.01577e-19)
(7.2919 -1.72815 0)
(7.21815 -1.99463 -8.33031e-19)
(7.13285 -2.25788 -4.29432e-19)
(7.0362 -2.51737 3.66334e-19)
(6.92843 -2.77257 0)
(6.80978 -3.02298 8.48173e-19)
(6.68057 -3.2681 -2.5085e-18)
(6.54112 -3.50744 8.4383e-19)
(6.39183 -3.74052 0)
(6.2331 -3.96687 -8.02311e-19)
(6.06543 -4.18596 -1.62046e-18)
(5.88929 -4.39731 7.97375e-19)
(5.70524 -4.60032 -2.91953e-20)
(5.51373 -4.79438 0)
(7.24066 -0.0947954 3.46289e-21)
(7.23814 -0.358323 -1.02875e-19)
(7.22416 -0.622012 1.98526e-19)
(7.19865 -0.885318 -1.31153e-20)
(7.16166 -1.14769 3.96701e-19)
(7.11325 -1.40859 -6.09263e-19)
(7.05353 -1.66749 0)
(6.98261 -1.92385 5.60045e-20)
(6.90065 -2.17717 0)
(6.80783 -2.42695 -8.1329e-19)
(6.70437 -2.6727 0)
(6.5905 -2.91395 -7.50549e-19)
(6.46653 -3.15024 2.31976e-18)
(6.33276 -3.38112 -1.53718e-18)
(6.18958 -3.60616 7.66378e-19)
(6.0374 -3.82494 -6.78052e-19)
(5.87673 -4.03696 7.83228e-19)
(5.70805 -4.24179 -7.77871e-19)
(5.532 -4.43881 0)
(5.34903 -4.62739 0)
(7.01568 -0.0964301 4.70731e-20)
(7.01267 -0.350248 0)
(6.99864 -0.604208 0)
(6.97357 -0.857793 -3.77157e-19)
(6.93749 -1.11048 -3.52e-19)
(6.89047 -1.36176 0)
(6.8326 -1.61112 0)
(6.764 -1.85807 4.98279e-20)
(6.68482 -2.10212 6.97068e-19)
(6.59523 -2.34281 -3.36164e-19)
(6.49543 -2.57967 -3.58162e-19)
(6.38566 -2.81228 1.44683e-18)
(6.26619 -3.04021 -2.14841e-18)
(6.13733 -3.26307 1.3854e-18)
(5.99944 -3.48045 0)
(5.85295 -3.69201 2.78328e-18)
(5.69838 -3.89729 -2.02078e-18)
(5.53625 -4.09594 6.87471e-19)
(5.36732 -4.28729 1.31475e-18)
(5.19201 -4.47074 0)
(6.80804 -0.0974989 -4.04697e-20)
(6.80442 -0.342359 0)
(6.7902 -0.587341 -5.21894e-21)
(6.76537 -0.831945 -3.23869e-19)
(6.72997 -1.07567 1.00357e-18)
(6.68406 -1.31803 -1.66941e-19)
(6.62774 -1.55854 0)
(6.5611 -1.79673 1.32985e-18)
(6.4843 -2.03215 -6.84861e-19)
(6.3975 -2.26435 4.44613e-20)
(6.30088 -2.4929 6.34693e-19)
(6.19468 -2.7174 6.50569e-19)
(6.07913 -2.93746 -1.29734e-18)
(5.95455 -3.15275 -1.26894e-18)
(5.82129 -3.36289 -1.23945e-18)
(5.67976 -3.56764 -1.31895e-18)
(5.53053 -3.76656 1.30996e-18)
(5.3741 -3.95949 -6.25348e-19)
(5.21151 -4.14559 -6.6638e-19)
(5.04305 -4.3245 0)
(6.61548 -0.0979813 3.97604e-20)
(6.61122 -0.334552 -1.49289e-19)
(6.59677 -0.571215 -1.54547e-19)
(6.57209 -0.807489 4.62759e-19)
(6.53724 -1.0429 -1.64341e-19)
(6.49228 -1.27698 -1.53614e-19)
(6.43729 -1.50926 0)
(6.37239 -1.73931 -6.31415e-19)
(6.2977 -1.96668 0)
(6.21337 -2.19095 6.26531e-19)
(6.11959 -2.41173 -1.20733e-18)
(6.01657 -2.62865 5.97647e-19)
(5.90454 -2.84134 -1.19162e-18)
(5.78377 -3.04951 1.22968e-18)
(5.6546 -3.25285 6.69309e-19)
(5.51743 -3.45122 0)
(5.37286 -3.64416 -5.77702e-19)
(5.22137 -3.83191 5.77702e-19)
(5.06442 -4.01323 0)
(4.90198 -4.1885 0)
(6.4359 -0.0979648 0)
(6.43103 -0.326804 1.46675e-19)
(6.41633 -0.555704 4.72005e-21)
(6.39179 -0.784203 -1.51238e-19)
(6.35744 -1.01185 -1.33362e-19)
(6.31335 -1.23819 -1.41586e-19)
(6.25961 -1.46279 5.47232e-19)
(6.1963 -1.68523 0)
(6.12357 -1.90508 0)
(6.04155 -2.12195 2.78105e-19)
(5.95041 -2.33546 2.95431e-19)
(5.85033 -2.54527 1.06923e-18)
(5.74154 -2.75104 -5.46325e-19)
(5.62428 -2.95254 5.46323e-19)
(5.49885 -3.14947 5.7997e-19)
(5.3656 -3.34186 3.39197e-20)
(5.22518 -3.52923 -1.06516e-18)
(5.07795 -3.71236 3.77748e-21)
(4.92606 -3.88935 5.26812e-19)
(4.76867 -4.0622 0)
(6.26739 -0.0974524 -3.27832e-20)
(6.26197 -0.319084 3.27828e-20)
(6.24708 -0.540748 0)
(6.2227 -0.761998 1.23479e-19)
(6.18886 -0.982399 4.01099e-19)
(6.14564 -1.20152 -5.0694e-19)
(6.09311 -1.41895 -5.37674e-19)
(6.03138 -1.63427 0)
(5.96056 -1.8471 0)
(5.88078 -2.05704 0)
(5.7922 -2.26376 -9.92572e-19)
(5.69499 -2.46692 -6.40823e-20)
(5.58933 -2.66623 -5.03271e-19)
(5.47543 -2.86146 3.01648e-20)
(5.35357 -3.05238 -9.9527e-19)
(5.22397 -3.23915 1.5168e-18)
(5.08733 -3.42132 -1.43719e-18)
(4.94372 -3.60047 4.8787e-19)
(4.79641 -3.77363 9.35271e-19)
(4.64269 -3.94569 0)
(6.10822 -0.0960941 2.94522e-20)
(6.10238 -0.31119 0)
(6.08737 -0.526307 -1.21255e-19)
(6.06321 -0.741009 -2.49856e-19)
(6.02993 -0.954877 1.21103e-19)
(5.98759 -1.1675 9.67061e-19)
(5.93628 -1.37848 0)
(5.87607 -1.58744 -4.65755e-19)
(5.8071 -1.79398 -2.38219e-19)
(5.72947 -1.99777 -4.47522e-19)
(5.64333 -2.19845 -1.79054e-19)
(5.54882 -2.39572 -1.41289e-18)
(5.44612 -2.58932 -9.3259e-19)
(5.33534 -2.77902 9.59338e-19)
(5.21675 -2.96465 9.18269e-19)
(5.09035 -3.14645 -3.88146e-21)
(4.95696 -3.32405 2.99161e-20)
(4.81581 -3.50004 4.49525e-19)
(4.67201 -3.67064 -9.18998e-19)
(4.51882 -3.84571 0)
(5.95681 -0.0944219 -6.15902e-20)
(5.95067 -0.30326 3.03198e-20)
(5.93571 -0.512186 -1.21133e-19)
(5.91192 -0.72081 1.21077e-19)
(5.87933 -0.928738 -3.48232e-19)
(5.83798 -1.13558 -1.08435e-18)
(5.78795 -1.34096 0)
(5.72929 -1.54449 4.92808e-19)
(5.66211 -1.74584 -4.60787e-19)
(5.5865 -1.94464 9.75747e-19)
(5.50258 -2.14059 9.69949e-19)
(5.41045 -2.33337 1.42903e-18)
(5.31025 -2.52273 -9.27273e-19)
(5.20201 -2.70845 4.61878e-19)
(5.08598 -2.89037 -4.54227e-19)
(4.96179 -3.06868 4.5425e-19)
(4.83054 -3.24312 0)
(4.68953 -3.41691 4.1126e-19)
(4.54779 -3.58588 -4.02448e-19)
(4.3902 -3.77219 0)
(7.13951 7.26149 0)
(7.41946 6.97171 0)
(7.68651 6.67235 1.08664e-18)
(7.94137 6.36391 2.02293e-20)
(8.18345 6.04611 -1.14968e-18)
(8.41211 5.71902 0)
(8.62693 5.38303 1.18639e-18)
(8.82758 5.03867 -2.23831e-18)
(9.01374 4.68653 -1.13118e-18)
(9.18512 4.32721 -1.14174e-18)
(9.34146 3.96134 1.14174e-18)
(9.48253 3.58959 -1.15382e-18)
(9.60814 3.21263 5.75551e-19)
(9.71808 2.83117 5.49322e-19)
(9.81222 2.44587 5.51468e-19)
(9.89048 2.05741 -5.85267e-19)
(9.95283 1.66643 5.85267e-19)
(9.99937 1.27364 -2.93811e-19)
(10.03 0.879445 -1.39559e-19)
(10.0453 0.485193 7.3509e-20)
(7.41564 7.06903 0)
(7.69576 6.77965 -9.9568e-19)
(7.9621 6.47871 -2.12872e-18)
(8.21495 6.16688 3.14793e-18)
(8.45405 5.84448 -2.18299e-18)
(8.67891 5.51197 2.19371e-18)
(8.88905 5.16995 1.19266e-18)
(9.08404 4.81909 -3.38432e-18)
(9.26351 4.46007 1.10715e-18)
(9.42709 4.0936 2.20091e-18)
(9.57447 3.72043 1.08434e-18)
(9.70541 3.3413 1.09121e-18)
(9.81973 2.95701 -1.15151e-18)
(9.91722 2.56828 1.6956e-18)
(9.9976 2.1759 -2.3525e-18)
(10.0608 1.78075 5.80668e-19)
(10.1068 1.38364 -5.57972e-19)
(10.1357 0.985364 0)
(10.1473 0.586473 1.51524e-20)
(10.1422 0.187942 0)
(7.27229 6.94396 -1.75318e-18)
(7.55522 6.67198 9.84289e-19)
(7.8256 6.38715 1.80043e-18)
(8.08299 6.09013 8.15037e-19)
(8.32697 5.7815 2.04134e-18)
(8.55701 5.46186 2.00096e-20)
(8.77258 5.1319 -1.02319e-18)
(8.97319 4.79229 -3.04927e-18)
(9.1584 4.44377 3.01043e-18)
(9.32776 4.08705 -3.09026e-18)
(9.48089 3.72287 -1.02953e-18)
(9.61749 3.35201 -2.05979e-18)
(9.73723 2.97528 0)
(9.83992 2.59344 0)
(9.92541 2.2074 0)
(9.99353 1.81807 -5.25029e-19)
(10.0441 1.42628 5.49887e-19)
(10.0772 1.03289 5.26723e-19)
(10.0925 0.638612 6.26786e-21)
(10.0902 0.244414 1.3229e-19)
(7.04486 6.69183 1.82083e-18)
(7.32451 6.43851 -1.65348e-18)
(7.59282 6.17207 -1.69544e-19)
(7.84905 5.89305 -1.70503e-19)
(8.09266 5.60203 4.29845e-18)
(8.32309 5.29961 -7.1236e-20)
(8.53979 4.98642 3.76331e-21)
(8.74222 4.66312 -2.71824e-18)
(8.9299 4.33039 1.79347e-18)
(9.10234 3.98891 0)
(9.25905 3.63946 9.61941e-19)
(9.3997 3.28288 9.68595e-19)
(9.524 2.91995 0)
(9.63165 2.5515 0)
(9.72241 2.17835 0)
(9.79609 1.80131 0)
(9.85251 1.42122 -2.1701e-20)
(9.89153 1.03892 4.74255e-19)
(9.91305 0.655238 -2.27738e-19)
(9.91706 0.271123 0)
(6.78214 6.37711 1.54209e-18)
(7.05393 6.14164 0)
(7.31548 5.89323 -4.54028e-18)
(7.56601 5.63232 -1.54756e-18)
(7.80486 5.35941 -1.62628e-18)
(8.03147 5.07507 -1.72396e-18)
(8.24526 4.77988 8.14506e-19)
(8.44568 4.47442 -8.55984e-19)
(8.63221 4.15935 2.37679e-18)
(8.80438 3.83535 -7.78099e-19)
(8.96178 3.50317 0)
(9.10392 3.16356 0)
(9.2304 2.81721 0)
(9.34095 2.46492 0)
(9.43531 2.10749 -1.22876e-18)
(9.51322 1.74572 4.22515e-19)
(9.57447 1.38042 -4.46323e-19)
(9.61889 1.01244 0)
(9.64636 0.642595 2.24602e-19)
(9.6568 0.271794 0)
(6.50718 6.04994 1.31917e-18)
(6.76873 5.83061 -4.79812e-20)
(7.02099 5.59876 2.77482e-18)
(7.26316 5.35473 1.38628e-18)
(7.49459 5.09897 0)
(7.71469 4.83201 -1.47211e-18)
(7.9229 4.55435 6.8478e-20)
(8.11867 4.26657 -1.49446e-18)
(8.30148 3.96926 2.06744e-18)
(8.47085 3.66306 3.27281e-20)
(8.62635 3.3486 2.8106e-20)
(8.76753 3.02651 -7.45734e-19)
(8.89398 2.69754 1.46253e-18)
(9.00538 2.36244 0)
(9.10147 2.0219 6.85398e-20)
(9.18193 1.67677 7.46688e-19)
(9.24651 1.32782 1.63654e-21)
(9.29503 0.975819 -1.53397e-20)
(9.32736 0.621576 0)
(9.34335 0.265923 -4.62922e-20)
(6.24129 5.73296 0)
(6.4915 5.52761 -4.89058e-20)
(6.73318 5.31027 1.7554e-20)
(6.96556 5.08121 -2.50827e-18)
(7.188 4.84086 0)
(7.39993 4.58966 1.26857e-18)
(7.60081 4.32809 1.35123e-18)
(7.7901 4.05667 -3.93125e-18)
(7.9673 3.77594 -6.82495e-20)
(8.13196 3.48647 -1.26231e-18)
(8.28361 3.18886 6.95058e-19)
(8.42185 2.88371 -6.42037e-19)
(8.54628 2.57172 -7.05816e-19)
(8.65651 2.25356 0)
(8.75232 1.92995 3.72376e-19)
(8.83348 1.6015 -1.69009e-20)
(8.89962 1.26908 -3.45677e-19)
(8.95051 0.933403 -1.6763e-20)
(8.98605 0.595233 -8.70162e-20)
(9.00607 0.255338 1.74405e-19)
(5.99567 5.43776 0)
(6.2343 5.24426 1.08457e-18)
(6.46499 5.03933 1.61644e-20)
(6.68701 4.82323 -1.1007e-18)
(6.89976 4.59631 0)
(7.10268 4.35899 1.14511e-18)
(7.29527 4.11171 -1.09329e-18)
(7.47701 3.85492 -1.21033e-18)
(7.64744 3.58914 2.30216e-18)
(7.8061 3.31488 1.24224e-18)
(7.95258 3.03272 0)
(8.08646 2.74323 6.05899e-19)
(8.20738 2.44703 -4.38555e-21)
(8.315 2.14477 2.18575e-20)
(8.40892 1.83712 0)
(8.48901 1.5247 -5.96389e-19)
(8.55509 1.20813 -3.12452e-19)
(8.60675 0.888225 4.56509e-19)
(8.64389 0.565708 3.07794e-19)
(8.66633 0.241289 -4.11423e-20)
(5.774 5.16927 0)
(6.00138 4.98575 -9.36691e-19)
(6.22126 4.79137 0)
(6.43298 4.58637 -1.01061e-18)
(6.63595 4.37106 1.98966e-18)
(6.82966 4.14581 -2.02911e-18)
(7.01363 3.91102 3.17519e-18)
(7.18739 3.66713 -3.16603e-18)
(7.35049 3.41459 -2.13907e-18)
(7.50251 3.15391 -1.57768e-18)
(7.64305 2.88562 5.41018e-19)
(7.77173 2.61025 -1.12164e-18)
(7.8882 2.32839 1.86407e-20)
(7.99212 2.04064 1.11497e-18)
(8.08323 1.7476 -2.80499e-19)
(8.16113 1.44997 1.14907e-18)
(8.22573 1.14825 -5.65151e-19)
(8.27688 0.843149 2.60378e-19)
(8.3143 0.535399 -1.48499e-19)
(8.33779 0.225666 0)
(5.57602 4.92787 0)
(5.79277 4.75281 1.8121e-18)
(6.00239 4.56745 8.78974e-19)
(6.20423 4.37199 -9.04791e-19)
(6.39774 4.16671 -1.85346e-18)
(6.58245 3.95195 2.82039e-18)
(6.75791 3.72807 1.12795e-20)
(6.92369 3.49548 -9.19292e-19)
(7.07936 3.25462 1.97363e-18)
(7.22454 3.00596 1.01932e-18)
(7.35885 2.75 -9.52288e-19)
(7.48194 2.48726 5.00046e-19)
(7.59347 2.21827 2.25262e-20)
(7.69314 1.94361 -5.26177e-19)
(7.78066 1.66385 -2.54972e-19)
(7.85575 1.37957 5.11252e-19)
(7.91817 1.09146 -2.56281e-19)
(7.96782 0.800022 -5.17167e-19)
(8.00453 0.505941 5.99268e-20)
(8.02805 0.209861 6.48025e-20)
(5.3995 4.71152 0)