/*--------------------------------*- C++ -*----------------------------------*\
  =========                 |
  \\      /  F ield         | OpenFOAM: The Open Source CFD Toolbox
   \\    /   O peration     | Website:  https://openfoam.org
    \\  /    A nd           | Version:  6.0
     \\/     M anipulation  |
\*---------------------------------------------------------------------------*/
FoamFile
{
    version     2.0;
    format      ascii;
    class       volScalarField;
    location    "1.5";
    object      p;
}
// * * * * * * * * * * * * * * * * * * * * * * * * * * * * * * * * * * * * * //

dimensions      [0 2 -2 0 0 0 0];

internalField   nonuniform List<scalar> 
19200
(
-90.5544
-76.1006
-65.6284
-57.1585
-49.6425
-43.0742
-37.3749
-32.4252
-28.1271
-24.3981
-21.1654
-18.3648
-15.9403
-13.8423
-12.0278
-10.4588
-9.10232
-7.92962
-6.91562
-6.03856
-5.2796
-4.62243
-4.05298
-3.5591
-3.13033
-2.7577
-2.43346
-2.15038
-1.90231
-1.69051
-90.5421
-76.1246
-65.6666
-57.1983
-49.6815
-43.1119
-37.411
-32.4596
-28.16
-24.4297
-21.1959
-18.3944
-15.9692
-13.8706
-12.0556
-10.4863
-9.12951
-7.95654
-6.94229
-6.06499
-5.30576
-4.64829
-4.0785
-3.58425
-3.15507
-2.78199
-2.45727
-2.17361
-1.9248
-1.71296
-90.5515
-76.1494
-65.7025
-57.2375
-49.7205
-43.1498
-37.4475
-32.4947
-28.1936
-24.4621
-21.2273
-18.425
-15.999
-13.9
-12.0845
-10.5148
-9.15777
-7.98454
-6.97005
-6.09249
-5.333
-4.67524
-4.10512
-3.61049
-3.18089
-2.80737
-2.48215
-2.19789
-1.94834
-1.73645
-90.5759
-76.1803
-65.7396
-57.277
-49.7599
-43.188
-37.4844
-32.5301
-28.2278
-24.4951
-21.2593
-18.4563
-16.0297
-13.9301
-12.1143
-10.5442
-9.18692
-8.01345
-6.99874
-6.12095
-5.36121
-4.70317
-4.13272
-3.63773
-3.20773
-2.83376
-2.50808
-2.22322
-1.97293
-1.761
-90.6098
-76.2167
-65.779
-57.3177
-49.8002
-43.2271
-37.522
-32.5664
-28.2628
-24.5289
-21.2922
-18.4884
-16.0612
-13.9612
-12.1449
-10.5746
-9.21703
-8.04335
-7.02843
-6.15044
-5.39047
-4.73216
-4.1614
-3.66604
-3.23564
-2.86123
-2.53508
-2.24963
-1.99861
-1.78667
-90.6503
-76.2579
-65.8211
-57.3599
-49.8415
-43.2671
-37.5605
-32.6034
-28.2984
-24.5635
-21.3259
-18.5214
-16.0936
-13.9931
-12.1765
-10.6059
-9.24809
-8.07422
-7.05912
-6.18094
-5.42077
-4.76222
-4.19119
-3.6955
-3.26469
-2.88985
-2.5632
-2.27716
-2.02542
-1.81349
-90.6955
-76.303
-65.8659
-57.4039
-49.8842
-43.3081
-37.5998
-32.6412
-28.3349
-24.5989
-21.3604
-18.5551
-16.1268
-14.0259
-12.2089
-10.6381
-9.28008
-8.10604
-7.09078
-6.21245
-5.4521
-4.79334
-4.22205
-3.72604
-3.29486
-2.9196
-2.5925
-2.30585
-2.05339
-1.84149
-90.7444
-76.3512
-65.9132
-57.4497
-49.9281
-43.3501
-37.6401
-32.6798
-28.3722
-24.6351
-21.3956
-18.5897
-16.1608
-14.0595
-12.2423
-10.6712
-9.31298
-8.1388
-7.12341
-6.24494
-5.48443
-4.82549
-4.25395
-3.75764
-3.32611
-2.95046
-2.62291
-2.33572
-2.08255
-1.87069
-90.7963
-76.4021
-65.9625
-57.4971
-49.9734
-43.3932
-37.6812
-32.7193
-28.4103
-24.672
-21.4317
-18.625
-16.1956
-14.0939
-12.2764
-10.7051
-9.34677
-8.17247
-7.15698
-6.2784
-5.51776
-4.85866
-4.28691
-3.79034
-3.35847
-2.98245
-2.65447
-2.36673
-2.11289
-1.90111
-90.8506
-76.4553
-66.0138
-57.546
-50.0198
-43.4373
-37.7232
-32.7596
-28.4491
-24.7097
-21.4684
-18.6611
-16.2312
-14.1291
-12.3113
-10.7398
-9.38139
-8.207
-7.19145
-6.3128
-5.55207
-4.89284
-4.32092
-3.82412
-3.39196
-3.01557
-2.68719
-2.3989
-2.14443
-1.93275
-90.9071
-76.5104
-66.0668
-57.5963
-50.0674
-43.4824
-37.7661
-32.8006
-28.4886
-24.748
-21.5059
-18.6979
-16.2674
-14.165
-12.347
-10.7753
-9.4168
-8.24236
-7.22676
-6.34808
-5.5873
-4.92797
-4.35593
-3.85893
-3.42651
-3.04979
-2.72103
-2.43222
-2.17713
-1.96561
-90.9655
-76.5673
-66.1212
-57.6479
-50.116
-43.5283
-37.8097
-32.8423
-28.5288
-24.7869
-21.5439
-18.7352
-16.3043
-14.2015
-12.3833
-10.8115
-9.45292
-8.27847
-7.26287
-6.38419
-5.62339
-4.96402
-4.39188
-3.89473
-3.4621
-3.0851
-2.75597
-2.46669
-2.21098
-1.99966
-91.0255
-76.6256
-66.177
-57.7005
-50.1656
-43.575
-37.854
-32.8845
-28.5694
-24.8264
-21.5824
-18.773
-16.3417
-14.2386
-12.4202
-10.8483
-9.48969
-8.31525
-7.29969
-6.42105
-5.66028
-5.00091
-4.42872
-3.93147
-3.49866
-3.12143
-2.79198
-2.50224
-2.24595
-2.03485
-91.0869
-76.6854
-66.2339
-57.7542
-50.2159
-43.6223
-37.8988
-32.9273
-28.6106
-24.8663
-21.6213
-18.8113
-16.3795
-14.2761
-12.4575
-10.8856
-9.52699
-8.35261
-7.33714
-6.45858
-5.69789
-5.03856
-4.46637
-3.96907
-3.53614
-3.15873
-2.82901
-2.53883
-2.282
-2.0711
-91.1498
-76.7464
-66.2919
-57.8086
-50.2669
-43.6702
-37.944
-32.9704
-28.652
-24.9064
-21.6606
-18.8499
-16.4176
-14.3139
-12.4952
-10.9233
-9.56471
-8.39043
-7.37509
-6.49668
-5.73611
-5.07688
-4.50475
-4.00745
-3.57446
-3.1969
-2.86697
-2.5764
-2.31903
-2.10845
-91.214
-76.8086
-66.3509
-57.8638
-50.3184
-43.7185
-37.9896
-33.0138
-28.6937
-24.9468
-21.7
-18.8886
-16.4559
-14.352
-12.5332
-10.9612
-9.60273
-8.42859
-7.41342
-6.5352
-5.77482
-5.11576
-4.54375
-4.04651
-3.61353
-3.2359
-2.90581
-2.61492
-2.35708
-2.14687
-91.2795
-76.8719
-66.4107
-57.9197
-50.3704
-43.7672
-38.0354
-33.0573
-28.7354
-24.9872
-21.7395
-18.9274
-16.4943
-14.3901
-12.5712
-10.9993
-9.64089
-8.46693
-7.45198
-6.57401
-5.81387
-5.15504
-4.58323
-4.08613
-3.65323
-3.27562
-2.94546
-2.65433
-2.39612
-2.18631
-91.3463
-76.9363
-66.4714
-57.9761
-50.4228
-43.816
-38.0813
-33.1008
-28.7772
-25.0276
-21.7788
-18.9661
-16.5325
-14.4281
-12.6091
-11.0373
-9.67903
-8.50528
-7.49061
-6.61292
-5.85309
-5.19455
-4.62301
-4.12614
-3.69339
-3.31587
-2.98572
-2.69443
-2.43592
-2.22661
-91.4146
-77.0017
-66.5329
-58.0331
-50.4754
-43.8649
-38.1271
-33.1442
-28.8187
-25.0677
-21.818
-19.0046
-16.5705
-14.4659
-12.6468
-11.075
-9.71697
-8.54346
-7.52909
-6.65175
-5.89228
-5.2341
-4.6629
-4.16632
-3.73382
-3.35648
-3.02643
-2.73506
-2.47633
-2.26759
-91.4845
-77.0683
-66.5951
-58.0904
-50.5282
-43.9137
-38.1728
-33.1874
-28.8599
-25.1075
-21.8567
-19.0426
-16.6081
-14.5032
-12.6841
-11.1124
-9.7545
-8.58126
-7.56722
-6.69026
-5.9312
-5.27345
-4.70266
-4.20647
-3.7743
-3.39724
-3.06739
-2.77606
-2.51719
-2.30913
-91.5565
-77.1361
-66.6581
-58.1481
-50.5809
-43.9624
-38.2181
-33.23
-28.9006
-25.1467
-21.8948
-19.08
-16.6451
-14.54
-12.7208
-11.1491
-9.79142
-8.61846
-7.60477
-6.72822
-5.96961
-5.31233
-4.74202
-4.2463
-3.81456
-3.43788
-3.10835
-2.81717
-2.55828
-2.35101
-91.6311
-77.2054
-66.7219
-58.2061
-50.6336
-44.0107
-38.2629
-33.2721
-28.9406
-25.1852
-21.9322
-19.1166
-16.6812
-14.5759
-12.7566
-11.185
-9.8275
-8.65482
-7.64148
-6.76536
-6.00723
-5.35046
-4.78069
-4.2855
-3.85429
-3.47811
-3.14901
-2.85812
-2.59934
-2.39298
-91.7094
-77.2764
-66.7865
-58.2643
-50.6861
-44.0584
-38.307
-33.3134
-28.9797
-25.2227
-21.9687
-19.1523
-16.7165
-14.6108
-12.7915
-11.2199
-9.86252
-8.69009
-7.6771
-6.80138
-6.04374
-5.38751
-4.81831
-4.32373
-3.89312
-3.51754
-3.18901
-2.89855
-2.64003
-2.43474
-91.7918
-77.3492
-66.8517
-58.3225
-50.7381
-44.1055
-38.3502
-33.3537
-29.0178
-25.2592
-22.0041
-19.1869
-16.7505
-14.6446
-12.8251
-11.2535
-9.89627
-8.72404
-7.71134
-6.83601
-6.07881
-5.42311
-4.8545
-4.36054
-3.93061
-3.55572
-3.2279
-2.93804
-2.67994
-2.47595
-91.8787
-77.4231
-66.9172
-58.3806
-50.7895
-44.1516
-38.3923
-33.3928
-29.0547
-25.2946
-22.0382
-19.2203
-16.7834
-14.6771
-12.8574
-11.2858
-9.92855
-8.75646
-7.74397
-6.86893
-6.11212
-5.45687
-4.8888
-4.39546
-3.96622
-3.59209
-3.26508
-2.97599
-2.71856
-2.51618
-91.9711
-77.4981
-66.9827
-58.4383
-50.84
-44.1965
-38.4331
-33.4305
-29.0903
-25.3285
-22.071
-19.2523
-16.8148
-14.7082
-12.8882
-11.3165
-9.95922
-8.78716
-7.77477
-6.8999
-6.14333
-5.48841
-4.92076
-4.42795
-3.99933
-3.62594
-3.29979
-3.01162
-2.75509
-2.55429
-92.0772
-77.5778
-67.0484
-58.4949
-50.8887
-44.2391
-38.4715
-33.4662
-29.1239
-25.3607
-22.1022
-19.2828
-16.8448
-14.7377
-12.9175
-11.3456
-9.98816
-8.816
-7.80357
-6.9287
-6.17218
-5.51739
-4.94995
-4.45746
-4.02929
-3.65653
-3.33122
-3.04403
-2.78834
-2.5888
-92.2147
-77.6688
-67.1139
-58.548
-50.9337
-44.2783
-38.5069
-33.499
-29.155
-25.3907
-22.1314
-19.3113
-16.8729
-14.7655
-12.945
-11.3728
-10.0152
-8.84287
-7.83023
-6.95516
-6.19844
-5.54349
-4.97594
-4.48345
-4.05544
-3.6831
-3.35853
-3.07225
-2.81756
-2.62138
-92.3869
-77.7694
-67.176
-58.5958
-50.9747
-44.3147
-38.5401
-33.53
-29.1845
-25.4191
-22.159
-19.3384
-16.8995
-14.7918
-12.971
-11.3985
-10.0406
-8.86786
-7.85483
-6.9793
-6.22207
-5.56654
-4.99837
-4.50525
-4.07673
-3.70408
-3.37932
-3.09322
-2.84149
-2.656
-92.5148
-77.8508
-67.2304
-58.64
-51.0149
-44.3519
-38.5744
-33.5621
-29.215
-25.4483
-22.1872
-19.3658
-16.9262
-14.8179
-12.9966
-11.4236
-10.0651
-8.89183
-7.87815
-7.00186
-6.24371
-5.58707
-5.01755
-4.5228
-4.09232
-3.71711
-3.38873
-3.09963
-2.85157
-2.67177
-92.5737
-92.5778
-92.5511
-92.5413
-92.5464
-92.5553
-92.5634
-92.5704
-92.5757
-92.5791
-92.5809
-92.5804
-92.5771
-92.5709
-92.5622
-92.5511
-92.5376
-92.522
-92.5044
-92.4854
-92.4651
-92.444
-92.4228
-92.4024
-92.3837
-92.3688
-92.3605
-92.3641
-92.3885
-92.4451
-77.9279
-77.9589
-77.9743
-77.9921
-78.0129
-78.0323
-78.0483
-78.0615
-78.0716
-78.0785
-78.0835
-78.086
-78.0851
-78.0814
-78.075
-78.0661
-78.0549
-78.0416
-78.0263
-78.0093
-77.9911
-77.972
-77.9524
-77.9332
-77.9151
-77.8993
-77.8874
-77.8807
-77.8798
-77.8758
-67.2737
-67.3191
-67.356
-67.3881
-67.4164
-67.4406
-67.4611
-67.4784
-67.492
-67.5021
-67.5103
-67.5157
-67.5176
-67.5165
-67.5129
-67.5067
-67.4982
-67.4875
-67.4747
-67.4603
-67.4443
-67.4272
-67.4093
-67.3911
-67.3729
-67.3551
-67.3381
-67.3208
-67.3012
-67.2737
-58.6405
-58.6892
-58.7324
-58.7698
-58.8016
-58.8287
-58.8521
-58.8721
-58.8883
-58.9012
-58.9119
-58.9195
-58.9236
-58.9248
-58.9234
-58.9195
-58.9132
-58.9047
-58.8941
-58.8817
-58.8677
-58.8522
-58.8356
-58.818
-58.7996
-58.7804
-58.76
-58.7378
-58.712
-58.6812
-50.987
-51.0348
-51.079
-51.1184
-51.1522
-51.181
-51.2066
-51.228
-51.245
-51.26
-51.2726
-51.2812
-51.2866
-51.2892
-51.2893
-51.2869
-51.2821
-51.275
-51.2659
-51.2549
-51.2421
-51.2278
-51.212
-51.1949
-51.1765
-51.1566
-51.1351
-51.1114
-51.0845
-51.0541
-44.3127
-44.3588
-44.4024
-44.4421
-44.4763
-44.5057
-44.5318
-44.5534
-44.571
-44.5869
-44.5998
-44.6088
-44.6146
-44.6179
-44.6186
-44.6169
-44.6128
-44.6065
-44.5981
-44.5878
-44.5757
-44.562
-44.5467
-44.5298
-44.5115
-44.4915
-44.4697
-44.4458
-44.4189
-44.3891
-38.5376
-38.5819
-38.6242
-38.6629
-38.6964
-38.7254
-38.751
-38.7722
-38.7896
-38.8054
-38.8179
-38.8266
-38.8324
-38.8357
-38.8364
-38.8347
-38.8307
-38.8246
-38.8163
-38.8062
-38.7943
-38.7808
-38.7656
-38.7488
-38.7305
-38.7105
-38.6887
-38.6649
-38.6384
-38.6096
-33.5375
-33.5797
-33.6202
-33.6572
-33.6895
-33.7174
-33.7419
-33.7622
-33.7791
-33.7941
-33.8059
-33.8139
-33.8192
-33.822
-33.8223
-33.8203
-33.8159
-33.8095
-33.801
-33.7907
-33.7786
-33.7649
-33.7496
-33.7327
-33.7143
-33.6943
-33.6726
-33.6491
-33.6231
-33.5953
-29.2087
-29.2489
-29.2873
-29.3224
-29.3531
-29.3798
-29.4027
-29.4219
-29.4382
-29.4522
-29.4627
-29.4699
-29.4744
-29.4765
-29.4761
-29.4733
-29.4684
-29.4613
-29.4524
-29.4416
-29.4291
-29.415
-29.3994
-29.3823
-29.3637
-29.3437
-29.322
-29.2987
-29.2734
-29.2465
-25.4639
-25.5022
-25.5386
-25.5717
-25.6007
-25.626
-25.6474
-25.665
-25.6807
-25.6935
-25.7026
-25.7088
-25.7124
-25.7135
-25.7123
-25.7087
-25.7029
-25.6952
-25.6855
-25.6741
-25.661
-25.6465
-25.6304
-25.613
-25.5942
-25.574
-25.5524
-25.5294
-25.5045
-25.4784
-22.2264
-22.2629
-22.2974
-22.3286
-22.3559
-22.3797
-22.3994
-22.416
-22.4307
-22.4421
-22.4499
-22.455
-22.4576
-22.4577
-22.4554
-22.4509
-22.4443
-22.4357
-22.4253
-22.4131
-22.3994
-22.3842
-22.3677
-22.3499
-22.3308
-22.3105
-22.2889
-22.2661
-22.2417
-22.2162
-19.4293
-19.464
-19.4967
-19.5261
-19.5518
-19.5741
-19.5924
-19.6079
-19.6212
-19.6312
-19.6379
-19.6419
-19.6434
-19.6425
-19.6392
-19.6338
-19.6262
-19.6167
-19.6054
-19.5925
-19.5781
-19.5623
-19.5452
-19.5269
-19.5075
-19.4871
-19.4655
-19.4428
-19.4188
-19.3939
-17.014
-17.0472
-17.0782
-17.1059
-17.1301
-17.1508
-17.1678
-17.1821
-17.1942
-17.2029
-17.2084
-17.2113
-17.2118
-17.2098
-17.2055
-17.1991
-17.1905
-17.1801
-17.168
-17.1542
-17.139
-17.1225
-17.1049
-17.0861
-17.0664
-17.0458
-17.0242
-17.0017
-16.978
-16.9535
-14.9298
-14.9615
-14.9909
-15.0171
-15.0398
-15.0591
-15.0749
-15.088
-15.0988
-15.1063
-15.1106
-15.1125
-15.1119
-15.1089
-15.1035
-15.096
-15.0866
-15.0752
-15.0622
-15.0476
-15.0316
-15.0144
-14.9961
-14.9769
-14.9568
-14.9359
-14.9143
-14.8919
-14.8685
-14.8445
-13.1323
-13.1626
-13.1905
-13.2152
-13.2365
-13.2544
-13.2691
-13.2811
-13.2906
-13.2969
-13.3001
-13.3009
-13.2993
-13.2952
-13.2888
-13.2804
-13.2699
-13.2576
-13.2436
-13.2282
-13.2114
-13.1935
-13.1745
-13.1548
-13.1343
-13.1132
-13.0915
-13.0692
-13.0462
-13.0225
-11.5829
-11.6118
-11.6383
-11.6616
-11.6816
-11.6981
-11.7117
-11.7227
-11.7309
-11.7359
-11.7382
-11.7379
-11.7352
-11.7301
-11.7227
-11.7133
-11.7018
-11.6886
-11.6737
-11.6573
-11.6397
-11.621
-11.6014
-11.581
-11.5601
-11.5388
-11.517
-11.4948
-11.4721
-11.4489
-10.2478
-10.2754
-10.3005
-10.3225
-10.3412
-10.3565
-10.3689
-10.3789
-10.3859
-10.3897
-10.3909
-10.3896
-10.3859
-10.3797
-10.3714
-10.3609
-10.3485
-10.3342
-10.3184
-10.3011
-10.2826
-10.2631
-10.2428
-10.2219
-10.2005
-10.1789
-10.157
-10.1349
-10.1125
-10.0897
-9.0976
-9.12401
-9.14777
-9.16849
-9.18586
-9.19986
-9.21132
-9.22024
-9.22593
-9.22869
-9.22888
-9.22656
-9.22178
-9.21464
-9.20527
-9.19381
-9.1804
-9.16521
-9.14842
-9.13022
-9.11084
-9.09048
-9.0694
-9.04782
-9.02596
-9.00398
-8.98201
-8.96007
-8.93797
-8.91573
-8.10671
-8.13188
-8.15435
-8.1738
-8.18992
-8.2028
-8.21321
-8.22094
-8.22549
-8.22721
-8.22639
-8.22306
-8.21728
-8.20915
-8.19879
-8.18635
-8.17196
-8.1558
-8.13805
-8.11891
-8.09861
-8.07738
-8.0555
-8.03321
-8.01079
-7.98846
-7.96636
-7.94456
-7.92287
-7.90123
-7.2528
-7.27674
-7.29796
-7.31616
-7.33108
-7.34286
-7.35219
-7.35879
-7.36225
-7.36296
-7.36114
-7.35681
-7.35005
-7.34094
-7.32962
-7.31621
-7.30087
-7.28375
-7.26504
-7.24494
-7.2237
-7.20156
-7.17883
-7.15579
-7.13275
-7.11
-7.08775
-7.0661
-7.04489
-7.02398
-6.51649
-6.53922
-6.5592
-6.57619
-6.58994
-6.60065
-6.60892
-6.61441
-6.61683
-6.61654
-6.61375
-6.60845
-6.60073
-6.59068
-6.57842
-6.56407
-6.54778
-6.52971
-6.51005
-6.489
-6.4668
-6.44372
-6.42009
-6.39623
-6.37251
-6.34928
-6.32683
-6.30534
-6.2847
-6.26468
-5.88097
-5.90251
-5.92128
-5.93708
-5.9497
-5.95938
-5.9666
-5.97102
-5.97243
-5.97118
-5.96744
-5.96121
-5.95256
-5.9416
-5.92843
-5.91318
-5.89597
-5.87698
-5.85638
-5.83437
-5.8112
-5.78716
-5.76257
-5.73782
-5.71332
-5.68952
-5.66681
-5.64549
-5.6255
-5.6066
-5.3317
-5.35207
-5.36968
-5.38432
-5.39585
-5.40452
-5.41072
-5.4141
-5.41455
-5.41239
-5.40773
-5.40061
-5.39107
-5.37923
-5.36519
-5.34907
-5.33098
-5.31109
-5.28957
-5.26661
-5.24247
-5.21743
-5.19185
-5.16612
-5.14075
-5.11625
-5.09318
-5.07198
-5.05275
-5.03525
-4.85613
-4.87537
-4.89185
-4.90537
-4.91586
-4.92358
-4.92879
-4.93117
-4.9307
-4.92766
-4.92214
-4.91416
-4.90378
-4.89111
-4.87625
-4.85929
-4.84036
-4.81961
-4.79719
-4.77331
-4.74819
-4.72213
-4.69549
-4.66871
-4.64233
-4.61699
-4.59339
-4.57225
-4.55384
-4.53813
-4.44349
-4.46163
-4.47702
-4.48946
-4.49895
-4.50577
-4.51003
-4.51147
-4.51013
-4.50626
-4.49991
-4.49112
-4.47995
-4.4665
-4.45085
-4.4331
-4.41338
-4.3918
-4.36853
-4.34374
-4.31766
-4.29057
-4.26282
-4.23488
-4.20734
-4.18095
-4.1566
-4.13535
-4.11781
-4.10444
-4.08452
-4.1016
-4.11594
-4.12735
-4.13588
-4.14183
-4.14518
-4.14571
-4.14354
-4.13887
-4.13174
-4.12218
-4.11026
-4.09606
-4.07967
-4.06118
-4.0407
-4.01833
-3.99423
-3.96855
-3.94151
-3.91337
-3.88446
-3.85525
-3.82636
-3.79865
-3.7732
-3.75154
-3.73469
-3.72439
-3.77134
-3.78738
-3.80072
-3.81114
-3.81877
-3.82387
-3.82632
-3.82599
-3.82304
-3.8176
-3.80971
-3.7994
-3.78676
-3.77184
-3.75473
-3.73551
-3.71428
-3.69114
-3.66622
-3.63965
-3.61163
-3.58239
-3.55224
-3.52162
-3.49115
-3.46174
-3.43469
-3.41207
-3.39537
-3.38888
-3.49711
-3.51226
-3.52474
-3.53433
-3.54117
-3.54555
-3.54725
-3.54618
-3.54256
-3.53646
-3.52792
-3.51698
-3.50371
-3.48817
-3.47044
-3.45059
-3.42871
-3.40488
-3.37922
-3.35185
-3.32291
-3.29262
-3.26124
-3.22916
-3.19695
-3.16554
-3.13635
-3.11213
-3.09498
-3.09382
-3.25588
-3.2704
-3.28225
-3.29127
-3.29763
-3.30152
-3.30272
-3.30122
-3.29722
-3.29076
-3.28188
-3.27063
-3.25706
-3.24125
-3.22325
-3.20314
-3.181
-3.15689
-3.13092
-3.10318
-3.0738
-3.04294
-3.01081
-2.97773
-2.94418
-2.91098
-2.87951
-2.853
-2.83482
-2.84533
-3.04331
-3.05635
-3.0668
-3.07453
-3.07968
-3.08239
-3.08251
-3.08004
-3.07512
-3.06781
-3.05816
-3.0462
-3.03199
-3.01559
-2.99707
-2.97648
-2.95389
-2.92936
-2.90297
-2.87481
-2.84495
-2.8135
-2.78062
-2.74651
-2.71148
-2.6761
-2.64133
-2.60955
-2.58381
-2.60748
-89.0989
-89.1956
-89.2476
-89.3344
-89.4521
-89.582
-89.7158
-89.852
-89.9903
-90.1297
-90.2688
-90.4067
-90.5428
-90.6765
-90.8074
-90.9352
-91.0597
-91.1807
-91.298
-91.4116
-91.5215
-91.6277
-91.7306
-91.8303
-91.9275
-92.0231
-92.1189
-92.2178
-92.325
-92.4475
-74.412
-74.5482
-74.6651
-74.792
-74.93
-75.071
-75.2118
-75.352
-75.492
-75.6313
-75.7695
-75.9059
-76.0401
-76.1718
-76.3008
-76.4266
-76.5493
-76.6685
-76.7842
-76.8964
-77.0049
-77.1099
-77.2115
-77.3099
-77.4055
-77.499
-77.5911
-77.6825
-77.7735
-77.8589
-63.7994
-63.9528
-64.0987
-64.2421
-64.3848
-64.5265
-64.6669
-64.8062
-64.9443
-65.0812
-65.2165
-65.3498
-65.4809
-65.6094
-65.7352
-65.858
-65.9777
-66.0941
-66.2071
-66.3166
-66.4226
-66.5251
-66.6241
-66.7198
-66.8123
-66.9016
-66.988
-67.0706
-67.1481
-67.2174
-55.2651
-55.4179
-55.5676
-55.7129
-55.8545
-55.9937
-56.1316
-56.2681
-56.4032
-56.5366
-56.668
-56.7974
-56.9245
-57.049
-57.1707
-57.2895
-57.4053
-57.5178
-57.627
-57.7329
-57.8352
-57.9341
-58.0295
-58.1213
-58.2096
-58.2942
-58.3748
-58.451
-58.5215
-58.5859
-47.7364
-47.8827
-48.0289
-48.1719
-48.311
-48.4473
-48.5819
-48.7148
-48.8459
-48.9751
-49.1021
-49.2269
-49.3493
-49.4692
-49.5863
-49.7005
-49.8116
-49.9197
-50.0245
-50.126
-50.224
-50.3186
-50.4097
-50.4972
-50.5809
-50.6608
-50.7365
-50.8078
-50.8738
-50.9347
-41.1953
-41.3352
-41.4764
-41.6157
-41.7513
-41.8838
-42.0143
-42.143
-42.2696
-42.3942
-42.5165
-42.6365
-42.7541
-42.8691
-42.9813
-43.0907
-43.1971
-43.3004
-43.4006
-43.4975
-43.591
-43.6811
-43.7677
-43.8507
-43.9299
-44.0053
-44.0766
-44.1436
-44.2056
-44.263
-35.5514
-35.6858
-35.822
-35.9567
-36.088
-36.2163
-36.3425
-36.4668
-36.589
-36.7089
-36.8266
-36.942
-37.0548
-37.1651
-37.2726
-37.3773
-37.4791
-37.5778
-37.6734
-37.7658
-37.8549
-37.9406
-38.0229
-38.1015
-38.1765
-38.2477
-38.3148
-38.3779
-38.4363
-38.4904
-30.6744
-30.8039
-30.9351
-31.0651
-31.192
-31.3162
-31.4383
-31.5583
-31.6763
-31.792
-31.9054
-32.0163
-32.1248
-32.2307
-32.3338
-32.4341
-32.5316
-32.626
-32.7174
-32.8056
-32.8905
-32.9721
-33.0503
-33.1249
-33.196
-33.2633
-33.3268
-33.3863
-33.4414
-33.4926
-26.4576
-26.5829
-26.7096
-26.8352
-26.958
-27.0783
-27.1965
-27.3128
-27.4268
-27.5386
-27.6481
-27.7551
-27.8595
-27.9614
-28.0606
-28.157
-28.2505
-28.341
-28.4285
-28.5129
-28.594
-28.6719
-28.7464
-28.8175
-28.885
-28.9488
-29.009
-29.0653
-29.1174
-29.166
-22.8129
-22.9345
-23.0573
-23.1789
-23.2981
-23.4148
-23.5296
-23.6424
-23.7529
-23.8612
-23.9671
-24.0706
-24.1715
-24.2699
-24.3655
-24.4583
-24.5483
-24.6354
-24.7194
-24.8004
-24.8782
-24.9527
-25.0239
-25.0918
-25.1561
-25.2169
-25.2741
-25.3276
-25.3772
-25.4233
-19.6639
-19.7824
-19.9018
-20.02
-20.1359
-20.2495
-20.3612
-20.4709
-20.5783
-20.6835
-20.7863
-20.8866
-20.9844
-21.0796
-21.1721
-21.2618
-21.3487
-21.4327
-21.5137
-21.5916
-21.6664
-21.738
-21.8063
-21.8713
-21.9329
-21.991
-22.0456
-22.0966
-22.1438
-22.1877
-16.9448
-17.0607
-17.1772
-17.2924
-17.4055
-17.5164
-17.6253
-17.7322
-17.8369
-17.9393
-18.0393
-18.1369
-18.2319
-18.3243
-18.414
-18.501
-18.5851
-18.6664
-18.7446
-18.8199
-18.892
-18.961
-19.0268
-19.0892
-19.1484
-19.2041
-19.2564
-19.3052
-19.3504
-19.3923
-14.5988
-14.7125
-14.8264
-14.9391
-15.0497
-15.1582
-15.2647
-15.3692
-15.4715
-15.5714
-15.6689
-15.764
-15.8565
-15.9464
-16.0336
-16.1181
-16.1998
-16.2786
-16.3545
-16.4274
-16.4972
-16.5638
-16.6273
-16.6876
-16.7445
-16.7981
-16.8484
-16.8952
-16.9385
-16.9786
-12.5768
-12.6885
-12.8003
-12.9108
-13.0191
-13.1255
-13.2299
-13.3322
-13.4322
-13.5299
-13.6252
-13.718
-13.8083
-13.8959
-13.9809
-14.0632
-14.1427
-14.2193
-14.293
-14.3638
-14.4314
-14.496
-14.5575
-14.6157
-14.6707
-14.7224
-14.7708
-14.8158
-14.8574
-14.8958
-10.8359
-10.9459
-11.0559
-11.1644
-11.2708
-11.3753
-11.4777
-11.578
-11.676
-11.7716
-11.8649
-11.9556
-12.0438
-12.1294
-12.2124
-12.2926
-12.3701
-12.4447
-12.5164
-12.5852
-12.6509
-12.7136
-12.7732
-12.8296
-12.8828
-12.9328
-12.9794
-13.0228
-13.0628
-13.0997
-9.3389
-9.44749
-9.55581
-9.66261
-9.76735
-9.87004
-9.97066
-10.0691
-10.1651
-10.2589
-10.3501
-10.4389
-10.5252
-10.6089
-10.6899
-10.7682
-10.8438
-10.9166
-10.9865
-11.0534
-11.1174
-11.1783
-11.2361
-11.2908
-11.3424
-11.3907
-11.4358
-11.4776
-11.5161
-11.5516
-8.05343
-8.16072
-8.26757
-8.37281
-8.47595
-8.57699
-8.67587
-8.77248
-8.86673
-8.95859
-9.04801
-9.13495
-9.21937
-9.30121
-9.38042
-9.45695
-9.53075
-9.60175
-9.66988
-9.73511
-9.79738
-9.85663
-9.91282
-9.96591
-10.0159
-10.0626
-10.1062
-10.1466
-10.1837
-10.2178
-6.95101
-7.05714
-7.16265
-7.26645
-7.36807
-7.46751
-7.56469
-7.65954
-7.75199
-7.84203
-7.92963
-8.01477
-8.09739
-8.17745
-8.2549
-8.3297
-8.40177
-8.47107
-8.53753
-8.60111
-8.66175
-8.7194
-8.77401
-8.82555
-8.87398
-8.91927
-8.9614
-9.00037
-9.0361
-9.06882
-6.00677
-6.11182
-6.21612
-6.31855
-6.41869
-6.51653
-6.61201
-6.70509
-6.79574
-6.88397
-6.96978
-7.05312
-7.13398
-7.2123
-7.28803
-7.36113
-7.43153
-7.49918
-7.56401
-7.62598
-7.68504
-7.74113
-7.79421
-7.84424
-7.8912
-7.93504
-7.97576
-8.01334
-8.04774
-8.07914
-5.19891
-5.30296
-5.40613
-5.50725
-5.6059
-5.70211
-5.79585
-5.88713
-5.97596
-6.06238
-6.14638
-6.22796
-6.30706
-6.38366
-6.45771
-6.52914
-6.59789
-6.66392
-6.72715
-6.78755
-6.84505
-6.89962
-6.95119
-6.99975
-7.04526
-7.08768
-7.12701
-7.16324
-7.19632
-7.22642
-4.50828
-4.61145
-4.71359
-4.81341
-4.91054
-5.00506
-5.09701
-5.18644
-5.27343
-5.35801
-5.44022
-5.52002
-5.59739
-5.67229
-5.74466
-5.81444
-5.88158
-5.946
-6.00766
-6.0665
-6.12248
-6.17553
-6.22563
-6.27273
-6.31681
-6.35784
-6.39579
-6.43069
-6.46247
-6.49129
-3.91804
-4.02059
-4.12182
-4.22034
-4.31589
-4.40864
-4.49873
-4.58627
-4.67138
-4.75412
-4.83453
-4.91257
-4.98823
-5.06144
-5.13215
-5.2003
-5.26583
-5.32866
-5.38876
-5.44607
-5.50052
-5.55209
-5.60072
-5.64638
-5.68904
-5.72869
-5.7653
-5.79887
-5.82937
-5.85694
-3.41357
-3.51577
-3.61632
-3.71351
-3.80738
-3.89828
-3.98644
-4.07205
-4.15527
-4.23618
-4.31479
-4.39109
-4.46504
-4.53658
-4.60565
-4.67218
-4.73611
-4.79737
-4.85592
-4.9117
-4.96465
-5.01473
-5.06191
-5.10614
-5.14741
-5.18569
-5.22097
-5.25325
-5.28249
-5.30881
-2.98195
-3.08426
-3.18447
-3.2803
-3.37238
-3.46135
-3.54753
-3.63119
-3.71251
-3.79159
-3.86844
-3.94301
-4.01527
-4.08515
-4.15258
-4.2175
-4.27984
-4.33955
-4.39655
-4.45081
-4.50227
-4.55088
-4.59662
-4.63945
-4.67934
-4.71628
-4.75025
-4.78125
-4.80925
-4.83437
-2.61208
-2.71527
-2.81543
-2.9099
-3.00007
-3.08703
-3.17119
-3.25289
-3.33232
-3.40959
-3.48467
-3.55753
-3.6281
-3.69633
-3.76213
-3.82545
-3.88621
-3.94435
-3.99982
-4.05257
-4.10255
-4.14971
-4.19403
-4.23547
-4.27401
-4.30963
-4.34232
-4.37208
-4.39888
-4.42282
-2.29426
-2.39991
-2.50048
-2.59336
-2.68149
-2.76635
-2.84844
-2.92815
-3.00568
-3.08112
-3.15443
-3.22556
-3.29444
-3.361
-3.42516
-3.48686
-3.54602
-3.6026
-3.65654
-3.70778
-3.75629
-3.80201
-3.84493
-3.885
-3.9222
-3.95653
-3.98796
-4.0165
-4.04212
-4.06492
-2.01892
-2.1305
-2.23205
-2.32293
-2.40882
-2.49144
-2.57135
-2.64899
-2.72458
-2.79816
-2.86967
-2.93904
-3.0062
-3.07107
-3.13358
-3.19366
-3.25123
-3.30625
-3.35867
-3.40843
-3.45548
-3.49979
-3.54132
-3.58005
-3.61596
-3.64902
-3.67923
-3.70659
-3.73107
-3.75276
-1.77152
-1.89543
-2.00004
-2.08868
-2.17204
-2.25234
-2.33003
-2.40563
-2.47932
-2.5511
-2.62089
-2.68861
-2.75417
-2.81747
-2.87846
-2.93705
-2.99318
-3.04679
-3.09784
-3.14627
-3.19203
-3.23508
-3.2754
-3.31296
-3.34773
-3.37969
-3.40885
-3.43518
-3.45868
-3.47941
-1.5398
-1.68499
-1.79541
-1.8822
-1.96291
-2.04073
-2.11626
-2.18997
-2.26197
-2.33218
-2.4005
-2.4668
-2.53098
-2.59296
-2.65266
-2.71
-2.76491
-2.81735
-2.86725
-2.91457
-2.95927
-3.0013
-3.04063
-3.07724
-3.1111
-3.14219
-3.17052
-3.19606
-3.21881
-3.23883
-1.38788
-1.55047
-1.6547
-1.73565
-1.8116
-1.88521
-1.95727
-2.02798
-2.0972
-2.16476
-2.23048
-2.29424
-2.35591
-2.41541
-2.47265
-2.52756
-2.58009
-2.63017
-2.67777
-2.72282
-2.7653
-2.80517
-2.8424
-2.87697
-2.90886
-2.93805
-2.96453
-2.98831
-3.00937
-3.02777
0.856512
0.728509
0.569634
0.378101
0.147382
-0.130112
-0.462689
-0.859816
-1.33232
-1.89255
-2.55452
-3.33419
-4.24969
-5.3217
-6.57383
-8.03303
-9.7302
-11.7008
-13.9856
-16.6315
-19.693
-23.233
-27.3249
-32.0538
-37.5235
-43.8638
-51.1677
-59.4612
-69.8234
-84.2731
0.805887
0.676402
0.516954
0.324774
0.0934032
-0.18465
-0.517692
-0.915205
-1.38803
-1.94853
-2.61075
-3.39066
-4.30644
-5.3788
-6.63136
-8.09111
-9.78899
-11.7605
-14.0463
-16.6936
-19.7567
-23.2988
-27.3931
-32.125
-37.5985
-43.9433
-51.2526
-59.5486
-69.9033
-84.3319
0.752755
0.621733
0.461661
0.268773
0.0366789
-0.24201
-0.575598
-0.973585
-1.44683
-2.0077
-2.67027
-3.45054
-4.36673
-5.43956
-6.6927
-8.15317
-9.85193
-11.8245
-14.1117
-16.7606
-19.8256
-23.37
-27.467
-32.2021
-37.6791
-44.028
-51.3411
-59.6374
-69.9779
-84.3707
0.697271
0.564664
0.40394
0.210298
-0.0225663
-0.30194
-0.636125
-1.03463
-1.50834
-2.06964
-2.73261
-3.5133
-4.42995
-5.50332
-6.7571
-8.21836
-9.91809
-11.8918
-14.1805
-16.8311
-19.8981
-23.4449
-27.5448
-32.2832
-37.7638
-44.1162
-51.4326
-59.7304
-70.0645
-84.436
0.6395
0.505257
0.343843
0.1494
-0.0842858
-0.364392
-0.699221
-1.0983
-1.57251
-2.13426
-2.79768
-3.57881
-4.49594
-5.56986
-6.82429
-8.28636
-9.98705
-11.962
-14.252
-16.9044
-19.9735
-23.5226
-27.6254
-32.367
-37.8512
-44.2072
-51.5273
-59.8287
-70.1633
-84.5256
0.579508
0.443575
0.281426
0.0861257
-0.148441
-0.429341
-0.764872
-1.16458
-1.63935
-2.20162
-2.86552
-3.64714
-4.56478
-5.63928
-6.8944
-8.35728
-10.059
-12.0351
-14.3266
-16.9806
-20.0517
-23.6033
-27.7089
-32.4538
-37.9416
-44.3017
-51.6259
-59.9319
-70.2697
-84.6283
0.517382
0.379707
0.216781
0.0205649
-0.214946
-0.496702
-0.832999
-1.23339
-1.70879
-2.27163
-2.93608
-3.71824
-4.63646
-5.7116
-6.96746
-8.43121
-10.1339
-12.1113
-14.4043
-17.0601
-20.1333
-23.6874
-27.7959
-32.5442
-38.036
-44.4004
-51.7292
-60.0401
-70.3818
-84.7392
0.453214
0.313749
0.150003
-0.0471888
-0.283706
-0.566381
-0.903506
-1.30465
-1.78074
-2.34422
-3.00927
-3.79204
-4.71089
-5.78673
-7.04338
-8.50806
-10.2119
-12.1906
-14.4851
-17.1429
-20.2183
-23.775
-27.8865
-32.6384
-38.1344
-44.5034
-51.8373
-60.1533
-70.4995
-84.8578
0.387091
0.245791
0.0811812
-0.117047
-0.354635
-0.638291
-0.976308
-1.37827
-1.85511
-2.41928
-3.085
-3.86844
-4.78797
-5.86456
-7.12206
-8.58772
-10.2927
-12.2727
-14.5689
-17.2285
-20.3064
-23.8656
-27.9805
-32.7363
-38.2367
-44.6107
-51.95
-60.2716
-70.623
-84.9837
0.319102
0.175922
0.0104044
-0.188923
-0.427646
-0.712348
-1.05132
-1.45416
-1.93181
-2.49675
-3.1632
-3.94735
-4.86764
-5.94503
-7.20343
-8.67012
-10.3763
-12.3578
-14.6557
-17.3172
-20.3974
-23.9597
-28.0781
-32.8378
-38.3428
-44.7222
-52.0673
-60.395
-70.7522
-85.1162
0.24933
0.104229
-0.062241
-0.26273
-0.502656
-0.788471
-1.12847
-1.53225
-2.01078
-2.57654
-3.24378
-4.02872
-4.94981
-6.02806
-7.28742
-8.75522
-10.4627
-12.4457
-14.7454
-17.4092
-20.4918
-24.0572
-28.179
-32.9428
-38.4528
-44.8377
-52.189
-60.5232
-70.8865
-85.2547
0.177854
0.0307948
-0.136671
-0.338388
-0.579584
-0.866577
-1.20766
-1.61246
-2.09193
-2.65858
-3.32667
-4.11244
-5.03439
-6.11356
-7.37394
-8.8429
-10.5517
-12.5363
-14.838
-17.504
-20.5893
-24.1577
-28.2831
-33.0514
-38.5664
-44.9572
-52.3149
-60.6559
-71.0258
-85.3986
0.104752
-0.0443009
-0.212806
-0.415817
-0.658352
-0.94659
-1.28883
-1.6947
-2.17518
-2.74277
-3.41177
-4.19845
-5.12131
-6.20146
-7.46291
-8.93308
-10.6433
-12.6295
-14.9329
-17.6014
-20.6893
-24.2611
-28.3904
-33.1632
-38.6836
-45.0805
-52.445
-60.7929
-71.1696
-85.5474
0.0300909
-0.120986
-0.290572
-0.494944
-0.738885
-1.02843
-1.37189
-1.77891
-2.26045
-2.82905
-3.49902
-4.28664
-5.21048
-6.29165
-7.55422
-9.02566
-10.7374
-12.7253
-15.0307
-17.7013
-20.7922
-24.3674
-28.5008
-33.2784
-38.8043
-45.2075
-52.5789
-60.9342
-71.3178
-85.7007
-0.0460736
-0.1992
-0.369906
-0.575704
-0.821118
-1.11204
-1.45678
-1.86499
-2.34766
-2.91733
-3.58832
-4.37695
-5.3018
-6.38405
-7.64779
-9.12053
-10.8337
-12.8234
-15.1311
-17.804
-20.8981
-24.4767
-28.6142
-33.3967
-38.9283
-45.338
-52.7166
-61.0793
-71.4701
-85.8584
-0.123701
-0.278895
-0.450757
-0.658042
-0.904991
-1.19735
-1.54342
-1.95289
-2.43674
-3.00752
-3.67958
-4.46927
-5.39519
-6.47856
-7.74352
-9.21764
-10.9324
-12.9239
-15.2336
-17.9094
-21.0064
-24.5886
-28.7304
-33.5179
-39.0554
-45.4719
-52.8578
-61.2283
-71.6264
-86.02
-0.202768
-0.36004
-0.533086
-0.741915
-0.990455
-1.28429
-1.63175
-2.04253
-2.5276
-3.09955
-3.77273
-4.56351
-5.49055
-6.57509
-7.84134
-9.31689
-11.0333
-13.0268
-15.3386
-18.0171
-21.1171
-24.703
-28.8493
-33.6421
-39.1857
-45.609
-53.0025
-61.3809
-71.7864
-86.1855
-0.28327
-0.442619
-0.616864
-0.827285
-1.07746
-1.37283
-1.72171
-2.13383
-2.62017
-3.19332
-3.86765
-4.65956
-5.58775
-6.67348
-7.94101
-9.41802
-11.1361
-13.1315
-15.4456
-18.1268
-21.2301
-24.8199
-28.9708
-33.7689
-39.3187
-45.7492
-53.1505
-61.5369
-71.95
-86.3546
-0.365225
-0.526628
-0.702076
-0.914121
-1.16597
-1.46289
-1.81323
-2.22672
-2.71436
-3.28873
-3.96424
-4.75732
-5.68667
-6.77363
-8.04246
-9.52088
-11.2407
-13.2379
-15.5546
-18.2386
-21.3452
-24.939
-29.0946
-33.8983
-39.4545
-45.8923
-53.3016
-61.6963
-72.1171
-86.5273
-0.44867
-0.612079
-0.788709
-1.00239
-1.25593
-1.55441
-1.90622
-2.3211
-2.81006
-3.38569
-4.06241
-4.85668
-5.78725
-6.87547
-8.1457
-9.62563
-11.3472