/*--------------------------------*- C++ -*----------------------------------*\
  =========                 |
  \\      /  F ield         | OpenFOAM: The Open Source CFD Toolbox
   \\    /   O peration     | Website:  https://openfoam.org
    \\  /    A nd           | Version:  6.0
     \\/     M anipulation  |
\*---------------------------------------------------------------------------*/
FoamFile
{
    version     2.0;
    format      ascii;
    class       surfaceScalarField;
    location    "1.5";
    object      phi;
}
// * * * * * * * * * * * * * * * * * * * * * * * * * * * * * * * * * * * * * //

dimensions      [0 3 -1 0 0 0 0];

internalField   nonuniform List<scalar> 
38030
(
-4.84347e-05
-0.32311
0.323158
-4.67654e-05
-0.305946
0.305945
-1.73945e-05
-0.289706
0.289677
2.5262e-05
-0.27424
0.274197
7.57711e-05
-0.259531
0.25948
0.000129634
-0.245491
0.245437
0.000183341
-0.23206
0.232007
0.000234679
-0.219208
0.219157
0.000282406
-0.206915
0.206867
0.000325929
-0.195168
0.195124
0.000365084
-0.183958
0.183919
0.000399987
-0.173278
0.173243
0.000430942
-0.16312
0.163089
0.000458392
-0.153474
0.153446
0.000482878
-0.144331
0.144307
0.000505052
-0.13568
0.135658
0.00052566
-0.127508
0.127488
0.000545541
-0.119802
0.119782
0.000565625
-0.112546
0.112526
0.000586896
-0.105723
0.105702
0.000610348
-0.099316
0.0992925
0.000636914
-0.0933054
0.0932789
0.000667433
-0.0876727
0.0876422
0.000702501
-0.0823992
0.0823641
0.000742673
-0.0774662
0.0774261
0.00078833
-0.0728546
0.0728089
0.000839729
-0.0685444
0.068493
0.000896752
-0.0645166
0.0644595
0.000958959
-0.0607533
0.0606911
-0.0572381
0.0571715
0.0010256
-2.93188e-05
-0.323081
-2.64599e-05
-0.305949
2.09088e-06
-0.289735
4.45025e-05
-0.274282
9.46531e-05
-0.259581
0.000148225
-0.245544
0.00020184
-0.232114
0.000253238
-0.219259
0.000301129
-0.206963
0.000344905
-0.195211
0.000384395
-0.183998
0.000419715
-0.173313
0.000451164
-0.163151
0.000479172
-0.153502
0.000504276
-0.144356
0.000527112
-0.135703
0.000548417
-0.12753
0.000569029
-0.119823
0.000589877
-0.112567
0.000611968
-0.105745
0.000636337
-0.0993404
0.000663978
-0.0933331
0.000695748
-0.0877045
0.000732253
-0.0824357
0.000773985
-0.077508
0.000821455
-0.0729021
0.000875009
-0.068598
0.000934634
-0.0645762
0.000999953
-0.0608186
-0.0573084
0.00107024
-1.13436e-05
-0.323069
-6.95095e-06
-0.305954
1.98161e-05
-0.289762
6.17847e-05
-0.274324
0.00011205
-0.259631
0.000165784
-0.245598
0.000219578
-0.232168
0.000271188
-0.219311
0.00031933
-0.207011
0.000363405
-0.195256
0.000403257
-0.184037
0.000439005
-0.173349
0.000470952
-0.163183
0.000499525
-0.15353
0.000525255
-0.144382
0.000548769
-0.135726
0.000570791
-0.127552
0.000592153
-0.119844
0.000613788
-0.112589
0.000636718
-0.105768
0.000662017
-0.0993657
0.000690748
-0.0933618
0.000723827
-0.0877375
0.000761823
-0.0824737
0.000805337
-0.0775515
0.000854657
-0.0729514
0.000910463
-0.0686538
0.000972803
-0.0646385
0.00104135
-0.0608872
-0.0573825
0.00111546
-5.62637e-06
-0.323064
4.31964e-06
-0.305964
3.32849e-05
-0.289791
7.64373e-05
-0.274367
0.000127605
-0.259683
0.000181997
-0.245653
0.00023627
-0.232222
0.00028827
-0.219363
0.000336777
-0.207059
0.000381226
-0.1953
0.000421488
-0.184078
0.000457702
-0.173385
0.000490178
-0.163215
0.000519346
-0.15356
0.000545729
-0.144408
0.000569945
-0.135751
0.000592714
-0.127575
0.000614857
-0.119866
0.00063731
-0.112611
0.000661099
-0.105792
0.000687331
-0.0993919
0.000717143
-0.0933916
0.000751538
-0.0877719
0.000791169
-0.0825133
0.000836448
-0.0775968
0.00088795
-0.0730029
0.000946035
-0.0687118
0.00101118
-0.0647037
0.00108308
-0.0609591
-0.0574606
0.00116113
-9.71802e-07
-0.323063
1.32321e-05
-0.305978
4.46572e-05
-0.289822
8.93517e-05
-0.274412
0.0001417
-0.259735
0.000196995
-0.245708
0.000251939
-0.232277
0.000304464
-0.219416
0.000353417
-0.207108
0.000398294
-0.195345
0.000439003
-0.184118
0.00047571
-0.173422
0.000508734
-0.163248
0.000538511
-0.153589
0.000565567
-0.144435
0.000590509
-0.135776
0.000614051
-0.127598
0.000637011
-0.119889
0.000660319
-0.112634
0.00068501
-0.105817
0.000712214
-0.0994191
0.000743136
-0.0934225
0.000778779
-0.0878076
0.000819969
-0.0825545
0.000867089
-0.0776439
0.000920834
-0.0730566
0.000981486
-0.0687725
0.00104952
-0.0647717
0.00112487
-0.0610344
-0.0575427
0.00120699
1.60032e-06
-0.323064
1.93742e-05
-0.305995
5.37066e-05
-0.289856
0.00010048
-0.274459
0.000154358
-0.259789
0.000210783
-0.245764
0.000266557
-0.232333
0.000319711
-0.219469
0.000369185
-0.207158
0.000414538
-0.19539
0.000455725
-0.18416
0.000492941
-0.173459
0.000526529
-0.163282
0.000556931
-0.15362
0.000584668
-0.144463
0.000610351
-0.135801
0.000634685
-0.127622
0.000658483
-0.119913
0.000682677
-0.112658
0.000708313
-0.105842
0.000736535
-0.0994473
0.000768557
-0.0934546
0.000805415
-0.0878444
0.00084806
-0.0825971
0.000897135
-0.077693
0.000953009
-0.0731125
0.00101639
-0.0688359
0.00108748
-0.0648428
0.0011664
-0.0611133
-0.057629
0.00125271
3.68318e-06
-0.323068
2.43666e-05
-0.306016
6.13878e-05
-0.289893
0.000110316
-0.274508
0.000165839
-0.259844
0.000223491
-0.245822
0.000280177
-0.23239
0.00033402
-0.219523
0.000384053
-0.207208
0.000429906
-0.195436
0.000471583
-0.184201
0.000509316
-0.173497
0.000543471
-0.163316
0.000574497
-0.153651
0.000602919
-0.144491
0.000629342
-0.135828
0.000654467
-0.127648
0.000679102
-0.119938
0.000704177
-0.112684
0.000730744
-0.105869
0.00075996
-0.0994765
0.000793046
-0.0934877
0.000831182
-0.0878826
0.000875408
-0.0826414
0.000926356
-0.0777439
0.000984629
-0.0731708
0.00105054
-0.0689018
0.00112475
-0.064917
0.00120732
-0.0611959
-0.0577196
0.00129792
5.22489e-06
-0.323073
2.83788e-05
-0.306039
6.79286e-05
-0.289933
0.000119034
-0.274559
0.000176268
-0.259902
0.000235204
-0.245881
0.000292838
-0.232447
0.000347397
-0.219577
0.000398002
-0.207258
0.000444356
-0.195482
0.000486521
-0.184243
0.000524765
-0.173535
0.000559473
-0.163351
0.000591109
-0.153682
0.000620204
-0.144521
0.000647359
-0.135855
0.000673265
-0.127673
0.000698724
-0.119963
0.000724661
-0.112709
0.000752127
-0.105896
0.000782292
-0.0995067
0.000816422
-0.0935218
0.000855816
-0.087922
0.000901626
-0.0826872
0.000954611
-0.0777969
0.00101518
-0.0732314
0.00108388
-0.0689705
0.00116109
-0.0649942
0.00124731
-0.0612821
-0.0578146
0.00134225
6.5129e-06
-0.32308
3.18137e-05
-0.306065
7.37012e-05
-0.289975
0.000126906
-0.274612
0.000185821
-0.25996
0.00024603
-0.245941
0.000304603
-0.232506
0.000359865
-0.219632
0.000411026
-0.207309
0.000457862
-0.195529
0.00050049
-0.184286
0.000539216
-0.173574
0.00057445
-0.163386
0.000606671
-0.153715
0.000636411
-0.14455
0.00066427
-0.135883
0.000690936
-0.1277
0.000717201
-0.119989
0.000743986
-0.112736
0.000772341
-0.105925
0.000803445
-0.0995378
0.000838593
-0.0935569
0.000879184
-0.0879626
0.000926424
-0.0827344
0.000981296
-0.0778518
0.00104416
-0.0732942
0.00111573
-0.0690421
0.0011961
-0.0650746
0.00128598
-0.061372
-0.0579139
0.00138528
7.57518e-06
-0.323087
3.47953e-05
-0.306092
7.88634e-05
-0.290019
0.000134077
-0.274667
0.00019462
-0.260021
0.000256055
-0.246003
0.000315524
-0.232565
0.000371449
-0.219688
0.000423123
-0.207361
0.000470399
-0.195577
0.000513446
-0.184329
0.000552608
-0.173613
0.000588324
-0.163422
0.000621082
-0.153747
0.000651422
-0.144581
0.000679944
-0.135911
0.000707326
-0.127727
0.000734361
-0.120016
0.00076196
-0.112764
0.000791179
-0.105954
0.000823205
-0.0995698
0.000859344
-0.0935931
0.000901018
-0.0880042
0.000949517
-0.0827829
0.00100602
-0.0779083
0.00107125
-0.0733594
0.00114544
-0.0691162
0.00122926
-0.0651584
0.00132281
-0.0614656
-0.0580176
0.0014265
8.48014e-06
-0.323096
3.74499e-05
-0.306121
8.35697e-05
-0.290065
0.00014069
-0.274724
0.000202776
-0.260083
0.00026536
-0.246065
0.000325657
-0.232626
0.000382174
-0.219745
0.000434299
-0.207413
0.00048195
-0.195624
0.00052535
-0.184373
0.000564885
-0.173653
0.000601013
-0.163458
0.000634243
-0.153781
0.00066512
-0.144611
0.000694238
-0.13594
0.000722276
-0.127756
0.000750013
-0.120044
0.000778365
-0.112792
0.000808383
-0.105984
0.000841261
-0.0996027
0.000878317
-0.0936301
0.000920968
-0.0880469
0.000970672
-0.0828326
0.00102868
-0.0779663
0.00109595
-0.0734267
0.00117283
-0.0691931
0.00125994
-0.0652455
0.00135729
-0.0615629
-0.0581256
0.00146532
9.25311e-06
-0.323105
3.98391e-05
-0.306151
8.79127e-05
-0.290113
0.000146845
-0.274783
0.00021038
-0.260147
0.000274018
-0.246129
0.000335047
-0.232687
0.000392071
-0.219802
0.000444559
-0.207466
0.000492501
-0.195672
0.000536169
-0.184416
0.000575989
-0.173693
0.000612445
-0.163494
0.000646061
-0.153814
0.000677385
-0.144643
0.000707015
-0.13597
0.000735618
-0.127784
0.000763972
-0.120073
0.000792984
-0.112821
0.000823706
-0.106015
0.000857341
-0.0996363
0.000895222
-0.093668
0.000938792
-0.0880905
0.000989561
-0.0828834
0.00104887
-0.0780256
0.00111793
-0.0734958
0.0011974
-0.0692726
0.00128752
-0.0653356
0.0013888
-0.0616642
-0.0582379
0.00150113
9.90807e-06
-0.323115
4.20239e-05
-0.306184
9.19729e-05
-0.290163
0.000152632
-0.274844
0.000217505
-0.260212
0.000282089
-0.246193
0.000343742
-0.232748
0.000401167
-0.219859
0.000453916
-0.207518
0.000502043
-0.19572
0.000545876
-0.18446
0.000585873
-0.173733
0.00062255
-0.163531
0.000656441
-0.153848
0.000688104
-0.144674
0.000718131
-0.136
0.000747189
-0.127813
0.000776045
-0.120101
0.000805599
-0.112851
0.000836905
-0.106046
0.000871173
-0.0996706
0.000909757
-0.0937066
0.000954116
-0.0881348
0.00100578
-0.082935
0.00106627
-0.0780861
0.00113688
-0.0735664
0.00121856
-0.0693543
0.00131163
-0.0654287
0.00141658
-0.0617691
-0.0583546
0.00153328
1.04568e-05
-0.323125
4.40374e-05
-0.306217
9.58204e-05
-0.290215
0.000158124
-0.274906
0.000224229
-0.260278
0.000289636
-0.246259
0.000351792
-0.23281
0.000409496
-0.219917
0.000462381
-0.207571
0.000510572
-0.195768
0.000554445
-0.184504
0.000594495
-0.173773
0.000631262
-0.163568
0.000665298
-0.153882
0.000697163
-0.144706
0.000727453
-0.13603
0.000756824
-0.127843
0.000786037
-0.120131
0.000815984
-0.112881
0.000847718
-0.106078
0.00088246
-0.0997054
0.000921581
-0.0937457
0.000966574
-0.0881798
0.00101901
-0.0829875
0.00108048
-0.0781476
0.00115237
-0.0736383
0.0012359
-0.0694378
0.00133171
-0.0655245
0.00143993
-0.0618774
-0.0584758
0.00156111
1.09021e-05
-0.323136
4.59258e-05
-0.306252
9.95207e-05
-0.290268
0.000163394
-0.27497
0.000230622
-0.260345
0.000296723
-0.246325
0.000359247
-0.232873
0.000417095
-0.219975
0.000469981
-0.207624
0.000518096
-0.195817
0.000561866
-0.184548
0.000601822
-0.173813
0.000638527
-0.163605
0.00067255
-0.153916
0.000704459
-0.144738
0.000734846
-0.136061
0.000764363
-0.127872
0.000793757
-0.12016
0.000823913
-0.112911
0.000855886
-0.10611
0.000890905
-0.0997404
0.000930367
-0.0937852
0.0009758
-0.0882252
0.00102881
-0.0830405
0.00109102
-0.0782098
0.00116403
-0.0737113
0.00124911
-0.0695229
0.00134722
-0.0656226
0.00145874
-0.0619889
-0.058601
0.00158395
1.1252e-05
-0.323147
4.77355e-05
-0.306289
0.000103146
-0.290324
0.000168525
-0.275035
0.000236757
-0.260413
0.000303418
-0.246391
0.000366169
-0.232936
0.00042401
-0.220033
0.000476747
-0.207677
0.00052463
-0.195864
0.000568134
-0.184591
0.000607827
-0.173852
0.000644301
-0.163641
0.000678133
-0.15395
0.000709899
-0.14477
0.000740191
-0.136091
0.00076965
-0.127902
0.000799015
-0.120189
0.00082916
-0.112941
0.000861137
-0.106142
0.000896188
-0.0997754
0.000935738
-0.0938247
0.000981363
-0.0882709
0.00103473
-0.0830938
0.00109753
-0.0782726
0.00117143
-0.0737852
0.00125784
-0.0696093
0.00135789
-0.0657227
0.00147229
-0.0621033
-0.0587297
0.00160096
1.15136e-05
-0.323159
4.95198e-05
-0.306327
0.000106782
-0.290381
0.000173604
-0.275102
0.000242722
-0.260482
0.000309799
-0.246459
0.000372621
-0.232998
0.0004303
-0.22009
0.000482723
-0.207729
0.000530202
-0.195912
0.000573263
-0.184634
0.00061251
-0.173891
0.000648556
-0.163677
0.000681994
-0.153983
0.000713405
-0.144801
0.000743377
-0.136121
0.000772545
-0.127931
0.000801632
-0.120218
0.000831502
-0.112971
0.0008632
-0.106173
0.000897978
-0.0998102
0.000937296
-0.093864
0.000982785
-0.0883164
0.00103619
-0.0831473
0.00109929
-0.0783357
0.00117379
-0.0738597
0.00126125
-0.0696968
0.00136288
-0.0658243
0.00147945
-0.0622199
-0.0588616
0.00161134
1.17071e-05
-0.323171
5.13529e-05
-0.306366
0.000110529
-0.29044
0.000178743
-0.27517
0.000248622
-0.260552
0.000315964
-0.246526
0.000378694
-0.233061
0.000436036
-0.220148
0.000487963
-0.207781
0.000534853
-0.195959
0.000577278
-0.184677
0.000615876
-0.17393
0.000651281
-0.163713
0.0006841
-0.154016
0.000714919
-0.144832
0.000744322
-0.13615
0.00077293
-0.127959
0.000801452
-0.120247
0.000830736
-0.113
0.000861815
-0.106205
0.000895948
-0.0998443
0.00093462
-0.0939027
0.000979524
-0.0883613
0.00103249
-0.0832002
0.0010954
-0.0783986
0.00117006
-0.0739343
0.00125811
-0.0697848
0.00136089
-0.0659271
0.00147937
-0.0623383
-0.0589962
0.00161406
1.18729e-05
-0.323183
5.33469e-05
-0.306408
0.000114527
-0.290501
0.000184068
-0.27524
0.000254575
-0.260623
0.000322018
-0.246593
0.000384482
-0.233124
0.000441307
-0.220205
0.000492547
-0.207833
0.000538646
-0.196005
0.000580226
-0.184718
0.000617956
-0.173968
0.000652491
-0.163747
0.000684449
-0.154048
0.000714415
-0.144862
0.000742967
-0.136179
0.000770716
-0.127987
0.000798349
-0.120275
0.000826693
-0.113029
0.000856765
-0.106235
0.000889819
-0.0998774
0.000927367
-0.0939403
0.000971155
-0.088405
0.0010231
-0.0832522
0.00108521
-0.0784607
0.00115941
-0.0740085
0.0012475
-0.0698729
0.00135097
-0.0660306
0.00147094
-0.0624583
-0.0591333
0.00160803
1.20699e-05
-0.323195
5.56451e-05
-0.306451
0.00011894
-0.290565
0.000189742
-0.275311
0.000260727
-0.260694
0.000328097
-0.246661
0.000390109
-0.233186
0.000446215
-0.220261
0.000496562
-0.207883
0.000541658
-0.19605
0.000582172
-0.184759
0.000618804
-0.174004
0.000652226
-0.16378
0.000683063
-0.154079
0.000711896
-0.144891
0.000739298
-0.136206
0.000765859
-0.128014
0.000792245
-0.120301
0.000819252
-0.113056
0.000847874
-0.106263
0.000879356
-0.0999089
0.000915226
-0.0939761
0.000957289
-0.0884471
0.00100756
-0.0833024
0.00106817
-0.0785213
0.00114122
-0.0740816
0.00122866
-0.0699603
0.00133215
-0.0661341
0.00145299
-0.0625791
-0.0592723
0.00159195
1.2411e-05
-0.323207
5.84543e-05
-0.306497
0.000123979
-0.29063
0.000195959
-0.275383
0.000267256
-0.260765
0.000334361
-0.246728
0.000395713
-0.233247
0.000450888
-0.220316
0.00050012
-0.207932
0.000543988
-0.196094
0.000583206
-0.184798
0.0006185
-0.17404
0.000650558
-0.163813
0.000680002
-0.154108
0.000707412
-0.144918
0.000733344
-0.136232
0.000758368
-0.128039
0.000783116
-0.120326
0.000808352
-0.113081
0.000835034
-0.10629
0.000864385
-0.0999382
0.000897944
-0.0940097
0.000937569
-0.0884867
0.000985383
-0.0833503
0.00104367
-0.0785796
0.00111471
-0.0741526
0.00120064
-0.0700463
0.00130334
-0.0662367
0.00142427
-0.0627001
-0.0594125
0.00156442
1.30825e-05
-0.32322
6.20547e-05
-0.306546
0.000129927
-0.290698
0.000202968
-0.275456
0.000274379
-0.260836
0.000340996
-0.246794
0.000401455
-0.233307
0.000455458
-0.22037
0.000503341
-0.20798
0.000545746
-0.196136
0.00058343
-0.184836
0.000617146
-0.174073
0.000647585
-0.163843
0.000675366
-0.154136
0.000701058
-0.144944
0.000725194
-0.136256
0.000748315
-0.128062
0.000771019
-0.120348
0.000794019
-0.113104
0.000818224
-0.106314
0.000844824
-0.0999648
0.00087535
-0.0940402
0.000911709
-0.0885231
0.00095614
-0.0833947
0.0010111
-0.0786345
0.00107908
-0.0742206
0.00116246
-0.0701296
0.00126333
-0.0663376
0.00138335
-0.0628201
-0.0595528
0.00152374
1.44104e-05
-0.323235
6.68902e-05
-0.306599
0.000137176
-0.290768
0.000211097
-0.27553
0.000282362
-0.260908
0.000348212
-0.24686
0.000407505
-0.233367
0.00046008
-0.220422
0.000506358
-0.208026
0.000547057
-0.196177
0.00058297
-0.184872
0.000614867
-0.174105
0.00064344
-0.163872
0.000669299
-0.154162
0.000692985
-0.144968
0.000715006
-0.136278
0.000735862
-0.128083
0.000756104
-0.120369
0.000776386
-0.113124
0.000797548
-0.106335
0.000820718
-0.099988
0.000847403
-0.0940669
0.000879539
-0.0885552
0.000919483
-0.0834346
0.000969896
-0.0786849
0.00103354
-0.0742842
0.00111304
-0.0702092
0.00121075
-0.0664353
0.00132856
-0.0629379
-0.0596922
0.00146792
1.69293e-05
-0.323251
7.36339e-05
-0.306656
0.000146249
-0.290841
0.000220728
-0.275604
0.00029149
-0.260978
0.000356231
-0.246925
0.00041404
-0.233425
0.000464892
-0.220473
0.000509302
-0.208071
0.000548046
-0.196216
0.000581956
-0.184906
0.00061181
-0.174135
0.000638291
-0.163898
0.000661984
-0.154186
0.000683403
-0.144989
0.00070301
-0.136298
0.000721262
-0.128101
0.000738643
-0.120386
0.000755729
-0.113141
0.00077327
-0.106353
0.000792298
-0.100007
0.000814253
-0.0940889
0.000841073
-0.0885821
0.00087522
-0.0834688
0.00091958
-0.0787293
0.000977238
-0.0743419
0.00105117
-0.0702831
0.001144
-0.0665281
0.00125788
-0.0630518
-0.0598288
0.0013945
2.14945e-05
-0.323273
8.31592e-05
-0.306717
0.000157692
-0.290916
0.000232212
-0.275679
0.000302024
-0.261048
0.00036526
-0.246988
0.000421233
-0.233481
0.000470044
-0.220522
0.000512305
-0.208113
0.000548849
-0.196252
0.000580533
-0.184937
0.000608137
-0.174163
0.000632325
-0.163922
0.000653651
-0.154207
0.000672581
-0.145008
0.000689527
-0.136315
0.00070488
-0.128116
0.000719046
-0.1204
0.000732501
-0.113155
0.000745871
-0.106366
0.000760049
-0.100021
0.000776348
-0.0941052
0.000796642
-0.0886023
0.000823458
-0.0834956
0.000859918
-0.0787658
0.000909502
-0.0743915
0.000975647
-0.0703492
0.00106133
-0.0666138
0.00116894
-0.0631594
-0.0599603
0.00130046
2.91736e-05
-0.323302
9.62462e-05
-0.306784
0.000171906
-0.290991
0.000245852
-0.275753
0.000314257
-0.261117
0.000375549
-0.24705
0.000429274
-0.233534
0.000475689
-0.220568
0.000515499
-0.208153
0.000549591
-0.196286
0.000578844
-0.184966
0.000604024
-0.174188
0.000625762
-0.163944
0.000644569
-0.154226
0.000660852
-0.145024
0.00067496
-0.136329
0.000687204
-0.128128
0.00069789
-0.120411
0.000707372
-0.113164
0.000716113
-0.106375
0.00072481
-0.10003
0.000734562
-0.0941149
0.000747077
-0.0886149
0.000764846
-0.0835134
0.000791188
-0.0787921
0.000830045
-0.0744303
0.000885475
-0.0704047
0.000961012
-0.0666894
0.0010594
-0.0632578
-0.0600841
0.00118321
4.09892e-05
-0.323343
0.000113582
-0.306857
0.000189579
-0.291067
0.000262291
-0.275825
0.000328656
-0.261183
0.000387383
-0.247108
0.000438309
-0.233585
0.000481894
-0.220612
0.000518931
-0.20819
0.00055034
-0.196318
0.000576986
-0.184993
0.000599613
-0.174211
0.000618808
-0.163963
0.000635018
-0.154242
0.000648589
-0.145038
0.000659787
-0.13634
0.00066883
-0.128138
0.000675916
-0.120418
0.000681244
-0.113169
0.000685079
-0.106379
0.000687855
-0.100033
0.000690349
-0.0941174
0.000693944
-0.0886185
0.000700913
-0.0835203
0.000714627
-0.0788058
0.000739494
-0.0744552
0.000780413
-0.0704456
0.000841824
-0.0667508
0.000927341
-0.0633433
-0.0601971
0.00104029
5.87116e-05
-0.323402
0.000137949
-0.306936
0.000213236
-0.291142
0.000282983
-0.275895
0.000345814
-0.261246
0.000400882
-0.247163
0.000448268
-0.233633
0.000488534
-0.220652
0.000522486
-0.208224
0.000551012
-0.196346
0.000574939
-0.185017
0.000594956
-0.174231
0.000611593
-0.16398
0.000625229
-0.154256
0.000636134
-0.145049
0.00064449
-0.136349
0.000650413
-0.128143
0.000653975
-0.120422
0.00065521
-0.113171
0.000654151
-0.106378
0.000650899
-0.100029
0.000645789
-0.0941123
0.000639666
-0.0886123
0.000634278
-0.0835149
0.000632717
-0.0788043
0.000639676
-0.0744622
0.000661013
-0.0704669
0.000702282
-0.066792
0.000768052
-0.0634091
-0.0602902
0.000861176
9.08733e-05
-0.323493
0.00017803
-0.307023
0.000247162
-0.291212
0.000309106
-0.275957
0.000365608
-0.261302
0.000415611
-0.247213
0.000458722
-0.233676
0.000495262
-0.220689
0.000525901
-0.208254
0.000551428
-0.196372
0.000572594
-0.185038
0.000590019
-0.174248
0.000604165
-0.163994
0.000615347
-0.154267
0.000623757
-0.145057
0.000629494
-0.136354
0.000632578
-0.128147
0.000632956
-0.120422
0.000630492
-0.113168
0.000624971
-0.106372
0.000616114
-0.100021
0.000603683
-0.0940999
0.00058771
-0.0885964
0.000568928
-0.0834962
0.000549439
-0.0787848
0.000533437
-0.0744462
0.000527135
-0.0704606
0.000536798
-0.0668017
0.000568019
-0.0634403
-0.0603441
0.00062193
0.000164661
-0.323657
0.000240587
-0.307099
0.000289751
-0.291261
0.000338362
-0.276006
0.000386472
-0.26135
0.000430653
-0.247258
0.00046919
-0.233714
0.000501858
-0.220722
0.000529102
-0.208282
0.000551601
-0.196394
0.000570026
-0.185057
0.000584927
-0.174263
0.000596707
-0.164006
0.000605622
-0.154276
0.000611799
-0.145064
0.000615272
-0.136358
0.000615988
-0.128147
0.000613799
-0.12042
0.000608439
-0.113163
0.000599483
-0.106363
0.000586302
-0.100007
0.000568053
-0.0940816
0.000543755
-0.0885721
0.000512575
-0.083465
0.000474438
-0.0787466
0.000430997
-0.0744027
0.000386197
-0.0704158
0.000343911
-0.0667594
0.000305274
-0.0634017
-0.0603604
0.000321506
0.324105
0.000103012
-0.324208
0.324045
6.01029e-05
0.324003
4.15834e-05
0.323971
3.1883e-05
0.323945
2.59596e-05
0.323923
2.22873e-05
0.323903
2.03385e-05
0.323883
1.97018e-05
0.323863
1.9576e-05
0.323844
1.92785e-05
0.323825
1.94946e-05
0.323804
2.02611e-05
0.323784
2.07557e-05
0.323763
2.1068e-05
0.323741
2.12434e-05
0.32372
2.12886e-05
0.323699
2.12029e-05
0.323678
2.09769e-05
0.323657
2.05908e-05
0.323637
2.00336e-05
0.323618
1.92666e-05
0.3236
1.82492e-05
0.323583
1.6861e-05
0.323568
1.50434e-05
0.323555
1.23166e-05
0.323547
8.76215e-06
0.323545
1.6955e-06
0.323552
-7.17773e-06
0.323589
-3.67968e-05
-6.83635e-05
0.308203
0.000139666
-0.30824
0.308157
0.000106131
0.308113
8.55309e-05
0.30807
7.43762e-05
0.308029
6.76213e-05
0.307988
6.31176e-05
0.307948
6.05257e-05
0.307908
5.93193e-05
0.307869
5.90529e-05
0.307829
5.90919e-05
0.307789
5.96697e-05
0.307748
6.0967e-05
0.307707
6.20298e-05
0.307665
6.28993e-05
0.307623
6.35683e-05
0.30758
6.40129e-05
0.307537
6.41964e-05
0.307494
6.40786e-05
0.307451
6.36031e-05
0.307408
6.27274e-05
0.307366
6.13621e-05
0.307325
5.94068e-05
0.307285
5.66415e-05
0.307247
5.28762e-05
0.307212
4.74155e-05
0.307181
3.99783e-05
0.307155
2.78328e-05
0.307136
1.16429e-05
0.307118
-1.84947e-05
-4.99368e-05
0.292522
0.000141127
-0.292524
0.292505
0.000123229
0.292481
0.000109973
0.292452
0.000102696
0.292421
9.90515e-05
0.292387
9.72105e-05
0.29235
9.69057e-05
0.292313
9.69641e-05
0.292274
9.79086e-05
0.292233
0.000100184
0.29219
0.000102436
0.292146
0.000104899
0.292101
0.000107246
0.292054
0.000109377
0.292007
0.00011123
0.291958
0.000112743
0.291908
0.000113844
0.291858
0.000114475
0.291807
0.000114556
0.291756
0.000114009
0.291704
0.000112716
0.291653
0.00011053
0.291603
0.000107205
0.291553
0.000102485
0.291505
9.57431e-05
0.291458
8.66101e-05
0.291412
7.34598e-05
0.291367
5.66562e-05
0.291316
3.26611e-05
5.63149e-06
0.277139
0.000124741
-0.277123
0.277144
0.000118907
0.277139
0.000114369
0.277129
0.000112762
0.277115
0.000113604
0.277096
0.000115781
0.277073
0.000119411
0.277048
0.000122846
0.27702
0.000125933
0.276988
0.000131324
0.276954
0.000137071
0.276917
0.000141621
0.276878
0.000146167
0.276837
0.0001504
0.276794
0.000154256
0.276749
0.00015761
0.276703
0.000160388
0.276655
0.000162503
0.276605
0.000163875
0.276555
0.000164407
0.276504
0.000163971
0.276452
0.000162419
0.2764
0.000159523
0.276347
0.000155045
0.276294
0.000148535
0.276241
0.000139707
0.276187
0.000127727
0.276131
0.00011268
0.27607
9.31756e-05
7.01632e-05
0.262242
9.49827e-05
-0.262213
0.262263
9.82754e-05
0.262276
0.000101616
0.262282
0.000106094
0.262284
0.000112058
0.262281
0.000119006
0.262274
0.000126526
0.262262
0.000134038
0.262246
0.000142065
0.262227
0.000150662
0.262205
0.000159201
0.262179
0.000167113
0.262151
0.000174641
0.26212
0.000181691
0.262086
0.000188177
0.262049
0.000193992
0.262011
0.000199044
0.26197
0.000203249
0.261927
0.000206526
0.261883
0.000208775
0.261837
0.000209878
0.26179
0.000209701
0.261741
0.000208066
0.261691
0.000204781
0.26164
0.000199557
0.261588
0.000192183
0.261533
0.000182232
0.261476
0.000169654
0.261416
0.000153956
0.000135441
0.247889
5.46237e-05
-0.247849
0.247922
6.53258e-05
0.247948
7.56301e-05
0.247968
8.61433e-05
0.247983
9.74594e-05
0.247993
0.000109278
0.247998
0.000121178
0.247999
0.000133493
0.247995
0.000145927
0.247987
0.000158084
0.247976
0.000170218
0.247962
0.000181703
0.247944
0.000192572
0.247923
0.000202796
0.247899
0.000212277
0.247872
0.000220913
0.247842
0.000228615
0.24781
0.0002353
0.247776
0.00024089
0.247739
0.00024529
0.247701
0.000248401
0.24766
0.000250114
0.247618
0.000250299
0.247574
0.000248818
0.247528
0.000245495
0.24748
0.000240196
0.24743
0.000232705
0.247376
0.000223016
0.247319
0.000211033
0.000196954
0.234114
6.72989e-06
-0.234066
0.234156
2.38543e-05
0.234191
4.04269e-05
0.23422
5.6693e-05
0.234244
7.33207e-05
0.234264
9.00718e-05
0.234278
0.00010637
0.234289
0.000123189
0.234294
0.000140199
0.234296
0.000156366
0.234294
0.000172168
0.234289
0.000187241
0.23428
0.000201578
0.234267
0.000215111
0.234252
0.000227738
0.234233
0.000239356
0.234212
0.000249886
0.234188
0.000259244
0.234162
0.000267357
0.234133
0.000274141
0.234102
0.000279517
0.234069
0.000283404
0.234033
0.000285717
0.233996
0.000286368
0.233956
0.000285262
0.233914
0.000282338
0.233869
0.000277516
0.233821
0.000270852
0.23377
0.000262413
0.000252337
0.220935
-4.57837e-05
-0.220883
0.220982
-2.28938e-05
0.221023
-6.2376e-07
0.221059
2.10141e-05
0.221089
4.27492e-05
0.221115
6.44709e-05
0.221136
8.49469e-05
0.221154
0.00010588
0.221166
0.000127722
0.221174
0.00014805
0.221179
0.000167357
0.22118
0.000185974
0.221178
0.000203767
0.221173
0.000220619
0.221164
0.00023641
0.221152
0.000251043
0.221138
0.00026444
0.221121
0.000276523
0.221101
0.00028722
0.221078
0.000296467
0.221054
0.000304198
0.221027
0.000310366
0.220998
0.000314915
0.220966
0.000317815
0.220932
0.00031903
0.220896
0.000318558
0.220857
0.000316413
0.220815
0.000312693
0.22077
0.000307529
0.000301024
0.208356
-0.000100633
-0.208301
0.208405
-7.24762e-05
0.20845
-4.49886e-05
0.208489
-1.83266e-05
0.208524
8.17464e-06
0.208553
3.46208e-05
0.208579
5.97645e-05
0.2086
8.439e-05
0.208617
0.00011039
0.20863
0.000135187
0.20864
0.000157837
0.208646
0.000179944
0.208648
0.000201122
0.208648
0.000221238
0.208644
0.000240144
0.208637
0.000257747
0.208628
0.000273969
0.208616
0.00028874
0.208601
0.000301992
0.208584
0.000313671
0.208564
0.000323734
0.208542
0.000332157
0.208518
0.000338924
0.208492
0.000344039
0.208464
0.000347524
0.208433
0.00034943
0.208399
0.00034983
0.208363
0.000348853
0.208324
0.000346674
0.000343371
0.196368
-0.000156283
-0.196312
0.196418
-0.000123249
0.196464
-9.09426e-05
0.196506
-5.95239e-05
0.196542
-2.84082e-05
0.196575
2.0936e-06
0.196603
3.1552e-05
0.196626
6.12961e-05
0.196646
9.0749e-05
0.196662
0.000118606
0.196675
0.000145164
0.196684
0.000170755
0.19669
0.000195268
0.196693
0.000218556
0.196692
0.00024049
0.196689
0.000260978
0.196683
0.000279941
0.196675
0.000297311
0.196663
0.000313027
0.19665
0.000327047
0.196634
0.000339346
0.196617
0.000349923
0.196597
0.000358792
0.196575
0.000365997
0.196551
0.000371605
0.196525
0.000375715
0.196496
0.000378446
0.196465
0.000379964
0.196431
0.00038047
0.000380033
0.184957
-0.000211901
-0.184902
0.185008
-0.000174299
0.185055
-0.000137482
0.185097
-0.000101576
0.185135
-6.6196e-05
0.185169
-3.16136e-05
0.185198
2.53878e-06
0.185223
3.62512e-05
0.185244
6.89132e-05
0.185263
0.00010039
0.185277
0.000130584
0.185288
0.000159582
0.185296
0.00018733
0.185301
0.000213698
0.185303
0.000238564
0.185302
0.000261841
0.185299
0.000283443
0.185293
0.000303305
0.185284
0.000321373
0.185274
0.000337613
0.185261
0.000352014
0.185247
0.000364598
0.18523
0.000375405
0.185211
0.000384517
0.185191
0.000392044
0.185169
0.000398126
0.185144
0.000402936
0.185117
0.000406669
0.185088
0.000409563
0.000411681
0.174109
-0.000267236
-0.174053
0.17416
-0.000225306
0.174206
-0.000184204
0.174249
-0.000144027
0.174287
-0.000104538
0.174321
-6.59143e-05
0.174352
-2.76307e-05
0.174378
9.91847e-06
0.174401
4.61304e-05
0.17442
8.11122e-05
0.174436
0.000114751
0.174448
0.000147067
0.174458
0.00017797
0.174464
0.000207337
0.174468
0.000235054
0.174468
0.000261032
0.174467
0.000285182
0.174463
0.000307437
0.174456
0.000327744
0.174448
0.000346076
0.174437
0.000362436
0.174425
0.000376858
0.174411
0.000389418
0.174395
0.000400224
0.174378
0.000409431
0.174359
0.000417227
0.174338
0.000423838
0.174315
0.000429499
0.17429
0.000434487
0.000438881
0.163805
-0.000322497
-0.163749
0.163856
-0.000276407
0.163903
-0.000231187
0.163945
-0.000186882
0.163984
-0.000143418
0.164019
-0.000100944
0.16405
-5.86801e-05
0.164078
-1.7254e-05
0.164101
2.25276e-05
0.164121
6.09182e-05
0.164138
9.79147e-05
0.164152
0.000133473
0.164162
0.000167472
0.16417
0.000199785
0.164175
0.000230301
0.164177
0.00025892
0.164176
0.000285551
0.164174
0.000310118
0.164169
0.000332569
0.164162
0.000352879
0.164153
0.000371058
0.164143
0.000387156
0.164131
0.000401272
0.164118
0.000413546
0.164103
0.000424181
0.164087
0.000433415
0.164069
0.000441533
0.16405
0.000448827
0.164029
0.00045563
0.000462047
0.15403
-0.000378214
-0.153974
0.154081
-0.000328066
0.154129
-0.000278835
0.154172
-0.00023047
0.154212
-0.000183093
0.154248
-0.000136938
0.15428
-9.07412e-05
0.154308
-4.53411e-05
0.154333
-2.0294e-06
0.154354
3.97063e-05
0.154372
8.00128e-05
0.154387
0.000118784
0.154398
0.000155861
0.154407
0.000191105
0.154413
0.000224404
0.154416
0.000255642
0.154417
0.000284719
0.154415
0.000311552
0.154412
0.000336078
0.154407
0.000358275
0.154399
0.000378153
0.154391
0.000395773
0.154381
0.000411252
0.15437
0.000424769
0.154357
0.000436567
0.154344
0.000446949
0.154329
0.000456272
0.154313
0.000464897
0.154295
0.000473238
0.000481448
0.144769
-0.000435113
-0.144713
0.144822
-0.000380955
0.144871
-0.000327748
0.144916
-0.000275361
0.144957
-0.000224012
0.144994
-0.000174154
0.145028
-0.000124149
0.145057
-7.47244e-05
0.145083
-2.78683e-05
0.145105
1.71612e-05
0.145125
6.08026e-05
0.145141
0.000102816
0.145154
0.000143003
0.145163
0.000181216
0.14517
0.000217325
0.145175
0.000251203
0.145177
0.000282734
0.145177
0.000311822
0.145174
0.000338393
0.14517