/*--------------------------------*- C++ -*----------------------------------*\
| =========                 |                                                 |
| \\      /  F ield         | OpenFOAM: The Open Source CFD Toolbox           |
|  \\    /   O peration     | Version:  v1912                                 |
|   \\  /    A nd           | Website:  www.openfoam.com                      |
|    \\/     M anipulation  |                                                 |
\*---------------------------------------------------------------------------*/
FoamFile
{
    version     2.0;
    format      ascii;
    class       surfaceScalarField;
    location    "1.5";
    object      phi;
}
// * * * * * * * * * * * * * * * * * * * * * * * * * * * * * * * * * * * * * //

dimensions      [0 3 -1 0 0 0 0];
oriented        oriented;


internalField   nonuniform List<scalar> 
18940
(
-2.71904e-05
-0.238948
0.238975
1.24998e-05
-0.22099
0.220951
9.85616e-05
-0.204572
0.204486
0.000225542
-0.189507
0.18938
0.000365188
-0.175571
0.175431
0.000507529
-0.162602
0.16246
0.000644955
-0.150508
0.150371
0.000773412
-0.13924
0.139112
0.000892208
-0.128764
0.128646
0.00100308
-0.119054
0.118943
0.00110934
-0.110079
0.109973
0.00121522
-0.101808
0.101703
0.00132526
-0.094203
0.0940929
0.00144386
-0.0872213
0.0871027
0.00157492
-0.0808192
0.0806882
0.00172156
-0.0749515
0.0748049
0.00188587
-0.0695736
0.0694092
0.00206883
-0.064643
0.06446
0.00227025
-0.0601199
0.0599185
-0.0559678
0.0557491
0.00248899
-1.08296e-05
-0.238937
3.80047e-05
-0.221039
0.000138099
-0.204672
0.000270787
-0.18964
0.000419428
-0.17572
0.000570366
-0.162753
0.000715608
-0.150654
0.000851293
-0.139376
0.000976902
-0.12889
0.00109439
-0.119171
0.00120733
-0.110192
0.0013202
-0.101921
0.00143784
-0.0943206
0.00156491
-0.0873484
0.0017056
-0.0809599
0.00186324
-0.0751091
0.00204017
-0.0697505
0.00223753
-0.0648403
0.00245525
-0.0603376
-0.0562048
0.00269222
4.13353e-06
-0.238941
6.25265e-05
-0.221097
0.000172672
-0.204782
0.000314577
-0.189782
0.00047213
-0.175877
0.00063155
-0.162912
0.000784435
-0.150806
0.000927023
-0.139518
0.00105904
-0.129022
0.0011827
-0.119295
0.00130185
-0.110312
0.00142127
-0.102041
0.00154606
-0.0944454
0.00168119
-0.0874835
0.00183112
-0.0811099
0.00199946
-0.0752775
0.00218877
-0.0699398
0.00240036
-0.0650519
0.0026343
-0.0605716
-0.05646
0.00288951
1.23563e-05
-0.238953
8.19677e-05
-0.221167
0.000203074
-0.204903
0.000355781
-0.189935
0.000522835
-0.176044
0.000690633
-0.16308
0.000850842
-0.150967
0.000999904
-0.139667
0.00113783
-0.12916
0.00126713
-0.119424
0.00139195
-0.110436
0.00151736
-0.102166
0.00164875
-0.0945768
0.00179141
-0.0876262
0.00195009
-0.0812685
0.0021287
-0.0754561
0.00233003
-0.0701411
0.0025556
-0.0652775
0.00280557
-0.0608215
-0.0567333
0.00307892
1.90532e-05
-0.238972
9.93021e-05
-0.221247
0.000231447
-0.205035
0.000394881
-0.190098
0.000571358
-0.176221
0.000747197
-0.163256
0.000914251
-0.151134
0.00106923
-0.139822
0.00121245
-0.129303
0.00134675
-0.119559
0.00147659
-0.110566
0.00160731
-0.102297
0.00174464
-0.0947141
0.00189417
-0.0877757
0.00206097
-0.0814354
0.00224927
-0.0756444
0.00246213
-0.070354
0.00270129
-0.0655166
0.00296704
-0.0610873
-0.0570246
0.00325835
2.45953e-05
-0.238997
0.00011488
-0.221338
0.000257988
-0.205178
0.000431917
-0.190272
0.000617485
-0.176406
0.000800875
-0.163439
0.000974155
-0.151307
0.00113435
-0.139983
0.00128215
-0.129451
0.0014207
-0.119697
0.00155477
-0.1107
0.00169002
-0.102432
0.00183247
-0.0948566
0.00198805
-0.0879313
0.00216219
-0.0816095
0.00235943
-0.0758416
0.00258318
-0.0705777
0.0028354
-0.0657689
0.00311657
-0.0613685
-0.0573337
0.00342568
2.9577e-05
-0.239027
0.000129375
-0.221437
0.000283112
-0.205332
0.000467058
-0.190456
0.000661132
-0.1766
0.000851381
-0.16363
0.00103011
-0.151486
0.00119471
-0.140147
0.00134621
-0.129602
0.00148813
-0.119839
0.00162552
-0.110838
0.00176436
-0.102571
0.00191096
-0.0950032
0.0020716
-0.0880919
0.00225207
-0.08179
0.00245732
-0.0760469
0.00269109
-0.0708115
0.00295565
-0.0660334
0.00325169
-0.0616645
-0.0576603
0.00357826
3.41451e-05
-0.239061
0.000143028
-0.221546
0.000306967
-0.205496
0.000500337
-0.190649
0.000702183
-0.176802
0.000898459
-0.163826
0.00108174
-0.151669
0.00124978
-0.140315
0.001404
-0.129757
0.00154827
-0.119983
0.00168793
-0.110977
0.00182925
-0.102712
0.00197884
-0.0951528
0.00214333
-0.0882564
0.00232891
-0.0819755
0.00254094
-0.0762589
0.00278359
-0.0710541
0.0030595
-0.0663093
0.00336958
-0.0619746
-0.0580038
0.003713
3.83928e-05
-0.239099
0.000156014
-0.221664
0.000329689
-0.20567
0.000531799
-0.190851
0.000740562
-0.177011
0.000941903
-0.164027
0.0011287
-0.151856
0.00129911
-0.140486
0.00145495
-0.129912
0.00160041
-0.120129
0.00174114
-0.111118
0.00188367
-0.102855
0.00203491
-0.095304
0.0022018
-0.0884233
0.00239096
-0.0821647
0.00260823
-0.0764762
0.00285827
-0.0713042
0.00314415
-0.0665952
0.00346709
-0.0622975
-0.0583631
0.0038264
4.2362e-05
-0.239142
0.000168458
-0.22179
0.000351395
-0.205853
0.000561486
-0.191061
0.000776218
-0.177226
0.000981558
-0.164233
0.00117073
-0.152045
0.00134233
-0.140657
0.00149856
-0.130069
0.00164395
-0.120274
0.00178442
-0.111259
0.00192673
-0.102997
0.00207803
-0.0954553
0.00224561
-0.0885909
0.00243651
-0.0823556
0.00265709
-0.0766968
0.00291259
-0.0715597
0.00320662
-0.0668892
0.00354079
-0.0626317
-0.0587368
0.00391457
4.61079e-05
-0.239188
0.000180502
-0.221924
0.00037223
-0.206044
0.000589484
-0.191279
0.00080915
-0.177445
0.00101734
-0.164441
0.00120768
-0.152235
0.0013792
-0.140829
0.00153451
-0.130224
0.00167845
-0.120418
0.00181719
-0.111397
0.00195767
-0.103138
0.00210726
-0.0956049
0.00227354
-0.0887572
0.00246395
-0.082546
0.00268546
-0.0769183
0.00294397
-0.0718182
0.00324375
-0.067189
0.00358695
-0.0629749
-0.0591231
0.00397325
4.97127e-05
-0.239237
0.000192344
-0.222067
0.000392391
-0.206244
0.000615933
-0.191502
0.000839428
-0.177669
0.00104925
-0.164651
0.00123948
-0.152426
0.00140959
-0.140999
0.00156259
-0.130377
0.00170363
-0.120559
0.00183907
-0.111533
0.001976
-0.103274
0.00212192
-0.0957508
0.00228462
-0.0889199
0.00247196
-0.0827333
0.00269149
-0.0771378
0.00294991
-0.0720766
0.00325236
-0.0674915
0.00360167
-0.0633242
-0.0595193
0.00399785
5.33572e-05
-0.239291
0.000204295
-0.222218
0.00041218
-0.206452
0.000641058
-0.191731
0.000867207
-0.177895
0.00107739
-0.164861
0.00126617
-0.152614
0.00143352
-0.141166
0.0015828
-0.130526
0.00171943
-0.120696
0.00184996
-0.111663
0.00198153
-0.103406
0.00212169
-0.095891
0.00227833
-0.0890765
0.00245961
-0.0829146
0.00267371
-0.0773519
0.00292821
-0.0723311
0.00322934
-0.0677926
0.00358092
-0.0636758
-0.0599219
0.00398346
5.73927e-05
-0.239348
0.00021686
-0.222377
0.000432031
-0.206667
0.000665182
-0.191964
0.000892717
-0.178123
0.00110194
-0.16507
0.00128794
-0.1528
0.00145115
-0.141329
0.0015953
-0.13067
0.00172607
-0.120826
0.0018501
-0.111787
0.00197452
-0.10353
0.00210677
-0.0960232
0.00225472
-0.0892245
0.00242667
-0.0830866
0.00263131
-0.0775565
0.00287721
-0.072577
0.00317194
-0.0680873
0.00352069
-0.0640245
-0.0603259
0.00392471
6.24679e-05
-0.239411
0.00023079
-0.222546
0.000452495
-0.206889
0.000688681
-0.1922
0.000916252
-0.17835
0.00112316
-0.165277
0.00130505
-0.152982
0.0014628
-0.141487
0.0016005
-0.130808
0.00172404
-0.12095
0.0018401
-0.111903
0.0019557
-0.103646
0.00207805
-0.0961456
0.00221472
-0.0893611
0.00237392
-0.0832458
0.00256463
-0.0777473
0.00279636
-0.0728088
0.00307825
-0.0683692
0.00341737
-0.0643636
-0.0607247
0.00381619
6.95556e-05
-0.23948
0.00024695
-0.222723
0.000474109
-0.207116
0.000711928
-0.192438
0.000938132
-0.178576
0.00114137
-0.16548
0.00131785
-0.153159
0.00146891
-0.141638
0.00159897
-0.130938
0.00171409
-0.121065
0.00182097
-0.11201
0.00192641
-0.103752
0.00203723
-0.0962564
0.00216043
-0.0894843
0.00230372
-0.0833891
0.00247597
-0.0779195
0.00268731
-0.0730201
0.00294859
-0.0686305
0.00326955
-0.0646846
-0.06111
0.00365489
7.98363e-05
-0.23956
0.000266245
-0.22291
0.000497469
-0.207348
0.000735396
-0.192676
0.000958763
-0.1788
0.00115694
-0.165678
0.00132675
-0.153329
0.00146999
-0.141781
0.00159139
-0.13106
0.00169719
-0.121171
0.00179404
-0.112107
0.00188849
-0.103846
0.00198679
-0.0963547
0.00209513
-0.0895927
0.00222024
-0.0835142
0.0023702
-0.0780695
0.00255508
-0.073205
0.002787
-0.0688624
0.00307939
-0.064977
-0.0614722
0.00344149
9.53372e-05
-0.239655
0.000290828
-0.223105
0.000524074
-0.207581
0.000759953
-0.192912
0.000978595
-0.179018
0.00117014
-0.16587
0.001332
-0.15349
0.00146641
-0.141916
0.00157839
-0.131172
0.00167433
-0.121267
0.00176083
-0.112194
0.00184413
-0.103929
0.00192985
-0.0964404
0.00202309
-0.0896859
0.0021291
-0.0836202
0.0022543
-0.0781947
0.00240736
-0.073358
0.00260002
-0.0690551
0.00284845
-0.0652254
-0.0617959
0.00317215
0.000123318
-0.239779
0.000326864
-0.223309
0.000556818
-0.207811
0.00078643
-0.193142
0.000997579
-0.17923
0.0011807
-0.166053
0.0013334
-0.153643
0.00145818
-0.142041
0.00156031
-0.131274
0.0016463
-0.121353
0.00172278
-0.11227
0.00179578
-0.104002
0.0018703
-0.0965149
0.0019503
-0.0897659
0.00203907
-0.083709
0.0021402
-0.0782958
0.0022586
-0.0734764
0.00240093
-0.0691974
0.00258113
-0.0654056
-0.0620524
0.00283767
0.000184454
-0.239963
0.000380388
-0.223505
0.000596015
-0.208026
0.000813427
-0.193359
0.00101446
-0.179431
0.00118776
-0.166226
0.00133043
-0.153786
0.00144504
-0.142155
0.00153712
-0.131366
0.0016134
-0.121429
0.00168073
-0.112337
0.00174524
-0.104067
0.00181186
-0.0965815
0.00188408
-0.0898381
0.00196402
-0.0837889
0.0020529
-0.0783847
0.00215086
-0.0735744
0.00225335
-0.0692999
0.00235134
-0.0655036
-0.0621957
0.00249468
0.241506
0.00012875
-0.241635
0.241407
9.90488e-05
0.241319
8.86501e-05
0.241234
8.50707e-05
0.24115
8.40655e-05
0.241065
8.47195e-05
0.240979
8.61993e-05
0.240891
8.78952e-05
0.240801
8.93997e-05
0.240711
9.04957e-05
0.24062
9.10575e-05
0.240529
9.10165e-05
0.240439
9.03011e-05
0.24035
8.88305e-05
0.240263
8.64274e-05
0.24018
8.28322e-05
0.240103
7.69988e-05
0.240035
6.82812e-05
0.239988
4.76748e-05
2.44393e-05
0.226495
0.000214164
-0.22658
0.22639
0.000204455
0.226274
0.00020418
0.226149
0.000209835
0.226016
0.000217492
0.225874
0.000226069
0.225726
0.000234892
0.22557
0.000243384
0.225409
0.000251053
0.225242
0.000257556
0.22507
0.000262658
0.224895
0.000266182
0.224717
0.000267958
0.224538
0.000267795
0.224359
0.000265375
0.224182
0.000260292
0.224007
0.000251395
0.223837
0.000238195
0.22367
0.000215485
0.000189576
0.211178
0.000239947
-0.211204
0.211126
0.000256681
0.211052
0.000278262
0.210959
0.000302508
0.21085
0.000326991
0.210725
0.000350888
0.210586
0.000373713
0.210435
0.000395028
0.210271
0.000414412
0.210097
0.000431513
0.209914
0.000446054
0.209722
0.000457811
0.209524
0.000466564
0.209319
0.000472088
0.209111
0.000474072
0.208899
0.000472176
0.208684
0.000465646
0.208468
0.000454265
0.208248
0.000435508
0.000411631
0.195981
0.000191888
-0.195933
0.195997
0.00024085
0.195986
0.000288483
0.195953
0.000336036
0.195898
0.000382242
0.195822
0.000426378
0.195728
0.000468019
0.195616
0.000506807
0.195488
0.000542379
0.195345
0.000574398
0.195189
0.000602577
0.19502
0.000626669
0.19484
0.000646451
0.19465
0.000661711
0.194452
0.000672207
0.194247
0.000677718
0.194034
0.000677834
0.193816
0.000672477
0.193591
0.000660664
0.000643551
0.181246
8.2136e-05
-0.181136
0.181326
0.000160149
0.181379
0.000235759
0.181406
0.00030851
0.18141
0.000378437
0.181392
0.000445077
0.181352
0.000508042
0.181291
0.000566959
0.181212
0.000621463
0.181116
0.000671201
0.181002
0.000715861
0.180874
0.000755176
0.180731
0.000788918
0.180576
0.000816899
0.180409
0.000838946
0.180232
0.000854944
0.180045
0.000864735
0.179849
0.000868378
0.179644
0.000865671
0.000857279
0.167187
-7.8021e-05
-0.167027
0.167326
2.11899e-05
0.167434
0.000127499
0.167517
0.000225782
0.167575
0.000320304
0.16761
0.000410454
0.167622
0.000495925
0.167612
0.000576322
0.167582
0.000651237
0.167533
0.000720281
0.167466
0.000783099
0.167382
0.000839396
0.167282
0.00088893
0.167167
0.000931523
0.167039
0.000967057
0.166899
0.000995502
0.166746
0.00101688
0.166583
0.00103139
0.16641
0.00103923
0.00104097
0.153985
-0.000282211
-0.153781
0.154158
-0.000152292
0.154316
-2.97708e-05
0.154444
9.74095e-05
0.154548
0.000216727
0.154627
0.000330912
0.154684
0.000439459
0.154718
0.000541989
0.154731
0.000638051
0.154724
0.000727203
0.154698
0.000809051
0.154654
0.000883264
0.154594
0.000949577
0.154517
0.00100781
0.154427
0.00105788
0.154322
0.00109982
0.154205
0.00113379
0.154077
0.00116011
0.153937
0.00117925
0.00119178
0.141737
-0.000520556
-0.141499
0.141949
-0.000364584
0.142133
-0.000212988
0.142296
-6.58795e-05
0.142435
7.73992e-05
0.142549
0.000216828
0.14264
0.000348669
0.142709
0.000473629
0.142755
0.000591198
0.142782
0.000700836
0.142789
0.000802114
0.142777
0.000894666
0.142749
0.000978194
0.142704
0.0010525
0.142644
0.00111751
0.142571
0.00117333
0.142484
0.0012202
0.142386
0.00125859
0.142276
0.00128916
0.00131259
0.130502
-0.000783062
-0.13024
0.130739
-0.000601039
0.130949
-0.000423298
0.131133
-0.000250389
0.131295
-8.3808e-05
0.131434
7.73365e-05
0.131549
0.000234031
0.131641
0.000381543
0.131711
0.000520811
0.131761
0.000651146
0.131791
0.000772038
0.131803
0.000883089
0.131797
0.000983956
0.131775
0.00107441
0.131738
0.00115438
0.131687
0.00122398
0.131624
0.00128357
0.131549
0.00133375
0.131463
0.00137538
0.00140936
0.120295
-0.00106085
-0.120017
0.120546
-0.00085264
0.120772
-0.000649027
0.120972
-0.000450648
0.121147
-0.000258447
0.121299
-7.41989e-05
0.121428
0.000104283
0.121534
0.000275813
0.121618
0.000436915
0.121681
0.000588084
0.121724
0.000728709
0.121749
0.000858308
0.121757
0.000976484
0.121748
0.00108296
0.121725
0.00117763
0.121688
0.00126063
0.121639
0.0013324
0.121579
0.00139369
0.121509
0.00144559
0.00148935
0.111099
-0.00134621
-0.110814
0.111358
-0.00111131
0.11159
-0.00088136
0.111796
-0.000657162
0.111978
-0.000439556
0.112133
-0.000229453
0.112267
-3.00993e-05
0.112378
0.000165384
0.112466
0.000348861
0.112533
0.000521033
0.11258
0.000681487
0.112609
0.000829657
0.11262
0.000965046
0.112616
0.0010873
0.112597
0.00119627
0.112566
0.00129207
0.112523
0.00137519
0.11247
0.00144657
0.112408
0.00150753
0.00155992
0.102875
-0.0016322
-0.102589
0.103134
-0.00136977
0.103365
-0.00111274
0.10357
-0.000862047
0.103749
-0.000618582
0.103903
-0.000383403
0.104031
-0.000157903
0.104138
5.75147e-05
0.104222
0.000265085
0.104285
0.00045836
0.104328
0.000638798
0.104352
0.000805572
0.104359
0.000958059
0.10435
0.00109581
0.104328
0.00121856
0.104293
0.00132641
0.104249
0.00141983
0.104195
0.00149995
0.104135
0.00156832
0.00162778
0.0955671
-0.00191259
-0.0952867
0.0958189
-0.00162158
0.0960427
-0.00133653
0.0962391
-0.0010585
0.096409
-0.000788456
0.096553
-0.000527426
0.0966716
-0.000276466
0.0967668
-3.77137e-05
0.0968396
0.000192262
0.0968906
0.000407348
0.0969215
0.000607925
0.0969338
0.00079332
0.096929
0.000962779
0.0969092
0.00111569
0.096876
0.00125168
0.0968318
0.00137069
0.0967784
0.00147315
0.096718
0.00156036
0.0966524
0.00163399
0.0016986
0.0891078
-0.00218193
-0.0888385
0.0893474
-0.00186116
0.0895579
-0.00154704
0.0897402
-0.00124075
0.0898951
-0.000943342
0.0900235
-0.00065586
0.0901264
-0.000379402
0.090204
-0.000115301
0.0902597
0.000136612
0.0902931
0.000373902
0.0903063
0.000594771
0.0903008
0.0007988
0.0902785
0.00098508
0.0902414
0.00115281
0.0901916
0.0013014
0.0901317
0.00143061
0.0900642
0.00154067
0.0899916
0.00163301
0.0899164
0.00170919
0.00177683
0.0834238
-0.00243559
-0.0831701
0.0836465
-0.00208386
0.0838391
-0.00173963
0.0840025
-0.00140418
0.0841378
-0.00107867
0.0842461
-0.000764159
0.0843283
-0.00046157
0.0843849
-0.000171927
0.0844185
0.000103043
0.0844299
0.000362471
0.0844209
0.000603725
0.0843934
0.000826352
0.0843492
0.00102926
0.0842906
0.00121143
0.08422
0.00137199
0.0841402
0.00151037
0.0840545
0.00162646
0.0839658
0.00172163
0.083878
0.00179704
0.0018659
0.0784387
-0.00266996
-0.0782043
0.0786409
-0.00228613
0.0788121
-0.0019108
0.0789533
-0.00154538
0.0790658
-0.00119116
0.0791508
-0.000849174
0.0792093
-0.000520053
0.0792418
-0.0002044
0.0792504
9.44403e-05
0.079237
0.000375855
0.0792032
0.000637499
0.079151
0.000878613
0.0790823
0.00109792
0.0789996
0.00129413
0.0789056
0.001466
0.0788034
0.00161252
0.0786969
0.00173304
0.0785899
0.00182855
0.0784876
0.0018994
0.0019688
0.074077
-0.00288252
-0.0738644
0.0742564
-0.0024656
0.0744039
-0.00205831
0.0745208
-0.00166226
0.0746086
-0.00127892
0.0746687
-0.000909245
0.074702
-0.000553362
0.0747087
-0.0002111
0.0746912
0.000111883
0.0746519
0.000415159
0.0745924
0.000697035
0.0745146
0.000956416
0.0744207
0.00119181
0.0743132
0.00140162
0.074195
0.00158417
0.0740697
0.00173786
0.0739414
0.00186133
0.0738151
0.00195485
0.0736961
0.00201836
0.00209055
0.0702662
-0.00307198
-0.0700768
0.0704218
-0.00262118
0.0705448
-0.00218127
0.0706367
-0.00175415
0.0706993
-0.00134157
0.0707344
-0.000944365
0.0707425
-0.000561489
0.0707235
-0.000192085
0.0706808
0.000154573
0.0706163
0.000479655
0.070532
0.000781342
0.0704298
0.00105864
0.0703119
0.00130972
0.0701809
0.00153264
0.0700398
0.00172523
0.0698925
0.0018852
0.0697434
0.00201038
0.0695982
0.0021001
0.0694582
0.00215831
0.00224887
0.0669381
-0.0032384
-0.0667716
0.0670701
-0.00275317
0.067169
-0.00228018
0.0672365
-0.00182173
0.0672752
-0.00138026
0.0672876
-0.000956706
0.067273
-0.000546951
0.0672292
-0.00014828
0.0671636
0.000220197
0.067077
0.000566302
0.066971
0.000887301
0.0668476
0.00118207
0.066709
0.00144833
0.0665578
0.00168376
0.0663974
0.00188571
0.0662314
0.00205118
0.0660646
0.00217717
0.065903
0.00226171
0.0657391
0.00232218
0.00248439
0.064029
-0.0638843
-0.00338314
0.0641391
-0.0028632
0.0642156
-0.00235671
0.0642604
-0.00186655
0.0642768
-0.00139662
0.0642697
-0.000949654
0.0642412
-0.000518409
0.0641716
-7.87319e-05
0.0640882
0.000303654
0.0639848
0.000669692
0.0638618
0.00101025
0.0637221
0.00132184
0.0635679
0.0016025
0.063402
0.00184968
0.0632274
0.00206026
0.063048
0.00223059
0.0628681
0.00235704
0.0626906
0.00243928
0.0624921
0.00252068
0.00278073
0.24144
1.63378e-05
-0.241457
0.241475
-3.49266e-05
0.241527
-5.18828e-05
0.241583
-5.59848e-05
0.241638
-5.51448e-05
0.241689
-5.0592e-05
0.241733
-4.37147e-05
0.241768
-3.55775e-05
0.241795
-2.69e-05
0.241813
-1.80924e-05
0.241823
-9.40109e-06
0.241824
-9.89439e-07
0.241817
6.99766e-06
0.241802
1.44374e-05
0.241781
2.11915e-05
0.241754
2.70819e-05
0.241722
3.15935e-05
0.241688
3.4302e-05
0.241658
2.96435e-05
2.31169e-05
0.224849
-0.000224577
-0.224608
0.225065
-0.000251288
0.225272
-0.000258405
0.225468
-0.000252117
0.225652
-0.000239492
0.225824
-0.000222383
0.225982
-0.000201874
0.226125
-0.000178976
0.226253
-0.000154571
0.226364
-0.000129321
0.226459
-0.000103721
0.226536
-7.81863e-05
0.226596
-5.3132e-05
0.226639
-2.90077e-05
0.226667
-6.31724e-06
0.226679
1.47504e-05
0.226676
3.43832e-05
0.22666
5.11824e-05
0.226628
6.16989e-05
7.02697e-05
0.207656
-0.00062033
-0.207261
0.208021
-0.000615619
0.208364
-0.000601414
0.208689
-0.00057725
0.208996
-0.000546871
0.209286
-0.000511937
0.209557
-0.000473224
0.20981
-0.000431466
0.210042
-0.000387425
0.210255
-0.000341791
0.210446
-0.000295167
0.210616
-0.000248098
0.210764
-0.000201148
0.21089
-0.000155014
0.210995
-0.000110943
0.211081
-7.11122e-05
0.211144
-2.84381e-05
0.211185
9.99611e-06
0.211204
4.26918e-05
7.00203e-05
0.190798
-0.00110438
-0.190314
0.191258
-0.00107593
0.191698
-0.00104106
0.192119
-0.000998332
0.192522
-0.000949365
0.192905
-0.000895365
0.193269
-0.00083704
0.193612
-0.000775027
0.193935
-0.000710004
0.194236
-0.000642676
0.194514
-0.000573711
0.19477
-0.000503762
0.195002
-0.00043351
0.195211
-0.000363704
0.195395
-0.00029517
0.195553
-0.000228332
0.195686
-0.000162336
0.195796
-9.92194e-05
0.195879
-4.02021e-05
1.58753e-05
0.174739
-0.00164149
-0.174202
0.175258
-0.00159554
0.175761
-0.00154341
0.176246
-0.00148391
0.176715
-0.00141769
0.177165
-0.00134563
0.177596
-0.00126839
0.178008
-0.00118661
0.178399
-0.00110097
0.178768
-0.00101219
0.179116
-0.000921008
0.17944
-0.000828132
0.179741
-0.00073428
0.180017
-0.000640166
0.180269
-0.000546446
0.180494
-0.000453706
0.180694
-0.000362349
0.180868
-0.000273092
0.181015
-0.00018697
-0.000105339
0.159681
-0.00221053
-0.159112
0.160238
-0.00215171
0.16078
-0.00208575
0.161308
-0.00201189
0.161821
-0.00193046
0.162317
-0.0018421
0.162796
-0.00174745
0.163257
-0.00164719
0.163698
-0.00154206
0.164118
-0.00143281
0.164518
-0.00132023
0.164895
-0.00120511
0.165249
-0.00108822
0.165579
-0.000970299
0.165884
-0.000852091
0.166165
-0.000734319
0.16642
-0.000617558
0.16665
-0.000502464
0.166852
-0.00038973
-0.000279648
0.145715
-0.00280104
-0.145125
0.146296
-0.00273271
0.146867
-0.00265578
0.147424
-0.00256983
0.147969
-0.00247507
0.148499
-0.00237206
0.149013
-0.00226145
0.14951
-0.00214399
0.149988
-0.00202049
0.150447
-0.00189178
0.150886
-0.00175872
0.151303
-0.00162217
0.151698
-0.00148297
0.152069
-0.00134196
0.152417
-0.00119995
0.15274
-0.00105774
0.153039
-0.000916013
0.153312
-0.000775515
0.153559
-0.00063694
-0.000501092
0.132869
-0.00341024
-0.13226
0.133471
-0.00333478
0.134064
-0.00324897
0.134647
-0.00315258
0.135218
-0.00304582
0.135775
-0.00292925
0.136317
-0.00280361
0.136843
-0.00266974
0.137351
-0.00252855
0.13784
-0.00238098
0.13831
-0.00222797
0.138758
-0.00207047
0.139184
-0.00190941
0.139588
-0.0017457
0.139968
-0.00158026
0.140325
-0.00141394
0.140656
-0.00124757
0.140963
-0.00108198
0.141244
-0.000917949
-0.000756349
0.121139
-0.00404011
-0.120509
0.121763
-0.00395906
0.122379
-0.00386563
0.122987
-0.00375966
0.123582
-0.00364143
0.124165
-0.00351164
0.124732
-0.00337115
0.125283
-0.00322095
0.125817
-0.00306209
0.126332
-0.00289562
0.126826
-0.00272259
0.1273
-0.00254405
0.127751
-0.00236102
0.12818
-0.00217451
0.128585
-0.00198552
0.128966
-0.00179502
0.129323
-0.00160393
0.129654
-0.00141318
0.12996
-0.00122362
-0.00103624
0.110503
-0.00469503
-0.109848
0.111153
-0.00460918
0.111796
-0.00450854
0.11243
-0.00439295
0.113051
-0.00426294
0.113659
-0.00411939
0.114251
-0.0039634
0.114826
-0.00379616
0.115383
-0.00361889
0.11592
-0.00343276
0.116437
-0.00323897
0.116931
-0.00303865
0.117403
-0.00283294
0.117852
-0.00262296
0.118276
-0.00240978
0.118675
-0.00219449
0.11905
-0.00197812
0.119398
-0.00176169
0.119721
-0.00154615
-0.00133262
0.100933
-0.00537986
-0.100248
0.101613
-0.0052894
0.102286
-0.00518109
0.102948
-0.00505495
0.103597
-0.00491191
0.104231
-0.0047532
0.104847
-0.00458023
0.105446
-0.00439446
0.106024
-0.0041973
0.106582
-0.00399009
0.107117
-0.00377414
0.107629
-0.00355071
0.108117
-0.00332105
0.10858
-0.00308636
0.109018
-0.00284785
0.109431
-0.00260668
0.109816
-0.00236399
0.110176
-0.00212094
0.110508
-0.00187857
-0.00163811
0.0923887
-0.00609864
-0.0916699
0.0931027
-0.00600336
0.0938077
-0.00588611
0.0945003
-0.00574753
0.0951777
-0.00558931
0.0958376
-0.00541319
0.0964784
-0.005221
0.0970985
-0.00501452
0.0976966
-0.00479539
0.0982716
-0.0045651
0.0988225
-0.00432508
0.0993485
-0.00407672
0.0998488
-0.00382134
0.100323
-0.00356028
0.10077
-0.00329484
0.101189
-0.00302629
0.101581
-0.00275589
0.101945
-0.0024849
0.102281
-0.0022145
-0.00194601
0.0848213
-0.00685394
-0.084066
0.0855714
-0.00675347
0.0863104
-0.00662511
0.0870341
-0.00647123
0.0877396
-0.0062948
0.0884247
-0.00609827
0.0890877
-0.00588402
0.0897274
-0.00565416
0.0903425
-0.00541054
0.0909322
-0.00515478
0.0914955
-0.00488841
0.0920317
-0.00461291
0.0925401
-0.00432972
0.0930201
-0.00404028
0.0934712
-0.003746
0.0938932
-0.00344827
0.0942858
-0.00314847
0.0946489
-0.00284797
0.0949825
-0.00254808
-0.00225023
0.0781727
-0.00764671
-0.0773799
0.07896
-0.0075407
0.0797328
-0.00739794
0.0804864
-0.00722487
0.0812181
-0.00702644
0.0819258
-0.00680597
0.0826082
-0.00656644
0.0832643
-0.00631027
0.0838932
-0.0060394
0.0844939
-0.00575555
0.0850658
-0.00546031
0.0856082
-0.00515525
0.0861204
-0.00484194
0.086602
-0.0045219
0.0870527
-0.00419668
0.0874722
-0.00386779
0.0878605
-0.00353673
0.0882175
-0.00320499
0.0885434
-0.00287401
-0.00254534
0.0723757
-0.0084765
-0.0715459
0.0731996
-0.00836458
0.0740043
-0.00820265
0.074785
-0.00800551
0.0755393
-0.00778077
0.0762659
-0.00753262
0.076964
-0.00726454
0.0776328
-0.00697908
0.0782716
-0.00667815
0.0788795
-0.00636349
0.079456
-0.00603676
0.0800004
-0.00569962
0.0805122
-0.00535374
0.0809911
-0.00500079
0.0814368
-0.00464244
0.0818494
-0.00428034
0.0822287
-0.0039161
0.0825751
-0.00355136
0.0828888
-0.00318766
-0.00282669
0.067356
-0.00934201
-0.0664905
0.0682146
-0.00922318
0.0690475
-0.00903549
0.0698507
-0.00880873
0.0706232
-0.00855329
0.0713645
-0.0082739
0.0720741
-0.00797421
0.0727517
-0.00765658
0.0733963
-0.00732282
0.0740075
-0.00697463
0.0745845
-0.00661375
0.0751268
-0.00624195
0.0756341
-0.00586106
0.0761062
-0.00547289
0.076543
-0.00507924
0.0769446
-0.00468191
0.0773111
-0.00428265
0.0776429
-0.00388318
0.0779405
-0.00348521
-0.0030905
0.0630333
-0.0102432
-0.0621322
0.0639238
-0.0101137
0.0647798
-0.00989146
0.0656004
-0.00962935
0.0663864
-0.00933926
0.0671381
-0.00902558
0.0678553
-0.0086915
0.0685377
-0.00833898
0.0691845
-0.00796962
0.0697951
-0.00758516
0.0703688
-0.00718745
0.0709053
-0.00677845
0.0714044
-0.00636016
0.071866
-0.00593454
0.0722904
-0.00550357
0.0726776
-0.00506914
0.0730281
-0.00463314
0.0733423
-0.00419741
0.0736209
-0.00376375
-0.00333405
0.0593236
-0.0111887
-0.0583781
0.0602427
-0.0110328
0.0611165
-0.0107653
0.0619499
-0.0104628
0.0627455
-0.0101348
0.0635041
-0.00978421
0.0642257
-0.00941309
0.0649096
-0.00902285
0.065555
-0.00861503
0.0661613
-0.0081915
0.0667282
-0.00775433
0.0672555
-0.00730569
0.0677431
-0.00684777
0.0681912
-0.00638271
0.0686003
-0.0059126
0.0689706
-0.00543946
0.0693027
-0.00496528
0.0695973
-0.00449199
0.069855
-0.0040215
-0.00355578
0.0561485
-0.012192
-0.0551451
0.0570855
-0.0119698
0.0579728
-0.0116525
0.0588167
-0.0113067
0.05962
-0.0109381
0.0603834
-0.0105476
0.0611065
-0.0101362
0.0617887
-0.00970502
0.0624293
-0.00925568
0.0630281
-0.00879028
0.0635849
-0.00831115
0.0640999
-0.00782068
0.0645734
-0.00732122
0.0650057
-0.00681504
0.0653974
-0.00630433
0.0657492
-0.00579123
0.0660617
-0.00527777
0.0663357
-0.00476599
0.066572
-0.00425784
-0.0037554
0.0534172
-0.0524427
-0.0131665
0.0543591
-0.0129117
0.0552651
-0.0125585
0.0561235
-0.0121652
0.0569352
-0.0117498
0.057702
-0.0113143
0.058424
-0.0108582
0.0591013
-0.0103823
0.0597338
-0.00988826
0.0603219
-0.00937835
0.0608658
-0.00885508
0.0613661
-0.00832097
0.0618234
-0.00777848
0.0622383
-0.00722996
0.0626116
-0.00667766
0.0629442
-0.00612377
0.0632368
-0.00557038
0.0634904
-0.00501957
0.0637059
-0.00447335
-0.00393383
0.0085704
0.0324203
-0.0314658
-0.0095249
0.00769272
0.0359907
-0.035113
0.00689813
0.0401504
-0.0393558
0.00618994
0.0449565
-0.0442483
0.00556778
0.0504565
-0.0498344
0.00502731
0.0566868
-0.0561463
0.00456011
0.0636727
-0.0632055
0.00415402
0.0714299
-0.0710238
0.00379392
0.079968
-0.0796079
0.00346287
0.089296
-0.0889649
0.00314352
0.0994298
-0.0991104
0.00281957
0.110401
-0.110077
0.00247728
0.122263
-0.121921
0.00210695
0.135103
-0.134733
0.00170462
0.149037
-0.148635
0.0012745
0.164211
-0.16378
0.000832824
0.180774
-0.180333
0.000414818
0.198846
-0.198428
9.36937e-05
0.218347
-0.218025
0.238735
-0.238641
0.00908677
0.0334031
-0.0100695
0.00817756
0.0368999
0.00734849
0.0409795
0.00660332
0.0457017
0.00594242
0.0511174
0.00536234
0.0572669
0.00485561
0.0641794
0.00441099
0.0718745
0.00401416
0.0803648
0.00364878
0.0896614
0.00329788
0.0997807
0.00294533
0.110753
0.00257745
0.122631
0.00218464
0.135496
0.00176328
0.149459
0.00131847
0.164655
0.000868085
0.181225
0.000449453
0.199264
0.000129301
0.218667
0.238864
0.00957381
0.0344108
-0.0105815
0.0086363
0.0378374
0.00777579
0.04184
0.00699651
0.0464809
0.00629949
0.0518144
0.00568212
0.0578843
0.00513786
0.0647237
0.00465639
0.072356
0.00422421
0.080797
0.00382565
0.0900599
0.00344416
0.100162
0.00306386
0.111133
0.00267119
0.123024
0.00225665
0.13591
0.00181688
0.149899
0.00135743
0.165115
0.000896779
0.181685
0.000471867
0.199689
0.000144282
0.218994
0.239009
0.0100303
0.0354403
-0.0110598
0.0090676
0.0388001
0.00817866
0.0427289
0.00736813
0.0472915
0.00663765
0.0525449
0.00598539
0.0585365
0.00540569
0.0653034
0.00488916
0.0728725
0.00442315
0.081263
0.00399264
0.0904904
0.0035816
0.100573
0.00317443
0.111541
0.00275772
0.123441
0.00232208
0.136346
0.0018643
0.150356
0.00139015
0.165589
0.000918353
0.182157
0.000485579
0.200122
0.000151371
0.219329
0.23916
0.0104554
0.0364886
-0.0115037
0.00947046
0.039785
0.00855602
0.0436434
0.00771703
0.0481305
0.00695571
0.0533062
0.00627096
0.0592213
0.00565797
0.0659163
0.00510825
0.0734222
0.00460999
0.0817613
0.00414891
0.0909515
0.00370948
0.101013
0.00327645
0.111974
0.00283661
0.12388
0.00238068
0.136802
0.00190559
0.150831
0.00141733
0.166077
0.000934815
0.18264
0.000494633
0.200562
0.000155186
0.219668
0.239315
0.0108486
0.037553
-0.011913
0.00984425
0.0407894
0.00890707
0.0445806
0.00804233
0.0489952
0.00725273
0.0540958
0.00653786
0.0599361
0.00589375
0.0665604
0.00531277
0.0740032
0.00478395
0.0822901
0.00429375
0.0914417
0.00382721
0.101479
0.00336948
0.112431
0.00290756
0.124342
0.00243235
0.137277
0.00194091
0.151323
0.00143944
0.166579
0.000947024
0.183132
0.000500088
0.201009
0.000156494
0.220012
0.239472
0.0112097
0.0386309
-0.0122876
0.0101885
0.0418107
0.00923113
0.0455379
0.00834321
0.0498831
0.00752785
0.0549112
0.00678524
0.0606787
0.0061122
0.0672335
0.00550193
0.0746134
0.00494431
0.0828477
0.00442655
0.0919595
0.00393429
0.101971
0.0034531
0.112913
0.0029703
0.124825
0.00247693
0.137771
0.00197026
0.15183
0.00145665
0.167092
0.000955298
0.183633
0.00050254
0.201462
0.000156089
0.220358
0.239628
0.0115385
0.0397202
-0.0126278
0.0105026
0.0428466
0.00952755
0.046513
0.00861891
0.0507918
0.00778021
0.0557499
0.00701222
0.0614467
0.00631247
0.0679332
0.00567497
0.075251
0.0050904
0.0834323
0.00454672
0.0925032
0.00403023
0.102488
0.00352697
0.113416
0.00302456
0.125327