/*--------------------------------*- C++ -*----------------------------------*\
| =========                 |                                                 |
| \\      /  F ield         | OpenFOAM: The Open Source CFD Toolbox           |
|  \\    /   O peration     | Version:  v1912                                 |
|   \\  /    A nd           | Website:  www.openfoam.com                      |
|    \\/     M anipulation  |                                                 |
\*---------------------------------------------------------------------------*/
FoamFile
{
    version     2.0;
    format      ascii;
    class       volVectorField;
    location    "64";
    object      U;
}
// * * * * * * * * * * * * * * * * * * * * * * * * * * * * * * * * * * * * * //

dimensions      [0 1 -1 0 0 0 0];


internalField   nonuniform List<vector> 
9600
(
(0.456545 -9.36163 -1.54172e-19)
(0.159769 -8.63236 0)
(0.242034 -8.15956 -9.05378e-20)
(0.320866 -7.8405 0)
(0.388259 -7.60548 0)
(0.456737 -7.41093 -3.18591e-20)
(0.522317 -7.2328 -5.50601e-22)
(0.581861 -7.05885 2.6634e-20)
(0.634593 -6.88373 0)
(0.680543 -6.706 -4.51617e-20)
(0.720104 -6.52629 0)
(0.753901 -6.34614 -1.83087e-21)
(0.782671 -6.16736 -2.60772e-21)
(0.807173 -5.99164 -3.1561e-20)
(0.82813 -5.82038 2.66194e-20)
(0.846198 -5.65455 -2.61527e-20)
(0.861929 -5.49463 2.32865e-20)
(0.875868 -5.34053 0)
(0.888798 -5.1915 -1.85249e-20)
(0.900448 -5.046 2.03061e-20)
(0.824479 -9.35125 -3.08446e-19)
(0.50223 -8.66049 1.17573e-20)
(0.567699 -8.20391 1.86496e-19)
(0.635032 -7.89437 -1.58969e-19)
(0.693422 -7.66395 1.56775e-19)
(0.753866 -7.4699 0)
(0.811577 -7.28946 6.07682e-20)
(0.863079 -7.11151 -6.06298e-20)
(0.907522 -6.93149 -1.05169e-19)
(0.944995 -6.74856 1.33028e-19)
(0.976001 -6.56374 -8.63707e-20)
(1.00129 -6.37883 -3.52654e-20)
(1.02171 -6.19578 7.11816e-20)
(1.0381 -6.01636 0)
(1.05127 -5.84198 0)
(1.06189 -5.67361 9.97908e-20)
(1.07053 -5.51169 -1.69193e-19)
(1.07775 -5.35609 0)
(1.08442 -5.20592 0)
(1.09 -5.05955 -7.82118e-20)
(1.19276 -9.32733 6.37292e-19)
(0.846965 -8.67576 0)
(0.896922 -8.2356 -3.77373e-19)
(0.953497 -7.93566 -3.42061e-19)
(1.00318 -7.70982 0)
(1.05557 -7.51622 5.46691e-19)
(1.10519 -7.33349 -5.16131e-19)
(1.1483 -7.15164 1.01179e-19)
(1.18404 -6.96692 -2.25244e-19)
(1.21262 -6.77906 -3.74615e-19)
(1.23468 -6.58948 5.11408e-19)
(1.2511 -6.4002 -3.16206e-19)
(1.26285 -6.2133 -1.41721e-19)
(1.27088 -6.03061 0)
(1.27604 -5.85354 5.52962e-21)
(1.27905 -5.68305 1.05185e-19)
(1.28048 -5.51954 4.54731e-20)
(1.2809 -5.36282 0)
(1.28125 -5.2119 8.24343e-20)
(1.28066 -5.06508 8.44865e-20)
(1.56027 -9.28951 -8.62183e-19)
(1.19338 -8.67789 -4.04049e-19)
(1.22915 -8.25439 3.919e-19)
(1.2757 -7.96407 6.7355e-19)
(1.31697 -7.74273 -3.26915e-19)
(1.36126 -7.54953 5.80661e-21)
(1.40253 -7.36454 2.53878e-19)
(1.43689 -7.17892 2.29962e-19)
(1.46354 -6.98975 4.21192e-19)
(1.48282 -6.79729 0)
(1.49555 -6.60333 1.62279e-19)
(1.50278 -6.4101 -1.72215e-19)
(1.50559 -6.21981 1.03541e-20)
(1.50502 -6.03429 2.71495e-19)
(1.50199 -5.85498 2.32769e-19)
(1.49725 -5.68279 -3.28594e-19)
(1.49137 -5.51811 1.08215e-19)
(1.48494 -5.36068 -1.76219e-19)
(1.47895 -5.20939 1.75387e-19)
(1.47213 -5.06254 -8.45303e-20)
(1.92672 -9.23773 4.34823e-19)
(1.54119 -8.66672 0)
(1.56397 -8.26003 3.84883e-19)
(1.60112 -7.97925 0)
(1.63422 -7.76231 0)
(1.67033 -7.56947 -3.00485e-19)
(1.70299 -7.38229 -5.37645e-19)
(1.72824 -7.19308 -4.55884e-19)
(1.74539 -6.99973 1.84514e-20)
(1.755 -6.80303 -1.97011e-19)
(1.75805 -6.60511 0)
(1.75577 -6.40841 -1.62691e-19)
(1.74939 -6.21518 -2.93083e-19)
(1.74002 -6.02732 2.57752e-19)
(1.72865 -5.84622 -7.32526e-19)
(1.71604 -5.67278 1.18548e-19)
(1.70278 -5.50734 9.39711e-20)
(1.68947 -5.3496 -1.9377e-19)
(1.67716 -5.19834 -8.46692e-20)
(1.66406 -5.0519 2.52482e-19)
(2.29155 -9.17188 4.19601e-19)
(1.8899 -8.64202 4.16157e-19)
(1.90087 -8.25222 0)
(1.92922 -7.98088 0)
(1.95432 -7.76824 -6.24667e-19)
(1.98216 -7.57574 3.41392e-19)
(2.00592 -7.38645 8.2166e-19)
(2.02169 -7.19387 0)
(2.02897 -6.99665 2.17153e-19)
(2.02852 -6.79612 1.97012e-19)
(2.02157 -6.5947 -3.48082e-19)
(2.00951 -6.39501 5.04777e-19)
(1.99371 -6.19936 1.4813e-19)
(1.97537 -6.00964 0)
(1.95553 -5.82722 1.23319e-19)
(1.93498 -5.65297 5.53595e-19)
(1.91429 -5.4872 -3.29871e-19)
(1.89411 -5.32956 3.7069e-19)
(1.87549 -5.17872 -7.04903e-19)
(1.85612 -5.03314 8.14894e-19)
(2.65424 -9.09196 4.26755e-19)
(2.23899 -8.60361 -2.25979e-18)
(2.2393 -8.2307 0)
(2.2594 -7.96866 0)
(2.27666 -7.7602 0)
(2.29609 -7.56803 -6.05994e-19)
(2.31066 -7.37677 0)
(2.31659 -7.18107 -9.71389e-19)
(2.31362 -6.98034 8.96033e-19)
(2.30277 -6.77642 -8.32228e-19)
(2.28551 -6.572 0)
(2.26342 -6.36983 0)
(2.23801 -6.17227 0)
(2.21055 -5.9812 -2.81627e-19)
(2.18214 -5.79796 0)
(2.15359 -5.62335 0)
(2.12546 -5.45767 -4.13404e-19)
(2.09841 -5.30053 4.06182e-19)
(2.07356 -5.15051 0)
(2.04794 -5.00623 0)
(3.01424 -8.99795 -1.38832e-18)
(2.58793 -8.5513 8.99673e-19)
(2.5787 -8.19522 0)
(2.59105 -7.94232 0)
(2.60059 -7.73793 0)
(2.61145 -7.5461 5.76397e-19)
(2.61654 -7.35303 -5.78153e-19)
(2.61227 -7.1545 -8.89958e-21)
(2.59868 -6.95067 -8.97182e-19)
(2.5771 -6.74383 8.40059e-19)
(2.54926 -6.53693 -3.78996e-19)
(2.51693 -6.33282 6.59058e-19)
(2.48173 -6.13391 -4.64226e-20)
(2.44505 -5.94201 -5.96235e-19)
(2.408 -5.75842 -5.02555e-19)
(2.37141 -5.58392 4.93745e-19)
(2.33584 -5.41877 0)
(2.30197 -5.26253 0)
(2.27095 -5.11371 3.57327e-19)
(2.23915 -4.97121 -3.93222e-19)
(3.371 -8.88989 9.27912e-19)
(2.93613 -8.48495 8.83919e-19)
(2.91846 -8.14556 -1.67544e-18)
(2.92353 -7.90161 7.91439e-19)
(2.92542 -7.70119 0)
(2.92754 -7.50974 6.16777e-19)
(2.92284 -7.31505 -5.41489e-19)
(2.90802 -7.11403 1.53032e-18)
(2.88348 -6.90754 -2.37008e-20)
(2.85088 -6.69829 0)
(2.81221 -6.48945 7.64683e-19)
(2.76944 -6.28398 0)
(2.72433 -6.08426 0)
(2.67834 -5.89207 -2.72773e-19)
(2.6326 -5.70864 5.50144e-19)
(2.58796 -5.5347 0)
(2.54495 -5.3705 4.31557e-19)
(2.50432 -5.21557 1.79671e-19)
(2.46723 -5.06834 -3.89812e-19)
(2.42933 -4.92807 3.78518e-19)
(3.72395 -8.76784 -9.55752e-19)
(3.28301 -8.40447 8.98346e-19)
(3.25795 -8.08155 -2.55857e-18)
(3.25617 -7.84634 8.04575e-19)
(3.25047 -7.64977 0)
(3.24367 -7.45878 -1.24493e-18)
(3.22886 -7.2627 5.98057e-19)
(3.20315 -7.05955 0)
(3.16734 -6.85087 -4.74867e-19)
(3.12344 -6.63975 -8.23676e-19)
(3.07373 -6.42956 -7.17774e-19)
(3.02037 -6.2233 5.34636e-20)
(2.96525 -6.02334 6.71336e-19)
(2.90987 -5.8314 2.72549e-19)
(2.85542 -5.64864 -3.79579e-20)
(2.80273 -5.47573 -5.13248e-19)
(2.75232 -5.31291 -2.29571e-19)
(2.70499 -5.15968 -2.06976e-19)
(2.66193 -5.01442 5.52152e-19)
(2.61807 -4.87687 -8.22752e-19)
(4.07255 -8.63188 9.55754e-19)
(3.62798 -8.30977 -4.66561e-20)
(3.59655 -8.00305 8.2248e-19)
(3.5883 -7.77632 0)
(3.57503 -7.58352 -6.80998e-19)
(3.5591 -7.39308 1.30856e-18)
(3.53389 -7.19588 -1.11863e-18)
(3.49696 -6.99101 1.10081e-18)
(3.44958 -6.78064 -4.46085e-19)
(3.39414 -6.56822 9.05535e-19)
(3.3332 -6.35727 3.92168e-19)
(3.26913 -6.15082 0)
(3.20391 -5.95121 0)
(3.13912 -5.76007 -2.82607e-19)
(3.07595 -5.57847 3.83765e-20)
(3.01522 -5.40705 1.01073e-18)
(2.95746 -5.24604 -2.50059e-19)
(2.90351 -5.0949 8.25955e-19)
(2.85459 -4.95199 1.44578e-19)
(2.80489 -4.81763 -8.40301e-19)
(4.41622 -8.48213 -2.94093e-18)
(3.97043 -8.20083 -9.87276e-19)
(3.9336 -7.90994 -2.63272e-18)
(3.91924 -7.69144 -1.60168e-18)
(3.89839 -7.50233 -7.59752e-19)
(3.87311 -7.31256 -7.42561e-19)
(3.83719 -7.11454 -2.4242e-18)
(3.78875 -6.90838 -4.90875e-20)
(3.72953 -6.69686 -1.94808e-18)
(3.66233 -6.48372 3.02296e-20)
(3.59001 -6.27262 -8.0888e-19)
(3.51513 -6.06659 -7.37107e-19)
(3.43977 -5.86791 6.729e-19)
(3.36555 -5.67812 -6.154e-19)
(3.29367 -5.4982 -5.63824e-19)
(3.22494 -5.32874 -5.17477e-19)
(3.15986 -5.16994 -1.38951e-18)
(3.09935 -5.02127 4.94337e-19)
(3.04469 -4.8811 1.19974e-18)
(2.98934 -4.7504 -1.27688e-18)
(4.75444 -8.31871 3.95579e-18)
(4.30976 -8.07764 4.85997e-18)
(4.26844 -7.80215 8.34902e-19)
(4.24827 -7.5916 4.00043e-18)
(4.21981 -7.4061 -7.84099e-19)
(4.18496 -7.21715 3.91815e-18)
(4.13806 -7.01864 1.14622e-18)
(4.07781 -6.81167 3.21792e-18)
(4.00651 -6.59955 -9.83618e-19)
(3.92737 -6.3863 2.72351e-18)
(3.84355 -6.17567 1.62929e-18)
(3.75778 -5.97068 1.48488e-18)
(3.67225 -5.77351 -2.0104e-18)
(3.58861 -5.58562 1.88332e-18)
(3.50805 -5.4079 1.13635e-18)
(3.43134 -5.24084 1.04316e-18)
(3.35901 -5.08468 9.59234e-19)
(3.29201 -4.93887 7.36892e-21)
(3.23172 -4.80179 8.14305e-19)
(3.17093 -4.67521 8.47446e-19)
(5.08666 -8.14181 -2.93762e-18)
(4.64539 -7.94023 1.08269e-18)
(4.60043 -7.67965 2.67859e-18)
(4.5747 -7.47674 -3.26347e-18)
(4.53856 -7.29481 7.54115e-19)
(4.49393 -7.10685 -2.62138e-18)
(4.43576 -6.90822 1.2848e-18)
(4.36344 -6.70093 -2.15314e-18)
(4.27985 -6.4888 4.90503e-20)
(4.18863 -6.27605 1.19566e-20)
(4.09322 -6.06651 -1.65179e-18)
(3.99653 -5.86316 -7.47769e-19)
(3.90083 -5.6681 1.37502e-18)
(3.80778 -5.48265 8.76512e-21)
(3.71856 -5.30761 -3.72044e-20)
(3.63391 -5.14343 -1.08875e-18)
(3.55435 -4.99031 -4.83504e-19)
(3.48091 -4.84773 -2.71581e-20)
(3.4151 -4.71411 -8.48667e-19)
(3.34908 -4.59218 -4.27974e-19)
(5.41238 -7.95158 0)
(4.97671 -7.78866 -2.00057e-18)
(4.92891 -7.54243 2.37613e-20)
(4.89782 -7.34686 3.25904e-18)
(4.85392 -7.16846 1.36418e-18)
(4.79928 -6.98171 -1.41996e-18)
(4.72958 -6.78335 -1.22333e-18)
(4.64497 -6.57626 0)
(4.54891 -6.3647 -9.73858e-19)
(4.4455 -6.15308 9.29441e-19)
(4.33844 -5.94526 -3.9084e-20)
(4.23082 -5.74415 0)
(4.12495 -5.55175 -6.92216e-19)
(4.02252 -5.36927 5.99624e-19)
(3.92467 -5.1974 5.00976e-19)
(3.8321 -5.03653 -6.04732e-19)
(3.7453 -4.88684 -5.24645e-19)
(3.66542 -4.74783 9.11106e-19)
(3.59409 -4.61806 -8.40856e-19)
(3.52297 -4.50139 4.42587e-19)
(5.73114 -7.74822 3.03514e-18)
(5.30316 -7.62299 -2.06044e-18)
(5.25319 -7.39051 -1.75858e-18)
(5.21692 -7.20197 8.18815e-19)
(5.16515 -7.02709 -1.58857e-18)
(5.10028 -6.84179 0)
(5.01881 -6.64412 0)
(4.92171 -6.43778 0)
(4.81306 -6.22739 -4.44882e-20)
(4.69738 -6.01753 -1.8653e-18)
(4.57866 -5.81204 8.80971e-19)
(4.46013 -5.61375 7.45122e-19)
(4.34415 -5.42456 6.30579e-19)
(4.23238 -5.24555 -2.58758e-18)
(4.12592 -5.07731 1.22675e-18)
(4.02542 -4.92014 0)
(3.93134 -4.77423 -3.04419e-20)
(3.8449 -4.63912 -1.41312e-18)
(3.76787 -4.51355 -5.69929e-21)
(3.69162 -4.40249 -4.43077e-19)
(6.04258 -7.532 -2.06445e-18)
(5.62418 -7.44337 -1.0863e-18)
(5.57262 -7.22396 8.18623e-19)
(5.53127 -7.04215 -1.43943e-19)
(5.47152 -6.8708 -4.63096e-18)
(5.3962 -6.68722 4.19126e-18)
(5.30276 -6.49069 -4.88154e-20)
(5.19301 -6.28565 1.14804e-18)
(5.07167 -6.07705 1.03008e-18)
(4.94369 -5.86956 9.45877e-19)
(4.81334 -5.667 8.60777e-19)
(4.68395 -5.4721 1.53839e-18)
(4.55793 -5.28663 -7.40455e-19)
(4.4369 -5.11157 1.91945e-18)
(4.3219 -4.94739 -1.24089e-18)
(4.2135 -4.79433 -5.13364e-19)
(4.11213 -4.65259 2.06196e-18)
(4.01904 -4.52171 1.37765e-18)
(3.93618 -4.40048 -2.79727e-20)
(3.855 -4.29478 0)
(6.34667 -7.30341 -1.04969e-18)
(5.93938 -7.24997 2.07599e-18)
(5.88652 -7.04284 1.81763e-18)
(5.84014 -6.86745 -1.45921e-19)
(5.77228 -6.69968 -1.57124e-18)
(5.68632 -6.51813 7.06922e-20)
(5.58072 -6.32324 1.31832e-20)
(5.45821 -6.12008 1.1746e-20)
(5.32414 -5.91389 0)
(5.1839 -5.70938 9.2515e-19)
(5.04198 -5.51031 -1.76089e-18)
(4.90182 -5.31932 -7.53577e-19)
(4.76583 -5.13804 7.48106e-19)
(4.63559 -4.96734 -6.56446e-19)
(4.51207 -4.80762 6.07989e-19)
(4.39576 -4.6591 -5.535e-19)
(4.28708 -4.52198 4.9012e-21)
(4.18741 -4.39564 -4.70248e-19)
(4.099 -4.27879 -4.34409e-19)
(4.01366 -4.17913 -4.34707e-19)
(6.64375 -7.06292 0)
(6.2485 -7.04272 -1.01222e-18)
(6.19424 -6.84707 1.00061e-18)
(6.14276 -6.67794 1.74587e-18)
(6.06668 -6.51391 -1.57993e-18)
(5.96991 -6.33477 1.36494e-18)
(5.85203 -6.14204 -2.62449e-18)
(5.7167 -5.94137 -2.33073e-18)
(5.56993 -5.7382 -1.01683e-18)
(5.41751 -5.53726 4.44359e-20)
(5.26416 -5.34222 -8.42057e-19)
(5.11336 -5.15557 3.49352e-20)
(4.9675 -4.97883 0)
(4.82806 -4.81277 -1.28769e-18)
(4.69585 -4.65773 6.57137e-19)
(4.57129 -4.51397 0)
(4.45481 -4.38159 -5.1468e-19)
(4.34801 -4.25973 -9.25365e-19)
(4.25313 -4.14803 9.09265e-19)
(4.1626 -4.05912 4.48851e-19)
(6.93343 -6.80975 0)
(6.55092 -6.82091 0)
(6.49507 -6.63658 -1.85623e-18)
(6.4384 -6.47391 -1.59614e-18)
(6.35402 -6.31389 3.23955e-18)
(6.24634 -6.13757 0)
(6.11611 -5.94754 0)
(5.96797 -5.74995 1.17093e-18)
(5.8086 -5.55042 0)
(5.64418 -5.35362 0)
(5.47962 -5.16309 0)
(5.31845 -4.98117 0)
(5.16296 -4.80921 0)
(5.01447 -4.64787 0)
(4.87356 -4.49739 0)
(4.74033 -4.35795 0)
(4.61505 -4.22941 0)
(4.49879 -4.1111 0)
(4.39168 -4.00609 0)
(4.28757 -3.93169 0)
(10.0435 0.087741 1.47375e-19)
(10.023 -0.307649 2.86744e-19)
(9.9872 -0.70036 -2.94501e-19)
(9.93666 -1.09025 5.87176e-19)
(9.87114 -1.47698 -5.87175e-19)
(9.79048 -1.86005 -5.54876e-19)
(9.69481 -2.23891 -5.53327e-19)
(9.58433 -2.61303 1.74259e-18)
(9.45927 -2.98184 -1.161e-18)
(9.31989 -3.34479 1.15127e-18)
(9.16649 -3.70135 -1.15127e-18)
(8.99935 -4.05098 1.14276e-18)
(8.81882 -4.39315 -2.26619e-18)
(8.62524 -4.72737 3.33729e-18)
(8.41898 -5.05315 0)
(8.20043 -5.37003 -3.27875e-18)
(7.96999 -5.67761 1.63549e-20)
(7.72817 -5.97552 3.30419e-18)
(7.47509 -6.26359 0)
(7.21242 -6.54116 0)
(10.1206 -0.210717 0)
(10.0794 -0.606834 -1.50434e-20)
(10.0213 -0.99915 0)
(9.94714 -1.38733 5.6191e-19)
(9.8571 -1.77094 5.85155e-19)
(9.75139 -2.14938 -1.69363e-18)
(9.63031 -2.52201 2.94853e-18)
(9.49421 -2.88822 -1.16396e-18)
(9.34346 -3.2474 -1.10953e-18)
(9.17845 -3.59897 -1.105e-18)
(8.9996 -3.94236 4.45763e-20)
(8.80735 -4.27702 1.13214e-18)
(8.60217 -4.60243 -5.62824e-18)
(8.38452 -4.9181 -1.18025e-18)
(8.15491 -5.22356 2.24894e-18)
(7.91386 -5.51837 2.24591e-18)
(7.66182 -5.80215 1.14105e-18)
(7.39938 -6.07457 -2.2003e-18)
(7.12665 -6.33537 1.04197e-18)
(6.84456 -6.58421 0)
(10.0725 -0.149214 1.32715e-19)
(10.0347 -0.540901 -2.71777e-19)
(9.9795 -0.929411 7.8484e-19)
(9.9073 -1.31405 -5.56012e-19)
(9.81849 -1.69417 -5.30147e-19)
(9.71344 -2.06905 5.53498e-19)
(9.59252 -2.43796 0)
(9.45612 -2.80023 0)
(9.30468 -3.15517 2.10167e-18)
(9.13863 -3.50214 3.1353e-18)
(8.95845 -3.84053 -9.91641e-19)
(8.76465 -4.16974 3.1003e-18)
(8.55773 -4.48922 -9.87468e-19)
(8.33824 -4.79842 -3.01974e-18)
(8.10673 -5.09684 1.36259e-20)
(7.86376 -5.38402 1.93836e-18)
(7.60987 -5.65952 -8.74941e-19)
(7.34566 -5.92294 -1.90697e-18)
(7.07147 -6.17389 -1.03002e-18)
(6.78802 -6.41187 1.87415e-18)
(9.90651 -0.112491 0)
(9.87549 -0.49495 2.29137e-19)
(9.82719 -0.875061 2.28196e-19)
(9.76179 -1.25193 -9.37506e-19)
(9.67963 -1.62475 0)
(9.58105 -1.99274 0)
(9.4664 -2.35515 0)
(9.33607 -2.71122 0)
(9.19046 -3.06024 -9.92059e-19)
(9.03003 -3.40152 -9.88292e-19)
(8.85524 -3.73439 0)
(8.66662 -4.05821 1.86855e-18)
(8.46468 -4.37238 -4.61983e-18)
(8.24997 -4.67631 3.71475e-18)
(8.02308 -4.96944 -3.60057e-18)
(7.78458 -5.25127 -8.73681e-19)
(7.53505 -5.5213 1.56487e-19)
(7.27511 -5.77905 1.54889e-19)
(7.00527 -6.02407 -1.77935e-18)
(6.72627 -6.25588 -7.08918e-20)
(9.65352 -0.0990081 0)
(9.62992 -0.469239 -2.2598e-19)
(9.58947 -0.83778 0)
(9.53224 -1.20373 4.52086e-19)
(9.45847 -1.56624 4.3096e-19)
(9.36845 -1.92453 3.94004e-19)
(9.26248 -2.27781 0)
(9.14092 -2.62533 0)
(9.00412 -2.96633 0)
(8.8525 -3.3001 0)
(8.68652 -3.62595 8.13892e-19)
(8.50665 -3.9432 8.76849e-19)
(8.3134 -4.25121 8.71845e-19)
(8.10731 -4.54938 -8.8518e-19)
(7.88893 -4.83709 -1.52345e-18)
(7.65886 -5.1138 1.72928e-18)
(7.41767 -5.37897 3.35273e-18)
(7.16599 -5.63206 1.63077e-18)
(6.9044 -5.87259 0)
(6.63361 -6.10005 -1.53697e-18)
(9.34655 -0.090207 4.64487e-20)
(9.32992 -0.446264 0)
(9.29707 -0.801203 -7.61174e-19)
(9.248 -1.15417 1.82593e-23)
(9.18288 -1.50434 1.61788e-20)
(9.10193 -1.85092 -6.85536e-20)
(9.00542 -2.19314 0)
(8.89363 -2.53024 3.09421e-20)
(8.76689 -2.86148 -7.72721e-19)
(8.62558 -3.18614 1.50552e-18)
(8.47009 -3.5035 -1.56987e-18)
(8.30086 -3.8129 8.57624e-19)
(8.11837 -4.11368 -4.49558e-18)
(7.92312 -4.4052 2.96512e-18)
(7.71564 -4.68684 1.57175e-18)
(7.4965 -4.95802 0)
(7.26625 -5.21816 -2.90119e-18)
(7.02552 -5.46672 -6.15431e-20)
(6.77487 -5.70316 -2.85707e-18)
(6.51498 -5.92696 2.96953e-18)
(9.01423 -0.085398 4.1773e-20)
(9.00324 -0.426457 -8.75084e-20)
(8.97677 -0.766866 7.17486e-19)
(8.93478 -1.10583 -1.40784e-20)
(8.87738 -1.44254 7.17339e-19)
(8.80475 -1.77626 -1.08347e-18)
(8.71711 -2.10621 0)
(8.61469 -2.43167 7.30397e-19)
(8.49778 -2.7519 6.68774e-19)
(8.36671 -3.06621 -7.26306e-19)
(8.22183 -3.37391 1.32887e-18)
(8.06353 -3.67431 2.81721e-18)
(7.89226 -3.96676 -1.31019e-18)
(7.70846 -4.25064 -1.42013e-18)
(7.51265 -4.52531 1.36191e-18)
(7.30534 -4.79018 0)
(7.08709 -5.04466 6.49623e-20)
(6.85845 -5.28819 9.8166e-21)
(6.62002 -5.52021 2.70695e-18)
(6.37239 -5.74017 1.2585e-18)
(8.67782 -0.0842194 0)
(8.67089 -0.410326 6.26013e-21)
(8.64925 -0.736127 -1.46005e-19)
(8.61285 -1.06088 -6.48399e-19)
(8.56175 -1.38382 6.09492e-19)
(8.49611 -1.70424 0)
(8.41609 -2.02141 1.24053e-18)
(8.32191 -2.33463 -1.3632e-21)
(8.2138 -2.6432 -1.89464e-18)
(8.09204 -2.94645 0)
(7.95696 -3.2437 -1.30772e-18)
(7.80892 -3.5343 4.60233e-20)
(7.6483 -3.81763 -3.67607e-18)
(7.47553 -4.09305 6.47856e-21)
(7.29107 -4.35996 1.23208e-18)
(7.09543 -4.61776 0)
(6.8891 -4.86587 -1.2093e-18)
(6.67263 -5.1037 8.70694e-21)
(6.44659 -5.3307 1.2006e-18)
(6.21152 -5.54629 -1.23846e-18)
(8.3512 -0.0853033 0)
(8.34689 -0.397038 1.49695e-19)
(8.32862 -0.708701 3.10584e-19)
(8.29635 -1.01959 -5.74895e-19)
(8.25011 -1.32901 -2.47372e-20)
(8.19002 -1.63626 -2.87316e-19)
(8.11624 -1.94067 -1.15015e-18)
(8.02892 -2.24158 5.71813e-19)
(7.9283 -2.53832 2.38272e-20)
(7.81461 -2.83025 5.68391e-19)
(7.68814 -3.11674 5.23256e-19)
(7.54923 -3.39716 2.26603e-18)
(7.39821 -3.67091 1.13346e-18)
(7.2355 -3.93739 2.23874e-18)
(7.06153 -4.196 -1.11644e-18)
(6.87675 -4.44618 3.86864e-20)
(6.68166 -4.68734 -1.10325e-18)
(6.47677 -4.91891 0)
(6.26262 -5.14033 1.04287e-18)
(6.03971 -5.351 0)
(8.04228 -0.0875237 6.51764e-20)
(8.03943 -0.385759 -1.90883e-19)
(8.02334 -0.684063 5.23557e-19)
(7.99395 -0.98178 -2.61192e-19)
(7.9513 -1.27825 1.89947e-20)
(7.89548 -1.57283 -2.61038e-19)
(7.82662 -1.86489 5.4268e-19)
(7.74487 -2.15379 -5.19377e-19)
(7.65043 -2.43891 5.19374e-19)
(7.54352 -2.71964 9.96135e-19)
(7.42439 -2.9954 -1.07338e-18)
(7.29335 -3.26559 -4.5128e-20)
(7.15074 -3.52964 -3.10699e-18)
(6.99691 -3.78698 5.38132e-21)
(6.83229 -4.03706 4.0301e-20)
(6.6573 -4.27932 2.01419e-18)
(6.47244 -4.5132 -9.94946e-19)
(6.27818 -4.73814 -9.47708e-19)
(6.07506 -4.95358 -3.74676e-20)
(5.86356 -5.15892 0)
(7.75468 -0.0901351 0)
(7.75244 -0.375863 2.42474e-19)
(7.73762 -0.661733 -8.3372e-19)
(7.71015 -0.94713 -2.21194e-19)
(7.67007 -1.23144 4.94677e-19)
(7.61745 -1.51405 0)
(7.55242 -1.79436 0)
(7.47511 -2.07178 4.72839e-19)
(7.38569 -2.34573 -4.72836e-19)
(7.28438 -2.61565 3.98332e-19)
(7.17141 -2.88096 -4.6979e-19)
(7.04707 -3.14113 9.31631e-19)
(6.91166 -3.39562 -1.85865e-18)
(6.76553 -3.64389 1.84904e-18)
(6.60908 -3.88543 3.46848e-20)
(6.44274 -4.11972 -9.50985e-19)
(6.26699 -4.34622 -9.04948e-19)
(6.08229 -4.56438 1.84342e-18)
(5.88918 -4.77365 8.62977e-19)
(5.68813 -4.9734 0)
(7.48918 -0.0926636 1.87894e-21)
(7.48698 -0.366884 1.59204e-19)
(7.47278 -0.641273 3.34253e-19)
(7.44653 -0.915253 2.33958e-19)
(7.40826 -1.18824 2.17031e-19)
(7.35803 -1.45966 2.01892e-19)
(7.29596 -1.72896 0)
(7.22218 -1.99557 -8.3432e-19)
(7.13685 -2.25894 -4.30091e-19)
(7.04015 -2.51856 3.66927e-19)
(6.93232 -2.77389 0)
(6.81362 -3.02442 8.49476e-19)
(6.68435 -3.26965 -2.51237e-18)
(6.54484 -3.50911 8.45127e-19)
(6.39547 -3.7423 0)
(6.23668 -3.96874 -8.03561e-19)
(6.06892 -4.18794 -1.62297e-18)
(5.8927 -4.39938 7.98619e-19)
(5.70858 -4.60248 -2.92211e-20)
(5.51699 -4.79661 0)
(7.2449 -0.0948104 3.46672e-21)
(7.24239 -0.358475 -1.03034e-19)
(7.2284 -0.622302 1.98836e-19)
(7.20288 -0.885746 -1.31303e-20)
(7.16587 -1.14826 3.97321e-19)
(7.11745 -1.40929 -6.10208e-19)
(7.05769 -1.66832 0)
(6.98674 -1.92482 5.60663e-20)
(6.90474 -2.17828 0)
(6.81188 -2.42819 -8.1455e-19)
(6.70836 -2.67406 0)
(6.59444 -2.91543 -7.5174e-19)
(6.4704 -3.15184 2.3234e-18)
(6.33657 -3.38284 -1.5396e-18)
(6.19332 -3.60799 7.67586e-19)
(6.04107 -3.82687 -6.79163e-19)
(5.88031 -4.039 7.84449e-19)
(5.71156 -4.24393 -7.79085e-19)
(5.53543 -4.44104 0)
(5.35237 -4.62971 0)
(7.02004 -0.0964541 4.71473e-20)
(7.01703 -0.350413 0)
(7.003 -0.604515 0)
(6.97791 -0.858241 -3.77752e-19)
(6.94181 -1.11107 -3.52565e-19)
(6.89477 -1.36249 0)
(6.83687 -1.61198 0)
(6.76824 -1.85907 4.98864e-20)
(6.68902 -2.10326 6.98191e-19)
(6.59938 -2.34408 -3.36711e-19)
(6.49953 -2.58107 -3.58735e-19)
(6.3897 -2.81381 1.44914e-18)
(6.27016 -3.04186 -2.15185e-18)
(6.14123 -3.26484 1.38764e-18)
(6.00327 -3.48233 0)
(5.85671 -3.69401 2.78777e-18)
(5.70206 -3.89939 -2.02407e-18)
(5.53984 -4.09815 6.88584e-19)
(5.37084 -4.28959 1.31691e-18)
(5.19545 -4.47314 0)
(6.81252 -0.0975301 -4.05355e-20)
(6.8089 -0.342536 0)
(6.79467 -0.587663 -5.22572e-21)
(6.76983 -0.832412 -3.24397e-19)
(6.73441 -1.07628 1.00519e-18)
(6.68848 -1.31878 -1.67211e-19)
(6.63212 -1.55944 0)
(6.56545 -1.79777 1.33201e-18)
(6.4886 -2.03333 -6.85965e-19)
(6.40175 -2.26566 4.45163e-20)
(6.30507 -2.49434 6.35735e-19)
(6.19881 -2.71897 6.51632e-19)
(6.0832 -2.93917 -1.29946e-18)
(5.95855 -3.15457 -1.27103e-18)
(5.82521 -3.36484 -1.2415e-18)
(5.6836 -3.56971 -1.3211e-18)
(5.53429 -3.76873 1.3121e-18)
(5.37777 -3.96177 -6.26384e-19)
(5.2151 -4.14797 -6.67463e-19)
(5.04656 -4.32697 0)
(6.62008 -0.0980181 3.98251e-20)
(6.61582 -0.334738 -1.49535e-19)
(6.60135 -0.57155 -1.548e-19)
(6.57666 -0.807973 4.63517e-19)
(6.54179 -1.04353 -1.64607e-19)
(6.4968 -1.27775 -1.53866e-19)
(6.44178 -1.51019 0)
(6.37683 -1.74037 -6.32447e-19)
(6.30209 -1.96789 0)
(6.21772 -2.1923 6.27558e-19)
(6.12388 -2.41322 -1.20932e-18)
(6.02079 -2.63027 5.98639e-19)
(5.90869 -2.84309 -1.19361e-18)
(5.78785 -3.05139 1.23171e-18)
(5.65861 -3.25485 6.70395e-19)
(5.52136 -3.45334 0)
(5.37671 -3.6464 -5.78674e-19)
(5.22513 -3.83426 5.78674e-19)
(5.0681 -4.01569 0)
(4.90557 -4.19105 0)
(6.4406 -0.0980058 0)
(6.43573 -0.326998 1.46917e-19)
(6.42102 -0.55605 4.72642e-21)
(6.39646 -0.784702 -1.51486e-19)
(6.36209 -1.0125 -1.33585e-19)
(6.31797 -1.23899 -1.41821e-19)
(6.26419 -1.46374 5.48147e-19)
(6.20084 -1.68632 0)
(6.12806 -1.90632 0)
(6.04599 -2.12333 2.78571e-19)
(5.95478 -2.33698 2.9592e-19)
(5.85465 -2.54693 1.07103e-18)
(5.74578 -2.75284 -5.47246e-19)
(5.62845 -2.95446 5.47244e-19)
(5.50294 -3.15152 5.80937e-19)
(5.3696 -3.34404 3.39672e-20)
(5.2291 -3.53153 -1.06698e-18)
(5.08178 -3.71478 3.78005e-21)
(4.92981 -3.89188 5.27716e-19)
(4.77233 -4.06484 0)
(6.27218 -0.0974964 -3.28379e-20)
(6.26676 -0.319284 3.28375e-20)
(6.25186 -0.541104 0)
(6.22746 -0.76251 1.23686e-19)
(6.1936 -0.983065 4.01769e-19)
(6.15034 -1.20234 -5.07792e-19)
(6.09778 -1.41992 -5.38572e-19)
(6.036 -1.63539 0)
(5.96513 -1.84836 0)
(5.8853 -2.05846 0)
(5.79666 -2.26532 -9.94259e-19)
(5.69938 -2.46862 -6.41748e-20)
(5.59365 -2.66806 -5.04129e-19)
(5.47967 -2.86342 3.02093e-20)
(5.35773 -3.05447 -9.96975e-19)
(5.22804 -3.24137 1.51939e-18)
(5.09132 -3.42366 -1.43968e-18)
(4.94761 -3.60294 4.88715e-19)
(4.80022 -3.77622 9.36912e-19)
(4.6464 -3.9484 0)
(6.1131 -0.0961394 2.95017e-20)
(6.10724 -0.311394 0)
(6.09223 -0.526671 -1.2146e-19)
(6.06805 -0.741531 -2.50275e-19)
(6.03474 -0.955556 1.21307e-19)
(5.99237 -1.16834 9.68692e-19)
(5.94102 -1.37948 0)
(5.88077 -1.58858 -4.66546e-19)
(5.81174 -1.79528 -2.38623e-19)
(5.73406 -1.99921 -4.48288e-19)
(5.64786 -2.20004 -1.79371e-19)
(5.55328 -2.39745 -1.4153e-18)
(5.4505 -2.59118 -9.34191e-19)
(5.33965 -2.78102 9.60981e-19)
(5.22097 -2.96679 9.19857e-19)
(5.09448 -3.14871 -3.88489e-21)
(4.961 -3.32644 2.99599e-20)
(4.81975 -3.50257 4.50311e-19)
(4.67586 -3.67329 -9.2061e-19)
(4.52258 -3.8485 0)
(5.96175 -0.0944675 -6.1694e-20)
(5.95559 -0.303467 3.03709e-20)
(5.94062 -0.512555 -1.21337e-19)
(5.91681 -0.72134 1.21281e-19)
(5.8842 -0.929429 -3.48821e-19)
(5.84282 -1.13643 -1.08618e-18)
(5.79274 -1.34196 0)
(5.73404 -1.54566 4.93642e-19)
(5.66681 -1.74715 -4.61573e-19)
(5.59114 -1.94611 9.77406e-19)
(5.50716 -2.14221 9.71602e-19)
(5.41496 -2.33514 1.43147e-18)
(5.31468 -2.52464 -9.28869e-19)
(5.20636 -2.7105 4.62674e-19)
(5.09025 -2.89255 -4.55017e-19)
(4.96596 -3.07099 4.5504e-19)
(4.83461 -3.24557 0)
(4.69349 -3.4195 4.11989e-19)
(4.55167 -3.58859 -4.03172e-19)
(4.39395 -3.77507 0)
(7.14017 7.26216 0)
(7.42015 6.97235 0)
(7.68722 6.67296 1.08763e-18)
(7.94209 6.36449 2.02665e-20)
(8.18419 6.04666 -1.15068e-18)
(8.41287 5.71953 0)
(8.6277 5.3835 1.18746e-18)
(8.82836 5.03911 -2.2404e-18)
(9.01453 4.68694 -1.13224e-18)
(9.18591 4.32758 -1.14283e-18)
(9.34225 3.96168 1.14282e-18)
(9.48332 3.58989 -1.15493e-18)
(9.60892 3.21289 5.76102e-19)
(9.71886 2.8314 5.49874e-19)
(9.81298 2.44606 5.52024e-19)
(9.89123 2.05756 -5.85834e-19)
(9.95357 1.66655 5.85834e-19)
(10.0001 1.27373 -2.94096e-19)
(10.0307 0.879506 -1.397e-19)
(10.046 0.485226 7.35804e-20)
(7.41712 7.07046 0)
(7.69731 6.78103 -9.96679e-19)
(7.96371 6.48004 -2.13083e-18)
(8.21661 6.16815 3.15109e-18)
(8.45576 5.8457 -2.18516e-18)
(8.68067 5.51312 2.19594e-18)
(8.89085 5.17104 1.19383e-18)
(9.08588 4.8201 -3.38776e-18)
(9.26537 4.461 1.10828e-18)
(9.42898 4.09447 2.20321e-18)
(9.57638 3.72122 1.0855e-18)
(9.70733 3.342 1.09238e-18)
(9.82166 2.95763 -1.15272e-18)
(9.91915 2.56882 1.69741e-18)
(9.99953 2.17637 -2.35495e-18)
(10.0627 1.78114 5.81282e-19)
(10.1087 1.38394 -5.58578e-19)
(10.1376 0.985594 0)
(10.1492 0.586629 1.51572e-20)
(10.144 0.188026 0)
(7.2742 6.94575 -1.75502e-18)
(7.55721 6.67373 9.85277e-19)
(7.82768 6.38884 1.80235e-18)
(8.08516 6.09176 8.15967e-19)
(8.32921 5.78306 2.04346e-18)
(8.55933 5.46336 2.00454e-20)
(8.77496 5.13332 -1.02426e-18)
(8.97564 4.79363 -3.05254e-18)
(9.1609 4.44502 3.01369e-18)
(9.33031 4.08821 -3.0936e-18)
(9.48348 3.72394 -1.03065e-18)
(9.62011 3.35298 -2.06205e-18)
(9.73988 2.97614 0)
(9.84259 2.5942 0)
(9.92809 2.20806 0)
(9.99621 1.81862 -5.25614e-19)
(10.0468 1.42673 5.50483e-19)
(10.0798 1.03324 5.2731e-19)
(10.0951 0.638857 6.27064e-21)
(10.0928 0.24456 1.32438e-19)
(7.04696 6.69372 1.8227e-18)
(7.32671 6.44036 -1.65527e-18)
(7.59512 6.17388 -1.6964e-19)
(7.85146 5.89481 -1.70601e-19)
(8.09516 5.60373 4.30325e-18)
(8.32568 5.30124 -7.12681e-20)
(8.54247 4.98798 3.77761e-21)
(8.74498 4.6646 -2.7213e-18)
(8.93273 4.33178 1.7955e-18)
(9.10524 3.9902 0)
(9.26201 3.64066 9.63019e-19)
(9.40271 3.28398 9.69684e-19)
(9.52706 2.92094 0)
(9.63474 2.55238 0)
(9.72553 2.17912 0)
(9.79923 1.80197 0)
(9.85566 1.42176 -2.17161e-20)
(9.89469 1.03934 4.74809e-19)
(9.91621 0.655546 -2.2801e-19)
(9.9202 0.271315 0)
(6.78431 6.37897 1.54378e-18)
(7.05621 6.14347 0)
(7.31787 5.89503 -4.5455e-18)
(7.56851 5.63408 -1.54935e-18)
(7.80747 5.36112 -1.62813e-18)
(8.03417 5.07672 -1.7259e-18)
(8.24806 4.78145 8.15432e-19)
(8.44858 4.47593 -8.56983e-19)
(8.63519 4.16077 2.37963e-18)
(8.80744 3.83668 -7.79046e-19)
(8.96492 3.5044 0)
(9.10712 3.1647 0)
(9.23366 2.81824 0)
(9.34426 2.46584 0)
(9.43866 2.1083 -1.23027e-18)
(9.5166 1.74641 4.23028e-19)
(9.57788 1.381 -4.46854e-19)
(9.62232 1.01289 0)
(9.6498 0.642926 2.2487e-19)
(9.66024 0.272002 0)
(6.50937 6.05173 1.32074e-18)
(6.77104 5.83238 -4.7998e-20)
(7.02341 5.6005 2.77812e-18)
(7.2657 5.35643 1.38796e-18)
(7.49724 5.10063 0)
(7.71744 4.83361 -1.47387e-18)
(7.92576 4.5559 6.85319e-20)
(8.12162 4.26805 -1.49627e-18)
(8.30452 3.97066 2.07005e-18)
(8.47398 3.66437 3.27468e-20)
(8.62956 3.34982 2.81228e-20)
(8.77081 3.02764 -7.46669e-19)
(8.89733 2.69857 1.46439e-18)
(9.00879 2.36336 0)
(9.10492 2.02271 6.85891e-20)
(9.18544 1.67747 7.4764e-19)
(9.25006 1.32839 1.63936e-21)
(9.2986 0.976274 -1.53505e-20)
(9.33095 0.621908 0)
(9.34695 0.26613 -4.6352e-20)
(6.24352 5.73468 0)
(6.49385 5.52932 -4.89248e-20)
(6.73564 5.31195 1.75844e-20)
(6.96813 5.08286 -2.51141e-18)
(7.19068 4.84246 0)
(7.40271 4.59121 1.27019e-18)
(7.60369 4.32959 1.35294e-18)
(7.79308 4.05811 -3.93628e-18)
(7.97038 3.7773 -6.83033e-20)
(8.13512 3.48776 -1.26398e-18)
(8.28686 3.19006 6.95943e-19)
(8.42518 2.88482 -6.42888e-19)
(8.54967 2.57273 -7.06719e-19)
(8.65997 2.25446 0)
(8.75583 1.93074 3.72845e-19)
(8.83704 1.60218 -1.69144e-20)
(8.90323 1.26964 -3.46131e-19)
(8.95415 0.933847 -1.67762e-20)
(8.98972 0.595555 -8.71308e-20)
(9.00976 0.255536 1.74635e-19)
(5.99797 5.43944 0)
(6.23671 5.24593 1.086e-18)
(6.46751 5.04098 1.61919e-20)
(6.68964 4.82484 -1.10216e-18)
(6.90249 4.59789 0)
(7.10552 4.36052 1.14664e-18)
(7.2982 4.11318 -1.09478e-18)
(7.48004 3.85633 -1.21192e-18)
(7.65056 3.59047 2.30528e-18)
(7.80931 3.31614 1.24388e-18)
(7.95587 3.03389 0)
(8.08983 2.74431 6.06714e-19)
(8.21082 2.44801 -4.39272e-21)
(8.31851 2.14565 2.18734e-20)
(8.41249 1.83789 0)
(8.49263 1.52536 -5.97212e-19)
(8.55875 1.20868 -3.12877e-19)
(8.61046 0.888653 4.57136e-19)
(8.64762 0.566015 3.08217e-19)
(8.67008 0.241471 -4.11973e-20)
(5.7764 5.17095 0)
(6.00388 4.98741 -9.37999e-19)
(6.22387 4.79302 0)
(6.43569 4.58798 -1.012e-18)
(6.63877 4.37263 1.99243e-18)
(6.83258 4.14733 -2.03195e-18)
(7.01665 3.91248 3.17957e-18)
(7.1905 3.66852 -3.17043e-18)
(7.35369 3.41592 -2.14205e-18)
(7.5058 3.15516 -1.57991e-18)
(7.64641 2.88678 5.41773e-19)
(7.77517 2.61132 -1.12319e-18)
(7.8917 2.32936 1.86549e-20)
(7.9957 2.04151 1.11653e-18)
(8.08686 1.74835 -2.80892e-19)
(8.16481 1.45062 1.15067e-18)
(8.22946 1.14878 -5.65946e-19)
(8.28065 0.843562 2.60757e-19)
(8.3181 0.535689 -1.48704e-19)
(8.34161 0.225832 0)
(5.57854 4.9296 0)
(5.7954 4.75451 1.81466e-18)
(6.00512 4.56912 8.80255e-19)
(6.20706 4.37363 -9.06085e-19)
(6.40068 4.1683 -1.85611e-18)
(6.58548 3.95349 2.82443e-18)
(6.76104 3.72955 1.12974e-20)
(6.9269 3.49689 -9.20642e-19)
(7.08266 3.25595 1.97645e-18)
(7.22792 3.00721 1.02077e-18)
(7.36231 2.75116 -9.53684e-19)
(7.48547 2.48832 5.00769e-19)
(7.59707 2.21924 2.25466e-20)
(7.6968 1.94447 -5.26926e-19)
(7.78438 1.6646 -2.55341e-19)
(7.85951 1.3802 5.11993e-19)
(7.92198 1.09198 -2.56652e-19)
(7.97167 0.800422 -5.17916e-19)
(8.00841 0.506217 6.00161e-20)
(8.03195 0.210013 6.48964e-20)
(5.40217 4.71331 0)