/*--------------------------------*- C++ -*----------------------------------*\
  =========                 |
  \\      /  F ield         | OpenFOAM: The Open Source CFD Toolbox
   \\    /   O peration     | Website:  https://openfoam.org
    \\  /    A nd           | Version:  6.0
     \\/     M anipulation  |
\*---------------------------------------------------------------------------*/
FoamFile
{
    version     2.0;
    format      ascii;
    class       volVectorField;
    location    "14";
    object      U;
}
// * * * * * * * * * * * * * * * * * * * * * * * * * * * * * * * * * * * * * //

dimensions      [0 1 -1 0 0 0 0];

internalField   nonuniform List<vector> 
19200
(
(0.0985249 -4.74637 -6.54528e-21)
(0.0607591 -4.33601 3.30309e-21)
(0.0666905 -3.9998 1.53359e-21)
(0.0815318 -3.72463 1.35351e-21)
(0.0991142 -3.49901 1.51507e-21)
(0.120906 -3.31324 1.10423e-22)
(0.146317 -3.15942 2.15652e-21)
(0.174421 -3.03116 -1.43019e-22)
(0.204518 -2.92328 1.90324e-21)
(0.236015 -2.83166 8.04875e-22)
(0.268395 -2.75296 1.28077e-23)
(0.301215 -2.68452 1.28045e-21)
(0.334104 -2.62424 2.10143e-21)
(0.366757 -2.5704 -1.42771e-21)
(0.398923 -2.52166 1.85687e-21)
(0.4304 -2.47694 1.61072e-21)
(0.46103 -2.43539 -1.51014e-21)
(0.490693 -2.39632 2.6003e-21)
(0.519299 -2.35919 -1.64789e-21)
(0.546785 -2.32356 8.40603e-22)
(0.573112 -2.2891 1.17654e-21)
(0.598257 -2.25551 -3.71141e-22)
(0.622216 -2.22258 5.04937e-22)
(0.644995 -2.19009 -5.88352e-22)
(0.666607 -2.1579 -1.01438e-24)
(0.687074 -2.12584 3.17365e-22)
(0.70642 -2.09376 -2.00228e-22)
(0.724669 -2.06151 1.33126e-22)
(0.741857 -2.02892 2.91632e-22)
(0.757988 -1.9958 1.20533e-21)
(0.223047 -4.74385 -1.53028e-21)
(0.175203 -4.33977 1.02789e-20)
(0.173029 -4.00881 -5.41783e-21)
(0.181476 -3.73843 -7.38861e-21)
(0.194039 -3.51721 -3.3252e-21)
(0.211871 -3.33532 -2.40928e-21)
(0.234132 -3.18484 -5.21128e-21)
(0.259699 -3.05938 6.54021e-22)
(0.287717 -2.95381 -1.13528e-21)
(0.317473 -2.86402 -3.94395e-21)
(0.348354 -2.78672 -9.91895e-21)
(0.379846 -2.71931 4.87556e-21)
(0.411521 -2.65969 -1.79689e-21)
(0.44303 -2.60622 6.85113e-22)
(0.474092 -2.55757 -4.27487e-21)
(0.504481 -2.51272 -1.58708e-21)
(0.534024 -2.47082 1.82579e-22)
(0.562587 -2.43125 5.44035e-21)
(0.590074 -2.39347 -2.86121e-21)
(0.616417 -2.35708 -1.59998e-21)
(0.641576 -2.32177 -6.26204e-21)
(0.665529 -2.28725 1.61453e-21)
(0.68827 -2.25334 -1.03425e-21)
(0.709808 -2.21984 1.81909e-21)
(0.730161 -2.18659 -8.25716e-22)
(0.749352 -2.15346 -1.29027e-21)
(0.767405 -2.12029 4.28744e-22)
(0.784353 -2.08694 6.38864e-22)
(0.80025 -2.05323 -1.16831e-21)
(0.815068 -2.01895 6.15254e-22)
(0.347249 -4.73846 -7.59732e-22)
(0.289614 -4.34095 2.39228e-21)
(0.279727 -4.01551 3.43926e-21)
(0.282112 -3.75017 2.62521e-20)
(0.289918 -3.53352 -1.52177e-20)
(0.304003 -3.35563 1.40509e-20)
(0.323283 -3.20855 8.64837e-21)
(0.346446 -3.08594 6.72974e-21)
(0.372485 -2.98268 -6.56578e-21)
(0.400569 -2.8947 -7.71945e-22)
(0.429995 -2.81877 1.67271e-20)
(0.460177 -2.75233 2.82621e-21)
(0.490636 -2.69333 -7.70799e-21)
(0.520984 -2.64016 6.16393e-21)
(0.550908 -2.59155 -7.77073e-23)
(0.580164 -2.5465 2.65635e-21)
(0.608562 -2.50421 2.00271e-21)
(0.63596 -2.46408 6.57608e-21)
(0.662257 -2.42561 -2.94536e-21)
(0.687383 -2.38842 -9.7988e-22)
(0.711295 -2.35221 -2.5877e-21)
(0.733974 -2.31675 1.13467e-20)
(0.755418 -2.28183 -9.46563e-21)
(0.775636 -2.2473 3.16079e-21)
(0.794651 -2.213 1.41781e-21)
(0.812488 -2.17881 -5.73618e-21)
(0.829173 -2.14457 7.72384e-21)
(0.844746 -2.11014 -8.7419e-22)
(0.859281 -2.07533 -8.83327e-22)
(0.872712 -2.03995 -6.25155e-21)
(0.47129 -4.73009 -2.48309e-20)
(0.404146 -4.33957 -2.26605e-20)
(0.386845 -4.01993 -2.79001e-20)
(0.38345 -3.75985 1.04003e-21)
(0.386746 -3.54792 1.63658e-21)
(0.397289 -3.37412 -3.18524e-20)
(0.413755 -3.23051 1.40961e-21)
(0.434641 -3.11075 4.10083e-21)
(0.458795 -3.00979 -7.04779e-22)
(0.485271 -2.9236 7.24164e-21)
(0.513278 -2.849 -2.92089e-20)
(0.542164 -2.78348 -1.84805e-20)
(0.571401 -2.72504 6.8842e-21)
(0.600561 -2.67211 1.38854e-20)
(0.629308 -2.62348 -1.62865e-20)
(0.657378 -2.57817 -2.62273e-21)
(0.684571 -2.53544 -9.71574e-21)
(0.710736 -2.4947 -4.68283e-21)
(0.735768 -2.45549 7.78522e-21)
(0.759597 -2.41747 -1.00928e-20)
(0.782183 -2.38034 8.70378e-21)
(0.803507 -2.3439 -1.042e-20)
(0.823572 -2.30797 -8.30403e-21)
(0.842391 -2.2724 -5.86606e-21)
(0.85999 -2.23706 -1.78338e-21)
(0.876397 -2.20181 -1.2254e-20)
(0.891642 -2.16652 1.24777e-21)
(0.905771 -2.13104 2.21154e-21)
(0.918877 -2.09518 -6.41826e-21)
(0.930852 -2.05874 1.37844e-21)
(0.595137 -4.71867 -1.51483e-20)
(0.518807 -4.33557 2.13426e-21)
(0.494388 -4.02204 1.96247e-20)
(0.485485 -3.76742 2.08538e-20)
(0.484512 -3.56035 1.49177e-20)
(0.491712 -3.39073 6.12508e-21)
(0.505524 -3.25062 9.64326e-21)
(0.524257 -3.13372 4.49485e-20)
(0.546615 -3.03504 -2.70673e-20)
(0.571541 -2.9506 7.35199e-22)
(0.59816 -2.87729 6.57172e-21)
(0.625757 -2.81263 2.88584e-20)
(0.653756 -2.75469 -1.993e-20)
(0.681698 -2.70195 1.44622e-20)
(0.709223 -2.65323 -1.62934e-20)
(0.73605 -2.60762 2.78825e-20)
(0.76197 -2.56439 -8.3893e-21)
(0.786829 -2.523 2.63655e-22)
(0.810519 -2.48302 1.36698e-20)
(0.832971 -2.44412 9.53324e-21)
(0.854148 -2.40606 -9.82638e-21)
(0.874036 -2.36863 1.33474e-20)
(0.892641 -2.33168 -6.183e-21)
(0.909982 -2.29507 7.07354e-21)
(0.926089 -2.25869 9.40029e-21)
(0.940995 -2.2224 3.43418e-21)
(0.95473 -2.18609 1.05308e-20)
(0.967349 -2.1496 -3.71542e-21)
(0.978965 -2.11274 -1.35882e-21)
(0.989421 -2.07529 -6.32281e-21)
(0.718726 -4.70417 -1.11931e-20)
(0.633566 -4.32893 -7.54039e-21)
(0.602336 -4.0218 -2.27455e-20)
(0.588201 -3.77283 -5.91489e-20)
(0.583195 -3.57075 2.00653e-20)
(0.58725 -3.40537 1.27749e-21)
(0.598564 -3.26878 -1.38544e-20)
(0.615262 -3.15475 2.99459e-21)
(0.635906 -3.05832 -1.90583e-21)
(0.659333 -2.9756 -3.64796e-20)
(0.684588 -2.90351 1.55185e-20)
(0.710895 -2.83966 2.69253e-20)
(0.737637 -2.78216 1.75577e-22)
(0.764324 -2.72955 1.02195e-20)
(0.790575 -2.6807 2.53616e-20)
(0.816098 -2.63472 -1.74775e-20)
(0.840675 -2.59095 3.11445e-20)
(0.864151 -2.54887 -1.48412e-20)
(0.886419 -2.50808 2.68828e-20)
(0.907412 -2.4683 -2.00933e-20)
(0.927097 -2.42928 9.1327e-21)
(0.945466 -2.39085 2.4048e-20)
(0.962531 -2.35288 1.40415e-21)
(0.978316 -2.31525 -2.22458e-20)
(0.992858 -2.27784 1.26809e-20)
(1.00619 -2.24054 1.5535e-21)
(1.01835 -2.20324 -3.99525e-21)
(1.0294 -2.16578 1.56517e-20)
(1.03947 -2.12797 5.44663e-21)
(1.04835 -2.08958 -5.53295e-21)
(0.841989 -4.6866 3.12017e-20)
(0.748378 -4.31963 -1.33298e-21)
(0.710657 -4.01917 -4.70715e-20)
(0.69157 -3.77604 9.37109e-21)
(0.68277 -3.57905 -1.33946e-20)
(0.683874 -3.41797 9.77956e-21)
(0.692841 -3.28492 2.22154e-20)
(0.707616 -3.17373 4.06705e-20)
(0.726623 -3.07953 -4.4383e-20)
(0.748596 -2.99847 1.09636e-20)
(0.772502 -2.92756 -7.80016e-21)
(0.797514 -2.86446 5.84335e-21)
(0.822971 -2.80734 -2.56092e-20)
(0.84836 -2.7548 -1.50423e-21)
(0.873281 -2.70576 4.25952e-20)
(0.897433 -2.65938 -2.93426e-20)
(0.920594 -2.61502 -1.85788e-20)
(0.942608 -2.57222 -1.36934e-20)
(0.963371 -2.5306 2.54501e-20)
(0.982821 -2.4899 5.5626e-21)
(1.00093 -2.44991 -2.50923e-20)
(1.0177 -2.41049 3.39681e-20)
(1.03315 -2.37151 -3.05899e-20)
(1.0473 -2.33286 2.05894e-20)
(1.06021 -2.29446 -1.15448e-20)
(1.0719 -2.25618 7.72022e-21)
(1.08243 -2.21794 5.77235e-21)
(1.09185 -2.17956 -2.55708e-20)
(1.10032 -2.14084 1.11725e-20)
(1.10758 -2.10159 2.74789e-22)
(0.964852 -4.66596 -3.11734e-20)
(0.863194 -4.30763 2.6186e-20)
(0.819315 -4.0141 -4.89496e-20)
(0.79556 -3.77698 9.39566e-20)
(0.783204 -3.58517 -2.65561e-20)
(0.781548 -3.42843 3.82274e-20)
(0.788315 -3.29893 1.09111e-22)
(0.801273 -3.19057 -5.12458e-21)
(0.818713 -3.09855 -8.07242e-21)
(0.83927 -3.01911 -1.65166e-22)
(0.861839 -2.94931 -3.16992e-20)
(0.885541 -2.8869 1.63839e-20)
(0.909681 -2.83011 -2.02842e-20)
(0.933723 -2.77759 -1.5912e-21)
(0.957253 -2.72831 -5.78504e-20)
(0.979963 -2.68147 1.8897e-20)
(1.00163 -2.6365 1.12908e-20)
(1.0221 -2.59294 -1.25571e-20)
(1.04128 -2.55047 -1.44484e-21)
(1.0591 -2.50885 -1.99715e-20)
(1.07555 -2.4679 -7.25328e-21)
(1.09064 -2.42749 7.11052e-22)
(1.10439 -2.38751 -1.78026e-20)
(1.11684 -2.34787 -2.64747e-20)
(1.12804 -2.3085 1.0825e-21)
(1.13804 -2.26929 -2.84006e-21)
(1.14687 -2.23014 8.4983e-21)
(1.15462 -2.19089 -2.10922e-20)
(1.16145 -2.15134 1.80164e-20)
(1.16704 -2.11129 -3.66076e-20)
(1.08724 -4.64224 -7.90374e-20)
(0.977959 -4.29293 9.81529e-20)
(0.928266 -4.00657 -1.04797e-19)
(0.900131 -3.77559 -2.81435e-20)
(0.884458 -3.58905 -1.85948e-20)
(0.880232 -3.43668 -2.0046e-20)
(0.884941 -3.31072 -1.85336e-20)
(0.896183 -3.20516 -3.98668e-21)
(0.912119 -3.11528 -1.89547e-20)
(0.931291 -3.0374 -4.78757e-21)
(0.952526 -2.96867 3.3163e-20)
(0.974898 -2.90688 -1.90967e-20)
(0.997683 -2.85036 -2.33811e-20)
(1.02032 -2.79781 -3.97031e-20)
(1.0424 -2.74824 8.3902e-20)
(1.06359 -2.70091 -3.27831e-20)
(1.08368 -2.65529 1.22585e-20)
(1.10253 -2.61096 -4.61385e-20)
(1.12003 -2.56763 1.75548e-20)
(1.13614 -2.52508 -7.49458e-21)
(1.15085 -2.48317 9.20221e-21)
(1.16418 -2.44178 -3.54616e-21)
(1.17616 -2.40082 3.02028e-20)
(1.18684 -2.36023 -1.08475e-20)
(1.19627 -2.31992 2.97102e-20)
(1.20451 -2.27982 -5.64128e-21)
(1.2116 -2.23983 3.91465e-20)
(1.21763 -2.19978 1.08208e-20)
(1.22278 -2.15946 2.05805e-20)
(1.22667 -2.11869 -6.68542e-20)
(1.20909 -4.61545 1.25432e-19)
(1.09261 -4.27549 -2.48722e-20)
(1.03746 -3.99652 4.44161e-20)
(1.00524 -3.77182 -1.31992e-20)
(0.986489 -3.59061 4.60968e-20)
(0.979878 -3.44263 4.42557e-20)
(0.982668 -3.3202 5.1025e-20)
(0.992288 -3.21741 -4.39658e-21)
(1.00678 -3.12961 -4.9877e-20)
(1.02459 -3.05323 7.37041e-20)
(1.04448 -2.9855 -5.99294e-21)
(1.0655 -2.9243 5.36909e-20)
(1.08689 -2.86799 1.96332e-20)
(1.10807 -2.81535 7.1343e-21)
(1.12861 -2.76545 1.22981e-20)
(1.14821 -2.71761 1.62726e-20)
(1.16665 -2.67131 2.76562e-20)
(1.18378 -2.62619 -8.03216e-21)
(1.19953 -2.58199 4.1293e-20)
(1.21384 -2.53852 1.93633e-20)
(1.22673 -2.49566 -4.06757e-20)
(1.23822 -2.45331 7.23156e-20)
(1.24836 -2.41141 -9.62732e-20)
(1.2572 -2.3699 9.2076e-20)
(1.2648 -2.32871 -3.06459e-20)
(1.27123 -2.28777 5.81186e-21)
(1.27654 -2.24698 -4.1014e-20)
(1.2808 -2.2062 2.29108e-20)
(1.28424 -2.16518 8.39952e-21)
(1.2864 -2.12379 -1.06646e-20)
(1.33031 -4.5856 -7.29947e-20)
(1.2071 -4.2553 7.36997e-20)
(1.14685 -3.98392 -2.0232e-20)
(1.11084 -3.76561 5.89621e-20)
(1.08925 -3.58978 5.56649e-21)
(1.08043 -3.4462 1.32857e-20)
(1.08144 -3.32728 -1.03872e-19)
(1.08952 -3.2272 -1.81517e-20)
(1.10262 -3.14144 6.85522e-20)
(1.11908 -3.06651 5.36435e-20)
(1.13763 -2.99972 -9.15055e-20)
(1.15726 -2.93903 5.41084e-20)
(1.17719 -2.88288 -5.46023e-20)
(1.19685 -2.83012 3.86121e-20)
(1.2158 -2.77986 -6.41815e-20)
(1.23373 -2.73147 -4.86683e-20)
(1.25042 -2.68448 2.98723e-21)
(1.26576 -2.63857 -2.28981e-20)
(1.27966 -2.5935 4.10269e-20)
(1.2921 -2.54912 1.61963e-20)
(1.30309 -2.50533 -1.07789e-20)
(1.31266 -2.46205 -3.34737e-21)
(1.32089 -2.41924 1.3026e-20)
(1.32782 -2.37685 -4.33212e-20)
(1.33354 -2.33483 7.36345e-20)
(1.33811 -2.29311 -1.7849e-20)
(1.34158 -2.2516 -1.48603e-21)
(1.34406 -2.21015 6.54349e-20)
(1.34576 -2.16852 8.94973e-21)
(1.34616 -2.12658 -9.42537e-21)
(1.45084 -4.5527 1.83108e-21)
(1.32136 -4.23234 -4.10113e-20)
(1.25638 -3.96872 -3.88753e-20)
(1.21687 -3.7569 -6.34213e-20)
(1.19268 -3.58649 1.59875e-21)
(1.18184 -3.4473 -4.69618e-20)
(1.18118 -3.33186 5.59646e-20)
(1.18782 -3.23445 -4.80963e-21)
(1.19956 -3.15067 4.75418e-20)
(1.21469 -3.07713 -3.86919e-20)
(1.23188 -3.01122 -2.06544e-20)
(1.25008 -2.95099 1.13014e-20)
(1.26851 -2.89496 6.15339e-21)
(1.28657 -2.84202 -6.45798e-20)
(1.30385 -2.79137 3.86445e-20)
(1.32002 -2.74241 -1.98539e-20)
(1.33489 -2.69472 5.56943e-20)
(1.34834 -2.64802 -1.86394e-20)
(1.36031 -2.60209 1.99145e-20)
(1.37079 -2.55682 4.75968e-21)
(1.3798 -2.51213 3.40206e-20)
(1.38739 -2.46796 -6.99609e-21)
(1.39364 -2.42428 5.67102e-20)
(1.39861 -2.38107 -6.30694e-20)
(1.4024 -2.33827 -2.13492e-20)
(1.40506 -2.29583 1.77773e-20)
(1.40667 -2.25367 -1.44485e-21)
(1.40732 -2.21163 -3.14577e-20)
(1.40726 -2.16946 2.58112e-20)
(1.4059 -2.12707 -3.13144e-20)
(1.5706 -4.51675 1.25813e-19)
(1.43532 -4.20659 3.61089e-20)
(1.36598 -3.95089 4.22894e-20)
(1.32329 -3.74563 5.89908e-20)
(1.29672 -3.58067 8.85205e-20)
(1.28404 -3.44586 -2.07704e-21)
(1.28184 -3.33385 1.27477e-20)
(1.2871 -3.23906 1.03885e-19)
(1.29752 -3.1572 -2.11568e-20)
(1.31132 -3.08498 -3.87278e-20)
(1.32712 -3.01989 7.01333e-20)
(1.34386 -2.96007 1.22649e-20)
(1.36072 -2.90411 1.00002e-21)
(1.37713 -2.85097 1.71424e-20)
(1.39264 -2.79991 3.16846e-20)
(1.40698 -2.75037 -6.59188e-20)
(1.41994 -2.70197 5.65987e-20)
(1.43142 -2.65448 9.95857e-21)
(1.44138 -2.60771 5.65068e-20)
(1.44982 -2.56158 -3.0382e-20)
(1.45677 -2.51601 5.15235e-20)
(1.46231 -2.471 -5.4781e-20)
(1.46651 -2.4265 5.37318e-20)
(1.46947 -2.38252 7.58846e-21)
(1.47127 -2.33901 -3.61768e-20)
(1.47199 -2.29593 -1.2017e-20)
(1.4717 -2.25319 7.10503e-20)
(1.47051 -2.21065 5.19898e-20)
(1.46868 -2.16802 1.40712e-20)
(1.46554 -2.12527 -1.00014e-20)
(1.68952 -4.47777 1.35462e-20)
(1.54893 -4.17803 3.17912e-20)
(1.47561 -3.93039 1.27587e-19)
(1.43002 -3.73176 -2.09253e-19)
(1.40132 -3.57224 -2.0925e-20)
(1.38695 -3.44179 -2.24111e-20)
(1.38334 -3.33316 1.04727e-20)
(1.38729 -3.24094 1.51258e-20)
(1.39642 -3.16093 2.4281e-20)
(1.40889 -3.08997 -6.47523e-20)
(1.42327 -3.02565 -1.31051e-20)
(1.43849 -2.96619 3.80032e-20)
(1.45372 -2.91026 4.16069e-20)
(1.46839 -2.8569 -4.10395e-20)
(1.48207 -2.80539 -4.12065e-20)
(1.49448 -2.75526 6.74598e-20)
(1.50545 -2.70617 4.50437e-20)
(1.51488 -2.6579 -1.09581e-20)
(1.52274 -2.61032 -2.88448e-20)
(1.52906 -2.56335 5.76725e-21)
(1.53389 -2.51697 -6.84671e-20)
(1.53731 -2.47115 8.37087e-20)
(1.53941 -2.42589 -5.74089e-20)
(1.5403 -2.38121 -2.47286e-21)
(1.54007 -2.33706 3.88165e-20)
(1.53882 -2.29341 -1.19494e-20)
(1.5366 -2.25017 -3.65071e-20)
(1.53355 -2.2072 4.53241e-20)
(1.52994 -2.16422 -1.10424e-21)
(1.52502 -2.1212 8.29917e-21)
(1.80751 -4.43577 -9.21969e-21)
(1.66211 -4.14666 -3.21943e-20)
(1.58519 -3.90718 -1.48459e-19)
(1.53701 -3.71522 5.38932e-20)
(1.5064 -3.56115 -1.66319e-20)
(1.49052 -3.43501 5.61823e-20)
(1.48558 -3.32972 4.51468e-21)
(1.48829 -3.23999 -6.55148e-20)
(1.49615 -3.16178 1.01439e-19)
(1.50728 -3.09202 -9.20327e-20)
(1.52021 -3.02841 -3.92067e-21)
(1.53386 -2.96927 2.33105e-20)
(1.5474 -2.91334 -3.97631e-20)
(1.56026 -2.85972 4.67999e-20)
(1.57202 -2.80777 -8.91488e-20)
(1.58242 -2.75705 -2.05328e-20)
(1.59131 -2.70727 5.52861e-20)
(1.5986 -2.65825 2.69257e-22)
(1.60429 -2.60988 -3.55551e-20)
(1.60841 -2.56212 9.7923e-20)
(1.61104 -2.51495 -5.28388e-20)
(1.61228 -2.46839 -7.13033e-20)
(1.61222 -2.42244 2.38315e-20)
(1.61099 -2.37711 -7.0338e-20)
(1.6087 -2.3324 -1.71207e-20)
(1.60544 -2.28826 -2.15852e-21)
(1.60128 -2.24462 -4.69614e-20)
(1.59636 -2.20132 5.63193e-20)
(1.59096 -2.15806 -3.14469e-20)
(1.58428 -2.11488 3.71095e-20)
(1.9245 -4.39077 -4.69067e-20)
(1.77479 -4.11246 -1.3333e-19)
(1.69466 -3.88123 6.53027e-20)
(1.64418 -3.69596 -6.36762e-20)
(1.61189 -3.54732 -4.65148e-20)
(1.59465 -3.42545 -2.74303e-20)
(1.5885 -3.32343 -1.02804e-19)
(1.59001 -3.23614 7.07189e-20)
(1.59662 -3.15965 -1.76872e-19)
(1.60639 -3.09103 -6.55652e-20)
(1.61784 -3.02808 2.34522e-20)
(1.62986 -2.96922 3.98982e-20)
(1.64164 -2.91325 -5.95154e-22)
(1.6526 -2.85936 -7.77e-20)
(1.66236 -2.80696 1.84523e-20)
(1.67067 -2.75566 -7.27056e-20)
(1.67739 -2.70522 -5.2631e-20)
(1.68246 -2.65547 -3.20404e-20)
(1.6859 -2.60636 -6.4144e-21)
(1.68775 -2.55785 5.53208e-20)
(1.68812 -2.50996 7.95722e-20)
(1.68712 -2.46271 -2.40828e-20)
(1.68485 -2.41613 -2.37616e-20)
(1.68146 -2.37024 4.59052e-20)
(1.67707 -2.32504 2.54465e-20)
(1.67177 -2.28049 -2.04366e-20)
(1.66565 -2.23653 -2.30919e-20)
(1.65886 -2.193 2.66918e-21)
(1.65168 -2.14957 2.40214e-20)
(1.64324 -2.10633 3.31617e-20)
(2.04043 -4.34279 -8.8083e-21)
(1.8869 -4.07542 1.71373e-19)
(1.80394 -3.85251 1.33675e-19)
(1.75147 -3.67394 1.04314e-19)
(1.71771 -3.53069 -6.8634e-20)
(1.69926 -3.41304 -1.37162e-20)
(1.692 -3.31423 1.20925e-20)
(1.69236 -3.22929 9.11347e-20)
(1.69773 -3.15446 3.44645e-20)
(1.70612 -3.08692 8.45257e-20)
(1.71604 -3.02459 -1.19924e-19)
(1.72637 -2.96596 1.20156e-20)
(1.73631 -2.90995 4.95722e-20)
(1.7453 -2.85578 3.11854e-20)
(1.75298 -2.80293 6.53292e-20)
(1.75911 -2.75106 -4.48067e-20)
(1.76358 -2.69997 -4.1843e-20)
(1.76635 -2.64954 7.81982e-21)
(1.76746 -2.59972 9.13016e-20)
(1.76698 -2.55052 -1.47718e-19)
(1.76502 -2.50196 5.17352e-20)
(1.76171 -2.4541 -3.10079e-22)
(1.75719 -2.40696 9.94451e-20)
(1.7516 -2.36059 -4.29986e-20)
(1.74507 -2.31498 -2.36907e-21)
(1.73772 -2.27012 -2.79513e-20)
(1.72963 -2.22594 2.66612e-20)
(1.72095 -2.18226 6.53846e-21)
(1.71201 -2.13876 -2.98641e-20)
(1.70184 -2.09558 1.01761e-19)
(2.1552 -4.29184 -1.7466e-19)
(1.99838 -4.03553 -1.04766e-19)
(1.91297 -3.82098 -2.70163e-19)
(1.8588 -3.6491 -1.2455e-19)
(1.82378 -3.5112 1.17212e-19)
(1.80428 -3.39771 -6.98423e-20)
(1.79598 -3.30203 -1.79219e-20)
(1.79524 -3.21938 -4.72021e-20)
(1.79937 -3.14615 8.15038e-20)
(1.80635 -3.07963 -1.93363e-20)
(1.81469 -3.01787 -3.03005e-20)
(1.82326 -2.95945 -3.6902e-21)
(1.83129 -2.90336 -1.24761e-19)
(1.83824 -2.8489 -5.46527e-21)
(1.84374 -2.79562 3.33717e-20)
(1.84761 -2.74321 -4.19602e-21)
(1.84975 -2.6915 -1.33026e-19)
(1.85014 -2.64043 1.30336e-19)
(1.84885 -2.58996 -1.29127e-19)
(1.84597 -2.54012 5.08057e-20)
(1.84163 -2.49097 7.26765e-21)
(1.83597 -2.44255 2.77452e-21)
(1.82915 -2.39494 -5.47117e-20)
(1.82132 -2.34816 1.87218e-20)
(1.81263 -2.30223 -6.60824e-23)
(1.8032 -2.25715 6.25051e-21)
(1.79312 -2.21284 -1.39713e-19)
(1.78257 -2.16913 3.79363e-20)
(1.77187 -2.12566 4.09052e-20)
(1.75999 -2.08263 4.60042e-20)
(2.26874 -4.23794 3.43085e-19)
(2.10914 -3.99278 1.21212e-19)
(2.02168 -3.78663 7.19741e-20)
(1.96609 -3.62141 1.14567e-19)
(1.93003 -3.48881 -1.41893e-20)
(1.9096 -3.37939 8.85511e-20)
(1.90034 -3.28677 1.98441e-19)
(1.89853 -3.20633 -2.50101e-20)
(1.90141 -3.13462 1.2242e-20)
(1.90696 -3.06908 2.41716e-19)
(1.91366 -3.00785 -3.20755e-20)
(1.92042 -2.94961 3.47213e-20)
(1.92646 -2.89344 -1.29599e-20)
(1.93127 -2.8387 -1.58349e-21)
(1.93453 -2.78499 1.82588e-19)
(1.93606 -2.73207 7.0056e-21)
(1.93578 -2.67979 1.97467e-19)
(1.93373 -2.62812 -2.45997e-20)
(1.92997 -2.57705 -4.34784e-20)
(1.92463 -2.52664 1.02016e-19)
(1.91784 -2.47696 -9.36116e-20)
(1.90978 -2.42807 1.03411e-19)
(1.90061 -2.38005 5.61333e-20)
(1.89051 -2.33295 -4.5604e-20)
(1.87963 -2.2868 7.00049e-20)
(1.86811 -2.24158 8.43276e-21)
(1.85604 -2.19725 -2.96444e-20)
(1.84362 -2.15361 1.60188e-20)
(1.83118 -2.11028 1.06404e-19)
(1.81762 -2.06753 1.65456e-20)
(2.38098 -4.18112 -5.9117e-20)
(2.21912 -3.94718 -1.2314e-19)
(2.12998 -3.74941 5.17366e-20)
(2.07326 -3.59082 -2.07073e-19)
(2.03636 -3.46344 9.9722e-20)
(2.01514 -3.35802 -1.83927e-19)
(2.00499 -3.26837 -1.22372e-19)
(2.00213 -3.19008 3.45743e-20)
(2.00375 -3.11983 3.48628e-20)
(2.00783 -3.0552 -1.68183e-19)
(2.01284 -2.99447 -7.3516e-20)
(2.01771 -2.93639 3.4466e-20)
(2.02169 -2.88013 -9.48757e-20)
(2.02429 -2.82513 -3.81016e-20)
(2.02522 -2.77102 -2.57877e-20)
(2.02432 -2.71761 -2.59415e-20)
(2.02156 -2.66481 -1.10508e-19)
(2.01699 -2.61259 -6.96302e-20)
(2.0107 -2.56099 1.24995e-20)
(2.00283 -2.51008 2.30273e-20)
(1.99355 -2.45994 2.4879e-20)
(1.98304 -2.41065 -8.59419e-20)
(1.97149 -2.36231 3.26043e-20)
(1.95908 -2.31498 -6.72916e-20)
(1.94599 -2.26868 6.38958e-20)
(1.93236 -2.22343 -8.40467e-20)
(1.9183 -2.17917 2.66062e-20)
(1.90401 -2.13572 -4.16089e-20)
(1.88985 -2.09265 -5.94488e-20)
(1.87464 -2.05028 -6.03365e-21)
(2.49184 -4.1214 -1.26553e-19)
(2.32823 -3.89871 -1.12644e-19)
(2.23781 -3.70933 -1.10788e-19)
(2.18023 -3.5573 -8.3292e-20)
(2.14268 -3.43506 2.57377e-19)
(2.12078 -3.33354 3.66929e-20)
(2.10982 -3.24678 1.12301e-19)
(2.10591 -3.17055 1.73335e-19)
(2.10627 -3.1017 8.42056e-20)
(2.10883 -3.03795 -1.12615e-19)
(2.11209 -2.97768 1.83493e-19)
(2.115 -2.91976 -1.793e-19)
(2.11684 -2.86341 1.71057e-19)
(2.11715 -2.80815 2.0567e-20)
(2.11567 -2.75368 4.43078e-20)
(2.11228 -2.69983 1.47773e-20)
(2.10697 -2.64655 1.81397e-19)
(2.09981 -2.59385 -2.70828e-20)
(2.09093 -2.54179 2.46579e-20)
(2.08048 -2.49044 8.29558e-20)
(2.06866 -2.43991 -9.30003e-20)
(2.05566 -2.39031 7.45495e-20)
(2.04169 -2.34172 3.03955e-21)
(2.02694 -2.29423 3.414e-20)
(2.01161 -2.24789 6.27183e-20)
(1.99586 -2.2027 -1.06319e-20)
(1.9798 -2.15862 6.23985e-20)
(1.96364 -2.11545 9.07707e-20)
(1.94779 -2.07276 -9.86655e-20)
(1.93097 -2.03091 -6.09153e-20)
(2.60125 -4.05881 3.7319e-19)
(2.43641 -3.84739 -4.22833e-20)
(2.34508 -3.66634 8.68644e-20)
(2.28693 -3.52081 1.5997e-19)
(2.24891 -3.40361 -4.65218e-19)
(2.22644 -3.3059 5.12175e-20)
(2.2147 -3.22194 -1.80058e-19)
(2.20977 -3.1477 1.82656e-19)
(2.20883 -3.08019 -1.46118e-19)
(2.20983 -3.01728 7.9285e-20)
(2.21128 -2.95745 -2.90282e-19)
(2.21216 -2.89966 8.25968e-21)
(2.21179 -2.84324 -9.76739e-20)
(2.20973 -2.78776 1.49023e-19)
(2.20577 -2.73295 -1.58959e-19)
(2.19981 -2.67871 -8.27733e-21)
(2.19188 -2.62501 -1.30555e-19)
(2.18207 -2.57189 -1.11567e-20)
(2.17055 -2.51943 1.11957e-20)
(2.15748 -2.46772 2.94384e-20)
(2.14307 -2.41689 -1.67032e-19)
(2.12755 -2.36704 -5.13929e-21)
(2.11112 -2.31829 -9.41581e-20)
(2.09401 -2.27073 -2.19106e-20)
(2.07642 -2.22442 -5.80848e-20)
(2.05852 -2.17938 -6.37625e-20)
(2.04044 -2.13558 -6.67925e-20)
(2.02242 -2.09281 1.10817e-19)
(2.00489 -2.05061 2.9948e-20)
(1.9865 -2.00941 -5.93336e-20)
(2.70912 -3.99338 -2.49107e-19)
(2.54357 -3.79321 9.33332e-20)
(2.45173 -3.62045 -1.6055e-19)
(2.39326 -3.48131 2.37553e-20)
(2.35495 -3.36905 2.66021e-19)
(2.332 -3.27505 -1.35759e-19)
(2.31953 -3.19379 -1.45421e-19)
(2.31358 -3.12146 -1.23822e-19)
(2.31131 -3.05524 5.65084e-21)
(2.31069 -2.99313 8.07465e-20)
(2.31028 -2.93372 -5.91912e-20)
(2.30906 -2.87608 2.26378e-21)
(2.3064 -2.81961 1.87052e-19)
(2.3019 -2.76392 -9.53176e-20)
(2.29538 -2.70882 2.53248e-20)
(2.28679 -2.65424 -7.82438e-20)
(2.27618 -2.60019 3.01023e-20)
(2.26368 -2.54672 6.51512e-20)
(2.24946 -2.49393 7.48884e-20)
(2.23372 -2.44195 -8.21748e-20)
(2.2167 -2.39088 1.16088e-20)
(2.19861 -2.34087 7.11729e-20)
(2.1797 -2.29203 1.2381e-19)
(2.1602 -2.24447 3.328e-20)
(2.14032 -2.19826 -1.29051e-19)
(2.12025 -2.15345 1.50696e-19)
(2.10014 -2.11003 -7.56922e-20)
(2.08026 -2.06778 -9.08489e-20)
(2.06106 -2.02619 -5.58259e-20)
(2.04114 -1.98577 -7.70129e-20)
(2.81539 -3.92514 1.3374e-19)
(2.64967 -3.7362 -1.07859e-19)
(2.55768 -3.57163 4.14461e-20)
(2.49916 -3.43877 2.21884e-19)
(2.46069 -3.33133 6.11884e-20)
(2.43736 -3.24093 -5.24701e-20)
(2.42418 -3.16229 1.28033e-19)
(2.4172 -3.0918 2.98114e-20)
(2.41357 -3.02682 1.24004e-19)
(2.4113 -2.96548 6.8625e-20)
(2.40895 -2.90648 3.34068e-21)
(2.40556 -2.849 4.40089e-20)
(2.40054 -2.79248 -1.39391e-20)
(2.39353 -2.73663 2.44838e-20)
(2.38439 -2.6813 6.91993e-20)
(2.37311 -2.62644 -3.81567e-20)
(2.35976 -2.5721 9.53303e-20)
(2.34451 -2.51836 9.72754e-20)
(2.32756 -2.46532 -1.11266e-19)
(2.30913 -2.41313 1.14962e-19)
(2.28945 -2.36191 2.45628e-19)
(2.26878 -2.31181 -1.59386e-19)
(2.24737 -2.26295 1.61311e-19)
(2.22544 -2.21545 -1.13081e-19)
(2.20325 -2.16942 -1.62393e-20)
(2.18099 -2.12491 1.22982e-19)
(2.15883 -2.08194 -2.49247e-20)
(2.13706 -2.04031 9.29478e-20)
(2.11619 -1.99946 9.28077e-20)
(2.09479 -1.95996 -1.8628e-19)
(2.91999 -3.85413 -1.29258e-19)
(2.75464 -3.67635 6.19426e-20)
(2.66288 -3.51987 2.53869e-20)
(2.60452 -3.39317 -2.61201e-19)
(2.56605 -3.29041 -1.36692e-19)
(2.54239 -3.2035 1.03788e-19)
(2.52853 -3.12739 -2.91358e-19)
(2.5205 -3.05868 3.55314e-19)
(2.51549 -2.9949 -2.00868e-19)
(2.51149 -2.9343 2.40121e-20)
(2.50714 -2.87571 -3.80672e-20)
(2.50153 -2.81839 -1.178e-19)
(2.49408 -2.76187 2.45875e-19)
(2.48449 -2.70591 9.38968e-20)
(2.47267 -2.65039 -9.71993e-20)
(2.45864 -2.59532 2.92219e-21)
(2.44251 -2.54076 5.53626e-20)
(2.42448 -2.48682 -1.19944e-19)
(2.40476 -2.43362 2.57279e-20)
(2.3836 -2.3813 8.4236e-20)
(2.36126 -2.33 -3.47943e-20)
(2.33799 -2.27988 5.85328e-20)
(2.31405 -2.23106 -1.15509e-19)
(2.28969 -2.18369 1.68367e-19)
(2.26515 -2.13788 3.97188e-20)
(2.24067 -2.09372 -1.07328e-19)
(2.21642 -2.05126 -9.33344e-20)
(2.19273 -2.01032 3.61324e-22)
(2.17019 -1.97033 1.29885e-19)
(2.14732 -1.93191 -3.14586e-20)
(3.02286 -3.78036 -3.54091e-20)
(2.85843 -3.61369 -2.59976e-19)
(2.76725 -3.46516 3.11888e-19)
(2.70927 -3.34444 2.13196e-19)
(2.6709 -3.24625 2.15184e-19)
(2.64697 -3.16271 6.11302e-20)
(2.63245 -3.08905 9.19001e-20)
(2.62336 -3.02207 4.76548e-20)
(2.61691 -2.95944 -1.88788e-19)
(2.61114 -2.89957 3.4854e-19)
(2.60474 -2.8414 -2.84118e-19)
(2.59682 -2.78426 -1.87924e-20)
(2.58687 -2.72778 4.23567e-20)
(2.57465 -2.67174 -1.88247e-19)
(2.5601 -2.61611 1.65707e-19)
(2.54327 -2.5609 -4.96261e-20)
(2.52432 -2.5062 -1.28584e-19)
(2.50347 -2.45214 5.013e-20)
(2.48097 -2.39886 -9.64798e-20)
(2.45707 -2.34649 -8.55765e-20)
(2.43205 -2.2952 -9.21817e-20)
(2.40618 -2.24512 2.09832e-20)
(2.37971 -2.19641 1.23889e-20)
(2.3529 -2.1492 -2.28913e-19)
(2.32601 -2.10364 -8.75101e-20)
(2.29927 -2.05984 5.65638e-20)
(2.27288 -2.01791 7.05031e-20)
(2.24722 -1.97772 -9.73927e-20)
(2.22296 -1.93868 -3.72212e-20)
(2.19862 -1.90147 3.76923e-21)
(3.12399 -3.70387 -3.09348e-20)
(2.96102 -3.54821 1.68262e-19)
(2.87075 -3.40745 -4.79455e-20)
(2.81331 -3.29257 -5.91784e-20)
(2.77512 -3.1988 -3.35598e-19)
(2.75097 -3.11854 -7.43154e-20)
(2.73579 -3.04725 1.43279e-19)
(2.72561 -2.98193 -9.50635e-20)
(2.71769 -2.92043 -1.01612e-20)
(2.71011 -2.86128 -1.89224e-20)
(2.70158 -2.80353 1.07557e-19)
(2.69129 -2.74662 -1.71373e-19)
(2.67879 -2.69021 -1.15585e-19)
(2.66388 -2.63417 1.3652e-19)
(2.64654 -2.57848 -7.84003e-20)
(2.62688 -2.52321 -9.49176e-20)
(2.60508 -2.46846 2.04091e-19)
(2.5814 -2.41437 -3.2115e-20)
(2.5561 -2.36109 1.21716e-19)
(2.52946 -2.30876 -1.12002e-19)
(2.50177 -2.25755 -9.10038e-20)
(2.4733 -2.20758 7.93668e-20)
(2.44431 -2.15902 -8.93097e-21)
(2.41506 -2.11202 -5.99653e-20)
(2.38582 -2.06671 5.29221e-20)
(2.3568 -2.02326 -1.65703e-19)
(2.32824 -1.98183 1.01279e-19)
(2.30053 -1.94237 -1.5746e-21)
(2.27447 -1.9043 -1.06436e-19)
(2.24866 -1.86838 1.62036e-19)
(3.22346 -3.62473 1.28393e-19)
(3.06245 -3.47992 -3.33244e-19)
(2.97331 -3.34671 -2.80205e-20)
(2.91653 -3.23749 1.58565e-19)
(2.87859 -3.14802 -4.15105e-20)
(2.85424 -3.07094 -1.17543e-19)
(2.8384 -3.00196 5.57755e-20)
(2.82712 -2.93826 6.48194e-20)
(2.81769 -2.87786 5.62411e-21)
(2.80823 -2.81943 8.07857e-20)
(2.79752 -2.76213 2.59674e-19)
(2.78481 -2.70547 -9.18396e-20)
(2.76971 -2.64919 2.39725e-20)
(2.75205 -2.59321 -6.25935e-20)
(2.73188 -2.53755 2.41557e-19)
(2.70935 -2.4823 -4.35357e-20)
(2.68469 -2.42759 1.4516e-19)
(2.65816 -2.37356 -5.65377e-20)
(2.63006 -2.32037 6.12405e-20)
(2.6007 -2.26818 9.28909e-20)
(2.57035 -2.21712 1.59712e-20)
(2.53931 -2.16734 6.29851e-20)
(2.50784 -2.11899 -5.23206e-20)
(2.47619 -2.0722 1.46273e-19)
(2.44461 -2.02714 -5.99782e-20)
(2.41333 -1.98398 2.20486e-19)
(2.38255 -1.94295 -6.38128e-20)
(2.35271 -1.90408 4.4105e-20)
(2.32476 -1.86687 -8.33915e-20)
(2.29748 -1.83226 1.58338e-19)
(3.32164 -3.54306 -2.8375e-19)
(3.16284 -3.40877 1.05449e-20)
(3.07485 -3.28284 -1.73587e-19)
(3.01877 -3.17913 3.19451e-20)
(2.98115 -3.09386 8.88117e-21)
(2.95663 -3.01989 -1.57237e-19)
(2.94014 -2.95315 -2.97285e-19)
(2.92774 -2.89104 1.49635e-19)
(2.91675 -2.83173 -2.13559e-19)
(2.90537 -2.77403 -1.13517e-19)
(2.89243 -2.7172 -6.51759e-20)
(2.87724 -2.66083 -5.29675e-20)
(2.85947 -2.60475 1.53512e-21)
(2.83903 -2.5489 -1.90225e-19)
(2.816 -2.49335 1.26059e-19)
(2.79058 -2.43822 -2.07256e-19)
(2.76303 -2.38364 -5.26508e-20)
(2.73365 -2.32977 5.7693e-20)
(2.70277 -2.27678 7.28928e-20)
(2.6707 -2.2248 7.3109e-20)
(2.63774 -2.17399 5.61451e-20)
(2.60417 -2.12448 -1.4118e-19)
(2.57028 -2.0764 1.43025e-19)
(2.5363 -2.02987 -1.52488e-20)
(2.50246 -1.98503 -3.86329e-20)
(2.46896 -1.94206 -1.53428e-19)
(2.43597 -1.9012 -8.16443e-20)
(2.40388 -1.86253 1.51527e-19)
(2.37375 -1.82567 -4.9622e-20)
(2.34471 -1.79244 -5.17154e-20)
(3.41898 -3.45852 1.23444e-19)
(3.26219 -3.33432 1.14721e-20)
(3.17519 -3.21562 -3.4381e-20)
(3.11984 -3.11742 -7.49108e-21)
(3.08261 -3.03631 -6.28701e-20)
(3.05798 -2.9654 2.1246e-19)
(3.04085 -2.90086 -1.00874e-19)
(3.02732 -2.8403 6.63076e-20)
(3.01474 -2.78207 2.77654e-20)
(3.00138 -2.7251 1.01e-19)
(2.98615 -2.66877 -3.94371e-20)
(2.96844 -2.61276 2.23488e-19)
(2.94796 -2.55693 -1.94311e-20)
(2.92469 -2.5013 1.47053e-19)
(2.89877 -2.44595 -2.48146e-19)
(2.87044 -2.39102 -1.90947e-20)
(2.84 -2.33668 1.62291e-19)
(2.80778 -2.28308 -1.01111e-19)
(2.77414 -2.23038 -7.14213e-20)
(2.73939 -2.17874 -1.23385e-19)
(2.70386 -2.12829 -1.08777e-19)
(2.66785 -2.07915 1.17132e-19)
(2.63163 -2.03143 -1.10489e-19)
(2.59545 -1.98522 2.42977e-20)
(2.55953 -1.94064 8.98803e-20)
(2.52404 -1.8978 6.23952e-20)
(2.48913 -1.85682 5.94448e-20)
(2.45499 -1.81766 4.37965e-20)
(2.4222 -1.78038 -1.1855e-19)
(2.39031 -1.74809 -5.09087e-20)
(5.01138 -0.0292308 1.8287e-21)
(5.00387 -0.16104 1.81125e-20)
(4.99324 -0.291886 6.28736e-20)
(4.97947 -0.422047 3.43704e-20)
(4.96234 -0.551582 -7.26906e-20)
(4.94178 -0.680457 2.20115e-20)
(4.91781 -0.808605 -2.30474e-20)
(4.89045 -0.935947 -5.82066e-20)
(4.85972 -1.06239 1.48296e-19)
(4.82566 -1.18786 -3.53553e-20)
(4.78829 -1.31226 -3.56444e-20)
(4.74767 -1.4355 -7.53212e-20)
(4.70382 -1.55751 -2.15663e-19)
(4.6568 -1.67818 1.99859e-20)
(4.60664 -1.79745 -9.67062e-21)
(4.5534 -1.91524 -6.72459e-20)
(4.49712 -2.03145 1.44029e-19)
(4.43786 -2.14603 7.80452e-20)
(4.37566 -2.25889 1.49093e-19)
(4.31058 -2.36996 7.26989e-20)
(4.24268 -2.47917 -1.62725e-19)
(4.17202 -2.58646 6.56666e-21)
(4.09865 -2.69175 -3.06491e-19)
(4.02263 -2.79498 4.64905e-19)
(3.94404 -2.8961 -1.52303e-19)
(3.86293 -2.99505 -1.96103e-19)
(3.77938 -3.09178 -2.74385e-20)
(3.69345 -3.18627 -1.58452e-21)
(3.60526 -3.2786 -1.4683e-19)
(3.51475 -3.36914 2.61261e-19)
(5.03573 -0.0584305 7.5806e-21)
(5.02254 -0.190307 1.11933e-20)
(5.00565 -0.321084 2.78048e-21)