/*--------------------------------*- C++ -*----------------------------------*\
| =========                 |                                                 |
| \\      /  F ield         | OpenFOAM: The Open Source CFD Toolbox           |
|  \\    /   O peration     | Version:  v1912                                 |
|   \\  /    A nd           | Website:  www.openfoam.com                      |
|    \\/     M anipulation  |                                                 |
\*---------------------------------------------------------------------------*/
FoamFile
{
    version     2.0;
    format      ascii;
    class       volScalarField;
    location    "68.5";
    object      p;
}
// * * * * * * * * * * * * * * * * * * * * * * * * * * * * * * * * * * * * * //

dimensions      [0 2 -2 0 0 0 0];


internalField   nonuniform List<scalar> 
9600
(
-41.4881
-36.2234
-32.9966
-30.2595
-27.7542
-25.4875
-23.4309
-21.5567
-19.8475
-18.2894
-16.8699
-15.5771
-14.3995
-13.3265
-12.3479
-11.4544
-10.6374
-9.88906
-9.2019
-8.57369
-42.2481
-36.9659
-33.7031
-30.9232
-28.3727
-26.0619
-23.9639
-22.0519
-20.3088
-18.7207
-17.2748
-15.9588
-14.761
-13.67
-12.6755
-11.7678
-10.938
-10.178
-9.47966
-8.84218
-43.0098
-37.7044
-34.4043
-31.5812
-28.9854
-26.6302
-24.4909
-22.5412
-20.7644
-19.1465
-17.6746
-16.3357
-15.1179
-14.0093
-12.9991
-12.0774
-11.235
-10.4632
-9.75385
-9.10728
-43.77
-38.4384
-35.0996
-32.2328
-29.5912
-27.1916
-25.0109
-23.0238
-21.2135
-19.5662
-18.0685
-16.7072
-15.4696
-14.3436
-13.3181
-12.3825
-11.5277
-10.7444
-10.024
-9.36865
-44.5256
-39.1666
-35.788
-32.8767
-30.1892
-27.7451
-25.523
-23.4986
-21.6552
-19.9789
-18.4558
-17.0724
-15.8154
-14.6725
-13.6318
-12.6828
-11.8157
-11.021
-10.2899
-9.62602
-45.2746
-39.8873
-36.4683
-33.512
-30.7782
-28.2895
-26.0263
-23.9648
-22.0888
-20.3839
-18.8359
-17.4307
-16.1549
-14.9953
-13.9398
-12.9776
-12.0985
-11.2927
-10.551
-9.87912
-46.0152
-40.5991
-37.1392
-34.1374
-31.3571
-28.8239
-26.5198
-24.4216
-22.5133
-20.7802
-19.2078
-17.7815
-16.4871
-15.3113
-14.2415
-13.2665
-12.3758
-11.5591
-10.8071
-10.1277
-46.7459
-41.3007
-37.7995
-34.7519
-31.925
-29.3473
-27.0025
-24.8681
-22.9279
-21.1673
-19.571
-18.1239
-16.8116
-15.62
-14.5363
-13.5489
-12.647
-11.8198
-11.0579
-10.3713
-47.4653
-41.9907
-38.448
-35.3543
-32.4807
-29.8587
-27.4736
-25.3033
-23.3319
-21.5441
-19.9245
-18.4573
-17.1275
-15.9207
-14.8236
-13.8241
-12.9114
-12.0742
-11.3028
-10.6098
-48.1722
-42.6679
-39.0836
-35.9435
-33.0233
-30.3572
-27.9321
-25.7265
-23.7243
-21.91
-20.2676
-18.7809
-17.4341
-16.2126
-15.1025
-14.0916
-13.1687
-12.3217
-11.5414
-10.8427
-48.8655
-43.3313
-39.7051
-36.5185
-33.5517
-30.8419
-28.3771
-26.1367
-24.1043
-22.2641
-20.5995
-19.0938
-17.7306
-16.4948
-15.3724
-14.3505
-13.4178
-12.5618
-11.773
-11.0694
-49.5442
-43.9798
-40.3116
-37.0784
-34.0651
-31.3117
-28.8078
-26.5331
-24.4711
-22.6056
-20.9194
-19.3951
-18.0161
-16.7666
-15.6322
-14.6
-13.658
-12.7935
-11.9969
-11.289
-50.2075
-44.6125
-40.9022
-37.6223
-34.5625
-31.766
-29.2234
-26.9149
-24.8238
-22.9336
-21.2263
-19.684
-18.2896
-17.0269
-15.8811
-14.839
-13.8884
-13.016
-12.2121
-11.5009
-50.855
-45.2287
-41.4759
-38.1493
-35.0433
-32.2038
-29.6231
-27.2813
-25.1618
-23.2473
-21.5193
-19.9595
-18.5501
-17.2745
-16.1176
-15.0661
-14.1074
-13.2278
-12.4176
-11.7044
-51.486
-45.8275
-42.0321
-38.6587
-35.5066
-32.6247
-30.0062
-27.6317
-25.4843
-23.546
-21.7978
-20.2207
-18.7965
-17.5082
-16.3405
-15.2796
-14.3132
-13.4268
-12.6111
-11.8975
-52.1002
-46.4082
-42.57
-39.1499
-35.952
-33.0279
-30.3723
-27.9656
-25.7907
-23.829
-22.0609
-20.4668
-19.0279
-17.727
-16.5483
-15.4782
-14.5038
-13.6108
-12.7899
-12.075
-52.6987
-46.9706
-43.089
-39.6221
-36.3786
-33.4129
-30.7206
-28.2825
-26.0806
-24.0959
-22.3081
-20.697
-19.2435
-17.9298
-16.7402
-15.6608
-14.679
-13.7797
-12.9529
-12.2334
-53.2859
-47.5159
-43.5882
-40.0743
-36.7856
-33.7789
-31.0508
-28.5819
-26.3536
-24.3463
-22.5389
-20.9107
-19.4419
-18.1149
-16.9137
-15.8249
-14.836
-13.931
-13.0992
-12.3841
-53.8639
-48.0436
-44.066
-40.5053
-37.1726
-34.1262
-31.3632
-28.8643
-26.6103
-24.5808
-22.7538
-21.1079
-19.623
-18.2808
-17.0654
-15.9637
-14.9628
-14.0469
-13.2139
-12.5313
-54.4109
-48.5459
-44.5216
-40.9159
-37.5409
-34.4561
-31.6594
-29.1314
-26.8525
-24.8012
-22.9549
-21.2913
-19.7893
-18.4302
-17.1972
-16.0758
-15.0511
-14.1095
-13.2656
-12.5892
-59.8678
-59.8363
-59.767
-59.6746
-59.5582
-59.4154
-59.2458
-59.0497
-58.8278
-58.5805
-58.3085
-58.0124
-57.6927
-57.3502
-56.9856
-56.5998
-56.1939
-55.7696
-55.3297
-54.8774
-53.5188
-53.5162
-53.4804
-53.4171
-53.3269
-53.2094
-53.0648
-52.8937
-52.697
-52.4752
-52.2289
-51.9587
-51.6654
-51.3494
-51.0114
-50.6522
-50.2722
-49.8722
-49.4525
-49.0111
-48.8744
-48.8962
-48.8886
-48.8522
-48.7884
-48.6979
-48.5815
-48.4396
-48.273
-48.0822
-47.8679
-47.6305
-47.3706
-47.0888
-46.7856
-46.4614
-46.1166
-45.7511
-45.3646
-44.9553
-44.6435
-44.683
-44.6959
-44.6816
-44.6412
-44.5755
-44.4853
-44.3712
-44.2336
-44.0732
-43.8904
-43.6858
-43.4599
-43.2131
-42.9458
-42.6584
-42.351
-42.0235
-41.6757
-41.3067
-40.7314
-40.7808
-40.8062
-40.8069
-40.7834
-40.7364
-40.6667
-40.5746
-40.4607
-40.3255
-40.1696
-39.9933
-39.7972
-39.5817
-39.347
-39.0936
-38.8214
-38.5304
-38.2204
-37.8908
-37.2179
-37.2714
-37.3033
-37.3127
-37.2998
-37.2652
-37.2096
-37.1334
-37.0371
-36.9212
-36.7862
-36.6326
-36.4607
-36.2711
-36.064
-35.8396
-35.5981
-35.3393
-35.0632
-34.7691
-34.0939
-34.1474
-34.1811
-34.1943
-34.1869
-34.1596
-34.1129
-34.0474
-33.9633
-33.8613
-33.7418
-33.6054
-33.4523
-33.2831
-33.0982
-32.8977
-32.6818
-32.4505
-32.2034
-31.94
-31.3228
-31.3735
-31.4059
-31.4193
-31.4139
-31.3901
-31.3484
-31.2894
-31.2134
-31.1209
-31.0125
-30.8886
-30.7497
-30.5963
-30.4288
-30.2475
-30.0525
-29.8439
-29.6213
-29.3842
-28.8646
-28.9108
-28.94
-28.9517
-28.9459
-28.9231
-28.8838
-28.8284
-28.7574
-28.6713
-28.5705
-28.4557
-28.3273
-28.1859
-28.032
-27.866
-27.688
-27.4981
-27.2961
-27.0813
-26.6797
-26.7207
-26.7458
-26.7546
-26.7471
-26.7239
-26.6852
-26.6317
-26.5636
-26.4816
-26.3861
-26.2778
-26.1572
-26.0249
-25.8816
-25.7277
-25.5636
-25.3894
-25.2049
-25.0093
-24.7307
-24.7664
-24.7872
-24.7927
-24.7829
-24.7584
-24.7194
-24.6666
-24.6002
-24.5208
-24.429
-24.3254
-24.2106
-24.0853
-23.9503
-23.8062
-23.6535
-23.4926
-23.3232
-23.1445
-22.9849
-23.0155
-23.032
-23.0341
-23.0219
-22.9957
-22.9561
-22.9033
-22.8378
-22.7602
-22.671
-22.5708
-22.4604
-22.3405
-22.2121
-22.076
-21.9329
-21.7833
-21.6272
-21.4639
-21.4138
-21.4399
-21.4524
-21.4513
-21.4367
-21.4089
-21.3683
-21.3153
-21.2503
-21.1739
-21.0866
-20.989
-20.882
-20.7663
-20.6432
-20.5135
-20.3784
-20.2387
-20.0948
-19.9457
-19.9938
-20.0157
-20.0247
-20.0207
-20.0039
-19.9745
-19.933
-19.8798
-19.8151
-19.7396
-19.6537
-19.5581
-19.4537
-19.3414
-19.2224
-19.0979
-18.9695
-18.8383
-18.7056
-18.5702
-18.7051
-18.7232
-18.7291
-18.7225
-18.7037
-18.673
-18.6307
-18.5772
-18.5128
-18.4379
-18.3532
-18.2593
-18.1569
-18.0472
-17.9313
-17.8108
-17.6878
-17.5639
-17.4417
-17.3198
-17.531
-17.5458
-17.5488
-17.54
-17.5195
-17.4876
-17.4447
-17.3909
-17.3268
-17.2526
-17.1688
-17.0762
-16.9754
-16.8675
-16.7539
-16.6362
-16.5172
-16.3991
-16.2865
-16.1778
-16.4578
-16.4696
-16.4701
-16.4593
-16.4374
-16.4045
-16.3609
-16.307
-16.243
-16.1693
-16.0863
-15.9946
-15.895
-15.7882
-15.6758
-15.5596
-15.4429
-15.3286
-15.2241
-15.1272
-15.4735
-15.483
-15.4816
-15.4693
-15.4462
-15.4126
-15.3688
-15.3149
-15.2512
-15.178
-15.0957
-15.0049
-14.906
-14.7998
-14.6878
-14.5717
-14.4553
-14.3424
-14.2449
-14.1572
-14.5671
-14.5752
-14.5728
-14.56
-14.5369
-14.5037
-14.4605
-14.4077
-14.3454
-14.2738
-14.1934
-14.1044
-14.0074
-13.9029
-13.7919
-13.6761
-13.559
-13.4457
-13.3551
-13.2815
-13.7333
-13.7381
-13.7332
-13.7186
-13.6944
-13.6608
-13.6179
-13.566
-13.5051
-13.4356
-13.3576
-13.2713
-13.1772
-13.0755
-12.9667
-12.852
-12.733
-12.6151
-12.518
-12.4688
-53.5741
-54.1497
-54.6881
-55.2115
-55.7169
-56.1984
-56.6531
-57.08
-57.4781
-57.8466
-58.1847
-58.492
-58.7682
-59.0128
-59.2253
-59.4057
-59.5548
-59.674
-59.7651
-59.8301
-47.0909
-47.6719
-48.2247
-48.7552
-49.2628
-49.7452
-50.2009
-50.6292
-51.0294
-51.401
-51.7433
-52.0561
-52.3397
-52.5947
-52.8189
-53.0118
-53.1741
-53.306
-53.4082
-53.4794
-42.4464
-43.0151
-43.5601
-44.0816
-44.5797
-45.0537
-45.5027
-45.9259
-46.323
-46.693
-47.0351
-47.3491
-47.6346
-47.8904
-48.1178
-48.3169
-48.4876
-48.6294
-48.742
-48.8241
-38.3222
-38.8655
-39.3892
-39.8913
-40.3712
-40.8286
-41.2629
-41.6735
-42.0598
-42.421
-42.756
-43.0642
-43.3466
-43.6027
-43.8326
-44.0361
-44.2126
-44.362
-44.4839
-44.5778
-34.6442
-35.1575
-35.6538
-36.1304
-36.5863
-37.0213
-37.4348
-37.826
-38.1943
-38.5391
-38.8611
-39.1598
-39.4337
-39.6831
-39.9081
-40.1084
-40.2837
-40.4337
-40.5585
-40.6579
-31.4454
-31.9273
-32.3937
-32.8422
-33.2715
-33.6813
-34.0709
-34.4399
-34.7878
-35.1143
-35.4191
-35.7018
-35.9617
-36.1989
-36.4138
-36.6061
-36.7751
-36.9208
-37.0433
-37.1425
-28.6734
-29.1244
-29.5612
-29.9813
-30.3836
-30.7675
-31.1325
-31.4782
-31.8042
-32.1102
-32.3958
-32.6607
-32.9046
-33.1273
-33.3285
-33.5101
-33.6702
-33.8085
-33.9251
-34.0205
-26.2613
-26.6834
-27.0921
-27.4852
-27.8615
-28.2203
-28.5614
-28.8842
-29.1883
-29.4735
-29.7396
-29.9864
-30.2137
-30.4215
-30.6097
-30.7767
-30.9262
-31.0555
-31.1645
-31.2537
-24.1505
-24.5461
-24.929
-25.2972
-25.6493
-25.9848
-26.3032
-26.6042
-26.8875
-27.1529
-27.4002
-27.6294
-27.8404
-28.033
-28.2072
-28.3631
-28.4994
-28.6186
-28.7192
-28.8013
-22.2907
-22.6625
-23.0222
-23.3677
-23.6978
-24.0118
-24.3094
-24.5902
-24.8542
-25.1011
-25.3309
-25.5435
-25.7389
-25.917
-26.0779
-26.2213
-26.3472
-26.4559
-26.5479
-26.6226
-20.6404
-20.991
-21.33
-21.6552
-21.9654
-22.2598
-22.5384
-22.8008
-23.047
-23.2769
-23.4905
-23.6878
-23.8689
-24.0336
-24.1819
-24.3139
-24.4296
-24.5288
-24.6124
-24.6798
-19.1659
-19.4977
-19.8185
-20.1257
-20.4179
-20.6946
-20.9558
-21.2014
-21.4313
-21.6457
-21.8445
-22.0279
-22.1958
-22.3482
-22.4852
-22.6068
-22.713
-22.8038
-22.8792
-22.9398
-17.8402
-18.1555
-18.4604
-18.7516
-19.0277
-19.2883
-19.5337
-19.7638
-19.9789
-20.1791
-20.3644
-20.535
-20.691
-20.8323
-20.959
-21.0711
-21.1686
-21.2515
-21.3195
-21.3741
-16.6418
-16.9426
-17.2339
-17.511
-17.7724
-18.0183
-18.2491
-18.465
-18.6665
-18.8536
-19.0266
-19.1857
-19.3308
-19.462
-19.5794
-19.683
-19.7727
-19.8486
-19.9111
-19.9591
-15.5534
-15.8421
-16.1218
-16.3862
-16.6341
-16.8662
-17.0835
-17.2863
-17.4751
-17.6502
-17.8119
-17.9604
-18.0957
-18.2178
-18.3268
-18.4226
-18.5053
-18.5749
-18.6314
-18.6746
-14.5605
-14.8407
-15.1112
-15.3637
-15.5986
-15.8179
-16.0223
-16.2126
-16.3895
-16.5535
-16.7048
-16.8436
-16.9699
-17.0837
-17.1851
-17.2739
-17.3503
-17.4141
-17.4655
-17.5043
-13.6454
-13.9244
-14.1898
-14.4308
-14.6531
-14.8599
-15.0521
-15.2307
-15.3965
-15.5502
-15.6919
-15.8219
-15.94
-16.0464
-16.1408
-16.2234
-16.2941
-16.3529
-16.3997
-16.4346
-12.7873
-13.0705
-13.3372
-13.5689
-13.7791
-13.9743
-14.1553
-14.3233
-14.4794
-14.6241
-14.7576
-14.88
-14.9913
-15.0914
-15.1802
-15.2576
-15.3236
-15.3782
-15.4214
-15.4533
-11.9999
-12.2736
-12.541
-12.7678
-12.9679
-13.1517
-13.3222
-13.4807
-13.6281
-13.7648
-13.8911
-14.0071
-14.1125
-14.2074
-14.2915
-14.3647
-14.4271
-14.4785
-14.5189
-14.5485
-11.4091
-11.66
-11.8878
-12.1046
-12.293
-12.4589
-12.6129
-12.7572
-12.8912
-13.0154
-13.1302
-13.2354
-13.331
-13.4166
-13.4923
-13.5579
-13.6133
-13.6585
-13.6934
-13.7179
-6.00721
-6.49858
-7.03702
-7.61949
-8.25242
-8.9432
-9.69949
-10.5308
-11.4492
-12.4704
-13.6149
-14.9096
-16.3898
-18.1018
-20.1059
-22.4814
-25.3096
-28.6127
-32.6102
-38.6062
-6.27786
-6.78276
-7.33173
-7.92627
-8.57298
-9.27895
-10.052
-10.9017
-11.8407
-12.8848
-14.0549
-15.3782
-16.8905
-18.6385
-20.6828
-23.1025
-25.9777
-29.3276
-33.3636
-39.3807
-6.54994
-7.06838
-7.62799
-8.23484
-8.89558
-9.61699
-10.407
-11.2756
-12.2354
-13.3027
-14.4987
-15.8509
-17.3958
-19.1801
-21.2648
-23.7286
-26.6504
-30.0461
-34.1188
-40.1523
-6.82295
-7.35488
-7.92521
-8.54458
-9.21957
-9.95663
-10.7638
-11.6514
-12.6323
-13.723
-14.9451
-16.3266
-17.9042
-19.725
-21.8502
-24.3581
-27.3263
-30.7675
-34.878
-40.9328
-7.09647
-7.64179
-8.22293
-8.85501
-9.54446
-10.2973
-11.1219
-12.0287
-13.0308
-14.1452
-15.3936
-16.8045
-18.4148
-20.2724
-22.4381
-24.99
-28.0046
-31.4913
-35.6403
-41.7195
-7.3701
-7.9287
-8.52071
-9.16572
-9.86981
-10.6387
-11.4808
-12.4069
-13.4304
-14.5685
-15.8434
-17.2838
-18.9272
-20.8214
-23.0277
-25.6238
-28.6845
-32.2166
-36.4038
-42.5084
-7.64355
-8.21527
-8.81818
-9.4763
-10.1952
-10.9802
-11.84
-12.7855
-13.8306
-14.9926
-16.294
-17.7641
-19.4405
-21.3715
-23.6185
-26.2585
-29.3652
-32.9422
-37.1669
-43.297
-7.91656
-8.50118
-9.11502
-9.78642
-10.5203
-11.3215
-12.199
-13.1641
-14.2307
-15.4167
-16.7447
-18.2445
-19.954
-21.9219
-24.2093
-26.8932
-30.0455
-33.6669
-37.9283
-44.084
-8.18897
-8.78624
-9.41099
-10.0958
-10.8447
-11.6623
-12.5575
-13.5421
-14.6304
-15.8403
-17.195
-18.7244
-20.4669
-22.4715
-24.7994
-27.5268
-30.7244
-34.3897
-38.687
-44.8678
-8.46075
-9.07035
-9.70593
-10.4042
-11.1682
-12.0021
-12.9151
-13.9193
-15.029
-16.2628
-17.6441
-19.203
-20.9786
-23.0198
-25.3878
-28.1584
-31.4008
-35.1094
-39.4415
-45.6469
-8.732
-9.35353
-9.99978
-10.7116
-11.4907
-12.3408
-13.2714
-14.295
-15.4262
-16.6837
-18.0913
-19.6798
-21.4881
-23.5656
-25.9736
-28.787
-32.0735
-35.8247
-40.1906
-46.4199
-9.00302
-9.63596
-10.2926
-11.0178
-11.8119
-12.678
-13.6261
-14.6688
-15.8213
-17.1023
-18.5362
-20.1538
-21.9947
-24.1083
-26.5557
-29.4114
-32.7415
-36.5343
-40.9328
-47.1853
-9.2743
-9.91792
-10.5845
-11.3229
-12.1316
-13.0135
-13.9788
-15.0404
-16.2138
-17.5181
-18.9779
-20.6244
-22.4975
-24.6468
-27.1332
-30.0307
-33.4035
-37.2372
-41.667
-47.9419
-9.54655
-10.1998
-10.8756
-11.6268
-12.4497
-13.3469
-14.329
-15.4091
-16.6031
-17.9303
-19.4156
-21.0907
-22.9955
-25.1801
-27.7051
-30.6435
-34.0583
-37.9319
-42.3917
-48.6882
-9.82053
-10.482
-11.166
-11.9292
-12.7658
-13.6777
-14.6761
-15.7744
-16.9885
-18.3382
-19.8486
-21.5517
-23.4879
-25.7072
-28.2701
-31.2488
-34.7047
-38.6174
-43.1058
-49.4232
-10.0972
-10.7648
-11.4554
-12.2297
-13.0792
-14.0053
-15.0194
-16.1353
-17.3691
-18.7408
-20.2759
-22.0066
-23.9737
-26.227
-28.8271
-31.8453
-35.3414
-39.2922
-43.8082
-50.1457
-10.3764
-11.0469
-11.7423
-12.5268
-13.3887
-14.3286
-15.358
-16.491
-17.744
-19.1373
-20.6965
-22.4544
-24.4516
-26.7384
-29.3749
-32.4317
-35.9669
-39.955
-44.4978
-50.8554
-10.6574
-11.3259
-12.0242
-12.8187
-13.6931
-14.6464
-15.6907
-16.8405
-18.1122
-19.5266
-21.1095
-22.8938
-24.9206
-27.2401
-29.9122
-33.0065
-36.5798
-40.6042
-45.1734
-51.552
-10.9328
-11.5935
-12.295
-13.1021
-13.99
-14.957
-16.0161
-17.1824
-18.4726
-19.9076
-21.5136
-23.3238
-25.3795
-27.7309
-30.4375
-33.5681
-37.1782
-41.2379
-45.8339
-52.2371
-11.1842
-11.8296
-12.5502
-13.378
-14.2802
-15.2601
-16.3337
-17.5161
-18.8243
-20.2794
-21.9079
-23.7433
-25.827
-28.2094
-30.9494
-34.115
-37.76
-41.8531
-46.4745
-52.9122
-1.58528
-1.83923
-2.18711
-2.57603
-2.99458
-3.44812
-3.94296
-4.48503
-5.08181
-5.74357
-6.48426
-7.32289
-8.28561
-9.40847
-10.7424
-12.3616
-14.3559
-16.7864
-19.9615
-25.3563
-1.73847
-2.00885
-2.3752
-2.77007
-3.19205
-3.65093
-4.15269
-4.70284
-5.30903
-5.98179
-6.73532
-7.58898
-8.56934
-9.71298
-11.0713
-12.7193
-14.7465
-17.2124
-20.4198
-25.8284
-1.886
-2.18047
-2.55998
-2.96299
-3.39272
-3.85999
-4.37069
-4.93053
-5.54751
-6.2325
-7.00005
-7.8699
-8.86907
-10.0347
-11.4187
-13.0964
-15.1572
-17.6586
-20.8975
-26.3147
-2.05583
-2.36112
-2.74884
-3.16058
-3.59951
-4.07634
-4.59707
-5.16771
-5.79661
-6.49493
-7.27756
-8.16464
-9.18368
-10.3723
-11.783
-13.4914
-15.5868
-18.125
-21.3988
-26.8336
-2.23698
-2.54937
-2.94493
-3.36564
-3.81407
-4.30088
-4.83229
-5.41455
-6.05624
-6.76881
-7.56747
-8.47277
-9.51268
-10.7254
-12.1639
-13.9041
-16.0353
-18.6117
-21.9229
-27.3819
-2.4236
-2.74461
-3.14852
-3.57836
-4.03657
-4.53383
-5.07653
-5.67109
-6.32634
-7.05398
-7.86956
-8.79401
-9.85578
-11.0936
-12.561
-14.3343
-16.5024
-19.1183
-22.4683
-27.9544
-2.61724
-2.94776
-3.35992
-3.79891
-4.26719
-4.77533
-5.32983
-5.93731
-6.60679
-7.35026
-8.18358
-9.12807
-10.2127
-11.4766
-12.9739
-14.7814
-16.9877
-19.6442
-23.0337
-28.5486
-2.81927
-3.15928
-3.57949
-4.02762
-4.50616
-5.0255
-5.59224
-6.21315
-6.89748
-7.65745
-8.50926
-9.47463
-10.5829
-11.8739
-13.4023
-15.2451
-17.4907
-20.1887
-23.6186
-29.1635
-3.02947
-3.37903
-3.80725
-4.26457
-4.75354
-5.28436
-5.8637
-6.49851
-7.19821
-7.97532
-8.84633
-9.83334
-10.9662
-12.2853
-13.8456
-15.7247
-18.0107
-20.7513
-24.2223
-29.798
-3.24725
-3.60667
-4.04301
-4.50961
-5.00919
-5.55176
-6.14405
-6.79318
-7.50877
-8.30359
-9.19445
-10.2039
-11.3621
-12.7101
-14.3034
-16.2198
-18.547
-21.3312
-24.8439
-30.4511
-3.47217
-3.84185
-4.28644
-4.76246
-5.27286
-5.82746
-6.43303
-7.09688
-7.82885
-8.64193
-9.55327
-10.5858
-11.7702
-13.1479
-14.7751
-16.7297
-19.0991
-21.9276
-25.4826
-31.1217
-3.70385
-4.08418
-4.53718
-5.02278
-5.54422
-6.11112
-6.73031
-7.40929
-8.15808
-8.98995
-9.92236
-10.9786
-12.1899
-13.5982
-15.26
-17.2537
-19.6662
-22.5398
-26.1375
-31.8087
-3.94182
-4.33317
-4.79477
-5.29014
-5.82287
-6.40235
-7.0355
-7.72998
-8.49604
-9.34721
-10.3012
-11.3819
-12.6208
-14.0603
-15.7577
-17.7913
-20.2477
-23.167
-26.8077
-32.5112
-4.18556
-4.5883
-5.05871
-5.56408
-6.10835
-6.7007
-7.34813
-8.05849
-8.84226
-9.7132
-10.6894
-11.795
-13.0622
-14.5337
-16.2674
-18.3417
-20.8427
-23.8084
-27.4924
-33.2283
-4.43452
-4.84902
-5.32847
-5.84406
-6.40015
-7.00567
-7.66771
-8.39432
-9.19621
-10.0874
-11.0863
-12.2175
-13.5135
-15.0178
-16.7884
-18.9041
-21.4504
-24.463
-28.1907
-33.9591
-4.68815
-5.11476
-5.60348
-6.12955
-6.69773
-7.31673
-7.9937
-8.73693
-9.55733
-10.4692
-11.4913
-12.6486
-13.9741
-15.5117
-17.32
-19.4778
-22.0699
-25.1301
-28.9018
-34.7027
-4.9459
-5.38494
-5.88316
-6.41997
-7.00053
-7.6333
-8.32554
-9.08573
-9.92504
-10.858
-11.9038
-13.0877
-14.4433
-16.0148
-17.8613
-20.0618
-22.7005
-25.8087
-29.6249
-35.4587
-5.20721
-5.65898
-6.16693
-6.71475
-7.30798
-7.95483
-8.66264
-9.44014
-10.2987
-11.2533
-12.3232
-13.5341
-14.9202
-16.5263
-18.4116
-20.6553
-23.341
-26.4977
-30.3591
-36.2267
-5.47154
-5.93629
-6.4542
-7.01331
-7.6195
-8.28072
-9.00441
-9.79954
-10.6778
-11.6542
-12.7486
-13.9871
-15.4042
-17.0452
-18.9699
-21.2573
-23.9903
-27.1959
-31.1034
-37.0073
-5.73838
-6.21635
-6.74444
-7.3151
-7.93453
-8.6104
-9.35027
-10.1633
-11.0615
-12.0602
-13.1795
-14.446
-15.8945
-17.5709
-19.5352
-21.8667
-24.6473
-27.9016
-31.8549
-37.8012
-1.33749
-1.13077
-0.976981
-0.840244
-0.720167
-0.614211
-0.521262
-0.440525
-0.3715
-0.313828
-0.267242
-0.231532
-0.206526
-0.19209
-0.188084
-0.194298
-0.210512
-0.236858
-0.273523
-0.320277
-1.6673
-1.48386
-1.32609
-1.18413
-1.05922
-0.948794
-0.851876
-0.767666
-0.695648
-0.635446
-0.586779
-0.549423
-0.523196
-0.507948
-0.503534
-0.50978
-0.52653
-0.553798
-0.591679
-0.639835
-1.99977
-1.82421
-1.66646
-1.52335
-1.39631
-1.28371
-1.18483
-1.099
-1.02575
-0.964708
-0.915609
-0.878225
-0.852375
-0.837898
-0.834649
-0.842472
-0.861251
-0.890932
-0.931371
-0.98283
-2.38344
-2.20621
-2.04542
-1.89935
-1.76873
-1.65262
-1.55053
-1.46191
-1.38635
-1.32351
-1.27312
-1.23496
-1.20882
-1.19456
-1.19201
-1.20102
-1.22149
-1.25333
-1.29641
-1.35078
-2.80209
-2.6224
-2.45764
-2.30763
-2.17279
-2.05262
-1.94679
-1.85487
-1.77652
-1.71144
-1.65935
-1.62004
-1.59333
-1.57902
-1.57697
-1.58703
-1.60908
-1.643
-1.68867
-1.74609
-3.25328
-3.07036
-2.90142
-2.74707
-2.60777
-2.48333
-2.37356
-2.27815
-2.19682
-2.1293
-2.07536
-2.03479
-2.00738
-1.99298
-1.99141
-2.00253
-2.02621
-2.06231
-2.1107
-2.17133
-3.74316
-3.55551
-3.38165
-3.22237
-3.07817
-2.94908
-2.83501
-2.73577
-2.65114
-2.58091
-2.52487
-2.4828
-2.45454
-2.4399
-2.43873
-2.45086
-2.47617
-2.5145
-2.56571
-2.62978
-4.27853
-4.08466
-3.90481
-3.73972
-3.58992
-3.45555
-3.33663
-3.23306
-3.14467
-3.0713
-3.01276
-2.96887
-2.93945
-2.92434
-2.92336
-2.93638
-2.96323
-3.00376
-3.05783
-3.12539
-4.86709
-4.66555
-4.47846
-4.3065
-4.15018
-4.00973
-3.88522
-3.77664
-3.68387
-3.60679
-3.54524
-3.49905
-3.46806
-3.45211
-3.45104
-3.4647
-3.49292
-3.53554
-3.59241
-3.66351
-5.51896
-5.3082
-5.11245
-4.93233
-4.76835
-4.62078
-4.48975
-4.37528
-4.27732
-4.19578
-4.13052
-4.08141
-4.04829
-4.031
-4.0294
-4.04332
-4.0726
-4.11708
-4.17658
-4.25112
-6.2479
-6.0261
-5.82002
-5.6302
-5.45714
-5.30113
-5.16235
-5.04086
-4.93666
-4.84967
-4.77979
-4.72691
-4.69088
-4.67156
-4.66879
-4.68243
-4.7123
-4.75821
-4.82001
-4.89774
-7.07262
-6.83766
-6.61923
-6.41782
-6.23391
-6.06781
-5.91972
-5.78976
-5.67792
-5.5842
-5.5085
-5.45072
-5.41073
-5.3884
-5.38358
-5.39612
-5.42585
-5.47256
-5.53609
-5.61652
-8.01886
-7.76821
-7.53499
-7.31964
-7.12267
-6.94438
-6.78501
-6.64468
-6.52344
-6.42129
-6.33817
-6.27399
-6.22863
-6.20197
-6.19386
-6.20415
-6.23268
-6.27921
-6.34358
-6.42592
-9.12216
-8.85273
-8.60174
-8.36959
-8.15679
-7.96368
-7.79051
-7.63742
-7.50449
-7.39173
-7.2991
-7.22653
-7.17391
-7.14113
-7.12804
-7.1345
-7.16033
-7.20527
-7.26916
-7.35219
-10.4328
-10.1409
-9.8685
-9.61601
-9.38399
-9.17279
-8.98268
-8.81381
-8.66628
-8.54011
-8.43529
-8.35174
-8.28939
-8.24811
-8.22777
-8.22823
-8.24929
-8.29068
-8.3522
-8.43411
-12.0245
-11.7057
-11.4075
-11.1305
-10.8752
-10.642
-10.4311
-10.2428
-10.0771
-9.93405
-9.81367
-9.71589
-9.64064
-9.5878
-9.55725
-9.54884
-9.56237
-9.59756
-9.65415
-9.73244
-13.9863
-13.6359
-13.3074
-13.0013
-12.7183
-12.4588
-12.223
-12.0112
-11.8234
-11.6596
-11.5199
-11.4042
-11.3125
-11.2447
-11.2006
-11.18
-11.1829
-11.2089
-11.2578
-11.3296
-16.38
-15.994
-15.6309
-15.2918
-14.9773
-14.6879
-14.4237
-14.1849
-13.9716
-13.7838
-13.6216
-13.4848
-13.3735
-13.2876
-13.227
-13.1915
-13.1811
-13.1955
-13.2345
-13.2971
-19.5165
-19.0907
-18.6887
-18.313
-17.964
-17.6418
-17.3463
-17.0775
-16.8354
-16.6201
-16.4314
-16.2694
-16.1341
-16.0255
-15.9433
-15.8875
-15.858
-15.8552
-15.8787
-15.9266
-24.8532
-24.3823
-23.9458
-23.5407
-23.1649
-22.8172
-22.4974
-22.2053
-21.9409
-21.7041
-21.4951
-21.3138
-21.1603
-21.0348
-20.9373
-20.8678
-20.8272
-20.8177
-20.8405
-20.8856
-0.377037
-0.443481
-0.519569
-0.605219
-0.700349
-0.804851
-0.918595
-1.04142
-1.17311
-1.31339
-1.4619
-1.6181
-1.7812
-1.94997
-2.12277
-2.2973
-2.4691
-2.62836
-2.75971
-2.88956
-0.698472
-0.767195
-0.845924
-0.934549
-1.03296
-1.14105
-1.25864
-1.38556
-1.52157
-1.66636
-1.81952
-1.9805
-2.14852
-2.32243
-2.5006
-2.68139
-2.86302
-3.03776
-3.19041
-3.36275
-1.04497
-1.11755
-1.20049
-1.29369
-1.39701
-1.51031
-1.63342
-1.76614
-1.90819
-2.05926
-2.2189
-2.38658
-2.56153
-2.74272
-2.92881
-3.1186
-3.31112
-3.50199
-3.68549
-3.89157
-1.41634
-1.49277
-1.57999
-1.67786
-1.78624
-1.90496
-2.03383
-2.17263
-2.32107
-2.47881
-2.64541
-2.82031
-3.00282
-3.19201
-3.38683
-3.58639
-3.78989
-3.99503
-4.2023
-4.43209
-1.81518
-1.89562
-1.98732
-2.0901
-2.20382
-2.3283
-2.46332
-2.60865
-2.76399
-2.92897
-3.10317
-3.28604
-3.47694
-3.67509
-3.87967
-4.09007
-4.30568
-4.52545
-4.75204
-4.99859
-2.24427
-2.329
-2.4255
-2.53358
-2.65308
-2.7838
-2.92553
-3.07799
-3.24089
-3.41387
-3.59649
-3.78827
-3.98861
-4.19686
-4.4124
-4.63482
-4.86373
-5.0989
-5.34309
-5.60416
-2.70675
-2.796
-2.89762
-3.01138
-3.1371
-3.27457
-3.42356
-3.5838
-3.75498
-3.93676
-4.12871
-4.33038
-4.54124
-4.76076
-4.98847
-5.22407
-5.46735
-5.71851
-5.97979
-6.25561
-3.20641
-3.30055
-3.4076
-3.52739
-3.65974
-3.80444
-3.96126
-4.12992
-4.31011
-4.5015
-4.7037
-4.91627
-5.13876
-5.37072
-5.61178
-5.86171
-6.12042
-6.38823
-6.66673
-6.95837
-3.74882
-3.84787
-3.96055
-4.08665
-4.226
-4.37839
-4.54357
-4.72128
-4.9112
-5.11301
-5.32635
-5.55082
-5.78603
-6.03157
-6.28715
-6.55256
-6.82778
-7.11307
-7.40944
-7.71826
-4.3407
-4.4447
-4.56321
-4.69581
-4.84245
-5.00291
-5.17692
-5.36422
-5.56453
-5.77751
-6.00284
-6.24015
-6.48908
-6.74929
-7.02051
-7.30255
-7.59536
-7.8991
-8.21433
-8.54185
-4.99142
-5.10032
-5.22445
-5.36377
-5.51787
-5.68662
-5.86981
-6.06716
-6.27838
-6.50317
-6.74122
-6.9922
-7.25578
-7.53163
-7.81952
-8.11924
-8.43071
-8.75395
-9.0892
-9.43694
-5.71392
-5.82741
-5.95707
-6.10273
-6.2643
-6.44142
-6.63392
-6.84156
-7.06404
-7.30109
-7.55242
-7.81772
-8.09668
-8.389
-8.69443
-9.01277
-9.34388
-9.68762
-10.044
-10.4135
-6.52632
-6.64376
-6.77843
-6.93006
-7.09855
-7.28401
-7.48574
-7.70353
-7.93731
-8.18677
-8.45166
-8.73165
-9.02646
-9.3358
-9.65942
-9.99709
-10.3486
-10.7137
-11.0924
-11.4847
-7.45447
-7.57479
-7.71349
-7.87031
-8.04501
-8.23759
-8.44884
-8.67599
-8.92069
-9.18228
-9.46053
-9.75518
-10.0659
-10.3925
-10.7346
-11.092
-11.4644
-11.8515
-12.253
-12.6692
-8.53656
-8.65806
-8.79919
-8.95972
-9.13949
-9.33803
-9.55487
-9.79225
-10.0476
-10.3203
-10.6111
-10.9199
-11.2462
-11.5898
-11.9502
-12.3272
-12.7205
-13.1296
-13.5542
-13.9946
-9.83253
-9.95267
-10.0938
-10.2557
-10.4384
-10.6414
-10.8643
-11.1071
-11.3701
-11.6536
-11.9563
-12.2784
-12.6195
-12.9789
-13.3563
-13.7518
-14.165
-14.5955
-15.0427
-15.5068
-11.4239
-11.5395
-11.6777
-11.8385
-12.0213
-12.226
-12.4524
-12.7002
-12.9694
-13.26
-13.5728
-13.9067
-14.2597
-14.6312
-15.0224
-15.4339
-15.8651
-16.3153
-16.7835
-17.2695
-13.3816
-13.4896
-13.6219
-13.778
-13.9567
-14.1584
-14.3833
-14.6313
-14.902
-15.195
-15.5096
-15.846
-16.2059
-16.5899
-16.9963
-17.4236
-17.8716
-18.3398
-18.8273
-19.3331
-15.9968
-16.0887
-16.2047
-16.3462
-16.5145
-16.7089
-16.9285
-17.173
-17.4421
-17.7353
-18.052
-18.3919
-18.7554
-19.1429
-19.5542
-19.9889
-20.4466
-20.9281
-21.4333
-21.9572
-20.9274
-20.9997
-21.103
-21.2349
-21.3943
-21.5804
-21.7928
-22.0311
-22.295
-22.5841
-22.8981
-23.2372
-23.6014
-23.9909
-24.406
-24.8465
-25.3136
-25.8112
-26.3417
-26.8875
-27.4043
-22.4918
-19.8567
-17.7735
-15.9877
-14.4507
-13.1
-11.8907
-10.7958
-9.7971
-8.88156
-8.0395
-7.26328
-6.54669
-5.88454
-5.2723
-4.70472
-4.17622
-3.69527
-3.29087
-27.949
-23.0427
-20.396
-18.2925
-16.4829
-14.9202
-13.5435
-12.3087
-11.1895
-10.1681
-9.23181
-8.37104
-7.57833
-6.84761
-6.17385
-5.55262
-4.97921
-4.4512
-3.98176
-3.57927
-28.5223
-23.6124
-20.9526
-18.8277
-16.9929
-15.4034
-13.9995
-12.7384
-11.594
-10.5493
-9.59165
-8.71168
-7.90198
-7.15649
-6.47017
-5.8385
-5.25686
-4.72296
-4.24637
-3.82438
-29.12
-24.2017
-21.5263
-19.3786
-17.5171
-15.8994
-14.4673
-13.1788
-12.0085
-10.9397
-9.96
-9.06009
-8.23254
-7.47119
-6.77077
-6.1265
-5.53351
-4.98884
-4.49925
-4.05852
-29.739
-24.8099
-22.1167
-19.9447
-18.055
-16.4077
-14.9462
-13.6293
-12.4322
-11.3385
-10.336
-9.4154
-8.56921
-7.79108
-7.0755
-6.41739
-5.81156
-5.2545
-4.75112
-4.29423
-30.3778
-25.4375
-22.7217
-20.525
-18.6057
-16.9275
-15.4355
-14.0891
-12.8644
-11.7449
-10.7189
-9.77693
-8.91141
-8.11579
-7.38433
-6.71164
-6.09234
-5.52255
-5.00589
-4.53492
-31.0352
-26.083
-23.341
-21.1185
-19.1684
-17.4579
-15.9343
-14.5576
-13.3042
-12.1584
-11.1081
-10.1442
-9.25882
-8.44524
-7.69748
-7.00994
-6.37706
-5.79473
-5.26549
-4.78183
-31.7099
-26.7444
-23.9745
-21.7244
-19.7421
-17.9983
-16.4419
-15.0338
-13.7511
-12.5781
-11.5031
-10.5168
-9.61113
-8.77929
-8.01503
-7.31255
-6.66616
-6.07157
-5.53032
-5.0349
-32.4005
-27.4203
-24.6212
-22.3419
-20.3261
-18.5477
-16.9574
-15.5171
-14.2043
-13.0036
-11.9034
-10.8942
-9.96801
-9.11771
-8.33686
-7.61946
-6.95969
-6.35308
-5.80023
-5.29362
-33.1059
-28.1094
-25.2803
-22.97
-20.9194
-19.1052
-17.4801
-16.0068
-14.6631
-13.4341
-12.3083
-11.276
-10.329
-9.46016
-8.66269
-7.93041
-7.25737
-6.6389
-6.0747
-5.55727
-33.8248
-28.8107
-25.9505
-23.6077
-21.521
-19.67
-18.0091
-16.5019
-15.1268
-13.8691
-12.7172
-11.6615
-10.6937
-9.80619
-8.99208
-8.24496
-7.55873
-6.92849
-6.35308
-5.82506
-34.556
-29.523
-26.6308
-24.254
-22.13
-20.241
-18.5434
-17.0016
-15.5945
-14.3077
-13.1295
-12.0503
-11.0615
-10.1553
-9.32452
-8.56259
-7.8632
-7.22123
-6.63467
-6.0962
-35.2985
-30.2453
-27.32
-24.9079
-22.7452
-20.8173
-19.0822
-17.5051
-16.0656
-14.7492
-13.5445
-12.4416
-11.4317
-10.5068
-9.6594
-8.88268
-8.17015
-7.51643
-6.91875
-6.36991
-36.0511
-30.9763
-28.017
-25.568
-23.3656
-21.3979
-19.6244
-18.0115
-16.5391
-15.1929
-13.9615
-12.8347
-11.8037
-10.8601
-9.99607
-9.20459
-8.47892
-7.81343
-7.2046
-6.64548
-36.8128
-31.7148
-28.7203
-26.2334
-23.9902
-21.9816
-20.1691
-18.5199
-17.0141
-15.6379
-14.3796
-13.229
-12.1768
-11.2145
-10.3339
-9.52765
-8.78886
-8.11156
-7.49155
-6.92221
-37.5823
-32.4594
-29.4288
-26.9027
-24.6176
-22.5674
-20.7153
-19.0292
-17.4899
-16.0834
-14.7982
-13.6237
-12.5504
-11.5693
-10.6722
-9.85122
-9.09929
-8.41016
-7.77895
-7.19945
-38.3591
-33.2091
-30.1412
-27.5747
-25.2467
-23.1541
-21.2618
-19.5385
-17.9653
-16.5286
-15.2163
-14.018
-12.9236
-11.9239
-11.0103
-10.1746
-9.40959
-8.7086
-8.06616
-7.47661
-39.1447
-33.9633
-30.8558
-28.2478
-25.8761
-23.7404
-21.8074
-20.0467
-18.4395
-16.9724
-15.6332
-14.411
-13.2957
-12.2775
-11.3475
-10.4972
-9.7191
-9.00625
-8.35259
-7.75311
-39.9393
-34.7209
-31.5709
-28.9202
-26.5042
-24.3252
-22.3512
-20.5528
-18.9116
-17.4141
-16.048
-14.8022
-13.666
-12.6294
-11.6831
-10.8183
-10.0272
-9.30252
-8.63767
-8.02845
-40.7301
-35.4768
-32.2847
-29.591
-27.1306
-24.9078
-22.8927
-21.0564
-19.3812
-17.8533
-16.4605
-15.1911
-14.0341
-12.9793
-12.0167
-11.1375
-10.3335
-9.59695
-8.92094
-8.30217
-6.78089
-4.67481
-3.31453
-2.26894
-1.53435
-0.994818
-0.607271
-0.332126
-0.141064
-0.0123419
0.070665
0.120589
0.147015
0.157099
0.156157
0.148059
0.135621
0.120841
0.105131
0.0894561
0.0744624
0.0605605
0.0479869
0.0368612
0.0272046
0.0189969
0.0121443
0.00658203
0.00214062
-0.0012092
-0.00373018
-0.00531496
-0.00641102
-0.00660843
-0.00674135
-0.00581532
-0.00540678
-0.00349055
-0.00294643
3.7313e-05
-7.03658
-4.8572
-3.46079
-2.38411
-1.62541
-1.06846
-0.667341
-0.38175
-0.182445
-0.0470998
0.0413287
0.0957531
0.12596
0.139247
0.141034
0.135271
0.124832
0.111766
0.0975228
0.0831026
0.0691792
0.0561878
0.044386
0.0339121
0.0248032