/*--------------------------------*- C++ -*----------------------------------*\
| =========                 |                                                 |
| \\      /  F ield         | OpenFOAM: The Open Source CFD Toolbox           |
|  \\    /   O peration     | Version:  v1912                                 |
|   \\  /    A nd           | Website:  www.openfoam.com                      |
|    \\/     M anipulation  |                                                 |
\*---------------------------------------------------------------------------*/
FoamFile
{
    version     2.0;
    format      ascii;
    class       volVectorField;
    location    "68.5";
    object      U;
}
// * * * * * * * * * * * * * * * * * * * * * * * * * * * * * * * * * * * * * //

dimensions      [0 1 -1 0 0 0 0];


internalField   nonuniform List<vector> 
9600
(
(0.456545 -9.36161 -1.54173e-19)
(0.15977 -8.63234 0)
(0.242038 -8.15953 -9.05387e-20)
(0.320873 -7.84048 0)
(0.388268 -7.60546 0)
(0.456749 -7.41092 -3.18596e-20)
(0.522333 -7.2328 -5.50629e-22)
(0.581879 -7.05886 2.66345e-20)
(0.634613 -6.88374 0)
(0.680567 -6.70602 -4.51626e-20)
(0.720129 -6.52631 0)
(0.753927 -6.34617 -1.83089e-21)
(0.782699 -6.16739 -2.60774e-21)
(0.807202 -5.99168 -3.15618e-20)
(0.828161 -5.82042 2.662e-20)
(0.846229 -5.65459 -2.61534e-20)
(0.861961 -5.49467 2.32872e-20)
(0.875901 -5.34058 0)
(0.888831 -5.19155 -1.85254e-20)
(0.900482 -5.04606 2.03067e-20)
(0.824479 -9.35124 -3.08448e-19)
(0.50223 -8.66047 1.17573e-20)
(0.567701 -8.20389 1.86498e-19)
(0.635038 -7.89435 -1.58971e-19)
(0.693431 -7.66394 1.56777e-19)
(0.753878 -7.46989 0)
(0.811593 -7.28946 6.07691e-20)
(0.863097 -7.11151 -6.06308e-20)
(0.907543 -6.9315 -1.05171e-19)
(0.945019 -6.74858 1.33031e-19)
(0.976026 -6.56376 -8.63725e-20)
(1.00132 -6.37886 -3.52662e-20)
(1.02174 -6.19581 7.11832e-20)
(1.03813 -6.0164 0)
(1.0513 -5.84202 0)
(1.06192 -5.67365 9.97935e-20)
(1.07056 -5.51174 -1.69197e-19)
(1.07779 -5.35614 0)
(1.08445 -5.20597 0)
(1.09004 -5.05961 -7.82142e-20)
(1.19276 -9.32732 6.37297e-19)
(0.846964 -8.67574 0)
(0.896923 -8.23558 -3.77377e-19)
(0.953502 -7.93565 -3.42065e-19)
(1.00319 -7.70981 0)
(1.05558 -7.51622 5.46699e-19)
(1.1052 -7.3335 -5.16139e-19)
(1.14831 -7.15165 1.01181e-19)
(1.18406 -6.96694 -2.25247e-19)
(1.21265 -6.77909 -3.74623e-19)
(1.2347 -6.5895 5.11419e-19)
(1.25113 -6.40023 -3.16213e-19)
(1.26288 -6.21333 -1.41725e-19)
(1.27092 -6.03065 0)
(1.27607 -5.85358 5.52971e-21)
(1.27908 -5.68309 1.05188e-19)
(1.28051 -5.51959 4.54744e-20)
(1.28094 -5.36287 0)
(1.28129 -5.21195 8.24368e-20)
(1.2807 -5.06513 8.4489e-20)
(1.56027 -9.2895 -8.6219e-19)
(1.19338 -8.67787 -4.04054e-19)
(1.22915 -8.25437 3.91904e-19)
(1.2757 -7.96406 6.73559e-19)
(1.31698 -7.74272 -3.26919e-19)
(1.36127 -7.54953 5.80683e-21)
(1.40254 -7.36455 2.53882e-19)
(1.43691 -7.17894 2.29966e-19)
(1.46356 -6.98976 4.212e-19)
(1.48285 -6.79731 0)
(1.49558 -6.60335 1.62283e-19)
(1.5028 -6.41014 -1.72219e-19)
(1.50562 -6.21984 1.03542e-20)
(1.50505 -6.03433 2.71501e-19)
(1.50202 -5.85502 2.32775e-19)
(1.49728 -5.68283 -3.28603e-19)
(1.4914 -5.51816 1.08218e-19)
(1.48498 -5.36073 -1.76224e-19)
(1.47899 -5.20945 1.75392e-19)
(1.47216 -5.0626 -8.45329e-20)
(1.92671 -9.23772 4.34827e-19)
(1.54119 -8.6667 0)
(1.56397 -8.26001 3.84888e-19)
(1.60113 -7.97924 0)
(1.63423 -7.76231 0)
(1.67035 -7.56948 -3.00489e-19)
(1.703 -7.3823 -5.37654e-19)
(1.72826 -7.1931 -4.55892e-19)
(1.74542 -6.99975 1.84514e-20)
(1.75502 -6.80306 -1.97015e-19)
(1.75808 -6.60514 0)
(1.7558 -6.40844 -1.62695e-19)
(1.74942 -6.21522 -2.9309e-19)
(1.74005 -6.02736 2.57758e-19)
(1.72868 -5.84626 -7.32545e-19)
(1.71608 -5.67282 1.18551e-19)
(1.70282 -5.50739 9.39738e-20)
(1.68951 -5.34965 -1.93776e-19)
(1.6772 -5.1984 -8.46717e-20)
(1.6641 -5.05196 2.5249e-19)
(2.29154 -9.17187 4.19605e-19)
(1.8899 -8.64201 4.16162e-19)
(1.90087 -8.25221 0)
(1.92923 -7.98087 0)
(1.95433 -7.76824 -6.24676e-19)
(1.98217 -7.57574 3.41396e-19)
(2.00594 -7.38646 8.21674e-19)
(2.02171 -7.19389 0)
(2.029 -6.99667 2.17157e-19)
(2.02855 -6.79615 1.97016e-19)
(2.0216 -6.59474 -3.4809e-19)
(2.00954 -6.39504 5.04789e-19)
(1.99374 -6.19939 1.48133e-19)
(1.9754 -6.00968 0)
(1.95556 -5.82726 1.23323e-19)
(1.93502 -5.65301 5.53611e-19)
(1.91433 -5.48725 -3.2988e-19)
(1.89414 -5.32961 3.70701e-19)
(1.87553 -5.17877 -7.04924e-19)
(1.85616 -5.03319 8.14918e-19)
(2.65423 -9.09195 4.26759e-19)
(2.23899 -8.60359 -2.25981e-18)
(2.23931 -8.23069 0)
(2.25941 -7.96866 0)
(2.27667 -7.7602 0)
(2.2961 -7.56804 -6.06004e-19)
(2.31068 -7.37678 0)
(2.31662 -7.18108 -9.71408e-19)
(2.31365 -6.98037 8.96051e-19)
(2.3028 -6.77645 -8.32245e-19)
(2.28554 -6.57203 0)
(2.26346 -6.36986 0)
(2.23804 -6.17231 0)
(2.21059 -5.98124 -2.81634e-19)
(2.18218 -5.798 0)
(2.15363 -5.62339 0)
(2.1255 -5.45772 -4.13415e-19)
(2.09845 -5.30058 4.06194e-19)
(2.0736 -5.15056 0)
(2.04798 -5.00629 0)
(3.01424 -8.99794 -1.38834e-18)
(2.58792 -8.55128 8.99683e-19)
(2.5787 -8.19521 0)
(2.59105 -7.94232 0)
(2.6006 -7.73793 0)
(2.61146 -7.54611 5.76406e-19)
(2.61656 -7.35304 -5.78163e-19)
(2.61229 -7.15452 -8.8999e-21)
(2.59871 -6.9507 -8.972e-19)
(2.57713 -6.74386 8.40077e-19)
(2.54929 -6.53696 -3.79005e-19)
(2.51696 -6.33286 6.59073e-19)
(2.48177 -6.13394 -4.64231e-20)
(2.44509 -5.94205 -5.9625e-19)
(2.40804 -5.75847 -5.02568e-19)
(2.37145 -5.58396 4.93758e-19)
(2.33588 -5.41882 0)
(2.30201 -5.26258 0)
(2.27099 -5.11376 3.57338e-19)
(2.23919 -4.97126 -3.93233e-19)
(3.37099 -8.88988 9.27922e-19)
(2.93613 -8.48494 8.8393e-19)
(2.91846 -8.14556 -1.67546e-18)
(2.92353 -7.90161 7.9145e-19)
(2.92543 -7.70119 0)
(2.92756 -7.50976 6.16787e-19)
(2.92286 -7.31507 -5.41499e-19)
(2.90804 -7.11405 1.53035e-18)
(2.8835 -6.90756 -2.37011e-20)
(2.85091 -6.69832 0)
(2.81224 -6.48949 7.647e-19)
(2.76948 -6.28402 0)
(2.72437 -6.08429 0)
(2.67838 -5.89211 -2.72781e-19)
(2.63264 -5.70868 5.50159e-19)
(2.588 -5.53474 0)
(2.54499 -5.37055 4.31569e-19)
(2.50436 -5.21562 1.79677e-19)
(2.46727 -5.06839 -3.89823e-19)
(2.42937 -4.92813 3.78529e-19)
(3.72395 -8.76783 -9.55762e-19)
(3.28301 -8.40446 8.98357e-19)
(3.25796 -8.08155 -2.5586e-18)
(3.25618 -7.84634 8.04586e-19)
(3.25048 -7.64978 0)
(3.24368 -7.4588 -1.24495e-18)
(3.22888 -7.26272 5.98068e-19)
(3.20318 -7.05957 0)
(3.16737 -6.8509 -4.74877e-19)
(3.12347 -6.63978 -8.23694e-19)
(3.07376 -6.4296 -7.17791e-19)
(3.02041 -6.22334 5.34642e-20)
(2.96528 -6.02338 6.71352e-19)
(2.90991 -5.83145 2.72556e-19)
(2.85546 -5.64868 -3.79585e-20)
(2.80277 -5.47577 -5.13262e-19)
(2.75237 -5.31296 -2.29577e-19)
(2.70504 -5.15973 -2.06982e-19)
(2.66198 -5.01447 5.52169e-19)
(2.61811 -4.87692 -8.22777e-19)
(4.07255 -8.63188 9.55765e-19)
(3.62798 -8.30977 -4.66563e-20)
(3.59655 -8.00305 8.22492e-19)
(3.58831 -7.77632 0)
(3.57505 -7.58353 -6.81009e-19)
(3.55912 -7.3931 1.30858e-18)
(3.53391 -7.1959 -1.11865e-18)
(3.49699 -6.99104 1.10083e-18)
(3.44961 -6.78067 -4.46095e-19)
(3.39417 -6.56825 9.05554e-19)
(3.33323 -6.3573 3.92177e-19)
(3.26916 -6.15086 0)
(3.20395 -5.95125 0)
(3.13916 -5.76011 -2.82614e-19)
(3.076 -5.57852 3.8377e-20)
(3.01527 -5.4071 1.01076e-18)
(2.95751 -5.24609 -2.50066e-19)
(2.90355 -5.09495 8.25979e-19)
(2.85464 -4.95205 1.44583e-19)
(2.80494 -4.81769 -8.40326e-19)
(4.41622 -8.48212 -2.94096e-18)
(3.97043 -8.20083 -9.8729e-19)
(3.9336 -7.90994 -2.63276e-18)
(3.91925 -7.69144 -1.6017e-18)
(3.8984 -7.50234 -7.59764e-19)
(3.87313 -7.31257 -7.42573e-19)
(3.83722 -7.11456 -2.42424e-18)
(3.78878 -6.90841 -4.90881e-20)
(3.72956 -6.69689 -1.94812e-18)
(3.66236 -6.48375 3.02297e-20)
(3.59005 -6.27265 -8.08899e-19)
(3.51516 -6.06663 -7.37125e-19)
(3.43981 -5.86795 6.72917e-19)
(3.36559 -5.67816 -6.15416e-19)
(3.29371 -5.49825 -5.63839e-19)
(3.22498 -5.32878 -5.17491e-19)
(3.15991 -5.16999 -1.38955e-18)
(3.0994 -5.02132 4.94351e-19)
(3.04474 -4.88115 1.19978e-18)
(2.98939 -4.75045 -1.27692e-18)
(4.75443 -8.31871 3.95583e-18)
(4.30976 -8.07764 4.86004e-18)
(4.26845 -7.80215 8.34915e-19)
(4.24828 -7.5916 4.00049e-18)
(4.21982 -7.40612 -7.84112e-19)
(4.18499 -7.21717 3.91823e-18)
(4.13808 -7.01866 1.14625e-18)
(4.07784 -6.8117 3.21799e-18)
(4.00654 -6.59958 -9.83638e-19)
(3.92741 -6.38633 2.72357e-18)
(3.84359 -6.17571 1.62933e-18)
(3.75782 -5.97072 1.48491e-18)
(3.6723 -5.77355 -2.01045e-18)
(3.58866 -5.58566 1.88337e-18)
(3.50809 -5.40794 1.13638e-18)
(3.43139 -5.24089 1.04319e-18)
(3.35905 -5.08473 9.59261e-19)
(3.29205 -4.93892 7.36912e-21)
(3.23176 -4.80184 8.1433e-19)
(3.17098 -4.67526 8.47471e-19)
(5.08665 -8.1418 -2.93766e-18)
(4.64539 -7.94023 1.08271e-18)
(4.60044 -7.67965 2.67863e-18)
(4.57472 -7.47675 -3.26352e-18)
(4.53858 -7.29482 7.54128e-19)
(4.49396 -7.10687 -2.62143e-18)
(4.43578 -6.90825 1.28483e-18)
(4.36347 -6.70096 -2.15319e-18)
(4.27989 -6.48883 4.90509e-20)
(4.18867 -6.27608 1.19569e-20)
(4.09326 -6.06655 -1.65183e-18)
(3.99657 -5.8632 -7.47787e-19)
(3.90087 -5.66814 1.37505e-18)
(3.80782 -5.48269 8.76537e-21)
(3.7186 -5.30766 -3.7205e-20)
(3.63396 -5.14348 -1.08878e-18)
(3.5544 -4.99036 -4.83517e-19)
(3.48096 -4.84777 -2.71587e-20)
(3.41515 -4.71416 -8.48692e-19)
(3.34913 -4.59224 -4.27986e-19)
(5.41238 -7.95158 0)
(4.97671 -7.78866 -2.0006e-18)
(4.92891 -7.54243 2.37622e-20)
(4.89784 -7.34687 3.25909e-18)
(4.85394 -7.16847 1.3642e-18)
(4.7993 -6.98173 -1.41999e-18)
(4.72961 -6.78337 -1.22335e-18)
(4.645 -6.57629 0)
(4.54895 -6.36473 -9.73879e-19)
(4.44554 -6.15311 9.29462e-19)
(4.33848 -5.94529 -3.90845e-20)
(4.23086 -5.74419 0)
(4.125 -5.55179 -6.92234e-19)
(4.02257 -5.36931 5.9964e-19)
(3.92471 -5.19745 5.0099e-19)
(3.83215 -5.03657 -6.04748e-19)
(3.74535 -4.88689 -5.2466e-19)
(3.66547 -4.74788 9.11133e-19)
(3.59414 -4.61811 -8.40881e-19)
(3.52302 -4.50144 4.426e-19)
(5.73114 -7.74822 3.03518e-18)
(5.30316 -7.62299 -2.06047e-18)
(5.2532 -7.39051 -1.75861e-18)
(5.21693 -7.20199 8.18829e-19)
(5.16517 -7.02711 -1.58859e-18)
(5.10031 -6.84181 0)
(5.01885 -6.64415 0)
(4.92175 -6.43781 0)
(4.8131 -6.22742 -4.44888e-20)
(4.69742 -6.01756 -1.86534e-18)
(4.5787 -5.81207 8.80992e-19)
(4.46017 -5.61379 7.4514e-19)
(4.34419 -5.4246 6.30596e-19)
(4.23243 -5.24559 -2.58765e-18)
(4.12597 -5.07735 1.22678e-18)
(4.02547 -4.92018 0)
(3.93139 -4.77428 -3.04425e-20)
(3.84496 -4.63917 -1.41316e-18)
(3.76792 -4.5136 -5.69942e-21)
(3.69167 -4.40254 -4.4309e-19)
(6.04258 -7.532 -2.06447e-18)
(5.62418 -7.44337 -1.08631e-18)
(5.57263 -7.22397 8.18637e-19)
(5.53129 -7.04217 -1.43943e-19)
(5.47154 -6.87082 -4.63105e-18)
(5.39623 -6.68724 4.19134e-18)
(5.3028 -6.49072 -4.88156e-20)
(5.19305 -6.28568 1.14807e-18)
(5.07171 -6.07708 1.0301e-18)
(4.94373 -5.8696 9.45899e-19)
(4.81339 -5.66703 8.60797e-19)
(4.684 -5.47214 1.53843e-18)
(4.55798 -5.28667 -7.40473e-19)
(4.43695 -5.11161 1.9195e-18)
(4.32195 -4.94743 -1.24093e-18)
(4.21356 -4.79437 -5.13379e-19)
(4.11218 -4.65264 2.06202e-18)
(4.01909 -4.52176 1.37769e-18)
(3.93623 -4.40053 -2.79733e-20)
(3.85505 -4.29483 0)
(6.34667 -7.30341 -1.04971e-18)
(5.93938 -7.24997 2.07602e-18)
(5.88653 -7.04285 1.81766e-18)
(5.84016 -6.86747 -1.45922e-19)
(5.7723 -6.6997 -1.57127e-18)
(5.68635 -6.51815 7.06929e-20)
(5.58076 -6.32326 1.31836e-20)
(5.45825 -6.12011 1.17464e-20)
(5.32418 -5.91392 0)
(5.18394 -5.70941 9.25172e-19)
(5.04203 -5.51035 -1.76093e-18)
(4.90187 -5.31936 -7.53596e-19)
(4.76588 -5.13807 7.48124e-19)
(4.63564 -4.96738 -6.56463e-19)
(4.51212 -4.80766 6.08006e-19)
(4.39582 -4.65914 -5.53515e-19)
(4.28714 -4.52203 4.9013e-21)
(4.18747 -4.39569 -4.70262e-19)
(4.09905 -4.27884 -4.34422e-19)
(4.01371 -4.17918 -4.3472e-19)
(6.64375 -7.06292 0)
(6.2485 -7.04272 -1.01224e-18)
(6.19426 -6.84707 1.00062e-18)
(6.14278 -6.67796 1.7459e-18)
(6.0667 -6.51393 -1.57996e-18)
(5.96994 -6.3348 1.36497e-18)
(5.85206 -6.14206 -2.62454e-18)
(5.71674 -5.9414 -2.33078e-18)
(5.56997 -5.73823 -1.01685e-18)
(5.41756 -5.53729 4.44365e-20)
(5.26421 -5.34225 -8.42078e-19)
(5.11341 -5.1556 3.49358e-20)
(4.96755 -4.97887 0)
(4.82811 -4.81281 -1.28772e-18)
(4.69591 -4.65777 6.57154e-19)
(4.57134 -4.51401 0)
(4.45486 -4.38163 -5.14695e-19)
(4.34806 -4.25978 -9.25392e-19)
(4.25318 -4.14808 9.09291e-19)
(4.16266 -4.05916 4.48865e-19)
(6.93343 -6.80975 0)
(6.55093 -6.82091 0)
(6.49509 -6.63659 -1.85626e-18)
(6.43842 -6.47393 -1.59617e-18)
(6.35405 -6.3139 3.23961e-18)
(6.24637 -6.1376 0)
(6.11615 -5.94756 0)
(5.96801 -5.74998 1.17095e-18)
(5.80864 -5.55045 0)
(5.64423 -5.35365 0)
(5.47967 -5.16312 0)
(5.3185 -4.9812 0)
(5.16301 -4.80925 0)
(5.01452 -4.6479 0)
(4.87361 -4.49743 0)
(4.74038 -4.35799 0)
(4.6151 -4.22945 0)
(4.49885 -4.11114 0)
(4.39174 -4.00614 0)
(4.28763 -3.93174 0)
(10.0435 0.087741 1.47377e-19)
(10.023 -0.307649 2.86748e-19)
(9.98721 -0.700361 -2.94506e-19)
(9.93667 -1.09025 5.87185e-19)
(9.87115 -1.47698 -5.87184e-19)
(9.79049 -1.86005 -5.54885e-19)
(9.69482 -2.23891 -5.53336e-19)
(9.58433 -2.61303 1.74262e-18)
(9.45928 -2.98184 -1.16102e-18)
(9.3199 -3.3448 1.15129e-18)
(9.16649 -3.70135 -1.15129e-18)
(8.99935 -4.05098 1.14278e-18)
(8.81882 -4.39315 -2.26622e-18)
(8.62524 -4.72737 3.33734e-18)
(8.41898 -5.05315 0)
(8.20043 -5.37004 -3.2788e-18)
(7.96999 -5.67761 1.63554e-20)
(7.72818 -5.97552 3.30424e-18)
(7.47509 -6.26359 0)
(7.21242 -6.54116 0)
(10.1207 -0.210716 0)
(10.0794 -0.606835 -1.50435e-20)
(10.0213 -0.999152 0)
(9.94716 -1.38733 5.61919e-19)
(9.85712 -1.77094 5.85165e-19)
(9.75141 -2.14938 -1.69366e-18)
(9.63033 -2.52201 2.94858e-18)
(9.49423 -2.88822 -1.16398e-18)
(9.34348 -3.24741 -1.10955e-18)
(9.17847 -3.59898 -1.10502e-18)
(8.99962 -3.94237 4.45764e-20)
(8.80737 -4.27703 1.13216e-18)
(8.60218 -4.60244 -5.62833e-18)
(8.38454 -4.91811 -1.18027e-18)
(8.15493 -5.22356 2.24898e-18)
(7.91387 -5.51838 2.24595e-18)
(7.66183 -5.80216 1.14107e-18)
(7.39939 -6.07458 -2.20033e-18)
(7.12665 -6.33538 1.04199e-18)
(6.84456 -6.58421 0)
(10.0726 -0.149213 1.32717e-19)
(10.0347 -0.540901 -2.71782e-19)
(9.97953 -0.929413 7.84854e-19)
(9.90733 -1.31405 -5.56022e-19)
(9.81853 -1.69417 -5.30156e-19)
(9.71348 -2.06905 5.53507e-19)
(9.59255 -2.43797 0)
(9.45615 -2.80023 0)
(9.30471 -3.15517 2.1017e-18)
(9.13866 -3.50215 3.13536e-18)
(8.95848 -3.84054 -9.91659e-19)
(8.76468 -4.16976 3.10035e-18)
(8.55776 -4.48923 -9.87485e-19)
(8.33826 -4.79843 -3.01979e-18)
(8.10675 -5.09685 1.36264e-20)
(7.86378 -5.38403 1.9384e-18)
(7.60989 -5.65953 -8.74958e-19)
(7.34568 -5.92295 -1.90701e-18)
(7.07148 -6.1739 -1.03004e-18)
(6.78804 -6.41188 1.87418e-18)
(9.90656 -0.11249 0)
(9.87553 -0.49495 2.29142e-19)
(9.82723 -0.875063 2.282e-19)
(9.76184 -1.25193 -9.37524e-19)
(9.67968 -1.62475 0)
(9.58109 -1.99275 0)
(9.46644 -2.35516 0)
(9.33611 -2.71123 0)
(9.1905 -3.06026 -9.92077e-19)
(9.03006 -3.40153 -9.8831e-19)
(8.85528 -3.73441 0)
(8.66666 -4.05823 1.86858e-18)
(8.46471 -4.37239 -4.61992e-18)
(8.25001 -4.67632 3.71482e-18)
(8.02311 -4.96946 -3.60064e-18)
(7.78461 -5.25129 -8.73697e-19)
(7.53507 -5.52131 1.56488e-19)
(7.27513 -5.77907 1.5489e-19)
(7.00529 -6.02409 -1.77938e-18)
(6.72629 -6.2559 -7.08919e-20)
(9.65357 -0.0990064 0)
(9.62997 -0.469239 -2.25985e-19)
(9.58952 -0.837782 0)
(9.53229 -1.20373 4.52094e-19)
(9.45852 -1.56625 4.30968e-19)
(9.3685 -1.92454 3.94012e-19)
(9.26253 -2.27782 0)
(9.14096 -2.62534 0)
(9.00416 -2.96634 0)
(8.85255 -3.30011 0)
(8.68656 -3.62596 8.13908e-19)
(8.50669 -3.94321 8.76865e-19)
(8.31344 -4.25123 8.71861e-19)
(8.10735 -4.54939 -8.85197e-19)
(7.88897 -4.83711 -1.52348e-18)
(7.65889 -5.11382 1.72931e-18)
(7.4177 -5.37899 3.3528e-18)
(7.16603 -5.63208 1.6308e-18)
(6.90443 -5.87261 0)
(6.63364 -6.10007 -1.537e-18)
(9.34661 -0.0902054 4.64496e-20)
(9.32998 -0.446265 0)
(9.29712 -0.801205 -7.61189e-19)
(9.24806 -1.15417 1.82544e-23)
(9.18293 -1.50434 1.61789e-20)
(9.10198 -1.85093 -6.85544e-20)
(9.00547 -2.19315 0)
(8.89368 -2.53025 3.09425e-20)
(8.76694 -2.86149 -7.72736e-19)
(8.62563 -3.18615 1.50555e-18)
(8.47014 -3.50352 -1.5699e-18)
(8.30091 -3.81292 8.57641e-19)
(8.11841 -4.1137 -4.49568e-18)
(7.92317 -4.40522 2.96518e-18)
(7.71569 -4.68686 1.57178e-18)
(7.49654 -4.95804 0)
(7.26629 -5.21818 -2.90125e-18)
(7.02555 -5.46674 -6.15435e-20)
(6.77491 -5.70319 -2.85713e-18)
(6.51502 -5.92698 2.96958e-18)
(9.01429 -0.0853966 4.17739e-20)
(9.0033 -0.426458 -8.75103e-20)
(8.97683 -0.766868 7.17501e-19)
(8.93484 -1.10583 -1.40786e-20)
(8.87744 -1.44255 7.17354e-19)
(8.80481 -1.77626 -1.08349e-18)
(8.71716 -2.10622 0)
(8.61474 -2.43168 7.30412e-19)
(8.49784 -2.75192 6.68788e-19)
(8.36676 -3.06623 -7.26321e-19)
(8.22188 -3.37392 1.3289e-18)
(8.06358 -3.67432 2.81727e-18)
(7.8923 -3.96678 -1.31022e-18)
(7.70851 -4.25066 -1.42016e-18)
(7.5127 -4.52533 1.36194e-18)
(7.30539 -4.7902 0)
(7.08713 -5.04469 6.49631e-20)
(6.8585 -5.28821 9.81692e-21)
(6.62006 -5.52023 2.70701e-18)
(6.37243 -5.74019 1.25853e-18)
(8.67788 -0.0842181 0)
(8.67095 -0.410327 6.26021e-21)
(8.64931 -0.73613 -1.46008e-19)
(8.61291 -1.06088 -6.48413e-19)
(8.56181 -1.38383 6.09506e-19)
(8.49617 -1.70425 0)
(8.41615 -2.02142 1.24056e-18)
(8.32196 -2.33464 -1.36323e-21)
(8.21385 -2.64322 -1.89469e-18)
(8.0921 -2.94646 0)
(7.95702 -3.24371 -1.30775e-18)
(7.80897 -3.53432 4.60238e-20)
(7.64835 -3.81765 -3.67615e-18)
(7.47558 -4.09307 6.47873e-21)
(7.29112 -4.35999 1.23211e-18)
(7.09547 -4.61779 0)
(6.88915 -4.86589 -1.20933e-18)
(6.67268 -5.10372 8.70718e-21)
(6.44663 -5.33072 1.20063e-18)
(6.21156 -5.54631 -1.23848e-18)
(8.35126 -0.0853022 0)
(8.34695 -0.397039 1.49699e-19)
(8.32868 -0.708704 3.1059e-19)
(8.29641 -1.0196 -5.74908e-19)
(8.25017 -1.32901 -2.47375e-20)
(8.19008 -1.63627 -2.87322e-19)
(8.11629 -1.94068 -1.15018e-18)
(8.02898 -2.24159 5.71825e-19)
(7.92836 -2.53834 2.38275e-20)
(7.81467 -2.83027 5.68404e-19)
(7.6882 -3.11676 5.23268e-19)
(7.54928 -3.39718 2.26608e-18)
(7.39827 -3.67093 1.13349e-18)
(7.23556 -3.93741 2.23879e-18)
(7.06158 -4.19603 -1.11646e-18)
(6.8768 -4.4462 3.86868e-20)
(6.6817 -4.68737 -1.10328e-18)
(6.47681 -4.91894 0)
(6.26266 -5.14036 1.04289e-18)
(6.03976 -5.35103 0)
(8.04234 -0.0875229 6.51779e-20)
(8.03949 -0.38576 -1.90888e-19)
(8.0234 -0.684066 5.23569e-19)
(7.99401 -0.981785 -2.61199e-19)
(7.95136 -1.27826 1.89949e-20)
(7.89554 -1.57284 -2.61044e-19)
(7.82668 -1.8649 5.42693e-19)
(7.74493 -2.1538 -5.19389e-19)
(7.65049 -2.43892 5.19386e-19)
(7.54357 -2.71966 9.96159e-19)
(7.42445 -2.99542 -1.0734e-18)
(7.29341 -3.26561 -4.51286e-20)
(7.15079 -3.52966 -3.10706e-18)
(6.99697 -3.78701 5.38145e-21)
(6.83234 -4.03709 4.03016e-20)
(6.65735 -4.27935 2.01424e-18)
(6.47249 -4.51323 -9.94969e-19)
(6.27823 -4.73817 -9.4773e-19)
(6.07511 -4.95361 -3.7468e-20)
(5.8636 -5.15895 0)
(7.75474 -0.0901344 0)
(7.7525 -0.375864 2.4248e-19)
(7.73768 -0.661736 -8.3374e-19)
(7.71021 -0.947136 -2.212e-19)
(7.67013 -1.23144 4.94689e-19)
(7.61751 -1.51405 0)
(7.55248 -1.79437 0)
(7.47517 -2.07179 4.7285e-19)
(7.38575 -2.34575 -4.72847e-19)
(7.28444 -2.61567 3.98342e-19)
(7.17147 -2.88098 -4.69801e-19)
(7.04713 -3.14115 9.31654e-19)
(6.91171 -3.39564 -1.85869e-18)
(6.76559 -3.64392 1.84909e-18)
(6.60914 -3.88546 3.46853e-20)
(6.4428 -4.11975 -9.51007e-19)
(6.26704 -4.34625 -9.04969e-19)
(6.08234 -4.56441 1.84346e-18)
(5.88923 -4.77368 8.62998e-19)
(5.68818 -4.97343 0)
(7.48924 -0.0926631 1.87897e-21)
(7.48705 -0.366885 1.59208e-19)
(7.47285 -0.641277 3.34261e-19)
(7.4466 -0.915258 2.33964e-19)
(7.40832 -1.18825 2.17036e-19)
(7.3581 -1.45967 2.01897e-19)
(7.29603 -1.72897 0)
(7.22224 -1.99558 -8.34341e-19)
(7.13691 -2.25896 -4.30101e-19)
(7.04021 -2.51858 3.66937e-19)
(6.93238 -2.7739 0)
(6.81368 -3.02444 8.49497e-19)
(6.68441 -3.26967 -2.51243e-18)
(6.5449 -3.50913 8.45148e-19)
(6.39553 -3.74232 0)
(6.23673 -3.96877 -8.03581e-19)
(6.06898 -4.18797 -1.62301e-18)
(5.89276 -4.39941 7.98639e-19)
(5.70863 -4.60251 -2.92215e-20)
(5.51704 -4.79665 0)
(7.24496 -0.0948101 3.46678e-21)
(7.24245 -0.358477 -1.03036e-19)
(7.22846 -0.622306 1.98841e-19)
(7.20295 -0.885752 -1.31306e-20)
(7.16594 -1.14827 3.97331e-19)
(7.11751 -1.4093 -6.10223e-19)
(7.05776 -1.66834 0)
(6.98681 -1.92484 5.60673e-20)
(6.90481 -2.17829 0)
(6.81194 -2.42821 -8.1457e-19)
(6.70842 -2.67408 0)
(6.5945 -2.91546 -7.51759e-19)
(6.47046 -3.15186 2.32346e-18)
(6.33663 -3.38287 -1.53964e-18)
(6.19337 -3.60802 7.67605e-19)
(6.04112 -3.8269 -6.79181e-19)
(5.88037 -4.03903 7.84469e-19)
(5.71161 -4.24396 -7.79105e-19)
(5.53548 -4.44107 0)
(5.35242 -4.62974 0)
(7.02011 -0.0964539 4.71485e-20)
(7.0171 -0.350415 0)
(7.00307 -0.604519 0)
(6.97798 -0.858248 -3.77762e-19)
(6.94188 -1.11108 -3.52574e-19)
(6.89484 -1.3625 0)
(6.83694 -1.612 0)
(6.7683 -1.85909 4.98873e-20)
(6.68908 -2.10328 6.98209e-19)
(6.59944 -2.3441 -3.3672e-19)
(6.49959 -2.5811 -3.58744e-19)
(6.38976 -2.81383 1.44917e-18)
(6.27022 -3.04189 -2.15191e-18)
(6.14129 -3.26487 1.38767e-18)
(6.00333 -3.48236 0)
(5.85676 -3.69404 2.78784e-18)
(5.70212 -3.89943 -2.02412e-18)
(5.5399 -4.09819 6.88601e-19)
(5.37089 -4.28963 1.31694e-18)
(5.1955 -4.47317 0)
(6.81259 -0.09753 -4.05366e-20)
(6.80897 -0.342538 0)
(6.79474 -0.587667 -5.22583e-21)
(6.7699 -0.832418 -3.24405e-19)
(6.73448 -1.07629 1.00522e-18)
(6.68855 -1.3188 -1.67216e-19)
(6.63219 -1.55945 0)
(6.56551 -1.79779 1.33204e-18)
(6.48867 -2.03334 -6.85983e-19)
(6.40181 -2.26568 4.45172e-20)
(6.30514 -2.49437 6.35752e-19)
(6.19887 -2.719 6.51649e-19)
(6.08326 -2.93919 -1.2995e-18)
(5.95861 -3.1546 -1.27106e-18)
(5.82528 -3.36487 -1.24153e-18)
(5.68366 -3.56974 -1.32113e-18)
(5.53435 -3.76876 1.31213e-18)
(5.37783 -3.96181 -6.264e-19)
(5.21516 -4.148 -6.67481e-19)
(5.04662 -4.32701 0)
(6.62015 -0.0980181 3.98262e-20)
(6.61589 -0.33474 -1.49539e-19)
(6.60142 -0.571555 -1.54804e-19)
(6.57673 -0.80798 4.63529e-19)
(6.54186 -1.04354 -1.64611e-19)
(6.49687 -1.27777 -1.5387e-19)
(6.44185 -1.5102 0)
(6.3769 -1.74039 -6.32464e-19)
(6.30216 -1.96791 0)
(6.21779 -2.19232 6.27574e-19)
(6.12395 -2.41324 -1.20935e-18)
(6.02086 -2.63029 5.98655e-19)
(5.90876 -2.84311 -1.19364e-18)
(5.78791 -3.05142 1.23174e-18)
(5.65867 -3.25488 6.70412e-19)
(5.52142 -3.45337 0)
(5.37677 -3.64643 -5.7869e-19)
(5.22519 -3.83429 5.7869e-19)
(5.06815 -4.01572 0)
(4.90563 -4.19109 0)
(6.44068 -0.0980059 0)
(6.4358 -0.327 1.46921e-19)
(6.42109 -0.556055 4.72652e-21)
(6.39653 -0.784709 -1.5149e-19)
(6.36216 -1.01251 -1.33588e-19)
(6.31804 -1.239 -1.41825e-19)
(6.26426 -1.46376 5.48162e-19)
(6.20091 -1.68634 0)
(6.12813 -1.90634 0)
(6.04605 -2.12335 2.78578e-19)
(5.95485 -2.33701 2.95928e-19)
(5.85471 -2.54695 1.07106e-18)
(5.74585 -2.75286 -5.47261e-19)
(5.62851 -2.95449 5.47259e-19)
(5.503 -3.15155 5.80952e-19)
(5.36967 -3.34407 3.39679e-20)
(5.22916 -3.53156 -1.06701e-18)
(5.08184 -3.71481 3.7801e-21)
(4.92987 -3.89192 5.2773e-19)
(4.77239 -4.06488 0)
(6.27226 -0.0974965 -3.28388e-20)
(6.26684 -0.319286 3.28384e-20)
(6.25193 -0.541109 0)
(6.22753 -0.762517 1.2369e-19)
(6.19367 -0.983074 4.0178e-19)
(6.15042 -1.20235 -5.07806e-19)
(6.09785 -1.41993 -5.38587e-19)
(6.03608 -1.63541 0)
(5.9652 -1.84838 0)
(5.88537 -2.05848 0)
(5.79673 -2.26534 -9.94286e-19)
(5.69944 -2.46864 -6.41763e-20)
(5.59372 -2.66809 -5.04143e-19)
(5.47974 -2.86345 3.021e-20)
(5.35779 -3.05451 -9.97003e-19)
(5.2281 -3.24141 1.51944e-18)
(5.09138 -3.4237 -1.43972e-18)
(4.94768 -3.60298 4.88728e-19)
(4.80028 -3.77626 9.36938e-19)
(4.64646 -3.94844 0)
(6.11317 -0.0961395 2.95026e-20)
(6.10732 -0.311397 0)
(6.0923 -0.526676 -1.21463e-19)
(6.06812 -0.741538 -2.50282e-19)
(6.03482 -0.955566 1.21311e-19)
(5.99245 -1.16835 9.68718e-19)
(5.94109 -1.37949 0)
(5.88084 -1.5886 -4.66559e-19)
(5.81182 -1.7953 -2.3863e-19)
(5.73413 -1.99923 -4.48301e-19)
(5.64793 -2.20006 -1.79376e-19)
(5.55335 -2.39748 -1.41534e-18)
(5.45057 -2.59121 -9.34217e-19)
(5.33972 -2.78106 9.61007e-19)
(5.22104 -2.96682 9.19883e-19)
(5.09455 -3.14875 -3.88495e-21)
(4.96106 -3.32648 2.99606e-20)
(4.81981 -3.50261 4.50324e-19)
(4.67592 -3.67333 -9.20636e-19)
(4.52264 -3.84854 0)
(5.96183 -0.0944676 -6.16957e-20)
(5.95567 -0.30347 3.03718e-20)
(5.9407 -0.51256 -1.2134e-19)
(5.91689 -0.721347 1.21284e-19)
(5.88427 -0.929439 -3.48831e-19)
(5.84289 -1.13644 -1.08621e-18)
(5.79282 -1.34198 0)
(5.73412 -1.54568 4.93656e-19)
(5.66688 -1.74717 -4.61586e-19)
(5.59122 -1.94614 9.77433e-19)
(5.50723 -2.14223 9.71629e-19)
(5.41503 -2.33516 1.43151e-18)
(5.31475 -2.52467 -9.28895e-19)
(5.20643 -2.71053 4.62687e-19)
(5.09031 -2.89258 -4.55029e-19)
(4.96602 -3.07103 4.55053e-19)
(4.83468 -3.2456 0)
(4.69356 -3.41954 4.12001e-19)
(4.55173 -3.58863 -4.03183e-19)
(4.39401 -3.77512 0)
(7.14018 7.26217 0)
(7.42016 6.97236 0)
(7.68723 6.67297 1.08764e-18)
(7.94211 6.3645 2.02671e-20)
(8.1842 6.04667 -1.1507e-18)
(8.41288 5.71954 0)
(8.62771 5.38351 1.18747e-18)
(8.82837 5.03912 -2.24044e-18)
(9.01454 4.68694 -1.13226e-18)
(9.18592 4.32758 -1.14285e-18)
(9.34226 3.96168 1.14284e-18)
(9.48333 3.58989 -1.15494e-18)
(9.60893 3.21289 5.7611e-19)
(9.71887 2.8314 5.49883e-19)
(9.813 2.44607 5.52032e-19)
(9.89124 2.05756 -5.85843e-19)
(9.95358 1.66655 5.85843e-19)
(10.0001 1.27373 -2.941e-19)
(10.0307 0.879507 -1.39703e-19)
(10.046 0.485226 7.35815e-20)
(7.41714 7.07048 0)
(7.69733 6.78106 -9.96695e-19)
(7.96373 6.48006 -2.13086e-18)
(8.21663 6.16817 3.15114e-18)
(8.45579 5.84572 -2.18519e-18)
(8.6807 5.51314 2.19597e-18)
(8.89088 5.17105 1.19385e-18)
(9.0859 4.82011 -3.38782e-18)
(9.2654 4.46102 1.1083e-18)
(9.42901 4.09448 2.20325e-18)
(9.57641 3.72123 1.08552e-18)
(9.70736 3.34201 1.0924e-18)
(9.82169 2.95764 -1.15274e-18)
(9.91918 2.56883 1.69744e-18)
(9.99956 2.17637 -2.35499e-18)
(10.0627 1.78114 5.81292e-19)
(10.1087 1.38395 -5.58588e-19)
(10.1376 0.985597 0)
(10.1492 0.586631 1.51573e-20)
(10.144 0.188027 0)
(7.27423 6.94578 -1.75505e-18)
(7.55724 6.67376 9.85293e-19)
(7.82771 6.38887 1.80238e-18)
(8.08519 6.09179 8.15982e-19)
(8.32925 5.78309 2.04349e-18)
(8.55936 5.46338 2.0046e-20)
(8.775 5.13334 -1.02427e-18)
(8.97567 4.79365 -3.05259e-18)
(9.16094 4.44504 3.01375e-18)
(9.33035 4.08823 -3.09365e-18)
(9.48352 3.72396 -1.03067e-18)
(9.62015 3.35299 -2.06208e-18)
(9.73992 2.97616 0)
(9.84263 2.59421 0)
(9.92813 2.20807 0)
(9.99625 1.81863 -5.25624e-19)
(10.0468 1.42674 5.50493e-19)
(10.0799 1.03324 5.2732e-19)
(10.0952 0.638861 6.27069e-21)
(10.0929 0.244562 1.3244e-19)
(7.04699 6.69375 1.82273e-18)
(7.32675 6.44039 -1.6553e-18)
(7.59516 6.17391 -1.69641e-19)
(7.8515 5.89484 -1.70603e-19)
(8.0952 5.60376 4.30333e-18)
(8.32572 5.30127 -7.12685e-20)
(8.54251 4.98801 3.77784e-21)
(8.74502 4.66462 -2.72135e-18)
(8.93277 4.3318 1.79554e-18)
(9.10528 3.99022 0)
(9.26206 3.64068 9.63036e-19)
(9.40276 3.284 9.69702e-19)
(9.52711 2.92096 0)
(9.63478 2.55239 0)
(9.72558 2.17913 0)
(9.79928 1.80198 0)
(9.85571 1.42177 -2.17163e-20)
(9.89474 1.03935 4.74818e-19)
(9.91625 0.655551 -2.28014e-19)
(9.92025 0.271318 0)
(6.78434 6.379 1.54381e-18)
(7.05624 6.1435 0)
(7.31791 5.89506 -4.54558e-18)
(7.56855 5.6341 -1.54938e-18)
(7.80751 5.36114 -1.62816e-18)
(8.03422 5.07674 -1.72593e-18)
(8.24811 4.78148 8.15447e-19)
(8.44862 4.47595 -8.56999e-19)
(8.63523 4.1608 2.37968e-18)
(8.80749 3.8367 -7.79062e-19)
(8.96497 3.50442 0)
(9.10717 3.16471 0)
(9.23371 2.81826 0)
(9.34431 2.46586 0)
(9.43871 2.10831 -1.23029e-18)
(9.51666 1.74642 4.23036e-19)
(9.57793 1.38101 -4.46863e-19)
(9.62237 1.0129 0)
(9.64985 0.642931 2.24874e-19)
(9.66029 0.272005 0)
(6.50941 6.05176 1.32077e-18)
(6.77107 5.83241 -4.79982e-20)
(7.02345 5.60053 2.77817e-18)
(7.26574 5.35646 1.38798e-18)
(7.49728 5.10066 0)
(7.71749 4.83364 -1.4739e-18)
(7.9258 4.55592 6.85327e-20)
(8.12167 4.26807 -1.4963e-18)
(8.30457 3.97068 2.07009e-18)
(8.47403 3.66439 3.27471e-20)
(8.62961 3.34984 2.81231e-20)
(8.77086 3.02766 -7.46684e-19)
(8.89738 2.69859 1.46442e-18)
(9.00884 2.36337 0)
(9.10498 2.02272 6.85898e-20)
(9.18549 1.67748 7.47655e-19)
(9.25011 1.3284 1.6394e-21)
(9.29866 0.976281 -1.53507e-20)
(9.331 0.621913 0)
(9.34701 0.266134 -4.6353e-20)
(6.24355 5.73471 0)
(6.49388 5.52934 -4.8925e-20)
(6.73568 5.31197 1.75849e-20)
(6.96817 5.08289 -2.51146e-18)
(7.19072 4.84249 0)
(7.40276 4.59124 1.27022e-18)
(7.60373 4.32961 1.35296e-18)
(7.79313 4.05813 -3.93636e-18)
(7.97043 3.77732 -6.83042e-20)
(8.13517 3.48778 -1.264e-18)
(8.28691 3.19007 6.95957e-19)
(8.42523 2.88484 -6.42901e-19)
(8.54972 2.57274 -7.06733e-19)
(8.66002 2.25447 0)
(8.75589 1.93076 3.72853e-19)
(8.8371 1.60219 -1.69146e-20)
(8.90328 1.26965 -3.46139e-19)
(8.95421 0.933854 -1.67765e-20)
(8.98978 0.59556 -8.71326e-20)
(9.00982 0.255539 1.74639e-19)
(5.998 5.43947 0)
(6.23675 5.24595 1.08602e-18)
(6.46755 5.041 1.61924e-20)
(6.68968 4.82487 -1.10218e-18)
(6.90253 4.59791 0)
(7.10556 4.36054 1.14667e-18)
(7.29825 4.1132 -1.0948e-18)
(7.48009 3.85635 -1.21195e-18)
(7.65061 3.59049 2.30533e-18)
(7.80936 3.31616 1.2439e-18)
(7.95592 3.03391 0)
(8.08988 2.74432 6.06727e-19)
(8.21087 2.44803 -4.39282e-21)
(8.31856 2.14566 2.18737e-20)
(8.41255 1.8379 0)
(8.49268 1.52537 -5.97226e-19)
(8.55881 1.20869 -3.12884e-19)
(8.61051 0.88866 4.57146e-19)
(8.64768 0.56602 3.08224e-19)
(8.67014 0.241475 -4.11982e-20)
(5.77644 5.17098 0)
(6.00392 4.98744 -9.3802e-19)
(6.22391 4.79304 0)
(6.43573 4.58801 -1.01203e-18)
(6.63881 4.37266 1.99247e-18)
(6.83263 4.14735 -2.032e-18)
(7.0167 3.91251 3.17964e-18)
(7.19055 3.66855 -3.1705e-18)
(7.35374 3.41594 -2.1421e-18)
(7.50585 3.15518 -1.57994e-18)
(7.64647 2.88679 5.41785e-19)
(7.77522 2.61134 -1.12322e-18)
(7.89176 2.32938 1.86551e-20)
(7.99575 2.04152 1.11655e-18)
(8.08691 1.74837 -2.80899e-19)
(8.16487 1.45063 1.1507e-18)
(8.22952 1.14879 -5.65958e-19)
(8.2807 0.843569 2.60763e-19)
(8.31815 0.535694 -1.48708e-19)
(8.34167 0.225835 0)
(5.57858 4.92963 0)
(5.79544 4.75454 1.8147e-18)
(6.00517 4.56915 8.80276e-19)
(6.20711 4.37365 -9.06106e-19)
(6.40072 4.16833 -1.85615e-18)
(6.58553 3.95351 2.8245e-18)
(6.76109 3.72957 1.12977e-20)
(6.92695 3.49691 -9.20664e-19)
(7.08271 3.25597 1.97649e-18)
(7.22798 3.00723 1.02079e-18)
(7.36237 2.75118 -9.53706e-19)
(7.48553 2.48834 5.0078e-19)
(7.59713 2.21925 2.25469e-20)
(7.69686 1.94449 -5.26938e-19)
(7.78443 1.66461 -2.55347e-19)
(7.85957 1.38021 5.12005e-19)
(7.92204 1.09199 -2.56658e-19)
(7.97173 0.800429 -5.17928e-19)
(8.00847 0.506222 6.00175e-20)
(8.03201 0.210015 6.4898e-20)