/*--------------------------------*- C++ -*----------------------------------*\
| =========                 |                                                 |
| \\      /  F ield         | OpenFOAM: The Open Source CFD Toolbox           |
|  \\    /   O peration     | Version:  v1912                                 |
|   \\  /    A nd           | Website:  www.openfoam.com                      |
|    \\/     M anipulation  |                                                 |
\*---------------------------------------------------------------------------*/
FoamFile
{
    version     2.0;
    format      ascii;
    class       surfaceScalarField;
    location    "13";
    object      phi;
}
// * * * * * * * * * * * * * * * * * * * * * * * * * * * * * * * * * * * * * //

dimensions      [0 3 -1 0 0 0 0];
oriented        oriented;


internalField   nonuniform List<scalar> 
18940
(
0.000284454
-0.235604
0.23532
0.00111709
-0.218407
0.217575
0.00235378
-0.206814
0.205577
0.00384914
-0.198504
0.197009
0.00549524
-0.192004
0.190358
0.00720782
-0.186393
0.184681
0.00892581
-0.181162
0.179444
0.0106086
-0.176058
0.174375
0.0122316
-0.170973
0.16935
0.0137825
-0.165885
0.164334
0.0152578
-0.16081
0.159335
0.0166596
-0.155784
0.154382
0.0179941
-0.150846
0.149512
0.0192696
-0.146032
0.144757
0.0204957
-0.14137
0.140144
0.0216824
-0.136877
0.135691
0.0228397
-0.13256
0.131403
0.0239765
-0.128411
0.127274
0.0250997
-0.124409
0.123286
-0.120519
0.119406
0.0262128
0.000306439
-0.235911
0.0011585
-0.21926
0.00240561
-0.208061
0.00390802
-0.200007
0.00555384
-0.19365
0.00725861
-0.188098
0.00896224
-0.182866
0.0106253
-0.177721
0.0122246
-0.172573
0.0137493
-0.16741
0.0151969
-0.162257
0.0165708
-0.157158
0.0178776
-0.152153
0.0191264
-0.147281
0.020327
-0.142571
0.0214899
-0.13804
0.0226253
-0.133695
0.0237425
-0.129528
0.0248489
-0.125516
-0.121619
0.0259488
0.000326781
-0.236237
0.00119462
-0.220127
0.00245143
-0.209318
0.00395789
-0.201513
0.00560057
-0.195293
0.00729466
-0.189792
0.00898097
-0.184552
0.0106214
-0.179361
0.0121944
-0.174146
0.0136903
-0.168905
0.0151081
-0.163675
0.0164519
-0.158501
0.0177293
-0.15343
0.0189497
-0.148501
0.0201234
-0.143744
0.021261
-0.139178
0.0223731
-0.134807
0.0234693
-0.130624
0.0245575
-0.126604
-0.122704
0.025643
0.000339731
-0.236577
0.00122252
-0.22101
0.00248914
-0.210584
0.00399793
-0.203022
0.00563487
-0.19693
0.00731544
-0.191473
0.00898152
-0.186218
0.0105966
-0.180976
0.0121406
-0.17569
0.0136054
-0.17037
0.0149912
-0.165061
0.0163031
-0.159813
0.0175494
-0.154677
0.01874
-0.149692
0.0198854
-0.14489
0.0209965
-0.140289
0.0220839
-0.135895
0.0231579
-0.131698
0.0242269
-0.127673
-0.123774
0.0252969
0.000350307
-0.236927
0.00124579
-0.221906
0.00252006
-0.211859
0.00402867
-0.20453
0.00565702
-0.198558
0.00732112
-0.193137
0.00896411
-0.187861
0.010551
-0.182563
0.0120635
-0.177202
0.013495
-0.171802
0.0148467
-0.166413
0.016125
-0.161091
0.0173386
-0.15589
0.0184979
-0.150851
0.0196137
-0.146006
0.0206969
-0.141372
0.0217586
-0.136956
0.0228092
-0.132749
0.0238579
-0.128722
-0.124828
0.0249117
0.000358931
-0.237286
0.00126482
-0.222812
0.00254439
-0.213138
0.00405024
-0.206036
0.00566715
-0.200175
0.00731185
-0.194781
0.00892888
-0.189478
0.010485
-0.184119
0.0119635
-0.178681
0.0133593
-0.173198
0.0146751
-0.167728
0.0159179
-0.162334
0.0170973
-0.15707
0.0182239
-0.151978
0.0193087
-0.14709
0.0203629
-0.142426
0.0213976
-0.137991
0.0224236
-0.133775
0.023451
-0.129749
-0.125865
0.0244877
0.000366184
-0.237652
0.00128029
-0.223726
0.00256265
-0.21442
0.00406298
-0.207537
0.00566556
-0.201778
0.00728794
-0.196404
0.00887619
-0.191066
0.0103988
-0.185642
0.0118409
-0.180123
0.013199
-0.174556
0.0144768
-0.169006
0.0156824
-0.16354
0.0168259
-0.158213
0.0179184
-0.15307
0.0189709
-0.148143
0.0199947
-0.14345
0.021001
-0.138997
0.0220013
-0.134775
0.0230061
-0.130754
-0.126883
0.0240246
0.00037222
-0.238025
0.0012925
-0.224646
0.00257517
-0.215703
0.00406724
-0.209029
0.00565261
-0.203363
0.0072498
-0.198001
0.0088065
-0.192623
0.0102931
-0.187129
0.0116964
-0.181526
0.0130145
-0.175874
0.0142523
-0.170244
0.0154189
-0.164707
0.016525
-0.159319
0.0175818
-0.154127
0.0186005
-0.149162
0.0195923
-0.144442
0.0205688
-0.139974
0.0215417
-0.135748
0.0225225
-0.131735
-0.127882
0.0235215
0.000377141
-0.238402
0.00130169
-0.22557
0.00258231
-0.216984
0.00406344
-0.21051
0.00562877
-0.204928
0.00719794
-0.19957
0.00872039
-0.194146
0.0101684
-0.188576
0.0115306
-0.182888
0.0128065
-0.17715
0.0140024
-0.17144
0.0151282
-0.165832
0.016195
-0.160386
0.0172143
-0.155146
0.0181975
-0.150145
0.0191557
-0.1454
0.0201006
-0.140919
0.0210442
-0.136692
0.021999
-0.132689
-0.12886
0.0229769
0.000381012
-0.238783
0.00130811
-0.226498
0.00258445
-0.21826
0.00405206
-0.211977
0.00559462
-0.206471
0.00713305
-0.201109
0.00861864
-0.195631
0.0100256
-0.189983
0.0113443
-0.184207
0.012576
-0.178381
0.0137279
-0.172592
0.0148108
-0.166915
0.0158365
-0.161412
0.0168165
-0.156126
0.0177622
-0.151091
0.0186847
-0.146323
0.0195956
-0.14183
0.0205075
-0.137604
0.021434
-0.133616
-0.129815
0.0223884
0.000383928
-0.239167
0.00131206
-0.227426
0.00258207
-0.21953
0.0040337
-0.213429
0.00555086
-0.207988
0.00705596
-0.202614
0.00850217
-0.197077
0.0098657
-0.191347
0.0111388
-0.18548
0.012324
-0.179566
0.0134299
-0.173698
0.0144679
-0.167953
0.0154502
-0.162394
0.0163887
-0.157065
0.0172946
-0.151997
0.0181789
-0.147207
0.0190531
-0.142704
0.0199303
-0.138481
0.0208252
-0.134511
-0.130742
0.0217532
0.000386027
-0.239553
0.00131393
-0.228354
0.00257572
-0.220792
0.00400905
-0.214862
0.00549836
-0.209477
0.00696766
-0.204083
0.00837215
-0.198482
0.00969002
-0.192665
0.0109153
-0.186705
0.0120519
-0.180703
0.0131096
-0.174756
0.0141005
-0.168944
0.0150372
-0.163331
0.0159317
-0.15796
0.0167951
-0.15286
0.0176382
-0.14805
0.0184724
-0.143538
0.0193111
-0.139319
0.0201703
-0.13537
-0.13164
0.0210677
0.000387571
-0.23994
0.00131426
-0.22928
0.00256614
-0.222044
0.00397902
-0.216275
0.00543815
-0.210937
0.00686938
-0.205514
0.00822996
-0.199842
0.00950008
-0.193935
0.0106755
-0.187881
0.0117615
-0.181789
0.0127689
-0.175763
0.0137104
-0.169886
0.014599
-0.164219
0.0154467
-0.158807
0.0162646
-0.153678
0.0170629
-0.148848
0.0178529
-0.144328
0.0186483
-0.140115
0.0194666
-0.136188
-0.132501
0.0203281
0.000389016
-0.240329
0.00131384
-0.230205
0.00255425
-0.223284
0.00394463
-0.217666
0.00537144
-0.212363
0.0067625
-0.206905
0.00807722
-0.201157
0.00929774
-0.195155
0.0104215
-0.189004
0.0114551
-0.182823
0.0124101
-0.176718
0.0132999
-0.170775
0.0141377
-0.165057
0.0149355
-0.159605
0.0157041
-0.154446
0.0164534
-0.149598
0.0171942
-0.145069
0.0179402
-0.140861
0.0187104
-0.136958
-0.133319
0.0195281
0.000391139
-0.240721
0.00131377
-0.231128
0.00254111
-0.224512
0.00390702
-0.219031
0.00529953
-0.213756
0.00664861
-0.208254
0.00791579
-0.202424
0.00908517
-0.196325
0.0101558
-0.190075
0.0111354
-0.183802
0.0120364
-0.177619
0.0128723
-0.171611
0.0136566
-0.165841
0.0144011
-0.16035
0.0151162
-0.155161
0.0158111
-0.150293
0.0164961
-0.145754
0.0171845
-0.141549
0.0178963
-0.13767
-0.134083
0.0186604
0.000395056
-0.241116
0.00131528
-0.232048
0.0025278
-0.225724
0.00386735
-0.220371
0.00522384
-0.215112
0.00652939
-0.20956
0.0077477
-0.203643
0.00886481
-0.197442
0.00988122
-0.191091
0.0108058
-0.184727
0.0116515
-0.178465
0.012432
-0.172392
0.0131606
-0.16657
0.0138488
-0.161038
0.0145062
-0.155819
0.0151413
-0.150928
0.0157629
-0.146375
0.0163834
-0.14217
0.0170243
-0.138311
-0.134781
0.0177225
0.000402126
-0.241518
0.00131959
-0.232965
0.00251547
-0.22692
0.00382695
-0.221683
0.00514593
-0.216431
0.00640669
-0.210821
0.00757516
-0.204811
0.00863931
-0.198506
0.00960106
-0.192053
0.0104702
-0.185596
0.0112599
-0.179254
0.0119841
-0.173116
0.0126555
-0.167241
0.0132851
-0.161667
0.0138817
-0.156415
0.0144524
-0.151499
0.0150045
-0.146927
0.0155485
-0.142714
0.0161061
-0.138869
-0.135392
0.016717
0.000414666
-0.241932
0.00132926
-0.23388
0.00250647
-0.228097
0.00378773
-0.222964
0.00506745
-0.217711
0.00628222
-0.212035
0.00740024
-0.205929
0.00841132
-0.199517
0.0093187
-0.192961
0.0101328
-0.18641
0.010867
-0.179989
0.0115348
-0.173784
0.0121481
-0.167855
0.0127168
-0.162236
0.0132486
-0.156947
0.0137496
-0.151999
0.0142254
-0.147403
0.014683
-0.143171
0.0151375
-0.139323
-0.135874
0.015619
0.000440283
-0.242373
0.00135154
-0.234791
0.00250477
-0.22925
0.00375137
-0.22421
0.00498935
-0.218949
0.00615706
-0.213203
0.00722452
-0.206997
0.00818323
-0.200476
0.00903761
-0.193815
0.00979865
-0.187171
0.0104796
-0.180669
0.0110931
-0.174397
0.0116496
-0.168411
0.0121567
-0.162743
0.012619
-0.15741
0.0130393
-0.15242
0.0134183
-0.147782
0.0137545
-0.143508
0.0140538
-0.139622
-0.136202
0.0143815
0.000498993
-0.242872
0.00139517
-0.235687
0.00250986
-0.230365
0.00371637
-0.225417
0.00491083
-0.220143
0.00603125
-0.214324
0.00704888
-0.208014
0.00795679
-0.201384
0.0087607
-0.194619
0.00947234
-0.187883
0.010105
-0.181302
0.0106709
-0.174963
0.0111788
-0.168919
0.0116337
-0.163198
0.0120352
-0.157811
0.0123766
-0.152761
0.0126427
-0.148048
0.0128083
-0.143673
0.0128628
-0.139677
-0.13634
0.0130017
0.249583
0.000374266
-0.249957
0.249236
0.00034687
0.248897
0.000338361
0.24856
0.000337491
0.24822
0.000339659
0.247877
0.000343212
0.247529
0.000347465
0.247178
0.00035185
0.246822
0.000355976
0.246462
0.00035963
0.246099
0.000362709
0.245734
0.000365176
0.245367
0.000367007
0.244999
0.000368166
0.24463
0.000368521
0.244263
0.00036785
0.243897
0.000365094
0.243538
0.000359684
0.243195
0.000342435
0.000323704
0.249582
0.000913446
-0.250121
0.249011
0.000917421
0.248416
0.000933798
0.247797
0.000956445
0.247155
0.000980874
0.246493
0.0010053
0.245812
0.00102927
0.245111
0.0010523
0.244393
0.00107395
0.243659
0.00109393
0.242909
0.00111211
0.242146
0.00112843
0.24137
0.00114285
0.240583
0.00115535
0.239786
0.00116575
0.23898
0.0011738
0.238167
0.00117838
0.237347
0.00117915
0.23652
0.00116965
0.00115622
0.246888
0.00141618
-0.247391
0.246325
0.00148045
0.245714
0.00154477
0.24506
0.00161051
0.244366
0.00167551
0.243633
0.00173812
0.242864
0.00179801
0.242062
0.00185493
0.241227
0.00190861
0.240362
0.00195884
0.239469
0.00200553
0.238548
0.00204866
0.237603
0.00208828
0.236634
0.00212441
0.235643
0.00215702
0.23463
0.00218608
0.233598
0.00221101
0.232545
0.00223198
0.231468
0.0022466
0.00225907
0.24179
0.00180849
-0.242182
0.241334
0.00193621
0.24082
0.00205913
0.240251
0.00217908
0.239631
0.00229573
0.238961
0.00240789
0.238244
0.0025152
0.237482
0.00261747
0.236676
0.00271449
0.235828
0.00280613
0.234942
0.00289235
0.234017
0.00297319
0.233057
0.00304877
0.232062
0.00311928
0.231034
0.00318491
0.229974
0.00324591
0.228883
0.00330229
0.22776
0.00335461
0.226605
0.00340213
0.00344672
0.234921
0.00205843
-0.235171
0.234607
0.0022506
0.23423
0.00243589
0.233794
0.00261545
0.2333
0.00278955
0.23275
0.00295741
0.232147
0.00311862
0.231492
0.00327296
0.230786
0.00342025
0.230032
0.00356035
0.229231
0.00369325
0.228385
0.00381906
0.227496
0.00393799
0.226564
0.00405037
0.225593
0.00415661
0.224581
0.00425727
0.223531
0.00435282
0.222441
0.00444409
0.221312
0.00453118
0.00461557
0.226954
0.00217242
-0.227068
0.226777
0.00242837
0.226536
0.00267637
0.226235
0.00291693
0.225874
0.00315035
0.225455
0.00337605
0.22498
0.00359364
0.22445
0.00380282
0.223867
0.00400337
0.223232
0.00419517
0.222547
0.0043782
0.221814
0.0045526
0.221033
0.00471865
0.220207
0.00487684
0.219336
0.00502777
0.218421
0.00517231
0.217462
0.00531132
0.21646
0.00544601
0.215414
0.00557711
0.00570627
0.218487
0.00217604
-0.218491
0.218422
0.00249362
0.218295
0.00280256
0.218109
0.00310295
0.217865
0.0033949
0.217563
0.00367792
0.217205
0.00395159
0.216792
0.00421556
0.216326
0.00446954
0.215808
0.00471339
0.215239
0.00494707
0.214621
0.00517073
0.213955
0.00538472
0.213242
0.00558962
0.212484
0.00578628
0.21168
0.00597584
0.210832
0.00615959
0.209939
0.00633918
0.209
0.00651595
0.00669182
0.209969
0.00210002
-0.209893
0.209986
0.00247625
0.209945
0.00284328
0.209847
0.00320094
0.209693
0.00354915
0.209484
0.0038874
0.20922
0.00421522
0.208903
0.0045322
0.208535
0.00483799
0.208116
0.00513238
0.207648
0.00541529
0.207131
0.00568686
0.206569
0.00594747
0.205961
0.00619781
0.205308
0.00643892
0.204611
0.00667225
0.203872
0.00689955
0.203088
0.00712302
0.202259
0.00734469
0.00756695
0.201697
0.00197292
-0.20157
0.201769
0.00240457
0.201785
0.00282652
0.201748
0.0032384
0.201657
0.00363997
0.201514
0.00403066
0.201319
0.00440995
0.201074
0.00477732
0.20078
0.00513235
0.200437
0.00547475
0.200048
0.00580438
0.199614
0.00612132
0.199135
0.00642595
0.198614
0.00671902
0.198051
0.00700177
0.197448
0.00727593
0.196803
0.00754381
0.196118
0.00780823
0.195391
0.00807217
0.00833873
0.193846
0.00181813
-0.193691
0.193948
0.00230216
0.193999
0.00277597
0.193998
0.00323907
0.193947
0.00369105
0.193847
0.00413129
0.193697
0.00455915
0.193501
0.00497405
0.193257
0.00537546
0.192969
0.00576298
0.192637
0.00613636
0.192263
0.0064956
0.191848
0.00684102
0.191394
0.00717338
0.190901
0.00749405
0.190372
0.00780504
0.189807
0.00810929
0.189205
0.00841035
0.188564
0.00871249
0.00901993
0.186498
0.00165321
-0.186333
0.186614
0.00218695
0.18668
0.00270996
0.186697
0.00322158
0.186667
0.00372131
0.18659
0.0042084
0.186467
0.00468216
0.186299
0.00514187
0.186087
0.0055869
0.185834
0.00601669
0.185539
0.00643088
0.185206
0.00682929
0.184834
0.00721214
0.184428
0.00758007
0.183987
0.00793456
0.183515
0.00827776
0.18301
0.00861335
0.182475
0.00894567
0.181907
0.00928084
0.00962458
0.179677
0.0014903
-0.179514
0.179792
0.0020716
0.179861
0.00264161
0.179883
0.00319954
0.179859
0.00374475
0.179791
0.00427643
0.17968
0.00479376
0.179526
0.00529591
0.17933
0.00578211
0.179095
0.00625166
0.178822
0.00670398
0.178513
0.00713869
0.178169
0.00755579
0.177794
0.0079557
0.177388
0.00833984
0.176956
0.00871037
0.176497
0.00907178
0.176014
0.00942899
0.175504
0.00979104
0.0101653
0.173367
0.00133725
-0.173214
0.173474
0.0019645
0.173536
0.00257979
0.173553
0.00318223
0.173527
0.00377112
0.173458
0.00434553
0.173347
0.00490453
0.173196
0.00544719
0.173005
0.00597256
0.172777
0.00647976
0.172513
0.00696797
0.172215
0.00743652
0.171886
0.0078851
0.171528
0.00831371
0.171144
0.0087236
0.170738
0.00911648
0.170312
0.00949785
0.169869
0.00987258
0.169405
0.0102543
0.0106515
0.167534
0.00119881
-0.167395
0.167628
0.00187071
0.167677
0.00252992
0.167684
0.00317552
0.167649
0.00380668
0.167572
0.00442237
0.167455
0.00502157
0.167299
0.00560319
0.167105
0.00616615
0.166875
0.00670934
0.166612
0.00723167
0.166316
0.00773212
0.165991
0.00820992
0.165641
0.00866446
0.165268
0.00909658
0.164877
0.00950698
0.164473
0.00990225
0.16406
0.0102858
0.163635
0.010679
0.0110884
0.162133
0.00107743
-0.162011
0.16221
0.00179303
0.162245
0.00249509
0.162238
0.00318277
0.162189
0.00385508
0.162101
0.00451091
0.161973
0.00514913
0.161808
0.00576852
0.161606
0.00636784
0.16137
0.00694575
0.161101
0.00750088
0.160801
0.00803176
0.160474
0.00853708
0.160123
0.0090154
0.159753
0.00946681
0.15937
0.00989023
0.158978
0.0102934
0.158589
0.0106751
0.158198
0.0110701
0.0114752
0.157116
0.000974183
-0.157013
0.157177
0.00173248
0.157195
0.00247654
0.157173
0.00320539
0.15711
0.00391792
0.157008
0.00461295
0.156868
0.00528922
0.156691
0.00594541
0.156479
0.00658012
0.156233
0.00719177
0.155955
0.00777869
0.155648
0.00833897
0.155314
0.00887065
0.154958
0.00937125
0.154585
0.00983975
0.154203
0.0102723
0.153819
0.0106777
0.153449
0.0110453
0.153088
0.0114309
0.0118019
0.152439
0.000888972
-0.152354
0.152483
0.00168886
0.152485
0.00247416
0.152447
0.00324334
0.15237
0.00399523
0.152254
0.00472855
0.152102
0.00544196
0.151913
0.00613405
0.15169
0.00680324
0.151434
0.00744778
0.151147
0.00806568
0.150831
0.00865461
0.15049
0.00921194
0.150127
0.009734
0.149749
0.0102183
0.149364
0.0106571
0.148982
0.0110596
0.148628
0.0113992
0.148294
0.0117655
0.012047
0.14806
0.000819276
-0.14799
0.148088
0.00166099
0.148075
0.00248658
0.148024
0.00329516
0.147933
0.00408543
0.147806
0.00485601
0.147642
0.00560552
0.147444
0.00633244
0.147212
0.00703509
0.146948
0.00771154
0.146655
0.00835957
0.146333
0.00897646
0.145986
0.00955897
0.145617
0.0101023
0.145234
0.0106021
0.144845
0.011046
0.144463
0.0114414
0.144126
0.0117364
0.143813
0.0120785
0.0121866
0.14394
0.000764515
-0.143886
0.143955
0.00164637
0.143931
0.00251105
0.143868
0.00335773
0.143768
0.00418499
0.143633
0.00499138
0.143463
0.00577551
0.14326
0.00653579
0.143024
0.00727044
0.142758
0.00797742
0.142464
0.00865434
0.142142
0.0092982
0.141796
0.00990532
0.141428
0.0104699
0.141044
0.0109863
0.140654
0.0114363
0.14027
0.0118251
0.13995
0.0120561
0.139674
0.0123548
0.0121836
0.140045
-0.140003
0.000722548
0.14005
0.00164152
0.140017
0.00254359
0.139949
0.00342641
0.139845
0.00428855
0.139708
0.00512858
0.139538
0.00594511
0.139338
0.00673649
0.139107
0.00750091
0.138848
0.00823624
0.138563
0.00894003
0.138252
0.00960912
0.137917
0.0102397
0.137562
0.0108252
0.137189
0.0113598
0.136805
0.0118204
0.136417
0.0122125
0.136087
0.0123864
0.135846
0.012596
0.0116887
0.252718
7.10383e-05
-0.252789
0.252687
3.10225e-05
0.252663
2.44669e-05
0.252632
3.09205e-05
0.252589
4.31523e-05
0.25253
5.87689e-05
0.252453
7.65069e-05
0.252358
9.53133e-05
0.252244
0.000114386
0.25211
0.000133365
0.251959
0.00015182
0.251789
0.000169234
0.251604
0.000185589
0.251403
0.000201204
0.251186
0.000216614
0.250955
0.000231101
0.250712
0.000242873
0.25046
0.000251776
0.250208
0.000252186
0.000251155
0.252544
-0.000217442
-0.252256
0.252778
-0.000202745
0.252973
-0.000170162
0.253128
-0.000124479
0.253244
-7.211e-05
0.253318
-1.59091e-05
0.253352
4.2987e-05
0.253344
0.000103409
0.253293
0.000164557
0.2532
0.000226583
0.253065
0.000287246
0.252888
0.000345806
0.252672
0.000402101
0.252418
0.000455186
0.252125
0.000509417
0.251792
0.000563713
0.251424
0.000611637
0.251021
0.000654562
0.250585
0.000687846
0.000715506
0.246887
-0.000814038
-0.246291
0.247417
-0.000731849
0.247887
-0.000640251
0.248301
-0.000538943
0.24866
-0.000431161
0.248964
-0.000319316
0.249211
-0.00020444
0.249403
-8.81725e-05
0.24954
2.67182e-05
0.249618
0.000148842
0.249639
0.000266031
0.249606
0.00037942
0.249516
0.000491643
0.24937
0.000601712
0.249169
0.000709827
0.248918
0.00081498
0.248615
0.000914666
0.248261
0.00100869
0.247853
0.00109537
0.0011776
0.238092
-0.00165486
-0.237251
0.238867
-0.00150717
0.23958
-0.00135275
0.240232
-0.00119056
0.240822
-0.00102187
0.241352
-0.000848553
0.241819
-0.000671932
0.242224
-0.0004933
0.242564
-0.000313515
0.242843
-0.000130126
0.243055
5.4887e-05
0.243207
0.000226986
0.243295
0.000403391
0.24332
0.000576809
0.243283
0.000746828
0.243185
0.000912899
0.243026
0.00107381
0.242806
0.00122892
0.242524
0.00137725
0.00151925
0.227862
-0.0026693
-0.226848
0.228816
-0.00246102
0.229709
-0.00224573
0.230542
-0.00202284
0.231313
-0.00179289
0.232021
-0.00155735
0.232667
-0.00131756
0.233248
-0.00107464
0.233764
-0.000829559
0.234217
-0.000582848
0.234609
-0.000336553
0.23493
-9.468e-05
0.235187
0.000146465
0.235379
0.000384656
0.235506
0.000620055
0.235568
0.000850892
0.235565
0.00107649
0.235498
0.0012961
0.235367
0.00150887
0.00171456
0.21729
-0.00379461
-0.216165
0.21836
-0.00353049
0.219372
-0.00325779
0.220325
-0.00297655
0.22122
-0.00268725
0.222054
-0.00239118
0.222826
-0.00208979
0.223536
-0.00178443
0.224183
-0.00147644
0.224767
-0.00116706
0.225288
-0.000857568
0.225743
-0.000549599
0.226133
-0.000243841
0.226461
5.66117e-05
0.226724
0.000357058
0.226922
0.000653215
0.227055
0.000943346
0.227124
0.00122732
0.227128
0.00150444
0.00177429
0.207039
-0.00498106
-0.205853
0.208174
-0.00466507
0.209255
-0.00433844
0.21028
-0.00400169
0.211248
-0.00365553
0.212158
-0.00330138
0.213009
-0.0029409
0.213801
-0.00257568
0.214531
-0.00220725
0.215201
-0.00183699
0.21581
-0.00146613
0.216357
-0.0010962
0.216841
-0.000728067
0.21726
-0.000362491
0.217624
-7.44503e-06
0.217922
0.000355246
0.218158
0.00070789
0.218331
0.00105414
0.218442
0.00139357
0.00172559
0.19746
-0.00619255
-0.196248
0.198622
-0.00582788
0.199734
-0.00545025
0.200793
-0.0050605
0.201797
-0.00465977
0.202746
-0.00424981
0.203637
-0.00383257
0.204472
-0.00340987
0.205248
-0.00298344
0.205966
-0.00255481
0.206625
-0.00212536
0.207225
-0.00169649
0.207766
-0.00126929
0.208249
-0.000844807
0.208666
-0.000424372
0.209034
-1.33735e-05
0.209337
0.000404778
0.209582
0.000809775
0.209767
0.00120852
0.00159979
0.188689
-0.00740506
-0.187476
0.189855
-0.00699421
0.190973
-0.0065678
0.192039
-0.00612692
0.193053
-0.00567331
0.194012
-0.00520925
0.194917
-0.00473706
0.195766
-0.00425887
0.196559
-0.00377661
0.197296
-0.00329196
0.197977
-0.00280639
0.198602
-0.00232127
0.19917
-0.00183778
0.199682
-0.0013569
0.200138
-0.000879973
0.200533
-0.000408134
0.200879
5.84822e-05
0.201165
0.000523575
0.201396
0.000978159
0.00142551
0.180738
-0.00860405
-0.179539
0.181893
-0.00814903
0.183001
-0.00767542
0.184058
-0.00718453
0.185064
-0.00667902
0.186017
-0.00616193
0.186916
-0.00563604
0.187761
-0.00510381
0.188551
-0.0045674
0.189288
-0.00402861
0.189971
-0.00348899
0.190599
-0.00294986
0.191174
-0.00241241
0.191695
-0.00187765
0.192161
-0.00134663
0.192573
-0.000820317
0.192932
-0.000299645
0.193239
0.000216143
0.193492
0.000725554
0.00122601
0.173551
-0.00978196
-0.172373
0.174686
-0.00928464
0.175776
-0.00876479
0.176816
-0.00822425
0.177804
-0.00766714
0.178739
-0.00709746
0.179622
-0.00651852
0.180451
-0.00593318
0.181227
-0.00534381
0.181951
-0.00475232
0.182622
-0.00416024
0.183241
-0.00356887
0.183808
-0.00297935
0.184323
-0.00239269
0.184787
-0.00180982
0.185198
-0.00123167
0.185557
-0.000658907
0.185867
-9.39675e-05
0.186126
0.000467056
0.00101836
0.167041
-0.0109362
-0.165887
0.168155
-0.0103986
0.169223
-0.00983289
0.170241
-0.00924228
0.171207
-0.00863318
0.172121
-0.00801075
0.172981
-0.0073789
0.173789
-0.00674089
0.174544
-0.00609931
0.175248
-0.00545609
0.1759
-0.00481273
0.176502
-0.00417045
0.177053
-0.00353032
0.177554
-0.00289329
0.178004
-0.00226027
0.178404
-0.00163216
0.178755
-0.00100984
0.179056
-0.000394705
0.17931
0.000213117
0.000814387
0.161117
-0.0120677
-0.159986
0.162211
-0.0114925
0.163259
-0.0108805
0.164255
-0.0102384
0.165198
-0.00957629
0.166088
-0.00890031
0.166924
-0.00821511
0.167707
-0.00752442
0.168439
-0.00683096
0.16912
-0.00613661
0.16975
-0.00544276
0.17033
-0.00475051
0.17086
-0.00406083
0.171341
-0.0033746
0.171774
-0.00269268
0.172158
-0.00201598
0.172493
-0.00134522
0.17278
-0.000681308
0.173021
-2.86024e-05
0.000621723
0.155695
-0.01318
-0.154583
0.156773
-0.0125709
0.157804
-0.0119109
0.15878
-0.011215
0.159702
-0.0104978
0.160568
-0.00976664
0.16138
-0.00902703
0.162139
-0.00828316
0.162846
-0.00753777
0.163502
-0.00679257
0.164108
-0.00604874
0.164664
-0.0053072
0.165172
-0.00456875
0.165632
-0.00383419
0.166043
-0.00310432
0.166407
-0.00238
0.166724
-0.00166205
0.166995
-0.000951751
0.167217
-0.000250658
0.000443227
0.150702
-0.0142795
-0.149603
0.151773
-0.0136413
0.152791
-0.0129293
0.153752
-0.0121754
0.154654
-0.0113997
0.155498
-0.0106106
0.156285
-0.00981482
0.157019
-0.00901687
0.157701
-0.00821927
0.158331
-0.00742336
0.158913
-0.00662998
0.159445
-0.00583974
0.15993
-0.00505323
0.160366
-0.00427109
0.160756
-0.00349406
0.161099
-0.00272295
0.161396
-0.00195867
0.161646
-0.00120229
0.161851
-0.000455012
0.000282664
0.146084
-0.015378
-0.144986
0.147156
-0.0147132
0.148168
-0.0139412
0.149115
-0.0131227
0.149999
-0.0122829
0.15082
-0.0114318
0.151582
-0.0105775
0.15229
-0.00972449
0.152945
-0.00887455
0.15355
-0.0080283
0.154106
-0.00718602
0.154614
-0.00634785
0.155075
-0.00551408
0.155489
-0.00468516
0.155857
-0.00386174
0.156179
-0.0030446
0.156455
-0.00223463
0.156685
-0.00143283
0.156871
-0.000640582
0.000140299
0.1418
-0.0165013
-0.140676
0.142885
-0.0157989
0.143894
-0.0149501
0.144829
-0.0140571
0.14569
-0.0131447
0.146485
-0.0122265
0.14722
-0.0113119
0.147899
-0.0104038
0.148527
-0.00950216
0.149105
-0.00860666
0.149636
-0.00771667
0.150119
-0.0068317
0.150557
-0.00595168
0.150949
-0.0050769
0.151295
-0.00420791
0.151596
-0.00334546
0.151852
-0.00249051
0.152063
-0.00164402
0.152229
-0.000807048
1.55311e-05
0.137819
-0.017706
-0.136614
0.138933
-0.0169133
0.139936
-0.0159531
0.140851
-0.0149719
0.141683
-0.0139773
0.142445
-0.0129882
0.143147
-0.0120137
0.143795
-0.0110522
0.144394
-0.0101011
0.144946
-0.00915839
0.145452
-0.00822248
0.145912
-0.00729219
0.146328
-0.00636712
0.146698
-0.00544743
0.147024
-0.00453368
0.147305
-0.00362667
0.147542
-0.00272739
0.147735
-0.00183703
0.147885
-0.000957002
-8.97028e-05
0.134144
-0.0190502
-0.1328
0.135276
-0.0180456
0.136255
-0.0169319
0.137133
-0.0158495
0.137925
-0.0147694
0.138647
-0.0137107
0.139314
-0.0126797
0.13993
-0.011669
0.140501
-0.010672
0.141028
-0.00968492
0.14151
-0.00870513
0.141949
-0.00773102
0.142344
-0.00676202
0.142695
-0.00579833
0.143002
-0.0048406
0.143265
-0.00388973
0.143485
-0.00294683
0.143661
-0.00201326
0.143794
-0.00109063
-0.000180991
0.130809
-0.129536
-0.0203229
0.131854
-0.0190905
0.132798
-0.0178765
0.133616
-0.0166676
0.134359
-0.0155122
0.135044
-0.0143958
0.135678
-0.0133134
0.136266
-0.0122572
0.136812
-0.0112179
0.137316
-0.0101888
0.137778
-0.00916669
0.138196
-0.00814978
0.138572
-0.00713765
0.138904
-0.00613067
0.139193
-0.00512968
0.139439
-0.00413577
0.139643
-0.00315015
0.139804
-0.00217413
0.139922
-0.00120948
-0.000261774
0.0264758
0.106209
-0.104921
-0.027764
0.0251714
0.109557
-0.108253
0.0238474
0.113064
-0.11174
0.0224998
0.116752
-0.115404
0.0211243
0.120649
-0.119273
0.0197175
0.124793
-0.123387
0.0182764
0.129238
-0.127796
0.0167985
0.134052
-0.132574
0.0152823
0.139326
-0.13781
0.0137269
0.145175
-0.143619
0.012133
0.151736
-0.150142
0.0105035
0.159168
-0.157538
0.00884528
0.167642
-0.165984
0.00717241
0.177318
-0.175645
0.00551035
0.188302
-0.18664
0.00390241
0.200573
-0.198965
0.00241796
0.213863
-0.212378
0.00116264
0.227472
-0.226216
0.000284944
0.239908
-0.23903
0.248498
-0.248213
0.0264103
0.107499
-0.0276997
0.0251049
0.110863
0.0237801
0.114389
0.022432
0.1181
0.0210564
0.122024
0.0196498
0.1262
0.018209
0.130678
0.0167317
0.135529
0.015216
0.140842
0.0136614
0.146729
0.0120684
0.153329
0.0104404
0.160796
0.00878474
0.169297
0.00711626
0.178986
0.0054615
0.189957
0.00386514
0.20217
0.00239789
0.21533
0.0011648
0.228705
0.000310732
0.240762
0.248809
0.0263051
0.108787
-0.0275934
0.0250008
0.112167
0.0236775
0.115712
0.0223311
0.119446
0.0209575
0.123398
0.0195532
0.127604
0.018115
0.132117
0.0166403
0.137004
0.0151275
0.142354
0.0135757
0.148281
0.0119859
0.154918
0.0103617
0.16242
0.00871083
0.170948
0.00704894
0.180648
0.00540342
0.191602
0.00381984
0.203753
0.00236941
0.21678
0.00115576
0.229918
0.000315954
0.241602
0.249125
0.0261613
0.110072
-0.0274462
0.0248604
0.113468
0.0235407
0.117032
0.0221981
0.120789
0.0208286
0.124767
0.0194286
0.129004
0.0179949
0.13355
0.0165249
0.138473
0.015017
0.143862
0.0134702
0.149828
0.0118858
0.156503
0.0102674
0.164039
0.00862354
0.172592
0.00697022
0.182301
0.00533564
0.193237
0.00376603
0.205323
0.00233269
0.218214
0.00113775
0.231113
0.000313128
0.242426
0.249438
0.0259805
0.111352
-0.0272601
0.0246851
0.114763
0.0233709
0.118346
0.022034
0.122126
0.0206704
0.126131
0.0192766
0.130398
0.0178493
0.134978
0.016386
0.139937
0.0148848
0.145364
0.0133451
0.151368
0.0117681
0.15808
0.0101577
0.165649
0.00852274
0.174227
0.00687997
0.183944
0.00525819
0.194859
0.0037042
0.206877
0.00228931
0.219629
0.00111418
0.232288
0.000306467
0.243234
0.249745
0.0257648
0.112624
-0.0270374
0.0244764
0.116052
0.0231695
0.119653
0.02184
0.123455
0.020484
0.127487
0.019098
0.131784
0.0176789
0.136397
0.0162239
0.141392
0.0147314
0.146856
0.0132006
0.152898
0.0116328
0.159648
0.0100324
0.16725
0.00840844
0.175851
0.00677825
0.185574
0.00517128
0.196466
0.00363485
0.208413
0.00224019
0.221023
0.00108641
0.233442
0.000297179
0.244023
0.250042
0.0255164
0.113889
-0.0267808
0.0242364
0.117332
0.022938
0.120951
0.0216173
0.124776
0.0202703
0.128834
0.0188937
0.133161
0.0174842
0.137806
0.0160392
0.142837
0.014557
0.148338
0.0130369
0.154418
0.0114803
0.161204
0.00989176
0.168838
0.00828082
0.177462
0.00666525
0.18719
0.00507514
0.198056
0.00355828
0.20993
0.00218572
0.222396
0.00105495
0.234573
0.000285946
0.244792
0.250328
0.0252376
0.115144
-0.026493
0.0239668
0.118603
0.022678
0.12224
0.0213671
0.126087
0.0200303
0.130171
0.0186642
0.134527
0.0172658
0.139205
0.0158323
0.14427
0.014362
0.149809
0.0128544
0.155926
0.0113108
0.162748
0.009736
0.170413
0.00814004
0.179058
0.00654115
0.188789
0.00496999
0.199627
0.00347474
0.211425
0.00212621
0.223744
0.0010203
0.235679
0.000273358
0.245539
0.250601
0.0249308
0.11639
-0.0261769
0.0236696
0.119864
0.0223908
0.123519
0.0210905
0.127387
0.0197648
0.131496
0.0184104
0.135881
0.0170242
0.140591
0.0156035
0.145691
0.0141467
0.151265
0.0126531
0.15742
0.0111243
0.164277
0.00956522
0.171972
0.00798625
0.180637
0.00640613
0.190369
0.00485602
0.201177
0.00338448
0.212897
0.00206202
0.225067
0.000982923
0.236758
0.00025982
0.246262
0.250861
0.024598
0.117627
-0.0258354
0.0233462
0.121116
0.0220776
0.124788
0.0207882
0.128677
0.0194742
0.13281
0.0181323
0.137223
0.0167595
0.141964
0.015353
0.147097
0.0139111
0.152707
0.0124332
0.158898
0.0109209
0.165789
0.00937951
0.173513
0.00781957
0.182197
0.00626031
0.191928
0.00473343
0.202704
0.00328777
0.214342
0.00199348
0.226361
0.00094317
0.237808
0.000245574
0.24696
0.251107
0.024241
0.118857
-0.0254708
0.0229978
0.122359
0.021739
0.126046
0.0204605
0.129955
0.0191587
0.134112
0.0178302
0.138552
0.0164717
0.143322
0.0150807
0.148488
0.0136552
0.154133
0.0121946
0.160358
0.0107008
0.167283
0.00917892
0.175035
0.00764007
0.183736
0.00610385
0.193464
0.00460241
0.204205
0.00318484
0.21576
0.00192086
0.227625
0.000901305
0.238828
0.000230778
0.24763
0.251337
0.0238605
0.120082
-0.025085
0.0226245
0.123595
0.0213747
0.127296
0.0201071
0.131223
0.0188179
0.135401
0.0175034
0.139866
0.0161605
0.144665
0.0147862
0.149863
0.0133787
0.15554