/*--------------------------------*- C++ -*----------------------------------*\
  =========                 |
  \\      /  F ield         | OpenFOAM: The Open Source CFD Toolbox
   \\    /   O peration     | Website:  https://openfoam.org
    \\  /    A nd           | Version:  6.0
     \\/     M anipulation  |
\*---------------------------------------------------------------------------*/
FoamFile
{
    version     2.0;
    format      ascii;
    class       volScalarField;
    location    "15.505";
    object      p;
}
// * * * * * * * * * * * * * * * * * * * * * * * * * * * * * * * * * * * * * //

dimensions      [0 2 -2 0 0 0 0];

internalField   nonuniform List<scalar> 
2400
(
-6.80566
-4.96124
-3.96169
-3.30694
-2.76592
-2.31768
-1.9495
-1.6441
-1.38805
-1.17562
-7.3555
-5.47168
-4.42528
-3.7246
-3.14141
-2.65602
-2.25601
-1.92359
-1.64442
-1.41292
-7.92271
-5.99549
-4.89881
-4.14932
-3.52165
-2.99746
-2.56452
-2.2044
-1.9018
-1.65134
-8.50137
-6.52753
-5.3772
-4.57611
-3.90186
-3.33743
-2.87071
-2.48251
-2.15646
-1.88753
-9.08538
-7.06213
-5.85511
-4.99981
-4.2771
-3.67126
-3.17015
-2.75364
-2.40433
-2.1176
-9.66874
-7.59353
-6.32706
-5.4153
-4.64261
-3.99452
-3.45867
-3.01384
-2.6414
-2.33707
-10.2458
-8.11613
-6.78766
-5.81753
-4.99376
-4.30311
-3.73279
-3.2601
-2.8648
-2.54286
-10.8122
-8.62485
-7.23174
-6.20151
-5.32585
-4.5926
-3.98836
-3.48864
-3.07173
-2.73606
-11.3634
-9.1151
-7.65476
-6.56301
-5.6347
-4.85822
-4.21905
-3.69112
-3.25413
-2.91484
-11.8911
-9.58169
-8.05346
-6.89989
-5.91894
-5.09856
-4.422
-3.86168
-3.40157
-3.0512
-15.0291
-14.9363
-14.784
-14.5776
-14.3198
-14.0134
-13.662
-13.2697
-12.841
-12.3802
-12.2191
-12.1639
-12.0549
-11.895
-11.6864
-11.4319
-11.1345
-10.7976
-10.4248
-10.0186
-10.1692
-10.1459
-10.0754
-9.95906
-9.79881
-9.59692
-9.35601
-9.07874
-8.76782
-8.42536
-8.60231
-8.59661
-8.55009
-8.46355
-8.33855
-8.17709
-7.98144
-7.75385
-7.49668
-7.21156
-7.32632
-7.32723
-7.29276
-7.2236
-7.12115
-6.98721
-6.82398
-6.63364
-6.41857
-6.18005
-6.30311
-6.30441
-6.27469
-6.21463
-6.12556
-6.00923
-5.86792
-5.70394
-5.52027
-5.31805
-5.48694
-5.48589
-5.45716
-5.40145
-5.32004
-5.21464
-5.08771
-4.94173
-4.78087
-4.60621
-4.82849
-4.82459
-4.7955
-4.74194
-4.66506
-4.56645
-4.44875
-4.31464
-4.17021
-4.01558
-4.28858
-4.28271
-4.25374
-4.20229
-4.12929
-4.03607
-3.92509
-3.79912
-3.66749
-3.52874
-3.84468
-3.83528
-3.80529
-3.75519
-3.68554
-3.59722
-3.49174
-3.37121
-3.24653
-3.12325
-12.7196
-13.1756
-13.5891
-13.96
-14.283
-14.5531
-14.7668
-14.922
-15.0176
-15.0533
-9.88573
-10.3192
-10.7174
-11.077
-11.3933
-11.6624
-11.8812
-12.0476
-12.1601
-12.2175
-7.90695
-8.30561
-8.67529
-9.0112
-9.30941
-9.56677
-9.78075
-9.94932
-10.071
-10.1445
-6.50319
-6.86258
-7.1973
-7.50245
-7.77454
-8.0111
-8.21008
-8.3698
-8.48898
-8.56667
-5.43146
-5.75333
-6.05342
-6.32689
-6.57071
-6.78297
-6.96211
-7.10686
-7.21623
-7.28954
-4.61254
-4.90236
-5.1717
-5.41592
-5.63294
-5.82145
-5.98025
-6.10841
-6.20525
-6.27027
-3.97784
-4.24297
-4.48725
-4.70603
-4.8993
-5.06653
-5.20677
-5.31937
-5.40383
-5.45979
-3.46915
-3.7141
-3.9395
-4.13776
-4.31121
-4.46055
-4.58521
-4.68475
-4.7587
-4.8067
-3.06341
-3.28192
-3.48948
-3.67199
-3.82925
-3.96319
-4.0747
-4.16353
-4.22908
-4.27085
-2.80565
-2.98864
-3.15955
-3.32241
-3.4614
-3.57599
-3.67034
-3.74524
-3.7997
-3.83296
-0.49623
-0.638493
-0.827509
-1.07111
-1.39638
-1.84761
-2.4833
-3.38728
-4.83868
-7.2278
-0.703989
-0.866788
-1.07578
-1.34322
-1.69741
-2.18351
-2.86129
-3.81514
-5.32148
-7.75798
-0.919278
-1.10346
-1.33314
-1.6254
-2.00972
-2.53203
-3.2533
-4.25833
-5.82023
-8.30361
-1.14134
-1.34734
-1.59809
-1.9159
-2.33124
-2.89076
-3.65654
-4.71368
-6.33198
-8.86316
-1.36957
-1.59733
-1.86911
-2.21288
-2.65981
-3.25721
-4.06815
-5.17784
-6.85268
-9.4317
-1.60356
-1.85231
-2.14454
-2.51427
-2.99302
-3.62858
-4.48492
-5.64706
-7.37774
-10.0037
-1.84261
-2.11067
-2.42215
-2.81747
-3.32797
-4.00163
-4.90316
-6.11713
-7.90234
-10.5736
-2.08575
-2.37007
-2.69885
-3.11924
-3.6613
-4.37269
-5.31876
-6.58341
-8.42131
-11.1359
-2.32901
-2.62517
-2.96955
-3.41548
-3.98912
-4.73762
-5.72718
-7.04087
-8.92923
-11.685
-2.56688
-2.86355
-3.22733
-3.7024
-4.30766
-5.09218
-6.12371
-7.48399
-9.41967
-12.2151
0.959213
0.943108
0.898245
0.822132
0.697119
0.491671
0.162114
-0.362838
-1.37442
-3.36591
0.882259
0.858255
0.799704
0.711752
0.574252
0.352884
0.00242846
-0.54944
-1.59253
-3.61116
0.786098
0.75381
0.683774
0.583642
0.432045
0.192892
-0.180551
-0.761742
-1.83875
-3.8859
0.671384
0.630882
0.549958
0.436756
0.269517
0.0108601
-0.38751
-1.0004
-2.11456
-4.19431
0.541555
0.491696
0.399051
0.271403
0.0867742
-0.19333
-0.618781
-1.26582
-2.42019
-4.53607
0.397994
0.337089
0.231523
0.088019
-0.115772
-0.419375
-0.874209
-1.55794
-2.75532
-4.9102
0.241531
0.167732
0.0479651
-0.112803
-0.337516
-0.666691
-1.15326
-1.87626
-3.11939
-5.31587
0.0729742
-0.0155323
-0.150795
-0.330242
-0.577627
-0.934432
-1.45506
-2.2199
-3.5115
-5.75206
-0.106807
-0.211726
-0.36375
-0.563269
-0.835032
-1.22147
-1.77841
-2.58756
-3.9303
-6.21746
-0.296884
-0.41979
-0.589779
-0.810723
-1.1085
-1.52649
-2.12187
-2.9775
-4.37367
-6.71032
1.05097
1.13279
1.18217
1.21393
1.23213
1.23901
1.23674
1.22718
1.2119
1.19213
1.01873
1.09863
1.15407
1.19139
1.21352
1.223
1.22223
1.21326
1.1978
1.17722
0.98511
1.06293
1.12056
1.1607
1.18518
1.19638
1.19664
1.18805
1.17237
1.15095
0.918245
0.999641
1.06183
1.10623
1.13436
1.14847
1.15082
1.14351
1.1283
1.10654
0.802815
0.891586
0.960991
1.01184
1.04562
1.06443
1.07049
1.06586
1.05233
1.03122
0.61058
0.7105
0.790154
0.8503
0.892398
0.918446
0.930578
0.930834
0.920994
0.90235
0.299268
0.415274
0.509612
0.583224
0.637598
0.674665
0.696494
0.705096
0.702239
0.689153
-0.201283
-0.0629856
0.0519571
0.144616
0.21658
0.269789
0.306307
0.328119
0.336958
0.334015
-1.18178
-1.01483
-0.873458
-0.756427
-0.661814
-0.587479
-0.531267
-0.491267
-0.465863
-0.453432
-3.13949
-2.94352
-2.77673
-2.63657
-2.5204
-2.42574
-2.35029
-2.29233
-2.25047
-2.22155
1.16868
1.14212
1.11244
1.07933
1.04217
1.00021
0.95268
0.899589
0.845634
0.788942
1.15241
1.124
1.09198
1.05602
1.01546
0.969393
0.91665
0.856706
0.792609
0.717208
1.12464
1.0941
1.05924
1.01964
0.974571
0.922971
0.86345
0.794914
0.717729
0.624998
1.07905
1.04653
1.00879
0.965406
0.915538
0.85803
0.791396
0.71424
0.625239
0.518199
1.00332
0.96941
0.929212
0.882252
0.827629
0.764078
0.690017
0.603776
0.503167
0.382931
0.875637
0.841713
0.800194
0.750557
0.691815
0.62258
0.541133
0.445538
0.33322
0.199855
0.666467
0.635164
0.59472
0.544528
0.483482
0.410059
0.322382
0.21829
0.0950851
-0.0508729
0.319895
0.295678
0.260655
0.214036
0.154566
0.0805618
-0.0100271
-0.119582
-0.250883
-0.40715
-0.452317
-0.462666
-0.485426
-0.521629
-0.57269
-0.640504
-0.727425
-0.83632
-0.970349
-1.13196
-2.19937
-2.19069
-2.19609
-2.21633
-2.25295
-2.30818
-2.38497
-2.48715
-2.61876
-2.78005
-2.96474
-1.3221
-0.591046
-0.22264
0.0415025
0.236969
0.382138
0.493953
0.57989
0.635302
-3.18549
-1.54274
-0.80245
-0.419731
-0.14031
0.0693355
0.226529
0.347142
0.437556
0.499709
-3.44355
-1.79561
-1.04246
-0.642568
-0.345252
-0.118866
0.0531191
0.186397
0.288288
0.36397
-3.73911
-2.08146
-1.31144
-0.891128
-0.573023
-0.327138
-0.137575
0.0114562
0.128251
0.219081
-4.07222
-2.40048
-1.60954
-1.16549
-0.823696
-0.555691
-0.346127
-0.179087
-0.0455045
0.0610915
-4.44273
-2.75251
-1.93664
-1.46554
-1.09723
-0.804668
-0.573024
-0.386254
-0.234618
-0.111747
-4.85009
-3.13692
-2.2921
-1.79069
-1.39313
-1.07372
-0.818128
-0.610169
-0.439443
-0.299748
-5.29344
-3.55255
-2.67467
-2.13972
-1.71023
-1.36176
-1.08047
-0.849987
-0.659219
-0.502116
-5.7711
-3.99752
-3.08237
-2.51064
-2.04657
-1.66692
-1.35826
-1.10397
-0.892261
-0.717183
-6.2783
-4.46863
-3.51251
-2.90081
-2.39956
-1.98663
-1.64897
-1.36968
-1.13618
-0.942628
-0.644116
-0.210548
-0.06964
0.00973484
0.0437524
0.0537296
0.0519517
0.0438054
0.0339106
0.0229379
0.0139914
0.00562953
-0.000134326
-0.00202755
-0.00551981
0.00285289
0.00583686
0.0279922
0.0392735
0.00485908
-0.843187
-0.320464
-0.139276
-0.0393404
0.00930227
0.0286428
0.0332415
0.0296661
0.0231547
0.0147669
0.00777452
0.000953355
-0.00365491
-0.00469845
-0.00753499
0.00133108
0.00498306
0.0272219
0.0382563
0.00444822
-1.0453
-0.436386
-0.210387
-0.0888644
-0.0252553
0.00376588
0.014844
0.0158518
0.0126957
0.00684815
0.00176142
-0.00356368
-0.00705915
-0.00728607
-0.00948808
-0.000160479
0.00413134
0.026394
0.0372199
0.00407381
-1.24885
-0.558162
-0.283273
-0.138943
-0.0600571
-0.0210133
-0.00330963
0.00231927
0.00250583
-0.000835761
-0.00405968
-0.00792843
-0.010351
-0.00979162
-0.0113794
-0.00162265
0.00328098
0.0255143
0.0361683
0.00373571
-1.45017
-0.683179
-0.356767
-0.189011
-0.094943
-0.0456847
-0.0212353
-0.0109501
-0.00743065
-0.00829635
-0.00969661
-0.012146
-0.0135332
-0.0122157
-0.013208
-0.00305478
0.00243289
0.0245872
0.0351014
0.00343336
-1.64261
-0.807937
-0.429814
-0.238609
-0.129715
-0.0701768
-0.0389023
-0.0239453
-0.0171119
-0.0155348
-0.0151512
-0.0162179
-0.016606
-0.0145578
-0.0149725
-0.00445551
0.00158852
0.0236193
0.0340216
0.00316625
-1.82765
-0.940324
-0.50881
-0.29091
-0.165703
-0.0950651
-0.0565717
-0.0367948
-0.0266074
-0.0225926
-0.0204491
-0.0201614
-0.0195806
-0.0168252
-0.0166796
-0.00582868
0.000746445
0.0226176
0.0329335
0.00293345
-2.03408
-1.10692
-0.609718
-0.353819
-0.206708
-0.122287
-0.0752563
-0.0500479
-0.0362281
-0.029656
-0.0257052
-0.0240512
-0.0225077
-0.0190521
-0.0183631
-0.00719786
-0.000107946
0.0215876
0.0318489
0.00273489
-2.26699
-1.29993
-0.726484
-0.424634
-0.25228
-0.152103
-0.0952616
-0.0639297
-0.0461268
-0.0368211
-0.0309811
-0.0279232
-0.0254105
-0.0212512
-0.0200269
-0.00856771
-0.000976858
0.020527
0.0307632
0.0025724
-2.34367
-1.38846
-0.785173
-0.466118
-0.284171
-0.175125
-0.111497
-0.0755355
-0.0545812
-0.0430009
-0.0355749
-0.0312952
-0.0279384
-0.0231675
-0.0213846
-0.00972762
-0.00171318
0.019438
0.0295789
0.00244404
-2.17438
-1.34727
-0.77034
-0.469157
-0.297325
-0.188799
-0.122818
-0.0844973
-0.0616662
-0.0484441
-0.0398177
-0.0344737
-0.0303378
-0.0250235
-0.022403
-0.0107219
-0.00233488
0.0178552
0.0276276
0.00230452
-1.96815
-1.30451
-0.78119
-0.493425
-0.328525
-0.218904
-0.147594
-0.103902
-0.0767305
-0.05987
-0.0484616
-0.0408525
-0.0350051
-0.0285277
-0.0246608
-0.0125858
-0.00340379
0.0160084
0.0253269
0.00212462
-1.71991
-1.22921
-0.782333
-0.511036
-0.354021
-0.2472
-0.172878
-0.124451
-0.0930425
-0.0724606
-0.0580734
-0.0479847
-0.0402159
-0.0324212
-0.0271705
-0.0146068
-0.00458318
0.0140127
0.0228014
0.00195328
-1.46589
-1.12646
-0.769877
-0.524344
-0.375172
-0.27259
-0.197311
-0.144989
-0.109567
-0.0853577
-0.0679863
-0.0553604
-0.0455965
-0.0364126
-0.0296686
-0.0166389
-0.00584404
0.0117534
0.0199692
0.00182865
-1.23785
-1.0089
-0.740702
-0.530568
-0.391512
-0.294009
-0.21984
-0.164998
-0.126025
-0.0983699
-0.078066
-0.0628905
-0.0510808
-0.040436
-0.0321271
-0.018661
-0.00720243
0.00926864
0.0168959
0.00175534
-1.0455
-0.891972
-0.698971
-0.528883
-0.403387
-0.311316
-0.23944
-0.183566
-0.141809
-0.111059
-0.0879891
-0.070353
-0.0565116
-0.0443688
-0.0344875
-0.0206165
-0.00863788
0.00665804
0.0136984
0.00171334
-0.894879
-0.789381
-0.652731
-0.520048
-0.410563
-0.324531
-0.255419
-0.199708
-0.156134
-0.122825
-0.0972822
-0.0773927
-0.0616312
-0.0480214
-0.0366414
-0.022413
-0.0100896
0.00405426
0.0105399
0.00167119
-0.785046
-0.708268
-0.609717
-0.506928
-0.413299
-0.333829
-0.267565
-0.212669
-0.168181
-0.132988
-0.105396
-0.0835804
-0.0661263
-0.0511782
-0.038469
-0.0239519
-0.0114589
0.00163453
0.00764707
0.00159983
-0.711911
-0.65137
-0.576083
-0.493805
-0.412979
-0.339577
-0.275903
-0.221957
-0.177173
-0.140795
-0.111704
-0.088417
-0.0696342
-0.0536074
-0.0398504
-0.0251373
-0.0125981
-0.000367076
0.00531803
0.00149218
-0.673336
-0.620385
-0.5566
-0.485201
-0.411879
-0.342412
-0.280446
-0.227149
-0.182331
-0.145374
-0.11544
-0.0912915
-0.0717115
-0.0550363
-0.0406429
-0.0258563
-0.0132936
-0.00163831
0.00392457
0.00139326
-3.25294
-3.22586
-3.18245
-3.1231
-3.04777
-2.95679
-2.84909
-2.72677
-2.58791
-2.48042
-2.60956
-2.58018
-2.54082
-2.49262
-2.43643
-2.37397
-2.30653
-2.2403
-2.17541
-2.13956
-2.10753
-2.08523
-2.05858
-2.02891
-1.99714
-1.96427
-1.93009
-1.89546
-1.85606
-1.8263
-1.71107
-1.69609
-1.67866
-1.65922
-1.63787
-1.61458
-1.58901
-1.56202
-1.53376
-1.51421
-1.40289
-1.39226
-1.37969
-1.36544
-1.34977
-1.33305
-1.31563
-1.29815
-1.28073
-1.26681
-1.1708
-1.16342
-1.15458
-1.14448
-1.13332
-1.1213
-1.10852
-1.09515
-1.0813
-1.06842
-1.00105
-0.995669
-0.988996
-0.98114
-0.972224
-0.962376
-0.951725
-0.940421
-0.928621
-0.916916
-0.881511
-0.877296
-0.8719
-0.865401
-0.857888
-0.849459
-0.840214
-0.830256
-0.819676
-0.808747
-0.803363
-0.799778
-0.795094
-0.789365
-0.782657
-0.77504
-0.766595
-0.757403
-0.747542
-0.737156
-0.762802
-0.759538
-0.755232
-0.74992
-0.743643
-0.736452
-0.728399
-0.719544
-0.709947
-0.699673
-2.6412
-2.80927
-2.86759
-2.96903
-3.06721
-3.13881
-3.19186
-3.23112
-3.25537
-3.26291
-2.34501
-2.47029
-2.4466
-2.47711
-2.54002
-2.58639
-2.61272
-2.62775
-2.63327
-2.62752
-1.99812
-2.09295
-2.04872
-2.0457
-2.08542
-2.11971
-2.13454
-2.13744
-2.13383
-2.12402
-1.66504
-1.73947
-1.70186
-1.68643
-1.70697
-1.7298
-1.73889
-1.73768
-1.73184
-1.72304
-1.38078
-1.43486
-1.41183
-1.39691
-1.40525
-1.41833
-1.4241
-1.42284
-1.41809
-1.41145
-1.15125
-1.18611
-1.17616
-1.16822
-1.17232
-1.17979
-1.1838
-1.18367
-1.18096
-1.17663
-0.976372
-0.997925
-0.996977
-0.996033
-0.999951
-1.00503
-1.00819
-1.00891
-1.00773
-1.00508
-0.853479
-0.867653
-0.871484
-0.874511
-0.878773
-0.882848
-0.885539
-0.886605
-0.886208
-0.884493
-0.775601
-0.785962
-0.791556
-0.795996
-0.800196
-0.803702
-0.806075
-0.807196
-0.807095
-0.805811
-0.736137
-0.744902
-0.75094
-0.755676
-0.759687
-0.762875
-0.765049
-0.766131
-0.766111
-0.764998
-0.0366824
-0.0436059
-0.0591535
-0.0888178
-0.135522
-0.217599
-0.342295
-0.580766
-0.947827
-1.82715
-0.0798015
-0.0880395
-0.105797
-0.138986
-0.190567
-0.27941
-0.410837
-0.65668
-1.0164
-1.75363
-0.127245
-0.136278
-0.155461
-0.190684
-0.244325
-0.334277
-0.462341
-0.687775
-1.00006
-1.52859
-0.178501
-0.188069
-0.208344
-0.24449
-0.298738
-0.384809
-0.50502
-0.69118
-0.949675
-1.30919
-0.232374
-0.242064
-0.26288
-0.298474
-0.351736
-0.42948
-0.538571
-0.68282
-0.889637
-1.13576
-0.286872
-0.296178
-0.316659
-0.350116
-0.400091
-0.467103
-0.561074
-0.671282
-0.827807
-0.998099
-0.339138
-0.347675
-0.366779
-0.396924
-0.441244
-0.497439
-0.573708
-0.658516
-0.770309
-0.886185
-0.385605
-0.393204
-0.410107
-0.436352
-0.473793
-0.520187
-0.579566
-0.644718
-0.722256
-0.799979
-0.422199
-0.428869
-0.443372
-0.465826
-0.4969
-0.535147
-0.581381
-0.631833
-0.687107
-0.741249
-0.444045
-0.450046
-0.462824
-0.482634
-0.509568
-0.542627
-0.581262
-0.623206
-0.667219
-0.709959
0.217836
0.21791
0.218529
0.217655
0.214387
0.203816
0.179678
0.130611
0.0193424
-0.183901
0.192365
0.191762
0.190713
0.187037
0.179585
0.162623
0.128589
0.0645044
-0.0748293
-0.322189
0.166942
0.165672
0.162979
0.156497
0.144871
0.121376
0.0774366
-0.00229766
-0.170202
-0.463589
0.141643
0.139724
0.135429
0.126149
0.110387
0.0802142
0.0264452
-0.0696818
-0.266252
-0.607944
0.116535
0.113996
0.108157
0.0961049
0.0762553
0.0392669
-0.0241849
-0.137596
-0.362381
-0.755568
0.0916861
0.0885648
0.08125
0.0664667
0.0425869
-0.00134219
-0.0742901
-0.206035
-0.457918
-0.907477
0.067157
0.0635094
0.0548028
0.0373475
0.00949127
-0.0414776
-0.123749
-0.274992
-0.552165
-1.06553
0.043008
0.0389264
0.0289421
0.0089024
-0.0228825
-0.0809664
-0.172495
-0.34442
-0.644511
-1.23309
0.0192677
0.0148361
0.00368574
-0.018847
-0.054545
-0.119798
-0.220743
-0.414525
-0.735042
-1.41204
-0.0041443
-0.00911715
-0.0215847
-0.046677
-0.0864392
-0.158708
-0.269304
-0.485205
-0.828077
-1.61993
0.459187
0.46485
0.47991
0.504167
0.53893
0.584777
0.645722
0.71999
0.821832
0.906635
0.437004
0.442091
0.455876
0.477729
0.508869
0.549305
0.602848
0.665882
0.753057
0.824463
0.414337
0.419068
0.43171
0.451291
0.478876
0.513865
0.559527
0.610655
0.680719
0.737987
0.391132
0.395462
0.406906
0.424251
0.448413
0.478264
0.516469
0.55681
0.609809
0.647311
0.367412
0.371253
0.381373
0.396374
0.417003
0.441642
0.472202
0.501674
0.535958
0.548272
0.343237
0.346526
0.355214
0.367752
0.384675
0.403871
0.426253
0.4441
0.457607
0.441119
0.318668
0.321364
0.328536
0.338516
0.351585
0.365136
0.378842
0.384372
0.37547
0.327133
0.293771
0.29584
0.30143
0.308777
0.317876
0.325616
0.330264
0.322932
0.29025
0.207052
0.268616
0.270035
0.273993
0.278644
0.283679
0.28546
0.28074
0.260029
0.202282
0.0814103
0.243279
0.244029
0.246324
0.24823
0.249134
0.24481
0.230471
0.195851
0.111852
-0.0491581
0.843194
0.847948
0.857671
0.872237
0.89077
0.911864
0.933936
0.955284
0.974406
0.989609
0.825504
0.831018
0.842347
0.859359
0.881158
0.906286
0.93307
0.959527
0.983963
1.00397
0.795514
0.802124
0.815776
0.836417
0.863218
0.894724
0.929204
0.964272
0.997918
1.02637
0.756868
0.764566
0.780581
0.805054
0.837355
0.876201
0.919973
0.965958
1.0118
1.05162
0.712687
0.72123
0.739173
0.766929
0.804197
0.85007
0.903345
0.961285
1.02138
1.07495
0.665766
0.674783
0.693943
0.723944
0.764879
0.81639
0.878024
0.947469
1.02267
1.09159
0.618474
0.627563
0.647148
0.678139
0.721021
0.776033
0.843725
0.922614
1.01207
1.09641
0.572638
0.581466
0.60079
0.631564
0.674597
0.730627
0.80129
0.886026
0.986819
1.0839
0.529503
0.537839
0.556444
0.586069
0.627743
0.682438
0.752746
0.838575
0.945606
1.04889
0.489694
0.497074
0.514393
0.541949
0.580938
0.632266
0.699269
0.781274
0.887797
0.987557
0.996417
0.998446
0.999714
1.00056
1.00104
1.00112
1.00075
0.999923
0.99865
0.996927
1.01406
1.01654
1.01749
1.01807
1.01842
1.01839
1.01787
1.01687
1.01539
1.01344
1.04259
1.04597
1.04642
1.04656
1.0467
1.04646
1.04568
1.04436
1.04253
1.0402
1.0767
1.0815
1.08143
1.0811
1.081
1.0805
1.07933
1.07753
1.07515
1.07222
1.11196
1.11894
1.11865
1.118
1.11774
1.11692
1.11522
1.11274
1.10957
1.10577
1.14443
1.15471
1.15495
1.15443
1.15417
1.15299
1.15059
1.14716
1.14287
1.13781
1.1701
1.18544
1.18764
1.18816
1.18829
1.1868
1.18349
1.17873
1.17277
1.16581
1.18429
1.2073
1.21395
1.21713
1.21844
1.21683
1.21246
1.20591
1.19764
1.18797
1.18118
1.21383
1.2282
1.23673
1.24097
1.24033
1.23536
1.2269
1.21565
1.20218
1.16425
1.21482
1.24154
1.25633
1.26264
1.26132
1.25374
1.24123
1.22482
1.20528
0.994753
0.992129
0.989059
0.985547
0.981598
0.977219
0.972418
0.967203
0.961586
0.955598
1.01103
1.00814
1.0048
1.00101
0.996787
0.992138
0.987085
0.981639
0.975817
0.969769
1.03736
1.03404
1.03023
1.02596
1.02123
1.01607
1.0105
1.00452
0.998126
0.99172
1.06874
1.06472
1.0602
1.05517
1.04967
1.04373
1.03735
1.03051
1.02308
1.01594
1.10136
1.09638
1.09085
1.08482
1.07829
1.07129
1.06382
1.0557
1.04661
1.03814
1.13207
1.1257
1.11878
1.11132
1.10332
1.09478
1.0856
1.07529
1.06314
1.0524
1.15799
1.14944
1.14023
1.13034
1.11973
1.10831
1.09586
1.08117
1.0631
1.0487
1.17717
1.16543
1.15279
1.13917
1.12434
1.10811
1.08991
1.0672
1.0378
1.01619
1.18692
1.17011
1.15176
1.1316
1.10914
1.08392
1.05512
1.01891
0.971785
0.939069
1.18304
1.15824
1.1306
1.09955
1.06425
1.02397
0.97815
0.92451
0.861335
0.820047
0.940174
0.906397
0.862201
0.807552
0.743174
0.669967
0.590344
0.506794
0.423985
0.344571
0.272824
0.210101
0.158096
0.117469
0.085671
0.0668264
0.0514194
0.0417024
0.0443545
0.0280417
0.955191
0.917368
0.86734
0.807144
0.737883
0.66045
0.577662
0.492401
0.409392
0.330814
0.260693
0.199897
0.149809
0.111104
0.0806474
0.0636804
0.0479436
0.0404051
0.0465561
0.0273458
0.978941
0.933719
0.87396
0.804988
0.727847
0.643672
0.556177
0.468718
0.385801
0.308879
0.241514
0.183864
0.136816
0.101093
0.0728395
0.0587205
0.0428479
0.0387455
0.0492374
0.0259825
1.00638
0.950375
0.878466
0.798888
0.71197
0.619942
0.527674
0.438604
0.356623
0.282298
0.218648
0.164924
0.121588
0.0893883
0.063878
0.0528317
0.0374538
0.0372908
0.0513853
0.0240594
1.03247
0.961792
0.87663
0.785355
0.687869
0.588468
0.492748
0.403589
0.323939
0.253379
0.19432
0.145062
0.105835
0.077392
0.0547825
0.0466087
0.0324081
0.0361843
0.0525939
0.0217887
1.05014
0.961184
0.863264
0.760289
0.653354
0.548998
0.452491
0.365538
0.28994
0.224291
0.170433
0.125872
0.0908322
0.0660641
0.0461823
0.0405288
0.0279271
0.0353496
0.0528796
0.0194294
1.04995
0.941391
0.833194
0.720874
0.608423
0.503346
0.409484
0.327118
0.256997
0.196939
0.148421
0.10842
0.0773304
0.0559116
0.0384138
0.0349143
0.0240664
0.0346577
0.0524765
0.0171945
1.02051
0.895642
0.782675
0.666847
0.555103
0.454189
0.366196
0.290269
0.226476
0.172209
0.128835
0.0930506
0.0655328
0.0470544
0.031581
0.0299089
0.0208019
0.0340157
0.0516651
0.0152111
0.951501
0.819801
0.712083
0.601053
0.496544
0.40396
0.324189
0.255823
0.198709
0.150135
0.111586
0.079641
0.0553118
0.0393961
0.0256483
0.0255383
0.0180593
0.0333794
0.050667
0.0135213
0.846533
0.718396
0.631831
0.532873
0.439869
0.357572
0.286618
0.225678
0.174776
0.1313
0.0969618
0.0683367
0.0467392
0.0329706
0.0206619
0.0218844
0.0158685
0.0327473
0.0495052
0.0120595
0.752865
0.636126
0.578712
0.491469
0.407312
0.331771
0.266004
0.209191
0.161616
0.120881
0.0887196
0.0619154
0.0418079
0.02917
0.0176652
0.0196746
0.0147512
0.0322079
0.0481571
0.0109321
0.687211
0.570895
0.527194
0.447322
0.370715
0.302494
0.242889
0.191132
0.147613
0.110139
0.080547
0.0557817
0.0372705
0.025845
0.0152099
0.0179141
0.013822
0.0319858
0.0473345
0.0101651
0.599362
0.496722
0.4675
0.399292
0.331882
0.271804
0.218726
0.172212
0.132886
0.0987999
0.0719017
0.049289
0.0324785
0.022346
0.012668
0.0161061
0.0128752
0.0318144
0.046558
0.00943584
0.494974
0.420524
0.40489
0.351349
0.294154
0.242485
0.195891
0.154425
0.119069
0.0881569
0.0637661
0.0431557
0.0279267
0.0189919
0.010204
0.0143423
0.0119558
0.0315747
0.0457492
0.00874227
0.373809
0.342063
0.339755
0.303059
0.256967
0.213875
0.173781
0.137285
0.105799
0.0779568
0.0559741
0.0372789
0.0235544
0.0157512
0.00780304
0.0126153
0.0110559
0.0312602
0.0449032
0.00808236
0.236091
0.260708
0.272803
0.254392
0.220225
0.185791
0.152178
0.120582
0.0928882
0.0680448
0.0484053
0.0315712
0.0193012
0.0125869
0.00544837
0.0109154
0.0101675
0.0308805
0.0440283
0.00745653
0.0829855
0.175805
0.204831
0.20551
0.18401
0.158283
0.131109
0.104333
0.0803485
0.0584257
0.0410604
0.0260316
0.0151656
0.0094983
0.00314212
0.00924285
0.00928836
0.0304362
0.0431271
0.00686557
-0.0837606
0.0866963
0.136419
0.156544
0.148329
0.131366
0.110583
0.0885497
0.0681921
0.0491117
0.0339498
0.0206689
0.0111543
0.0064911
0.000889635
0.00759987
0.0084174
0.0299248
0.0421994
0.00630993
-0.26207
-0.00717435
0.0678765
0.10758
0.113125
0.105008
0.090574
0.0732174
0.0564108
0.0400989
0.0270721
0.0154832
0.00726819
0.00356736
-0.00130617
0.00598713
0.00755279
0.0293466
0.0412474
0.00579015
-0.44967
-0.10619
-0.000746709
0.0586559
0.078307
0.0791535
0.0710452
0.0583121
0.0449897
0.0313779
0.0204218
0.0104714
0.00350604
0.000727708
-0.00344303
0.00440507
0.00669318
0.0287013
0.0402712
0.00530648
)
;

boundaryField
{
    inlet
    {
        type            freestreamPressure;
        freestreamValue uniform 0;
        supersonic      false;
        value           nonuniform List<scalar> 
40
(
-0.0366824
-0.0798015
-0.127245
-0.178501
-0.232374
-0.286872
-0.339138
-0.385605
-0.422199
-0.444045
0.217836
0.192365
0.166942
0.141643
0.116535
0.0916861
0.067157
0.043008
0.0192677
-0.0041443
0.459187
0.437004
0.414337
0.391132
0.367412
0.343237
0.318668
0.293771
0.268616
0.243279
0.843194
0.825504
0.795514
0.756868
0.712687
0.665766
0.618474
0.572638
0.529503
0.489694
)
;
    }
    outlet
    {
        type            freestreamPressure;
        freestreamValue uniform 0;
        supersonic      false;
        value           nonuniform List<scalar> 
40
(
4.98767e-07
3.02209e-07
1.49957e-07
5.21567e-08
6.03132e-09
3.23638e-09
2.49287e-08
4.05532e-08
2.87786e-08
4.50355e-09
4.1225e-06
3.45559e-06
2.87376e-06
2.37229e-06
1.94536e-06
1.58612e-06
1.2871e-06
1.04098e-06
8.4095e-07
6.79069e-07
1.49513e-05
1.36436e-05
1.23596e-05
1.11081e-05
9.89917e-06
8.74563e-06
7.6589e-06
6.64783e-06
5.71921e-06
4.87672e-06
9.03952e-07
6.75318e-06
1.43329e-05
2.0586e-05
2.40363e-05
2.47635e-05
2.36359e-05
2.15596e-05
1.91758e-05
1.68096e-05
)
;
    }
    top
    {
        type            symmetryPlane;
    }
    bottom
    {
        type            symmetryPlane;
    }
    cylinder
    {
        type            zeroGradient;
    }
    frontandback
    {
        type            empty;
    }
}


// ************************************************************************* //
