/*--------------------------------*- C++ -*----------------------------------*\
| =========                 |                                                 |
| \\      /  F ield         | OpenFOAM: The Open Source CFD Toolbox           |
|  \\    /   O peration     | Version:  v1912                                 |
|   \\  /    A nd           | Website:  www.openfoam.com                      |
|    \\/     M anipulation  |                                                 |
\*---------------------------------------------------------------------------*/
FoamFile
{
    version     2.0;
    format      ascii;
    class       volScalarField;
    location    "44";
    object      p;
}
// * * * * * * * * * * * * * * * * * * * * * * * * * * * * * * * * * * * * * //

dimensions      [0 2 -2 0 0 0 0];


internalField   nonuniform List<scalar> 
9600
(
-41.4767
-36.2114
-32.9842
-30.2465
-27.7409
-25.4739
-23.4172
-21.5431
-19.8339
-18.2759
-16.8567
-15.5641
-14.3869
-13.3143
-12.336
-11.4428
-10.6262
-9.87824
-9.19145
-8.56363
-42.2356
-36.9529
-33.6897
-30.9092
-28.3585
-26.0475
-23.9495
-22.0376
-20.2945
-18.7067
-17.261
-15.9454
-14.7479
-13.6573
-12.6632
-11.7558
-10.9265
-10.1668
-9.4689
-8.83182
-42.9963
-37.6903
-34.3898
-31.5664
-28.9703
-26.615
-24.4757
-22.5262
-20.7495
-19.132
-17.6603
-16.3218
-15.1043
-13.9961
-12.9864
-12.065
-11.223
-10.4517
-9.74277
-9.09663
-43.7553
-38.4234
-35.0841
-32.217
-29.5753
-27.1756
-24.995
-23.008
-21.198
-19.5511
-18.0537
-16.6928
-15.4556
-14.3301
-13.3049
-12.3698
-11.5154
-10.7325
-10.0127
-9.35771
-44.5099
-39.1505
-35.7715
-32.86
-30.1724
-27.7283
-25.5064
-23.4822
-21.6392
-19.9632
-18.4405
-17.0575
-15.801
-14.6585
-13.6183
-12.6697
-11.8031
-11.0089
-10.2782
-9.61481
-45.2578
-39.8702
-36.4509
-33.4944
-30.7605
-28.2719
-26.009
-23.9478
-22.0721
-20.3676
-18.8201
-17.4154
-16.14
-14.9809
-13.926
-12.9642
-12.0856
-11.2803
-10.5391
-9.86765
-45.9974
-40.581
-37.1209
-34.119
-31.3387
-28.8056
-26.5018
-24.404
-22.4961
-20.7635
-19.1915
-17.7657
-16.4719
-15.2966
-14.2273
-13.2528
-12.3626
-11.5464
-10.7949
-10.1159
-46.7271
-41.2816
-37.7803
-34.7326
-31.9058
-29.3283
-26.9839
-24.8499
-22.9102
-21.15
-19.5542
-18.1077
-16.7959
-15.6049
-14.5218
-13.5348
-12.6335
-11.8068
-11.0454
-10.3594
-47.4455
-41.9707
-38.4279
-35.3342
-32.4607
-29.8391
-27.4543
-25.2845
-23.3136
-21.5264
-19.9073
-18.4407
-17.1115
-15.9052
-14.8087
-13.8098
-12.8977
-12.0609
-11.2901
-10.5977
-48.1515
-42.647
-39.0626
-35.9226
-33.0026
-30.3369
-27.9122
-25.7071
-23.7055
-21.8918
-20.25
-18.7639
-17.4177
-16.1968
-15.0873
-14.077
-13.1546
-12.3083
-11.5284
-10.8303
-48.8438
-43.3095
-39.6833
-36.4969
-33.5303
-30.8209
-28.3567
-26.1168
-24.085
-22.2455
-20.5816
-19.0764
-17.7139
-16.4787
-15.3569
-14.3357
-13.4035
-12.5481
-11.7598
-11.0568
-49.5216
-43.9571
-40.289
-37.056
-34.043
-31.2901
-28.7868
-26.5127
-24.4514
-22.5866
-20.901
-19.3774
-17.9991
-16.7502
-15.6165
-14.5849
-13.6435
-12.7796
-11.9835
-11.2762
-50.1841
-44.589
-40.8788
-37.5992
-34.5398
-31.7438
-29.2018
-26.894
-24.8037
-22.9141
-21.2075
-19.666
-18.2723
-17.0102
-15.8651
-14.8236
-13.8737
-13.0019
-12.1986
-11.4879
-50.8307
-45.2044
-41.4518
-38.1255
-35.02
-32.1811
-29.601
-27.26
-25.1412
-23.2275
-21.5003
-19.9412
-18.5325
-17.2576
-16.1014
-15.0505
-14.0925
-13.2135
-12.4039
-11.6913
-51.461
-45.8025
-42.0073
-38.6343
-35.4827
-32.6014
-29.9837
-27.61
-25.4633
-23.5258
-21.7784
-20.2021
-18.7786
-17.491
-16.324
-15.2639
-14.298
-13.4123
-12.5972
-11.8842
-52.0743
-46.3824
-42.5445
-39.1248
-35.9275
-33.0042
-30.3493
-27.9435
-25.7694
-23.8085
-22.0412
-20.4479
-19.0098
-17.7096
-16.5317
-15.4622
-14.4885
-13.5961
-12.7759
-12.0615
-52.6721
-46.9441
-43.0628
-39.5965
-36.3535
-33.3887
-30.6972
-28.2599
-26.0589
-24.0751
-22.2882
-20.6779
-19.2251
-17.9122
-16.7233
-15.6447
-14.6636
-13.765
-12.9388
-12.2198
-53.2586
-47.4887
-43.5614
-40.0481
-36.76
-33.7543
-31.027
-28.559
-26.3316
-24.3252
-22.5187
-20.8913
-19.4234
-18.0971
-16.8967
-15.8086
-14.8204
-13.9161
-13.085
-12.3704
-53.8359
-48.0158
-44.0387
-40.4786
-37.1466
-34.1011
-31.339
-28.8411
-26.5881
-24.5594
-22.7334
-21.0884
-19.6043
-18.2629
-17.0483
-15.9473
-14.9471
-14.032
-13.1995
-12.5175
-54.3823
-48.5175
-44.4936
-40.8886
-37.5145
-34.4306
-31.6349
-29.1079
-26.83
-24.7796
-22.9343
-21.2715
-19.7705
-18.4122
-17.18
-16.0594
-15.0354
-14.0946
-13.2513
-12.5755
-59.8328
-59.8014
-59.7322
-59.6398
-59.5236
-59.3809
-59.2114
-59.0156
-58.7939
-58.5469
-58.2753
-57.9794
-57.6601
-57.318
-56.9538
-56.5685
-56.163
-55.7392
-55.2999
-54.8481
-53.4847
-53.4821
-53.4463
-53.3831
-53.293
-53.1756
-53.0311
-52.8602
-52.6637
-52.4421
-52.1961
-51.9263
-51.6332
-51.3176
-50.98
-50.6212
-50.2417
-49.8422
-49.423
-48.9821
-48.8415
-48.8632
-48.8557
-48.8194
-48.7556
-48.6652
-48.5489
-48.4072
-48.2407
-48.0502
-47.836
-47.5989
-47.3393
-47.0579
-46.755
-46.4312
-46.0867
-45.7216
-45.3356
-44.9268
-44.612
-44.6515
-44.6644
-44.6501
-44.6097
-44.5441
-44.454
-44.34
-44.2026
-44.0423
-43.8597
-43.6553
-43.4297
-43.1831
-42.9162
-42.6291
-42.3221
-41.9949
-41.6475
-41.2789
-40.7014
-40.7508
-40.7762
-40.7769
-40.7534
-40.7065
-40.6368
-40.5448
-40.431
-40.296
-40.1402
-39.9641
-39.7682
-39.5529
-39.3185
-39.0653
-38.7934
-38.5028
-38.1931
-37.864
-37.1894
-37.2429
-37.2747
-37.2841
-37.2712
-37.2367
-37.1811
-37.105
-37.0088
-36.8931
-36.7582
-36.6047
-36.433
-36.2436
-36.0367
-35.8125
-35.5713
-35.3128
-35.037
-34.7432
-34.0669
-34.1204
-34.154
-34.1671
-34.1598
-34.1325
-34.0859
-34.0203
-33.9364
-33.8345
-33.7151
-33.5788
-33.4259
-33.2569
-33.0721
-32.8719
-32.6562
-32.4251
-32.1783
-31.9152
-31.2972
-31.3478
-31.3801
-31.3935
-31.3881
-31.3643
-31.3227
-31.2637
-31.1878
-31.0954
-30.987
-30.8632
-30.7245
-30.5713
-30.4039
-30.2228
-30.0281
-29.8196
-29.5973
-29.3604
-28.8402
-28.8864
-28.9155
-28.9272
-28.9214
-28.8986
-28.8593
-28.804
-28.7331
-28.647
-28.5463
-28.4316
-28.3033
-28.1621
-28.0083
-27.8424
-27.6646
-27.475
-27.2731
-27.0586
-26.6564
-26.6974
-26.7225
-26.7313
-26.7238
-26.7005
-26.6619
-26.6084
-26.5404
-26.4584
-26.3631
-26.2548
-26.1343
-26.0022
-25.859
-25.7052
-25.5413
-25.3673
-25.1829
-24.9875
-24.7086
-24.7443
-24.765
-24.7704
-24.7607
-24.7362
-24.6973
-24.6444
-24.5781
-24.4988
-24.4071
-24.3035
-24.1888
-24.0637
-23.9288
-23.7848
-23.6323
-23.4715
-23.3022
-23.1237
-22.9638
-22.9944
-23.0109
-23.013
-23.0007
-22.9746
-22.935
-22.8822
-22.8168
-22.7392
-22.6501
-22.55
-22.4397
-22.3199
-22.1916
-22.0556
-21.9126
-21.7631
-21.6072
-21.444
-21.3938
-21.4198
-21.4323
-21.4312
-21.4166
-21.3888
-21.3482
-21.2953
-21.2303
-21.154
-21.0667
-20.9692
-20.8623
-20.7467
-20.6236
-20.4941
-20.3591
-20.2195
-20.0757
-19.9267
-19.9747
-19.9966
-20.0056
-20.0016
-19.9847
-19.9554
-19.914
-19.8607
-19.7961
-19.7206
-19.6348
-19.5393
-19.435
-19.3227
-19.2038
-19.0794
-18.9511
-18.82
-18.6874
-18.5521
-18.6869
-18.7051
-18.7109
-18.7043
-18.6855
-18.6549
-18.6126
-18.5591
-18.4947
-18.4199
-18.3353
-18.2414
-18.1391
-18.0294
-17.9136
-17.7932
-17.6703
-17.5465
-17.4244
-17.3025
-17.5137
-17.5285
-17.5315
-17.5227
-17.5023
-17.4704
-17.4275
-17.3738
-17.3096
-17.2355
-17.1518
-17.0592
-16.9585
-16.8507
-16.7371
-16.6195
-16.5006
-16.3825
-16.27
-16.1613
-16.4414
-16.4532
-16.4538
-16.443
-16.421
-16.3881
-16.3446
-16.2907
-16.2267
-16.1531
-16.0702
-15.9785
-15.8789
-15.7722
-15.6599
-15.5438
-15.4272
-15.3129
-15.2084
-15.1115
-15.458
-15.4674
-15.466
-15.4537
-15.4307
-15.3971
-15.3533
-15.2994
-15.2357
-15.1626
-15.0804
-14.9896
-14.8907
-14.7847
-14.6727
-14.5566
-14.4403
-14.3275
-14.23
-14.1423
-14.5524
-14.5605
-14.5581
-14.5453
-14.5222
-14.489
-14.4459
-14.393
-14.3308
-14.2593
-14.1789
-14.09
-13.993
-13.8885
-13.7776
-13.6618
-13.5448
-13.4316
-13.341
-13.2674
-13.7194
-13.7242
-13.7193
-13.7047
-13.6805
-13.6469
-13.6041
-13.5521
-13.4913
-13.4218
-13.3438
-13.2576
-13.1635
-13.0619
-12.9532
-12.8385
-12.7196
-12.6017
-12.5047
-12.4554
-53.5458
-54.1207
-54.6585
-55.1813
-55.6862
-56.1671
-56.6214
-57.0478
-57.4455
-57.8136
-58.1514
-58.4584
-58.7343
-58.9786
-59.1909
-59.3711
-59.5201
-59.6392
-59.7302
-59.7951
-47.0636
-47.6438
-48.1961
-48.726
-49.233
-49.7149
-50.1701
-50.5979
-50.9978
-51.3689
-51.7109
-52.0234
-52.3067
-52.5614
-52.7854
-52.9781
-53.1402
-53.2721
-53.3742
-53.4453
-42.4203
-42.9884
-43.5327
-44.0538
-44.5513
-45.0248
-45.4732
-45.8961
-46.2927
-46.6623
-47.0041
-47.3177
-47.603
-47.8585
-48.0857
-48.2846
-48.4551
-48.5967
-48.7093
-48.7912
-38.2974
-38.8402
-39.3633
-39.8649
-40.3442
-40.8011
-41.235
-41.6452
-42.031
-42.3919
-42.7265
-43.0344
-43.3165
-43.5724
-43.802
-44.0052
-44.1816
-44.3308
-44.4526
-44.5464
-34.6207
-35.1334
-35.6291
-36.1052
-36.5607
-36.9952
-37.4082
-37.7991
-38.167
-38.5115
-38.8331
-39.1315
-39.4052
-39.6543
-39.879
-40.0791
-40.2542
-40.4041
-40.5288
-40.6281
-31.423
-31.9043
-32.3703
-32.8183
-33.2472
-33.6565
-34.0457
-34.4143
-34.7619
-35.088
-35.3925
-35.6749
-35.9345
-36.1715
-36.3862
-36.5783
-36.7471
-36.8927
-37.015
-37.1141
-28.6519
-29.1024
-29.5388
-29.9585
-30.3603
-30.7438
-31.1085
-31.4539
-31.7795
-32.0852
-32.3705
-32.6351
-32.8788
-33.1013
-33.3023
-33.4837
-33.6437
-33.7818
-33.8983
-33.9935
-26.2407
-26.6624
-27.0706
-27.4633
-27.8392
-28.1977
-28.5384
-28.8609
-29.1647
-29.4497
-29.7155
-29.962
-30.1891
-30.3967
-30.5847
-30.7516
-30.901
-31.0301
-31.139
-31.2281
-24.1307
-24.5259
-24.9085
-25.2762
-25.628
-25.9631
-26.2812
-26.5819
-26.865
-27.1301
-27.3772
-27.6062
-27.8169
-28.0094
-28.1835
-28.3392
-28.4753
-28.5944
-28.695
-28.777
-22.2716
-22.6431
-23.0025
-23.3476
-23.6774
-23.9911
-24.2883
-24.5689
-24.8326
-25.0793
-25.3089
-25.5213
-25.7165
-25.8945
-26.0552
-26.1985
-26.3243
-26.4329
-26.5248
-26.5994
-20.6221
-20.9724
-21.311
-21.6359
-21.9458
-22.24
-22.5182
-22.7804
-23.0264
-23.2561
-23.4695
-23.6666
-23.8475
-24.0121
-24.1603
-24.2922
-24.4077
-24.5069
-24.5904
-24.6577
-19.1483
-19.4798
-19.8002
-20.1072
-20.3991
-20.6756
-20.9366
-21.1819
-21.4116
-21.6258
-21.8245
-22.0076
-22.1754
-22.3277
-22.4646
-22.5861
-22.6921
-22.7829
-22.8582
-22.9188
-17.8233
-18.1383
-18.4429
-18.7339
-19.0097
-19.2701
-19.5152
-19.7452
-19.9601
-20.16
-20.3452
-20.5157
-20.6716
-20.8128
-20.9394
-21.0514
-21.1488
-21.2316
-21.2995
-21.3541
-16.6255
-16.9261
-17.2172
-17.494
-17.7551
-18.0008
-18.2314
-18.4472
-18.6485
-18.8354
-19.0083
-19.1672
-19.3123
-19.4434
-19.5607
-19.6641
-19.7538
-19.8297
-19.8921
-19.94
-15.5379
-15.8263
-16.1058
-16.37
-16.6176
-16.8496
-17.0667
-17.2693
-17.4579
-17.6329
-17.7945
-17.9428
-18.078
-18.2
-18.3089
-18.4047
-18.4873
-18.5569
-18.6133
-18.6565
-14.5457
-14.8255
-15.0959
-15.3481
-15.5829
-15.8019
-16.0062
-16.1964
-16.3732
-16.537
-16.6882
-16.8269
-16.9531
-17.0668
-17.1681
-17.2569
-17.3332
-17.397
-17.4483
-17.4871
-13.6311
-13.9099
-14.1751
-14.416
-14.638
-14.8447
-15.0368
-15.2152
-15.3809
-15.5345
-15.6761
-15.806
-15.924
-16.0303
-16.1247
-16.2073
-16.2779
-16.3366
-16.3834
-16.4183
-12.7737
-13.0567
-13.3232
-13.5547
-13.7648
-13.9598
-14.1407
-14.3086
-14.4646
-14.6092
-14.7426
-14.8649
-14.9762
-15.0762
-15.1649
-15.2423
-15.3083
-15.3628
-15.406
-15.4378
-11.9869
-12.2604
-12.5276
-12.7543
-12.9543
-13.1379
-13.3084
-13.4668
-13.614
-13.7506
-13.8769
-13.9928
-14.0982
-14.1929
-14.277
-14.3502
-14.4125
-14.4639
-14.5043
-14.5338
-11.3966
-11.6473
-11.875
-12.0916
-12.2799
-12.4458
-12.5997
-12.7439
-12.8778
-13.002
-13.1167
-13.2219
-13.3173
-13.4029
-13.4785
-13.5441
-13.5995
-13.6447
-13.6795
-13.704
-5.99912
-6.49022
-7.02841
-7.61065
-8.24336
-8.93395
-9.69008
-10.5212
-11.4396
-12.4607
-13.6052
-14.8999
-16.3802
-18.0923
-20.0965
-22.4719
-25.3
-28.6028
-32.5997
-38.5952
-6.26954
-6.77415
-7.32284
-7.91712
-8.56359
-9.26934
-10.0422
-10.8918
-11.8306
-12.8747
-14.0447
-15.368
-16.8804
-18.6284
-20.6726
-23.0922
-25.9672
-29.3168
-33.3522
-39.3687
-6.54138
-7.05951
-7.61882
-8.22539
-8.88587
-9.60703
-10.3968
-11.2652
-12.2249
-13.2921
-14.488
-15.8402
-17.385
-19.1693
-21.2539
-23.7175
-26.6391
-30.0343
-34.1064
-40.1394
-6.81416
-7.34575
-7.91577
-8.53483
-9.20953
-9.94632
-10.7533
-11.6406
-12.6213
-13.7119
-14.9339
-16.3153
-17.8928
-19.7136
-21.8386
-24.3463
-27.3142
-30.7549
-34.8647
-40.9189
-7.08745
-7.63242
-8.21322
-8.84497
-9.53411
-10.2867
-11.111
-12.0175
-13.0194
-14.1336
-15.3818
-16.7926
-18.4029
-20.2602
-22.4258
-24.9775
-27.9916
-31.4778
-35.6261
-41.7047
-7.36086
-7.91909
-8.51073
-9.15539
-9.85914
-10.6277
-11.4695
-12.3953
-13.4186
-14.5565
-15.8312
-17.2714
-18.9146
-20.8087
-23.0147
-25.6105
-28.6707
-32.2022
-36.3886
-42.4926
-7.63409
-8.20541
-8.80794
-9.46569
-10.1842
-10.9689
-11.8283
-12.7735
-13.8183
-14.9801
-16.2813
-17.7511
-19.4273
-21.3581
-23.6048
-26.2444
-29.3506
-32.9269
-37.1508
-43.2803
-7.90688
-8.49109
-9.10453
-9.77554
-10.509
-11.3099
-12.187
-13.1517
-14.218
-15.4037
-16.7315
-18.231
-19.9402
-21.9078
-24.1949
-26.8783
-30.0301
-33.6508
-37.9113
-44.0663
-8.17909
-8.77592
-9.40025
-10.0846
-10.8331
-11.6503
-12.5452
-13.5294
-14.6173
-15.8268
-17.1812
-18.7103
-20.4526
-22.4569
-24.7843
-27.5112
-30.7082
-34.3727
-38.6691
-44.8491
-8.45066
-9.05981
-9.69494
-10.3928
-11.1564
-11.9898
-12.9024
-13.9061
-15.0155
-16.2489
-17.6298
-19.1884
-20.9636
-23.0044
-25.3721
-28.1421
-31.3838
-35.0915
-39.4227
-45.6273
-8.72171
-9.34277
-9.98856
-10.6999
-11.4785
-12.3281
-13.2584
-14.2815
-15.4123
-16.6694
-18.0766
-19.6647
-21.4726
-23.5497
-25.9572
-28.77
-32.0557
-35.806
-40.1709
-46.3995
-8.99254
-9.62498
-10.2811
-11.0059
-11.7994
-12.665
-13.6127
-14.655
-15.807
-17.0876
-18.521
-20.1382
-21.9786
-24.0917
-26.5387
-29.3937
-32.7229
-36.5148
-40.9123
-47.164
-9.26362
-9.90672
-10.5728
-11.3107
-12.1189
-13.0002
-13.965
-15.0262
-16.1991
-17.5029
-18.9622
-20.6083
-22.4808
-24.6296
-27.1155
-30.0122
-33.3842
-37.2169
-41.6456
-47.9197
-9.53568
-10.1884
-10.8637
-11.6143
-12.4367
-13.3334
-14.3149
-15.3946
-16.588
-17.9147
-19.3995
-21.074
-22.9784
-25.1624
-27.6867
-30.6244
-34.0383
-37.9109
-42.3695
-48.6652
-9.80947
-10.4704
-11.1539
-11.9165
-12.7525
-13.6639
-14.6617
-15.7594
-16.973
-18.3221
-19.832
-21.5346
-23.4703
-25.6889
-28.2511
-31.229
-34.684
-38.5955
-43.0828
-49.3993
-10.086
-10.7529
-11.443
-12.2167
-13.0657
-13.9912
-15.0048
-16.12
-17.3532
-18.7244
-20.2589
-21.9891
-23.9555
-26.2082
-28.8075
-31.8248
-35.3199
-39.2696
-43.7844
-50.1211
-10.3649
-11.0348
-11.7297
-12.5136
-13.3749
-14.3142
-15.343
-16.4754
-17.7278
-19.1205
-20.6791
-22.4363
-24.4329
-26.719
-29.3547
-32.4105
-35.9448
-39.9317
-44.4733
-50.8299
-10.6457
-11.3136
-12.0114
-12.8053
-13.679
-14.6317
-15.6754
-16.8245
-18.0957
-19.5094
-21.0916
-22.8753
-24.9014
-27.2202
-29.8914
-32.9847
-36.5569
-40.5801
-45.1481
-51.5258
-10.9209
-11.5809
-12.2819
-13.0884
-13.9757
-14.942
-16.0004
-17.1661
-18.4557
-19.89
-21.4953
-23.3049
-25.3598
-27.7104
-30.4161
-33.5458
-37.1547
-41.2132
-45.8079
-52.2101
-11.172
-11.8169
-12.5369
-13.364
-14.2656
-15.2449
-16.3177
-17.4995
-18.807
-20.2614
-21.8892
-23.7239
-25.8069
-28.1884
-30.9275
-34.092
-37.7359
-41.8276
-46.4478
-52.8846
-1.58196
-1.836
-2.184
-2.57309
-2.99184
-3.44565
-3.94081
-4.48326
-5.08051
-5.74281
-6.48413
-7.32347
-8.28698
-9.41071
-10.7455
-12.3657
-14.3609
-16.7922
-19.9679
-25.363
-1.735
-2.00545
-2.37189
-2.7669
-3.18907
-3.6482
-4.15025
-4.70077
-5.30741
-5.98069
-6.73482
-7.58916
-8.57029
-9.71476
-11.074
-12.7228
-14.7509
-17.2176
-20.4255
-25.8344
-1.88234
-2.17687
-2.55645
-2.95958
-3.38948
-3.85698
-4.36796
-4.92814
-5.54555
-6.23104
-6.99917
-7.86967
-8.86958
-10.036
-11.4209
-13.0994
-15.161
-17.6632
-20.9025
-26.32
-2.05195
-2.35729
-2.74507
-3.15691
-3.596
-4.07303
-4.59403
-5.165
-5.7943
-6.49309
-7.27627
-8.16399
-9.18373
-10.3731
-11.7847
-13.4939
-15.5901
-18.1289
-21.4031
-26.8382
-2.23287
-2.5453
-2.9409
-3.3617
-3.81026
-4.29726
-4.82893
-5.4115
-6.05356
-6.76658
-7.56577
-8.47167
-9.51226
-10.7257
-12.165
-13.906
-16.0379
-18.6149
-21.9265
-27.3857
-2.41926
-2.74029
-3.14423
-3.57414
-4.03247
-4.5299
-5.07283
-5.66768
-6.32328
-7.05135
-7.86743
-8.79245
-9.85487
-11.0934
-12.5615
-14.3355
-16.5044
-19.1208
-22.4711
-27.9573
-2.61265
-2.94318
-3.35536
-3.7944
-4.26278
-4.77107
-5.32578
-5.93353
-6.60335
-7.34721
-8.181
-9.12604
-10.2112
-11.4758
-12.9739
-14.7821
-16.989
-19.646
-23.0358
-28.5507
-2.81443
-3.15444
-3.57465
-4.02281
-4.50144
-5.02092
-5.58784
-6.209
-6.89363
-7.65397
-8.50623
-9.47211
-10.581
-11.8726
-13.4017
-15.2451
-17.4913
-20.1898
-23.6199
-29.1648
-3.02439
-3.37393
-3.80213
-4.25946
-4.7485
-5.27943
-5.85893
-6.49396
-7.19395
-7.9714
-8.84283
-9.83033
-10.9638
-12.2834
-13.8444
-15.7241
-18.0105
-20.7516
-24.2227
-29.7985
-3.24191
-3.6013
-4.0376
-4.5042
-5.00382
-5.54649
-6.13891
-6.78824
-7.50409
-8.29923
-9.19047
-10.2003
-11.3591
-12.7076
-14.3015
-16.2185
-18.5462
-21.3307
-24.8435
-30.4507
-3.46658
-3.83621
-4.28074
-4.75674
-5.26717
-5.82183
-6.42752
-7.09154
-7.82374
-8.63711
-9.5488
-10.5817
-11.7666
-13.1448
-14.7725
-16.7276
-19.0975
-21.9263
-25.4813
-31.1204
-3.69801
-4.07826
-4.53119
-5.01675
-5.5382
-6.10514
-6.72442
-7.40354
-8.15253
-8.98467
-9.91739
-10.974
-12.1858
-13.5945
-15.2568
-17.251
-19.6639
-22.5377
-26.1353
-31.8065
-3.93573
-4.32698
-4.78848
-5.2838
-5.81651
-6.39601
-7.02922
-7.72382
-8.49005
-9.34145
-10.2958
-11.3767
-12.616
-14.056
-15.7538
-17.7878
-20.2445
-23.1641
-26.8046
-32.508
-4.17921
-4.58184
-5.05213
-5.55742
-6.10165
-6.694
-7.34146
-8.05191
-8.83582
-9.70696
-10.6834
-11.7893
-13.0569
-14.5288
-16.2628
-18.3375
-20.8387
-23.8046
-27.4884
-33.2242
-4.42792
-4.84228
-5.3216
-5.83709
-6.39311
-6.9986
-7.66065
-8.38733
-9.18932
-10.0807
-11.0798
-12.2112
-13.5076
-15.0122
-16.7832
-18.8992
-21.4456
-24.4584
-28.1859
-33.954
-4.68129
-5.10775
-5.59631
-6.12226
-6.69035
-7.30929
-7.98625
-8.72951
-9.55
-10.462
-11.4843
-12.6418
-13.9676
-15.5055
-17.314
-19.4721
-22.0644
-25.1246
-28.896
-34.6967
-4.93879
-5.37766
-5.8757
-6.41237
-6.99281
-7.6255
-8.3177
-9.07789
-9.91725
-10.8504
-11.8963
-13.0804
-14.4361
-16.008
-17.8547
-20.0554
-22.6941
-25.8023
-29.6182
-35.4517
-5.19985
-5.65142
-6.15918
-6.70683
-7.29992
-7.94667
-8.65441
-9.43188
-10.2905
-11.2451
-12.3151
-13.5262
-14.9125
-16.5188
-18.4043
-20.6482
-23.3338
-26.4904
-30.3515
-36.2187
-5.46393
-5.92847
-6.44616
-7.00508
-7.6111
-8.27219
-8.99578
-9.79085
-10.6691
-11.6455
-12.74
-13.9786
-15.3959
-17.0371
-18.9618
-21.2493
-23.9824
-27.1877
-31.0948
-36.9983
-5.73053
-6.20826
-6.73611
-7.30656
-7.9258
-8.60151
-9.34125
-10.1542
-11.0524
-12.051
-13.1704
-14.4369
-15.8856
-17.5621
-19.5265
-21.858
-24.6385
-27.8925
-31.8453
-37.7912
-1.33434
-1.12784
-0.974251
-0.837703
-0.717807
-0.612023
-0.519235
-0.438653
-0.369773
-0.312237
-0.265779
-0.230189
-0.205295
-0.190959
-0.18704
-0.193333
-0.209631
-0.236061
-0.272755
-0.319566
-1.66424
-1.48101
-1.32344
-1.18167
-1.05695
-0.946705
-0.849957
-0.765907
-0.69404
-0.63398
-0.585446
-0.548214
-0.522103
-0.506958
-0.502635
-0.508965
-0.525795
-0.553129
-0.590997
-0.639255
-1.99686
-1.82151
-1.66397
-1.52105
-1.39421
-1.28179
-1.18309
-1.09742
-1.02432
-0.963431
-0.914467
-0.87721
-0.851475
-0.837104
-0.833948
-0.841856
-0.860708
-0.890459
-0.931023
-0.982461
-2.38071
-2.20371
-2.04313
-1.89726
-1.76685
-1.65092
-1.54901
-1.46057
-1.38517
-1.32248
-1.27223
-1.23419
-1.20817
-1.19402
-1.19156
-1.20066
-1.2212
-1.25309
-1.29625
-1.35065
-2.79959
-2.62013
-2.4556
-2.3058
-2.17117
-2.0512
-1.94555
-1.85381
-1.77563
-1.7107
-1.65876
-1.61958
-1.59299
-1.57879
-1.57684
-1.58699
-1.6091
-1.64308
-1.68881
-1.74627
-3.25105
-3.06838
-2.89968
-2.74555
-2.60648
-2.48225
-2.37267
-2.27744
-2.19628
-2.12893
-2.07514
-2.0347
-2.00743
-1.99313
-1.99167
-2.00288
-2.02662
-2.06279
-2.11123
-2.17189
-3.74128
-3.55389
-3.38028
-3.22124
-3.07727
-2.94839
-2.83453
-2.73548
-2.65104
-2.58098
-2.52509
-2.48317
-2.45504
-2.44052
-2.43944
-2.45167
-2.47705
-2.51544
-2.5667
-2.63079
-4.27706
-4.08347
-3.90388
-3.73905
-3.58949
-3.45535
-3.33664
-3.23327
-3.14508
-3.07189
-3.01351
-2.96977
-2.94048
-2.92549
-2.92462
-2.93772
-2.96465
-3.00525
-3.05936
-3.12695
-4.8661
-4.66486
-4.47805
-4.30636
-4.15029
-4.01008
-3.88581
-3.77744
-3.68488
-3.60798
-3.5466
-3.50056
-3.46972
-3.45389
-3.45293
-3.46668
-3.49498
-3.53766
-3.59457
-3.6657
-5.51854
-5.30809
-5.11264
-4.93281
-4.7691
-4.62179
-4.491
-4.37675
-4.27901
-4.19766
-4.13258
-4.08363
-4.05066
-4.0335
-4.03201
-4.04603
-4.0754
-4.11993
-4.17948
-4.25404
-6.24812
-6.02666
-5.82089
-5.63138
-5.45861
-5.30288
-5.16435
-5.04311
-4.93912
-4.85234
-4.78265
-4.72994
-4.69407
-4.67489
-4.67224
-4.68598
-4.71593
-4.76191
-4.82375
-4.90151
-7.07357
-6.83897
-6.62089
-6.4198
-6.23619
-6.07039
-5.92257
-5.79286
-5.68127
-5.58776
-5.51226
-5.45466
-5.41484
-5.39266
-5.38797
-5.40061
-5.43042
-5.4772
-5.54078
-5.62124
-8.02063
-7.77036
-7.53751
-7.32251
-7.12586
-6.94788
-6.7888
-6.64875
-6.52776
-6.42585
-6.34294
-6.27895
-6.23377
-6.20726
-6.19929
-6.2097
-6.23831
-6.28491
-6.34933
-6.43171
-9.12483
-8.85581
-8.60521
-8.37343
-8.16098
-7.9682
-7.79534
-7.64254
-7.50988
-7.39737
-7.30497
-7.23261
-7.18018
-7.14756
-7.13462
-7.14121
-7.16713
-7.21216
-7.2761
-7.35916
-10.4364
-10.145
-9.87298
-9.62089
-9.38925
-9.17841
-8.98863
-8.82007
-8.67283
-8.54693
-8.44236
-8.35904
-8.29689
-8.25579
-8.23561
-8.2362
-8.25738
-8.29885
-8.36044
-8.44238
-12.0291
-11.7107
-11.4131
-11.1365
-10.8816
-10.6487
-10.4382
-10.2502
-10.0849
-9.94211
-9.822
-9.72447
-9.64944
-9.5968
-9.56642
-9.55816
-9.57182
-9.6071
-9.66377
-9.7421
-13.9919
-13.642
-13.3139
-13.0083
-12.7258
-12.4667
-12.2313
-12.0198
-11.8324
-11.6689
-11.5295
-11.4141
-11.3227
-11.255
-11.2111
-11.1907
-11.1938
-11.2199
-11.2689
-11.3407
-16.3864
-16.001
-15.6384
-15.2998
-14.9858
-14.6968
-14.4331
-14.1947
-13.9818
-13.7944
-13.6324
-13.496
-13.3849
-13.2993
-13.2389
-13.2036
-13.1934
-13.2079
-13.247
-13.3097
-19.5235
-19.0983
-18.6968
-18.3217
-17.9733
-17.6516
-17.3565
-17.0882
-16.8465
-16.6315
-16.4432
-16.2816
-16.1466
-16.0382
-15.9563
-15.9007
-15.8714
-15.8688
-15.8924
-15.9404
-24.8606
-24.3904
-23.9545
-23.55
-23.1746
-22.8275
-22.5082
-22.2166
-21.9526
-21.7163
-21.5076
-21.3267
-21.1736
-21.0484
-20.9511
-20.882
-20.8415
-20.8322
-20.8552
-20.9004
-0.376362
-0.442827
-0.518923
-0.604567
-0.699677
-0.804145
-0.91784
-1.0406
-1.17221
-1.3124
-1.46079
-1.61686
-1.77982
-1.94843
-2.12105
-2.2954
-2.46701
-2.62607
-2.7572
-2.88678
-0.697931
-0.766671
-0.845403
-0.934017
-1.03241
-1.14045
-1.25798
-1.38483
-1.52075
-1.66543
-1.81847
-1.97932
-2.14718
-2.32092
-2.4989
-2.67949
-2.8609
-3.03542
-3.18783
-3.35986
-1.04462
-1.1172
-1.20015
-1.29333
-1.39662
-1.50987
-1.63292
-1.76555
-1.90751
-2.05846
-2.21797
-2.3855
-2.56028
-2.74129
-2.92718
-3.11675
-3.30904
-3.49966
-3.68289
-3.88866
-1.41623
-1.49267
-1.57988
-1.67773
-1.78606
-1.90473
-2.03353
-2.17224
-2.32057
-2.47819
-2.64465
-2.81939
-3.00171
-3.19071
-3.38531
-3.58464
-3.7879
-3.99277
-4.19975
-4.42921
-1.81538
-1.89582
-1.9875
-2.09026
-2.20393
-2.32835
-2.46329
-2.60852
-2.76374
-2.92859
-3.10263
-3.28533
-3.47604
-3.67398
-3.87833
-4.08848
-4.30382
-4.52331
-4.74958
-4.99579
-2.24483
-2.32957
-2.42605
-2.5341
-2.65355
-2.7842
-2.92583
-3.07819
-3.24096
-3.41379
-3.59625
-3.78784
-3.98797
-4.19599
-4.41129
-4.63345
-4.86207
-5.09693
-5.3408
-5.60151
-2.70776
-2.79702
-2.89862
-3.01234
-3.138
-3.27539
-3.42428
-3.5844
-3.75545
-3.93707
-4.12884
-4.33031
-4.54095
-4.76023
-4.98767
-5.22298
-5.46596
-5.7168
-5.97772
-6.25317
-3.20799
-3.30211
-3.40913
-3.52887
-3.66116
-3.80577
-3.96248
-4.13102
-4.31106
-4.50228
-4.70429
-4.91664
-5.1389
-5.3706
-5.61138
-5.861
-6.11938
-6.38685
-6.66498
-6.95622
-3.75102
-3.85006
-3.96271
-4.08875
-4.22804
-4.38033
-4.5454
-4.72296
-4.91273
-5.11436
-5.32749
-5.55173
-5.78668
-6.03195
-6.28723
-6.55232
-6.82719
-7.11211
-7.40808
-7.71649
-4.34363
-4.44762
-4.56609
-4.69864
-4.8452
-5.00555
-5.17945
-5.3666
-5.56673
-5.77952
-6.00463
-6.2417
-6.49036
-6.75028
-7.02117
-7.30287
-7.59531
-7.89866
-8.21348
-8.54055
-4.99519
-5.10408
-5.22817
-5.36742
-5.52144
-5.69009
-5.87315
-6.07033
-6.28137
-6.50596
-6.74378
-6.9945
-7.25779
-7.53334
-7.82088
-8.12024
-8.43132
-8.75414
-9.08895
-9.43623
-5.71864
-5.83211
-5.96173
-6.10733
-6.26881
-6.44581
-6.63817
-6.84565
-7.06794
-7.30477
-7.55586
-7.82088
-8.09954
-8.39153
-8.69661
-9.01457
-9.34526
-9.68857
-10.0445
-10.4135
-6.53211
-6.64954
-6.78416
-6.93572
-7.10412
-7.28945
-7.49105
-7.70867
-7.94224
-8.19148
-8.4561
-8.73581
-9.03031
-9.3393
-9.66254
-9.99981
-10.3509
-10.7156
-11.0937
-11.4855
-7.46145
-7.58175
-7.72041
-7.87716
-8.05177
-8.24424
-8.45535
-8.6823
-8.92678
-9.18813
-9.46612
-9.76046
-10.0709
-10.3971
-10.7388
-11.0957
-11.4677
-11.8543
-12.2553
-12.6709
-8.54484
-8.66633
-8.80741
-8.96788
-9.14755
-9.34596
-9.56261
-9.79983
-10.055
-10.3274
-10.618
-10.9264
-11.2524
-11.5956
-11.9556
-12.3321
-12.7249
-13.1336
-13.5576
-13.9974
-9.84221
-9.96235
-10.1034
-10.2653
-10.4479
-10.6508
-10.8735
-11.1161
-11.3788
-11.6622
-11.9645
-12.2863
-12.6271
-12.9861
-13.3631
-13.7581
-14.1708
-14.6008
-15.0474
-15.5109
-11.4351
-11.5507
-11.6889
-11.8495
-12.0323
-12.2369
-12.4631
-12.7107
-12.9797
-13.27
-13.5826
-13.9161
-14.2687
-14.6398
-15.0306
-15.4416
-15.8723
-16.322
-16.7896
-17.2749
-13.3943
-13.5023
-13.6345
-13.7906
-13.9692
-14.1708
-14.3955
-14.6433
-14.9138
-15.2065
-15.5208
-15.8569
-16.2164
-16.6001
-17.006
-17.4328
-17.8803
-18.3479
-18.8348
-19.34
-16.0107
-16.1026
-16.2186
-16.3601
-16.5283
-16.7226
-16.9421
-17.1865
-17.4553
-17.7482
-18.0647
-18.4043
-18.7674
-19.1544
-19.5653
-19.9995
-20.4567
-20.9376
-21.4422
-21.9654
-20.9422
-21.0147
-21.1179
-21.2498
-21.4091
-21.5952
-21.8075
-22.0456
-22.3093
-22.5981
-22.9119
-23.2506
-23.6144
-24.0036
-24.4182
-24.8582
-25.3248
-25.8218
-26.3517
-26.8968
-27.413
-22.4994
-19.8629
-17.7783
-15.9912
-14.4529
-13.1012
-11.891
-10.7953
-9.79589
-8.87981
-8.03729
-7.26072
-6.54386
-5.88152
-5.26915
-4.70149
-4.17296
-3.69203
-3.28765
-27.9569
-23.0495
-20.4015
-18.2966
-16.4858
-14.9219
-13.5441
-12.3084
-11.1884
-10.1664
-9.22957
-8.36837
-7.57534
-6.84437
-6.17044
-5.5491
-4.97562
-4.44761
-3.97818
-3.57573
-28.5294
-23.6184
-20.9573
-18.8311
-16.9951
-15.4043
-13.9995
-12.7375
-11.5924
-10.5471
-9.58891
-8.70854
-7.89853
-7.15283
-6.46635
-5.83459
-5.2529
-4.719
-4.24246
-3.82052
-29.1263
-24.2069
-21.5303
-19.3812
-17.5185
-15.8997
-14.4666
-13.1773
-12.0063
-10.9369
-9.95673
-9.05645
-8.22863
-7.46708
-6.76653
-6.12219
-5.52917
-4.98453
-4.495
-4.05433
-29.7444
-24.8142
-22.1198
-19.9466
-18.0556
-16.4072
-14.9449
-13.6271
-12.4294
-11.3351
-10.3322
-9.41125
-8.56482
-7.78652
-7.07084
-6.41267
-5.80684
-5.24982
-4.74651
-4.28971
-30.3823
-25.441
-22.724
-20.5261
-18.6055
-16.9263
-15.4334
-14.0863
-12.8609
-11.741
-10.7145
-9.77227
-8.90653
-8.11077
-7.37922
-6.70651
-6.08723
-5.5175
-5.00092
-4.53006
-31.0388
-26.0856
-23.3424
-21.1187
-19.1674
-17.456
-15.9315
-14.5541
-13.3001
-12.1538
-11.1032
-10.139
-9.25344
-8.43975
-7.69193
-7.00438
-6.37154
-5.78929
-5.26016
-4.77662
-31.7125
-26.7461
-23.975
-21.7237
-19.7404
-17.9956
-16.4383
-15.0296
-13.7463
-12.5729
-11.4976
-10.511
-9.60524
-8.77331
-8.00902
-7.30656
-6.66023
-6.06575
-5.52462
-5.02934
-32.4022
-27.4209
-24.6208
-22.3403
-20.3235
-18.5442
-16.9532
-15.5122
-14.1989
-12.9978
-11.8973
-10.8879
-9.9616
-9.11125
-8.33039
-7.61303
-6.95335
-6.34687
-5.79416
-5.2877
-33.1065
-28.1091
-25.279
-22.9675
-20.916
-19.1009
-17.4751
-16.0011
-14.657
-13.4277
-12.3016
-11.2691
-10.3221
-9.4532
-8.65576
-7.92354
-7.25062
-6.63229
-6.06825
-5.55099
-33.8243
-28.8094
-25.9482
-23.6043
-21.5167
-19.6649
-18.0033
-16.4955
-15.12
-13.862
-12.7099
-11.6541
-10.6862
-9.79874
-8.98469
-8.23766
-7.55156
-6.92148
-6.34625
-5.81842
-34.5545
-29.5207
-26.6276
-24.2497
-22.1248
-20.2351
-18.5368
-16.9945
-15.5871
-14.3
-13.1216
-12.0423
-11.0535
-10.1473
-9.31665
-8.55485
-7.85561
-7.21382
-6.62746
-6.0892
-35.2959
-30.2419
-27.3158
-24.9026
-22.7391
-20.8105
-19.0748
-17.4973
-16.0575
-14.7409
-13.536
-12.4331
-11.4232
-10.4983
-9.65106
-8.87449
-8.16215
-7.50862
-6.91116
-6.36255
-36.0475
-30.9718
-28.0117
-25.5618
-23.3586
-21.3902
-19.6162
-18.003
-16.5302
-15.1839
-13.9524
-12.8256
-11.7947
-10.8511
-9.98727
-9.19596
-8.4705
-7.80523
-7.19664
-6.63776
-36.8081
-31.7093
-28.714
-26.2262
-23.9822
-21.9731
-20.1602
-18.5106
-17.0046
-15.6283
-14.3699
-13.2194
-12.1673
-11.205
-10.3246
-9.51859
-8.78002
-8.10296
-7.48321
-6.91414
-37.5764
-32.4528
-29.4215
-26.8946
-24.6088
-22.558
-20.7055
-19.0192
-17.4797
-16.0731
-14.7879
-13.6135
-12.5403
-11.5594
-10.6625
-9.84173
-9.09005
-8.40117
-7.77024
-7.19103
-38.3522
-33.2015
-30.1328
-27.5656
-25.237
-23.1439
-21.2512
-19.5277
-17.9544
-16.5176
-15.2054
-14.0072
-12.913
-11.9135
-11.0001
-10.1647
-9.39994
-8.69923
-8.05709
-7.46785
-39.1367
-33.9546
-30.8464
-28.2377
-25.8654
-23.7293
-21.7961
-20.0351
-18.428
-16.9608
-15.6217
-14.3997
-13.2846
-12.2666
-11.3368
-10.4869
-9.70905
-8.99651
-8.34316
-7.74401
-39.9301
-34.7111
-31.5605
-28.9091
-26.4927
-24.3132
-22.3391
-20.5405
-18.8994
-17.4019
-16.036
-14.7904
-13.6544
-12.6181
-11.672
-10.8076
-10.0168
-9.29241
-8.6279
-8.01902
-40.7198
-35.466
-32.2733
-29.579
-27.1182
-24.8951
-22.8797
-21.0434
-19.3682
-17.8405
-16.4479
-15.1787
-14.022
-12.9674
-12.0052
-11.1264
-10.3226
-9.58648
-8.91083
-8.29242
-6.77204
-4.668
-3.30936
-2.26518
-1.53177
-0.993144
-0.606307
-0.331692
-0.141017
-0.0125682
0.0702504
0.120053
0.146402
0.156444
0.155482
0.147382
0.134951
0.120187
0.104496
0.0888447
0.073876
0.0600004
0.0474537
0.0363554
0.0267265
0.018547
0.0117227
0.00618974
0.00177751
-0.00154078
-0.00403176
-0.00558102
-0.00664709
-0.00680213
-0.00690799
-0.00592885
-0.00550389
-0.00351957
-0.00298999
8.86249e-05
-7.02748
-4.85022
-3.4555
-2.38026
-1.62275
-1.06673
-0.666337
-0.381284
-0.182371
-0.0473036
0.0409326
0.0952329
0.125359
0.138602
0.140368
0.1346
0.124167
0.111116
0.096891
0.0824931
0.068594
0.0556283
0.043853
0.0334062
0.0243248
0.0166032
0.0101594
0.00494125