/*--------------------------------*- C++ -*----------------------------------*\
  =========                 |
  \\      /  F ield         | OpenFOAM: The Open Source CFD Toolbox
   \\    /   O peration     | Website:  https://openfoam.org
    \\  /    A nd           | Version:  6.0
     \\/     M anipulation  |
\*---------------------------------------------------------------------------*/
FoamFile
{
    version     2.0;
    format      ascii;
    class       volVectorField;
    location    "3.75";
    object      U;
}
// * * * * * * * * * * * * * * * * * * * * * * * * * * * * * * * * * * * * * //

dimensions      [0 1 -1 0 0 0 0];

internalField   nonuniform List<vector> 
2400
(
(3.99966 -16.2656 -7.18004e-19)
(0.294195 -15.4074 2.43978e-19)
(0.389089 -14.1007 -1.61356e-19)
(0.555039 -12.6565 -7.8815e-20)
(0.520773 -11.3328 -9.83274e-20)
(0.480481 -10.1351 1.29388e-19)
(0.45384 -9.05904 3.89502e-20)
(0.433452 -8.10359 2.13043e-20)
(0.425474 -7.26505 -4.70668e-20)
(0.394688 -6.54139 -2.1286e-21)
(5.26971 -15.9185 8.40239e-19)
(1.50897 -15.3688 -1.15309e-20)
(1.49871 -14.0586 1.44927e-19)
(1.54919 -12.6015 7.79182e-19)
(1.41039 -11.2811 -4.68546e-19)
(1.2762 -10.0884 -2.54901e-20)
(1.16566 -9.01718 -3.81912e-21)
(1.07145 -8.06639 -3.77235e-20)
(0.998908 -7.2323 -4.35477e-20)
(0.910522 -6.51587 4.11868e-22)
(6.51083 -15.4739 1.42893e-18)
(2.71725 -15.2348 8.92486e-19)
(2.60244 -13.9283 -1.98394e-18)
(2.5363 -12.4673 5.07052e-19)
(2.29303 -11.1588 5.67332e-19)
(2.06525 -9.97902 -3.114e-19)
(1.87127 -8.91958 -1.91553e-19)
(1.70387 -7.97956 1.18353e-19)
(1.56718 -7.15545 -2.2526e-19)
(1.42091 -6.45213 1.96823e-19)
(7.71396 -14.9329 -4.89346e-18)
(3.91291 -15.0053 1.35479e-18)
(3.6931 -13.7107 -1.21046e-18)
(3.50983 -12.2553 4.34282e-19)
(3.16291 -10.9673 -3.77825e-19)
(2.84245 -9.80815 4.42389e-19)
(2.56598 -8.76741 9.70286e-20)
(2.3265 -7.84417 -5.24104e-19)
(2.12653 -7.03574 -3.47206e-19)
(1.92274 -6.35211 3.2962e-19)
(8.87249 -14.2988 3.25134e-19)
(5.08746 -14.6816 -5.37182e-19)
(4.76346 -13.4065 -2.07433e-19)
(4.46332 -11.9663 -2.30776e-19)
(4.01432 -10.7074 -9.28394e-19)
(3.60273 -9.57663 1.20768e-19)
(3.24499 -8.5613 -6.31515e-20)
(2.93439 -7.66047 4.93057e-19)
(2.67171 -6.87299 -3.24151e-19)
(2.41078 -6.21539 -1.4334e-19)
(9.97841 -13.5743 4.13854e-18)
(6.23354 -14.2645 -2.55921e-19)
(5.80609 -13.0173 3.03689e-18)
(5.39005 -11.602 -4.07537e-19)
(4.84151 -10.381 1.05748e-18)
(4.34149 -9.28671 -1.32266e-19)
(3.90479 -8.30389 1.63613e-20)
(3.52457 -7.43125 4.28947e-19)
(3.19953 -6.66972 -2.17996e-19)
(2.8817 -6.04351 2.17059e-19)
(11.0253 -12.7639 -1.68689e-18)
(7.34347 -13.7563 1.90374e-19)
(6.81363 -12.5445 -8.56017e-19)
(6.28283 -11.1634 -5.36682e-19)
(5.63751 -9.98896 8.80531e-20)
(5.05246 -8.93937 1.44601e-18)
(4.54067 -7.99682 -4.86455e-19)
(4.0944 -7.15913 9.31812e-20)
(3.70924 -6.42926 -5.22508e-19)
(3.3361 -5.84005 -1.65251e-19)
(12.0068 -11.8723 6.50297e-18)
(8.41094 -13.1594 -8.76445e-19)
(7.77968 -11.9905 -4.20227e-18)
(7.13511 -10.6524 1.98345e-19)
(6.39497 -9.53228 5.41914e-19)
(5.72707 -8.53461 -6.74734e-19)
(5.14337 -7.63949 -6.78351e-19)
(4.63598 -6.84408 9.32715e-19)
(4.19675 -6.15427 -8.87317e-20)
(3.77484 -5.61386 -5.22555e-19)
(12.9174 -10.9045 -5.35251e-18)
(9.42996 -12.477 2.22895e-18)
(8.69921 -11.3582 2.61917e-18)
(7.94261 -10.0715 5.16373e-19)
(7.10946 -9.01214 -1.56381e-18)
(6.35865 -8.07151 8.41143e-19)
(5.70097 -7.22817 3.69609e-19)
(5.13019 -6.48054 6.66793e-19)
(4.63773 -5.84183 -4.42467e-19)
(4.17474 -5.37113 -4.52906e-19)
(13.7497 -9.86461 1.71242e-18)
(10.3939 -11.7126 -5.64422e-19)
(9.5677 -10.6514 -2.13361e-19)
(8.70303 -9.4243 4.22221e-19)
(7.78143 -8.43115 2.77018e-19)
(6.9502 -7.55089 -2.25318e-19)
(6.21512 -6.76117 -2.96003e-19)
(5.5665 -6.06424 4.45168e-19)
(4.99467 -5.48379 -3.15061e-19)
(4.47009 -5.08492 2.61554e-19)
(16.8463 2.80515 8.62611e-20)
(16.9954 1.47097 2.86737e-19)
(17.038 0.130383 -8.60718e-19)
(16.9762 -1.20826 8.01118e-19)
(16.8106 -2.53695 3.38178e-19)
(16.543 -3.84777 4.19336e-18)
(16.1744 -5.13286 -1.7097e-18)
(15.7086 -6.38444 -2.4075e-18)
(15.1466 -7.59539 2.8327e-18)
(14.4946 -8.75787 -4.93018e-18)
(15.7565 -0.941705 1.87168e-19)
(15.6273 -2.17126 -1.10404e-19)
(15.3996 -3.38623 -5.71291e-19)
(15.0758 -4.57887 1.57568e-18)
(14.6588 -5.7417 -5.44832e-19)
(14.1513 -6.86808 4.30186e-18)
(13.557 -7.95049 -2.97816e-18)
(12.8797 -8.98311 4.19543e-18)
(12.1243 -9.9582 -3.06909e-18)
(11.2941 -10.8715 -1.55099e-18)
(14.3274 -0.797668 -3.27486e-19)
(14.2262 -1.91268 -9.71761e-21)
(14.0355 -3.01689 -1.38374e-18)
(13.7565 -4.10333 1.03983e-18)
(13.3913 -5.16514 -1.18444e-18)
(12.9422 -6.19568 -2.39829e-18)
(12.4126 -7.18837 -8.65797e-19)
(11.8061 -8.13674 -4.53202e-19)
(11.1271 -9.03458 2.62384e-18)
(10.3792 -9.87475 1.66897e-18)
(12.7943 -0.543772 1.15964e-19)
(12.7217 -1.53731 -1.98548e-19)
(12.5695 -2.52366 -2.71547e-19)
(12.3378 -3.49685 -1.17363e-18)
(12.0287 -4.45043 8.61862e-19)
(11.6436 -5.37852 2.21104e-18)
(11.1862 -6.27506 8.3908e-19)
(10.6589 -7.13406 1.98783e-19)
(10.0665 -7.9496 5.15153e-19)
(9.41282 -8.71487 1.59924e-19)
(11.4268 -0.491125 -1.03686e-19)
(11.3615 -1.37578 -4.10246e-19)
(11.2257 -2.25445 1.58171e-20)
(11.0184 -3.12234 8.42261e-19)
(10.7427 -3.97309 9.47838e-19)
(10.3982 -4.80245 -6.49972e-19)
(9.99015 -5.6041 -1.09266e-18)
(9.51926 -6.37384 -6.02227e-19)
(8.99177 -7.1054 5.99406e-19)
(8.41065 -7.7932 1.09767e-18)
(10.2236 -0.45007 3.14862e-20)
(10.1622 -1.23871 3.15902e-19)
(10.039 -2.02182 -7.40682e-19)
(9.85022 -2.79593 8.73797e-19)
(9.60217 -3.55434 5.42207e-19)
(9.29036 -4.2953 1.07179e-18)
(8.92437 -5.01116 -2.25573e-19)
(8.49953 -5.70136 -6.67146e-19)
(8.02817 -6.35719 1.53723e-18)
(7.50869 -6.97636 -1.41832e-18)
(9.15929 -0.40256 4.19283e-20)
(9.1011 -1.10584 -2.81424e-19)
(8.98978 -1.80381 -1.97707e-19)
(8.81667 -2.49428 -4.46306e-19)
(8.59435 -3.16988 -6.28926e-20)
(8.30938 -3.8321 -6.02315e-19)
(7.98216 -4.47066 -4.18791e-19)
(7.59429 -5.092 -4.80498e-20)
(7.17485 -5.68054 -8.63412e-19)
(6.70668 -6.24175 1.15441e-18)
(8.21429 -0.356869 -2.86864e-20)
(8.15859 -0.98466 2.24476e-19)
(8.05868 -1.60713 -1.04247e-19)
(7.89848 -2.22327 2.13003e-19)
(7.70078 -2.82459 5.03477e-19)
(7.43675 -3.41648 8.8245e-19)
(7.14701 -3.98448 -2.11654e-19)
(6.78459 -4.5471 -8.19174e-19)
(6.41679 -5.0764 2.69757e-19)
(5.98367 -5.59579 -1.62234e-18)
(7.37206 -0.309775 3.72754e-20)
(7.31934 -0.872234 -4.78817e-20)
(7.23094 -1.42942 -4.23346e-19)
(7.08196 -1.98163 1.27937e-19)
(6.90818 -2.51857 -3.31836e-19)
(6.65984 -3.05004 -1.5423e-19)
(6.40681 -3.55481 -7.2408e-20)
(6.05537 -4.06995 4.09056e-19)
(5.74084 -4.54755 3.3645e-19)
(5.30763 -5.06388 3.36223e-19)
(6.62245 -0.282689 -7.34381e-20)
(6.57207 -0.786324 1.27281e-19)
(6.49361 -1.28595 7.25865e-20)
(6.35421 -1.78398 1.73601e-19)
(6.20142 -2.26726 -1.54248e-20)
(5.9644 -2.75129 -1.4256e-20)
(5.74278 -3.20367 -4.07361e-19)
(5.38851 -3.68571 5.95071e-19)
(5.11923 -4.10955 -3.95313e-19)
(4.63977 -4.67593 1.43113e-19)
(9.95603 13.901 -2.8216e-18)
(11.0221 13.0868 2.91483e-18)
(12.0181 12.1885 -2.06977e-19)
(12.9391 11.2135 -4.66458e-18)
(13.7791 10.1678 3.39845e-18)
(14.5325 9.05775 -2.33808e-18)
(15.1938 7.89022 -5.11737e-19)
(15.7592 6.67342 -4.9261e-19)
(16.2246 5.41456 7.58771e-19)
(16.5886 4.12318 5.59954e-20)
(11.7246 10.2889 2.59341e-18)
(12.5223 9.36593 4.27306e-19)
(13.2429 8.38041 -2.51033e-18)
(13.8817 7.33895 -2.53706e-18)
(14.4344 6.24777 2.22287e-18)
(14.8968 5.11308 -1.6921e-18)
(15.2654 3.94255 1.84242e-18)
(15.5376 2.74345 -5.4341e-19)
(15.7111 1.52474 -1.50937e-18)
(15.7848 0.292918 -9.54633e-20)
(10.5578 9.28819 -5.79504e-19)
(11.2863 8.46727 -4.55658e-19)
(11.947 7.58951 1.37351e-18)
(12.5351 6.65971 1.15027e-18)
(13.0466 5.68303 2.44591e-18)
(13.4773 4.66525 7.36285e-19)
(13.8243 3.61303 -5.19723e-19)
(14.0846 2.5333 -1.15317e-18)
(14.2565 1.43336 9.28087e-19)
(14.3375 0.320487 7.06505e-20)
(9.30369 8.35961 4.12169e-19)
(9.96114 7.64196 -1.16651e-18)
(10.5596 6.87302 -4.5711e-19)
(11.0945 6.05641 -1.89994e-18)
(11.562 5.19657 -1.01156e-18)
(11.9586 4.29882 1.71174e-18)
(12.2818 3.36914 1.1412e-18)
(12.5285 2.41358 -9.60731e-19)
(12.6974 1.43855 3.84228e-20)
(12.786 0.450463 -4.05595e-20)
(8.33191 7.42999 -1.64991e-18)
(8.91618 6.79181 1.75926e-18)
(9.4475 6.1083 -4.37308e-19)
(9.92197 5.38195 8.63816e-19)
(10.3365 4.61674 -5.36491e-19)
(10.6879 3.81781 -9.95806e-19)
(10.9741 2.99056 3.95957e-19)
(11.1924 2.14032 -4.45697e-19)
(11.3418 1.27281 -4.42485e-19)
(11.4197 0.393591 1.81858e-19)
(7.48537 6.61031 -1.72565e-19)
(8.00635 6.04205 2.79893e-19)
(8.47854 5.43364 -3.44941e-19)
(8.89918 4.78624 -1.4896e-18)
(9.26629 4.10378 8.15641e-19)
(9.57698 3.39132 1.25293e-19)
(9.82984 2.65365 -6.75662e-19)
(10.0218 1.89553 -2.13232e-19)
(10.1527 1.12214 2.12373e-19)
(10.2194 0.338423 -6.87087e-20)
(6.72771 5.89031 -6.2725e-19)
(7.19596 5.3859 2.62228e-20)
(7.61799 4.84501 2.71469e-19)
(7.99183 4.26792 7.48387e-19)
(8.31746 3.65938 1.33899e-19)
(8.59261 3.024 3.58248e-19)
(8.81637 2.36586 7.10785e-19)
(8.98529 1.6894 -2.82806e-19)
(9.10037 0.999478 2.29468e-19)
(9.15717 0.300486 -9.27623e-20)
(6.05123 5.25907 -2.72475e-19)
(6.47354 4.81482 2.16621e-19)
(6.85337 4.33245 1.59049e-19)
(7.18636 3.81624 -3.28503e-19)
(7.47492 3.27278 -1.72748e-19)
(7.71808 2.70503 -3.47265e-19)
(7.91579 2.11644 2.97174e-20)
(8.06425 1.51149 -7.14728e-20)
(8.16547 0.894964 -4.66463e-19)
(8.21355 0.270664 6.06576e-20)
(5.4632 4.71518 -1.18483e-19)
(5.82576 4.33229 -3.05945e-19)
(6.16304 3.89648 -1.86182e-19)
(6.46005 3.43102 3.83646e-20)
(6.71593 2.94406 -1.82384e-20)
(6.93095 2.43487 2.99179e-19)
(7.10652 1.90648 1.13278e-19)
(7.23846 1.36364 1.57093e-19)
(7.32918 0.811138 1.95515e-19)
(7.37108 0.25194 -7.85116e-20)
(5.02139 4.19649 -2.13379e-19)
(5.28214 3.86162 3.40876e-19)
(5.55681 3.46003 -5.32147e-19)
(5.81967 3.04116 -3.60424e-20)
(6.04644 2.60922 4.22965e-19)
(6.23433 2.15788 1.75009e-20)
(6.38821 1.68901 1.84434e-19)
(6.50461 1.2068 -3.87229e-19)
(6.5855 0.715816 -3.18389e-21)
(6.62177 0.218015 3.39413e-20)
(0.446809 6.01892 1.04895e-20)
(0.45383 6.76092 -6.06875e-21)
(0.49691 7.59414 -6.34089e-21)
(0.534384 8.52394 6.14525e-20)
(0.571106 9.55871 -2.13488e-20)
(0.600925 10.7127 -1.34966e-19)
(0.641262 12.0187 1.86905e-19)
(0.886738 13.5221 7.43925e-20)
(1.03106 15.0762 1.38135e-19)
(-2.72483 16.6089 6.41261e-19)
(0.941823 5.98959 2.21306e-20)
(1.00452 6.72771 -1.06491e-19)
(1.10979 7.55561 1.20929e-19)
(1.21813 8.48102 3.14996e-20)
(1.33424 9.51192 -8.1692e-20)
(1.45279 10.6635 8.51664e-20)
(1.59371 11.9674 4.54015e-19)
(1.95448 13.4531 -6.30296e-19)
(2.21681 14.9927 3.81259e-20)
(-1.41633 16.7972 -7.57927e-19)
(1.43522 5.92792 1.20075e-19)
(1.55177 6.65677 -1.81552e-19)
(1.71836 7.47346 -1.02535e-19)
(1.89743 8.38819 -1.75428e-20)
(2.09292 9.40853 -1.55667e-19)
(2.30025 10.5504 -9.57536e-20)
(2.54168 11.8444 1.51878e-19)
(3.01619 13.3031 4.34763e-19)
(3.39497 14.8181 3.84918e-19)
(-0.0954333 16.8826 -1.2966e-18)
(1.92873 5.82453 1.22332e-19)
(2.0963 6.54127 -1.44554e-19)
(2.32202 7.34317 -2.22769e-19)
(2.57023 8.24271 7.44813e-20)
(2.84374 9.24713 8.26115e-19)
(3.13885 10.373 -3.85339e-19)
(3.47992 11.6492 3.66961e-19)
(4.06585 13.0722 -1.45076e-18)
(4.5587 14.5533 -1.7105e-18)
(1.2299 16.8658 2.48886e-18)
(2.41277 5.69231 7.59693e-20)
(2.62898 6.39111 -9.10943e-20)
(2.91298 7.1716 2.36671e-19)
(3.23006 8.04883 -2.66006e-19)
(3.58107 9.03006 2.26246e-19)
(3.96319 10.1323 2.25053e-19)
(4.40288 11.3827 2.46558e-19)
(5.0975 12.761 1.94883e-19)
(5.70119 14.1992 1.09003e-18)
(2.55187 16.7461 1.1264e-18)
(2.89838 5.51256 -2.39785e-19)
(3.15746 6.19432 -1.0605e-19)
(3.49445 6.95161 4.54448e-19)
(3.87632 7.80299 -5.63881e-19)
(4.30179 8.75618 -3.45554e-19)
(4.76865 9.82848 -9.51182e-19)
(5.30499 11.0453 -2.18456e-21)
(6.10491 12.37 -1.28875e-18)
(6.81591 13.7565 -2.09768e-19)
(3.86237 16.5235 -3.32858e-18)
(3.36025 5.31138 3.71551e-19)
(3.66203 5.96858 -8.25485e-19)
(4.05341 6.69474 4.67146e-19)
(4.50067 7.51183 2.76632e-19)
(4.99985 8.42908 -8.1243e-20)
(5.54985 9.4638 1.30499e-18)
(6.1807 10.6387 -8.28779e-19)
(7.08206 11.9014 -2.60453e-18)
(7.89544 13.2272 -4.77476e-19)
(5.15322 16.1977 2.99134e-18)
(3.83672 5.05815 -2.9619e-20)
(4.16526 5.69543 3.66756e-19)
(4.59817 6.39052 -1.97623e-19)
(5.10355 7.17109 2.70824e-19)
(5.6721 8.04813 3.09333e-19)
(6.30193 9.03908 -5.73617e-19)
(7.02411 10.1644 4.88913e-19)
(8.02225 11.3563 -1.29526e-18)
(8.93355 12.6129 3.49233e-18)
(6.41606 15.7713 -1.54386e-18)
(4.25289 4.79553 -2.07826e-19)
(4.62425 5.40232 -1.73109e-19)
(5.10947 6.05463 5.70717e-19)
(5.67631 6.78825 -1.03921e-18)
(6.31316 7.61713 1.15888e-18)
(7.01986 8.55705 -6.70722e-19)
(7.82992 9.62494 -1.26896e-18)
(8.91951 10.7374 4.52557e-19)
(9.92209 11.9171 -6.17083e-18)
(7.64311 15.2442 5.44128e-18)
(4.71228 4.49921 5.00397e-19)
(5.07667 5.06236 -5.17925e-19)
(5.59547 5.67455 6.35615e-19)
(6.21824 6.36054 -2.44191e-20)
(6.91885 7.13701 -8.77353e-19)
(7.69804 8.01962 -5.14519e-19)
(8.59139 9.02197 6.20281e-19)
(9.76666 10.0467 1.98513e-18)
(10.856 11.1409 2.90379e-18)
(8.82572 14.6218 -7.36132e-22)
(-3.90518 4.58127 -1.83028e-19)
(-4.42816 5.0085 1.7416e-19)
(-4.99059 5.5844 -1.25288e-19)
(-5.61587 6.25778 2.94314e-19)
(-6.31107 7.00641 3.71839e-19)
(-7.08563 7.82766 7.31893e-19)
(-7.9427 8.75433 1.35923e-18)
(-8.77072 9.95358 9.06666e-19)
(-9.69631 11.1345 1.52559e-18)
(-13.4445 9.6858 -1.12772e-18)
(-3.6179 4.84567 1.22951e-19)
(-4.08769 5.34266 2.24174e-19)
(-4.57623 5.97521 -2.96915e-19)
(-5.12865 6.69723 -1.91819e-19)
(-5.75233 7.49646 -5.34283e-19)
(-6.45469 8.3747 1.2257e-18)
(-7.23513 9.36601 -7.24087e-19)
(-7.96891 10.6294 -2.01835e-18)
(-8.80538 11.8834 -1.77942e-18)
(-12.6609 10.726 2.83883e-18)
(-3.23908 5.06871 4.64858e-22)
(-3.66948 5.63417 5.01126e-20)
(-4.10656 6.31796 -4.75253e-19)
(-4.59966 7.08626 3.72758e-19)
(-5.15591 7.93466 4.29345e-19)
(-5.78461 8.8676 -3.6942e-19)
(-6.48438 9.91976 -1.32168e-20)
(-7.11938 11.2413 3.24544e-18)
(-7.86036 12.5615 7.52266e-19)
(-11.798 11.7015 -2.19588e-18)
(-2.82509 5.27913 -2.20544e-19)
(-3.20883 5.89395 2.40438e-19)
(-3.59338 6.61828 -1.13542e-20)
(-4.02884 7.42745 3.07208e-19)
(-4.51944 8.32104 -9.28923e-19)
(-5.07449 9.30452 -9.20361e-20)
(-5.69167 10.4128 1.7474e-19)
(-6.22504 11.7858 -4.96341e-20)
(-6.8661 13.1654 -1.29071e-19)
(-10.8618 12.6079 2.6802e-18)
(-2.39532 5.47345 1.73099e-19)
(-2.72689 6.12515 3.25424e-20)
(-3.05392 6.8815 -2.2709e-19)
(-3.42736 7.72458 -1.75845e-20)
(-3.84923 8.65694 9.37168e-20)
(-4.32831 9.68487 -7.282e-19)
(-4.86028 10.8432 3.18411e-19)
(-5.28947 12.2605 -2.45896e-19)
(-5.827 13.6918 -1.42639e-20)
(-9.8571 13.4398 -3.32849e-18)
(-1.95003 5.6427 -1.3361e-21)
(-2.22735 6.32449 2.34664e-19)
(-2.49476 7.10698 -2.5301e-19)
(-2.80304 7.97787 3.79132e-20)
(-3.15265 8.94227 -8.29923e-20)
(-3.55224 10.0078 6.6476e-19)
(-3.99543 11.2091 1.81466e-19)
(-4.3175 12.6627 1.62268e-19)
(-4.74778 14.1377 8.17165e-19)
(-8.78919 14.192 6.57076e-19)
(-1.48929 5.78262 -1.19884e-19)
(-1.71119 6.48872 1.50979e-19)
(-1.91811 7.29223 8.04398e-21)
(-2.15965 8.18567 4.6803e-19)
(-2.4347 9.17601 -2.94283e-19)
(-2.75188 10.2724 2.74442e-19)
(-3.10288 11.5095 -3.30862e-19)
(-3.3149 12.9908 9.67152e-19)
(-3.63469 14.5003 9.75024e-19)
(-7.66374 14.8595 1.30349e-18)
(-1.01583 5.89087 -7.98099e-20)
(-1.18116 6.61492 1.04737e-19)
(-1.32666 7.43414 -6.27975e-20)
(-1.50015 8.34501 -6.36676e-20)
(-1.69908 9.35558 2.26337e-19)
(-1.93171 10.4764 -4.13051e-19)
(-2.18775 11.742 -3.94919e-19)
(-2.2874 13.2424 1.59319e-18)
(-2.49359 14.7775 -3.37505e-19)
(-6.48797 15.4385 -1.53467e-18)
(-0.53368 5.96775 -6.4997e-20)
(-0.641553 6.70341 2.56082e-20)
(-0.724574 7.53268 2.50948e-20)
(-0.828637 8.45543 2.02772e-21)
(-0.950008 9.48017 -1.47157e-19)
(-1.09636 10.6188 5.36653e-19)
(-1.25518 11.9056 -6.17761e-19)
(-1.24077 13.4162 -1.23942e-19)
(-1.33172 14.9673 5.12537e-21)
(-5.26787 15.9252 -1.14307e-18)
(-0.0451443 6.00994 2.306e-20)
(-0.0953148 6.75143 8.01978e-21)
(-0.115303 7.58545 -1.18165e-20)
(-0.148921 8.51468 -2.78254e-20)
(-0.19164 9.54766 -9.72605e-20)
(-0.250388 10.6975 7.49498e-20)
(-0.31029 11.9978 6.19169e-20)
(-0.180697 13.5096 1.32067e-19)
(-0.153953 15.0676 -2.12664e-19)
(-4.01192 16.317 2.37529e-19)
(-4.06539 4.20746 -1.57765e-19)
(-4.50324 3.68441 9.17363e-20)
(-4.76046 3.28424 -7.13169e-20)
(-5.08355 2.83567 -6.98064e-20)
(-5.30303 2.40361 -3.8611e-20)
(-5.52802 1.94709 2.06511e-21)
(-5.68942 1.48427 -3.57544e-20)
(-5.83361 1.00821 -2.97456e-20)
(-5.93138 0.525317 -1.96721e-20)
(-6.00175 0.0364378 1.08849e-20)
(-4.72169 4.61578 -2.33464e-19)
(-5.12811 4.13346 -1.03725e-19)
(-5.42806 3.68317 -2.45694e-19)
(-5.75877 3.19829 3.08023e-21)
(-6.00865 2.7165 9.41419e-20)
(-6.25028 2.21161 1.41008e-19)
(-6.43211 1.69655 -4.68492e-20)
(-6.58835 1.16695 1.63229e-19)
(-6.69538 0.628459 2.43514e-20)
(-6.76823 0.082954 -1.72905e-20)
(-5.38418 5.14441 6.62334e-19)
(-5.79558 4.65626 -7.6165e-20)
(-6.14664 4.1574 3.21375e-19)
(-6.49383 3.62625 7.72419e-20)
(-6.77868 3.08583 -4.11449e-19)
(-7.03945 2.52258 -2.26234e-19)
(-7.24425 1.94624 -1.06924e-19)
(-7.41376 1.35458 5.57285e-20)
(-7.53184 0.752948 -1.2408e-19)
(-7.6085 0.143784 1.52114e-20)
(-6.08133 5.76967 1.46539e-19)
(-6.52753 5.24181 4.9002e-19)
(-6.92903 4.6877 1.01427e-20)
(-7.30384 4.10142 2.3167e-19)
(-7.62544 3.49627 3.15313e-19)
(-7.90971 2.86727 3.52195e-20)
(-8.13951 2.22205 2.67591e-19)
(-8.3248 1.56043 1.16767e-19)
(-8.45591 0.887713 1.58027e-19)
(-8.53821 0.206744 -2.73572e-20)
(-6.83976 6.46695 8.83204e-19)
(-7.33436 5.88583 -1.02754e-18)
(-7.78598 5.2701 -1.03162e-19)
(-8.19753 4.6209 1.41913e-19)
(-8.5575 3.94582 -1.63038e-19)
(-8.87026 3.24499 -3.39661e-19)
(-9.12712 2.52445 -5.50153e-19)
(-9.33135 1.786 4.89256e-19)
(-9.47749 1.03482 -4.82751e-20)
(-9.56758 0.274355 -2.60003e-20)
(-7.67837 7.22936 -1.86172e-18)
(-8.22879 6.58554 1.04579e-18)
(-8.73217 5.90117 4.08026e-19)
(-9.18677 5.18051 5.32251e-20)
(-9.58679 4.42872 4.58709e-19)
(-9.93178 3.64876 -6.77172e-19)
(-10.2169 2.84571 -6.02967e-19)
(-10.442 2.02296 -5.36315e-21)
(-10.6038 1.18556 1.10113e-19)
(-10.7023 0.337672 7.41071e-20)
(-8.605 8.08795 -6.48086e-19)
(-9.21795 7.37201 -3.64765e-19)
(-9.77738 6.61076 -1.4571e-19)
(-10.2807 5.80967 5.12744e-19)
(-10.7239 4.97319 -1.60992e-18)
(-11.105 4.10575 -6.62844e-19)
(-11.4205 3.21206 8.60524e-19)
(-11.6689 2.29656 1.96276e-19)
(-11.8477 1.36423 1.49072e-19)
(-11.956 0.419902 -8.88834e-20)
(-9.52058 9.21747 -2.0277e-18)
(-10.2136 8.42667 -2.00658e-18)
(-10.8458 7.58561 3.20651e-18)
(-11.4151 6.7001 6.52018e-19)
(-11.9178 5.77457 2.64758e-18)
(-12.3516 4.8141 5.18784e-20)
(-12.7132 3.82343 -7.94747e-19)
(-13.0008 2.80752 1.0633e-18)
(-13.2118 1.77139 1.58263e-20)
(-13.3447 0.720377 2.60779e-19)
(-10.5261 10.3195 1.04055e-19)
(-11.291 9.44326 3.18054e-18)
(-11.9868 8.51413 -3.25453e-18)
(-12.6124 7.53599 2.35418e-18)
(-13.1642 6.51483 -3.3501e-18)
(-13.6398 5.45538 4.24316e-19)
(-14.0362 4.36322 -1.25197e-18)
(-14.3514 3.24346 4.44008e-19)
(-14.583 2.10154 8.89272e-20)
(-14.7284 0.943414 -1.50681e-19)
(-14.1406 8.58601 1.02818e-18)
(-14.7452 7.43815 -2.8819e-18)
(-15.2619 6.24838 1.32183e-18)
(-15.6858 5.02463 -1.16006e-18)
(-16.0171 3.77308 5.22942e-19)
(-16.2531 2.50101 2.55666e-18)
(-16.3935 1.21517 3.15612e-19)
(-16.4377 -0.0774205 7.2063e-19)
(-16.3854 -1.37005 -3.62948e-19)
(-16.235 -2.65559 -8.43802e-20)
(-6.03165 -0.454214 3.996e-21)
(-6.02847 -0.944696 -2.93348e-20)
(-5.9869 -1.43182 1.86506e-19)
(-5.91061 -1.91251 -1.18684e-19)
(-5.79792 -2.38258 8.44984e-21)
(-5.64872 -2.83751 -1.24054e-19)
(-5.45671 -3.27455 5.39933e-19)
(-5.21836 -3.69706 7.38272e-20)
(-4.94967 -4.10104 -1.86749e-19)
(-4.67936 -4.45163 3.58309e-19)
(-6.79587 -0.465526 3.85445e-20)
(-6.78471 -1.01395 -1.05344e-19)
(-6.72972 -1.55869 -8.14314e-20)
(-6.63416 -2.09612 -6.90091e-20)
(-6.496 -2.62185 -2.05742e-19)
(-6.31618 -3.13109 -3.46262e-20)
(-6.0921 -3.62024 -1.5161e-20)
(-5.82017 -4.08858 2.5368e-19)
(-5.49921 -4.53196 4.12264e-19)
(-5.14447 -4.94178 1.29965e-20)
(-7.63561 -0.468782 -3.41892e-20)
(-7.61787 -1.08099 2.85609e-19)
(-7.55124 -1.68877 4.52731e-20)
(-7.43839 -2.28797 -1.3717e-20)
(-7.27758 -2.87413 2.3854e-19)
(-7.06995 -3.44262 1.25224e-19)
(-6.8146 -3.98954 2.54771e-19)
(-6.51064 -4.5119 -1.09338e-19)
(-6.1563 -5.00737 -4.22086e-19)
(-5.75611 -5.47797 -1.01545e-18)
(-8.56634 -0.478069 6.06978e-20)
(-8.54309 -1.16255 -1.43407e-19)
(-8.46547 -1.84221 1.96463e-19)
(-8.33552 -2.51255 -5.15713e-19)
(-8.15193 -3.16893 -2.66642e-19)
(-7.91583 -3.80669 -9.20158e-20)
(-7.62708 -4.42156 -6.06127e-19)
(-7.28658 -5.00963 -2.24381e-19)
(-6.89491 -5.56881 -2.43727e-20)
(-6.45436 -6.10001 3.63028e-19)
(-9.59822 -0.490697 5.23127e-20)
(-9.57057 -1.25576 2.11193e-20)
(-9.48251 -2.01588 1.52648e-19)
(-9.33549 -2.7662 5.1864e-19)
(-9.1286 -3.50171 -9.73882e-20)
(-8.86292 -4.21749 -7.97497e-19)
(-8.53869 -4.90887 1.25341e-18)
(-8.15753 -5.57156 -3.65834e-19)
(-7.72136 -6.20275 -3.69088e-19)
(-7.23288 -6.80056 -1.5079e-19)
(-10.7354 -0.515746 -1.34157e-19)
(-10.7029 -1.3696 1.52723e-19)
(-10.6033 -2.21842 3.48757e-19)
(-10.4375 -3.05686 -3.02863e-19)
(-10.2052 -3.87953 8.35526e-19)
(-9.90733 -4.681 -9.40839e-20)
(-9.5444 -5.45619 8.23157e-20)
(-9.11849 -6.2005 4.0001e-19)
(-8.63188 -6.91006 2.10178e-19)
(-8.08781 -7.58126 1.69183e-19)
(-11.9918 -0.531149 3.15061e-20)
(-11.9544 -1.48297 -2.98054e-20)
(-11.8424 -2.42967 7.89728e-19)
(-11.6567 -3.36528 -9.37796e-19)
(-11.397 -4.28396 -1.43782e-18)
(-11.0645 -5.17978 8.67961e-19)
(-10.6599 -6.04713 -3.78187e-19)
(-10.1857 -6.88095 4.22454e-19)
(-9.64406 -7.67653 1.10064e-18)
(-9.03856 -8.42931 -9.84605e-19)
(-13.3972 -0.339473 -5.73312e-20)
(-13.3678 -1.40107 -7.67993e-19)
(-13.2557 -2.45817 9.71159e-19)
(-13.0614 -3.50435 4.4993e-19)
(-12.7848 -4.53318 -1.55656e-18)
(-12.4271 -5.53829 -1.21142e-18)
(-11.9895 -6.5134 -2.06652e-19)
(-11.4742 -7.45294 -7.76046e-20)
(-10.8836 -8.35163 4.59662e-19)
(-10.2211 -9.20393 -2.84455e-19)
(-14.7848 -0.22332 7.69515e-20)
(-14.7506 -1.39229 1.26652e-18)
(-14.6263 -2.55509 4.78576e-19)
(-14.412 -3.70629 -1.58463e-18)
(-14.1081 -4.83833 1.48944e-18)
(-13.7156 -5.9447 -2.00399e-18)
(-13.2362 -7.01864 2.28349e-18)
(-12.6723 -8.05417 -2.48465e-18)
(-12.0265 -9.04535 -1.30804e-18)
(-11.3016 -9.9853 -3.71375e-18)
(-15.9844 -3.92569 -3.59416e-20)
(-15.636 -5.17084 -5.28072e-19)
(-15.1936 -6.38673 4.20288e-19)
(-14.6582 -7.56467 4.31707e-19)
(-14.0329 -8.69859 -9.31016e-19)
(-13.3204 -9.78093 8.62186e-19)
(-12.5252 -10.8057 -1.19071e-18)
(-11.6518 -11.7669 9.05694e-19)
(-10.705 -12.659 -2.14825e-18)
(-9.68857 -13.4745 2.36097e-18)
(-8.60695 -14.2041 3.37435e-18)
(-10.502 -10.865 -1.61726e-18)
(-9.49001 -10.0034 -1.10882e-18)
(-8.37221 -9.1341 1.39557e-18)
(-7.48914 -8.20937 -4.93427e-21)
(-6.69508 -7.36062 8.53586e-19)
(-5.96968 -6.60016 1.34403e-20)
(-5.31973 -5.92595 -4.48486e-19)
(-4.76495 -5.33617 5.97509e-19)
(-4.37113 -4.81421 -1.16095e-19)
(-7.47119 -14.8424 -3.59567e-18)
(-9.6318 -11.6788 6.17135e-18)
(-8.69564 -10.7432 -4.59716e-19)
(-7.64948 -9.78557 -1.12561e-18)
(-6.83991 -8.78972 6.68741e-19)
(-6.11277 -7.87718 -1.16525e-18)
(-5.44827 -7.05863 1.04954e-18)
(-4.85503 -6.3313 -5.7772e-19)
(-4.3458 -5.69196 1.80608e-19)
(-3.96641 -5.11137 2.89121e-19)
(-6.28768 -15.392 2.24212e-18)
(-8.70002 -12.4214 -3.55038e-18)
(-7.84268 -11.4186 1.30129e-18)
(-6.87433 -10.3787 -4.39671e-19)
(-6.14365 -9.31799 5.91277e-19)
(-5.48861 -8.34749 -3.32899e-19)
(-4.88978 -7.47628 -2.72101e-19)
(-4.35677 -6.70096 2.13715e-19)
(-3.89925 -6.01999 -3.98126e-19)
(-3.55967 -5.4116 4.19576e-19)
(-5.06427 -15.847 -4.46182e-18)
(-7.71047 -13.09 4.91407e-19)
(-6.93714 -12.026 1.08758e-18)
(-6.05254 -10.9102 8.93148e-19)
(-5.40563 -9.79091 -1.40043e-18)
(-4.82719 -8.76803 8.13959e-20)
(-4.29736 -7.84923 -3.14294e-19)
(-3.82462 -7.03115 -5.19433e-19)
(-3.4129 -6.31238 9.36961e-19)
(-3.09996 -5.67603 1.61043e-19)
(-3.8077 -16.2067 3.24854e-18)
(-6.67005 -13.6804 4.88172e-19)
(-5.98419 -12.5613 1.37912e-18)
(-5.18877 -11.3762 1.69787e-21)
(-4.63 -10.2052 1.04348e-18)
(-4.13223 -9.13624 3.93282e-19)
(-3.67541 -8.17554 6.4312e-19)
(-3.26823 -7.31998 -5.33069e-19)
(-2.91183 -6.56889 -1.00541e-20)
(-2.64115 -5.90808 -2.46637e-19)
(-2.52569 -16.4677 2.12836e-18)
(-5.58419 -14.1891 -1.62041e-18)
(-4.98985 -13.0215 -2.026e-19)
(-4.28875 -11.7739 -2.78729e-19)
(-3.8219 -10.5582 -2.53049e-19)
(-3.40797 -9.44983 -2.54184e-19)
(-3.02645 -8.45352 3.21306e-19)
(-2.68554 -7.56651 -2.98164e-19)
(-2.38364 -6.78784 2.55769e-19)
(-2.15392 -6.10648 1.14421e-20)
(-1.22572 -16.6295 -3.77469e-18)
(-4.45963 -14.6129 -1.02813e-18)
(-3.95993 -13.4032 1.62917e-18)
(-3.35785 -12.1005 -4.21382e-19)
(-2.98634 -10.8474 4.48266e-19)
(-2.65945 -9.70641 -9.95411e-19)
(-2.35652 -8.68063 6.43511e-19)
(-2.0857 -7.76767 -1.73327e-19)
(-1.84334 -6.96611 2.07571e-19)
(-1.6613 -6.26627 -2.12007e-19)
(0.0845136 -16.6911 1.7242e-18)
(-3.30253 -14.9491 -4.33324e-19)
(-2.90066 -13.704 -4.95763e-19)
(-2.40202 -12.3536 -1.764e-19)
(-2.1287 -11.0709 1.11531e-19)
(-1.89109 -9.90453 1.84453e-19)
(-1.66834 -8.85612 -2.52416e-19)
(-1.46838 -7.92353 1.3937e-19)
(-1.2861 -7.1047 2.75641e-19)
(-1.15317 -6.39173 -2.07954e-19)
(1.39757 -16.6522 1.28301e-18)
(-2.11954 -15.1954 -3.89742e-20)
(-1.81824 -13.9218 7.39821e-19)
(-1.42717 -12.5315 -5.38481e-19)
(-1.25462 -11.2269 1.27951e-19)
(-1.10843 -10.0425 -1.21283e-19)
(-0.967935 -8.978 -4.16923e-20)
(-0.840831 -8.03163 -1.78934e-19)
(-0.721029 -7.20064 1.67559e-19)
(-0.640689 -6.47861 1.009e-19)
(2.70563 -16.511 -2.62695e-19)
(-0.917729 -15.3491 -1.54701e-19)
(-0.719271 -14.0547 -8.65344e-20)
(-0.439405 -12.633 -2.26522e-19)
(-0.369559 -11.3146 1.71749e-19)
(-0.316108 -10.1197 3.10825e-20)
(-0.258753 -9.04607 -8.50777e-20)
(-0.205016 -8.09222 7.73884e-21)
(-0.148504 -7.25487 -2.39772e-20)
(-0.122622 -6.52961 2.22721e-21)
(-0.129069 -4.61162 -1.69947e-21)
(-0.111899 -2.60973 -2.79443e-22)
(0.100523 -1.63924 8.82476e-22)
(0.117062 -1.05697 -4.50274e-22)
(0.167515 -0.695088 -8.63163e-23)
(0.228673 -0.401755 -1.8535e-22)
(0.33782 -0.147515 5.71762e-23)
(0.483832 0.0462982 -5.71324e-23)
(0.630676 0.159409 2.20458e-23)
(0.753374 0.199868 -1.0286e-24)
(0.843895 0.193028 -1.49301e-23)
(0.905288 0.163951 1.03055e-24)
(0.944489 0.129383 -1.51639e-24)
(0.968453 0.0975738 -1.64205e-24)
(0.982599 0.0713011 2.40678e-25)
(0.99069 0.0506702 -1.69392e-25)
(0.995161 0.035101 4.56624e-26)
(0.99757 0.023138 2.86619e-26)
(0.998759 0.0153431 -1.75943e-26)
(0.999492 0.00692199 2.15474e-26)
(0.231569 -4.63429 1.40575e-20)
(0.0481547 -2.63452 1.97634e-21)
(0.180059 -1.66319 -1.49312e-21)
(0.179352 -1.07586 4.91239e-22)
(0.21076 -0.711086 -8.07527e-22)
(0.258414 -0.421905 -6.0099e-23)
(0.350814 -0.173153 -6.64518e-23)
(0.482828 0.0196371 -8.08457e-23)
(0.622503 0.136896 6.47842e-23)
(0.743518 0.183542 1.79639e-23)
(0.83514 0.182379 5.51983e-24)
(0.898469 0.1575 1.87818e-23)
(0.9395 0.125674 -1.3987e-23)
(0.964902 0.0955224 -1.91304e-24)
(0.980102 0.0702016 1.15569e-24)
(0.988951 0.0500978 3.61529e-25)
(0.993962 0.0348105 -8.21679e-25)
(0.996759 0.0229954 7.36433e-25)
(0.998193 0.0152708 7.5847e-26)
(0.999139 0.00689488 -1.41947e-26)
(0.597128 -4.63521 -1.80689e-20)
(0.220407 -2.66286 7.95619e-21)
(0.26269 -1.69088 7.01643e-21)
(0.244046 -1.09867 -2.45759e-21)
(0.255779 -0.728998 -9.06637e-23)
(0.290262 -0.442612 -7.32542e-22)
(0.367123 -0.198426 -2.8328e-23)
(0.485138 -0.00660196 -2.01452e-22)
(0.616747 0.114523 -6.05174e-23)
(0.735149 0.167192 -3.44582e-23)
(0.827227 0.171679 -9.00832e-25)
(0.892114 0.151017 4.08786e-24)
(0.934765 0.121952 1.42076e-23)
(0.961491 0.0934655 -6.54824e-24)
(0.977682 0.0690967 -2.45341e-24)
(0.987254 0.0495173 2.39726e-24)
(0.992784 0.0345101 -6.14455e-25)
(0.995959 0.0228429 -1.59047e-25)
(0.997632 0.0151888 -6.55833e-25)
(0.998788 0.00686279 1.62734e-25)
(0.966725 -4.61797 -6.19485e-21)
(0.406067 -2.69234 1.25473e-20)
(0.34994 -1.72052 -4.67217e-21)
(0.311036 -1.12453 -1.29496e-21)
(0.302629 -0.748715 8.96855e-22)
(0.323794 -0.463898 -1.04584e-22)
(0.386275 -0.223346 2.76485e-22)
(0.490587 -0.0323118 -4.07495e-23)
(0.613452 0.0924242 1.73144e-22)
(0.728369 0.150911 4.75924e-23)
(0.820243 0.160976 -1.02713e-22)
(0.886276 0.144525 1.28145e-23)
(0.930315 0.118229 5.58933e-25)
(0.958234 0.0914096 1.08086e-23)
(0.975344 0.06799 8.18121e-25)
(0.9856 0.048931 -1.84868e-24)
(0.991629 0.0342009 -1.66594e-24)
(0.995171 0.0226809 -1.92566e-24)
(0.997078 0.0150973 1.35687e-24)
(0.998439 0.00682584 -3.58281e-25)
(1.3381 -4.57845 6.50641e-21)
(0.606548 -2.71357 2.1146e-21)
(0.443042 -1.74636 1.11968e-23)
(0.379833 -1.15113 2.41331e-21)
(0.351209 -0.769727 1.41736e-21)
(0.358613 -0.485666 1.04212e-21)
(0.407726 -0.247935 -5.06771e-22)
(0.498883 -0.0574357 1.33844e-22)
(0.612573 0.0707037 6.54819e-23)
(0.723237 0.134784 5.20964e-23)
(0.814254 0.150321 -2.62214e-23)
(0.881002 0.138052 -5.41754e-23)
(0.926174 0.114519 5.63818e-24)
(0.955145 0.0893627 2.23551e-23)
(0.973097 0.0668859 8.93679e-24)
(0.983995 0.0483411 -3.65363e-24)
(0.990499 0.0338842 6.85989e-24)
(0.994395 0.0225102 3.5225e-25)
(0.996531 0.0149967 8.56948e-25)
(0.998094 0.00678412 -1.2651e-25)
(1.71015 -4.50698 -7.02916e-20)
(0.821698 -2.71667 -6.84426e-21)
(0.541629 -1.76514 4.36608e-21)
(0.44912 -1.17735 -6.33405e-21)
(0.401072 -0.791696 -3.50285e-21)
(0.394326 -0.50772 -3.0281e-21)
(0.430896 -0.272143 5.60975e-22)
(0.509636 -0.0819139 1.22438e-22)
(0.613986 0.0494612 -2.27795e-22)
(0.719766 0.118899 -4.76462e-23)
(0.809308 0.139772 -7.23496e-24)
(0.876332 0.13163 7.37461e-23)
(0.922367 0.110838 -1.73574e-23)
(0.952237 0.0873333 -1.14762e-23)
(0.970946 0.0657888 -7.11458e-24)
(0.98244 0.04775 7.83811e-24)
(0.989397 0.0335612 9.94153e-25)
(0.993634 0.0223312 1.61752e-24)
(0.995992 0.0148873 -1.20789e-24)
(0.997751 0.00673775 2.25143e-25)
(2.08173 -4.40876 7.48935e-20)
(1.0483 -2.72104 1.58201e-20)
(0.644796 -1.79206 -1.02947e-21)
(0.517921 -1.20938 8.58224e-21)
(0.451814 -0.816546 -2.70034e-21)
(0.430625 -0.530523 2.20135e-22)
(0.455221 -0.29612 1.59042e-21)
(0.522384 -0.105763 -2.476e-22)
(0.617493 0.0287716 -5.88102e-22)