/*--------------------------------*- C++ -*----------------------------------*\
  =========                 |
  \\      /  F ield         | OpenFOAM: The Open Source CFD Toolbox
   \\    /   O peration     | Website:  https://openfoam.org
    \\  /    A nd           | Version:  6.0
     \\/     M anipulation  |
\*---------------------------------------------------------------------------*/
FoamFile
{
    version     2.0;
    format      ascii;
    class       volVectorField;
    location    "2.499";
    object      U;
}
// * * * * * * * * * * * * * * * * * * * * * * * * * * * * * * * * * * * * * //

dimensions      [0 1 -1 0 0 0 0];

internalField   nonuniform List<vector> 
19200
(
(0.100101 -4.85056 -7.87185e-21)
(0.0618594 -4.59768 4.00802e-21)
(0.0631838 -4.37787 1.87128e-21)
(0.0697553 -4.18559 1.66936e-21)
(0.0758261 -4.01581 1.85762e-21)
(0.0832708 -3.86418 1.17154e-22)
(0.0919343 -3.72719 2.64379e-21)
(0.101317 -3.60201 -1.90988e-22)
(0.111115 -3.48642 2.31416e-21)
(0.121096 -3.37862 9.64833e-22)
(0.131066 -3.27724 6.71179e-24)
(0.140868 -3.18121 1.53192e-21)
(0.150387 -3.08968 2.51462e-21)
(0.159537 -3.00203 -1.71106e-21)
(0.168259 -2.91776 2.18311e-21)
(0.176518 -2.83651 1.87814e-21)
(0.184295 -2.75799 -1.77419e-21)
(0.191586 -2.68197 3.02167e-21)
(0.198398 -2.60828 -1.93106e-21)
(0.204745 -2.53678 9.66128e-22)
(0.210647 -2.46734 1.35376e-21)
(0.216126 -2.39987 -4.41209e-22)
(0.221206 -2.33429 5.96368e-22)
(0.22591 -2.27054 -6.93841e-22)
(0.230262 -2.20858 -9.52966e-24)
(0.234281 -2.14832 3.62275e-22)
(0.237983 -2.08971 -2.43841e-22)
(0.241394 -2.03267 1.4597e-22)
(0.244567 -1.97712 3.46498e-22)
(0.247438 -1.923 1.45878e-21)
(0.227249 -4.84685 -1.76674e-21)
(0.182691 -4.59741 1.22609e-20)
(0.178382 -4.37984 -6.54233e-21)
(0.180057 -4.1894 -8.92347e-21)
(0.181863 -4.02122 -4.02311e-21)
(0.185532 -3.87091 -2.88189e-21)
(0.190803 -3.73496 -6.2693e-21)
(0.19709 -3.61057 8.08528e-22)
(0.204025 -3.49552 -1.3237e-21)
(0.211326 -3.38808 -4.67597e-21)
(0.218758 -3.28688 -1.16192e-20)
(0.22614 -3.19087 5.6575e-21)
(0.233334 -3.09926 -2.12087e-21)
(0.24024 -3.01142 8.06526e-22)
(0.246788 -2.9269 -4.8672e-21)
(0.252937 -2.84534 -1.78249e-21)
(0.258663 -2.76647 2.07492e-22)
(0.26396 -2.69009 6.06056e-21)
(0.268831 -2.61602 -3.21284e-21)
(0.273292 -2.54413 -1.78225e-21)
(0.277362 -2.47432 -6.9422e-21)
(0.281062 -2.40648 1.78676e-21)
(0.284417 -2.34054 -1.11831e-21)
(0.287449 -2.27645 1.98055e-21)
(0.290181 -2.21414 -9.14002e-22)
(0.292633 -2.15357 -1.42699e-21)
(0.294819 -2.09464 4.68905e-22)
(0.296768 -2.03729 7.24138e-22)
(0.298558 -1.98142 -1.28726e-21)
(0.300066 -1.92698 6.73166e-22)
(0.354011 -4.8401 -8.37224e-22)
(0.303268 -4.59411 2.56113e-21)
(0.293566 -4.37888 4.06498e-21)
(0.290535 -4.19042 3.10453e-20)
(0.28821 -4.02397 -1.79563e-20)
(0.288206 -3.87508 1.65297e-20)
(0.29016 -3.74025 1.01878e-20)
(0.29341 -3.61672 7.92012e-21)
(0.297523 -3.5023 -7.51547e-21)
(0.302171 -3.39526 -7.59052e-22)
(0.307083 -3.29429 1.8986e-20)
(0.312052 -3.19836 3.15208e-21)
(0.316921 -3.1067 -8.77767e-21)
(0.321577 -3.01873 6.919e-21)
(0.325942 -2.93399 -3.69008e-24)
(0.329967 -2.85216 2.94254e-21)
(0.333627 -2.77299 2.11938e-21)
(0.336912 -2.69628 7.10231e-21)
(0.339826 -2.62188 -3.15351e-21)
(0.342383 -2.54966 -1.03886e-21)
(0.344603 -2.47952 -2.71483e-21)
(0.346508 -2.41136 1.20417e-20)
(0.348122 -2.34512 -1.00749e-20)
(0.349468 -2.28073 3.27915e-21)
(0.350569 -2.21815 1.51558e-21)
(0.351442 -2.1573 -6.14121e-21)
(0.352098 -2.09812 8.20673e-21)
(0.352577 -2.04051 -8.86852e-22)
(0.352973 -1.98438 -9.29596e-22)
(0.353105 -1.92968 -6.79484e-21)
(0.480532 -4.83018 -2.83912e-20)
(0.423717 -4.5878 -2.63552e-20)
(0.40876 -4.37503 -3.23076e-20)
(0.401158 -4.18867 1.08132e-21)
(0.394819 -4.02406 2.00581e-21)
(0.391237 -3.87669 -3.66516e-20)
(0.38995 -3.74308 1.71519e-21)
(0.390218 -3.62047 4.75834e-21)
(0.39155 -3.50672 -8.44913e-22)
(0.393572 -3.40015 8.14309e-21)
(0.395981 -3.29945 -3.2402e-20)
(0.398543 -3.20364 -2.01176e-20)
(0.401087 -3.11198 7.56935e-21)
(0.403486 -3.02391 1.49088e-20)
(0.405657 -2.939 -1.74023e-20)
(0.407545 -2.85695 -2.72954e-21)
(0.409123 -2.77752 -1.02834e-20)
(0.410379 -2.70053 -4.84444e-21)
(0.411318 -2.62584 8.1239e-21)
(0.411954 -2.55334 -1.04163e-20)
(0.412308 -2.48292 9.04954e-21)
(0.412401 -2.4145 -1.07627e-20)
(0.41226 -2.34801 -8.45346e-21)
(0.411907 -2.28338 -6.05515e-21)
(0.411366 -2.22057 -1.7767e-21)
(0.410648 -2.15951 -1.24927e-20)
(0.409769 -2.10012 1.29955e-21)
(0.408767 -2.04232 2.24296e-21)
(0.407761 -1.98599 -6.52172e-21)
(0.406507 -1.93109 1.45752e-21)
(0.606769 -4.81703 -1.68817e-20)
(0.54402 -4.57846 2.5232e-21)
(0.523934 -4.36831 2.24775e-20)
(0.511883 -4.18418 2.35184e-20)
(0.50164 -4.02151 1.69217e-20)
(0.49457 -3.87575 7.00249e-21)
(0.490113 -3.74341 1.0835e-20)
(0.487455 -3.6218 4.96186e-20)
(0.486045 -3.50878 -2.99253e-20)
(0.485468 -3.40272 8.77139e-22)
(0.485388 -3.30234 7.23588e-21)
(0.48555 -3.2067 3.09495e-20)
(0.485767 -3.11508 -2.11031e-20)
(0.485903 -3.02695 1.51517e-20)
(0.485868 -2.94191 -1.68027e-20)
(0.485605 -2.85968 2.88385e-20)
(0.485084 -2.78003 -8.53385e-21)
(0.484295 -2.70281 3.11291e-22)
(0.483242 -2.62788 1.3682e-20)
(0.48194 -2.55515 9.5545e-21)
(0.480411 -2.4845 -9.78587e-21)
(0.478678 -2.41588 1.32036e-20)
(0.476769 -2.34919 -6.00111e-21)
(0.474706 -2.28438 6.94476e-21)
(0.472509 -2.22139 9.26261e-21)
(0.470196 -2.16018 3.36481e-21)
(0.467769 -2.10064 1.02843e-20)
(0.465283 -2.0427 -3.72449e-21)
(0.462869 -1.98623 -1.24076e-21)
(0.460221 -1.93118 -6.33751e-21)
(0.732648 -4.80064 -1.22417e-20)
(0.664125 -4.56609 -8.36432e-21)
(0.639039 -4.35871 -2.53808e-20)
(0.622659 -4.17693 -6.59828e-20)
(0.608618 -4.01631 2.24234e-20)
(0.598148 -3.87224 1.43459e-21)
(0.590592 -3.74125 -1.51392e-20)
(0.585061 -3.62069 2.94282e-21)
(0.580948 -3.50846 -2.23835e-21)
(0.577796 -3.40295 -3.86251e-20)
(0.575242 -3.30293 1.63586e-20)
(0.573009 -3.2075 2.80082e-20)
(0.570896 -3.11596 1.06762e-22)
(0.568761 -3.02782 1.03665e-20)
(0.566508 -2.94269 2.55534e-20)
(0.564079 -2.86032 -1.76095e-20)
(0.561443 -2.78051 3.09429e-20)
(0.558592 -2.7031 -1.47601e-20)
(0.55553 -2.62798 2.61539e-20)
(0.552274 -2.55506 -1.96545e-20)
(0.548847 -2.48425 8.75863e-21)
(0.545276 -2.41547 2.2883e-20)
(0.541584 -2.34864 1.23131e-21)
(0.537799 -2.28371 -2.12466e-20)
(0.533939 -2.22061 1.19536e-20)
(0.530018 -2.15929 1.37797e-21)
(0.526043 -2.09967 -3.81553e-21)
(0.522067 -2.04165 1.45649e-20)
(0.518242 -1.9851 5.11376e-21)
(0.514194 -1.92997 -5.4037e-21)
(0.85809 -4.78101 3.42017e-20)
(0.783967 -4.55068 -1.1292e-21)
(0.754018 -4.34623 -5.15303e-20)
(0.733429 -4.16692 1.05809e-20)
(0.715696 -4.00845 -1.45337e-20)
(0.701914 -3.86615 1.09071e-20)
(0.691329 -3.73658 2.36987e-20)
(0.682976 -3.61713 4.29165e-20)
(0.676198 -3.50573 -4.63878e-20)
(0.670495 -3.40081 1.14687e-20)
(0.665477 -3.30121 -7.89988e-21)
(0.660853 -3.20602 5.81265e-21)
(0.656407 -3.11461 -2.59676e-20)
(0.651992 -3.02649 -1.61338e-21)
(0.647508 -2.94132 4.1684e-20)
(0.642898 -2.85886 -2.88657e-20)
(0.638131 -2.77892 -1.81807e-20)
(0.633199 -2.70138 -1.31397e-20)
(0.628111 -2.62612 2.40579e-20)
(0.622886 -2.55306 5.14803e-21)
(0.617547 -2.48213 -2.36124e-20)
(0.612122 -2.41325 3.1437e-20)
(0.606638 -2.34635 -2.84377e-20)
(0.601119 -2.28135 1.87842e-20)
(0.595588 -2.2182 -1.06868e-20)
(0.590057 -2.15684 6.90635e-21)
(0.584529 -2.09719 5.16472e-21)
(0.579061 -2.03915 -2.32501e-20)
(0.573823 -1.98257 1.00016e-20)
(0.568372 -1.92742 1.81175e-22)
(0.983016 -4.75816 -3.35047e-20)
(0.903474 -4.53224 2.84813e-20)
(0.868806 -4.33087 -5.2413e-20)
(0.844134 -4.15415 1.00827e-19)
(0.822815 -3.99792 -2.83294e-20)
(0.80581 -3.85746 4.00986e-20)
(0.792262 -3.72938 -6.01106e-22)
(0.78114 -3.61109 -5.73317e-21)
(0.77173 -3.50057 -8.11129e-21)
(0.763498 -3.3963 -2.39129e-23)
(0.75603 -3.29714 -3.14415e-20)
(0.749015 -3.20224 1.65217e-20)
(0.742231 -3.11099 -1.97831e-20)
(0.735526 -3.02294 -1.60229e-21)
(0.728799 -2.93777 -5.55173e-20)
(0.721991 -2.85526 1.82878e-20)
(0.715075 -2.77525 1.04798e-20)
(0.708046 -2.69762 -1.19451e-20)
(0.700916 -2.62227 -1.41451e-21)
(0.693704 -2.54913 -1.83086e-20)
(0.686439 -2.47814 -6.546e-21)
(0.679148 -2.40922 5.46115e-22)
(0.67186 -2.34229 -1.59841e-20)
(0.664602 -2.27729 -2.36885e-20)
(0.657396 -2.21415 1.03098e-21)
(0.650252 -2.15281 -2.71122e-21)
(0.643166 -2.09319 7.47814e-21)
(0.636207 -2.03519 -1.84691e-20)
(0.629554 -1.97865 1.57459e-20)
(0.622702 -1.92355 -3.24101e-20)
(1.10734 -4.73208 -8.31102e-20)
(1.02258 -4.51076 1.03831e-19)
(0.983338 -4.31262 -1.09912e-19)
(0.95471 -4.13862 -2.95978e-20)
(0.929915 -3.98471 -1.89006e-20)
(0.909773 -3.84618 -2.06548e-20)
(0.893332 -3.71964 -1.90312e-20)
(0.879489 -3.60255 -4.22443e-21)
(0.867482 -3.49296 -1.94412e-20)
(0.856742 -3.38938 -4.08967e-21)
(0.846831 -3.29071 3.24627e-20)
(0.837427 -3.19614 -1.88647e-20)
(0.8283 -3.10509 -2.21646e-20)
(0.819293 -3.01715 -3.72212e-20)
(0.810307 -2.93203 7.84687e-20)
(0.801286 -2.84952 -3.01719e-20)
(0.792204 -2.76948 1.12696e-20)
(0.783061 -2.6918 -4.19655e-20)
(0.773871 -2.61642 1.62188e-20)
(0.764659 -2.54326 -6.59912e-21)
(0.755453 -2.47225 8.40018e-21)
(0.746285 -2.40335 -2.8702e-21)
(0.737186 -2.33646 2.6234e-20)
(0.728183 -2.27152 -9.30587e-21)
(0.719297 -2.20845 2.57341e-20)
(0.710536 -2.14719 -4.93831e-21)
(0.701897 -2.08767 3.359e-20)
(0.693444 -2.02977 9.21039e-21)
(0.685383 -1.97333 1.73102e-20)
(0.677131 -1.91833 -5.73185e-20)
(1.23099 -4.70281 1.31353e-19)
(1.1412 -4.48627 -2.65296e-20)
(1.09755 -4.2915 4.69791e-20)
(1.0651 -4.12031 -1.33933e-20)
(1.03693 -3.96883 4.74219e-20)
(1.01374 -3.83228 4.48361e-20)
(0.994475 -3.70734 5.08224e-20)
(0.97796 -3.59151 -4.09176e-21)
(0.963388 -3.48289 -4.89279e-20)
(0.950158 -3.38003 7.22182e-20)
(0.937813 -3.28189 -5.38586e-21)
(0.926019 -3.18769 5.10478e-20)
(0.91454 -3.09688 1.85081e-20)
(0.90322 -3.0091 6.86198e-21)
(0.891961 -2.92406 1.08051e-20)
(0.880709 -2.8416 1.49833e-20)
(0.869445 -2.76158 2.48417e-20)
(0.85817 -2.68392 -7.09924e-21)
(0.846905 -2.60855 3.65959e-20)
(0.835677 -2.53541 1.6788e-20)
(0.824519 -2.46446 -3.51222e-20)
(0.813464 -2.39563 6.22737e-20)
(0.802546 -2.32884 -8.22746e-20)
(0.791791 -2.26402 7.78531e-20)
(0.781222 -2.2011 -2.58076e-20)
(0.770845 -2.13999 5.00523e-21)
(0.760652 -2.08062 -3.40154e-20)
(0.750713 -2.02289 1.90842e-20)
(0.741248 -1.9666 6.83506e-21)
(0.731602 -1.91178 -8.81416e-21)
(1.35388 -4.67035 -7.49045e-20)
(1.25927 -4.45876 7.52584e-20)
(1.21137 -4.2675 -2.06228e-20)
(1.17522 -4.09924 5.94292e-20)
(1.14381 -3.95025 5.89353e-21)
(1.11766 -3.81576 1.25007e-20)
(1.09563 -3.69247 -1.02764e-19)
(1.07649 -3.57794 -1.81344e-20)
(1.05938 -3.47033 6.62398e-20)
(1.04368 -3.36824 5.0175e-20)
(1.02891 -3.27066 -8.58172e-20)
(1.01472 -3.17687 5.00641e-20)
(1.00088 -3.08635 -5.01601e-20)
(0.987235 -2.99876 3.4438e-20)
(0.973687 -2.91386 -5.77771e-20)
(0.960187 -2.83149 -4.28232e-20)
(0.946722 -2.75154 2.82206e-21)
(0.933299 -2.67394 -1.95569e-20)
(0.919943 -2.59864 3.51449e-20)
(0.906685 -2.5256 1.39507e-20)
(0.893563 -2.45475 -9.20332e-21)
(0.880613 -2.38604 -2.68843e-21)
(0.867868 -2.31942 1.0769e-20)
(0.855357 -2.25479 -3.62056e-20)
(0.843105 -2.19207 6.01522e-20)
(0.831111 -2.13118 -1.47437e-20)
(0.819369 -2.07204 -1.12009e-21)
(0.807953 -2.01454 5.25668e-20)
(0.79709 -1.95846 7.01264e-21)
(0.786062 -1.90388 -7.87087e-21)
(1.47593 -4.63473 2.77056e-21)
(1.37672 -4.42825 -4.256e-20)
(1.32473 -4.24063 -3.89854e-20)
(1.28503 -4.07539 -6.44565e-20)
(1.25047 -3.92899 2.17468e-21)
(1.22145 -3.79661 -4.6224e-20)
(1.19673 -3.67501 5.52641e-20)
(1.17501 -3.56183 -5.42838e-21)
(1.15539 -3.45526 4.44186e-20)
(1.13723 -3.35397 -3.72337e-20)
(1.12004 -3.257 -1.90866e-20)
(1.10346 -3.16366 1.04375e-20)
(1.08725 -3.07347 5.64374e-21)
(1.07126 -2.98613 -5.73409e-20)
(1.05541 -2.90141 3.39612e-20)
(1.03964 -2.81918 -1.67297e-20)
(1.02396 -2.73935 4.77503e-20)
(1.00837 -2.66187 -1.57171e-20)
(0.992909 -2.5867 1.64687e-20)
(0.977609 -2.51379 4.04808e-21)
(0.962512 -2.4431 2.79582e-20)
(0.947657 -2.37459 -5.7588e-21)
(0.933081 -2.30819 4.59961e-20)
(0.918814 -2.24381 -5.13394e-20)
(0.904875 -2.18137 -1.7346e-20)
(0.891271 -2.12077 1.42018e-20)
(0.877985 -2.06193 -1.30189e-21)
(0.865097 -2.00471 -2.48019e-20)
(0.852849 -1.94892 2.00912e-20)
(0.840451 -1.89464 -2.49482e-20)
(1.59705 -4.59596 1.26308e-19)
(1.49347 -4.39475 3.54131e-20)
(1.43756 -4.21089 4.23913e-20)
(1.39445 -4.04878 5.71626e-20)
(1.35687 -3.90502 8.60341e-20)
(1.32506 -3.77481 -2.54384e-21)
(1.2977 -3.65496 1.27265e-20)
(1.27345 -3.54316 9.67403e-20)
(1.25136 -3.43768 -2.01132e-20)
(1.23075 -3.33723 -3.57328e-20)
(1.21114 -3.2409 6.31114e-20)
(1.19215 -3.14804 1.05569e-20)
(1.17357 -3.05823 6.18961e-22)
(1.15523 -2.97117 1.52404e-20)
(1.13705 -2.88668 2.70982e-20)
(1.119 -2.80465 -5.56505e-20)
(1.10108 -2.725 4.75433e-20)
(1.08331 -2.64769 8.00339e-21)
(1.06573 -2.57269 4.62562e-20)
(1.04837 -2.49998 -2.51862e-20)
(1.03129 -2.42952 4.14488e-20)
(1.01452 -2.36126 -4.40986e-20)
(0.998111 -2.29514 4.26682e-20)
(0.982085 -2.23108 5.84288e-21)
(0.966465 -2.16898 -2.86985e-20)
(0.951254 -2.10875 -9.29923e-21)
(0.936432 -2.05027 5.48826e-20)
(0.922084 -1.99342 4.00525e-20)
(0.908467 -1.93798 1.06462e-20)
(0.894708 -1.88406 -7.79895e-21)
(1.71718 -4.55408 1.27992e-20)
(1.60945 -4.35827 3.0408e-20)
(1.54979 -4.1783 1.23824e-19)
(1.50342 -4.01939 -2.03493e-19)
(1.46292 -3.87834 -1.99294e-20)
(1.42841 -3.75036 -2.19634e-20)
(1.39849 -3.63229 9.93601e-21)
(1.37174 -3.52192 1.31489e-20)
(1.3472 -3.41756 2.17438e-20)
(1.32416 -3.31798 -5.85433e-20)
(1.30213 -3.22233 -1.11264e-20)
(1.28074 -3.13001 3.29559e-20)
(1.25976 -3.04061 3.5304e-20)
(1.23905 -2.95389 -3.55063e-20)
(1.21853 -2.86968 -3.47553e-20)
(1.19818 -2.78788 5.70989e-20)
(1.17801 -2.70846 3.70629e-20)
(1.15804 -2.63138 -9.69421e-21)
(1.13832 -2.55662 -2.37257e-20)
(1.1189 -2.48417 4.28131e-21)
(1.09982 -2.41399 -5.4565e-20)
(1.08114 -2.34605 6.58537e-20)
(1.06289 -2.28027 -4.50341e-20)
(1.0451 -2.21659 -1.8223e-21)
(1.02781 -2.1549 2.97007e-20)
(1.01099 -2.0951 -9.2292e-21)
(0.994648 -2.03707 -2.78455e-20)
(0.978853 -1.98066 3.44993e-20)
(0.963877 -1.92563 -9.8705e-22)
(0.948782 -1.87214 6.11457e-21)
(1.83622 -4.5091 -9.61644e-21)
(1.72458 -4.31884 -3.19539e-20)
(1.66136 -4.14285 -1.42753e-19)
(1.61187 -3.98724 5.19564e-20)
(1.56857 -3.84896 -1.55812e-20)
(1.53145 -3.72324 5.20738e-20)
(1.49902 -3.60701 3.89738e-21)
(1.46982 -3.49809 -5.95001e-20)
(1.44285 -3.39488 9.04308e-20)
(1.41739 -3.29622 -8.18114e-20)
(1.39294 -3.20128 -3.07618e-21)
(1.36913 -3.10953 1.98388e-20)
(1.34575 -3.0206 -3.42299e-20)
(1.32265 -2.93425 3.89049e-20)
(1.29978 -2.85037 -7.44108e-20)
(1.27711 -2.76888 -1.65875e-20)
(1.25467 -2.68974 4.51759e-20)
(1.23248 -2.61294 1.11981e-22)
(1.21061 -2.53848 -2.81889e-20)
(1.18911 -2.46635 7.70596e-20)
(1.16803 -2.39651 -4.15355e-20)
(1.14742 -2.32894 -5.53921e-20)
(1.12733 -2.26358 1.84086e-20)
(1.10779 -2.20034 -5.35866e-20)
(1.08882 -2.13913 -1.28202e-20)
(1.07042 -2.07983 -1.57059e-21)
(1.05256 -2.02232 -3.47891e-20)
(1.03534 -1.96642 4.18143e-20)
(1.01902 -1.91188 -2.32008e-20)
(1.00262 -1.8589 2.74823e-20)
(1.9541 -4.46105 -4.51453e-20)
(1.83879 -4.27647 -1.28248e-19)
(1.7722 -4.10457 6.16137e-20)
(1.71972 -3.95232 -5.89323e-20)
(1.67374 -3.81687 -4.33448e-20)
(1.6341 -3.69346 -2.49023e-20)
(1.59923 -3.57909 -9.2393e-20)
(1.56761 -3.47166 6.30568e-20)
(1.53823 -3.36964 -1.55432e-19)
(1.51036 -3.27192 -5.60114e-20)
(1.48348 -3.17774 2.0732e-20)
(1.45725 -3.0866 3.39861e-20)
(1.43145 -2.99818 -7.67896e-22)
(1.40595 -2.91226 -6.47145e-20)
(1.38071 -2.82876 1.51728e-20)
(1.35571 -2.74762 -5.84609e-20)
(1.33097 -2.66882 -4.18611e-20)
(1.30656 -2.59237 -2.4956e-20)
(1.28253 -2.51826 -4.73297e-21)
(1.25893 -2.44651 4.31309e-20)
(1.23584 -2.37708 6.1306e-20)
(1.2133 -2.30994 -1.8367e-20)
(1.19137 -2.24505 -1.75946e-20)
(1.17008 -2.18232 3.42774e-20)
(1.14944 -2.12165 1.89808e-20)
(1.12947 -2.06293 -1.51115e-20)
(1.11011 -2.00601 -1.67885e-20)
(1.09148 -1.95072 1.96002e-21)
(1.07385 -1.89673 1.74504e-20)
(1.05615 -1.84434 2.43376e-20)
(2.07075 -4.40996 -8.20665e-21)
(1.95201 -4.23118 1.61571e-19)
(1.88222 -4.06346 1.24112e-19)
(1.82692 -3.91464 9.63864e-20)
(1.77838 -3.78207 -6.30444e-20)
(1.7363 -3.66101 -1.26306e-20)
(1.69904 -3.54852 1.17031e-20)
(1.66504 -3.44262 7.98906e-20)
(1.63327 -3.34182 2.99712e-20)
(1.60299 -3.24508 7.26201e-20)
(1.57369 -3.1517 -1.0107e-19)
(1.54503 -3.06121 1.05177e-20)
(1.5168 -2.97334 4.10828e-20)
(1.48888 -2.88791 2.49888e-20)
(1.46124 -2.80484 5.17925e-20)
(1.43389 -2.72411 -3.57408e-20)
(1.40685 -2.64571 -3.27892e-20)
(1.38019 -2.56966 6.48568e-21)
(1.35398 -2.49597 6.99099e-20)
(1.32828 -2.42464 -1.12761e-19)
(1.30317 -2.35568 3.93996e-20)
(1.2787 -2.28905 -2.28833e-22)
(1.25493 -2.2247 7.38012e-20)
(1.23189 -2.16254 -3.20624e-20)
(1.2096 -2.10248 -1.79716e-21)
(1.18806 -2.0444 -2.02456e-20)
(1.16723 -1.98815 1.92491e-20)
(1.1472 -1.93353 4.71738e-21)
(1.12828 -1.88019 -2.11219e-20)
(1.1093 -1.82845 7.32073e-20)
(2.18608 -4.35586 -1.63976e-19)
(2.06416 -4.18299 -9.80155e-20)
(1.99138 -4.01953 -2.50234e-19)
(1.9334 -3.87421 -1.12944e-19)
(1.88241 -3.74456 1.05863e-19)
(1.83797 -3.62588 -6.18825e-20)
(1.79838 -3.51531 -1.45875e-20)
(1.76204 -3.41095 -4.07222e-20)
(1.7279 -3.3114 6.94349e-20)
(1.69521 -3.21568 -1.58018e-20)
(1.66348 -3.12313 -2.4914e-20)
(1.63238 -3.03335 -3.09718e-21)
(1.6017 -2.94608 -1.00189e-19)
(1.57135 -2.86118 -3.58044e-21)
(1.5413 -2.7786 2.69772e-20)
(1.51158 -2.69833 -2.96922e-21)
(1.48222 -2.62039 -1.02558e-19)
(1.4533 -2.5448 9.9754e-20)
(1.4249 -2.47158 -9.76301e-20)
(1.39709 -2.40076 3.81336e-20)
(1.36995 -2.33232 5.3816e-21)
(1.34355 -2.26626 2.1521e-21)
(1.31793 -2.20251 -3.99569e-20)
(1.29314 -2.14099 1.335e-20)
(1.2692 -2.08162 -2.32773e-23)
(1.24611 -2.02424 4.33734e-21)
(1.22382 -1.96874 -9.90062e-20)
(1.20242 -1.91486 2.70629e-20)
(1.18222 -1.86224 2.89076e-20)
(1.16202 -1.81123 3.27851e-20)
(2.30002 -4.29879 3.18599e-19)
(2.17518 -4.13192 1.11121e-19)
(2.09959 -3.97281 6.49532e-20)
(2.03909 -3.83103 1.0355e-19)
(1.98576 -3.70434 -1.2807e-20)
(1.93905 -3.58806 7.73001e-20)
(1.89717 -3.47944 1.71442e-19)
(1.85852 -3.37666 -2.21988e-20)
(1.82202 -3.27839 9.61652e-21)
(1.78694 -3.18372 2.00053e-19)
(1.75278 -3.09205 -2.68234e-20)
(1.71921 -3.00301 2.7568e-20)
(1.68607 -2.91639 -9.8929e-21)
(1.65328 -2.83208 -4.47335e-22)
(1.6208 -2.75004 1.42518e-19)
(1.58869 -2.6703 5.52577e-21)
(1.557 -2.59287 1.50495e-19)
(1.52581 -2.5178 -1.93315e-20)
(1.49521 -2.44511 -3.23423e-20)
(1.46528 -2.37485 7.55081e-20)
(1.43611 -2.30701 -6.87633e-20)
(1.40776 -2.24156 7.55394e-20)
(1.3803 -2.17848 4.05576e-20)
(1.35376 -2.11767 -3.26871e-20)
(1.32818 -2.05905 4.97938e-20)
(1.30354 -2.00246 5.87817e-21)
(1.27981 -1.94777 -2.0511e-20)
(1.25707 -1.89472 1.13478e-20)
(1.23562 -1.8429 7.38457e-20)
(1.21421 -1.7927 1.15495e-20)
(2.41249 -4.23878 -5.48549e-20)
(2.28499 -4.078 -1.12267e-19)
(2.2068 -3.9233 4.56599e-20)
(2.14393 -3.78512 -1.84833e-19)
(2.08838 -3.66141 8.72252e-20)
(2.03947 -3.54756 -1.59666e-19)
(1.99536 -3.44091 -1.04022e-19)
(1.95442 -3.33973 2.91204e-20)
(1.91557 -3.24277 2.77239e-20)
(1.87809 -3.14918 -1.38999e-19)
(1.84149 -3.05843 -5.96322e-20)
(1.80546 -2.97018 2.68602e-20)
(1.76985 -2.88426 -7.53036e-20)
(1.73458 -2.80059 -2.97399e-20)
(1.69967 -2.71916 -1.98614e-20)
(1.66516 -2.64 -1.99624e-20)
(1.63112 -2.56314 -8.29178e-20)
(1.59765 -2.48865 -5.15435e-20)
(1.56484 -2.41657 9.55822e-21)
(1.53278 -2.34692 1.68573e-20)
(1.50156 -2.27972 1.76332e-20)
(1.47126 -2.21497 -6.1775e-20)
(1.44195 -2.15261 2.30246e-20)
(1.41367 -2.09258 -4.76694e-20)
(1.38646 -2.03476 4.45253e-20)
(1.36029 -1.97904 -5.87996e-20)
(1.33512 -1.92524 1.81842e-20)
(1.31105 -1.8731 -2.89227e-20)
(1.2884 -1.82216 -4.07e-20)
(1.26582 -1.77287 -4.25991e-21)
(2.52342 -4.17587 -1.1507e-19)
(2.39353 -4.02126 -1.00914e-19)
(2.31293 -3.87104 -9.83233e-20)
(2.24784 -3.73648 -7.16167e-20)
(2.19018 -3.61578 2.22519e-19)
(2.13914 -3.50438 3.06309e-20)
(2.09285 -3.39971 9.44227e-20)
(2.04965 -3.30015 1.43639e-19)
(2.00847 -3.20453 6.84247e-20)
(1.96859 -3.11207 -9.16404e-20)
(1.92954 -3.02228 1.45182e-19)
(1.89103 -2.93487 -1.41585e-19)
(1.85293 -2.8497 1.32703e-19)
(1.81519 -2.76673 1.52179e-20)
(1.77782 -2.68596 3.3521e-20)
(1.7409 -2.60744 1.10336e-20)
(1.7045 -2.53122 1.34645e-19)
(1.66874 -2.45737 -2.01189e-20)
(1.6337 -2.38594 1.7773e-20)
(1.59951 -2.31697 5.97801e-20)
(1.56624 -2.25048 -6.66897e-20)
(1.534 -2.18646 5.27265e-20)
(1.50283 -2.12489 1.82532e-21)
(1.47281 -2.06569 2.37212e-20)
(1.44395 -2.00875 4.32028e-20)
(1.41626 -1.95396 -7.46495e-21)
(1.38968 -1.90114 4.26773e-20)
(1.36431 -1.84999 6.13494e-20)
(1.34047 -1.80002 -6.68084e-20)
(1.31677 -1.75172 -4.15833e-20)
(2.63272 -4.11009 3.3456e-19)
(2.50072 -3.96173 -3.73647e-20)
(2.41793 -3.81603 7.62353e-20)
(2.35078 -3.68512 1.39217e-19)
(2.29111 -3.56745 -3.98477e-19)
(2.23801 -3.4585 4.27562e-20)
(2.18957 -3.35584 -1.50188e-19)
(2.14414 -3.25793 1.48426e-19)
(2.10063 -3.16368 -1.18346e-19)
(2.05834 -3.07238 6.25208e-20)
(2.01684 -2.98359 -2.29229e-19)
(1.97585 -2.89707 7.72194e-21)
(1.93525 -2.81272 -7.41394e-20)
(1.89501 -2.7305 1.12686e-19)
(1.85518 -2.65045 -1.19479e-19)
(1.81583 -2.57263 -6.52735e-21)
(1.77707 -2.49711 -9.57465e-20)
(1.739 -2.42396 -7.57379e-21)
(1.70174 -2.35324 7.52109e-21)
(1.66541 -2.285 2.07681e-20)
(1.63009 -2.21927 -1.17784e-19)
(1.59589 -2.15604 -3.46705e-21)
(1.56287 -2.09531 -6.54057e-20)
(1.53109 -2.03699 -1.53235e-20)
(1.5006 -1.981 -3.98544e-20)
(1.47139 -1.92721 -4.33654e-20)
(1.4434 -1.87543 -4.49015e-20)
(1.41674 -1.82537 7.45898e-20)
(1.39175 -1.77647 1.99057e-20)
(1.36697 -1.72925 -4.00349e-20)
(2.74034 -4.04148 -2.22809e-19)
(2.6065 -3.89944 8.24595e-20)
(2.52173 -3.7583 -1.39609e-19)
(2.45266 -3.63107 2.09831e-20)
(2.39109 -3.51642 2.25221e-19)
(2.336 -3.40994 -1.14368e-19)
(2.28545 -3.3093 -1.18348e-19)
(2.23779 -3.21305 -1.0127e-19)
(2.19196 -3.12021 5.18547e-21)
(2.14727 -3.03011 6.48136e-20)
(2.10331 -2.94237 -4.64833e-20)
(2.05982 -2.8568 2.6523e-21)
(2.01671 -2.77331 1.41786e-19)
(1.97397 -2.69191 -7.18048e-20)
(1.93167 -2.61264 1.82789e-20)
(1.88989 -2.53559 -5.74738e-20)
(1.84875 -2.46082 2.19286e-20)
(1.80838 -2.38843 4.74911e-20)
(1.76889 -2.31848 5.27695e-20)
(1.73041 -2.25103 -5.80088e-20)
(1.69304 -2.1861 8.7405e-21)
(1.65687 -2.12372 4.92863e-20)
(1.622 -2.06386 8.51759e-20)
(1.58847 -2.00648 2.21151e-20)
(1.55634 -1.95148 -8.74247e-20)
(1.5256 -1.89874 1.01432e-19)
(1.49621 -1.84809 -5.08579e-20)
(1.46828 -1.7992 -6.04435e-20)
(1.44215 -1.75147 -3.70224e-20)
(1.41633 -1.70545 -5.15898e-20)
(2.84619 -3.97009 1.17257e-19)
(2.71082 -3.83442 -9.4198e-20)
(2.62428 -3.69787 3.68435e-20)
(2.55345 -3.57431 1.88996e-19)
(2.49006 -3.46269 5.1017e-20)
(2.43303 -3.35869 -4.35226e-20)
(2.3804 -3.26008 1.055e-19)
(2.33053 -3.16553 2.54573e-20)
(2.28238 -3.07412 9.82282e-20)
(2.23529 -2.98526 5.39015e-20)
(2.18886 -2.89863 2.44505e-21)
(2.14286 -2.81405 3.35995e-20)
(2.09723 -2.73149 -1.06283e-20)
(2.05199 -2.65096 1.83691e-20)
(2.0072 -2.57254 5.03748e-20)
(1.96299 -2.49632 -2.76811e-20)
(1.91947 -2.42238 6.79784e-20)
(1.87679 -2.35081 6.87895e-20)
(1.83508 -2.28168 -7.82379e-20)
(1.79446 -2.21506 8.03281e-20)
(1.75503 -2.15099 1.69689e-19)
(1.71691 -2.08949 -1.09509e-19)
(1.68017 -2.03055 1.09533e-19)
(1.64489 -1.97413 -7.69161e-20)
(1.6111 -1.92016 -1.07868e-20)
(1.57883 -1.86853 8.18657e-20)
(1.54803 -1.81907 -1.67215e-20)
(1.51882 -1.77143 6.12669e-20)
(1.49158 -1.72497 6.07252e-20)
(1.46476 -1.68026 -1.23459e-19)
(2.95022 -3.89596 -1.12898e-19)
(2.81363 -3.76672 5.40083e-20)
(2.72554 -3.63477 2.18125e-20)
(2.65307 -3.51487 -2.19971e-19)
(2.58794 -3.40627 -1.13115e-19)
(2.52901 -3.30474 8.4466e-20)
(2.47433 -3.20818 -2.33915e-19)
(2.42227 -3.11535 2.81187e-19)
(2.37181 -3.02542 -1.57781e-19)
(2.32231 -2.93785 1.87933e-20)
(2.2734 -2.85237 -3.02636e-20)
(2.22489 -2.76885 -8.84935e-20)
(2.17673 -2.68727 1.82698e-19)
(2.12897 -2.60768 6.82308e-20)
(2.08171 -2.53018 -7.1367e-20)
(2.03506 -2.45485 1.90151e-21)
(1.98917 -2.38179 3.9039e-20)
(1.94419 -2.3111 -8.45511e-20)
(1.90026 -2.24286 1.79239e-20)
(1.8575 -2.17713 5.79548e-20)
(1.81603 -2.11395 -2.43959e-20)
(1.77595 -2.05336 3.96366e-20)
(1.73735 -1.99536 -7.83078e-20)
(1.7003 -1.93993 1.12671e-19)
(1.66486 -1.88701 2.59508e-20)
(1.63104 -1.83651 -7.1304e-20)
(1.59881 -1.78828 -6.13301e-20)
(1.56831 -1.74197 3.94032e-22)
(1.53995 -1.69688 8.44059e-20)
(1.51215 -1.65361 -2.09324e-20)
(3.05237 -3.81913 -3.08818e-20)
(2.9149 -3.69636 -2.20123e-19)
(2.82547 -3.56899 2.63428e-19)
(2.75147 -3.45273 1.77343e-19)
(2.68466 -3.34714 1.75802e-19)
(2.62387 -3.2481 4.80227e-20)
(2.56716 -3.15361 7.2907e-20)
(2.51292 -3.06254 3.67351e-20)
(2.46014 -2.97412 -1.46181e-19)
(2.40824 -2.88789 2.67158e-19)
(2.35685 -2.80361 -2.13029e-19)
(2.30582 -2.7212 -1.35961e-20)
(2.25513 -2.64067 3.12396e-20)
(2.20486 -2.5621 -1.35544e-19)
(2.1551 -2.48557 1.18694e-19)
(2.10602 -2.4112 -3.59174e-20)
(2.05777 -2.3391 -9.03917e-20)
(2.0105 -2.26935 3.44492e-20)
(1.96436 -2.20204 -6.68843e-20)
(1.91948 -2.13725 -5.88439e-20)
(1.87598 -2.07501 -6.24824e-20)
(1.83396 -2.01536 1.42034e-20)
(1.79351 -1.95831 7.80323e-21)
(1.7547 -1.90387 -1.52132e-19)
(1.71759 -1.85199 -5.7439e-20)
(1.68219 -1.80261 3.73407e-20)
(1.64851 -1.75562 4.59504e-20)
(1.61668 -1.71069 -6.34381e-20)
(1.58718 -1.66707 -2.40758e-20)
(1.5584 -1.62536 2.52516e-21)
(3.15263 -3.73963 -2.77784e-20)
(3.01461 -3.62337 1.42586e-19)
(2.92402 -3.50055 -4.07931e-20)
(2.84857 -3.3879 -5.01466e-20)
(2.78013 -3.28531 -2.71942e-19)
(2.71752 -3.18876 -5.88888e-20)
(2.65879 -3.09637 1.1241e-19)
(2.60237 -3.00709 -7.39465e-20)
(2.5473 -2.92023 -7.7344e-21)
(2.49298 -2.83539 -1.48823e-20)
(2.43911 -2.75237 8.04773e-20)
(2.38556 -2.67114 -1.26877e-19)
(2.33234 -2.59173 -8.42471e-20)
(2.27955 -2.51423 9.84528e-20)
(2.22732 -2.43875 -5.58016e-20)
(2.17582 -2.36541 -6.69012e-20)
(2.12521 -2.29433 1.42804e-19)
(2.07567 -2.22559 -2.26803e-20)
(2.02734 -2.15928 8.31906e-20)
(1.98037 -2.09546 -7.62672e-20)
(1.93486 -2.0342 -6.11079e-20)
(1.89093 -1.97551 5.33136e-20)
(1.84865 -1.91943 -6.15559e-21)
(1.80809 -1.86596 -3.94954e-20)
(1.76931 -1.81509 3.47907e-20)
(1.73233 -1.76678 -1.07706e-19)
(1.69715 -1.72099 6.58903e-20)
(1.66393 -1.67743 -1.06913e-21)
(1.63325 -1.63531 -6.81779e-20)
(1.6035 -1.59524 1.04743e-19)
(3.2511 -3.65755 1.08053e-19)
(3.11283 -3.54778 -2.8017e-19)
(3.02117 -3.42943 -2.29317e-20)
(2.9443 -3.32035 1.28965e-19)
(2.87425 -3.22076 -3.27641e-20)
(2.80984 -3.12673 -9.27325e-20)
(2.74912 -3.03646 4.28493e-20)
(2.69054 -2.94902 4.92959e-20)
(2.63317 -2.86377 3.95277e-21)
(2.57644 -2.78037 6.01169e-20)
(2.52009 -2.69868 1.91254e-19)
(2.46402 -2.61869 -6.75863e-20)
(2.40828 -2.54046 1.68018e-20)
(2.35297 -2.46411 -4.43706e-20)
(2.29828 -2.38976 1.70564e-19)
(2.24437 -2.31752 -3.0553e-20)
(2.19143 -2.24752 1.00177e-19)
(2.13963 -2.17985 -3.87971e-20)
(2.08915 -2.1146 4.14969e-20)
(2.04011 -2.05183 6.25464e-20)
(1.99264 -1.99158 1.05705e-20)
(1.94683 -1.93388 4.17258e-20)
(1.90276 -1.87877 -3.43177e-20)
(1.86049 -1.82625 9.57013e-20)
(1.82007 -1.77632 -3.90008e-20)
(1.78152 -1.72899 1.42329e-19)
(1.74481 -1.68427 -4.12134e-20)
(1.71014 -1.64195 2.81721e-20)
(1.67819 -1.60125 -5.31831e-20)
(1.64748 -1.5629 1.01412e-19)
(3.34814 -3.573 -2.39198e-19)
(3.20967 -3.46956 9.44823e-21)
(3.11684 -3.35554 -1.41277e-19)
(3.03854 -3.25002 2.54855e-20)
(2.96691 -3.15348 7.16589e-21)
(2.90072 -3.06201 -1.22422e-19)
(2.83804 -2.97391 -2.29515e-19)
(2.77732 -2.88835 1.14017e-19)
(2.71766 -2.80475 -1.61656e-19)
(2.65853 -2.72285 -8.43633e-20)
(2.5997 -2.64255 -4.77025e-20)
(2.54112 -2.56387 -3.74615e-20)
(2.48285 -2.4869 5.50558e-22)
(2.42504 -2.41177 -1.34826e-19)
(2.36789 -2.33862 8.68979e-20)
(2.31159 -2.26756 -1.43642e-19)
(2.25634 -2.19873 -3.61872e-20)
(2.20233 -2.13221 3.90065e-20)
(2.14972 -2.06808 4.89486e-20)
(2.09866 -2.0064 4.85358e-20)
(2.04927 -1.94722 3.70914e-20)
(2.00164 -1.89056 -9.29765e-20)
(1.95585 -1.83643 9.33835e-20)
(1.91195 -1.78483 -1.00519e-20)
(1.86996 -1.73577 -2.49729e-20)
(1.82988 -1.68926 -9.85594e-20)
(1.79165 -1.64535 -5.20386e-20)
(1.75542 -1.60386 9.61908e-20)
(1.72195 -1.56415 -3.17554e-20)
(1.69008 -1.52758 -3.2782e-20)
(3.44422 -3.48568 1.04833e-19)
(3.30517 -3.38828 1.07074e-20)
(3.21088 -3.27871 -2.76283e-20)
(3.13112 -3.1769 -5.55373e-21)
(3.05795 -3.08349 -4.85318e-20)
(2.99005 -2.99463 1.65564e-19)
(2.92545 -2.90876 -7.74967e-20)
(2.86262 -2.82512 5.11995e-20)
(2.80068 -2.74323 2.13117e-20)
(2.73916 -2.66289 7.46829e-20)
(2.67785 -2.58404 -2.81702e-20)
(2.61676 -2.50674 1.60654e-19)
(2.55597 -2.4311 -1.37154e-20)
(2.49567 -2.35727 1.02794e-19)
(2.43608 -2.28539 -1.7185e-19)
(2.37741 -2.2156 -1.24033e-20)
(2.31988 -2.148 1.10412e-19)
(2.26368 -2.0827 -6.82811e-20)
(2.20899 -2.01977 -4.7866e-20)
(2.15597 -1.95927 -8.20449e-20)
(2.10472 -1.90122 -7.13549e-20)
(2.05535 -1.84564 7.70675e-20)
(2.00794 -1.79254 -7.17242e-20)
(1.96253 -1.7419 1.58355e-20)
(1.91915 -1.69368 5.79388e-20)
(1.87777 -1.64786 3.9956e-20)
(1.8383 -1.60439 3.76266e-20)
(1.80071 -1.56301 2.74906e-20)
(1.76532 -1.52346 -7.46281e-20)
(1.7315 -1.48817 -3.22654e-20)
(4.9711 -0.0295216 1.35964e-21)
(4.96567 -0.160362 1.319e-20)
(4.95718 -0.290351 4.58962e-20)
(4.94559 -0.419771 2.50464e-20)
(4.9307 -0.548685 -5.35532e-20)
(4.91243 -0.67706 1.61627e-20)
(4.89079 -0.804833 -1.68272e-20)
(4.86579 -0.931927 -4.27739e-20)
(4.83746 -1.05826 1.10684e-19)
(4.80582 -1.18373 -2.64075e-20)
(4.7709 -1.30828 -2.62116e-20)
(4.73272 -1.4318 -5.63923e-20)
(4.69134 -1.55422 -1.62845e-19)
(4.64677 -1.67545 1.50166e-20)
(4.59907 -1.79541 -6.41628e-21)
(4.54827 -1.91403 -5.24146e-20)
(4.49441 -2.03122 1.10079e-19)
(4.43755 -2.14691 6.05528e-20)
(4.37771 -2.26102 1.14984e-19)
(4.31496 -2.37347 5.60729e-20)
(4.24933 -2.48421 -1.28055e-19)
(4.18089 -2.59315 5.27251e-21)
(4.10968 -2.70023 -2.43464e-19)
(4.03576 -2.80538 3.70203e-19)
(3.95918 -2.90855 -1.21161e-19)
(3.88 -3.00966 -1.59006e-19)
(3.79829 -3.10868 -2.32396e-20)
(3.71411 -3.20558 -2.53151e-21)