/*--------------------------------*- C++ -*----------------------------------*\
| =========                 |                                                 |
| \\      /  F ield         | OpenFOAM: The Open Source CFD Toolbox           |
|  \\    /   O peration     | Version:  v1912                                 |
|   \\  /    A nd           | Website:  www.openfoam.com                      |
|    \\/     M anipulation  |                                                 |
\*---------------------------------------------------------------------------*/
FoamFile
{
    version     2.0;
    format      ascii;
    class       volScalarField;
    location    "28";
    object      p;
}
// * * * * * * * * * * * * * * * * * * * * * * * * * * * * * * * * * * * * * //

dimensions      [0 2 -2 0 0 0 0];


internalField   nonuniform List<scalar> 
9600
(
-41.3688
-36.0983
-32.8658
-30.1231
-27.6137
-25.3445
-23.2868
-21.4127
-19.7044
-18.1482
-16.7311
-15.4412
-14.2669
-13.1975
-12.2225
-11.3328
-10.5198
-9.77548
-9.09232
-8.46818
-42.117
-36.8294
-33.5615
-30.7765
-28.2228
-25.9101
-23.8117
-21.9004
-20.1588
-18.5731
-17.1301
-15.8175
-14.6232
-13.5362
-12.5457
-11.6421
-10.8165
-10.0607
-9.36662
-8.7334
-42.867
-37.5566
-34.2519
-31.4245
-28.8261
-26.4698
-24.3307
-22.3824
-20.6077
-18.9927
-17.5241
-16.189
-14.9752
-13.8708
-12.865
-11.9476
-11.1097
-10.3424
-9.63745
-8.99534
-43.6155
-38.2795
-34.9366
-32.0662
-29.4227
-27.0227
-24.8429
-22.8577
-21.0502
-19.4063
-17.9124
-16.5552
-15.322
-14.2006
-13.1797
-12.2488
-11.3987
-10.6201
-9.9044
-9.25367
-44.3597
-38.9966
-35.6146
-32.7004
-30.0116
-27.5678
-25.3474
-23.3255
-21.4855
-19.8131
-18.2943
-16.9154
-15.6632
-14.5251
-13.4894
-12.5453
-11.6831
-10.8934
-10.1671
-9.50812
-45.0974
-39.7065
-36.2846
-33.3261
-30.5918
-28.1041
-25.8432
-23.7849
-21.9127
-20.2122
-18.669
-17.2689
-15.9981
-14.8437
-13.7935
-12.8365
-11.9626
-11.1619
-10.4253
-9.75842
-45.827
-40.4078
-36.9456
-33.9422
-31.1622
-28.6307
-26.3295
-24.2351
-22.3312
-20.603
-19.0358
-17.6149
-16.326
-15.1557
-14.0914
-13.1218
-12.2366
-11.4252
-10.6785
-10.0043
-46.5469
-41.099
-37.5961
-34.5477
-31.7217
-29.1464
-26.8052
-24.6752
-22.74
-20.9847
-19.394
-17.9528
-16.6462
-15.4605
-14.3826
-13.4008
-12.5046
-11.683
-10.9265
-10.2454
-47.2558
-41.7789
-38.2352
-35.1412
-32.2693
-29.6505
-27.2695
-25.1042
-23.1383
-21.3564
-19.7428
-18.2818
-16.9581
-15.7574
-14.6664
-13.6729
-12.7661
-11.9346
-11.1689
-10.4815
-47.9524
-42.4463
-38.8615
-35.7219
-32.804
-30.1418
-27.7215
-25.5215
-23.5253
-21.7174
-20.0814
-18.6012
-17.2609
-16.0458
-14.942
-13.9373
-13.0205
-12.1795
-11.405
-10.7121
-48.6357
-43.1001
-39.4741
-36.2887
-33.3249
-30.6196
-28.1603
-25.926
-23.9002
-22.0668
-20.4091
-18.9101
-17.5537
-16.3247
-15.2087
-14.1934
-13.2669
-12.4171
-11.6343
-10.9365
-49.3048
-43.7394
-40.0719
-36.8407
-33.8311
-31.0828
-28.585
-26.317
-24.2621
-22.4038
-20.7248
-19.2077
-17.8358
-16.5933
-15.4657
-14.4401
-13.5046
-12.6465
-11.856
-11.1541
-49.9588
-44.3633
-40.6542
-37.3769
-34.3216
-31.5308
-28.9949
-26.6936
-24.6101
-22.7275
-21.0278
-19.4931
-18.106
-16.8505
-15.7118
-14.6765
-13.7326
-12.8667
-12.0692
-11.3641
-50.5973
-44.9709
-41.22
-37.8966
-34.7957
-31.9627
-29.3892
-27.0552
-24.9437
-23.0372
-21.3173
-19.7653
-18.3635
-17.0953
-15.9457
-14.9012
-13.9495
-13.0765
-12.2728
-11.5658
-51.2197
-45.5615
-41.7685
-38.399
-35.2527
-32.3778
-29.7672
-27.401
-25.262
-23.3322
-21.5923
-20.0234
-18.6071
-17.3265
-16.1662
-15.1126
-14.1532
-13.2736
-12.4646
-11.7572
-51.8255
-46.1342
-42.2991
-38.8835
-35.692
-32.7757
-30.1284
-27.7306
-25.5646
-23.6118
-21.8523
-20.2666
-18.8359
-17.5429
-16.3719
-15.3092
-14.3421
-13.456
-12.6419
-11.9332
-52.4161
-46.6891
-42.811
-39.3494
-36.1129
-33.1556
-30.4723
-28.0434
-25.8509
-23.8754
-22.0966
-20.4943
-19.0491
-17.7436
-16.5619
-15.4901
-14.5157
-13.6235
-12.8035
-12.0904
-52.9957
-47.2272
-43.3036
-39.7955
-36.5145
-33.5168
-30.7983
-28.3391
-26.1206
-24.1229
-22.3248
-20.7056
-19.2455
-17.9269
-16.7337
-15.6527
-14.6713
-13.7735
-12.9486
-12.2399
-53.5665
-47.748
-43.7751
-40.2209
-36.8965
-33.8596
-31.1067
-28.618
-26.3742
-24.3546
-22.5373
-20.9007
-19.4248
-18.0912
-16.8842
-15.7905
-14.7972
-13.8887
-13.0625
-12.3858
-54.1066
-48.2439
-44.2247
-40.6261
-37.2601
-34.1854
-31.3993
-28.882
-26.6136
-24.5726
-22.7362
-21.0822
-19.5896
-18.2394
-17.0151
-15.902
-14.8854
-13.9515
-13.1146
-12.4439
-59.496
-59.4648
-59.3961
-59.3046
-59.1895
-59.0484
-58.8806
-58.6868
-58.4675
-58.2231
-57.9543
-57.6617
-57.3459
-57.0076
-56.6475
-56.2664
-55.8657
-55.4468
-55.0127
-54.5666
-53.1554
-53.1528
-53.1174
-53.0548
-52.9656
-52.8494
-52.7065
-52.5374
-52.3429
-52.1237
-51.8803
-51.6134
-51.3236
-51.0114
-50.6776
-50.3228
-49.9477
-49.5528
-49.1385
-48.7029
-48.5244
-48.546
-48.5385
-48.5025
-48.4393
-48.3499
-48.2347
-48.0945
-47.9297
-47.7412
-47.5293
-47.2947
-47.0379
-46.7595
-46.46
-46.1398
-45.7993
-45.4384
-45.0569
-44.6528
-44.309
-44.348
-44.3607
-44.3466
-44.3065
-44.2415
-44.1523
-44.0395
-43.9034
-43.7448
-43.5641
-43.3618
-43.1385
-42.8947
-42.6306
-42.3467
-42.0431
-41.7196
-41.3762
-41.0119
-40.4132
-40.462
-40.4871
-40.4878
-40.4645
-40.4179
-40.3488
-40.2577
-40.1451
-40.0114
-39.8571
-39.6828
-39.4889
-39.2759
-39.044
-38.7936
-38.5246
-38.2372
-37.931
-37.6056
-36.9158
-36.9687
-37.0002
-37.0094
-36.9965
-36.9622
-36.9072
-36.8317
-36.7364
-36.6218
-36.4882
-36.3362
-36.1662
-35.9787
-35.7739
-35.5521
-35.3135
-35.0578
-34.785
-34.4945
-33.8072
-33.86
-33.8933
-33.9062
-33.8988
-33.8717
-33.8255
-33.7605
-33.6773
-33.5763
-33.458
-33.323
-33.1715
-33.0042
-32.8213
-32.623
-32.4096
-32.1809
-31.9367
-31.6765
-31.0503
-31.1004
-31.1324
-31.1456
-31.1401
-31.1165
-31.0752
-31.0166
-30.9414
-30.8498
-30.7424
-30.6197
-30.4823
-30.3305
-30.1647
-29.9854
-29.7925
-29.5862
-29.3661
-29.1317
-28.6055
-28.6512
-28.68
-28.6915
-28.6856
-28.663
-28.624
-28.5691
-28.4987
-28.4134
-28.3136
-28.1998
-28.0727
-27.9327
-27.7803
-27.616
-27.4399
-27.2521
-27.0522
-26.8398
-26.4331
-26.4736
-26.4984
-26.507
-26.4996
-26.4764
-26.4381
-26.385
-26.3175
-26.2362
-26.1416
-26.0342
-25.9148
-25.7837
-25.6418
-25.4894
-25.327
-25.1545
-24.9719
-24.7784
-24.496
-24.5313
-24.5518
-24.5571
-24.5474
-24.523
-24.4844
-24.4319
-24.3661
-24.2874
-24.1963
-24.0936
-23.9798
-23.8557
-23.7219
-23.5791
-23.4279
-23.2685
-23.1007
-22.9239
-22.7614
-22.7918
-22.808
-22.81
-22.7978
-22.7718
-22.7324
-22.68
-22.6151
-22.5381
-22.4496
-22.3502
-22.2408
-22.122
-21.9946
-21.8597
-21.7178
-21.5696
-21.415
-21.2532
-21.2012
-21.227
-21.2394
-21.2382
-21.2236
-21.1959
-21.1556
-21.103
-21.0385
-20.9627
-20.876
-20.7792
-20.6731
-20.5584
-20.4362
-20.3076
-20.1736
-20.0351
-19.8923
-19.7445
-19.7917
-19.8133
-19.8222
-19.8181
-19.8013
-19.7722
-19.7309
-19.678
-19.6138
-19.5388
-19.4536
-19.3587
-19.2551
-19.1437
-19.0255
-18.902
-18.7746
-18.6444
-18.5127
-18.3783
-18.513
-18.5309
-18.5366
-18.53
-18.5113
-18.4808
-18.4388
-18.3856
-18.3216
-18.2473
-18.1632
-18.0699
-17.9683
-17.8593
-17.7442
-17.6246
-17.5025
-17.3795
-17.258
-17.1368
-17.3486
-17.3633
-17.3662
-17.3573
-17.3369
-17.3052
-17.2625
-17.2091
-17.1453
-17.0716
-16.9884
-16.8964
-16.7963
-16.6892
-16.5763
-16.4594
-16.3412
-16.2238
-16.1117
-16.0036
-16.2848
-16.2965
-16.297
-16.2862
-16.2643
-16.2315
-16.1882
-16.1346
-16.071
-15.9977
-15.9153
-15.8242
-15.7252
-15.6191
-15.5074
-15.392
-15.276
-15.1622
-15.0581
-14.9615
-15.3096
-15.319
-15.3175
-15.3052
-15.2822
-15.2488
-15.2052
-15.1515
-15.0882
-15.0155
-14.9337
-14.8434
-14.7451
-14.6397
-14.5283
-14.4129
-14.2971
-14.1848
-14.0875
-13.9998
-14.412
-14.4199
-14.4175
-14.4047
-14.3817
-14.3486
-14.3057
-14.2531
-14.1911
-14.12
-14.04
-13.9515
-13.8551
-13.7512
-13.6409
-13.5257
-13.4093
-13.2966
-13.206
-13.1322
-13.5866
-13.5913
-13.5864
-13.5718
-13.5477
-13.5142
-13.4715
-13.4198
-13.3592
-13.29
-13.2124
-13.1267
-13.033
-12.9319
-12.8238
-12.7097
-12.5914
-12.4741
-12.3772
-12.3273
-53.2732
-53.8418
-54.3736
-54.8908
-55.3903
-55.8662
-56.3158
-56.7378
-57.1314
-57.4958
-57.8301
-58.134
-58.4072
-58.6492
-58.8594
-59.038
-59.1856
-59.3036
-59.3939
-59.4584
-46.8003
-47.3744
-47.9207
-48.4449
-48.9467
-49.4235
-49.874
-50.2974
-50.6931
-51.0605
-51.3989
-51.7083
-51.9886
-52.2406
-52.4624
-52.6534
-52.814
-52.9446
-53.0458
-53.1163
-42.1696
-42.7316
-43.2702
-43.7857
-44.278
-44.7465
-45.1903
-45.6088
-46.0013
-46.3672
-46.7055
-47.016
-47.2984
-47.5515
-47.7763
-47.9732
-48.142
-48.2822
-48.3936
-48.4748
-38.0595
-38.5966
-39.1142
-39.6105
-40.0849
-40.537
-40.9664
-41.3724
-41.7542
-42.1114
-42.4426
-42.7474
-43.0267
-43.2799
-43.5072
-43.7083
-43.883
-44.0307
-44.1512
-44.244
-34.3948
-34.9022
-35.3927
-35.8639
-36.3147
-36.7447
-37.1535
-37.5403
-37.9045
-38.2455
-38.5639
-38.8592
-39.1302
-39.3768
-39.5992
-39.7973
-39.9706
-40.119
-40.2424
-40.3406
-31.2078
-31.6841
-32.1453
-32.5887
-33.0132
-33.4184
-33.8037
-34.1686
-34.5126
-34.8355
-35.137
-35.4166
-35.6736
-35.9082
-36.1208
-36.311
-36.4781
-36.6222
-36.7432
-36.8413
-28.4461
-28.892
-29.3239
-29.7394
-30.1372
-30.5169
-30.8779
-31.2199
-31.5424
-31.845
-32.1275
-32.3895
-32.6308
-32.8512
-33.0502
-33.2298
-33.3882
-33.5249
-33.6403
-33.7345
-26.0433
-26.4607
-26.8649
-27.2537
-27.6259
-27.9809
-28.3183
-28.6376
-28.9385
-29.2207
-29.484
-29.7282
-29.9531
-30.1587
-30.3449
-30.5102
-30.6581
-30.786
-30.8938
-30.982
-23.941
-24.3324
-24.7112
-25.0753
-25.4237
-25.7556
-26.0707
-26.3686
-26.6489
-26.9116
-27.1564
-27.3832
-27.592
-27.7826
-27.955
-28.1093
-28.2442
-28.3621
-28.4617
-28.5429
-22.0893
-22.4572
-22.8131
-23.1549
-23.4815
-23.7923
-24.0868
-24.3648
-24.6261
-24.8705
-25.098
-25.3085
-25.5019
-25.6783
-25.8375
-25.9795
-26.1041
-26.2117
-26.3027
-26.3766
-20.4467
-20.7937
-21.1292
-21.4511
-21.7581
-22.0496
-22.3253
-22.5851
-22.8289
-23.0565
-23.268
-23.4634
-23.6427
-23.8058
-23.9527
-24.0834
-24.1979
-24.2962
-24.3789
-24.4456
-18.9798
-19.3083
-19.6257
-19.9299
-20.2192
-20.4932
-20.7519
-20.9951
-21.2228
-21.4351
-21.6321
-21.8137
-21.98
-22.131
-22.2667
-22.3871
-22.4923
-22.5823
-22.6568
-22.7169
-17.6616
-17.9737
-18.2756
-18.564
-18.8374
-19.0955
-19.3386
-19.5666
-19.7797
-19.978
-20.1616
-20.3307
-20.4852
-20.6253
-20.7508
-20.8619
-20.9584
-21.0405
-21.1078
-21.162
-16.4705
-16.7684
-17.0569
-17.3314
-17.5903
-17.8339
-18.0626
-18.2766
-18.4763
-18.6617
-18.8332
-18.9908
-19.1347
-19.2648
-19.3811
-19.4837
-19.5726
-19.6479
-19.7098
-19.7573
-15.3894
-15.6752
-15.9524
-16.2144
-16.46
-16.6901
-16.9055
-17.1065
-17.2936
-17.4673
-17.6276
-17.7748
-17.909
-18.0301
-18.1381
-18.2331
-18.3151
-18.3841
-18.44
-18.4828
-14.4036
-14.681
-14.9492
-15.1994
-15.4323
-15.6497
-15.8525
-16.0412
-16.2167
-16.3793
-16.5294
-16.6671
-16.7923
-16.9052
-17.0058
-17.0939
-17.1696
-17.2329
-17.2837
-17.3223
-13.4954
-13.7719
-14.035
-14.274
-14.4944
-14.6996
-14.8903
-15.0674
-15.232
-15.3845
-15.5251
-15.6541
-15.7713
-15.8768
-15.9706
-16.0525
-16.1226
-16.1809
-16.2273
-16.2619
-12.6443
-12.925
-13.1895
-13.4194
-13.628
-13.8216
-14.0013
-14.1681
-14.3231
-14.4667
-14.5993
-14.7208
-14.8313
-14.9306
-15.0187
-15.0956
-15.1611
-15.2152
-15.2581
-15.2896
-11.8631
-12.1348
-12.4003
-12.6254
-12.824
-13.0065
-13.1759
-13.3334
-13.4797
-13.6155
-13.741
-13.8562
-13.9609
-14.0551
-14.1385
-14.2113
-14.2732
-14.3242
-14.3643
-14.3936
-11.2769
-11.5265
-11.7532
-11.9684
-12.1555
-12.3205
-12.4736
-12.6169
-12.7502
-12.8736
-12.9877
-13.0923
-13.1872
-13.2723
-13.3475
-13.4126
-13.4676
-13.5125
-13.5471
-13.5714
-5.92298
-6.41152
-6.94726
-7.52722
-8.15789
-8.84668
-9.60132
-10.4313
-11.3489
-12.3697
-13.5142
-14.8092
-16.2901
-18.0028
-20.0073
-22.3824
-25.2089
-28.5085
-32.5003
-38.4914
-6.19108
-6.69291
-7.23895
-7.83073
-8.47491
-9.1786
-9.94965
-10.7978
-11.7356
-12.7789
-13.9485
-15.2718
-16.7843
-18.5325
-20.5765
-22.9952
-25.868
-29.2139
-33.2436
-39.2553
-6.46063
-6.97577
-7.53222
-8.13607
-8.79401
-9.51286
-10.3006
-11.1672
-12.1254
-13.1916
-14.3867
-15.7385
-17.283
-19.067
-21.1509
-23.613
-26.5318
-29.9227
-33.9887
-40.0165
-6.73117
-7.25955
-7.8265
-8.44263
-9.11455
-9.84875
-10.6533
-11.5386
-12.5176
-13.6067
-14.8276
-16.2081
-17.7849
-19.6048
-21.7287
-24.2343
-27.1988
-30.6346
-34.7379
-40.7866
-7.00224
-7.54379
-8.12132
-8.74993
-9.43603
-10.1858
-11.0074
-11.9115
-12.9114
-14.0238
-15.2705
-16.68
-18.2891
-20.1452
-22.309
-24.858
-27.8682
-31.349
-35.4902
-41.5629
-7.27348
-7.82808
-8.41626
-9.05755
-9.75803
-10.5235
-11.3623
-12.2855
-13.3063
-14.4421
-15.7149
-17.1534
-18.795
-20.6873
-22.8911
-25.4837
-28.5394
-32.0648
-36.2437
-42.3415
-7.54458
-8.11207
-8.71095
-9.3651
-10.0801
-10.8614
-11.7176
-12.6598
-13.7019
-14.8611
-16.1601
-17.6278
-19.3019
-21.2305
-23.4744
-26.1103
-29.2113
-32.7811
-36.9969
-43.12
-7.81528
-8.39546
-9.00506
-9.67224
-10.4019
-11.1992
-12.0728
-13.0342
-14.0975
-15.2803
-16.6054
-18.1024
-19.8091
-21.774
-24.0578
-26.7369
-29.883
-33.4966
-37.7487
-43.8968
-8.08544
-8.67806
-9.29835
-9.9787
-10.7232
-11.5364
-12.4275
-13.4082
-14.4927
-15.699
-17.0504
-18.5765
-20.3159
-22.3169
-24.6406
-27.3626
-30.5533
-34.2102
-38.4977
-44.6707
-8.35502
-8.95976
-9.59066
-10.2843
-11.0436
-11.8728
-12.7814
-13.7812
-14.8869
-16.1168
-17.4942
-19.0495
-20.8213
-22.8584
-25.2217
-27.9864
-31.2213
-34.9209
-39.2427
-45.4401
-8.62412
-9.24058
-9.88195
-10.5888
-11.363
-12.2081
-13.134
-14.1529
-15.2797
-16.5329
-17.9364
-19.5207
-21.3248
-23.3977
-25.8003
-28.6072
-31.8857
-35.6272
-39.9824
-46.2034
-8.89303
-9.5207
-10.1723
-10.8923
-11.6811
-12.5421
-13.4851
-14.5229
-15.6705
-16.9469
-18.3762
-19.9892
-21.8254
-23.9339
-26.3754
-29.224
-32.5454
-36.3282
-40.7154
-46.9594
-9.16222
-9.80039
-10.4617
-11.1947
-11.9979
-12.8743
-13.8342
-14.8906
-16.0588
-17.3581
-18.8129
-20.4544
-22.3223
-24.466
-26.946
-29.8357
-33.1993
-37.0224
-41.4406
-47.7067
-9.43242
-10.0801
-10.7504
-11.4959
-12.313
-13.2045
-14.1809
-15.2555
-16.444
-17.7658
-19.2457
-20.9154
-22.8146
-24.993
-27.511
-30.4412
-33.8462
-37.7087
-42.1565
-48.444
-9.70436
-10.36
-11.0383
-11.7956
-12.6262
-13.5322
-14.5246
-15.617
-16.8253
-18.1692
-19.6739
-21.3712
-23.3013
-25.514
-28.0693
-31.0393
-34.4848
-38.3859
-42.8619
-49.1701
-9.97897
-10.6405
-11.3252
-12.0934
-12.9367
-13.8566
-14.8645
-15.9743
-17.2019
-18.5675
-20.0965
-21.821
-23.7815
-26.0278
-28.6198
-31.6287
-35.1139
-39.0526
-43.5559
-49.8841
-10.256
-10.9203
-11.6097
-12.3878
-13.2433
-14.1768
-15.1997
-16.3263
-17.5729
-18.9597
-20.5125
-22.2637
-24.254
-26.5332
-29.1612
-32.2081
-35.732
-39.7076
-44.2373
-50.5853
-10.5346
-11.1968
-11.889
-12.6771
-13.5448
-14.4914
-15.5291
-16.6721
-17.9372
-19.3448
-20.9209
-22.6983
-24.7177
-27.0292
-29.6923
-32.7761
-36.3376
-40.3491
-44.9049
-51.2738
-10.8075
-11.4618
-12.1572
-12.9577
-13.8388
-14.7989
-15.8512
-17.0105
-18.2938
-19.7218
-21.3206
-23.1235
-25.1714
-27.5143
-30.2115
-33.3313
-36.929
-40.9753
-45.5577
-51.951
-11.0557
-11.6952
-12.4098
-13.2308
-14.1261
-15.099
-16.1655
-17.3408
-18.6418
-20.0896
-21.7106
-23.5383
-25.6139
-27.9874
-30.7175
-33.8717
-37.5039
-41.5832
-46.1909
-52.6186
-1.5525
-1.80751
-2.15673
-2.54737
-2.96816
-3.42453
-3.92286
-4.46913
-5.0709
-5.7385
-6.48591
-7.33218
-8.30341
-9.43557
-10.7793
-12.4087
-14.4127
-16.8519
-20.0328
-25.4312
-1.70407
-1.97531
-2.34265
-2.73897
-3.16298
-3.6245
-4.12953
-4.68368
-5.29464
-5.97299
-6.733
-7.59402
-8.5826
-9.73521
-11.1031
-12.7607
-14.7972
-17.2713
-20.484
-25.8959
-1.84954
-2.1447
-2.52499
-2.92927
-3.36085
-3.83057
-4.34434
-4.90795
-5.52948
-6.21983
-6.99359
-7.87051
-8.8776
-10.0518
-11.445
-13.1319
-15.2016
-17.7106
-20.9543
-26.3743
-2.017
-2.32287
-2.71122
-3.12407
-3.56468
-4.04376
-4.56737
-5.14158
-5.77478
-6.47821
-7.26678
-8.16066
-9.18729
-10.3842
-11.8037
-13.5209
-15.6246
-18.1699
-21.4478
-26.8852
-2.19565
-2.5085
-2.90455
-3.3262
-3.77613
-4.26501
-4.7991
-5.3847
-6.03047
-6.74789
-7.55222
-8.46401
-9.51119
-10.7318
-12.1787
-13.9273
-16.0663
-18.6492
-21.9641
-27.4251
-2.37972
-2.70106
-3.10529
-3.5359
-3.99543
-4.49456
-5.03972
-5.6374
-6.29648
-7.02871
-7.84967
-8.78031
-9.84901
-11.0944
-12.5697
-14.3509
-16.5263
-19.1482
-22.5013
-27.989
-2.57074
-2.90144
-3.31376
-3.75334
-4.22274
-4.73254
-5.28929
-5.89965
-6.57271
-7.3205
-8.15891
-9.10927
-10.2004
-11.4715
-12.9764
-14.7913
-17.0044
-19.6662
-23.0584
-28.5744
-2.77012
-3.11014
-3.53034
-3.97886
-4.45832
-4.97912
-5.54787
-6.17142
-6.85906
-7.62307
-8.47967
-9.45058
-10.5651
-11.8629
-13.3984
-15.2481
-17.4999
-20.2027
-23.6346
-29.1802
-2.97763
-3.32702
-3.75505
-4.21257
-4.70225
-5.2343
-5.81542
-6.45261
-7.15536
-7.93621
-8.81169
-9.80391
-10.9427
-12.2681
-13.8351
-15.7206
-18.0122
-20.757
-24.2295
-29.8055
-3.19269
-3.55176
-3.98772
-4.45432
-4.9544
-5.49797
-6.09178
-6.74302
-7.46138
-8.25965
-9.15466
-10.1689
-11.3327
-12.6866
-14.2861
-16.2084
-18.5407
-21.3285
-24.842
-30.4491
-3.41488
-3.78401
-4.22804
-4.70385
-5.21452
-5.76987
-6.37671
-7.04241
-7.77684
-8.59306
-9.50821
-10.5452
-11.7347
-13.1179
-14.7508
-16.7108
-19.0848
-21.9163
-25.4715
-31.11
-3.64382
-4.02339
-4.47563
-4.96081
-5.48229
-6.04969
-6.66989
-7.35042
-8.10139
-8.93607
-9.87195
-10.9323
-12.1483
-13.5616
-15.2287
-17.2273
-19.6437
-22.5197
-26.117
-31.7872
-3.87905
-4.26942
-4.73006
-5.2248
-5.75733
-6.33705
-6.97093
-7.66668
-8.4346
-9.28825
-10.2454
-11.3298
-12.5729
-14.0171
-15.7192
-17.7571
-20.2168
-23.1379
-26.7777
-32.4797
-4.12005
-4.5216
-4.99084
-5.49535
-6.03917
-6.63151
-7.27938
-7.99072
-8.77603
-9.64911
-10.6281
-11.737
-13.008
-14.4838
-16.2216
-18.2997
-20.8034
-23.7702
-27.4527
-33.1866
-4.36627
-4.77936
-5.25743
-5.77194
-6.32733
-6.93257
-7.59477
-8.32204
-9.12514
-10.0181
-11.0194
-12.1535
-13.453
-14.961
-16.7352
-18.8541
-21.4025
-24.4156
-28.1412
-33.9072
-4.61718
-5.04215
-5.52927
-6.05403
-6.62126
-7.2397
-7.91654
-8.66012
-9.48141
-10.3947
-11.4189
-12.5786
-13.9071
-15.448
-17.2594
-19.4198
-22.0134
-25.0734
-28.8425
-34.6405
-4.87222
-5.30939
-5.80579
-6.34106
-6.92041
-7.55235
-8.24416
-9.00439
-9.84424
-10.7783
-11.8257
-13.0117
-14.3698
-15.9441
-17.7932
-19.9957
-22.6352
-25.7426
-29.5556
-35.3861
-5.13085
-5.58051
-6.08643
-6.63247
-7.22423
-7.86996
-8.57704
-9.35426
-10.213
-11.1683
-12.2394
-13.4521
-14.8402
-16.4485
-18.3359
-20.5811
-23.2669
-26.4221
-30.2797
-36.1436
-5.39253
-5.85493
-6.37058
-6.92767
-7.53213
-8.19194
-8.9146
-9.70912
-10.5872
-11.5639
-12.6592
-13.899
-15.3177
-16.9604
-18.8865
-21.1748
-23.9074
-27.1108
-31.0138
-36.9136
-5.65674
-6.13212
-6.65773
-7.22613
-7.84357
-8.51775
-9.25627
-10.0684
-10.9661
-11.9647
-13.0844
-14.3517
-15.8014
-17.479
-19.4442
-21.7759
-24.5555
-27.8069
-31.7552
-37.697
-1.30657
-1.10229
-0.950651
-0.815979
-0.697873
-0.593788
-0.502611
-0.423554
-0.356115
-0.299938
-0.254756
-0.220358
-0.196567
-0.183236
-0.18022
-0.187314
-0.204352
-0.231557
-0.268781
-0.316052
-1.63734
-1.4562
-1.30061
-1.16078
-1.03792
-0.92945
-0.834384
-0.751925
-0.68156
-0.622911
-0.575698
-0.539696
-0.514718
-0.500607
-0.497215
-0.504374
-0.521947
-0.549961
-0.588346
-0.637068
-1.97149
-1.79822
-1.64268
-1.50176
-1.37682
-1.26621
-1.16924
-1.08521
-1.01365
-0.954203
-0.906589
-0.870583
-0.845999
-0.832674
-0.830458
-0.839202
-0.858794
-0.889197
-0.930327
-0.982131
-2.35715
-2.18231
-2.02382
-1.88001
-1.75155
-1.63751
-1.53738
-1.45062
-1.37681
-1.31561
-1.26674
-1.22999
-1.20515
-1.19205
-1.19055
-1.20049
-1.22176
-1.25429
-1.29796
-1.35272
-2.77823
-2.60105
-2.43872
-2.29105
-2.15847
-2.04046
-1.93667
-1.84668
-1.77015
-1.70676
-1.65625
-1.61839
-1.593
-1.5799
-1.57891
-1.58991
-1.61276
-1.64735
-1.69357
-1.75136
-3.23242
-3.05216
-2.88579
-2.73391
-2.59698
-2.47479
-2.36715
-2.27376
-2.19432
-2.12856
-2.07626
-2.03718
-2.01115
-1.99797
-1.9975
-2.00957
-2.03406
-2.07082
-2.11973
-2.18072
-3.72598
-3.54116
-3.37001
-3.21334
-3.07163
-2.9449
-2.83307
-2.73593
-2.65329
-2.5849
-2.53055
-2.49005
-2.4632
-2.44983
-2.44977
-2.46288
-2.489
-2.52799
-2.5797
-2.64409
-4.26576
-4.0749
-3.89792
-3.73559
-3.58842
-3.45654
-3.33998
-3.23862
-3.1523
-3.08086
-3.02409
-2.98182
-2.95387
-2.94007
-2.94025
-2.95426
-2.98194
-3.02314
-3.07769
-3.14555
-4.85952
-4.66119
-4.47716
-4.30812
-4.15458
-4.01676
-3.89474
-3.78848
-3.6979
-3.62283
-3.56314
-3.51865
-3.4892
-3.47461
-3.47474
-3.48942
-3.51849
-3.56178
-3.61912
-3.6905
-5.51746
-5.31011
-5.11762
-4.9406
-4.77957
-4.63478
-4.50638
-4.39437
-4.2987
-4.21928
-4.15598
-4.10865
-4.07714
-4.06129
-4.06093
-4.07591
-4.10608
-4.15123
-4.21121
-4.28603
-6.25336
-6.0352
-5.83259
-5.64607
-5.47614
-5.32309
-5.18709
-5.06821
-4.96642
-4.88168
-4.81387
-4.76287
-4.72853
-4.71071
-4.70926
-4.724
-4.75478
-4.80141
-4.8637
-4.94171
-7.08597
-6.8549
-6.64017
-6.44227
-6.26168
-6.09873
-5.9536
-5.8264
-5.71714
-5.6258
-5.55228
-5.49649
-5.4583
-5.43756
-5.43412
-5.44783
-5.47852
-5.52597
-5.59002
-5.67075
-8.041
-7.7945
-7.56523
-7.35364
-7.16022
-6.98528
-6.82906
-6.69168
-6.57319
-6.47357
-6.39278
-6.33071
-6.28726
-6.26229
-6.25566
-6.2672
-6.29675
-6.34407
-6.409
-6.49166
-9.15391
-8.88893
-8.64217
-8.41403
-8.20504
-8.01552
-7.84572
-7.69579
-7.56579
-7.45575
-7.36561
-7.29531
-7.24474
-7.21377
-7.20227
-7.21008
-7.23701
-7.28282
-7.34732
-7.43071
-10.4748
-10.1877
-9.91981
-9.67164
-9.44371
-9.23637
-9.04989
-8.88442
-8.74005
-8.61681
-8.51467
-8.43358
-8.37344
-8.33413
-8.31552
-8.31745
-8.33973
-8.38208
-8.44429
-8.52662
-12.0769
-11.7633
-11.4701
-11.1977
-10.9469
-10.7178
-10.5109
-10.3262
-10.1639
-10.0241
-9.90664
-9.81154
-9.7387
-9.68803
-9.65937
-9.6526
-9.66749
-9.70376
-9.76116
-9.83997
-14.049
-13.7042
-13.381
-13.08
-12.8018
-12.5468
-12.3153
-12.1075
-11.9234
-11.7632
-11.6267
-11.514
-11.425
-11.3595
-11.3175
-11.2988
-11.3033
-11.3306
-11.3804
-11.4529
-16.4519
-16.0719
-15.7146
-15.381
-15.0718
-14.7873
-14.5278
-14.2934
-14.0843
-13.9004
-13.7417
-13.6082
-13.4999
-13.4167
-13.3585
-13.3252
-13.3166
-13.3326
-13.3727
-13.4362
-19.5946
-19.1753
-18.7796
-18.4099
-18.0666
-17.7498
-17.4594
-17.1954
-16.9579
-16.7467
-16.562
-16.4037
-16.2717
-16.1661
-16.0867
-16.0333
-16.0059
-16.0048
-16.0297
-16.0787
-24.9354
-24.4715
-24.0417
-23.6429
-23.2731
-22.9312
-22.6169
-22.33
-22.0704
-21.8383
-21.6335
-21.4562
-21.3064
-21.1842
-21.0897
-21.023
-20.9848
-20.9773
-21.0019
-21.0483
-0.373179
-0.439854
-0.516034
-0.601633
-0.696561
-0.800703
-0.913925
-1.03606
-1.16689
-1.30613
-1.45342
-1.60824
-1.76978
-1.93685
-2.10778
-2.28032
-2.45
-2.60704
-2.73605
-2.86302
-0.696051
-0.764966
-0.84374
-0.932257
-1.03041
-1.13805
-1.25505
-1.38119
-1.51624
-1.65989
-1.81174
-1.97122
-2.13757
-2.30963
-2.48579
-2.66441
-2.84372
-3.01599
-3.16595
-3.33506
-1.04455
-1.11727
-1.20021
-1.29323
-1.39622
-1.50901
-1.63144
-1.76329
-1.90429
-2.05412
-2.21234
-2.3784
-2.55156
-2.73077
-2.91471
-3.10217
-3.29219
-3.48038
-3.66095
-3.86364
-1.41853
-1.49506
-1.58222
-1.67985
-1.78782
-1.90596
-2.03406
-2.1719
-2.3192
-2.47559
-2.64065
-2.81382
-2.99439
-3.18147
-3.37397
-3.57103
-3.77185
-3.97411
-4.17823
-4.40451
-1.82067
-1.90116
-1.99274
-2.09522
-2.20847
-2.33228
-2.46645
-2.61072
-2.7648
-2.92833
-3.10086
-3.28186
-3.47069
-3.66656
-3.86866
-4.07638
-4.2891
-4.50578
-4.729
-4.97191
-2.25381
-2.33855
-2.43488
-2.5426
-2.66155
-2.79152
-2.9323
-3.0836
-3.24514
-3.41654
-3.59737
-3.78713
-3.98524
-4.19105
-4.40394
-4.62349
-4.8493
-5.08116
-5.32178
-5.57903
-2.72115
-2.81041
-2.91181
-3.02515
-3.15024
-3.28688
-3.43482
-3.5938
-3.7635
-3.94357
-4.13359
-4.3331
-4.54158
-4.75849
-4.98335
-5.21587
-5.45585
-5.70348
-5.96097
-6.23276
-3.22674
-3.32077
-3.42752
-3.54682
-3.67847
-3.82226
-3.97793
-4.14523
-4.32383
-4.51338
-4.7135
-4.92376
-5.1437
-5.37287
-5.61089
-5.85754
-6.11273
-6.37678
-6.65126
-6.93865
-3.77593
-3.87488
-3.98721
-4.11276
-4.25134
-4.40273
-4.56668
-4.74291
-4.93112
-5.13097
-5.34209
-5.56409
-5.79657
-6.03914
-6.29148
-6.55341
-6.82487
-7.10616
-7.39828
-7.70261
-4.37569
-4.47953
-4.59766
-4.72968
-4.87549
-5.03487
-5.20756
-5.39329
-5.59176
-5.80265
-6.02562
-6.2603
-6.50634
-6.76338
-7.03116
-7.30949
-7.59832
-7.89782
-8.20855
-8.53131
-5.03546
-5.14418
-5.26794
-5.40658
-5.55978
-5.72739
-5.90917
-6.10484
-6.31411
-6.53668
-6.77223
-7.02043
-7.28093
-7.55343
-7.83768
-8.13348
-8.44074
-8.75948
-9.08997
-9.43268
-5.7682
-5.88151
-6.01075
-6.15574
-6.31633
-6.49222
-6.68324
-6.88912
-7.10955
-7.34425
-7.59294
-7.8553
-8.13102
-8.4198
-8.72138
-9.03558
-9.36225
-9.70125
-10.0526
-10.4168
-6.59213
-6.70938
-6.8436
-6.99451
-7.16203
-7.34613
-7.54638
-7.76232
-7.99393
-8.24093
-8.50304
-8.77995
-9.07135
-9.37697
-9.69654
-10.0299
-10.3767
-10.7368
-11.1101
-11.4969
-7.53308
-7.65323
-7.79149
-7.94756
-8.12124
-8.31259
-8.52229
-8.7474
-8.9898
-9.24881
-9.52417
-9.81559
-10.1228
-10.4454
-10.7833
-11.1361
-11.5036
-11.8855
-12.2814
-12.6917
-8.62921
-8.75058
-8.89127
-9.05107
-9.22981
-9.42699
-9.64204
-9.87756
-10.1305
-10.4006
-10.6885
-10.9939
-11.3165
-11.656
-12.012
-12.3842
-12.7723
-13.1759
-13.5947
-14.0289
-9.94029
-10.0604
-10.2011
-10.3623
-10.544
-10.7457
-10.9668
-11.2076
-11.4682
-11.7491
-12.0486
-12.3673
-12.7045
-13.0597
-13.4325
-13.823
-14.2309
-14.6557
-15.0968
-15.5544
-11.5476
-11.6632
-11.8012
-11.9613
-12.1431
-12.3465
-12.5712
-12.8169
-13.0837
-13.3715
-13.6813
-14.0115
-14.3605
-14.7277
-15.1142
-15.5205
-15.9463
-16.3906
-16.8524
-17.3317
-13.5212
-13.6294
-13.7615
-13.917
-14.0946
-14.2951
-14.5183
-14.7643
-15.0326
-15.3227
-15.6341
-15.967
-16.323
-16.7027
-17.1042
-17.5263
-17.9686
-18.4307
-18.9116
-19.4106
-16.1496
-16.2419
-16.3579
-16.4991
-16.667
-16.8604
-17.0786
-17.3213
-17.588
-17.8785
-18.192
-18.5284
-18.8879
-19.271
-19.6775
-20.1068
-20.5588
-21.0341
-21.5327
-22.0495
-21.091
-21.1639
-21.2673
-21.399
-21.5578
-21.7431
-21.9543
-22.1908
-22.4525
-22.739
-23.05
-23.3856
-23.7458
-24.131
-24.5412
-24.9764
-25.4378
-25.9291
-26.453
-26.9916
-27.5008
-22.5766
-19.9268
-17.8286
-16.0286
-14.4785
-13.1163
-11.8971
-10.7935
-9.78755
-8.86603
-8.01912
-7.2391
-6.51961
-5.85537
-5.24175
-4.67336
-4.14455
-3.66372
-3.25953
-28.0373
-23.1195
-20.4584
-18.3402
-16.5167
-14.9413
-13.5533
-12.3089
-11.1814
-10.1531
-9.21105
-8.34572
-7.54947
-6.81609
-6.14046
-5.51803
-4.94397
-4.41582
-3.94663
-3.54446
-28.6022
-23.6809
-21.0068
-18.8675
-17.0192
-15.4173
-14.0026
-12.7321
-11.5798
-10.5285
-9.56546
-8.68122
-7.86825
-7.12036
-6.43239
-5.79972
-5.21762
-4.68373
-4.20756
-3.78609
-29.191
-24.2615
-21.5721
-19.4102
-17.5356
-15.9059
-14.4633
-13.1658
-11.988
-10.9129
-9.92817
-9.02431
-8.19378
-7.43029
-6.72847
-6.08342
-5.49017
-4.94571
-4.45671
-4.0167
-29.8007
-24.8606
-22.1536
-19.9679
-18.0653
-16.4065
-14.935
-13.6094
-12.4052
-11.3055
-10.2983
-9.37414
-8.52527
-7.74528
-7.02856
-6.3699
-5.76402
-5.20737
-4.70476
-4.24879
-30.4298
-25.4784
-22.7498
-20.5395
-18.6076
-16.9183
-15.4167
-14.0622
-12.8306
-11.7057
-10.6753
-9.73005
-8.86216
-8.06498
-7.33263
-6.65964
-6.04053
-5.47134
-4.95564
-4.48577
-31.0771
-26.1141
-23.3598
-21.124
-19.1617
-17.4406
-15.9077
-14.5233
-13.2635
-12.1126
-11.0584
-10.0916
-9.20416
-8.38932
-7.64095
-6.95336
-6.32089
-5.73938
-5.21128
-4.72891
-31.7415
-26.7654
-23.9836
-21.7206
-19.7267
-17.9726
-16.4074
-14.9921
-13.7034
-12.5257
-11.4472
-10.4583
-9.55097
-8.71817
-7.95358
-7.25131
-6.60557
-6.01202
-5.47211
-4.97815
-32.4215
-27.4309
-24.6204
-22.3285
-20.3016
-18.5134
-16.9149
-15.4678
-14.1494
-12.9445
-11.8412
-10.8298
-9.90226
-9.05133
-8.27045
-7.55351
-6.89464
-6.28928
-5.73796
-5.233
-33.1159
-28.1094
-25.2692
-22.9469
-20.8856
-19.0622
-17.4293
-15.9496
-14.601
-13.3682
-12.2397
-11.2056
-10.2576
-9.38847
-8.59126
-7.85972
-7.18781
-6.57081
-6.00834
-5.49275
-33.8237
-28.7999
-25.9291
-23.5747
-21.4779
-19.6181
-17.9499
-16.4369
-15.0573
-13.7963
-12.6421
-11.5851
-10.6166
-9.72915
-8.91561
-8.1695
-7.48465
-6.8561
-6.28261
-5.75663
-34.5436
-29.5012
-26.5988
-24.211
-22.0773
-20.1802
-18.4758
-16.9287
-15.5177
-14.228
-13.048
-11.9678
-10.9787
-10.0729
-9.24299
-8.48235
-7.78459
-7.14452
-6.56009
-6.02385
-35.2745
-30.2123
-27.2773
-24.8546
-22.6829
-20.7474
-19.0061
-17.4243
-15.9813
-14.6625
-13.4564
-12.353
-11.3432
-10.419
-9.57281
-8.79766
-8.08702
-7.43543
-6.84007
-6.29366
-36.0155
-30.932
-27.9633
-25.5045
-23.2936
-21.3188
-19.5397
-17.9227
-16.4473
-15.0992
-13.8669
-12.74
-11.7095
-10.7669
-9.90444
-9.11481
-8.39128
-7.72815
-7.12185
-6.56536
-36.7654
-31.6591
-28.6557
-26.1595
-23.9083
-21.8933
-20.0759
-18.423
-16.9149
-15.5373
-14.2785
-13.1282
-12.077
-11.116
-10.2373
-9.43314
-8.69674
-8.02204
-7.40477
-6.83825
-37.5229
-32.3922
-29.3532
-26.8183
-24.5259
-22.4699
-20.6134
-18.9243
-17.3831
-15.9759
-14.6906
-13.5169
-12.4449
-11.4656
-10.5706
-9.75203
-9.00275
-8.31644
-7.68817
-7.11171
-38.2878
-33.1303
-30.0545
-27.4799
-25.1452
-23.0474
-21.1514
-19.4257
-17.8512
-16.4141
-15.1024
-13.9052
-12.8125
-11.8149
-10.9038
-10.0708
-9.30868
-8.61074
-7.97146
-7.38515
-39.0614
-33.873
-30.7581
-28.1425
-25.7647
-23.6245
-21.6885
-19.9259
-18.318
-16.8511
-15.5129
-14.2924
-13.1791
-12.1634
-11.2361
-10.3888
-9.61389
-8.90433
-8.25404
-7.65801
-39.844
-34.619
-31.4621
-28.8044
-26.3831
-24.2002
-22.2238
-20.4241
-18.7828
-17.2861
-15.9215
-14.6777
-13.544
-12.5102
-11.567
-10.7055
-9.91778
-9.19662
-8.53535
-7.92978
-40.6228
-35.3633
-32.1649
-29.4649
-26.9998
-24.7738
-22.7569
-20.92
-19.2452
-17.7186
-16.3278
-15.0608
-13.9068
-12.8551
-11.8959
-11.0203
-10.2199
-9.48715
-8.81494
-8.20003
-6.68833
-4.60403
-3.26119
-2.2307
-1.50861
-0.978785
-0.598817
-0.329318
-0.142383
-0.016566
0.0644374
0.113078
0.138689
0.148334
0.147194
0.139077
0.126736
0.112135
0.0966564
0.0812492
0.0665453
0.052949
0.0406902
0.0298897
0.0205647
0.0127013
0.0062005
0.00100399
-0.00306678
-0.00604627
-0.00820034
-0.00946315
-0.0102372
-0.010239
-0.010103
-0.00914539
-0.00836372
-0.00649068
-0.00483036
-0.00189912
-6.94128
-4.78445
-3.40612
-2.34485
-1.59892
-1.05185
-0.658436
-0.37858
-0.183465
-0.0510755
0.0353055
0.0884151
0.117774
0.130597
0.132164
0.126361
0.116004
0.103102
0.0890791
0.0749175
0.0612772
0.0485852
0.0370938