/*--------------------------------*- C++ -*----------------------------------*\
  =========                 |
  \\      /  F ield         | OpenFOAM: The Open Source CFD Toolbox
   \\    /   O peration     | Website:  https://openfoam.org
    \\  /    A nd           | Version:  6.0
     \\/     M anipulation  |
\*---------------------------------------------------------------------------*/
FoamFile
{
    version     2.0;
    format      ascii;
    class       surfaceScalarField;
    location    "12.25";
    object      phi;
}
// * * * * * * * * * * * * * * * * * * * * * * * * * * * * * * * * * * * * * //

dimensions      [0 3 -1 0 0 0 0];

internalField   nonuniform List<scalar> 
38030
(
2.35522e-05
-0.079087
0.0790635
0.000134646
-0.0722157
0.0721046
0.00033287
-0.0665996
0.0664014
0.000615402
-0.0620099
0.0617274
0.000977882
-0.0582523
0.0578898
0.00141433
-0.0551639
0.0547275
0.00191788
-0.0526117
0.0521082
0.0024813
-0.0504878
0.0499244
0.00309737
-0.0487054
0.0480893
0.00375907
-0.0471947
0.046533
0.00445975
-0.0459
0.0451993
0.0051932
-0.0447766
0.0440432
0.00595369
-0.0437889
0.0430284
0.00673599
-0.0429084
0.0421261
0.00753537
-0.0421125
0.0413132
0.00834757
-0.0413832
0.040571
0.00916883
-0.0407061
0.0398848
0.00999581
-0.0400697
0.0392427
0.0108256
-0.0394652
0.0386354
0.0116557
-0.0388851
0.038055
0.0124839
-0.0383238
0.0374956
0.0133084
-0.0377767
0.0369522
0.0141277
-0.0372398
0.0364206
0.0149404
-0.03671
0.0358973
0.0157453
-0.0361844
0.0353794
0.0165416
-0.0356603
0.034864
0.0173284
-0.0351353
0.0343485
0.0181047
-0.0346067
0.0338304
0.0188696
-0.0340716
0.0333067
-0.0335266
0.0327743
0.019622
3.25403e-05
-0.0791196
0.000150018
-0.0723331
0.000356583
-0.0668061
0.000649778
-0.0623031
0.00102449
-0.058627
0.00147407
-0.0556135
0.00199109
-0.0531287
0.00256787
-0.0510646
0.00319683
-0.0493343
0.00387066
-0.0478685
0.00458249
-0.0466118
0.00532594
-0.0455201
0.00609513
-0.0445581
0.00688475
-0.043698
0.00769
-0.0429178
0.00850661
-0.0421998
0.00933079
-0.0415302
0.0101592
-0.0408982
0.0109891
-0.040295
0.0118178
-0.0397139
0.0126434
-0.0391494
0.0134641
-0.0385973
0.0142783
-0.0380541
0.015085
-0.0375166
0.015883
-0.0369824
0.0166716
-0.0364489
0.0174501
-0.0359137
0.0182176
-0.0353742
0.0189734
-0.0348274
-0.0342697
0.0197165
3.71267e-05
-0.0791567
0.000162097
-0.0724581
0.000378099
-0.0670221
0.000682415
-0.0626074
0.00106938
-0.059014
0.00153181
-0.056076
0.00206179
-0.0536587
0.00265126
-0.051654
0.00329229
-0.0499753
0.00397732
-0.0485536
0.00469926
-0.0473338
0.00545156
-0.0462724
0.00622824
-0.0453348
0.00702389
-0.0444937
0.00783368
-0.0437276
0.0086533
-0.0430194
0.00947899
-0.0423559
0.0103075
-0.0417266
0.0111359
-0.0411234
0.0119618
-0.0405398
0.0127833
-0.0399709
0.0135987
-0.0394127
0.0144066
-0.0388619
0.0152059
-0.0383159
0.0159957
-0.0377722
0.0167753
-0.0372286
0.0175442
-0.0366826
0.0183017
-0.0361317
0.0190472
-0.035573
-0.0350026
0.0197801
4.06025e-05
-0.0791973
0.000172768
-0.0725903
0.000398256
-0.0672476
0.000713634
-0.0629228
0.00111262
-0.059413
0.00158748
-0.0565508
0.00212986
-0.0542011
0.00273129
-0.0522555
0.00338354
-0.0506276
0.0040788
-0.0492488
0.00480978
-0.0480647
0.00556978
-0.0470324
0.00635271
-0.0461177
0.00715311
-0.0452941
0.00796609
-0.0445405
0.00878736
-0.0438407
0.00961315
-0.0431817
0.0104402
-0.0425537
0.0112658
-0.041949
0.0120876
-0.0413616
0.0129036
-0.040787
0.0137123
-0.0402214
0.0145125
-0.0396621
0.0153031
-0.0391065
0.0160834
-0.0385525
0.0168529
-0.037998
0.017611
-0.0374407
0.0183575
-0.0368782
0.0190917
-0.0363072
-0.0357241
0.0198132
4.36519e-05
-0.079241
0.000182675
-0.0727293
0.000417436
-0.0674824
0.000743614
-0.063249
0.00115425
-0.0598236
0.00164103
-0.0570376
0.00219516
-0.0547552
0.00280778
-0.0528681
0.00347037
-0.0512902
0.00417487
-0.0499533
0.0049138
-0.0488037
0.00568034
-0.0477989
0.00646829
-0.0469057
0.00727214
-0.0460979
0.00808698
-0.0453554
0.00890853
-0.0446622
0.00973304
-0.0440062
0.0105573
-0.043378
0.0113787
-0.0427704
0.0121949
-0.0421778
0.0130042
-0.0415962
0.0138049
-0.0410222
0.0145961
-0.0404533
0.0153768
-0.0398873
0.0161465
-0.0393222
0.0169047
-0.0387562
0.0176511
-0.0381871
0.0183855
-0.0376125
0.0191075
-0.0370293
-0.0364334
0.0198169
4.64827e-05
-0.0792874
0.000192077
-0.0728749
0.000435821
-0.0677261
0.000772446
-0.0635856
0.00119427
-0.0602454
0.00169241
-0.0575357
0.00225759
-0.0553204
0.0028806
-0.0534911
0.00355261
-0.0519622
0.00426532
-0.050666
0.00501111
-0.0495495
0.00578299
-0.0485708
0.00657473
-0.0476974
0.00738074
-0.0469039
0.00819613
-0.0461708
0.00901661
-0.0454827
0.00983851
-0.0448281
0.0106587
-0.0441982
0.0114745
-0.0435862
0.0122839
-0.0429872
0.0130851
-0.0423973
0.0138766
-0.0418138
0.0146577
-0.0412343
0.0154274
-0.040657
0.0161854
-0.0400802
0.0169313
-0.0395021
0.017665
-0.0389209
0.0183864
-0.038334
0.0190955
-0.0377384
-0.0371299
0.0197919
4.9179e-05
-0.0793366
0.000201094
-0.0730268
0.000453498
-0.0679785
0.000800163
-0.0639323
0.00123266
-0.0606779
0.00174154
-0.0580446
0.00231704
-0.0558959
0.0029496
-0.0541237
0.00363008
-0.0526427
0.00434998
-0.0513859
0.00510149
-0.050301
0.00587755
-0.0493468
0.00667183
-0.0484917
0.00747874
-0.0477109
0.00829337
-0.0469854
0.00911147
-0.0463008
0.00992944
-0.0456461
0.0107442
-0.045013
0.0115532
-0.0443953
0.0123545
-0.0437885
0.0131464
-0.0431892
0.0139276
-0.042595
0.0146974
-0.0420041
0.0154551
-0.0414147
0.0162004
-0.0408255
0.0169331
-0.0402349
0.0176533
-0.039641
0.0183611
-0.0390417
0.0190564
-0.0384337
-0.0378128
0.0197393
5.17734e-05
-0.0793884
0.000209775
-0.0731848
0.000470504
-0.0682393
0.000826772
-0.0642886
0.00126941
-0.0611206
0.00178836
-0.0585636
0.00237343
-0.056481
0.00301466
-0.0547649
0.00370265
-0.0533307
0.00442868
-0.052112
0.0051848
-0.0510571
0.00596385
-0.0501259
0.00675945
-0.0492873
0.00756598
-0.0485174
0.00837858
-0.047798
0.00919303
-0.0471153
0.0100058
-0.0464589
0.0108139
-0.0458211
0.0116149
-0.0451963
0.0124069
-0.0445804
0.0131883
-0.0439707
0.0139582
-0.0433649
0.0147157
-0.0427616
0.0154604
-0.0421594
0.0161921
-0.0415572
0.0169109
-0.0409536
0.0176168
-0.040347
0.0183102
-0.039735
0.0189912
-0.0391147
-0.0384817
0.0196601
5.42818e-05
-0.0794427
0.000218142
-0.0733487
0.000486851
-0.068508
0.000852265
-0.064654
0.00130447
-0.0615728
0.00183282
-0.0590919
0.00242666
-0.0570748
0.00307568
-0.0554139
0.0037702
-0.0540252
0.00450131
-0.0528431
0.00526092
-0.0518167
0.00604177
-0.0509067
0.00683747
-0.050083
0.0076424
-0.0493223
0.00845171
-0.0486073
0.00926127
-0.0479248
0.0100676
-0.0472652
0.0108678
-0.0466213
0.0116596
-0.0459881
0.0124412
-0.045362
0.0132112
-0.0447407
0.0139686
-0.0441223
0.0147129
-0.0435059
0.0154438
-0.0428903
0.0161612
-0.0422746
0.0168652
-0.0416577
0.0175562
-0.041038
0.0182346
-0.0404134
0.0189008
-0.0397809
-0.039136
0.0195552
5.67075e-05
-0.0794994
0.000226201
-0.0735182
0.000502535
-0.0687843
0.000876623
-0.0650281
0.0013378
-0.062034
0.00187486
-0.059629
0.00247667
-0.0576766
0.00313258
-0.0560698
0.00383264
-0.0547253
0.00456776
-0.0535782
0.00532973
-0.0525787
0.00611124
-0.0516882
0.00690584
-0.0508776
0.00770794
-0.0501244
0.00851276
-0.0494121
0.00931621
-0.0487283
0.0101149
-0.0480639
0.0109061
-0.0474125
0.0116876
-0.0467696
0.0124577
-0.0461321
0.0132153
-0.0454982
0.0139594
-0.0448664
0.0146896
-0.0442361
0.0154058
-0.0436065
0.0161081
-0.0429769
0.0167968
-0.0423464
0.0174723
-0.0417136
0.0181353
-0.0410764
0.0187863
-0.0404319
-0.0397755
0.0194258
5.90521e-05
-0.0795584
0.00023395
-0.0736931
0.000517549
-0.0690679
0.000899826
-0.0654103
0.00136939
-0.0625035
0.00191444
-0.060174
0.0025234
-0.0582856
0.00318528
-0.0567317
0.0038899
-0.0554299
0.00462798
-0.0543163
0.0053912
-0.0533419
0.00617219
-0.0524692
0.00696452
-0.0516699
0.00776263
-0.0509225
0.00856176
-0.0502113
0.00935795
-0.0495245
0.0101479
-0.0488538
0.010929
-0.0481936
0.0116992
-0.0475397
0.0124568
-0.0468898
0.013201
-0.0462423
0.0139309
-0.0455963
0.0146462
-0.0449515
0.0153471
-0.0443073
0.0160336
-0.0436634
0.0167064
-0.0430191
0.017366
-0.0423731
0.0180131
-0.0417235
0.0186485
-0.0410672
-0.0403999
0.0192728
6.13149e-05
-0.0796198
0.000241383
-0.0738731
0.000531881
-0.0693584
0.000921856
-0.0658003
0.00139919
-0.0629808
0.00195151
-0.0607264
0.00256681
-0.0589009
0.00323376
-0.0573987
0.00394194
-0.0561381
0.00468192
-0.0550563
0.00544529
-0.0541053
0.00622464
-0.0532486
0.00701355
-0.0524588
0.0078065
-0.0517155
0.00859882
-0.0510036
0.00938663
-0.0503123
0.0101668
-0.049634
0.0109367
-0.0489635
0.0116945
-0.0482976
0.0124389
-0.0476341
0.0131687
-0.0469722
0.0138836
-0.0463112
0.0145834
-0.0456512
0.0152682
-0.0449921
0.0159384
-0.0443337
0.0165948
-0.0436755
0.017238
-0.0430163
0.0178689
-0.0423544
0.0184884
-0.0416868
-0.0410089
0.0190974
6.34921e-05
-0.0796832
0.000248496
-0.0740581
0.000545518
-0.0696554
0.000942695
-0.0661975
0.00142718
-0.0634653
0.00198606
-0.0612852
0.00260687
-0.0595217
0.00327798
-0.0580698
0.00398874
-0.0568488
0.00472957
-0.0557971
0.00549201
-0.0548677
0.00626861
-0.0540252
0.00705298
-0.0532432
0.00783966
-0.0525022
0.00862407
-0.051788
0.00940244
-0.0510906
0.0101717
-0.0504033
0.0109296
-0.0497213
0.0116741
-0.0490421
0.0124042
-0.0483642
0.013119
-0.0476869
0.0138181
-0.0470104
0.0145016
-0.0463347
0.0151698
-0.0456603
0.0158232
-0.0449871
0.0164627
-0.0443149
0.0170891
-0.0436428
0.0177035
-0.0429689
0.018307
-0.0422902
-0.0416024
0.0189005
6.55818e-05
-0.0797488
0.00025528
-0.0742478
0.000558452
-0.0699586
0.000962333
-0.0666014
0.00145336
-0.0639564
0.00201806
-0.0618499
0.00264356
-0.0601472
0.00331792
-0.0587441
0.00403029
-0.0575612
0.00477096
-0.0565378
0.00553139
-0.0556281
0.00630417
-0.054798
0.00708292
-0.0540219
0.00786226
-0.0532815
0.00863771
-0.0525634
0.00940563
-0.0518586
0.0101631
-0.0511607
0.0109079
-0.0504661
0.0116383
-0.0497726
0.0123534
-0.0490792
0.0130523
-0.0483859
0.013735
-0.0476931
0.0144016
-0.0470013
0.0150526
-0.0463113
0.0156887
-0.0456232
0.0163109
-0.0449371
0.0169202
-0.0442521
0.0175179
-0.0435665
0.0181051
-0.0428774
-0.0421803
0.018683
6.75802e-05
-0.0798164
0.00026173
-0.074442
0.000570677
-0.0702676
0.000980763
-0.0670114
0.00147772
-0.0644533
0.00204753
-0.0624197
0.00267691
-0.0607765
0.00335362
-0.0594208
0.00406662
-0.0582742
0.00480612
-0.0572773
0.00556352
-0.0563855
0.00633142
-0.0555659
0.0071035
-0.054794
0.00787447
-0.0540525
0.00863997
-0.0533289
0.00939647
-0.0526151
0.0101412
-0.0519055
0.0108721
-0.051197
0.0115876
-0.0504881
0.0122868
-0.0497785
0.0129693
-0.0490684
0.013635
-0.0483587
0.0142841
-0.0476505
0.0149174
-0.0469445
0.0155357
-0.0462415
0.0161402
-0.0455416
0.0167321
-0.044844
0.0173127
-0.0441472
0.0178835
-0.0434482
-0.0427426
0.0184457
6.94852e-05
-0.0798859
0.000267842
-0.0746403
0.000582192
-0.0705819
0.000997992
-0.0674272
0.00150028
-0.0649556
0.00207447
-0.0629939
0.00270692
-0.061409
0.00338509
-0.060099
0.0040978
-0.0589869
0.00483513
-0.0580146
0.00558849
-0.0571389
0.0063505
-0.0563279
0.00711491
-0.0555584
0.00787653
-0.0548141
0.00863113
-0.0540835
0.00937531
-0.0533592
0.0101064
-0.0526366
0.0108226
-0.0519132
0.0115225
-0.051188
0.0122052
-0.0504612
0.0128705
-0.0497337
0.0135185
-0.0490067
0.0141497
-0.0482816
0.0147648
-0.0475596
0.0153649
-0.0468416
0.0159512
-0.046128
0.0165254
-0.0454181
0.0170888
-0.0447106
0.0176429
-0.0440024
-0.043289
0.0181894
7.12926e-05
-0.0799572
0.000273615
-0.0748427
0.000593002
-0.0709013
0.00101403
-0.0678483
0.00152104
-0.0654626
0.00209893
-0.0635718
0.00273363
-0.0620437
0.0034124
-0.0607778
0.00412388
-0.0596984
0.00485809
-0.0587488
0.00560643
-0.0578872
0.00636158
-0.057083
0.00711736
-0.0563142
0.00786871
-0.0555654
0.00861151
-0.0548263
0.00934252
-0.0540903
0.0100593
-0.0533534
0.01076
-0.0526139
0.0114435
-0.0518715
0.0121091
-0.0511268
0.0127567
-0.0503813
0.0133865
-0.0496365
0.0139991
-0.0488942
0.0145955
-0.048156
0.015177
-0.0474231
0.0157449
-0.0466959
0.0163009
-0.0459741
0.0168467
-0.0452564
0.0173841
-0.0445398
-0.0438195
0.0179146
7.29993e-05
-0.0800302
0.000279048
-0.0750487
0.000603118
-0.0712254
0.00102891
-0.0682741
0.00154005
-0.0659738
0.00212093
-0.0641527
0.00275711
-0.0626799
0.00343562
-0.0614563
0.00414496
-0.0604077
0.00487512
-0.059479
0.00561751
-0.0586296
0.00636485
-0.0578304
0.0071111
-0.0570605
0.0078513
-0.0563056
0.00858147
-0.0555565
0.00929854
-0.0548073
0.0100002
-0.054055
0.0106848
-0.0532985
0.0113513
-0.052538
0.0119992
-0.0517748
0.0126285
-0.0510106
0.0132396
-0.0502476
0.0138332
-0.0494879
0.0144105
-0.0487333
0.0149728
-0.0479854
0.0155218
-0.0472449
0.0160593
-0.0465117
0.0165873
-0.0457844
0.0171076
-0.0450601
-0.0443339
0.017622
7.46035e-05
-0.0801048
0.000284151
-0.0752583
0.000612568
-0.0715538
0.00104266
-0.0687042
0.00155737
-0.0664885
0.00214055
-0.0647359
0.00277743
-0.0633168
0.00345484
-0.0621337
0.00416115
-0.061114
0.00488636
-0.0602042
0.00562189
-0.0593652
0.00636056
-0.058569
0.00709642
-0.0577963
0.00782465
-0.0570339
0.00854143
-0.0562733
0.00924383
-0.0555097
0.00992969
-0.0547409
0.0105976
-0.0539663
0.0112465
-0.053187
0.0118762
-0.0524045
0.0124868
-0.0516211
0.0130787
-0.0508395
0.0136528
-0.050062
0.0142105
-0.0492909
0.0147532
-0.0485281
0.0152828
-0.0477745
0.0158014
-0.0470302
0.016311
-0.046294
0.0168139
-0.0455629
-0.0448319
0.0173119
7.61007e-05
-0.0801809
0.000288936
-0.0754711
0.000621388
-0.0718862
0.00105535
-0.0691381
0.00157305
-0.0670062
0.00215786
-0.0653207
0.00279468
-0.0639536
0.00347015
-0.0628092
0.0041726
-0.0618165
0.00489198
-0.0609236
0.0056198
-0.060093
0.00634895
-0.0592982
0.00707362
-0.058521
0.00778913
-0.0577494
0.00849181
-0.056976
0.0091789
-0.0561968
0.0098484
-0.0554104
0.010499
-0.0546169
0.0111299
-0.0538179
0.011741
-0.0530155
0.0123323
-0.0522125
0.0129046
-0.0514118
0.0134589
-0.0506163
0.0139965
-0.0498285
0.0145191
-0.0490507
0.0150288
-0.0482842
0.0155278
-0.0475293
0.0160186
-0.0467848
0.0165035
-0.0460478
-0.0453131
0.0169847
7.74901e-05
-0.0802584
0.000293429
-0.075687
0.000629636
-0.0722224
0.00106706
-0.0695756
0.0015872
-0.0675263
0.00217295
-0.0659064
0.00280896
-0.0645896
0.00348169
-0.0634819
0.00417942
-0.0625142
0.00489215
-0.0616363
0.00561144
-0.0608123
0.0063303
-0.060017
0.00704304
-0.0592337
0.00774514
-0.0584515
0.0084331
-0.0576639
0.00910432
-0.056868
0.00975694
-0.056063
0.0103898
-0.0552498
0.0110023
-0.0544304
0.0115943
-0.0536075
0.0121661
-0.0527843
0.0127185
-0.0519642
0.0132524
-0.0511502
0.0137695
-0.0503456
0.0142715
-0.0495527
0.0147607
-0.0487734
0.0152395
-0.048008
0.0157106
-0.0472559
0.0161768
-0.046514
-0.0457768
0.0166406
7.87746e-05
-0.0803372
0.000297677
-0.0759059
0.000637403
-0.0725622
0.00107788
-0.070016
0.00159991
-0.0680483
0.00218594
-0.0664925
0.00282037
-0.065224
0.00348957
-0.0641511
0.00418179
-0.0632064
0.00488707
-0.0623416
0.00559706
-0.0615222
0.0063049
-0.0607249
0.00700503
-0.0599339
0.00769311
-0.0591396
0.0083658
-0.0583366
0.00902064
-0.0575229
0.00965597
-0.0566983
0.0102708
-0.0558646
0.0108645
-0.0550241
0.0114372
-0.0541802
0.0119892
-0.0533364
0.0125214
-0.0524963
0.0130347
-0.0516636
0.0135309
-0.0508418
0.0140118
-0.0500336
0.0144797
-0.0492413
0.0149374
-0.0484658
0.015388
-0.0477065
0.0158345
-0.0469606
-0.0462222
0.0162799
7.9971e-05
-0.0804171
0.000301762
-0.0761277
0.000644816
-0.0729052
0.00108797
-0.0704592
0.00161132
-0.0685717
0.00219694
-0.0670781
0.00282904
-0.0658561
0.00349392
-0.064816
0.00417985
-0.0638924
0.00487692
-0.0630386
0.00557689
-0.0622222
0.00627304
-0.061421
0.00695996
-0.0606208
0.00763347
-0.0598131
0.0082904
-0.0589935
0.00892849
-0.0581609
0.00954619
-0.057316
0.0101426
-0.056461
0.0107174
-0.0555989
0.0112707
-0.0547334
0.0118028
-0.0538685
0.0123146
-0.0530081
0.0128072
-0.0521562
0.0132821
-0.0513167
0.0137413
-0.0504928
0.0141873
-0.0496872
0.014623
-0.0489015
0.0150518
-0.0481353
0.0154774
-0.0473862
-0.0466479
0.0159032
8.1122e-05
-0.0804982
0.000305828
-0.0763524
0.000652065
-0.0732515
0.00109749
-0.0709046
0.00162157
-0.0690958
0.00220607
-0.0676626
0.00283508
-0.0664851
0.00349487
-0.0654758
0.00417375
-0.0645712
0.0048619
-0.0637268
0.00555118
-0.0629115
0.00623502
-0.0621049
0.00690818
-0.061294
0.00756665
-0.0604715
0.00820744
-0.0596343
0.00882845
-0.058782
0.00942832
-0.0579159
0.0100063
-0.057039
0.0105621
-0.0561547
0.0110958
-0.0552672
0.0116081
-0.0543807
0.0120995
-0.0534996
0.0125714
-0.052628
0.0130249
-0.0517703
0.0134622
-0.0509301
0.0138855
-0.0501106
0.0142981
-0.049314
0.0147038
-0.048541
0.0151067
-0.0477891
-0.0470522
0.015511
8.23435e-05
-0.0805806
0.000310127
-0.0765802
0.000659421
-0.0736007
0.00110667
-0.0713519
0.00163082
-0.0696199
0.00221345
-0.0682452
0.00283859
-0.0671103
0.00349254
-0.0661297
0.00416365
-0.0652423
0.00484218
-0.0644053
0.00552015
-0.0635895
0.00619112
-0.0627758
0.00685004
-0.0619529
0.00749307
-0.0611146
0.00811741
-0.0602587
0.00872114
-0.0593857
0.00930304
-0.0584978
0.0098625
-0.0575984
0.0103994
-0.0566916
0.0109138
-0.0557817
0.0114064
-0.0548733
0.0118778
-0.053971
0.0123291
-0.0530793
0.0127615
-0.0522027
0.0131767
-0.0513453
0.013577
-0.0505109
0.0139655
-0.0497025
0.0143462
-0.0489217
0.0147243
-0.0481672
-0.0474327
0.0151048
8.38919e-05
-0.0806645
0.000315078
-0.0768114
0.000667253
-0.0739529
0.00111575
-0.0718004
0.00163922
-0.0701434
0.00221917
-0.0688252
0.00283967
-0.0677308
0.00348702
-0.0667771
0.00414965
-0.065905
0.00481793
-0.0650736
0.00548401
-0.0642555
0.0061416
-0.0634334
0.00678586
-0.0625971
0.00741312
-0.0617418
0.00802078
-0.0608663
0.00860709
-0.059972
0.00917101
-0.0590617
0.00971207
-0.0581395
0.0102302
-0.0572097
0.0107257
-0.0562772
0.0111991
-0.0553467
0.0116511
-0.054423
0.0120825
-0.0535107
0.0124943
-0.0526145
0.0128879
-0.0517389
0.0132651
-0.0508881
0.0136288
-0.0500662
0.0139831
-0.049276
0.0143337
-0.0485178
-0.0477861
0.0146872
8.62664e-05
-0.0807508
0.00032131
-0.0770465
0.000676007
-0.0743076
0.00112498
-0.0722493
0.00164688
-0.0706653
0.0022233
-0.0694016
0.00283835
-0.0683458
0.00347837
-0.0674171
0.00413187
-0.0665585
0.00478929
-0.065731
0.00544294
-0.0649092
0.00608671
-0.0640772
0.00671593
-0.0632263
0.00732715
-0.062353
0.00791796
-0.0614572
0.0084868
-0.0605408
0.00903282
-0.0596077
0.00955568
-0.0586623
0.0100555
-0.0577095
0.0105326
-0.0567543
0.0109875
-0.0558016
0.0114209
-0.0548564
0.0118335
-0.0539233
0.012226
-0.053007
0.0125993
-0.0521121
0.0129545
-0.0512434
0.0132937
-0.0504054
0.0136204
-0.0496027
0.0139408
-0.0488382
-0.0481088
0.0142635
9.03952e-05
-0.0808411
0.000329797
-0.0772859
0.000686248
-0.0746641
0.00113459
-0.0726977
0.00165386
-0.0711846
0.00222585
-0.0699736
0.00283465
-0.0689546
0.00346665
-0.0680491
0.00411036
-0.0672022
0.00475637
-0.066377
0.0053971
-0.0655499
0.00602662
-0.0647067
0.00664048
-0.0638402
0.00723544
-0.062948
0.00780928
-0.062031
0.00836067
-0.0610922
0.00888891
-0.060136
0.00939387
-0.0591673
0.00987577
-0.0581914
0.0103351
-0.0572136
0.0107724
-0.056239
0.0111885
-0.0552725
0.0115839
-0.0543187
0.0119591
-0.0533822
0.0123144
-0.0524674
0.0126501
-0.0515791
0.0129669
-0.0507222
0.0132666
-0.0499024
0.0135542
-0.0491258
-0.0483964
0.0138419
9.87273e-05
-0.0809399
0.000342535
-0.0775297
0.000698791
-0.0750203
0.00114473
-0.0731436
0.00166011
-0.0716999
0.00222671
-0.0705402
0.00282851
-0.0695564
0.00345181
-0.0686724
0.00408517
-0.0678355
0.00471923
-0.0670111
0.00534658
-0.0661773
0.0059615
-0.0653216
0.00655971
-0.0644384
0.0071382
-0.0635265
0.007695
-0.0625878
0.00822895
-0.0616262
0.00873959
-0.0606466
0.00922696
-0.0596547
0.00969146
-0.0586559
0.0101337
-0.0576559
0.0105546
-0.0566598
0.0109547
-0.0556726
0.0113349
-0.0546989
0.0116955
-0.0537428
0.0120366
-0.0528085
0.0123576
-0.0519001
0.0126574
-0.051022
0.0129339
-0.0501789
0.0131878
-0.0493798
-0.0486453
0.0134367
0.000119043
-0.0810589
0.000362497
-0.0777731
0.00071392
-0.0753718
0.00115502
-0.0735847
0.00166521
-0.0722101
0.0022256
-0.0711006
0.00281975
-0.0701506
0.0034338
-0.0692864
0.00405627
-0.068458
0.00467792
-0.0676328
0.00529148
-0.0667908
0.00589144
-0.0659216
0.00647374
-0.0650207
0.00703559
-0.0640883
0.00757525
-0.0631275
0.0080918
-0.0621427
0.00858498
-0.0611398
0.00905502
-0.0601247
0.00950256
-0.0591034
0.00992844
-0.0580817
0.0103337
-0.057065
0.0107194
-0.0560583
0.0110865
-0.055066
0.011436
-0.0540923
0.0117685
-0.053141
0.0120839
-0.0522155
0.0123806
-0.0513187
0.012652
-0.0504503
0.012884
-0.0496117
-0.0488343
0.013073
0.0834688
8.83067e-05
-0.0835571
0.0833908
7.80413e-05
0.0833158
7.49788e-05
0.0832413
7.44893e-05
0.0831662
7.50917e-05
0.08309
7.62108e-05
0.0830125
7.75292e-05
0.0829336
7.88819e-05
0.0828534
8.01892e-05
0.082772
8.142e-05
0.0826894
8.25604e-05
0.0826058
8.36055e-05
0.0825213
8.45557e-05
0.0824359
8.54101e-05
0.0823497
8.61698e-05
0.0822628
8.68339e-05
0.0821754
8.74033e-05
0.0820876
8.78774e-05
0.0819993
8.82534e-05
0.0819108
8.85305e-05
0.0818221
8.87045e-05
0.0817333
8.87691e-05
0.0816446
8.87112e-05
0.0815561
8.85129e-05
0.0814679
8.81355e-05
0.0813804
8.75056e-05
0.081294
8.64631e-05
0.0812093
8.46358e-05
0.0811285
8.08538e-05
6.9573e-05
0.0838494
0.000251085
-0.0840122
0.0836804
0.00024701
0.0835082
0.00024722
0.0833327
0.000249953
0.0831538
0.00025401
0.0829712
0.000258806
0.0827848
0.000263957
0.0825944
0.000269197
0.0824003
0.000274364
0.0822023
0.000279359
0.0820008
0.000284128
0.0817957
0.000288636
0.0815874
0.00029286
0.081376
0.00029679
0.0811618
0.000300414
0.0809449
0.000303726
0.0807256
0.000306719
0.0805041
0.000309389
0.0802806
0.000311727
0.0800554
0.000313726
0.0798287
0.000315374
0.0796009
0.000316654
0.079372
0.000317537
0.0791426
0.00031798
0.0789128
0.000317908
0.0786831
0.000317192
0.078454
0.000315589
0.078226
0.000312618
0.0779997
0.000307179
0.000296131
0.0840889
0.000457882
-0.0842957
0.0838701
0.000465777
0.0836422
0.00047513
0.0834064
0.000485768
0.0831632
0.000497193
0.082913
0.00050907
0.0826558
0.00052113
0.0823918
0.000533146
0.0821212
0.000544945
0.0818442
0.000556405
0.0815609
0.000567438
0.0812715
0.000577984
0.0809764
0.000587999
0.0806757
0.000597451
0.0803698
0.000606314
0.080059
0.00061457
0.0797435
0.000622201
0.0794237
0.000629193
0.0790999
0.00063553
0.0787724
0.000641195
0.0784416
0.000646167
0.0781079
0.000650419
0.0777715
0.000653909
0.0774329
0.000656582
0.0770925
0.00065835
0.0767506
0.000659074
0.0764076
0.000658534
0.0760639
0.000656357
0.0757192
0.000651861
0.0006436
0.0840941
0.000685265
-0.0843215
0.0838525
0.000707321
0.0835983
0.000729376
0.0833324
0.000751644
0.0830556
0.000774007
0.0827683
0.000796321
0.082471
0.000818436
0.082164
0.000840199
0.0818475
0.000861468
0.0815217
0.000882129
0.0811871
0.000902089
0.0808438
0.000921277
0.0804922
0.000939631
0.0801325
0.000957105
0.0797652
0.000973661
0.0793905
0.000989263
0.0790088
0.00100389
0.0786205
0.0010175
0.0782259
0.00103008
0.0778255
0.0010416
0.0774197
0.00105203
0.0770087
0.00106133
0.0765932
0.00106946
0.0761734
0.00107636
0.0757498
0.00108193
0.0753228
0.00108606
0.0748928
0.00108857
0.0744599
0.00108922
0.0740242
0.00108761
0.00108308
0.0838271
0.000914322
-0.0840561
0.0835822
0.000952167
0.0833223
0.000989297
0.083048
0.00102592
0.08276
0.00106205
0.0824587
0.00109763
0.0821445
0.00113258
0.0818179
0.00116678
0.0814793
0.00120015
0.0811288
0.00123258
0.0807669
0.00126398
0.0803939
0.00129428
0.0800101
0.00132341
0.0796159
0.00135131
0.0792117
0.00137793
0.0787977
0.00140324
0.0783744
0.00142717
0.0779422
0.00144971
0.0775015
0.00147081
0.0770526
0.00149043
0.0765961
0.00150853
0.0761324
0.00152508
0.0756618
0.00154002
0.0751849
0.00155328
0.074702
0.00156479
0.0742136
0.00157445
0.0737201
0.00158213
0.0732216
0.00158767
0.0727184
0.00159085
0.00159135
0.0832837
0.00113149
-0.0835009
0.0830493
0.00118652
0.0827982
0.00124046
0.0825307
0.00129343
0.0822473
0.00134546
0.0819484
0.00139651
0.0816344
0.00144653
0.0813058
0.00149544
0.0809628
0.00154315
0.0806058
0.00158957
0.0802351
0.00163463
0.0798512
0.00167825
0.0794542
0.00172035
0.0790447
0.00176087
0.0786229
0.00179975
0.0781892
0.00183692
0.077744
0.00187235
0.0772877
0.00190598
0.0768208
0.00193775
0.0763436
0.00196764
0.0758565
0.00199558
0.0753601
0.00202152
0.0748547
0.00204541
0.0743408
0.00206718
0.0738188
0.00208677
0.0732892
0.00210409
0.0727522
0.00211905
0.0722084
0.00213154
0.0716578
0.00214144
0.00214857
0.0824825
0.00132784
-0.0826789
0.0822679
0.00140117
0.0820352
0.00147318
0.0817847
0.00154393
0.0815167
0.0016134
0.0812317
0.00168158
0.0809298
0.00174839
0.0806115
0.00181376
0.080277
0.00187762
0.0799267
0.00193987
0.0795609
0.00200043
0.07918
0.00205922
0.0787842
0.00211616
0.0783738
0.00217119
0.0779494
0.00222422
0.0775111
0.00227519
0.0770594
0.00232404
0.0765947
0.0023707
0.0761173
0.00241512
0.0756277
0.00245724
0.0751263
0.002497
0.0746135
0.00253434
0.0740897
0.0025692
0.0735553
0.00260152
0.0730109
0.00263122
0.0724567
0.00265824
0.0718933
0.0026825
0.0713209
0.00270392
0.0707399
0.00272243
0.00273791
0.0814555
0.00149809
-0.0816257
0.0812661
0.00159051
0.0810578
0.00168148
0.0808308
0.00177098
0.0805852
0.00185899
0.0803213
0.00194546
0.0800394
0.0020303
0.0797397
0.00211345
0.0794225
0.0021948
0.0790881
0.00227427
0.0787368
0.00235178
0.0783687
0.00242723
0.0779844
0.00250053
0.077584
0.0025716
0.0771678
0.00264036
0.0767363
0.00270673
0.0762897
0.00277063
0.0758284
0.002832
0.0753528
0.00289076
0.0748632
0.00294684
0.07436
0.00300018
0.0738436
0.0030507
0.0733145
0.00309834
0.072773
0.00314303
0.0722195
0.00318469
0.0716545
0.00322327
0.0710783
0.0032587
0.0704913
0.0032909
0.0698939
0.00331983
0.00334539
0.0802406
0.00163977
-0.0803823
0.0800793
0.00175177
0.0798986
0.00186223
0.0796984
0.00197111
0.0794791
0.00207834
0.0792407
0.00218386
0.0789834
0.00228757
0.0787075
0.00238937
0.0784131
0.00248918
0.0781005
0.00258688
0.0777699
0.00268238
0.0774215
0.00277558
0.0770557
0.00286639
0.0766726
0.0029547
0.0762725
0.00304042
0.0758558
0.00312346
0.0754227
0.00320374
0.0749735
0.00328117
0.0745086
0.00335567
0.0740283
0.00342715
0.0735329
0.00349554
0.0730229
0.00356076
0.0724985
0.00362273
0.0719602
0.00368137
0.0714082
0.00373662
0.0708431
0.00378841
0.0702651
0.00383666
0.0696747
0.00388132
0.0690722
0.00392233
0.0039596
0.0788775
0.00175247
-0.0789902
0.0787451
0.00188425
0.0785928
0.00201446
0.0784209
0.00214301
0.0782294
0.00226983
0.0780185
0.00239482
0.0777882
0.00251788
0.0775387
0.00263889
0.0772701
0.00275774
0.0769827
0.00287432
0.0766765
0.00298852
0.0763519
0.00310023
0.0760089
0.00320934
0.0756479
0.00331573
0.075269
0.00341931
0.0748725
0.00351998
0.0744586
0.00361762
0.0740276
0.00371216
0.0735798
0.00380348
0.0731154
0.0038915
0.0726348
0.00397613
0.0721383
0.00405727
0.0716262
0.00413485
0.0710988
0.00420877
0.0705565
0.00427896
0.0699995
0.00434535
0.0694283
0.00440785
0.0688432
0.00446642
0.0682446
0.00452098
0.00457144
0.0774046
0.00183721
-0.0774893
0.0773001
0.00198875
0.0771758
0.00213872
0.0770318
0.00228701
0.0768681
0.00243351
0.0766848
0.00257813
0.076482
0.00272072
0.0762597
0.00286118
0.0760181
0.00299937
0.0757572
0.00313518
0.0754773
0.00326847
0.0751784
0.00339913
0.0748607
0.00352703
0.0745244
0.00365205
0.0741696
0.00377408
0.0737966
0.003893
0.0734055
0.00400871
0.0729965
0.00412108
0.07257
0.00423002
0.0721261
0.00433542
0.071665
0.00443718
0.0711871
0.00453519
0.0706926
0.00462936
0.0701818
0.00471961
0.0696549
0.00480583
0.0691123
0.00488794
0.0685543
0.00496587
0.0679812
0.00503955
0.0673932
0.0051089
0.00517383
0.0758566
0.00189601
-0.0759154
0.0757782
0.0020671
0.0756803
0.00223665
0.0755628
0.00240452
0.0754257
0.00257061
0.075269
0.00273477
0.0750929
0.00289687
0.0748973
0.00305678
0.0746823
0.00321436
0.074448
0.00336948
0.0741945
0.00352199
0.0739218
0.00367178
0.0736302
0.00381869
0.0733196
0.00396261
0.0729903
0.00410341
0.0726423
0.00424095
0.0722759
0.00437512
0.0718912
0.0045058
0.0714883
0.00463287
0.0710676
0.00475621
0.070629
0.00487571
0.070173
0.00499126
0.0696996
0.00510275
0.0692091
0.00521007
0.0687018
0.00531314
0.0681779
0.00541185
0.0676376
0.00550612
0.0670813
0.00559587
0.0665092
0.00568102
0.00576146
0.0742642
0.00193146
-0.0742997
0.0742096
0.00212177
0.0741356
0.00231057
0.0740424
0.00249773
0.0739299
0.00268311
0.0737981
0.00286658
0.073647
0.00304797
0.0734766
0.00322716
0.073287
0.00340397
0.0730782
0.00357828
0.0728503
0.00374994
0.0726032
0.00391881
0.0723372
0.00408474
0.0720522
0.00424759
0.0717484
0.00440723
0.0714258
0.00456352
0.0710846
0.00471632
0.0707249
0.00486552
0.0703468
0.00501098
0.0699505
0.00515257
0.069536
0.00529017
0.0691036
0.00542366
0.0686534
0.00555292
0.0681856
0.00567785
0.0677005
0.00579832
0.0671981
0.00591424
0.0666787
0.00602551
0.0661425
0.00613204
0.0655898
0.00623375
0.00633053
0.0726535
0.00194647
-0.0726685
0.0726197
0.00215555
0.0725671
0.00236318
0.0724956
0.00256922
0.0724052
0.00277352
0.0722959
0.00297591
0.0721676
0.00317624
0.0720204
0.00337436
0.0718543
0.00357012
0.0716692
0.00376335
0.0714652
0.0039539
0.0712424
0.00414163
0.0710008
0.00432639
0.0707403
0.00450802
0.0704612
0.00468639
0.0701634
0.00486134
0.0698469
0.00503274
0.069512
0.00520046
0.0691586
0.00536435
0.0687869
0.00552427
0.068397
0.00568011
0.0679889
0.00583173
0.0675628
0.005979
0.0671189
0.0061218
0.0666572
0.00626
0.0661779
0.0063935
0.0656812
0.00652219
0.0651673
0.00664598
0.0646363
0.00676477
0.00687847
0.0710459
0.00194403
-0.0710434
0.07103
0.00217139
0.0709959
0.00239736
0.0709433
0.0026218
0.0708723
0.00284452
0.0707828
0.00306538
0.0706748
0.00328421
0.0705484
0.00350084
0.0704034
0.00371511
0.0702399
0.00392686
0.0700578
0.00413593
0.0698573
0.00434218
0.0696382
0.00454543
0.0694007
0.00474554
0.0691448
0.00494236
0.0688704
0.00513573
0.0685776
0.00532552
0.0682665
0.00551158
0.0679371
0.00569376
0.0675894
0.00587193
0.0672236
0.00604594
0.0668396
0.00621567
0.0664377
0.00638096
0.0660178
0.0065417
0.06558
0.00669776
0.0651245
0.006849
0.0646514
0.00699532
0.0641607
0.00713661
0.0636527
0.00727279
0.00740375
0.0694584
0.00192707
-0.0694415
0.0694576
0.00217219
0.069439
0.00241598
0.0694025
0.00265828
0.0693481
0.00289892
0.0692758
0.00313772
0.0691855
0.00337452
0.0690771
0.00360916
0.0689508
0.00384145