/*--------------------------------*- C++ -*----------------------------------*\
| =========                 |                                                 |
| \\      /  F ield         | OpenFOAM: The Open Source CFD Toolbox           |
|  \\    /   O peration     | Version:  v1912                                 |
|   \\  /    A nd           | Website:  www.openfoam.com                      |
|    \\/     M anipulation  |                                                 |
\*---------------------------------------------------------------------------*/
FoamFile
{
    version     2.0;
    format      ascii;
    class       surfaceScalarField;
    location    "53";
    object      phi;
}
// * * * * * * * * * * * * * * * * * * * * * * * * * * * * * * * * * * * * * //

dimensions      [0 3 -1 0 0 0 0];
oriented        oriented;


internalField   nonuniform List<scalar> 
18940
(
0.000358336
-0.234361
0.234003
0.00137926
-0.21632
0.215299
0.00288337
-0.204785
0.203281
0.00470017
-0.197004
0.195187
0.00669881
-0.191251
0.189252
0.00877756
-0.186459
0.18438
0.0108626
-0.18204
0.179955
0.0129045
-0.177698
0.175656
0.0148731
-0.173309
0.17134
0.0167529
-0.168844
0.166964
0.0185393
-0.164325
0.162538
0.0202347
-0.159793
0.158098
0.0218462
-0.155297
0.153686
0.0233836
-0.150881
0.149344
0.024858
-0.14658
0.145106
0.0262812
-0.142419
0.140996
0.0276646
-0.138411
0.137027
0.0290188
-0.134552
0.133198
0.0303523
-0.130824
0.129491
-0.127187
0.125869
0.0316702
0.000381764
-0.234743
0.00142258
-0.217361
0.00293742
-0.2063
0.00475853
-0.198825
0.00675163
-0.193244
0.00881506
-0.188523
0.0108762
-0.184101
0.0128873
-0.179709
0.01482
-0.175241
0.0166608
-0.170685
0.0184064
-0.16607
0.0200607
-0.161447
0.0216317
-0.156868
0.0231299
-0.152379
0.024567
-0.148017
0.0259549
-0.143807
0.0273053
-0.139761
0.0286292
-0.135876
0.0299354
-0.132131
-0.128481
0.03123
0.000403191
-0.235146
0.00146023
-0.218418
0.00298379
-0.207823
0.00480546
-0.200647
0.00678939
-0.195228
0.00883383
-0.190567
0.0108675
-0.186135
0.0128443
-0.181686
0.014738
-0.177135
0.0165369
-0.172484
0.0182393
-0.167773
0.0198504
-0.163059
0.0213791
-0.158397
0.0228366
-0.153837
0.0242349
-0.149415
0.0255861
-0.145158
0.0269023
-0.141077
0.0281946
-0.137169
0.0294723
-0.133408
-0.129751
0.0307423
0.000417066
-0.235563
0.00148916
-0.21949
0.00302058
-0.209355
0.00484024
-0.202466
0.00681162
-0.197199
0.00883352
-0.192589
0.0108362
-0.188137
0.0127755
-0.183625
0.0146272
-0.178987
0.0163816
-0.174238
0.0180386
-0.16943
0.0196046
-0.164624
0.0210894
-0.159882
0.0225048
-0.155252
0.0238631
-0.150774
0.0251766
-0.146472
0.0264574
-0.142358
0.027717
-0.138428
0.0289652
-0.134657
-0.130996
0.0302099
0.000428338
-0.235991
0.00151269
-0.220574
0.00304914
-0.210891
0.00486352
-0.204281
0.00681879
-0.199155
0.00881459
-0.194585
0.0107828
-0.190106
0.0126815
-0.185524
0.0144885
-0.180794
0.0161959
-0.175945
0.0178054
-0.171039
0.0193245
-0.166144
0.020764
-0.161321
0.022136
-0.156624
0.0234531
-0.152091
0.0247278
-0.147747
0.0259723
-0.143603
0.0271983
-0.139654
0.0284162
-0.135875
-0.132215
0.0296348
0.000437431
-0.236429
0.00153124
-0.221668
0.00306971
-0.21243
0.00487554
-0.206087
0.00681121
-0.20109
0.00877743
-0.196551
0.0107079
-0.192036
0.012563
-0.187379
0.0143225
-0.182553
0.0159807
-0.177603
0.0175408
-0.172599
0.0190114
-0.167614
0.0204041
-0.162714
0.0217314
-0.157951
0.0230063
-0.153366
0.0242411
-0.148981
0.0254483
-0.14481
0.0266397
-0.140846
0.0278265
-0.137061
-0.133406
0.0290183
0.000444913
-0.236874
0.00154549
-0.222769
0.00308286
-0.213967
0.00487677
-0.207881
0.00678939
-0.203003
0.00872262
-0.198484
0.0106122
-0.193926
0.0124207
-0.189187
0.0141303
-0.184263
0.0157371
-0.17921
0.0172457
-0.174108
0.0186662
-0.169035
0.0200107
-0.164059
0.0212922
-0.159233
0.0225237
-0.154597
0.0237176
-0.150175
0.0248864
-0.145979
0.0260422
-0.142001
0.0271968
-0.138216
-0.13457
0.0283609
0.000450938
-0.237325
0.00155576
-0.223874
0.00308901
-0.2155
0.0048677
-0.209659
0.00675389
-0.204889
0.00865086
-0.200381
0.0104965
-0.195771
0.0122557
-0.190946
0.0139129
-0.18592
0.0154661
-0.180763
0.0169215
-0.175563
0.0182902
-0.170403
0.0195851
-0.165353
0.0208194
-0.160467
0.0220062
-0.155784
0.023158
-0.151327
0.0242871
-0.147108
0.025406
-0.14312
0.0265271
-0.139337
-0.135706
0.0276625
0.000455613
-0.23778
0.00156234
-0.22498
0.00308859
-0.217027
0.00484889
-0.21142
0.0067054
-0.206746
0.00856297
-0.202239
0.0103618
-0.19757
0.012069
-0.192654
0.0136714
-0.187523
0.0151689
-0.182261
0.0165693
-0.176964
0.0178845
-0.171719
0.0191282
-0.166597
0.0203139
-0.161653
0.0214546
-0.156925
0.0225628
-0.152435
0.0236506
-0.148196
0.024731
-0.144201
0.0258171
-0.140423
-0.136811
0.0269222
0.000459011
-0.238239
0.0015655
-0.226087
0.00308208
-0.218543
0.00482099
-0.213158
0.00664472
-0.208569
0.0084599
-0.204054
0.010209
-0.199319
0.0118618
-0.194306
0.0134072
-0.189068
0.014847
-0.183701
0.0161904
-0.178307
0.0174504
-0.172979
0.0186412
-0.167788
0.0197766
-0.162788
0.0208695
-0.158017
0.0219322
-0.153498
0.0229769
-0.14924
0.0240165
-0.14524
0.0250653
-0.141472
-0.137884
0.0261382
0.000461238
-0.238701
0.00156561
-0.227191
0.00307005
-0.220048
0.00478474
-0.214873
0.0065728
-0.210357
0.00834281
-0.205824
0.0100397
-0.201016
0.0116357
-0.195902
0.0131219
-0.190554
0.014502
-0.185081
0.0157865
-0.179592
0.0169894
-0.174181
0.0181254
-0.168924
0.0192084
-0.163872
0.0202515
-0.159061
0.0212664
-0.154513
0.0222654
-0.150239
0.0232615
-0.146236
0.02427
-0.142481
-0.138922
0.0253078
0.000462449
-0.239163
0.00156311
-0.228292
0.00305319
-0.221538
0.00474106
-0.216561
0.00649076
-0.212107
0.008213
-0.207546
0.00985526
-0.202658
0.0113922
-0.197439
0.0128172
-0.191979
0.0141356
-0.186399
0.0153594
-0.180815
0.0165031
-0.175325
0.0175822
-0.170003
0.0186107
-0.1649
0.0196013
-0.160051
0.0205657
-0.155477
0.0215157
-0.151189
0.0224647
-0.147185
0.0234291
-0.143445
-0.13992
0.0244279
0.000462925
-0.239626
0.0015586
-0.229388
0.00303236
-0.223011
0.00469102
-0.21822
0.0063999
-0.213816
0.00807203
-0.209218
0.0096575
-0.204244
0.0111334
-0.198915
0.0124954
-0.193341
0.0137503
-0.187654
0.0149113
-0.181976
0.0159938
-0.176408
0.0170136
-0.171023
0.0179848
-0.165871
0.01892
-0.160986
0.0198305
-0.156388
0.0207276
-0.152086
0.021625
-0.148083
0.0225402
-0.14436
-0.140875
0.0234947
0.000463143
-0.240089
0.00155296
-0.230477
0.0030086
-0.224467
0.00463585
-0.219847
0.00630168
-0.215482
0.00792164
-0.210838
0.00944843
-0.205771
0.0108616
-0.200328
0.0121589
-0.194639
0.0133486
-0.188844
0.014445
-0.183073
0.0154643
-0.177427
0.0164221
-0.17198
0.0173329
-0.166782
0.018209
-0.161862
0.0190612
-0.15724
0.0199005
-0.152926
0.0207403
-0.148923
0.0215991
-0.145219
-0.141777
0.0225017
0.000463905
-0.240553
0.00154734
-0.231561
0.00298314
-0.225903
0.00457692
-0.221441
0.00619773
-0.217103
0.00776374
-0.212404
0.00923034
-0.207237
0.0105795
-0.201678
0.0118108
-0.19587
0.0129341
-0.189967
0.0139644
-0.184103
0.0149182
-0.178381
0.0158116
-0.172874
0.0166586
-0.167629
0.0174711
-0.162675
0.0182595
-0.158028
0.019034
-0.1537
0.0198077
-0.149696
0.0205998
-0.146011
-0.142618
0.0214407
0.000466359
-0.241019
0.00154305
-0.232637
0.00295718
-0.227317
0.00451561
-0.222999
0.00608973
-0.218677
0.00760041
-0.213915
0.00900569
-0.208643
0.0102899
-0.202962
0.0114545
-0.197034
0.0125105
-0.191023
0.0134737
-0.185066
0.0143608
-0.179268
0.0151875
-0.173701
0.0159675
-0.168409
0.0167121
-0.163419
0.0174307
-0.158747
0.0181323
-0.154402
0.018829
-0.150393
0.0195413
-0.146723
-0.143385
0.0203082
0.000471895
-0.241491
0.00154141
-0.233707
0.00293204
-0.228708
0.00445346
-0.224521
0.00597954
-0.220203
0.00743383
-0.215369
0.00877713
-0.209986
0.00999608
-0.204181
0.0110938
-0.198132
0.0120824
-0.192012
0.0129782
-0.185962
0.0137977
-0.180088
0.0145563
-0.174459
0.015267
-0.16912
0.0159401
-0.164093
0.0165841
-0.159391
0.0172063
-0.155024
0.0178168
-0.151003
0.0184362
-0.147343
-0.144054
0.0191045
0.000482844
-0.241974
0.00154504
-0.234769
0.00291019
-0.230073
0.00439259
-0.226003
0.00586911
-0.221679
0.00726614
-0.216766
0.00854718
-0.211267
0.00970118
-0.205335
0.0107328
-0.199164
0.0116549
-0.192934
0.0124839
-0.186791
0.0132359
-0.18084
0.0139253
-0.175149
0.014564
-0.169758
0.0151611
-0.16469
0.0157241
-0.159954
0.0162593
-0.155559
0.0167733
-0.151517
0.0172788
-0.147848
-0.144575
0.0177999
0.000506785
-0.242481
0.00156116
-0.235824
0.0028957
-0.231407
0.00433491
-0.227442
0.00575969
-0.223104
0.00709874
-0.218105
0.0083179
-0.212486
0.00940817
-0.206425
0.0103756
-0.200131
0.0112339
-0.193792
0.011999
-0.187556
0.0126861
-0.181527
0.0133078
-0.17577
0.0138731
-0.170324
0.0143879
-0.165205
0.0148558
-0.160422
0.0152788
-0.155982
0.0156557
-0.151894
0.0159909
-0.148184
-0.14493
0.0163465
0.000563837
-0.243045
0.00159807
-0.236858
0.00288831
-0.232698
0.00427924
-0.228833
0.00565079
-0.224476
0.00693204
-0.219387
0.00809057
-0.213645
0.00911936
-0.207454
0.010026
-0.201038
0.0108249
-0.194591
0.0115322
-0.188263
0.0121623
-0.182157
0.0127257
-0.176334
0.0132283
-0.170826
0.0136695
-0.165646
0.0140423
-0.160794
0.0143294
-0.15627
0.0145051
-0.15207
0.014564
-0.148243
-0.145102
0.0147357
0.250729
0.00041513
-0.251144
0.25034
0.000388773
0.249959
0.000381506
0.249577
0.000381641
0.249192
0.000384589
0.248803
0.000389003
0.248409
0.000394158
0.24801
0.000399466
0.247605
0.000404535
0.247196
0.000409159
0.246783
0.000413242
0.246366
0.000416757
0.245946
0.000419687
0.245524
0.000422009
0.245101
0.000423597
0.244676
0.000424248
0.244254
0.000422912
0.243834
0.000419042
0.243431
0.000403436
0.00038635
0.252701
0.00102373
-0.25331
0.252057
0.00103295
0.251384
0.00105406
0.250685
0.00108106
0.24996
0.00110943
0.249211
0.00113782
0.24844
0.00116574
0.247646
0.00119271
0.246833
0.0012183
0.245999
0.00124226
0.245148
0.00126448
0.24428
0.00128492
0.243396
0.00130359
0.242498
0.00132047
0.241586
0.00133544
0.240662
0.00134828
0.239727
0.00135789
0.238782
0.001364
0.237825
0.00136034
0.00135357
0.251483
0.00159579
-0.252055
0.250846
0.00166974
0.250157
0.0017439
0.249419
0.00181915
0.248635
0.00189316
0.247808
0.00196472
0.24694
0.00203347
0.246034
0.00209921
0.24509
0.00216169
0.244112
0.00222074
0.2431
0.00227632
0.242056
0.00232847
0.240983
0.00237729
0.23988
0.00242287
0.238751
0.00246523
0.237594
0.00250442
0.236412
0.00253991
0.235204
0.00257195
0.233967
0.00259814
0.00262267
0.247378
0.0020393
-0.247822
0.246865
0.00218291
0.246287
0.0023219
0.245648
0.0024577
0.244952
0.00258967
0.2442
0.002717
0.243394
0.00283937
0.242536
0.00295661
0.241629
0.00306857
0.240675
0.00317519
0.239675
0.00327648
0.238631
0.00337257
0.237544
0.00346368
0.236417
0.00355007
0.23525
0.00363203
0.234045
0.00370992
0.232801
0.00378383
0.231518
0.00385439
0.230196
0.00392089
0.00398532
0.24113
0.00231839
-0.241409
0.24078
0.00253332
0.24036
0.00274147
0.239874
0.00294368
0.239324
0.00313993
0.238711
0.00332975
0.238038
0.0035128
0.237305
0.0036889
0.236516
0.00385792
0.235671
0.00401984
0.234773
0.00417471
0.233823
0.00432275
0.232822
0.00446427
0.231773
0.00459975
0.230675
0.00472972
0.22953
0.00485488
0.228338
0.00497583
0.227099
0.00509352
0.225812
0.00520812
0.00532129
0.233532
0.00244174
-0.233655
0.233338
0.00272728
0.233075
0.00300488
0.232743
0.00327486
0.232346
0.00353723
0.231884
0.00379171
0.231359
0.00403795
0.230772
0.00427574
0.230125
0.00450492
0.22942
0.00472548
0.228657
0.00493751
0.227838
0.00514126
0.226965
0.00533718
0.226039
0.00552588
0.225061
0.00570819
0.224031
0.00588512
0.222949
0.00605774
0.221815
0.00622743
0.220628
0.00639505
0.00656244
0.225288
0.00243991
-0.225286
0.225222
0.0027935
0.225088
0.00313841
0.224889
0.00347457
0.224624
0.00380191
0.224296
0.00412015
0.223905
0.00442894
0.223452
0.00472803
0.22294
0.00501723
0.222369
0.00529648
0.221741
0.0055659
0.221056
0.00582576
0.220317
0.0060766
0.219523
0.0063192
0.218677
0.00655462
0.217778
0.00678425
0.216826
0.00700965
0.215821
0.0072327
0.214761
0.00745495
0.00767857
0.216926
0.00234909
-0.216835
0.216952
0.00276719
0.216915
0.00317601
0.216814
0.00357525
0.216651
0.0039647
0.216427
0.00434406
0.216143
0.00471293
0.2158
0.005071
0.2154
0.00541802
0.214942
0.0057539
0.214429
0.00607873
0.213862
0.00639278
0.213242
0.00669666
0.21257
0.00699128
0.211847
0.00727796
0.211073
0.00755846
0.210247
0.00783488
0.20937
0.00810975
0.20844
0.00838542
0.00866459
0.208793
0.0022026
-0.208646
0.208879
0.00268142
0.208904
0.00315039
0.20887
0.00360907
0.208778
0.00405715
0.208628
0.00449422
0.208421
0.00491985
0.208158
0.00533364
0.207841
0.00573528
0.20747
0.0061246
0.207047
0.00650163
0.206574
0.00686663
0.20605
0.0072202
0.205478
0.00756337
0.204858
0.00789771
0.204191
0.00822532
0.203477
0.00854898
0.202715
0.00887195
0.201903
0.00919768
0.00952971
0.201089
0.00202745
-0.200914
0.201207
0.0025634
0.201269
0.00308894
0.201274
0.00360351
0.201225
0.00410669
0.201121
0.00459799
0.200964
0.0050769
0.200755
0.00554293
0.200494
0.00599568
0.200184
0.00643488
0.199825
0.00686046
0.199419
0.00727259
0.198967
0.00767186
0.198471
0.0080593
0.197933
0.00843669
0.197351
0.00880648
0.196728
0.0091722
0.196062
0.009538
0.195351
0.00990884
0.0102895
0.193908
0.00184348
-0.193724
0.194038
0.00243347
0.194115
0.00301245
0.194138
0.00357977
0.19411
0.00413489
0.194031
0.00467724
0.193901
0.00520622
0.193723
0.00572123
0.193497
0.00622176
0.193225
0.00670741
0.192907
0.00717795
0.192546
0.00763341
0.192144
0.00807426
0.191702
0.00850145
0.191221
0.00891691
0.190705
0.00932328
0.190152
0.00972502
0.189563
0.0101272
0.188935
0.0105369
0.0109608
0.187272
0.00166413
-0.187093
0.1874
0.00230562
0.187477
0.00293552
0.187504
0.003553
0.187481
0.00415743
0.18741
0.00474815
0.187292
0.00532445
0.187128
0.00588564
0.186919
0.00643104
0.186666
0.0069601
0.186371
0.00747239
0.186037
0.00796771
0.185665
0.00844632
0.185258
0.00890891
0.184817
0.00935745
0.184346
0.00979453
0.183845
0.0102257
0.183316
0.0106567
0.182754
0.0110982
0.0115584
0.181162
0.0014977
-0.180996
0.181279
0.00218887
0.181347
0.00286769
0.181367
0.00353326
0.181339
0.00418488
0.181266
0.00482181
0.181147
0.00544322
0.180984
0.00604828
0.180779
0.00663619
0.180533
0.00720616
0.180248
0.00775753
0.179926
0.00828978
0.179569
0.00880283
0.179181
0.00929691
0.178765
0.00977386
0.178324
0.0102357
0.17786
0.0106895
0.177376
0.0111406
0.176869
0.0116055
0.0120934
0.175536
0.00134905
-0.175387
0.175636
0.00208837
0.175689
0.00281455
0.175696
0.00352663
0.175657
0.00422382
0.175574
0.00490526
0.175447
0.00557004
0.175278
0.00621719
0.175068
0.00684573
0.17482
0.00745465
0.174534
0.00804301
0.174214
0.00860986
0.173862
0.00915469
0.173482
0.00967695
0.173078
0.0101782
0.172655
0.0106591
0.172216
0.0111284
0.171767
0.0115893
0.171304
0.0120682
0.0125717
0.17034
0.00122044
-0.170211
0.170422
0.00200681
0.170457
0.0027791
0.170447
0.00353641
0.170393
0.00427784
0.170296
0.00500245
0.170157
0.00570922
0.169977
0.00639705
0.169758
0.00706478
0.169501
0.00771118
0.169209
0.00833497
0.168885
0.0089347
0.16853
0.0095093
0.16815
0.0100572
0.167749
0.0105793
0.167334
0.0110738
0.166911
0.0115518
0.16649
0.0120099
0.166066
0.0124921
0.0129919
0.165521
0.00111265
-0.165413
0.165582
0.00194499
0.165599
0.00276233
0.165572
0.00356376
0.165501
0.00434832
0.165389
0.00511497
0.165235
0.00586257
0.165043
0.00658994
0.164812
0.00729573
0.164544
0.00797847
0.164243
0.00863652
0.16391
0.00926795
0.163548
0.00987098
0.163162
0.0104427
0.162758
0.0109831
0.162346
0.0114866
0.16193
0.0119669
0.161533
0.0124072
0.161145
0.0128807
0.013342
0.161025
0.00102518
-0.160938
0.161068
0.00190243
0.161066
0.00276381
0.161022
0.00360833
0.160935
0.00443494
0.160808
0.00524253
0.16064
0.00602991
0.160434
0.00679575
0.160192
0.00753857
0.159913
0.00825666
0.159602
0.00894808
0.159259
0.00961039
0.158889
0.0102411
0.158496
0.0108358
0.158086
0.0113931
0.157671
0.011902
0.157259
0.012379
0.156882
0.0127841
0.156524
0.0132391
0.0135961
0.156807
0.000956188
-0.156738
0.156831
0.00187758
0.156813
0.00278184
0.156754
0.00366827
0.156653
0.00453574
0.156512
0.00538305
0.156333
0.00620897
0.156117
0.00701209
0.155865
0.00779079
0.155578
0.00854318
0.155259
0.00926705
0.15491
0.00995953
0.154534
0.0106174
0.154134
0.0112349
0.153719
0.011809
0.153299
0.0123219
0.152886
0.0127912
0.152531
0.0131397
0.152197
0.013573
0.0137232
0.152822
0.000903727
-0.15277
0.152832
0.00186759
0.152801
0.0028132
0.152729
0.00373999
0.152618
0.00464668
0.152469
0.00553207
0.152283
0.00639488
0.152062
0.00723364
0.151806
0.00804663
0.151517
0.00883184
0.151197
0.00958688
0.150848
0.0103085
0.150473
0.0109932
0.150074
0.0116337
0.149657
0.0122259
0.149234
0.0127445
0.148818
0.0132072
0.148484
0.0134744
0.148191
0.013866
0.0136713
0.149032
-0.148995
0.000866236
0.149031
0.0018685
0.148991
0.00285349
0.148913
0.00381843
0.148797
0.00476195
0.148646
0.00568296
0.148461
0.00658021
0.148243
0.00745216
0.147992
0.00829704
0.147711
0.00911275
0.147401
0.00989683
0.147064
0.0106459
0.146701
0.0113562
0.146315
0.0120197
0.145909
0.0126323
0.145491
0.013162
0.145068
0.0136307
0.144717
0.0138253
0.144459
0.0141238
0.0130282
0.254367
7.40814e-05
-0.254441
0.254331
3.63932e-05
0.254298
3.256e-05
0.254257
4.14933e-05
0.254201
5.59259e-05
0.254127
7.37789e-05
0.254033
9.37498e-05
0.253919
0.000114714
0.253783
0.000135858
0.253626
0.000156674
0.253449
0.000176723
0.253254
0.000195724
0.25304
0.000214174
0.252806
0.000233136
0.252556
0.000250425
0.25229
0.0002656
0.252012
0.000278265
0.251724
0.000288326
0.251434
0.000289923
0.000289934
0.25623
-0.000241529
-0.255915
0.256484
-0.000217555
0.256693
-0.000176624
0.256858
-0.000122817
0.256976
-6.26477e-05
0.257049
1.27968e-06
0.257075
6.78221e-05
0.257054
0.000135889
0.256985
0.000204555
0.256869
0.000272885
0.256706
0.000339636
0.256498
0.000403563
0.256249
0.000463424
0.255951
0.000530891
0.255609
0.000592588
0.255225
0.000649739
0.254801
0.000702192
0.254339
0.000749881
0.253841
0.000788151
0.000821224
0.251666
-0.00089827
-0.251009
0.252249
-0.00080136
0.252767
-0.000694599
0.253223
-0.000578155
0.253616
-0.000455539
0.253946
-0.000328997
0.254213
-0.000199674
0.254418
-6.89769e-05
0.25456
6.31033e-05
0.254637
0.000195987
0.25465
0.000325837
0.254602
0.000452281
0.254488
0.000577617
0.254316
0.000702703
0.254085
0.000823603
0.253795
0.00093949
0.253447
0.00104989
0.253042
0.0011547
0.252579
0.00125197
0.0013445
0.243347
-0.00183401
-0.242411
0.24421
-0.00166434
0.245002
-0.0014874
0.245727
-0.00130245
0.246382
-0.00111116
0.246969
-0.000915352
0.247485
-0.000716363
0.247932
-0.000515458
0.248308
-0.000313328
0.248611
-0.000107196
0.248843
9.47246e-05
0.249005
0.00028947
0.249097
0.000486137
0.24912
0.000679783
0.249074
0.000869342
0.24896
0.00105391
0.248777
0.00123273
0.248526
0.00140544
0.248207
0.00157098
0.00172991
0.233263
-0.00296867
-0.232129
0.23433
-0.00273077
0.235328
-0.00248536
0.236257
-0.002232
0.237118
-0.00197163
0.237908
-0.00170572
0.238628
-0.00143571
0.239275
-0.00116281
0.23985
-0.000887986
0.240354
-0.000612019
0.240787
-0.00033814
0.241145
-6.77578e-05
0.241429
0.000201198
0.241642
0.000466818
0.241783
0.00072871
0.241852
0.00098543
0.241848
0.00123625
0.241773
0.00148057
0.241626
0.00171757
0.0019472
0.222707
-0.00422984
-0.221445
0.223904
-0.00392859
0.225037
-0.00361827
0.226104
-0.00329901
0.227104
-0.00297163
0.228036
-0.00263756
0.228899
-0.00229837
0.229692
-0.00195552
0.230414
-0.00161046
0.231067
-0.00126454
0.231648
-0.000919308
0.232156
-0.000576063
0.232593
-0.000235667
0.232959
0.000100349
0.233255
0.000433459
0.233478
0.000762549
0.233629
0.00108495
0.233709
0.00140058
0.233718
0.00170881
0.00200941
0.212461
-0.00555991
-0.211131
0.213732
-0.00519951
0.214942
-0.00482792
0.216088
-0.00444577
0.217171
-0.00405413
0.218188
-0.00365461
0.219138
-0.003249
0.220022
-0.00283905
0.220838
-0.00242642
0.221586
-0.00201255
0.222266
-0.00159886
0.222876
-0.00118675
0.223418
-0.00077703
0.223888
-0.000370423
0.224296
2.54026e-05
0.224632
0.000426706
0.224899
0.000818397
0.225097
0.00120276
0.225226
0.00157972
0.00194888
0.202938
-0.00691709
-0.20158
0.204239
-0.00650086
0.205482
-0.00607104
0.206665
-0.00562864
0.207786
-0.00517517
0.208844
-0.00471263
0.209838
-0.00424316
0.210768
-0.00376877
0.211633
-0.00329129
0.212433
-0.00281235
0.213167
-0.00233342
0.213836
-0.00185588
0.21444
-0.0013808
0.214979
-0.000909124
0.215446
-0.000442226
0.215859
1.37601e-05
0.2162
0.000477273
0.216477
0.000926018
0.216689
0.00136821
0.00180249
0.194295
-0.00827358
-0.192939
0.195599
-0.00780405
0.196846
-0.00731823
0.198035
-0.00681747
0.199163
-0.00630391
0.200231
-0.00578017
0.201237
-0.0052488
0.20218
-0.00471214
0.203061
-0.00417223
0.203879
-0.00363086
0.204636
-0.00308957
0.205329
-0.00254969
0.205961
-0.00201241
0.20653
-0.00147864
0.207038
-0.000949802
0.207479
-0.000427195
0.207866
9.06892e-05
0.208187
0.000604382
0.208448
0.00110793
0.0016036
0.186542
-0.0096126
-0.185203
0.187829
-0.00909174
0.189063
-0.00855141
0.190238
-0.00799332
0.191355
-0.00742063
0.192412
-0.00683678
0.193408
-0.00624484
0.194343
-0.00564749
0.195218
-0.00504704
0.196032
-0.00444538
0.196787
-0.00384408
0.197482
-0.00324445
0.198117
-0.00264765
0.198693
-0.00205464
0.19921
-0.00146642
0.199666
-0.000883891
0.200065
-0.000307797
0.200407
0.000262289
0.200689
0.000825389
0.001379
0.179605
-0.0109255
-0.178292
0.180868
-0.010355
0.182077
-0.00976092
0.18323
-0.00914572
0.184323
-0.00851411
0.185357
-0.00787057
0.186331
-0.00721877
0.187245
-0.00656179
0.1881
-0.00590216
0.188897
-0.00524185
0.189635
-0.00458241
0.190316
-0.0039251
0.190939
-0.00327098
0.191506
-0.00262099
0.192015
-0.00197597
0.192468
-0.00133679
0.192864
-0.000703967
0.193207
-8.04348e-05
0.193493
0.000539152
0.00114798
0.17338
-0.0122091
-0.172096
0.174615
-0.0115908
0.175798
-0.0109431
0.176922
-0.0102702
0.177987
-0.0095792
0.178993
-0.00887581
0.179938
-0.00816436
0.180825
-0.00744834
0.181653
-0.00673048
0.182424
-0.00601273
0.183138
-0.00529657
0.183796
-0.00458315
0.184399
-0.00387344
0.184946
-0.00316828
0.185438
-0.00246846
0.185876
-0.0017748
0.18626
-0.00108805
0.18659
-0.000409776
0.186869
0.000260192
0.000923652
0.167757
-0.0134645
-0.166502
0.168967
-0.0128006
0.170122
-0.0120986
0.171219
-0.0113665
0.172254
-0.0106149
0.17323
-0.00985098
0.174145
-0.00907959
0.175001
-0.00830472
0.1758
-0.00752918
0.176542
-0.00675482
0.177228
-0.00598296
0.17786
-0.00521461
0.178437
-0.00445057
0.17896
-0.00369162
0.17943
-0.00293847
0.179847
-0.00219192
0.180212
-0.00145245
0.180523
-0.000720792
0.180787
-3.71719e-06
0.00071437
0.162637
-0.0146953
-0.161406
0.163826
-0.0139892
0.164958
-0.0132308
0.166028
-0.0124369
0.167037
-0.011623
0.167983
-0.0107971
0.168868
-0.00996491
0.169694
-0.0091309
0.170463
-0.00829783
0.171175
-0.00746733
0.171833
-0.00664046
0.172436
-0.005818
0.172986
-0.00500059
0.173483
-0.00418887
0.173928
-0.00338347
0.174322
-0.00258514
0.174664
-0.00179453
0.174956
-0.00101295
0.175194
-0.000242195
0.000521756
0.157937
-0.0159082
-0.156724
0.159112
-0.0151641
0.160226
-0.0143455
0.161275
-0.013486
0.162259
-0.0126066
0.163178
-0.011716
0.164034
-0.0108214
0.164831
-0.00992745
0.16557
-0.00903663
0.166252
-0.00815018
0.166881
-0.0072688
0.167456
-0.00639291
0.167978
-0.00552292
0.168448
-0.00465928
0.168868
-0.00380256
0.169236
-0.00295345
0.169554
-0.00211269
0.169822
-0.00128123
0.17004
-0.000460201
0.000350654
0.153593
-0.0171158
-0.152385
0.154764
-0.0163357
0.155868
-0.0154494
0.156901
-0.0145184
0.157862
-0.0135678
0.158754
-0.0126084
0.159582
-0.0116489
0.160348
-0.0106938
0.161056
-0.00974493
0.161709
-0.00880282
0.162308
-0.00786755
0.162854
-0.00693905
0.163348
-0.00601736
0.163792
-0.00510274
0.164185
-0.00419563
0.164528
-0.00329665
0.164822
-0.00240653
0.165067
-0.0015261
0.165263
-0.000656562
0.000201119
0.14956
-0.0183472
-0.148328
0.150743
-0.0175193
0.151843
-0.016549
0.152861
-0.0155366
0.153799
-0.0145055
0.154662
-0.0134711
0.155457
-0.0124441
0.15619
-0.0114272
0.156866
-0.0104207
0.157487
-0.00942386
0.158056
-0.00843594
0.158573
-0.0074561
0.159039
-0.00648395
0.159456
-0.00551951
0.159823
-0.00456309
0.160142
-0.00361524
0.160412
-0.0026767
0.160634
-0.00174836
0.160809
-0.000831185
7.24715e-05
0.145808
-0.0196671
-0.144488
0.147026
-0.0187367
0.148122
-0.0176449
0.14912
-0.0165354
0.150026
-0.0154114
0.150851
-0.0142959
0.151608
-0.0132005
0.152304
-0.0121233
0.152944
-0.0110611
0.153532
-0.0100119
0.15407
-0.00897352
0.154558
-0.00794426
0.154997
-0.0069233
0.155388
-0.00591046
0.155731
-0.00490596
0.156026
-0.00391036
0.156274
-0.00292444
0.156475
-0.00194924
0.156629
-0.00098575
-3.59134e-05
0.142354
-0.0211453
-0.140876
0.143603
-0.0199854
0.144677
-0.0187188
0.145634
-0.0174921
0.146491
-0.0162686
0.147267
-0.0150721
0.147978
-0.0139114
0.148633
-0.0127782
0.149237
-0.011665
0.149792
-0.010567
0.150299
-0.00948109
0.15076
-0.00840474
0.151173
-0.00733683
0.15154
-0.00627711
0.15186
-0.00522587
0.152133
-0.00418372
0.15236
-0.00315153
0.152542
-0.00213046
0.152678
-0.001122
-0.000127706
0.139267
-0.137849
-0.0225635
0.140429
-0.0211475
0.141463
-0.0197527
0.14234
-0.018369
0.143129
-0.0170578
0.143853
-0.0157957
0.144518
-0.0145765
0.145132
-0.0133929
0.145701
-0.0122339
0.146226
-0.0110914
0.146705
-0.00996065
0.14714
-0.00883925
0.147529
-0.00772601
0.147873
-0.00662082
0.148171
-0.00552414
0.148424
-0.00443677
0.148632
-0.00335966
0.148795
-0.00229384
0.148914
-0.00124087
-0.000208243
0.0308359
0.112044
-0.11056
-0.03232
0.0293243
0.115047
-0.113535
0.0277827
0.118182
-0.11664
0.0262075
0.121473
-0.119898
0.0245954
0.124952
-0.12334
0.0229436
0.128662
-0.12701
0.02125
0.13266
-0.130967
0.0195132
0.137027
-0.13529
0.0177326
0.141865
-0.140084
0.0159086
0.147306
-0.145482
0.0140429
0.153511
-0.151645
0.0121398
0.160667
-0.158764
0.0102082
0.168976
-0.167044
0.00826474
0.178625
-0.176682
0.00633938
0.189738
-0.187813
0.00448227
0.202279
-0.200422
0.00277321
0.21591
-0.214201
0.00133275
0.229776
-0.228335
0.000330263
0.242093
-0.24109
0.249727
-0.249397
0.0306467
0.113521
-0.0321232
0.0291427
0.116551
0.027609
0.119716
0.0260418
0.12304
0.0244379
0.126556
0.0227945
0.130306
0.0211093
0.134346
0.0193807
0.138755
0.0176081
0.143637
0.0157918
0.149122
0.0139336
0.155369
0.0120381
0.162563
0.0101149
0.170899
0.00818135
0.180559
0.00626863
0.191651
0.00442837
0.204119
0.00274186
0.217597
0.00132908
0.231188
0.000354026
0.243068
0.250081
0.0304155
0.114987
-0.0318823
0.0289214
0.118045
0.0273977
0.121239
0.0258408
0.124597
0.0242474
0.12815
0.0226145
0.131938
0.0209398
0.13602
0.0192217
0.140473
0.0174594
0.1454
0.0156531
0.150929
0.0138048
0.157218
0.0119195
0.164448
0.010007
0.172812
0.00808587
0.18248
0.00618795
0.193549
0.00436597
0.205941
0.00270175
0.219261
0.00131364
0.232577
0.000357099
0.244025
0.250438
0.030144
0.116442
-0.0315989
0.028662
0.119527
0.0271504
0.122751
0.0256058
0.126142
0.0240249
0.129731
0.0224045
0.133559
0.0207425
0.137682
0.019037
0.142179
0.017287
0.14715
0.015493
0.152723
0.0136569
0.159054
0.011784
0.166321
0.0098847
0.174711
0.00797801
0.184387
0.00609678
0.19543
0.00429442
0.207743
0.0026529
0.220902
0.00128891
0.233941
0.000352033
0.244961
0.25079
0.0298346
0.117883
-0.0312757
0.0283664
0.120995
0.0268689
0.124249
0.0253385
0.127672
0.0237718
0.131297
0.0221659
0.135165
0.0205183
0.13933
0.0188272
0.14387
0.0170917
0.148885
0.0153119
0.154502
0.0134902
0.160875
0.0116319
0.168179
0.00974782
0.176595
0.00785775
0.186277
0.00599522
0.197292
0.00421433
0.209524
0.00259705
0.22252
0.00125845
0.235279
0.000343113
0.245877
0.251133
0.0294896
0.119309
-0.0309154
0.0280369
0.122448
0.026555
0.12573
0.0250403
0.129187
0.0234895
0.132848
0.0218996
0.136755
0.0202682
0.140961
0.0185933
0.145545
0.016874
0.150604
0.0151104
0.156266
0.013305
0.162681
0.0114633
0.170021
0.00959664
0.178462
0.00772533
0.188148
0.00588364
0.199134
0.0041263
0.211281
0.00253521
0.224111
0.00122365
0.236591
0.000331506
0.246769
0.251465
0.029112
0.120719
-0.0305214
0.0276759
0.123884
0.0262108
0.127196
0.0247131
0.130685
0.0231794
0.134382
0.0216069
0.138327
0.0199931
0.142575
0.018336
0.147202
0.0166345
0.152306
0.014889
0.158012
0.0131017
0.164468
0.0112786
0.171844
0.00943145
0.180309
0.00758103
0.189998
0.00576237
0.200953
0.00403072
0.213013
0.0024678
0.225674
0.00118505
0.237874
0.000317919
0.247636
0.251783
0.0287046
0.122111
-0.030097
0.0272858
0.125303
0.0258382
0.128643
0.0243584
0.132164
0.022843
0.135897
0.021289
0.139881
0.019694
0.14417
0.018056
0.14884
0.016374
0.153988
0.014648
0.159737
0.0128808
0.166235
0.0110782
0.173647
0.00925255
0.182134
0.00742514
0.191826
0.00563167
0.202746
0.00392787
0.214717
0.00239518
0.227206
0.00114317
0.239126
0.000302955
0.248476
0.252086
0.0282703
0.123486
-0.0296457
0.0268689
0.126704
0.0254393
0.130073
0.0239779
0.133626
0.0224813
0.137394
0.0209467
0.141416
0.0193716
0.145745
0.017754
0.150458
0.0160927
0.155649
0.014388
0.161442
0.0126424
0.167981
0.0108623
0.175427
0.00906017
0.183937
0.0072579
0.193628
0.00549181
0.204512
0.00381805
0.216391
0.00231773
0.228707
0.0010985
0.240345
0.000287031
0.249288
0.252373
0.0278119
0.124845
-0.029171
0.0264274
0.128089
0.0250156
0.131485
0.0235727
0.135069
0.0220954
0.138871
0.0205808
0.14293
0.0190265
0.1473
0.0174304
0.152054
0.0157912
0.157289
0.0141092
0.163124
0.012387
0.169703
0.0106312
0.177182
0.00885451
0.185713
0.00707952
0.195403
0.00534304
0.206249
0.00370155
0.218032
0.00223579
0.230172
0.0010514
0.241529
0.000270391
0.250069
0.252643
0.0273318
0.12619
-0.0286761
0.0259631
0.129457
0.0245683
0.132879
0.0231436
0.136493
0.0216857
0.140329
0.0201916
0.144424
0.0186588
0.148832
0.0170852
0.153627
0.0154693
0.158904
0.0138116
0.164782
0.0121145
0.1714
0.0103849
0.178912
0.00863575
0.187462
0.0068902
0.197149
0.00518557
0.207953
0.00357866
0.219639
0.00214967
0.231601
0.00100215
0.242677
0.000253196
0.250818
0.252896
0.0268314
0.127522
-0.0281635
0.0254767
0.130812
0.0240977
0.134258
0.0226907
0.1379
0.0212521
0.141768
0.0197789
0.145897
0.0182684
0.150343
0.0167183
0.155177
0.0151272
0.160495
0.0134952
0.166414
0.011825
0.17307
0.0101234
0.180614
0.00840397
0.189182
0.00669008
0.198862
0.00501964