/*--------------------------------*- C++ -*----------------------------------*\
  =========                 |
  \\      /  F ield         | OpenFOAM: The Open Source CFD Toolbox
   \\    /   O peration     | Website:  https://openfoam.org
    \\  /    A nd           | Version:  6.0
     \\/     M anipulation  |
\*---------------------------------------------------------------------------*/
FoamFile
{
    version     2.0;
    format      ascii;
    class       volVectorField;
    location    "3";
    object      U;
}
// * * * * * * * * * * * * * * * * * * * * * * * * * * * * * * * * * * * * * //

dimensions      [0 1 -1 0 0 0 0];

internalField   nonuniform List<vector> 
9600
(
(1.26382 -16.6809 -2.21832e-20)
(0.261397 -15.6597 -2.36209e-20)
(0.236925 -14.7056 2.72746e-21)
(0.290315 -13.8039 -1.36071e-20)
(0.281606 -12.9599 5.87199e-21)
(0.269562 -12.1633 -4.12631e-21)
(0.26133 -11.4092 -8.50433e-21)
(0.252972 -10.6961 8.14269e-21)
(0.244118 -10.023 2.39958e-21)
(0.235186 -9.38906 -3.99584e-20)
(0.226355 -8.79302 2.10033e-20)
(0.217722 -8.23369 -1.77696e-20)
(0.209385 -7.70968 -7.48969e-21)
(0.201436 -7.21949 9.60295e-21)
(0.193964 -6.76147 -6.37061e-21)
(0.187016 -6.33383 -3.21474e-21)
(0.180598 -5.93465 5.27595e-21)
(0.175058 -5.5619 -6.20703e-21)
(0.17116 -5.21357 -1.51865e-21)
(0.165823 -4.88788 -2.87843e-21)
(1.91628 -16.6181 -2.26588e-19)
(0.877052 -15.6416 -1.13055e-19)
(0.815683 -14.6923 5.48776e-20)
(0.833682 -13.7904 -6.65283e-20)
(0.791878 -12.9475 1.79192e-20)
(0.748605 -12.1515 -1.85279e-20)
(0.710793 -11.3977 7.22078e-20)
(0.674459 -10.6848 -2.78903e-21)
(0.639213 -10.0119 -4.28124e-20)
(0.605444 -9.37821 5.22101e-20)
(0.573287 -8.78251 2.48021e-20)
(0.542789 -8.22358 -1.91165e-21)
(0.513989 -7.70003 2.7751e-20)
(0.48692 -7.21038 -1.6111e-21)
(0.461607 -6.753 1.00658e-20)
(0.438025 -6.32609 2.43157e-20)
(0.416107 -5.92772 9.90721e-21)
(0.396175 -5.5558 1.30397e-20)
(0.379029 -5.20819 -5.89004e-21)
(0.361172 -4.88314 1.1732e-20)
(2.5672 -16.5309 3.70137e-19)
(1.49142 -15.5996 2.42584e-19)
(1.39349 -14.656 -3.39036e-19)
(1.3763 -13.7553 -1.51178e-19)
(1.30151 -12.9149 1.1885e-19)
(1.22705 -12.1208 1.96857e-19)
(1.15967 -11.3684 -2.30307e-19)
(1.09537 -10.6568 5.41103e-20)
(1.03374 -9.98521 -1.00458e-19)
(0.975149 -9.35277 -6.45263e-20)
(0.919684 -8.75835 5.51926e-20)
(0.867344 -8.20071 -2.89426e-20)
(0.818111 -7.67846 -7.46225e-20)
(0.771958 -7.19013 3.87888e-20)
(0.728847 -6.73411 -1.22469e-20)
(0.688682 -6.30862 -1.32251e-21)
(0.651325 -5.91172 1.22934e-20)
(0.617069 -5.54128 2.37637e-20)
(0.586729 -5.195 -2.77743e-20)
(0.556354 -4.87121 2.27119e-20)
(3.21342 -16.4185 -2.00161e-19)
(2.10327 -15.5338 9.33244e-20)
(1.96934 -14.5975 1.16302e-19)
(1.91727 -13.6992 1.52915e-19)
(1.8097 -12.8624 -5.20131e-20)
(1.70415 -12.0715 3.91264e-20)
(1.60727 -11.3216 -2.95635e-20)
(1.51505 -10.6124 6.25296e-20)
(1.42708 -9.94313 1.32896e-19)
(1.34372 -9.31296 -7.74694e-20)
(1.265 -8.72077 -4.59636e-20)
(1.19088 -8.16529 -4.68036e-20)
(1.12127 -7.64516 -1.4856e-20)
(1.0561 -7.15891 3.53682e-20)
(0.995262 -6.70495 -2.13124e-20)
(0.938594 -6.28155 -6.51791e-20)
(0.885888 -5.88677 4.92925e-20)
(0.837404 -5.51841 -2.97575e-20)
(0.793958 -5.17407 -2.66995e-21)
(0.751105 -4.85217 -2.39665e-21)
(3.8551 -16.2813 -2.54629e-19)
(2.71229 -15.4445 -4.25705e-19)
(2.54264 -14.5165 4.7898e-19)
(2.45584 -13.622 -1.32137e-19)
(2.31568 -12.7901 -3.53403e-19)
(2.17917 -12.0034 -8.1533e-21)
(2.05287 -11.2573 -1.26084e-19)
(1.93281 -10.5515 -3.38862e-20)
(1.8186 -9.88564 -8.09817e-20)
(1.71055 -9.25874 1.81283e-19)
(1.60867 -8.66971 -2.40812e-19)
(1.51286 -8.11728 5.96744e-20)
(1.42298 -7.60009 -9.0613e-20)
(1.33888 -7.11668 1.1829e-19)
(1.26042 -6.66551 -1.03251e-19)
(1.18735 -6.24487 5.32425e-20)
(1.11941 -5.85285 -2.95836e-20)
(1.05683 -5.4872 7.87184e-21)
(1.00039 -5.14539 2.7901e-20)
(0.945135 -4.82601 -4.25662e-21)
(4.49088 -16.1194 6.31637e-20)
(3.31744 -15.3318 3.91299e-19)
(3.11252 -14.4135 2.44034e-19)
(2.99119 -13.524 -1.57018e-19)
(2.81865 -12.6981 3.96273e-19)
(2.65135 -11.9168 6.39272e-20)
(2.49577 -11.1755 9.5291e-21)
(2.34801 -10.4743 -1.40624e-19)
(2.20768 -9.81287 3.24118e-20)
(2.07507 -9.19024 1.80493e-19)
(1.95016 -8.60531 -7.7343e-20)
(1.83277 -8.0568 1.42544e-19)
(1.72274 -7.54336 -3.59612e-20)
(1.61984 -7.06355 -2.78659e-20)
(1.52388 -6.61587 6.01073e-20)
(1.43455 -6.19866 6.07989e-20)
(1.35151 -5.81003 -3.19848e-20)
(1.27498 -5.44769 2.22601e-20)
(1.2057 -5.10902 -6.4587e-20)
(1.13816 -4.79278 7.75397e-20)
(5.12 -15.9329 5.86424e-19)
(3.91799 -15.1957 -7.02853e-19)
(3.67822 -14.2884 -5.6632e-19)
(3.52258 -13.4051 5.64798e-19)
(3.31788 -12.5865 -1.9581e-19)
(3.11998 -11.8118 -2.57998e-19)
(2.93528 -11.0764 2.22746e-19)
(2.75997 -10.3809 1.01075e-20)
(2.59368 -9.7249 6.97002e-20)
(2.43668 -9.10753 -2.12127e-19)
(2.28889 -8.52763 9.96244e-20)
(2.1501 -7.98392 -7.65615e-20)
(2.02007 -7.47503 2.07571e-19)
(1.89853 -6.99958 -1.10386e-19)
(1.78521 -6.55609 6.47685e-21)
(1.67977 -6.14296 -1.31798e-20)
(1.5818 -5.75835 -1.10146e-20)
(1.49149 -5.39993 2.17079e-20)
(1.40955 -5.06499 1.23395e-20)
(1.32988 -4.75253 -1.46881e-20)
(5.74144 -15.722 -8.54043e-19)
(4.513 -15.0364 4.59607e-19)
(4.2389 -14.1413 9.20888e-20)
(4.04918 -13.2655 -9.65487e-21)
(3.81259 -12.4553 4.30047e-22)
(3.58431 -11.6884 1.69921e-19)
(3.37071 -10.9601 -4.38476e-19)
(3.16805 -10.2714 -4.00473e-20)
(2.976 -9.62186 -7.5006e-20)
(2.7948 -9.01073 1.02465e-19)
(2.62433 -8.43678 6.97423e-21)
(2.46433 -7.89874 8.3636e-20)
(2.31447 -7.39523 -1.13443e-20)
(2.17446 -6.92488 -1.82172e-19)
(2.04397 -6.48628 -3.35292e-20)
(1.9226 -6.07788 1.47727e-19)
(1.80989 -5.6979 -5.28997e-20)
(1.70601 -5.344 -1.18131e-20)
(1.61161 -5.01337 -2.82082e-21)
(1.51999 -4.70532 7.42914e-21)
(6.35431 -15.4871 5.42216e-19)
(5.10162 -14.8541 -5.13509e-19)
(4.79374 -13.9726 -7.07549e-19)
(4.57023 -13.1054 -8.74678e-20)
(4.30204 -12.3049 -2.75065e-19)
(4.04364 -11.5468 -8.94174e-20)
(3.80136 -10.8267 -2.39724e-19)
(3.57159 -10.1458 4.06379e-19)
(3.35401 -9.50388 -1.67498e-19)
(3.14885 -8.89996 -7.4034e-20)
(2.95593 -8.3329 -2.31105e-20)
(2.77492 -7.80139 9.74489e-20)
(2.60547 -7.30405 -1.03712e-21)
(2.44719 -6.83956 -2.58172e-20)
(2.29972 -6.40653 -5.31891e-20)
(2.16262 -6.00351 -6.08385e-20)
(2.03538 -5.62877 8.64577e-20)
(1.91815 -5.27998 3.07982e-20)
(1.81152 -4.95423 -1.39589e-19)
(1.70819 -4.65124 9.73005e-21)
(6.95767 -15.2284 -5.37555e-19)
(5.68296 -14.6491 1.16368e-18)
(5.3419 -13.7823 -8.24737e-19)
(5.08493 -12.9251 4.93854e-19)
(4.78545 -12.1353 5.78963e-19)
(4.49723 -11.3872 -1.85608e-19)
(4.22656 -10.6765 1.51977e-20)
(3.96995 -10.0045 4.69251e-20)
(3.72711 -9.37111 1.58913e-19)
(3.49825 -8.77538 -1.55226e-19)
(3.28314 -8.21612 -8.38827e-20)
(3.08138 -7.69199 9.68703e-20)
(2.89256 -7.20164 -6.45055e-22)
(2.71624 -6.74374 1.3272e-20)
(2.55201 -6.31697 1.37992e-19)
(2.39939 -5.91996 -6.96941e-20)
(2.25785 -5.55107 1.23906e-20)
(2.12753 -5.20796 -7.20304e-20)
(2.00892 -4.88768 1.85925e-19)
(1.89414 -4.59036 9.67825e-20)
(7.55064 -14.9464 7.89984e-19)
(6.25617 -14.4216 1.52788e-19)
(5.88257 -13.5708 3.07264e-19)
(5.59249 -12.7246 -3.19983e-19)
(5.26209 -11.9468 9.06848e-20)
(4.94438 -11.2099 5.85335e-19)
(4.64562 -10.5096 -7.83052e-20)
(4.36248 -9.84754 3.70146e-19)
(4.0947 -9.22372 -2.24201e-19)
(3.84243 -8.63715 1.3402e-19)
(3.60542 -8.0866 2.6553e-19)
(3.38319 -7.57071 -8.09452e-20)
(3.17526 -7.08813 1.1299e-19)
(2.98114 -6.63756 -3.23082e-20)
(2.8004 -6.21773 -1.36814e-19)
(2.6325 -5.82737 1.87538e-19)
(2.47689 -5.46492 -4.7841e-20)
(2.33372 -5.12806 1.64832e-19)
(2.20341 -4.81382 1.27388e-20)
(2.07749 -4.52279 -2.25377e-19)
(8.13233 -14.6414 -2.35147e-18)
(6.82039 -14.1719 3.74871e-19)
(6.41492 -13.3382 -2.77918e-19)
(6.09213 -12.5043 -8.13119e-19)
(5.73121 -11.7395 -1.29775e-19)
(5.38437 -11.0149 -1.47681e-19)
(5.05788 -10.3261 -5.35032e-20)
(4.74855 -9.67515 -2.6188e-19)
(4.45616 -9.06191 -1.31401e-19)
(4.18083 -8.48545 -2.37311e-20)
(3.92223 -7.9445 -6.87665e-20)
(3.67983 -7.43771 1.0592e-19)
(3.45308 -6.96369 5.74536e-20)
(3.24144 -6.52117 -3.18278e-19)
(3.04441 -6.10896 1.25183e-19)
(2.86148 -5.72586 -1.28062e-19)
(2.69206 -5.37044 -7.3746e-20)
(2.53631 -5.0404 6.41856e-20)
(2.3946 -4.73274 3.2012e-20)
(2.25787 -4.44864 -6.16602e-20)
(8.70192 -14.3138 2.98094e-18)
(7.37481 -13.9003 1.27553e-18)
(6.93816 -13.0848 5.55487e-19)
(6.58308 -12.2644 5.28079e-19)
(6.19206 -11.5138 -2.32091e-19)
(5.81649 -10.8026 1.19482e-18)
(5.46266 -10.1265 -5.06141e-19)
(5.12753 -9.48755 9.13892e-19)
(4.8109 -8.88589 -3.29771e-19)
(4.51287 -8.32047 5.69276e-19)
(4.23304 -7.79001 2.45503e-19)
(3.9708 -7.29314 1.37541e-19)
(3.72553 -6.82846 -3.33781e-19)
(3.49664 -6.39472 2.77607e-19)
(3.28361 -5.99079 -5.91924e-20)
(3.08588 -5.61558 1.93615e-19)
(2.90291 -5.26777 4.95294e-20)
(2.73486 -4.94512 1.99656e-19)
(2.58207 -4.64462 -4.67151e-20)
(2.43491 -4.36806 -2.88725e-21)
(9.2586 -13.9642 -1.53449e-18)
(7.91861 -13.6073 7.37259e-19)
(7.45149 -12.8111 1.14123e-19)
(7.06459 -12.0052 -9.49553e-19)
(6.64392 -11.2699 -3.65008e-20)
(6.24007 -10.5732 1.27083e-20)
(5.85933 -9.91078 1.82681e-19)
(5.49881 -9.28498 -2.25382e-19)
(5.15836 -8.69587 8.69244e-20)
(4.83802 -8.14241 9.2981e-20)
(4.53733 -7.62332 -1.54055e-19)
(4.2556 -7.13718 -1.01443e-19)
(3.99213 -6.6826 5.35795e-20)
(3.74629 -6.25836 -8.27028e-20)
(3.51751 -5.86337 2.5619e-19)
(3.30524 -5.49667 -2.6358e-19)
(3.10896 -5.15706 -1.50571e-19)
(2.9289 -4.84237 2.15521e-19)
(2.76534 -4.54959 -8.02465e-20)
(2.60816 -4.28125 -9.93124e-20)
(9.8016 -13.5929 -7.86065e-19)
(8.45098 -13.2931 -8.23099e-19)
(7.9541 -12.5172 -1.98493e-19)
(7.53589 -11.727 9.67942e-19)
(7.08608 -11.0082 -4.19101e-19)
(6.65443 -10.3271 2.16044e-20)
(6.24723 -9.67939 -9.50323e-19)
(5.86179 -9.06771 1.5027e-19)
(5.49796 -8.4921 -1.86699e-19)
(5.15574 -7.95151 1.53451e-19)
(4.83459 -7.44462 -3.37656e-19)
(4.53374 -6.97 1.4312e-19)
(4.25241 -6.52628 -1.8927e-19)
(3.9899 -6.11222 1.12821e-19)
(3.74563 -5.72683 6.31145e-20)
(3.51904 -5.36923 -7.35177e-20)
(3.30967 -5.03839 -2.73981e-19)
(3.11783 -4.73222 1.48561e-19)
(2.94379 -4.44779 -5.90651e-20)
(2.77696 -4.1884 2.39664e-20)
(10.3302 -13.2005 2.87102e-18)
(8.97114 -12.9581 -5.37703e-19)
(8.44519 -12.2036 -6.82795e-19)
(7.99622 -11.4302 2.78555e-19)
(7.51783 -10.7289 3.56985e-19)
(7.05888 -10.0645 -4.99947e-19)
(6.62573 -9.43258 3.13573e-19)
(6.21587 -8.83601 -4.09251e-19)
(5.82914 -8.27483 4.81412e-19)
(5.46551 -7.74798 -4.86969e-19)
(5.12433 -7.25412 2.08434e-19)
(4.80475 -6.7918 -3.99126e-20)
(4.50592 -6.35964 -3.25994e-20)
(4.22705 -5.95645 -1.98232e-19)
(3.96753 -5.58125 3.03627e-19)
(3.72682 -5.23332 -5.09316e-21)
(3.50452 -4.9118 -2.13362e-20)
(3.30105 -4.61473 -6.53233e-21)
(3.11669 -4.33925 -1.01751e-20)
(2.94049 -4.08935 -7.34689e-20)
(10.844 -12.7878 -2.36842e-18)
(9.47847 -12.603 -3.42136e-19)
(8.924 -11.8706 -4.15133e-19)
(8.44483 -11.1152 -2.11209e-18)
(7.93846 -10.4324 -1.01794e-18)
(7.45277 -9.78573 1.14428e-18)
(6.99421 -9.17065 -3.86007e-19)
(6.56046 -8.59015 1.89687e-19)
(6.15137 -8.04433 2.66393e-19)
(5.76682 -7.53207 6.64781e-20)
(5.40608 -7.05202 1.55464e-19)
(5.0682 -6.60274 -7.4447e-20)
(4.75223 -6.18285 1.82965e-19)
(4.45733 -5.79116 -1.62633e-19)
(4.18285 -5.42677 4.80982e-20)
(3.92822 -5.08908 -3.70285e-19)
(3.69313 -4.77742 2.37981e-19)
(3.47815 -4.49002 1.40913e-19)
(3.28365 -4.22403 1.51221e-19)
(3.09856 -3.98387 -3.05766e-20)
(11.3431 -12.3557 1.07771e-18)
(9.97264 -12.2281 8.34484e-19)
(9.38989 -11.5187 6.37429e-19)
(8.88098 -10.7822 1.8397e-18)
(8.34724 -10.119 -1.63912e-18)
(7.83541 -9.49115 4.18574e-19)
(7.35203 -8.89392 -5.755e-21)
(6.89499 -8.33048 -3.72153e-19)
(6.46411 -7.80089 3.55509e-19)
(6.05918 -7.30404 -9.78738e-20)
(5.67937 -6.83855 -1.00056e-19)
(5.32363 -6.40299 -4.06207e-20)
(4.99091 -5.99599 9.87281e-20)
(4.68031 -5.61642 2.63514e-21)
(4.39108 -5.26341 -1.43271e-19)
(4.12271 -4.93654 -1.57353e-19)
(3.875 -4.63536 -2.13653e-19)
(3.64875 -4.35823 1.07865e-19)
(3.44458 -4.10245 -1.33199e-19)
(3.25158 -3.87338 3.32075e-20)
(11.8275 -11.905 -1.50298e-19)
(10.4534 -11.8335 -1.78966e-18)
(9.84234 -11.1479 -1.58751e-19)
(9.30397 -10.4315 -2.83472e-20)
(8.74348 -9.78924 3.09702e-19)
(8.20618 -9.18125 9.63256e-19)
(7.69864 -8.6029 -2.77124e-19)
(7.21894 -8.05742 -3.86418e-19)
(6.7669 -7.54492 4.25939e-20)
(6.34219 -7.06422 1.5482e-19)
(5.94385 -6.61396 -1.22228e-19)
(5.57072 -6.19271 -1.21589e-19)
(5.22163 -5.79916 -1.65843e-20)
(4.89551 -5.43214 1.16216e-19)
(4.59158 -5.09095 -4.33857e-19)
(4.30931 -4.77528 2.00726e-19)
(4.04871 -4.4849 6.42602e-20)
(3.81092 -4.21845 -7.9176e-20)
(3.59678 -3.97448 8.30286e-20)
(3.39608 -3.76145 1.21053e-19)
(12.2956 -11.4342 7.57577e-19)
(10.9198 -11.4185 1.73011e-18)
(10.2806 -10.7584 2.43426e-19)
(9.71316 -10.064 -1.23255e-19)
(9.12661 -9.44372 9.61092e-19)
(8.5646 -8.85669 -2.52958e-19)
(8.03364 -8.29818 -2.7715e-19)
(7.53199 -7.77156 6.71441e-19)
(7.05946 -7.27692 -3.95191e-19)
(6.61561 -6.81307 1.75831e-19)
(6.19937 -6.37866 -2.93199e-20)
(5.80941 -5.97226 -4.14391e-20)
(5.44438 -5.5925 -1.58803e-19)
(5.10308 -5.23832 1.85734e-19)
(4.7845 -4.90901 -4.39786e-19)
(4.48793 -4.60431 2.016e-19)
(4.21333 -4.32405 -5.54294e-20)
(3.9616 -4.06776 -1.12347e-20)
(3.73264 -3.8376 1.57881e-19)
(3.51946 -3.64475 -2.58698e-19)
(16.8574 0.612746 1.28516e-19)
(16.8616 -0.0519604 -4.24858e-20)
(16.8397 -0.714961 -2.21815e-19)
(16.793 -1.37568 6.0047e-19)
(16.7214 -2.03349 -6.67456e-19)
(16.6243 -2.68754 -3.01581e-19)
(16.5018 -3.33689 2.37785e-19)
(16.3541 -3.98063 3.3193e-19)
(16.1814 -4.61783 -2.49857e-19)
(15.9839 -5.24756 2.55736e-19)
(15.7621 -5.8689 1.29529e-21)
(15.5162 -6.48094 1.74074e-20)
(15.2467 -7.08276 -1.85976e-19)
(14.954 -7.67349 7.81972e-19)
(14.6386 -8.25229 -7.96074e-19)
(14.3011 -8.81827 5.63263e-19)
(13.9417 -9.37083 -7.81288e-19)
(13.5619 -9.90893 1.88781e-18)
(13.1605 -10.4329 -1.49424e-19)
(12.7418 -10.9403 6.28377e-20)
(15.9314 -0.353917 -2.45782e-20)
(15.8997 -0.980282 -1.33909e-19)
(15.8427 -1.60356 2.52777e-19)
(15.7614 -2.22314 4.09075e-19)
(15.6559 -2.83851 -1.0355e-19)
(15.5261 -3.44889 -5.45799e-19)
(15.3724 -4.05335 1.00269e-18)
(15.195 -4.65099 -2.02664e-19)
(14.9942 -5.2409 -1.15294e-18)
(14.7704 -5.8222 5.72572e-19)
(14.524 -6.39403 2.08759e-19)
(14.2554 -6.95553 1.05925e-18)
(13.9652 -7.50586 -2.02219e-18)
(13.6537 -8.04422 -3.29984e-22)
(13.3215 -8.56985 5.11784e-19)
(12.9693 -9.08199 8.24732e-19)
(12.5973 -9.58004 3.79002e-19)
(12.2066 -10.0632 -5.05286e-19)
(11.7966 -10.5314 -1.17546e-18)
(11.3684 -10.9832 1.15099e-18)
(15.008 -0.347708 7.19562e-20)
(14.9806 -0.936111 -8.74044e-20)
(14.9292 -1.52233 5.18674e-20)
(14.8543 -2.10553 -1.81311e-19)
(14.7559 -2.68501 2.21064e-19)
(14.6344 -3.25992 5.55668e-19)
(14.49 -3.82935 -5.87023e-19)
(14.3229 -4.39239 9.51615e-20)
(14.1336 -4.94816 3.89654e-19)
(13.9224 -5.4958 8.24423e-19)
(13.6897 -6.03446 -1.86585e-19)
(13.4359 -6.56332 1.37456e-18)
(13.1615 -7.08159 6.47724e-20)
(12.8669 -7.58848 -1.50263e-18)
(12.5527 -8.08327 -2.02425e-19)
(12.2194 -8.5652 3.20845e-19)
(11.8673 -9.03367 -8.38652e-19)
(11.4971 -9.48788 -3.78381e-19)
(11.1091 -9.92743 -7.58957e-19)
(10.7034 -10.351 7.87514e-19)
(14.086 -0.267685 2.2671e-20)
(14.0652 -0.818696 5.19882e-20)
(14.0221 -1.36836 2.14083e-20)
(13.9565 -1.91572 -4.889e-19)
(13.8688 -2.45993 3.02848e-19)
(13.7591 -3.00011 -8.66936e-20)
(13.6278 -3.5354 2.75825e-19)
(13.475 -4.06494 -1.0085e-20)
(13.3011 -4.58786 -5.88405e-19)
(13.1064 -5.10334 1.05438e-20)
(12.8913 -5.61058 -3.28912e-19)
(12.6562 -6.10878 8.49112e-20)
(12.4014 -6.59717 -1.72071e-18)
(12.1275 -7.075 8.70885e-19)
(11.8349 -7.54154 -7.83077e-19)
(11.5241 -7.99606 -1.4949e-19)
(11.1955 -8.43794 -1.98901e-18)
(10.8496 -8.86634 1.99792e-18)
(10.4869 -9.2808 -9.41312e-19)
(10.1077 -9.68008 -5.96885e-19)
(13.2002 -0.253486 6.14521e-21)
(13.1827 -0.768851 -8.43708e-20)
(13.1443 -1.28326 1.24252e-19)
(13.0849 -1.79578 1.52437e-19)
(13.0047 -2.30554 -1.78275e-19)
(12.9038 -2.81171 5.7543e-19)
(12.7825 -3.31346 3.59909e-19)
(12.6411 -3.80998 -1.15796e-19)
(12.4797 -4.30047 -1.24725e-19)
(12.2987 -4.78414 3.81232e-19)
(12.0985 -5.26022 6.73636e-19)
(11.8794 -5.72795 2.741e-19)
(11.6417 -6.18658 1.75406e-19)
(11.3859 -6.6354 -4.50306e-19)
(11.1124 -7.07372 -1.06518e-18)
(10.8217 -7.50079 1.18568e-18)
(10.5142 -7.91599 1.2541e-18)
(10.1904 -8.31854 -8.83337e-19)
(9.85096 -8.70792 3.12846e-19)
(9.49599 -9.08306 -6.47201e-20)
(12.3619 -0.2446 1.39163e-20)
(12.3466 -0.72632 -1.94422e-20)
(12.3118 -1.20729 -9.78751e-20)
(12.2575 -1.68666 4.10138e-20)
(12.1836 -2.16361 2.70938e-21)
(12.0904 -2.63734 1.76199e-20)
(11.978 -3.10708 -2.68458e-19)
(11.8467 -3.57206 1.99442e-19)
(11.6967 -4.03152 -4.07936e-19)
(11.5283 -4.48474 4.18593e-19)
(11.3418 -4.93098 -2.4005e-20)
(11.1374 -5.36948 -3.95761e-19)
(10.9157 -5.79961 1.51465e-19)
(10.6769 -6.22062 1.22831e-18)
(10.4215 -6.63186 7.05602e-19)
(10.1498 -7.03264 -5.07134e-19)
(9.86238 -7.42234 -7.37931e-19)
(9.55962 -7.80021 3.68444e-19)
(9.24215 -8.16575 -2.42051e-19)
(8.91013 -8.51798 7.803e-19)
(11.5746 -0.232897 -9.22504e-21)
(11.561 -0.683056 4.35586e-20)
(11.5292 -1.1326 3.12176e-20)
(11.4791 -1.58077 -3.98687e-20)
(11.4108 -2.02679 1.42622e-19)
(11.3243 -2.4699 -4.07704e-19)
(11.22 -2.9094 2.33103e-19)
(11.0979 -3.34454 -1.71593e-19)
(10.9583 -3.77464 -3.73243e-21)
(10.8014 -4.19899 -2.70154e-19)
(10.6275 -4.6169 4.09288e-19)
(10.437 -5.02771 1.04185e-18)
(10.2301 -5.43074 -1.15659e-18)
(10.0072 -5.82534 -1.43259e-20)
(9.76868 -6.21088 -1.08335e-18)
(9.51494 -6.58671 3.18366e-19)
(9.2464 -6.9522 -3.46258e-19)
(8.96351 -7.30669 -5.10259e-21)
(8.66685 -7.64968 8.09274e-19)
(8.35655 -7.98024 -1.93494e-20)
(10.8385 -0.221897 -3.93949e-21)
(10.826 -0.64258 2.85004e-20)
(10.7966 -1.06275 1.04128e-20)
(10.7501 -1.48169 -1.62946e-19)
(10.6865 -1.8987 1.69643e-19)
(10.606 -2.31307 -1.4905e-19)
(10.5087 -2.72412 4.37065e-19)
(10.3949 -3.13118 -4.24088e-20)
(10.2646 -3.53359 -2.39551e-19)
(10.1182 -3.9307 4.84491e-20)
(9.95586 -4.32186 -9.22792e-20)
(9.7779 -4.70646 -2.40326e-19)
(9.58462 -5.08386 -3.47327e-19)
(9.37635 -5.45346 -2.31731e-19)
(9.15346 -5.81465 -2.61587e-19)
(8.91633 -6.16681 -2.9754e-19)
(8.6654 -6.5094 -2.44463e-19)
(8.40096 -6.84171 -3.75226e-19)
(8.1237 -7.16332 4.75449e-20)
(7.83373 -7.47333 1.35889e-20)
(10.1515 -0.211809 2.66579e-21)
(10.1398 -0.605009 3.96582e-21)
(10.1123 -0.997754 -1.20244e-21)
(10.0688 -1.3894 -4.2631e-20)
(10.0093 -1.77927 -1.01147e-19)
(9.93405 -2.16671 -5.84585e-20)
(9.84311 -2.5511 -2.98482e-19)
(9.73666 -2.93181 2.77889e-19)
(9.61486 -3.30821 -1.604e-19)
(9.47793 -3.67972 3.51798e-19)
(9.3261 -4.04572 -7.43851e-20)
(9.15964 -4.40564 6.05353e-19)
(8.97884 -4.75889 3.17009e-20)
(8.78402 -5.10491 8.23824e-19)
(8.57552 -5.44314 -5.58213e-19)
(8.35371 -5.77298 4.01488e-19)
(8.11901 -6.09392 6.18005e-19)
(7.87178 -6.40533 3.5875e-19)
(7.61253 -6.70673 3.82358e-19)
(7.34146 -6.99733 -5.54281e-19)
(9.51036 -0.202196 -2.39639e-20)
(9.49928 -0.569764 8.06623e-22)
(9.47334 -0.936921 8.67214e-20)
(9.43248 -1.30306 -8.29055e-20)
(9.37673 -1.66757 5.00263e-20)
(9.30618 -2.02984 1.93023e-19)
(9.22096 -2.38928 -5.8314e-20)
(9.12123 -2.74531 -5.93112e-20)
(9.00713 -3.09735 -7.84286e-20)
(8.87888 -3.44484 1.27273e-19)
(8.73667 -3.78724 -1.95275e-19)
(8.58078 -4.12399 -4.90191e-20)
(8.41146 -4.45456 -3.63758e-19)
(8.22902 -4.77842 9.54261e-20)
(8.0338 -5.09506 1.77119e-19)
(7.82615 -5.40393 1.22906e-19)
(7.60649 -5.70454 -2.38983e-19)
(7.37514 -5.99627 9.03242e-20)
(7.13267 -6.27871 -3.63811e-19)
(6.87922 -6.55105 4.32582e-20)
(8.91167 -0.19293 2.31122e-20)
(8.90107 -0.536571 6.26544e-20)
(8.87656 -0.879833 -1.38196e-19)
(8.8381 -1.22216 -1.07276e-19)
(8.7857 -1.56297 -5.35871e-20)
(8.71946 -1.9017 -1.49888e-19)
(8.63949 -2.2378 1.07712e-19)
(8.54593 -2.57073 1.38911e-19)
(8.43893 -2.89996 -2.89043e-19)
(8.31866 -3.22497 1.36451e-19)
(8.18533 -3.54524 1.48568e-19)
(8.03918 -3.86027 1.89387e-19)
(7.88047 -4.16958 -2.67285e-19)
(7.70948 -4.47267 3.62211e-19)
(7.52655 -4.76906 -3.27412e-19)
(7.33201 -5.05828 -6.65409e-20)
(7.12627 -5.33982 -1.00626e-19)
(6.90969 -5.61316 4.36155e-19)
(6.68281 -5.87783 3.32821e-19)
(6.44579 -6.13309 -1.41183e-19)
(8.35212 -0.183996 -1.88583e-20)
(8.34196 -0.505278 1.02205e-20)
(8.31877 -0.826211 8.42142e-20)
(8.28252 -1.14627 1.28899e-20)
(8.23323 -1.46492 1.21535e-19)
(8.17099 -1.78164 1.00089e-19)
(8.09589 -2.09592 -8.3659e-20)
(8.00806 -2.40725 -1.18748e-19)
(7.90763 -2.71513 1.04479e-19)
(7.79478 -3.01909 7.25555e-20)
(7.6697 -3.31865 -8.50271e-20)
(7.53259 -3.61335 3.34421e-19)
(7.38372 -3.90273 -5.0644e-19)
(7.22335 -4.18637 1.15366e-19)
(7.0518 -4.46382 1.4691e-19)
(6.86942 -4.73464 -2.4694e-19)
(6.67661 -4.99838 -5.00381e-19)
(6.47374 -5.25455 1.64137e-19)
(6.26137 -5.50266 1.1314e-19)
(6.03969 -5.74201 2.17302e-20)
(7.82877 -0.175402 -6.91835e-21)
(7.81904 -0.475774 5.8869e-21)
(7.79713 -0.775826 -3.63672e-20)
(7.76297 -1.07507 -2.27165e-20)
(7.71661 -1.373 -5.76856e-21)
(7.65812 -1.66913 -8.70089e-20)
(7.58758 -1.96299 2.29064e-19)
(7.50511 -2.25411 1.37416e-20)
(7.41084 -2.54203 -1.33157e-21)
(7.30491 -2.82629 -2.05056e-19)
(7.18751 -3.10647 1.21486e-19)
(7.05884 -3.38214 -1.16264e-19)
(6.91913 -3.65289 2.16292e-19)
(6.76864 -3.91833 -3.20296e-19)
(6.60768 -4.17806 -8.48997e-21)
(6.43658 -4.43171 -1.83236e-19)
(6.25578 -4.67885 3.8663e-19)
(6.06565 -4.91907 -9.95553e-20)
(5.86681 -5.15183 -1.66568e-20)
(5.65947 -5.37647 -1.26252e-19)
(7.33908 -0.167179 2.20508e-20)
(7.32984 -0.44799 -1.8193e-21)
(7.30918 -0.728509 4.43258e-20)
(7.27705 -1.00828 -4.74415e-20)
(7.23349 -1.28684 5.67465e-20)
(7.17855 -1.56372 -3.19338e-20)
(7.11233 -1.8385 -1.22769e-19)
(7.03491 -2.11072 5.43103e-20)
(6.94643 -2.37996 4.31654e-20)
(6.84701 -2.64581 -5.73866e-20)
(6.73681 -2.90787 -1.15835e-19)
(6.61603 -3.16575 -5.10081e-21)
(6.48488 -3.41908 -2.01566e-19)
(6.3436 -3.66751 2.23823e-19)
(6.19249 -3.91071 1.16568e-19)
(6.03189 -4.14835 4.36909e-19)
(5.86224 -4.38006 -6.22999e-19)
(5.68393 -4.60552 1.61308e-19)
(5.49771 -4.82412 4.13779e-19)
(5.30376 -5.03531 3.19154e-19)
(6.88099 -0.159386 -1.56864e-20)
(6.87231 -0.421898 1.18054e-20)
(6.85292 -0.684152 -1.61854e-20)
(6.82278 -0.94572 -9.12526e-20)
(6.78192 -1.20617 9.35497e-20)
(6.7304 -1.46507 3.34566e-20)
(6.66828 -1.72201 7.56731e-21)
(6.59566 -1.97658 9.34977e-20)
(6.51264 -2.22839 -2.0943e-19)
(6.41935 -2.47705 1.70461e-19)
(6.31593 -2.72218 -1.79357e-20)
(6.20256 -2.96345 2.73683e-19)
(6.07943 -3.20052 -3.40696e-19)
(5.94676 -3.43309 7.42705e-22)
(5.80484 -3.66087 -1.91726e-19)
(5.65399 -3.88364 2.05939e-20)
(5.49467 -4.10104 3.39481e-19)
(5.32729 -4.31295 -2.80643e-19)
(5.15283 -4.51861 -6.96854e-20)
(4.97134 -4.71775 -4.99101e-19)
(6.45288 -0.152112 4.28135e-21)
(6.44486 -0.397513 5.71871e-22)
(6.42678 -0.642697 -3.24388e-20)
(6.39861 -0.88726 1.48091e-20)
(6.36038 -1.1308 2.80652e-20)
(6.31213 -1.37291 4.06209e-20)
(6.25394 -1.61321 -1.57492e-20)
(6.18589 -1.85132 3.83336e-20)
(6.10806 -2.08687 -6.96158e-20)
(6.02058 -2.3195 5.18829e-20)
(5.92357 -2.54888 -3.60937e-20)
(5.81719 -2.77468 -1.94201e-20)
(5.7016 -2.99661 -3.17248e-20)
(5.57701 -3.21442 -2.52815e-20)
(5.44367 -3.42788 7.09705e-20)
(5.30188 -3.63686 -5.70679e-21)
(5.15213 -3.84106 -2.74112e-19)
(4.99481 -4.04063 -4.17818e-20)
(4.83125 -4.23455 2.90539e-19)
(4.66123 -4.42331 1.5141e-19)
(6.05355 -0.145464 4.35929e-22)
(6.04627 -0.374876 8.77581e-21)
(6.02954 -0.604118 2.59583e-22)
(6.00333 -0.83281 2.95447e-20)
(5.96767 -1.06057 -5.91904e-20)
(5.92261 -1.28704 -6.45598e-20)
(5.8682 -1.51184 8.71622e-20)
(5.80452 -1.73462 -6.10514e-20)
(5.73166 -1.95504 -7.67381e-22)
(5.64972 -2.17277 6.64188e-20)
(5.55882 -2.3875 5.04377e-21)
(5.45907 -2.59893 1.15323e-19)
(5.35064 -2.80682 -5.05405e-20)
(5.23368 -3.01095 -5.87443e-20)
(5.10842 -3.21115 -1.71933e-19)
(4.97509 -3.40739 -1.03692e-20)
(4.83421 -3.59947 -1.74037e-19)
(4.6861 -3.78791 1.14023e-19)
(4.5326 -3.97127 1.64367e-19)
(4.37296 -4.15167 -9.87745e-20)
(5.68213 -0.139411 -7.79932e-21)
(5.67567 -0.353962 1.64471e-20)
(5.66031 -0.568395 2.68502e-20)
(5.63606 -0.782351 -3.12971e-20)
(5.60292 -0.995476 4.83387e-20)
(5.56096 -1.20742 -1.45019e-20)
(5.51021 -1.41786 -2.16538e-20)
(5.45076 -1.62644 -1.4155e-20)
(5.38269 -1.83287 1.09407e-21)
(5.30608 -2.03682 -3.7579e-20)
(5.22103 -2.23803 1.42324e-20)
(5.12766 -2.43622 5.04673e-20)
(5.02608 -2.63117 1.27858e-19)
(4.91641 -2.8227 2.39577e-19)
(4.79883 -3.01071 -2.21574e-20)
(4.67347 -3.19524 2.68308e-19)
(4.54084 -3.37629 -1.10043e-19)
(4.40109 -3.55483 1.57443e-19)
(4.25675 -3.72906 8.52392e-20)
(4.10596 -3.90362 -4.86654e-20)
(5.33789 -0.133749 2.89292e-21)
(5.33232 -0.334703 -7.80284e-21)
(5.31838 -0.535604 -5.68573e-20)
(5.29606 -0.736114 -4.74362e-20)
(5.2654 -0.935902 5.62169e-20)
(5.22644 -1.13465 8.4271e-20)
(5.17923 -1.33204 4.83054e-21)
(5.12384 -1.52777 -4.6581e-20)
(5.06034 -1.72154 -6.57267e-20)
(4.98882 -1.91309 1.05349e-19)
(4.90934 -2.10214 -6.67738e-21)
(4.82201 -2.28847 -2.04617e-19)
(4.7269 -2.47186 -2.08872e-19)
(4.62408 -2.65218 7.90027e-20)
(4.51367 -2.82936 9.24208e-20)
(4.39563 -3.0035 -1.06021e-20)
(4.27044 -3.17483 -7.34287e-20)
(4.13766 -3.34483 -5.66398e-20)
(4.00088 -3.51219 -7.79239e-20)
(3.85571 -3.68571 1.22442e-19)
(5.02009 -0.12945 -8.79959e-21)
(5.01547 -0.317716 1.53804e-20)
(5.003 -0.506078 1.02903e-20)
(4.98267 -0.694222 1.53428e-20)
(4.95449 -0.881845 -5.74014e-20)
(4.91852 -1.06865 -7.06973e-20)
(4.8748 -1.25436 -1.74231e-20)
(4.82336 -1.43868 8.74539e-20)
(4.76428 -1.62136 4.32475e-20)
(4.6976 -1.80212 2.10769e-20)
(4.62338 -1.98074 -7.58254e-20)
(4.54168 -2.157 1.55848e-19)
(4.45253 -2.3307 -1.46277e-19)
(4.35594 -2.50172 -3.41898e-20)
(4.25194 -2.67 -4.53045e-20)
(4.14028 -2.83563 -4.97086e-21)
(4.02132 -2.99898 -7.27873e-20)
(3.89347 -3.16167 9.21259e-20)
(3.76204 -3.32389 5.31295e-20)
(3.61797 -3.50333 -2.72189e-19)
(11.4954 12.3641 1.2378e-18)
(11.9739 11.8988 -1.85654e-18)
(12.4322 11.4162 6.30921e-19)
(12.8717 10.9182 1.43082e-18)
(13.2917 10.4047 9.26167e-20)
(13.691 9.87552 -9.869e-19)
(14.069 9.33128 -1.88446e-19)
(14.4249 8.77268 -9.30681e-19)
(14.7583 8.20053 -5.56081e-20)
(15.0687 7.61569 3.47885e-19)
(15.3556 7.01904 4.30732e-19)
(15.6185 6.41151 -7.00278e-19)
(15.857 5.79404 3.56606e-19)
(16.0709 5.16764 1.02179e-18)
(16.2598 4.53326 -1.85627e-19)
(16.4235 3.89199 -6.02202e-19)
(16.5617 3.24464 7.98779e-19)
(16.6745 2.59265 -4.92169e-19)
(16.7615 1.93592 -7.24664e-20)
(16.8235 1.27764 -5.01519e-20)
(11.4823 10.9594 6.19164e-19)
(11.912 10.5039 -1.80787e-18)
(12.3215 10.0322 -1.0498e-18)
(12.7115 9.54569 4.58125e-19)
(13.0819 9.04442 -1.14506e-18)
(13.4319 8.52877 6.52561e-19)
(13.761 7.99934 1.49883e-19)
(14.0686 7.45703 -9.29198e-19)
(14.3542 6.90268 3.40816e-19)
(14.6173 6.33715 2.25386e-19)
(14.8576 5.76133 7.99739e-19)
(15.0745 5.17617 -6.94423e-19)
(15.2677 4.5826 -3.61129e-19)
(15.4369 3.98162 7.79667e-19)
(15.5819 3.37416 -4.5423e-19)
(15.7024 2.76129 7.85369e-20)
(15.7982 2.14384 -2.81986e-19)
(15.8694 1.52298 -2.41007e-21)
(15.9155 0.899107 -1.40059e-19)
(15.9365 0.273586 4.00532e-20)
(10.7795 10.2394 1.33061e-19)
(11.1848 9.81835 1.6526e-19)
(11.5722 9.38144 1.4319e-18)
(11.9413 8.92932 -4.73718e-19)
(12.2919 8.46252 1.08799e-20)
(12.6236 7.98168 8.39409e-19)
(12.9356 7.48752 -2.47634e-19)
(13.2274 6.98082 -1.14103e-18)
(13.4987 6.46248 1.31792e-18)
(13.7488 5.93331 -7.96504e-19)
(13.9774 5.39415 -3.51179e-19)
(14.1841 4.8459 -5.66296e-19)
(14.3684 4.28943 2.95291e-19)
(14.5302 3.72569 -3.29084e-19)
(14.669 3.15557 2.45172e-19)
(14.7846 2.58003 -5.11742e-19)
(14.8769 1.99993 5.45027e-19)
(14.9456 1.41627 2.27182e-19)
(14.9906 0.829757 -3.86221e-20)
(15.0113 0.24151 4.83047e-20)
(10.0409 9.59058 -8.16676e-19)
(10.4226 9.20224 -6.23634e-20)
(10.7883 8.79857 2.62326e-19)
(11.1374 8.38017 -6.93975e-19)
(11.4694 7.94763 1.14041e-18)
(11.7837 7.50168 3.41329e-19)
(12.0799 7.04304 -2.0032e-19)
(12.3574 6.57242 -6.62266e-20)
(12.6158 6.09057 9.44872e-19)
(12.8545 5.59829 3.82251e-19)
(13.0732 5.09635 7.69985e-19)
(13.2715 4.58559 -1.63563e-19)
(13.4489 4.0668 -8.0804e-20)
(13.6052 3.54085 -2.27107e-19)
(13.74 3.00862 3.77201e-19)
(13.8532 2.47096 -1.92295e-19)
(13.9444 1.92872 -1.89299e-19)
(14.0135 1.38283 7.1171e-20)
(14.0603 0.834131 -4.64414e-21)
(14.0843 0.283632 -1.2141e-20)
(9.39135 8.94022 7.62975e-19)
(9.74818 8.57922 1.07469e-19)
(10.0906 8.20388 -1.47187e-18)
(10.4177 7.81466 -4.79212e-19)
(10.7289 7.41217 -2.14649e-19)
(11.0237 6.99706 -9.60743e-19)
(11.3017 6.57004 -5.23751e-19)
(11.5624 6.13173 -3.91704e-19)
(11.8052 5.68278 4.42722e-19)
(12.0298 5.22397 -1.75423e-19)
(12.2358 4.756 2.89731e-19)
(12.4227 4.27964 4.34575e-20)
(12.5903 3.79566 7.10385e-20)
(12.7381 3.30481 -7.18727e-19)
(12.8659 2.80793 -1.29356e-19)
(12.9734 2.30583 7.41497e-20)
(13.0605 1.79933 -3.9664e-20)
(13.1269 1.28927 6.29436e-20)
(13.1724 0.776511 -7.7488e-20)
(13.1967 0.261941 1.0668e-20)
(8.79145 8.33476 -1.38103e-19)
(9.12474 7.99831 7.204e-21)
(9.44464 7.64851 5.84016e-19)
(9.75038 7.28575 -1.30682e-19)
(10.0414 6.91058 3.54848e-19)
(10.3171 6.52359 -1.17239e-18)
(10.5772 6.12542 8.06595e-19)
(10.8212 5.71668 -1.45991e-19)
(11.0486 5.29798 -1.24177e-20)
(11.259 4.86997 1.56928e-19)
(11.452 4.43337 3.15082e-19)
(11.6274 3.98886 -5.36486e-19)
(11.7846 3.53715 2.74595e-19)
(11.9235 3.07899 4.1182e-19)
(12.0438 2.61511 2.80823e-20)
(12.1452 2.14628 -1.66066e-19)
(12.2274 1.67326 -9.82303e-21)
(12.2904 1.19685 -3.62555e-20)
(12.3339 0.717856 8.89716e-21)
(12.3576 0.237075 -6.67244e-21)
(8.23331 7.77724 2.34852e-19)
(8.54459 7.46326 1.43164e-19)
(8.84342 7.13685 9.27659e-20)
(9.12907 6.79836 -5.60506e-19)
(9.40099 6.44827 -5.10705e-19)
(9.65871 6.08714 1.15347e-18)
(9.90181 5.71552 1.17654e-19)
(10.1299 5.33403 1.02203e-19)
(10.3425 4.94322 3.50918e-19)
(10.5393 4.54368 -5.50543e-19)
(10.72 4.1361 8.50905e-20)
(10.8841 3.72111 2.53169e-19)
(11.0313 3.29937 -1.80894e-19)
(11.1615 2.87156 -7.49946e-20)
(11.2743 2.43838 2.94153e-19)
(11.3694 2.00054 -5.16333e-21)
(11.4468 1.55876 -8.43811e-21)
(11.506 1.11377 -3.67672e-20)
(11.5473 0.66632 6.22517e-21)