/*--------------------------------*- C++ -*----------------------------------*\
  =========                 |
  \\      /  F ield         | OpenFOAM: The Open Source CFD Toolbox
   \\    /   O peration     | Website:  https://openfoam.org
    \\  /    A nd           | Version:  6.0
     \\/     M anipulation  |
\*---------------------------------------------------------------------------*/
FoamFile
{
    version     2.0;
    format      ascii;
    class       volScalarField;
    location    "6";
    object      p;
}
// * * * * * * * * * * * * * * * * * * * * * * * * * * * * * * * * * * * * * //

dimensions      [0 2 -2 0 0 0 0];

internalField   nonuniform List<scalar> 
19200
(
-78.3491
-70.1229
-63.9621
-58.7984
-54.0346
-49.6833
-45.7233
-42.1094
-38.8069
-35.7879
-33.0273
-30.5023
-28.1924
-26.0784
-24.1432
-22.3707
-20.7464
-19.257
-17.8903
-16.6353
-15.4819
-14.4212
-13.4448
-12.5453
-11.7161
-10.9512
-10.2452
-9.59279
-8.98955
-8.43568
-78.5921
-70.3823
-64.2218
-59.0496
-54.2749
-49.912
-45.9404
-42.3153
-39.0023
-35.9737
-33.2043
-30.6714
-28.3544
-26.2341
-24.2931
-22.5155
-20.8865
-19.3928
-18.0222
-16.7637
-15.6071
-14.5433
-13.564
-12.6618
-11.83
-11.0626
-10.3542
-9.69945
-9.09365
-8.53845
-78.8473
-70.6412
-64.4789
-59.2988
-54.5136
-50.1392
-46.1561
-42.5199
-39.1966
-36.1584
-33.3804
-30.8398
-28.5157
-26.3892
-24.4425
-22.6598
-21.0262
-19.5284
-18.154
-16.8919
-15.7321
-14.6652
-13.6831
-12.7783
-11.9439
-11.1741
-10.4633
-9.80612
-9.19777
-8.64132
-79.11
-70.9022
-64.7352
-59.5467
-54.7508
-50.3649
-46.3704
-42.7232
-39.3896
-36.342
-33.5555
-31.0072
-28.6762
-26.5435
-24.5913
-22.8036
-21.1654
-19.6635
-18.2853
-17.0198
-15.8568
-14.787
-13.8021
-12.8946
-12.0577
-11.2854
-10.5723
-9.91272
-9.30185
-8.74423
-79.3765
-71.1647
-64.9913
-59.7936
-54.9867
-50.5893
-46.5833
-42.9252
-39.5814
-36.5245
-33.7295
-31.1736
-28.8358
-26.697
-24.7393
-22.9467
-21.3041
-19.7981
-18.4163
-17.1473
-15.9812
-14.9084
-13.9208
-13.0107
-12.1713
-11.3967
-10.6813
-10.0193
-9.40589
-8.84718
-79.645
-71.4283
-65.2472
-60.0396
-55.2215
-50.8124
-46.7949
-43.1258
-39.7719
-36.7057
-33.9023
-31.3389
-28.9945
-26.8496
-24.8866
-23.0891
-21.4422
-19.9322
-18.5467
-17.2745
-16.1052
-15.0296
-14.0393
-13.1266
-12.2848
-11.5078
-10.7901
-10.1257
-9.50988
-8.95018
-79.9143
-71.6922
-65.5027
-60.2848
-55.4551
-51.0342
-47.005
-43.3251
-39.961
-36.8856
-34.074
-31.5032
-29.1521
-27.0013
-25.033
-23.2307
-21.5795
-20.0656
-18.6766
-17.4011
-16.2288
-15.1504
-14.1574
-13.2423
-12.3981
-11.6188
-10.8988
-10.2321
-9.6138
-9.0532
-80.1837
-71.956
-65.7576
-60.5289
-55.6875
-51.2545
-47.2137
-43.5228
-40.1487
-37.0641
-34.2443
-31.6661
-29.3085
-27.1519
-25.1784
-23.3715
-21.716
-20.1983
-18.8058
-17.5271
-16.3519
-15.2708
-14.2752
-13.3576
-12.5111
-11.7295
-11.0074
-10.3383
-9.71764
-9.15625
-80.4528
-72.2191
-66.0116
-60.7718
-55.9184
-51.4733
-47.4208
-43.7189
-40.3347
-37.2412
-34.4132
-31.8278
-29.4638
-27.3014
-25.3228
-23.5113
-21.8517
-20.3303
-18.9344
-17.6526
-16.4745
-15.3906
-14.3926
-13.4726
-12.6238
-11.8401
-11.1157
-10.4444
-9.82138
-9.25931
-80.721
-72.4813
-66.2645
-61.0133
-56.1477
-51.6904
-47.6262
-43.9133
-40.5192
-37.4166
-34.5806
-31.988
-29.6176
-27.4497
-25.466
-23.65
-21.9864
-20.4613
-19.0621
-17.7773
-16.5964
-15.5099
-14.5095
-13.5872
-12.7362
-11.9503
-11.2239
-10.5503
-9.92502
-9.36237
-80.9881
-72.7423
-66.5159
-61.2533
-56.3754
-51.9057
-47.8297
-44.1059
-40.7018
-37.5902
-34.7463
-32.1467
-29.77
-27.5965
-25.608
-23.7876
-22.12
-20.5914
-19.1889
-17.9011
-16.7175
-15.6286
-14.6258
-13.7013
-12.8481
-12.0602
-11.3318
-10.6561
-10.0285
-9.46542
-81.2539
-73.0018
-66.7657
-61.4915
-56.6011
-52.1191
-48.0312
-44.2965
-40.8825
-37.762
-34.9102
-32.3036
-29.9208
-27.7419
-25.7485
-23.9238
-22.2524
-20.7203
-19.3148
-18.0241
-16.8379
-15.7465
-14.7414
-13.8148
-12.9596
-12.1698
-11.4394
-10.7616
-10.1319
-9.56843
-81.518
-73.2597
-67.0137
-61.7277
-56.8248
-52.3303
-48.2306
-44.485
-41.061
-37.9318
-35.0722
-32.4587
-30.0699
-27.8856
-25.8875
-24.0586
-22.3835
-20.848
-19.4394
-18.146
-16.9572
-15.8636
-14.8563
-13.9277
-13.0706
-12.2788
-11.5466
-10.8668
-10.235
-9.67137
-81.7803
-73.5156
-67.2597
-61.9617
-57.0462
-52.5392
-48.4277
-44.6711
-41.2374
-38.0994
-35.2321
-32.6119
-30.2171
-28.0276
-26.0248
-24.1918
-22.5131
-20.9743
-19.5628
-18.2667
-17.0755
-15.9796
-14.9703
-14.0398
-13.1808
-12.3873
-11.6534
-10.9716
-10.3379
-9.77421
-82.0405
-73.7694
-67.5034
-62.1935
-57.2652
-52.7456
-48.6223
-44.8549
-41.4114
-38.2647
-35.3897
-32.7628
-30.3622
-28.1675
-26.1603
-24.3233
-22.641
-21.0991
-19.6847
-18.3861
-17.1926
-16.0946
-15.0833
-14.1509
-13.2903
-12.4952
-11.7596
-11.0761
-10.4405
-9.87691
-82.2986
-74.021
-67.7448
-62.4227
-57.4816
-52.9494
-48.8142
-45.036
-41.5827
-38.4275
-35.545
-32.9115
-30.5051
-28.3054
-26.2937
-24.4528
-22.767
-21.2221
-19.8049
-18.5039
-17.3082
-16.2082
-15.1951
-14.261
-13.3988
-12.6022
-11.8652
-11.18
-10.5426
-9.97938
-82.5544
-74.2702
-67.9837
-62.6493
-57.6952
-53.1504
-49.0033
-45.2143
-41.7514
-38.5876
-35.6976
-33.0576
-30.6455
-28.4409
-26.4249
-24.5802
-22.8911
-21.3431
-19.9234
-18.6199
-17.4221
-16.3202
-15.3055
-14.3699
-13.5062
-12.7083
-11.9699
-11.2832
-10.6443
-10.0815
-82.8079
-74.5169
-68.2199
-62.873
-57.906
-53.3485
-49.1895
-45.3896
-41.9171
-38.7449
-35.8475
-33.2011
-30.7834
-28.5739
-26.5536
-24.7052
-23.0128
-21.462
-20.0397
-18.734
-17.5342
-16.4306
-15.4142
-14.4772
-13.6123
-12.8132
-12.0737
-11.3856
-10.7453
-10.1832
-83.0589
-74.761
-68.4534
-63.0939
-58.1137
-53.5434
-49.3725
-45.5618
-42.0798
-38.8992
-35.9944
-33.3416
-30.9184
-28.7041
-26.6797
-24.8277
-23.1321
-21.5785
-20.1537
-18.8458
-17.6442
-16.5388
-15.5211
-14.5828
-13.7167
-12.9166
-12.1762
-11.4869
-10.8455
-10.2843
-83.3076
-75.0026
-68.684
-63.3117
-58.3181
-53.735
-49.5522
-45.7308
-42.2391
-39.0502
-36.1382
-33.4791
-31.0505
-28.8315
-26.8029
-24.9473
-23.2486
-21.6922
-20.2651
-18.9551
-17.7516
-16.6448
-15.6257
-14.6862
-13.8192
-13.0183
-12.2771
-11.587
-10.9445
-10.3846
-83.5541
-75.2415
-68.9117
-63.5263
-58.5193
-53.9231
-49.7283
-45.8962
-42.3951
-39.1978
-36.2786
-33.6133
-31.1793
-28.9556
-26.9231
-25.0639
-23.3621
-21.8031
-20.3735
-19.0616
-17.8563
-16.748
-15.7276
-14.7872
-13.9194
-13.1178
-12.3761
-11.6853
-11.0422
-10.4837
-83.7987
-75.4779
-69.1365
-63.7376
-58.7168
-54.1076
-49.9008
-46.0579
-42.5473
-39.3419
-36.4156
-33.7441
-31.3048
-29.0765
-27.0399
-25.1772
-23.4723
-21.9106
-20.4788
-19.1648
-17.9578
-16.848
-15.8266
-14.8852
-14.0168
-13.2148
-12.4727
-11.7815
-11.1379
-10.5812
-84.0418
-75.7118
-69.3582
-63.9455
-58.9107
-54.2883
-50.0694
-46.2158
-42.6958
-39.4821
-36.5488
-33.8712
-31.4266
-29.1937
-27.1531
-25.287
-23.579
-22.0146
-20.5804
-19.2644
-18.0557
-16.9445
-15.9219
-14.9798
-14.1107
-13.3085
-12.5663
-11.875
-11.2313
-10.6766
-84.284
-75.9433
-69.5767
-64.1497
-59.1007
-54.4649
-50.234
-46.3696
-42.8403
-39.6185
-36.6782
-33.9946
-31.5447
-29.3073
-27.2627
-25.393
-23.682
-22.1148
-20.6782
-19.3601
-18.1496
-17.0369
-16.0132
-15.0702
-14.2007
-13.3982
-12.6562
-11.9651
-11.3216
-10.7697
-84.5256
-76.1721
-69.7918
-64.3502
-59.2866
-54.6373
-50.3943
-46.5193
-42.9807
-39.7509
-36.8036
-34.114
-31.6589
-29.417
-27.3684
-25.4951
-23.7809
-22.2109
-20.7718
-19.4514
-18.239
-17.1247
-16.0996
-15.1557
-14.2856
-13.483
-12.7413
-12.0506
-11.4079
-10.8595
-84.7671
-76.398
-70.0031
-64.5466
-59.4682
-54.8053
-50.5501
-46.6645
-43.1167
-39.879
-36.9249
-34.2295
-31.7692
-29.5227
-27.4701
-25.5933
-23.8758
-22.3028
-20.861
-19.5382
-18.3236
-17.2074
-16.1807
-15.2356
-14.3647
-13.5618
-12.8202
-12.13
-11.4884
-10.943
-85.0122
-76.6222
-70.2106
-64.7384
-59.6448
-54.9681
-50.7009
-46.8049
-43.2481
-40.0027
-37.042
-34.3407
-31.8755
-29.6245
-27.5678
-25.6873
-23.9665
-22.3904
-20.9456
-19.6201
-18.403
-17.2845
-16.2559
-15.3092
-14.4371
-13.6336
-12.8921
-12.2026
-11.5617
-11.0181
-85.2712
-76.8483
-70.4137
-64.9242
-59.8151
-55.1248
-50.846
-46.9399
-43.3745
-40.1217
-37.1545
-34.4477
-31.9775
-29.7221
-27.6615
-25.7772
-24.0529
-22.4735
-21.0256
-19.6971
-18.477
-17.3558
-16.3245
-15.3755
-14.5018
-13.6974
-12.9561
-12.2674
-11.6282
-11.0919
-85.5483
-77.0754
-70.6099
-65.1021
-59.9786
-55.2756
-50.9856
-47.0699
-43.4963
-40.2363
-37.2629
-34.5507
-32.0757
-29.8159
-27.7513
-25.8634
-24.1355
-22.5526
-21.1012
-19.7692
-18.5457
-17.4208
-16.3859
-15.4332
-14.5561
-13.7488
-13.0051
-12.3151
-11.6817
-11.1705
-85.7956
-77.2853
-70.7955
-65.2727
-60.1372
-55.4227
-51.1222
-47.1972
-43.6154
-40.3483
-37.3688
-34.6512
-32.1713
-29.9072
-27.8386
-25.9468
-24.2152
-22.6287
-21.1737
-19.8379
-18.6103
-17.481
-16.4411
-15.4827
-14.599
-13.7835
-13.0288
-12.3278
-11.696
-11.1954
-88.6434
-88.6352
-88.6016
-88.5718
-88.5435
-88.5108
-88.4713
-88.425
-88.3719
-88.3118
-88.2444
-88.1698
-88.0881
-87.9993
-87.9036
-87.8012
-87.6923
-87.5772
-87.456
-87.3292
-87.197
-87.0598
-86.918
-86.7723
-86.6232
-86.4719
-86.3202
-86.1712
-86.0308
-85.9066
-80.0005
-80.015
-80.0121
-80.003
-79.9883
-79.9662
-79.9358
-79.8975
-79.8515
-79.7981
-79.7372
-79.6689
-79.5934
-79.5109
-79.4215
-79.3254
-79.2228
-79.114
-78.9993
-78.8788
-78.7529
-78.622
-78.4864
-78.3466
-78.2031
-78.0567
-77.9083
-77.7587
-77.6088
-77.4536
-73.2789
-73.3075
-73.3231
-73.328
-73.3239
-73.3111
-73.2899
-73.2605
-73.2233
-73.1784
-73.1261
-73.0664
-72.9995
-72.9256
-72.8449
-72.7576
-72.6639
-72.564
-72.4582
-72.3467
-72.2298
-72.1077
-71.9808
-71.8493
-71.7136
-71.574
-71.4306
-71.2831
-71.1304
-70.969
-67.4996
-67.5349
-67.5598
-67.5737
-67.5779
-67.5734
-67.5605
-67.5395
-67.5108
-67.4744
-67.4306
-67.3796
-67.3215
-67.2566
-67.1849
-67.1068
-67.0225
-66.932
-66.8358
-66.7339
-66.6266
-66.5141
-66.3967
-66.2744
-66.1476
-66.0161
-65.88
-65.7386
-65.5915
-65.437
-62.1252
-62.164
-62.1941
-62.2142
-62.2249
-62.227
-62.2209
-62.2069
-62.1852
-62.1561
-62.1197
-62.0763
-62.0261
-61.9692
-61.9058
-61.8361
-61.7604
-61.6787
-61.5914
-61.4986
-61.4005
-61.2973
-61.1891
-61.076
-60.9582
-60.8355
-60.7078
-60.5749
-60.4363
-60.2911
-57.2065
-57.2471
-57.2802
-57.3042
-57.3192
-57.3258
-57.3245
-57.3156
-57.2993
-57.2758
-57.2453
-57.208
-57.1641
-57.1138
-57.0573
-56.9947
-56.9263
-56.8523
-56.7728
-56.6879
-56.598
-56.503
-56.4032
-56.2986
-56.1892
-56.0751
-55.956
-55.8318
-55.7021
-55.5664
-52.7408
-52.7818
-52.816
-52.8419
-52.8592
-52.8686
-52.8704
-52.8649
-52.8522
-52.8327
-52.8065
-52.7737
-52.7347
-52.6895
-52.6383
-52.5814
-52.519
-52.4511
-52.378
-52.2998
-52.2167
-52.1289
-52.0363
-51.9392
-51.8374
-51.731
-51.6199
-51.5039
-51.3827
-51.256
-48.6877
-48.7281
-48.762
-48.7882
-48.8064
-48.817
-48.8204
-48.8169
-48.8065
-48.7896
-48.7662
-48.7366
-48.701
-48.6596
-48.6124
-48.5598
-48.5019
-48.4388
-48.3708
-48.298
-48.2206
-48.1385
-48.0521
-47.9613
-47.8661
-47.7665
-47.6625
-47.5539
-47.4404
-47.3221
-45.0098
-45.0487
-45.0815
-45.107
-45.125
-45.1358
-45.1397
-45.137
-45.1278
-45.1123
-45.0907
-45.0631
-45.0298
-44.9909
-44.9466
-44.8971
-44.8426
-44.7832
-44.7191
-44.6505
-44.5775
-44.5002
-44.4188
-44.3332
-44.2436
-44.1499
-44.052
-43.9499
-43.8434
-43.7323
-41.6727
-41.7096
-41.7406
-41.7647
-41.7817
-41.7919
-41.7956
-41.7929
-41.784
-41.7691
-41.7484
-41.7219
-41.69
-41.6528
-41.6104
-41.5631
-41.5109
-41.4542
-41.3931
-41.3277
-41.2582
-41.1847
-41.1074
-41.0262
-40.9412
-40.8525
-40.7599
-40.6635
-40.5629
-40.4583
-38.6432
-38.6778
-38.7067
-38.729
-38.7446
-38.7537
-38.7565
-38.7533
-38.7442
-38.7293
-38.7087
-38.6828
-38.6516
-38.6153
-38.5741
-38.5282
-38.4778
-38.423
-38.3641
-38.3011
-38.2343
-38.1638
-38.0897
-38.0121
-37.9311
-37.8466
-37.7586
-37.667
-37.5718
-37.4728
-35.8904
-35.9225
-35.9492
-35.9695
-35.9834
-35.9911
-35.9928
-35.9887
-35.9789
-35.9635
-35.9428
-35.9169
-35.8859
-35.8501
-35.8096
-35.7646
-35.7153
-35.6619
-35.6045
-35.5434
-35.4787
-35.4106
-35.3391
-35.2645
-35.1867
-35.1058
-35.0217
-34.9344
-34.8438
-34.7497
-33.3861
-33.4158
-33.4401
-33.4583
-33.4704
-33.4766
-33.477
-33.4717
-33.461
-33.445
-33.4238
-33.3976
-33.3665
-33.3308
-33.2906
-33.2462
-33.1976
-33.1451
-33.0889
-33.0291
-32.966
-32.8998
-32.8305
-32.7583
-32.6832
-32.6054
-32.5248
-32.4413
-32.3548
-32.2652
-31.1049
-31.1321
-31.1542
-31.1704
-31.1806
-31.1852
-31.1842
-31.1778
-31.1661
-31.1492
-31.1274
-31.1007
-31.0693
-31.0335
-30.9933
-30.9491
-30.9009
-30.849
-30.7936
-30.7349
-30.6731
-30.6083
-30.5408
-30.4706
-30.398
-30.3228
-30.2453
-30.1652
-30.0823
-29.9967
-29.024
-29.049
-29.0688
-29.083
-29.0915
-29.0945
-29.0921
-29.0844
-29.0717
-29.0539
-29.0313
-29.0041
-28.9723
-28.9362
-28.8959
-28.8517
-28.8038
-28.7522
-28.6974
-28.6394
-28.5785
-28.515
-28.4489
-28.3805
-28.3099
-28.2372
-28.1623
-28.0853
-28.0059
-27.924
-27.1231
-27.146
-27.1638
-27.1761
-27.1829
-27.1844
-27.1806
-27.1718
-27.1579
-27.1393
-27.1159
-27.088
-27.0558
-27.0193
-26.9788
-26.9345
-26.8866
-26.8353
-26.7808
-26.7234
-26.6633
-26.6007
-26.5358
-26.4689
-26.4001
-26.3295
-26.2572
-26.183
-26.1068
-26.0284
-25.3843
-25.4052
-25.4211
-25.4317
-25.4369
-25.4369
-25.4319
-25.4219
-25.407
-25.3875
-25.3634
-25.3348
-25.3021
-25.2652
-25.2244
-25.18
-25.132
-25.0808
-25.0266
-24.9695
-24.91
-24.8481
-24.7842
-24.7186
-24.6514
-24.5827
-24.5127
-24.4412
-24.3681
-24.2932
-23.7916
-23.8106
-23.8248
-23.8337
-23.8375
-23.8362
-23.8299
-23.8189
-23.8031
-23.7827
-23.7578
-23.7287
-23.6954
-23.6581
-23.617
-23.5724
-23.5243
-23.4731
-23.419
-23.3622
-23.303
-23.2418
-23.1787
-23.1141
-23.0483
-22.9814
-22.9135
-22.8447
-22.7746
-22.703
-22.3308
-22.3481
-22.3607
-22.3682
-22.3706
-22.3681
-22.3607
-22.3486
-22.3319
-22.3108
-22.2852
-22.2555
-22.2217
-22.184
-22.1426
-22.0977
-22.0495
-21.9982
-21.9441
-21.8874
-21.8286
-21.7677
-21.7053
-21.6416
-21.577
-21.5117
-21.4459
-21.3795
-21.3124
-21.2442
-20.9894
-21.0052
-21.0163
-21.0224
-21.0236
-21.0199
-21.0116
-20.9986
-20.981
-20.9591
-20.933
-20.9027
-20.8684
-20.8303
-20.7886
-20.7434
-20.695
-20.6436
-20.5895
-20.5329
-20.4741
-20.4136
-20.3517
-20.2887
-20.2251
-20.1611
-20.0972
-20.0333
-19.9692
-19.9045
-19.7562
-19.7706
-19.7804
-19.7852
-19.7853
-19.7806
-19.7713
-19.7574
-19.7392
-19.7166
-19.6898
-19.659
-19.6243
-19.5858
-19.5438
-19.4983
-19.4497
-19.3981
-19.3439
-19.2873
-19.2286
-19.1682
-19.1065
-19.0441
-18.9812
-18.9185
-18.8563
-18.7947
-18.7337
-18.6727
-18.6212
-18.6343
-18.6429
-18.6466
-18.6456
-18.64
-18.6299
-18.6153
-18.5963
-18.5731
-18.5458
-18.5145
-18.4794
-18.4405
-18.3982
-18.3524
-18.3036
-18.2518
-18.1974
-18.1407
-18.0819
-18.0215
-17.96
-17.8978
-17.8355
-17.7738
-17.7131
-17.6538
-17.5959
-17.5388
-17.5756
-17.5875
-17.595
-17.5977
-17.5958
-17.5893
-17.5783
-17.563
-17.5435
-17.5197
-17.4919
-17.4602
-17.4246
-17.3855
-17.3428
-17.2968
-17.2477
-17.1957
-17.1411
-17.0841
-17.0252
-16.9647
-16.903
-16.8409
-16.7789
-16.7178
-16.6584
-16.6012
-16.5465
-16.4937
-16.6114
-16.6222
-16.6286
-16.6304
-16.6276
-16.6204
-16.6087
-16.5928
-16.5726
-16.5484
-16.5201
-16.488
-16.4521
-16.4126
-16.3696
-16.3234
-16.274
-16.2218
-16.1669
-16.1096
-16.0504
-15.9896
-15.9276
-15.8653
-15.8032
-15.7424
-15.6839
-15.6286
-15.5772
-15.5291
-15.7214
-15.7312
-15.7367
-15.7376
-15.734
-15.7261
-15.7138
-15.6973
-15.6766
-15.6519
-15.6232
-15.5907
-15.5544
-15.5146
-15.4714
-15.4249
-15.3752
-15.3227
-15.2675
-15.2099
-15.1503
-15.089
-15.0266
-14.9637
-14.9012
-14.8402
-14.7821
-14.7282
-14.6802
-14.6373
-14.8992
-14.9081
-14.9127
-14.9128
-14.9085
-14.8998
-14.8869
-14.8699
-14.8487
-14.8235
-14.7944
-14.7616
-14.725
-14.6849
-14.6414
-14.5945
-14.5446
-14.4918
-14.4362
-14.3782
-14.3181
-14.2562
-14.193
-14.1293
-14.0659
-14.0042
-13.9457
-13.8927
-13.8475
-13.8106
-14.1391
-14.1471
-14.1508
-14.1501
-14.1451
-14.1358
-14.1223
-14.1047
-14.083
-14.0574
-14.0279
-13.9946
-13.9577
-13.9172
-13.8733
-13.8262
-13.7759
-13.7226
-13.6666
-13.608
-13.5472
-13.4845
-13.4203
-13.3553
-13.2905
-13.2272
-13.1674
-13.1141
-13.071
-13.0397
-13.4356
-13.4429
-13.446
-13.4447
-13.4391
-13.4293
-13.4154
-13.3973
-13.3753
-13.3493
-13.3194
-13.2859
-13.2486
-13.2079
-13.1637
-13.1162
-13.0655
-13.0119
-12.9554
-12.8962
-12.8347
-12.771
-12.7056
-12.6391
-12.5723
-12.5066
-12.4443
-12.3895
-12.3475
-12.3218
-12.7836
-12.7907
-12.7936
-12.7921
-12.7865
-12.7766
-12.7627
-12.7447
-12.7227
-12.6969
-12.6672
-12.6339
-12.5969
-12.5564
-12.5125
-12.4653
-12.415
-12.3616
-12.3053
-12.2463
-12.1847
-12.1209
-12.055
-11.9877
-11.9195
-11.8517
-11.7864
-11.7289
-11.6875
-11.6747
-12.1798
-12.1852
-12.1866
-12.1838
-12.177
-12.1661
-12.1513
-12.1326
-12.1101
-12.0839
-12.054
-12.0205
-11.9835
-11.9431
-11.8994
-11.8526
-11.8026
-11.7496
-11.6938
-11.6353
-11.5742
-11.5107
-11.4449
-11.3772
-11.308
-11.2381
-11.1687
-11.1046
-11.0526
-11.0593
-83.3248
-83.5946
-83.831
-84.0828
-84.3454
-84.6081
-84.8667
-85.1203
-85.3681
-85.6094
-85.8432
-86.0689
-86.286
-86.4941
-86.6929
-86.8822
-87.0618
-87.2316
-87.3915
-87.5414
-87.6814
-87.8115
-87.9318
-88.0427
-88.1444
-88.2376
-88.3233
-88.4034
-88.4815
-88.5621
-74.6113
-74.908
-75.1847
-75.4598
-75.7339
-76.0031
-76.2655
-76.5211
-76.7698
-77.0112
-77.2447
-77.4701
-77.6869
-77.8949
-78.0938
-78.2834
-78.4635
-78.6341
-78.7951
-78.9463
-79.0878
-79.2197
-79.342
-79.455
-79.5588
-79.6538
-79.7408
-79.82
-79.8919
-79.9537
-67.8723
-68.1766
-68.4685
-68.7511
-69.0266
-69.2953
-69.5569
-69.8113
-70.0584
-70.298
-70.5299
-70.7536
-70.9691
-71.176
-71.3741
-71.5632
-71.7432
-71.914
-72.0755
-72.2276
-72.3704
-72.5037
-72.6278
-72.7425
-72.8482
-72.9448
-73.0325
-73.111
-73.1797
-73.2363
-62.1447
-62.4433
-62.7332
-63.0134
-63.2852
-63.5498
-63.8074
-64.0579
-64.3011
-64.5368
-64.765
-64.9852
-65.1974
-65.4014
-65.5968
-65.7837
-65.9619
-66.1312
-66.2915
-66.4429
-66.5853
-66.7186
-66.8429
-66.9581
-67.0643
-67.1614
-67.2493
-67.3278
-67.3964
-67.4541
-56.8809
-57.1688
-57.4509
-57.7245
-57.9899
-58.2482
-58.4995
-58.7438
-58.9809
-59.2108
-59.4332
-59.648
-59.855
-60.0541
-60.2451
-60.4279
-60.6023
-60.7683
-60.9258
-61.0746
-61.2148
-61.3463
-61.4691
-61.5831
-61.6884
-61.7847
-61.8721
-61.9503
-62.019
-62.0778
-52.1167
-52.3931
-52.6651
-52.9299
-53.187
-53.437
-53.6802
-53.9167
-54.1462
-54.3686
-54.5838
-54.7918
-54.9922
-55.185
-55.3701
-55.5473
-55.7166
-55.8777
-56.0308
-56.1756
-56.3121
-56.4403
-56.5602
-56.6716
-56.7746
-56.869
-56.9548
-57.0318
-57.0998
-57.1584
-47.8341
-48.099
-48.36
-48.6147
-48.8622
-49.1029
-49.3371
-49.5648
-49.7857
-49.9999
-50.2071
-50.4072
-50.6002
-50.7858
-50.9641
-51.1348
-51.2979
-51.4533
-51.6008
-51.7406
-51.8724
-51.9963
-52.1121
-52.2199
-52.3196
-52.411
-52.4943
-52.5691
-52.6354
-52.693
-43.9794
-44.2329
-44.4829
-44.727
-44.9645
-45.1956
-45.4205
-45.639
-45.8511
-46.0566
-46.2554
-46.4474
-46.6325
-46.8105
-46.9815
-47.1452
-47.3016
-47.4506
-47.5921
-47.7261
-47.8526
-47.9714
-48.0826
-48.186
-48.2816
-48.3695
-48.4494
-48.5214
-48.5852
-48.641
-40.5048
-40.7473
-40.9866
-41.2204
-41.448
-41.6696
-41.8851
-42.0946
-42.2979
-42.4948
-42.6852
-42.869
-43.0462
-43.2166
-43.3801
-43.5366
-43.6861
-43.8286
-43.9638
-44.0919
-44.2126
-44.3261
-44.4322
-44.5309
-44.6221
-44.7058
-44.7821
-44.8507
-44.9117
-44.965
-37.368
-37.6004
-37.8295
-38.0535
-38.2717
-38.484
-38.6907
-38.8914
-39.0861
-39.2747
-39.457
-39.6329
-39.8023
-39.9652
-40.1214
-40.2709
-40.4137
-40.5496
-40.6785
-40.8006
-40.9156
-41.0236
-41.1245
-41.2184
-41.305
-41.3845
-41.4568
-41.5219
-41.5796
-41.6302
-34.5311
-34.7541
-34.9738
-35.1886
-35.3979
-35.6016
-35.7998
-35.9923
-36.1789
-36.3596
-36.5341
-36.7025
-36.8645
-37.0202
-37.1695
-37.3123
-37.4484
-37.578
-37.7009
-37.8171
-37.9266
-38.0292
-38.1251
-38.2141
-38.2962
-38.3715
-38.4398
-38.5012
-38.5557
-38.6032
-31.9603
-32.1745
-32.3856
-32.592
-32.793
-32.9887
-33.1791
-33.3639
-33.543
-33.7162
-33.8835
-34.0447
-34.1999
-34.3488
-34.4915
-34.6279
-34.7579
-34.8814
-34.9986
-35.1092
-35.2133
-35.3109
-35.4018
-35.4862
-35.5639
-35.6351
-35.6995
-35.7573
-35.8085
-35.8531
-29.6257
-29.8321
-30.0353
-30.2339
-30.4274
-30.6158
-30.7989
-30.9765
-31.1486
-31.3149
-31.4755
-31.6301
-31.7788
-31.9215
-32.058
-32.1884
-32.3126
-32.4306
-32.5423
-32.6477
-32.7468
-32.8395
-32.9259
-33.0059
-33.0795
-33.1466
-33.2074
-33.2618
-33.3097
-33.3514
-27.5017
-27.7009
-27.8969
-28.0884
-28.275
-28.4566
-28.6331
-28.8042
-28.9698
-29.1298
-29.2842
-29.4327
-29.5754
-29.7122
-29.843
-29.9679
-30.0867
-30.1995
-30.3062
-30.4067
-30.5011
-30.5894
-30.6714
-30.7473
-30.817
-30.8805
-30.9378
-30.9889
-31.0338
-31.0727
-25.5655
-25.7582
-25.9477
-26.1329
-26.3132
-26.4887
-26.659
-26.8241
-26.9838
-27.138
-27.2866
-27.4295
-27.5666
-27.698
-27.8236
-27.9434
-28.0572
-28.1652
-28.2672
-28.3632
-28.4533
-28.5374
-28.6155
-28.6876
-28.7537
-28.8137
-28.8678
-28.9159
-28.9579
-28.9942
-23.7977
-23.9845
-24.1681
-24.3474
-24.5221
-24.6919
-24.8567
-25.0163
-25.1706
-25.3194
-25.4626
-25.6003
-25.7324
-25.8588
-25.9795
-26.0946
-26.2038
-26.3073
-26.405
-26.497
-26.5831
-26.6633
-26.7377
-26.8063
-26.8691
-26.926
-26.977
-27.0223
-27.0618
-27.0955
-22.1809
-22.3624
-22.5407
-22.7148
-22.8844
-23.0491
-23.2088
-23.3633
-23.5125
-23.6564
-23.7948
-23.9276
-24.055
-24.1768
-24.2931
-24.4037
-24.5087
-24.6081
-24.7019
-24.79
-24.8724
-24.9492
-25.0202
-25.0856
-25.1453
-25.1992
-25.2476
-25.2902
-25.3273
-25.3588
-20.7003
-20.8769
-21.0504
-21.2199
-21.3847
-21.5448
-21.6999
-21.8497
-21.9943
-22.1336
-22.2674
-22.3959
-22.5188
-22.6364
-22.7485
-22.8551
-22.9562
-23.0518
-23.1419
-23.2265
-23.3056
-23.3791
-23.447
-23.5094
-23.5663
-23.6176
-23.6634
-23.7037
-23.7385
-23.7679
-19.3425
-19.5147
-19.684
-19.8492
-20.0099
-20.1657
-20.3165
-20.4621
-20.6024
-20.7373
-20.867
-20.9912
-21.1102
-21.2238
-21.332
-21.4349
-21.5324
-21.6245
-21.7112
-21.7926
-21.8685
-21.939
-22.0042
-22.0639
-22.1181
-22.167
-22.2105
-22.2486
-22.2814
-22.3089
-18.0958
-18.2641
-18.4296
-18.5912
-18.748
-18.9
-19.0468
-19.1884
-19.3246
-19.4556
-19.5813
-19.7017
-19.8168
-19.9267
-20.0314
-20.1308
-20.2249
-20.3138
-20.3974
-20.4758
-20.5489
-20.6167
-20.6792
-20.7364
-20.7883
-20.8349
-20.8763
-20.9124
-20.9433
-20.9691
-16.9499
-17.1146
-17.2769
-17.4352
-17.5887
-17.737
-17.8802
-18.018
-18.1504
-18.2776
-18.3996
-18.5164
-18.628
-18.7344
-18.8357
-18.9319
-19.0229
-19.1088
-19.1896
-19.2652
-19.3356
-19.4009
-19.461
-19.5159
-19.5657
-19.6103
-19.6497
-19.684
-19.7132
-19.7373
-15.8953
-16.0569
-16.2166
-16.3721
-16.5225
-16.6675
-16.8072
-16.9414
-17.0703
-17.1939
-17.3124
-17.4257
-17.534
-17.6372
-17.7354
-17.8286
-17.9167
-17.9999
-18.078
-18.151
-18.219
-18.282
-18.3398
-18.3927
-18.4404
-18.4831
-18.5208
-18.5534
-18.581
-18.6037
-14.9236
-15.0826
-15.2404
-15.3936
-15.5412
-15.683
-15.8194
-15.9502
-16.0757
-16.1959
-16.311
-16.4212
-16.5263
-16.6265
-16.7218
-16.8122
-16.8977
-16.9782
-17.0539
-17.1246
-17.1903
-17.2511
-17.3069
-17.3578
-17.4037
-17.4447
-17.4807
-17.5118
-17.538
-17.5593
-14.0268
-14.1839
-14.3408
-14.4922
-14.6371
-14.776
-14.9092
-15.0367
-15.1589
-15.2759
-15.3879
-15.495
-15.5972
-15.6946
-15.7872
-15.875
-15.958
-16.0361
-16.1095
-16.178
-16.2417
-16.3005
-16.3544
-16.4035
-16.4477
-16.4871
-16.5216
-16.5513
-16.5761
-16.5962
-13.198
-13.3542
-13.5113
-13.6614
-13.8038
-13.9398
-14.0699
-14.1943
-14.3133
-14.4272
-14.5362
-14.6405
-14.7399
-14.8347
-14.9247
-15.0101
-15.0908
-15.1667
-15.2379
-15.3044
-15.3661
-15.4231
-15.4753
-15.5227
-15.5653
-15.6032
-15.6363
-15.6647
-15.6883
-15.7073
-12.4303
-12.5882
-12.7471
-12.8959
-13.0358
-13.169
-13.296
-13.4172
-13.5332
-13.6441
-13.7503
-13.8518
-13.9487
-14.0409
-14.1286
-14.2117
-14.2901
-14.3639
-14.4331
-14.4977
-14.5576
-14.6128
-14.6633
-14.7092
-14.7503
-14.7868
-14.8186
-14.8457
-14.8682
-14.8861
-11.7138
-11.8796
-12.043
-12.1904
-12.3275
-12.4578
-12.5818
-12.6999
-12.8129
-12.921
-13.0245
-13.1234
-13.2177
-13.3076
-13.393
-13.4739
-13.5502
-13.6221
-13.6894
-13.7521
-13.8103
-13.8638
-13.9128
-13.9572
-13.997
-14.0321
-14.0627
-14.0886
-14.11
-14.1269
-11.0295
-11.2126
-11.3863
-11.533
-11.6675
-11.7951
-11.9162
-12.0315
-12.1418
-12.2475
-12.3486
-12.4453
-12.5376
-12.6255
-12.709
-12.7881
-12.8627
-12.933
-12.9987
-13.06
-13.1168
-13.169
-13.2168
-13.26
-13.2987
-13.3328
-13.3624
-13.3875
-13.408
-13.4241
-10.3729
-10.5783
-10.768
-10.917
-11.0494
-11.1744
-11.2929
-11.4058
-11.5139
-11.6174
-11.7167
-11.8116
-11.9022
-11.9885
-12.0705
-12.1482
-12.2215
-12.2905
-12.355
-12.4152
-12.471
-12.5223
-12.5692
-12.6116
-12.6496
-12.6831
-12.7121
-12.7367
-12.7568
-12.7725
-9.86386
-10.0844
-10.2681
-10.4156
-10.5431
-10.6611
-10.7736
-10.8811
-10.9841
-11.0828
-11.1773
-11.2677
-11.354
-11.436
-11.5139
-11.5875
-11.6569
-11.7221
-11.7831
-11.8398
-11.8922
-11.9403
-11.9841
-12.0237
-12.0589
-12.0898
-12.1164
-12.1387
-12.1567
-12.1704
-5.30088
-5.78426
-6.31148
-6.88329
-7.50381
-8.17759
-8.90926
-9.70391
-10.5672
-11.5056
-12.5261
-13.6366
-14.8461
-16.1646
-17.6037
-19.1764
-20.8977
-22.7847
-24.8576
-27.1394
-29.6577
-32.4444
-35.537
-38.9794
-42.8246
-47.1368
-51.9529
-57.2642
-63.6464
-72.0942
-5.44827
-5.93498
-6.46367
-7.03745
-7.66032
-8.33662
-9.07099
-9.86858
-10.7351
-11.677
-12.7012
-13.8159
-15.0299
-16.3535
-17.7981
-19.3768
-21.1047
-22.9991
-25.0801
-27.3711
-29.8994
-32.6973
-35.8023
-39.2583
-43.1182
-47.446
-52.2781
-57.603
-63.9902
-72.4286
-5.59741
-6.08744
-6.61765
-7.19348
-7.81877
-8.49766
-9.23482
-10.0354
-10.9053
-11.8507
-12.8789
-13.9978
-15.2165
-16.5452
-17.9954
-19.5803
-21.315
-23.2169
-25.3063
-27.6065
-30.1451
-32.9544
-36.072
-39.5416
-43.4161
-47.7591
-52.606
-57.9425
-64.3306
-72.752
-5.74806
-6.24138
-6.77314
-7.35108
-7.97885
-8.6604
-9.4004
-10.2041
-11.0773
-12.0263
-13.0585
-14.1818
-15.4052
-16.7391
-18.195
-19.7861
-21.5277
-23.4373
-25.535
-27.8446
-30.3936
-33.2143
-36.3444
-39.8277
-43.7166
-48.0744
-52.9355
-58.2843
-64.6779
-73.0924
-5.90005
-6.39664
-6.92999
-7.5101
-8.14042
-8.82468
-9.56757
-10.3744
-11.251
-12.2037
-13.2399
-14.3676
-15.5958
-16.935
-18.3966
-19.9941
-21.7426
-23.6599
-25.7661
-28.0851
-30.6444
-33.4766
-36.6193
-40.1161
-44.0195
-48.392
-53.2675
-58.6294
-65.0323
-73.447
-6.05323
-6.55307
-7.08804
-7.6704
-8.30334
-8.99037
-9.73622
-10.5462
-11.4263
-12.3828
-13.4231
-14.5552
-15.7883
-17.1327
-18.6002
-20.204
-21.9596
-23.8846
-25.9994
-28.3278
-30.8976
-33.7412
-36.8965
-40.407
-44.3248
-48.7123
-53.6024
-58.9779
-65.3912
-73.8092
-6.20747
-6.71051
-7.24715
-7.83183
-8.46746
-9.15732
-9.90619
-10.7195
-11.603
-12.5634
-13.6078
-14.7444
-15.9824
-17.3322
-18.8056
-20.4159
-22.1785
-24.1113
-26.2347
-28.5727
-31.153
-34.0082
-37.1762
-40.7004
-44.6328
-49.0353
-53.9403
-59.3294
-65.7536
-74.1764
-6.36262
-6.86882
-7.40716
-7.99424
-8.63262
-9.32537
-10.0773
-10.8939
-11.781
-12.7453
-13.7939
-14.9351
-16.1781
-17.5333
-19.0126
-20.6294
-22.3992
-24.3399
-26.472
-28.8196
-31.4105
-34.2774
-37.4581
-40.9961
-44.9432
-49.3609
-54.2809
-59.6838
-66.1192
-74.5481
-6.51854
-7.02785
-7.56793
-8.15748
-8.79868
-9.49439
-10.2495
-11.0694
-11.9602
-12.9283
-13.9812
-15.127
-16.3751
-17.7358
-19.221
-20.8445
-22.6215
-24.5701
-26.711
-29.0683
-31.6698
-34.5485
-37.742
-41.2939
-45.2558
-49.6888
-54.6239
-60.0408
-66.4878
-74.9235
-6.67511
-7.18747
-7.72932
-8.32142
-8.96552
-9.66424
-10.4225
-11.2459
-12.1403
-13.1125
-14.1696
-15.3201
-16.5732
-17.9395
-19.4308
-21.0609
-22.8452
-24.8019
-26.9516
-29.3186
-31.9309
-34.8213
-38.0278
-41.5937
-45.5704
-50.0187
-54.9691
-60.4003
-66.8589
-75.3019
-6.83221
-7.34757
-7.89122
-8.48595
-9.133
-9.8348
-10.5963
-11.4232
-12.3213
-13.2975
-14.359
-15.5142
-16.7725
-18.1443
-19.6417
-21.2785
-23.0701
-25.0349
-27.1935
-29.5703
-32.1934
-35.0957
-38.3152
-41.8951
-45.8868
-50.3506
-55.3163
-60.7617
-67.2322
-75.6827
-6.98973
-7.50802
-8.05352
-8.65094
-9.30102
-10.006
-10.7708
-11.6011
-12.5031
-13.4833
-14.5492
-15.7092
-16.9726
-18.35
-19.8536
-21.4971
-23.2961
-25.269
-27.4366
-29.8232
-32.4572
-35.3715
-38.604
-42.198
-46.2046
-50.6839
-55.6651
-61.1247
-67.6071
-76.0653
-7.1476
-7.66875
-8.21611
-8.81631
-9.46948
-10.1776
-10.9458
-11.7797
-12.6854
-13.6697
-14.7401
-15.9048
-17.1734
-18.5565
-20.0663
-21.7165
-23.523
-25.504
-27.6806
-30.0771
-32.7221
-35.6483
-38.8939
-42.5021
-46.5237
-51.0186
-56.0151
-61.489
-67.9832
-76.4491
-7.30574
-7.82967
-8.37891
-8.98197
-9.63829
-10.3496
-11.1212
-11.9587
-12.8683
-13.8567
-14.9315
-16.101
-17.3749
-18.7637
-20.2796
-21.9366
-23.7506
-25.7398
-27.9254
-30.3319
-32.9878
-35.9261
-39.1847
-42.8071
-46.8438
-51.3542
-56.366
-61.8541
-68.3602
-76.8337
-7.46411
-7.99074
-8.54189
-9.14786
-9.80738
-10.522
-11.297
-12.1381
-13.0516
-14.0441
-15.1233
-16.2977
-17.5767
-18.9712
-20.4934
-22.1572
-23.9786
-25.976
-28.1707
-30.5872
-33.2541
-36.2044
-39.4763
-43.1128
-47.1645
-51.6904
-56.7176
-62.2199
-68.7376
-77.2187
-7.6227
-8.15192
-8.70499
-9.31394
-9.97671
-10.6946
-11.473
-12.3178
-13.2351
-14.2318
-15.3155
-16.4946
-17.7789
-19.1791
-20.7075
-22.3781
-24.207
-26.2126
-28.4164
-30.8428
-33.5207
-36.4832
-39.7682
-43.4189
-47.4856
-52.027
-57.0695
-62.5858
-69.1151
-77.6037
-7.78153
-8.31325
-8.86822
-9.48019
-10.1462
-10.8675
-11.6493
-12.4977
-13.4188
-14.4197
-15.5078
-16.6917
-17.9812
-19.3871
-20.9217
-22.5991
-24.4354
-26.4493
-28.6621
-31.0986
-33.7875
-36.762
-40.0602
-43.7251
-47.8068
-52.3636
-57.4213
-62.9516
-69.4922
-77.9882
-7.94068
-8.47476
-9.0316
-9.64662
-10.3159
-11.0404
-11.8257
-12.6776
-13.6026
-14.6076
-15.7001
-16.8888
-18.1835
-19.595
-21.1358
-22.82
-24.6638
-26.6859
-28.9078
-31.3542
-34.0542
-37.0407
-40.3521
-44.0311
-48.1278
-52.7
-57.7728
-63.3168
-69.8688
-78.372
-8.10028
-8.63655
-9.1952
-9.81325
-10.4858
-11.2136
-12.0021
-12.8577
-13.7864
-14.7954
-15.8922
-17.0857
-18.3855
-19.8026
-21.3496
-23.0405
-24.8918
-26.9221
-29.153
-31.6095
-34.3204
-37.319
-40.6435
-44.3367
-48.4483
-53.0358
-58.1235
-63.6813
-70.2444
-78.7546
-8.26052
-8.79876
-9.3591
-9.98012
-10.6559
-11.3868
-12.1786
-13.0376
-13.97
-14.9829
-16.0841
-17.2822
-18.5871
-20.0098
-21.5628
-23.2605
-25.1192
-27.1577
-29.3976
-31.8641
-34.5859
-37.5966
-40.9342
-44.6415
-48.768