/*--------------------------------*- C++ -*----------------------------------*\
  =========                 |
  \\      /  F ield         | OpenFOAM: The Open Source CFD Toolbox
   \\    /   O peration     | Website:  https://openfoam.org
    \\  /    A nd           | Version:  6.0
     \\/     M anipulation  |
\*---------------------------------------------------------------------------*/
FoamFile
{
    version     2.0;
    format      ascii;
    class       volScalarField;
    location    "17.752";
    object      p;
}
// * * * * * * * * * * * * * * * * * * * * * * * * * * * * * * * * * * * * * //

dimensions      [0 2 -2 0 0 0 0];

internalField   nonuniform List<scalar> 
19200
(
-0.396622
-0.391588
-0.387826
-0.384694
-0.381814
-0.379169
-0.376712
-0.374392
-0.372171
-0.370022
-0.367926
-0.365868
-0.363838
-0.361831
-0.359843
-0.357872
-0.355918
-0.35398
-0.352061
-0.350161
-0.348282
-0.346426
-0.344593
-0.342787
-0.341007
-0.339258
-0.337539
-0.335794
-0.334008
-0.332769
-0.400244
-0.395092
-0.391306
-0.388149
-0.385231
-0.38253
-0.380005
-0.377606
-0.375296
-0.373052
-0.370855
-0.368691
-0.366553
-0.364436
-0.362337
-0.360255
-0.358191
-0.356146
-0.354121
-0.352118
-0.35014
-0.348188
-0.346265
-0.344371
-0.342509
-0.340685
-0.338896
-0.337078
-0.335207
-0.333974
-0.404441
-0.39908
-0.395202
-0.391984
-0.388998
-0.386221
-0.38361
-0.381115
-0.378703
-0.376349
-0.374036
-0.371753
-0.369494
-0.367254
-0.365032
-0.362828
-0.360643
-0.358478
-0.356337
-0.354221
-0.352134
-0.350078
-0.348055
-0.346067
-0.344117
-0.342211
-0.340347
-0.338449
-0.336485
-0.33527
-0.408999
-0.403487
-0.399512
-0.396212
-0.393137
-0.390263
-0.387547
-0.384939
-0.382406
-0.379926
-0.377483
-0.375067
-0.372672
-0.370296
-0.367938
-0.365599
-0.36328
-0.360985
-0.358716
-0.356477
-0.354271
-0.352101
-0.349969
-0.347878
-0.345832
-0.343838
-0.341894
-0.33991
-0.337843
-0.33666
-0.413969
-0.408317
-0.404236
-0.400834
-0.397651
-0.394661
-0.391821
-0.389083
-0.386414
-0.383792
-0.381203
-0.378639
-0.376095
-0.373569
-0.371061
-0.368574
-0.36611
-0.363672
-0.361264
-0.35889
-0.356554
-0.354259
-0.35201
-0.349808
-0.347657
-0.345568
-0.343538
-0.341461
-0.339281
-0.338145
-0.419384
-0.413585
-0.40938
-0.405859
-0.402548
-0.399424
-0.396443
-0.393557
-0.390734
-0.387955
-0.385205
-0.382478
-0.37977
-0.37708
-0.374409
-0.37176
-0.369137
-0.366544
-0.363985
-0.361465
-0.358988
-0.356558
-0.354181
-0.351858
-0.349594
-0.347403
-0.345282
-0.343104
-0.340801
-0.339724
-0.425262
-0.419298
-0.414954
-0.411295
-0.40784
-0.404562
-0.401422
-0.39837
-0.395377
-0.392423
-0.389497
-0.386592
-0.383705
-0.380836
-0.377988
-0.375165
-0.37237
-0.369608
-0.366885
-0.364206
-0.361576
-0.359001
-0.356484
-0.35403
-0.351645
-0.349343
-0.347123
-0.344837
-0.342399
-0.341396
-0.43162
-0.42547
-0.420968
-0.417154
-0.413533
-0.410084
-0.406766
-0.403531
-0.400351
-0.397206
-0.394087
-0.390988
-0.387907
-0.384845
-0.381806
-0.378793
-0.375812
-0.372869
-0.369969
-0.367118
-0.364323
-0.361589
-0.358922
-0.356327
-0.353809
-0.351389
-0.349062
-0.346659
-0.344075
-0.34316
-0.438469
-0.432111
-0.427432
-0.423443
-0.419639
-0.415999
-0.412485
-0.409049
-0.405663
-0.402311
-0.398983
-0.395674
-0.392383
-0.389114
-0.385868
-0.382652
-0.379471
-0.376332
-0.373241
-0.370206
-0.367232
-0.364327
-0.361498
-0.358749
-0.356089
-0.353539
-0.351097
-0.348567
-0.345826
-0.345013
-0.445822
-0.439233
-0.434356
-0.430173
-0.426166
-0.422316
-0.418586
-0.414931
-0.411322
-0.407746
-0.404192
-0.400657
-0.397142
-0.393649
-0.390183
-0.386749
-0.383353
-0.380004
-0.376709
-0.373474
-0.370308
-0.367219
-0.364214
-0.361299
-0.358484
-0.355794
-0.353228
-0.350561
-0.347649
-0.346953
-0.453692
-0.446847
-0.44175
-0.437353
-0.433122
-0.429043
-0.425079
-0.421185
-0.417336
-0.413518
-0.409721
-0.405945
-0.402189
-0.398458
-0.394756
-0.391089
-0.387465
-0.383892
-0.380377
-0.376928
-0.373556
-0.370268
-0.367074
-0.363979
-0.360996
-0.358154
-0.355453
-0.352637
-0.349541
-0.348975
-0.46209
-0.454962
-0.449625
-0.444992
-0.440518
-0.436188
-0.43197
-0.42782
-0.423712
-0.419634
-0.415579
-0.411545
-0.407534
-0.403549
-0.399596
-0.395682
-0.391815
-0.388002
-0.384252
-0.380576
-0.376982
-0.37348
-0.370081
-0.366792
-0.363627
-0.36062
-0.357772
-0.354794
-0.351498
-0.351077
-0.471027
-0.46359
-0.457989
-0.4531
-0.44836
-0.44376
-0.439268
-0.434842
-0.430458
-0.426104
-0.421773
-0.417466
-0.413183
-0.40893
-0.404712
-0.400536
-0.39641
-0.392343
-0.388344
-0.384424
-0.380592
-0.376861
-0.373241
-0.369743
-0.36638
-0.363193
-0.360184
-0.357029
-0.353516
-0.353253
-0.480514
-0.472739
-0.466851
-0.461684
-0.456656
-0.451765
-0.446979
-0.442259
-0.43758
-0.432933
-0.428311
-0.423715
-0.419146
-0.41461
-0.410112
-0.405659
-0.401261
-0.396925
-0.392662
-0.388482
-0.384397
-0.380419
-0.376562
-0.372836
-0.369258
-0.365874
-0.362688
-0.359339
-0.355591
-0.355499
-0.49056
-0.48242
-0.47622
-0.470752
-0.465415
-0.460211
-0.455112
-0.450077
-0.445087
-0.440129
-0.4352
-0.4303
-0.42543
-0.420597
-0.415805
-0.411063
-0.406377
-0.401758
-0.397216
-0.39276
-0.388405
-0.384164
-0.38005
-0.376078
-0.372266
-0.368666
-0.365286
-0.361724
-0.357719
-0.357806
-0.501176
-0.49264
-0.486103
-0.480311
-0.474643
-0.469104
-0.463671
-0.458305
-0.452984
-0.4477
-0.442449
-0.43723
-0.432046
-0.426902
-0.421803
-0.416757
-0.411772
-0.406855
-0.402018
-0.397272
-0.39263
-0.388106
-0.383717
-0.379477
-0.37541
-0.371574
-0.367978
-0.36418
-0.359892
-0.360167
-0.51237
-0.503406
-0.496507
-0.490367
-0.484345
-0.478451
-0.472664
-0.466947
-0.46128
-0.455654
-0.450065
-0.444513
-0.439002
-0.433535
-0.428117
-0.422755
-0.417456
-0.412229
-0.407083
-0.40203
-0.397084
-0.392259
-0.387574
-0.383045
-0.378698
-0.374601
-0.370764
-0.366704
-0.362104
-0.362569
-0.52415
-0.514726
-0.507437
-0.500926
-0.494526
-0.488256
-0.482096
-0.476011
-0.46998
-0.463996
-0.458056
-0.452159
-0.446308
-0.440506
-0.434758
-0.429069
-0.423446
-0.417895
-0.412427
-0.407052
-0.401783
-0.396638
-0.391634
-0.386791
-0.382138
-0.37775
-0.373644
-0.369289
-0.364344
-0.364997
-0.536521
-0.526603
-0.518898
-0.511991
-0.505192
-0.498524
-0.491972
-0.4855
-0.47909
-0.472734
-0.46643
-0.460176
-0.453975
-0.447828
-0.44174
-0.435714
-0.429755
-0.42387
-0.418067
-0.412354
-0.406747
-0.40126
-0.395915
-0.39073
-0.385739
-0.381027
-0.376615
-0.371927
-0.366595
-0.367427
-0.549486
-0.539041
-0.530893
-0.523565
-0.516343
-0.509257
-0.502294
-0.495419
-0.488615
-0.481874
-0.475194
-0.468572
-0.462011
-0.455511
-0.449074
-0.442703
-0.436401
-0.430172
-0.424022
-0.417959
-0.411996
-0.406148
-0.400434
-0.394877
-0.389514
-0.384437
-0.379675
-0.374605
-0.368832
-0.369822
-0.563049
-0.55204
-0.543421
-0.535649
-0.527982
-0.520457
-0.513065
-0.505771
-0.498559
-0.491421
-0.484354
-0.477356
-0.470426
-0.463566
-0.456775
-0.450052
-0.4434
-0.43682
-0.430314
-0.42389
-0.417555
-0.411325
-0.405217
-0.399254
-0.393476
-0.387986
-0.382819
-0.377305
-0.371024
-0.372133
-0.577208
-0.5656
-0.556481
-0.548241
-0.540107
-0.532124
-0.524285
-0.516558
-0.508925
-0.501378
-0.493916
-0.486533
-0.47923
-0.472005
-0.464855
-0.457778
-0.450772
-0.443836
-0.43697
-0.430174
-0.423455
-0.416823
-0.410294
-0.403888
-0.397647
-0.391684
-0.386041
-0.380001
-0.373121
-0.374287
-0.591961
-0.579717
-0.57007
-0.561337
-0.552714
-0.544255
-0.535954
-0.527779
-0.519713
-0.51175
-0.503883
-0.496111
-0.48843
-0.480837
-0.473327
-0.465896
-0.458537
-0.451245
-0.444016
-0.436845
-0.429732
-0.422682
-0.415705
-0.408817
-0.402059
-0.395551
-0.389342
-0.382667
-0.375059
-0.376181
-0.607301
-0.594385
-0.58418
-0.574931
-0.565799
-0.556845
-0.548067
-0.539432
-0.530924
-0.522535
-0.51426
-0.506094
-0.498034
-0.490073
-0.482205
-0.474422
-0.466715
-0.459073
-0.451485
-0.443941
-0.436432
-0.428954
-0.421509
-0.414101
-0.406766
-0.399625
-0.392734
-0.385275
-0.376755
-0.377671
-0.623224
-0.609593
-0.598801
-0.589013
-0.579352
-0.569887
-0.560619
-0.551514
-0.542555
-0.533734
-0.525046
-0.516485
-0.508045
-0.499719
-0.491499
-0.483372
-0.475327
-0.467346
-0.459413
-0.451509
-0.443613
-0.43571
-0.427785
-0.419827
-0.411854
-0.403982
-0.396261
-0.387807
-0.378094
-0.378531
-0.639722
-0.625327
-0.613918
-0.603569
-0.593362
-0.583372
-0.573602
-0.564017
-0.5546
-0.545343
-0.536239
-0.527283
-0.518466
-0.509782
-0.501218
-0.492761
-0.484394
-0.476096
-0.467842
-0.459604
-0.45135
-0.443045
-0.434653
-0.426135
-0.417478
-0.408771
-0.400038
-0.3903
-0.378958
-0.378462
-0.656787
-0.641569
-0.62951
-0.61858
-0.607811
-0.597285
-0.587004
-0.576932
-0.567052
-0.557355
-0.547835
-0.538485
-0.529296
-0.520261
-0.511367
-0.502597
-0.493932
-0.485348
-0.476813
-0.468288
-0.45973
-0.451082
-0.44228
-0.433246
-0.423914
-0.414319
-0.404424
-0.393089
-0.379512
-0.377315
-0.67445
-0.658298
-0.645548
-0.634022
-0.622681
-0.611608
-0.600809
-0.590246
-0.579899
-0.569761
-0.559824
-0.550083
-0.540529
-0.531154
-0.521944
-0.512884
-0.503953
-0.495123
-0.486361
-0.477621
-0.468846
-0.459963
-0.450874
-0.441452
-0.431555
-0.42113
-0.410039
-0.396812
-0.379939
-0.374218
-0.692762
-0.675483
-0.661988
-0.649858
-0.637942
-0.626321
-0.615001
-0.603943
-0.593127
-0.582547
-0.572196
-0.562067
-0.552155
-0.54245
-0.532942
-0.523616
-0.514452
-0.505427
-0.496506
-0.487645
-0.478782
-0.469829
-0.460661
-0.451086
-0.440849
-0.429718
-0.417255
-0.401077
-0.377611
-0.363254
-0.711255
-0.69293
-0.67876
-0.666053
-0.653573
-0.641406
-0.629562
-0.618005
-0.606719
-0.595695
-0.584929
-0.574416
-0.564151
-0.554127
-0.544335
-0.534765
-0.525405
-0.516235
-0.507234
-0.498369
-0.489596
-0.480847
-0.472011
-0.462902
-0.453222
-0.442579
-0.430049
-0.411919
-0.381834
-0.355905
-1.1843
-1.18147
-1.17673
-1.17053
-1.16289
-1.15387
-1.14354
-1.13198
-1.11927
-1.10549
-1.09073
-1.07507
-1.0586
-1.04141
-1.02358
-1.00518
-0.986304
-0.967024
-0.947416
-0.927551
-0.907498
-0.887323
-0.867088
-0.84685
-0.826663
-0.806576
-0.78663
-0.766838
-0.747182
-0.728094
-1.14983
-1.14703
-1.14248
-1.13644
-1.12898
-1.12016
-1.11007
-1.09881
-1.08643
-1.07304
-1.05872
-1.04354
-1.0276
-1.01096
-0.993722
-0.975956
-0.957739
-0.939146
-0.920251
-0.901122
-0.881826
-0.862426
-0.842983
-0.823554
-0.804193
-0.784953
-0.765886
-0.747038
-0.728459
-0.710334
-1.12144
-1.11867
-1.11427
-1.1084
-1.10113
-1.09254
-1.08272
-1.07175
-1.05971
-1.04668
-1.03275
-1.018
-1.00251
-0.986365
-0.969635
-0.952402
-0.934741
-0.916725
-0.898424
-0.879906
-0.861237
-0.842478
-0.823688
-0.804924
-0.78624
-0.767688
-0.749319
-0.731185
-0.713345
-0.695874
-1.09469
-1.09204
-1.08783
-1.08218
-1.07517
-1.06686
-1.05735
-1.04672
-1.03504
-1.0224
-1.00888
-0.994561
-0.979525
-0.963849
-0.947612
-0.93089
-0.913757
-0.896284
-0.87854
-0.860593
-0.842505
-0.824338
-0.80615
-0.787996
-0.769929
-0.751999
-0.734255
-0.716746
-0.699523
-0.682633
-1.06758
-1.06514
-1.06119
-1.05584
-1.04914
-1.04118
-1.03204
-1.02179
-1.01052
-0.998312
-0.985238
-0.971383
-0.956826
-0.941645
-0.925917
-0.909718
-0.89312
-0.876193
-0.859007
-0.841627
-0.824115
-0.806531
-0.788932
-0.771374
-0.753907
-0.73658
-0.719441
-0.702533
-0.685902
-0.669584
-1.04036
-1.03823
-1.03462
-1.02962
-1.02331
-1.01576
-1.00704
-0.997227
-0.98641
-0.974663
-0.962068
-0.948704
-0.934649
-0.91998
-0.904774
-0.889105
-0.873044
-0.856663
-0.840029
-0.823206
-0.806256
-0.789239
-0.772212
-0.755227
-0.738335
-0.721586
-0.705022
-0.688687
-0.672621
-0.656857
-1.01315
-1.01139
-1.00819
-1.00362
-0.99775
-0.990653
-0.982403
-0.973077
-0.962754
-0.95151
-0.939425
-0.926577
-0.913045
-0.898904
-0.884231
-0.869098
-0.853578
-0.83774
-0.82165
-0.805374
-0.788973
-0.772505
-0.756027
-0.739592
-0.72325
-0.707049
-0.691031
-0.675239
-0.659709
-0.644477
-0.985956
-0.98464
-0.981895
-0.977805
-0.97243
-0.965838
-0.958104
-0.949303
-0.93951
-0.928801
-0.917256
-0.904951
-0.891962
-0.878366
-0.864238
-0.84965
-0.834673
-0.819377
-0.803828
-0.78809
-0.772224
-0.75629
-0.740342
-0.724435
-0.708618
-0.692937
-0.677437
-0.662159
-0.647138
-0.632409
-0.958836
-0.958005
-0.955767
-0.952199
-0.947359
-0.941312
-0.934132
-0.92589
-0.91666
-0.906517
-0.895537
-0.883798
-0.871373
-0.858338
-0.844767
-0.830733
-0.816304
-0.801551
-0.786539
-0.771332
-0.755991
-0.740575
-0.72514
-0.70974
-0.694423
-0.679238
-0.664228
-0.649435
-0.634894
-0.620641
-0.931857
-0.931547
-0.929848
-0.926834
-0.922561
-0.917091
-0.910494
-0.90284
-0.894201
-0.884649
-0.874258
-0.863105
-0.851262
-0.838804
-0.825802
-0.81233
-0.798455
-0.784246
-0.769769
-0.755088
-0.740263
-0.725353
-0.710414
-0.6955
-0.680662
-0.665946
-0.651399
-0.637062
-0.622972
-0.609167
-0.905096
-0.905325
-0.904188
-0.901751
-0.898067
-0.893196
-0.887205
-0.880162
-0.872134
-0.863193
-0.853411
-0.842862
-0.831617
-0.819748
-0.807328
-0.794426
-0.781111
-0.76745
-0.753508
-0.739348
-0.725031
-0.710616
-0.696159
-0.681713
-0.667331
-0.653061
-0.638949
-0.62504
-0.611371
-0.597982
-0.878625
-0.879405
-0.87884
-0.876991
-0.873909
-0.869652
-0.864282
-0.857864
-0.850463
-0.842148
-0.83299
-0.823059
-0.812425
-0.801159
-0.78933
-0.777008
-0.764259
-0.751149
-0.737743
-0.724103
-0.710289
-0.696359
-0.68237
-0.668377
-0.65443
-0.640581
-0.626878
-0.613366
-0.600087
-0.587083
-0.852517
-0.853846
-0.853854
-0.852597
-0.850122
-0.846484
-0.841743
-0.835958
-0.829194
-0.821517
-0.812993
-0.803691
-0.793679
-0.783025
-0.771797
-0.760061
-0.747885
-0.735331
-0.722463
-0.709343
-0.696028
-0.682577
-0.669045
-0.655488
-0.641958
-0.628507
-0.615184
-0.60204
-0.589118
-0.576466
-0.826837
-0.828706
-0.82928
-0.82861
-0.826739
-0.82372
-0.819607
-0.814459
-0.808336
-0.8013
-0.793417
-0.784751
-0.775368
-0.765334
-0.754715
-0.743574
-0.731977
-0.719985
-0.707659
-0.695059
-0.682242
-0.669265
-0.656182
-0.643048
-0.629917
-0.61684
-0.603872
-0.591063
-0.578464
-0.566126
-0.801645
-0.804039
-0.805165
-0.805069
-0.803792
-0.801383
-0.797895
-0.79338
-0.787895
-0.781502
-0.774261
-0.766235
-0.757486
-0.748077
-0.738073
-0.727534
-0.716523
-0.705098
-0.693319
-0.681243
-0.668925
-0.65642
-0.64378
-0.631059
-0.61831
-0.605587
-0.592944
-0.580437
-0.568122
-0.55606
-0.776994
-0.77989
-0.781548
-0.782008
-0.78131
-0.779499
-0.776623
-0.772732
-0.76788
-0.762125
-0.755524
-0.748137
-0.740024
-0.731245
-0.72186
-0.711928
-0.701509
-0.690659
-0.679433
-0.667886
-0.656071
-0.644038
-0.631839
-0.619523
-0.607143
-0.594752
-0.582407
-0.570167
-0.558095
-0.546261
-0.752929
-0.7563
-0.758465
-0.759459
-0.759319
-0.758087
-0.755808
-0.752528
-0.748298
-0.743172
-0.737206
-0.730454
-0.722975
-0.714826
-0.706063
-0.696743
-0.686922
-0.676654
-0.66599
-0.65498
-0.643674
-0.632119
-0.620361
-0.608447
-0.596425
-0.584348
-0.572272
-0.56026
-0.548384
-0.536726
-0.729485
-0.733302
-0.735946
-0.737448
-0.737842
-0.737167
-0.735464
-0.732777
-0.729154
-0.724646
-0.719304
-0.713181
-0.706332
-0.69881
-0.690671
-0.681967
-0.67275
-0.66307
-0.652976
-0.642514
-0.631728
-0.620659
-0.609348
-0.597837
-0.586168
-0.574389
-0.562555
-0.550731
-0.538996
-0.527449
-0.706692
-0.710924
-0.714015
-0.715996
-0.716896
-0.716753
-0.715603
-0.713488
-0.710454
-0.706547
-0.701816
-0.696312
-0.690085
-0.683188
-0.675671
-0.667584
-0.658976
-0.649894
-0.640381
-0.630478
-0.620225
-0.609656
-0.598804
-0.587704
-0.576388
-0.564896
-0.553278
-0.541597
-0.529941
-0.518426
-0.684572
-0.689184
-0.692692
-0.69512
-0.696497
-0.696857
-0.696235
-0.694668
-0.692201
-0.688876
-0.68474
-0.679841
-0.674227
-0.667947
-0.661049
-0.65358
-0.645586
-0.637108
-0.628188
-0.61886
-0.609157
-0.599106
-0.588733
-0.578058
-0.567104
-0.555897
-0.544473
-0.53289
-0.521239
-0.509654
-0.663139
-0.668099
-0.671989
-0.674832
-0.676655
-0.677489
-0.677366
-0.676322
-0.674396
-0.671632
-0.668073
-0.663763
-0.658749
-0.653077
-0.646793
-0.63994
-0.632561
-0.624696
-0.61638
-0.607644
-0.598512
-0.589005
-0.579136
-0.568913
-0.558341
-0.547426
-0.536183
-0.524653
-0.512922
-0.501137
-0.642403
-0.647677
-0.651916
-0.655142
-0.657378
-0.658654
-0.659001
-0.658451
-0.657042
-0.654814
-0.651809
-0.64807
-0.643641
-0.638565
-0.632886
-0.626646
-0.619885
-0.612639
-0.604939
-0.596812
-0.588277
-0.579343
-0.570014
-0.56028
-0.550124
-0.539525
-0.528464
-0.516947
-0.505041
-0.492885
-0.622367
-0.627922
-0.632477
-0.636053
-0.63867
-0.640357
-0.641142
-0.641057
-0.640136
-0.638419
-0.635946
-0.632756
-0.628893
-0.624399
-0.619315
-0.613681
-0.607537
-0.600914
-0.593842
-0.586344
-0.578431
-0.570108
-0.561362
-0.552168
-0.542482
-0.532246
-0.521391
-0.509861
-0.497678
-0.484924
-0.603029
-0.608834
-0.613674
-0.617566
-0.620533
-0.622599
-0.623791
-0.62414
-0.623679
-0.622445
-0.620477
-0.617814
-0.614497
-0.610567
-0.606065
-0.60103
-0.595498
-0.589501
-0.583068
-0.576216
-0.568955
-0.561281
-0.553172
-0.544584
-0.535445
-0.52565
-0.51506
-0.503523
-0.490966
-0.477313
-0.584385
-0.590409
-0.595502
-0.599681
-0.602965
-0.605378
-0.606946
-0.607698
-0.607667
-0.606888
-0.605398
-0.603236
-0.600443
-0.597058
-0.593121
-0.588672
-0.583747
-0.578377
-0.572589
-0.566402
-0.559822
-0.552841
-0.54543
-0.537529
-0.529039
-0.519804
-0.509596
-0.498114
-0.485126
-0.470196
-0.566425
-0.572638
-0.577953
-0.582385
-0.585954
-0.588681
-0.590592
-0.591714
-0.59208
-0.591724
-0.590682
-0.588993
-0.586696
-0.583832
-0.58044
-0.57656
-0.572229
-0.56748
-0.56234
-0.556829
-0.550954
-0.544708
-0.538058
-0.530938
-0.523225
-0.514718
-0.505082
-0.493818
-0.480466
-0.463884
-0.549141
-0.555514
-0.56102
-0.565674
-0.569495
-0.572503
-0.574723
-0.576181
-0.576909
-0.576941
-0.576313
-0.575063
-0.57323
-0.570855
-0.567979
-0.564642
-0.560884
-0.556738
-0.552235
-0.547398
-0.54224
-0.536757
-0.530923
-0.524673
-0.51788
-0.51031
-0.501524
-0.490779
-0.47733
-0.458767
-0.532523
-0.539051
-0.544741
-0.549609
-0.553672
-0.556949
-0.559465
-0.561247
-0.562324
-0.562731
-0.562502
-0.561677
-0.560296
-0.558399
-0.556029
-0.553228
-0.550036
-0.546492
-0.542629
-0.538477
-0.534056
-0.529371
-0.52441
-0.519125
-0.513407
-0.507032
-0.499501
-0.489814
-0.476783
-0.455237
-0.51654
-0.52324
-0.529133
-0.534233
-0.538558
-0.542127
-0.544963
-0.547095
-0.548552
-0.549368
-0.549579
-0.549225
-0.548347
-0.546987
-0.545189
-0.542998
-0.540456
-0.537607
-0.534488
-0.531135
-0.527576
-0.523831
-0.519907
-0.51579
-0.511422
-0.506667
-0.501118
-0.493696
-0.482674
-0.456708
-0.501102
-0.507755
-0.513636
-0.518755
-0.523133
-0.526789
-0.529746
-0.532031
-0.533677
-0.534717
-0.53519
-0.535135
-0.534597
-0.533622
-0.532257
-0.530552
-0.528555
-0.526316
-0.523885
-0.521307
-0.518628
-0.515888
-0.513127
-0.510381
-0.507686
-0.505102
-0.502535
-0.499382
-0.495675
-0.476197
-0.406229
-0.454027
-0.500537
-0.546371
-0.591344
-0.63529
-0.678091
-0.71964
-0.759833
-0.798573
-0.83577
-0.871343
-0.905215
-0.937318
-0.96759
-0.995978
-1.02244
-1.04693
-1.06941
-1.08988
-1.10831
-1.12469
-1.13903
-1.15134
-1.16162
-1.1699
-1.17621
-1.18056
-1.18295
-1.18377
-0.398363
-0.445003
-0.490569
-0.535303
-0.57909
-0.621814
-0.66338
-0.703693
-0.74266
-0.780191
-0.816202
-0.850613
-0.883355
-0.914361
-0.943573
-0.970942
-0.996424
-1.01998
-1.04159
-1.06123
-1.07888
-1.09455
-1.10823
-1.11994
-1.1297
-1.13752
-1.14345
-1.14752
-1.14978
-1.15041
-0.387447
-0.433079
-0.477791
-0.521646
-0.564541
-0.606377
-0.647062
-0.686508
-0.724624
-0.761324
-0.796528
-0.830159
-0.862149
-0.892434
-0.920959
-0.947674
-0.972537
-0.995516
-1.01658
-1.03572
-1.05292
-1.06817
-1.08148
-1.09286
-1.10233
-1.10992
-1.11567
-1.11961
-1.12179
-1.12232
-0.373145
-0.417864
-0.461755
-0.504815
-0.546937
-0.588022
-0.627981
-0.666724
-0.704164
-0.740217
-0.774802
-0.807847
-0.839283
-0.869048
-0.897088
-0.923353
-0.947804
-0.970405
-0.991133
-1.00997
-1.0269
-1.04192
-1.05504
-1.06627
-1.07563
-1.08315
-1.08886
-1.0928
-1.095
-1.09556
-0.355898
-0.399717
-0.442783
-0.485054
-0.526423
-0.56679
-0.606064
-0.644157
-0.680982
-0.716456
-0.7505
-0.783043
-0.814016
-0.843358
-0.871014
-0.896936
-0.921083
-0.943422
-0.963925
-0.982576
-0.999361
-1.01428
-1.02733
-1.03853
-1.04789
-1.05544
-1.06122
-1.06526
-1.06759
-1.0683
-0.336443
-0.37937
-0.421607
-0.463093
-0.503718
-0.543384
-0.582
-0.619478
-0.65573
-0.690676
-0.724237
-0.75634
-0.78692
-0.815914
-0.843267
-0.868932
-0.892865
-0.915034
-0.935411
-0.953976
-0.970717
-0.985629
-0.998714
-1.00998
-1.01945
-1.02714
-1.03309
-1.03732
-1.03988
-1.04083
-0.315471
-0.357502
-0.3989
-0.439592
-0.479472
-0.518441
-0.556409
-0.593287
-0.62899
-0.663436
-0.696548
-0.728254
-0.758486
-0.787183
-0.814289
-0.839756
-0.863541
-0.885608
-0.90593
-0.924485
-0.941258
-0.956244
-0.969443
-0.980863
-0.990517
-0.998429
-1.00463
-1.00914
-1.012
-1.01328
-0.293594
-0.334714
-0.375255
-0.415139
-0.45426
-0.492523
-0.529838
-0.566117
-0.601274
-0.635229
-0.667905
-0.699231
-0.729137
-0.757563
-0.784454
-0.809758
-0.833432
-0.85544
-0.875753
-0.894346
-0.911205
-0.926319
-0.939689
-0.951319
-0.961221
-0.969415
-0.975925
-0.980783
-0.984017
-0.985683
-0.271335
-0.311526
-0.351191
-0.390247
-0.428591
-0.466132
-0.50278
-0.538448
-0.573051
-0.606511
-0.63875
-0.669696
-0.699282
-0.727445
-0.75413
-0.779286
-0.802868
-0.824838
-0.845165
-0.863824
-0.880798
-0.896075
-0.909651
-0.92153
-0.93172
-0.940238
-0.947106
-0.952352
-0.956004
-0.958111
-0.249123
-0.288369
-0.327139
-0.365346
-0.402895
-0.439695
-0.475658
-0.510699
-0.544734
-0.577685
-0.609474
-0.640032
-0.669289
-0.697185
-0.723661
-0.748668
-0.772159
-0.794095
-0.814444
-0.833179
-0.85028
-0.865734
-0.879534
-0.891681
-0.902182
-0.911049
-0.918302
-0.923966
-0.928066
-0.930647
-0.227295
-0.265583
-0.303442
-0.340785
-0.377521
-0.413562
-0.448822
-0.483217
-0.516666
-0.54909
-0.580413
-0.610565
-0.639479
-0.667092
-0.693347
-0.718192
-0.741582
-0.763476
-0.78384
-0.802646
-0.819872
-0.835503
-0.84953
-0.86195
-0.872769
-0.881995
-0.889644
-0.895741
-0.900305
-0.903379
-0.206106
-0.243428
-0.280365
-0.316831
-0.35274
-0.388007
-0.422548
-0.456281
-0.489125
-0.521003
-0.551841
-0.581568
-0.610118
-0.637428
-0.663442
-0.688107
-0.711376
-0.73321
-0.753573
-0.772434
-0.789772
-0.805568
-0.819812
-0.832499
-0.84363
-0.853211
-0.861258
-0.867787
-0.872821
-0.876393
-0.18574
-0.222094
-0.258103
-0.293685
-0.328758
-0.36324
-0.397048
-0.430104
-0.462327
-0.493642
-0.523975
-0.553257
-0.581421
-0.608406
-0.634155
-0.658615
-0.681742
-0.703491
-0.723829
-0.742724
-0.760152
-0.776094
-0.790536
-0.803471
-0.814899
-0.824823
-0.833255
-0.840209
-0.845705
-0.849771
-0.166323
-0.20171
-0.236791
-0.271487
-0.30572
-0.339409
-0.372477
-0.404845
-0.436435
-0.467171
-0.496982
-0.525799
-0.553556
-0.580192
-0.605652
-0.629883
-0.652839
-0.674478
-0.694764
-0.713665
-0.731156
-0.747217
-0.761832
-0.774992
-0.786694
-0.79694
-0.805737
-0.813099
-0.819041
-0.823588
-0.147929
-0.182358
-0.216516
-0.250328
-0.28372
-0.316617
-0.348941
-0.380615
-0.411562
-0.441708
-0.470982
-0.499317
-0.526647
-0.552913
-0.57806
-0.602035
-0.624794
-0.646294
-0.666499
-0.685377
-0.702901
-0.719051
-0.733809
-0.747165
-0.759113
-0.769654
-0.778792
-0.786537
-0.792902
-0.797911
-0.130598
-0.164078
-0.197321
-0.230257
-0.262816
-0.294924
-0.326505
-0.357483
-0.387782
-0.417331
-0.446057
-0.473896
-0.500782
-0.526658
-0.55147
-0.575166
-0.597701
-0.619034
-0.639128
-0.657952
-0.675479
-0.691685
-0.706555
-0.720075
-0.732239
-0.743043
-0.752491
-0.760591
-0.767354
-0.772797
-0.114337
-0.146882
-0.179223
-0.211294
-0.24303
-0.274357
-0.3052
-0.335486
-0.365138
-0.394084
-0.422256
-0.449587
-0.476017
-0.501486
-0.525943
-0.549337
-0.571624
-0.592763
-0.612719
-0.63146
-0.648957
-0.665189
-0.680137
-0.693788
-0.706134
-0.717169
-0.726895
-0.735319
-0.742447
-0.748296
-0.0991323
-0.130757
-0.162211
-0.193432
-0.224358
-0.254917
-0.285034
-0.314634
-0.343642
-0.371987
-0.399601
-0.426418
-0.45238
-0.477429
-0.501514
-0.524587
-0.546604
-0.567526
-0.587316
-0.605945
-0.623384
-0.63961
-0.654604
-0.668354
-0.680847
-0.69208
-0.70205
-0.710763
-0.718224
-0.724447
-0.0849547
-0.115674
-0.146256
-0.176646
-0.206781
-0.236588
-0.265993
-0.294918
-0.32329
-0.351037
-0.378092
-0.404392
-0.429878
-0.454497
-0.478197
-0.500933
-0.522661
-0.543343
-0.562945
-0.581436
-0.598788
-0.614979
-0.629989
-0.643804
-0.656413
-0.667809
-0.67799
-0.686958
-0.694718
-0.701281
-0.0717623
-0.101587
-0.131316
-0.160896
-0.190261
-0.219338
-0.248048
-0.276313
-0.304058
-0.331214
-0.357714
-0.383496
-0.408503
-0.432684
-0.45599
-0.478374
-0.499798
-0.520223
-0.539615
-0.557945
-0.575185
-0.591313
-0.60631
-0.62016
-0.632853
-0.64438
-0.654738
-0.663927
-0.671952
-0.67882
-0.0595059
-0.0884454
-0.11734
-0.146132
-0.174753
-0.203123
-0.231159
-0.258781
-0.285914
-0.312488
-0.338438
-0.363704
-0.388232
-0.411971
-0.434875
-0.456899
-0.478005
-0.498157
-0.517321
-0.535469
-0.552575
-0.568616
-0.583573
-0.597431
-0.610177
-0.621804
-0.632306
-0.641685
-0.649941
-0.657081
-0.0481299
-0.0761866
-0.104268
-0.1323
-0.160204
-0.187894
-0.215281
-0.24228
-0.268816
-0.294819
-0.320227
-0.344983
-0.369033
-0.392328
-0.414825
-0.436482
-0.457261
-0.477127
-0.496049
-0.513999
-0.530951
-0.546883
-0.561776
-0.575615
-0.588387
-0.600084
-0.610701
-0.620237
-0.628691
-0.636071
-0.0375734
-0.0647412
-0.0920336
-0.119337
-0.146558
-0.173598
-0.200361
-0.226758
-0.252714
-0.278161
-0.303038
-0.327289
-0.350865
-0.373718
-0.395807
-0.417092
-0.437537
-0.457108
-0.475776
-0.493512
-0.510294
-0.526098
-0.540906
-0.554703
-0.567477
-0.579218
-0.589921
-0.599583
-0.608206
-0.615792
-0.0277673
-0.0540265
-0.0805611
-0.107173
-0.133748
-0.160174
-0.186341
-0.212161
-0.237556
-0.262461
-0.286818
-0.310574
-0.333681
-0.356095
-0.377777
-0.398689
-0.418795
-0.438065
-0.45647
-0.473982
-0.490579
-0.506239
-0.520944
-0.534679
-0.547431
-0.559192
-0.569955
-0.579717
-0.588479
-0.596243
-0.0186265
-0.0439529
-0.0697767
-0.0957441
-0.121719
-0.147568
-0.173172
-0.198438
-0.223292
-0.247671
-0.271521
-0.294792
-0.317438
-0.339419
-0.360696
-0.381235
-0.401001
-0.419966
-0.4381
-0.455379
-0.47178
-0.487282
-0.501869
-0.515523
-0.528235
-0.539993
-0.550793
-0.560629
-0.569503
-0.577416
-0.0100412
-0.0344601
-0.0596607
-0.0850436
-0.110468
-0.135782
-0.160852
-0.185587
-0.209918
-0.233786
-0.25714
-0.279934
-0.302126
-0.323678
-0.344553
-0.364718
-0.384142
-0.402797
-0.420654
-0.437691
-0.453885
-0.469217
-0.483669
-0.497226
-0.509877
-0.521611
-0.532424
-0.54231
-0.551269
-0.559303
-0.00185658
-0.025445
-0.050166
-0.0750355
-0.0999613
-0.124777
-0.14934
-0.173564
-0.197387
-0.220755
-0.243623
-0.265948
-0.287692
-0.308819
-0.329295
-0.349088
-0.36817
-0.386512
-0.404089
-0.420878
-0.436857
-0.452008
-0.466313
-0.479758
-0.492332
-0.504024
-0.514829
-0.524742
-0.533763
-0.541893
0.00637823
-0.0161491
-0.040563
-0.0650372
-0.089548
-0.113926
-0.138027
-0.161778
-0.185127
-0.208029
-0.230443
-0.252331
-0.273658
-0.29439
-0.314496
-0.333945
-0.35271
-0.370765
-0.388084
-0.404645
-0.420428
-0.435415
-0.449588
-0.462933
-0.47544
-0.487098
-0.497901
-0.507845
-0.516928
-0.525151
0.0159276
-0.00521714
-0.0296804
-0.0540444
-0.0783556
-0.102445
-0.126199
-0.149578
-0.172546
-0.195067
-0.217106
-0.238632
-0.259611
-0.280014
-0.29981
-0.318971
-0.337472
-0.355287
-0.372392
-0.388767
-0.404391
-0.419248
-0.43332
-0.446595
-0.459061
-0.470708
-0.481532
-0.491526
-0.500691
-0.509027
0.0256445
0.00230359
-0.0232444
-0.0477277
-0.0719733
-0.0958311
-0.119231
-0.142199
-0.164725
-0.186782
-0.208346
-0.22939
-0.249885
-0.269807
-0.289128
-0.307825
-0.325873
-0.34325
-0.359937
-0.375913
-0.391161
-0.405665
-0.419411
-0.432387
-0.444584
-0.455992
-0.466607
-0.476425
-0.485445
-0.493669
0.537397
0.544419
0.551605
0.558922
0.566366
0.573936
0.581623
0.589414
0.597298
0.605258
0.613276
0.621331
0.6294
0.637457
0.645476
0.653427
0.661286
0.66903
0.676644
0.684124
0.691487
0.698776
0.706073
0.713509
0.721287
0.729705
0.739075
0.749666
0.763286
0.783045
0.53024
0.537001
0.544028
0.551166
0.55841
0.565769
0.573233
0.580791
0.588426
0.596124
0.603863
0.611622
0.619377
0.627099
0.63476
0.642331
0.649784
0.657096
0.664251
0.671245
0.678095
0.684847
0.691585
0.698449
0.705651
0.713503
0.722335
0.732447
0.745703
0.765348
0.522228
0.52868
0.535523
0.542456
0.54947
0.556586
0.563796
0.571085
0.578437
0.585834
0.593256
0.600678
0.608074
0.615416
0.622674
0.629816
0.636815
0.643644
0.650287
0.656742
0.663027
0.669188
0.675318
0.681561
0.688142
0.695388
0.703653
0.713272
0.726177
0.74572
0.513372
0.519465
0.526098
0.532801
0.539556
0.546398
0.553321
0.560308
0.56734
0.5744
0.581465
0.58851
0.595506
0.602425
0.609233
0.6159
0.622394
0.62869
0.634772
0.640637
0.646304
0.651825
0.657296
0.662871
0.668787
0.675387
0.683049
0.692137
0.704624
0.723909
0.503678
0.509365
0.515767
0.522213
0.528679
0.535216
0.54182
0.548471
0.555149
0.561835
0.568505
0.575132
0.581687
0.588138
0.594452
0.600596
0.606539
0.612253
0.617723
0.622947
0.627947
0.632778
0.637542
0.642402
0.647608
0.653521
0.66054
0.669058
0.681073
0.699993
0.493159
0.498394
0.50454
0.510704
0.516852
0.523054
0.529308
0.53559
0.54188
0.548155
0.554393
0.560563
0.566635
0.572577
0.578352
0.583928
0.589271
0.594356
0.599165
0.603699
0.607981
0.612073
0.616083
0.620183
0.624637
0.629821
0.636157
0.644068
0.655563
0.674045
0.481827
0.486566
0.492433
0.498291
0.504092
0.509929
0.515801
0.521682
0.527549
0.53338
0.539147
0.544822
0.550372
0.555762
0.560956
0.565919
0.570617
0.575025
0.579126
0.582922
0.58644
0.589746
0.592955
0.596251
0.59991
0.604325
0.60994
0.617205
0.628137
0.646117
0.469696
0.473896
0.479462
0.484989
0.490415
0.495858
0.501318
0.506766
0.512178
0.517529
0.522791
0.527934
0.532922
0.53772
0.54229
0.546597
0.550607
0.554292
0.557639
0.56065
0.563358
0.565833
0.568198
0.570647
0.57347
0.577078
0.581935
0.588518
0.598846
0.616265
0.456781
0.460402
0.465645
0.470816
0.475842
0.480861
0.48588
0.490866
0.49579
0.500628
0.50535
0.509923
0.514312
0.518479
0.522386
0.525995
0.529272
0.532192
0.53474
0.536923
0.538776
0.540376
0.541855
0.543417
0.545366
0.548131
0.552195
0.558061
0.567746
0.584551
0.443098
0.446101
0.451002
0.455794
0.460391
0.464961
0.46951
0.474003
0.478409
0.482701
0.486849
0.490819
0.494572
0.49807
0.501274
0.504146
0.50665
0.508762
0.51047
0.511782
0.512739
0.513423
0.513976
0.514613
0.515652
0.517538
0.520777
0.525896
0.534901
0.55104
0.428663
0.431012
0.435552
0.439944