/*--------------------------------*- C++ -*----------------------------------*\
| =========                 |                                                 |
| \\      /  F ield         | OpenFOAM: The Open Source CFD Toolbox           |
|  \\    /   O peration     | Version:  v1912                                 |
|   \\  /    A nd           | Website:  www.openfoam.com                      |
|    \\/     M anipulation  |                                                 |
\*---------------------------------------------------------------------------*/
FoamFile
{
    version     2.0;
    format      ascii;
    class       volScalarField;
    location    "13.5";
    object      p;
}
// * * * * * * * * * * * * * * * * * * * * * * * * * * * * * * * * * * * * * //

dimensions      [0 2 -2 0 0 0 0];


internalField   nonuniform List<scalar> 
2400
(
-0.404609
-0.391121
-0.38312
-0.376572
-0.370092
-0.363727
-0.357555
-0.351541
-0.345698
-0.341174
-0.418076
-0.40363
-0.39466
-0.386955
-0.379226
-0.371619
-0.364276
-0.35718
-0.350278
-0.345185
-0.435561
-0.419489
-0.409109
-0.399834
-0.390477
-0.381279
-0.372433
-0.363908
-0.355724
-0.350051
-0.457361
-0.438886
-0.426717
-0.41542
-0.404028
-0.39287
-0.38217
-0.371866
-0.361984
-0.355537
-0.483885
-0.461927
-0.447748
-0.433919
-0.420071
-0.406577
-0.393657
-0.381177
-0.369136
-0.361653
-0.515366
-0.489297
-0.472041
-0.455467
-0.438827
-0.422645
-0.407146
-0.392069
-0.377324
-0.368401
-0.551462
-0.521143
-0.50014
-0.480319
-0.460553
-0.44139
-0.423017
-0.404971
-0.386917
-0.375892
-0.592554
-0.557417
-0.5321
-0.508639
-0.485472
-0.463086
-0.44159
-0.420204
-0.397988
-0.383546
-0.638858
-0.59794
-0.567933
-0.540588
-0.513847
-0.48806
-0.463089
-0.437452
-0.408829
-0.387655
-0.689811
-0.642452
-0.607577
-0.576365
-0.546328
-0.517747
-0.490194
-0.461312
-0.427012
-0.397091
-1.16209
-1.14536
-1.11605
-1.07653
-1.02904
-0.975783
-0.918858
-0.860161
-0.80135
-0.743985
-1.0637
-1.04869
-1.02226
-0.986592
-0.9438
-0.895971
-0.845061
-0.79283
-0.7408
-0.690292
-0.981578
-0.970329
-0.948138
-0.917002
-0.878964
-0.836043
-0.790144
-0.742984
-0.696052
-0.650582
-0.903833
-0.897505
-0.880491
-0.854582
-0.821682
-0.783718
-0.74254
-0.699848
-0.657143
-0.615656
-0.827726
-0.826576
-0.815098
-0.794817
-0.767427
-0.734685
-0.698315
-0.65994
-0.621055
-0.58289
-0.755699
-0.759372
-0.753253
-0.738589
-0.716812
-0.689443
-0.657988
-0.623873
-0.588492
-0.552989
-0.68917
-0.69696
-0.695659
-0.686266
-0.66996
-0.647994
-0.621581
-0.5918
-0.55975
-0.526295
-0.628569
-0.639699
-0.64254
-0.63791
-0.626795
-0.610224
-0.589105
-0.564014
-0.535363
-0.502978
-0.573764
-0.587587
-0.593986
-0.593688
-0.587593
-0.576638
-0.561566
-0.542486
-0.518578
-0.486163
-0.524709
-0.539896
-0.548638
-0.551638
-0.549819
-0.544223
-0.53581
-0.524953
-0.510765
-0.486435
-0.44812
-0.583408
-0.70891
-0.821728
-0.920671
-1.00396
-1.07024
-1.11885
-1.14975
-1.16364
-0.398415
-0.523381
-0.639804
-0.745757
-0.838394
-0.91616
-0.977985
-1.02331
-1.05217
-1.0652
-0.33231
-0.450382
-0.561173
-0.662428
-0.751587
-0.827324
-0.888436
-0.934244
-0.964631
-0.980047
-0.263442
-0.37415
-0.479009
-0.575649
-0.662222
-0.736774
-0.798152
-0.845584
-0.878764
-0.897908
-0.200398
-0.30322
-0.401641
-0.493357
-0.576414
-0.649085
-0.710161
-0.758779
-0.794483
-0.817282
-0.14654
-0.24164
-0.333583
-0.420001
-0.498994
-0.569091
-0.629061
-0.678042
-0.715485
-0.741258
-0.101943
-0.189936
-0.275811
-0.356946
-0.431663
-0.498677
-0.556852
-0.605397
-0.643695
-0.671551
-0.0649141
-0.146165
-0.226623
-0.302853
-0.373422
-0.437306
-0.493367
-0.540961
-0.579418
-0.608575
-0.0338774
-0.108396
-0.184054
-0.255903
-0.322635
-0.383395
-0.437479
-0.484004
-0.522167
-0.552035
-0.0149454
-0.0853159
-0.156448
-0.22323
-0.285098
-0.34144
-0.392265
-0.436864
-0.473468
-0.502641
0.526958
0.547873
0.570183
0.593095
0.616102
0.63853
0.659407
0.678109
0.699912
0.73926
0.500118
0.518335
0.538178
0.558183
0.577666
0.595889
0.611799
0.624809
0.640553
0.674607
0.46581
0.48036
0.496914
0.513091
0.527977
0.540795
0.550459
0.556519
0.565045
0.59261
0.424302
0.434345
0.446885
0.458388
0.467694
0.474013
0.476277
0.474273
0.47455
0.494503
0.375991
0.380847
0.388765
0.394851
0.397714
0.396591
0.390479
0.379491
0.370693
0.38209
0.32137
0.320561
0.3234
0.323462
0.319177
0.309854
0.294608
0.273966
0.255505
0.257598
0.261022
0.25431
0.251809
0.245402
0.233446
0.215386
0.190508
0.159819
0.131372
0.123621
0.195701
0.183129
0.175236
0.162069
0.142106
0.115011
0.080276
0.0394477
0.000971502
-0.0169341
0.126278
0.108583
0.0954274
0.07521
0.0470153
0.0107881
-0.0337618
-0.0845204
-0.132783
-0.160941
0.0516867
0.0313016
0.0132323
-0.0139681
-0.0501245
-0.0951923
-0.149186
-0.209341
-0.266865
-0.305417
0.380106
0.384122
0.394703
0.403025
0.409588
0.416091
0.424124
0.436044
0.454678
0.477493
0.428766
0.43398
0.445818
0.457221
0.467679
0.478348
0.490471
0.506071
0.528568
0.55781
0.467936
0.476711
0.491078
0.505945
0.520449
0.535316
0.551489
0.570645
0.596655
0.631587
0.500218
0.512933
0.530152
0.548312
0.566573
0.585357
0.605295
0.62768
0.656695
0.6964
0.525843
0.542174
0.562093
0.583185
0.604738
0.626941
0.650122
0.67517
0.706468
0.749941
0.544708
0.563994
0.586165
0.609628
0.633815
0.658723
0.684389
0.711314
0.744009
0.79011
0.556812
0.578148
0.601816
0.626873
0.652851
0.679553
0.70674
0.734552
0.767594
0.815086
0.560771
0.583811
0.608291
0.634164
0.661023
0.688483
0.716065
0.743605
0.775816
0.823392
0.557556
0.580794
0.60534
0.631143
0.657817
0.684849
0.711554
0.737531
0.767637
0.813955
0.546174
0.568742
0.592618
0.617461
0.642864
0.668229
0.69271
0.715751
0.742408
0.786068
0.336246
0.291577
0.240496
0.188661
0.137486
0.0883498
0.0382749
-0.00750377
-0.0499717
-0.0893941
0.340353
0.292692
0.239688
0.185109
0.130977
0.0784639
0.0275888
-0.0196878
-0.063418
-0.103538
0.343957
0.290584
0.233984
0.17658
0.120049
0.0655197
0.013699
-0.034389
-0.0783929
-0.118136
0.346704
0.288308
0.228071
0.167744
0.10884
0.0525232
-0.000393423
-0.049052
-0.0930159
-0.132128
0.3486
0.285787
0.22199
0.158765
0.0975622
0.0396196
-0.0141974
-0.063145
-0.106829
-0.145165
0.350623
0.283615
0.216339
0.150369
0.0870286
0.0276718
-0.0268599
-0.0759466
-0.119292
-0.15692
0.35443
0.283525
0.212936
0.144241
0.079041
0.0183401
-0.0369869
-0.0864125
-0.129751
-0.167141
0.362554
0.288107
0.214365
0.143083
0.0756709
0.013214
-0.0434897
-0.0939963
-0.138195
-0.176297
0.377074
0.298519
0.22088
0.145703
0.0746116
0.00877339
-0.051027
-0.104346
-0.151068
-0.191394
0.393187
0.307374
0.22231
0.139962
0.0618918
-0.0105815
-0.0764978
-0.135274
-0.186703
-0.230904
-0.125729
-0.159017
-0.189489
-0.217478
-0.243377
-0.267587
-0.290396
-0.311788
-0.332201
-0.342517
-0.139968
-0.172718
-0.202031
-0.228237
-0.251713
-0.272809
-0.291708
-0.308209
-0.321954
-0.326389
-0.15361
-0.184867
-0.212231
-0.236116
-0.25698
-0.275262
-0.291256
-0.304997
-0.316433
-0.322304
-0.16649
-0.196237
-0.221817
-0.243759
-0.262632
-0.278983
-0.293234
-0.305616
-0.316153
-0.322982
-0.17839
-0.206727
-0.230767
-0.251153
-0.268544
-0.283565
-0.296717
-0.308298
-0.318289
-0.325516
-0.189212
-0.21647
-0.239409
-0.258753
-0.27521
-0.28943
-0.301923
-0.312976
-0.322541
-0.329893
-0.199089
-0.225932
-0.248468
-0.26745
-0.283584
-0.297495
-0.309651
-0.320302
-0.329397
-0.336514
-0.208883
-0.236266
-0.259273
-0.278641
-0.295036
-0.309031
-0.321042
-0.331282
-0.339732
-0.34619
-0.225873
-0.254832
-0.279071
-0.299307
-0.316189
-0.330261
-0.341903
-0.351319
-0.358546
-0.363527
-0.268152
-0.299184
-0.324661
-0.345369
-0.362049
-0.375293
-0.385501
-0.392892
-0.397584
-0.399593
-0.398755
-0.366351
-0.350665
-0.341438
-0.334401
-0.328395
-0.322231
-0.313357
-0.297617
-0.282626
-0.396741
-0.367531
-0.353541
-0.344979
-0.338141
-0.332042
-0.325825
-0.317844
-0.30583
-0.297256
-0.393924
-0.367524
-0.355306
-0.347532
-0.341181
-0.335493
-0.329841
-0.323219
-0.314731
-0.310237
-0.390789
-0.366867
-0.356391
-0.349389
-0.343563
-0.338327
-0.333189
-0.327464
-0.320744
-0.317425
-0.387508
-0.366505
-0.357216
-0.350936
-0.345621
-0.340819
-0.336164
-0.331191
-0.325658
-0.322693
-0.38482
-0.366848
-0.358278
-0.35258
-0.347674
-0.343185
-0.338859
-0.334386
-0.329536
-0.32643
-0.38379
-0.367988
-0.360075
-0.354758
-0.350068
-0.345704
-0.341489
-0.337203
-0.332754
-0.329632
-0.384881
-0.370512
-0.363054
-0.357874
-0.353163
-0.348697
-0.344367
-0.34002
-0.335644
-0.332347
-0.388529
-0.374938
-0.367632
-0.362312
-0.357314
-0.352496
-0.34781
-0.343158
-0.338561
-0.334944
-0.395081
-0.381684
-0.374193
-0.368429
-0.362854
-0.357413
-0.352122
-0.346919
-0.341839
-0.337823
-0.334877
-0.279008
-0.251433
-0.208238
-0.176038
-0.143952
-0.117313
-0.0941978
-0.0757834
-0.0615988
-0.051375
-0.0441006
-0.0387382
-0.0339429
-0.028692
-0.0215623
-0.0140892
-0.00712657
-0.0041109
0.00218546
-0.340681
-0.281375
-0.253888
-0.210656
-0.178136
-0.145547
-0.11809
-0.0940444
-0.0747785
-0.0600979
-0.0499743
-0.0434546
-0.0391468
-0.0351105
-0.0299802
-0.0224502
-0.0144439
-0.0070681
-0.0039313
0.0022653
-0.348371
-0.284406
-0.256855
-0.2135
-0.180523
-0.14742
-0.119139
-0.0941947
-0.0740902
-0.0588923
-0.0488204
-0.0429498
-0.0396078
-0.0362565
-0.0312094
-0.0232952
-0.0147966
-0.00703702
-0.00377728
0.00232373
-0.357926
-0.288037
-0.26022
-0.216712
-0.183163
-0.149562
-0.120475
-0.0946785
-0.0737597
-0.0580243
-0.0479077
-0.0425967
-0.0401094
-0.0373605
-0.032366
-0.0240916
-0.0151457
-0.00703323
-0.00364884
0.00236074
-0.369034
-0.29238
-0.263875
-0.220243
-0.186037
-0.151965
-0.122107
-0.0955151
-0.0738136
-0.0575216
-0.0472829
-0.0424002
-0.0406399
-0.0384048
-0.0334407
-0.0248365
-0.0154899
-0.00705588
-0.00354503
0.00237686
-0.381265
-0.297573
-0.267732
-0.224034
-0.189116
-0.154609
-0.12403
-0.0967037
-0.0742562
-0.0573929
-0.0469539
-0.0423574
-0.0411876
-0.0393777
-0.0344275
-0.0255284
-0.0158281
-0.00710361
-0.00346457
0.00237292
-0.394168
-0.303831
-0.271789
-0.228057
-0.192399
-0.157497
-0.126257
-0.0982575
-0.0751017
-0.057651
-0.0469216
-0.0424607
-0.0417368
-0.0402714
-0.0353187
-0.0261664
-0.0161613
-0.00717673
-0.00340743
0.00234967
-0.407459
-0.311945
-0.276499
-0.23258
-0.196117
-0.160825
-0.128961
-0.100325
-0.07647
-0.0583853
-0.0472388
-0.0427217
-0.0422693
-0.0410476
-0.0361
-0.0267505
-0.0164961
-0.00728045
-0.00337748
0.00230686
-0.418899
-0.322774
-0.282495
-0.238
-0.200557
-0.164805
-0.132297
-0.103006
-0.0784206
-0.0596302
-0.0479317
-0.0431956
-0.0428103
-0.0417429
-0.0367993
-0.0272967
-0.0168355
-0.00741144
-0.00337044
0.00224679
-0.417349
-0.331288
-0.287327
-0.242439
-0.204126
-0.168017
-0.134967
-0.105126
-0.07993
-0.0605771
-0.0484909
-0.0436939
-0.0434881
-0.042601
-0.0375913
-0.0278491
-0.017129
-0.00750647
-0.0033303
0.00218746
-0.389989
-0.329592
-0.287524
-0.243613
-0.205108
-0.169057
-0.135706
-0.105467
-0.0797892
-0.0600708
-0.0479966
-0.0437898
-0.0445461
-0.04426
-0.0390493
-0.0287137
-0.0174274
-0.00751032
-0.00314588
0.0021287
-0.375125
-0.324239
-0.28253
-0.240705
-0.203404
-0.168607
-0.136089
-0.106477
-0.0811864
-0.0616622
-0.0495984
-0.0452868
-0.0458291
-0.0452813
-0.0397281
-0.0290998
-0.0176314
-0.00764647
-0.00310829
0.00191469
-0.356297
-0.31236
-0.271991
-0.233942
-0.199402
-0.166791
-0.135908
-0.107572
-0.0831693
-0.0641409
-0.0520939
-0.0473422
-0.0471776
-0.0459658
-0.0399649
-0.0291928
-0.0177449
-0.00783794
-0.00314209
0.00160364
-0.326661
-0.293094
-0.25694
-0.224052
-0.193628
-0.164101
-0.13553
-0.108957
-0.0857782
-0.0673976
-0.0552994
-0.0498184
-0.0485658
-0.0464176
-0.039915
-0.0291055
-0.0178053
-0.00808349
-0.00322614
0.00120118
-0.286693
-0.266685
-0.238249
-0.211428
-0.186006
-0.16042
-0.134863
-0.110564
-0.0889507
-0.0713746
-0.0591589
-0.0526497
-0.0499076
-0.04655
-0.0395227
-0.0288206
-0.017819
-0.00839806
-0.00338046
0.000708901
-0.244637
-0.236014
-0.217108
-0.196979
-0.17685
-0.155707
-0.133708
-0.112097
-0.0923283
-0.0756937
-0.0633456
-0.0556348
-0.0511358
-0.0463877
-0.0388437
-0.0283866
-0.0178149
-0.00878918
-0.00361781
0.000152379
-0.205934
-0.205525
-0.195403
-0.181928
-0.166938
-0.150212
-0.131946
-0.113221
-0.0954287
-0.0798098
-0.0673833
-0.0585082
-0.0522575
-0.0461104
-0.0380733
-0.0279256
-0.0178392
-0.00924774
-0.00393265
-0.00041718
-0.17418
-0.178481
-0.175252
-0.167666
-0.157278
-0.144483
-0.129662
-0.113707
-0.0978427
-0.0832358
-0.070828
-0.0610173
-0.0532891
-0.0459184
-0.0374337
-0.0275679
-0.0179262
-0.00973797
-0.00429537
-0.000933922
-0.151241
-0.157806
-0.159037
-0.155835
-0.149075
-0.139367
-0.127279
-0.113602
-0.0993735
-0.0856596
-0.0733625
-0.062944
-0.0541773
-0.0459075
-0.0370586
-0.0273825
-0.0180671
-0.010189
-0.00464432
-0.00133349
-0.138455
-0.145883
-0.149308
-0.148538
-0.143928
-0.136063
-0.125599
-0.113301
-0.100093
-0.0869592
-0.0747759
-0.0640629
-0.0547503
-0.0459951
-0.0369262
-0.0273396
-0.0181957
-0.0104932
-0.00488491
-0.00156102
-0.454801
-0.467388
-0.4747
-0.477234
-0.475839
-0.471821
-0.467068
-0.464195
-0.468187
-0.491793
-0.375201
-0.38865
-0.399211
-0.407387
-0.41384
-0.419378
-0.424858
-0.431001
-0.437899
-0.451767
-0.309971
-0.32309
-0.334695
-0.344969
-0.354047
-0.362009
-0.368891
-0.374868
-0.379916
-0.390103
-0.254522
-0.266163
-0.276755
-0.28635
-0.295004
-0.30282
-0.309976
-0.316792
-0.323286
-0.332033
-0.20836
-0.218455
-0.227855
-0.23661
-0.244775
-0.252404
-0.259547
-0.266256
-0.272455
-0.278879
-0.170943
-0.179576
-0.187725
-0.195403
-0.202622
-0.209391
-0.215723
-0.221638
-0.227149
-0.232352
-0.141385
-0.148687
-0.155628
-0.162204
-0.168414
-0.174261
-0.179751
-0.18489
-0.189681
-0.194075
-0.119021
-0.125255
-0.131201
-0.136848
-0.142191
-0.147224
-0.151945
-0.156356
-0.160455
-0.164214
-0.103486
-0.108934
-0.11414
-0.119092
-0.123779
-0.128196
-0.132338
-0.136204
-0.139793
-0.1431
-0.0950614
-0.100016
-0.104757
-0.109273
-0.113558
-0.117605
-0.121413
-0.12498
-0.128305
-0.13139
-0.0264107
-0.091886
-0.155671
-0.210792
-0.26084
-0.30653
-0.346923
-0.383146
-0.41295
-0.4367
-0.0465206
-0.0968692
-0.14475
-0.185258
-0.221878
-0.256018
-0.287178
-0.314142
-0.338122
-0.358466
-0.0587715
-0.0987504
-0.13366
-0.163229
-0.190212
-0.215484
-0.238694
-0.259358
-0.278224
-0.295091
-0.0640482
-0.0945796
-0.118989
-0.139884
-0.159652
-0.178557
-0.196244
-0.212523
-0.227756
-0.24175
-0.0628705
-0.0852658
-0.102496
-0.117625
-0.132495
-0.147066
-0.160957
-0.174039
-0.186087
-0.197549
-0.0575437
-0.0737035
-0.086359
-0.0978446
-0.109353
-0.120771
-0.131789
-0.142297
-0.152272
-0.16183
-0.0509874
-0.0627848
-0.0725111
-0.0816236
-0.0908002
-0.0999506
-0.108872
-0.117482
-0.125761
-0.133735
-0.0448459
-0.0537483
-0.0615719
-0.0690918
-0.0766501
-0.0841884
-0.0915874
-0.0987883
-0.105767
-0.112518
-0.0400027
-0.0471431
-0.0538005
-0.0603056
-0.0668092
-0.0732789
-0.0796485
-0.0858762
-0.0919371
-0.0978138
-0.0371825
-0.043539
-0.0496823
-0.0557086
-0.0616815
-0.067587
-0.0733883
-0.0790562
-0.0845692
-0.0899069
0.203907
0.2049
0.207297
0.210567
0.215043
0.218315
0.220756
0.210619
0.18641
0.0785946
0.195601
0.196129
0.19747
0.199004
0.200645
0.199849
0.195849
0.177522
0.14098
0.0429734
0.185695
0.185739
0.18594
0.185613
0.184348
0.179657
0.170113
0.14682
0.105759
0.0245546
0.174061
0.173575
0.172551
0.170298
0.166144
0.157944
0.143817
0.117935
0.0753693
0.00711166
0.16075
0.159734
0.157511
0.153445
0.14672
0.135715
0.118389
0.0916443
0.0503235
-0.00702434
0.146078
0.144584
0.141312
0.135728
0.12702
0.114118
0.0952125
0.0690455
0.0315342
-0.0157698
0.13073
0.128859
0.124798
0.118128
0.108185
0.0943594
0.0753629
0.0508993
0.0184636
-0.020021
0.115877
0.11376
0.109226
0.101962
0.091526
0.0776242
0.0595348
0.0373315
0.00983263
-0.0215118
0.103259
0.101029
0.0963111
0.0888804
0.0784858
0.0650171
0.0481736
0.0281409
0.00455221
-0.0216014
0.095293
0.0930383
0.0883126
0.0809355
0.07076
0.0577633
0.0418643
0.0232746
0.00198912
-0.0212685
0.239602
0.241764
0.247339
0.256049
0.269699
0.287807
0.314955
0.34993
0.402612
0.47003
0.237076
0.239163
0.24455
0.252935
0.266092
0.283393
0.309327
0.342205
0.391226
0.452518
0.23432
0.236327
0.241505
0.249528
0.262126
0.278482
0.302994
0.333243
0.377755
0.430854
0.231344
0.23327
0.238222
0.245848
0.257824
0.27311
0.296001
0.323097
0.36233
0.405054
0.228164
0.230006
0.234717
0.241918
0.253211
0.267311
0.288392
0.311821
0.345099
0.37515
0.224794
0.226554
0.231011
0.237761
0.248311
0.261123
0.280203
0.299481
0.326233
0.341194
0.221251
0.222934
0.227131
0.233413
0.243169
0.254611
0.271506
0.286205
0.305942
0.303288
0.217554
0.219175
0.223123
0.228942
0.237884
0.247928
0.262494
0.272289
0.284578
0.261516
0.213718
0.215289
0.218995
0.22436
0.232468
0.241101
0.253177
0.257791
0.262078
0.214976
0.209729
0.211181
0.214523
0.219263
0.226248
0.233134
0.242052
0.241006
0.235931
0.161803
0.251189
0.253718
0.259854
0.269715
0.284505
0.30354
0.330077
0.358837
0.396852
0.406525
0.251126
0.253663
0.259847
0.269557
0.284536
0.304619
0.332425
0.363881
0.407929
0.434378
0.250829
0.253343
0.259537
0.269305
0.284227
0.303882
0.333201
0.366379
0.414317
0.454402
0.2503
0.25279
0.258992
0.268781
0.283798
0.303567
0.332835
0.368647
0.419915
0.470751
0.24953
0.251994
0.258184
0.267941
0.282995
0.302951
0.332397
0.369902
0.424195
0.483329
0.248511
0.250943
0.257095
0.26678
0.281786
0.301772
0.331415
0.368378
0.426169
0.492329
0.247239
0.249631
0.255719
0.265294
0.280176
0.300055
0.329685
0.367493
0.424527
0.498273
0.24571
0.248056
0.254054
0.263478
0.278163
0.29781
0.327186
0.365173
0.422571
0.493373
0.243926
0.246217
0.252099
0.26133
0.275744
0.295026
0.323899
0.361416
0.418388
0.491028
0.241888
0.244118
0.249859
0.258851
0.272921
0.291691
0.319822
0.356344
0.411724
0.483124
0.206072
0.204656
0.201667
0.196915
0.190169
0.181208
0.169718
0.155514
0.138239
0.118033
0.211057
0.209826
0.207198
0.202947
0.196758
0.18829
0.177074
0.162769
0.144754
0.123099
0.2185
0.217611
0.215675
0.212415
0.20741
0.200108
0.18977
0.175707
0.156811
0.132852
0.226536
0.226124
0.225179
0.223391
0.220254
0.214967
0.206479
0.193469
0.174192
0.147586
0.233955
0.234105
0.234368
0.234426
0.233776
0.231366
0.225966
0.215253
0.19686
0.167774
0.240107
0.240842
0.242405
0.244512
0.246775
0.247955
0.246885
0.240001
0.224607
0.193829
0.244768
0.246053
0.248884
0.253049
0.258389
0.263601
0.267872
0.266346
0.256624
0.225743
0.24799
0.249755
0.25373
0.259796
0.268111
0.277473
0.287689
0.292845
0.291284
0.261958
0.249971
0.252125
0.257069
0.264768
0.275726
0.288999
0.305225
0.318118
0.326826
0.300062
0.250963
0.253389
0.259087
0.268091
0.281256
0.297869
0.31977
0.341101
0.363452
0.345229
0.103301
0.0971666
0.0909339
0.0846475
0.0782846
0.0718439
0.065346
0.0588164
0.05228
0.0457524
0.106899
0.100078
0.0931147
0.0861476
0.0791078
0.0719602
0.0647246
0.0574373
0.0501355
0.0428339
0.114004
0.105677
0.0970967
0.088699
0.0803249
0.0718441
0.0632604
0.0546263
0.0460134
0.0373974
0.125193
0.114523
0.103344
0.0927194
0.0823386
0.0718782
0.0613027
0.0506942
0.040151
0.0296206
0.141276
0.127349
0.11239
0.0986108
0.0854768
0.0723257
0.0590585
0.0458225
0.0325799
0.0194412
0.163147
0.144964
0.124785
0.106749
0.0899914
0.0733152
0.0565351
0.039928
0.0233574
0.00692495
0.191896
0.168492
0.141398
0.117772
0.0962724
0.0749254
0.0534875
0.0328092
0.0121571
-0.00827204
0.227929
0.19856
0.162937
0.132493
0.105101
0.0780328
0.0513237
0.0246953
-0.00116961
-0.0262594
0.270854
0.234483
0.189366
0.151093
0.116065
0.0814016
0.0480327
0.015042
-0.0165581
-0.0466894
0.320149
0.275988
0.222655
0.175247
0.130105
0.0856776
0.0428961
0.00230156
-0.0354173
-0.0704385
0.0392529
0.0328027
0.0264208
0.0201236
0.013926
0.00784158
0.00188252
-0.00394019
-0.0096168
-0.0151378
0.0355599
0.0283431
0.0212091
0.0141801
0.00727665
0.000517461
-0.00608051
-0.0125027
-0.0187362
-0.0247451
0.0288137
0.0203036
0.0118961
0.00361294
-0.00452588
-0.0125014
-0.0202962
-0.0278959
-0.0352889
-0.0423842
0.0191427
0.00876054
-0.00150004
-0.0116212
-0.021587
-0.0313821
-0.040993
-0.0504084
-0.0596259
-0.0685095
0.00642961
-0.00644939
-0.0191885
-0.0317775
-0.0442068
-0.0564695
-0.0685636
-0.0804928
-0.0922877
-0.103994
-0.00930792
-0.0253413
-0.041198
-0.0568998
-0.0724671
-0.0879215
-0.103284
-0.118563
-0.133817
-0.149809
-0.0283538
-0.0481011
-0.0675582
-0.0867659
-0.105778
-0.124681
-0.143601
-0.162647
-0.182158
-0.20397
-0.0507474
-0.0747436
-0.098316
-0.121515
-0.144369
-0.1669
-0.189167
-0.211274
-0.234493
-0.261627
-0.075522
-0.103182
-0.129838
-0.155755
-0.181276
-0.206782
-0.232613
-0.259047
-0.288296
-0.320672
-0.102808
-0.132509
-0.159692
-0.184757
-0.208381
-0.231514
-0.255264
-0.281084
-0.314755
-0.359116
-0.0282852
-0.0469916
-0.0631642
-0.0759028
-0.0846713
-0.0893765
-0.0902736
-0.0878677
-0.0825811
-0.0748161
-0.0649117
-0.0534747
-0.0413788
-0.0301992
-0.0212989
-0.0161651
-0.0135602
-0.0118654
-0.00786938
-0.00327201
-0.039396
-0.0587682
-0.0743068
-0.0856371
-0.0926358
-0.0955051
-0.0947797
-0.0910733
-0.0848422
-0.0763684
-0.0657988
-0.0536391
-0.040772
-0.0289735
-0.019878
-0.0151942
-0.0133199
-0.0121056
-0.00826649
-0.00328053
-0.0597517
-0.0797777
-0.0935995
-0.102004
-0.105593
-0.105163
-0.101688
-0.0959253
-0.0883186
-0.0788643
-0.0673223
-0.0540184
-0.0398767
-0.0270252
-0.0175942
-0.0136247
-0.0128921
-0.0124221
-0.0088873
-0.00321088
-0.0888965
-0.108599
-0.119087
-0.122686
-0.121165
-0.116211
-0.109223
-0.101102
-0.0921324
-0.0817741
-0.0692462
-0.054649
-0.0389837
-0.0248706
-0.0150474
-0.0118497
-0.0123023
-0.0125943
-0.00946153
-0.00299061
-0.125327
-0.142982
-0.148554
-0.145342
-0.137117
-0.126739
-0.115863
-0.105522
-0.0954966
-0.0845235
-0.0712239
-0.0554845
-0.0383925
-0.0231037
-0.0129127
-0.0102686
-0.0116257
-0.0124453
-0.00974958
-0.0026044
-0.16525
-0.179479
-0.179097
-0.167225
-0.151205
-0.135048
-0.120602
-0.10844
-0.0977434
-0.0865151
-0.0728152
-0.0563217
-0.0382182
-0.0221039
-0.011663
-0.00922619
-0.0109984
-0.0119664
-0.00967529
-0.002097
-0.202678
-0.213937
-0.206929
-0.185336
-0.161863
-0.140762
-0.123302
-0.109692
-0.098594
-0.0873834
-0.0736696
-0.0569208
-0.0383735
-0.0219219
-0.0114296
-0.00891614
-0.0105652
-0.0113166
-0.00930567
-0.00153512
-0.233497
-0.243365
-0.228902
-0.198529
-0.169437
-0.144352
-0.124481
-0.109716
-0.0983098
-0.0872133
-0.0737405
-0.0571596
-0.0386979
-0.0223709
-0.0120321
-0.00925658
-0.0103902
-0.0106418
-0.00876855
-0.000979299
-0.259671
-0.267339
-0.244681
-0.207805
-0.174703
-0.146507
-0.124804
-0.109082
-0.0973555
-0.0863409
-0.0732049
-0.0570475
-0.0390457
-0.0231814
-0.0131478
-0.0100156
-0.0104399
-0.0100338
-0.00818683
-0.000470507
-0.285363
-0.283778
-0.254389
-0.21341
-0.177855
-0.147535
-0.124541
-0.107915
-0.0957162
-0.0846211
-0.0718258
-0.0563381
-0.0392337
-0.0242406
-0.0146948
-0.0111313
-0.0106801
-0.00947373
-0.0075903
-4.596e-06
-0.322556
-0.287164
-0.255467
-0.214341
-0.17893
-0.148005
-0.124234
-0.106443
-0.0931504
-0.0815443
-0.0690903
-0.0546989
-0.0391834
-0.0256839
-0.0168997
-0.0127716
-0.0111045
-0.00895165
-0.00696723
0.000396086
-0.334431
-0.286835
-0.254228
-0.212031
-0.176778
-0.145837
-0.122262
-0.104449
-0.0910636
-0.0794466
-0.0672645
-0.0534677
-0.0388145
-0.026166
-0.0178707
-0.0135538
-0.0113189
-0.00866769
-0.00661574
0.000645105
-0.337303
-0.284356
-0.252009
-0.209049
-0.174293
-0.14361
-0.120506
-0.102751
-0.089269
-0.077584
-0.0655908
-0.0522713
-0.0383695
-0.0265026
-0.0186874
-0.014254
-0.0115395
-0.00843733
-0.00629878
0.000871696
-0.336787
-0.281956
-0.250217
-0.20686
-0.172707
-0.142289
-0.119098
-0.100972
-0.0874252
-0.0756808
-0.0638863
-0.0511249
-0.0380692
-0.0270283
-0.0196649
-0.0150451
-0.0117956
-0.00821645
-0.00598009
0.00108813
-0.334904
-0.279806
-0.248792
-0.205268
-0.171777
-0.141806
-0.117824
-0.0996719
-0.0855823
-0.0736575
-0.0620891
-0.0499881
-0.0378936
-0.027733
-0.0207894
-0.0159139
-0.0120791
-0.00800235
-0.00566399
0.00129386
-0.332574
-0.277908
-0.247749
-0.204247
-0.171373
-0.140261
-0.117176
-0.0984028
-0.0837777
-0.0715586
-0.0602309
-0.0488638
-0.0378139
-0.0285658
-0.0220085
-0.0168284
-0.0123829
-0.00780237
-0.00535882
0.00148597
-0.330174
-0.276827
-0.247321
-0.203869
-0.171157
-0.1406
-0.116746
-0.0972019
-0.0819652
-0.0693757
-0.0583505
-0.0477707
-0.037826
-0.0295044
-0.023298
-0.0177717
-0.0127038
-0.00762102
-0.00506876
0.00166248
-0.328618
-0.276257
-0.247546
-0.203859
-0.171642
-0.141032
-0.116517
-0.0961489
-0.0801988
-0.0672739
-0.0564837
-0.0467282
-0.0379296
-0.0305327
-0.0246373
-0.0187309
-0.0130386
-0.00746085
-0.00479653
0.00182195
-0.328688
-0.276286
-0.247807
-0.204641
-0.172774
-0.141668
-0.116527
-0.0952798
-0.078544
-0.0652508
-0.0546702
-0.0457556
-0.0381209
-0.0316307
-0.0259975
-0.0196915
-0.0133834
-0.00732398
-0.00454482
0.00196299
-0.330743
-0.277399
-0.249449
-0.206234
-0.174248
-0.142648
-0.116793
-0.0946203
-0.0770554
-0.0633384
-0.0529541
-0.0448732
-0.0383931
-0.0327754
-0.0273583
-0.0206395
-0.0137348
-0.0072121
-0.00431571
0.0020845
)
;

boundaryField
{
    inlet
    {
        type            freestreamPressure;
        freestreamValue uniform 0;
        value           nonuniform List<scalar> 
40
(
0.203907
0.195601
0.185695
0.174061
0.16075
0.146078
0.13073
0.115877
0.103259
0.095293
0.239602
0.237076
0.23432
0.231344
0.228164
0.224794
0.221251
0.217554
0.213718
0.209729
0.251189
0.251126
0.250829
0.2503
0.24953
0.248511
0.247239
0.24571
0.243926
0.241888
0.206072
0.211057
0.2185
0.226536
0.233955
0.240107
0.244768
0.24799
0.249971
0.250963
)
;
    }
    outlet
    {
        type            freestreamPressure;
        freestreamValue uniform 0;
        value           nonuniform List<scalar> 
40
(
2.67357e-07
2.71379e-07
2.44493e-07
1.85457e-07
1.02482e-07
1.8626e-08
-3.7566e-08
-5.04637e-08
-2.96242e-08
-4.18848e-09
3.25209e-09
1.50609e-08
3.48091e-08
6.10512e-08
9.18128e-08
1.2485e-07
1.57876e-07
1.88699e-07
2.15625e-07
2.38845e-07
6.39466e-08
8.56617e-08
9.17418e-08
8.65684e-08
7.316e-08
5.48442e-08
3.5225e-08
1.77404e-08
5.30977e-09
7.72476e-11
-3.46801e-08
-2.8009e-07
-6.32849e-07
-9.08579e-07
-9.71899e-07
-8.24558e-07
-5.69166e-07
-3.15075e-07
-1.23243e-07
-9.34398e-10
)
;
    }
    top
    {
        type            symmetryPlane;
    }
    bottom
    {
        type            symmetryPlane;
    }
    cylinder
    {
        type            zeroGradient;
    }
    frontandback
    {
        type            empty;
    }
}


// ************************************************************************* //
