/*--------------------------------*- C++ -*----------------------------------*\
  =========                 |
  \\      /  F ield         | OpenFOAM: The Open Source CFD Toolbox
   \\    /   O peration     | Website:  https://openfoam.org
    \\  /    A nd           | Version:  6.0
     \\/     M anipulation  |
\*---------------------------------------------------------------------------*/
FoamFile
{
    version     2.0;
    format      ascii;
    class       volScalarField;
    location    "14.75";
    object      p;
}
// * * * * * * * * * * * * * * * * * * * * * * * * * * * * * * * * * * * * * //

dimensions      [0 2 -2 0 0 0 0];

internalField   nonuniform List<scalar> 
2400
(
-100.254
-82.3968
-70.186
-60.564
-52.3198
-45.3782
-39.5794
-34.6913
-30.5102
-26.9257
-102.796
-84.6161
-72.0795
-62.2003
-53.7723
-46.7007
-40.8057
-35.8393
-31.5896
-27.956
-105.23
-86.7289
-73.8735
-63.7449
-55.1403
-47.9453
-41.9599
-36.9202
-32.6068
-28.9316
-107.525
-88.7129
-75.5493
-65.1814
-56.4083
-49.0948
-43.022
-37.9128
-33.5461
-29.85
-109.652
-90.5423
-77.0861
-66.4943
-57.5663
-50.1432
-43.9857
-38.8063
-34.3916
-30.6922
-111.587
-92.1916
-78.4569
-67.6585
-58.5964
-51.0859
-44.8612
-39.618
-35.1521
-31.437
-113.321
-93.6418
-79.632
-68.6331
-59.451
-51.88
-45.626
-40.358
-35.8645
-32.1272
-114.861
-94.8907
-80.5955
-69.3821
-60.0627
-52.4193
-46.146
-40.9042
-36.4887
-32.8861
-116.221
-95.9534
-81.3634
-69.9131
-60.4096
-52.6159
-46.227
-40.9551
-36.7142
-33.5819
-117.398
-96.852
-81.9777
-70.286
-60.5681
-52.5499
-45.9053
-40.3897
-36.0569
-33.0935
-123.587
-123.418
-123.088
-122.64
-122.099
-121.481
-120.797
-120.053
-119.252
-118.379
-100.855
-100.842
-100.703
-100.463
-100.14
-99.7471
-99.2971
-98.7944
-98.2361
-97.6015
-84.5541
-84.5855
-84.5183
-84.3685
-84.1524
-83.8856
-83.5825
-83.2508
-82.888
-82.476
-72.1749
-72.1738
-72.091
-71.9404
-71.7412
-71.5109
-71.2702
-71.0318
-70.8018
-70.5665
-62.1281
-62.0706
-61.942
-61.7554
-61.5348
-61.2979
-61.0757
-60.8841
-60.7467
-60.6554
-53.9089
-53.7969
-53.6206
-53.3906
-53.1372
-52.873
-52.6477
-52.4742
-52.4088
-52.4396
-47.098
-46.9405
-46.7232
-46.4522
-46.1634
-45.8559
-45.6088
-45.4257
-45.4332
-45.5676
-41.3494
-41.1573
-40.9092
-40.6069
-40.2875
-39.9243
-39.6291
-39.3893
-39.4871
-39.7436
-36.4139
-36.1966
-35.9309
-35.6168
-35.2854
-34.8751
-34.5087
-34.1396
-34.2841
-34.791
-32.1743
-31.9148
-31.6205
-31.2986
-30.9611
-30.5252
-30.0689
-29.512
-29.4337
-30.2124
-113.416
-115.412
-117.203
-118.793
-120.163
-121.299
-122.196
-122.859
-123.303
-123.543
-90.9456
-92.7805
-94.4547
-95.948
-97.2422
-98.3285
-99.2095
-99.8934
-100.391
-100.71
-75.7128
-77.3509
-78.8507
-80.1793
-81.3189
-82.2706
-83.0451
-83.6529
-84.1022
-84.4003
-64.6596
-66.1256
-67.4539
-68.6066
-69.5728
-70.3662
-71.0037
-71.4959
-71.8499
-72.0731
-55.8437
-57.1865
-58.3722
-59.361
-60.1629
-60.8088
-61.3179
-61.6975
-61.9535
-62.0939
-48.6367
-49.919
-50.9989
-51.8392
-52.493
-53.0128
-53.4131
-53.6961
-53.8677
-53.9358
-42.6036
-43.8789
-44.886
-45.5968
-46.1263
-46.5443
-46.855
-47.0588
-47.1626
-47.1741
-37.518
-38.7543
-39.6706
-40.2746
-40.7157
-41.0552
-41.2919
-41.4343
-41.4896
-41.4618
-33.5356
-34.5331
-35.1861
-35.6843
-36.0685
-36.3317
-36.4923
-36.5833
-36.6058
-36.553
-30.9889
-31.6066
-31.5971
-31.9291
-32.2629
-32.4107
-32.4535
-32.4689
-32.4454
-32.3566
-20.6096
-23.7005
-27.3292
-31.4934
-36.3193
-42.0273
-48.9206
-57.501
-69.7955
-89.5801
-21.2092
-24.4063
-28.1312
-32.4089
-37.3751
-43.2555
-50.3634
-59.2135
-71.8324
-91.9319
-21.8513
-25.1514
-28.9695
-33.3616
-38.4697
-44.5241
-51.8486
-60.9699
-73.9077
-94.3021
-22.5468
-25.9361
-29.8408
-34.3478
-39.6001
-45.8306
-53.3733
-62.7672
-76.0228
-96.7051
-23.2951
-26.7764
-30.7659
-35.3854
-40.778
-47.1799
-54.9372
-64.6015
-78.1727
-99.1378
-24.0606
-27.6331
-31.7152
-36.4559
-41.9927
-48.5659
-56.5354
-66.4661
-80.3473
-101.587
-24.892
-28.5818
-32.7518
-37.5967
-43.2606
-49.9926
-58.1645
-68.3526
-82.5341
-104.039
-25.7648
-29.5704
-33.825
-38.7716
-44.5615
-51.4479
-59.8131
-70.2468
-84.7161
-106.474
-26.9681
-30.837
-35.0544
-40.0272
-45.9086
-52.9271
-61.4655
-72.1271
-86.8708
-108.872
-28.5608
-32.1658
-36.2584
-41.2915
-47.2753
-54.4071
-63.095
-73.9631
-88.9634
-111.202
-15.7503
-17.3927
-19.8633
-23.0312
-26.7549
-31.1034
-36.2613
-42.5546
-51.8239
-68.25
-16.5991
-18.4187
-20.9729
-24.1224
-27.815
-32.1737
-37.3995
-43.8283
-53.3207
-70.0402
-16.7393
-18.9562
-21.7531
-25.0263
-28.8009
-33.2469
-38.5897
-45.1869
-54.924
-71.9418
-16.9978
-19.4049
-22.3616
-25.7763
-29.6904
-34.2823
-39.7897
-46.5935
-56.6077
-73.9473
-17.4391
-19.9311
-22.9839
-26.509
-30.5563
-35.3045
-40.9969
-48.0327
-58.351
-76.0332
-17.9293
-20.5136
-23.6592
-27.2831
-31.451
-36.3492
-42.2294
-49.5078
-60.1442
-78.1786
-18.4173
-21.1107
-24.358
-28.0864
-32.3777
-37.4275
-43.4985
-51.0252
-61.9857
-80.3729
-18.9251
-21.7235
-25.0702
-28.9066
-33.3275
-38.5356
-44.8042
-52.5862
-63.8751
-82.6125
-19.4643
-22.3583
-25.7992
-29.744
-34.2984
-39.6704
-46.1436
-54.1882
-65.8109
-84.8966
-20.0319
-23.02
-26.5527
-30.6056
-35.2945
-40.8335
-47.5157
-55.8279
-67.7876
-87.2225
-13.2602
-12.1639
-11.6927
-11.5243
-11.4759
-11.4995
-11.6065
-11.788
-12.0623
-12.4108
-15.9237
-15.0025
-14.3616
-14.0952
-13.9752
-13.9758
-14.0707
-14.2525
-14.5267
-14.8774
-18.7178
-17.9395
-17.3042
-16.974
-16.7976
-16.7713
-16.8535
-17.0371
-17.3165
-17.6785
-22.0011
-21.2307
-20.6137
-20.2366
-20.0153
-19.9556
-20.0195
-20.1995
-20.4834
-20.8598
-25.7757
-24.9789
-24.3527
-23.9333
-23.6765
-23.5856
-23.6323
-23.8089
-24.1007
-24.4973
-30.1256
-29.2962
-28.6386
-28.1726
-27.8793
-27.7574
-27.7876
-27.9611
-28.264
-28.686
-35.23
-34.3412
-33.6241
-33.0945
-32.7486
-32.5838
-32.5873
-32.7499
-33.0591
-33.5046
-41.4022
-40.3972
-39.5699
-38.9366
-38.5012
-38.2621
-38.211
-38.3391
-38.6355
-39.0895
-50.4543
-49.2442
-48.2287
-47.4261
-46.8421
-46.4762
-46.3229
-46.375
-46.6218
-47.048
-66.5663
-65.0733
-63.8066
-62.7792
-61.9956
-61.4546
-61.1523
-61.0825
-61.2329
-61.5765
-12.822
-13.2759
-13.7741
-14.3153
-14.8987
-15.4885
-16.0099
-16.4634
-17.0158
-17.4775
-15.2968
-15.7683
-16.2892
-16.8517
-17.447
-18.0527
-18.6387
-19.1697
-19.6056
-19.964
-18.1148
-18.6114
-19.1634
-19.7598
-20.3888
-21.0345
-21.6839
-22.3026
-22.8236
-23.2739
-21.3186
-21.8468
-22.4371
-23.0778
-23.7566
-24.4603
-25.1776
-25.8814
-26.535
-27.1645
-24.9869
-25.5565
-26.1972
-26.897
-27.6445
-28.4271
-29.2313
-30.0377
-30.8353
-31.6509
-29.2143
-29.8356
-30.5398
-31.3154
-32.1514
-33.0355
-33.9539
-34.8933
-35.8544
-36.8602
-34.0733
-34.7508
-35.5265
-36.3893
-37.3286
-38.3328
-39.3894
-40.4899
-41.638
-42.8508
-39.6863
-40.4096
-41.2502
-42.1978
-43.2417
-44.371
-45.576
-46.8519
-48.2027
-49.6389
-47.6328
-48.3642
-49.2359
-50.2381
-51.3596
-52.5907
-53.9254
-55.3638
-56.9094
-58.5624
-62.0769
-62.7499
-63.5893
-64.582
-65.7164
-66.9843
-68.3847
-69.9234
-71.6033
-73.4067
-75.2992
-60.3143
-51.1652
-44.1422
-37.9367
-32.536
-27.8796
-23.8531
-20.4291
-17.5155
-77.3324
-62.17
-52.7804
-45.5171
-39.0978
-33.5193
-28.7275
-24.6073
-21.0768
-17.964
-79.5157
-64.1382
-54.4896
-46.9812
-40.3524
-34.6076
-29.6901
-25.468
-21.8326
-18.6372
-81.8399
-66.2169
-56.2903
-48.5316
-41.6968
-35.7944
-30.7626
-26.4606
-22.7703
-19.5546
-84.2898
-68.3946
-58.1733
-50.1585
-43.1183
-37.0598
-31.9137
-27.5287
-23.7743
-20.5147
-86.8461
-70.6552
-60.1243
-51.8479
-44.6025
-38.39
-33.1313
-28.6638
-24.8427
-21.5291
-89.4873
-72.9794
-62.125
-53.5821
-46.1316
-39.7659
-34.3935
-29.838
-25.9386
-22.5562
-92.1894
-75.3452
-64.1549
-55.3418
-47.6877
-41.1723
-35.689
-31.0472
-27.0721
-23.627
-94.9199
-77.7267
-66.1922
-57.1068
-49.2517
-42.5897
-36.9982
-32.2724
-28.2258
-24.7282
-97.6286
-80.0909
-68.213
-58.8565
-50.8041
-43.9996
-38.3028
-33.4956
-29.3823
-25.8425
-17.4558
-7.87002
-3.67472
-1.91557
-0.871415
-0.41861
-0.258315
-0.227683
-0.246826
-0.281144
-0.310819
-0.333588
-0.337513
-0.321528
-0.282377
-0.213039
-0.151202
-0.0696471
-0.021542
-0.0181277
-18.4418
-8.66535
-4.06313
-2.1157
-1.01238
-0.501348
-0.310047
-0.261761
-0.269455
-0.295933
-0.320204
-0.339125
-0.340426
-0.322625
-0.282469
-0.213228
-0.151638
-0.0712441
-0.0237446
-0.0189366
-19.4031
-9.47979
-4.49674
-2.33143
-1.15536
-0.585465
-0.360722
-0.294289
-0.290737
-0.309711
-0.328894
-0.34423
-0.343125
-0.323679
-0.282655
-0.213591
-0.15224
-0.0729834
-0.0259225
-0.0196665
-20.3823
-10.2858
-4.9181
-2.52953
-1.28668
-0.667068
-0.409939
-0.325399
-0.310836
-0.322601
-0.336971
-0.348959
-0.34565
-0.324718
-0.28295
-0.214127
-0.153
-0.0748452
-0.0280718
-0.0203201
-21.3332
-10.9777
-5.24682
-2.67582
-1.39544
-0.743045
-0.457147
-0.355051
-0.329827
-0.334686
-0.3445
-0.353357
-0.348029
-0.325762
-0.283363
-0.214833
-0.153907
-0.0768106
-0.0301908
-0.0209006
-22.1003
-11.5023
-5.51701
-2.81504
-1.5075
-0.822318
-0.504642
-0.383761
-0.347869
-0.346049
-0.351533
-0.35746
-0.350285
-0.326825
-0.283895
-0.2157
-0.154947
-0.0788598
-0.0322776
-0.0214116
-22.7761
-12.2332
-6.03581
-3.12235
-1.70127
-0.93218
-0.560672
-0.41399
-0.365765
-0.357013
-0.358226
-0.361358
-0.352475
-0.327944
-0.284561
-0.216726
-0.156115
-0.0809771
-0.0343334
-0.0218578
-24.1866
-13.889
-7.162
-3.74828
-2.03093
-1.09294
-0.633854
-0.449321
-0.384987
-0.36826
-0.364941
-0.365282
-0.354773
-0.329245
-0.28545
-0.217953
-0.157429
-0.0831633
-0.036364
-0.0222492
-26.6683
-16.1239
-8.54943
-4.44773
-2.36379
-1.25683
-0.711657
-0.486513
-0.404649
-0.379557
-0.371627
-0.369226
-0.357189
-0.330755
-0.286594
-0.21941
-0.158905
-0.0854219
-0.0383725
-0.0225878
-26.579
-16.2956
-8.76273
-4.48062
-2.36705
-1.29268
-0.745493
-0.506531
-0.41672
-0.387053
-0.37616
-0.371705
-0.358515
-0.331476
-0.287225
-0.220645
-0.160241
-0.087606
-0.0403126
-0.0228341
-21.5332
-14.1892
-7.78031
-3.87598
-2.06709
-1.20229
-0.730778
-0.50494
-0.417921
-0.38843
-0.376784
-0.370951
-0.356883
-0.329627
-0.285957
-0.221232
-0.16143
-0.090375
-0.0428907
-0.0229952
-16.5796
-11.836
-6.79554
-3.43033
-1.85071
-1.1467
-0.749189
-0.531567
-0.438134
-0.402457
-0.38565
-0.375298
-0.358249
-0.329168
-0.284868
-0.221535
-0.162405
-0.093426
-0.0460247
-0.023167
-12.6766
-9.62451
-5.87439
-3.09751
-1.68526
-1.08121
-0.753678
-0.554286
-0.457224
-0.416375
-0.394971
-0.380054
-0.359763
-0.328569
-0.283404
-0.221458
-0.16318
-0.0964757
-0.0492902
-0.0232253
-9.22161
-7.47152
-4.92889
-2.80264
-1.5748
-1.02898
-0.752207
-0.574402
-0.475276
-0.428949
-0.403229
-0.383999
-0.360576
-0.327412
-0.281606
-0.221352
-0.164075
-0.0997398
-0.0527297
-0.0231145
-6.63814
-5.66641
-4.01533
-2.45607
-1.45181
-0.973689
-0.739237
-0.586556
-0.490578
-0.439953
-0.410287
-0.387119
-0.360759
-0.325814
-0.279625
-0.221279
-0.165106
-0.10313
-0.0562468
-0.0228265
-4.74957
-4.13143
-3.09959
-2.08573
-1.36337
-0.954642
-0.732811
-0.593096
-0.502259
-0.449059
-0.415873
-0.389262
-0.360308
-0.323846
-0.277533
-0.221184
-0.166185
-0.106475
-0.0596868
-0.0223889
-3.42343
-3.03386
-2.44103
-1.8109
-1.2786
-0.918239
-0.71161
-0.589802
-0.509188
-0.455918
-0.419751
-0.390238
-0.359175
-0.321563
-0.2754
-0.221025
-0.167232
-0.109607
-0.0628659
-0.0218653
-2.63303
-2.35798
-1.97741
-1.55401
-1.1703
-0.887266
-0.707863
-0.5944
-0.515845
-0.460661
-0.42169
-0.389961
-0.357436
-0.319128
-0.273358
-0.220805
-0.168164
-0.112353
-0.0655793
-0.021353
-2.21202
-1.98037
-1.70017
-1.397
-1.1095
-0.872649
-0.702078
-0.588783
-0.512914
-0.459952
-0.421136
-0.388669
-0.355458
-0.316887
-0.271624
-0.220567
-0.168885
-0.114517
-0.0676022
-0.0209694
-2.02341
-1.81012
-1.57293
-1.32005
-1.0728
-0.859314
-0.69828
-0.588347
-0.514156
-0.461396
-0.421565
-0.38799
-0.354148
-0.315435
-0.270537
-0.220411
-0.169287
-0.115862
-0.0686863
-0.0208062
-26.3082
-25.8814
-25.4287
-25.0064
-24.5392
-24.014
-23.2887
-22.4787
-21.6138
-21.8946
-19.3396
-18.7784
-18.1972
-17.6601
-17.0819
-16.5055
-15.8539
-15.4345
-15.2941
-16.1481
-13.6615
-13.2033
-12.7617
-12.3885
-12.071
-11.8667
-11.7693
-11.8565
-12.0187
-12.4537
-9.73734
-9.49097
-9.28723
-9.14823
-9.06309
-9.02354
-8.96778
-8.87434
-8.74257
-8.84652
-7.05275
-6.93344
-6.83121
-6.7349
-6.62589
-6.49623
-6.34513
-6.21721
-6.1673
-6.29504
-5.0985
-5.01593
-4.93323
-4.84628
-4.75912
-4.68382
-4.63134
-4.60707
-4.60711
-4.64293
-3.81866
-3.77138
-3.72517
-3.67956
-3.63559
-3.59337
-3.55085
-3.50522
-3.46113
-3.43079
-3.07059
-3.04068
-3.00711
-2.96955
-2.92818
-2.88357
-2.83685
-2.78937
-2.74407
-2.70249
-2.65098
-2.62765
-2.59987
-2.568
-2.53249
-2.49387
-2.45262
-2.4091
-2.36393
-2.31747
-2.46324
-2.44256
-2.41743
-2.3881
-2.35485
-2.31801
-2.27791
-2.2349
-2.18939
-2.14175
-28.0157
-29.1515
-27.5064
-27.3003
-27.5347
-27.4552
-27.2245
-27.034
-26.8625
-26.6466
-24.5023
-24.5218
-22.0971
-21.1667
-21.2663
-21.2111
-20.8678
-20.4998
-20.172
-19.8158
-19.6804
-18.9224
-16.2683
-15.1306
-15.2272
-15.3784
-15.1813
-14.8213
-14.4557
-14.0863
-14.4801
-13.6812
-11.4394
-10.4112
-10.5251
-10.8323
-10.8356
-10.5953
-10.293
-10.0073
-10.0788
-9.5748
-8.04294
-7.25014
-7.29828
-7.58814
-7.69452
-7.58255
-7.38574
-7.20146
-6.74091
-6.54749
-5.71729
-5.21555
-5.18726
-5.34959
-5.44375
-5.40784
-5.30257
-5.19217
-4.46461
-4.45619
-4.14126
-3.91632
-3.87766
-3.93351
-3.97664
-3.96804
-3.92358
-3.86956
-3.17554
-3.23029
-3.17104
-3.11563
-3.10481
-3.12126
-3.13606
-3.13525
-3.12025
-3.09737
-2.58011
-2.6432
-2.66182
-2.66609
-2.6729
-2.68253
-2.68939
-2.68967
-2.68274
-2.66952
-2.3619
-2.42734
-2.45954
-2.47344
-2.48287
-2.491
-2.49594
-2.49585
-2.49021
-2.47921
0.489813
0.435055
0.305422
0.0485511
-0.41379
-1.25721
-2.62342
-5.05188
-9.25587
-18.3371
0.304069
0.245181
0.111289
-0.152797
-0.620663
-1.4759
-2.87002
-5.34459
-9.29185
-17.0075
0.105733
0.0459268
-0.0830038
-0.337475
-0.769888
-1.57166
-2.82069
-5.07268
-8.25601
-14.0151
-0.1009
-0.160946
-0.280266
-0.516746
-0.886907
-1.59342
-2.57454
-4.39588
-6.79291
-10.7699
-0.309324
-0.369229
-0.475241
-0.690759
-0.986607
-1.57319
-2.29057
-3.57189
-5.28405
-7.77966
-0.511584
-0.569088
-0.660022
-0.845978
-1.08114
-1.5165
-2.05178
-2.84087
-3.95625
-5.41056
-0.699998
-0.747702
-0.826463
-0.969498
-1.16666
-1.45416
-1.85496
-2.31994
-2.9873
-3.79044
-0.863206
-0.895269
-0.962684
-1.06505
-1.22636
-1.4147
-1.69897
-1.9938
-2.39227
-2.83839
-0.984862
-1.00544
-1.05941
-1.13632
-1.2597
-1.39864
-1.59698
-1.80919
-2.07427
-2.36613
-1.05261
-1.06911
-1.11271
-1.17771
-1.27601
-1.39418
-1.54824
-1.72184
-1.92793
-2.16706
1.70755
1.6789
1.60274
1.42946
1.08175
0.454603
-0.62564
-2.41109
-5.68705
-12.8403
1.57376
1.54214
1.45931
1.27769
0.919141
0.279503
-0.813892
-2.62456
-5.84575
-13.0448
1.44318
1.40879
1.3197
1.13003
0.76107
0.107259
-1.00001
-2.84737
-6.02425
-13.2757
1.31607
1.2791
1.18423
0.986748
0.607903
-0.0616471
-1.18224
-3.07946
-6.24072
-13.5835
1.1926
1.15328
1.05315
0.84806
0.459856
-0.227204
-1.35951
-3.31684
-6.47165
-13.8988
1.07292
1.03149
0.926625
0.714118
0.316987
-0.389688
-1.5329
-3.55969
-6.74388
-14.2288
0.957124
0.91384
0.804775
0.585035
0.179191
-0.549046
-1.70314
-3.79648
-7.03566
-14.4549
0.845298
0.800491
0.687692
0.460884
0.046188
-0.705333
-1.87752
-4.03052
-7.43795
-14.7569
0.737437
0.691553
0.575553
0.341695
-0.0831002
-0.858379
-2.06015
-4.25329
-7.87079
-15.155
0.633046
0.585918
0.467249
0.227106
-0.210033
-1.01471
-2.2795
-4.5582
-8.53942
-16.5075
3.13252
3.13759
3.14062
3.07931
2.84656
2.32472
1.37566
-0.687718
-5.04872
-11.8598
2.99004
2.9893
2.97936
2.89393
2.62084
2.01435
0.962853
-1.11941
-5.57402
-12.5927
2.84656
2.84274
2.82434
2.7263
2.44825
1.85032
0.860703
-0.93815
-4.81541
-11.4915
2.70212
2.69581
2.67093
2.56531
2.29337
1.73001
0.814056
-0.768087
-4.27417
-11.0911
2.55715
2.54799
2.51645
2.40276
2.13056
1.58084
0.668468
-0.894064
-4.35642
-11.3411
2.41225
2.39991
2.36107
2.23741
1.95545
1.39474
0.433419
-1.2103
-4.69158
-11.6435
2.26799
2.25234
2.20584
2.07124
1.77469
1.19448
0.180741
-1.53254
-4.97596
-11.8528
2.12491
2.10592
2.05172
1.9064
1.59506
0.998867
-0.0462057
-1.78983
-5.17815
-12.066
1.98351
1.96121
1.89943
1.74413
1.41958
0.812446
-0.24711
-2.00296
-5.35439
-12.3268
1.84426
1.81871
1.74959
1.58503
1.24857
0.63203
-0.437164
-2.20531
-5.52744
-12.6073
5.75585
5.787
5.84637
5.92708
6.01622
6.10067
6.17191
6.2264
6.26317
6.28041
5.63489
5.67213
5.74354
5.84131
5.95138
6.05927
6.1551
6.23484
6.29412
6.32563
5.42776
5.47317
5.56016
5.67892
5.81291
5.94734
6.07453
6.18711
6.26961
6.32233
5.15819
5.21054
5.31124
5.44994
5.60777
5.75978
5.88053
5.9568
5.99205
6.02367
4.84866
4.9038
5.00841
5.14781
5.29813
5.43227
5.51955
5.51149
5.37747
5.26015
4.52071
4.574
4.6738
4.80278
4.93635
5.0387
5.0205
4.74957
4.24707
3.88492
4.19328
4.24079
4.32745
4.42897
4.51394
4.54279
4.38309
3.79223
2.77515
1.95583
3.88049
3.91934
3.98773
4.05289
4.07231
4.01141
3.70321
2.72135
0.951262
-0.680425
3.59155
3.61995
3.66562
3.68696
3.62303
3.43582
2.95718
1.58757
-1.03697
-3.79275
3.33015
3.34806
3.37196
3.3493
3.19595
2.84809
2.1512
0.393966
-3.17726
-7.83815
6.27862
6.27593
6.27112
6.26441
6.25579
6.24514
6.23241
6.21759
6.20067
6.18166
6.33541
6.33178
6.32363
6.31369
6.30192
6.28799
6.27184
6.25352
6.23306
6.21048
6.37658
6.37596
6.36699
6.35481
6.33929
6.32031
6.298
6.27251
6.24393
6.21231
6.13244
6.1458
6.14948
6.14634
6.1364
6.12002
6.09723
6.06808
6.03263
5.99079
5.42536
5.46911
5.49064
5.50072
5.49746
5.48137
5.4519
5.40968
5.35524
5.28864
4.15158
4.25708
4.29416
4.30621
4.29227
4.2614
4.21208
4.14534
4.05952
3.95389
2.2754
2.43824
2.46463
2.47779
2.46178
2.42936
2.36582
2.27124
2.13817
1.9674
-0.379356
-0.0693583
0.0147764
0.0688562
0.041462
-0.0216661
-0.138638
-0.300942
-0.526301
-0.809386
-3.56488
-3.06663
-3.05378
-3.08235
-3.22106
-3.36021
-3.55286
-3.79052
-4.11059
-4.49981
-7.96941
-7.43166
-7.51119
-7.52718
-7.64319
-7.74369
-7.91859
-8.14923
-8.47527
-8.87377
6.16057
6.13746
6.11239
6.08543
6.05668
6.02624
5.99423
5.96083
5.92626
5.88952
6.18581
6.1591
6.13037
6.09964
6.06689
6.03213
5.99547
5.95717
5.91638
5.86799
6.17763
6.1398
6.09867
6.05426
6.00677
5.95597
5.90007
5.83524
5.75884
5.68024
5.94198
5.8851
5.81991
5.74938
5.6785
5.60467
5.50628
5.35321
5.16001
5.04782
5.20797
5.10938
4.99263
4.8713
4.76876
4.67887
4.5172
4.16578
3.68491
3.52422
3.8251
3.66555
3.47075
3.26396
3.1007
2.99193
2.77034
2.14294
1.16638
0.832556
1.7609
1.51368
1.21168
0.869958
0.567834
0.369128
0.0725487
-0.825831
-2.37496
-2.97824
-1.13496
-1.49613
-1.91697
-2.41083
-2.91159
-3.29078
-3.67933
-4.72451
-6.65379
-7.39557
-4.9303
-5.38295
-5.88479
-6.4697
-7.11815
-7.68477
-8.13185
-9.05519
-10.9436
-11.5418
-9.31947
-9.79046
-10.3031
-10.8758
-11.5206
-12.1577
-12.6291
-13.1731
-14.5129
-14.9286
5.78333
5.57298
5.35206
4.87996
4.21539
3.48625
2.76578
2.09034
1.4819
0.96878
0.558976
0.25832
0.0512889
-0.0755955
-0.131629
-0.142612
-0.100908
-0.0516654
0.00325224
0.027252
5.71524
5.49376
5.28733
4.67101
3.95995
3.24854
2.55585
1.90472
1.32471
0.843007
0.463539
0.188825
-0.0003501
-0.111423
-0.159582
-0.160339
-0.112685
-0.0595737
0.00637113
0.0287241
5.4951
5.22774
4.9804
4.27878
3.57984
2.90579
2.25354
1.64516
1.11375
0.679188
0.342827
0.101973
-0.0628386
-0.154237
-0.192044
-0.178293
-0.125875
-0.0654352
0.0129662
0.0294497
4.99276
4.74992
4.4267
3.80314
3.15834
2.5332
1.93465
1.38346
0.909299
0.525186
0.232488
0.0237072
-0.117006
-0.190859
-0.21815
-0.191103
-0.13639
-0.0670168
0.0186004
0.0267062
3.92517
3.98746
3.62957
3.21456
2.68432
2.14651
1.62256
1.1384
0.723599
0.388875
0.136645
-0.0432754
-0.161846
-0.22102
-0.238002
-0.200378
-0.144363
-0.0667576
0.0209399
0.0215861
1.90496
2.70869
2.56555
2.47001
2.15754
1.75936
1.33053
0.918752
0.561823
0.27278
0.0562024
-0.0986167
-0.198094
-0.245164
-0.252831
-0.207293
-0.149809
-0.0658595
0.0201971
0.0156652
-1.14736
0.772186
1.29072
1.62593
1.61029
1.38797
1.06638
0.727775
0.424926
0.176551
-0.00955438
-0.14315
-0.226778
-0.263956
-0.263725
-0.212188
-0.153049
-0.0649223
0.0172138
0.00991854
-4.77394
-1.58472
-0.0544773
0.796468
1.0887
1.04596
0.831454
0.56278
0.309403
0.096917
-0.063164
-0.178861
-0.249427
-0.278464
-0.271655
-0.215491
-0.154858
-0.0643315
0.0130311
0.00482607
-8.05954
-3.69114
-1.15444
0.145694
0.662864
0.759274
0.632316
0.422846
0.212127
0.0305439
-0.107333
-0.20785
-0.26753
-0.289739
-0.277451
-0.217701
-0.155873
-0.0641822
0.00854186
0.000536552
-9.60017
-4.71527
-1.6882
-0.172015
0.397015
0.559769
0.483203
0.313476
0.134796
-0.0225703
-0.142559
-0.230657
-0.28138
-0.297888
-0.281176
-0.218799
-0.156235
-0.064324
0.00425124
-0.00300594
-8.92725
-4.56461
-1.74653
-0.176409
0.311294
0.475851
0.414187
0.259627
0.0959974
-0.0494872
-0.160369
-0.241823
-0.287593
-0.30082
-0.281795
-0.218457
-0.155956
-0.0647337
0.000782547
-0.0054596
-8.67783
-4.23301
-1.90215
-0.247524
0.208222
0.370713
0.330975
0.195641
0.0504888
-0.0802665
-0.180289
-0.254068
-0.294389
-0.303938
-0.282242
-0.217737
-0.155085
-0.064429
-0.00142649
-0.00710166
-9.37145
-4.11346
-2.14074
-0.395526
0.110302
0.269403
0.252709
0.135037
0.00617713
-0.110992
-0.200608
-0.266737
-0.301475
-0.30712
-0.282494
-0.21676
-0.153937
-0.0639873
-0.00355834
-0.00864947
-10.3015
-4.13854
-2.33323
-0.59531
0.00751147
0.169282
0.176645
0.0786664
-0.0341472
-0.138564
-0.218713
-0.277959
-0.307705
-0.309845
-0.28263
-0.215891
-0.152985
-0.0638507
-0.00575734
-0.0101204
-11.2933
-4.35411
-2.47846
-0.812895
-0.100043
0.0758533
0.104169
0.0259048
-0.0715679
-0.163919
-0.235224
-0.288088
-0.313251
-0.312184
-0.282673
-0.215136
-0.152234
-0.0640089
-0.00800419
-0.0115164
-12.2329
-4.68536
-2.59619
-1.02592
-0.217067
-0.0123418
0.0352822
-0.0235022
-0.106403
-0.187454
-0.250511
-0.297404
-0.3183
-0.31424
-0.282646
-0.214468
-0.15164
-0.0644103
-0.0102701
-0.0128305
-13.1824
-5.13265
-2.72269
-1.22369
-0.342054
-0.0964611
-0.0298821
-0.0697475
-0.138763
-0.209247
-0.264634
-0.305966
-0.322901
-0.316053
-0.282574
-0.213903
-0.151204
-0.0650392
-0.0125415
-0.0140601
-14.1767
-5.67632
-2.87688
-1.40335
-0.471858
-0.178037
-0.0914464
-0.113047
-0.168802
-0.229388
-0.277645
-0.31381
-0.327083
-0.317654
-0.282485
-0.213462
-0.150939
-0.0658902
-0.0148107
-0.0152044
-15.2602
-6.33637
-3.08177
-1.57108
-0.603445
-0.258186
-0.149701
-0.153629
-0.196697
-0.248
-0.289623
-0.320989
-0.330883
-0.319076
-0.282407
-0.213164
-0.15085
-0.0669524
-0.0170708
-0.0162632
-16.3838
-7.08332
-3.34643
-1.73721
-0.735914
-0.337939
-0.205107
-0.191746
-0.22264
-0.265209
-0.300653
-0.327562
-0.334345
-0.320356
-0.282363
-0.213019
-0.150938
-0.0682105
-0.0193159
-0.0172369
)
;

boundaryField
{
    inlet
    {
        type            freestreamPressure;
        freestreamValue uniform 0;
        supersonic      false;
        value           nonuniform List<scalar> 
40
(
0.489813
0.304069
0.105733
-0.1009
-0.309324
-0.511584
-0.699998
-0.863206
-0.984862
-1.05261
1.70755
1.57376
1.44318
1.31607
1.1926
1.07292
0.957124
0.845298
0.737437
0.633046
3.13252
2.99004
2.84656
2.70212
2.55715
2.41225
2.26799
2.12491
1.98351
1.84426
5.75585
5.63489
5.42776
5.15819
4.84866
4.52071
4.19328
3.88049
3.59155
3.33015
)
;
    }
    outlet
    {
        type            freestreamPressure;
        freestreamValue uniform 0;
        supersonic      false;
        value           nonuniform List<scalar> 
40
(
-0.00012899
-0.000154516
-0.000178725
-0.000195467
-0.000197981
-0.000181221
-0.000144681
-9.42076e-05
-4.19336e-05
-5.38278e-06
-1.54629e-05
-2.10723e-05
-2.80095e-05
-3.63473e-05
-4.60889e-05
-5.7153e-05
-6.93683e-05
-8.24806e-05
-9.61234e-05
-0.000109785
-1.49005e-07
-2.7114e-07
-4.75522e-07
-8.12573e-07
-1.35146e-06
-2.18285e-06
-3.42161e-06
-5.20603e-06
-7.69399e-06
-1.10556e-05
1.60242e-07
1.57166e-06
3.27172e-06
3.33904e-06
1.93446e-06
7.48949e-07
2.30136e-07
6.55607e-08
6.77843e-09
-5.38795e-08
)
;
    }
    top
    {
        type            symmetryPlane;
    }
    bottom
    {
        type            symmetryPlane;
    }
    cylinder
    {
        type            zeroGradient;
    }
    frontandback
    {
        type            empty;
    }
}


// ************************************************************************* //
