/*--------------------------------*- C++ -*----------------------------------*\
| =========                 |                                                 |
| \\      /  F ield         | OpenFOAM: The Open Source CFD Toolbox           |
|  \\    /   O peration     | Version:  v1912                                 |
|   \\  /    A nd           | Website:  www.openfoam.com                      |
|    \\/     M anipulation  |                                                 |
\*---------------------------------------------------------------------------*/
FoamFile
{
    version     2.0;
    format      ascii;
    class       volScalarField;
    location    "56.5";
    object      p;
}
// * * * * * * * * * * * * * * * * * * * * * * * * * * * * * * * * * * * * * //

dimensions      [0 2 -2 0 0 0 0];


internalField   nonuniform List<scalar> 
9600
(
-41.4865
-36.2217
-32.9949
-30.2577
-27.7524
-25.4856
-23.429
-21.5548
-19.8456
-18.2875
-16.868
-15.5753
-14.3978
-13.3248
-12.3463
-11.4527
-10.6358
-9.88756
-9.20044
-8.5723
-42.2464
-36.9641
-33.7013
-30.9213
-28.3708
-26.0599
-23.9619
-22.05
-20.3068
-18.7187
-17.2729
-15.9569
-14.7591
-13.6683
-12.6738
-11.7661
-10.9364
-10.1764
-9.47817
-8.84074
-43.008
-37.7024
-34.4023
-31.5792
-28.9833
-26.6281
-24.4888
-22.5392
-20.7623
-19.1445
-17.6726
-16.3338
-15.116
-14.0075
-12.9973
-12.0756
-11.2333
-10.4616
-9.75231
-9.1058
-43.7679
-38.4364
-35.0974
-32.2306
-29.589
-27.1894
-25.0087
-23.0216
-21.2113
-19.5641
-18.0665
-16.7052
-15.4676
-14.3417
-13.3162
-12.3808
-11.526
-10.7427
-10.0225
-9.36713
-44.5234
-39.1643
-35.7857
-32.8744
-30.1869
-27.7427
-25.5207
-23.4963
-21.653
-19.9768
-18.4537
-17.0703
-15.8134
-14.6705
-13.63
-12.681
-11.8139
-11.0193
-10.2883
-9.62447
-45.2723
-39.8849
-36.4659
-33.5096
-30.7757
-28.2871
-26.0239
-23.9625
-22.0865
-20.3816
-18.8337
-17.4286
-16.1528
-14.9933
-13.9379
-12.9757
-12.0968
-11.291
-10.5494
-9.87752
-46.0128
-40.5966
-37.1367
-34.1349
-31.3546
-28.8214
-26.5173
-24.4192
-22.5109
-20.7779
-19.2056
-17.7793
-16.485
-15.3093
-14.2396
-13.2646
-12.374
-11.5573
-10.8054
-10.126
-46.7433
-41.298
-37.7969
-34.7492
-31.9223
-29.3447
-26.9999
-24.8656
-22.9255
-21.1649
-19.5686
-18.1217
-16.8094
-15.6179
-14.5343
-13.5469
-12.6451
-11.818
-11.0561
-10.3697
-47.4626
-41.9879
-38.4453
-35.3515
-32.4779
-29.856
-27.4709
-25.3007
-23.3294
-21.5417
-19.9221
-18.455
-17.1253
-15.9185
-14.8215
-13.8221
-12.9095
-12.0723
-11.301
-10.6082
-48.1694
-42.665
-39.0807
-35.9406
-33.0204
-30.3544
-27.9293
-25.7238
-23.7217
-21.9075
-20.2652
-18.7785
-17.4319
-16.2104
-15.1004
-14.0896
-13.1667
-12.3199
-11.5396
-10.841
-48.8625
-43.3283
-39.7021
-36.5156
-33.5487
-30.839
-28.3743
-26.1339
-24.1016
-22.2616
-20.5971
-19.0914
-17.7283
-16.4926
-15.3702
-14.3485
-13.4158
-12.5599
-11.7712
-11.0676
-49.541
-43.9766
-40.3085
-37.0754
-34.062
-31.3087
-28.8049
-26.5303
-24.4684
-22.603
-20.9169
-19.3927
-18.0138
-16.7644
-15.6301
-14.5979
-13.656
-12.7916
-11.995
-11.2873
-50.2043
-44.6093
-40.8989
-37.6191
-34.5594
-31.7629
-29.2204
-26.912
-24.8211
-22.9309
-21.2237
-19.6815
-18.2872
-17.0246
-15.8789
-14.8368
-13.8864
-13.0141
-12.2103
-11.4991
-50.8517
-45.2254
-41.4726
-38.146
-35.0401
-32.2007
-29.62
-27.2784
-25.159
-23.2445
-21.5167
-19.957
-18.5477
-17.2722
-16.1154
-15.0639
-14.1054
-13.2258
-12.4157
-11.7026
-51.4826
-45.8241
-42.0287
-38.6554
-35.5033
-32.6215
-30.0031
-27.6287
-25.4814
-23.5432
-21.7951
-20.2181
-18.794
-17.5058
-16.3382
-15.2775
-14.3111
-13.4248
-12.6092
-11.8957
-52.0966
-46.4046
-42.5665
-39.1465
-35.9486
-33.0247
-30.3691
-27.9626
-25.7878
-23.8262
-22.0582
-20.4642
-19.0254
-17.7246
-16.546
-15.476
-14.5017
-13.6087
-12.788
-12.0731
-52.695
-46.967
-43.0854
-39.6186
-36.3751
-33.4096
-30.7174
-28.2794
-26.0776
-24.0931
-22.3054
-20.6944
-19.2409
-17.9274
-16.7378
-15.6586
-14.6769
-13.7777
-12.951
-12.2315
-53.2822
-47.5122
-43.5845
-40.0707
-36.782
-33.7755
-31.0475
-28.5787
-26.3506
-24.3434
-22.5362
-20.908
-19.4394
-18.1124
-16.9113
-15.8226
-14.8338
-13.9289
-13.0973
-12.3822
-53.8601
-48.0397
-44.0623
-40.5017
-37.169
-34.1227
-31.3599
-28.8611
-26.6072
-24.5778
-22.751
-21.1052
-19.6204
-18.2783
-17.0631
-15.9614
-14.9606
-14.0449
-13.2119
-12.5294
-54.407
-48.542
-44.5177
-40.9121
-37.5373
-34.4526
-31.656
-29.1282
-26.8494
-24.7982
-22.9521
-21.2885
-19.7867
-18.4277
-17.1948
-16.0736
-15.049
-14.1075
-13.2636
-12.5874
-59.863
-59.8315
-59.7622
-59.6698
-59.5534
-59.4107
-59.241
-59.045
-58.8231
-58.5759
-58.304
-58.0079
-57.6882
-57.3458
-56.9813
-56.5955
-56.1897
-55.7654
-55.3256
-54.8734
-53.5141
-53.5115
-53.4757
-53.4124
-53.3222
-53.2047
-53.0601
-52.8891
-52.6924
-52.4706
-52.2244
-51.9543
-51.6609
-51.345
-51.0071
-50.6479
-50.2681
-49.8681
-49.4485
-49.0071
-48.8699
-48.8916
-48.8841
-48.8477
-48.7839
-48.6934
-48.577
-48.4352
-48.2686
-48.0778
-47.8635
-47.6261
-47.3663
-47.0846
-46.7814
-46.4573
-46.1125
-45.747
-45.3606
-44.9514
-44.6392
-44.6787
-44.6916
-44.6773
-44.6368
-44.5712
-44.481
-44.3669
-44.2294
-44.069
-43.8862
-43.6816
-43.4557
-43.209
-42.9418
-42.6544
-42.347
-42.0196
-41.6718
-41.3029
-40.7272
-40.7766
-40.8021
-40.8028
-40.7793
-40.7323
-40.6625
-40.5705
-40.4566
-40.3215
-40.1655
-39.9893
-39.7932
-39.5777
-39.3431
-39.0897
-38.8175
-38.5266
-38.2166
-37.8871
-37.2139
-37.2675
-37.2993
-37.3087
-37.2958
-37.2613
-37.2056
-37.1295
-37.0332
-36.9174
-36.7824
-36.6288
-36.4569
-36.2673
-36.0602
-35.8359
-35.5944
-35.3357
-35.0596
-34.7655
-34.0902
-34.1437
-34.1774
-34.1905
-34.1832
-34.1559
-34.1092
-34.0436
-33.9596
-33.8576
-33.7382
-33.6017
-33.4487
-33.2795
-33.0946
-32.8942
-32.6783
-32.447
-32.1999
-31.9366
-31.3193
-31.3699
-31.4023
-31.4157
-31.4103
-31.3865
-31.3449
-31.2858
-31.2098
-31.1174
-31.009
-30.8851
-30.7462
-30.5929
-30.4254
-30.2441
-30.0492
-29.8406
-29.618
-29.3809
-28.8613
-28.9075
-28.9367
-28.9483
-28.9425
-28.9197
-28.8804
-28.8251
-28.7541
-28.6679
-28.5672
-28.4524
-28.324
-28.1826
-28.0287
-27.8627
-27.6848
-27.495
-27.293
-27.0782
-26.6764
-26.7175
-26.7426
-26.7514
-26.7439
-26.7206
-26.682
-26.6284
-26.5604
-26.4784
-26.3829
-26.2746
-26.154
-26.0218
-25.8785
-25.7246
-25.5605
-25.3864
-25.2018
-25.0063
-24.7276
-24.7634
-24.7841
-24.7896
-24.7798
-24.7553
-24.7164
-24.6635
-24.5972
-24.5178
-24.426
-24.3224
-24.2076
-24.0823
-23.9473
-23.8033
-23.6506
-23.4897
-23.3203
-23.1416
-22.9819
-23.0126
-23.0291
-23.0312
-23.019
-22.9928
-22.9532
-22.9004
-22.8349
-22.7573
-22.6681
-22.5679
-22.4575
-22.3377
-22.2093
-22.0731
-21.9301
-21.7805
-21.6245
-21.4611
-21.4111
-21.4371
-21.4496
-21.4485
-21.4339
-21.4061
-21.3655
-21.3125
-21.2476
-21.1712
-21.0838
-20.9863
-20.8792
-20.7636
-20.6405
-20.5108
-20.3757
-20.236
-20.0921
-19.9431
-19.9912
-20.0131
-20.0221
-20.0181
-20.0012
-19.9719
-19.9304
-19.8771
-19.8125
-19.7369
-19.6511
-19.5555
-19.4511
-19.3388
-19.2198
-19.0953
-18.9669
-18.8358
-18.7031
-18.5677
-18.7026
-18.7207
-18.7266
-18.72
-18.7012
-18.6705
-18.6282
-18.5747
-18.5103
-18.4355
-18.3508
-18.2568
-18.1545
-18.0447
-17.9288
-17.8084
-17.6854
-17.5615
-17.4393
-17.3174
-17.5286
-17.5434
-17.5464
-17.5376
-17.5171
-17.4853
-17.4423
-17.3886
-17.3244
-17.2502
-17.1665
-17.0738
-16.9731
-16.8652
-16.7516
-16.6339
-16.5149
-16.3968
-16.2842
-16.1755
-16.4555
-16.4673
-16.4679
-16.4571
-16.4351
-16.4022
-16.3587
-16.3048
-16.2408
-16.1671
-16.0841
-15.9924
-15.8928
-15.786
-15.6736
-15.5574
-15.4408
-15.3264
-15.2219
-15.1251
-15.4714
-15.4808
-15.4794
-15.4671
-15.4441
-15.4105
-15.3666
-15.3127
-15.249
-15.1759
-15.0936
-15.0027
-14.9039
-14.7978
-14.6857
-14.5696
-14.4532
-14.3404
-14.2429
-14.1551
-14.5651
-14.5731
-14.5707
-14.558
-14.5349
-14.5016
-14.4585
-14.4057
-14.3433
-14.2718
-14.1914
-14.1024
-14.0054
-13.9009
-13.79
-13.6741
-13.557
-13.4438
-13.3532
-13.2796
-13.7314
-13.7362
-13.7312
-13.7166
-13.6925
-13.6589
-13.616
-13.5641
-13.5032
-13.4337
-13.3557
-13.2695
-13.1753
-13.0736
-12.9649
-12.8501
-12.7311
-12.6132
-12.5161
-12.4669
-53.5702
-54.1457
-54.684
-55.2073
-55.7127
-56.1941
-56.6488
-57.0756
-57.4736
-57.8421
-58.1801
-58.4874
-58.7635
-59.0081
-59.2205
-59.4009
-59.5501
-59.6692
-59.7603
-59.8253
-47.0871
-47.668
-48.2207
-48.7511
-49.2587
-49.741
-50.1966
-50.6249
-51.0251
-51.3966
-51.7388
-52.0516
-52.3352
-52.5901
-52.8143
-53.0072
-53.1694
-53.3014
-53.4035
-53.4747
-42.4428
-43.0114
-43.5563
-44.0778
-44.5758
-45.0497
-45.4986
-45.9218
-46.3188
-46.6888
-47.0308
-47.3448
-47.6303
-47.886
-48.1134
-48.3125
-48.4831
-48.6249
-48.7375
-48.8196
-38.3188
-38.862
-39.3857
-39.8877
-40.3675
-40.8248
-41.2591
-41.6696
-42.0558
-42.417
-42.7519
-43.0601
-43.3425
-43.5985
-43.8284
-44.0318
-44.2084
-44.3577
-44.4796
-44.5735
-34.6409
-35.1542
-35.6503
-36.1269
-36.5828
-37.0177
-37.4311
-37.8223
-38.1905
-38.5353
-38.8573
-39.1559
-39.4298
-39.6792
-39.9041
-40.1044
-40.2796
-40.4296
-40.5544
-40.6538
-31.4423
-31.9241
-32.3905
-32.8389
-33.2682
-33.6778
-34.0674
-34.4364
-34.7842
-35.1106
-35.4155
-35.6981
-35.9579
-36.1951
-36.41
-36.6023
-36.7713
-36.9169
-37.0394
-37.1386
-28.6704
-29.1214
-29.5581
-29.9781
-30.3804
-30.7642
-31.1292
-31.4749
-31.8008
-32.1067
-32.3923
-32.6571
-32.9011
-33.1238
-33.3249
-33.5065
-33.6666
-33.8048
-33.9214
-34.0167
-26.2585
-26.6805
-27.0891
-27.4822
-27.8584
-28.2172
-28.5582
-28.8809
-29.185
-29.4702
-29.7363
-29.983
-30.2103
-30.4181
-30.6062
-30.7733
-30.9228
-31.052
-31.161
-31.2502
-24.1477
-24.5433
-24.9262
-25.2943
-25.6463
-25.9818
-26.3001
-26.6011
-26.8844
-27.1498
-27.3971
-27.6262
-27.8371
-28.0297
-28.204
-28.3598
-28.4961
-28.6152
-28.7159
-28.7979
-22.288
-22.6599
-23.0195
-23.365
-23.695
-24.0089
-24.3065
-24.5873
-24.8512
-25.0981
-25.3278
-25.5404
-25.7358
-25.9139
-26.0747
-26.2181
-26.3441
-26.4528
-26.5447
-26.6194
-20.6378
-20.9884
-21.3274
-21.6526
-21.9627
-22.2571
-22.5356
-22.798
-23.0441
-23.274
-23.4876
-23.6849
-23.8659
-24.0306
-24.1789
-24.3109
-24.4266
-24.5258
-24.6094
-24.6768
-19.1634
-19.4953
-19.816
-20.1231
-20.4153
-20.692
-20.9532
-21.1987
-21.4286
-21.6429
-21.8418
-22.0251
-22.193
-22.3454
-22.4824
-22.604
-22.7101
-22.801
-22.8763
-22.9369
-17.8379
-18.1532
-18.458
-18.7492
-19.0252
-19.2858
-19.5311
-19.7613
-19.9763
-20.1764
-20.3618
-20.5324
-20.6883
-20.8296
-20.9563
-21.0684
-21.1659
-21.2487
-21.3167
-21.3714
-16.6395
-16.9404
-17.2316
-17.5087
-17.77
-18.0159
-18.2466
-18.4626
-18.664
-18.8511
-19.0241
-19.1831
-19.3282
-19.4595
-19.5768
-19.6804
-19.7701
-19.846
-19.9085
-19.9564
-15.5513
-15.8399
-16.1196
-16.384
-16.6318
-16.8639
-17.0812
-17.2839
-17.4727
-17.6478
-17.8095
-17.958
-18.0932
-18.2153
-18.3243
-18.4201
-18.5028
-18.5724
-18.6289
-18.6721
-14.5585
-14.8386
-15.1091
-15.3615
-15.5964
-15.8157
-16.0201
-16.2104
-16.3873
-16.5512
-16.7025
-16.8413
-16.9676
-17.0814
-17.1827
-17.2716
-17.3479
-17.4118
-17.4631
-17.502
-13.6434
-13.9224
-14.1878
-14.4288
-14.651
-14.8578
-15.05
-15.2285
-15.3944
-15.548
-15.6897
-15.8197
-15.9378
-16.0441
-16.1386
-16.2212
-16.2919
-16.3506
-16.3974
-16.4323
-12.7854
-13.0686
-13.3353
-13.5669
-13.7771
-13.9723
-14.1533
-14.3213
-14.4774
-14.622
-14.7555
-14.8779
-14.9892
-15.0893
-15.1781
-15.2555
-15.3215
-15.3761
-15.4193
-15.4511
-11.9981
-12.2718
-12.5391
-12.7659
-12.966
-13.1498
-13.3203
-13.4788
-13.6261
-13.7628
-13.8892
-14.0051
-14.1106
-14.2054
-14.2895
-14.3627
-14.4251
-14.4765
-14.5169
-14.5465
-11.4074
-11.6582
-11.886
-12.1028
-12.2912
-12.4571
-12.6111
-12.7553
-12.8893
-13.0135
-13.1283
-13.2336
-13.3291
-13.4147
-13.4904
-13.556
-13.6114
-13.6566
-13.6915
-13.716
-6.0061
-6.49743
-7.03584
-7.61827
-8.25117
-8.94192
-9.69819
-10.5294
-11.4478
-12.4691
-13.6135
-14.9082
-16.3885
-18.1005
-20.1046
-22.4801
-25.3083
-28.6113
-32.6087
-38.6046
-6.27672
-6.78158
-7.33051
-7.92501
-8.57168
-9.27762
-10.0506
-10.9004
-11.8393
-12.8834
-14.0535
-15.3768
-16.8891
-18.6371
-20.6814
-23.101
-25.9762
-29.3261
-33.362
-39.379
-6.54876
-7.06716
-7.62673
-8.23353
-8.89424
-9.61561
-10.4056
-11.2741
-12.2339
-13.3012
-14.4972
-15.8494
-17.3943
-19.1786
-21.2632
-23.727
-26.6488
-30.0444
-34.117
-40.1505
-6.82174
-7.35362
-7.92391
-8.54323
-9.21818
-9.9552
-10.7624
-11.6499
-12.6307
-13.7215
-14.9436
-16.325
-17.9026
-19.7234
-21.8485
-24.3564
-27.3246
-30.7657
-34.8761
-40.9308
-7.09522
-7.6405
-8.22159
-8.85362
-9.54303
-10.2959
-11.1204
-12.0271
-13.0292
-14.1436
-15.3919
-16.8028
-18.4132
-20.2707
-22.4363
-24.9883
-28.0028
-31.4894
-35.6383
-41.7174
-7.36883
-7.92738
-8.51933
-9.16429
-9.86834
-10.6372
-11.4792
-12.4053
-13.4288
-14.5669
-15.8417
-17.2821
-18.9254
-20.8197
-23.0259
-25.6219
-28.6826
-32.2146
-36.4017
-42.5062
-7.64224
-8.2139
-8.81677
-9.47484
-10.1937
-10.9787
-11.8383
-12.7838
-13.8289
-14.9908
-16.2922
-17.7622
-19.4386
-21.3697
-23.6165
-26.2565
-29.3631
-32.94
-37.1646
-43.2947
-7.91522
-8.49978
-9.11357
-9.78492
-10.5187
-11.3199
-12.1974
-13.1624
-14.229
-15.4149
-16.7429
-18.2426
-19.9521
-21.9199
-24.2073
-26.8911
-30.0433
-33.6646
-37.926
-44.0815
-8.1876
-8.78481
-9.4095
-10.0943
-10.8431
-11.6606
-12.5558
-13.5404
-14.6286
-15.8384
-17.1931
-18.7224
-20.4649
-22.4695
-24.7973
-27.5246
-30.7221
-34.3873
-38.6845
-44.8651
-8.45935
-9.06889
-9.70441
-10.4027
-11.1666
-12.0004
-12.9134
-13.9174
-15.0272
-16.2609
-17.6421
-19.201
-20.9765
-23.0176
-25.3856
-28.1562
-31.3984
-35.1069
-39.4389
-45.6442
-8.73058
-9.35204
-9.99823
-10.71
-11.489
-12.339
-13.2696
-14.2931
-15.4242
-16.6817
-18.0893
-19.6776
-21.4859
-23.5634
-25.9713
-28.7846
-32.071
-35.822
-40.1878
-46.417
-9.00157
-9.63444
-10.291
-11.0162
-11.8101
-12.6762
-13.6242
-14.6669
-15.8193
-17.1003
-18.5341
-20.1516
-21.9924
-24.106
-26.5533
-29.409
-32.7389
-36.5316
-40.93
-47.1824
-9.27282
-9.91637
-10.5829
-11.3212
-12.1298
-13.0116
-13.9769
-15.0384
-16.2117
-17.516
-18.9757
-20.6221
-22.4951
-24.6444
-27.1308
-30.0281
-33.4008
-37.2344
-41.664
-47.9388
-9.54504
-10.1983
-10.874
-11.6251
-12.4479
-13.345
-14.327
-15.4071
-16.601
-17.9281
-19.4134
-21.0883
-22.9932
-25.1776
-27.7025
-30.6409
-34.0555
-37.929
-42.3886
-48.685
-9.819
-10.4804
-11.1643
-11.9274
-12.7639
-13.6758
-14.6741
-15.7723
-16.9863
-18.3359
-19.8463
-21.5494
-23.4855
-25.7047
-28.2674
-31.2461
-34.7018
-38.6143
-43.1026
-49.4198
-10.0957
-10.7631
-11.4537
-12.2279
-13.0773
-14.0034
-15.0174
-16.1332
-17.3669
-18.7385
-20.2735
-22.0042
-23.9712
-26.2244
-28.8244
-31.8425
-35.3384
-39.2891
-43.8049
-50.1423
-10.3748
-11.0452
-11.7405
-12.525
-13.3868
-14.3266
-15.3559
-16.4889
-17.7418
-19.1349
-20.6941
-22.4519
-24.449
-26.7357
-29.3721
-32.4287
-35.9639
-39.9518
-44.4944
-50.8518
-10.6558
-11.3242
-12.0224
-12.8169
-13.6911
-14.6444
-15.6886
-16.8383
-18.11
-19.5242
-21.107
-22.8913
-24.918
-27.2374
-29.9093
-33.0035
-36.5766
-40.6009
-45.1699
-51.5483
-10.9312
-11.5917
-12.2932
-13.1002
-13.988
-14.9549
-16.0139
-17.1801
-18.4703
-19.9052
-21.5111
-23.3212
-25.3768
-27.728
-30.4345
-33.565
-37.175
-41.2345
-45.8303
-52.2333
-11.1825
-11.8279
-12.5484
-13.3761
-14.2782
-15.258
-16.3315
-17.5138
-18.8219
-20.2769
-21.9053
-23.7406
-25.8243
-28.2065
-30.9464
-34.1118
-37.7567
-41.8495
-46.4708
-52.9084
-1.58481
-1.83877
-2.18666
-2.57561
-2.99419
-3.44776
-3.94265
-4.48477
-5.08161
-5.74344
-6.48421
-7.32294
-8.28577
-9.40874
-10.7428
-12.3621
-14.3565
-16.7871
-19.9624
-25.3571
-1.73798
-2.00837
-2.37473
-2.76962
-3.19163
-3.65054
-4.15234
-4.70254
-5.30879
-5.98161
-6.73522
-7.58898
-8.56944
-9.71319
-11.0717
-12.7197
-14.747
-17.2131
-20.4206
-25.8292
-1.88549
-2.17996
-2.55948
-2.96251
-3.39226
-3.85956
-4.3703
-4.93018
-5.54722
-6.23228
-6.9999
-7.86984
-8.86911
-10.0348
-11.419
-13.0967
-15.1577
-17.6592
-20.8982
-26.3154
-2.05529
-2.36059
-2.74831
-3.16007
-3.59902
-4.07587
-4.59664
-5.16733
-5.79627
-6.49466
-7.27736
-8.16452
-9.18365
-10.3724
-11.7832
-13.4917
-15.5872
-18.1255
-21.3993
-26.8342
-2.2364
-2.5488
-2.94436
-3.36509
-3.81353
-4.30037
-4.83181
-5.41412
-6.05585
-6.76848
-7.56721
-8.47259
-9.51259
-10.7254
-12.164
-13.9044
-16.0356
-18.6121
-21.9234
-27.3824
-2.423
-2.74401
-3.14792
-3.57777
-4.036
-4.53328
-5.076
-5.67061
-6.3259
-7.0536
-7.86924
-8.79377
-9.85563
-11.0935
-12.561
-14.3344
-16.5026
-19.1186
-22.4686
-27.9547
-2.6166
-2.94712
-3.35929
-3.79828
-4.26657
-4.77473
-5.32926
-5.93678
-6.6063
-7.34982
-8.1832
-9.12777
-10.2124
-11.4764
-12.9739
-14.7815
-16.9879
-19.6444
-23.034
-28.5488
-2.8186
-3.15861
-3.57882
-4.02695
-4.5055
-5.02486
-5.59162
-6.21257
-6.89693
-7.65695
-8.50882
-9.47426
-10.5826
-11.8737
-13.4022
-15.2451
-17.4907
-20.1888
-23.6188
-29.1636
-3.02877
-3.37832
-3.80654
-4.26386
-4.75284
-5.28368
-5.86303
-6.49787
-7.19761
-7.97476
-8.84582
-9.83291
-10.9659
-12.285
-13.8454
-15.7246
-18.0106
-20.7513
-24.2223
-29.7981
-3.24651
-3.60593
-4.04226
-4.50886
-5.00845
-5.55103
-6.14334
-6.79249
-7.50812
-8.30298
-9.19389
-10.2033
-11.3617
-12.7097
-14.3031
-16.2196
-18.5469
-21.3311
-24.8438
-30.451
-3.4714
-3.84108
-4.28565
-4.76167
-5.27207
-5.82668
-6.43227
-7.09614
-7.82814
-8.64126
-9.55264
-10.5852
-11.7697
-13.1474
-14.7747
-16.7293
-19.0989
-21.9274
-25.4824
-31.1215
-3.70305
-4.08336
-4.53635
-5.02195
-5.54339
-6.11029
-6.7295
-7.40849
-8.15731
-8.98921
-9.92166
-10.9779
-12.1893
-13.5976
-15.2595
-17.2533
-19.6659
-22.5395
-26.1371
-31.8084
-3.94098
-4.33231
-4.7939
-5.28927
-5.82199
-6.40147
-7.03463
-7.72912
-8.49521
-9.3464
-10.3005
-11.3811
-12.6201
-14.0597
-15.7571
-17.7908
-20.2472
-23.1666
-26.8072
-32.5107
-4.18469
-4.58741
-5.0578
-5.56316
-6.10742
-6.69978
-7.34721
-8.05758
-8.84136
-9.71233
-10.6886
-11.7942
-13.0614
-14.533
-16.2667
-18.3411
-20.8421
-23.8078
-27.4918
-33.2277
-4.43361
-4.84809
-5.32752
-5.8431
-6.39918
-7.0047
-7.66673
-8.39335
-9.19525
-10.0865
-11.0854
-12.2166
-13.5127
-15.017
-16.7876
-18.9034
-21.4497
-24.4624
-28.19
-33.9583
-4.68721
-5.1138
-5.60249
-6.12855
-6.69671
-7.3157
-7.99267
-8.7359
-9.55631
-10.4682
-11.4904
-12.6476
-13.9732
-15.5109
-17.3191
-19.4769
-22.0691
-25.1293
-28.901
-34.7019
-4.94492
-5.38394
-5.88213
-6.41892
-6.99946
-7.63223
-8.32445
-9.08464
-9.92396
-10.857
-11.9028
-13.0867
-14.4423
-16.0139
-17.8604
-20.0609
-22.6996
-25.8078
-29.624
-35.4577
-5.2062
-5.65794
-6.16586
-6.71366
-7.30687
-7.9537
-8.6615
-9.439
-10.2976
-11.2521
-12.322
-13.533
-14.9191
-16.5252
-18.4106
-20.6543
-23.34
-26.4966
-30.358
-36.2256
-5.47049
-5.93522
-6.4531
-7.01218
-7.61834
-8.27954
-9.00321
-9.79833
-10.6765
-11.653
-12.7474
-13.9859
-15.4031
-17.0441
-18.9687
-21.2562
-23.9892
-27.1947
-31.1021
-37.006
-5.7373
-6.21524
-6.74329
-7.31393
-7.93333
-8.60917
-9.34902
-10.1621
-11.0602
-12.0589
-13.1783
-14.4447
-15.8933
-17.5697
-19.534
-21.8654
-24.6461
-27.9003
-31.8535
-37.7998
-1.33704
-1.13035
-0.976588
-0.839875
-0.719823
-0.61389
-0.520962
-0.440246
-0.371241
-0.313587
-0.267019
-0.231325
-0.206335
-0.191912
-0.187919
-0.194144
-0.210371
-0.236729
-0.273395
-0.320159
-1.66687
-1.48345
-1.32571
-1.18377
-1.05889
-0.948486
-0.851592
-0.767402
-0.695405
-0.635223
-0.586574
-0.549235
-0.523024
-0.50779
-0.503389
-0.509647
-0.526409
-0.553686
-0.591558
-0.639735
-1.99936
-1.82382
-1.6661
-1.52301
-1.396
-1.28342
-1.18457
-1.09876
-1.02553
-0.964511
-0.91543
-0.878064
-0.852229
-0.837767
-0.834531
-0.842367
-0.861155
-0.890847
-0.931312
-0.982762
-2.38305
-2.20585
-2.04509
-1.89904
-1.76846
-1.65237
-1.5503
-1.46171
-1.38617
-1.32335
-1.27298
-1.23483
-1.20871
-1.19446
-1.19193
-1.20095
-1.22143
-1.25327
-1.29637
-1.35074
-2.80173
-2.62207
-2.45734
-2.30735
-2.17255
-2.0524
-1.9466
-1.8547
-1.77638
-1.71131
-1.65925
-1.61996
-1.59326
-1.57897
-1.57693
-1.58701
-1.60906
-1.64299
-1.68867
-1.7461
-3.25295
-3.07007
-2.90116
-2.74684
-2.60757
-2.48316
-2.37342
-2.27803
-2.19672
-2.12923
-2.07531
-2.03475
-2.00737
-1.99298
-1.99143
-2.00256
-2.02625
-2.06236
-2.11075
-2.17139
-3.74288
-3.55527
-3.38144
-3.22219
-3.07803
-2.94896
-2.83492
-2.7357
-2.6511
-2.5809
-2.52487
-2.48283
-2.45459
-2.43996
-2.4388
-2.45095
-2.47627
-2.51461
-2.56583
-2.6299
-4.27831
-4.08448
-3.90466
-3.73961
-3.58984
-3.4555
-3.33661
-3.23306
-3.1447
-3.07136
-3.01284
-2.96897
-2.93957
-2.92447
-2.92351
-2.93654
-2.9634
-3.00395
-3.05802
-3.12559
-4.86693
-4.66543
-4.47838
-4.30646
-4.15017
-4.00975
-3.88528
-3.77672
-3.68399
-3.60693
-3.5454
-3.49923
-3.46827
-3.45234
-3.45128
-3.46495
-3.49318
-3.53581
-3.59269
-3.66379
-5.51888
-5.30816
-5.11245
-4.93237
-4.76843
-4.62089
-4.48989
-4.37545
-4.27753
-4.19601
-4.13078
-4.08169
-4.04859
-4.03132
-4.02973
-4.04367
-4.07297
-4.11745
-4.17696
-4.2515
-6.2479
-6.02615
-5.82011
-5.63033
-5.45731
-5.30134
-5.1626
-5.04114
-4.93697
-4.85001
-4.78016
-4.7273
-4.6913
-4.672
-4.66925
-4.68289
-4.71278
-4.7587
-4.82051
-4.89824
-7.07272
-6.83781
-6.61943
-6.41806
-6.23419
-6.06813
-5.92009
-5.79015
-5.67835
-5.58466
-5.50898
-5.45123
-5.41127
-5.38896
-5.38416
-5.39672
-5.42646
-5.47318
-5.53671
-5.61715
-8.01907
-7.76847
-7.5353
-7.32
-7.12307
-6.94483
-6.7855
-6.64521
-6.52401
-6.42189
-6.3388
-6.27464
-6.22931
-6.20267
-6.19458
-6.20489
-6.23343
-6.27997
-6.34435
-6.4267
-9.12249
-8.85312
-8.60218
-8.37008
-8.15733
-7.96427
-7.79114
-7.63809
-7.5052
-7.39247
-7.29988
-7.22733
-7.17474
-7.14199
-7.12892
-7.1354
-7.16124
-7.2062
-7.2701
-7.35313
-10.4333
-10.1414
-9.86907
-9.61664
-9.38467
-9.17353
-8.98346
-8.81464
-8.66715
-8.54102
-8.43623
-8.35272
-8.29039
-8.24914
-8.22883
-8.22931
-8.25038
-8.29179
-8.35332
-8.43524
-12.0251
-11.7063
-11.4082
-11.1313
-10.876
-10.6429
-10.4321
-10.2438
-10.0781
-9.93513
-9.81478
-9.71704
-9.64182
-9.58901
-9.55849
-9.5501
-9.56365
-9.59885
-9.65546
-9.73375
-13.987
-13.6367
-13.3082
-13.0022
-12.7193
-12.4598
-12.2241
-12.0123
-11.8246
-11.6609
-11.5212
-11.4056
-11.3139
-11.2461
-11.202
-11.1815
-11.1844
-11.2104
-11.2593
-11.3311
-16.3809
-15.9949
-15.6319
-15.2929
-14.9784
-14.6891
-14.4249
-14.1862
-13.973
-13.7852
-13.623
-13.4863
-13.375
-13.2892
-13.2286
-13.1932
-13.1828
-13.1972
-13.2362
-13.2988
-19.5174
-19.0917
-18.6897
-18.3142
-17.9652
-17.6431
-17.3477
-17.0789
-16.8369
-16.6216
-16.433
-16.2711
-16.1358
-16.0272
-15.9451
-15.8893
-15.8599
-15.857
-15.8806
-15.9285
-24.8542
-24.3834
-23.947
-23.542
-23.1662
-22.8186
-22.4989
-22.2068
-21.9425
-21.7058
-21.4968
-21.3155
-21.1621
-21.0366
-20.9392
-20.8698
-20.8292
-20.8196
-20.8425
-20.8876
-0.376925
-0.443372
-0.519461
-0.605111
-0.700237
-0.804735
-0.918473
-1.04129
-1.17297
-1.31324
-1.46173
-1.61791
-1.78099
-1.94975
-2.12252
-2.29702
-2.4688
-2.62803
-2.75935
-2.88917
-0.698379
-0.767104
-0.845834
-0.934458
-1.03287
-1.14094
-1.25853
-1.38544
-1.52144
-1.66621
-1.81936
-1.98032
-2.14832
-2.32221
-2.50035
-2.68111
-2.86271
-3.03743
-3.19005
-3.36234
-1.0449
-1.11748
-1.20043
-1.29362
-1.39694
-1.51023
-1.63334
-1.76604
-1.90808
-2.05913
-2.21876
-2.38641
-2.56134
-2.74251
-2.92858
-3.11833
-3.31082
-3.50166
-3.68512
-3.89116
-1.41631
-1.49274
-1.57996
-1.67783
-1.7862
-1.90491
-2.03377
-2.17256
-2.32099
-2.47871
-2.64529
-2.82017
-3.00265
-3.19182
-3.38661
-3.58614
-3.78961
-3.99471
-4.20194
-4.43169
-1.81519
-1.89563
-1.98733
-2.09011
-2.20382
-2.32829
-2.46331
-2.60862
-2.76394
-2.92891
-3.10308
-3.28593
-3.4768
-3.67493
-3.87948
-4.08984
-4.30541
-4.52515
-4.75169
-4.9982
-2.24433
-2.32906
-2.42556
-2.53364
-2.65313
-2.78384
-2.92555
-3.078
-3.24089
-3.41385
-3.59645
-3.7882
-3.98851
-4.19673
-4.41224
-4.63462
-4.86349
-5.09862
-5.34277
-5.60379
-2.70687
-2.79613
-2.89775
-3.0115
-3.13721
-3.27467
-3.42364
-3.58387
-3.75504
-3.93679
-4.12872
-4.33036
-4.54119
-4.76068
-4.98835
-5.22391
-5.46715
-5.71827
-5.9795
-6.25527
-3.20661
-3.30075
-3.4078
-3.52758
-3.65992
-3.80461
-3.96141
-4.13006
-4.31023
-4.5016
-4.70377
-4.91631
-5.13877
-5.3707
-5.61172
-5.86161
-6.12027
-6.38804
-6.66649
-6.95807
-3.74911
-3.84816
-3.96083
-4.08693
-4.22627
-4.37865
-4.54381
-4.7215
-4.9114
-5.11319
-5.3265
-5.55094
-5.78611
-6.03162
-6.28715
-6.55253
-6.82769
-7.11293
-7.40925
-7.71802
-4.34109
-4.44509
-4.56359
-4.69619
-4.84282
-5.00326
-5.17726
-5.36454
-5.56482
-5.77778
-6.00308
-6.24036
-6.48926
-6.74943
-7.0206
-7.30259
-7.59535
-7.89904
-8.21421
-8.54167
-4.99193
-5.10082
-5.22495
-5.36426
-5.51835
-5.68709
-5.87026
-6.06759
-6.27878
-6.50355
-6.74157
-6.99252
-7.25605
-7.53187
-7.8197
-8.11938
-8.4308
-8.75398
-9.08917
-9.43685
-5.71455
-5.82804
-5.9577
-6.10335
-6.26491
-6.44201
-6.6345
-6.84211
-7.06457
-7.30159
-7.55289
-7.81815
-8.09707
-8.38934
-8.69473
-9.01302
-9.34407
-9.68776
-10.0441
-10.4135
-6.5271
-6.64454
-6.77921
-6.93083
-7.09931
-7.28475
-7.48647
-7.70423
-7.93798
-8.18742
-8.45226
-8.73222
-9.02699
-9.33628
-9.65985
-9.99747
-10.3489
-10.714
-11.0925
-11.4848
-7.45542
-7.57573
-7.71444
-7.87124
-8.04593
-8.2385
-8.44973
-8.67686
-8.92152
-9.18308
-9.4613
-9.7559
-10.0666
-10.3931
-10.7352
-11.0925
-11.4648
-11.8519
-12.2533
-12.6694
-8.53769
-8.65919
-8.80031
-8.96083
-9.14059
-9.33911
-9.55593
-9.79329
-10.0486
-10.3213
-10.6121
-10.9208
-11.2471
-11.5906
-11.9509
-12.3279
-12.7211
-13.1301
-13.5547
-13.995
-9.83385
-9.95399
-10.0951
-10.257
-10.4397
-10.6427
-10.8655
-11.1084
-11.3713
-11.6548
-11.9574
-12.2795
-12.6206
-12.9799
-13.3573
-13.7526
-14.1658
-14.5963
-15.0434
-15.5074
-11.4255
-11.5411
-11.6793
-11.84
-12.0228
-12.2275
-12.4539
-12.7017
-12.9708
-13.2614
-13.5742
-13.908
-14.2609
-14.6324
-15.0235
-15.435
-15.8661
-16.3163
-16.7843
-17.2702
-13.3834
-13.4913
-13.6236
-13.7797
-13.9584
-14.1601
-14.385
-14.6329
-14.9036
-15.1966
-15.5111
-15.8475
-16.2074
-16.5913
-16.9976
-17.4249
-17.8728
-18.3409
-18.8283
-19.3341
-15.9987
-16.0906
-16.2066
-16.3481
-16.5164
-16.7108
-16.9304
-17.1749
-17.4439
-17.737
-18.0537
-18.3936
-18.7571
-19.1445
-19.5558
-19.9903
-20.448
-20.9294
-21.4345
-21.9583
-20.9294
-21.0018
-21.1051
-21.237
-21.3963
-21.5824
-21.7948
-22.0331
-22.2969
-22.586
-22.9
-23.239
-23.6032
-23.9927
-24.4077
-24.8481
-25.3152
-25.8126
-26.3431
-26.8888
-27.4055
-22.4929
-19.8576
-17.7742
-15.9882
-14.451
-13.1001
-11.8908
-10.7958
-9.79693
-8.88133
-8.03919
-7.26293
-6.5463
-5.88412
-5.27186
-4.70427
-4.17576
-3.69482
-3.29042
-27.9501
-23.0436
-20.3968
-18.2931
-16.4833
-14.9205
-13.5436
-12.3087
-11.1894
-10.1679
-9.2315
-8.37067
-7.57792
-6.84716
-6.17338
-5.55213
-4.97871
-4.4507
-3.98126
-3.57877
-28.5233
-23.6132
-20.9532
-18.8282
-16.9932
-15.4035
-13.9995
-12.7382
-11.5938
-10.549
-9.59128
-8.71125
-7.9015
-7.15599
-6.46964
-5.83796
-5.25631
-4.7224
-4.24583
-3.82384
-29.1209
-24.2024
-21.5269
-19.379
-17.5173
-15.8994
-14.4672
-13.1786
-12.0082
-10.9393
-9.95955
-9.05959
-8.232
-7.47062
-6.77019
-6.12591
-5.5329
-4.98824
-4.49866
-4.05794
-29.7398
-24.8105
-22.1171
-19.945
-18.0551
-16.4076
-14.946
-13.629
-12.4318
-11.338
-10.3355
-9.41483
-8.5686
-7.79045
-7.07486
-6.41674
-5.8109
-5.25385
-4.75047
-4.2936
-30.3784
-25.438
-22.722
-20.5252
-18.6057
-16.9273
-15.4352
-14.0888
-12.8639
-11.7444
-10.7183
-9.77629
-8.91074
-8.1151
-7.38362
-6.71093
-6.09163
-5.52185
-5.0052
-4.53424
-31.0357
-26.0834
-23.3412
-21.1186
-19.1682
-17.4577
-15.9339
-14.5571
-13.3037
-12.1577
-11.1075
-10.1435
-9.25808
-8.44449
-7.69671
-7.00917
-6.37629
-5.79398
-5.26475
-4.78111
-31.7102
-26.7447
-23.9746
-21.7243
-19.7419
-17.9979
-16.4414
-15.0332
-13.7504
-12.5774
-11.5024
-10.516
-9.61032
-8.77847
-8.0142
-7.31172
-6.66534
-6.07077
-5.52953
-5.03412
-32.4008
-27.4204
-24.6212
-22.3417
-20.3258
-18.5472
-16.9568
-15.5165
-14.2036
-13.0028
-11.9025
-10.8933
-9.96713
-9.11682
-8.33597
-7.61857
-6.95881
-6.35222
-5.79939
-5.2928
-33.106
-28.1094
-25.2801
-22.9696
-20.9189
-19.1047
-17.4794
-16.006
-14.6623
-13.4333
-12.3074
-11.275
-10.3281
-9.4592
-8.66173
-7.92946
-7.25643
-6.63799
-6.0738
-5.5564
-33.8247
-28.8105
-25.9502
-23.6072
-21.5204
-19.6693
-18.0083
-16.501
-15.1258
-13.8681
-12.7162
-11.6605
-10.6927
-9.80516
-8.99106
-8.24395
-7.55774
-6.92752
-6.35213
-5.82414
-34.5558
-29.5227
-26.6304
-24.2534
-22.1292
-20.2402
-18.5425
-17.0006
-15.5935
-14.3066
-13.1284
-12.0492
-11.0604
-10.1542
-9.32343
-8.56152
-7.86215
-7.2202
-6.63367
-6.09522
-35.2981
-30.2448
-27.3195
-24.9071
-22.7444
-20.8164
-19.0812
-17.5041
-16.0645
-14.7481
-13.5433
-12.4404
-11.4305
-10.5056
-9.65824
-8.88154
-8.16904
-7.51535
-6.91769
-6.36889
-36.0506
-30.9757
-28.0162
-25.5672
-23.3647
-21.3968
-19.6233
-18.0104
-16.5379
-15.1917
-13.9602
-12.8335
-11.8025
-10.8588
-9.99485
-9.20339
-8.47776
-7.81229
-7.20349
-6.64441
-36.8121
-31.714
-28.7194
-26.2324
-23.9891
-21.9804
-20.1679
-18.5186
-17.0128
-15.6366
-14.3783
-13.2277
-12.1755
-11.2132
-10.3326
-9.5264
-8.78763
-8.11036
-7.49039
-6.92108
-37.5815
-32.4585
-29.4278
-26.9016
-24.6164
-22.5661
-20.714
-19.0278
-17.4885
-16.082
-14.7967
-13.6223
-12.549
-11.5679
-10.6708
-9.8499
-9.09801
-8.40891
-7.77774
-7.19828
-38.3582
-33.208
-30.14
-27.5735
-25.2454
-23.1527
-21.2603
-19.537
-17.9638
-16.527
-15.2148
-14.0165
-12.9221
-11.9225
-11.0089
-10.1733
-9.40825
-8.7073
-8.0649
-7.47539
-39.1436
-33.9621
-30.8545
-28.2464
-25.8746
-23.7389
-21.8059
-20.0451
-18.4379
-16.9708
-15.6316
-14.4095
-13.2941
-12.276
-11.346
-10.4958
-9.7177
-9.00489
-8.35128
-7.75185
-39.938
-34.7196
-31.5695
-28.9187
-26.5026
-24.3235
-22.3495
-20.5511
-18.9099
-17.4124
-16.0464
-14.8006
-13.6644
-12.6278
-11.6816
-10.8168
-10.0258
-9.30111
-8.63631
-8.02714
-40.7287
-35.4753
-32.2831
-29.5893
-27.1289
-24.9061
-22.8909
-21.0546
-19.3794
-17.8515
-16.4587
-15.1894
-14.0324
-12.9776
-12.0151
-11.136
-10.332
-9.5955
-8.91954
-8.30082
-6.77966
-4.67386
-3.31381
-2.26841
-1.53399
-0.994581
-0.607133
-0.332063
-0.141055
-0.0123721
0.0706082
0.120515
0.146929
0.157008
0.156062
0.147963
0.135525
0.120747
0.105039
0.0893672
0.0743771
0.0604789
0.0479088
0.0367865
0.0271331
0.0189287
0.0120795
0.00652073
0.00208263
-0.00126389
-0.00378168
-0.00536259
-0.00645507
-0.0066476
-0.00677675
-0.00584414
-0.00543166
-0.00350649
-0.00295931
3.73268e-05
-7.03532
-4.85623
-3.46005
-2.38357
-1.62503
-1.06821
-0.667199
-0.381683
-0.182433
-0.0471268
0.0412741
0.0956813
0.125876
0.139157
0.140941
0.135176
0.124737
0.111673
0.0974317
0.0830143
0.0690934
0.056106
0.0443076
0.033837
0.0247319
0.0169855