/*--------------------------------*- C++ -*----------------------------------*\
  =========                 |
  \\      /  F ield         | OpenFOAM: The Open Source CFD Toolbox
   \\    /   O peration     | Website:  https://openfoam.org
    \\  /    A nd           | Version:  6.0
     \\/     M anipulation  |
\*---------------------------------------------------------------------------*/
FoamFile
{
    version     2.0;
    format      ascii;
    class       volScalarField;
    location    "15.26";
    object      p;
}
// * * * * * * * * * * * * * * * * * * * * * * * * * * * * * * * * * * * * * //

dimensions      [0 2 -2 0 0 0 0];

internalField   nonuniform List<scalar> 
2400
(
-0.401205
-0.388071
-0.379824
-0.37317
-0.366615
-0.360164
-0.353891
-0.347767
-0.34187
-0.337293
-0.413936
-0.399973
-0.390774
-0.382989
-0.375198
-0.3675
-0.360034
-0.352778
-0.345814
-0.340678
-0.430685
-0.415279
-0.404641
-0.395315
-0.385913
-0.376621
-0.36764
-0.358936
-0.350592
-0.344805
-0.451727
-0.434249
-0.421664
-0.410366
-0.398958
-0.387707
-0.376863
-0.366358
-0.356265
-0.349688
-0.477378
-0.457135
-0.442059
-0.428341
-0.414529
-0.400949
-0.38788
-0.375183
-0.362899
-0.355303
-0.507928
-0.484159
-0.466025
-0.449448
-0.432848
-0.416589
-0.400941
-0.385637
-0.370627
-0.361631
-0.543599
-0.515491
-0.493735
-0.473887
-0.454166
-0.434935
-0.416419
-0.398141
-0.379806
-0.36877
-0.584503
-0.551219
-0.525303
-0.501826
-0.478703
-0.456255
-0.434623
-0.413001
-0.390489
-0.376149
-0.630554
-0.591297
-0.560771
-0.533415
-0.506718
-0.480878
-0.455781
-0.42991
-0.401005
-0.380185
-0.681195
-0.635429
-0.600062
-0.568843
-0.538852
-0.510229
-0.482567
-0.453497
-0.419093
-0.389896
-1.15135
-1.13459
-1.10532
-1.06592
-1.01859
-0.965564
-0.908913
-0.850526
-0.792049
-0.735028
-1.0548
-1.03978
-1.01341
-0.977837
-0.93519
-0.887547
-0.836859
-0.78488
-0.733131
-0.682931
-0.972099
-0.960833
-0.938681
-0.907641
-0.869752
-0.82703
-0.781373
-0.734492
-0.687868
-0.642725
-0.894487
-0.888122
-0.871125
-0.845287
-0.812514
-0.77473
-0.73378
-0.691356
-0.648953
-0.60779
-0.818691
-0.817483
-0.805991
-0.785748
-0.758447
-0.725846
-0.68967
-0.651535
-0.61293
-0.575075
-0.746939
-0.750535
-0.744373
-0.729706
-0.707974
-0.680698
-0.649388
-0.615473
-0.580342
-0.545128
-0.680669
-0.688369
-0.686998
-0.677562
-0.661249
-0.63932
-0.612994
-0.583357
-0.551512
-0.518309
-0.620316
-0.631354
-0.634105
-0.629397
-0.618227
-0.601633
-0.580535
-0.555523
-0.527014
-0.494799
-0.565697
-0.579436
-0.585736
-0.585337
-0.57915
-0.568119
-0.553006
-0.533937
-0.510105
-0.477785
-0.516782
-0.531867
-0.540484
-0.543346
-0.541382
-0.535634
-0.527074
-0.516097
-0.501902
-0.477837
-0.440177
-0.574507
-0.699272
-0.812246
-0.911165
-0.994237
-1.06025
-1.1086
-1.13928
-1.153
-0.391097
-0.516262
-0.632715
-0.738162
-0.830479
-0.907993
-0.969584
-1.01471
-1.04342
-1.05634
-0.32511
-0.442939
-0.5534
-0.654168
-0.743152
-0.818674
-0.879553
-0.925144
-0.955355
-0.970643
-0.256515
-0.366935
-0.47149
-0.567885
-0.654062
-0.728339
-0.789465
-0.836662
-0.86965
-0.888652
-0.193825
-0.296386
-0.394507
-0.485922
-0.568633
-0.641021
-0.701827
-0.750194
-0.785697
-0.808349
-0.140325
-0.23517
-0.326795
-0.412891
-0.491576
-0.561358
-0.621036
-0.669743
-0.706977
-0.732605
-0.0960519
-0.183768
-0.269304
-0.350112
-0.424508
-0.491198
-0.549082
-0.597331
-0.635425
-0.663153
-0.0593019
-0.140156
-0.220247
-0.296163
-0.366413
-0.429928
-0.485717
-0.533015
-0.571325
-0.600404
-0.0289152
-0.102725
-0.177942
-0.249489
-0.315935
-0.376396
-0.429995
-0.476058
-0.514142
-0.544015
-0.0121494
-0.0812674
-0.151709
-0.21807
-0.279631
-0.335804
-0.385839
-0.429208
-0.465576
-0.494762
0.530458
0.551484
0.573939
0.596964
0.620079
0.642621
0.663618
0.682478
0.704579
0.743659
0.503954
0.522229
0.542199
0.562324
0.581928
0.600283
0.616336
0.629527
0.645577
0.67941
0.469966
0.484519
0.501188
0.517496
0.532518
0.545485
0.555313
0.561575
0.570413
0.597801
0.428797
0.438768
0.451405
0.46305
0.472505
0.478989
0.481437
0.479651
0.480243
0.500063
0.380842
0.385527
0.393521
0.399762
0.402787
0.401841
0.39593
0.385177
0.376694
0.387997
0.326574
0.325472
0.328373
0.328607
0.324497
0.315365
0.300337
0.279942
0.261797
0.263829
0.266551
0.25941
0.256967
0.250759
0.238994
0.221141
0.196496
0.166068
0.137939
0.130149
0.201511
0.188353
0.180534
0.167607
0.147858
0.120988
0.0865065
0.0459528
0.00780328
-0.0101363
0.132259
0.11383
0.100813
0.0808945
0.0529433
0.0169695
-0.027303
-0.077774
-0.1257
-0.153888
0.0572766
0.0364628
0.0187257
-0.00815026
-0.0440385
-0.0888147
-0.1425
-0.202365
-0.259588
-0.298039
0.382629
0.386007
0.396461
0.404708
0.411159
0.417547
0.425474
0.437326
0.456
0.478598
0.431394
0.436064
0.447762
0.459095
0.469448
0.480006
0.492029
0.507573
0.530154
0.559101
0.47058
0.47899
0.493223
0.508012
0.522421
0.537191
0.553274
0.572392
0.598525
0.6331
0.502924
0.515397
0.532493
0.550575
0.568757
0.587462
0.607328
0.629692
0.658852
0.698169
0.528676
0.544841
0.564638
0.585653
0.607145
0.629293
0.652422
0.677473
0.708948
0.752006
0.547556
0.566811
0.588885
0.612291
0.636448
0.661331
0.686975
0.713929
0.74683
0.792507
0.559294
0.580864
0.604608
0.629703
0.655709
0.682429
0.709628
0.737497
0.770771
0.817847
0.563624
0.586599
0.611283
0.63725
0.664154
0.691655
0.719275
0.746899
0.779363
0.826544
0.560327
0.583708
0.608518
0.634458
0.661214
0.68832
0.715095
0.741183
0.77156
0.817516
0.549276
0.572011
0.596083
0.621049
0.646548
0.67201
0.696586
0.719763
0.746708
0.790047
0.337396
0.29241
0.241067
0.189169
0.137737
0.0875319
0.0393842
-0.00618337
-0.0488479
-0.0884063
0.341956
0.294146
0.240994
0.186287
0.132046
0.0793228
0.0289588
-0.0184128
-0.0623588
-0.102615
0.345516
0.291987
0.23524
0.177714
0.121126
0.06653
0.0148062
-0.0333527
-0.0774778
-0.117306
0.348156
0.289574
0.229181
0.168734
0.109753
0.0533583
0.000471343
-0.0482064
-0.0922259
-0.131378
0.349955
0.286957
0.223004
0.159649
0.0983713
0.0403527
-0.0134718
-0.0624324
-0.106142
-0.14449
0.351879
0.284693
0.217257
0.151118
0.0877416
0.0283224
-0.0262364
-0.0753361
-0.118687
-0.156303
0.35559
0.284518
0.213802
0.14504
0.0796924
0.018922
-0.0364314
-0.0858618
-0.129188
-0.166545
0.363641
0.289035
0.215195
0.143778
0.076241
0.0137132
-0.0430248
-0.09354
-0.137725
-0.175792
0.378148
0.299344
0.221415
0.1461
0.0748922
0.0089476
-0.0509349
-0.104309
-0.151061
-0.191394
0.394135
0.308203
0.223076
0.140653
0.0625549
-0.0099101
-0.0757869
-0.134499
-0.185846
-0.229955
-0.124821
-0.158149
-0.18863
-0.216604
-0.242465
-0.266618
-0.289358
-0.310686
-0.331099
-0.341394
-0.13913
-0.171931
-0.201263
-0.227461
-0.250905
-0.271952
-0.290792
-0.307243
-0.320948
-0.325203
-0.15283
-0.184106
-0.211458
-0.235302
-0.256101
-0.274302
-0.290209
-0.303882
-0.315272
-0.321064
-0.165755
-0.195487
-0.221024
-0.242896
-0.261676
-0.27792
-0.292065
-0.304363
-0.314852
-0.321666
-0.177701
-0.205998
-0.229972
-0.250268
-0.267552
-0.282457
-0.295498
-0.306991
-0.316935
-0.324171
-0.18856
-0.215759
-0.238617
-0.257862
-0.274208
-0.288314
-0.300702
-0.311676
-0.321203
-0.328571
-0.198441
-0.225212
-0.24766
-0.266543
-0.282573
-0.296383
-0.308453
-0.319046
-0.32812
-0.335265
-0.208326
-0.23564
-0.258568
-0.277849
-0.294159
-0.308079
-0.320033
-0.330246
-0.338706
-0.345213
-0.225856
-0.254782
-0.278976
-0.29916
-0.315993
-0.330028
-0.341657
-0.351094
-0.358387
-0.363478
-0.26711
-0.298047
-0.323433
-0.344062
-0.360685
-0.373906
-0.384136
-0.391602
-0.396422
-0.398596
-0.397921
-0.366448
-0.349766
-0.340266
-0.333179
-0.327213
-0.321212
-0.312636
-0.297619
-0.284251
-0.395984
-0.367802
-0.352714
-0.343879
-0.336995
-0.33092
-0.324809
-0.316957
-0.305218
-0.297564
-0.393048
-0.368015
-0.354523
-0.346483
-0.340099
-0.334433
-0.32889
-0.322433
-0.314221
-0.310412
-0.389667
-0.367559
-0.355586
-0.34834
-0.342494
-0.337278
-0.332238
-0.326677
-0.320258
-0.317566
-0.38645
-0.366945
-0.356346
-0.349826
-0.344483
-0.33969
-0.335109
-0.330266
-0.325006
-0.322554
-0.383972
-0.366691
-0.357257
-0.351331
-0.346371
-0.341875
-0.337595
-0.333205
-0.328634
-0.326078
-0.382792
-0.367306
-0.358779
-0.353252
-0.348489
-0.344097
-0.3399
-0.335673
-0.331399
-0.328562
-0.383462
-0.369295
-0.361368
-0.356002
-0.351207
-0.346693
-0.342346
-0.338018
-0.333729
-0.330523
-0.386524
-0.373139
-0.365464
-0.359984
-0.3549
-0.350017
-0.345283
-0.340606
-0.336035
-0.332412
-0.392395
-0.379269
-0.37148
-0.365582
-0.359924
-0.354404
-0.349037
-0.343766
-0.338661
-0.334584
-0.328686
-0.275448
-0.244073
-0.202293
-0.170415
-0.14087
-0.116823
-0.0959779
-0.0783215
-0.0632993
-0.0510554
-0.0417469
-0.0349956
-0.0300117
-0.0257785
-0.021446
-0.0171064
-0.0103214
-0.00635717
0.0022405
-0.333701
-0.276567
-0.245294
-0.203525
-0.171866
-0.142563
-0.118522
-0.0974128
-0.0792064
-0.0634456
-0.0504596
-0.0406461
-0.0339167
-0.0295073
-0.0260948
-0.022324
-0.0179709
-0.0108941
-0.00649561
0.00224229
-0.340745
-0.278483
-0.247179
-0.205324
-0.173702
-0.144533
-0.120397
-0.0989758
-0.0802138
-0.0637408
-0.050039
-0.0397203
-0.0329773
-0.0290891
-0.0264389
-0.023182
-0.0187984
-0.0114417
-0.00663287
0.00221893
-0.349687
-0.281237
-0.249666
-0.207662
-0.175897
-0.146754
-0.122428
-0.100659
-0.0813479
-0.0642002
-0.0498179
-0.0389981
-0.0321999
-0.0287648
-0.0268042
-0.0240076
-0.0195802
-0.0119594
-0.00676781
0.00217112
-0.360281
-0.284893
-0.252678
-0.210498
-0.178423
-0.149203
-0.124603
-0.102458
-0.0826137
-0.0648348
-0.0498122
-0.0384973
-0.0315983
-0.0285369
-0.0271836
-0.0247918
-0.0203118
-0.0124457
-0.00689925
0.00210095
-0.372132
-0.289535
-0.256127
-0.213771
-0.181238
-0.151848
-0.126905
-0.104366
-0.0840097
-0.0656472
-0.0500277
-0.0382264
-0.0311791
-0.0284048
-0.0275699
-0.0255265
-0.0209889
-0.0128988
-0.00702625
0.00201023
-0.384832
-0.295463
-0.260066
-0.21748
-0.184348
-0.154692
-0.129343
-0.106395
-0.0855529
-0.0666549
-0.0504811
-0.0382005
-0.0309515
-0.0283668
-0.0279531
-0.0262014
-0.021607
-0.013318
-0.00714895
0.00190085
-0.398119
-0.30361
-0.265042
-0.221949
-0.187993
-0.157912
-0.13206
-0.108664
-0.0873451
-0.0679449
-0.0512451
-0.0384758
-0.0309495
-0.0284301
-0.0283213
-0.0268011
-0.0221594
-0.0137029
-0.00726987
0.00177357
-0.40947
-0.314149
-0.271417
-0.227443
-0.192376
-0.161675
-0.135192
-0.111274
-0.0894494
-0.0695448
-0.0523207
-0.0390415
-0.0311666
-0.0285984
-0.0286882
-0.0273431
-0.0226601
-0.0140606
-0.00738896
0.00163189
-0.407674
-0.321131
-0.27607
-0.231731
-0.195877
-0.164795
-0.137834
-0.113471
-0.0911776
-0.0707957
-0.0530917
-0.0393793
-0.0312675
-0.0287699
-0.0291344
-0.0279683
-0.0231899
-0.0144132
-0.00748218
0.00149526
-0.381922
-0.319107
-0.276063
-0.232796
-0.197086
-0.166348
-0.1394
-0.114853
-0.0921706
-0.0712786
-0.0530211
-0.038858
-0.0306969
-0.0287252
-0.0298523
-0.0290956
-0.0240712
-0.0149383
-0.00754915
0.00133068
-0.365967
-0.314374
-0.272191
-0.231147
-0.196607
-0.166779
-0.140224
-0.115846
-0.0931974
-0.0722934
-0.0539841
-0.0397301
-0.0314902
-0.029523
-0.0306964
-0.0298698
-0.0245822
-0.0152701
-0.00757476
0.00100393
-0.347452
-0.303525
-0.263155
-0.225952
-0.193973
-0.165771
-0.140124
-0.116315
-0.094073
-0.0735118
-0.0554685
-0.0413407
-0.0330105
-0.0307512
-0.0315521
-0.0303764
-0.0248166
-0.0154473
-0.00755579
0.000584252
-0.318405
-0.285255
-0.249569
-0.21758
-0.18942
-0.163628
-0.139443
-0.116603
-0.0950868
-0.0751256
-0.057537
-0.0436204
-0.0351128
-0.032295
-0.0324047
-0.0306806
-0.0248337
-0.0155113
-0.00749769
8.32869e-05
-0.280048
-0.260025
-0.232157
-0.206266
-0.18276
-0.160175
-0.138089
-0.116688
-0.0962563
-0.0771707
-0.0602282
-0.0465973
-0.0378041
-0.0341256
-0.0331895
-0.0307116
-0.0245844
-0.015447
-0.00740865
-0.000481403
-0.238821
-0.23058
-0.212128
-0.192818
-0.174243
-0.155385
-0.135974
-0.116478
-0.0974751
-0.0795104
-0.0633736
-0.0500869
-0.0409223
-0.0361367
-0.0338572
-0.0304651
-0.0240836
-0.0152718
-0.00731411
-0.00107009
-0.200872
-0.200808
-0.191241
-0.178486
-0.164692
-0.149622
-0.13318
-0.115911
-0.0985751
-0.0818776
-0.0666231
-0.0537038
-0.044141
-0.0381632
-0.0344195
-0.0300556
-0.0234455
-0.0150459
-0.00725111
-0.00162467
-0.169681
-0.174319
-0.171641
-0.1647
-0.15522
-0.143593
-0.130005
-0.115003
-0.099385
-0.0839562
-0.0695527
-0.0569821
-0.0470675
-0.0400179
-0.034926
-0.0296636
-0.0228416
-0.0148465
-0.00724968
-0.00208408
-0.147027
-0.153941
-0.155734
-0.153174
-0.147146
-0.13827
-0.127014
-0.113951
-0.0998365
-0.0854973
-0.0717966
-0.0595094
-0.0493391
-0.0414977
-0.0353818
-0.0294238
-0.0224165
-0.014729
-0.00731009
-0.00240374
-0.13431
-0.142095
-0.146127
-0.146035
-0.142083
-0.134871
-0.125028
-0.113173
-0.100014
-0.0863634
-0.0730912
-0.0609707
-0.0506551
-0.0423756
-0.0356861
-0.0293365
-0.0222138
-0.014692
-0.00738794
-0.00256635
-0.447545
-0.460084
-0.467273
-0.469636
-0.468033
-0.463765
-0.458705
-0.455471
-0.459132
-0.481545
-0.368374
-0.38171
-0.39208
-0.399992
-0.406136
-0.411351
-0.416525
-0.422378
-0.429047
-0.441999
-0.303602
-0.316596
-0.328047
-0.338144
-0.347039
-0.354813
-0.361489
-0.367206
-0.372007
-0.38159
-0.248648
-0.260197
-0.270691
-0.280175
-0.288706
-0.296382
-0.303373
-0.309992
-0.31629
-0.324728
-0.202899
-0.212919
-0.222257
-0.230952
-0.239054
-0.246622
-0.253706
-0.260356
-0.266503
-0.272867
-0.165804
-0.174399
-0.182521
-0.190176
-0.197375
-0.204125
-0.210437
-0.216332
-0.221823
-0.22701
-0.136446
-0.143748
-0.150695
-0.157278
-0.163499
-0.169359
-0.174861
-0.180015
-0.184824
-0.189239
-0.114273
-0.120525
-0.126493
-0.132167
-0.137538
-0.142603
-0.14736
-0.151808
-0.155949
-0.159755
-0.0988591
-0.104334
-0.109569
-0.114554
-0.119278
-0.123734
-0.127919
-0.131831
-0.135471
-0.138833
-0.0904914
-0.095474
-0.100245
-0.104794
-0.109115
-0.113202
-0.117052
-0.120663
-0.124035
-0.127171
-0.023932
-0.0879639
-0.150571
-0.205181
-0.254907
-0.300345
-0.340821
-0.37593
-0.405491
-0.429379
-0.041573
-0.0910991
-0.138575
-0.178993
-0.215559
-0.249557
-0.280464
-0.307834
-0.33158
-0.351732
-0.0525321
-0.0921005
-0.127137
-0.156866
-0.183897
-0.20918
-0.232448
-0.253443
-0.272199
-0.288866
-0.057435
-0.088123
-0.112925
-0.134069
-0.153946
-0.172925
-0.190695
-0.207097
-0.222166
-0.235992
-0.0568392
-0.079571
-0.0970662
-0.112261
-0.127104
-0.141631
-0.155473
-0.168491
-0.180709
-0.19217
-0.0521343
-0.0685275
-0.0812882
-0.09276
-0.10423
-0.11563
-0.126647
-0.137164
-0.147187
-0.156734
-0.0458842
-0.0577874
-0.0675503
-0.0766508
-0.0858116
-0.0949592
-0.103887
-0.112508
-0.120812
-0.128796
-0.0399087
-0.0488582
-0.0567042
-0.0642294
-0.0717924
-0.0793413
-0.0867559
-0.0939754
-0.100979
-0.107751
-0.035189
-0.0423562
-0.049031
-0.0555458
-0.0620592
-0.0685424
-0.0749291
-0.0811766
-0.087261
-0.0931621
-0.0324099
-0.0387811
-0.0449442
-0.0509855
-0.056972
-0.0628933
-0.0687136
-0.074403
-0.0799405
-0.0853087
0.207773
0.208744
0.211173
0.214491
0.219021
0.222398
0.224976
0.215296
0.191728
0.0871284
0.199509
0.200034
0.201409
0.202997
0.204701
0.204024
0.200162
0.182199
0.145619
0.0473731
0.18965
0.189707
0.189947
0.189676
0.188481
0.183906
0.17447
0.151314
0.109941
0.0285699
0.178068
0.177613
0.176635
0.174441
0.170362
0.162267
0.148246
0.122478
0.080047
0.0120167
0.164815
0.163843
0.161675
0.157667
0.151017
0.140112
0.122929
0.0963496
0.0553831
-0.0019201
0.150204
0.148762
0.145551
0.140021
0.131386
0.11858
0.099822
0.0737879
0.0365189
-0.0108844
0.134915
0.133099
0.129098
0.122478
0.1126
0.0988465
0.0799474
0.0555416
0.0232193
-0.0153008
0.120106
0.118044
0.113567
0.106346
0.095954
0.0820924
0.0640533
0.0418866
0.0144731
-0.0168142
0.107508
0.105329
0.100663
0.0932624
0.0828906
0.0694495
0.0526531
0.0326809
0.00918456
-0.0168963
0.0995469
0.0973361
0.0926489
0.0852838
0.0751169
0.0621475
0.0463075
0.0278003
0.00661567
-0.0165675
0.243159
0.24524
0.250846
0.25958
0.27324
0.291384
0.318519
0.353518
0.4061
0.473477
0.240668
0.242677
0.248095
0.256507
0.269677
0.287019
0.312948
0.345869
0.394855
0.456182
0.237946
0.239878
0.245089
0.25314
0.265753
0.282156
0.306664
0.336973
0.381485
0.434617
0.235004
0.236857
0.241842
0.249498
0.26149
0.276826
0.299713
0.326882
0.366134
0.408891
0.231856
0.233629
0.238373
0.245605
0.256914
0.271067
0.292141
0.315661
0.348968
0.379105
0.228517
0.230211
0.234702
0.241483
0.252051
0.264918
0.283989
0.303386
0.330168
0.34533
0.225003
0.226626
0.230857
0.237171
0.246948
0.258452
0.275341
0.290197
0.30996
0.307647
0.221335
0.222901
0.226883
0.232738
0.241708
0.251821
0.26639
0.276376
0.288662
0.266064
0.217526
0.219048
0.222786
0.228186
0.236322
0.245023
0.257105
0.261922
0.266067
0.219465
0.213563
0.214972
0.218339
0.223107
0.230111
0.237054
0.245989
0.24519
0.239762
0.166153
0.254354
0.256795
0.262895
0.272555
0.287061
0.305911
0.33225
0.360792
0.39851
0.40838
0.254331
0.256784
0.263002
0.272827
0.28772
0.30721
0.335035
0.366485
0.410226
0.436537
0.254075
0.256503
0.262731
0.272548
0.28752
0.307202
0.335696
0.36904
0.416823
0.456721
0.253587
0.25599
0.262217
0.272018
0.287047
0.306905
0.335959
0.371005
0.422267
0.473076
0.252858
0.255234
0.261449
0.271221
0.286276
0.306269
0.335751
0.372227
0.426342
0.485763
0.251879
0.254224
0.260403
0.270109
0.285122
0.305142
0.334829
0.372306
0.428469
0.494398
0.250645
0.252952
0.259069
0.268667
0.28356
0.30348
0.333131
0.371132
0.428474
0.49886
0.249155
0.251417
0.257444
0.266891
0.281588
0.301275
0.330653
0.368683
0.42629
0.49907
0.247409
0.249617
0.255529
0.264782
0.279207
0.298524
0.327389
0.364937
0.42185
0.494939
0.245408
0.247557
0.253327
0.262342
0.276421
0.295224
0.323341
0.359881
0.415117
0.486411
0.208458
0.207036
0.204007
0.199186
0.192361
0.183312
0.171739
0.15746
0.14015
0.119964
0.213467
0.212238
0.209588
0.205287
0.199035
0.190496
0.179201
0.16481
0.146726
0.125014
0.220965
0.220084
0.21814
0.214846
0.209786
0.20242
0.192003
0.177834
0.158822
0.134728
0.229073
0.228666
0.227719
0.225906
0.222719
0.217365
0.208802
0.195692
0.176277
0.149476
0.236577
0.236721
0.236979
0.237016
0.236317
0.23384
0.228352
0.217561
0.199044
0.169769
0.242825
0.243539
0.245087
0.247171
0.249382
0.250492
0.249313
0.242345
0.226808
0.195986
0.247588
0.248835
0.251643
0.25578
0.26106
0.266197
0.270343
0.268702
0.25869
0.227876
0.250908
0.252617
0.256565
0.262604
0.270854
0.280138
0.290228
0.295277
0.293238
0.263763
0.252979
0.255054
0.259965
0.267635
0.278535
0.291737
0.307856
0.320721
0.328997
0.301902
0.254057
0.256383
0.262034
0.270955
0.284016
0.300566
0.322353
0.343672
0.365991
0.348767
0.105391
0.0992566
0.0929717
0.0866412
0.0802485
0.0737839
0.0672643
0.060715
0.0541598
0.0476201
0.108862
0.102016
0.094997
0.0879922
0.0809282
0.0737586
0.0665009
0.059192
0.0518651
0.044548
0.115879
0.107514
0.098847
0.0903984
0.0819962
0.0734891
0.0648762
0.0562112
0.0475398
0.0388927
0.127057
0.116341
0.10501
0.0942993
0.0838797
0.0733859
0.0627698
0.052113
0.0414804
0.0309029
0.143217
0.129248
0.114023
0.100088
0.0868886
0.0736827
0.0603363
0.0469793
0.0337073
0.0205447
0.165304
0.147147
0.126538
0.10823
0.0913698
0.0746148
0.0577087
0.0408678
0.024228
0.00779447
0.194247
0.171102
0.143419
0.11941
0.0978261
0.0764713
0.0549976
0.0337702
0.0129564
-0.00747957
0.230068
0.201276
0.164912
0.134003
0.106485
0.0792354
0.0520479
0.0254801
-0.000321686
-0.0254546
0.27264
0.237182
0.191475
0.153022
0.118076
0.0833374
0.049144
0.0161654
-0.0154574
-0.0457448
0.320399
0.27639
0.222729
0.175467
0.130496
0.0863671
0.0439156
0.00366333
-0.0341851
-0.069456
0.0411161
0.0346669
0.0282908
0.0220047
0.0158239
0.00976257
0.00383282
-0.00195431
-0.00758906
-0.0130623
0.0372666
0.0300463
0.0229117
0.0158857
0.00898932
0.00224171
-0.00434084
-0.010744
-0.0169553
-0.0229409
0.0302958
0.0217749
0.0133553
0.00506057
-0.00308813
-0.0110715
-0.0188734
-0.0264799
-0.0338802
-0.0409882
0.0204003
0.00999368
-0.000295072
-0.0104457
-0.020441
-0.0302662
-0.0399101
-0.0493625
-0.0586225
-0.0675604
0.0074957
-0.00543089
-0.0182222
-0.0308664
-0.0433547
-0.055681
-0.067846
-0.0798543
-0.0917397
-0.103547
-0.00845618
-0.0245362
-0.0404534
-0.0562225
-0.0718662
-0.0874113
-0.102885
-0.118295
-0.133706
-0.149816
-0.0275949
-0.0474189
-0.0669711
-0.08628
-0.105396
-0.124407
-0.143444
-0.162629
-0.182337
-0.204194
-0.050023
-0.0741076
-0.0977839
-0.121112
-0.144124
-0.166838
-0.189298
-0.211601
-0.235014
-0.261749
-0.0747306
-0.1025
-0.129242
-0.155242
-0.180856
-0.206474
-0.232451
-0.259121
-0.288692
-0.320324
-0.102028
-0.131884
-0.159204
-0.1844
-0.208153
-0.231409
-0.255279
-0.281254
-0.31498
-0.35853
-0.026035
-0.0444815
-0.0604237
-0.0727929
-0.0809701
-0.0849236
-0.0851133
-0.0823585
-0.0775493
-0.0714928
-0.0645046
-0.0566129
-0.0473756
-0.0370939
-0.0262021
-0.0167568
-0.009788
-0.00649816
-0.00490784
-0.00263082
-0.037464
-0.0565869
-0.0718037
-0.0825985
-0.0887787
-0.0906143
-0.0888486
-0.0845444
-0.0787227
-0.0721901
-0.0650919
-0.057202
-0.0478083
-0.0371389
-0.0256681
-0.0157688
-0.00883706
-0.0059162
-0.00499822
-0.00274943
-0.0582953
-0.0781069
-0.0915247
-0.0991797
-0.1016
-0.0996162
-0.0944748
-0.0876075
-0.080212
-0.0730544
-0.0659514
-0.0582069
-0.0486451
-0.0373652
-0.0249417
-0.0142639
-0.00738119
-0.00495576
-0.00513263
-0.00282724
-0.0879832
-0.107577
-0.117709
-0.120419
-0.117256
-0.109979
-0.100446
-0.0904331
-0.0812757
-0.0736113
-0.066763
-0.0594039
-0.04977
-0.0378228
-0.0242976
-0.0127203
-0.00588873
-0.00387966
-0.00522786
-0.00271843
-0.125123
-0.142862
-0.148285
-0.144113
-0.133675
-0.120089
-0.105657
-0.0923411
-0.0815137
-0.0735598
-0.0672037
-0.0604403
-0.0509006
-0.0384202
-0.0239302
-0.0115584
-0.00478587
-0.00295512
-0.00522888
-0.00237259
-0.165894
-0.180365
-0.18022
-0.167449
-0.148822
-0.128756
-0.109556
-0.0931994
-0.0809563
-0.0728576
-0.0670539
-0.0609635
-0.0516993
-0.0389736
-0.0238903
-0.0109993
-0.00431116
-0.00237773
-0.00515526
-0.00184367
-0.20421
-0.215722
-0.209621
-0.187498
-0.161192
-0.135416
-0.112169
-0.0933375
-0.0799647
-0.0717131
-0.0663159
-0.0608137
-0.051953
-0.0393114
-0.0240992
-0.0110425
-0.00448563
-0.00222902
-0.00507113
-0.00122908
-0.235696
-0.245744
-0.233312
-0.202693
-0.170413
-0.140206
-0.113921
-0.0932637
-0.0789868
-0.0704624
-0.0652082
-0.0600968
-0.051669
-0.039365
-0.0244306
-0.0115398
-0.00516398
-0.00246736
-0.00502921
-0.000616629
-0.262595
-0.269401
-0.250211
-0.213238
-0.176923
-0.143549
-0.115208
-0.0932826
-0.078266
-0.0693388
-0.0639699
-0.059028
-0.0509852
-0.03916
-0.0247772
-0.0122961
-0.00613489
-0.00297296
-0.00504518
-6.02356e-05
-0.291955
-0.285796
-0.259743
-0.21895
-0.180504
-0.145339
-0.115992
-0.0933905
-0.0778209
-0.0683435
-0.0625404
-0.0574753
-0.0497366
-0.0385492
-0.0250301
-0.0132392
-0.0073401
-0.00369104
-0.00511688
0.00044191
-0.320232
-0.289783
-0.260294
-0.218969
-0.180852
-0.145815
-0.116734
-0.0941043
-0.0780894
-0.0677249
-0.0609296
-0.0552453
-0.0476621
-0.0373341
-0.0251234
-0.0143904
-0.00877994
-0.00458418
-0.00522994
0.000860124
-0.333829
-0.290203
-0.258813
-0.216521
-0.17862
-0.143894
-0.115387
-0.093169
-0.0773133
-0.0668034
-0.0597251
-0.0538467
-0.0463879
-0.036515
-0.0250147
-0.0149135
-0.00952631
-0.00509885
-0.00530695
0.00110697
-0.337217
-0.288156
-0.255979
-0.212903
-0.17548
-0.141352
-0.113662
-0.0920532
-0.0765195
-0.0659926
-0.0587138
-0.0526546
-0.045259
-0.0357425
-0.0248557
-0.0153452
-0.0101891
-0.00558703
-0.00538965
0.00131876
-0.336185
-0.285531
-0.253228
-0.209829
-0.173067
-0.139581
-0.112631
-0.0914823
-0.0760838
-0.065354
-0.0577284
-0.0514118
-0.0440827
-0.0349816
-0.0247747
-0.0158808
-0.0109273
-0.00611753
-0.00548367
0.00151238
-0.333693
-0.282948
-0.250663
-0.20726
-0.171277
-0.138451
-0.112163
-0.0913358
-0.0759023
-0.0648027
-0.0567013
-0.0500646
-0.0428195
-0.0342105
-0.0247655
-0.0165201
-0.0117383
-0.00668644
-0.00558805
0.00168777
-0.330633
-0.280508
-0.248288
-0.205082
-0.169937
-0.137785
-0.112099
-0.091495
-0.0759061
-0.0643209
-0.0556539
-0.0486504
-0.041499
-0.0334373
-0.0248115
-0.0172335
-0.0125951
-0.0072795
-0.00570138
0.00184162
-0.327687
-0.278344
-0.246247
-0.203366
-0.169062
-0.137566
-0.112409
-0.0919332
-0.0760841
-0.0639193
-0.0546147
-0.0472044
-0.0401497
-0.0326759
-0.0249092
-0.0180059
-0.0134825
-0.00788763
-0.00582253
0.00197196
-0.325544
-0.276632
-0.244705
-0.202197
-0.168681
-0.137795
-0.113075
-0.0926321
-0.0764282
-0.0636074
-0.0536079
-0.0457561
-0.0387959
-0.031939
-0.0250578
-0.0188268
-0.0143897
-0.00850366
-0.00595021
0.00207784
-0.324764
-0.27552
-0.243785
-0.20162
-0.168793
-0.138447
-0.114061
-0.0935608
-0.0769245
-0.0633932
-0.0526596
-0.0443392
-0.0374655
-0.0312403
-0.0252549
-0.019683
-0.0153041
-0.0091194
-0.00608294
0.0021581
-0.325735
-0.275107
-0.243566
-0.201653
-0.169381
-0.139485
-0.115324
-0.0946861
-0.0775591
-0.0632865
-0.0517986
-0.04299
-0.0361883
-0.0305934
-0.0254969
-0.0205612
-0.0162139
-0.00972775
-0.00621915
0.00221246
)
;

boundaryField
{
    inlet
    {
        type            freestreamPressure;
        freestreamValue uniform 0;
        supersonic      false;
        value           nonuniform List<scalar> 
40
(
0.207773
0.199509
0.18965
0.178068
0.164815
0.150204
0.134915
0.120106
0.107508
0.0995469
0.243159
0.240668
0.237946
0.235004
0.231856
0.228517
0.225003
0.221335
0.217526
0.213563
0.254354
0.254331
0.254075
0.253587
0.252858
0.251879
0.250645
0.249155
0.247409
0.245408
0.208458
0.213467
0.220965
0.229073
0.236577
0.242825
0.247588
0.250908
0.252979
0.254057
)
;
    }
    outlet
    {
        type            freestreamPressure;
        freestreamValue uniform 0;
        supersonic      false;
        value           nonuniform List<scalar> 
40
(
9.64569e-07
7.00988e-07
3.79785e-07
4.8151e-08
-2.32721e-07
-3.9765e-07
-4.11777e-07
-2.98857e-07
-1.3603e-07
-1.71415e-08
1.1024e-06
1.21266e-06
1.29859e-06
1.3558e-06
1.38208e-06
1.37689e-06
1.34128e-06
1.27693e-06
1.18848e-06
1.09241e-06
4.02785e-08
7.92727e-08
1.3499e-07
2.10345e-07
3.06043e-07
4.20497e-07
5.50255e-07
6.90243e-07
8.33818e-07
9.73837e-07
-7.04137e-09
-5.82628e-08
-1.31325e-07
-1.72454e-07
-1.45921e-07
-7.79529e-08
-2.19687e-08
-1.19753e-09
-1.64194e-10
9.44032e-09
)
;
    }
    top
    {
        type            symmetryPlane;
    }
    bottom
    {
        type            symmetryPlane;
    }
    cylinder
    {
        type            zeroGradient;
    }
    frontandback
    {
        type            empty;
    }
}


// ************************************************************************* //
