/*--------------------------------*- C++ -*----------------------------------*\
  =========                 |
  \\      /  F ield         | OpenFOAM: The Open Source CFD Toolbox
   \\    /   O peration     | Website:  https://openfoam.org
    \\  /    A nd           | Version:  6.0
     \\/     M anipulation  |
\*---------------------------------------------------------------------------*/
FoamFile
{
    version     2.0;
    format      ascii;
    class       volVectorField;
    location    "15.26";
    object      U;
}
// * * * * * * * * * * * * * * * * * * * * * * * * * * * * * * * * * * * * * //

dimensions      [0 1 -1 0 0 0 0];

internalField   nonuniform List<vector> 
2400
(
(0.0179407 -0.435391 -1.22179e-20)
(0.00555935 -0.339826 5.4645e-21)
(-0.00399316 -0.267647 -6.07087e-21)
(-0.0111097 -0.213325 -3.94135e-21)
(-0.015766 -0.172287 -6.89926e-21)
(-0.0180555 -0.140947 9.5126e-21)
(-0.0184159 -0.116598 3.88622e-21)
(-0.017355 -0.0972349 3.65621e-21)
(-0.0153568 -0.0813927 -8.50963e-21)
(-0.0134031 -0.0680425 -6.4887e-22)
(0.0516308 -0.42898 1.36115e-20)
(0.0321085 -0.332082 -1.39267e-21)
(0.0183205 -0.260752 2.8513e-21)
(0.00910331 -0.208361 3.71622e-20)
(0.00391059 -0.169649 -2.83092e-20)
(0.00221626 -0.140583 -1.50666e-21)
(0.00325109 -0.118172 -3.26251e-22)
(0.0062694 -0.100215 -3.7885e-21)
(0.01063 -0.0850981 -6.734e-21)
(0.0150308 -0.0717461 -2.67438e-21)
(0.0845482 -0.420354 2.50898e-20)
(0.0581486 -0.323474 2.56264e-20)
(0.0410514 -0.254023 -7.40222e-20)
(0.0309686 -0.204335 2.45278e-20)
(0.0266147 -0.168523 4.08475e-20)
(0.0269504 -0.142165 -2.36007e-20)
(0.0308327 -0.122023 -2.03645e-20)
(0.037262 -0.105704 1.92482e-20)
(0.0454403 -0.0914056 -4.39332e-20)
(0.0536435 -0.0779984 4.67081e-20)
(0.116669 -0.409757 -8.77797e-20)
(0.0839724 -0.314485 4.38883e-20)
(0.0647359 -0.24799 -4.34541e-20)
(0.0552011 -0.201723 2.23276e-20)
(0.0531753 -0.169299 -2.59919e-20)
(0.0570296 -0.145997 4.1762e-20)
(0.0652127 -0.128397 2.27082e-20)
(0.076465 -0.113929 -6.86868e-20)
(0.089842 -0.100553 -6.74185e-20)
(0.103094 -0.0870546 7.9278e-20)
(0.148019 -0.397424 3.61264e-21)
(0.11003 -0.305507 -1.70741e-20)
(0.0901461 -0.243015 -7.62802e-21)
(0.0827959 -0.20076 -9.52516e-21)
(0.0847234 -0.172034 -6.44987e-20)
(0.0936418 -0.151961 1.06061e-20)
(0.107566 -0.137041 -7.08546e-21)
(0.124984 -0.124572 7.50562e-20)
(0.144831 -0.112229 -5.29906e-20)
(0.164237 -0.0986682 -3.86509e-20)
(0.178696 -0.383584 8.48306e-20)
(0.136941 -0.296835 -8.63991e-21)
(0.118274 -0.239273 1.3257e-19)
(0.114997 -0.201398 -1.70769e-20)
(0.122649 -0.176409 8.33601e-20)
(0.138228 -0.159449 -9.50557e-21)
(0.159297 -0.147094 -7.84522e-22)
(0.184105 -0.136608 6.12953e-20)
(0.211531 -0.125372 -3.43391e-20)
(0.238011 -0.111884 6.64243e-20)
(0.208883 -0.368444 -3.21416e-20)
(0.165477 -0.288654 1.14482e-20)
(0.150289 -0.236745 -3.40295e-20)
(0.153223 -0.203318 -4.27759e-20)
(0.168506 -0.181741 -4.60264e-21)
(0.192375 -0.167377 1.41465e-19)
(0.221917 -0.157073 -5.09854e-20)
(0.255166 -0.148253 2.5408e-20)
(0.291045 -0.138091 -8.80292e-20)
(0.325314 -0.124934 -5.61927e-20)
(0.238848 -0.352181 1.5478e-19)
(0.19653 -0.281005 -1.75603e-20)
(0.187449 -0.235197 -1.84761e-19)
(0.198932 -0.205945 1.04519e-20)
(0.223831 -0.187047 4.52871e-20)
(0.257584 -0.174267 -6.77685e-20)
(0.296775 -0.16494 -9.16335e-20)
(0.339225 -0.156925 1.3979e-19)
(0.384086 -0.147431 -1.18665e-20)
(0.426693 -0.134843 -1.29878e-19)
(0.268941 -0.334914 -1.30031e-19)
(0.231041 -0.273753 7.68869e-20)
(0.230972 -0.234186 1.2206e-19)
(0.253448 -0.208519 3.3415e-20)
(0.289941 -0.191198 -1.31018e-19)
(0.335056 -0.178478 8.72403e-20)
(0.384797 -0.168261 5.45137e-20)
(0.436652 -0.159001 1.1558e-19)
(0.490152 -0.148241 -7.0685e-20)
(0.541109 -0.135342 -1.04466e-19)
(0.299556 -0.316626 4.43216e-20)
(0.269873 -0.266513 -1.82824e-20)
(0.281843 -0.233053 -6.15044e-22)
(0.31775 -0.210222 3.804e-20)
(0.36781 -0.193308 3.25159e-20)
(0.425919 -0.179032 -2.29544e-20)
(0.487572 -0.165633 -4.64801e-20)
(0.549719 -0.151809 7.4536e-20)
(0.611472 -0.135608 -6.33435e-20)
(0.669547 -0.119309 5.8508e-20)
(0.616897 -0.00930994 3.9509e-21)
(0.590448 -0.0551717 1.14029e-20)
(0.560892 -0.0972018 -3.81338e-20)
(0.529178 -0.135362 3.34765e-20)
(0.49614 -0.16976 1.25941e-20)
(0.462496 -0.20064 1.56193e-19)
(0.428815 -0.228352 -5.97446e-20)
(0.395511 -0.253316 -8.00268e-20)
(0.362853 -0.276013 8.29786e-20)
(0.330949 -0.296966 -1.43723e-19)
(0.831528 0.0174545 1.40164e-20)
(0.778779 -0.0409923 -4.50365e-21)
(0.720443 -0.0919844 -3.7829e-20)
(0.658684 -0.13518 1.00283e-19)
(0.595553 -0.170652 -3.34726e-20)
(0.532912 -0.198859 2.52014e-19)
(0.472339 -0.220597 -1.55399e-19)
(0.415069 -0.236933 2.21566e-19)
(0.361972 -0.249136 -1.50747e-19)
(0.313537 -0.258579 -7.69464e-20)
(1.01672 0.0670172 -2.7844e-20)
(0.953222 -0.000578669 4.08987e-21)
(0.880841 -0.0598451 -1.20794e-19)
(0.802246 -0.109858 9.29197e-20)
(0.720184 -0.150237 -9.39166e-20)
(0.637322 -0.181149 -1.75753e-19)
(0.556086 -0.203297 -5.69407e-20)
(0.478532 -0.217865 -4.86292e-20)
(0.406265 -0.226443 1.53904e-19)
(0.34044 -0.230896 7.94138e-20)
(1.16655 0.11712 1.27234e-20)
(1.10232 0.0444492 -2.22621e-20)
(1.02605 -0.0205653 -3.01306e-20)
(0.940358 -0.076437 -1.18138e-19)
(0.848203 -0.122212 6.88515e-20)
(0.752663 -0.157539 1.99104e-19)
(0.656741 -0.182721 8.57354e-20)
(0.563162 -0.198727 1.66017e-20)
(0.474232 -0.207172 4.53838e-20)
(0.391851 -0.210219 -1.45882e-21)
(1.28115 0.159851 -1.50146e-20)
(1.22244 0.0857841 -5.89564e-20)
(1.14922 0.0179169 7.93455e-21)
(1.06367 -0.0418553 1.02322e-19)
(0.968517 -0.0920573 1.05077e-19)
(0.866851 -0.131763 -6.9254e-20)
(0.761907 -0.160721 -1.28911e-19)
(0.656811 -0.179472 -6.21719e-20)
(0.554356 -0.189442 7.28764e-20)
(0.457053 -0.193022 9.94146e-20)
(1.36405 0.193355 3.13588e-21)
(1.31434 0.120754 5.01289e-20)
(1.24858 0.0526122 -1.17353e-19)
(1.16829 -0.00896293 1.46959e-19)
(1.07564 -0.062112 8.66281e-20)
(0.973377 -0.105381 1.57109e-19)
(0.86461 -0.137907 -3.35893e-20)
(0.752514 -0.159656 -8.939e-20)
(0.639991 -0.171691 2.11703e-19)
(0.529719 -0.176629 -1.7195e-19)
(1.42028 0.217568 7.72279e-21)
(1.38095 0.148381 -6.02978e-20)
(1.32503 0.0819584 -3.74782e-20)
(1.25325 0.0204307 -8.00084e-20)
(1.16707 -0.0341275 -1.12971e-20)
(1.06863 -0.0798415 -1.17632e-19)
(0.960624 -0.11524 -7.27491e-20)
(0.845921 -0.139589 -1.50673e-20)
(0.72701 -0.15338 -1.31355e-19)
(0.605775 -0.159483 1.86547e-19)
(1.45513 0.233467 -6.83711e-21)
(1.42613 0.168787 5.04396e-20)
(1.38085 0.105412 -2.24161e-20)
(1.3193 0.045338 5.01413e-20)
(1.24217 -0.00931327 1.22966e-19)
(1.15089 -0.0563859 2.00012e-19)
(1.04754 -0.0938366 -5.74933e-20)
(0.93447 -0.120072 -1.96893e-19)
(0.813231 -0.134596 5.3521e-20)
(0.683246 -0.140297 -3.06837e-19)
(1.47333 0.242656 9.96337e-21)
(1.45374 0.182802 -1.1869e-20)
(1.41881 0.123079 -1.21789e-19)
(1.36798 0.0652346 3.71883e-20)
(1.30124 0.0112781 -8.62334e-20)
(1.21932 -0.0365155 -3.5736e-20)
(1.12369 -0.0756192 -2.85133e-20)
(1.01619 -0.103392 8.18629e-20)
(0.897417 -0.117445 9.43392e-20)
(0.762365 -0.118882 5.75248e-20)
(1.47862 0.246722 -2.41917e-20)
(1.46706 0.191815 4.33551e-20)
(1.44154 0.136018 2.0211e-20)
(1.40108 0.080739 6.16431e-20)
(1.34509 0.027729 -7.08673e-21)
(1.27369 -0.0208184 -4.73769e-21)
(1.18781 -0.0621243 -1.59663e-19)
(1.0892 -0.0926466 2.03563e-19)
(0.978588 -0.107575 -1.25944e-19)
(0.845233 -0.102233 2.62827e-20)
(0.537457 0.499466 -5.52987e-20)
(0.577249 0.46006 6.39119e-20)
(0.610691 0.415219 1.11131e-21)
(0.637113 0.365905 -1.58969e-19)
(0.65601 0.313207 1.18289e-19)
(0.667152 0.258318 -8.88619e-20)
(0.670585 0.202456 -2.1683e-20)
(0.666628 0.146799 -2.06913e-20)
(0.655855 0.0924117 3.42914e-20)
(0.639042 0.0401756 2.3818e-21)
(0.751972 0.673649 8.14982e-20)
(0.812226 0.631273 2.17775e-20)
(0.863105 0.57878 -1.13259e-19)
(0.903062 0.517719 -1.39127e-19)
(0.930854 0.449888 1.1022e-19)
(0.945667 0.377313 -9.90874e-20)
(0.947182 0.302158 1.18317e-19)
(0.935596 0.226613 -3.10436e-20)
(0.911627 0.152778 -1.03955e-19)
(0.876467 0.0825351 -7.81471e-21)
(0.885841 0.75411 -6.1779e-21)
(0.957954 0.717747 2.01542e-21)
(1.02063 0.66906 7.51732e-20)
(1.07175 0.609528 7.6269e-20)
(1.10954 0.540943 1.75454e-19)
(1.13261 0.465397 6.30519e-20)
(1.14009 0.385214 -4.25454e-20)
(1.13166 0.302858 -9.38104e-20)
(1.10762 0.220818 7.60984e-20)
(1.06886 0.141482 5.23801e-21)
(0.967402 0.773922 2.158e-20)
(1.04536 0.745876 -5.13159e-20)
(1.1151 0.705005 -2.54121e-20)
(1.17425 0.652475 -1.44643e-19)
(1.22068 0.589768 -8.85596e-20)
(1.25264 0.518697 1.70494e-19)
(1.26877 0.441359 1.16146e-19)
(1.26824 0.360071 -9.78284e-20)
(1.25073 0.27729 4.54987e-21)
(1.21656 0.195506 -4.36911e-21)
(1.0156 0.757669 -5.80212e-20)
(1.09529 0.737399 9.86657e-20)
(1.16837 0.704858 -2.57525e-20)
(1.23237 0.660831 7.8358e-20)
(1.28507 0.606411 -5.47118e-20)
(1.32455 0.54303 -1.02688e-19)
(1.34918 0.472412 5.47765e-20)
(1.35772 0.396541 -5.79552e-20)
(1.34935 0.317603 -5.79081e-20)
(1.32376 0.237921 2.53945e-20)
(1.04345 0.722231 -1.04825e-20)
(1.12232 0.708247 1.79364e-20)
(1.19605 0.683141 -1.72115e-20)
(1.26216 0.647276 -1.48272e-19)
(1.31855 0.601381 8.54862e-20)
(1.36335 0.546529 1.71329e-20)
(1.39488 0.484071 -9.42963e-20)
(1.41169 0.415612 -3.4818e-20)
(1.41262 0.342979 3.26315e-20)
(1.39688 0.268184 -9.24259e-21)
(1.05954 0.678305 -1.26947e-20)
(1.13643 0.669051 4.86744e-21)
(1.20908 0.650093 2.36427e-20)
(1.27514 0.621293 8.37355e-20)
(1.33287 0.583089 2.12528e-20)
(1.38064 0.536295 5.40802e-20)
(1.41691 0.48196 1.151e-19)
(1.44023 0.421357 -4.92709e-20)
(1.44927 0.355959 4.61794e-20)
(1.44291 0.287427 -1.73861e-20)
(1.06939 0.632317 -1.29058e-20)
(1.14397 0.626869 1.88197e-20)
(1.21441 0.612927 1.82262e-20)
(1.27877 0.589882 -4.32707e-20)
(1.33589 0.558069 -2.84355e-20)
(1.38457 0.518186 -5.9266e-20)
(1.42349 0.471098 8.3754e-21)
(1.45131 0.417828 -1.40056e-20)
(1.46669 0.359557 -9.8331e-20)
(1.46836 0.297613 1.38364e-20)
(1.07716 0.588609 -2.01599e-21)
(1.14876 0.586719 -1.29707e-20)
(1.2158 0.576795 -1.54663e-20)
(1.27708 0.558112 9.52935e-21)
(1.33213 0.531206 -4.03105e-21)
(1.38015 0.496821 5.25633e-20)
(1.42004 0.45572 2.37854e-20)
(1.45059 0.408755 3.84316e-20)
(1.47052 0.356873 4.72375e-20)
(1.47853 0.301122 -2.03296e-20)
(1.08898 0.548793 -1.73848e-21)
(1.1557 0.548369 2.13101e-20)
(1.21727 0.540921 -5.97597e-20)
(1.27379 0.525316 -4.26193e-21)
(1.32534 0.50224 7.86103e-20)
(1.37126 0.472451 3.84918e-21)
(1.41056 0.436592 4.74556e-20)
(1.44215 0.395334 -1.05155e-19)
(1.46486 0.349401 -1.28513e-21)
(1.47745 0.299578 1.07913e-20)
(0.596934 0.192442 -8.19632e-21)
(0.556171 0.207938 2.88928e-21)
(0.509481 0.226442 9.56176e-22)
(0.456084 0.2491 -1.54599e-20)
(0.395055 0.277402 6.88335e-21)
(0.325886 0.312898 2.04213e-20)
(0.249002 0.356572 -1.90447e-20)
(0.166674 0.407469 -4.90272e-21)
(0.0871154 0.460136 -5.90291e-21)
(0.0323398 0.500194 -2.17048e-20)
(0.619333 0.250111 -2.25488e-20)
(0.580461 0.270426 4.75078e-20)
(0.5357 0.294192 -4.37873e-20)
(0.484589 0.322294 -7.43861e-21)
(0.426257 0.355748 1.2389e-20)
(0.360179 0.395136 -1.46034e-20)
(0.286669 0.439685 -4.13476e-20)
(0.207638 0.485513 4.80288e-20)
(0.130372 0.522396 -7.66849e-23)
(0.0748498 0.528284 2.19598e-20)
(0.649216 0.304963 -7.51599e-20)
(0.612953 0.329862 8.00041e-20)
(0.570814 0.358656 2.79126e-20)
(0.522739 0.391908 1.53379e-21)
(0.467861 0.430158 1.79503e-20)
(0.405509 0.473026 7.08364e-21)
(0.335659 0.518008 -1.17745e-20)
(0.259458 0.558386 -2.6028e-20)
(0.182541 0.579413 -1.90926e-20)
(0.121489 0.551984 2.81166e-20)
(0.686215 0.356007 -6.22201e-20)
(0.653192 0.385143 5.84378e-20)
(0.614303 0.4186 4.69833e-20)
(0.569951 0.456543 -3.21601e-20)
(0.519207 0.499034 -1.18824e-19)
(0.461129 0.544754 3.84289e-20)
(0.395134 0.58954 -2.76895e-20)
(0.321231 0.624012 7.58454e-20)
(0.242751 0.62934 6.6927e-20)
(0.171668 0.570325 -5.93082e-20)
(0.72981 0.402356 -4.46101e-20)
(0.700542 0.435276 2.0284e-20)
(0.665445 0.4729 -5.63369e-20)
(0.625405 0.51491 4.42851e-20)
(0.579362 0.560893 -2.13189e-20)
(0.525974 0.608636 -1.79585e-20)
(0.463894 0.65242 -1.80524e-20)
(0.391667 0.680471 -3.01716e-21)
(0.309765 0.670482 -2.65173e-20)
(0.224574 0.582444 -1.58287e-20)
(0.779321 0.44325 1.11921e-19)
(0.754181 0.479409 2.28497e-20)
(0.723305 0.520572 -7.6685e-20)
(0.688052 0.565857 7.18654e-20)
(0.64713 0.614403 3.30397e-20)
(0.59868 0.663155 5.36259e-20)
(0.540408 0.704986 -3.13745e-21)
(0.469119 0.726074 3.29628e-20)
(0.382016 0.701382 8.19462e-21)
(0.279223 0.587643 3.20536e-20)
(0.833871 0.478097 -1.21209e-19)
(0.813079 0.51685 1.40313e-19)
(0.786734 0.560788 -6.78779e-20)
(0.756607 0.608397 -3.82188e-20)
(0.721062 0.658409 5.66064e-22)
(0.677603 0.707002 -5.21495e-20)
(0.622836 0.745823 3.54546e-20)
(0.55163 0.759411 4.01314e-20)
(0.457668 0.720873 5.56491e-21)
(0.334492 0.585413 -2.39095e-20)
(0.892337 0.506567 -8.81846e-21)
(0.875953 0.547103 -5.45669e-20)
(0.854337 0.592871 2.3183e-20)
(0.829561 0.641691 -5.0401e-21)
(0.79948 0.69194 -1.84302e-20)
(0.760855 0.739098 9.30466e-21)
(0.709083 0.773795 -3.66983e-21)
(0.63699 0.779405 -7.90858e-21)
(0.534677 0.728128 5.83474e-21)
(0.389171 0.575459 -8.27624e-21)
(0.95331 0.528802 1.87374e-20)
(0.94126 0.57008 6.15406e-21)
(0.924578 0.616446 -3.89985e-20)
(0.905301 0.665148 3.00677e-20)
(0.880571 0.714256 -1.38207e-20)
(0.846378 0.758625 -2.85243e-21)
(0.796867 0.788087 -7.36406e-21)
(0.722812 0.785351 -1.91549e-21)
(0.610878 0.722699 -5.02819e-20)
(0.442027 0.557735 3.15923e-20)
(1.01344 0.542498 -2.47191e-20)
(1.0054 0.583677 1.80109e-20)
(0.994734 0.629972 -5.39118e-21)
(0.981571 0.677715 -2.93431e-21)
(0.96215 0.724582 -1.01744e-20)
(0.931887 0.764952 -5.07664e-21)
(0.883752 0.788198 6.97716e-21)
(0.806613 0.776926 3.58114e-20)
(0.684086 0.704506 4.75693e-20)
(0.491886 0.532403 7.19345e-21)
(0.770401 -0.318226 1.37883e-19)
(0.741245 -0.339594 -8.61017e-20)
(0.704177 -0.359056 3.27321e-20)
(0.658567 -0.371524 -7.46907e-20)
(0.599647 -0.372291 -4.89461e-20)
(0.521371 -0.35382 -7.59553e-20)
(0.416129 -0.305178 -9.24042e-20)
(0.274362 -0.211952 -4.23886e-20)
(0.0847406 -0.0558539 -5.88365e-20)
(-0.167202 0.186024 2.929e-20)
(0.727688 -0.284942 -8.27095e-20)
(0.697431 -0.304876 -6.85928e-20)
(0.658521 -0.323476 1.18527e-19)
(0.611237 -0.336189 5.83949e-20)
(0.551827 -0.338196 8.6822e-20)
(0.474982 -0.321929 -1.464e-19)
(0.37408 -0.276311 5.04635e-20)
(0.240976 -0.186446 1.03545e-19)
(0.0667228 -0.0328855 7.0715e-20)
(-0.158512 0.209631 -7.5552e-20)
(0.687676 -0.245382 3.90051e-20)
(0.655487 -0.263295 -1.59047e-20)
(0.614963 -0.280298 1.68353e-19)
(0.566121 -0.292275 -1.01502e-19)
(0.505937 -0.294456 -8.28662e-20)
(0.429955 -0.279452 4.77572e-20)
(0.332678 -0.236378 -6.73788e-22)
(0.20759 -0.150377 -2.0832e-19)
(0.0484752 -0.00169367 -8.4316e-21)
(-0.149263 0.235889 6.64752e-20)
(0.652672 -0.201468 2.58209e-19)
(0.618137 -0.216594 -1.20819e-19)
(0.575749 -0.230931 4.06492e-20)
(0.525188 -0.240913 -6.95173e-20)
(0.463938 -0.242 1.81743e-19)
(0.388358 -0.227148 -9.68465e-21)
(0.294097 -0.185941 -3.43196e-20)
(0.176347 -0.104073 5.27808e-21)
(0.0317951 0.0376275 1.72125e-20)
(-0.138629 0.264798 -8.67647e-20)
(0.623465 -0.153113 -2.23271e-19)
(0.586562 -0.164885 -2.4303e-21)
(0.542269 -0.175782 9.0882e-20)
(0.489977 -0.182772 -4.43728e-21)
(0.427564 -0.18166 -1.04411e-20)
(0.352129 -0.165903 1.19761e-19)
(0.260428 -0.125842 -2.24086e-20)
(0.149344 -0.0482336 2.7705e-20)
(0.0184607 0.0846002 5.36022e-21)
(-0.125802 0.296135 1.15725e-19)
(0.600666 -0.1007 8.22166e-21)
(0.561644 -0.108654 -1.31017e-19)
(0.515637 -0.115507 1.18219e-19)
(0.461802 -0.118697 -1.03886e-20)
(0.39834 -0.114439 2.00741e-20)
(0.323008 -0.0968275 -1.01138e-19)
(0.233583 -0.0572211 -1.51474e-20)
(0.128533 0.0160784 -7.58332e-21)
(0.0101525 0.138385 -5.30257e-20)
(-0.110018 0.329477 -2.51913e-20)
(0.584801 -0.044956 1.15168e-19)
(0.544096 -0.04868 -1.09872e-19)
(0.49675 -0.0509966 -5.21766e-21)
(0.441746 -0.0497288 -1.3061e-19)
(0.37755 -0.0415358 7.13704e-20)
(0.302486 -0.0212557 -4.52189e-20)
(0.215229 0.0185078 3.79701e-20)
(0.115637 0.0874791 -7.29132e-20)
(0.00837132 0.197821 -6.8405e-20)
(-0.0905973 0.36422 -4.90708e-20)
(0.576276 0.0132441 7.21735e-20)
(0.534469 0.0140838 -7.33596e-20)
(0.486298 0.0166882 3.25449e-20)
(0.430653 0.0229234 2.29547e-20)
(0.366214 0.0356736 -4.24346e-20)
(0.291771 0.0592718 7.29665e-20)
(0.206735 0.099685 4.44969e-20)
(0.112092 0.164301 -1.35322e-19)
(0.0143741 0.261469 2.2802e-20)
(-0.0669837 0.3996 5.90986e-20)
(0.575373 0.0729177 7.65796e-20)
(0.533151 0.0785573 -1.16304e-20)
(0.484775 0.0863531 -6.67122e-21)
(0.429136 0.0979144 -5.319e-22)
(0.365084 0.115663 2.85057e-20)
(0.291767 0.143043 -8.42514e-20)
(0.209142 0.184446 6.95089e-20)
(0.118995 0.244645 5.4192e-21)
(0.0291267 0.327661 -2.5501e-21)
(-0.0387711 0.434735 4.3215e-20)
(0.58225 0.133011 -2.22278e-20)
(0.540367 0.143575 -2.34045e-21)
(0.492472 0.156712 6.18163e-21)
(0.437568 0.173801 6.87682e-21)
(0.374636 0.1968 1.73443e-20)
(0.303056 0.228218 -1.25408e-20)
(0.223131 0.270774 -7.36575e-21)
(0.137081 0.32643 -1.14823e-20)
(0.0532769 0.394548 1.06297e-20)
(-0.00570863 0.468649 -7.77913e-21)
(0.830052 -0.351736 1.36249e-19)
(0.879832 -0.373902 -5.00633e-20)
(0.92557 -0.390668 1.30305e-20)
(0.96745 -0.400151 5.33357e-20)
(1.00559 -0.402524 2.72852e-20)
(1.0391 -0.398199 2.25485e-21)
(1.06662 -0.387384 2.71038e-21)
(1.08663 -0.370292 -2.08027e-21)
(1.09748 -0.347265 -1.3009e-21)
(1.09746 -0.318835 1.02558e-21)
(0.793751 -0.369215 6.28623e-20)
(0.845628 -0.390946 5.06446e-20)
(0.894235 -0.406184 4.69259e-20)
(0.938294 -0.413648 -1.38175e-20)
(0.977121 -0.413325 -1.19689e-20)
(1.00972 -0.405564 -9.59254e-21)
(1.03472 -0.390716 1.65835e-21)
(1.05059 -0.369253 3.03343e-21)
(1.0557 -0.341841 1.78089e-21)
(1.04853 -0.309397 -2.00739e-21)
(0.755138 -0.386231 -1.84909e-19)
(0.806999 -0.405557 1.84174e-20)
(0.856082 -0.417619 -8.9074e-20)
(0.900145 -0.42164 -1.37622e-20)
(0.937817 -0.417492 4.42993e-20)
(0.967778 -0.405489 1.34124e-20)
(0.988562 -0.386151 -1.44094e-21)
(0.998657 -0.360223 -1.15707e-21)
(0.996634 -0.328709 -7.10615e-21)
(0.98131 -0.292906 1.40019e-21)
(0.708719 -0.397183 -4.89714e-20)
(0.759146 -0.413878 -7.09981e-20)
(0.806626 -0.422177 -6.76365e-21)
(0.848594 -0.421859 -2.26883e-20)
(0.883161 -0.413011 -2.31555e-20)
(0.908689 -0.396129 -2.16901e-21)
(0.923643 -0.372 -2.58098e-21)
(0.926641 -0.3417 4.46613e-22)
(0.91657 -0.306601 7.30137e-21)
(0.892735 -0.268361 -1.63853e-21)
(0.648506 -0.395916 -1.05908e-19)
(0.69636 -0.409501 1.10726e-19)
(0.740471 -0.413627 6.04821e-21)
(0.77829 -0.408557 -5.03443e-21)
(0.807716 -0.394772 1.25759e-20)
(0.826998 -0.373103 3.95061e-21)
(0.834683 -0.344699 -5.587e-21)
(0.829661 -0.311008 8.86347e-21)
(0.81127 -0.273757 -1.38452e-21)
(0.779404 -0.2349 -6.68934e-22)
(0.567437 -0.374594 1.52294e-19)
(0.611108 -0.384602 -8.42516e-20)
(0.649947 -0.384523 -2.54631e-20)
(0.681582 -0.375041 -5.95363e-21)
(0.703992 -0.357072 -9.79304e-21)
(0.715562 -0.331848 4.08387e-21)
(0.715113 -0.300904 -5.28137e-21)
(0.701962 -0.26603 -3.33259e-21)
(0.675992 -0.229222 2.33564e-21)
(0.637719 -0.192584 3.00001e-21)
(0.456755 -0.322721 2.48117e-20)
(0.493819 -0.3294 1.51845e-20)
(0.525133 -0.326086 2.99309e-21)
(0.54862 -0.313832 -9.05096e-21)
(0.562554 -0.293947 2.81259e-20)
(0.565672 -0.268026 6.24595e-22)
(0.557235 -0.237902 7.19652e-22)
(0.537075 -0.205577 9.33475e-22)
(0.505633 -0.173132 3.21191e-21)
(0.463962 -0.142609 -2.28092e-21)
(0.305619 -0.226912 7.18284e-20)
(0.332749 -0.231941 5.07883e-20)
(0.35391 -0.228121 -8.5473e-20)
(0.367446 -0.216756 -1.58968e-20)
(0.372092 -0.199401 -2.64206e-20)
(0.367071 -0.177822 -1.55285e-21)
(0.352149 -0.153927 -8.1162e-21)
(0.327648 -0.129674 1.06103e-20)
(0.294443 -0.106961 -1.37859e-22)
(0.253903 -0.087511 4.84008e-21)
(0.100743 -0.0708434 -1.31491e-20)
(0.113262 -0.0784613 -8.51999e-20)
(0.120982 -0.0798225 6.37827e-20)
(0.122824 -0.0762077 -2.07289e-20)
(0.118084 -0.0690566 2.61973e-20)
(0.106492 -0.059922 -1.30485e-21)
(0.0882264 -0.0503881 -6.69149e-21)
(0.0639009 -0.041978 5.38846e-22)
(0.0345223 -0.0360623 -4.09946e-22)
(0.00140495 -0.0337858 -2.47209e-21)
(-0.176168 0.164781 -1.30741e-20)
(-0.185683 0.145875 4.47102e-20)
(-0.196336 0.128655 -1.84963e-20)
(-0.208454 0.112481 5.33578e-21)
(-0.222158 0.0966987 -5.40175e-21)
(-0.237361 0.0806495 -2.10167e-22)
(-0.253777 0.0637058 1.10877e-21)
(-0.270935 0.0453174 5.07161e-21)
(-0.28823 0.0250475 -2.40444e-21)
(-0.304973 0.00258278 -8.51898e-22)
(1.08493 -0.285797 1.63799e-21)
(1.05862 -0.249349 -7.94071e-21)
(1.0178 -0.211134 4.34333e-20)
(0.962629 -0.17328 -3.15346e-20)
(0.894255 -0.138336 3.7176e-21)
(0.814871 -0.109118 -3.19645e-20)
(0.727358 -0.0884162 1.60608e-19)
(0.634452 -0.0785755 8.08242e-21)
(0.534806 -0.08152 -4.78154e-20)
(0.416956 -0.0937098 1.0788e-19)
(1.02779 -0.27314 5.38186e-21)
(0.992684 -0.234702 -1.59989e-20)
(0.943186 -0.196081 -1.62104e-20)
(0.880154 -0.159599 -1.19532e-20)
(0.805421 -0.127756 -3.4362e-20)
(0.721605 -0.103001 -8.24149e-22)
(0.631604 -0.0873989 -1.05305e-20)
(0.537579 -0.08214 2.9577e-20)
(0.438376 -0.087069 9.53355e-20)
(0.328347 -0.0956847 -2.10163e-20)
(0.951881 -0.254416 -3.63516e-21)
(0.908225 -0.215197 3.20968e-20)
(0.851026 -0.177441 8.37297e-21)
(0.781841 -0.143464 -1.81082e-21)
(0.703039 -0.115512 3.74628e-20)
(0.617517 -0.0954863 1.62741e-20)
(0.528153 -0.0846003 3.15328e-20)
(0.436988 -0.0828917 -3.41408e-20)
(0.343956 -0.0886327 -6.80907e-20)
(0.247762 -0.0953552 -1.60013e-19)
(0.854947 -0.228894 4.45327e-21)
(0.803796 -0.190359 -1.41436e-20)
(0.740676 -0.154974 2.05134e-20)
(0.667727 -0.124869 -4.66265e-20)
(0.587694 -0.101876 -2.75903e-20)
(0.503591 -0.087271 -1.30508e-20)
(0.418227 -0.0814729 -6.61059e-20)
(0.333654 -0.0836995 -3.05638e-20)
(0.250728 -0.0916037 3.69636e-21)
(0.170317 -0.100016 4.95828e-20)
(0.734539 -0.196535 2.20335e-21)
(0.677945 -0.160849 -2.81853e-23)
(0.611604 -0.129899 1.35372e-20)
(0.538054 -0.105459 4.16298e-20)
(0.460191 -0.088837 -7.05272e-21)
(0.380958 -0.0806697 -6.15149e-20)
(0.302966 -0.0807212 1.03669e-19)
(0.228174 -0.0877001 -3.16036e-20)
(0.157823 -0.0991374 -2.37363e-20)
(0.093352 -0.111061 -1.11934e-20)
(0.588227 -0.158214 -6.0809e-21)
(0.529323 -0.128127 6.40974e-21)
(0.46336 -0.10403 2.12072e-20)
(0.393014 -0.0872149 -2.04233e-20)
(0.321086 -0.0784204 4.05163e-20)
(0.25024 -0.0777069 -4.94635e-21)
(0.182743 -0.0843553 3.88398e-21)
(0.120298 -0.0968126 2.6056e-20)
(0.0641089 -0.11272 2.0403e-20)
(0.015419 -0.128995 6.56621e-21)
(0.413588 -0.115889 9.01543e-22)
(0.356601 -0.0946028 -1.21961e-21)
(0.295441 -0.0799709 3.02898e-20)
(0.232632 -0.0727396 -3.62765e-20)
(0.170635 -0.0731128 -6.90702e-20)
(0.111658 -0.0807007 3.33222e-20)
(0.0575034 -0.0944964 -1.76475e-20)
(0.0095019 -0.112896 1.88521e-20)
(-0.0314061 -0.133785 5.3033e-20)
(-0.0643949 -0.15474 -5.74097e-20)
(0.207717 -0.0727717 -9.58579e-22)
(0.157932 -0.0638151 -1.89784e-20)
(0.106748 -0.0613093 2.6886e-20)
(0.0562614 -0.0654846 1.65942e-20)
(0.00838617 -0.0761214 -5.06477e-20)
(-0.0352518 -0.0925591 -3.98154e-20)
(-0.0733826 -0.113715 -2.83013e-21)
(-0.105099 -0.138128 6.21665e-21)
(-0.129789 -0.164039 7.99338e-21)
(-0.147009 -0.189565 -2.23991e-20)
(-0.0339793 -0.036002 1.61685e-21)
(-0.0700074 -0.0431021 2.62452e-20)
(-0.105069 -0.0552585 1.07969e-20)
(-0.137738 -0.0723159 -3.55396e-20)
(-0.166804 -0.0938219 3.52142e-20)
(-0.1913 -0.119071 -4.61878e-20)
(-0.210515 -0.147135 6.0614e-20)
(-0.223964 -0.176891 -7.28811e-20)
(-0.231342 -0.207066 -3.85969e-20)
(-0.232468 -0.236336 -1.03852e-19)
(-0.320417 -0.0222912 -4.58793e-22)
(-0.333842 -0.0492301 -7.63535e-21)
(-0.344628 -0.0781527 5.66395e-21)
(-0.352254 -0.108774 6.74725e-21)
(-0.356331 -0.140696 -1.52498e-20)
(-0.356604 -0.173451 1.50409e-20)
(-0.35292 -0.20652 -1.84135e-20)
(-0.345203 -0.239332 1.4275e-20)
(-0.333434 -0.271281 -3.62692e-20)
(-0.317614 -0.301759 4.00349e-20)
(-0.297655 -0.330144 5.73011e-20)
(-0.227319 -0.263494 -4.30258e-20)
(-0.156473 -0.213111 -4.47042e-20)
(-0.0885301 -0.173731 6.01319e-20)
(-0.0237152 -0.142874 -5.5215e-21)
(0.0384938 -0.119191 7.16863e-20)
(0.0982616 -0.101406 8.19486e-21)
(0.155811 -0.0886401 -6.44809e-20)
(0.212456 -0.0809697 1.19177e-19)
(0.267428 -0.0752554 -1.64542e-20)
(-0.274207 -0.35555 -6.05122e-20)
(-0.216394 -0.287546 1.65883e-19)
(-0.158346 -0.233778 -6.91704e-21)
(-0.103262 -0.190231 -5.49063e-20)
(-0.051296 -0.154749 4.36022e-20)
(-0.00182978 -0.125947 -9.93204e-20)
(0.0455118 -0.102461 1.145e-19)
(0.0913349 -0.0833175 -9.69295e-20)
(0.137138 -0.0687634 1.73879e-20)
(0.181255 -0.0582114 7.58254e-20)
(-0.247662 -0.377863 3.47243e-20)
(-0.200424 -0.308043 -1.04498e-19)
(-0.15349 -0.25111 3.6304e-20)
(-0.109574 -0.204065 -2.01126e-20)
(-0.0686225 -0.165056 3.71983e-20)
(-0.0298722 -0.132798 -2.78287e-20)
(0.00721221 -0.106115 -2.64921e-20)
(0.0432907 -0.0842906 3.59401e-20)
(0.079354 -0.0676022 -8.39605e-20)
(0.113393 -0.0559283 1.26128e-19)
(-0.218494 -0.396876 -7.40965e-20)
(-0.180325 -0.324692 8.10814e-21)
(-0.143124 -0.264801 3.80437e-20)
(-0.10898 -0.214939 5.15826e-20)
(-0.0776048 -0.173456 -7.88707e-20)
(-0.0481523 -0.139122 6.55829e-21)
(-0.0200554 -0.110875 -4.41397e-20)
(0.00723967 -0.0880894 -9.27793e-20)
(0.0343417 -0.0708457 1.7683e-19)
(0.0595492 -0.0588621 6.77566e-20)
(-0.18723 -0.412444 5.19028e-20)
(-0.157067 -0.337343 1.18563e-20)
(-0.128509 -0.274679 4.63278e-20)
(-0.102975 -0.222591 -5.6771e-21)
(-0.0799575 -0.179463 6.13813e-20)
(-0.0585736 -0.143998 3.01631e-20)
(-0.0382834 -0.115085 7.72786e-20)
(-0.0186603 -0.0919891 -7.85621e-20)
(0.000664574 -0.0744746 -8.14295e-21)
(0.0183879 -0.0620697 -8.85089e-20)
(-0.1544 -0.42451 3.4357e-20)
(-0.131573 -0.346004 -4.05462e-20)
(-0.110812 -0.280754 -9.141e-21)
(-0.0929005 -0.226954 -1.58742e-20)
(-0.0771562 -0.182836 -1.7431e-20)
(-0.0627033 -0.146903 -2.22202e-20)
(-0.0490644 -0.117879 3.62233e-20)
(-0.0359347 -0.0948302 -4.84659e-20)
(-0.0231091 -0.0772048 4.37566e-20)
(-0.0115592 -0.0643749 5.77222e-21)
(-0.120497 -0.433091 -5.96865e-20)
(-0.104667 -0.350842 -3.01258e-20)
(-0.0910341 -0.283243 5.23199e-20)
(-0.0798605 -0.228213 -1.95159e-20)
(-0.0703572 -0.183655 2.897e-20)
(-0.0617041 -0.147761 -8.77561e-20)
(-0.0535178 -0.119019 6.70284e-20)
(-0.0456146 -0.0962688 -2.51758e-20)
(-0.037922 -0.0786951 4.5582e-20)
(-0.0311884 -0.0655486 -5.50007e-20)
(-0.0859708 -0.438283 2.75113e-20)
(-0.0770386 -0.352171 -1.18218e-20)
(-0.0699763 -0.28256 -1.82648e-20)
(-0.0646956 -0.226799 -7.32256e-21)
(-0.0603962 -0.182309 4.03889e-21)
(-0.0563716 -0.146896 1.22059e-20)
(-0.0523693 -0.118766 -3.01116e-20)
(-0.0483394 -0.096533 1.83316e-20)
(-0.0443372 -0.0791754 5.63612e-20)
(-0.0410043 -0.065848 -5.44915e-20)
(-0.0512093 -0.440258 2.05636e-20)
(-0.0492328 -0.350429 5.7086e-23)
(-0.0482306 -0.279275 2.83257e-20)
(-0.0479922 -0.223336 -2.44676e-20)
(-0.0478243 -0.179433 7.5626e-21)
(-0.0472023 -0.14493 -8.45902e-21)
(-0.0460503 -0.117729 -4.82702e-21)
(-0.0444758 -0.0962313 -2.80821e-20)
(-0.0426676 -0.0792477 3.06317e-20)
(-0.0412741 -0.0658576 3.19667e-20)
(-0.0165123 -0.439239 -3.62826e-21)
(-0.0216256 -0.346135 -3.09093e-21)
(-0.0261769 -0.274062 -2.78916e-21)
(-0.0300944 -0.218575 -1.06923e-20)
(-0.032934 -0.17581 1.15514e-20)
(-0.0344341 -0.142659 4.22647e-21)
(-0.0347483 -0.116716 -9.05928e-21)
(-0.0341696 -0.0961732 5.58931e-22)
(-0.0330301 -0.079703 -5.49513e-21)
(-0.0320934 -0.0663243 -3.80976e-22)
(-0.0123729 -0.0324991 -1.12873e-21)
(-0.00300133 -0.0278818 -1.12913e-21)
(0.0501524 -0.021856 2.53931e-21)
(0.100959 -0.0204761 -1.70332e-21)
(0.164807 -0.022532 -5.59073e-22)
(0.227613 -0.0288464 -1.08345e-21)
(0.290454 -0.0396022 3.85202e-22)
(0.348819 -0.0526644 -4.89015e-22)
(0.40108 -0.0639694 2.48486e-22)
(0.4459 -0.068085 4.63173e-23)
(0.484748 -0.0589387 -2.62587e-22)
(0.521368 -0.0338395 5.91529e-23)
(0.558083 0.00400321 -5.87501e-23)
(0.597562 0.0377758 -1.24163e-22)
(0.639424 0.0498477 2.05413e-23)
(0.693826 0.0267626 -4.00545e-23)
(0.738862 -0.0164819 1.51704e-23)
(0.791707 -0.0528188 9.29043e-24)
(0.8001 -0.0753755 -1.15613e-23)
(0.858901 -0.0381346 1.24906e-23)
(0.0216934 -0.0346801 5.26018e-21)
(0.0329311 -0.0387808 3.95468e-21)
(0.0889696 -0.0352712 -3.74737e-21)
(0.14033 -0.0348151 2.07775e-21)
(0.203547 -0.036591 -4.06305e-21)
(0.265195 -0.0417457 -1.4716e-22)
(0.326189 -0.0509454 -3.82368e-22)
(0.381993 -0.0621675 -7.49755e-22)
(0.430762 -0.0716118 5.14191e-22)
(0.471137 -0.0741462 1.65073e-22)
(0.504688 -0.0640131 6.73125e-23)
(0.535875 -0.0384756 4.86267e-22)
(0.568164 -0.000545701 -5.2015e-22)
(0.605851 0.0332258 -1.00003e-22)
(0.648534 0.0449179 8.31302e-23)
(0.705168 0.0220835 6.16694e-23)
(0.75126 -0.0206158 -1.27887e-22)
(0.802773 -0.0552405 1.35264e-22)
(0.808902 -0.0776128 2.76572e-23)
(0.862336 -0.0401401 -2.80578e-23)
(0.0688151 -0.0391242 -1.81777e-20)
(0.082411 -0.0504971 2.43914e-21)
(0.141219 -0.0489246 1.75609e-20)
(0.192266 -0.0489105 -8.84478e-21)
(0.253441 -0.0501707 -1.25689e-21)
(0.312502 -0.0540431 -4.03701e-21)
(0.370277 -0.0615983 2.66986e-23)
(0.422358 -0.0709288 -1.55437e-21)
(0.466744 -0.0784962 -5.17004e-22)
(0.502071 -0.079478 -4.07489e-22)
(0.529938 -0.0684482 -6.79768e-23)
(0.55535 -0.0426441 4.9349e-23)
(0.582791 -0.00486842 5.05122e-22)
(0.618121 0.0286837 -2.22643e-22)
(0.660956 0.0399108 -1.93845e-22)
(0.718945 0.0173905 2.0243e-22)
(0.765373 -0.0246253 -4.71947e-23)
(0.814976 -0.0574647 -6.66488e-23)
(0.818747 -0.0795702 -1.04562e-22)
(0.866547 -0.041964 -4.2273e-23)
(0.129096 -0.0462368 -4.94244e-21)
(0.145145 -0.0628958 1.92687e-20)
(0.205872 -0.0625278 -9.0583e-21)
(0.255444 -0.0624177 -4.9422e-21)
(0.313062 -0.0629349 3.94938e-21)
(0.368114 -0.065453 -7.7729e-22)
(0.421379 -0.0713388 1.73346e-21)
(0.468695 -0.0787939 -6.70308e-22)
(0.507952 -0.0845283 1.63261e-21)
(0.53779 -0.0840275 7.22052e-22)
(0.559768 -0.0722053 -1.55244e-21)
(0.579257 -0.0462972 2.03898e-22)
(0.6016 -0.00889771 -4.30356e-23)
(0.634098 0.0242324 3.55328e-22)
(0.676438 0.0349177 9.50703e-23)
(0.734906 0.0127623 -1.50698e-22)
(0.780959 -0.0284582 -1.27477e-22)
(0.828113 -0.05947 -1.95176e-22)