/*--------------------------------*- C++ -*----------------------------------*\
  =========                 |
  \\      /  F ield         | OpenFOAM: The Open Source CFD Toolbox
   \\    /   O peration     | Website:  https://openfoam.org
    \\  /    A nd           | Version:  6.0
     \\/     M anipulation  |
\*---------------------------------------------------------------------------*/
FoamFile
{
    version     2.0;
    format      ascii;
    class       volVectorField;
    location    "6.50025";
    object      U;
}
// * * * * * * * * * * * * * * * * * * * * * * * * * * * * * * * * * * * * * //

dimensions      [0 1 -1 0 0 0 0];

internalField   nonuniform List<vector> 
19200
(
(0.270121 -9.67845 -1.92035e-20)
(0.122736 -9.18572 9.12531e-21)
(0.128485 -8.78522 4.23678e-21)
(0.152155 -8.45355 3.76068e-21)
(0.170121 -8.17197 4.16313e-21)
(0.190093 -7.92547 2.54672e-22)
(0.211912 -7.70316 6.80609e-22)
(0.234038 -7.49735 -4.26955e-22)
(0.255732 -7.30272 5.03463e-21)
(0.276556 -7.11572 2.08166e-21)
(0.296198 -6.93408 9.14768e-24)
(0.314466 -6.75644 3.25885e-21)
(0.331269 -6.58208 5.31537e-21)
(0.346592 -6.41068 -3.59094e-21)
(0.36047 -6.24221 4.54275e-21)
(0.372975 -6.07679 3.87704e-21)
(0.384205 -5.91461 -3.63894e-21)
(0.394267 -5.7559 6.14874e-21)
(0.403279 -5.60088 -3.90474e-21)
(0.411359 -5.44975 1.94021e-21)
(0.418623 -5.30263 2.69777e-21)
(0.425184 -5.15962 -8.73202e-22)
(0.431144 -5.02074 1.17378e-21)
(0.436601 -4.88593 -1.35463e-21)
(0.44164 -4.7551 2.93824e-21)
(0.446332 -4.62808 6.96379e-22)
(0.450729 -4.50465 -4.67069e-22)
(0.454898 -4.38456 2.79399e-22)
(0.458931 -4.26754 6.55774e-22)
(0.462603 -4.15327 2.45271e-21)
(0.523334 -9.67023 -4.32369e-21)
(0.364112 -9.18804 2.79504e-20)
(0.359792 -8.79316 -1.4779e-20)
(0.375081 -8.46547 -2.00844e-20)
(0.385971 -8.18698 -9.02425e-21)
(0.399732 -7.94259 -6.41122e-21)
(0.415903 -7.72153 -1.29509e-20)
(0.432742 -7.51627 1.76433e-21)
(0.449374 -7.32165 -2.85708e-21)
(0.465278 -7.13423 -1.00721e-20)
(0.48009 -6.95187 -2.48749e-20)
(0.493594 -6.77331 1.20156e-20)
(0.505689 -6.59789 -4.47771e-21)
(0.516361 -6.42538 1.68977e-21)
(0.525653 -6.25577 -1.01036e-20)
(0.533647 -6.08924 -3.66985e-21)
(0.540449 -5.92599 4.25399e-22)
(0.546179 -5.76629 1.22994e-20)
(0.550964 -5.61037 -6.48758e-21)
(0.554928 -5.45842 -3.57518e-21)
(0.558194 -5.31059 -1.38095e-20)
(0.560877 -5.16696 3.53319e-21)
(0.563083 -5.02756 -2.19392e-21)
(0.564909 -4.89233 3.86114e-21)
(0.56644 -4.76117 -4.81011e-21)
(0.56774 -4.63388 -2.74472e-21)
(0.568858 -4.51025 9.00153e-22)
(0.569862 -4.39 1.37468e-21)
(0.570881 -4.27282 -2.43924e-21)
(0.571587 -4.15837 1.1299e-21)
(0.77634 -9.65595 -2.04346e-21)
(0.60541 -9.18433 5.72142e-21)
(0.59141 -8.79519 9.0739e-21)
(0.598621 -8.47166 6.97565e-20)
(0.602633 -8.19643 -4.01298e-20)
(0.610314 -7.95428 3.65349e-20)
(0.620916 -7.73458 -3.25775e-20)
(0.632502 -7.52996 1.73283e-20)
(0.644075 -7.33543 -1.62907e-20)
(0.655037 -7.14769 -1.63741e-21)
(0.66498 -6.9647 4.05365e-20)
(0.673668 -6.78531 6.68002e-21)
(0.680998 -6.60894 -1.84834e-20)
(0.686959 -6.43541 1.44458e-20)
(0.691604 -6.26479 5.35859e-24)
(0.695026 -6.09725 6.05396e-21)
(0.697345 -5.93306 4.31811e-21)
(0.698692 -5.77249 1.43873e-20)
(0.699201 -5.61577 -6.35067e-21)
(0.699007 -5.46312 -2.08022e-21)
(0.698238 -5.31469 -5.38609e-21)
(0.697013 -5.17057 2.37482e-20)
(0.69544 -5.03076 -1.97567e-20)
(0.693615 -4.89523 6.39634e-21)
(0.691621 -4.76384 1.45913e-20)
(0.689518 -4.63641 -1.182e-20)
(0.687347 -4.51269 1.57096e-20)
(0.685184 -4.39239 -1.69413e-21)
(0.683183 -4.27516 -1.76168e-21)
(0.680907 -4.16065 -1.1443e-20)
(1.02886 -9.63535 -6.90756e-20)
(0.846567 -9.17454 -6.00913e-20)
(0.82322 -8.79134 -7.3177e-20)
(0.822634 -8.47216 2.23735e-21)
(0.819968 -8.20032 4.45516e-21)
(0.821699 -7.96053 -8.11819e-20)
(0.826807 -7.74228 -4.00525e-20)
(0.833175 -7.5384 1.04098e-20)
(0.839691 -7.34405 -1.81859e-21)
(0.845688 -7.15607 1.75233e-20)
(0.850723 -6.97255 -6.90451e-20)
(0.854546 -6.79242 -4.25263e-20)
(0.857055 -6.6152 1.58764e-20)
(0.858247 -6.44077 3.10267e-20)
(0.858187 -6.26924 -3.59431e-20)
(0.856982 -6.10082 -5.58865e-21)
(0.854764 -5.9358 -2.09431e-20)
(0.851678 -5.77447 -9.78587e-21)
(0.84787 -5.61709 1.63124e-20)
(0.84348 -5.46386 -2.07761e-20)
(0.838643 -5.31495 1.79394e-20)
(0.833482 -5.17044 -2.12169e-20)
(0.828108 -5.03034 -1.65487e-20)
(0.822615 -4.89461 -1.17818e-20)
(0.817084 -4.76312 1.36002e-20)
(0.811572 -4.63565 -2.40329e-20)
(0.806109 -4.51196 2.48892e-21)
(0.800777 -4.39173 4.26342e-21)
(0.795757 -4.27456 -1.23235e-20)
(0.790489 -4.16012 2.49709e-21)
(1.28083 -9.60836 -4.09237e-20)
(1.08755 -9.1587 5.76867e-21)
(1.05515 -8.78163 5.06961e-20)
(1.04701 -8.46696 5.26739e-20)
(1.03785 -8.19865 3.77084e-20)
(1.03375 -7.96131 1.55154e-20)
(1.03344 -7.7446 9.45066e-21)
(1.03462 -7.54154 1.08046e-19)
(1.03608 -7.34744 -6.45921e-20)
(1.03709 -7.15931 1.8766e-21)
(1.03718 -6.97535 1.5384e-20)
(1.03609 -6.79459 6.53038e-20)
(1.03372 -6.61663 -4.41485e-20)
(1.03009 -6.44141 3.14563e-20)
(1.02526 -6.26908 -3.46045e-20)
(1.01938 -6.0999 5.90114e-20)
(1.01258 -5.93418 -1.73271e-20)
(1.00501 -5.77222 6.3471e-22)
(0.996845 -5.61428 2.7399e-20)
(0.988225 -5.4606 1.90131e-20)
(0.979291 -5.31132 -1.93617e-20)
(0.970172 -5.16655 2.59594e-20)
(0.960977 -5.02628 -1.17167e-20)
(0.951804 -4.89047 1.34994e-20)
(0.94273 -4.75898 1.48437e-20)
(0.933804 -4.6316 6.45136e-21)
(0.92505 -4.50805 1.96268e-20)
(0.916554 -4.38799 -7.10963e-21)
(0.908521 -4.27101 -2.37497e-21)
(0.900257 -4.15675 -1.072e-20)
(1.53208 -9.57494 -2.96588e-20)
(1.32826 -9.13675 -1.88961e-20)
(1.28709 -8.76605 -5.71627e-20)
(1.27162 -8.45604 -1.47932e-19)
(1.25614 -8.19137 4.96251e-20)
(1.24634 -7.95658 3.17983e-21)
(1.24067 -7.74148 7.26083e-22)
(1.23669 -7.53932 6.37572e-21)
(1.23309 -7.34557 -4.80966e-21)
(1.22909 -7.15738 -8.25728e-20)
(1.22419 -6.97307 3.46436e-20)
(1.21814 -6.79179 5.89037e-20)
(1.21085 -6.61319 2.00198e-22)
(1.20234 -6.4373 2.1454e-20)
(1.1927 -6.26429 5.25185e-20)
(1.18208 -6.09447 -3.59544e-20)
(1.17065 -5.92817 6.27008e-20)
(1.15856 -5.7657 -2.97263e-20)
(1.146 -5.60734 5.22658e-20)
(1.13312 -5.45332 -3.90654e-20)
(1.12007 -5.30381 1.72884e-20)
(1.10697 -5.15888 4.48774e-20)
(1.09394 -5.01856 2.36945e-21)
(1.08108 -4.88279 -4.12391e-20)
(1.06846 -4.75142 2.25794e-20)
(1.05612 -4.62423 6.84094e-21)
(1.04408 -4.50093 -7.28198e-21)
(1.03243 -4.38117 2.76545e-20)
(1.02139 -4.26449 9.64211e-21)
(1.01013 -4.15054 -9.15051e-21)
(1.78248 -9.53506 8.31795e-20)
(1.56857 -9.1087 -1.96264e-21)
(1.51892 -8.74457 -1.15849e-19)
(1.49635 -8.43938 2.36348e-20)
(1.47472 -8.17845 -3.23321e-20)
(1.45932 -7.9463 2.38904e-20)
(1.44836 -7.7329 -1.10855e-20)
(1.43925 -7.53172 9.29482e-20)
(1.43059 -7.33839 -9.97068e-20)
(1.42155 -7.15023 2.44287e-20)
(1.41163 -6.96567 -1.673e-20)
(1.40057 -6.78396 1.21828e-20)
(1.3883 -6.60484 -5.41078e-20)
(1.37485 -6.42839 -3.37359e-21)
(1.36035 -6.25483 8.54375e-20)
(1.34496 -6.0845 -5.87961e-20)
(1.32885 -5.91775 -3.67931e-20)
(1.31221 -5.7549 -2.63884e-20)
(1.29522 -5.59624 4.79667e-20)
(1.27805 -5.44202 1.01884e-20)
(1.26085 -5.29238 -4.65361e-20)
(1.24376 -5.14743 6.15496e-20)
(1.22688 -5.00718 -5.54084e-20)
(1.21033 -4.87156 3.6365e-20)
(1.19416 -4.74042 -2.06068e-20)
(1.17841 -4.61354 6.15045e-21)
(1.1631 -4.49062 9.82978e-21)
(1.1483 -4.37126 -4.41207e-20)
(1.13428 -4.25499 1.8892e-20)
(1.12004 -4.14148 2.92929e-22)
(2.03185 -9.48875 -8.13762e-20)
(1.80833 -9.07451 6.42236e-20)
(1.75051 -8.71718 -1.18094e-19)
(1.72105 -8.41694 2.24851e-19)
(1.69344 -8.15987 -6.26578e-20)
(1.67255 -7.93043 8.81977e-20)
(1.65636 -7.71882 6.87882e-20)
(1.64214 -7.51868 -1.23964e-20)
(1.62841 -7.32586 -1.73788e-20)
(1.61432 -7.13781 -5.55347e-23)
(1.59933 -6.9531 -6.63061e-20)
(1.58322 -6.77108 3.46171e-20)
(1.56592 -6.59156 -4.10771e-20)
(1.54749 -6.41467 -3.3074e-21)
(1.52808 -6.24069 -1.13568e-19)
(1.50786 -6.06998 3.71866e-20)
(1.48704 -5.9029 2.11092e-20)
(1.46581 -5.7398 -2.39657e-20)
(1.44436 -5.58098 -2.82703e-21)
(1.42288 -5.42667 -3.62055e-20)
(1.40152 -5.27704 -1.28594e-20)
(1.38042 -5.13219 1.05238e-21)
(1.3597 -4.99212 -3.10718e-20)
(1.33944 -4.85676 -4.58035e-20)
(1.31973 -4.72598 1.99575e-21)
(1.30059 -4.59952 6.42131e-21)
(1.28201 -4.47708 1.42375e-20)
(1.26409 -4.35826 -3.49952e-20)
(1.24711 -4.24251 2.96894e-20)
(1.22989 -4.12955 -5.4538e-20)
(2.28004 -9.43601 -2.011e-19)
(2.0474 -9.0342 2.34802e-19)
(1.98171 -8.68385 -2.4675e-19)
(1.9456 -8.38871 -6.62066e-20)
(1.91217 -8.13558 -4.19006e-20)
(1.8859 -7.90895 -4.55008e-20)
(1.86454 -7.69918 -1.04472e-19)
(1.84523 -7.50017 -9.06802e-21)
(1.82642 -7.30795 -4.16651e-20)
(1.80724 -7.1201 -8.53317e-21)
(1.78716 -6.93535 6.84404e-20)
(1.76595 -6.75312 -3.93828e-20)
(1.74357 -6.57331 -4.58387e-20)
(1.72011 -6.39611 -7.64535e-20)
(1.69574 -6.22184 1.60063e-19)
(1.67066 -6.05088 -6.10608e-20)
(1.64508 -5.88361 2.26699e-20)
(1.61923 -5.7204 -8.38614e-20)
(1.5933 -5.56154 3.22685e-20)
(1.56749 -5.40728 -1.30063e-20)
(1.54196 -5.25778 1.65154e-20)
(1.51684 -5.11314 -5.55664e-21)
(1.49226 -4.97338 5.08632e-20)
(1.46832 -4.83841 -1.79409e-20)
(1.44507 -4.70809 4.94119e-20)
(1.42254 -4.58217 -1.00382e-19)
(1.40072 -4.46033 6.38787e-20)
(1.3797 -4.34215 1.74213e-20)
(1.35978 -4.22705 3.25527e-20)
(1.3396 -4.11477 -9.63173e-20)
(2.52688 -9.37687 3.17587e-19)
(2.28562 -8.98774 -5.9688e-20)
(2.21238 -8.64457 1.05867e-19)
(2.16985 -8.35465 -2.9797e-20)
(2.13076 -8.10558 1.04603e-19)
(2.09921 -7.88182 9.82037e-20)
(2.07273 -7.67397 4.61842e-20)
(2.04835 -7.47616 -1.68216e-20)
(2.02446 -7.28461 -1.04598e-19)
(2.00016 -7.09707 1.5301e-19)
(1.97494 -6.91237 -1.13211e-20)
(1.94859 -6.73005 1.06313e-19)
(1.92109 -6.55008 3.82719e-20)
(1.89256 -6.3727 1.41031e-20)
(1.86319 -6.19826 2.18596e-20)
(1.83321 -6.02719 3.03055e-20)
(1.80285 -5.85987 4.98433e-20)
(1.77235 -5.69668 -1.4151e-20)
(1.74192 -5.53792 7.25249e-20)
(1.71176 -5.38384 3.30357e-20)
(1.68204 -5.2346 -6.8723e-20)
(1.6529 -5.0903 1.21231e-19)
(1.62447 -4.95096 -1.59299e-19)
(1.59684 -4.8165 1.49906e-19)
(1.57007 -4.68675 -4.94549e-20)
(1.54417 -4.56149 -2.01773e-20)
(1.51913 -4.44037 -5.08218e-21)
(1.49504 -4.32294 3.60702e-20)
(1.4722 -4.2086 1.2836e-20)
(1.4491 -4.09712 -1.48028e-20)
(2.7722 -9.31136 -1.80648e-19)
(2.52285 -8.93515 1.70028e-19)
(2.44238 -8.59934 -4.60907e-20)
(2.39364 -8.31477 1.31735e-19)
(2.34906 -8.06982 1.3015e-20)
(2.31233 -7.84901 2.74054e-20)
(2.28079 -7.64315 -2.22567e-19)
(2.25135 -7.44662 1.03681e-19)
(2.22237 -7.25583 1.4111e-19)
(2.19293 -7.06868 1.05886e-19)
(2.16254 -6.88414 -1.79752e-19)
(2.131 -6.70185 1.03995e-19)
(2.09834 -6.52184 -1.03373e-19)
(2.06469 -6.34441 7.03249e-20)
(2.03029 -6.16996 -1.17358e-19)
(1.99537 -5.9989 -8.6269e-20)
(1.9602 -5.83168 5.65153e-21)
(1.92503 -5.66864 -3.88442e-20)
(1.89008 -5.51012 6.93815e-20)
(1.85556 -5.35635 2.74307e-20)
(1.82165 -5.2075 -1.79797e-20)
(1.78849 -5.06367 -5.19143e-21)
(1.75621 -4.92486 2.07953e-20)
(1.7249 -4.79102 -6.96448e-20)
(1.69462 -4.66197 1.14961e-19)
(1.66537 -4.53748 -2.80859e-20)
(1.63713 -4.41719 -4.75225e-20)
(1.61 -4.30063 9.90855e-20)
(1.58428 -4.18716 1.3113e-20)
(1.55829 -4.07662 -1.32858e-20)
(3.01585 -9.2395 7.1364e-21)
(2.75892 -8.87645 -9.56217e-20)
(2.67154 -8.54815 -8.68186e-20)
(2.61684 -8.26903 -1.43007e-19)
(2.56692 -8.02829 4.98372e-21)
(2.52512 -7.81049 -1.01048e-19)
(2.48856 -7.6067 1.19578e-19)
(2.45408 -7.41152 -5.87807e-20)
(2.42 -7.22157 9.44511e-20)
(2.38539 -7.03492 -7.85939e-20)
(2.34979 -6.85066 -3.98571e-20)
(2.31302 -6.66851 2.16593e-20)
(2.27515 -6.48859 1.16325e-20)
(2.23636 -6.31125 -1.17031e-19)
(2.19688 -6.13691 6.8748e-20)
(2.157 -5.96602 -3.35346e-20)
(2.11699 -5.79902 9.52979e-20)
(2.07713 -5.63629 -3.11465e-20)
(2.03765 -5.47814 3.23755e-20)
(1.99876 -5.32481 7.95187e-21)
(1.96065 -5.17648 5.44253e-20)
(1.92348 -5.03324 -1.11496e-20)
(1.88736 -4.8951 8.86082e-20)
(1.85238 -4.76199 -9.84885e-20)
(1.8186 -4.63376 -3.31377e-20)
(1.78603 -4.51014 2.69718e-20)
(1.75462 -4.3908 -2.85008e-21)
(1.72449 -4.27522 -7.35562e-20)
(1.69594 -4.16274 3.76153e-20)
(1.66708 -4.05326 -4.18443e-20)
(3.25766 -9.16134 3.04083e-19)
(2.99367 -8.81163 7.92044e-20)
(2.89973 -8.49099 9.45974e-20)
(2.83929 -8.21743 1.26316e-19)
(2.7842 -7.98097 1.88849e-19)
(2.73741 -7.76625 -5.72417e-21)
(2.69589 -7.56458 2.74722e-20)
(2.65638 -7.37083 3.14167e-19)
(2.61718 -7.18181 9.0041e-20)
(2.57738 -6.99576 -7.52436e-20)
(2.53653 -6.81189 1.31496e-19)
(2.4945 -6.63001 2.17827e-20)
(2.45139 -6.45032 1.17001e-21)
(2.4074 -6.2732 3.10529e-20)
(2.36282 -6.09912 5.46717e-20)
(2.31795 -5.92854 -1.11489e-19)
(2.27309 -5.76192 9.46115e-20)
(2.22852 -5.59963 1.57527e-20)
(2.1845 -5.44198 9.08577e-20)
(2.14124 -5.28924 -4.92834e-20)
(2.09894 -5.14155 8.04623e-20)
(2.05775 -4.99902 -8.52313e-20)
(2.01779 -4.86167 8.19715e-20)
(1.97916 -4.72942 1.11637e-20)
(1.94192 -4.60211 -5.46689e-20)
(1.90604 -4.47948 -1.76074e-20)
(1.8715 -4.3612 1.0344e-19)
(1.8384 -4.24673 -1.56276e-20)
(1.80706 -4.13535 1.98805e-20)
(1.77539 -4.02706 -1.28752e-20)
(3.49747 -9.07691 3.05773e-20)
(3.22696 -8.74073 6.82209e-20)
(3.12678 -8.42788 2.76496e-19)
(3.06084 -8.15997 -4.49787e-19)
(3.00073 -7.92786 -4.3853e-20)
(2.94905 -7.71627 -4.79044e-20)
(2.90261 -7.51679 2.13201e-20)
(2.85809 -7.32454 2.77834e-20)
(2.81376 -7.13655 6.95143e-20)
(2.76874 -6.9512 -1.22945e-19)
(2.72261 -6.76783 -2.31447e-20)
(2.67528 -6.58635 6.78023e-20)
(2.62689 -6.40702 7.20826e-20)
(2.57768 -6.23027 -7.21422e-20)
(2.52797 -6.05659 -7.00923e-20)
(2.47809 -5.88647 1.14294e-19)
(2.42836 -5.72036 7.35734e-20)
(2.37907 -5.55866 -1.9278e-20)
(2.3305 -5.40167 -4.66045e-20)
(2.28287 -5.24963 8.25918e-21)
(2.23637 -5.10273 -1.05802e-19)
(2.19118 -4.96104 1.26887e-19)
(2.1474 -4.82459 -8.63708e-20)
(2.10514 -4.69331 -3.47288e-21)
(2.06444 -4.56703 5.63243e-20)
(2.0253 -4.44552 -1.74604e-20)
(1.98766 -4.32841 -5.24125e-20)
(1.95163 -4.21516 8.22616e-21)
(1.91755 -4.105 -2.15477e-21)
(1.88313 -3.99802 1.00874e-20)
(3.73511 -8.98627 -2.31405e-20)
(3.45862 -8.66376 -7.18441e-20)
(3.35254 -8.35882 -3.18301e-19)
(3.28133 -8.09663 1.14438e-19)
(3.21636 -7.86893 -3.41643e-20)
(3.15989 -7.66054 1.1254e-19)
(3.10857 -7.4633 8.23606e-21)
(3.05904 -7.27264 -1.26919e-19)
(3.00957 -7.08576 1.00922e-20)
(2.9593 -6.90122 -1.7126e-19)
(2.90786 -6.71847 -6.36048e-21)
(2.8552 -6.53752 4.07319e-20)
(2.8015 -6.35869 -6.99584e-20)
(2.74704 -6.18245 7.86658e-20)
(2.69218 -6.00932 -1.49616e-19)
(2.63726 -5.83981 -3.30985e-20)
(2.58265 -5.67437 8.94836e-20)
(2.52864 -5.5134 1.32232e-22)
(2.47551 -5.3572 -5.51754e-20)
(2.42352 -5.20602 1.49788e-19)
(2.37284 -5.06002 -8.02812e-20)
(2.32365 -4.9193 -1.06525e-19)
(2.27607 -4.78387 3.52396e-20)
(2.23019 -4.65368 -1.0198e-19)
(2.18607 -4.52855 -2.42685e-20)
(2.14369 -4.40825 -2.96524e-21)
(2.10298 -4.29243 -6.52311e-20)
(2.06408 -4.18051 7.81116e-20)
(2.02731 -4.07169 -2.75896e-20)
(1.99018 -3.96616 4.5569e-20)
(3.97043 -8.88947 -1.07781e-19)
(3.6885 -8.58075 -2.86971e-19)
(3.57685 -8.28383 1.37044e-19)
(3.50061 -8.02744 -1.29547e-19)
(3.43093 -7.80419 -9.49865e-20)
(3.36976 -7.59904 -5.4132e-20)
(3.3136 -7.40412 -1.98184e-19)
(3.25906 -7.21511 1.3394e-19)
(3.20445 -7.02944 -2.37513e-19)
(3.14891 -6.84581 -3.28049e-19)
(3.09213 -6.66381 4.29124e-20)
(3.0341 -6.48353 6.97411e-20)
(2.97506 -6.30534 -1.55525e-21)
(2.91533 -6.12976 -1.30799e-19)
(2.85529 -5.95733 3.04025e-20)
(2.79533 -5.78858 -1.16276e-19)
(2.73583 -5.62396 -8.27414e-20)
(2.67709 -5.46386 -4.89862e-20)
(2.61942 -5.3086 -9.25976e-21)
(2.56306 -5.15841 8.362e-20)
(2.50821 -5.01345 1.18235e-19)
(2.45503 -4.87382 -3.52236e-20)
(2.40367 -4.73953 -3.34758e-20)
(2.3542 -4.61054 6.50085e-20)
(2.30668 -4.48667 3.58763e-20)
(2.26109 -4.36771 -2.83992e-20)
(2.21736 -4.25328 -3.13765e-20)
(2.17563 -4.14281 3.63743e-21)
(2.13623 -4.03544 2.78019e-20)
(2.09646 -3.9315 -4.06755e-20)
(4.20325 -8.78655 -2.01072e-20)
(3.91643 -8.49175 3.60964e-19)
(3.79957 -8.20293 2.7521e-19)
(3.71852 -7.95239 2.12217e-19)
(3.64429 -7.73363 -1.37246e-19)
(3.57849 -7.53177 -2.73036e-20)
(3.51753 -7.33922 2.51715e-20)
(3.45801 -7.15195 1.69308e-19)
(3.39823 -6.96758 6.3051e-20)
(3.3374 -6.78499 9.49976e-20)
(3.27524 -6.60386 -2.08567e-19)
(3.21182 -6.42438 2.15958e-20)
(3.14741 -6.24698 8.3449e-20)
(3.08239 -6.07221 5.02262e-20)
(3.01717 -5.90063 1.03446e-19)
(2.95216 -5.73279 -7.08758e-20)
(2.88775 -5.56914 -6.46387e-20)
(2.82429 -5.41007 1.27564e-20)
(2.76208 -5.25589 1.3593e-19)
(2.70137 -5.10682 -2.18118e-19)
(2.64236 -4.96303 7.57972e-20)
(2.58522 -4.82462 -4.54766e-22)
(2.53008 -4.69159 1.40397e-19)
(2.47705 -4.5639 -6.07555e-20)
(2.42615 -4.44141 -3.3739e-21)
(2.37739 -4.32388 -3.79323e-20)
(2.33068 -4.21097 -3.33354e-20)
(2.28617 -4.10206 7.02712e-21)
(2.2442 -3.99627 -8.10498e-20)
(2.20186 -3.89404 1.20659e-19)
(4.43343 -8.67759 -3.92696e-19)
(4.14227 -8.39678 -2.18968e-19)
(4.02054 -8.11614 -5.54332e-19)
(3.93491 -7.8715 -2.48124e-19)
(3.85628 -7.65727 2.30083e-19)
(3.78594 -7.45873 -1.33514e-19)
(3.72021 -7.26862 -3.09952e-20)
(3.6557 -7.08316 -8.6279e-20)
(3.59074 -6.9002 1.4535e-19)
(3.5246 -6.71875 -1.33182e-19)
(3.45705 -6.53863 1.59007e-20)
(3.38821 -6.36009 -6.35894e-21)
(3.31841 -6.18362 -2.02751e-19)
(3.24808 -6.0098 -7.16911e-21)
(3.17766 -5.83924 5.38347e-20)
(3.10759 -5.67246 -5.77307e-21)
(3.03829 -5.50993 -2.01503e-19)
(2.97011 -5.35203 1.94746e-19)
(2.90337 -5.19908 -1.89365e-19)
(2.83832 -5.05128 7.35077e-20)
(2.77516 -4.90879 1.02989e-20)
(2.71408 -4.77171 4.14348e-21)
(2.6552 -4.64006 -7.57475e-20)
(2.59861 -4.5138 7.54828e-20)
(2.54437 -4.39278 -3.20905e-20)
(2.49247 -4.2768 3.46346e-20)
(2.44282 -4.16551 -1.84154e-19)
(2.39557 -4.05828 5.01148e-20)
(2.35109 -3.95418 5.33714e-20)
(2.30626 -3.8538 5.36899e-20)
(4.66081 -8.56264 7.62388e-19)
(4.36586 -8.2959 2.49004e-19)
(4.2396 -8.0235 1.43779e-19)
(4.14963 -7.78478 2.26897e-19)
(4.06673 -7.57511 -2.80502e-20)
(3.99193 -7.37994 1.66157e-19)
(3.92147 -7.19231 3.6537e-19)
(3.85198 -7.00875 -4.69601e-20)
(3.78183 -6.82729 1.98856e-20)
(3.71035 -6.64711 4.14597e-19)
(3.63738 -6.46813 3.85111e-19)
(3.5631 -6.29066 5.59547e-20)
(3.4879 -6.11528 -1.9927e-20)
(3.41224 -5.94258 -8.63999e-22)
(3.33662 -5.77317 2.83386e-19)
(3.26149 -5.60761 1.09345e-20)
(3.1873 -5.44636 2.95035e-19)
(3.11442 -5.28979 -3.78043e-20)
(3.04316 -5.1382 -6.2559e-20)
(2.97378 -4.9918 1.45193e-19)
(2.90651 -4.85075 -1.31582e-19)
(2.84149 -4.71513 -1.41253e-19)
(2.77888 -4.58497 -1.25331e-20)
(2.71877 -4.46023 -6.15879e-20)
(2.66121 -4.3408 9.32378e-20)
(2.6062 -4.22647 1.09146e-20)
(2.55364 -4.11691 -3.80136e-20)
(2.50372 -4.01147 2.09061e-20)
(2.45679 -3.90919 1.35924e-19)
(2.40955 -3.81081 1.90767e-20)
(4.88521 -8.44177 -1.31204e-19)
(4.58704 -8.18914 -2.50503e-19)
(4.45662 -7.92502 1.00795e-19)
(4.36252 -7.69226 -4.04214e-19)
(4.27549 -7.48716 1.88971e-19)
(4.19629 -7.29539 -3.4274e-19)
(4.12113 -7.11031 -2.21311e-19)
(4.04666 -6.92872 6.12016e-20)
(3.97131 -6.74888 5.77771e-20)
(3.89448 -6.57009 -2.87503e-19)
(3.81607 -6.39237 4.31949e-20)
(3.73634 -6.21614 4.63906e-20)
(3.65572 -6.04198 -1.51801e-19)
(3.57473 -5.87055 -5.94755e-20)
(3.4939 -5.70247 -3.94389e-20)
(3.41373 -5.53828 -3.93986e-20)
(3.33466 -5.37846 -1.62105e-19)
(3.25709 -5.22336 -1.0015e-19)
(3.18132 -5.07328 -2.1345e-20)
(3.10764 -4.92842 8.09347e-20)
(3.03626 -4.78893 1.08291e-19)
(2.96734 -4.65489 -1.17171e-19)
(2.90102 -4.52633 4.33723e-20)
(2.83741 -4.40323 -8.95052e-20)
(2.77656 -4.28548 8.30822e-20)
(2.71845 -4.1729 -1.09343e-19)
(2.66303 -4.06517 3.35951e-20)
(2.61047 -3.96164 -5.33062e-20)
(2.56116 -3.8613 -7.46709e-20)
(2.51161 -3.76506 -7.0317e-21)
(5.10651 -8.31505 -2.74157e-19)
(4.80568 -8.07658 -2.2417e-19)
(4.67144 -7.82077 -2.17008e-19)
(4.57343 -7.59395 -1.56597e-19)
(4.4824 -7.39343 4.80865e-19)
(4.39888 -7.20509 6.55808e-20)
(4.31904 -7.02263 2.00135e-19)
(4.23959 -6.8431 3.01645e-19)
(4.15903 -6.66497 1.42463e-19)
(4.07682 -6.48769 -1.88979e-19)
(3.99296 -6.31138 2.96587e-19)
(3.90776 -6.13653 8.66459e-20)
(3.82172 -5.96376 2.66563e-19)
(3.7354 -5.79376 3.01626e-20)
(3.64937 -5.62715 6.62493e-20)
(3.56416 -5.4645 2.15539e-20)
(3.48022 -5.30625 -1.24248e-21)
(3.39797 -5.15278 -7.87714e-21)
(3.31773 -5.00434 3.41319e-20)
(3.23977 -4.86116 1.14406e-19)
(3.16431 -4.72335 -1.26881e-19)
(3.09151 -4.59101 9.97023e-20)
(3.02151 -4.46417 3.33299e-21)
(2.95441 -4.34281 4.43559e-20)
(2.89028 -4.22683 8.03707e-20)
(2.82911 -4.11609 -1.38922e-20)
(2.77085 -4.0103 7.87362e-20)
(2.7157 -3.9088 1.12642e-19)
(2.66407 -3.81052 -1.22219e-19)
(2.61229 -3.71657 -6.753e-20)
(5.32453 -8.18256 7.96862e-19)
(5.02163 -7.95827 -8.24069e-20)
(4.88392 -7.71077 1.67497e-19)
(4.78221 -7.48989 3.03833e-19)
(4.6873 -7.29395 -8.599e-19)
(4.59951 -7.10908 9.10293e-20)
(4.51501 -6.92928 -3.18122e-19)
(4.43059 -6.75191 3.10661e-19)
(4.34481 -6.5756 -2.45511e-19)
(4.25722 -6.39996 1.28709e-19)
(4.16789 -6.2252 -4.6769e-19)
(4.07722 -6.05187 1.8731e-20)
(3.98575 -5.88065 -4.99093e-19)
(3.8941 -5.71224 2.23891e-19)
(3.80288 -5.54726 1.14544e-19)
(3.71264 -5.38629 1.71966e-19)
(3.62386 -5.22978 -1.86319e-19)
(3.53696 -5.07807 -1.44717e-20)
(3.45226 -4.93143 1.427e-20)
(3.37005 -4.79005 3.9646e-20)
(3.29053 -4.65406 -2.23323e-19)
(3.21388 -4.52353 -6.52072e-21)
(3.14021 -4.3985 -1.22689e-19)
(3.06965 -4.27897 -2.86978e-20)
(3.00226 -4.16487 -7.40693e-20)
(2.93806 -4.05606 -8.01723e-20)
(2.87698 -3.9523 -8.25595e-20)
(2.81927 -3.85292 1.36557e-19)
(2.76537 -3.75684 3.62818e-20)
(2.71145 -3.66533 -6.47495e-20)
(5.53914 -8.04437 -5.30448e-19)
(5.23476 -7.83428 1.82688e-19)
(5.09394 -7.59507 -3.06857e-19)
(4.98872 -7.38011 4.59084e-20)
(4.89002 -7.18874 4.85678e-19)
(4.79801 -7.00736 -2.44134e-19)
(4.70889 -6.83029 -2.49685e-19)
(4.61949 -6.65516 -2.1209e-19)
(4.52848 -6.4808 1.08951e-20)
(4.4355 -6.30693 1.33266e-19)
(4.3407 -6.13386 -9.48313e-20)
(4.24454 -5.96221 5.48639e-21)
(4.14765 -5.79269 2.07908e-19)
(4.05068 -5.62602 1.28706e-19)
(3.95429 -5.46284 3.59025e-20)
(3.85904 -5.30371 -1.12373e-19)
(3.76545 -5.14908 4.25087e-20)
(3.67392 -4.99928 9.17926e-20)
(3.58481 -4.85457 1.00903e-19)
(3.49837 -4.71512 -1.10404e-19)
(3.41483 -4.58106 1.6799e-20)
(3.33434 -4.45246 9.271e-20)
(3.25704 -4.32935 1.59464e-19)
(3.18303 -4.21175 4.09786e-20)
(3.1124 -4.09959 -1.61868e-19)
(3.04516 -3.99279 1.86932e-19)
(2.98127 -3.89114 -9.33208e-20)
(2.92102 -3.794 -1.10356e-19)
(2.86491 -3.70023 -6.74165e-20)
(2.80894 -3.61132 -8.30833e-20)
(5.75022 -7.90059 2.78535e-19)
(5.44496 -7.70468 -2.08727e-19)
(5.30137 -7.47372 8.05315e-20)
(5.19281 -7.26462 4.10243e-19)
(5.09041 -7.07782 1.09488e-19)
(4.99423 -6.89995 -9.28551e-20)
(4.90049 -6.72569 2.22597e-19)
(4.80612 -6.5529 5.31546e-20)
(4.70988 -6.38059 2.02875e-19)
(4.6115 -6.20862 1.10459e-19)
(4.51122 -6.0374 4.74146e-21)
(4.40958 -5.86759 6.7621e-20)
(4.30727 -5.69993 -2.12749e-20)
(4.20501 -5.53516 -1.85439e-19)
(4.10346 -5.37393 -2.70307e-20)
(4.00324 -5.2168 -5.39915e-20)
(3.90486 -5.06419 1.31401e-19)
(3.80875 -4.91644 1.32176e-19)
(3.71525 -4.77379 -1.49511e-19)
(3.62463 -4.63641 1.52448e-19)
(3.5371 -4.5044 3.20195e-19)
(3.45281 -4.37783 -2.0552e-19)
(3.37189 -4.25674 2.04302e-19)
(3.29445 -4.14113 -1.4295e-19)
(3.22058 -4.031 -1.98784e-20)
(3.1503 -3.92628 1.50408e-19)
(3.0836 -3.82681 -3.06266e-20)
(3.02082 -3.73198 1.11622e-19)
(2.96252 -3.64065 1.10132e-19)
(2.9046 -3.55451 -1.99562e-19)
(5.95766 -7.75128 -2.68368e-19)
(5.65214 -7.56954 1.18735e-19)
(5.50607 -7.34674 4.80721e-20)
(5.39432 -7.14345 -4.76689e-19)
(5.2883 -6.9612 -2.42922e-19)
(5.18799 -6.7869 1.79386e-19)
(5.08965 -6.6155 -4.92029e-19)
(4.99031 -6.44515 5.85461e-19)
(4.88883 -6.27503 -3.25696e-19)
(4.78505 -6.1051 3.85085e-20)
(4.67929 -5.93587 -6.15397e-20)
(4.57219 -5.76805 -1.77772e-19)
(4.46448 -5.60242 3.63534e-19)
(4.35694 -5.43971 1.34584e-19)
(4.25027 -5.28059 1.7285e-19)
(4.14511 -5.1256 3.55725e-21)
(4.04198 -4.97517 7.52022e-20)
(3.94133 -4.82961 -1.62284e-19)
(3.84349 -4.68915 3.40464e-20)
(3.74872 -4.55395 1.09593e-19)
(3.65723 -4.4241 -4.61544e-20)
(3.56918 -4.29966 7.41904e-20)
(3.48467 -4.18067 -1.45971e-19)
(3.40381 -4.06715 2.08584e-19)
(3.3267 -3.95909 4.76913e-20)
(3.25337 -3.85649 -1.30844e-19)
(3.18384 -3.75925 -1.11991e-19)
(3.1185 -3.66681 5.9677e-22)
(3.05801 -3.57802 1.52762e-19)
(2.99819 -3.49483 -3.35107e-20)
(6.16138 -7.59651 -7.37849e-20)
(5.8562 -7.42892 -4.86533e-19)
(5.70794 -7.21417 5.75664e-19)
(5.5931 -7.01662 3.83606e-19)
(5.48352 -6.83892 3.76562e-19)
(5.3791 -6.66822 1.01712e-19)
(5.27618 -6.49978 1.52989e-19)
(5.17187 -6.33197 7.60482e-20)
(5.06517 -6.16415 -3.01189e-19)
(4.95598 -5.99642 5.44875e-19)
(4.84476 -5.82934 -4.30242e-19)
(4.7322 -5.66367 -2.7414e-20)
(4.61912 -5.50021 6.18143e-20)
(4.50633 -5.33973 -2.66701e-19)
(4.39457 -5.18288 4.17796e-19)
(4.28452 -5.03019 7.84858e-20)
(4.1767 -4.88207 -1.74034e-19)
(4.07155 -4.73884 6.57566e-20)
(3.96942 -4.6007 -1.27173e-19)
(3.87056 -4.46779 -1.11262e-19)
(3.77516 -4.3402 -1.17309e-19)
(3.68337 -4.21799 2.65567e-20)
(3.5953 -4.10118 1.43305e-20)
(3.51104 -3.9898 -2.81021e-19)
(3.43069 -3.88386 -1.05544e-19)
(3.35429 -3.78341 6.83062e-20)
(3.28189 -3.68841 8.36701e-20)
(3.21392 -3.59838 -1.15144e-19)
(3.15118 -3.51221 -4.35751e-20)
(3.08947 -3.43212 3.53439e-21)
(6.36139 -7.43637 -6.54944e-20)
(6.0571 -7.28286 3.15199e-19)
(5.90683 -7.07603 -8.92727e-20)
(5.78898 -6.88413 -1.08498e-19)
(5.67589 -6.71098 -5.81492e-19)
(5.56739 -6.54395 -1.25044e-19)
(5.4599 -6.37855 2.35031e-19)
(5.35064 -6.2134 -1.53593e-19)
(5.23871 -6.04803 -1.60566e-20)
(5.12413 -5.88263 -3.04997e-20)
(5.00746 -5.71785 1.62583e-19)
(4.88947 -5.55449 -2.53681e-19)
(4.77104 -5.39339 -1.66975e-19)
(4.65304 -5.2353 1.93598e-19)
(4.53626 -5.08086 -1.08846e-19)
(4.42136 -4.93062 5.15561e-20)
(4.30889 -4.78496 9.84704e-21)
(4.19931 -4.64418 -4.351e-20)
(4.09295 -4.50847 1.57758e-19)
(3.99005 -4.37797 -1.43673e-19)
(3.8908 -4.25275 -1.14352e-19)
(3.79533 -4.13284 9.94134e-20)
(3.70373 -4.01828 -1.14387e-20)
(3.6161 -3.90909 -7.27112e-20)
(3.53251 -3.80531 6.38447e-20)
(3.45302 -3.707 -1.9652e-19)
(3.37769 -3.61423 1.1977e-19)
(3.30701 -3.5266 -1.93861e-21)
(3.24193 -3.44305 -1.22979e-19)
(3.17837 -3.36601 1.68868e-19)
(6.55801 -7.27109 2.55486e-19)
(6.25491 -7.13146 -6.16274e-19)
(6.10261 -6.9323 -5.0302e-20)
(5.98178 -6.74599 2.77763e-19)
(5.8652 -6.57742 -6.95951e-20)
(5.75266 -6.41411 -1.95987e-19)
(5.64062 -6.25186 8.90784e-20)
(5.52642 -6.0895 1.01819e-19)
(5.40927 -5.92671 7.97093e-21)
(5.28932 -5.7638 1.21882e-19)
(5.16722 -5.60148 3.84704e-19)
(5.04383 -5.44061 -1.34712e-19)
(4.92011 -5.28201 3.30918e-20)
(4.79695 -5.12647 -8.7106e-20)
(4.67519 -4.97461 3.31744e-19)
(4.5555 -4.82696 -5.9137e-20)
(4.43847 -4.6839 8.71725e-20)
(4.32452 -4.5457 -1.4556e-19)
(4.21399 -4.41255 7.84328e-20)
(4.10713 -4.28456 1.17583e-19)
(4.00409 -4.16178 1.97408e-20)
(3.90499 -4.04426 7.75003e-20)
(3.80991 -3.932 -6.33663e-20)
(3.71893 -3.82504 1.75805e-19)
(3.63212 -3.72343 -7.13011e-20)
(3.54952 -3.62726 2.58988e-19)
(3.47121 -3.53668 -7.47184e-20)
(3.39773 -3.45135 5.09374e-20)
(3.33024 -3.37028 -9.58594e-20)
(3.26494 -3.29642 1.63423e-19)
(6.75198 -7.10096 -5.63679e-19)
(6.44981 -6.97459 2.08698e-20)
(6.29513 -6.78284 -3.07705e-19)
(6.17126 -6.60213 5.46718e-20)
(6.05124 -6.43822 1.54708e-20)
(5.9347 -6.27876 -2.57881e-19)
(5.81814 -6.11977 -4.79264e-19)
(5.69902 -5.96033 2.35514e-19)
(5.57668 -5.80027 -3.30837e-19)
(5.45139 -5.64001 -1.71034e-19)
(5.32389 -5.48032 -9.58428e-20)
(5.19514 -5.32209 -7.41991e-20)
(5.06616 -5.16617 9.05781e-22)
(4.93791 -5.01333 -2.63848e-19)
(4.81124 -4.86421 1.68236e-19)
(4.68684 -4.7193 -2.76756e-19)
(4.56531 -4.57897 -6.93461e-20)
(4.44708 -4.44349 7.83565e-20)
(4.33247 -4.313 -3.13129e-20)
(4.22172 -4.18762 9.07809e-20)
(4.11497 -4.06737 6.90662e-20)
(4.01232 -3.95229 -1.72233e-19)
(3.91382 -3.84239 1.71814e-19)
(3.81954 -3.73767 -1.84757e-20)
(3.7295 -3.63821 -4.54765e-20)
(3.64375 -3.54413 -1.78872e-19)
(3.56236 -3.45559 -9.41537e-20)
(3.48587 -3.37226 1.73518e-19)
(3.4155 -3.29348 -5.71752e-20)
(3.34804 -3.22383 -5.31565e-20)
(6.94367 -6.92516 2.46681e-19)
(6.64164 -6.81141 2.32362e-20)
(6.48408 -6.62735 -5.9701e-20)
(6.35714 -6.45258 -1.21654e-20)
(6.2338 -6.29352 -1.03133e-19)
(6.11334 -6.13803 3.48879e-19)
(5.99231 -5.98243 -1.61504e-19)
(5.86831 -5.82604 1.05743e-19)
(5.7408 -5.66885 4.3486e-20)
(5.6102 -5.51139 1.5099e-19)
(5.47734 -5.35449 -5.63678e-20)
(5.34329 -5.19907 3.19112e-19)
(5.20911 -5.04599 -2.69576e-20)
(5.07583 -4.89602 2.00561e-19)
(4.94431 -4.74978 -3.32885e-19)
(4.81529 -4.60776 -2.36987e-20)
(4.68935 -4.4703 2.10553e-19)
(4.56692 -4.33764 -1.29471e-19)
(4.44833 -4.20994 5.28266e-20)
(4.33379 -4.08726 8.95477e-20)
(4.22342 -3.96963 -1.29371e-19)
(4.11732 -3.85705 1.42447e-19)
(4.0155 -3.74951 -1.31771e-19)
(3.918 -3.64703 2.88384e-20)
(3.8248 -3.54966 1.05384e-19)
(3.73591 -3.45752 7.24028e-20)
(3.65139 -3.37065 6.75733e-20)
(3.57152 -3.28872 4.96161e-20)
(3.49664 -3.21218 -1.33904e-19)
(3.42463 -3.14738 -5.19029e-20)
(9.94526 0.0126825 3.17991e-21)
(9.93603 -0.249321 3.09447e-20)
(9.92056 -0.509759 1.07537e-19)
(9.89906 -0.769046 5.86178e-20)
(9.87111 -1.0273 -1.25148e-19)
(9.83647 -1.28447 3.77801e-20)
(9.79514 -1.54045 -3.93192e-20)
(9.74712 -1.79511 -9.98461e-20)
(9.69244 -2.04828 5.30004e-20)
(9.63116 -2.29981 -6.14793e-20)
(9.56331 -2.54953 -6.11404e-20)
(9.48895 -2.79726 -1.31255e-19)
(9.40815 -3.04284 -3.78844e-19)
(9.32097 -3.2861 3.48796e-20)
(9.22749 -3.52689 -1.52424e-20)
(9.12778 -3.76503 -1.21675e-19)
(9.02193 -4.00037 2.56248e-19)
(8.91001 -4.23275 1.40841e-19)
(8.79211 -4.46202 2.68227e-19)
(8.66833 -4.68802 1.31109e-19)
(8.53876 -4.91062 -2.98526e-19)
(8.40349 -5.12967 1.21256e-20)
(8.26265 -5.34503 -5.69048e-19)
(8.11632 -5.55656 8.65473e-19)
(7.96463 -5.76414 -2.83742e-19)
(7.80769 -5.96767 -3.72435e-19)
(7.64564 -6.16704 -5.50347e-20)
(7.47863 -6.36223 -6.46702e-21)
(7.30677 -6.55329 -2.88792e-19)
(7.13068 -6.74033 5.07928e-19)
(9.83896 -0.125476 1.1877e-20)
(9.82281 -0.38379 1.72857e-20)
(9.79957 -0.640553 4.01681e-21)
(9.76969 -0.895948 -1.5279e-19)
(9.73318 -1.15002 -1.37061e-19)
(9.69 -1.40266 1.21005e-19)