/*--------------------------------*- C++ -*----------------------------------*\
| =========                 |                                                 |
| \\      /  F ield         | OpenFOAM: The Open Source CFD Toolbox           |
|  \\    /   O peration     | Version:  v1912                                 |
|   \\  /    A nd           | Website:  www.openfoam.com                      |
|    \\/     M anipulation  |                                                 |
\*---------------------------------------------------------------------------*/
FoamFile
{
    version     2.0;
    format      ascii;
    class       volScalarField;
    location    "25";
    object      p;
}
// * * * * * * * * * * * * * * * * * * * * * * * * * * * * * * * * * * * * * //

dimensions      [0 2 -2 0 0 0 0];


internalField   nonuniform List<scalar> 
9600
(
-41.3117
-36.0377
-32.8018
-30.0556
-27.5438
-25.273
-23.2144
-21.3401
-19.6322
-18.0767
-16.6608
-15.3724
-14.1997
-13.1321
-12.1591
-11.2713
-10.4603
-9.71811
-9.03706
-8.41506
-42.0529
-36.7621
-33.4911
-30.7032
-28.1473
-25.8334
-23.7345
-21.8234
-20.0825
-18.4979
-17.0564
-15.7454
-14.553
-13.468
-12.4796
-11.5781
-10.7548
-10.0011
-9.3093
-8.67834
-42.796
-37.4827
-34.1753
-31.3453
-28.7452
-26.3881
-24.2489
-22.3011
-20.5274
-18.9139
-17.447
-16.1138
-14.902
-13.7999
-12.7963
-11.8813
-11.0456
-10.2807
-9.57815
-8.93842
-43.5378
-38.1991
-34.8538
-31.9811
-29.3364
-26.936
-24.7565
-22.7722
-20.966
-19.3239
-17.832
-16.477
-15.2461
-14.1271
-13.1086
-12.1802
-11.3325
-10.5564
-9.84318
-9.19494
-44.2753
-38.9099
-35.5257
-32.6097
-29.9201
-27.4763
-25.2565
-23.2359
-21.3976
-19.7272
-18.2106
-16.8342
-15.5845
-14.449
-13.4159
-12.4744
-11.6149
-10.8277
-10.1041
-9.44766
-45.0065
-39.6135
-36.1899
-33.2299
-30.4951
-28.0079
-25.748
-23.6913
-21.8212
-20.123
-18.5822
-17.1847
-15.9167
-14.765
-13.7176
-12.7634
-11.8923
-11.0943
-10.3604
-9.69629
-45.7297
-40.3085
-36.845
-33.8406
-31.0605
-28.5298
-26.23
-24.1377
-22.2361
-20.5105
-18.9461
-17.528
-16.242
-15.0747
-14.0133
-13.0467
-12.1643
-11.3559
-10.612
-9.94056
-46.4433
-40.9937
-37.4898
-34.4407
-31.6151
-29.0411
-26.7017
-24.574
-22.6415
-20.8891
-19.3014
-17.8632
-16.5598
-15.3772
-14.3024
-13.3237
-12.4305
-11.6119
-10.8584
-10.1802
-47.146
-41.6677
-38.1233
-35.0292
-32.158
-29.5408
-27.1621
-24.9995
-23.0365
-21.2578
-19.6474
-18.1897
-16.8693
-15.6719
-14.5841
-13.5939
-12.6902
-11.8618
-11.0992
-10.4148
-47.8367
-42.3294
-38.7443
-35.6049
-32.6882
-30.028
-27.6103
-25.4132
-23.4204
-21.6158
-19.9834
-18.5066
-17.1698
-15.9581
-14.8578
-13.8565
-12.9429
-12.1052
-11.3338
-10.644
-48.5142
-42.9777
-39.3517
-36.1669
-33.2047
-30.5017
-28.0454
-25.8144
-23.7922
-21.9625
-20.3084
-18.8132
-17.4605
-16.2351
-15.1227
-14.1108
-13.1878
-12.3413
-11.5618
-10.8672
-49.1776
-43.6116
-39.9445
-36.7142
-33.7066
-30.9611
-28.4667
-26.2023
-24.1512
-22.2968
-20.6218
-19.1086
-17.7405
-16.5018
-15.3779
-14.3559
-13.424
-12.5693
-11.7822
-11.0836
-49.8262
-44.2303
-40.5219
-37.2459
-34.193
-31.4054
-28.8732
-26.5759
-24.4966
-22.6181
-20.9225
-19.3919
-18.0089
-16.7573
-15.6223
-14.5908
-13.6506
-12.7882
-11.9942
-11.2924
-50.4595
-44.8329
-41.083
-37.7614
-34.6633
-31.8338
-29.2643
-26.9346
-24.8275
-22.9255
-21.2099
-19.6621
-18.2645
-17.0005
-15.8548
-14.8142
-13.8661
-12.9968
-12.1966
-11.493
-51.0768
-45.4187
-41.6271
-38.2597
-35.1166
-32.2457
-29.6394
-27.2778
-25.1434
-23.2182
-21.4829
-19.9184
-18.5065
-17.2301
-16.0739
-15.0243
-14.0687
-13.1928
-12.3874
-11.6835
-51.6779
-45.9869
-42.1534
-38.7403
-35.5524
-32.6404
-29.9978
-27.6049
-25.4438
-23.4958
-21.7411
-20.16
-18.7338
-17.4452
-16.2784
-15.2197
-14.2565
-13.3742
-12.5638
-11.8586
-52.2638
-46.5374
-42.6613
-39.2025
-35.97
-33.0173
-30.339
-27.9153
-25.7279
-23.7576
-21.9837
-20.3861
-18.9456
-17.6446
-16.4672
-15.3996
-14.4292
-13.5409
-12.7246
-12.015
-52.839
-47.0713
-43.15
-39.6452
-36.3685
-33.3758
-30.6626
-28.2088
-25.9957
-24.0033
-22.2103
-20.5961
-19.1408
-17.8268
-16.6381
-15.5613
-14.584
-13.6902
-12.8691
-12.1638
-53.4056
-47.5882
-43.6179
-40.0673
-36.7476
-33.716
-30.9687
-28.4857
-26.2475
-24.2334
-22.4214
-20.79
-19.319
-17.9902
-16.7878
-15.6984
-14.7094
-13.8049
-12.9825
-12.309
-53.9418
-48.0803
-44.064
-40.4694
-37.1084
-34.0393
-31.2591
-28.7478
-26.4853
-24.45
-22.6191
-20.9704
-19.4829
-18.1376
-16.918
-15.8096
-14.7973
-13.8678
-13.0347
-12.3672
-59.2929
-59.2617
-59.1934
-59.1024
-58.988
-58.8477
-58.681
-58.4884
-58.2705
-58.0278
-57.7609
-57.4702
-57.1566
-56.8206
-56.4631
-56.0848
-55.687
-55.2713
-54.8405
-54.398
-52.957
-52.9544
-52.9192
-52.8569
-52.7683
-52.6528
-52.5107
-52.3428
-52.1496
-51.9318
-51.6901
-51.425
-51.1371
-50.8271
-50.4957
-50.1435
-49.7711
-49.3791
-48.968
-48.5358
-48.3337
-48.355
-48.3475
-48.3117
-48.2489
-48.16
-48.0455
-47.9062
-47.7425
-47.5551
-47.3447
-47.1117
-46.8566
-46.5802
-46.2828
-45.9649
-45.6268
-45.2686
-44.8899
-44.4889
-44.1269
-44.1657
-44.1782
-44.1641
-44.1242
-44.0596
-43.9709
-43.8587
-43.7236
-43.5659
-43.3864
-43.1855
-42.9637
-42.7215
-42.4593
-42.1773
-41.8759
-41.5548
-41.2139
-40.8523
-40.2404
-40.2888
-40.3137
-40.3143
-40.291
-40.2447
-40.176
-40.0854
-39.9734
-39.8406
-39.6873
-39.5141
-39.3215
-39.1098
-38.8795
-38.6308
-38.3637
-38.0783
-37.7744
-37.4513
-36.7521
-36.8045
-36.8357
-36.8448
-36.832
-36.7978
-36.743
-36.668
-36.5732
-36.4592
-36.3265
-36.1754
-36.0065
-35.8202
-35.6167
-35.3964
-35.1594
-34.9055
-34.6346
-34.3462
-33.6519
-33.7044
-33.7374
-33.7502
-33.7427
-33.7157
-33.6697
-33.605
-33.5223
-33.4219
-33.3043
-33.17
-33.0195
-32.8532
-32.6714
-32.4745
-32.2625
-32.0353
-31.7928
-31.5344
-30.9031
-30.9528
-30.9845
-30.9976
-30.9921
-30.9685
-30.9273
-30.8691
-30.7942
-30.7031
-30.5963
-30.4743
-30.3377
-30.1868
-30.0221
-29.8438
-29.6522
-29.4472
-29.2286
-28.9958
-28.4657
-28.511
-28.5396
-28.551
-28.5451
-28.5225
-28.4837
-28.429
-28.359
-28.2741
-28.1748
-28.0617
-27.9352
-27.7961
-27.6446
-27.4812
-27.3062
-27.1196
-26.921
-26.71
-26.3002
-26.3405
-26.3651
-26.3736
-26.3661
-26.343
-26.3048
-26.2519
-26.1848
-26.1039
-26.0097
-25.9029
-25.7841
-25.6538
-25.5127
-25.3611
-25.1996
-25.0282
-24.8467
-24.6545
-24.3697
-24.4048
-24.4251
-24.4303
-24.4206
-24.3962
-24.3578
-24.3055
-24.24
-24.1616
-24.0711
-23.9688
-23.8556
-23.7322
-23.5991
-23.4571
-23.3067
-23.1482
-22.9814
-22.8056
-22.6414
-22.6715
-22.6876
-22.6895
-22.6773
-22.6514
-22.6122
-22.56
-22.4953
-22.4187
-22.3306
-22.2317
-22.1228
-22.0045
-21.8779
-21.7436
-21.6025
-21.455
-21.3012
-21.1403
-21.0872
-21.1127
-21.125
-21.1238
-21.1092
-21.0816
-21.0414
-20.989
-20.9248
-20.8493
-20.763
-20.6667
-20.561
-20.4468
-20.3252
-20.1972
-20.0639
-19.926
-19.784
-19.637
-19.6834
-19.7049
-19.7136
-19.7095
-19.6927
-19.6636
-19.6226
-19.5698
-19.5059
-19.4312
-19.3463
-19.2519
-19.1487
-19.0378
-18.9201
-18.7972
-18.6703
-18.5407
-18.4096
-18.2758
-18.4103
-18.4281
-18.4337
-18.4271
-18.4084
-18.3779
-18.336
-18.283
-18.2192
-18.1452
-18.0614
-17.9686
-17.8674
-17.7588
-17.6443
-17.5251
-17.4035
-17.281
-17.16
-17.0393
-17.2513
-17.2658
-17.2686
-17.2598
-17.2394
-17.2078
-17.1652
-17.1119
-17.0484
-16.9749
-16.8921
-16.8004
-16.7007
-16.594
-16.4816
-16.3651
-16.2474
-16.1304
-16.0187
-15.9108
-16.1927
-16.2042
-16.2046
-16.1938
-16.1719
-16.1393
-16.0961
-16.0426
-15.9792
-15.9062
-15.8241
-15.7333
-15.6347
-15.529
-15.4178
-15.3027
-15.1871
-15.0737
-14.9699
-14.8735
-15.2225
-15.2317
-15.2302
-15.2179
-15.195
-15.1616
-15.1181
-15.0646
-15.0015
-14.929
-14.8475
-14.7575
-14.6596
-14.5545
-14.4435
-14.3285
-14.2131
-14.1012
-14.004
-13.9164
-14.3297
-14.3376
-14.3351
-14.3223
-14.2993
-14.2663
-14.2234
-14.171
-14.1092
-14.0383
-13.9585
-13.8704
-13.7742
-13.6708
-13.5608
-13.4461
-13.33
-13.2176
-13.1271
-13.0531
-13.509
-13.5137
-13.5086
-13.4941
-13.47
-13.4365
-13.394
-13.3424
-13.282
-13.213
-13.1356
-13.0501
-12.9567
-12.856
-12.7482
-12.6345
-12.5166
-12.3997
-12.3028
-12.2526
-53.1107
-53.6754
-54.2034
-54.717
-55.2132
-55.686
-56.1325
-56.5518
-56.9429
-57.3049
-57.6371
-57.939
-58.2104
-58.4509
-58.6598
-58.8373
-58.9841
-59.1014
-59.1912
-59.2554
-46.6436
-47.2138
-47.7564
-48.2771
-48.7755
-49.2492
-49.6966
-50.1173
-50.5104
-50.8754
-51.2117
-51.519
-51.7975
-52.0478
-52.2682
-52.458
-52.6176
-52.7474
-52.848
-52.9181
-42.0207
-42.5789
-43.1139
-43.626
-44.115
-44.5804
-45.0213
-45.437
-45.8269
-46.1904
-46.5265
-46.835
-47.1156
-47.3672
-47.5905
-47.7861
-47.9538
-48.0931
-48.2038
-48.2844
-37.9186
-38.4521
-38.9663
-39.4593
-39.9305
-40.3797
-40.8063
-41.2096
-41.5889
-41.9437
-42.2729
-42.5757
-42.8531
-43.1048
-43.3305
-43.5303
-43.7038
-43.8505
-43.9702
-44.0624
-34.2613
-34.7654
-35.2527
-35.7208
-36.1686
-36.5958
-37.002
-37.3863
-37.7481
-38.0869
-38.4032
-38.6967
-38.9658
-39.2108
-39.4319
-39.6286
-39.8008
-39.9482
-40.0708
-40.1683
-31.0809
-31.5542
-32.0123
-32.4529
-32.8746
-33.2772
-33.66
-34.0226
-34.3644
-34.6852
-34.9848
-35.2626
-35.518
-35.7511
-35.9623
-36.1512
-36.3173
-36.4604
-36.5807
-36.6781
-28.325
-28.7681
-29.1972
-29.61
-30.0053
-30.3825
-30.7413
-31.0811
-31.4016
-31.7023
-31.983
-32.2434
-32.4832
-32.7022
-32.8999
-33.0784
-33.2358
-33.3716
-33.4862
-33.5798
-25.9274
-26.3421
-26.7438
-27.1301
-27.5
-27.8528
-28.1881
-28.5054
-28.8045
-29.0849
-29.3466
-29.5893
-29.8128
-30.0171
-30.2022
-30.3664
-30.5134
-30.6405
-30.7476
-30.8353
-23.8298
-24.2187
-24.5951
-24.957
-25.3032
-25.6331
-25.9463
-26.2424
-26.5211
-26.7821
-27.0255
-27.2509
-27.4584
-27.6479
-27.8193
-27.9727
-28.1067
-28.2239
-28.3228
-28.4035
-21.9824
-22.3481
-22.7018
-23.0416
-23.3662
-23.6751
-23.9679
-24.2443
-24.504
-24.747
-24.9731
-25.1824
-25.3747
-25.55
-25.7083
-25.8494
-25.9733
-26.0803
-26.1707
-26.2441
-20.3441
-20.689
-21.0224
-21.3424
-21.6476
-21.9374
-22.2116
-22.4699
-22.7123
-22.9386
-23.1489
-23.3432
-23.5215
-23.6836
-23.8297
-23.9597
-24.0735
-24.1712
-24.2534
-24.3197
-18.8813
-19.2078
-19.5234
-19.8258
-20.1135
-20.386
-20.6432
-20.885
-21.1115
-21.3226
-21.5185
-21.6991
-21.8645
-22.0147
-22.1496
-22.2693
-22.3739
-22.4633
-22.5375
-22.5971
-17.5671
-17.8774
-18.1776
-18.4644
-18.7362
-18.993
-19.2347
-19.4615
-19.6734
-19.8707
-20.0533
-20.2215
-20.3752
-20.5145
-20.6393
-20.7498
-20.8458
-20.9274
-20.9944
-21.0482
-16.38
-16.6762
-16.9631
-17.2361
-17.4936
-17.7359
-17.9634
-18.1764
-18.3749
-18.5594
-18.7301
-18.8869
-19.03
-19.1594
-19.2751
-19.3772
-19.4656
-19.5405
-19.602
-19.6492
-15.3028
-15.587
-15.8627
-16.1233
-16.3677
-16.5966
-16.8109
-17.0109
-17.1971
-17.3699
-17.5295
-17.676
-17.8094
-17.9299
-18.0374
-18.1319
-18.2135
-18.2821
-18.3377
-18.3803
-14.3208
-14.5968
-14.8635
-15.1125
-15.3443
-15.5606
-15.7624
-15.9502
-16.1249
-16.2868
-16.4361
-16.5731
-16.6978
-16.8102
-16.9102
-16.9979
-17.0732
-17.1362
-17.1868
-17.2251
-13.4165
-13.6914
-13.9533
-14.1912
-14.4105
-14.6147
-14.8046
-14.981
-15.1448
-15.2966
-15.4366
-15.565
-15.6817
-15.7867
-15.88
-15.9616
-16.0314
-16.0893
-16.1355
-16.1699
-12.5691
-12.8484
-13.1117
-13.3405
-13.5482
-13.741
-13.9199
-14.086
-14.2403
-14.3834
-14.5154
-14.6364
-14.7464
-14.8453
-14.933
-15.0095
-15.0747
-15.1286
-15.1712
-15.2026
-11.7913
-12.062
-12.3263
-12.5504
-12.7483
-12.93
-13.0988
-13.2556
-13.4014
-13.5366
-13.6616
-13.7764
-13.8807
-13.9744
-14.0576
-14.13
-14.1916
-14.2424
-14.2823
-14.3114
-11.2076
-11.4565
-11.6826
-11.897
-12.0833
-12.2477
-12.4003
-12.5431
-12.6759
-12.7989
-12.9126
-13.0168
-13.1113
-13.1961
-13.271
-13.3358
-13.3906
-13.4353
-13.4697
-13.4939
-5.88096
-6.36803
-6.90239
-7.48111
-8.11067
-8.79853
-9.55243
-10.3819
-11.2992
-12.3199
-13.4646
-14.7601
-16.2415
-17.9547
-19.9596
-22.3345
-25.16
-28.4577
-32.4463
-38.4345
-6.14759
-6.64781
-7.19235
-7.78275
-8.42567
-9.12826
-9.8984
-10.7459
-11.6831
-12.7261
-13.8958
-15.2191
-16.7319
-18.4803
-20.5244
-22.9425
-25.8141
-29.1576
-33.1838
-39.1924
-6.4157
-6.9291
-7.48392
-8.08624
-8.74277
-9.46035
-10.247
-11.1127
-12.0702
-13.1359
-14.3307
-15.6824
-17.2269
-19.0108
-21.0944
-23.5557
-26.4728
-29.861
-33.9231
-39.9476
-6.68482
-7.21133
-7.77652
-8.39097
-9.06133
-9.7941
-10.5974
-11.4816
-12.4596
-13.5481
-14.7685
-16.1486
-17.725
-19.5447
-21.6678
-24.1722
-27.1347
-30.5675
-34.6665
-40.7117
-6.9545
-7.49404
-8.06969
-8.69648
-9.38087
-10.129
-10.9492
-11.852
-12.8508
-13.9622
-15.2082
-16.6171
-18.2256
-20.081
-22.2438
-24.7913
-27.7991
-31.2764
-35.4132
-41.4822
-7.22437
-7.77684
-8.36301
-9.00234
-9.70094
-10.4646
-11.3019
-12.2235
-13.243
-14.3777
-15.6495
-17.0871
-18.7278
-20.6192
-22.8217
-25.4123
-28.4652
-31.9869
-36.161
-42.2549
-7.49413
-8.05936
-8.6561
-9.30816
-10.0212
-10.8005
-11.6549
-12.5955
-13.636
-14.7939
-16.0916
-17.5581
-19.2311
-21.1584
-23.4006
-26.0343
-29.1322
-32.6978
-36.9086
-43.0276
-7.76353
-8.34132
-8.94865
-9.6136
-10.3411
-11.1363
-12.0079
-12.9675
-14.029
-15.2102
-16.5339
-18.0294
-19.7348
-21.698
-23.9799
-26.6564
-29.7989
-33.4081
-37.6548
-43.7987
-8.03241
-8.62251
-9.24041
-9.91839
-10.6605
-11.4715
-12.3605
-13.3391
-14.4216
-15.6262
-16.9758
-18.5003
-20.2379
-22.2371
-24.5585
-27.2776
-30.4644
-34.1165
-38.3984
-44.567
-8.30073
-8.90284
-9.53124
-10.2223
-10.9792
-11.806
-12.7122
-13.7098
-14.8133
-16.0412
-17.4167
-18.9701
-20.7399
-22.7748
-25.1355
-27.8969
-31.1275
-34.822
-39.138
-45.3308
-8.5686
-9.18232
-9.82107
-10.5253
-11.2968
-12.1394
-13.0628
-14.0792
-15.2037
-16.4546
-17.8559
-19.4381
-21.2399
-23.3104
-25.7101
-28.5133
-31.7872
-35.5233
-39.8724
-46.0887
-8.83631
-9.46112
-10.1099
-10.8272
-11.6132
-12.4714
-13.4118
-14.447
-15.5921
-16.866
-18.2928
-19.9035
-21.7371
-23.8428
-26.2811
-29.1258
-32.4423
-36.2193
-40.6002
-46.8393
-9.10432
-9.73952
-10.398
-11.128
-11.9283
-12.8018
-13.7589
-14.8125
-15.978
-17.2746
-18.7267
-20.3656
-22.2307
-24.3713
-26.8478
-29.7332
-33.0916
-36.9087
-41.3202
-47.5814
-9.37335
-10.0179
-10.6853
-11.4277
-12.2418
-13.1302
-14.1036
-15.1752
-16.3608
-17.6797
-19.1568
-20.8235
-22.7197
-24.8948
-27.4089
-30.3345
-33.734
-37.5902
-42.0311
-48.3135
-9.64413
-10.2966
-10.9718
-11.7259
-12.5533
-13.4561
-14.4453
-15.5346
-16.7397
-18.0806
-19.5822
-21.2764
-23.2032
-25.4122
-27.9634
-30.9284
-34.3682
-38.2627
-42.7317
-49.0346
-9.91756
-10.5758
-11.2574
-12.0222
-12.8622
-13.7787
-14.7833
-15.8897
-17.1141
-18.4764
-20.0021
-21.7233
-23.6802
-25.9226
-28.5102
-31.5138
-34.9929
-38.9248
-43.4209
-49.7437
-10.1934
-10.8543
-11.5404
-12.3151
-13.1671
-14.0971
-15.1166
-16.2397
-17.4828
-18.8662
-20.4155
-22.1631
-24.1496
-26.4247
-29.048
-32.0893
-35.6068
-39.5753
-44.0976
-50.4402
-10.4707
-11.1294
-11.8183
-12.6028
-13.4669
-14.41
-15.444
-16.5835
-17.845
-19.249
-20.8214
-22.5949
-24.6103
-26.9174
-29.5754
-32.6535
-36.2083
-40.2125
-44.7608
-51.1241
-10.742
-11.3929
-12.085
-12.8819
-13.7593
-14.7157
-15.7642
-16.9199
-18.1994
-19.6236
-21.2186
-23.0174
-25.061
-27.3993
-30.0912
-33.2049
-36.7957
-40.8345
-45.4092
-51.7969
-10.9885
-11.6248
-12.3361
-13.1535
-14.045
-15.0141
-16.0768
-17.2482
-18.5453
-19.9891
-21.6061
-23.4296
-25.5007
-27.8693
-30.5939
-33.7418
-37.3668
-41.4383
-46.0382
-52.4602
-1.54046
-1.79623
-2.14639
-2.5382
-2.96046
-3.41864
-3.91916
-4.46804
-5.07288
-5.74402
-6.49548
-7.34631
-8.3226
-9.46025
-10.8099
-12.4451
-14.4548
-16.899
-20.0832
-25.4838
-1.69108
-1.96295
-2.33104
-2.72837
-3.15373
-3.61695
-4.12405
-4.68068
-5.29457
-5.97633
-6.74024
-7.60567
-8.59913
-9.75705
-11.1305
-12.7938
-14.8358
-17.3146
-20.5303
-25.944
-1.83533
-2.13103
-2.51195
-2.91713
-3.34995
-3.82126
-4.33699
-4.90296
-5.52728
-6.2209
-6.99841
-7.87958
-8.89137
-10.0707
-11.4693
-13.1616
-15.2364
-17.7499
-20.9962
-26.418
-2.00137
-2.30773
-2.69662
-3.11029
-3.55205
-4.03261
-4.55806
-5.1345
-5.77037
-6.47692
-7.26909
-8.16704
-9.1982
-10.4
-11.8247
-13.5471
-15.6556
-18.2049
-21.4853
-26.9241
-2.17856
-2.49183
-2.88833
-3.31071
-3.76168
-4.25194
-4.78775
-5.37547
-6.02375
-6.74415
-7.55192
-8.46761
-9.51912
-10.7444
-12.1962
-13.9498
-16.0933
-18.68
-21.997
-27.4592
-2.36112
-2.68281
-3.0874
-3.51863
-3.9791
-4.4795
-5.02626
-5.62592
-6.28739
-7.02244
-7.84668
-8.78103
-9.85388
-11.1037
-12.5837
-14.3696
-16.5493
-19.1745
-22.5295
-28.018
-2.55061
-2.88156
-3.29416
-3.73425
-4.20448
-4.71543
-5.27366
-5.88587
-6.56117
-7.31162
-8.15314
-9.10703
-10.2021
-11.4775
-12.9868
-14.8061
-17.0231
-19.688
-23.0816
-28.5983
-2.74842
-3.0886
-3.50898
-3.95791
-4.43809
-4.95991
-5.53001
-6.15527
-6.845
-7.61152
-8.47105
-9.4453
-10.5636
-11.8654
-13.405
-15.2588
-17.5143
-20.2199
-23.6529
-29.1989
-2.95435
-3.30381
-3.73191
-4.18973
-4.68001
-5.21296
-5.79528
-6.43404
-7.13873
-7.92192
-8.80015
-9.79552
-10.9378
-12.267
-13.8379
-15.7272
-18.0221
-20.7694
-24.2426
-29.8188
-3.16782
-3.52685
-3.96278
-4.42957
-4.93012
-5.47445
-6.06933
-6.72199
-7.44213
-8.24255
-9.14013
-10.1573
-11.3244
-12.6819
-14.285
-16.2108
-18.5461
-21.3359
-24.85
-30.4569
-3.38842
-3.7574
-4.20128
-4.67716
-5.18817
-5.74415
-6.35191
-7.01887
-7.75492
-8.57312
-9.49064
-10.5304
-11.723
-13.1095
-14.7457
-16.7089
-19.0855
-21.9187
-25.4741
-31.1123
-3.61576
-3.99506
-4.44704
-4.93218
-5.45387
-6.02175
-6.64272
-7.32435
-8.07675
-8.91324
-9.85129
-10.9142
-12.133
-13.5494
-15.2196
-17.221
-19.6398
-22.5171
-26.1142
-31.7838
-3.84939
-4.23938
-4.69964
-5.19421
-5.72681
-6.30687
-6.94136
-7.63804
-8.40723
-9.26249
-10.2216
-11.3083
-12.5541
-14.0011
-15.7059
-17.7464
-20.2081
-23.1302
-26.7694
-32.4705
-4.0888
-4.48984
-4.95858
-5.46279
-6.00655
-6.59907
-7.24741
-7.9595
-8.74589
-9.62039
-10.6011
-11.7122
-12.9855
-14.4638
-16.2041
-18.2844
-20.7897
-23.7572
-27.4389
-33.1717
-4.33344
-4.74589
-5.22334
-5.73741
-6.2926
-6.89787
-7.56037
-8.28823
-9.09222
-9.98643
-10.9893
-12.1252
-13.4268
-14.9371
-16.7135
-18.8343
-21.3839
-24.3973
-28.1218
-33.8863
-4.58278
-5.00697
-5.49335
-6.01755
-6.58443
-7.20274
-7.87972
-8.6237
-9.44569
-10.36
-11.3855
-12.5469
-13.8773
-15.4201
-17.2334
-19.3954
-21.9899
-25.0498
-28.8173
-34.6137
-4.83626
-5.27252
-5.76806
-6.30263
-6.88148
-7.51314
-8.20491
-8.96536
-9.80572
-10.7406
-11.7891
-12.9765
-14.3362
-15.9122
-17.7629
-19.9666
-22.6067
-25.7136
-29.5247
-35.3533
-5.09335
-5.54196
-6.04688
-6.59209
-7.18321
-7.8285
-8.53537
-9.31262
-10.1717
-11.1276
-12.1996
-13.4134
-14.8029
-16.4126
-18.3013
-20.5473
-23.2333
-26.3877
-30.243
-36.1048
-5.35349
-5.81471
-6.32925
-6.88536
-7.48902
-8.14823
-8.87051
-9.66488
-10.5431
-11.5202
-12.6161
-13.8568
-15.2766
-16.9204
-18.8475
-21.1363
-23.8687
-27.0709
-30.9714
-36.8688
-5.6162
-6.09026
-6.61462
-7.18191
-7.7984
-8.47181
-9.20977
-10.0216
-10.9191
-11.918
-13.0381
-14.3061
-15.7565
-17.435
-19.4009
-21.7327
-24.5117
-27.7616
-31.707
-37.6461
-1.29561
-1.09277
-0.942405
-0.808969
-0.692051
-0.589097
-0.499
-0.420969
-0.354506
-0.299253
-0.254945
-0.221368
-0.198347
-0.185739
-0.183392
-0.191083
-0.208657
-0.236426
-0.274061
-0.321692
-1.6271
-1.44732
-1.29301
-1.15447
-1.03285
-0.92555
-0.831608
-0.750219
-0.680868
-0.623179
-0.57687
-0.541716
-0.51753
-0.504157
-0.501446
-0.509215
-0.527332
-0.555854
-0.59466
-0.643732
-1.96239
-1.79047
-1.63625
-1.49663
-1.37295
-1.26355
-1.16773
-1.0848
-1.01428
-0.955818
-0.909128
-0.873987
-0.850206
-0.837625
-0.836092
-0.845449
-0.865587
-0.896479
-0.93802
-0.99015
-2.34938
-2.17594
-2.01883
-1.87636
-1.7492
-1.6364
-1.53747
-1.45184
-1.3791
-1.31891
-1.27099
-1.23512
-1.2111
-1.19876
-1.19794
-1.2085
-1.23031
-1.26331
-1.30738
-1.36245
-2.77203
-2.59634
-2.43545
-2.28919
-2.15796
-2.04124
-1.93869
-1.84988
-1.77445
-1.7121
-1.66257
-1.62563
-1.60107
-1.58874
-1.58845
-1.60007
-1.62346
-1.65853
-1.70512
-1.76319
-3.22815
-3.04946
-2.88461
-2.7342
-2.59868
-2.47785
-2.3715
-2.27932
-2.20104
-2.13637
-2.08507
-2.04694
-2.02177
-2.00938
-2.00961
-2.02231
-2.04735
-2.08457
-2.13385
-2.19512
-3.72401
-3.54085
-3.37132
-3.21619
-3.07597
-2.95066
-2.84017
-2.74432
-2.66288
-2.59561
-2.54232
-2.50279
-2.47683
-2.46427
-2.46494
-2.47868
-2.50536
-2.5448
-2.59687
-2.66152
-4.26652
-4.07743
-3.90216
-3.74147
-3.59585
-3.46547
-3.35032
-3.2503
-3.16524
-3.09497
-3.0393
-2.99805
-2.97102
-2.95806
-2.95898
-2.97364
-3.00188
-3.04353
-3.09844
-3.16656
-4.86346
-4.66702
-4.4848
-4.31749
-4.1656
-4.02935
-3.90883
-3.80398
-3.71471
-3.64088
-3.58233
-3.5389
-3.5104
-3.49669
-3.49758
-3.51293
-3.54257
-3.58632
-3.64402
-3.71565
-5.52508
-5.31973
-5.12916
-4.95399
-4.79471
-4.65158
-4.52475
-4.41422
-4.31995
-4.24183
-4.17973
-4.1335
-4.10299
-4.08804
-4.08848
-4.10416
-4.13491
-4.18053
-4.24087
-4.31593
-6.26517
-6.04914
-5.84858
-5.66401
-5.49594
-5.34465
-5.21032
-5.093
-4.99269
-4.90931
-4.84277
-4.79292
-4.75964
-4.74277
-4.74215
-4.75761
-4.789
-4.83611
-4.89877
-4.97703
-7.10249
-6.87369
-6.66115
-6.46533
-6.28672
-6.12564
-5.98228
-5.85673
-5.74903
-5.65913
-5.58695
-5.53239
-5.49531
-5.47556
-5.47301
-5.48748
-5.5188
-5.56676
-5.63119
-5.71217
-8.06274
-7.81867
-7.59174
-7.38236
-7.19105
-7.01811
-6.86377
-6.72816
-6.61132
-6.51324
-6.43386
-6.3731
-6.33083
-6.30691
-6.30121
-6.31356
-6.34378
-6.39165
-6.45697
-6.5399
-9.18133
-8.91896
-8.6747
-8.44893
-8.24219
-8.05481
-7.88702
-7.73897
-7.61075
-7.50234
-7.41372
-7.34481
-7.2955
-7.26566
-7.25516
-7.26383
-7.29149
-7.33788
-7.40281
-7.48649
-10.5082
-10.2239
-9.95873
-9.71311
-9.48761
-9.28257
-9.09824
-8.9348
-8.79233
-8.67086
-8.57036
-8.49077
-8.43199
-8.3939
-8.37636
-8.37923
-8.4023
-8.44528
-8.50798
-8.59064
-12.1165
-11.8059
-11.5156
-11.246
-10.9977
-10.7712
-10.5666
-10.3841
-10.2239
-10.086
-9.97028
-9.87681
-9.80546
-9.75611
-9.72864
-9.7229
-9.73867
-9.77565
-9.83361
-9.9128
-14.0946
-13.753
-13.4329
-13.1349
-12.8596
-12.6073
-12.3783
-12.1729
-11.9911
-11.8329
-11.6984
-11.5875
-11.5001
-11.4361
-11.3954
-11.3779
-11.3834
-11.4115
-11.462
-11.5349
-16.5027
-16.1263
-15.7724
-15.4421
-15.1359
-14.8544
-14.5977
-14.366
-14.1593
-13.9777
-13.8211
-13.6897
-13.5832
-13.5017
-13.445
-13.413
-13.4055
-13.4224
-13.4634
-13.5275
-19.6491
-19.2336
-18.8416
-18.4754
-18.1355
-17.8218
-17.5345
-17.2734
-17.0385
-16.8299
-16.6476
-16.4914
-16.3615
-16.2577
-16.18
-16.128
-16.102
-16.102
-16.1278
-16.1775
-24.9922
-24.5324
-24.1064
-23.7114
-23.3452
-23.0067
-22.6957
-22.4118
-22.1552
-21.9258
-21.7235
-21.5486
-21.401
-21.2809
-21.1883
-21.1233
-21.0865
-21.0803
-21.106
-21.1533
-0.3791
-0.445976
-0.522277
-0.60791
-0.702781
-0.806773
-0.919746
-1.04153
-1.1719
-1.31059
-1.45722
-1.61127
-1.77195
-1.93804
-2.10792
-2.27932
-2.44777
-2.60351
-2.73115
-2.85643
-0.702979
-0.772073
-0.85094
-0.939459
-1.03751
-1.14497
-1.26167
-1.38741
-1.52196
-1.665
-1.81612
-1.97476
-2.14017
-2.31119
-2.4862
-2.66358
-2.84155
-3.01238
-3.16076
-3.32798
-1.05281
-1.12568
-1.20868
-1.30168
-1.40453
-1.51709
-1.63918
-1.77058
-1.91102
-2.06018
-2.21762
-2.38278
-2.55492
-2.73302
-2.91572
-3.10185
-3.29043
-3.47707
-3.65592
-3.85663
-1.42849
-1.50514
-1.59233
-1.68989
-1.79769
-1.91555
-2.04327
-2.18061
-2.32728
-2.48295
-2.64716
-2.81935
-2.99884
-3.18471
-3.3759
-3.57153
-3.7708
-3.97138
-4.17367
-4.39791
-1.83271
-1.91331
-2.00488
-2.10726
-2.22029
-2.34378
-2.47751
-2.62123
-2.77463
-2.93736
-3.10897
-3.28893
-3.47659
-3.67117
-3.87186
-4.07804
-4.2891
-4.50398
-4.72526
-4.96604
-2.26839
-2.35321
-2.4495
-2.55708
-2.67578
-2.80538
-2.94566
-3.09635
-3.25715
-3.42768
-3.60751
-3.79615
-3.99301
-4.19743
-4.4088
-4.6267
-4.85074
-5.08068
-5.31924
-5.57426
-2.73874
-2.82806
-2.9294
-3.04256
-3.16735
-3.30357
-3.45097
-3.60927
-3.77817
-3.9573
-4.14625
-4.34455
-4.55168
-4.7671
-4.99034
-5.22111
-5.45919
-5.70477
-5.96007
-6.22954
-3.24789
-3.34195
-3.44861
-3.5677
-3.69901
-3.84233
-3.9974
-4.16396
-4.34169
-4.53023
-4.7292
-4.93816
-5.15666
-5.38424
-5.62053
-5.8653
-6.11846
-6.38034
-6.65251
-6.93744
-3.80121
-3.90019
-4.01237
-4.13768
-4.27588
-4.42676
-4.59006
-4.76549
-4.95276
-5.15152
-5.36141
-5.58202
-5.81296
-6.05383
-6.30433
-6.56426
-6.83357
-7.11256
-7.40222
-7.70395
-4.40571
-4.50951
-4.62751
-4.75927
-4.90467
-5.06349
-5.23548
-5.42035
-5.61781
-5.82754
-6.04919
-6.2824
-6.52679
-6.78204
-7.04785
-7.32407
-7.61062
-7.90767
-8.2158
-8.53582
-5.07088
-5.17958
-5.30319
-5.44152
-5.59427
-5.76128
-5.9423
-6.13706
-6.34526
-6.5666
-6.80075
-7.04738
-7.30615
-7.57674
-7.85891
-8.15246
-8.45731
-8.77347
-9.1012
-9.44102
-5.80973
-5.923
-6.05207
-6.19675
-6.35685
-6.53209
-6.72232
-6.92723
-7.14653
-7.37993
-7.62714
-7.88784
-8.16173
-8.44849
-8.74789
-9.05972
-9.38383
-9.72011
-10.0686
-10.4297
-6.64049
-6.75771
-6.89175
-7.04231
-7.20933
-7.39274
-7.59217
-7.8071
-8.03751
-8.28314
-8.54369
-8.81886
-9.10834
-9.41184
-9.72911
-10.0599
-10.4041
-10.7614
-11.1316
-11.5151
-7.589
-7.70913
-7.8472
-8.00292
-8.17607
-8.36676
-8.57557
-8.79962
-9.04077
-9.29835
-9.57209
-9.86169
-10.1669
-10.4873
-10.8227
-11.173
-11.5376
-11.9165
-12.3092
-12.7161
-8.6934
-8.81476
-8.95528
-9.11473
-9.29294
-9.48941
-9.70358
-9.93804
-10.1896
-10.4583
-10.7444
-11.0479
-11.3685
-11.7057
-12.0591
-12.4286
-12.8138
-13.2143
-13.6297
-14.0604
-10.0133
-10.1334
-10.274
-10.435
-10.6161
-10.8171
-11.0373
-11.2769
-11.5363
-11.8157
-12.1135
-12.4301
-12.7652
-13.118
-13.4882
-13.8758
-14.2807
-14.7022
-15.1398
-15.5937
-11.6299
-11.7457
-11.8835
-12.0433
-12.2247
-12.4274
-12.6511
-12.8958
-13.1612
-13.4475
-13.7556
-14.0837
-14.4305
-14.7951
-15.1789
-15.5824
-16.005
-16.4459
-16.9041
-17.3795
-13.6129
-13.7213
-13.8534
-14.0085
-14.1856
-14.3854
-14.6078
-14.8526
-15.1196
-15.4082
-15.7177
-16.0487
-16.4025
-16.7797
-17.1785
-17.5975
-18.0366
-18.4952
-18.9724
-19.4673
-16.2489
-16.3415
-16.4576
-16.5989
-16.7666
-16.9594
-17.1769
-17.4185
-17.6841
-17.973
-18.2848
-18.6191
-18.9764
-19.357
-19.7607
-20.187
-20.6357
-21.1075
-21.6023
-22.1151
-21.1965
-21.2698
-21.3734
-21.5051
-21.6638
-21.8486
-22.0591
-22.2948
-22.5553
-22.8403
-23.1496
-23.4832
-23.8413
-24.224
-24.6314
-25.0636
-25.5217
-26.0095
-26.5295
-27.064
-27.5687
-22.6378
-19.9794
-17.8724
-16.0639
-14.5062
-13.1371
-11.9119
-10.8032
-9.79284
-8.86765
-8.01773
-7.23529
-6.51392
-5.84827
-5.23363
-4.66457
-4.13537
-3.65442
-3.25016
-28.1006
-23.1761
-20.5065
-18.3796
-16.5479
-14.965
-13.5704
-12.3202
-11.1877
-10.1551
-9.20964
-8.34147
-7.54295
-6.80782
-6.13089
-5.50756
-4.93292
-4.40447
-3.93524
-3.53308
-28.6605
-23.7327
-21.0502
-18.9025
-17.0461
-15.4369
-14.0157
-12.7396
-11.5826
-10.5272
-9.56089
-8.67398
-7.8589
-7.10941
-6.42028
-5.78681
-5.20423
-4.67014
-4.19401
-3.77266
-29.2443
-24.3082
-21.6106
-19.4405
-17.558
-15.9212
-14.4724
-13.1695
-11.9871
-10.9082
-9.92033
-9.01398
-8.18151
-7.41657
-6.71372
-6.068
-5.47438
-4.92983
-4.44098
-4.00119
-29.8487
-24.9021
-22.1871
-19.9932
-18.083
-16.4174
-14.9398
-13.6091
-12.4005
-11.2973
-10.2871
-9.36062
-8.50998
-7.7287
-7.01109
-6.3519
-5.74579
-5.18915
-4.68679
-4.23115
-30.4721
-25.5143
-22.7781
-20.5597
-18.6205
-16.9246
-15.4172
-14.0577
-12.822
-11.6937
-10.6606
-9.71326
-8.84378
-8.04548
-7.31239
-6.63901
-6.01978
-5.45074
-4.9354
-4.46596
-31.1136
-26.1442
-23.3827
-21.139
-19.1696
-17.4422
-15.9037
-14.5146
-13.251
-12.0969
-11.0402
-10.0714
-9.18262
-8.36683
-7.61789
-6.93004
-6.29759
-5.71635
-5.18872
-4.70688
-31.772
-26.7897
-24.0009
-21.7303
-19.7294
-17.9693
-16.3988
-14.979
-13.6867
-12.5062
-11.4254
-10.4348
-9.52622
-8.69264
-7.92765
-7.22527
-6.57969
-5.98652
-5.44718
-4.95387
-32.4458
-27.4492
-24.6319
-22.3327
-20.2991
-18.5051
-16.9016
-15.4503
-14.1286
-12.921
-11.8156
-10.8028
-9.87425
-9.02273
-8.2416
-7.52472
-6.86614
-6.26129
-5.71064
-5.20644
-33.1339
-28.1216
-25.2748
-22.9454
-20.8778
-19.0489
-17.4113
-15.9277
-14.5759
-13.3408
-12.2104
-11.175
-10.2263
-9.35676
-8.55948
-7.82814
-7.15667
-6.5403
-5.97862
-5.4639
-33.8352
-28.8058
-25.9286
-23.5675
-21.4646
-19.5996
-17.927
-16.4104
-15.028
-13.7648
-12.6091
-11.551
-10.582
-9.69431
-8.88087
-8.13513
-7.45085
-6.82306
-6.25048
-5.72547
-34.5485
-29.5007
-26.5922
-24.1979
-22.0584
-20.1564
-18.448
-16.8976
-15.484
-14.1925
-13.0112
-11.9302
-10.9407
-10.0349
-9.20528
-8.44517
-7.74813
-7.10895
-6.52554
-5.99038
-35.2728
-30.2053
-27.2645
-24.8356
-22.6584
-20.7183
-18.9733
-17.3885
-15.9433
-14.623
-13.4158
-12.3118
-11.3019
-10.3779
-9.53213
-8.75767
-8.04789
-7.39732
-6.8031
-6.25789
-36.007
-30.9184
-27.9442
-25.4795
-23.2634
-21.2844
-19.502
-17.8822
-16.4049
-15.0556
-13.8225
-12.6953
-11.6649
-10.7227
-9.86081
-9.07201
-8.3495
-7.68752
-7.08247
-6.5273
-36.75
-31.6389
-28.6302
-26.1284
-23.8725
-21.8536
-20.0331
-18.3779
-16.8681
-15.4896
-14.2303
-13.08
-12.029
-11.0686
-10.1907
-9.38757
-8.65232
-7.9789
-7.363
-6.79792
-37.5006
-32.3653
-29.3213
-26.7812
-24.4844
-22.4248
-20.5656
-18.8746
-17.3321
-15.9241
-14.6386
-13.4651
-12.3936
-11.4151
-10.5211
-9.7037
-8.95572
-8.27083
-7.64405
-7.06915
-38.2586
-33.0967
-30.0161
-27.4366
-25.0979
-22.997
-21.0986
-19.3712
-17.7958
-16.3583
-15.0466
-13.8499
-12.7579
-11.7614
-10.8514
-10.0198
-9.25908
-8.56269
-7.92502
-7.34038
-39.0252
-33.8326
-30.7133
-28.0931
-25.7117
-23.5688
-21.6307
-19.8668
-18.2584
-16.7913
-15.4535
-14.2336
-13.1213
-12.1068
-11.1808
-10.3351
-9.56175
-8.85387
-8.20532
-7.61108
-39.8008
-34.5718
-31.4108
-28.749
-26.3244
-24.1391
-22.1611
-20.3605
-18.7189
-17.2223
-15.8584
-14.6155
-13.483
-12.4506
-11.5089
-10.6491
-9.86314
-9.1438
-8.48439
-7.88073
-40.5726
-35.3095
-32.1072
-29.4034
-26.9354
-24.7075
-22.6893
-20.8519
-19.1771
-17.651
-16.261
-14.9953
-13.8426
-12.7925
-11.8351
-10.9613
-10.1628
-9.43204
-8.76181
-8.14892
-6.64212
-4.56964
-3.2363
-2.21408
-1.49886
-0.974376
-0.598597
-0.332226
-0.147587
-0.0233913
0.0564911
0.104423
0.12958
0.138993
0.137758
0.129652
0.117394
0.102926
0.087618
0.0724061
0.0579196
0.0445519
0.032539
0.0219834
0.0129149
0.0052831
-0.000986026
-0.0060148
-0.00993127
-0.0128734
-0.0150025
-0.0164074
-0.017274
-0.0175564
-0.0174463
-0.016696
-0.015382
-0.0132581
-0.00939144
-0.00563782
-6.89343
-4.74887
-3.38042
-2.3276
-1.58871
-1.04709
-0.657933
-0.381257
-0.188478
-0.0577411
0.0274923
0.0798733
0.10876
0.121334
0.122793
0.116988
0.106703
0.0939258
0.0800653
0.0660927
0.0526638
0.0401965
0.0289482
0.0190393
0.010514
0.00333751
-0.00255191
-0.00726797