/*--------------------------------*- C++ -*----------------------------------*\
| =========                 |                                                 |
| \\      /  F ield         | OpenFOAM: The Open Source CFD Toolbox           |
|  \\    /   O peration     | Version:  v1912                                 |
|   \\  /    A nd           | Website:  www.openfoam.com                      |
|    \\/     M anipulation  |                                                 |
\*---------------------------------------------------------------------------*/
FoamFile
{
    version     2.0;
    format      ascii;
    class       surfaceScalarField;
    location    "25";
    object      phi;
}
// * * * * * * * * * * * * * * * * * * * * * * * * * * * * * * * * * * * * * //

dimensions      [0 3 -1 0 0 0 0];
oriented        oriented;


internalField   nonuniform List<scalar> 
18940
(
0.000347788
-0.234548
0.234201
0.0013416
-0.216644
0.21565
0.0028069
-0.205113
0.203648
0.00457686
-0.197266
0.195496
0.00652395
-0.191415
0.189467
0.00854902
-0.186512
0.184487
0.0105802
-0.181981
0.17995
0.0125693
-0.177534
0.175545
0.0144871
-0.173049
0.171131
0.0163187
-0.168497
0.166666
0.0180594
-0.1639
0.162159
0.0197118
-0.1593
0.157647
0.0212828
-0.154742
0.153171
0.0227819
-0.150269
0.14877
0.0242201
-0.145917
0.144479
0.0256089
-0.141709
0.140321
0.0269595
-0.137657
0.136306
0.0282822
-0.133757
0.132434
0.0295853
-0.12999
0.128687
-0.126316
0.125027
0.0308737
0.000370995
-0.234919
0.00138458
-0.217657
0.00286055
-0.206589
0.0046352
-0.199041
0.00657751
-0.193357
0.00858837
-0.188523
0.0105971
-0.18399
0.0125571
-0.179494
0.0144408
-0.174932
0.0162352
-0.170292
0.0179372
-0.165602
0.0195505
-0.160913
0.0210829
-0.156274
0.0225447
-0.151731
0.0239473
-0.14732
0.0253025
-0.143065
0.0266217
-0.138976
0.0279156
-0.135051
0.029193
-0.131267
-0.127582
0.0304595
0.000392249
-0.235312
0.00142195
-0.218687
0.00290676
-0.208074
0.00468246
-0.200817
0.00661647
-0.195291
0.00860957
-0.190516
0.0105923
-0.185973
0.0125198
-0.181422
0.0143664
-0.176779
0.0161209
-0.172046
0.0177817
-0.167263
0.0193537
-0.162485
0.0208457
-0.157766
0.0222687
-0.153154
0.0236343
-0.148685
0.0249544
-0.144385
0.026241
-0.140263
0.0275048
-0.136315
0.0287551
-0.132518
-0.128826
0.0299984
0.000405974
-0.235718
0.00145068
-0.219732
0.00294361
-0.209567
0.00471791
-0.202591
0.00664035
-0.197213
0.00861224
-0.192488
0.0105655
-0.187926
0.0124573
-0.183313
0.014264
-0.178586
0.0159759
-0.173758
0.0175933
-0.16888
0.0191222
-0.164014
0.0205723
-0.159216
0.0219549
-0.154537
0.0232822
-0.150013
0.0245662
-0.145669
0.025819
-0.141516
0.0270516
-0.137548
0.0282739
-0.13374
-0.130045
0.0294933
0.000417128
-0.236135
0.00147413
-0.220789
0.00297243
-0.211065
0.00474217
-0.204361
0.00664961
-0.199121
0.0085968
-0.194435
0.0105174
-0.189847
0.0123703
-0.185166
0.0141342
-0.18035
0.0158013
-0.175425
0.0173731
-0.170452
0.0188571
-0.165498
0.0202637
-0.160623
0.0216047
-0.155878
0.0228925
-0.151301
0.0241394
-0.146916
0.0253573
-0.142733
0.0265578
-0.138748
0.0277512
-0.134933
-0.13124
0.0289459
0.000426137
-0.236561
0.0014927
-0.221855
0.00299347
-0.212566
0.00475548
-0.206123
0.00664451
-0.20101
0.00856362
-0.196354
0.0104482
-0.191731
0.0122594
-0.186978
0.0139779
-0.182068
0.0155977
-0.177045
0.0171221
-0.171977
0.0185595
-0.166935
0.0199212
-0.161984
0.0212193
-0.157176
0.0224665
-0.152548
0.023675
-0.148124
0.0248571
-0.143915
0.0260245
-0.139915
0.0271881
-0.136097
-0.132409
0.0283573
0.000433568
-0.236994
0.00150708
-0.222929
0.00300729
-0.214066
0.0047583
-0.207874
0.00662553
-0.202877
0.00851323
-0.198242
0.0103587
-0.193577
0.0121253
-0.188744
0.0137958
-0.183739
0.0153663
-0.178615
0.0168413
-0.173452
0.0182304
-0.168324
0.0195457
-0.1633
0.0207997
-0.15843
0.0220051
-0.153753
0.0231742
-0.149293
0.0243193
-0.145061
0.0254524
-0.141049
0.0265852
-0.13723
-0.133552
0.0277281
0.000439578
-0.237434
0.00151759
-0.224007
0.00301429
-0.215563
0.00475108
-0.209611
0.00659322
-0.204719
0.00844629
-0.200095
0.0102496
-0.19538
0.0119689
-0.190464
0.013589
-0.185359
0.0151079
-0.180134
0.0165316
-0.174875
0.0178709
-0.169663
0.0191383
-0.164567
0.0203468
-0.159638
0.0215091
-0.154915
0.0226375
-0.150422
0.0237443
-0.146167
0.0248419
-0.142146
0.0259425
-0.13833
-0.134667
0.027058
0.000444271
-0.237878
0.0015245
-0.225087
0.00301489
-0.217053
0.00473436
-0.21133
0.00654823
-0.206533
0.00836357
-0.20191
0.0101219
-0.197138
0.0117912
-0.192133
0.0133586
-0.186926
0.0148238
-0.181599
0.0161943
-0.176246
0.017482
-0.170951
0.0186999
-0.165785
0.0198614
-0.1608
0.0209792
-0.156033
0.0220654
-0.151508
0.0231323
-0.147234
0.0241926
-0.143206
0.0252595
-0.139397
-0.135754
0.026346
0.000447721
-0.238326
0.00152809
-0.226167
0.00300957
-0.218534
0.00470878
-0.213029
0.00649133
-0.208316
0.00826599
-0.203685
0.00997656
-0.198849
0.0115934
-0.19375
0.0131058
-0.188438
0.0145152
-0.183009
0.0158307
-0.177561
0.0170649
-0.172185
0.0182317
-0.166952
0.0193444
-0.161913
0.0204158
-0.157105
0.021458
-0.15255
0.0224831
-0.148259
0.0235039
-0.144227
0.0245348
-0.140428
-0.136809
0.0255902
0.000450031
-0.238776
0.00152872
-0.227246
0.00299888
-0.220005
0.00467506
-0.214705
0.00642344
-0.210064
0.00815466
-0.205416
0.00981488
-0.200509
0.0113769
-0.195312
0.012832
-0.189894
0.0141837
-0.18436
0.0154422
-0.17882
0.0166211
-0.173364
0.0177347
-0.168065
0.0187967
-0.162975
0.0198197
-0.158128
0.0208155
-0.153546
0.0217961
-0.14924
0.0227747
-0.145206
0.0237664
-0.14142
-0.137831
0.024788
0.000451356
-0.239227
0.00152681
-0.228322
0.00298349
-0.221461
0.00463408
-0.216356
0.00634563
-0.211776
0.00803084
-0.207101
0.00963833
-0.202117
0.0111433
-0.196817
0.0125392
-0.191289
0.0138311
-0.185652
0.0150306
-0.180019
0.0161522
-0.174486
0.0172105
-0.169123
0.0182194
-0.163984
0.0191914
-0.1591
0.020138
-0.154493
0.0210709
-0.150173
0.0220036
-0.146139
0.0229524
-0.142368
-0.138815
0.0239362
0.000451972
-0.239679
0.00152297
-0.229393
0.00296424
-0.222903
0.00458688
-0.217979
0.00625917
-0.213448
0.00789604
-0.208738
0.00944863
-0.203669
0.0108945
-0.198263
0.0122293
-0.192624
0.0134596
-0.186883
0.0145982
-0.181158
0.0156602
-0.175548
0.0166608
-0.170124
0.017614
-0.164937
0.018532
-0.160018
0.0194259
-0.155387
0.0203073
-0.151054
0.0211895
-0.147021
0.0220902
-0.143269
-0.139755
0.0230308
0.000452353
-0.240132
0.00151805
-0.230458
0.00294216
-0.224327
0.00453469
-0.219571
0.00616549
-0.215079
0.00775195
-0.210325
0.00924774
-0.205165
0.0106328
-0.199648
0.0119048
-0.193896
0.0130718
-0.18805
0.0141476
-0.182234
0.015148
-0.176548
0.0160883
-0.171064
0.0169825
-0.165831
0.0178428
-0.160878
0.0186798
-0.156224
0.0195045
-0.151879
0.0203303
-0.147847
0.0211759
-0.144115
-0.140645
0.0220657
0.000453299
-0.240585
0.0015132
-0.231518
0.00291844
-0.225732
0.00447881
-0.221132
0.00606617
-0.216666
0.00760043
-0.211859
0.00903789
-0.206603
0.0103608
-0.200971
0.0115687
-0.195104
0.0126711
-0.189152
0.0136825
-0.183245
0.0146192
-0.177485
0.0154966
-0.171942
0.0163285
-0.166663
0.0171266
-0.161676
0.0179012
-0.156998
0.0186624
-0.15264
0.0194233
-0.148607
0.0202033
-0.144895
-0.141475
0.0210326
0.000455951
-0.241041
0.00150972
-0.232572
0.00289428
-0.227117
0.0044206
-0.222658
0.00596284
-0.218208
0.00744351
-0.21334
0.00882148
-0.207981
0.0100813
-0.202231
0.0112243
-0.196247
0.0122612
-0.190189
0.0132072
-0.184191
0.0140787
-0.178356
0.0148911
-0.172754
0.0156575
-0.167429
0.0163892
-0.162408
0.0170954
-0.157704
0.017785
-0.15333
0.0184702
-0.149293
0.0191717
-0.145596
-0.142231
0.0199282
0.000461697
-0.241503
0.00150891
-0.233619
0.00287096
-0.228479
0.00436158
-0.224149
0.00585732
-0.219704
0.00728331
-0.214766
0.00860109
-0.209298
0.00979748
-0.203427
0.0108754
-0.197325
0.0118466
-0.19116
0.0127269
-0.185072
0.0135324
-0.179162
0.0142782
-0.1735
0.0149768
-0.168128
0.0156386
-0.163069
0.0162716
-0.158337
0.0168832
-0.153941
0.0174836
-0.149893
0.0180935
-0.146206
-0.14289
0.0187529
0.000472864
-0.241975
0.00151339
-0.23466
0.00285095
-0.229816
0.00430384
-0.225601
0.00575153
-0.221152
0.00712191
-0.216136
0.00837918
-0.210556
0.00951236
-0.20456
0.0105259
-0.198338
0.0114323
-0.192067
0.0122474
-0.185887
0.012987
-0.179901
0.0136652
-0.174178
0.0142934
-0.168756
0.0148807
-0.163657
0.0154343
-0.158891
0.0159604
-0.154468
0.0164657
-0.150398
0.0169632
-0.146704
-0.143405
0.0174779
0.000497035
-0.242472
0.00153038
-0.235693
0.00283829
-0.231124
0.00424924
-0.227012
0.00564666
-0.222549
0.00696068
-0.21745
0.00815773
-0.211753
0.00922885
-0.205631
0.0101798
-0.199289
0.0110239
-0.192911
0.0117767
-0.18664
0.0124529
-0.180578
0.0130649
-0.17479
0.0136214
-0.169313
0.0141282
-0.164164
0.0145888
-0.159351
0.0150048
-0.154884
0.0153752
-0.150769
0.0157045
-0.147033
-0.143756
0.0160552
0.000554319
-0.243027
0.00156824
-0.236707
0.0028327
-0.232388
0.00419658
-0.228376
0.00554221
-0.223895
0.00679998
-0.218708
0.00793799
-0.212891
0.00894919
-0.206642
0.00984087
-0.200181
0.0106271
-0.193697
0.0113234
-0.187336
0.011944
-0.181198
0.0124991
-0.175345
0.0129943
-0.169808
0.0134294
-0.164599
0.013797
-0.159719
0.0140805
-0.155167
0.0142538
-0.150942
0.0143111
-0.14709
-0.143922
0.0144769
0.250567
0.000409124
-0.250977
0.250185
0.000382609
0.24981
0.000375187
0.249434
0.000375177
0.249057
0.000377984
0.248674
0.000382259
0.248287
0.000387276
0.247895
0.000392444
0.247497
0.000397368
0.247095
0.000401843
0.24669
0.000405774
0.24628
0.000409133
0.245869
0.000411902
0.245454
0.000414054
0.245039
0.000415463
0.244623
0.000415923
0.244209
0.000414383
0.243798
0.000410294
0.243404
0.000394457
0.000377138
0.252264
0.00100766
-0.252863
0.251631
0.0010161
0.250969
0.00103654
0.250282
0.0010629
0.249569
0.00109064
0.248833
0.00111841
0.248074
0.00114573
0.247295
0.0011721
0.246495
0.00119709
0.245676
0.00122044
0.24484
0.00124204
0.243987
0.00126186
0.243119
0.00127989
0.242237
0.00129613
0.241342
0.00131042
0.240436
0.00132256
0.239519
0.00133143
0.238592
0.00133677
0.237654
0.00133227
0.00132455
0.250844
0.0015699
-0.251406
0.250218
0.00164236
0.249539
0.00171507
0.248813
0.0017889
0.248042
0.00186152
0.247229
0.00193171
0.246376
0.00199912
0.245484
0.00206352
0.244557
0.00212465
0.243595
0.00218235
0.2426
0.00223658
0.241575
0.00228737
0.24052
0.0023348
0.239437
0.00237897
0.238327
0.00241988
0.237192
0.00245757
0.236032
0.0024915
0.234847
0.00252191
0.233633
0.00254641
0.00256919
0.246606
0.00200638
-0.247043
0.246101
0.00214755
0.245532
0.00228414
0.244904
0.00241757
0.244218
0.0025472
0.243477
0.00267223
0.242684
0.00279232
0.24184
0.00290728
0.240948
0.00301697
0.240009
0.0031213
0.239025
0.0032203
0.237999
0.00331409
0.236931
0.00340286
0.235823
0.00348687
0.234676
0.00356638
0.233492
0.00364175
0.23227
0.00371306
0.231011
0.00378093
0.229713
0.00384463
0.00390616
0.240279
0.00228176
-0.240555
0.239934
0.00249322
0.23952
0.00269793
0.239041
0.00289675
0.238498
0.00308964
0.237894
0.00327614
0.237231
0.00345589
0.236509
0.00362869
0.235732
0.0037944
0.2349
0.003953
0.234016
0.00410455
0.233081
0.00424923
0.232096
0.00438734
0.231064
0.00451935
0.229984
0.00464576
0.228859
0.00476726
0.227688
0.00488443
0.22647
0.0049982
0.225206
0.00510873
0.00521768
0.232638
0.00240433
-0.23276
0.232445
0.00268537
0.232185
0.00295853
0.231857
0.00322409
0.231465
0.00348209
0.231009
0.00373223
0.230491
0.00397414
0.229912
0.00420759
0.229274
0.00443243
0.228578
0.00464864
0.227826
0.00485628
0.22702
0.0050556
0.22616
0.00524701
0.225249
0.00543113
0.224286
0.00560872
0.223272
0.00578081
0.222208
0.00594842
0.221093
0.00611291
0.219927
0.00627512
0.00643688
0.224369
0.00240385
-0.224369
0.224303
0.00275199
0.22417
0.0030915
0.223971
0.00342229
0.223709
0.0037443
0.223384
0.00405723
0.222998
0.00436073
0.222551
0.0046545
0.222045
0.00493837
0.221481
0.00521227
0.220861
0.00547629
0.220186
0.00573069
0.219457
0.00597598
0.218675
0.00621291
0.217841
0.00644252
0.216956
0.00666615
0.216019
0.00688533
0.21503
0.00710192
0.213988
0.00731743
0.00753401
0.21599
0.00231568
-0.215902
0.216015
0.00272746
0.215976
0.00313001
0.215876
0.00352301
0.215714
0.00390627
0.215492
0.00427944
0.21521
0.00464212
0.214871
0.00499398
0.214474
0.00533478
0.214022
0.0056644
0.213516
0.0059829
0.212956
0.00629055
0.212344
0.00658791
0.211681
0.00687588
0.210968
0.00715572
0.210205
0.00742916
0.209392
0.00769825
0.208528
0.00796548
0.207612
0.00823315
0.00850392
0.207842
0.00217243
-0.207698
0.207925
0.00264414
0.207949
0.00310605
0.207914
0.00355773
0.207822
0.00399881
0.207672
0.00442891
0.207467
0.00484756
0.207206
0.00525435
0.206892
0.00564896
0.206525
0.00603121
0.206107
0.00640109
0.205639
0.00675885
0.205122
0.00710506
0.204557
0.00744071
0.203945
0.00776731
0.203288
0.00808693
0.202584
0.00840226
0.201833
0.00871653
0.201033
0.00903311
0.00935548
0.20012
0.00200056
-0.199948
0.200235
0.0025287
0.200295
0.00304647
0.200299
0.00355333
0.200249
0.00404882
0.200146
0.00453245
0.199989
0.00500368
0.199782
0.005462
0.199524
0.00590702
0.199216
0.00633844
0.198861
0.00675615
0.19846
0.00716033
0.198013
0.0075515
0.197524
0.00793067
0.196991
0.00829956
0.196418
0.00866055
0.195803
0.0090171
0.195146
0.00937327
0.194445
0.00973394
0.0101038
0.192916
0.00181959
-0.192735
0.193044
0.00240112
0.193119
0.0029717
0.193141
0.00353068
0.193113
0.00407748
0.193034
0.00461153
0.192905
0.0051322
0.192728
0.00563889
0.192504
0.00613106
0.192234
0.00660829
0.19192
0.00707035
0.191563
0.00751723
0.191165
0.00794936
0.190728
0.00836765
0.190254
0.00877397
0.189744
0.0091709
0.189198
0.00956277
0.188617
0.00995454
0.187997
0.0103533
0.0107653
0.186255
0.00164279
-0.186078
0.186381
0.00227523
0.186456
0.00289615
0.186482
0.00350469
0.18646
0.00410023
0.186389
0.00468207
0.186272
0.0052495
0.186109
0.0058018
0.185902
0.00633829
0.185651
0.00685839
0.18536
0.00736166
0.18503
0.00784785
0.184662
0.00831722
0.184259
0.00877039
0.183824
0.00920928
0.183358
0.0096364
0.182864
0.0100572
0.182341
0.0104772
0.181787
0.0109069
0.0113545
0.180116
0.00147841
-0.179952
0.180232
0.00215997
0.180299
0.00282925
0.180318
0.00348534
0.180291
0.00412753
0.180218
0.00475506
0.1801
0.00536708
0.179939
0.00596274
0.179736
0.00654123
0.179493
0.00710175
0.179211
0.00764361
0.178893
0.00816627
0.17854
0.00866963
0.178157
0.00915386
0.177745
0.00962075
0.177309
0.0100723
0.176851
0.0105153
0.176373
0.010955
0.175873
0.0114075
0.0118821
0.17446
0.0013313
-0.174313
0.174559
0.00206047
0.174612
0.00277659
0.174619
0.00347868
0.17458
0.00416594
0.174498
0.00483749
0.174373
0.00549239
0.174206
0.00612966
0.173999
0.00674832
0.173753
0.00734734
0.173471
0.00792575
0.173154
0.0084826
0.172807
0.00901733
0.172431
0.00952941
0.172032
0.0100203
0.171613
0.0104906
0.17118
0.0109488
0.170737
0.0113982
0.17028
0.0118644
0.012354
0.169234
0.00120377
-0.169107
0.169315
0.00197947
0.169351
0.0027412
0.169341
0.00348804
0.169288
0.00421907
0.169192
0.00493331
0.169055
0.00562974
0.168877
0.00630725
0.168661
0.00696467
0.168408
0.00760074
0.168119
0.00821417
0.167798
0.00880353
0.167448
0.00936768
0.167072
0.00990508
0.166676
0.0104165
0.166266
0.0109004
0.165848
0.0113672
0.165432
0.0118138
0.165014
0.0122831
0.0127689
0.164386
0.00109663
-0.164279
0.164448
0.00191782
0.164465
0.00272413
0.164438
0.00351463
0.164369
0.00428833
0.164258
0.00504417
0.164107
0.00578101
0.163916
0.00649763
0.163688
0.00719269
0.163424
0.00786469
0.163127
0.00851201
0.162797
0.0091327
0.16244
0.00972496
0.162059
0.010286
0.16166
0.0108155
0.161252
0.0113084
0.160842
0.0117774
0.160449
0.0122067
0.160065
0.0126671
0.013115
0.159864
0.00100943
-0.159777
0.159907
0.00187507
0.159906
0.00272498
0.159862
0.00355814
0.159777
0.00437347
0.159651
0.00516984
0.159486
0.00594604
0.159283
0.00670073
0.159044
0.00743242
0.158769
0.0081394
0.158461
0.00881971
0.158123
0.00947093
0.157757
0.0100905
0.157369
0.0106742
0.156964
0.0112205
0.156554
0.0117189
0.156147
0.0121846
0.155773
0.0125797
0.155419
0.0130215
0.0133671
0.155622
0.000940359
-0.155552
0.155647
0.00184972
0.15563
0.00274211
0.155571
0.00361678
0.155472
0.00447258
0.155334
0.00530828
0.155157
0.00612264
0.154943
0.00691423
0.154694
0.00768141
0.154412
0.00842231
0.154097
0.00913471
0.153752
0.00981576
0.15338
0.0104622
0.152986
0.0110685
0.152575
0.0116314
0.15216
0.0121338
0.151753
0.0125919
0.1514
0.0129321
0.15107
0.0133518
0.013495
0.151617
0.000887534
-0.151564
0.151628
0.00183898
0.151597
0.00277236
0.151527
0.00368705
0.151418
0.0045817
0.151271
0.00545512
0.151088
0.006306
0.150869
0.00713287
0.150617
0.00793399
0.150332
0.00870735
0.150016
0.00945055
0.149671
0.0101604
0.1493
0.0108333
0.148906
0.0114624
0.148494
0.0120431
0.148077
0.0125513
0.147666
0.0130027
0.147334
0.0132641
0.147044
0.0136417
0.013449
0.147811
-0.147773
0.000849355
0.147811
0.00183896
0.147772
0.0028114
0.147695
0.00376391
0.147582
0.00469508
0.147433
0.0056038
0.14725
0.0064888
0.147035
0.00734853
0.146788
0.0081812
0.14651
0.00898471
0.146204
0.00975663
0.145871
0.0104936
0.145513
0.0111918
0.145131
0.0118435
0.14473
0.0124442
0.144318
0.0129634
0.1439
0.0134204
0.143553
0.0136115
0.143298
0.0138965
0.0128255
0.254134
7.38003e-05
-0.254207
0.254098
3.57509e-05
0.254066
3.15326e-05
0.254026
4.0099e-05
0.253972
5.41762e-05
0.2539
7.16857e-05
0.253809
9.13265e-05
0.253697
0.000111971
0.253564
0.000132806
0.253411
0.000153336
0.253238
0.00017313
0.253046
0.000191885
0.252836
0.000209993
0.252608
0.000228408
0.252362
0.000245556
0.252101
0.000260619
0.251828
0.000273117
0.251545
0.000282991
0.251261
0.000284407
0.000284254
0.255716
-0.000237293
-0.255405
0.255967
-0.000214744
0.256173
-0.000175054
0.256336
-0.000122462
0.256454
-6.34938e-05
0.256526
-7.36575e-07
0.256553
6.46664e-05
0.256533
0.000131606
0.256467
0.000199177
0.256354
0.000266496
0.256194
0.000332305
0.255991
0.000395452
0.255746
0.000454829
0.255455
0.00051945
0.25512
0.000580966
0.254743
0.000637457
0.254327
0.000689174
0.253874
0.000736127
0.253384
0.00077364
0.000805902
0.25101
-0.000884439
-0.250363
0.251585
-0.000789779
0.252095
-0.000685299
0.252544
-0.000571125
0.252931
-0.000450761
0.253257
-0.000326429
0.253521
-0.000199275
0.253723
-7.0791e-05
0.253863
5.90421e-05
0.25394
0.000189983
0.253954
0.000317909
0.253907
0.000442422
0.253796
0.000565759
0.253627
0.000688493
0.253401
0.000807692
0.253116
0.000921955
0.252775
0.00103071
0.252377
0.00113388
0.251921
0.00122955
0.00132052
0.242637
-0.00180535
-0.241717
0.243487
-0.00163902
0.244267
-0.00146547
0.24498
-0.00128393
0.245625
-0.00109605
0.246202
-0.000903604
0.246711
-0.000707951
0.24715
-0.000510364
0.247521
-0.000311526
0.24782
-0.000108829
0.248047
9.03034e-05
0.248208
0.000281818
0.248298
0.000475434
0.248321
0.000666038
0.248276
0.000852693
0.248163
0.0010345
0.247983
0.00121062
0.247736
0.00138067
0.247422
0.00154362
0.0017
0.232546
-0.00292142
-0.23143
0.233595
-0.00268801
0.234577
-0.00244713
0.235491
-0.00219834
0.236338
-0.00194252
0.237115
-0.00168115
0.237823
-0.00141564
0.23846
-0.00114722
0.239025
-0.000876854
0.239522
-0.000605296
0.239948
-0.000335617
0.240299
-6.94782e-05
0.240579
0.000195342
0.240788
0.000456866
0.240926
0.000714764
0.240993
0.000967619
0.240989
0.00121466
0.240914
0.00145526
0.240769
0.00168861
0.00191464
0.221997
-0.00416175
-0.220757
0.223175
-0.0038661
0.22429
-0.00356144
0.225339
-0.00324787
0.226323
-0.00292618
0.22724
-0.00259778
0.228088
-0.00226423
0.228868
-0.00192699
0.229579
-0.00158748
0.23022
-0.00124704
0.230792
-0.000907176
0.231292
-0.000569215
0.231721
-0.000234013
0.232081
9.68121e-05
0.232371
0.000424905
0.232589
0.000749108
0.232737
0.00106668
0.232815
0.00137756
0.232823
0.00168111
0.00197709
0.211758
-0.0054699
-0.21045
0.213008
-0.00511619
0.214198
-0.00475136
0.215326
-0.00437601
0.216391
-0.00399116
0.217392
-0.0035984
0.218327
-0.00319952
0.219196
-0.00279627
0.219999
-0.00239025
0.220735
-0.00198291
0.221403
-0.00157562
0.222004
-0.00116982
0.222536
-0.000766295
0.222999
-0.000365785
0.2234
2.38637e-05
0.22373
0.000419466
0.223991
0.000805306
0.224185
0.00118395
0.22431
0.00155527
0.00191886
0.202231
-0.00680495
-0.200896
0.203511
-0.00639648
0.204735
-0.00597449
0.205899
-0.00553997
0.207002
-0.00509438
0.208043
-0.00463968
0.209021
-0.004178
0.209937
-0.00371134
0.210788
-0.00324149
0.211575
-0.00277007
0.212298
-0.00229853
0.212956
-0.00182825
0.21355
-0.00136031
0.21408
-0.000895681
0.21454
-0.000435745
0.214946
1.35507e-05
0.215281
0.000470316
0.215552
0.000912464
0.215759
0.00134814
0.00177599
0.193573
-0.00813962
-0.192238
0.194855
-0.00767892
0.196083
-0.00720203
0.197253
-0.00671022
0.198364
-0.00620562
0.199415
-0.00569079
0.200406
-0.00516826
0.201335
-0.00464033
0.202202
-0.00410903
0.203008
-0.00357613
0.203753
-0.00304315
0.204436
-0.00251145
0.205058
-0.00198219
0.205619
-0.00145631
0.206118
-0.00093523
0.206552
-0.000420233
0.206932
9.01541e-05
0.207248
0.000596417
0.207504
0.00109266
0.00158111
0.185792
-0.00945747
-0.184474
0.187059
-0.00894652
0.188274
-0.00841621
0.189432
-0.00786818
0.190532
-0.00730553
0.191572
-0.00673165
0.192554
-0.00614958
0.193475
-0.00556196
0.194337
-0.00497107
0.19514
-0.00437879
0.195884
-0.00378669
0.196568
-0.00319609
0.197194
-0.00260814
0.197762
-0.00202382
0.198271
-0.00144414
0.19872
-0.000870002
0.199113
-0.000302169
0.199449
0.000259763
0.199727
0.000814825
0.00136049
0.178819
-0.0107499
-0.177526
0.180063
-0.0101905
0.181254
-0.00960758
0.18239
-0.00900355
0.183467
-0.00838308
0.184486
-0.00775058
0.185446
-0.00710967
0.186348
-0.0064634
0.187191
-0.00581426
0.187976
-0.00516422
0.188704
-0.00451483
0.189376
-0.00386735
0.18999
-0.00322288
0.190549
-0.00258234
0.191051
-0.00194659
0.191498
-0.00131652
0.191888
-0.000692657
0.192226
-7.79951e-05
0.192508
0.000532913
0.00113312
0.172553
-0.0120141
-0.171288
0.17377
-0.0114079
0.174935
-0.0107726
0.176043
-0.010112
0.177094
-0.00943321
0.178085
-0.00874193
0.179018
-0.00804238
0.179892
-0.00733803
0.18071
-0.00663156
0.18147
-0.00592494
0.182175
-0.00521964
0.182825
-0.00451684
0.183419
-0.00381751
0.183959
-0.00312253
0.184445
-0.00243268
0.184878
-0.00174881
0.185257
-0.00107169
0.185582
-0.000402909
0.185857
0.000257727
0.000911947
0.166886
-0.0132507
-0.165649
0.168078
-0.0126003
0.169218
-0.0119117
0.170299
-0.0111931
0.17132
-0.010455
0.172283
-0.00970417
0.173186
-0.00894568
0.174031
-0.00818339
0.17482
-0.00742011
0.175553
-0.0066577
0.17623
-0.0058975
0.176854
-0.00514051
0.177424
-0.00438758
0.177941
-0.00363949
0.178405
-0.00289699
0.178818
-0.00216088
0.179178
-0.00143167
0.179485
-0.000710116
0.179745
-2.97342e-06
0.000705273
0.161722
-0.0144636
-0.160509
0.162894
-0.0137722
0.164011
-0.0130286
0.165067
-0.0122494
0.166062
-0.01145
0.166996
-0.0106382
0.16787
-0.00981989
0.168686
-0.00899937
0.169445
-0.0081794
0.170149
-0.00736164
0.170799
-0.00654719
0.171395
-0.00573682
0.171939
-0.00493121
0.17243
-0.00413103
0.17287
-0.00333692
0.173259
-0.00254967
0.173597
-0.00176993
0.173886
-0.000999035
0.174122
-0.000238813
0.000514746
0.156978
-0.0156594
-0.155783
0.158138
-0.0149313
0.159238
-0.0141287
0.160273
-0.0132851
0.161244
-0.0124212
0.162152
-0.0115458
0.162998
-0.010666
0.163785
-0.0097864
0.164515
-0.00890951
0.16519
-0.0080366
0.165811
-0.00716837
0.16638
-0.00630529
0.166896
-0.00544778
0.167362
-0.00459634
0.167776
-0.00375155
0.168141
-0.00291412
0.168456
-0.00208482
0.168721
-0.00126463
0.168937
-0.000454692
0.000345231
0.152594
-0.0168504
-0.151403
0.153751
-0.0160878
0.154841
-0.0152188
0.15586
-0.0143046
0.15681
-0.0133707
0.157691
-0.0124274
0.158509
-0.0114836
0.159266
-0.0105438
0.159967
-0.00960975
0.160612
-0.00868197
0.161204
-0.0077606
0.161745
-0.00684562
0.162234
-0.00593709
0.162673
-0.0050353
0.163062
-0.00414074
0.163402
-0.00325402
0.163693
-0.00237594
0.163936
-0.00150732
0.164131
-0.000649404
0.000196822
0.148524
-0.0180655
-0.147309
0.149693
-0.0172567
0.150779
-0.0163047
0.151784
-0.0153103
0.152711
-0.0142969
0.153563
-0.0132799
0.154349
-0.0122696
0.155074
-0.011269
0.155743
-0.0102781
0.156357
-0.00929647
0.15692
-0.00832319
0.157432
-0.00735756
0.157894
-0.00639922
0.158307
-0.00544822
0.158671
-0.00450491
0.158987
-0.00356989
0.159255
-0.00264391
0.159475
-0.00172789
0.159649
-0.000822828
6.88739e-05
0.144738
-0.0193682
-0.143436
0.145941
-0.0184588
0.147023
-0.0173867
0.148009
-0.0162964
0.148903
-0.0151917
0.149719
-0.0140951
0.150467
-0.0130177
0.151155
-0.0119577
0.151789
-0.0109122
0.152372
-0.00987889
0.152904
-0.00885584
0.153388
-0.00784142
0.153824
-0.00683485
0.154212
-0.00583599
0.154552
-0.00484512
0.154845
-0.00386285
0.155091
-0.00288996
0.155291
-0.00192754
0.155444
-0.000976628
-3.91608e-05
0.141252
-0.0208268
-0.139793
0.142483
-0.0196903
0.143543
-0.0184464
0.144488
-0.0172411
0.145335
-0.016039
0.146103
-0.0148629
0.146807
-0.0137216
0.147456
-0.0126067
0.148054
-0.0115108
0.148605
-0.0104295
0.149109
-0.00935949
0.149566
-0.00829849
0.149976
-0.00724544
0.15034
-0.00620016
0.150658
-0.00516299
0.15093
-0.00413459
0.151156
-0.00311585
0.151336
-0.00210798
0.151472
-0.00111247
-0.000130943
0.138128
-0.136731
-0.0222242
0.139273
-0.0208347
0.140293
-0.0194667
0.141161
-0.018109
0.141943
-0.0168209
0.14266
-0.0155804
0.14332
-0.0143816
0.143931
-0.0132171
0.144496
-0.0120761
0.145017
-0.0109505
0.145494
-0.00983616
0.145925
-0.00873048
0.146313
-0.00763246
0.146654
-0.00654206
0.146951
-0.00545981
0.147203
-0.00438653
0.147411
-0.00332323
0.147574
-0.00227096
0.147692
-0.00123133
-0.000211612
0.0301673
0.11131
-0.109857
-0.0316208
0.028688
0.114364
-0.112885
0.0271802
0.117555
-0.116047
0.0256402
0.120904
-0.119364
0.0240647
0.124445
-0.12287
0.0224507
0.128219
-0.126605
0.0207961
0.132283
-0.130628
0.0190992
0.136715
-0.135018
0.0173593
0.141617
-0.139877
0.0155764
0.147117
-0.145335
0.0137523
0.153374
-0.15155
0.0118909
0.160569
-0.158708
0.0100008
0.168899
-0.167009
0.00809833
0.178548
-0.176645
0.00621282
0.189635
-0.187749
0.00439345
0.202126
-0.200307
0.00271851
0.215694
-0.214019
0.00130633
0.229503
-0.228091
0.000323126
0.241814
-0.240831
0.249561
-0.249238
0.0299971
0.112757
-0.0314444
0.0285241
0.115837
0.0270227
0.119056
0.0254895
0.122438
0.0239209
0.126014
0.022314
0.129826
0.0206664
0.133931
0.0189765
0.138405
0.0172434
0.14335
0.0154671
0.148894
0.0136495
0.155192
0.0117948
0.162424
0.00991219
0.170782
0.00801887
0.180441
0.00614524
0.191509
0.00434196
0.203929
0.00268881
0.217347
0.00130354
0.230888
0.000347202
0.242771
0.249908
0.0297853
0.114196
-0.0312243
0.0283207
0.117302
0.0268281
0.120549
0.0253038
0.123962
0.0237443
0.127573
0.0221466
0.131424
0.0205084
0.135569
0.0188277
0.140086
0.0171037
0.145074
0.0153363
0.150661
0.0135275
0.157
0.011682
0.164269
0.00980934
0.172654
0.00792751
0.182323
0.00606786
0.193368
0.00428208
0.205715
0.00265043
0.218978
0.00128907
0.23225
0.000350601
0.243709
0.250259
0.0295335
0.115625
-0.0309619
0.0280796
0.118756
0.0265978
0.12203
0.0250844
0.125475
0.0235361
0.129122
0.0219497
0.13301
0.0203228
0.137196
0.0186534
0.141755
0.0169406
0.146787
0.0151844
0.152417
0.0133868
0.158798
0.0115526
0.166103
0.00969215
0.174515
0.00782393
0.184191
0.00598013
0.195212
0.00421315
0.207482
0.00260338
0.220588
0.00126534
0.233588
0.000345877
0.244629
0.250605
0.0292439
0.117041
-0.0306598
0.0278025
0.120197
0.0263334
0.1235
0.0248329
0.126976
0.0232975
0.130657
0.0217242
0.134583
0.0201105
0.138809
0.0184544
0.143411
0.0167548
0.148487
0.0150117
0.15416
0.0132273
0.160583
0.0114068
0.167924
0.00956061
0.176361
0.0077081
0.186044
0.00588213
0.197038
0.00413575
0.209229
0.00254939
0.222175
0.00123593
0.234901
0.00033731
0.245527
0.250942
0.0289189
0.118443
-0.0303208
0.0274917
0.121624
0.0260368
0.124954
0.0245507
0.128462
0.0230299
0.132178
0.0214714
0.136142
0.0198725
0.140408
0.0182314
0.145052
0.0165468
0.150171
0.0148188
0.155888
0.0130496
0.162352
0.0112447
0.169729
0.0094149
0.178191
0.00758022
0.187878
0.00577421
0.198844
0.00405051
0.210952
0.00248946
0.223736
0.00120219
0.236189
0.000326061
0.246403
0.251268
0.0285612
0.119829
-0.029948
0.0271493
0.123036
0.0257099
0.126394
0.0242395
0.129932
0.0227346
0.133683
0.0211922
0.137684
0.0196097
0.141991
0.0179851
0.146677
0.0163172
0.151839
0.0146061
0.157599
0.012854
0.164104
0.0110666
0.171516
0.00925532
0.180002
0.00744058
0.189693
0.00565668
0.200628
0.00395777
0.212651
0.00242399
0.225269
0.00116467
0.237448
0.000312837
0.247255
0.251581
0.0281736
0.1212
-0.0295446
0.0267777
0.124432
0.0253547
0.127817
0.0239009
0.131386
0.022413
0.135171
0.0208878
0.139209
0.019323
0.143556
0.0177163
0.148284
0.0160666
0.153489
0.014374
0.159292
0.0126408
0.165837
0.0108729
0.173284
0.00908212
0.181793
0.00728945
0.191486
0.0055298
0.202388
0.00385781
0.214323
0.00235335
0.226774
0.0011239
0.238677
0.00029824
0.248081
0.251879
0.0277589
0.122556
-0.0291142
0.0263792
0.125812
0.024973
0.129223
0.0235364
0.132823
0.0220661
0.136641
0.0205591
0.140716
0.0190129
0.145102
0.0174254
0.149871
0.0157954
0.155119
0.0141228
0.160965
0.0124103
0.16755
0.0106638
0.175031
0.00889553
0.183561
0.00712704
0.193254
0.00539383
0.204121
0.00375094
0.215966
0.0022779
0.228247
0.00108034
0.239875
0.000282684
0.248879
0.252162
0.0273199
0.123896
-0.02866
0.025956
0.127176
0.0245663
0.130613
0.023147
0.134242
0.0216948
0.138093
0.0202067
0.142204
0.0186801
0.146628
0.0171129
0.151438
0.0155038
0.156728
0.0138529
0.162615
0.0121627
0.16924
0.0104395
0.176754
0.00869575
0.185305
0.00695356
0.194996
0.005249
0.205825
0.00363743
0.217578
0.002198
0.229686
0.00103437
0.241039
0.000266414
0.249647
0.252428
0.0268587
0.125222
-0.0281852
0.0255095
0.128525
0.0241357
0.131987
0.0227335
0.135644
0.0212996
0.139527
0.0198308
0.143673
0.0183247
0.148135
0.0167789
0.152984
0.0151921
0.158315
0.0135643
0.164243
0.0118981
0.170906
0.0102001
0.178452
0.0084829
0.187022
0.00676919
0.19671
0.00509552
0.207499
0.00351756
0.219156
0.00211394
0.23109
0.000986245
0.242166
0.00024959
0.250383
0.252678
0.0263769
0.126538
-0.0276922
0.0250405
0.129861
0.0236815
0.133346
0.0222959
0.13703
0.0208802
0.140943
0.0194313
0.145122
0.0179464
0.149619
0.0164231
0.154507
0.0148599
0.159878
0.0132569
0.165846
0.0116166
0.172546
0.00994558
0.180123