/*--------------------------------*- C++ -*----------------------------------*\
  =========                 |
  \\      /  F ield         | OpenFOAM: The Open Source CFD Toolbox
   \\    /   O peration     | Website:  https://openfoam.org
    \\  /    A nd           | Version:  6.0
     \\/     M anipulation  |
\*---------------------------------------------------------------------------*/
FoamFile
{
    version     2.0;
    format      ascii;
    class       volScalarField;
    location    "4.515";
    object      p;
}
// * * * * * * * * * * * * * * * * * * * * * * * * * * * * * * * * * * * * * //

dimensions      [0 2 -2 0 0 0 0];

internalField   nonuniform List<scalar> 
2400
(
-0.427507
-0.413967
-0.405564
-0.39867
-0.391765
-0.384918
-0.378249
-0.371733
-0.365448
-0.360593
-0.447137
-0.432019
-0.422218
-0.413936
-0.405652
-0.39751
-0.389678
-0.382118
-0.374892
-0.369651
-0.470754
-0.453504
-0.441829
-0.431741
-0.421685
-0.411878
-0.402527
-0.393571
-0.38505
-0.379285
-0.498464
-0.478545
-0.464518
-0.452199
-0.439973
-0.428119
-0.416878
-0.406137
-0.395915
-0.389427
-0.530466
-0.507291
-0.490417
-0.475443
-0.460659
-0.446388
-0.432878
-0.419935
-0.407533
-0.400027
-0.56697
-0.539894
-0.519673
-0.50164
-0.48394
-0.466909
-0.450771
-0.435189
-0.420038
-0.411059
-0.608152
-0.57648
-0.552418
-0.530963
-0.510038
-0.489963
-0.470898
-0.452289
-0.433759
-0.422585
-0.654092
-0.617102
-0.588737
-0.563543
-0.53913
-0.515759
-0.493484
-0.471428
-0.448628
-0.433944
-0.704683
-0.661682
-0.62863
-0.599479
-0.571409
-0.544542
-0.51867
-0.492224
-0.462958
-0.441655
-0.759338
-0.70988
-0.671954
-0.638862
-0.607372
-0.577542
-0.548886
-0.519039
-0.484222
-0.454576
-1.23152
-1.21814
-1.1915
-1.15391
-1.10754
-1.0546
-0.997191
-0.937258
-0.876527
-0.816621
-1.13344
-1.12158
-1.0976
-1.0636
-1.02165
-0.973849
-0.922165
-0.868415
-0.814205
-0.760952
-1.04774
-1.0397
-1.02003
-0.990646
-0.953548
-0.910732
-0.864113
-0.815467
-0.766379
-0.718177
-0.965965
-0.963006
-0.948742
-0.924859
-0.893191
-0.855615
-0.813972
-0.770011
-0.725323
-0.681248
-0.885379
-0.887715
-0.879206
-0.86126
-0.835469
-0.803511
-0.76707
-0.727798
-0.687258
-0.646787
-0.808645
-0.815821
-0.812811
-0.800735
-0.780912
-0.754754
-0.723701
-0.689178
-0.652604
-0.615222
-0.737512
-0.748715
-0.750549
-0.743895
-0.729814
-0.709442
-0.683905
-0.654256
-0.621561
-0.586779
-0.672596
-0.686972
-0.692873
-0.691018
-0.682285
-0.667588
-0.647752
-0.623317
-0.594583
-0.561493
-0.61379
-0.630646
-0.639958
-0.642375
-0.638704
-0.629781
-0.616283
-0.598294
-0.574811
-0.542336
-0.561125
-0.579019
-0.590408
-0.595929
-0.596423
-0.592842
-0.586093
-0.576568
-0.56319
-0.539513
-0.472144
-0.610837
-0.740266
-0.858166
-0.962213
-1.05053
-1.1218
-1.1753
-1.21089
-1.22914
-0.422846
-0.552289
-0.673317
-0.783595
-0.880934
-0.963577
-1.0303
-1.08043
-1.11389
-1.13116
-0.355335
-0.477178
-0.591956
-0.697308
-0.791087
-0.871542
-0.937395
-0.987886
-1.02279
-1.04242
-0.284789
-0.398859
-0.50736
-0.607973
-0.698597
-0.777496
-0.843341
-0.895254
-0.932838
-0.956183
-0.22025
-0.326075
-0.42774
-0.522957
-0.609701
-0.686316
-0.751487
-0.804281
-0.844176
-0.871072
-0.165139
-0.262891
-0.357678
-0.447165
-0.529455
-0.603036
-0.666672
-0.719442
-0.760771
-0.790438
-0.119481
-0.209798
-0.298162
-0.381985
-0.459582
-0.529654
-0.591079
-0.642994
-0.684832
-0.716315
-0.0814837
-0.164681
-0.247324
-0.325929
-0.399021
-0.465538
-0.524479
-0.575057
-0.616746
-0.649259
-0.049967
-0.125895
-0.203436
-0.277398
-0.346374
-0.409499
-0.465895
-0.514879
-0.55599
-0.588968
-0.032674
-0.103742
-0.176278
-0.244775
-0.308553
-0.367044
-0.419505
-0.465405
-0.504408
-0.536318
0.524146
0.545246
0.567821
0.590983
0.614241
0.636923
0.658034
0.676958
0.699123
0.738457
0.49652
0.514818
0.534879
0.555105
0.57481
0.593254
0.60936
0.622545
0.638598
0.672667
0.461353
0.475868
0.492587
0.508948
0.524011
0.536997
0.546795
0.552959
0.56172
0.589322
0.418941
0.428803
0.441438
0.453074
0.462492
0.468902
0.471213
0.469211
0.469626
0.489633
0.369669
0.374165
0.382095
0.388248
0.391138
0.390002
0.383817
0.372702
0.363921
0.375378
0.314003
0.312624
0.315386
0.315436
0.31107
0.301603
0.286135
0.265201
0.246613
0.248758
0.252496
0.244983
0.242315
0.235804
0.223634
0.205271
0.179986
0.148807
0.120067
0.112343
0.185893
0.172261
0.164113
0.150736
0.130403
0.102811
0.0674496
0.0258998
-0.0130553
-0.0309843
0.115027
0.0960199
0.082535
0.0619788
0.0332215
-0.00372712
-0.0491601
-0.10091
-0.14986
-0.178102
0.0384264
0.0169381
-0.00148669
-0.0292513
-0.0662103
-0.112257
-0.167424
-0.228888
-0.287376
-0.325956
0.385122
0.388528
0.398933
0.407152
0.413569
0.419914
0.427802
0.439643
0.458382
0.481176
0.433183
0.437944
0.449643
0.460992
0.471362
0.48193
0.493962
0.509533
0.532208
0.561372
0.471635
0.480174
0.49445
0.509297
0.523771
0.538598
0.554738
0.573922
0.600172
0.634984
0.503205
0.515831
0.533007
0.551185
0.569472
0.588279
0.608242
0.630708
0.660007
0.699577
0.528138
0.544475
0.564381
0.585523
0.607155
0.629441
0.652704
0.677883
0.709517
0.75284
0.546159
0.565594
0.587799
0.611356
0.635679
0.66073
0.686535
0.713639
0.746707
0.79266
0.556999
0.578746
0.602636
0.627897
0.654086
0.680994
0.708373
0.736401
0.769846
0.817202
0.560389
0.58353
0.608367
0.634507
0.661602
0.689299
0.717104
0.744886
0.777513
0.824976
0.556111
0.579637
0.604599
0.63071
0.657653
0.684951
0.711903
0.738134
0.768655
0.814888
0.544036
0.566885
0.591098
0.616222
0.641894
0.667529
0.69226
0.715549
0.742605
0.786212
0.340666
0.296123
0.245223
0.193766
0.142745
0.0929129
0.0451041
-0.000158643
-0.0425507
-0.0818651
0.345079
0.297726
0.245003
0.1907
0.136819
0.0844163
0.0343356
-0.0127889
-0.0565219
-0.0965956
0.348546
0.295471
0.23912
0.181944
0.125659
0.0713257
0.019827
-0.028142
-0.0721101
-0.111811
0.351102
0.292937
0.232895
0.172745
0.114015
0.0578316
0.00512083
-0.0434132
-0.0873188
-0.126385
0.352805
0.290174
0.226525
0.163418
0.102346
0.0444974
-0.00918853
-0.0580385
-0.101663
-0.13995
0.354628
0.287758
0.220579
0.154646
0.0914402
0.0321596
-0.0222864
-0.0712954
-0.114577
-0.152144
0.358248
0.287447
0.216948
0.148362
0.0831568
0.022504
-0.0327515
-0.0821005
-0.125361
-0.16267
0.366249
0.291878
0.218227
0.146961
0.0795481
0.0171239
-0.0395252
-0.0899633
-0.134082
-0.172096
0.380794
0.302201
0.224437
0.149251
0.0781478
0.0122896
-0.0475182
-0.100826
-0.147516
-0.187793
0.396953
0.311202
0.226209
0.143882
0.0658539
-0.00655836
-0.0723916
-0.131062
-0.182367
-0.226428
-0.118059
-0.151181
-0.181463
-0.20923
-0.234863
-0.258751
-0.281167
-0.30208
-0.32196
-0.33153
-0.132954
-0.165618
-0.194826
-0.220903
-0.244214
-0.265101
-0.28373
-0.299878
-0.313154
-0.316814
-0.147233
-0.17843
-0.205721
-0.229514
-0.250264
-0.268399
-0.2842
-0.297692
-0.308812
-0.314262
-0.160702
-0.190399
-0.215924
-0.237807
-0.256613
-0.272883
-0.287033
-0.299286
-0.309673
-0.316356
-0.173127
-0.201418
-0.225416
-0.245766
-0.263129
-0.278131
-0.291262
-0.302816
-0.312783
-0.320026
-0.184377
-0.211581
-0.234477
-0.253794
-0.270244
-0.284476
-0.296994
-0.30808
-0.317691
-0.325139
-0.19454
-0.221311
-0.243789
-0.262732
-0.278849
-0.292765
-0.304943
-0.315627
-0.324774
-0.331999
-0.204593
-0.231888
-0.254815
-0.274114
-0.290452
-0.3044
-0.316371
-0.326578
-0.335013
-0.341512
-0.222205
-0.251085
-0.275232
-0.295361
-0.312119
-0.326044
-0.337516
-0.346744
-0.353793
-0.358658
-0.263526
-0.294389
-0.319673
-0.340155
-0.356563
-0.369475
-0.379282
-0.386207
-0.390395
-0.391931
-0.390752
-0.361527
-0.346159
-0.33716
-0.329898
-0.323139
-0.315815
-0.305438
-0.288202
-0.272782
-0.388621
-0.363038
-0.349432
-0.341163
-0.334125
-0.327261
-0.319833
-0.310212
-0.296335
-0.286758
-0.386011
-0.363832
-0.351942
-0.344519
-0.338018
-0.331606
-0.324804
-0.316667
-0.306466
-0.300829
-0.383671
-0.364539
-0.354222
-0.347619
-0.341693
-0.335791
-0.329577
-0.322454
-0.314204
-0.309787
-0.382375
-0.365804
-0.356833
-0.35095
-0.345554
-0.340145
-0.334504
-0.328251
-0.321351
-0.317311
-0.382796
-0.36823
-0.360312
-0.354975
-0.349974
-0.344935
-0.339721
-0.334099
-0.328104
-0.324136
-0.385519
-0.372357
-0.365145
-0.360119
-0.355306
-0.350437
-0.345438
-0.340167
-0.334701
-0.330663
-0.391044
-0.378654
-0.371761
-0.366765
-0.361887
-0.356951
-0.351932
-0.34675
-0.341499
-0.337327
-0.39978
-0.387507
-0.380517
-0.375238
-0.370011
-0.364741
-0.359453
-0.354101
-0.348787
-0.34444
-0.411962
-0.399205
-0.3917
-0.385799
-0.379909
-0.374014
-0.368186
-0.362398
-0.356743
-0.352177
-0.351794
-0.291768
-0.244387
-0.177937
-0.118926
-0.0671813
-0.0299123
-0.00593439
0.00644546
0.0106821
0.0101429
0.0076839
0.00506797
0.00303942
0.00169811
0.000894672
0.000442215
0.000207462
8.07694e-05
3.89168e-05
-0.363446
-0.299425
-0.251006
-0.182525
-0.121516
-0.0684127
-0.0303702
-0.00613078
0.00625908
0.0104401
0.00988048
0.00744663
0.0048776
0.00289667
0.00159517
0.000822654
0.000393862
0.000177296
6.42889e-05
3.60802e-05
-0.376666
-0.307411
-0.25811
-0.187947
-0.12514
-0.0707369
-0.0317637
-0.00701497
0.00563371
0.00994714
0.00948578
0.00714273
0.00465431
0.0027377
0.00148423
0.000746796
0.000343747
0.000146408
4.76073e-05
3.30775e-05
-0.391133
-0.31558
-0.265455
-0.194047
-0.129691
-0.0740791
-0.0340486
-0.00856466
0.00457828
0.00920693
0.00896071
0.00677345
0.00439888
0.00256296
0.00136555
0.000667203
0.000291883
0.000114734
3.06553e-05
2.98625e-05
-0.406515
-0.323891
-0.272826
-0.200659
-0.135033
-0.0783253
-0.037146
-0.0107333
0.00311527
0.00822909
0.00830935
0.00634059
0.0041121
0.00237282
0.00123929
0.00058392
0.000238242
8.22181e-05
1.33612e-05
2.63632e-05
-0.422401
-0.332378
-0.280032
-0.207587
-0.140989
-0.0833162
-0.0409381
-0.0134455
0.00128536
0.00703333
0.00754083
0.00584836
0.00379591
0.00216811
0.00110582
0.000497066
0.00018283
4.88239e-05
-4.33243e-06
2.25197e-05
-0.438382
-0.34136
-0.287118
-0.214792
-0.147516
-0.0889994
-0.0453795
-0.0166677
-0.000891292
0.00563038
0.00666092
0.00530012
0.00345233
0.00195008
0.000965873
0.000407069
0.000125874
1.46563e-05
-2.23924e-05
1.83177e-05
-0.45417
-0.351877
-0.294825
-0.222833
-0.155094
-0.0957484
-0.050737
-0.0205746
-0.00352329
0.0039563
0.00563475
0.004679
0.00307458
0.00171686
0.000819518
0.000314497
6.78811e-05
-1.99842e-05
-4.06854e-05
1.37828e-05
-0.467368
-0.364219
-0.303594
-0.231961
-0.163858
-0.103645
-0.0570803
-0.0252403
-0.00668839
0.00193977
0.0044073
0.00394906
0.00264235
0.00145828
0.000662133
0.000217383
8.05094e-06
-5.53955e-05
-5.93102e-05
8.85226e-06
-0.46735
-0.372192
-0.309233
-0.238037
-0.169858
-0.109351
-0.0619185
-0.0290024
-0.00938564
0.000126471
0.0032461
0.00322487
0.00219423
0.0011798
0.000487866
0.00010837
-5.91509e-05
-9.47087e-05
-7.9662e-05
2.96806e-06
-0.444326
-0.370996
-0.309085
-0.238764
-0.170879
-0.110818
-0.063455
-0.0303505
-0.0103965
-0.000575241
0.00274365
0.00282208
0.00184865
0.000889619
0.000260806
-5.49686e-05
-0.000167404
-0.000159309
-0.000112805
-7.26936e-06
-0.421078
-0.358606
-0.297668
-0.232058
-0.168825
-0.112521
-0.0672835
-0.0348852
-0.0146099
-0.00394416
0.000328477
0.0012166
0.000829948
0.000258361
-0.000126174
-0.00029017
-0.000307986
-0.000239523
-0.000153334
-1.89008e-05
-0.390032
-0.336477
-0.278759
-0.220293
-0.164021
-0.113004
-0.0709204
-0.039836
-0.0195228
-0.00804487
-0.00269683
-0.000822772
-0.000462709
-0.000531613
-0.00060007
-0.000571611
-0.000472863
-0.000332488
-0.000199874
-3.23144e-05
-0.34718
-0.306133
-0.255488
-0.205542
-0.157393
-0.112551
-0.0742452
-0.0448515
-0.0247013
-0.0124806
-0.00604015
-0.00312092
-0.00194647
-0.00145316
-0.00115948
-0.000905861
-0.000668757
-0.000442631
-0.000254591
-4.84474e-05
-0.296566
-0.269872
-0.229705
-0.188931
-0.149209
-0.111075
-0.0771002
-0.0498045
-0.0300741
-0.0172344
-0.00971829
-0.00570454
-0.00364358
-0.00252038
-0.00181184
-0.00129627
-0.000896923
-0.000570342
-0.000317541
-6.72895e-05
-0.245982
-0.231657
-0.203219
-0.171743
-0.140033
-0.108562
-0.0792145
-0.0543821
-0.0353749
-0.0221209
-0.0136259
-0.00852383
-0.00553286
-0.00372402
-0.00255244
-0.00173993
-0.00115542
-0.000714371
-0.000388032
-8.86049e-05
-0.201486
-0.195651
-0.177826
-0.155131
-0.13062
-0.105219
-0.0804049
-0.0582417
-0.0402402
-0.0268254
-0.0175314
-0.011431
-0.00752891
-0.00501707
-0.00335577
-0.00222298
-0.00143661
-0.000870549
-0.000464034
-0.000111765
-0.165939
-0.165099
-0.155365
-0.140147
-0.121757
-0.101484
-0.0806997
-0.0611441
-0.0443214
-0.0309896
-0.0211266
-0.0141973
-0.0094801
-0.00630588
-0.00416631
-0.00271339
-0.00172246
-0.00102905
-0.000540833
-0.000135317
-0.14057
-0.142305
-0.137843
-0.128116
-0.114412
-0.0980383
-0.0803957
-0.0630245
-0.0473305
-0.0342355
-0.0240351
-0.0165056
-0.0111513
-0.00743186
-0.0048839
-0.00315091
-0.00197829
-0.0011709
-0.000609316
-0.000156468
-0.126483
-0.129295
-0.127514
-0.120854
-0.109892
-0.0958045
-0.0800117
-0.0639787
-0.0490344
-0.0361532
-0.0257999
-0.0179371
-0.0122079
-0.00815467
-0.00534945
-0.00343671
-0.00214599
-0.00126407
-0.000653998
-0.000170372
-0.486572
-0.50126
-0.510682
-0.515331
-0.516017
-0.513963
-0.51098
-0.509708
-0.514924
-0.538904
-0.400854
-0.415524
-0.427294
-0.436671
-0.444338
-0.451131
-0.457943
-0.465547
-0.473816
-0.488492
-0.330099
-0.343707
-0.355803
-0.366595
-0.376255
-0.384886
-0.392526
-0.399341
-0.405274
-0.416001
-0.269715
-0.281372
-0.291981
-0.301604
-0.310313
-0.318219
-0.325509
-0.332511
-0.339284
-0.348193
-0.219178
-0.228955
-0.238033
-0.246461
-0.254299
-0.261616
-0.268478
-0.27495
-0.280987
-0.287295
-0.17794
-0.186058
-0.193672
-0.200794
-0.207441
-0.213631
-0.219386
-0.224736
-0.229707
-0.234451
-0.145124
-0.151813
-0.158106
-0.164002
-0.169506
-0.174625
-0.17937
-0.183757
-0.187795
-0.191491
-0.120202
-0.125768
-0.131007
-0.135912
-0.140479
-0.144706
-0.148599
-0.15216
-0.155396
-0.15831
-0.102798
-0.107555
-0.112029
-0.116211
-0.120092
-0.123668
-0.126938
-0.129906
-0.132573
-0.134947
-0.093317
-0.0975836
-0.101595
-0.105341
-0.108815
-0.112013
-0.114933
-0.117574
-0.119937
-0.122026
-0.0451358
-0.110886
-0.175129
-0.231368
-0.28275
-0.32989
-0.372122
-0.409046
-0.440493
-0.466349
-0.0622975
-0.113167
-0.161708
-0.203214
-0.240904
-0.276034
-0.308084
-0.336617
-0.361553
-0.382934
-0.0723759
-0.112997
-0.148646
-0.179005
-0.206711
-0.232653
-0.256547
-0.27815
-0.297504
-0.314765
-0.0759435
-0.107353
-0.13237
-0.153745
-0.173919
-0.193173
-0.211169
-0.227757
-0.242983
-0.256943
-0.0735462
-0.0966744
-0.114102
-0.129248
-0.144108
-0.158632
-0.172414
-0.185322
-0.19739
-0.208666
-0.0667286
-0.0832503
-0.0957759
-0.107028
-0.118324
-0.129525
-0.140286
-0.150492
-0.16016
-0.169308
-0.0582784
-0.0701186
-0.0795648
-0.0883505
-0.0972151
-0.106035
-0.114581
-0.122768
-0.13059
-0.138046
-0.0502498
-0.059013
-0.0665133
-0.0736783
-0.0808743
-0.0880199
-0.0949805
-0.101696
-0.108149
-0.114324
-0.0438716
-0.0507804
-0.0571046
-0.0632406
-0.0693503
-0.0753906
-0.0812875
-0.0869986
-0.0925008
-0.0977738
-0.0400907
-0.046165
-0.0519728
-0.057624
-0.0631888
-0.0686511
-0.0739703
-0.0791163
-0.0840678
-0.0888069
0.200778
0.201668
0.203892
0.206875
0.210903
0.213569
0.215168
0.204054
0.17854
0.0700756
0.192191
0.192628
0.19379
0.195028
0.196211
0.1948
0.189911
0.170487
0.131795
0.0301181
0.181989
0.181957
0.181981
0.181359
0.179636
0.17433
0.163863
0.139311
0.0958902
0.011744
0.170055
0.16951
0.168322
0.165784
0.161191
0.1524
0.137402
0.110393
0.0661529
-0.00406172
0.156456
0.155398
0.153031
0.148703
0.141579
0.130049
0.112006
0.0843994
0.041983
-0.016928
0.141523
0.140003
0.136616
0.130805
0.121766
0.10844
0.0889972
0.0621911
0.0239096
-0.0245061
0.125958
0.124076
0.119933
0.113089
0.1029
0.0887605
0.0693886
0.044493
0.0116166
-0.0273411
0.110937
0.108826
0.104248
0.096871
0.0862734
0.0721743
0.0538817
0.0315046
0.00395154
-0.0272777
0.0982006
0.0959917
0.0912664
0.0837767
0.0732993
0.0597572
0.0428972
0.0229495
-0.00036849
-0.0260236
0.0901729
0.087946
0.0832286
0.0758218
0.0656168
0.0526369
0.0368531
0.0185157
-0.0023069
-0.024859
0.238312
0.240361
0.245895
0.25451
0.268011
0.285937
0.312823
0.347531
0.399831
0.467116
0.235589
0.237561
0.242894
0.251163
0.26414
0.281215
0.306825
0.339351
0.387914
0.448936
0.23264
0.23453
0.23964
0.247526
0.259912
0.275996
0.300117
0.329921
0.373868
0.426466
0.229475
0.231282
0.236152
0.24362
0.25535
0.270316
0.292745
0.319295
0.357835
0.399811
0.226109
0.227832
0.232447
0.239468
0.25048
0.26421
0.284755
0.307537
0.339984
0.369063
0.222558
0.224198
0.228546
0.235094
0.245329
0.257721
0.27619
0.294725
0.320497
0.334282
0.218839
0.220402
0.224478
0.230538
0.239946
0.250922
0.267133
0.280999
0.299603
0.295543
0.214971
0.216475
0.220289
0.225868
0.234431
0.243961
0.257772
0.266632
0.277604
0.252829
0.210969
0.212427
0.215984
0.221085
0.228775
0.236833
0.248065
0.251608
0.254254
0.20495
0.20682
0.20816
0.211337
0.215786
0.22231
0.228561
0.236562
0.234357
0.22721
0.150258
0.251894
0.254341
0.260493
0.27024
0.284911
0.303997
0.330754
0.359889
0.398644
0.409988
0.251635
0.254089
0.260349
0.270242
0.28527
0.304955
0.33314
0.36511
0.409768
0.437467
0.251141
0.253569
0.25983
0.269696
0.284771
0.304602
0.333386
0.367159
0.415704
0.456882
0.250414
0.252814
0.259064
0.268895
0.283996
0.303959
0.333233
0.368626
0.420514
0.472477
0.249444
0.251815
0.258042
0.267823
0.282919
0.302972
0.332609
0.36935
0.423964
0.484392
0.248224
0.25056
0.256738
0.266434
0.281455
0.301492
0.331268
0.368925
0.42546
0.492234
0.24675
0.249043
0.255146
0.264712
0.279581
0.299473
0.329146
0.367239
0.424827
0.495886
0.245019
0.247262
0.253262
0.262657
0.277296
0.296909
0.326241
0.364273
0.421998
0.495271
0.243033
0.245219
0.251089
0.260267
0.274602
0.293797
0.32255
0.360005
0.416905
0.490301
0.240796
0.242916
0.248631
0.257549
0.271504
0.290137
0.318073
0.354423
0.409513
0.480919
0.211352
0.210027
0.207202
0.202705
0.196328
0.18786
0.177006
0.163597
0.147324
0.128343
0.216017
0.214883
0.212434
0.208452
0.202643
0.194682
0.184105
0.170588
0.153549
0.133064
0.22297
0.222181
0.220431
0.217447
0.21282
0.206026
0.196322
0.183037
0.165079
0.142242
0.230432
0.230112
0.229349
0.227832
0.225062
0.220268
0.212407
0.200187
0.181831
0.156316
0.23726
0.237483
0.237911
0.238224
0.237918
0.235978
0.231171
0.221271
0.203813
0.17586
0.242845
0.243628
0.245329
0.247664
0.250236
0.251849
0.251324
0.245232
0.230755
0.201294
0.246985
0.24829
0.251231
0.255589
0.261193
0.266787
0.271551
0.270752
0.261809
0.23239
0.249737
0.251493
0.255554
0.261779
0.270314
0.279998
0.290662
0.2965
0.295542
0.267485
0.2513
0.253412
0.258416
0.266238
0.277379
0.290921
0.307558
0.321145
0.330498
0.304836
0.251929
0.254278
0.260003
0.269043
0.282301
0.299131
0.321372
0.343331
0.366691
0.350911
0.114646
0.108888
0.103002
0.097081
0.0911096
0.08508
0.0790091
0.0729218
0.0668413
0.0607886
0.11781
0.111352
0.104745
0.0981594
0.0915262
0.0848033
0.0780083
0.0711775
0.0643429
0.0575313
0.124309
0.116356
0.108135
0.100132
0.0921815
0.0841416
0.076013
0.0678483
0.0596911
0.0515709
0.13481
0.124533
0.113697
0.103467
0.0935257
0.0835235
0.0734165
0.0632844
0.0531893
0.0431603
0.150201
0.136698
0.122019
0.108601
0.0959051
0.0832137
0.0703991
0.0575882
0.0448728
0.0322753
0.171481
0.153815
0.133795
0.116031
0.0996901
0.0834649
0.0671049
0.0508216
0.0347466
0.0188837
0.199629
0.177001
0.149933
0.126474
0.105411
0.084588
0.0636591
0.0429825
0.0227225
0.00284265
0.23471
0.206465
0.170715
0.140341
0.113332
0.0865995
0.0599324
0.0338836
0.00859909
-0.0160182
0.276619
0.241726
0.196597
0.158653
0.124197
0.0899437
0.0562229
0.0237046
-0.00746829
-0.037313
0.323878
0.280389
0.227225
0.180439
0.135927
0.0922323
0.0501867
0.0103132
-0.0271815
-0.0621184
0.0547831
0.0488435
0.0429875
0.0372313
0.0315894
0.0260747
0.020699
0.0154732
0.0104069
0.00550836
0.0507677
0.0440762
0.0374801
0.031001
0.0246585
0.0184695
0.0124491
0.00661043
0.000965312
-0.00445829
0.0435124
0.0355398
0.0276766
0.0199445
0.0123625
0.00494723
-0.00228681
-0.00932798
-0.016167
-0.0227263
0.033216
0.0233752
0.0136577
0.00408103
-0.00534087
-0.014597
-0.0236784
-0.0325793
-0.0413022
-0.0497183
0.0197984
0.00744849
-0.00476485
-0.0168336
-0.0287534
-0.0405235
-0.0521479
-0.0636376
-0.0750305
-0.0863589
0.00320791
-0.012296
-0.0276394
-0.0428417
-0.0579317
-0.0729424
-0.0879053
-0.102835
-0.117794
-0.13347
-0.0167161
-0.035986
-0.0549897
-0.073759
-0.0923479
-0.110846
-0.129388
-0.148099
-0.167337
-0.188762
-0.0400737
-0.0636506
-0.0868268
-0.109665
-0.132196
-0.154434
-0.17641
-0.198204
-0.221052
-0.247242
-0.0658591
-0.0931866
-0.119477
-0.145009
-0.170132
-0.19523
-0.220648
-0.246702
-0.275591
-0.306512
-0.0943666
-0.123893
-0.150856
-0.175644
-0.198908
-0.221571
-0.244728
-0.269871
-0.302719
-0.34545
-0.00604806
-0.0219596
-0.0349987
-0.0440245
-0.0482986
-0.0476626
-0.0426528
-0.0345711
-0.0252199
-0.0163397
-0.00913229
-0.00406644
-0.000985978
0.000590206
0.00119135
0.00124429
0.00104006
0.000734531
0.000426557
9.88318e-05
-0.0176912
-0.0343385
-0.0466911
-0.0542316
-0.056624
-0.0538804
-0.0467182
-0.036709
-0.0258986
-0.0161339
-0.00855648
-0.00346523
-0.000523011
0.000880784
0.00134228
0.00130607
0.00105518
0.000731387
0.00042089
9.78831e-05
-0.038977
-0.056456
-0.0671451
-0.0718225
-0.0707878
-0.0643045
-0.0533917
-0.0400742
-0.0268172
-0.0156318
-0.0075158
-0.00244707
0.000228689
0.00133625
0.00157095
0.00139549
0.00107399
0.000724002
0.000410378
9.65767e-05
-0.0693946
-0.0868927
-0.0946389
-0.0950083
-0.0890458
-0.0774083
-0.061485
-0.0438639
-0.0275505
-0.0147131
-0.00607801
-0.00115579
0.00112698
0.00185259
0.00181571
0.00148244
0.00108509
0.000709575
0.000395076
9.45809e-05
-0.107419
-0.123261
-0.126913
-0.121526
-0.109311
-0.0915229
-0.0698058
-0.0473546
-0.0277826
-0.0133426
-0.004349
0.000268154
0.00205598
0.00235546
0.0020372
0.00154994
0.00108319
0.000687657
0.000375766
9.18279e-05
-0.148883
-0.161346
-0.160187
-0.147666
-0.128477
-0.104341
-0.0768275
-0.0497304
-0.0272254
-0.0115271
-0.00244627
0.001704
0.00293243
0.00279949
0.0022152
0.00159118
0.00106748
0.000659356
0.000353593
8.84158e-05
-0.187308
-0.196161
-0.189625
-0.169074
-0.143241
-0.11345
-0.0810103
-0.0502374
-0.0256541
-0.00929849
-0.000473047
0.00306599
0.00370799
0.00316399
0.00234361
0.00160621
0.00103985
0.000626499
0.000329784
8.45105e-05
-0.218308
-0.224451
-0.211681
-0.183385
-0.152142
-0.117857
-0.0818485
-0.048748
-0.0231354
-0.00676973
0.00149046
0.00432281
0.00438262
0.00346016
0.00243406
0.00160361
0.00100573
0.000592135
0.0003059
8.04463e-05
-0.244601
-0.245859
-0.225875
-0.19128
-0.156017
-0.118366
-0.0800974
-0.0458525
-0.020053
-0.00413993
0.00337759
0.00547967
0.0049859
0.0037169
0.00250699
0.00159563
0.000971774
0.000559533
0.00028346
7.66321e-05
-0.274288
-0.260991
-0.233148
-0.19365
-0.15516
-0.114945
-0.0756103
-0.0414306
-0.0164033
-0.00152294
0.00500876
0.00635265
0.00537115
0.00383693
0.00250611
0.00155285
0.000923726
0.000522445
0.000260126
7.22642e-05
-0.305699
-0.267173
-0.234237
-0.191111
-0.149624
-0.107367
-0.0680662
-0.0353874
-0.0124692
0.000487446
0.00567613
0.00630896
0.00507835
0.00353633
0.00227809
0.00140153
0.000829817
0.000469138
0.00023267
6.56246e-05
-0.320164
-0.267976
-0.232283
-0.186558
-0.143515
-0.100433
-0.0616593
-0.0303274
-0.00903779
0.00249388
0.00667077
0.00670757
0.00518328
0.00352275
0.00222976
0.00135243
0.000790745
0.000442769
0.000217294
6.21525e-05
-0.324028
-0.266487
-0.229491
-0.181654
-0.137521
-0.0939674
-0.0558696
-0.0258393
-0.00601585
0.00428386
0.00760362
0.00713146
0.0053415
0.0035574
0.0022145
0.00132253
0.000761615
0.000420794
0.000203609
5.94418e-05
-0.324304
-0.265481
-0.227533
-0.177618
-0.132243
-0.0881373
-0.0506628
-0.0218671
-0.00340793
0.0057783
0.00834747
0.00744515
0.00544014
0.0035619
0.00218489
0.00128616
0.000729715
0.00039769
0.000189546
5.68617e-05
-0.324115
-0.265595
-0.226499
-0.174368
-0.127497
-0.0826901
-0.045764
-0.0181651
-0.00103027
0.00709296
0.00896451
0.00767716
0.00549007
0.0035392
0.00214096
0.00124264
0.000694448
0.000373108
0.000174947
5.43174e-05
-0.324379
-0.266875
-0.226447
-0.171994
-0.123414
-0.0777645
-0.0412734
-0.0147836
0.00110621
0.0082389
0.00947396
0.0078463
0.00550567
0.0034986
0.00208799
0.00119468
0.00065707
0.000347568
0.000159997
5.18221e-05
-0.325807
-0.269416
-0.227555
-0.170708
-0.12023
-0.073592
-0.0373717
-0.0118413
0.00293735
0.00918739
0.00986598
0.00795088
0.00548789
0.00344138
0.00202693
0.00114283
0.000617861
0.000321186
0.000144736
4.9348e-05
-0.329023
-0.273287
-0.22995
-0.170655
-0.11812
-0.0703487
-0.0341971
-0.00942672
0.00441642
0.00991737
0.010132
0.00798743
0.00543522
0.00336685
0.00195742
0.00108691
0.000576737
0.000293919
0.000129139
4.6848e-05
-0.334397
-0.278432
-0.233638
-0.171878
-0.117185
-0.0681563
-0.0318515
-0.00760597
0.0055104
0.0104158
0.0102681
0.00795497
0.00534738
0.00327483
0.00187937
0.00102687
0.000533712
0.000265825
0.000113245
4.42905e-05
-0.342026
-0.284678
-0.238515
-0.17434
-0.11746
-0.0670908
-0.030409
-0.00643046
0.00619306
0.0106731
0.0102722
0.00785367
0.00522479
0.00316559
0.00179288
0.000962775
0.000488845
0.000236984
9.71053e-05
4.16489e-05
)
;

boundaryField
{
    inlet
    {
        type            freestreamPressure;
        freestreamValue uniform 0;
        supersonic      false;
        value           nonuniform List<scalar> 
40
(
0.200778
0.192191
0.181989
0.170055
0.156456
0.141523
0.125958
0.110937
0.0982006
0.0901729
0.238312
0.235589
0.23264
0.229475
0.226109
0.222558
0.218839
0.214971
0.210969
0.20682
0.251894
0.251635
0.251141
0.250414
0.249444
0.248224
0.24675
0.245019
0.243033
0.240796
0.211352
0.216017
0.22297
0.230432
0.23726
0.242845
0.246985
0.249737
0.2513
0.251929
)
;
    }
    outlet
    {
        type            freestreamPressure;
        freestreamValue uniform 0;
        supersonic      false;
        value           nonuniform List<scalar> 
40
(
-2.78093e-12
-6.57259e-12
-9.93261e-12
-1.26865e-11
-1.42508e-11
-1.40941e-11
-1.19666e-11
-8.15457e-12
-3.71156e-12
-4.74913e-13
2.08662e-11
1.88749e-11
1.68539e-11
1.47936e-11
1.26771e-11
1.0495e-11
8.261e-12
6.00675e-12
3.72337e-12
1.20268e-12
4.05378e-11
3.82098e-11
3.6278e-11
3.43842e-11
3.24787e-11
3.0578e-11
2.86761e-11
2.67568e-11
2.48146e-11
2.28484e-11
1.32077e-12
1.00105e-11
2.17404e-11
3.2472e-11
4.03819e-11
4.5165e-11
4.72692e-11
4.74849e-11
4.66607e-11
4.46897e-11
)
;
    }
    top
    {
        type            symmetryPlane;
    }
    bottom
    {
        type            symmetryPlane;
    }
    cylinder
    {
        type            zeroGradient;
    }
    frontandback
    {
        type            empty;
    }
}


// ************************************************************************* //
