/*--------------------------------*- C++ -*----------------------------------*\
  =========                 |
  \\      /  F ield         | OpenFOAM: The Open Source CFD Toolbox
   \\    /   O peration     | Website:  https://openfoam.org
    \\  /    A nd           | Version:  6.0
     \\/     M anipulation  |
\*---------------------------------------------------------------------------*/
FoamFile
{
    version     2.0;
    format      ascii;
    class       volVectorField;
    location    "4.515";
    object      U;
}
// * * * * * * * * * * * * * * * * * * * * * * * * * * * * * * * * * * * * * //

dimensions      [0 1 -1 0 0 0 0];

internalField   nonuniform List<vector> 
2400
(
(0.0176491 -0.42517 -1.30811e-20)
(0.00583634 -0.318285 5.83413e-21)
(-0.00202592 -0.24028 -6.51195e-21)
(-0.00680789 -0.183777 -4.25832e-21)
(-0.00871965 -0.143071 -7.35708e-21)
(-0.00799463 -0.113825 1.02108e-20)
(-0.00517158 -0.0928042 4.13523e-21)
(-0.000828125 -0.0776149 3.92346e-21)
(0.00450477 -0.0664884 -9.12218e-21)
(0.00974479 -0.0581503 -7.29628e-22)
(0.050788 -0.419473 1.47093e-20)
(0.0316411 -0.312365 -1.49396e-21)
(0.0201036 -0.236032 3.11928e-21)
(0.0141782 -0.182081 4.01058e-20)
(0.0129221 -0.144176 -3.0685e-20)
(0.0155907 -0.117576 -1.52044e-21)
(0.0212638 -0.0987901 -4.04654e-22)
(0.0290924 -0.0852389 -4.17747e-21)
(0.0383689 -0.0749973 -7.25686e-21)
(0.0476631 -0.0667336 -2.87004e-21)
(0.0832999 -0.411896 2.76921e-20)
(0.0572477 -0.306283 2.80237e-20)
(0.0430183 -0.232834 -8.0934e-20)
(0.0371867 -0.182298 2.68068e-20)
(0.037929 -0.147812 4.45792e-20)
(0.0439176 -0.124308 -2.57035e-20)
(0.0538126 -0.10809 -2.25018e-20)
(0.0664783 -0.0964067 2.10563e-20)
(0.081028 -0.0871401 -4.81013e-20)
(0.0955788 -0.0788816 5.12335e-20)
(0.115212 -0.402601 -9.68295e-20)
(0.0830504 -0.300351 4.84336e-20)
(0.0673685 -0.231008 -4.81555e-20)
(0.0630361 -0.184676 2.4661e-20)
(0.0672073 -0.154122 -2.86003e-20)
(0.0779034 -0.134062 4.60713e-20)
(0.0933336 -0.120676 2.49717e-20)
(0.112069 -0.111064 -7.6091e-20)
(0.133048 -0.10287 -7.48207e-20)
(0.153831 -0.0945724 8.79285e-20)
(0.146581 -0.391729 3.81856e-21)
(0.10957 -0.294767 -1.89627e-20)
(0.0940124 -0.230666 -8.67347e-21)
(0.0928091 -0.189166 -1.0561e-20)
(0.101963 -0.162858 -7.17447e-20)
(0.118786 -0.146393 1.15948e-20)
(0.141011 -0.135937 -7.99509e-21)
(0.16692 -0.128502 8.40217e-20)
(0.195302 -0.121461 -5.93316e-20)
(0.223059 -0.113142 -4.32107e-20)
(0.177519 -0.379416 9.47193e-20)
(0.137456 -0.289624 -9.73067e-21)
(0.123987 -0.231723 1.47854e-19)
(0.127796 -0.19542 -1.90903e-20)
(0.143625 -0.173368 9.32668e-20)
(0.168026 -0.160329 -1.07763e-20)
(0.198238 -0.152611 -8.12477e-22)
(0.232267 -0.14725 6.90954e-20)
(0.268802 -0.141364 -3.88382e-20)
(0.304028 -0.133119 7.50583e-20)
(0.208203 -0.365786 -3.58924e-20)
(0.167473 -0.284914 1.2767e-20)
(0.158451 -0.233899 -3.79076e-20)
(0.169397 -0.202823 -4.80967e-20)
(0.193711 -0.184649 -5.21253e-21)
(0.227143 -0.174442 1.59454e-19)
(0.266426 -0.168843 -5.73329e-20)
(0.309301 -0.165108 2.90578e-20)
(0.354457 -0.160211 -1.00194e-19)
(0.397396 -0.152215 -6.41389e-20)
(0.238878 -0.350941 1.73159e-19)
(0.200463 -0.280507 -1.9566e-20)
(0.198589 -0.236729 -2.06948e-19)
(0.218969 -0.210529 1.17137e-20)
(0.253612 -0.195429 5.10361e-20)
(0.297447 -0.186966 -7.65151e-20)
(0.346673 -0.182313 -1.04294e-19)
(0.398777 -0.179203 1.59362e-19)
(0.45263 -0.174716 -1.3355e-20)
(0.503321 -0.167048 -1.48857e-19)
(0.269863 -0.334942 -1.45299e-19)
(0.237283 -0.276122 8.59135e-20)
(0.24549 -0.239564 1.36674e-19)
(0.277653 -0.217536 3.76086e-20)
(0.324401 -0.204334 -1.47767e-19)
(0.379822 -0.196049 9.8812e-20)
(0.439523 -0.190448 6.21098e-20)
(0.500641 -0.185874 1.32958e-19)
(0.562369 -0.179787 -8.07864e-20)
(0.620286 -0.171437 -1.20528e-19)
(0.301508 -0.317726 4.94063e-20)
(0.278681 -0.271255 -2.05152e-20)
(0.299962 -0.241571 -6.4232e-22)
(0.346171 -0.222816 4.28489e-20)
(0.406703 -0.210252 3.67638e-20)
(0.474938 -0.200515 -2.59793e-20)
(0.545989 -0.19176 -5.31882e-20)
(0.616492 -0.182604 8.51653e-20)
(0.685225 -0.171034 -7.36388e-20)
(0.748658 -0.159135 6.73719e-20)
(0.627354 -0.00962581 4.23488e-21)
(0.600768 -0.0562059 1.22851e-20)
(0.570846 -0.0988999 -4.10792e-20)
(0.538547 -0.137627 3.62453e-20)
(0.504725 -0.172459 1.35723e-20)
(0.470131 -0.203606 1.70778e-19)
(0.43538 -0.231393 -6.52413e-20)
(0.400927 -0.256221 -8.83968e-20)
(0.367092 -0.278556 9.21577e-20)
(0.334021 -0.298909 -1.59537e-19)
(0.856371 0.0163562 1.50898e-20)
(0.803954 -0.0437097 -4.922e-21)
(0.745441 -0.0962788 -4.13302e-20)
(0.682977 -0.140915 1.08932e-19)
(0.618621 -0.177594 -3.66309e-20)
(0.55428 -0.206683 2.76914e-19)
(0.491597 -0.228892 -1.70769e-19)
(0.431911 -0.245213 2.45374e-19)
(0.37619 -0.256844 -1.67738e-19)
(0.325043 -0.265114 -8.607e-20)
(1.05079 0.064469 -3.00186e-20)
(0.988497 -0.00514852 4.5419e-21)
(0.916711 -0.0664521 -1.31435e-19)
(0.838026 -0.118406 1.01161e-19)
(0.75515 -0.160503 -1.03327e-19)
(0.670751 -0.192778 -1.93855e-19)
(0.587312 -0.215796 -6.32036e-20)
(0.50698 -0.230598 -5.44705e-20)
(0.431501 -0.23865 1.70867e-19)
(0.362186 -0.241712 8.83106e-20)
(1.20559 0.112399 1.37474e-20)
(1.14353 0.0375732 -2.41444e-20)
(1.06887 -0.0296678 -3.3026e-20)
(0.984111 -0.0877341 -1.29581e-19)
(0.892082 -0.135543 7.54313e-20)
(0.795805 -0.172592 2.20204e-19)
(0.698278 -0.199006 9.48831e-20)
(0.602284 -0.215563 1.83996e-20)
(0.510264 -0.223679 5.06409e-20)
(0.424268 -0.225343 -2.02778e-21)
(1.32185 0.152427 -1.62315e-20)
(1.26616 0.0761884 -6.41195e-20)
(1.19556 0.00604509 8.43445e-21)
(1.11208 -0.0560267 1.11954e-19)
(1.01825 -0.108441 1.15678e-19)
(0.917039 -0.150125 -7.6685e-20)
(0.811585 -0.180633 -1.43255e-19)
(0.70501 -0.200277 -6.95918e-20)
(0.60019 -0.210219 8.17422e-20)
(0.499767 -0.212572 1.11709e-19)
(1.40405 0.182961 3.37426e-21)
(1.35795 0.108191 5.45202e-20)
(1.29564 0.0377723 -1.28218e-19)
(1.21846 -0.0261343 1.60992e-19)
(1.12837 -0.08159 9.54624e-20)
(1.02791 -0.127017 1.74392e-19)
(0.920022 -0.16137 -3.72583e-20)
(0.80779 -0.184367 -1.00443e-19)
(0.694141 -0.196753 2.38111e-19)
(0.581821 -0.200724 -1.93881e-19)
(1.45807 0.204183 8.35399e-21)
(1.42264 0.132798 -6.56324e-20)
(1.3707 0.0640882 -4.1124e-20)
(1.30284 0.000212493 -8.80612e-20)
(1.2203 -0.0567093 -1.2551e-20)
(1.12498 -0.104716 -1.30654e-19)
(1.01933 -0.142187 -8.12863e-20)
(0.906047 -0.168149 -1.69223e-20)
(0.78762 -0.182747 -1.48045e-19)
(0.66594 -0.188236 2.11098e-19)
(1.48986 0.217268 -7.4075e-21)
(1.46477 0.150308 5.48243e-20)
(1.4237 0.0845943 -2.46736e-20)
(1.36656 0.0221362 5.48774e-20)
(1.29387 -0.0349314 1.35627e-19)
(1.20681 -0.0844089 2.22158e-19)
(1.10719 -0.124151 -6.38221e-20)
(0.99712 -0.152373 -2.20905e-19)
(0.878152 -0.168235 6.03345e-20)
(0.749769 -0.17379 -3.48013e-19)
(1.50463 0.22396 1.08015e-20)
(1.48873 0.161691 -1.28935e-20)
(1.45796 0.0995281 -1.33084e-19)
(1.4117 0.0392285 4.07876e-20)
(1.34985 -0.0172052 -9.50794e-20)
(1.27293 -0.0674927 -3.97656e-20)
(1.18213 -0.109068 -3.18267e-20)
(1.07902 -0.139171 9.1901e-20)
(0.96424 -0.15514 1.05881e-19)
(0.833093 -0.157059 6.5238e-20)
(1.50644 0.225899 -2.63056e-20)
(1.49819 0.168434 4.72705e-20)
(1.47654 0.110085 2.20458e-20)
(1.44051 0.0522777 6.76355e-20)
(1.38952 -0.00324865 -7.8757e-21)
(1.3235 -0.0543213 -5.10841e-21)
(1.24317 -0.0981888 -1.77427e-19)
(1.14995 -0.131274 2.27652e-19)
(1.04469 -0.14863 -1.41504e-19)
(0.917325 -0.14451 2.99201e-20)
(0.541653 0.502951 -5.91176e-20)
(0.582206 0.463584 6.80658e-20)
(0.616454 0.418703 1.13194e-21)
(0.643709 0.369257 -1.68007e-19)
(0.663439 0.316323 1.24927e-19)
(0.67538 0.261088 -9.38506e-20)
(0.679545 0.204772 -2.29465e-20)
(0.676213 0.148557 -2.19487e-20)
(0.66592 0.0935284 3.6425e-20)
(0.649409 0.0405902 2.53155e-21)
(0.760756 0.680031 8.80556e-20)
(0.822616 0.637745 2.33932e-20)
(0.875233 0.5852 -1.20726e-19)
(0.917033 0.523917 -1.47796e-19)
(0.946729 0.45567 1.16821e-19)
(0.963454 0.382465 -1.05142e-19)
(0.966824 0.306454 1.25804e-19)
(0.956956 0.22983 -3.2849e-20)
(0.934485 0.15471 -1.10946e-19)
(0.900515 0.0830114 -8.39446e-21)
(0.897042 0.760678 -6.6174e-21)
(0.971146 0.724336 1.89824e-21)
(1.036 0.675517 7.97106e-20)
(1.08948 0.615672 8.11887e-20)
(1.12975 0.546567 1.86751e-19)
(1.15538 0.470268 6.72113e-20)
(1.16545 0.389083 -4.52928e-20)
(1.15956 0.305466 -1.00089e-19)
(1.13789 0.221917 8.13831e-20)
(1.10123 0.140847 5.62886e-21)
(0.979581 0.779388 2.40926e-20)
(1.05962 0.751204 -5.61831e-20)
(1.13167 0.710049 -2.74121e-20)
(1.19332 0.657066 -1.54714e-19)
(1.24246 0.593714 -9.43558e-20)
(1.27727 0.521784 1.82294e-19)
(1.29638 0.443356 1.24141e-19)
(1.29887 0.360736 -1.04597e-19)
(1.28435 0.27638 4.88356e-21)
(1.25302 0.192791 -4.70622e-21)
(1.02792 0.76161 -6.57846e-20)
(1.10962 0.740989 1.08345e-19)
(1.18494 0.707966 -2.82358e-20)
(1.25139 0.663298 8.42517e-20)
(1.30676 0.608065 -5.88894e-20)
(1.34911 0.543682 -1.09741e-19)
(1.37681 0.471863 5.88023e-20)
(1.38855 0.394581 -6.21102e-20)
(1.38349 0.314021 -6.21878e-20)
(1.36123 0.232513 2.73641e-20)
(1.0555 0.724659 -1.18063e-20)
(1.13624 0.7101 2.00017e-20)
(1.21203 0.684294 -1.94101e-20)
(1.28042 0.647579 -1.60512e-19)
(1.33929 0.600669 9.21685e-20)
(1.38679 0.544634 1.83908e-20)
(1.42125 0.48082 -1.01288e-19)
(1.44121 0.410828 -3.74582e-20)
(1.4455 0.336488 3.50944e-20)
(1.43327 0.25982 -9.95151e-21)
(1.07114 0.679424 -1.7831e-20)
(1.14974 0.669388 4.78552e-21)
(1.22425 0.649517 2.64264e-20)
(1.29235 0.619657 9.1168e-20)
(1.3523 0.580232 2.30226e-20)
(1.40251 0.532054 5.82884e-20)
(1.44145 0.476176 1.23779e-19)
(1.46768 0.413876 -5.30593e-20)
(1.47991 0.346638 4.98261e-20)
(1.477 0.276133 -1.87705e-20)
(1.08048 0.632386 -1.44645e-20)
(1.15661 0.625984 2.12977e-20)
(1.22871 0.610954 2.09992e-20)
(1.29486 0.586655 -4.70221e-20)
(1.35392 0.553424 -3.06948e-20)
(1.40472 0.511958 -6.42999e-20)
(1.44599 0.463128 9.01981e-21)
(1.4764 0.407973 -1.51571e-20)
(1.49466 0.347688 -1.06122e-19)
(1.49953 0.283623 1.49617e-20)
(1.0877 0.587895 -2.40824e-21)
(1.16069 0.584925 -1.72952e-20)
(1.22921 0.573764 -1.67556e-20)
(1.29204 0.553665 1.06052e-20)
(1.34877 0.525167 -4.65531e-21)
(1.39862 0.489016 5.7073e-20)
(1.44052 0.445985 2.57517e-20)
(1.4733 0.39694 4.16054e-20)
(1.49573 0.342853 5.10732e-20)
(1.50659 0.284798 -2.20078e-20)
(1.09908 0.547406 -4.57071e-21)
(1.16701 0.545764 2.67706e-20)
(1.22987 0.536955 -6.92379e-20)
(1.28773 0.519805 -4.17602e-21)
(1.3407 0.495005 8.70657e-20)
(1.38817 0.463311 4.2849e-21)
(1.42915 0.425375 5.16113e-20)
(1.46261 0.381881 -1.14084e-19)
(1.48743 0.333579 -1.38795e-21)
(1.50245 0.281287 1.17105e-20)
(0.599514 0.195198 -8.0921e-21)
(0.558727 0.210594 2.865e-21)
(0.511964 0.229008 9.4399e-22)
(0.458447 0.25161 -1.53007e-20)
(0.397236 0.27991 6.79681e-21)
(0.327805 0.31547 2.02318e-20)
(0.250565 0.359244 -1.88666e-20)
(0.167778 0.410175 -4.85262e-21)
(0.0876959 0.462557 -5.86351e-21)
(0.032505 0.501537 -2.15307e-20)
(0.622358 0.252842 -2.22343e-20)
(0.583464 0.273108 4.68244e-20)
(0.538627 0.296849 -4.31558e-20)
(0.487394 0.324967 -7.32199e-21)
(0.428876 0.358502 1.21943e-20)
(0.362529 0.398041 -1.4386e-20)
(0.288646 0.442771 -4.08537e-20)
(0.209117 0.488681 4.74677e-20)
(0.131247 0.525244 -8.41635e-23)
(0.0751609 0.529854 2.1736e-20)
(0.652762 0.307618 -7.38675e-20)
(0.616487 0.332525 7.8492e-20)
(0.574273 0.361362 2.74676e-20)
(0.52608 0.394711 1.52449e-21)
(0.47102 0.433133 1.7623e-20)
(0.408399 0.47625 7.01194e-21)
(0.338163 0.521507 -1.16085e-20)
(0.261421 0.562024 -2.55363e-20)
(0.183799 0.582703 -1.88318e-20)
(0.12199 0.553792 2.75416e-20)
(0.690359 0.35853 -6.08972e-20)
(0.65734 0.387733 5.702e-20)
(0.618386 0.421307 4.59887e-20)
(0.573927 0.459435 -3.13773e-20)
(0.523016 0.502197 -1.16226e-19)
(0.464677 0.548276 3.75548e-20)
(0.398288 0.593441 -2.71518e-20)
(0.323797 0.628122 7.44737e-20)
(0.244492 0.633082 6.54318e-20)
(0.172407 0.572377 -5.8249e-20)
(0.734633 0.404681 -4.33944e-20)
(0.705389 0.43773 1.97814e-20)
(0.670244 0.475551 -5.46459e-20)
(0.630122 0.517837 4.30855e-20)
(0.583937 0.564202 -2.04399e-20)
(0.530308 0.612424 -1.73073e-20)
(0.467834 0.656704 -1.75031e-20)
(0.394968 0.68505 -2.53908e-21)
(0.312098 0.674682 -2.5537e-20)
(0.225607 0.584745 -1.52036e-20)
(0.784897 0.445301 1.07861e-19)
(0.75981 0.481652 2.21627e-20)
(0.728915 0.523096 -7.35544e-20)
(0.693616 0.568757 6.87194e-20)
(0.652593 0.617803 3.19561e-20)
(0.603936 0.667166 5.11231e-20)
(0.545279 0.709626 -2.84965e-21)
(0.473301 0.731105 3.09733e-20)
(0.385063 0.706036 8.12901e-21)
(0.28061 0.590193 2.98231e-20)
(0.840268 0.47979 -1.14915e-19)
(0.819565 0.518799 1.32287e-19)
(0.793245 0.563102 -6.35273e-20)
(0.763129 0.611191 -3.63334e-20)
(0.727542 0.661831 1.65955e-22)
(0.683929 0.711181 -4.85531e-20)
(0.628797 0.750775 3.31232e-20)
(0.556851 0.764869 3.5616e-20)
(0.461562 0.725968 5.27119e-21)
(0.336299 0.588203 -2.16665e-20)
(0.899601 0.507806 -8.56338e-21)
(0.883359 0.548653 -5.03663e-20)
(0.861836 0.594872 2.14189e-20)
(0.837153 0.644284 -3.47415e-21)
(0.807115 0.695296 -1.71336e-20)
(0.768408 0.743369 7.215e-21)
(0.716307 0.779003 -2.41143e-21)
(0.64342 0.785249 -1.01792e-20)
(0.53956 0.733634 1.21099e-20)
(0.391468 0.578476 -9.61051e-21)
(0.961454 0.52947 1.57486e-20)
(0.94963 0.571103 5.28318e-21)
(0.933147 0.618006 -3.35258e-20)
(0.914081 0.667419 2.34551e-20)
(0.889507 0.717442 -7.84074e-21)
(0.855329 0.7629 -5.66972e-21)
(0.805538 0.793479 -1.16393e-20)
(0.730635 0.791522 -1.66336e-21)
(0.616904 0.728573 -6.11061e-20)
(0.444886 0.560952 3.70629e-20)
(1.02244 0.542426 -1.62364e-20)
(1.01474 0.583985 1.1775e-20)
(1.00445 0.630912 3.34107e-22)
(0.99166 0.679508 -3.57626e-21)
(0.972542 0.727466 -1.50473e-20)
(0.942418 0.769123 -7.33103e-21)
(0.89407 0.793683 9.4231e-21)
(0.816025 0.783348 4.13464e-20)
(0.691412 0.710682 5.31445e-20)
(0.49538 0.535781 7.35083e-21)
(0.77172 -0.316651 1.38754e-19)
(0.742816 -0.33844 -8.67175e-20)
(0.705956 -0.358352 3.29469e-20)
(0.660478 -0.371283 -7.51309e-20)
(0.601599 -0.372471 -4.92676e-20)
(0.523243 -0.354327 -7.63954e-20)
(0.417771 -0.305862 -9.28757e-20)
(0.275615 -0.212632 -4.25841e-20)
(0.0854769 -0.0563438 -5.91149e-20)
(-0.166989 0.185871 2.941e-20)
(0.728981 -0.283205 -8.30784e-20)
(0.698896 -0.303548 -6.89377e-20)
(0.660145 -0.322577 1.19091e-19)
(0.612953 -0.335731 5.8603e-20)
(0.553556 -0.338148 8.71633e-20)
(0.476619 -0.32221 -1.46962e-19)
(0.37549 -0.276786 5.06856e-20)
(0.242019 -0.186944 1.03984e-19)
(0.0672969 -0.0332344 7.09684e-20)
(-0.158373 0.209548 -7.5841e-20)
(0.688946 -0.243464 3.90539e-20)
(0.656879 -0.261772 -1.59138e-20)
(0.61647 -0.279185 1.68744e-19)
(0.567685 -0.291582 -1.01823e-19)
(0.507484 -0.294157 -8.30271e-20)
(0.431392 -0.279475 4.79052e-20)
(0.333886 -0.236602 -6.91582e-22)
(0.208445 -0.150647 -2.08831e-19)
(0.0489011 -0.00186355 -8.52033e-21)
(-0.149192 0.235896 6.6699e-20)
(0.65394 -0.199381 2.5834e-19)
(0.619489 -0.214879 -1.20894e-19)
(0.57718 -0.229603 4.06052e-20)
(0.526642 -0.23998 -6.95639e-20)
(0.465348 -0.241437 1.81999e-19)
(0.389637 -0.226887 -9.65632e-21)
(0.295138 -0.185878 -3.43746e-20)
(0.177043 -0.104074 5.36774e-21)
(0.0320914 0.0376778 1.72186e-20)
(-0.138616 0.264914 -8.69091e-20)
(0.624763 -0.15087 -2.23069e-19)
(0.587915 -0.162988 -2.48539e-21)
(0.543668 -0.174244 9.08278e-20)
(0.49137 -0.181597 -4.38891e-21)
(0.428886 -0.180822 -1.0491e-20)
(0.353298 -0.165341 1.19788e-19)
(0.261346 -0.125461 -2.24471e-20)
(0.149919 -0.0479272 2.76495e-20)
(0.0186575 0.0849037 5.33238e-21)
(-0.125835 0.29638 1.15874e-19)
(0.602037 -0.0983169 8.21255e-21)
(0.563044 -0.106585 -1.30768e-19)
(0.517054 -0.113764 1.1798e-19)
(0.463187 -0.11728 -1.03924e-20)
(0.399629 -0.113321 1.99958e-20)
(0.324122 -0.0959481 -1.01067e-19)
(0.234432 -0.0564991 -1.51436e-20)
(0.129033 0.0167247 -7.63712e-21)
(0.0102847 0.138977 -5.30194e-20)
(-0.11008 0.329868 -2.52059e-20)
(0.586294 -0.0424489 1.14776e-19)
(0.545598 -0.0464518 -1.09422e-19)
(0.498243 -0.0490574 -5.20448e-21)
(0.443183 -0.0480735 -1.30267e-19)
(0.378866 -0.0401332 7.11665e-20)
(0.303607 -0.0200484 -4.51054e-20)
(0.216068 0.0195925 3.79154e-20)
(0.116118 0.0884932 -7.28757e-20)
(0.0084816 0.19873 -6.82966e-20)
(-0.0906682 0.364773 -4.89918e-20)
(0.577945 0.0158546 7.18221e-20)
(0.536132 0.0164546 -7.29276e-20)
(0.487931 0.0188124 3.23679e-20)
(0.432208 0.0248118 2.28449e-20)
(0.367627 0.0373611 -4.22612e-20)
(0.292969 0.060816 7.26918e-20)
(0.207634 0.101149 4.43685e-20)
(0.112614 0.165709 -1.34981e-19)
(0.0145115 0.262722 2.27388e-20)
(-0.0670396 0.400331 5.90368e-20)
(0.57728 0.0756077 7.60204e-20)
(0.53504 0.0810503 -1.15461e-20)
(0.486615 0.0886469 -6.65275e-21)
(0.43088 0.100026 -5.41318e-22)
(0.36667 0.117633 2.83841e-20)
(0.293118 0.144929 -8.3858e-20)
(0.210174 0.186303 6.91844e-20)
(0.11963 0.246467 5.41288e-21)
(0.0293463 0.329282 -2.53461e-21)
(-0.0387851 0.435658 4.30743e-20)
(0.584459 0.135752 -2.20317e-20)
(0.542552 0.146165 -2.32942e-21)
(0.494595 0.159155 6.13095e-21)
(0.43958 0.176122 6.82055e-21)
(0.376475 0.199044 1.7237e-20)
(0.304646 0.230448 -1.24504e-20)
(0.224382 0.273035 -7.33253e-21)
(0.137906 0.328686 -1.14219e-20)
(0.0536418 0.396559 1.05764e-20)
(-0.00565036 0.469776 -7.75703e-21)
(0.831592 -0.350177 1.37552e-19)
(0.88166 -0.372533 -5.0688e-20)
(0.927707 -0.389507 1.32223e-20)
(0.969938 -0.399198 5.45932e-20)
(1.00848 -0.401774 2.81398e-20)
(1.04244 -0.397642 2.33557e-21)
(1.07045 -0.387001 3.20632e-21)
(1.09097 -0.370058 -1.99269e-21)
(1.10233 -0.347138 -1.13109e-21)
(1.1028 -0.318755 9.57454e-22)
(0.79557 -0.368163 6.3419e-20)
(0.847744 -0.390091 5.13341e-20)
(0.896676 -0.405538 4.77017e-20)
(0.941096 -0.4132 -1.40716e-20)
(0.980328 -0.413065 -1.23749e-20)
(1.01337 -0.405473 -1.03105e-20)
(1.03884 -0.390769 2.01201e-21)
(1.05517 -0.369414 1.82592e-21)
(1.06074 -0.342057 1.67269e-21)
(1.05398 -0.309598 -1.8983e-21)
(0.75717 -0.385693 -1.86583e-19)
(0.809338 -0.405222 1.87251e-20)
(0.858758 -0.417483 -9.05066e-20)
(0.903192 -0.421686 -1.42268e-20)
(0.941261 -0.417698 4.57938e-20)
(0.97164 -0.40583 1.44014e-20)
(0.992848 -0.386594 -1.03806e-21)
(1.00335 -0.360722 -1.30963e-21)
(1.0017 -0.329206 -6.69488e-21)
(0.98669 -0.293327 1.33539e-21)
(0.710895 -0.397135 -4.93352e-20)
(0.761635 -0.414026 -7.17698e-20)
(0.809458 -0.422505 -6.88247e-21)
(0.851786 -0.422339 -2.31569e-20)
(0.886728 -0.413618 -2.39578e-20)
(0.912634 -0.396829 -2.24374e-21)
(0.927952 -0.372752 -3.08511e-21)
(0.931281 -0.342453 2.04078e-22)
(0.921488 -0.307293 6.83558e-21)
(0.897852 -0.268921 -1.58518e-21)
(0.650731 -0.396295 -1.06812e-19)
(0.698895 -0.410058 1.11886e-19)
(0.743335 -0.414332 6.17009e-21)
(0.781491 -0.409381 -5.22269e-21)
(0.811253 -0.39568 1.28642e-20)
(0.830855 -0.374056 4.46278e-21)
(0.838827 -0.345651 -4.69297e-21)
(0.834045 -0.311906 8.19609e-21)
(0.815827 -0.274543 -1.29957e-21)
(0.784053 -0.23551 -6.63908e-22)
(0.569579 -0.375287 1.53534e-19)
(0.613544 -0.385447 -8.50197e-20)
(0.652685 -0.385483 -2.57736e-20)
(0.684618 -0.37608 -6.00959e-21)
(0.707309 -0.358149 -1.01168e-20)
(0.719128 -0.33292 4.56989e-21)
(0.718884 -0.301924 -4.8013e-21)
(0.705878 -0.26695 -3.26914e-21)
(0.679984 -0.229994 2.22873e-21)
(0.641709 -0.193158 2.91742e-21)
(0.458652 -0.323571 2.49967e-20)
(0.495979 -0.33037 1.54002e-20)
(0.527555 -0.327137 3.06707e-21)
(0.551287 -0.314921 -9.37046e-21)
(0.565438 -0.295032 2.90085e-20)
(0.568731 -0.269063 8.73256e-22)
(0.560417 -0.238849 1.99957e-22)
(0.540319 -0.206396 7.98953e-22)
(0.508875 -0.173789 3.11345e-21)
(0.467138 -0.143074 -2.22564e-21)
(0.307091 -0.227727 7.23497e-20)
(0.334443 -0.232848 5.1409e-20)
(0.355813 -0.229075 -8.65185e-20)
(0.369536 -0.217717 -1.61349e-20)
(0.374333 -0.200326 -2.74762e-20)
(0.36942 -0.178673 -1.60075e-21)
(0.354555 -0.154674 -7.74746e-21)
(0.330057 -0.130291 1.01397e-20)
(0.296803 -0.10743 -1.13131e-22)
(0.256168 -0.087821 4.73558e-21)
(0.101645 -0.0714339 -1.32321e-20)
(0.114326 -0.0791131 -8.59943e-20)
(0.122192 -0.0804977 6.46535e-20)
(0.124158 -0.0768708 -2.12984e-20)
(0.11951 -0.0696758 2.71404e-20)
(0.107974 -0.0604711 -1.42558e-21)
(0.089725 -0.0508477 -6.34301e-21)
(0.0653766 -0.0423362 4.01567e-22)
(0.0359397 -0.0363147 -4.20379e-22)
(0.00273658 -0.033934 -2.42178e-21)
(-0.175882 0.164579 -1.32293e-20)
(-0.185327 0.145643 4.51184e-20)
(-0.195919 0.128412 -1.87017e-20)
(-0.207987 0.112243 5.5332e-21)
(-0.221655 0.0964812 -5.47466e-21)
(-0.236841 0.0804624 -6.22424e-22)
(-0.253255 0.0635559 1.0601e-21)
(-0.270429 0.0452077 4.95105e-21)
(-0.287754 0.0249772 -2.35036e-21)
(-0.304538 0.00254849 -8.37634e-22)
(1.09069 -0.285679 1.53676e-21)
(1.06468 -0.24908 -7.57062e-21)
(1.024 -0.21057 4.1883e-20)
(0.968716 -0.172245 -3.04429e-20)
(0.899927 -0.136625 3.5641e-21)
(0.819753 -0.106489 -3.11649e-20)
(0.73101 -0.0846122 1.55808e-19)
(0.636386 -0.07336 8.17496e-21)
(0.534452 -0.0747344 -4.66634e-20)
(0.413471 -0.0852866 1.04847e-19)
(1.03356 -0.273235 5.14717e-21)
(0.998646 -0.234574 -1.54321e-20)
(0.949163 -0.195588 -1.56342e-20)
(0.885921 -0.158569 -1.16162e-20)
(0.810705 -0.125986 -3.3523e-20)
(0.72608 -0.100248 -8.72632e-22)
(0.634891 -0.0833868 -1.016e-20)
(0.539251 -0.0765884 2.91609e-20)
(0.437925 -0.0797151 9.29255e-20)
(0.325117 -0.0862497 -2.01478e-20)
(0.957471 -0.254667 -3.50122e-21)
(0.913892 -0.215166 3.11385e-20)
(0.856607 -0.176992 8.15625e-21)
(0.78714 -0.142436 -1.7348e-21)
(0.707833 -0.113702 3.65601e-20)
(0.621545 -0.092644 1.59135e-20)
(0.531117 -0.0804241 3.09428e-20)
(0.438545 -0.0770436 -3.32161e-20)
(0.343711 -0.0807472 -6.66661e-20)
(0.245277 -0.0850126 -1.5658e-19)
(0.86016 -0.229234 4.32397e-21)
(0.808985 -0.190379 -1.373e-20)
(0.745702 -0.154551 2.00509e-20)
(0.672441 -0.123852 -4.56597e-20)
(0.591932 -0.10007 -2.70452e-20)
(0.507172 -0.0844165 -1.27581e-20)
(0.42094 -0.0772443 -6.49553e-20)
(0.335259 -0.0777087 -2.99873e-20)
(0.250953 -0.0834137 3.56361e-21)
(0.168906 -0.0891422 4.86154e-20)
(0.739185 -0.196896 2.16038e-21)
(0.682488 -0.160879 -2.28976e-23)
(0.615944 -0.129495 1.32585e-20)
(0.542093 -0.104486 4.08737e-20)
(0.463835 -0.0871098 -6.93518e-21)
(0.384105 -0.077931 -6.06127e-20)
(0.305498 -0.0766298 1.02148e-19)
(0.229951 -0.081838 -3.11561e-20)
(0.158692 -0.0910239 -2.35234e-20)
(0.0931861 -0.100179 -1.10594e-20)
(0.592139 -0.158537 -5.94263e-21)
(0.533086 -0.128139 6.30737e-21)
(0.466916 -0.103653 2.08454e-20)
(0.396319 -0.0863365 -2.00635e-20)
(0.324109 -0.0768726 3.99568e-20)
(0.252954 -0.075245 -4.86202e-21)
(0.185116 -0.0806415 3.83974e-21)
(0.122285 -0.091421 2.57645e-20)
(0.0656546 -0.105154 2.01702e-20)
(0.0164862 -0.118721 6.49445e-21)
(0.416643 -0.116131 8.82341e-22)
(0.359495 -0.0945874 -1.19657e-21)
(0.298153 -0.0796452 2.98334e-20)
(0.235165 -0.0720179 -3.57263e-20)
(0.17301 -0.0718552 -6.81249e-20)
(0.113908 -0.0786906 3.28816e-20)
(0.0596659 -0.0914241 -1.74307e-20)
(0.011611 -0.108357 1.86514e-20)
(-0.029326 -0.127297 5.24881e-20)
(-0.0623162 -0.145778 -5.68494e-20)
(0.209854 -0.0729133 -9.40192e-22)
(0.159925 -0.063776 -1.86871e-20)
(0.108604 -0.061063 2.65095e-20)
(0.0580094 -0.0649763 1.63832e-20)
(0.0100783 -0.0752504 -4.99988e-20)
(-0.0335437 -0.091157 -3.93285e-20)
(-0.0715758 -0.111531 -2.78299e-21)
(-0.103103 -0.134817 6.19438e-21)
(-0.127518 -0.159175 7.85975e-21)
(-0.144391 -0.182667 -2.22546e-20)
(-0.0327505 -0.036051 1.5875e-21)
(-0.0688841 -0.0430556 2.58676e-20)
(-0.104037 -0.0551121 1.06729e-20)
(-0.136763 -0.0720472 -3.50816e-20)
(-0.165831 -0.0933774 3.47842e-20)
(-0.190257 -0.118352 -4.56261e-20)
(-0.209304 -0.145979 5.98886e-20)
(-0.222477 -0.175061 -7.20286e-20)
(-0.229465 -0.204248 -3.81539e-20)
(-0.230102 -0.232154 -1.02559e-19)
(-0.320028 -0.0222951 -4.53416e-22)
(-0.333501 -0.0492093 -7.54239e-21)
(-0.344331 -0.0781112 5.59809e-21)
(-0.351988 -0.108711 6.67018e-21)
(-0.356075 -0.140599 -1.50763e-20)
(-0.356325 -0.173294 1.4849e-20)
(-0.352571 -0.206247 -1.8191e-20)
(-0.344723 -0.238854 1.40489e-20)
(-0.332752 -0.270467 -3.56603e-20)
(-0.316658 -0.300435 3.94055e-20)
(-0.296369 -0.328106 5.62772e-20)
(-0.224394 -0.25754 -4.2468e-20)
(-0.153453 -0.203691 -4.43046e-20)
(-0.0864083 -0.161788 5.95819e-20)
(-0.0230874 -0.129391 -5.43628e-21)
(0.0373124 -0.105038 7.08024e-20)
(0.0951723 -0.0873158 7.89074e-21)
(0.150891 -0.075228 -6.30306e-20)
(0.205948 -0.0687576 1.1531e-19)
(0.259566 -0.0645142 -1.60843e-20)
(-0.272571 -0.352586 -5.94211e-20)
(-0.212902 -0.279435 1.63856e-19)
(-0.154901 -0.22142 -6.76716e-21)
(-0.101027 -0.174923 -5.44266e-20)
(-0.0509559 -0.137732 4.31511e-20)
(-0.003756 -0.10828 -9.81843e-20)
(0.0411848 -0.0850144 1.12902e-19)
(0.0846686 -0.0668153 -9.45653e-20)
(0.128366 -0.0538405 1.7502e-20)
(0.170576 -0.0453305 7.33874e-20)
(-0.245705 -0.373782 3.40252e-20)
(-0.196432 -0.297463 -1.03481e-19)
(-0.149658 -0.235525 3.58065e-20)
(-0.107177 -0.185179 -1.99671e-20)
(-0.0683982 -0.144396 3.69501e-20)
(-0.0322284 -0.111624 -2.77057e-20)
(0.00210939 -0.0854523 -2.61799e-20)
(0.0354654 -0.0649853 3.53143e-20)
(0.0689743 -0.0503826 -8.18243e-20)
(0.100579 -0.0413557 1.22493e-19)
(-0.216299 -0.391537 -7.31004e-20)
(-0.17599 -0.311459 7.9973e-21)
(-0.13901 -0.245876 3.76778e-20)
(-0.106402 -0.192464 5.15355e-20)
(-0.0773137 -0.149245 -7.88071e-20)
(-0.0505721 -0.11463 6.51775e-21)
(-0.0253807 -0.0872629 -4.37597e-20)
(-0.00101483 -0.0662959 -9.10801e-20)
(0.0232507 -0.0516473 1.73599e-19)
(0.0456713 -0.0428425 6.59629e-20)
(-0.184934 -0.405788 5.12881e-20)
(-0.152621 -0.321444 1.19102e-20)
(-0.124274 -0.252512 4.63696e-20)
(-0.10022 -0.196739 -5.65195e-21)
(-0.0793985 -0.152006 6.15934e-20)
(-0.0606254 -0.116554 3.03688e-20)
(-0.0431573 -0.0889186 7.69542e-20)
(-0.0264231 -0.0680934 -7.80426e-20)
(-0.0099643 -0.0536351 -7.90133e-21)
(0.00488001 -0.0448603 -8.69085e-20)
(-0.152176 -0.416578 3.44988e-20)
(-0.127298 -0.327627 -4.06832e-20)
(-0.10665 -0.255682 -9.03224e-21)
(-0.0899819 -0.198176 -1.60474e-20)
(-0.0761106 -0.152656 -1.75558e-20)
(-0.0639049 -0.117068 -2.22157e-20)
(-0.0527223 -0.0897188 3.65256e-20)
(-0.0421449 -0.0693588 -4.84649e-20)
(-0.0319046 -0.0551937 4.37243e-20)
(-0.0230044 -0.0463728 5.61191e-21)
(-0.118532 -0.424037 -6.01547e-20)
(-0.100853 -0.330387 -3.06908e-20)
(-0.0871414 -0.255844 5.34605e-20)
(-0.0767856 -0.197197 -1.99408e-20)
(-0.0685918 -0.151497 2.94613e-20)
(-0.061548 -0.116295 -8.92688e-20)
(-0.0551525 -0.0896068 6.84088e-20)
(-0.0491441 -0.0699205 -2.54973e-20)
(-0.0434133 -0.0561538 4.58079e-20)
(-0.0387416 -0.0473274 -5.56437e-20)
(-0.0844363 -0.428368 2.77882e-20)
(-0.0739438 -0.330234 -1.21709e-20)
(-0.0665166 -0.253629 -1.87061e-20)
(-0.0614498 -0.19445 -7.55472e-21)
(-0.0576712 -0.149125 4.2365e-21)
(-0.0543586 -0.114753 1.24888e-20)
(-0.0511946 -0.0890271 -3.07376e-20)
(-0.0480894 -0.0701879 1.88929e-20)
(-0.0450853 -0.0569287 5.74634e-20)
(-0.0428652 -0.0481705 -5.58163e-20)
(-0.0502371 -0.42983 2.12705e-20)
(-0.047042 -0.327764 6.04331e-23)
(-0.0453023 -0.249782 2.94679e-20)
(-0.0445237 -0.190731 -2.54376e-20)
(-0.0439003 -0.146341 7.9587e-21)
(-0.0428762 -0.113225 -8.92443e-21)
(-0.0413667 -0.0887533 -4.97285e-21)
(-0.0394772 -0.0709364 -2.9103e-20)
(-0.0374053 -0.0582931 3.17639e-20)
(-0.0358555 -0.0496654 3.3043e-20)
(-0.0161733 -0.428703 -3.74454e-21)
(-0.0204167 -0.323594 -3.25466e-21)
(-0.0237846 -0.245082 -2.91159e-21)
(-0.0262977 -0.186895 -1.12368e-20)
(-0.0275727 -0.144032 1.21765e-20)
(-0.0274035 -0.112617 4.41408e-21)
(-0.0259908 -0.0897069 -9.53881e-21)
(-0.0236627 -0.0731014 5.76029e-22)
(-0.0207795 -0.0611732 -5.75915e-21)
(-0.0181808 -0.052701 -3.59103e-22)
(0.0201967 -0.0386965 -1.20397e-21)
(0.0466713 -0.0811818 -1.16326e-21)
(0.122046 -0.126321 2.51728e-21)
(0.19787 -0.159573 -1.5297e-21)
(0.287901 -0.167351 -2.71463e-22)
(0.381952 -0.147925 -5.67974e-22)
(0.483883 -0.109975 1.24799e-22)
(0.589886 -0.0653212 -3.46932e-23)
(0.693401 -0.0253213 -1.96362e-23)
(0.785557 0.00301793 -1.82407e-23)
(0.859898 0.0182395 4.92257e-23)
(0.914259 0.0230697 -9.16083e-24)
(0.950521 0.0217415 9.92978e-24)
(0.97282 0.0178424 1.21357e-23)
(0.985646 0.0135463 -1.96623e-24)
(0.99265 0.00976959 1.29787e-24)
(0.99633 0.00682304 -5.80061e-25)
(0.998239 0.00451651 -1.738e-25)
(0.999136 0.00307 1.09809e-25)
(0.99964 0.00146398 2.04319e-25)
(0.0685192 -0.0457302 5.69564e-21)
(0.102329 -0.0971375 4.19035e-21)
(0.18295 -0.145257 -3.88089e-21)
(0.257093 -0.179489 1.72682e-21)
(0.339398 -0.187274 -2.91983e-21)
(0.422238 -0.167624 -3.52852e-22)
(0.511708 -0.129289 -2.28612e-22)
(0.606518 -0.0834328 -3.14699e-23)
(0.701696 -0.0410575 5.73517e-23)
(0.788719 -0.00942912 -3.11882e-24)
(0.860477 0.00931387 -1.26432e-23)
(0.913833 0.017249 -8.6692e-23)
(0.949868 0.0182627 7.51097e-23)
(0.972234 0.0159145 4.20211e-24)
(0.985197 0.0125414 -5.50309e-24)
(0.992329 0.0092697 -2.21426e-24)
(0.996106 0.00658155 2.86694e-24)
(0.998088 0.00440401 -1.84186e-24)
(0.99903 0.00301794 -2.30483e-25)
(0.999578 0.00144589 -4.60691e-25)
(0.12916 -0.055904 -2.00692e-20)
(0.170415 -0.11388 3.0125e-21)
(0.255486 -0.163561 1.83514e-20)
(0.326621 -0.197698 -8.2738e-21)
(0.399849 -0.20499 -1.58643e-22)
(0.470461 -0.18509 -2.64657e-21)
(0.546454 -0.146656 -2.94381e-22)
(0.628832 -0.100088 -3.26497e-22)
(0.714232 -0.055862 -4.21667e-23)
(0.79473 -0.0213652 3.81628e-23)
(0.862783 0.00063163 1.52644e-23)
(0.91436 0.0115312 -9.89369e-24)
(0.9497 0.0148234 -6.48332e-23)
(0.971882 0.0140008 2.3497e-23)
(0.984856 0.0115409 5.18945e-24)
(0.992057 0.00877046 -6.49208e-24)
(0.995905 0.0063391 3.7795e-25)
(0.997948 0.00429001 9.86434e-25)
(0.99893 0.00296408 6.89245e-25)
(0.999518 0.00142679 -6.41501e-25)
(0.20151 -0.069379 -5.52285e-21)
(0.249499 -0.131085 2.12736e-20)
(0.337192 -0.180772 -1.00883e-20)
(0.40364 -0.213805 -4.45195e-21)
(0.466533 -0.22022 3.3382e-21)
(0.524271 -0.200118 -2.00829e-22)
(0.586328 -0.161883 8.84007e-22)
(0.655627 -0.115078 2.18579e-22)
(0.730308 -0.0695323 6.20235e-23)
(0.80323 -0.0326273 -1.21854e-22)
(0.866652 -0.00769665 2.55447e-22)
(0.915775 0.00598106 -3.83284e-23)
(0.949995 0.0114574 -9.74596e-25)
(0.971755 0.0121171 -3.51889e-23)
(0.984622 0.010552 -5.26808e-24)
(0.991834 0.00827496 3.98579e-24)
(0.995727 0.0060971 1.94294e-24)
(0.997817 0.00417516 1.51662e-24)
(0.998834 0.00290874 -8.83864e-25)