/*--------------------------------*- C++ -*----------------------------------*\
  =========                 |
  \\      /  F ield         | OpenFOAM: The Open Source CFD Toolbox
   \\    /   O peration     | Website:  https://openfoam.org
    \\  /    A nd           | Version:  6.0
     \\/     M anipulation  |
\*---------------------------------------------------------------------------*/
FoamFile
{
    version     2.0;
    format      ascii;
    class       volVectorField;
    location    "10";
    object      U;
}
// * * * * * * * * * * * * * * * * * * * * * * * * * * * * * * * * * * * * * //

dimensions      [0 1 -1 0 0 0 0];

internalField   nonuniform List<vector> 
19200
(
(0.098493 -4.73996 -4.76718e-21)
(0.0604464 -4.31878 2.29559e-21)
(0.0660128 -3.9736 1.0577e-21)
(0.0807417 -3.69114 9.27047e-22)
(0.0983418 -3.45972 1.03185e-21)
(0.120295 -3.26944 7.4583e-23)
(0.146028 -3.11223 1.80559e-22)
(0.17461 -2.98153 -9.67838e-23)
(0.205332 -2.87204 1.26947e-21)
(0.237592 -2.7795 5.34562e-22)
(0.270858 -2.70047 6.33424e-24)
(0.304673 -2.63222 8.44365e-22)
(0.338654 -2.57254 1.38716e-21)
(0.37248 -2.51967 -9.40937e-22)
(0.405886 -2.47219 1.22074e-21)
(0.438658 -2.42897 1.06023e-21)
(0.470627 -2.38912 -9.9203e-22)
(0.501658 -2.35191 1.70906e-21)
(0.53165 -2.31677 -1.0825e-21)
(0.560532 -2.28322 5.50421e-22)
(0.588255 -2.2509 7.73661e-22)
(0.614787 -2.21951 -2.45633e-22)
(0.640116 -2.18879 3.33192e-22)
(0.664241 -2.15853 -3.9037e-22)
(0.687172 -2.12854 8.68163e-22)
(0.708924 -2.09866 2.12074e-22)
(0.729517 -2.06871 -1.3398e-22)
(0.748973 -2.03853 8.75047e-23)
(0.767312 -2.00794 1.95631e-22)
(0.784525 -1.97673 7.63988e-22)
(0.222847 -4.73737 -1.11682e-21)
(0.174456 -4.32245 7.14962e-21)
(0.171718 -3.98258 -3.7368e-21)
(0.179912 -3.70501 -5.06399e-21)
(0.192401 -3.4781 -2.26672e-21)
(0.210342 -3.29184 -1.6331e-21)
(0.232907 -3.13812 -3.28618e-21)
(0.258962 -3.01038 4.36769e-22)
(0.287638 -2.90334 -7.54039e-22)
(0.318206 -2.81278 -2.61757e-21)
(0.350036 -2.73529 -6.58086e-21)
(0.382596 -2.66819 3.22591e-21)
(0.415443 -2.60929 -1.18602e-21)
(0.448211 -2.55689 4.50092e-22)
(0.480602 -2.50959 -2.81324e-21)
(0.512377 -2.46632 -1.04553e-21)
(0.543346 -2.42621 1.18472e-22)
(0.573364 -2.38855 3.57587e-21)
(0.602322 -2.3528 -1.87004e-21)
(0.630141 -2.31853 -1.04431e-21)
(0.656772 -2.28538 -4.11475e-21)
(0.682182 -2.25308 1.05977e-21)
(0.706359 -2.22138 -6.80744e-22)
(0.729305 -2.19009 1.20045e-21)
(0.751032 -2.15904 -1.48097e-21)
(0.771557 -2.12806 -8.58673e-22)
(0.790901 -2.097 2.82726e-22)
(0.809093 -2.06568 4.29328e-22)
(0.826174 -2.03392 -7.77513e-22)
(0.842103 -2.0015 3.88193e-22)
(0.34688 -4.73193 -5.55267e-22)
(0.288429 -4.32358 1.66636e-21)
(0.277785 -3.9893 2.36914e-21)
(0.279781 -3.71687 1.80019e-20)
(0.287429 -3.49467 -1.0375e-20)
(0.30158 -3.31256 9.50933e-21)
(0.321155 -3.1624 -8.49288e-21)
(0.344823 -3.03765 4.51614e-21)
(0.371558 -2.93307 -4.39009e-21)
(0.40051 -2.84446 -5.24346e-22)
(0.430953 -2.76849 1.10999e-20)
(0.462282 -2.70247 1.87649e-21)
(0.493998 -2.64431 -5.09143e-21)
(0.525692 -2.5923 4.05256e-21)
(0.557036 -2.54514 -5.54246e-23)
(0.587767 -2.50174 1.74291e-21)
(0.61768 -2.46129 1.30962e-21)
(0.646619 -2.42313 4.317e-21)
(0.674469 -2.38673 -1.92024e-21)
(0.701148 -2.35168 -6.35524e-22)
(0.726605 -2.31765 -1.69743e-21)
(0.750809 -2.2844 7.46012e-21)
(0.77375 -2.2517 -6.22278e-21)
(0.795432 -2.21936 2.06798e-21)
(0.81587 -2.18724 4.67672e-21)
(0.835085 -2.15516 -3.79896e-21)
(0.8531 -2.12299 5.11547e-21)
(0.869949 -2.09055 -5.72141e-22)
(0.885694 -2.05765 -5.85371e-22)
(0.900258 -2.02406 -3.91857e-21)
(0.470749 -4.72352 -1.81146e-20)
(0.402524 -4.32218 -1.57784e-20)
(0.384276 -3.99379 -1.92861e-20)
(0.380365 -3.72674 7.0554e-22)
(0.383426 -3.50941 1.1116e-21)
(0.393999 -3.33155 -2.16024e-20)
(0.410757 -3.185 -1.07684e-20)
(0.432174 -3.06326 2.75482e-21)
(0.457071 -2.96113 -4.66109e-22)
(0.484476 -2.87445 4.8328e-21)
(0.513575 -2.79993 -1.93901e-20)
(0.54369 -2.73496 -1.22565e-20)
(0.57427 -2.67746 4.53072e-21)
(0.604868 -2.62579 9.16568e-21)
(0.635125 -2.57868 -1.07001e-20)
(0.66476 -2.5351 -1.72073e-21)
(0.693555 -2.49426 -6.37285e-21)
(0.721345 -2.45553 -3.0695e-21)
(0.74801 -2.41842 5.10987e-21)
(0.773467 -2.38255 -6.61177e-21)
(0.797665 -2.34761 5.71723e-21)
(0.820578 -2.31338 -6.82043e-21)
(0.842196 -2.27965 -5.44785e-21)
(0.862529 -2.24625 -3.86649e-21)
(0.881596 -2.21305 4.51071e-21)
(0.89942 -2.17989 -8.0805e-21)
(0.916027 -2.14662 8.23438e-22)
(0.93146 -2.11309 1.46705e-21)
(0.945796 -2.07908 -4.27407e-21)
(0.95892 -2.04437 8.41028e-22)
(0.594422 -4.71207 -1.10571e-20)
(0.516749 -4.3182 1.48577e-21)
(0.491199 -3.99602 1.35614e-20)
(0.481661 -3.73457 1.43204e-20)
(0.480383 -3.52225 1.01812e-20)
(0.487588 -3.34872 4.15539e-21)
(0.501698 -3.20583 2.57942e-21)
(0.520995 -3.08712 3.02159e-20)
(0.544147 -2.98741 -1.80888e-20)
(0.57007 -2.90263 4.82443e-22)
(0.597858 -2.82951 4.3506e-21)
(0.62677 -2.76551 1.91194e-20)
(0.656203 -2.70861 -1.31557e-20)
(0.685674 -2.65723 9.52929e-21)
(0.7148 -2.6101 -1.07248e-20)
(0.743282 -2.56627 1.83157e-20)
(0.770891 -2.52498 -5.4891e-21)
(0.797456 -2.48563 1.72235e-22)
(0.822855 -2.44777 8.95759e-21)
(0.847006 -2.41103 6.26351e-21)
(0.869861 -2.37516 -6.42946e-21)
(0.891394 -2.33992 8.74282e-21)
(0.911605 -2.30515 -4.05789e-21)
(0.930505 -2.27069 4.63527e-21)
(0.948118 -2.23641 5.1344e-21)
(0.964473 -2.20217 2.27875e-21)
(0.979598 -2.16783 6.97585e-21)
(0.993542 -2.13323 -2.4233e-21)
(1.0064 -2.09816 -8.65526e-22)
(1.01802 -2.06238 -3.9091e-21)
(0.717838 -4.69756 -8.17636e-21)
(0.631077 -4.31162 -5.25378e-21)
(0.598538 -3.99595 -1.57329e-20)
(0.583657 -3.7403 -4.06506e-20)
(0.578287 -3.53313 1.36779e-20)
(0.582328 -3.36401 8.68485e-22)
(0.593954 -3.2248 1.65309e-22)
(0.611254 -3.10911 2.02603e-21)
(0.632752 -3.0118 -1.26031e-21)
(0.657249 -2.92886 -2.43354e-20)
(0.683755 -2.8571 1.02863e-20)
(0.711466 -2.79402 1.78267e-20)
(0.739733 -2.73765 1.08534e-22)
(0.768042 -2.68647 6.72877e-21)
(0.795985 -2.63928 1.66936e-20)
(0.823251 -2.59514 -1.14827e-20)
(0.849601 -2.55334 2.04259e-20)
(0.874862 -2.51332 -9.73135e-21)
(0.898912 -2.47466 1.76071e-20)
(0.92167 -2.43704 -1.31454e-20)
(0.943093 -2.40019 5.96445e-21)
(0.963161 -2.36394 1.57633e-20)
(0.981877 -2.32812 9.66307e-22)
(0.999261 -2.29259 -1.45743e-20)
(1.01534 -2.25724 8.13179e-21)
(1.03015 -2.22194 2.53743e-21)
(1.04372 -2.18656 -2.63946e-21)
(1.05611 -2.15094 1.03163e-20)
(1.06744 -2.11485 3.62536e-21)
(1.07748 -2.07807 -3.41188e-21)
(0.840928 -4.67999 2.28033e-20)
(0.745464 -4.3024 -9.14494e-22)
(0.706265 -3.99354 -3.25795e-20)
(0.686329 -3.74389 6.43127e-21)
(0.677113 -3.54197 -9.16019e-21)
(0.678193 -3.37732 6.616e-21)
(0.687495 -3.24182 -3.08176e-21)
(0.702919 -3.12913 2.73489e-20)
(0.722844 -3.03419 -2.97231e-20)
(0.745964 -2.95304 7.2946e-21)
(0.771209 -2.88257 -5.20292e-21)
(0.797714 -2.82034 3.88135e-21)
(0.824791 -2.76445 -1.69157e-20)
(0.851893 -2.71341 -1.01086e-21)
(0.878597 -2.66608 2.80427e-20)
(0.904578 -2.62157 -1.92336e-20)
(0.929593 -2.57922 -1.21873e-20)
(0.953468 -2.53849 -9.00246e-21)
(0.976081 -2.499 1.66399e-20)
(0.997359 -2.46046 3.64962e-21)
(1.01726 -2.42263 -1.64169e-20)
(1.03578 -2.38535 2.22287e-20)
(1.05291 -2.34848 -1.99983e-20)
(1.0687 -2.3119 1.34784e-20)
(1.08317 -2.2755 -7.55217e-21)
(1.09637 -2.23917 2.42184e-21)
(1.10832 -2.20278 3.81066e-21)
(1.11909 -2.16618 -1.68191e-20)
(1.12882 -2.12913 7.3404e-21)
(1.13724 -2.09141 1.67959e-22)
(0.963621 -4.65936 -2.27991e-20)
(0.859862 -4.29053 1.82559e-20)
(0.814346 -3.98875 -3.39267e-20)
(0.789647 -3.74527 6.46195e-20)
(0.776834 -3.54871 -1.81443e-20)
(0.775153 -3.38857 2.60017e-20)
(0.782285 -3.25678 2.07945e-20)
(0.795945 -3.14707 -3.42418e-21)
(0.814374 -3.05446 -5.41642e-21)
(0.836159 -2.97505 -1.22114e-22)
(0.860156 -2.90581 -2.10967e-20)
(0.885445 -2.84437 1.08405e-20)
(0.911298 -2.78887 -1.34183e-20)
(0.937145 -2.73791 -1.03988e-21)
(0.962547 -2.69039 -3.80823e-20)
(0.98717 -2.64547 1.23803e-20)
(1.01077 -2.60251 7.41871e-21)
(1.03317 -2.56104 -8.21359e-21)
(1.05426 -2.5207 -9.38494e-22)
(1.07397 -2.48121 -1.30457e-20)
(1.09226 -2.44239 -4.73654e-21)
(1.10914 -2.40409 4.81639e-22)
(1.12461 -2.36617 -1.16177e-20)
(1.13873 -2.32855 -1.73212e-20)
(1.15151 -2.29113 6.94565e-22)
(1.16302 -2.2538 2.61114e-21)
(1.17329 -2.21645 5.57442e-21)
(1.1824 -2.17892 -1.38516e-20)
(1.19048 -2.14097 1.1848e-20)
(1.19723 -2.10239 -2.252e-20)
(1.08584 -4.63567 -5.78345e-20)
(0.974219 -4.27598 6.85491e-20)
(0.922738 -3.98154 -7.26628e-20)
(0.893576 -3.74438 -1.9389e-20)
(0.877414 -3.55327 -1.27498e-20)
(0.873169 -3.39767 -1.36573e-20)
(0.878282 -3.2696 -3.15632e-20)
(0.890286 -3.16283 -2.66296e-21)
(0.907286 -3.0725 -1.26908e-20)
(0.927772 -2.99477 -3.20603e-21)
(0.950526 -2.9267 2.21092e-20)
(0.97458 -2.86597 -1.261e-20)
(0.999171 -2.81081 -1.54446e-20)
(1.02371 -2.75987 -2.62137e-20)
(1.04774 -2.7121 5.52124e-20)
(1.07093 -2.66672 -2.15253e-20)
(1.09303 -2.62312 8.03526e-21)
(1.11387 -2.58088 -3.02429e-20)
(1.13334 -2.53966 1.14651e-20)
(1.15139 -2.49923 -4.91224e-21)
(1.16799 -2.45941 5.99118e-21)
(1.18314 -2.42008 -2.31661e-21)
(1.19688 -2.38114 1.97377e-20)
(1.20923 -2.34251 -7.08138e-21)
(1.22027 -2.3041 1.94484e-20)
(1.23003 -2.26581 -3.9835e-20)
(1.23856 -2.22755 2.56012e-20)
(1.24594 -2.18914 7.13942e-21)
(1.25234 -2.15035 1.35737e-20)
(1.25738 -2.111 -4.10277e-20)
(1.20752 -4.60892 9.17918e-20)
(1.08848 -4.25873 -1.73506e-20)
(1.0314 -3.97186 3.08004e-20)
(0.998076 -3.74117 -9.10153e-21)
(0.978813 -3.55557 3.15399e-20)
(0.9722 -3.40454 3.01266e-20)
(0.975438 -3.28016 1.4879e-20)
(0.985886 -3.17631 -5.48966e-21)
(1.00152 -3.08819 -3.34847e-20)
(1.02073 -3.01209 4.91982e-20)
(1.04224 -2.94511 -4.03514e-21)
(1.06504 -2.88503 3.55886e-20)
(1.08832 -2.83016 1.29826e-20)
(1.11149 -2.77918 4.68155e-21)
(1.13408 -2.73111 8.07357e-21)
(1.15575 -2.68522 1.06613e-20)
(1.17626 -2.64096 1.81224e-20)
(1.19545 -2.59791 -5.27463e-21)
(1.21322 -2.5558 2.69958e-20)
(1.22952 -2.51442 1.26782e-20)
(1.24433 -2.47361 -2.6564e-20)
(1.25768 -2.43328 4.72315e-20)
(1.26959 -2.39334 -6.28509e-20)
(1.28013 -2.35372 6.00915e-20)
(1.28935 -2.31436 -1.999e-20)
(1.2973 -2.27517 -8.25869e-21)
(1.30404 -2.23605 -2.31047e-21)
(1.30966 -2.19683 1.49512e-20)
(1.31433 -2.15728 5.50158e-21)
(1.31762 -2.11723 -6.51782e-21)
(1.32859 -4.57913 -5.34545e-20)
(1.20259 -4.23876 5.15559e-20)
(1.14027 -3.95968 -1.40391e-20)
(1.1031 -3.73556 4.06361e-20)
(1.08098 -3.55554 3.80526e-21)
(1.07219 -3.40909 9.09175e-21)
(1.0737 -3.28837 -7.0319e-20)
(1.08268 -3.18739 3.34619e-20)
(1.097 -3.10144 4.59837e-20)
(1.11497 -3.02689 3.58969e-20)
(1.13522 -2.96094 -6.09382e-20)
(1.15672 -2.90145 3.59192e-20)
(1.17865 -2.84679 -3.61044e-20)
(1.20038 -2.79572 2.55079e-20)
(1.22145 -2.74732 -4.22618e-20)
(1.24152 -2.70089 -3.20215e-20)
(1.26036 -2.65593 1.90328e-21)
(1.27781 -2.61207 -1.50487e-20)
(1.29379 -2.56906 2.67986e-20)
(1.30825 -2.52673 1.05906e-20)
(1.32119 -2.48495 -7.01752e-21)
(1.33265 -2.44363 -2.17028e-21)
(1.34266 -2.40272 8.53467e-21)
(1.35131 -2.36216 -2.82654e-20)
(1.35864 -2.3219 4.80395e-20)
(1.36474 -2.28186 -1.15973e-20)
(1.36964 -2.24194 -2.02204e-20)
(1.37345 -2.20199 4.27561e-20)
(1.37637 -2.16175 5.91573e-21)
(1.37789 -2.12109 -5.7337e-21)
(1.44896 -4.54629 1.32565e-21)
(1.31648 -4.21605 -2.86414e-20)
(1.24932 -3.94494 -2.69831e-20)
(1.2086 -3.72752 -4.36977e-20)
(1.18388 -3.5531 1.08577e-21)
(1.1731 -3.41122 -3.20128e-20)
(1.173 -3.29415 3.78774e-20)
(1.18061 -3.19597 -1.85704e-20)
(1.19366 -3.11212 3.19676e-20)
(1.21039 -3.03906 -2.5798e-20)
(1.22938 -2.97408 -1.37449e-20)
(1.24954 -2.91512 7.49581e-21)
(1.27006 -2.86062 4.06954e-21)
(1.29028 -2.80941 -4.26675e-20)
(1.30975 -2.76063 2.54283e-20)
(1.32814 -2.71363 -1.30808e-20)
(1.34521 -2.66795 3.6523e-20)
(1.36083 -2.62327 -1.22153e-20)
(1.37492 -2.57937 1.30099e-20)
(1.38745 -2.5361 3.11773e-21)
(1.39844 -2.49336 2.2226e-20)
(1.40793 -2.4511 -4.54047e-21)
(1.41598 -2.40926 3.70142e-20)
(1.42267 -2.3678 -4.10795e-20)
(1.42807 -2.3267 -1.39389e-20)
(1.43225 -2.28587 1.16012e-20)
(1.43527 -2.24522 -1.0696e-21)
(1.43725 -2.20461 -3.23397e-20)
(1.43839 -2.16377 1.68496e-20)
(1.43812 -2.12258 -1.90999e-20)
(1.56857 -4.51043 9.22193e-20)
(1.4301 -4.19059 2.52789e-20)
(1.35847 -3.92761 2.9363e-20)
(1.31452 -3.71696 4.07263e-20)
(1.28744 -3.54819 6.0704e-20)
(1.27485 -3.41086 -1.40849e-21)
(1.27328 -3.29738 8.60889e-21)
(1.27959 -3.20196 1.05854e-19)
(1.29142 -3.12014 3.08657e-20)
(1.30691 -3.0485 -2.59173e-20)
(1.32461 -2.98442 4.67539e-20)
(1.3434 -2.92592 8.1792e-21)
(1.36244 -2.87153 6.51833e-22)
(1.38108 -2.82014 1.12883e-20)
(1.39887 -2.77095 2.08677e-20)
(1.41548 -2.72336 -4.33535e-20)
(1.4307 -2.67696 3.71013e-20)
(1.4444 -2.63146 6.52039e-21)
(1.45651 -2.58668 3.69825e-20)
(1.46703 -2.54249 -1.9822e-20)
(1.47599 -2.49883 3.36319e-20)
(1.48343 -2.45564 -3.57259e-20)
(1.48944 -2.41292 3.50068e-20)
(1.49411 -2.37063 5.0008e-21)
(1.49752 -2.32873 -2.35289e-20)
(1.49975 -2.28718 -7.86479e-21)
(1.50086 -2.24589 4.62793e-20)
(1.50097 -2.2047 -6.89991e-21)
(1.50032 -2.16333 9.16143e-21)
(1.49825 -2.12172 -6.12157e-21)
(1.68733 -4.47154 9.95251e-21)
(1.54337 -4.16235 2.2296e-20)
(1.46768 -3.90766 8.8759e-20)
(1.4208 -3.70384 -1.44448e-19)
(1.3916 -3.54071 -1.43753e-20)
(1.37738 -3.40792 -1.52687e-20)
(1.37446 -3.29798 7.08602e-21)
(1.37955 -3.20525 1.02239e-20)
(1.39018 -3.1254 2.45031e-20)
(1.40444 -3.05511 -4.33542e-20)
(1.42082 -2.99186 -8.80007e-21)
(1.43818 -2.93377 2.52365e-20)
(1.45568 -2.87944 2.76077e-20)
(1.47266 -2.82783 -2.70793e-20)
(1.48868 -2.7782 -2.72169e-20)
(1.50343 -2.73001 4.42597e-20)
(1.5167 -2.68288 2.95582e-20)
(1.52839 -2.63657 -7.12493e-21)
(1.53844 -2.59092 -1.88458e-20)
(1.54686 -2.54585 3.77424e-21)
(1.5537 -2.50129 -4.46987e-20)
(1.55903 -2.45724 5.45582e-20)
(1.56294 -2.41369 -3.73797e-20)
(1.56553 -2.37062 -1.64581e-21)
(1.5669 -2.32801 2.52316e-20)
(1.56714 -2.28581 -7.77893e-21)
(1.5663 -2.24395 -2.38029e-20)
(1.56454 -2.20226 3.7561e-21)
(1.56207 -2.16046 -8.54439e-22)
(1.55821 -2.11852 5.05139e-21)
(1.80519 -4.42965 -6.74143e-21)
(1.65625 -4.13133 -2.25389e-20)
(1.57687 -3.88503 -1.03311e-19)
(1.52739 -3.68809 3.71989e-20)
(1.4963 -3.53061 -1.14346e-20)
(1.48062 -3.40231 3.83275e-20)
(1.47646 -3.29585 3.06208e-21)
(1.4804 -3.20575 -4.42916e-20)
(1.48986 -3.1278 4.39919e-21)
(1.50287 -3.05878 -6.16088e-20)
(1.51789 -2.9963 -2.65001e-21)
(1.53378 -2.93857 1.55003e-20)
(1.54966 -2.88426 -2.63392e-20)
(1.56491 -2.83241 3.09468e-20)
(1.57908 -2.78232 -5.87427e-20)
(1.59187 -2.73351 -1.35653e-20)
(1.6031 -2.68566 3.62015e-20)
(1.61268 -2.63855 1.28379e-22)
(1.62058 -2.59207 -2.33195e-20)
(1.62683 -2.54614 6.39587e-20)
(1.63148 -2.50074 -3.43755e-20)
(1.63463 -2.45588 -4.64476e-20)
(1.63637 -2.41155 1.55247e-20)
(1.63683 -2.36776 -4.57986e-20)
(1.63612 -2.32451 -1.11875e-20)
(1.63433 -2.28175 -1.44686e-21)
(1.63153 -2.2394 -3.06125e-20)
(1.62786 -2.19731 3.65926e-20)
(1.62359 -2.15517 -1.31078e-20)
(1.61793 -2.11301 2.25459e-20)
(1.92205 -4.38477 -3.4427e-20)
(1.76864 -4.0975 -9.34522e-20)
(1.68599 -3.85969 4.5477e-20)
(1.6342 -3.66967 -4.40469e-20)
(1.60146 -3.51781 -3.19763e-20)
(1.58449 -3.39396 -1.87744e-20)
(1.5792 -3.29092 -6.98888e-20)
(1.58204 -3.20337 4.78041e-20)
(1.59035 -3.12723 -8.67798e-20)
(1.6021 -3.05943 -1.21442e-19)
(1.61573 -2.99767 1.55838e-20)
(1.63008 -2.94024 2.65115e-20)
(1.64427 -2.88591 -3.47713e-22)
(1.6577 -2.83378 -5.13313e-20)
(1.66992 -2.78323 1.21416e-20)
(1.68067 -2.73381 -4.78406e-20)
(1.68977 -2.68525 -3.45965e-20)
(1.69716 -2.63737 -2.10755e-20)
(1.70283 -2.59008 -4.29258e-21)
(1.70681 -2.54334 3.60424e-20)
(1.7092 -2.49715 5.18769e-20)
(1.7101 -2.45152 -1.56867e-20)
(1.70963 -2.40649 -1.54904e-20)
(1.70791 -2.36207 2.9847e-20)
(1.70508 -2.31825 1.65624e-20)
(1.70122 -2.275 -1.32581e-20)
(1.69644 -2.23226 -1.50082e-20)
(1.69086 -2.18986 1.70194e-21)
(1.68478 -2.14749 1.34409e-20)
(1.67734 -2.10521 -2.02583e-20)
(2.03785 -4.33691 -6.4981e-21)
(1.8805 -4.06085 1.20236e-19)
(1.79496 -3.83162 9.31417e-20)
(1.74118 -3.64852 7.2185e-20)
(1.70702 -3.50225 -4.71532e-20)
(1.68892 -3.38278 -9.36369e-21)
(1.6826 -3.28309 8.17203e-21)
(1.68439 -3.19802 6.16458e-20)
(1.69155 -3.12363 2.32094e-20)
(1.70202 -3.05697 3.56168e-20)
(1.71421 -2.99586 -8.00883e-20)
(1.72695 -2.9387 7.95038e-21)
(1.73938 -2.88432 3.2852e-20)
(1.7509 -2.8319 2.06364e-20)
(1.7611 -2.78087 4.31708e-20)
(1.76971 -2.73085 -2.94163e-20)
(1.77659 -2.6816 -2.74978e-20)
(1.7817 -2.63298 5.06707e-21)
(1.78505 -2.58492 5.97471e-20)
(1.78671 -2.53742 -9.64729e-20)
(1.78677 -2.49049 3.36843e-20)
(1.78536 -2.44418 -2.19726e-22)
(1.78261 -2.39851 6.47589e-20)
(1.77867 -2.35352 -2.79076e-20)
(1.77367 -2.30922 -1.49628e-21)
(1.76774 -2.26558 -1.81572e-20)
(1.76094 -2.22254 -1.59923e-20)
(1.75346 -2.17993 3.39647e-21)
(1.74558 -2.13743 -4.00011e-20)
(1.73637 -2.09513 6.17074e-20)
(2.15251 -4.2861 -1.28436e-19)
(1.99174 -4.02138 -7.35399e-20)
(1.90372 -3.80077 -1.88248e-19)
(1.84826 -3.62459 -8.62602e-20)
(1.8129 -3.48387 8.05964e-20)
(1.79381 -3.36871 -4.77923e-20)
(1.78655 -3.27229 -1.225e-20)
(1.78733 -3.18961 -3.19779e-20)
(1.79335 -3.11689 5.48816e-20)
(1.80251 -3.05132 -5.11715e-20)
(1.81321 -2.99081 5.72808e-21)
(1.82428 -2.93387 -2.46081e-21)
(1.83487 -2.87942 -8.28739e-20)
(1.8444 -2.8267 -3.74123e-21)
(1.85247 -2.7752 2.19316e-20)
(1.85886 -2.72459 -2.76811e-21)
(1.86344 -2.67468 -8.73704e-20)
(1.86619 -2.62535 8.53889e-20)
(1.86714 -2.57658 -8.44758e-20)
(1.8664 -2.52837 3.3153e-20)
(1.86406 -2.48077 4.73057e-21)
(1.86028 -2.43383 1.80879e-21)
(1.85521 -2.3876 -3.55772e-20)
(1.849 -2.34213 3.59284e-20)
(1.84182 -2.29743 -1.53028e-20)
(1.83377 -2.2535 1.68738e-20)
(1.82496 -2.21026 -9.07637e-20)
(1.81557 -2.16754 2.44879e-20)
(1.8059 -2.12501 2.64979e-20)
(1.79494 -2.08281 2.79197e-20)
(2.26595 -4.23235 2.52434e-19)
(2.1023 -3.97907 8.52183e-20)
(2.0122 -3.76711 5.02246e-20)
(1.95534 -3.59783 7.93262e-20)
(1.919 -3.46259 -9.77265e-21)
(1.89908 -3.35167 6.06047e-20)
(1.89095 -3.25844 1.35078e-19)
(1.89076 -3.17807 -1.68822e-20)
(1.89564 -3.10696 8.27382e-21)
(1.90346 -3.0424 1.6229e-19)
(1.91261 -2.98245 1.52078e-19)
(1.92193 -2.9257 2.31357e-20)
(1.9306 -2.87115 -8.65539e-21)
(1.93805 -2.81813 -1.17138e-21)
(1.94392 -2.76617 1.20449e-19)
(1.94799 -2.715 4.59861e-21)
(1.95018 -2.66446 1.29697e-19)
(1.95049 -2.61447 -1.60377e-20)
(1.94898 -2.56503 -2.84591e-20)
(1.94576 -2.51618 6.65934e-20)
(1.94097 -2.46797 -6.10827e-20)
(1.93477 -2.42048 -6.61033e-20)
(1.92732 -2.37377 -5.72848e-21)
(1.91882 -2.3279 -2.9694e-20)
(1.90941 -2.2829 4.54244e-20)
(1.89923 -2.23875 5.45422e-21)
(1.8884 -2.19542 -1.93158e-20)
(1.8771 -2.15271 1.02551e-20)
(1.86565 -2.11025 6.89762e-20)
(1.85298 -2.06828 1.00159e-20)
(2.3781 -4.17569 -4.34964e-20)
(2.2121 -3.93392 -8.65595e-20)
(2.12031 -3.73062 3.61461e-20)
(2.06236 -3.56819 -1.43458e-19)
(2.02525 -3.43837 6.86892e-20)
(2.00462 -3.3316 -1.25896e-19)
(1.99572 -3.24146 -8.33772e-20)
(1.99457 -3.16333 2.34067e-20)
(1.9983 -3.09374 2.36188e-20)
(2.00473 -3.03014 -1.12813e-19)
(2.01227 -2.97071 1.71232e-20)
(2.01978 -2.91412 1.97321e-20)
(2.02645 -2.85947 -6.29409e-20)
(2.03174 -2.80615 -2.52202e-20)
(2.03531 -2.75375 -1.70356e-20)
(2.03698 -2.70204 -1.70764e-20)
(2.03671 -2.65091 -7.26186e-20)
(2.0345 -2.60031 -4.57292e-20)
(2.03045 -2.55027 -1.01655e-20)
(2.02469 -2.50084 3.75151e-20)
(2.01739 -2.4521 5.13224e-20)
(2.00871 -2.40413 -5.59463e-20)
(1.99886 -2.35702 2.12186e-20)
(1.98801 -2.31084 -4.37167e-20)
(1.97635 -2.26561 4.15375e-20)
(1.96403 -2.22136 -5.44804e-20)
(1.95117 -2.17803 1.73169e-20)
(1.93796 -2.13544 -2.68899e-20)
(1.92475 -2.09318 -3.85035e-20)
(1.9104 -2.05154 -3.6564e-21)
(2.48888 -4.11614 -9.3193e-20)
(2.32106 -3.88593 -7.92297e-20)
(2.22799 -3.69128 -7.73692e-20)
(2.16924 -3.53564 -5.78531e-20)
(2.13156 -3.41114 1.77346e-19)
(2.11035 -3.30843 2.51786e-20)
(2.10072 -3.22129 7.65002e-20)
(2.09865 -3.14531 1.175e-19)
(2.1012 -3.07718 5.6874e-20)
(2.1062 -3.01449 -7.55712e-20)
(2.11208 -2.95553 1.22863e-19)
(2.1177 -2.89909 3.54508e-20)
(2.12228 -2.84433 1.13629e-19)
(2.12532 -2.79071 1.36508e-20)
(2.12651 -2.7379 2.92472e-20)
(2.12571 -2.68569 9.68995e-21)
(2.12288 -2.63402 2.85265e-22)
(2.11809 -2.58287 -3.49215e-21)
(2.11144 -2.53229 1.61302e-20)
(2.10309 -2.48235 5.42162e-20)
(2.09322 -2.43315 -6.06088e-20)
(2.08203 -2.38478 4.85652e-20)
(2.06972 -2.33735 2.00278e-21)
(2.05649 -2.29094 2.21858e-20)
(2.04256 -2.24559 4.07387e-20)
(2.02807 -2.20132 -6.89033e-21)
(2.01316 -2.1581 4.0468e-20)
(1.99805 -2.11574 5.89263e-20)
(1.98311 -2.07379 -6.38555e-20)
(1.96712 -2.03263 -3.6839e-20)
(2.59821 -4.05372 2.75063e-19)
(2.42911 -3.83509 -2.97433e-20)
(2.33516 -3.64906 6.06706e-20)
(2.2759 -3.50013 1.10987e-19)
(2.23783 -3.38086 -3.20697e-19)
(2.21615 -3.2821 3.51036e-20)
(2.20586 -3.19787 -1.2273e-19)
(2.20286 -3.12395 1.23928e-19)
(2.20421 -3.05721 -9.85678e-20)
(2.20774 -2.99538 5.33836e-20)
(2.21188 -2.93687 -1.94278e-19)
(2.21554 -2.88055 6.62355e-21)
(2.21795 -2.82569 -2.1526e-19)
(2.21866 -2.7718 9.87027e-20)
(2.21739 -2.7186 5.03952e-20)
(2.21404 -2.66595 7.78433e-20)
(2.2086 -2.61379 -8.58298e-20)
(2.20115 -2.56215 -7.35407e-21)
(2.19184 -2.5111 7.36507e-21)
(2.18084 -2.46072 1.92969e-20)
(2.16836 -2.41113 -1.0892e-19)
(2.15461 -2.36245 -3.37561e-21)
(2.13981 -2.31478 -6.12373e-20)
(2.12418 -2.26821 -1.4238e-20)
(2.10794 -2.22282 -3.77259e-20)
(2.09126 -2.17864 -4.13997e-20)
(2.0743 -2.13563 -4.33977e-20)
(2.05728 -2.0936 7.17021e-20)
(2.04062 -2.0521 1.93838e-20)
(2.02302 -2.01153 -3.58562e-20)
(2.70602 -3.98847 -1.83625e-19)
(2.53619 -3.78142 6.56886e-20)
(2.44175 -3.60394 -1.12211e-19)
(2.38224 -3.46163 1.64703e-20)
(2.34398 -3.34747 1.83522e-19)
(2.32193 -3.25256 -9.30319e-20)
(2.31101 -3.17114 -9.92366e-20)
(2.30709 -3.0992 -8.39654e-20)
(2.30721 -3.03379 3.76721e-21)
(2.30921 -2.97278 5.42056e-20)
(2.31156 -2.91468 -3.96461e-20)
(2.31317 -2.85849 1.41772e-21)
(2.31334 -2.80353 9.14576e-20)
(2.31164 -2.7494 5.69063e-20)
(2.30784 -2.69585 1.67912e-20)
(2.30185 -2.6428 -5.15566e-20)
(2.29373 -2.59021 1.97458e-20)
(2.28357 -2.53815 4.26884e-20)
(2.27155 -2.4867 4.90572e-20)
(2.25786 -2.43596 -5.36571e-20)
(2.24272 -2.38607 7.54838e-21)
(2.22637 -2.33714 4.63522e-20)
(2.20905 -2.2893 8.05742e-20)
(2.19099 -2.24267 2.17003e-20)
(2.17241 -2.19731 -8.3733e-20)
(2.15352 -2.15329 9.7736e-20)
(2.13449 -2.11059 -4.89784e-20)
(2.11556 -2.06902 -5.88128e-20)
(2.09719 -2.02808 -3.61401e-20)
(2.07803 -1.98825 -4.65083e-20)
(2.81224 -3.92041 9.86939e-20)
(2.64223 -3.72492 -7.59697e-20)
(2.54769 -3.55591 2.89045e-20)
(2.4882 -3.4201 1.5405e-19)
(2.44989 -3.31093 4.22255e-20)
(2.42756 -3.21975 -3.59987e-20)
(2.41605 -3.14104 8.72652e-20)
(2.4112 -3.071 2.00938e-20)
(2.41006 -3.00686 8.37265e-20)
(2.41048 -2.94663 4.61226e-20)
(2.41096 -2.88894 2.20506e-21)
(2.41045 -2.83287 2.93494e-20)
(2.4083 -2.77784 -9.26243e-21)
(2.40412 -2.72349 -8.34072e-20)
(2.3977 -2.66964 -1.16527e-20)
(2.38903 -2.61624 -2.51584e-20)
(2.37816 -2.5633 6.26899e-20)
(2.36524 -2.51089 6.38458e-20)
(2.35046 -2.45911 -7.28833e-20)
(2.33403 -2.40809 7.50473e-20)
(2.31621 -2.35797 1.60245e-19)
(2.29724 -2.30887 -1.03768e-19)
(2.27737 -2.26095 1.04935e-19)
(2.25684 -2.21431 -7.33895e-20)
(2.23591 -2.16906 -1.05484e-20)
(2.21478 -2.12526 7.97416e-20)
(2.19364 -2.08296 -1.60793e-20)
(2.17278 -2.04194 6.0197e-20)
(2.15271 -2.0017 6.01034e-20)
(2.13203 -1.96275 -1.12308e-19)
(2.9168 -3.84959 -9.54183e-20)
(2.74716 -3.66559 4.36018e-20)
(2.65292 -3.50494 1.77674e-20)
(2.59369 -3.37549 -1.81457e-19)
(2.55547 -3.27118 -9.44001e-20)
(2.53294 -3.18361 7.12551e-20)
(2.52085 -3.10752 -1.98934e-19)
(2.51507 -3.03932 2.41341e-19)
(2.51262 -2.9764 -1.35735e-19)
(2.5114 -2.91692 1.61522e-20)
(2.50994 -2.85962 -2.54009e-20)
(2.50725 -2.80368 -7.86867e-20)
(2.5027 -2.7486 1.63509e-19)
(2.49596 -2.69407 6.2335e-20)
(2.48687 -2.63998 8.04996e-20)
(2.47544 -2.5863 1.91204e-21)
(2.46178 -2.53307 3.63951e-20)
(2.44605 -2.48038 -7.8706e-20)
(2.42847 -2.42836 1.67934e-20)
(2.40929 -2.37714 5.50285e-20)
(2.38876 -2.32686 -2.26588e-20)
(2.36715 -2.27768 3.81703e-20)
(2.3447 -2.22972 -7.512e-20)
(2.32169 -2.18313 1.09365e-19)
(2.29837 -2.13804 2.58727e-20)
(2.27497 -2.09453 -6.95066e-20)
(2.2517 -2.05267 -6.05177e-20)
(2.22888 -2.0123 9.05345e-23)
(2.20708 -1.97286 8.39638e-20)
(2.1849 -1.93495 -1.89711e-20)
(3.01965 -3.77602 -2.61531e-20)
(2.85095 -3.60345 -1.83455e-19)
(2.75737 -3.45102 2.18283e-19)
(2.69861 -3.32778 1.48205e-19)
(2.66061 -3.22819 1.48695e-19)
(2.63792 -3.14411 4.20721e-20)
(2.62528 -3.07054 6.27769e-20)
(2.61854 -3.00411 3.24044e-20)
(2.61474 -2.94236 -1.27702e-19)
(2.61183 -2.8836 2.34536e-19)
(2.60837 -2.8267 -1.90578e-19)
(2.60341 -2.77091 -1.26526e-20)
(2.5964 -2.71581 2.81089e-20)
(2.58703 -2.66116 -1.24982e-19)
(2.57521 -2.60688 1.96751e-19)
(2.56098 -2.55299 3.79073e-20)
(2.54447 -2.49954 -8.45577e-20)
(2.5259 -2.44667 3.29462e-20)
(2.50551 -2.39449 -6.31251e-20)
(2.48355 -2.34315 -5.59071e-20)
(2.4603 -2.29279 -6.01616e-20)
(2.43603 -2.24358 1.36673e-20)
(2.41101 -2.19566 8.12871e-21)
(2.38551 -2.14917 -1.48669e-19)
(2.35978 -2.10426 -5.68819e-20)
(2.33408 -2.06106 3.65576e-20)
(2.30862 -2.01967 4.5661e-20)
(2.28378 -1.97999 -6.29924e-20)
(2.26021 -1.94145 -2.41084e-20)
(2.23652 -1.90472 2.27296e-21)
(3.12077 -3.69973 -2.27726e-20)
(2.95357 -3.5385 1.18733e-19)
(2.86098 -3.39411 -3.354e-20)
(2.80288 -3.2769 -4.10806e-20)
(2.76519 -3.18189 -2.3199e-19)
(2.74239 -3.1012 -5.1137e-20)
(2.7292 -3.03007 9.78987e-20)
(2.72147 -2.96534 -6.46427e-20)
(2.71628 -2.90473 -6.90418e-21)
(2.71162 -2.84669 -1.27132e-20)
(2.70609 -2.79018 7.21783e-20)
(2.69881 -2.73456 -1.14438e-19)
(2.68926 -2.67948 -7.69409e-20)
(2.67721 -2.62477 9.0574e-20)
(2.66259 -2.57037 -5.18682e-20)
(2.64551 -2.51634 2.46389e-20)
(2.62613 -2.46277 4.87785e-21)
(2.60469 -2.40979 -2.10489e-20)
(2.58147 -2.35753 7.97547e-20)
(2.55672 -2.30616 -7.31195e-20)
(2.53076 -2.25581 -5.93745e-20)
(2.50385 -2.20665 5.16744e-20)
(2.47626 -2.15881 -5.75137e-21)
(2.44827 -2.11246 -3.89246e-20)
(2.42014 -2.06774 3.43202e-20)
(2.39211 -2.02482 -1.07437e-19)
(2.36442 -1.98388 6.54906e-20)
(2.33748 -1.94488 -1.01599e-21)
(2.31209 -1.90728 -6.88625e-20)
(2.28689 -1.87179 9.7485e-20)
(3.22023 -3.62078 9.49801e-20)
(3.05506 -3.47074 -2.35179e-19)
(2.9637 -3.33417 -1.96629e-20)
(2.90638 -3.22281 1.10358e-19)
(2.86906 -3.13224 -2.87271e-20)
(2.84619 -3.05483 -8.08392e-20)
(2.83245 -2.98607 3.8137e-20)
(2.82371 -2.92299 4.41122e-20)
(2.8171 -2.8635 3.81955e-21)
(2.81062 -2.80616 5.44455e-20)
(2.80296 -2.75006 1.74312e-19)
(2.79328 -2.69465 -6.12873e-20)
(2.78114 -2.63964 1.60087e-20)
(2.76635 -2.58492 -4.16224e-20)
(2.7489 -2.53048 1.59765e-19)
(2.72893 -2.4764 -2.87382e-20)
(2.70665 -2.42279 4.37171e-20)
(2.68233 -2.36979 -7.30086e-20)
(2.65626 -2.31756 4.01109e-20)
(2.62875 -2.26624 6.0733e-20)
(2.60008 -2.21599 1.04489e-20)
(2.57055 -2.16694 4.10436e-20)
(2.54043 -2.11925 -3.40638e-20)
(2.50998 -2.07305 9.49786e-20)
(2.47947 -2.02852 -3.88978e-20)
(2.44913 -1.98584 1.42902e-19)
(2.41917 -1.94524 -4.12492e-20)
(2.39006 -1.90679 2.85521e-20)
(2.36273 -1.87001 -5.39419e-20)
(2.33603 -1.8358 9.52313e-20)
(3.31842 -3.53931 -2.09832e-19)
(3.15553 -3.40012 7.41171e-21)
(3.06545 -3.27108 -1.21766e-19)
(3.00895 -3.16543 2.22581e-20)
(2.97208 -3.0792 6.14831e-21)
(2.94916 -3.00499 -1.08194e-19)
(2.93488 -2.93853 -2.03389e-19)
(2.92512 -2.87706 1.0182e-19)
(2.91702 -2.81865 -1.44507e-19)
(2.90868 -2.76202 -7.65168e-20)
(2.89882 -2.70635 -4.37683e-20)
(2.8867 -2.65119 -3.54645e-20)
(2.8719 -2.59631 1.06834e-21)
(2.85432 -2.54166 -1.26247e-19)
(2.83399 -2.48726 8.35431e-20)
(2.8111 -2.43321 -1.36753e-19)
(2.78591 -2.37966 -3.4682e-20)
(2.7587 -2.32675 4.01111e-20)
(2.72981 -2.27464 -1.56482e-20)
(2.69954 -2.22347 4.78016e-20)
(2.6682 -2.1734 3.66631e-20)
(2.6361 -2.12456 -9.19651e-20)
(2.60351 -2.07707 9.29924e-20)
(2.57068 -2.03107 -9.87899e-21)
(2.53785 -1.98671 -2.50319e-20)
(2.50524 -1.94417 -9.94019e-20)
(2.47302 -1.90369 -5.28975e-20)
(2.4416 -1.86538 9.80151e-20)
(2.41203 -1.82893 -3.20159e-20)
(2.38355 -1.79604 -3.1082e-20)
(3.41578 -3.45497 9.12266e-20)
(3.255 -3.32621 8.02411e-21)
(3.16603 -3.20464 -2.41265e-20)
(3.11041 -3.10468 -5.26123e-21)
(3.07405 -3.02274 -4.35892e-20)
(3.05115 -2.95168 1.46195e-19)
(3.03634 -2.88746 -6.90182e-20)
(3.02553 -2.82756 4.50463e-20)
(3.01592 -2.77022 1.87344e-20)
(3.00566 -2.71429 6.80531e-20)
(2.99355 -2.65908 -2.65323e-20)
(2.97891 -2.60422 1.49454e-19)
(2.96141 -2.54954 -1.2948e-20)
(2.94099 -2.49502 9.76824e-20)
(2.91775 -2.44075 -1.64354e-19)
(2.89193 -2.38684 -1.27142e-20)
(2.8638 -2.33345 1.06795e-19)
(2.83372 -2.28073 -6.64084e-20)
(2.80201 -2.22885 2.73629e-20)
(2.76901 -2.17795 4.69594e-20)
(2.73506 -2.12817 -6.93749e-20)
(2.70046 -2.07963 7.61807e-20)
(2.66549 -2.03245 -7.19112e-20)
(2.63041 -1.98672 1.56983e-20)
(2.59545 -1.94256 5.82412e-20)
(2.5608 -1.90009 4.0422e-20)
(2.5266 -1.85944 3.84811e-20)
(2.49309 -1.82061 2.83799e-20)
(2.4608 -1.78365 -7.65702e-20)
(2.42942 -1.7516 -3.063e-20)
(5.01245 -0.0289997 1.36432e-21)
(5.00476 -0.16083 1.35344e-20)
(4.99395 -0.291688 4.69714e-20)
(4.97999 -0.421851 2.56792e-20)
(4.96268 -0.551379 -5.42644e-20)
(4.94194 -0.680236 1.64359e-20)
(4.91778 -0.808356 -1.72156e-20)
(4.89024 -0.93566 -4.34568e-20)
(4.85932 -1.06206 2.24669e-20)
(4.82507 -1.18747 -2.63625e-20)
(4.78753 -1.3118 -2.6609e-20)
(4.74672 -1.43496 -5.61504e-20)
(4.7027 -1.55688 -1.60665e-19)
(4.6555 -1.67746 1.48947e-20)
(4.60517 -1.79662 -7.27183e-21)
(4.55176 -1.91429 -4.99739e-20)
(4.49532 -2.03038 1.07201e-19)
(4.4359 -2.14482 5.80224e-20)
(4.37356 -2.25754 1.10902e-19)
(4.30834 -2.36846 5.40804e-20)
(4.2403 -2.47751 -1.20858e-19)
(4.16951 -2.58463 4.86715e-21)
(4.09603 -2.68975 -2.27502e-19)
(4.0199 -2.7928 3.45032e-19)
(3.94121 -2.89373 -1.1305e-19)
(3.86001 -2.99249 -1.4536e-19)
(3.77638 -3.08903 -2.02859e-20)
(3.69039 -3.18333 -1.10433e-21)
(3.60213 -3.27545 -1.08636e-19)
(3.51158 -3.3658 1.93437e-19)
(5.04026 -0.0579162 5.4097e-21)
(5.02663 -0.189888 7.99555e-21)
(5.00929 -0.320738 1.99478e-21)