/*--------------------------------*- C++ -*----------------------------------*\
  =========                 |
  \\      /  F ield         | OpenFOAM: The Open Source CFD Toolbox
   \\    /   O peration     | Website:  https://openfoam.org
    \\  /    A nd           | Version:  6.0
     \\/     M anipulation  |
\*---------------------------------------------------------------------------*/
FoamFile
{
    version     2.0;
    format      ascii;
    class       volScalarField;
    location    "19.25";
    object      p;
}
// * * * * * * * * * * * * * * * * * * * * * * * * * * * * * * * * * * * * * //

dimensions      [0 2 -2 0 0 0 0];

internalField   nonuniform List<scalar> 
19200
(
-7.25783
-6.3921
-5.7986
-5.33758
-4.93136
-4.57413
-4.25829
-3.97531
-3.7192
-3.48562
-3.27126
-3.07354
-2.89039
-2.72019
-2.56159
-2.41347
-2.27489
-2.14505
-2.02325
-1.90888
-1.8014
-1.70033
-1.60523
-1.51573
-1.43146
-1.35212
-1.27741
-1.20708
-1.14087
-1.07871
-7.43651
-6.57013
-5.97438
-5.50988
-5.09953
-4.73776
-4.41712
-4.12923
-3.86817
-3.62969
-3.41051
-3.20807
-3.02037
-2.84576
-2.68293
-2.53075
-2.3883
-2.25476
-2.12944
-2.01172
-1.90106
-1.79698
-1.69903
-1.60681
-1.51998
-1.43821
-1.36122
-1.28869
-1.22034
-1.15642
-7.61978
-6.75123
-6.15266
-5.6845
-5.26986
-4.9034
-4.57784
-4.28491
-4.01878
-3.77527
-3.55115
-3.34391
-3.15154
-2.97244
-2.80528
-2.64896
-2.50255
-2.36525
-2.23635
-2.11523
-2.00134
-1.89419
-1.79334
-1.69838
-1.60895
-1.52472
-1.44539
-1.37064
-1.30012
-1.23443
-7.80599
-6.93498
-6.3333
-5.86129
-5.44219
-5.07089
-4.74027
-4.44217
-4.17086
-3.9222
-3.69304
-3.48087
-3.28374
-3.10004
-2.92847
-2.76794
-2.6175
-2.47637
-2.34382
-2.21924
-2.10208
-1.99182
-1.88803
-1.79029
-1.69822
-1.61149
-1.52981
-1.4528
-1.38008
-1.31262
-7.99472
-7.12109
-6.5161
-6.04005
-5.61635
-5.24007
-4.90425
-4.60085
-4.32422
-4.07031
-3.83598
-3.61879
-3.41679
-3.22841
-3.05235
-2.88752
-2.73299
-2.58796
-2.45171
-2.32363
-2.20314
-2.08974
-1.98296
-1.8824
-1.78767
-1.69842
-1.61436
-1.53507
-1.46013
-1.39088
-8.18566
-7.30932
-6.70086
-6.22062
-5.79216
-5.41075
-5.06961
-4.76078
-4.47872
-4.21942
-3.97983
-3.75751
-3.55055
-3.3574
-3.17676
-3.00756
-2.84887
-2.69988
-2.55988
-2.42823
-2.30438
-2.18779
-2.07801
-1.9746
-1.87717
-1.78538
-1.69892
-1.61731
-1.54013
-1.46911
-8.37854
-7.49943
-6.88736
-6.4028
-5.96944
-5.58278
-5.23617
-4.92179
-4.63416
-4.36937
-4.12439
-3.89684
-3.68483
-3.48682
-3.30153
-3.12789
-2.96497
-2.81196
-2.66816
-2.53291
-2.40565
-2.28585
-2.17303
-2.06674
-1.9666
-1.87225
-1.78336
-1.69943
-1.61999
-1.54719
-8.57311
-7.69119
-7.07541
-6.58639
-6.148
-5.75595
-5.40374
-5.08368
-4.79038
-4.51998
-4.26951
-4.03663
-3.81947
-3.61651
-3.4265
-3.24835
-3.08114
-2.92407
-2.77641
-2.63753
-2.50683
-2.38378
-2.26789
-2.15871
-2.05584
-1.95891
-1.86758
-1.78131
-1.69961
-1.62502
-8.76916
-7.88437
-7.26479
-6.77119
-6.32765
-5.93008
-5.57215
-5.24628
-4.94718
-4.67106
-4.41499
-4.17669
-3.95429
-3.74631
-3.55149
-3.36877
-3.19722
-3.03604
-2.88449
-2.74193
-2.60776
-2.48144
-2.36247
-2.25038
-2.14476
-2.04524
-1.95147
-1.86285
-1.77887
-1.70252
-8.96645
-8.07876
-7.45529
-6.957
-6.50818
-6.10496
-5.74119
-5.40939
-5.10438
-4.82243
-4.56067
-4.31684
-4.08912
-3.87604
-3.67635
-3.489
-3.31305
-3.14771
-2.99224
-2.84597
-2.70831
-2.5787
-2.45663
-2.34163
-2.23326
-2.13114
-2.03492
-1.94394
-1.85767
-1.77958
-9.16476
-8.27414
-7.64669
-7.14361
-6.6894
-6.28041
-5.91067
-5.57283
-5.26179
-4.9739
-4.70634
-4.4569
-4.22378
-4.00553
-3.80091
-3.60887
-3.42848
-3.25894
-3.09951
-2.94952
-2.80835
-2.67544
-2.55026
-2.43233
-2.3212
-2.21649
-2.11781
-2.02449
-1.93593
-1.85611
-9.36388
-8.47028
-7.83879
-7.33081
-6.87109
-6.45622
-6.08039
-5.73639
-5.41921
-5.12528
-4.85184
-4.59669
-4.3581
-4.1346
-3.92499
-3.72821
-3.54335
-3.36958
-3.20616
-3.05242
-2.90773
-2.7715
-2.64321
-2.52236
-2.40847
-2.30117
-2.20006
-2.10438
-2.01355
-1.93202
-9.56357
-8.66698
-8.03136
-7.5184
-7.05306
-6.63219
-6.25016
-5.89989
-5.57646
-5.27639
-4.99696
-4.73604
-4.49189
-4.26309
-4.04844
-3.84688
-3.6575
-3.47947
-3.31205
-3.15454
-3.00631
-2.86677
-2.73537
-2.6116
-2.49497
-2.38509
-2.28154
-2.18353
-2.09043
-2.00723
-9.76363
-8.86402
-8.2242
-7.70615
-7.23509
-6.80811
-6.41977
-6.06312
-5.73334
-5.42704
-5.14154
-4.87476
-4.62499
-4.39083
-4.17108
-3.9647
-3.77077
-3.58846
-3.41701
-3.25573
-3.10397
-2.96112
-2.82661
-2.69993
-2.58057
-2.46812
-2.36216
-2.26183
-2.16648
-2.08164
-9.96384
-9.06118
-8.4171
-7.89386
-7.41698
-6.98379
-6.58902
-6.22588
-5.88966
-5.57703
-5.28539
-5.01267
-4.75722
-4.51765
-4.29276
-4.08152
-3.88301
-3.6964
-3.52093
-3.35587
-3.20057
-3.05441
-2.91681
-2.78723
-2.66515
-2.55016
-2.44181
-2.33918
-2.2416
-2.15517
-10.164
-9.25824
-8.60984
-8.08133
-7.59852
-7.15901
-6.75772
-6.38799
-6.04523
-5.72619
-5.42832
-5.1496
-4.88841
-4.64337
-4.41331
-4.19718
-3.99408
-3.80316
-3.62364
-3.4548
-3.29597
-3.14651
-3.00583
-2.87337
-2.7486
-2.63109
-2.52038
-2.41548
-2.31569
-2.2277
-10.3638
-9.45501
-8.80221
-8.26835
-7.77951
-7.33357
-6.92566
-6.54925
-6.19986
-5.87432
-5.57015
-5.28538
-5.01839
-4.76785
-4.53257
-4.31154
-4.10382
-3.90857
-3.72501
-3.55239
-3.39003
-3.23729
-3.09355
-2.95823
-2.83079
-2.71079
-2.59775
-2.4906
-2.38864
-2.29914
-10.5632
-9.65127
-8.99401
-8.45471
-7.95975
-7.50728
-7.09264
-6.70946
-6.35336
-6.02124
-5.71071
-5.41982
-5.147
-4.89091
-4.6504
-4.42443
-4.21209
-4.01251
-3.8249
-3.64851
-3.48264
-3.32662
-3.17983
-3.04168
-2.9116
-2.78914
-2.67379
-2.56443
-2.46032
-2.36937
-10.7619
-9.84682
-9.18504
-8.6402
-8.13903
-7.67994
-7.25848
-6.86843
-6.50554
-6.16679
-5.84983
-5.55278
-5.27408
-5.01241
-4.76664
-4.53573
-4.31875
-4.11483
-3.92318
-3.74302
-3.57364
-3.41437
-3.26455
-3.12358
-2.99088
-2.86598
-2.74837
-2.63684
-2.5306
-2.43825
-10.9597
-10.0415
-9.37511
-8.82464
-8.31715
-7.85135
-7.42298
-7.02598
-6.65622
-6.31077
-5.98733
-5.68407
-5.39946
-5.1322
-4.88115
-4.64529
-4.42366
-4.21541
-4.01972
-3.8358
-3.66293
-3.50041
-3.34757
-3.2038
-3.0685
-2.94119
-2.82133
-2.70765
-2.59932
-2.50562
-11.1564
-10.235
-9.56401
-9.00783
-8.49392
-8.0213
-7.58594
-7.18192
-6.80523
-6.45302
-6.12306
-5.81356
-5.52301
-5.25014
-4.9938
-4.75297
-4.52671
-4.31413
-4.1144
-3.92673
-3.75037
-3.5846
-3.42876
-3.2822
-3.14431
-3.0146
-2.89252
-2.77672
-2.6663
-2.57127
-11.352
-10.4274
-9.75156
-9.18956
-8.66914
-8.18962
-7.74718
-7.33607
-6.95239
-6.59337
-6.25686
-5.94109
-5.64459
-5.36609
-5.10446
-4.85868
-4.62778
-4.41087
-4.20711
-4.01569
-3.83585
-3.66685
-3.508
-3.35865
-3.21817
-3.08606
-2.96175
-2.84383
-2.73132
-2.63498
-11.5462
-10.6182
-9.93758
-9.36965
-8.84261
-8.3561
-7.90651
-7.48825
-7.09753
-6.73167
-6.38857
-6.06652
-5.76406
-5.47993
-5.21302
-4.96229
-4.72677
-4.50555
-4.29777
-4.1026
-3.91928
-3.74704
-3.58518
-3.43301
-3.28993
-3.1554
-3.02885
-2.90877
-2.79412
-2.69645
-11.739
-10.8075
-10.1219
-9.54789
-9.01413
-8.52054
-8.06374
-7.63828
-7.24047
-6.86775
-6.51806
-6.18971
-5.88129
-5.59156
-5.31938
-5.06371
-4.82359
-4.59807
-4.38628
-4.18739
-4.00058
-3.82509
-3.6602
-3.5052
-3.35946
-3.22246
-3.09362
-2.97133
-2.85442
-2.75536
-11.9304
-10.9951
-10.3043
-9.72407
-9.18349
-8.68275
-8.21868
-7.78597
-7.38107
-7.00146
-6.64517
-6.31055
-5.99619
-5.70086
-5.42344
-5.16288
-4.91817
-4.68839
-4.47262
-4.27
-4.07971
-3.90097
-3.73301
-3.57514
-3.42669
-3.28713
-3.15587
-3.03124
-2.91192
-2.81131
-12.1202
-11.1808
-10.4845
-9.89797
-9.35047
-8.84252
-8.37114
-7.93117
-7.51915
-7.13267
-6.76979
-6.4289
-6.10864
-5.80776
-5.52514
-5.25971
-5.01047
-4.77646
-4.55674
-4.35043
-4.15668
-3.97467
-3.80364
-3.64284
-3.49159
-3.34935
-3.21553
-3.08835
-2.96631
-2.86374
-12.3088
-11.3643
-10.6623
-10.0693
-9.51484
-8.99963
-8.52092
-8.07368
-7.65456
-7.26122
-6.89178
-6.54468
-6.21855
-5.91217
-5.6244
-5.35418
-5.10046
-4.86228
-4.63867
-4.42871
-4.23153
-4.04628
-3.87215
-3.70839
-3.55426
-3.40922
-3.27269
-3.14274
-3.01749
-2.91211
-12.4972
-11.5458
-10.8374
-10.2378
-9.67629
-9.15382
-8.66779
-8.21331
-7.78712
-7.38696
-7.01101
-6.65774
-6.32581
-6.014
-5.72117
-5.44622
-5.18812
-4.94584
-4.71841
-4.50488
-4.30433
-4.11589
-3.93871
-3.77196
-3.6149
-3.46693
-3.32746
-3.19432
-3.06495
-2.95603
-12.6866
-11.7251
-11.0092
-10.403
-9.83447
-9.30482
-8.81155
-8.34988
-7.91667
-7.50975
-7.12735
-6.76799
-6.43034
-6.11318
-5.81537
-5.5358
-5.2734
-5.02714
-4.79601
-4.57902
-4.37523
-4.18371
-4.00357
-3.83393
-3.67394
-3.52291
-3.37998
-3.24244
-3.10736
-2.99477
-12.8694
-11.8989
-11.1766
-10.5643
-9.98926
-9.45263
-8.9522
-8.48341
-8.04324
-7.62962
-7.24085
-6.87547
-6.53218
-6.20976
-5.90706
-5.62297
-5.35639
-5.10627
-4.87156
-4.65127
-4.44441
-4.25004
-4.06723
-3.89507
-3.73268
-3.57915
-3.43314
-3.29169
-3.15306
-3.03557
-15.9044
-15.8856
-15.8575
-15.825
-15.7872
-15.7435
-15.6937
-15.6378
-15.5758
-15.5076
-15.4333
-15.353
-15.2667
-15.1746
-15.0767
-14.9731
-14.8641
-14.7496
-14.6299
-14.5051
-14.3753
-14.2408
-14.1016
-13.9579
-13.81
-13.6581
-13.5025
-13.3437
-13.1821
-13.0205
-14.8693
-14.8554
-14.833
-14.8044
-14.7694
-14.7282
-14.6806
-14.6268
-14.5669
-14.5008
-14.4287
-14.3506
-14.2666
-14.1768
-14.0813
-13.9803
-13.8737
-13.7619
-13.6448
-13.5227
-13.3957
-13.2639
-13.1275
-12.9867
-12.8417
-12.6927
-12.5399
-12.3837
-12.2243
-12.0623
-14.0284
-14.0182
-14.0004
-13.9758
-13.9446
-13.907
-13.8631
-13.813
-13.7568
-13.6945
-13.6262
-13.552
-13.4719
-13.3862
-13.2948
-13.1979
-13.0957
-12.9881
-12.8754
-12.7577
-12.6351
-12.5078
-12.3759
-12.2397
-12.0992
-11.9547
-11.8063
-11.6542
-11.4986
-11.3395
-13.2664
-13.2596
-13.2459
-13.2254
-13.1984
-13.1652
-13.1256
-13.08
-13.0283
-12.9707
-12.9071
-12.8378
-12.7627
-12.682
-12.5957
-12.504
-12.4071
-12.3049
-12.1976
-12.0854
-11.9684
-11.8466
-11.7204
-11.5898
-11.4549
-11.316
-11.1731
-11.0264
-10.8761
-10.7221
-12.527
-12.5235
-12.5136
-12.4972
-12.4746
-12.4458
-12.4109
-12.37
-12.3231
-12.2705
-12.2121
-12.148
-12.0783
-12.003
-11.9224
-11.8365
-11.7453
-11.649
-11.5478
-11.4416
-11.3308
-11.2153
-11.0953
-10.9709
-10.8424
-10.7098
-10.5732
-10.4328
-10.2886
-10.1408
-11.8215
-11.8212
-11.8149
-11.8024
-11.7838
-11.7593
-11.7289
-11.6927
-11.6507
-11.603
-11.5498
-11.491
-11.4267
-11.3571
-11.2822
-11.2021
-11.117
-11.0268
-10.9318
-10.832
-10.7275
-10.6185
-10.5051
-10.3873
-10.2654
-10.1395
-10.0096
-9.87587
-9.73843
-9.59737
-11.1551
-11.1577
-11.1545
-11.1455
-11.1306
-11.11
-11.0838
-11.0519
-11.0145
-10.9716
-10.9233
-10.8696
-10.8107
-10.7466
-10.6773
-10.603
-10.5237
-10.4396
-10.3507
-10.2572
-10.1592
-10.0566
-9.9498
-9.83873
-9.72356
-9.60439
-9.48133
-9.35449
-9.22397
-9.08988
-10.528
-10.533
-10.5325
-10.5265
-10.5149
-10.4978
-10.4753
-10.4474
-10.4142
-10.3757
-10.332
-10.2831
-10.2291
-10.1701
-10.1062
-10.0373
-9.96374
-9.88543
-9.80252
-9.71508
-9.62322
-9.52703
-9.42661
-9.32208
-9.21352
-9.10105
-8.98476
-8.86476
-8.74114
-8.61402
-9.94025
-9.9472
-9.94898
-9.94544
-9.93662
-9.92256
-9.9033
-9.87889
-9.84937
-9.81479
-9.7752
-9.73067
-9.68124
-9.62698
-9.56796
-9.50426
-9.43594
-9.36308
-9.28576
-9.20408
-9.11811
-9.02794
-8.93368
-8.8354
-8.73322
-8.62721
-8.51749
-8.40413
-8.28725
-8.16695
-9.39137
-9.39982
-9.40337
-9.40185
-9.39531
-9.38377
-9.36728
-9.34587
-9.31958
-9.28845
-9.25253
-9.21187
-9.16652
-9.11655
-9.062
-9.00296
-8.93948
-8.87164
-8.79951
-8.72317
-8.6427
-8.55818
-8.4697
-8.37734
-8.28118
-8.18133
-8.07786
-7.97086
-7.86044
-7.74668
-8.88026
-8.8898
-8.89467
-8.89474
-8.89002
-8.88055
-8.86636
-8.84748
-8.82394
-8.79578
-8.76305
-8.72579
-8.68405
-8.63789
-8.58735
-8.53251
-8.47341
-8.41014
-8.34274
-8.27131
-8.1959
-8.1166
-8.03348
-7.94663
-7.85611
-7.76202
-7.66444
-7.56345
-7.45914
-7.3516
-8.40533
-8.4156
-8.42142
-8.42267
-8.41937
-8.41154
-8.39922
-8.38243
-8.36121
-8.33558
-8.30558
-8.27127
-8.23268
-8.18987
-8.14288
-8.09177
-8.0366
-7.97743
-7.91432
-7.84734
-7.77655
-7.70203
-7.62384
-7.54207
-7.45677
-7.36804
-7.27594
-7.18056
-7.08197
-6.98028
-7.9647
-7.97538
-7.98182
-7.98391
-7.98167
-7.97512
-7.96429
-7.94921
-7.92989
-7.90638
-7.87872
-7.84693
-7.81107
-7.77117
-7.72729
-7.67949
-7.6278
-7.5723
-7.51303
-7.45006
-7.38345
-7.31327
-7.23958
-7.16245
-7.08194
-6.99815
-6.91112
-6.82094
-6.72768
-6.63143
-7.55624
-7.56708
-7.57387
-7.57652
-7.57503
-7.56945
-7.55979
-7.54607
-7.52832
-7.50657
-7.48086
-7.45122
-7.4177
-7.38033
-7.33917
-7.29426
-7.24565
-7.1934
-7.13755
-7.07818
-7.01533
-6.94906
-6.87945
-6.80654
-6.73042
-6.65114
-6.56877
-6.48339
-6.39505
-6.30385
-7.17777
-7.18856
-7.19548
-7.19845
-7.19748
-7.1926
-7.18382
-7.17118
-7.1547
-7.1344
-7.11032
-7.0825
-7.05098
-7.01579
-6.97698
-6.93461
-6.8887
-6.83932
-6.78652
-6.73035
-6.67087
-6.60813
-6.54219
-6.47312
-6.40097
-6.32581
-6.24771
-6.16672
-6.08291
-5.99638
-6.82706
-6.83764
-6.84453
-6.84763
-6.84697
-6.84257
-6.83446
-6.82266
-6.80719
-6.78808
-6.76536
-6.73907
-6.70925
-6.67594
-6.63917
-6.599
-6.55547
-6.50863
-6.45852
-6.40521
-6.34873
-6.28916
-6.22653
-6.16092
-6.09238
-6.02096
-5.94674
-5.86977
-5.79012
-5.70787
-6.50193
-6.51219
-6.51891
-6.522
-6.52149
-6.51742
-6.50979
-6.49862
-6.48396
-6.46581
-6.44422
-6.41922
-6.39085
-6.35914
-6.32415
-6.2859
-6.24445
-6.19984
-6.15213
-6.10135
-6.04757
-5.99083
-5.93118
-5.86869
-5.8034
-5.73538
-5.66469
-5.59139
-5.51554
-5.43722
-6.20031
-6.21016
-6.21661
-6.21958
-6.21911
-6.21521
-6.20792
-6.19724
-6.1832
-6.16584
-6.14519
-6.12127
-6.09414
-6.06382
-6.03035
-5.99378
-5.95416
-5.91153
-5.86593
-5.81741
-5.76603
-5.71183
-5.65486
-5.59518
-5.53284
-5.4679
-5.40041
-5.33045
-5.25807
-5.18336
-5.92021
-5.9296
-5.93571
-5.93849
-5.93796
-5.93414
-5.92706
-5.91674
-5.90321
-5.88648
-5.86661
-5.84361
-5.81752
-5.7884
-5.75626
-5.72117
-5.68315
-5.64226
-5.59854
-5.55204
-5.50281
-5.45088
-5.39633
-5.33918
-5.2795
-5.21735
-5.15277
-5.08584
-5.01663
-4.94521
-5.6598
-5.66869
-5.67442
-5.67695
-5.67629
-5.67248
-5.66554
-5.65548
-5.64233
-5.62613
-5.60689
-5.58467
-5.55949
-5.5314
-5.50043
-5.46663
-5.43003
-5.39069
-5.34864
-5.30394
-5.25663
-5.20676
-5.15437
-5.09952
-5.04225
-4.98262
-4.92068
-4.85651
-4.79017
-4.72176
-5.41738
-5.42575
-5.43108
-5.43332
-5.4325
-5.42864
-5.42176
-5.41188
-5.39904
-5.38326
-5.36457
-5.34301
-5.31861
-5.29142
-5.26147
-5.22881
-5.19347
-5.15551
-5.11496
-5.07187
-5.02629
-4.97827
-4.92784
-4.87506
-4.81998
-4.76263
-4.70309
-4.64142
-4.57768
-4.51202
-5.19138
-5.19924
-5.20415
-5.20608
-5.20506
-5.20111
-5.19425
-5.18451
-5.1719
-5.15647
-5.13824
-5.11725
-5.09354
-5.06714
-5.03809
-5.00643
-4.97222
-4.93549
-4.89628
-4.85465
-4.81064
-4.76428
-4.71564
-4.66474
-4.61163
-4.55637
-4.499
-4.43958
-4.37821
-4.31503
-4.9804
-4.98775
-4.99224
-4.99386
-4.99262
-4.98856
-4.98168
-4.97203
-4.95961
-4.94447
-4.92663
-4.90614
-4.88302
-4.85731
-4.82907
-4.79832
-4.76511
-4.72949
-4.69149
-4.65117
-4.60857
-4.56374
-4.5167
-4.46752
-4.41622
-4.36285
-4.30745
-4.25008
-4.19083
-4.1299
-4.78314
-4.78999
-4.79407
-4.79538
-4.79392
-4.78973
-4.78282
-4.77322
-4.76095
-4.74606
-4.72856
-4.7085
-4.68591
-4.66082
-4.63329
-4.60335
-4.57105
-4.53643
-4.49953
-4.46041
-4.41909
-4.37564
-4.33008
-4.28246
-4.23281
-4.18117
-4.12756
-4.07205
-4.01468
-3.95576
-4.59844
-4.60481
-4.6085
-4.60949
-4.60781
-4.60348
-4.59652
-4.58696
-4.57482
-4.56013
-4.54293
-4.52326
-4.50113
-4.47661
-4.44972
-4.42052
-4.38904
-4.35532
-4.31942
-4.28138
-4.24124
-4.19905
-4.15485
-4.10866
-4.06053
-4.01048
-3.95852
-3.90469
-3.84897
-3.79185
-4.42525
-4.43116
-4.43446
-4.43515
-4.43325
-4.42877
-4.42175
-4.4122
-4.40016
-4.38565
-4.3687
-4.34936
-4.32766
-4.30363
-4.27733
-4.24878
-4.21804
-4.18515
-4.15016
-4.11311
-4.07404
-4.033
-3.99004
-3.94517
-3.89844
-3.84985
-3.7994
-3.7471
-3.69282
-3.63738
-4.26264
-4.2681
-4.27103
-4.27142
-4.26929
-4.26466
-4.25755
-4.248
-4.23602
-4.22165
-4.20492
-4.18587
-4.16453
-4.14094
-4.11514
-4.08718
-4.05709
-4.02493
-3.99075
-3.95458
-3.91647
-3.87647
-3.83461
-3.79095
-3.74549
-3.69824
-3.64916
-3.59824
-3.54511
-3.4913
-4.10975
-4.11486
-4.1175
-4.11766
-4.11536
-4.11064
-4.10351
-4.09399
-4.08211
-4.0679
-4.0514
-4.03264
-4.01165
-3.98848
-3.96317
-3.93576
-3.9063
-3.87482
-3.84139
-3.80603
-3.76881
-3.72977
-3.68895
-3.6464
-3.60213
-3.55614
-3.50837
-3.45873
-3.40646
-3.35393
-3.96573
-3.97066
-3.97318
-3.97328
-3.971
-3.96635
-3.95936
-3.95004
-3.93843
-3.92456
-3.90846
-3.89016
-3.86971
-3.84714
-3.82249
-3.79581
-3.76715
-3.73654
-3.70404
-3.6697
-3.63356
-3.59568
-3.5561
-3.51488
-3.47203
-3.42758
-3.38144
-3.33345
-3.28238
-3.23139
-3.82988
-3.834
-3.83582
-3.83533
-3.83255
-3.82749
-3.82019
-3.81067
-3.79895
-3.78507
-3.76905
-3.75094
-3.73078
-3.70859
-3.68442
-3.65832
-3.63034
-3.6005
-3.56888
-3.53551
-3.50045
-3.46375
-3.42546
-3.38565
-3.34435
-3.30161
-3.25743
-3.2116
-3.16293
-3.11856
-13.3745
-13.5298
-13.6767
-13.8236
-13.9688
-14.1108
-14.2491
-14.3833
-14.513
-14.638
-14.758
-14.8727
-14.982
-15.0857
-15.1836
-15.2756
-15.3616
-15.4414
-15.515
-15.5822
-15.6429
-15.6972
-15.7449
-15.786
-15.8205
-15.8484
-15.8697
-15.8847
-15.8937
-15.8981
-12.3401
-12.4996
-12.6523
-12.8015
-12.9473
-13.0892
-13.2269
-13.3602
-13.4891
-13.6131
-13.7322
-13.8461
-13.9547
-14.0578
-14.1552
-14.2468
-14.3324
-14.4121
-14.4855
-14.5527
-14.6136
-14.6681
-14.7161
-14.7576
-14.7927
-14.8212
-14.8433
-14.8589
-14.8682
-14.8714
-11.4889
-11.648
-11.8017
-11.9511
-12.0963
-12.2375
-12.3744
-12.507
-12.635
-12.7584
-12.8769
-12.9904
-13.0986
-13.2015
-13.2988
-13.3905
-13.4765
-13.5565
-13.6306
-13.6985
-13.7603
-13.8159
-13.8651
-13.9081
-13.9446
-13.9747
-13.9984
-14.0157
-14.0265
-14.0307
-10.7197
-10.8762
-11.0283
-11.1762
-11.3201
-11.4599
-11.5955
-11.7268
-11.8538
-11.9762
-12.0938
-12.2066
-12.3143
-12.4169
-12.5141
-12.6059
-12.6921
-12.7726
-12.8474
-12.9162
-12.9791
-13.0359
-13.0866
-13.1311
-13.1694
-13.2015
-13.2273
-13.2468
-13.2598
-13.2664
-9.98367
-10.1367
-10.286
-10.4315
-10.573
-10.7107
-10.8444
-10.9739
-11.0992
-11.22
-11.3364
-11.448
-11.5548
-11.6566
-11.7534
-11.8449
-11.931
-12.0117
-12.0868
-12.1562
-12.2199
-12.2778
-12.3298
-12.3758
-12.4159
-12.4498
-12.4777
-12.4994
-12.5149
-12.5241
-9.29475
-9.44372
-9.58953
-9.73174
-9.8703
-10.0051
-10.1362
-10.2633
-10.3863
-10.5052
-10.6196
-10.7296
-10.835
-10.9356
-11.0314
-11.1221
-11.2078
-11.2882
-11.3633
-11.4329
-11.4971
-11.5557
-11.6086
-11.6558
-11.6972
-11.7328
-11.7626
-11.7863
-11.8041
-11.8159
-8.65811
-8.80268
-8.9444
-9.08281
-9.21781
-9.34931
-9.47722
-9.60138
-9.72168
-9.83797
-9.95013
-10.058
-10.1615
-10.2605
-10.3548
-10.4443
-10.529
-10.6087
-10.6833
-10.7527
-10.8169
-10.8757
-10.9292
-10.9771
-11.0196
-11.0564
-11.0876
-11.1132
-11.133
-11.147
-8.073
-8.21292
-8.35022
-8.48446
-8.61551
-8.74328
-8.86765
-8.98848
-9.10565
-9.21901
-9.32845
-9.43382
-9.53501
-9.63189
-9.72435
-9.81226
-9.89554
-9.97406
-10.0477
-10.1165
-10.1803
-10.2389
-10.2924
-10.3407
-10.3837
-10.4214
-10.4537
-10.4805
-10.5019
-10.5178
-7.53758
-7.67271
-7.80541
-7.93526
-8.06212
-8.1859
-8.30646
-8.42369
-8.53743
-8.64757
-8.75398
-8.85652
-8.95509
-9.04955
-9.1398
-9.22574
-9.30725
-9.38424
-9.45662
-9.52431
-9.58722
-9.64529
-9.69845
-9.74662
-9.78977
-9.82783
-9.86076
-9.8885
-9.91103
-9.92832
-7.0492
-7.17951
-7.30754
-7.43289
-7.55544
-7.67509
-7.7917
-7.90515
-8.01529
-8.12201
-8.22518
-8.32467
-8.42037
-8.51217
-8.59995
-8.68362
-8.76308
-8.83823
-8.90899
-8.97527
-9.03701
-9.09413
-9.14657
-9.19427
-9.23717
-9.27523
-9.3084
-9.33663
-9.35991
-9.3782
-6.60457
-6.7301
-6.85347
-6.97433
-7.09255
-7.20802
-7.32062
-7.43021
-7.53666
-7.63985
-7.73966
-7.83596
-7.92865
-8.01761
-8.10274
-8.18395
-8.26113
-8.33421
-8.4031
-8.46772
-8.52801
-8.5839
-8.63532
-8.68222
-8.72455
-8.76227
-8.79533
-8.82369
-8.84733
-8.86624
-6.2001
-6.32095
-6.43975
-6.55618
-6.67011
-6.78144
-6.89004
-6.99578
-7.09852
-7.19815
-7.29454
-7.38759
-7.47718
-7.56321
-7.64558
-7.72419
-7.79897
-7.86981
-7.93666
-7.99943
-8.05806
-8.11249
-8.16265
-8.20851
-8.25001
-8.2871
-8.31976
-8.34795
-8.37163
-8.39081
-5.83214
-5.94845
-6.06282
-6.17493
-6.28467
-6.39195
-6.49662
-6.59855
-6.69763
-6.79373
-6.88673
-6.97652
-7.06299
-7.14606
-7.22561
-7.30157
-7.37384
-7.44236
-7.50705
-7.56784
-7.62467
-7.67748
-7.72621
-7.77083
-7.81129
-7.84755
-7.87957
-7.90733
-7.93079
-7.94997
-5.49714
-5.60908
-5.71917
-5.82711
-5.93282
-6.03616
-6.13702
-6.23526
-6.33075
-6.42339
-6.51304
-6.59962
-6.68301
-6.76312
-6.83986
-6.91314
-6.98289
-7.04903
-7.1115
-7.17024
-7.22517
-7.27626
-7.32345
-7.3667
-7.40597
-7.44122
-7.47243
-7.49956
-7.5226
-7.54154
-5.19174
-5.2995
-5.40549
-5.50945
-5.61127
-5.71083
-5.80802
-5.90269
-5.99472
-6.084
-6.17041
-6.25385
-6.33421
-6.41142
-6.48538
-6.55601
-6.62325
-6.68701
-6.74725
-6.80389
-6.85689
-6.9062
-6.95177
-6.99357
-7.03154
-7.06568
-7.09594
-7.1223
-7.14475
-7.16329
-4.91283
-5.01661
-5.11869
-5.21884
-5.31696
-5.41293
-5.5066
-5.59785
-5.68656
-5.77261
-5.85588
-5.93628
-6.01371
-6.0881
-6.15934
-6.22738
-6.29214
-6.35356
-6.41157
-6.46614
-6.51719
-6.5647
-6.60862
-6.6489
-6.68553
-6.71847
-6.7477
-6.77319
-6.79494
-6.81294
-4.65758
-4.75756
-4.85593
-4.95248
-5.04709
-5.13963
-5.22997
-5.31797
-5.4035
-5.48645
-5.56672
-5.6442
-5.71881
-5.79046
-5.85908
-5.92459
-5.98694
-6.04606
-6.10191
-6.15442
-6.20355
-6.24926
-6.29152
-6.33029
-6.36554
-6.39725
-6.42539
-6.44995
-6.47091
-6.48828
-4.42343
-4.5198
-4.61466
-4.7078
-4.7991
-4.88841
-4.97558
-5.06049
-5.14301
-5.22301
-5.30041
-5.37509
-5.44699
-5.51602
-5.58211
-5.64519
-5.70521
-5.76211
-5.81584
-5.86635
-5.9136
-5.95755
-5.99817
-6.03543
-6.0693
-6.09976
-6.12679
-6.15038
-6.17051
-6.1872
-4.2081
-4.30103
-4.39258
-4.48251
-4.57069
-4.65695
-4.74115
-4.82314
-4.90279
-4.98
-5.05466
-5.12668
-5.19599
-5.26251
-5.32618
-5.38693
-5.44471
-5.49946
-5.55115
-5.59972
-5.64514
-5.68738
-5.72641
-5.76219
-5.7947
-5.82392
-5.84984
-5.87245
-5.89172
-5.90768
-4.00954
-4.09921
-4.18763
-4.27456
-4.35982
-4.44323
-4.52462
-4.60385
-4.6808
-4.75535
-4.82742
-4.89691
-4.96375
-5.02788
-5.08923
-5.14775
-5.20338
-5.25608
-5.30581
-5.35253
-5.39619
-5.43677
-5.47425
-5.50859
-5.53978
-5.56779
-5.59261
-5.61424
-5.63266
-5.64788
-3.82593
-3.91249
-3.998
-4.08214
-4.16467
-4.24541
-4.32417
-4.40081
-4.4752
-4.54724
-4.61684
-4.68392
-4.74842
-4.81027
-4.86942
-4.92581
-4.9794
-5.03014
-5.078
-5.12293
-5.16491
-5.20391
-5.23989
-5.27285
-5.30275
-5.32959
-5.35335
-5.37401
-5.39158
-5.40607
-3.65565
-3.73926
-3.82208
-3.90363
-3.98364
-4.06188
-4.13818
-4.21237
-4.28435
-4.35401
-4.42128
-4.48608
-4.54835
-4.60804
-4.66509
-4.71946
-4.7711
-4.81998
-4.86605
-4.90929
-4.94966
-4.98714
-5.02171
-5.05334
-5.08201
-5.10772
-5.13044
-5.15018
-5.16692
-5.18069
-3.49722
-3.57804
-3.65843
-3.73763
-3.8153
-3.89124
-3.96522
-4.03711
-4.10681
-4.17422
-4.23927
-4.3019
-4.36206
-4.4197
-4.47476
-4.52721
-4.57701
-4.62411
-4.66849
-4.71012
-4.74897
-4.78501
-4.81822
-4.84858
-4.87608
-4.90071
-4.92245
-4.94129
-4.95724
-4.9703
-3.34928
-3.4275
-3.50578
-3.58286
-3.65841
-3.73219
-3.80402
-3.87374
-3.94128
-4.00655
-4.06951
-4.13009
-4.18825
-4.24394
-4.29712
-4.34775
-4.39579
-4.44122
-4.484
-4.5241
-4.5615
-4.59618
-4.6281
-4.65727
-4.68365
-4.70725
-4.72805
-4.74604
-4.76123
-4.77362
-3.21058
-3.28648
-3.36304
-3.43828
-3.51189
-3.58369
-3.65349
-3.72116
-3.78665
-3.84991
-3.91087
-3.9695
-4.02576
-4.07961
-4.131
-4.17991
-4.2263
-4.27014
-4.3114
-4.35006
-4.38609
-4.41947
-4.45019
-4.47822
-4.50355
-4.52617
-4.54608
-4.56326
-4.57772
-4.58947
-3.07993
-3.15419
-3.22959
-3.30321
-3.37505
-3.44501
-3.51289
-3.57861
-3.64215
-3.70346
-3.76253
-3.8193
-3.87375
-3.92583
-3.97553
-4.02279
-4.06761
-4.10994
-4.14976
-4.18704
-4.22177
-4.25392
-4.28348
-4.31043
-4.33476
-4.35645
-4.37551
-4.39192
-4.40568
-4.41681
-2.9554
-3.02951
-3.10461
-3.17683
-3.24703
-3.31525
-3.38129
-3.44513
-3.5068
-3.56627
-3.62351
-3.67851
-3.73123
-3.78165
-3.82972
-3.87543
-3.91875
-3.95965
-3.9981
-4.03409
-4.06758
-4.09857
-4.12704
-4.15296
-4.17634
-4.19715
-4.2154
-4.23107
-4.24417
-4.25472
-2.83195
-2.90796
-2.98432
-3.05556
-3.12436
-3.19104
-3.25543
-3.31758
-3.37756
-3.43537
-3.491
-3.54442
-3.59561
-3.64455
-3.6912
-3.73555
-3.77756
-3.81721
-3.85448
-3.88934
-3.92177
-3.95176
-3.97929
-4.00435
-4.02692
-4.04699
-4.06456
-4.07962
-4.09218
-4.10224
-2.70544
-2.7855
-2.86524
-2.93647
-3.00435
-3.06983
-3.13289
-3.19368
-3.25229
-3.30875
-3.36305
-3.41518
-3.46512
-3.51284
-3.55833
-3.60156
-3.6425
-3.68113
-3.71743
-3.75138
-3.78296
-3.81216
-3.83895
-3.86333
-3.88528
-3.9048
-3.92188
-3.93652
-3.9487
-3.95846
-2.6076
-2.69655
-2.77734
-2.84767
-2.9139
-2.97729
-3.03819
-3.0968
-3.15324
-3.20752
-3.25966
-3.30965
-3.35747
-3.40311
-3.44654
-3.48776
-3.52673
-3.56346
-3.59791
-3.63007
-3.65993
-3.68747
-3.71269
-3.73557
-3.7561
-3.77429
-3.79012
-3.80359
-3.81471
-3.82348
-0.444925
-0.486578
-0.531497
-0.579943
-0.632379
-0.689291
-0.751218
-0.818785
-0.89273
-0.973909
-1.06332
-1.16214
-1.27173
-1.39368
-1.52985
-1.6824
-1.85384
-2.04703
-2.26528
-2.51232
-2.79234
-3.10998
-3.47021
-3.87822
-4.33943
-4.85935
-5.43899
-6.072
-6.81255
-7.76314
-0.513862
-0.557846
-0.604403
-0.654694
-0.709165
-0.768221
-0.832401
-0.902349
-0.978812
-1.06266
-1.1549
-1.25672
-1.3695
-1.49484
-1.63463
-1.79104
-1.96658
-2.16416
-2.38708
-2.63908
-2.92437
-3.24756
-3.6136
-4.02762
-4.49494
-5.02093
-5.60636
-6.2444
-6.98806
-7.93776
-0.583629
-0.629984
-0.678207
-0.730377
-0.78692
-0.848159
-0.914633
-0.987004
-1.06603
-1.15259
-1.24771
-1.35259
-1.46861
-1.59741
-1.74088
-1.90121
-2.08093
-2.28296
-2.51062
-2.76767
-3.0583
-3.38711
-3.75901
-4.17908
-4.6525
-5.18446
-5.77544
-6.41809
-7.16413
-8.11219
-0.654168
-0.702934
-0.752847
-0.806926
-0.865576
-0.929034
-0.997839
-1.07267
-1.1543
-1.24362
-1.34166
-1.44964
-1.56896
-1.70126
-1.84846
-2.01276
-2.19672
-2.40326
-2.63572
-2.89786
-3.19388
-3.52835
-3.90616
-4.33228
-4.8118
-5.3497
-5.94615
-6.59344
-7.34254
-8.29096
-0.725432
-0.776643
-0.828269
-0.884289
-0.945081
-1.01079
-1.08196
-1.1593
-1.24357
-1.33569
-1.43669
-1.54782
-1.67048
-1.80633
-1.95731
-2.12564
-2.31388
-2.52498
-2.76229
-3.02958
-3.33103
-3.67121
-4.05495
-4.48716
-4.97279
-5.51662
-6.11858
-6.77061
-7.52318
-8.47308
-0.797372
-0.851057
-0.904417
-0.962409
-1.02538
-1.09337
-1.16695
-1.24682
-1.33377
-1.42872
-1.53274
-1.64705
-1.77309
-1.91255
-2.06735
-2.23975
-2.43233
-2.64805
-2.89027
-3.16275
-3.46968
-3.81561
-4.20532
-4.64364
-5.13539
-5.68519
-6.2927
-6.94952
-7.70573
-8.65763
-0.869938
-0.926121
-0.981233
-1.04123
-1.1064
-1.17672
-1.25273
-1.33516
-1.42484
-1.52266
-1.62972
-1.74726
-1.87673
-2.01983
-2.17851
-2.35503
-2.55199
-2.77237
-3.01954
-3.29726
-3.60972
-3.96143
-4.35715
-4.80161
-5.29952
-5.85531
-6.46839
-7.13006
-7.89003
-8.84422
-0.943081
-1.00178
-1.05866
-1.12068
-1.18809
-1.26076
-1.33924
-1.42428
-1.5167
-1.61743
-1.72757
-1.84837
-1.98131
-2.12809
-2.29068
-2.47137
-2.67276
-2.89785
-3.15
-3.43301
-3.75104
-4.10858
-4.51033
-4.96095
-5.46505
-6.02685
-6.64553
-7.31209
-8.07591
-9.03258
-1.01675
-1.07798
-1.13665
-1.20072
-1.2704
-1.34544
-1.42641
-1.51408
-1.60928
-1.71296
-1.82621
-1.95031
-2.08675
-2.23725
-2.4038
-2.58868
-2.79454
-3.02438
-3.28157
-3.5699
-3.89353
-4.25692
-4.66474
-5.12156
-5.63185
-6.19968
-6.82399
-7.49548
-8.2632
-9.22244
-1.09091
-1.15467
-1.21513
-1.28129
-1.35326
-1.43071
-1.5142
-1.60452
-1.70253
-1.80917
-1.92557
-2.053
-2.19297
-2.34722
-2.51776
-2.70688
-2.91725
-3.15186
-3.41412
-3.70781
-4.03707
-4.40636
-4.82026
-5.28329
-5.79978
-6.37365
-7.0036
-7.68003
-8.45168
-9.41355
-1.16549
-1.2318
-1.29406
-1.36233
-1.43661
-1.51648
-1.60252
-1.69553
-1.79637
-1.906
-2.02556
-2.15636
-2.29989
-2.45792
-2.63247
-2.82587
-3.04077
-3.2802
-3.54756
-3.84663
-4.18155
-4.55675
-4.97675
-5.446
-5.96872
-6.54863
-7.18421
-7.86558
-8.64116
-9.60569
-1.24048
-1.30931
-1.37339
-1.44378
-1.5204
-1.60272
-1.69132
-1.78703
-1.89073
-2.00338
-2.12613
-2.2603
-2.40742
-2.56926
-2.74785
-2.94554
-3.165
-3.40927
-3.68176
-3.98624
-4.32685
-4.70797
-5.13409
-5.60957
-6.1385
-6.72444
-7.36565
-8.05193
-8.83143
-9.79863
-1.31582
-1.38717
-1.45306
-1.5256
-1.60458
-1.68936
-1.78054
-1.87897
-1.98553
-2.10122
-2.22718
-2.36475
-2.51547
-2.68114
-2.8638
-3.0658
-3.28985
-3.53898
-3.81662
-4.12653
-4.47284
-4.85989
-5.29214
-5.77384
-6.30898
-6.90093
-7.54773
-8.2389
-9.02229
-9.99215
-1.39149
-1.46534
-1.53304
-1.60774
-1.68909
-1.77635
-1.87012
-1.97128
-2.08072
-2.19945
-2.32863
-2.46961
-2.62396
-2.79347
-2.98021
-3.18655
-3.4152
-3.66921
-3.952
-4.26736
-4.61937
-5.01237
-5.45074
-5.93866
-6.47998
-7.07792
-7.73028
-8.4263
-9.21355
-10.1861
-1.46745
-1.54378
-1.61328
-1.69015
-1.77388
-1.86362
-1.95999
-2.06388
-2.17621
-2.29799
-2.4304
-2.57481
-2.73279
-2.90615
-3.09698
-3.30767
-3.54093
-3.79984
-4.0878
-4.40861
-4.76633
-5.16527
-5.60975
-6.10387
-6.65135
-7.25524
-7.91312
-8.61394
-9.405
-10.3802
-1.5437
-1.62246
-1.69374
-1.77279
-1.8589
-1.95113
-2.05009
-2.15672
-2.27194
-2.39677
-2.53241
-2.68025
-2.84186
-3.01908
-3.21401
-3.42905
-3.66694
-3.93074
-4.22388
-4.55014
-4.91357
-5.31844
-5.76902
-6.26931
-6.82292
-7.43272
-8.09606
-8.80162
-9.59645
-10.5742
-1.62022
-1.70136
-1.7744
-1.85562
-1.94411
-2.03881
-2.14036
-2.24972
-2.36782
-2.4957
-2.63457
-2.78582
-2.95107
-3.13215
-3.33118
-3.55058
-3.79309
-4.06179
-4.36011
-4.69181
-5.06095
-5.47173
-5.92839
-6.43482
-6.99451
-7.61016
-8.27891
-8.98914
-9.78768
-10.768
-1.69701
-1.78046
-1.85522
-1.9386
-2.02946
-2.12661
-2.23073
-2.3428
-2.46377
-2.59469
-2.73677
-2.89144
-3.06032
-3.24525
-3.44838
-3.67214
-3.91926
-4.19285
-4.49634
-4.83349
-5.20831
-5.62499
-6.08769
-6.60023
-7.16595
-7.7874
-8.46147
-9.17631
-9.9785
-10.9614
-1.77408
-1.85976
-1.93618
-2.02169
-2.11488
-2.21446
-2.32113
-2.43589
-2.5597
-2.69363
-2.83892
-2.99699
-3.16948
-3.35827
-3.56549
-3.79359
-4.04532
-4.3238
-4.63245
-4.97502
-5.3555
-5.77806
-6.24676
-6.76536
-7.33706
-7.96423
-8.64357
-9.36294
-10.1687
-11.1542
-1.85146
-1.93924
-2.01725
-2.10485
-2.20033
-2.30229
-2.41146
-2.52887
-2.6555
-2.79243
-2.9409
-3.10236
-3.27845
-3.47107
-3.68236
-3.9148
-4.17114
-4.45449
-4.76828
-5.11625