/*--------------------------------*- C++ -*----------------------------------*\
  =========                 |
  \\      /  F ield         | OpenFOAM: The Open Source CFD Toolbox
   \\    /   O peration     | Website:  https://openfoam.org
    \\  /    A nd           | Version:  6.0
     \\/     M anipulation  |
\*---------------------------------------------------------------------------*/
FoamFile
{
    version     2.0;
    format      ascii;
    class       surfaceScalarField;
    location    "16.75";
    object      phi;
}
// * * * * * * * * * * * * * * * * * * * * * * * * * * * * * * * * * * * * * //

dimensions      [0 3 -1 0 0 0 0];

internalField   nonuniform List<scalar> 
18940
(
-2.62591e-05
-0.0116984
0.0117247
-8.40219e-05
-0.0103119
0.0103697
-0.000162132
-0.00910099
0.0091791
-0.000251861
-0.00804742
0.00813715
-0.000346389
-0.00713289
0.00722741
-0.000440614
-0.00633998
0.0064342
-0.000530839
-0.00565272
0.00574294
-0.000614502
-0.00505671
0.00514037
-0.000689954
-0.00453918
0.00461464
-0.000756296
-0.00408889
0.00415523
-0.000813242
-0.00369603
0.00375298
-0.000861006
-0.0033521
0.00339986
-0.000900214
-0.00304978
0.00308899
-0.000931821
-0.00278281
0.00281441
-0.000957036
-0.00254587
0.00257108
-0.000977258
-0.00233448
0.0023547
-0.000993997
-0.00214494
0.00216168
-0.00100881
-0.00197419
0.001989
-0.00102328
-0.00181965
0.00183412
-0.00167908
0.0016948
-0.001039
-2.44869e-05
-0.0116739
-8.03191e-05
-0.0102561
-0.000154931
-0.00902638
-0.000239059
-0.00796329
-0.000325738
-0.00704621
-0.000409815
-0.0062559
-0.000487587
-0.00557495
-0.000556506
-0.00498779
-0.000614961
-0.00448073
-0.000662101
-0.00404175
-0.000697699
-0.00366043
-0.000722049
-0.00332775
-0.000735869
-0.00303596
-0.000740229
-0.00277845
-0.000736478
-0.00254962
-0.000726179
-0.00234478
-0.000711036
-0.00216008
-0.00069282
-0.00199241
-0.000673345
-0.00183913
-0.00169796
-0.000654462
-2.33169e-05
-0.0116506
-7.59939e-05
-0.0102034
-0.000145232
-0.00895714
-0.00022147
-0.00788706
-0.000297595
-0.00697008
-0.000368398
-0.0061851
-0.000430162
-0.00551318
-0.000480352
-0.0049376
-0.00051738
-0.0044437
-0.00054043
-0.0040187
-0.000549319
-0.00365154
-0.000544399
-0.00333267
-0.000526468
-0.00305389
-0.000496702
-0.00280821
-0.00045659
-0.00258973
-0.000407873
-0.0023935
-0.000352475
-0.00221548
-0.000292427
-0.00205245
-0.000229841
-0.00190171
-0.00176091
-0.000166893
-2.20461e-05
-0.0116286
-7.0672e-05
-0.0101548
-0.000132942
-0.00889487
-0.000199164
-0.00782084
-0.000262151
-0.0069071
-0.000316668
-0.00613058
-0.000359003
-0.00547085
-0.000386635
-0.00490997
-0.000397998
-0.00443234
-0.000392293
-0.00402441
-0.000369365
-0.00367447
-0.000329601
-0.00337243
-0.000273856
-0.00310963
-0.000203396
-0.00287867
-0.00011984
-0.00267329
-2.5111e-05
-0.00248823
7.86269e-05
-0.00231922
0.000189039
-0.00216287
0.000303655
-0.00201633
-0.00187714
0.000419886
-2.0506e-05
-0.0116081
-6.41916e-05
-0.0101111
-0.000117999
-0.00884106
-0.000172183
-0.00776665
-0.000219552
-0.00685973
-0.000254893
-0.00609524
-0.000274522
-0.00545122
-0.00027595
-0.00490854
-0.000257626
-0.00445066
-0.000218766
-0.00406327
-0.000159217
-0.00373402
-7.93767e-05
-0.00345227
1.9872e-05
-0.00320888
0.000137204
-0.00299601
0.000270891
-0.00280697
0.000418835
-0.00263617
0.000578625
-0.00247901
0.000747591
-0.00233183
0.000922842
-0.00219158
-0.00205558
0.00110128
-1.86517e-05
-0.0115894
-5.64909e-05
-0.0100732
-0.000100369
-0.00879718
-0.000140553
-0.00772647
-0.000169905
-0.00683037
-0.000183283
-0.00608186
-0.000177071
-0.00545743
-0.00014883
-0.00493678
-9.70355e-05
-0.00450246
-2.09058e-05
-0.0041394
7.97244e-05
-0.00383465
0.000204478
-0.00357703
0.000352483
-0.00335689
0.000522394
-0.00316592
0.000712411
-0.00299699
0.000920291
-0.00284405
0.00114338
-0.0027021
0.00137866
-0.00256711
0.00162276
-0.00243568
-0.00230481
0.00187198
-1.6467e-05
-0.0115729
-4.75359e-05
-0.0100422
-8.0022e-05
-0.0087647
-0.000104267
-0.00770222
-0.000113251
-0.00682139
-0.000101962
-0.00609315
-6.68956e-05
-0.00549249
-5.69165e-06
-0.00499799
8.31289e-05
-0.00459128
0.000200345
-0.00425661
0.00034615
-0.00398045
0.000520218
-0.00375109
0.000721731
-0.0035584
0.000949377
-0.00339356
0.00120134
-0.00324895
0.00147529
-0.003118
0.00176835
-0.00299516
0.00207715
-0.00287591
0.00239782
-0.00275635
-0.00263296
0.00272598
-1.39405e-05
-0.011559
-3.72913e-05
-0.0100188
-5.69026e-05
-0.00874509
-6.32644e-05
-0.00769586
-4.95501e-05
-0.0068351
-1.09381e-05
-0.00613176
5.59082e-05
-0.00555934
0.000153225
-0.0050953
0.000282417
-0.00472047
0.000444249
-0.00441845
0.000638948
-0.00417515
0.000866265
-0.00397841
0.00112548
-0.00381762
0.00141539
-0.00368347
0.00173424
-0.0035678
0.00207966
-0.00346342
0.00244865
-0.00336415
0.00283753
-0.00326479
0.00324189
-0.00316071
-0.00304765
0.00365658
-1.1058e-05
-0.0115479
-2.57086e-05
-0.0100042
-3.0923e-05
-0.00873987
-1.7426e-05
-0.00770936
2.13359e-05
-0.00687387
8.99169e-05
-0.00620034
0.000191419
-0.00566084
0.000327896
-0.00523178
0.000500636
-0.00489321
0.000710354
-0.00462816
0.000957304
-0.0044221
0.00124133
-0.00426244
0.00156186
-0.00413815
0.00191785
-0.00403946
0.00230771
-0.00395765
0.00272916
-0.00388487
0.00317918
-0.00381416
0.00365382
-0.00373944
0.0041482
-0.00365509
-0.00355581
0.00465636
-7.79899e-06
-0.0115401
-1.27205e-05
-0.00999925
-1.95831e-06
-0.00875063
3.34315e-05
-0.00774475
9.96387e-05
-0.00694007
0.000200865
-0.00630157
0.000339899
-0.00579988
0.000518536
-0.00541042
0.000737882
-0.00511255
0.00099855
-0.00488883
0.00130079
-0.00472434
0.00164452
-0.00460617
0.00202935
-0.00452298
0.00245448
-0.00446459
0.00291858
-0.00442175
0.00341961
-0.00438591
0.00395466
-0.00434921
0.0045197
-0.00430448
0.00510945
-0.00424483
-0.00416348
0.00571712
-4.13684e-06
-0.011536
1.75563e-06
-0.0100051
3.01459e-05
-0.00877902
8.95397e-05
-0.00780414
0.000185666
-0.0070362
0.000322281
-0.00643819
0.000501769
-0.00597936
0.000725579
-0.00563423
0.000994543
-0.00538152
0.00130909
-0.00520338
0.00166939
-0.00508464
0.00207542
-0.0050122
0.00252695
-0.00497451
0.00302347
-0.00496111
0.00356403
-0.00496231
0.00414699
-0.00496888
0.00476979
-0.004972
0.00542853
-0.00496323
0.0061177
-0.004934
-0.00487557
0.00682979
-4.24122e-08
-0.011536
1.78097e-05
-0.010023
6.5556e-05
-0.00882677
0.000151151
-0.00788974
0.000279759
-0.00716481
0.000454599
-0.00661302
0.000677551
-0.00620232
0.000949617
-0.0059063
0.00127125
-0.00570315
0.00164257
-0.0055747
0.00206357
-0.00550564
0.00253417
-0.0054828
0.00305426
-0.0054946
0.00362363
-0.00553047
0.00424178
-0.00558046
0.0049077
-0.0056348
0.00561941
-0.00568371
0.0063735
-0.00571731
0.00716453
-0.00572503
-0.00569549
0.00798444
4.51314e-06
-0.0115405
3.55269e-05
-0.010054
0.000104426
-0.00889567
0.000218494
-0.0080038
0.000382234
-0.00732855
0.000598229
-0.00682902
0.000867766
-0.00647185
0.00119129
-0.00622982
0.00156874
-0.0060806
0.00199982
-0.00600578
0.00248414
-0.00598997
0.00302144
-0.0060201
0.00361158
-0.00608473
0.00425456
-0.00617345
0.00495039
-0.0062763
0.00569882
-0.00638322
0.0064988
-0.00648369
0.00734784
-0.00656635
0.0082411
-0.00661829
-0.00662473
0.00917034
9.55333e-06
-0.01155
5.49735e-05
-0.0100994
0.000146867
-0.00898756
0.000291724
-0.00814866
0.000493292
-0.00753012
0.000753441
-0.00708917
0.00107278
-0.00679119
0.0014511
-0.00660814
0.0018877
-0.00651721
0.00238169
-0.00649976
0.00293215
-0.00654043
0.00353835
-0.0066263
0.0041999
-0.00674629
0.00491682
-0.00689038
0.00568952
-0.007049
0.00651856
-0.00721226
0.00740416
-0.00736929
0.00834535
-0.00750755
0.00933863
-0.00761157
-0.00766234
0.0103762
1.50941e-05
-0.0115651
7.61848e-05
-0.0101605
0.000192916
-0.00910429
0.000370861
-0.00832661
0.000612931
-0.00777219
0.000920224
-0.00739646
0.00129261
-0.00716358
0.00172915
-0.00704468
0.00222842
-0.00701648
0.00278876
-0.0070601
0.0034085
-0.00716017
0.00408619
-0.00730399
0.00482083
-0.00748092
0.00561206
-0.00768161
0.00646035
-0.00789729
0.00736695
-0.00811885
0.00833353
-0.00833587
0.00936132
-0.00853534
0.0104493
-0.00869952
-0.0088043
0.0115912
2.1146e-05
-0.0115863
9.91596e-05
-0.0102385
0.000242508
-0.00924764
0.000455729
-0.00853983
0.00074084
-0.0080573
0.00109813
-0.00775375
0.0015267
-0.00759215
0.00202486
-0.00754284
0.0025904
-0.00758202
0.00322081
-0.00769051
0.00391348
-0.00785284
0.00466596
-0.00805647
0.00547621
-0.00829117
0.00634295
-0.00854835
0.00726605
-0.00882039
0.00824687
-0.00909967
0.00928833
-0.00937733
0.0103944
-0.00964141
0.0115681
-0.00987318
-0.0100427
0.0128065
2.77273e-05
-0.011614
0.000123868
-0.0103347
0.000295463
-0.00941924
0.000545916
-0.00879028
0.000876309
-0.00838769
0.00128612
-0.00816356
0.00177369
-0.00807972
0.0023366
-0.00810576
0.00297187
-0.00821729
0.00367615
-0.00839478
0.00444585
-0.00862254
0.00527734
-0.00888797
0.00616721
-0.00918104
0.00711261
-0.00949375
0.00811187
-0.00981965
0.00916524
-0.010153
0.0102758
-0.0104879
0.0114499
-0.0108155
0.0126962
-0.0111195
-0.0113647
0.0140182
3.49012e-05
-0.0116489
0.000150281
-0.0104501
0.000351487
-0.00962044
0.000640737
-0.00907953
0.00101817
-0.00876512
0.00148245
-0.00862784
0.00203121
-0.00862848
0.00266135
-0.0087359
0.00336924
-0.00892518
0.00415082
-0.00917636
0.00500169
-0.00947341
0.00591717
-0.00980345
0.0068924
-0.0101563
0.00792262
-0.010524
0.00900365
-0.0109007
0.0101329
-0.0112823
0.0113109
-0.0116659
0.012544
-0.0120486
0.0138464
-0.0124219
-0.0127559
0.0152376
4.29413e-05
-0.0116918
0.000178485
-0.0105856
0.000410198
-0.00985216
0.000739237
-0.00940857
0.00116478
-0.00919067
0.00168467
-0.00914772
0.00229581
-0.00923962
0.00299452
-0.00943461
0.00377667
-0.00970733
0.00463779
-0.0100375
0.00557306
-0.0104087
0.0065773
-0.0108077
0.00764486
-0.0112238
0.00876954
-0.0116486
0.00994464
-0.0120758
0.0111634
-0.0125011
0.0124206
-0.012923
0.0137156
-0.0133436
0.0150634
-0.0137698
-0.0142173
0.0165247
5.2993e-05
-0.0117448
0.000208798
-0.0107414
0.000471088
-0.0101144
0.000840159
-0.00977764
0.00131406
-0.00966457
0.00188963
-0.00972329
0.00256303
-0.00991302
0.00332998
-0.0102016
0.00418601
-0.0105634
0.00512649
-0.010978
0.0061468
-0.011429
0.00724226
-0.0119031
0.00840809
-0.0123897
0.00963924
-0.0128798
0.0109301
-0.0133666
0.012274
-0.013845
0.013663
-0.014312
0.0150855
-0.0147662
0.0165304
-0.0152147
-0.0156986
0.0180117
0.0139369
0.000151782
-0.0140887
0.0137859
0.000150989
0.0136354
0.000150457
0.013486
0.000149422
0.0133383
0.000147668
0.0131932
0.000145147
0.0130513
0.000141874
0.0129134
0.000137896
0.0127802
0.000133271
0.0126521
0.000128068
0.0125297
0.000122354
0.0124135
0.000116196
0.0123039
0.000109657
0.0122011
0.000102792
0.0121054
9.56502e-05
0.0120172
8.82687e-05
0.0119365
8.0664e-05
0.0118637
7.27983e-05
0.0117993
6.44309e-05
5.4446e-05
0.0167302
0.000527545
-0.017106
0.016348
0.000533223
0.0159621
0.00053635
0.0155749
0.000536599
0.0151887
0.000533836
0.0148058
0.000528074
0.0144283
0.000519413
0.0140582
0.000508008
0.0136974
0.000494054
0.0133477
0.000477765
0.0130107
0.000459365
0.0126878
0.000439077
0.0123803
0.000417113
0.0120895
0.00039367
0.0118162
0.000368924
0.0115614
0.000343027
0.011326
0.000316098
0.0111106
0.000288199
0.0109158
0.000259239
0.000228821
0.0193973
0.00107097
-0.0199407
0.0188392
0.00109131
0.0182706
0.00110495
0.0176953
0.00111185
0.0171171
0.00111205
0.0165395
0.00110567
0.015966
0.00109293
0.0153999
0.00107416
0.0148442
0.0010497
0.014302
0.00101997
0.013776
0.000985405
0.0132686
0.00094644
0.0127822
0.000903501
0.0123189
0.000856989
0.0118805
0.000807273
0.0114689
0.000754695
0.0110854
0.000699577
0.0107314
0.000642226
0.0104077
0.000582937
0.000522052
0.0218956
0.00173469
-0.0225593
0.0212081
0.00177883
0.0205017
0.00181136
0.0197812
0.0018323
0.0190515
0.00184174
0.0183173
0.00183988
0.0175832
0.00182708
0.0168536
0.00180376
0.0161328
0.00177049
0.0154249
0.00172786
0.0147337
0.00167656
0.0140629
0.00161726
0.0134158
0.00155063
0.0127955
0.00147732
0.0122048
0.00139793
0.0116464
0.00131305
0.0111228
0.00122326
0.0106358
0.0011292
0.0101871
0.00103163
0.000931509
0.0241963
0.00247851
-0.0249401
0.0234188
0.00255626
0.0226132
0.002617
0.0217849
0.00266063
0.0209394
0.00268717
0.0200825
0.00269682
0.0192196
0.00268997
0.0183562
0.00266715
0.0174977
0.00262905
0.016649
0.00257648
0.0158153
0.00251031
0.0150011
0.00243147
0.0142108
0.0023409
0.0134487
0.00223947
0.0127185
0.00212806
0.0120241
0.00200749
0.0113687
0.00187864
0.0107554
0.0017425
0.0101867
0.0016003
0.00145367
0.026282
0.00326879
-0.0270722
0.0254482
0.00339007
0.0245764
0.00348874
0.0236726
0.0035644
0.0227429
0.00361688
0.0217935
0.00364626
0.0208306
0.00365286
0.0198605
0.00363723
0.0188895
0.00360013
0.0179234
0.00354248
0.0169684
0.00346537
0.0160299
0.00336992
0.0151136
0.00325728
0.0142244
0.00312859
0.0133676
0.00298492
0.0125477
0.00282733
0.0117695
0.00265693
0.0110369
0.00247504
0.0103539
0.00228336
0.00208424
0.0281453
0.00407783
-0.0289543
0.0272832
0.00425223
0.0263735
0.00439843
0.0254222
0.00451564
0.0244357
0.00460336
0.0234206
0.0046614
0.0223836
0.00468991
0.0213315
0.00468933
0.0202712
0.0046604
0.0192096
0.00460412
0.0181533
0.00452164
0.0171089
0.00441428
0.0160828
0.00428335
0.0150813
0.00413016
0.0141102
0.00395594
0.0131757
0.00376189
0.0122834
0.00354925
0.0114388
0.00331956
0.0106473
0.00307494
0.00281849
0.0297867
0.00488331
-0.0305922
0.0289193
0.00511968
0.0279951
0.00532254
0.0270202
0.00549056
0.0260008
0.0056228
0.0249435
0.00571868
0.0238554
0.00577804
0.0227436
0.00580111
0.0216155
0.0057885
0.0204785
0.00574113
0.0193399
0.00566021
0.0182071
0.00554712
0.0170872
0.00540327
0.0159872
0.00523007
0.0149144
0.00502881
0.0138756
0.00480066
0.012878
0.00454683
0.0119287
0.00426885
0.0110346
0.00396912
0.00365147
0.0312127
0.00566782
-0.0319972
0.0303583
0.00597399
0.0294391
0.00624178
0.0284604
0.00646926
0.0274283
0.00665492
0.0263493
0.00679767
0.0252304
0.00689692
0.024079
0.00695256
0.0229025
0.00696494
0.0217088
0.00693482
0.0205057
0.00686334
0.019301
0.00675186
0.0181024
0.00660181
0.0169179
0.00641461
0.0157552
0.00619145
0.0146226
0.00593333
0.0135283
0.00564109
0.0124812
0.00531593
0.0114902
0.00496017
0.0045783
0.0324341
0.00641826
-0.0331845
0.0316072
0.00680084
0.0307082
0.00714078
0.029742
0.00743549
0.0287141
0.00768277
0.0276308
0.00788094
0.0264989
0.00802886
0.0253255
0.00812595
0.0241183
0.00817217
0.0228851
0.00816805
0.0216339
0.00811452
0.0203729
0.00801283
0.0191103
0.00786439
0.0178545
0.00767048
0.0166138
0.00743211
0.0153973
0.0071498
0.0142147
0.00682371
0.0130765
0.00645415
0.0119939
0.00604274
0.00559427
0.0334648
0.00712532
-0.0341719
0.0326761
0.00758961
0.0318091
0.00800774
0.0308682
0.00837635
0.0298585
0.00869254
0.0287855
0.00895393
0.0276556
0.00915873
0.0264758
0.00930578
0.0252534
0.00939457
0.0239962
0.00942524
0.0227123
0.00939846
0.0214098
0.00931531
0.0200971
0.00917704
0.0187828
0.0089848
0.0174757
0.00873924
0.0161853
0.00844021
0.0149223
0.00808669
0.0136991
0.00767732
0.0125298
0.00721204
0.00669512
0.0343207
0.00778294
-0.0349784
0.0335774
0.00833292
0.0327512
0.00883397
0.0318456
0.00928198
0.0308648
0.00967328
0.029814
0.0100047
0.0286989
0.0102738
0.0275259
0.0104787
0.0263021
0.0106184
0.0250349
0.0106924
0.0237322
0.0107012
0.022402
0.0106455
0.0210526
0.0105265
0.0196924
0.010345
0.0183301
0.0101015
0.0169755
0.00979482
0.0156399
0.00942227
0.0143374
0.00897982
0.0130853
0.00846414
0.00787728
0.0350184
0.00838778
-0.0356232
0.0343252
0.00902613
0.0335456
0.00961356
0.0326824
0.0101452
0.031739
0.0106167
0.0307197
0.011024
0.0296297
0.0113638
0.0284748
0.0116337
0.0272615
0.0118317
0.0259967
0.0119572
0.0246879
0.0120099
0.0233429
0.0119905
0.0219694
0.0119
0.0205754
0.011739
0.0191693
0.0115076
0.0177602
0.0112039
0.0163596
0.0108229
0.0149828
0.0103567
0.0136507
0.00979624
0.0091383
0.0355745
0.00893865
-0.0361254
0.0349338
0.00966686
0.0342044
0.0103429
0.0333883
0.0109613
0.0324883
0.0115167
0.0315078
0.0120045
0.0304511
0.0124205
0.0293235
0.0127613
0.0281307
0.0130245
0.0268792
0.0132087
0.0255758
0.0133133
0.0242278
0.0133386
0.0228423
0.0132855
0.0214265
0.0131548
0.0199879
0.0129463
0.0185344
0.0126574
0.0170765
0.0122808
0.0156298
0.0118033
0.0142189
0.0112071
0.0104774
0.0360051
0.00943613
-0.0365026
0.0354174
0.0102546
0.0347399
0.0110204
0.0339738
0.0117274
0.0331211
0.0123695
0.0321845
0.0129411
0.0311675
0.0134374
0.0300745
0.0138543
0.0289107
0.0141884
0.0276817
0.0144376
0.026394
0.0146011
0.0250538
0.0146787
0.0236677
0.0146715
0.022242
0.0145805
0.0207824
0.0144059
0.0192952
0.0141446
0.0177884
0.0137876
0.0162762
0.0133156
0.0147859
0.0126974
0.0118968
0.0363256
0.00988206
-0.0367715
0.03579
0.0107903
0.0351644
0.011646
0.0344495
0.0124423
0.0336463
0.0131726
0.032757
0.0138305
0.0317841
0.0144103
0.0307315
0.0149069
0.0296034
0.0153164
0.028405
0.0156361
0.0271417
0.0158643
0.0258194
0.0160011
0.0244436
0.0160473
0.0230195
0.0160047
0.0215512
0.0158742
0.020042
0.0156537
0.0184962
0.0153334
0.0169234
0.0148883
0.0153511
0.0142697
0.0134029
0.0365499
0.0102792
-0.0369471
0.0360643
0.0112759
0.0354896
0.0122207
0.0348256
0.0131063
0.0340728
0.0139253
0.0332326
0.0146707
0.032307
0.0153359
0.0312989
0.015915
0.0302119
0.0164034
0.0290505
0.0167975
0.0278194
0.0170954
0.0265238
0.0172966
0.0251685
0.0174026
0.0237576
0.0174156
0.0222932
0.0173385
0.0207757
0.0171712
0.0192034
0.0169057
0.0175776
0.0165141
0.0159191
0.0159282
0.01501
0.0366907
0.010631
-0.0370425
0.0362523
0.0117142
0.0357263
0.0127467
0.035112
0.0137206
0.0344093
0.014628
0.033619
0.015461
0.0327424
0.0162125
0.0317816
0.0168758
0.0307398
0.0174452
0.0296206
0.0179167
0.0284283
0.0182877
0.0271674
0.0185576
0.0258421
0.0187279
0.0244555
0.0188023
0.0230085
0.0187855
0.0214983
0.0186814
0.0199167
0.0184873
0.0182514
0.0181794
0.0165033
0.0176763
0.0167471
0.0367587
0.0109413
-0.0370689
0.0363643
0.0121086
0.0358843
0.0132267
0.0353177
0.0142872
0.034664
0.0152817
0.0339232
0.0162018
0.0330962
0.0170395
0.0321847
0.0177873
0.031191
0.0184389
0.0301183
0.0189894
0.0289703
0.0194357
0.027751
0.0197768
0.0264643
0.0200146
0.0251129
0.0201537
0.023697
0.0202013
0.0222123
0.0201661
0.0206456
0.020054
0.0189687
0.0198563
0.0171425
0.0195025
0.018675
0.0367628
-0.0370355
0.0112139
0.0364087
0.0124627
0.0359715
0.0136639
0.03545
0.0148088
0.0348432
0.0158885
0.0341509
0.0168941
0.0333735
0.0178169
0.032512
0.0186488
0.0315684
0.0193825
0.0305453
0.0200125
0.0294461
0.0205349
0.0282744
0.0209485
0.0270338
0.0212551
0.0257274
0.0214601
0.0243559
0.0215728
0.0229158
0.0216062
0.021395
0.0215748
0.0197621
0.0214892
0.0179436
0.0213211
0.02092
0.0154632
-3.99139e-05
-0.0154233
0.0154934
-3.01426e-05
0.0155115
-1.80908e-05
0.0155167
-5.23713e-06
0.0155088
7.87398e-06
0.0154879
2.09794e-05
0.0154539
3.39143e-05
0.0154074
4.6558e-05
0.0153486
5.88096e-05
0.015278
7.05783e-05
0.0151962
8.1778e-05
0.0151039
9.23278e-05
0.0150017
0.000102151
0.0148906
0.000111179
0.0147712
0.000119345
0.0146446
0.000126588
0.0145118
0.000132835
0.0143738
0.000137981
0.014232
0.000141769
0.000143381
0.0200673
-0.000187677
-0.0199196
0.0201825
-0.000145358
0.0202653
-0.000100841
0.0203151
-5.5097e-05
0.0203318
-8.81238e-06
0.0203153
3.75199e-05
0.0202657
8.34925e-05
0.0201835
0.000128747
0.0200694
0.00017295
0.0199242
0.000215787
0.019749
0.000256949
0.0195452
0.00029614
0.0193143
0.000333075
0.019058
0.000367486
0.0187782
0.000399118
0.018477
0.00042773
0.0181568
0.00045308
0.0178199
0.000474901
0.0174688
0.000492817
0.000506244
0.0236158
-0.000447451
-0.023356
0.0238283
-0.00035785
0.0239934
-0.00026593
0.0241107
-0.000172359
0.0241797
-7.78389e-05
0.0242002
1.69666e-05
0.0241723
0.000111412
0.0240962
0.000204861
0.0239725
0.000296687
0.023802
0.000386262
0.023586
0.000472965
0.0233259
0.000556181
0.0230237
0.000635309
0.0226814
0.000709772
0.0223015
0.00077902
0.0218867
0.000842527
0.02144
0.000899796
0.0209646
0.00095034
0.0204637
0.000993662
0.00102926
0.0262961
-0.000816672
-0.0259269
0.0266089
-0.000670623
0.0268643
-0.000521423
0.0270617
-0.00036974
0.0272002
-0.000216348
0.0272793
-6.20756e-05
0.0272985
9.21999e-05
0.0272578
0.000245559
0.0271574
0.000397049
0.026998
0.000545691
0.0267805
0.000690488
0.0265062
0.000830438
0.026177
0.000964547
0.0257949
0.00109184
0.0253625
0.00121138
0.0248828
0.00132228
0.0243589
0.00142367
0.0237945
0.00151477
0.0231933
0.00159485
0.00166323
0.0282668
-0.00128841
-0.027795
0.0286768
-0.00108064
0.0290236
-0.000868265
0.0293059
-0.00065207
0.0295225
-0.000432938
0.0296723
-0.000211861
0.0297545
1.00644e-05
0.0297684
0.000231641
0.0297138
0.000451589
0.029591
0.000668558
0.0294003
0.000881147
0.0291428
0.00108793
0.0288199
0.00128746
0.0284334
0.00147831
0.0279857
0.00165909
0.0274796
0.00182845
0.0269181
0.00198511
0.026305
0.00212787
0.0256443
0.00225563
0.00236741
0.0296648
-0.00185271
-0.0291005
0.030165
-0.00158084
0.0305992
-0.00130245
0.0309655
-0.00101843
0.0312624
-0.000729763
0.0314881
-0.000437573
0.0316413
-0.000143155
0.0317209
0.000152036
0.0317261
0.0004464
0.0316564
0.000738219
0.0315119
0.00102568
0.0312929
0.00130691
0.0310004
0.00157999
0.0306357
0.00184301
0.0302007
0.00209407
0.0296978
0.00233133
0.0291299
0.00255299
0.0285004
0.00275739
0.0278131
0.00294295
0.00310825
0.0306074
-0.00249799
-0.0299621
0.0311883
-0.00216178
0.0317027
-0.00181683
0.0321483
-0.00146404
0.032523
-0.00110443
0.0328246
-0.000739226
0.0330513
-0.000369876
0.0332014
1.92938e-06
0.0332736
0.00037429
0.0332666
0.000745127
0.0331801
0.00111222
0.0330137
0.00147326
0.0327679
0.00182585
0.0324433
0.00216757
0.0320414
0.00249603
0.0315639
0.00280882
0.0310132
0.00310364
0.0303924
0.00337826
0.0297047
0.00363058
0.00385864
0.0311935
-0.00321217
-0.0304793
0.0318446
-0.00281293
0.0324303
-0.00240253
0.0329481
-0.00198177
0.0333952
-0.00155161
0.0337693
-0.00111331
0.0340679
-0.000668428
0.0342887
-0.000218879
0.0344298
0.000233149
0.0344897
0.000685232
0.0344672
0.00113476
0.0343614
0.00157899
0.0341722
0.00201507
0.0338997
0.0024401
0.0335446
0.00285117
0.033108
0.00324535
0.0325919
0.00361978
0.0319985
0.00397166
0.0313308
0.00429832
0.00459719
0.0315056
-0.00398349
-0.0307343
0.0322163
-0.00352363
0.0328639
-0.00305009
0.0334455
-0.0025634
0.0339582
-0.00206433
0.034399
-0.00155411
0.034765
-0.00103442
0.0350535
-0.000507369
0.0352621
2.45554e-05
0.0353887
0.000558592
0.0354317
0.00109175
0.0353898
0.00162089
0.0352621
0.00214274
0.0350483
0.00265395
0.0347484
0.0031511
0.0343629
0.00363079
0.0338931
0.00408961
0.0333406
0.00452419
0.0327076
0.00493126
0.00530766
0.0316113
-0.0048011
-0.0307937
0.0323715
-0.00428382
0.0330717
-0.00375029
0.0337088
-0.0032005
0.0342795
-0.00263494
0.0347801
-0.00205477
0.0352075
-0.00146181
0.0355585
-0.000858408
0.0358305
-0.000247367
0.0360209
0.000368207
0.0361276
0.00098497
0.0361491
0.00159941
0.036084
0.00220786
0.0359314
0.00280659
0.0356907
0.00339176
0.035362
0.00395949
0.0349457
0.00450587
0.0344429
0.00502702
0.0338551
0.00551907
0.00597826
0.0315653
-0.00565541
-0.030711
0.0323661
-0.00508457
0.0331105
-0.00449474
0.0337951
-0.00388512
0.034416
-0.00325583
0.0349693
-0.00260801
0.0354512
-0.0019437
0.0358583
-0.00126559
0.0361878
-0.000576845
0.0364369
0.00011908
0.0366034
0.0008185
0.0366852
0.00151758
0.0366808
0.00221233
0.0365887
0.00289869
0.036408
0.00357245
0.0361381
0.00422934
0.035779
0.00486503
0.0353309
0.00547513
0.0347947
0.00605526
0.00660105
0.0314109
-0.00653831
-0.030528
0.0322447
-0.00591836
0.0330262
-0.00527629
0.0337513
-0.00461018
0.0344153
-0.00391983
0.0350139
-0.00320658
0.035543
-0.00247286
0.0359993
-0.00172185
0.0363795
-0.000957127
0.0366812
-0.000182527
0.0369017
0.000597966
0.037039
0.00138024
0.0370913
0.00216009
0.0370568
0.00293315
0.0369343
0.00369497
0.0367227
0.00444096
0.0364213
0.00516642
0.0360299
0.00586654
0.0355487
0.00653648
0.00717133
0.0311821
-0.00744333
-0.0302771
0.0320431
-0.00677943
0.0328561
-0.00608924
0.0336156
-0.00536963
0.0343161
-0.00462041
0.034953
-0.00384347
0.0355222
-0.003042
0.0360201
-0.00221981
0.036444
-0.00138096
0.0367911
-0.000529653
0.0370592
0.000329888
0.037246
0.00119336
0.0373497
0.00205639
0.0373684
0.00291445
0.0373005
0.0037629
0.0371445
0.00459693
0.0368994
0.00541155
0.0365643
0.00620163
0.0361389
0.0069619
0.007687
0.0309053
-0.00836586
-0.0299828
0.0317899
-0.00766397
0.0326301
-0.00692944
0.0334188
-0.00615841
0.03415
-0.00535154
0.0348184
-0.00451193
0.0354203
-0.0036439
0.0359526
-0.00275204
0.0364125
-0.00184095
0.036798
-0.000915072
0.0371067
2.11874e-05
0.0373366
0.000963442
0.0374857
0.00190724
0.0375522
0.00284799
0.0375341
0.00378096
0.0374299
0.00470118
0.037238
0.00560348
0.0369571
0.00648249
0.0365864
0.00733259
0.00814803
0.0306012
-0.00930346
-0.0296636
0.0315075
-0.00857026
0.0323721
-0.00779405
0.0331858
-0.00697208
0.0339417
-0.00610741
0.034635
-0.00520526
0.0352625
-0.00427139
0.0358217
-0.00331124
0.0363105
-0.00232978
0.0367271
-0.00133164
0.0370695
-0.00032122
0.0373358
0.000697097
0.0375242
0.00171889
0.0376326
0.0027396
0.0376591
0.00375446
0.0376018
0.00475846
0.037459
0.0057463
0.037229
0.00671244
0.0369106
0.00765104
0.00855598
0.0302863
-0.0102565
-0.0293332
0.0312147
-0.0094987
0.0321016
-0.00868097
0.0329357
-0.00780612
0.0337102
-0.00688196
0.0344216
-0.00591663
0.0350676
-0.00491739
0.0356467
-0.00389032
0.0361574
-0.00284052
0.0365984
-0.00177257
0.0369679
-0.000690744
0.0372643
0.000400711
0.0374857
0.0014975
0.0376301
0.00259515
0.0376956
0.00368894
0.0376802
0.00477389
0.0375818
0.00584466
0.0373987
0.00689558
0.0371291
0.00792065
0.00891353
0.0299743
-0.0112296
-0.0290012
0.0309272
-0.0104516
0.0318339
-0.00958777
0.0326828
-0.00865502
0.0334693
-0.00766839
0.0341916
-0.00663897
0.0348492
-0.00557502
0.0354416
-0.00448267
0.0359679
-0.00336681
0.036427
-0.0022317
0.0368176
-0.00108138
0.0371382
8.01636e-05
0.0373869
0.00124881
0.0375618
0.00242024
0.0376609
0.00358985
0.0376821
0.00475268
0.0376233
0.00590344
0.0374825
0.00703641
0.0372577
0.00814547
0.00922411
0.029679
-0.0122355
-0.0286731
0.030659
-0.0114315
0.0315807
-0.0105095
0.0324368
-0.00951108
0.0332272
-0.00845883
0.0339534
-0.00736512
0.0346162
-0.00623783
0.0352159
-0.00508241
0.0357522
-0.00390311
0.0362242
-0.00270372
0.0366308
-0.00148789
0.0369703
-0.00025934
0.037241
0.000978029
0.0374412
0.00222006
0.0375688
0.00346229
0.0376216
0.00469987
0.0375975
0.00592752
0.0374943
0.00713956
0.03731
0.00832981
0.00949164
0.0294216
-0.0132979
-0.0283592
0.0304237
-0.0124337
0.031349
-0.0114348
0.0322014
-0.0103635
0.0329873
-0.00924472
0.0337106
-0.0080884
0.0343731
-0.00690036
0.0349754
-0.00568474
0.0355173
-0.00444496
0.0359978
-0.00318425
0.0364158
-0.0019059
0.0367699
-0.000613364
0.0370582
0.000689678
0.037279
0.00199924
0.0374303
0.00331098
0.03751
0.00462016
0.037516
0.00592161
0.0374459
0.00720965
0.0372976
0.00847811
0.00972029
0.0292321
-0.0280978
-0.0144322
0.0302299
-0.0134315
0.0311371
-0.0123419
0.0319735
-0.0111999
0.0327473
-0.0100185
0.0334627
-0.0088038
0.0341211
-0.00755878
0.0347227
-0.00628632
0.0352669
-0.00498913
0.0357526
-0.00367001
0.0361787
-0.00233197
0.0365436
-0.000978259
0.0368457
0.000387614
0.0370831
0.00176181
0.0372539
0.00314013
0.0373562
0.00451794
0.0373876
0.00589014
0.0373461
0.00725114
0.0372295
0.00859477
0.0099143
0.0224133
0.00533123
-0.004016
-0.0237286
0.0210872
0.00549359
-0.00416748
0.01975
0.00566934
-0.00433214
0.0184017
0.00586109
-0.00451276
0.0170425
0.00607188
-0.00471266
0.015673
0.00630516
-0.00493573
0.0142947
0.00656492
-0.00518657
0.0129096
0.00685562
-0.00547054
0.0115211
0.00718211
-0.00579363
0.0101342
0.00754924
-0.00616229
0.00875574
0.00796149
-0.00658306
0.00739556
0.00842211
-0.00706193
0.00606681
0.00893213
-0.00760338
0.00478712
0.00948883
-0.00820914
0.0035796
0.0100838
-0.00887627
0.0024742
0.0107003
-0.00959486
0.00150916
0.01131
-0.0103449
0.000732676
0.0118689
-0.0110925
0.000204909
0.0123123
-0.0117845
0.0125471
-0.0123422
0.0223979
0.00664473
-0.0237114
0.0210734
0.00681805
0.0197378
0.007005
0.0183909
0.00720797
0.017033
0.00742977
0.0156648
0.0076734
0.0142875
0.00794221
0.0129033
0.00823981
0.0115155
0.00856985
0.0101292
0.00893562
0.00875118
0.00933947
0.00739133
0.00978196
0.00606286
0.0102606
0.00478346
0.0107682
0.00357638
0.0112909
0.00247166
0.011805
0.00150762
0.012274
0.000732438
0.0126441
0.000205732
0.012839
0.0127529
0.0223342
0.00795451
-0.023644
0.0210134
0.00813889
0.0196813
0.0083371
0.0183379
0.00855138
0.0169834
0.00878425
0.0156185
0.00903828
0.0142446
0.00931618
0.0128636
0.00962071
0.0114792
0.00995433
0.010096
0.0103187
0.00872132
0.0107142
0.00736479
0.0111385
0.00603976
0.0115856
0.00476397
0.012044
0.00356067
0.0124942
0.00245992
0.0129057
0.00149991
0.013234
0.000728491
0.0134155
0.000204635
0.0133629
0.0129575
0.0222226
0.00925867
-0.0235267
0.0209073
0.00945418
0.0195807
0.0096637
0.0182428
0.00988929
0.0168938
0.0101332
0.0155344
0.0103976
0.014166
0.0106846
0.0127907
0.010996
0.011412
0.0113331
0.0100348
0.011696
0.00866612
0.0120828
0.00731593
0.0124887
0.0059975
0.0129041
0.0047286
0.0133129
0.00353246
0.0136903
0.002439
0.0139992
0.00148614
0.0141869
0.000721222
0.0141805
0.000202356
0.0138817
0.0131599
0.0220634
0.0105554
-0.0233601
0.0207555
0.0107621
0.0194363
0.0109829
0.0181058
0.0112198
0.0167643
0.0114747
0.0154126
0.0117494
0.0140519
0.0120453
0.0126846
0.0123633
0.0113141
0.0127036
0.00994536
0.0130647
0.00858564
0.0134425
0.00724476
0.0138296
0.0059361
0.0142127
0.00467739
0.0145716
0.00349179
0.0148759
0.00240898
0.015082
0.00146647
0.0151294
0.000710849
0.0149361
0.000199104
0.0143935
0.013359
0.0218572
0.0118429
-0.0231447
0.0205585
0.0120608
0.0192485
0.0122929
0.0179273
0.012541
0.0165952
0.0128068
0.0152531
0.0130915
0.0139024
0.013396
0.0125453
0.0137204
0.0111855
0.0140635
0.00982793
0.0144222
0.00847991
0.0147906
0.00715134
0.0151581
0.0058556
0.0155085
0.00461041
0.0158168
0.00343873
0.0160476
0.00236996
0.0161508
0.00144099
0.0160584
0.000697486
0.0156796
0.000194954
0.014896
0.0135539
0.0216045
0.0131196
-0.0228812
0.0203166
0.0133487
0.0190175
0.013592
0.0177074
0.0138511
0.0163867
0.0141275
0.0150563
0.014422
0.0137176
0.0147347
0.0123731
0.0150649
0.0110263
0.0154102