/*--------------------------------*- C++ -*----------------------------------*\
| =========                 |                                                 |
| \\      /  F ield         | OpenFOAM: The Open Source CFD Toolbox           |
|  \\    /   O peration     | Version:  v1912                                 |
|   \\  /    A nd           | Website:  www.openfoam.com                      |
|    \\/     M anipulation  |                                                 |
\*---------------------------------------------------------------------------*/
FoamFile
{
    version     2.0;
    format      ascii;
    class       volVectorField;
    location    "22";
    object      U;
}
// * * * * * * * * * * * * * * * * * * * * * * * * * * * * * * * * * * * * * //

dimensions      [0 1 -1 0 0 0 0];


internalField   nonuniform List<vector> 
9600
(
(0.456908 -9.37423 -1.53161e-19)
(0.158873 -8.65457 0)
(0.23868 -8.18259 -8.97034e-20)
(0.314322 -7.85967 0)
(0.378491 -7.61848 0)
(0.443784 -7.41685 -3.14326e-20)
(0.506332 -7.23154 -5.22157e-22)
(0.563095 -7.05073 2.61937e-20)
(0.613339 -6.86928 0)
(0.657103 -6.68582 -4.43523e-20)
(0.694764 -6.50096 0)
(0.726926 -6.3162 -1.80521e-21)
(0.754297 -6.13328 -2.58887e-21)
(0.777604 -5.95383 -3.08806e-20)
(0.797541 -5.77916 2.59908e-20)
(0.814735 -5.61018 -2.55352e-20)
(0.829715 -5.44733 2.26998e-20)
(0.84301 -5.29046 0)
(0.85539 -5.1388 -1.802e-20)
(0.866549 -4.99087 1.97762e-20)
(0.825276 -9.36314 -3.06148e-19)
(0.502067 -8.68096 1.17949e-20)
(0.565059 -8.22455 1.84808e-19)
(0.629042 -7.91077 -1.57154e-19)
(0.683989 -7.67401 1.54985e-19)
(0.741023 -7.47288 0)
(0.795499 -7.28537 5.98973e-20)
(0.844044 -7.10074 -5.97177e-20)
(0.885854 -6.91462 -1.03446e-19)
(0.92102 -6.72621 1.30577e-19)
(0.950027 -6.53648 -8.47568e-20)
(0.973597 -6.34719 -3.45032e-20)
(0.992544 -6.16022 6.96961e-20)
(1.00768 -5.97726 0)
(1.01976 -5.79964 0)
(1.02945 -5.62827 9.73129e-20)
(1.03728 -5.46355 -1.64955e-19)
(1.0438 -5.30528 0)
(1.04986 -5.15258 0)
(1.05489 -5.00385 -7.6102e-20)
(1.19393 -9.3385 6.32439e-19)
(0.847401 -8.69447 0)
(0.894815 -8.25383 -3.73444e-19)
(0.947855 -7.9493 -3.38069e-19)
(0.993874 -7.71699 0)
(1.04263 -7.51633 5.38864e-19)
(1.08882 -7.32667 -5.08434e-19)
(1.12881 -7.13835 9.94893e-20)
(1.1618 -6.94777 -2.21503e-19)
(1.18797 -6.75468 -3.67676e-19)
(1.20794 -6.56044 5.01335e-19)
(1.22257 -6.36701 -3.09713e-19)
(1.2328 -6.1764 -1.38616e-19)
(1.23951 -5.99034 0)
(1.24354 -5.8102 5.43366e-21)
(1.24556 -5.63685 1.02616e-19)
(1.24613 -5.47066 4.42633e-20)
(1.24579 -5.31139 0)
(1.24548 -5.15802 8.01926e-20)
(1.24428 -5.0089 8.2221e-20)
(1.56176 -9.29992 -8.55229e-19)
(1.19428 -8.69481 -3.99986e-19)
(1.22739 -8.27021 3.88173e-19)
(1.2702 -7.97499 6.65404e-19)
(1.30757 -7.74707 -3.22817e-19)
(1.34802 -7.54687 5.58417e-21)
(1.38568 -7.35511 2.49978e-19)
(1.41678 -7.16324 2.2616e-19)
(1.44056 -6.96845 4.13662e-19)
(1.45735 -6.77102 0)
(1.46793 -6.57264 1.58832e-19)
(1.47331 -6.3755 -1.68738e-19)
(1.47455 -6.18169 1.02539e-20)
(1.47262 -5.993 2.6538e-19)
(1.46841 -5.81076 2.2707e-19)
(1.46264 -5.63585 -3.20442e-19)
(1.45584 -5.46861 1.05519e-19)
(1.44861 -5.30873 -1.71488e-19)
(1.44191 -5.15509 1.7067e-19)
(1.43441 -5.00601 -8.22603e-20)
(1.92847 -9.24736 4.31202e-19)
(1.54242 -8.68186 0)
(1.56239 -8.27347 3.80665e-19)
(1.59558 -7.98749 0)
(1.62454 -7.76391 0)
(1.6566 -7.56415 -2.96168e-19)
(1.68548 -7.37037 -5.29128e-19)
(1.70734 -7.17515 -4.47814e-19)
(1.72154 -6.97644 1.83704e-20)
(1.72858 -6.77502 -1.93168e-19)
(1.72943 -6.57294 0)
(1.72527 -6.37254 -1.59191e-19)
(1.71727 -6.176 -2.86537e-19)
(1.70651 -5.98512 2.51644e-19)
(1.69391 -5.80125 -7.1485e-19)
(1.68024 -5.62522 1.15694e-19)
(1.66603 -5.45733 9.14781e-20)
(1.65187 -5.29724 -1.88695e-19)
(1.63878 -5.14371 -8.23594e-20)
(1.62497 -4.99511 2.45591e-19)
(2.2935 -9.18073 4.1551e-19)
(1.89133 -8.65538 4.11197e-19)
(1.8993 -8.26331 0)
(1.92344 -7.98652 0)
(1.94417 -7.76719 -6.15477e-19)
(1.96776 -7.56787 3.3691e-19)
(1.98759 -7.37218 8.0852e-19)
(1.99987 -7.17383 0)
(2.00411 -6.97152 2.13144e-19)
(2.00104 -6.76653 1.93168e-19)
(1.99186 -6.56119 -3.40721e-19)
(1.97789 -6.35801 4.94044e-19)
(1.96044 -6.15924 1.44802e-19)
(1.94067 -5.96667 0)
(1.91958 -5.78162 1.20328e-19)
(1.89793 -5.6049 5.39507e-19)
(1.87625 -5.43679 -3.21482e-19)
(1.85517 -5.27689 3.60677e-19)
(1.83574 -5.12387 -6.85642e-19)
(1.81561 -4.97619 7.92917e-19)
(2.65634 -9.10002 4.22394e-19)
(2.24049 -8.6152 -2.23529e-18)
(2.23757 -8.23949 0)
(2.2532 -7.97179 0)
(2.26585 -7.75662 0)
(2.28084 -7.55776 -5.96339e-19)
(2.29136 -7.36031 0)
(2.29371 -7.15909 -9.53653e-19)
(2.28763 -6.95354 8.7908e-19)
(2.27413 -6.74541 -8.15762e-19)
(2.25461 -6.5373 0)
(2.2306 -6.33186 0)
(2.20351 -6.13136 0)
(2.17461 -5.9376 -2.74933e-19)
(2.14493 -5.75185 0)
(2.11524 -5.5749 0)
(2.08608 -5.40698 -4.02498e-19)
(2.0581 -5.24768 3.95467e-19)
(2.03239 -5.09555 0)
(2.00597 -4.94924 0)
(3.01643 -9.00522 -1.37429e-18)
(2.58937 -8.56115 8.89567e-19)
(2.57664 -8.20177 0)
(2.58425 -7.94303 0)
(2.58895 -7.73195 0)
(2.59521 -7.53358 5.67025e-19)
(2.59612 -7.33454 -5.68533e-19)
(2.58819 -7.13075 -8.57659e-21)
(2.57146 -6.92237 -8.79612e-19)
(2.54722 -6.71157 8.23313e-19)
(2.5171 -6.50121 -3.70911e-19)
(2.48283 -6.29403 6.44194e-19)
(2.44596 -6.09234 -4.58935e-20)
(2.40781 -5.8979 -5.82227e-19)
(2.36946 -5.71194 -4.89983e-19)
(2.33171 -5.5352 4.81394e-19)
(2.29507 -5.36791 0)
(2.26024 -5.2096 0)
(2.22831 -5.05875 3.4744e-19)
(2.19567 -4.91428 -3.82684e-19)
(3.37321 -8.89638 9.18468e-19)
(2.93739 -8.49311 8.72926e-19)
(2.91592 -8.14996 -1.65366e-18)
(2.91598 -7.90001 7.80667e-19)
(2.91281 -7.69294 0)
(2.91016 -7.49513 6.06723e-19)
(2.90117 -7.2947 -5.31725e-19)
(2.88264 -7.08869 1.50204e-18)
(2.85494 -6.8779 -2.34242e-20)
(2.81966 -6.66494 0)
(2.77872 -6.45287 7.48286e-19)
(2.73401 -6.24452 0)
(2.68722 -6.04218 0)
(2.63975 -5.84759 -2.65998e-19)
(2.59269 -5.66191 5.36736e-19)
(2.54686 -5.48583 0)
(2.50276 -5.31959 4.20126e-19)
(2.46113 -5.16267 1.74598e-19)
(2.42309 -5.01349 -3.79246e-19)
(2.38433 -4.87132 3.68203e-19)
(3.72614 -8.77357 -9.45281e-19)
(3.28397 -8.41099 8.8682e-19)
(3.2548 -8.08389 -2.52412e-18)
(3.24771 -7.84255 7.93319e-19)
(3.23673 -7.63942 0)
(3.22501 -7.44224 -1.22361e-18)
(3.20584 -7.24067 5.8771e-19)
(3.17638 -7.0328 0)
(3.13739 -6.82008 -4.65399e-19)
(3.09082 -6.60549 -8.06226e-19)
(3.03885 -6.39228 -7.01542e-19)
(2.98356 -6.18332 5.28623e-20)
(2.92675 -5.98091 6.55952e-19)
(2.86989 -5.78669 2.65785e-19)
(2.81411 -5.60178 -3.74056e-20)
(2.7602 -5.42684 -5.00309e-19)
(2.70868 -5.26206 -2.23547e-19)
(2.66032 -5.10692 -2.01424e-19)
(2.61628 -4.95979 5.36858e-19)
(2.57151 -4.8204 -8.00677e-19)
(4.07466 -8.63686 9.45284e-19)
(3.62853 -8.31471 -4.64002e-20)
(3.59263 -8.00342 8.10582e-19)
(3.5788 -7.77049 0)
(3.56003 -7.57122 -6.69724e-19)
(3.53905 -7.37479 1.28664e-18)
(3.50941 -7.17236 -1.09783e-18)
(3.46871 -6.96302 1.08034e-18)
(3.41816 -6.74888 -4.36683e-19)
(3.36007 -6.53322 8.8698e-19)
(3.29689 -6.31945 3.83638e-19)
(3.2309 -6.11048 0)
(3.164 -5.90855 0)
(3.09772 -5.71525 -2.7554e-19)
(3.0332 -5.53162 3.78023e-20)
(2.97124 -5.35826 9.84861e-19)
(2.91234 -5.19537 -2.43646e-19)
(2.85732 -5.0424 8.03584e-19)
(2.80739 -4.8977 1.40237e-19)
(2.75677 -4.76156 -8.17758e-19)
(4.4182 -8.48637 -2.90685e-18)
(3.97047 -8.20425 -9.73965e-19)
(3.92879 -7.90846 -2.59536e-18)
(3.90856 -7.68371 -1.57699e-18)
(3.88201 -7.48824 -7.47469e-19)
(3.85157 -7.29269 -7.30444e-19)
(3.81117 -7.0897 -2.38013e-18)
(3.75895 -6.87935 -4.8475e-20)
(3.69658 -6.6643 -1.90869e-18)
(3.62676 -6.44815 3.00933e-20)
(3.55223 -6.23442 -7.91017e-19)
(3.47544 -6.02603 -7.20236e-19)
(3.39841 -5.82517 6.56983e-19)
(3.3227 -5.63333 -6.00397e-19)
(3.24946 -5.45148 -5.49697e-19)
(3.17947 -5.28015 -5.04185e-19)
(3.11324 -5.11956 -1.35277e-18)
(3.05164 -4.96914 4.81546e-19)
(2.99593 -4.82726 1.16702e-18)
(2.93964 -4.69482 -1.24257e-18)
(4.75623 -8.32225 3.90912e-18)
(4.30919 -8.07962 4.79476e-18)
(4.26264 -7.79894 8.22551e-19)
(4.2363 -7.58212 3.9378e-18)
(4.20195 -7.3904 -7.711e-19)
(4.16184 -7.1959 3.84843e-18)
(4.11042 -6.99268 1.12425e-18)
(4.04641 -6.78178 3.15454e-18)
(3.97199 -6.56638 -9.63671e-19)
(3.89027 -6.35033 2.66585e-18)
(3.80428 -6.13725 1.5932e-18)
(3.71663 -5.93005 1.4508e-18)
(3.62944 -5.73083 -1.96253e-18)
(3.54431 -5.541 1.83758e-18)
(3.46237 -5.36142 1.10785e-18)
(3.38439 -5.19259 1.01635e-18)
(3.31087 -5.0347 9.34037e-19)
(3.24276 -4.88722 7.18431e-21)
(3.1814 -4.7485 7.92103e-19)
(3.11964 -4.62024 8.24578e-19)
(5.08822 -8.14467 -2.9017e-18)
(4.6441 -7.94085 1.06823e-18)
(4.59351 -7.67484 2.6384e-18)
(4.56134 -7.46567 -3.21211e-18)
(4.51913 -7.27768 7.42173e-19)
(4.46915 -7.08441 -2.57407e-18)
(4.40645 -6.88133 1.26099e-18)
(4.33039 -6.67037 -2.11027e-18)
(4.24373 -6.45519 4.84328e-20)
(4.14998 -6.23985 1.157e-20)
(4.05243 -6.02804 -1.61498e-18)
(3.95389 -5.82262 -7.30565e-19)
(3.85655 -5.62562 1.34231e-18)
(3.762 -5.43833 8.51458e-21)
(3.6714 -5.26152 -3.65916e-20)
(3.58547 -5.09562 -1.06109e-18)
(3.5047 -4.94086 -4.70804e-19)
(3.43013 -4.79667 -2.66227e-20)
(3.36322 -4.66148 -8.25749e-19)
(3.29622 -4.53793 -4.16423e-19)
(5.41368 -7.9538 0)
(4.97464 -7.78801 -1.97305e-18)
(4.92078 -7.53615 2.29309e-20)
(4.88297 -7.33436 3.20563e-18)
(4.83283 -7.15008 1.33948e-18)
(4.77278 -6.95827 -1.39499e-18)
(4.69855 -6.75572 -1.20016e-18)
(4.61024 -6.54522 0)
(4.51117 -6.33083 -9.53229e-19)
(4.40528 -6.11682 9.0937e-19)
(4.29614 -5.90689 -3.85202e-20)
(4.1867 -5.70384 0)
(4.07921 -5.50961 -6.75721e-19)
(3.97529 -5.32538 5.84531e-19)
(3.87604 -5.15181 4.87682e-19)
(3.78217 -4.98929 -5.89767e-19)
(3.69415 -4.83801 -5.11145e-19)
(3.61311 -4.69747 8.86766e-19)
(3.54066 -4.5662 -8.18033e-19)
(3.46855 -4.44795 4.307e-19)
(5.73213 -7.74984 2.99583e-18)
(5.30022 -7.62118 -2.03163e-18)
(5.24378 -7.3829 -1.73096e-18)
(5.20049 -7.18823 8.04966e-19)
(5.14234 -7.00766 -1.56188e-18)
(5.07201 -6.81755 0)
(4.98603 -6.61596 0)
(4.88528 -6.40644 0)
(4.77369 -6.19345 -4.38737e-20)
(4.65559 -5.98138 -1.82484e-18)
(4.53484 -5.77393 8.61502e-19)
(4.41452 -5.57383 7.27563e-19)
(4.29694 -5.38291 6.14807e-19)
(4.18369 -5.20222 -2.52409e-18)
(4.07583 -5.03234 1.19626e-18)
(3.97402 -4.87358 0)
(3.87871 -4.72615 -2.98568e-20)
(3.7911 -4.58957 -1.37565e-18)
(3.71294 -4.46257 -5.57589e-21)
(3.6357 -4.34996 -4.31157e-19)
(6.04322 -7.53305 -2.0381e-18)
(5.6203 -7.44048 -1.07094e-18)
(5.56183 -7.21516 8.04484e-19)
(5.51321 -7.02732 -1.43302e-19)
(5.44694 -6.8505 -4.54982e-18)
(5.36612 -6.66236 4.11387e-18)
(5.26821 -6.46217 -4.85792e-20)
(5.15487 -6.2542 1.12475e-18)
(5.03066 -6.04321 1.00846e-18)
(4.90034 -5.83369 9.25183e-19)
(4.76802 -5.62931 8.41306e-19)
(4.63689 -5.43271 1.50229e-18)
(4.50928 -5.24561 -7.22966e-19)
(4.38678 -5.06894 1.87188e-18)
(4.27038 -4.90318 -1.21003e-18)
(4.16066 -4.74859 -4.99916e-19)
(4.05803 -4.60537 2.00824e-18)
(3.96375 -4.47307 1.34083e-18)
(3.87977 -4.35047 -2.73975e-20)
(3.79761 -4.24328 0)
(6.34693 -7.30393 -1.03594e-18)
(5.93451 -7.24611 2.04587e-18)
(5.8743 -7.033 1.78819e-18)
(5.82038 -6.85171 -1.45211e-19)
(5.74589 -6.6787 -1.54345e-18)
(5.65441 -6.49285 6.99761e-20)
(5.54438 -6.29456 1.27537e-20)
(5.41836 -6.0887 1.13718e-20)
(5.28151 -5.88032 0)
(5.139 -5.67395 9.04471e-19)
(4.99517 -5.4732 -1.72137e-18)
(4.85331 -5.28061 -7.35778e-19)
(4.71577 -5.09778 7.30405e-19)
(4.58406 -4.92555 -6.40296e-19)
(4.45914 -4.76431 5.92696e-19)
(4.34151 -4.61429 -5.3928e-19)
(4.23156 -4.47572 4.80114e-21)
(4.13069 -4.34801 -4.57747e-19)
(4.04113 -4.22985 -4.22695e-19)
(3.95481 -4.12875 -4.2303e-19)
(6.6436 -7.06296 0)
(6.24258 -7.038 -9.96699e-19)
(6.18053 -6.83633 9.85262e-19)
(6.12127 -6.66147 1.71619e-18)
(6.03844 -6.49244 -1.55157e-18)
(5.93615 -6.30926 1.33875e-18)
(5.8139 -6.11338 -2.57363e-18)
(5.67516 -5.91024 -2.28305e-18)
(5.5257 -5.70508 -9.94859e-19)
(5.37109 -5.50243 4.38156e-20)
(5.21589 -5.30583 -8.22662e-19)
(5.06344 -5.1177 3.43951e-20)
(4.91605 -4.93949 0)
(4.77516 -4.77196 -1.25567e-18)
(4.64158 -4.61546 6.40977e-19)
(4.51569 -4.47024 0)
(4.39796 -4.33643 -5.01244e-19)
(4.28994 -4.21323 -9.00696e-19)
(4.19391 -4.10024 8.85024e-19)
(4.10242 -4.00979 4.36815e-19)
(6.93284 -6.80935 0)
(6.5439 -6.81544 0)
(6.47983 -6.6251 -1.82549e-18)
(6.41513 -6.45687 -1.56731e-18)
(6.32392 -6.2921 3.1821e-18)
(6.21074 -6.11202 0)
(6.07621 -5.91909 0)
(5.92475 -5.71926 1.14691e-18)
(5.76278 -5.5179 0)
(5.59626 -5.31954 0)
(5.42991 -5.12758 0)
(5.26713 -4.94428 0)
(5.11015 -4.77095 0)
(4.96024 -4.60821 0)
(4.81798 -4.45633 0)
(4.68347 -4.31549 0)
(4.55699 -4.18557 0)
(4.4396 -4.06595 0)
(4.33148 -3.95959 0)
(4.22664 -3.88342 0)
(10.0329 0.087651 1.45138e-19)
(10.0128 -0.307335 2.82302e-19)
(9.97743 -0.699677 -2.90033e-19)
(9.92735 -1.08923 5.78292e-19)
(9.8623 -1.47567 -5.78291e-19)
(9.78213 -1.85847 -5.46138e-19)
(9.68696 -2.23711 -5.44635e-19)
(9.577 -2.61104 1.71651e-18)
(9.45247 -2.97971 -1.14364e-18)
(9.31363 -3.34257 1.1342e-18)
(9.16076 -3.69907 -1.1342e-18)
(8.99416 -4.04868 1.12595e-18)
(8.81417 -4.39088 -2.23318e-18)
(8.62113 -4.72518 3.28799e-18)
(8.41541 -5.05107 0)
(8.19739 -5.36812 -3.23131e-18)
(7.96746 -5.67591 1.58189e-20)
(7.72616 -5.97407 3.25773e-18)
(7.47357 -6.26245 0)
(7.21137 -6.54036 0)
(10.092 -0.210976 0)
(10.0514 -0.606035 -1.49703e-20)
(9.99412 -0.99735 0)
(9.9208 -1.38459 5.52363e-19)
(9.83167 -1.76732 5.75487e-19)
(9.72693 -2.14496 -1.66498e-18)
(9.60686 -2.51687 2.90045e-18)
(9.47182 -2.88244 -1.14482e-18)
(9.32217 -3.24106 -1.09087e-18)
(9.1583 -3.59217 -1.08648e-18)
(8.98062 -3.93518 4.43972e-20)
(8.78956 -4.26955 1.11397e-18)
(8.58558 -4.59478 -5.53722e-18)
(8.36916 -4.91035 -1.16254e-18)
(8.14077 -5.21581 2.2131e-18)
(7.90094 -5.51074 2.21091e-18)
(7.65012 -5.79474 1.12386e-18)
(7.38889 -6.06748 -2.16602e-18)
(7.11734 -6.32871 1.02546e-18)
(6.83641 -6.57808 0)
(10.0306 -0.150025 1.30395e-19)
(9.99346 -0.540184 -2.67092e-19)
(9.93904 -0.927223 7.71031e-19)
(9.86773 -1.31046 -5.46558e-19)
(9.77991 -1.68924 -5.20892e-19)
(9.67594 -2.06286 5.44121e-19)
(9.55617 -2.43061 0)
(9.42102 -2.79179 0)
(9.27088 -3.14576 2.06542e-18)
(9.10621 -3.49187 3.08135e-18)
(8.92747 -3.8295 -9.74036e-19)
(8.73515 -4.15807 3.04721e-18)
(8.52975 -4.47703 -9.69988e-19)
(8.31182 -4.78584 -2.96814e-18)
(8.0819 -5.084 1.3195e-20)
(7.84054 -5.37105 1.90475e-18)
(7.58826 -5.64656 -8.58944e-19)
(7.32566 -5.91013 -1.87457e-18)
(7.05307 -6.16137 -1.01369e-18)
(6.77121 -6.3998 1.84282e-18)
(9.85591 -0.113814 0)
(9.8254 -0.49445 2.24868e-19)
(9.77772 -0.872788 2.23921e-19)
(9.71308 -1.24793 -9.20211e-19)
(9.63178 -1.6191 0)
(9.53418 -1.98551 0)
(9.42063 -2.34641 0)
(9.29149 -2.70107 0)
(9.14717 -3.04877 -9.74486e-19)
(8.98812 -3.38884 -9.70831e-19)
(8.8148 -3.72061 0)
(8.6277 -4.04346 1.83495e-18)
(8.42736 -4.35678 -4.53657e-18)
(8.21431 -4.65999 3.64838e-18)
(7.98912 -4.95256 -3.53587e-18)
(7.75236 -5.23397 -8.58038e-19)
(7.5046 -5.50372 1.55396e-19)
(7.24645 -5.76136 1.53858e-19)
(6.97841 -6.00644 -1.74857e-18)
(6.7012 -6.23845 -7.0745e-20)
(9.59775 -0.100486 0)
(9.57444 -0.468745 -2.2177e-19)
(9.53441 -0.835346 0)
(9.47773 -1.19939 4.43663e-19)
(9.40465 -1.56005 4.22764e-19)
(9.31544 -1.91654 3.86232e-19)
(9.2104 -2.2681 0)
(9.08988 -2.61396 0)
(8.95424 -2.9534 0)
(8.80389 -3.2857 0)
(8.63927 -3.61019 7.98234e-19)
(8.46085 -3.92619 8.60675e-19)
(8.26914 -4.23308 8.55953e-19)
(8.06466 -4.53025 -8.68891e-19)
(7.84796 -4.81712 -1.49359e-18)
(7.61961 -5.09312 1.69795e-18)
(7.3802 -5.35773 3.29164e-18)
(7.13034 -5.61043 1.60104e-18)
(6.87059 -5.85073 0)
(6.60164 -6.07814 -1.50842e-18)
(9.2879 -0.0916593 4.55177e-20)
(9.27137 -0.445681 0)
(9.23874 -0.7986 -7.46027e-19)
(9.19004 -1.14957 1.81661e-23)
(9.12542 -1.49777 1.59803e-20)
(9.0451 -1.84243 -6.77528e-20)
(8.94934 -2.18279 0)
(8.83842 -2.51809 3.05855e-20)
(8.71268 -2.84759 -7.57497e-19)
(8.57247 -3.1706 1.47568e-18)
(8.41819 -3.48641 -1.53935e-18)
(8.25028 -3.79436 8.41674e-19)
(8.0692 -4.0938 -4.40716e-18)
(7.87544 -4.38409 2.90673e-18)
(7.66953 -4.66465 1.54184e-18)
(7.45202 -4.93487 0)
(7.22347 -5.19421 -2.8447e-18)
(6.98448 -5.44212 -6.11017e-20)
(6.73562 -5.67807 -2.80194e-18)
(6.47754 -5.90155 2.91364e-18)
(8.95396 -0.0867053 4.0904e-20)
(8.94293 -0.42571 -8.57227e-20)
(8.91654 -0.764067 7.02965e-19)
(8.87477 -1.10099 -1.38967e-20)
(8.81772 -1.43569 7.02818e-19)
(8.74556 -1.76741 -1.06161e-18)
(8.65852 -2.09541 0)
(8.55682 -2.41897 7.15758e-19)
(8.44076 -2.73737 6.54921e-19)
(8.31064 -3.04991 -7.11777e-19)
(8.16682 -3.35592 1.30139e-18)
(8.00969 -3.65472 2.76053e-18)
(7.83968 -3.94567 -1.28306e-18)
(7.65724 -4.22815 -1.39199e-18)
(7.46287 -4.50155 1.33436e-18)
(7.25707 -4.76527 0)
(7.04039 -5.01874 6.41851e-20)
(6.81339 -5.2614 9.52195e-21)
(6.57664 -5.4927 2.6535e-18)
(6.33074 -5.7121 1.23304e-18)
(8.61644 -0.0853059 0)
(8.60939 -0.409353 6.17311e-21)
(8.58775 -0.73309 -1.42838e-19)
(8.55147 -1.05578 -6.34845e-19)
(8.50062 -1.37668 5.9646e-19)
(8.43535 -1.69507 0)
(8.35582 -2.01024 1.2142e-18)
(8.26224 -2.3215 -1.32968e-21)
(8.15486 -2.62817 -1.85478e-18)
(8.03394 -2.92957 0)
(7.8998 -3.22504 -1.28068e-18)
(7.7528 -3.51394 4.54472e-20)
(7.59332 -3.79565 -3.59853e-18)
(7.42179 -4.06955 6.30247e-21)
(7.23865 -4.33505 1.20628e-18)
(7.04439 -4.59154 0)
(6.83952 -4.83847 -1.18414e-18)
(6.62458 -5.07525 8.45435e-21)
(6.4001 -5.30135 1.17569e-18)
(6.16665 -5.51618 -1.2134e-18)
(8.28878 -0.0861357 0)
(8.28432 -0.395803 1.46497e-19)
(8.26601 -0.70539 3.04019e-19)
(8.23381 -1.0142 -5.62416e-19)
(8.18777 -1.32155 -2.43969e-20)
(8.12799 -1.62675 -2.81077e-19)
(8.05463 -1.92913 -1.12522e-18)
(7.96786 -2.22804 5.594e-19)
(7.86788 -2.52283 2.35108e-20)
(7.75495 -2.81286 5.56062e-19)
(7.62934 -3.0975 5.11591e-19)
(7.49138 -3.37615 2.217e-18)
(7.34142 -3.64819 1.10899e-18)
(7.17985 -3.91305 2.19031e-18)
(7.00709 -4.17015 -1.0923e-18)
(6.82361 -4.4189 3.82061e-20)
(6.62988 -4.65875 -1.07947e-18)
(6.42641 -4.88913 0)
(6.21373 -5.10949 1.02015e-18)
(5.99234 -5.31925 0)
(7.97866 -0.0881011 6.37239e-20)
(7.97566 -0.384249 -1.86596e-19)
(7.95952 -0.680457 5.11902e-19)
(7.9302 -0.976076 -2.55367e-19)
(7.88772 -1.27046 1.87035e-20)
(7.83219 -1.56296 -2.55215e-19)
(7.76373 -1.85295 5.30743e-19)
(7.68249 -2.13982 -5.0779e-19)
(7.58866 -2.42294 5.07787e-19)
(7.48246 -2.70173 9.73646e-19)
(7.36415 -2.97559 -1.04979e-18)
(7.23402 -3.24395 -4.44644e-20)
(7.0924 -3.50623 -3.0381e-18)
(6.93966 -3.76188 5.24758e-21)
(6.77619 -4.01035 3.96789e-20)
(6.60244 -4.2511 1.96948e-18)
(6.41886 -4.48357 -9.72858e-19)
(6.22596 -4.7072 -9.26418e-19)
(6.02424 -4.92146 -3.703e-20)
(5.81416 -5.12575 0)
(7.6896 -0.0904764 0)
(7.68724 -0.374084 2.36972e-19)
(7.67238 -0.657825 -8.14691e-19)
(7.645 -0.941091 -2.1603e-19)
(7.6051 -1.22327 4.83514e-19)
(7.55278 -1.50376 0)
(7.48815 -1.78198 0)
(7.41135 -2.05734 4.62025e-19)
(7.32254 -2.32926 -4.62023e-19)
(7.22194 -2.59718 3.88705e-19)
(7.10977 -2.86056 -4.59044e-19)
(6.98631 -3.11884 9.10322e-19)
(6.85187 -3.3715 -1.81614e-18)
(6.7068 -3.61802 1.80676e-18)
(6.55149 -3.85788 3.41977e-20)
(6.38634 -4.09058 -9.29556e-19)
(6.21183 -4.31557 -8.8428e-19)
(6.02844 -4.53234 1.80164e-18)
(5.83668 -4.74033 8.43035e-19)
(5.637 -4.93892 0)
(7.42242 -0.0927968 1.84607e-21)
(7.42013 -0.364851 1.55466e-19)
(7.40593 -0.637066 3.26508e-19)
(7.37979 -0.908872 2.28613e-19)
(7.34173 -1.17969 2.11961e-19)
(7.29183 -1.44896 1.97085e-19)
(7.23018 -1.71611 0)
(7.15692 -1.98061 -8.14633e-19)
(7.07221 -2.24192 -4.20031e-19)
(6.97623 -2.4995 3.57918e-19)
(6.86921 -2.75283 0)
(6.75141 -3.00143 8.29588e-19)
(6.62311 -3.24479 -2.45335e-18)
(6.48466 -3.48243 8.25336e-19)
(6.33641 -3.71388 0)
(6.1788 -3.93866 -7.84532e-19)
(6.01229 -4.15629 -1.58474e-18)
(5.83735 -4.36624 7.79694e-19)
(5.65454 -4.56797 -2.8811e-20)
(5.4643 -4.76085 0)
(7.17629 -0.0947669 3.40494e-21)
(7.17372 -0.35621 -1.00607e-19)
(7.15977 -0.617809 1.94106e-19)
(7.1344 -0.879027 -1.28885e-20)
(7.09764 -1.13932 3.87864e-19)
(7.04957 -1.39815 -5.95776e-19)
(6.99027 -1.655 0)
(6.91987 -1.90934 5.50705e-20)
(6.83852 -2.16067 0)
(6.7464 -2.40849 -7.95312e-19)
(6.64371 -2.65233 0)
(6.53071 -2.89172 -7.33627e-19)
(6.40767 -3.12619 2.2679e-18)
(6.27491 -3.35533 -1.50277e-18)
(6.13279 -3.57868 7.49218e-19)
(5.98174 -3.79583 -6.62349e-19)
(5.82223 -4.00631 7.65865e-19)
(5.65476 -4.20968 -7.60622e-19)
(5.47994 -4.40533 0)
(5.29821 -4.59265 0)
(6.9495 -0.0962645 4.60177e-20)
(6.94646 -0.34794 0)
(6.9325 -0.599755 0)
(6.9076 -0.851197 -3.68695e-19)
(6.87179 -1.10175 -3.43983e-19)
(6.82513 -1.35091 0)
(6.76772 -1.59817 0)
(6.69968 -1.84304 4.89456e-20)
(6.62114 -2.08506 6.81145e-19)
(6.53227 -2.32374 -3.28426e-19)
(6.43329 -2.55865 -3.50025e-19)
(6.32441 -2.78934 1.41405e-18)
(6.2059 -3.01541 -2.09964e-18)
(6.07806 -3.23646 1.35371e-18)
(5.94127 -3.4521 0)
(5.79593 -3.66198 2.71977e-18)
(5.64255 -3.86565 -1.97429e-18)
(5.48164 -4.06277 6.71734e-19)
(5.31395 -4.25267 1.28432e-18)
(5.13989 -4.43478 0)
(6.74003 -0.0972226 -3.95387e-20)
(6.73641 -0.339881 0)
(6.7223 -0.582659 -5.11652e-21)
(6.69767 -0.825063 -3.16409e-19)
(6.66257 -1.0666 9.80576e-19)
(6.61706 -1.30679 -1.63112e-19)
(6.56122 -1.54514 0)
(6.49517 -1.78121 1.29932e-18)
(6.41905 -2.01454 -6.69217e-19)
(6.333 -2.24468 4.36314e-20)
(6.23723 -2.47122 6.19976e-19)
(6.13194 -2.69376 6.35539e-19)
(6.0174 -2.91191 -1.26735e-18)
(5.89389 -3.12534 -1.2395e-18)
(5.76175 -3.33368 -1.21053e-18)
(5.6214 -3.53669 -1.28857e-18)
(5.47338 -3.73392 1.27975e-18)
(5.3182 -3.92525 -6.10751e-19)
(5.15686 -4.10982 -6.51081e-19)
(4.98967 -4.2873 0)
(6.5457 -0.0976177 3.88457e-20)
(6.54148 -0.331928 -1.45824e-19)
(6.52715 -0.566329 -1.5098e-19)
(6.50271 -0.800347 4.5206e-19)
(6.46819 -1.03351 -1.60574e-19)
(6.42366 -1.26536 -1.50054e-19)
(6.36919 -1.49544 0)
(6.3049 -1.72331 -6.16828e-19)
(6.23091 -1.94854 0)
(6.14737 -2.17071 6.12022e-19)
(6.05447 -2.38943 -1.17919e-18)
(5.9524 -2.60433 5.83672e-19)
(5.8414 -2.81506 -1.16373e-18)
(5.72173 -3.02132 1.20106e-18)
(5.59373 -3.22279 6.53926e-19)
(5.45777 -3.41936 0)
(5.31446 -3.61057 -5.64049e-19)
(5.16426 -3.79662 5.64049e-19)
(5.00858 -3.97634 0)
(4.84742 -4.15008 0)
(6.36448 -0.0975329 0)
(6.35966 -0.324057 1.43271e-19)
(6.34512 -0.55064 4.62375e-21)
(6.32083 -0.77683 -1.47736e-19)
(6.28684 -1.00218 -1.30237e-19)
(6.2432 -1.22624 -1.3828e-19)
(6.19 -1.44859 5.34403e-19)
(6.12734 -1.66879 0)
(6.05533 -1.88645 0)
(5.97413 -2.10117 2.71566e-19)
(5.88389 -2.31257 2.88534e-19)
(5.7848 -2.52031 1.04394e-18)
(5.67708 -2.72408 -5.33401e-19)
(5.56095 -2.92361 5.33399e-19)
(5.43672 -3.11864 5.66361e-19)
(5.30473 -3.30916 3.32059e-20)
(5.1656 -3.49474 -1.03973e-18)
(5.01971 -3.67608 3.73417e-21)
(4.86912 -3.8514 5.14167e-19)
(4.71304 -4.02259 0)
(6.19448 -0.0969728 -3.20163e-20)
(6.18915 -0.316237 3.20159e-20)
(6.17443 -0.535535 0)
(6.15033 -0.754426 1.20583e-19)
(6.11687 -0.972479 3.91712e-19)
(6.07412 -1.18928 -4.95028e-19)
(6.02216 -1.4044 -5.25068e-19)
(5.96108 -1.61745 0)
(5.89101 -1.82804 0)
(5.81207 -2.03579 0)
(5.72442 -2.24035 -9.6903e-19)
(5.62821 -2.4414 -6.26868e-20)
(5.52365 -2.63865 -4.91282e-19)
(5.41091 -2.83187 2.94934e-20)
(5.29028 -3.02085 -9.71461e-19)
(5.16198 -3.2057 1.48052e-18)
(5.02669 -3.38602 -1.40251e-18)
(4.88448 -3.56328 4.761e-19)
(4.73848 -3.7347 9.1247e-19)
(4.58614 -3.90492 0)
(6.03406 -0.0955926 2.87625e-20)
(6.02831 -0.308272 0)
(6.0135 -0.520974 -1.18411e-19)
(5.98963 -0.733269 -2.43995e-19)
(5.95674 -0.944743 1.1826e-19)
(5.91489 -1.15499 9.44325e-19)
(5.86416 -1.36363 0)
(5.80463 -1.57026 -4.5476e-19)
(5.73642 -1.77453 -2.32578e-19)
(5.65965 -1.97607 -4.36904e-19)
(5.57446 -2.17455 -1.74751e-19)
(5.48098 -2.36968 -1.37927e-18)
(5.37938 -2.56117 -9.10312e-19)
(5.2698 -2.74883 9.3644e-19)
(5.15247 -2.93247 8.96199e-19)
(5.02741 -3.11229 -3.82732e-21)
(4.8954 -3.288 2.92561e-20)
(4.75575 -3.46201 4.38621e-19)
(4.61328 -3.63078 -8.96593e-19)
(4.46166 -3.80369 0)
(5.88164 -0.093914 -6.01493e-20)
(5.8756 -0.300292 2.96109e-20)
(5.86085 -0.50676 -1.18298e-19)
(5.83737 -0.712932 1.18244e-19)
(5.80518 -0.918421 -3.40088e-19)
(5.76433 -1.12284 -1.05893e-18)
(5.71489 -1.32582 0)
(5.65693 -1.52699 4.81214e-19)
(5.59053 -1.72599 -4.49926e-19)
(5.5158 -1.9225 9.52702e-19)
(5.43284 -2.11619 9.46989e-19)
(5.34176 -2.30677 1.39509e-18)
(5.2427 -2.49396 -9.05184e-19)
(5.13569 -2.67758 4.5086e-19)
(5.02096 -2.85744 -4.43318e-19)
(4.89818 -3.03372 4.43342e-19)
(4.76837 -3.20622 0)
(4.62901 -3.37792 4.01267e-19)
(4.48865 -3.54503 -3.92547e-19)
(4.33298 -3.72861 0)
(7.12942 7.25129 0)
(7.409 6.96194 0)
(7.67572 6.66304 1.07217e-18)
(7.93028 6.35508 1.96749e-20)
(8.17211 6.03779 -1.13496e-18)
(8.40056 5.71121 0)
(8.61521 5.37576 1.17069e-18)
(8.81572 5.03195 -2.20763e-18)
(9.00179 4.68036 -1.11552e-18)
(9.17312 4.3216 -1.12582e-18)
(9.32945 3.9563 1.12581e-18)
(9.47055 3.5851 -1.13759e-18)
(9.59623 3.20869 5.67468e-19)
(9.70631 2.82777 5.41223e-19)
(9.80061 2.443 5.43318e-19)
(9.87907 2.05505 -5.76952e-19)
(9.94166 1.66457 5.76953e-19)
(9.98845 1.27226 -2.89629e-19)
(10.0194 0.87852 -1.37486e-19)
(10.035 0.4847 7.24625e-20)
(7.39296 7.04711 0)
(7.67212 6.75845 -9.81094e-19)
(7.93755 6.4583 -2.09784e-18)
(8.18955 6.14734 3.10182e-18)
(8.42789 5.82588 -2.15129e-18)
(8.65206 5.49437 2.16108e-18)
(8.86158 5.15339 1.17542e-18)
(9.05605 4.80362 -3.33388e-18)
(9.23507 4.44573 1.09056e-18)
(9.3983 4.08044 2.16712e-18)
(9.54541 3.70845 1.06739e-18)
(9.67615 3.33053 1.07408e-18)
(9.79036 2.94746 -1.13377e-18)
(9.88783 2.55998 1.66901e-18)
(9.96833 2.16885 -2.31654e-18)
(10.0317 1.77492 5.71677e-19)
(10.078 1.37898 -5.49102e-19)
(10.1073 0.981869 0)
(10.1193 0.584103 1.50791e-20)
(10.1147 0.186657 0)
(7.24296 6.91634 -1.72648e-18)
(7.52451 6.64508 9.6987e-19)
(7.79357 6.36107 1.77244e-18)
(8.04971 6.06498 8.01503e-19)
(8.29251 5.75737 2.01035e-18)
(8.52145 5.43885 1.94748e-20)
(8.73602 5.11009 -1.00754e-18)
(8.93572 4.77177 -3.00141e-18)
(9.12011 4.42459 2.96262e-18)
(9.28878 4.06928 -3.04133e-18)
(9.44131 3.70657 -1.01309e-18)
(9.57742 3.33722 -2.02672e-18)
(9.69681 2.96204 0)
(9.79923 2.58181 0)
(9.88455 2.19737 0)
(9.95263 1.80962 -5.1647e-19)
(10.0033 1.41941 5.4116e-19)
(10.0365 1.02759 5.18121e-19)
(10.0522 0.634857 6.22536e-21)
(10.0503 0.242175 1.30125e-19)
(7.01258 6.66247 1.79346e-18)
(7.29059 6.40974 -1.62753e-18)
(7.55732 6.14402 -1.68065e-19)
(7.81203 5.86584 -1.68994e-19)
(8.05419 5.57577 4.22855e-18)
(8.28324 5.27442 -7.0735e-20)
(8.49865 4.96241 3.54889e-21)
(8.69989 4.64038 -2.67365e-18)
(8.88646 4.30901 1.76378e-18)
(9.05791 3.96898 0)
(9.21375 3.62104 9.46184e-19)
(9.35363 3.26605 9.52667e-19)
(9.47729 2.90476 0)
(9.58441 2.53798 0)
(9.67475 2.16654 0)
(9.74815 1.79125 0)
(9.8044 1.41292 -2.14718e-20)
(9.8434 1.0324 4.66165e-19)
(9.86501 0.650491 -2.23771e-19)
(9.86924 0.268135 0)
(6.74872 6.34813 1.51747e-18)
(7.01876 6.1131 0)
(7.27861 5.86527 -4.46469e-18)
(7.52748 5.60505 -1.5216e-18)
(7.76474 5.33298 -1.5994e-18)
(7.98982 5.04959 -1.69566e-18)
(8.20216 4.75547 8.01027e-19)
(8.40121 4.45121 -8.41419e-19)
(8.58645 4.13742 2.3355e-18)
(8.75744 3.81481 -7.64327e-19)
(8.91375 3.4841 0)
(9.05492 3.14605 0)
(9.18054 2.80133 0)
(9.29034 2.45072 0)
(9.38407 2.09502 -1.2068e-18)
(9.46148 1.73505 4.15046e-19)
(9.52235 1.37158 -4.38571e-19)
(9.56652 1.00544 0)
(9.59387 0.637468 2.20689e-19)
(9.60432 0.268536 0)
(6.47327 6.02208 1.2965e-18)
(6.73307 5.80307 -4.77118e-20)
(6.98359 5.57167 2.72702e-18)
(7.22407 5.32823 1.36201e-18)
(7.45385 5.0732 0)
(7.67236 4.80708 -1.44656e-18)
(7.87905 4.5304 6.7653e-20)
(8.07336 4.24371 -1.46815e-18)
(8.25479 3.9476 2.02957e-18)
(8.42287 3.6427 3.24383e-20)
(8.57717 3.32965 2.78458e-20)
(8.71725 3.00906 -7.32154e-19)
(8.8427 2.68167 1.43566e-18)
(8.95321 2.34821 0)
(9.04852 2.00938 6.77866e-20)
(9.12833 1.66603 7.32862e-19)
(9.19238 1.3189 1.59504e-21)
(9.24048 0.968753 -1.51741e-20)
(9.27251 0.616394 0)
(9.28834 0.262642 -4.54237e-20)
(6.20687 5.70615 0)
(6.45535 5.50105 -4.8604e-20)
(6.69531 5.2841 1.70964e-20)
(6.92601 5.05557 -2.46304e-18)
(7.1468 4.81586 0)
(7.35714 4.56545 1.24511e-18)
(7.55647 4.30479 1.32658e-18)
(7.74429 4.03439 -3.85858e-18)
(7.92009 3.7548 -6.74258e-20)
(8.08341 3.46658 -1.23825e-18)
(8.23382 3.17031 6.82237e-19)
(8.37091 2.86661 -6.29734e-19)
(8.49427 2.55615 -6.92724e-19)
(8.60354 2.23959 0)
(8.69849 1.91766 3.6556e-19)
(8.77891 1.59095 -1.66967e-20)
(8.84441 1.26031 -3.39094e-19)
(8.89478 0.926476 -1.65608e-20)
(8.92992 0.590179 -8.53554e-20)
(8.94965 0.252184 1.71079e-19)
(5.96034 5.41155 0)
(6.19729 5.21829 1.06411e-18)
(6.4263 5.01373 1.57496e-20)
(6.64667 4.79814 -1.07983e-18)
(6.85781 4.57186 0)
(7.05917 4.3353 1.12312e-18)
(7.25024 4.0889 -1.07197e-18)
(7.43053 3.83311 -1.18732e-18)
(7.59957 3.56844 2.25725e-18)
(7.75691 3.29541 1.21856e-18)
(7.90214 3.01456 0)
(8.03486 2.72648 5.94133e-19)
(8.15471 2.43178 -4.27851e-21)
(8.26136 2.13111 2.16135e-20)
(8.35439 1.82511 0)
(8.43368 1.51441 -5.84508e-19)
(8.49909 1.19961 -3.06307e-19)
(8.55019 0.881522 4.47445e-19)
(8.58686 0.560868 3.01691e-19)
(8.60895 0.238342 -4.03446e-20)
(5.7373 5.14308 0)
(5.96302 4.95983 -9.18023e-19)
(6.18127 4.76587 0)
(6.39139 4.5614 -9.90619e-19)
(6.5928 4.34675 1.94995e-18)
(6.78499 4.12228 -1.98843e-18)
(6.96749 3.88839 3.11229e-18)
(7.13983 3.64551 -3.10286e-18)
(7.30158 3.3941 -2.0963e-18)
(7.45231 3.13465 -1.54569e-18)
(7.59164 2.86768 5.30148e-19)
(7.71918 2.59373 -1.09923e-18)
(7.8346 2.31337 1.84235e-20)
(7.93756 2.02721 1.09249e-18)
(8.02779 1.7358 -2.74824e-19)
(8.1049 1.4399 1.126e-18)
(8.16883 1.13995 -5.53703e-19)
(8.2194 0.836676 2.54936e-19)
(8.25635 0.530789 -1.45532e-19)
(8.27947 0.222951 0)
(5.53751 4.90117 0)
(5.75265 4.72645 1.7756e-18)
(5.96068 4.54156 8.6071e-19)
(6.16096 4.34669 -8.86315e-19)
(6.35295 4.14213 -1.81552e-18)
(6.53619 3.9282 2.76247e-18)
(6.71022 3.70527 1.1009e-20)
(6.87463 3.47374 -8.99987e-19)
(7.02899 3.23405 1.93319e-18)
(7.17293 2.98666 9.98557e-19)
(7.30607 2.73206 -9.32296e-19)
(7.42806 2.47077 4.89668e-19)
(7.53858 2.20332 2.22158e-20)
(7.63731 1.93027 -5.15403e-19)
(7.72399 1.65218 -2.49667e-19)
(7.79833 1.36964 5.00613e-19)
(7.8601 1.08333 -2.50946e-19)
(7.90919 0.793734 -5.06409e-19)
(7.94544 0.501533 5.8647e-20)
(7.9686 0.207368 6.34513e-20)
(5.35887 4.68388 0)