/*--------------------------------*- C++ -*----------------------------------*\
| =========                 |                                                 |
| \\      /  F ield         | OpenFOAM: The Open Source CFD Toolbox           |
|  \\    /   O peration     | Version:  v1912                                 |
|   \\  /    A nd           | Website:  www.openfoam.com                      |
|    \\/     M anipulation  |                                                 |
\*---------------------------------------------------------------------------*/
FoamFile
{
    version     2.0;
    format      ascii;
    class       volScalarField;
    location    "66.5";
    object      p;
}
// * * * * * * * * * * * * * * * * * * * * * * * * * * * * * * * * * * * * * //

dimensions      [0 2 -2 0 0 0 0];


internalField   nonuniform List<scalar> 
9600
(
-41.488
-36.2232
-32.9965
-30.2594
-27.7541
-25.4873
-23.4307
-21.5566
-19.8473
-18.2892
-16.8697
-15.5769
-14.3994
-13.3264
-12.3478
-11.4542
-10.6372
-9.88892
-9.20175
-8.57356
-42.248
-36.9657
-33.703
-30.923
-28.3726
-26.0617
-23.9638
-22.0518
-20.3086
-18.7205
-17.2746
-15.9586
-14.7608
-13.6699
-12.6754
-11.7676
-10.9379
-10.1778
-9.47952
-8.84204
-43.0097
-37.7042
-34.4041
-31.5811
-28.9852
-26.6301
-24.4907
-22.5411
-20.7642
-19.1464
-17.6744
-16.3356
-15.1177
-14.0091
-12.999
-12.0772
-11.2348
-10.4631
-9.7537
-9.10714
-43.7698
-38.4383
-35.0994
-32.2326
-29.5911
-27.1915
-25.0107
-23.0236
-21.2133
-19.566
-18.0683
-16.707
-15.4694
-14.3435
-13.3179
-12.3824
-11.5275
-10.7442
-10.0239
-9.3685
-44.5254
-39.1664
-35.7878
-32.8765
-30.189
-27.7449
-25.5229
-23.4984
-21.655
-19.9787
-18.4557
-17.0722
-15.8153
-14.6723
-13.6317
-12.6826
-11.8155
-11.0208
-10.2897
-9.62587
-45.2744
-39.8871
-36.4681
-33.5118
-30.778
-28.2893
-26.0261
-23.9646
-22.0886
-20.3837
-18.8357
-17.4306
-16.1547
-14.9951
-13.9397
-12.9774
-12.0984
-11.2925
-10.5509
-9.87896
-46.015
-40.5989
-37.139
-34.1372
-31.3569
-28.8237
-26.5196
-24.4214
-22.5131
-20.78
-19.2076
-17.7813
-16.4869
-15.3111
-14.2414
-13.2663
-12.3756
-11.5589
-10.807
-10.1275
-46.7457
-41.3005
-37.7993
-34.7517
-31.9248
-29.3471
-27.0023
-24.8679
-22.9277
-21.1671
-19.5708
-18.1237
-16.8114
-15.6198
-14.5362
-13.5487
-12.6468
-11.8196
-11.0577
-10.3712
-47.4651
-41.9904
-38.4478
-35.3541
-32.4805
-29.8585
-27.4734
-25.3031
-23.3317
-21.5439
-19.9243
-18.4571
-17.1273
-15.9205
-14.8234
-13.8239
-12.9113
-12.074
-11.3026
-10.6097
-48.172
-42.6677
-39.0834
-35.9433
-33.023
-30.357
-27.9319
-25.7263
-23.7241
-21.9098
-20.2674
-18.7807
-17.4339
-16.2124
-15.1023
-14.0914
-13.1685
-12.3216
-11.5412
-10.8426
-48.8652
-43.331
-39.7049
-36.5183
-33.5515
-30.8416
-28.3769
-26.1365
-24.1041
-22.2639
-20.5993
-19.0936
-17.7304
-16.4946
-15.3722
-14.3503
-13.4176
-12.5616
-11.7728
-11.0692
-49.5439
-43.9795
-40.3114
-37.0782
-34.0648
-31.3115
-28.8076
-26.5328
-24.4709
-22.6054
-20.9192
-19.3949
-18.0159
-16.7664
-15.632
-14.5998
-13.6579
-12.7934
-11.9967
-11.2889
-50.2073
-44.6123
-40.9019
-37.6221
-34.5623
-31.7657
-29.2231
-26.9146
-24.8236
-22.9334
-21.2261
-19.6838
-18.2894
-17.0267
-15.8809
-14.8388
-13.8882
-13.0158
-12.212
-11.5007
-50.8548
-45.2285
-41.4757
-38.1491
-35.043
-32.2036
-29.6228
-27.2811
-25.1616
-23.247
-21.5191
-19.9593
-18.5499
-17.2743
-16.1174
-15.0659
-14.1072
-13.2276
-12.4174
-11.7042
-51.4858
-45.8273
-42.0319
-38.6585
-35.5064
-32.6244
-30.006
-27.6315
-25.484
-23.5457
-21.7976
-20.2205
-18.7963
-17.508
-16.3403
-15.2794
-14.313
-13.4266
-12.6109
-11.8974
-52.0999
-46.4079
-42.5698
-39.1496
-35.9517
-33.0277
-30.372
-27.9654
-25.7905
-23.8288
-22.0607
-20.4666
-19.0277
-17.7268
-16.5481
-15.478
-14.5036
-13.6106
-12.7898
-12.0748
-52.6984
-46.9704
-43.0887
-39.6219
-36.3783
-33.4126
-30.7204
-28.2822
-26.0803
-24.0957
-22.3079
-20.6968
-19.2432
-17.9296
-16.74
-15.6606
-14.6788
-13.7796
-12.9527
-12.2332
-53.2856
-47.5156
-43.5879
-40.074
-36.7853
-33.7787
-31.0506
-28.5816
-26.3534
-24.3461
-22.5387
-20.9104
-19.4417
-18.1147
-16.9134
-15.8247
-14.8358
-13.9308
-13.0991
-12.3839
-53.8636
-48.0433
-44.0658
-40.5051
-37.1723
-34.1259
-31.3629
-28.864
-26.6101
-24.5805
-22.7536
-21.1077
-19.6228
-18.2806
-17.0652
-15.9635
-14.9626
-14.0467
-13.2137
-12.5311
-54.4106
-48.5456
-44.5213
-40.9156
-37.5406
-34.4558
-31.6591
-29.1312
-26.8522
-24.801
-22.9547
-21.291
-19.7891
-18.43
-17.197
-16.0756
-15.0509
-14.1093
-13.2654
-12.5891
-59.8674
-59.8359
-59.7667
-59.6742
-59.5579
-59.4151
-59.2454
-59.0493
-58.8274
-58.5802
-58.3082
-58.0121
-57.6924
-57.3499
-56.9853
-56.5995
-56.1936
-55.7692
-55.3294
-54.8771
-53.5185
-53.5159
-53.4801
-53.4168
-53.3266
-53.209
-53.0644
-52.8934
-52.6967
-52.4748
-52.2286
-51.9584
-51.665
-51.349
-51.0111
-50.6518
-50.2719
-49.8719
-49.4522
-49.0108
-48.874
-48.8958
-48.8883
-48.8519
-48.7881
-48.6976
-48.5811
-48.4393
-48.2727
-48.0819
-47.8675
-47.6301
-47.3703
-47.0885
-46.7853
-46.4611
-46.1163
-45.7507
-45.3643
-44.955
-44.6432
-44.6827
-44.6956
-44.6813
-44.6408
-44.5752
-44.485
-44.3709
-44.2333
-44.0729
-43.8901
-43.6855
-43.4596
-43.2128
-42.9455
-42.6581
-42.3507
-42.0232
-41.6754
-41.3064
-40.7311
-40.7804
-40.8059
-40.8066
-40.7831
-40.7361
-40.6663
-40.5743
-40.4604
-40.3252
-40.1693
-39.993
-39.7969
-39.5814
-39.3467
-39.0933
-38.8211
-38.5301
-38.2201
-37.8905
-37.2176
-37.2711
-37.3029
-37.3124
-37.2994
-37.2649
-37.2093
-37.1331
-37.0368
-36.9209
-36.7859
-36.6323
-36.4604
-36.2708
-36.0637
-35.8393
-35.5978
-35.3391
-35.0629
-34.7688
-34.0936
-34.1471
-34.1808
-34.194
-34.1866
-34.1593
-34.1126
-34.0471
-33.963
-33.861
-33.7416
-33.6051
-33.452
-33.2829
-33.0979
-32.8975
-32.6816
-32.4502
-32.2031
-31.9397
-31.3225
-31.3732
-31.4056
-31.419
-31.4136
-31.3898
-31.3481
-31.2891
-31.2131
-31.1206
-31.0122
-30.8883
-30.7494
-30.596
-30.4285
-30.2472
-30.0523
-29.8436
-29.621
-29.3839
-28.8644
-28.9106
-28.9398
-28.9514
-28.9456
-28.9228
-28.8835
-28.8282
-28.7572
-28.671
-28.5703
-28.4554
-28.327
-28.1857
-28.0317
-27.8657
-27.6877
-27.4979
-27.2959
-27.0811
-26.6794
-26.7204
-26.7456
-26.7543
-26.7469
-26.7236
-26.685
-26.6314
-26.5633
-26.4813
-26.3858
-26.2775
-26.1569
-26.0246
-25.8813
-25.7274
-25.5633
-25.3891
-25.2046
-25.009
-24.7304
-24.7662
-24.787
-24.7924
-24.7827
-24.7581
-24.7192
-24.6663
-24.5999
-24.5206
-24.4288
-24.3251
-24.2103
-24.0851
-23.9501
-23.806
-23.6533
-23.4923
-23.3229
-23.1443
-22.9846
-23.0153
-23.0318
-23.0339
-23.0216
-22.9955
-22.9558
-22.903
-22.8376
-22.7599
-22.6707
-22.5705
-22.4601
-22.3403
-22.2119
-22.0757
-21.9326
-21.783
-21.627
-21.4636
-21.4136
-21.4396
-21.4522
-21.4511
-21.4364
-21.4086
-21.3681
-21.3151
-21.2501
-21.1737
-21.0863
-20.9888
-20.8817
-20.7661
-20.6429
-20.5133
-20.3782
-20.2385
-20.0945
-19.9454
-19.9936
-20.0155
-20.0245
-20.0205
-20.0036
-19.9743
-19.9328
-19.8795
-19.8149
-19.7393
-19.6534
-19.5579
-19.4535
-19.3412
-19.2221
-19.0976
-18.9692
-18.8381
-18.7054
-18.57
-18.7048
-18.723
-18.7289
-18.7223
-18.7035
-18.6728
-18.6305
-18.577
-18.5126
-18.4377
-18.353
-18.2591
-18.1567
-18.0469
-17.9311
-17.8106
-17.6876
-17.5637
-17.4415
-17.3196
-17.5308
-17.5456
-17.5486
-17.5398
-17.5193
-17.4874
-17.4445
-17.3907
-17.3266
-17.2523
-17.1686
-17.076
-16.9752
-16.8673
-16.7537
-16.636
-16.517
-16.3989
-16.2863
-16.1776
-16.4576
-16.4694
-16.4699
-16.4591
-16.4372
-16.4043
-16.3607
-16.3068
-16.2428
-16.1691
-16.0861
-15.9944
-15.8948
-15.788
-15.6756
-15.5594
-15.4427
-15.3284
-15.2239
-15.127
-15.4733
-15.4828
-15.4814
-15.4691
-15.446
-15.4125
-15.3686
-15.3147
-15.251
-15.1778
-15.0955
-15.0047
-14.9058
-14.7996
-14.6876
-14.5715
-14.4551
-14.3422
-14.2447
-14.157
-14.5669
-14.575
-14.5726
-14.5598
-14.5367
-14.5035
-14.4603
-14.4075
-14.3452
-14.2736
-14.1932
-14.1042
-14.0072
-13.9027
-13.7917
-13.6759
-13.5588
-13.4455
-13.3549
-13.2814
-13.7331
-13.7379
-13.733
-13.7184
-13.6942
-13.6606
-13.6178
-13.5658
-13.505
-13.4354
-13.3574
-13.2712
-13.177
-13.0753
-12.9666
-12.8518
-12.7328
-12.6149
-12.5178
-12.4686
-53.5738
-54.1494
-54.6878
-55.2111
-55.7166
-56.1981
-56.6528
-57.0797
-57.4778
-57.8463
-58.1844
-58.4917
-58.7678
-59.0125
-59.2249
-59.4053
-59.5545
-59.6736
-59.7648
-59.8297
-47.0906
-47.6715
-48.2244
-48.7549
-49.2625
-49.7449
-50.2005
-50.6288
-51.0291
-51.4006
-51.7429
-52.0558
-52.3394
-52.5944
-52.8185
-53.0115
-53.1737
-53.3057
-53.4079
-53.4791
-42.4461
-43.0148
-43.5597
-44.0813
-44.5794
-45.0534
-45.5023
-45.9256
-46.3226
-46.6926
-47.0348
-47.3488
-47.6343
-47.8901
-48.1174
-48.3166
-48.4872
-48.629
-48.7417
-48.8237
-38.3219
-38.8653
-39.3889
-39.891
-40.3709
-40.8283
-41.2626
-41.6732
-42.0594
-42.4207
-42.7557
-43.0639
-43.3463
-43.6024
-43.8323
-44.0357
-44.2123
-44.3617
-44.4836
-44.5775
-34.6439
-35.1572
-35.6535
-36.1301
-36.5861
-37.021
-37.4345
-37.8257
-38.194
-38.5388
-38.8608
-39.1595
-39.4334
-39.6828
-39.9078
-40.1081
-40.2833
-40.4334
-40.5582
-40.6576
-31.4452
-31.927
-32.3934
-32.8419
-33.2712
-33.681
-34.0706
-34.4396
-34.7875
-35.114
-35.4188
-35.7015
-35.9614
-36.1986
-36.4135
-36.6058
-36.7748
-36.9205
-37.043
-37.1422
-28.6732
-29.1241
-29.5609
-29.981
-30.3833
-30.7672
-31.1322
-31.478
-31.804
-32.1099
-32.3955
-32.6604
-32.9043
-33.1271
-33.3282
-33.5098
-33.6699
-33.8082
-33.9248
-34.0202
-26.2611
-26.6832
-27.0918
-27.4849
-27.8612
-28.2201
-28.5611
-28.8839
-29.188
-29.4732
-29.7393
-29.9861
-30.2134
-30.4212
-30.6094
-30.7764
-30.926
-31.0552
-31.1643
-31.2535
-24.1502
-24.5459
-24.9288
-25.2969
-25.649
-25.9845
-26.3029
-26.6039
-26.8872
-27.1526
-27.4
-27.6292
-27.8401
-28.0327
-28.207
-28.3629
-28.4991
-28.6183
-28.719
-28.801
-22.2905
-22.6623
-23.022
-23.3675
-23.6976
-24.0115
-24.3091
-24.59
-24.8539
-25.1008
-25.3306
-25.5432
-25.7386
-25.9168
-26.0776
-26.221
-26.347
-26.4557
-26.5476
-26.6223
-20.6402
-20.9908
-21.3298
-21.655
-21.9651
-22.2596
-22.5381
-22.8005
-23.0467
-23.2766
-23.4902
-23.6876
-23.8686
-24.0333
-24.1817
-24.3137
-24.4293
-24.5286
-24.6122
-24.6795
-19.1657
-19.4975
-19.8183
-20.1254
-20.4177
-20.6944
-20.9556
-21.2012
-21.4311
-21.6455
-21.8443
-22.0276
-22.1955
-22.348
-22.485
-22.6066
-22.7127
-22.8036
-22.8789
-22.9396
-17.84
-18.1553
-18.4602
-18.7514
-19.0274
-19.2881
-19.5335
-19.7636
-19.9787
-20.1788
-20.3642
-20.5348
-20.6908
-20.8321
-20.9588
-21.0709
-21.1684
-21.2512
-21.3192
-21.3739
-16.6416
-16.9424
-17.2337
-17.5108
-17.7722
-18.018
-18.2489
-18.4648
-18.6662
-18.8534
-19.0264
-19.1854
-19.3306
-19.4618
-19.5792
-19.6827
-19.7724
-19.8484
-19.9109
-19.9589
-15.5532
-15.8419
-16.1216
-16.386
-16.6338
-16.866
-17.0833
-17.2861
-17.4748
-17.65
-17.8117
-17.9602
-18.0954
-18.2176
-18.3266
-18.4224
-18.5051
-18.5747
-18.6311
-18.6744
-14.5604
-14.8405
-15.111
-15.3635
-15.5984
-15.8177
-16.0221
-16.2124
-16.3893
-16.5533
-16.7046
-16.8434
-16.9697
-17.0835
-17.1849
-17.2737
-17.3501
-17.4139
-17.4652
-17.5041
-13.6452
-13.9242
-14.1896
-14.4306
-14.6529
-14.8597
-15.0519
-15.2305
-15.3963
-15.55
-15.6917
-15.8216
-15.9398
-16.0461
-16.1406
-16.2232
-16.2939
-16.3527
-16.3995
-16.4344
-12.7871
-13.0704
-13.337
-13.5687
-13.7789
-13.9741
-14.1551
-14.3231
-14.4792
-14.6239
-14.7574
-14.8798
-14.9911
-15.0912
-15.18
-15.2574
-15.3234
-15.378
-15.4212
-15.4531
-11.9997
-12.2734
-12.5408
-12.7676
-12.9677
-13.1515
-13.322
-13.4806
-13.6279
-13.7646
-13.8909
-14.0069
-14.1124
-14.2072
-14.2913
-14.3645
-14.4269
-14.4783
-14.5187
-14.5483
-11.409
-11.6598
-11.8876
-12.1044
-12.2928
-12.4587
-12.6128
-12.757
-12.891
-13.0152
-13.13
-13.2353
-13.3308
-13.4164
-13.4921
-13.5577
-13.6131
-13.6583
-13.6932
-13.7177
-6.00709
-6.49845
-7.03689
-7.61936
-8.25229
-8.94306
-9.69935
-10.5306
-11.449
-12.4703
-13.6148
-14.9094
-16.3897
-18.1017
-20.1058
-22.4813
-25.3095
-28.6126
-32.61
-38.606
-6.27773
-6.78263
-7.3316
-7.92614
-8.57284
-9.27881
-10.0518
-10.9016
-11.8406
-12.8847
-14.0547
-15.378
-16.8904
-18.6384
-20.6827
-23.1023
-25.9776
-29.3275
-33.3634
-39.3805
-6.54981
-7.06825
-7.62786
-8.2347
-8.89544
-9.61684
-10.4068
-11.2754
-12.2352
-13.3025
-14.4985
-15.8508
-17.3956
-19.18
-21.2646
-23.7284
-26.6503
-30.0459
-34.1186
-40.1522
-6.82282
-7.35474
-7.92508
-8.54444
-9.21943
-9.95648
-10.7637
-11.6512
-12.6321
-13.7229
-14.945
-16.3265
-17.904
-19.7249
-21.85
-24.3579
-27.3262
-30.7673
-34.8778
-40.9326
-7.09633
-7.64165
-8.22279
-8.85487
-9.54432
-10.2972
-11.1218
-12.0285
-13.0306
-14.145
-15.3934
-16.8043
-18.4147
-20.2722
-22.4379
-24.9899
-28.0044
-31.4911
-35.6402
-41.7193
-7.36997
-7.92856
-8.52057
-9.16557
-9.86966
-10.6385
-11.4806
-12.4067
-13.4302
-14.5684
-15.8433
-17.2837
-18.927
-20.8213
-23.0276
-25.6236
-28.6843
-32.2164
-36.4036
-42.5082
-7.64341
-8.21512
-8.81803
-9.47615
-10.1951
-10.9801
-11.8398
-12.7853
-13.8304
-14.9924
-16.2938
-17.7639
-19.4403
-21.3714
-23.6183
-26.2583
-29.365
-32.942
-37.1667
-43.2968
-7.91642
-8.50103
-9.11487
-9.78627
-10.5201
-11.3214
-12.1989
-13.1639
-14.2306
-15.4165
-16.7446
-18.2443
-19.9538
-21.9217
-24.2091
-26.893
-30.0453
-33.6667
-37.9281
-44.0837
-8.18883
-8.78609
-9.41084
-10.0956
-10.8446
-11.6621
-12.5574
-13.542
-14.6302
-15.8401
-17.1948
-18.7242
-20.4668
-22.4714
-24.7992
-27.5266
-30.7242
-34.3895
-38.6868
-44.8675
-8.4606
-9.0702
-9.70577
-10.4041
-11.1681
-12.0019
-12.9149
-13.9191
-15.0289
-16.2626
-17.6439
-19.2028
-20.9784
-23.0196
-25.3876
-28.1582
-31.4006
-35.1092
-39.4413
-45.6467
-8.73185
-9.35338
-9.99962
-10.7114
-11.4905
-12.3406
-13.2713
-14.2948
-15.426
-16.6835
-18.0912
-19.6796
-21.4879
-23.5654
-25.9734
-28.7868
-32.0733
-35.8244
-40.1904
-46.4197
-9.00287
-9.6358
-10.2924
-11.0177
-11.8117
-12.6778
-13.6259
-14.6687
-15.8211
-17.1022
-18.536
-20.1536
-21.9945
-24.1081
-26.5555
-29.4112
-32.7413
-36.5341
-40.9326
-47.1851
-9.27414
-9.91776
-10.5843
-11.3227
-12.1314
-13.0133
-13.9786
-15.0402
-16.2136
-17.5179
-18.9777
-20.6242
-22.4972
-24.6465
-27.133
-30.0304
-33.4033
-37.2369
-41.6667
-47.9416
-9.54639
-10.1997
-10.8755
-11.6266
-12.4495
-13.3467
-14.3288
-15.409
-16.6029
-17.9301
-19.4154
-21.0904
-22.9953
-25.1799
-27.7048
-30.6433
-34.0581
-37.9317
-42.3915
-48.6879
-9.82038
-10.4819
-11.1659
-11.929
-12.7656
-13.6776
-14.6759
-15.7742
-16.9883
-18.338
-19.8484
-21.5515
-23.4877
-25.707
-28.2699
-31.2486
-34.7045
-38.6171
-43.1056
-49.4229
-10.0971
-10.7646
-11.4552
-12.2295
-13.079
-14.0052
-15.0193
-16.1351
-17.3689
-18.7406
-20.2757
-22.0064
-23.9735
-26.2268
-28.8269
-31.8451
-35.3411
-39.2919
-43.8079
-50.1455
-10.3762
-11.0467
-11.7421
-12.5266
-13.3885
-14.3284
-15.3578
-16.4908
-17.7438
-19.1371
-20.6963
-22.4541
-24.4514
-26.7382
-29.3747
-32.4314
-35.9667
-39.9548
-44.4975
-50.8551
-10.6572
-11.3257
-12.024
-12.8186
-13.6929
-14.6462
-15.6905
-16.8403
-18.112
-19.5264
-21.1093
-22.8936
-24.9204
-27.2399
-29.912
-33.0062
-36.5795
-40.6039
-45.1731
-51.5517
-10.9327
-11.5933
-12.2948
-13.1019
-13.9898
-14.9568
-16.0159
-17.1822
-18.4724
-19.9074
-21.5134
-23.3236
-25.3793
-27.7306
-30.4373
-33.5679
-37.1779
-41.2376
-45.8336
-52.2368
-11.184
-11.8295
-12.5501
-13.3778
-14.28
-15.2599
-16.3335
-17.5159
-18.8241
-20.2791
-21.9076
-23.743
-25.8268
-28.2091
-30.9492
-34.1147
-37.7598
-41.8528
-46.4742
-52.9119
-1.5852
-1.83915
-2.18703
-2.57595
-2.99451
-3.44805
-3.9429
-4.48496
-5.08175
-5.74352
-6.48421
-7.32285
-8.28558
-9.40845
-10.7424
-12.3616
-14.3559
-16.7864
-19.9615
-25.3563
-1.73839
-2.00877
-2.37512
-2.76999
-3.19197
-3.65086
-4.15262
-4.70277
-5.30897
-5.98173
-6.73527
-7.58894
-8.56931
-9.71295
-11.0713
-12.7193
-14.7465
-17.2124
-20.4199
-25.8284
-1.88592
-2.18038
-2.55989
-2.96291
-3.39264
-3.85992
-4.37062
-4.93046
-5.54744
-6.23244
-7
-7.86985
-8.86903
-10.0346
-11.4187
-13.0963
-15.1572
-17.6586
-20.8975
-26.3147
-2.05575
-2.36104
-2.74876
-3.1605
-3.59943
-4.07626
-4.59699
-5.16764
-5.79654
-6.49487
-7.2775
-8.16459
-9.18363
-10.3723
-11.783
-13.4914
-15.5868
-18.125
-21.3987
-26.8336
-2.23689
-2.54928
-2.94484
-3.36555
-3.81398
-4.30079
-4.83221
-5.41448
-6.05617
-6.76874
-7.56741
-8.47271
-9.51263
-10.7253
-12.1638
-13.9041
-16.0353
-18.6117
-21.9229
-27.3819
-2.42351
-2.74452
-3.14843
-3.57827
-4.03648
-4.53375
-5.07644
-5.67101
-6.32626
-7.05391
-7.86949
-8.79395
-9.85573
-11.0935
-12.5609
-14.3342
-16.5024
-19.1183
-22.4683
-27.9544
-2.61714
-2.94767
-3.35983
-3.79882
-4.2671
-4.77524
-5.32974
-5.93723
-6.60671
-7.35018
-8.1835
-9.128
-10.2126
-11.4765
-12.9739
-14.7814
-16.9877
-19.6442
-23.0337
-28.5486
-2.81917
-3.15919
-3.5794
-4.02753
-4.50606
-5.02541
-5.59215
-6.21307
-6.89739
-7.65737
-8.50918
-9.47456
-10.5829
-11.8739
-13.4023
-15.2451
-17.4907
-20.1887
-23.6186
-29.1635
-3.02937
-3.37893
-3.80716
-4.26447
-4.75344
-5.28427
-5.86361
-6.49842
-7.19813
-7.97524
-8.84625
-9.83327
-10.9662
-12.2852
-13.8456
-15.7247
-18.0106
-20.7513
-24.2223
-29.798
-3.24715
-3.60657
-4.04291
-4.50951
-5.00909
-5.55167
-6.14395
-6.79308
-7.50868
-8.3035
-9.19437
-10.2038
-11.3621
-12.71
-14.3033
-16.2197
-18.547
-21.3311
-24.8438
-30.4511
-3.47207
-3.84175
-4.28634
-4.76236
-5.27276
-5.82736
-6.43293
-7.09679
-7.82876
-8.64184
-9.55318
-10.5857
-11.7701
-13.1478
-14.775
-16.7296
-19.0991
-21.9276
-25.4825
-31.1217
-3.70375
-4.08407
-4.53707
-5.02267
-5.54412
-6.11102
-6.73021
-7.40919
-8.15798
-8.98986
-9.92226
-10.9785
-12.1898
-13.5981
-15.2599
-17.2536
-19.6662
-22.5398
-26.1374
-31.8087
-3.94172
-4.33306
-4.79466
-5.29003
-5.82276
-6.40224
-7.03539
-7.72987
-8.49594
-9.3471
-10.3011
-11.3818
-12.6207
-14.0602
-15.7576
-17.7912
-20.2476
-23.167
-26.8076
-32.5111
-4.18545
-4.58819
-5.0586
-5.56397
-6.10824
-6.70059
-7.34802
-8.05838
-8.84215
-9.71309
-10.6893
-11.7949
-13.0621
-14.5337
-16.2673
-18.3416
-20.8426
-23.8083
-27.4923
-33.2282
-4.43441
-4.84891
-5.32835
-5.84395
-6.40003
-7.00556
-7.6676
-8.39421
-9.1961
-10.0873
-11.0862
-12.2174
-13.5134
-15.0177
-16.7883
-18.904
-21.4503
-24.4629
-28.1906
-33.959
-4.68804
-5.11465
-5.60336
-6.12943
-6.69761
-7.31661
-7.99358
-8.73681
-9.55722
-10.4691
-11.4912
-12.6485
-13.974
-15.5116
-17.3199
-19.4777
-22.0698
-25.13
-28.9017
-34.7026
-4.94578
-5.38482
-5.88304
-6.41985
-7.00041
-7.63318
-8.32542
-9.08561
-9.92492
-10.8579
-11.9037
-13.0876
-14.4431
-16.0147
-17.8612
-20.0617
-22.7004
-25.8086
-29.6248
-35.4586
-5.20709
-5.65886
-6.16681
-6.71463
-7.30786
-7.95471
-8.66252
-9.44002
-10.2986
-11.2531
-12.323
-13.534
-14.9201
-16.5262
-18.4115
-20.6552
-23.3409
-26.4976
-30.359
-36.2266
-5.47142
-5.93617
-6.45408
-7.01318
-7.61937
-8.28059
-9.00428
-9.79941
-10.6776
-11.6541
-12.7485
-13.987
-15.4041
-17.0451
-18.9697
-21.2572
-23.9902
-27.1958
-31.1032
-37.0071
-5.73825
-6.21623
-6.74431
-7.31497
-7.9344
-8.61027
-9.35013
-10.1632
-11.0614
-12.0601
-13.1794
-14.4458
-15.8944
-17.5708
-19.5351
-21.8665
-24.6472
-27.9015
-31.8547
-37.801
-1.33742
-1.13069
-0.976907
-0.840172
-0.720097
-0.614143
-0.521195
-0.44046
-0.371437
-0.313766
-0.267182
-0.231473
-0.206469
-0.192034
-0.18803
-0.194244
-0.21046
-0.236807
-0.273472
-0.320227
-1.66723
-1.48378
-1.32602
-1.18406
-1.05915
-0.948727
-0.851811
-0.767602
-0.695586
-0.635386
-0.58672
-0.549366
-0.523141
-0.507894
-0.503481
-0.509728
-0.526479
-0.553748
-0.59163
-0.639786
-1.9997
-1.82414
-1.66639
-1.52328
-1.39625
-1.28364
-1.18477
-1.09894
-1.02569
-0.96465
-0.915552
-0.878171
-0.852321
-0.837846
-0.834598
-0.842423
-0.861202
-0.890884
-0.931324
-0.982784
-2.38337
-2.20614
-2.04535
-1.89928
-1.76867
-1.65256
-1.55047
-1.46185
-1.3863
-1.32346
-1.27307
-1.2349
-1.20877
-1.19451
-1.19196
-1.20098
-1.22144
-1.25328
-1.29636
-1.35073
-2.80202
-2.62233
-2.45758
-2.30756
-2.17273
-2.05256
-1.94673
-1.85482
-1.77647
-1.71138
-1.6593
-1.62
-1.59328
-1.57898
-1.57693
-1.58699
-1.60904
-1.64296
-1.68863
-1.74605
-3.25321
-3.07029
-2.90136
-2.74701
-2.60771
-2.48328
-2.37351
-2.2781
-2.19677
-2.12925
-2.07531
-2.03474
-2.00734
-1.99294
-1.99137
-2.00249
-2.02617
-2.06227
-2.11066
-2.1713
-3.74309
-3.55545
-3.38159
-3.22231
-3.07812
-2.94902
-2.83496
-2.73572
-2.6511
-2.58087
-2.52483
-2.48276
-2.4545
-2.43987
-2.43869
-2.45083
-2.47614
-2.51447
-2.56568
-2.62975
-4.27847
-4.0846
-3.90475
-3.73967
-3.58987
-3.4555
-3.33659
-3.23301
-3.14463
-3.07126
-3.01273
-2.96884
-2.93942
-2.92431
-2.92333
-2.93635
-2.9632
-3.00374
-3.05781
-3.12537
-4.86703
-4.6655
-4.47841
-4.30645
-4.15014
-4.00969
-3.88519
-3.7766
-3.68384
-3.60676
-3.54521
-3.49902
-3.46804
-3.45209
-3.45102
-3.46467
-3.4929
-3.53552
-3.59239
-3.66349
-5.51891
-5.30815
-5.1124
-4.93229
-4.76832
-4.62075
-4.48972
-4.37525
-4.27729
-4.19575
-4.1305
-4.08139
-4.04827
-4.03098
-4.02938
-4.0433
-4.07259
-4.11706
-4.17657
-4.2511
-6.24786
-6.02606
-5.81998
-5.63017
-5.45711
-5.30111
-5.16233
-5.04084
-4.93664
-4.84965
-4.77978
-4.7269
-4.69087
-4.67155
-4.66879
-4.68242
-4.71229
-4.75821
-4.82001
-4.89774
-7.07258
-6.83763
-6.61921
-6.41779
-6.23389
-6.06779
-5.91971
-5.78974
-5.67791
-5.58419
-5.50849
-5.45071
-5.41073
-5.3884
-5.38359
-5.39612
-5.42585
-5.47256
-5.53609
-5.61653
-8.01883
-7.76818
-7.53497
-7.31963
-7.12265
-6.94437
-6.785
-6.64468
-6.52344
-6.42129
-6.33817
-6.27399
-6.22864
-6.20198
-6.19387
-6.20417
-6.23269
-6.27922
-6.34359
-6.42594
-9.12214
-8.85272
-8.60173
-8.36958
-8.15679
-7.96368
-7.79051
-7.63743
-7.5045
-7.39174
-7.29911
-7.22654
-7.17393
-7.14115
-7.12806
-7.13453
-7.16035
-7.2053
-7.26919
-7.35222
-10.4328
-10.1409
-9.8685
-9.61601
-9.384
-9.1728
-8.98269
-8.81383
-8.6663
-8.54014
-8.43532
-8.35177
-8.28942
-8.24815
-8.22781
-8.22827
-8.24933
-8.29072
-8.35224
-8.43415
-12.0245
-11.7057
-11.4075
-11.1305
-10.8752
-10.642
-10.4312
-10.2428
-10.0771
-9.93409
-9.81371
-9.71594
-9.64069
-9.58785
-9.5573
-9.54889
-9.56243
-9.59761
-9.65421
-9.73249
-13.9863
-13.6359
-13.3074
-13.0013
-12.7183
-12.4588
-12.223
-12.0112
-11.8234
-11.6597
-11.52
-11.4043
-11.3126
-11.2447
-11.2006
-11.1801
-11.183
-11.209
-11.2579
-11.3296
-16.3801
-15.9941
-15.631
-15.2918
-14.9774
-14.6879
-14.4237
-14.185
-13.9717
-13.7839
-13.6216
-13.4849
-13.3736
-13.2877
-13.2271
-13.1916
-13.1812
-13.1956
-13.2345
-13.2972
-19.5165
-19.0907
-18.6887
-18.313
-17.9641
-17.6419
-17.3464
-17.0776
-16.8355
-16.6201
-16.4315
-16.2695
-16.1342
-16.0256
-15.9434
-15.8876
-15.8581
-15.8553
-15.8788
-15.9267
-24.8532
-24.3824
-23.9459
-23.5408
-23.1649
-22.8173
-22.4975
-22.2054
-21.941
-21.7042
-21.4952
-21.3139
-21.1604
-21.0349
-20.9374
-20.8679
-20.8273
-20.8178
-20.8406
-20.8857
-0.376988
-0.443431
-0.519519
-0.60517
-0.700299
-0.804801
-0.918545
-1.04137
-1.17306
-1.31334
-1.46184
-1.61805
-1.78114
-1.94992
-2.12271
-2.29724
-2.46903
-2.6283
-2.75964
-2.88949
-0.698424
-0.767147
-0.845876
-0.934501
-1.03292
-1.141
-1.25859
-1.38551
-1.52152
-1.6663
-1.81946
-1.98044
-2.14847
-2.32237
-2.50054
-2.68132
-2.86295
-3.03769
-3.19035
-3.36268
-1.04493
-1.1175
-1.20045
-1.29364
-1.39696
-1.51026
-1.63338
-1.76609
-1.90814
-2.05921
-2.21885
-2.38652
-2.56147
-2.74267
-2.92876
-3.11854
-3.31105
-3.50192
-3.68542
-3.8915
-1.4163
-1.49273
-1.57995
-1.67782
-1.78619
-1.90491
-2.03378
-2.17258
-2.32102
-2.47876
-2.64536
-2.82026
-3.00276
-3.19196
-3.38677
-3.58633
-3.78983
-3.99497
-4.20224
-4.43202
-1.81514
-1.89558
-1.98728
-2.09006
-2.20378
-2.32826
-2.46328
-2.60861
-2.76394
-2.92893
-3.10312
-3.28599
-3.47689
-3.67504
-3.87961
-4.09001
-4.30562
-4.52539
-4.75197
-4.99852
-2.24423
-2.32896
-2.42546
-2.53354
-2.65304
-2.78377
-2.92549
-3.07795
-3.24085
-3.41383
-3.59645
-3.78822
-3.98856
-4.1968
-4.41235
-4.63476
-4.86367
-5.09884
-5.34303
-5.60409
-2.70671
-2.79597
-2.89759
-3.01135
-3.13707
-3.27454
-3.42352
-3.58376
-3.75494
-3.93672
-4.12867
-4.33033
-4.5412
-4.76072
-4.98842
-5.22401
-5.46729
-5.71846
-5.97973
-6.25554
-3.20638
-3.30053
-3.40757
-3.52736
-3.65971
-3.80441
-3.96123
-4.12988
-4.31008
-4.50147
-4.70366
-4.91623
-5.13872
-5.37068
-5.61174
-5.86166
-6.12037
-6.38818
-6.66667
-6.95831
-3.7488
-3.84785
-3.96053
-4.08663
-4.22598
-4.37837
-4.54355
-4.72125
-4.91117
-5.11298
-5.32632
-5.55079
-5.78599
-6.03153
-6.2871
-6.55252
-6.82773
-7.11302
-7.40938
-7.71821
-4.34069
-4.44469
-4.5632
-4.6958
-4.84244
-5.00289
-5.1769
-5.3642
-5.56451
-5.77749
-6.00282
-6.24013
-6.48906
-6.74926
-7.02047
-7.30251
-7.59532
-7.89905
-8.21428
-8.5418
-4.99142
-5.10032
-5.22445
-5.36376
-5.51786
-5.68662
-5.86981
-6.06715
-6.27837
-6.50316
-6.74121
-6.99218
-7.25576
-7.53161
-7.81949
-8.11921
-8.43068
-8.75391
-9.08916
-9.4369
-5.71392
-5.82741
-5.95707
-6.10274
-6.26431
-6.44142
-6.63392
-6.84155
-7.06404
-7.30108
-7.55241
-7.81771
-8.09666
-8.38898
-8.69441
-9.01275
-9.34385
-9.6876
-10.044
-10.4134
-6.52634
-6.64378
-6.77845
-6.93007
-7.09857
-7.28402
-7.48575
-7.70354
-7.93731
-8.18678
-8.45166
-8.73165
-9.02646
-9.33579
-9.65941
-9.99708
-10.3486
-10.7137
-11.0923
-11.4847
-7.4545
-7.57481
-7.71352
-7.87034
-8.04504
-8.23762
-8.44886
-8.67601
-8.92071
-9.1823
-9.46055
-9.75519
-10.0659
-10.3925
-10.7346
-11.092
-11.4644
-11.8514
-12.2529
-12.6691
-8.5366
-8.6581
-8.79923
-8.95976
-9.13953
-9.33807
-9.5549
-9.79228
-10.0476
-10.3203
-10.6112
-10.9199
-11.2463
-11.5898
-11.9502
-12.3272
-12.7205
-13.1296
-13.5542
-13.9946
-9.83259
-9.95272
-10.0938
-10.2558
-10.4384
-10.6415
-10.8643
-11.1072
-11.3701
-11.6537
-11.9563
-12.2785
-12.6196
-12.9789
-13.3563
-13.7518
-14.165
-14.5956
-15.0427
-15.5068
-11.424
-11.5396
-11.6778
-11.8385
-12.0214
-12.2261
-12.4525
-12.7003
-12.9694
-13.2601
-13.5729
-13.9067
-14.2597
-14.6313
-15.0225
-15.4339
-15.8652
-16.3154
-16.7835
-17.2695
-13.3817
-13.4897
-13.622
-13.778
-13.9568
-14.1585
-14.3834
-14.6314
-14.9021
-15.1951
-15.5096
-15.846
-16.206
-16.59
-16.9964
-17.4237
-17.8716
-18.3398
-18.8273
-19.3331
-15.9969
-16.0888
-16.2048
-16.3463
-16.5146
-16.709
-16.9286
-17.1731
-17.4422
-17.7353
-18.0521
-18.392
-18.7555
-19.1429
-19.5543
-19.9889
-20.4467
-20.9282
-21.4333
-21.9572
-20.9275
-20.9998
-21.1031
-21.235
-21.3944
-21.5805
-21.7929
-22.0312
-22.2951
-22.5841
-22.8982
-23.2373
-23.6015
-23.991
-24.4061
-24.8466
-25.3137
-25.8112
-26.3418
-26.8876
-27.4044
-22.4919
-19.8568
-17.7735
-15.9877
-14.4506
-13.0999
-11.8907
-10.7958
-9.79705
-8.88151
-8.03944
-7.26322
-6.54663
-5.88447
-5.27223
-4.70465
-4.17614
-3.6952
-3.2908
-27.9491
-23.0427
-20.3961
-18.2925
-16.4829
-14.9202
-13.5434
-12.3087
-11.1895
-10.1681
-9.23175
-8.37098
-7.57826
-6.84754
-6.17378
-5.55255
-4.97913
-4.45113
-3.98168
-3.57919
-28.5224
-23.6124
-20.9526
-18.8277
-16.9929
-15.4033
-13.9995
-12.7383
-11.594
-10.5492
-9.59159
-8.71161
-7.90191
-7.15642
-6.4701
-5.83842
-5.25678
-4.72288
-4.24629
-3.8243
-29.1201
-24.2017
-21.5263
-19.3786
-17.5171
-15.8994
-14.4673
-13.1787
-12.0085
-10.9396
-9.95993
-9.06002
-8.23246
-7.47111
-6.77069
-6.12642
-5.53342
-4.98876
-4.49917
-4.05844
-29.739
-24.8099
-22.1167
-19.9447
-18.055
-16.4076
-14.9462
-13.6292
-12.4322
-11.3384
-10.3359
-9.41532
-8.56913
-7.791
-7.07542
-6.41731
-5.81148
-5.25441
-4.75103
-4.29415
-30.3778
-25.4375
-22.7217
-20.525
-18.6056
-16.9274
-15.4354
-14.0891
-12.8643
-11.7449
-10.7188
-9.77685
-8.91132
-8.11571
-7.38424
-6.71156
-6.09225
-5.52246
-5.0058
-4.53483
-31.0352
-26.083
-23.341
-21.1185
-19.1683
-17.4579
-15.9342
-14.5575
-13.3041
-12.1583
-11.1081
-10.1441
-9.25873
-8.44516
-7.69739
-7.00985
-6.37697
-5.79464
-5.2654
-4.78174
-31.7099
-26.7444
-23.9745
-21.7244
-19.7421
-17.9983
-16.4418
-15.0337
-13.751
-12.578
-11.5031
-10.5167
-9.61104
-8.7792
-8.01493
-7.31245
-6.66606
-6.07148
-5.53023
-5.0348
-32.4005
-27.4203
-24.6212
-22.3418
-20.3261
-18.5476
-16.9573
-15.5171
-14.2042
-13.0035
-11.9033
-10.8941
-9.96791
-9.11761
-8.33676
-7.61936
-6.95959
-6.35299
-5.80013
-5.29352
-33.1059
-28.1094
-25.2803
-22.9699
-20.9193
-19.1052
-17.48
-16.0067
-14.663
-13.4341
-12.3082
-11.2759
-10.3289
-9.46006
-8.66259
-7.9303
-7.25727
-6.6388
-6.0746
-5.55717
-33.8247
-28.8107
-25.9505
-23.6076
-21.5209
-19.6699
-18.009
-16.5018
-15.1267
-13.869
-12.7171
-11.6614
-10.6936
-9.80608
-8.99198
-8.24486
-7.55862
-6.92839
-6.35298
-5.82496
-34.556
-29.523
-26.6308
-24.254
-22.1299
-20.2409
-18.5433
-17.0015
-15.5944
-14.3076
-13.1294
-12.0502
-11.0614
-10.1551
-9.32441
-8.56248
-7.86309
-7.22112
-6.63456
-6.09609
-35.2984
-30.2452
-27.32
-24.9078
-22.7451
-20.8172
-19.0821
-17.505
-16.0655
-14.7491
-13.5444
-12.4415
-11.4316
-10.5066
-9.65928
-8.88256
-8.17004
-7.51632
-6.91863
-6.3698
-36.0511
-30.9762
-28.0169
-25.568
-23.3655
-21.3978
-19.6243
-18.0114
-16.539
-15.1928
-13.9614
-12.8346
-11.8036
-10.8599
-9.99595
-9.20447
-8.47881
-7.81331
-7.20448
-6.64536
-36.8127
-31.7147
-28.7202
-26.2333
-23.9901
-21.9815
-20.169
-18.5198
-17.014
-15.6378
-14.3795
-13.2289
-12.1767
-11.2143
-10.3338
-9.52753
-8.78873
-8.11144
-7.49143
-6.92209
-37.5822
-32.4593
-29.4287
-26.9026
-24.6175
-22.5673
-20.7152
-19.0291
-17.4897
-16.0833
-14.798
-13.6236
-12.5502
-11.5692
-10.6721
-9.85109
-9.09917
-8.41003
-7.77882
-7.19933
-38.3591
-33.209
-30.1411
-27.5746
-25.2466
-23.154
-21.2617
-19.5384
-17.9652
-16.5284
-15.2162
-14.0178
-12.9234
-11.9238
-11.0101
-10.1745
-9.40946
-8.70847
-8.06603
-7.47649
-39.1446
-33.9632
-30.8557
-28.2477
-25.8759
-23.7403
-21.8073
-20.0465
-18.4394
-16.9722
-15.6331
-14.4109
-13.2955
-12.2774
-11.3473
-10.4971
-9.71897
-9.00612
-8.35246
-7.75299
-39.9392
-34.7208
-31.5708
-28.9201
-26.5041
-24.325
-22.3511
-20.5526
-18.9115
-17.4139
-16.0479
-14.8021
-13.6659
-12.6293
-11.6829
-10.8182
-10.0271
-9.30238
-8.63754
-8.02832
-40.73
-35.4767
-32.2846
-29.5909
-27.1305
-24.9077
-22.8925
-21.0562
-19.381
-17.8532
-16.4603
-15.1909
-14.034
-12.9791
-12.0166
-11.1374
-10.3333
-9.59681
-8.9208
-8.30204
-6.78076
-4.6747
-3.31443
-2.26886
-1.53428
-0.99476
-0.607221
-0.332082
-0.141025
-0.0123068
0.0706971
0.120619
0.147042
0.157126
0.156182
0.148083
0.135644
0.120863
0.105152
0.0894762
0.0744817
0.0605791
0.0480047
0.0368783
0.027221
0.0190125
0.0121591
0.00659603
0.00215375
-0.001197
-0.003719
-0.00530486
-0.00640207
-0.00660058
-0.00673475
-0.00580981
-0.00540262
-0.00348741
-0.00294476
3.81876e-05
-7.03645
-4.85709
-3.4607
-2.38403
-1.62534
-1.0684
-0.667291
-0.381706
-0.182406
-0.0470645
0.041361
0.0957831
0.125988
0.139274
0.14106
0.135295
0.124855
0.111788
0.0975438
0.0831228
0.0691985
0.0562064
0.0444038