/*--------------------------------*- C++ -*----------------------------------*\
| =========                 |                                                 |
| \\      /  F ield         | OpenFOAM: The Open Source CFD Toolbox           |
|  \\    /   O peration     | Version:  v1912                                 |
|   \\  /    A nd           | Website:  www.openfoam.com                      |
|    \\/     M anipulation  |                                                 |
\*---------------------------------------------------------------------------*/
FoamFile
{
    version     2.0;
    format      ascii;
    class       volVectorField;
    location    "66.5";
    object      U;
}
// * * * * * * * * * * * * * * * * * * * * * * * * * * * * * * * * * * * * * //

dimensions      [0 1 -1 0 0 0 0];


internalField   nonuniform List<vector> 
9600
(
(0.456545 -9.36162 -1.54173e-19)
(0.15977 -8.63235 0)
(0.242037 -8.15954 -9.05383e-20)
(0.32087 -7.84049 0)
(0.388265 -7.60547 0)
(0.456745 -7.41093 -3.18594e-20)
(0.522328 -7.23281 -5.50617e-22)
(0.581873 -7.05886 2.66343e-20)
(0.634607 -6.88374 0)
(0.680559 -6.70602 -4.51622e-20)
(0.720121 -6.52631 0)
(0.753918 -6.34616 -1.83088e-21)
(0.78269 -6.16738 -2.60773e-21)
(0.807192 -5.99167 -3.15614e-20)
(0.82815 -5.82041 2.66197e-20)
(0.846219 -5.65458 -2.6153e-20)
(0.86195 -5.49466 2.32868e-20)
(0.87589 -5.34056 0)
(0.88882 -5.19153 -1.85252e-20)
(0.900471 -5.04604 2.03064e-20)
(0.824479 -9.35124 -3.08447e-19)
(0.502231 -8.66048 1.17573e-20)
(0.5677 -8.2039 1.86497e-19)
(0.635036 -7.89436 -1.5897e-19)
(0.693428 -7.66394 1.56776e-19)
(0.753874 -7.4699 0)
(0.811587 -7.28947 6.07687e-20)
(0.863091 -7.11151 -6.06303e-20)
(0.907536 -6.9315 -1.0517e-19)
(0.945011 -6.74857 1.3303e-19)
(0.976018 -6.56376 -8.63717e-20)
(1.00131 -6.37885 -3.52658e-20)
(1.02173 -6.1958 7.11825e-20)
(1.03812 -6.01639 0)
(1.05129 -5.84201 0)
(1.06191 -5.67364 9.97922e-20)
(1.07055 -5.51172 -1.69195e-19)
(1.07778 -5.35612 0)
(1.08444 -5.20595 0)
(1.09003 -5.05959 -7.8213e-20)
(1.19276 -9.32733 6.37295e-19)
(0.846965 -8.67575 0)
(0.896923 -8.23558 -3.77375e-19)
(0.9535 -7.93565 -3.42063e-19)
(1.00319 -7.70982 0)
(1.05558 -7.51622 5.46695e-19)
(1.1052 -7.3335 -5.16136e-19)
(1.14831 -7.15164 1.0118e-19)
(1.18406 -6.96693 -2.25246e-19)
(1.21264 -6.77908 -3.74619e-19)
(1.23469 -6.5895 5.11414e-19)
(1.25112 -6.40022 -3.1621e-19)
(1.26287 -6.21332 -1.41723e-19)
(1.27091 -6.03063 0)
(1.27606 -5.85357 5.52968e-21)
(1.27907 -5.68308 1.05187e-19)
(1.2805 -5.51957 4.54737e-20)
(1.28093 -5.36286 0)
(1.28128 -5.21193 8.24355e-20)
(1.28069 -5.06511 8.44877e-20)
(1.56027 -9.28951 -8.62187e-19)
(1.19338 -8.67787 -4.04052e-19)
(1.22915 -8.25438 3.91902e-19)
(1.2757 -7.96406 6.73555e-19)
(1.31698 -7.74273 -3.26917e-19)
(1.36127 -7.54953 5.80675e-21)
(1.40254 -7.36455 2.5388e-19)
(1.4369 -7.17893 2.29964e-19)
(1.46355 -6.98976 4.21197e-19)
(1.48284 -6.79731 0)
(1.49557 -6.60335 1.62281e-19)
(1.5028 -6.41013 -1.72217e-19)
(1.50561 -6.21983 1.03542e-20)
(1.50504 -6.03432 2.71498e-19)
(1.50201 -5.85501 2.32772e-19)
(1.49727 -5.68282 -3.28598e-19)
(1.49139 -5.51814 1.08217e-19)
(1.48496 -5.36071 -1.76222e-19)
(1.47898 -5.20943 1.75389e-19)
(1.47215 -5.06258 -8.45316e-20)
(1.92671 -9.23772 4.34825e-19)
(1.54119 -8.66671 0)
(1.56397 -8.26002 3.84886e-19)
(1.60113 -7.97924 0)
(1.63423 -7.76231 0)
(1.67034 -7.56948 -3.00487e-19)
(1.703 -7.3823 -5.3765e-19)
(1.72825 -7.1931 -4.55889e-19)
(1.74541 -6.99974 1.84514e-20)
(1.75501 -6.80305 -1.97014e-19)
(1.75807 -6.60513 0)
(1.75579 -6.40843 -1.62693e-19)
(1.74941 -6.21521 -2.93087e-19)
(1.74004 -6.02735 2.57755e-19)
(1.72867 -5.84625 -7.32536e-19)
(1.71607 -5.67281 1.18549e-19)
(1.7028 -5.50737 9.39725e-20)
(1.6895 -5.34964 -1.93773e-19)
(1.67718 -5.19838 -8.46705e-20)
(1.66408 -5.05194 2.52486e-19)
(2.29154 -9.17188 4.19603e-19)
(1.8899 -8.64202 4.1616e-19)
(1.90087 -8.25221 0)
(1.92922 -7.98088 0)
(1.95433 -7.76824 -6.24672e-19)
(1.98217 -7.57574 3.41394e-19)
(2.00593 -7.38646 8.21668e-19)
(2.02171 -7.19388 0)
(2.02899 -6.99667 2.17155e-19)
(2.02854 -6.79614 1.97014e-19)
(2.02159 -6.59473 -3.48086e-19)
(2.00953 -6.39503 5.04784e-19)
(1.99373 -6.19938 1.48132e-19)
(1.97539 -6.00967 0)
(1.95555 -5.82725 1.23321e-19)
(1.935 -5.653 5.53603e-19)
(1.91432 -5.48723 -3.29876e-19)
(1.89413 -5.32959 3.70695e-19)
(1.87552 -5.17876 -7.04914e-19)
(1.85615 -5.03317 8.14906e-19)
(2.65424 -9.09195 4.26757e-19)
(2.23899 -8.6036 -2.2598e-18)
(2.23931 -8.23069 0)
(2.2594 -7.96866 0)
(2.27667 -7.7602 0)
(2.2961 -7.56803 -6.05999e-19)
(2.31068 -7.37678 0)
(2.31661 -7.18108 -9.714e-19)
(2.31364 -6.98036 8.96043e-19)
(2.30279 -6.77644 -8.32237e-19)
(2.28553 -6.57202 0)
(2.26344 -6.36985 0)
(2.23803 -6.1723 0)
(2.21058 -5.98123 -2.81631e-19)
(2.18217 -5.79798 0)
(2.15362 -5.62338 0)
(2.12549 -5.45771 -4.1341e-19)
(2.09844 -5.30057 4.06188e-19)
(2.07359 -5.15054 0)
(2.04797 -5.00627 0)
(3.01424 -8.99794 -1.38833e-18)
(2.58792 -8.55129 8.99679e-19)
(2.5787 -8.19521 0)
(2.59105 -7.94232 0)
(2.6006 -7.73793 0)
(2.61146 -7.54611 5.76402e-19)
(2.61655 -7.35304 -5.78159e-19)
(2.61228 -7.15451 -8.89979e-21)
(2.5987 -6.95069 -8.97192e-19)
(2.57712 -6.74385 8.40069e-19)
(2.54928 -6.53695 -3.79001e-19)
(2.51695 -6.33285 6.59066e-19)
(2.48176 -6.13393 -4.64229e-20)
(2.44508 -5.94204 -5.96243e-19)
(2.40803 -5.75845 -5.02562e-19)
(2.37144 -5.58395 4.93752e-19)
(2.33586 -5.4188 0)
(2.302 -5.26257 0)
(2.27098 -5.11374 3.57333e-19)
(2.23917 -4.97124 -3.93228e-19)
(3.371 -8.88989 9.27918e-19)
(2.93613 -8.48495 8.83925e-19)
(2.91846 -8.14556 -1.67545e-18)
(2.92353 -7.90161 7.91445e-19)
(2.92543 -7.70119 0)
(2.92755 -7.50975 6.16783e-19)
(2.92285 -7.31506 -5.41495e-19)
(2.90803 -7.11404 1.53034e-18)
(2.8835 -6.90756 -2.3701e-20)
(2.8509 -6.69831 0)
(2.81223 -6.48948 7.64693e-19)
(2.76946 -6.28401 0)
(2.72436 -6.08428 0)
(2.67836 -5.8921 -2.72777e-19)
(2.63263 -5.70867 5.50152e-19)
(2.58798 -5.53473 0)
(2.54498 -5.37054 4.31563e-19)
(2.50435 -5.2156 1.79674e-19)
(2.46725 -5.06837 -3.89817e-19)
(2.42936 -4.92811 3.78523e-19)
(3.72395 -8.76784 -9.55758e-19)
(3.28301 -8.40446 8.98352e-19)
(3.25796 -8.08155 -2.55859e-18)
(3.25618 -7.84634 8.04581e-19)
(3.25048 -7.64978 0)
(3.24368 -7.45879 -1.24494e-18)
(3.22888 -7.26272 5.98063e-19)
(3.20317 -7.05957 0)
(3.16736 -6.85089 -4.74873e-19)
(3.12346 -6.63977 -8.23686e-19)
(3.07375 -6.42959 -7.17783e-19)
(3.02039 -6.22333 5.3464e-20)
(2.96527 -6.02337 6.71345e-19)
(2.9099 -5.83143 2.72552e-19)
(2.85545 -5.64867 -3.79583e-20)
(2.80276 -5.47576 -5.13255e-19)
(2.75235 -5.31294 -2.29574e-19)
(2.70502 -5.15971 -2.06979e-19)
(2.66196 -5.01445 5.52161e-19)
(2.6181 -4.87691 -8.22765e-19)
(4.07255 -8.63188 9.5576e-19)
(3.62798 -8.30977 -4.66563e-20)
(3.59655 -8.00305 8.22487e-19)
(3.58831 -7.77632 0)
(3.57504 -7.58353 -6.81004e-19)
(3.55911 -7.3931 1.30857e-18)
(3.5339 -7.1959 -1.11864e-18)
(3.49698 -6.99103 1.10082e-18)
(3.4496 -6.78066 -4.46091e-19)
(3.39416 -6.56824 9.05546e-19)
(3.33322 -6.35729 3.92173e-19)
(3.26915 -6.15085 0)
(3.20394 -5.95124 0)
(3.13915 -5.7601 -2.82611e-19)
(3.07598 -5.5785 3.83769e-20)
(3.01525 -5.40708 1.01074e-18)
(2.95749 -5.24607 -2.50063e-19)
(2.90354 -5.09493 8.25968e-19)
(2.85462 -4.95203 1.4458e-19)
(2.80493 -4.81767 -8.40314e-19)
(4.41622 -8.48213 -2.94095e-18)
(3.97043 -8.20083 -9.87284e-19)
(3.9336 -7.90994 -2.63275e-18)
(3.91925 -7.69144 -1.60169e-18)
(3.8984 -7.50234 -7.59759e-19)
(3.87312 -7.31257 -7.42568e-19)
(3.83721 -7.11455 -2.42423e-18)
(3.78877 -6.9084 -4.90879e-20)
(3.72955 -6.69688 -1.9481e-18)
(3.66235 -6.48374 3.02297e-20)
(3.59004 -6.27264 -8.08891e-19)
(3.51515 -6.06662 -7.37117e-19)
(3.43979 -5.86793 6.72909e-19)
(3.36558 -5.67815 -6.15408e-19)
(3.2937 -5.49823 -5.63832e-19)
(3.22496 -5.32877 -5.17485e-19)
(3.15989 -5.16997 -1.38953e-18)
(3.09938 -5.0213 4.94345e-19)
(3.04472 -4.88113 1.19976e-18)
(2.98937 -4.75043 -1.2769e-18)
(4.75443 -8.31871 3.95582e-18)
(4.30976 -8.07764 4.86001e-18)
(4.26845 -7.80215 8.3491e-19)
(4.24828 -7.5916 4.00047e-18)
(4.21982 -7.40611 -7.84107e-19)
(4.18498 -7.21716 3.9182e-18)
(4.13808 -7.01866 1.14624e-18)
(4.07783 -6.81169 3.21796e-18)
(4.00653 -6.59957 -9.83629e-19)
(3.9274 -6.38632 2.72354e-18)
(3.84358 -6.1757 1.62931e-18)
(3.75781 -5.9707 1.4849e-18)
(3.67228 -5.77354 -2.01043e-18)
(3.58864 -5.58565 1.88335e-18)
(3.50808 -5.40793 1.13636e-18)
(3.43137 -5.24087 1.04317e-18)
(3.35904 -5.08471 9.59248e-19)
(3.29204 -4.9389 7.36904e-21)
(3.23175 -4.80182 8.14318e-19)
(3.17096 -4.67524 8.47459e-19)
(5.08666 -8.1418 -2.93764e-18)
(4.64539 -7.94023 1.0827e-18)
(4.60044 -7.67965 2.67862e-18)
(4.57471 -7.47675 -3.2635e-18)
(4.53857 -7.29482 7.54122e-19)
(4.49395 -7.10687 -2.62141e-18)
(4.43578 -6.90824 1.28482e-18)
(4.36346 -6.70095 -2.15317e-18)
(4.27987 -6.48882 4.90507e-20)
(4.18866 -6.27607 1.19568e-20)
(4.09325 -6.06654 -1.65181e-18)
(3.99656 -5.86319 -7.47779e-19)
(3.90086 -5.66812 1.37504e-18)
(3.80781 -5.48268 8.76528e-21)
(3.71859 -5.30764 -3.72048e-20)
(3.63395 -5.14346 -1.08877e-18)
(3.55438 -4.99035 -4.83511e-19)
(3.48094 -4.84776 -2.71585e-20)
(3.41513 -4.71414 -8.4868e-19)
(3.34912 -4.59222 -4.2798e-19)
(5.41238 -7.95158 0)
(4.97671 -7.78866 -2.00059e-18)
(4.92891 -7.54243 2.37619e-20)
(4.89783 -7.34687 3.25907e-18)
(4.85393 -7.16847 1.36419e-18)
(4.7993 -6.98172 -1.41998e-18)
(4.7296 -6.78337 -1.22334e-18)
(4.64499 -6.57628 0)
(4.54894 -6.36472 -9.7387e-19)
(4.44552 -6.1531 9.29453e-19)
(4.33847 -5.94528 -3.90843e-20)
(4.23085 -5.74418 0)
(4.12498 -5.55177 -6.92226e-19)
(4.02255 -5.3693 5.99633e-19)
(3.9247 -5.19743 5.00983e-19)
(3.83213 -5.03656 -6.04741e-19)
(3.74533 -4.88687 -5.24653e-19)
(3.66545 -4.74786 9.1112e-19)
(3.59412 -4.61809 -8.40869e-19)
(3.523 -4.50143 4.42594e-19)
(5.73114 -7.74822 3.03516e-18)
(5.30316 -7.62299 -2.06046e-18)
(5.2532 -7.39051 -1.7586e-18)
(5.21693 -7.20198 8.18824e-19)
(5.16516 -7.02711 -1.58858e-18)
(5.1003 -6.84181 0)
(5.01884 -6.64414 0)
(4.92174 -6.4378 0)
(4.81308 -6.22741 -4.44886e-20)
(4.6974 -6.01755 -1.86532e-18)
(4.57869 -5.81206 8.80983e-19)
(4.46016 -5.61378 7.45132e-19)
(4.34418 -5.42458 6.30589e-19)
(4.23241 -5.24558 -2.58762e-18)
(4.12595 -5.07734 1.22677e-18)
(4.02545 -4.92017 0)
(3.93138 -4.77426 -3.04423e-20)
(3.84494 -4.63915 -1.41314e-18)
(3.76791 -4.51358 -5.69937e-21)
(3.69166 -4.40252 -4.43084e-19)
(6.04258 -7.532 -2.06446e-18)
(5.62418 -7.44337 -1.08631e-18)
(5.57262 -7.22397 8.18631e-19)
(5.53128 -7.04216 -1.43943e-19)
(5.47153 -6.87082 -4.63101e-18)
(5.39622 -6.68723 4.1913e-18)
(5.30279 -6.49071 -4.88155e-20)
(5.19304 -6.28567 1.14806e-18)
(5.07169 -6.07707 1.03009e-18)
(4.94372 -5.86959 9.45889e-19)
(4.81337 -5.66702 8.60788e-19)
(4.68398 -5.47213 1.53841e-18)
(4.55796 -5.28666 -7.40465e-19)
(4.43693 -5.1116 1.91948e-18)
(4.32193 -4.94742 -1.24091e-18)
(4.21354 -4.79436 -5.13372e-19)
(4.11216 -4.65262 2.06199e-18)
(4.01907 -4.52174 1.37767e-18)
(3.93621 -4.40051 -2.79731e-20)
(3.85503 -4.29481 0)
(6.34667 -7.30341 -1.0497e-18)
(5.93938 -7.24997 2.07601e-18)
(5.88653 -7.04284 1.81765e-18)
(5.84015 -6.86746 -1.45922e-19)
(5.77229 -6.6997 -1.57125e-18)
(5.68634 -6.51814 7.06926e-20)
(5.58075 -6.32325 1.31834e-20)
(5.45823 -6.1201 1.17462e-20)
(5.32417 -5.91391 0)
(5.18393 -5.7094 9.25163e-19)
(5.04201 -5.51034 -1.76091e-18)
(4.90185 -5.31934 -7.53587e-19)
(4.76586 -5.13806 7.48116e-19)
(4.63563 -4.96737 -6.56455e-19)
(4.5121 -4.80765 6.07998e-19)
(4.3958 -4.65913 -5.53508e-19)
(4.28712 -4.52201 4.90126e-21)
(4.18745 -4.39567 -4.70255e-19)
(4.09903 -4.27882 -4.34416e-19)
(4.01369 -4.17916 -4.34714e-19)
(6.64375 -7.06292 0)
(6.2485 -7.04272 -1.01223e-18)
(6.19425 -6.84707 1.00062e-18)
(6.14278 -6.67795 1.74589e-18)
(6.0667 -6.51393 -1.57995e-18)
(5.96993 -6.33479 1.36496e-18)
(5.85205 -6.14206 -2.62452e-18)
(5.71672 -5.94139 -2.33076e-18)
(5.56996 -5.73822 -1.01684e-18)
(5.41754 -5.53728 4.44364e-20)
(5.26419 -5.34224 -8.42069e-19)
(5.1134 -5.15559 3.49356e-20)
(4.96753 -4.97885 0)
(4.82809 -4.81279 -1.28771e-18)
(4.69589 -4.65776 6.57146e-19)
(4.57132 -4.51399 0)
(4.45484 -4.38161 -5.14688e-19)
(4.34804 -4.25976 -9.25379e-19)
(4.25317 -4.14806 9.09278e-19)
(4.16264 -4.05915 4.48858e-19)
(6.93343 -6.80975 0)
(6.55092 -6.82091 0)
(6.49508 -6.63658 -1.85624e-18)
(6.43841 -6.47392 -1.59616e-18)
(6.35404 -6.3139 3.23958e-18)
(6.24636 -6.13759 0)
(6.11613 -5.94756 0)
(5.968 -5.74997 1.17094e-18)
(5.80863 -5.55044 0)
(5.64421 -5.35364 0)
(5.47966 -5.16311 0)
(5.31848 -4.98119 0)
(5.16299 -4.80924 0)
(5.01451 -4.64789 0)
(4.87359 -4.49742 0)
(4.74036 -4.35798 0)
(4.61508 -4.22944 0)
(4.49883 -4.11113 0)
(4.39172 -4.00612 0)
(4.28761 -3.93172 0)
(10.0435 0.087741 1.47376e-19)
(10.023 -0.307649 2.86746e-19)
(9.98721 -0.700361 -2.94504e-19)
(9.93667 -1.09025 5.87182e-19)
(9.87114 -1.47698 -5.87181e-19)
(9.79049 -1.86005 -5.54881e-19)
(9.69482 -2.23891 -5.53332e-19)
(9.58433 -2.61303 1.74261e-18)
(9.45927 -2.98184 -1.16101e-18)
(9.3199 -3.3448 1.15128e-18)
(9.16649 -3.70135 -1.15128e-18)
(8.99935 -4.05098 1.14277e-18)
(8.81882 -4.39315 -2.26621e-18)
(8.62524 -4.72737 3.33732e-18)
(8.41898 -5.05315 0)
(8.20043 -5.37004 -3.27878e-18)
(7.96999 -5.67761 1.63552e-20)
(7.72818 -5.97552 3.30422e-18)
(7.47509 -6.26359 0)
(7.21242 -6.54116 0)
(10.1207 -0.210716 0)
(10.0794 -0.606835 -1.50435e-20)
(10.0213 -0.999152 0)
(9.94715 -1.38733 5.61915e-19)
(9.85711 -1.77094 5.85161e-19)
(9.75141 -2.14938 -1.69365e-18)
(9.63033 -2.52201 2.94856e-18)
(9.49422 -2.88822 -1.16397e-18)
(9.34347 -3.2474 -1.10954e-18)
(9.17846 -3.59898 -1.10501e-18)
(8.99961 -3.94237 4.45764e-20)
(8.80736 -4.27703 1.13215e-18)
(8.60218 -4.60244 -5.62829e-18)
(8.38453 -4.91811 -1.18026e-18)
(8.15492 -5.22356 2.24896e-18)
(7.91386 -5.51838 2.24593e-18)
(7.66183 -5.80216 1.14106e-18)
(7.39939 -6.07458 -2.20032e-18)
(7.12665 -6.33538 1.04198e-18)
(6.84456 -6.58421 0)
(10.0726 -0.149213 1.32716e-19)
(10.0347 -0.540901 -2.7178e-19)
(9.97952 -0.929412 7.84849e-19)
(9.90732 -1.31405 -5.56018e-19)
(9.81851 -1.69417 -5.30152e-19)
(9.71346 -2.06905 5.53504e-19)
(9.59254 -2.43797 0)
(9.45614 -2.80023 0)
(9.3047 -3.15517 2.10169e-18)
(9.13865 -3.50215 3.13534e-18)
(8.95847 -3.84054 -9.91652e-19)
(8.76467 -4.16975 3.10033e-18)
(8.55775 -4.48923 -9.87478e-19)
(8.33826 -4.79843 -3.01977e-18)
(8.10674 -5.09685 1.36262e-20)
(7.86378 -5.38403 1.93838e-18)
(7.60989 -5.65953 -8.74951e-19)
(7.34568 -5.92294 -1.90699e-18)
(7.07148 -6.17389 -1.03003e-18)
(6.78803 -6.41188 1.87416e-18)
(9.90654 -0.11249 0)
(9.87552 -0.49495 2.2914e-19)
(9.82722 -0.875063 2.28199e-19)
(9.76182 -1.25193 -9.37517e-19)
(9.67966 -1.62475 0)
(9.58108 -1.99275 0)
(9.46643 -2.35516 0)
(9.33609 -2.71123 0)
(9.19049 -3.06025 -9.9207e-19)
(9.03005 -3.40153 -9.88302e-19)
(8.85527 -3.7344 0)
(8.66664 -4.05822 1.86857e-18)
(8.4647 -4.37239 -4.61988e-18)
(8.25 -4.67632 3.71479e-18)
(8.0231 -4.96945 -3.60061e-18)
(7.7846 -5.25128 -8.73691e-19)
(7.53507 -5.52131 1.56487e-19)
(7.27512 -5.77906 1.5489e-19)
(7.00528 -6.02409 -1.77937e-18)
(6.72628 -6.25589 -7.08919e-20)
(9.65356 -0.0990071 0)
(9.62995 -0.46924 -2.25983e-19)
(9.5895 -0.837781 0)
(9.53228 -1.20373 4.52091e-19)
(9.4585 -1.56624 4.30965e-19)
(9.36848 -1.92453 3.94009e-19)
(9.26252 -2.27782 0)
(9.14095 -2.62533 0)
(9.00415 -2.96634 0)
(8.85253 -3.30011 0)
(8.68655 -3.62596 8.13902e-19)
(8.50668 -3.94321 8.76859e-19)
(8.31343 -4.25123 8.71855e-19)
(8.10733 -4.54939 -8.8519e-19)
(7.88896 -4.83711 -1.52347e-18)
(7.65888 -5.11382 1.7293e-18)
(7.41769 -5.37898 3.35277e-18)
(7.16601 -5.63208 1.63078e-18)
(6.90442 -5.8726 0)
(6.63363 -6.10007 -1.53698e-18)
(9.34659 -0.0902061 4.64492e-20)
(9.32996 -0.446264 0)
(9.2971 -0.801204 -7.61183e-19)
(9.24804 -1.15417 1.82505e-23)
(9.18292 -1.50434 1.61789e-20)
(9.10197 -1.85092 -6.85541e-20)
(9.00545 -2.19315 0)
(8.89366 -2.53025 3.09424e-20)
(8.76693 -2.86149 -7.7273e-19)
(8.62561 -3.18615 1.50554e-18)
(8.47012 -3.50351 -1.56988e-18)
(8.30089 -3.81292 8.57634e-19)
(8.1184 -4.11369 -4.49564e-18)
(7.92315 -4.40521 2.96515e-18)
(7.71567 -4.68685 1.57177e-18)
(7.49652 -4.95803 0)
(7.26628 -5.21818 -2.90123e-18)
(7.02554 -5.46674 -6.15433e-20)
(6.7749 -5.70318 -2.85711e-18)
(6.51501 -5.92698 2.96956e-18)
(9.01427 -0.0853971 4.17736e-20)
(9.00328 -0.426457 -8.75095e-20)
(8.97681 -0.766868 7.17495e-19)
(8.93482 -1.10583 -1.40785e-20)
(8.87742 -1.44255 7.17348e-19)
(8.80479 -1.77626 -1.08348e-18)
(8.71714 -2.10622 0)
(8.61473 -2.43167 7.30406e-19)
(8.49782 -2.75191 6.68782e-19)
(8.36675 -3.06622 -7.26315e-19)
(8.22186 -3.37392 1.32889e-18)
(8.06357 -3.67432 2.81725e-18)
(7.89229 -3.96678 -1.31021e-18)
(7.7085 -4.25065 -1.42015e-18)
(7.51268 -4.52532 1.36193e-18)
(7.30537 -4.7902 0)
(7.08712 -5.04468 6.49628e-20)
(6.85848 -5.28821 9.81678e-21)
(6.62005 -5.52023 2.70698e-18)
(6.37242 -5.74018 1.25852e-18)
(8.67786 -0.0842185 0)
(8.67093 -0.410326 6.26018e-21)
(8.64929 -0.736129 -1.46007e-19)
(8.61289 -1.06088 -6.48407e-19)
(8.56179 -1.38383 6.095e-19)
(8.49615 -1.70425 0)
(8.41613 -2.02142 1.24055e-18)
(8.32194 -2.33464 -1.36321e-21)
(8.21383 -2.64321 -1.89467e-18)
(8.09208 -2.94646 0)
(7.957 -3.24371 -1.30774e-18)
(7.80895 -3.53432 4.60237e-20)
(7.64833 -3.81764 -3.67611e-18)
(7.47556 -4.09307 6.47868e-21)
(7.29111 -4.35998 1.2321e-18)
(7.09546 -4.61778 0)
(6.88913 -4.86588 -1.20931e-18)
(6.67267 -5.10371 8.70709e-21)
(6.44662 -5.33071 1.20061e-18)
(6.21155 -5.54631 -1.23847e-18)
(8.35124 -0.0853026 0)
(8.34693 -0.397039 1.49697e-19)
(8.32866 -0.708703 3.10588e-19)
(8.29639 -1.01959 -5.74903e-19)
(8.25015 -1.32901 -2.47374e-20)
(8.19006 -1.63627 -2.87319e-19)
(8.11627 -1.94068 -1.15017e-18)
(8.02896 -2.24159 5.7182e-19)
(7.92834 -2.53833 2.38274e-20)
(7.81465 -2.83026 5.68398e-19)
(7.68818 -3.11675 5.23263e-19)
(7.54926 -3.39718 2.26606e-18)
(7.39825 -3.67093 1.13348e-18)
(7.23554 -3.9374 2.23877e-18)
(7.06156 -4.19602 -1.11645e-18)
(6.87678 -4.4462 3.86867e-20)
(6.68169 -4.68736 -1.10327e-18)
(6.4768 -4.91893 0)
(6.26265 -5.14035 1.04288e-18)
(6.03974 -5.35102 0)
(8.04232 -0.0875232 6.51773e-20)
(8.03947 -0.38576 -1.90886e-19)
(8.02338 -0.684065 5.23564e-19)
(7.99399 -0.981784 -2.61196e-19)
(7.95134 -1.27826 1.89948e-20)
(7.89552 -1.57284 -2.61042e-19)
(7.82666 -1.8649 5.42688e-19)
(7.74491 -2.15379 -5.19384e-19)
(7.65047 -2.43892 5.19381e-19)
(7.54356 -2.71966 9.96149e-19)
(7.42443 -2.99541 -1.07339e-18)
(7.29339 -3.2656 -4.51284e-20)
(7.15077 -3.52966 -3.10703e-18)
(6.99695 -3.787 5.3814e-21)
(6.83232 -4.03708 4.03014e-20)
(6.65734 -4.27934 2.01422e-18)
(6.47247 -4.51322 -9.94959e-19)
(6.27821 -4.73816 -9.47721e-19)
(6.0751 -4.9536 -3.74678e-20)
(5.86359 -5.15894 0)
(7.75472 -0.0901347 0)
(7.75248 -0.375864 2.42477e-19)
(7.73766 -0.661735 -8.33732e-19)
(7.71019 -0.947134 -2.21197e-19)
(7.67011 -1.23144 4.94684e-19)
(7.61749 -1.51405 0)
(7.55246 -1.79436 0)
(7.47515 -2.07179 4.72845e-19)
(7.38573 -2.34574 -4.72842e-19)
(7.28442 -2.61566 3.98338e-19)
(7.17145 -2.88098 -4.69796e-19)
(7.04711 -3.14115 9.31644e-19)
(6.91169 -3.39563 -1.85867e-18)
(6.76557 -3.64391 1.84907e-18)
(6.60912 -3.88545 3.46852e-20)
(6.44278 -4.11974 -9.50998e-19)
(6.26702 -4.34624 -9.0496e-19)
(6.08232 -4.5644 1.84344e-18)
(5.88922 -4.77367 8.62989e-19)
(5.68816 -4.97342 0)
(7.48922 -0.0926633 1.87896e-21)
(7.48702 -0.366885 1.59207e-19)
(7.47283 -0.641275 3.34257e-19)
(7.44658 -0.915256 2.33962e-19)
(7.4083 -1.18825 2.17034e-19)
(7.35808 -1.45967 2.01895e-19)
(7.29601 -1.72896 0)
(7.22222 -1.99557 -8.34332e-19)
(7.13689 -2.25895 -4.30097e-19)
(7.04019 -2.51857 3.66933e-19)
(6.93236 -2.7739 0)
(6.81366 -3.02443 8.49487e-19)
(6.68439 -3.26967 -2.51241e-18)
(6.54488 -3.50912 8.45139e-19)
(6.39551 -3.74231 0)
(6.23671 -3.96876 -8.03572e-19)
(6.06896 -4.18796 -1.623e-18)
(5.89274 -4.3994 7.98631e-19)
(5.70861 -4.6025 -2.92214e-20)
(5.51702 -4.79664 0)
(7.24494 -0.0948102 3.46676e-21)
(7.24243 -0.358477 -1.03035e-19)
(7.22844 -0.622305 1.98839e-19)
(7.20293 -0.88575 -1.31305e-20)
(7.16592 -1.14826 3.97326e-19)
(7.11749 -1.4093 -6.10217e-19)
(7.05774 -1.66833 0)
(6.98678 -1.92483 5.60669e-20)
(6.90478 -2.17829 0)
(6.81192 -2.4282 -8.14562e-19)
(6.7084 -2.67408 0)
(6.59448 -2.91545 -7.51751e-19)
(6.47044 -3.15186 2.32344e-18)
(6.33661 -3.38286 -1.53962e-18)
(6.19336 -3.60801 7.67597e-19)
(6.0411 -3.82689 -6.79173e-19)
(5.88035 -4.03902 7.8446e-19)
(5.71159 -4.24395 -7.79096e-19)
(5.53547 -4.44106 0)
(5.35241 -4.62973 0)
(7.02009 -0.096454 4.71479e-20)
(7.01708 -0.350414 0)
(7.00304 -0.604518 0)
(6.97796 -0.858245 -3.77757e-19)
(6.94186 -1.11108 -3.5257e-19)
(6.89481 -1.36249 0)
(6.83691 -1.61199 0)
(6.76828 -1.85908 4.9887e-20)
(6.68906 -2.10327 6.98201e-19)
(6.59942 -2.34409 -3.36716e-19)
(6.49957 -2.58109 -3.5874e-19)
(6.38974 -2.81383 1.44916e-18)
(6.2702 -3.04188 -2.15188e-18)
(6.14127 -3.26486 1.38766e-18)
(6.00331 -3.48235 0)
(5.85674 -3.69403 2.78781e-18)
(5.7021 -3.89942 -2.0241e-18)
(5.53988 -4.09818 6.88593e-19)
(5.37087 -4.28962 1.31693e-18)
(5.19548 -4.47316 0)
(6.81257 -0.0975301 -4.05361e-20)
(6.80894 -0.342537 0)
(6.79472 -0.587666 -5.22579e-21)
(6.76988 -0.832416 -3.24401e-19)
(6.73446 -1.07629 1.00521e-18)
(6.68852 -1.31879 -1.67214e-19)
(6.63216 -1.55945 0)
(6.56549 -1.79778 1.33203e-18)
(6.48864 -2.03334 -6.85975e-19)
(6.40179 -2.26567 4.45169e-20)
(6.30512 -2.49436 6.35745e-19)
(6.19885 -2.71899 6.51641e-19)
(6.08324 -2.93918 -1.29948e-18)
(5.95859 -3.15459 -1.27104e-18)
(5.82525 -3.36486 -1.24152e-18)
(5.68364 -3.56973 -1.32112e-18)
(5.53433 -3.76875 1.31212e-18)
(5.37781 -3.9618 -6.26393e-19)
(5.21514 -4.14799 -6.67473e-19)
(5.0466 -4.327 0)
(6.62013 -0.0980181 3.98257e-20)
(6.61587 -0.33474 -1.49537e-19)
(6.6014 -0.571553 -1.54802e-19)
(6.57671 -0.807978 4.63524e-19)
(6.54184 -1.04354 -1.64609e-19)
(6.49685 -1.27776 -1.53868e-19)
(6.44183 -1.51019 0)
(6.37688 -1.74039 -6.32457e-19)
(6.30214 -1.9679 0)
(6.21776 -2.19232 6.27567e-19)
(6.12393 -2.41324 -1.20934e-18)
(6.02084 -2.63028 5.98648e-19)
(5.90873 -2.84311 -1.19362e-18)
(5.78789 -3.05141 1.23173e-18)
(5.65865 -3.25487 6.70404e-19)
(5.5214 -3.45336 0)
(5.37675 -3.64642 -5.78683e-19)
(5.22517 -3.83428 5.78683e-19)
(5.06814 -4.01571 0)
(4.90561 -4.19108 0)
(6.44065 -0.0980059 0)
(6.43578 -0.327 1.46919e-19)
(6.42107 -0.556053 4.72648e-21)
(6.39651 -0.784707 -1.51488e-19)
(6.36214 -1.0125 -1.33587e-19)
(6.31802 -1.239 -1.41823e-19)
(6.26423 -1.46375 5.48155e-19)
(6.20089 -1.68633 0)
(6.12811 -1.90633 0)
(6.04603 -2.12334 2.78575e-19)
(5.95483 -2.337 2.95925e-19)
(5.85469 -2.54694 1.07105e-18)
(5.74583 -2.75285 -5.47254e-19)
(5.62849 -2.95448 5.47252e-19)
(5.50298 -3.15154 5.80945e-19)
(5.36965 -3.34406 3.39677e-20)
(5.22914 -3.53155 -1.067e-18)
(5.08182 -3.7148 3.78009e-21)
(4.92985 -3.8919 5.27723e-19)
(4.77237 -4.06487 0)
(6.27223 -0.0974965 -3.28384e-20)
(6.26681 -0.319285 3.2838e-20)
(6.25191 -0.541107 0)
(6.2275 -0.762514 1.23688e-19)
(6.19365 -0.983071 4.01774e-19)
(6.15039 -1.20235 -5.078e-19)
(6.09783 -1.41993 -5.3858e-19)
(6.03605 -1.6354 0)
(5.96518 -1.84838 0)
(5.88534 -2.05847 0)
(5.7967 -2.26534 -9.94273e-19)
(5.69942 -2.46864 -6.41758e-20)
(5.59369 -2.66808 -5.04136e-19)
(5.47972 -2.86344 3.02098e-20)
(5.35777 -3.0545 -9.9699e-19)
(5.22808 -3.2414 1.51942e-18)
(5.09136 -3.42369 -1.4397e-18)
(4.94765 -3.60297 4.88722e-19)
(4.80025 -3.77624 9.36926e-19)
(4.64644 -3.94843 0)
(6.11315 -0.0961395 2.95022e-20)
(6.10729 -0.311396 0)
(6.09228 -0.526674 -1.21461e-19)
(6.0681 -0.741536 -2.50279e-19)
(6.03479 -0.955563 1.21309e-19)
(5.99242 -1.16835 9.68706e-19)
(5.94106 -1.37948 0)
(5.88082 -1.58859 -4.66553e-19)
(5.81179 -1.79529 -2.38627e-19)
(5.7341 -1.99922 -4.48295e-19)
(5.6479 -2.20005 -1.79373e-19)
(5.55333 -2.39747 -1.41532e-18)
(5.45055 -2.5912 -9.34205e-19)
(5.33969 -2.78105 9.60995e-19)
(5.22102 -2.96681 9.1987e-19)
(5.09453 -3.14873 -3.88493e-21)
(4.96104 -3.32646 2.99604e-20)
(4.81979 -3.50259 4.50318e-19)
(4.6759 -3.67331 -9.20623e-19)
(4.52261 -3.84853 0)
(5.9618 -0.0944676 -6.16949e-20)
(5.95564 -0.303469 3.03714e-20)
(5.94067 -0.512558 -1.21339e-19)
(5.91686 -0.721345 1.21283e-19)
(5.88425 -0.929435 -3.48826e-19)
(5.84287 -1.13644 -1.0862e-18)
(5.79279 -1.34197 0)
(5.73409 -1.54567 4.93649e-19)
(5.66686 -1.74717 -4.6158e-19)
(5.59119 -1.94613 9.7742e-19)
(5.50721 -2.14222 9.71616e-19)
(5.415 -2.33516 1.4315e-18)
(5.31473 -2.52466 -9.28882e-19)
(5.20641 -2.71052 4.62681e-19)
(5.09029 -2.89257 -4.55023e-19)
(4.966 -3.07102 4.55046e-19)
(4.83465 -3.24559 0)
(4.69354 -3.41952 4.11995e-19)
(4.55171 -3.58862 -4.03178e-19)
(4.39399 -3.7751 0)
(7.14018 7.26217 0)
(7.42016 6.97236 0)
(7.68723 6.67297 1.08764e-18)
(7.9421 6.3645 2.02669e-20)
(8.1842 6.04667 -1.15069e-18)
(8.41288 5.71954 0)
(8.62771 5.38351 1.18747e-18)
(8.82837 5.03912 -2.24042e-18)
(9.01453 4.68694 -1.13225e-18)
(9.18592 4.32758 -1.14284e-18)
(9.34226 3.96168 1.14283e-18)
(9.48332 3.58989 -1.15494e-18)
(9.60893 3.21289 5.76107e-19)
(9.71887 2.8314 5.4988e-19)
(9.81299 2.44607 5.52029e-19)
(9.89124 2.05756 -5.85839e-19)
(9.95358 1.66655 5.85839e-19)
(10.0001 1.27373 -2.94099e-19)
(10.0307 0.879507 -1.39702e-19)
(10.046 0.485226 7.35811e-20)
(7.41713 7.07047 0)
(7.69732 6.78105 -9.96689e-19)
(7.96372 6.48005 -2.13085e-18)
(8.21662 6.16817 3.15112e-18)
(8.45578 5.84571 -2.18518e-18)
(8.68069 5.51313 2.19596e-18)
(8.89087 5.17105 1.19384e-18)
(9.0859 4.82011 -3.3878e-18)
(9.26539 4.46101 1.10829e-18)
(9.429 4.09448 2.20324e-18)
(9.5764 3.72122 1.08551e-18)
(9.70735 3.34201 1.09239e-18)
(9.82168 2.95764 -1.15273e-18)
(9.91917 2.56883 1.69743e-18)
(9.99955 2.17637 -2.35498e-18)
(10.0627 1.78114 5.81288e-19)
(10.1087 1.38394 -5.58584e-19)
(10.1376 0.985596 0)
(10.1492 0.586631 1.51573e-20)
(10.144 0.188027 0)
(7.27422 6.94577 -1.75504e-18)
(7.55723 6.67375 9.85286e-19)
(7.8277 6.38886 1.80237e-18)
(8.08518 6.09178 8.15976e-19)
(8.32924 5.78308 2.04348e-18)
(8.55935 5.46337 2.00457e-20)
(8.77499 5.13333 -1.02427e-18)
(8.97566 4.79364 -3.05257e-18)
(9.16092 4.44503 3.01372e-18)
(9.33033 4.08822 -3.09363e-18)
(9.4835 3.72395 -1.03066e-18)
(9.62014 3.35299 -2.06207e-18)
(9.73991 2.97615 0)
(9.84261 2.59421 0)
(9.92811 2.20807 0)
(9.99624 1.81863 -5.2562e-19)
(10.0468 1.42674 5.50489e-19)
(10.0798 1.03324 5.27316e-19)
(10.0952 0.63886 6.27067e-21)
(10.0928 0.244561 1.32439e-19)
(7.04698 6.69374 1.82272e-18)
(7.32673 6.44038 -1.65529e-18)
(7.59514 6.1739 -1.69641e-19)
(7.85148 5.89483 -1.70602e-19)
(8.09519 5.60375 4.3033e-18)
(8.32571 5.30126 -7.12684e-20)
(8.5425 4.988 3.77777e-21)
(8.74501 4.66461 -2.72133e-18)
(8.93276 4.33179 1.79552e-18)
(9.10527 3.99022 0)
(9.26204 3.64067 9.63029e-19)
(9.40274 3.28399 9.69694e-19)
(9.52709 2.92095 0)
(9.63477 2.55239 0)
(9.72556 2.17913 0)
(9.79927 1.80198 0)
(9.85569 1.42176 -2.17162e-20)
(9.89472 1.03935 4.74814e-19)
(9.91624 0.655549 -2.28013e-19)
(9.92024 0.271317 0)
(6.78433 6.37899 1.5438e-18)
(7.05623 6.14349 0)
(7.3179 5.89505 -4.54554e-18)
(7.56853 5.63409 -1.54937e-18)
(7.80749 5.36114 -1.62815e-18)
(8.0342 5.07673 -1.72591e-18)
(8.24809 4.78147 8.15441e-19)
(8.44861 4.47594 -8.56992e-19)
(8.63522 4.16079 2.37966e-18)
(8.80747 3.83669 -7.79055e-19)
(8.96495 3.50442 0)
(9.10715 3.16471 0)
(9.23369 2.81825 0)
(9.34429 2.46585 0)
(9.43869 2.1083 -1.23028e-18)
(9.51664 1.74642 4.23033e-19)
(9.57791 1.381 -4.46859e-19)
(9.62235 1.01289 0)
(9.64983 0.642929 2.24872e-19)
(9.66027 0.272004 0)
(6.50939 6.05175 1.32076e-18)
(6.77106 5.8324 -4.79982e-20)
(7.02344 5.60052 2.77815e-18)
(7.26573 5.35645 1.38797e-18)
(7.49726 5.10065 0)
(7.71747 4.83363 -1.47389e-18)
(7.92578 4.55591 6.85324e-20)
(8.12165 4.26806 -1.49629e-18)
(8.30455 3.97067 2.07007e-18)
(8.47401 3.66438 3.2747e-20)
(8.62959 3.34983 2.8123e-20)
(8.77085 3.02766 -7.46678e-19)
(8.89736 2.69858 1.4644e-18)
(9.00882 2.36337 0)
(9.10496 2.02272 6.85896e-20)
(9.18547 1.67747 7.47649e-19)
(9.25009 1.3284 1.63938e-21)
(9.29864 0.976278 -1.53506e-20)
(9.33098 0.621911 0)
(9.34699 0.266133 -4.63526e-20)
(6.24354 5.7347 0)
(6.49387 5.52933 -4.8925e-20)
(6.73566 5.31197 1.75847e-20)
(6.96816 5.08288 -2.51143e-18)
(7.19071 4.84248 0)
(7.40274 4.59123 1.27021e-18)
(7.60372 4.32961 1.35295e-18)
(7.79311 4.05812 -3.93633e-18)
(7.97041 3.77732 -6.83039e-20)
(8.13515 3.48777 -1.26399e-18)
(8.28689 3.19007 6.95951e-19)
(8.42521 2.88483 -6.42895e-19)
(8.54971 2.57274 -7.06727e-19)
(8.66 2.25447 0)
(8.75587 1.93075 3.72849e-19)
(8.83708 1.60219 -1.69145e-20)
(8.90326 1.26965 -3.46136e-19)
(8.95419 0.933852 -1.67764e-20)
(8.98976 0.595558 -8.71319e-20)
(9.0098 0.255538 1.74637e-19)
(5.99799 5.43946 0)
(6.23674 5.24594 1.08601e-18)
(6.46753 5.04099 1.61922e-20)
(6.68967 4.82486 -1.10217e-18)
(6.90252 4.5979 0)
(7.10555 4.36053 1.14665e-18)
(7.29823 4.11319 -1.09479e-18)
(7.48007 3.85634 -1.21194e-18)
(7.6506 3.59049 2.30531e-18)
(7.80935 3.31615 1.24389e-18)
(7.9559 3.0339 0)
(8.08987 2.74432 6.06721e-19)
(8.21085 2.44802 -4.39279e-21)
(8.31854 2.14566 2.18736e-20)
(8.41253 1.8379 0)
(8.49266 1.52537 -5.9722e-19)
(8.55879 1.20869 -3.12881e-19)
(8.61049 0.888658 4.57142e-19)
(8.64766 0.566018 3.08221e-19)
(8.67012 0.241474 -4.11979e-20)
(5.77643 5.17097 0)
(6.00391 4.98743 -9.38011e-19)
(6.2239 4.79303 0)
(6.43572 4.588 -1.01202e-18)
(6.6388 4.37265 1.99245e-18)
(6.83261 4.14735 -2.03198e-18)
(7.01668 3.9125 3.17961e-18)
(7.19053 3.66854 -3.17047e-18)
(7.35372 3.41593 -2.14208e-18)
(7.50583 3.15517 -1.57993e-18)
(7.64645 2.88679 5.4178e-19)
(7.7752 2.61133 -1.12321e-18)
(7.89174 2.32937 1.8655e-20)
(7.99573 2.04152 1.11654e-18)
(8.08689 1.74836 -2.80896e-19)
(8.16485 1.45062 1.15069e-18)
(8.2295 1.14879 -5.65953e-19)
(8.28069 0.843566 2.6076e-19)
(8.31813 0.535693 -1.48706e-19)
(8.34165 0.225834 0)
(5.57857 4.92962 0)
(5.79543 4.75453 1.81468e-18)
(6.00515 4.56914 8.80266e-19)
(6.20709 4.37364 -9.06097e-19)
(6.40071 4.16832 -1.85614e-18)
(6.58551 3.9535 2.82447e-18)
(6.76107 3.72956 1.12976e-20)
(6.92693 3.4969 -9.20654e-19)
(7.0827 3.25597 1.97647e-18)
(7.22796 3.00722 1.02078e-18)
(7.36235 2.75117 -9.53696e-19)
(7.48551 2.48833 5.00775e-19)
(7.59711 2.21925 2.25468e-20)
(7.69684 1.94448 -5.26933e-19)
(7.78441 1.66461 -2.55344e-19)
(7.85955 1.38021 5.11999e-19)
(7.92202 1.09198 -2.56655e-19)
(7.97171 0.800426 -5.17922e-19)
(8.00845 0.506221 6.00169e-20)