/*--------------------------------*- C++ -*----------------------------------*\
| =========                 |                                                 |
| \\      /  F ield         | OpenFOAM: The Open Source CFD Toolbox           |
|  \\    /   O peration     | Version:  v1912                                 |
|   \\  /    A nd           | Website:  www.openfoam.com                      |
|    \\/     M anipulation  |                                                 |
\*---------------------------------------------------------------------------*/
FoamFile
{
    version     2.0;
    format      ascii;
    class       volScalarField;
    location    "53";
    object      p;
}
// * * * * * * * * * * * * * * * * * * * * * * * * * * * * * * * * * * * * * //

dimensions      [0 2 -2 0 0 0 0];


internalField   nonuniform List<scalar> 
9600
(
-41.4853
-36.2204
-32.9936
-30.2563
-27.7509
-25.4841
-23.4275
-21.5534
-19.8441
-18.286
-16.8666
-15.5739
-14.3964
-13.3235
-12.345
-11.4515
-10.6346
-9.88638
-9.1993
-8.5712
-42.2451
-36.9627
-33.6998
-30.9197
-28.3692
-26.0583
-23.9603
-22.0484
-20.3052
-18.7172
-17.2714
-15.9555
-14.7577
-13.6669
-12.6725
-11.7648
-10.9352
-10.1752
-9.47699
-8.83961
-43.0065
-37.7009
-34.4007
-31.5776
-28.9817
-26.6265
-24.4871
-22.5375
-20.7607
-19.1429
-17.671
-16.3323
-15.1145
-14.006
-12.996
-12.0743
-11.232
-10.4604
-9.7511
-9.10464
-43.7664
-38.4347
-35.0958
-32.2289
-29.5873
-27.1877
-25.007
-23.0199
-21.2097
-19.5625
-18.0648
-16.7036
-15.4661
-14.3403
-13.3148
-12.3794
-11.5246
-10.7414
-10.0212
-9.36594
-44.5217
-39.1626
-35.7839
-32.8726
-30.185
-27.7409
-25.5189
-23.4945
-21.6512
-19.975
-18.4521
-17.0687
-15.8119
-14.669
-13.6285
-12.6795
-11.8125
-11.018
-10.287
-9.62324
-45.2705
-39.8831
-36.464
-33.5076
-30.7738
-28.2851
-26.022
-23.9606
-22.0846
-20.3798
-18.832
-17.4269
-16.1512
-14.9917
-13.9364
-12.9743
-12.0953
-11.2896
-10.5481
-9.87627
-46.0108
-40.5946
-37.1347
-34.1329
-31.3525
-28.8194
-26.5153
-24.4173
-22.509
-20.7761
-19.2038
-17.7776
-16.4833
-15.3076
-14.238
-13.2631
-12.3725
-11.556
-10.8041
-10.1247
-46.7413
-41.296
-37.7948
-34.7471
-31.9202
-29.3426
-26.9979
-24.8636
-22.9235
-21.163
-19.5668
-18.1199
-16.8077
-15.6163
-14.5327
-13.5454
-12.6436
-11.8165
-11.0548
-10.3684
-47.4604
-41.9857
-38.4431
-35.3493
-32.4757
-29.8539
-27.4688
-25.2987
-23.3274
-21.5397
-19.9202
-18.4532
-17.1235
-15.9168
-14.8199
-13.8206
-12.908
-12.0709
-11.2996
-10.6068
-48.1671
-42.6627
-39.0784
-35.9383
-33.0181
-30.3522
-27.9272
-25.7217
-23.7196
-21.9055
-20.2633
-18.7767
-17.4301
-16.2086
-15.0987
-14.088
-13.1652
-12.3184
-11.5381
-10.8396
-48.8601
-43.3259
-39.6997
-36.5132
-33.5464
-30.8367
-28.372
-26.1317
-24.0995
-22.2595
-20.5951
-19.0895
-17.7265
-16.4908
-15.3685
-14.3468
-13.4143
-12.5584
-11.7697
-11.0663
-49.5386
-43.9742
-40.306
-37.0729
-34.0596
-31.3064
-28.8026
-26.528
-24.4662
-22.6009
-20.9148
-19.3907
-18.0119
-16.7626
-15.6283
-14.5962
-13.6544
-12.7901
-11.9935
-11.2858
-50.2017
-44.6067
-40.8964
-37.6166
-34.5569
-31.7605
-29.218
-26.9097
-24.8188
-22.9288
-21.2216
-19.6795
-18.2853
-17.0228
-15.8771
-14.8351
-13.8847
-13.0125
-12.2088
-11.4977
-50.849
-45.2227
-41.47
-38.1434
-35.0375
-32.1982
-29.6176
-27.276
-25.1567
-23.2424
-21.5146
-19.955
-18.5457
-17.2703
-16.1136
-15.0622
-14.1037
-13.2242
-12.4142
-11.7011
-51.4798
-45.8213
-42.026
-38.6527
-35.5007
-32.6189
-30.0006
-27.6263
-25.4791
-23.5409
-21.793
-20.2161
-18.7921
-17.5039
-16.3364
-15.2757
-14.3094
-13.4232
-12.6077
-11.8942
-52.0938
-46.4018
-42.5637
-39.1437
-35.9459
-33.022
-30.3666
-27.9601
-25.7854
-23.8239
-22.056
-20.4621
-19.0234
-17.7227
-16.5442
-15.4742
-14.5
-13.6071
-12.7864
-12.0716
-52.6921
-46.9641
-43.0825
-39.6158
-36.3724
-33.4069
-30.7148
-28.2769
-26.0752
-24.0908
-22.3032
-20.6923
-19.2389
-17.9254
-16.736
-15.6568
-14.6752
-13.7761
-12.9494
-12.23
-53.2791
-47.5092
-43.5815
-40.0678
-36.7792
-33.7728
-31.0449
-28.5762
-26.3482
-24.3411
-22.5339
-20.9059
-19.4373
-18.1105
-16.9094
-15.8208
-14.8321
-13.9273
-13.0957
-12.3807
-53.857
-48.0367
-44.0593
-40.4987
-37.1662
-34.1199
-31.3572
-28.8585
-26.6048
-24.5755
-22.7487
-21.1031
-19.6184
-18.2763
-17.0612
-15.9596
-14.9589
-14.0432
-13.2103
-12.5279
-54.4038
-48.5389
-44.5147
-40.9091
-37.5344
-34.4498
-31.6533
-29.1256
-26.8469
-24.7958
-22.9498
-21.2864
-19.7846
-18.4257
-17.1929
-16.0718
-15.0472
-14.1058
-13.262
-12.5858
-59.8591
-59.8276
-59.7584
-59.6659
-59.5496
-59.4069
-59.2372
-59.0412
-58.8194
-58.5722
-58.3003
-58.0042
-57.6846
-57.3422
-56.9778
-56.592
-56.1863
-55.762
-55.3223
-54.8701
-53.5103
-53.5077
-53.472
-53.4087
-53.3185
-53.201
-53.0564
-52.8854
-52.6887
-52.467
-52.2208
-51.9507
-51.6574
-51.3415
-51.0036
-50.6445
-50.2647
-49.8648
-49.4452
-49.0039
-48.8662
-48.888
-48.8804
-48.8441
-48.7803
-48.6898
-48.5734
-48.4316
-48.265
-48.0743
-47.86
-47.6226
-47.3628
-47.0811
-46.778
-46.4539
-46.1092
-45.7438
-45.3574
-44.9482
-44.6357
-44.6752
-44.6881
-44.6738
-44.6334
-44.5677
-44.4776
-44.3635
-44.2259
-44.0655
-43.8828
-43.6782
-43.4524
-43.2057
-42.9385
-42.6512
-42.3438
-42.0164
-41.6687
-41.2998
-40.7239
-40.7733
-40.7987
-40.7995
-40.776
-40.729
-40.6592
-40.5672
-40.4533
-40.3182
-40.1623
-39.9861
-39.79
-39.5745
-39.34
-39.0866
-38.8144
-38.5235
-38.2136
-37.8842
-37.2108
-37.2643
-37.2962
-37.3056
-37.2927
-37.2581
-37.2025
-37.1264
-37.0301
-36.9143
-36.7793
-36.6257
-36.4539
-36.2643
-36.0572
-35.8329
-35.5914
-35.3328
-35.0567
-34.7627
-34.0872
-34.1407
-34.1744
-34.1875
-34.1802
-34.1529
-34.1062
-34.0406
-33.9566
-33.8547
-33.7352
-33.5988
-33.4458
-33.2766
-33.0917
-32.8913
-32.6755
-32.4442
-32.1971
-31.9339
-31.3165
-31.3671
-31.3995
-31.4129
-31.4075
-31.3837
-31.342
-31.283
-31.207
-31.1146
-31.0062
-30.8823
-30.7434
-30.5901
-30.4226
-30.2414
-30.0465
-29.8379
-29.6153
-29.3783
-28.8586
-28.9048
-28.934
-28.9456
-28.9398
-28.917
-28.8777
-28.8224
-28.7514
-28.6653
-28.5645
-28.4497
-28.3214
-28.18
-28.0261
-27.8601
-27.6822
-27.4924
-27.2904
-27.0757
-26.6739
-26.7149
-26.74
-26.7488
-26.7413
-26.7181
-26.6794
-26.6259
-26.5578
-26.4758
-26.3804
-26.2721
-26.1515
-26.0193
-25.876
-25.7221
-25.558
-25.3839
-25.1994
-25.0039
-24.7252
-24.7609
-24.7817
-24.7871
-24.7774
-24.7528
-24.7139
-24.6611
-24.5947
-24.5154
-24.4236
-24.3199
-24.2052
-24.0799
-23.9449
-23.8009
-23.6483
-23.4873
-23.3179
-23.1393
-22.9796
-23.0103
-23.0268
-23.0289
-23.0166
-22.9905
-22.9508
-22.898
-22.8326
-22.755
-22.6658
-22.5656
-22.4552
-22.3354
-22.207
-22.0709
-21.9278
-21.7782
-21.6222
-21.4589
-21.4088
-21.4349
-21.4474
-21.4463
-21.4317
-21.4039
-21.3633
-21.3103
-21.2454
-21.1689
-21.0816
-20.9841
-20.8771
-20.7615
-20.6383
-20.5087
-20.3736
-20.2339
-20.09
-19.941
-19.9891
-20.011
-20.02
-20.016
-19.9991
-19.9698
-19.9283
-19.875
-19.8104
-19.7348
-19.649
-19.5534
-19.4491
-19.3368
-19.2177
-19.0933
-18.9649
-18.8338
-18.7011
-18.5657
-18.7006
-18.7187
-18.7245
-18.718
-18.6992
-18.6685
-18.6262
-18.5727
-18.5083
-18.4335
-18.3488
-18.2548
-18.1525
-18.0427
-17.9269
-17.8064
-17.6835
-17.5596
-17.4374
-17.3155
-17.5267
-17.5415
-17.5445
-17.5357
-17.5152
-17.4834
-17.4404
-17.3867
-17.3225
-17.2483
-17.1646
-17.072
-16.9712
-16.8633
-16.7497
-16.632
-16.5131
-16.395
-16.2824
-16.1737
-16.4537
-16.4655
-16.4661
-16.4553
-16.4333
-16.4004
-16.3569
-16.3029
-16.239
-16.1653
-16.0823
-15.9906
-15.891
-15.7842
-15.6719
-15.5557
-15.439
-15.3247
-15.2202
-15.1233
-15.4697
-15.4791
-15.4777
-15.4654
-15.4424
-15.4088
-15.3649
-15.311
-15.2473
-15.1742
-15.0919
-15.0011
-14.9022
-14.7961
-14.684
-14.5679
-14.4516
-14.3387
-14.2412
-14.1535
-14.5635
-14.5715
-14.5691
-14.5563
-14.5332
-14.5
-14.4569
-14.404
-14.3417
-14.2702
-14.1898
-14.1008
-14.0038
-13.8993
-13.7884
-13.6725
-13.5554
-13.4422
-13.3516
-13.278
-13.7298
-13.7346
-13.7297
-13.7151
-13.6909
-13.6573
-13.6145
-13.5625
-13.5017
-13.4322
-13.3541
-13.2679
-13.1738
-13.0721
-12.9634
-12.8486
-12.7296
-12.6117
-12.5147
-12.4654
-53.5671
-54.1425
-54.6807
-55.204
-55.7093
-56.1906
-56.6453
-57.072
-57.47
-57.8384
-58.1765
-58.4837
-58.7598
-59.0043
-59.2167
-59.3971
-59.5462
-59.6654
-59.7565
-59.8214
-47.0841
-47.6649
-48.2176
-48.7479
-49.2554
-49.7377
-50.1932
-50.6214
-51.0216
-51.393
-51.7352
-52.048
-52.3315
-52.5864
-52.8106
-53.0035
-53.1657
-53.2976
-53.3998
-53.471
-42.44
-43.0084
-43.5533
-44.0747
-44.5727
-45.0465
-45.4954
-45.9185
-46.3154
-46.6854
-47.0274
-47.3413
-47.6268
-47.8825
-48.1098
-48.3089
-48.4795
-48.6213
-48.7339
-48.8159
-38.316
-38.8593
-39.3828
-39.8848
-40.3645
-40.8218
-41.256
-41.6665
-42.0526
-42.4138
-42.7487
-43.0568
-43.3392
-43.5952
-43.825
-44.0284
-44.205
-44.3543
-44.4761
-44.57
-34.6383
-35.1515
-35.6476
-36.1241
-36.58
-37.0148
-37.4282
-37.8193
-38.1875
-38.5323
-38.8542
-39.1528
-39.4266
-39.676
-39.9009
-40.1011
-40.2763
-40.4264
-40.5512
-40.6505
-31.4399
-31.9216
-32.3879
-32.8363
-33.2655
-33.6751
-34.0647
-34.4336
-34.7814
-35.1077
-35.4125
-35.6951
-35.9549
-36.1921
-36.407
-36.5992
-36.7682
-36.9138
-37.0363
-37.1354
-28.6681
-29.1189
-29.5556
-29.9756
-30.3778
-30.7616
-31.1265
-31.4722
-31.7981
-32.104
-32.3895
-32.6543
-32.8982
-33.1209
-33.322
-33.5035
-33.6636
-33.8018
-33.9185
-34.0138
-26.2562
-26.6782
-27.0868
-27.4798
-27.8559
-28.2147
-28.5557
-28.8784
-29.1824
-29.4676
-29.7336
-29.9803
-30.2076
-30.4153
-30.6035
-30.7705
-30.92
-31.0492
-31.1582
-31.2474
-24.1455
-24.5411
-24.9239
-25.292
-25.644
-25.9794
-26.2977
-26.5987
-26.8819
-27.1472
-27.3945
-27.6237
-27.8345
-28.0271
-28.2013
-28.3572
-28.4934
-28.6126
-28.7132
-28.7953
-22.2859
-22.6577
-23.0173
-23.3627
-23.6927
-24.0066
-24.3041
-24.5849
-24.8488
-25.0957
-25.3254
-25.538
-25.7333
-25.9114
-26.0722
-26.2156
-26.3415
-26.4502
-26.5422
-26.6168
-20.6358
-20.9864
-21.3253
-21.6504
-21.9605
-22.2549
-22.5334
-22.7957
-23.0418
-23.2717
-23.4853
-23.6826
-23.8635
-24.0282
-24.1766
-24.3085
-24.4241
-24.5234
-24.6069
-24.6743
-19.1615
-19.4933
-19.8139
-20.1211
-20.4132
-20.6899
-20.951
-21.1966
-21.4264
-21.6407
-21.8395
-22.0228
-22.1907
-22.3431
-22.4801
-22.6017
-22.7078
-22.7986
-22.8739
-22.9346
-17.836
-18.1513
-18.456
-18.7472
-19.0232
-19.2838
-19.5291
-19.7592
-19.9742
-20.1743
-20.3596
-20.5302
-20.6862
-20.8275
-20.9541
-21.0662
-21.1637
-21.2465
-21.3145
-21.3691
-16.6377
-16.9385
-17.2298
-17.5068
-17.7681
-18.0139
-18.2447
-18.4606
-18.662
-18.8491
-19.0221
-19.1811
-19.3262
-19.4574
-19.5748
-19.6783
-19.768
-19.8439
-19.9064
-19.9543
-15.5496
-15.8381
-16.1178
-16.3822
-16.63
-16.8621
-17.0793
-17.2821
-17.4708
-17.6459
-17.8076
-17.956
-18.0913
-18.2134
-18.3223
-18.4181
-18.5008
-18.5704
-18.6269
-18.6701
-14.5568
-14.8369
-15.1074
-15.3598
-15.5947
-15.8139
-16.0183
-16.2086
-16.3855
-16.5494
-16.7007
-16.8394
-16.9657
-17.0795
-17.1808
-17.2697
-17.346
-17.4099
-17.4612
-17.5001
-13.6418
-13.9208
-14.1861
-14.4271
-14.6493
-14.8561
-15.0483
-15.2268
-15.3926
-15.5463
-15.688
-15.8179
-15.936
-16.0424
-16.1368
-16.2194
-16.2901
-16.3488
-16.3956
-16.4305
-12.7839
-13.0671
-13.3337
-13.5654
-13.7756
-13.9707
-14.1517
-14.3197
-14.4757
-14.6204
-14.7539
-14.8763
-14.9875
-15.0876
-15.1764
-15.2538
-15.3198
-15.3744
-15.4176
-15.4494
-11.9966
-12.2703
-12.5376
-12.7644
-12.9645
-13.1482
-13.3188
-13.4773
-13.6246
-13.7613
-13.8876
-14.0035
-14.109
-14.2038
-14.2879
-14.3611
-14.4234
-14.4748
-14.5153
-14.5448
-11.406
-11.6568
-11.8846
-12.1013
-12.2897
-12.4556
-12.6096
-12.7538
-12.8879
-13.0121
-13.1268
-13.2321
-13.3276
-13.4132
-13.4889
-13.5544
-13.6098
-13.6551
-13.6899
-13.7144
-6.0052
-6.4965
-7.03488
-7.61729
-8.25017
-8.9409
-9.69716
-10.5284
-11.4468
-12.468
-13.6125
-14.9072
-16.3874
-18.0995
-20.1036
-22.4791
-25.3072
-28.6103
-32.6076
-38.6035
-6.27579
-6.78062
-7.32953
-7.924
-8.57065
-9.27656
-10.0495
-10.8993
-11.8382
-12.8823
-14.0524
-15.3757
-16.888
-18.636
-20.6803
-23.0999
-25.9751
-29.3249
-33.3608
-39.3777
-6.54781
-7.06618
-7.62572
-8.23249
-8.89317
-9.61451
-10.4045
-11.273
-12.2328
-13.3001
-14.496
-15.8483
-17.3931
-19.1774
-21.2621
-23.7258
-26.6476
-30.0432
-34.1157
-40.1491
-6.82077
-7.35261
-7.92287
-8.54215
-9.21708
-9.95407
-10.7612
-11.6487
-12.6296
-13.7203
-14.9424
-16.3238
-17.9013
-19.7222
-21.8473
-24.3551
-27.3233
-30.7644
-34.8747
-40.9293
-7.09422
-7.63946
-8.22051
-8.85252
-9.54189
-10.2947
-11.1192
-12.0259
-13.028
-14.1423
-15.3907
-16.8015
-18.4119
-20.2694
-22.435
-24.9869
-28.0014
-31.488
-35.6368
-41.7158
-7.36781
-7.92631
-8.51823
-9.16315
-9.86716
-10.636
-11.478
-12.404
-13.4275
-14.5656
-15.8404
-17.2807
-18.9241
-20.8183
-23.0245
-25.6205
-28.6811
-32.213
-36.4
-42.5045
-7.6412
-8.21281
-8.81563
-9.47367
-10.1925
-10.9774
-11.8371
-12.7825
-13.8275
-14.9895
-16.2909
-17.7608
-19.4372
-21.3682
-23.6151
-26.255
-29.3615
-32.9384
-37.1629
-43.2929
-7.91415
-8.49867
-9.11241
-9.78372
-10.5175
-11.3186
-12.196
-13.161
-14.2276
-15.4135
-16.7415
-18.2411
-19.9506
-21.9184
-24.2058
-26.8895
-30.0417
-33.6629
-37.9241
-44.0796
-8.18651
-8.78367
-9.40832
-10.093
-10.8418
-11.6593
-12.5545
-13.539
-14.6271
-15.8369
-17.1916
-18.7209
-20.4634
-22.4679
-24.7957
-27.523
-30.7204
-34.3855
-38.6826
-44.8631
-8.45824
-9.06773
-9.70319
-10.4014
-11.1653
-11.999
-12.912
-13.916
-15.0257
-16.2594
-17.6405
-19.1994
-20.9749
-23.016
-25.3839
-28.1544
-31.3966
-35.1049
-39.4369
-45.642
-8.72944
-9.35085
-9.99699
-10.7087
-11.4877
-12.3376
-13.2682
-14.2916
-15.4227
-16.6801
-18.0877
-19.676
-21.4842
-23.5617
-25.9695
-28.7828
-32.0691
-35.82
-40.1857
-46.4148
-9.00041
-9.63322
-10.2898
-11.0149
-11.8088
-12.6748
-13.6228
-14.6654
-15.8177
-17.0987
-18.5324
-20.1499
-21.9907
-24.1042
-26.5515
-29.407
-32.7369
-36.5295
-40.9277
-47.1801
-9.27164
-9.91513
-10.5816
-11.3199
-12.1284
-13.0102
-13.9753
-15.0369
-16.2101
-17.5143
-18.974
-20.6204
-22.4933
-24.6425
-27.1288
-30.0261
-33.3987
-37.2321
-41.6617
-47.9364
-9.54384
-10.197
-10.8727
-11.6237
-12.4465
-13.3435
-14.3255
-15.4055
-16.5993
-17.9264
-19.4116
-21.0865
-22.9913
-25.1757
-27.7005
-30.6388
-34.0533
-37.9267
-42.3862
-48.6825
-9.81778
-10.4791
-11.163
-11.926
-12.7625
-13.6743
-14.6725
-15.7707
-16.9846
-18.3342
-19.8445
-21.5475
-23.4836
-25.7027
-28.2654
-31.2439
-34.6996
-38.612
-43.1001
-49.4172
-10.0944
-10.7618
-11.4523
-12.2264
-13.0758
-14.0018
-15.0158
-16.1315
-17.3652
-18.7367
-20.2717
-22.0023
-23.9692
-26.2224
-28.8222
-31.8402
-35.3361
-39.2866
-43.8023
-50.1396
-10.3735
-11.0439
-11.7391
-12.5235
-13.3853
-14.325
-15.3543
-16.4871
-17.74
-19.1331
-20.6922
-22.4499
-24.447
-26.7336
-29.3699
-32.4264
-35.9614
-39.9492
-44.4917
-50.849
-10.6545
-11.3228
-12.021
-12.8154
-13.6896
-14.6427
-15.6869
-16.8365
-18.1081
-19.5223
-21.1051
-22.8892
-24.9159
-27.2352
-29.907
-33.0011
-36.5741
-40.5982
-45.1671
-51.5455
-10.9299
-11.5903
-12.2918
-13.0987
-13.9865
-14.9532
-16.0122
-17.1783
-18.4684
-19.9032
-21.5091
-23.3191
-25.3746
-27.7258
-30.4322
-33.5626
-37.1724
-41.2318
-45.8274
-52.2304
-11.1811
-11.8264
-12.5469
-13.3745
-14.2766
-15.2563
-16.3297
-17.512
-18.82
-20.2749
-21.9032
-23.7385
-25.822
-28.2042
-30.944
-34.1093
-37.754
-41.8467
-46.4679
-52.9054
-1.58446
-1.83843
-2.18634
-2.5753
-2.99391
-3.44751
-3.94244
-4.4846
-5.0815
-5.7434
-6.48424
-7.32305
-8.28597
-9.40904
-10.7432
-12.3626
-14.3571
-16.7878
-19.9631
-25.3579
-1.73761
-2.00801
-2.37438
-2.76928
-3.19132
-3.65026
-4.15209
-4.70234
-5.30864
-5.98153
-6.73521
-7.58904
-8.56959
-9.71344
-11.072
-12.7202
-14.7476
-17.2137
-20.4213
-25.8299
-1.8851
-2.17958
-2.5591
-2.96215
-3.39192
-3.85925
-4.37002
-4.92994
-5.54703
-6.23215
-6.99984
-7.86985
-8.86921
-10.035
-11.4193
-13.0971
-15.1582
-17.6597
-20.8988
-26.316
-2.05487
-2.36018
-2.74791
-3.15968
-3.59864
-4.07552
-4.59632
-5.16705
-5.79605
-6.49448
-7.27725
-8.16449
-9.18371
-10.3725
-11.7835
-13.4921
-15.5876
-18.126
-21.3998
-26.8348
-2.23596
-2.54836
-2.94393
-3.36466
-3.81313
-4.29999
-4.83146
-5.4138
-6.05559
-6.76826
-7.56706
-8.47251
-9.51259
-10.7254
-12.1642
-13.9046
-16.0359
-18.6125
-21.9238
-27.3829
-2.42253
-2.74354
-3.14745
-3.57731
-4.03556
-4.53286
-5.07561
-5.67026
-6.32559
-7.05334
-7.86904
-8.79364
-9.85557
-11.0935
-12.5611
-14.3346
-16.5029
-19.1189
-22.469
-27.9551
-2.6161
-2.94663
-3.35879
-3.7978
-4.2661
-4.77428
-5.32883
-5.93638
-6.60595
-7.34951
-8.18295
-9.12758
-10.2123
-11.4764
-12.9739
-14.7816
-16.9881
-19.6446
-23.0343
-28.5491
-2.81807
-3.15808
-3.57829
-4.02643
-4.50499
-5.02437
-5.59115
-6.21213
-6.89653
-7.6566
-8.50852
-9.47401
-10.5825
-11.8736
-13.4022
-15.2451
-17.4909
-20.189
-23.619
-29.1638
-3.02821
-3.37777
-3.80598
-4.2633
-4.75229
-5.28314
-5.86252
-6.49738
-7.19716
-7.97436
-8.84547
-9.83261
-10.9656
-12.2848
-13.8453
-15.7246
-18.0106
-20.7514
-24.2224
-29.7982
-3.24593
-3.60534
-4.04167
-4.50827
-5.00786
-5.55046
-6.14278
-6.79196
-7.50762
-8.30252
-9.19347
-10.203
-11.3614
-12.7095
-14.3029
-16.2195
-18.5468
-21.3311
-24.8438
-30.4511
-3.47079
-3.84045
-4.28503
-4.76104
-5.27145
-5.82607
-6.43167
-7.09556
-7.82759
-8.64074
-9.55217
-10.5848
-11.7693
-13.1471
-14.7744
-16.7292
-19.0987
-21.9273
-25.4823
-31.1214
-3.7024
-4.08271
-4.53569
-5.02128
-5.54273
-6.10964
-6.72886
-7.40787
-8.15671
-8.98865
-9.92113
-10.9775
-12.1889
-13.5973
-15.2592
-17.253
-19.6657
-22.5393
-26.1369
-31.8082
-3.94031
-4.33163
-4.79321
-5.28857
-5.8213
-6.40078
-7.03394
-7.72845
-8.49456
-9.34578
-10.2999
-11.3806
-12.6196
-14.0593
-15.7567
-17.7904
-20.2469
-23.1663
-26.8069
-32.5104
-4.18399
-4.5867
-5.05708
-5.56243
-6.10669
-6.69904
-7.34648
-8.05686
-8.84067
-9.71166
-10.6879
-11.7936
-13.0609
-14.5325
-16.2662
-18.3406
-20.8417
-23.8074
-27.4914
-33.2273
-4.43288
-4.84735
-5.32676
-5.84233
-6.3984
-7.00392
-7.66596
-8.39259
-9.1945
-10.0857
-11.0847
-12.2159
-13.512
-15.0164
-16.7871
-18.9029
-21.4492
-24.4619
-28.1895
-33.9578
-4.68645
-5.11302
-5.6017
-6.12774
-6.6959
-7.31488
-7.99186
-8.73509
-9.55552
-10.4674
-11.4896
-12.6469
-13.9725
-15.5102
-17.3185
-19.4764
-22.0686
-25.1287
-28.9004
-34.7012
-4.94413
-5.38313
-5.8813
-6.41808
-6.99861
-7.63137
-8.32359
-9.08379
-9.92311
-10.8561
-11.902
-13.0859
-14.4415
-16.0131
-17.8597
-20.0602
-22.6989
-25.8071
-29.6233
-35.457
-5.20538
-5.6571
-6.165
-6.71279
-7.30598
-7.95281
-8.6606
-9.43809
-10.2967
-11.2512
-12.3212
-13.5322
-14.9183
-16.5244
-18.4098
-20.6536
-23.3392
-26.4959
-30.3572
-36.2247
-5.46965
-5.93435
-6.45221
-7.01127
-7.61741
-8.2786
-9.00227
-9.79738
-10.6756
-11.652
-12.7465
-13.985
-15.4022
-17.0432
-18.9679
-21.2553
-23.9884
-27.1939
-31.1012
-37.0051
-5.73643
-6.21434
-6.74237
-7.31298
-7.93236
-8.6082
-9.34803
-10.1611
-11.0592
-12.0579
-13.1773
-14.4437
-15.8923
-17.5687
-19.533
-21.8645
-24.6451
-27.8994
-31.8525
-37.7987
-1.33671
-1.13005
-0.976306
-0.839616
-0.719584
-0.613671
-0.520762
-0.440064
-0.371075
-0.313437
-0.266884
-0.231204
-0.206226
-0.191815
-0.187831
-0.194065
-0.210302
-0.23667
-0.273337
-0.320108
-1.66655
-1.48315
-1.32544
-1.18352
-1.05866
-0.94828
-0.851405
-0.767234
-0.695254
-0.635088
-0.586454
-0.549129
-0.522932
-0.507709
-0.503318
-0.509586
-0.526357
-0.553641
-0.591505
-0.639699
-1.99905
-1.82354
-1.66585
-1.52278
-1.3958
-1.28323
-1.1844
-1.09862
-1.0254
-0.964398
-0.915332
-0.877981
-0.852159
-0.837709
-0.834483
-0.842329
-0.861125
-0.890825
-0.93131
-0.982752
-2.38277
-2.2056
-2.04486
-1.89884
-1.76827
-1.65221
-1.55016
-1.46159
-1.38607
-1.32326
-1.27291
-1.23478
-1.20867
-1.19443
-1.19191
-1.20094
-1.22143
-1.25328
-1.29638
-1.35076
-2.80148
-2.62184
-2.45714
-2.30718
-2.1724
-2.05227
-1.94649
-1.85462
-1.77631
-1.71126
-1.65921
-1.61994
-1.59325
-1.57898
-1.57695
-1.58703
-1.6091
-1.64303
-1.68872
-1.74615
-3.25273
-3.06987
-2.901
-2.7467
-2.60746
-2.48307
-2.37335
-2.27798
-2.1967
-2.12922
-2.07532
-2.03478
-2.00741
-1.99303
-1.99149
-2.00263
-2.02633
-2.06244
-2.11085
-2.17149
-3.7427
-3.55511
-3.38132
-3.2221
-3.07796
-2.94892
-2.8349
-2.73571
-2.65113
-2.58094
-2.52494
-2.48291
-2.45468
-2.44007
-2.43892
-2.45108
-2.47641
-2.51475
-2.56598
-2.63005
-4.27818
-4.08438
-3.90459
-3.73957
-3.58982
-3.45551
-3.33665
-3.23312
-3.14479
-3.07146
-3.01296
-2.96911
-2.93972
-2.92464
-2.92369
-2.93673
-2.9636
-3.00415
-3.05823
-3.1258
-4.86685
-4.66539
-4.47837
-4.30648
-4.15022
-4.00983
-3.88538
-3.77685
-3.68414
-3.6071
-3.54559
-3.49944
-3.46849
-3.45257
-3.45153
-3.46521
-3.49345
-3.53609
-3.59297
-3.66407
-5.51887
-5.30818
-5.11251
-4.93247
-4.76856
-4.62105
-4.49007
-4.37566
-4.27776
-4.19626
-4.13105
-4.08198
-4.04889
-4.03164
-4.03007
-4.04401
-4.07332
-4.11781
-4.17732
-4.25187
-6.24797
-6.02625
-5.82025
-5.63051
-5.45752
-5.30158
-5.16287
-5.04144
-4.93729
-4.85035
-4.78052
-4.72768
-4.6917
-4.67241
-4.66967
-4.68333
-4.71322
-4.75915
-4.82096
-4.8987
-7.07287
-6.838
-6.61966
-6.41833
-6.23449
-6.06847
-5.92045
-5.79055
-5.67877
-5.5851
-5.50945
-5.45172
-5.41177
-5.38948
-5.38469
-5.39726
-5.42701
-5.47373
-5.53728
-5.61772
-8.01932
-7.76876
-7.53563
-7.32037
-7.12348
-6.94527
-6.78597
-6.64571
-6.52454
-6.42244
-6.33937
-6.27524
-6.22993
-6.2033
-6.19523
-6.20555
-6.2341
-6.28065
-6.34503
-6.42738
-9.12284
-8.85351
-8.60262
-8.37056
-8.15785
-7.96482
-7.79173
-7.63871
-7.50585
-7.39315
-7.30058
-7.22806
-7.17549
-7.14275
-7.1297
-7.13619
-7.16204
-7.20701
-7.27091
-7.35395
-10.4337
-10.1419
-9.86963
-9.61724
-9.38531
-9.17421
-8.98417
-8.81539
-8.66793
-8.54183
-8.43707
-8.35358
-8.29128
-8.25004
-8.22975
-8.23024
-8.25133
-8.29274
-8.35428
-8.4362
-12.0256
-11.7069
-11.4089
-11.132
-10.8768
-10.6437
-10.4329
-10.2447
-10.079
-9.93608
-9.81576
-9.71805
-9.64285
-9.59006
-9.55955
-9.55118
-9.56475
-9.59995
-9.65657
-9.73487
-13.9877
-13.6374
-13.309
-13.003
-12.7202
-12.4607
-12.2251
-12.0133
-11.8256
-11.6619
-11.5223
-11.4067
-11.3151
-11.2473
-11.2032
-11.1827
-11.1856
-11.2117
-11.2606
-11.3324
-16.3817
-15.9958
-15.6328
-15.2938
-14.9794
-14.6901
-14.426
-14.1874
-13.9742
-13.7865
-13.6243
-13.4876
-13.3764
-13.2905
-13.23
-13.1945
-13.1842
-13.1986
-13.2376
-13.3003
-19.5183
-19.0926
-18.6907
-18.3152
-17.9663
-17.6442
-17.3489
-17.0802
-16.8382
-16.6229
-16.4344
-16.2725
-16.1373
-16.0287
-15.9466
-15.8908
-15.8614
-15.8586
-15.8821
-15.9301
-24.8551
-24.3843
-23.948
-23.5431
-23.1673
-22.8198
-22.5001
-22.2082
-21.9438
-21.7072
-21.4982
-21.317
-21.1636
-21.0382
-20.9408
-20.8714
-20.8308
-20.8213
-20.8442
-20.8893
-0.376879
-0.443329
-0.519419
-0.605068
-0.700193
-0.804687
-0.91842
-1.04123
-1.1729
-1.31316
-1.46164
-1.61781
-1.78087
-1.9496
-2.12235
-2.29684
-2.46859
-2.62781
-2.7591
-2.88888
-0.698348
-0.767076
-0.845807
-0.934429
-1.03284
-1.14091
-1.25849
-1.38539
-1.52138
-1.66614
-1.81927
-1.98022
-2.1482
-2.32207
-2.50019
-2.68093
-2.86251
-3.03719
-3.18979
-3.36205
-1.0449
-1.11747
-1.20042
-1.29361
-1.39693
-1.51022
-1.63331
-1.766
-1.90804
-2.05907
-2.21869
-2.38632
-2.56123
-2.74238
-2.92842
-3.11816
-3.31062
-3.50142
-3.68486
-3.89086
-1.41633
-1.49276
-1.57998
-1.67784
-1.78621
-1.90491
-2.03377
-2.17255
-2.32096
-2.47867
-2.64524
-2.8201
-3.00256
-3.19171
-3.38647
-3.58597
-3.78941
-3.99449
-4.20168
-4.43139
-1.81525
-1.89569
-1.98738
-2.09016
-2.20387
-2.32833
-2.46333
-2.60864
-2.76395
-2.9289
-3.10305
-3.28588
-3.47673
-3.67483
-3.87935
-4.08969
-4.30523
-4.52494
-4.75144
-4.99791
-2.24442
-2.32916
-2.42565
-2.53373
-2.65321
-2.78392
-2.92562
-3.07806
-3.24093
-3.41387
-3.59645
-3.78818
-3.98847
-4.19666
-4.41214
-4.6345
-4.86333
-5.09843
-5.34254
-5.60352
-2.70701
-2.79627
-2.89789
-3.01164
-3.13734
-3.27479
-3.42376
-3.58397
-3.75512
-3.93685
-4.12876
-4.33038
-4.54119
-4.76065
-4.98829
-5.22382
-5.46702
-5.71811
-5.97929
-6.25502
-3.20682
-3.30096
-3.408
-3.52778
-3.66011
-3.80479
-3.96158
-4.13021
-4.31037
-4.50172
-4.70387
-4.91639
-5.13882
-5.37072
-5.61171
-5.86156
-6.12018
-6.38791
-6.66631
-6.95786
-3.74939
-3.84843
-3.96111
-4.08719
-4.22653
-4.3789
-4.54405
-4.72172
-4.9116
-5.11337
-5.32666
-5.55107
-5.78621
-6.03169
-6.28719
-6.55253
-6.82765
-7.11285
-7.40912
-7.71784
-4.34145
-4.44545
-4.56395
-4.69654
-4.84316
-5.00359
-5.17757
-5.36484
-5.5651
-5.77804
-6.00331
-6.24056
-6.48943
-6.74956
-7.0207
-7.30265
-7.59537
-7.89901
-8.21414
-8.54155
-4.99238
-5.10128
-5.2254
-5.3647
-5.51878
-5.68751
-5.87067
-6.06797
-6.27915
-6.50389
-6.74189
-6.9928
-7.2563
-7.53208
-7.81988
-8.11952
-8.43089
-8.75402
-9.08916
-9.43679
-5.71511
-5.8286
-5.95825
-6.1039
-6.26545
-6.44254
-6.635
-6.8426
-7.06504
-7.30203
-7.5533
-7.81853
-8.09742
-8.38965
-8.695
-9.01325
-9.34425
-9.68789
-10.0442
-10.4135
-6.52779
-6.64522
-6.77988
-6.93149
-7.09997
-7.28539
-7.48709
-7.70484
-7.93856
-8.18797
-8.45279
-8.73272
-9.02745
-9.3367
-9.66022
-9.9978
-10.3492
-10.7142
-11.0927
-11.485
-7.45623
-7.57655
-7.71524
-7.87204
-8.04672
-8.23927
-8.45049
-8.67759
-8.92223
-9.18377
-9.46195
-9.75652
-10.0672
-10.3936
-10.7356
-11.0929
-11.4652
-11.8522
-12.2536
-12.6696
-8.53865
-8.66014
-8.80126
-8.96178
-9.14152
-9.34003
-9.55682
-9.79416
-10.0495
-10.3221
-10.6129
-10.9216
-11.2478
-11.5913
-11.9516
-12.3284
-12.7216
-13.1306
-13.5551
-13.9953
-9.83497
-9.9551
-10.0962
-10.2581
-10.4408
-10.6438
-10.8666
-11.1094
-11.3723
-11.6558
-11.9584
-12.2804
-12.6214
-12.9807
-13.358
-13.7534
-14.1665
-14.5969
-15.0439
-15.5078
-11.4267
-11.5423
-11.6805
-11.8412
-12.0241
-12.2288
-12.4551
-12.7029
-12.972
-13.2625
-13.5753
-13.909
-14.2619
-14.6334
-15.0245
-15.4358
-15.867
-16.317
-16.785
-17.2709
-13.3848
-13.4928
-13.625
-13.7811
-13.9598
-14.1615
-14.3864
-14.6343
-14.905
-15.1979
-15.5124
-15.8487
-16.2086
-16.5925
-16.9987
-17.426
-17.8738
-18.3419
-18.8292
-19.3349
-16.0003
-16.0922
-16.2082
-16.3497
-16.518
-16.7123
-16.9319
-17.1764
-17.4454
-17.7385
-18.0552
-18.395
-18.7584
-19.1458
-19.557
-19.9915
-20.4491
-20.9305
-21.4355
-21.9593
-20.9311
-21.0035
-21.1068
-21.2386
-21.398
-21.5841
-21.7965
-22.0348
-22.2986
-22.5876
-22.9016
-23.2406
-23.6047
-23.9941
-24.4091
-24.8495
-25.3164
-25.8139
-26.3442
-26.8899
-27.4065
-22.4937
-19.8583
-17.7747
-15.9886
-14.4513
-13.1003
-11.8908
-10.7957
-9.79682
-8.88115
-8.03897
-7.26267
-6.54601
-5.88381
-5.27154
-4.70393
-4.17542
-3.69448
-3.29008
-27.951
-23.0444
-20.3974
-18.2936
-16.4837
-14.9207
-13.5436
-12.3087
-11.1893
-10.1677
-9.23128
-8.3704
-7.57761
-6.84682
-6.17302
-5.55176
-4.97833
-4.45032
-3.98088
-3.5784
-28.5241
-23.6139
-20.9538
-18.8286
-16.9935
-15.4036
-13.9995
-12.7382
-11.5937
-10.5488
-9.59099
-8.71092
-7.90114
-7.1556
-6.46924
-5.83754
-5.25589
-4.72199
-4.24541
-3.82343
-29.1216
-24.203
-21.5273
-19.3793
-17.5175
-15.8995
-14.4672
-13.1784
-12.008
-10.939
-9.95921
-9.0592
-8.23159
-7.47019
-6.76973
-6.12545
-5.53244
-4.98778
-4.49821
-4.05749
-29.7404
-24.811
-22.1175
-19.9452
-18.0552
-16.4076
-14.9459
-13.6288
-12.4315
-11.3377
-10.3351
-9.41439
-8.56813
-7.78996
-7.07436
-6.41623
-5.8104
-5.25335
-4.74998
-4.29312
-30.379
-25.4384
-22.7223
-20.5253
-18.6057
-16.9272
-15.435
-14.0885
-12.8635
-11.744
-10.7178
-9.7758
-8.91021
-8.11456
-7.38307
-6.71038
-6.09108
-5.52131
-5.00466
-4.53372
-31.0361
-26.0837
-23.3414
-21.1186
-19.1682
-17.4575
-15.9336
-14.5567
-13.3032
-12.1572
-11.1069
-10.1429
-9.2575
-8.44389
-7.69612
-7.00857
-6.3757
-5.79339
-5.26417
-4.78055
-31.7106
-26.7449
-23.9746
-21.7243
-19.7417
-17.9977
-16.441
-15.0328
-13.7499
-12.5769
-11.5018
-10.5154
-9.60969
-8.77782
-8.01355
-7.31107
-6.6647
-6.07014
-5.52892
-5.03352
-32.401
-27.4205
-24.6212
-22.3415
-20.3255
-18.5469
-16.9564
-15.5159
-14.203
-13.0022
-11.9019
-10.8927
-9.96643
-9.11612
-8.33527
-7.61787
-6.95813
-6.35155
-5.79873
-5.29216
-33.1061
-28.1094
-25.28
-22.9694
-20.9186
-19.1042
-17.4789
-16.0054
-14.6616
-13.4326
-12.3066
-11.2743
-10.3273
-9.45845
-8.66098
-7.92871
-7.2557
-6.63727
-6.07311
-5.55572
-33.8247
-28.8104
-25.95
-23.6069
-21.52
-19.6687
-18.0076
-16.5003
-15.1251
-13.8673
-12.7154
-11.6597
-10.6919
-9.80435
-8.99026
-8.24316
-7.55696
-6.92676
-6.35139
-5.82342
-34.5557
-29.5225
-26.6301
-24.253
-22.1287
-20.2396
-18.5418
-16.9999
-15.5927
-14.3058
-13.1276
-12.0483
-11.0595
-10.1533
-9.32258
-8.56068
-7.86133
-7.21939
-6.63289
-6.09446
-35.2979
-30.2445
-27.319
-24.9066
-22.7437
-20.8156
-19.0804
-17.5032
-16.0636
-14.7472
-13.5424
-12.4395
-11.4296
-10.5047
-9.65734
-8.88065
-8.16817
-7.5145
-6.91687
-6.36809
-36.0503
-30.9752
-28.0157
-25.5665
-23.3639
-21.396
-19.6224
-18.0094
-16.5369
-15.1907
-13.9592
-12.8325
-11.8015
-10.8578
-9.9939
-9.20245
-8.47684
-7.8114
-7.20263
-6.64357
-36.8116
-31.7134
-28.7188
-26.2316
-23.9882
-21.9795
-20.1669
-18.5176
-17.0118
-15.6355
-14.3772
-13.2266
-12.1745
-11.2121
-10.3316
-9.52541
-8.78667
-8.10943
-7.48949
-6.92021
-37.5809
-32.4578
-29.427
-26.9007
-24.6154
-22.5651
-20.7129
-19.0267
-17.4874
-16.0809
-14.7956
-13.6212
-12.5479
-11.5669
-10.6698
-9.84887
-9.097
-8.40793
-7.77679
-7.19736
-38.3575
-33.2072
-30.1391
-27.5725
-25.2443
-23.1516
-21.2592
-19.5359
-17.9627
-16.5259
-15.2136
-14.0153
-12.921
-11.9213
-11.0078
-10.1722
-9.4072
-8.70628
-8.06391
-7.47444
-39.1428
-33.9612
-30.8535
-28.2453
-25.8734
-23.7377
-21.8046
-20.0438
-18.4367
-16.9695
-15.6304
-14.4082
-13.2929
-12.2748
-11.3448
-10.4946
-9.71661
-9.00383
-8.35025
-7.75086
-39.9371
-34.7185
-31.5683
-28.9175
-26.5014
-24.3222
-22.3482
-20.5497
-18.9086
-17.4111
-16.0451
-14.7993
-13.6631
-12.6266
-11.6803
-10.8157
-10.0246
-9.30001
-8.63524
-8.02611
-40.7276
-35.4741
-32.2819
-29.588
-27.1276
-24.9047
-22.8895
-21.0532
-19.378
-17.8501
-16.4573
-15.188
-14.0311
-12.9763
-12.0139
-11.1348
-10.3308
-9.59435
-8.91843
-8.29975
-6.77869
-4.67312
-3.31324
-2.268
-1.5337
-0.994399
-0.607029
-0.332017
-0.141052
-0.0123989
0.0705605
0.120454
0.14686
0.156934
0.155986
0.147887
0.13545
0.120674
0.104968
0.0892989
0.0743111
0.0604153
0.0478479
0.0367285
0.0270782
0.0188767
0.0120304
0.00647454
0.00203954
-0.00130346
-0.00381782
-0.00539499
-0.00648427
-0.00667263
-0.00679887
-0.00586134
-0.00544681
-0.00351505
-0.00296726
3.92844e-05
-7.03432
-4.85547
-3.45947
-2.38315
-1.62474
-1.06803
-0.66709
-0.381633
-0.182426
-0.047151
0.041229
0.095622
0.125808
0.139084
0.140866
0.135101
0.124663
0.1116
0.0973611
0.082946
0.0690282
0.0560428
0.044247
0.0337794
0.0246767