/*--------------------------------*- C++ -*----------------------------------*\
| =========                 |                                                 |
| \\      /  F ield         | OpenFOAM: The Open Source CFD Toolbox           |
|  \\    /   O peration     | Version:  v1912                                 |
|   \\  /    A nd           | Website:  www.openfoam.com                      |
|    \\/     M anipulation  |                                                 |
\*---------------------------------------------------------------------------*/
FoamFile
{
    version     2.0;
    format      ascii;
    class       volVectorField;
    location    "31";
    object      U;
}
// * * * * * * * * * * * * * * * * * * * * * * * * * * * * * * * * * * * * * //

dimensions      [0 1 -1 0 0 0 0];


internalField   nonuniform List<vector> 
9600
(
(0.456635 -9.36476 -1.53875e-19)
(0.159539 -8.63785 0)
(0.241181 -8.16519 -9.02971e-20)
(0.319207 -7.84511 0)
(0.385785 -7.60849 0)
(0.45346 -7.41213 -3.17377e-20)
(0.518277 -7.23217 -5.43468e-22)
(0.57712 -7.05647 2.651e-20)
(0.629228 -6.87973 0)
(0.67463 -6.70055 -4.49329e-20)
(0.713716 -6.51953 0)
(0.747105 -6.33821 -1.82428e-21)
(0.775527 -6.15838 -2.60266e-21)
(0.799733 -5.98172 -3.13675e-20)
(0.820438 -5.8096 2.64399e-20)
(0.838291 -5.64298 -2.59763e-20)
(0.853837 -5.48231 2.31187e-20)
(0.867619 -5.32752 0)
(0.880416 -5.17784 -1.83789e-20)
(0.891948 -5.03174 2.01521e-20)
(0.824677 -9.3542 -3.07783e-19)
(0.50218 -8.66554 1.17665e-20)
(0.567019 -8.20894 1.8601e-19)
(0.633505 -7.89828 -1.58453e-19)
(0.691024 -7.66622 1.56265e-19)
(0.750607 -7.47035 0)
(0.807502 -7.28811 6.05215e-20)
(0.85826 -7.10846 -6.03732e-20)
(0.902042 -6.92689 -1.04683e-19)
(0.938937 -6.74256 1.32337e-19)
(0.969443 -6.5565 -8.59157e-20)
(0.994301 -6.37048 -3.50504e-20)
(1.01435 -6.18644 7.07619e-20)
(1.03044 -6.00612 0)
(1.04333 -5.83093 0)
(1.05372 -5.6618 9.90848e-20)
(1.06217 -5.49917 -1.67985e-19)
(1.06922 -5.3429 0)
(1.07574 -5.1921 0)
(1.08119 -5.04515 -7.75994e-20)
(1.19305 -9.3301 6.35901e-19)
(0.847061 -8.68036 0)
(0.89637 -8.24001 -3.76261e-19)
(0.952049 -7.93888 -3.40936e-19)
(1.00081 -7.71137 0)
(1.05228 -7.51596 5.44496e-19)
(1.10103 -7.33146 -5.13974e-19)
(1.14335 -7.14795 1.00701e-19)
(1.17841 -6.96175 -2.24198e-19)
(1.20638 -6.77256 -3.72669e-19)
(1.22792 -6.5818 5.08583e-19)
(1.24389 -6.39146 -3.14384e-19)
(1.25527 -6.20363 -1.40849e-19)
(1.26297 -6.02008 0)
(1.26785 -5.84224 5.50506e-21)
(1.27061 -5.67102 1.04456e-19)
(1.27183 -5.50684 4.51292e-20)
(1.27207 -5.34949 0)
(1.27225 -5.19796 8.17949e-20)
(1.27152 -5.05057 8.3835e-20)
(1.56064 -9.29209 -8.60206e-19)
(1.19359 -8.68204 -4.02902e-19)
(1.22868 -8.2582 3.90839e-19)
(1.27428 -7.9666 6.71262e-19)
(1.31456 -7.74356 -3.25766e-19)
(1.35788 -7.54857 5.75083e-21)
(1.39824 -7.36185 2.52786e-19)
(1.43178 -7.17464 2.28899e-19)
(1.45771 -6.98404 4.19091e-19)
(1.47637 -6.79032 0)
(1.48856 -6.59524 1.61317e-19)
(1.49532 -6.40102 -1.71246e-19)
(1.49774 -6.20984 1.03276e-20)
(1.49684 -6.02352 2.69779e-19)
(1.49351 -5.84347 2.31166e-19)
(1.48852 -5.67059 -3.26295e-19)
(1.48241 -5.50526 1.07456e-19)
(1.47578 -5.34722 -1.74875e-19)
(1.46962 -5.19535 1.74049e-19)
(1.46263 -5.04795 -8.38776e-20)
(1.92715 -9.24011 4.33799e-19)
(1.54148 -8.67042 0)
(1.56354 -8.26324 3.83699e-19)
(1.59969 -7.9811 0)
(1.63173 -7.76246 0)
(1.66682 -7.56784 -2.99285e-19)
(1.69852 -7.37898 -5.35282e-19)
(1.72292 -7.18824 -4.53643e-19)
(1.73933 -6.99352 1.84294e-20)
(1.74829 -6.79563 -1.95945e-19)
(1.75079 -6.59666 0)
(1.74804 -6.39901 -1.61717e-19)
(1.74126 -6.20495 -2.91255e-19)
(1.73154 -6.01633 2.56041e-19)
(1.71987 -5.83453 -7.2757e-19)
(1.707 -5.66043 1.17746e-19)
(1.6935 -5.49437 9.3265e-20)
(1.67999 -5.33605 -1.92338e-19)
(1.66748 -5.18423 -8.40129e-20)
(1.65421 -5.03726 2.50506e-19)
(2.29203 -9.17407 4.18459e-19)
(1.89023 -8.64528 4.14784e-19)
(1.90043 -8.25484 0)
(1.92771 -7.98208 0)
(1.95171 -7.76772 -6.22124e-19)
(1.97847 -7.57347 3.40148e-19)
(2.00124 -7.38255 8.18024e-19)
(2.01613 -7.1885 0)
(2.02265 -6.98999 2.16042e-19)
(2.02154 -6.78833 1.95945e-19)
(2.01403 -6.58592 -3.46039e-19)
(2.00149 -6.38534 5.01796e-19)
(1.98528 -6.1889 1.47202e-19)
(1.96658 -5.99846 0)
(1.94643 -5.81538 1.22482e-19)
(1.92561 -5.6405 5.49643e-19)
(1.90468 -5.47414 -3.2752e-19)
(1.88427 -5.31594 3.67864e-19)
(1.86546 -5.16456 -6.99459e-19)
(1.8459 -5.01846 8.08636e-19)
(2.65475 -9.09394 4.25545e-19)
(2.23934 -8.60641 -2.253e-18)
(2.23882 -8.23274 0)
(2.25778 -7.96923 0)
(2.27387 -7.75905 0)
(2.29218 -7.56516 -6.03339e-19)
(2.30573 -7.37232 0)
(2.31076 -7.17522 -9.66506e-19)
(2.307 -6.97327 8.91358e-19)
(2.29549 -6.76828 -8.27687e-19)
(2.27766 -6.56292 0)
(2.25509 -6.35992 0)
(2.22926 -6.16162 0)
(2.20145 -5.96987 -2.79769e-19)
(2.17272 -5.78599 0)
(2.14388 -5.61079 0)
(2.1155 -5.44456 -4.10345e-19)
(2.08822 -5.28687 4.03177e-19)
(2.06316 -5.13633 0)
(2.03735 -4.99156 0)
(3.01478 -8.99974 -1.38445e-18)
(2.58825 -8.55367 8.9688e-19)
(2.57813 -8.1967 0)
(2.58927 -7.94228 0)
(2.59758 -7.73617 0)
(2.60728 -7.54267 5.73815e-19)
(2.61131 -7.34808 -5.75513e-19)
(2.60612 -7.14821 -8.8188e-21)
(2.59174 -6.94323 -8.92355e-19)
(2.5695 -6.73538 8.35449e-19)
(2.54109 -6.5276 -3.76771e-19)
(2.50827 -6.32272 6.5495e-19)
(2.47265 -6.1231 -4.62842e-20)
(2.43561 -5.93056 -5.92361e-19)
(2.39824 -5.74637 -4.99058e-19)
(2.36135 -5.5713 4.90309e-19)
(2.32551 -5.40562 0)
(2.29141 -5.24886 0)
(2.26017 -5.09954 3.54544e-19)
(2.22816 -4.95655 -3.90247e-19)
(3.37154 -8.89148 9.2531e-19)
(2.9364 -8.4869 8.80904e-19)
(2.91776 -8.1465 -1.66947e-18)
(2.92155 -7.901 7.88489e-19)
(2.92216 -7.69887 0)
(2.92307 -7.50579 6.14023e-19)
(2.91729 -7.30964 -5.38817e-19)
(2.90153 -7.10734 1.52257e-18)
(2.8762 -6.89977 -2.36298e-20)
(2.84293 -6.68957 0)
(2.80369 -6.47992 7.60176e-19)
(2.76044 -6.27372 0)
(2.71491 -6.07333 0)
(2.66854 -5.88053 -2.70898e-19)
(2.62248 -5.69653 5.46433e-19)
(2.57754 -5.52205 0)
(2.53426 -5.35735 4.28368e-19)
(2.49338 -5.20192 1.78246e-19)
(2.45606 -5.0542 -3.86855e-19)
(2.41795 -4.91347 3.75603e-19)
(3.72449 -8.76924 -9.52892e-19)
(3.28321 -8.406 8.95198e-19)
(3.25709 -8.08198 -2.54917e-18)
(3.25396 -7.84517 8.01503e-19)
(3.24692 -7.64692 0)
(3.23887 -7.45435 -1.23912e-18)
(3.22296 -7.25688 5.95235e-19)
(3.19631 -7.05252 0)
(3.1597 -6.84282 -4.72282e-19)
(3.11513 -6.63082 -8.18895e-19)
(3.06485 -6.41986 -7.13315e-19)
(3.01101 -6.21292 5.33067e-20)
(2.95546 -6.01233 6.67106e-19)
(2.89972 -5.81982 2.70676e-19)
(2.84494 -5.63651 -3.78142e-20)
(2.79194 -5.46309 -5.09666e-19)
(2.74126 -5.29978 -2.27899e-19)
(2.69367 -5.14607 -2.05427e-19)
(2.65037 -5.00035 5.47865e-19)
(2.60629 -4.86235 -8.16553e-19)
(4.07306 -8.63309 9.52895e-19)
(3.62807 -8.31091 -4.65907e-20)
(3.59549 -8.00298 8.19244e-19)
(3.58582 -7.77465 0)
(3.57116 -7.58019 -6.77933e-19)
(3.55394 -7.38822 1.30259e-18)
(3.52761 -7.18969 -1.11297e-18)
(3.48974 -6.98368 1.09523e-18)
(3.44156 -6.77235 -4.43521e-19)
(3.38545 -6.55911 9.00471e-19)
(3.32395 -6.34744 3.89832e-19)
(3.2594 -6.14035 0)
(3.19376 -5.94015 0)
(3.1286 -5.74846 -2.80659e-19)
(3.0651 -5.56635 3.82273e-20)
(3.00406 -5.39444 1.00358e-18)
(2.94601 -5.23296 -2.48287e-19)
(2.89179 -5.08136 8.19723e-19)
(2.84263 -4.93802 1.43345e-19)
(2.79271 -4.80322 -8.33985e-19)
(4.4167 -8.48316 -2.93168e-18)
(3.97039 -8.20158 -9.83679e-19)
(3.93231 -7.90941 -2.62259e-18)
(3.91645 -7.68929 -1.59499e-18)
(3.89415 -7.49855 -7.5643e-19)
(3.86757 -7.3073 -7.39285e-19)
(3.83052 -7.10802 -2.41224e-18)
(3.78113 -6.90079 -4.89305e-20)
(3.72112 -6.68838 -1.93736e-18)
(3.65326 -6.47447 3.01916e-20)
(3.58039 -6.2627 -8.04008e-19)
(3.50503 -6.05608 -7.32496e-19)
(3.42925 -5.85684 6.68541e-19)
(3.35466 -5.66653 -6.11282e-19)
(3.28244 -5.48612 -5.59937e-19)
(3.21339 -5.31619 -5.13811e-19)
(3.14803 -5.15694 -1.37933e-18)
(3.08724 -5.00784 4.90809e-19)
(3.03233 -4.86724 1.19063e-18)
(2.97675 -4.73612 -1.26728e-18)
(4.75487 -8.31957 3.94315e-18)
(4.30956 -8.07803 4.84233e-18)
(4.2669 -7.80119 8.31553e-19)
(4.24516 -7.58901 3.98349e-18)
(4.21519 -7.40193 -7.80598e-19)
(4.17902 -7.21156 3.89928e-18)
(4.13097 -7.01185 1.14027e-18)
(4.06978 -6.80388 3.20073e-18)
(3.99769 -6.59093 -9.78195e-19)
(3.91791 -6.37696 2.70783e-18)
(3.83354 -6.16571 1.61945e-18)
(3.74731 -5.96016 1.47557e-18)
(3.66136 -5.76247 -1.9973e-18)
(3.57734 -5.57409 1.87078e-18)
(3.49644 -5.39589 1.12851e-18)
(3.41941 -5.22839 1.03577e-18)
(3.34678 -5.07179 9.52271e-19)
(3.2795 -4.92556 7.32315e-21)
(3.21895 -4.78808 8.08133e-19)
(3.15793 -4.66109 8.41053e-19)
(5.08703 -8.14249 -2.92791e-18)
(4.645 -7.94028 1.07881e-18)
(4.5986 -7.67829 2.66776e-18)
(4.57123 -7.47376 -3.2496e-18)
(4.53354 -7.29028 7.50879e-19)
(4.48756 -7.10097 -2.6086e-18)
(4.42825 -6.9012 1.27838e-18)
(4.35499 -6.69298 -2.14153e-18)
(4.27063 -6.48007 4.88921e-20)
(4.17877 -6.26667 1.18603e-20)
(4.08283 -6.05655 -1.64178e-18)
(3.98567 -5.85267 -7.43075e-19)
(3.88956 -5.65711 1.36608e-18)
(3.79613 -5.4712 8.70289e-21)
(3.70656 -5.29571 -3.70456e-20)
(3.6216 -5.1311 -1.08114e-18)
(3.54173 -4.97757 -4.79997e-19)
(3.46802 -4.83458 -2.70197e-20)
(3.40193 -4.70058 -8.42312e-19)
(3.33568 -4.57826 -4.24748e-19)
(5.41268 -7.9521 0)
(4.97612 -7.78839 -1.99315e-18)
(4.92676 -7.5407 2.35535e-20)
(4.89397 -7.34353 3.24467e-18)
(4.84848 -7.16362 1.35751e-18)
(4.79247 -6.97558 -1.41324e-18)
(4.72163 -6.77615 -1.21707e-18)
(4.63609 -6.5682 0)
(4.53928 -6.35592 -9.68269e-19)
(4.43524 -6.14369 9.24003e-19)
(4.32766 -5.93533 -3.89396e-20)
(4.21958 -5.73373 0)
(4.11331 -5.54086 -6.87713e-19)
(4.0105 -5.35794 5.95491e-19)
(3.9123 -5.18564 4.9731e-19)
(3.8194 -5.02434 -6.00638e-19)
(3.7323 -4.87426 -5.20934e-19)
(3.65213 -4.73487 9.04381e-19)
(3.58052 -4.60473 -8.3453e-19)
(3.50917 -4.48768 4.39277e-19)
(5.73136 -7.74859 3.02458e-18)
(5.30235 -7.62244 -2.0527e-18)
(5.25072 -7.38845 -1.75115e-18)
(5.21266 -7.19834 8.15099e-19)
(5.15927 -7.022 -1.58139e-18)
(5.09302 -6.83547 0)
(5.01042 -6.6368 0)
(4.9124 -6.42965 0)
(4.80301 -6.2186 -4.4331e-20)
(4.68672 -6.00818 -1.85435e-18)
(4.56749 -5.80219 8.75695e-19)
(4.44851 -5.60344 7.40344e-19)
(4.33212 -5.4138 6.26268e-19)
(4.21998 -5.23437 -2.57025e-18)
(4.11317 -5.06571 1.21841e-18)
(4.01235 -4.90814 0)
(3.91796 -4.76185 -3.02907e-20)
(3.83123 -4.62637 -1.40279e-18)
(3.75392 -4.50045 -5.66878e-21)
(3.67743 -4.38901 -4.39759e-19)
(6.04271 -7.53223 -2.05737e-18)
(5.62313 -7.44255 -1.08219e-18)
(5.5698 -7.22161 8.1483e-19)
(5.5266 -7.03825 -1.43774e-19)
(5.46519 -6.8655 -4.60919e-18)
(5.38848 -6.68075 4.17046e-18)
(5.29392 -6.48329 -4.87518e-20)
(5.18326 -6.27751 1.14177e-18)
(5.0612 -6.0683 1.02424e-18)
(4.93263 -5.86029 9.40284e-19)
(4.80179 -5.65726 8.55504e-19)
(4.67196 -5.46193 1.52859e-18)
(4.54554 -5.27604 -7.35701e-19)
(4.42414 -5.10058 1.90647e-18)
(4.30878 -4.93599 -1.23246e-18)
(4.20006 -4.78254 -5.09666e-19)
(4.09837 -4.64043 2.04721e-18)
(4.00498 -4.5092 1.36749e-18)
(3.92185 -4.38763 -2.78244e-20)
(3.84043 -4.28157 0)
(6.3467 -7.30351 -1.04601e-18)
(5.93808 -7.24891 2.06792e-18)
(5.88333 -7.04023 1.80974e-18)
(5.83503 -6.86333 -1.45736e-19)
(5.76549 -6.69421 -1.56379e-18)
(5.67813 -6.51156 7.05089e-20)
(5.57142 -6.31581 1.30762e-20)
(5.44803 -6.11196 1.16529e-20)
(5.31326 -5.90521 0)
(5.17245 -5.70023 9.19566e-19)
(5.03005 -5.50073 -1.7502e-18)
(4.88946 -5.30933 -7.48739e-19)
(4.75308 -5.12765 7.433e-19)
(4.62247 -4.95657 -6.52043e-19)
(4.49859 -4.79646 6.03814e-19)
(4.38195 -4.64756 -5.49604e-19)
(4.27296 -4.51008 4.87685e-21)
(4.17299 -4.38339 -4.66804e-19)
(4.08429 -4.26622 -4.31171e-19)
(3.99872 -4.16621 -4.31452e-19)
(6.64368 -7.0629 0)
(6.24693 -7.04144 -1.00807e-18)
(6.19068 -6.84424 9.96506e-19)
(6.13722 -6.67364 1.73794e-18)
(6.05942 -6.50833 -1.57234e-18)
(5.96125 -6.32816 1.35791e-18)
(5.84227 -6.13462 -2.61084e-18)
(5.70608 -5.93333 -2.31791e-18)
(5.55864 -5.72965 -1.01091e-18)
(5.40567 -5.52827 4.42772e-20)
(5.25185 -5.33283 -8.36808e-19)
(5.10064 -5.1458 3.4797e-20)
(4.95439 -4.96869 0)
(4.81458 -4.80225 -1.27896e-18)
(4.68203 -4.64684 6.5274e-19)
(4.55713 -4.50271 0)
(4.44034 -4.36997 -5.10992e-19)
(4.33324 -4.24778 -9.18566e-19)
(4.23808 -4.13576 9.02583e-19)
(4.14732 -4.04646 4.45506e-19)
(6.93325 -6.80962 0)
(6.54907 -6.81945 0)
(6.49112 -6.63356 -1.84802e-18)
(6.4324 -6.46947 -1.58843e-18)
(6.34629 -6.30823 3.22419e-18)
(6.23722 -6.13096 0)
(6.1059 -5.94019 0)
(5.95693 -5.74203 1.16447e-18)
(5.79691 -5.54203 0)
(5.63196 -5.34483 0)
(5.46695 -5.15393 0)
(5.30537 -4.97166 0)
(5.1495 -4.79935 0)
(5.00066 -4.63765 0)
(4.8594 -4.48682 0)
(4.72585 -4.34702 0)
(4.60027 -4.21813 0)
(4.48374 -4.09949 0)
(4.37639 -3.99415 0)
(4.2721 -3.91931 0)
(10.0408 0.0877182 1.46786e-19)
(10.0204 -0.307568 2.85574e-19)
(9.98469 -0.700184 -2.93325e-19)
(9.93427 -1.08999 5.84836e-19)
(9.86887 -1.47664 -5.84835e-19)
(9.78834 -1.85964 -5.52572e-19)
(9.69279 -2.23845 -5.51034e-19)
(9.58244 -2.61251 1.73571e-18)
(9.45751 -2.98129 -1.15642e-18)
(9.31827 -3.34422 1.14676e-18)
(9.165 -3.70076 -1.14676e-18)
(8.998 -4.05038 1.13832e-18)
(8.81761 -4.39256 -2.25745e-18)
(8.62416 -4.72679 3.32424e-18)
(8.41804 -5.0526 0)
(8.19963 -5.36953 -3.26616e-18)
(7.96932 -5.67716 1.62212e-20)
(7.72763 -5.97512 3.29185e-18)
(7.47467 -6.26327 0)
(7.21212 -6.54093 0)
(10.1133 -0.210781 0)
(10.0722 -0.606628 -1.50247e-20)
(10.0144 -0.998688 0)
(9.9404 -1.38662 5.59392e-19)
(9.85059 -1.77001 5.82606e-19)
(9.74513 -2.14824 -1.68607e-18)
(9.6243 -2.52069 2.93584e-18)
(9.48847 -2.88673 -1.15891e-18)
(9.338 -3.24577 -1.1046e-18)
(9.17327 -3.59722 -1.1001e-18)
(8.99472 -3.94051 4.45295e-20)
(8.80277 -4.27509 1.12733e-18)
(8.59789 -4.60045 -5.60414e-18)
(8.38056 -4.91609 -1.17555e-18)
(8.15126 -5.22155 2.23944e-18)
(7.91051 -5.51638 2.23662e-18)
(7.65878 -5.80022 1.13648e-18)
(7.39665 -6.07271 -2.19119e-18)
(7.12422 -6.33362 1.03758e-18)
(6.84242 -6.58259 0)
(10.0618 -0.149414 1.32103e-19)
(10.0242 -0.540711 -2.70542e-19)
(9.96918 -0.928846 7.81197e-19)
(9.8972 -1.31313 -5.5352e-19)
(9.80864 -1.6929 -5.27705e-19)
(9.70386 -2.06746 5.51024e-19)
(9.58323 -2.43608 0)
(9.44714 -2.79806 0)
(9.29603 -3.15275 2.09209e-18)
(9.13033 -3.4995 3.12103e-18)
(8.95051 -3.83769 -9.86981e-19)
(8.75708 -4.16674 3.08624e-18)
(8.55055 -4.48608 -9.82838e-19)
(8.33145 -4.79517 -3.00605e-18)
(8.10034 -5.09352 1.35188e-20)
(7.85778 -5.38066 1.92944e-18)
(7.6043 -5.65616 -8.70685e-19)
(7.3405 -5.91961 -1.89835e-18)
(7.06671 -6.17062 -1.02567e-18)
(6.78367 -6.40872 1.86579e-18)
(9.89364 -0.112814 0)
(9.86274 -0.49481 2.28009e-19)
(9.81459 -0.874469 2.27066e-19)
(9.74938 -1.2509 -9.32935e-19)
(9.66744 -1.62329 0)
(9.5691 -1.99088 0)
(9.45472 -2.3529 0)
(9.32469 -2.70861 0)
(9.1794 -3.0573 -9.87411e-19)
(9.01932 -3.39826 -9.83672e-19)
(8.8449 -3.73085 0)
(8.65666 -4.05442 1.85964e-18)
(8.45512 -4.36836 -4.59775e-18)
(8.24084 -4.6721 3.69714e-18)
(8.01437 -4.96509 -3.58338e-18)
(7.77631 -5.2468 -8.69517e-19)
(7.52723 -5.51675 1.56205e-19)
(7.26774 -5.77447 1.54623e-19)
(6.99836 -6.0195 -1.77114e-18)
(6.71981 -6.25135 -7.08508e-20)
(9.63935 -0.0993643 0)
(9.61582 -0.469095 -2.24868e-19)
(9.57547 -0.837142 0)
(9.51837 -1.2026 4.49858e-19)
(9.44477 -1.56464 4.2879e-19)
(9.35495 -1.92247 3.91942e-19)
(9.24922 -2.27532 0)
(9.12791 -2.62241 0)
(8.9914 -2.96301 0)
(8.8401 -3.2964 0)
(8.67446 -3.6219 8.09735e-19)
(8.49495 -3.93883 8.72557e-19)
(8.30209 -4.24655 8.67623e-19)
(8.0964 -4.54446 -8.8086e-19)
(7.87845 -4.83195 -1.5155e-18)
(7.64881 -5.10847 1.72095e-18)
(7.40807 -5.37349 3.33647e-18)
(7.15685 -5.62647 1.62284e-18)
(6.89573 -5.86694 0)
(6.6254 -6.09438 -1.52934e-18)
(9.33166 -0.0905505 4.62016e-20)
(9.31505 -0.446091 0)
(9.28225 -0.800516 -7.57155e-19)
(9.23327 -1.15297 1.85997e-23)
(9.16827 -1.50264 1.61284e-20)
(9.08747 -1.84873 -6.83493e-20)
(8.99115 -2.19048 0)
(8.87957 -2.52712 3.08507e-20)
(8.75309 -2.85791 -7.68679e-19)
(8.61205 -3.18215 1.49759e-18)
(8.45686 -3.49911 -1.56176e-18)
(8.28796 -3.80814 8.53392e-19)
(8.10582 -4.10857 -4.47206e-18)
(7.91095 -4.39977 2.94957e-18)
(7.70387 -4.68113 1.56379e-18)
(7.48513 -4.95206 0)
(7.25531 -5.21199 -2.88612e-18)
(7.01502 -5.46038 -6.14278e-20)
(6.76483 -5.69668 -2.84234e-18)
(6.5054 -5.92039 2.95459e-18)
(8.99893 -0.085699 4.15418e-20)
(8.98793 -0.426237 -8.70339e-20)
(8.96147 -0.766125 7.13629e-19)
(8.91953 -1.10456 -1.40323e-20)
(8.86222 -1.44077 7.13481e-19)
(8.7897 -1.77397 -1.07766e-18)
(8.7022 -2.10343 0)
(8.59997 -2.4284 7.26507e-19)
(8.48327 -2.74817 6.65084e-19)
(8.35243 -3.06203 -7.22443e-19)
(8.20782 -3.36928 1.32155e-18)
(8.04981 -3.66927 2.80212e-18)
(7.87885 -3.96134 -1.30295e-18)
(7.6954 -4.24486 -1.41263e-18)
(7.49995 -4.5192 1.35456e-18)
(7.29302 -4.78377 0)
(7.07516 -5.03799 6.47638e-20)
(6.84694 -5.28129 9.74351e-21)
(6.60894 -5.51312 2.69266e-18)
(6.36174 -5.73292 1.25168e-18)
(8.66224 -0.0844595 0)
(8.65527 -0.410044 6.23792e-21)
(8.63363 -0.735321 -1.45159e-19)
(8.59725 -1.05955 -6.44791e-19)
(8.54622 -1.38197 6.06016e-19)
(8.48066 -1.70187 0)
(8.40076 -2.01853 1.23351e-18)
(8.30673 -2.33125 -1.35515e-21)
(8.1988 -2.63934 -1.88401e-18)
(8.07725 -2.94211 0)
(7.94241 -3.2389 -1.30051e-18)
(7.79462 -3.52907 4.5875e-20)
(7.63429 -3.81198 -3.65535e-18)
(7.46183 -4.08701 6.43509e-21)
(7.27771 -4.35356 1.22519e-18)
(7.08241 -4.61102 0)
(6.87645 -4.85881 -1.20256e-18)
(6.66037 -5.09637 8.64435e-21)
(6.43472 -5.32313 1.19393e-18)
(6.20006 -5.53852 -1.23174e-18)
(8.33534 -0.0854752 0)
(8.33099 -0.396685 1.48843e-19)
(8.31271 -0.70782 3.08835e-19)
(8.28045 -1.01818 -5.71563e-19)
(8.23426 -1.32707 -2.46504e-20)
(8.17425 -1.6338 -2.8565e-19)
(8.10056 -1.9377 -1.1435e-18)
(8.01339 -2.23809 5.68496e-19)
(7.91292 -2.53434 2.37461e-20)
(7.79942 -2.82578 5.65095e-19)
(7.67317 -3.11179 5.2013e-19)
(7.53449 -3.39176 2.25291e-18)
(7.38375 -3.66507 1.12692e-18)
(7.22132 -3.93113 2.22578e-18)
(7.04765 -4.18935 -1.10997e-18)
(6.8632 -4.43916 3.85621e-20)
(6.66845 -4.67998 -1.09688e-18)
(6.46392 -4.91124 0)
(6.25015 -5.13238 1.03676e-18)
(6.02763 -5.34282 0)
(8.0261 -0.0876283 6.47877e-20)
(8.02321 -0.385333 -1.89735e-19)
(8.00711 -0.683103 5.20438e-19)
(7.97774 -0.980286 -2.59633e-19)
(7.93513 -1.27623 1.89202e-20)
(7.87938 -1.57028 -2.5948e-19)
(7.81062 -1.8618 5.39488e-19)
(7.729 -2.15018 -5.16274e-19)
(7.63471 -2.43479 5.16271e-19)
(7.52797 -2.71503 9.90104e-19)
(7.40905 -2.9903 -1.06706e-18)
(7.27824 -3.26002 -4.49585e-20)
(7.13588 -3.52362 -3.08852e-18)
(6.98233 -3.78053 5.34827e-21)
(6.81799 -4.03019 4.0142e-20)
(6.64332 -4.27206 2.00218e-18)
(6.45878 -4.50557 -9.89008e-19)
(6.26487 -4.73018 -9.41972e-19)
(6.0621 -4.94531 -3.7354e-20)
(5.85096 -5.15037 0)
(7.73811 -0.0901779 0)
(7.73584 -0.375366 2.40999e-19)
(7.72101 -0.660694 -8.28616e-19)
(7.69356 -0.945547 -2.19805e-19)
(7.65353 -1.22931 4.91686e-19)
(7.60098 -1.51138 0)
(7.53605 -1.79116 0)
(7.45887 -2.06805 4.69936e-19)
(7.36961 -2.34149 -4.69933e-19)
(7.26848 -2.61089 3.95733e-19)
(7.15571 -2.87571 -4.66904e-19)
(7.03159 -3.13539 9.25904e-19)
(6.89643 -3.38941 -1.84722e-18)
(6.75057 -3.63724 1.83767e-18)
(6.59441 -3.87834 3.45592e-20)
(6.42837 -4.11222 -9.45223e-19)
(6.25293 -4.33833 -8.99379e-19)
(6.06856 -4.55613 1.83217e-18)
(5.8758 -4.76507 8.57593e-19)
(5.67509 -4.96452 0)
(7.47217 -0.0926526 1.87053e-21)
(7.46995 -0.366321 1.58198e-19)
(7.45575 -0.640156 3.32172e-19)
(7.42953 -0.91358 2.32524e-19)
(7.39131 -1.18601 2.15667e-19)
(7.34117 -1.45689 2.00596e-19)
(7.2792 -1.72563 0)
(7.20555 -1.9917 -8.29017e-19)
(7.12038 -2.25455 -4.27383e-19)
(7.02386 -2.51364 3.64489e-19)
(6.91624 -2.76846 0)
(6.79777 -3.0185 8.44118e-19)
(6.66874 -3.26325 -2.49646e-18)
(6.5295 -3.50224 8.39793e-19)
(6.38042 -3.73498 0)
(6.22193 -3.961 -7.9842e-19)
(6.05449 -4.17979 -1.61264e-18)
(5.8786 -4.39085 7.93504e-19)
(5.69481 -4.59359 -2.91147e-20)
(5.50356 -4.7874 0)
(7.22741 -0.0947542 3.45092e-21)
(7.22488 -0.357853 -1.0238e-19)
(7.2109 -0.621111 1.9756e-19)
(7.18543 -0.883986 -1.30684e-20)
(7.14848 -1.14593 3.94771e-19)
(7.10014 -1.4064 -6.06319e-19)
(7.04051 -1.66488 0)
(6.9697 -1.92082 5.58111e-20)
(6.88786 -2.17373 0)
(6.79519 -2.42311 -8.09365e-19)
(6.69188 -2.66846 0)
(6.57819 -2.90933 -7.46842e-19)
(6.45441 -3.14524 2.30841e-18)
(6.32085 -3.37576 -1.52965e-18)
(6.17789 -3.60045 7.62621e-19)
(6.02594 -3.81888 -6.74596e-19)
(5.86551 -4.03059 7.79426e-19)
(5.69708 -4.23511 -7.74092e-19)
(5.52129 -4.43184 0)
(5.33857 -4.62016 0)
(7.00205 -0.0963608 4.68423e-20)
(6.99904 -0.349737 0)
(6.98502 -0.603255 0)
(6.95998 -0.856398 -3.75307e-19)
(6.92396 -1.10865 -3.50241e-19)
(6.87701 -1.35948 0)
(6.81924 -1.60841 0)
(6.75076 -1.85493 4.96451e-20)
(6.67171 -2.09856 6.93573e-19)
(6.58227 -2.33884 -3.34463e-19)
(6.48264 -2.5753 -3.56378e-19)
(6.37305 -2.80751 1.43964e-18)
(6.25378 -3.03505 -2.13771e-18)
(6.12513 -3.25753 1.37844e-18)
(5.98747 -3.47455 0)
(5.84122 -3.68576 2.76933e-18)
(5.68689 -3.89071 -2.01055e-18)
(5.52501 -4.08904 6.8401e-19)
(5.35634 -4.28008 1.30805e-18)
(5.18129 -4.46326 0)
(6.79403 -0.0974071 -4.02648e-20)
(6.79041 -0.341814 0)
(6.77622 -0.586341 -5.19773e-21)
(6.75143 -0.830491 -3.22227e-19)
(6.71609 -1.07376 9.98518e-19)
(6.67027 -1.31568 -1.661e-19)
(6.61404 -1.55574 0)
(6.54753 -1.7935 1.32314e-18)
(6.47087 -2.02848 -6.81428e-19)
(6.38422 -2.26025 4.42892e-20)
(6.28778 -2.48839 6.31451e-19)
(6.18176 -2.71248 6.47261e-19)
(6.06643 -2.93215 -1.29074e-18)
(5.94207 -3.14705 -1.26245e-18)
(5.80904 -3.35682 -1.23307e-18)
(5.66775 -3.56121 -1.31227e-18)
(5.51877 -3.75977 1.30331e-18)
(5.3626 -3.95237 -6.22127e-19)
(5.20027 -4.13815 -6.63012e-19)
(5.03207 -4.31676 0)
(6.60112 -0.097872 3.95591e-20)
(6.59686 -0.333977 -1.48524e-19)
(6.58243 -0.570173 -1.53761e-19)
(6.55781 -0.805982 4.60401e-19)
(6.52303 -1.04093 -1.63514e-19)
(6.47815 -1.27454 -1.52829e-19)
(6.42327 -1.50637 0)
(6.3585 -1.73597 -6.28204e-19)
(6.28395 -1.9629 0)
(6.19979 -2.18674 6.23335e-19)
(6.10619 -2.4071 -1.20112e-18)
(6.00336 -2.62359 5.94562e-19)
(5.89154 -2.83588 -1.18547e-18)
(5.771 -3.04365 1.22337e-18)
(5.64208 -3.2466 6.6593e-19)
(5.50516 -3.4446 0)
(5.36085 -3.63718 -5.74682e-19)
(5.20963 -3.82457 5.74682e-19)
(5.05294 -4.00556 0)
(4.89076 -4.18051 0)
(6.4212 -0.0978422 0)
(6.41634 -0.326204 1.45923e-19)
(6.40168 -0.554627 4.70012e-21)
(6.37719 -0.78265 -1.50466e-19)
(6.34291 -1.00982 -1.32668e-19)
(6.29892 -1.23569 -1.40855e-19)
(6.24528 -1.45983 5.44389e-19)
(6.18211 -1.6818 0)
(6.10953 -1.9012 0)
(6.02768 -2.11763 2.76657e-19)
(5.93672 -2.3307 2.93909e-19)
(5.83685 -2.54008 1.06362e-18)
(5.72828 -2.74544 -5.43461e-19)
(5.61125 -2.94653 5.43459e-19)
(5.48608 -3.14307 5.76963e-19)
(5.35308 -3.33507 3.37713e-20)
(5.21293 -3.52207 -1.05952e-18)
(5.06598 -3.70483 3.76912e-21)
(4.91436 -3.88147 5.24003e-19)
(4.75724 -4.05397 0)
(6.25239 -0.0973205 -3.26129e-20)
(6.247 -0.318464 3.26125e-20)
(6.23214 -0.539641 0)
(6.20781 -0.760405 1.22833e-19)
(6.17406 -0.980322 3.99018e-19)
(6.13093 -1.19897 -5.04289e-19)
(6.07852 -1.41592 -5.3488e-19)
(6.01692 -1.63077 0)
(5.94626 -1.84313 0)
(5.86665 -2.05263 0)
(5.77826 -2.2589 -9.87329e-19)
(5.68126 -2.46163 -6.37929e-20)
(5.57583 -2.6605 -5.00604e-19)
(5.46217 -2.85532 3.00255e-20)
(5.34056 -3.04584 -9.89971e-19)
(5.21123 -3.23221 1.50873e-18)
(5.07487 -3.41399 -1.42945e-18)
(4.93155 -3.59275 4.85248e-19)
(4.78451 -3.76555 9.30178e-19)
(4.63107 -3.93723 0)
(6.09298 -0.0959582 2.9298e-20)
(6.08716 -0.310557 0)
(6.07219 -0.525177 -1.20621e-19)
(6.04809 -0.739384 -2.48552e-19)
(6.01489 -0.952759 1.20469e-19)
(5.97266 -1.1649 9.61992e-19)
(5.92146 -1.37539 0)
(5.8614 -1.58387 -4.63298e-19)
(5.79258 -1.78994 -2.3696e-19)
(5.71513 -1.99326 -4.45143e-19)
(5.62918 -2.19349 -1.78073e-19)
(5.53489 -2.39033 -1.40539e-18)
(5.43241 -2.58348 -9.27615e-19)
(5.32188 -2.77277 9.54235e-19)
(5.20355 -2.95799 9.13337e-19)
(5.07743 -3.13937 -3.87047e-21)
(4.94432 -3.31658 2.97789e-20)
(4.80348 -3.49216 4.47086e-19)
(4.65996 -3.66238 -9.13993e-19)
(4.5071 -3.837 0)
(5.94138 -0.0942853 -6.12678e-20)
(5.93526 -0.302618 3.0161e-20)
(5.92034 -0.511039 -1.20498e-19)
(5.89662 -0.719159 1.20442e-19)
(5.86411 -0.926585 -3.46401e-19)
(5.82287 -1.13293 -1.07865e-18)
(5.77295 -1.33781 0)
(5.71444 -1.54086 4.90216e-19)
(5.64742 -1.74172 -4.58347e-19)
(5.57199 -1.94006 9.70593e-19)
(5.48827 -2.13554 9.64812e-19)
(5.39636 -2.32787 1.42143e-18)
(5.29639 -2.51678 -9.22317e-19)
(5.1884 -2.70206 4.59405e-19)
(5.07264 -2.88355 -4.51777e-19)
(4.94874 -3.06145 4.518e-19)
(4.81779 -3.23549 0)
(4.67712 -3.40884 4.08999e-19)
(4.53567 -3.57743 -4.00206e-19)
(4.37847 -3.76316 0)
(7.13745 7.2594 0)
(7.41732 6.96971 0)
(7.6843 6.67044 1.08356e-18)
(7.93909 6.3621 2.01134e-20)
(8.18112 6.04441 -1.14654e-18)
(8.40974 5.71742 0)
(8.62452 5.38153 1.18305e-18)
(8.82514 5.03729 -2.23178e-18)
(9.01128 4.68526 -1.12785e-18)
(9.18265 4.32606 -1.13835e-18)
(9.33899 3.96031 1.13835e-18)
(9.48006 3.58867 -1.15037e-18)
(9.60569 3.21182 5.73832e-19)
(9.71566 2.83047 5.47599e-19)
(9.80983 2.44528 5.49734e-19)
(9.88812 2.05692 -5.83498e-19)
(9.95053 1.66604 5.83498e-19)
(9.99711 1.27335 -2.92921e-19)
(10.0278 0.879255 -1.39117e-19)
(10.0432 0.485092 7.32863e-20)
(7.41101 7.06456 0)
(7.69094 6.77533 -9.92562e-19)
(7.95709 6.47455 -2.12213e-18)
(8.20976 6.16289 3.13809e-18)
(8.4487 5.84068 -2.17623e-18)
(8.67342 5.50837 2.18676e-18)
(8.88342 5.16657 1.18899e-18)
(9.07831 4.81592 -3.37358e-18)
(9.25768 4.45713 1.10361e-18)
(9.42118 4.09091 2.19371e-18)
(9.56851 3.71798 1.08073e-18)
(9.6994 3.33909 1.08756e-18)
(9.8137 2.95505 -1.14774e-18)
(9.91118 2.56657 1.68994e-18)
(9.99159 2.17445 -2.34485e-18)
(10.0548 1.77955 5.78754e-19)
(10.1009 1.38268 -5.56082e-19)
(10.1298 0.984646 0)
(10.1416 0.585987 1.51373e-20)
(10.1365 0.187678 0)
(7.26632 6.93836 -1.74745e-18)
(7.54896 6.66652 9.81207e-19)
(7.81907 6.38185 1.79444e-18)
(8.07621 6.08501 8.12132e-19)
(8.31994 5.77658 2.03472e-18)
(8.54975 5.45718 1.98981e-20)
(8.76511 5.12745 -1.01985e-18)
(8.96553 4.78811 -3.03906e-18)
(9.15057 4.43985 3.00022e-18)
(9.31978 4.08342 -3.07982e-18)
(9.47278 3.71954 -1.02602e-18)
(9.60928 3.34899 -2.05273e-18)
(9.72895 2.97257 0)
(9.83158 2.59106 0)
(9.91703 2.20535 0)
(9.98513 1.81634 -5.23204e-19)
(10.0357 1.42488 5.48028e-19)
(10.0688 1.03181 5.24889e-19)
(10.0842 0.637845 6.25917e-21)
(10.082 0.243959 1.31828e-19)
(7.03831 6.6859 1.81497e-18)
(7.31762 6.43268 -1.64791e-18)
(7.5856 6.16639 -1.69244e-19)
(7.84152 5.88754 -1.70197e-19)
(8.08483 5.5967 4.28347e-18)
(8.31497 5.2945 -7.11353e-20)
(8.5314 4.98154 3.71868e-21)
(8.73358 4.6585 -2.70871e-18)
(8.92103 4.32604 1.78712e-18)
(9.09326 3.98485 0)
(9.2498 3.63571 9.58576e-19)
(9.39028 3.27945 9.65194e-19)
(9.51445 2.91686 0)
(9.62198 2.54874 0)
(9.71265 2.17594 0)
(9.78627 1.79926 0)
(9.84265 1.41953 -2.16538e-20)
(9.88166 1.03759 4.72527e-19)
(9.9032 0.654275 -2.2689e-19)
(9.90725 0.27052 0)
(6.77536 6.37127 1.53679e-18)
(7.04679 6.13588 0)
(7.30799 5.88759 -4.52402e-18)
(7.55818 5.62681 -1.54198e-18)
(7.7967 5.35407 -1.62051e-18)
(8.02299 5.06991 -1.7179e-18)
(8.23648 4.77493 8.11614e-19)
(8.43662 4.46972 -8.52866e-19)
(8.62288 4.1549 2.36793e-18)
(8.79481 3.83118 -7.75143e-19)
(8.95198 3.4993 0)
(9.09391 3.16 0)
(9.22021 2.81399 0)
(9.3306 2.46204 0)
(9.42483 2.10495 -1.22406e-18)
(9.50263 1.74355 4.20916e-19)
(9.5638 1.37863 -4.44665e-19)
(9.60816 1.01102 0)
(9.6356 0.64156 2.23765e-19)
(9.64604 0.271141 0)
(6.50029 6.04434 1.31427e-18)
(6.76149 5.82507 -4.7928e-20)
(7.01339 5.5933 2.76451e-18)
(7.25522 5.34938 1.38105e-18)
(7.48631 5.09377 0)
(7.70608 4.82697 -1.46661e-18)
(7.91397 4.54951 6.83094e-20)
(8.10944 4.26195 -1.48881e-18)
(8.29196 3.96487 2.05928e-18)
(8.46107 3.65893 3.26693e-20)
(8.61632 3.34476 2.80533e-20)
(8.75727 3.02298 -7.42817e-19)
(8.88351 2.69433 1.45676e-18)
(8.99472 2.35955 0)
(9.09064 2.01937 6.83855e-20)
(9.17097 1.6746 7.43719e-19)
(9.23544 1.32601 1.6278e-21)
(9.28386 0.974393 -1.53059e-20)
(9.31612 0.620535 0)
(9.33208 0.265271 -4.61056e-20)
(6.23429 5.72757 0)
(6.48415 5.52227 -4.88459e-20)
(6.72548 5.305 1.74592e-20)
(6.95751 5.07604 -2.49849e-18)
(7.17961 4.83581 0)
(7.39121 4.58477 1.2635e-18)
(7.59177 4.32338 1.34592e-18)
(7.78076 4.05217 -3.91558e-18)
(7.95767 3.77166 -6.80811e-20)
(8.12205 3.48245 -1.25712e-18)
(8.27345 3.1851 6.923e-19)
(8.41145 2.88025 -6.39384e-19)
(8.53565 2.56857 -7.03001e-19)
(8.64568 2.25073 0)
(8.74131 1.92746 3.70913e-19)
(8.82232 1.59937 -1.68589e-20)
(8.88832 1.26731 -3.44261e-19)
(8.9391 0.93201 -1.67214e-20)
(8.97455 0.594223 -8.6659e-20)
(8.99451 0.254717 1.7369e-19)
(5.98847 5.43249 0)
(6.22676 5.23903 1.08012e-18)
(6.4571 5.03417 1.60786e-20)
(6.67878 4.81817 -1.09617e-18)
(6.8912 4.59137 0)
(7.0938 4.3542 1.14035e-18)
(7.28607 4.1071 -1.08867e-18)
(7.46752 3.85051 -1.20536e-18)
(7.63766 3.58495 2.29244e-18)
(7.79605 3.31094 1.23713e-18)
(7.94227 3.02904 0)
(8.07591 2.73984 6.03358e-19)
(8.19661 2.44394 -4.36326e-21)
(8.30403 2.14201 2.18077e-20)
(8.39777 1.83469 0)
(8.47768 1.52262 -5.93823e-19)
(8.54362 1.20642 -3.11127e-19)
(8.59517 0.886881 4.54552e-19)
(8.63221 0.564745 3.06478e-19)
(8.65457 0.240713 -4.09705e-20)
(5.7665 5.16398 0)
(5.99354 4.98051 -9.32614e-19)
(6.21308 4.78622 0)
(6.42447 4.58132 -1.00626e-18)
(6.62712 4.36614 1.98101e-18)
(6.82053 4.14105 -2.02027e-18)
(7.00419 3.90644 3.16154e-18)
(7.17766 3.66275 -3.15232e-18)
(7.34048 3.41044 -2.1298e-18)
(7.49224 3.15001 -1.57074e-18)
(7.63252 2.88198 5.38663e-19)
(7.76097 2.60691 -1.11679e-18)
(7.87722 2.32535 1.85963e-20)
(7.98095 2.03793 1.11011e-18)
(8.07187 1.74521 -2.79271e-19)
(8.14961 1.44794 1.14409e-18)
(8.21407 1.14658 -5.62676e-19)
(8.2651 0.841854 2.59198e-19)
(8.30241 0.534485 -1.47858e-19)
(8.32583 0.22514 0)
(5.56812 4.92246 0)
(5.78455 4.74746 1.80412e-18)
(5.99384 4.5622 8.74983e-19)
(6.19536 4.36686 -9.00756e-19)
(6.38856 4.16173 -1.84519e-18)
(6.57297 3.94713 2.80777e-18)
(6.74813 3.72344 1.12236e-20)
(6.91363 3.49107 -9.15085e-19)
(7.06903 3.25045 1.96484e-18)
(7.21396 3.00205 1.01481e-18)
(7.34803 2.74636 -9.4794e-19)
(7.47089 2.48391 4.97793e-19)
(7.58221 2.21524 2.24625e-20)
(7.68168 1.94091 -5.23843e-19)
(7.76903 1.66149 -2.53821e-19)
(7.84397 1.37756 5.08945e-19)
(7.90626 1.08982 -2.55124e-19)
(7.95579 0.798765 -5.14836e-19)
(7.9924 0.505069 5.96487e-20)