/*--------------------------------*- C++ -*----------------------------------*\
  =========                 |
  \\      /  F ield         | OpenFOAM: The Open Source CFD Toolbox
   \\    /   O peration     | Website:  https://openfoam.org
    \\  /    A nd           | Version:  6.0
     \\/     M anipulation  |
\*---------------------------------------------------------------------------*/
FoamFile
{
    version     2.0;
    format      ascii;
    class       volScalarField;
    location    "10.504";
    object      p;
}
// * * * * * * * * * * * * * * * * * * * * * * * * * * * * * * * * * * * * * //

dimensions      [0 2 -2 0 0 0 0];

internalField   nonuniform List<scalar> 
19200
(
-0.410997
-0.405957
-0.402188
-0.399045
-0.396152
-0.39349
-0.391015
-0.388674
-0.386431
-0.384259
-0.382138
-0.380054
-0.377999
-0.375966
-0.373952
-0.371954
-0.369973
-0.368009
-0.366063
-0.364137
-0.362231
-0.360348
-0.358489
-0.356656
-0.354851
-0.353077
-0.351331
-0.34956
-0.347747
-0.346485
-0.414804
-0.409645
-0.405849
-0.402681
-0.399749
-0.397031
-0.394488
-0.392068
-0.389737
-0.38747
-0.385249
-0.383061
-0.380899
-0.378757
-0.376634
-0.374527
-0.372438
-0.370367
-0.368317
-0.366289
-0.364285
-0.362308
-0.360359
-0.35844
-0.356554
-0.354704
-0.352889
-0.351044
-0.349146
-0.34789
-0.419187
-0.413817
-0.409927
-0.406697
-0.403696
-0.400902
-0.398272
-0.395756
-0.393322
-0.390946
-0.38861
-0.386305
-0.384022
-0.381759
-0.379514
-0.377286
-0.375077
-0.372889
-0.370724
-0.368585
-0.366473
-0.364392
-0.362344
-0.360332
-0.358357
-0.356426
-0.354536
-0.35261
-0.350618
-0.349381
-0.423933
-0.418407
-0.414419
-0.411104
-0.408014
-0.405121
-0.402385
-0.399757
-0.397203
-0.394701
-0.392236
-0.389798
-0.387381
-0.384983
-0.382602
-0.380241
-0.3779
-0.375582
-0.373291
-0.371029
-0.368799
-0.366605
-0.364449
-0.362334
-0.360263
-0.358244
-0.356273
-0.354261
-0.352164
-0.350958
-0.42909
-0.423422
-0.419324
-0.415906
-0.412705
-0.409696
-0.406836
-0.404076
-0.401385
-0.398742
-0.396132
-0.393546
-0.390981
-0.388434
-0.385905
-0.383396
-0.380911
-0.378451
-0.376022
-0.373626
-0.371267
-0.368949
-0.366676
-0.36445
-0.362274
-0.360159
-0.358102
-0.355996
-0.353784
-0.352624
-0.434693
-0.428873
-0.42465
-0.42111
-0.41778
-0.414635
-0.411632
-0.408724
-0.405879
-0.403078
-0.400307
-0.397559
-0.39483
-0.39212
-0.389429
-0.38676
-0.384116
-0.381502
-0.378922
-0.376381
-0.373881
-0.371429
-0.369028
-0.36668
-0.364392
-0.362174
-0.360025
-0.357816
-0.355478
-0.354378
-0.44076
-0.43477
-0.430404
-0.426725
-0.423247
-0.419947
-0.416784
-0.413709
-0.410694
-0.407718
-0.40477
-0.401844
-0.398937
-0.396048
-0.393181
-0.390337
-0.387523
-0.384741
-0.381997
-0.379297
-0.376645
-0.374047
-0.371506
-0.369028
-0.366617
-0.364288
-0.362039
-0.35972
-0.357245
-0.356218
-0.447306
-0.441125
-0.436597
-0.432759
-0.429115
-0.425641
-0.422299
-0.41904
-0.415836
-0.412669
-0.409528
-0.406408
-0.403307
-0.400226
-0.397167
-0.394135
-0.391135
-0.388172
-0.385251
-0.38238
-0.379563
-0.376806
-0.374115
-0.371493
-0.368949
-0.3665
-0.364143
-0.361705
-0.359081
-0.358143
-0.454342
-0.447948
-0.443239
-0.439224
-0.435393
-0.431727
-0.428186
-0.424725
-0.421315
-0.417939
-0.414589
-0.411259
-0.407949
-0.404659
-0.401395
-0.39816
-0.39496
-0.391801
-0.38869
-0.385633
-0.382638
-0.379709
-0.376855
-0.374079
-0.371391
-0.368811
-0.366338
-0.363771
-0.360986
-0.360149
-0.461882
-0.45525
-0.450339
-0.446126
-0.442089
-0.438211
-0.434453
-0.430771
-0.427137
-0.423536
-0.419959
-0.416404
-0.412868
-0.409356
-0.40587
-0.402417
-0.399003
-0.395634
-0.392318
-0.389062
-0.385874
-0.382761
-0.37973
-0.376787
-0.373942
-0.37122
-0.368621
-0.365915
-0.362955
-0.362235
-0.469937
-0.463042
-0.457907
-0.453477
-0.449213
-0.445102
-0.441108
-0.437186
-0.43331
-0.429466
-0.425647
-0.421849
-0.418073
-0.414322
-0.4106
-0.406914
-0.403271
-0.399677
-0.396141
-0.392672
-0.389276
-0.385963
-0.382742
-0.379618
-0.376603
-0.373728
-0.370991
-0.368134
-0.364986
-0.364395
-0.478517
-0.471333
-0.465953
-0.461283
-0.456772
-0.452409
-0.448158
-0.443977
-0.439842
-0.435738
-0.431659
-0.427602
-0.42357
-0.419565
-0.415592
-0.411659
-0.407771
-0.403938
-0.400168
-0.396468
-0.39285
-0.389323
-0.385896
-0.382576
-0.379377
-0.376334
-0.373448
-0.370426
-0.367075
-0.366627
-0.487633
-0.480133
-0.474484
-0.469555
-0.464775
-0.460138
-0.455611
-0.451153
-0.446739
-0.442358
-0.438002
-0.433672
-0.429367
-0.425093
-0.420855
-0.416659
-0.412513
-0.408425
-0.404404
-0.40046
-0.396604
-0.392846
-0.389196
-0.385665
-0.382266
-0.379041
-0.375991
-0.372789
-0.369218
-0.368926
-0.497295
-0.489452
-0.483511
-0.478298
-0.473228
-0.468296
-0.463474
-0.458719
-0.454009
-0.449333
-0.444685
-0.440065
-0.435474
-0.430916
-0.426397
-0.421924
-0.417504
-0.413146
-0.40886
-0.404656
-0.400545
-0.396539
-0.39265
-0.388889
-0.385273
-0.381849
-0.37862
-0.375221
-0.37141
-0.371288
-0.507513
-0.499297
-0.493039
-0.487522
-0.482139
-0.476892
-0.471753
-0.466683
-0.461659
-0.456671
-0.451715
-0.446789
-0.441896
-0.437041
-0.432227
-0.427463
-0.422756
-0.418114
-0.413547
-0.409066
-0.404684
-0.400412
-0.396266
-0.392256
-0.388404
-0.384761
-0.381334
-0.377719
-0.373647
-0.373702
-0.518295
-0.509676
-0.503077
-0.497232
-0.491514
-0.48593
-0.480455
-0.47505
-0.469695
-0.464379
-0.459099
-0.453853
-0.448645
-0.443478
-0.438356
-0.433288
-0.428279
-0.423339
-0.418476
-0.413703
-0.409032
-0.404476
-0.400052
-0.395774
-0.391664
-0.387781
-0.384136
-0.380281
-0.375921
-0.37616
-0.529649
-0.520597
-0.513631
-0.507434
-0.501359
-0.495416
-0.489585
-0.483828
-0.478124
-0.472464
-0.466845
-0.461266
-0.455729
-0.450237
-0.444795
-0.43941
-0.434087
-0.428834
-0.423662
-0.41858
-0.413603
-0.408745
-0.404022
-0.399452
-0.39506
-0.390913
-0.387023
-0.382901
-0.378224
-0.378648
-0.541583
-0.532065
-0.524706
-0.518133
-0.511677
-0.505355
-0.499149
-0.49302
-0.486951
-0.480932
-0.47496
-0.469034
-0.463156
-0.457329
-0.451556
-0.445842
-0.440193
-0.434616
-0.429119
-0.423714
-0.418413
-0.413232
-0.408189
-0.403302
-0.398601
-0.39416
-0.389997
-0.385576
-0.380548
-0.381155
-0.554101
-0.544084
-0.536304
-0.529333
-0.522474
-0.515751
-0.50915
-0.502633
-0.496183
-0.48979
-0.483452
-0.477168
-0.470938
-0.464764
-0.45865
-0.452597
-0.446612
-0.440699
-0.434865
-0.429122
-0.423479
-0.417955
-0.412568
-0.407337
-0.402295
-0.397527
-0.393055
-0.388297
-0.382876
-0.383657
-0.567206
-0.556656
-0.548429
-0.541035
-0.53375
-0.526607
-0.519592
-0.51267
-0.505823
-0.499044
-0.492328
-0.485675
-0.479083
-0.472554
-0.46609
-0.459691
-0.45336
-0.447101
-0.44092
-0.434824
-0.428824
-0.422936
-0.417179
-0.411573
-0.406155
-0.40102
-0.396195
-0.391051
-0.385186
-0.386119
-0.580901
-0.569783
-0.561081
-0.553239
-0.545507
-0.537922
-0.530476
-0.523133
-0.515877
-0.508698
-0.501594
-0.494562
-0.487601
-0.48071
-0.473889
-0.467137
-0.460455
-0.453843
-0.447304
-0.440844
-0.434471
-0.428198
-0.422045
-0.41603
-0.410196
-0.404644
-0.399411
-0.39382
-0.387443
-0.388489
-0.595183
-0.583463
-0.574259
-0.565945
-0.557743
-0.549698
-0.541804
-0.534025
-0.526345
-0.518757
-0.511255
-0.503837
-0.4965
-0.489242
-0.48206
-0.474952
-0.467914
-0.460945
-0.454043
-0.44721
-0.44045
-0.433774
-0.427196
-0.420737
-0.414437
-0.40841
-0.402699
-0.396579
-0.389599
-0.390696
-0.61005
-0.597692
-0.587956
-0.579148
-0.570455
-0.561931
-0.553572
-0.545344
-0.53723
-0.529222
-0.521315
-0.513505
-0.505788
-0.49816
-0.490617
-0.483151
-0.475758
-0.468431
-0.461164
-0.453953
-0.446797
-0.439701
-0.432673
-0.42573
-0.418911
-0.412337
-0.406057
-0.3993
-0.39159
-0.392635
-0.625497
-0.612462
-0.602168
-0.592841
-0.583637
-0.574617
-0.565779
-0.557089
-0.54853
-0.540095
-0.531776
-0.52357
-0.515472
-0.507474
-0.49957
-0.491751
-0.484007
-0.476326
-0.468698
-0.461112
-0.453558
-0.446031
-0.438533
-0.431068
-0.42367
-0.416462
-0.409498
-0.401955
-0.393331
-0.394161
-0.641516
-0.627765
-0.616882
-0.607014
-0.59728
-0.587747
-0.578417
-0.569254
-0.560243
-0.551373
-0.54264
-0.534036
-0.525555
-0.517191
-0.508931
-0.500766
-0.492681
-0.484659
-0.476683
-0.468733
-0.46079
-0.452836
-0.444855
-0.436838
-0.428801
-0.420859
-0.413063
-0.404526
-0.394708
-0.395051
-0.6581
-0.643586
-0.632083
-0.621653
-0.611371
-0.601311
-0.591477
-0.581834
-0.572362
-0.563054
-0.553903
-0.544901
-0.536042
-0.527315
-0.51871
-0.510211
-0.501801
-0.493458
-0.485158
-0.476872
-0.468566
-0.460207
-0.451757
-0.443178
-0.434455
-0.425678
-0.41687
-0.407049
-0.395603
-0.395006
-0.675243
-0.659903
-0.64775
-0.636739
-0.625894
-0.615296
-0.604949
-0.594817
-0.584881
-0.575131
-0.565561
-0.556163
-0.546929
-0.537849
-0.528909
-0.520094
-0.511383
-0.502751
-0.494165
-0.485589
-0.476975
-0.468269
-0.459407
-0.450309
-0.44091
-0.431244
-0.421275
-0.409859
-0.396182
-0.393877
-0.692973
-0.6767
-0.663856
-0.652247
-0.640828
-0.629683
-0.618818
-0.608192
-0.597786
-0.587593
-0.577605
-0.567813
-0.55821
-0.548787
-0.539529
-0.530419
-0.521437
-0.512556
-0.503739
-0.494943
-0.486109
-0.477164
-0.468011
-0.458522
-0.448556
-0.438059
-0.426894
-0.413591
-0.396626
-0.390797
-0.711342
-0.693942
-0.680353
-0.66814
-0.656146
-0.644452
-0.633064
-0.621941
-0.611066
-0.600428
-0.590022
-0.579841
-0.569876
-0.56012
-0.550559
-0.54118
-0.531962
-0.52288
-0.5139
-0.504978
-0.49605
-0.487031
-0.477794
-0.468148
-0.457838
-0.446634
-0.4341
-0.417854
-0.394321
-0.37988
-0.72988
-0.711437
-0.697174
-0.684384
-0.671825
-0.659584
-0.647671
-0.636049
-0.6247
-0.613617
-0.602794
-0.592225
-0.581904
-0.571824
-0.561976
-0.552349
-0.542929
-0.533697
-0.524632
-0.5157
-0.506857
-0.498035
-0.489125
-0.479939
-0.470181
-0.459463
-0.446862
-0.428681
-0.398579
-0.372627
-1.19971
-1.19711
-1.1926
-1.18661
-1.17919
-1.17038
-1.16025
-1.14888
-1.13635
-1.12275
-1.10815
-1.09265
-1.07633
-1.05927
-1.04156
-1.02328
-1.00451
-0.985329
-0.965805
-0.946016
-0.926028
-0.905907
-0.885717
-0.865514
-0.845351
-0.825279
-0.805337
-0.785538
-0.765867
-0.746753
-1.16527
-1.1627
-1.15837
-1.15255
-1.14529
-1.13667
-1.12678
-1.1157
-1.1035
-1.09028
-1.07612
-1.06109
-1.04528
-1.02878
-1.01166
-0.994002
-0.975886
-0.957384
-0.938568
-0.919509
-0.900273
-0.880924
-0.861521
-0.842122
-0.822782
-0.803553
-0.784487
-0.765629
-0.747031
-0.728878
-1.13689
-1.13434
-1.13016
-1.1245
-1.11743
-1.10904
-1.09941
-1.08862
-1.07675
-1.06389
-1.05012
-1.03551
-1.02016
-1.00413
-0.987521
-0.970394
-0.95283
-0.9349
-0.916676
-0.898226
-0.879613
-0.860901
-0.842149
-0.823413
-0.804747
-0.786203
-0.767832
-0.749687
-0.731826
-0.714325
-1.11013
-1.1077
-1.1037
-1.09826
-1.09145
-1.08334
-1.07401
-1.06355
-1.05205
-1.03957
-1.0262
-1.01202
-0.997119
-0.981567
-0.965444
-0.948826
-0.931786
-0.914398
-0.896728
-0.878845
-0.860812
-0.84269
-0.824537
-0.806409
-0.788358
-0.770435
-0.752688
-0.735167
-0.717922
-0.701002
-1.08298
-1.08076
-1.07703
-1.07188
-1.06538
-1.05761
-1.04865
-1.03858
-1.02748
-1.01543
-1.0025
-0.988788
-0.974362
-0.959303
-0.943687
-0.92759
-0.911084
-0.894241
-0.877127
-0.85981
-0.842351
-0.82481
-0.807246
-0.789712
-0.77226
-0.754939
-0.737796
-0.720875
-0.704222
-0.687874
-1.05571
-1.05379
-1.05039
-1.0456
-1.03949
-1.03212
-1.02359
-1.01395
-1.0033
-0.991714
-0.979267
-0.966043
-0.952118
-0.93757
-0.922475
-0.906908
-0.890939
-0.87464
-0.858078
-0.841317
-0.82442
-0.807446
-0.790452
-0.773491
-0.756614
-0.73987
-0.723302
-0.706954
-0.690867
-0.675073
-1.02843
-1.02689
-1.02389
-1.01953
-1.01385
-1.00695
-0.998878
-0.989728
-0.979571
-0.968484
-0.956548
-0.94384
-0.930438
-0.916419
-0.901857
-0.886826
-0.871398
-0.855642
-0.839625
-0.823411
-0.807062
-0.790638
-0.774194
-0.757783
-0.741456
-0.72526
-0.709239
-0.693435
-0.677884
-0.662622
-1.00115
-1.00005
-0.997513
-0.993625
-0.988446
-0.982044
-0.974492
-0.965866
-0.95624
-0.945689
-0.934293
-0.922128
-0.909271
-0.895797
-0.881781
-0.867296
-0.852413
-0.8372
-0.821724
-0.806049
-0.790237
-0.774347
-0.758434
-0.742552
-0.726751
-0.711077
-0.695576
-0.680286
-0.665245
-0.650488
-0.973937
-0.973318
-0.971287
-0.96792
-0.963275
-0.957418
-0.950421
-0.942354
-0.933292
-0.923307
-0.912478
-0.90088
-0.888588
-0.875677
-0.86222
-0.84829
-0.833957
-0.819288
-0.804351
-0.78921
-0.773924
-0.758555
-0.743156
-0.727782
-0.712484
-0.697307
-0.682297
-0.667495
-0.652936
-0.638657
-0.946853
-0.946752
-0.945259
-0.942446
-0.938367
-0.933087
-0.926674
-0.919196
-0.910725
-0.901332
-0.891094
-0.880084
-0.868375
-0.856043
-0.843158
-0.829792
-0.816014
-0.801893
-0.787494
-0.77288
-0.758113
-0.743252
-0.728352
-0.713468
-0.698649
-0.683945
-0.6694
-0.655056
-0.640951
-0.627121
-0.919977
-0.920415
-0.919482
-0.917244
-0.913754
-0.909073
-0.903266
-0.896399
-0.88854
-0.879761
-0.870132
-0.859728
-0.84862
-0.83688
-0.824579
-0.811786
-0.798571
-0.785001
-0.77114
-0.757051
-0.742795
-0.728432
-0.714016
-0.699604
-0.685245
-0.670988
-0.656882
-0.642968
-0.629286
-0.615876
-0.893387
-0.894372
-0.894009
-0.892359
-0.88947
-0.885402
-0.880216
-0.873975
-0.866745
-0.858593
-0.84959
-0.839806
-0.829312
-0.818176
-0.806469
-0.794259
-0.781614
-0.768598
-0.755276
-0.74171
-0.727961
-0.714087
-0.700144
-0.686187
-0.672267
-0.658436
-0.644741
-0.631229
-0.61794
-0.604918
-0.867154
-0.868686
-0.868894
-0.867834
-0.865551
-0.862102
-0.857544
-0.851938
-0.845344
-0.837831
-0.829464
-0.820311
-0.810441
-0.79992
-0.788817
-0.777198
-0.765128
-0.752672
-0.739893
-0.726851
-0.713605
-0.700214
-0.686732
-0.673215
-0.659716
-0.646287
-0.632977
-0.619836
-0.606908
-0.594242
-0.841347
-0.843416
-0.844188
-0.843712
-0.842031
-0.839199
-0.835271
-0.830301
-0.824349
-0.817478
-0.809753
-0.801238
-0.792
-0.782102
-0.77161
-0.76059
-0.749103
-0.737213
-0.724979
-0.712462
-0.699719
-0.686806
-0.673778
-0.660689
-0.647594
-0.634544
-0.621592
-0.608791
-0.59619
-0.583842
-0.816027
-0.818617
-0.819937
-0.820033
-0.818945
-0.816722
-0.813416
-0.809079
-0.803766
-0.797538
-0.790457
-0.782584
-0.773981
-0.764712
-0.754838
-0.744422
-0.733525
-0.722206
-0.710524
-0.698536
-0.686296
-0.67386
-0.66128
-0.64861
-0.635902
-0.62321
-0.610589
-0.598095
-0.585784
-0.573715
-0.791248
-0.794335
-0.796184
-0.796833
-0.796321
-0.794694
-0.792
-0.788286
-0.783605
-0.778016
-0.771576
-0.764343
-0.756378
-0.74774
-0.738489
-0.728684
-0.718383
-0.707642
-0.696518
-0.685064
-0.673332
-0.661374
-0.649239
-0.63698
-0.624646
-0.612292
-0.599974
-0.587752
-0.575689
-0.563854
-0.767055
-0.770614
-0.772965
-0.774145
-0.774188
-0.773139
-0.771039
-0.767934
-0.763875
-0.758915
-0.753109
-0.746513
-0.739184
-0.731178
-0.722552
-0.713362
-0.703662
-0.693507
-0.682949
-0.672037
-0.660819
-0.649344
-0.637656
-0.625804
-0.613835
-0.6018
-0.589757
-0.57777
-0.565908
-0.554254
-0.743486
-0.747486
-0.750311
-0.751995
-0.752569
-0.752073
-0.750548
-0.748034
-0.744581
-0.740237
-0.735056
-0.72909
-0.722392
-0.715015
-0.707015
-0.698443
-0.689351
-0.679789
-0.669805
-0.659445
-0.648752
-0.637768
-0.626534
-0.61509
-0.60348
-0.59175
-0.579954
-0.56816
-0.556446
-0.54491
-0.720569
-0.724979
-0.728248
-0.730406
-0.731483
-0.731515
-0.73054
-0.728596
-0.725729
-0.721986
-0.717416
-0.712068
-0.705993
-0.699242
-0.691866
-0.683913
-0.675433
-0.666472
-0.657073
-0.647277
-0.637122
-0.626644
-0.615875
-0.604848
-0.593596
-0.58216
-0.570588
-0.558944
-0.547315
-0.535817
-0.698329
-0.703114
-0.706794
-0.709395
-0.710944
-0.711477
-0.711026
-0.709628
-0.707325
-0.704163
-0.700187
-0.695444
-0.689982
-0.683849
-0.677092
-0.66976
-0.661895
-0.653542
-0.644739
-0.635522
-0.625922
-0.615968
-0.605682
-0.595087
-0.584204
-0.573059
-0.561688
-0.550149
-0.538532
-0.526972
-0.676779
-0.681906
-0.685964
-0.688975
-0.690966
-0.691968
-0.692012
-0.691133
-0.68937
-0.686767
-0.683365
-0.679211
-0.674348
-0.668823
-0.662681
-0.655966
-0.64872
-0.640982
-0.632786
-0.624164
-0.615141
-0.605735
-0.595959
-0.585822
-0.575327
-0.564481
-0.553299
-0.54182
-0.530131
-0.518378
-0.655929
-0.661364
-0.665766
-0.669155
-0.671555
-0.672995
-0.673505
-0.673116
-0.671867
-0.669797
-0.666949
-0.663363
-0.659084
-0.654155
-0.648618
-0.642517
-0.63589
-0.628772
-0.621196
-0.613187
-0.604763
-0.595935
-0.586704
-0.577062
-0.56699
-0.556467
-0.545475
-0.534017
-0.522161
-0.510045
-0.635783
-0.641494
-0.646207
-0.64994
-0.652716
-0.654563
-0.655507
-0.655578
-0.654814
-0.653252
-0.650932
-0.647894
-0.64418
-0.639831
-0.634889
-0.629395
-0.623385
-0.616892
-0.609946
-0.602568
-0.594771
-0.586556
-0.577914
-0.568817
-0.559222
-0.549069
-0.53829
-0.526828
-0.514704
-0.501999
-0.616339
-0.622294
-0.627286
-0.631331
-0.634451
-0.636672
-0.638019
-0.63852
-0.638212
-0.63713
-0.635312
-0.632798
-0.629628
-0.625842
-0.621481
-0.616584
-0.611187
-0.605322
-0.599015
-0.592286
-0.585143
-0.577582
-0.569581
-0.561095
-0.552052
-0.542348
-0.531842
-0.520381
-0.507892
-0.4943
-0.597593
-0.603761
-0.609001
-0.613326
-0.616758
-0.619322
-0.621039
-0.62194
-0.622057
-0.621426
-0.620083
-0.618067
-0.615418
-0.612175
-0.608379
-0.604067
-0.599276
-0.594037
-0.588377
-0.582314
-0.575854
-0.568989
-0.561689
-0.553896
-0.545508
-0.53637
-0.526252
-0.514856
-0.501947
-0.48709
-0.579534
-0.585886
-0.591342
-0.595915
-0.599627
-0.602499
-0.604555
-0.605821
-0.606331
-0.606118
-0.60522
-0.603673
-0.601518
-0.598793
-0.595539
-0.591795
-0.587597
-0.582979
-0.577966
-0.57258
-0.566826
-0.560699
-0.554164
-0.547154
-0.539548
-0.531144
-0.521607
-0.510437
-0.497173
-0.48068
-0.562155
-0.568661
-0.574303
-0.579092
-0.583051
-0.586199
-0.588558
-0.590155
-0.591023
-0.591195
-0.590706
-0.589595
-0.5879
-0.585661
-0.582921
-0.579718
-0.57609
-0.572074
-0.567698
-0.562986
-0.55795
-0.552587
-0.54687
-0.540734
-0.534051
-0.526589
-0.517909
-0.507265
-0.493914
-0.475459
-0.545446
-0.552101
-0.557922
-0.56292
-0.567115
-0.570528
-0.573178
-0.575093
-0.576306
-0.576847
-0.576755
-0.576065
-0.574817
-0.573054
-0.570816
-0.568146
-0.565083
-0.561667
-0.55793
-0.553903
-0.549603
-0.545039
-0.540196
-0.535027
-0.529424
-0.523161
-0.51574
-0.506161
-0.493235
-0.47182
-0.529375
-0.536197
-0.542215
-0.547441
-0.551893
-0.555592
-0.558558
-0.560818
-0.562406
-0.563352
-0.563695
-0.563472
-0.562724
-0.561493
-0.559824
-0.557761
-0.555346
-0.552622
-0.549627
-0.546397
-0.54296
-0.539335
-0.535531
-0.531531
-0.527279
-0.522639
-0.517202
-0.50989
-0.498975
-0.473167
-0.513852
-0.520622
-0.52662
-0.53186
-0.536359
-0.540138
-0.543218
-0.545627
-0.547398
-0.548563
-0.549161
-0.549232
-0.54882
-0.547969
-0.546728
-0.545146
-0.543271
-0.541154
-0.538843
-0.536385
-0.533825
-0.531203
-0.52856
-0.525931
-0.523352
-0.520882
-0.518425
-0.51538
-0.511766
-0.492434
-0.415492
-0.463395
-0.510019
-0.555977
-0.601084
-0.645172
-0.688125
-0.729834
-0.770197
-0.809114
-0.846497
-0.882262
-0.916335
-0.948645
-0.979131
-1.00774
-1.03442
-1.05914
-1.08187
-1.10257
-1.12125
-1.13788
-1.15247
-1.16502
-1.17555
-1.18408
-1.19064
-1.19523
-1.19788
-1.19893
-0.407725
-0.454471
-0.500152
-0.545012
-0.588933
-0.6318
-0.673518
-0.713993
-0.753129
-0.790837
-0.827033
-0.861636
-0.894577
-0.925789
-0.955214
-0.982801
-1.00851
-1.03229
-1.05414
-1.07401
-1.09191
-1.10782
-1.12174
-1.1337
-1.1437
-1.15177
-1.15794
-1.16226
-1.16475
-1.16561
-0.396878
-0.442615
-0.487443
-0.531422
-0.574451
-0.616429
-0.657267
-0.696872
-0.735157
-0.772033
-0.807421
-0.841243
-0.87343
-0.90392
-0.932655
-0.959586
-0.984672
-1.00788
-1.02917
-1.04855
-1.06598
-1.08147
-1.09502
-1.10664
-1.11636
-1.12419
-1.13018
-1.13436
-1.13678
-1.13754
-0.38263
-0.427454
-0.471459
-0.514641
-0.556895
-0.598122
-0.63823
-0.677132
-0.714738
-0.750964
-0.785731
-0.818965
-0.850596
-0.880564
-0.908811
-0.935291
-0.959961
-0.982787
-1.00374
-1.02281
-1.03997
-1.05524
-1.0686
-1.08007
-1.08967
-1.09742
-1.10337
-1.10754
-1.10998
-1.11077
-0.365434
-0.409355
-0.452531
-0.494924
-0.536422
-0.576927
-0.616348
-0.654596
-0.691584
-0.727228
-0.761452
-0.79418
-0.825345
-0.854886
-0.882747
-0.90888
-0.933244
-0.955804
-0.976533
-0.995412
-1.01243
-1.02758
-1.04087
-1.0523
-1.0619
-1.0697
-1.07571
-1.07998
-1.08254
-1.08347
-0.346025
-0.389051
-0.431396
-0.472999
-0.51375
-0.553551
-0.59231
-0.629938
-0.66635
-0.701462
-0.735198
-0.767484
-0.798252
-0.827441
-0.854996
-0.880868
-0.905014
-0.927401
-0.948
-0.96679
-0.98376
-0.998903
-1.01222
-1.02372
-1.03343
-1.04135
-1.04753
-1.052
-1.05478
-1.05595
-0.325098
-0.367224
-0.408726
-0.449532
-0.489533
-0.528632
-0.566738
-0.603763
-0.639621
-0.674229
-0.707511
-0.739394
-0.76981
-0.798698
-0.826001
-0.851671
-0.875665
-0.897945
-0.918485
-0.937261
-0.95426
-0.969474
-0.982902
-0.994552
-1.00444
-1.01258
-1.01901
-1.02375
-1.02684
-1.02834
-0.303264
-0.344476
-0.385117
-0.425109
-0.464347
-0.502736
-0.540184
-0.576604
-0.61191
-0.646023
-0.678864
-0.710361
-0.740447
-0.769059
-0.796141
-0.821643
-0.845521
-0.867738
-0.888263
-0.907074
-0.924153
-0.939492
-0.953087
-0.964944
-0.975075
-0.983496
-0.990234
-0.995318
-0.998775
-1.00066
-0.281049
-0.321328
-0.361089
-0.400247
-0.438704
-0.476365
-0.51314
-0.548944
-0.583692
-0.617303
-0.649701
-0.680813
-0.710572
-0.738916
-0.765787
-0.791135
-0.814915
-0.837089
-0.857624
-0.876495
-0.893685
-0.909181
-0.922979
-0.93508
-0.945494
-0.954237
-0.961329
-0.966798
-0.970671
-0.972997
-0.258882
-0.298211
-0.337071
-0.375377
-0.413033
-0.449947
-0.486033
-0.521204
-0.555377
-0.588473
-0.620416
-0.651133
-0.680558
-0.708627
-0.735284
-0.760477
-0.784161
-0.806294
-0.826846
-0.845787
-0.863099
-0.878767
-0.892784
-0.905149
-0.915869
-0.924957
-0.93243
-0.938314
-0.942632
-0.94543
-0.237098
-0.275465
-0.31341
-0.350847
-0.387684
-0.423834
-0.459211
-0.493731
-0.527312
-0.559875
-0.591345
-0.621651
-0.650726
-0.678506
-0.704935
-0.729961
-0.753536
-0.775621
-0.796182
-0.815188
-0.832619
-0.848458
-0.862696
-0.87533
-0.886363
-0.895805
-0.903671
-0.909983
-0.914763
-0.91805
-0.215954
-0.253351
-0.290369
-0.326925
-0.36293
-0.398301
-0.432953
-0.466804
-0.499774
-0.531786
-0.562764
-0.592639
-0.621342
-0.648814
-0.674995
-0.699833
-0.723282
-0.745301
-0.765853
-0.78491
-0.802446
-0.818444
-0.832893
-0.845788
-0.857128
-0.866921
-0.875178
-0.88192
-0.887165
-0.890947
-0.195634
-0.232058
-0.268144
-0.303811
-0.338975
-0.373555
-0.407469
-0.440638
-0.472981
-0.504423
-0.53489
-0.564313
-0.592625
-0.619764
-0.645674
-0.670301
-0.6936
-0.715528
-0.736049
-0.755132
-0.772752
-0.788889
-0.80353
-0.816668
-0.828299
-0.838429
-0.847067
-0.854229
-0.859931
-0.864204
-0.176262
-0.211715
-0.24687
-0.281645
-0.315964
-0.349748
-0.382916
-0.415391
-0.447095
-0.477952
-0.507891
-0.536842
-0.56474
-0.591525
-0.617138
-0.64153
-0.664652
-0.686462
-0.706924
-0.726007
-0.743683
-0.759933
-0.77474
-0.788096
-0.799995
-0.810441
-0.81944
-0.827004
-0.833148
-0.837897
-0.157913
-0.192404
-0.226631
-0.260519
-0.293993
-0.326979
-0.359398
-0.391173
-0.422229
-0.45249
-0.481886
-0.510349
-0.537814
-0.564222
-0.589516
-0.613645
-0.636563
-0.658228
-0.678602
-0.697654
-0.715357
-0.731688
-0.746632
-0.760177
-0.772317
-0.783051
-0.792385
-0.800327
-0.80689
-0.812095
-0.140627
-0.174166
-0.207474
-0.240481
-0.273118
-0.305309
-0.33698
-0.368055
-0.398458
-0.428115
-0.456958
-0.484918
-0.511934
-0.537945
-0.562898
-0.586741
-0.609428
-0.630919
-0.651176
-0.670167
-0.687865
-0.704247
-0.719296
-0.732998
-0.745347
-0.756338
-0.765976
-0.774268
-0.781222
-0.786858
-0.12441
-0.15701
-0.189412
-0.221551
-0.253359
-0.284766
-0.315695
-0.346072
-0.375822
-0.404872
-0.433155
-0.460603
-0.487155
-0.512753
-0.537345
-0.560879
-0.583312
-0.604602
-0.624714
-0.643614
-0.661277
-0.677677
-0.692798
-0.706624
-0.719148
-0.730365
-0.740275
-0.748883
-0.756198
-0.762234
-0.109248
-0.140925
-0.172436
-0.203721
-0.234716
-0.26535
-0.295548
-0.325235
-0.354336
-0.38278
-0.410498
-0.437427
-0.463506
-0.488678
-0.512892
-0.536099
-0.558256
-0.579321
-0.599261
-0.618043
-0.63564
-0.652028
-0.667188
-0.681106
-0.693771
-0.705178
-0.715326
-0.724218
-0.73186
-0.738265
-0.0951126
-0.12588
-0.156516
-0.186966
-0.217166
-0.247044
-0.276526
-0.305534
-0.333994
-0.361835
-0.38899
-0.415396
-0.440994
-0.46573
-0.489554
-0.512417
-0.534278
-0.555099
-0.574843
-0.59348
-0.610984
-0.62733
-0.642499
-0.656476
-0.66925
-0.680814
-0.691166
-0.700307
-0.708242
-0.714981
-0.0819609
-0.111831
-0.141611
-0.171246
-0.200673
-0.229816
-0.258599
-0.286943
-0.314772
-0.342018
-0.368613
-0.394496
-0.41961
-0.443903
-0.467326
-0.489833
-0.511384
-0.53194
-0.551468
-0.569938
-0.587323
-0.6036
-0.618749
-0.632754
-0.645605
-0.657294
-0.667816
-0.677173
-0.685367
-0.692405
-0.0697437
-0.0987256
-0.127668
-0.156512
-0.18519
-0.213623
-0.241729
-0.269425
-0.296638
-0.323298
-0.349339
-0.374702
-0.399331
-0.423177
-0.446193
-0.468334
-0.489561
-0.509838
-0.529133
-0.547415
-0.564659
-0.580842
-0.595945
-0.609951
-0.622849
-0.634631
-0.645292
-0.654831
-0.663249
-0.670554
-0.0584054
-0.0865016
-0.114627
-0.142708
-0.170666
-0.198416
-0.225868
-0.252937
-0.279549
-0.305635
-0.33113
-0.355978
-0.380125
-0.403523
-0.426127
-0.447895
-0.468789
-0.488776
-0.507822
-0.525899
-0.542983
-0.559051
-0.574083
-0.588064
-0.600983
-0.612829
-0.623597
-0.633287
-0.641898
-0.649436
-0.0478849
-0.0750895
-0.102423
-0.129771
-0.157043
-0.18414
-0.210964
-0.237429
-0.263458
-0.288982
-0.313942
-0.338282
-0.361951
-0.384902
-0.407093
-0.428484
-0.449039
-0.468725
-0.487512
-0.50537
-0.522277
-0.538211
-0.553152
-0.567085
-0.579998
-0.591882
-0.602731
-0.612541
-0.621314
-0.629054
-0.0381131
-0.0644065
-0.0909788
-0.117632
-0.144255
-0.170734
-0.19696
-0.222843
-0.248308
-0.273288
-0.297724
-0.321565
-0.344761
-0.367269
-0.389049
-0.410062
-0.430274
-0.449653
-0.468171
-0.4858
-0.502517
-0.5183
-0.533132
-0.546997
-0.559883
-0.571781
-0.582683
-0.592587
-0.601493
-0.609404
-0.0290052
-0.0543629
-0.0802212
-0.106227
-0.132246
-0.158145
-0.183804
-0.209131
-0.234052
-0.258503
-0.282429
-0.305781
-0.328513
-0.350584
-0.371954
-0.39259
-0.412457
-0.431526
-0.449768
-0.467159
-0.483674
-0.499294
-0.514001
-0.527781
-0.54062
-0.552509
-0.563442
-0.573415
-0.582427
-0.590481
-0.0204515
-0.0448987
-0.0701306
-0.0955487
-0.121014
-0.146374
-0.171496
-0.19629
-0.220685
-0.244622
-0.26805
-0.290922
-0.313196
-0.334834
-0.355798
-0.376057
-0.395577
-0.414331
-0.432292
-0.449435
-0.465738
-0.481182
-0.495749
-0.509425
-0.522198
-0.534057
-0.544997
-0.555014
-0.564106
-0.572275
-0.0122978
-0.035911
-0.0606596
-0.0855609
-0.110524
-0.135383
-0.159995
-0.184275
-0.208159
-0.231594
-0.254533
-0.276934
-0.298757
-0.319967
-0.340529
-0.360411
-0.379585
-0.398022
-0.415697
-0.432587
-0.44867
-0.463928
-0.478343
-0.491902
-0.504592
-0.516404
-0.527331
-0.537369
-0.546516
-0.554775
-0.00409277
-0.0266403
-0.0510776
-0.0755795
-0.100124
-0.124542
-0.14869
-0.172495
-0.195903
-0.21887
-0.241352
-0.263314
-0.284717
-0.305529
-0.325717
-0.345252
-0.364105
-0.38225
-0.399663
-0.416321
-0.432203
-0.447292
-0.46157
-0.475024
-0.487642
-0.499414
-0.510333
-0.520396
-0.529601
-0.537948
0.0054281
-0.0157304
-0.0402114
-0.064599
-0.0889402
-0.113067
-0.136866
-0.160297
-0.183323
-0.205907
-0.228014
-0.24961
-0.270663
-0.291143
-0.311018
-0.330261
-0.348846
-0.366747
-0.383942
-0.400409
-0.416128
-0.431082
-0.445255
-0.458634
-0.471206
-0.482962
-0.493897
-0.504006
-0.513286
-0.521741
0.0151068
-0.00824296
-0.0338051
-0.0583075
-0.0825794
-0.106471
-0.129913
-0.152931
-0.175513
-0.197632
-0.219261
-0.240373
-0.260941
-0.280937
-0.300334
-0.319109
-0.337237
-0.354698
-0.371469
-0.387532
-0.40287
-0.417467
-0.431309
-0.444383
-0.45668
-0.468192
-0.478912
-0.488838
-0.497968
-0.506304
0.526781
0.533816
0.541016
0.548346
0.555806
0.563392
0.571096
0.578906
0.586809
0.59479
0.60283
0.610908
0.619002
0.627086
0.635132
0.643113
0.651003
0.658779
0.666426
0.673942
0.681342
0.68867
0.696006
0.703482
0.7113
0.719757
0.729164
0.739789
0.753439
0.773222
0.519644
0.52642
0.533461
0.540615
0.547876
0.555253
0.562737
0.570314
0.577972
0.585692
0.593456
0.601241
0.609023
0.616774
0.624466
0.632069
0.639556
0.646904
0.654095
0.661128
0.668018
0.674811
0.681592
0.688499
0.695744
0.703637
0.712508
0.722656
0.735943
0.755615
0.511653
0.51812
0.524979
0.531929
0.538962
0.546098
0.553329
0.56064
0.568016
0.575438
0.582886
0.590337
0.597764
0.605137
0.612428
0.619606
0.626641
0.633508
0.640192
0.646689
0.653016
0.659222
0.665397
0.671686
0.678312
0.685602
0.693909
0.703565
0.716503
0.736076
0.502815
0.508926
0.515577
0.522298
0.529073
0.535936
0.542882
0.549893
0.556952
0.564039
0.571133
0.578208
0.585238
0.59219
0.599035
0.605739
0.612273
0.618611
0.624735
0.630645
0.636358
0.641927
0.647446
0.653069
0.659033
0.665679
0.673384
0.682512
0.695035
0.714352
0.49314
0.498846
0.505266
0.511733
0.51822
0.52478
0.531409
0.538086
0.544792
0.551508
0.558209
0.564869
0.571459
0.577947
0.5843
0.590484
0.596469
0.602228
0.607744
0.613015
0.618064
0.622945
0.62776
0.632672
0.637928
0.643889
0.650953
0.659513
0.671565
0.69052
0.482639
0.487895
0.49406
0.500246
0.506417
0.512644
0.518924
0.525234
0.531553
0.537861
0.544132
0.550337
0.556447
0.562428
0.568244
0.573863
0.579252
0.584383
0.589241
0.593825
0.59816
0.602305
0.606368
0.610522
0.615027
0.620262
0.626645
0.634599
0.646133
0.664653
0.471325
0.476086
0.481973
0.487854
0.49368
0.499543
0.505443
0.511354
0.517253
0.523117
0.52892
0.534633
0.540222
0.545653
0.550891
0.5559
0.560646
0.565103
0.569255
0.573104
0.576677
0.580038
0.583304
0.586655
0.590368
0.594836
0.6005
0.607809
0.618782
0.636802
0.45921
0.463433
0.469021
0.474572
0.480025
0.485495
0.490985
0.496465
0.50191
0.507297
0.512596
0.517778
0.522808
0.52765
0.532267
0.536622
0.540681
0.544419
0.547819
0.550886
0.553651
0.556183
0.558606
0.561114
0.563993
0.567655
0.572563
0.579192
0.589563
0.607025
0.44631
0.449956
0.455222
0.460419
0.465472
0.470521
0.475571
0.480589
0.485549
0.490424
0.495185
0.4998
0.504233
0.508446
0.512401
0.51606
0.51939
0.522364
0.524969
0.52721
0.529122
0.530782
0.53232
0.533942
0.53595
0.53877
0.542886
0.548801
0.55853
0.575381
0.432641
0.43567
0.440595
0.445415
0.450041
0.454641
0.459223
0.46375
0.468193
0.472524
0.476714
0.480727
0.484526
0.488072
0.491326
0.49425
0.496809
0.498978
0.500744
0.502116
0.503134
0.50388
0.504495
0.505194
0.506293
0.508236
0.511528
0.516696
0.525748
0.541936
0.41822
0.420596
0.425161
0.429581
0.433754
0.437879
0.441966
0.445973
0.449869