/*--------------------------------*- C++ -*----------------------------------*\
  =========                 |
  \\      /  F ield         | OpenFOAM: The Open Source CFD Toolbox
   \\    /   O peration     | Website:  https://openfoam.org
    \\  /    A nd           | Version:  6.0
     \\/     M anipulation  |
\*---------------------------------------------------------------------------*/
FoamFile
{
    version     2.0;
    format      ascii;
    class       volScalarField;
    location    "3";
    object      p;
}
// * * * * * * * * * * * * * * * * * * * * * * * * * * * * * * * * * * * * * //

dimensions      [0 2 -2 0 0 0 0];

internalField   nonuniform List<scalar> 
2400
(
-57.289
-39.5933
-28.8673
-21.6248
-16.1914
-12.178
-9.24489
-7.08351
-5.47232
-4.30103
-57.5971
-39.8637
-29.0982
-21.8249
-16.3709
-12.3445
-9.40295
-7.23514
-5.61867
-4.44497
-57.9098
-40.1308
-29.3258
-22.0246
-16.5527
-12.5158
-9.5679
-7.39562
-5.77591
-4.60166
-58.2226
-40.394
-29.5488
-22.2214
-16.7338
-12.6883
-9.73603
-7.56142
-5.94118
-4.76946
-58.5292
-40.6489
-29.7643
-22.4126
-16.9114
-12.8587
-9.9032
-7.72757
-6.10914
-4.94286
-58.8246
-40.8904
-29.967
-22.5937
-17.0819
-13.0247
-10.0675
-7.8916
-6.27565
-5.11509
-59.1078
-41.1142
-30.1497
-22.7561
-17.2371
-13.1803
-10.2268
-8.05474
-6.44372
-5.29006
-59.382
-41.3189
-30.306
-22.8888
-17.3621
-13.3076
-10.3632
-8.20451
-6.61264
-5.48712
-59.6444
-41.5042
-30.4357
-22.9875
-17.4445
-13.3818
-10.4363
-8.28921
-6.7363
-5.68611
-59.869
-41.6663
-30.5452
-23.0616
-17.4921
-13.4031
-10.428
-8.257
-6.71069
-5.70002
-60.5496
-60.6154
-60.6242
-60.5985
-60.5461
-60.4695
-60.3727
-60.2615
-60.1416
-60.0153
-41.9838
-42.0704
-42.1172
-42.1326
-42.1215
-42.0873
-42.0345
-41.9672
-41.888
-41.7925
-30.7089
-30.7931
-30.8458
-30.8697
-30.8685
-30.8469
-30.8101
-30.7624
-30.7053
-30.636
-23.2188
-23.2871
-23.3265
-23.3391
-23.3288
-23.3011
-23.2626
-23.2182
-23.1717
-23.1218
-17.6924
-17.742
-17.7639
-17.7605
-17.7361
-17.6968
-17.6504
-17.6029
-17.5622
-17.527
-13.6502
-13.6838
-13.6901
-13.672
-13.634
-13.5821
-13.5258
-13.472
-13.4345
-13.4107
-10.7122
-10.7335
-10.7276
-10.6976
-10.6472
-10.5827
-10.515
-10.452
-10.4163
-10.3999
-8.55963
-8.57227
-8.55755
-8.51856
-8.45776
-8.38128
-8.29973
-8.22415
-8.18999
-8.18038
-6.96801
-6.97536
-6.9555
-6.91149
-6.84404
-6.75869
-6.66273
-6.57008
-6.53261
-6.5467
-5.80061
-5.79924
-5.77237
-5.72289
-5.64981
-5.55766
-5.44688
-5.33033
-5.25524
-5.29245
-56.6946
-57.2886
-57.8291
-58.337
-58.8091
-59.2346
-59.6063
-59.9226
-60.1852
-60.3961
-38.4334
-38.9644
-39.465
-39.9355
-40.3697
-40.7606
-41.1042
-41.3994
-41.6464
-41.8432
-27.5797
-28.0517
-28.502
-28.922
-29.3048
-29.6466
-29.9461
-30.203
-30.4166
-30.5861
-20.4817
-20.907
-21.3114
-21.6849
-22.021
-22.3179
-22.5759
-22.7953
-22.9756
-23.1169
-15.2734
-15.6632
-16.0316
-16.3679
-16.6667
-16.9279
-17.1527
-17.3415
-17.4942
-17.6112
-11.4739
-11.8404
-12.1833
-12.4906
-12.76
-12.9935
-13.1926
-13.3577
-13.4889
-13.5864
-8.71078
-9.06779
-9.39538
-9.67955
-9.92499
-10.1368
-10.3163
-10.4636
-10.5785
-10.6616
-6.67259
-7.02816
-7.34965
-7.61735
-7.84484
-8.0406
-8.20588
-8.34072
-8.44477
-8.51793
-5.17537
-5.5141
-5.82746
-6.08716
-6.30391
-6.48763
-6.64223
-6.76844
-6.86528
-6.93207
-4.23415
-4.52097
-4.7809
-5.02502
-5.22771
-5.39091
-5.52588
-5.63606
-5.71962
-5.77483
-1.065
-2.01256
-3.38282
-5.25987
-7.83463
-11.3839
-16.2327
-22.8021
-32.9033
-50.2938
-1.30463
-2.26353
-3.64112
-5.52807
-8.11683
-11.6859
-16.5635
-23.1752
-33.3369
-50.8003
-1.56738
-2.53938
-3.9257
-5.82426
-8.42896
-12.0202
-16.9298
-23.5876
-33.8112
-51.342
-1.85185
-2.83806
-4.23386
-6.1452
-8.76716
-12.3822
-17.3262
-24.0342
-34.3257
-51.9299
-2.15698
-3.15797
-4.56344
-6.48812
-9.12805
-12.7678
-17.7479
-24.5092
-34.8745
-52.5597
-2.48231
-3.49675
-4.91078
-6.84871
-9.50712
-13.1726
-18.1901
-25.007
-35.4501
-53.2209
-2.82816
-3.85374
-5.27369
-7.22365
-9.90027
-13.5918
-18.6475
-25.5214
-36.0449
-53.9042
-3.18741
-4.21665
-5.63995
-7.60308
-10.2998
-14.0186
-19.1135
-26.0456
-36.6515
-54.6018
-3.56144
-4.58416
-6.00596
-7.98293
-10.7004
-14.4464
-19.5801
-26.5707
-37.2618
-55.3073
-3.88799
-4.8986
-6.34314
-8.35081
-11.094
-14.8677
-20.0394
-27.0866
-37.8628
-56.0124
-0.436028
-1.23493
-2.49381
-4.29519
-6.79124
-10.237
-14.9313
-21.2522
-30.9665
-47.8657
-0.430983
-1.26367
-2.53833
-4.33148
-6.81222
-10.2446
-14.9294
-21.2449
-30.9615
-47.8773
-0.327119
-1.21092
-2.52245
-4.33386
-6.82334
-10.2604
-14.9492
-21.2702
-30.9941
-47.9193
-0.266935
-1.17105
-2.50206
-4.32976
-6.8341
-10.2847
-14.9873
-21.325
-31.0697
-48.0171
-0.265309
-1.17604
-2.5156
-4.35221
-6.86743
-10.3311
-15.0503
-21.4119
-31.1896
-48.1738
-0.308047
-1.22367
-2.56939
-4.41245
-6.93613
-10.4114
-15.1477
-21.5366
-31.3549
-48.386
-0.389286
-1.3099
-2.66097
-4.51032
-7.04265
-10.5299
-15.2847
-21.7038
-31.5679
-48.653
-0.508429
-1.43401
-2.7895
-4.64503
-7.18667
-10.6874
-15.4628
-21.9154
-31.8308
-48.9767
-0.663445
-1.59463
-2.95425
-4.81604
-7.36764
-10.8831
-15.6813
-22.1709
-32.1441
-49.3596
-0.850434
-1.7888
-3.15317
-5.02201
-7.58455
-11.1162
-15.9389
-22.4682
-32.5046
-49.8018
-0.119837
-0.076677
-0.141268
-0.260357
-0.410765
-0.578542
-0.759725
-0.946965
-1.13741
-1.32841
-1.09698
-1.07811
-1.12364
-1.23281
-1.37859
-1.54711
-1.73152
-1.9242
-2.12185
-2.32152
-2.42005
-2.42763
-2.47898
-2.58629
-2.73051
-2.90124
-3.09019
-3.29006
-3.49701
-3.70804
-4.25939
-4.27971
-4.34054
-4.44978
-4.59478
-4.76828
-4.96205
-5.16936
-5.38598
-5.60891
-6.78426
-6.81683
-6.88828
-7.00289
-7.15246
-7.33144
-7.53242
-7.74927
-7.97761
-8.2145
-10.2515
-10.2983
-10.3821
-10.5054
-10.6634
-10.8514
-11.0632
-11.2931
-11.5367
-11.7914
-14.9615
-15.0219
-15.118
-15.2517
-15.4206
-15.6209
-15.8471
-16.094
-16.3576
-16.6355
-21.2916
-21.3591
-21.4626
-21.6047
-21.7844
-21.9983
-22.2418
-22.5103
-22.8001
-23.1082
-30.9961
-31.0542
-31.1537
-31.2985
-31.4864
-31.714
-31.9774
-32.2733
-32.5974
-32.9411
-47.8448
-47.8698
-47.9537
-48.0941
-48.2862
-48.5252
-48.8082
-49.1333
-49.4936
-49.8684
-1.51948
-1.71096
-1.90537
-2.10467
-2.30898
-2.51208
-2.69688
-2.84379
-2.95439
-3.06169
-2.52246
-2.72424
-2.92846
-3.13577
-3.34537
-3.55294
-3.74715
-3.90572
-4.01306
-4.13085
-3.92182
-4.13704
-4.35447
-4.57383
-4.79369
-5.01006
-5.21409
-5.38984
-5.53019
-5.6763
-5.83607
-6.06517
-6.29628
-6.52842
-6.75964
-6.9855
-7.19805
-7.38817
-7.55879
-7.73377
-8.4571
-8.70212
-8.94912
-9.19658
-9.44216
-9.68111
-9.90656
-10.1142
-10.3103
-10.5082
-12.0535
-12.3187
-12.5861
-12.8538
-13.119
-13.3773
-13.6231
-13.8545
-14.0771
-14.2977
-16.9231
-17.2142
-17.5079
-17.802
-18.0935
-18.3785
-18.6528
-18.9154
-19.1701
-19.4207
-23.4275
-23.7495
-24.0745
-24.4008
-24.7253
-25.0445
-25.3558
-25.6589
-25.9561
-26.2491
-33.2907
-33.6426
-34.0002
-34.3621
-34.7244
-35.0839
-35.44
-35.7945
-36.1477
-36.4921
-50.2275
-50.5982
-50.9835
-51.3781
-51.7765
-52.1755
-52.577
-52.9854
-53.3973
-53.7847
-54.1045
-36.8106
-26.5307
-19.6628
-14.5113
-10.7039
-7.92098
-5.87332
-4.37489
-3.33263
-54.4111
-37.1044
-26.7918
-19.8882
-14.7082
-10.8808
-8.08721
-6.04272
-4.55952
-3.51035
-54.7183
-37.3857
-27.0382
-20.0993
-14.8904
-11.0417
-8.23336
-6.17707
-4.67244
-3.58473
-55.0265
-37.6607
-27.2735
-20.298
-15.0592
-11.1875
-8.3615
-6.2891
-4.76355
-3.65215
-55.3357
-37.9314
-27.5016
-20.4883
-15.219
-11.3234
-8.47767
-6.38689
-4.84088
-3.71251
-55.6477
-38.2004
-27.7253
-20.6736
-15.3741
-11.455
-8.59082
-6.48414
-4.92224
-3.78168
-55.9667
-38.4708
-27.9475
-20.8572
-15.5282
-11.5869
-8.70537
-6.58438
-5.00893
-3.85902
-56.2981
-38.7463
-28.1709
-21.0417
-15.6847
-11.7229
-8.82617
-6.69297
-5.1062
-3.94871
-56.6415
-39.0288
-28.3983
-21.2299
-15.8462
-11.8657
-8.95538
-6.81153
-5.21522
-4.05192
-56.9807
-39.3146
-28.6317
-21.4248
-16.0154
-12.0175
-9.09509
-6.94186
-5.33747
-4.16968
-1.78131
-0.790057
-0.454488
-0.269495
-0.171814
-0.110205
-0.0649014
-0.0348042
-0.0167776
-0.00784208
-0.00386046
-0.00218265
-0.00143002
-0.00103231
-0.000766874
-0.000563397
-0.000395807
-0.00024429
-0.000132447
-1.91412e-05
-1.93496
-0.832249
-0.475317
-0.275835
-0.172005
-0.109072
-0.0650111
-0.0363036
-0.0190348
-0.0102171
-0.00601178
-0.00397825
-0.00285244
-0.00211698
-0.0015646
-0.0011266
-0.000776697
-0.000485666
-0.000262403
-5.32389e-05
-2.10686
-0.890261
-0.502415
-0.287374
-0.175397
-0.109999
-0.0663186
-0.0384598
-0.0216459
-0.0127773
-0.0082571
-0.00582102
-0.00429803
-0.00321086
-0.00236544
-0.00169272
-0.00115971
-0.000727204
-0.000393993
-8.77123e-05
-2.29889
-0.963921
-0.535281
-0.303939
-0.182106
-0.113043
-0.0688538
-0.0412761
-0.0246052
-0.0155171
-0.0105926
-0.00770756
-0.00576441
-0.00431461
-0.0031708
-0.00226083
-0.00154364
-0.000969079
-0.0005258
-0.000122611
-2.5029
-1.04648
-0.570995
-0.324524
-0.191984
-0.118166
-0.0726132
-0.04475
-0.0279056
-0.0184306
-0.0130148
-0.00963585
-0.00725049
-0.00542761
-0.00398033
-0.00283075
-0.0019284
-0.00121127
-0.000657856
-0.000158056
-2.70201
-1.13333
-0.60922
-0.348767
-0.204888
-0.125249
-0.0775346
-0.0488504
-0.0315269
-0.0215057
-0.0155168
-0.0116024
-0.00875447
-0.00654894
-0.00479355
-0.00340222
-0.00231388
-0.00145375
-0.00079018
-0.000194159
-2.91487
-1.25337
-0.664338
-0.38111
-0.222138
-0.134661
-0.0837066
-0.0535896
-0.0354535
-0.0247226
-0.0180814
-0.0135983
-0.0102721
-0.00767186
-0.00560418
-0.00397509
-0.00270172
-0.00169571
-0.000925062
-0.000230984
-3.24801
-1.46892
-0.760386
-0.43002
-0.247305
-0.14805
-0.0918892
-0.0593099
-0.0398294
-0.0281306
-0.0207199
-0.0156152
-0.0117912
-0.00879455
-0.00641563
-0.00454462
-0.00308614
-0.00193964
-0.00105874
-0.000268338
-3.71213
-1.74312
-0.876025
-0.487802
-0.278996
-0.165653
-0.102586
-0.06647
-0.0449777
-0.0319279
-0.0235441
-0.0177173
-0.0133484
-0.00993381
-0.00723393
-0.00511675
-0.00347153
-0.00218386
-0.00119273
-0.000307103
-3.75394
-1.80951
-0.899321
-0.506962
-0.296293
-0.177457
-0.11098
-0.0729372
-0.050115
-0.0359471
-0.0266198
-0.0200253
-0.0150523
-0.0111693
-0.00811126
-0.00572277
-0.00387501
-0.00243637
-0.00133021
-0.000347949
-3.06275
-1.6381
-0.808923
-0.468208
-0.283783
-0.171842
-0.108934
-0.0738745
-0.0531115
-0.0398112
-0.0304288
-0.0232914
-0.0176313
-0.013097
-0.00949311
-0.00667396
-0.00450124
-0.00282052
-0.00153537
-0.000409608
-2.46405
-1.50479
-0.794188
-0.469834
-0.297155
-0.186242
-0.120899
-0.0837809
-0.0613376
-0.0465115
-0.0357532
-0.0274075
-0.0207302
-0.015371
-0.0111188
-0.00780124
-0.00525283
-0.00328989
-0.00178944
-0.000483658
-1.97577
-1.34076
-0.768881
-0.465975
-0.307328
-0.202275
-0.135623
-0.0960201
-0.0712643
-0.0543561
-0.0418275
-0.0320245
-0.024173
-0.0178854
-0.0129135
-0.00904656
-0.00608488
-0.00381118
-0.00207207
-0.000566094
-1.58693
-1.17797
-0.746094
-0.470769
-0.319042
-0.219316
-0.152079
-0.109843
-0.0825606
-0.0633696
-0.0488439
-0.0373633
-0.0281476
-0.0207794
-0.0149716
-0.0104695
-0.00703235
-0.00440278
-0.00239152
-0.000659861
-1.28721
-1.01668
-0.703693
-0.470651
-0.329532
-0.236391
-0.170251
-0.125607
-0.0954599
-0.0736475
-0.0568237
-0.0434129
-0.0326335
-0.0240333
-0.0172772
-0.0120585
-0.00808737
-0.00505988
-0.00274507
-0.000764007
-1.04704
-0.870368
-0.652866
-0.467783
-0.340527
-0.253337
-0.189201
-0.142791
-0.109678
-0.0849839
-0.0656116
-0.0500552
-0.0375421
-0.0275818
-0.0197838
-0.0137816
-0.00922883
-0.00576946
-0.00312567
-0.000876375
-0.861071
-0.746414
-0.598537
-0.458417
-0.349057
-0.268624
-0.207258
-0.160109
-0.124407
-0.0968395
-0.0748407
-0.0570392
-0.0426981
-0.031302
-0.0224056
-0.0155797
-0.0104175
-0.00650702
-0.00352003
-0.00099303
-0.723192
-0.647761
-0.547897
-0.444572
-0.354031
-0.281193
-0.222937
-0.175957
-0.138398
-0.108302
-0.0838446
-0.0638875
-0.0477629
-0.0349553
-0.0249769
-0.0173403
-0.0115793
-0.00722656
-0.00390356
-0.00110667
-0.628921
-0.576831
-0.507318
-0.430057
-0.355459
-0.290018
-0.234836
-0.188562
-0.149975
-0.118005
-0.0915592
-0.0697999
-0.052154
-0.0381274
-0.0272095
-0.0188678
-0.012586
-0.00784922
-0.00423433
-0.00120488
-0.578082
-0.537245
-0.483168
-0.420126
-0.35519
-0.294734
-0.241696
-0.196074
-0.157085
-0.124085
-0.0964477
-0.0735744
-0.0549716
-0.0401685
-0.028648
-0.0198525
-0.0132349
-0.00825039
-0.00444629
-0.00126791
-4.42353
-4.38416
-4.32384
-4.24505
-4.14481
-4.02642
-3.87766
-3.71276
-3.50348
-3.40997
-3.23672
-3.18717
-3.12385
-3.04936
-2.96344
-2.87035
-2.7687
-2.67774
-2.59225
-2.581
-2.46622
-2.43222
-2.39213
-2.3485
-2.30285
-2.25777
-2.21276
-2.17048
-2.1213
-2.08628
-1.90315
-1.88466
-1.86254
-1.83757
-1.80983
-1.77922
-1.74486
-1.70797
-1.66879
-1.64314
-1.47829
-1.4688
-1.45627
-1.4411
-1.4237
-1.40466
-1.38461
-1.36466
-1.34473
-1.33036
-1.16219
-1.15935
-1.15427
-1.14723
-1.13854
-1.12847
-1.11716
-1.10484
-1.09144
-1.07986
-0.931439
-0.932505
-0.931609
-0.928889
-0.924511
-0.918652
-0.911494
-0.903267
-0.89413
-0.885318
-0.768278
-0.771399
-0.772771
-0.772485
-0.770655
-0.767408
-0.762874
-0.757191
-0.750479
-0.743194
-0.660921
-0.664968
-0.667417
-0.668329
-0.667778
-0.665852
-0.662651
-0.658279
-0.652844
-0.646529
-0.604996
-0.609333
-0.612175
-0.613563
-0.613548
-0.612193
-0.609569
-0.605752
-0.600823
-0.594871
-3.68139
-3.89395
-3.90523
-4.0416
-4.18303
-4.27698
-4.34384
-4.39541
-4.42867
-4.43901
-2.99763
-3.14992
-3.04977
-3.07147
-3.1649
-3.23083
-3.26264
-3.27864
-3.28224
-3.26913
-2.32608
-2.44781
-2.36175
-2.35113
-2.41798
-2.47784
-2.50411
-2.50997
-2.50549
-2.49121
-1.76694
-1.87936
-1.83405
-1.81946
-1.85966
-1.90404
-1.92586
-1.92992
-1.92588
-1.917
-1.35083
-1.4432
-1.42809
-1.41744
-1.43773
-1.46541
-1.48233
-1.48803
-1.48785
-1.48456
-1.03763
-1.10035
-1.10156
-1.10055
-1.11431
-1.13327
-1.14784
-1.15635
-1.16079
-1.16265
-0.801682
-0.84193
-0.852578
-0.861282
-0.875637
-0.891731
-0.905434
-0.915709
-0.923146
-0.92833
-0.636431
-0.664936
-0.68039
-0.694181
-0.709246
-0.724068
-0.73709
-0.747875
-0.756569
-0.763347
-0.532569
-0.555266
-0.572133
-0.587307
-0.602045
-0.615883
-0.628246
-0.638923
-0.647913
-0.655242
-0.480187
-0.500402
-0.517525
-0.532908
-0.547255
-0.560504
-0.572412
-0.582842
-0.591755
-0.59914
0.678028
0.672593
0.657838
0.62939
0.577115
0.483434
0.318714
0.00507824
-0.570373
-2.0669
0.617474
0.609429
0.590183
0.554149
0.49132
0.38143
0.199017
-0.149971
-0.725465
-1.97979
0.549543
0.53945
0.516427
0.474401
0.404099
0.285359
0.0985228
-0.23727
-0.737026
-1.5667
0.474725
0.462862
0.436543
0.390006
0.314705
0.194861
0.0131836
-0.267252
-0.676937
-1.19682
0.394578
0.381467
0.352816
0.304006
0.226987
0.114105
-0.053708
-0.269274
-0.595874
-0.952867
0.311928
0.298329
0.268843
0.220481
0.14605
0.0452895
-0.101215
-0.268439
-0.519971
-0.785663
0.231055
0.217754
0.189145
0.143594
0.0756435
-0.0120134
-0.134032
-0.269405
-0.455662
-0.650385
0.157655
0.14525
0.118885
0.0775765
0.0180266
-0.0574657
-0.156322
-0.266646
-0.401729
-0.541028
0.0987362
0.0874865
0.0638681
0.0270719
-0.0244706
-0.0894295
-0.169857
-0.259933
-0.361476
-0.46528
0.0630518
0.0527078
0.031166
-0.00235619
-0.0485542
-0.106572
-0.176198
-0.254177
-0.338984
-0.425382
1.01225
1.01864
1.03102
1.05016
1.07167
1.09419
1.10423
1.08968
0.984594
0.717378
0.980854
0.986214
0.995833
1.01062
1.02495
1.03805
1.03034
0.998396
0.837887
0.544327
0.948976
0.953301
0.960168
0.970535
0.977626
0.980985
0.955142
0.904141
0.68701
0.358312
0.916754
0.920045
0.9242
0.930107
0.929948
0.923199
0.879167
0.807113
0.532981
0.159379
0.884317
0.886585
0.888097
0.889513
0.882169
0.864895
0.802907
0.707407
0.377271
-0.0527824
0.851789
0.853056
0.852016
0.848931
0.834512
0.806265
0.726822
0.604989
0.221758
-0.28154
0.819292
0.8196
0.816124
0.808547
0.78719
0.747513
0.651302
0.499708
0.0690949
-0.530114
0.786942
0.786382
0.780623
0.768594
0.740433
0.688878
0.57661
0.391348
-0.0786687
-0.813268
0.75482
0.753481
0.7456
0.729175
0.694305
0.63045
0.502603
0.279418
-0.216988
-1.13119
0.722858
0.720489
0.710371
0.689462
0.64788
0.571709
0.42865
0.164111
-0.360157
-1.54981
1.27446
1.28955
1.32411
1.37994
1.45933
1.56425
1.69484
1.83871
1.91649
1.03418
1.25372
1.26811
1.30127
1.35448
1.42962
1.5273
1.64647
1.76401
1.87002
1.04681
1.23166
1.24532
1.27664
1.32648
1.3963
1.48579
1.59642
1.69955
1.85134
1.24816
1.20825
1.22115
1.25057
1.29705
1.36175
1.44366
1.54695
1.63718
1.80764
1.34906
1.18355
1.19563
1.22302
1.26608
1.3256
1.39989
1.49448
1.56941
1.72715
1.35025
1.1576
1.16882
1.19403
1.23347
1.28748
1.35373
1.43775
1.49691
1.62531
1.30833
1.13048
1.14079
1.16366
1.1993
1.24742
1.30531
1.37715
1.42157
1.51272
1.2399
1.10228
1.11165
1.13203
1.16372
1.20561
1.25494
1.31317
1.34359
1.39164
1.14363
1.07309
1.08149
1.09929
1.12689
1.16224
1.20284
1.24611
1.26241
1.2625
1.02098
1.04304
1.05045
1.06556
1.08898
1.11752
1.14919
1.17632
1.17776
1.1264
0.87708
1.45571
1.45484
1.45234
1.44752
1.43885
1.42412
1.40027
1.36418
1.31123
1.23859
1.45911
1.45981
1.46039
1.45997
1.45673
1.44775
1.42945
1.39707
1.34543
1.2692
1.46081
1.46408
1.46985
1.477
1.48347
1.48515
1.47785
1.453
1.40551
1.32229
1.45663
1.46303
1.47527
1.4922
1.51169
1.52841
1.53748
1.52499
1.48639
1.39308
1.44458
1.45421
1.47328
1.50097
1.53535
1.57044
1.59996
1.60527
1.5792
1.47869
1.42471
1.43721
1.46252
1.50056
1.55002
1.60534
1.65798
1.68629
1.66952
1.56862
1.39846
1.41313
1.44338
1.49011
1.55309
1.62851
1.70671
1.76301
1.74516
1.63316
1.36789
1.38392
1.41751
1.4704
1.54375
1.63667
1.74246
1.8336
1.8055
1.62703
1.3351
1.35171
1.38709
1.44343
1.52294
1.6277
1.7587
1.89594
1.86886
1.51605
1.30181
1.31809
1.35372
1.41081
1.49187
1.60009
1.74253
1.92658
1.98615
1.38621
1.178
1.15131
1.1227
1.09281
1.0617
1.02932
0.995746
0.961085
0.92549
0.889113
1.20333
1.17368
1.14147
1.10808
1.07341
1.03723
0.999529
0.960488
0.920305
0.879166
1.24889
1.21335
1.17329
1.13225
1.09023
1.04656
1.00106
0.953954
0.90554
0.856059
1.31356
1.26931
1.21586
1.16199
1.10835
1.05324
0.996024
0.937069
0.876915
0.815928
1.40729
1.35135
1.27556
1.20161
1.13108
1.05997
0.987161
0.913641
0.840453
0.768195
1.54518
1.47803
1.37663
1.28181
1.19341
1.10541
1.01781
0.932902
0.852508
0.777857
1.71396
1.64757
1.5394
1.43499
1.33164
1.2268
1.12285
1.02241
0.927218
0.838279
1.7912
1.73179
1.63746
1.53621
1.42494
1.30619
1.18331
1.05995
0.939104
0.822897
1.70873
1.68684
1.60436
1.49751
1.3662
1.22057
1.06494
0.905137
0.7449
0.586748
1.28054
1.22397
1.07596
0.924937
0.754433
0.57474
0.385586
0.192978
-0.000798153
-0.19386
0.852112
0.814651
0.776897
0.739017
0.701179
0.663542
0.626261
0.589485
0.553349
0.517985
0.837262
0.794791
0.751958
0.708966
0.666017
0.623298
0.580981
0.539213
0.498152
0.45782
0.805717
0.754714
0.703248
0.651504
0.599654
0.547851
0.496252
0.444962
0.394317
0.343603
0.754379
0.692545
0.630712
0.569142
0.508041
0.447539
0.387731
0.32876
0.271198
0.214299
0.697249
0.627991
0.560797
0.49611
0.434452
0.376338
0.322056
0.271148
0.221209
0.171178
0.709725
0.648326
0.59293
0.541831
0.492632
0.442799
0.389628
0.328865
0.255303
0.173695
0.755854
0.679395
0.607214
0.536908
0.46665
0.395415
0.317122
0.213372
0.0710027
-0.0619028
0.712101
0.605726
0.500186
0.390434
0.274105
0.153351
0.0184315
-0.173545
-0.44107
-0.62689
0.4314
0.277206
0.11891
-0.0506309
-0.234491
-0.424067
-0.61857
-0.875681
-1.23313
-1.40915
-0.385761
-0.578142
-0.775851
-0.984177
-1.20582
-1.43066
-1.63631
-1.84792
-2.1492
-2.25689
0.433326
0.308422
0.198866
0.119781
0.0787335
0.0673132
0.0692886
0.0727763
0.0731201
0.06935
0.061977
0.0524489
0.0423443
0.0327869
0.0244028
0.0174346
0.011869
0.00749678
0.00407266
0.00115353
0.360798
0.219683
0.105411
0.0373606
0.0166433
0.025032
0.0418306
0.0555047
0.0625439
0.0627527
0.0575965
0.0493773
0.0401209
0.0311566
0.0232168
0.0165933
0.0112968
0.00713524
0.00387948
0.00109825
0.233852
0.0403245
-0.0848094
-0.116681
-0.0902717
-0.0444898
-0.00180684
0.0291724
0.0469493
0.0531063
0.0511439
0.0447956
0.036757
0.0286626
0.0213898
0.0152921
0.0104098
0.00657415
0.00357776
0.00101245
0.122655
-0.207155
-0.347985
-0.318582
-0.225764
-0.129296
-0.0520945
0.000565496
0.0305329
0.0429068
0.0441799
0.0397286
0.0329547
0.0258033
0.0192797
0.013784
0.00938016
0.00592236
0.0032261
0.000912775
0.0879241
-0.443811
-0.557991
-0.485533
-0.350329
-0.21033
-0.098947
-0.025128
0.0158537
0.033545
0.0375599
0.0347452
0.0291208
0.0228806
0.0171088
0.0122283
0.00831705
0.00524936
0.00286205
0.000809781
-0.00988631
-0.598124
-0.617177
-0.558341
-0.421338
-0.262357
-0.131096
-0.0438038
0.00438789
0.0256871
0.031665
0.0301134
0.0254687
0.020064
0.0150065
0.0107194
0.00728562
0.00459673
0.00250819
0.000709803
-0.272897
-0.665472
-0.597335
-0.565766
-0.437021
-0.280378
-0.146184
-0.0547928
-0.00367393
0.0194237
0.0265719
0.0259266
0.0220973
0.0174411
0.0130427
0.00930918
0.0063219
0.00398754
0.00217719
0.000616366
-0.730818
-0.740489
-0.58754
-0.544328
-0.419161
-0.275751
-0.148925
-0.0599061
-0.00898883
0.0145376
0.0222515
0.0222351
0.0190748
0.0150726
0.0112642
0.00803085
0.00544799
0.00343525
0.00187633
0.000531567
-1.27479
-0.84929
-0.592233
-0.516269
-0.392479
-0.26268
-0.145597
-0.0615411
-0.0123494
0.0108457
0.0187362
0.0191198
0.0164725
0.0130094
0.00970441
0.00690499
0.004676
0.00294649
0.00160905
0.000456536
-1.56831
-0.900681
-0.559767
-0.47365
-0.356677
-0.243187
-0.138018
-0.0607442
-0.0144206
0.00779697
0.0155556
0.0162131
0.0140285
0.0110777
0.00825391
0.00586627
0.00396908
0.00250249
0.00136716
0.000388433
-1.3289
-0.825196
-0.467014
-0.399279
-0.297742
-0.208224
-0.122027
-0.0567641
-0.0163134
0.00382577
0.0114512
0.0127342
0.0113379
0.00910236
0.0068583
0.00491611
0.00334878
0.00212715
0.00116769
0.00033018
-1.18949
-0.813117
-0.447787
-0.375111
-0.274336
-0.190879
-0.111043
-0.0514906
-0.0148407
0.00327223
0.0101052
0.0112595
0.0100273
0.00804954
0.00606594
0.00434987
0.00296427
0.00188588
0.0010357
0.000291842
-1.15212
-0.802231
-0.43763
-0.357421
-0.25843
-0.17845
-0.10215
-0.046447
-0.0128622
0.0033318
0.00925327
0.010126
0.00893457
0.00712898
0.00535042
0.00382577
0.00260131
0.00165429
0.000907662
0.000255569
-1.15959
-0.784672
-0.429082
-0.338466
-0.242187
-0.166434
-0.0945325
-0.0426553
-0.0117445
0.00289745
0.00814438
0.00886719
0.00778335
0.00618185
0.00462305
0.00329645
0.00223613
0.00142291
0.000776856
0.000220018
-1.19614
-0.766971
-0.422958
-0.319977
-0.226132
-0.154418
-0.0874854
-0.0396373
-0.0112628
0.00204791
0.00679214
0.00747264
0.00655922
0.00520111
0.00388039
0.00275587
0.00186439
0.00118676
0.000647107
0.000184819
-1.25111
-0.751523
-0.419485
-0.303361
-0.211568
-0.143273
-0.0811678
-0.0371984
-0.0111924
0.000947235
0.00530272
0.00600677
0.00529838
0.00419736
0.0031232
0.00221089
0.00149143
0.000949752
0.000517253
0.000150157
-1.32272
-0.741312
-0.41897
-0.289297
-0.198919
-0.13343
-0.0757929
-0.0353889
-0.0115119
-0.000371657
0.00369857
0.00448303
0.00400881
0.00317933
0.00235899
0.00166246
0.00111687
0.000712235
0.000387385
0.000115949
-1.41096
-0.73827
-0.421782
-0.278372
-0.188389
-0.125058
-0.071441
-0.0342464
-0.0122384
-0.00191615
0.00197666
0.00290024
0.0026901
0.00214695
0.00158779
0.00111061
0.000740721
0.000474211
0.000257466
8.20658e-05
-1.51744
-0.744412
-0.428341
-0.271132
-0.18021
-0.118303
-0.0681497
-0.033772
-0.0133672
-0.00368259
0.000139002
0.00125944
0.00134277
0.00110046
0.000809751
0.000555449
0.000363019
0.000235676
0.000127459
4.83852e-05
-1.64191
-0.7613
-0.439077
-0.268044
-0.174614
-0.113311
-0.0659574
-0.0339592
-0.0148844
-0.00566083
-0.00180849
-0.000436148
-3.14754e-05
4.07782e-05
2.53577e-05
-2.77442e-06
-1.61223e-05
-3.3375e-06
-2.66127e-06
1.47833e-05
)
;

boundaryField
{
    inlet
    {
        type            freestreamPressure;
        freestreamValue uniform 0;
        supersonic      false;
        value           nonuniform List<scalar> 
40
(
0.678028
0.617474
0.549543
0.474725
0.394578
0.311928
0.231055
0.157655
0.0987362
0.0630518
1.01225
0.980854
0.948976
0.916754
0.884317
0.851789
0.819292
0.786942
0.75482
0.722858
1.27446
1.25372
1.23166
1.20825
1.18355
1.1576
1.13048
1.10228
1.07309
1.04304
1.45571
1.45911
1.46081
1.45663
1.44458
1.42471
1.39846
1.36789
1.3351
1.30181
)
;
    }
    outlet
    {
        type            freestreamPressure;
        freestreamValue uniform 0;
        supersonic      false;
        value           nonuniform List<scalar> 
40
(
-1.19767e-09
-1.33111e-09
-1.43489e-09
-1.49645e-09
-1.48482e-09
-1.36845e-09
-1.12628e-09
-7.6628e-10
-3.55242e-10
-4.66155e-11
-6.48622e-11
-1.79124e-10
-2.92584e-10
-4.04901e-10
-5.15982e-10
-6.25686e-10
-7.33728e-10
-8.39068e-10
-9.44004e-10
-1.04949e-09
1.10562e-09
9.8554e-10
8.68637e-10
7.51534e-10
6.33485e-10
5.15656e-10
3.9832e-10
2.81592e-10
1.65579e-10
5.03793e-11
6.17046e-11
4.60567e-10
9.65659e-10
1.37698e-09
1.62439e-09
1.71521e-09
1.68727e-09
1.58416e-09
1.44365e-09
1.27925e-09
)
;
    }
    top
    {
        type            symmetryPlane;
    }
    bottom
    {
        type            symmetryPlane;
    }
    cylinder
    {
        type            zeroGradient;
    }
    frontandback
    {
        type            empty;
    }
}


// ************************************************************************* //
