/*--------------------------------*- C++ -*----------------------------------*\
| =========                 |                                                 |
| \\      /  F ield         | OpenFOAM: The Open Source CFD Toolbox           |
|  \\    /   O peration     | Version:  v1912                                 |
|   \\  /    A nd           | Website:  www.openfoam.com                      |
|    \\/     M anipulation  |                                                 |
\*---------------------------------------------------------------------------*/
FoamFile
{
    version     2.0;
    format      ascii;
    class       surfaceScalarField;
    location    "6";
    object      phi;
}
// * * * * * * * * * * * * * * * * * * * * * * * * * * * * * * * * * * * * * //

dimensions      [0 3 -1 0 0 0 0];
oriented        oriented;


internalField   nonuniform List<scalar> 
18940
(
0.00014148
-0.238094
0.237952
0.000599756
-0.222373
0.221915
0.00130815
-0.210304
0.209596
0.00216263
-0.200505
0.19965
0.00310324
-0.192056
0.191116
0.00408101
-0.184365
0.183387
0.00505995
-0.177103
0.176125
0.00601656
-0.170111
0.169155
0.00693712
-0.16332
0.162399
0.00781513
-0.156713
0.155835
0.00864922
-0.1503
0.149466
0.0094415
-0.144098
0.143306
0.0101964
-0.138126
0.137371
0.0109197
-0.132399
0.131676
0.0116181
-0.126926
0.126227
0.0122983
-0.121705
0.121025
0.0129667
-0.116731
0.116062
0.0136285
-0.111987
0.111325
0.0142868
-0.107451
0.106793
-0.103097
0.102442
0.0149417
0.000159311
-0.238253
0.000635876
-0.22285
0.00134753
-0.211016
0.00220935
-0.201366
0.00315421
-0.193001
0.00413246
-0.185343
0.00510873
-0.17808
0.00606005
-0.171062
0.00697338
-0.164233
0.00784286
-0.157583
0.00866773
-0.151125
0.00945057
-0.144881
0.0101962
-0.138872
0.0109107
-0.133114
0.0116011
-0.127616
0.0122744
-0.122379
0.0129374
-0.117394
0.0135957
-0.112645
0.014253
-0.108108
-0.103754
0.01491
0.000176509
-0.238429
0.000665899
-0.223339
0.00138452
-0.211734
0.00225198
-0.202234
0.00319994
-0.193949
0.00417765
-0.186321
0.00515002
-0.179052
0.00609477
-0.172007
0.00699958
-0.165138
0.00785933
-0.158443
0.00867384
-0.151939
0.00944623
-0.145653
0.0101816
-0.139607
0.0108865
-0.133819
0.0115681
-0.128298
0.0122336
-0.123044
0.0128904
-0.118051
0.0135445
-0.113299
0.0142001
-0.108764
-0.104412
0.0148586
0.000186551
-0.238616
0.000687922
-0.22384
0.00141627
-0.212463
0.0022897
-0.203107
0.00323988
-0.194899
0.00421588
-0.187297
0.00518305
-0.180019
0.00611989
-0.172944
0.00701488
-0.166033
0.00786366
-0.159291
0.00866671
-0.152742
0.0094276
-0.146414
0.0101519
-0.140332
0.0108463
-0.134513
0.0115181
-0.12897
0.0121752
-0.123701
0.0128251
-0.1187
0.0134743
-0.113948
0.0141276
-0.109417
-0.105072
0.0147871
0.000194601
-0.238811
0.000706732
-0.224353
0.00144414
-0.2132
0.00232284
-0.203986
0.00327405
-0.195851
0.004247
-0.18827
0.00520757
-0.18098
0.00613508
-0.173872
0.00701889
-0.166917
0.00785542
-0.160128
0.00864581
-0.153533
0.00939414
-0.147162
0.0101063
-0.141044
0.0107893
-0.135196
0.0114506
-0.129631
0.0120984
-0.124349
0.0127406
-0.119343
0.0133842
-0.114592
0.0140347
-0.110067
-0.105732
0.014695
0.000201109
-0.239012
0.000722793
-0.224874
0.00146835
-0.213946
0.00235134
-0.204869
0.00330234
-0.196802
0.0042708
-0.189238
0.00522327
-0.181932
0.00613996
-0.174788
0.00701115
-0.167788
0.00783409
-0.160951
0.00861058
-0.154309
0.00934519
-0.147897
0.0100442
-0.141743
0.0107147
-0.135867
0.0113647
-0.130281
0.0120023
-0.124987
0.0126358
-0.119976
0.013273
-0.115229
0.0139201
-0.110715
-0.106392
0.0145808
0.000206727
-0.239218
0.00073688
-0.225404
0.0014894
-0.214698
0.00237542
-0.205755
0.00332477
-0.197751
0.00428718
-0.190201
0.00522996
-0.182875
0.00613427
-0.175693
0.00699132
-0.168645
0.00779924
-0.161759
0.00856048
-0.155071
0.00928014
-0.148617
0.00996477
-0.142427
0.0106218
-0.136524
0.0112592
-0.130918
0.0118856
-0.125613
0.0125095
-0.1206
0.0131393
-0.115859
0.0137822
-0.111357
-0.107053
0.0144426
0.000211625
-0.23943
0.000749248
-0.225942
0.00150756
-0.215457
0.00239523
-0.206643
0.00334139
-0.198697
0.00429612
-0.191155
0.00522754
-0.183807
0.00611781
-0.176583
0.00695914
-0.169487
0.0077505
-0.16255
0.00849505
-0.155815
0.00919837
-0.14932
0.00986735
-0.143096
0.0105096
-0.137166
0.0111332
-0.131542
0.011747
-0.126227
0.01236
-0.121213
0.0129812
-0.11648
0.0136186
-0.111995
-0.107712
0.0142779
0.00021591
-0.239646
0.000760113
-0.226486
0.00152305
-0.216219
0.00241095
-0.207531
0.00335232
-0.199639
0.00429766
-0.192101
0.00521599
-0.184725
0.00609051
-0.177457
0.00691444
-0.17031
0.00768761
-0.163323
0.0084139
-0.156541
0.00909938
-0.150006
0.00975121
-0.143748
0.0103772
-0.137792
0.0109855
-0.13215
0.0115851
-0.126827
0.0121855
-0.121813
0.0127963
-0.117091
0.0134267
-0.112625
-0.108369
0.0140835
0.000219638
-0.239866
0.000769651
-0.227036
0.00153611
-0.216986
0.00242281
-0.208417
0.00335775
-0.200573
0.00429195
-0.193035
0.00519542
-0.185628
0.00605241
-0.178314
0.00685719
-0.171115
0.00761047
-0.164077
0.0083168
-0.157248
0.00898274
-0.150672
0.00961575
-0.144381
0.0102237
-0.1384
0.0108149
-0.132742
0.0113984
-0.12741
0.011984
-0.122399
0.0125823
-0.117689
0.0132035
-0.113246
-0.109021
0.0138559
0.000222885
-0.240089
0.000778073
-0.227591
0.00154703
-0.217755
0.00243109
-0.209301
0.00335795
-0.2015
0.00427926
-0.193956
0.00516606
-0.186515
0.00600373
-0.179152
0.00678756
-0.171899
0.00751915
-0.164808
0.00820371
-0.157932
0.00884827
-0.151316
0.00946055
-0.144993
0.0100485
-0.138988
0.0106204
-0.133313
0.0111854
-0.127975
0.0117536
-0.122967
0.0123364
-0.118272
0.0129455
-0.113855
-0.109667
0.0135908
0.000225764
-0.240314
0.000785665
-0.228151
0.00155616
-0.218525
0.00243619
-0.210181
0.0033533
-0.202417
0.00425997
-0.194863
0.00512832
-0.187383
0.00594487
-0.179969
0.00670594
-0.17266
0.00741398
-0.165516
0.00807486
-0.158593
0.00869605
-0.151937
0.00928547
-0.145583
0.00985115
-0.139554
0.0104013
-0.133864
0.0109449
-0.128519
0.0114924
-0.123515
0.012056
-0.118836
0.012649
-0.114448
-0.110301
0.0132836
0.000228501
-0.240543
0.000792858
-0.228716
0.00156399
-0.219296
0.00243859
-0.211056
0.00334434
-0.203323
0.00423464
-0.195753
0.00508279
-0.188232
0.00587646
-0.180762
0.00661298
-0.173397
0.00729561
-0.166199
0.00793086
-0.159228
0.00852656
-0.152533
0.00909084
-0.146147
0.00963167
-0.140094
0.0101571
-0.134389
0.0106759
-0.129037
0.0111987
-0.124037
0.0117385
-0.119376
0.0123105
-0.11502
-0.11092
0.0129293
0.000231514
-0.240774
0.000800319
-0.229284
0.0015712
-0.220067
0.00243895
-0.211924
0.0033317
-0.204216
0.00420396
-0.196625
0.00503025
-0.189058
0.00579937
-0.181531
0.00650963
-0.174107
0.0071651
-0.166854
0.00777279
-0.159836
0.00834087
-0.153101
0.00887756
-0.146684
0.00939074
-0.140608
0.00988813
-0.134886
0.0103782
-0.129527
0.0108714
-0.124531
0.0113815
-0.119886
0.0119257
-0.115565
-0.111516
0.0125217
0.000235537
-0.24101
0.00080902
-0.229858
0.00157857
-0.220837
0.00243797
-0.212783
0.00331612
-0.205094
0.00416876
-0.197478
0.00497164
-0.189861
0.00571471
-0.182274
0.00639722
-0.174789
0.00702393
-0.167481
0.00760232
-0.160415
0.00814077
-0.153639
0.00864749
-0.147191
0.00913011
-0.14109
0.00959586
-0.135352
0.0100526
-0.129984
0.0105103
-0.124988
0.0109831
-0.120359
0.0114901
-0.116072
-0.11208
0.0120538
0.00024163
-0.241251
0.000820065
-0.230436
0.00158689
-0.221604
0.00243636
-0.213633
0.00329839
-0.205956
0.00412996
-0.19831
0.00490808
-0.190639
0.00562382
-0.18299
0.00627737
-0.175443
0.00687408
-0.168078
0.00742179
-0.160962
0.00792898
-0.154147
0.00840371
-0.147665
0.00885317
-0.14154
0.00928389
-0.135783
0.00970265
-0.130403
0.0101184
-0.125404
0.010545
-0.120785
0.0110038
-0.11653
-0.1126
0.0115239
0.000251089
-0.241503
0.000834511
-0.23102
0.00159701
-0.222366
0.00243499
-0.214471
0.00327946
-0.206801
0.00408859
-0.199119
0.00484076
-0.191391
0.0055282
-0.183678
0.00615193
-0.176067
0.00671786
-0.168644
0.00723406
-0.161478
0.00770894
-0.154622
0.00815026
-0.148107
0.00856466
-0.141954
0.00895768
-0.136176
0.00933478
-0.13078
0.00970321
-0.125773
0.0100754
-0.121157
0.0104745
-0.116929
-0.113061
0.0109354
0.000266267
-0.241769
0.000854746
-0.231608
0.00161105
-0.223123
0.00243537
-0.215295
0.00326036
-0.207626
0.00404558
-0.199904
0.00477075
-0.192116
0.00542924
-0.184336
0.00602285
-0.17666
0.0065579
-0.169179
0.00704251
-0.161963
0.00748484
-0.155064
0.00789209
-0.148514
0.00826997
-0.142332
0.0086228
-0.136529
0.00895439
-0.131112
0.00926977
-0.126088
0.00957777
-0.121465
0.00989862
-0.11725
-0.113433
0.0102705
0.000294964
-0.242064
0.000888499
-0.232202
0.001633
-0.223867
0.00243869
-0.216101
0.00324136
-0.208428
0.00400116
-0.200664
0.00469864
-0.192814
0.00532808
-0.184966
0.00589199
-0.177224
0.00639705
-0.169684
0.00685134
-0.162417
0.00726257
-0.155475
0.00763696
-0.148888
0.00797865
-0.142674
0.00828962
-0.13684
0.00857034
-0.131392
0.00882049
-0.126338
0.00903956
-0.121684
0.00923862
-0.117449
-0.11368
0.0094858
0.000356776
-0.242421
0.000946753
-0.232792
0.00166151
-0.224582
0.00244259
-0.216882
0.0032209
-0.209207
0.00395458
-0.201397
0.00462432
-0.193483
0.00522526
-0.185567
0.00576067
-0.17776
0.00623774
-0.170161
0.00666475
-0.162844
0.00704917
-0.15586
0.00739649
-0.149236
0.00770934
-0.142986
0.00798679
-0.137117
0.00822337
-0.131629
0.00840709
-0.126522
0.00851675
-0.121794
0.00853604
-0.117469
-0.113741
0.00859781
0.246934
0.000280717
-0.247215
0.246683
0.000251291
0.246443
0.000240219
0.246206
0.000237211
0.245968
0.000237686
0.245729
0.000239286
0.245487
0.000241466
0.245243
0.00024373
0.244998
0.000245704
0.24475
0.000247173
0.244502
0.000248027
0.244254
0.000248225
0.244007
0.000247729
0.24376
0.000246491
0.243516
0.000244349
0.243275
0.000241054
0.243039
0.000235494
0.242812
0.000227048
0.242606
0.00020656
0.000184966
0.242204
0.000655387
-0.242578
0.241806
0.000648712
0.241392
0.000655042
0.24096
0.000668317
0.240514
0.000684192
0.240053
0.000699824
0.23958
0.000714952
0.239094
0.000729144
0.238598
0.000741956
0.238092
0.000753088
0.237578
0.000762379
0.237056
0.000769738
0.236529
0.000775094
0.235997
0.000778362
0.235462
0.000779321
0.234926
0.000777682
0.234389
0.000772193
0.233854
0.00076241
0.233319
0.000740783
0.000712459
0.235792
0.000988758
-0.236126
0.235409
0.0010319
0.23499
0.0010746
0.234539
0.00111929
0.234059
0.00116428
0.233552
0.00120694
0.23302
0.00124698
0.232464
0.0012842
0.231888
0.00131828
0.231292
0.00134896
0.230679
0.00137609
0.230049
0.0013996
0.229404
0.00141942
0.228747
0.00143551
0.228079
0.00144774
0.227401
0.00145594
0.226713
0.00145943
0.226018
0.00145821
0.225308
0.00144986
0.00143908
0.22799
0.00124293
-0.228244
0.227686
0.00133554
0.227338
0.00142285
0.226949
0.00150764
0.226524
0.00159024
0.226062
0.00166859
0.225567
0.00174231
0.22504
0.0018112
0.224483
0.001875
0.223898
0.0019335
0.223288
0.00198657
0.222653
0.00203413
0.221996
0.00207621
0.221319
0.00211283
0.220623
0.00214405
0.219909
0.00216996
0.219178
0.00219044
0.21843
0.00220592
0.217664
0.0022158
0.00222166
0.219247
0.00139751
-0.219402
0.219043
0.00153929
0.218792
0.00167381
0.218497
0.001803
0.218159
0.00192779
0.217781
0.00204662
0.217365
0.00215909
0.216911
0.0022649
0.216422
0.00236379
0.2159
0.00245554
0.215347
0.00254001
0.214764
0.00261716
0.214153
0.00268705
0.213516
0.00274984
0.212854
0.00280573
0.212169
0.00285506
0.211461
0.00289813
0.210732
0.00293558
0.20998
0.00296748
0.00299494
0.210007
0.00145751
-0.210067
0.209899
0.00164776
0.209743
0.00182975
0.209541
0.00200466
0.209296
0.00217335
0.209008
0.00233462
0.208679
0.002488
0.20831
0.00263314
0.207905
0.0027697
0.207463
0.00289744
0.206986
0.00301621
0.206478
0.00312597
0.205938
0.00322681
0.205369
0.00331897
0.204772
0.00340283
0.204148
0.00347892
0.203498
0.00354787
0.202823
0.00361058
0.202123
0.00366765
0.00372038
0.200658
0.00144056
-0.200641
0.200628
0.00167787
0.200551
0.00190623
0.20043
0.00212634
0.200264
0.00233877
0.200056
0.00254248
0.199807
0.002737
0.199519
0.00292187
0.199192
0.00309669
0.198828
0.00326116
0.198429
0.00341509
0.197997
0.00355843
0.197532
0.00369129
0.197037
0.00381398
0.196513
0.003927
0.195961
0.00403112
0.195381
0.00412722
0.194775
0.00421658
0.194143
0.00430024
0.00437971
0.191485
0.00136761
-0.191412
0.191513
0.00165005
0.191496
0.00192299
0.191436
0.00218677
0.191333
0.00244168
0.191189
0.00268676
0.191004
0.00292147
0.190781
0.00314525
0.19052
0.00335764
0.190223
0.00355825
0.189891
0.00374685
0.189526
0.00392333
0.18913
0.00408781
0.188703
0.00424065
0.188248
0.00438246
0.187765
0.00451421
0.187255
0.00463711
0.186718
0.0047528
0.186156
0.00486282
0.00496904
0.182676
0.00125805
-0.182566
0.182742
0.00158354
0.182766
0.00189903
0.182748
0.00220461
0.18269
0.00250029
0.182591
0.00278513
0.182454
0.00305851
0.18228
0.00331977
0.182069
0.00356835
0.181823
0.00380378
0.181545
0.00402574
0.181234
0.00423408
0.180893
0.00442886
0.180523
0.00461045
0.180126
0.00477959
0.179703
0.0049374
0.179254
0.00508548
0.178781
0.00522588
0.178283
0.00536077
0.00549259
0.174334
0.00112788
-0.174204
0.174423
0.00149445
0.174472
0.00185054
0.17448
0.00219602
0.17445
0.00253069
0.174382
0.00285358
0.174276
0.00316394
0.174135
0.00346102
0.173959
0.00374417
0.17375
0.00401279
0.173509
0.00426647
0.173239
0.00450494
0.172939
0.00472821
0.172613
0.00493662
0.172262
0.00513095
0.171887
0.00531251
0.171489
0.00548325
0.171069
0.00564575
0.170627
0.00580303
0.00595831
0.16651
0.00098922
-0.166371
0.166609
0.00139522
0.166669
0.00179022
0.166692
0.00217393
0.166676
0.00254596
0.166625
0.00290527
0.166538
0.00325101
0.166416
0.00358232
0.166262
0.00389842
0.166076
0.0041986
0.16586
0.00448228
0.165616
0.00474909
0.165346
0.00499889
0.16505
0.00523193
0.164732
0.005449
0.164393
0.0056515
0.164035
0.00584179
0.163657
0.006023
0.163261
0.00619932
0.00637509
0.159212
0.000850827
-0.159074
0.159313
0.0012949
0.159375
0.00172741
0.159401
0.00214799
0.159391
0.00255601
0.159346
0.00295038
0.159267
0.00333012
0.159155
0.00369426
0.159012
0.00404188
0.158838
0.00437212
0.158636
0.00468425
0.158408
0.0049777
0.158154
0.00525214
0.157879
0.00550765
0.157583
0.00574489
0.157269
0.0059653
0.156939
0.00617157
0.156595
0.00636741
0.156235
0.00655864
0.00675096
0.152428
0.000718742
-0.152296
0.152523
0.00119972
0.152582
0.00166868
0.152605
0.00212505
0.152593
0.00256799
0.152547
0.00299633
0.152468
0.00340897
0.152357
0.0038048
0.152216
0.00418276
0.152047
0.00454184
0.15185
0.00488109
0.151628
0.00519971
0.151383
0.00549712
0.151117
0.00577309
0.150834
0.00602804
0.150536
0.00626322
0.150226
0.00648161
0.149906
0.00668728
0.149577
0.0068884
0.00709202
0.146129
0.000596976
-0.146007
0.146215
0.00111355
0.146266
0.00161826
0.146281
0.00210966
0.146262
0.00258674
0.14621
0.00304824
0.146126
0.00349294
0.146012
0.00391959
0.145867
0.00432699
0.145695
0.00471394
0.145497
0.00507926
0.145275
0.00542188
0.145031
0.00574087
0.144769
0.00603557
0.144491
0.00630596
0.144201
0.00655282
0.143904
0.0067792
0.143602
0.00698908
0.143296
0.00719406
0.00740165
0.140283
0.000485372
-0.140172
0.140358
0.00103868
0.140398
0.00157865
0.140403
0.00210457
0.140374
0.00261527
0.140313
0.00310936
0.140221
0.0035855
0.140098
0.00404233
0.139946
0.00447848
0.139768
0.00489256
0.139564
0.00528316
0.139337
0.00564889
0.139089
0.00598837
0.138825
0.00630042
0.138546
0.0065843
0.138259
0.00683996
0.137968
0.00707006
0.13768
0.00727755
0.137395
0.00747888
0.00767941
0.134856
0.000387044
-0.134758
0.134918
0.000976216
0.134946
0.00155118
0.134939
0.00211127
0.134899
0.0026552
0.134827
0.00318144
0.134724
0.00368854
0.134592
0.00417501
0.134431
0.00463935
0.134243
0.00507998
0.134031
0.00549525
0.133797
0.00588341
0.133542
0.00624261
0.133272
0.00657097
0.132989
0.00686678
0.132701
0.00712872
0.132412
0.00735834
0.132134
0.00755599
0.131868
0.00774425
0.007919
0.129814
0.000301794
-0.129728
0.129863
0.000926429
0.129878
0.00153614
0.12986
0.0021301
0.129808
0.0027069
0.129724
0.00326487
0.12961
0.00380244
0.129467
0.00431804
0.129297
0.00481003
0.1291
0.00527664
0.128879
0.005716
0.128637
0.00612603
0.128375
0.00650435
0.128098
0.00684832
0.127809
0.007155
0.127517
0.00742125
0.127229
0.00764652
0.126958
0.00782656
0.126711
0.00799177
0.00810774
0.125125
0.00022894
-0.125052
0.125162
0.000888663
0.125166
0.00153278
0.125136
0.00216026
0.125073
0.00276946
0.124979
0.00335858
0.124856
0.00392599
0.124704
0.00447003
0.124525
0.00498893
0.124321
0.0054808
0.124093
0.00594355
0.123844
0.0063748
0.123577
0.00677171
0.123294
0.00713085
0.123002
0.0074479
0.122706
0.00771723
0.122417
0.00793493
0.122155
0.00808864
0.121923
0.00822342
0.00823709
0.12076
0.000166958
-0.120698
0.120787
0.000861335
0.120781
0.0015392
0.120742
0.0021995
0.120671
0.0028403
0.12057
0.00345964
0.12044
0.00405585
0.120283
0.00462723
0.1201
0.00517193
0.119893
0.00568793
0.119663
0.00617299
0.119413
0.00662451
0.119146
0.00703929
0.118864
0.00741317
0.118571
0.00774066
0.118275
0.00801314
0.117987
0.00822244
0.117737
0.00833901
0.117534
0.00842658
0.00830222
0.116691
-0.116638
0.000113533
0.116711
0.000841823
0.116698
0.00155239
0.116653
0.00224422
0.116578
0.00291521
0.116474
0.0035632
0.116344
0.00418655
0.116187
0.00478354
0.116007
0.00535226
0.115804
0.0058906
0.115581
0.00639627
0.115339
0.00686651
0.115081
0.00729795
0.114808
0.00768593
0.114524
0.0080243
0.114235
0.0083018
0.11395
0.00850751
0.113701
0.00858862
0.113529
0.00859798
0.00809008
0.248911
5.80619e-05
-0.248969
0.248898
1.3462e-05
0.248896
1.64584e-06
0.248893
3.2694e-06
0.248882
1.1297e-05
0.248859
2.24906e-05
0.248824
3.57276e-05
0.248773
5.00321e-05
0.248709
6.47143e-05
0.248629
7.93466e-05
0.248536
9.38873e-05
0.248428
0.000108003
0.248306
0.000121155
0.248173
0.000133326
0.248029
0.000144522
0.247874
0.000154527
0.247711
0.000162544
0.247543
0.000168209
0.247377
0.000165836
0.000162459
0.243678
-0.000193263
-0.243426
0.243886
-0.000195276
0.244067
-0.000179117
0.24422
-0.000149669
0.244344
-0.000112759
0.244439
-7.20312e-05
0.244503
-2.85252e-05
0.244536
1.66359e-05
0.244539
6.23121e-05
0.24451
0.000108427
0.244447
0.000156014
0.244353
0.000202274
0.244228
0.000246404
0.244072
0.000288734
0.243888
0.000329162
0.243675
0.000367151
0.243436
0.000401588
0.243172
0.000431894
0.242885
0.000453454
0.000468875
0.234938
-0.00068769
-0.234444
0.235378
-0.000634717
0.235772
-0.000573281
0.236125
-0.000502407
0.236437
-0.000424497
0.236707
-0.000342534
0.236936
-0.000257435
0.237123
-0.000170161
0.237269
-8.34622e-05
0.237376
5.90628e-07
0.237437
9.53823e-05
0.237454
0.000184824
0.237431
0.000269956
0.237366
0.000353797
0.23726
0.000435233
0.237114
0.000513403
0.236928
0.000587412
0.236703
0.000656862
0.236436
0.000719939
0.000779267
0.22442
-0.001359
-0.223749
0.225041
-0.00125545
0.225614
-0.00114642
0.226142
-0.00103029
0.226625
-0.00090739
0.227062
-0.000779909
0.227454
-0.000648968
0.227799
-0.000515673
0.228097
-0.000381319
0.228344
-0.000246135
0.228547
-0.000107647
0.228699
3.26925e-05
0.228807
0.000161434
0.228868
0.0002934
0.228881
0.000422208
0.228847
0.00054736
0.228766
0.000668199
0.228639
0.00078429
0.228464
0.00089464
0.000999292
0.213273
-0.002152
-0.21248
0.214021
-0.00200334
0.214724
-0.00184907
0.215382
-0.00168814
0.215995
-0.00152016
0.216561
-0.00134674
0.217081
-0.00116902
0.217554
-0.000988044
0.217977
-0.000804718
0.218351
-0.000619811
0.218677
-0.00043361
0.218957
-0.000247698
0.219185
-6.66608e-05
0.219364
0.000114538
0.219494
0.000292569
0.219574
0.000467539
0.219604
0.000637785
0.219585
0.000802999
0.219518
0.000962385
0.00111535
0.202193
-0.00302109
-0.201324
0.203021
-0.00283184
0.203808
-0.00263558
0.204551
-0.00243189
0.205252
-0.00222039
0.205907
-0.00200238
0.206517
-0.00177903
0.207081
-0.00155149
0.207597
-0.00132084
0.208065
-0.00108821
0.208486
-0.000854497
0.208859
-0.00062081
0.209181
-0.000388772
0.209455
-0.000159114
0.209681
6.61564e-05
0.209857
0.000291584
0.209984
0.000511539
0.210061
0.00072603
0.210088
0.000934616
0.00113659
0.191583
-0.0039314
-0.190673
0.192456
-0.00370511
0.193291
-0.00346993
0.194085
-0.00322589
0.194837
-0.00297291
0.195547
-0.00271223
0.196213
-0.00244514
0.196835
-0.00217297
0.197411
-0.00189699
0.197941
-0.00161843
0.198425
-0.00133838
0.198862
-0.0010579
0.199251
-0.000778384
0.199593
-0.000500795
0.199885
-0.00022603
0.200135
4.23001e-05
0.200333
0.000313078
0.200484
0.000575474
0.200586
0.000832016
0.00108184
0.181646
-0.00485838
-0.180719
0.182539
-0.00459785
0.183395
-0.00432633
0.184213
-0.00404413
0.184992
-0.00375155
0.18573
-0.00345001
0.186425
-0.00314099
0.187079
-0.00282603
0.187688
-0.00250656
0.188254
-0.00218392
0.188775
-0.00185934
0.189251
-0.001534
0.189681
-0.00120919
0.190067
-0.000885918
0.190406
-0.000565257
0.190697
-0.000248499
0.190946
6.32148e-05
0.191148
0.000374278
0.191303
0.000676677
0.000972425
0.172451
-0.00578618
-0.171524
0.173347
-0.00549369
0.174209
-0.00518788
0.175034
-0.00486919
0.175821
-0.00453846
0.176568
-0.00419745
0.177275
-0.00384794
0.177941
-0.00349168
0.178564
-0.00313028
0.179146
-0.00276523
0.179684
-0.00239787
0.18018
-0.00202945
0.180632
-0.00166119
0.18104
-0.00129423
0.181404
-0.000929559
0.181724
-0.000568327
0.181999
-0.000211862
0.182233
0.000140508
0.182421
0.000488301
0.000827883
0.163993
-0.00670568
-0.163074
0.164883
-0.00638319
0.165739
-0.00604464
0.166561
-0.00569058
0.167345
-0.00532261
0.16809
-0.00494302
0.168796
-0.00455395
0.169462
-0.00415743
0.170087
-0.00375527
0.170671
-0.00334909
0.171213
-0.00294032
0.171714
-0.00253025
0.172173
-0.00212012
0.17259
-0.00171107
0.172965
-0.00130415
0.173297
-0.000900444
0.173586
-0.000500939
0.173834
-0.000107709
0.17404
0.000281962
0.000664095
0.156225
-0.00761264
-0.155318
0.157104
-0.00726211
0.157951
-0.00689193
0.158764
-0.00650299
0.159539
-0.00609809
0.160277
-0.00568024
0.160975
-0.00525202
0.161633
-0.00481578
0.162251
-0.00437357
0.162829
-0.00392711
0.163367
-0.00347789
0.163864
-0.00302724
0.16432
-0.0025764
0.164736
-0.00212652
0.16511
-0.00167871
0.165444
-0.00123405
0.165736
-0.00079361
0.165987
-0.000358573
0.1662
6.90266e-05
0.000493021
0.149086
-0.00850638
-0.148193
0.149954
-0.00813006
0.150791
-0.00772887
0.151593
-0.00730482
0.152358
-0.00686262
0.153084
-0.00640619
0.15377
-0.00593864
0.154417
-0.00546271
0.155024
-0.00498069
0.155592
-0.00449438
0.156119
-0.0040053
0.156607
-0.00351477
0.157054
-0.00302403
0.157462
-0.00253425
0.15783
-0.00204654
0.158158
-0.00156201
0.158446
-0.00108176
0.158694
-0.000607026
0.158903
-0.000139678
0.00032209
0.142513
-0.00938882
-0.141631
0.143373
-0.00898963
0.144201
-0.00855724
0.144993
-0.00809685
0.145747
-0.00761612
0.146461
-0.00712
0.147134
-0.00661228
0.147768
-0.0060962
0.148361
-0.00557422
0.148915
-0.00504816
0.149429
-0.00451952
0.149904
-0.00398957
0.15034
-0.00345951
0.150736
-0.00293047
0.151093
-0.00240357
0.151411
-0.00187995
0.15169
-0.00136073
0.15193
-0.000847093
0.152131
-0.000340661
0.00015726
0.136448
-0.010264
-0.135572
0.137304
-0.00984575
0.138127
-0.00938046
0.138911
-0.00888098
0.139654
-0.00835928
0.140356
-0.00782145
0.141016
-0.00727214
0.141634
-0.00671507
0.142213
-0.00615277
0.142752
-0.00558696
0.143251
-0.00501898
0.143712
-0.00444997
0.144133
-0.00388102
0.144516
-0.00331323
0.14486
-0.00274768
0.145166
-0.00218552
0.145433
-0.00162792
0.145662
-0.00107592
0.145852
-0.000530647
1.54233e-06
0.13084
-0.0111382
-0.129966
0.131699
-0.010705
0.132521
-0.0102021
0.133298
-0.00965867
0.134031
-0.0090921
0.134719
-0.00850968
0.135364
-0.00791706
0.135968
-0.00731822
0.13653
-0.00671543
0.137053
-0.00611004
0.137537
-0.00550306
0.137983
-0.00489542
0.13839
-0.00428804
0.138759
-0.00368192
0.139089
-0.00307813
0.139381
-0.00247782
0.139636
-0.0018822
0.139852
-0.0012925
0.140032
-0.00071035
-0.000138303
0.125651
-0.012021
-0.124768
0.126519
-0.0115738
0.127341
-0.0110239
0.128112
-0.0104291
0.128832
-0.00981252
0.129505
-0.0091825
0.130133
-0.00854536
0.13072
-0.00790467
0.131266
-0.00726182
0.131773
-0.00661748
0.132243
-0.00597216
0.132674
-0.00532645
0.133067
-0.00468108
0.133422
-0.00403698
0.133739
-0.00339521
0.134018
-0.00275695
0.134259
-0.00212351
0.134463
-0.00149625
0.134629
-0.00087666
-0.000266742
0.120848
-0.0129292
-0.11994
0.12173
-0.0124565
0.122549
-0.0118426
0.123308
-0.0111878
0.124012
-0.0105163
0.124666
-0.00983696
0.125277
-0.00915576
0.125846
-0.00847441
0.126377
-0.00779279
0.12687
-0.00711062
0.127326
-0.00642779
0.127744
-0.00574455
0.128125
-0.00506151
0.128467
-0.00437957
0.128772
-0.00369985
0.129038
-0.00302363
0.129267
-0.00235228
0.129458
-0.00168732
0.129612
-0.00103025
-0.000383166
0.116398
-0.0138967
-0.115431
0.117294
-0.013352
0.1181
-0.0126491
0.118841
-0.0119281
0.119524
-0.0111995
0.120159
-0.0104719
0.120752
-0.00974931
0.121308
-0.00902974
0.121826
-0.00831112
0.122308
-0.00759223
0.122752
-0.00687248
0.12316
-0.00615192
0.123529
-0.00543115
0.123861
-0.00471117
0.124154
-0.00399325
0.124409
-0.00327878
0.124627
-0.00256929
0.124806
-0.00186642
0.124947
-0.00117185
-0.000487674
0.112275
-0.0149482
-0.111224
0.113159
-0.0142359
0.113941
-0.0134305
0.114658
-0.0126457
0.115323
-0.0118637
0.115943
-0.011092
0.116525
-0.0103312
0.11707
-0.00957568
0.117581
-0.00882121
0.118054
-0.00806592
0.118491
-0.00730905
0.11889
-0.00655069
0.11925
-0.00579161
0.119572
-0.00503304
0.119855
-0.00427641
0.1201
-0.00352331
0.120306
-0.0027754
0.120474
-0.00203447
0.120604
-0.00130237
-0.00058139
0.108431
-0.107501
-0.0158779
0.109238
-0.0150435
0.11001
-0.0142019
0.110716
-0.0133516
0.111374
-0.0125217
0.111991
-0.0117095
0.11257
-0.0109106
0.113113
-0.0101183
0.113619
-0.00932713
0.114087
-0.00853427
0.114517
-0.007739
0.114908
-0.00694165
0.11526
-0.00614328
0.115572
-0.00534534
0.115845
-0.00454951
0.11608
-0.00375753
0.116275
-0.00297116
0.116433
-0.00219227
0.116554
-0.00142288
-0.000665641
0.0182115
0.0887946
-0.0878618
-0.0191443
0.0172864
0.0928426
-0.0919175
0.0163639
0.0971152
-0.0961927
0.0154382
0.101628
-0.100702
0.0145035
0.106401
-0.105466
0.0135546
0.111462
-0.110513
0.012587
0.116848
-0.11588
0.0115967
0.122609
-0.121619
0.0105805
0.128813
-0.127797
0.00953634
0.135539
-0.134495
0.00846274
0.142887
-0.141813
0.00736008
0.15097
-0.149868
0.00623136
0.159915
-0.158787
0.00508423
0.169847
-0.1687
0.00393417
0.180871
-0.179721
0.00280914
0.193023
-0.191898
0.00175646
0.206206
-0.205154
0.000852229
0.220066
-0.219162
0.000204835
0.233712
-0.233064
0.245385
-0.245181
0.0183646
0.0897434
-0.0193133
0.0174239
0.0937833
0.0164863
0.0980527
0.0155461
0.102568
0.0145976
0.107349
0.0136357
0.112424
0.0126556
0.117828
0.0116535
0.123612
0.010626
0.12984
0.00957094
0.136594
0.00848703
0.143971
0.00737484
0.152083
0.00623781
0.161052
0.00508424
0.171001
0.00393055
0.182024
0.00280596
0.194148
0.00175906
0.207253
0.000865339
0.22096
0.0002343
0.234343
0.24562
0.0184828
0.0907058
-0.0194452
0.0175287
0.0947374
0.0165781
0.0990034
0.0156254
0.103521
0.0146651
0.10831
0.013692
0.113397
0.0127014
0.118818
0.0116892
0.124624
0.0106523
0.130877
0.00958822
0.137658
0.00849591
0.145063
0.00737613
0.153202
0.00623271
0.162196
0.00507456
0.172159
0.00391883
0.18318
0.00279559
0.195271
0.00175398
0.208295
0.000868799
0.221845
0.000243645
0.234968
0.245863
0.0185665
0.0916795
-0.0195402
0.0176011
0.0957028
0.0166396
0.0999649
0.0156765
0.104484
0.0147062
0.10928
0.0137238
0.114379
0.0127245
0.119818
0.0117042
0.125644
0.0106596
0.131922
0.00958834
0.138729
0.0084895
0.146162
0.00736401
0.154328
0.00621605
0.163344
0.00505501
0.17332
0.00389868
0.184336
0.00277771
0.196392
0.00174149
0.209331
0.000863899
0.222722
0.000244989
0.235587
0.246108
0.0186162
0.0926625
-0.0195992
0.0176416
0.0966774
0.0166711
0.100935
0.0156994
0.105456
0.014721
0.110258
0.013731
0.115369
0.0127247
0.120824
0.011698
0.126671
0.0106475
0.132972
0.00957095
0.139806
0.0084674
0.147265
0.00733802
0.155457
0.00618729
0.164494
0.00502507
0.174482
0.00386971
0.185492
0.00275238
0.197509
0.00172263
0.210361
0.00085345
0.223592
0.000242364
0.236198
0.246351
0.0186331
0.0936532
-0.0196237
0.017651
0.0976595
0.0166732
0.101913
0.0156945
0.106434
0.0147097
0.111243
0.0137138
0.116365
0.0127021
0.121836
0.0116706
0.127702
0.010616
0.134027
0.00953583
0.140886
0.00842935
0.148372
0.00729789
0.156589
0.00614622
0.165646
0.00498466
0.175644
0.00383205
0.186644
0.0027201
0.198621
0.00169842
0.211382
0.000839103
0.224451
0.000237328
0.2368
0.246588
0.0186185
0.09465
-0.0196153
0.0176302
0.0986477
0.0166466
0.102897
0.0156625
0.107418
0.0146727
0.112233
0.0136723
0.117365
0.0126568
0.122851
0.0116222
0.128737
0.010565
0.135084
0.00948295
0.141968
0.00837532
0.14948
0.0072436
0.15772
0.00609286
0.166797
0.00493382
0.176803
0.00378584
0.187792
0.00268108
0.199726
0.00166917
0.212394
0.000821287
0.225299
0.000230451
0.237391
0.246819
0.0185736
0.095652
-0.0195755
0.0175803
0.099641
0.016592
0.103885
0.0156036
0.108407
0.0146101
0.113226
0.0136067
0.118369
0.0125889
0.123869
0.0115526
0.129773
0.0104945
0.136142
0.00941228
0.14305
0.00830528
0.150587
0.00717514
0.158851
0.00602723
0.167945
0.00487264
0.177958
0.00373122
0.188934
0.0026355
0.200822
0.00163515
0.213395
0.000800438
0.226133
0.000222279
0.237969
0.247041
0.0184996
0.0966585
-0.0195062
0.0175021
0.100639
0.0165099
0.104877
0.0155182
0.109398
0.0145221
0.114223
0.013517
0.119374
0.0124982
0.124888
0.0114618
0.13081
0.0104044
0.137199
0.00932372
0.144131
0.00821915
0.151691
0.00709248
0.159977
0.00594933
0.169088
0.00480118
0.179106
0.0036683
0.190067
0.0025836
0.201906
0.00159669
0.214382
0.000776985
0.226953
0.000213198
0.238532
0.247254
0.0183976
0.0976698
-0.0194088
0.0173959
0.10164
0.0164004
0.105873
0.0154062
0.110393
0.0144086
0.11522
0.0134029
0.12038
0.0123845
0.125906
0.0113495
0.131845
0.0102945
0.138255
0.00921713
0.145208
0.00811685
0.152791
0.00699558
0.161099
0.0058592
0.170224
0.00471953
0.180245
0.00359726
0.191189
0.0025256
0.202978
0.0015541
0.215353
0.000751264
0.227756
0.00020344
0.23908
0.247457
0.0182678
0.0986863
-0.0192843
0.0172618
0.102646
0.0162632
0.106871
0.0152672
0.111389
0.014269
0.116218
0.0132639
0.121385
0.0122474
0.126922
0.0112154
0.132877
0.0101645
0.139305
0.00909229
0.146281
0.00799823
0.153885
0.00688439
0.162212