/*--------------------------------*- C++ -*----------------------------------*\
  =========                 |
  \\      /  F ield         | OpenFOAM: The Open Source CFD Toolbox
   \\    /   O peration     | Website:  https://openfoam.org
    \\  /    A nd           | Version:  6.0
     \\/     M anipulation  |
\*---------------------------------------------------------------------------*/
FoamFile
{
    version     2.0;
    format      ascii;
    class       surfaceScalarField;
    location    "3";
    object      phi;
}
// * * * * * * * * * * * * * * * * * * * * * * * * * * * * * * * * * * * * * //

dimensions      [0 3 -1 0 0 0 0];

internalField   nonuniform List<scalar> 
38030
(
-9.92496e-06
-0.16241
0.162419
2.2762e-05
-0.155109
0.155077
8.87369e-05
-0.148522
0.148456
0.0001806
-0.1425
0.142408
0.000292828
-0.13693
0.136818
0.000419857
-0.131713
0.131586
0.000556535
-0.126774
0.126637
0.000698424
-0.12206
0.121918
0.000841882
-0.117535
0.117392
0.00098406
-0.113175
0.113033
0.00112285
-0.108966
0.108827
0.00125681
-0.104897
0.104763
0.00138503
-0.100964
0.100835
0.00150709
-0.0971637
0.0970417
0.00162292
-0.0934957
0.0933799
0.00173273
-0.0899589
0.0898491
0.00183698
-0.0865526
0.0864484
0.00193627
-0.0832759
0.0831766
0.00203132
-0.0801271
0.0800321
0.00212293
-0.0771042
0.0770126
0.0022119
-0.0742045
0.0741155
0.00229904
-0.0714246
0.0713374
0.00238507
-0.0687605
0.0686745
0.00247064
-0.0662081
0.0661225
0.00255626
-0.0637626
0.063677
0.00264227
-0.0614194
0.0613334
0.00272878
-0.0591736
0.0590871
0.00281569
-0.0570207
0.0569338
0.0029026
-0.0549563
0.0548694
-0.052976
0.0528897
0.0029889
3.60183e-07
-0.16241
3.44789e-05
-0.155144
0.000101287
-0.148589
0.000194558
-0.142593
0.0003085
-0.137044
0.000437436
-0.131842
0.000576086
-0.126912
0.000719896
-0.122204
0.000865156
-0.11768
0.00100899
-0.113319
0.00114929
-0.109106
0.00128463
-0.105032
0.00141414
-0.101093
0.00153741
-0.097287
0.00165442
-0.0936127
0.00176542
-0.0900699
0.00187089
-0.0866581
0.00197146
-0.0833765
0.00206791
-0.0802236
0.00216104
-0.0771974
0.00225171
-0.0742952
0.00234076
-0.0715136
0.00242896
-0.0688487
0.002517
-0.0662961
0.00260544
-0.0638511
0.00269466
-0.0615086
0.00278483
-0.0592638
0.00287589
-0.0571118
0.00296751
-0.055048
-0.0530676
0.0030591
6.5976e-06
-0.162416
4.36448e-05
-0.155181
0.00011221
-0.148658
0.000207478
-0.142689
0.000323603
-0.13716
0.000454765
-0.131973
0.000595583
-0.127053
0.000741433
-0.12235
0.00088856
-0.117828
0.00103408
-0.113465
0.0011759
-0.109248
0.00131261
-0.105169
0.00144338
-0.101224
0.00156786
-0.0974115
0.00168603
-0.0937309
0.00179819
-0.0901821
0.00190486
-0.0867648
0.00200671
-0.0834783
0.00210453
-0.0803214
0.00219917
-0.077292
0.00229152
-0.0743875
0.00238246
-0.0716046
0.00247282
-0.0689391
0.00256332
-0.0663866
0.00265457
-0.0639423
0.00274701
-0.061601
0.00284085
-0.0593576
0.00293609
-0.057207
0.00303243
-0.0551443
-0.0531645
0.00312934
9.87827e-06
-0.162426
5.02135e-05
-0.155221
0.000121453
-0.148729
0.000219331
-0.142787
0.000338059
-0.137279
0.000471728
-0.132107
0.000614893
-0.127196
0.000762882
-0.122498
0.000911926
-0.117977
0.00105915
-0.113612
0.00120248
-0.109391
0.00134054
-0.105307
0.00147256
-0.101356
0.0015982
-0.0975371
0.0017175
-0.0938502
0.0018308
-0.0902954
0.00193864
-0.0868726
0.00204173
-0.0835814
0.00214088
-0.0804205
0.002237
-0.0773881
0.002331
-0.0744815
0.00242381
-0.0716974
0.00251629
-0.0690316
0.00260923
-0.0664796
0.00270327
-0.0640364
0.00279891
-0.0616967
0.00289641
-0.0594551
0.00299582
-0.0573065
0.00309689
-0.0552454
-0.0532667
0.00319913
1.20112e-05
-0.162438
5.53613e-05
-0.155264
0.000129573
-0.148803
0.000230373
-0.142887
0.00035195
-0.137401
0.00048831
-0.132243
0.000633938
-0.127342
0.000784133
-0.122648
0.000935118
-0.118128
0.00108404
-0.113761
0.00122885
-0.109536
0.00136824
-0.105446
0.00150146
-0.101489
0.00162822
-0.0976639
0.0017486
-0.0939706
0.00186299
-0.0904098
0.00197194
-0.0869816
0.00207622
-0.0836857
0.00217667
-0.080521
0.00227421
-0.0774857
0.00236982
-0.0745771
0.00246445
-0.071792
0.002559
-0.0691261
0.00265432
-0.0665749
0.00275111
-0.0641331
0.00284991
-0.0617955
0.00295103
-0.0595563
0.00305459
-0.05741
0.00316037
-0.0553512
-0.0533743
0.00326793
1.359e-05
-0.162452
5.96588e-05
-0.15531
0.000136901
-0.14888
0.000240778
-0.142991
0.000365348
-0.137525
0.000504506
-0.132382
0.000652666
-0.12749
0.000805094
-0.1228
0.000958019
-0.118281
0.00110861
-0.113912
0.00125487
-0.109682
0.00139553
-0.105587
0.00152988
-0.101623
0.00165769
-0.0977917
0.00177909
-0.094092
0.00189449
-0.0905252
0.00200451
-0.0870916
0.00210991
-0.0837911
0.00221158
-0.0806227
0.00231049
-0.0775846
0.00240763
-0.0746743
0.002504
-0.0718884
0.00260056
-0.0692227
0.0026982
-0.0666725
0.00279766
-0.0642326
0.00289955
-0.0618973
0.00300425
-0.059661
0.0031119
-0.0575177
0.00322235
-0.0554616
-0.0534871
0.0033352
1.48885e-05
-0.162467
6.3454e-05
-0.155359
0.000143688
-0.14896
0.000250696
-0.143098
0.000378324
-0.137653
0.000520328
-0.132524
0.00067104
-0.127641
0.000825693
-0.122955
0.000980525
-0.118435
0.00113273
-0.114064
0.00128037
-0.10983
0.00142222
-0.105729
0.00155762
-0.101759
0.00168641
-0.0979204
0.00180874
-0.0942143
0.00192507
-0.0906415
0.00203606
-0.0872026
0.00214249
-0.0838975
0.00224531
-0.0807255
0.00234549
-0.0776848
0.00244407
-0.0747729
0.0025421
-0.0719864
0.00264057
-0.0693212
0.00274043
-0.0667724
0.00284248
-0.0643347
0.00294737
-0.0620022
0.00305556
-0.0597691
0.00316723
-0.0576293
0.0032823
-0.0555767
-0.0536052
0.00340038
1.60282e-05
-0.162483
6.69376e-05
-0.15541
0.000150102
-0.149044
0.000260236
-0.143208
0.000390934
-0.137784
0.000535785
-0.132669
0.000689028
-0.127794
0.000845865
-0.123112
0.00100254
-0.118592
0.00115629
-0.114218
0.00130522
-0.109979
0.00144815
-0.105872
0.00158451
-0.101895
0.00171416
-0.0980501
0.00183732
-0.0943375
0.00195448
-0.0907587
0.00206633
-0.0873144
0.0021737
-0.0840049
0.00227755
-0.0808293
0.00237889
-0.0777861
0.0024788
-0.0748728
0.00257837
-0.0720859
0.00267864
-0.0694214
0.0027806
-0.0668743
0.00288512
-0.0644392
0.00299291
-0.06211
0.00310448
-0.0598807
0.00322007
-0.0577449
0.00333966
-0.0556963
-0.0537285
0.00346291
1.70762e-05
-0.1625
7.02158e-05
-0.155463
0.000156247
-0.14913
0.000269476
-0.143322
0.000403218
-0.137917
0.000550882
-0.132817
0.000706604
-0.12795
0.000865551
-0.123271
0.00102398
-0.11875
0.00117917
-0.114373
0.00132927
-0.110129
0.00147318
-0.106016
0.00161037
-0.102032
0.00174076
-0.0981805
0.00186462
-0.0944614
0.00198249
-0.0908765
0.00209507
-0.087427
0.00220325
-0.0841131
0.002308
-0.0809341
0.00241037
-0.0778885
0.00251148
-0.0749739
0.00261244
-0.0721869
0.00271436
-0.0695234
0.00281828
-0.0669783
0.00292512
-0.064546
0.00303567
-0.0622206
0.00315049
-0.0599955
0.00326988
-0.0578643
0.00339388
-0.0558203
-0.0538568
0.0035222
1.80617e-05
-0.162518
7.33553e-05
-0.155518
0.000162187
-0.149218
0.000278466
-0.143438
0.000415207
-0.138054
0.00056562
-0.132967
0.00072374
-0.128108
0.000884698
-0.123432
0.00104476
-0.118911
0.00120126
-0.114529
0.0013524
-0.11028
0.00149714
-0.10616
0.00163502
-0.10217
0.00176601
-0.0983115
0.00189043
-0.0945858
0.00200885
-0.0909949
0.00212203
-0.0875402
0.00223086
-0.0842219
0.00233636
-0.0810396
0.00243961
-0.0779917
0.00254175
-0.075076
0.00264394
-0.0722891
0.00274734
-0.0696267
0.00285304
-0.067084
0.00296203
-0.064655
0.00307516
-0.0623337
0.00319306
-0.0601134
0.00331612
-0.0579874
0.00344439
-0.0559485
-0.05399
0.00357765
1.90045e-05
-0.162537
7.63886e-05
-0.155576
0.000167966
-0.14931
0.00028724
-0.143557
0.000426915
-0.138194
0.000579995
-0.13312
0.000740408
-0.128268
0.000903252
-0.123594
0.00106482
-0.119072
0.00122247
-0.114687
0.0013745
-0.110432
0.00151991
-0.106306
0.00165831
-0.102309
0.00178973
-0.0984429
0.00191454
-0.0947106
0.00203335
-0.0911138
0.00214695
-0.0876538
0.00225627
-0.0843312
0.00236235
-0.0811456
0.00246629
-0.0780957
0.00256927
-0.075179
0.0026725
-0.0723923
0.00277717
-0.0697314
0.00288444
-0.0671912
0.00299538
-0.064766
0.00311089
-0.0624492
0.00323168
-0.0602342
0.00335821
-0.0581139
0.0034906
-0.0560809
-0.0541281
0.00362866
1.99146e-05
-0.162557
7.93348e-05
-0.155635
0.000173609
-0.149404
0.000295821
-0.143679
0.000438355
-0.138336
0.000594001
-0.133276
0.000756582
-0.128431
0.000921168
-0.123759
0.00108408
-0.119235
0.00124272
-0.114846
0.00139545
-0.110585
0.00154135
-0.106452
0.00168009
-0.102447
0.00181176
-0.0985746
0.00193677
-0.0948356
0.00205578
-0.0912328
0.00216961
-0.0877676
0.00227922
-0.0844408
0.00238567
-0.0812521
0.0024901
-0.0782001
0.00259372
-0.0752826
0.00269775
-0.0724964
0.00280346
-0.0698371
0.00291206
-0.0672998
0.00302469
-0.0648786
0.00314233
-0.0625669
0.00326579
-0.0603577
0.00339557
-0.0582437
0.00353188
-0.0562172
-0.0542708
0.00367458
2.07928e-05
-0.162578
8.22092e-05
-0.155696
0.000179132
-0.149501
0.000304225
-0.143804
0.000449532
-0.138482
0.000607632
-0.133434
0.000772238
-0.128596
0.000938405
-0.123925
0.00110248
-0.119399
0.00126192
-0.115005
0.00141516
-0.110738
0.00156135
-0.106598
0.00170022
-0.102586
0.00183193
-0.0987063
0.00195693
-0.0949606
0.00207593
-0.0913518
0.00218979
-0.0878815
0.00229947
-0.0845505
0.00240607
-0.0813587
0.00251075
-0.0783048
0.00261474
-0.0753866
0.00271933
-0.0726009
0.0028258
-0.0699436
0.00293545
-0.0674095
0.00304948
-0.0649926
0.00316897
-0.0626864
0.00329481
-0.0604835
0.00342759
-0.0583765
0.00356759
-0.0563572
-0.0544179
0.00371473
2.16414e-05
-0.162599
8.50147e-05
-0.15576
0.00018455
-0.149601
0.000312469
-0.143932
0.000460459
-0.13863
0.000620884
-0.133594
0.00078736
-0.128762
0.000954927
-0.124093
0.00111996
-0.119564
0.00128001
-0.115165
0.00143355
-0.110892
0.00157981
-0.106744
0.00171859
-0.102725
0.00185011
-0.0988378
0.00197488
-0.0950854
0.00209364
-0.0914705
0.00220727
-0.0879951
0.00231679
-0.08466
0.00242329
-0.0814652
0.00252796
-0.0784095
0.00263205
-0.0754907
0.00273688
-0.0727058
0.0028438
-0.0700505
0.00295417
-0.0675198
0.00306927
-0.0651077
0.00319028
-0.0628074
0.00331817
-0.0606114
0.00345364
-0.0585119
0.00359706
-0.0565007
-0.0545693
0.00374839
2.24577e-05
-0.162622
8.77581e-05
-0.155825
0.000189878
-0.149703
0.000320567
-0.144063
0.000471148
-0.13878
0.00063376
-0.133757
0.000801934
-0.12893
0.000970707
-0.124262
0.0011365
-0.11973
0.00129692
-0.115325
0.00145053
-0.111045
0.00159663
-0.10689
0.00173509
-0.102864
0.00186618
-0.0989689
0.00199047
-0.0952097
0.00210873
-0.0915888
0.00222189
-0.0881083
0.00233097
-0.0847691
0.00243709
-0.0815713
0.00254145
-0.0785138
0.00264533
-0.0755946
0.00275007
-0.0728105
0.00285709
-0.0701575
0.00296779
-0.0676305
0.00308357
-0.0652235
0.00320569
-0.0629295
0.00333525
-0.060741
0.00347306
-0.0586497
0.00361956
-0.0566472
-0.0547245
0.00377481
2.32398e-05
-0.162645
9.04466e-05
-0.155892
0.000195135
-0.149808
0.000328547
-0.144196
0.000481615
-0.138933
0.000646268
-0.133922
0.000815957
-0.1291
0.000985726
-0.124431
0.00115206
-0.119896
0.00131262
-0.115486
0.00146606
-0.111199
0.00161175
-0.107036
0.00174963
-0.103001
0.00188003
-0.0990993
0.00200357
-0.0953332
0.00212108
-0.0917063
0.00223348
-0.0882207
0.00234184
-0.0848775
0.00244727
-0.0816767
0.002551
-0.0786175
0.00265432
-0.0756979
0.0027586
-0.0729148
0.0028653
-0.0702642
0.0029759
-0.0677411
0.0030919
-0.0653395
0.00321467
-0.0630523
0.00334544
-0.0608717
0.00348514
-0.0587894
0.00363434
-0.0567964
-0.0548833
0.00379316
2.39819e-05
-0.162669
9.30892e-05
-0.155961
0.000200349
-0.149915
0.00033644
-0.144333
0.000491893
-0.139089
0.000658426
-0.134088
0.000829432
-0.129271
0.00099998
-0.124602
0.00116661
-0.120063
0.00132707
-0.115646
0.00148008
-0.111352
0.00162511
-0.107181
0.00176214
-0.103138
0.00189159
-0.0992287
0.00201411
-0.0954557
0.00213056
-0.0918227
0.00224192
-0.088332
0.00234924
-0.0849848
0.00245366
-0.0817812
0.0025564
-0.0787203
0.00265877
-0.0758003
0.00276217
-0.0730182
0.0028681
-0.0703702
0.00297811
-0.0678512
0.00309379
-0.0654552
0.00321666
-0.0631751
0.00334809
-0.0610032
0.00348915
-0.0589305
0.00364056
-0.0569478
-0.0550453
0.00380254
2.46803e-05
-0.162694
9.57035e-05
-0.156032
0.000205558
-0.150025
0.000344296
-0.144471
0.000502023
-0.139246
0.000670267
-0.134256
0.000842381
-0.129443
0.00101347
-0.124773
0.00118016
-0.12023
0.00134026
-0.115807
0.00149259
-0.111504
0.00163668
-0.107325
0.00177259
-0.103274
0.0019008
-0.0993569
0.00202201
-0.0955769
0.00213712
-0.0919379
0.00224711
-0.088442
0.00235307
-0.0850907
0.00245612
-0.0818842
0.0025575
-0.0788217
0.00265851
-0.0759013
0.00276056
-0.0731203
0.0028652
-0.0704748
0.00297405
-0.06796
0.00308881
-0.0655699
0.00321113
-0.0632975
0.00334255
-0.0611346
0.00348434
-0.0590723
0.00363736
-0.0571008
-0.0552099
0.00380196
2.53353e-05
-0.162719
9.83228e-05
-0.156105
0.000210825
-0.150137
0.00035218
-0.144613
0.000512061
-0.139406
0.000681829
-0.134426
0.000854829
-0.129616
0.00102622
-0.124944
0.00119271
-0.120396
0.00135219
-0.115966
0.00150357
-0.111655
0.00164645
-0.107468
0.00178097
-0.103409
0.00190765
-0.0994836
0.00202726
-0.0956965
0.0021407
-0.0920513
0.00224901
-0.0885503
0.00235326
-0.085195
0.00245459
-0.0819855
0.0025542
-0.0789213
0.0026534
-0.0760005
0.00275361
-0.0732205
0.00285639
-0.0705776
0.00296344
-0.0680671
0.00307656
-0.065683
0.00319757
-0.0634185
0.00332819
-0.0612652
0.00346991
-0.059214
0.00362381
-0.0572547
-0.0553765
0.00379038
2.59472e-05
-0.162745
0.000100996
-0.156181
0.000216233
-0.150252
0.000360179
-0.144757
0.00052208
-0.139568
0.000693172
-0.134597
0.000866821
-0.12979
0.00103826
-0.125116
0.00120428
-0.120562
0.00136288
-0.116125
0.00151304
-0.111805
0.00165443
-0.107609
0.00178727
-0.103542
0.00191214
-0.0996085
0.00202984
-0.0958142
0.00214133
-0.0921628
0.00224762
-0.0886566
0.00234982
-0.0852972
0.00244903
-0.0820848
0.00254646
-0.0790187
0.00264338
-0.0760974
0.00274121
-0.0733183
0.00284152
-0.0706779
0.00294606
-0.0681716
0.00305674
-0.0657937
0.00317554
-0.0635373
0.00330442
-0.0613941
0.00344511
-0.0593547
0.00359896
-0.0574085
-0.0555442
0.00376665
2.65324e-05
-0.162772
0.000103808
-0.156258
0.000221902
-0.150371
0.000368409
-0.144903
0.000532174
-0.139732
0.000704365
-0.13477
0.000878408
-0.129964
0.00104964
-0.125287
0.00121492
-0.120727
0.00137236
-0.116282
0.00152102
-0.111954
0.00166065
-0.107749
0.00179154
-0.103673
0.00191432
-0.0997313
0.00202982
-0.0959298
0.00213904
-0.092272
0.002243
-0.0887606
0.0023428
-0.085397
0.00243953
-0.0821815
0.00253435
-0.0791135
0.00262852
-0.0761916
0.0027234
-0.0734132
0.00282058
-0.0707751
0.00292183
-0.0682729
0.00302916
-0.0659011
0.00314473
-0.0636528
0.00327073
-0.0615201
0.00340921
-0.0594932
0.00356183
-0.0575612
-0.0557119
0.00372956
2.71296e-05
-0.162799
0.00010689
-0.156338
0.000228001
-0.150492
0.000377017
-0.145052
0.000542456
-0.139897
0.000715494
-0.134943
0.000889658
-0.130138
0.00106039
-0.125458
0.00122467
-0.120892
0.00138068
-0.116438
0.00152757
-0.112101
0.00166517
-0.107887
0.00179384
-0.103801
0.00191425
-0.0998517
0.00202728
-0.0960428
0.00213394
-0.0923787
0.00223527
-0.0888619
0.00233234
-0.085494
0.00242622
-0.0822754
0.00251803
-0.0792053
0.00260897
-0.0762825
0.00270035
-0.0735046
0.00279371
-0.0708684
0.00289085
-0.06837
0.00299383
-0.066004
0.00310498
-0.063764
0.00322677
-0.0616419
0.00336159
-0.059628
0.00351154
-0.0577111
-0.0558783
0.00367793
2.78312e-05
-0.162827
0.000110454
-0.15642
0.00023476
-0.150616
0.000386192
-0.145204
0.000553062
-0.140064
0.000726654
-0.135116
0.000900641
-0.130312
0.00107059
-0.125628
0.00123357
-0.121055
0.00138788
-0.116592
0.00153273
-0.112246
0.00166805
-0.108022
0.00179424
-0.103928
0.00191203
-0.0999695
0.00202234
-0.0961531
0.00212618
-0.0924825
0.00222461
-0.0889603
0.00231865
-0.0855881
0.00240936
-0.0823661
0.00249779
-0.0792938
0.00258504
-0.0763697
0.00267238
-0.0735919
0.00276126
-0.0709573
0.00285343
-0.0684622
0.00295101
-0.0661016
0.00305644
-0.0638694
0.00317246
-0.0617579
0.00330189
-0.0597575
0.00344734
-0.0578566
-0.0560416
0.00361064
2.88199e-05
-0.162855
0.000114841
-0.156506
0.0002425
-0.150744
0.000396168
-0.145357
0.00056415
-0.140232
0.000737953
-0.13529
0.000911431
-0.130485
0.00108028
-0.125797
0.00124168
-0.121216
0.00139401
-0.116745
0.00153657
-0.112388
0.00166936
-0.108155
0.00179285
-0.104051
0.00190779
-0.100084
0.00201516
-0.0962605
0.00211596
-0.0925833
0.00221125
-0.0890556
0.00230203
-0.0856789
0.0023893
-0.0824533
0.00247403
-0.0793785
0.00255723
-0.0764529
0.00264005
-0.0736747
0.00272382
-0.0710411
0.00281021
-0.0685486
0.00290129
-0.0661927
0.00299959
-0.0639677
0.0031081
-0.0618664
0.00323006
-0.0598794
0.00336872
-0.0579952
-0.0561995
0.00352659
3.04716e-05
-0.162886
0.000120586
-0.156596
0.000251642
-0.150875
0.000407213
-0.145513
0.000575878
-0.140401
0.000749487
-0.135464
0.000922094
-0.130658
0.00108952
-0.125964
0.00124903
-0.121376
0.00139911
-0.116895
0.00153914
-0.112528
0.00166918
-0.108285
0.00178975
-0.104172
0.00190167
-0.100196
0.00200591
-0.0963647
0.00210351
-0.0926809
0.00219549
-0.0891476
0.00228284
-0.0857662
0.00236648
-0.082537
0.00244729
-0.0794593
0.00252618
-0.0765318
0.00260412
-0.0737527
0.00268229
-0.0711192
0.00276218
-0.0686285
0.00284574
-0.0662763
0.00293549
-0.0640575
0.00303455
-0.0619654
0.0031466
-0.0599915
0.00327556
-0.0581242
-0.0563488
0.00342492
3.34469e-05
-0.162919
0.000128435
-0.156691
0.000262663
-0.151009
0.000419587
-0.14567
0.000588394
-0.14057
0.000761338
-0.135637
0.000932674
-0.130829
0.00109833
-0.12613
0.00125566
-0.121533
0.00140322
-0.117042
0.00154048
-0.112666
0.00166756
-0.108412
0.00178504
-0.104289
0.00189378
-0.100305
0.00199478
-0.0964657
0.00208907
-0.0927752
0.00217766
-0.0892362
0.00226149
-0.0858501
0.00234144
-0.0826169
0.00241826
-0.0795361
0.00249273
-0.0766063
0.00256562
-0.0738255
0.0026379
-0.0711915
0.00271081
-0.0687014
0.00278605
-0.0663515
0.00286596
-0.0641374
0.00295364
-0.0620531
0.00305303
-0.0600909
0.00316887
-0.05824
-0.056486
0.00330607
3.87374e-05
-0.162958
0.000139264
-0.156792
0.000276053
-0.151146
0.000433546
-0.145827
0.000601825
-0.140738
0.000773565
-0.135808
0.000943189
-0.130999
0.0011067
-0.126293
0.00126154
-0.121688
0.00140633
-0.117187
0.0015406
-0.1128
0.00166455
-0.108536
0.00177881
-0.104403
0.00188427
-0.100411
0.00198195
-0.0965634
0.00207289
-0.0928661
0.00215809
-0.0893214
0.00223845
-0.0859304
0.00231476
-0.0826932
0.00238769
-0.0796091
0.00245785
-0.0766765
0.0025258
-0.0738935
0.00259223
-0.0712579
0.00265805
-0.0687672
0.00272461
-0.0664181
0.00279387
-0.0642067
0.00286862
-0.0621279
0.00295272
-0.060175
0.00305171
-0.058339
-0.0566069
0.00317258
4.78828e-05
-0.163006
0.000154493
-0.156898
0.000292661
-0.151284
0.000449487
-0.145984
0.000616315
-0.140905
0.000786178
-0.135978
0.000953588
-0.131166
0.00111458
-0.126454
0.00126662
-0.12184
0.00140839
-0.117329
0.00153948
-0.112931
0.00166016
-0.108656
0.00177109
-0.104514
0.00187321
-0.100513
0.00196756
-0.0966577
0.00205519
-0.0929538
0.00213708
-0.0894033
0.00221412
-0.0860075
0.00228702
-0.0827661
0.00235635
-0.0796784
0.00242257
-0.0767427
0.00248601
-0.0739569
0.00254704
-0.071319
0.00260618
-0.0688263
0.00266429
-0.0664762
0.00272279
-0.0642652
0.00278383
-0.0621889
0.00285034
-0.0602415
0.00292762
-0.0584163
-0.0567046
0.00302538
6.53279e-05
-0.163071
0.000177872
-0.157011
0.00031415
-0.15142
0.00046784
-0.146138
0.000631805
-0.141069
0.00079898
-0.136145
0.000963655
-0.131331
0.00112175
-0.126612
0.00127072
-0.121989
0.00140926
-0.117467
0.00153702
-0.113059
0.0016543
-0.108774
0.00176184
-0.104622
0.0018606
-0.100611
0.00195166
-0.0967488
0.00203608
-0.0930382
0.00211485
-0.0894821
0.00218882
-0.0860814
0.00225869
-0.082836
0.00232495
-0.0797447
0.0023879
-0.0768056
0.00244767
-0.0740167
0.00250431
-0.0713756
0.00255787
-0.0688799
0.0026086
-0.0665269
0.00265717
-0.0643137
0.00270452
-0.0622363
0.00275107
-0.060288
0.00279937
-0.0584646
-0.0567682
0.00286292
0.000105469
-0.163177
0.000214179
-0.15712
0.000340636
-0.151547
0.000487788
-0.146285
0.000647536
-0.141228
0.000811415
-0.136309
0.000973004
-0.131493
0.00112796
-0.126767
0.00127365
-0.122134
0.00140879
-0.117603
0.00153308
-0.113183
0.00164689
-0.108887
0.00175099
-0.104726
0.0018464
-0.100707
0.00193423
-0.0968366
0.00201558
-0.0931195
0.00209145
-0.0895579
0.00216271
-0.0861527
0.00223004
-0.0829033
0.00229392
-0.0798085
0.00235458
-0.0768663
0.00241204
-0.0740742
0.00246612
-0.0714297
0.00251651
-0.0689303
0.00256299
-0.0665734
0.00260555
-0.0643563
0.00264383
-0.0622745
0.00267371
-0.0603179
0.00268477
-0.0584757
-0.0567826
0.00269919
0.164228
7.68736e-05
-0.164305
0.164174
5.42548e-05
0.164129
4.50788e-05
0.164088
4.08116e-05
0.16405
3.87965e-05
0.164011
3.80943e-05
0.163973
3.81141e-05
0.163935
3.84629e-05
0.163896
3.89105e-05
0.163857
3.93548e-05
0.163817
3.9773e-05
0.163777
4.01158e-05
0.163736
4.03349e-05
0.163696
4.04462e-05
0.163655
4.04572e-05
0.163615
4.03692e-05
0.163575
4.01853e-05
0.163535
3.99063e-05
0.163495
3.95274e-05
0.163456
3.90466e-05
0.163418
3.84524e-05
0.16338
3.77269e-05
0.163343
3.68327e-05
0.163308
3.57145e-05
0.163273
3.42594e-05
0.163241
3.22534e-05
0.163212
2.92338e-05
0.163188
2.41935e-05
0.163174
1.40489e-05
-2.96709e-06
0.159662
0.000153758
-0.159739
0.159579
0.000137322
0.159495
0.000128386
0.159412
0.000124126
0.159329
0.000122284
0.159245
0.000121988
0.15916
0.000122714
0.159074
0.000124009
0.158988
0.000125584
0.1589
0.000127243
0.158811
0.000128864
0.158721
0.000130349
0.158629
0.000131594
0.158537
0.000132593
0.158444
0.000133329
0.158351
0.000133792
0.158257
0.000133973
0.158163
0.000133866
0.158069
0.000133456
0.157976
0.00013273
0.157882
0.000131662
0.15779
0.000130213
0.157698
0.000128311
0.157608
0.000125843
0.15752
0.000122618
0.157434
0.000118302
0.157351
0.000112297
0.157271
0.000103632
0.157195
9.02808e-05
7.24295e-05
0.154916
0.000223972
-0.154986
0.154834
0.00021927
0.154745
0.000217184
0.154651
0.000217656
0.154554
0.000219666
0.154453
0.000222667
0.15435
0.000226358
0.154243
0.000230415
0.154134
0.000234665
0.154023
0.00023896
0.153908
0.000243054
0.153792
0.000246846
0.153673
0.000250256
0.153553
0.000253233
0.15343
0.000255744
0.153306
0.000257758
0.153181
0.000259252
0.153055
0.000260211
0.152927
0.000260608
0.1528
0.000260422
0.152672
0.000259615
0.152544
0.000258134
0.152416
0.000255897
0.152289
0.000252779
0.152163
0.000248586
0.152039
0.000243022
0.151915
0.000235643
0.151793
0.000225879
0.151671
0.00021275
0.000196421
0.149982
0.000282662
-0.15004
0.149912
0.000289078
0.149833
0.000295925
0.149747
0.000303689
0.149655
0.000312084
0.149557
0.000320823
0.149453
0.000329732
0.149345
0.00033862
0.149232
0.000347346
0.149115
0.000355893
0.148994
0.000364002
0.14887
0.000371485
0.148742
0.000378371
0.14861
0.000384579
0.148476
0.000390062
0.148339
0.000394776
0.1482
0.000398695
0.148058
0.000401788
0.147915
0.000404032
0.14777
0.000405394
0.147623
0.000405837
0.147476
0.000405309
0.147328
0.000403732
0.14718
0.000401001
0.147032
0.000396961
0.146883
0.000391405
0.146735
0.000384051
0.146586
0.000374588
0.146436
0.000362542
0.000347991
0.144912
0.00032389
-0.144953
0.14486
0.000340823
0.144799
0.000357247
0.144729
0.000373603
0.144651
0.000389885
0.144566
0.000405954
0.144474
0.000421695
0.144376
0.000436987
0.144271
0.000451792
0.144161
0.000465981
0.144046
0.000479388
0.143925
0.000491919
0.1438
0.000503533
0.14367
0.000514167
0.143537
0.00052377
0.143399
0.000532303
0.143258
0.000539732
0.143114
0.000546025
0.142967
0.000551157
0.142817
0.000555098
0.142665
0.000557813
0.142511
0.00055926
0.142356
0.000559381
0.142198
0.000558098
0.14204
0.00055531
0.141881
0.000550884
0.14172
0.000544666
0.141558
0.000536501
0.141394
0.000526206
0.000513902
0.139763
0.00034469
-0.139784
0.139732
0.000371946
0.139691
0.000398233
0.13964
0.000423849
0.139581
0.000448868
0.139514
0.00047321
0.139439
0.000496799
0.139356
0.000519597
0.139267
0.000541495
0.13917
0.000562383
0.139067
0.000582182
0.138959
0.000600779
0.138844
0.000618129
0.138724
0.000634179
0.138599
0.000648876
0.138469
0.000662181
0.138335
0.000674061
0.138196
0.000684484
0.138054
0.000693428
0.137908
0.000700867
0.137759
0.000706774
0.137607
0.000711121
0.137453
0.000713873
0.137296
0.000714984
0.137137
0.000714399
0.136976
0.000712054
0.136813
0.000707883
0.136647
0.000701841
0.13648
0.0006939
0.000684219
0.134595
0.000344891
-0.134595
0.134585
0.0003824
0.134564
0.000418664
0.134534
0.000453856
0.134495
0.000488055
0.134447
0.000521196
0.134391
0.000553216
0.134326
0.000584146
0.134254
0.000613846
0.134174
0.000642156
0.134087
0.000669046
0.133994
0.000694425
0.133893
0.000718242
0.133787
0.000740436
0.133675
0.00076096
0.133558
0.000779771
0.133435
0.000796837
0.133307
0.000812126
0.133175
0.000825621
0.133038
0.000837298
0.132898
0.000847145
0.132754
0.000855148
0.132607
0.000861293
0.132456
0.000865566
0.132303
0.000867952
0.132146
0.000868442
0.131987
0.000867035
0.131825
0.000863755
0.13166
0.000858657
0.000851915
0.129467
0.000326084
-0.129448
0.129475
0.000373747
0.129474
0.000419965
0.129463
0.000464825
0.129443
0.000508387
0.129413
0.000550584
0.129375
0.000591332
0.129329
0.00063072
0.129274
0.000668629
0.129211
0.000704777
0.129141
0.000739174
0.129064
0.000771786
0.128979
0.000802537
0.128888
0.000831363
0.128791
0.000858211
0.128688
0.000883037
0.128579
0.000905806
0.128465
0.000926489
0.128345
0.000945067
0.128221
0.000961529
0.128092
0.000975869
0.127959
0.000988089
0.127822
0.000998193
0.127682
0.0010062
0.127538
0.00101213
0.12739
0.00101601
0.127239
0.00101789
0.127085
0.00101784
0.126928
0.00101597
0.00101244
0.124425
0.000290777
-0.12439
0.12445
0.000348429
0.124466
0.000404478
0.124472
0.000458952
0.124468
0.000511885
0.124456
0.000563196
0.124434
0.000612828
0.124404
0.00066078
0.124366
0.000707002
0.124319
0.000751219
0.124265
0.000793334
0.124204
0.000833424
0.124135
0.000871373
0.124059
0.00090711
0.123977
0.000940577
0.123888
0.000971725
0.123793
0.00100052
0.123693
0.00102693
0.123587
0.00105094
0.123476
0.00107254
0.12336
0.00109174
0.12324
0.00110854
0.123115
0.00112299
0.122986
0.00113511
0.122853
0.00114496
0.122716
0.00115261
0.122576
0.00115812
0.122432
0.00116163
0.122285
0.00116324
0.00116314
0.119509
0.000241826
-0.11946
0.119548
0.000309247
0.119578
0.000374935
0.119598
0.000438876
0.119609
0.000501074
0.11961
0.000561439
0.119603
0.000619893
0.119588
0.000676479
0.119564
0.000730991
0.119532
0.00078323
0.119492
0.000833204
0.119444
0.000880862
0.11939
0.000926114
0.119328
0.000968881
0.119259
0.0010091
0.119184
0.00104672
0.119103
0.0010817
0.119016
0.001114
0.118923
0.00114363
0.118825
0.00117056
0.118722
0.00119482
0.118614
0.00121643
0.118502
0.00123543
0.118385
0.00125188
0.118264
0.00126587
0.118139
0.00127748
0.118011
0.00128683
0.117878
0.00129406
0.117742
0.00129932
0.00130278
0.114747
0.000182071
-0.114687
0.114797
0.000259012
0.114838
0.000334105
0.11487
0.00040731
0.114892
0.000478593
0.114906
0.000547865
0.11491
0.00061508
0.114907
0.000680117
0.114895
0.000742826
0.114875
0.000803111
0.114847
0.000860892
0.114812
0.000916097
0.11477
0.00096864
0.11472
0.00101844
0.114664
0.00106543
0.114601
0.00110954
0.114532
0.00115075
0.114457
0.001189
0.114376
0.0012243
0.11429
0.00125663
0.114199
0.00128601
0.114103
0.00131249
0.114002
0.00133612
0.113897
0.00135698
0.113788
0.00137517
0.113674
0.00139082
0.113557
0.00140407
0.113436
0.00141509
0.113311
0.00142404
0.00143112
0.110159
0.000114127
-0.110091
0.110217
0.000200331
0.110267
0.000284586
0.110307
0.000366826
0.110339
0.000446985
0.110362
0.000524982
0.110376
0.00060075
0.110382
0.000674113
0.11038
0.000744939
0.11037
0.00081314
0.110352
0.000878612
0.110327
0.000941273
0.110295
0.00100103
0.110255
0.00105779
0.110209
0.00111148
0.110157
0.00116205
0.110098
0.00120942
0.110033
0.00125359
0.109963
0.00129451
0.109888
0.00133221
0.109807
0.00136669
0.109721
0.001398
0.109631
0.00142623
0.109537
0.00145146
0.109438
0.00147382
0.109336
0.00149346
0.109229
0.00151057
0.109119
0.00152532
0.109005
0.00153793
0.00154859
0.105756
4.0282e-05
-0.105682
0.105821
0.000135504
0.105877
0.000228685
0.105924
0.000319735
0.105963
0.000408552
0.105993
0.000495063
0.106014
0.000579211
0.106027
0.000660758
0.106033
0.000739545
0.10603
0.000815502
0.106021
0.000888524
0.106003
0.000958508
0.105979
0.00102535
0.105948
0.00108896
0.10591
0.00114925
0.105866
0.00120615
0.105816
0.00125961
0.10576
0.00130958
0.105698
0.00135604
0.105631
0.00139899
0.10556
0.00143846
0.105483
0.0014745
0.105402
0.00150721
0.105317
0.00153668
0.105228
0.00156308
0.105135
0.00158659
0.105038
0.0016074
0.104937
0.00162576
0.104833
0.0016419
0.00165605
0.101547
-3.75384e-05
-0.10147
0.101617
6.64867e-05
0.101677
0.00016838
0.101729
0.000268037
0.101772
0.000365317
0.101807
0.00046014
0.101833
0.000552496
0.101852
0.000642077
0.101863
0.000728652
0.101866
0.000812198
0.101862
0.000892612
0.101851
0.000969773
0.101833
0.00104357
0.101808
0.00111388
0.101776
0.00118064
0.101739
0.00124375
0.101695
0.00130315
0.101646
0.00135879
0.101591
0.00141064
0.101532
0.00145871
0.101467
0.00150302
0.101398
0.00154362
0.101325
0.00158063
0.101247
0.00161416
0.101166
0.0016444
0.101081
0.00167155
0.100992
0.00169587
0.100901
0.00171763
0.100805
0.00173711
0.00175456
0.0975347
-0.000117753
-0.0974545
0.0976063
-5.10466e-06
0.0976694
0.000105324
0.097724
0.000213413
0.0977703
0.000318996
0.0978085
0.000421976
0.0978386
0.000522357
0.0978609
0.000619808
0.0978755
0.000714016
0.0978828
0.000804991
0.0978827
0.000892653
0.0978756
0.000976851
0.0978617
0.00105745
0.0978413
0.00113434
0.0978145
0.00120742
0.0977817
0.0012766
0.097743
0.00134179
0.0976989
0.00140295
0.0976495
0.00146003
0.0975951
0.00151304
0.0975361
0.001562
0.0974728
0.00160698
0.0974053
0.00164806
0.0973341
0.00168542
0.0972593
0.00171924
0.097181
0.00174977
0.0970996
0.00177732
0.097015
0.0018022
0.0969274
0.00182476
0.0018453
0.0937177
-0.000199096
-0.0936363
0.0937905
-7.7962e-05
0.093855
4.08648e-05
0.0939111
0.000157249
0.0939591
0.000271004
0.0939991
0.00038205
0.0940311
0.000490289
0.0940555
0.00059541
0.0940724
0.00069714
0.094082
0.000795417
0.0940844
0.000890205
0.09408
0.00098131
0.0940688
0.00106859
0.0940513