/*--------------------------------*- C++ -*----------------------------------*\
  =========                 |
  \\      /  F ield         | OpenFOAM: The Open Source CFD Toolbox
   \\    /   O peration     | Website:  https://openfoam.org
    \\  /    A nd           | Version:  6.0
     \\/     M anipulation  |
\*---------------------------------------------------------------------------*/
FoamFile
{
    version     2.0;
    format      ascii;
    class       volVectorField;
    location    "3";
    object      U;
}
// * * * * * * * * * * * * * * * * * * * * * * * * * * * * * * * * * * * * * //

dimensions      [0 1 -1 0 0 0 0];

internalField   nonuniform List<vector> 
19200
(
(0.27076 -9.74292 -2.07717e-20)
(0.118683 -9.30566 1.00027e-20)
(0.114412 -8.90938 4.55696e-21)
(0.124198 -8.54707 3.97607e-21)
(0.126033 -8.21218 4.29497e-21)
(0.128535 -7.8986 2.66492e-22)
(0.132238 -7.60186 5.87156e-21)
(0.136165 -7.31877 -3.91198e-22)
(0.139992 -7.04715 4.91185e-21)
(0.143573 -6.78551 2.0017e-21)
(0.14679 -6.53294 5.99322e-23)
(0.14957 -6.28888 3.04836e-21)
(0.151889 -6.05299 4.79319e-21)
(0.153749 -5.82512 -3.18474e-21)
(0.155176 -5.60517 3.97047e-21)
(0.156209 -5.39309 3.29397e-21)
(0.156898 -5.18884 -3.07167e-21)
(0.157294 -4.99234 5.08305e-21)
(0.157455 -4.80351 -3.19815e-21)
(0.157432 -4.62221 1.57829e-21)
(0.157279 -4.44827 2.13897e-21)
(0.15704 -4.2815 -6.79066e-22)
(0.156757 -4.12167 9.11372e-22)
(0.156465 -3.96851 -1.02784e-21)
(0.156189 -3.82176 2.2061e-21)
(0.155945 -3.68112 5.06924e-22)
(0.155732 -3.54634 -3.45073e-22)
(0.155583 -3.41713 2.05961e-22)
(0.155596 -3.29323 4.73506e-22)
(0.155464 -3.1744 1.79353e-21)
(0.52552 -9.73216 -4.53906e-21)
(0.362814 -9.30124 3.02691e-20)
(0.348338 -8.90723 -1.59463e-20)
(0.348734 -8.54638 -2.10914e-20)
(0.341946 -8.21279 -9.21035e-21)
(0.336389 -7.90015 -6.43662e-21)
(0.332462 -7.60399 -1.37214e-20)
(0.329096 -7.32121 1.80386e-21)
(0.325911 -7.04966 -2.87635e-21)
(0.322721 -6.78794 -9.72845e-21)
(0.319386 -6.53516 -2.30813e-20)
(0.315823 -6.29081 1.09497e-20)
(0.312 -6.05459 -4.03107e-21)
(0.307921 -5.82638 1.52024e-21)
(0.303612 -5.60609 -8.7221e-21)
(0.299113 -5.3937 -3.07562e-21)
(0.294474 -5.18916 3.75789e-22)
(0.289749 -4.99243 1.00493e-20)
(0.284992 -4.8034 -5.35381e-21)
(0.280255 -4.62196 -2.91658e-21)
(0.275587 -4.44793 -1.08548e-20)
(0.27103 -4.28112 2.75702e-21)
(0.26662 -4.12129 -1.6686e-21)
(0.262387 -3.96817 2.89624e-21)
(0.25835 -3.82148 -3.57856e-21)
(0.254517 -3.68093 -1.99661e-21)
(0.250879 -3.54624 6.6332e-22)
(0.247475 -3.41711 9.76876e-22)
(0.244429 -3.29327 -1.74441e-21)
(0.241335 -3.17446 8.03559e-22)
(0.779944 -9.71528 -2.1152e-21)
(0.606516 -9.29063 6.3014e-21)
(0.582051 -8.89903 1.01043e-20)
(0.573234 -8.53987 7.29556e-20)
(0.557933 -8.20781 -4.10101e-20)
(0.544394 -7.89632 3.74324e-20)
(0.532884 -7.60094 2.25636e-20)
(0.522255 -7.31864 1.68785e-20)
(0.512068 -7.04734 -1.55015e-20)
(0.502107 -6.7857 -1.2202e-21)
(0.492211 -6.53288 3.74029e-20)
(0.48229 -6.2884 5.90396e-21)
(0.47231 -6.05202 -1.64486e-20)
(0.462274 -5.82361 1.2813e-20)
(0.45221 -5.60313 1.0638e-22)
(0.442162 -5.39057 5.16048e-21)
(0.432181 -5.1859 3.62608e-21)
(0.422321 -4.98906 1.17234e-20)
(0.412637 -4.79998 -5.22998e-21)
(0.403178 -4.61852 -1.71635e-21)
(0.39399 -4.44454 -4.19074e-21)
(0.385113 -4.27781 1.81921e-20)
(0.376577 -4.1181 -1.50111e-20)
(0.368405 -3.96514 4.84728e-21)
(0.360612 -3.81864 1.07672e-20)
(0.353195 -3.67829 -8.61183e-21)
(0.34614 -3.5438 1.13453e-20)
(0.339487 -3.41487 -1.23171e-21)
(0.333387 -3.29119 -1.25217e-21)
(0.327329 -3.17251 -8.23007e-21)
(1.03375 -9.69201 -7.364e-20)
(0.849713 -9.27384 -6.42709e-20)
(0.815424 -8.88485 -7.66528e-20)
(0.79755 -8.52762 2.913e-21)
(0.773853 -8.19731 4.75811e-21)
(0.75241 -7.88716 -8.12252e-20)
(0.733371 -7.59274 3.99171e-21)
(0.715507 -7.31111 1.0032e-20)
(0.698334 -7.04023 -1.89901e-21)
(0.681604 -6.77883 1.61172e-20)
(0.665143 -6.52613 -6.33554e-20)
(0.648854 -6.28168 -3.77398e-20)
(0.632702 -6.04527 1.438e-20)
(0.616694 -5.81682 2.66519e-20)
(0.600861 -5.59631 -3.08996e-20)
(0.58525 -5.38372 -4.69872e-21)
(0.569915 -5.17905 -1.73395e-20)
(0.554911 -4.98225 -7.93693e-21)
(0.540292 -4.79325 1.29753e-20)
(0.526107 -4.61191 -1.63749e-20)
(0.512399 -4.43809 1.38491e-20)
(0.499203 -4.27157 -1.6369e-20)
(0.486543 -4.11211 -1.24809e-20)
(0.474439 -3.95943 -8.71435e-21)
(0.462897 -3.81323 9.97592e-21)
(0.451908 -3.6732 -1.74204e-20)
(0.441445 -3.53903 1.80167e-21)
(0.431555 -3.41041 3.00002e-21)
(0.42241 -3.287 -8.55725e-21)
(0.413392 -3.16855 1.87333e-21)
(1.28685 -9.66228 -4.36266e-20)
(1.09237 -9.25088 6.1652e-21)
(1.04838 -8.86473 5.36302e-20)
(1.02157 -8.50966 5.44194e-20)
(0.98958 -8.1813 3.81689e-20)
(0.960309 -7.87268 1.54526e-20)
(0.93379 -7.57941 2.34103e-20)
(0.908724 -7.2986 1.0328e-19)
(0.884581 -7.02832 -6.16313e-20)
(0.861087 -6.76732 1.95606e-21)
(0.838057 -6.51488 1.4396e-20)
(0.815391 -6.27062 5.82784e-20)
(0.793058 -6.03435 -3.89853e-20)
(0.771067 -5.80602 2.72011e-20)
(0.749454 -5.58561 -2.92221e-20)
(0.72827 -5.37314 4.92536e-20)
(0.707572 -5.16861 -1.43974e-20)
(0.687418 -4.97199 5.3473e-22)
(0.667861 -4.7832 2.17024e-20)
(0.648949 -4.60212 1.46784e-20)
(0.630722 -4.4286 -1.4982e-20)
(0.613211 -4.26241 1.97196e-20)
(0.596436 -4.10331 -8.69351e-21)
(0.580409 -3.95103 1.00089e-20)
(0.56513 -3.80525 1.07484e-20)
(0.550581 -3.66566 4.52736e-21)
(0.536725 -3.53192 1.3751e-20)
(0.523612 -3.40371 -5.19438e-21)
(0.511435 -3.28068 -1.76693e-21)
(0.499464 -3.16258 -7.71399e-21)
(1.5391 -9.62606 -3.13878e-20)
(1.33439 -9.22176 -2.03934e-20)
(1.28081 -8.8387 -5.99813e-20)
(1.24517 -8.486 -1.51305e-19)
(1.20499 -8.15979 5.12569e-20)
(1.16796 -7.8529 3.10526e-21)
(1.13401 -7.56094 -3.24738e-20)
(1.10178 -7.28113 5.65553e-21)
(1.07068 -7.01159 -5.01084e-21)
(1.04043 -6.75116 -7.58136e-20)
(1.01083 -6.49915 3.20157e-20)
(0.981784 -6.25523 5.26152e-20)
(0.953261 -6.01925 3.00271e-22)
(0.925278 -5.79118 1.85356e-20)
(0.897876 -5.57103 4.41406e-20)
(0.871112 -5.35883 -2.9816e-20)
(0.845047 -5.15459 5.11941e-20)
(0.819739 -4.95829 -2.3842e-20)
(0.795244 -4.76985 4.11894e-20)
(0.771607 -4.58915 -3.05082e-20)
(0.748867 -4.41605 1.33324e-20)
(0.727049 -4.25032 3.35989e-20)
(0.706169 -4.09171 1.35121e-21)
(0.686233 -3.93995 -3.0333e-20)
(0.667232 -3.79471 1.64069e-20)
(0.64914 -3.65566 4.8697e-21)
(0.631909 -3.52247 -5.09986e-21)
(0.615591 -3.39479 1.91973e-20)
(0.6004 -3.27224 6.50741e-21)
(0.585489 -3.1546 -6.56145e-21)
(1.79034 -9.58335 8.69889e-20)
(1.57562 -9.18648 -3.89903e-21)
(1.51258 -8.80677 -1.21128e-19)
(1.46823 -8.45666 2.46664e-20)
(1.41995 -8.1328 -3.20612e-20)
(1.37524 -7.82781 2.47325e-20)
(1.33391 -7.53733 5.08269e-20)
(1.29454 -7.25868 8.86361e-20)
(1.25651 -6.99006 -9.31194e-20)
(1.21951 -6.73034 2.29347e-20)
(1.18334 -6.47893 -1.46054e-20)
(1.14791 -6.23551 1.05707e-20)
(1.11319 -5.99997 -4.72599e-20)
(1.07921 -5.77232 -2.57457e-21)
(1.04602 -5.55258 7.13418e-20)
(1.01367 -5.34079 -4.91535e-20)
(0.982235 -5.13699 -2.99077e-20)
(0.951774 -4.94113 -2.06865e-20)
(0.922343 -4.75318 3.7831e-20)
(0.893988 -4.573 7.7336e-21)
(0.866742 -4.40044 -3.54325e-20)
(0.840629 -4.23529 4.59988e-20)
(0.815658 -4.0773 -4.1141e-20)
(0.791829 -3.92617 2.64292e-20)
(0.769125 -3.78159 -1.49401e-20)
(0.74751 -3.6432 4.27476e-21)
(0.726926 -3.51068 6.73672e-21)
(0.707427 -3.38364 -3.05562e-20)
(0.689242 -3.26168 1.29708e-20)
(0.671407 -3.14461 1.8442e-22)
(2.04041 -9.53417 -8.4639e-20)
(1.81594 -9.14503 6.90557e-20)
(1.74358 -8.76895 -1.21003e-19)
(1.69062 -8.42165 2.29741e-19)
(1.63433 -8.10034 -6.315e-20)
(1.58201 -7.79742 8.5873e-20)
(1.53336 -7.5086 -2.3871e-21)
(1.48688 -7.23127 -1.25533e-20)
(1.44194 -6.96371 -1.59379e-20)
(1.3982 -6.70488 3.07642e-22)
(1.35547 -6.45421 -5.89913e-20)
(1.31365 -6.21144 3.0979e-20)
(1.27274 -5.97651 -3.52969e-20)
(1.23276 -5.74943 -2.97919e-21)
(1.19377 -5.53025 -9.45492e-20)
(1.15583 -5.31903 3.10905e-20)
(1.11903 -5.11579 1.6803e-20)
(1.08342 -4.92054 -1.92534e-20)
(1.04906 -4.7332 -2.3077e-21)
(1.01599 -4.55367 -2.79793e-20)
(0.984255 -4.38179 -9.75455e-21)
(0.953861 -4.21735 6.04012e-22)
(0.924817 -4.06009 -2.29863e-20)
(0.897113 -3.90972 -3.31495e-20)
(0.870729 -3.7659 1.54916e-21)
(0.845615 -3.62829 4.54278e-21)
(0.821704 -3.49654 9.89695e-21)
(0.799049 -3.37025 -2.40268e-20)
(0.777897 -3.24899 2.01664e-20)
(0.757159 -3.13261 -3.80413e-20)
(2.28915 -9.47853 -2.09474e-19)
(2.05518 -9.09744 2.46328e-19)
(1.97365 -8.72524 -2.53287e-19)
(1.9122 -8.38099 -6.60545e-20)
(1.84801 -8.06241 -4.04419e-20)
(1.78815 -7.76174 -4.33963e-20)
(1.73222 -7.47474 -3.95735e-20)
(1.67868 -7.1989 -9.24226e-21)
(1.62684 -6.93257 -3.90323e-20)
(1.57637 -6.67477 -7.44831e-21)
(1.52708 -6.425 5.99062e-20)
(1.47889 -6.18305 -3.57557e-20)
(1.43178 -5.94887 -3.97107e-20)
(1.38579 -5.72251 -6.40608e-20)
(1.34101 -5.50405 1.32981e-19)
(1.2975 -5.29354 -4.99117e-20)
(1.25533 -5.09102 1.82558e-20)
(1.21458 -4.8965 -6.59165e-20)
(1.1753 -4.70992 2.54487e-20)
(1.13753 -4.53117 -9.78405e-21)
(1.10131 -4.3601 1.2735e-20)
(1.06666 -4.19649 -4.01109e-21)
(1.03356 -4.04008 3.70384e-20)
(1.002 -3.89058 -1.29233e-20)
(0.971964 -3.74765 3.49757e-20)
(0.943379 -3.61094 -7.04722e-20)
(0.91617 -3.48007 4.44469e-20)
(0.890391 -3.35464 1.16694e-20)
(0.8663 -3.23419 2.1617e-20)
(0.842686 -3.1186 -6.68465e-20)
(2.53639 -9.41647 3.30961e-19)
(2.29321 -9.04373 -6.40769e-20)
(2.20266 -8.67567 1.07666e-19)
(2.13285 -8.33468 -2.96798e-20)
(2.06085 -8.01903 1.04159e-19)
(1.99353 -7.72079 9.51625e-20)
(1.93038 -7.43577 1.04803e-19)
(1.8698 -7.16157 -7.78249e-21)
(1.81109 -6.89662 -9.52887e-20)
(1.75391 -6.64002 1.39306e-19)
(1.69807 -6.39131 -8.90379e-21)
(1.64349 -6.15033 9.33724e-20)
(1.59019 -5.91706 3.28497e-20)
(1.53821 -5.69158 1.23623e-20)
(1.48764 -5.47398 1.83002e-20)
(1.43855 -5.26433 2.51018e-20)
(1.39102 -5.06268 4.00374e-20)
(1.34514 -4.86904 -1.09408e-20)
(1.30095 -4.68335 5.63404e-20)
(1.2585 -4.50551 2.48711e-20)
(1.21782 -4.33537 -5.15071e-20)
(1.17892 -4.17271 8.94259e-20)
(1.14179 -4.01728 -1.15944e-19)
(1.10642 -3.86877 1.07613e-19)
(1.07275 -3.72684 -3.5151e-20)
(1.04072 -3.59113 -1.38726e-20)
(1.01025 -3.46126 -3.14253e-21)
(0.98138 -3.33681 2.48211e-20)
(0.954385 -3.21727 8.60329e-21)
(0.927926 -3.10258 -1.02563e-20)
(2.78196 -9.34803 -1.87809e-19)
(2.52987 -8.98392 1.75461e-19)
(2.43046 -8.62025 -4.73108e-20)
(2.35241 -8.28274 1.32715e-19)
(2.27271 -7.97021 1.30816e-20)
(2.19801 -7.67456 2.48477e-20)
(2.12769 -7.39169 -2.12938e-19)
(2.06011 -7.11928 -3.64746e-20)
(1.99455 -6.85588 1.29886e-19)
(1.93068 -6.60063 9.40302e-20)
(1.8683 -6.35314 -1.58626e-19)
(1.80735 -6.11328 9.00181e-20)
(1.74786 -5.88109 -8.85974e-20)
(1.68989 -5.65665 5.82742e-20)
(1.63354 -5.44006 -9.65076e-20)
(1.57888 -5.23142 -6.90069e-20)
(1.52601 -5.03078 5.30164e-21)
(1.47501 -4.83816 -2.96165e-20)
(1.42593 -4.6535 5.37348e-20)
(1.37881 -4.4767 2.07624e-20)
(1.33369 -4.30762 -1.36407e-20)
(1.29057 -4.14604 -3.88528e-21)
(1.24944 -3.9917 1.47452e-20)
(1.21027 -3.84429 -4.98706e-20)
(1.173 -3.70348 8.08638e-20)
(1.13757 -3.56889 -1.99213e-20)
(1.10387 -3.44013 -3.26119e-20)
(1.07195 -3.31676 6.70807e-20)
(1.04208 -3.19824 8.40973e-21)
(1.01282 -3.08456 -9.3513e-21)
(3.02571 -9.27324 7.03608e-21)
(2.765 -8.91804 -1.01603e-19)
(2.65692 -8.55902 -8.94399e-20)
(2.57077 -8.22519 -1.44301e-19)
(2.48347 -7.91596 4.95126e-21)
(2.40147 -7.62308 -9.66138e-20)
(2.32404 -7.34251 1.14825e-19)
(2.24949 -7.07206 -1.15067e-20)
(2.17711 -6.81035 8.47489e-20)
(2.10656 -6.55661 -7.23426e-20)
(2.03765 -6.3105 -3.54604e-20)
(1.97034 -6.07193 1.89077e-20)
(1.90468 -5.84097 9.92878e-21)
(1.84073 -5.61771 -9.68553e-20)
(1.7786 -5.4023 5.6643e-20)
(1.71838 -5.19482 -2.63737e-20)
(1.66018 -4.99534 7.55308e-20)
(1.60408 -4.80387 -2.41199e-20)
(1.55012 -4.62037 2.4877e-20)
(1.49836 -4.44475 5.9343e-21)
(1.44883 -4.27685 4.01798e-20)
(1.40151 -4.11647 -8.37433e-21)
(1.3564 -3.96334 6.35622e-20)
(1.31347 -3.81716 -7.04673e-20)
(1.27264 -3.67758 -2.31949e-20)
(1.23384 -3.54422 1.86299e-20)
(1.19695 -3.41668 -2.18087e-21)
(1.16202 -3.2945 -4.96795e-20)
(1.12933 -3.17711 2.5086e-20)
(1.0973 -3.06455 -2.87726e-20)
(3.26747 -9.19216 3.14128e-19)
(2.99845 -8.84613 8.27225e-20)
(2.88188 -8.492 9.66736e-20)
(2.78777 -8.16206 1.25451e-19)
(2.69299 -7.85631 1.84559e-19)
(2.60376 -7.56635 -5.52114e-21)
(2.51927 -7.28824 2.70349e-20)
(2.43781 -7.01991 1.90694e-19)
(2.35864 -6.76005 -3.98348e-20)
(2.28142 -6.50798 -6.68596e-20)
(2.206 -6.2634 1.14905e-19)
(2.13234 -6.02628 1.79515e-20)
(2.06051 -5.7967 1.16332e-21)
(1.99059 -5.5748 2.63732e-20)
(1.9227 -5.36071 4.46099e-20)
(1.85695 -5.15454 -8.8865e-20)
(1.79344 -4.95636 7.4924e-20)
(1.73225 -4.76619 1.21405e-20)
(1.67344 -4.58399 6.88985e-20)
(1.61706 -4.40968 -3.73948e-20)
(1.56313 -4.24309 5.93397e-20)
(1.51165 -4.08402 -6.21351e-20)
(1.4626 -3.93223 5.89407e-20)
(1.41593 -3.78738 7.43514e-21)
(1.37159 -3.64914 -3.85924e-20)
(1.32946 -3.51713 -1.18971e-20)
(1.28942 -3.39092 7.04988e-20)
(1.25152 -3.27004 -1.06923e-20)
(1.21606 -3.15389 1.32481e-20)
(1.1813 -3.04256 -8.71361e-21)
(3.50707 -9.10483 3.12637e-20)
(3.23007 -8.76822 6.93077e-20)
(3.1052 -8.41921 2.75913e-19)
(3.00327 -8.09338 -4.47244e-19)
(2.90113 -7.79127 -4.1766e-20)
(2.80476 -7.5044 -4.61961e-20)
(2.71328 -7.22891 2.07272e-20)
(2.62493 -6.96284 2.5513e-20)
(2.539 -6.70499 4.10105e-20)
(2.45514 -6.45474 -1.08762e-19)
(2.37322 -6.21186 -1.86649e-20)
(2.29323 -5.97635 5.8439e-20)
(2.21525 -5.74832 5.96538e-20)
(2.13938 -5.52792 -6.02196e-20)
(2.06575 -5.31531 -5.58374e-20)
(1.99447 -5.1106 9.27228e-20)
(1.92567 -4.91387 5.7668e-20)
(1.85941 -4.72514 -1.57401e-20)
(1.79578 -4.54438 -3.57415e-20)
(1.73481 -4.37149 5.99445e-21)
(1.67651 -4.20634 -7.77815e-20)
(1.6209 -4.04872 9.22264e-20)
(1.56794 -3.89836 -6.20731e-20)
(1.51758 -3.75497 -2.15838e-21)
(1.46975 -3.61819 3.94345e-20)
(1.42433 -3.48763 -1.20418e-20)
(1.3812 -3.36286 -3.54389e-20)
(1.34038 -3.24339 5.73106e-21)
(1.30219 -3.12858 -1.45937e-21)
(1.26476 -3.0186 6.80554e-21)
(3.74437 -9.01131 -2.44868e-20)
(3.45971 -8.68437 -7.41645e-20)
(3.32675 -8.34071 -3.17399e-19)
(3.21715 -8.01916 1.14674e-19)
(3.10776 -7.72087 -3.24854e-20)
(3.00434 -7.43725 1.08358e-19)
(2.90591 -7.16452 7.94516e-21)
(2.81073 -6.90087 -1.15237e-19)
(2.71806 -6.64519 1.71422e-19)
(2.62759 -6.39692 -1.52013e-19)
(2.53919 -6.1559 -4.69419e-21)
(2.45289 -5.92215 3.46777e-20)
(2.36877 -5.69582 -5.88473e-20)
(2.28697 -5.47709 6.43043e-20)
(2.20761 -5.26611 -1.21292e-19)
(2.13084 -5.06302 -2.5323e-20)
(2.05677 -4.86788 7.11017e-20)
(1.98548 -4.68073 6.77192e-22)
(1.91704 -4.50154 -4.10001e-20)
(1.8515 -4.33022 1.11632e-19)
(1.78888 -4.16663 -5.99606e-20)
(1.72916 -4.01056 -7.73991e-20)
(1.67233 -3.86177 2.51637e-20)
(1.61831 -3.71995 -7.16823e-20)
(1.56704 -3.58473 -1.64763e-20)
(1.51839 -3.45573 -1.74627e-21)
(1.4722 -3.33252 -4.37183e-20)
(1.42852 -3.21457 5.25771e-20)
(1.38765 -3.10121 -1.81416e-20)
(1.34761 -2.99268 3.09578e-20)
(3.97919 -8.91165 -1.11722e-19)
(3.68722 -8.59462 -2.95472e-19)
(3.54636 -8.25652 1.36136e-19)
(3.42926 -7.93945 -1.26983e-19)
(3.31274 -7.64514 -9.03969e-20)
(3.20235 -7.36491 -4.96067e-20)
(3.09705 -7.0951 -1.8263e-19)
(2.99507 -6.83402 1.22361e-19)
(2.8957 -6.58066 -2.92794e-19)
(2.79863 -6.33454 -1.00595e-19)
(2.70379 -6.09553 3.87753e-20)
(2.61119 -5.86371 5.97736e-20)
(2.52096 -5.63925 -2.21873e-21)
(2.43325 -5.42234 -1.07828e-19)
(2.3482 -5.21315 2.49081e-20)
(2.26595 -5.01181 -9.17474e-20)
(2.18663 -4.81842 -6.37014e-20)
(2.11034 -4.63299 -3.63897e-20)
(2.03713 -4.45551 -5.79377e-21)
(1.96706 -4.28588 6.31285e-20)
(1.90013 -4.12397 8.68967e-20)
(1.83635 -3.96958 -2.54859e-20)
(1.77567 -3.82246 -2.35398e-20)
(1.71804 -3.68231 4.5756e-20)
(1.66337 -3.54877 2.47852e-20)
(1.61153 -3.42145 -1.96165e-20)
(1.56234 -3.2999 -2.117e-20)
(1.51586 -3.18358 2.61809e-21)
(1.47237 -3.07178 1.82866e-20)
(1.42977 -2.96481 -2.77427e-20)
(4.21138 -8.80593 -1.85658e-20)
(3.91244 -8.49901 3.6881e-19)
(3.76392 -8.1667 2.73437e-19)
(3.63947 -7.85428 2.06422e-19)
(3.51594 -7.56411 -1.33075e-19)
(3.39867 -7.28742 -2.60765e-20)
(3.28655 -7.02068 2.46404e-20)
(3.17783 -6.76232 1.53838e-19)
(3.07178 -6.51144 5.59969e-20)
(2.96816 -6.26761 1.3236e-19)
(2.86688 -6.03077 -1.79475e-19)
(2.76802 -5.80104 1.92549e-20)
(2.67171 -5.57861 6.98345e-20)
(2.5781 -5.36368 4.07439e-20)
(2.48738 -5.15644 8.15056e-20)
(2.39969 -4.95702 -5.69165e-20)
(2.31516 -4.76551 -4.97696e-20)
(2.23389 -4.58194 1.05546e-20)
(2.15594 -4.4063 1.01808e-19)
(2.08137 -4.23848 -1.61613e-19)
(2.01018 -4.07838 5.60013e-20)
(1.94237 -3.92578 -1.71535e-22)
(1.87789 -3.78045 9.9367e-20)
(1.81669 -3.64209 -4.31217e-20)
(1.75866 -3.51034 -2.65799e-21)
(1.70368 -3.38479 -2.59102e-20)
(1.65154 -3.26502 2.44122e-20)
(1.60231 -3.15044 5.89774e-21)
(1.55626 -3.0403 -2.54453e-20)
(1.51118 -2.93502 1.13899e-19)
(4.44078 -8.6942 -3.96098e-19)
(4.13524 -8.39761 -2.22657e-19)
(3.97927 -8.07128 -5.51867e-19)
(3.84764 -7.76369 -2.39894e-19)
(3.71723 -7.4778 2.21446e-19)
(3.59316 -7.2048 -1.2417e-19)
(3.47429 -6.94127 -2.68719e-20)
(3.35886 -6.68579 -7.69642e-20)
(3.24618 -6.43753 1.29977e-19)
(3.13603 -6.19616 -2.85078e-20)
(3.02836 -5.96166 -4.43516e-20)
(2.92325 -5.73418 -5.2923e-21)
(2.82088 -5.51394 -1.65901e-19)
(2.72142 -5.30115 -3.47641e-21)
(2.62506 -5.096 4.4532e-20)
(2.53196 -4.89865 -4.381e-21)
(2.44225 -4.70917 -1.55487e-19)
(2.35603 -4.52761 1.48523e-19)
(2.27339 -4.35393 -1.41784e-19)
(2.19435 -4.18807 5.45872e-20)
(2.11893 -4.02988 7.56961e-21)
(2.04713 -3.87919 3.00399e-21)
(1.97889 -3.73576 -5.38135e-20)
(1.91415 -3.59929 1.73613e-20)
(1.85282 -3.46943 -1.35001e-22)
(1.79473 -3.34578 5.35154e-21)
(1.73971 -3.22789 -1.23527e-19)
(1.68778 -3.11516 3.42074e-20)
(1.63924 -3.0068 3.54814e-20)
(1.59175 -2.90331 3.61429e-20)
(4.66724 -8.57654 7.65346e-19)
(4.35546 -8.29048 2.46625e-19)
(4.19228 -7.97033 1.4069e-19)
(4.05364 -7.66772 2.21196e-19)
(3.91647 -7.38626 -2.60629e-20)
(3.78569 -7.11709 1.55164e-19)
(3.66012 -6.85691 3.34494e-19)
(3.53804 -6.60445 -4.38135e-20)
(3.41877 -6.35898 1.71963e-20)
(3.30212 -6.12023 3.58555e-19)
(3.18808 -5.88823 -4.8814e-20)
(3.07677 -5.66316 4.6788e-20)
(2.96837 -5.44526 -1.54259e-20)
(2.86309 -5.23477 1.60954e-21)
(2.76113 -5.03188 2.26601e-19)
(2.66265 -4.83674 8.74976e-21)
(2.5678 -4.64944 2.27373e-19)
(2.47668 -4.47002 -2.99292e-20)
(2.38936 -4.29844 -4.65703e-20)
(2.3059 -4.13464 1.07313e-19)
(2.22629 -3.9785 -9.52345e-20)
(2.15053 -3.82983 1.03492e-19)
(2.07857 -3.68841 5.42868e-20)
(2.01034 -3.55393 -4.25681e-20)
(1.94574 -3.42607 6.45345e-20)
(1.88461 -3.30441 7.52765e-21)
(1.82675 -3.18852 -2.49846e-20)
(1.77219 -3.07776 1.47224e-20)
(1.72123 -2.97129 8.96419e-20)
(1.6714 -2.86971 1.2845e-20)
(4.89061 -8.45303 -1.31862e-19)
(4.57297 -8.17769 -2.50981e-19)
(4.40283 -7.86389 9.78581e-20)
(4.25734 -7.56642 -3.92964e-19)
(4.11352 -7.28952 1.79086e-19)
(3.97612 -7.02431 -3.20364e-19)
(3.84393 -6.76762 -2.00702e-19)
(3.71523 -6.51834 5.57008e-20)
(3.58942 -6.27581 4.80848e-20)
(3.46631 -6.03984 -2.51822e-19)
(3.34594 -5.81049 -1.0426e-19)
(3.22845 -5.588 4.46154e-20)
(3.11407 -5.37261 -1.25964e-19)
(3.003 -5.16458 -4.81107e-20)
(2.89547 -4.9641 -3.11004e-20)
(2.79166 -4.77132 -3.08649e-20)
(2.6917 -4.58634 -1.24233e-19)
(2.59572 -4.40919 -7.46474e-20)
(2.50378 -4.23985 1.48775e-20)
(2.41592 -4.07824 2.39709e-20)
(2.33217 -3.92426 2.37479e-20)
(2.25249 -3.77772 -8.39592e-20)
(2.17685 -3.6384 3.04484e-20)
(2.10517 -3.50603 -6.24322e-20)
(2.03734 -3.38026 5.66755e-20)
(1.97322 -3.2607 -7.47213e-20)
(1.91257 -3.14691 2.21138e-20)
(1.85544 -3.03823 -3.59798e-20)
(1.80212 -2.93377 -4.9239e-20)
(1.75003 -2.83423 -4.72922e-21)
(5.11072 -8.32373 -2.75285e-19)
(4.78763 -8.0593 -2.25256e-19)
(4.61077 -7.75204 -2.11857e-19)
(4.4586 -7.45984 -1.47268e-19)
(4.30827 -7.18763 4.55887e-19)
(4.16433 -6.9265 5.95467e-20)
(4.02556 -6.67345 1.83035e-19)
(3.89032 -6.42749 2.70188e-19)
(3.75799 -6.18806 1.23538e-19)
(3.62846 -5.95502 -1.65204e-19)
(3.5018 -5.7285 2.49465e-19)
(3.37818 -5.50875 -2.4035e-19)
(3.25784 -5.29603 2.18524e-19)
(3.14104 -5.09061 2.37271e-20)
(3.02798 -4.89269 5.26391e-20)
(2.91888 -4.70243 1.74402e-20)
(2.81387 -4.51991 2.0158e-19)
(2.71306 -4.34517 -2.98967e-20)
(2.61654 -4.17819 2.5387e-20)
(2.52434 -4.01889 8.35073e-20)
(2.43647 -3.86717 -9.21548e-20)
(2.35292 -3.72286 7.08951e-20)
(2.27363 -3.58576 2.03385e-21)
(2.19854 -3.45558 3.07507e-20)
(2.12753 -3.33201 5.49002e-20)
(2.06045 -3.21465 -9.51749e-21)
(1.99707 -3.10307 5.27125e-20)
(1.93742 -2.99659 7.40204e-20)
(1.88182 -2.89426 -8.06142e-20)
(1.82755 -2.79687 -4.53927e-20)
(5.32744 -8.18874 7.92503e-19)
(4.99931 -7.93539 -8.40205e-20)
(4.816 -7.63482 1.64924e-19)
(4.65732 -7.34802 2.91253e-19)
(4.50057 -7.08061 -8.12985e-19)
(4.35017 -6.8237 8.49611e-20)
(4.2049 -6.57443 -2.89117e-19)
(4.06315 -6.33194 2.76507e-19)
(3.92436 -6.09576 -2.17174e-19)
(3.78846 -5.86582 1.08244e-19)
(3.65555 -5.64229 -3.95965e-19)
(3.52584 -5.42543 1.63866e-20)
(3.3996 -5.21554 -1.18748e-19)
(3.27709 -5.01289 1.80241e-19)
(3.15857 -4.81769 -1.86956e-19)
(3.04421 -4.63009 -1.00799e-20)
(2.93419 -4.45017 -1.4204e-19)
(2.82862 -4.27798 -1.03091e-20)
(2.72756 -4.11348 1.00497e-20)
(2.63106 -3.95661 2.82144e-20)
(2.53912 -3.80727 -1.61114e-19)
(2.45173 -3.6653 -4.3304e-21)
(2.36883 -3.5305 -8.61452e-20)
(2.29036 -3.40261 -1.99299e-20)
(2.21621 -3.28132 -5.057e-20)
(2.14621 -3.16626 -5.39617e-20)
(2.08014 -3.05699 -5.45446e-20)
(2.01804 -2.95282 9.0999e-20)
(1.96021 -2.85274 2.3811e-20)
(1.90385 -2.75765 -4.3492e-20)
(5.54063 -8.04814 -5.27483e-19)
(5.20789 -7.80605 1.8332e-19)
(5.01839 -7.5123 -2.99252e-19)
(4.85336 -7.231 4.41421e-20)
(4.6903 -6.96851 4.55208e-19)
(4.53352 -6.71595 -2.27197e-19)
(4.38181 -6.4706 -2.24942e-19)
(4.2336 -6.23172 -1.89838e-19)
(4.08841 -5.99896 1.05576e-20)
(3.94618 -5.77228 1.16419e-19)
(3.80706 -5.55189 -7.95846e-20)
(3.6713 -5.3381 6.48565e-21)
(3.53921 -5.1312 2.31088e-19)
(3.41106 -4.93148 -1.15367e-19)
(3.28711 -4.73914 2.72662e-20)
(3.16757 -4.55435 -8.71389e-20)
(3.05259 -4.37717 3.3024e-20)
(2.9423 -4.20765 6.95796e-20)
(2.83675 -4.04576 7.41219e-20)
(2.736 -3.89144 -8.08877e-20)
(2.64004 -3.74458 1.245e-20)
(2.54884 -3.60503 6.57889e-20)
(2.46237 -3.47262 1.11329e-19)
(2.38056 -3.34711 2.75642e-20)
(2.30329 -3.22819 -1.10832e-19)
(2.2304 -3.11551 1.26251e-19)
(2.16168 -3.00866 -6.28957e-20)
(2.09716 -2.90691 -7.31606e-20)
(2.03718 -2.80921 -4.41883e-20)
(1.97882 -2.71654 -5.58413e-20)
(5.75016 -7.90202 2.74803e-19)
(5.41328 -7.67136 -2.07301e-19)
(5.21784 -7.38454 8.18088e-20)
(5.04659 -7.10884 3.94354e-19)
(4.87733 -6.85137 1.0324e-19)
(4.71423 -6.60328 -8.51461e-20)
(4.55614 -6.36199 2.03708e-19)
(4.40154 -6.12689 5.12578e-20)
(4.24999 -5.8977 1.78606e-19)
(4.10148 -5.67444 9.54109e-20)
(3.95621 -5.45737 4.97973e-21)
(3.81447 -5.2468 5.63219e-20)
(3.67657 -5.04305 -1.73762e-20)
(3.54284 -4.84641 2.92473e-20)
(3.41352 -4.65709 7.77229e-20)
(3.28884 -4.47524 -4.16308e-20)
(3.16897 -4.30095 9.98496e-20)
(3.05401 -4.13423 9.85615e-20)
(2.94404 -3.97507 -1.09859e-19)
(2.83908 -3.82339 1.11766e-19)
(2.73913 -3.67911 2.29578e-19)
(2.64418 -3.54209 -1.45995e-19)
(2.55418 -3.41216 1.42683e-19)
(2.46904 -3.28909 -9.94383e-20)
(2.38868 -3.17261 -1.34816e-20)
(2.31294 -3.06239 1.01483e-19)
(2.24159 -2.95804 -2.09458e-20)
(2.17469 -2.85882 7.3701e-20)
(2.1126 -2.76362 7.18576e-20)
(2.05233 -2.67354 -1.34474e-19)
(5.95593 -7.75047 -2.63305e-19)
(5.61538 -7.53139 1.21171e-19)
(5.41425 -7.25159 4.58605e-20)
(5.23691 -6.98157 -4.56317e-19)
(5.06151 -6.72923 -2.26475e-19)
(4.89218 -6.48574 1.64531e-19)
(4.72777 -6.24866 -4.42616e-19)
(4.56684 -6.01749 5.1802e-19)
(4.40897 -5.79203 -2.84012e-19)
(4.25425 -5.57236 3.3058e-20)
(4.10288 -5.35876 -5.40365e-20)
(3.95521 -5.15158 -1.45679e-19)
(3.81158 -4.95114 2.96078e-19)
(3.67231 -4.75774 1.06039e-19)
(3.5377 -4.57159 -1.11163e-19)
(3.40795 -4.39283 2.97984e-21)
(3.28324 -4.22154 5.73218e-20)
(3.16368 -4.05775 -1.21269e-19)
(3.04933 -3.90143 2.57191e-20)
(2.94023 -3.75252 7.98039e-20)
(2.83635 -3.61091 -3.35641e-20)
(2.73769 -3.47649 5.19981e-20)
(2.64417 -3.3491 -1.02096e-19)
(2.55575 -3.22854 1.43936e-19)
(2.47232 -3.11456 3.16743e-20)
(2.39372 -3.00686 -8.88273e-20)
(2.31976 -2.90508 -7.43722e-20)
(2.2505 -2.80849 1.26602e-21)
(2.18634 -2.71593 1.00351e-19)
(2.12422 -2.62858 -2.25965e-20)
(6.15788 -7.59356 -7.10435e-20)
(5.81412 -7.38622 -4.74954e-19)
(5.60751 -7.11349 5.59321e-19)
(5.42417 -6.84922 3.6557e-19)
(5.24272 -6.60212 3.50281e-19)
(5.06722 -6.36338 9.05419e-20)
(4.89656 -6.13065 1.37313e-19)
(4.72934 -5.90357 6.69704e-20)
(4.56524 -5.68201 -2.59872e-19)
(4.40435 -5.46609 4.66834e-19)
(4.24695 -5.25613 -3.58173e-19)
(4.09342 -5.05249 -2.02234e-20)
(3.94411 -4.85553 5.17473e-20)
(3.79939 -4.66552 -2.10148e-19)
(3.65954 -4.48268 1.81765e-19)
(3.5248 -4.30715 -5.45598e-20)
(3.39533 -4.13901 -1.3223e-19)
(3.27123 -3.97826 4.8409e-20)
(3.15258 -3.8249 -9.42223e-20)
(3.03938 -3.67884 -8.09795e-20)
(2.93163 -3.54 -8.36725e-20)
(2.8293 -3.40825 1.87777e-20)
(2.73232 -3.28347 9.2892e-21)
(2.64062 -3.16546 -1.93898e-19)
(2.55413 -3.05402 -7.10746e-20)
(2.47269 -2.94888 4.68214e-20)
(2.39611 -2.84972 5.58162e-20)
(2.32448 -2.75583 -7.63427e-20)
(2.25824 -2.66601 -2.83425e-20)
(2.19431 -2.58155 2.45601e-21)
(6.35602 -7.43138 -6.75773e-20)
(6.00948 -7.23592 3.07871e-19)
(5.79751 -6.97027 -8.68719e-20)
(5.60824 -6.71182 -1.05219e-19)
(5.4208 -6.47008 -5.4021e-19)
(5.23919 -6.23622 -1.11071e-19)
(5.06235 -6.00801 2.11848e-19)
(4.88893 -5.78519 -1.34424e-19)
(4.71865 -5.56769 -1.28231e-20)
(4.55167 -5.35569 -2.64184e-20)
(4.38831 -5.14953 1.34558e-19)
(4.22897 -4.94961 -2.09431e-19)
(4.07407 -4.75628 -1.34874e-19)
(3.92397 -4.56981 1.53785e-19)
(3.77897 -4.39043 -8.48547e-20)
(3.6393 -4.21827 -9.89237e-20)
(3.50514 -4.05339 2.08437e-19)
(3.37659 -3.89582 -3.285e-20)
(3.2537 -3.74551 1.15381e-19)
(3.13649 -3.60241 -1.05075e-19)
(3.02492 -3.46641 -8.17042e-20)
(2.91897 -3.33741 7.03927e-20)
(2.81856 -3.21528 -8.51027e-21)
(2.72363 -3.09986 -5.02716e-20)
(2.63409 -2.99098 4.36008e-20)
(2.54981 -2.88841 -1.32033e-19)
(2.47059 -2.79187 8.05032e-20)
(2.39654 -2.70072 -1.29976e-21)
(2.32821 -2.61372 -8.02763e-20)
(2.26253 -2.5322 1.13908e-19)
(6.55064 -7.26415 2.47329e-19)
(6.20152 -7.08056 -6.08227e-19)
(5.98414 -6.82194 -4.6666e-20)
(5.78895 -6.56937 2.63289e-19)
(5.59557 -6.33313 -6.46538e-20)
(5.40794 -6.10432 -1.77273e-19)
(5.22499 -5.88079 8.04577e-20)
(5.04544 -5.66239 8.90389e-20)
(4.86906 -5.44913 6.69874e-21)
(4.69606 -5.24121 1.03255e-19)
(4.52681 -5.03904 3.18828e-19)
(4.36176 -4.843 -1.12452e-19)
(4.20134 -4.65345 2.58118e-20)
(4.04594 -4.47068 -6.75495e-20)
(3.89587 -4.2949 2.59831e-19)
(3.75138 -4.12624 -4.51104e-20)
(3.61261 -3.96476 1.45237e-19)
(3.47969 -3.81047 -5.47944e-20)
(3.35265 -3.66333 5.75587e-20)
(3.23149 -3.52327 8.4917e-20)
(3.11618 -3.39019 1.37822e-20)
(3.00667 -3.26399 5.44371e-20)
(2.90289 -3.14455 -4.3787e-20)
(2.80476 -3.03174 1.21177e-19)
(2.7122 -2.92541 -4.86034e-20)
(2.62506 -2.82539 1.74168e-19)
(2.54318 -2.73146 -5.02578e-20)
(2.46667 -2.64302 3.35098e-20)
(2.3962 -2.55879 -6.25951e-20)
(2.32887 -2.48036 1.10102e-19)
(6.74252 -7.09218 -5.52637e-19)
(6.39046 -6.92005 2.15137e-20)
(6.16725 -6.66836 -2.92253e-19)
(5.96609 -6.42183 5.1573e-20)
(5.76686 -6.19128 1.37254e-20)
(5.57329 -5.96772 -2.33266e-19)
(5.38433 -5.74906 -4.25395e-19)
(5.19873 -5.53526 2.06412e-19)
(5.01633 -5.3264 -2.87303e-19)
(4.83739 -5.12275 -1.44599e-19)
(4.66234 -4.92472 -7.91327e-20)
(4.49167 -4.73272 -5.98834e-20)
(4.32582 -4.54711 -1.68481e-23)
(4.16521 -4.36819 -2.09546e-19)
(4.01017 -4.19616 1.29235e-19)
(3.86093 -4.03113 -2.12438e-19)
(3.71766 -3.87318 -5.18522e-20)
(3.58046 -3.72228 5.51734e-20)
(3.44936 -3.57841 6.77961e-20)
(3.32434 -3.44148 6.54958e-20)
(3.20538 -3.31139 4.8951e-20)
(3.09239 -3.18804 -1.21268e-19)
(2.9853 -3.07133 1.19744e-19)
(2.88402 -2.96113 -1.29256e-20)
(2.78845 -2.85732 -3.11359e-20)
(2.69845 -2.75978 -1.20447e-19)
(2.61385 -2.66832 -6.24212e-20)
(2.53476 -2.58235 1.14486e-19)
(2.46186 -2.50077 -3.78068e-20)
(2.39264 -2.42611 -3.57632e-20)
(6.93204 -6.91466 2.44725e-19)
(6.57615 -6.75355 2.56381e-20)
(6.34659 -6.50925 -5.77721e-20)
(6.13944 -6.26922 -9.51125e-21)
(5.93449 -6.04468 -9.31947e-20)
(5.73512 -5.82657 3.15341e-19)
(5.54024 -5.61296 -1.439e-19)
(5.34869 -5.40393 9.47118e-20)
(5.16036 -5.19965 3.93614e-20)
(4.97558 -5.00042 1.28894e-19)
(4.79482 -4.80669 -4.56802e-20)
(4.61861 -4.61889 2.60788e-19)
(4.44743 -4.43738 -2.16768e-20)
(4.28171 -4.26246 1.58028e-19)
(4.12179 -4.09431 -2.57378e-19)
(3.96791 -3.93305 -1.64078e-20)
(3.82023 -3.77874 1.59337e-19)
(3.67885 -3.63135 -9.59427e-20)
(3.54379 -3.49085 -6.61016e-20)
(3.41502 -3.35713 -1.10922e-19)
(3.2925 -3.23011 -9.34193e-20)
(3.17614 -3.10966 1.01465e-19)
(3.06583 -2.99569 -9.11183e-20)
(2.96149 -2.88808 2.05032e-20)
(2.86298 -2.78674 7.2107e-20)
(2.77018 -2.69154 4.87439e-20)
(2.68291 -2.60226 4.49367e-20)
(2.60107 -2.51829 3.2382e-20)
(2.52472 -2.43923 -8.78187e-20)
(2.45223 -2.36873 -3.48946e-20)
(9.8581 0.0124277 3.04919e-21)
(9.85097 -0.247356 2.88745e-20)
(9.83767 -0.505685 1.0039e-19)
(9.81841 -0.762977 5.43406e-20)
(9.79274 -1.01936 -1.17708e-19)
(9.76047 -1.27477 3.53575e-20)
(9.72154 -1.52912 -3.62599e-20)
(9.676 -1.78227 -9.28257e-20)
(9.62385 -2.03407 2.43413e-19)
(9.56513 -2.28435 -5.81591e-20)
(9.49988 -2.53294 -5.64727e-20)
(9.42817 -2.77969 -1.23416e-19)
(9.35004 -3.02441 -3.57555e-19)
(9.26555 -3.26696 3.32654e-20)
(9.17478 -3.50716 -1.1374e-20)
(9.0778 -3.74486 -1.18287e-19)
(8.97467 -3.97989 2.42235e-19)
(8.86548 -4.2121 1.3514e-19)
(8.7503 -4.44134 2.52777e-19)
(8.62924 -4.66745 1.22325e-19)
(8.50236 -4.8903 -2.86918e-19)
(8.36977 -5.10973 1.24783e-20)
(8.23156 -5.3256 -5.45949e-19)
(8.08785 -5.53779 8.31475e-19)
(7.93872 -5.74616 -2.70635e-19)
(7.78431 -5.95061 -3.6121e-19)
(7.62473 -6.15103 -5.34015e-20)
(7.46014 -6.3474 -7.09597e-21)
(7.29063 -6.53978 -2.82583e-19)
(7.11681 -6.72825 4.94152e-19)
(9.58217 -0.12723 1.11772e-20)
(9.57056 -0.379051 1.58754e-20)
(9.55213 -0.629565 3.21474e-21)
(9.52731 -0.878969 -1.4355e-19)