/*--------------------------------*- C++ -*----------------------------------*\
  =========                 |
  \\      /  F ield         | OpenFOAM: The Open Source CFD Toolbox
   \\    /   O peration     | Website:  https://openfoam.org
    \\  /    A nd           | Version:  6.0
     \\/     M anipulation  |
\*---------------------------------------------------------------------------*/
FoamFile
{
    version     2.0;
    format      ascii;
    class       volScalarField;
    location    "22.752";
    object      p;
}
// * * * * * * * * * * * * * * * * * * * * * * * * * * * * * * * * * * * * * //

dimensions      [0 2 -2 0 0 0 0];

internalField   nonuniform List<scalar> 
19200
(
-0.386664
-0.381627
-0.377865
-0.374736
-0.371861
-0.36922
-0.366769
-0.364455
-0.362241
-0.360099
-0.358009
-0.355957
-0.353933
-0.351932
-0.349949
-0.347983
-0.346034
-0.344101
-0.342185
-0.34029
-0.338415
-0.336562
-0.334734
-0.33293
-0.331153
-0.329409
-0.327693
-0.325952
-0.32417
-0.322936
-0.390252
-0.385095
-0.381308
-0.378153
-0.375237
-0.372541
-0.37002
-0.367626
-0.365322
-0.363083
-0.360891
-0.358732
-0.356599
-0.354487
-0.352392
-0.350314
-0.348254
-0.346212
-0.34419
-0.34219
-0.340215
-0.338267
-0.336347
-0.334457
-0.332598
-0.330777
-0.328992
-0.327178
-0.325312
-0.324084
-0.394415
-0.389048
-0.385168
-0.38195
-0.378967
-0.376193
-0.373585
-0.371094
-0.368686
-0.366335
-0.364027
-0.361748
-0.359492
-0.357256
-0.355037
-0.352836
-0.350653
-0.348491
-0.346352
-0.344239
-0.342155
-0.340102
-0.338082
-0.336097
-0.334149
-0.332247
-0.330387
-0.328494
-0.326535
-0.325326
-0.398939
-0.39342
-0.389442
-0.386141
-0.383068
-0.380196
-0.377482
-0.374877
-0.372347
-0.36987
-0.36743
-0.365017
-0.362625
-0.360251
-0.357895
-0.355557
-0.353241
-0.350947
-0.34868
-0.346443
-0.344239
-0.342071
-0.339942
-0.337855
-0.335811
-0.333821
-0.331881
-0.329902
-0.32784
-0.326665
-0.403875
-0.398215
-0.39413
-0.390728
-0.387545
-0.384556
-0.381718
-0.378982
-0.376314
-0.373694
-0.371108
-0.368545
-0.366003
-0.363478
-0.360972
-0.358485
-0.356022
-0.353585
-0.351178
-0.348805
-0.346471
-0.344179
-0.341932
-0.339733
-0.337586
-0.335501
-0.333476
-0.331404
-0.32923
-0.3281
-0.409256
-0.403448
-0.39924
-0.395717
-0.392407
-0.389283
-0.386303
-0.383418
-0.380596
-0.377817
-0.375069
-0.372342
-0.369635
-0.366945
-0.364275
-0.361626
-0.359003
-0.35641
-0.353851
-0.351332
-0.348856
-0.346429
-0.344054
-0.341734
-0.339474
-0.337287
-0.335171
-0.332999
-0.330703
-0.329634
-0.4151
-0.409128
-0.40478
-0.40112
-0.397663
-0.394386
-0.391245
-0.388194
-0.385201
-0.382247
-0.379321
-0.376416
-0.373528
-0.370659
-0.367811
-0.364986
-0.362191
-0.359429
-0.356705
-0.354027
-0.351398
-0.348825
-0.346311
-0.343861
-0.341479
-0.339182
-0.336967
-0.334687
-0.332258
-0.331263
-0.421423
-0.415266
-0.41076
-0.406944
-0.403323
-0.399874
-0.396555
-0.39332
-0.390138
-0.386993
-0.383873
-0.380773
-0.377691
-0.374628
-0.371587
-0.368573
-0.36559
-0.362646
-0.359745
-0.356895
-0.3541
-0.351369
-0.348705
-0.346113
-0.3436
-0.341184
-0.338863
-0.336467
-0.333894
-0.332987
-0.428239
-0.421874
-0.417191
-0.413201
-0.409396
-0.405756
-0.40224
-0.398803
-0.395416
-0.392062
-0.388732
-0.385421
-0.382129
-0.378857
-0.37561
-0.372392
-0.369209
-0.366068
-0.362976
-0.35994
-0.356967
-0.354065
-0.351238
-0.348494
-0.345838
-0.343293
-0.340858
-0.338337
-0.335607
-0.334804
-0.435559
-0.428963
-0.424083
-0.419899
-0.415891
-0.41204
-0.408309
-0.404652
-0.401042
-0.397463
-0.393906
-0.390369
-0.386851
-0.383355
-0.379886
-0.37645
-0.373052
-0.369701
-0.366404
-0.363168
-0.360003
-0.356916
-0.353914
-0.351004
-0.348194
-0.34551
-0.342952
-0.340294
-0.337395
-0.33671
-0.443396
-0.436545
-0.431446
-0.427048
-0.422817
-0.418736
-0.41477
-0.410875
-0.407023
-0.403202
-0.399403
-0.395623
-0.391864
-0.38813
-0.384424
-0.380754
-0.377127
-0.373551
-0.370034
-0.366585
-0.363214
-0.359928
-0.356737
-0.353647
-0.35067
-0.347835
-0.345142
-0.342337
-0.339255
-0.338702
-0.451762
-0.44463
-0.439291
-0.434658
-0.430183
-0.425852
-0.421632
-0.417479
-0.413369
-0.409288
-0.405229
-0.401192
-0.397176
-0.393187
-0.389231
-0.385313
-0.381442
-0.377626
-0.373875
-0.370198
-0.366604
-0.363105
-0.359709
-0.356426
-0.353268
-0.350269
-0.34743
-0.344463
-0.341183
-0.340776
-0.460667
-0.453228
-0.447626
-0.442737
-0.437997
-0.433395
-0.428902
-0.424473
-0.420086
-0.415728
-0.411394
-0.407082
-0.402795
-0.398538
-0.394315
-0.390135
-0.386005
-0.381935
-0.377935
-0.374014
-0.370183
-0.366454
-0.362838
-0.359345
-0.35599
-0.352812
-0.349813
-0.346671
-0.343176
-0.342928
-0.470123
-0.462349
-0.45646
-0.451294
-0.446267
-0.441374
-0.436587
-0.431863
-0.427182
-0.42253
-0.417904
-0.413303
-0.40873
-0.404189
-0.399686
-0.395229
-0.390827
-0.386488
-0.382223
-0.378042
-0.373958
-0.369983
-0.36613
-0.36241
-0.358841
-0.355467
-0.352293
-0.348958
-0.345229
-0.345152
-0.480141
-0.472002
-0.465803
-0.460337
-0.455001
-0.449796
-0.444695
-0.439658
-0.434663
-0.429702
-0.424768
-0.419863
-0.414988
-0.41015
-0.405353
-0.400606
-0.395917
-0.391294
-0.38675
-0.382294
-0.37794
-0.373702
-0.369593
-0.365628
-0.361825
-0.358237
-0.354869
-0.351323
-0.347338
-0.347442
-0.49073
-0.482196
-0.475662
-0.469872
-0.464205
-0.458667
-0.453232
-0.447863
-0.442539
-0.43725
-0.431994
-0.42677
-0.421581
-0.416431
-0.411328
-0.406277
-0.401287
-0.396368
-0.391529
-0.386782
-0.382141
-0.377621
-0.373238
-0.369006
-0.364949
-0.361124
-0.357543
-0.353762
-0.349497
-0.349789
-0.501898
-0.492939
-0.486044
-0.479907
-0.473886
-0.467993
-0.462205
-0.456485
-0.450814
-0.445183
-0.43959
-0.434033
-0.428516
-0.423044
-0.417621
-0.412254
-0.406951
-0.401721
-0.396574
-0.391521
-0.386576
-0.381755
-0.377076
-0.372555
-0.368219
-0.364134
-0.360313
-0.356272
-0.351698
-0.352183
-0.513655
-0.504238
-0.496954
-0.490446
-0.484049
-0.477779
-0.471619
-0.465531
-0.459496
-0.453508
-0.447563
-0.441661
-0.435805
-0.429998
-0.424245
-0.418551
-0.412924
-0.40737
-0.4019
-0.396525
-0.391259
-0.386118
-0.381121
-0.376286
-0.371644
-0.36727
-0.363181
-0.358846
-0.353929
-0.354605
-0.526005
-0.516096
-0.508398
-0.501495
-0.494698
-0.488031
-0.481478
-0.475004
-0.468591
-0.462231
-0.455922
-0.449663
-0.443456
-0.437305
-0.431211
-0.425181
-0.419219
-0.413331
-0.407526
-0.401815
-0.39621
-0.390728
-0.385389
-0.380214
-0.375235
-0.370538
-0.366143
-0.361477
-0.356174
-0.357031
-0.538953
-0.528517
-0.520376
-0.513054
-0.505835
-0.49875
-0.491787
-0.48491
-0.478103
-0.471358
-0.464673
-0.458047
-0.45148
-0.444976
-0.438534
-0.432159
-0.425854
-0.419622
-0.413472
-0.40741
-0.40145
-0.395607
-0.389901
-0.384353
-0.379002
-0.373941
-0.369198
-0.364151
-0.35841
-0.359426
-0.5525
-0.541503
-0.532891
-0.525125
-0.517462
-0.509939
-0.502547
-0.495251
-0.488036
-0.480895
-0.473823
-0.466821
-0.459887
-0.453022
-0.446226
-0.439501
-0.432846
-0.426264
-0.419758
-0.413335
-0.407004
-0.400779
-0.394679
-0.388727
-0.382961
-0.377487
-0.372339
-0.366849
-0.360601
-0.36174
-0.566647
-0.555052
-0.545942
-0.537708
-0.529578
-0.521597
-0.513759
-0.50603
-0.498394
-0.490845
-0.483378
-0.475992
-0.468685
-0.461455
-0.454301
-0.447221
-0.440214
-0.433277
-0.426411
-0.419617
-0.412902
-0.406276
-0.399755
-0.39336
-0.387133
-0.381187
-0.375564
-0.369548
-0.362702
-0.3639
-0.581391
-0.569161
-0.559523
-0.550797
-0.542179
-0.533722
-0.525422
-0.517246
-0.509178
-0.501211
-0.493342
-0.485566
-0.477881
-0.470285
-0.462772
-0.455338
-0.447978
-0.440686
-0.433458
-0.426289
-0.419181
-0.412138
-0.40517
-0.398294
-0.39155
-0.385058
-0.37887
-0.37222
-0.364647
-0.365803
-0.596726
-0.583824
-0.573629
-0.564387
-0.55526
-0.546309
-0.537532
-0.528897
-0.520387
-0.511995
-0.503717
-0.495548
-0.487484
-0.479521
-0.471651
-0.463866
-0.456158
-0.448517
-0.440931
-0.43339
-0.425887
-0.418417
-0.410981
-0.403585
-0.396264
-0.389141
-0.382271
-0.374836
-0.366352
-0.367304
-0.612647
-0.59903
-0.588249
-0.578468
-0.568813
-0.559351
-0.550084
-0.540979
-0.532018
-0.523195
-0.514505
-0.505941
-0.497499
-0.489171
-0.480949
-0.472822
-0.464777
-0.456798
-0.448867
-0.440967
-0.433078
-0.425183
-0.417268
-0.409323
-0.401365
-0.39351
-0.38581
-0.377381
-0.367704
-0.368179
-0.629145
-0.614766
-0.603367
-0.593025
-0.582824
-0.572838
-0.563069
-0.553485
-0.544067
-0.534808
-0.525703
-0.516744
-0.507926
-0.49924
-0.490676
-0.482219
-0.473853
-0.465558
-0.457308
-0.449075
-0.440828
-0.432532
-0.42415
-0.415645
-0.407004
-0.398315
-0.389602
-0.379888
-0.368582
-0.368126
-0.646216
-0.631012
-0.618964
-0.608042
-0.597279
-0.586756
-0.576477
-0.566406
-0.556525
-0.546828
-0.537306
-0.527954
-0.518765
-0.50973
-0.500836
-0.492067
-0.483405
-0.474824
-0.466294
-0.457776
-0.449225
-0.440586
-0.431796
-0.422775
-0.413459
-0.403882
-0.394007
-0.382696
-0.369153
-0.366997
-0.663887
-0.64775
-0.63501
-0.623492
-0.612156
-0.601088
-0.590291
-0.579728
-0.569382
-0.559243
-0.549306
-0.539564
-0.530011
-0.520636
-0.511428
-0.50237
-0.493442
-0.484617
-0.47586
-0.467128
-0.458362
-0.449489
-0.440413
-0.431005
-0.421124
-0.410717
-0.399644
-0.38644
-0.369598
-0.363917
-0.68221
-0.664945
-0.651461
-0.639338
-0.627428
-0.615812
-0.604494
-0.593437
-0.582622
-0.572042
-0.561691
-0.551563
-0.541652
-0.531948
-0.522443
-0.51312
-0.503961
-0.494941
-0.486028
-0.477176
-0.468322
-0.459381
-0.450227
-0.440667
-0.430445
-0.419331
-0.406887
-0.390727
-0.367284
-0.35296
-0.700718
-0.682407
-0.668247
-0.655547
-0.643073
-0.63091
-0.619069
-0.607515
-0.596229
-0.585206
-0.574441
-0.56393
-0.553666
-0.543644
-0.533856
-0.524291
-0.514936
-0.505774
-0.496781
-0.487927
-0.479165
-0.470429
-0.461608
-0.452514
-0.442851
-0.432226
-0.419712
-0.401595
-0.371516
-0.345602
-1.17524
-1.17234
-1.16753
-1.16126
-1.15356
-1.14448
-1.13408
-1.12246
-1.10968
-1.09584
-1.08102
-1.0653
-1.04878
-1.03153
-1.01364
-0.995186
-0.976257
-0.956928
-0.937272
-0.917361
-0.897265
-0.877049
-0.856774
-0.8365
-0.816278
-0.79616
-0.776185
-0.756365
-0.736685
-0.717576
-1.14074
-1.13788
-1.13327
-1.12716
-1.11963
-1.11075
-1.1006
-1.08927
-1.07684
-1.06338
-1.049
-1.03376
-1.01776
-1.00107
-0.983776
-0.965957
-0.947689
-0.929049
-0.910107
-0.890933
-0.871595
-0.852155
-0.832674
-0.81321
-0.793816
-0.774546
-0.755451
-0.736576
-0.717975
-0.699829
-1.11233
-1.1095
-1.10504
-1.09911
-1.09177
-1.08312
-1.07324
-1.06221
-1.0501
-1.03702
-1.02303
-1.00822
-0.992674
-0.976469
-0.959686
-0.942401
-0.924691
-0.906627
-0.888281
-0.86972
-0.851009
-0.832211
-0.813384
-0.794586
-0.77587
-0.757288
-0.738891
-0.720732
-0.702869
-0.685378
-1.08558
-1.08287
-1.0786
-1.07289
-1.06581
-1.05744
-1.04787
-1.03717
-1.02543
-1.01273
-0.999151
-0.984775
-0.969683
-0.953953
-0.937663
-0.92089
-0.903708
-0.886188
-0.868399
-0.850409
-0.83228
-0.814075
-0.79585
-0.777662
-0.759563
-0.741603
-0.723833
-0.706299
-0.689054
-0.672144
-1.05846
-1.05597
-1.05195
-1.04654
-1.03978
-1.03176
-1.02255
-1.01224
-1.00091
-0.988641
-0.975509
-0.961597
-0.946984
-0.931749
-0.91597
-0.89972
-0.883073
-0.8661
-0.848869
-0.831446
-0.813893
-0.796271
-0.778636
-0.761044
-0.743545
-0.72619
-0.709023
-0.692091
-0.675438
-0.659101
-1.03124
-1.02905
-1.02537
-1.02032
-1.01395
-1.00633
-0.997547
-0.987677
-0.976799
-0.964994
-0.952341
-0.93892
-0.92481
-0.910088
-0.894829
-0.87911
-0.863001
-0.846574
-0.829894
-0.813029
-0.796039
-0.778983
-0.76192
-0.744901
-0.727978
-0.711199
-0.694609
-0.678249
-0.662161
-0.646379
-1.00403
-1.00222
-0.998947
-0.994317
-0.988387
-0.981229
-0.972918
-0.963531
-0.953147
-0.941844
-0.929702
-0.916798
-0.903211
-0.889017
-0.874291
-0.859109
-0.84354
-0.827655
-0.811521
-0.795202
-0.77876
-0.762254
-0.74574
-0.729271
-0.712898
-0.696667
-0.680622
-0.664805
-0.649253
-0.634001
-0.976842
-0.975465
-0.972659
-0.968508
-0.963072
-0.95642
-0.948625
-0.939763
-0.929909
-0.919143
-0.90754
-0.895178
-0.882135
-0.868486
-0.854305
-0.839667
-0.824642
-0.809299
-0.793705
-0.777924
-0.762017
-0.746044
-0.73006
-0.714119
-0.698269
-0.682559
-0.667032
-0.651728
-0.636685
-0.621936
-0.949725
-0.948835
-0.946537
-0.942908
-0.938008
-0.931901
-0.92466
-0.916358
-0.907068
-0.896867
-0.88583
-0.874034
-0.861555
-0.848466
-0.834843
-0.820758
-0.806281
-0.79148
-0.776423
-0.761173
-0.745791
-0.730336
-0.714864
-0.699428
-0.684079
-0.668864
-0.653826
-0.639007
-0.624443
-0.61017
-0.922752
-0.922383
-0.920625
-0.917552
-0.913219
-0.90769
-0.901032
-0.893318
-0.884619
-0.875009
-0.864562
-0.853352
-0.841455
-0.828943
-0.815889
-0.802365
-0.788441
-0.774185
-0.759663
-0.744937
-0.730071
-0.715121
-0.700145
-0.685195
-0.670323
-0.655577
-0.641001
-0.626638
-0.612524
-0.598697
-0.895997
-0.896169
-0.894973
-0.892478
-0.888735
-0.883805
-0.877755
-0.870651
-0.862565
-0.853566
-0.843728
-0.833122
-0.821822
-0.8099
-0.797427
-0.784474
-0.771109
-0.7574
-0.743412
-0.729208
-0.714848
-0.700393
-0.685897
-0.671415
-0.656999
-0.642697
-0.628556
-0.614619
-0.600925
-0.587514
-0.869533
-0.870256
-0.869634
-0.867728
-0.864588
-0.860273
-0.854844
-0.848367
-0.840908
-0.832536
-0.823321
-0.813334
-0.802645
-0.791325
-0.779443
-0.767069
-0.75427
-0.741112
-0.727659
-0.713973
-0.700116
-0.686145
-0.672117
-0.658086
-0.644104
-0.630222
-0.616489
-0.602949
-0.589644
-0.576617
-0.843432
-0.844706
-0.844658
-0.843345
-0.840814
-0.837118
-0.832319
-0.826476
-0.819655
-0.81192
-0.80334
-0.793982
-0.783915
-0.773207
-0.761926
-0.750138
-0.737911
-0.725309
-0.712393
-0.699226
-0.685867
-0.672374
-0.658802
-0.645206
-0.63164
-0.618155
-0.604801
-0.591628
-0.578679
-0.566002
-0.81776
-0.819575
-0.820095
-0.81937
-0.817444
-0.814368
-0.810198
-0.804993
-0.798813
-0.791721
-0.783782
-0.77506
-0.765622
-0.755534
-0.744861
-0.733669
-0.72202
-0.709978
-0.697604
-0.684957
-0.672095
-0.659074
-0.64595
-0.632777
-0.619608
-0.606497
-0.593495
-0.580656
-0.568029
-0.555666
-0.792576
-0.794917
-0.79599
-0.795841
-0.79451
-0.792046
-0.788501
-0.783929
-0.77839
-0.771941
-0.764644
-0.756563
-0.747759
-0.738297
-0.728239
-0.717647
-0.706584
-0.695109
-0.683281
-0.671157
-0.658793
-0.646243
-0.633561
-0.620799
-0.608012
-0.595252
-0.582575
-0.570037
-0.557694
-0.545605
-0.767933
-0.770778
-0.772384
-0.772792
-0.772042
-0.770177
-0.767245
-0.763299
-0.758393
-0.752583
-0.745927
-0.738485
-0.730318
-0.721484
-0.712046
-0.702062
-0.691591
-0.680689
-0.669414
-0.657819
-0.645956
-0.633878
-0.621635
-0.609277
-0.596858
-0.584429
-0.572048
-0.559775
-0.547673
-0.535812
-0.743875
-0.747197
-0.749312
-0.750256
-0.750065
-0.74878
-0.746446
-0.743112
-0.738829
-0.733649
-0.727629
-0.720823
-0.71329
-0.705087
-0.696271
-0.686899
-0.677026
-0.666706
-0.655991
-0.644932
-0.633578
-0.621976
-0.610173
-0.598216
-0.586154
-0.574038
-0.561925
-0.549879
-0.537971
-0.526284
-0.720439
-0.724209
-0.726804
-0.728257
-0.728602
-0.727875
-0.726119
-0.72338
-0.719704
-0.715143
-0.709748
-0.703571
-0.696669
-0.689094
-0.680902
-0.672145
-0.662876
-0.653145
-0.643
-0.632488
-0.621653
-0.610536
-0.599179
-0.587624
-0.575913
-0.564093
-0.55222
-0.540361
-0.528593
-0.517015
-0.697654
-0.701839
-0.704884
-0.706818
-0.70767
-0.707476
-0.706275
-0.704109
-0.701023
-0.697064
-0.692281
-0.686724
-0.680445
-0.673495
-0.665925
-0.657786
-0.649126
-0.639992
-0.630428
-0.620475
-0.610172
-0.599555
-0.588656
-0.57751
-0.56615
-0.554617
-0.542958
-0.531241
-0.51955
-0.508002
-0.675541
-0.680109
-0.683572
-0.685954
-0.687285
-0.687596
-0.686923
-0.685308
-0.68279
-0.679414
-0.675227
-0.670277
-0.664611
-0.658279
-0.651329
-0.643807
-0.635761
-0.627232
-0.61826
-0.608881
-0.599128
-0.589029
-0.578607
-0.567886
-0.556886
-0.545636
-0.53417
-0.522549
-0.510861
-0.499243
-0.654115
-0.659033
-0.662879
-0.665679
-0.667457
-0.668243
-0.668071
-0.666979
-0.665005
-0.662191
-0.658582
-0.654222
-0.649157
-0.643433
-0.637097
-0.630193
-0.622763
-0.614846
-0.606479
-0.597691
-0.588509
-0.578952
-0.569034
-0.558763
-0.548145
-0.537185
-0.525899
-0.514328
-0.502559
-0.490739
-0.633386
-0.638619
-0.642817
-0.646
-0.648193
-0.649424
-0.649723
-0.649126
-0.64767
-0.645394
-0.642341
-0.638552
-0.634073
-0.628947
-0.623217
-0.616926
-0.610114
-0.602816
-0.595065
-0.586887
-0.578301
-0.569317
-0.559938
-0.550155
-0.539952
-0.529306
-0.518201
-0.506641
-0.494695
-0.482501
-0.613356
-0.618872
-0.623388
-0.626923
-0.629499
-0.631141
-0.631881
-0.63175
-0.630784
-0.629021
-0.626499
-0.623262
-0.61935
-0.614806
-0.609672
-0.603989
-0.597793
-0.59112
-0.583997
-0.576447
-0.568484
-0.56011
-0.551313
-0.54207
-0.532335
-0.522052
-0.51115
-0.499576
-0.487351
-0.474557
-0.594025
-0.599793
-0.604594
-0.608448
-0.611374
-0.613398
-0.614546
-0.614851
-0.614346
-0.613068
-0.611053
-0.608343
-0.604979
-0.601001
-0.59645
-0.591365
-0.585783
-0.579737
-0.573253
-0.56635
-0.559038
-0.551313
-0.543154
-0.534515
-0.525326
-0.515482
-0.504845
-0.493261
-0.48066
-0.466964
-0.575387
-0.581375
-0.586432
-0.590573
-0.593818
-0.596191
-0.597717
-0.598427
-0.598353
-0.59753
-0.595996
-0.593789
-0.590949
-0.587517
-0.583533
-0.579036
-0.574062
-0.568642
-0.562805
-0.556567
-0.549936
-0.542904
-0.535442
-0.527491
-0.51895
-0.509665
-0.499407
-0.487877
-0.474844
-0.459867
-0.557433
-0.563612
-0.568892
-0.573289
-0.57682
-0.579508
-0.581378
-0.582461
-0.582786
-0.582387
-0.581303
-0.57957
-0.577228
-0.574318
-0.57088
-0.566953
-0.562574
-0.557777
-0.552587
-0.547026
-0.541101
-0.534805
-0.528104
-0.520933
-0.513169
-0.504611
-0.494924
-0.48361
-0.470209
-0.453577
-0.540154
-0.546495
-0.551968
-0.556588
-0.560373
-0.563343
-0.565524
-0.566944
-0.567633
-0.567625
-0.566955
-0.565663
-0.563787
-0.561368
-0.558447
-0.555065
-0.551259
-0.547066
-0.542515
-0.537629
-0.532422
-0.526889
-0.521004
-0.514703
-0.507858
-0.500237
-0.4914
-0.480603
-0.467103
-0.448485
-0.523542
-0.530039
-0.535698
-0.540533
-0.544561
-0.547803
-0.550282
-0.552027
-0.553066
-0.553434
-0.553166
-0.552301
-0.550877
-0.548938
-0.546525
-0.543679
-0.540442
-0.536851
-0.532942
-0.528743
-0.524272
-0.519538
-0.514527
-0.509191
-0.503421
-0.496995
-0.489412
-0.479672
-0.466587
-0.444979
-0.507564
-0.514235
-0.520098
-0.525167
-0.529458
-0.532993
-0.535795
-0.537891
-0.539312
-0.540091
-0.540264
-0.539871
-0.538953
-0.537552
-0.535712
-0.533478
-0.530892
-0.527998
-0.524833
-0.521433
-0.517827
-0.514034
-0.51006
-0.505892
-0.501473
-0.496667
-0.491065
-0.48359
-0.472513
-0.446473
-0.492131
-0.498757
-0.504609
-0.509699
-0.514046
-0.517669
-0.520593
-0.522845
-0.524457
-0.525462
-0.525898
-0.525807
-0.525231
-0.524217
-0.522812
-0.521065
-0.519027
-0.516746
-0.514271
-0.511648
-0.508923
-0.506137
-0.503328
-0.500533
-0.49779
-0.495156
-0.492539
-0.489337
-0.485581
-0.466031
-0.398471
-0.44626
-0.492759
-0.538578
-0.583534
-0.627459
-0.670236
-0.711759
-0.751923
-0.79063
-0.827793
-0.863328
-0.897159
-0.92922
-0.959447
-0.987789
-1.0142
-1.03864
-1.06107
-1.08148
-1.09986
-1.11619
-1.13047
-1.14271
-1.15293
-1.16115
-1.1674
-1.17168
-1.17402
-1.17476
-0.390577
-0.437207
-0.482761
-0.527481
-0.57125
-0.613953
-0.655495
-0.695782
-0.73472
-0.772219
-0.808194
-0.842568
-0.875269
-0.906232
-0.9354
-0.962722
-0.988155
-1.01166
-1.03322
-1.0528
-1.0704
-1.08601
-1.09964
-1.11129
-1.12098
-1.12875
-1.13462
-1.13863
-1.14082
-1.14138
-0.379637
-0.42526
-0.469959
-0.513799
-0.556677
-0.598492
-0.639154
-0.678573
-0.71666
-0.753328
-0.788497
-0.822091
-0.854041
-0.884284
-0.912764
-0.939432
-0.964248
-0.987176
-1.00819
-1.02727
-1.04442
-1.05961
-1.07286
-1.08419
-1.0936
-1.10113
-1.10682
-1.1107
-1.11282
-1.11328
-0.365311
-0.410021
-0.4539
-0.496945
-0.539049
-0.580114
-0.62005
-0.658767
-0.696178
-0.732199
-0.76675
-0.799758
-0.831155
-0.860879
-0.888874
-0.915094
-0.939497
-0.962049
-0.982725
-1.00151
-1.01838
-1.03335
-1.04642
-1.05759
-1.06689
-1.07435
-1.08
-1.08387
-1.08602
-1.08651
-0.348038
-0.391848
-0.434902
-0.477159
-0.518511
-0.558858
-0.59811
-0.636177
-0.672973
-0.708416
-0.742427
-0.774934
-0.805868
-0.835169
-0.862783
-0.88866
-0.91276
-0.935051
-0.955504
-0.974103
-0.990835
-1.0057
-1.01869
-1.02983
-1.03914
-1.04664
-1.05235
-1.05633
-1.0586
-1.05924
-0.328555
-0.371473
-0.413699
-0.455171
-0.495779
-0.535426
-0.57402
-0.611473
-0.647698
-0.682613
-0.716142
-0.748211
-0.778753
-0.807707
-0.835019
-0.86064
-0.884528
-0.90665
-0.926978
-0.945492
-0.962181
-0.977039
-0.990069
-1.00128
-1.01069
-1.01833
-1.02421
-1.02839
-1.03089
-1.03177
-0.307552
-0.349575
-0.390962
-0.431641
-0.471505
-0.510456
-0.548403
-0.585257
-0.620933
-0.65535
-0.688431
-0.720103
-0.750299
-0.778958
-0.806024
-0.831448
-0.855189
-0.877211
-0.897485
-0.91599
-0.932713
-0.947647
-0.960792
-0.972157
-0.981756
-0.98961
-0.995749
-1.00021
-1.00301
-1.00422
-0.285643
-0.326755
-0.367287
-0.407158
-0.446264
-0.48451
-0.521804
-0.558059
-0.593191
-0.627119
-0.659765
-0.691058
-0.72093
-0.74932
-0.776171
-0.801434
-0.825066
-0.84703
-0.867296
-0.885842
-0.902651
-0.917715
-0.931033
-0.942609
-0.952456
-0.960594
-0.967047
-0.971847
-0.975022
-0.976629
-0.26335
-0.303535
-0.343191
-0.382234
-0.420565
-0.458089
-0.494717
-0.530363
-0.564942
-0.598376
-0.630586
-0.661501
-0.691054
-0.719182
-0.74583
-0.770947
-0.794488
-0.816415
-0.836698
-0.855311
-0.872237
-0.887464
-0.90099
-0.912816
-0.922953
-0.931416
-0.938228
-0.943417
-0.947011
-0.94906
-0.241103
-0.280344
-0.319105
-0.357301
-0.394837
-0.431621
-0.467566
-0.502586
-0.536598
-0.569524
-0.601286
-0.631814
-0.66104
-0.688902
-0.715343
-0.740313
-0.763764
-0.78566
-0.805965
-0.824656
-0.84171
-0.857117
-0.870868
-0.882964
-0.893413
-0.902226
-0.909425
-0.915033
-0.919076
-0.9216
-0.21924
-0.257523
-0.295374
-0.332707
-0.36943
-0.405457
-0.4407
-0.475075
-0.508503
-0.540903
-0.5722
-0.602325
-0.631208
-0.65879
-0.685011
-0.709821
-0.733173
-0.755027
-0.77535
-0.794113
-0.811294
-0.826879
-0.840859
-0.85323
-0.863998
-0.873172
-0.880768
-0.88681
-0.89132
-0.894337
-0.198015
-0.235333
-0.272263
-0.30872
-0.344618
-0.379871
-0.414395
-0.44811
-0.480934
-0.51279
-0.543603
-0.573304
-0.601825
-0.629105
-0.655087
-0.679718
-0.702952
-0.724748
-0.745071
-0.763892
-0.781186
-0.796938
-0.811136
-0.823776
-0.834857
-0.844388
-0.852383
-0.85886
-0.86384
-0.867357
-0.177615
-0.213964
-0.249967
-0.285541
-0.320603
-0.355072
-0.388866
-0.421904
-0.454108
-0.485402
-0.515712
-0.544969
-0.573106
-0.600063
-0.625781
-0.65021
-0.673302
-0.695016
-0.715316
-0.734172
-0.751558
-0.767457
-0.781855
-0.794744
-0.806125
-0.816
-0.824382
-0.831285
-0.836728
-0.840741
-0.158162
-0.193546
-0.228622
-0.26331
-0.297533
-0.331211
-0.364265
-0.396616
-0.428188
-0.458905
-0.488694
-0.517487
-0.545219
-0.571828
-0.597259
-0.62146
-0.644384
-0.665989
-0.686238
-0.705102
-0.722554
-0.738573
-0.753145
-0.766261
-0.777918
-0.788117
-0.796866
-0.804178
-0.810069
-0.814564
-0.139735
-0.17416
-0.208313
-0.242118
-0.275502
-0.308388
-0.340699
-0.372358
-0.403288
-0.433416
-0.462669
-0.490982
-0.518288
-0.544529
-0.569648
-0.593595
-0.616323
-0.637791
-0.657961
-0.676803
-0.69429
-0.7104
-0.725117
-0.738431
-0.750335
-0.76083
-0.769921
-0.777619
-0.783935
-0.788893
-0.122371
-0.155848
-0.189087
-0.222017
-0.254567
-0.286665
-0.318234
-0.349198
-0.379482
-0.409012
-0.43772
-0.465537
-0.492401
-0.518253
-0.543039
-0.566708
-0.589214
-0.610516
-0.630578
-0.649367
-0.666858
-0.683027
-0.697857
-0.711337
-0.723458
-0.734219
-0.743622
-0.751676
-0.758391
-0.763785
-0.106078
-0.138621
-0.170958
-0.203023
-0.234751
-0.266068
-0.296901
-0.327173
-0.35681
-0.38574
-0.413894
-0.441206
-0.467614
-0.49306
-0.517493
-0.540861
-0.56312
-0.584231
-0.604156
-0.622863
-0.640326
-0.656523
-0.671433
-0.685046
-0.697351
-0.708344
-0.718027
-0.726406
-0.733489
-0.73929
-0.0908434
-0.122466
-0.153916
-0.185132
-0.216051
-0.246601
-0.276707
-0.306295
-0.335289
-0.363618
-0.391214
-0.418013
-0.443955
-0.468983
-0.493045
-0.516093
-0.538084
-0.558978
-0.57874
-0.597337
-0.614743
-0.630935
-0.645894
-0.659606
-0.672061
-0.683254
-0.693183
-0.701853
-0.70927
-0.715447
-0.0766367
-0.107354
-0.137932
-0.168317
-0.198445
-0.228245
-0.257639
-0.286553
-0.314911
-0.342644
-0.369682
-0.395965
-0.421432
-0.446031
-0.469709
-0.492422
-0.514125
-0.534782
-0.554356
-0.572817
-0.590138
-0.606296
-0.621272
-0.635052
-0.647624
-0.658982
-0.669123
-0.67805
-0.685768
-0.692287
-0.0634167
-0.0932398
-0.122965
-0.15254
-0.181899
-0.210968
-0.239668
-0.267923
-0.295656
-0.322797
-0.349282
-0.375047
-0.400037
-0.424199
-0.447483
-0.469846
-0.491247
-0.511646
-0.531012
-0.549314
-0.566525
-0.582622
-0.597587
-0.611403
-0.62406
-0.635551
-0.645871
-0.655021
-0.663005
-0.669832
-0.0511339
-0.0800717
-0.108963
-0.137751
-0.166365
-0.194728
-0.222755
-0.250367
-0.277488
-0.304049
-0.329984
-0.355235
-0.379746
-0.403467
-0.426351
-0.448354
-0.469438
-0.489566
-0.508706
-0.526827
-0.543905
-0.559917
-0.574843
-0.588669
-0.601381
-0.612973
-0.623439
-0.63278
-0.640997
-0.648098
-0.039733
-0.067788
-0.0958663
-0.123894
-0.151793
-0.179476
-0.206853
-0.233842
-0.260367
-0.286358
-0.311753
-0.336493
-0.360527
-0.383806
-0.406284
-0.427921
-0.448679
-0.468523
-0.487421
-0.505346
-0.522271
-0.538175
-0.553039
-0.566847
-0.579588
-0.591252
-0.601834
-0.611334
-0.619751
-0.627092
-0.029153
-0.0563189
-0.0836084
-0.110907
-0.138123
-0.165157
-0.191911
-0.218299
-0.244244
-0.26968
-0.294543
-0.31878
-0.342341
-0.365178
-0.387249
-0.408515
-0.42894
-0.44849
-0.467135
-0.484848
-0.501604
-0.517382
-0.532162
-0.54593
-0.558673
-0.570383
-0.581053
-0.590681
-0.599269
-0.606819
-0.0193247
-0.0455818
-0.0721134
-0.098721
-0.125291
-0.15171
-0.17787
-0.20368
-0.229066
-0.25396
-0.278304
-0.302046
-0.325139
-0.347538
-0.369203
-0.390097
-0.410185
-0.429435
-0.447818
-0.465307
-0.48188
-0.497515
-0.512194
-0.525901
-0.538625
-0.550355
-0.561087
-0.570817
-0.579545
-0.587274
-0.0101627
-0.0354869
-0.0613077
-0.0872713
-0.113241
-0.139084
-0.16468
-0.189938
-0.214782
-0.239151
-0.262989
-0.286247
-0.308879
-0.330846
-0.352107
-0.372629
-0.392377
-0.411322
-0.429436
-0.446694
-0.463072
-0.478551
-0.493112
-0.50674
-0.519424
-0.531154
-0.541924
-0.55173
-0.560572
-0.568452
-0.00155703
-0.0259739
-0.0511715
-0.0765505
-0.10197
-0.127278
-0.152341
-0.177068
-0.20139
-0.225248
-0.248591
-0.271372
-0.293551
-0.315089
-0.335949
-0.356098
-0.375505
-0.394141
-0.41198
-0.428996
-0.445169
-0.460478
-0.474906
-0.488438
-0.501063
-0.51277
-0.523555
-0.533412
-0.54234
-0.550343
0.00664758
-0.0169393
-0.0416577
-0.0665236
-0.0914447
-0.116255
-0.140811
-0.165027
-0.188841
-0.212199
-0.235056
-0.25737
-0.279102
-0.300215
-0.320677
-0.340455
-0.359521
-0.377846
-0.395404
-0.412174
-0.428132
-0.443261
-0.457544
-0.470965
-0.483514
-0.495181
-0.50596
-0.515845
-0.524837
-0.532937
0.0149029
-0.00762428
-0.0320365
-0.0565071
-0.0810135
-0.105386
-0.12948
-0.153224
-0.176564
-0.199457
-0.22186
-0.243737
-0.265053
-0.285772
-0.305865
-0.3253
-0.34405
-0.362087
-0.379389
-0.395932
-0.411696
-0.426662
-0.440813
-0.454136
-0.46662
-0.478254
-0.489031
-0.498949
-0.508004
-0.516199
0.0244744
0.00332745
-0.0211357
-0.0454967
-0.0698035
-0.0938873
-0.117635
-0.141007
-0.163966
-0.186478
-0.208508
-0.230023
-0.250992
-0.271383
-0.291166
-0.310314
-0.3288
-0.346599
-0.363688
-0.380046
-0.395652
-0.410488
-0.42454
-0.437794
-0.450238
-0.461863
-0.472662
-0.482632
-0.49177
-0.500079
0.0342091
0.010863
-0.0146859
-0.0391664
-0.0634076
-0.0872597
-0.110653
-0.133613
-0.156131
-0.178179
-0.199734
-0.220768
-0.241253
-0.261163
-0.280472
-0.299156
-0.31719
-0.334553
-0.351223
-0.367183
-0.382413
-0.396899
-0.410626
-0.423583
-0.435758
-0.447145
-0.457737
-0.467531
-0.476526
-0.484725
0.546253
0.553269
0.560449
0.567759
0.575198
0.582761
0.59044
0.598224
0.6061
0.614052
0.622062
0.630108
0.638167
0.646214
0.654222
0.662162
0.670009
0.67774
0.685339
0.692805
0.700152
0.707425
0.714705
0.722123
0.729885
0.738287
0.747641
0.758219
0.771829
0.791582
0.539079
0.545834
0.552854
0.559985
0.567223
0.574574
0.582031
0.58958
0.597207
0.604896
0.612625
0.620375
0.628118
0.635829
0.643478
0.651037
0.658476
0.665774
0.672913
0.679891
0.686724
0.693458
0.700178
0.707024
0.714207
0.722041
0.730857
0.740955
0.7542
0.773838
0.531052
0.537496
0.544332
0.551258
0.558264
0.565372
0.572574
0.579854
0.587196
0.594583
0.601995
0.609406
0.61679
0.62412
0.631365
0.638493
0.645476
0.652289
0.658916
0.665353
0.671619
0.677762
0.683872
0.690095
0.696657
0.703884
0.712132
0.721736
0.734629
0.754165
0.52218
0.528264
0.534891
0.541585
0.548332
0.555165
0.562079
0.569056
0.576078
0.583127
0.590181
0.597213
0.604197
0.611102
0.617896
0.624547
0.631025
0.637304
0.643368
0.649213
0.654861
0.660361
0.665811
0.671365
0.67726
0.683841
0.691485
0.700557
0.713032
0.732308
0.512471
0.518149
0.524542
0.53098
0.537436
0.543964
0.550558
0.557198
0.563866
0.57054
0.577198
0.583812
0.590353
0.596789
0.603088
0.609215
0.61514
0.620836
0.626286
0.63149
0.636468
0.641277
0.646019
0.650857
0.656041
0.661934
0.668933
0.677435
0.689437
0.708348
0.501936
0.507162
0.513298
0.519454
0.525592
0.531783
0.538026
0.544297
0.550575
0.556839
0.563063
0.569219
0.575276
0.581202
0.586961
0.592519
0.597843
0.602908
0.607696
0.612208
0.616468
0.620537
0.624523
0.6286
0.63303
0.638192
0.644509
0.652402
0.663883
0.682354
0.490589
0.495318
0.501175
0.507023
0.512814
0.51864
0.5245
0.530369
0.536224
0.542041
0.547795
0.553455
0.558989
0.564362
0.569538
0.574482
0.57916
0.583547
0.587625
0.591398
0.594892
0.598174
0.601358
0.60463
0.608264
0.612656
0.618251
0.625497
0.636415
0.654383
0.478443
0.482632
0.488188
0.493704
0.49912
0.504551
0.509999
0.515435
0.520833
0.52617
0.531417
0.536543
0.541515
0.546295
0.550846
0.555133
0.559121
0.562784
0.566107
0.569094
0.571777
0.574225
0.576564
0.578988
0.581786
0.58537
0.590206
0.596769
0.607082
0.624489
0.465513
0.469122
0.474355
0.479516
0.484529
0.489537
0.494543
0.499515
0.504425
0.509248
0.513954
0.51851
0.522881
0.527029
0.530915
0.534503
0.537758
0.540654
0.543178
0.545335
0.547162
0.548735
0.550186
0.551722
0.553644
0.556384
0.560426
0.566273
0.575942
0.592733
0.451816
0.454806
0.459696
0.464478
0.469063
0.473619
0.478155
0.482633
0.487024
0.491301
0.495432
0.499384
0.503118
0.506596
0.509779
0.512628
0.515109
0.517196
0.518878
0.520164
0.521093
0.521749
0.522273
0.522882
0.523894
0.525755
0.52897
0.534068
0.543057
0.559181
0.437367
0.439703
0.444232