/*--------------------------------*- C++ -*----------------------------------*\
| =========                 |                                                 |
| \\      /  F ield         | OpenFOAM: The Open Source CFD Toolbox           |
|  \\    /   O peration     | Version:  v1912                                 |
|   \\  /    A nd           | Website:  www.openfoam.com                      |
|    \\/     M anipulation  |                                                 |
\*---------------------------------------------------------------------------*/
FoamFile
{
    version     2.0;
    format      ascii;
    class       volVectorField;
    location    "55.5";
    object      U;
}
// * * * * * * * * * * * * * * * * * * * * * * * * * * * * * * * * * * * * * //

dimensions      [0 1 -1 0 0 0 0];


internalField   nonuniform List<vector> 
9600
(
(0.456547 -9.36169 -1.54166e-19)
(0.159764 -8.63247 0)
(0.242017 -8.15967 -9.0533e-20)
(0.320833 -7.84059 0)
(0.388209 -7.60554 0)
(0.456671 -7.41096 -3.18567e-20)
(0.522237 -7.23279 -5.50459e-22)
(0.581766 -7.05881 2.66315e-20)
(0.634485 -6.88365 0)
(0.680425 -6.70589 -4.51571e-20)
(0.719977 -6.52616 0)
(0.753765 -6.34598 -1.83074e-21)
(0.782528 -6.16718 -2.60762e-21)
(0.807024 -5.99145 -3.15572e-20)
(0.827977 -5.82017 2.66158e-20)
(0.84604 -5.65432 -2.61492e-20)
(0.861767 -5.49438 2.32832e-20)
(0.875704 -5.34027 0)
(0.888631 -5.19123 -1.8522e-20)
(0.900279 -5.04572 2.03031e-20)
(0.824483 -9.35131 -3.08433e-19)
(0.502229 -8.66059 1.17575e-20)
(0.567685 -8.20401 1.86486e-19)
(0.635002 -7.89445 -1.58959e-19)
(0.693374 -7.664 1.56765e-19)
(0.753801 -7.46991 0)
(0.811496 -7.28944 6.07633e-20)
(0.862983 -7.11145 -6.06247e-20)
(0.907413 -6.9314 -1.05159e-19)
(0.944874 -6.74844 1.33014e-19)
(0.97587 -6.56359 -8.63617e-20)
(1.00115 -6.37866 -3.52611e-20)
(1.02156 -6.19559 7.11733e-20)
(1.03795 -6.01616 0)
(1.05111 -5.84176 0)
(1.06173 -5.67338 9.97767e-20)
(1.07036 -5.51144 -1.69169e-19)
(1.07758 -5.35583 0)
(1.08425 -5.20564 0)
(1.08983 -5.05927 -7.81996e-20)
(1.19276 -9.32739 6.37265e-19)
(0.846967 -8.67585 0)
(0.89691 -8.23568 -3.7735e-19)
(0.953468 -7.93573 -3.42038e-19)
(1.00314 -7.70985 0)
(1.05551 -7.51622 5.46647e-19)
(1.1051 -7.33345 -5.16088e-19)
(1.1482 -7.15156 1.0117e-19)
(1.18393 -6.96682 -2.25223e-19)
(1.2125 -6.77894 -3.74576e-19)
(1.23454 -6.58933 5.11352e-19)
(1.25095 -6.40002 -3.1617e-19)
(1.2627 -6.21311 -1.41704e-19)
(1.27073 -6.0304 0)
(1.27588 -5.85332 5.52913e-21)
(1.27888 -5.68281 1.05171e-19)
(1.28031 -5.51929 4.54662e-20)
(1.28073 -5.36256 0)
(1.28107 -5.21162 8.24215e-20)
(1.28048 -5.06479 8.44734e-20)
(1.56028 -9.28956 -8.62143e-19)
(1.19338 -8.67797 -4.04027e-19)
(1.22914 -8.25447 3.91879e-19)
(1.27567 -7.96412 6.73505e-19)
(1.31692 -7.74275 -3.26892e-19)
(1.36119 -7.54951 5.8055e-21)
(1.40244 -7.36449 2.53856e-19)
(1.43679 -7.17884 2.29941e-19)
(1.46342 -6.98963 4.2115e-19)
(1.48269 -6.79715 0)
(1.49541 -6.60317 1.6226e-19)
(1.50263 -6.40992 -1.72196e-19)
(1.50543 -6.21961 1.03536e-20)
(1.50486 -6.03408 2.7146e-19)
(1.50182 -5.85475 2.32737e-19)
(1.49708 -5.68255 -3.28548e-19)
(1.49119 -5.51785 1.082e-19)
(1.48476 -5.36041 -1.76192e-19)
(1.47877 -5.20912 1.7536e-19)
(1.47194 -5.06225 -8.45173e-20)
(1.92672 -9.23777 4.34803e-19)
(1.5412 -8.66679 0)
(1.56396 -8.26009 3.8486e-19)
(1.6011 -7.97929 0)
(1.63417 -7.76232 0)
(1.67026 -7.56944 -3.00461e-19)
(1.7029 -7.38223 -5.37598e-19)
(1.72813 -7.19299 -4.55839e-19)
(1.74527 -6.9996 1.84509e-20)
(1.75486 -6.80289 -1.9699e-19)
(1.7579 -6.60495 0)
(1.75561 -6.40822 -1.62672e-19)
(1.74922 -6.21498 -2.93047e-19)
(1.73985 -6.0271 2.57718e-19)
(1.72847 -5.84599 -7.32427e-19)
(1.71586 -5.67253 1.18532e-19)
(1.7026 -5.50708 9.3957e-20)
(1.68929 -5.34933 -1.93742e-19)
(1.67697 -5.19806 -8.46561e-20)
(1.66386 -5.05161 2.52442e-19)
(2.29156 -9.17193 4.19578e-19)
(1.8899 -8.64209 4.1613e-19)
(1.90086 -8.25227 0)
(1.92919 -7.9809 0)
(1.95427 -7.76823 -6.24616e-19)
(1.98209 -7.57569 3.41367e-19)
(2.00583 -7.38638 8.21588e-19)
(2.02158 -7.19376 0)
(2.02885 -6.99652 2.17131e-19)
(2.02838 -6.79597 1.96991e-19)
(2.02142 -6.59453 -3.48041e-19)
(2.00935 -6.39481 5.04718e-19)
(1.99354 -6.19915 1.48111e-19)
(1.97519 -6.00942 0)
(1.95534 -5.82699 1.23303e-19)
(1.93479 -5.65272 5.53516e-19)
(1.9141 -5.48694 -3.29824e-19)
(1.89391 -5.32929 3.70633e-19)
(1.87529 -5.17844 -7.04794e-19)
(1.85592 -5.03284 8.14769e-19)
(2.65425 -9.092 4.26731e-19)
(2.239 -8.60366 -2.25965e-18)
(2.2393 -8.23074 0)
(2.25937 -7.96867 0)
(2.27661 -7.76018 0)
(2.29601 -7.56797 -6.05941e-19)
(2.31057 -7.37668 0)
(2.31648 -7.18095 -9.71292e-19)
(2.31349 -6.9802 8.9594e-19)
(2.30262 -6.77626 -8.32137e-19)
(2.28535 -6.57182 0)
(2.26326 -6.36963 0)
(2.23783 -6.17206 0)
(2.21037 -5.98098 -2.8159e-19)
(2.18196 -5.79772 0)
(2.1534 -5.6231 0)
(2.12526 -5.45741 -4.13342e-19)
(2.09821 -5.30026 4.06122e-19)
(2.07335 -5.15023 0)
(2.04773 -5.00594 0)
(3.01425 -8.99798 -1.38825e-18)
(2.58793 -8.55134 8.99618e-19)
(2.57869 -8.19525 0)
(2.59101 -7.94232 0)
(2.60053 -7.7379 0)
(2.61136 -7.54603 5.76345e-19)
(2.61643 -7.35293 -5.78101e-19)
(2.61214 -7.15437 -8.89797e-21)
(2.59854 -6.95053 -8.97086e-19)
(2.57695 -6.74366 8.39967e-19)
(2.5491 -6.53674 -3.78952e-19)
(2.51676 -6.33262 6.58976e-19)
(2.48155 -6.13369 -4.64199e-20)
(2.44487 -5.94178 -5.96158e-19)
(2.40781 -5.75818 -5.02485e-19)
(2.37121 -5.58366 4.93676e-19)
(2.33563 -5.41851 0)
(2.30176 -5.26226 0)
(2.27073 -5.11343 3.57271e-19)
(2.23893 -4.97091 -3.93162e-19)
(3.37101 -8.88992 9.2786e-19)
(2.93613 -8.48499 8.83859e-19)
(2.91845 -8.14558 -1.67532e-18)
(2.92349 -7.9016 7.9138e-19)
(2.92536 -7.70114 0)
(2.92745 -7.50967 6.16722e-19)
(2.92273 -7.31494 -5.41436e-19)
(2.90789 -7.11389 1.53017e-18)
(2.88333 -6.90738 -2.36994e-20)
(2.85072 -6.69811 0)
(2.81204 -6.48926 7.64593e-19)
(2.76926 -6.28378 0)
(2.72415 -6.08404 0)
(2.67814 -5.89184 -2.72736e-19)
(2.6324 -5.7084 5.5007e-19)
(2.58775 -5.53445 0)
(2.54474 -5.37024 4.31493e-19)
(2.5041 -5.2153 1.79643e-19)
(2.467 -5.06805 -3.89752e-19)
(2.4291 -4.92778 3.7846e-19)
(3.72396 -8.76787 -9.55695e-19)
(3.28301 -8.4045 8.98283e-19)
(3.25794 -8.08156 -2.55838e-18)
(3.25613 -7.84631 8.04514e-19)
(3.2504 -7.64971 0)
(3.24357 -7.4587 -1.24482e-18)
(3.22874 -7.26259 5.98001e-19)
(3.20301 -7.05941 0)
(3.16718 -6.85071 -4.74815e-19)
(3.12327 -6.63957 -8.2358e-19)
(3.07355 -6.42937 -7.17685e-19)
(3.02018 -6.2231 5.34606e-20)
(2.96505 -6.02312 6.71252e-19)
(2.90967 -5.83117 2.72511e-19)
(2.85521 -5.6484 -3.79551e-20)
(2.80251 -5.47548 -5.13176e-19)
(2.7521 -5.31265 -2.29538e-19)
(2.70477 -5.15941 -2.06945e-19)
(2.6617 -5.01414 5.52066e-19)
(2.61783 -4.87658 -8.22628e-19)
(4.07256 -8.63191 9.55697e-19)
(3.62798 -8.3098 -4.66548e-20)
(3.59653 -8.00305 8.22416e-19)
(3.58826 -7.77629 0)
(3.57496 -7.58346 -6.80937e-19)
(3.559 -7.39299 1.30844e-18)
(3.53376 -7.19576 -1.11852e-18)
(3.49682 -6.99086 1.10069e-18)
(3.44942 -6.78048 -4.46034e-19)
(3.39396 -6.56804 9.05434e-19)
(3.33302 -6.35707 3.92121e-19)
(3.26893 -6.15062 0)
(3.20371 -5.95099 0)
(3.13891 -5.75984 -2.82568e-19)
(3.07574 -5.57823 3.83735e-20)
(3.015 -5.4068 1.01059e-18)
(2.95723 -5.24578 -2.50024e-19)
(2.90327 -5.09463 8.25831e-19)
(2.85435 -4.95172 1.44553e-19)
(2.80465 -4.81735 -8.40175e-19)
(4.41623 -8.48215 -2.94075e-18)
(3.97043 -8.20084 -9.87205e-19)
(3.93357 -7.90993 -2.63252e-18)
(3.91918 -7.69139 -1.60154e-18)
(3.8983 -7.50225 -7.59686e-19)
(3.873 -7.31245 -7.42496e-19)
(3.83706 -7.11441 -2.42396e-18)
(3.7886 -6.90823 -4.90844e-20)
(3.72936 -6.69669 -1.94787e-18)
(3.66215 -6.48353 3.02289e-20)
(3.58982 -6.27242 -8.08783e-19)
(3.51492 -6.06638 -7.37015e-19)
(3.43956 -5.86769 6.72813e-19)
(3.36533 -5.67789 -6.15317e-19)
(3.29345 -5.49796 -5.63746e-19)
(3.2247 -5.32849 -5.17404e-19)
(3.15963 -5.16968 -1.38931e-18)
(3.09911 -5.021 4.94267e-19)
(3.04444 -4.88082 1.19956e-18)
(2.98909 -4.75011 -1.27669e-18)
(4.75444 -8.31873 3.95554e-18)
(4.30976 -8.07765 4.85962e-18)
(4.26841 -7.80213 8.34836e-19)
(4.24821 -7.59154 4.00009e-18)
(4.21971 -7.40602 -7.84029e-19)
(4.18485 -7.21704 3.91778e-18)
(4.13792 -7.01851 1.14611e-18)
(4.07765 -6.81152 3.21758e-18)
(4.00633 -6.59938 -9.8351e-19)
(3.92718 -6.38612 2.7232e-18)
(3.84335 -6.17547 1.6291e-18)
(3.75758 -5.97047 1.48469e-18)
(3.67204 -5.77329 -2.01014e-18)
(3.58839 -5.58539 1.88307e-18)
(3.50782 -5.40766 1.13619e-18)
(3.43111 -5.2406 1.04301e-18)
(3.35876 -5.08442 9.59095e-19)
(3.29176 -4.9386 7.36804e-21)
(3.23146 -4.80152 8.14182e-19)
(3.17067 -4.67493 8.47319e-19)
(5.08666 -8.14182 -2.93743e-18)
(4.64538 -7.94023 1.08262e-18)
(4.6004 -7.67962 2.67838e-18)
(4.57464 -7.47668 -3.26319e-18)
(4.53846 -7.29472 7.54051e-19)
(4.49381 -7.10674 -2.62113e-18)
(4.43561 -6.90808 1.28467e-18)
(4.36327 -6.70078 -2.15291e-18)
(4.27967 -6.48862 4.90471e-20)
(4.18843 -6.27586 1.19546e-20)
(4.09302 -6.06632 -1.65159e-18)
(3.99631 -5.86296 -7.47676e-19)
(3.9006 -5.66788 1.37484e-18)
(3.80755 -5.48242 8.76389e-21)
(3.71832 -5.30738 -3.72012e-20)
(3.63367 -5.14319 -1.0886e-18)
(3.5541 -4.99006 -4.83434e-19)
(3.48065 -4.84746 -2.71554e-20)
(3.41483 -4.71384 -8.4854e-19)
(3.34882 -4.59191 -4.27909e-19)
(5.41239 -7.95159 0)
(4.9767 -7.78865 -2.00043e-18)
(4.92886 -7.54239 2.37572e-20)
(4.89775 -7.34679 3.25875e-18)
(4.85381 -7.16836 1.36404e-18)
(4.79914 -6.98159 -1.41983e-18)
(4.72942 -6.7832 -1.2232e-18)
(4.64479 -6.5761 0)
(4.54872 -6.36452 -9.73746e-19)
(4.44529 -6.15289 9.29332e-19)
(4.33823 -5.94506 -3.90811e-20)
(4.23059 -5.74394 0)
(4.12472 -5.55153 -6.92126e-19)
(4.02228 -5.36905 5.99542e-19)
(3.92442 -5.19717 5.00903e-19)
(3.83184 -5.03628 -6.0465e-19)
(3.74504 -4.88659 -5.24571e-19)
(3.66516 -4.74757 9.10972e-19)
(3.59381 -4.61779 -8.4073e-19)
(3.52269 -4.50112 4.42521e-19)
(5.73115 -7.74823 3.03493e-18)
(5.30314 -7.62298 -2.06029e-18)
(5.25314 -7.39047 -1.75844e-18)
(5.21683 -7.2019 8.18741e-19)
(5.16503 -7.02699 -1.58842e-18)
(5.10014 -6.84167 0)
(5.01865 -6.64398 0)
(4.92153 -6.43762 0)
(4.81286 -6.22722 -4.44851e-20)
(4.69716 -6.01734 -1.86508e-18)
(4.57844 -5.81184 8.80866e-19)
(4.45989 -5.61355 7.45027e-19)
(4.34391 -5.42434 6.30494e-19)
(4.23213 -5.24533 -2.58724e-18)
(4.12566 -5.07708 1.22658e-18)
(4.02516 -4.9199 0)
(3.93108 -4.77399 -3.04389e-20)
(3.84463 -4.63887 -1.41291e-18)
(3.76759 -4.51329 -5.69872e-21)
(3.69134 -4.40222 -4.43011e-19)
(6.04258 -7.53201 -2.06431e-18)
(5.62416 -7.44335 -1.08621e-18)
(5.57256 -7.22391 8.18547e-19)
(5.53118 -7.04208 -1.43939e-19)
(5.47139 -6.8707 -4.63053e-18)
(5.39605 -6.68709 4.19084e-18)
(5.30259 -6.49055 -4.88141e-20)
(5.19282 -6.28549 1.14792e-18)
(5.07146 -6.07688 1.02996e-18)
(4.94347 -5.86938 9.45766e-19)
(4.81311 -5.6668 8.60672e-19)
(4.68371 -5.4719 1.53819e-18)
(4.55768 -5.28642 -7.4036e-19)
(4.43665 -5.11135 1.91919e-18)
(4.32164 -4.94716 -1.24073e-18)
(4.21324 -4.79409 -5.1329e-19)
(4.11185 -4.65235 2.06167e-18)
(4.01875 -4.52146 1.37745e-18)
(3.93589 -4.40023 -2.79697e-20)
(3.85471 -4.29451 0)
(6.34667 -7.30341 -1.04962e-18)
(5.93935 -7.24995 2.07583e-18)
(5.88646 -7.04279 1.81747e-18)
(5.84004 -6.86737 -1.45918e-19)
(5.77214 -6.69957 -1.57109e-18)
(5.68615 -6.518 7.06885e-20)
(5.58054 -6.32309 1.3181e-20)
(5.45801 -6.11992 1.17441e-20)
(5.32392 -5.91372 0)
(5.18367 -5.7092 9.25039e-19)
(5.04174 -5.51012 -1.76068e-18)
(4.90157 -5.31912 -7.5348e-19)
(4.76558 -5.13783 7.4801e-19)
(4.63533 -4.96713 -6.56358e-19)
(4.5118 -4.8074 6.07906e-19)
(4.39549 -4.65887 -5.53422e-19)
(4.2868 -4.52175 4.90074e-21)
(4.18712 -4.3954 -4.7018e-19)
(4.0987 -4.27854 -4.34345e-19)
(4.01336 -4.17887 -4.34642e-19)
(6.64375 -7.06292 0)
(6.24847 -7.04269 -1.01214e-18)
(6.19417 -6.84701 1.00053e-18)
(6.14265 -6.67786 1.74571e-18)
(6.06653 -6.5138 -1.57978e-18)
(5.96973 -6.33464 1.3648e-18)
(5.85183 -6.14189 -2.62422e-18)
(5.71649 -5.94121 -2.33047e-18)
(5.5697 -5.73803 -1.01671e-18)
(5.41728 -5.53708 4.44328e-20)
(5.26392 -5.34203 -8.41953e-19)
(5.11311 -5.15537 3.49325e-20)
(4.96724 -4.97863 0)
(4.82779 -4.81256 -1.28751e-18)
(4.69558 -4.65751 6.57049e-19)
(4.571 -4.51374 0)
(4.45452 -4.38135 -5.14607e-19)
(4.34771 -4.25949 -9.2523e-19)
(4.25283 -4.14779 9.09132e-19)
(4.1623 -4.05886 4.48785e-19)
(6.93343 -6.80975 0)
(6.55088 -6.82088 0)
(6.495 -6.63652 -1.85606e-18)
(6.43828 -6.47382 -1.59599e-18)
(6.35387 -6.31377 3.23924e-18)
(6.24616 -6.13744 0)
(6.1159 -5.94739 0)
(5.96775 -5.7498 1.1708e-18)
(5.80836 -5.55025 0)
(5.64394 -5.35344 0)
(5.47937 -5.1629 0)
(5.31819 -4.98098 0)
(5.16269 -4.80902 0)
(5.0142 -4.64766 0)
(4.87328 -4.49718 0)
(4.74004 -4.35774 0)
(4.61475 -4.22918 0)
(4.49849 -4.11087 0)
(4.39138 -4.00585 0)
(4.28726 -3.93144 0)
(10.0435 0.0877405 1.47363e-19)
(10.023 -0.307647 2.8672e-19)
(9.98715 -0.700357 -2.94478e-19)
(9.93662 -1.09025 5.8713e-19)
(9.87109 -1.47698 -5.87129e-19)
(9.79044 -1.86004 -5.5483e-19)
(9.69477 -2.2389 -5.53281e-19)
(9.58429 -2.61302 1.74246e-18)
(9.45923 -2.98183 -1.16091e-18)
(9.31986 -3.34478 1.15118e-18)
(9.16646 -3.70134 -1.15118e-18)
(8.99932 -4.05096 1.14267e-18)
(8.81879 -4.39314 -2.26602e-18)
(8.62522 -4.72736 3.33703e-18)
(8.41896 -5.05314 0)
(8.20041 -5.37002 -3.2785e-18)
(7.96997 -5.6776 1.63522e-20)
(7.72816 -5.97551 3.30395e-18)
(7.47508 -6.26359 0)
(7.21241 -6.54116 0)
(10.1205 -0.210718 0)
(10.0792 -0.60683 -1.50431e-20)
(10.0212 -0.999141 0)
(9.947 -1.38731 5.61859e-19)
(9.85697 -1.77092 5.85104e-19)
(9.75127 -2.14935 -1.69348e-18)
(9.63019 -2.52198 2.94827e-18)
(9.49409 -2.88819 -1.16386e-18)
(9.34335 -3.24737 -1.10943e-18)
(9.17835 -3.59894 -1.1049e-18)
(8.9995 -3.94232 4.45754e-20)
(8.80726 -4.27698 1.13204e-18)
(8.60208 -4.6024 -5.62776e-18)
(8.38444 -4.91806 -1.18016e-18)
(8.15484 -5.22352 2.24875e-18)
(7.91379 -5.51833 2.24573e-18)
(7.66176 -5.80212 1.14096e-18)
(7.39933 -6.07454 -2.20011e-18)
(7.1266 -6.33534 1.04189e-18)
(6.84451 -6.58418 0)
(10.0723 -0.149218 1.32703e-19)
(10.0345 -0.540897 -2.71753e-19)
(9.97929 -0.9294 7.84768e-19)
(9.90709 -1.31403 -5.55963e-19)
(9.81829 -1.69414 -5.30098e-19)
(9.71325 -2.06901 5.53449e-19)
(9.59233 -2.43793 0)
(9.45594 -2.80018 0)
(9.3045 -3.15512 2.10148e-18)
(9.13846 -3.50209 3.13502e-18)
(8.9583 -3.84047 -9.91549e-19)
(8.7645 -4.16968 3.10002e-18)
(8.55759 -4.48916 -9.87375e-19)
(8.3381 -4.79835 -3.01946e-18)
(8.1066 -5.09678 1.36238e-20)
(7.86364 -5.38395 1.93818e-18)
(7.60976 -5.65945 -8.74857e-19)
(7.34556 -5.92287 -1.9068e-18)
(7.07137 -6.17382 -1.02993e-18)
(6.78794 -6.41181 1.87398e-18)
(9.90625 -0.112498 0)
(9.87523 -0.494947 2.29115e-19)
(9.82694 -0.87505 2.28173e-19)
(9.76155 -1.25191 -9.37415e-19)
(9.67939 -1.62472 0)
(9.58081 -1.99271 0)
(9.46617 -2.35511 0)
(9.33584 -2.71117 0)
(9.19024 -3.06019 -9.91967e-19)
(9.02981 -3.40146 -9.882e-19)
(8.85504 -3.73432 0)
(8.66642 -4.05814 1.86837e-18)
(8.46449 -4.3723 -4.61939e-18)
(8.24979 -4.67622 3.7144e-18)
(8.0229 -4.96936 -3.60023e-18)
(7.78441 -5.25118 -8.73598e-19)
(7.53489 -5.52121 1.56481e-19)
(7.27496 -5.77896 1.54884e-19)
(7.00513 -6.02398 -1.77918e-18)
(6.72614 -6.25579 -7.0891e-20)
(9.65324 -0.0990153 0)
(9.62964 -0.469236 -2.25958e-19)
(9.58919 -0.837767 0)
(9.53196 -1.2037 4.52041e-19)
(9.4582 -1.56621 4.30917e-19)
(9.36818 -1.92449 3.93963e-19)
(9.26222 -2.27776 0)
(9.14066 -2.62527 0)
(9.00386 -2.96626 0)
(8.85226 -3.30003 0)
(8.68628 -3.62587 8.13809e-19)
(8.50642 -3.94311 8.76763e-19)
(8.31317 -4.25112 8.71761e-19)
(8.10709 -4.54928 -8.85094e-19)
(7.88872 -4.83699 -1.52329e-18)
(7.65866 -5.1137 1.72911e-18)
(7.41748 -5.37886 3.35241e-18)
(7.16581 -5.63195 1.63061e-18)
(6.90423 -5.87248 0)
(6.63344 -6.09994 -1.53681e-18)
(9.34625 -0.090214 4.64437e-20)
(9.32962 -0.446261 0)
(9.29677 -0.801189 -7.61094e-19)
(9.24771 -1.15414 1.82712e-23)
(9.18259 -1.5043 1.61778e-20)
(9.10164 -1.85088 -6.85495e-20)
(9.00513 -2.19309 0)
(8.89335 -2.53018 3.09403e-20)
(8.76662 -2.86141 -7.7264e-19)
(8.62531 -3.18606 1.50536e-18)
(8.46982 -3.50342 -1.5697e-18)
(8.3006 -3.81281 8.5754e-19)
(8.11812 -4.11358 -4.49512e-18)
(7.92288 -4.40509 2.96481e-18)
(7.71541 -4.68673 1.57159e-18)
(7.49627 -4.9579 0)
(7.26603 -5.21804 -2.90089e-18)
(7.02531 -5.46659 -6.15407e-20)
(6.77467 -5.70303 -2.85678e-18)
(6.51479 -5.92683 2.96923e-18)
(9.01393 -0.0854041 4.17684e-20)
(9.00294 -0.426453 -8.7499e-20)
(8.97646 -0.766851 7.17409e-19)
(8.93448 -1.1058 -1.40775e-20)
(8.87708 -1.44251 7.17262e-19)
(8.80445 -1.77621 -1.08336e-18)
(8.71681 -2.10615 0)
(8.6144 -2.4316 7.30319e-19)
(8.49749 -2.75183 6.687e-19)
(8.36643 -3.06613 -7.26229e-19)
(8.22155 -3.37381 1.32873e-18)
(8.06326 -3.67421 2.81691e-18)
(7.89199 -3.96665 -1.31005e-18)
(7.7082 -4.25052 -1.41998e-18)
(7.5124 -4.52519 1.36176e-18)
(7.3051 -4.79005 0)
(7.08685 -5.04453 6.49583e-20)
(6.85822 -5.28805 9.81514e-21)
(6.6198 -5.52007 2.70667e-18)
(6.37218 -5.74002 1.25836e-18)
(8.67751 -0.0842242 0)
(8.67058 -0.41032 6.25968e-21)
(8.64894 -0.736111 -1.45988e-19)
(8.61254 -1.06085 -6.48327e-19)
(8.56144 -1.38379 6.09423e-19)
(8.4958 -1.70419 0)
(8.41579 -2.02135 1.24039e-18)
(8.3216 -2.33456 -1.36305e-21)
(8.2135 -2.64312 -1.89443e-18)
(8.09175 -2.94636 0)
(7.95667 -3.2436 -1.30758e-18)
(7.80863 -3.5342 4.60203e-20)
(7.64802 -3.81752 -3.67565e-18)
(7.47526 -4.09293 6.47769e-21)
(7.29081 -4.35984 1.23195e-18)
(7.09517 -4.61763 0)
(6.88885 -4.86573 -1.20917e-18)
(6.67239 -5.10355 8.70569e-21)
(6.44635 -5.33055 1.20047e-18)
(6.21129 -5.54613 -1.23832e-18)
(8.35088 -0.0853068 0)
(8.34657 -0.397031 1.49678e-19)
(8.32831 -0.708683 3.10549e-19)
(8.29603 -1.01956 -5.74829e-19)
(8.24979 -1.32897 -2.47355e-20)
(8.18971 -1.63621 -2.87283e-19)
(8.11592 -1.94061 -1.15002e-18)
(8.02861 -2.24151 5.71746e-19)
(7.92799 -2.53824 2.38256e-20)
(7.81431 -2.83016 5.68325e-19)
(7.68785 -3.11664 5.23194e-19)
(7.54893 -3.39706 2.26576e-18)
(7.39792 -3.67079 1.13333e-18)
(7.23522 -3.93726 2.23848e-18)
(7.06125 -4.19587 -1.11631e-18)
(6.87648 -4.44604 3.86839e-20)
(6.68139 -4.68719 -1.10313e-18)
(6.47651 -4.91875 0)
(6.26237 -5.14017 1.04275e-18)
(6.03947 -5.35084 0)
(8.04196 -0.0875259 6.51687e-20)
(8.03911 -0.38575 -1.90861e-19)
(8.02302 -0.684044 5.23495e-19)
(7.99363 -0.981751 -2.61161e-19)
(7.95098 -1.27821 1.89932e-20)
(7.89516 -1.57278 -2.61007e-19)
(7.8263 -1.86483 5.42617e-19)
(7.74456 -2.15371 -5.19315e-19)
(7.65012 -2.43883 5.19312e-19)
(7.54321 -2.71955 9.96015e-19)
(7.42409 -2.9953 -1.07325e-18)
(7.29305 -3.26548 -4.51246e-20)
(7.15044 -3.52952 -3.10662e-18)
(6.99662 -3.78685 5.38066e-21)
(6.832 -4.03692 4.02978e-20)
(6.65702 -4.27918 2.01395e-18)
(6.47216 -4.51305 -9.94828e-19)
(6.27792 -4.73798 -9.47594e-19)
(6.0748 -4.95342 -3.74653e-20)
(5.8633 -5.15875 0)
(7.75435 -0.090136 0)
(7.75211 -0.375853 2.42445e-19)
(7.73729 -0.661712 -8.33619e-19)
(7.70982 -0.947099 -2.21167e-19)
(7.66974 -1.23139 4.94617e-19)
(7.61712 -1.51399 0)
(7.55209 -1.79429 0)
(7.47478 -2.07171 4.72781e-19)
(7.38537 -2.34565 -4.72778e-19)
(7.28407 -2.61555 3.98281e-19)
(7.1711 -2.88086 -4.69732e-19)
(7.04676 -3.14102 9.31517e-19)
(6.91135 -3.3955 -1.85842e-18)
(6.76523 -3.64376 1.84882e-18)
(6.60879 -3.88529 3.46823e-20)
(6.44246 -4.11957 -9.5087e-19)
(6.26671 -4.34606 -9.04837e-19)
(6.08201 -4.56422 1.84319e-18)
(5.88892 -4.77348 8.6287e-19)
(5.68787 -4.97322 0)
(7.48884 -0.0926634 1.87877e-21)
(7.48664 -0.366872 1.59184e-19)
(7.47245 -0.641251 3.34211e-19)
(7.4462 -0.915219 2.3393e-19)
(7.40792 -1.1882 2.17004e-19)
(7.3577 -1.45961 2.01866e-19)
(7.29563 -1.72889 0)
(7.22185 -1.99549 -8.34215e-19)
(7.13652 -2.25886 -4.30037e-19)
(7.03983 -2.51846 3.66879e-19)
(6.932 -2.77378 0)
(6.81331 -3.0243 8.49369e-19)
(6.68404 -3.26952 -2.51206e-18)
(6.54453 -3.50897 8.45021e-19)
(6.39517 -3.74215 0)
(6.23638 -3.96859 -8.03459e-19)
(6.06864 -4.18778 -1.62277e-18)
(5.89242 -4.39921 7.98518e-19)
(5.7083 -4.6023 -2.9219e-20)
(5.51672 -4.79643 0)
(7.24455 -0.0948093 3.46641e-21)
(7.24204 -0.358463 -1.03021e-19)
(7.22805 -0.622278 1.9881e-19)
(7.20253 -0.885711 -1.31291e-20)
(7.16553 -1.14821 3.9727e-19)
(7.1171 -1.40924 -6.10131e-19)
(7.05735 -1.66826 0)
(6.9864 -1.92474 5.60612e-20)
(6.90441 -2.17819 0)
(6.81154 -2.42809 -8.14447e-19)
(6.70803 -2.67395 0)
(6.59412 -2.91531 -7.51643e-19)
(6.47008 -3.15171 2.32311e-18)
(6.33625 -3.3827 -1.5394e-18)
(6.19301 -3.60784 7.67487e-19)
(6.04076 -3.82672 -6.79072e-19)
(5.88002 -4.03884 7.8435e-19)
(5.71127 -4.24375 -7.78986e-19)
(5.53515 -4.44086 0)
(5.3521 -4.62952 0)
(7.01968 -0.0964523 4.71412e-20)
(7.01667 -0.3504 0)
(7.00264 -0.60449 0)
(6.97756 -0.858205 -3.77703e-19)
(6.94146 -1.11102 -3.52519e-19)
(6.89441 -1.36243 0)
(6.83652 -1.61191 0)
(6.76789 -1.85899 4.98815e-20)
(6.68867 -2.10317 6.98099e-19)
(6.59904 -2.34397 -3.36666e-19)
(6.49919 -2.58096 -3.58688e-19)
(6.38937 -2.81368 1.44895e-18)
(6.26983 -3.04173 -2.15157e-18)
(6.14091 -3.26469 1.38745e-18)
(6.00296 -3.48218 0)
(5.8564 -3.69384 2.7874e-18)
(5.70176 -3.89922 -2.0238e-18)
(5.53955 -4.09797 6.88493e-19)
(5.37055 -4.2894 1.31673e-18)
(5.19516 -4.47294 0)
(6.81215 -0.0975277 -4.05302e-20)
(6.80853 -0.342521 0)
(6.79431 -0.587637 -5.22516e-21)
(6.76947 -0.832373 -3.24354e-19)
(6.73405 -1.07623 1.00506e-18)
(6.68811 -1.31872 -1.67189e-19)
(6.63176 -1.55936 0)
(6.56509 -1.79769 1.33183e-18)
(6.48825 -2.03323 -6.85875e-19)
(6.4014 -2.26555 4.45117e-20)
(6.30473 -2.49422 6.3565e-19)
(6.19847 -2.71885 6.51545e-19)
(6.08286 -2.93903 -1.29929e-18)
(5.95822 -3.15442 -1.27086e-18)
(5.82489 -3.36468 -1.24133e-18)
(5.68329 -3.56954 -1.32092e-18)
(5.53398 -3.76855 1.31193e-18)
(5.37747 -3.96159 -6.26299e-19)
(5.21481 -4.14777 -6.67375e-19)
(5.04627 -4.32677 0)
(6.6197 -0.0980152 3.98198e-20)
(6.61544 -0.334723 -1.49515e-19)
(6.60097 -0.571523 -1.5478e-19)
(6.57629 -0.807933 4.63455e-19)
(6.54142 -1.04348 -1.64585e-19)
(6.49643 -1.27769 -1.53845e-19)
(6.44141 -1.51011 0)
(6.37647 -1.74029 -6.32363e-19)
(6.30173 -1.96779 0)
(6.21736 -2.19219 6.27474e-19)
(6.12353 -2.4131 -1.20916e-18)
(6.02045 -2.63013 5.98558e-19)
(5.90835 -2.84294 -1.19344e-18)
(5.78751 -3.05123 1.23154e-18)
(5.65828 -3.25468 6.70306e-19)
(5.52103 -3.45316 0)
(5.37639 -3.64621 -5.78595e-19)
(5.22482 -3.83406 5.78595e-19)
(5.06779 -4.01548 0)
(4.90527 -4.19084 0)
(6.44022 -0.0980026 0)
(6.43534 -0.326982 1.46897e-19)
(6.42063 -0.556022 4.72589e-21)
(6.39608 -0.784661 -1.51465e-19)
(6.36171 -1.01244 -1.33567e-19)
(6.31759 -1.23893 -1.41802e-19)
(6.26381 -1.46366 5.48072e-19)
(6.20047 -1.68623 0)
(6.12769 -1.90622 0)
(6.04562 -2.12322 2.78533e-19)
(5.95442 -2.33686 2.9588e-19)
(5.85429 -2.54679 1.07089e-18)
(5.74544 -2.75269 -5.47171e-19)
(5.6281 -2.9543 5.47169e-19)
(5.5026 -3.15135 5.80858e-19)
(5.36927 -3.34386 3.39633e-20)
(5.22877 -3.53134 -1.06683e-18)
(5.08146 -3.71458 3.77987e-21)
(4.9295 -3.89167 5.27642e-19)
(4.77203 -4.06462 0)
(6.27179 -0.0974929 -3.28335e-20)
(6.26637 -0.319267 3.28331e-20)
(6.25146 -0.541075 0)
(6.22706 -0.762468 1.2367e-19)
(6.19321 -0.98301 4.01714e-19)
(6.14996 -1.20227 -5.07723e-19)
(6.0974 -1.41984 -5.38499e-19)
(6.03562 -1.6353 0)
(5.96475 -1.84826 0)
(5.88493 -2.05834 0)
(5.79629 -2.26519 -9.94121e-19)
(5.69901 -2.46848 -6.41672e-20)
(5.59329 -2.66791 -5.04059e-19)
(5.47933 -2.86326 3.02057e-20)
(5.35739 -3.0543 -9.96836e-19)
(5.2277 -3.24119 1.51918e-18)
(5.09099 -3.42347 -1.43948e-18)
(4.94729 -3.60274 4.88646e-19)
(4.7999 -3.77601 9.36778e-19)
(4.6461 -3.94818 0)
(6.1127 -0.0961358 2.94977e-20)
(6.10684 -0.311378 0)
(6.09183 -0.526641 -1.21443e-19)
(6.06765 -0.741488 -2.50241e-19)
(6.03435 -0.955501 1.21291e-19)
(5.99198 -1.16827 9.68559e-19)
(5.94063 -1.37939 0)
(5.88038 -1.58849 -4.66482e-19)
(5.81136 -1.79517 -2.38591e-19)
(5.73368 -1.99909 -4.48226e-19)
(5.64748 -2.19991 -1.79345e-19)
(5.55291 -2.39731 -1.41511e-18)
(5.45014 -2.59103 -9.34061e-19)
(5.33929 -2.78086 9.60847e-19)
(5.22063 -2.96661 9.19728e-19)
(5.09414 -3.14852 -3.88464e-21)
(4.96067 -3.32624 2.99563e-20)
(4.81942 -3.50236 4.50247e-19)
(4.67554 -3.67307 -9.20478e-19)
(4.52227 -3.84827 0)
(5.96134 -0.0944639 -6.16856e-20)
(5.95519 -0.303451 3.03668e-20)
(5.94022 -0.512525 -1.21321e-19)
(5.91641 -0.721296 1.21264e-19)
(5.8838 -0.929372 -3.48773e-19)
(5.84242 -1.13636 -1.08603e-18)
(5.79235 -1.34188 0)
(5.73365 -1.54556 4.93574e-19)
(5.66642 -1.74705 -4.6151e-19)
(5.59076 -1.94599 9.77271e-19)
(5.50678 -2.14207 9.71468e-19)
(5.41459 -2.33499 1.43128e-18)
(5.31432 -2.52448 -9.28739e-19)
(5.206 -2.71033 4.62609e-19)
(5.0899 -2.89237 -4.54952e-19)
(4.96562 -3.0708 4.54975e-19)
(4.83428 -3.24537 0)
(4.69317 -3.41929 4.1193e-19)
(4.55135 -3.58837 -4.03113e-19)
(4.39364 -3.77484 0)
(7.14012 7.26211 0)
(7.42009 6.9723 0)
(7.68716 6.67291 1.08755e-18)
(7.94203 6.36445 2.02634e-20)
(8.18413 6.04662 -1.1506e-18)
(8.41281 5.71949 0)
(8.62764 5.38347 1.18737e-18)
(8.82829 5.03908 -2.24023e-18)
(9.01446 4.6869 -1.13216e-18)
(9.18585 4.32755 -1.14274e-18)
(9.34218 3.96165 1.14274e-18)
(9.48325 3.58986 -1.15483e-18)
(9.60886 3.21287 5.76057e-19)
(9.7188 2.83138 5.49829e-19)
(9.81292 2.44605 5.51978e-19)
(9.89117 2.05755 -5.85787e-19)
(9.95351 1.66654 5.85787e-19)
(10 1.27372 -2.94072e-19)
(10.0307 0.879501 -1.39689e-19)
(10.046 0.485223 7.35745e-20)
(7.41699 7.07034 0)
(7.69718 6.78092 -9.96598e-19)
(7.96357 6.47993 -2.13066e-18)
(8.21647 6.16805 3.15083e-18)
(8.45562 5.8456 -2.18498e-18)
(8.68053 5.51303 2.19576e-18)
(8.8907 5.17095 1.19374e-18)
(9.08573 4.82002 -3.38748e-18)
(9.26522 4.46093 1.10819e-18)
(9.42882 4.0944 2.20303e-18)
(9.57622 3.72115 1.0854e-18)
(9.70717 3.34194 1.09228e-18)
(9.8215 2.95758 -1.15262e-18)
(9.91899 2.56878 1.69726e-18)
(9.99937 2.17633 -2.35475e-18)
(10.0626 1.78111 5.81232e-19)
(10.1085 1.38392 -5.58528e-19)
(10.1374 0.985575 0)
(10.149 0.586616 1.51568e-20)
(10.1438 0.188019 0)
(7.27404 6.94561 -1.75487e-18)
(7.55705 6.67359 9.85196e-19)
(7.82751 6.38871 1.8022e-18)
(8.08498 6.09163 8.15892e-19)
(8.32903 5.78294 2.04328e-18)
(8.55914 5.46324 2.00424e-20)
(8.77477 5.1332 -1.02417e-18)
(8.97543 4.79352 -3.05227e-18)
(9.16069 4.44491 3.01343e-18)
(9.3301 4.08811 -3.09333e-18)
(9.48326 3.72385 -1.03056e-18)
(9.6199 3.3529 -2.06186e-18)
(9.73966 2.97607 0)
(9.84237 2.59414 0)
(9.92787 2.20801 0)
(9.99599 1.81858 -5.25566e-19)
(10.0466 1.42669 5.50434e-19)
(10.0796 1.03321 5.27262e-19)
(10.0949 0.638837 6.27041e-21)
(10.0926 0.244548 1.32426e-19)
(7.04679 6.69357 1.82255e-18)
(7.32653 6.44021 -1.65512e-18)
(7.59493 6.17373 -1.69632e-19)
(7.85126 5.89467 -1.70593e-19)
(8.09496 5.60359 4.30286e-18)
(8.32547 5.30111 -7.12654e-20)
(8.54225 4.98785 3.77642e-21)
(8.74475 4.66448 -2.72105e-18)
(8.9325 4.33166 1.79534e-18)
(9.105 3.9901 0)
(9.26177 3.64056 9.62931e-19)
(9.40247 3.28389 9.69595e-19)
(9.52681 2.92086 0)
(9.63448 2.55231 0)
(9.72527 2.17905 0)
(9.79898 1.80192 0)
(9.8554 1.42171 -2.17148e-20)
(9.89443 1.03931 4.74764e-19)
(9.91595 0.655521 -2.27988e-19)
(9.91994 0.271299 0)
(6.78413 6.37881 1.54364e-18)
(7.05602 6.14332 0)
(7.31768 5.89489 -4.54507e-18)
(7.5683 5.63393 -1.54921e-18)
(7.80725 5.36098 -1.62798e-18)
(8.03395 5.07658 -1.72574e-18)
(8.24783 4.78132 8.15357e-19)
(8.44834 4.4758 -8.56901e-19)
(8.63494 4.16066 2.3794e-18)
(8.80719 3.83657 -7.78969e-19)
(8.96466 3.5043 0)
(9.10685 3.1646 0)
(9.23339 2.81816 0)
(9.34398 2.46577 0)
(9.43838 2.10823 -1.23015e-18)
(9.51633 1.74635 4.22986e-19)
(9.5776 1.38095 -4.46811e-19)
(9.62204 1.01285 0)
(9.64951 0.642898 2.24848e-19)
(9.65995 0.271984 0)
(6.50919 6.05158 1.32062e-18)
(6.77085 5.83223 -4.79967e-20)
(7.02322 5.60036 2.77785e-18)
(7.26549 5.35629 1.38782e-18)
(7.49702 5.1005 0)
(7.71722 4.83348 -1.47373e-18)
(7.92552 4.55577 6.85275e-20)
(8.12138 4.26793 -1.49612e-18)
(8.30427 3.97054 2.06984e-18)
(8.47372 3.66426 3.27453e-20)
(8.6293 3.34972 2.81214e-20)
(8.77054 3.02755 -7.46592e-19)
(8.89705 2.69849 1.46423e-18)
(9.00851 2.36328 0)
(9.10464 2.02265 6.8585e-20)
(9.18515 1.67741 7.47562e-19)
(9.24976 1.32835 1.63912e-21)
(9.29831 0.976236 -1.53496e-20)
(9.33065 0.62188 0)
(9.34666 0.266113 -4.63471e-20)
(6.24334 5.73454 0)
(6.49366 5.52918 -4.89232e-20)
(6.73544 5.31181 1.75819e-20)
(6.96792 5.08273 -2.51115e-18)
(7.19046 4.84233 0)
(7.40248 4.59109 1.27006e-18)
(7.60345 4.32947 1.3528e-18)
(7.79284 4.05799 -3.93587e-18)
(7.97013 3.77719 -6.82989e-20)
(8.13486 3.48765 -1.26384e-18)
(8.28659 3.18996 6.9587e-19)
(8.4249 2.88473 -6.42818e-19)
(8.54939 2.57264 -7.06645e-19)
(8.65968 2.25438 0)
(8.75554 1.93068 3.72807e-19)
(8.83675 1.60213 -1.69132e-20)
(8.90293 1.26959 -3.46094e-19)
(8.95385 0.93381 -1.67752e-20)
(8.98942 0.595528 -8.71214e-20)
(9.00946 0.255519 1.74616e-19)
(5.99778 5.43931 0)
(6.23652 5.24579 1.08588e-18)
(6.4673 5.04084 1.61896e-20)
(6.68942 4.82471 -1.10204e-18)
(6.90227 4.59776 0)
(7.10528 4.36039 1.14652e-18)
(7.29796 4.11306 -1.09466e-18)
(7.47979 3.85621 -1.21179e-18)
(7.65031 3.59036 2.30502e-18)
(7.80905 3.31604 1.24374e-18)
(7.9556 3.03379 0)
(8.08956 2.74422 6.06647e-19)
(8.21054 2.44793 -4.39211e-21)
(8.31822 2.14558 2.18721e-20)
(8.4122 1.83783 0)
(8.49233 1.52531 -5.97145e-19)
(8.55845 1.20864 -3.12842e-19)
(8.61015 0.888618 4.57085e-19)
(8.64732 0.565989 3.08182e-19)
(8.66977 0.241456 -4.11928e-20)
(5.7762 5.17081 0)
(6.00368 4.98728 -9.37892e-19)
(6.22366 4.79288 0)
(6.43547 4.58785 -1.01189e-18)
(6.63854 4.3725 1.9922e-18)
(6.83234 4.14721 -2.03172e-18)
(7.0164 3.91236 3.17921e-18)
(7.19025 3.66841 -3.17007e-18)
(7.35343 3.41581 -2.14181e-18)
(7.50553 3.15506 -1.57972e-18)
(7.64614 2.88668 5.41711e-19)
(7.77489 2.61123 -1.12307e-18)
(7.89142 2.32928 1.86537e-20)
(7.9954 2.04144 1.1164e-18)
(8.08656 1.74829 -2.8086e-19)
(8.16451 1.45056 1.15054e-18)
(8.22915 1.14874 -5.65881e-19)
(8.28034 0.843528 2.60726e-19)
(8.31778 0.535665 -1.48688e-19)
(8.3413 0.225818 0)
(5.57834 4.92946 0)
(5.79519 4.75437 1.81445e-18)
(6.0049 4.56898 8.80151e-19)
(6.20683 4.37349 -9.0598e-19)
(6.40044 4.16817 -1.85589e-18)
(6.58524 3.95336 2.8241e-18)
(6.76078 3.72942 1.12959e-20)
(6.92664 3.49677 -9.20532e-19)
(7.08239 3.25584 1.97622e-18)
(7.22765 3.00711 1.02065e-18)
(7.36203 2.75106 -9.5357e-19)
(7.48518 2.48823 5.00709e-19)
(7.59678 2.21916 2.25449e-20)
(7.6965 1.9444 -5.26864e-19)
(7.78407 1.66454 -2.55311e-19)
(7.8592 1.38015 5.11932e-19)
(7.92167 1.09193 -2.56622e-19)
(7.97136 0.800389 -5.17854e-19)
(8.00809 0.506195 6.00088e-20)
(8.03163 0.21 6.48888e-20)