/*--------------------------------*- C++ -*----------------------------------*\
  =========                 |
  \\      /  F ield         | OpenFOAM: The Open Source CFD Toolbox
   \\    /   O peration     | Website:  https://openfoam.org
    \\  /    A nd           | Version:  6.0
     \\/     M anipulation  |
\*---------------------------------------------------------------------------*/
FoamFile
{
    version     2.0;
    format      ascii;
    class       surfaceScalarField;
    location    "2.75";
    object      phi;
}
// * * * * * * * * * * * * * * * * * * * * * * * * * * * * * * * * * * * * * //

dimensions      [0 3 -1 0 0 0 0];

internalField   nonuniform List<scalar> 
18940
(
-2.87715e-05
-0.0116614
0.0116901
-9.02715e-05
-0.0102586
0.0103201
-0.000170986
-0.00907463
0.00915535
-0.00026066
-0.00808109
0.00817076
-0.000351451
-0.00725185
0.00734264
-0.00043755
-0.00656339
0.00664949
-0.000514746
-0.00599481
0.006072
-0.000580077
-0.0055278
0.00559313
-0.000631568
-0.00514637
0.00519786
-0.000668046
-0.00483665
0.00487313
-0.00068899
-0.0045866
0.00460755
-0.000694425
-0.00438586
0.00439129
-0.000684835
-0.00422547
0.00421588
-0.000661089
-0.0040978
0.00407405
-0.000624381
-0.0039963
0.0039596
-0.000576165
-0.00391546
0.00386725
-0.000518087
-0.00385069
0.00379261
-0.000451918
-0.00379821
0.00373204
-0.00037953
-0.00375484
0.00368245
-0.00371779
0.00364116
-0.000302903
-2.56461e-05
-0.0116357
-8.17683e-05
-0.0102024
-0.000153882
-0.00900252
-0.000231531
-0.00800344
-0.000306984
-0.0071764
-0.000374582
-0.00649579
-0.000430256
-0.00593913
-0.000471175
-0.00548688
-0.000495484
-0.00512206
-0.000502111
-0.00483002
-0.00049063
-0.00459808
-0.000461152
-0.00441533
-0.000414253
-0.00427237
-0.000350903
-0.00416115
-0.000272414
-0.00407479
-0.000180385
-0.00400749
-7.66385e-05
-0.00395443
3.68414e-05
-0.00391169
0.00015794
-0.00387593
-0.00384426
0.000284409
-2.30016e-05
-0.0116127
-7.22369e-05
-0.0101532
-0.000133467
-0.00894129
-0.000196295
-0.00794061
-0.000253121
-0.00711957
-0.000298436
-0.00645047
-0.00032832
-0.00590925
-0.000340074
-0.00547512
-0.000331954
-0.00513018
-0.000302982
-0.00485899
-0.000252809
-0.00464826
-0.000181619
-0.00448652
-9.00606e-05
-0.00436393
2.08077e-05
-0.00427202
0.00014956
-0.00420354
0.000294447
-0.00415238
0.000453448
-0.00411343
0.000624326
-0.00408257
0.00080466
-0.00405627
-0.00403145
0.000991853
-2.01729e-05
-0.0115925
-6.14281e-05
-0.010112
-0.000109901
-0.00889282
-0.000155444
-0.00789507
-0.000190669
-0.00708435
-0.000210263
-0.00643088
-0.000210482
-0.00590903
-0.00018877
-0.00549684
-0.0001435
-0.00517545
-7.37808e-05
-0.00492871
2.0669e-05
-0.00474271
0.000139609
-0.00460546
0.000282336
-0.00450666
0.000447718
-0.0044374
0.000634228
-0.00439005
0.000839966
-0.00435812
0.0010627
-0.00433617
0.0012999
-0.00431977
0.00154879
-0.00430515
-0.00428898
0.00180632
-1.70275e-05
-0.0115755
-4.93073e-05
-0.0100797
-8.33836e-05
-0.00885874
-0.000109449
-0.007869
-0.000120409
-0.00707339
-0.000111203
-0.00644009
-7.82951e-05
-0.00594194
-1.93009e-05
-0.00555583
6.7279e-05
-0.00526203
0.000182243
-0.00504368
0.000325812
-0.00488628
0.000497704
-0.00477735
0.000697176
-0.00470613
0.000923047
-0.00466327
0.00117371
-0.00464071
0.00144711
-0.00463153
0.00174082
-0.00462987
0.00205199
-0.00463094
0.0023774
-0.00463057
-0.00462507
0.0027135
-1.35569e-05
-0.011562
-3.59378e-05
-0.0100573
-5.41392e-05
-0.00884054
-5.87644e-05
-0.00786438
-4.30779e-05
-0.00708908
-2.32886e-06
-0.00648083
6.67611e-05
-0.00601103
0.000166372
-0.00565544
0.000297851
-0.00539351
0.000461892
-0.00520772
0.000658654
-0.00508304
0.000887819
-0.00500652
0.00114863
-0.00496694
0.00143987
-0.00495452
0.00175989
-0.00496073
0.00210652
-0.00497816
0.00247711
-0.00500046
0.0028685
-0.00502232
0.00327701
-0.00503908
-0.00504651
0.00369845
-9.77812e-06
-0.0115522
-2.14051e-05
-0.0100457
-2.23838e-05
-0.00883956
-3.79282e-06
-0.00788297
4.06763e-05
-0.00713354
0.000115403
-0.00655556
0.000223355
-0.00611898
0.000366462
-0.00579855
0.000545882
-0.00557293
0.000762181
-0.00542402
0.00101544
-0.0053363
0.00130532
-0.0052964
0.00163105
-0.00529267
0.00199143
-0.0053149
0.00238477
-0.00535407
0.00280885
-0.00540224
0.00326084
-0.00545245
0.00373726
-0.00549875
0.00423395
-0.00553577
-0.0055586
0.00474604
-5.7117e-06
-0.0115465
-5.78663e-06
-0.0100456
1.17028e-05
-0.00885705
5.51342e-05
-0.0079264
0.000130319
-0.00720873
0.000241198
-0.00666644
0.000390364
-0.00626815
0.000579438
-0.00598762
0.000809342
-0.00580284
0.00108047
-0.00569515
0.00139281
-0.00564864
0.00174598
-0.00564956
0.00213921
-0.0056859
0.00257134
-0.00574703
0.00304072
-0.00582345
0.0035451
-0.00590662
0.00408155
-0.00598889
0.00464632
-0.00606351
0.00523477
-0.00612423
-0.00616512
0.00584129
-1.3723e-06
-0.0115451
1.08621e-05
-0.0100578
4.79913e-05
-0.00889418
0.000117775
-0.00799618
0.000225452
-0.00731641
0.00037445
-0.00681544
0.000566911
-0.00646061
0.000804082
-0.00622479
0.00108658
-0.00608533
0.00141458
-0.00602314
0.00178791
-0.00602197
0.00220612
-0.00606778
0.00266848
-0.00614825
0.00317387
-0.00625242
0.00372072
-0.00637031
0.00430686
-0.00649276
0.00492932
-0.00661136
0.0055842
-0.00671839
0.00626644
-0.00680646
-0.00686835
0.00696967
3.23429e-06
-0.0115483
2.85134e-05
-0.0100831
8.64079e-05
-0.00895207
0.000183979
-0.00809375
0.000325811
-0.00745824
0.000514739
-0.00700437
0.000752375
-0.00669824
0.0010395
-0.00651192
0.00137636
-0.00642218
0.0017628
-0.00640959
0.00219846
-0.00645763
0.00268277
-0.00655209
0.00321497
-0.00668045
0.00379403
-0.00683148
0.00441853
-0.00699481
0.00508645
-0.00716068
0.00579496
-0.00731986
0.00654009
-0.00746353
0.00731651
-0.00758288
-0.00766902
0.00811718
8.11125e-06
-0.0115564
4.71647e-05
-0.0101222
0.000126927
-0.00903183
0.000253673
-0.0082205
0.000431251
-0.00763582
0.000661815
-0.00723493
0.000946359
-0.00698279
0.00128511
-0.00685068
0.00167782
-0.00681489
0.00212395
-0.00685571
0.00262281
-0.00695649
0.00317364
-0.00710291
0.0037756
-0.00728242
0.00442775
-0.00748363
0.00512884
-0.0076959
0.00587714
-0.00790899
0.0066701
-0.00811282
0.00750395
-0.00829737
0.00837324
-0.00845218
-0.00856619
0.00927041
1.32672e-05
-0.0115697
6.6831e-05
-0.0101757
0.000169555
-0.00913456
0.000326837
-0.00837778
0.000541701
-0.00785068
0.000815536
-0.00750876
0.00114863
-0.00731588
0.00154055
-0.0072426
0.00199045
-0.0072648
0.00249727
-0.00736253
0.00305987
-0.00751909
0.00367717
-0.00772021
0.00434816
-0.00795342
0.00507191
-0.00820737
0.00584738
-0.00847137
0.00667322
-0.00873484
0.00754739
-0.00898698
0.00846657
-0.00921656
0.00942558
-0.00941118
-0.00955718
0.0104166
1.87135e-05
-0.0115884
8.75335e-05
-0.0102445
0.000214308
-0.00926133
0.000403461
-0.00856693
0.000657108
-0.00810433
0.000975792
-0.00782745
0.001359
-0.00769909
0.00180557
-0.00768916
0.00231391
-0.00777314
0.00288229
-0.00793091
0.003509
-0.00814579
0.00419243
-0.00840365
0.00493125
-0.00869224
0.0057244
-0.00900052
0.00657101
-0.00931798
0.00747019
-0.00963401
0.0084206
-0.0099374
0.0094198
-0.0102158
0.0104633
-0.0104547
-0.0106373
0.0115435
2.44602e-05
-0.0116129
0.000109288
-0.0103294
0.000261186
-0.00941323
0.000483503
-0.00878925
0.000777365
-0.00839819
0.0011424
-0.00819248
0.00157723
-0.00813392
0.00207984
-0.00819177
0.00264783
-0.00834113
0.00327866
-0.00856174
0.0039698
-0.00883693
0.00471897
-0.00915282
0.00552424
-0.00949751
0.00638419
-0.00986047
0.00729793
-0.0102317
0.00826502
-0.0106011
0.00928503
-0.0109574
0.0103568
-0.0112876
0.0114774
-0.0115752
-0.0117997
0.0126398
3.0514e-05
-0.0116434
0.000132094
-0.010431
0.000310145
-0.00959128
0.000566832
-0.00904594
0.000902226
-0.00873358
0.00131498
-0.00860524
0.0018028
-0.00862175
0.00236277
-0.00875174
0.00299159
-0.00896994
0.00368576
-0.00925592
0.00444183
-0.009593
0.00525654
-0.00996752
0.00612706
-0.010368
0.00705125
-0.0107847
0.00802786
-0.0112083
0.00905663
-0.0116299
0.0101381
-0.0120389
0.011273
-0.0124224
0.0124605
-0.0127627
-0.013035
0.0136958
3.6882e-05
-0.0116803
0.000155935
-0.01055
0.000361079
-0.00979643
0.000653192
-0.00933805
0.00103123
-0.00911162
0.00149284
-0.00906685
0.00203479
-0.0091637
0.00265324
-0.00937018
0.00334393
-0.00966064
0.0041024
-0.0100144
0.00492409
-0.0104147
0.00580457
-0.010848
0.00673981
-0.0113033
0.00772645
-0.0117713
0.00876227
-0.0122442
0.0098466
-0.0127142
0.0109806
-0.0131729
0.0121671
-0.0136089
0.0134089
-0.0140045
-0.0143307
0.0147045
4.35861e-05
-0.0117239
0.000180786
-0.0106872
0.00041381
-0.0100295
0.000742156
-0.0096664
0.00116363
-0.00953309
0.00167486
-0.00957808
0.00227167
-0.00976051
0.00294932
-0.0100478
0.00370264
-0.010414
0.00452619
-0.0108379
0.00541435
-0.0113029
0.00636145
-0.0117951
0.00736198
-0.0123038
0.00841093
-0.0128202
0.00950432
-0.0133375
0.01064
-0.0138499
0.0118186
-0.0143515
0.0130444
-0.0148347
0.0143249
-0.0152849
-0.0156706
0.0156647
5.07014e-05
-0.0117746
0.00020665
-0.0108432
0.000468094
-0.0102909
0.000833114
-0.0100314
0.00129835
-0.00999832
0.0018594
-0.0101391
0.00251117
-0.0104123
0.00324807
-0.0107847
0.00406411
-0.01123
0.00495303
-0.0117269
0.00590831
-0.0122581
0.00692321
-0.01281
0.00799085
-0.0133714
0.00910437
-0.0139338
0.0102574
-0.0144905
0.0114448
-0.0150373
0.0126644
-0.0155711
0.0139194
-0.0160898
0.0152213
-0.0165869
-0.0170381
0.0165889
5.85236e-05
-0.0118331
0.000233662
-0.0110183
0.000523646
-0.0105809
0.000925264
-0.010433
0.00143397
-0.010507
0.00204432
-0.0107495
0.00275028
-0.0111182
0.00354544
-0.0115799
0.00442314
-0.0121077
0.00537655
-0.0126803
0.00639863
-0.0132802
0.0074821
-0.0138935
0.00861936
-0.0145087
0.00980233
-0.0151167
0.0110225
-0.0157107
0.012271
-0.0162858
0.0135401
-0.0168403
0.0148261
-0.0173757
0.0161391
-0.0178998
-0.0184309
0.0175318
6.82212e-05
-0.0119013
0.000262202
-0.0112123
0.000580078
-0.0108988
0.00101757
-0.0108705
0.00156876
-0.0110582
0.00222701
-0.0114077
0.00298528
-0.0118765
0.00383633
-0.0124309
0.00477293
-0.0130443
0.00578789
-0.0136952
0.00687414
-0.0143665
0.00802477
-0.0150441
0.00923293
-0.0157169
0.0104917
-0.0163755
0.0117936
-0.0170126
0.0131306
-0.0176228
0.0144927
-0.0182023
0.015866
-0.0187491
0.017235
-0.0192688
-0.019799
0.0186031
0.0141807
0.000143534
-0.0143243
0.0140368
0.000143886
0.0138923
0.000144592
0.0137474
0.00014487
0.0136029
0.000144484
0.0134595
0.000143371
0.013318
0.000141527
0.013179
0.000138981
0.0130432
0.00013578
0.0129113
0.000131973
0.0127836
0.000127616
0.0126609
0.000122763
0.0125434
0.00011746
0.0124317
0.000111753
0.012326
0.000105697
0.0122266
9.93353e-05
0.012134
9.26868e-05
0.0120482
8.57094e-05
0.0119701
7.81313e-05
6.88083e-05
0.017346
0.000493086
-0.0176955
0.0169872
0.000502676
0.0166217
0.000510048
0.0162518
0.000514834
0.0158794
0.000516854
0.0155067
0.00051607
0.0151357
0.000512524
0.0147684
0.000506316
0.0144065
0.000497584
0.014052
0.000486487
0.0137065
0.000473195
0.0133713
0.000457879
0.0130481
0.0004407
0.012738
0.000421833
0.0124423
0.000401441
0.0121619
0.000379684
0.0118979
0.000356671
0.0116512
0.000332407
0.0114226
0.000306735
0.000279179
0.0202914
0.000991596
-0.0207899
0.0197745
0.00101956
0.019243
0.00104157
0.0187003
0.00105753
0.0181498
0.00106739
0.0175947
0.00107117
0.0170382
0.001069
0.0164835
0.00106106
0.0159334
0.00104761
0.015391
0.00102894
0.0148588
0.00100536
0.0143395
0.0009772
0.0138354
0.000944784
0.0133488
0.000908449
0.0128817
0.000868545
0.012436
0.000825377
0.0120135
0.000779188
0.0116157
0.000730181
0.0112439
0.000678513
0.000624364
0.0229887
0.00159172
-0.0235888
0.0223607
0.00164754
0.0217091
0.00169311
0.0210383
0.00172834
0.0203525
0.00175321
0.0196559
0.0017678
0.0189526
0.00177228
0.0182468
0.0017669
0.0175424
0.00175202
0.0168432
0.00172805
0.0161531
0.00169547
0.0154756
0.00165475
0.0148139
0.00160642
0.0141714
0.001551
0.0135509
0.00148902
0.0129553
0.00142095
0.0123873
0.00134723
0.0118492
0.00126827
0.0113431
0.00118461
0.00109696
0.0254205
0.00225401
-0.0260827
0.0247207
0.00234731
0.0239881
0.00242573
0.0232273
0.00248907
0.0224433
0.00253721
0.021641
0.00257017
0.0208251
0.00258811
0.0200007
0.00259131
0.0191725
0.00258019
0.0183453
0.00255526
0.0175237
0.00251709
0.0167122
0.00246632
0.0159149
0.00240365
0.0151361
0.00232981
0.0143797
0.00224547
0.0136494
0.00215123
0.0129489
0.0020477
0.0122816
0.00193556
0.0116506
0.00181569
0.00168928
0.0275801
0.00294622
-0.0282723
0.0268412
0.00308628
0.0260601
0.00320678
0.0252419
0.00330725
0.0243918
0.00338737
0.0235149
0.00344701
0.0226168
0.00348622
0.0217029
0.00350523
0.0207787
0.00350444
0.0198495
0.0034844
0.0189209
0.00344576
0.0179979
0.00338926
0.0170858
0.00331577
0.0161895
0.00322612
0.0153138
0.00312111
0.0144637
0.0030014
0.0136437
0.00286771
0.0128583
0.00272092
0.0121118
0.00256223
0.00239331
0.0294698
0.00364256
-0.0301662
0.0287182
0.00383794
0.0279157
0.00400923
0.0270674
0.00415559
0.0261784
0.0042764
0.0252541
0.00437125
0.0243003
0.00444001
0.0233228
0.00448276
0.0223274
0.00449981
0.0213202
0.00449164
0.020307
0.00445892
0.0192938
0.00440247
0.0182863
0.00432322
0.0172904
0.00422208
0.0163117
0.00409982
0.015356
0.00395708
0.0144291
0.00379461
0.0135366
0.00361337
0.0126841
0.00341476
0.0032009
0.0310989
0.00432299
-0.0317793
0.0303556
0.00458124
0.0295536
0.0048112
0.0286976
0.00501158
0.0277926
0.00518137
0.0268441
0.00531981
0.0258576
0.00542645
0.0248393
0.00550114
0.0237951
0.005544
0.0227313
0.00555538
0.0216544
0.00553589
0.0205705
0.00548634
0.019486
0.00540767
0.0184074
0.00530072
0.0173411
0.00516613
0.0162937
0.00500444
0.0152721
0.00481622
0.0142832
0.00460227
0.013334
0.00436402
0.00410394
0.0324816
0.00497259
-0.0331312
0.0317629
0.00530003
0.0309786
0.00559546
0.0301331
0.0058571
0.029231
0.00608344
0.0282775
0.0062733
0.0272781
0.00642584
0.0262387
0.00654057
0.0251654
0.00661732
0.0240645
0.00665625
0.0229426
0.00665781
0.0218062
0.00662275
0.0206619
0.00655191
0.0195167
0.00644597
0.0183775
0.00630532
0.0172517
0.00613022
0.0161471
0.00592081
0.015072
0.00567742
0.0140349
0.0054011
0.00509451
0.0336362
0.00558081
-0.0342445
0.0329538
0.00598247
0.0322003
0.00634897
0.0313794
0.006678
0.0304953
0.00696751
0.0295528
0.00721585
0.0285569
0.00742169
0.0275134
0.00758412
0.0264281
0.00770263
0.0253073
0.00777707
0.0241574
0.0078077
0.022985
0.00779512
0.0217969
0.00773999
0.0206002
0.00764272
0.0194021
0.0075034
0.0182106
0.00732176
0.0170341
0.00709724
0.0158824
0.00682917
0.0147658
0.00651767
0.00616511
0.0345828
0.00614088
-0.0351429
0.0339449
0.00662044
0.0332315
0.00706233
0.0324458
0.00746369
0.0315914
0.00782191
0.0306725
0.00813479
0.0296937
0.00840049
0.0286602
0.00861762
0.0275776
0.00878523
0.0264518
0.00890282
0.0252891
0.0089704
0.0240959
0.00898838
0.0228787
0.00895716
0.0216446
0.00887683
0.0204009
0.00874709
0.0191556
0.00856704
0.0179179
0.00833496
0.0166985
0.00804855
0.0155101
0.00770609
0.00730876
0.0353426
0.0066491
-0.0358508
0.0347541
0.00720898
0.0340871
0.00772931
0.0333441
0.00820671
0.032528
0.008638
0.0316424
0.00902041
0.0306913
0.00935154
0.0296795
0.00962948
0.0286119
0.00985279
0.0274942
0.0100206
0.026332
0.0101326
0.0251314
0.010189
0.0238987
0.0101899
0.0226405
0.0101351
0.0213637
0.0100239
0.0200761
0.00985459
0.0187871
0.00962402
0.0175083
0.00932737
0.0162547
0.00895968
0.00851933
0.0359367
0.00710426
-0.0363919
0.0354
0.00774567
0.034783
0.00834632
0.0340874
0.00890227
0.0333156
0.00940982
0.0324704
0.0098656
0.0315553
0.0102666
0.0305743
0.0106105
0.0295319
0.0108952
0.028433
0.0111194
0.0272829
0.0112827
0.0260871
0.0113848
0.0248512
0.0114257
0.0235812
0.0114051
0.0222833
0.0113218
0.0209645
0.0111734
0.0196335
0.010955
0.0183027
0.0106582
0.0169894
0.010273
0.00979183
0.0363855
0.00750705
-0.0367883
0.035901
0.00823019
0.0353354
0.00891193
0.0346898
0.00954783
0.0339659
0.0101337
0.033166
0.0106655
0.0322928
0.0111399
0.0313496
0.0115537
0.0303404
0.0119044
0.0292694
0.0121904
0.0281412
0.0124109
0.0269607
0.0125654
0.0257328
0.0126536
0.0244625
0.0126753
0.0231549
0.0126293
0.0218156
0.0125127
0.020452
0.0123186
0.0190757
0.0120345
0.0177067
0.0116421
0.011123
0.0367081
0.00785961
-0.0370607
0.0362745
0.00866378
0.03576
0.00942642
0.0351652
0.0101427
0.0344911
0.0108078
0.0337392
0.0114174
0.0329118
0.0119673
0.0320116
0.0124539
0.0310417
0.0128743
0.0300058
0.0132263
0.0289077
0.0135089
0.0277517
0.0137214
0.0265419
0.0138635
0.0252822
0.0139351
0.023976
0.0139355
0.022627
0.0138618
0.0212399
0.0137056
0.0198246
0.0134498
0.0184018
0.0130649
0.0125122
0.0369221
0.00816504
-0.0372275
0.036537
0.00904882
0.0360721
0.00989138
0.0355272
0.0106875
0.0349031
0.011432
0.0342006
0.0121199
0.0334213
0.0127466
0.0325672
0.0133079
0.0316411
0.0138004
0.0306458
0.0142216
0.0295846
0.0145701
0.028461
0.014845
0.0272783
0.0150462
0.0260391
0.0151743
0.0247452
0.0152293
0.0233977
0.0152093
0.0219974
0.0151059
0.0205494
0.0148978
0.0190733
0.014541
0.0139627
0.0370432
0.00842712
-0.0373052
0.0367035
0.00938852
0.0362855
0.0103094
0.0357888
0.0111841
0.0352136
0.0120072
0.0345603
0.0127732
0.0338299
0.013477
0.033024
0.0141139
0.0321445
0.0146799
0.0311939
0.0151722
0.0301748
0.0155891
0.0290901
0.0159297
0.0279423
0.016194
0.026733
0.0163836
0.0254624
0.0164999
0.0241284
0.0165433
0.0227267
0.0165076
0.0212545
0.01637
0.0197239
0.0160716
0.0154842
0.0370853
0.00864996
-0.0373081
0.0367872
0.00968659
0.036413
0.0106836
0.0359619
0.0116352
0.0354337
0.0125354
0.0348285
0.0133784
0.0341467
0.0141587
0.0333895
0.0148711
0.0325583
0.0155111
0.0316551
0.0160755
0.030682
0.0165622
0.0296414
0.0169703
0.0285353
0.0173002
0.0273645
0.0175544
0.0261278
0.0177366
0.0248206
0.0178506
0.0234327
0.0178954
0.0219492
0.0178535
0.0203636
0.0176572
0.0170988
0.0370602
0.00883783
-0.037248
0.0367998
0.00994701
0.0364657
0.0110177
0.036057
0.0120438
0.0355732
0.0130192
0.0350141
0.0139376
0.0343797
0.0147931
0.0336708
0.01558
0.0328885
0.0162934
0.0320343
0.0169297
0.03111
0.0174865
0.0301176
0.0179627
0.0290587
0.0183591
0.0279339
0.0186791
0.0267416
0.0189289
0.0254757
0.0191165
0.0241222
0.019249
0.0226522
0.0193235
0.0210241
0.0192853
0.0188541
0.0369771
-0.0371343
0.00899503
0.0367502
0.0101739
0.0364524
0.0113155
0.0360826
0.0124136
0.0356401
0.0134617
0.0351245
0.0144532
0.0345356
0.015382
0.0338738
0.0162418
0.0331399
0.0170273
0.0323352
0.0177345
0.0314611
0.0183605
0.0305196
0.0189042
0.0295123
0.0193664
0.0284398
0.0197516
0.0273012
0.0200676
0.0260914
0.0203263
0.0247974
0.020543
0.0233887
0.0207322
0.0217954
0.0208785
0.0208505
0.0154443
-5.22696e-05
-0.015392
0.0154872
-4.29428e-05
0.0155186
-3.13126e-05
0.0155374
-1.88514e-05
0.0155435
-6.09397e-06
0.0155368
6.70617e-06
0.0155174
1.93942e-05
0.0154855
3.1858e-05
0.0154415
4.4005e-05
0.0153858
5.57514e-05
0.0153188
6.7018e-05
0.015241
7.773e-05
0.0151532
8.78162e-05
0.015056
9.72105e-05
0.0149502
0.000105851
0.0148365
0.000113676
0.0147159
0.000120614
0.0145893
0.000126555
0.0144581
0.000131234
0.000133817
0.019982
-0.000230137
-0.0198042
0.0201286
-0.000189553
0.020244
-0.000146702
0.0203277
-0.000102533
0.0203793
-5.77079e-05
0.0203987
-1.26886e-05
0.020386
3.21491e-05
0.0203414
7.64764e-05
0.0202654
0.000119991
0.0201587
0.000162404
0.0200223
0.000203435
0.0198572
0.000242813
0.0196648
0.000280275
0.0194464
0.000315573
0.0192038
0.000348469
0.0189387
0.000378733
0.0186532
0.000406131
0.0183494
0.000430393
0.0180295
0.000451136
0.000467758
0.0234463
-0.000532169
-0.0231443
0.0237031
-0.000446334
0.0239144
-0.000358078
0.0240799
-0.000268027
0.0241991
-0.000176832
0.0242715
-8.5098e-05
0.024297
6.59008e-06
0.0242758
9.76578e-05
0.0242083
0.000187537
0.024095
0.000275663
0.023937
0.000361471
0.0237354
0.000444405
0.0234918
0.000523919
0.0232079
0.000599483
0.0228857
0.000670591
0.0225277
0.000736757
0.0221363
0.000797507
0.0217144
0.000852373
0.0212646
0.000900861
0.000942456
0.0260339
-0.000951242
-0.0256148
0.0263991
-0.000811605
0.0267098
-0.000668718
0.0269649
-0.000523183
0.0271638
-0.000375692
0.0273057
-0.000226982
0.0273901
-7.78373e-05
0.0274168
7.0919e-05
0.0273859
0.000218435
0.0272978
0.000363831
0.027153
0.000506212
0.0269528
0.000644677
0.0266983
0.00077833
0.0263915
0.000906291
0.0260344
0.00102771
0.0256294
0.00114177
0.0251792
0.00124768
0.0246869
0.0013447
0.0241556
0.00143213
0.00150932
0.0279109
-0.00147683
-0.0273853
0.0283779
-0.00127858
0.0287848
-0.00107569
0.0291305
-0.00086884
0.0294136
-0.000658799
0.0296331
-0.000446435
0.0297879
-0.000232719
0.0298776
-1.87097e-05
0.0299016
0.000194451
0.0298598
0.00040556
0.0297527
0.000613367
0.0295808
0.000816593
0.0293451
0.00101395
0.0290473
0.00120416
0.028689
0.00138598
0.0282726
0.00155819
0.0278006
0.00171964
0.0272761
0.00186922
0.0267023
0.00200594
0.00212884
0.0292198
-0.00209622
-0.0286004
0.0297785
-0.00183732
0.0302748
-0.00157197
0.0307069
-0.00130092
0.0310731
-0.00102502
0.0313719
-0.000745239
0.0316019
-0.00046271
0.0317619
-0.000178715
0.031851
0.000105327
0.0318687
0.000387888
0.0318147
0.000667355
0.0316893
0.000942061
0.0314929
0.00121031
0.0312267
0.00147039
0.030892
0.00172064
0.0304908
0.00195941
0.0300253
0.00218512
0.0294983
0.00239626
0.0289128
0.00259142
0.0027693
0.0300815
-0.00279583
-0.0293819
0.0307204
-0.00247624
0.0312965
-0.00214811
0.0318078
-0.00181222
0.0322522
-0.00146941
0.0326277
-0.00112072
0.0329324
-0.000767406
0.0331646
-0.000410963
0.033323
-5.30723e-05
0.0334065
0.000304418
0.0334143
0.000659537
0.0333462
0.00101023
0.0332021
0.00135438
0.0329826
0.00168988
0.0326886
0.00201459
0.0323216
0.00232644
0.0318834
0.00262338
0.0313761
0.00290348
0.0308027
0.00316487
0.0034058
0.030597
-0.00356218
-0.0298306
0.0313041
-0.00318329
0.0319496
-0.00279364
0.0325312
-0.00239387
0.0330466
-0.00198474
0.0334931
-0.00156731
0.0338687
-0.00114294
0.034171
-0.000713313
0.0343983
-0.000280375
0.034549
0.000153712
0.034622
0.000586627
0.0346162
0.00101594
0.0345315
0.00143913
0.0343677
0.00185368
0.0341252
0.00225704
0.033805
0.00264667
0.0334083
0.00302009
0.0329369
0.0033749
0.032393
0.00370877
0.00401947
0.0308498
-0.00438265
-0.0300294
0.0316134
-0.00394685
0.0323178
-0.00349799
0.0329603
-0.00303641
0.0335383
-0.0025627
0.0340488
-0.00207783
0.0344891
-0.00158329
0.0348568
-0.00108096
0.0351495
-0.000573066
0.0353653
-6.20814e-05
0.0355026
0.000449324
0.0355602
0.000958358
0.0355371
0.00146215
0.0354331
0.00195777
0.0352478
0.00244227
0.0349818
0.00291273
0.0346356
0.00336623
0.0342106
0.00379989
0.0337085
0.00421095
0.00459669
0.0309077
-0.00524589
-0.0300444
0.0317171
-0.00475629
0.0324704
-0.0042513
0.0331647
-0.00373069
0.0337968
-0.00319475
0.0343633
-0.00264441
0.0348613
-0.00208128
0.0352878
-0.00150748
0.0356403
-0.000925573
0.0359166
-0.000338362
0.0361148
0.000251149
0.0362333
0.000839829
0.036271
0.00142447
0.036227
0.00200181
0.0361007
0.00256856
0.035892
0.00312141
0.0356011
0.00365706
0.0352288
0.00417223
0.0347761
0.0046637
0.00512828
0.0308245
-0.00614209
-0.0299283
0.0316706
-0.00560241
0.0324642
-0.00504485
0.0332018
-0.00446833
0.0338799
-0.00387278
0.0344946
-0.00325913
0.0350425
-0.00262923
0.0355206
-0.00198559
0.0359262
-0.0013311
0.0362568
-0.000668961
0.0365104
-2.49366e-06
0.0366854
0.000664869
0.0367802
0.00132963
0.0367938
0.00198825
0.0367252
0.00263714
0.0365739
0.0032727
0.0363397
0.00389127
0.0360227
0.00448923
0.0356234
0.00506295
0.00560881
0.0306428
-0.00706315
-0.0297218
0.0315181
-0.00647769
0.0323447
-0.0058714
0.0331184
-0.00524209
0.033835
-0.00458937
0.0344903
-0.0039144
0.0350805
-0.00321948
0.0356026
-0.00250764
0.0360537
-0.00178223
0.0364316
-0.00104683
0.0367341
-0.000305057
0.0369596
0.000439386
0.0371065
0.00118278
0.0371733
0.00192138
0.0371591
0.00265137
0.0370629
0.00336889
0.0368841
0.00407006
0.0366224
0.00475092
0.0362779
0.00540751
0.00603583
0.0303955
-0.00800277
-0.0294559
0.0312943
-0.00737649
0.0321482
-0.00672535
0.0329521
-0.00604593
0.0337006
-0.0053379
0.0343893
-0.00460306
0.0350143
-0.00384452
0.0355726
-0.00306597
0.0360617
-0.00227133
0.0364794
-0.00146452
0.0368238
-0.000649435
0.0370931
0.000170039
0.0372859
0.000990037
0.0374006
0.00180666
0.037436
0.00261596
0.037391
0.00341392
0.0372646
0.00419644
0.0370562
0.00495935
0.0367653
0.00569839
0.00640925
0.0301077
-0.00895657
-0.0291539
0.0310264
-0.00829521
0.0319038
-0.00760268
0.0327327
-0.00687488
0.0335072
-0.00611239
0.0342225
-0.00531835
0.034875
-0.00449706
0.0354621
-0.00365307
0.0359816
-0.00279083
0.0364317
-0.00191458
0.0368107
-0.0010284
0.037117
-0.000136257
0.0373491
0.000757913
0.0375056
0.00165015
0.0375851
0.00253645
0.0375864
0.00341268
0.0375082
0.00427463
0.0373496
0.00511795
0.0371098
0.00593819
0.00673075
0.0297989
-0.00992241
-0.0288331
0.0307361
-0.00923237
0.0316342
-0.00850074
0.0324839
-0.00772461
0.0332786
-0.00690713
0.0340139
-0.00605365
0.0346869
-0.00517002
0.0352955
-0.00426167
0.0358381
-0.00333348
0.0363134
-0.00238987
0.03672
-0.00143496
0.0370565
-0.000472728
0.0373215
0.000492922
0.0375136
0.00145805
0.0376314
0.00241865
0.0376735
0.00337056
0.0376386
0.00430951
0.0375255
0.00523104
0.0373331
0.00613054
0.00700323
0.0294845
-0.0109009
-0.028506
0.0304407
-0.0101886
0.0313575
-0.00941756
0.0322236
-0.00859073
0.0330327
-0.00771618
0.0337813
-0.00680229
0.0344678
-0.00585649
0.035091
-0.00488487
0.03565
-0.00389249
0.0361439
-0.00288373
0.0365715
-0.00186263
0.0369319
-0.00083304
0.0372235
0.00020124
0.0374452
0.00123635
0.0375956
0.00226834
0.037673
0.00329307
0.0376763
0.00430626
0.037604
0.00530339
0.0374547
0.00627976
0.00723045
0.0291772
-0.011897
-0.0281811
0.0301548
-0.0111663
0.031088
-0.0103508
0.0319651
-0.00946781
0.0327818
-0.00853288
0.0335369
-0.0075574
0.0342303
-0.00654982
0.0348617
-0.00551633
0.035431
-0.00446177
0.0359375
-0.00339029
0.0363806
-0.00230565
0.036759
-0.00121151
0.0370718
-0.000111516
0.0373175
0.000990604
0.0374949
0.00209098
0.0376024
0.00318554
0.0376387
0.00427003
0.0376021
0.00533992
0.0374914
0.00639046
0.00741663
0.0288897
-0.0129233
-0.0278634
0.0298915
-0.012168
0.0308362
-0.0112955
0.0317166
-0.0103483
0.0325333
-0.00934957
0.033288
-0.00831209
0.0339821
-0.0072439
0.0346163
-0.00615051
0.0351907
-0.00503618
0.0357049
-0.00390456
0.0361584
-0.00275911
0.0365501
-0.00160325
0.036879
-0.000440422
0.0371439
0.000725768
0.0373433
0.00189156
0.0374759
0.00305297
0.0375401
0.00420577
0.0375346
0.00534548
0.0374577
0.00646731
0.0075662
0.0286424
-0.0140035
-0.0275622
0.0296631
-0.0131886
0.0306078
-0.0122402
0.0314809
-0.0112214
0.0322893
-0.010158
0.0330373
-0.00906003
0.033727
-0.00793364
0.0343595
-0.00678303
0.034935
-0.00561163
0.035453
-0.00442259
0.035913
-0.00321905
0.0363139
-0.00200419
0.0366548
-0.000781295
0.0369344
0.000446161
0.0371514
0.00167452
0.0373045
0.00289988
0.0373922
0.00411808
0.037413
0.00532467
0.0373655
0.00651488
0.00768361
0.0284641
-0.0273151
-0.0151525
0.0294771
-0.0142017
0.0304003
-0.0131633
0.031254
-0.0120752
0.032047
-0.0109509
0.0327836
-0.00979663
0.0334656
-0.00861565
0.0340935
-0.00741096
0.0346672
-0.00618532
0.0351862
-0.00494152
0.0356495
-0.00368244
0.0360565
-0.0024111
0.0364058
-0.00113068
0.0366965
0.000155457
0.0369273
0.00144374
0.0370969
0.00273035
0.0372038
0.00401118
0.0372466
0.00528182
0.037224
0.00653753
0.00777323
0.0225824
0.00437645
-0.00305552
-0.0239033
0.0212502
0.00450755
-0.00317531
0.0199064
0.00465175
-0.00330796
0.018551
0.00481196
-0.00345658
0.0171842
0.00499172
-0.00362495
0.0158067
0.00519513
-0.00381763
0.0144198
0.00542706
-0.00404011
0.0130256
0.00569314
-0.00429891
0.0116274
0.00599971
-0.00460153
0.0102302
0.00635355
-0.00495635
0.00884099
0.00676148
-0.0053723
0.00746961
0.00722966
-0.00585827
0.00612933
0.00776257
-0.00642229
0.00483793
0.00836158
-0.00707017
0.00361878
0.00902292
-0.00780378
0.00250217
0.00973517
-0.00861856
0.00152684
0.0104758
-0.00950048
0.00074162
0.0112071
-0.0104219
0.000207571
0.0118705
-0.0113364
0.0123791
-0.0121716
0.0225802
0.00569571
-0.0238995
0.0212495
0.00583824
0.0199071
0.00599412
0.018553
0.00616607
0.0171873
0.00635739
0.0158107
0.00657173
0.0144245
0.00681331
0.0130307
0.00708692
0.0116327
0.0073977
0.0102354
0.00775083
0.00884592
0.008151
0.00747396
0.00860162
0.0061329
0.00910362
0.00484063
0.00965385
0.00362063
0.0102429
0.00250337
0.0108524
0.00152772
0.0114515
0.000742617
0.0119922
0.000208747
0.0124043
0.0125879
0.0225306
0.00701138
-0.0238463
0.0212034
0.00716545
0.0198644
0.00733312
0.0185136
0.00751693
0.017151
0.00771991
0.0157775
0.00794529
0.0143941
0.00819666
0.0130031
0.00847793
0.0116078
0.00879303
0.0102131
0.00914556
0.00882598
0.00953808
0.00745638
0.00997122
0.00611767
0.0104423
0.00482776
0.0109438
0.00361022
0.0114605
0.00249552
0.0119671
0.00152252
0.0124245
0.000739963
0.0127748
0.00020803
0.0129363
0.0127959
0.0224341
0.00832156
-0.0237443
0.0211123
0.00848728
0.0197786
0.00866682
0.0184329
0.00886256
0.0170756
0.00907727
0.0157071
0.00931373
0.0143289
0.00957492
0.012943
0.00986385
0.0115527
0.0101833
0.0101631
0.0105352
0.00878121
0.01092
0.0074169
0.0113355
0.00608361
0.0117756
0.0047993
0.0122281
0.00358751
0.0126722
0.00247866
0.013076
0.00151138
0.0133917
0.000734045
0.0135521
0.000206154
0.0134642
0.0130021
0.0222911
0.00962447
-0.023594
0.0209765
0.00980193
0.0196499
0.00999338
0.0183114
0.0102011
0.0169612
0.0104275
0.0155999
0.010675
0.0142289
0.0109459
0.0128503
0.0112424
0.0114676
0.011566
0.0100856
0.0119171
0.00871167
0.0122939
0.00735557
0.0126916
0.0060308
0.0131004
0.0047553
0.0135036
0.00355258
0.013875
0.00245285
0.0141757
0.00149444
0.0143502
0.000725079
0.0143215
0.000203325
0.0139859
0.0132054
0.0221023
0.0109184
-0.0233962
0.0207965
0.0111077
0.0194789
0.011311
0.0181493
0.0115306
0.0168081
0.0117687
0.015456
0.0120271
0.0140943
0.0123076
0.0127253
0.0126114
0.0113524
0.0129389
0.00998076
0.0132888
0.00861746
0.0136572
0.00727247
0.0140366
0.0059593
0.0144136
0.00469586
0.014767
0.00350551
0.0150653
0.00241822
0.015263
0.0014718
0.0152966
0.00071318
0.0150801
0.000199615
0.0144995
0.013405
0.0218682
0.0122018
-0.0231516
0.020573
0.0124029
0.0192659
0.0126181
0.017947
0.0128495
0.0166166
0.0130991
0.0152756
0.0133682
0.0139253
0.0136579
0.0125681
0.0139686
0.0112075
0.0142995
0.00984863
0.0146477
0.0084987
0.0150072
0.00716774
0.0153676
0.00586925
0.0157121