/*--------------------------------*- C++ -*----------------------------------*\
| =========                 |                                                 |
| \\      /  F ield         | OpenFOAM: The Open Source CFD Toolbox           |
|  \\    /   O peration     | Version:  v1912                                 |
|   \\  /    A nd           | Website:  www.openfoam.com                      |
|    \\/     M anipulation  |                                                 |
\*---------------------------------------------------------------------------*/
FoamFile
{
    version     2.0;
    format      ascii;
    class       surfaceScalarField;
    location    "22.75";
    object      phi;
}
// * * * * * * * * * * * * * * * * * * * * * * * * * * * * * * * * * * * * * //

dimensions      [0 3 -1 0 0 0 0];
oriented        oriented;


internalField   nonuniform List<scalar> 
38030
(
-8.551e-06
-0.00797972
0.00798827
-2.72579e-05
-0.00733579
0.0073545
-5.41077e-05
-0.00674516
0.00677201
-8.71042e-05
-0.00620479
0.00623779
-0.000124422
-0.00571125
0.00574857
-0.000164514
-0.00526103
0.00530112
-0.000206094
-0.00485065
0.00489223
-0.000248103
-0.0044768
0.00451881
-0.00028968
-0.0041363
0.00417787
-0.000330137
-0.00382616
0.00386662
-0.000368936
-0.00354362
0.00358242
-0.000405669
-0.00328609
0.00332283
-0.000440043
-0.00305121
0.00308558
-0.000471864
-0.00283679
0.00286861
-0.000501025
-0.00264085
0.00267001
-0.000527495
-0.00246156
0.00248803
-0.00055131
-0.00229727
0.00232109
-0.000572567
-0.00214649
0.00216775
-0.000591408
-0.00200788
0.00202672
-0.000608023
-0.0018802
0.00189681
-0.000622636
-0.00176236
0.00177698
-0.000635501
-0.0016534
0.00166626
-0.000646895
-0.00155243
0.00156382
-0.000657112
-0.00145868
0.00146889
-0.000666456
-0.00137146
0.00138081
-0.000675239
-0.00129017
0.00129895
-0.000683769
-0.00121429
0.00122282
-0.000692351
-0.00114334
0.00115192
-0.000701286
-0.00107691
0.00108585
-0.00101456
0.00102416
-0.000710893
-7.51782e-06
-0.0079722
-2.59566e-05
-0.00731736
-5.2417e-05
-0.0067187
-8.46637e-05
-0.00617254
-0.000120828
-0.00567509
-0.000159348
-0.00522251
-0.000198928
-0.00481107
-0.000238503
-0.00443722
-0.000277211
-0.00409759
-0.000314364
-0.00378901
-0.000349424
-0.00350856
-0.000381989
-0.00325353
-0.00041177
-0.00302143
-0.000438578
-0.00280998
-0.000462315
-0.00261711
-0.000482958
-0.00244091
-0.000500555
-0.00227967
-0.000515212
-0.00213184
-0.000527087
-0.001996
-0.000536384
-0.0018709
-0.000543343
-0.0017554
-0.000548238
-0.0016485
-0.000551367
-0.0015493
-0.000553045
-0.001457
-0.000553601
-0.0013709
-0.000553368
-0.0012904
-0.000552681
-0.00121497
-0.000551864
-0.00114416
-0.000551237
-0.00107754
-0.00101465
-0.000551145
-7.12494e-06
-0.00796507
-2.49788e-05
-0.0072995
-5.06316e-05
-0.00669305
-8.1718e-05
-0.00614146
-0.000116301
-0.0056405
-0.000152781
-0.00518602
-0.000189844
-0.00477401
-0.000226416
-0.00440065
-0.000261628
-0.00406238
-0.000294791
-0.00375585
-0.000325369
-0.00347798
-0.000352961
-0.00322594
-0.000377282
-0.00299711
-0.00039815
-0.00278912
-0.00041547
-0.00259979
-0.000429229
-0.00242715
-0.000439481
-0.00226942
-0.000446345
-0.00212497
-0.000449991
-0.00199235
-0.000450637
-0.00187025
-0.000448542
-0.0017575
-0.000443999
-0.00165305
-0.000437328
-0.00155597
-0.000428872
-0.00146546
-0.000418985
-0.00138079
-0.000408032
-0.00130136
-0.000396375
-0.00122663
-0.000384368
-0.00115616
-0.000372346
-0.00108956
-0.00102637
-0.000360628
-6.88035e-06
-0.00795819
-2.40672e-05
-0.00728232
-4.86607e-05
-0.00666846
-7.82513e-05
-0.00611187
-0.000110857
-0.0056079
-0.000144847
-0.00515203
-0.000178889
-0.00473997
-0.000211897
-0.00436765
-0.000242998
-0.00403127
-0.0002715
-0.00372734
-0.000296868
-0.00345261
-0.000318702
-0.0032041
-0.00033672
-0.00297909
-0.000350743
-0.00277509
-0.00036068
-0.00258985
-0.000366525
-0.00242131
-0.000368338
-0.00226761
-0.000366247
-0.00212707
-0.000360433
-0.00199817
-0.00035113
-0.00187956
-0.000338612
-0.00177002
-0.000323193
-0.00166846
-0.00030522
-0.00157394
-0.000285062
-0.00148561
-0.000263108
-0.00140275
-0.000239758
-0.00132471
-0.000215415
-0.00125097
-0.000190477
-0.0011811
-0.000165325
-0.00111471
-0.0010514
-0.000140297
-6.65046e-06
-0.00795154
-2.30917e-05
-0.00726587
-4.64282e-05
-0.00664512
-7.42314e-05
-0.00608406
-0.000104493
-0.00557764
-0.000135564
-0.00512096
-0.000166095
-0.00470944
-0.000194994
-0.00433875
-0.000221383
-0.00400489
-0.00024457
-0.00370416
-0.00026402
-0.00343316
-0.000279334
-0.00318879
-0.000290231
-0.00296819
-0.000296533
-0.00276879
-0.000298153
-0.00258823
-0.000295088
-0.00242438
-0.000287404
-0.00227529
-0.000275234
-0.00213924
-0.00025877
-0.00201463
-0.000238257
-0.00190007
-0.000213988
-0.00179429
-0.000186295
-0.00169616
-0.000155549
-0.00160469
-0.000122152
-0.00151901
-8.65277e-05
-0.00143837
-4.91171e-05
-0.00136212
-1.03678e-05
-0.00128972
2.92748e-05
-0.00122075
6.93298e-05
-0.00115477
-0.00109135
0.000109283
-6.39607e-06
-0.00794515
-2.19959e-05
-0.00725027
-4.38888e-05
-0.00662323
-6.96322e-05
-0.00605832
-9.7203e-05
-0.00555007
-0.00012494
-0.00509323
-0.000151487
-0.00468289
-0.000175747
-0.00431449
-0.000196842
-0.00398379
-0.00021408
-0.00368692
-0.000226925
-0.00342032
-0.000234981
-0.00318073
-0.000237965
-0.00296521
-0.000235703
-0.00277106
-0.000228108
-0.00259583
-0.000215176
-0.00243731
-0.000196978
-0.00229349
-0.00017365
-0.00216256
-0.000145392
-0.00204289
-0.000112457
-0.001933
-7.51535e-05
-0.00183159
-3.38335e-05
-0.00173748
1.11085e-05
-0.00164963
5.9242e-05
-0.00156714
0.000110107
-0.00148923
0.000163222
-0.00141523
0.000218089
-0.00134459
0.000274207
-0.00127686
0.000331086
-0.00121165
-0.00114855
0.000388284
-6.10338e-06
-0.00793904
-2.0754e-05
-0.00723562
-4.1017e-05
-0.00660296
-6.44363e-05
-0.0060349
-8.89801e-05
-0.00552552
-0.000112982
-0.00506923
-0.000135084
-0.00466079
-0.000154191
-0.00429538
-0.000169426
-0.00396856
-0.000180098
-0.00367625
-0.000185675
-0.00341474
-0.00018576
-0.00318065
-0.000180073
-0.0029709
-0.000168437
-0.00278269
-0.000150765
-0.0026135
-0.000127053
-0.00246102
-9.73707e-05
-0.00232317
-6.1856e-05
-0.00219808
-2.07114e-05
-0.00208404
2.58008e-05
-0.00197952
7.73628e-05
-0.00188315
0.000133604
-0.00179372
0.000194108
-0.00171013
0.000258413
-0.00163145
0.000326021
-0.00155684
0.000396403
-0.00148562
0.000469009
-0.00141719
0.000543273
-0.00135113
0.000618622
-0.00128699
-0.00122437
0.000694451
-5.76856e-06
-0.00793328
-1.93548e-05
-0.00722204
-3.77989e-05
-0.00658452
-5.86324e-05
-0.00601407
-7.98189e-05
-0.00550434
-9.96929e-05
-0.00504935
-0.000116901
-0.00464358
-0.000130352
-0.00428193
-0.000139174
-0.00395973
-0.000142683
-0.00367274
-0.00014035
-0.00341707
-0.000131779
-0.00318922
-0.000116692
-0.00298598
-9.49092e-05
-0.00280447
-6.63421e-05
-0.00264207
-3.09825e-05
-0.00249638
1.11032e-05
-0.00236526
5.97786e-05
-0.00224675
0.000114841
-0.0021391
0.000176026
-0.0020407
0.000243006
-0.00195013
0.000315396
-0.00186611
0.000392759
-0.0017875
0.000474602
-0.00171329
0.000560389
-0.00164263
0.000649539
-0.00157477
0.00074144
-0.0015091
0.000835452
-0.00144514
0.000930911
-0.00138245
-0.00132058
0.00102711
-5.39074e-06
-0.00792789
-1.77935e-05
-0.00720963
-3.42266e-05
-0.00656809
-5.2212e-05
-0.00599608
-6.97135e-05
-0.00548683
-8.50715e-05
-0.00503399
-9.6942e-05
-0.00463171
-0.000104244
-0.00427463
-0.000106116
-0.00395786
-0.00010188
-0.00367697
-9.10156e-05
-0.00342794
-7.313e-05
-0.0032071
-4.79446e-05
-0.00301117
-1.5279e-05
-0.00283714
2.49599e-05
-0.0026823
7.27861e-05
-0.0025442
0.000128139
-0.00242061
0.000190889
-0.0023095
0.000260837
-0.00220905
0.000337719
-0.00211758
0.000421204
-0.00203362
0.000510899
-0.0019558
0.000606344
-0.00188294
0.000707022
-0.00181397
0.000812354
-0.00174796
0.00092171
-0.00168412
0.00103441
-0.0016218
0.00114974
-0.00156047
0.00126694
-0.00149965
-0.00143884
0.0013852
-4.97029e-06
-0.00792292
-1.60669e-05
-0.00719854
-3.02938e-05
-0.00655386
-4.51666e-05
-0.00598121
-5.86545e-05
-0.00547335
-6.911e-05
-0.00502354
-7.52039e-05
-0.00462562
-7.58706e-05
-0.00427396
-7.02633e-05
-0.00396347
-5.77171e-05
-0.00368952
-3.77185e-05
-0.00344794
-9.8819e-06
-0.00323494
2.60696e-05
-0.00304712
7.03183e-05
-0.00288139
0.000122963
-0.00273495
0.000184024
-0.00260527
0.000253451
-0.00249004
0.000331125
-0.00238718
0.000416856
-0.00229478
0.000510385
-0.00221111
0.000611386
-0.00213462
0.000719457
-0.00206387
0.000834128
-0.00199761
0.000954856
-0.0019347
0.00108103
-0.00187413
0.00121196
-0.00181505
0.00134691
-0.00175674
0.00148507
-0.00169863
0.00162559
-0.00164018
-0.00158082
0.00176756
-4.50717e-06
-0.00791841
-1.41721e-05
-0.00718887
-2.59935e-05
-0.00654204
-3.74853e-05
-0.00596972
-4.6628e-05
-0.0054642
-5.1793e-05
-0.00501837
-5.16719e-05
-0.00462574
-4.52208e-05
-0.00428041
-3.16124e-05
-0.00397708
-1.01987e-05
-0.00371093
1.95207e-05
-0.00347765
5.7923e-05
-0.00327334
0.000105281
-0.00309448
0.000161779
-0.00293789
0.000227519
-0.00280069
0.000302534
-0.00268028
0.000386784
-0.00257429
0.000480165
-0.00248056
0.000582501
-0.00239711
0.000693547
-0.00232216
0.000812984
-0.00225405
0.000940416
-0.00219131
0.00107536
-0.00213256
0.00121727
-0.0020766
0.00136548
-0.00202235
0.00151928
-0.00196885
0.00167784
-0.00191531
0.00184029
-0.00186108
0.00200567
-0.00180555
-0.00174808
0.00217294
-4.00096e-06
-0.00791441
-1.2105e-05
-0.00718077
-2.13167e-05
-0.00653283
-2.91534e-05
-0.00596188
-3.36141e-05
-0.00545974
-3.3096e-05
-0.00501889
-2.6319e-05
-0.00463251
-1.2267e-05
-0.00429446
9.86158e-06
-0.00399921
4.06925e-05
-0.00374176
8.07083e-05
-0.00351767
0.000130274
-0.00332291
0.000189655
-0.00315386
0.000259035
-0.00300727
0.000338523
-0.00288018
0.000428159
-0.00276992
0.000527921
-0.00267405
0.000637722
-0.00259036
0.000757407
-0.0025168
0.000886752
-0.0024515
0.00102545
-0.00239276
0.00117313
-0.00233898
0.0013293
-0.00228874
0.00149341
-0.00224071
0.00166477
-0.00219371
0.00184262
-0.0021467
0.00202609
-0.00209877
0.0022142
-0.00204919
0.00240588
-0.00199724
-0.00194217
0.00259997
-3.45056e-06
-0.00791096
-9.85983e-06
-0.00717436
-1.62518e-05
-0.00652643
-2.01518e-05
-0.00595798
-1.95858e-05
-0.00546031
-1.29851e-05
-0.00502549
8.94416e-07
-0.00464639
2.30345e-05
-0.0043166
5.42036e-05
-0.00403037
9.4999e-05
-0.00378256
0.00014588
-0.00356855
0.000207194
-0.00338422
0.000279195
-0.00322586
0.000362064
-0.00309013
0.000455912
-0.00297402
0.000560792
-0.0028748
0.000676696
-0.00278996
0.00080356
-0.00271722
0.000941256
-0.00265449
0.00108959
-0.00259984
0.00124828
-0.00255145
0.00141697
-0.00250767
0.0015952
-0.00246697
0.00178241
-0.00242791
0.0019779
-0.00238921
0.00218089
-0.00234968
0.00239043
-0.00230831
0.00260547
-0.00226423
0.00282483
-0.0022166
-0.00216454
0.0030472
-2.85269e-06
-0.0079081
-7.42874e-06
-0.00716978
-1.07841e-05
-0.00652308
-1.04567e-05
-0.00595831
-4.50952e-06
-0.00546626
8.58267e-06
-0.00503858
3.00207e-05
-0.00466783
6.07429e-05
-0.00434733
0.000101478
-0.00407111
0.000152788
-0.00383387
0.000215101
-0.00363086
0.000288741
-0.00345786
0.000373947
-0.00331107
0.000470889
-0.00318708
0.00057968
-0.00308281
0.000700379
-0.0029955
0.000833
-0.00292258
0.0009775
-0.00286172
0.00113378
-0.00281078
0.00130169
-0.00276774
0.00148099
-0.00273074
0.00167134
-0.00269803
0.00187233
-0.00266795
0.0020834
-0.00263898
0.00230388
-0.00260968
0.00253293
-0.00257874
0.00276959
-0.00254497
0.00301272
-0.00250736
0.00326102
-0.00246489
-0.00241654
0.00351302
-2.1961e-06
-0.00790591
-4.79979e-06
-0.00716718
-4.89739e-06
-0.00652298
-3.93232e-08
-0.00596317
1.1654e-05
-0.00547795
3.16582e-05
-0.00505859
6.11215e-05
-0.00469729
0.000100931
-0.00438714
0.000151768
-0.00412195
0.000214149
-0.00389625
0.000288466
-0.00370518
0.000375009
-0.0035444
0.000473996
-0.00341005
0.00058558
-0.00329866
0.00070987
-0.0032071
0.000846931
-0.00313256
0.000996789
-0.00307243
0.00115943
-0.00302436
0.0013348
-0.00298614
0.00152277
-0.00295571
0.00172316
-0.00293113
0.00193569
-0.00291056
0.00215998
-0.00289225
0.00239552
-0.00287453
0.00264166
-0.00285582
0.00289756
-0.00283464
0.00316223
-0.00280964
0.00343445
-0.00277958
0.00371281
-0.00274326
-0.00269942
0.00399569
-1.41486e-06
-0.00790449
-1.99295e-06
-0.0071666
1.42029e-06
-0.00652639
1.11282e-05
-0.00597288
2.89476e-05
-0.00549577
5.62977e-05
-0.00508594
9.42669e-05
-0.00473526
0.000143683
-0.00443655
0.000205169
-0.00418343
0.00027919
-0.00397027
0.000366091
-0.00379208
0.000466122
-0.00364444
0.000579466
-0.0035234
0.000706256
-0.00342545
0.000846585
-0.00334743
0.00100052
-0.00328649
0.00116809
-0.00324001
0.00134932
-0.00320559
0.00154417
-0.003181
0.00175259
-0.00316413
0.00197444
-0.00315298
0.00220951
-0.00314563
0.00245749
-0.00314023
0.00271793
-0.00313497
0.00299022
-0.00312811
0.00327355
-0.00311798
0.00356692
-0.003103
0.00386905
-0.00308172
0.00417845
-0.00305266
-0.00301429
0.00449332
-6.60948e-07
-0.00790383
9.77048e-07
-0.00716824
8.20022e-06
-0.00653362
2.30843e-05
-0.00598776
4.74176e-05
-0.0055201
8.25599e-05
-0.00512108
0.00012953
-0.00478223
0.000189085
-0.00449611
0.000261785
-0.00425613
0.000348031
-0.00405652
0.000448112
-0.00389216
0.000562226
-0.00375855
0.000690515
-0.00365169
0.000833076
-0.00356801
0.000989979
-0.00350434
0.00116128
-0.00345779
0.00134701
-0.00342574
0.00154721
-0.00340579
0.00176189
-0.00339568
0.00199103
-0.00339327
0.00223457
-0.00339652
0.00249239
-0.00340345
0.00276426
-0.00341209
0.00304981
-0.00342052
0.00334852
-0.00342682
0.00365964
-0.0034291
0.00398217
-0.00342553
0.00431483
-0.00341438
0.00465603
-0.00339386
-0.00336207
0.00500381
1.66518e-07
-0.007904
4.35318e-06
-0.00717243
1.5498e-05
-0.00654476
3.58624e-05
-0.00600812
6.7108e-05
-0.00555135
0.000110501
-0.00516447
0.00016698
-0.00483871
0.000237225
-0.00456635
0.000321719
-0.00434063
0.000420793
-0.00415559
0.000534668
-0.00400604
0.000663483
-0.00388736
0.00080732
-0.00379552
0.000966232
-0.00372692
0.00114025
-0.00367835
0.0013294
-0.00364694
0.00153372
-0.00363006
0.00175325
-0.00362532
0.00198802
-0.00363045
0.00223807
-0.00364332
0.00250342
-0.00366187
0.00278402
-0.00368406
0.00307978
-0.00370784
0.00339043
-0.00373117
0.00371557
-0.00375196
0.00405455
-0.00376808
0.00440644
-0.00377742
0.00476997
-0.00377791
0.00514348
-0.00376737
-0.00374348
0.00552489
1.09981e-06
-0.0079051
7.86596e-06
-0.00717919
2.32812e-05
-0.00656018
4.94823e-05
-0.00603432
8.80525e-05
-0.00558992
0.000140168
-0.00521659
0.000206677
-0.00490522
0.000288176
-0.00464785
0.000385062
-0.00443751
0.000497588
-0.00426812
0.000625895
-0.00413434
0.000770049
-0.00403152
0.000930066
-0.00395554
0.00110593
-0.00390279
0.00129763
-0.00387005
0.00150514
-0.00385445
0.00172847
-0.0038534
0.00196766
-0.0038645
0.00222274
-0.00388554
0.00249382
-0.00391439
0.00278096
-0.00394901
0.00308424
-0.00398733
0.00340366
-0.00402727
0.00373915
-0.00406666
0.00409045
-0.00410325
0.00445705
-0.00413468
0.00483816
-0.00415853
0.00523257
-0.00417232
0.00563861
-0.00417341
-0.00415895
0.00605407
2.01401e-06
-0.00790711
1.16043e-05
-0.00718878
3.15685e-05
-0.00658014
6.39609e-05
-0.00606672
0.000110276
-0.00563623
0.000171593
-0.0052779
0.000248665
-0.00498229
0.000341993
-0.00474118
0.000451884
-0.0045474
0.000578502
-0.00439474
0.000721901
-0.00427774
0.000882062
-0.00419168
0.00105892
-0.0041324
0.00125238
-0.00409625
0.00146236
-0.00408003
0.00168876
-0.00408086
0.00193156
-0.00409619
0.00219074
-0.00412368
0.00246636
-0.00416115
0.00275852
-0.00420655
0.00306735
-0.00425785
0.00339303
-0.00431302
0.00373573
-0.00436996
0.00409552
-0.00442645
0.00447237
-0.0044801
0.00486599
-0.00452831
0.00527579
-0.00456832
0.00570069
-0.00459722
0.00613908
-0.0046118
-0.00460855
0.00658868
2.99787e-06
-0.00791011
1.55858e-05
-0.00720137
4.0372e-05
-0.00660493
7.93098e-05
-0.00610565
0.000133793
-0.00569072
0.000204794
-0.00534891
0.000292962
-0.00507046
0.000398699
-0.00484692
0.000522216
-0.00467092
0.000663579
-0.0045361
0.000822748
-0.00443691
0.000999611
-0.00436854
0.00119401
-0.00432679
0.00140575
-0.00430799
0.00163465
-0.00430893
0.00188055
-0.00432676
0.00214332
-0.00435896
0.00242289
-0.00440326
0.00271928
-0.00445754
0.00303257
-0.00451984
0.00336295
-0.00458822
0.00371067
-0.00466074
0.00407603
-0.00473532
0.00445933
-0.00480975
0.00486078
-0.00488155
0.00528041
-0.00494794
0.0057179
-0.00500581
0.00617244
-0.00505176
0.00664255
-0.00508191
-0.00509194
0.00712594
4.08051e-06
-0.00791419
1.98194e-05
-0.00721711
4.96949e-05
-0.0066348
9.553e-05
-0.00615149
0.0001586
-0.00575379
0.000239761
-0.00543007
0.000339555
-0.00517025
0.000458277
-0.00496564
0.000596036
-0.00480868
0.000752801
-0.00469286
0.00092843
-0.00461254
0.00112271
-0.00456282
0.00133537
-0.00453945
0.00156612
-0.00453874
0.00181466
-0.00455747
0.00208072
-0.00459282
0.00236406
-0.0046423
0.00266451
-0.00470371
0.00298199
-0.00477503
0.00331655
-0.0048544
0.00366834
-0.00494002
0.00403768
-0.00503007
0.00442498
-0.00512262
0.00483076
-0.00521553
0.00525553
-0.00530633
0.00569969
-0.0053921
0.00616335
-0.00546946
0.00664608
-0.00553449
0.0071467
-0.00558253
-0.00560824
0.007663
5.23717e-06
-0.00791943
2.43001e-05
-0.00723617
5.95327e-05
-0.00667004
0.000112611
-0.00620457
0.000184675
-0.00582585
0.000276459
-0.00552185
0.000388389
-0.00528218
0.000520653
-0.0050979
0.000673258
-0.00496128
0.000846068
-0.00486567
0.00103884
-0.00480532
0.00125126
-0.00477524
0.00148293
-0.00477113
0.00173346
-0.00478927
0.00200242
-0.00482643
0.0022894
-0.0048798
0.00259402
-0.00494692
0.00291597
-0.00502565
0.00325503
-0.00511409
0.00361113
-0.0052105
0.00398435
-0.00531323
0.00437496
-0.00542068
0.00478346
-0.00553112
0.00521054
-0.00564262
0.00565704
-0.00575282
0.0061238
-0.00585886
0.00661149
-0.00595715
0.00712029
-0.00604328
0.00764951
-0.00611175
-0.00615591
0.00819718
6.45882e-06
-0.00792589
2.90228e-05
-0.00725874
6.98769e-05
-0.00671089
0.00013053
-0.00626522
0.000211975
-0.0059073
0.000314817
-0.00562469
0.000439363
-0.00540673
0.000585694
-0.00524423
0.000753711
-0.0051293
0.00094318
-0.00505514
0.00115376
-0.00501589
0.00138501
-0.00500649
0.00163646
-0.00502258
0.00190756
-0.00506038
0.00219777
-0.00511664
0.00250652
-0.00518854
0.00283327
-0.00527367
0.00317753
-0.00536991
0.00353888
-0.00547545
0.00391707
-0.00558868
0.00431198
-0.00570815
0.00472378
-0.00583248
0.00515291
-0.00596026
0.00560016
-0.00608986
0.00606662
-0.00621929
0.00655365
-0.00634589
0.00706262
-0.00646612
0.00759456
-0.00657522
0.0081496
-0.0066668
-0.00673258
0.00872627
7.74369e-06
-0.00793363
3.39869e-05
-0.00728498
8.07184e-05
-0.00675762
0.000149257
-0.00633376
0.000240438
-0.00599848
0.000354731
-0.00573899
0.000492325
-0.00554433
0.000653193
-0.0054051
0.000837135
-0.00531324
0.00104382
-0.00526182
0.0012728
-0.00524487
0.00152355
-0.00525725
0.00179549
-0.00529451
0.00208795
-0.00535284
0.00240026
-0.00542895
0.00273171
-0.00551999
0.00308157
-0.00562353
0.00344915
-0.00573749
0.00383381
-0.00586011
0.00423501
-0.00598987
0.00465237
-0.00612551
0.00508577
-0.00626588
0.00553544
-0.00640993
0.00600208
-0.00655649
0.0064869
-0.00670411
0.00699168
-0.00685067
0.0075186
-0.00699304
0.00806987
-0.0071265
0.00864693
-0.00724386
-0.00733487
0.00924923
9.09816e-06
-0.00794273
3.92032e-05
-0.00731509
9.20536e-05
-0.00681047
0.000168756
-0.00641046
0.00026998
-0.0060997
0.000396061
-0.00586507
0.000547069
-0.00569533
0.00072287
-0.0055809
0.000923166
-0.00551354
0.00114753
-0.00548619
0.00139543
-0.00549277
0.00166625
-0.00552807
0.00195931
-0.00558757
0.00227385
-0.00566739
0.00260908
-0.00576418
0.00296416
-0.00587506
0.0033382
-0.00599757
0.00373032
-0.00612961
0.00413961
-0.0062694
0.00456523
-0.00641549
0.00500643
-0.00656671
0.00546268
-0.00672213
0.00593375
-0.006881
0.00641994
-0.00704269
0.00692227
-0.00720644
0.00744266
-0.00737106
0.00798401
-0.00753439
0.00854999
-0.00769248
0.00914409
-0.00783796
-0.00795807
0.00976729
1.05473e-05
-0.00795328
4.47065e-05
-0.00734924
0.000103892
-0.00686966
0.000188986
-0.00649555
0.000300498
-0.00621121
0.000438629
-0.0060032
0.000603333
-0.00586004
0.00079437
-0.00577194
0.00101134
-0.00573051
0.00125374
-0.00572858
0.00152094
-0.00575997
0.00181225
-0.00581938
0.00212692
-0.00590224
0.00246412
-0.00600459
0.00282297
-0.00612303
0.00320253
-0.00625463
0.00360181
-0.00639685
0.00401975
-0.00654755
0.00445526
-0.00670491
0.0049072
-0.00686743
0.00537442
-0.00703394
0.00585587
-0.00720358
0.00635069
-0.00737581
0.0068584
-0.0075504
0.0073793
-0.00772733
0.0079148
-0.00790656
0.00846795
-0.00808754
0.00904374
-0.00826827
0.00964853
-0.00844274
-0.00859564
0.0102861
1.21626e-05
-0.00796544
5.05804e-05
-0.00738766
0.000116266
-0.00693534
0.000209904
-0.00658919
0.000331865
-0.00633317
0.00048222
-0.00615355
0.000660804
-0.00603862
0.000867265
-0.0059784
0.00110111
-0.00596436
0.00136173
-0.0059892
0.00164844
-0.00604669
0.00196048
-0.00613142
0.00229704
-0.00623879
0.00265723
-0.00636478
0.00304014
-0.00650594
0.0034448
-0.00665928
0.00387016
-0.00682221
0.00431511
-0.0069925
0.00477846
-0.00716825
0.00525888
-0.00734786
0.00575498
-0.00753004
0.00626524
-0.00771384
0.00678809
-0.00789867
0.00732208
-0.00808439
0.00786614
-0.00827139
0.00842014
-0.00846056
0.00898581
-0.0086532
0.00956802
-0.00885049
0.0101761
-0.00905078
-0.00924157
0.010822
1.4174e-05
-0.00797961
5.70242e-05
-0.00743051
0.000129244
-0.00700756
0.000231459
-0.00669141
0.000363925
-0.00646564
0.000526577
-0.00631621
0.000719116
-0.00623116
0.000941068
-0.00620035
0.00119183
-0.00621512
0.0014707
-0.00626808
0.00177693
-0.00635291
0.00210968
-0.00646418
0.0024681
-0.00659721
0.00285129
-0.00674798
0.00325834
-0.00691299
0.00368827
-0.00708922
0.0041401
-0.00727404
0.00461278
-0.00746518
0.00510517
-0.00766064
0.00561605
-0.00785874
0.00614402
-0.00805801
0.00668749
-0.0082573
0.00724457
-0.00845574
0.00781303
-0.00865285
0.00839035
-0.00884872
0.00897402
-0.00904423
0.00956228
-0.00924147
0.0101562
-0.00944441
0.0107651
-0.00965965
-0.00990021
0.0114237
1.7352e-05
-0.00799696
6.44189e-05
-0.00747758
0.000142885
-0.00708603
0.000253543
-0.00680207
0.000396467
-0.00660856
0.000571396
-0.00649114
0.000777861
-0.00643763
0.00101524
-0.00643773
0.00128281
-0.00648269
0.00157978
-0.00656504
0.00190528
-0.00667841
0.00225845
-0.00681734
0.00263837
-0.00697713
0.00304414
-0.00715375
0.00347487
-0.00734371
0.00392963
-0.00754399
0.00440756
-0.00775197
0.00490778
-0.00796539
0.00542941
-0.00818228
0.00597161
-0.00840093
0.00653347
-0.00861988
0.00711404
-0.00883788
0.00771222
-0.00905392
0.00832661
-0.00926724
0.0089553
-0.00947741
0.00959573
-0.00968465
0.0102443
-0.00989008
0.0108956
-0.0100957
0.0115446
-0.0103086
-0.0105523
0.0121967
0.00899192
4.60625e-05
-0.00903798
0.0089468
4.51212e-05
0.00890198
4.48216e-05
0.00885731
4.46663e-05
0.00881282
4.44926e-05
0.00876858
4.42433e-05
0.00872468
4.38963e-05
0.00868123
4.34451e-05
0.00863834
4.28901e-05
0.00859611
4.2235e-05
0.00855462
4.14848e-05
0.00851398
4.0645e-05
0.00847426
3.97219e-05
0.00843554
3.87213e-05
0.00839789
3.76495e-05
0.00836137
3.65123e-05
0.00832606
3.53156e-05
0.00829199
3.40651e-05
0.00825923
3.27658e-05
0.00822781
3.1423e-05
0.00819776
3.00413e-05
0.00816914
2.86255e-05
0.00814196
2.71797e-05
0.00811625
2.57082e-05
0.00809204
2.42129e-05
0.00806935
2.26906e-05
0.00804823
2.11217e-05
0.00802878
1.94444e-05
0.00801134
1.74454e-05
1.43717e-05
0.0102822
0.00016457
-0.0104007
0.0101625
0.000164789
0.0100422
0.000165118
0.00992158
0.000165309
0.00980086
0.000165216
0.00968033
0.000164768
0.0095603
0.000163932
0.00944104
0.000162699
0.00932286
0.000161071
0.00920604
0.000159059
0.00909085
0.000156677
0.00897755
0.000153945
0.00886639
0.000150881
0.0087576
0.000147507
0.00865141
0.000143842
0.00854801
0.000139908
0.0084476
0.000135727
0.00835035
0.000131316
0.00825642
0.000126697
0.00816596
0.000121886
0.0080791
0.000116901
0.00799596
0.000111759
0.00791667
0.000106473
0.00784132
0.000101057
0.00777002
9.55166e-05
0.00770286
8.98493e-05
0.00763995
8.40268e-05
0.00758143
7.79718e-05
0.00752738
7.14889e-05
6.41757e-05
0.0115376
0.000343529
-0.0117166
0.0113559
0.00034652
0.0111722
0.000348835
0.0109871
0.000350411
0.0108011
0.000351177
0.0106148
0.000351087
0.0104286
0.000350119
0.010243
0.000348272
0.0100586
0.000345556
0.00987563
0.000341994
0.00969469
0.000337616
0.00951618
0.000332458
0.0093405
0.000326557
0.00916805
0.000319955
0.0089992
0.000312693
0.00883429
0.000304816
0.00867366
0.000296364
0.00851759
0.000287379
0.00836639
0.000277901
0.00822031
0.000267968
0.00807959
0.000257617
0.00794447
0.00024688
0.00781516
0.000235789
0.00769184
0.000224371
0.00757471
0.00021265
0.00746392
0.000200635
0.00735963
0.000188319
0.00726194
0.000175664
0.00717084
0.000162586
0.000148989
0.0127486
0.000572204
-0.0129773
0.0125156
0.000579561
0.012279
0.000585393
0.0120397
0.000589705
0.0117984
0.00059248
0.0115558
0.000593704
0.0113126
0.000593373
0.0110693
0.000591501
0.0108268
0.000588113
0.0105855
0.000583247
0.0103462
0.000576951
0.0101094
0.000569281
0.00987563
0.000560297
0.00964552
0.000550066
0.00941956
0.000538655
0.00919824
0.000526133
0.00898203
0.000512569
0.00877138
0.000498032
0.0085667
0.000482586
0.00836837
0.000466296
0.00817676
0.000449221
0.00799222
0.00043142
0.00781507
0.000412946
0.00764559
0.000393851
0.00748406
0.000374181
0.00733072
0.000353975
0.00718577
0.000333268
0.00704935
0.000312083
0.00692149
0.000290443
0.000268411
0.0139072
0.000840849
-0.0141758
0.0136324
0.000854327
0.0133525
0.000865363
0.0130682
0.000873981
0.0127805
0.000880184
0.0124902
0.000883982
0.0121982
0.000885387
0.0119053
0.000884426
0.0116122
0.000881142
0.0113199
0.000875589
0.011029
0.000867835
0.0107403
0.000857955
0.0104546
0.000846037
0.0101725
0.000832171
0.00989469
0.000816454
0.00962184
0.000798985
0.00935455
0.000779863
0.00909339
0.000759185
0.00883893
0.000737047
0.00859168
0.000713543
0.00835215
0.000688761
0.00812078
0.000662787
0.00789802
0.000635704
0.00768428
0.000607592
0.00747993
0.000578531
0.00728531
0.000548601
0.00710069
0.000517886
0.00692629
0.000486479
0.00676224
0.000454491
0.000422091
0.0150071
0.00114074
-0.015307
0.0146992
0.00116222
0.0143843
0.00118028
0.0140634
0.00119494
0.0137374
0.00120619
0.0134073
0.00121405
0.0130741
0.00121854
0.0127389
0.00121971
0.0124024
0.00121761
0.0120657
0.0012123
0.0117296
0.00120387
0.0113952
0.00119241
0.0110632
0.00117805
0.0107345
0.00116089
0.0104098
0.00114107
0.0100901
0.0011187
0.00977606
0.00109393
0.00946837
0.00106687
0.00916775
0.00103767
0.00887486
0.00100644
0.00859032
0.000973302
0.00831473
0.000938377
0.00804865
0.000901779
0.00779262
0.00086362
0.00754713
0.00082402
0.00731263
0.000783105
0.0070895
0.000741015
0.00687806
0.000697913
0.00667856
0.000653996
0.000609515
0.0160439
0.00146411
-0.0163672
0.0157105
0.00149555
0.0153683
0.00152255
0.0150181
0.00154507
0.0146612
0.00156313
0.0142985
0.00157671
0.0139312
0.00158585
0.0135604
0.00159059
0.013187
0.00159097
0.0128122
0.0015871
0.012437
0.00157905
0.0120625
0.00156695
0.0116896
0.00155092
0.0113194
0.00153112
0.0109528
0.00150769
0.0105907
0.00148079
0.010234
0.00145059
0.00988363
0.00141724
0.00954038
0.00138092
0.00920506
0.00134177
0.00887842
0.00129994
0.0085612
0.00125559
0.00825411
0.00120887
0.0079578
0.00115992
0.00767292
0.00110891
0.00740003
0.001056
0.00713965
0.00100139
0.00689223
0.000945332
0.00665813
0.000888095
0.000830021
0.0170143
0.00180407
-0.0173543
0.0166624
0.00184745
0.0162997
0.00188532
0.0159271
0.00191763
0.0155459
0.00194433
0.0151572
0.00196542
0.0147622
0.0019809
0.0143619
0.0019908
0.0139577
0.00199519
0.0135507
0.00199414
0.013142
0.00198775
0.0127328
0.00197616
0.0123242
0.00195951
0.0119173
0.00193797
0.0115133
0.00191172
0.0111131
0.00188094
0.0107179
0.00184582
0.0103286
0.00180656
0.00994617
0.00176334
0.00957157
0.00171637
0.0092057
0.00166581
0.00884944
0.00161186
0.00850363
0.00155468
0.00816909
0.00149446
0.00784659
0.0014314
0.00753686
0.00136573
0.00724056
0.00129769
0.00695829
0.00122761
0.00669054
0.00115584
0.00108284
0.0179168
0.00215453
-0.0182672
0.0175524
0.00221181
0.0171752
0.00226251
0.0167863
0.00230652
0.0163869
0.00234377
0.0159781
0.0023742
0.0155612
0.00239781
0.0151374
0.00241461
0.014708
0.00242463
0.0142741
0.00242796
0.0138372
0.0024247
0.0133984
0.00241498
0.0129589
0.00239896
0.0125201
0.00237682
0.012083
0.00234876
0.011649
0.00231498
0.0112191
0.00227571
0.0107945
0.00223117
0.0103762
0.00218158
0.00996545
0.00212714
0.00956317
0.00206808
0.00917043
0.0020046
0.0087882
0.0019369
0.00841746
0.0018652
0.00805915
0.00178972
0.00771414
0.00171073
0.00738329
0.00162855
0.00706734
0.00154356
0.00676696
0.00145622
0.0013671
0.0187506
0.00251019
-0.0191063
0.0183791
0.00258326
0.0179929
0.00264869
0.0175932
0.00270631
0.0171809
0.002756
0.0167575
0.00279766
0.016324
0.00283124
0.0158819
0.00285672
0.0154324
0.00287413
0.0149769
0.00288351
0.0145166
0.00288497
0.014053
0.00287864
0.0135872
0.00286467
0.0131208
0.00284325
0.012655
0.0028146
0.012191
0.00277894
0.0117302
0.00273651
0.0112738
0.00268756
0.0108231
0.00263233
0.0103792
0.00257105
0.0099433
0.00250397
0.0095166
0.0024313
0.00910023
0.00235327
0.00869533
0.0022701
0.00830299
0.00218206
0.0079243
0.00208943
0.00756026
0.00199258
0.00721183
0.00189198
0.00687986
0.0017882
0.00168192
0.0195161
0.00286647
-0.0198724
0.0191423
0.00295713
0.0187519
0.00303911
0.018346
0.00311219
0.0179258
0.00317618
0.0174925
0.00323092
0.0170475
0.00327632
0.0165919
0.00331232
0.0161271
0.0033389
0.0156545
0.00335609
0.0151755
0.00336397
0.0146915
0.00336265
0.0142039
0.00335229
0.0137141
0.00333307
0.0132234
0.00330521
0.0127334
0.00326896
0.0122454
0.00322456
0.0117606
0.00317229
0.0112806
0.00311239
0.0108065
0.00304512
0.0103397
0.00297073
0.00988159
0.00288946
0.00943334
0.00280152
0.00899629
0.00270716
0.00857172
0.00260663
0.0081609
0.00250025
0.00776505
0.00238843
0.00738535
0.00227169
0.00702283
0.00215071
0.00202634
0.0202147
0.00321946
-0.0205676
0.0198424
0.00332937
0.0194519
0.00342963
0.0190442
0.00351992
0.0186203
0.0036
0.0181816
0.00366964
0.0177293
0.00372869
0.0172646
0.00377703
0.0167889
0.00381459
0.0163036
0.00384138
0.0158101
0.00385743
0.0153099
0.00386284
0.0148045