/*--------------------------------*- C++ -*----------------------------------*\
  =========                 |
  \\      /  F ield         | OpenFOAM: The Open Source CFD Toolbox
   \\    /   O peration     | Website:  https://openfoam.org
    \\  /    A nd           | Version:  6.0
     \\/     M anipulation  |
\*---------------------------------------------------------------------------*/
FoamFile
{
    version     2.0;
    format      ascii;
    class       volScalarField;
    location    "6.5001";
    object      p;
}
// * * * * * * * * * * * * * * * * * * * * * * * * * * * * * * * * * * * * * //

dimensions      [0 2 -2 0 0 0 0];

internalField   nonuniform List<scalar> 
19200
(
-79.5273
-71.3137
-65.1677
-60.0152
-55.2566
-50.9035
-46.9353
-43.3074
-39.9858
-36.9436
-34.1565
-31.6026
-29.2619
-27.1159
-25.1479
-23.3421
-21.6843
-20.1615
-18.7617
-17.474
-16.2885
-15.1962
-14.1889
-13.2592
-12.4006
-11.6071
-10.8732
-10.1938
-9.56447
-8.98524
-79.8024
-71.6044
-65.4578
-60.2957
-55.525
-51.1591
-47.178
-43.5377
-40.2045
-37.1515
-34.3547
-31.7921
-29.4434
-27.2904
-25.3159
-23.5044
-21.8414
-20.3139
-18.9097
-17.6181
-16.4289
-15.3332
-14.3227
-13.3901
-12.5286
-11.7323
-10.9958
-10.3138
-9.68166
-9.10089
-80.0896
-71.8948
-65.7455
-60.5744
-55.7918
-51.4132
-47.4194
-43.7667
-40.422
-37.3585
-34.5521
-31.9807
-29.6243
-27.4643
-25.4835
-23.6663
-21.9982
-20.466
-19.0576
-17.762
-16.5692
-15.4701
-14.4565
-13.5209
-12.6565
-11.8575
-11.1184
-10.4338
-9.79888
-9.21664
-80.3844
-72.1874
-66.0324
-60.8517
-56.0571
-51.6658
-47.6593
-43.9944
-40.6383
-37.5643
-34.7484
-32.1685
-29.8043
-27.6374
-25.6504
-23.8276
-22.1544
-20.6176
-19.205
-17.9056
-16.7092
-15.6068
-14.5901
-13.6515
-12.7844
-11.9827
-11.241
-10.5537
-9.91604
-9.33243
-80.6831
-72.4815
-66.3191
-61.1281
-56.3213
-51.9171
-47.8978
-44.2208
-40.8533
-37.7689
-34.9436
-32.3552
-29.9835
-27.8097
-25.8166
-23.9882
-22.3101
-20.7687
-19.352
-18.0488
-16.8489
-15.7432
-14.7234
-13.7819
-12.912
-12.1077
-11.3634
-10.6735
-10.0331
-9.44823
-80.9838
-72.7767
-66.6056
-61.4036
-56.5843
-52.1671
-48.1349
-44.4457
-41.0669
-37.9722
-35.1375
-32.5408
-30.1615
-27.981
-25.9819
-24.1481
-22.4651
-20.9193
-19.4985
-18.1915
-16.9882
-15.8793
-14.8564
-13.9121
-13.0395
-12.2325
-11.4858
-10.7932
-10.1501
-9.56403
-81.2853
-73.0721
-66.8917
-61.6781
-56.846
-52.4156
-48.3706
-44.6692
-41.2791
-38.1742
-35.3302
-32.7252
-30.3385
-28.1514
-26.1463
-24.3072
-22.6193
-21.0691
-19.6443
-18.3336
-17.1269
-16.0149
-14.9891
-14.042
-13.1667
-12.3571
-11.6079
-10.9127
-10.267
-9.67979
-81.5869
-73.3674
-67.1771
-61.9515
-57.1063
-52.6626
-48.6046
-44.891
-41.4897
-38.3746
-35.5215
-32.9082
-30.5142
-28.3205
-26.3096
-24.4652
-22.7726
-21.2181
-19.7894
-18.4752
-17.2651
-16.15
-15.1213
-14.1714
-13.2935
-12.4815
-11.7297
-11.032
-10.3837
-9.7955
-81.888
-73.6619
-67.4616
-62.2236
-57.3651
-52.9079
-48.8369
-45.1111
-41.6987
-38.5734
-35.7112
-33.0898
-30.6886
-28.4885
-26.4718
-24.6222
-22.9249
-21.3662
-19.9337
-18.6159
-17.4026
-16.2845
-15.253
-14.3004
-13.42
-12.6055
-11.8513
-11.1511
-10.5001
-9.91111
-82.1882
-73.9554
-67.7447
-62.4942
-57.6222
-53.1514
-49.0674
-45.3294
-41.9058
-38.7704
-35.8992
-33.2698
-30.8614
-28.655
-26.6326
-24.778
-23.0762
-21.5134
-20.077
-18.7558
-17.5394
-16.4183
-15.384
-14.4289
-13.5459
-12.7291
-11.9726
-11.2699
-10.6164
-10.0266
-82.4871
-74.2475
-68.0262
-62.7631
-57.8774
-53.3929
-49.2958
-45.5456
-42.1109
-38.9655
-36.0854
-33.448
-31.0327
-28.8199
-26.792
-24.9325
-23.2262
-21.6593
-20.2193
-18.8948
-17.6752
-16.5513
-15.5144
-14.5567
-13.6714
-12.8522
-12.0934
-11.3883
-10.7324
-10.142
-82.7845
-74.538
-68.306
-63.0299
-58.1305
-53.6323
-49.522
-45.7596
-42.3138
-39.1585
-36.2695
-33.6244
-31.2021
-28.9832
-26.9499
-25.0854
-23.3748
-21.804
-20.3604
-19.0326
-17.8101
-16.6834
-15.6439
-14.6838
-13.7962
-12.9748
-12.2138
-11.5064
-10.8481
-10.2572
-83.08
-74.8266
-68.5837
-63.2946
-58.3813
-53.8693
-49.7459
-45.9713
-42.5145
-39.3493
-36.4516
-33.7987
-31.3696
-29.1447
-27.106
-25.2368
-23.5218
-21.9472
-20.5002
-19.1692
-17.9438
-16.8144
-15.7725
-14.8101
-13.9202
-13.0967
-12.3337
-11.624
-10.9634
-10.3721
-83.3735
-75.113
-68.8591
-63.5569
-58.6296
-54.1037
-49.9671
-46.1805
-42.7126
-39.5377
-36.6313
-33.9708
-31.5349
-29.3041
-27.2601
-25.3863
-23.6672
-22.0888
-20.6385
-19.3044
-18.0762
-16.9443
-15.9
-14.9354
-14.0434
-13.2179
-12.4529
-11.7411
-11.0783
-10.4868
-83.6646
-75.397
-69.132
-63.8165
-58.8752
-54.3354
-50.1856
-46.3869
-42.9081
-39.7235
-36.8085
-34.1404
-31.698
-29.4613
-27.4122
-25.5338
-23.8107
-22.2287
-20.775
-19.4381
-18.2072
-17.0728
-16.0262
-15.0595
-14.1656
-13.3382
-12.5714
-11.8575
-11.1926
-10.6012
-83.9533
-75.6786
-69.4023
-64.0734
-59.1179
-54.5641
-50.4012
-46.5903
-43.1008
-39.9065
-36.983
-34.3075
-31.8585
-29.6161
-27.562
-25.6791
-23.952
-22.3665
-20.9097
-19.5699
-18.3365
-17.1998
-16.1511
-15.1824
-14.2866
-13.4575
-12.689
-11.9732
-11.3064
-10.7151
-84.2395
-75.9574
-69.6698
-64.3273
-59.3575
-54.7897
-50.6136
-46.7907
-43.2904
-40.0865
-37.1546
-34.4718
-32.0163
-29.7684
-27.7093
-25.8221
-24.0911
-22.5022
-21.0423
-19.6998
-18.4639
-17.325
-16.2743
-15.3038
-14.4063
-13.5756
-12.8055
-12.088
-11.4195
-10.8286
-84.5229
-76.2334
-69.9342
-64.578
-59.5938
-55.012
-50.8227
-46.9878
-43.4767
-40.2633
-37.3232
-34.633
-32.1713
-29.9178
-27.8538
-25.9623
-24.2276
-22.6354
-21.1725
-19.8274
-18.5891
-17.4481
-16.3955
-15.4234
-14.5244
-13.6923
-12.9208
-12.2018
-11.5316
-10.9413
-84.8035
-76.5065
-70.1955
-64.8254
-59.8268
-55.2308
-51.0283
-47.1814
-43.6596
-40.4368
-37.4884
-34.7911
-32.3231
-30.0641
-27.9954
-26.0997
-24.3613
-22.7658
-21.3001
-19.9524
-18.7119
-17.569
-16.5146
-15.5409
-14.6406
-13.8072
-13.0346
-12.3142
-11.6427
-11.0532
-85.0814
-76.7765
-70.4536
-65.0694
-60.0561
-55.4459
-51.2302
-47.3713
-43.8388
-40.6067
-37.6501
-34.9457
-32.4715
-30.2072
-28.1338
-26.234
-24.492
-22.8933
-21.4248
-20.0746
-18.832
-17.6871
-16.6312
-15.6561
-14.7545
-13.9201
-13.1465
-12.425
-11.7524
-11.1641
-85.3567
-77.0436
-70.7084
-65.3098
-60.2817
-55.6572
-51.4282
-47.5573
-44.0143
-40.7728
-37.8082
-35.0967
-32.6164
-30.3468
-28.2687
-26.3649
-24.6193
-23.0174
-21.5462
-20.1936
-18.9489
-17.8022
-16.7448
-15.7684
-14.8658
-14.0306
-13.2562
-12.5339
-11.8604
-11.2735
-85.6297
-77.3076
-70.9598
-65.5465
-60.5033
-55.8644
-51.6221
-47.7393
-44.1857
-40.935
-37.9623
-35.2439
-32.7576
-30.4826
-28.4
-26.4921
-24.743
-23.138
-21.664
-20.3091
-19.0623
-17.9139
-16.855
-15.8774
-14.9739
-14.138
-13.3632
-12.6402
-11.9661
-11.3809
-85.9007
-77.5688
-71.2077
-65.7793
-60.7208
-56.0673
-51.8117
-47.917
-44.3528
-41.093
-38.1124
-35.3871
-32.8947
-30.6146
-28.5273
-26.6154
-24.8627
-23.2547
-21.7779
-20.4205
-19.1717
-18.0216
-16.9612
-15.9826
-15.0783
-14.2419
-13.4668
-12.7436
-12.0692
-11.486
-86.1704
-77.8271
-71.452
-66.0081
-60.9339
-56.2658
-51.9968
-48.0902
-44.5156
-41.2467
-38.2582
-35.526
-33.0278
-30.7424
-28.6506
-26.7346
-24.9784
-23.3671
-21.8875
-20.5277
-19.2767
-18.1248
-17.063
-16.0832
-15.1782
-14.3414
-13.5663
-12.8431
-12.1688
-11.5885
-86.4391
-78.0823
-71.6923
-66.2326
-61.1425
-56.4596
-52.1773
-48.2588
-44.6738
-41.3959
-38.3996
-35.6607
-33.1566
-30.866
-28.7696
-26.8496
-25.0897
-23.4751
-21.9926
-20.6301
-19.3768
-18.2229
-17.1595
-16.1785
-15.2727
-14.4356
-13.6606
-12.9376
-12.264
-11.6873
-86.7071
-78.334
-71.9284
-66.4525
-61.3463
-56.6484
-52.3527
-48.4225
-44.8273
-41.5406
-38.5366
-35.791
-33.281
-30.9853
-28.8843
-26.9601
-25.1965
-23.5785
-22.0929
-20.7275
-19.4717
-18.3156
-17.2503
-16.2678
-15.3608
-14.5232
-13.7481
-13.0255
-12.3529
-11.7791
-86.9782
-78.5835
-72.1602
-66.6673
-61.5446
-56.8316
-52.5227
-48.5809
-44.9758
-41.6803
-38.6689
-35.9168
-33.401
-31.1002
-28.9946
-27.0662
-25.2987
-23.6771
-22.1882
-20.8197
-19.561
-18.4023
-17.3346
-16.3502
-15.4419
-14.6034
-13.8282
-13.1061
-12.434
-11.8619
-87.2627
-78.8345
-72.3871
-66.8756
-61.7361
-57.0083
-52.6864
-48.7335
-45.1187
-41.8149
-38.7962
-36.0377
-33.5164
-31.2106
-29.1004
-27.1678
-25.3963
-23.771
-22.2784
-20.9065
-19.6445
-18.4825
-17.412
-16.4249
-15.5146
-14.675
-13.8997
-13.1784
-12.5079
-11.9434
-87.5648
-79.0859
-72.6065
-67.0756
-61.9204
-57.1785
-52.8443
-48.8807
-45.2565
-41.9447
-38.9189
-36.1543
-33.6275
-31.3167
-29.202
-27.2652
-25.4897
-23.8604
-22.364
-20.9882
-19.7222
-18.5562
-17.4815
-16.4904
-15.5762
-14.7333
-13.9553
-13.2324
-12.5679
-12.0298
-87.8365
-79.3195
-72.8148
-67.2677
-62.0991
-57.3446
-52.9987
-49.0246
-45.3913
-42.0715
-39.0388
-36.2681
-33.7358
-31.42
-29.3008
-27.3596
-25.5799
-23.9466
-22.446
-21.0659
-19.7954
-18.6246
-17.5445
-16.5471
-15.6257
-14.7739
-13.984
-13.2492
-12.5858
-12.0586
-91.1372
-91.1233
-91.0832
-91.0462
-91.0101
-90.9687
-90.9201
-90.864
-90.8003
-90.729
-90.6498
-90.5628
-90.468
-90.3655
-90.2554
-90.1381
-90.0136
-89.8823
-89.7443
-89.6001
-89.4499
-89.2941
-89.1332
-88.9676
-88.7982
-88.626
-88.4529
-88.2818
-88.1187
-87.9713
-82.4703
-82.4795
-82.4706
-82.4547
-82.4327
-82.4025
-82.3635
-82.3159
-82.2599
-82.1959
-82.1237
-82.0435
-81.9555
-81.8598
-81.7566
-81.6462
-81.5286
-81.4042
-81.2732
-81.136
-80.9927
-80.8438
-80.6897
-80.5307
-80.3675
-80.2008
-80.0316
-79.8606
-79.6887
-79.5109
-75.7079
-75.7319
-75.7422
-75.7411
-75.7303
-75.7103
-75.6811
-75.6432
-75.5968
-75.5421
-75.4792
-75.4084
-75.3299
-75.2437
-75.15
-75.0492
-74.9414
-74.8268
-74.7057
-74.5783
-74.4449
-74.3058
-74.1613
-74.0116
-73.8572
-73.6983
-73.535
-73.367
-73.1934
-73.0104
-69.8752
-69.9066
-69.9269
-69.9356
-69.9339
-69.9228
-69.9028
-69.8741
-69.837
-69.7916
-69.7383
-69.6771
-69.6082
-69.5319
-69.4483
-69.3577
-69.2602
-69.1561
-69.0455
-68.9288
-68.8061
-68.6776
-68.5437
-68.4043
-68.2598
-68.1102
-67.9553
-67.7947
-67.6277
-67.4528
-64.4388
-64.4743
-64.5004
-64.516
-64.5215
-64.5178
-64.5053
-64.4844
-64.4551
-64.4179
-64.3728
-64.3201
-64.26
-64.1926
-64.1182
-64.037
-63.9491
-63.8548
-63.7543
-63.6477
-63.5352
-63.4171
-63.2935
-63.1645
-63.0302
-62.8905
-62.7453
-62.5943
-62.437
-62.2727
-59.453
-59.4908
-59.5204
-59.5405
-59.5509
-59.5524
-59.5454
-59.5302
-59.5071
-59.4762
-59.4377
-59.392
-59.339
-59.2791
-59.2125
-59.1393
-59.0597
-58.9739
-58.8821
-58.7845
-58.6812
-58.5724
-58.4583
-58.3388
-58.2141
-58.0841
-57.9486
-57.8075
-57.6603
-57.5067
-54.9178
-54.9563
-54.9876
-55.0099
-55.0232
-55.0279
-55.0245
-55.0134
-54.9945
-54.9682
-54.9347
-54.8942
-54.8468
-54.7928
-54.7323
-54.6655
-54.5927
-54.5139
-54.4294
-54.3394
-54.244
-54.1432
-54.0373
-53.9263
-53.8102
-53.689
-53.5626
-53.4307
-53.2932
-53.1498
-50.7945
-50.8327
-50.864
-50.887
-50.9015
-50.908
-50.9067
-50.8979
-50.8819
-50.8587
-50.8286
-50.7918
-50.7485
-50.6988
-50.643
-50.5813
-50.5137
-50.4405
-50.3619
-50.278
-50.189
-50.095
-49.9961
-49.8923
-49.7837
-49.6703
-49.5519
-49.4285
-49.2998
-49.1656
-47.047
-47.0839
-47.1144
-47.137
-47.1515
-47.1585
-47.1581
-47.1505
-47.136
-47.1147
-47.0869
-47.0526
-47.0121
-46.9655
-46.9131
-46.8551
-46.7915
-46.7227
-46.6486
-46.5697
-46.4858
-46.3973
-46.3042
-46.2065
-46.1043
-45.9975
-45.8862
-45.7702
-45.6493
-45.5235
-43.6417
-43.6767
-43.7055
-43.727
-43.7408
-43.7474
-43.747
-43.7398
-43.7259
-43.7056
-43.679
-43.6462
-43.6075
-43.5631
-43.5131
-43.4577
-43.3971
-43.3315
-43.261
-43.1859
-43.1062
-43.0221
-42.9337
-42.8411
-42.7443
-42.6433
-42.538
-42.4285
-42.3144
-42.1959
-40.5457
-40.5786
-40.6054
-40.6252
-40.6378
-40.6434
-40.6424
-40.6349
-40.6211
-40.601
-40.5749
-40.543
-40.5054
-40.4623
-40.4139
-40.3604
-40.3019
-40.2387
-40.1709
-40.0987
-40.0223
-39.9418
-39.8573
-39.7688
-39.6766
-39.5804
-39.4805
-39.3766
-39.2685
-39.1563
-37.7285
-37.7589
-37.7836
-37.8014
-37.8125
-37.8169
-37.8149
-37.8067
-37.7924
-37.7722
-37.7462
-37.7145
-37.6775
-37.6352
-37.5878
-37.5355
-37.4786
-37.4171
-37.3513
-37.2814
-37.2076
-37.1299
-37.0486
-36.9636
-36.8752
-36.7833
-36.6878
-36.5888
-36.4861
-36.3795
-35.1618
-35.1899
-35.2122
-35.2281
-35.2374
-35.2404
-35.2372
-35.2281
-35.2131
-35.1923
-35.1661
-35.1344
-35.0975
-35.0556
-35.0088
-34.9573
-34.9014
-34.8412
-34.777
-34.7089
-34.637
-34.5617
-34.4829
-34.4009
-34.3158
-34.2275
-34.136
-34.0414
-33.9433
-33.8418
-32.8203
-32.8459
-32.8661
-32.8799
-32.8875
-32.889
-32.8845
-32.8743
-32.8584
-32.837
-32.8103
-32.7784
-32.7414
-32.6996
-32.6531
-32.6022
-32.547
-32.4877
-32.4246
-32.3578
-32.2876
-32.2141
-32.1375
-32.058
-31.9757
-31.8906
-31.8027
-31.7119
-31.6181
-31.5212
-30.6811
-30.7045
-30.7224
-30.7343
-30.7402
-30.7402
-30.7344
-30.7231
-30.7063
-30.6841
-30.6568
-30.6245
-30.5873
-30.5454
-30.499
-30.4484
-30.3936
-30.335
-30.2727
-30.207
-30.1381
-30.0661
-29.9914
-29.914
-29.8341
-29.7518
-29.6671
-29.5799
-29.4901
-29.3974
-28.7238
-28.7451
-28.761
-28.7711
-28.7753
-28.7738
-28.7668
-28.7544
-28.7366
-28.7137
-28.6857
-28.6529
-28.6154
-28.5734
-28.527
-28.4764
-28.422
-28.3638
-28.3022
-28.2373
-28.1694
-28.0987
-28.0255
-27.95
-27.8722
-27.7925
-27.7107
-27.6268
-27.5406
-27.4519
-26.9305
-26.9498
-26.9638
-26.9722
-26.9749
-26.972
-26.9638
-26.9503
-26.9316
-26.9079
-26.8793
-26.846
-26.8081
-26.7658
-26.7193
-26.6688
-26.6146
-26.5567
-26.4955
-26.4313
-26.3642
-26.2945
-26.2226
-26.1487
-26.0729
-25.9954
-25.9163
-25.8355
-25.7529
-25.668
-25.285
-25.3025
-25.3148
-25.3216
-25.3228
-25.3187
-25.3093
-25.2948
-25.2753
-25.2508
-25.2216
-25.1878
-25.1496
-25.107
-25.0604
-25.0098
-24.9556
-24.898
-24.8371
-24.7733
-24.7069
-24.6381
-24.5673
-24.4947
-24.4206
-24.3452
-24.2686
-24.1909
-24.1116
-24.0305
-23.7732
-23.789
-23.7997
-23.8051
-23.805
-23.7997
-23.7893
-23.7738
-23.7535
-23.7283
-23.6986
-23.6643
-23.6256
-23.5828
-23.536
-23.4854
-23.4312
-23.3737
-23.313
-23.2496
-23.1837
-23.1156
-23.0456
-22.9742
-22.9016
-22.8281
-22.7538
-22.6789
-22.603
-22.5258
-22.3825
-22.3967
-22.406
-22.41
-22.4087
-22.4023
-22.3909
-22.3747
-22.3536
-22.3278
-22.2975
-22.2627
-22.2237
-22.1806
-22.1336
-22.0829
-22.0287
-21.9712
-21.9107
-21.8475
-21.782
-21.7143
-21.6451
-21.5746
-21.5033
-21.4314
-21.3594
-21.2872
-21.2148
-21.1414
-21.1015
-21.1144
-21.1223
-21.1251
-21.1227
-21.1154
-21.1031
-21.086
-21.0643
-21.0379
-21.0071
-20.9719
-20.9326
-20.8893
-20.8421
-20.7912
-20.7369
-20.6794
-20.619
-20.5559
-20.4906
-20.4233
-20.3546
-20.2848
-20.2145
-20.1441
-20.0741
-20.0046
-19.9356
-19.8663
-19.9204
-19.932
-19.9387
-19.9403
-19.937
-19.9287
-19.9157
-19.8979
-19.8755
-19.8486
-19.8174
-19.7818
-19.7422
-19.6986
-19.6512
-19.6002
-19.5458
-19.4883
-19.4279
-19.3648
-19.2996
-19.2325
-19.164
-19.0947
-19.0252
-18.956
-18.8878
-18.8209
-18.7553
-18.6904
-18.8301
-18.8405
-18.8461
-18.8468
-18.8425
-18.8335
-18.8197
-18.8013
-18.7783
-18.751
-18.7193
-18.6834
-18.6435
-18.5996
-18.5521
-18.5009
-18.4464
-18.3888
-18.3283
-18.2652
-18.1999
-18.1328
-18.0645
-17.9954
-17.9263
-17.858
-17.7913
-17.7268
-17.6648
-17.6046
-17.8228
-17.8321
-17.8367
-17.8364
-17.8313
-17.8215
-17.8071
-17.7881
-17.7646
-17.7368
-17.7048
-17.6686
-17.6284
-17.5844
-17.5366
-17.4853
-17.4307
-17.3729
-17.3123
-17.2491
-17.1836
-17.1164
-17.0479
-16.9787
-16.9098
-16.8419
-16.7763
-16.714
-16.6556
-16.6005
-16.8911
-16.8994
-16.9031
-16.9019
-16.8961
-16.8856
-16.8706
-16.8511
-16.8272
-16.799
-16.7666
-16.7301
-16.6897
-16.6455
-16.5975
-16.5461
-16.4913
-16.4334
-16.3726
-16.3091
-16.2434
-16.1759
-16.107
-16.0374
-15.9682
-15.9003
-15.8353
-15.7746
-15.7199
-15.6704
-16.0286
-16.036
-16.0388
-16.0369
-16.0304
-16.0192
-16.0037
-15.9836
-15.9593
-15.9307
-15.898
-15.8613
-15.8206
-15.7762
-15.7281
-15.6764
-15.6215
-15.5634
-15.5023
-15.4386
-15.3725
-15.3044
-15.2349
-15.1646
-15.0946
-15.0261
-14.9609
-14.9012
-14.8497
-14.8066
-15.2296
-15.2361
-15.2381
-15.2354
-15.2282
-15.2165
-15.2003
-15.1798
-15.155
-15.1261
-15.093
-15.056
-15.015
-14.9703
-14.922
-14.8701
-14.8149
-14.7564
-14.695
-14.6308
-14.5642
-14.4954
-14.425
-14.3535
-14.2821
-14.2121
-14.1457
-14.0858
-14.0367
-13.9996
-14.4887
-14.4945
-14.4958
-14.4926
-14.4849
-14.4727
-14.4561
-14.4353
-14.4102
-14.3809
-14.3476
-14.3103
-14.2691
-14.2242
-14.1756
-14.1235
-14.0681
-14.0093
-13.9475
-13.8829
-13.8155
-13.7459
-13.6743
-13.6014
-13.5281
-13.4558
-13.3868
-13.3255
-13.2777
-13.2463
-13.8006
-13.8062
-13.8074
-13.804
-13.7962
-13.7841
-13.7676
-13.7468
-13.7219
-13.6929
-13.6599
-13.6229
-13.5821
-13.5375
-13.4894
-13.4377
-13.3826
-13.3242
-13.2628
-13.1984
-13.1312
-13.0615
-12.9895
-12.9159
-12.8412
-12.7667
-12.6947
-12.6306
-12.5836
-12.5655
-13.162
-13.1659
-13.1656
-13.161
-13.1521
-13.1389
-13.1217
-13.1003
-13.0749
-13.0456
-13.0124
-12.9754
-12.9347
-12.8904
-12.8426
-12.7914
-12.7369
-12.6791
-12.6183
-12.5546
-12.488
-12.4188
-12.3471
-12.2733
-12.1977
-12.1212
-12.045
-11.974
-11.9159
-11.9178
-85.6679
-85.9523
-86.2025
-86.4675
-86.7428
-87.0175
-87.2875
-87.5519
-87.8099
-88.0606
-88.3033
-88.5372
-88.7618
-88.9768
-89.1818
-89.3766
-89.561
-89.735
-89.8983
-90.0509
-90.1929
-90.3244
-90.4454
-90.5562
-90.6572
-90.7489
-90.8325
-90.9098
-90.9844
-91.0608
-76.9229
-77.2342
-77.5249
-77.8133
-78.1002
-78.3815
-78.6555
-78.922
-79.181
-79.432
-79.6746
-79.9083
-80.1329
-80.3479
-80.5532
-80.7486
-80.9338
-81.1088
-81.2734
-81.4277
-81.5716
-81.7051
-81.8284
-81.9417
-82.0451
-82.1391
-82.2243
-82.3011
-82.37
-82.4279
-70.1342
-70.4531
-70.759
-71.0549
-71.3433
-71.6242
-71.8974
-72.1628
-72.4203
-72.6698
-72.9109
-73.1432
-73.3666
-73.5808
-73.7856
-73.9807
-74.1661
-74.3416
-74.5072
-74.6628
-74.8082
-74.9437
-75.0692
-75.1847
-75.2905
-75.3866
-75.4731
-75.5497
-75.6158
-75.6692
-64.3463
-64.6592
-64.9631
-65.2565
-65.5411
-65.8178
-66.087
-66.3485
-66.6022
-66.8478
-67.0852
-67.3141
-67.5344
-67.7458
-67.9481
-68.1413
-68.325
-68.4993
-68.6641
-68.8192
-68.9647
-69.1005
-69.2266
-69.3431
-69.4498
-69.5469
-69.6342
-69.7113
-69.7779
-69.833
-59.0169
-59.319
-59.6146
-59.9012
-60.1792
-60.4493
-60.7121
-60.9673
-61.2147
-61.4544
-61.686
-61.9095
-62.1246
-62.3312
-62.5291
-62.7182
-62.8984
-63.0696
-63.2316
-63.3844
-63.528
-63.6623
-63.7872
-63.9028
-64.009
-64.1058
-64.1929
-64.2703
-64.3375
-64.3941
-54.1856
-54.4756
-54.7608
-55.0382
-55.3074
-55.569
-55.8234
-56.0705
-56.3101
-56.5421
-56.7664
-56.9828
-57.1912
-57.3915
-57.5834
-57.767
-57.942
-58.1084
-58.2661
-58.415
-58.555
-58.6862
-58.8084
-58.9217
-59.0259
-59.121
-59.2068
-59.2833
-59.3502
-59.4072
-49.8362
-50.1141
-50.3879
-50.6547
-50.9139
-51.1659
-51.4108
-51.6488
-51.8795
-52.1029
-52.3189
-52.5274
-52.7281
-52.921
-53.106
-53.2829
-53.4517
-53.6122
-53.7644
-53.9082
-54.0436
-54.1705
-54.2888
-54.3986
-54.4996
-54.592
-54.6755
-54.7501
-54.8156
-54.8718
-45.9163
-46.1823
-46.4444
-46.7002
-46.9489
-47.1908
-47.426
-47.6544
-47.8759
-48.0903
-48.2976
-48.4976
-48.6902
-48.8752
-49.0527
-49.2224
-49.3843
-49.5384
-49.6844
-49.8225
-49.9524
-50.0743
-50.1879
-50.2933
-50.3904
-50.4792
-50.5596
-50.6315
-50.6948
-50.7494
-42.3786
-42.633
-42.8839
-43.1288
-43.3672
-43.599
-43.8245
-44.0434
-44.2556
-44.4611
-44.6596
-44.8511
-45.0354
-45.2125
-45.3823
-45.5446
-45.6994
-45.8467
-45.9863
-46.1182
-46.2424
-46.3588
-46.4673
-46.568
-46.6607
-46.7454
-46.8221
-46.8908
-46.9513
-47.0037
-39.181
-39.4247
-39.6648
-39.8994
-40.1278
-40.35
-40.5661
-40.7758
-40.9791
-41.1758
-41.3658
-41.549
-41.7252
-41.8945
-42.0567
-42.2117
-42.3595
-42.5
-42.6332
-42.7589
-42.8772
-42.988
-43.0913
-43.187
-43.2751
-43.3556
-43.4284
-43.4935
-43.5508
-43.6005
-36.2855
-36.5192
-36.7494
-36.9743
-37.1933
-37.4064
-37.6136
-37.8146
-38.0094
-38.1978
-38.3796
-38.5549
-38.7235
-38.8852
-39.0401
-39.1881
-39.3291
-39.4631
-39.5899
-39.7096
-39.8222
-39.9275
-40.0256
-40.1163
-40.1998
-40.276
-40.3448
-40.4062
-40.4603
-40.507
-33.658
-33.8826
-34.1037
-34.3196
-34.5299
-34.7345
-34.9334
-35.1263
-35.3131
-35.4937
-35.6679
-35.8357
-35.997
-36.1517
-36.2998
-36.4411
-36.5756
-36.7033
-36.8242
-36.9381
-37.0451
-37.1452
-37.2382
-37.3242
-37.4032
-37.4752
-37.5401
-37.5979
-37.6486
-37.6924
-31.2689
-31.4851
-31.6977
-31.9055
-32.1078
-32.3046
-32.4958
-32.6811
-32.8606
-33.0339
-33.201
-33.3619
-33.5164
-33.6645
-33.8061
-33.9412
-34.0696
-34.1915
-34.3067
-34.4152
-34.517
-34.6121
-34.7004
-34.7819
-34.8566
-34.9245
-34.9857
-35.04
-35.0875
-35.1283
-29.092
-29.3005
-29.5056
-29.7058
-29.9008
-30.0904
-30.2746
-30.453
-30.6256
-30.7923
-30.9528
-31.1072
-31.2555
-31.3974
-31.533
-31.6623
-31.7851
-31.9015
-32.0115
-32.1149
-32.2119
-32.3023
-32.3861
-32.4634
-32.5341
-32.5983
-32.6558
-32.7069
-32.7513
-32.7893
-27.1046
-27.3062
-27.5043
-27.6978
-27.8861
-28.0692
-28.2469
-28.419
-28.5853
-28.7457
-28.9002
-29.0487
-29.1911
-29.3274
-29.4574
-29.5813
-29.699
-29.8103
-29.9154
-30.0142
-30.1066
-30.1927
-30.2724
-30.3458
-30.4128
-30.4734
-30.5277
-30.5756
-30.6171
-30.6525
-25.2871
-25.4824
-25.6742
-25.8615
-26.0438
-26.2209
-26.3927
-26.5589
-26.7195
-26.8742
-27.0231
-27.1661
-27.3031
-27.4341
-27.5591
-27.678
-27.7908
-27.8975
-27.9981
-28.0925
-28.1808
-28.2629
-28.3388
-28.4086
-28.4721
-28.5295
-28.5807
-28.6257
-28.6646
-28.6975
-23.6221
-23.8117
-23.9978
-24.1796
-24.3564
-24.5281
-24.6944
-24.8553
-25.0105
-25.16
-25.3037
-25.4416
-25.5736
-25.6998
-25.82
-25.9343
-26.0427
-26.1451
-26.2416
-26.332
-26.4165
-26.4949
-26.5673
-26.6337
-26.6941
-26.7485
-26.7968
-26.8392
-26.8757
-26.9062
-22.0945
-22.2789
-22.46
-22.6367
-22.8086
-22.9753
-23.1367
-23.2926
-23.4429
-23.5876
-23.7265
-23.8597
-23.9871
-24.1087
-24.2246
-24.3346
-24.4389
-24.5373
-24.6299
-24.7167
-24.7976
-24.8727
-24.9419
-25.0052
-25.0627
-25.1143
-25.1601
-25.2001
-25.2342
-25.2627
-20.6912
-20.8709
-21.0474
-21.2196
-21.387
-21.5492
-21.7061
-21.8574
-22.0031
-22.1432
-22.2777
-22.4065
-22.5296
-22.647
-22.7588
-22.865
-22.9654
-23.0602
-23.1492
-23.2326
-23.3103
-23.3822
-23.4485
-23.509
-23.5638
-23.6129
-23.6563
-23.6941
-23.7261
-23.7526
-19.4003
-19.5757
-19.7482
-19.9165
-20.0798
-20.2379
-20.3905
-20.5376
-20.679
-20.8149
-20.9451
-21.0698
-21.1889
-21.3025
-21.4105
-21.513
-21.6099
-21.7012
-21.787
-21.8673
-21.942
-22.0111
-22.0746
-22.1325
-22.1849
-22.2316
-22.2729
-22.3086
-22.3387
-22.3635
-18.2114
-18.383
-18.552
-18.7168
-18.8765
-19.0307
-19.1794
-19.3225
-19.4599
-19.5918
-19.7181
-19.8389
-19.9543
-20.0642
-20.1687
-20.2677
-20.3614
-20.4496
-20.5324
-20.6097
-20.6816
-20.7481
-20.8091
-20.8646
-20.9147
-20.9594
-20.9986
-21.0325
-21.0609
-21.084
-17.1152
-17.2834
-17.4496
-17.6114
-17.7677
-17.9184
-18.0634
-18.2027
-18.3363
-18.4644
-18.5869
-18.7041
-18.816
-18.9224
-19.0236
-19.1195
-19.2101
-19.2954
-19.3754
-19.45
-19.5194
-19.5834
-19.6421
-19.6955
-19.7435
-19.7862
-19.8236
-19.8558
-19.8826
-19.9042
-16.103
-16.2684
-16.4325
-16.5918
-16.7451
-16.8924
-17.0339
-17.1696
-17.2996
-17.424
-17.5431
-17.6568
-17.7653
-17.8686
-17.9667
-18.0597
-18.1474
-18.23
-18.3074
-18.3796
-18.4466
-18.5083
-18.5649
-18.6163
-18.6624
-18.7033
-18.739
-18.7696
-18.7949
-18.8152
-15.167
-15.3303
-15.4933
-15.6506
-15.8011
-15.9453
-16.0834
-16.2156
-16.342
-16.4631
-16.5788
-16.6893
-16.7947
-16.895
-16.9902
-17.0804
-17.1655
-17.2456
-17.3205
-17.3904
-17.4552
-17.5149
-17.5695
-17.619
-17.6634
-17.7027
-17.7368
-17.7659
-17.7899
-17.8089
-14.3002
-14.4624
-14.6255
-14.7814
-14.9292
-15.0703
-15.2051
-15.3339
-15.457
-15.5747
-15.6873
-15.7947
-15.8972
-15.9947
-16.0872
-16.1748
-16.2575
-16.3352
-16.4079
-16.4757
-16.5384
-16.5962
-16.6489
-16.6967
-16.7394
-16.7772
-16.8099
-16.8377
-16.8604
-16.8783
-13.4957
-13.6594
-13.8243
-13.9788
-14.1239
-14.262
-14.3935
-14.5189
-14.6388
-14.7533
-14.8628
-14.9674
-15.0671
-15.1619
-15.2519
-15.3371
-15.4174
-15.4928
-15.5634
-15.6292
-15.69
-15.7459
-15.797
-15.8431
-15.8843
-15.9206
-15.952
-15.9785
-16
-16.0168
-12.7434
-12.9149
-13.0844
-13.2374
-13.3796
-13.5146
-13.6428
-13.7649
-13.8816
-13.9931
-14.0997
-14.2015
-14.2985
-14.3908
-14.4784
-14.5613
-14.6394
-14.7127
-14.7813
-14.8451
-14.9042
-14.9584
-15.0078
-15.0524
-15.0922
-15.1271
-15.1572
-15.1825
-15.203
-15.2188
-12.0237
-12.2127
-12.3929
-12.5451
-12.6845
-12.8165
-12.9417
-13.0609
-13.1747
-13.2835
-13.3876
-13.4871
-13.5819
-13.6721
-13.7577
-13.8386
-13.9149
-13.9866
-14.0535
-14.1158
-14.1734
-14.2263
-14.2744
-14.3178
-14.3564
-14.3903
-14.4194
-14.4438
-14.4635
-14.4785
-11.3332
-11.5439
-11.7404
-11.8951
-12.0323
-12.1615
-12.284
-12.4005
-12.5119
-12.6185
-12.7206
-12.8181
-12.9111
-12.9996
-13.0836
-13.163
-13.2379
-13.3082
-13.3739
-13.4351
-13.4916
-13.5435
-13.5907
-13.6333
-13.6712
-13.7044
-13.733
-13.7569
-13.7761
-13.7907
-10.7962
-11.0206
-11.2103
-11.3639
-11.496
-11.6178
-11.7339
-11.8447
-11.9506
-12.0521
-12.1492
-12.242
-12.3303
-12.4143
-12.4939
-12.5691
-12.6399
-12.7063
-12.7682
-12.8257
-12.8787
-12.9273
-12.9714
-13.0109
-13.046
-13.0765
-13.1026
-13.1242
-13.1413
-13.1539
-6.01712
-6.52628
-7.08013
-7.67932
-8.32795
-9.03058
-9.79179
-10.6166
-11.5108
-12.4805
-13.5329
-14.6758
-15.9182
-17.2699
-18.7426
-20.3491
-22.1045
-24.0259
-26.1336
-28.4507
-31.0049
-33.8283
-36.9588
-40.4405
-44.3264
-48.6808
-53.5397
-58.8928
-65.3117
-73.7839
-6.17331
-6.6861
-7.24163
-7.84302
-8.49427
-9.19969
-9.96391
-10.792
-11.6897
-12.6634
-13.72
-14.8675
-16.1148
-17.4721
-18.9507
-20.5638
-22.3265
-24.256
-26.3725
-28.6996
-31.2647
-34.1002
-37.2441
-40.7404
-44.6421
-49.0133
-53.8893
-59.2568
-65.6813
-74.1446
-6.33118
-6.84756
-7.40482
-8.0085
-8.66244
-9.37074
-10.1381
-10.9695
-11.8709
-12.8484
-13.9093
-15.0616
-16.314
-17.6769
-19.1617
-20.7816
-22.5517
-24.4894
-26.615
-28.9521
-31.5284
-34.3762
-37.5337
-41.0447
-44.9621
-49.3495
-54.2412
-59.6213
-66.0474
-74.4941
-6.49045
-7.0104
-7.56942
-8.17545
-8.83214
-9.54339
-10.3138
-11.1487
-12.0538
-13.0354
-14.1006
-15.2576
-16.5153
-17.8839
-19.3749
-21.0016
-22.7792
-24.7253
-26.86
-29.2073
-31.7947
-34.655
-37.826
-41.3516
-45.2846
-49.6877
-54.5948
-59.9879
-66.4202
-74.8603
-6.65097
-7.17445
-7.73527
-8.34371
-9.00323
-9.71747
-10.4911
-11.3295
-12.2383
-13.2239
-14.2937
-15.4554
-16.7184
-18.0927
-19.59
-21.2237
-23.0089
-24.9633
-27.1072
-29.4647
-32.0634
-34.936
-38.1205
-41.6608
-45.6092
-50.0281
-54.9505
-60.3576
-66.7998
-75.2405
-6.81257
-7.33955
-7.90221
-8.51315
-9.17555
-9.89286
-10.6698
-11.5116
-12.4242
-13.4141
-14.4883
-15.6549
-16.9232
-18.3033
-19.807
-21.4476
-23.2405
-25.2033
-27.3566
-29.7242
-32.3342
-35.2193
-38.4173
-41.9723
-45.9362
-50.371
-55.3091
-60.7306
-67.1839
-75.6282
-6.97512
-7.50556
-8.07008
-8.6836
-9.34896
-10.0694
-10.8496
-11.6951
-12.6116
-13.6056
-14.6843
-15.8559
-17.1296
-18.5156
-20.0257
-21.6733
-23.4739
-25.4452
-27.6078
-29.9858
-32.6072
-35.5047
-38.7164
-42.2861
-46.2656
-50.7165
-55.6704
-61.1063
-67.5711
-76.0207
-7.13846
-7.67231
-8.23874
-8.8549
-9.52329
-10.2469
-11.0305
-11.8796
-12.8
-13.7983
-14.8816
-16.0583
-17.3373
-18.7293
-20.2459
-21.9006
-23.709
-25.6888
-27.8609
-30.2493
-32.8821
-35.7922
-39.0176
-42.602
-46.5972
-51.0644
-56.0341
-61.4847
-67.9613
-76.4172
-7.30246
-7.83966
-8.40803
-9.02691
-9.69839
-10.4253
-11.2123
-12.0651
-12.9895
-13.9921
-15.0801
-16.2617
-17.5463
-18.9442
-20.4674
-22.1293
-23.9455
-25.934
-28.1155
-30.5144
-33.1587
-36.0814
-39.3206
-42.9199
-46.9309
-51.4144
-56.4002
-61.8656
-68.3543
-76.8173
-7.46699
-8.00747
-8.57782
-9.1995
-9.87415
-10.6043
-11.3949
-12.2514
-13.1798
-14.1867
-15.2795
-16.4663
-17.7564
-19.1603
-20.69
-22.3591
-24.1833
-26.1805
-28.3716
-30.7809
-33.4368
-36.3723
-39.6253
-43.2396
-47.2664
-51.7662
-56.7682
-62.2485
-68.7495
-77.2202
-7.63192
-8.17562
-8.74798
-9.37254
-10.0504
-10.784
-11.5781
-12.4384
-13.3709
-14.3822
-15.4797
-16.6716
-17.9673
-19.3774
-20.9137
-22.5901
-24.4222
-26.4281
-28.6288
-31.0488
-33.7163
-36.6645
-39.9314
-43.5607
-47.6035
-52.1197
-57.1379
-62.6332
-69.1466
-77.6251
-7.79716
-8.344
-8.9184
-9.54591
-10.2271
-10.964
-11.7618
-12.626
-13.5626
-14.5783
-15.6806
-16.8777
-18.179
-19.5952
-21.1382
-22.8219
-24.6619
-26.6767
-28.8871
-31.3176
-33.9969
-36.9578
-40.2388
-43.8831
-47.9418
-52.4744
-57.5089
-63.0192
-69.5451
-78.0315
-7.9626
-8.51251
-9.08897
-9.71951
-10.4041
-11.1445
-11.9459
-12.8139
-13.7547
-14.7749
-15.882
-17.0843
-18.3913
-19.8136
-21.3634
-23.0543
-24.9025
-26.926
-29.1461
-31.5873
-34.2783
-37.2521
-40.547
-44.2064
-48.2811
-52.8302
-57.8809
-63.4062
-69.9444
-78.4389
-8.1282
-8.68107
-9.25962
-9.89327
-10.5812
-11.3252
-12.1303
-13.0023
-13.9472
-14.9719
-16.0839
-17.2914
-18.6041
-20.0325
-21.589
-23.2873
-25.1435
-27.1759
-29.4057
-31.8576
-34.5604
-37.5471
-40.856
-44.5305
-48.6212
-53.1867
-58.2536
-63.7938
-70.3443
-78.8466
-8.29389
-8.84965
-9.4303
-10.0671
-10.7586
-11.5061
-12.3149
-13.1908
-14.14
-15.1692
-16.286
-17.4988
-18.8171
-20.2517
-21.8149
-23.5206
-25.3848
-27.4261
-29.6657
-32.1283
-34.8428
-37.8425
-41.1654
-44.855
-48.9616
-53.5436
-58.6266
-64.1816
-70.7442
-79.2544
-8.45967
-9.0182
-9.60096
-10.241
-10.936
-11.6871
-12.4996
-13.3795
-14.3329
-15.3666
-16.4882
-17.7062
-19.0302
-20.471
-22.041
-23.754
-25.6263
-27.6764
-29.9258
-32.3992
-35.1255
-38.138
-41.475
-45.1797
-49.3022
-53.9005
-58.9996
-64.5693
-71.1439
-79.6618
-8.62557
-9.18676
-9.77162
-10.415
-11.1135
-11.8682
-12.6844
-13.5682
-14.5258
-15.564
-16.6905
-17.9137
-19.2434
-20.6903
-22.2669
-23.9873
-25.8677
-27.9267
-30.1858
-32.6699
-35.408
-38.4334
-41.7845
-45.5042
-49.6426
-54.2572
-59.3722
-64.9565
-71.5429
-80.0684
-8.79166
-9.35536
-9.94229
-10.5889
-11.291
-12.0493
-12.8692
-13.757
-14.7187
-15.7614
-16.8926
-18.121
-19.4563
-20.9093
-22.4927
-24.2204
-26.1088
-28.1766
-30.4454
-32.9403
-35.6902
-38.7285
-42.0935
-45.8283
-49.9825
-54.6132
-59.7441
-65.3428
-71.941
-80.4739
-8.95807
-9.52412
-10.113
-10.763
-11.4686
-12.2303
-13.054
-13.9455
-14.9114
-15.9584
-17.0944
-18.3279
-19.6688
-21.1279
-22.7179
-24.4529
-26.3493
-28.426
-30.7045
-33.2101
-35.9717
-39.0229
-42.4019
-46.1516
-50.3216
-54.9684
-60.115
-65.728
-72.3377
-80.8778
-9.12502
-9.69318
-10.284
-10.9371
-11.6462
-12.4114
-13.2386
-14.1339
-15.1038
-16.1551
-17.2957
-18.5343
-19.8807
-21.3459
-22.9424
-24.6847
-26.5891
-28.6745
-30.9627
-33.479
-36.2523
-39.3163
-42.7092
-46.4739
-50.6595
-55.3224